/*--------------------------------*- C++ -*----------------------------------*\
| =========                 |                                                 |
| \\      /  F ield         | OpenFOAM: The Open Source CFD Toolbox           |
|  \\    /   O peration     | Version:  v1906                                 |
|   \\  /    A nd           | Web:      www.OpenFOAM.com                      |
|    \\/     M anipulation  |                                                 |
\*---------------------------------------------------------------------------*/
FoamFile
{
    version     2.0;
    format      ascii;
    class       volScalarField;
    location    "100";
    object      p;
}
// * * * * * * * * * * * * * * * * * * * * * * * * * * * * * * * * * * * * * //

dimensions      [0 2 -2 0 0 0 0];


internalField   nonuniform List<scalar> 
42616
(
0.00355075
0.00355058
0.00355059
0.0035534
0.00349716
0.0034973
0.0034973
0.00349951
0.0034459
0.00344594
0.00344594
0.00344824
0.00339399
0.00339396
0.00339395
0.00339623
0.00334292
0.00334287
0.00334286
0.0033451
0.00329321
0.00329317
0.00329317
0.00329536
0.00324493
0.0032449
0.0032449
0.00324706
0.00319795
0.00319793
0.00319793
0.00320005
0.00315205
0.00315205
0.00315205
0.00315414
0.00310706
0.00310706
0.00310706
0.00310912
0.00306278
0.00306279
0.00306279
0.00306483
0.00301911
0.00301912
0.00301912
0.00302114
0.00297595
0.00297596
0.00297596
0.00297796
0.00293325
0.00293327
0.00293327
0.00293524
0.00289098
0.00289099
0.00289099
0.00289295
0.00284908
0.00284909
0.00284909
0.00285103
0.00280755
0.00280755
0.00280755
0.00280948
0.00276643
0.00276643
0.00276643
0.00276833
0.00272589
0.00272587
0.00272587
0.00272773
0.0026861
0.00268606
0.00268607
0.00268789
0.00264724
0.00264719
0.00264719
0.00264898
0.00356417
0.00356433
0.00356432
0.00356415
0.00356433
0.00356434
0.00356504
0.00356504
0.00356505
0.00356505
0.00356432
0.00356433
0.00356417
0.00356434
0.00356433
0.00356416
0.0035534
0.0035072
0.00355059
0.00355058
0.00350969
0.00350968
0.0035534
0.00350719
0.00355059
0.00355059
0.00350968
0.00350968
0.00355058
0.00350968
0.00350968
0.00355341
0.00350719
0.00355058
0.00350968
0.00350968
0.00350719
0.00349951
0.00345627
0.0034973
0.0034973
0.00345894
0.00345894
0.00349951
0.00345627
0.0034973
0.0034973
0.00345894
0.00345894
0.0034973
0.00345894
0.00345894
0.00349951
0.00345627
0.0034973
0.00345894
0.00345894
0.00345627
0.00344824
0.00340423
0.00344594
0.00344594
0.0034069
0.0034069
0.00344824
0.00340422
0.00344594
0.00344594
0.0034069
0.0034069
0.00344594
0.0034069
0.0034069
0.00344824
0.00340423
0.00344594
0.0034069
0.0034069
0.00340423
0.00339623
0.0033529
0.00339396
0.00339396
0.00335552
0.00335552
0.00339623
0.0033529
0.00339396
0.00339396
0.00335552
0.00335552
0.00339395
0.00335552
0.00335552
0.00339623
0.0033529
0.00339395
0.00335552
0.00335552
0.0033529
0.0033451
0.00330294
0.00334286
0.00334287
0.00330545
0.00330545
0.0033451
0.00330294
0.00334287
0.00334287
0.00330545
0.00330545
0.00334287
0.00330545
0.00330545
0.0033451
0.00330294
0.00334286
0.00330545
0.00330545
0.00330294
0.00329536
0.00325442
0.00329316
0.00329317
0.00325684
0.00325684
0.00329536
0.00325442
0.00329316
0.00329316
0.00325684
0.00325684
0.00329316
0.00325684
0.00325684
0.00329536
0.00325442
0.00329316
0.00325684
0.00325684
0.00325442
0.00324706
0.00320723
0.0032449
0.0032449
0.00320956
0.00320956
0.00324706
0.00320723
0.0032449
0.0032449
0.00320956
0.00320956
0.0032449
0.00320956
0.00320956
0.00324706
0.00320723
0.0032449
0.00320956
0.00320956
0.00320723
0.00320005
0.00316117
0.00319793
0.00319793
0.00316343
0.00316343
0.00320005
0.00316117
0.00319793
0.00319793
0.00316343
0.00316343
0.00319793
0.00316343
0.00316343
0.00320005
0.00316117
0.00319793
0.00316343
0.00316343
0.00316117
0.00315414
0.00311604
0.00315205
0.00315205
0.00311823
0.00311823
0.00315414
0.00311603
0.00315205
0.00315205
0.00311823
0.00311823
0.00315205
0.00311823
0.00311823
0.00315414
0.00311603
0.00315205
0.00311823
0.00311823
0.00311603
0.00310913
0.00307165
0.00310706
0.00310706
0.0030738
0.0030738
0.00310913
0.00307164
0.00310706
0.00310706
0.0030738
0.0030738
0.00310706
0.0030738
0.0030738
0.00310912
0.00307165
0.00310706
0.0030738
0.0030738
0.00307164
0.00306483
0.00302787
0.00306279
0.00306279
0.00302999
0.00302999
0.00306483
0.00302787
0.00306279
0.00306279
0.00302999
0.00302999
0.00306279
0.00302999
0.00302999
0.00306483
0.00302787
0.00306279
0.00302999
0.00302999
0.00302787
0.00302114
0.00298461
0.00301912
0.00301912
0.0029867
0.0029867
0.00302114
0.00298461
0.00301912
0.00301912
0.00298671
0.0029867
0.00301912
0.00298671
0.00298671
0.00302114
0.00298461
0.00301912
0.00298671
0.00298671
0.00298461
0.00297796
0.00294183
0.00297596
0.00297596
0.0029439
0.0029439
0.00297795
0.00294183
0.00297596
0.00297596
0.0029439
0.0029439
0.00297596
0.0029439
0.0029439
0.00297796
0.00294183
0.00297596
0.0029439
0.0029439
0.00294183
0.00293524
0.00289949
0.00293326
0.00293326
0.00290152
0.00290152
0.00293524
0.00289949
0.00293326
0.00293327
0.00290152
0.00290152
0.00293327
0.00290152
0.00290152
0.00293524
0.00289949
0.00293327
0.00290152
0.00290152
0.00289949
0.00289295
0.00285754
0.00289099
0.00289099
0.00285953
0.00285953
0.00289295
0.00285754
0.00289099
0.00289099
0.00285953
0.00285953
0.00289099
0.00285953
0.00285953
0.00289295
0.00285754
0.00289099
0.00285953
0.00285953
0.00285754
0.00285104
0.00281595
0.00284909
0.00284909
0.0028179
0.0028179
0.00285103
0.00281595
0.00284909
0.00284909
0.0028179
0.0028179
0.00284909
0.0028179
0.0028179
0.00285103
0.00281594
0.00284909
0.0028179
0.0028179
0.00281594
0.00280948
0.00277474
0.00280755
0.00280755
0.00277666
0.00277667
0.00280948
0.00277474
0.00280755
0.00280755
0.00277666
0.00277666
0.00280755
0.00277667
0.00277667
0.00280948
0.00277474
0.00280755
0.00277666
0.00277667
0.00277474
0.00276833
0.00273406
0.00276643
0.00276643
0.00273594
0.00273594
0.00276833
0.00273406
0.00276643
0.00276643
0.00273594
0.00273594
0.00276643
0.00273594
0.00273594
0.00276833
0.00273406
0.00276643
0.00273594
0.00273594
0.00273406
0.00272773
0.00269408
0.00272586
0.00272587
0.00269593
0.00269593
0.00272773
0.00269409
0.00272586
0.00272586
0.00269593
0.00269593
0.00272587
0.00269593
0.00269593
0.00272773
0.00269409
0.00272587
0.00269593
0.00269594
0.00269409
0.00268789
0.00265503
0.00268606
0.00268606
0.00265682
0.00265682
0.00268789
0.00265503
0.00268606
0.00268606
0.00265682
0.00265682
0.00268607
0.00265682
0.00265682
0.00268789
0.00265504
0.00268607
0.00265682
0.00265682
0.00265504
0.00264897
0.00264719
0.00264719
0.00264898
0.00264719
0.00264719
0.0026472
0.00264897
0.0026472
0.00357326
0.00358323
0.00357784
0.00357785
0.0036003
0.00358723
0.00361578
0.00358114
0.0036003
0.00358724
0.00358115
0.00361578
0.00359173
0.00361984
0.00361979
0.00353212
0.00353239
0.00355066
0.00353034
0.00351054
0.00352922
0.00353212
0.0035325
0.00355063
0.00353033
0.00355075
0.00355075
0.00355075
0.00350956
0.00350956
0.00350956
0.00350956
0.00353085
0.00354772
0.00355083
0.00353509
0.00355301
0.00353175
0.00353572
0.00351068
0.00352927
0.00353085
0.00355083
0.0035477
0.00353509
0.003553
0.00353573
0.00353174
0.0035444
0.00354437
0.00353189
0.00353206
0.00353207
0.00348253
0.0035004
0.00350141
0.00348162
0.00349976
0.00348115
0.00348253
0.00350039
0.00350141
0.00348162
0.00349716
0.00349716
0.00349715
0.00345888
0.00345888
0.00345888
0.00345888
0.00348163
0.00350089
0.00349723
0.00348468
0.00350018
0.0034821
0.00348462
0.00349977
0.00348115
0.00348163
0.00349723
0.00350088
0.00348468
0.00350017
0.00348462
0.00348209
0.00350115
0.00350116
0.00348206
0.00348222
0.00348222
0.00343027
0.00344887
0.00344971
0.00342949
0.00344857
0.00342925
0.00343027
0.00344887
0.00344971
0.00342949
0.0034459
0.0034459
0.0034459
0.00340693
0.00340693
0.00340693
0.00340693
0.00342975
0.00344924
0.00344591
0.00343291
0.00344895
0.00342992
0.0034329
0.00344857
0.00342925
0.00342975
0.00344591
0.00344924
0.00343291
0.00344895
0.00343289
0.00342992
0.00344931
0.00344932
0.00343023
0.00342986
0.00342986
0.00337815
0.00339665
0.00339733
0.00337755
0.00339648
0.00337739
0.00337815
0.00339664
0.00339733
0.00337755
0.00339399
0.00339399
0.00339399
0.00335557
0.00335557
0.00335557
0.00335557
0.00337788
0.00339696
0.00339396
0.00338107
0.00339685
0.00337793
0.00338108
0.00339648
0.00337739
0.00337788
0.00339396
0.00339696
0.00338107
0.00339685
0.00338108
0.00337792
0.00339695
0.00339695
0.00337842
0.00337781
0.00337781
0.00332728
0.00334542
0.00334593
0.00332684
0.00334531
0.00332671
0.00332728
0.00334542
0.00334593
0.00332684
0.00334292
0.00334292
0.00334292
0.0033055
0.0033055
0.0033055
0.0033055
0.00332717
0.00334567
0.00334287
0.0033303
0.00334563
0.00332718
0.00333031
0.00334531
0.00332672
0.00332717
0.00334287
0.00334566
0.0033303
0.00334563
0.00333031
0.00332717
0.00334565
0.00334565
0.00332774
0.00332705
0.00332705
0.00327793
0.00329565
0.003296
0.00327763
0.00329557
0.0032775
0.00327794
0.00329565
0.003296
0.00327763
0.00329321
0.00329321
0.00329321
0.00325687
0.00325687
0.00325687
0.00325687
0.00327793
0.00329583
0.00329316
0.00328097
0.00329582
0.00327792
0.00328097
0.00329555
0.00327752
0.00327793
0.00329316
0.00329583
0.00328097
0.00329582
0.00328097
0.00327792
0.00329584
0.00329584
0.00327851
0.00327781
0.00327781
0.00323004
0.00324734
0.00324758
0.00322983
0.00324725
0.00322972
0.00323004
0.00324733
0.00324758
0.00322982
0.00324493
0.00324493
0.00324493
0.00320958
0.00320958
0.00320958
0.00320958
0.0032301
0.00324748
0.00324489
0.00323304
0.00324747
0.0032301
0.00323303
0.00324725
0.00322972
0.0032301
0.00324489
0.00324748
0.00323304
0.00324747
0.00323303
0.00323009
0.0032475
0.0032475
0.00323067
0.00322999
0.00322999
0.00318341
0.00320032
0.0032005
0.00318325
0.00320025
0.00318315
0.00318341
0.00320033
0.0032005
0.00318325
0.00319795
0.00319795
0.00319795
0.00316344
0.00316344
0.00316344
0.00316344
0.00318351
0.00320044
0.00319791
0.00318636
0.00320043
0.00318351
0.00318635
0.00320025
0.00318315
0.00318351
0.00319791
0.00320044
0.00318636
0.00320043
0.00318635
0.00318351
0.00320048
0.00320048
0.00318407
0.0031834
0.0031834
0.00313783
0.00315441
0.00315455
0.0031377
0.00315434
0.0031376
0.00313783
0.00315441
0.00315455
0.00313769
0.00315205
0.00315205
0.00315205
0.00311823
0.00311823
0.00311823
0.00311823
0.00313796
0.00315451
0.00315203
0.00314072
0.0031545
0.00313795
0.0031407
0.00315434
0.00313759
0.00313796
0.00315203
0.00315451
0.00314072
0.0031545
0.0031407
0.00313795
0.00315455
0.00315455
0.00313849
0.00313783
0.00313783
0.00309309
0.0031094
0.00310951
0.00309297
0.00310933
0.00309287
0.00309309
0.0031094
0.00310951
0.00309297
0.00310705
0.00310705
0.00310705
0.00307379
0.00307379
0.00307379
0.00307379
0.00309324
0.00310948
0.00310703
0.00309593
0.00310947
0.00309322
0.0030959
0.00310933
0.00309287
0.00309324
0.00310703
0.00310948
0.00309593
0.00310947
0.0030959
0.00309322
0.00310952
0.00310952
0.00309375
0.00309309
0.00309309
0.00304903
0.00306511
0.00306521
0.00304891
0.00306504
0.00304882
0.00304902
0.00306511
0.00306521
0.00304891
0.00306278
0.00306278
0.00306278
0.00302998
0.00302998
0.00302998
0.00302998
0.0030492
0.00306518
0.00306277
0.00305182
0.00306518
0.00304917
0.0030518
0.00306504
0.00304882
0.0030492
0.00306277
0.00306518
0.00305182
0.00306518
0.0030518
0.00304917
0.00306522
0.00306522
0.00304969
0.00304903
0.00304903
0.00300553
0.00302142
0.00302151
0.00300541
0.00302135
0.00300533
0.00300553
0.00302142
0.00302151
0.00300541
0.00301911
0.00301911
0.00301911
0.00298669
0.00298669
0.00298669
0.00298669
0.00300572
0.00302148
0.0030191
0.00300828
0.00302149
0.00300567
0.00300826
0.00302135
0.00300533
0.00300572
0.0030191
0.00302148
0.00300829
0.00302149
0.00300827
0.00300567
0.00302152
0.00302152
0.00300618
0.00300552
0.00300552
0.00296253
0.00297824
0.00297833
0.00296241
0.00297818
0.00296233
0.00296253
0.00297824
0.00297834
0.00296241
0.00297595
0.00297595
0.00297595
0.00294389
0.00294389
0.00294389
0.00294389
0.00296274
0.00297829
0.00297595
0.00296525
0.00297832
0.00296267
0.00296523
0.00297818
0.00296233
0.00296274
0.00297595
0.00297829
0.00296525
0.00297832
0.00296523
0.00296267
0.00297833
0.00297833
0.00296316
0.00296251
0.00296251
0.00291998
0.00293552
0.00293562
0.00291985
0.00293547
0.00291978
0.00291998
0.00293552
0.00293562
0.00291985
0.00293325
0.00293325
0.00293325
0.00290151
0.00290151
0.00290151
0.00290151
0.00292021
0.00293557
0.00293325
0.00292266
0.00293561
0.00292011
0.00292265
0.00293547
0.00291978
0.00292021
0.00293325
0.00293557
0.00292266
0.00293561
0.00292265
0.00292011
0.0029356
0.0029356
0.00292061
0.00291994
0.00291994
0.00287783
0.00289323
0.00289333
0.0028777
0.00289318
0.00287764
0.00287783
0.00289323
0.00289333
0.0028777
0.00289098
0.00289098
0.00289098
0.00285952
0.00285952
0.00285952
0.00285952
0.00287808
0.00289327
0.00289098
0.00288048
0.00289333
0.00287795
0.00288047
0.00289318
0.00287764
0.00287808
0.00289098
0.00289327
0.00288048
0.00289332
0.00288047
0.00287795
0.0028933
0.0028933
0.00287847
0.00287778
0.00287778
0.00283605
0.00285132
0.00285142
0.00283592
0.00285127
0.00283586
0.00283605
0.00285132
0.00285142
0.00283592
0.00284908
0.00284908
0.00284908
0.00281789
0.00281789
0.00281789
0.00281789
0.0028363
0.00285134
0.00284909
0.00283867
0.00285141
0.00283615
0.00283867
0.00285128
0.00283587
0.0028363
0.00284909
0.00285134
0.00283867
0.00285141
0.00283867
0.00283615
0.00285138
0.00285138
0.0028367
0.00283599
0.00283599
0.00279464
0.00280977
0.00280987
0.00279452
0.00280974
0.00279447
0.00279463
0.00280977
0.00280987
0.00279451
0.00280755
0.00280755
0.00280755
0.00277666
0.00277667
0.00277667
0.00277667
0.00279489
0.00280978
0.00280755
0.00279723
0.00280986
0.00279473
0.00279723
0.00280974
0.00279447
0.00279489
0.00280755
0.00280978
0.00279723
0.00280986
0.00279723
0.00279473
0.00280982
0.00280982
0.00279529
0.00279457
0.00279457
0.00275368
0.00276864
0.00276873
0.00275357
0.00276861
0.00275353
0.00275367
0.00276864
0.00276872
0.00275357
0.00276643
0.00276643
0.00276643
0.00273596
0.00273596
0.00273596
0.00273596
0.00275392
0.00276864
0.00276644
0.00275623
0.00276871
0.00275376
0.00275624
0.00276861
0.00275352
0.00275392
0.00276644
0.00276864
0.00275623
0.00276871
0.00275624
0.00275376
0.00276868
0.00276868
0.00275432
0.00275361
0.00275361
0.00271333
0.00272808
0.00272813
0.00271324
0.00272804
0.00271321
0.00271333
0.00272807
0.00272813
0.00271324
0.00272589
0.00272589
0.00272589
0.00269596
0.00269597
0.00269597
0.00269597
0.00271357
0.00272805
0.00272588
0.00271583
0.0027281
0.00271343
0.00271585
0.00272805
0.00271321
0.00271357
0.00272588
0.00272805
0.00271584
0.00272811
0.00271585
0.00271343
0.00272809
0.00272809
0.00271397
0.00271327
0.00271328
0.00267382
0.00268824
0.00268828
0.00267375
0.00268823
0.00267373
0.00267381
0.00268824
0.00268829
0.00267375
0.00268611
0.00268611
0.00268611
0.00265687
0.00265687
0.00265687
0.00265687
0.00267404
0.00268821
0.00268608
0.00267626
0.00268825
0.00267392
0.00267628
0.00268824
0.00267372
0.00267405
0.00268608
0.00268821
0.00267626
0.00268826
0.00267628
0.00267393
0.00268826
0.00268827
0.00267444
0.00267378
0.00267378
0.00263526
0.00264934
0.00264936
0.00263521
0.00264932
0.00263519
0.00264935
0.00264936
0.00263521
0.00264724
0.00264724
0.00264725
0.00263546
0.00264928
0.00264721
0.00263762
0.00264931
0.00263535
0.00263764
0.00264933
0.00263546
0.00264722
0.0026493
0.00264932
0.00263764
0.00264935
0.00264936
0.00263586
0.00263523
0.00263523
0.00359172
0.00361969
0.00361983
0.00357441
0.0036195
0.00357417
0.00361974
0.00358838
0.00357253
0.0035725
0.00361388
0.00361405
0.00360024
0.00358722
0.00361563
0.00358113
0.00360025
0.00358723
0.0036157
0.00358113
0.00360394
0.00356808
0.003616
0.00356578
0.00360395
0.00356802
0.00361632
0.00356577
0.00359566
0.00358439
0.00356748
0.00356636
0.00361015
0.00357923
0.00356594
0.00359567
0.00358439
0.00356751
0.00356635
0.00361031
0.00357923
0.00356593
0.00359173
0.00361977
0.00361987
0.00357425
0.00361964
0.00358839
0.0035725
0.00357253
0.00361398
0.00361411
0.0035743
0.0036198
0.00360028
0.00358723
0.00361576
0.00358114
0.00360027
0.00358723
0.00358114
0.00361571
0.00360398
0.00356805
0.0036164
0.00356576
0.00359568
0.00358439
0.00356754
0.00356636
0.00361036
0.00357924
0.00356593
0.00360398
0.00356804
0.00361633
0.00356576
0.00359568
0.0035844
0.00356636
0.00356753
0.00357924
0.00361034
0.00356593
0.00357327
0.00358323
0.00357784
0.00357785
0.00357327
0.00358324
0.00357785
0.00357785
0.00357327
0.00358324
0.00357785
0.00357785
0.00357195
0.00358087
0.00356342
0.00356342
0.00357618
0.00357619
0.00356179
0.00357195
0.00358087
0.00356342
0.00356342
0.00357618
0.00357619
0.00356179
0.00357195
0.00358088
0.00356342
0.00356343
0.00357619
0.0035762
0.0035618
0.00357195
0.00358087
0.00356342
0.00356343
0.00357619
0.00357619
0.0035618
0.00360029
0.00358723
0.00358114
0.00361572
0.00359571
0.00358439
0.00356753
0.00356636
0.0036104
0.00357924
0.00356593
0.00360402
0.00356801
0.00361639
0.00356576
0.00359571
0.0035844
0.00356636
0.00356749
0.00357924
0.00361036
0.00356593
0.00360402
0.00356802
0.00361636
0.00356576
0.00359174
0.00361981
0.00361987
0.00357428
0.00361971
0.00358839
0.00357252
0.00357251
0.00361405
0.00361411
0.00357426
0.00361978
0.0036003
0.00358723
0.00358114
0.00361571
0.00359571
0.0035844
0.00356637
0.00356751
0.00357925
0.00361039
0.00356594
0.00359571
0.0035844
0.00356637
0.00356747
0.00357924
0.00361024
0.00356594
0.00360402
0.00356804
0.00361643
0.00356576
0.00360402
0.00356807
0.00361612
0.00356577
0.00358839
0.0035725
0.00357254
0.00361405
0.00361398
0.00357428
0.00361964
0.00357434
0.00361963
0.00351053
0.00352924
0.00351059
0.00352922
0.00354435
0.00354437
0.00353191
0.00353207
0.00353207
0.00350621
0.00352255
0.0035062
0.00352261
0.00352428
0.00350772
0.00350772
0.00352525
0.00352527
0.00353212
0.00353251
0.00355066
0.00353035
0.00353086
0.00354768
0.00355083
0.00353509
0.00355301
0.00353176
0.00353573
0.00353086
0.00354769
0.00355083
0.00353509
0.00355301
0.00353175
0.00353573
0.00352573
0.0035069
0.00352372
0.00350791
0.00352572
0.00350689
0.00352372
0.00350791
0.00352441
0.00352204
0.00350746
0.00350966
0.00352505
0.00352223
0.00350671
0.00352441
0.00352204
0.00350747
0.00350966
0.00352505
0.00352223
0.00350672
0.00354435
0.00354438
0.00353192
0.00353208
0.00353208
0.00351072
0.00352926
0.0035062
0.00352254
0.00352428
0.00350772
0.00350773
0.00352525
0.00352526
0.00350622
0.00352259
0.00353086
0.0035477
0.00355083
0.00353509
0.003553
0.00353175
0.00353573
0.00353213
0.00353254
0.00355064
0.00353037
0.00353086
0.00355083
0.00354771
0.00353509
0.00355301
0.00353573
0.00353176
0.00352572
0.00350689
0.00352374
0.00350791
0.00352441
0.00352204
0.00350746
0.00350965
0.00352506
0.00352223
0.00350671
0.00352572
0.00350689
0.00352373
0.00350791
0.00352441
0.00352204
0.00350965
0.00350746
0.00352223
0.00352506
0.00350671
0.00353211
0.00353259
0.00355064
0.00353036
0.00353086
0.00355083
0.0035477
0.00353509
0.003553
0.00353573
0.00353175
0.00353212
0.00353253
0.00355064
0.00353036
0.0035244
0.00352204
0.00350746
0.00350965
0.00352504
0.00352223
0.00350671
0.00352571
0.00350691
0.00352372
0.00350791
0.00352441
0.00352204
0.00350965
0.00350747
0.00352223
0.00352506
0.00350672
0.00352572
0.0035069
0.00352371
0.00350791
0.00354438
0.00354439
0.00353189
0.00353209
0.00353206
0.00351066
0.00352922
0.00350621
0.00352257
0.00352428
0.00350772
0.00350772
0.00352527
0.00352525
0.00350619
0.00352256
0.00353085
0.00355083
0.00354767
0.00353509
0.003553
0.00353573
0.00353175
0.00353212
0.00353252
0.00355063
0.00353033
0.00353212
0.0035324
0.00355063
0.00353035
0.0035244
0.00352204
0.00350965
0.00350745
0.00352223
0.00352505
0.00350671
0.0035244
0.00352204
0.00350965
0.00350745
0.00352223
0.00352505
0.0035067
0.00352571
0.00350689
0.00352373
0.0035079
0.00352571
0.00350688
0.00352371
0.0035079
0.00351068
0.00352924
0.00351063
0.00352925
0.00352428
0.00350772
0.00350771
0.00352525
0.00352526
0.00350621
0.00352256
0.00350618
0.00352258
0.00349977
0.00348116
0.00349975
0.00348116
0.00350116
0.00350116
0.00348206
0.00348222
0.00348222
0.00345534
0.0034745
0.00345534
0.0034745
0.00347414
0.00345613
0.00345613
0.00347549
0.0034755
0.00348253
0.00350039
0.00350141
0.00348162
0.00348163
0.00350088
0.00349723
0.00348469
0.00350018
0.0034821
0.00348462
0.00348163
0.00350089
0.00349723
0.00348469
0.00350018
0.0034821
0.00348462
0.00347583
0.00345566
0.00347492
0.00345651
0.00347583
0.00345567
0.00347492
0.00345651
0.00347487
0.00347188
0.00345611
0.0034589
0.00347533
0.00347182
0.00345583
0.00347487
0.00347188
0.00345611
0.0034589
0.00347534
0.00347182
0.00345583
0.00350116
0.00350117
0.00348206
0.00348222
0.00348222
0.00349978
0.00348116
0.00345534
0.0034745
0.00347414
0.00345613
0.00345613
0.00347549
0.00347549
0.00345534
0.0034745
0.00348163
0.00350088
0.00349723
0.00348469
0.00350018
0.0034821
0.00348462
0.00348253
0.0035004
0.00350141
0.00348162
0.00348163
0.00349723
0.00350088
0.00348468
0.00350018
0.00348462
0.00348209
0.00347583
0.00345566
0.00347492
0.00345651
0.00347487
0.00347187
0.00345611
0.0034589
0.00347533
0.00347182
0.00345583
0.00347583
0.00345566
0.00347492
0.00345651
0.00347487
0.00347187
0.0034589
0.00345611
0.00347182
0.00347533
0.00345583
0.00348253
0.00350041
0.0035014
0.00348163
0.00348163
0.00349723
0.00350089
0.00348469
0.00350018
0.00348462
0.0034821
0.00348253
0.00350038
0.00350141
0.00348162
0.00347487
0.00347187
0.00345611
0.00345889
0.00347533
0.00347182
0.00345582
0.00347583
0.00345566
0.00347492
0.0034565
0.00347487
0.00347188
0.00345889
0.00345611
0.00347182
0.00347534
0.00345582
0.00347583
0.00345566
0.00347491
0.00345651
0.00350116
0.00350116
0.00348206
0.00348222
0.00348222
0.00349976
0.00348115
0.00345534
0.00347449
0.00347414
0.00345613
0.00345613
0.00347549
0.00347549
0.00345534
0.00347449
0.00348163
0.00349723
0.00350088
0.00348468
0.00350017
0.00348462
0.0034821
0.00348253
0.00350039
0.00350141
0.00348162
0.00348253
0.00350039
0.00350141
0.00348162
0.00347487
0.00347187
0.00345889
0.00345611
0.00347182
0.00347533
0.00345582
0.00347487
0.00347187
0.00345889
0.00345611
0.00347182
0.00347533
0.00345582
0.00347583
0.00345566
0.00347492
0.0034565
0.00347583
0.00345566
0.00347492
0.00345651
0.00349975
0.00348115
0.00349976
0.00348116
0.00347414
0.00345613
0.00345613
0.00347549
0.00347549
0.00345534
0.00347449
0.00345534
0.0034745
0.00344857
0.00342925
0.00344857
0.00342925
0.00344931
0.00344932
0.00343023
0.00342986
0.00342986
0.00340321
0.00342248
0.00340321
0.00342247
0.00342219
0.00340371
0.00340371
0.00342305
0.00342305
0.00343027
0.00344887
0.00344971
0.00342949
0.00342975
0.00344924
0.00344591
0.00343291
0.00344895
0.00342992
0.0034329
0.00342975
0.00344924
0.00344591
0.00343291
0.00344895
0.00342992
0.0034329
0.00342346
0.0034034
0.00342269
0.00340409
0.00342346
0.0034034
0.00342269
0.0034041
0.00342286
0.00341989
0.0034038
0.0034069
0.00342304
0.00341989
0.00340372
0.00342286
0.00341989
0.0034038
0.0034069
0.00342303
0.00341989
0.00340372
0.00344932
0.00344931
0.00343023
0.00342986
0.00342986
0.00344857
0.00342925
0.00340321
0.00342248
0.00342219
0.0034037
0.0034037
0.00342305
0.00342305
0.00340321
0.00342247
0.00342975
0.00344924
0.00344591
0.00343291
0.00344895
0.00342992
0.0034329
0.00343027
0.00344886
0.00344971
0.00342949
0.00342975
0.00344591
0.00344924
0.00343291
0.00344895
0.0034329
0.00342992
0.00342346
0.0034034
0.00342269
0.00340409
0.00342286
0.00341989
0.0034038
0.0034069
0.00342303
0.00341989
0.00340371
0.00342346
0.0034034
0.00342269
0.00340409
0.00342286
0.0034199
0.0034069
0.0034038
0.00341989
0.00342303
0.00340371
0.00343026
0.00344886
0.00344971
0.00342949
0.00342975
0.00344591
0.00344925
0.00343291
0.00344895
0.00343289
0.00342992
0.00343026
0.00344886
0.00344971
0.00342949
0.00342286
0.00341989
0.0034038
0.0034069
0.00342303
0.00341989
0.00340371
0.00342346
0.0034034
0.00342269
0.00340409
0.00342286
0.00341989
0.0034069
0.0034038
0.00341989
0.00342304
0.00340371
0.00342346
0.0034034
0.00342269
0.00340409
0.00344931
0.00344931
0.00343023
0.00342986
0.00342986
0.00344857
0.00342925
0.00340321
0.00342247
0.00342219
0.00340371
0.0034037
0.00342305
0.00342305
0.00340321
0.00342248
0.00342975
0.00344591
0.00344924
0.00343291
0.00344895
0.0034329
0.00342992
0.00343026
0.00344886
0.00344971
0.00342949
0.00343026
0.00344887
0.00344971
0.00342949
0.00342286
0.00341989
0.0034069
0.0034038
0.00341989
0.00342303
0.00340371
0.00342286
0.00341989
0.0034069
0.0034038
0.00341989
0.00342303
0.00340371
0.00342346
0.0034034
0.00342269
0.00340409
0.00342346
0.0034034
0.00342269
0.00340409
0.00344857
0.00342925
0.00344857
0.00342925
0.00342219
0.00340371
0.00340371
0.00342305
0.00342305
0.00340321
0.00342248
0.00340321
0.00342247
0.00339648
0.00337739
0.00339648
0.00337739
0.00339695
0.00339695
0.00337842
0.00337781
0.00337781
0.00335188
0.00337073
0.00335188
0.00337073
0.00337051
0.00335224
0.00335224
0.00337112
0.00337112
0.00337815
0.00339665
0.00339733
0.00337755
0.00337788
0.00339696
0.00339396
0.00338107
0.00339685
0.00337792
0.00338108
0.00337788
0.00339696
0.00339396
0.00338107
0.00339685
0.00337792
0.00338108
0.00337146
0.00335201
0.00337087
0.00335253
0.00337146
0.00335201
0.00337087
0.00335253
0.00337108
0.00336825
0.00335237
0.00335552
0.00337114
0.00336826
0.00335235
0.00337108
0.00336825
0.00335237
0.00335553
0.00337114
0.00336826
0.00335235
0.00339695
0.00339694
0.00337842
0.0033778
0.00337781
0.00339648
0.00337739
0.00335188
0.00337073
0.00337051
0.00335224
0.00335224
0.00337112
0.00337112
0.00335188
0.00337073
0.00337788
0.00339696
0.00339396
0.00338107
0.00339685
0.00337792
0.00338108
0.00337815
0.00339665
0.00339733
0.00337754
0.00337788
0.00339396
0.00339695
0.00338107
0.00339685
0.00338108
0.00337792
0.00337146
0.00335201
0.00337087
0.00335253
0.00337108
0.00336825
0.00335237
0.00335552
0.00337114
0.00336826
0.00335235
0.00337146
0.00335201
0.00337086
0.00335253
0.00337108
0.00336825
0.00335552
0.00335236
0.00336826
0.00337114
0.00335235
0.00337815
0.00339664
0.00339733
0.00337754
0.00337788
0.00339396
0.00339696
0.00338107
0.00339685
0.00338108
0.00337792
0.00337815
0.00339665
0.00339733
0.00337755
0.00337109
0.00336825
0.00335237
0.00335553
0.00337114
0.00336826
0.00335235
0.00337146
0.00335201
0.00337087
0.00335254
0.00337108
0.00336825
0.00335553
0.00335237
0.00336826
0.00337114
0.00335235
0.00337146
0.00335202
0.00337087
0.00335253
0.00339695
0.00339695
0.00337842
0.00337781
0.0033778
0.00339647
0.00337739
0.00335188
0.00337073
0.00337051
0.00335224
0.00335224
0.00337112
0.00337112
0.00335188
0.00337073
0.00337788
0.00339396
0.00339696
0.00338107
0.00339685
0.00338108
0.00337792
0.00337815
0.00339664
0.00339733
0.00337754
0.00337815
0.00339665
0.00339733
0.00337754
0.00337108
0.00336825
0.00335552
0.00335236
0.00336826
0.00337114
0.00335235
0.00337108
0.00336825
0.00335552
0.00335237
0.00336826
0.00337114
0.00335235
0.00337146
0.00335201
0.00337087
0.00335253
0.00337146
0.00335201
0.00337087
0.00335253
0.00339648
0.00337739
0.00339648
0.00337739
0.00337051
0.00335224
0.00335224
0.00337113
0.00337112
0.00335188
0.00337073
0.00335188
0.00337073
0.00334531
0.00332672
0.00334531
0.00332672
0.00334565
0.00334565
0.00332774
0.00332705
0.00332705
0.00330193
0.00332024
0.00330193
0.00332024
0.00332005
0.00330224
0.00330224
0.00332055
0.00332055
0.00332728
0.00334542
0.00334593
0.00332684
0.00332717
0.00334567
0.00334287
0.0033303
0.00334563
0.00332717
0.00333031
0.00332717
0.00334567
0.00334287
0.0033303
0.00334563
0.00332717
0.00333031
0.00332077
0.00330205
0.00332035
0.00330242
0.00332077
0.00330205
0.00332034
0.00330242
0.00332054
0.00331783
0.00330236
0.00330545
0.00332056
0.00331784
0.00330236
0.00332054
0.00331783
0.00330236
0.00330545
0.00332056
0.00331784
0.00330236
0.00334565
0.00334565
0.00332774
0.00332705
0.00332705
0.00334531
0.00332672
0.00330194
0.00332024
0.00332005
0.00330225
0.00330224
0.00332055
0.00332055
0.00330193
0.00332025
0.00332717
0.00334566
0.00334287
0.0033303
0.00334563
0.00332717
0.00333031
0.00332728
0.00334542
0.00334593
0.00332684
0.00332717
0.00334287
0.00334566
0.0033303
0.00334563
0.00333031
0.00332717
0.00332077
0.00330205
0.00332035
0.00330242
0.00332054
0.00331783
0.00330236
0.00330545
0.00332056
0.00331784
0.00330236
0.00332077
0.00330205
0.00332035
0.00330242
0.00332054
0.00331783
0.00330545
0.00330236
0.00331784
0.00332056
0.00330236
0.00332729
0.00334542
0.00334593
0.00332685
0.00332717
0.00334287
0.00334567
0.0033303
0.00334563
0.00333031
0.00332717
0.00332728
0.00334542
0.00334593
0.00332685
0.00332054
0.00331783
0.00330236
0.00330545
0.00332056
0.00331784
0.00330236
0.00332077
0.00330205
0.00332035
0.00330242
0.00332054
0.00331783
0.00330545
0.00330236
0.00331784
0.00332056
0.00330236
0.00332077
0.00330205
0.00332035
0.00330242
0.00334565
0.00334565
0.00332774
0.00332705
0.00332705
0.00334531
0.00332672
0.00330193
0.00332024
0.00332005
0.00330224
0.00330224
0.00332055
0.00332055
0.00330193
0.00332024
0.00332717
0.00334287
0.00334567
0.0033303
0.00334563
0.00333031
0.00332717
0.00332728
0.00334542
0.00334593
0.00332684
0.00332728
0.00334542
0.00334593
0.00332684
0.00332054
0.00331783
0.00330545
0.00330236
0.00331784
0.00332056
0.00330236
0.00332054
0.00331783
0.00330545
0.00330236
0.00331784
0.00332056
0.00330236
0.00332077
0.00330205
0.00332035
0.00330242
0.00332077
0.00330205
0.00332035
0.00330242
0.00334531
0.00332672
0.00334531
0.00332672
0.00332005
0.00330224
0.00330224
0.00332055
0.00332055
0.00330193
0.00332024
0.00330193
0.00332024
0.00329555
0.00327752
0.00329555
0.00327752
0.00329584
0.00329584
0.00327851
0.00327781
0.00327781
0.00325345
0.00327123
0.00325345
0.00327123
0.00327104
0.00325373
0.00325373
0.0032715
0.0032715
0.00327794
0.00329565
0.003296
0.00327762
0.00327792
0.00329583
0.00329316
0.00328097
0.00329582
0.00327792
0.00328096
0.00327793
0.00329584
0.00329316
0.00328097
0.00329582
0.00327792
0.00328096
0.00327161
0.00325356
0.00327132
0.00325382
0.00327161
0.00325356
0.00327131
0.00325382
0.00327147
0.00326886
0.00325384
0.00325683
0.00327148
0.00326885
0.00325384
0.00327147
0.00326886
0.00325384