/*--------------------------------*- C++ -*----------------------------------*\
| =========                 |                                                 |
| \\      /  F ield         | OpenFOAM: The Open Source CFD Toolbox           |
|  \\    /   O peration     | Version:  v1912                                 |
|   \\  /    A nd           | Website:  www.openfoam.com                      |
|    \\/     M anipulation  |                                                 |
\*---------------------------------------------------------------------------*/
FoamFile
{
    version     2.0;
    format      ascii;
    class       volScalarField;
    location    "1.8";
    object      nut;
}
// * * * * * * * * * * * * * * * * * * * * * * * * * * * * * * * * * * * * * //

dimensions      [0 2 -1 0 0 0 0];


internalField   nonuniform List<scalar> 
171728
(
1.47628e-06
1.48339e-06
1.48407e-06
6.21307e-07
1.01242e-07
1.16046e-07
1.16216e-07
1.19355e-07
7.88715e-09
9.12361e-09
9.13006e-09
1.16087e-07
2.48055e-09
4.86618e-09
4.83704e-09
1.16298e-07
2.62841e-09
4.57067e-09
4.5741e-09
1.16303e-07
2.6308e-09
4.56074e-09
4.56575e-09
1.16303e-07
2.62137e-09
4.56572e-09
4.55681e-09
1.16303e-07
2.63756e-09
4.57364e-09
4.56846e-09
1.16302e-07
2.63726e-09
4.5685e-09
4.5594e-09
1.16305e-07
2.63495e-09
4.56826e-09
4.56077e-09
1.16304e-07
2.62935e-09
4.56744e-09
4.56439e-09
1.16305e-07
2.63758e-09
4.56569e-09
4.56412e-09
1.16304e-07
2.63915e-09
4.60037e-09
4.56704e-09
1.16303e-07
2.6445e-09
4.59287e-09
4.56048e-09
1.16303e-07
2.62698e-09
4.55508e-09
4.56612e-09
1.16303e-07
2.62871e-09
4.55267e-09
4.56141e-09
1.16305e-07
2.63869e-09
4.57101e-09
4.56444e-09
1.16306e-07
2.63163e-09
4.55786e-09
4.56222e-09
1.16304e-07
2.64288e-09
4.54426e-09
4.56512e-09
1.16303e-07
2.62566e-09
4.58575e-09
4.56144e-09
1.16295e-07
2.74891e-09
4.56041e-09
4.56346e-09
1.16307e-07
2.62991e-09
4.56999e-09
4.56303e-09
1.16306e-07
2.63576e-09
4.56845e-09
4.56381e-09
1.16307e-07
2.6342e-09
4.56971e-09
4.56564e-09
1.16307e-07
2.63651e-09
4.56643e-09
4.56262e-09
1.16307e-07
2.63324e-09
4.56702e-09
4.56241e-09
1.16306e-07
2.63689e-09
4.57049e-09
4.56613e-09
1.16307e-07
2.63462e-09
4.56817e-09
4.5638e-09
1.16307e-07
2.63482e-09
4.56687e-09
4.56251e-09
1.16307e-07
2.63535e-09
4.56908e-09
4.56487e-09
1.16306e-07
2.63549e-09
4.56925e-09
4.56408e-09
1.16307e-07
2.63567e-09
4.56711e-09
4.56325e-09
1.16307e-07
2.63506e-09
4.57015e-09
4.56384e-09
1.16307e-07
2.63426e-09
4.5697e-09
4.56357e-09
1.16306e-07
2.63634e-09
4.57103e-09
4.56443e-09
1.16308e-07
2.63481e-09
4.56687e-09
4.56101e-09
1.16307e-07
2.63622e-09
4.56982e-09
4.56399e-09
1.16307e-07
2.63556e-09
4.56952e-09
4.56369e-09
1.16307e-07
2.63581e-09
4.57142e-09
4.57057e-09
1.16308e-07
2.65281e-09
4.57689e-09
4.56917e-09
1.16294e-07
2.79765e-09
4.55579e-09
4.56431e-09
1.16306e-07
2.63336e-09
4.55442e-09
4.56021e-09
1.16307e-07
2.63606e-09
4.56777e-09
4.55857e-09
1.16308e-07
2.6368e-09
4.56453e-09
4.55784e-09
1.16308e-07
2.63952e-09
4.56607e-09
4.56301e-09
1.16308e-07
2.6381e-09
4.56401e-09
4.55826e-09
1.16308e-07
2.63613e-09
4.56287e-09
4.56133e-09
1.1631e-07
2.63815e-09
4.56562e-09
4.56687e-09
1.16308e-07
2.63766e-09
4.56618e-09
4.5677e-09
1.16307e-07
2.6381e-09
4.56474e-09
4.56627e-09
1.16308e-07
2.63591e-09
4.56249e-09
4.5643e-09
1.16308e-07
2.63844e-09
4.56497e-09
4.56563e-09
1.16307e-07
2.63833e-09
4.56528e-09
4.566e-09
1.16308e-07
2.63977e-09
4.57442e-09
4.56624e-09
1.16308e-07
2.64073e-09
4.57006e-09
4.56604e-09
1.16307e-07
2.63545e-09
4.56465e-09
4.56773e-09
1.16303e-07
2.63228e-09
4.57046e-09
4.56894e-09
1.16292e-07
2.63241e-09
4.56933e-09
4.56724e-09
1.16293e-07
2.6331e-09
4.57208e-09
4.57014e-09
1.16291e-07
2.63385e-09
4.56996e-09
4.5669e-09
1.16292e-07
2.63382e-09
4.57193e-09
4.57013e-09
1.16291e-07
2.63218e-09
4.56958e-09
4.56729e-09
1.16292e-07
2.63211e-09
4.57167e-09
4.56946e-09
1.16291e-07
2.63327e-09
4.57135e-09
4.56952e-09
1.16291e-07
2.63292e-09
4.57132e-09
4.56936e-09
1.16291e-07
2.63241e-09
4.57038e-09
4.56834e-09
1.16291e-07
2.63254e-09
4.56992e-09
4.56789e-09
1.16291e-07
2.6328e-09
4.57055e-09
4.56904e-09
1.16292e-07
2.62794e-09
4.56942e-09
4.56826e-09
1.16292e-07
2.62585e-09
4.56999e-09
4.54994e-09
1.16293e-07
2.62981e-09
4.57447e-09
4.56809e-09
1.16289e-07
2.63379e-09
4.57096e-09
4.56898e-09
1.16292e-07
2.63187e-09
4.56938e-09
4.56701e-09
1.16292e-07
2.63163e-09
4.57057e-09
4.56827e-09
1.1629e-07
2.63459e-09
4.57175e-09
4.56956e-09
1.1629e-07
2.6313e-09
4.57037e-09
4.56822e-09
1.16291e-07
2.63191e-09
4.57015e-09
4.56783e-09
1.1629e-07
2.63362e-09
4.57101e-09
4.56883e-09
1.1629e-07
2.63323e-09
4.56985e-09
4.56774e-09
1.1629e-07
2.63219e-09
4.5712e-09
4.56918e-09
1.16291e-07
2.63176e-09
4.57012e-09
4.56817e-09
1.1629e-07
2.63297e-09
4.5707e-09
4.56861e-09
1.1629e-07
2.63372e-09
4.57174e-09
4.56966e-09
1.16291e-07
2.63482e-09
4.57032e-09
4.56839e-09
1.1629e-07
2.63528e-09
4.57085e-09
4.56879e-09
1.16291e-07
2.63633e-09
4.57049e-09
4.56882e-09
1.1629e-07
2.63555e-09
4.57285e-09
4.57116e-09
1.1629e-07
2.63336e-09
4.56892e-09
4.56744e-09
1.1629e-07
2.63475e-09
4.56964e-09
4.56699e-09
1.1629e-07
2.63634e-09
4.57207e-09
4.56971e-09
1.16291e-07
2.63781e-09
4.56736e-09
4.56306e-09
1.16294e-07
2.69961e-09
4.58719e-09
4.59076e-09
1.16291e-07
5.19659e-09
5.4877e-09
5.53863e-09
1.16176e-07
5.59446e-08
4.99509e-08
4.99201e-08
1.14341e-07
5.73327e-07
2.42911e-07
2.42948e-07
5.95384e-07
5.27763e-07
8.48566e-07
8.4888e-07
5.27879e-07
8.48655e-07
8.48594e-07
2.38198e-06
2.38203e-06
2.38198e-06
2.38202e-06
8.4854e-07
8.48354e-07
5.27597e-07
8.48306e-07
8.48662e-07
5.27498e-07
6.21388e-07
3.04316e-07
1.48398e-06
1.48403e-06
2.55985e-07
2.56019e-07
6.21355e-07
3.0428e-07
1.48393e-06
1.48454e-06
2.56186e-07
2.56072e-07
1.48423e-06
2.56044e-07
2.5589e-07
6.21293e-07
3.04342e-07
1.48429e-06
2.56031e-07
2.56062e-07
3.04361e-07
1.19405e-07
2.94683e-07
1.16122e-07
1.16155e-07
1.45734e-08
1.46683e-08
1.19403e-07
2.94738e-07
1.16145e-07
1.16114e-07
1.45227e-08
1.45757e-08
1.16079e-07
1.44604e-08
1.45616e-08
1.19434e-07
2.94688e-07
1.1626e-07
1.45372e-08
1.44776e-08
2.94676e-07
1.16002e-07
2.93919e-07
9.1795e-09
9.17312e-09
5.1715e-09
5.16208e-09
1.16012e-07
2.93934e-07
9.19049e-09
9.17984e-09
5.12978e-09
5.17188e-09
9.19058e-09
5.13779e-09
5.18993e-09
1.16067e-07
2.93953e-07
9.19234e-09
5.09808e-09
5.08299e-09
2.93909e-07
1.16283e-07
2.93883e-07
4.89174e-09
4.92965e-09
4.63481e-09
4.64716e-09
1.16255e-07
2.93887e-07
4.82514e-09
4.88882e-09
4.57985e-09
4.6426e-09
4.90721e-09
4.57968e-09
4.62875e-09
1.16308e-07
2.93916e-07
4.84111e-09
4.56192e-09
4.56829e-09
2.9386e-07
1.16282e-07
2.93877e-07
4.63272e-09
4.63943e-09
4.62167e-09
4.63821e-09
1.16261e-07
2.93878e-07
4.56445e-09
4.63295e-09
4.58091e-09
4.62551e-09
4.61703e-09
4.55895e-09
4.61018e-09
1.16303e-07
2.93908e-07
4.55975e-09
4.54485e-09
4.55059e-09
2.93852e-07
1.16282e-07
2.93887e-07
4.62832e-09
4.64762e-09
4.60176e-09
4.66233e-09
1.16265e-07
2.9389e-07
4.54876e-09
4.62451e-09
4.56907e-09
4.61635e-09
4.60898e-09
4.56964e-09
4.60073e-09
1.16304e-07
2.93922e-07
4.55193e-09
4.53553e-09
4.54125e-09
2.93865e-07
1.16286e-07
2.93886e-07
4.57898e-09
4.65287e-09
4.63956e-09
4.6441e-09
1.16259e-07
2.93887e-07
4.53518e-09
4.61598e-09
4.57452e-09
4.62075e-09
4.59954e-09
4.57079e-09
4.6068e-09
1.16304e-07
2.93916e-07
4.54266e-09
4.54141e-09
4.54714e-09
2.93858e-07
1.16286e-07
2.93882e-07
4.63001e-09
4.6496e-09
4.62605e-09
4.64717e-09
1.16254e-07
2.93881e-07
4.55516e-09
4.6259e-09
4.58283e-09
4.62377e-09
4.6103e-09
4.57192e-09
4.60927e-09
1.16302e-07
2.93911e-07
4.5539e-09
4.5449e-09
4.54994e-09
2.93852e-07
1.16267e-07
2.93889e-07
4.62279e-09
4.64449e-09
4.59417e-09
4.62939e-09
1.16258e-07
2.93905e-07
4.54945e-09
4.62247e-09
4.56064e-09
4.61794e-09
4.60592e-09
4.56416e-09
4.60215e-09
1.16306e-07
2.93923e-07
4.54696e-09
4.53599e-09
4.54245e-09
2.93865e-07
1.16277e-07
2.93878e-07
4.60849e-09
4.60703e-09
4.62586e-09
4.58077e-09
1.1625e-07
2.93888e-07
4.55365e-09
4.62079e-09
4.55281e-09
4.62255e-09
4.60286e-09
4.56836e-09
4.60691e-09
1.16304e-07
2.93916e-07
4.54637e-09
4.5418e-09
4.54791e-09
2.93857e-07
1.1629e-07
2.93886e-07
4.67695e-09
4.61017e-09
4.62531e-09
4.58689e-09
1.16258e-07
2.93889e-07
4.55891e-09
4.62199e-09
4.56676e-09
4.62107e-09
4.6046e-09
4.56728e-09
4.60475e-09
1.16304e-07
2.93918e-07
4.54851e-09
4.54042e-09
4.54434e-09
2.93861e-07
1.16275e-07
2.93876e-07
4.62536e-09
4.58162e-09
4.6244e-09
4.57168e-09
1.16259e-07
2.93915e-07
4.56314e-09
4.62189e-09
4.55999e-09
4.62108e-09
4.60568e-09
4.58613e-09
4.61288e-09
1.16305e-07
2.93915e-07
4.54641e-09
4.54341e-09
4.54373e-09
2.93858e-07
1.16278e-07
2.93874e-07
4.62748e-09
4.59271e-09
4.61049e-09
4.6404e-09
1.16251e-07
2.93912e-07
4.55859e-09
4.62242e-09
4.54815e-09
4.6162e-09
4.61366e-09
4.58632e-09
4.6086e-09
1.16305e-07
2.9392e-07
4.54778e-09
4.53837e-09
4.54239e-09
2.93867e-07
1.16282e-07
2.93874e-07
4.61323e-09
4.64748e-09
4.62867e-09
4.63688e-09
1.16257e-07
2.93894e-07
4.54754e-09
4.61685e-09
4.54272e-09
4.62196e-09
4.60623e-09
4.56131e-09
4.60902e-09
1.16306e-07
2.93917e-07
4.54501e-09
4.54121e-09
4.54909e-09
2.93858e-07
1.16278e-07
2.93883e-07
4.64511e-09
4.62786e-09
4.62439e-09
4.68682e-09
1.16266e-07
2.93874e-07
4.5685e-09
4.62453e-09
4.56641e-09
4.61897e-09
4.60994e-09
4.55744e-09
4.60392e-09
1.16304e-07
2.93922e-07
4.55281e-09
4.53842e-09
4.54458e-09
2.93865e-07
1.16275e-07
2.93871e-07
4.62465e-09
4.65568e-09
4.63257e-09
4.64599e-09
1.16285e-07
2.93864e-07
4.56568e-09
4.62e-09
4.56805e-09
4.62294e-09
4.60183e-09
4.56561e-09
4.60972e-09
1.16305e-07
2.93916e-07
4.54558e-09
4.54178e-09
4.54946e-09
2.93857e-07
1.16277e-07
2.93881e-07
4.61437e-09
4.64463e-09
4.62657e-09
4.6255e-09
1.16278e-07
2.93912e-07
4.56885e-09
4.62344e-09
4.56346e-09
4.61767e-09
4.60708e-09
4.56467e-09
4.60453e-09
1.16306e-07
2.93925e-07
4.54973e-09
4.53694e-09
4.54402e-09
2.93865e-07
1.16274e-07
2.93892e-07
4.60819e-09
4.6155e-09
4.60613e-09
4.60742e-09
1.16291e-07
2.93909e-07
4.5644e-09
4.62173e-09
4.55929e-09
4.623e-09
4.60694e-09
4.54011e-09
4.60472e-09
1.16305e-07
2.93921e-07
4.54898e-09
4.54149e-09
4.54192e-09
2.93867e-07
1.16276e-07
2.93871e-07
4.60517e-09
4.63877e-09
4.65745e-09
4.72806e-09
1.16322e-07
2.93944e-07
4.55807e-09
4.62345e-09
4.56877e-09
4.61672e-09
4.60369e-09
4.58691e-09
4.62105e-09
1.16306e-07
2.9392e-07
4.53972e-09
4.54029e-09
4.53331e-09
2.93877e-07
1.16312e-07
2.93942e-07
4.64169e-09
4.66797e-09
4.59231e-09
4.69977e-09
1.16262e-07
2.93914e-07
4.57884e-09
4.61766e-09
4.40367e-09
4.62236e-09
4.63387e-09
4.55594e-09
4.60883e-09
1.16308e-07
2.93925e-07
4.55208e-09
4.53673e-09
4.54517e-09
2.93868e-07
1.16268e-07
2.93902e-07
4.67569e-09
4.68798e-09
4.64462e-09
4.64092e-09
1.16263e-07
2.93897e-07
4.47886e-09
4.6195e-09
4.57843e-09
4.61909e-09
4.60639e-09
4.57449e-09
4.6052e-09
1.16307e-07
2.93924e-07
4.5461e-09
4.53978e-09
4.54655e-09
2.93867e-07
1.16296e-07
2.93901e-07
4.63647e-09
4.64406e-09
4.62527e-09
4.64678e-09
1.16274e-07
2.93898e-07
4.5641e-09
4.62036e-09
4.5679e-09
4.62036e-09
4.60514e-09
4.56891e-09
4.60631e-09
1.16307e-07
2.93925e-07
4.54835e-09
4.54004e-09
4.54644e-09
2.93865e-07
1.16294e-07
2.93897e-07
4.62983e-09
4.64846e-09
4.62351e-09
4.64905e-09
1.16273e-07
2.93893e-07
4.56578e-09
4.62189e-09
4.56778e-09
4.62251e-09
4.60663e-09
4.5713e-09
4.60723e-09
1.16307e-07
2.93921e-07
4.54989e-09
4.54274e-09
4.55451e-09
2.93863e-07
1.16296e-07
2.93901e-07
4.62867e-09
4.64886e-09
4.6196e-09
4.64559e-09
1.16274e-07
2.93897e-07
4.5638e-09
4.62225e-09
4.56391e-09
4.619e-09
4.60781e-09
4.56747e-09
4.60468e-09
1.16308e-07
2.93925e-07
4.55857e-09
4.53916e-09
4.55019e-09
2.93866e-07
1.16294e-07
2.93904e-07
4.62976e-09
4.64746e-09
4.6195e-09
4.64597e-09
1.16274e-07
2.93897e-07
4.56493e-09
4.6208e-09
4.56379e-09
4.61963e-09
4.60341e-09
4.56924e-09
4.60631e-09
1.16307e-07
2.93925e-07
4.55272e-09
4.53978e-09
4.54921e-09
2.93865e-07
1.16295e-07
2.93896e-07
4.62521e-09
4.64549e-09
4.62416e-09
4.64977e-09
1.16274e-07
2.93893e-07
4.56041e-09
4.61905e-09
4.56843e-09
4.62326e-09
4.60604e-09
4.57124e-09
4.60731e-09
1.16307e-07
2.9392e-07
4.55272e-09
4.54245e-09
4.55173e-09
2.93863e-07
1.16295e-07
2.93901e-07
4.63272e-09
4.65089e-09
4.61918e-09
4.64573e-09
1.16273e-07
2.93896e-07
4.56786e-09
4.62436e-09
4.56348e-09
4.61924e-09
4.60581e-09
4.56884e-09
4.60744e-09
1.16307e-07
2.93923e-07
4.55313e-09
4.54013e-09
4.55188e-09
2.93862e-07
1.16295e-07
2.93901e-07
4.62745e-09
4.64743e-09
4.62088e-09
4.64646e-09
1.16274e-07
2.93897e-07
4.56263e-09
4.62088e-09
4.56517e-09
4.61997e-09
4.60719e-09
4.56793e-09
4.60417e-09
1.16307e-07
2.93925e-07
4.5545e-09
4.53922e-09
4.54866e-09
2.93867e-07
1.16295e-07
2.93901e-07
4.6279e-09
4.64652e-09
4.62068e-09
4.64676e-09
1.16274e-07
2.93896e-07
4.5631e-09
4.61997e-09
4.56494e-09
4.62025e-09
4.6054e-09
4.56877e-09
4.60493e-09
1.16307e-07
2.93924e-07
4.55273e-09
4.54009e-09
4.54936e-09
2.93866e-07
1.16295e-07
2.939e-07
4.629e-09
4.64886e-09
4.62242e-09
4.64799e-09
1.16273e-07
2.93897e-07
4.5642e-09
4.62197e-09
4.56628e-09
4.6212e-09
4.60743e-09
4.56936e-09
4.60602e-09
1.16306e-07
2.93923e-07
4.55468e-09
4.54089e-09
4.55053e-09
2.93865e-07
1.16295e-07
2.93898e-07
4.62949e-09
4.63323e-09
4.62052e-09
4.64536e-09
1.16274e-07
2.93886e-07
4.56443e-09
4.62152e-09
4.56493e-09
4.6202e-09
4.60594e-09
4.5717e-09
4.60553e-09
1.16307e-07
2.93922e-07
4.55324e-09
4.54026e-09
4.54998e-09
2.93865e-07
1.16295e-07
2.93903e-07
4.62986e-09
4.65593e-09
4.61857e-09
4.65503e-09
1.16274e-07
2.93904e-07
4.56475e-09
4.62083e-09
4.56295e-09
4.61981e-09
4.60435e-09
4.57104e-09
4.60696e-09
1.16307e-07
2.93923e-07
4.55166e-09
4.54068e-09
4.55145e-09
2.93864e-07
1.16295e-07
2.93902e-07
4.62748e-09
4.65478e-09
4.62091e-09
4.65332e-09
1.1627e-07
2.93906e-07
4.56271e-09
4.62116e-09
4.56523e-09
4.61937e-09
4.60451e-09
4.56956e-09
4.60408e-09
1.16307e-07
2.93925e-07
4.55182e-09
4.53971e-09
4.54903e-09
2.93868e-07
1.16295e-07
2.93899e-07
4.62723e-09
4.65438e-09
4.62162e-09
4.65456e-09
1.1627e-07
2.93904e-07
4.56248e-09
4.62035e-09
4.56594e-09
4.62152e-09
4.60399e-09
4.57044e-09
4.60641e-09
1.16307e-07
2.93924e-07
4.55138e-09
4.5377e-09
4.5476e-09
2.93867e-07
1.16295e-07
2.939e-07
4.63118e-09
4.65726e-09
4.62046e-09
4.65318e-09
1.1627e-07
2.93907e-07
4.56637e-09
4.62323e-09
4.56477e-09
4.61977e-09
4.60466e-09
4.56831e-09
4.60265e-09
1.16307e-07
2.93926e-07
4.55175e-09
4.53797e-09
4.5466e-09
2.93872e-07
1.16295e-07
2.93901e-07
4.62791e-09
4.65306e-09
4.62012e-09
4.65426e-09
1.1627e-07
2.93905e-07
4.56311e-09
4.61882e-09
4.56444e-09
4.6208e-09
4.60201e-09
4.57034e-09
4.60547e-09
1.16308e-07
2.93924e-07
4.54997e-09
4.54008e-09
4.54952e-09
2.93867e-07
1.16294e-07
2.93901e-07
4.6291e-09
4.65577e-09
4.62137e-09
4.65478e-09
1.16269e-07
2.93905e-07
4.56431e-09
4.62148e-09
4.56564e-09
4.6213e-09
4.60405e-09
4.57103e-09
4.60787e-09
1.16307e-07
2.93924e-07
4.55207e-09
4.5408e-09
4.55192e-09
2.93864e-07
1.16295e-07
2.93902e-07
4.62846e-09
4.65427e-09
4.62061e-09
4.65457e-09
1.1627e-07
2.93903e-07
4.56366e-09
4.61992e-09
4.56481e-09
4.62085e-09
4.60633e-09
4.57189e-09
4.60842e-09
1.16308e-07
2.93923e-07
4.55439e-09
4.54171e-09
4.55341e-09
2.93862e-07
1.16295e-07
2.939e-07
4.63025e-09
4.65553e-09
4.62894e-09
4.647e-09
1.1627e-07
2.93902e-07
4.56498e-09
4.6208e-09
4.56042e-09
4.61786e-09
4.60358e-09
4.57158e-09
4.58083e-09
1.16307e-07
2.93926e-07
4.55435e-09
4.53579e-09
4.53548e-09
2.93869e-07
1.16289e-07
2.93897e-07
4.62041e-09
4.6528e-09
4.57038e-09
4.65005e-09
1.16276e-07
2.93925e-07
4.54721e-09
4.61695e-09
4.53662e-09
4.62703e-09
4.57533e-09
4.56712e-09
4.64997e-09
1.16307e-07
2.93926e-07
4.46359e-09
4.53903e-09
4.53255e-09
2.93872e-07
1.16297e-07
2.93889e-07
4.59255e-09
4.6076e-09
4.62845e-09
4.65208e-09
1.16278e-07
2.93922e-07
4.45159e-09
4.63016e-09
4.58251e-09
4.62278e-09
4.62227e-09
4.56234e-09
4.60734e-09
1.16306e-07
2.93924e-07
4.57187e-09
4.54849e-09
4.55204e-09
2.93866e-07
1.16286e-07
2.93887e-07
4.61934e-09
4.64017e-09
4.61227e-09
4.66062e-09
1.16322e-07
2.9392e-07
4.54634e-09
4.62299e-09
4.57831e-09
4.62182e-09
4.60805e-09
4.57001e-09
4.60729e-09
1.16307e-07
2.93923e-07
4.5558e-09
4.54826e-09
4.551e-09
2.93864e-07
1.16284e-07
2.93884e-07
4.61657e-09
4.65257e-09
4.61281e-09
4.64647e-09
1.16293e-07
2.93923e-07
4.54728e-09
4.62225e-09
4.5801e-09
4.62205e-09
4.60541e-09
4.56502e-09
4.60636e-09
1.16307e-07
2.93924e-07
4.55281e-09
4.54801e-09
4.55002e-09
2.93867e-07
1.16284e-07
2.93885e-07
4.61582e-09
4.64553e-09
4.61219e-09
4.64589e-09
1.16291e-07
2.93921e-07
4.54743e-09
4.62168e-09
4.57717e-09
4.62223e-09
4.60445e-09
4.56656e-09
4.60724e-09
1.16307e-07
2.93923e-07
4.55172e-09
4.54723e-09
4.55121e-09
2.93865e-07
1.16284e-07
2.93885e-07
4.61681e-09
4.64638e-09
4.6114e-09
4.64565e-09
1.16291e-07
2.93922e-07
4.54685e-09
4.62315e-09
4.5801e-09
4.62194e-09
4.60679e-09
4.56521e-09
4.60659e-09
1.16307e-07
2.93924e-07
4.55442e-09
4.54859e-09
4.55289e-09
2.93865e-07
1.16284e-07
2.93885e-07
4.61613e-09
4.64457e-09
4.6114e-09
4.64497e-09
1.16291e-07
2.93922e-07
4.54807e-09
4.62166e-09
4.58027e-09
4.62199e-09
4.60629e-09
4.56553e-09
4.60662e-09
1.16307e-07
2.93923e-07
4.55191e-09
4.54951e-09
4.55205e-09
2.93867e-07
1.16285e-07
2.93884e-07
4.61492e-09
4.64362e-09
4.61181e-09
4.64544e-09
1.16292e-07
2.93922e-07
4.54626e-09
4.62109e-09
4.5803e-09
4.62237e-09
4.60125e-09
4.56496e-09
4.60613e-09
1.16308e-07
2.93924e-07
4.55458e-09
4.54024e-09
4.55063e-09
2.93869e-07
1.16284e-07
2.93885e-07
4.61784e-09
4.64609e-09
4.61131e-09
4.64535e-09
1.16291e-07
2.93922e-07
4.54965e-09
4.62319e-09
4.57971e-09
4.62195e-09
4.60464e-09
4.56499e-09
4.6074e-09
1.16307e-07
2.93924e-07
4.55074e-09
4.54095e-09
4.55256e-09
2.93865e-07
1.16284e-07
2.93886e-07
4.61679e-09
4.64648e-09
4.61066e-09
4.64464e-09
1.1629e-07
2.93923e-07
4.54848e-09
4.62336e-09
4.57905e-09
4.62118e-09
4.60736e-09
4.56415e-09
4.6062e-09
1.16307e-07
2.93925e-07
4.5536e-09
4.54005e-09
4.55147e-09
2.93868e-07
1.16284e-07
2.9389e-07
4.61636e-09
4.64545e-09
4.60977e-09
4.64455e-09
1.16291e-07
2.93924e-07
4.54803e-09
4.62227e-09
4.57819e-09
4.62107e-09
4.60381e-09
4.56422e-09
4.60593e-09
1.16307e-07
2.93926e-07
4.5502e-09
4.54046e-09
4.55113e-09
2.93869e-07
1.16285e-07
2.93885e-07
4.6132e-09
4.64335e-09
4.61292e-09
4.64636e-09
1.16291e-07
2.93923e-07
4.54494e-09
4.62014e-09
4.58141e-09
4.62296e-09
4.60384e-09
4.56592e-09
4.60585e-09
1.16308e-07
2.93924e-07
4.55328e-09
4.54179e-09
4.55042e-09
2.93868e-07
1.16284e-07
2.93886e-07
4.61739e-09
4.64605e-09
4.61136e-09
4.64637e-09
1.16291e-07
2.93922e-07
4.54919e-09
4.62306e-09
4.57999e-09
4.6225e-09
4.60671e-09
4.56595e-09
4.60685e-09
1.16307e-07
2.93923e-07
4.55271e-09
4.54213e-09
4.55267e-09
2.93864e-07
1.16284e-07
2.93885e-07
4.61527e-09
4.64604e-09
4.61062e-09
4.65103e-09
1.16291e-07
2.93926e-07
4.5473e-09
4.62249e-09
4.57033e-09
4.62125e-09
4.60599e-09
4.56916e-09
4.60469e-09
1.16307e-07
2.93924e-07
4.55307e-09
4.54123e-09
4.55171e-09
2.93868e-07
1.16285e-07
2.93886e-07
4.61608e-09
4.65979e-09
4.6062e-09
4.63716e-09
1.16288e-07
2.93934e-07
4.56687e-09
4.62308e-09
4.56323e-09
4.62009e-09
4.60409e-09
4.57571e-09
4.60418e-09
1.16307e-07
2.93926e-07
4.55158e-09
4.53984e-09
4.55022e-09
2.93869e-07
1.16286e-07
2.93887e-07
4.61311e-09
4.59931e-09
4.6105e-09
4.63608e-09
1.16275e-07
2.93925e-07
4.56261e-09
4.62143e-09
4.56416e-09
4.62278e-09
4.60632e-09
4.56306e-09
4.60448e-09
1.16307e-07
2.93924e-07
4.55212e-09
4.54395e-09
4.54306e-09
2.93869e-07
1.16285e-07
2.93886e-07
4.61601e-09
4.63787e-09
4.61254e-09
4.64083e-09
1.16289e-07
2.93925e-07
4.56212e-09
4.6244e-09
4.56171e-09
4.61689e-09
4.59878e-09
4.57128e-09
4.62934e-09
1.16307e-07
2.93919e-07
4.52913e-09
4.54597e-09
4.54198e-09
2.93876e-07
1.16285e-07
2.93885e-07
4.61604e-09
4.64056e-09
4.61351e-09
4.64234e-09
1.16288e-07
2.93926e-07
4.55861e-09
4.6167e-09
4.56193e-09
4.61564e-09
4.6307e-09
4.57234e-09
4.63187e-09
1.1631e-07
2.93918e-07
4.53934e-09
4.54579e-09
4.54419e-09
2.93878e-07
1.16286e-07
2.93884e-07
4.61726e-09
4.64038e-09
4.61327e-09
4.64195e-09
1.16289e-07
2.93926e-07
4.5594e-09
4.61511e-09
4.56158e-09
4.61504e-09
4.62958e-09
4.57175e-09
4.62931e-09
1.16311e-07
2.93918e-07
4.53829e-09
4.54516e-09
4.54165e-09
2.93883e-07
1.16285e-07
2.93883e-07
4.6185e-09
4.64263e-09
4.61326e-09
4.64129e-09
1.16288e-07
2.93927e-07
4.56057e-09
4.61721e-09
4.56157e-09
4.61443e-09
4.63153e-09
4.57003e-09
4.62675e-09
1.16309e-07
2.93919e-07
4.54033e-09
4.54268e-09
4.5396e-09
2.93886e-07
1.16285e-07
2.93881e-07
4.61809e-09
4.64127e-09
4.61352e-09
4.64175e-09
1.16288e-07
2.93925e-07
4.56016e-09
4.61592e-09
4.56183e-09
4.61499e-09
4.6273e-09
4.57094e-09
4.62816e-09
1.1631e-07
2.93917e-07
4.53601e-09
4.54349e-09
4.53852e-09
2.93884e-07
1.16285e-07
2.93883e-07
4.62e-09
4.64255e-09
4.61297e-09
4.64237e-09
1.16288e-07
2.93924e-07
4.56202e-09
4.61721e-09
4.56127e-09
4.61558e-09
4.63051e-09
4.57147e-09
4.63015e-09
1.1631e-07
2.93916e-07
4.54092e-09
4.54455e-09
4.54175e-09
2.93879e-07
1.16285e-07
2.93885e-07
4.61737e-09
4.64086e-09
4.61187e-09
4.64078e-09
1.16289e-07
2.93926e-07
4.55938e-09
4.61557e-09
4.56021e-09
4.61388e-09
4.62964e-09
4.57066e-09
4.62871e-09
1.1631e-07
2.93918e-07
4.53808e-09
4.54395e-09
4.54082e-09
2.93881e-07
1.16285e-07
2.93884e-07
4.61748e-09
4.64188e-09
4.61297e-09
4.64075e-09
1.16288e-07
2.93927e-07
4.55953e-09
4.61652e-09
4.56129e-09
4.61394e-09
4.63238e-09
4.57109e-09
4.62937e-09
1.16309e-07
2.93919e-07
4.54087e-09
4.54437e-09
4.5407e-09
2.93882e-07
1.16285e-07
2.93883e-07
4.6189e-09
4.64181e-09
4.61241e-09
4.64185e-09
1.16288e-07
2.93924e-07
4.56094e-09
4.61642e-09
4.56061e-09
4.61496e-09
4.63116e-09
4.57155e-09
4.63068e-09
1.16309e-07
2.93916e-07
4.54097e-09
4.54511e-09
4.54436e-09
2.93876e-07
1.16285e-07
2.93889e-07
4.61808e-09
4.64208e-09
4.60965e-09
4.63998e-09
1.16288e-07
2.93928e-07
4.56052e-09
4.61678e-09
4.55419e-09
4.61294e-09
4.63189e-09
4.57019e-09
4.62768e-09
1.1631e-07
2.9392e-07
4.54196e-09
4.54362e-09
4.54134e-09
2.93884e-07
1.16285e-07
2.93884e-07
4.61541e-09
4.64003e-09
4.61359e-09
4.64247e-09
1.16288e-07
2.93926e-07
4.55813e-09
4.61459e-09
4.55798e-09
4.61542e-09
4.63001e-09
4.57172e-09
4.62791e-09
1.1631e-07
2.93919e-07
4.54001e-09
4.54514e-09
4.54155e-09
2.93885e-07
1.16285e-07
2.93881e-07
4.61722e-09
4.64068e-09
4.61362e-09
4.64244e-09
1.16288e-07
2.93925e-07
4.55983e-09
4.61524e-09
4.55786e-09
4.61571e-09
4.6302e-09
4.57157e-09
4.63069e-09
1.1631e-07
2.93917e-07
4.54013e-09
4.54497e-09
4.54407e-09
2.93881e-07
1.16285e-07
2.93883e-07
4.61877e-09
4.64228e-09
4.61347e-09
4.6412e-09
1.16288e-07
2.93926e-07
4.56113e-09
4.6174e-09
4.55713e-09
4.61665e-09
4.63074e-09
4.57113e-09
4.62915e-09
1.1631e-07
2.93919e-07
4.54045e-09
4.54651e-09
4.54062e-09
2.93886e-07
1.16286e-07
2.93888e-07
4.61705e-09
4.63972e-09
4.6105e-09
4.64051e-09
1.16289e-07
2.93927e-07
4.55884e-09
4.61787e-09
4.55409e-09
4.61714e-09
4.6296e-09
4.57045e-09
4.63362e-09
1.16311e-07
2.93914e-07
4.53549e-09
4.50374e-09
4.52427e-09
2.93875e-07
1.16285e-07
2.93877e-07
4.61706e-09
4.6414e-09
4.61725e-09
4.64451e-09
1.16288e-07
2.93922e-07
4.55916e-09
4.61757e-09
4.56116e-09
4.6149e-09
4.63262e-09
4.57467e-09
4.62999e-09
1.16313e-07
2.93913e-07
4.52246e-09
4.54502e-09
4.54635e-09
2.93876e-07
1.16284e-07
2.9388e-07
4.62176e-09
4.64397e-09
4.61328e-09
4.64253e-09
1.16287e-07
2.93924e-07
4.56405e-09
4.61565e-09
4.55753e-09
4.61431e-09
4.63272e-09
4.57061e-09
4.62694e-09
1.16309e-07
2.93917e-07
4.53904e-09
4.54114e-09
4.52525e-09
2.93887e-07
1.16284e-07
2.93884e-07
4.62017e-09
4.6429e-09
4.61135e-09
4.64098e-09
1.16287e-07
2.93925e-07
4.5627e-09
4.61644e-09
4.55574e-09
4.61358e-09
4.62605e-09
4.57068e-09
4.63014e-09
1.16308e-07
2.93917e-07
4.54568e-09
4.54358e-09
4.53241e-09
2.93881e-07
1.16284e-07
2.9388e-07
4.61528e-09
4.63958e-09
4.61416e-09
4.64258e-09
1.16287e-07
2.93923e-07
4.55792e-09
4.61392e-09
4.55859e-09
4.61536e-09
4.62746e-09
4.57116e-09
4.62764e-09
1.16309e-07
2.93915e-07
4.55275e-09
4.54484e-09
4.54088e-09
2.9388e-07
1.16285e-07
2.93879e-07
4.61641e-09
4.64191e-09
4.61393e-09
4.64304e-09
1.16287e-07
2.93922e-07
4.55905e-09
4.61655e-09
4.5584e-09
4.61587e-09
4.63027e-09
4.57155e-09
4.62999e-09
1.16308e-07
2.93914e-07
4.53914e-09
4.54541e-09
4.54328e-09
2.93877e-07
1.16284e-07
2.93883e-07
4.62022e-09
4.6434e-09
4.61207e-09
4.64068e-09
1.16287e-07
2.93924e-07
4.56287e-09
4.61809e-09
4.55653e-09
4.61341e-09
4.63291e-09
4.57094e-09
4.62809e-09
1.16309e-07
2.93915e-07
4.54197e-09
4.54488e-09
4.54175e-09
2.93879e-07
1.16285e-07
2.93882e-07
4.61502e-09
4.64022e-09
4.61334e-09
4.64292e-09
1.16287e-07
2.93923e-07
4.5577e-09
4.61482e-09
4.5578e-09
4.61567e-09
4.63009e-09
4.5711e-09
4.62869e-09
1.16309e-07
2.93915e-07
4.53948e-09
4.5452e-09
4.54135e-09
2.93879e-07
1.16284e-07
2.93883e-07
4.61766e-09
4.64062e-09
4.61134e-09
4.64095e-09
1.16287e-07
2.93924e-07
4.56033e-09
4.61528e-09
4.55582e-09
4.61369e-09
4.62973e-09
4.57102e-09
4.62971e-09
1.16309e-07
2.93916e-07
4.5382e-09
4.54682e-09
4.5436e-09
2.93877e-07
1.16284e-07
2.93879e-07
4.61727e-09
4.64227e-09
4.61404e-09
4.6407e-09
1.16287e-07
2.93925e-07
4.55997e-09
4.61676e-09
4.55847e-09
4.6137e-09
4.63273e-09
4.56945e-09
4.62681e-09
1.16309e-07
2.93917e-07
4.54219e-09
4.54275e-09
4.53986e-09
2.93882e-07
1.16285e-07
2.9388e-07
4.6174e-09
4.64077e-09
4.6126e-09
4.64334e-09
1.16287e-07
2.9392e-07
4.56008e-09
4.61525e-09
4.55707e-09
4.61626e-09
4.63014e-09
4.57299e-09
4.63087e-09
1.16309e-07
2.93912e-07
4.53956e-09
4.54649e-09
4.54405e-09
2.93874e-07
1.16284e-07
2.93883e-07
4.61715e-09
4.64163e-09
4.61197e-09
4.64001e-09
1.16288e-07
2.93925e-07
4.55983e-09
4.6161e-09
4.55641e-09
4.6129e-09
4.63048e-09
4.5697e-09
4.62739e-09
1.16309e-07
2.93917e-07
4.54001e-09
4.54323e-09
4.54061e-09
2.9388e-07
1.16284e-07
2.93884e-07
4.61616e-09
4.64103e-09
4.61225e-09
4.64112e-09
1.16287e-07
2.93925e-07
4.55878e-09
4.61551e-09
4.55673e-09
4.61402e-09
4.63042e-09
4.57148e-09
4.62867e-09
1.16309e-07
2.93917e-07
4.53992e-09
4.54501e-09
4.54188e-09
2.9388e-07
1.16284e-07
2.93879e-07
4.61714e-09
4.64053e-09
4.61312e-09
4.64171e-09
1.16287e-07
2.93921e-07
4.55984e-09
4.61492e-09
4.55751e-09
4.61462e-09
4.62902e-09
4.57239e-09
4.63011e-09
1.16309e-07
2.93914e-07
4.53856e-09
4.54584e-09
4.54329e-09
2.93876e-07
1.16284e-07
2.93881e-07
4.61829e-09
4.64189e-09
4.61131e-09
4.64027e-09
1.16287e-07
2.93924e-07
4.565e-09
4.61649e-09
4.57105e-09
4.6131e-09
4.63112e-09
4.56975e-09
4.62839e-09
1.16309e-07
2.93916e-07
4.54065e-09
4.54334e-09
4.54159e-09
2.93879e-07
1.16282e-07
2.9388e-07
4.61737e-09
4.64176e-09
4.61258e-09
4.64149e-09
1.16287e-07
2.93924e-07
4.54475e-09
4.61611e-09
4.57253e-09
4.61445e-09
4.62981e-09
4.57147e-09
4.62861e-09
1.16308e-07
2.93916e-07
4.53935e-09
4.54499e-09
4.54185e-09
2.93881e-07
1.16282e-07
2.93879e-07
4.61898e-09
4.64138e-09
4.61275e-09
4.6415e-09
1.16287e-07
2.93925e-07
4.54654e-09
4.61582e-09
4.57263e-09
4.61413e-09
4.62802e-09
4.57017e-09
4.6275e-09
1.16309e-07
2.93917e-07
4.53755e-09
4.54368e-09
4.54072e-09
2.93882e-07
1.16283e-07
2.93876e-07
4.61922e-09
4.64049e-09
4.61462e-09
4.64287e-09
1.16287e-07
2.93921e-07
4.54682e-09
4.61758e-09
4.57448e-09
4.62195e-09
4.63088e-09
4.57269e-09
4.63025e-09
1.16308e-07
2.93941e-07
4.54036e-09
4.54523e-09
4.54336e-09
2.93874e-07
1.16283e-07
2.93883e-07
4.6202e-09
4.64328e-09
4.61049e-09
4.6405e-09
1.16287e-07
2.93925e-07
4.54788e-09
4.61172e-09
4.57037e-09
4.62e-09
4.63267e-09
4.57011e-09
4.6267e-09
1.16315e-07
2.93945e-07
4.54214e-09
4.54302e-09
4.53997e-09
2.93881e-07
1.16283e-07
2.93885e-07
4.61526e-09
4.64028e-09
4.61098e-09
4.64026e-09
1.16287e-07
2.93926e-07
4.54297e-09
4.60894e-09
4.57084e-09
4.6197e-09
4.6292e-09
4.57039e-09
4.62742e-09
1.16315e-07
2.93946e-07
4.53878e-09
4.54336e-09
4.54081e-09
2.93881e-07
1.16283e-07
2.93878e-07
4.617e-09
4.64052e-09
4.61331e-09
4.64341e-09
1.16287e-07
2.9392e-07
4.54463e-09
4.60936e-09
4.5733e-09
4.62554e-09
4.63022e-09
4.57272e-09
4.63127e-09
1.16315e-07
2.93947e-07
4.53971e-09
4.54552e-09
4.54445e-09
2.93876e-07
1.16283e-07
2.93879e-07
4.61905e-09
4.64335e-09
4.61102e-09
4.64387e-09
1.16288e-07
2.93922e-07
4.54695e-09
4.61143e-09
4.57232e-09
4.61503e-09
4.63243e-09
4.56962e-09
4.62862e-09
1.16315e-07
2.93925e-07
4.54239e-09
4.54151e-09
4.5487e-09
2.93879e-07
1.16282e-07
2.93886e-07
4.61753e-09
4.64408e-09
4.61386e-09
4.64811e-09
1.16288e-07
2.93921e-07
4.54777e-09
4.61619e-09
4.57309e-09
4.63673e-09
4.63592e-09
4.57544e-09
4.61745e-09
1.1631e-07
2.93922e-07
4.55703e-09
4.55471e-09
4.55825e-09
2.93867e-07
1.16274e-07
2.93886e-07
4.62596e-09
4.63434e-09
5.04338e-09
5.00923e-09
1.16282e-07
2.939e-07
4.5447e-09
4.64484e-09
5.01273e-09
5.05697e-09
4.60153e-09
4.86629e-09
4.94269e-09
1.16301e-07
2.93922e-07
4.53125e-09
4.91143e-09
4.92817e-09
2.93867e-07
1.16223e-07
2.93052e-07
5.58009e-09
5.63865e-09
2.53826e-08
2.54564e-08
1.16177e-07
2.93076e-07
5.56355e-09
5.54467e-09
2.54119e-08
2.54543e-08
5.53366e-09
2.52741e-08
2.53739e-08
1.16235e-07
2.93029e-07
5.47055e-09
2.52817e-08
2.52498e-08
2.93064e-07
1.14383e-07
9.20824e-08
5.00631e-08
5.00987e-08
2.62704e-07
2.62281e-07
1.14368e-07
9.21033e-08
4.99353e-08
5.01582e-08
2.62322e-07
2.6214e-07
5.01324e-08
2.62833e-07
2.62549e-07
1.1439e-07
9.20063e-08
4.99525e-08
2.62467e-07
2.6227e-07
9.20341e-08
5.95412e-07
2.42616e-07
2.4237e-07
5.95259e-07
2.42771e-07
2.42476e-07
5.73322e-07
5.73407e-07
5.73337e-07
2.42649e-07
5.95276e-07
2.42767e-07
5.2175e-08
2.28138e-07
1.54373e-07
1.5439e-07
5.5848e-07
3.20689e-07
7.34254e-07
2.09339e-07
5.58411e-07
3.20717e-07
2.09343e-07
7.34063e-07
4.21278e-07
4.69352e-07
4.69271e-07
3.84419e-06
0.000119945
3.66017e-06
0.000121481
0.000239822
0.000246204
3.84478e-06
0.000119961
3.66149e-06
0.000121498
1.47651e-06
1.47575e-06
1.47612e-06
2.09885e-07
2.09812e-07
2.09848e-07
2.09918e-07
3.28836e-07
6.11579e-06
1.03077e-06
9.28914e-07
1.85865e-07
4.45072e-06
7.01013e-07
0.000239815
0.000246189
3.27894e-07
1.02983e-06
6.11444e-06
9.28734e-07
1.85777e-07
7.00667e-07
4.44979e-06
8.48638e-06
8.48742e-06
3.02078e-07
9.65135e-06
9.65319e-06
3.69611e-06
0.00012061
3.68669e-06
0.000120597
0.00024706
0.000247051
3.69661e-06
0.000120625
3.68716e-06
0.000120613
1.01224e-07