/*--------------------------------*- C++ -*----------------------------------*\
| =========                 |                                                 |
| \\      /  F ield         | OpenFOAM: The Open Source CFD Toolbox           |
|  \\    /   O peration     | Version:  v1912                                 |
|   \\  /    A nd           | Website:  www.openfoam.com                      |
|    \\/     M anipulation  |                                                 |
\*---------------------------------------------------------------------------*/
FoamFile
{
    version     2.0;
    format      ascii;
    class       volScalarField;
    location    "1.8";
    object      p;
}
// * * * * * * * * * * * * * * * * * * * * * * * * * * * * * * * * * * * * * //

dimensions      [0 2 -2 0 0 0 0];


internalField   nonuniform List<scalar> 
171728
(
0.0206002
0.0206013
0.0206013
0.0206178
0.0203839
0.0203838
0.0203838
0.0203972
0.0201655
0.0201653
0.0201653
0.0201787
0.019947
0.0199469
0.0199469
0.0199602
0.0197285
0.0197284
0.0197284
0.0197418
0.01951
0.0195099
0.0195099
0.0195233
0.0192916
0.0192914
0.0192914
0.0193048
0.0190731
0.019073
0.019073
0.0190863
0.0188546
0.0188545
0.0188545
0.0188679
0.0186361
0.018636
0.018636
0.0186494
0.0184177
0.0184175
0.0184175
0.0184309
0.0181992
0.0181991
0.0181991
0.0182124
0.0179807
0.0179806
0.0179806
0.017994
0.0177623
0.0177621
0.0177621
0.0177755
0.0175438
0.0175436
0.0175436
0.017557
0.0173253
0.0173252
0.0173252
0.0173385
0.0171068
0.0171067
0.0171067
0.0171201
0.0168884
0.0168882
0.0168882
0.0169016
0.0166699
0.0166697
0.0166697
0.0166831
0.0164514
0.0164513
0.0164513
0.0164646
0.0162329
0.0162328
0.0162328
0.0162462
0.0160145
0.0160143
0.0160143
0.0160277
0.015796
0.0157958
0.0157958
0.0158092
0.0155775
0.0155774
0.0155774
0.0155907
0.015359
0.0153589
0.0153589
0.0153723
0.0151406
0.0151404
0.0151404
0.0151538
0.0149221
0.0149219
0.0149219
0.0149353
0.0147036
0.0147035
0.0147035
0.0147168
0.0144851
0.014485
0.014485
0.0144984
0.0142667
0.0142665
0.0142665
0.0142799
0.0140482
0.014048
0.014048
0.0140614
0.0138297
0.0138296
0.0138296
0.0138429
0.0136112
0.0136111
0.0136111
0.0136245
0.0133928
0.0133926
0.0133926
0.013406
0.0131743
0.0131742
0.0131742
0.0131875
0.0129558
0.0129557
0.0129557
0.012969
0.0127373
0.0127372
0.0127372
0.0127506
0.0125189
0.0125187
0.0125187
0.0125321
0.0123004
0.0123003
0.0123003
0.0123136
0.0120819
0.0120818
0.0120818
0.0120951
0.0118634
0.0118633
0.0118633
0.0118767
0.011645
0.0116448
0.0116448
0.0116582
0.0114265
0.0114264
0.0114264
0.0114397
0.011208
0.0112079
0.0112079
0.0112212
0.0109895
0.0109894
0.0109894
0.0110028
0.0107711
0.0107709
0.0107709
0.0107843
0.0105526
0.0105525
0.0105525
0.0105658
0.0103341
0.010334
0.010334
0.0103473
0.0101156
0.0101155
0.0101155
0.0101289
0.00989716
0.00989703
0.00989703
0.0099104
0.00967869
0.00967855
0.00967855
0.00969192
0.00946021
0.00946008
0.00946008
0.00947345
0.00924174
0.0092416
0.0092416
0.00925497
0.00902326
0.00902313
0.00902313
0.0090365
0.00880479
0.00880466
0.00880466
0.00881802
0.00858631
0.00858618
0.00858618
0.00859955
0.00836784
0.00836771
0.00836771
0.00838107
0.00814937
0.00814923
0.00814923
0.0081626
0.00793089
0.00793076
0.00793076
0.00794412
0.00771242
0.00771228
0.00771228
0.00772565
0.00749394
0.00749381
0.00749381
0.00750717
0.00727547
0.00727533
0.00727533
0.0072887
0.00705699
0.00705686
0.00705686
0.00707023
0.00683852
0.00683839
0.00683839
0.00685175
0.00662004
0.00661991
0.00661991
0.00663328
0.00640157
0.00640144
0.00640144
0.0064148
0.0061831
0.00618296
0.00618296
0.00619633
0.00596462
0.00596449
0.00596449
0.00597785
0.00574615
0.00574601
0.00574601
0.00575938
0.00552767
0.00552754
0.00552754
0.0055409
0.0053092
0.00530906
0.00530906
0.00532243
0.00509072
0.00509059
0.00509059
0.00510395
0.00487225
0.00487211
0.00487211
0.00488548
0.00465377
0.00465364
0.00465364
0.00466701
0.0044353
0.00443517
0.00443517
0.00444853
0.00421683
0.00421669
0.00421669
0.00423006
0.00399835
0.00399822
0.00399822
0.00401158
0.00377988
0.00377974
0.00377974
0.00379311
0.0035614
0.00356127
0.00356127
0.00357463
0.00334293
0.00334279
0.00334279
0.00335616
0.00312445
0.00312432
0.00312432
0.00313768
0.00290598
0.00290584
0.00290584
0.00291921
0.0026875
0.00268737
0.00268737
0.00270073
0.00246903
0.00246889
0.00246889
0.00248226
0.00225055
0.00225042
0.00225042
0.00226379
0.00203208
0.00203194
0.00203194
0.00204531
0.0018136
0.00181347
0.00181347
0.00182684
0.00159513
0.00159499
0.00159499
0.00160836
0.00137665
0.00137652
0.00137652
0.00138989
0.00115818
0.00115804
0.00115804
0.00117141
0.000939705
0.00093957
0.00093957
0.000952936
0.000721229
0.000721096
0.000721096
0.000734462
0.00050277
0.000502633
0.00050263
0.00051599
0.000285135
0.000284516
0.000284499
0.000297614
8.32256e-05
8.81894e-05
8.81712e-05
8.78669e-05
0.0206468
0.0206411
0.0206411
0.0206468
0.0206411
0.0206411
0.0206517
0.0206517
0.0206517
0.0206517
0.0206411
0.0206411
0.0206468
0.0206411
0.0206411
0.0206468
0.0206178
0.0204251
0.0206013
0.0206013
0.0204384
0.0204384
0.0206179
0.0204252
0.0206013
0.0206013
0.0204384
0.0204384
0.0206013
0.0204384
0.0204384
0.0206178
0.0204251
0.0206013
0.0204384
0.0204384
0.0204251
0.0203972
0.0202067
0.0203838
0.0203838
0.02022
0.02022
0.0203972
0.0202067
0.0203838
0.0203838
0.02022
0.02022
0.0203838
0.02022
0.02022
0.0203972
0.0202067
0.0203838
0.02022
0.02022
0.0202067
0.0201787
0.0199882
0.0201653
0.0201653
0.0200015
0.0200015
0.0201787
0.0199882
0.0201653
0.0201653
0.0200015
0.0200015
0.0201653
0.0200015
0.0200015
0.0201787
0.0199882
0.0201653
0.0200015
0.0200015
0.0199882
0.0199602
0.0197697
0.0199469
0.0199469
0.019783
0.019783
0.0199602
0.0197697
0.0199469
0.0199469
0.019783
0.019783
0.0199469
0.019783
0.019783
0.0199602
0.0197697
0.0199469
0.019783
0.019783
0.0197697
0.0197418
0.0195512
0.0197284
0.0197284
0.0195645
0.0195645
0.0197418
0.0195512
0.0197284
0.0197284
0.0195645
0.0195645
0.0197284
0.0195645
0.0195645
0.0197418
0.0195512
0.0197284
0.0195645
0.0195645
0.0195512
0.0195233
0.0193328
0.0195099
0.0195099
0.0193461
0.0193461
0.0195233
0.0193328
0.0195099
0.0195099
0.0193461
0.0193461
0.0195099
0.0193461
0.0193461
0.0195233
0.0193328
0.0195099
0.0193461
0.0193461
0.0193328
0.0193048
0.0191143
0.0192914
0.0192914
0.0191276
0.0191276
0.0193048
0.0191143
0.0192914
0.0192914
0.0191276
0.0191276
0.0192914
0.0191276
0.0191276
0.0193048
0.0191143
0.0192914
0.0191276
0.0191276
0.0191143
0.0190863
0.0188958
0.019073
0.019073
0.0189091
0.0189091
0.0190863
0.0188958
0.019073
0.019073
0.0189091
0.0189091
0.019073
0.0189091
0.0189091
0.0190863
0.0188958
0.019073
0.0189091
0.0189091
0.0188958
0.0188679
0.0186774
0.0188545
0.0188545
0.0186906
0.0186906
0.0188679
0.0186773
0.0188545
0.0188545
0.0186906
0.0186906
0.0188545
0.0186906
0.0186906
0.0188679
0.0186774
0.0188545
0.0186906
0.0186906
0.0186773
0.0186494
0.0184589
0.018636
0.018636
0.0184722
0.0184722
0.0186494
0.0184589
0.018636
0.018636
0.0184722
0.0184722
0.018636
0.0184722
0.0184722
0.0186494
0.0184589
0.018636
0.0184722
0.0184722
0.0184589
0.0184309
0.0182404
0.0184175
0.0184175
0.0182537
0.0182537
0.0184309
0.0182404
0.0184175
0.0184175
0.0182537
0.0182537
0.0184175
0.0182537
0.0182537
0.0184309
0.0182404
0.0184175
0.0182537
0.0182537
0.0182404
0.0182124
0.0180219
0.0181991
0.0181991
0.0180352
0.0180352
0.0182124
0.0180219
0.0181991
0.0181991
0.0180352
0.0180352
0.0181991
0.0180352
0.0180352
0.0182124
0.0180219
0.0181991
0.0180352
0.0180352
0.0180219
0.017994
0.0178035
0.0179806
0.0179806
0.0178167
0.0178167
0.017994
0.0178035
0.0179806
0.0179806
0.0178167
0.0178167
0.0179806
0.0178167
0.0178167
0.017994
0.0178035
0.0179806
0.0178167
0.0178167
0.0178035
0.0177755
0.017585
0.0177621
0.0177621
0.0175983
0.0175983
0.0177755
0.017585
0.0177621
0.0177621
0.0175983
0.0175983
0.0177621
0.0175983
0.0175983
0.0177755
0.017585
0.0177621
0.0175983
0.0175983
0.017585
0.017557
0.0173665
0.0175436
0.0175436
0.0173798
0.0173798
0.017557
0.0173665
0.0175436
0.0175436
0.0173798
0.0173798
0.0175436
0.0173798
0.0173798
0.017557
0.0173665
0.0175436
0.0173798
0.0173798
0.0173665
0.0173385
0.017148
0.0173252
0.0173252
0.0171613
0.0171613
0.0173385
0.017148
0.0173252
0.0173252
0.0171613
0.0171613
0.0173252
0.0171613
0.0171613
0.0173385
0.017148
0.0173252
0.0171613
0.0171613
0.017148
0.0171201
0.0169296
0.0171067
0.0171067
0.0169428
0.0169428
0.0171201
0.0169296
0.0171067
0.0171067
0.0169428
0.0169428
0.0171067
0.0169428
0.0169428
0.0171201
0.0169296
0.0171067
0.0169428
0.0169428
0.0169296
0.0169016
0.0167111
0.0168882
0.0168882
0.0167244
0.0167244
0.0169016
0.0167111
0.0168882
0.0168882
0.0167244
0.0167244
0.0168882
0.0167244
0.0167244
0.0169016
0.0167111
0.0168882
0.0167244
0.0167244
0.0167111
0.0166831
0.0164926
0.0166697
0.0166697
0.0165059
0.0165059
0.0166831
0.0164926
0.0166697
0.0166697
0.0165059
0.0165059
0.0166697
0.0165059
0.0165059
0.0166831
0.0164926
0.0166697
0.0165059
0.0165059
0.0164926
0.0164646
0.0162741
0.0164513
0.0164513
0.0162874
0.0162874
0.0164646
0.0162741
0.0164513
0.0164513
0.0162874
0.0162874
0.0164513
0.0162874
0.0162874
0.0164646
0.0162741
0.0164513
0.0162874
0.0162874
0.0162741
0.0162462
0.0160557
0.0162328
0.0162328
0.0160689
0.0160689
0.0162462
0.0160557
0.0162328
0.0162328
0.0160689
0.0160689
0.0162328
0.0160689
0.0160689
0.0162462
0.0160557
0.0162328
0.0160689
0.0160689
0.0160557
0.0160277
0.0158372
0.0160143
0.0160143
0.0158505
0.0158505
0.0160277
0.0158372
0.0160143
0.0160143
0.0158505
0.0158505
0.0160143
0.0158505
0.0158505
0.0160277
0.0158372
0.0160143
0.0158505
0.0158505
0.0158372
0.0158092
0.0156187
0.0157958
0.0157958
0.015632
0.015632
0.0158092
0.0156187
0.0157958
0.0157958
0.015632
0.015632
0.0157958
0.015632
0.015632
0.0158092
0.0156187
0.0157958
0.015632
0.015632
0.0156187
0.0155907
0.0154002
0.0155774
0.0155774
0.0154135
0.0154135
0.0155907
0.0154002
0.0155774
0.0155774
0.0154135
0.0154135
0.0155774
0.0154135
0.0154135
0.0155907
0.0154002
0.0155774
0.0154135
0.0154135
0.0154002
0.0153723
0.0151818
0.0153589
0.0153589
0.015195
0.015195
0.0153723
0.0151818
0.0153589
0.0153589
0.015195
0.015195
0.0153589
0.015195
0.015195
0.0153723
0.0151818
0.0153589
0.015195
0.015195
0.0151818
0.0151538
0.0149633
0.0151404
0.0151404
0.0149766
0.0149766
0.0151538
0.0149633
0.0151404
0.0151404
0.0149766
0.0149766
0.0151404
0.0149766
0.0149766
0.0151538
0.0149633
0.0151404
0.0149766
0.0149766
0.0149633
0.0149353
0.0147448
0.0149219
0.0149219
0.0147581
0.0147581
0.0149353
0.0147448
0.0149219
0.0149219
0.0147581
0.0147581
0.0149219
0.0147581
0.0147581
0.0149353
0.0147448
0.0149219
0.0147581
0.0147581
0.0147448
0.0147168
0.0145263
0.0147035
0.0147035
0.0145396
0.0145396
0.0147168
0.0145263
0.0147035
0.0147035
0.0145396
0.0145396
0.0147035
0.0145396
0.0145396
0.0147168
0.0145263
0.0147035
0.0145396
0.0145396
0.0145263
0.0144984
0.0143079
0.014485
0.014485
0.0143211
0.0143211
0.0144984
0.0143079
0.014485
0.014485
0.0143211
0.0143211
0.014485
0.0143211
0.0143211
0.0144984
0.0143079
0.014485
0.0143211
0.0143211
0.0143079
0.0142799
0.0140894
0.0142665
0.0142665
0.0141027
0.0141027
0.0142799
0.0140894
0.0142665
0.0142665
0.0141027
0.0141027
0.0142665
0.0141027
0.0141027
0.0142799
0.0140894
0.0142665
0.0141027
0.0141027
0.0140894
0.0140614
0.0138709
0.014048
0.014048
0.0138842
0.0138842
0.0140614
0.0138709
0.014048
0.014048
0.0138842
0.0138842
0.014048
0.0138842
0.0138842
0.0140614
0.0138709
0.014048
0.0138842
0.0138842
0.0138709
0.0138429
0.0136524
0.0138296
0.0138296
0.0136657
0.0136657
0.0138429
0.0136524
0.0138296
0.0138296
0.0136657
0.0136657
0.0138296
0.0136657
0.0136657
0.0138429
0.0136524
0.0138296
0.0136657
0.0136657
0.0136524
0.0136245
0.013434
0.0136111
0.0136111
0.0134472
0.0134472
0.0136245
0.013434
0.0136111
0.0136111
0.0134472
0.0134472
0.0136111
0.0134472
0.0134472
0.0136245
0.013434
0.0136111
0.0134472
0.0134472
0.013434
0.013406
0.0132155
0.0133926
0.0133926
0.0132288
0.0132288
0.013406
0.0132155
0.0133926
0.0133926
0.0132288
0.0132288
0.0133926
0.0132288
0.0132288
0.013406
0.0132155
0.0133926
0.0132288
0.0132288
0.0132155
0.0131875
0.012997
0.0131742
0.0131742
0.0130103
0.0130103
0.0131875
0.012997
0.0131742
0.0131742
0.0130103
0.0130103
0.0131742
0.0130103
0.0130103
0.0131875
0.012997
0.0131742
0.0130103
0.0130103
0.012997
0.012969
0.0127785
0.0129557
0.0129557
0.0127918
0.0127918
0.012969
0.0127785
0.0129557
0.0129557
0.0127918
0.0127918
0.0129557
0.0127918
0.0127918
0.012969
0.0127785
0.0129557
0.0127918
0.0127918
0.0127785
0.0127506
0.0125601
0.0127372
0.0127372
0.0125733
0.0125733
0.0127506
0.0125601
0.0127372
0.0127372
0.0125733
0.0125733
0.0127372
0.0125733
0.0125733
0.0127506
0.0125601
0.0127372
0.0125733
0.0125733
0.0125601
0.0125321
0.0123416
0.0125187
0.0125187
0.0123549
0.0123549
0.0125321
0.0123416
0.0125187
0.0125187
0.0123549
0.0123549
0.0125187
0.0123549
0.0123549
0.0125321
0.0123416
0.0125187
0.0123549
0.0123549
0.0123416
0.0123136
0.0121231
0.0123003
0.0123003
0.0121364
0.0121364
0.0123136
0.0121231
0.0123003
0.0123003
0.0121364
0.0121364
0.0123003
0.0121364
0.0121364
0.0123136
0.0121231
0.0123003
0.0121364
0.0121364
0.0121231
0.0120951
0.0119046
0.0120818
0.0120818
0.0119179
0.0119179
0.0120951
0.0119046
0.0120818
0.0120818
0.0119179
0.0119179
0.0120818
0.0119179
0.0119179
0.0120951
0.0119046
0.0120818
0.0119179
0.0119179
0.0119046
0.0118767
0.0116862
0.0118633
0.0118633
0.0116994
0.0116994
0.0118767
0.0116862
0.0118633
0.0118633
0.0116994
0.0116994
0.0118633
0.0116994
0.0116994
0.0118767
0.0116862
0.0118633
0.0116994
0.0116994
0.0116862
0.0116582
0.0114677
0.0116448
0.0116448
0.011481
0.011481
0.0116582
0.0114677
0.0116448
0.0116448
0.011481
0.011481
0.0116448
0.011481
0.011481
0.0116582
0.0114677
0.0116448
0.011481
0.011481
0.0114677
0.0114397
0.0112492
0.0114264
0.0114264
0.0112625
0.0112625
0.0114397
0.0112492
0.0114264
0.0114264
0.0112625
0.0112625
0.0114264
0.0112625
0.0112625
0.0114397
0.0112492
0.0114264
0.0112625
0.0112625
0.0112492
0.0112212
0.0110307
0.0112079
0.0112079
0.011044
0.011044
0.0112212
0.0110307
0.0112079
0.0112079
0.011044
0.011044
0.0112079
0.011044
0.011044
0.0112212
0.0110307
0.0112079
0.011044
0.011044
0.0110307
0.0110028
0.0108123
0.0109894
0.0109894
0.0108255
0.0108255
0.0110028
0.0108123
0.0109894
0.0109894
0.0108255
0.0108255
0.0109894
0.0108255
0.0108255
0.0110028
0.0108123
0.0109894
0.0108255
0.0108255
0.0108123
0.0107843
0.0105938
0.0107709
0.0107709
0.0106071
0.0106071
0.0107843
0.0105938
0.0107709
0.0107709
0.0106071
0.0106071
0.0107709
0.0106071
0.0106071
0.0107843
0.0105938
0.0107709
0.0106071
0.0106071
0.0105938
0.0105658
0.0103753
0.0105525
0.0105525
0.0103886
0.0103886
0.0105658
0.0103753
0.0105525
0.0105525
0.0103886
0.0103886
0.0105525
0.0103886
0.0103886
0.0105658
0.0103753
0.0105525
0.0103886
0.0103886
0.0103753
0.0103473
0.0101568
0.010334
0.010334
0.0101701
0.0101701
0.0103473
0.0101568
0.010334
0.010334
0.0101701
0.0101701
0.010334
0.0101701
0.0101701
0.0103473
0.0101568
0.010334
0.0101701
0.0101701
0.0101568
0.0101289
0.00993837
0.0101155
0.0101155
0.00995165
0.00995165
0.0101289
0.00993837
0.0101155
0.0101155
0.00995165
0.00995165
0.0101155
0.00995165
0.00995165
0.0101289
0.00993837
0.0101155
0.00995165
0.00995165
0.00993837
0.0099104
0.00971989
0.00989703
0.00989703
0.00973317
0.00973317
0.0099104
0.00971989
0.00989703
0.00989703
0.00973317
0.00973317
0.00989703
0.00973317
0.00973317
0.0099104
0.00971989
0.00989703
0.00973317
0.00973317
0.00971989
0.00969192
0.00950142
0.00967855
0.00967855
0.0095147
0.0095147
0.00969192
0.00950142
0.00967855
0.00967855
0.0095147
0.0095147
0.00967855
0.0095147
0.0095147
0.00969192
0.00950142
0.00967855
0.0095147
0.0095147
0.00950142
0.00947345
0.00928294
0.00946008
0.00946008
0.00929622
0.00929622
0.00947345
0.00928294
0.00946008
0.00946008
0.00929622
0.00929622
0.00946008
0.00929622
0.00929622
0.00947345
0.00928294
0.00946008
0.00929622
0.00929622
0.00928294
0.00925497
0.00906447
0.0092416
0.0092416
0.00907775
0.00907775
0.00925497
0.00906447
0.0092416
0.0092416
0.00907775
0.00907775
0.0092416
0.00907775
0.00907775
0.00925497
0.00906447
0.0092416
0.00907775
0.00907775
0.00906447
0.0090365
0.00884599
0.00902313
0.00902313
0.00885927
0.00885927
0.0090365
0.00884599
0.00902313
0.00902313
0.00885927
0.00885927
0.00902313
0.00885927
0.00885927
0.0090365
0.00884599
0.00902313
0.00885927
0.00885927
0.00884599
0.00881802
0.00862752
0.00880466
0.00880466
0.0086408
0.0086408
0.00881802
0.00862752
0.00880465
0.00880466
0.0086408
0.0086408
0.00880466
0.0086408
0.0086408
0.00881802
0.00862752
0.00880466
0.0086408
0.0086408
0.00862752
0.00859955
0.00840904
0.00858618
0.00858618
0.00842232
0.00842232
0.00859955
0.00840904
0.00858618
0.00858618
0.00842232
0.00842232
0.00858618
0.00842232
0.00842233
0.00859955
0.00840904
0.00858618
0.00842232
0.00842232
0.00840904
0.00838107
0.00819057
0.00836771
0.00836771
0.00820385
0.00820385
0.00838107
0.00819057
0.00836771
0.00836771
0.00820385
0.00820385
0.00836771
0.00820385
0.00820385
0.00838107
0.00819057
0.00836771
0.00820385
0.00820385
0.00819057
0.0081626
0.00797209
0.00814923
0.00814923
0.00798538
0.00798537
0.0081626
0.00797209
0.00814923
0.00814923
0.00798537
0.00798538
0.00814923
0.00798538
0.00798538
0.0081626
0.00797209
0.00814923
0.00798538
0.00798537
0.00797209
0.00794412
0.00775362
0.00793076
0.00793076
0.0077669
0.0077669
0.00794412
0.00775362
0.00793076
0.00793076
0.0077669
0.0077669
0.00793076
0.0077669
0.0077669
0.00794412
0.00775362
0.00793076
0.0077669
0.0077669
0.00775362
0.00772565
0.00753514
0.00771228
0.00771228
0.00754843
0.00754843
0.00772565
0.00753514
0.00771228
0.00771228
0.00754843
0.00754843
0.00771228
0.00754843
0.00754843
0.00772565
0.00753514
0.00771228
0.00754843
0.00754843
0.00753514
0.00750717
0.00731667
0.00749381
0.00749381
0.00732995
0.00732995
0.00750717
0.00731667
0.00749381
0.00749381
0.00732995
0.00732995
0.00749381
0.00732995
0.00732995
0.00750717
0.00731667
0.00749381
0.00732995
0.00732995
0.00731667
0.0072887
0.0070982
0.00727533
0.00727533
0.00711148
0.00711148
0.0072887
0.0070982
0.00727533
0.00727533
0.00711148
0.00711148
0.00727533
0.00711148
0.00711148
0.0072887
0.0070982
0.00727533
0.00711148
0.00711148
0.0070982
0.00707023
0.00687972
0.00705686
0.00705686
0.006893
0.006893
0.00707023
0.00687972
0.00705686
0.00705686
0.006893
0.006893
0.00705686
0.006893
0.006893
0.00707023
0.00687972
0.00705686
0.006893
0.006893
0.00687972
0.00685175
0.00666125
0.00683839
0.00683838
0.00667453
0.00667453
0.00685175
0.00666125
0.00683838
0.00683839
0.00667453
0.00667453
0.00683839
0.00667453
0.00667453
0.00685175
0.00666125
0.00683838
0.00667453
0.00667453
0.00666125
0.00663328
0.00644277
0.00661991
0.00661991
0.00645605
0.00645605
0.00663328
0.00644277
0.00661991
0.00661991
0.00645605
0.00645605
0.00661991
0.00645605
0.00645606
0.00663328
0.00644277
0.00661991
0.00645605
0.00645605
0.00644277
0.0064148
0.0062243
0.00640144
0.00640144
0.00623758
0.00623758
0.0064148
0.0062243
0.00640144
0.00640144
0.00623758
0.00623758
0.00640144
0.00623758
0.00623758
0.0064148
0.0062243
0.00640144
0.00623758
0.00623758
0.0062243
0.00619633
0.00600582
0.00618296
0.00618296
0.00601911
0.0060191
0.00619633
0.00600582
0.00618296
0.00618296
0.0060191
0.00601911
0.00618296
0.00601911
0.00601911
0.00619633
0.00600582
0.00618296
0.00601911
0.0060191
0.00600582
0.00597785
0.00578735
0.00596449
0.00596449
0.00580063
0.00580063
0.00597785
0.00578735
0.00596449
0.00596449
0.00580063
0.00580063
0.00596449
0.00580063
0.00580063
0.00597785
0.00578735
0.00596449
0.00580063
0.00580063
0.00578735
0.00575938
0.00556887
0.00574601
0.00574601
0.00558216
0.00558216
0.00575938
0.00556887
0.00574601
0.00574601
0.00558216
0.00558216
0.00574601
0.00558216
0.00558216
0.00575938
0.00556887
0.00574601
0.00558216
0.00558216
0.00556887
0.0055409
0.0053504
0.00552754
0.00552754
0.00536368
0.00536368
0.0055409
0.0053504
0.00552754
0.00552754
0.00536368
0.00536368
0.00552754
0.00536368
0.00536368
0.0055409
0.0053504
0.00552754
0.00536368
0.00536368
0.0053504
0.00532243
0.00513193
0.00530906
0.00530906
0.00514521
0.00514521
0.00532243
0.00513193
0.00530906
0.00530906
0.00514521
0.00514521
0.00530906
0.00514521
0.00514521
0.00532243
0.00513193
0.00530906
0.00514521
0.00514521
0.00513193
0.00510395
0.00491345
0.00509059
0.00509059
0.00492673
0.00492673
0.00510395
0.00491345
0.00509059
0.00509059
0.00492673
0.00492673
0.00509059
0.00492673
0.00492673
0.00510395
0.00491345
0.00509059
0.00492673
0.00492673
0.00491345
0.00488548
0.00469498
0.00487211
0.00487211
0.00470826
0.00470826
0.00488548
0.00469498
0.00487211
0.00487211
0.00470826
0.00470826
0.00487212
0.00470826
0.00470826
0.00488548
0.00469498
0.00487211
0.00470826
0.00470826
0.00469498
0.00466701
0.0044765
0.00465364
0.00465364
0.00448978
0.00448978
0.00466701
0.0044765
0.00465364
0.00465364
0.00448978
0.00448978
0.00465364
0.00448978
0.00448978
0.00466701
0.0044765
0.00465364
0.00448978
0.00448978
0.0044765
0.00444853
0.00425803
0.00443517
0.00443516
0.00427131
0.00427131
0.00444853
0.00425803
0.00443516
0.00443517
0.00427131
0.00427131
0.00443517
0.00427131
0.00427131
0.00444853
0.00425803
0.00443516
0.00427131
0.00427131
0.00425803
0.00423006
0.00403955
0.00421669
0.00421669
0.00405284
0.00405283
0.00423006
0.00403955
0.00421669
0.00421669
0.00405283
0.00405284
0.00421669
0.00405284
0.00405284
0.00423006
0.00403955
0.00421669
0.00405284
0.00405284
0.00403955
0.00401158
0.00382108
0.00399822
0.00399822
0.00383436
0.00383436
0.00401158
0.00382108
0.00399822
0.00399822
0.00383436
0.00383436
0.00399822
0.00383436
0.00383436
0.00401158
0.00382108
0.00399822
0.00383436
0.00383436
0.00382108
0.00379311
0.0036026
0.00377974
0.00377974
0.00361589
0.00361589
0.00379311
0.0036026
0.00377974
0.00377974
0.00361589
0.00361589
0.00377974
0.00361589
0.00361589
0.00379311
0.0036026
0.00377974
0.00361589
0.00361589
0.0036026
0.00357463
0.00338413
0.00356127
0.00356127
0.00339741
0.00339741
0.00357463
0.00338413
0.00356127
0.00356127
0.00339741
0.00339741
0.00356127
0.00339741
0.00339741
0.00357463
0.00338413
0.00356127
0.00339741
0.00339741
0.00338413
0.00335616
0.00316566
0.00334279
0.00334279
0.00317894
0.00317894
0.00335616
0.00316566
0.00334279
0.00334279
0.00317894
0.00317894
0.00334279
0.00317894
0.00317894
0.00335616
0.00316566
0.00334279
0.00317894
0.00317894
0.00316566
0.00313768
0.00294718
0.00312432
0.00312432
0.00296046
0.00296046
0.00313768
0.00294718
0.00312432
0.00312432
0.00296046
0.00296046
0.00312432
0.00296046
0.00296046
0.00313768
0.00294718
0.00312432
0.00296046
0.00296046
0.00294718
0.00291921
0.00272871
0.00290584
0.00290584
0.00274199
0.00274199
0.00291921
0.00272871
0.00290584
0.00290584
0.00274199
0.00274199
0.00290584
0.00274199
0.00274199
0.00291921
0.00272871
0.00290584
0.00274199
0.00274199
0.00272871
0.00270074
0.00251023
0.00268737
0.00268737
0.00252351
0.00252351
0.00270074
0.00251023
0.00268737
0.00268737
0.00252351
0.00252351
0.00268737
0.00252351
0.00252351
0.00270073
0.00251023
0.00268737
0.00252351
0.00252351
0.00251023
0.00248226
0.00229176
0.00246889
0.00246889
0.00230504
0.00230504
0.00248226
0.00229176
0.00246889
0.00246889
0.00230504
0.00230504
0.00246889
0.00230504
0.00230504
0.00248226
0.00229176
0.00246889
0.00230504
0.00230504
0.00229176
0.00226379
0.00207328
0.00225042
0.00225042
0.00208656
0.00208656
0.00226379
0.00207328
0.00225042
0.00225042
0.00208656
0.00208656
0.00225042
0.00208656
0.00208656
0.00226379
0.00207328
0.00225042
0.00208656
0.00208656
0.00207328
0.00204531
0.00185481
0.00203194
0.00203194
0.00186809
0.00186809
0.00204531
0.00185481
0.00203194
0.00203194
0.00186809
0.00186809
0.00203194
0.00186809
0.00186809
0.00204531
0.00185481
0.00203194
0.00186809
0.00186809
0.00185481
0.00182684
0.00163633
0.00181347
0.00181347
0.00164961
0.00164961
0.00182684
0.00163633
0.00181347
0.00181347
0.00164961
0.00164961
0.00181347
0.00164961
0.00164961
0.00182684
0.00163633
0.00181347
0.00164961
0.00164961
0.00163633
0.00160836
0.00141786
0.00159499
0.00159499
0.00143114
0.00143114
0.00160836
0.00141786
0.00159499
0.00159499
0.00143114
0.00143114
0.001595
0.00143114
0.00143114
0.00160836
0.00141786
0.00159499
0.00143114
0.00143114
0.00141786
0.00138989
0.00119938
0.00137652
0.00137652
0.00121266
0.00121266
0.00138989
0.00119938
0.00137652
0.00137652
0.00121266
0.00121266
0.00137652
0.00121266
0.00121266
0.00138989
0.00119938
0.00137652
0.00121266
0.00121266
0.00119938
0.00117141
0.000980907
0.00115804
0.00115804
0.000994189
0.000994189
0.00117141
0.000980907
0.00115804
0.00115804
0.000994189
0.000994189
0.00115805
0.000994189
0.000994189
0.00117141
0.000980907
0.00115804
0.000994189
0.000994189
0.000980907
0.000952936
0.000762433
0.00093957
0.00093957
0.000775714
0.000775714
0.000952936
0.000762433
0.00093957
0.00093957
0.000775714
0.000775714
0.000939571
0.000775715
0.000775715
0.000952936
0.000762432
0.00093957
0.000775714
0.000775715
0.000762433
0.000734462
0.00054396
0.000721096
0.000721096
0.000557244
0.000557247
0.000734463
0.000543961
0.000721096
0.000721095
0.000557244
0.000557243
0.000721097
0.000557246
0.000557246
0.000734462
0.000543958
0.000721096
0.000557243
0.000557244
0.000543961
0.00051599
0.000325553
0.000502632
0.000502633
0.000338915
0.000338921
0.000515991
0.000325562
0.000502632
0.00050263
0.000338913
0.000338907
0.000502632
0.000338921
0.000338914
0.000515988
0.000325543
0.000502632
0.000338909
0.000338914
0.000325553
0.000297618
0.000109546
0.00028451
0.000284517
0.000122472
0.000122487
0.000297627
0.000109565
0.000284506
0.000284497
0.000122473
0.000122455
0.000284507
0.000122488
0.000122467
0.000297604
0.000109529
0.000284506
0.000122464
0.000122476
0.000109544
8.78674e-05
8.81681e-05
8.81728e-05
8.78818e-05
8.81743e-05
8.81507e-05
8.32302e-05
8.32206e-05
8.3226e-05
8.81664e-05
8.78539e-05
8.81758e-05
0.0206758
0.0207104
0.0206917
0.0206917
0.0207679
0.0207242
0.0208279
0.020703
0.0207678
0.0207242
0.0207029
0.0208278
0.0207398
0.0208486
0.0208486
0.0205388
0.0206602
0.0206436
0.0205399
0.0205437
0.0205373
0.0205388
0.0206603
0.0206435
0.0205399
0.0206002
0.0206001
0.0206002
0.0204385
0.0204385
0.0204385
0.0204385
0.0205332
0.0206399
0.0206028
0.0205469
0.0206085
0.0205367
0.0205466
0.0205437
0.0205373
0.0205332
0.0206028
0.0206398
0.0205469
0.0206085
0.0205466
0.0205366
0.0206411
0.0206412
0.0205342
0.0205349
0.0205349
0.0203158
0.020398
0.0203982
0.0203158
0.0203978
0.0203158
0.0203158
0.020398
0.0203982
0.0203158
0.0203839
0.0203839
0.0203839
0.0202201
0.0202201
0.0202201
0.0202201
0.0203163
0.0203973
0.0203838
0.0203292
0.0203972
0.0203163
0.0203292
0.0203978
0.0203158
0.0203163
0.0203838
0.0203973
0.0203292
0.0203972
0.0203292
0.0203163
0.0203977
0.0203977
0.0203159
0.0203158
0.0203158
0.0200972
0.0201791
0.0201791
0.0200972
0.020179
0.0200972
0.0200972
0.0201791
0.0201791
0.0200972
0.0201655
0.0201655
0.0201655
0.0200016
0.0200016
0.0200016
0.0200016
0.0200977
0.0201785
0.0201654
0.0201107
0.0201785
0.0200977
0.0201108
0.020179
0.0200972
0.0200977
0.0201654
0.0201785
0.0201107
0.0201785
0.0201108
0.0200977
0.020179
0.020179
0.0200974
0.0200972
0.0200972
0.0198787
0.0199606
0.0199606
0.0198787
0.0199605
0.0198787
0.0198787
0.0199606
0.0199606
0.0198787
0.019947
0.019947
0.019947
0.0197831
0.0197831
0.0197831
0.0197831
0.0198792
0.01996
0.0199469
0.0198922
0.01996
0.0198792
0.0198923
0.0199605
0.0198787
0.0198792
0.0199469
0.01996
0.0198922
0.01996
0.0198923
0.0198792
0.0199605
0.0199605
0.019879
0.0198787
0.0198787
0.0196602
0.0197421
0.0197421
0.0196602
0.019742
0.0196603
0.0196602
0.0197421
0.0197421
0.0196602
0.0197285
0.0197285
0.0197285
0.0195647
0.0195647
0.0195647
0.0195647
0.0196608
0.0197416
0.0197284
0.0196738
0.0197416
0.0196607
0.0196738
0.019742
0.0196603
0.0196608
0.0197284
0.0197416
0.0196738
0.0197416
0.0196738
0.0196607
0.0197421
0.0197421
0.0196605
0.0196603
0.0196603
0.0194417
0.0195236
0.0195236
0.0194417
0.0195236
0.0194418
0.0194417
0.0195236
0.0195236
0.0194417
0.01951
0.01951
0.01951
0.0193462
0.0193462
0.0193462
0.0193462
0.0194423
0.0195231
0.01951
0.0194553
0.0195231
0.0194423
0.0194553
0.0195236
0.0194418
0.0194423
0.01951
0.0195231
0.0194553
0.0195231
0.0194553
0.0194423
0.0195236
0.0195236
0.019442
0.0194418
0.0194418
0.0192233
0.0193051
0.0193052
0.0192233
0.0193051
0.0192233
0.0192233
0.0193051
0.0193052
0.0192233
0.0192916
0.0192916
0.0192916
0.0191277
0.0191277
0.0191277
0.0191277
0.0192238
0.0193046
0.0192915
0.0192368
0.0193046
0.0192238
0.0192369
0.0193051
0.0192233
0.0192238
0.0192915
0.0193046
0.0192368
0.0193046
0.0192369
0.0192238
0.0193051
0.0193051
0.0192235
0.0192233
0.0192233
0.0190048
0.0190867
0.0190867
0.0190048
0.0190866
0.0190048
0.0190048
0.0190867
0.0190867
0.0190048
0.0190731
0.0190731
0.0190731
0.0189092
0.0189092
0.0189092
0.0189092
0.0190053
0.0190861
0.019073
0.0190183
0.0190861
0.0190053
0.0190184
0.0190866
0.0190048
0.0190053
0.019073
0.0190861
0.0190183
0.0190861
0.0190184
0.0190053
0.0190866
0.0190866
0.0190051
0.0190048
0.0190048
0.0187863
0.0188682
0.0188682
0.0187863
0.0188681
0.0187864
0.0187863
0.0188682
0.0188682
0.0187863
0.0188546
0.0188546
0.0188546
0.0186908
0.0186908
0.0186908
0.0186908
0.0187869
0.0188677
0.0188545
0.0187999
0.0188677
0.0187868
0.0187999
0.0188681
0.0187864
0.0187869
0.0188545
0.0188677
0.0187999
0.0188677
0.0187999
0.0187868
0.0188682
0.0188682
0.0187866
0.0187864
0.0187864
0.0185678
0.0186497
0.0186497
0.0185678
0.0186497
0.0185679
0.0185678
0.0186497
0.0186497
0.0185678
0.0186361
0.0186361
0.0186361
0.0184723
0.0184723
0.0184723
0.0184723
0.0185684
0.0186492
0.0186361
0.0185814
0.0186492
0.0185684
0.0185814
0.0186497
0.0185679
0.0185684
0.0186361
0.0186492
0.0185814
0.0186492
0.0185814
0.0185684
0.0186497
0.0186497
0.0185681
0.0185679
0.0185679
0.0183494
0.0184312
0.0184313
0.0183494
0.0184312
0.0183494
0.0183494
0.0184312
0.0184313
0.0183494
0.0184177
0.0184177
0.0184177
0.0182538
0.0182538
0.0182538
0.0182538
0.0183499
0.0184307
0.0184176
0.0183629
0.0184307
0.0183499
0.018363
0.0184312
0.0183494
0.0183499
0.0184176
0.0184307
0.0183629
0.0184307
0.018363
0.0183499
0.0184312
0.0184312
0.0183496
0.0183494
0.0183494