/*--------------------------------*- C++ -*----------------------------------*\
| =========                 |                                                 |
| \\      /  F ield         | OpenFOAM: The Open Source CFD Toolbox           |
|  \\    /   O peration     | Version:  v1906                                 |
|   \\  /    A nd           | Web:      www.OpenFOAM.com                      |
|    \\/     M anipulation  |                                                 |
\*---------------------------------------------------------------------------*/
FoamFile
{
    version     2.0;
    format      ascii;
    class       volScalarField;
    location    "125";
    object      epsilon;
}
// * * * * * * * * * * * * * * * * * * * * * * * * * * * * * * * * * * * * * //

dimensions      [0 2 -3 0 0 0 0];


internalField   nonuniform List<scalar> 
43248
(
1.33741e-07
2.30871e-07
2.30907e-07
3.58383e-07
1.31612e-07
2.41537e-07
2.41577e-07
3.84493e-07
1.30219e-07
2.54182e-07
2.54226e-07
4.13233e-07
1.2962e-07
2.68556e-07
2.68603e-07
4.43835e-07
1.2938e-07
2.8371e-07
2.83761e-07
4.74503e-07
1.29506e-07
2.98258e-07
2.98308e-07
5.01461e-07
1.29068e-07
3.08607e-07
3.08665e-07
5.19589e-07
1.26689e-07
3.11691e-07
3.11764e-07
5.26193e-07
1.24288e-07
3.11681e-07
3.11761e-07
5.27023e-07
1.23302e-07
3.11924e-07
3.12006e-07
5.26918e-07
1.23214e-07
3.12531e-07
3.12611e-07
5.27465e-07
1.23307e-07
3.12894e-07
3.12973e-07
5.2784e-07
1.23367e-07
3.1303e-07
3.13109e-07
5.28022e-07
1.23387e-07
3.13066e-07
3.13146e-07
5.28018e-07
1.23393e-07
3.13073e-07
3.13153e-07
5.28027e-07
1.23396e-07
3.13081e-07
3.13161e-07
5.2804e-07
1.23398e-07
3.13086e-07
3.13166e-07
5.28044e-07
1.234e-07
3.13089e-07
3.13169e-07
5.28061e-07
1.23401e-07
3.13091e-07
3.1317e-07
5.28035e-07
1.23403e-07
3.13093e-07
3.13171e-07
5.28045e-07
1.23403e-07
3.13091e-07
3.13171e-07
5.28044e-07
1.23404e-07
3.1309e-07
3.13172e-07
5.28052e-07
1.23405e-07
3.13088e-07
3.13172e-07
5.28034e-07
1.23406e-07
3.13087e-07
3.13171e-07
5.28021e-07
1.23405e-07
3.13086e-07
3.1317e-07
5.28127e-07
1.23405e-07
3.13084e-07
3.13169e-07
5.28114e-07
1.23406e-07
3.13088e-07
3.13173e-07
5.2794e-07
3.5291e-07
2.28613e-07
2.28646e-07
3.5287e-07
2.28586e-07
2.28672e-07
2.28533e-07
2.2861e-07
3.52943e-07
2.28568e-07
2.28576e-07
3.52936e-07
3.58361e-07
3.78374e-07
2.30951e-07
2.30987e-07
2.38779e-07
2.38822e-07
3.58322e-07
3.78332e-07
2.30924e-07
2.31013e-07
2.38752e-07
2.3885e-07
2.30948e-07
2.38695e-07
2.3878e-07
3.58389e-07
3.78412e-07
2.30914e-07
2.38734e-07
2.38744e-07
3.78404e-07
3.84466e-07
4.06549e-07
2.41622e-07
2.41667e-07
2.50905e-07
2.50956e-07
3.84425e-07
4.06503e-07
2.41595e-07
2.41695e-07
2.50876e-07
2.50985e-07
2.41623e-07
2.50815e-07
2.50908e-07
3.84498e-07
4.06592e-07
2.41586e-07
2.50857e-07
2.5087e-07
4.06585e-07
4.13202e-07
4.36826e-07
2.54273e-07
2.54326e-07
2.64961e-07
2.65018e-07
4.13157e-07
4.36778e-07
2.54244e-07
2.54356e-07
2.64928e-07
2.65049e-07
2.54277e-07
2.64863e-07
2.64966e-07
4.13239e-07
4.36874e-07
2.54239e-07
2.64909e-07
2.64929e-07
4.3687e-07
4.43796e-07
4.67443e-07
2.68655e-07
2.68713e-07
2.80003e-07
2.80067e-07
4.43749e-07
4.67392e-07
2.68622e-07
2.68745e-07
2.79968e-07
2.80098e-07
2.6866e-07
2.79899e-07
2.80012e-07
4.43838e-07
4.67493e-07
2.68623e-07
2.79948e-07
2.79974e-07
4.67491e-07
4.74459e-07
4.95389e-07
2.83815e-07
2.83881e-07
2.94924e-07
2.9499e-07
4.7441e-07
4.95337e-07
2.83779e-07
2.83911e-07
2.9488e-07
2.95025e-07
2.83824e-07
2.94814e-07
2.94933e-07
4.74502e-07
4.95454e-07
2.83786e-07
2.94864e-07
2.94891e-07
4.95448e-07
5.01406e-07
5.15419e-07
2.98366e-07
2.98431e-07
3.06815e-07
3.06882e-07
5.01358e-07
5.15371e-07
2.9832e-07
2.9847e-07
3.06766e-07
3.06926e-07
2.98375e-07
3.06705e-07
3.06831e-07
5.01466e-07
5.15493e-07
2.98331e-07
3.06759e-07
3.06781e-07
5.15482e-07
5.19525e-07
5.23931e-07
3.08719e-07
3.08786e-07
3.11554e-07
3.11624e-07
5.19476e-07
5.2387e-07
3.0867e-07
3.08828e-07
3.11509e-07
3.11654e-07
3.08737e-07
3.11432e-07
3.11577e-07
5.19593e-07
5.23993e-07
3.08686e-07
3.11503e-07
3.11526e-07
5.23997e-07
5.26125e-07
5.25342e-07
3.11813e-07
3.11884e-07
3.11845e-07
3.11917e-07
5.26064e-07
5.25271e-07
3.1177e-07
3.11912e-07
3.11806e-07
3.11938e-07
3.11838e-07
3.11718e-07
3.11872e-07
5.26177e-07
5.25388e-07
3.11787e-07
3.11796e-07
3.11825e-07
5.25404e-07
5.26958e-07
5.24993e-07
3.11808e-07
3.11881e-07
3.11902e-07
3.11979e-07
5.26887e-07
5.24922e-07
3.1177e-07
3.119e-07
3.11866e-07
3.11993e-07
3.11837e-07
3.11773e-07
3.11933e-07
5.26995e-07
5.25041e-07
3.1179e-07
3.11854e-07
3.11887e-07
5.25061e-07
5.26848e-07
5.25648e-07
3.12049e-07
3.12119e-07
3.12516e-07
3.12592e-07
5.26777e-07
5.25575e-07
3.12014e-07
3.12139e-07
3.12479e-07
3.12605e-07
3.1208e-07
3.12387e-07
3.12545e-07
5.26884e-07
5.2569e-07
3.12034e-07
3.12466e-07
3.12499e-07
5.25709e-07
5.27404e-07
5.2605e-07
3.12656e-07
3.12731e-07
3.12959e-07
3.13035e-07
5.27334e-07
5.25972e-07
3.1262e-07
3.12746e-07
3.12921e-07
3.13047e-07
3.12685e-07
3.12829e-07
3.12987e-07
5.27439e-07
5.26089e-07
3.12639e-07
3.12907e-07
3.1294e-07
5.2611e-07
5.2778e-07
5.26248e-07
3.13022e-07
3.13097e-07
3.1314e-07
3.13216e-07
5.27704e-07
5.26161e-07
3.12985e-07
3.1311e-07
3.13104e-07
3.13226e-07
3.1305e-07
3.13008e-07
3.13168e-07
5.27811e-07
5.26278e-07
3.13003e-07
3.13087e-07
3.13121e-07
5.26303e-07
5.27968e-07
5.26267e-07
3.1316e-07
3.13236e-07
3.13193e-07
3.13272e-07
5.27883e-07
5.26176e-07
3.13125e-07
3.13246e-07
3.1316e-07
3.13282e-07
3.13188e-07
3.13063e-07
3.1322e-07
5.2799e-07
5.26297e-07
3.13141e-07
3.13142e-07
3.13173e-07
5.26317e-07
5.27968e-07
5.26267e-07
3.13194e-07
3.13277e-07
3.132e-07
3.13283e-07
5.27881e-07
5.26183e-07
3.13162e-07
3.13286e-07
3.13167e-07
3.13292e-07
3.13221e-07
3.13071e-07
3.13227e-07
5.27992e-07
5.26305e-07
3.13174e-07
3.1315e-07
3.1318e-07
5.26317e-07
5.27976e-07
5.2628e-07
3.132e-07
3.13283e-07
3.13208e-07
3.13291e-07
5.27896e-07
5.26199e-07
3.13167e-07
3.13292e-07
3.13174e-07
3.133e-07
3.13227e-07
3.13079e-07
3.13235e-07
5.28008e-07
5.26321e-07
3.1318e-07
3.13159e-07
3.13188e-07
5.26334e-07
5.27985e-07
5.26283e-07
3.13208e-07
3.13291e-07
3.13212e-07
3.13296e-07
5.27907e-07
5.26204e-07
3.13174e-07
3.133e-07
3.13179e-07
3.13306e-07
3.13235e-07
3.13085e-07
3.13241e-07
5.28019e-07
5.26325e-07
3.13188e-07
3.13164e-07
3.13194e-07
5.26341e-07
5.27985e-07
5.2629e-07
3.13212e-07
3.13296e-07
3.13214e-07
3.133e-07
5.27909e-07
5.26212e-07
3.13179e-07
3.13306e-07
3.13182e-07
3.13309e-07
3.13241e-07
3.13088e-07
3.13245e-07
5.28021e-07
5.26333e-07
3.13194e-07
3.13167e-07
3.13198e-07
5.26351e-07
5.27999e-07
5.2626e-07
3.13213e-07
3.13299e-07
3.13214e-07
3.13301e-07
5.27925e-07
5.26184e-07
3.13182e-07
3.13309e-07
3.13184e-07
3.1331e-07
3.13245e-07
3.1309e-07
3.13248e-07
5.28035e-07
5.26304e-07
3.13198e-07
3.13169e-07
3.13201e-07
5.26326e-07
5.27969e-07
5.26287e-07
3.13213e-07
3.13301e-07
3.13213e-07
3.13303e-07
5.27896e-07
5.26211e-07
3.13183e-07
3.13309e-07
3.13185e-07
3.1331e-07
3.13247e-07
3.13092e-07
3.1325e-07
5.28006e-07
5.26326e-07
3.13201e-07
3.1317e-07
3.13203e-07
5.26348e-07
5.27977e-07
5.2628e-07
3.13213e-07
3.13299e-07
3.13215e-07
3.133e-07
5.27911e-07
5.26206e-07
3.13185e-07
3.13309e-07
3.13186e-07
3.1331e-07
3.13249e-07
3.13091e-07
3.1325e-07
5.28016e-07
5.26318e-07
3.13203e-07
3.1317e-07
3.13204e-07
5.26341e-07
5.27979e-07
5.26283e-07
3.13212e-07
3.13297e-07
3.13213e-07
3.13298e-07
5.27907e-07
5.26213e-07
3.13185e-07
3.13309e-07
3.13187e-07
3.13311e-07
3.13249e-07
3.13089e-07
3.1325e-07
5.28015e-07
5.26325e-07
3.13203e-07
3.13171e-07
3.13204e-07
5.26348e-07
5.27981e-07
5.26266e-07
3.13211e-07
3.13295e-07
3.13212e-07
3.13296e-07
5.27912e-07
5.26191e-07
3.13186e-07
3.13309e-07
3.13187e-07
3.13311e-07
3.13249e-07
3.13087e-07
3.1325e-07
5.2802e-07
5.26304e-07
3.13203e-07
3.13171e-07
3.13204e-07
5.26323e-07
5.27967e-07
5.26289e-07
3.1321e-07
3.13294e-07
3.13212e-07
3.13295e-07
5.27898e-07
5.2621e-07
3.13186e-07
3.13309e-07
3.13188e-07
3.13311e-07
3.13249e-07
3.13087e-07
3.13251e-07
5.28006e-07
5.26325e-07
3.13203e-07
3.13171e-07
3.13205e-07
5.26341e-07
5.27968e-07
5.26339e-07
3.1321e-07
3.13292e-07
3.13211e-07
3.13293e-07
5.27893e-07
5.2627e-07
3.13186e-07
3.13309e-07
3.13187e-07
3.1331e-07
3.13249e-07
3.13085e-07
3.1325e-07
5.28003e-07
5.26381e-07
3.13203e-07
3.1317e-07
3.13204e-07
5.26418e-07
5.28053e-07
5.26241e-07
3.1321e-07
3.13291e-07
3.13211e-07
3.13292e-07
5.27986e-07
5.26176e-07
3.13186e-07
3.13308e-07
3.13186e-07
3.13309e-07
3.13248e-07
3.13083e-07
3.13249e-07
5.28093e-07
5.26285e-07
3.13202e-07
3.13168e-07
3.13202e-07
5.26323e-07
5.28027e-07
5.26102e-07
3.13211e-07
3.1329e-07
3.13214e-07
3.13293e-07
5.27971e-07
5.26025e-07
3.13186e-07
3.13308e-07
3.13188e-07
3.13311e-07
3.13248e-07
3.13085e-07
3.13251e-07
5.28074e-07
5.26138e-07
3.13202e-07
3.1317e-07
3.13204e-07
5.26168e-07
5.27861e-07
3.13216e-07
3.13294e-07
5.27795e-07
3.1319e-07
3.13313e-07
3.13252e-07
5.279e-07
3.13206e-07
1.344e-07
1.34397e-07
1.34407e-07
1.34401e-07
3.68198e-06
8.908e-06
3.6487e-06
8.91308e-06
1.84662e-05
1.8458e-05
3.68253e-06
8.90973e-06
3.64854e-06
8.91485e-06
1.33738e-07
1.33748e-07
1.33742e-07
1.32082e-07
1.32079e-07
1.3209e-07
1.32084e-07
1.15852e-06
2.79619e-06
1.58604e-07
2.3335e-07
1.13068e-06
2.81983e-06
1.58826e-07
1.84681e-05
1.84599e-05
1.15856e-06
1.58603e-07
2.79628e-06
2.33387e-07
1.13073e-06
1.58834e-07
2.82004e-06
5.13154e-06
5.13342e-06
3.65287e-07
5.14374e-06
5.14576e-06
3.75779e-06
8.91892e-06
3.73263e-06
8.92344e-06
1.84371e-05
1.84296e-05
3.75833e-06
8.92067e-06
3.73248e-06
8.9253e-06
1.31608e-07
1.31619e-07
1.31613e-07
1.30481e-07
1.30478e-07
1.3049e-07
1.30483e-07
1.24229e-06
2.86608e-06
1.59986e-07
2.44494e-07
1.21522e-06
2.88677e-06
1.60518e-07
1.84389e-05
1.84314e-05
1.24233e-06
1.59986e-07
2.86619e-06
2.44534e-07
1.21526e-06
1.60527e-07
2.88698e-06
5.16606e-06
5.168e-06
3.92185e-07
5.17613e-06
5.1781e-06
3.81643e-06
8.92953e-06
3.79616e-06
8.93181e-06
1.84108e-05
1.8403e-05
3.81694e-06
8.9313e-06
3.79602e-06
8.93364e-06
1.30216e-07
1.30228e-07
1.30221e-07
1.29723e-07
1.2972e-07
1.29733e-07
1.29726e-07
1.32198e-06
2.92779e-06
1.6262e-07
2.57661e-07
1.29636e-06
2.94549e-06
1.63498e-07
1.84125e-05
1.84046e-05
1.32201e-06
1.62621e-07
2.9279e-06
2.57706e-07
1.2964e-06
1.63507e-07
2.94571e-06
5.1945e-06
5.19641e-06
4.21576e-07
5.20188e-06
5.20386e-06
3.85757e-06
8.93364e-06
3.84626e-06
8.93699e-06
1.83863e-05
1.83826e-05
3.858e-06
8.93545e-06
3.84619e-06
8.9388e-06
1.29617e-07
1.29631e-07
1.29623e-07
1.29413e-07
1.29411e-07
1.29425e-07
1.29417e-07
1.39563e-06
2.97882e-06
1.6657e-07
2.723e-07
1.37279e-06
2.99339e-06
1.67696e-07
1.83881e-05
1.83846e-05
1.39566e-06
1.66572e-07
2.97892e-06
2.72347e-07
1.37282e-06
1.67706e-07
2.9935e-06
5.21551e-06
5.21747e-06
4.52205e-07
5.22291e-06
5.22475e-06
3.87303e-06
8.94125e-06
3.87038e-06
8.9417e-06
1.83681e-05
1.83612e-05
3.87322e-06
8.94311e-06
3.87042e-06
8.94354e-06
1.29377e-07
1.29391e-07
1.29384e-07
1.29458e-07
1.29456e-07
1.29471e-07
1.29463e-07
1.45496e-06
3.02083e-06
1.71295e-07
2.87489e-07
1.43782e-06
3.0315e-06
1.72562e-07
1.83697e-05
1.83631e-05
1.45496e-06
1.71298e-07
3.02097e-06
2.87539e-07
1.43784e-06
1.72571e-07
3.03165e-06
5.23397e-06
5.23598e-06
4.82234e-07
5.23625e-06
5.23824e-06
3.87297e-06
8.93765e-06
3.87429e-06
8.93436e-06
1.83437e-05
1.83369e-05
3.87312e-06
8.93954e-06
3.87444e-06
8.93633e-06
1.29504e-07
1.2952e-07
1.29511e-07
1.29379e-07
1.29378e-07
1.29395e-07
1.29386e-07
1.49269e-06
3.04895e-06
1.76329e-07
3.01449e-07
1.48341e-06
3.05372e-06
1.77445e-07
1.83454e-05
1.83386e-05
1.4927e-06
1.76332e-07
3.04891e-06
3.01499e-07
1.48342e-06
1.77453e-07
3.05372e-06
5.23909e-06
5.24098e-06
5.06711e-07
5.23883e-06
5.24074e-06
3.86632e-06
8.92506e-06
3.86983e-06
8.91958e-06
1.83184e-05
1.83112e-05
3.86647e-06
8.92709e-06
3.86993e-06
8.92167e-06
1.29066e-07
1.29084e-07
1.29075e-07
1.27392e-07
1.27389e-07
1.27407e-07
1.274e-07
1.50875e-06
3.059e-06
1.7967e-07
3.09987e-07
1.50601e-06
3.05786e-06
1.79947e-07
1.83196e-05
1.83123e-05
1.50878e-06
1.79678e-07
3.05904e-06
3.1005e-07
1.50604e-06
1.79959e-07
3.05802e-06
5.23679e-06
5.23864e-06
5.21144e-07
5.23313e-06
5.23502e-06
3.85787e-06
8.90913e-06
3.86182e-06
8.90501e-06
1.82946e-05
1.82902e-05
3.85807e-06
8.91118e-06
3.86192e-06
8.90707e-06
1.26686e-07
1.26704e-07
1.26697e-07
1.24766e-07
1.24762e-07
1.2478e-07
1.24775e-07
1.51153e-06
3.05543e-06
1.79708e-07
3.11777e-07
1.51198e-06
3.05226e-06
1.79222e-07
1.82956e-05
1.82912e-05
1.51159e-06
1.79721e-07
3.05559e-06
3.11852e-07
1.51203e-06
1.79242e-07
3.05243e-06
5.22764e-06
5.22953e-06
5.25115e-07
5.22345e-06
5.22536e-06
3.84984e-06
8.89868e-06
3.85293e-06
8.8968e-06
1.82801e-05
1.8279e-05
3.85006e-06
8.90074e-06
3.85296e-06
8.89893e-06
1.24283e-07
1.24301e-07
1.24297e-07
1.23426e-07
1.23421e-07
1.2344e-07
1.23436e-07
1.50988e-06
3.04942e-06
1.78229e-07
3.1168e-07
1.51111e-06
3.04709e-06
1.78081e-07
1.82809e-05
1.82799e-05
1.50995e-06
1.78247e-07
3.04954e-06
3.11761e-07
1.51117e-06
1.78103e-07
3.04728e-06
5.21934e-06
5.22122e-06
5.24884e-07
5.21693e-06
5.21885e-06
3.84583e-06
8.8942e-06
3.8472e-06
8.8937e-06
1.82738e-05
1.8275e-05
3.84604e-06
8.89628e-06
3.84732e-06
8.89579e-06
1.23297e-07
1.23315e-07
1.23312e-07
1.23211e-07
1.23206e-07
1.23224e-07
1.23221e-07
1.50845e-06
3.04581e-06
1.78006e-07
3.12072e-07
1.50934e-06
3.04464e-06
1.78026e-07
1.82747e-05
1.8276e-05
1.50852e-06
1.78026e-07
3.04593e-06
3.12152e-07
1.50942e-06
1.7805e-07
3.04481e-06
5.21531e-06
5.2172e-06
5.25528e-07
5.21448e-06
5.21639e-06
3.84448e-06
8.89278e-06
3.84498e-06
8.89288e-06
1.82722e-05
1.82742e-05
3.84466e-06
8.89484e-06
3.84508e-06
8.89495e-06
1.23209e-07
1.23227e-07
1.23224e-07
1.23282e-07
1.23277e-07
1.23295e-07
1.23292e-07
1.50787e-06
3.04459e-06
1.78271e-07
3.12647e-07
1.50847e-06
3.044e-06
1.78349e-07
1.82731e-05
1.82752e-05
1.50792e-06
1.78289e-07
3.04472e-06
3.12726e-07
1.50854e-06
1.78375e-07
3.04417e-06
5.21424e-06
5.21613e-06
5.25944e-07
5.21397e-06
5.21588e-06
3.84418e-06
8.8926e-06
3.84438e-06
8.89285e-06
1.82722e-05
1.82743e-05
3.84436e-06
8.89468e-06
3.8445e-06
8.89494e-06
1.23301e-07
1.23319e-07
1.23316e-07
1.23357e-07
1.23351e-07
1.23369e-07
1.23366e-07
1.50774e-06
3.04451e-06
1.7852e-07
3.1294e-07
1.50818e-06
3.04401e-06
1.78553e-07
1.82731e-05
1.82753e-05
1.5078e-06
1.78537e-07
3.04461e-06
3.13018e-07
1.50824e-06
1.78577e-07
3.04418e-06
5.21419e-06
5.21607e-06
5.2621e-07
5.21403e-06
5.21593e-06
3.84414e-06
8.89265e-06
3.8443e-06
8.89291e-06
1.82724e-05
1.82745e-05
3.84432e-06
8.89475e-06
3.84442e-06
8.89502e-06
1.23361e-07
1.23379e-07
1.23376e-07
1.23384e-07
1.23378e-07
1.23396e-07
1.23392e-07
1.50776e-06
3.04456e-06
1.78618e-07
3.13043e-07
1.50818e-06
3.04407e-06
1.78628e-07
1.82732e-05
1.82755e-05
1.50781e-06
1.78636e-07
3.04467e-06
3.13122e-07
1.50824e-06
1.78652e-07
3.04423e-06
5.21428e-06
5.21616e-06
5.26332e-07
5.2141e-06
5.216e-06
3.84414e-06
8.8927e-06
3.84429e-06
8.89294e-06
1.82725e-05
1.82745e-05
3.84431e-06
8.8948e-06
3.84441e-06
8.89505e-06
1.23381e-07
1.23398e-07
1.23395e-07
1.23391e-07
1.23386e-07
1.23404e-07
1.234e-07
1.50777e-06
3.04458e-06
1.78651e-07
3.13066e-07
1.5082e-06
3.04407e-06
1.78655e-07
1.82733e-05
1.82755e-05
1.50782e-06
1.78671e-07
3.04469e-06
3.13146e-07
1.50825e-06
1.78676e-07
3.04424e-06
5.2143e-06
5.21619e-06
5.26307e-07
5.21411e-06
5.21601e-06
3.84414e-06
8.89272e-06
3.84429e-06
8.89296e-06
1.82725e-05
1.82746e-05
3.84429e-06
8.89482e-06
3.84439e-06
8.89507e-06
1.23387e-07
1.23405e-07
1.23401e-07
1.23396e-07
1.23391e-07
1.23409e-07
1.23404e-07
1.50777e-06
3.04457e-06
1.7866e-07
3.13073e-07
1.50819e-06
3.04407e-06
1.7866e-07
1.82734e-05
1.82756e-05
1.50782e-06
1.7868e-07
3.04468e-06
3.13153e-07
1.50825e-06
1.78683e-07
3.04423e-06
5.2143e-06
5.21618e-06
5.26333e-07
5.2141e-06
5.216e-06
3.84412e-06
8.89273e-06
3.84427e-06
8.89296e-06
1.82725e-05
1.82746e-05
3.84428e-06
8.89483e-06
3.84438e-06
8.89508e-06
1.23392e-07
1.23409e-07
1.23405e-07
1.23398e-07
1.23394e-07
1.23411e-07
1.23407e-07
1.50777e-06
3.04456e-06
1.78665e-07
3.13081e-07
1.5082e-06
3.04406e-06
1.78665e-07
1.82734e-05
1.82756e-05
1.50783e-06
1.78687e-07
3.04468e-06
3.13161e-07
1.50826e-06
1.78689e-07
3.04422e-06
5.2143e-06
5.21617e-06
5.26339e-07
5.2141e-06
5.216e-06
3.8441e-06
8.89273e-06
3.84425e-06
8.89297e-06
1.82726e-05
1.82746e-05
3.84425e-06
8.89483e-06
3.84436e-06
8.89508e-06
1.23394e-07
1.23412e-07
1.23408e-07
1.234e-07
1.23395e-07
1.23413e-07
1.23409e-07
1.50777e-06
3.04456e-06
1.78669e-07
3.13086e-07
1.50819e-06
3.04405e-06
1.78669e-07
1.82734e-05
1.82756e-05
1.50782e-06
1.78693e-07
3.04467e-06
3.13166e-07
1.50826e-06
1.78695e-07
3.04421e-06
5.21429e-06
5.21616e-06
5.26334e-07
5.21408e-06
5.21598e-06
3.84408e-06
8.89273e-06
3.84424e-06
8.89296e-06
1.82726e-05
1.82746e-05
3.84423e-06
8.89483e-06
3.84433e-06
8.89507e-06
1.23396e-07
1.23414e-07
1.2341e-07
1.23401e-07
1.23397e-07
1.23415e-07
1.23411e-07
1.50776e-06
3.04454e-06
1.78673e-07
3.13089e-07
1.50818e-06
3.04404e-06
1.78673e-07
1.82734e-05
1.82756e-05
1.50781e-06
1.78697e-07
3.04466e-06
3.13168e-07
1.50825e-06
1.78698e-07
3.0442e-06
5.21427e-06
5.21615e-06
5.26348e-07
5.21407e-06
5.21597e-06
3.84406e-06
8.89273e-06
3.84422e-06
8.89295e-06
1.82726e-05
1.82746e-05
3.84421e-06
8.89483e-06
3.84431e-06
8.89507e-06
1.23397e-07
1.23415e-07
1.23412e-07
1.23402e-07
1.23399e-07
1.23416e-07
1.23413e-07
1.50775e-06
3.04453e-06
1.78676e-07
3.1309e-07
1.50818e-06
3.04402e-06
1.78676e-07
1.82734e-05
1.82756e-05
1.50781e-06
1.787e-07
3.04466e-06
3.13169e-07
1.50825e-06
1.78701e-07
3.04419e-06
5.21426e-06
5.21614e-06
5.26355e-07
5.21406e-06
5.21596e-06
3.84403e-06
8.89269e-06
3.84419e-06
8.89287e-06
1.82729e-05
1.82749e-05
3.84418e-06
8.89487e-06
3.84428e-06
8.89508e-06
1.23399e-07
1.23416e-07
1.23413e-07
1.23403e-07
1.234e-07
1.23417e-07
1.23414e-07
1.50773e-06
3.04452e-06
1.78678e-07
3.13091e-07
1.50817e-06
3.04402e-06
1.78678e-07
1.82734e-05
1.82756e-05
1.50779e-06
1.78702e-07
3.04465e-06
3.1317e-07
1.50824e-06
1.78702e-07
3.04418e-06
5.21425e-06
5.21613e-06
5.26332e-07
5.21405e-06
5.21595e-06
3.84401e-06
8.8926e-06
3.84417e-06
8.89285e-06
1.82729e-05
1.82751e-05
3.84416e-06
8.89487e-06
3.84426e-06
8.8951e-06
1.234e-07
1.23417e-07
1.23414e-07
1.23404e-07
1.23401e-07
1.23418e-07
1.23415e-07
1.50771e-06
3.0445e-06
1.7868e-07
3.13089e-07
1.50815e-06
3.044e-06
1.7868e-07
1.82734e-05
1.82756e-05
1.50777e-06
1.78702e-07
3.04463e-06
3.1317e-07
1.50823e-06
1.78703e-07
3.04417e-06
5.21424e-06
5.21612e-06
5.26334e-07
5.21404e-06
5.21594e-06
3.84399e-06
8.89263e-06
3.84415e-06
8.89287e-06
1.8273e-05
1.82751e-05
3.84414e-06
8.89483e-06
3.84424e-06
8.89505e-06
1.23401e-07
1.23418e-07
1.23415e-07
1.23405e-07
1.23402e-07
1.23419e-07
1.23416e-07
1.50769e-06
3.04448e-06
1.78681e-07
3.13087e-07
1.50813e-06
3.04398e-06
1.78681e-07
1.82734e-05
1.82756e-05
1.50775e-06
1.78703e-07
3.04462e-06
3.1317e-07
1.50822e-06
1.78703e-07
3.04416e-06
5.21423e-06
5.2161e-06
5.26327e-07
5.21402e-06
5.21592e-06
3.84397e-06
8.89266e-06
3.84413e-06
8.89291e-06
1.8273e-05
1.8275e-05
3.84412e-06
8.89479e-06
3.84422e-06
8.89502e-06
1.23402e-07
1.23419e-07
1.23416e-07
1.23406e-07
1.23402e-07
1.2342e-07
1.23417e-07
1.50767e-06
3.04447e-06
1.78681e-07
3.13087e-07
1.50812e-06
3.04397e-06
1.78681e-07
1.82734e-05
1.82756e-05
1.50774e-06
1.78703e-07
3.04461e-06
3.1317e-07
1.50821e-06
1.78704e-07
3.04415e-06
5.21421e-06
5.21609e-06
5.26354e-07
5.21401e-06
5.21591e-06
3.84395e-06
8.89269e-06
3.84411e-06
8.89294e-06
1.8273e-05
1.8275e-05
3.84409e-06
8.89476e-06
3.8442e-06
8.89499e-06
1.23401e-07
1.23419e-07
1.23417e-07
1.23405e-07
1.23402e-07
1.2342e-07
1.23417e-07
1.50766e-06
3.04446e-06
1.78682e-07
3.13084e-07
1.50811e-06
3.04395e-06
1.78681e-07
1.82734e-05
1.82756e-05
1.50773e-06
1.78704e-07
3.04459e-06
3.13169e-07
1.50819e-06
1.78702e-07
3.04413e-06
5.2142e-06
5.21608e-06
5.26269e-07
5.214e-06
5.2159e-06
3.84398e-06
8.89272e-06
3.84411e-06
8.89297e-06
1.82729e-05
1.8275e-05
3.84412e-06
8.89475e-06
3.84419e-06
8.89498e-06
1.23401e-07
1.23419e-07
1.23417e-07
1.23405e-07
1.23401e-07
1.23419e-07
1.23417e-07
1.50766e-06
3.04446e-06
1.78681e-07
3.13084e-07
1.50808e-06
3.04394e-06
1.7868e-07
1.82734e-05
1.82756e-05
1.50771e-06
1.78701e-07
3.04459e-06
3.13168e-07
1.50817e-06
1.787e-07
3.04412e-06
5.21419e-06
5.21607e-06
5.26256e-07
5.21399e-06
5.21589e-06
3.84403e-06
8.89275e-06
3.84416e-06
8.89301e-06
1.82729e-05
1.8275e-05
3.84417e-06
8.89475e-06
3.84424e-06
8.895e-06
1.23401e-07
1.23419e-07
1.23416e-07
1.23406e-07
1.23401e-07
1.23419e-07
1.23416e-07
1.50767e-06
3.04446e-06
1.7868e-07
3.13083e-07
1.50808e-06
3.04396e-06
1.78679e-07
1.82734e-05
1.82756e-05
1.50773e-06
1.78699e-07
3.04459e-06
3.13168e-07
1.50817e-06
1.78698e-07
3.04413e-06
5.2142e-06
5.21608e-06
5.26427e-07
5.21401e-06
5.21591e-06
8.89279e-06
3.84418e-06
1.82729e-05
8.89478e-06
3.84428e-06
1.23401e-07
1.23419e-07
1.23416e-07
3.04447e-06
1.78682e-07
1.50814e-06
1.82734e-05
1.787e-07
3.04461e-06
1.50823e-06
5.21423e-06
5.21611e-06
1.84718e-05
1.84736e-05
5.1248e-06
5.12699e-06
8.90711e-06
3.63683e-06
8.90808e-06
3.63695e-06
2.78305e-06
1.58491e-07
1.11601e-06
2.78356e-06
1.585e-07
1.11604e-06
1.84726e-05
5.12685e-06
5.12479e-06
1.84713e-05
8.90887e-06
3.63739e-06
2.7836e-06
1.58495e-07
1.11612e-06
8.90853e-06
3.63732e-06
1.58503e-07
2.78368e-06
1.11611e-06
2.78295e-06
1.58487e-07
1.11604e-06
8.90818e-06
3.63698e-06
1.58489e-07
2.78315e-06
1.11602e-06
8.90785e-06
3.63688e-06
1.84746e-05
5.12678e-06
5.12513e-06
1.84724e-05
1.58491e-07
2.78315e-06
1.11608e-06
1.58491e-07
2.78366e-06
1.11611e-06
8.90794e-06
3.63736e-06
8.90901e-06
3.63745e-06
5.12512e-06
5.12717e-06
1.84725e-05
1.8474e-05
1.84653e-05
1.84571e-05
1.84672e-05
1.84591e-05
5.13156e-06
5.13332e-06
3.6526e-07
5.14352e-06
5.14561e-06
1.84424e-05
1.84506e-05
1.84445e-05
1.84527e-05
3.71044e-07
5.16036e-06
5.16245e-06
5.1496e-06
5.15144e-06
3.6821e-06
8.90894e-06
3.64875e-06
8.91404e-06
1.15849e-06
2.79629e-06
1.58609e-07
2.33432e-07
1.13066e-06
2.81992e-06
1.58832e-07
1.15853e-06
2.79668e-06
1.58617e-07
2.3347e-07
1.13069e-06
2.82045e-06
1.58841e-07
3.69298e-06
8.91823e-06
8.91386e-06
3.72288e-06
3.69303e-06
8.91919e-06
8.91478e-06
3.723e-06
1.17309e-06
2.36047e-07
2.85446e-06
1.59531e-07
2.83245e-06
1.59142e-07
1.20074e-06
1.17313e-06
2.36087e-07
2.85501e-06
1.59541e-07
2.83285e-06
1.59151e-07
1.20078e-06
5.13315e-06
5.13152e-06
3.65218e-07
5.14543e-06
5.1435e-06
1.84648e-05
1.84566e-05
1.84434e-05
1.84516e-05
3.71004e-07
5.16226e-06
5.16035e-06
5.15125e-06
5.14957e-06
1.8442e-05
1.84502e-05
1.15861e-06
2.79674e-06
1.58608e-07
2.33405e-07
1.13077e-06
2.8205e-06
1.58838e-07
3.68247e-06
8.90942e-06
3.64849e-06
8.9145e-06
1.1586e-06
1.5862e-07
2.79693e-06
2.33497e-07
1.13075e-06
1.58844e-07
2.82056e-06
3.69282e-06
8.92e-06
8.91558e-06
3.72342e-06
1.17321e-06
2.3602e-07
2.85506e-06
1.59538e-07
2.83292e-06
1.59141e-07
1.20086e-06
3.69277e-06
8.91965e-06
8.91528e-06
3.72335e-06
1.17319e-06
2.36114e-07
1.59544e-07
2.8551e-06
1.59154e-07
2.83308e-06
1.20085e-06
3.68214e-06
8.90907e-06
3.6488e-06
8.91415e-06
1.15851e-06
1.58606e-07
2.7963e-06
2.33431e-07
1.13066e-06
1.58828e-07
2.82003e-06
3.68203e-06
8.90871e-06
3.64875e-06
8.91382e-06
1.17312e-06
2.35964e-07
2.85439e-06
1.59525e-07
2.83234e-06
1.59136e-07
1.20077e-06
3.69309e-06
8.91929e-06
8.91492e-06
3.72303e-06
1.1731e-06
2.36046e-07
1.59527e-07
2.8546e-06
1.59138e-07
2.83246e-06
1.20076e-06
3.69303e-06
8.91899e-06
8.91457e-06
3.72293e-06
5.13352e-06
5.13147e-06
3.65295e-07
5.14549e-06
5.14374e-06
1.8466e-05
1.84578e-05
1.84452e-05
1.84535e-05
3.71075e-07
5.16233e-06
5.16059e-06
5.15157e-06
5.14959e-06
1.84431e-05
1.84514e-05
1.1586e-06
1.58607e-07
2.79682e-06
2.33396e-07
1.13076e-06
1.58831e-07
2.82055e-06
3.68251e-06
8.90881e-06
3.6484e-06
8.91392e-06
3.68259e-06
8.90987e-06
3.64848e-06
8.91499e-06
1.17316e-06
2.36003e-07
1.59533e-07
2.85461e-06
1.59136e-07
2.83245e-06
1.20081e-06
1.1732e-06
2.3601e-07
1.5953e-07
2.85511e-06
1.59141e-07
2.83298e-06
1.20085e-06
3.69269e-06
8.91909e-06
8.91467e-06
3.7234e-06
3.69277e-06
8.92014e-06
8.91573e-06
3.72349e-06
1.84661e-05
1.84579e-05
1.84676e-05
1.84594e-05
3.71068e-07
5.16061e-06
5.16257e-06
5.14963e-06
5.15153e-06
1.84432e-05
1.84515e-05
1.84448e-05
1.8453e-05
1.84361e-05
1.84286e-05
1.84382e-05
1.84307e-05
5.16599e-06
5.16786e-06
3.92152e-07
5.17587e-06
5.17796e-06
1.84156e-05
1.84227e-05
1.84178e-05
1.84249e-05
3.9852e-07
5.18991e-06
5.19195e-06
5.18106e-06
5.18291e-06
3.75792e-06
8.91987e-06
3.73268e-06
8.92448e-06
1.24225e-06
2.86616e-06
1.59992e-07
2.44581e-07
1.21519e-06
2.88682e-06
1.60525e-07
1.24229e-06
2.86659e-06
1.60002e-07
2.44628e-07
1.21522e-06
2.88738e-06
1.60536e-07
3.76624e-06
8.92899e-06
8.92426e-06
3.78822e-06
3.7663e-06
8.92998e-06
8.92527e-06
3.78835e-06
1.25633e-06
2.47672e-07
2.91742e-06
1.61836e-07
2.89792e-06
1.61137e-07
1.28261e-06
1.25637e-06
2.47721e-07
2.91798e-06
1.61848e-07
2.89836e-06
1.61148e-07
1.28265e-06
5.16769e-06
5.16596e-06
3.92108e-07
5.17778e-06
5.17587e-06
1.84357e-05
1.84282e-05
1.84167e-05
1.84238e-05
3.98477e-07
5.19173e-06
5.18985e-06
5.18273e-06
5.18103e-06
1.84152e-05
1.84224e-05
1.24238e-06
2.86666e-06
1.59991e-07
2.44553e-07
1.21531e-06
2.88743e-06
1.60532e-07
3.75826e-06
8.92034e-06
3.73242e-06
8.92486e-06
1.24236e-06
1.60004e-07
2.8668e-06
2.44656e-07
1.21529e-06
1.60538e-07
2.88746e-06
3.7661e-06
8.93081e-06
8.92609e-06
3.78874e-06
1.25647e-06
2.47644e-07
2.91804e-06
1.61842e-07
2.89844e-06
1.61135e-07
1.28274e-06
3.76604e-06
8.93041e-06
8.92568e-06
3.78867e-06
1.25644e-06
2.4775e-07
1.61849e-07
2.91806e-06
1.6115e-07
2.89855e-06
1.28272e-06
3.75795e-06
8.92e-06
3.73274e-06
8.9246e-06
1.24228e-06
1.59988e-07
2.86621e-06
2.44583e-07
1.21519e-06
1.60521e-07
2.88697e-06
3.75785e-06
8.91966e-06
3.73269e-06
8.92429e-06
1.25637e-06
2.47585e-07
2.91737e-06
1.61828e-07
2.89785e-06
1.6113e-07
1.28265e-06
3.76636e-06
8.93009e-06
8.92542e-06
3.78838e-06
1.25635e-06
2.47675e-07
1.61831e-07
2.91757e-06
1.61132e-07
2.89798e-06
1.28264e-06
3.76629e-06
8.9298e-06
8.92508e-06
3.78827e-06
5.16795e-06
5.16603e-06
3.92192e-07
5.17783e-06
5.17612e-06
1.84369e-05
1.84294e-05
1.84185e-05
1.84256e-05
3.98555e-07
5.19185e-06
5.19009e-06
5.183e-06
5.18108e-06
1.84164e-05
1.84236e-05
1.24236e-06
1.59991e-07
2.86673e-06
2.44546e-07
1.2153e-06
1.60524e-07
2.88749e-06
3.75831e-06
8.91976e-06
3.73235e-06
8.92439e-06
3.75841e-06
8.92081e-06
3.73243e-06
8.92544e-06
1.25641e-06
2.47626e-07
1.61837e-07
2.91759e-06
1.6113e-07
2.89796e-06
1.28268e-06
1.25645e-06
2.47635e-07
1.61835e-07
2.91808e-06
1.61136e-07
2.8985e-06
1.28272e-06
3.76598e-06
8.9299e-06
8.92518e-06
3.78872e-06
3.76605e-06
8.93094e-06
8.92623e-06
3.78881e-06
1.8437e-05
1.84294e-05
1.84385e-05
1.8431e-05
3.9855e-07
5.1901e-06
5.19205e-06
5.18111e-06
5.18305e-06
1.84165e-05
1.84236e-05
1.8418e-05
1.84252e-05
1.84096e-05
1.84017e-05
1.84118e-05
1.8404e-05
5.19449e-06
5.19631e-06
4.21537e-07
5.20156e-06
5.20371e-06
1.83898e-05
1.83957e-05
1.83919e-05
1.8398e-05
4.28408e-07
5.21154e-06
5.21373e-06
5.20524e-06
5.20723e-06
3.81655e-06
8.93049e-06
3.79621e-06
8.93282e-06
1.32194e-06
2.92785e-06
1.62628e-07
2.57755e-07
1.29633e-06
2.94551e-06
1.63507e-07
1.32198e-06
2.92829e-06
1.6264e-07
2.57809e-07
1.29637e-06
2.9461e-06
1.63519e-07
3.82371e-06
8.93334e-06
8.93185e-06
3.84045e-06
3.82377e-06
8.93435e-06
8.93285e-06
3.84057e-06
1.33532e-06
2.61324e-07
2.97039e-06
1.65497e-07
2.95481e-06
1.64472e-07
1.35999e-06
1.33536e-06
2.6138e-07
2.97098e-06
1.6551e-07
2.95529e-06
1.64485e-07
1.36003e-06
5.1961e-06
5.19441e-06
4.2149e-07
5.20354e-06
5.20158e-06
1.84092e-05
1.84014e-05
1.83908e-05
1.83971e-05
4.28362e-07
5.21361e-06
5.21156e-06
5.20711e-06
5.20529e-06
1.83895e-05
1.83954e-05
1.32207e-06
2.92837e-06
1.62626e-07
2.57725e-07
1.29646e-06
2.94615e-06
1.63512e-07
3.81687e-06
8.93095e-06
3.79596e-06
8.93323e-06
1.32205e-06
1.62641e-07
2.9285e-06
2.5784e-07
1.29643e-06
1.6352e-07
2.94616e-06
3.82362e-06
8.93518e-06
8.93367e-06
3.84093e-06
1.33546e-06
2.61293e-07
2.97102e-06
1.65503e-07
2.95536e-06
1.64469e-07
1.36014e-06
3.82355e-06
8.93476e-06
8.93327e-06
3.84086e-06
1.33543e-06
2.61411e-07
1.65511e-07
2.97098e-06
1.64485e-07
2.95543e-06
1.36011e-06
3.81659e-06
8.93062e-06
3.79627e-06
8.9329e-06
1.32196e-06
1.62623e-07
2.92791e-06
2.5776e-07
1.29634e-06
1.63501e-07
2.94569e-06
3.81648e-06
8.9303e-06
3.79621e-06
8.93264e-06
1.33536e-06
2.61229e-07
2.97036e-06
1.65488e-07
2.95477e-06
1.64463e-07
1.36004e-06
3.82384e-06
8.93448e-06
8.93296e-06
3.84062e-06
1.33534e-06
2.61329e-07
1.65491e-07
2.97057e-06
1.64466e-07
2.95491e-06
1.36003e-06
3.82377e-06
8.93417e-06
8.93267e-06
3.84051e-06
5.19642e-06
5.19446e-06
4.21582e-07
5.20351e-06
5.20189e-06
1.84105e-05
1.84027e-05
1.83927e-05
1.83986e-05
4.28447e-07
5.21341e-06
5.21194e-06
5.20717e-06
5.20545e-06
1.83905e-05
1.83968e-05
1.32205e-06
1.62627e-07
2.92842e-06
2.57722e-07
1.29644e-06
1.63506e-07
2.94621e-06
3.81692e-06
8.93041e-06
3.7959e-06
8.93276e-06
3.81701e-06
8.93144e-06
3.79597e-06
8.93379e-06
1.33539e-06
2.61275e-07
1.65497e-07
2.97059e-06
1.64464e-07
2.9549e-06
1.36007e-06
1.33544e-06
2.61292e-07
1.65496e-07
2.9711e-06
1.64471e-07
2.95544e-06
1.36011e-06
3.82349e-06
8.93429e-06
8.93279e-06
3.8409e-06
3.82357e-06
8.93532e-06
8.93382e-06
3.84098e-06
1.84105e-05
1.84028e-05
1.84121e-05
1.84044e-05
4.28444e-07
5.21192e-06
5.21394e-06
5.20545e-06
5.20743e-06
1.83906e-05
1.83968e-05
1.83922e-05
1.83984e-05
1.83853e-05
1.83817e-05
1.83874e-05
1.83837e-05
5.21549e-06
5.21729e-06
4.52161e-07
5.22304e-06
5.22477e-06
1.83722e-05
1.83773e-05
1.83745e-05
1.83795e-05
4.59199e-07
5.23156e-06
5.2337e-06
5.22696e-06
5.22859e-06
3.85768e-06
8.93462e-06
3.84633e-06
8.93798e-06
1.39558e-06
2.97888e-06
1.66579e-07
2.72401e-07
1.37275e-06
2.99341e-06
1.67705e-07
1.39562e-06
2.9793e-06
1.66593e-07
2.72461e-07
1.37279e-06
2.99388e-06
1.6772e-07
3.8616e-06
8.94122e-06
8.93763e-06
3.86791e-06
3.86167e-06
8.94226e-06
8.9386e-06
3.86801e-06
1.40723e-06
2.7619e-07
3.01401e-06
1.70067e-07
3.00131e-06
1.68869e-07
1.42749e-06
1.40727e-06
2.76252e-07
3.01461e-06
1.70083e-07
3.0017e-06
1.68884e-07
1.42754e-06
5.21715e-06
5.21542e-06
4.52111e-07