/*--------------------------------*- C++ -*----------------------------------*\
| =========                 |                                                 |
| \\      /  F ield         | OpenFOAM: The Open Source CFD Toolbox           |
|  \\    /   O peration     | Version:  v1906                                 |
|   \\  /    A nd           | Web:      www.OpenFOAM.com                      |
|    \\/     M anipulation  |                                                 |
\*---------------------------------------------------------------------------*/
FoamFile
{
    version     2.0;
    format      ascii;
    class       volScalarField;
    location    "125";
    object      k;
}
// * * * * * * * * * * * * * * * * * * * * * * * * * * * * * * * * * * * * * //

dimensions      [0 2 -2 0 0 0 0];


internalField   nonuniform List<scalar> 
43024
(
1.30794e-05
1.82592e-05
1.82611e-05
2.30848e-05
1.30795e-05
1.82603e-05
1.82621e-05
2.30808e-05
1.30796e-05
1.82609e-05
1.82627e-05
2.30741e-05
1.3079e-05
1.82608e-05
1.82626e-05
2.30732e-05
1.30782e-05
1.82602e-05
1.8262e-05
2.30784e-05
1.30781e-05
1.826e-05
1.82618e-05
2.30852e-05
1.30781e-05
1.82603e-05
1.82621e-05
2.30863e-05
1.30783e-05
1.82608e-05
1.82625e-05
2.30847e-05
1.30785e-05
1.82612e-05
1.8263e-05
2.30819e-05
1.30786e-05
1.82615e-05
1.82632e-05
2.30771e-05
1.30787e-05
1.82617e-05
1.82634e-05
2.30768e-05
1.30788e-05
1.82619e-05
1.82636e-05
2.3078e-05
1.30789e-05
1.82621e-05
1.82638e-05
2.3078e-05
1.30789e-05
1.82624e-05
1.82641e-05
2.30777e-05
1.3079e-05
1.82627e-05
1.82644e-05
2.3081e-05
1.30791e-05
1.82632e-05
1.82648e-05
2.30868e-05
1.30793e-05
1.82637e-05
1.82654e-05
2.30837e-05
1.30795e-05
1.82645e-05
1.82661e-05
2.30803e-05
1.30795e-05
1.82652e-05
1.82669e-05
2.30814e-05
1.3076e-05
1.82624e-05
1.82639e-05
2.30799e-05
1.29574e-05
1.76051e-05
1.76054e-05
2.23368e-05
2.30364e-05
1.82613e-05
1.82615e-05
2.30363e-05
1.82606e-05
1.82617e-05
1.82589e-05
1.82622e-05
2.30352e-05
1.82607e-05
1.82614e-05
2.30453e-05
2.3078e-05
2.30351e-05
1.82617e-05
1.82618e-05
1.82623e-05
1.82625e-05
2.3071e-05
2.30346e-05
1.8261e-05
1.8262e-05
1.82617e-05
1.82627e-05
1.82625e-05
1.82599e-05
1.82632e-05
2.30728e-05
2.30366e-05
1.82617e-05
1.82617e-05
1.82624e-05
2.30391e-05
2.30734e-05
2.30389e-05
1.82629e-05
1.82628e-05
1.82633e-05
1.82634e-05
2.30691e-05
2.30405e-05
1.82622e-05
1.82631e-05
1.82626e-05
1.82637e-05
1.82636e-05
1.82608e-05
1.8264e-05
2.30707e-05
2.30446e-05
1.82629e-05
1.82626e-05
1.82632e-05
2.30374e-05
2.30717e-05
2.30467e-05
1.82633e-05
1.82634e-05
1.82633e-05
1.82635e-05
2.30722e-05
2.30486e-05
1.82626e-05
1.82636e-05
1.82626e-05
1.82638e-05
1.82642e-05
1.8261e-05
1.8264e-05
2.30758e-05
2.30509e-05
1.82634e-05
1.82628e-05
1.82632e-05
2.30406e-05
2.30774e-05
2.30501e-05
1.82631e-05
1.82632e-05
1.82627e-05
1.82627e-05
2.30811e-05
2.30456e-05
1.82624e-05
1.82635e-05
1.8262e-05
1.8263e-05
1.82639e-05
1.82603e-05
1.82633e-05
2.30851e-05
2.30453e-05
1.82631e-05
1.82621e-05
1.82625e-05
2.30474e-05
2.30845e-05
2.30464e-05
1.82624e-05
1.82625e-05
1.82623e-05
1.82623e-05
2.30829e-05
2.30399e-05
1.82617e-05
1.82629e-05
1.82616e-05
1.82626e-05
1.82632e-05
1.82599e-05
1.82632e-05
2.30839e-05
2.30391e-05
1.82624e-05
1.82616e-05
1.82624e-05
2.30507e-05
2.30845e-05
2.30413e-05
1.82623e-05
1.82623e-05
1.82624e-05
1.82624e-05
2.30803e-05
2.30358e-05
1.82617e-05
1.82627e-05
1.82618e-05
1.82627e-05
1.82632e-05
1.826e-05
1.82635e-05
2.30802e-05
2.30368e-05
1.82623e-05
1.82618e-05
1.82627e-05
2.30486e-05
2.30822e-05
2.30377e-05
1.82627e-05
1.82627e-05
1.82628e-05
1.8263e-05
2.30767e-05
2.30355e-05
1.8262e-05
1.82629e-05
1.82621e-05
1.82632e-05
1.82636e-05
1.82605e-05
1.82638e-05
2.3076e-05
2.30381e-05
1.82628e-05
1.82622e-05
1.82629e-05
2.30445e-05
2.30776e-05
2.30384e-05
1.8263e-05
1.82633e-05
1.82632e-05
1.82636e-05
2.30721e-05
2.30389e-05
1.82624e-05
1.82635e-05
1.82625e-05
1.82638e-05
1.8264e-05
1.8261e-05
1.82642e-05
2.30732e-05
2.30416e-05
1.82631e-05
1.82627e-05
1.82634e-05
2.3041e-05
2.30739e-05
2.30424e-05
1.82636e-05
1.82638e-05
1.82637e-05
1.82639e-05
2.30721e-05
2.30447e-05
1.82629e-05
1.82639e-05
1.8263e-05
1.82641e-05
1.82646e-05
1.82613e-05
1.82646e-05
2.30744e-05
2.30467e-05
1.82638e-05
1.8263e-05
1.82638e-05
2.30407e-05
2.30751e-05
2.30478e-05
1.82638e-05
1.8264e-05
1.82638e-05
1.82641e-05
2.30762e-05
2.30489e-05
1.82631e-05
1.82642e-05
1.82631e-05
1.82643e-05
1.82647e-05
1.82614e-05
1.82647e-05
2.3078e-05
2.30509e-05
1.82639e-05
1.82632e-05
1.82639e-05
2.30429e-05
2.30791e-05
2.30512e-05
1.8264e-05
1.82642e-05
1.8264e-05
1.82642e-05
2.30807e-05
2.30499e-05
1.82633e-05
1.82644e-05
1.82633e-05
1.82644e-05
1.82649e-05
1.82616e-05
1.82648e-05
2.30823e-05
2.30521e-05
1.82641e-05
1.82633e-05
1.8264e-05
2.3045e-05
2.30828e-05
2.30523e-05
1.82642e-05
1.82644e-05
1.8264e-05
1.82642e-05
2.30825e-05
2.30509e-05
1.82635e-05
1.82646e-05
1.82633e-05
1.82644e-05
1.82651e-05
1.82616e-05
1.82648e-05
2.30845e-05
2.30528e-05
1.82643e-05
1.82633e-05
1.8264e-05
2.30451e-05
2.30855e-05
2.3052e-05
1.82644e-05
1.82646e-05
1.8264e-05
1.82643e-05
2.30852e-05
2.30493e-05
1.82637e-05
1.82648e-05
1.82633e-05
1.82644e-05
1.82652e-05
1.82617e-05
1.82648e-05
2.30869e-05
2.30513e-05
1.82644e-05
1.82634e-05
1.8264e-05
2.30452e-05
2.30862e-05
2.30522e-05
1.82646e-05
1.82649e-05
1.82641e-05
1.82643e-05
2.30861e-05
2.30466e-05
1.82639e-05
1.8265e-05
1.82633e-05
1.82645e-05
1.82654e-05
1.82618e-05
1.82649e-05
2.30874e-05
2.30504e-05
1.82646e-05
1.82634e-05
1.82641e-05
2.30496e-05
2.30868e-05
2.30525e-05
1.82649e-05
1.82652e-05
1.82642e-05
1.82645e-05
2.30848e-05
2.30473e-05
1.82642e-05
1.82654e-05
1.82635e-05
1.82647e-05
1.82657e-05
1.82619e-05
1.8265e-05
2.30868e-05
2.30524e-05
1.82649e-05
1.82635e-05
1.82642e-05
2.30534e-05
2.30884e-05
2.30501e-05
1.82653e-05
1.82656e-05
1.82643e-05
1.82646e-05
2.30855e-05
2.30477e-05
1.82646e-05
1.82658e-05
1.82636e-05
1.82648e-05
1.82662e-05
1.8262e-05
1.82651e-05
2.30878e-05
2.30529e-05
1.82654e-05
1.82637e-05
1.82643e-05
2.30498e-05
2.30881e-05
2.30467e-05
1.82659e-05
1.82662e-05
1.82645e-05
1.82647e-05
2.30861e-05
2.30457e-05
1.82652e-05
1.82664e-05
1.82638e-05
1.8265e-05
1.82667e-05
1.82622e-05
1.82653e-05
2.30889e-05
2.30513e-05
1.82659e-05
1.82639e-05
1.82645e-05
2.30493e-05
2.30858e-05
2.30489e-05
1.82667e-05
1.82669e-05
1.82647e-05
1.82649e-05
2.3085e-05
2.30463e-05
1.8266e-05
1.82672e-05
1.82641e-05
1.82652e-05
1.82674e-05
1.82623e-05
1.82655e-05
2.30891e-05
2.30481e-05
1.82666e-05
1.8264e-05
1.82647e-05
2.30519e-05
2.30859e-05
2.30532e-05
1.82675e-05
1.82676e-05
1.82595e-05
1.82596e-05
2.30844e-05
2.30492e-05
1.82668e-05
1.82679e-05
1.82588e-05
1.82598e-05
1.82682e-05
1.82572e-05
1.82603e-05
2.30869e-05
2.30469e-05
1.82674e-05
1.82587e-05
1.82593e-05
2.30523e-05
2.30851e-05
2.27319e-05
1.82647e-05
1.82648e-05
1.7964e-05
1.79642e-05
2.3084e-05
2.27306e-05
1.8264e-05
1.82651e-05
1.79643e-05
1.79635e-05
1.82655e-05
1.79633e-05
1.79644e-05
2.30828e-05
2.27303e-05
1.82645e-05
1.79637e-05
1.79644e-05
2.27284e-05
2.23388e-05
1.76053e-05
1.76054e-05
2.23383e-05
1.76058e-05
1.76047e-05
1.29573e-05
1.29572e-05
1.29576e-05
1.76057e-05
2.23382e-05
1.7606e-05
5.77312e-05
6.99546e-05
6.91456e-05
5.77356e-05
6.99594e-05
1.30794e-05
1.3079e-05
1.30795e-05
1.30797e-05
3.77732e-05
1.82585e-05
5.06242e-05
1.46485e-05
6.91439e-05
3.77725e-05
1.82604e-05
1.46493e-05
5.06277e-05
2.30359e-05
6.15992e-05
6.1611e-05
5.77315e-05
6.99531e-05
5.77279e-05
6.99543e-05
6.914e-05
6.9145e-05
5.77368e-05
6.9958e-05
5.77328e-05
6.99591e-05
1.3079e-05
1.30795e-05
1.30797e-05
1.30794e-05
1.3079e-05
1.30795e-05
1.30797e-05
3.77729e-05
5.06266e-05
1.46488e-05
1.82595e-05
3.77775e-05
5.06259e-05
1.46489e-05
6.91379e-05
6.91433e-05
3.77721e-05
1.46495e-05
5.06288e-05
1.82614e-05
3.77771e-05
1.46496e-05
5.06298e-05
6.1598e-05
6.16096e-05
2.30438e-05
6.15994e-05
6.16112e-05
5.77326e-05
6.99528e-05
5.77289e-05
6.9954e-05
6.91395e-05
6.91445e-05
5.77379e-05
6.99577e-05
5.7734e-05
6.99588e-05
1.30791e-05
1.30796e-05
1.30798e-05
1.30796e-05
1.30791e-05
1.30796e-05
1.30799e-05
3.77744e-05
5.06287e-05
1.46493e-05
1.82606e-05
3.77795e-05
5.06272e-05
1.46495e-05
6.91374e-05
6.91429e-05
3.77735e-05
1.465e-05
5.06305e-05
1.82625e-05
3.77791e-05
1.46502e-05
5.0631e-05
6.15983e-05
6.16099e-05
2.30514e-05
6.15997e-05
6.16114e-05
5.77329e-05
6.99526e-05
5.77297e-05
6.99538e-05
6.91391e-05
6.91443e-05
5.77381e-05
6.99576e-05
5.77347e-05
6.99588e-05
1.30791e-05
1.30796e-05
1.30799e-05
1.30793e-05
1.3079e-05
1.30794e-05
1.30796e-05
3.7774e-05
5.06292e-05
1.46499e-05
1.82609e-05
3.77808e-05
5.06271e-05
1.46499e-05
6.91373e-05
6.91428e-05
3.77727e-05
1.46506e-05
5.06312e-05
1.82627e-05
3.778e-05
1.46505e-05
5.06311e-05
6.15985e-05
6.16101e-05
2.3051e-05
6.15999e-05
6.16116e-05
5.77327e-05
6.99527e-05
5.77294e-05
6.9954e-05
6.9139e-05
6.91441e-05
5.77376e-05
6.99578e-05
5.77342e-05
6.9959e-05
1.30787e-05
1.30791e-05
1.30793e-05
1.30783e-05
1.3078e-05
1.30784e-05
1.30787e-05
3.77679e-05
5.06309e-05
1.46493e-05
1.82605e-05
3.77747e-05
5.0631e-05
1.4649e-05
6.91373e-05
6.91428e-05
3.77669e-05
1.465e-05
5.06311e-05
1.82622e-05
3.77739e-05
1.46496e-05
5.06323e-05
6.15991e-05
6.16106e-05
2.30441e-05
6.16007e-05
6.16124e-05
5.77339e-05
6.99528e-05
5.77303e-05
6.9954e-05
6.91389e-05
6.91442e-05
5.77384e-05
6.99577e-05
5.77346e-05
6.99589e-05
1.30779e-05
1.30783e-05
1.30786e-05
1.3078e-05
1.30777e-05
1.30782e-05
1.30785e-05
3.7772e-05
5.06296e-05
1.46486e-05
1.82599e-05
3.77749e-05
5.06283e-05
1.46485e-05
6.91372e-05
6.91427e-05
3.77705e-05
1.46492e-05
5.06334e-05
1.82617e-05
3.77737e-05
1.46491e-05
5.06321e-05
6.15997e-05
6.16113e-05
2.30373e-05
6.16011e-05
6.16129e-05
5.77345e-05
6.99528e-05
5.7731e-05
6.9954e-05
6.91392e-05
6.91445e-05
5.77388e-05
6.99577e-05
5.77351e-05
6.99589e-05
1.30777e-05
1.30782e-05
1.30785e-05
1.30781e-05
1.30778e-05
1.30782e-05
1.30785e-05
3.777e-05
5.06308e-05
1.46484e-05
1.82599e-05
3.77734e-05
5.06301e-05
1.46483e-05
6.91373e-05
6.91429e-05
3.77682e-05
1.4649e-05
5.06328e-05
1.82617e-05
3.77727e-05
1.46489e-05
5.06335e-05
6.16004e-05
6.1612e-05
2.30385e-05
6.16018e-05
6.16136e-05
5.77356e-05
6.99528e-05
5.77319e-05
6.99542e-05
6.91395e-05
6.91448e-05
5.77396e-05
6.99577e-05
5.77358e-05
6.9959e-05
1.30778e-05
1.30783e-05
1.30785e-05
1.30782e-05
1.30779e-05
1.30784e-05
1.30786e-05
3.77681e-05
5.06294e-05
1.46484e-05
1.82603e-05
3.77742e-05
5.06289e-05
1.46483e-05
6.91374e-05
6.91431e-05
3.77663e-05
1.4649e-05
5.06323e-05
1.82621e-05
3.77731e-05
1.46489e-05
5.06333e-05
6.16009e-05
6.16125e-05
2.30433e-05
6.16025e-05
6.16141e-05
5.77364e-05
6.9953e-05
5.77331e-05
6.99544e-05
6.91397e-05
6.9145e-05
5.77406e-05
6.99579e-05
5.7737e-05
6.99592e-05
1.3078e-05
1.30784e-05
1.30787e-05
1.30784e-05
1.30781e-05
1.30785e-05
1.30788e-05
3.77729e-05
5.06312e-05
1.46486e-05
1.82608e-05
3.77781e-05
5.06288e-05
1.46486e-05
6.91377e-05
6.91433e-05
3.77702e-05
1.46492e-05
5.06333e-05
1.82625e-05
3.77766e-05
1.46491e-05
5.0633e-05
6.16015e-05
6.1613e-05
2.30485e-05
6.1603e-05
6.16147e-05
5.77373e-05
6.99533e-05
5.77339e-05
6.99547e-05
6.91399e-05
6.91453e-05
5.77415e-05
6.99582e-05
5.77376e-05
6.99597e-05
1.30782e-05
1.30786e-05
1.30789e-05
1.30786e-05
1.30783e-05
1.30787e-05
1.3079e-05
3.77727e-05
5.06321e-05
1.46488e-05
1.82612e-05
3.77745e-05
5.06312e-05
1.46487e-05
6.91379e-05
6.91436e-05
3.77708e-05
1.46493e-05
5.06342e-05
1.82629e-05
3.77735e-05
1.46493e-05
5.06344e-05
6.16023e-05
6.16139e-05
2.30529e-05
6.16037e-05
6.16154e-05
5.77379e-05
6.99536e-05
5.77344e-05
6.9955e-05
6.91401e-05
6.91456e-05
5.77419e-05
6.99586e-05
5.77383e-05
6.99601e-05
1.30783e-05
1.30787e-05
1.3079e-05
1.30787e-05
1.30784e-05
1.30788e-05
1.30791e-05
3.7771e-05
5.06311e-05
1.4649e-05
1.82613e-05
3.7778e-05
5.06311e-05
1.46489e-05
6.9138e-05
6.91439e-05
3.77693e-05
1.46495e-05
5.06345e-05
1.8263e-05
3.77756e-05
1.46494e-05
5.06339e-05
6.16029e-05
6.16145e-05
2.30523e-05
6.16041e-05
6.16158e-05
5.77382e-05
6.99539e-05
5.7735e-05
6.99554e-05
6.91402e-05
6.9146e-05
5.77423e-05
6.9959e-05
5.77389e-05
6.99606e-05
1.30784e-05
1.30789e-05
1.30791e-05
1.30788e-05
1.30785e-05
1.30789e-05
1.30792e-05
3.77731e-05
5.06326e-05
1.46492e-05
1.82614e-05
3.77802e-05
5.06306e-05
1.4649e-05
6.91382e-05
6.91443e-05
3.77705e-05
1.46496e-05
5.06354e-05
1.82631e-05
3.7777e-05
1.46495e-05
5.06344e-05
6.16037e-05
6.16153e-05
2.30505e-05
6.16046e-05
6.16163e-05
5.77384e-05
6.99541e-05
5.77353e-05
6.99559e-05
6.91403e-05
6.91466e-05
5.77425e-05
6.99594e-05
5.77392e-05
6.99611e-05
1.30785e-05
1.30789e-05
1.30792e-05
1.30789e-05
1.30786e-05
1.3079e-05
1.30793e-05
3.77743e-05
5.06331e-05
1.46493e-05
1.82615e-05
3.77797e-05
5.06313e-05
1.46492e-05
6.91383e-05
6.91449e-05
3.77712e-05
1.46498e-05
5.06353e-05
1.82632e-05
3.77768e-05
1.46496e-05
5.06342e-05
6.16047e-05
6.16163e-05
2.30496e-05
6.1605e-05
6.16167e-05
5.77385e-05
6.99545e-05
5.77356e-05
6.99566e-05
6.91404e-05
6.91475e-05
5.77426e-05
6.99597e-05
5.77395e-05
6.99619e-05
1.30786e-05
1.3079e-05
1.30793e-05
1.30789e-05
1.30787e-05
1.30791e-05
1.30793e-05
3.77748e-05
5.0633e-05
1.46495e-05
1.82615e-05
3.77794e-05
5.06315e-05
1.46493e-05
6.91384e-05
6.91458e-05
3.77717e-05
1.465e-05
5.0636e-05
1.82632e-05
3.77768e-05
1.46498e-05
5.0634e-05
6.16064e-05
6.16179e-05
2.305e-05
6.16061e-05
6.16178e-05
5.77387e-05
6.99549e-05
5.7736e-05
6.99578e-05
6.91404e-05
6.9149e-05
5.77427e-05
6.99602e-05
5.77398e-05
6.99631e-05
1.30787e-05
1.30791e-05
1.30793e-05
1.3079e-05
1.30788e-05
1.30792e-05
1.30794e-05
3.77749e-05
5.06336e-05
1.46497e-05
1.82616e-05
3.77792e-05
5.06308e-05
1.46494e-05
6.91384e-05
6.91474e-05
3.7772e-05
1.46502e-05
5.06364e-05
1.82633e-05
3.77772e-05
1.46499e-05
5.06337e-05
6.1609e-05
6.16205e-05
2.3048e-05
6.16073e-05
6.1619e-05
5.7739e-05
6.99555e-05
5.77366e-05
6.99598e-05
6.91402e-05
6.91515e-05
5.77429e-05
6.99608e-05
5.77403e-05
6.99651e-05
1.30788e-05
1.30792e-05
1.30794e-05
1.30791e-05
1.30789e-05
1.30793e-05
1.30796e-05
3.77753e-05
5.06354e-05
1.46499e-05
1.82617e-05
3.77796e-05
5.06303e-05
1.46496e-05
6.91383e-05
6.91499e-05
3.77721e-05
1.46504e-05
5.06381e-05
1.82634e-05
3.77775e-05
1.465e-05
5.06332e-05
6.16134e-05
6.16249e-05
2.30428e-05
6.16096e-05
6.16212e-05
5.77396e-05
6.99564e-05
5.77375e-05
6.99633e-05
6.91399e-05
6.91555e-05
5.77434e-05
6.99617e-05
5.77411e-05
6.99686e-05
1.30789e-05
1.30793e-05
1.30795e-05
1.30793e-05
1.30791e-05
1.30795e-05
1.30798e-05
3.77753e-05
5.06392e-05
1.46502e-05
1.82619e-05
3.77802e-05
5.06296e-05
1.46497e-05
6.9138e-05
6.91538e-05
3.77722e-05
1.46506e-05
5.06418e-05
1.82635e-05
3.77779e-05
1.46501e-05
5.06323e-05
6.16207e-05
6.16322e-05
2.30445e-05
6.16125e-05
6.16242e-05
5.77404e-05
6.99578e-05
5.77384e-05
6.99693e-05
6.91387e-05
6.91606e-05
5.77442e-05
6.99631e-05
5.7742e-05
6.99745e-05
1.3079e-05
1.30795e-05
1.30797e-05
1.30796e-05
1.30794e-05
1.30798e-05
1.308e-05
3.77743e-05
5.0646e-05
1.46505e-05
1.8262e-05
3.77811e-05
5.06274e-05
1.46499e-05
6.9137e-05
6.91593e-05
3.77721e-05
1.46509e-05
5.06483e-05
1.82636e-05
3.77787e-05
1.46503e-05
5.06299e-05
6.16274e-05
6.1639e-05
2.30482e-05
6.16096e-05
6.16214e-05
5.77409e-05
6.99587e-05
5.77389e-05
6.99769e-05
6.9135e-05
6.91657e-05
5.77446e-05
6.99638e-05
5.77425e-05
6.9982e-05
1.30792e-05
1.30797e-05
1.30799e-05
1.30799e-05
1.30797e-05
1.30801e-05
1.30803e-05
3.7772e-05
5.06573e-05
1.46508e-05
1.82622e-05
3.77837e-05
5.06212e-05
1.46501e-05
6.91339e-05
6.9165e-05
3.777e-05
1.46512e-05
5.06593e-05
1.82639e-05
3.77817e-05
1.46505e-05
5.06231e-05
6.16271e-05
6.16389e-05
2.30477e-05
6.15938e-05
6.16057e-05
5.77385e-05
6.99532e-05
5.77368e-05
6.99839e-05
6.91261e-05
6.91687e-05
5.77419e-05
6.9958e-05
5.77401e-05
6.99886e-05
1.30793e-05
1.30797e-05
1.308e-05
1.30798e-05
1.30796e-05
1.308e-05
1.30803e-05
3.77654e-05
5.06758e-05
1.46511e-05
1.82619e-05
3.7789e-05
5.06028e-05
1.465e-05
6.91257e-05
6.91685e-05
3.77635e-05
1.46515e-05
5.06767e-05
1.82635e-05
3.7787e-05
1.46504e-05
5.06033e-05
6.16133e-05
6.16251e-05
2.30446e-05
6.1555e-05
6.15668e-05
5.77025e-05
6.99363e-05
5.77209e-05
6.99923e-05
6.91078e-05
6.91685e-05
5.77054e-05
6.99407e-05
5.77239e-05
6.99966e-05
1.30757e-05
1.3076e-05
1.30764e-05
1.30424e-05
1.30422e-05
1.30423e-05
1.30426e-05
3.76895e-05
5.06992e-05
1.46434e-05
1.82191e-05
3.77883e-05
5.05204e-05
1.46498e-05
6.91078e-05
6.91686e-05
3.76876e-05
1.46438e-05
5.0699e-05
1.82203e-05
3.77865e-05
1.465e-05
5.05197e-05
6.15705e-05
6.15823e-05
2.29963e-05
6.1444e-05
6.14558e-05
5.18908e-05
6.92265e-05
5.72462e-05
7.1832e-05
6.88248e-05
6.14315e-05
5.18929e-05
6.92291e-05
5.72485e-05
7.18365e-05
1.19805e-05
1.21844e-05
1.21846e-05
1.32738e-05
1.19872e-05
1.22575e-05
1.22577e-05
3.62731e-05
4.98587e-05
1.44393e-05
1.70083e-05
3.71786e-05
5.21848e-05
1.40197e-05
6.88249e-05
6.14311e-05
3.62717e-05
1.44394e-05
4.98574e-05
1.70085e-05
3.71769e-05
1.40197e-05
5.21831e-05
6.10334e-05
6.10449e-05
2.13804e-05
6.01059e-05
6.01144e-05
6.91437e-05
6.91457e-05
2.3045e-05
6.15989e-05
6.16096e-05
6.91434e-05
6.91385e-05
6.91453e-05
6.91404e-05
2.30755e-05
6.1599e-05
6.16097e-05
6.15973e-05
6.16081e-05
5.77332e-05
6.99596e-05
3.77709e-05
1.82609e-05
5.06266e-05
1.46482e-05
3.77724e-05
1.82611e-05
5.06305e-05
1.46485e-05
5.77277e-05
6.99544e-05
6.99533e-05
5.77311e-05
5.77296e-05
6.99595e-05
6.99583e-05
5.77329e-05
3.77762e-05
1.8261e-05
5.06274e-05
1.46484e-05
5.06266e-05
1.46483e-05
3.77708e-05
3.77776e-05
1.82613e-05
5.06315e-05
1.46487e-05
5.06306e-05
1.46486e-05
3.77723e-05
2.30391e-05
6.16089e-05
6.15944e-05
6.91417e-05
6.91452e-05
6.91403e-05
2.30754e-05
6.16089e-05
6.15944e-05
6.16073e-05
6.15932e-05
6.91414e-05
6.91361e-05
3.77753e-05
1.82602e-05
5.06293e-05
1.46493e-05
5.77339e-05
6.99546e-05
3.7774e-05
1.82613e-05
1.4649e-05
5.06255e-05
5.77321e-05
6.99593e-05
6.99582e-05
5.77362e-05
3.77802e-05
1.82603e-05
5.06304e-05
1.46495e-05
5.06302e-05
1.46493e-05
3.77745e-05
5.77304e-05
6.99544e-05
6.99533e-05
5.77344e-05
3.7779e-05
1.82615e-05
1.46492e-05
5.06265e-05
1.46491e-05
5.0627e-05
3.7773e-05
5.77334e-05
6.9958e-05
3.77726e-05
1.82616e-05
1.46489e-05
5.06271e-05
5.7732e-05
6.99556e-05
3.77778e-05
1.82587e-05
5.06254e-05
1.46487e-05
5.06256e-05
1.46486e-05
3.77723e-05
5.77299e-05
6.99579e-05
6.99567e-05
5.77333e-05
3.77772e-05
1.82618e-05
1.46491e-05
5.06281e-05
1.4649e-05
5.06273e-05
3.77715e-05
5.77286e-05
6.99554e-05
6.99543e-05
5.77319e-05
2.3048e-05
6.16027e-05
6.15997e-05
6.9144e-05
6.91435e-05
6.91382e-05
2.30802e-05
6.16027e-05
6.15997e-05
6.16015e-05
6.15981e-05
6.91437e-05
6.91388e-05
3.77743e-05
1.82609e-05
1.46497e-05
5.06316e-05
5.77317e-05
6.99559e-05
5.77341e-05
6.99596e-05
3.77775e-05
1.82605e-05
1.46494e-05
5.06286e-05
1.46493e-05
5.06275e-05
3.77722e-05
3.7779e-05
1.82611e-05
1.46498e-05
5.06325e-05
1.46497e-05
5.06317e-05
3.77734e-05
5.77285e-05
6.99558e-05
6.99546e-05
5.77314e-05
5.77308e-05
6.99594e-05
6.99583e-05
5.77338e-05
6.91438e-05
6.91461e-05
2.30697e-05
6.15992e-05
6.1611e-05
6.15978e-05
6.16094e-05
6.91435e-05
6.91385e-05
6.91458e-05
6.91408e-05
6.91381e-05
6.91431e-05
6.91401e-05
6.91451e-05
6.15974e-05
6.16081e-05
2.30489e-05
6.15992e-05
6.16099e-05
6.91428e-05
6.91379e-05
6.91448e-05
6.91398e-05
2.30803e-05
6.15994e-05
6.16101e-05
6.15977e-05
6.16084e-05
5.77333e-05
6.99582e-05
5.77296e-05
6.99593e-05
3.77707e-05
5.06276e-05
1.46485e-05
1.82619e-05
3.77755e-05
5.06287e-05
1.46486e-05
3.77721e-05
5.06316e-05
1.46488e-05
1.82621e-05
3.77771e-05
5.06327e-05
1.46489e-05
5.77282e-05
6.99541e-05
6.9953e-05
5.7732e-05
5.773e-05
6.99592e-05
6.9958e-05
5.77339e-05
3.77767e-05
1.82621e-05
5.06294e-05
1.46489e-05
5.06287e-05
1.46488e-05
3.77727e-05
3.77781e-05
1.82623e-05
5.06335e-05
1.46492e-05
5.06327e-05
1.46491e-05
3.77742e-05
6.16074e-05
6.15933e-05
2.30457e-05
6.16091e-05
6.15945e-05
6.91358e-05
6.91411e-05
6.91447e-05
6.91397e-05
2.30812e-05
6.16092e-05
6.15947e-05
6.16075e-05
6.15934e-05
6.91408e-05
6.91355e-05
3.77751e-05
5.06311e-05
1.46496e-05
1.82613e-05
3.77793e-05
5.06312e-05
1.46498e-05
5.77351e-05
6.99531e-05
5.7731e-05
6.99542e-05
3.77737e-05
1.46493e-05
5.06278e-05
1.82623e-05
3.77778e-05
1.46495e-05
5.06274e-05
5.77333e-05
6.9959e-05
6.99579e-05
5.77374e-05
3.77808e-05
1.82614e-05
5.06324e-05
1.46501e-05
5.0632e-05
1.46499e-05
3.77765e-05
5.77316e-05
6.99541e-05
6.99529e-05
5.77357e-05
3.77795e-05
1.82625e-05
1.46498e-05
5.06286e-05
1.46496e-05
5.06289e-05
3.77753e-05
5.77337e-05
6.99565e-05
5.773e-05
6.99577e-05
3.77723e-05
1.46492e-05
5.06282e-05
1.82627e-05
3.77764e-05
1.46493e-05
5.06291e-05
5.77323e-05
6.99541e-05
5.77286e-05
6.99552e-05
3.77783e-05
1.82597e-05
5.06274e-05
1.46492e-05
5.06274e-05
1.4649e-05
3.77742e-05
5.77304e-05
6.99575e-05
6.99564e-05
5.77342e-05
3.77778e-05
1.82628e-05
1.46496e-05
5.063e-05
1.46495e-05
5.06293e-05
3.77735e-05
5.77291e-05
6.99551e-05
6.99539e-05
5.77329e-05
6.16016e-05
6.15982e-05
2.3049e-05
6.16028e-05
6.15999e-05
6.91385e-05
6.91434e-05
6.9143e-05
6.91377e-05
2.30838e-05
6.1603e-05
6.16001e-05
6.16017e-05
6.15984e-05
6.91432e-05
6.91382e-05
3.7774e-05
1.46499e-05
5.06326e-05
1.82619e-05
3.77783e-05
1.465e-05
5.06335e-05
5.77315e-05
6.99545e-05
5.77283e-05
6.99556e-05
5.77339e-05
6.99581e-05
5.77307e-05
6.99593e-05
3.77779e-05
1.82615e-05
1.46499e-05
5.06306e-05
1.46498e-05
5.06296e-05
3.77741e-05
3.77795e-05
1.82621e-05
1.46503e-05
5.06345e-05
1.46502e-05
5.06337e-05
3.77752e-05
5.77285e-05
6.99555e-05
6.99543e-05
5.77318e-05
5.77309e-05
6.99591e-05
6.9958e-05
5.77342e-05
6.91382e-05
6.91432e-05
6.91405e-05
6.91455e-05
2.30749e-05
6.15996e-05
6.16114e-05
6.1598e-05
6.16097e-05
6.9143e-05
6.9138e-05
6.91453e-05
6.91403e-05
6.91377e-05
6.91426e-05
6.91396e-05
6.91446e-05
6.15979e-05
6.16085e-05
2.30505e-05
6.15995e-05
6.16101e-05
6.91425e-05
6.91375e-05
6.91445e-05
6.91394e-05
2.30863e-05
6.15995e-05
6.16103e-05
6.15979e-05
6.16086e-05
5.77344e-05
6.99578e-05
5.77306e-05
6.9959e-05
3.7772e-05
5.06293e-05
1.46491e-05
1.82632e-05
3.77775e-05
5.063e-05
1.46493e-05
3.77736e-05
5.06333e-05
1.46494e-05
1.82632e-05
3.77791e-05
5.06339e-05
1.46495e-05
5.77293e-05
6.99539e-05
6.99527e-05
5.77329e-05
5.77311e-05
6.99589e-05
6.99577e-05
5.77348e-05
3.7778e-05
1.82633e-05
5.06303e-05
1.46496e-05
5.06297e-05
1.46495e-05
3.77743e-05
3.77795e-05
1.82634e-05
5.06343e-05
1.46499e-05
5.06337e-05
1.46498e-05
3.77756e-05
6.16076e-05
6.15936e-05
2.3046e-05
6.16094e-05
6.15948e-05
6.91353e-05
6.91407e-05
6.91444e-05
6.91393e-05
2.30836e-05
6.16095e-05
6.15951e-05
6.16078e-05
6.15937e-05
6.91406e-05
6.91352e-05
3.77768e-05
5.06331e-05
1.46502e-05
1.82625e-05
3.77814e-05
5.06324e-05
1.46504e-05
5.77362e-05
6.99528e-05
5.77322e-05
6.9954e-05
3.77754e-05
1.46499e-05
5.06298e-05
1.82635e-05
3.77802e-05
1.46501e-05
5.06286e-05
5.77343e-05
6.99588e-05
6.99576e-05
5.77382e-05
3.77824e-05
1.82626e-05
5.06331e-05
1.46508e-05
5.06329e-05
1.46506e-05
3.77781e-05
5.77327e-05
6.9954e-05
6.99527e-05
5.77365e-05
3.7781e-05
1.82637e-05
1.46504e-05
5.06293e-05
1.46503e-05
5.06298e-05
3.77771e-05
5.77348e-05
6.99562e-05
5.7731e-05
6.99574e-05
3.7774e-05
1.46498e-05
5.063e-05
1.82638e-05
3.77784e-05
1.46499e-05
5.06304e-05
5.77334e-05
6.99538e-05
5.77297e-05
6.99549e-05
3.77797e-05
1.82608e-05
5.06281e-05
1.46498e-05
5.06281e-05
1.46497e-05
3.77757e-05
5.77315e-05
6.99574e-05
6.99561e-05
5.77351e-05
3.77794e-05
1.82639e-05
1.46503e-05
5.06309e-05
1.46502e-05
5.06303e-05
3.7775e-05
5.77302e-05
6.99549e-05
6.99537e-05
5.77337e-05
6.16019e-05
6.15986e-05
2.30473e-05
6.16032e-05
6.16002e-05
6.9138e-05
6.9143e-05
6.91428e-05
6.91373e-05
2.30853e-05
6.16034e-05
6.16003e-05
6.16021e-05
6.15987e-05
6.91429e-05
6.91378e-05
3.77756e-05
1.46505e-05
5.06344e-05
1.82631e-05
3.77802e-05
1.46506e-05
5.06347e-05
5.7732e-05
6.99542e-05
5.77287e-05
6.99553e-05
5.77344e-05
6.99578e-05
5.77311e-05
6.9959e-05
3.77791e-05
1.82626e-05
1.46505e-05
5.06314e-05
1.46504e-05
5.06307e-05
3.77752e-05
3.77811e-05
1.82631e-05
1.46509e-05
5.06353e-05
1.46508e-05
5.06347e-05
3.77764e-05
5.7729e-05
6.99553e-05
6.99541e-05
5.7732e-05
5.77314e-05
6.99589e-05
6.99577e-05
5.77343e-05
6.91377e-05
6.91428e-05
6.914e-05
6.91451e-05
2.30837e-05
6.15998e-05
6.16116e-05
6.15983e-05
6.16099e-05
6.91427e-05
6.91376e-05
6.9145e-05
6.91399e-05
6.91374e-05
6.91425e-05
6.91393e-05
6.91445e-05
6.1598e-05
6.16087e-05
2.30447e-05
6.15996e-05
6.16104e-05
6.91425e-05
6.91373e-05
6.91445e-05
6.91393e-05
2.30844e-05
6.15999e-05
6.16108e-05
6.15981e-05
6.16089e-05
5.77347e-05
6.99576e-05
5.77314e-05
6.99588e-05
3.7772e-05
5.06299e-05
1.46497e-05
1.82635e-05
3.7779e-05
5.06298e-05
1.46497e-05
3.77735e-05
5.0634e-05
1.46499e-05
1.82635e-05
3.77804e-05
5.0634e-05
1.46499e-05
5.77295e-05
6.99539e-05
6.99526e-05
5.77327e-05
5.77313e-05
6.99587e-05
6.99575e-05
5.77345e-05
3.77769e-05
1.82636e-05
5.06298e-05
1.46492e-05
5.06294e-05
1.46496e-05
3.77701e-05
3.77785e-05
1.82637e-05
5.06343e-05
1.46495e-05
5.06337e-05
1.46499e-05
3.77713e-05
6.16079e-05
6.1594e-05
2.3038e-05
6.16096e-05
6.15953e-05
6.91351e-05
6.91406e-05
6.91442e-05
6.9139e-05
2.30789e-05
6.16097e-05
6.15958e-05
6.1608e-05
6.15943e-05
6.91406e-05
6.91351e-05
3.7777e-05
5.06338e-05
1.46508e-05
1.82629e-05
3.77828e-05
5.06322e-05
1.46509e-05
5.77363e-05
6.99527e-05
5.77329e-05
6.99541e-05
3.77754e-05
1.46505e-05
5.06303e-05
1.82637e-05
3.77819e-05
1.46505e-05
5.06288e-05
5.77344e-05
6.9959e-05
6.99576e-05
5.77377e-05
3.7782e-05
1.82629e-05
5.06333e-05
1.46505e-05
5.06325e-05
1.46507e-05
3.77751e-05
5.77326e-05
6.99542e-05
6.99529e-05
5.77359e-05
3.77802e-05
1.82639e-05
1.465e-05
5.06313e-05
1.46504e-05
5.06304e-05
3.77734e-05
5.7735e-05
6.99561e-05
5.77317e-05
6.99575e-05
3.77731e-05
1.46503e-05
5.06306e-05
1.82643e-05
3.77796e-05
1.46503e-05
5.06302e-05
5.77335e-05
6.99536e-05
5.77303e-05
6.99548e-05
3.77783e-05
1.82611e-05
5.06293e-05
1.46495e-05
5.06283e-05
1.46498e-05
3.77706e-05
5.77315e-05
6.99576e-05
6.99562e-05
5.77348e-05
3.77774e-05
1.82643e-05
1.46499e-05
5.06304e-05
1.46503e-05
5.06298e-05
3.77693e-05
5.77302e-05
6.99549e-05
6.99536e-05
5.77334e-05
6.16023e-05
6.15988e-05
2.30375e-05
6.16038e-05
6.16004e-05
6.91377e-05
6.91428e-05
6.91428e-05
6.91373e-05
2.30777e-05
6.16042e-05
6.16007e-05
6.16027e-05
6.15989e-05
6.91429e-05
6.91377e-05
3.77742e-05
1.4651e-05
5.06351e-05
1.82635e-05
3.77809e-05
1.4651e-05
5.06346e-05
5.77317e-05
6.9954e-05
5.77289e-05
6.99552e-05
5.77338e-05
6.99576e-05
5.77313e-05
6.99588e-05
3.77774e-05
1.82628e-05
1.46502e-05
5.06309e-05
1.46505e-05
5.06306e-05
3.77699e-05
3.77785e-05
1.82635e-05
1.46506e-05
5.06347e-05
1.46509e-05
5.06342e-05
3.77702e-05
5.77286e-05
6.99553e-05
6.9954e-05
5.77313e-05
5.77306e-05
6.99589e-05
6.99576e-05
5.77331e-05
6.91375e-05
6.91426e-05
6.91398e-05
6.91449e-05
2.30873e-05
6.16003e-05
6.1612e-05
6.15985e-05
6.16101e-05
6.91427e-05
6.91375e-05
6.9145e-05
6.91397e-05
6.91374e-05
6.91425e-05
6.91394e-05
6.91445e-05
6.15984e-05
6.16094e-05
2.30361e-05
6.16003e-05
6.16113e-05
6.91425e-05
6.91374e-05
6.91445e-05
6.91393e-05
2.30755e-05
6.16006e-05
6.16113e-05
6.15989e-05
6.16097e-05
5.77346e-05
6.99574e-05
5.77311e-05
6.99586e-05
3.7766e-05
5.06301e-05
1.4649e-05
1.82629e-05
3.77739e-05
5.06312e-05
1.46486e-05
3.77674e-05
5.06339e-05
1.46493e-05
1.82629e-05
3.77752e-05
5.06339e-05
1.46489e-05
5.77295e-05
6.99541e-05
6.99528e-05
5.77333e-05
5.77313e-05
6.99586e-05
6.99573e-05
5.77352e-05
3.7771e-05
1.82629e-05
5.06321e-05
1.46483e-05
5.06314e-05
1.46485e-05
3.77666e-05
3.77725e-05
1.82629e-05
5.06341e-05
1.46486e-05
5.06336e-05
1.46488e-05
3.7768e-05
6.16081e-05
6.15948e-05
2.30343e-05
6.16098e-05
6.15961e-05
6.91352e-05
6.91406e-05
6.91441e-05
6.91389e-05
2.30694e-05
6.161e-05
6.15961e-05
6.16083e-05
6.1595e-05
6.91406e-05
6.91351e-05
3.77709e-05
5.06345e-05
1.46501e-05
1.82622e-05
3.77787e-05
5.06356e-05
1.46499e-05
5.77358e-05
6.9953e-05
5.77323e-05
6.99541e-05
3.77693e-05
1.46498e-05
5.06329e-05
1.82632e-05
3.77772e-05
1.46494e-05
5.06322e-05
5.77339e-05
6.99589e-05
6.99578e-05
5.77379e-05
3.77757e-05
1.82622e-05
5.06344e-05
1.46495e-05
5.06362e-05
1.46496e-05
3.77709e-05
5.77323e-05
6.9954e-05
6.99528e-05
5.77362e-05
3.77742e-05
1.82632e-05
1.46491e-05
5.06294e-05
1.46494e-05
5.06321e-05
3.77695e-05
5.7735e-05
6.99564e-05
5.77314e-05
6.99576e-05
3.77672e-05
1.46497e-05
5.06308e-05
1.82638e-05
3.77733e-05
1.46494e-05
5.06321e-05
5.77336e-05
6.99537e-05
5.773e-05
6.99551e-05
3.7773e-05
1.82605e-05
5.0629e-05
1.46486e-05
5.06317e-05
1.46489e-05
3.7769e-05
5.77317e-05
6.99575e-05
6.99563e-05
5.77356e-05
3.77722e-05
1.82637e-05
1.46491e-05
5.06327e-05
1.46493e-05
5.06324e-05
3.77685e-05
5.77304e-05
6.99551e-05
6.99538e-05
5.77342e-05
6.16031e-05
6.15992e-05
2.30376e-05
6.16044e-05
6.16011e-05
6.91377e-05
6.91429e-05
6.91427e-05
6.91372e-05
2.3071e-05
6.16044e-05
6.16015e-05
6.16032e-05
6.15997e-05
6.91429e-05
6.91378e-05
3.77683e-05
1.46504e-05
5.06352e-05
1.8263e-05
3.77743e-05
1.465e-05
5.06366e-05
5.77313e-05
6.99541e-05
5.77282e-05
6.99554e-05
5.77329e-05
6.99577e-05
5.77301e-05
6.99591e-05
3.77719e-05
1.82622e-05
1.46493e-05
5.06335e-05
1.46495e-05
5.06325e-05
3.77678e-05
3.77733e-05
1.82629e-05
1.46497e-05
5.06371e-05
1.46499e-05
5.06369e-05
3.77693e-05
5.77283e-05
6.99555e-05
6.99542e-05
5.77317e-05
5.773e-05
6.99591e-05
6.99578e-05
5.77331e-05
6.91375e-05
6.91427e-05
6.91398e-05
6.9145e-05
2.30838e-05
6.1601e-05
6.16127e-05
6.15994e-05
6.1611e-05
6.91427e-05
6.91375e-05
6.9145e-05
6.91398e-05
6.91374e-05
6.91425e-05
6.91393e-05
6.91445e-05
6.15991e-05
6.16098e-05
2.30367e-05
6.16008e-05
6.16115e-05
6.91426e-05
6.91374e-05
6.91445e-05
6.91393e-05
2.30705e-05
6.16012e-05
6.16119e-05
6.15993e-05
6.161e-05
5.77357e-05
6.99573e-05
5.77319e-05
6.99586e-05
3.77697e-05
5.06317e-05
1.46483e-05
1.82622e-05
3.77723e-05
5.06306e-05
1.46481e-05
3.77712e-05
5.06337e-05
1.46486e-05
1.82623e-05
3.77738e-05
5.06335e-05
1.46484e-05
5.77306e-05
6.9954e-05
6.99527e-05
5.77341e-05
5.77324e-05
6.99588e-05
6.99574e-05
5.7736e-05
3.77754e-05
1.82623e-05
5.06319e-05
1.4648e-05
5.06306e-05
1.46481e-05
3.77685e-05
3.7777e-05
1.82623e-05
5.06345e-05
1.46483e-05
5.06334e-05
1.46484e-05
3.77697e-05
6.16085e-05
6.1595e-05
2.30382e-05