/*--------------------------------*- C++ -*----------------------------------*\
| =========                 |                                                 |
| \\      /  F ield         | OpenFOAM: The Open Source CFD Toolbox           |
|  \\    /   O peration     | Version:  v1906                                 |
|   \\  /    A nd           | Web:      www.OpenFOAM.com                      |
|    \\/     M anipulation  |                                                 |
\*---------------------------------------------------------------------------*/
FoamFile
{
    version     2.0;
    format      ascii;
    class       volScalarField;
    location    "125";
    object      nut;
}
// * * * * * * * * * * * * * * * * * * * * * * * * * * * * * * * * * * * * * //

dimensions      [0 2 -1 0 0 0 0];


internalField   nonuniform List<scalar> 
43248
(
0.00015014
0.000101719
0.00010171
8.2585e-05
0.000146071
9.8908e-05
9.89002e-05
8.21037e-05
0.000142068
9.66215e-05
9.66147e-05
8.21929e-05
0.000138177
9.4933e-05
9.49271e-05
8.2828e-05
0.000134804
9.4029e-05
9.40239e-05
8.40753e-05
0.000131499
9.37951e-05
9.3792e-05
8.60251e-05
0.000129975
9.50954e-05
9.50889e-05
8.86025e-05
0.00012925
9.61871e-05
9.61825e-05
9.02491e-05
0.000126927
9.57888e-05
9.5786e-05
9.05528e-05
0.000125032
9.54209e-05
9.54191e-05
9.04038e-05
0.00012452
9.54576e-05
9.54566e-05
9.05493e-05
0.000124565
9.57033e-05
9.57023e-05
9.06997e-05
0.000124687
9.58206e-05
9.58193e-05
9.07975e-05
0.000124733
9.58535e-05
9.58522e-05
9.08148e-05
0.000124747
9.58644e-05
9.58633e-05
9.08079e-05
0.000124752
9.58704e-05
9.58691e-05
9.08182e-05
0.000124753
9.58697e-05
9.58683e-05
9.08203e-05
0.000124754
9.58689e-05
9.58676e-05
9.08041e-05
0.000124754
9.58683e-05
9.5867e-05
9.08094e-05
0.000124755
9.58687e-05
9.58677e-05
9.08377e-05
0.000124755
9.58693e-05
9.58679e-05
9.08255e-05
0.000124756
9.58706e-05
9.58686e-05
9.08229e-05
0.000124757
9.58709e-05
9.58682e-05
9.08269e-05
0.000124758
9.58725e-05
9.58696e-05
9.08638e-05
0.000124759
9.58721e-05
9.58688e-05
9.07859e-05
0.000124757
9.58697e-05
9.58663e-05
9.07471e-05
0.000124754
9.58702e-05
9.58668e-05
9.086e-05
8.28629e-05
0.000102466
0.000102456
8.28674e-05
0.000102485
0.000102448
0.000102501
0.00010247
8.28594e-05
0.000102492
0.000102491
8.28597e-05
8.25877e-05
8.22636e-05
0.000101684
0.000101673
9.95182e-05
9.9506e-05
8.25919e-05
8.22674e-05
0.000101703
0.000101666
9.95351e-05
9.94991e-05
0.000101688
9.95507e-05
9.95209e-05
8.25848e-05
8.22605e-05
0.000101709
9.95426e-05
9.95417e-05
8.22609e-05
8.21061e-05
8.22462e-05
9.88762e-05
9.88638e-05
9.71283e-05
9.71153e-05
8.21097e-05
8.22496e-05
9.88929e-05
9.88573e-05
9.71435e-05
9.71094e-05
9.88788e-05
9.71584e-05
9.71307e-05
8.21035e-05
8.22438e-05
9.88997e-05
9.71512e-05
9.71505e-05
8.22442e-05
8.21946e-05
8.27534e-05
9.65922e-05
9.6579e-05
9.52402e-05
9.52273e-05
8.21977e-05
8.2756e-05
9.66074e-05
9.65733e-05
9.52548e-05
9.52225e-05
9.65945e-05
9.52686e-05
9.52429e-05
8.21926e-05
8.27516e-05
9.66137e-05
9.52622e-05
9.52606e-05
8.27519e-05
8.28291e-05
8.38938e-05
9.49056e-05
9.48925e-05
9.41844e-05
9.41699e-05
8.28316e-05
8.38957e-05
9.49198e-05
9.4888e-05
9.41966e-05
9.41666e-05
9.49083e-05
9.42095e-05
9.41862e-05
8.28278e-05
8.38926e-05
9.49255e-05
9.42043e-05
9.42019e-05
8.38927e-05
8.40762e-05
8.56747e-05
9.40042e-05
9.39903e-05
9.37176e-05
9.37048e-05
8.4078e-05
8.56761e-05
9.40168e-05
9.3987e-05
9.37304e-05
9.37005e-05
9.40063e-05
9.37408e-05
9.37207e-05
8.40753e-05
8.56713e-05
9.40218e-05
9.37369e-05
9.37348e-05
8.56731e-05
8.6027e-05
8.81676e-05
9.37734e-05
9.37605e-05
9.46342e-05
9.46198e-05
8.6028e-05
8.81686e-05
9.37858e-05
9.37553e-05
9.46443e-05
9.46171e-05
9.37763e-05
9.46561e-05
9.46353e-05
8.60236e-05
8.81665e-05
9.37901e-05
9.46504e-05
9.4649e-05
8.81673e-05
8.86029e-05
9.00814e-05
9.50731e-05
9.50582e-05
9.60529e-05
9.60384e-05
8.8604e-05
9.00835e-05
9.50825e-05
9.50573e-05
9.60618e-05
9.60379e-05
9.50741e-05
9.60754e-05
9.60561e-05
8.86031e-05
9.00828e-05
9.50871e-05
9.60704e-05
9.60665e-05
9.00831e-05
9.02472e-05
9.05631e-05
9.6165e-05
9.61505e-05
9.60213e-05
9.6006e-05
9.02491e-05
9.05642e-05
9.61738e-05
9.61498e-05
9.60295e-05
9.60053e-05
9.61685e-05
9.60423e-05
9.60246e-05
9.02487e-05
9.05627e-05
9.61785e-05
9.60385e-05
9.60338e-05
9.05641e-05
9.0552e-05
9.04378e-05
9.57682e-05
9.57529e-05
9.54557e-05
9.54395e-05
9.05529e-05
9.04372e-05
9.57767e-05
9.57514e-05
9.54648e-05
9.54378e-05
9.57718e-05
9.54748e-05
9.546e-05
9.05513e-05
9.0436e-05
9.57811e-05
9.54729e-05
9.54694e-05
9.04397e-05
9.04018e-05
9.05311e-05
9.54031e-05
9.53887e-05
9.53588e-05
9.53428e-05
9.04013e-05
9.05297e-05
9.54121e-05
9.53854e-05
9.53681e-05
9.53401e-05
9.54075e-05
9.53771e-05
9.53636e-05
9.04004e-05
9.05281e-05
9.54169e-05
9.5376e-05
9.53732e-05
9.05328e-05
9.05468e-05
9.06958e-05
9.54392e-05
9.54232e-05
9.56367e-05
9.562e-05
9.05454e-05
9.06947e-05
9.54486e-05
9.54203e-05
9.5646e-05
9.5618e-05
9.5444e-05
9.56547e-05
9.56411e-05
9.05439e-05
9.06925e-05
9.54536e-05
9.56536e-05
9.56506e-05
9.06965e-05
9.06982e-05
9.08045e-05
9.56848e-05
9.56685e-05
9.57828e-05
9.57654e-05
9.06972e-05
9.0804e-05
9.56943e-05
9.56666e-05
9.57919e-05
9.57637e-05
9.56894e-05
9.58006e-05
9.57875e-05
9.0695e-05
9.08016e-05
9.56987e-05
9.57992e-05
9.57967e-05
9.08057e-05
9.07962e-05
9.08306e-05
9.58019e-05
9.57847e-05
9.58309e-05
9.58125e-05
9.07956e-05
9.08287e-05
9.58112e-05
9.57833e-05
9.58399e-05
9.5811e-05
9.58065e-05
9.58481e-05
9.58354e-05
9.07934e-05
9.08264e-05
9.58158e-05
9.58467e-05
9.58447e-05
9.08313e-05
9.0814e-05
9.08236e-05
9.5836e-05
9.58162e-05
9.58451e-05
9.58253e-05
9.08119e-05
9.08206e-05
9.58456e-05
9.5815e-05
9.58549e-05
9.58245e-05
9.58407e-05
9.58627e-05
9.58494e-05
9.08097e-05
9.08186e-05
9.58499e-05
9.58615e-05
9.58585e-05
9.08235e-05
9.08079e-05
9.08346e-05
9.58472e-05
9.58279e-05
9.58521e-05
9.5833e-05
9.08051e-05
9.08329e-05
9.58572e-05
9.58272e-05
9.58616e-05
9.58322e-05
9.58516e-05
9.58697e-05
9.58558e-05
9.08032e-05
9.08309e-05
9.58607e-05
9.58686e-05
9.58647e-05
9.08343e-05
9.08184e-05
9.08326e-05
9.58521e-05
9.58344e-05
9.58517e-05
9.58339e-05
9.08168e-05
9.08315e-05
9.58625e-05
9.58338e-05
9.58619e-05
9.58334e-05
9.58571e-05
9.58698e-05
9.58565e-05
9.0815e-05
9.08292e-05
9.58661e-05
9.58683e-05
9.58656e-05
9.08329e-05
9.08197e-05
9.08187e-05
9.58512e-05
9.58335e-05
9.58507e-05
9.58327e-05
9.08187e-05
9.08177e-05
9.58616e-05
9.58331e-05
9.58609e-05
9.58323e-05
9.58562e-05
9.58688e-05
9.58553e-05
9.08165e-05
9.08158e-05
9.58653e-05
9.58675e-05
9.58644e-05
9.08193e-05
9.08037e-05
9.08372e-05
9.58509e-05
9.58326e-05
9.58508e-05
9.58322e-05
9.08027e-05
9.08353e-05
9.58608e-05
9.58323e-05
9.58605e-05
9.58321e-05
9.58553e-05
9.58686e-05
9.58551e-05
9.08006e-05
9.08339e-05
9.58644e-05
9.58673e-05
9.58641e-05
9.08376e-05
9.08086e-05
9.08513e-05
9.58508e-05
9.58321e-05
9.5851e-05
9.58323e-05
9.08072e-05
9.08496e-05
9.58604e-05
9.58321e-05
9.58608e-05
9.58324e-05
9.58548e-05
9.58689e-05
9.58555e-05
9.08059e-05
9.08477e-05
9.58639e-05
9.58676e-05
9.58644e-05
9.08534e-05
9.0836e-05
9.08322e-05
9.5851e-05
9.58327e-05
9.58506e-05
9.58329e-05
9.08328e-05
9.08359e-05
9.58603e-05
9.58324e-05
9.58607e-05
9.58324e-05
9.58558e-05
9.58695e-05
9.58561e-05
9.08317e-05
9.08315e-05
9.58647e-05
9.58679e-05
9.58649e-05
9.08347e-05
9.0821e-05
9.08371e-05
9.58506e-05
9.58332e-05
9.58508e-05
9.58336e-05
9.08241e-05
9.08356e-05
9.58609e-05
9.58324e-05
9.58613e-05
9.58328e-05
9.58562e-05
9.58703e-05
9.58564e-05
9.08204e-05
9.08322e-05
9.58649e-05
9.58683e-05
9.58652e-05
9.08314e-05
9.08261e-05
9.08411e-05
9.58511e-05
9.58341e-05
9.58515e-05
9.58342e-05
9.08301e-05
9.08285e-05
9.58616e-05
9.58331e-05
9.5862e-05
9.58332e-05
9.58567e-05
9.58712e-05
9.58567e-05
9.08244e-05
9.08312e-05
9.58655e-05
9.58686e-05
9.58656e-05
9.08388e-05
9.08329e-05
9.08386e-05
9.58514e-05
9.58344e-05
9.58522e-05
9.58354e-05
9.08233e-05
9.08295e-05
9.58617e-05
9.5833e-05
9.58631e-05
9.5834e-05
9.58564e-05
9.5872e-05
9.58577e-05
9.08242e-05
9.08304e-05
9.58652e-05
9.58691e-05
9.58667e-05
9.08497e-05
9.08545e-05
9.07617e-05
9.58525e-05
9.58359e-05
9.5851e-05
9.58345e-05
9.08467e-05
9.07591e-05
9.58637e-05
9.58345e-05
9.58614e-05
9.58327e-05
9.5858e-05
9.58707e-05
9.58563e-05
9.08476e-05
9.07573e-05
9.58671e-05
9.58676e-05
9.58651e-05
9.07641e-05
9.07694e-05
9.08115e-05
9.5852e-05
9.58356e-05
9.58507e-05
9.58341e-05
9.07662e-05
9.08057e-05
9.58624e-05
9.58337e-05
9.58607e-05
9.5832e-05
9.58576e-05
9.58702e-05
9.58553e-05
9.07651e-05
9.08043e-05
9.58665e-05
9.58669e-05
9.58641e-05
9.07983e-05
9.07572e-05
9.09183e-05
9.58501e-05
9.58337e-05
9.58516e-05
9.5835e-05
9.0751e-05
9.09165e-05
9.58602e-05
9.58316e-05
9.58616e-05
9.5833e-05
9.5855e-05
9.58714e-05
9.5856e-05
9.07499e-05
9.09141e-05
9.58638e-05
9.58679e-05
9.58649e-05
9.09146e-05
9.08691e-05
9.58508e-05
9.58342e-05
9.08635e-05
9.58608e-05
9.58321e-05
9.58551e-05
9.08624e-05
9.5864e-05
0.000151177
0.000151181
0.00015117
0.000151177
7.00657e-05
4.95516e-05
6.90753e-05
4.95611e-05
2.36287e-05
2.36252e-05
7.00593e-05
4.95497e-05
6.90823e-05
4.95592e-05
0.000150144
0.000150133
0.000150141
0.000147061
0.000147065
0.000147053
0.000147062
6.71072e-05
6.58012e-05
0.000126169
0.000100962
6.61455e-05
6.64584e-05
0.000125158
2.36265e-05
2.3623e-05
6.71059e-05
0.000126171
6.57883e-05
0.000100953
6.61442e-05
0.000125155
6.64705e-05
6.10723e-05
6.10751e-05
8.24871e-05
6.15138e-05
6.15147e-05
7.20818e-05
4.95719e-05
7.11836e-05
4.95802e-05
2.36163e-05
2.36131e-05
7.20758e-05
4.957e-05
7.119e-05
4.95785e-05
0.000146074
0.000146063
0.000146071
0.00014309
0.000143093
0.000143082
0.00014309
7.00431e-05
6.76998e-05
0.000122229
9.83017e-05
6.90367e-05
6.83513e-05
0.000121299
2.3614e-05
2.36108e-05
7.00414e-05
0.000122231
6.76885e-05
9.82938e-05
6.90351e-05
0.000121296
6.83608e-05
6.20274e-05
6.20288e-05
8.21861e-05
6.244e-05
6.24421e-05
7.37952e-05
4.95916e-05
7.30639e-05
4.9596e-05
2.36051e-05
2.36018e-05
7.37895e-05
4.95897e-05
7.30705e-05
4.95943e-05
0.000142071
0.00014206
0.000142069
0.000139086
0.000139088
0.000139077
0.000139086
7.3052e-05
6.94925e-05
0.000118565
9.61185e-05
7.20554e-05
7.01273e-05
0.000117655
2.36027e-05
2.35994e-05
7.30502e-05
0.000118568
6.94821e-05
9.61117e-05
7.20543e-05
0.000117653
7.01351e-05
6.28959e-05
6.28972e-05
8.24165e-05
6.3266e-05
6.3267e-05
7.54313e-05
4.95993e-05
7.46955e-05
4.96053e-05
2.35945e-05
2.35929e-05
7.54268e-05
4.95975e-05
7.47014e-05
4.96036e-05
0.00013818
0.000138169
0.000138178
0.000135651
0.000135653
0.000135642
0.000135651
7.61065e-05
7.12212e-05
0.000115224
9.46536e-05
7.50507e-05
7.18459e-05
0.000114495
2.35923e-05
2.35908e-05
7.61045e-05
0.000115226
7.12136e-05
9.4648e-05
7.5049e-05
0.000114493
7.18497e-05
6.37096e-05
6.37137e-05
8.32572e-05
6.40663e-05
6.4065e-05
7.67429e-05
4.96134e-05
7.6221e-05
4.96144e-05
2.35868e-05
2.35839e-05
7.67432e-05
4.96118e-05
7.62254e-05
4.96127e-05
0.000134807
0.000134797
0.000134805
0.000132234
0.000132235
0.000132225
0.000132234
7.92499e-05
7.28517e-05
0.000112542
9.38811e-05
7.82037e-05
7.34131e-05
0.000111925
2.35845e-05
2.35817e-05
7.92492e-05
0.000112545
7.28445e-05
9.3876e-05
7.82034e-05
0.000111926
7.34171e-05
6.44846e-05
6.44865e-05
8.4673e-05
6.47474e-05
6.47502e-05
7.76191e-05
4.96073e-05
7.73013e-05
4.96013e-05
2.35764e-05
2.35735e-05
7.76223e-05
4.96057e-05
7.72995e-05
4.95998e-05
0.0001315
0.00013149
0.000131499
0.000130118
0.000130119
0.000130108
0.000130118
8.21365e-05
7.42985e-05
0.000110362
9.39663e-05
8.12235e-05
7.47718e-05
0.000110105
2.35741e-05
2.35712e-05
8.21344e-05
0.000110365
7.42946e-05
9.39632e-05
8.12196e-05
0.000110106
7.47722e-05
6.50791e-05
6.50783e-05
8.68666e-05
6.52854e-05
6.52858e-05
7.80526e-05
4.95844e-05
7.79226e-05
4.95743e-05
2.35656e-05
2.35625e-05
7.80584e-05
4.9583e-05
7.793e-05
4.95731e-05
0.000129976
0.000129965
0.000129975
0.00012957
0.000129572
0.000129562
0.00012957
8.41862e-05
7.5446e-05
0.000110141
9.55118e-05
8.36286e-05
7.56619e-05
0.00011024
2.35631e-05
2.356e-05
8.4187e-05
0.000110143
7.54418e-05
9.55053e-05
8.3629e-05
0.000110241
7.56654e-05
6.54832e-05
6.54828e-05
8.92907e-05
6.55556e-05
6.55548e-05
7.81829e-05
4.95548e-05
7.81384e-05
4.95471e-05
2.35554e-05
2.35534e-05
7.81895e-05
4.95535e-05
7.81443e-05
4.95458e-05
0.000129252
0.000129243
0.00012925
0.00012757
0.000127572
0.000127563
0.000127571
8.49412e-05
7.57914e-05
0.00011035
9.62096e-05
8.48328e-05
7.58282e-05
0.000110142
2.35528e-05
2.35509e-05
8.49412e-05
0.000110351
7.57957e-05
9.62051e-05
8.48331e-05
0.000110142
7.58378e-05
6.558e-05
6.55805e-05
9.04628e-05
6.55801e-05
6.55805e-05
7.81268e-05
4.95352e-05
7.81305e-05
4.95316e-05
2.35491e-05
2.35485e-05
7.81329e-05
4.95339e-05
7.81401e-05
4.95304e-05
0.000126929
0.00012692
0.000126928
0.000125381
0.000125382
0.000125374
0.000125382
8.50853e-05
7.58003e-05
0.0001089
9.56221e-05
8.50563e-05
7.57963e-05
0.000108508
2.35464e-05
2.35459e-05
8.5089e-05
0.000108902
7.58009e-05
9.56198e-05
8.50586e-05
0.00010851
7.58054e-05
6.55355e-05
6.55358e-05
9.05241e-05
6.55298e-05
6.55305e-05
7.80732e-05
4.95266e-05
7.80689e-05
4.95257e-05
2.35463e-05
2.35468e-05
7.80827e-05
4.95254e-05
7.80788e-05
4.95244e-05
0.000125033
0.000125024
0.000125032
0.00012454
0.00012454
0.000124533
0.000124541
8.50949e-05
7.577e-05
0.00010784
9.53785e-05
8.50834e-05
7.5774e-05
0.000107782
2.35436e-05
2.35442e-05
8.50987e-05
0.000107844
7.57727e-05
9.53771e-05
8.50866e-05
0.000107785
7.57795e-05
6.55013e-05
6.55025e-05
9.04392e-05
6.5504e-05
6.5505e-05
7.80533e-05
4.95239e-05
7.80463e-05
4.95241e-05
2.35456e-05
2.35464e-05
7.80611e-05
4.95226e-05
7.80556e-05
4.95228e-05
0.00012452
0.000124512
0.000124521
0.000124523
0.000124523
0.000124515
0.000124524
8.51425e-05
7.57614e-05
0.000107665
9.55313e-05
8.51345e-05
7.5776e-05
0.000107716
2.35429e-05
2.35438e-05
8.51462e-05
0.000107672
7.57672e-05
9.55302e-05
8.514e-05
0.00010772
7.57832e-05
6.54952e-05
6.54959e-05
9.06216e-05
6.55006e-05
6.55012e-05
7.80482e-05
4.95235e-05
7.80379e-05
4.9524e-05
2.35455e-05
2.35465e-05
7.80555e-05
4.95223e-05
7.80455e-05
4.95228e-05
0.000124565
0.000124558
0.000124566
0.000124665
0.000124664
0.000124657
0.000124666
8.51628e-05
7.57756e-05
0.000107906
9.57427e-05
8.51541e-05
7.57854e-05
0.000107951
2.35429e-05
2.35439e-05
8.51665e-05
0.000107912
7.57784e-05
9.57415e-05
8.51578e-05
0.000107955
7.57921e-05
6.54964e-05
6.5497e-05
9.07616e-05
6.55025e-05
6.55032e-05
7.80471e-05
4.95236e-05
7.80352e-05
4.95241e-05
2.35456e-05
2.35465e-05
7.80547e-05
4.95224e-05
7.80431e-05
4.95229e-05
0.000124687
0.00012468
0.000124688
0.000124727
0.000124726
0.000124719
0.000124728
8.51676e-05
7.57808e-05
0.000108038
9.58333e-05
8.51585e-05
7.57907e-05
0.000108054
2.3543e-05
2.35439e-05
8.51707e-05
0.000108043
7.57834e-05
9.58317e-05
8.51612e-05
0.000108059
7.57963e-05
6.54985e-05
6.5499e-05
9.08276e-05
6.55042e-05
6.55048e-05
7.80472e-05
4.95237e-05
7.80353e-05
4.95242e-05
2.35457e-05
2.35465e-05
7.80549e-05
4.95225e-05
7.80433e-05
4.9523e-05
0.000124733
0.000124725
0.000124735
0.000124745
0.000124743
0.000124736
0.000124746
8.51704e-05
7.57826e-05
0.00010808
9.58568e-05
8.51651e-05
7.57919e-05
0.000108084
2.3543e-05
2.35439e-05
8.51734e-05
0.000108085
7.57853e-05
9.58556e-05
8.51683e-05
0.00010809
7.57974e-05
6.54992e-05
6.54998e-05
9.08267e-05
6.55046e-05
6.55051e-05
7.80474e-05
4.95238e-05
7.80356e-05
4.95242e-05
2.35457e-05
2.35466e-05
7.8055e-05
4.95226e-05
7.80435e-05
4.9523e-05
0.000124745
0.000124738
0.000124748
0.000124751
0.000124749
0.000124742
0.000124751
8.51703e-05
7.57818e-05
0.000108095
9.58664e-05
8.51687e-05
7.57915e-05
0.000108097
2.3543e-05
2.3544e-05
8.51731e-05
0.0001081
7.57851e-05
9.58653e-05
8.51712e-05
0.000108102
7.57972e-05
6.54993e-05
6.54997e-05
9.08279e-05
6.55046e-05
6.5505e-05
7.80475e-05
4.95238e-05
7.80358e-05
4.95242e-05
2.35457e-05
2.35466e-05
7.80549e-05
4.95226e-05
7.80435e-05
4.9523e-05
0.000124751
0.000124744
0.000124752
0.000124753
0.000124752
0.000124745
0.000124753
8.51719e-05
7.57827e-05
0.000108101
9.58704e-05
8.517e-05
7.5791e-05
0.000108102
2.3543e-05
2.3544e-05
8.51741e-05
0.000108104
7.57856e-05
9.58689e-05
8.51722e-05
0.000108105
7.57973e-05
6.54993e-05
6.54997e-05
9.08294e-05
6.55045e-05
6.55051e-05
7.80474e-05
4.95238e-05
7.80358e-05
4.95242e-05
2.35457e-05
2.35466e-05
7.80548e-05
4.95226e-05
7.80434e-05
4.9523e-05
0.000124752
0.000124745
0.000124754
0.000124754
0.000124752
0.000124745
0.000124754
8.51719e-05
7.57828e-05
0.000108103
9.58693e-05
8.51701e-05
7.57914e-05
0.000108104
2.3543e-05
2.3544e-05
8.5175e-05
0.000108106
7.57857e-05
9.58678e-05
8.51738e-05
0.000108106
7.57973e-05
6.54992e-05
6.54997e-05
9.08376e-05
6.55044e-05
6.5505e-05
7.80472e-05
4.95238e-05
7.80356e-05
4.95242e-05
2.35457e-05
2.35466e-05
7.80547e-05
4.95226e-05
7.80433e-05
4.9523e-05
0.000124752
0.000124746
0.000124754
0.000124754
0.000124752
0.000124746
0.000124754
8.51706e-05
7.5782e-05
0.000108103
9.58689e-05
8.5171e-05
7.5791e-05
0.000108103
2.3543e-05
2.3544e-05
8.51745e-05
0.000108106
7.57853e-05
9.58676e-05
8.51745e-05
0.000108106
7.57972e-05
6.5499e-05
6.54995e-05
9.08426e-05
6.55042e-05
6.55048e-05
7.8047e-05
4.95238e-05
7.80353e-05
4.95242e-05
2.35457e-05
2.35466e-05
7.80544e-05
4.95226e-05
7.80431e-05
4.9523e-05
0.000124752
0.000124746
0.000124754
0.000124755
0.000124753
0.000124746
0.000124755
8.51707e-05
7.57822e-05
0.000108102
9.58684e-05
8.51723e-05
7.57905e-05
0.000108102
2.3543e-05
2.3544e-05
8.51758e-05
0.000108106
7.57856e-05
9.58671e-05
8.51752e-05
0.000108106
7.57974e-05
6.54988e-05
6.54994e-05
9.08114e-05
6.55041e-05
6.55047e-05
7.80467e-05
4.95241e-05
7.8035e-05
4.95248e-05
2.35453e-05
2.35462e-05
7.80541e-05
4.95223e-05
7.80428e-05
4.95227e-05
0.000124753
0.000124747
0.000124755
0.000124755
0.000124753
0.000124747
0.000124755
8.51717e-05
7.5782e-05
0.000108103
9.58692e-05
8.51731e-05
7.57918e-05
0.000108104
2.3543e-05
2.3544e-05
8.51771e-05
0.000108107
7.57859e-05
9.58677e-05
8.51754e-05
0.000108107
7.57975e-05
6.54988e-05
6.54993e-05
9.08251e-05
6.5504e-05
6.55046e-05
7.80462e-05
4.95246e-05
7.80346e-05
4.95251e-05
2.35452e-05
2.35461e-05
7.80536e-05
4.9522e-05
7.80423e-05
4.95224e-05
0.000124753
0.000124747
0.000124756
0.000124756
0.000124754
0.000124747
0.000124756
8.51716e-05
7.5781e-05
0.000108104
9.58697e-05
8.51722e-05
7.57914e-05
0.000108104
2.3543e-05
2.3544e-05
8.51766e-05
0.000108108
7.57855e-05
9.58679e-05
8.51739e-05
0.000108108
7.57971e-05
6.54986e-05
6.54991e-05
9.08319e-05
6.55038e-05
6.55044e-05
7.80457e-05
4.95246e-05
7.80342e-05
4.95251e-05
2.35452e-05
2.35461e-05
7.80531e-05
4.95219e-05
7.80419e-05
4.95223e-05
0.000124754
0.000124748
0.000124756
0.000124757
0.000124755
0.000124748
0.000124756
8.51724e-05
7.57807e-05
0.000108104
9.58708e-05
8.51723e-05
7.57912e-05
0.000108104
2.3543e-05
2.3544e-05
8.51768e-05
0.000108109
7.57854e-05
9.58685e-05
8.51736e-05
0.000108109
7.57969e-05
6.54984e-05
6.5499e-05
9.08376e-05
6.55037e-05
6.55042e-05
7.80455e-05
4.95247e-05
7.80339e-05
4.95252e-05
2.35452e-05
2.3546e-05
7.80528e-05
4.95218e-05
7.80416e-05
4.95223e-05
0.000124755
0.000124748
0.000124757
0.000124757
0.000124756
0.000124749
0.000124758
8.5175e-05
7.57799e-05
0.000108105
9.58711e-05
8.51698e-05
7.57905e-05
0.000108105
2.3543e-05
2.3544e-05
8.51788e-05
0.00010811
7.57848e-05
9.58682e-05
8.51705e-05
0.00010811
7.57968e-05
6.54982e-05
6.54988e-05
9.08127e-05
6.55035e-05
6.55041e-05
7.80454e-05
4.95248e-05
7.80334e-05
4.95252e-05
2.35451e-05
2.3546e-05
7.80526e-05
4.95218e-05
7.80411e-05
4.95222e-05
0.000124757
0.00012475
0.000124758
0.000124758
0.000124757
0.00012475
0.000124759
8.5174e-05
7.57808e-05
0.000108105
9.58715e-05
8.51665e-05
7.57886e-05
0.000108106
2.3543e-05
2.3544e-05
8.51762e-05
0.000108111
7.57848e-05
9.58686e-05
8.51673e-05
0.000108112
7.5796e-05
6.54981e-05
6.54987e-05
9.08528e-05
6.55033e-05
6.55039e-05
7.80446e-05
4.95248e-05
7.80332e-05
4.95253e-05
2.35451e-05
2.3546e-05
7.80519e-05
4.95218e-05
7.80408e-05
4.95222e-05
0.000124758
0.000124751
0.000124759
0.000124758
0.000124758
0.00012475
0.000124759
8.517e-05
7.5782e-05
0.000108106
9.58731e-05
8.51673e-05
7.57894e-05
0.000108107
2.3543e-05
2.3544e-05
8.5171e-05
0.000108112
7.57848e-05
9.58697e-05
8.51697e-05
0.000108112
7.57956e-05
6.54978e-05
6.54983e-05
9.0904e-05
6.55029e-05
6.55035e-05
7.80445e-05
4.95249e-05
7.80329e-05
4.95253e-05
2.35451e-05
2.3546e-05
7.80517e-05
4.95218e-05
7.80404e-05
4.95222e-05
0.000124757
0.00012475
0.000124759
0.000124755
0.000124754
0.000124748
0.000124755
8.51673e-05
7.57797e-05
0.000108106
9.58705e-05
8.51686e-05
7.57907e-05
0.000108105
2.3543e-05
2.3544e-05
8.51692e-05
0.000108111
7.57837e-05
9.5867e-05
8.5172e-05
0.000108111
7.57954e-05
6.54976e-05
6.54981e-05
9.07992e-05
6.55029e-05
6.55034e-05
4.9525e-05
7.8034e-05
2.35451e-05
4.95218e-05
7.80411e-05
0.000124754
0.000124747
0.000124754
7.57766e-05
0.000108103
8.51678e-05
2.3543e-05
0.000108109
7.57826e-05
8.51696e-05
6.54977e-05
6.54982e-05
2.36315e-05
2.36304e-05
6.10306e-05
6.10307e-05
4.955e-05
6.89641e-05
4.95519e-05
6.89649e-05
6.54837e-05
0.00012717
6.5682e-05
6.54974e-05
0.000127164
6.56831e-05
2.36314e-05
6.10321e-05
6.10317e-05
2.36318e-05
4.95481e-05
6.89575e-05
6.54912e-05
0.000127171
6.5682e-05
4.95442e-05
6.89561e-05
0.00012716
6.54808e-05
6.56809e-05
6.54836e-05
0.000127177
6.56823e-05
4.95506e-05
6.89648e-05
0.000127172
6.54891e-05
6.56812e-05
4.95467e-05
6.89636e-05
2.36292e-05
6.10294e-05
6.10304e-05
2.36308e-05
0.000127176
6.54939e-05
6.56809e-05
0.000127177
6.54927e-05
6.56819e-05
4.95464e-05
6.8955e-05
4.95474e-05
6.89565e-05
6.103e-05
6.10309e-05
2.36306e-05
2.36301e-05
2.36287e-05
2.36252e-05
2.36276e-05
2.3624e-05
6.10693e-05
6.10739e-05
8.24899e-05
6.1513e-05
6.15148e-05
2.3619e-05
2.36225e-05
2.36178e-05
2.36212e-05
8.22717e-05
6.19843e-05
6.1986e-05
6.15527e-05
6.15569e-05
7.00668e-05
4.95535e-05
6.90776e-05
4.9563e-05
6.71067e-05
6.58014e-05
0.000126162
0.000100928
6.61451e-05
6.64552e-05
0.00012515
6.7108e-05
6.57915e-05
0.000126156
0.000100916
6.61463e-05
6.64739e-05
0.000125144
7.01626e-05
4.95706e-05
4.95625e-05
7.10856e-05
7.01652e-05
4.95725e-05
4.95643e-05
7.10866e-05
6.75787e-05
0.000100203
6.74088e-05
0.000123175
6.67634e-05
0.000124151
6.85532e-05
6.75801e-05
0.000100191
6.743e-05
0.000123169
6.67487e-05
0.000124145
6.85545e-05
6.10757e-05
6.10705e-05
8.24942e-05
6.15158e-05
6.15139e-05
2.36291e-05
2.36256e-05
2.3619e-05
2.36225e-05
8.22756e-05
6.19874e-05
6.19852e-05
6.15579e-05
6.15534e-05
2.36193e-05
2.36229e-05
6.7107e-05
6.57935e-05
0.000126165
0.000100945
6.6145e-05
6.64678e-05
0.000125149
7.00579e-05
4.95459e-05
6.90805e-05
4.95553e-05
6.71058e-05
0.000126153
6.57984e-05
0.000100909
6.61441e-05
0.000125142
6.6452e-05
7.01697e-05
4.95688e-05
4.95606e-05
7.10788e-05
6.75791e-05
0.00010022
6.74242e-05
0.000123174
6.67508e-05
0.000124155
6.85536e-05
7.01679e-05
4.95649e-05
4.95568e-05
7.10772e-05
6.75781e-05
0.000100184
0.000123167
6.74084e-05
0.000124143
6.67578e-05
6.85523e-05
7.00666e-05
4.95522e-05
6.90771e-05
4.95617e-05
6.71059e-05
0.000126165
6.5791e-05
0.000100931
6.61443e-05
0.000125154
6.6466e-05
7.00651e-05
4.95483e-05
6.90749e-05
4.95578e-05
6.75793e-05
0.000100236
6.74153e-05
0.000123183
6.6758e-05
0.000124159
6.85538e-05
7.01645e-05
4.95712e-05
4.95631e-05
7.10864e-05
6.7578e-05
0.000100206
0.000123179
6.74224e-05
0.000124155
6.67484e-05
6.85525e-05
7.01622e-05
4.95674e-05
4.95592e-05
7.10849e-05
6.10684e-05
6.10736e-05
8.24867e-05
6.15113e-05
6.15143e-05
2.3628e-05
2.36245e-05
2.36167e-05
2.36202e-05
8.2269e-05
6.19825e-05
6.19857e-05
6.15512e-05
6.15561e-05
2.36183e-05
2.36218e-05
6.71071e-05
0.000126169
6.57913e-05
0.000100952
6.61453e-05
0.000125158
6.64697e-05
7.00574e-05
4.9548e-05
6.90818e-05
4.95575e-05
7.00589e-05
4.9549e-05
6.90835e-05
4.95585e-05
6.75783e-05
0.000100227
0.00012318
6.74266e-05
0.000124161
6.67457e-05
6.85523e-05
6.75795e-05
0.000100227
0.000123183
6.74262e-05
0.000124159
6.67484e-05
6.85536e-05
7.01696e-05
4.95671e-05
4.95589e-05
7.10765e-05
7.01714e-05
4.9568e-05
4.95599e-05
7.1078e-05
2.36278e-05
2.36243e-05
2.36273e-05
2.36238e-05
8.22693e-05
6.19849e-05
6.19865e-05
6.15553e-05
6.15572e-05
2.36181e-05
2.36216e-05
2.36176e-05
2.36211e-05
2.36163e-05
2.36131e-05
2.36151e-05
2.36119e-05
6.20251e-05
6.20288e-05
8.21885e-05
6.24395e-05
6.24408e-05
2.36075e-05
2.36106e-05
2.36063e-05
2.36094e-05
8.20903e-05
6.28572e-05
6.28579e-05
6.24767e-05
6.24801e-05
7.2083e-05
4.95738e-05
7.11861e-05
4.95822e-05
7.00423e-05
6.77053e-05
0.000122221
9.82702e-05
6.90361e-05
6.83448e-05
0.00012129
7.00437e-05
6.76915e-05
0.000122215
9.82575e-05
6.90374e-05
6.83643e-05
0.000121284
7.21764e-05
4.95905e-05
4.95817e-05
7.29876e-05
7.2179e-05
4.95925e-05
4.95837e-05
7.29891e-05
7.05415e-05
9.76892e-05
6.92398e-05
0.000119453
6.86188e-05
0.00012037
7.15588e-05
7.0543e-05
9.76764e-05
6.92582e-05
0.000119447
6.86059e-05
0.000120364
7.15605e-05
6.203e-05
6.2026e-05
8.21922e-05
6.24431e-05
6.24409e-05
2.36167e-05
2.36135e-05
2.36076e-05
2.36106e-05
8.20937e-05
6.28596e-05
6.28576e-05
6.24821e-05
6.24781e-05
2.36079e-05
2.3611e-05
7.00428e-05
6.76934e-05
0.000122225
9.82863e-05
6.90362e-05
6.83583e-05
0.000121289
7.20741e-05
4.95662e-05
7.11881e-05
4.95745e-05
7.00414e-05
0.000122213
6.76994e-05
9.82514e-05
6.90351e-05
0.000121282
6.8344e-05
7.21835e-05
4.95888e-05
4.958e-05
7.2982e-05
7.05421e-05
9.7705e-05
6.92525e-05
0.000119453
6.86074e-05
0.000120375
7.15601e-05
7.21814e-05
4.95848e-05
4.9576e-05
7.298e-05
7.05409e-05
9.76705e-05
0.000119446
6.92382e-05
0.000120363
6.86127e-05
7.15584e-05
7.20829e-05
4.95725e-05
7.11854e-05
4.9581e-05
7.00417e-05
0.000122225
6.76912e-05
9.82727e-05
6.90353e-05
0.000121295
6.83566e-05
7.20814e-05
4.95687e-05
7.11831e-05
4.95772e-05
7.05423e-05
9.77199e-05
6.92459e-05
0.000119462
6.86142e-05
0.000120378
7.15599e-05
7.21785e-05
4.95912e-05
4.95825e-05
7.29889e-05
7.05408e-05
9.76917e-05
0.000119458
6.92509e-05
0.000120375
6.86052e-05
7.15585e-05
7.21761e-05
4.95874e-05
4.95786e-05
7.29874e-05
6.20236e-05
6.20282e-05
8.21858e-05
6.24376e-05
6.24411e-05
2.36156e-05
2.36124e-05
2.36053e-05
2.36083e-05
8.20882e-05
6.28544e-05
6.28578e-05
6.2475e-05
6.24801e-05
2.36069e-05
2.36099e-05
7.00427e-05
0.000122229
6.76909e-05
9.82931e-05
6.90364e-05
0.000121299
6.83607e-05
7.20735e-05
4.95683e-05
7.11895e-05
4.95768e-05
7.20751e-05
4.95693e-05
7.11913e-05
4.95778e-05
7.0541e-05
9.77125e-05
0.00011946
6.92548e-05
0.000120381
6.86028e-05
7.15587e-05
7.05425e-05
9.77121e-05
0.000119462
6.92549e-05
0.000120379
6.86053e-05
7.15602e-05
7.2183e-05
4.95871e-05
4.95783e-05
7.29798e-05
7.2185e-05
4.9588e-05
4.95792e-05
7.29814e-05
2.36154e-05
2.36122e-05
2.36149e-05
2.36117e-05
8.20883e-05
6.2857e-05
6.28585e-05
6.2479e-05
6.2481e-05
2.36067e-05
2.36097e-05
2.36062e-05
2.36092e-05
2.3605e-05
2.36016e-05
2.36038e-05
2.36005e-05
6.28944e-05
6.28972e-05
8.24184e-05
6.32665e-05
6.32669e-05
2.35965e-05
2.3599e-05
2.35953e-05
2.35979e-05
8.24241e-05
6.36625e-05
6.36695e-05
6.33087e-05
6.33114e-05
7.37966e-05
4.95934e-05
7.30666e-05
4.9598e-05
7.30508e-05
6.9497e-05
0.000118556
9.60894e-05
7.20542e-05
7.01214e-05
0.000117645
7.30525e-05
6.9485e-05
0.00011855
9.60761e-05
7.2056e-05
7.01382e-05
0.000117639
7.38686e-05
4.95988e-05
4.95961e-05
7.46078e-05
7.38712e-05
4.96007e-05
4.9598e-05
7.46096e-05
7.35379e-05
9.56365e-05
7.09913e-05
0.000115961
7.03691e-05
0.000116794
7.45439e-05
7.35396e-05
9.56234e-05
7.10099e-05
0.000115955
7.03585e-05
0.000116788
7.45457e-05
6.28984e-05
6.28945e-05
8.24213e-05
6.32683e-05
6.32671e-05
2.36054e-05
2.3602e-05
2.35965e-05
2.35992e-05
8.24267e-05
6.36737e-05
6.36661e-05
6.33127e-05
6.33098e-05
2.35969e-05
2.35995e-05
7.30517e-05
6.94865e-05
0.000118562
9.61042e-05
7.20553e-05
7.01329e-05
0.000117646
7.37876e-05
4.95858e-05
7.30683e-05
4.95903e-05
7.30499e-05
0.00011855
6.94905e-05
9.60707e-05
7.20538e-05
0.000117639
7.01202e-05
7.38746e-05
4.9597e-05
4.95943e-05
7.46034e-05
7.35385e-05
9.56515e-05
7.1004e-05
0.000115962
7.03596e-05
0.0001168
7.45448e-05
7.38725e-05
4.9593e-05
4.95903e-05
7.46012e-05
7.3537e-05
9.56183e-05
0.000115955
7.09894e-05
0.000116788
7.03638e-05
7.4543e-05
7.37964e-05
4.95922e-05
7.3066e-05
4.95966e-05
7.30505e-05
0.000118562
6.94843e-05
9.60917e-05
7.20539e-05
0.000117651
7.01313e-05
7.37949e-05
4.95884e-05
7.30638e-05
4.95929e-05
7.3539e-05
9.56651e-05
7.0998e-05
0.000115971
7.0366e-05
0.000116803
7.45453e-05
7.38706e-05
4.95995e-05
4.95967e-05
7.46096e-05
7.35375e-05
9.5639e-05
0.000115967
7.10026e-05
0.0001168
7.03576e-05
7.45437e-05
7.38684e-05
4.95957e-05
4.9593e-05
7.46079e-05
6.28918e-05
6.28966e-05
8.24163e-05
6.32648e-05
6.32667e-05
2.36044e-05
2.36011e-05
2.35942e-05
2.35968e-05
8.24224e-05
6.36597e-05
6.36712e-05
6.33075e-05
6.3311e-05
2.35958e-05
2.35985e-05
7.30518e-05
0.000118566
6.94841e-05
9.61103e-05
7.20558e-05
0.000117655
7.0135e-05
7.37873e-05
4.9588e-05
7.30702e-05
4.95926e-05
7.37889e-05
4.9589e-05
7.30721e-05
4.95935e-05
7.35374e-05
9.56585e-05
0.000115969
7.10064e-05
0.000116806
7.03557e-05
7.45435e-05
7.3539e-05
9.56571e-05
0.000115972
7.10075e-05
0.000116804
7.03576e-05
7.45451e-05
7.38742e-05
4.95954e-05
4.95926e-05
7.46013e-05
7.38761e-05
4.95963e-05
4.95936e-05
7.46033e-05
2.36041e-05
2.36008e-05
2.36036e-05
2.36003e-05
8.24224e-05
6.36693e-05
6.36731e-05
6.33103e-05
6.33113e-05
2.35956e-05
2.35983e-05
2.35951e-05
2.35978e-05
2.35945e-05
2.3593e-05
2.35933e-05
2.35917e-05
6.37004e-05
6.371e-05
8.32582e-05
6.40758e-05
6.40681e-05
2.3589e-05
2.35911e-05
2.35879e-05
2.35899e-05
8.33898e-05
6.4446e-05
6.44479e-05
6.41204e-05
6.41151e-05
7.54329e-05
4.96012e-05
7.46982e-05
4.96072e-05
7.6105e-05
7.12242e-05
0.000115214
9.46272e-05
7.50492e-05
7.18416e-05
0.000114486
7.6107e-05
7.12167e-05
0.000115208
9.46133e-05
7.50511e-05
7.18529e-05
0.000114479
7.55163e-05
4.96133e-05
4.96065e-05
7.61445e-05
7.55186e-05
4.96153e-05
4.96084e-05
7.61465e-05
7.66284e-05
9.43912e-05
7.26547e-05
0.000113166
7.20622e-05
0.000113812
7.76919e-05
7.66298e-05
9.43767e-05
7.26676e-05
0.000113158
7.20498e-05
0.000113805
7.7694e-05
6.37143e-05
6.37036e-05
8.32605e-05
6.40669e-05