/*--------------------------------*- C++ -*----------------------------------*\
| =========                 |                                                 |
| \\      /  F ield         | OpenFOAM: The Open Source CFD Toolbox           |
|  \\    /   O peration     | Version:  v1906                                 |
|   \\  /    A nd           | Web:      www.OpenFOAM.com                      |
|    \\/     M anipulation  |                                                 |
\*---------------------------------------------------------------------------*/
FoamFile
{
    version     2.0;
    format      ascii;
    class       volScalarField;
    location    "125";
    object      nut;
}
// * * * * * * * * * * * * * * * * * * * * * * * * * * * * * * * * * * * * * //

dimensions      [0 2 -1 0 0 0 0];


internalField   nonuniform List<scalar> 
43024
(
0.000124773
9.58731e-05
9.58678e-05
9.08789e-05
0.00012477
9.58725e-05
9.58666e-05
9.08212e-05
0.000124772
9.58746e-05
9.58693e-05
9.07443e-05
0.000124774
9.58753e-05
9.58697e-05
9.07438e-05
0.000124764
9.58711e-05
9.58658e-05
9.08045e-05
0.000124762
9.58687e-05
9.58628e-05
9.08663e-05
0.000124761
9.58696e-05
9.58638e-05
9.08706e-05
0.000124761
9.58701e-05
9.58638e-05
9.08466e-05
0.000124761
9.58716e-05
9.58654e-05
9.08076e-05
0.000124761
9.58721e-05
9.58663e-05
9.07698e-05
0.000124761
9.5873e-05
9.58671e-05
9.07698e-05
0.000124762
9.58738e-05
9.58678e-05
9.07799e-05
0.000124762
9.58752e-05
9.58692e-05
9.0778e-05
0.000124762
9.58774e-05
9.58713e-05
9.07747e-05
0.000124763
9.58808e-05
9.58746e-05
9.0806e-05
0.000124763
9.58867e-05
9.58803e-05
9.08497e-05
0.000124764
9.58963e-05
9.58899e-05
9.08225e-05
0.000124768
9.59121e-05
9.59059e-05
9.08013e-05
0.000124774
9.5938e-05
9.59324e-05
9.08223e-05
0.00012481
9.59344e-05
9.59283e-05
9.08576e-05
0.000127535
9.65377e-05
9.65335e-05
9.08923e-05
9.07719e-05
9.58531e-05
9.58364e-05
9.07927e-05
9.58604e-05
9.58326e-05
9.58723e-05
9.58565e-05
9.07571e-05
9.58668e-05
9.58646e-05
9.08489e-05
9.08269e-05
9.0733e-05
9.58549e-05
9.58371e-05
9.58522e-05
9.5835e-05
9.07745e-05
9.07675e-05
9.58624e-05
9.58335e-05
9.58593e-05
9.58315e-05
9.58574e-05
9.58709e-05
9.58553e-05
9.07605e-05
9.07627e-05
9.58653e-05
9.58655e-05
9.58633e-05
9.07685e-05
9.07513e-05
9.07707e-05
9.58553e-05
9.58364e-05
9.58559e-05
9.58392e-05
9.07383e-05
9.08264e-05
9.58627e-05
9.58325e-05
9.58632e-05
9.58363e-05
9.58579e-05
9.58747e-05
9.58577e-05
9.07289e-05
9.08435e-05
9.5866e-05
9.58698e-05
9.58655e-05
9.0743e-05
9.07271e-05
9.0868e-05
9.58565e-05
9.58392e-05
9.58572e-05
9.58412e-05
9.07725e-05
9.09003e-05
9.58639e-05
9.58359e-05
9.58646e-05
9.58378e-05
9.586e-05
9.58775e-05
9.58584e-05
9.07882e-05
9.08961e-05
9.58677e-05
9.58721e-05
9.58661e-05
9.07876e-05
9.08014e-05
9.09072e-05
9.58551e-05
9.58385e-05
9.5853e-05
9.58359e-05
9.08617e-05
9.08712e-05
9.58625e-05
9.5835e-05
9.58605e-05
9.58323e-05
9.58583e-05
9.58728e-05
9.58539e-05
9.08766e-05
9.08426e-05
9.5866e-05
9.58667e-05
9.58617e-05
9.08614e-05
9.08807e-05
9.08661e-05
9.58503e-05
9.5834e-05
9.58498e-05
9.58317e-05
9.08814e-05
9.08116e-05
9.58577e-05
9.5831e-05
9.58571e-05
9.58281e-05
9.58523e-05
9.58683e-05
9.58525e-05
9.08675e-05
9.07783e-05
9.58601e-05
9.58623e-05
9.58603e-05
9.08872e-05
9.08831e-05
9.08023e-05
9.585e-05
9.58321e-05
9.58495e-05
9.5831e-05
9.08524e-05
9.07608e-05
9.58573e-05
9.58287e-05
9.58569e-05
9.58278e-05
9.58519e-05
9.58679e-05
9.58535e-05
9.08267e-05
9.07447e-05
9.58597e-05
9.5862e-05
9.58614e-05
9.08588e-05
9.08485e-05
9.07572e-05
9.58518e-05
9.58332e-05
9.58496e-05
9.58312e-05
9.08035e-05
9.07536e-05
9.5859e-05
9.58295e-05
9.58565e-05
9.58281e-05
9.58545e-05
9.5868e-05
9.58532e-05
9.07738e-05
9.07507e-05
9.58625e-05
9.58624e-05
9.58612e-05
9.08138e-05
9.07905e-05
9.07573e-05
9.58511e-05
9.58334e-05
9.58499e-05
9.58348e-05
9.07525e-05
9.07859e-05
9.58584e-05
9.58295e-05
9.58573e-05
9.58309e-05
9.58544e-05
9.58707e-05
9.58536e-05
9.07372e-05
9.07826e-05
9.5862e-05
9.58644e-05
9.58612e-05
9.07737e-05
9.07463e-05
9.08004e-05
9.58525e-05
9.58358e-05
9.58533e-05
9.58367e-05
9.07512e-05
9.08391e-05
9.58598e-05
9.58317e-05
9.58604e-05
9.58327e-05
9.58573e-05
9.5872e-05
9.58561e-05
9.07429e-05
9.0834e-05
9.5865e-05
9.58662e-05
9.5864e-05
9.07763e-05
9.07602e-05
9.08469e-05
9.58534e-05
9.58365e-05
9.58537e-05
9.58368e-05
9.07911e-05
9.08666e-05
9.58605e-05
9.58325e-05
9.58607e-05
9.58331e-05
9.58567e-05
9.58725e-05
9.58562e-05
9.07802e-05
9.0867e-05
9.58646e-05
9.58667e-05
9.5864e-05
9.07969e-05
9.07972e-05
9.08726e-05
9.58541e-05
9.58372e-05
9.58543e-05
9.58374e-05
9.0823e-05
9.08795e-05
9.58612e-05
9.58334e-05
9.58615e-05
9.58337e-05
9.58571e-05
9.58732e-05
9.58568e-05
9.08164e-05
9.08795e-05
9.58649e-05
9.58673e-05
9.58646e-05
9.08125e-05
9.08281e-05
9.08789e-05
9.58549e-05
9.58379e-05
9.58553e-05
9.58383e-05
9.0839e-05
9.08916e-05
9.58622e-05
9.58343e-05
9.58626e-05
9.58345e-05
9.58579e-05
9.58742e-05
9.58575e-05
9.08375e-05
9.08851e-05
9.58656e-05
9.58681e-05
9.58653e-05
9.08112e-05
9.08476e-05
9.08777e-05
9.58564e-05
9.58393e-05
9.58565e-05
9.58394e-05
9.08677e-05
9.08708e-05
9.58637e-05
9.58355e-05
9.58638e-05
9.58354e-05
9.58591e-05
9.58753e-05
9.58585e-05
9.08607e-05
9.08654e-05
9.58669e-05
9.58692e-05
9.58664e-05
9.08134e-05
9.08531e-05
9.0885e-05
9.58583e-05
9.58415e-05
9.58586e-05
9.58416e-05
9.08689e-05
9.08467e-05
9.58656e-05
9.58374e-05
9.58659e-05
9.58378e-05
9.58606e-05
9.58775e-05
9.5861e-05
9.08573e-05
9.086e-05
9.58685e-05
9.58715e-05
9.58689e-05
9.08512e-05
9.08634e-05
9.08838e-05
9.58613e-05
9.58448e-05
9.58629e-05
9.58461e-05
9.08543e-05
9.08528e-05
9.58686e-05
9.58408e-05
9.58701e-05
9.58424e-05
9.58637e-05
9.58822e-05
9.58656e-05
9.08519e-05
9.0881e-05
9.58716e-05
9.58761e-05
9.58734e-05
9.08748e-05
9.08773e-05
9.08581e-05
9.58672e-05
9.58507e-05
9.58703e-05
9.58536e-05
9.08623e-05
9.08531e-05
9.58744e-05
9.58466e-05
9.58775e-05
9.585e-05
9.58699e-05
9.58898e-05
9.58726e-05
9.08676e-05
9.08849e-05
9.58776e-05
9.58837e-05
9.58803e-05
9.08447e-05
9.08684e-05
9.083e-05
9.58769e-05
9.58601e-05
9.58829e-05
9.58662e-05
9.08669e-05
9.08362e-05
9.58841e-05
9.58562e-05
9.58901e-05
9.58629e-05
9.58792e-05
9.59025e-05
9.58853e-05
9.08805e-05
9.08664e-05
9.58869e-05
9.58964e-05
9.58931e-05
9.0845e-05
9.0848e-05
9.08536e-05
9.58927e-05
9.58759e-05
9.5905e-05
9.58886e-05
9.08554e-05
9.08504e-05
9.58999e-05
9.58725e-05
9.59122e-05
9.5885e-05
9.58946e-05
9.59246e-05
9.59077e-05
9.08779e-05
9.0842e-05
9.59024e-05
9.59184e-05
9.59162e-05
9.08724e-05
9.08572e-05
9.09242e-05
9.59185e-05
9.59027e-05
9.59501e-05
9.59352e-05
9.08607e-05
9.09092e-05
9.5926e-05
9.58994e-05
9.59587e-05
9.59311e-05
9.59211e-05
9.59695e-05
9.59523e-05
9.0862e-05
9.08652e-05
9.59298e-05
9.59639e-05
9.59631e-05
9.09027e-05
9.09099e-05
9.09119e-05
9.59143e-05
9.58997e-05
9.66143e-05
9.65995e-05
9.09158e-05
9.09106e-05
9.5923e-05
9.5895e-05
9.66221e-05
9.65964e-05
9.59156e-05
9.66327e-05
9.66152e-05
9.08814e-05
9.0896e-05
9.59271e-05
9.66281e-05
9.66252e-05
9.08798e-05
9.09145e-05
9.65207e-05
9.65069e-05
9.09175e-05
9.65279e-05
9.65042e-05
0.000127533
0.000127535
0.000127539
9.6522e-05
9.09057e-05
9.65312e-05
7.80335e-05
4.95253e-05
2.35461e-05
7.8046e-05
4.95222e-05
0.000124774
0.000124774
0.000124766
0.000124773
8.51766e-05
9.58733e-05
7.57805e-05
0.000108116
2.3544e-05
8.51722e-05
9.58682e-05
0.000108123
7.57867e-05
9.07539e-05
6.5499e-05
6.54998e-05
7.80378e-05
4.95248e-05
7.80244e-05
4.95252e-05
2.35452e-05
2.3546e-05
7.80489e-05
4.95217e-05
7.80363e-05
4.95221e-05
0.000124773
0.000124765
0.000124772
0.00012477
0.00012477
0.000124761
0.000124769
8.51737e-05
7.57738e-05
0.000108114
9.58729e-05
8.51708e-05
7.57832e-05
0.000108113
2.35429e-05
2.35438e-05
8.51685e-05
0.00010812
7.57768e-05
9.58679e-05
8.51685e-05
0.000108119
7.57902e-05
6.5494e-05
6.54948e-05
9.08363e-05
6.54996e-05
6.55005e-05
7.80413e-05
4.95247e-05
7.80284e-05
4.95251e-05
2.35451e-05
2.3546e-05
7.80515e-05
4.95216e-05
7.80392e-05
4.9522e-05
0.000124769
0.000124761
0.000124769
0.000124771
0.00012477
0.000124762
0.000124769
8.51789e-05
7.57777e-05
0.000108112
9.58742e-05
8.51771e-05
7.57856e-05
0.000108112
2.35429e-05
2.35438e-05
8.51728e-05
0.000108118
7.578e-05
9.58692e-05
8.51742e-05
0.000108118
7.57924e-05
6.54946e-05
6.54955e-05
9.09064e-05
6.55e-05
6.55009e-05
7.80419e-05
4.95246e-05
7.80305e-05
4.9525e-05
2.35451e-05
2.35459e-05
7.80516e-05
4.95215e-05
7.80406e-05
4.95219e-05
0.000124771
0.000124763
0.000124771
0.000124777
0.000124777
0.000124768
0.000124775
8.51784e-05
7.57781e-05
0.000108116
9.58763e-05
8.51819e-05
7.57839e-05
0.000108118
2.35428e-05
2.35438e-05
8.5172e-05
0.000108122
7.5781e-05
9.58704e-05
8.51773e-05
0.000108124
7.5792e-05
6.5495e-05
6.54958e-05
9.08966e-05
6.55004e-05
6.55012e-05
7.80404e-05
4.95247e-05
7.8029e-05
4.95251e-05
2.3545e-05
2.35459e-05
7.80494e-05
4.95216e-05
7.80387e-05
4.9522e-05
0.000124774
0.000124765
0.000124773
0.000124765
0.000124766
0.000124756
0.000124764
8.51576e-05
7.57803e-05
0.000108114
9.58733e-05
8.51642e-05
7.57929e-05
0.000108111
2.35428e-05
2.35438e-05
8.51524e-05
0.00010812
7.57796e-05
9.58672e-05
8.51599e-05
0.000108117
7.57932e-05
6.54957e-05
6.54964e-05
9.08222e-05
6.55014e-05
6.55022e-05
7.80421e-05
4.95247e-05
7.80297e-05
4.95251e-05
2.3545e-05
2.35459e-05
7.80505e-05
4.95215e-05
7.80385e-05
4.9522e-05
0.000124764
0.000124755
0.000124763
0.000124762
0.000124762
0.000124753
0.000124762
8.51708e-05
7.57774e-05
0.000108108
9.58687e-05
8.51606e-05
7.57861e-05
0.000108108
2.35428e-05
2.35438e-05
8.51637e-05
0.000108114
7.57847e-05
9.58633e-05
8.51549e-05
0.000108113
7.57929e-05
6.54965e-05
6.54972e-05
9.07572e-05
6.55019e-05
6.55027e-05
7.80423e-05
4.95247e-05
7.80305e-05
4.95251e-05
2.35451e-05
2.3546e-05
7.80505e-05
4.95216e-05
7.80391e-05
4.9522e-05
0.000124763
0.000124754
0.000124762
0.000124761
0.000124761
0.000124752
0.000124761
8.51619e-05
7.57801e-05
0.000108107
9.58675e-05
8.5156e-05
7.57904e-05
0.000108106
2.35428e-05
2.35438e-05
8.51546e-05
0.000108112
7.57826e-05
9.58618e-05
8.51529e-05
0.000108112
7.57961e-05
6.54973e-05
6.54981e-05
9.07662e-05
6.55028e-05
6.55036e-05
7.80439e-05
4.95247e-05
7.80313e-05
4.95252e-05
2.35451e-05
2.3546e-05
7.80513e-05
4.95215e-05
7.80397e-05
4.9522e-05
0.000124761
0.000124752
0.000124761
0.000124761
0.000124761
0.000124752
0.00012476
8.51533e-05
7.57768e-05
0.000108106
9.58692e-05
8.51592e-05
7.57871e-05
0.000108106
2.35429e-05
2.35438e-05
8.51464e-05
0.000108112
7.57816e-05
9.58636e-05
8.51549e-05
0.000108111
7.57953e-05
6.5498e-05
6.54988e-05
9.08106e-05
6.55036e-05
6.55043e-05
7.80451e-05
4.95248e-05
7.80334e-05
4.95252e-05
2.35451e-05
2.35461e-05
7.80529e-05
4.95216e-05
7.80417e-05
4.95221e-05
0.000124761
0.000124752
0.00012476
0.00012476
0.000124761
0.000124752
0.00012476
8.5173e-05
7.57812e-05
0.000108107
9.58711e-05
8.51696e-05
7.57867e-05
0.000108107
2.35429e-05
2.35439e-05
8.51627e-05
0.000108112
7.57841e-05
9.58647e-05
8.51647e-05
0.000108112
7.57945e-05
6.54988e-05
6.54994e-05
9.08551e-05
6.55043e-05
6.5505e-05
7.80467e-05
4.95249e-05
7.80344e-05
4.95254e-05
2.35452e-05
2.35461e-05
7.80544e-05
4.95217e-05
7.80423e-05
4.9522e-05
0.000124762
0.000124752
0.000124761
0.000124762
0.000124762
0.000124752
0.000124761
8.51679e-05
7.57826e-05
0.000108107
9.58721e-05
8.51546e-05
7.57928e-05
0.000108107
2.35429e-05
2.35439e-05
8.51613e-05
0.000108113
7.57856e-05
9.58662e-05
8.51514e-05
0.000108113
7.57975e-05
6.54999e-05
6.55007e-05
9.08864e-05
6.55054e-05
6.55062e-05
7.80477e-05
4.9525e-05
7.80354e-05
4.95255e-05
2.35452e-05
2.35461e-05
7.8055e-05
4.95216e-05
7.80436e-05
4.95222e-05
0.000124762
0.000124753
0.000124761
0.000124762
0.000124762
0.000124752
0.000124761
8.51611e-05
7.57799e-05
0.000108107
9.58719e-05
8.51683e-05
7.5792e-05
0.000108107
2.3543e-05
2.3544e-05
8.51554e-05
0.000108113
7.57865e-05
9.58662e-05
8.516e-05
0.000108112
7.57962e-05
6.55009e-05
6.55018e-05
9.08725e-05
6.55063e-05
6.55071e-05
7.80486e-05
4.95251e-05
7.80368e-05
4.95256e-05
2.35452e-05
2.35462e-05
7.8056e-05
4.95218e-05
7.8045e-05
4.95223e-05
0.000124762
0.000124753
0.000124761
0.000124762
0.000124762
0.000124753
0.000124761
8.51691e-05
7.5784e-05
0.000108108
9.58726e-05
8.51745e-05
7.5791e-05
0.000108107
2.3543e-05
2.3544e-05
8.51605e-05
0.000108113
7.57886e-05
9.58666e-05
8.51643e-05
0.000108113
7.57976e-05
6.55024e-05
6.55032e-05
9.08539e-05
6.55075e-05
6.55083e-05
7.80496e-05
4.95252e-05
7.8038e-05
4.95258e-05
2.35453e-05
2.35463e-05
7.80571e-05
4.95219e-05
7.80461e-05
4.95225e-05
0.000124762
0.000124753
0.000124761
0.000124763
0.000124762
0.000124753
0.000124761
8.51733e-05
7.57854e-05
0.000108108
9.58731e-05
8.51716e-05
7.57937e-05
0.000108108
2.3543e-05
2.35441e-05
8.51625e-05
0.000108113
7.57887e-05
9.5867e-05
8.51629e-05
0.000108113
7.57977e-05
6.55044e-05
6.5505e-05
9.08478e-05
6.55089e-05
6.55097e-05
7.80505e-05
4.95253e-05
7.80394e-05
4.9526e-05
2.35453e-05
2.35465e-05
7.80582e-05
4.9522e-05
7.80474e-05
4.95228e-05
0.000124762
0.000124753
0.000124762
0.000124763
0.000124762
0.000124753
0.000124762
8.5175e-05
7.57855e-05
0.000108109
9.58739e-05
8.51705e-05
7.57961e-05
0.000108109
2.3543e-05
2.35443e-05
8.51639e-05
0.000108114
7.57907e-05
9.58678e-05
8.51624e-05
0.000108114
7.5799e-05
6.55078e-05
6.55085e-05
9.08529e-05
6.55122e-05
6.55129e-05
7.80516e-05
4.95254e-05
7.80408e-05
4.95264e-05
2.35453e-05
2.35467e-05
7.80592e-05
4.95222e-05
7.80489e-05
4.95232e-05
0.000124762
0.000124753
0.000124762
0.000124763
0.000124763
0.000124754
0.000124762
8.51751e-05
7.57875e-05
0.00010811
9.58758e-05
8.517e-05
7.57969e-05
0.00010811
2.3543e-05
2.35445e-05
8.5165e-05
0.000108116
7.57925e-05
9.58698e-05
8.51638e-05
0.000108115
7.58013e-05
6.55128e-05
6.55136e-05
9.08337e-05
6.55165e-05
6.55172e-05
7.80532e-05
4.95256e-05
7.8043e-05
4.95271e-05
2.35452e-05
2.35472e-05
7.80606e-05
4.95224e-05
7.80509e-05
4.95239e-05
0.000124763
0.000124753
0.000124762
0.000124764
0.000124764
0.000124755
0.000124763
8.51768e-05
7.57931e-05
0.000108113
9.58793e-05
8.51714e-05
7.58002e-05
0.000108112
2.3543e-05
2.3545e-05
8.5166e-05
0.000108118
7.57977e-05
9.58731e-05
8.51653e-05
0.000108118
7.58045e-05
6.55216e-05
6.55222e-05
9.07938e-05
6.55243e-05
6.55249e-05
7.8055e-05
4.9526e-05
7.80455e-05
4.95284e-05
2.35452e-05
2.35478e-05
7.80623e-05
4.95227e-05
7.80533e-05
4.95252e-05
0.000124764
0.000124754
0.000124763
0.000124765
0.000124766
0.000124757
0.000124765
8.5178e-05
7.5803e-05
0.000108117
9.58851e-05
8.51738e-05
7.58059e-05
0.000108117
2.3543e-05
2.35456e-05
8.51672e-05
0.000108122
7.58075e-05
9.58788e-05
8.51668e-05
0.000108122
7.58099e-05
6.55356e-05
6.55362e-05
9.08134e-05
6.5531e-05
6.55317e-05
7.80564e-05
4.95264e-05
7.80477e-05
4.95305e-05
2.3545e-05
2.35487e-05
7.80637e-05
4.95232e-05
7.80557e-05
4.95273e-05
0.000124766
0.000124756
0.000124764
0.000124769
0.000124769
0.00012476
0.000124768
8.51778e-05
7.58195e-05
0.000108125
9.5895e-05
8.51762e-05
7.58132e-05
0.000108125
2.35428e-05
2.35466e-05
8.51702e-05
0.00010813
7.58232e-05
9.58884e-05
8.51683e-05
0.00010813
7.58162e-05
6.55388e-05
6.55397e-05
9.0842e-05
6.55188e-05
6.552e-05
7.80544e-05
4.95268e-05
7.80467e-05
4.95332e-05
2.35443e-05
2.35496e-05
7.80614e-05
4.95237e-05
7.80547e-05
4.95301e-05
0.000124769
0.00012476
0.000124768
0.000124774
0.000124775
0.000124766
0.000124774
8.51753e-05
7.58434e-05
0.000108137
9.59121e-05
8.51816e-05
7.58122e-05
0.000108138
2.35423e-05
2.35475e-05
8.51687e-05
0.000108142
7.5845e-05
9.59057e-05
8.51748e-05
0.000108144
7.58118e-05
6.55204e-05
6.55217e-05
9.08363e-05
6.54743e-05
6.54756e-05
7.80403e-05
4.95248e-05
7.80352e-05
4.95357e-05
2.35428e-05
2.35501e-05
7.80473e-05
4.95219e-05
7.80429e-05
4.95327e-05
0.000124775
0.000124766
0.000124774
0.000124794
0.000124793
0.000124784
0.000124793
8.51673e-05
7.58523e-05
0.000108156
9.59406e-05
8.51896e-05
7.57683e-05
0.000108153
2.35409e-05
2.35481e-05
8.51609e-05
0.000108161
7.58498e-05
9.59353e-05
8.51831e-05
0.000108157
7.57647e-05
6.54637e-05
6.54651e-05
9.08189e-05
6.5367e-05
6.53684e-05
7.80493e-05
4.95225e-05
7.79958e-05
4.95623e-05
2.35414e-05
2.35603e-05
7.80548e-05
4.95191e-05
7.80025e-05
4.95595e-05
0.000124811
0.000124804
0.000124811
0.000125453
0.000125451
0.000125449
0.000125456
8.51393e-05
7.58374e-05
0.000108246
9.60603e-05
8.52004e-05
7.56907e-05
0.000108117
2.35394e-05
2.35584e-05
8.51333e-05
0.000108251
7.58331e-05
9.60558e-05
8.51942e-05
0.000108124
7.56868e-05
6.53257e-05
6.53272e-05
9.08713e-05
6.51189e-05
6.51214e-05
8.01704e-05
5.33593e-05
7.80815e-05
9.10461e-05
2.64733e-05
4.25628e-05
8.01738e-05
5.33556e-05
7.80849e-05
9.10424e-05
0.000168254
0.000148754
0.000148764
0.000124567
0.000167701
0.000147081
0.00014709
8.5651e-05
7.6449e-05
0.000110246
9.69413e-05
8.51558e-05
8.2309e-05
0.000111862
2.64718e-05
4.25627e-05
8.56451e-05
0.000110252
7.64453e-05
9.69385e-05
8.515e-05
0.000111869
8.23057e-05
6.55558e-05
6.55556e-05
9.09782e-05
6.95052e-05
6.95093e-05
2.35468e-05
2.35454e-05
9.08455e-05
6.55001e-05
6.5499e-05
2.35467e-05
2.35459e-05
2.35454e-05
2.35445e-05
9.07814e-05
6.55003e-05
6.54992e-05
6.54946e-05
6.54935e-05
7.80393e-05
4.95259e-05
8.51707e-05
9.58539e-05
7.57874e-05
0.000108112
8.51737e-05
9.58374e-05
7.5788e-05
0.000108104
7.80219e-05
4.95252e-05
4.95248e-05
7.80355e-05
7.80262e-05
4.95258e-05
4.95254e-05
7.80382e-05
8.51709e-05
9.58531e-05
7.57886e-05
0.000108111
7.5776e-05
0.000108111
8.51713e-05
8.51736e-05
9.58369e-05
7.57895e-05
0.000108103
7.57765e-05
0.000108103
8.51743e-05
9.08124e-05
6.54989e-05
6.54914e-05
2.35466e-05
2.35461e-05
2.35452e-05
9.08052e-05
6.5499e-05
6.54916e-05
6.54933e-05
6.54857e-05
2.35465e-05
2.35456e-05
8.51784e-05
9.58611e-05
7.57814e-05
0.000108112
7.80427e-05
4.95183e-05
8.51755e-05
9.58341e-05
0.000108104
7.5771e-05
7.80345e-05
4.95221e-05
4.95217e-05
7.80473e-05
8.51774e-05
9.58603e-05
7.57831e-05
0.00010811
7.57717e-05
0.000108112
8.51756e-05
7.80316e-05
4.95182e-05
4.95178e-05
7.8044e-05
8.51753e-05
9.58334e-05
0.000108102
7.57727e-05
0.000108103
7.57626e-05
8.51728e-05
7.80365e-05
4.95247e-05
8.51751e-05
9.5856e-05
0.000108115
7.57858e-05
7.80345e-05
4.95214e-05
8.51742e-05
9.58727e-05
7.57828e-05
0.000108115
7.57722e-05
0.000108115
8.5172e-05
7.80249e-05
4.95247e-05
4.95243e-05
7.80387e-05
8.51732e-05
9.58552e-05
0.000108114
7.57873e-05
0.000108114
7.57746e-05
8.51704e-05
7.8023e-05
4.95214e-05
4.9521e-05
7.80366e-05
9.08694e-05
6.54858e-05
6.54999e-05
2.35458e-05
2.35439e-05
2.3543e-05
9.08327e-05
6.54859e-05
6.55001e-05
6.548e-05
6.54944e-05
2.35458e-05
2.35449e-05
8.51767e-05
9.58639e-05
0.000108118
7.57869e-05
7.80332e-05
4.95212e-05
7.80385e-05
4.95217e-05
8.51711e-05
9.58675e-05
0.000108121
7.5788e-05
0.000108122
7.57747e-05
8.51712e-05
8.51751e-05
9.58633e-05
0.000108116
7.57883e-05
0.000108117
7.57756e-05
8.51731e-05
7.80205e-05
4.95211e-05
4.95207e-05
7.80343e-05
7.80271e-05
4.95217e-05
4.95213e-05
7.80396e-05
2.35456e-05
2.35451e-05
9.07244e-05
6.54992e-05
6.55e-05
6.54935e-05
6.54943e-05
2.35456e-05
2.35447e-05
2.35451e-05
2.35442e-05
2.35459e-05
2.35467e-05
2.35445e-05
2.35453e-05
6.5495e-05
6.54938e-05
9.09008e-05
6.55008e-05
6.54996e-05
2.35467e-05
2.35458e-05
2.35453e-05
2.35444e-05
9.08355e-05
6.55012e-05
6.55e-05
6.54955e-05
6.54942e-05
7.80409e-05
4.95254e-05
7.80268e-05
4.95258e-05
8.51685e-05
7.57777e-05
0.00010811
9.58543e-05
8.51677e-05
7.5791e-05
0.000108109
8.51716e-05
7.57782e-05
0.000108102
9.58373e-05
8.51711e-05
7.57917e-05
0.000108101
7.80262e-05
4.95251e-05
4.95247e-05
7.80397e-05
7.80292e-05
4.95257e-05
4.95253e-05
7.80429e-05
8.51709e-05
9.58521e-05
7.57924e-05
0.000108108
7.57797e-05
0.000108109
8.51767e-05
8.51736e-05
9.5836e-05
7.57933e-05
0.0001081
7.57802e-05
0.000108101
8.51793e-05
6.54935e-05
6.54859e-05
9.08753e-05
6.54993e-05
6.54919e-05
2.35456e-05
2.35465e-05
2.3546e-05
2.35451e-05
9.08619e-05
6.54995e-05
6.54922e-05
6.54938e-05
6.54862e-05
2.35464e-05
2.35455e-05
8.51763e-05
7.57731e-05
0.00010811
9.58618e-05
8.51728e-05
7.57843e-05
0.000108109
7.80455e-05
4.95177e-05
7.80328e-05
4.95181e-05
8.51734e-05
0.000108102
7.57638e-05
9.5834e-05
8.51697e-05
0.000108101
7.57741e-05
7.80374e-05
4.9522e-05
4.95216e-05
7.80502e-05
8.51773e-05
9.58594e-05
7.57868e-05
0.000108108
7.57746e-05
0.000108109
8.51811e-05
7.80345e-05
4.95181e-05
4.95177e-05
7.8047e-05
8.5175e-05
9.58328e-05
0.0001081
7.57766e-05
0.000108101
7.57658e-05
8.51792e-05
7.80409e-05
4.95242e-05
7.8027e-05
4.95246e-05
8.51723e-05
0.000108113
7.57762e-05
9.5856e-05
8.51683e-05
0.000108112
7.57892e-05
7.80388e-05
4.95209e-05
7.8025e-05
4.95213e-05
8.51737e-05
9.58717e-05
7.57866e-05
0.000108112
7.57749e-05
0.000108113
8.51777e-05
7.80292e-05
4.95245e-05
4.95241e-05
7.80428e-05
8.5173e-05
9.58539e-05
0.000108112
7.5791e-05
0.000108112
7.57781e-05
8.51762e-05
7.80273e-05
4.95213e-05
4.95208e-05
7.80408e-05
6.54801e-05
6.54948e-05
9.08875e-05
6.54861e-05
6.55006e-05
2.35449e-05
2.35457e-05
2.35438e-05
2.35429e-05
9.08715e-05
6.54866e-05
6.55009e-05
6.54804e-05
6.54952e-05
2.35457e-05
2.35448e-05
8.51738e-05
0.000108115
7.57771e-05
9.58638e-05
8.51709e-05
0.000108115
7.579e-05
7.80355e-05
4.95206e-05
7.80215e-05
4.9521e-05
7.80408e-05
4.95212e-05
7.80281e-05
4.95216e-05
8.51698e-05
9.58668e-05
0.000108118
7.57918e-05
0.000108119
7.57783e-05
8.51761e-05
8.51746e-05
9.58618e-05
0.000108113
7.57922e-05
0.000108114
7.5779e-05
8.51782e-05
7.80229e-05
4.9521e-05
4.95206e-05
7.80368e-05
7.80295e-05
4.95215e-05
4.95211e-05
7.8042e-05
2.35447e-05
2.35455e-05
2.35442e-05
2.3545e-05
9.07687e-05
6.54999e-05
6.55008e-05
6.54942e-05
6.54951e-05
2.35455e-05
2.35446e-05
2.3545e-05
2.35441e-05
2.35458e-05
2.35466e-05
2.35444e-05
2.35452e-05
6.54958e-05
6.54945e-05
9.09117e-05
6.55013e-05
6.55e-05
2.35466e-05
2.35457e-05
2.35452e-05
2.35443e-05
9.08998e-05
6.55014e-05
6.55003e-05
6.54959e-05
6.54946e-05
7.80445e-05
4.95252e-05
7.8031e-05
4.95257e-05
8.51728e-05
7.57807e-05
0.000108108
9.58569e-05
8.51738e-05
7.57933e-05
0.000108109
8.51766e-05
7.57811e-05
0.0001081
9.58386e-05
8.51768e-05
7.57938e-05
0.0001081
7.80296e-05
4.95251e-05
4.95246e-05
7.80422e-05
7.80326e-05
4.95256e-05
4.95252e-05
7.80453e-05
8.5175e-05
9.58565e-05
7.57938e-05
0.000108113
7.57814e-05
0.000108111
8.51822e-05
8.51784e-05
9.58396e-05
7.57948e-05
0.000108104
7.57818e-05
0.000108103
8.51846e-05
6.5494e-05
6.54864e-05
9.0861e-05
6.54999e-05
6.54924e-05
2.35455e-05
2.35464e-05
2.35459e-05
2.35451e-05
9.08736e-05
6.55001e-05
6.54927e-05
6.54944e-05
6.54867e-05
2.35464e-05
2.35455e-05
8.51814e-05
7.5777e-05
0.000108108
9.58643e-05
8.5179e-05
7.57866e-05
0.000108109
7.80482e-05
4.95176e-05
7.80358e-05
4.95181e-05
8.51786e-05
0.0001081
7.57678e-05
9.58353e-05
8.5177e-05
0.000108101
7.57762e-05
7.80399e-05
4.95219e-05
4.95215e-05
7.8052e-05
8.51824e-05
9.58637e-05
7.57881e-05
0.000108112
7.57759e-05
0.000108111
8.51863e-05
7.80371e-05
4.95181e-05
4.95176e-05
7.80487e-05
8.51799e-05
9.58367e-05
0.000108104
7.57775e-05
0.000108103
7.5767e-05
8.51851e-05
7.80445e-05
4.95241e-05
7.80311e-05
4.95245e-05
8.5178e-05
0.000108112
7.57794e-05
9.58581e-05
8.51748e-05
0.000108112
7.57915e-05
7.80425e-05
4.95208e-05
7.80292e-05
4.95212e-05
8.51787e-05
9.58752e-05
7.57875e-05
0.000108116
7.57758e-05
0.000108114
8.51832e-05
7.80326e-05
4.95245e-05
4.9524e-05
7.80452e-05
8.51785e-05
9.58571e-05
0.000108116
7.57924e-05
0.000108115
7.57798e-05
8.51812e-05
7.80307e-05
4.95212e-05
4.95207e-05
7.80431e-05
6.54809e-05
6.54955e-05
9.08483e-05
6.54869e-05
6.5501e-05
2.35448e-05
2.35456e-05
2.35438e-05
2.35428e-05
9.08657e-05
6.54872e-05
6.55012e-05
6.54812e-05
6.54956e-05
2.35456e-05
2.35448e-05
8.51794e-05
0.000108113
7.57803e-05
9.5866e-05
8.51767e-05
0.000108114
7.57922e-05
7.80377e-05
4.95205e-05
7.80239e-05
4.95209e-05
7.8043e-05
4.95211e-05
7.80307e-05
4.95215e-05
8.51738e-05
9.58704e-05
0.000108122
7.57931e-05
0.00010812
7.57803e-05
8.51799e-05
8.51801e-05
9.58648e-05
0.000108118
7.57934e-05
0.000108116
7.57805e-05
8.5182e-05
7.80249e-05
4.95209e-05
4.95205e-05
7.80379e-05
7.80317e-05
4.95215e-05
4.9521e-05
7.80428e-05
2.35446e-05
2.35454e-05
2.35441e-05
2.35449e-05
9.08524e-05
6.55003e-05
6.55011e-05
6.54946e-05
6.54954e-05
2.35454e-05
2.35445e-05
2.35449e-05
2.35441e-05
2.35457e-05
2.35466e-05
2.35443e-05
2.35452e-05
6.54959e-05
6.54948e-05
9.08373e-05
6.55015e-05
6.55004e-05
2.35466e-05
2.35457e-05
2.35452e-05
2.35443e-05
9.08725e-05
6.55018e-05
6.5501e-05
6.54961e-05
6.5495e-05
7.80449e-05
4.95252e-05
7.8033e-05
4.95256e-05
8.51732e-05
7.57816e-05
0.000108113
9.5859e-05
8.51792e-05
7.57924e-05
0.000108115
8.51766e-05
7.57824e-05
0.000108105
9.58403e-05
8.51817e-05
7.57938e-05
0.000108106
7.80296e-05
4.95251e-05
4.95246e-05
7.8041e-05
7.80326e-05
4.95255e-05
4.95251e-05
7.80441e-05
8.51726e-05
9.58597e-05
7.57916e-05
0.000108112
7.57799e-05
0.000108114
8.51715e-05
8.51759e-05
9.58417e-05
7.57943e-05
0.000108104
7.57814e-05
0.000108106
8.51737e-05
6.54946e-05
6.54871e-05
9.07799e-05
6.55003e-05
6.5493e-05
2.35455e-05
2.35464e-05
2.35459e-05
2.3545e-05
9.08155e-05
6.55004e-05
6.54938e-05
6.54947e-05
6.54874e-05
2.35464e-05
2.35455e-05
8.51818e-05
7.57779e-05
0.000108115
9.58663e-05
8.51835e-05
7.57851e-05
0.000108116
7.80481e-05
4.95176e-05
7.80372e-05
4.95181e-05
8.51785e-05
0.000108105
7.57678e-05
9.58364e-05
8.51825e-05
0.000108106
7.57748e-05
7.80396e-05
4.9522e-05
4.95215e-05
7.80504e-05
8.51814e-05
9.58671e-05
7.57866e-05
0.000108113
7.57738e-05
0.000108117
8.51798e-05
7.80365e-05
4.95181e-05
4.95177e-05
7.80469e-05
8.51776e-05
9.58375e-05
0.000108104
7.57804e-05
0.000108106
7.57667e-05
8.51763e-05
7.80448e-05
4.9524e-05
7.8033e-05
4.95245e-05
8.51765e-05
0.000108117
7.57804e-05
9.58616e-05
8.51789e-05
0.000108118
7.57904e-05
7.80426e-05
4.95207e-05
7.8031e-05
4.95212e-05
8.51759e-05
9.58772e-05
7.57884e-05
0.000108117
7.57747e-05
0.000108118
8.51693e-05
7.80324e-05
4.95246e-05
4.95241e-05
7.80438e-05
8.51742e-05
9.58608e-05
0.000108116
7.57898e-05
0.000108118
7.57779e-05
8.51653e-05
7.80303e-05
4.95212e-05
4.95207e-05
7.80416e-05
6.54815e-05
6.54958e-05
9.07581e-05
6.54876e-05
6.55013e-05
2.35447e-05
2.35456e-05
2.35438e-05
2.35428e-05
9.07848e-05
6.54883e-05
6.55016e-05
6.5482e-05
6.54959e-05
2.35456e-05
2.35447e-05
8.51767e-05
0.000108119
7.57813e-05
9.58693e-05
8.51793e-05
0.00010812
7.57912e-05
7.8037e-05
4.95205e-05
7.80247e-05
4.95209e-05
7.80406e-05
4.9521e-05
7.80298e-05
4.95214e-05
8.51707e-05
9.58712e-05
0.000108122
7.57908e-05
0.000108123
7.57793e-05
8.51655e-05
8.51741e-05
9.58685e-05
0.000108117
7.57906e-05
0.000108119
7.57786e-05
8.51641e-05
7.80238e-05
4.95209e-05
4.95205e-05
7.80356e-05
7.80276e-05
4.95215e-05
4.9521e-05
7.80383e-05
2.35445e-05
2.35454e-05
2.3544e-05
2.35449e-05
9.08917e-05
6.55008e-05
6.55016e-05
6.5495e-05
6.54957e-05
2.35454e-05
2.35445e-05
2.35449e-05
2.3544e-05
2.35457e-05
2.35466e-05
2.35443e-05
2.35452e-05
6.54965e-05
6.54957e-05
9.07468e-05
6.55024e-05
6.55016e-05
2.35466e-05
2.35457e-05
2.35452e-05
2.35443e-05
9.07764e-05
6.55028e-05
6.55017e-05
6.54971e-05
6.54962e-05
7.80435e-05
4.95251e-05
7.80315e-05
4.95255e-05
8.51544e-05
7.57808e-05
0.00010811
9.58541e-05
8.51655e-05
7.57942e-05
0.000108107
8.51572e-05
7.57819e-05
0.000108102
9.58363e-05
8.51676e-05
7.57933e-05
0.000108099
7.80283e-05
4.95251e-05
4.95247e-05
7.8041e-05
7.80313e-05
4.95255e-05
4.95251e-05
7.80442e-05
8.51522e-05
9.58542e-05
7.57965e-05
0.000108104
7.57834e-05
0.000108106
8.51542e-05
8.51552e-05
9.58362e-05
7.57936e-05
0.000108096
7.5781e-05
0.000108097
8.5157e-05
6.54949e-05
6.54882e-05
9.07556e-05
6.55006e-05
6.54942e-05
2.35455e-05
2.35464e-05
2.35459e-05
2.3545e-05
9.07336e-05
6.55008e-05
6.54941e-05
6.5495e-05
6.54885e-05
2.35464e-05
2.35455e-05
8.51629e-05
7.57777e-05
0.000108112
9.58617e-05
8.51738e-05
7.57921e-05
0.000108108
7.8046e-05
4.95177e-05
7.80351e-05
4.95181e-05
8.51593e-05
0.000108102
7.57724e-05
9.58325e-05
8.51705e-05
0.000108098
7.57833e-05
7.80375e-05
4.9522e-05
4.95216e-05
7.80496e-05
8.51601e-05
9.58618e-05
7.57895e-05
0.000108105
7.57821e-05
0.000108107
8.51606e-05
7.80346e-05
4.95181e-05
4.95176e-05
7.80463e-05
8.51568e-05
9.58322e-05
0.000108095
7.57762e-05
0.000108097
7.57711e-05
8.51579e-05
7.80436e-05
4.95241e-05
7.80314e-05
4.95246e-05
8.51553e-05
0.000108114
7.57794e-05
9.58576e-05
8.516e-05
0.000108111
7.57933e-05
7.80415e-05
4.95208e-05
7.80294e-05
4.95213e-05
8.51559e-05
9.58731e-05
7.57879e-05
0.000108109
7.57831e-05
0.00010811
8.5159e-05
7.80316e-05
4.95245e-05
4.95241e-05
7.80444e-05
8.51537e-05
9.58568e-05
0.000108108
7.5795e-05
0.00010811
7.57829e-05
8.51579e-05
7.80296e-05
4.95213e-05
4.95208e-05
7.80424e-05
6.54827e-05
6.54963e-05
9.07672e-05
6.54885e-05
6.55023e-05
2.35447e-05
2.35456e-05
2.35438e-05
2.35428e-05
9.07286e-05
6.54884e-05
6.55028e-05
6.54827e-05
6.5497e-05
2.35456e-05
2.35448e-05
8.51553e-05
0.000108115
7.57802e-05
9.58654e-05
8.51593e-05
0.000108112
7.57945e-05
7.80348e-05
4.95205e-05
7.80226e-05
4.9521e-05
7.80372e-05
4.9521e-05
7.80254e-05
4.95215e-05
8.51509e-05
9.58667e-05
0.000108114
7.57963e-05
0.000108116
7.57825e-05
8.51539e-05
8.51537e-05
9.58646e-05
0.000108109
7.57959e-05
0.000108111
7.57838e-05
8.51572e-05
7.80222e-05
4.9521e-05
4.95205e-05
7.80351e-05
7.80247e-05
4.95215e-05
4.95211e-05
7.80373e-05
2.35445e-05
2.35454e-05
2.3544e-05
2.35449e-05
9.08514e-05
6.55018e-05
6.55026e-05
6.54961e-05
6.54969e-05
2.35454e-05
2.35445e-05
2.35449e-05
2.3544e-05
2.35457e-05
2.35466e-05
2.35443e-05
2.35452e-05
6.54974e-05
6.54962e-05
9.07519e-05
6.55029e-05
6.55018e-05
2.35466e-05
2.35457e-05
2.35452e-05
2.35443e-05
9.07216e-05
6.55034e-05
6.55023e-05
6.54976e-05
6.54964e-05
7.80452e-05
4.95251e-05
7.80322e-05
4.95255e-05
8.51651e-05
7.57843e-05
0.000108104
9.58487e-05
8.51549e-05
7.57928e-05
0.000108103
8.51683e-05
7.5781e-05
0.000108095
9.58315e-05
8.51575e-05
7.57918e-05
0.000108094
7.80301e-05
4.95251e-05
4.95247e-05
7.80421e-05
7.80331e-05
4.95256e-05
4.95251e-05
7.80452e-05
8.51669e-05
9.58488e-05
7.57957e-05
0.000108102
7.57813e-05
0.000108103
8.51637e-05
8.51701e-05
9.58311e-05
7.57935e-05
0.000108094
7.578e-05
0.000108094
8.51652e-05
6.54953e-05
6.54884e-05