/*--------------------------------*- C++ -*----------------------------------*\
| =========                 |                                                 |
| \\      /  F ield         | OpenFOAM: The Open Source CFD Toolbox           |
|  \\    /   O peration     | Version:  v1906                                 |
|   \\  /    A nd           | Web:      www.OpenFOAM.com                      |
|    \\/     M anipulation  |                                                 |
\*---------------------------------------------------------------------------*/
FoamFile
{
    version     2.0;
    format      ascii;
    class       volScalarField;
    location    "125";
    object      p;
}
// * * * * * * * * * * * * * * * * * * * * * * * * * * * * * * * * * * * * * //

dimensions      [0 2 -2 0 0 0 0];


internalField   nonuniform List<scalar> 
43248
(
0.00263142
0.00263138
0.00263138
0.00263382
0.00259154
0.00259149
0.00259149
0.00259393
0.00255193
0.00255187
0.00255187
0.0025543
0.00251262
0.00251254
0.00251254
0.00251494
0.00247376
0.00247368
0.00247368
0.00247605
0.00243539
0.00243529
0.00243529
0.00243761
0.00239769
0.00239759
0.00239759
0.00239983
0.00236067
0.00236059
0.00236059
0.00236278
0.00232421
0.00232416
0.00232416
0.00232632
0.00228812
0.00228806
0.00228807
0.0022902
0.00225222
0.00225216
0.00225216
0.00225429
0.0022164
0.00221635
0.00221635
0.00221847
0.00218061
0.00218056
0.00218056
0.00218268
0.00214483
0.00214477
0.00214477
0.00214689
0.00210904
0.00210898
0.00210898
0.0021111
0.00207325
0.00207319
0.00207319
0.00207532
0.00203746
0.00203741
0.00203741
0.00203953
0.00200167
0.00200162
0.00200162
0.00200374
0.00196588
0.00196583
0.00196583
0.00196795
0.00193009
0.00193004
0.00193004
0.00193216
0.0018943
0.00189424
0.00189424
0.00189637
0.00185851
0.00185845
0.00185845
0.00186058
0.00182272
0.00182267
0.00182266
0.00182479
0.00178693
0.00178688
0.00178688
0.001789
0.00175114
0.00175108
0.00175108
0.00175321
0.00171535
0.00171529
0.00171529
0.00171741
0.00167956
0.0016795
0.0016795
0.00168162
0.00263905
0.00264139
0.00264139
0.00263905
0.00264139
0.00264139
0.00264139
0.00264139
0.00263905
0.00264139
0.00264139
0.00263905
0.00263382
0.00259912
0.00263138
0.00263138
0.00260143
0.00260143
0.00263382
0.00259912
0.00263138
0.00263138
0.00260144
0.00260144
0.00263138
0.00260144
0.00260143
0.00263382
0.00259912
0.00263138
0.00260144
0.00260144
0.00259912
0.00259393
0.00255946
0.00259149
0.00259149
0.00256175
0.00256175
0.00259393
0.00255946
0.00259149
0.00259149
0.00256175
0.00256175
0.00259149
0.00256175
0.00256175
0.00259393
0.00255946
0.00259149
0.00256175
0.00256175
0.00255946
0.0025543
0.00252007
0.00255187
0.00255187
0.00252233
0.00252233
0.0025543
0.00252007
0.00255187
0.00255187
0.00252233
0.00252233
0.00255187
0.00252233
0.00252233
0.0025543
0.00252007
0.00255187
0.00252233
0.00252233
0.00252007
0.00251494
0.00248112
0.00251254
0.00251254
0.00248335
0.00248335
0.00251494
0.00248112
0.00251254
0.00251254
0.00248335
0.00248335
0.00251254
0.00248335
0.00248335
0.00251494
0.00248112
0.00251254
0.00248335
0.00248335
0.00248112
0.00247605
0.00244262
0.00247368
0.00247368
0.00244483
0.00244483
0.00247605
0.00244262
0.00247368
0.00247368
0.00244483
0.00244483
0.00247368
0.00244483
0.00244483
0.00247605
0.00244262
0.00247368
0.00244483
0.00244483
0.00244262
0.00243761
0.00240475
0.00243529
0.00243529
0.00240694
0.00240694
0.00243761
0.00240475
0.00243529
0.00243529
0.00240694
0.00240694
0.00243529
0.00240694
0.00240694
0.00243761
0.00240475
0.00243529
0.00240694
0.00240694
0.00240475
0.00239983
0.00236761
0.00239759
0.00239759
0.00236978
0.00236978
0.00239983
0.00236761
0.00239759
0.00239759
0.00236978
0.00236978
0.00239759
0.00236978
0.00236978
0.00239983
0.00236761
0.00239759
0.00236978
0.00236978
0.00236761
0.00236278
0.00233109
0.00236059
0.00236059
0.00233323
0.00233323
0.00236278
0.00233109
0.00236059
0.00236059
0.00233323
0.00233323
0.00236059
0.00233323
0.00233323
0.00236278
0.00233109
0.00236059
0.00233323
0.00233323
0.00233109
0.00232632
0.00229494
0.00232416
0.00232416
0.00229707
0.00229707
0.00232632
0.00229494
0.00232416
0.00232416
0.00229707
0.00229707
0.00232416
0.00229707
0.00229707
0.00232632
0.00229494
0.00232416
0.00229707
0.00229707
0.00229494
0.0022902
0.002259
0.00228807
0.00228806
0.00226113
0.00226113
0.0022902
0.002259
0.00228807
0.00228807
0.00226113
0.00226113
0.00228806
0.00226113
0.00226113
0.0022902
0.002259
0.00228806
0.00226113
0.00226113
0.002259
0.00225429
0.00222318
0.00225216
0.00225216
0.0022253
0.0022253
0.00225429
0.00222318
0.00225216
0.00225216
0.0022253
0.0022253
0.00225216
0.0022253
0.0022253
0.00225429
0.00222318
0.00225216
0.0022253
0.0022253
0.00222318
0.00221847
0.00218738
0.00221635
0.00221635
0.00218951
0.0021895
0.00221847
0.00218738
0.00221635
0.00221635
0.00218951
0.00218951
0.00221635
0.0021895
0.00218951
0.00221847
0.00218738
0.00221635
0.00218951
0.00218951
0.00218738
0.00218268
0.0021516
0.00218056
0.00218056
0.00215372
0.00215372
0.00218268
0.0021516
0.00218056
0.00218056
0.00215372
0.00215372
0.00218056
0.00215372
0.00215372
0.00218268
0.0021516
0.00218056
0.00215372
0.00215372
0.0021516
0.00214689
0.00211581
0.00214477
0.00214477
0.00211793
0.00211793
0.00214689
0.00211581
0.00214477
0.00214477
0.00211793
0.00211793
0.00214477
0.00211793
0.00211793
0.00214689
0.00211581
0.00214477
0.00211793
0.00211793
0.00211581
0.0021111
0.00208002
0.00210898
0.00210898
0.00208214
0.00208214
0.0021111
0.00208002
0.00210898
0.00210898
0.00208214
0.00208214
0.00210898
0.00208214
0.00208214
0.0021111
0.00208002
0.00210898
0.00208214
0.00208214
0.00208002
0.00207532
0.00204423
0.00207319
0.00207319
0.00204635
0.00204635
0.00207532
0.00204423
0.00207319
0.00207319
0.00204635
0.00204635
0.00207319
0.00204635
0.00204635
0.00207532
0.00204423
0.00207319
0.00204635
0.00204635
0.00204423
0.00203953
0.00200844
0.00203741
0.00203741
0.00201056
0.00201056
0.00203953
0.00200844
0.00203741
0.00203741
0.00201056
0.00201056
0.00203741
0.00201056
0.00201056
0.00203953
0.00200844
0.00203741
0.00201056
0.00201056
0.00200844
0.00200374
0.00197265
0.00200162
0.00200162
0.00197477
0.00197477
0.00200374
0.00197265
0.00200162
0.00200162
0.00197477
0.00197477
0.00200162
0.00197477
0.00197477
0.00200374
0.00197265
0.00200162
0.00197477
0.00197477
0.00197265
0.00196795
0.00193686
0.00196583
0.00196583
0.00193898
0.00193898
0.00196795
0.00193686
0.00196583
0.00196583
0.00193898
0.00193898
0.00196583
0.00193898
0.00193898
0.00196795
0.00193686
0.00196583
0.00193898
0.00193898
0.00193686
0.00193216
0.00190107
0.00193004
0.00193004
0.00190319
0.00190319
0.00193216
0.00190107
0.00193004
0.00193004
0.00190319
0.00190319
0.00193004
0.00190319
0.00190319
0.00193216
0.00190107
0.00193004
0.00190319
0.00190319
0.00190107
0.00189637
0.00186528
0.00189424
0.00189425
0.0018674
0.0018674
0.00189637
0.00186528
0.00189424
0.00189424
0.0018674
0.0018674
0.00189424
0.0018674
0.0018674
0.00189637
0.00186528
0.00189424
0.0018674
0.0018674
0.00186528
0.00186058
0.00182949
0.00185845
0.00185845
0.00183161
0.00183161
0.00186058
0.00182949
0.00185845
0.00185845
0.00183161
0.00183161
0.00185846
0.00183161
0.00183161
0.00186058
0.00182949
0.00185845
0.00183161
0.00183161
0.00182949
0.00182479
0.0017937
0.00182267
0.00182267
0.00179582
0.00179582
0.00182479
0.0017937
0.00182266
0.00182266
0.00179582
0.00179582
0.00182267
0.00179582
0.00179582
0.00182479
0.0017937
0.00182267
0.00179582
0.00179582
0.0017937
0.001789
0.00175791
0.00178688
0.00178688
0.00176003
0.00176003
0.001789
0.00175791
0.00178687
0.00178688
0.00176003
0.00176003
0.00178688
0.00176003
0.00176003
0.001789
0.00175791
0.00178688
0.00176003
0.00176003
0.00175791
0.00175321
0.00172212
0.00175108
0.00175108
0.00172424
0.00172424
0.00175321
0.00172212
0.00175108
0.00175108
0.00172424
0.00172424
0.00175108
0.00172424
0.00172424
0.00175321
0.00172212
0.00175108
0.00172424
0.00172424
0.00172212
0.00171741
0.00168633
0.00171529
0.00171529
0.00168845
0.00168845
0.00171741
0.00168633
0.00171529
0.00171529
0.00168845
0.00168845
0.00171529
0.00168845
0.00168845
0.00171741
0.00168633
0.00171529
0.00168845
0.00168845
0.00168633
0.00168162
0.0016795
0.0016795
0.00168162
0.0016795
0.0016795
0.0016795
0.00168162
0.0016795
0.00264143
0.00264143
0.00264143
0.00264143
0.00261879
0.00263367
0.00263374
0.00261871
0.00263364
0.00261869
0.00261879
0.00263367
0.00263374
0.00261871
0.00263142
0.00263142
0.00263142
0.00260148
0.00260148
0.00260148
0.00260148
0.00261906
0.00263374
0.00263141
0.00262138
0.00263386
0.00261889
0.00262141
0.00263364
0.00261869
0.00261906
0.00263141
0.00263374
0.00262138
0.00263387
0.00262141
0.00261888
0.00263372
0.00263372
0.00261906
0.00261876
0.00261876
0.00257897
0.00259376
0.00259383
0.0025789
0.00259373
0.00257888
0.00257897
0.00259376
0.00259383
0.0025789
0.00259154
0.00259154
0.00259154
0.00256181
0.00256181
0.00256181
0.00256181
0.00257923
0.00259382
0.00259151
0.00258156
0.00259394
0.00257906
0.00258158
0.00259373
0.00257888
0.00257923
0.00259151
0.00259382
0.00258156
0.00259394
0.00258158
0.00257906
0.00259381
0.00259381
0.00257926
0.00257894
0.00257895
0.00253944
0.00255413
0.00255421
0.00253937
0.00255412
0.00253934
0.00253944
0.00255413
0.00255421
0.00253937
0.00255193
0.00255193
0.00255193
0.00252241
0.00252241
0.00252241
0.00252241
0.00253967
0.00255418
0.00255189
0.002542
0.00255429
0.00253951
0.00254202
0.00255412
0.00253934
0.00253967
0.00255189
0.00255418
0.002542
0.00255429
0.00254202
0.00253951
0.00255418
0.00255419
0.00253972
0.0025394
0.0025394
0.00250023
0.00251477
0.00251483
0.00250016
0.00251474
0.00250014
0.00250023
0.00251477
0.00251483
0.00250016
0.00251262
0.00251262
0.00251262
0.00248343
0.00248343
0.00248343
0.00248343
0.00250045
0.0025148
0.00251257
0.00250278
0.00251491
0.00250029
0.0025028
0.00251474
0.00250014
0.00250045
0.00251257
0.0025148
0.00250278
0.00251491
0.0025028
0.00250029
0.0025148
0.0025148
0.00250053
0.00250019
0.00250019
0.00246151
0.00247589
0.00247594
0.00246145
0.00247588
0.00246144
0.00246151
0.00247589
0.00247594
0.00246145
0.00247376
0.00247376
0.00247376
0.00244493
0.00244493
0.00244493
0.00244493
0.0024617
0.0024759
0.0024737
0.00246403
0.002476
0.00246156
0.00246405
0.00247588
0.00246144
0.0024617
0.0024737
0.0024759
0.00246403
0.002476
0.00246405
0.00246156
0.00247592
0.00247592
0.00246181
0.00246147
0.00246147
0.0024233
0.00243747
0.00243751
0.00242326
0.00243745
0.00242325
0.0024233
0.00243747
0.0024375
0.00242326
0.00243539
0.00243539
0.00243539
0.00240704
0.00240704
0.00240704
0.00240704
0.00242346
0.00243747
0.00243531
0.0024258
0.00243753
0.00242334
0.00242582
0.00243745
0.00242325
0.00242346
0.00243531
0.00243747
0.00242579
0.00243753
0.00242582
0.00242334
0.00243748
0.00243748
0.00242359
0.00242327
0.00242327
0.00238589
0.00239976
0.00239978
0.00238587
0.00239975
0.00238586
0.00238589
0.00239976
0.00239978
0.00238587
0.00239769
0.00239769
0.00239769
0.00236986
0.00236986
0.00236986
0.00236986
0.002386
0.00239973
0.00239762
0.00238827
0.00239977
0.00238592
0.0023883
0.00239975
0.00238586
0.002386
0.00239762
0.00239973
0.00238827
0.00239977
0.0023883
0.00238592
0.00239977
0.00239977
0.00238609
0.00238587
0.00238587
0.00234917
0.00236283
0.00236284
0.00234916
0.00236282
0.00234916
0.00234917
0.00236283
0.00236284
0.00234916
0.00236067
0.00236067
0.00236067
0.00233328
0.00233328
0.00233328
0.00233328
0.00234925
0.00236279
0.00236061
0.00235144
0.00236279
0.0023492
0.00235146
0.00236282
0.00234916
0.00234925
0.00236061
0.00236279
0.00235144
0.00236279
0.00235146
0.0023492
0.00236283
0.00236283
0.00234928
0.00234916
0.00234916
0.00231289
0.00232642
0.00232642
0.00231288
0.00232642
0.00231288
0.00231289
0.00232642
0.00232642
0.00231288
0.00232421
0.00232421
0.00232421
0.00229712
0.00229712
0.00229712
0.00229712
0.00231296
0.00232637
0.00232417
0.00231511
0.00232635
0.00231292
0.00231513
0.00232642
0.00231288
0.00231296
0.00232417
0.00232637
0.00231511
0.00232635
0.00231513
0.00231292
0.00232642
0.00232642
0.00231298
0.00231288
0.00231288
0.00227686
0.00229031
0.00229031
0.00227686
0.00229031
0.00227686
0.00227686
0.00229031
0.00229031
0.00227686
0.00228812
0.00228812
0.00228812
0.00226118
0.00226118
0.00226118
0.00226118
0.00227694
0.00229027
0.00228808
0.00227908
0.00229025
0.0022769
0.00227909
0.00229031
0.00227686
0.00227694
0.00228808
0.00229027
0.00227908
0.00229025
0.00227909
0.0022769
0.00229032
0.00229032
0.00227695
0.00227686
0.00227686
0.002241
0.0022544
0.0022544
0.002241
0.0022544
0.002241
0.002241
0.0022544
0.0022544
0.002241
0.00225222
0.00225222
0.00225222
0.00222536
0.00222536
0.00222536
0.00222536
0.00224108
0.00225436
0.00225218
0.0022432
0.00225434
0.00224104
0.00224322
0.0022544
0.002241
0.00224108
0.00225218
0.00225436
0.00224321
0.00225434
0.00224322
0.00224104
0.00225441
0.00225441
0.00224108
0.002241
0.002241
0.0022052
0.00221859
0.00221859
0.0022052
0.00221859
0.0022052
0.00220521
0.00221859
0.00221859
0.0022052
0.0022164
0.0022164
0.0022164
0.00218956
0.00218956
0.00218956
0.00218956
0.00220528
0.00221855
0.00221637
0.0022074
0.00221852
0.00220524
0.00220742
0.00221859
0.0022052
0.00220528
0.00221637
0.00221855
0.0022074
0.00221852
0.00220742
0.00220524
0.00221859
0.00221859
0.00220528
0.0022052
0.0022052
0.00216942
0.0021828
0.0021828
0.00216941
0.0021828
0.00216941
0.00216942
0.0021828
0.0021828
0.00216941
0.00218061
0.00218061
0.00218061
0.00215377
0.00215377
0.00215377
0.00215377
0.00216949
0.00218276
0.00218057
0.00217161
0.00218273
0.00216945
0.00217163
0.0021828
0.00216941
0.00216949
0.00218057
0.00218276
0.00217161
0.00218274
0.00217163
0.00216945
0.0021828
0.00218281
0.00216949
0.00216941
0.00216941
0.00213363
0.00214701
0.00214701
0.00213362
0.00214701
0.00213363
0.00213363
0.00214701
0.00214701
0.00213362
0.00214483
0.00214483
0.00214483
0.00211798
0.00211798
0.00211798
0.00211798
0.0021337
0.00214697
0.00214479
0.00213582
0.00214695
0.00213367
0.00213584
0.00214701
0.00213363
0.0021337
0.00214479
0.00214697
0.00213582
0.00214695
0.00213584
0.00213367
0.00214702
0.00214702
0.0021337
0.00213362
0.00213362
0.00209784
0.00211123
0.00211122
0.00209784
0.00211122
0.00209784
0.00209784
0.00211123
0.00211122
0.00209784
0.00210904
0.00210904
0.00210904
0.0020822
0.0020822
0.0020822
0.0020822
0.00209792
0.00211118
0.002109
0.00210004
0.00211116
0.00209788
0.00210005
0.00211122
0.00209784
0.00209792
0.002109
0.00211118
0.00210004
0.00211116
0.00210005
0.00209788
0.00211123
0.00211123
0.00209792
0.00209784
0.00209784
0.00206205
0.00207544
0.00207544
0.00206205
0.00207544
0.00206205
0.00206205
0.00207544
0.00207544
0.00206205
0.00207325
0.00207325
0.00207325
0.00204641
0.00204641
0.00204641
0.00204641
0.00206213
0.0020754
0.00207321
0.00206425
0.00207537
0.00206209
0.00206426
0.00207544
0.00206205
0.00206213
0.00207321
0.0020754
0.00206425
0.00207537
0.00206426
0.00206209
0.00207544
0.00207544
0.00206213
0.00206205
0.00206205
0.00202627
0.00203965
0.00203965
0.00202626
0.00203965
0.00202626
0.00202627
0.00203965
0.00203965
0.00202626
0.00203746
0.00203746
0.00203746
0.00201062
0.00201062
0.00201062
0.00201062
0.00202634
0.00203961
0.00203742
0.00202846
0.00203958
0.0020263
0.00202847
0.00203965
0.00202626
0.00202634
0.00203742
0.00203961
0.00202846
0.00203958
0.00202847
0.0020263
0.00203966
0.00203966
0.00202634
0.00202626
0.00202626
0.00199048
0.00200386
0.00200386
0.00199047
0.00200386
0.00199047
0.00199048
0.00200386
0.00200386
0.00199047
0.00200167
0.00200167
0.00200167
0.00197483
0.00197483
0.00197483
0.00197483
0.00199055
0.00200382
0.00200163
0.00199267
0.0020038
0.00199051
0.00199268
0.00200386
0.00199047
0.00199055
0.00200163
0.00200382
0.00199267
0.0020038
0.00199268
0.00199051
0.00200387
0.00200387
0.00199055
0.00199047
0.00199047
0.00195469
0.00196807
0.00196807
0.00195468
0.00196807
0.00195469
0.00195469
0.00196807
0.00196807
0.00195468
0.00196588
0.00196588
0.00196588
0.00193904
0.00193904
0.00193904
0.00193904
0.00195476
0.00196803
0.00196584
0.00195688
0.001968
0.00195472
0.00195689
0.00196807
0.00195468
0.00195476
0.00196584
0.00196803
0.00195688
0.001968
0.00195689
0.00195472
0.00196808
0.00196808
0.00195476
0.00195468
0.00195468
0.0019189
0.00193228
0.00193228
0.00191889
0.00193227
0.00191889
0.0019189
0.00193228
0.00193228
0.00191889
0.00193009
0.00193009
0.00193009
0.00190325
0.00190325
0.00190325
0.00190325
0.00191897
0.00193224
0.00193005
0.00192109
0.00193221
0.00191893
0.0019211
0.00193228
0.00191889
0.00191897
0.00193005
0.00193224
0.00192109
0.00193221
0.0019211
0.00191893
0.00193228
0.00193228
0.00191897
0.00191889
0.00191889
0.0018831
0.00189649
0.00189649
0.0018831
0.00189649
0.00188309
0.0018831
0.00189649
0.00189649
0.0018831
0.0018943
0.0018943
0.0018943
0.00186746
0.00186746
0.00186746
0.00186746
0.00188318
0.00189645
0.00189426
0.0018853
0.00189642
0.00188314
0.00188531
0.00189649
0.0018831
0.00188318
0.00189426
0.00189645
0.0018853
0.00189642
0.00188531
0.00188314
0.00189649
0.00189649
0.00188318
0.0018831
0.0018831
0.00184731
0.0018607
0.0018607
0.00184731
0.0018607
0.00184731
0.00184731
0.0018607
0.0018607
0.00184731
0.00185851
0.00185851
0.00185851
0.00183167
0.00183167
0.00183167
0.00183167
0.00184739
0.00186066
0.00185847
0.00184951
0.00186063
0.00184735
0.00184952
0.0018607
0.00184731
0.00184739
0.00185847
0.00186066
0.00184951
0.00186063
0.00184952
0.00184735
0.0018607
0.0018607
0.00184739
0.00184731
0.00184731
0.00181153
0.00182491
0.00182491
0.00181152
0.00182491
0.00181152
0.00181152
0.00182491
0.00182491
0.00181152
0.00182272
0.00182272
0.00182272
0.00179588
0.00179588
0.00179588
0.00179588
0.0018116
0.00182487
0.00182268
0.00181372
0.00182484
0.00181156
0.00181373
0.00182491
0.00181152
0.0018116
0.00182268
0.00182487
0.00181372
0.00182484
0.00181373
0.00181156
0.00182491
0.00182491
0.0018116
0.00181152
0.00181152
0.00177573
0.00178912
0.00178912
0.00177573
0.00178912
0.00177573
0.00177573
0.00178912
0.00178912
0.00177573
0.00178693
0.00178693
0.00178693
0.00176009
0.00176009
0.00176009
0.00176009
0.00177581
0.00178908
0.00178689
0.00177793
0.00178905
0.00177577
0.00177794
0.00178912
0.00177573
0.00177581
0.00178689
0.00178908
0.00177793
0.00178905
0.00177794
0.00177577
0.00178912
0.00178912
0.00177581
0.00177573
0.00177573
0.00173994
0.00175333
0.00175333
0.00173994
0.00175333
0.00173994
0.00173994
0.00175333
0.00175333
0.00173994
0.00175114
0.00175114
0.00175114
0.0017243
0.0017243
0.0017243
0.0017243
0.00174002
0.00175329
0.0017511
0.00174214
0.00175326
0.00173998
0.00174215
0.00175333
0.00173994
0.00174002
0.0017511
0.00175329
0.00174214
0.00175326
0.00174215
0.00173998
0.00175333
0.00175333
0.00174002
0.00173994
0.00173994
0.00170415
0.00171754
0.00171753
0.00170415
0.00171753
0.00170415
0.00170415
0.00171754
0.00171753
0.00170415
0.00171535
0.00171535
0.00171535
0.0016885
0.0016885
0.0016885
0.0016885
0.00170423
0.00171749
0.00171531
0.00170635
0.00171747
0.00170419
0.00170636
0.00171754
0.00170415
0.00170423
0.00171531
0.00171749
0.00170635
0.00171747
0.00170636
0.00170419
0.00171754
0.00171754
0.00170422
0.00170414
0.00170414
0.00168174
0.00168174
0.00168174
0.00168174
0.00168174
0.00167956
0.00167956
0.00167956
0.0016817
0.00167951
0.00168168
0.00168174
0.00167952
0.0016817
0.00168168
0.00168175
0.00168175
0.00263868
0.00263868
0.00263876
0.00263876
0.0026387
0.00263879
0.0026387
0.00263879
0.00263889
0.00264142
0.00263906
0.00263888
0.00264142
0.00263906
0.00263868
0.00263876
0.00263876
0.00263868
0.0026387
0.00263879
0.00263888
0.00264142
0.00263906
0.0026387
0.00263879
0.00264142
0.00263889
0.00263906
0.00263889
0.00264142
0.00263906
0.0026387
0.00263879
0.00264142
0.00263888
0.00263906
0.0026387
0.00263879
0.00263868
0.00263876
0.00263876
0.00263868
0.00264142
0.00263888
0.00263906
0.00264142
0.00263889
0.00263906
0.0026387
0.00263879
0.0026387
0.00263879
0.00263876
0.00263876
0.00263868
0.00263868
0.00263364
0.00261869
0.00263364
0.00261869
0.00263372
0.00263373
0.00261906
0.00261876
0.00261876
0.00259874
0.00261366
0.00259874
0.00261366
0.00261384
0.00259881
0.00259881
0.00261374
0.00261374
0.00261879
0.00263367
0.00263374
0.00261871
0.00261906
0.00263374
0.00263141
0.00262138
0.00263387
0.00261888
0.00262141
0.00261906
0.00263374
0.00263141
0.00262138
0.00263387
0.00261888
0.00262141
0.00261376
0.00259877
0.00261369
0.00259884
0.00261376
0.00259877
0.00261369
0.00259884
0.00261388
0.0026114
0.00259894
0.00260146
0.00261375
0.00261143
0.00259911
0.00261388
0.0026114
0.00259894
0.00260146
0.00261375
0.00261143
0.00259911
0.00263373
0.00263372
0.00261906
0.00261876
0.00261876
0.00263364
0.00261869
0.00259874
0.00261366
0.00261385
0.00259881
0.00259881
0.00261374
0.00261374
0.00259874
0.00261366
0.00261906
0.00263374
0.00263141
0.00262138
0.00263386
0.00261888
0.00262141
0.00261879
0.00263367
0.00263374
0.00261871
0.00261906
0.00263141
0.00263374
0.00262138
0.00263386
0.00262141
0.00261888
0.00261376
0.00259877
0.00261369
0.00259885
0.00261388
0.0026114
0.00259894
0.00260146
0.00261375
0.00261143
0.00259911
0.00261376
0.00259877
0.00261369
0.00259884
0.00261388
0.0026114
0.00260146
0.00259894
0.00261143
0.00261375
0.00259911
0.00261879
0.00263367
0.00263374
0.00261871
0.00261906
0.00263141
0.00263374
0.00262138
0.00263386
0.00262141
0.00261888
0.00261879
0.00263367
0.00263374
0.00261871
0.00261388
0.0026114
0.00259894
0.00260146
0.00261375
0.00261143
0.00259911
0.00261376
0.00259877
0.00261369
0.00259884
0.00261388
0.0026114
0.00260146
0.00259894
0.00261143
0.00261375
0.00259911
0.00261376
0.00259877
0.00261369
0.00259885
0.00263372
0.00263372
0.00261906
0.00261876
0.00261876
0.00263364
0.00261869
0.00259874
0.00261366
0.00261384
0.00259881
0.00259881
0.00261374
0.00261374
0.00259874
0.00261366
0.00261906
0.00263141
0.00263374
0.00262138
0.00263387
0.00262141
0.00261888
0.00261879
0.00263367
0.00263374
0.00261871
0.00261879
0.00263367
0.00263374
0.00261871
0.00261388
0.0026114
0.00260146
0.00259894
0.00261143
0.00261375
0.0025991
0.00261388
0.0026114
0.00260146
0.00259894
0.00261143
0.00261375
0.0025991
0.00261376
0.00259877
0.00261369
0.00259884
0.00261376
0.00259877
0.00261369
0.00259884
0.00263364
0.00261869
0.00263364
0.00261869
0.00261385
0.00259881
0.00259881
0.00261374
0.00261374
0.00259874
0.00261366
0.00259874
0.00261366
0.00259373
0.00257888
0.00259373
0.00257888
0.00259381
0.00259381
0.00257926
0.00257895
0.00257895
0.00255909
0.0025739
0.00255909
0.00257389
0.00257408
0.00255915
0.00255915
0.00257397
0.00257397
0.00257897
0.00259376
0.00259383
0.0025789
0.00257923
0.00259382
0.00259151
0.00258156
0.00259394
0.00257906
0.00258158
0.00257923
0.00259382
0.00259152
0.00258156
0.00259394
0.00257906
0.00258158
0.00257398
0.00255911
0.00257391
0.00255919
0.00257398
0.00255911
0.00257391
0.00255919
0.00257408
0.00257165
0.00255926
0.00256177
0.00257397
0.00257167
0.00255942
0.00257408
0.00257165
0.00255926
0.00256177
0.00257397
0.00257167
0.00255942
0.00259381
0.00259381
0.00257926
0.00257895
0.00257895
0.00259373
0.00257888
0.00255909
0.00257389
0.00257408
0.00255915
0.00255915
0.00257397
0.00257397
0.00255909
0.00257389
0.00257923
0.00259383
0.00259152
0.00258156
0.00259394
0.00257906
0.00258158
0.00257897
0.00259376
0.00259383
0.0025789
0.00257923
0.00259152
0.00259382
0.00258156
0.00259394
0.00258158
0.00257906
0.00257398
0.00255911
0.00257391
0.00255919
0.00257408
0.00257165
0.00255926
0.00256177
0.00257397
0.00257167
0.00255942
0.00257398
0.00255911
0.00257391
0.00255919
0.00257408
0.00257165
0.00256177
0.00255926
0.00257167
0.00257397
0.00255942
0.00257897
0.00259376
0.00259383
0.0025789
0.00257923
0.00259151
0.00259382
0.00258156
0.00259394
0.00258158
0.00257906
0.00257897
0.00259376
0.00259383
0.0025789
0.00257408
0.00257165
0.00255926
0.00256177
0.00257397
0.00257167
0.00255942
0.00257398
0.00255911
0.00257391
0.00255919
0.00257408
0.00257165
0.00256177
0.00255926
0.00257167
0.00257397
0.00255942
0.00257398
0.00255911
0.00257391
0.00255919
0.00259381
0.00259381
0.00257926
0.00257895
0.00257895
0.00259373
0.00257888
0.00255909
0.00257389
0.00257408
0.00255915
0.00255915
0.00257397
0.00257397
0.00255909
0.00257389
0.00257923
0.00259151
0.00259382
0.00258156
0.00259394
0.00258158
0.00257906
0.00257897
0.00259376
0.00259383
0.0025789
0.00257897
0.00259376
0.00259383
0.0025789
0.00257408
0.00257165
0.00256177
0.00255926
0.00257167
0.00257397
0.00255942
0.00257408
0.00257164
0.00256177
0.00255926
0.00257167
0.00257397
0.00255942
0.00257398
0.00255911
0.00257391
0.00255919
0.00257398
0.00255911
0.00257391
0.00255919
0.00259373
0.00257888
0.00259373
0.00257888
0.00257408
0.00255915
0.00255915
0.00257397
0.00257397
0.00255909
0.00257389
0.00255909
0.00257389
0.00255412
0.00253934
0.00255412
0.00253934
0.00255419
0.00255419
0.00253972
0.0025394
0.0025394
0.00251968
0.00253438
0.00251968
0.00253438
0.00253457
0.00251972
0.00251972
0.00253444
0.00253444
0.00253944
0.00255413
0.00255421
0.00253937
0.00253967
0.00255418
0.00255189
0.002542
0.00255429
0.00253951
0.00254203
0.00253967
0.00255418
0.00255189
0.002542
0.00255429
0.00253951
0.00254203
0.00253447
0.0025197
0.00253441
0.00251977
0.00253447
0.0025197
0.00253441
0.00251977
0.00253456
0.00253216
0.00251983
0.00252236
0.00253445
0.00253218
0.00252
0.00253456
0.00253216
0.00251983
0.00252236
0.00253445
0.00253218
0.00252
0.00255419
0.00255418
0.00253972
0.0025394
0.0025394
0.00255412
0.00253934
0.00251968
0.00253438
0.00253457
0.00251972
0.00251972
0.00253444
0.00253444
0.00251968
0.00253438
0.00253967
0.00255418
0.00255189
0.002542
0.00255429
0.00253951
0.00254203
0.00253944
0.00255413
0.00255421
0.00253937
0.00253967
0.00255189
0.00255418
0.002542
0.00255429
0.00254203
0.00253951
0.00253447
0.0025197
0.00253441
0.00251977
0.00253456
0.00253216
0.00251983
0.00252236
0.00253445
0.00253218
0.00252
0.00253447
0.0025197
0.00253441
0.00251977
0.00253456
0.00253216
0.00252236
0.00251983
0.00253218
0.00253445
0.00252
0.00253944
0.00255413
0.00255421
0.00253936
0.00253967
0.00255189
0.00255418
0.002542
0.00255429
0.00254203
0.00253951
0.00253944
0.00255413
0.00255421
0.00253936
0.00253456
0.00253216
0.00251983
0.00252236
0.00253445
0.00253218
0.00252
0.00253447
0.0025197
0.00253441
0.00251977
0.00253456
0.00253216
0.00252236
0.00251983
0.00253218
0.00253445
0.00252
0.00253447
0.0025197
0.00253441
0.00251977
0.00255419
0.00255419
0.00253972
0.0025394
0.0025394
0.00255412
0.00253934
0.00251968
0.00253438
0.00253457
0.00251972
0.00251972
0.00253444
0.00253444
0.00251968
0.00253438
0.00253967
0.00255189
0.00255418
0.002542
0.00255429
0.00254203
0.00253951
0.00253944
0.00255413
0.00255421
0.00253937
0.00253944
0.00255413
0.00255421
0.00253937
0.00253456
0.00253216
0.00252236
0.00251983
0.00253218
0.00253445
0.00252
0.00253456
0.00253216
0.00252236
0.00251983
0.00253218
0.00253445
0.00252
0.00253447
0.0025197
0.00253441
0.00251977
0.00253447
0.0025197
0.00253441
0.00251977
0.00255412
0.00253934
0.00255412
0.00253934
0.00253457
0.00251972
0.00251972
0.00253444
0.00253444
0.00251968
0.00253438
0.00251968
0.00253438
0.00251474
0.00250014
0.00251475
0.00250014
0.0025148
0.0025148
0.00250053
0.00250019
0.00250019
0.00248075
0.00249525
0.00248075
0.00249525
0.00249544
0.00248079
0.00248079
0.0024953
0.0024953
0.00250023
0.00251477
0.00251483
0.00250016
0.00250045
0.0025148
0.00251257
0.00250278
0.00251491
0.00250029
0.00250281
0.00250045
0.0025148
0.00251257
0.00250278
0.00251491
0.00250029
0.00250281
0.00249532
0.00248075
0.00249526
0.00248082
0.00249532
0.00248075
0.00249526
0.00248082
0.00249539
0.00249305
0.00248087
0.00248337
0.00249529
0.00249307
0.00248103
0.00249539
0.00249305
0.00248087
0.00248337
0.00249529
0.00249307
0.00248103
0.0025148
0.0025148
0.00250053
0.00250019
0.00250019
0.00251474
0.00250014
0.00248075
0.00249525
0.00249544
0.00248079
0.00248079
0.0024953
0.0024953
0.00248075
0.00249525
0.00250045
0.0025148
0.00251257
0.00250278
0.00251491
0.00250029
0.00250281
0.00250023
0.00251477
0.00251483
0.00250016
0.00250045
0.00251257
0.0025148
0.00250278
0.00251491
0.00250281
0.00250029
0.00249532
0.00248075
0.00249526
0.00248082
0.00249539
0.00249305
0.00248087
0.00248337
0.00249529
0.00249307
0.00248103
0.00249532
0.00248075
0.00249526
0.00248082
0.00249539
0.00249305
0.00248337
0.00248087
0.00249307
0.00249529
0.00248103
0.00250023
0.00251477
0.00251483
0.00250016
0.00250045
0.00251257
0.0025148
0.00250278
0.00251491
0.0025028
0.00250029
0.00250023
0.00251477
0.00251483
0.00250016
0.00249539
0.00249305
0.00248087
0.00248337
0.00249529
0.00249307
0.00248103
0.00249532
0.00248075
0.00249526
0.00248082
0.00249539
0.00249305
0.00248337
0.00248087
0.00249307
0.00249529
0.00248103
0.00249532
0.00248075
0.00249526
0.00248082
0.0025148
0.0025148
0.00250053
0.00250019
0.00250019
0.00251474
0.00250014
0.00248075
0.00249525
0.00249544
0.00248079
0.00248079
0.0024953
0.0024953
0.00248075
0.00249525
0.00250045
0.00251257
0.0025148
0.00250278
0.00251491
0.0025028
0.00250029
0.00250023
0.00251477
0.00251483
0.00250016
0.00250023
0.00251477
0.00251483
0.00250016
0.00249539
0.00249305
0.00248337
0.00248087
0.00249307
0.00249529
0.00248102
0.00249539
0.00249305
0.00248337
0.00248087
0.00249307
0.00249529
0.00248103
0.00249532
0.00248075
0.00249526
0.00248082
0.00249532
0.00248075
0.00249526
0.00248082
0.00251474
0.00250014
0.00251474
0.00250014
0.00249544
0.00248079
0.00248079
0.0024953
0.0024953
0.00248075
0.00249525
0.00248075
0.00249525
0.00247588
0.00246144
0.00247588
0.00246144
0.00247592
0.00247592
0.00246181
0.00246147
0.00246147
0.00244226
0.0024566
0.00244226
0.0024566
0.00245676
0.00244228
0.00244228
0.00245664
0.00245664
0.00246151
0.00247589
0.00247594
0.00246145
0.0024617
0.0024759
0.0024737
0.00246403
0.002476
0.00246156
0.00246405
0.0024617
0.0024759
0.0024737
0.00246403
0.002476
0.00246156
0.00246405
0.00245666
0.00244227
0.00245661
0.00244232
0.00245666
0.00244227
0.00245661
0.00244232
0.0024567
0.00245441
0.00244237
0.00244485
0.00245662
0.00245443
0.0024425
0.0024567
0.00245441
0.00244236
0.00244485
0.00245662
0.00245443
0.0024425
0.00247592
0.00247592
0.00246181
0.00246147
0.00246147
0.00247588
0.00246144
0.00244226
0.0024566
0.00245676
0.00244228
0.00244228