/*--------------------------------*- C++ -*----------------------------------*\
| =========                 |                                                 |
| \\      /  F ield         | OpenFOAM: The Open Source CFD Toolbox           |
|  \\    /   O peration     | Version:  v1906                                 |
|   \\  /    A nd           | Web:      www.OpenFOAM.com                      |
|    \\/     M anipulation  |                                                 |
\*---------------------------------------------------------------------------*/
FoamFile
{
    version     2.0;
    format      ascii;
    class       surfaceScalarField;
    location    "125";
    object      phi;
}
// * * * * * * * * * * * * * * * * * * * * * * * * * * * * * * * * * * * * * //

dimensions      [0 3 -1 0 0 0 0];
oriented        oriented;


internalField   nonuniform List<scalar> 
124908
(
5.02377e-09
5.53772e-09
-0.0011644
-5.59449e-09
-5.53281e-09
0.0011644
-0.00114475
-1.28975e-06
-5.55726e-09
1.17304e-08
0.00114475
-2.83089e-07
1.29693e-06
2.78474e-07
9.43218e-07
-2.6952e-07
-9.4269e-07
2.59787e-07
-0.00114438
-1.28417e-06
-5.57902e-09
1.17177e-08
0.00114439
-2.83045e-07
1.29127e-06
2.78516e-07
9.43029e-07
-2.72178e-07
-9.42555e-07
2.62502e-07
-0.000275671
1.3191e-06
1.28425e-06
-2.68786e-07
-2.74191e-07
0.000273611
5.14591e-09
5.65867e-09
-0.0011644
-5.62826e-09
-5.58357e-09
0.0011644
-0.00114475
-1.28969e-06
-5.69823e-09
1.15638e-08
0.00114475
-2.83019e-07
1.29696e-06
2.78549e-07
9.43271e-07
-2.69442e-07
-9.42643e-07
2.59859e-07
-0.00114439
-1.2841e-06
-5.72582e-09
1.15718e-08
0.00114439
-2.82982e-07
1.29128e-06
2.78581e-07
9.43087e-07
-2.72107e-07
-9.42509e-07
2.62573e-07
-0.000275671
1.31912e-06
1.28426e-06
-2.68728e-07
-2.74153e-07
0.000273611
5.57509e-09
6.04826e-09
-0.00116441
-5.85384e-09
-5.81158e-09
0.00116441
-0.00114475
-1.28954e-06
-6.09812e-09
1.1457e-08
0.00114475
-2.82989e-07
1.29707e-06
2.78569e-07
9.43332e-07
-2.69364e-07
-9.4257e-07
2.59916e-07
-0.00114439
-1.28391e-06
-6.1786e-09
1.14493e-08
0.00114439
-2.82948e-07
1.29144e-06
2.78599e-07
9.43143e-07
-2.72043e-07
-9.4245e-07
2.62621e-07
-0.000275672
1.31908e-06
1.28423e-06
-2.68693e-07
-2.74112e-07
0.000273611
5.75674e-09
6.17649e-09
-0.00116441
-5.93156e-09
-5.91016e-09
0.00116441
-0.00114475
-1.28943e-06
-6.27635e-09
1.13779e-08
0.00114476
-2.82965e-07
1.29719e-06
2.7856e-07
9.43304e-07
-2.69348e-07
-9.42577e-07
2.59912e-07
-0.00114439
-1.28385e-06
-6.35048e-09
1.14221e-08
0.00114439
-2.82928e-07
1.29153e-06
2.78589e-07
9.4313e-07
-2.72004e-07
-9.42429e-07
2.62625e-07
-0.000275672
1.319e-06
1.28415e-06
-2.68644e-07
-2.74056e-07
0.000273612
5.76893e-09
6.20962e-09
-0.00116441
-5.94959e-09
-5.94188e-09
0.00116441
-0.00114476
-1.28945e-06
-6.29479e-09
1.13597e-08
0.00114476
-2.82939e-07
1.29721e-06
2.78564e-07
9.43297e-07
-2.69312e-07
-9.42524e-07
2.599e-07
-0.00114439
-1.28389e-06
-6.32232e-09
1.14035e-08
0.00114439
-2.82892e-07
1.29153e-06
2.78605e-07
9.43113e-07
-2.71971e-07
-9.42401e-07
2.62616e-07
-0.000275672
1.31892e-06
1.28407e-06
-2.68612e-07
-2.74025e-07
0.000273612
5.63623e-09
6.04478e-09
-0.00116441
-5.82785e-09
-5.8123e-09
0.00116441
-0.00114476
-1.28949e-06
-6.11081e-09
1.14038e-08
0.00114476
-2.82893e-07
1.29717e-06
2.78584e-07
9.43268e-07
-2.69281e-07
-9.42493e-07
2.59877e-07
-0.00114439
-1.28394e-06
-6.12857e-09
1.14494e-08
0.00114439
-2.82853e-07
1.29146e-06
2.78626e-07
9.43092e-07
-2.71933e-07
-9.42356e-07
2.626e-07
-0.000275672
1.3189e-06
1.28406e-06
-2.68591e-07
-2.73993e-07
0.000273612
5.57585e-09
6.09623e-09
-0.0011644
-5.83735e-09
-5.79606e-09
0.0011644
-0.00114476
-1.28953e-06
-6.14352e-09
1.14076e-08
0.00114476
-2.82862e-07
1.29709e-06
2.78589e-07
9.43312e-07
-2.69187e-07
-9.42364e-07
2.59882e-07
-0.00114439
-1.28397e-06
-6.15092e-09
1.14246e-08
0.00114439
-2.82823e-07
1.29139e-06
2.78629e-07
9.43125e-07
-2.71855e-07
-9.4224e-07
2.62594e-07
-0.000275672
1.31887e-06
1.28402e-06
-2.68518e-07
-2.73931e-07
0.000273612
5.34003e-09
5.76961e-09
-0.0011644
-5.61458e-09
-5.60039e-09
0.0011644
-0.00114476
-1.28957e-06
-5.83714e-09
1.15339e-08
0.00114476
-2.82883e-07
1.29697e-06
2.78518e-07
9.43214e-07
-2.69141e-07
-9.42329e-07
2.59781e-07
-0.00114439
-1.28399e-06
-5.87109e-09
1.15578e-08
0.00114439
-2.82849e-07
1.29128e-06
2.78556e-07
9.43034e-07
-2.71799e-07
-9.42197e-07
2.62497e-07
-0.000275672
1.31893e-06
1.28408e-06
-2.68514e-07
-2.73927e-07
0.000273612
5.06278e-09
5.52421e-09
-0.0011644
-5.47536e-09
-5.43009e-09
0.0011644
-0.00114475
-1.28948e-06
-5.58949e-09
1.14796e-08
0.00114475
-2.82829e-07
1.29692e-06
2.78484e-07
9.43055e-07
-2.69042e-07
-9.42254e-07
2.59656e-07
-0.00114439
-1.2839e-06
-5.61222e-09
1.15155e-08
0.00114439
-2.82801e-07
1.29124e-06
2.78512e-07
9.4287e-07
-2.71708e-07
-9.42128e-07
2.62371e-07
-0.000275672
1.31892e-06
1.28408e-06
-2.6845e-07
-2.73857e-07
0.000273611
4.68641e-09
5.2107e-09
-0.0011644
-5.31017e-09
-5.23445e-09
0.0011644
-0.00114475
-1.28937e-06
-5.21565e-09
1.15488e-08
0.00114475
-2.82795e-07
1.29687e-06
2.7836e-07
9.42804e-07
-2.68925e-07
-9.42113e-07
2.59398e-07
-0.00114439
-1.28378e-06
-5.30203e-09
1.15621e-08
0.00114439
-2.8276e-07
1.29118e-06
2.78391e-07
9.42634e-07
-2.71579e-07
-9.41973e-07
2.62123e-07
-0.000275672
1.31887e-06
1.28403e-06
-2.68342e-07
-2.73742e-07
0.000273611
4.14443e-09
4.61558e-09
-0.0011644
-5.03254e-09
-4.98657e-09
0.0011644
-0.00114475
-1.28925e-06
-4.6438e-09
1.16784e-08
0.00114475
-2.827e-07
1.29672e-06
2.78178e-07
9.42408e-07
-2.68674e-07
-9.41857e-07
2.59008e-07
-0.00114439
-1.28367e-06
-4.71696e-09
1.17232e-08
0.00114439
-2.82679e-07
1.29103e-06
2.78194e-07
9.42234e-07
-2.71326e-07
-9.41719e-07
2.61734e-07
-0.000275672
1.31878e-06
1.28394e-06
-2.68143e-07
-2.73539e-07
0.000273611
3.26243e-09
3.75877e-09
-0.0011644
-4.69938e-09
-4.64352e-09
0.0011644
-0.00114475
-1.28907e-06
-3.84351e-09
1.19077e-08
0.00114475
-2.82539e-07
1.29643e-06
2.77858e-07
9.41756e-07
-2.68245e-07
-9.41428e-07
2.58381e-07
-0.00114439
-1.28347e-06
-3.90193e-09
1.19065e-08
0.00114439
-2.82492e-07
1.29078e-06
2.77908e-07
9.41572e-07
-2.7091e-07
-9.41294e-07
2.61085e-07
-0.000275672
1.3186e-06
1.28375e-06
-2.67763e-07
-2.73175e-07
0.000273611
2.15457e-09
2.61121e-09
-0.0011644
-4.42726e-09
-4.40131e-09
0.00116441
-0.00114475
-1.28878e-06
-2.69188e-09
1.2296e-08
0.00114475
-2.82252e-07
1.29594e-06
2.77308e-07
9.40678e-07
-2.67513e-07
-9.40695e-07
2.5734e-07
-0.00114439
-1.28319e-06
-2.63341e-09
1.22807e-08
0.00114439
-2.82164e-07
1.29028e-06
2.77365e-07
9.40464e-07
-2.70209e-07
-9.40594e-07
2.60016e-07
-0.000275673
1.31833e-06
1.28346e-06
-2.67129e-07
-2.72565e-07
0.00027361
3.9329e-10
9.63911e-10
-0.0011644
-4.24589e-09
-4.17797e-09
0.00116441
-0.00114475
-1.28831e-06
-9.22692e-10
1.29223e-08
0.00114475
-2.81721e-07
1.29503e-06
2.76373e-07
9.38871e-07
-2.663e-07
-9.39472e-07
2.55571e-07
-0.00114439
-1.28273e-06
-9.6162e-10
1.29118e-08
0.00114439
-2.81649e-07
1.28935e-06
2.76412e-07
9.38691e-07
-2.68962e-07
-9.39343e-07
2.58284e-07
-0.000275673
1.31782e-06
1.28296e-06
-2.66084e-07
-2.71495e-07
0.00027361
-1.53791e-09
-1.15682e-09
-0.0011644
-4.33566e-09
-4.26203e-09
0.00116441
-0.00114475
-1.28742e-06
1.13219e-09
1.37474e-08
0.00114475
-2.80727e-07
1.29345e-06
2.74744e-07
9.35901e-07
-2.64197e-07
-9.37383e-07
2.52645e-07
-0.00114439
-1.28184e-06
1.03036e-09
1.37745e-08
0.00114439
-2.80679e-07
1.28776e-06
2.74764e-07
9.3574e-07
-2.66842e-07
-9.37232e-07
2.55373e-07
-0.000275674
1.31686e-06
1.28203e-06
-2.64262e-07
-2.69649e-07
0.000273609
-4.11038e-09
-3.81173e-09
-0.0011644
-5.06515e-09
-5.05662e-09
0.00116441
-0.00114476
-1.28573e-06
3.67087e-09
1.49896e-08
0.00114475
-2.78873e-07
1.29067e-06
2.71808e-07
9.30936e-07
-2.60548e-07
-9.33836e-07
2.47719e-07
-0.00114439
-1.28014e-06
3.62426e-09
1.50804e-08
0.00114439
-2.78844e-07
1.285e-06
2.71776e-07
9.30759e-07
-2.63204e-07
-9.33696e-07
2.50432e-07
-0.000275676
1.31519e-06
1.28033e-06
-2.61089e-07
-2.66509e-07
0.000273608
-7.51614e-09
-7.24704e-09
-0.00116439
-7.05126e-09
-7.07654e-09
0.00116442
-0.00114476
-1.28256e-06
7.09271e-09
1.70804e-08
0.00114476
-2.75328e-07
1.28559e-06
2.66396e-07
9.22687e-07
-2.54236e-07
-9.27711e-07
2.39309e-07
-0.00114439
-1.27696e-06
7.08644e-09
1.71769e-08
0.00114439
-2.75295e-07
1.27994e-06
2.66365e-07
9.22493e-07
-2.56905e-07
-9.27587e-07
2.42005e-07
-0.000275678
1.31207e-06
1.27719e-06
-2.55631e-07
-2.61052e-07
0.000273605
-1.25061e-08
-1.21516e-08
-0.00116439
-1.09574e-08
-1.09001e-08
0.00116443
-0.00114476
-1.27639e-06
1.20366e-08
2.116e-08
0.00114476
-2.6836e-07
1.2759e-06
2.56077e-07
9.08566e-07
-2.43133e-07
-9.17063e-07
2.24816e-07
-0.00114439
-1.27075e-06
1.20005e-08
2.11923e-08
0.0011444
-2.68327e-07
1.27029e-06
2.56107e-07
9.0836e-07
-2.4582e-07
-9.16899e-07
2.27524e-07
-0.000275681
1.30585e-06
1.271e-06
-2.46175e-07
-2.51545e-07
0.000273602
-1.99123e-09
-1.49768e-09
-0.00116439
-2.52768e-08
-3.06693e-08
0.00116445
-0.00114476
-1.26348e-06
6.9855e-09
1.57901e-08
0.0011448
-2.53945e-07
1.25924e-06
2.41157e-07
8.88326e-07
-2.25949e-07
-9.00813e-07
2.01793e-07
-0.00114441
-1.25509e-06
1.37556e-09
2.13807e-08
0.00114444
-2.53827e-07
1.25081e-06
2.38415e-07
8.85409e-07
-2.25858e-07
-8.97859e-07
2.04566e-07
-0.000275691
1.29566e-06
1.25807e-06
-2.26949e-07
-2.32209e-07
0.000273596
8.74426e-07
8.81857e-07
-0.00116423
-7.75783e-07
-7.64886e-07
0.00116401
-0.00114508
-1.15084e-06
-8.75843e-07
-3.55276e-07
0.00114544
-1.55905e-07
1.41087e-06
3.226e-07
1.03033e-06
-1.0701e-07
-7.74567e-07
2.98187e-07
-0.00114473
-1.1424e-06
-8.87281e-07
-3.66627e-07
0.00114511
-1.55741e-07
1.40529e-06
3.2553e-07
1.02728e-06
-1.12447e-07
-7.71616e-07
3.00967e-07
-0.000275765
1.18591e-06
1.14263e-06
-1.25663e-07
-1.28172e-07
0.000273691
5.43896e-06
5.43194e-06
-0.0011505
-1.13159e-05
-1.12117e-05
0.000279265
0.000282626
0.000281823
0.000281824
4.43806e-06
6.74385e-06
7.12431e-06
4.44223e-06
6.7447e-06
7.12798e-06
-0.000283111
5.35692e-06
-5.42905e-06
5.92367e-06
-3.41736e-06
0.000280676
-0.000283085
-5.43141e-06
5.36236e-06
-3.42562e-06
5.92061e-06
0.000280659
-0.000276716
-5.35358e-06
-5.36514e-06
5.8633e-06
5.8511e-06
0.00027572
-1.33165e-06
-1.29406e-06
0.000275688
-0.000273617
2.73192e-07
2.81255e-07
0.00114391
-5.0465e-09
-0.00114391
1.2242e-08
-1.32476e-06
2.83831e-07
-2.88723e-07
-9.42726e-07
2.59612e-07
-2.69563e-07
9.43061e-07
1.3374e-06
0.00114437
-4.92453e-09
-0.00114437
1.2314e-08
-1.33034e-06
2.86616e-07
-2.91546e-07
-9.48507e-07
2.62352e-07
-2.7248e-07
9.48714e-07
-1.29692e-06
0.00027572
-0.00027364
2.76154e-07
2.78444e-07
0.00114503
-5.53232e-09
-0.00114503
1.16984e-08
-1.28712e-06
2.81316e-07
-2.85881e-07
-9.45416e-07
2.62602e-07
-2.72258e-07
9.46104e-07
1.33172e-06
0.00114402
-4.96748e-09
-0.00114402
1.23483e-08
-1.3248e-06
2.86578e-07
-2.91565e-07
-9.45576e-07
2.62383e-07
-2.72352e-07
9.45783e-07
-5.57023e-09
-0.00114475
1.17603e-08
-1.28971e-06
2.78457e-07
-2.83103e-07
-9.42707e-07
2.59805e-07
9.43228e-07
-2.695e-07
1.32613e-06
0.00114381
-4.97353e-09
-0.00114381
1.23367e-08
-1.31922e-06
2.81037e-07
-2.85862e-07
-9.42812e-07
2.59569e-07
-2.69586e-07
9.43005e-07
-1.29124e-06
0.000275666
-0.000273598
2.73491e-07
2.80968e-07
-5.61429e-09
-0.00114438
1.17507e-08
-1.28412e-06
2.78497e-07
-2.83064e-07
-9.42513e-07
2.625e-07
9.43109e-07
-2.7218e-07
1.29133e-06
0.00114492
-5.55822e-09
-0.00114492
1.18325e-08
-1.28437e-06
2.78501e-07
-2.831e-07
-9.42745e-07
2.62577e-07
-2.72243e-07
9.43378e-07
-0.000273611
2.75779e-07
2.81273e-07
1.32471e-06
1.28707e-06
-2.66209e-07
-2.74138e-07
0.000273617
-1.33171e-06
-1.29411e-06
0.000275689
-0.000273617
2.73236e-07
2.81318e-07
1.22084e-08
0.00114391
-2.88712e-07
1.33179e-06
2.8382e-07
9.42991e-07
-2.69599e-07
-9.42763e-07
2.5957e-07
-1.33038e-06
-4.90972e-09
1.22733e-08
0.00114437
-2.91529e-07
1.33741e-06
2.86635e-07
9.48693e-07
-2.72496e-07
-9.485e-07
2.62336e-07
0.00114391
-5.03551e-09
-0.00114391
1.219e-08
-1.32467e-06
2.83844e-07
-2.88711e-07
-9.42735e-07
2.59634e-07
-2.69548e-07
9.4306e-07
1.33748e-06
0.00114437
-4.93913e-09
-0.00114437
1.22104e-08
-1.33026e-06
2.86648e-07
-2.91521e-07
-9.48514e-07
2.62377e-07
-2.7246e-07
9.48708e-07
-2.68999e-07
-2.71341e-07
0.00027364
-1.29699e-06
0.00027572
-0.00027364
2.76223e-07
2.78516e-07
1.16667e-08
0.00114503
-2.85874e-07
1.29419e-06
2.81302e-07
9.46066e-07
-2.72298e-07
-9.45422e-07
2.62557e-07
-1.32485e-06
-4.95825e-09
1.2312e-08
0.00114402
-2.91544e-07
1.33175e-06
2.86599e-07
9.45762e-07
-2.72361e-07
-9.45563e-07
2.62369e-07
0.00114503
-5.52391e-09
-0.00114503
1.16185e-08
-1.28703e-06
2.81337e-07
-2.85862e-07
-9.45423e-07
2.62627e-07
-2.72245e-07
9.46099e-07
1.33182e-06
0.00114402
-4.95262e-09
-0.00114402
1.22965e-08
-1.3247e-06
2.86595e-07
-2.91545e-07
-9.45592e-07
2.62391e-07
-2.72342e-07
9.45762e-07
-4.98878e-09
1.23107e-08
0.00114381
-2.85891e-07
1.32626e-06
2.80995e-07
9.42957e-07
-2.69637e-07
2.59525e-07
-9.42845e-07
-5.56808e-09
-0.00114475
1.16602e-08
-1.28962e-06
2.78491e-07
-2.83076e-07
-9.42718e-07
2.59832e-07
9.43214e-07
-2.69479e-07
1.32612e-06
0.00114381
-4.98696e-09
-0.00114381
1.22344e-08
-1.31919e-06
2.81087e-07
-2.85827e-07
-9.42797e-07
2.59613e-07
-2.69553e-07
9.43024e-07
-2.66398e-07
-2.73979e-07
0.000273598
-1.29132e-06
0.000275667
-0.000273598
2.73542e-07
2.81055e-07
-5.55149e-09
1.17979e-08
0.00114492
-2.83129e-07
1.29145e-06
2.7846e-07
9.4333e-07
-2.72298e-07
2.6253e-07
-9.42774e-07
-5.62313e-09
-0.00114439
1.16876e-08
-1.28403e-06
2.78523e-07
-2.83037e-07
-9.42528e-07
2.62518e-07
9.43091e-07
-2.72165e-07
1.29132e-06
0.00114493
-5.54298e-09
-0.00114493
1.17366e-08
-1.28433e-06
2.7855e-07
-2.83066e-07
-9.42737e-07
2.62616e-07
-2.72216e-07
9.43388e-07
-0.000273611
2.7582e-07
2.8129e-07
1.32468e-06
1.28706e-06
-2.66167e-07
-2.74076e-07
0.000273617
-1.33188e-06
-1.29429e-06
0.000275689
-0.000273618
2.73347e-07
2.81397e-07
1.2074e-08
0.00114391
-2.88655e-07
1.33177e-06
2.83885e-07
9.43069e-07
-2.69519e-07
-9.42693e-07
2.59648e-07
-1.33031e-06
-5.05083e-09
1.2116e-08
0.00114437
-2.91464e-07
1.33745e-06
2.86703e-07
9.48755e-07
-2.72422e-07
-9.48447e-07
2.62407e-07
0.00114391
-5.49485e-09
-0.00114391
1.20506e-08
-1.32448e-06
2.83858e-07
-2.88677e-07
-9.42673e-07
2.59688e-07
-2.69476e-07
9.43105e-07
1.33762e-06
0.00114437
-5.32474e-09
-0.00114437
1.21057e-08
-1.33014e-06
2.86674e-07
-2.91467e-07
-9.48437e-07
2.62425e-07
-2.72385e-07
9.48751e-07
-2.68923e-07
-2.71253e-07
0.00027364
-1.29713e-06
0.00027572
-0.00027364
2.76301e-07
2.78593e-07
1.15102e-08
0.00114503
-2.8581e-07
1.29416e-06
2.81375e-07
9.4613e-07
-2.72213e-07
-9.45363e-07
2.62638e-07
-1.32476e-06
-5.08126e-09
1.21948e-08
0.00114402
-2.91491e-07
1.33179e-06
2.86653e-07
9.45812e-07
-2.72301e-07
-9.45522e-07
2.62425e-07
0.00114503
-5.9728e-09
-0.00114503
1.14943e-08
-1.28683e-06
2.81345e-07
-2.85834e-07
-9.45344e-07
2.62678e-07
-2.72178e-07
9.4615e-07
1.33199e-06
0.00114403
-5.3905e-09
-0.00114403
1.21376e-08
-1.32456e-06
2.86642e-07
-2.91473e-07
-9.45509e-07
2.62441e-07
-2.72263e-07
9.45808e-07
-5.14702e-09
1.21441e-08
0.00114381
-2.85804e-07
1.32625e-06
2.81086e-07
9.43027e-07
-2.69543e-07
2.59609e-07
-9.42771e-07
-6.0069e-09
-0.00114475
1.15662e-08
-1.2895e-06
2.78516e-07
-2.83025e-07
-9.4262e-07
2.59893e-07
9.43274e-07
-2.69394e-07
1.32621e-06
0.00114381
-5.38823e-09
-0.00114381
1.20943e-08
-1.31904e-06
2.81111e-07
-2.85796e-07
-9.4271e-07
2.59678e-07
-2.69476e-07
9.43093e-07
-2.66348e-07
-2.73881e-07
0.000273598
-1.2915e-06
0.000275667
-0.000273598
2.73649e-07
2.8114e-07
-5.66377e-09
1.16205e-08
0.00114493
-2.8304e-07
1.29145e-06
2.7855e-07
9.43394e-07
-2.72208e-07
2.6261e-07
-9.42707e-07
-6.05624e-09
-0.00114439
1.15564e-08
-1.2839e-06
2.78565e-07
-2.8297e-07
-9.42457e-07
2.62561e-07
9.43126e-07
-2.72097e-07
1.2914e-06
0.00114493
-5.88604e-09
-0.00114493
1.1577e-08
-1.2842e-06
2.78575e-07
-2.83036e-07
-9.42657e-07
2.62677e-07
-2.72143e-07
9.43448e-07
-0.000273611
2.75868e-07
2.81358e-07
1.32458e-06
1.28693e-06
-2.66084e-07
-2.74022e-07
0.000273618
-1.33201e-06
-1.29443e-06
0.000275689
-0.000273618
2.73421e-07
2.81462e-07
1.19369e-08
0.00114391
-2.88617e-07
1.3318e-06
2.83929e-07
9.43161e-07
-2.69436e-07
-9.42605e-07
2.5972e-07
-1.33018e-06
-5.41641e-09
1.19914e-08
0.00114437
-2.91433e-07
1.33756e-06
2.86723e-07
9.48808e-07
-2.72357e-07
-9.48385e-07
2.6245e-07
0.00114392
-5.80375e-09
-0.00114392
1.20083e-08
-1.32439e-06
2.83872e-07
-2.8863e-07
-9.42625e-07
2.59698e-07
-2.69434e-07
9.4311e-07
1.33768e-06
0.00114437
-5.64067e-09
-0.00114437
1.20052e-08
-1.33011e-06
2.86719e-07
-2.91399e-07
-9.48369e-07
2.62452e-07
-2.72334e-07
9.48782e-07
-2.68842e-07
-2.71177e-07
0.00027364
-1.2972e-06
0.00027572
-0.000273641
2.76348e-07
2.78631e-07
1.13688e-08
0.00114503
-2.85771e-07
1.29421e-06
2.81421e-07
9.46208e-07
-2.7213e-07
-9.45283e-07
2.62711e-07
-1.32458e-06
-5.45301e-09
1.20293e-08
0.00114403
-2.91446e-07
1.33194e-06
2.86684e-07
9.45855e-07
-2.72243e-07
-9.45467e-07
2.62459e-07
0.00114503
-6.1971e-09
-0.00114503
1.14215e-08
-1.28674e-06
2.81368e-07
-2.85777e-07
-9.45314e-07
2.6266e-07
-2.72164e-07
9.4614e-07
1.332e-06
0.00114403
-5.57372e-09
-0.00114403
1.20852e-08
-1.32458e-06
2.86697e-07
-2.91397e-07
-9.45463e-07
2.62457e-07
-2.72221e-07
9.45816e-07
-5.5327e-09
1.19682e-08
0.00114381
-2.85736e-07
1.32624e-06
2.81165e-07
9.43125e-07
-2.69443e-07
2.59693e-07
-9.42666e-07
-6.23007e-09
-0.00114475
1.14759e-08
-1.28947e-06
2.78572e-07
-2.82946e-07
-9.42574e-07
2.59893e-07
9.43277e-07
-2.69365e-07
1.32635e-06
0.00114382
-5.677e-09
-0.00114382
1.20149e-08
-1.3189e-06
2.81116e-07
-2.85764e-07
-9.42668e-07
2.59686e-07
-2.69444e-07
9.43106e-07
-2.66237e-07
-2.73797e-07
0.000273598
-1.2915e-06
0.000275667
-0.000273598
2.73657e-07
2.81171e-07
-5.998e-09
1.14487e-08
0.00114493
-2.82976e-07
1.29144e-06
2.78627e-07
9.43484e-07
-2.72114e-07
2.62688e-07
-9.42612e-07
-6.34997e-09
-0.00114439
1.15125e-08
-1.28392e-06
2.78612e-07
-2.82907e-07
-9.42358e-07
2.62609e-07
9.4318e-07
-2.72016e-07
1.29154e-06
0.00114493
-6.17582e-09
-0.00114493
1.14963e-08
-1.28405e-06
2.78579e-07
-2.83005e-07
-9.4261e-07
2.62684e-07
-2.72115e-07
9.43464e-07
-0.000273612
2.75942e-07
2.81434e-07
1.32444e-06
1.28678e-06
-2.66008e-07
-2.7396e-07
0.000273618
-1.33196e-06
-1.29436e-06
0.000275689
-0.000273618
2.73381e-07
2.81438e-07
1.19381e-08
0.00114392
-2.88628e-07
1.33191e-06
2.83891e-07
9.43147e-07
-2.69416e-07
-9.42605e-07
2.59719e-07
-1.33007e-06
-5.68045e-09
1.19155e-08
0.00114437
-2.91419e-07
1.33767e-06
2.86707e-07
9.48809e-07
-2.72319e-07
-9.48364e-07
2.62469e-07
0.00114392
-5.8028e-09
-0.00114392
1.20286e-08
-1.32449e-06
2.83887e-07
-2.88597e-07
-9.42569e-07
2.59697e-07
-2.69394e-07
9.43124e-07
1.33758e-06
0.00114437
-5.63546e-09
-0.00114437
1.2004e-08
-1.33021e-06
2.86743e-07
-2.9137e-07
-9.48294e-07
2.62467e-07
-2.72279e-07
9.48819e-07
-2.68775e-07
-2.71123e-07
0.000273641
-1.29711e-06
0.000275721
-0.000273641
2.76307e-07
2.78585e-07
1.1341e-08
0.00114503
-2.85775e-07
1.29432e-06
2.81388e-07
9.46174e-07
-2.72133e-07
-9.45299e-07
2.62694e-07
-1.32451e-06
-5.6574e-09
1.20073e-08
0.00114403
-2.91428e-07
1.33203e-06
2.86666e-07
9.45843e-07
-2.72209e-07
-9.45462e-07
2.62472e-07
0.00114503
-6.27923e-09
-0.00114503
1.14386e-08
-1.28684e-06
2.81375e-07
-2.85754e-07
-9.45227e-07
2.62684e-07
-2.72094e-07
9.4619e-07
1.3319e-06
0.00114403
-5.64634e-09
-0.00114403
1.20916e-08
-1.32468e-06
2.8671e-07
-2.91386e-07
-9.4536e-07
2.62482e-07
-2.72158e-07
9.45883e-07
-5.66545e-09
1.19473e-08
0.00114382
-2.85732e-07
1.32625e-06
2.81158e-07
9.43131e-07
-2.69413e-07
2.59707e-07
-9.42644e-07
-6.33736e-09
-0.00114476
1.14597e-08
-1.28957e-06
2.78591e-07
-2.82923e-07
-9.42468e-07
2.59927e-07
9.43345e-07
-2.6929e-07
1.32638e-06
0.00114382
-5.75579e-09
-0.00114382
1.20265e-08
-1.3189e-06
2.81094e-07
-2.85759e-07
-9.42628e-07
2.59683e-07
-2.69407e-07
9.4311e-07
-2.66201e-07
-2.73744e-07
0.000273598
-1.29141e-06
0.000275667
-0.000273599
2.73622e-07
2.8112e-07
-6.12078e-09
1.14162e-08
0.00114493
-2.82971e-07
1.29145e-06
2.78622e-07
9.4349e-07
-2.72083e-07
2.62703e-07
-9.42591e-07
-6.30923e-09
-0.00114439
1.15073e-08
-1.28401e-06
2.78637e-07
-2.82878e-07
-9.42309e-07
2.62614e-07
9.43195e-07
-2.7198e-07
1.29157e-06
0.00114493
-6.23019e-09
-0.00114493
1.14894e-08
-1.28405e-06
2.78559e-07
-2.82997e-07
-9.42572e-07
2.62674e-07
-2.72086e-07
9.43465e-07
-0.000273612
2.75946e-07
2.81433e-07
1.3244e-06
1.28675e-06
-2.65991e-07
-2.73932e-07
0.000273618
-1.33187e-06
-1.29429e-06
0.000275689
-0.000273618
2.7336e-07
2.81415e-07
1.19185e-08
0.00114392
-2.88623e-07
1.33198e-06
2.83865e-07
9.4312e-07
-2.694e-07
-9.4259e-07
2.59693e-07
-1.3301e-06
-5.61148e-09
1.1922e-08
0.00114437
-2.91392e-07
1.33768e-06
2.8671e-07
9.48785e-07
-2.72296e-07
-9.48336e-07
2.62444e-07
0.00114392
-5.78039e-09
-0.00114392
1.20833e-08
-1.32455e-06
2.83921e-07
-2.88552e-07
-9.42502e-07
2.59714e-07
-2.69327e-07
9.43136e-07
1.33751e-06
0.00114437
-5.61811e-09
-0.00114437
1.20647e-08
-1.33024e-06
2.86759e-07
-2.91343e-07
-9.48247e-07
2.62471e-07
-2.72232e-07
9.48821e-07
-2.6877e-07
-2.71122e-07
0.000273641
-1.29705e-06
0.000275721
-0.000273641
2.76298e-07
2.78557e-07
1.1315e-08
0.00114503
-2.85773e-07
1.2944e-06
2.81362e-07
9.46167e-07
-2.7211e-07
-9.45258e-07
2.6267e-07
-1.32456e-06
-5.59403e-09
1.20083e-08
0.00114403
-2.91399e-07
1.33202e-06
2.86678e-07
9.45833e-07
-2.72186e-07
-9.45414e-07
2.62447e-07
0.00114503
-6.20008e-09
-0.00114503
1.14838e-08
-1.2869e-06
2.81417e-07
-2.85698e-07
-9.45188e-07
2.62677e-07
-2.72057e-07
9.46184e-07
1.33184e-06
0.00114403
-5.59901e-09
-0.00114403
1.21445e-08
-1.32469e-06
2.86717e-07
-2.91368e-07
-9.45337e-07
2.62483e-07
-2.72119e-07
9.45871e-07
-5.70447e-09
1.19255e-08
0.00114382
-2.85749e-07
1.32632e-06
2.81121e-07
9.43124e-07
-2.69389e-07
2.59695e-07
-9.42619e-07
-6.23265e-09
-0.00114476
1.14826e-08
-1.28959e-06
2.78617e-07
-2.82886e-07
-9.42442e-07
2.59908e-07
9.43334e-07
-2.69267e-07
1.32633e-06
0.00114382
-5.62208e-09
-0.00114382
1.21564e-08
-1.31896e-06
2.81102e-07
-2.85721e-07
-9.42591e-07
2.59649e-07
-2.69384e-07
9.43083e-07
-2.66197e-07
-2.73752e-07
0.000273599
-1.29134e-06
0.000275667
-0.000273599
2.73597e-07
2.81099e-07
-6.14122e-09
1.13803e-08
0.00114493
-2.82987e-07
1.29151e-06
2.78585e-07
9.43477e-07
-2.72065e-07
2.62687e-07
-9.4257e-07
-6.29146e-09
-0.00114439
1.15335e-08
-1.28402e-06
2.78644e-07
-2.82863e-07
-9.42247e-07
2.6261e-07
9.43215e-07
-2.71941e-07
1.29152e-06
0.00114493
-6.14465e-09
-0.00114493
1.16393e-08
-1.28411e-06
2.7856e-07
-2.82965e-07
-9.42525e-07
2.62653e-07
-2.7205e-07
9.43452e-07
-0.000273612
2.7592e-07
2.81418e-07
1.32443e-06
1.28679e-06
-2.6597e-07
-2.73909e-07
0.000273618
-1.33181e-06
-1.29422e-06
0.000275689
-0.000273618
2.73332e-07
2.81388e-07
1.2025e-08
0.00114392
-2.88586e-07
1.33197e-06
2.83865e-07
9.43085e-07
-2.69352e-07
-9.42556e-07
2.59675e-07
-1.33015e-06
-5.50003e-09
1.20011e-08
0.00114437
-2.91354e-07
1.33763e-06
2.86723e-07
9.48763e-07
-2.72241e-07
-9.48295e-07
2.62442e-07
0.00114392
-5.85588e-09
-0.00114392
1.20159e-08
-1.32456e-06
2.83932e-07
-2.88527e-07
-9.4241e-07
2.59712e-07
-2.69261e-07
9.43157e-07
1.33749e-06
0.00114437
-5.68916e-09
-0.00114437
1.20381e-08
-1.33019e-06
2.86761e-07
-2.9132e-07
-9.4816e-07
2.62457e-07
-2.72169e-07
9.48842e-07
-2.68743e-07
-2.71117e-07
0.000273641
-1.29701e-06
0.000275721
-0.000273641
2.76269e-07
2.78562e-07
1.14326e-08
0.00114503
-2.85735e-07
1.29438e-06
2.81361e-07
9.46124e-07
-2.7208e-07
-9.45238e-07
2.62646e-07
-1.32462e-06
-5.52799e-09
1.20747e-08
0.00114403
-2.91366e-07
1.33195e-06
2.86689e-07
9.45829e-07
-2.72121e-07
-9.45364e-07
2.62458e-07
0.00114503
-6.38368e-09
-0.00114503
1.1447e-08
-1.28691e-06
2.81422e-07
-2.8568e-07
-9.45083e-07
2.62701e-07
-2.71962e-07
9.4623e-07
1.33182e-06
0.00114403
-5.7279e-09
-0.00114403
1.21348e-08
-1.32463e-06
2.86698e-07
-2.91362e-07
-9.4523e-07
2.62487e-07
-2.7204e-07
9.45904e-07
-5.48037e-09
1.2083e-08
0.00114382
-2.85755e-07
1.32634e-06
2.81069e-07
9.43047e-07
-2.69389e-07
2.59639e-07
-9.42632e-07
-6.44823e-09
-0.00114476
1.14818e-08
-1.28956e-06
2.78602e-07
-2.82876e-07
-9.42342e-07
2.59933e-07
9.43379e-07
-2.69168e-07
1.32629e-06
0.00114382
-5.82769e-09
-0.00114382
1.20531e-08
-1.31897e-06
2.81141e-07
-2.85667e-07
-9.42485e-07
2.59669e-07
-2.69287e-07
9.43121e-07
-2.66187e-07
-2.73743e-07
0.000273599
-1.29133e-06
0.000275667
-0.000273599
2.73587e-07
2.81092e-07
-5.95718e-09
1.15632e-08
0.00114493
-2.82999e-07
1.29153e-06
2.78527e-07
9.43417e-07
-2.72053e-07
2.62643e-07
-9.42567e-07
-6.44136e-09
-0.00114439
1.15207e-08
-1.28396e-06
2.78627e-07
-2.82849e-07
-9.42176e-07
2.62608e-07
9.43234e-07
-2.71868e-07
1.29149e-06
0.00114493
-6.28123e-09
-0.00114493
1.15162e-08
-1.28412e-06
2.78604e-07
-2.82906e-07
-9.42432e-07
2.62659e-07
-2.71966e-07
9.43474e-07
-0.000273612
2.75918e-07
2.81404e-07
1.32445e-06
1.28681e-06
-2.65934e-07
-2.73872e-07
0.000273618
-1.33175e-06
-1.29417e-06
0.000275689
-0.000273618
2.73285e-07
2.81321e-07
1.18737e-08
0.00114392
-2.88516e-07
1.33194e-06
2.83913e-07
9.43068e-07
-2.69275e-07
-9.42473e-07
2.59669e-07
-1.33016e-06
-5.35923e-09
1.19641e-08
0.00114437
-2.91302e-07
1.33757e-06
2.86748e-07
9.4876e-07
-2.72184e-07
-9.48203e-07
2.62412e-07
0.00114392
-5.98678e-09
-0.00114392
1.20419e-08
-1.32451e-06
2.83885e-07
-2.88517e-07
-9.42328e-07
2.5967e-07
-2.6917e-07
9.43126e-07
1.33745e-06
0.00114437
-5.72097e-09
-0.00114437
1.21593e-08
-1.33014e-06
2.8668e-07
-2.91338e-07
-9.48118e-07
2.62398e-07
-2.72096e-07
9.4876e-07
-2.68729e-07
-2.71065e-07
0.000273641
-1.29697e-06
0.000275721
-0.000273641
2.76215e-07
2.78501e-07
1.13089e-08
0.00114503
-2.85671e-07
1.29434e-06
2.81403e-07
9.46151e-07
-2.71993e-07
-9.4512e-07
2.62644e-07
-1.32463e-06
-5.38402e-09
1.20685e-08
0.00114403
-2.9133e-07
1.33189e-06
2.86704e-07
9.45818e-07
-2.72054e-07
-9.45275e-07
2.62439e-07
0.00114503
-6.36964e-09
-0.00114503
1.14658e-08
-1.28685e-06
2.81385e-07
-2.85661e-07
-9.45041e-07
2.62652e-07
-2.71885e-07
9.46146e-07
1.33182e-06
0.00114403
-5.75887e-09
-0.00114403
1.21838e-08
-1.32455e-06
2.86638e-07
-2.91355e-07
-9.45198e-07
2.624e-07
-2.71994e-07
9.45816e-07
-5.54971e-09
1.19207e-08
0.00114382
-2.85677e-07
1.32638e-06
2.81113e-07
9.43049e-07
-2.69309e-07
2.59631e-07
-9.42533e-07
-6.40663e-09
-0.00114476
1.15906e-08
-1.28951e-06
2.78527e-07
-2.82891e-07
-9.42311e-07
2.59866e-07
9.43278e-07
-2.69105e-07
1.32621e-06
0.00114382
-5.87596e-09
-0.00114382
1.20728e-08
-1.31898e-06
2.8111e-07
-2.85644e-07
-9.42405e-07
2.59632e-07
-2.69187e-07
9.43075e-07
-2.66166e-07
-2.73704e-07
0.000273599
-1.29131e-06
0.000275667
-0.000273599
2.73536e-07
2.81052e-07
-5.99001e-09
1.13811e-08
0.00114493
-2.82916e-07
1.29157e-06
2.78576e-07
9.43401e-07
-2.71982e-07
2.62626e-07
-9.42484e-07
-6.47506e-09
-0.00114439
1.16081e-08
-1.2839e-06
2.78552e-07
-2.82864e-07
-9.42131e-07
2.62561e-07
9.43148e-07
-2.71784e-07
1.2914e-06
0.00114493
-6.38308e-09
-0.00114493
1.15476e-08
-1.28413e-06
2.78574e-07
-2.82883e-07
-9.42344e-07
2.6262e-07
-2.71869e-07
9.43442e-07
-0.000273612
2.75848e-07
2.81338e-07
1.32453e-06
1.28687e-06
-2.65923e-07
-2.73882e-07
0.000273618
-1.33177e-06
-1.29416e-06
0.000275689
-0.000273618
2.73219e-07
2.81286e-07
1.20538e-08
0.00114392
-2.8853e-07
1.33179e-06
2.83844e-07
9.43019e-07
-2.69222e-07
-9.4238e-07
2.59573e-07
-1.3302e-06
-5.15924e-09
1.21004e-08
0.00114437
-2.9133e-07
1.33745e-06
2.86671e-07
9.48693e-07
-2.72128e-07
-9.48137e-07
2.6232e-07
0.00114392
-6.13264e-09
-0.00114392
1.19952e-08
-1.32439e-06
2.83843e-07
-2.88484e-07
-9.42245e-07
2.5958e-07
-2.69065e-07
9.43001e-07
1.3375e-06
0.00114437
-5.97745e-09
-0.00114437
1.2011e-08
-1.33001e-06
2.8666e-07
-2.91275e-07
-9.48012e-07
2.62318e-07
-2.7198e-07
9.48654e-07
-2.68724e-07
-2.71069e-07
0.000273641
-1.29703e-06
0.000275721
-0.000273641
2.76195e-07
2.78477e-07
1.14542e-08
0.00114503
-2.8567e-07
1.29421e-06
2.81347e-07
9.46061e-07
-2.71943e-07
-9.45076e-07
2.62542e-07
-1.32465e-06
-5.16681e-09
1.21475e-08
0.00114403
-2.91344e-07
1.33178e-06
2.86635e-07
9.45738e-07
-2.72024e-07
-9.45222e-07
2.62329e-07
0.00114503
-6.58403e-09
-0.00114503
1.14372e-08
-1.28675e-06
2.81328e-07
-2.85641e-07
-9.44935e-07
2.62572e-07
-2.71785e-07
9.46044e-07
1.33185e-06
0.00114403
-6.00491e-09
-0.00114403
1.20883e-08
-1.32444e-06
2.86607e-07
-2.91303e-07
-9.45098e-07
2.62334e-07
-2.71863e-07
9.4571e-07
-5.31063e-09
1.20843e-08
0.00114382
-2.85683e-07
1.32627e-06
2.81044e-07
9.42979e-07
-2.69254e-07
2.59527e-07
-9.42459e-07
-6.66945e-09
-0.00114475
1.14558e-08
-1.28937e-06
2.78509e-07
-2.82826e-07
-9.42204e-07
2.59781e-07
9.43173e-07
-2.68996e-07
1.32616e-06
0.00114382
-6.03875e-09
-0.00114382
1.20596e-08
-1.31892e-06
2.8108e-07
-2.85609e-07
-9.42297e-07
2.59561e-07
-2.69068e-07
9.42975e-07
-2.66151e-07
-2.73696e-07
0.000273599
-1.29136e-06
0.000275667
-0.000273598
2.73515e-07
2.81018e-07
-5.73658e-09
1.15441e-08
0.00114493
-2.82921e-07
1.29146e-06
2.7851e-07
9.43333e-07
-2.71937e-07
2.62516e-07
-9.42406e-07
-6.70332e-09
-0.00114439
1.14838e-08
-1.28377e-06
2.78533e-07
-2.82794e-07
-9.42031e-07
2.6246e-07
9.43037e-07
-2.71693e-07
1.29135e-06
0.00114493
-6.51566e-09
-0.00114493
1.15215e-08
-1.28407e-06
2.78542e-07
-2.82846e-07
-9.42241e-07
2.62549e-07
-2.71749e-07
9.43338e-07
-0.000273612
2.75777e-07
2.81265e-07
1.32448e-06
1.28684e-06
-2.65861e-07
-2.73792e-07
0.000273618
-1.33178e-06
-1.29417e-06
0.000275689
-0.000273618
2.73125e-07
2.81205e-07
1.20116e-08
0.00114392
-2.88473e-07
1.33172e-06
2.83825e-07
9.42864e-07
-2.69119e-07
-9.42303e-07
2.59446e-07
-1.33012e-06
-4.91655e-09
1.20501e-08
0.00114437
-2.91278e-07
1.3374e-06
2.86635e-07
9.48533e-07
-2.72025e-07
-9.48061e-07
2.62196e-07
0.00114392
-6.47282e-09
-0.00114391
1.18586e-08
-1.32424e-06
2.83777e-07
-2.88394e-07
-9.42057e-07
2.59419e-07
-2.6889e-07
9.42843e-07
1.3375e-06
0.00114437
-6.36069e-09
-0.00114437
1.19037e-08
-1.32989e-06
2.86594e-07
-2.91192e-07
-9.47812e-07
2.62163e-07
-2.71794e-07
9.48509e-07
-2.68621e-07
-2.70969e-07
0.000273641
-1.29703e-06
0.000275721
-0.000273641
2.76107e-07
2.78379e-07
1.14592e-08
0.00114503
-2.85632e-07
1.29412e-06
2.81309e-07
9.45915e-07
-2.71826e-07
-9.44989e-07
2.62443e-07
-1.32456e-06
-4.97269e-09