/*--------------------------------*- C++ -*----------------------------------*\
| =========                 |                                                 |
| \\      /  F ield         | OpenFOAM: The Open Source CFD Toolbox           |
|  \\    /   O peration     | Version:  v1906                                 |
|   \\  /    A nd           | Web:      www.OpenFOAM.com                      |
|    \\/     M anipulation  |                                                 |
\*---------------------------------------------------------------------------*/
FoamFile
{
    version     2.0;
    format      ascii;
    class       surfaceScalarField;
    location    "125";
    object      phi;
}
// * * * * * * * * * * * * * * * * * * * * * * * * * * * * * * * * * * * * * //

dimensions      [0 3 -1 0 0 0 0];
oriented        oriented;


internalField   nonuniform List<scalar> 
124860
(
-8.43261e-07
-8.43737e-07
-0.00114621
4.46068e-07
4.46823e-07
0.001147
-0.00113705
-1.50961e-06
8.43593e-07
4.14973e-07
0.00113755
-4.96042e-07
1.12482e-06
1.25928e-07
7.23679e-07
-5.34662e-07
-1.238e-06
5.32832e-08
-0.00113669
-1.50405e-06
8.43376e-07
4.14735e-07
0.00113719
-4.93048e-07
1.11913e-06
1.23228e-07
7.2355e-07
-5.3716e-07
-1.23781e-06
5.62978e-08
-0.000276416
1.53884e-06
1.50411e-06
-4.90906e-07
-4.96595e-07
0.00027436
-8.23287e-07
-8.23995e-07
-0.00114935
4.37754e-07
4.38459e-07
0.00115012
-0.00113895
-1.50102e-06
8.23786e-07
4.07001e-07
0.00113939
-4.82849e-07
1.13045e-06
1.30877e-07
7.30177e-07
-5.18161e-07
-1.22046e-06
5.93766e-08
-0.00113859
-1.49539e-06
8.23695e-07
4.06584e-07
0.00113903
-4.79973e-07
1.12483e-06
1.28046e-07
7.30073e-07
-5.20516e-07
-1.22023e-06
6.23667e-08
-0.000276496
1.53029e-06
1.49549e-06
-4.77147e-07
-4.82848e-07
0.00027443
-7.93735e-07
-7.94387e-07
-0.00115239
4.23837e-07
4.245e-07
0.00115313
-0.00114063
-1.49007e-06
7.94264e-07
3.95766e-07
0.00114102
-4.67741e-07
1.13646e-06
1.37128e-07
7.37744e-07
-4.99829e-07
-1.20095e-06
6.72785e-08
-0.00114027
-1.48445e-06
7.94009e-07
3.95592e-07
0.00114066
-4.64896e-07
1.13082e-06
1.34295e-07
7.37679e-07
-5.02331e-07
-1.2007e-06
7.02146e-08
-0.000276507
1.51931e-06
1.48458e-06
-4.61962e-07
-4.67591e-07
0.000274433
-7.5233e-07
-7.52698e-07
-0.0011553
4.04016e-07
4.04718e-07
0.00115599
-0.0011421
-1.47482e-06
7.52623e-07
3.76464e-07
0.00114243
-4.49638e-07
1.14557e-06
1.46834e-07
7.51305e-07
-4.77751e-07
-1.17602e-06
8.04723e-08
-0.00114174
-1.46918e-06
7.52366e-07
3.76255e-07
0.00114207
-4.46785e-07
1.13992e-06
1.4401e-07
7.5124e-07
-4.80275e-07
-1.17579e-06
8.34314e-08
-0.000276457
1.50408e-06
1.46935e-06
-4.42795e-07
-4.48377e-07
0.000274374
-6.79734e-07
-6.7999e-07
-0.00115797
3.66376e-07
3.67132e-07
0.0011586
-0.00114329
-1.45238e-06
6.80075e-07
3.45565e-07
0.00114354
-4.26013e-07
1.16008e-06
1.61906e-07
7.71338e-07
-4.47752e-07
-1.14422e-06
1.01454e-07
-0.00114293
-1.44669e-06
6.79772e-07
3.45335e-07
0.00114318
-4.23131e-07
1.15449e-06
1.5911e-07
7.71268e-07
-4.50297e-07
-1.14399e-06
1.04345e-07
-0.00027634
1.48163e-06
1.4469e-06
-4.17459e-07
-4.23005e-07
0.000274252
-5.73019e-07
-5.73117e-07
-0.00116034
3.12967e-07
3.13585e-07
0.00116086
-0.00114416
-1.41989e-06
5.73331e-07
2.93932e-07
0.00114432
-3.9429e-07
1.18581e-06
1.87122e-07
8.02941e-07
-4.12828e-07
-1.10373e-06
1.30192e-07
-0.0011438
-1.41431e-06
5.73003e-07
2.93811e-07
0.00114396
-3.91515e-07
1.18011e-06
1.84224e-07
8.02917e-07
-4.15284e-07
-1.10346e-06
1.33126e-07
-0.000276173
1.44917e-06
1.41443e-06
-3.84095e-07
-3.89558e-07
0.000274083
-3.94012e-07
-3.94238e-07
-0.00116218
2.20261e-07
2.20549e-07
0.00116252
-0.00114463
-1.37385e-06
3.9417e-07
2.08963e-07
0.00114469
-3.54598e-07
1.22475e-06
2.21034e-07
8.52324e-07
-3.63403e-07
-1.04659e-06
1.7437e-07
-0.00114427
-1.36827e-06
3.94218e-07
2.09102e-07
0.00114433
-3.51769e-07
1.21911e-06
2.1824e-07
8.52126e-07
-3.66006e-07
-1.04644e-06
1.77067e-07
-0.000275985
1.40323e-06
1.3684e-06
-3.403e-07
-3.45803e-07
0.0002739
-2.14551e-07
-2.14423e-07
-0.00116331
1.20233e-07
1.20424e-07
0.0011635
-0.00114483
-1.33436e-06
2.14134e-07
1.18719e-07
0.00114486
-3.22735e-07
1.25893e-06
2.49047e-07
8.93159e-07
-3.21343e-07
-9.99596e-07
2.12737e-07
-0.00114446
-1.32866e-06
2.14409e-07
1.18646e-07
0.00114449
-3.19822e-07
1.25336e-06
2.46311e-07
8.92882e-07
-3.24036e-07
-9.99543e-07
2.15388e-07
-0.000275848
1.36385e-06
1.3289e-06
-3.07045e-07
-3.12612e-07
0.000273775
-1.22088e-07
-1.21966e-07
-0.00116391
7.10192e-08
7.1061e-08
0.00116401
-0.00114491
-1.31336e-06
1.21773e-07
7.21191e-08
0.00114492
-3.05231e-07
1.27688e-06
2.64287e-07
9.16461e-07
-2.97488e-07
-9.73022e-07
2.34373e-07
-0.00114455
-1.30769e-06
1.22002e-07
7.20875e-08
0.00114455
-3.02373e-07
1.27129e-06
2.61503e-07
9.16247e-07
-3.00179e-07
-9.7291e-07
2.37e-07
-0.000275778
1.34285e-06
1.30791e-06
-2.88413e-07
-2.93929e-07
0.00027371
-6.50565e-08
-6.46548e-08
-0.00116423
4.09179e-08
4.09397e-08
0.00116428
-0.00114489
-1.30061e-06
6.46078e-08
4.34399e-08
0.00114488
-2.94675e-07
1.28798e-06
2.73696e-07
9.31235e-07
-2.82393e-07
-9.56498e-07
2.48243e-07
-0.00114452
-1.295e-06
6.46944e-08
4.34077e-08
0.00114451
-2.91853e-07
1.28233e-06
2.7088e-07
9.31039e-07
-2.85016e-07
-9.56363e-07
2.50936e-07
-0.000275728
1.33007e-06
1.29516e-06
-2.76758e-07
-2.82213e-07
0.000273661
-2.20318e-08
-2.15333e-08
-0.00116437
1.49582e-08
1.50672e-08
0.00116438
-0.00114483
-1.29265e-06
2.1554e-08
2.30117e-08
0.00114481
-2.88195e-07
1.29472e-06
2.79357e-07
9.39974e-07
-2.73182e-07
-9.46561e-07
2.56611e-07
-0.00114446
-1.28704e-06
2.15231e-08
2.29698e-08
0.00114444
-2.85364e-07
1.28908e-06
2.76553e-07
9.398e-07
-2.75791e-07
-9.46404e-07
2.59317e-07
-0.000275693
1.32207e-06
1.28721e-06
-2.70268e-07
-2.75664e-07
0.00027363
-1.66128e-09
-1.11078e-09
-0.0011644
3.20322e-10
5.22875e-10
0.0011644
-0.00114478
-1.28997e-06
1.10828e-09
1.39821e-08
0.00114477
-2.86064e-07
1.29679e-06
2.81154e-07
9.43046e-07
-2.69799e-07
-9.42958e-07
2.59593e-07
-0.00114441
-1.28436e-06
1.08327e-09
1.38899e-08
0.00114441
-2.83224e-07
1.29116e-06
2.7836e-07
9.42867e-07
-2.72413e-07
-9.42804e-07
2.62295e-07
-0.000275678
1.31939e-06
1.28454e-06
-2.68547e-07
-2.73947e-07
0.000273616
4.21222e-09
4.80566e-09
-0.0011644
-4.38467e-09
-4.26843e-09
0.0011644
-0.00114476
-1.28947e-06
-4.94035e-09
1.17776e-08
0.00114476
-2.85664e-07
1.29715e-06
2.81478e-07
9.43457e-07
-2.69267e-07
-9.42432e-07
2.6005e-07
-0.00114439
-1.28387e-06
-4.93897e-09
1.17081e-08
0.00114439
-2.82832e-07
1.29151e-06
2.78673e-07
9.43277e-07
-2.71882e-07
-9.42279e-07
2.6275e-07
-0.000275673
1.31891e-06
1.28404e-06
-2.68424e-07
-2.73839e-07
0.000273612
5.3838e-09
5.96802e-09
-0.0011644
-5.63766e-09
-5.53389e-09
0.0011644
-0.00114476
-1.28952e-06
-6.04465e-09
1.15409e-08
0.00114475
-2.85725e-07
1.2971e-06
2.81418e-07
9.43427e-07
-2.69278e-07
-9.42454e-07
2.60039e-07
-0.00114439
-1.28392e-06
-6.02907e-09
1.15076e-08
0.00114439
-2.82903e-07
1.29144e-06
2.78607e-07
9.43245e-07
-2.71894e-07
-9.42301e-07
2.62737e-07
-0.000275672
1.31892e-06
1.28405e-06
-2.68545e-07
-2.73958e-07
0.000273611
5.56029e-09
6.20615e-09
-0.0011644
-5.89632e-09
-5.76614e-09
0.0011644
-0.00114475
-1.28953e-06
-6.21891e-09
1.15309e-08
0.00114475
-2.85732e-07
1.29708e-06
2.81418e-07
9.43417e-07
-2.69299e-07
-9.42462e-07
2.60021e-07
-0.00114439
-1.28393e-06
-6.21059e-09
1.14601e-08
0.00114439
-2.82894e-07
1.29144e-06
2.78623e-07
9.43229e-07
-2.71921e-07
-9.42315e-07
2.62712e-07
-0.000275672
1.31895e-06
1.28407e-06
-2.6857e-07
-2.74002e-07
0.000273611
5.59229e-09
6.19403e-09
-0.0011644
-5.9235e-09
-5.82096e-09
0.0011644
-0.00114475
-1.28951e-06
-6.23158e-09
1.14709e-08
0.00114475
-2.85722e-07
1.2971e-06
2.81424e-07
9.43396e-07
-2.6932e-07
-9.42484e-07
2.6e-07
-0.00114439
-1.28391e-06
-6.15592e-09
1.13978e-08
0.00114439
-2.82886e-07
1.29145e-06
2.78627e-07
9.4319e-07
-2.71957e-07
-9.42355e-07
2.62677e-07
-0.000275672
1.31897e-06
1.28407e-06
-2.68576e-07
-2.74022e-07
0.000273611
5.62516e-09
6.18763e-09
-0.0011644
-5.93916e-09
-5.86391e-09
0.0011644
-0.00114475
-1.28952e-06
-6.20506e-09
1.14488e-08
0.00114475
-2.85718e-07
1.2971e-06
2.81428e-07
9.43375e-07
-2.69335e-07
-9.42504e-07
2.59985e-07
-0.00114439
-1.28393e-06
-6.16107e-09
1.13978e-08
0.00114439
-2.82895e-07
1.29144e-06
2.78619e-07
9.43185e-07
-2.7196e-07
-9.42362e-07
2.62675e-07
-0.000275671
1.31898e-06
1.28409e-06
-2.68602e-07
-2.74032e-07
0.000273611
5.65964e-09
6.20534e-09
-0.0011644
-5.96256e-09
-5.87835e-09
0.0011644
-0.00114475
-1.28952e-06
-6.17068e-09
1.14333e-08
0.00114475
-2.85708e-07
1.29708e-06
2.81439e-07
9.43375e-07
-2.69338e-07
-9.42501e-07
2.59984e-07
-0.00114438
-1.28393e-06
-6.17655e-09
1.13778e-08
0.00114438
-2.8288e-07
1.29143e-06
2.78639e-07
9.43196e-07
-2.71958e-07
-9.42351e-07
2.6268e-07
-0.000275671
1.31899e-06
1.28412e-06
-2.68614e-07
-2.74031e-07
0.000273611
5.66106e-09
6.24623e-09
-0.0011644
-6.0196e-09
-5.88181e-09
0.0011644
-0.00114475
-1.2895e-06
-6.19605e-09
1.14266e-08
0.00114475
-2.85718e-07
1.2971e-06
2.8143e-07
9.43378e-07
-2.69336e-07
-9.42504e-07
2.5999e-07
-0.00114438
-1.28389e-06
-6.17286e-09
1.13401e-08
0.00114438
-2.82874e-07
1.29147e-06
2.78645e-07
9.43189e-07
-2.71972e-07
-9.42364e-07
2.62673e-07
-0.000275671
1.31896e-06
1.2841e-06
-2.6861e-07
-2.74021e-07
0.000273611
5.60434e-09
-5.09142e-09
-0.00116439
-5.99448e-09
-5.81521e-09
0.0011644
-0.00114475
-1.28951e-06
-6.24304e-09
1.14533e-08
0.00114475
-2.85675e-07
1.29712e-06
2.8141e-07
9.43371e-07
-2.6933e-07
-9.42503e-07
2.59995e-07
-0.00114438
-1.28389e-06
-6.23163e-09
1.13701e-08
0.00114438
-2.82883e-07
1.29148e-06
2.78632e-07
9.43193e-07
-2.71955e-07
-9.4236e-07
2.62691e-07
-0.000275671
1.31894e-06
1.28408e-06
-2.68602e-07
-2.74004e-07
0.000273611
5.60203e-09
6.27547e-09
-0.0011644
-5.9942e-09
-5.82716e-09
0.0011644
-0.00114475
-1.28956e-06
-6.21984e-09
1.15556e-08
0.00114475
-2.82964e-07
1.29708e-06
2.78557e-07
9.43402e-07
-2.69308e-07
-9.42481e-07
2.59979e-07
-0.00114438
-1.28392e-06
-6.27721e-09
1.14253e-08
0.00114438
-2.82902e-07
1.29145e-06
2.78617e-07
9.43221e-07
-2.71946e-07
-9.42336e-07
2.62701e-07
-0.000275671
1.31895e-06
1.28408e-06
-2.68597e-07
-2.74009e-07
0.000273611
5.60422e-09
6.21055e-09
-0.0011644
-5.9374e-09
-5.82694e-09
0.0011644
-0.00114475
-1.28953e-06
-6.2361e-09
1.15016e-08
0.00114475
-2.82934e-07
1.29711e-06
2.78585e-07
9.43394e-07
-2.69298e-07
-9.42485e-07
2.59979e-07
-0.00114438
-1.28392e-06
-6.23734e-09
1.14673e-08
0.00114438
-2.82902e-07
1.29145e-06
2.78618e-07
9.432e-07
-2.71958e-07
-9.42359e-07
2.6269e-07
-0.000275671
1.31897e-06
1.28409e-06
-2.68601e-07
-2.74024e-07
0.000273611
5.6452e-09
6.20392e-09
-0.0011644
-5.93813e-09
-5.86045e-09
0.0011644
-0.00114475
-1.28952e-06
-6.25358e-09
1.14731e-08
0.00114475
-2.82939e-07
1.29712e-06
2.78586e-07
9.43405e-07
-2.69303e-07
-9.42481e-07
2.59979e-07
-0.00114438
-1.28391e-06
-6.23293e-09
1.14448e-08
0.00114438
-2.82903e-07
1.29147e-06
2.78618e-07
9.43209e-07
-2.7197e-07
-9.42354e-07
2.62683e-07
-0.000275671
1.31896e-06
1.28407e-06
-2.68599e-07
-2.74023e-07
0.000273611
5.6463e-09
6.20824e-09
-0.0011644
-5.94696e-09
-5.87128e-09
0.0011644
-0.00114475
-1.28954e-06
-6.24588e-09
1.14652e-08
0.00114475
-2.82934e-07
1.29713e-06
2.7859e-07
9.43404e-07
-2.69311e-07
-9.42495e-07
2.5997e-07
-0.00114438
-1.28393e-06
-6.23655e-09
1.14223e-08
0.00114438
-2.82893e-07
1.29148e-06
2.78626e-07
9.43213e-07
-2.71977e-07
-9.42363e-07
2.62675e-07
-0.000275671
1.31896e-06
1.28409e-06
-2.68609e-07
-2.74031e-07
0.00027361
5.57734e-09
6.14162e-09
-0.0011644
-5.89042e-09
-5.81691e-09
0.0011644
-0.00114475
-1.28961e-06
-6.15843e-09
1.15029e-08
0.00114475
-2.82927e-07
1.29704e-06
2.78618e-07
9.43398e-07
-2.693e-07
-9.42513e-07
2.59989e-07
-0.00114438
-1.28401e-06
-6.17071e-09
1.14541e-08
0.00114438
-2.82884e-07
1.29138e-06
2.78656e-07
9.43215e-07
-2.71964e-07
-9.42376e-07
2.62697e-07
-0.000275671
1.31906e-06
1.28418e-06
-2.68637e-07
-2.74058e-07
0.00027361
5.42622e-09
5.96929e-09
-0.0011644
-5.77355e-09
-5.713e-09
0.0011644
-0.00114475
-1.28958e-06
-5.98662e-09
1.15707e-08
0.00114475
-2.82998e-07
1.29702e-06
2.78565e-07
9.43351e-07
-2.69361e-07
-9.42571e-07
2.59958e-07
-0.00114438
-1.28397e-06
-6.00688e-09
1.15124e-08
0.00114438
-2.82951e-07
1.29137e-06
2.78606e-07
9.43169e-07
-2.72029e-07
-9.42434e-07
2.62663e-07
-0.000275671
1.31904e-06
1.28416e-06
-2.68659e-07
-2.74083e-07
0.000273611
5.21649e-09
5.74696e-09
-0.0011644
-5.69244e-09
-5.62934e-09
-0.00114475
-1.28955e-06
-5.78951e-09
1.16857e-08
-2.83108e-07
1.29708e-06
2.78439e-07
9.43247e-07
-2.69486e-07
-9.42678e-07
2.5984e-07
-0.00114438
-1.28395e-06
-5.80054e-09
1.164e-08
-2.83062e-07
1.29142e-06
2.78479e-07
9.43062e-07
-2.72152e-07
-9.42545e-07
2.62545e-07
-0.000275671
1.319e-06
1.28413e-06
-2.6871e-07
-2.74134e-07
0.000273611
-1.16087e-06
-1.1203e-06
0.000276432
-0.000274338
8.83279e-08
9.86437e-08
0.00113622
8.49704e-07
4.18767e-07
-1.54928e-06
1.30196e-07
-5.04813e-07
-1.24518e-06
4.85785e-08
-5.36329e-07
7.24539e-07
1.16381e-06
0.00113669
8.49824e-07
4.18865e-07
-1.55217e-06
1.30146e-07
-5.04936e-07
-1.25115e-06
5.43286e-08
-5.42066e-07
7.30244e-07
-1.12305e-06
0.000276458
-0.000274358
9.09852e-08
9.60436e-08
0.00113734
8.50178e-07
4.17668e-07
-1.50903e-06
1.24576e-07
-4.99387e-07
-1.24528e-06
5.45191e-08
-5.41895e-07
7.24782e-07
1.1581e-06
0.00113634
8.4967e-07
4.18922e-07
-1.54668e-06
1.30215e-07
-5.04847e-07
-1.24532e-06
5.43687e-08
-5.41821e-07
7.24526e-07
8.50124e-07
4.17893e-07
-1.51172e-06
1.24664e-07
-4.99322e-07
-1.24248e-06
5.15262e-08
7.21897e-07
-5.39141e-07
1.15256e-06
0.00113613
8.49716e-07
4.18967e-07
-1.54096e-06
1.24502e-07
-4.99225e-07
-1.24255e-06
5.14346e-08
-5.39083e-07
7.2176e-07
-1.11736e-06
0.00027641
-0.000274319
8.8311e-08
9.59128e-08
8.4984e-07
4.17629e-07
-1.50617e-06
1.21958e-07
-4.96361e-07
-1.24222e-06
5.45322e-08
7.21835e-07
-5.41662e-07
1.11758e-06
0.00113724
8.50125e-07
4.17753e-07
-1.50624e-06
1.21824e-07
-4.96506e-07
-1.2398e-06
5.16225e-08
-5.39132e-07
7.19334e-07
-0.000274333
9.08554e-08
9.61761e-08
1.5472e-06
1.50689e-06
-4.88302e-07
-4.99289e-07
0.000274366
-1.167e-06
-1.12625e-06
0.000276513
-0.000274425
9.74227e-08
1.08019e-07
4.15866e-07
0.00113671
-5.01576e-07
1.16261e-06
1.31481e-07
7.26297e-07
-5.31872e-07
-1.24072e-06
5.03141e-08
-1.55006e-06
8.43385e-07
4.15944e-07
0.00113718
-5.01653e-07
1.16558e-06
1.314e-07
7.32017e-07
-5.37578e-07
-1.24667e-06
5.6079e-08
0.00113811
8.29125e-07
-0.00113766
4.10179e-07
-1.5408e-06
1.35081e-07
-4.9176e-07
-1.22787e-06
5.45664e-08
-5.1965e-07
7.30888e-07
1.16985e-06
0.00113858
8.29428e-07
-0.00113813
4.10283e-07
-1.54377e-06
1.35037e-07
-4.91899e-07
-1.2338e-06
6.03235e-08
-5.25334e-07
7.36605e-07
-4.9139e-07
-4.9614e-07
0.000274386
-1.12909e-06
0.000276538
-0.000274444
1.00222e-07
1.05283e-07
4.14764e-07
0.00113783
-4.96083e-07
1.12204e-06
1.25899e-07
7.26547e-07
-5.3742e-07
-1.24081e-06
5.62565e-08
-1.54458e-06
8.4323e-07
4.16015e-07
0.00113683
-5.01539e-07
1.15986e-06
1.3148e-07
7.26291e-07
-5.37352e-07
-1.24085e-06
5.61137e-08
0.00113924
8.29802e-07
-0.00113878
4.09045e-07
-1.50067e-06
1.29481e-07
-4.86305e-07
-1.22792e-06
6.05074e-08
-5.25186e-07
7.31164e-07
1.16426e-06
0.00113823
8.29288e-07
-0.00113778
4.10366e-07
-1.53818e-06
1.3498e-07
-4.91904e-07
-1.22799e-06
6.03501e-08
-5.25119e-07
7.30896e-07
8.43277e-07
4.16046e-07
0.00113662
-4.95947e-07
1.15433e-06
1.25754e-07
7.23529e-07
-5.34613e-07
5.31787e-08
-1.23807e-06
8.29526e-07
-0.00113849
4.09346e-07
-1.50328e-06
1.29574e-07
-4.86286e-07
-1.22512e-06
5.7505e-08
7.28276e-07
-5.22426e-07
1.15861e-06
0.00113802
8.29313e-07
-0.00113757
4.10409e-07
-1.53254e-06
1.29391e-07
-4.86201e-07
-1.2252e-06
5.74306e-08
-5.2238e-07
7.28134e-07
-4.88784e-07
-4.96278e-07
0.000274347
-1.12344e-06
0.00027649
-0.000274405
9.75677e-08
1.05297e-07
8.43586e-07
4.14847e-07
0.00113773
-4.93229e-07
1.11934e-06
1.2308e-07
7.21117e-07
-5.34641e-07
5.33827e-08
-1.23531e-06
8.29434e-07
-0.00113813
4.08923e-07
-1.49769e-06
1.26749e-07
-4.8339e-07
-1.22487e-06
6.05396e-08
7.28222e-07
-5.24941e-07
1.12364e-06
0.00113913
8.29496e-07
-0.00113868
4.09096e-07
-1.49776e-06
1.26751e-07
-4.83456e-07
-1.22244e-06
5.76071e-08
-5.22411e-07
7.25711e-07
-0.000274419
1.00108e-07
1.05427e-07
1.53853e-06
1.49839e-06
-4.7466e-07
-4.85396e-07
0.000274436
-1.17319e-06
-1.13246e-06
0.000276524
-0.000274443
1.07096e-07
1.1769e-07
4.07857e-07
0.00113855
-4.88343e-07
1.16836e-06
1.36357e-07
7.32814e-07
-5.15234e-07
-1.22313e-06
5.63856e-08
-1.54152e-06
8.23607e-07
4.07945e-07
0.00113902
-4.88469e-07
1.17119e-06
1.36314e-07
7.38507e-07
-5.2092e-07
-1.22908e-06
6.21241e-08
0.0011398
7.99866e-07
-0.00113939
3.98505e-07
-1.53027e-06
1.41333e-07
-4.76818e-07
-1.20837e-06
6.2579e-08
-5.01361e-07
7.38588e-07
1.17604e-06
0.00114027
8.00044e-07
-0.00113986
3.98481e-07
-1.53324e-06
1.41311e-07
-4.76924e-07
-1.21426e-06
6.83706e-08
-5.0697e-07
7.44337e-07
-4.77641e-07
-4.82407e-07
0.000274455
-1.13526e-06
0.00027655
-0.000274463
1.09885e-07
1.14918e-07
4.06697e-07
0.00113968
-4.82879e-07
1.12763e-06
1.30781e-07
7.33078e-07
-5.20758e-07
-1.22319e-06
6.23283e-08
-1.53591e-06
8.2336e-07
4.07983e-07
0.00113867
-4.88476e-07
1.16562e-06
1.36266e-07
7.32828e-07
-5.20686e-07
-1.22324e-06
6.21771e-08
0.00114092
8.00453e-07
-0.00114052
3.97182e-07
-1.49008e-06
1.35783e-07
-4.71334e-07
-1.20838e-06
6.85493e-08
-5.06811e-07
7.38905e-07
1.17047e-06
0.00113992
7.99988e-07
-0.00113951
3.98503e-07
-1.52761e-06
1.41272e-07
-4.7693e-07
-1.20847e-06
6.83506e-08
-5.06788e-07
7.38605e-07
8.23492e-07
4.08084e-07
0.00113846
-4.82782e-07
1.15994e-06
1.3066e-07
7.30032e-07
-5.17962e-07
5.92327e-08
-1.22048e-06
8.00343e-07
-0.00114023
3.97416e-07
-1.49275e-06
1.35856e-07
-4.7132e-07
-1.20564e-06
6.56577e-08
7.35976e-07
-5.04049e-07
1.16483e-06
0.00113971
7.99961e-07
-0.0011393
3.98447e-07
-1.52198e-06
1.35703e-07
-4.71213e-07
-1.20569e-06
6.54743e-08
-5.04036e-07
7.35854e-07
-4.75003e-07
-4.82373e-07
0.000274416
-1.12962e-06
0.000276502
-0.000274424
1.07232e-07
1.14964e-07
8.23814e-07
4.06787e-07
0.00113957
-4.80029e-07
1.125e-06
1.28044e-07
7.27612e-07
-5.18146e-07
5.94743e-08
-1.21778e-06
8.00033e-07
-0.00113987
3.9724e-07
-1.48711e-06
1.33008e-07
-4.68469e-07
-1.20534e-06
6.85861e-08
7.3597e-07
-5.06574e-07
1.12976e-06
0.00114082
8.002e-07
-0.00114041
3.97294e-07
-1.48724e-06
1.32999e-07
-4.68523e-07
-1.20569e-06
6.85945e-08
-5.06743e-07
7.36191e-07
-0.000274438
1.09734e-07
1.15091e-07
1.5276e-06
1.48741e-06
-4.59436e-07
-4.70156e-07
0.000274439
-1.18009e-06
-1.13941e-06
0.000276474
-0.000274402
1.18443e-07
1.29026e-07
3.96813e-07
0.00114019
-4.73244e-07
1.17439e-06
1.42596e-07
7.40373e-07
-4.97146e-07
-1.20367e-06
6.42335e-08
-1.53059e-06
7.9399e-07
3.96841e-07
0.00114066
-4.73354e-07
1.17723e-06
1.42578e-07
7.461e-07
-5.02746e-07
-1.20957e-06
6.99828e-08
0.00114126
7.67832e-07
-0.00114092
3.85416e-07
-1.5174e-06
1.48705e-07
-4.60704e-07
-1.18634e-06
7.25611e-08
-4.82121e-07
7.49145e-07
1.18298e-06
0.00114173
7.67973e-07
-0.00114139
3.85375e-07
-1.52034e-06
1.48712e-07
-4.60772e-07
-1.19224e-06
7.82565e-08
-4.87783e-07
7.54897e-07
-4.6241e-07
-4.67202e-07
0.000274459
-1.1422e-06
0.000276499
-0.000274421
1.21216e-07
1.26298e-07
3.95518e-07
0.00114131
-4.67763e-07
1.13367e-06
1.37053e-07
7.40673e-07
-5.02606e-07
-1.20369e-06
7.0179e-08
-1.52494e-06
7.93889e-07
3.96843e-07
0.00114031
-4.7334e-07
1.17168e-06
1.4256e-07
7.40371e-07
-5.02598e-07
-1.20379e-06
6.99686e-08
0.00114239
7.68213e-07
-0.00114205
3.84092e-07
-1.47714e-06
1.43199e-07
-4.55194e-07
-1.18635e-06
7.8526e-08
-4.87565e-07
7.49485e-07
1.17737e-06
0.00114138
7.6771e-07
-0.00114104
3.85337e-07
-1.51474e-06
1.48656e-07
-4.60801e-07
-1.1864e-06
7.83846e-08
-4.87477e-07
7.49218e-07
7.9385e-07
3.9683e-07
0.0011401
-4.67635e-07
1.16602e-06
1.36966e-07
7.37623e-07
-4.9983e-07
6.71031e-08
-1.201e-06
7.68107e-07
-0.00114176
3.84299e-07
-1.47984e-06
1.43264e-07
-4.55174e-07
-1.1836e-06
7.56377e-08
7.46571e-07
-4.84765e-07
1.17173e-06
0.00114117
7.67811e-07
-0.00114083
3.85418e-07
-1.50912e-06
1.43073e-07
-4.55093e-07
-1.18368e-06
7.54532e-08
-4.84809e-07
7.46413e-07
-4.59793e-07
-4.67134e-07
0.000274419
-1.13658e-06
0.000276451
-0.000274382
1.18622e-07
1.26272e-07
7.942e-07
3.95666e-07
0.00114121
-4.64954e-07
1.13096e-06
1.3427e-07
7.37949e-07
-5.02538e-07
7.02075e-08
-1.201e-06
7.67953e-07
-0.0011414
3.84154e-07
-1.47417e-06
1.40428e-07
-4.52327e-07
-1.18335e-06
7.84635e-08
7.46517e-07
-4.87406e-07
1.13667e-06
0.00114229
7.68148e-07
-0.00114194
3.84256e-07
-1.47437e-06
1.40386e-07
-4.52405e-07
-1.1837e-06
7.85258e-08
-4.87537e-07
7.46739e-07
-0.000274396
1.21045e-07
1.26413e-07
1.5124e-06
1.47216e-06
-4.40278e-07
-4.50935e-07
0.00027438
-1.19433e-06
-1.15371e-06
0.000276357
-0.000274294
1.36992e-07
1.47522e-07
3.77547e-07
0.00114159
-4.55155e-07
1.18345e-06
1.52271e-07
7.53872e-07
-4.75096e-07
-1.17879e-06
7.74463e-08
-1.51536e-06
7.52445e-07
3.7748e-07
0.00114206
-4.55245e-07
1.18631e-06
1.52265e-07
7.59657e-07
-4.80685e-07
-1.18464e-06
8.32042e-08
0.00114245
6.97722e-07
-0.00114218
3.5382e-07
-1.49556e-06
1.63548e-07
-4.37233e-07
-1.15464e-06
9.36119e-08
-4.52219e-07
7.68974e-07
1.19719e-06
0.00114292
6.98085e-07
-0.00114265
3.5401e-07
-1.49853e-06
1.63551e-07
-4.37324e-07
-1.16057e-06
9.9182e-08
-4.5792e-07
7.7465e-07
-4.43199e-07
-4.47998e-07
0.0002744
-1.15644e-06
0.000276382
-0.000274313
1.39692e-07
1.44786e-07
3.76225e-07
0.00114272
-4.49659e-07
1.14274e-06
1.46756e-07
7.54235e-07
-4.80479e-07
-1.17876e-06
8.34351e-08
-1.50972e-06
7.52245e-07
3.7744e-07
0.00114171
-4.55243e-07
1.18076e-06
1.52259e-07
7.5393e-07
-4.8046e-07
-1.17884e-06
8.32109e-08
0.00114358
6.98151e-07
-0.00114331
3.52646e-07
-1.45526e-06
1.58075e-07
-4.31714e-07
-1.15468e-06
9.94625e-08
-4.57694e-07
7.69256e-07
1.19163e-06
0.00114257
6.977e-07
-0.0011423
3.53809e-07
-1.49286e-06
1.63556e-07
-4.37269e-07
-1.15473e-06
9.93154e-08
-4.57651e-07
7.69007e-07
7.52249e-07
3.77421e-07
0.0011415
-4.49547e-07
1.17512e-06
1.46659e-07
7.51166e-07
-4.77715e-07
8.03856e-08
-1.17609e-06
6.98158e-07
-0.00114302
3.52901e-07
-1.45798e-06
1.58126e-07
-4.31705e-07
-1.15196e-06
9.65967e-08
7.66326e-07
-4.5494e-07
1.18598e-06
0.00114236
6.97874e-07
-0.00114209
3.53841e-07
-1.48724e-06
1.57982e-07
-4.31584e-07
-1.15204e-06
9.63808e-08
-4.54966e-07
7.66155e-07
-4.40577e-07
-4.47939e-07
0.000274361
-1.15086e-06
0.000276334
-0.000274274
1.37144e-07
1.44783e-07
7.5255e-07
3.76317e-07
0.00114261
-4.46872e-07
1.14004e-06
1.4396e-07
7.51523e-07
-4.80413e-07
8.34792e-08
-1.17608e-06
6.97888e-07
-0.00114266
3.5267e-07
-1.45231e-06
1.55342e-07
-4.28829e-07
-1.15168e-06
9.94133e-08
7.66283e-07
-4.57521e-07
1.15092e-06
0.00114347
6.98036e-07
-0.0011432
3.52849e-07
-1.45251e-06
1.55278e-07
-4.28928e-07
-1.15201e-06
9.94553e-08
-4.5765e-07
7.66521e-07
-0.000274288
1.3953e-07
1.44928e-07
1.48995e-06
1.44966e-06
-4.14862e-07
-4.25562e-07
0.000274258
-1.21524e-06
-1.1746e-06
0.00027619
-0.000274135
1.61696e-07
1.72407e-07
3.46488e-07
0.0011427
-4.31526e-07
1.19797e-06
1.67337e-07
7.7396e-07
-4.45083e-07
-1.14691e-06
9.8431e-08
-1.49292e-06
6.79973e-07
3.46644e-07
0.00114317
-4.31617e-07
1.20082e-06
1.67322e-07
7.79674e-07
-4.50733e-07
-1.15283e-06
1.0409e-07
0.00114332
6.07145e-07
-0.00114314
3.11914e-07
-1.46752e-06
1.84776e-07
-4.091e-07
-1.1189e-06
1.17792e-07
-4.209e-07
7.95166e-07
1.21805e-06
0.00114379
6.07304e-07
-0.00114361
3.12021e-07
-1.47055e-06
1.84747e-07
-4.09232e-07
-1.12474e-06
1.23472e-07
-4.26416e-07
8.00914e-07
-4.17881e-07
-4.22607e-07
0.000274278
-1.1774e-06
0.000276216
-0.000274154
1.64565e-07
1.69509e-07
3.45357e-07
0.00114383
-4.26032e-07
1.15732e-06
1.61833e-07
7.74299e-07
-4.50479e-07
-1.14692e-06
1.04381e-07
-1.48727e-06
6.79598e-07
3.46492e-07
0.00114282
-4.31592e-07
1.19525e-06
1.6732e-07
7.74028e-07
-4.50446e-07
-1.14698e-06
1.04192e-07
0.00114445
6.07163e-07
-0.00114427
3.10763e-07
-1.42728e-06
1.79302e-07
-4.03631e-07
-1.11882e-06
1.23744e-07
-4.26169e-07
7.95551e-07
1.21252e-06
0.00114344
6.06937e-07
-0.00114326
3.11963e-07
-1.46486e-06
1.84783e-07
-4.0916e-07
-1.11891e-06
1.23494e-07
-4.26249e-07
7.95267e-07
6.79805e-07
3.46464e-07
0.00114261
-4.25881e-07
1.18963e-06
1.61761e-07
7.71179e-07
-4.47785e-07
1.01274e-07
-1.14431e-06
6.07249e-07
-0.00114398
3.11012e-07
-1.42994e-06
1.79393e-07
-4.03573e-07
-1.11614e-06
1.20798e-07
7.92607e-07
-4.23546e-07
1.2069e-06
0.00114323
6.07087e-07
-0.00114305
3.11792e-07
-1.45921e-06
1.79231e-07
-4.0346e-07
-1.11621e-06
1.20634e-07
-4.23516e-07
7.92444e-07
-4.15144e-07
-4.22602e-07
0.000274238
-1.17172e-06
0.000276168
-0.000274115
1.61873e-07
1.6961e-07
6.79889e-07
3.4553e-07
0.00114372
-4.23238e-07
1.15455e-06
1.59048e-07
7.7156e-07
-4.50449e-07
1.04372e-07
-1.14426e-06
6.07024e-07
-0.00114362
3.10885e-07
-1.42434e-06
1.7653e-07
-4.00772e-07
-1.11583e-06
1.23673e-07
7.92592e-07
-4.26031e-07
1.17185e-06
0.00114434
6.07137e-07
-0.00114416
3.10941e-07
-1.42448e-06
1.76538e-07
-4.00822e-07
-1.11617e-06
1.23722e-07
-4.26144e-07
7.928e-07
-0.000274129
1.64321e-07
1.6979e-07
1.45747e-06
1.41721e-06
-3.81555e-07
-3.92096e-07
0.000274089
-1.25271e-06
-1.2123e-06
0.000276002
-0.00027395
2.0092e-07
2.11425e-07
2.94756e-07
0.00114348
-3.99834e-07
1.22365e-06
1.92454e-07
8.05558e-07
-4.10124e-07
-1.10645e-06
1.27243e-07
-1.46051e-06
5.73175e-07
2.94926e-07
0.00114395
-3.99962e-07
1.22643e-06
1.92443e-07
8.1132e-07
-4.15665e-07
-1.11228e-06
1.32926e-07
0.00114379
4.43802e-07
-0.00114371
2.33469e-07
-1.42299e-06
2.18173e-07
-3.69721e-07
-1.06404e-06
1.60408e-07
-3.72996e-07
8.42014e-07
1.25558e-06
0.00114426
4.43995e-07
-0.00114418
2.33658e-07
-1.42597e-06
2.18166e-07
-3.6984e-07
-1.06989e-06
1.65975e-07
-3.78587e-07
8.4774e-07
-3.84428e-07
-3.89314e-07
0.000274109
-1.21504e-06
0.000276028
-0.000273969
2.03722e-07
2.08613e-07
2.93519e-07
0.00114461
-3.9432e-07
1.18305e-06
1.87046e-07
8.05922e-07
-4.15459e-07
-1.10639e-06
1.33145e-07
-1.45483e-06
5.73073e-07
2.94911e-07
0.0011436
-3.99901e-07
1.2209e-06
1.92477e-07
8.05594e-07
-4.15539e-07
-1.10651e-06
1.32866e-07
0.00114492
4.43985e-07
-0.00114484
2.3216e-07
-1.38256e-06
2.12915e-07
-3.64065e-07
-1.06409e-06
1.66124e-07
-3.7847e-07
8.42276e-07
1.25e-06
0.00114391
4.44172e-07
-0.00114383
2.33708e-07
-1.42031e-06
2.18141e-07
-3.69814e-07
-1.06419e-06
1.65913e-07
-3.78521e-07
8.41994e-07
5.73023e-07
2.94636e-07
0.00114339
-3.94184e-07
1.21529e-06
1.86944e-07
8.02839e-07
-4.1278e-07
1.30075e-07
-1.10377e-06
4.4419e-07
-0.00114455
2.32614e-07
-1.38529e-06
2.12838e-07
-3.64152e-07
-1.0614e-06
1.63263e-07
8.39366e-07
-3.7578e-07
1.24442e-06
0.0011437
4.44012e-07
-0.00114362
2.33487e-07
-1.41464e-06
2.12621e-07
-3.64092e-07
-1.06143e-06
1.63116e-07
-3.75735e-07
8.39214e-07
-3.81852e-07
-3.89198e-07
0.00027407
-1.20931e-06
0.000275979
-0.00027393
2.01012e-07
2.0862e-07
5.73043e-07
2.93761e-07
0.0011445
-3.91521e-07
1.18026e-06
1.84286e-07
8.03182e-07
-4.1543e-07
1.33144e-07
-1.10374e-06
4.43939e-07
-0.00114419
2.32707e-07
-1.37977e-06
2.09994e-07
-3.61379e-07
-1.06109e-06
1.66048e-07
8.39324e-07
-3.78317e-07
1.20949e-06
0.00114481
4.43921e-07
-0.00114473
2.32494e-07
-1.37983e-06
2.10035e-07
-3.61372e-07
-1.06139e-06
1.66149e-07
-3.78392e-07
8.3958e-07
-0.000273944
2.03447e-07
2.08878e-07
1.41157e-06
1.37112e-06
-3.3768e-07
-3.48421e-07
0.000273906
-1.28943e-06
-1.24908e-06
0.000275865
-0.000273804
2.33459e-07
2.4399e-07
2.09942e-07
0.00114385
-3.60192e-07
1.2624e-06
2.26342e-07
8.54909e-07
-3.60649e-07
-1.0493e-06
1.71475e-07
-1.41449e-06
3.94248e-07
2.10052e-07
0.00114432
-3.60246e-07
1.26534e-06
2.26394e-07
8.60616e-07
-3.66278e-07
-1.05516e-06
1.76991e-07
0.00114398
2.52093e-07
-0.00114394
1.38898e-07
-1.38044e-06
2.48408e-07
-3.35034e-07
-1.01204e-06
2.01747e-07
-3.27568e-07
8.87135e-07
1.29247e-06
0.00114445
2.52159e-07
-0.00114442
1.38608e-07
-1.38322e-06
2.48556e-07
-3.34975e-07
-1.0179e-06
2.07275e-07
-3.33193e-07
8.92841e-07
-3.40618e-07
-3.45497e-07
0.000273925
-1.25185e-06
0.000275891
-0.000273824
2.36279e-07
2.41321e-07
2.08703e-07
0.00114498
-3.54516e-07
1.22203e-06
2.21102e-07
8.55162e-07
-3.66159e-07
-1.04936e-06
1.77144e-07
-1.40889e-06
3.94199e-07
2.10059e-07
0.00114397
-3.60263e-07
1.25969e-06
2.26327e-07
8.54938e-07
-3.66138e-07
-1.0494e-06
1.77027e-07
0.00114512
2.52001e-07
-0.00114508
1.37847e-07
-1.33997e-06
2.43168e-07
-3.29362e-07
-1.01205e-06
2.07451e-07
-3.33042e-07
8.87422e-07
1.28675e-06
0.0011441
2.51859e-07
-0.00114406
1.38643e-07
-1.37774e-06
2.48448e-07
-3.35063e-07
-1.01209e-06
2.07367e-07
-3.32944e-07
8.87206e-07
3.94272e-07
2.10079e-07
0.00114376
-3.54565e-07
1.25409e-06
2.20776e-07
8.52113e-07
-3.63409e-07
1.74158e-07
-1.0467e-06
2.51713e-07
-0.00114479
1.37706e-07
-1.34268e-06
2.43167e-07
-3.29391e-07
-1.00927e-06
2.04736e-07
8.84605e-07
-3.30203e-07
1.28108e-06
0.00114389
2.52137e-07
-0.00114385
1.39044e-07
-1.37215e-06
2.42827e-07
-3.29441e-07
-1.00939e-06
2.04499e-07
-3.3027e-07
8.8438e-07
-3.37982e-07
-3.45518e-07
0.000273886
-1.2463e-06
0.000275842
-0.000273784
2.33771e-07
2.41139e-07
3.94205e-07
2.0904e-07
0.00114488
-3.51808e-07
1.2192e-06
2.18241e-07
8.52444e-07
-3.66105e-07
1.7715e-07
-1.04668e-06
2.52016e-07
-0.00114443
1.37675e-07
-1.33696e-06
2.40445e-07
-3.26466e-07
-1.00915e-06
2.0732e-07
8.844e-07
-3.32956e-07
1.24631e-06
0.00114501
2.52176e-07
-0.00114497
1.37997e-07
-1.33722e-06
2.40359e-07
-3.26603e-07
-1.00946e-06
2.07409e-07
-3.33044e-07
8.84648e-07
-0.000273798
2.3603e-07
2.41377e-07
1.37214e-06
1.33168e-06
-3.0449e-07
-3.15156e-07
0.000273781
-1.31095e-06
-1.27067e-06
0.000275795
-0.00027373
2.528e-07
2.633e-07
1.19911e-07
0.00114401
-3.28395e-07
1.29648e-06
2.54271e-07
8.95663e-07
-3.18696e-07
-1.00239e-06
2.09774e-07
-1.37493e-06
2.14585e-07
1.1959e-07
0.00114448
-3.28338e-07
1.29952e-06
2.54414e-07
9.014e-07
-3.24296e-07
-1.00823e-06
2.15313e-07
0.00114407
1.38591e-07
-0.00114406
8.13795e-08
-1.35511e-06
2.66613e-07
-3.14172e-07
-9.80909e-07
2.27165e-07
-2.99466e-07
9.14492e-07
1.31394e-06
0.00114454
1.38756e-07
-0.00114453
8.12832e-08
-1.35795e-06
2.66706e-07
-3.14164e-07
-9.86751e-07
2.32648e-07
-3.05095e-07
9.20208e-07
-3.07365e-07
-3.12167e-07
0.000273801
-1.2734e-06
0.000275821