/*--------------------------------*- C++ -*----------------------------------*\
| =========                 |                                                 |
| \\      /  F ield         | OpenFOAM: The Open Source CFD Toolbox           |
|  \\    /   O peration     | Version:  v1906                                 |
|   \\  /    A nd           | Web:      www.OpenFOAM.com                      |
|    \\/     M anipulation  |                                                 |
\*---------------------------------------------------------------------------*/
FoamFile
{
    version     2.0;
    format      ascii;
    class       volVectorField;
    location    "125";
    object      U;
}
// * * * * * * * * * * * * * * * * * * * * * * * * * * * * * * * * * * * * * //

dimensions      [0 1 -1 0 0 0 0];


internalField   nonuniform List<vector> 
43024
(
(-2.38533e-06 -2.36924e-06 0.110619)
(-1.48589e-06 2.94727e-06 0.108682)
(2.93419e-06 -1.48586e-06 0.108681)
(-6.70834e-05 -6.7093e-05 0.106313)
(-2.38513e-06 -2.37175e-06 0.110619)
(-1.46673e-06 2.91587e-06 0.108682)
(2.90592e-06 -1.46435e-06 0.108682)
(-6.70916e-05 -6.71091e-05 0.106314)
(-2.4133e-06 -2.40064e-06 0.110619)
(-1.4305e-06 2.90006e-06 0.108682)
(2.89353e-06 -1.42574e-06 0.108682)
(-6.70903e-05 -6.7102e-05 0.106314)
(-2.42648e-06 -2.41553e-06 0.110619)
(-1.42033e-06 2.89813e-06 0.108682)
(2.89628e-06 -1.41241e-06 0.108682)
(-6.70512e-05 -6.7061e-05 0.106314)
(-2.42899e-06 -2.41916e-06 0.110619)
(-1.41607e-06 2.89989e-06 0.108683)
(2.89249e-06 -1.41262e-06 0.108682)
(-6.70131e-05 -6.70234e-05 0.106314)
(-2.41485e-06 -2.40478e-06 0.110619)
(-1.43075e-06 2.90562e-06 0.108683)
(2.89745e-06 -1.42761e-06 0.108682)
(-6.69958e-05 -6.70024e-05 0.106314)
(-2.41365e-06 -2.39948e-06 0.110619)
(-1.4173e-06 2.89982e-06 0.108683)
(2.88964e-06 -1.41538e-06 0.108682)
(-6.69821e-05 -6.69917e-05 0.106314)
(-2.38251e-06 -2.37281e-06 0.11062)
(-1.44311e-06 2.9171e-06 0.108683)
(2.91037e-06 -1.4398e-06 0.108682)
(-6.70005e-05 -6.70104e-05 0.106314)
(-2.36536e-06 -2.35167e-06 0.11062)
(-1.47063e-06 2.91748e-06 0.108683)
(2.91049e-06 -1.46801e-06 0.108683)
(-6.69944e-05 -6.70025e-05 0.106314)
(-2.34283e-06 -2.32596e-06 0.110621)
(-1.50936e-06 2.94067e-06 0.108684)
(2.93124e-06 -1.49922e-06 0.108683)
(-6.69641e-05 -6.69691e-05 0.106314)
(-2.30756e-06 -2.29481e-06 0.110621)
(-1.57323e-06 2.97971e-06 0.108684)
(2.9774e-06 -1.56646e-06 0.108684)
(-6.68956e-05 -6.68989e-05 0.106314)
(-2.26674e-06 -2.25217e-06 0.110622)
(-1.67506e-06 3.04902e-06 0.108685)
(3.04034e-06 -1.67073e-06 0.108685)
(-6.6764e-05 -6.67734e-05 0.106315)
(-2.2325e-06 -2.22023e-06 0.110624)
(-1.83263e-06 3.17187e-06 0.108687)
(3.15793e-06 -1.83942e-06 0.108686)
(-6.65519e-05 -6.65709e-05 0.106315)
(-2.21474e-06 -2.19718e-06 0.110626)
(-2.09271e-06 3.376e-06 0.108689)
(3.36335e-06 -2.08802e-06 0.108688)
(-6.61904e-05 -6.6201e-05 0.106317)
(-2.23612e-06 -2.21827e-06 0.110628)
(-2.50523e-06 3.70198e-06 0.108692)
(3.69555e-06 -2.49124e-06 0.108691)
(-6.55284e-05 -6.55282e-05 0.106319)
(-2.35907e-06 -2.34969e-06 0.110632)
(-3.15103e-06 4.24594e-06 0.108696)
(4.24817e-06 -3.14473e-06 0.108695)
(-6.43448e-05 -6.43579e-05 0.106324)
(-2.69804e-06 -2.69139e-06 0.110636)
(-4.15255e-06 5.16032e-06 0.108701)
(5.1634e-06 -4.15106e-06 0.108701)
(-6.21918e-05 -6.22082e-05 0.106332)
(-3.37416e-06 -3.3586e-06 0.110641)
(-5.74303e-06 6.69135e-06 0.108709)
(6.68762e-06 -5.74254e-06 0.108709)
(-5.8062e-05 -5.80652e-05 0.106349)
(-4.82193e-06 -4.79064e-06 0.110647)
(-8.29247e-06 9.23939e-06 0.108721)
(9.22197e-06 -8.26035e-06 0.10872)
(-4.97192e-05 -4.96865e-05 0.10638)
(-1.1792e-05 -1.17216e-05 0.110648)
(-6.80392e-06 1.10951e-05 0.108734)
(1.10509e-05 -6.77234e-06 0.108734)
(-2.94398e-05 -2.94017e-05 0.106435)
(-3.42413e-05 -3.41122e-05 0.110662)
(5.62305e-05 -3.89012e-05 0.108809)
(-3.89848e-05 5.62151e-05 0.108809)
(4.43646e-05 4.4398e-05 0.106705)
(-7.28156e-05 -7.2781e-05 0.106513)
(3.01154e-06 1.55735e-06 0.10868)
(-3.03621e-06 1.58624e-06 0.10868)
(7.28601e-05 -7.28359e-05 0.106514)
(1.49176e-06 2.94359e-06 0.108681)
(1.57063e-06 -3.01744e-06 0.10868)
(-1.48423e-06 2.94973e-06 0.108682)
(-1.56842e-06 -3.0067e-06 0.10868)
(-7.28175e-05 7.28313e-05 0.106513)
(2.93712e-06 -1.48061e-06 0.108681)
(-2.93988e-06 -1.4835e-06 0.108681)
(7.28042e-05 7.28341e-05 0.106512)
(6.71099e-05 6.70948e-05 0.106314)
(-7.28445e-05 -7.28033e-05 0.106513)
(3.01679e-06 1.56705e-06 0.108681)
(-3.03097e-06 1.58684e-06 0.10868)
(3.0027e-06 1.55696e-06 0.108681)
(-3.02059e-06 1.58177e-06 0.10868)
(-6.71057e-05 6.70584e-05 0.106314)
(7.28957e-05 -7.28699e-05 0.106514)
(1.49665e-06 2.95014e-06 0.108681)
(1.5711e-06 -3.01317e-06 0.10868)
(1.48914e-06 2.92909e-06 0.108681)
(1.57299e-06 -3.01428e-06 0.10868)
(-1.57553e-06 -3.01603e-06 0.10868)
(-1.48355e-06 2.93277e-06 0.108682)
(-1.55652e-06 -2.98341e-06 0.10868)
(6.70881e-05 -6.71653e-05 0.106314)
(-7.2856e-05 7.28843e-05 0.106513)
(-2.94816e-06 -1.49018e-06 0.108681)
(2.92804e-06 -1.47852e-06 0.108681)
(-2.92065e-06 -1.47679e-06 0.108681)
(7.27984e-05 7.28185e-05 0.106512)
(6.71045e-05 6.70965e-05 0.106314)
(-7.29202e-05 -7.28911e-05 0.106513)
(2.98719e-06 1.54831e-06 0.108681)
(-3.00484e-06 1.56849e-06 0.10868)
(2.99168e-06 1.51667e-06 0.108681)
(-3.01198e-06 1.55091e-06 0.10868)
(-6.70747e-05 6.70331e-05 0.106314)
(7.29569e-05 -7.29345e-05 0.106514)
(1.47545e-06 2.91537e-06 0.108682)
(1.55643e-06 -2.99488e-06 0.10868)
(1.45241e-06 2.92339e-06 0.108681)
(1.53635e-06 -2.99827e-06 0.10868)
(-1.54907e-06 -2.98159e-06 0.10868)
(-1.44673e-06 2.9253e-06 0.108682)
(-1.51973e-06 -2.96969e-06 0.10868)
(6.70648e-05 -6.71229e-05 0.106314)
(-7.29367e-05 7.29566e-05 0.106513)
(-2.91434e-06 -1.46707e-06 0.108681)
(2.91552e-06 -1.44548e-06 0.108681)
(-2.90252e-06 -1.43998e-06 0.108681)
(7.28288e-05 7.2861e-05 0.106513)
(6.70612e-05 6.70418e-05 0.106314)
(-7.29828e-05 -7.29544e-05 0.106513)
(2.96478e-06 1.50358e-06 0.108681)
(-2.98708e-06 1.53377e-06 0.108681)
(2.98834e-06 1.4898e-06 0.108681)
(-2.9961e-06 1.51984e-06 0.10868)
(-6.70167e-05 6.69692e-05 0.106314)
(7.29821e-05 -7.29622e-05 0.106514)
(1.43693e-06 2.89349e-06 0.108682)
(1.52279e-06 -2.97421e-06 0.10868)
(1.43658e-06 2.91551e-06 0.108681)
(1.51773e-06 -2.98239e-06 0.10868)
(-1.50591e-06 -2.94882e-06 0.108681)
(-1.43055e-06 2.90845e-06 0.108682)
(-1.49601e-06 -2.96287e-06 0.10868)
(6.69792e-05 -6.70482e-05 0.106314)
(-7.29313e-05 7.29583e-05 0.106513)
(-2.88306e-06 -1.42732e-06 0.108681)
(2.90259e-06 -1.41422e-06 0.108681)
(-2.89626e-06 -1.41699e-06 0.108681)
(7.28942e-05 7.29257e-05 0.106513)
(6.69941e-05 6.69717e-05 0.106314)
(-7.29558e-05 -7.29224e-05 0.106513)
(2.97135e-06 1.48816e-06 0.108681)
(-2.98609e-06 1.51065e-06 0.108681)
(2.98881e-06 1.49083e-06 0.108681)
(-2.99115e-06 1.5186e-06 0.10868)
(-6.69662e-05 6.69148e-05 0.106314)
(7.29306e-05 -7.29116e-05 0.106514)
(1.42918e-06 2.89739e-06 0.108682)
(1.50474e-06 -2.97844e-06 0.10868)
(1.42401e-06 2.91769e-06 0.108681)
(1.50477e-06 -2.97841e-06 0.10868)
(-1.49424e-06 -2.94528e-06 0.108681)
(-1.41437e-06 2.90414e-06 0.108682)
(-1.49107e-06 -2.97008e-06 0.10868)
(6.69482e-05 -6.7012e-05 0.106314)
(-7.28829e-05 7.29052e-05 0.106513)
(-2.87809e-06 -1.41659e-06 0.108682)
(2.89411e-06 -1.41717e-06 0.108681)
(-2.90318e-06 -1.41396e-06 0.108681)
(7.29125e-05 7.2942e-05 0.106513)
(6.69713e-05 6.69523e-05 0.106314)
(-7.29156e-05 -7.28823e-05 0.106513)
(2.97946e-06 1.48991e-06 0.108681)
(-2.98952e-06 1.51854e-06 0.108681)
(2.9862e-06 1.48649e-06 0.108681)
(-2.98933e-06 1.51572e-06 0.10868)
(-6.69792e-05 6.69264e-05 0.106314)
(7.28965e-05 -7.28844e-05 0.106514)
(1.42597e-06 2.90548e-06 0.108682)
(1.51024e-06 -2.97861e-06 0.108681)
(1.42679e-06 2.91111e-06 0.108681)
(1.50648e-06 -2.97882e-06 0.10868)
(-1.48922e-06 -2.95237e-06 0.108681)
(-1.42155e-06 2.90144e-06 0.108682)
(-1.50097e-06 -2.9812e-06 0.10868)
(6.69679e-05 -6.70352e-05 0.106314)
(-7.28532e-05 7.2875e-05 0.106513)
(-2.88484e-06 -1.41304e-06 0.108682)
(2.89535e-06 -1.41305e-06 0.108681)
(-2.91603e-06 -1.41775e-06 0.108681)
(7.28904e-05 7.29235e-05 0.106513)
(6.69801e-05 6.69627e-05 0.106314)
(-7.28777e-05 -7.2846e-05 0.106513)
(2.99393e-06 1.49799e-06 0.108681)
(-2.99582e-06 1.52393e-06 0.108681)
(2.96964e-06 1.47504e-06 0.10868)
(-2.98262e-06 1.50426e-06 0.10868)
(-6.70006e-05 6.69406e-05 0.106314)
(7.28851e-05 -7.28608e-05 0.106514)
(1.43987e-06 2.91967e-06 0.108682)
(1.50869e-06 -2.98441e-06 0.108681)
(1.40088e-06 2.90048e-06 0.108681)
(1.49053e-06 -2.97591e-06 0.10868)
(-1.51136e-06 -2.97851e-06 0.108681)
(-1.39199e-06 2.89616e-06 0.108682)
(-1.47439e-06 -2.95844e-06 0.10868)
(6.69898e-05 -6.70589e-05 0.106314)
(-7.28439e-05 7.28668e-05 0.106513)
(-2.91314e-06 -1.42986e-06 0.108682)
(2.89106e-06 -1.39337e-06 0.108681)
(-2.89102e-06 -1.40091e-06 0.108681)
(7.28661e-05 7.2896e-05 0.106513)
(6.6997e-05 6.69777e-05 0.106314)
(-7.28504e-05 -7.28242e-05 0.106513)
(2.97043e-06 1.50214e-06 0.108681)
(-2.98583e-06 1.53257e-06 0.108681)
(2.9758e-06 1.4604e-06 0.10868)
(-3.00034e-06 1.50518e-06 0.10868)
(-6.70061e-05 6.69601e-05 0.106315)
(7.28737e-05 -7.2851e-05 0.106514)
(1.42828e-06 2.90199e-06 0.108682)
(1.52031e-06 -2.97811e-06 0.108681)
(1.40796e-06 2.90325e-06 0.108681)
(1.49078e-06 -2.98504e-06 0.10868)
(-1.50312e-06 -2.95878e-06 0.108681)
(-1.40318e-06 2.91256e-06 0.108682)
(-1.47114e-06 -2.96125e-06 0.10868)
(6.70029e-05 -6.70655e-05 0.106314)
(-7.28388e-05 7.28686e-05 0.106513)
(-2.8906e-06 -1.42723e-06 0.108682)
(2.90544e-06 -1.39567e-06 0.108681)
(-2.89477e-06 -1.389e-06 0.108681)
(7.28249e-05 7.28554e-05 0.106513)
(6.70223e-05 6.69969e-05 0.106314)
(-7.28534e-05 -7.28165e-05 0.106513)
(2.99419e-06 1.51547e-06 0.108682)
(-3.00529e-06 1.54393e-06 0.108681)
(2.9636e-06 1.44954e-06 0.10868)
(-2.98084e-06 1.4835e-06 0.10868)
(-6.70175e-05 6.69692e-05 0.106315)
(7.28895e-05 -7.28701e-05 0.106514)
(1.4535e-06 2.91932e-06 0.108682)
(1.53286e-06 -2.98957e-06 0.108681)
(1.38669e-06 2.89433e-06 0.108681)
(1.47125e-06 -2.97105e-06 0.108679)
(-1.51938e-06 -2.98337e-06 0.108681)
(-1.37872e-06 2.89373e-06 0.108681)
(-1.45423e-06 -2.94687e-06 0.10868)
(6.70038e-05 -6.7066e-05 0.106314)
(-7.28567e-05 7.28797e-05 0.106513)
(-2.9161e-06 -1.44436e-06 0.108682)
(2.88715e-06 -1.37536e-06 0.108681)
(-2.87958e-06 -1.37628e-06 0.10868)
(7.27939e-05 7.2824e-05 0.106512)
(6.69952e-05 6.69795e-05 0.106314)
(-7.28513e-05 -7.28093e-05 0.106513)
(2.98885e-06 1.54275e-06 0.108682)
(-3.0059e-06 1.57232e-06 0.108682)
(2.9426e-06 1.41514e-06 0.108679)
(-2.95897e-06 1.44185e-06 0.108679)
(-6.69724e-05 6.69215e-05 0.106315)
(7.2876e-05 -7.28598e-05 0.106513)
(1.47918e-06 2.92005e-06 0.108683)
(1.55539e-06 -2.99403e-06 0.108681)
(1.34116e-06 2.87738e-06 0.10868)
(1.42946e-06 -2.95067e-06 0.108679)
(-1.5506e-06 -2.98108e-06 0.108682)
(-1.34159e-06 2.87023e-06 0.108681)
(-1.41617e-06 -2.92037e-06 0.108679)
(6.69569e-05 -6.70205e-05 0.106314)
(-7.28503e-05 7.28642e-05 0.106512)
(-2.91657e-06 -1.46987e-06 0.108682)
(2.86505e-06 -1.33465e-06 0.10868)
(-2.86058e-06 -1.33472e-06 0.10868)
(7.27663e-05 7.28017e-05 0.106512)
(6.69344e-05 6.69245e-05 0.106314)
(-7.28036e-05 -7.27702e-05 0.106512)
(3.00651e-06 1.58235e-06 0.108682)
(-3.03055e-06 1.60832e-06 0.108682)
(2.90553e-06 1.35152e-06 0.108679)
(-2.92097e-06 1.38114e-06 0.108678)
(-6.69089e-05 6.68547e-05 0.106315)
(7.28129e-05 -7.27983e-05 0.106513)
(1.51092e-06 2.94233e-06 0.108683)
(1.5959e-06 -3.02032e-06 0.108682)
(1.28547e-06 2.83603e-06 0.10868)
(1.36933e-06 -2.90948e-06 0.108678)
(-1.58586e-06 -2.99178e-06 0.108682)
(-1.2852e-06 2.83013e-06 0.10868)
(-1.36227e-06 -2.88732e-06 0.108679)
(6.68885e-05 -6.69578e-05 0.106314)
(-7.27904e-05 7.28071e-05 0.106512)
(-2.93155e-06 -1.50412e-06 0.108683)
(2.82732e-06 -1.27827e-06 0.10868)
(-2.82673e-06 -1.27723e-06 0.108679)
(7.27161e-05 7.27552e-05 0.106512)
(6.6851e-05 6.68344e-05 0.106315)
(-7.26982e-05 -7.26656e-05 0.106512)
(3.05444e-06 1.64453e-06 0.108683)
(-3.07113e-06 1.66872e-06 0.108683)
(2.84068e-06 1.25949e-06 0.108678)
(-2.84925e-06 1.28654e-06 0.108678)
(-6.68329e-05 6.67768e-05 0.106315)
(7.27161e-05 -7.2698e-05 0.106513)
(1.5785e-06 2.98602e-06 0.108684)
(1.6609e-06 -3.06352e-06 0.108682)
(1.1929e-06 2.77106e-06 0.108679)
(1.27276e-06 -2.8319e-06 0.108677)
(-1.65248e-06 -3.03886e-06 0.108683)
(-1.18845e-06 2.76284e-06 0.108679)
(-1.26454e-06 -2.81783e-06 0.108678)
(6.68067e-05 -6.68782e-05 0.106314)
(-7.26873e-05 7.27078e-05 0.106512)
(-2.97862e-06 -1.5738e-06 0.108683)
(2.75514e-06 -1.1788e-06 0.108679)
(-2.75424e-06 -1.18132e-06 0.108678)
(7.26225e-05 7.2655e-05 0.106512)
(6.67213e-05 6.67042e-05 0.106315)
(-7.25163e-05 -7.24823e-05 0.106511)
(3.12764e-06 1.75224e-06 0.108684)
(-3.13536e-06 1.77228e-06 0.108684)
(2.71396e-06 1.10073e-06 0.108677)
(-2.72986e-06 1.13278e-06 0.108676)
(-6.67004e-05 6.6649e-05 0.106315)
(7.25316e-05 -7.25058e-05 0.106512)
(1.68445e-06 3.05955e-06 0.108685)
(1.75724e-06 -3.1234e-06 0.108683)
(1.03234e-06 2.64315e-06 0.108677)
(1.11567e-06 -2.7176e-06 0.108676)
(-1.7534e-06 -3.10642e-06 0.108684)
(-1.02518e-06 2.64305e-06 0.108678)
(-1.10348e-06 -2.69919e-06 0.108676)
(6.66729e-05 -6.67442e-05 0.106315)
(-7.2498e-05 7.25107e-05 0.106511)
(-3.04193e-06 -1.67869e-06 0.108684)
(2.62857e-06 -1.02889e-06 0.108677)
(-2.6244e-06 -1.02936e-06 0.108677)
(7.24438e-05 7.24651e-05 0.106511)
(6.65014e-05 6.64838e-05 0.106316)
(-7.2191e-05 -7.21511e-05 0.10651)
(3.23674e-06 1.9059e-06 0.108685)
(-3.26073e-06 1.93688e-06 0.108685)
(2.50943e-06 8.58959e-07 0.108675)
(-2.53709e-06 8.89953e-07 0.108674)
(-6.64801e-05 6.64373e-05 0.106316)
(7.21727e-05 -7.21544e-05 0.106511)
(1.84381e-06 3.16709e-06 0.108686)
(1.91929e-06 -3.25356e-06 0.108685)
(7.83075e-07 2.44266e-06 0.108675)
(8.75683e-07 -2.52909e-06 0.108674)
(-1.90992e-06 -3.22289e-06 0.108685)
(-7.84593e-07 2.45089e-06 0.108676)
(-8.63688e-07 -2.50309e-06 0.108674)
(6.64616e-05 -6.65346e-05 0.106316)
(-7.21467e-05 7.21628e-05 0.106509)
(-3.14832e-06 -1.84345e-06 0.108686)
(2.43747e-06 -7.83246e-07 0.108676)
(-2.43165e-06 -7.8453e-07 0.108675)
(7.21181e-05 7.2147e-05 0.106509)
(6.61312e-05 6.61205e-05 0.106317)
(-7.1602e-05 -7.15616e-05 0.106507)
(3.43015e-06 2.16059e-06 0.108687)
(-3.46506e-06 2.19114e-06 0.108687)
(2.18837e-06 4.93865e-07 0.108672)
(-2.20481e-06 5.20646e-07 0.108672)
(-6.61351e-05 6.60853e-05 0.106317)
(7.15791e-05 -7.15604e-05 0.106508)
(2.09412e-06 3.36625e-06 0.108688)
(2.17708e-06 -3.45555e-06 0.108687)
(4.1504e-07 2.12569e-06 0.108673)
(5.07792e-07 -2.19451e-06 0.108671)
(-2.16721e-06 -3.41562e-06 0.108687)
(-4.17621e-07 2.12408e-06 0.108674)
(-5.00652e-07 -2.1742e-06 0.108672)
(6.61167e-05 -6.6179e-05 0.106317)
(-7.15593e-05 7.15892e-05 0.106507)
(-3.35026e-06 -2.0916e-06 0.108688)
(2.11673e-06 -4.04355e-07 0.108673)
(-2.11434e-06 -4.06659e-07 0.108673)
(7.15434e-05 7.15861e-05 0.106507)
(6.54865e-05 6.54735e-05 0.106319)
(-7.05251e-05 -7.04963e-05 0.106503)
(3.76916e-06 2.57277e-06 0.10869)
(-3.78642e-06 2.60283e-06 0.10869)
(1.64844e-06 -7.34701e-08 0.108668)
(-1.65083e-06 -4.6556e-08 0.108668)
(-6.54951e-05 6.54485e-05 0.106319)
(7.05279e-05 -7.05096e-05 0.106504)
(2.51204e-06 3.7062e-06 0.108691)
(2.5907e-06 -3.77458e-06 0.10869)
(-1.46014e-07 1.57528e-06 0.108669)
(-5.5866e-08 -1.64341e-06 0.108668)
(-2.58243e-06 -3.74469e-06 0.10869)
(1.52992e-07 1.57252e-06 0.10867)
(7.13409e-08 -1.62791e-06 0.108668)
(6.54746e-05 -6.55217e-05 0.106319)
(-7.05162e-05 7.0533e-05 0.106502)
(-3.68914e-06 -2.49804e-06 0.108691)
(1.57498e-06 1.6108e-07 0.108669)
(-1.56345e-06 1.59141e-07 0.108669)
(7.0478e-05 7.05091e-05 0.106502)
(6.43211e-05 6.43004e-05 0.106324)
(-6.85568e-05 -6.8535e-05 0.106494)
(4.32866e-06 3.22005e-06 0.108694)
(-4.33086e-06 3.25093e-06 0.108694)
(7.08565e-07 -9.83769e-07 0.108663)
(-7.1247e-07 -9.54912e-07 0.108663)
(-6.43148e-05 6.42697e-05 0.106324)
(6.85694e-05 -6.85591e-05 0.106495)
(3.17103e-06 4.25388e-06 0.108695)
(3.24473e-06 -4.32299e-06 0.108694)
(-1.053e-06 6.29708e-07 0.108664)
(-9.58887e-07 -7.07724e-07 0.108663)
(-3.22738e-06 -4.30266e-06 0.108694)
(1.0615e-06 6.33329e-07 0.108665)
(9.77063e-07 -6.97243e-07 0.108663)
(6.42898e-05 -6.43443e-05 0.106324)
(-6.85634e-05 6.85764e-05 0.106494)
(-4.23991e-06 -3.15501e-06 0.108695)
(6.3361e-07 1.06448e-06 0.108664)
(-6.24262e-07 1.05656e-06 0.108664)
(6.85176e-05 6.85425e-05 0.106494)
(6.21618e-05 6.21418e-05 0.106332)
(-6.47954e-05 -6.47706e-05 0.106478)
(5.24348e-06 4.21936e-06 0.1087)
(-5.24977e-06 4.25293e-06 0.1087)
(-8.69189e-07 -2.39702e-06 0.108657)
(8.61256e-07 -2.37012e-06 0.108656)
(-6.21487e-05 6.21061e-05 0.106333)
(6.48121e-05 -6.47983e-05 0.106479)
(4.17468e-06 5.16528e-06 0.108701)
(4.25027e-06 -5.24566e-06 0.108699)
(-2.47333e-06 -9.38917e-07 0.108658)
(-2.38352e-06 8.72438e-07 0.108656)
(-4.23043e-06 -5.22128e-06 0.1087)
(2.48098e-06 -9.39407e-07 0.108658)
(2.3903e-06 8.71733e-07 0.108656)
(6.21202e-05 -6.21709e-05 0.106332)
(-6.48055e-05 6.48075e-05 0.106478)
(-5.15354e-06 -4.16555e-06 0.108701)
(-9.48417e-07 2.48058e-06 0.108658)
(9.38263e-07 2.47421e-06 0.108657)
(6.47735e-05 6.48051e-05 0.106478)
(5.80317e-05 5.80257e-05 0.106349)
(-5.7177e-05 -5.71495e-05 0.106448)
(6.76958e-06 5.81609e-06 0.108708)
(-6.78143e-06 5.84685e-06 0.108708)
(-3.47837e-06 -4.57906e-06 0.108648)
(3.45625e-06 -4.55266e-06 0.108647)
(-5.80138e-05 5.79861e-05 0.106349)
(5.71801e-05 -5.71716e-05 0.106449)
(5.7648e-06 6.70381e-06 0.108709)
(5.83437e-06 -6.77173e-06 0.108708)
(-4.66854e-06 -3.52493e-06 0.108649)
(-4.58772e-06 3.48421e-06 0.108647)
(-5.82682e-06 -6.7484e-06 0.108708)
(4.6559e-06 -3.5248e-06 0.108649)
(4.57168e-06 3.4843e-06 0.108647)
(5.79905e-05 -5.80373e-05 0.106349)
(-5.71624e-05 5.71575e-05 0.106448)
(-6.69296e-06 -5.75419e-06 0.108709)
(-3.548e-06 4.6777e-06 0.108649)
(3.52723e-06 4.67264e-06 0.108648)
(5.71424e-05 5.7191e-05 0.106448)
(4.96626e-05 4.96807e-05 0.10638)
(-4.23976e-05 -4.23524e-05 0.106393)
(9.29594e-06 8.34645e-06 0.108719)
(-9.32701e-06 8.38751e-06 0.108719)
(-8.7634e-06 -1.03027e-05 0.108634)
(8.72807e-06 -1.02872e-05 0.108634)
(-4.96585e-05 4.96491e-05 0.10638)
(4.23477e-05 -4.23601e-05 0.106394)
(8.28445e-06 9.2482e-06 0.10872)
(8.35346e-06 -9.30048e-06 0.108719)
(-1.03974e-05 -8.78433e-06 0.108635)
(-1.03254e-05 8.7598e-06 0.108634)
(-8.36633e-06 -9.27109e-06 0.108719)
(1.03653e-05 -8.7637e-06 0.108636)
(1.03018e-05 8.77303e-06 0.108634)
(4.9668e-05 -4.96977e-05 0.10638)
(-4.23532e-05 4.23294e-05 0.106393)
(-9.23717e-06 -8.27513e-06 0.10872)
(-8.80905e-06 1.03872e-05 0.108636)
(8.79181e-06 1.0393e-05 0.108635)
(4.23386e-05 4.23621e-05 0.106393)
(2.93229e-05 2.94006e-05 0.106436)
(-5.62281e-05 -5.60683e-05 0.10639)
(1.11019e-05 6.87554e-06 0.108733)
(-1.11511e-05 6.90028e-06 0.108733)
(-4.14275e-05 -5.77187e-05 0.108663)
(4.14151e-05 -5.77355e-05 0.108663)
(-2.937e-05 2.93853e-05 0.106436)
(5.62462e-05 -5.60865e-05 0.10639)
(6.76554e-06 1.10879e-05 0.108734)
(6.84671e-06 -1.11092e-05 0.108733)
(-5.79526e-05 -4.13683e-05 0.108665)
(-5.78482e-05 4.14323e-05 0.108663)
(-6.85971e-06 -1.10786e-05 0.108733)
(5.79267e-05 -4.13651e-05 0.108665)
(5.78393e-05 4.14455e-05 0.108663)
(2.93736e-05 -2.94079e-05 0.106436)
(-5.61416e-05 5.61908e-05 0.10639)
(-1.10618e-05 -6.7806e-06 0.108734)
(-4.14449e-05 5.79281e-05 0.108665)
(4.14568e-05 5.79526e-05 0.108665)
(5.61092e-05 5.61487e-05 0.10639)
(-4.4469e-05 -4.42953e-05 0.106705)
(-3.89845e-05 -5.60152e-05 0.108808)
(3.89652e-05 -5.60281e-05 0.108808)
(4.44718e-05 -4.43161e-05 0.106705)
(-5.62272e-05 -3.88906e-05 0.108809)
(-5.61238e-05 3.89647e-05 0.108808)
(3.42317e-05 -3.41156e-05 0.110662)
(-3.42024e-05 3.42467e-05 0.110662)
(3.42243e-05 3.42581e-05 0.110662)
(5.61564e-05 3.89842e-05 0.108808)
(-4.43909e-05 4.44202e-05 0.106705)
(3.89863e-05 5.62385e-05 0.108809)
(-1.34067e-07 -1.06298e-05 0.092699)
(-2.18694e-06 -8.5682e-06 0.0825931)
(2.78724e-06 -4.00796e-06 0.0715059)
(-1.06637e-05 -1.25103e-07 0.092698)
(-8.55486e-06 -2.15451e-06 0.0825935)
(-2.37943e-06 -2.3635e-06 0.110618)
(2.37784e-06 -2.36937e-06 0.110619)
(-2.36175e-06 2.38219e-06 0.110618)
(2.36202e-06 2.37595e-06 0.110618)
(1.91385e-05 -7.51112e-08 0.100926)
(-1.46877e-06 2.94339e-06 0.108682)
(1.32505e-05 -5.57529e-06 0.0943436)
(-2.10973e-06 -6.51893e-07 0.109933)
(-3.91002e-06 2.7497e-06 0.0715071)
(-8.94161e-08 1.91028e-05 0.100926)
(2.93754e-06 -1.46528e-06 0.108681)
(-6.4499e-07 -2.09646e-06 0.109932)
(-5.60853e-06 1.3306e-05 0.0943423)
(7.28391e-05 7.28688e-05 0.106512)
(4.19003e-06 5.15998e-06 0.0882743)
(5.17494e-06 4.19274e-06 0.0882721)
(-1.28212e-07 -1.06173e-05 0.0926989)
(2.43447e-07 9.56155e-06 0.0825279)
(-1.19172e-07 9.37731e-06 0.0926371)
(-2.17258e-06 -8.57841e-06 0.0825929)
(-2.60232e-06 4.33096e-06 0.0714437)
(2.75938e-06 -4.0269e-06 0.0715056)
(-1.06521e-05 -1.16828e-07 0.0926978)
(9.52031e-06 2.29808e-07 0.0825267)
(9.42825e-06 -9.65859e-08 0.0926374)
(-8.56141e-06 -2.14957e-06 0.0825933)
(2.37826e-06 -2.36828e-06 0.110619)
(-2.36161e-06 2.38237e-06 0.110618)
(2.37067e-06 2.3803e-06 0.110618)
(-2.37452e-06 -2.36043e-06 0.110619)
(2.37652e-06 -2.36716e-06 0.110619)
(-2.36066e-06 2.38107e-06 0.110618)
(2.35149e-06 2.36529e-06 0.110618)
(1.91212e-05 -7.84378e-08 0.100926)
(-1.57972e-05 4.35502e-06 0.094242)
(-2.13247e-06 -6.55363e-07 0.109933)
(-1.49432e-06 2.95623e-06 0.108682)
(-1.89277e-05 1.53368e-08 0.100821)
(1.32273e-05 -5.57698e-06 0.0943433)
(-2.14427e-06 -6.54779e-07 0.109933)
(4.24303e-06 -2.54356e-06 0.0714405)
(-3.92772e-06 2.72724e-06 0.0715068)
(-8.9873e-08 1.9087e-05 0.100926)
(-6.45022e-07 -2.11447e-06 0.109932)
(4.3772e-06 -1.58415e-05 0.0942422)
(2.94763e-06 -1.49339e-06 0.108681)
(1.23978e-08 -1.89159e-05 0.10082)
(-6.45183e-07 -2.13226e-06 0.109932)
(-5.61031e-06 1.32875e-05 0.0943421)
(-5.74455e-06 -5.52663e-06 0.0882102)
(-5.50532e-06 -5.74304e-06 0.0882087)
(7.287e-05 7.29002e-05 0.106512)
(4.19165e-06 5.15031e-06 0.0882741)
(5.16674e-06 4.19557e-06 0.0882719)
(-1.21346e-07 -1.06218e-05 0.0926988)
(2.60117e-07 9.549e-06 0.0825276)
(-1.12669e-07 9.36986e-06 0.092637)
(-2.15951e-06 -8.58295e-06 0.0825927)
(-2.61156e-06 4.32596e-06 0.0714435)
(2.76514e-06 -4.01518e-06 0.0715054)
(-1.06565e-05 -1.09288e-07 0.0926978)
(9.50453e-06 2.5199e-07 0.0825265)
(9.41918e-06 -9.532e-08 0.0926373)
(-8.56501e-06 -2.14029e-06 0.0825931)
(2.38361e-06 -2.37421e-06 0.110619)
(-2.36748e-06 2.38606e-06 0.110619)
(2.37226e-06 2.37682e-06 0.110619)
(-2.41404e-06 -2.39835e-06 0.110619)
(2.41521e-06 -2.40241e-06 0.110619)
(-2.39937e-06 2.42256e-06 0.110619)
(2.38357e-06 2.3875e-06 0.110619)
(1.91413e-05 -8.06365e-08 0.100926)
(-1.57801e-05 4.36816e-06 0.0942418)
(-2.12002e-06 -6.55753e-07 0.109933)
(-1.46351e-06 2.92702e-06 0.108682)
(-1.89029e-05 1.18326e-08 0.100821)
(1.32551e-05 -5.56951e-06 0.0943432)
(-2.12014e-06 -6.59076e-07 0.109933)
(4.24229e-06 -2.54631e-06 0.0714403)
(-3.92637e-06 2.72068e-06 0.0715066)
(-8.93941e-08 1.91072e-05 0.100925)
(-6.43941e-07 -2.10207e-06 0.109933)
(4.39286e-06 -1.58277e-05 0.094242)
(2.91221e-06 -1.46304e-06 0.108681)
(1.33921e-08 -1.88924e-05 0.10082)
(-6.46159e-07 -2.10903e-06 0.109932)
(-5.59315e-06 1.33028e-05 0.0943419)
(-5.73156e-06 -5.53894e-06 0.0882099)
(-5.50765e-06 -5.72891e-06 0.0882085)
(7.2906e-05 7.29449e-05 0.106512)
(4.20984e-06 5.13223e-06 0.0882738)
(5.15652e-06 4.20861e-06 0.0882717)
(-1.47778e-07 -1.0595e-05 0.0926987)
(2.31464e-07 9.55707e-06 0.0825275)
(-1.30177e-07 9.37311e-06 0.0926369)
(-2.20131e-06 -8.56715e-06 0.0825926)
(-2.60085e-06 4.32876e-06 0.0714433)
(2.78298e-06 -4.00062e-06 0.0715053)
(-1.06371e-05 -1.36824e-07 0.0926977)
(9.51042e-06 2.26311e-07 0.0825264)
(9.41899e-06 -1.11036e-07 0.0926373)
(-8.55596e-06 -2.18003e-06 0.082593)
(2.41571e-06 -2.4018e-06 0.110619)
(-2.39711e-06 2.4246e-06 0.110619)
(2.39634e-06 2.39576e-06 0.110619)
(-2.4372e-06 -2.42493e-06 0.110619)
(2.43847e-06 -2.42658e-06 0.110619)
(-2.41343e-06 2.44366e-06 0.110618)
(2.40905e-06 2.4141e-06 0.110618)
(1.9155e-05 -6.65774e-08 0.100926)
(-1.57547e-05 4.3717e-06 0.0942417)
(-2.05524e-06 -6.57457e-07 0.109933)
(-1.42994e-06 2.89822e-06 0.108682)
(-1.88772e-05 1.69558e-08 0.100821)
(1.32466e-05 -5.56936e-06 0.0943431)
(-2.05361e-06 -6.51293e-07 0.109933)
(4.24308e-06 -2.54031e-06 0.0714402)
(-3.90778e-06 2.74334e-06 0.0715066)
(-8.16136e-08 1.91199e-05 0.100925)
(-6.51158e-07 -2.03907e-06 0.109933)
(4.39825e-06 -1.58029e-05 0.0942419)
(2.89085e-06 -1.41744e-06 0.108681)
(1.89927e-08 -1.88715e-05 0.10082)
(-6.42008e-07 -2.04046e-06 0.109932)
(-5.60907e-06 1.3306e-05 0.0943418)
(-5.72731e-06 -5.53669e-06 0.0882098)
(-5.51102e-06 -5.72317e-06 0.0882083)
(7.28997e-05 7.29292e-05 0.106513)
(4.20288e-06 5.13468e-06 0.0882737)
(5.15681e-06 4.2039e-06 0.0882715)
(-1.28108e-07 -1.06074e-05 0.0926985)
(2.27244e-07 9.54303e-06 0.0825275)
(-1.30786e-07 9.37244e-06 0.0926367)
(-2.20393e-06 -8.56306e-06 0.0825926)
(-2.59198e-06 4.32365e-06 0.0714432)
(2.78515e-06 -3.99597e-06 0.0715052)
(-1.06404e-05 -1.25334e-07 0.0926975)
(9.50131e-06 2.23867e-07 0.0825265)
(9.42366e-06 -1.11405e-07 0.092637)
(-8.54067e-06 -2.17162e-06 0.082593)
(2.4356e-06 -2.42369e-06 0.110619)
(-2.41411e-06 2.44102e-06 0.110619)
(2.40682e-06 2.40558e-06 0.110619)
(-2.44048e-06 -2.42709e-06 0.110618)
(2.44244e-06 -2.42589e-06 0.110619)
(-2.41439e-06 2.44053e-06 0.110618)
(2.41807e-06 2.42079e-06 0.110618)
(1.91531e-05 -8.2004e-08 0.100926)
(-1.57568e-05 4.37763e-06 0.0942416)
(-2.02176e-06 -6.68585e-07 0.109933)
(-1.41535e-06 2.90077e-06 0.108682)
(-1.88623e-05 1.87399e-08 0.100821)
(1.32523e-05 -5.57686e-06 0.094343)
(-2.04266e-06 -6.58068e-07 0.109933)
(4.2414e-06 -2.52918e-06 0.0714402)
(-3.89945e-06 2.75477e-06 0.0715065)
(-8.85095e-08 1.91268e-05 0.100926)
(-6.58348e-07 -2.00306e-06 0.109933)
(4.40177e-06 -1.57981e-05 0.0942419)
(2.89901e-06 -1.41691e-06 0.108681)
(1.50341e-08 -1.88543e-05 0.100821)
(-6.45151e-07 -2.0318e-06 0.109932)
(-5.6043e-06 1.32991e-05 0.0943417)
(-5.7178e-06 -5.52175e-06 0.0882098)
(-5.49765e-06 -5.71465e-06 0.0882083)
(7.28479e-05 7.28774e-05 0.106513)
(4.20126e-06 5.14622e-06 0.0882737)
(5.16994e-06 4.20051e-06 0.0882715)
(-1.28021e-07 -1.06068e-05 0.0926985)
(2.37435e-07 9.55476e-06 0.0825275)
(-1.11161e-07 9.35078e-06 0.0926367)
(-2.20265e-06 -8.54261e-06 0.0825925)
(-2.58725e-06 4.31205e-06 0.0714432)
(2.7759e-06 -3.99091e-06 0.0715052)
(-1.06405e-05 -1.21267e-07 0.0926975)
(9.51163e-06 2.22613e-07 0.0825264)
(9.40499e-06 -9.74562e-08 0.092637)
(-8.5328e-06 -2.17897e-06 0.0825929)
(2.43527e-06 -2.42026e-06 0.110619)
(-2.40959e-06 2.4371e-06 0.110619)
(2.40771e-06 2.40472e-06 0.110619)
(-2.43033e-06 -2.41965e-06 0.110618)
(2.4316e-06 -2.42014e-06 0.110618)
(-2.4077e-06 2.43349e-06 0.110618)
(2.40565e-06 2.4106e-06 0.110618)
(1.91477e-05 -7.82634e-08 0.100926)
(-1.57392e-05 4.35785e-06 0.0942417)
(-2.02967e-06 -6.75031e-07 0.109933)
(-1.4152e-06 2.90557e-06 0.108682)
(-1.88645e-05 9.60797e-09 0.100821)
(1.32348e-05 -5.57786e-06 0.094343)
(-2.05005e-06 -6.60829e-07 0.109933)
(4.23499e-06 -2.51915e-06 0.0714401)
(-3.8934e-06 2.74242e-06 0.0715065)
(-8.82466e-08 1.91096e-05 0.100926)
(-6.60636e-07 -2.01715e-06 0.109933)
(4.37984e-06 -1.57756e-05 0.0942419)
(2.90358e-06 -1.4056e-06 0.108681)
(1.54611e-08 -1.88624e-05 0.100821)
(-6.4888e-07 -2.03922e-06 0.109932)
(-5.61002e-06 1.32951e-05 0.0943417)
(-5.71855e-06 -5.51171e-06 0.0882098)
(-5.48854e-06 -5.71811e-06 0.0882083)
(7.28383e-05 7.28694e-05 0.106513)
(4.18597e-06 5.15662e-06 0.0882736)
(5.17508e-06 4.1883e-06 0.0882715)
(-1.17374e-07 -1.06052e-05 0.0926983)
(2.38046e-07 9.53246e-06 0.0825274)
(-1.15428e-07 9.34108e-06 0.0926366)
(-2.19681e-06 -8.52311e-06 0.0825925)
(-2.57594e-06 4.30271e-06 0.0714432)
(2.7814e-06 -3.97176e-06 0.0715053)
(-1.06392e-05 -1.19277e-07 0.0926973)
(9.49088e-06 2.24522e-07 0.0825264)
(9.39708e-06 -9.97439e-08 0.092637)
(-8.50532e-06 -2.15988e-06 0.0825928)
(2.41856e-06 -2.40697e-06 0.110619)
(-2.39713e-06 2.4192e-06 0.110619)
(2.39056e-06 2.38923e-06 0.110619)
(-2.43694e-06 -2.42194e-06 0.110618)
(2.43965e-06 -2.4212e-06 0.110618)
(-2.41406e-06 2.43959e-06 0.110618)
(2.41593e-06 2.41861e-06 0.110618)
(1.91396e-05 -8.07742e-08 0.100926)
(-1.57227e-05 4.33037e-06 0.0942417)
(-2.02736e-06 -6.7504e-07 0.109934)
(-1.41502e-06 2.91773e-06 0.108682)
(-1.88407e-05 4.43644e-09 0.100821)
(1.32306e-05 -5.56905e-06 0.0943429)
(-2.05593e-06 -6.62081e-07 0.109933)
(4.2261e-06 -2.5031e-06 0.0714401)
(-3.87221e-06 2.75031e-06 0.0715065)
(-8.86641e-08 1.91136e-05 0.100926)
(-6.59518e-07 -2.00963e-06 0.109933)
(4.35784e-06 -1.577e-05 0.0942419)
(2.91302e-06 -1.41539e-06 0.108681)
(4.84934e-09 -1.88308e-05 0.100821)
(-6.4871e-07 -2.0468e-06 0.109932)
(-5.605e-06 1.32917e-05 0.0943417)
(-5.69519e-06 -5.51202e-06 0.0882098)
(-5.48856e-06 -5.69178e-06 0.0882084)
(7.28479e-05 7.28797e-05 0.106513)
(4.1754e-06 5.13885e-06 0.0882736)
(5.16197e-06 4.177e-06 0.0882715)
(-1.37523e-07 -1.06228e-05 0.0926983)
(2.31437e-07 9.48992e-06 0.0825274)
(-1.41019e-07 9.30716e-06 0.0926366)
(-2.16015e-06 -8.50591e-06 0.0825925)
(-2.56988e-06 4.27646e-06 0.0714433)
(2.74395e-06 -3.95726e-06 0.0715055)
(-1.06517e-05 -1.28707e-07 0.0926972)
(9.46243e-06 1.96081e-07 0.0825263)
(9.37135e-06 -9.95311e-08 0.092637)
(-8.49993e-06 -2.14237e-06 0.0825928)
(2.41201e-06 -2.39231e-06 0.11062)
(-2.38456e-06 2.4117e-06 0.110619)
(2.39542e-06 2.39313e-06 0.110619)
(-2.44041e-06 -2.42932e-06 0.110618)
(2.44199e-06 -2.42621e-06 0.110618)
(-2.41855e-06 2.44637e-06 0.110618)
(2.42071e-06 2.42443e-06 0.110618)
(1.91487e-05 -7.48315e-08 0.100926)
(-1.5686e-05 4.31422e-06 0.0942418)
(-2.01661e-06 -6.70613e-07 0.109934)
(-1.4037e-06 2.91664e-06 0.108682)
(-1.88093e-05 2.08329e-09 0.100821)
(1.32236e-05 -5.552e-06 0.094343)
(-2.07351e-06 -6.57775e-07 0.109932)
(4.19753e-06 -2.50055e-06 0.0714401)
(-3.85768e-06 2.71449e-06 0.0715067)
(-8.76821e-08 1.91142e-05 0.100926)
(-6.57849e-07 -2.00316e-06 0.109933)
(4.34277e-06 -1.57368e-05 0.094242)
(2.90525e-06 -1.39673e-06 0.108681)
(-2.81812e-09 -1.87993e-05 0.100821)
(-6.46477e-07 -2.06192e-06 0.109932)
(-5.58793e-06 1.32803e-05 0.0943417)
(-5.67142e-06 -5.48424e-06 0.0882099)