/*--------------------------------*- C++ -*----------------------------------*\
| =========                 |                                                 |
| \\      /  F ield         | OpenFOAM: The Open Source CFD Toolbox           |
|  \\    /   O peration     | Version:  v1906                                 |
|   \\  /    A nd           | Web:      www.OpenFOAM.com                      |
|    \\/     M anipulation  |                                                 |
\*---------------------------------------------------------------------------*/
FoamFile
{
    version     2.0;
    format      ascii;
    class       volVectorField;
    location    "125";
    object      U;
}
// * * * * * * * * * * * * * * * * * * * * * * * * * * * * * * * * * * * * * //

dimensions      [0 1 -1 0 0 0 0];


internalField   nonuniform List<vector> 
43248
(
(6.07033e-05 6.0741e-05 0.108929)
(-9.71501e-05 5.96822e-05 0.107975)
(5.96765e-05 -9.7161e-05 0.107975)
(-0.000157894 -0.000157941 0.106622)
(5.93532e-05 5.93719e-05 0.109226)
(-9.48957e-05 5.87711e-05 0.108152)
(5.87177e-05 -9.48874e-05 0.108152)
(-0.000153187 -0.000153249 0.106646)
(5.72637e-05 5.7276e-05 0.109513)
(-9.16554e-05 5.72583e-05 0.10831)
(5.72219e-05 -9.16335e-05 0.10831)
(-0.000147669 -0.00014769 0.106644)
(5.43062e-05 5.43271e-05 0.109787)
(-8.68949e-05 5.46412e-05 0.108446)
(5.46029e-05 -8.68725e-05 0.108446)
(-0.000140461 -0.000140472 0.106619)
(4.8868e-05 4.88984e-05 0.110038)
(-7.8796e-05 5.04377e-05 0.108555)
(5.0402e-05 -7.87745e-05 0.108555)
(-0.000130332 -0.000130337 0.10657)
(4.1238e-05 4.12645e-05 0.110259)
(-6.63454e-05 4.27616e-05 0.108634)
(4.27468e-05 -6.63165e-05 0.108634)
(-0.000116623 -0.000116617 0.106504)
(2.82825e-05 2.82899e-05 0.110425)
(-4.5797e-05 3.05395e-05 0.108674)
(3.0543e-05 -4.58079e-05 0.108673)
(-9.80717e-05 -9.80904e-05 0.106431)
(1.46693e-05 1.46817e-05 0.110525)
(-2.57867e-05 1.77986e-05 0.108691)
(1.77771e-05 -2.58234e-05 0.10869)
(-8.34046e-05 -8.34634e-05 0.10638)
(8.01497e-06 8.01643e-06 0.110578)
(-1.51161e-05 1.12001e-05 0.108698)
(1.11894e-05 -1.51488e-05 0.108697)
(-7.55315e-05 -7.5582e-05 0.106353)
(3.89049e-06 3.89624e-06 0.110606)
(-8.49463e-06 7.26399e-06 0.108694)
(7.2536e-06 -8.50558e-06 0.108694)
(-7.06921e-05 -7.07245e-05 0.106334)
(3.31869e-07 3.51286e-07 0.110616)
(-3.90625e-06 4.47362e-06 0.108688)
(4.46426e-06 -3.90588e-06 0.108688)
(-6.78592e-05 -6.78678e-05 0.106321)
(-1.59449e-06 -1.56691e-06 0.110619)
(-1.84939e-06 3.25113e-06 0.108684)
(3.23876e-06 -1.85189e-06 0.108684)
(-6.70619e-05 -6.70696e-05 0.106316)
(-2.23489e-06 -2.21121e-06 0.110619)
(-1.45296e-06 2.94556e-06 0.108683)
(2.93645e-06 -1.45968e-06 0.108682)
(-6.69634e-05 -6.69804e-05 0.106314)
(-2.39375e-06 -2.37064e-06 0.110619)
(-1.41379e-06 2.91593e-06 0.108682)
(2.91025e-06 -1.42141e-06 0.108682)
(-6.69977e-05 -6.70129e-05 0.106314)
(-2.42593e-06 -2.39856e-06 0.110619)
(-1.40811e-06 2.9114e-06 0.108682)
(2.9005e-06 -1.41498e-06 0.108681)
(-6.70102e-05 -6.70315e-05 0.106314)
(-2.42884e-06 -2.40452e-06 0.110619)
(-1.41091e-06 2.90553e-06 0.108682)
(2.89419e-06 -1.42465e-06 0.108681)
(-6.70096e-05 -6.70369e-05 0.106314)
(-2.42982e-06 -2.40935e-06 0.110619)
(-1.41564e-06 2.90418e-06 0.108682)
(2.89624e-06 -1.42581e-06 0.108681)
(-6.70216e-05 -6.70433e-05 0.106314)
(-2.43085e-06 -2.41082e-06 0.110619)
(-1.41776e-06 2.89928e-06 0.108682)
(2.89116e-06 -1.42369e-06 0.108681)
(-6.7031e-05 -6.70475e-05 0.106314)
(-2.43621e-06 -2.41029e-06 0.110619)
(-1.41489e-06 2.89999e-06 0.108682)
(2.8878e-06 -1.42474e-06 0.108681)
(-6.70223e-05 -6.70332e-05 0.106314)
(-2.43697e-06 -2.40531e-06 0.110618)
(-1.40927e-06 2.9015e-06 0.108682)
(2.89137e-06 -1.4197e-06 0.108681)
(-6.70165e-05 -6.70254e-05 0.106314)
(-2.43703e-06 -2.40519e-06 0.110618)
(-1.4107e-06 2.91549e-06 0.108682)
(2.89789e-06 -1.41418e-06 0.108681)
(-6.70179e-05 -6.70327e-05 0.106314)
(-2.43018e-06 -2.40519e-06 0.110618)
(-1.41104e-06 2.90887e-06 0.108682)
(2.90095e-06 -1.41627e-06 0.108681)
(-6.70208e-05 -6.7039e-05 0.106314)
(-2.43008e-06 -2.40951e-06 0.110618)
(-1.41034e-06 2.90704e-06 0.108682)
(2.89934e-06 -1.41748e-06 0.108681)
(-6.70124e-05 -6.70319e-05 0.106314)
(-2.4324e-06 -2.41237e-06 0.110618)
(-1.41336e-06 2.91093e-06 0.108682)
(2.90105e-06 -1.41909e-06 0.108681)
(-6.70177e-05 -6.70359e-05 0.106313)
(-2.41998e-06 -2.40086e-06 0.110618)
(-1.41565e-06 2.90148e-06 0.108682)
(2.89066e-06 -1.41841e-06 0.108681)
(-6.70641e-05 -6.70825e-05 0.106313)
(-2.40403e-06 -2.38667e-06 0.110618)
(-1.4314e-06 2.91147e-06 0.108682)
(2.89936e-06 -1.43196e-06 0.108681)
(-6.70511e-05 -6.70703e-05 0.106314)
(-2.39809e-06 -2.38083e-06 0.110618)
(-1.46261e-06 2.94853e-06 0.108682)
(2.93788e-06 -1.46483e-06 0.108681)
(-6.70272e-05 -6.7045e-05 0.106314)
(-5.34685e-06 -5.34349e-06 0.106777)
(6.01087e-05 9.79291e-05 0.107927)
(-6.01622e-05 9.79835e-05 0.107927)
(5.39426e-06 -5.32412e-06 0.106778)
(9.78999e-05 6.00962e-05 0.107927)
(9.79742e-05 -6.01576e-05 0.107927)
(-9.78712e-05 6.00603e-05 0.107927)
(-9.79563e-05 -6.01321e-05 0.107927)
(-5.28957e-06 5.34321e-06 0.106777)
(6.00496e-05 -9.78685e-05 0.107927)
(-6.00308e-05 -9.78431e-05 0.107927)
(5.34903e-06 5.38079e-06 0.106777)
(0.000157973 0.000157852 0.106622)
(-7.85149e-06 -7.70774e-06 0.106815)
(5.97519e-05 9.72288e-05 0.107974)
(-5.97885e-05 9.72775e-05 0.107974)
(5.91155e-05 9.56369e-05 0.108109)
(-5.91462e-05 9.56934e-05 0.108109)
(-0.000157907 0.000157875 0.106622)
(7.82429e-06 -7.76142e-06 0.106816)
(9.71969e-05 5.97249e-05 0.107975)
(9.72674e-05 -5.978e-05 0.107974)
(9.56023e-05 5.9044e-05 0.108109)
(9.56823e-05 -5.91352e-05 0.108108)
(-9.72515e-05 -5.97557e-05 0.107974)
(-9.55451e-05 5.90433e-05 0.10811)
(-9.56629e-05 -5.91117e-05 0.108109)
(0.000157921 -0.000158013 0.106622)
(-7.74026e-06 7.85696e-06 0.106815)
(-5.96577e-05 -9.71193e-05 0.107974)
(5.899e-05 -9.55625e-05 0.108109)
(-5.9004e-05 -9.55123e-05 0.108109)
(7.79621e-06 7.81321e-06 0.106815)
(0.000153204 0.000153224 0.106645)
(-1.02362e-05 -1.01079e-05 0.106826)
(5.88511e-05 9.49475e-05 0.108151)
(-5.88773e-05 9.50092e-05 0.108151)
(5.75668e-05 9.23504e-05 0.108271)
(-5.75807e-05 9.23985e-05 0.108271)
(-0.000153218 0.000153178 0.106646)
(1.02066e-05 -1.01431e-05 0.106826)
(9.49136e-05 5.87711e-05 0.108152)
(9.49804e-05 -5.8868e-05 0.108151)
(9.2304e-05 5.7472e-05 0.108272)
(9.23847e-05 -5.75704e-05 0.108271)
(-9.49762e-05 -5.88508e-05 0.108151)
(-9.23073e-05 5.74758e-05 0.108272)
(-9.23604e-05 -5.75275e-05 0.108271)
(0.000153211 -0.000153235 0.106646)
(-1.01275e-05 1.02474e-05 0.106825)
(-5.8737e-05 -9.48752e-05 0.108152)
(5.74378e-05 -9.2277e-05 0.108272)
(-5.74495e-05 -9.22832e-05 0.108272)
(1.01601e-05 1.02075e-05 0.106825)
(0.00014766 0.000147676 0.106644)
(-1.31479e-05 -1.30441e-05 0.106812)
(5.73447e-05 9.16934e-05 0.108309)
(-5.73677e-05 9.1751e-05 0.108309)
(5.58085e-05 8.87424e-05 0.108414)
(-5.58173e-05 8.87751e-05 0.108414)
(-0.000147677 0.000147644 0.106644)
(1.31377e-05 -1.30692e-05 0.106812)
(9.16584e-05 5.72539e-05 0.10831)
(9.17344e-05 -5.7352e-05 0.108309)
(8.86727e-05 5.57116e-05 0.108414)
(8.87467e-05 -5.58017e-05 0.108413)
(-9.17107e-05 -5.73172e-05 0.108309)
(-8.86689e-05 5.57113e-05 0.108415)
(-8.87385e-05 -5.57754e-05 0.108414)
(0.000147675 -0.000147682 0.106644)
(-1.30704e-05 1.3156e-05 0.106811)
(-5.72389e-05 -9.16439e-05 0.10831)
(5.56793e-05 -8.86586e-05 0.108414)
(-5.5696e-05 -8.8667e-05 0.108414)
(1.30741e-05 1.31236e-05 0.106811)
(0.000140446 0.000140457 0.106619)
(-1.89936e-05 -1.89173e-05 0.106771)
(5.47375e-05 8.6964e-05 0.108446)
(-5.47436e-05 8.69904e-05 0.108445)
(5.15591e-05 8.08412e-05 0.10853)
(-5.15924e-05 8.09063e-05 0.10853)
(-0.000140455 0.000140423 0.106619)
(1.89817e-05 -1.89177e-05 0.106771)
(8.68966e-05 5.46406e-05 0.108446)
(8.69747e-05 -5.47274e-05 0.108445)
(8.07998e-05 5.14734e-05 0.10853)
(8.08617e-05 -5.15603e-05 0.108529)
(-8.69534e-05 -5.46885e-05 0.108445)
(-8.07966e-05 5.14783e-05 0.108531)
(-8.08646e-05 -5.15302e-05 0.10853)
(0.000140446 -0.00014047 0.106619)
(-1.89324e-05 1.90159e-05 0.10677)
(-5.46158e-05 -8.68804e-05 0.108446)
(5.14427e-05 -8.07811e-05 0.10853)
(-5.14682e-05 -8.07868e-05 0.10853)
(1.8927e-05 1.89801e-05 0.10677)
(0.000130317 0.000130305 0.10657)
(-2.77139e-05 -2.76025e-05 0.106709)
(5.05192e-05 7.88506e-05 0.108554)
(-5.05494e-05 7.8896e-05 0.108554)
(4.53932e-05 7.04226e-05 0.108617)
(-4.5424e-05 7.04598e-05 0.108617)
(-0.00013032 0.000130303 0.10657)
(2.76666e-05 -2.76374e-05 0.10671)
(7.87867e-05 5.04387e-05 0.108555)
(7.88561e-05 -5.0522e-05 0.108554)
(7.03366e-05 4.53115e-05 0.108618)
(7.04141e-05 -4.54011e-05 0.108616)
(-7.88601e-05 -5.04841e-05 0.108554)
(-7.03497e-05 4.53151e-05 0.108618)
(-7.04203e-05 -4.5356e-05 0.108617)
(0.000130298 -0.000130336 0.10657)
(-2.76141e-05 2.77201e-05 0.106709)
(-5.04273e-05 -7.87743e-05 0.108555)
(4.52951e-05 -7.03352e-05 0.108618)
(-4.53031e-05 -7.03359e-05 0.108617)
(2.7634e-05 2.76931e-05 0.106709)
(0.00011659 0.000116611 0.106503)
(-4.29168e-05 -4.28907e-05 0.106638)
(4.28348e-05 6.63894e-05 0.108633)
(-4.28735e-05 6.642e-05 0.108633)
(3.39597e-05 5.14522e-05 0.108666)
(-3.3991e-05 5.14783e-05 0.108666)
(-0.000116631 0.000116581 0.106504)
(4.29044e-05 -4.28989e-05 0.106638)
(6.63141e-05 4.27423e-05 0.108634)
(6.64084e-05 -4.28515e-05 0.108633)
(5.14032e-05 3.38531e-05 0.108667)
(5.14956e-05 -3.39749e-05 0.108665)
(-6.63923e-05 -4.28004e-05 0.108633)
(-5.1422e-05 3.38721e-05 0.108667)
(-5.14687e-05 -3.39287e-05 0.108666)
(0.000116621 -0.000116622 0.106503)
(-4.28593e-05 4.29358e-05 0.106637)
(-4.27404e-05 -6.6305e-05 0.108634)
(3.38759e-05 -5.13908e-05 0.108667)
(-3.38552e-05 -5.1388e-05 0.108667)
(4.28906e-05 4.2925e-05 0.106637)
(9.80956e-05 9.80341e-05 0.106431)
(-5.65386e-05 -5.65219e-05 0.106583)
(3.06363e-05 4.58479e-05 0.108673)
(-3.06589e-05 4.58867e-05 0.108673)
(2.06016e-05 3.00706e-05 0.108686)
(-2.0578e-05 3.00988e-05 0.108686)
(-9.80817e-05 9.80337e-05 0.106431)
(5.65958e-05 -5.65299e-05 0.106584)
(4.58175e-05 3.05344e-05 0.108674)
(4.58711e-05 -3.06431e-05 0.108672)
(3.00183e-05 2.05016e-05 0.108687)
(3.00521e-05 -2.05737e-05 0.108686)
(-4.58713e-05 -3.06192e-05 0.108673)
(-2.99852e-05 2.04777e-05 0.108688)
(-3.00707e-05 -2.05851e-05 0.108686)
(9.80615e-05 -9.81085e-05 0.106431)
(-5.65749e-05 5.6551e-05 0.106582)
(-3.05401e-05 -4.58021e-05 0.108673)
(2.0459e-05 -3.00244e-05 0.108687)
(-2.04865e-05 -3.00317e-05 0.108687)
(5.65334e-05 5.65212e-05 0.106583)
(8.34429e-05 8.33871e-05 0.10638)
(-6.4396e-05 -6.44029e-05 0.106556)
(1.79256e-05 2.58725e-05 0.10869)
(-1.78999e-05 2.58957e-05 0.108689)
(1.24696e-05 1.71358e-05 0.108696)
(-1.24695e-05 1.71768e-05 0.108695)
(-8.33816e-05 8.33756e-05 0.10638)
(6.44342e-05 -6.43926e-05 0.106556)
(2.58168e-05 1.78237e-05 0.10869)
(2.5857e-05 -1.78928e-05 0.108689)
(1.709e-05 1.23749e-05 0.108696)
(1.71377e-05 -1.24539e-05 0.108695)
(-2.58679e-05 -1.79042e-05 0.108689)
(-1.70604e-05 1.23593e-05 0.108697)
(-1.71506e-05 -1.24681e-05 0.108695)
(8.3346e-05 -8.34585e-05 0.106379)
(-6.44203e-05 6.44029e-05 0.106555)
(-1.78027e-05 -2.58271e-05 0.10869)
(1.23503e-05 -1.70967e-05 0.108696)
(-1.23684e-05 -1.71018e-05 0.108696)
(6.43868e-05 6.43772e-05 0.106555)
(7.55585e-05 7.54774e-05 0.106353)
(-6.91423e-05 -6.91099e-05 0.106536)
(1.13053e-05 1.51893e-05 0.108696)
(-1.13129e-05 1.52313e-05 0.108696)
(8.2889e-06 1.01214e-05 0.108694)
(-8.28817e-06 1.01415e-05 0.108694)
(-7.55172e-05 7.54938e-05 0.106353)
(6.91509e-05 -6.91249e-05 0.106537)
(1.51432e-05 1.12091e-05 0.108697)
(1.51961e-05 -1.12939e-05 0.108696)
(1.00359e-05 8.1909e-06 0.108695)
(1.01266e-05 -8.27838e-06 0.108694)
(-1.52061e-05 -1.13065e-05 0.108696)
(-1.003e-05 8.19083e-06 0.108696)
(-1.01165e-05 -8.27574e-06 0.108694)
(7.54773e-05 -7.55862e-05 0.106353)
(-6.91246e-05 6.9145e-05 0.106536)
(-1.12068e-05 -1.51546e-05 0.108697)
(8.18074e-06 -1.00427e-05 0.108695)
(-8.17856e-06 -1.00477e-05 0.108695)
(6.91137e-05 6.91189e-05 0.106535)
(7.06984e-05 7.06637e-05 0.106334)
(-7.20017e-05 -7.19636e-05 0.106522)
(7.35632e-06 8.58452e-06 0.108693)
(-7.36438e-06 8.6053e-06 0.108693)
(5.10706e-06 4.90014e-06 0.108688)
(-5.11914e-06 4.92633e-06 0.108688)
(-7.06876e-05 7.06474e-05 0.106334)
(7.20025e-05 -7.19768e-05 0.106523)
(8.50138e-06 7.25978e-06 0.108694)
(8.59322e-06 -7.34828e-06 0.108692)
(4.81824e-06 5.02185e-06 0.108689)
(4.90824e-06 -5.10131e-06 0.108688)
(-8.58159e-06 -7.34227e-06 0.108693)
(-4.81547e-06 5.02638e-06 0.10869)
(-4.90613e-06 -5.08939e-06 0.108688)
(7.0663e-05 -7.07289e-05 0.106334)
(-7.1971e-05 7.20044e-05 0.106522)
(-7.24963e-06 -8.50677e-06 0.108694)
(5.01757e-06 -4.81438e-06 0.108689)
(-5.01245e-06 -4.81402e-06 0.108689)
(7.19552e-05 7.19856e-05 0.106521)
(6.78484e-05 6.78175e-05 0.106321)
(-7.28946e-05 -7.28466e-05 0.106516)
(4.55208e-06 3.99044e-06 0.108687)
(-4.56718e-06 4.01837e-06 0.108687)
(3.51118e-06 2.25622e-06 0.108684)
(-3.5228e-06 2.2809e-06 0.108683)
(-6.78434e-05 6.78046e-05 0.106322)
(7.2899e-05 -7.28646e-05 0.106517)
(3.91092e-06 4.4685e-06 0.108688)
(3.99821e-06 -4.54735e-06 0.108686)
(2.16321e-06 3.43243e-06 0.108684)
(2.25588e-06 -3.50419e-06 0.108683)
(-3.99738e-06 -4.5333e-06 0.108687)
(-2.1606e-06 3.43395e-06 0.108685)
(-2.25492e-06 -3.49273e-06 0.108683)
(6.78223e-05 -6.78794e-05 0.106321)
(-7.2864e-05 7.2896e-05 0.106515)
(-4.45904e-06 -3.90094e-06 0.108687)
(3.42412e-06 -2.16053e-06 0.108684)
(-3.41981e-06 -2.15879e-06 0.108684)
(7.28443e-05 7.28772e-05 0.106515)
(6.70481e-05 6.70276e-05 0.106316)
(-7.29778e-05 -7.29466e-05 0.106514)
(3.33341e-06 1.9452e-06 0.108683)
(-3.34044e-06 1.96981e-06 0.108683)
(3.07459e-06 1.59261e-06 0.108681)
(-3.06836e-06 1.61507e-06 0.108681)
(-6.70367e-05 6.70066e-05 0.106316)
(7.30001e-05 -7.29714e-05 0.106515)
(1.85791e-06 3.25255e-06 0.108684)
(1.94333e-06 -3.31947e-06 0.108682)
(1.51052e-06 2.98916e-06 0.108682)
(1.59248e-06 -3.04509e-06 0.108681)
(-1.94563e-06 -3.31535e-06 0.108683)
(-1.49431e-06 2.98014e-06 0.108683)
(-1.59021e-06 -3.04626e-06 0.108681)
(6.70218e-05 -6.70778e-05 0.106316)
(-7.29695e-05 7.29984e-05 0.106513)
(-3.24065e-06 -1.85129e-06 0.108683)
(2.96896e-06 -1.49675e-06 0.108682)
(-2.96809e-06 -1.49967e-06 0.108682)
(7.29468e-05 7.29698e-05 0.106513)
(6.69709e-05 6.69317e-05 0.106314)
(-7.29423e-05 -7.29136e-05 0.106513)
(3.04008e-06 1.55037e-06 0.108681)
(-3.03503e-06 1.57595e-06 0.108681)
(3.0004e-06 1.50909e-06 0.108681)
(-3.00549e-06 1.53924e-06 0.108681)
(-6.69427e-05 6.69062e-05 0.106314)
(7.29594e-05 -7.29244e-05 0.106514)
(1.47432e-06 2.95318e-06 0.108682)
(1.55474e-06 -3.01272e-06 0.108681)
(1.43424e-06 2.91257e-06 0.108682)
(1.51698e-06 -2.98486e-06 0.10868)
(-1.54888e-06 -3.00941e-06 0.108681)
(-1.4157e-06 2.91646e-06 0.108682)
(-1.50991e-06 -2.96751e-06 0.108681)
(6.6924e-05 -6.69838e-05 0.106314)
(-7.29182e-05 7.29521e-05 0.106513)
(-2.93081e-06 -1.45711e-06 0.108682)
(2.91217e-06 -1.4222e-06 0.108682)
(-2.88844e-06 -1.41808e-06 0.108681)
(7.29136e-05 7.29391e-05 0.106513)
(6.70038e-05 6.69657e-05 0.106314)
(-7.29371e-05 -7.29007e-05 0.106513)
(2.99558e-06 1.50735e-06 0.108681)
(-3.00514e-06 1.53695e-06 0.108681)
(2.98235e-06 1.5034e-06 0.108681)
(-3.0034e-06 1.53501e-06 0.10868)
(-6.6985e-05 6.69541e-05 0.106314)
(7.29413e-05 -7.29082e-05 0.106514)
(1.43193e-06 2.9062e-06 0.108682)
(1.51581e-06 -2.98462e-06 0.10868)
(1.42071e-06 2.89928e-06 0.108681)
(1.5114e-06 -2.98068e-06 0.10868)
(-1.50617e-06 -2.96461e-06 0.108681)
(-1.40775e-06 2.91408e-06 0.108682)
(-1.50083e-06 -2.96423e-06 0.10868)
(6.69754e-05 -6.70299e-05 0.106314)
(-7.29049e-05 7.29372e-05 0.106513)
(-2.88602e-06 -1.41308e-06 0.108681)
(2.90457e-06 -1.41174e-06 0.108681)
(-2.88662e-06 -1.4118e-06 0.108681)
(7.28979e-05 7.29183e-05 0.106513)
(6.70074e-05 6.6976e-05 0.106314)
(-7.29325e-05 -7.28967e-05 0.106513)
(2.98235e-06 1.50436e-06 0.108681)
(-3.00124e-06 1.53434e-06 0.10868)
(2.98514e-06 1.50673e-06 0.108681)
(-2.99995e-06 1.53514e-06 0.10868)
(-6.69979e-05 6.69641e-05 0.106314)
(7.29404e-05 -7.29116e-05 0.106514)
(1.42244e-06 2.89664e-06 0.108681)
(1.51082e-06 -2.97983e-06 0.10868)
(1.42357e-06 2.89925e-06 0.108681)
(1.51066e-06 -2.98151e-06 0.10868)
(-1.50036e-06 -2.96579e-06 0.10868)
(-1.41005e-06 2.90793e-06 0.108682)
(-1.50208e-06 -2.97106e-06 0.10868)
(6.69823e-05 -6.70405e-05 0.106314)
(-7.29087e-05 7.29309e-05 0.106513)
(-2.88599e-06 -1.41239e-06 0.108681)
(2.89613e-06 -1.42095e-06 0.108681)
(-2.88469e-06 -1.42184e-06 0.108681)
(7.28974e-05 7.2911e-05 0.106512)
(6.70117e-05 6.6979e-05 0.106314)
(-7.29211e-05 -7.28925e-05 0.106513)
(2.98596e-06 1.5048e-06 0.108681)
(-2.9998e-06 1.53412e-06 0.10868)
(2.99046e-06 1.5049e-06 0.108681)
(-3.00443e-06 1.53361e-06 0.10868)
(-6.69978e-05 6.69582e-05 0.106314)
(7.29293e-05 -7.29065e-05 0.106514)
(1.42737e-06 2.8972e-06 0.108681)
(1.51046e-06 -2.98192e-06 0.10868)
(1.42663e-06 2.8971e-06 0.108681)
(1.51249e-06 -2.98271e-06 0.10868)
(-1.50207e-06 -2.97265e-06 0.10868)
(-1.41457e-06 2.90372e-06 0.108682)
(-1.50677e-06 -2.97475e-06 0.10868)
(6.69776e-05 -6.70456e-05 0.106314)
(-7.29003e-05 7.29228e-05 0.106513)
(-2.88483e-06 -1.42321e-06 0.108681)
(2.8956e-06 -1.42554e-06 0.108681)
(-2.88785e-06 -1.42575e-06 0.108681)
(7.28848e-05 7.29022e-05 0.106512)
(6.70207e-05 6.69847e-05 0.106314)
(-7.29193e-05 -7.28968e-05 0.106513)
(2.99171e-06 1.50389e-06 0.108681)
(-3.00601e-06 1.53253e-06 0.10868)
(2.98819e-06 1.50023e-06 0.108681)
(-3.00838e-06 1.531e-06 0.10868)
(-6.7008e-05 6.69618e-05 0.106314)
(7.29248e-05 -7.29066e-05 0.106514)
(1.42943e-06 2.89635e-06 0.108681)
(1.51295e-06 -2.98315e-06 0.10868)
(1.42639e-06 2.89414e-06 0.108681)
(1.51091e-06 -2.98008e-06 0.10868)
(-1.50712e-06 -2.97679e-06 0.10868)
(-1.41664e-06 2.90162e-06 0.108682)
(-1.51e-06 -2.97412e-06 0.10868)
(6.69856e-05 -6.70516e-05 0.106314)
(-7.29013e-05 7.29229e-05 0.106513)
(-2.89147e-06 -1.42364e-06 0.108681)
(2.89403e-06 -1.42207e-06 0.108681)
(-2.89379e-06 -1.4221e-06 0.108681)
(7.28786e-05 7.29014e-05 0.106512)
(6.70259e-05 6.6987e-05 0.106314)
(-7.2937e-05 -7.29147e-05 0.106513)
(2.98657e-06 1.49923e-06 0.108681)
(-3.00694e-06 1.52948e-06 0.10868)
(2.98848e-06 1.49724e-06 0.108681)
(-3.01186e-06 1.53101e-06 0.10868)
(-6.7016e-05 6.69653e-05 0.106314)
(7.29433e-05 -7.2921e-05 0.106514)
(1.42724e-06 2.89106e-06 0.108681)
(1.50905e-06 -2.98005e-06 0.10868)
(1.42425e-06 2.89896e-06 0.108681)
(1.50288e-06 -2.98422e-06 0.10868)
(-1.50801e-06 -2.97282e-06 0.10868)
(-1.41538e-06 2.90301e-06 0.108682)
(-1.50612e-06 -2.97388e-06 0.10868)
(6.69874e-05 -6.70563e-05 0.106314)
(-7.29227e-05 7.29352e-05 0.106513)
(-2.89278e-06 -1.41901e-06 0.108681)
(2.891e-06 -1.42376e-06 0.108681)
(-2.89645e-06 -1.41798e-06 0.108681)
(7.28903e-05 7.29194e-05 0.106512)
(6.70119e-05 6.69756e-05 0.106314)
(-7.29281e-05 -7.29079e-05 0.106513)
(2.98619e-06 1.49798e-06 0.108681)
(-3.00721e-06 1.53144e-06 0.10868)
(2.98694e-06 1.50085e-06 0.108681)
(-3.00161e-06 1.53348e-06 0.10868)
(-6.70031e-05 6.69552e-05 0.106314)
(7.29413e-05 -7.29128e-05 0.106514)
(1.42528e-06 2.89571e-06 0.108681)
(1.50115e-06 -2.98183e-06 0.10868)
(1.4247e-06 2.90072e-06 0.108681)
(1.50114e-06 -2.97649e-06 0.10868)
(-1.50004e-06 -2.96996e-06 0.10868)
(-1.40918e-06 2.89866e-06 0.108682)
(-1.49894e-06 -2.96357e-06 0.10868)
(6.69696e-05 -6.70473e-05 0.106314)
(-7.29157e-05 7.29346e-05 0.106513)
(-2.89372e-06 -1.41138e-06 0.108681)
(2.88837e-06 -1.42056e-06 0.108681)
(-2.89075e-06 -1.41166e-06 0.108681)
(7.28855e-05 7.29186e-05 0.106512)
(6.7013e-05 6.69818e-05 0.106314)
(-7.29318e-05 -7.29049e-05 0.106513)
(2.99146e-06 1.50696e-06 0.108681)
(-3.00199e-06 1.52656e-06 0.10868)
(2.98427e-06 1.49614e-06 0.108681)
(-3.00733e-06 1.53451e-06 0.10868)
(-6.7002e-05 6.69519e-05 0.106314)
(7.29305e-05 -7.29002e-05 0.106514)
(1.42478e-06 2.90331e-06 0.108681)
(1.50187e-06 -2.97702e-06 0.10868)
(1.41898e-06 2.90078e-06 0.108681)
(1.50636e-06 -2.97839e-06 0.10868)
(-1.50117e-06 -2.96461e-06 0.10868)
(-1.40913e-06 2.91425e-06 0.108682)
(-1.5049e-06 -2.96362e-06 0.10868)
(6.69689e-05 -6.70386e-05 0.106314)
(-7.29042e-05 7.29329e-05 0.106513)
(-2.89128e-06 -1.41174e-06 0.108681)
(2.89727e-06 -1.41444e-06 0.108681)
(-2.88919e-06 -1.41427e-06 0.108681)
(7.28862e-05 7.29123e-05 0.106512)
(6.70103e-05 6.69865e-05 0.106314)
(-7.29292e-05 -7.29025e-05 0.106513)
(2.98482e-06 1.50412e-06 0.108681)
(-3.00864e-06 1.53752e-06 0.10868)
(2.98673e-06 1.49818e-06 0.108681)
(-2.99553e-06 1.52704e-06 0.10868)
(-6.70128e-05 6.6974e-05 0.106314)
(7.29364e-05 -7.291e-05 0.106514)
(1.42141e-06 2.90051e-06 0.108681)
(1.50697e-06 -2.97889e-06 0.10868)
(1.42187e-06 2.90286e-06 0.108681)
(1.50923e-06 -2.97961e-06 0.10868)
(-1.50376e-06 -2.9648e-06 0.10868)
(-1.40881e-06 2.90679e-06 0.108682)
(-1.50301e-06 -2.96699e-06 0.10868)
(6.69815e-05 -6.70422e-05 0.106314)
(-7.29029e-05 7.293e-05 0.106513)
(-2.88932e-06 -1.41249e-06 0.108681)
(2.89774e-06 -1.41399e-06 0.108681)
(-2.88882e-06 -1.41548e-06 0.108681)
(7.28859e-05 7.29079e-05 0.106512)
(6.70123e-05 6.6987e-05 0.106314)
(-7.29309e-05 -7.29057e-05 0.106513)
(2.98871e-06 1.50353e-06 0.108681)
(-2.99936e-06 1.52884e-06 0.10868)
(2.98861e-06 1.49638e-06 0.108681)
(-2.99771e-06 1.52742e-06 0.10868)
(-6.70028e-05 6.69584e-05 0.106314)
(7.29388e-05 -7.29127e-05 0.106514)
(1.42599e-06 2.90353e-06 0.108681)
(1.51059e-06 -2.9829e-06 0.10868)
(1.42394e-06 2.90351e-06 0.108681)
(1.50882e-06 -2.98289e-06 0.10868)
(-1.50405e-06 -2.97117e-06 0.10868)
(-1.40869e-06 2.9073e-06 0.108682)
(-1.5031e-06 -2.97395e-06 0.10868)
(6.69819e-05 -6.70452e-05 0.106314)
(-7.29072e-05 7.29297e-05 0.106512)
(-2.89189e-06 -1.41707e-06 0.108681)
(2.89887e-06 -1.41599e-06 0.108681)
(-2.89278e-06 -1.4188e-06 0.108681)
(7.28938e-05 7.29136e-05 0.106512)
(6.70069e-05 6.69808e-05 0.106314)
(-7.291e-05 -7.28844e-05 0.106513)
(2.98775e-06 1.50096e-06 0.108681)
(-2.99811e-06 1.52698e-06 0.10868)
(2.98357e-06 1.49627e-06 0.108681)
(-2.99476e-06 1.5256e-06 0.10868)
(-6.70014e-05 6.69566e-05 0.106314)
(7.29195e-05 -7.28963e-05 0.106513)
(1.42722e-06 2.90292e-06 0.108681)
(1.50897e-06 -2.98349e-06 0.10868)
(1.42425e-06 2.90046e-06 0.108681)
(1.50842e-06 -2.97955e-06 0.10868)
(-1.5032e-06 -2.97362e-06 0.10868)
(-1.41214e-06 2.90368e-06 0.108682)
(-1.50492e-06 -2.96951e-06 0.10868)
(6.69762e-05 -6.70439e-05 0.106314)
(-7.28886e-05 7.29088e-05 0.106512)
(-2.89249e-06 -1.41768e-06 0.108681)
(2.89362e-06 -1.41749e-06 0.108681)
(-2.88924e-06 -1.41927e-06 0.108681)
(7.28746e-05 7.28958e-05 0.106512)
(6.70183e-05 6.69934e-05 0.106314)
(-7.28979e-05 -7.28702e-05 0.106513)
(2.99054e-06 1.50312e-06 0.108681)
(-3.00242e-06 1.52707e-06 0.10868)
(2.98005e-06 1.49384e-06 0.10868)
(-2.99165e-06 1.52118e-06 0.10868)
(-6.70123e-05 6.69649e-05 0.106314)
(7.29075e-05 -7.28856e-05 0.106514)
(1.4282e-06 2.90785e-06 0.108681)
(1.50959e-06 -2.98723e-06 0.10868)
(1.42169e-06 2.89866e-06 0.108681)
(1.5053e-06 -2.97657e-06 0.10868)
(-1.50647e-06 -2.97819e-06 0.10868)
(-1.414e-06 2.90103e-06 0.108682)
(-1.50251e-06 -2.96236e-06 0.10868)
(6.69859e-05 -6.70555e-05 0.106314)
(-7.2877e-05 7.28963e-05 0.106513)
(-2.89816e-06 -1.41927e-06 0.108681)
(2.88976e-06 -1.41616e-06 0.108681)
(-2.88324e-06 -1.41593e-06 0.108681)
(7.28513e-05 7.28732e-05 0.106512)
(6.70585e-05 6.70351e-05 0.106314)
(-7.29535e-05 -7.2924e-05 0.106513)
(2.97968e-06 1.50263e-06 0.10868)
(-2.99237e-06 1.5237e-06 0.10868)
(3.00112e-06 1.5101e-06 0.10868)
(-3.01225e-06 1.53683e-06 0.10868)
(-6.70517e-05 6.70028e-05 0.106314)
(7.2963e-05 -7.29383e-05 0.106514)
(1.42636e-06 2.89851e-06 0.108681)
(1.50808e-06 -2.97739e-06 0.10868)
(1.43807e-06 2.92103e-06 0.108681)
(1.52145e-06 -2.99806e-06 0.10868)
(-1.50588e-06 -2.96569e-06 0.10868)
(-1.43029e-06 2.9241e-06 0.108682)
(-1.51769e-06 -2.98581e-06 0.10868)
(6.70254e-05 -6.70957e-05 0.106314)
(-7.29306e-05 7.29511e-05 0.106513)
(-2.88671e-06 -1.41704e-06 0.108681)
(2.91197e-06 -1.43136e-06 0.108681)
(-2.90631e-06 -1.43247e-06 0.108681)
(7.29038e-05 7.29259e-05 0.106512)
(6.70362e-05 6.7014e-05 0.106314)
(-7.29533e-05 -7.29244e-05 0.106513)
(2.98812e-06 1.51596e-06 0.10868)
(-3.00095e-06 1.53754e-06 0.10868)
(3.01737e-06 1.53389e-06 0.108681)
(-3.03057e-06 1.56073e-06 0.10868)
(-6.70298e-05 6.69834e-05 0.106314)
(7.29672e-05 -7.29416e-05 0.106514)
(1.44178e-06 2.90742e-06 0.108681)
(1.52221e-06 -2.98667e-06 0.10868)
(1.46234e-06 2.93889e-06 0.108681)
(1.54511e-06 -3.01612e-06 0.10868)
(-1.51898e-06 -2.97434e-06 0.10868)
(-1.45226e-06 2.94289e-06 0.108682)
(-1.54173e-06 -3.00642e-06 0.10868)
(6.70054e-05 -6.70745e-05 0.106314)
(-7.29318e-05 7.29535e-05 0.106512)
(-2.89424e-06 -1.43153e-06 0.108681)
(2.93115e-06 -1.45477e-06 0.108681)
(-2.92635e-06 -1.45648e-06 0.108681)
(7.29116e-05 7.29343e-05 0.106512)
(6.70161e-05 6.69936e-05 0.106314)
(3.02471e-06 1.54803e-06 0.108681)
(-3.03612e-06 1.56969e-06 0.10868)
(-6.70064e-05 6.69609e-05 0.106314)
(1.47604e-06 2.94536e-06 0.108681)
(1.55561e-06 -3.02294e-06 0.10868)
(-1.5514e-06 -3.01208e-06 0.10868)
(6.69843e-05 -6.70526e-05 0.106314)
(-2.93205e-06 -1.46596e-06 0.108681)
(6.11694e-05 6.1205e-05 0.108853)
(-6.11904e-05 6.11811e-05 0.108853)
(6.11815e-05 -6.11808e-05 0.108853)
(-6.11974e-05 -6.11984e-05 0.108853)
(1.82016e-06 2.12237e-05 0.0940169)
(-1.5251e-06 1.95288e-05 0.0835876)
(1.93263e-06 4.40437e-05 0.0940742)
(-4.18022e-06 1.97287e-07 0.0835693)
(-2.00479e-06 6.8213e-06 0.0721729)
(3.92345e-06 -1.5851e-06 0.0721797)
(2.12216e-05 1.81267e-06 0.094016)
(1.95815e-05 -1.51962e-06 0.0835882)
(4.41305e-05 1.94252e-06 0.0940747)
(1.55532e-07 -4.17564e-06 0.0835687)
(-6.07243e-05 6.07154e-05 0.108929)
(6.07188e-05 -6.07131e-05 0.108928)
(-6.07335e-05 -6.07327e-05 0.108929)
(5.97321e-05 5.97617e-05 0.109152)
(-5.97568e-05 5.97435e-05 0.109152)
(5.97532e-05 -5.97497e-05 0.109152)
(-5.97644e-05 -5.97665e-05 0.109152)
(-6.14155e-05 4.33426e-06 0.102461)
(-6.06349e-05 1.64098e-05 0.0957188)
(-0.00010095 1.86207e-05 0.10862)
(-9.65381e-05 5.93756e-05 0.108021)
(-0.000105154 4.66982e-06 0.102453)
(-2.8607e-05 4.72401e-06 0.0957168)
(-0.000100561 1.84787e-05 0.108686)
(6.73908e-06 -1.95025e-06 0.0721702)
(-1.49023e-06 3.85895e-06 0.0721819)
(4.29194e-06 -6.14845e-05 0.102461)
(1.86022e-05 -0.000100886 0.10862)
(1.64555e-05 -6.06345e-05 0.0957197)
(5.93576e-05 -9.65293e-05 0.108021)
(4.65105e-06 -0.000105225 0.102452)
(1.84568e-05 -0.000100505 0.108686)
(4.69817e-06 -2.84892e-05 0.0957151)
(-2.88538e-05 -1.26786e-05 0.0893993)
(-1.26457e-05 -2.88608e-05 0.0893975)
(6.68027e-06 6.7066e-06 0.106799)
(-1.82699e-05 -5.09795e-07 0.0893684)
(-4.66099e-07 -1.82755e-05 0.0893658)
(1.58259e-06 1.70642e-05 0.0937165)
(-4.12111e-07 1.78458e-05 0.0833649)
(1.52589e-06 3.9755e-05 0.0937636)
(-3.07667e-06 -2.08171e-06 0.0833539)
(-2.14225e-06 6.32779e-06 0.0720219)
(2.87236e-06 -2.31191e-06 0.0720323)
(1.69979e-05 1.60125e-06 0.0937156)
(1.78933e-05 -4.17523e-07 0.0833655)
(3.97944e-05 1.541e-06 0.0937641)
(-2.11445e-06 -3.07638e-06 0.0833533)
(-5.9375e-05 5.93565e-05 0.109226)
(5.93641e-05 -5.93722e-05 0.109226)
(-5.93799e-05 -5.93865e-05 0.109226)
(5.77161e-05 5.77308e-05 0.109442)
(-5.77203e-05 5.77119e-05 0.109442)
(5.77291e-05 -5.77167e-05 0.109442)
(-5.77399e-05 -5.77142e-05 0.109442)
(-5.44441e-05 3.42103e-06 0.10219)
(-5.64149e-05 1.47312e-05 0.0954276)
(-9.98492e-05 1.80667e-05 0.108878)
(-9.40366e-05 5.83249e-05 0.108193)
(-9.78354e-05 3.78805e-06 0.102184)
(-2.44103e-05 3.50114e-06 0.095431)
(-9.93534e-05 1.78646e-05 0.10894)
(6.24511e-06 -2.08355e-06 0.0720192)
(-2.2248e-06 2.81941e-06 0.0720343)
(3.47383e-06 -5.43936e-05 0.102189)
(1.80386e-05 -9.98482e-05 0.108878)
(1.47629e-05 -5.63857e-05 0.0954284)
(5.82794e-05 -9.4023e-05 0.108193)
(3.8001e-06 -9.78132e-05 0.102183)
(1.78491e-05 -9.93487e-05 0.108939)
(3.47399e-06 -2.43692e-05 0.0954294)
(-2.66334e-05 -1.18298e-05 0.0891475)
(-1.17767e-05 -2.66309e-05 0.0891457)
(8.948e-06 8.96585e-06 0.106823)
(-1.56406e-05 -2.48082e-07 0.0891245)
(-2.60143e-07 -1.56287e-05 0.0891219)
(8.83485e-07 1.38396e-05 0.0934503)
(-2.29518e-06 1.74276e-05 0.0831649)
(1.24946e-06 3.50704e-05 0.0934858)
(-4.16841e-06 -1.42138e-06 0.0831634)
(-9.32183e-07 7.18458e-06 0.0718854)
(5.03101e-06 -1.46332e-06 0.0719014)
(1.37792e-05 8.94753e-07 0.0934495)
(1.74727e-05 -2.29921e-06 0.0831656)
(3.51096e-05 1.24763e-06 0.0934862)
(-1.4653e-06 -4.16344e-06 0.0831628)
(-5.72678e-05 5.72608e-05 0.109513)
(5.72753e-05 -5.7267e-05 0.109513)
(-5.72854e-05 -5.72638e-05 0.109513)
(5.54087e-05 5.54307e-05 0.10972)
(-5.54111e-05 5.54118e-05 0.10972)
(5.5415e-05 -5.54168e-05 0.10972)
(-5.54349e-05 -5.5413e-05 0.10972)
(-4.72418e-05 2.87464e-06 0.101919)
(-5.16679e-05 1.34095e-05 0.0951571)
(-9.76886e-05 1.74248e-05 0.10912)
(-9.09773e-05 5.70165e-05 0.108346)
(-8.93705e-05 3.13834e-06 0.101912)
(-2.11389e-05 2.07426e-06 0.0951666)
(-9.73297e-05 1.73063e-05 0.109179)
(7.10229e-06 -8.71808e-07 0.0718825)
(-1.36887e-06 4.93884e-06 0.0719033)
(2.91016e-06 -4.72105e-05 0.101919)
(1.74323e-05 -9.76859e-05 0.10912)
(1.34326e-05 -5.17043e-05 0.0951579)
(5.69888e-05 -9.09723e-05 0.108346)
(3.17925e-06 -8.93538e-05 0.101911)
(1.73138e-05 -9.73253e-05 0.109178)
(2.05321e-06 -2.1087e-05 0.0951651)
(-2.45349e-05 -1.02933e-05 0.0889179)
(-1.02861e-05 -2.45324e-05 0.0889162)
(1.12498e-05 1.12923e-05 0.106822)
(-1.43415e-05 1.31226e-06 0.088904)
(1.31071e-06 -1.43466e-05 0.0889015)
(8.93247e-07 9.10427e-06 0.0932063)
(4.75699e-07 1.38781e-05 0.0829867)
(6.9622e-07 3.19522e-05 0.0932317)
(-1.45249e-06 -6.09367e-06 0.0829949)
(-2.5979e-06 5.27411e-06 0.0717642)
(2.01148e-06 -3.47493e-06 0.0717867)
(9.05417e-06 9.28376e-07 0.0932054)
(1.39536e-05 5.16335e-07 0.0829874)
(3.19858e-05 7.34101e-07 0.0932321)
(-6.14189e-06 -1.42838e-06 0.0829944)
(-5.43106e-05 5.43108e-05 0.109787)
(5.43127e-05 -5.43096e-05 0.109787)
(-5.43285e-05 -5.43039e-05 0.109787)
(5.02592e-05 5.02824e-05 0.109978)
(-5.02786e-05 5.02767e-05 0.109978)
(5.02695e-05 -5.02677e-05 0.109978)
(-5.02941e-05 -5.02589e-05 0.109978)
(-3.75965e-05 1.78824e-06 0.101651)
(-4.7085e-05 1.14759e-05 0.0949108)
(-9.4523e-05 1.63878e-05 0.109346)
(-8.48595e-05 5.35054e-05 0.108476)
(-8.06188e-05 2.19956e-06 0.101645)