/*--------------------------------*- C++ -*----------------------------------*\
| =========                 |                                                 |
| \\      /  F ield         | OpenFOAM: The Open Source CFD Toolbox           |
|  \\    /   O peration     | Version:  v1906                                 |
|   \\  /    A nd           | Web:      www.OpenFOAM.com                      |
|    \\/     M anipulation  |                                                 |
\*---------------------------------------------------------------------------*/
FoamFile
{
    version     2.0;
    format      ascii;
    class       volScalarField;
    location    "650";
    object      epsilon;
}
// * * * * * * * * * * * * * * * * * * * * * * * * * * * * * * * * * * * * * //

dimensions      [0 2 -3 0 0 0 0];


internalField   nonuniform List<scalar> 
42840
(
6.51837e-07
1.18286e-06
1.18292e-06
1.41518e-06
1.4181e-06
1.41516e-06
1.4159e-06
1.18292e-06
1.18295e-06
1.18524e-06
1.18527e-06
1.4151e-06
1.41586e-06
1.18284e-06
1.18297e-06
1.18516e-06
1.18529e-06
1.18299e-06
1.18518e-06
1.18531e-06
1.41517e-06
1.41593e-06
1.18289e-06
1.18524e-06
1.18522e-06
1.41595e-06
1.18603e-06
1.18594e-06
4.2363e-06
9.54907e-06
9.55422e-06
4.23572e-06
1.90609e-05
1.90714e-05
4.23647e-06
9.5511e-06
9.55625e-06
4.23582e-06
6.51843e-07
6.51942e-07
6.51928e-07
6.56494e-07
6.56502e-07
6.56599e-07
6.56588e-07
2.29406e-06
3.64447e-06
9.29871e-07
1.18366e-06
3.64492e-06
9.30977e-07
2.29374e-06
1.90618e-05
1.90724e-05
2.29401e-06
9.29922e-07
3.64446e-06
1.18372e-06
9.31028e-07
3.64495e-06
2.29372e-06
5.64517e-06
5.6471e-06
1.41451e-06
5.64626e-06
5.64819e-06
5.64953e-06
5.65147e-06
1.90593e-05
1.90698e-05
1.90617e-05
1.90722e-05
5.64505e-06
5.64694e-06
1.41445e-06
5.64614e-06
5.64806e-06
1.90808e-05
1.90705e-05
1.90832e-05
1.90729e-05
1.41666e-06
5.64833e-06
5.65023e-06
5.64727e-06
5.64917e-06
4.23641e-06
9.55022e-06
9.55527e-06
4.23583e-06
2.29391e-06
3.64423e-06
9.29792e-07
1.18372e-06
3.64473e-06
9.30901e-07
2.29365e-06
2.29398e-06
3.64477e-06
9.29833e-07
1.18375e-06
3.64525e-06
9.3094e-07
2.29372e-06
4.23705e-06
9.56e-06
9.55494e-06
4.23758e-06
4.23716e-06
9.56101e-06
9.55629e-06
4.23769e-06
2.29449e-06
1.18451e-06
3.64599e-06
9.33012e-07
3.64553e-06
9.31989e-07
2.2947e-06
2.29456e-06
1.18454e-06
3.64651e-06
9.33051e-07
3.64608e-06
9.32028e-07
2.29476e-06
5.64687e-06
5.64523e-06
1.41442e-06
5.64794e-06
5.6462e-06
1.90586e-05
1.90692e-05
1.90824e-05
1.90721e-05
1.41661e-06
5.65011e-06
5.64838e-06
5.64909e-06
5.64745e-06
1.90802e-05
1.90698e-05
2.29409e-06
3.64501e-06
9.29864e-07
1.18363e-06
3.64545e-06
9.30991e-07
2.29377e-06
4.23636e-06
9.55066e-06
9.55545e-06
4.23573e-06
2.29399e-06
9.29887e-07
3.64485e-06
1.18377e-06
9.30995e-07
3.64528e-06
2.29372e-06
4.23714e-06
9.56203e-06
9.55697e-06
4.23775e-06
2.2946e-06
1.18443e-06
3.64671e-06
9.33101e-07
3.64631e-06
9.32058e-07
2.29487e-06
4.23707e-06
9.56122e-06
9.55653e-06
4.23765e-06
2.29456e-06
1.18456e-06
9.33106e-07
3.64654e-06
9.32083e-07
3.64616e-06
2.29477e-06
4.23649e-06
9.55023e-06
9.55544e-06
4.2359e-06
2.29397e-06
9.29886e-07
3.64436e-06
1.18378e-06
9.30991e-07
3.64484e-06
2.2937e-06
4.23638e-06
9.55036e-06
9.55515e-06
4.23582e-06
2.29458e-06
1.18445e-06
3.64618e-06
9.33088e-07
3.64578e-06
9.32065e-07
2.29484e-06
4.23723e-06
9.56119e-06
9.55614e-06
4.23778e-06
2.29454e-06
1.18458e-06
9.331e-07
3.6461e-06
9.32082e-07
3.64566e-06
2.29475e-06
4.23715e-06
9.56093e-06
9.55621e-06
4.23766e-06
5.64699e-06
5.64519e-06
1.41449e-06
5.64797e-06
5.6463e-06
1.90605e-05
1.9071e-05
1.90834e-05
1.9073e-05
1.41668e-06
5.65015e-06
5.64848e-06
5.64922e-06
5.64741e-06
1.90821e-05
1.90717e-05
2.29403e-06
9.29931e-07
3.64498e-06
1.1837e-06
9.31036e-07
3.64546e-06
2.29376e-06
4.23638e-06
9.55043e-06
9.55559e-06
4.2358e-06
4.23642e-06
9.55116e-06
9.55632e-06
4.23581e-06
2.29453e-06
1.18451e-06
9.33137e-07
3.6462e-06
9.32115e-07
3.64576e-06
2.29479e-06
2.2946e-06
1.18449e-06
9.33147e-07
3.64672e-06
9.32125e-07
3.64629e-06
2.29481e-06
4.23713e-06
9.56134e-06
9.5563e-06
4.23767e-06
4.23713e-06
9.5621e-06
9.55703e-06
4.23771e-06
1.90604e-05
1.90709e-05
1.90623e-05
1.90727e-05
1.4167e-06
5.64843e-06
5.65037e-06
5.64738e-06
5.64932e-06
1.90819e-05
1.90716e-05
1.90838e-05
1.90734e-05
9.34111e-07
3.64689e-06
2.29528e-06
9.56198e-06
4.23841e-06
3.64752e-06
9.56278e-06
1.90826e-05
1.90844e-05
1.26403e-05
1.12331e-05
4.88158e-06
4.2364e-06
1.12301e-05
4.88173e-06
1.26428e-05
2.27379e-05
9.5513e-06
7.23777e-06
7.23741e-06
2.27308e-05
2.27372e-05
7.23868e-06
9.55202e-06
7.23906e-06
2.27443e-05
1.2639e-05
4.23563e-06
1.12267e-05
4.88099e-06
1.12296e-05
4.88084e-06
1.26364e-05
1.90658e-05
1.90665e-05
1.26401e-05
4.88192e-06
1.12338e-05
4.23649e-06
4.88195e-06
1.12308e-05
1.26437e-05
2.27379e-05
9.55334e-06
7.23922e-06
7.23904e-06
2.27309e-05
2.27374e-05
7.24032e-06
9.55405e-06
7.24051e-06
2.27443e-05
1.26399e-05
4.23579e-06
4.88122e-06
1.12274e-05
4.88116e-06
1.12302e-05
1.26362e-05
1.90668e-05
1.90674e-05
9.95767e-06
2.23738e-05
2.2373e-05
2.23675e-05
2.23667e-05
9.95733e-06
4.70056e-06
2.97314e-06
5.64514e-06
9.91386e-06
2.97297e-06
9.91635e-06
4.70089e-06
4.7063e-06
2.97433e-06
5.64708e-06
9.91894e-06
2.97417e-06
9.9209e-06
4.70663e-06
4.70161e-06
9.91932e-06
5.64628e-06
2.97339e-06
2.97356e-06
9.91678e-06
4.70127e-06
4.70734e-06
9.92378e-06
5.64822e-06
2.97459e-06
2.97475e-06
9.9219e-06
4.707e-06
9.95552e-06
2.23617e-05
2.23609e-05
2.2368e-05
2.23671e-05
9.95585e-06
4.70329e-06
2.9747e-06
9.92545e-06
5.6495e-06
4.70366e-06
2.97451e-06
9.92806e-06
4.70902e-06
2.9759e-06
9.9306e-06
5.65143e-06
4.70938e-06
2.97572e-06
9.93236e-06
9.96266e-06
2.23848e-05
2.2384e-05
9.96302e-06
2.2391e-05
2.23902e-05
1.90642e-05
1.90649e-05
1.90666e-05
1.90673e-05
9.95757e-06
2.23738e-05
2.23731e-05
2.23676e-05
2.23669e-05
9.95724e-06
4.70054e-06
2.97311e-06
5.64503e-06
9.91423e-06
9.91613e-06
2.97296e-06
4.70086e-06
4.70627e-06
2.97429e-06
5.64694e-06
9.91879e-06
9.92133e-06
2.97412e-06
4.70657e-06
4.70158e-06
9.91906e-06
5.64617e-06
2.97337e-06
9.91718e-06
4.70125e-06
2.97353e-06
4.70729e-06
9.92425e-06
5.64807e-06
2.97454e-06
9.92175e-06
4.70697e-06
2.97471e-06
9.95543e-06
2.23618e-05
2.2361e-05
2.2368e-05
2.23673e-05
9.95575e-06
1.9076e-05
1.90753e-05
1.90784e-05
1.90777e-05
9.95903e-06
2.23734e-05
2.23727e-05
9.95937e-06
2.23796e-05
2.23789e-05
4.70296e-06
2.97414e-06
5.64835e-06
9.92487e-06
9.92304e-06
2.97431e-06
4.70261e-06
4.70867e-06
2.97531e-06
5.65025e-06
9.92997e-06
9.92762e-06
2.97549e-06
4.70833e-06
4.70194e-06
9.92014e-06
2.97393e-06
5.64725e-06
4.70228e-06
9.92203e-06
2.97377e-06
4.70766e-06
9.92472e-06
2.97511e-06
5.64915e-06
4.70799e-06
9.92712e-06
2.97493e-06
9.96115e-06
2.23854e-05
2.23847e-05
2.23792e-05
2.23785e-05
9.96081e-06
1.26405e-05
1.12332e-05
4.8819e-06
4.23651e-06
1.12303e-05
4.882e-06
1.2643e-05
2.2738e-05
9.55249e-06
7.23932e-06
7.23913e-06
2.27311e-05
2.27375e-05
7.2404e-06
9.55335e-06
7.2406e-06
2.27445e-05
1.26391e-05
4.23574e-06
1.12268e-05
4.88125e-06
1.12297e-05
4.88116e-06
1.26366e-05
1.26466e-05
1.12337e-05
4.88246e-06
4.23695e-06
1.26441e-05
1.12366e-05
4.8823e-06
2.275e-05
9.55782e-06
7.2412e-06
2.27571e-05
7.24159e-06
2.27507e-05
7.24033e-06
9.55711e-06
2.27437e-05
7.23995e-06
1.2648e-05
4.23769e-06
1.124e-05
4.88301e-06
1.26505e-05
1.12373e-05
4.88317e-06
1.26468e-05
1.12338e-05
4.88272e-06
4.23706e-06
1.26443e-05
1.12367e-05
4.88263e-06
2.27503e-05
9.5592e-06
7.24292e-06
7.24313e-06
2.27572e-05
2.27508e-05
7.24187e-06
9.55817e-06
2.2744e-05
7.24167e-06
1.26482e-05
4.23781e-06
1.124e-05
4.88334e-06
1.12375e-05
4.88344e-06
1.26506e-05
9.95722e-06
2.23724e-05
2.23733e-05
2.23662e-05
2.2367e-05
9.9569e-06
4.70611e-06
2.9742e-06
5.64682e-06
9.91866e-06
9.92056e-06
2.97402e-06
4.70645e-06
4.7004e-06
2.97309e-06
5.64509e-06
9.9138e-06
2.97292e-06
9.91635e-06
4.70073e-06
4.70717e-06
9.92348e-06
5.64799e-06
2.97443e-06
9.9216e-06
2.97462e-06
4.70682e-06
4.70144e-06
9.91929e-06
5.64635e-06
2.97333e-06
2.97351e-06
9.91677e-06
4.70111e-06
9.95509e-06
2.23603e-05
2.23612e-05
2.23666e-05
2.23674e-05
9.9554e-06
1.90636e-05
1.90642e-05
1.90776e-05
1.90769e-05
9.9587e-06
2.2372e-05
2.23728e-05
9.95903e-06
2.23782e-05
2.23791e-05
4.70855e-06
2.9752e-06
5.65018e-06
9.92931e-06
2.9754e-06
9.92747e-06
4.70818e-06
4.70283e-06
2.97411e-06
5.64853e-06
9.92505e-06
9.92257e-06
2.9743e-06
4.70248e-06
4.70751e-06
9.92457e-06
2.97502e-06
5.64903e-06
2.97483e-06
4.70787e-06
9.92646e-06
4.7018e-06
9.91972e-06
2.97391e-06
5.6473e-06
4.70215e-06
9.92219e-06
2.97373e-06
9.96082e-06
2.2384e-05
2.23848e-05
2.23777e-05
2.23786e-05
9.96048e-06
1.90753e-05
1.90747e-05
1.26408e-05
1.12332e-05
4.88171e-06
4.23641e-06
1.1231e-05
4.88186e-06
1.26433e-05
2.27381e-05
9.55254e-06
7.23798e-06
7.23762e-06
2.2731e-05
2.27374e-05
7.2389e-06
9.55359e-06
7.23927e-06
2.27445e-05
1.26394e-05
4.23569e-06
1.12275e-05
4.88111e-06
1.12298e-05
4.88097e-06
1.26369e-05
1.26476e-05
4.88268e-06
1.12344e-05
4.2371e-06
1.2644e-05
4.88262e-06
1.12373e-05
2.27501e-05
9.55984e-06
7.24283e-06
2.2757e-05
7.24303e-06
2.27507e-05
7.24178e-06
9.55914e-06
2.27438e-05
7.24158e-06
1.26478e-05
4.23778e-06
4.88335e-06
1.12408e-05
1.26514e-05
4.88338e-06
1.12379e-05
1.26471e-05
1.12345e-05
4.88259e-06
4.23701e-06
1.26446e-05
1.12368e-05
4.88243e-06
2.27502e-05
9.55943e-06
7.24142e-06
7.2418e-06
2.27573e-05
2.27509e-05
7.24054e-06
9.55839e-06
2.27438e-05
7.24017e-06
1.26484e-05
4.23771e-06
1.12402e-05
4.88314e-06
1.1238e-05
4.8833e-06
1.26509e-05
1.26403e-05
4.88182e-06
1.12336e-05
4.23657e-06
4.88188e-06
1.12306e-05
1.26431e-05
2.27372e-05
9.55251e-06
7.23887e-06
7.23869e-06
2.27302e-05
2.27367e-05
7.23997e-06
9.55321e-06
7.24015e-06
2.27436e-05
1.26394e-05
4.23582e-06
4.88113e-06
1.12271e-05
4.88109e-06
1.123e-05
1.26362e-05
1.26407e-05
1.12331e-05
4.88159e-06
4.23649e-06
1.12309e-05
4.88169e-06
1.26432e-05
2.27377e-05
9.55224e-06
7.23741e-06
7.23722e-06
2.27308e-05
2.27372e-05
7.2385e-06
9.55328e-06
7.2387e-06
2.27441e-05
1.26394e-05
4.23571e-06
1.12274e-05
4.88094e-06
1.12296e-05
4.88085e-06
1.26368e-05
1.26467e-05
4.88261e-06
1.12342e-05
4.23714e-06
1.26442e-05
4.88255e-06
1.12371e-05
2.27495e-05
9.55902e-06
7.24248e-06
7.24268e-06
2.27563e-05
2.275e-05
7.24142e-06
9.55832e-06
2.27431e-05
7.24123e-06
1.2648e-05
4.23787e-06
4.88325e-06
1.12406e-05
4.88332e-06
1.12377e-05
1.26505e-05
1.2647e-05
1.12344e-05
4.88241e-06
4.23703e-06
1.26445e-05
1.12367e-05
4.88231e-06
2.275e-05
9.55911e-06
7.24101e-06
7.24122e-06
2.27569e-05
2.27505e-05
7.23997e-06
9.55809e-06
2.27436e-05
7.23976e-06
1.26484e-05
4.23779e-06
1.12401e-05
4.88302e-06
1.12379e-05
4.88312e-06
1.26509e-05
9.9581e-06
2.23736e-05
2.2374e-05
2.23673e-05
2.23678e-05
9.95777e-06
4.70645e-06
2.97429e-06
5.64686e-06
9.9184e-06
9.92098e-06
2.9741e-06
4.70679e-06
4.70075e-06
2.97323e-06
5.6452e-06
9.91392e-06
2.97307e-06
9.91648e-06
4.70109e-06
4.70751e-06
9.92391e-06
5.64811e-06
2.97452e-06
9.92137e-06
2.97471e-06
4.70715e-06
4.70181e-06
9.91941e-06
5.6463e-06
2.97348e-06
2.97365e-06
9.91689e-06
4.70145e-06
9.95596e-06
2.23615e-05
2.23619e-05
2.23678e-05
2.23682e-05
9.95628e-06
1.90655e-05
1.90661e-05
1.90785e-05
1.90779e-05
9.95956e-06
2.23731e-05
2.23736e-05
9.9599e-06
2.23794e-05
2.23798e-05
4.70889e-06
2.97529e-06
5.6503e-06
9.92968e-06
2.9755e-06
9.92717e-06
4.70852e-06
4.70319e-06
2.97425e-06
5.64849e-06
9.92518e-06
9.92268e-06
2.97443e-06
4.70282e-06
4.70785e-06
9.92432e-06
2.97511e-06
5.64907e-06
2.97491e-06
4.70821e-06
9.92682e-06
4.70215e-06
9.91984e-06
2.97405e-06
5.6474e-06
4.70251e-06
9.92232e-06
2.97388e-06
9.96168e-06
2.23851e-05
2.23856e-05
2.23789e-05
2.23794e-05
9.96134e-06
1.90772e-05
1.90766e-05
1.26399e-05
4.88164e-06
1.12334e-05
4.23647e-06
4.88174e-06
1.12304e-05
1.26436e-05
2.2738e-05
9.55269e-06
7.23755e-06
7.23738e-06
2.27311e-05
2.27375e-05
7.23866e-06
9.55338e-06
7.23884e-06
2.27444e-05
1.26398e-05
4.2357e-06
4.881e-06
1.1227e-05
4.88088e-06
1.12299e-05
1.2636e-05
1.26401e-05
4.88182e-06
1.12332e-05
4.23648e-06
4.882e-06
1.1231e-05
1.26426e-05
2.27372e-05
9.55341e-06
7.23931e-06
7.23893e-06
2.273e-05
2.27365e-05
7.24021e-06
9.55411e-06
7.2406e-06
2.27437e-05
1.26388e-05
4.23576e-06
4.88125e-06
1.12274e-05
4.88108e-06
1.12297e-05
1.26363e-05
1.26475e-05
4.88247e-06
1.1234e-05
4.23702e-06
1.26437e-05
4.88234e-06
1.1237e-05
2.27503e-05
9.55917e-06
7.24117e-06
7.24136e-06
2.27572e-05
2.27508e-05
7.24011e-06
9.55847e-06
2.27439e-05
7.23992e-06
1.26475e-05
4.23777e-06
4.88307e-06
1.12404e-05
4.88318e-06
1.12375e-05
1.26513e-05
1.26465e-05
4.88272e-06
1.12345e-05
4.23708e-06
1.26439e-05
4.88254e-06
1.12367e-05
2.27493e-05
9.55991e-06
7.24273e-06
7.24313e-06
2.27564e-05
2.275e-05
7.24187e-06
9.55921e-06
2.27429e-05
7.24148e-06
1.26478e-05
4.23777e-06
4.88326e-06
1.12402e-05
4.88344e-06
1.1238e-05
1.26506e-05
1.90653e-05
1.9066e-05
1.90672e-05
1.90679e-05
9.95912e-06
2.23733e-05
2.23725e-05
9.95946e-06
2.23796e-05
2.23787e-05
4.70299e-06
2.97416e-06
5.64847e-06
9.9251e-06
4.70263e-06
2.97434e-06
9.92262e-06
4.70872e-06
2.97536e-06
5.65041e-06
9.92958e-06
4.70837e-06
2.97553e-06
9.92773e-06
4.70196e-06
9.91977e-06
2.97396e-06
5.64735e-06
4.70231e-06
2.97378e-06
9.92221e-06
4.70769e-06
9.92484e-06
2.97515e-06
5.64929e-06
4.70804e-06
2.97498e-06
9.92674e-06
9.96125e-06
2.23853e-05
2.23845e-05
9.9609e-06
2.23791e-05
2.23783e-05
1.90771e-05
1.90764e-05
1.90789e-05
1.90783e-05
2.27632e-05
7.24247e-06
9.56372e-06
2.27563e-05
7.24225e-06
1.26545e-05
4.23829e-06
1.12413e-05
4.88382e-06
1.26521e-05
1.12437e-05
4.88371e-06
9.56497e-06
1.90874e-05
1.90892e-05
4.41725e-07
4.41691e-07
6.53421e-07
4.43613e-07
4.43583e-07
2.35583e-07
2.33653e-07
2.8269e-06
1.96717e-06
1.96742e-06
1.41374e-06
1.9665e-06
1.96673e-06
2.82721e-06
2.8282e-06
1.96868e-06
1.96893e-06
1.41664e-06
2.82853e-06
1.96799e-06
1.96822e-06
2.8269e-06
1.96716e-06
1.9674e-06
1.41368e-06
1.96647e-06
1.96671e-06
2.82721e-06
2.82823e-06
1.41737e-06
1.96762e-06
1.96785e-06
1.96833e-06
1.96856e-06
2.82791e-06
2.82682e-06
1.9673e-06
1.96718e-06
1.41365e-06
1.9665e-06
1.9666e-06
2.82714e-06
2.82816e-06
1.41733e-06
1.96775e-06
1.96765e-06
1.96847e-06
1.96835e-06
2.82783e-06
2.82696e-06
1.96734e-06
1.96725e-06
1.41373e-06
1.96657e-06
1.96665e-06
2.82726e-06
2.82829e-06
1.4174e-06
1.96779e-06
1.96772e-06
1.9685e-06
1.96842e-06
2.82797e-06
2.82823e-06
1.41741e-06
1.96765e-06
1.96788e-06
2.82791e-06
1.96834e-06
1.96859e-06
4.41731e-07
4.41687e-07
6.53428e-07
4.43619e-07
4.43575e-07
2.35579e-07
2.33649e-07
4.41821e-07
4.41779e-07
6.53526e-07
4.43709e-07
4.43666e-07
2.35651e-07
2.33722e-07
4.41808e-07
4.4177e-07
6.53514e-07
4.43699e-07
4.43657e-07
2.35645e-07
2.33714e-07
6.54987e-07
4.473e-07
4.47271e-07
4.45483e-07
4.45449e-07
2.37511e-07
2.39414e-07
6.54994e-07
4.47307e-07
4.47263e-07
4.4549e-07
4.45445e-07
2.37507e-07
2.3941e-07
6.55092e-07
4.47396e-07
4.47353e-07
4.45578e-07
4.45536e-07
2.37579e-07
2.39482e-07
6.55078e-07
4.47387e-07
4.47344e-07
4.45565e-07
4.45528e-07
2.37572e-07
2.39476e-07
1.66452e-06
2.53957e-06
1.54153e-06
2.29417e-06
2.53979e-06
1.54249e-06
1.66286e-06
1.84147e-06
2.22239e-06
3.64426e-06
3.02098e-06
2.2219e-06
3.02059e-06
1.84277e-06
1.84332e-06
3.02106e-06
3.64514e-06
2.22226e-06
2.22276e-06
3.02146e-06
1.84192e-06
1.66246e-06
2.29363e-06
2.53939e-06
1.5419e-06
2.53917e-06
1.54095e-06
1.66396e-06
1.66434e-06
1.54151e-06
2.53939e-06
2.29414e-06
1.54245e-06
2.5396e-06
1.66289e-06
1.84143e-06
2.22241e-06
3.6443e-06
3.02059e-06
2.22194e-06
3.02023e-06
1.84262e-06
1.84312e-06
3.02071e-06
3.64512e-06
2.22229e-06
2.22278e-06
3.02105e-06
1.84195e-06
1.66241e-06
2.29356e-06
1.54187e-06
2.53921e-06
1.54093e-06
2.53898e-06
1.66384e-06
2.82757e-06
1.41595e-06
1.9669e-06
1.96714e-06
1.96758e-06
1.96783e-06
2.82725e-06
2.82757e-06
1.41593e-06
1.96688e-06
1.96711e-06
2.82725e-06
1.96757e-06
1.96781e-06
2.82759e-06
1.41519e-06
1.96796e-06
1.9682e-06
2.82791e-06
1.96726e-06
1.96749e-06
1.66461e-06
2.53934e-06
1.54142e-06
2.29408e-06
2.53955e-06
1.5424e-06
1.66262e-06
1.84129e-06
2.22232e-06
3.64407e-06
3.02052e-06
3.02017e-06
2.22185e-06
1.84257e-06
1.84313e-06
3.02064e-06
3.64489e-06
2.22221e-06
3.021e-06
2.22269e-06
1.84175e-06
1.66213e-06
2.29349e-06
2.53914e-06
1.54181e-06
2.53894e-06
1.54084e-06
1.66397e-06
1.66445e-06
2.5396e-06
1.54147e-06
2.29415e-06
2.53982e-06
1.54243e-06
1.66292e-06
1.84155e-06
2.22268e-06
3.64459e-06
3.02113e-06
3.02076e-06
2.22219e-06
1.84279e-06
1.8433e-06
3.02123e-06
3.64544e-06
2.22255e-06
3.0216e-06
1.84207e-06
2.22304e-06
1.66248e-06
2.29355e-06
2.53942e-06
1.54184e-06
2.53921e-06
1.54089e-06
1.66392e-06
1.66312e-06
2.53992e-06
1.54295e-06
2.29432e-06
1.66514e-06
2.53971e-06
1.54196e-06
1.8443e-06
2.22285e-06
3.64616e-06
3.02153e-06
2.22335e-06
3.0219e-06
1.84264e-06
1.84217e-06
3.02146e-06
2.22303e-06
3.64537e-06
2.22254e-06
1.84371e-06
3.0211e-06
1.66552e-06
2.29488e-06
2.54006e-06
1.54248e-06
2.54028e-06
1.54347e-06
1.66356e-06
1.6633e-06
2.5402e-06
1.54299e-06
2.29438e-06
1.665e-06
2.53997e-06
1.54201e-06
1.84422e-06
2.22319e-06
3.6467e-06
3.02211e-06
3.02249e-06
2.22371e-06
1.84306e-06
1.84257e-06
3.02206e-06
2.22338e-06
3.64589e-06
1.84377e-06
3.02168e-06
2.22288e-06
1.66559e-06
2.29494e-06
2.54033e-06
1.54252e-06
2.54056e-06
1.54351e-06
1.66366e-06
2.8275e-06
1.41587e-06
1.96701e-06
1.96691e-06
1.9676e-06
1.96771e-06
2.82717e-06
2.82751e-06
1.41515e-06
1.9681e-06
1.96799e-06
1.96739e-06
2.82784e-06
1.96729e-06
1.66446e-06
2.53963e-06
1.54156e-06
2.2942e-06
2.53982e-06
1.54249e-06
1.663e-06
1.84159e-06
2.22274e-06
3.64479e-06
3.02114e-06
3.02077e-06
2.22226e-06
1.84279e-06
1.84329e-06
3.02124e-06
3.64567e-06
2.22262e-06
3.02161e-06
2.22311e-06
1.84211e-06
1.66252e-06
2.29365e-06
2.53942e-06
1.54191e-06
2.53921e-06
1.54097e-06
1.66396e-06
1.66439e-06
1.54149e-06
2.53941e-06
2.29415e-06
1.54245e-06
2.53963e-06
1.66277e-06
1.84138e-06
2.22264e-06
3.64463e-06
3.02065e-06
3.0203e-06
2.22215e-06
1.84266e-06
1.8432e-06
3.02077e-06
3.64552e-06
2.22251e-06
3.02113e-06
1.84183e-06
2.22301e-06
1.66236e-06
2.29356e-06
1.54186e-06
2.53923e-06
1.54092e-06
2.53902e-06
1.66384e-06
1.66349e-06
2.54019e-06
1.54303e-06
2.29447e-06
1.66495e-06
2.53997e-06
1.54211e-06
1.84422e-06
2.22326e-06
3.64693e-06
3.02213e-06
2.22377e-06
3.0225e-06
1.84315e-06
1.84262e-06
3.02206e-06
2.22345e-06
3.64608e-06
2.22295e-06
1.84377e-06
3.02169e-06
1.66534e-06
2.29499e-06
2.54034e-06
1.54265e-06
2.54054e-06
1.54354e-06
1.66405e-06
1.66313e-06
1.543e-06
2.54001e-06
2.29439e-06
1.66501e-06
1.54203e-06
2.53979e-06
1.84439e-06
2.22315e-06
3.64679e-06
3.02166e-06
3.02204e-06
2.22368e-06
1.84261e-06
1.84225e-06
3.02159e-06
2.22335e-06
3.64592e-06
1.84378e-06
3.02123e-06
2.22284e-06
1.66566e-06
2.29494e-06
1.54256e-06
2.54014e-06
1.54352e-06
2.54037e-06
1.66355e-06
1.66467e-06
1.54148e-06
2.53939e-06
2.29413e-06
1.54245e-06
2.53962e-06
1.66267e-06
1.84133e-06
2.22236e-06
3.64418e-06
3.02057e-06
2.22188e-06
3.0202e-06
1.84263e-06
1.84319e-06
3.02067e-06
3.64502e-06
2.22224e-06
2.22272e-06
3.02105e-06
1.84179e-06
1.6622e-06
2.29354e-06
1.54186e-06
2.53922e-06
1.5409e-06
2.539e-06
1.66402e-06
1.66323e-06
2.54017e-06
1.54304e-06
2.29446e-06
1.66515e-06
2.53994e-06
1.54206e-06
1.84454e-06
2.2229e-06
3.64641e-06
3.02195e-06
1.84271e-06
2.22342e-06
3.02236e-06
1.84232e-06
3.02192e-06
2.2231e-06
3.64556e-06
1.84391e-06
2.22259e-06
3.02152e-06
1.66578e-06
2.29497e-06
2.5403e-06
1.54258e-06
1.66365e-06
2.54053e-06
1.54357e-06
1.66312e-06
1.543e-06
2.54e-06
2.29437e-06
1.66524e-06
1.54202e-06
2.53976e-06
1.8444e-06
2.22288e-06
3.64629e-06
3.02155e-06
3.02195e-06
2.22339e-06
1.84258e-06
1.8422e-06
3.02151e-06
2.22307e-06
3.64548e-06
1.84378e-06
3.02112e-06
2.22257e-06
1.66569e-06
2.29492e-06
1.54253e-06
2.54012e-06
1.54353e-06
2.54035e-06
1.6635e-06
2.82762e-06
1.41594e-06
1.96705e-06
1.96698e-06
1.96766e-06
1.96775e-06
2.82732e-06
2.82765e-06
1.41523e-06
1.96814e-06
1.96805e-06
1.96743e-06
2.82797e-06
1.96736e-06
1.66447e-06
1.54154e-06
2.53958e-06
2.29419e-06
1.54248e-06
2.5398e-06
1.66292e-06
1.84155e-06
2.22278e-06
3.6448e-06
3.0211e-06
2.22229e-06
3.02072e-06
1.84282e-06
1.84336e-06
3.02119e-06
3.64564e-06
2.22265e-06
2.22315e-06
3.02158e-06
1.84201e-06
1.6625e-06
2.29361e-06
1.54189e-06
2.5394e-06
1.54096e-06
2.53918e-06
1.66394e-06
1.66339e-06
1.54299e-06
2.53997e-06
2.2944e-06
1.66483e-06
1.54207e-06
2.53974e-06
1.84405e-06
2.22294e-06
3.64638e-06
3.02159e-06
1.843e-06
2.22344e-06
3.02194e-06
1.84247e-06
3.02151e-06
2.22312e-06
3.64559e-06
1.8436e-06
2.22262e-06
3.02115e-06
1.66522e-06
2.29491e-06
1.5426e-06
2.54011e-06
1.66393e-06
1.5435e-06
2.54033e-06
1.6633e-06
1.54302e-06
2.54018e-06
2.29443e-06
1.66505e-06
1.54209e-06
2.53995e-06
1.84451e-06
2.22329e-06
3.64691e-06
3.02208e-06
3.02248e-06
2.22381e-06
1.84287e-06
1.84243e-06
3.02204e-06
2.22349e-06
3.6461e-06
1.84392e-06
3.02165e-06
2.22298e-06
1.66566e-06
2.29498e-06
1.54262e-06
2.5403e-06
1.54354e-06
2.54054e-06
1.66372e-06
2.82759e-06
1.41524e-06
1.96797e-06
1.96822e-06
2.82791e-06
1.96729e-06
1.96752e-06
1.843e-06
2.22369e-06
3.02238e-06
3.64669e-06
2.22317e-06
1.84502e-06
3.02196e-06
1.66392e-06
2.29511e-06
1.54402e-06
2.54069e-06
1.54301e-06
1.66618e-06
2.54044e-06
2.22411e-06
3.64732e-06
2.22358e-06
3.23646e-07
8.6881e-07
8.68928e-07
1.15405e-06
3.39683e-07
8.92252e-07
8.92359e-07
1.17353e-06
3.55962e-07
9.14701e-07
9.14802e-07
1.19202e-06
3.72406e-07
9.36139e-07
9.36243e-07
1.20958e-06
3.88933e-07
9.56568e-07
9.56672e-07
1.22626e-06
4.05462e-07
9.76001e-07
9.76102e-07
1.24209e-06
4.21915e-07
9.94442e-07
9.94542e-07
1.25708e-06
4.38216e-07
1.0119e-06
1.01199e-06
1.27125e-06
4.54292e-07
1.02838e-06
1.02848e-06
1.28467e-06
4.70078e-07
1.04392e-06
1.04401e-06
1.29733e-06
4.85513e-07
1.05853e-06
1.05862e-06
1.30925e-06
5.00547e-07
1.07222e-06
1.07231e-06
1.32047e-06
5.1513e-07
1.08504e-06
1.08513e-06
1.33102e-06
5.29221e-07
1.097e-06
1.09708e-06
1.34092e-06
5.42784e-07
1.10813e-06
1.10821e-06
1.35019e-06
5.5579e-07
1.11846e-06
1.11854e-06
1.35885e-06
5.68211e-07
1.12801e-06
1.12809e-06
1.36692e-06
5.80027e-07
1.13681e-06
1.13688e-06
1.3744e-06
5.91226e-07
1.14488e-06
1.14495e-06
1.38131e-06
6.01795e-07
1.15224e-06
1.15231e-06
1.38768e-06
6.11728e-07
1.15892e-06
1.15899e-06
1.39352e-06
6.21022e-07
1.16494e-06
1.16501e-06
1.39883e-06
6.29675e-07
1.17032e-06
1.17039e-06
1.40366e-06
6.37691e-07
1.17508e-06
1.17515e-06
1.40797e-06
6.45075e-07
1.17926e-06
1.17932e-06
1.4118e-06
1.15441e-06
1.16791e-06
8.68977e-07
8.68992e-07
8.86627e-07
8.8666e-07
1.15401e-06
1.1679e-06
8.68868e-07
8.69048e-07
8.86547e-07
8.86708e-07
8.69059e-07
8.86483e-07
8.86731e-07
1.15437e-06
1.16793e-06
8.68939e-07
8.86593e-07
8.86606e-07
1.16806e-06
1.17369e-06
1.18654e-06
8.92392e-07
8.92425e-07
9.09317e-07
9.0935e-07
1.17335e-06
1.1864e-06
8.92318e-07
8.92473e-07
9.09234e-07
9.09398e-07
8.92499e-07
9.09181e-07
9.09425e-07
1.17359e-06
1.18657e-06
8.92371e-07
9.09283e-07
9.09298e-07
1.18659e-06
1.192e-06
1.20428e-06
9.14834e-07
9.14864e-07
9.31005e-07
9.31034e-07
1.19182e-06
1.20408e-06
9.14757e-07
9.14914e-07
9.3092e-07
9.31087e-07
9.14944e-07
9.30874e-07
9.31117e-07
1.19194e-06
1.20428e-06
9.14815e-07
9.30976e-07
9.30987e-07
1.20425e-06
1.20944e-06
1.22114e-06
9.36268e-07
9.36295e-07
9.51681e-07
9.51707e-07
1.20942e-06
1.22092e-06
9.3619e-07
9.36351e-07
9.51595e-07
9.51765e-07
9.36382e-07
9.51556e-07
9.5179e-07
1.20945e-06
1.22113e-06
9.36251e-07
9.51659e-07
9.5166e-07
1.22106e-06
1.22605e-06
1.23713e-06
9.56692e-07
9.56716e-07
9.71356e-07
9.71378e-07
1.2261e-06
1.23692e-06
9.56611e-07
9.56776e-07
9.71267e-07
9.71437e-07
9.56803e-07
9.71235e-07
9.71462e-07
1.22612e-06
1.23716e-06
9.56674e-07
9.71338e-07
9.71335e-07
1.23705e-06
1.24184e-06
1.25232e-06
9.7612e-07
9.76141e-07
9.90042e-07
9.90061e-07
1.24192e-06
1.2521e-06
9.76037e-07
9.76201e-07
9.89952e-07
9.90119e-07
9.76229e-07
9.89923e-07
9.90143e-07
1.24188e-06
1.25233e-06
9.76103e-07
9.90024e-07
9.90019e-07
1.25223e-06
1.25684e-06
1.2667e-06
9.94558e-07
9.94578e-07
1.00774e-06
1.00776e-06
1.25691e-06
1.26648e-06
9.94474e-07
9.94635e-07
1.00765e-06
1.00781e-06
9.94662e-07
1.00763e-06
1.00783e-06
1.25687e-06
1.26656e-06
9.9454e-07
1.00772e-06
1.00772e-06
1.26658e-06
1.27099e-06
1.28026e-06
1.01201e-06
1.01203e-06
1.02446e-06
1.02448e-06
1.27111e-06
1.28005e-06
1.01193e-06
1.01208e-06
1.02437e-06
1.02453e-06
1.01211e-06
1.02435e-06
1.02455e-06
1.27116e-06
1.28016e-06
1.01199e-06
1.02445e-06
1.02444e-06
1.28018e-06
1.28445e-06
1.2931e-06
1.02849e-06
1.02851e-06
1.04023e-06
1.04025e-06
1.28451e-06
1.2929e-06
1.02841e-06
1.02856e-06
1.04014e-06
1.04029e-06
1.02859e-06
1.04012e-06
1.04031e-06
1.2846e-06
1.29299e-06
1.02847e-06
1.04022e-06
1.0402e-06
1.293e-06
1.29714e-06
1.30519e-06
1.04402e-06
1.04404e-06
1.05506e-06
1.05508e-06
1.29717e-06
1.30503e-06
1.04394e-06
1.04409e-06
1.05497e-06
1.05512e-06
1.04411e-06
1.05496e-06
1.05514e-06
1.29727e-06
1.30514e-06
1.044e-06
1.05505e-06
1.05503e-06
1.30511e-06
1.30909e-06
1.31658e-06
1.05863e-06
1.05864e-06
1.06898e-06
1.069e-06
1.30908e-06
1.31644e-06
1.05854e-06
1.05869e-06
1.06889e-06
1.06904e-06
1.05871e-06
1.06888e-06
1.06905e-06
1.30919e-06
1.31654e-06
1.0586e-06
1.06897e-06
1.06895e-06
1.31652e-06
1.32034e-06
1.32729e-06
1.07232e-06
1.07234e-06
1.08201e-06
1.08203e-06
1.32032e-06
1.32715e-06
1.07223e-06
1.07238e-06
1.08192e-06
1.08206e-06
1.07239e-06
1.08191e-06
1.08208e-06
1.32042e-06
1.32726e-06
1.07229e-06
1.082e-06
1.08198e-06
1.32725e-06
1.33091e-06
1.33729e-06
1.08513e-06
1.08515e-06
1.09418e-06
1.09419e-06
1.33088e-06
1.33721e-06
1.08504e-06
1.08518e-06
1.09408e-06
1.09423e-06
1.0852e-06
1.09409e-06
1.09424e-06
1.33098e-06
1.33731e-06
1.0851e-06
1.09417e-06
1.09414e-06
1.3373e-06
1.34085e-06
1.34669e-06
1.09709e-06
1.0971e-06
1.10551e-06
1.10553e-06
1.3408e-06
1.34661e-06
1.097e-06
1.09714e-06
1.10541e-06
1.10555e-06
1.09715e-06
1.10542e-06
1.10557e-06
1.34088e-06
1.34675e-06
1.09706e-06
1.1055e-06
1.10547e-06
1.34672e-06
1.35015e-06
1.35549e-06
1.10822e-06
1.10823e-06
1.11603e-06
1.11605e-06
1.35008e-06
1.35541e-06
1.10812e-06
1.10826e-06
1.11594e-06
1.11608e-06
1.10828e-06
1.11595e-06
1.11609e-06
1.35014e-06
1.35551e-06
1.10818e-06
1.11603e-06
1.116e-06
1.3555e-06
1.35881e-06
1.3637e-06
1.11854e-06
1.11856e-06
1.12578e-06
1.12579e-06
1.35874e-06
1.3636e-06
1.11845e-06
1.11858e-06
1.12568e-06
1.12581e-06
1.1186e-06
1.12569e-06
1.12583e-06
1.35881e-06
1.3637e-06
1.11851e-06
1.12577e-06
1.12574e-06
1.3637e-06
1.36686e-06
1.37131e-06
1.12809e-06
1.12811e-06
1.13476e-06
1.13477e-06
1.36681e-06
1.37121e-06
1.128e-06
1.12813e-06
1.13466e-06
1.1348e-06
1.12815e-06
1.13468e-06
1.13482e-06
1.3669e-06
1.3713e-06
1.12806e-06
1.13475e-06
1.13472e-06
1.37131e-06
1.37435e-06
1.37834e-06
1.13689e-06
1.1369e-06
1.143e-06
1.14302e-06
1.3743e-06
1.37825e-06
1.13679e-06
1.13693e-06
1.14291e-06
1.14304e-06
1.13695e-06
1.14292e-06
1.14306e-06
1.37439e-06
1.37834e-06
1.13685e-06
1.143e-06
1.14296e-06
1.37836e-06
1.38127e-06
1.38482e-06
1.14495e-06
1.14497e-06
1.15054e-06
1.15055e-06
1.38122e-06
1.38473e-06
1.14486e-06
1.14499e-06
1.15044e-06
1.15058e-06
1.14501e-06
1.15046e-06
1.15059e-06
1.38131e-06
1.38482e-06
1.14492e-06
1.15053e-06
1.1505e-06
1.38485e-06
1.38764e-06
1.39075e-06
1.15231e-06
1.15233e-06
1.15738e-06
1.1574e-06
1.3876e-06
1.39068e-06
1.15223e-06
1.15235e-06
1.15729e-06
1.15742e-06
1.15237e-06
1.15731e-06
1.15744e-06
1.38768e-06
1.39077e-06
1.15228e-06
1.15738e-06
1.15735e-06
1.39079e-06
1.39348e-06
1.39617e-06
1.15899e-06
1.15901e-06
1.16356e-06
1.16358e-06
1.39344e-06
1.3961e-06
1.15891e-06
1.15903e-06
1.16347e-06
1.1636e-06
1.15905e-06
1.16349e-06
1.16362e-06
1.39352e-06
1.39618e-06
1.15896e-06
1.16356e-06
1.16353e-06
1.39621e-06
1.3988e-06
1.40108e-06
1.16501e-06
1.16503e-06
1.1691e-06
1.16912e-06
1.39875e-06
1.40103e-06
1.16492e-06
1.16505e-06
1.16901e-06
1.16914e-06
1.16507e-06
1.16903e-06
1.16916e-06
1.39883e-06
1.40111e-06
1.16498e-06
1.16909e-06
1.16906e-06
1.4011e-06
1.4036e-06
1.40547e-06
1.17039e-06
1.17041e-06
1.17401e-06
1.17404e-06
1.40356e-06
1.40545e-06
1.17031e-06
1.17043e-06
1.17393e-06
1.17406e-06
1.17045e-06
1.17394e-06
1.17407e-06
1.40363e-06
1.40553e-06
1.17036e-06
1.17401e-06
1.17398e-06
1.40553e-06
1.40794e-06
1.4094e-06
1.17515e-06
1.17518e-06
1.17832e-06
1.17835e-06
1.40787e-06
1.40939e-06
1.17507e-06
1.1752e-06
1.17824e-06
1.17837e-06
1.17521e-06
1.17826e-06
1.17839e-06
1.40794e-06
1.40947e-06
1.17512e-06
1.17833e-06
1.1783e-06
1.40948e-06
1.41179e-06
1.41287e-06
1.17932e-06
1.17935e-06
1.18206e-06
1.18209e-06
1.41172e-06
1.41286e-06
1.17924e-06
1.17937e-06
1.18198e-06
1.18211e-06
1.17939e-06
1.182e-06
1.18213e-06
1.41179e-06
1.41293e-06
1.17929e-06
1.18206e-06
1.18204e-06
1.41295e-06
4.09756e-06
9.16244e-06
9.16889e-06
4.09526e-06
1.84293e-05
1.84398e-05
4.09777e-06
9.16426e-06
9.17086e-06
4.09541e-06
3.23619e-07
3.2371e-07
3.2372e-07
3.35648e-07
3.35622e-07
3.35711e-07
3.35726e-07
2.11416e-06
3.47721e-06
5.64066e-07
8.74762e-07
3.48047e-06
5.69932e-07
2.10971e-06
1.84299e-05
1.84405e-05
2.11416e-06
5.64175e-07
3.47717e-06
8.7488e-07
5.70049e-07
3.48058e-06
2.10965e-06
5.46404e-06
5.46613e-06
1.15847e-06
5.46685e-06
5.46858e-06
4.10514e-06
9.17837e-06
4.10298e-06
9.18504e-06
1.84515e-05
1.84624e-05
4.10532e-06
9.18052e-06
4.10298e-06
9.18722e-06
3.39657e-07
3.39747e-07
3.39762e-07
3.51873e-07
3.5185e-07
3.51939e-07
3.51956e-07
2.12805e-06
3.48835e-06
5.87407e-07
8.9796e-07
2.12374e-06
3.49122e-06
5.93202e-07
1.84522e-05
1.84631e-05
2.12801e-06
5.87515e-07
3.48801e-06
8.98063e-07
2.12372e-06
5.93308e-07
3.49143e-06
5.47326e-06
5.47525e-06
1.17742e-06
5.47601e-06
5.47752e-06
4.1125e-06
9.19478e-06
4.11052e-06
9.20152e-06
1.84746e-05
1.84858e-05
4.1129e-06
9.19697e-06
4.11048e-06
9.2037e-06
3.55939e-07
3.56029e-07
3.56046e-07
3.68283e-07
3.68262e-07
3.68354e-07
3.68371e-07
2.14116e-06
3.49898e-06
6.10418e-07
9.20156e-07
2.13708e-06
3.50166e-06
6.16115e-07
1.84753e-05
1.84866e-05
2.14109e-06
6.10518e-07
3.4988e-06
9.20258e-07
2.13708e-06
6.16212e-07
3.50172e-06
5.4824e-06
5.48447e-06
1.19552e-06
5.48513e-06
5.48681e-06
4.11977e-06
9.21134e-06
4.11796e-06
9.21814e-06
1.84985e-05
1.85098e-05
4.11995e-06
9.21355e-06