/*--------------------------------*- C++ -*----------------------------------*\
| =========                 |                                                 |
| \\      /  F ield         | OpenFOAM: The Open Source CFD Toolbox           |
|  \\    /   O peration     | Version:  v1906                                 |
|   \\  /    A nd           | Web:      www.OpenFOAM.com                      |
|    \\/     M anipulation  |                                                 |
\*---------------------------------------------------------------------------*/
FoamFile
{
    version     2.0;
    format      ascii;
    class       volScalarField;
    location    "650";
    object      nut;
}
// * * * * * * * * * * * * * * * * * * * * * * * * * * * * * * * * * * * * * //

dimensions      [0 2 -1 0 0 0 0];


internalField   nonuniform List<scalar> 
42840
(
0.000203424
0.000198749
0.000198742
0.000180671
0.000181639
0.000180594
0.000181465
0.000198717
0.000198717
0.000199775
0.000199775
0.000180684
0.000181475
0.000198732
0.000198708
0.00019979
0.000199765
0.000198725
0.000199807
0.000199783
0.000180673
0.000181464
0.000198739
0.0001998
0.000199797
0.000181473
0.000200127
0.000200141
9.97168e-05
5.07152e-05
5.07219e-05
9.96484e-05
2.38792e-05
2.38836e-05
9.97221e-05
5.07123e-05
5.07187e-05
9.9659e-05
0.00020343
0.000203431
0.000203438
0.000205315
0.000205321
0.000205322
0.000205328
0.000143715
0.000103352
0.000207734
0.000199106
0.000103438
0.000208202
0.000143504
2.3877e-05
2.38814e-05
0.000143703
0.000207732
0.000103353
0.000199098
0.000208199
0.000103438
0.000143493
7.78121e-05
7.78107e-05
0.000180989
7.78375e-05
7.78379e-05
7.78754e-05
7.78726e-05
2.38798e-05
2.38842e-05
2.38786e-05
2.38829e-05
7.78132e-05
7.78108e-05
0.000181012
7.78413e-05
7.7836e-05
2.38888e-05
2.38845e-05
2.38875e-05
2.38832e-05
0.000181129
7.7872e-05
7.78677e-05
7.78457e-05
7.78431e-05
9.97203e-05
5.0716e-05
5.07238e-05
9.96517e-05
0.000143707
0.000103352
0.000207719
0.000199074
0.000103437
0.000208186
0.000143492
0.00014371
0.00010335
0.000207721
0.000199074
0.000103435
0.000208188
0.000143495
9.97108e-05
5.07321e-05
5.07255e-05
9.97766e-05
9.9714e-05
5.07347e-05
5.07236e-05
9.97802e-05
0.000143709
0.000199428
0.000103515
0.000209105
0.000103434
0.00020865
0.000143914
0.000143712
0.000199428
0.000103513
0.000209107
0.000103432
0.000208653
0.000143917
7.78097e-05
7.78077e-05
0.000181
7.7838e-05
7.78335e-05
2.38798e-05
2.38841e-05
2.38882e-05
2.38838e-05
0.000181158
7.78687e-05
7.78645e-05
7.78421e-05
7.78401e-05
2.38887e-05
2.38844e-05
0.000143706
0.000103344
0.000207724
0.000199089
0.000103429
0.000208187
0.000143498
9.9722e-05
5.07057e-05
5.07169e-05
9.96538e-05
0.000143707
0.000207719
0.000103331
0.000199065
0.000208185
0.000103417
0.000143492
9.97232e-05
5.07289e-05
5.07226e-05
9.97813e-05
0.000143721
0.000199443
0.000103507
0.000209105
0.000103426
0.000208655
0.000143906
9.97161e-05
5.07272e-05
5.07162e-05
9.97816e-05
0.000143709
0.000199419
0.000209104
0.000103495
0.00020865
0.000103414
0.000143913
9.97191e-05
5.07152e-05
5.07215e-05
9.96561e-05
0.000143713
0.000207731
0.00010335
0.000199082
0.000208198
0.000103436
0.000143499
9.97193e-05
5.0709e-05
5.07202e-05
9.96507e-05
0.00014372
0.00019946
0.000103516
0.00020912
0.000103434
0.000208666
0.000143922
9.97186e-05
5.07323e-05
5.07253e-05
9.97786e-05
0.000143715
0.000199436
0.000209117
0.000103514
0.000208661
0.000103432
0.00014392
9.9713e-05
5.07304e-05
5.07195e-05
9.9779e-05
7.7796e-05
7.78139e-05
0.000180989
7.78216e-05
7.78391e-05
2.3879e-05
2.38833e-05
2.3886e-05
2.38817e-05
0.000181146
7.78526e-05
7.78702e-05
7.78284e-05
7.78464e-05
2.38879e-05
2.38837e-05
0.00014371
0.000207731
0.000103348
0.000199096
0.000208198
0.000103435
0.000143496
9.97138e-05
5.07114e-05
5.07179e-05
9.96509e-05
9.97222e-05
5.07117e-05
5.07182e-05
9.96557e-05
0.000143718
0.000199453
0.000209117
0.000103516
0.000208663
0.000103435
0.000143903
0.000143717
0.00019945
0.000209117
0.000103513
0.000208662
0.00010343
0.000143908
9.97132e-05
5.07288e-05
5.07216e-05
9.97731e-05
9.97196e-05
5.07285e-05
5.0722e-05
9.97793e-05
2.38787e-05
2.3883e-05
2.38782e-05
2.38826e-05
0.000181145
7.78686e-05
7.7869e-05
7.78449e-05
7.78425e-05
2.38876e-05
2.38833e-05
2.38872e-05
2.38829e-05
0.00020957
0.00010351
0.000143922
5.07295e-05
9.97721e-05
0.000103509
5.07323e-05
2.38879e-05
2.38875e-05
3.66931e-05
4.10373e-05
9.43536e-05
9.96796e-05
4.10372e-05
9.43201e-05
3.67002e-05
2.03078e-05
5.07168e-05
7.89822e-05
7.8995e-05
2.03056e-05
2.03075e-05
7.90072e-05
5.07203e-05
7.89947e-05
2.03097e-05
3.66964e-05
9.96859e-05
4.10327e-05
9.42957e-05
4.10331e-05
9.43293e-05
3.66892e-05
2.38812e-05
2.38815e-05
3.66989e-05
9.43641e-05
4.1037e-05
9.96925e-05
9.43384e-05
4.10369e-05
3.6698e-05
2.03089e-05
5.07136e-05
7.9001e-05
7.90197e-05
2.03069e-05
2.03088e-05
7.90315e-05
5.07174e-05
7.90133e-05
2.03109e-05
3.66943e-05
9.96932e-05
9.43103e-05
4.10324e-05
9.43426e-05
4.10329e-05
3.66953e-05
2.38791e-05
2.38793e-05
8.14449e-05
2.17029e-05
2.16999e-05
2.17009e-05
2.16979e-05
8.14526e-05
0.000105056
0.000128363
7.78214e-05
4.86295e-05
0.000128424
4.86304e-05
0.000105037
0.000105066
0.000128346
7.78214e-05
4.86166e-05
0.00012841
4.86231e-05
0.000105043
0.000105069
4.86345e-05
7.78289e-05
0.000128498
0.000128437
4.86346e-05
0.000105089
0.000105076
4.86285e-05
7.78265e-05
0.000128483
0.00012842
4.86211e-05
0.000105099
8.14423e-05
2.1699e-05
2.1696e-05
2.1701e-05
2.1698e-05
8.14345e-05
0.000105182
0.000128651
4.8649e-05
7.78831e-05
0.000105163
0.000128707
4.86477e-05
0.000105189
0.000128633
4.86352e-05
7.78846e-05
0.00010517
0.000128692
4.86434e-05
8.14817e-05
2.17064e-05
2.17035e-05
8.14748e-05
2.17084e-05
2.17055e-05
2.38819e-05
2.38822e-05
2.38805e-05
2.38809e-05
8.14447e-05
2.17029e-05
2.16996e-05
2.17008e-05
2.16976e-05
8.14513e-05
0.000105061
0.000128362
7.78249e-05
4.86264e-05
4.86337e-05
0.000128427
0.000105038
0.000105062
0.000128344
7.78196e-05
4.86188e-05
4.86187e-05
0.000128407
0.000105042
0.000105071
4.86385e-05
7.78298e-05
0.0001285
4.86314e-05
0.000105093
0.000128436
0.000105075
4.86235e-05
7.78271e-05
0.000128481
4.86235e-05
0.000105095
0.000128418
8.14409e-05
2.16989e-05
2.16957e-05
2.1701e-05
2.16977e-05
8.14343e-05
2.38868e-05
2.38865e-05
2.38855e-05
2.38852e-05
8.14615e-05
2.17027e-05
2.16995e-05
8.14548e-05
2.17047e-05
2.17015e-05
0.000105134
0.000128641
7.78613e-05
4.86477e-05
4.86405e-05
0.00012858
0.000105156
0.000105138
0.000128622
7.78583e-05
4.86341e-05
4.86327e-05
0.000128562
0.000105157
0.000105126
4.86361e-05
0.000128508
7.78564e-05
0.000105103
4.86429e-05
0.000128571
0.000105126
4.86283e-05
0.00012849
7.78517e-05
0.000105106
4.8629e-05
0.000128552
8.14647e-05
2.17066e-05
2.17033e-05
2.17046e-05
2.17013e-05
8.14713e-05
3.6695e-05
4.10374e-05
9.43686e-05
9.96828e-05
4.10373e-05
9.43344e-05
3.67019e-05
2.03087e-05
5.07173e-05
7.90029e-05
7.90221e-05
2.03066e-05
2.03085e-05
7.90341e-05
5.07189e-05
7.90152e-05
2.03106e-05
3.66981e-05
9.96893e-05
4.10329e-05
9.43104e-05
4.10333e-05
9.43443e-05
3.66911e-05
3.6704e-05
4.10412e-05
9.43448e-05
9.97471e-05
3.66969e-05
4.10419e-05
9.43776e-05
2.03114e-05
5.07308e-05
7.90305e-05
2.03135e-05
7.9018e-05
2.03116e-05
7.90064e-05
5.07273e-05
2.03095e-05
7.90187e-05
3.67004e-05
9.97409e-05
4.10468e-05
9.44011e-05
3.67076e-05
4.10446e-05
9.43687e-05
3.67057e-05
4.10413e-05
9.43593e-05
9.97507e-05
3.66989e-05
4.10421e-05
9.43928e-05
2.03123e-05
5.07288e-05
7.9057e-05
7.9039e-05
2.03144e-05
2.03125e-05
7.90271e-05
5.07293e-05
2.03105e-05
7.90457e-05
3.67023e-05
9.97442e-05
4.10475e-05
9.44166e-05
4.10443e-05
9.43832e-05
3.67093e-05
8.14455e-05
2.17003e-05
2.17029e-05
2.16983e-05
2.17009e-05
8.14515e-05
0.000105065
0.000128346
7.78215e-05
4.86169e-05
4.86243e-05
0.000128406
0.000105045
0.000105061
0.000128371
7.78171e-05
4.86294e-05
0.000128427
4.86292e-05
0.000105042
0.000105078
4.86291e-05
7.78263e-05
0.000128479
4.86219e-05
0.00012842
0.000105097
0.000105074
4.8634e-05
7.78242e-05
0.0001285
0.000128445
4.86341e-05
0.000105094
8.1441e-05
2.16964e-05
2.1699e-05
2.16984e-05
2.1701e-05
8.14351e-05
2.38818e-05
2.38821e-05
2.38861e-05
2.38859e-05
8.14618e-05
2.17001e-05
2.17027e-05
8.14555e-05
2.17022e-05
2.17048e-05
0.00010514
0.00012862
7.78575e-05
4.86386e-05
0.000128563
4.86312e-05
0.000105162
0.000105138
0.000128641
7.78557e-05
4.86438e-05
4.8644e-05
0.000128589
0.000105156
0.00010513
4.86266e-05
0.000128492
7.78532e-05
0.00012855
0.00010511
4.86335e-05
0.000105125
4.8639e-05
0.000128518
7.78493e-05
0.000105106
4.86392e-05
0.000128571
8.14654e-05
2.1704e-05
2.17066e-05
2.1702e-05
2.17046e-05
8.14718e-05
2.38867e-05
2.38864e-05
3.66922e-05
4.10396e-05
9.4351e-05
9.96848e-05
4.10334e-05
9.43173e-05
3.66993e-05
2.03073e-05
5.07117e-05
7.89772e-05
7.89897e-05
2.03051e-05
2.03071e-05
7.90019e-05
5.07111e-05
7.89897e-05
2.03092e-05
3.66955e-05
9.96913e-05
4.10294e-05
9.42928e-05
4.10352e-05
9.43266e-05
3.66882e-05
3.67016e-05
9.43628e-05
4.10409e-05
9.97525e-05
3.67025e-05
9.43876e-05
4.10414e-05
2.03126e-05
5.07279e-05
7.90544e-05
2.03146e-05
7.90371e-05
2.03128e-05
7.90252e-05
5.07242e-05
2.03107e-05
7.90432e-05
3.67064e-05
9.97531e-05
9.44104e-05
4.10454e-05
3.67055e-05
9.43865e-05
4.10452e-05
3.67031e-05
4.10379e-05
9.43421e-05
9.97524e-05
3.6696e-05
4.10439e-05
9.43753e-05
2.03109e-05
5.07212e-05
7.90255e-05
7.90129e-05
2.0313e-05
2.03111e-05
7.90015e-05
5.07218e-05
2.0309e-05
7.90136e-05
3.66995e-05
9.97461e-05
4.10481e-05
9.43983e-05
4.1042e-05
9.43658e-05
3.67067e-05
3.66971e-05
9.43668e-05
4.1037e-05
9.9688e-05
9.43416e-05
4.1037e-05
3.67012e-05
2.03095e-05
5.07165e-05
7.90049e-05
7.90232e-05
2.03074e-05
2.03093e-05
7.90351e-05
5.07203e-05
7.90171e-05
2.03114e-05
3.66963e-05
9.96885e-05
9.43172e-05
4.10323e-05
9.43427e-05
4.10335e-05
3.66951e-05
3.66934e-05
4.10398e-05
9.43601e-05
9.96819e-05
4.10335e-05
9.43261e-05
3.67004e-05
2.03082e-05
5.0715e-05
7.89837e-05
7.90028e-05
2.03062e-05
2.03081e-05
7.90149e-05
5.07144e-05
7.8996e-05
2.03101e-05
3.66966e-05
9.96884e-05
4.10295e-05
9.43021e-05
4.10354e-05
9.43359e-05
3.66895e-05
3.67058e-05
9.43659e-05
4.1041e-05
9.97495e-05
3.66999e-05
9.43912e-05
4.10414e-05
2.03131e-05
5.07304e-05
7.90584e-05
7.90405e-05
2.03152e-05
2.03133e-05
7.90292e-05
5.0727e-05
2.03112e-05
7.9047e-05
3.6703e-05
9.97488e-05
9.44145e-05
4.10454e-05
9.43896e-05
4.10452e-05
3.67098e-05
3.67041e-05
4.1038e-05
9.43509e-05
9.97497e-05
3.66973e-05
4.10441e-05
9.43843e-05
2.03119e-05
5.07245e-05
7.9038e-05
7.90195e-05
2.03139e-05
2.0312e-05
7.90079e-05
5.07251e-05
2.031e-05
7.90265e-05
3.67008e-05
9.97432e-05
4.10483e-05
9.4408e-05
4.10421e-05
9.43747e-05
3.67077e-05
8.14451e-05
2.16992e-05
2.17027e-05
2.16972e-05
2.17007e-05
8.14521e-05
0.000105057
0.000128339
7.78053e-05
4.86183e-05
4.8618e-05
0.000128392
0.000105037
0.000105058
0.000128365
7.7823e-05
4.86303e-05
0.000128428
4.86301e-05
0.000105038
0.00010507
4.86228e-05
7.78125e-05
0.000128465
4.86229e-05
0.000128413
0.00010509
0.000105071
4.86349e-05
7.78305e-05
0.000128502
0.000128439
4.8635e-05
0.00010509
8.14417e-05
2.16953e-05
2.16988e-05
2.16974e-05
2.17008e-05
8.14346e-05
2.3881e-05
2.38813e-05
2.3884e-05
2.38837e-05
8.14621e-05
2.16991e-05
2.17026e-05
8.14553e-05
2.17011e-05
2.17046e-05
0.000105133
0.000128606
7.7844e-05
4.86325e-05
0.000128556
4.86329e-05
0.000105152
0.000105134
0.000128643
7.78619e-05
4.86446e-05
4.86449e-05
0.000128583
0.000105153
0.000105121
4.86279e-05
0.000128485
7.78374e-05
0.000128536
0.000105102
4.8628e-05
0.000105122
4.86399e-05
0.000128511
7.78551e-05
0.000105103
4.86401e-05
0.000128573
8.14653e-05
2.1703e-05
2.17064e-05
2.1701e-05
2.17044e-05
8.14719e-05
2.38859e-05
2.38856e-05
3.66977e-05
9.43508e-05
4.10368e-05
9.96826e-05
9.43251e-05
4.1037e-05
3.66965e-05
2.03084e-05
5.07128e-05
7.8984e-05
7.90024e-05
2.03064e-05
2.03083e-05
7.90143e-05
5.07165e-05
7.89961e-05
2.03103e-05
3.66929e-05
9.96833e-05
9.43002e-05
4.10325e-05
9.4327e-05
4.10327e-05
3.66941e-05
3.66952e-05
9.43608e-05
4.10402e-05
9.96871e-05
9.43276e-05
4.10339e-05
3.67024e-05
2.03089e-05
5.0713e-05
7.89984e-05
7.9009e-05
2.03068e-05
2.03087e-05
7.90212e-05
5.07168e-05
7.90106e-05
2.03108e-05
3.66986e-05
9.96919e-05
9.43031e-05
4.10299e-05
9.43364e-05
4.10359e-05
3.66913e-05
3.67002e-05
9.43493e-05
4.10411e-05
9.97444e-05
3.67013e-05
9.43755e-05
4.10412e-05
2.03121e-05
5.07267e-05
7.90375e-05
7.90195e-05
2.03141e-05
2.03122e-05
7.9008e-05
5.07235e-05
2.03102e-05
7.90261e-05
3.67052e-05
9.97433e-05
9.43983e-05
4.10454e-05
9.43732e-05
4.10455e-05
3.67052e-05
3.67062e-05
9.43524e-05
4.10384e-05
9.97507e-05
3.66991e-05
9.43848e-05
4.10444e-05
2.03125e-05
5.07272e-05
7.90445e-05
7.90342e-05
2.03146e-05
2.03127e-05
7.90226e-05
5.07236e-05
2.03106e-05
7.90331e-05
3.67026e-05
9.97499e-05
9.44082e-05
4.10489e-05
9.43763e-05
4.10427e-05
3.67088e-05
2.38807e-05
2.3881e-05
2.38803e-05
2.38806e-05
8.14626e-05
2.17027e-05
2.16998e-05
8.14552e-05
2.17047e-05
2.17018e-05
0.000105132
0.000128639
7.78605e-05
4.86441e-05
0.000105152
0.000128581
4.86441e-05
0.000105139
0.000128624
7.78579e-05
4.86377e-05
0.000105161
0.000128563
4.86308e-05
0.00010512
4.86392e-05
0.00012851
7.78534e-05
0.000105101
0.000128569
4.86397e-05
0.000105131
4.86263e-05
0.000128492
7.78532e-05
0.000105108
0.000128554
4.86328e-05
8.14651e-05
2.17066e-05
2.17036e-05
8.14723e-05
2.17046e-05
2.17016e-05
2.38856e-05
2.38854e-05
2.38852e-05
2.38849e-05
2.03158e-05
7.90308e-05
5.07359e-05
2.03138e-05
7.90491e-05
3.67118e-05
9.98079e-05
4.10466e-05
9.43974e-05
3.67043e-05
4.10517e-05
9.44309e-05
5.0733e-05
2.38899e-05
2.38895e-05
0.000199186
0.000199186
0.00020406
0.000199996
0.000199995
0.000189285
0.000188262
0.000137898
0.000160908
0.000160906
0.000180748
0.000160964
0.000160958
0.000137861
0.000138237
0.000161556
0.000161532
0.000181683
0.000138202
0.000161587
0.000161571
0.000137899
0.000160893
0.000160881
0.000180795
0.000160964
0.000160954
0.000137858
0.000138118
0.000181386
0.000161445
0.000161433
0.000161389
0.000161375
0.000138158
0.000137904
0.000160901
0.000160919
0.000180761
0.000160974
0.000160954
0.000137866
0.000138124
0.000181405
0.000161434
0.000161449
0.000161379
0.000161394
0.000138161
0.000137895
0.000160898
0.000160912
0.00018075
0.000160966
0.000160952
0.000137857
0.000138115
0.000181394
0.000161424
0.000161448
0.000161368
0.000161391
0.000138152
0.000138119
0.000181392
0.000161436
0.000161435
0.000138156
0.000161385
0.000161376
0.000199187
0.000199192
0.000204066
0.000199997
0.000200002
0.000189287
0.000188264
0.000199193
0.000199199
0.000204067
0.000200003
0.000200008
0.000189295
0.000188272
0.000199201
0.0001992
0.000204073
0.00020001
0.000200009
0.000189296
0.000188274
0.000204692
0.000201599
0.000201598
0.000200802
0.000200802
0.000190307
0.000191324
0.000204698
0.0002016
0.000201605
0.000200803
0.000200808
0.000190308
0.000191326
0.000204699
0.000201606
0.000201611
0.000200809
0.000200814
0.000190316
0.000191334
0.000204706
0.000201613
0.000201613
0.000200816
0.000200815
0.000190318
0.000191335
0.000170421
0.000137235
0.000175661
0.000143613
0.000137137
0.000175522
0.000170559
0.000159998
0.000146885
0.000103397
0.000122358
0.000146962
0.000122426
0.000159865
0.000160021
0.000122493
0.000103393
0.000147085
0.000147011
0.000122424
0.000160161
0.000170345
0.000143607
0.000137046
0.000175292
0.000137143
0.000175431
0.000170223
0.000170422
0.000175648
0.000137215
0.000143605
0.000175513
0.000137131
0.000170532
0.00015995
0.000146896
0.000103397
0.000122351
0.000146934
0.000122414
0.000159867
0.000160044
0.00012248
0.000103394
0.00014706
0.000147022
0.000122419
0.000160109
0.000170327
0.000143599
0.000175284
0.000137034
0.000175422
0.000137129
0.000170216
0.000137949
0.000180911
0.000161126
0.000161111
0.00016107
0.000161057
0.000137986
0.000137947
0.000180853
0.000161123
0.000161117
0.000137987
0.000161067
0.000161057
0.000138073
0.000181241
0.00016123
0.00016121
0.000138033
0.000161287
0.00016127
0.000170359
0.000137216
0.000175649
0.000143601
0.000137119
0.000175508
0.000170542
0.000159978
0.000146874
0.000103396
0.000122343
0.00012241
0.000146949
0.000159846
0.000160003
0.000122476
0.000103393
0.000147073
0.000122409
0.000147
0.000160141
0.000170332
0.000143599
0.000137027
0.000175279
0.000137124
0.000175421
0.000170163
0.000170411
0.000137225
0.00017565
0.000143604
0.000137128
0.000175512
0.000170535
0.000159969
0.000146879
0.000103394
0.000122347
0.000122417
0.000146917
0.000159843
0.000160002
0.000122482
0.000103391
0.00014704
0.000122413
0.00016012
0.000147002
0.000170325
0.000143602
0.000137036
0.000175283
0.000137133
0.000175422
0.000170208
0.000170738
0.000137212
0.000175722
0.000143812
0.000170558
0.000137307
0.000175861
0.000160301
0.000147315
0.000103473
0.000122605
0.000147241
0.000122539
0.000160462
0.000160306
0.000122475
0.000147121
0.000103477
0.000147192
0.000160156
0.000122541
0.000170763
0.000143814
0.000137397
0.000176078
0.000137303
0.000175939
0.000170935
0.00017074
0.000137221
0.000175725
0.000143815
0.000170603
0.000137316
0.000175864
0.000160355
0.00014729
0.000103472
0.000122608
0.000122548
0.00014725
0.000160406
0.000160256
0.000122481
0.000147125
0.000103474
0.000160167
0.000122544
0.000147163
0.000170786
0.000143817
0.000137406
0.00017608
0.000137311
0.000175943
0.000170944
0.000137953
0.000180922
0.000161113
0.000161137
0.000161079
0.000161061
0.000137991
0.000138077
0.000181244
0.000161222
0.000161235
0.000161277
0.00013804
0.000161296
0.000170414
0.000137217
0.000175645
0.000143609
0.000137136
0.000175511
0.000170525
0.000159942
0.000146879
0.000103389
0.000122347
0.000122412
0.000146916
0.000159842
0.000160027
0.000122478
0.000103385
0.000147041
0.000122416
0.000147004
0.000160097
0.000170321
0.000143603
0.000137037
0.000175283
0.000137132
0.000175419
0.000170208
0.000170398
0.000175645
0.000137212
0.000143601
0.000175507
0.000137114
0.000170533
0.000159963
0.000146849
0.000103376
0.000122331
0.000122399
0.000146925
0.000159831
0.000159989
0.000122465
0.000103373
0.000147049
0.000122397
0.000160126
0.000146975
0.000170319
0.000143599
0.000175279
0.000137023
0.000175417
0.000137119
0.000170198
0.000170717
0.000137231
0.000175721
0.000143807
0.000170613
0.000137306
0.000175844
0.000160368
0.000147291
0.000103466
0.000122606
0.000147251
0.000122548
0.000160401
0.000160247
0.000122481
0.000147126
0.000103469
0.000147164
0.0001602
0.000122543
0.000170818
0.000143826
0.000137393
0.000176023
0.000137321
0.000175955
0.000170899
0.000170742
0.00017572
0.000137208
0.000143812
0.000170583
0.000175856
0.000137303
0.000160286
0.000147285
0.000103453
0.000122595
0.000122527
0.000147225
0.000160458
0.000160293
0.000122463
0.000147096
0.000103456
0.000160143
0.000122531
0.000147167
0.000170758
0.000143814
0.00017606
0.000137391
0.000175934
0.000137298
0.000170939
0.000170365
0.000175658
0.000137222
0.000143608
0.000175517
0.000137125
0.000170553
0.000159984
0.000146875
0.000103395
0.000122344
0.000146951
0.000122416
0.000159851
0.000160006
0.000122482
0.000103391
0.000147075
0.000147001
0.000122412
0.000160147
0.000170339
0.000143605
0.00017529
0.000137034
0.000175431
0.000137131
0.000170166
0.000170767
0.00013723
0.000175736
0.00014382
0.000170603
0.000137326
0.000175874
0.000160314
0.000147326
0.000103473
0.000122622
0.00016049
0.000147252
0.000122554
0.000160327
0.00012249
0.000147132
0.000103477
0.000160173
0.000147204
0.000122558
0.00017078
0.000143825
0.000137415
0.00017609
0.000170964
0.00013732
0.000175953
0.000170752
0.00017573
0.000137218
0.000143818
0.00017056
0.000175869
0.000137313
0.000160301
0.000147317
0.000103471
0.00012261
0.000122543
0.000147242
0.000160476
0.000160313
0.000122477
0.000147122
0.000103475
0.000160159
0.000122546
0.000147193
0.000170758
0.00014382
0.000176085
0.000137403
0.000175948
0.000137308
0.000170955
0.000137945
0.000180911
0.000161106
0.000161125
0.000161073
0.000161049
0.000137983
0.000138068
0.000181232
0.000161205
0.000161233
0.000161261
0.000138031
0.000161288
0.000170413
0.000175647
0.000137222
0.000143605
0.000175514
0.000137126
0.000170539
0.000159978
0.000146866
0.000103394
0.000122345
0.000146943
0.000122413
0.000159847
0.000160005
0.000122479
0.00010339
0.000147067
0.000146992
0.000122412
0.000160141
0.000170328
0.000143603
0.000175286
0.000137034
0.000175423
0.00013713
0.000170211
0.000170723
0.000175724
0.000137227
0.000143804
0.000170621
0.000175846
0.000137303
0.000160382
0.000147301
0.000103474
0.000122608
0.000160413
0.000147267
0.00012255
0.000160258
0.000122485
0.000147143
0.000103477
0.000160217
0.000147182
0.000122546
0.000170825
0.000143823
0.000176025
0.00013739
0.000170906
0.00017596
0.000137317
0.000170745
0.000175723
0.000137219
0.000143808
0.000170602
0.000175834
0.000137313
0.000160306
0.000147303
0.00010347
0.000122608
0.000122544
0.000147243
0.000160466
0.000160307
0.000122478
0.000147114
0.000103474
0.000160161
0.000122544
0.000147185
0.000170783
0.000143824
0.000176028
0.000137402
0.00017597
0.000137309
0.000170942
0.000138072
0.000181236
0.000161228
0.00016122
0.000138035
0.000161287
0.000161275
0.000160634
0.000147361
0.000122606
0.000103552
0.000147434
0.000160442
0.000122672
0.00017115
0.000144022
0.000176165
0.000137396
0.000176302
0.000170947
0.000137491
0.00014735
0.000103551
0.000147424
0.000123039
0.000139416
0.000139419
0.000137179
0.000125837
0.000142541
0.000142544
0.000139598
0.000128793
0.00014563
0.000145632
0.00014193
0.000131888
0.000148675
0.000148677
0.00014428
0.000135101
0.00015167
0.000151672
0.000146513
0.000138411
0.00015461
0.000154612
0.000148761
0.000141798
0.00015749
0.000157492
0.000150901
0.000145246
0.000160307
0.000160308
0.000153006
0.000148737
0.000163059
0.000163061
0.000155081
0.000152256
0.000165746
0.000165748
0.00015703
0.000155788
0.000168365
0.000168367
0.000158957
0.000159321
0.000170914
0.000170916
0.000160831
0.000162841
0.000173393
0.000173395
0.000162644
0.000166336
0.000175801
0.000175802
0.000164382
0.000169797
0.000178136
0.000178136
0.000166079
0.000173215
0.000180396
0.000180396
0.000167698
0.000176581
0.000182581
0.00018258
0.000169262
0.000179886
0.000184689
0.000184688
0.000170766
0.000183125
0.00018672
0.000186718
0.000172236
0.000186289
0.000188674
0.000188671
0.000173619
0.000189374
0.00019055
0.000190546
0.000174937
0.000192372
0.000192347
0.000192342
0.0001762
0.000195281
0.000194065
0.00019406
0.000177377
0.000198094
0.000195705
0.0001957
0.000178538
0.00020081
0.000197267
0.00019726
0.000179654
0.000137161
0.000139241
0.000139409
0.000139406
0.000141756
0.000141753
0.000137241
0.000139164
0.00013942
0.000139404
0.000141765
0.00014175
0.000139425
0.000141764
0.000141773
0.000137126
0.000139231
0.000139433
0.000141766
0.000141779
0.000139278
0.00013957
0.000141635
0.000142534
0.00014253
0.000144852
0.00014485
0.000139624
0.000141595
0.000142544
0.000142529
0.000144862
0.000144848
0.000142551
0.000144862
0.000144869
0.000139531
0.000141614
0.000142558
0.000144864
0.000144877
0.000141646
0.000141926
0.000143965
0.000145621
0.000145617
0.000147907
0.000147904
0.000141975
0.000144011
0.000145631
0.000145617
0.000147917
0.000147904
0.000145638
0.000147918
0.000147925
0.000141908
0.000143968
0.000145645
0.00014792
0.000147932
0.000143995
0.000144271
0.000146263
0.000148663
0.000148661
0.000150913
0.000150912
0.000144276
0.000146256
0.000148674
0.000148661
0.000150924
0.000150911
0.000148681
0.000150927
0.000150931
0.000144284
0.000146286
0.000148688
0.000150928
0.000150938
0.000146268
0.000146546
0.000148465
0.000151657
0.000151655
0.000153866
0.000153866
0.000146548
0.000148485
0.000151669
0.000151655
0.000153877
0.000153864
0.000151676
0.000153881
0.000153884
0.000146551
0.000148353
0.000151682
0.000153882
0.000153891
0.00014849
0.000148779
0.000150657
0.000154595
0.000154595
0.00015676
0.000156759
0.000148732
0.000150674
0.000154607
0.000154593
0.000156771
0.000156758
0.000154613
0.000156776
0.000156777
0.000148828
0.000150529
0.00015462
0.000156778
0.000156784
0.000150661
0.000150932
0.000152653
0.000157474
0.000157473
0.00015959
0.000159591
0.000150911
0.000152777
0.000157486
0.000157472
0.000159602
0.000159589
0.00015749
0.000159609
0.000159607
0.000150994
0.000152773
0.000157498
0.00015961
0.000159615
0.000152759
0.000153067
0.00015472
0.000160289
0.000160288
0.000162359
0.000162359
0.000153009
0.000154808
0.000160301
0.000160287
0.00016237
0.000162357
0.000160305
0.000162378
0.000162374
0.000153013
0.000154822
0.000160313
0.000162379
0.000162382
0.000154826
0.000155113
0.000156755
0.000163041
0.00016304
0.000165063
0.000165061
0.000155021
0.000156807
0.000163053
0.000163038
0.000165074
0.000165059
0.000163056
0.000165081
0.000165075
0.000155084
0.000156795
0.000163064
0.000165083
0.000165084
0.000156813
0.000157089
0.000158704
0.000165728
0.000165726
0.000167698
0.000167696
0.000157004
0.000158737
0.00016574
0.000165724
0.000167709
0.000167694
0.00016574
0.000167717
0.00016771
0.000157045
0.000158735
0.000165749
0.000167719
0.000167719
0.000158752
0.00015901
0.00016055
0.000168346
0.000168344
0.000170264
0.000170263
0.000158975
0.000160617
0.000168358
0.000168341
0.000170275
0.000170259
0.000168358
0.000170284
0.000170275
0.000158962
0.000160611
0.000168367
0.000170285
0.000170285
0.000160621
0.000160873
0.000162365
0.000170894
0.000170893
0.00017276
0.000172758
0.000160838
0.000162447
0.000170906
0.00017089
0.000172771
0.000172755
0.000170906
0.000172781
0.000172771
0.000160817
0.000162426
0.000170916
0.000172782
0.000172781
0.000162436
0.000162687
0.000164168
0.000173373
0.000173371
0.000175184
0.000175184
0.000162642
0.00016418
0.000173384
0.000173368
0.000175195
0.000175179
0.000173384
0.000175206
0.000175195
0.000162634
0.00016418
0.000173395
0.000175207
0.000175206
0.000164178
0.000164397
0.0001659
0.000175779
0.000175778
0.000177536
0.000177536
0.000164396
0.000165887
0.00017579
0.000175773
0.000177547
0.00017753
0.00017579
0.000177559
0.000177547
0.000164366
0.000165833
0.000175801
0.00017756
0.000177558
0.000165872
0.000166077
0.000167522
0.000178113
0.000178112
0.000179815
0.000179814
0.000166075
0.000167517
0.000178124
0.000178106
0.000179826
0.000179808
0.000178123
0.000179838
0.000179824
0.000166113
0.000167509
0.000178134
0.000179838
0.000179835
0.000167517
0.000167706
0.000169074
0.000180372
0.000180371
0.000182018
0.000182017
0.000167713
0.000169098
0.000180384
0.000180365
0.000182029
0.00018201
0.000180382
0.000182042
0.000182027
0.000167722
0.000169098
0.000180393
0.000182041
0.000182038
0.000169091
0.000169293
0.000170582
0.000182556
0.000182556
0.000184144
0.000184144
0.000169271
0.000170615
0.000182568
0.000182549
0.000184156
0.000184137
0.000182565
0.000184169
0.000184153
0.000169265
0.000170608
0.000182577
0.000184168
0.000184165
0.000170607
0.000170792
0.000172029
0.000184664
0.000184663
0.000186194
0.000186193
0.000170773
0.000172068
0.000184676
0.000184656
0.000186207
0.000186186
0.000184673
0.00018622
0.000186203
0.000170766
0.000172053
0.000184685
0.000186218
0.000186215
0.000172045
0.000172235
0.000173435
0.000186695
0.000186694
0.000188167
0.000188166
0.000172225
0.000173459
0.000186708
0.000186686
0.00018818
0.000188158
0.000186703
0.000188193
0.000188175
0.000172216
0.000173452
0.000186715
0.00018819
0.000188187
0.000173443
0.00017361
0.000174769
0.000188647
0.000188647
0.000190061
0.000190061
0.000173603
0.000174789
0.000188661
0.000188639
0.000190074
0.000190052
0.000188656
0.000190088
0.000190069
0.0001736
0.00017478
0.000188668
0.000190084
0.000190082
0.000174767
0.000174929
0.000176035
0.000190522
0.000190522
0.000191877
0.000191877
0.00017493
0.000176069
0.000190536
0.000190513
0.000191891
0.000191868
0.00019053
0.000191905
0.000191885
0.000174921
0.000176056
0.000190543
0.0001919
0.000191898
0.000176031
0.000176197
0.000177232
0.000192319
0.000192318
0.000193614
0.000193614
0.000176184
0.00017725
0.000192334
0.000192309
0.000193629
0.000193605
0.000192327
0.000193643
0.000193622
0.000176176
0.000177238
0.00019234
0.000193637
0.000193635
0.000177284
0.000177403
0.000178446
0.000194036
0.000194036
0.000195272
0.000195273
0.000177408
0.000178382
0.000194052
0.000194027
0.000195287
0.000195263
0.000194045
0.000195302
0.000195281
0.000177403
0.000178372
0.000194058
0.000195296
0.000195294
0.000178383
0.000178503
0.000179545
0.000195675
0.000195675
0.000196852
0.000196853
0.000178576
0.000179481
0.000195691
0.000195666
0.000196867
0.000196843
0.000195683
0.000196883
0.00019686
0.000178566
0.000179471
0.000195696
0.000196877
0.000196874
0.000179465
0.000179581
0.000180573
0.000197235
0.000197235
0.000198353
0.000198353
0.000179661
0.000180513
0.000197251
0.000197226
0.000198368
0.000198344
0.000197244
0.000198385
0.000198361
0.00017965
0.000180502
0.000197257
0.000198378
0.000198375
0.0001805
9.22946e-05
5.00161e-05
5.00327e-05
9.20801e-05
2.36122e-05
2.36167e-05
9.23024e-05
5.00148e-05
5.00307e-05
9.20801e-05
0.000123033
0.00012304
0.000123056
0.000125121
0.000125116
0.000125123
0.000125138
0.000122006
9.38501e-05
0.000134845
0.000140201
9.41233e-05
0.000135714
0.000121361
2.36102e-05
2.36147e-05
0.000122003
0.000134867
9.38425e-05
0.000140203
0.000135734
9.41277e-05
0.000121363
7.37708e-05
7.37643e-05
0.000138044
7.38642e-05
7.3868e-05
9.27702e-05
5.00473e-05
9.25546e-05
5.00627e-05
2.36217e-05
2.36264e-05
9.27804e-05
5.00447e-05
9.25664e-05
5.00598e-05
0.000125831
0.000125838
0.000125854
0.00012804
0.000128036
0.000128043
0.000128058
0.000123316
9.4449e-05
0.000138347
0.000143318
0.000122707
9.47206e-05
0.000139225
2.36197e-05
2.36243e-05
0.000123316
0.000138366
9.44505e-05
0.00014332
0.000122699
0.000139244
9.47222e-05
7.40352e-05
7.40298e-05
0.000140476
7.41253e-05
7.41322e-05
9.32316e-05
5.00772e-05
9.3019e-05
5.00926e-05
2.36315e-05
2.36363e-05
9.32356e-05
5.00742e-05
9.30278e-05
5.00897e-05
0.000128789
0.000128796
0.000128812
0.000131103
0.000131099
0.000131106
0.000131122
0.00012458
9.5028e-05
0.000141879
0.000146395
0.000124
9.52936e-05
0.000142762
2.36296e-05
2.36343e-05
0.000124586
0.000141896
9.50283e-05
0.000146398
0.000123989
0.000142779
9.53002e-05
7.42898e-05
7.42839e-05
0.000142866
7.43758e-05
7.43793e-05
9.36721e-05
5.01072e-05
9.34655e-05
5.01227e-05
2.36417e-05