/*--------------------------------*- C++ -*----------------------------------*\
| =========                 |                                                 |
| \\      /  F ield         | OpenFOAM: The Open Source CFD Toolbox           |
|  \\    /   O peration     | Version:  v1906                                 |
|   \\  /    A nd           | Web:      www.OpenFOAM.com                      |
|    \\/     M anipulation  |                                                 |
\*---------------------------------------------------------------------------*/
FoamFile
{
    version     2.0;
    format      ascii;
    class       volScalarField;
    location    "650";
    object      p;
}
// * * * * * * * * * * * * * * * * * * * * * * * * * * * * * * * * * * * * * //

dimensions      [0 2 -2 0 0 0 0];


internalField   nonuniform List<scalar> 
42840
(
0.000781413
0.000781356
0.000781356
0.000782927
0.00074762
0.000782927
0.000753265
0.000781356
0.000781356
0.000754876
0.000754876
0.000782927
0.000753265
0.000781356
0.000781356
0.000754876
0.000754876
0.000781356
0.000754876
0.000754876
0.000782927
0.000753265
0.000781356
0.000754876
0.000754876
0.000753265
0.000746047
0.000746047
0.000770366
0.000783489
0.000770367
0.000783476
0.000783496
0.000770366
0.000770365
0.000783488
0.000770367
0.000783477
0.000781413
0.000781413
0.000781413
0.000754931
0.000754931
0.000754931
0.000754931
0.000770449
0.000783441
0.000781378
0.00077253
0.000770403
0.000772552
0.000783394
0.000783496
0.000770366
0.000770449
0.000781378
0.000783442
0.000772531
0.000772552
0.000770403
0.000783394
0.000783488
0.000783488
0.000770919
0.00077036
0.00077036
0.000748184
0.000748184
0.000783496
0.000770366
0.000783496
0.000770366
0.000783488
0.000783488
0.000770919
0.00077036
0.00077036
0.000752712
0.000765847
0.000752713
0.000765847
0.000765276
0.000752707
0.000752707
0.000765839
0.000765839
0.000770366
0.000783489
0.000770367
0.000783476
0.000770449
0.000783442
0.000781378
0.000772531
0.000770403
0.000772552
0.000783394
0.000770449
0.000783441
0.000781378
0.00077253
0.000770403
0.000772552
0.000783394
0.000765827
0.000752713
0.00076584
0.000752712
0.000765827
0.000752714
0.000765839
0.000752712
0.000765744
0.000763704
0.000752749
0.000754897
0.000765793
0.000763725
0.000752795
0.000765744
0.000763704
0.000752749
0.000754897
0.000765792
0.000763725
0.000752795
0.000783488
0.000783488
0.00077092
0.000770361
0.000770361
0.000783496
0.000770366
0.000752713
0.000765847
0.000765276
0.000752707
0.000752708
0.000765839
0.000765839
0.000752712
0.000765847
0.000770449
0.000783441
0.000781378
0.000772531
0.000770403
0.000772552
0.000783394
0.000770365
0.000783488
0.000770367
0.000783477
0.000770449
0.000781378
0.000783441
0.000772531
0.000772552
0.000770403
0.000783394
0.000765828
0.000752714
0.000765839
0.000752712
0.000765744
0.000763704
0.00075275
0.000754897
0.000765792
0.000763725
0.000752794
0.000765828
0.000752714
0.000765839
0.000752712
0.000765745
0.000763704
0.000754897
0.00075275
0.000763725
0.000765792
0.000752794
0.000770366
0.000783489
0.000770367
0.000783477
0.000770449
0.000781378
0.000783442
0.000772531
0.000772552
0.000770403
0.000783394
0.000770365
0.000783489
0.000770367
0.000783477
0.000765745
0.000763704
0.00075275
0.000754897
0.000765792
0.000763725
0.000752794
0.000765827
0.000752714
0.000765839
0.000752712
0.000765745
0.000763704
0.000754897
0.000752749
0.000763725
0.000765793
0.000752794
0.000765827
0.000752713
0.00076584
0.000752712
0.000783488
0.000783488
0.000770919
0.000770361
0.00077036
0.000783496
0.000770366
0.000752712
0.000765847
0.000765276
0.000752708
0.000752707
0.000765839
0.000765839
0.000752712
0.000765847
0.000770449
0.000781378
0.000783442
0.000772531
0.000772552
0.000770403
0.000783394
0.000770366
0.000783489
0.000770367
0.000783476
0.000770365
0.000783489
0.000770367
0.000783477
0.000765744
0.000763704
0.000754897
0.000752749
0.000763725
0.000765792
0.000752795
0.000765744
0.000763704
0.000754897
0.000752749
0.000763725
0.000765792
0.000752795
0.000765827
0.000752713
0.00076584
0.000752712
0.000765827
0.000752714
0.00076584
0.000752712
0.000783496
0.000770366
0.000783496
0.000770366
0.000765276
0.000752707
0.000752707
0.000765839
0.000765839
0.000752712
0.000765847
0.000752713
0.000765847
0.000746067
0.000748137
0.000748089
0.000748185
0.000748173
0.000748137
0.000748185
0.000748192
0.000748192
0.000774675
0.000770359
0.000770364
0.000774652
0.000774673
0.000774656
0.000770359
0.000779187
0.000779191
0.000783492
0.000779179
0.0007835
0.000774676
0.000770355
0.000774665
0.000774669
0.000770363
0.000779183
0.00077919
0.000783496
0.000783479
0.000779183
0.000779188
0.000783498
0.00077919
0.000774672
0.000774675
0.000770364
0.000770359
0.000774653
0.000774656
0.000774673
0.000770359
0.000779187
0.000779191
0.000783493
0.000779179
0.0007835
0.000774676
0.000770354
0.000774665
0.000774669
0.000770363
0.000779183
0.00077919
0.00078348
0.000783497
0.000779188
0.000779183
0.000783498
0.00077919
0.000774672
0.000774679
0.000770361
0.000770361
0.000774682
0.000774682
0.000770352
0.000779209
0.000783432
0.000779185
0.000783492
0.000779239
0.000779193
0.000783465
0.000779209
0.000783432
0.000779185
0.000783492
0.000779239
0.000779193
0.000783465
0.000774641
0.000770368
0.000774664
0.000770414
0.000774608
0.000774668
0.000770384
0.000774641
0.000770368
0.000774664
0.000770414
0.000774608
0.000774668
0.000770384
0.000779177
0.000783506
0.000783506
0.000779186
0.000779186
0.000783503
0.000743902
0.000748127
0.000748187
0.000743878
0.000748161
0.000743932
0.000743886
0.000743902
0.000748128
0.000748188
0.000743878
0.000748161
0.000743932
0.000743886
0.00074387
0.000748202
0.000748202
0.000748198
0.000743879
0.000743879
0.00077919
0.000774672
0.00077919
0.000774672
0.000774678
0.000770361
0.000770361
0.000774682
0.000774682
0.000770352
0.000779208
0.000783432
0.000779185
0.000783492
0.000779193
0.000779239
0.000783465
0.000779208
0.000783432
0.000779185
0.000783491
0.000779193
0.000779239
0.000783465
0.000774641
0.000770368
0.000774664
0.000770414
0.000774668
0.000770384
0.000774608
0.000774641
0.000770368
0.000774664
0.000770414
0.000774668
0.000770384
0.000774608
0.000779177
0.000783506
0.000783506
0.000779186
0.000779186
0.000783502
0.00075702
0.00076154
0.00075702
0.00076154
0.000761526
0.000765857
0.000765857
0.000765853
0.000761535
0.000761535
0.000756989
0.00075276
0.000757013
0.000752715
0.000757016
0.000756956
0.00075273
0.000756989
0.000752761
0.000757013
0.000752715
0.000757016
0.000756956
0.00075273
0.000761558
0.000765842
0.000765783
0.000761534
0.000765816
0.000761542
0.000761588
0.000761558
0.000765842
0.000765783
0.000761534
0.000765816
0.000761542
0.000761588
0.000757027
0.000752708
0.000752708
0.00075703
0.00075703
0.000752699
0.000774675
0.000770359
0.000770364
0.000774652
0.000774673
0.000774656
0.000770359
0.000779187
0.000779191
0.000783493
0.000779179
0.0007835
0.000774676
0.000770354
0.000774665
0.000774669
0.000770363
0.000779183
0.00077919
0.000783496
0.00078348
0.000779183
0.000779188
0.000783498
0.000761533
0.000765847
0.00076583
0.00076154
0.000765849
0.000761533
0.000761538
0.000757025
0.000757013
0.000752701
0.00075271
0.000757017
0.000761537
0.000765843
0.000761541
0.000765851
0.000761529
0.000757023
0.000757001
0.000752705
0.00075271
0.000752706
0.000757021
0.000757004
0.000761533
0.000765847
0.000765831
0.00076154
0.000765849
0.000761533
0.000761538
0.000757024
0.000757013
0.000752701
0.000757017
0.00075271
0.000761537
0.000765844
0.000761541
0.000765851
0.000761528
0.000757023
0.000757001
0.000752705
0.00075271
0.000757021
0.000757004
0.000752706
0.000774679
0.000770361
0.000770361
0.000774682
0.000774682
0.000770352
0.000779209
0.000783432
0.000779185
0.000783492
0.000779193
0.000779239
0.000783465
0.000779209
0.000783432
0.000779186
0.000783492
0.000779239
0.000779193
0.000783465
0.000774641
0.000770368
0.000774664
0.000770415
0.000774668
0.000774608
0.000770384
0.000774641
0.000770368
0.000774664
0.000770415
0.000774608
0.000774668
0.000770384
0.000779177
0.000783506
0.000783506
0.000779186
0.000779186
0.000783502
0.00077919
0.000774672
0.00075702
0.00076154
0.000761526
0.000765857
0.000765857
0.000765853
0.000761535
0.000761535
0.000756989
0.000752761
0.000757012
0.000752715
0.000756955
0.000757016
0.00075273
0.000756989
0.000752761
0.000757012
0.000752715
0.000757016
0.000756956
0.00075273
0.000761558
0.000765842
0.000765782
0.000761534
0.000761588
0.000765816
0.000761542
0.000761558
0.000765842
0.000765782
0.000761535
0.000765816
0.000761542
0.000761588
0.000757027
0.000752708
0.000752708
0.00075703
0.00075703
0.000752699
0.00075702
0.00076154
0.000774675
0.000770359
0.000770364
0.000774653
0.000774673
0.000774656
0.000770359
0.000779187
0.000779192
0.000783492
0.000779179
0.0007835
0.000774676
0.000770355
0.000774665
0.000774669
0.000770363
0.000779184
0.00077919
0.000783496
0.000783479
0.000779183
0.000779188
0.000783498
0.000761533
0.000765831
0.000765847
0.000761539
0.000765849
0.000761537
0.000761533
0.000757025
0.000757013
0.000752701
0.00075271
0.000757017
0.000761537
0.000765844
0.000761541
0.000765851
0.000761528
0.000757023
0.000757001
0.00075271
0.000752706
0.000752706
0.000757004
0.000757021
0.000761533
0.000765847
0.00076583
0.000761539
0.000765849
0.000761533
0.000761538
0.000757025
0.000757013
0.000752701
0.000757017
0.00075271
0.000761537
0.000765843
0.000761541
0.000765851
0.000761529
0.000757023
0.000757001
0.000752706
0.000752711
0.000757021
0.000757004
0.000752706
0.000774675
0.000770364
0.000770359
0.000774653
0.000774656
0.000774673
0.000770359
0.000779187
0.000779192
0.000783493
0.000779179
0.0007835
0.000774676
0.000770354
0.000774665
0.000774669
0.000770363
0.000779183
0.00077919
0.00078348
0.000783497
0.000779188
0.000779183
0.000783499
0.000774675
0.000770359
0.000770364
0.000774653
0.000774673
0.000774656
0.000770359
0.000779188
0.000779191
0.000783493
0.000779179
0.0007835
0.000774676
0.000770354
0.000774665
0.000774669
0.000770363
0.000779183
0.00077919
0.000783497
0.00078348
0.000779183
0.000779188
0.000783499
0.000761533
0.000765831
0.000765847
0.000761539
0.00076585
0.000761538
0.000761533
0.000757025
0.000757013
0.000752701
0.000757017
0.00075271
0.000761537
0.000765844
0.000761541
0.000765851
0.000761528
0.000757023
0.000757001
0.00075271
0.000752706
0.000757004
0.000757021
0.000752706
0.000761533
0.000765847
0.000765831
0.000761539
0.000765849
0.000761533
0.000761537
0.000757024
0.000757013
0.000752701
0.000757017
0.00075271
0.000761537
0.000765844
0.000761541
0.000765851
0.000761528
0.000757023
0.000757001
0.000752706
0.00075271
0.000757021
0.000757004
0.000752706
0.000774679
0.000770361
0.000770361
0.000774682
0.000774682
0.000770352
0.000779209
0.000783432
0.000779186
0.000783491
0.000779193
0.00077924
0.000783465
0.000779209
0.000783432
0.000779185
0.000783491
0.000779239
0.000779193
0.000783465
0.000774641
0.000770369
0.000774664
0.000770415
0.000774667
0.000774608
0.000770384
0.000774641
0.000770369
0.000774664
0.000770414
0.000774608
0.000774668
0.000770384
0.000779177
0.000783506
0.000783506
0.000779186
0.000779186
0.000783502
0.00077919
0.000774672
0.00075702
0.00076154
0.000761526
0.000765857
0.000765857
0.000765853
0.000761535
0.000761535
0.000756989
0.000752761
0.000757012
0.000752715
0.000756955
0.000757015
0.000752731
0.000756989
0.000752761
0.000757013
0.000752715
0.000757016
0.000756956
0.00075273
0.000761558
0.000765842
0.000765782
0.000761535
0.000761588
0.000765816
0.000761542
0.000761558
0.000765842
0.000765783
0.000761534
0.000765816
0.000761542
0.000761588
0.000757026
0.000752708
0.000752708
0.00075703
0.00075703
0.000752699
0.00075702
0.00076154
0.000774675
0.000770364
0.000770359
0.000774652
0.000774656
0.000774673
0.000770359
0.000779187
0.000779191
0.000783493
0.000779179
0.0007835
0.000774676
0.000770354
0.000774665
0.000774669
0.000770363
0.000779184
0.00077919
0.000783479
0.000783497
0.000779189
0.000779184
0.000783498
0.000774675
0.000770364
0.000770359
0.000774653
0.000774655
0.000774673
0.000770359
0.000779187
0.000779192
0.000783493
0.000779179
0.0007835
0.000774676
0.000770355
0.000774665
0.000774669
0.000770363
0.000779184
0.00077919
0.000783479
0.000783497
0.000779189
0.000779183
0.000783498
0.000761533
0.00076583
0.000765847
0.00076154
0.000765849
0.000761538
0.000761533
0.000757025
0.000757013
0.000752701
0.000757017
0.00075271
0.000761537
0.000765844
0.000761541
0.000765851
0.000761528
0.000757023
0.000757
0.000752711
0.000752706
0.000757004
0.000757021
0.000752706
0.000761533
0.00076583
0.000765847
0.000761539
0.000765849
0.000761538
0.000761533
0.000757024
0.000757013
0.000752701
0.000757017
0.00075271
0.000761537
0.000765843
0.000761541
0.000765851
0.000761529
0.000757022
0.000757001
0.000752711
0.000752706
0.000757004
0.000757021
0.000752706
0.00077919
0.000774672
0.00077919
0.000774672
0.000761526
0.000765857
0.000765857
0.000765853
0.000761535
0.000761535
0.000756989
0.00075276
0.000757012
0.000752715
0.00075273
0.000756956
0.000757016
0.000756989
0.00075276
0.000757012
0.000752715
0.00075273
0.000756956
0.000757016
0.000761558
0.000765842
0.000765783
0.000761534
0.000765816
0.000761588
0.000761542
0.000761558
0.000765842
0.000765783
0.000761534
0.000765816
0.000761588
0.000761542
0.000757027
0.000752708
0.000752708
0.000752699
0.00075703
0.00075703
0.00075702
0.00076154
0.00075702
0.00076154
0.000743881
0.000748189
0.000743885
0.000748196
0.000743872
0.000743877
0.000743883
0.000748193
0.000748176
0.000748195
0.000743877
0.000743881
0.000743885
0.000743884
0.000743884
0.000781448
0.000781448
0.000772587
0.000772622
0.000772622
0.000772669
0.000781496
0.000779311
0.000783204
0.000783204
0.000779745
0.000779485
0.000779485
0.000783364
0.000744003
0.000747898
0.000747899
0.000744435
0.000748059
0.000744176
0.000744176
0.000779311
0.000783203
0.000783204
0.000779745
0.000779485
0.000779485
0.000783364
0.000756888
0.000756449
0.000753006
0.000753005
0.000756726
0.000756727
0.000752832
0.000779311
0.000783203
0.000783204
0.000779745
0.000779485
0.000779485
0.000783364
0.000756887
0.000756448
0.000753006
0.000753005
0.000756726
0.000756727
0.000752832
0.000779311
0.000783203
0.000783205
0.000779745
0.000779485
0.000779485
0.000783364
0.000756887
0.000756449
0.000753006
0.000753005
0.000756726
0.000756727
0.000752832
0.000756888
0.000756449
0.000753005
0.000753005
0.000752832
0.000756727
0.000756727
0.000781448
0.000781448
0.000772587
0.000772622
0.000772622
0.000772669
0.000781496
0.000781448
0.000781448
0.000772587
0.000772622
0.000772622
0.000772669
0.000781496
0.000781448
0.000781448
0.000772587
0.000772622
0.000772622
0.000772669
0.000781496
0.00076376
0.000754965
0.000754965
0.000763794
0.000763794
0.000763841
0.000755012
0.00076376
0.000754965
0.000754965
0.000763794
0.000763794
0.000763841
0.000755012
0.00076376
0.000754965
0.000754965
0.000763794
0.000763794
0.000763841
0.000755012
0.00076376
0.000754965
0.000754965
0.000763794
0.000763794
0.000763841
0.000755012
0.000774339
0.000770445
0.000770686
0.00077457
0.000774574
0.000774342
0.000770691
0.000779476
0.000783294
0.000779228
0.000783412
0.000779389
0.000779255
0.000783192
0.000774367
0.00077043
0.000774617
0.000770565
0.00077447
0.000774588
0.000770651
0.000779516
0.000779274
0.000783398
0.000783167
0.00077927
0.000779511
0.000783164
0.00077434
0.000770686
0.000770445
0.00077457
0.000774343
0.000774574
0.00077069
0.000779476
0.000783294
0.000779227
0.000783412
0.00077939
0.000779254
0.000783192
0.000774367
0.00077043
0.000774618
0.000770565
0.00077447
0.000774588
0.000770651
0.000779516
0.000779274
0.000783167
0.000783398
0.000779511
0.00077927
0.000783164
0.00077454
0.000774102
0.00077066
0.000770659
0.00077438
0.00077438
0.000770486
0.00077454
0.000774102
0.00077066
0.00077066
0.000770486
0.000774379
0.00077438
0.00076166
0.000762093
0.000765553
0.000765554
0.000765714
0.000761834
0.000761833
0.00077434
0.000770445
0.000770686
0.00077457
0.000774574
0.000774342
0.00077069
0.000779476
0.000783295
0.000779227
0.000783412
0.000779254
0.000779389
0.000783192
0.000774368
0.000770429
0.000774618
0.000770564
0.000774589
0.000774471
0.000770651
0.000779516
0.000779274
0.000783398
0.000783167
0.00077927
0.000779511
0.000783164
0.00077434
0.000770445
0.000770686
0.00077457
0.000774574
0.000774342
0.000770691
0.000779476
0.000783294
0.000779228
0.000783412
0.000779254
0.00077939
0.000783191
0.000774367
0.00077043
0.000774617
0.000770565
0.000774588
0.000770651
0.00077447
0.000779516
0.000779273
0.000783398
0.000783167
0.00077927
0.000779511
0.000783164
0.000761864
0.000765749
0.000765516
0.000761622
0.000765514
0.000761619
0.00076186
0.000756715
0.00075291
0.000756966
0.000752776
0.000756818
0.000756936
0.000752996
0.000761824
0.000765763
0.000765645
0.000761576
0.000761738
0.000765542
0.000761603
0.000756687
0.000756918
0.000752791
0.000753032
0.000756922
0.000756689
0.000753036
0.000761864
0.000765749
0.000765516
0.000761622
0.000765514
0.000761619
0.00076186
0.000756714
0.000752911
0.000756965
0.000752776
0.000756936
0.000756817
0.000752997
0.000761825
0.000765763
0.000765644
0.000761577
0.000765541
0.000761603
0.000761739
0.000756687
0.000756918
0.000752791
0.000753032
0.000756922
0.000756689
0.000753036
0.00077454
0.000774102
0.00077066
0.00077066
0.00077438
0.000774379
0.000770486
0.00076166
0.000762093
0.000765553
0.000765554
0.000761834
0.000765714
0.000761833
0.00077434
0.000770445
0.000770686
0.00077457
0.000774574
0.000774342
0.000770691
0.000779476
0.000783294
0.000779228
0.000783412
0.000779254
0.00077939
0.000783191
0.000774367
0.00077043
0.000774617
0.000770565
0.000774588
0.00077447
0.000770651
0.000779516
0.000779273
0.000783398
0.000783167
0.00077927
0.000779511
0.000783164
0.00077434
0.000770686
0.000770445
0.00077457
0.000774342
0.000774574
0.000770691
0.000779476
0.000783294
0.000779228
0.000783412
0.000779254
0.00077939
0.000783192
0.000774367
0.00077043
0.000774617
0.000770565
0.000774588
0.000770651
0.00077447
0.000779516
0.000779273
0.000783167
0.000783398
0.000779511
0.00077927
0.000783164
0.000761864
0.000765748
0.000765517
0.000761623
0.000765514
0.000761619
0.00076186
0.000756714
0.000752911
0.000756965
0.000752776
0.000756818
0.000756936
0.000752997
0.000761825
0.000765763
0.000765645
0.000761577
0.000761738
0.000765541
0.000761604
0.000756687
0.000756917
0.000752791
0.000753031
0.000756922
0.000756689
0.000753036
0.000761864
0.000765516
0.000765749
0.000761622
0.000765514
0.00076186
0.000761619
0.000756714
0.000752911
0.000756965
0.000752776
0.000756936
0.000756817
0.000752997
0.000761825
0.000765763
0.000765644
0.000761577
0.000765542
0.000761603
0.000761739
0.000756687
0.000756918
0.000753031
0.000752791
0.000756689
0.000756922
0.000753036
0.00077434
0.000770686
0.000770445
0.00077457
0.000774342
0.000774574
0.00077069
0.000779476
0.000783295
0.000779227
0.000783412
0.000779389
0.000779254
0.000783192
0.000774368
0.00077043
0.000774618
0.000770564
0.000774471
0.000774588
0.000770651
0.000779515
0.000779273
0.000783167
0.000783398
0.000779511
0.00077927
0.000783165
0.000761864
0.000765749
0.000765517
0.000761622
0.000765514
0.000761619
0.00076186
0.000756714
0.000752911
0.000756965
0.000752776
0.000752997
0.000756818
0.000756936
0.000761825
0.000765763
0.000765645
0.000761577
0.000765541
0.000761738
0.000761604
0.000756687
0.000756918
0.000752791
0.000753031
0.000753036
0.000756922
0.000756689
0.000761864
0.000765517
0.000765749
0.000761622
0.000765514
0.000761859
0.000761619
0.000756715
0.00075291
0.000756966
0.000752776
0.000756936
0.000756818
0.000752996
0.000761824
0.000765763
0.000765645
0.000761576
0.000765542
0.000761603
0.000761738
0.000756687
0.000756918
0.000753031
0.000752791
0.000756689
0.000756922
0.000753036
0.00077454
0.000774102
0.00077066
0.00077066
0.00077438
0.000774379
0.000770486
0.00076166
0.000762093
0.000765553
0.000765554
0.000761834
0.000765714
0.000761833
0.00077434
0.000770686
0.000770445
0.00077457
0.000774343
0.000774574
0.00077069
0.000779476
0.000783294
0.000779228
0.000783412
0.00077939
0.000779255
0.000783192
0.000774367
0.00077043
0.000774618
0.000770565
0.00077447
0.000774588
0.000770651
0.000779516
0.000779273
0.000783167
0.000783398
0.000779511
0.00077927
0.000783164
0.000761864
0.000765517
0.000765748
0.000761623
0.000765514
0.000761859
0.000761619
0.000756714
0.000752911
0.000756966
0.000752776
0.000752997
0.000756817
0.000756936
0.000761825
0.000765763
0.000765644
0.000761577
0.000765541
0.000761739
0.000761603
0.000756687
0.000756917
0.000753031
0.000752791
0.000753036
0.00075669
0.000756921
0.000761864
0.000765517
0.000765748
0.000761622
0.000765514
0.000761859
0.000761619
0.000756714
0.000752911
0.000756966
0.000752776
0.000756936
0.000756817
0.000752997
0.000761825
0.000765763
0.000765644
0.000761577
0.000765542
0.000761604
0.000761739
0.000756687
0.000756917
0.000753031
0.000752791
0.00075669
0.000756922
0.000753036
0.00076166
0.000762092
0.000765554
0.000765554
0.000765715
0.000761833
0.000761833
0.000744167
0.00074799
0.000748108
0.00074392
0.000744081
0.000747886
0.000743947
0.000744207
0.000743965
0.000747861
0.000748093
0.000744202
0.000747858
0.000743962
0.000747989
0.000743921
0.000744082
0.00166584
0.00166576
0.00166576
0.00166733
0.00163002
0.00162994
0.00162994
0.00163151
0.00159428
0.0015942
0.0015942
0.00159576
0.0015586
0.00155851
0.00155851
0.00156008
0.00152298
0.00152289
0.00152289
0.00152445
0.00148742
0.00148733
0.00148733
0.00148889
0.0014519
0.00145181
0.00145181
0.00145337
0.00141644
0.00141634
0.00141634
0.0014179
0.00138101
0.00138091
0.00138091
0.00138247
0.00134562
0.00134552
0.00134552
0.00134708
0.00131027
0.00131017
0.00131017
0.00131172
0.00127495
0.00127484
0.00127484
0.0012764
0.00123964
0.00123955
0.00123955
0.0012411
0.00120437
0.00120427
0.00120427
0.00120583
0.00116911
0.00116901
0.00116901
0.00117057
0.00113386
0.00113377
0.00113377
0.00113533
0.00109862
0.00109854
0.00109854
0.0011001
0.0010634
0.00106331
0.00106331
0.00106487
0.00102817
0.00102809
0.00102809
0.00102965
0.000992945
0.00099287
0.00099287
0.00099443
0.000957717
0.000957644
0.000957644
0.000959205
0.000922481
0.000922412
0.000922411
0.000923975
0.000887236
0.00088717
0.00088717
0.000888734
0.000851978
0.000851915
0.000851915
0.000853482
0.000816705
0.000816645
0.000816645
0.000818214
0.00166733
0.00163725
0.00166576
0.00166576
0.00163889
0.00163889
0.00166733
0.00163725
0.00166576
0.00166576
0.00163889
0.00163889
0.00166576
0.00163889
0.00163889
0.00166733
0.00163724
0.00166576
0.00163889
0.00163889
0.00163724
0.00163151
0.00160148
0.00162994
0.00162994
0.00160313
0.00160313
0.00163151
0.00160148
0.00162994
0.00162994
0.00160313
0.00160313
0.00162994
0.00160313
0.00160313
0.00163151
0.00160148
0.00162994
0.00160313
0.00160313
0.00160148
0.00159576
0.00156579
0.0015942
0.0015942
0.00156743
0.00156743
0.00159576
0.00156579
0.0015942
0.0015942
0.00156743
0.00156743
0.0015942
0.00156743
0.00156743
0.00159576
0.00156579
0.0015942
0.00156743
0.00156743
0.00156579
0.00156008
0.00153016
0.00155851
0.00155851
0.00153179
0.00153179
0.00156008
0.00153016
0.00155851
0.00155851
0.00153179
0.00153179
0.00155851
0.00153179
0.00153179
0.00156008
0.00153016
0.00155851
0.00153179
0.00153179
0.00153016
0.00152445
0.00149458
0.00152289
0.00152289
0.00149621
0.00149621
0.00152445
0.00149458
0.00152289
0.00152289
0.00149621
0.00149621
0.00152289
0.00149621
0.00149621
0.00152445
0.00149458
0.00152289
0.00149621
0.00149621
0.00149458
0.00148889
0.00145905
0.00148733
0.00148732
0.00146068
0.00146068
0.00148889
0.00145905
0.00148733
0.00148733
0.00146068
0.00146068
0.00148733
0.00146068
0.00146068
0.00148889
0.00145905
0.00148733
0.00146068
0.00146068
0.00145905
0.00145337
0.00142358
0.00145181
0.00145181
0.0014252
0.0014252
0.00145337
0.00142358
0.00145181
0.00145181
0.0014252
0.0014252
0.00145181
0.0014252
0.0014252
0.00145337
0.00142358
0.00145181
0.0014252
0.0014252
0.00142358
0.0014179
0.00138814
0.00141634
0.00141634
0.00138977
0.00138977
0.0014179
0.00138814
0.00141634
0.00141634
0.00138977
0.00138977
0.00141634
0.00138977
0.00138977
0.0014179
0.00138814
0.00141634
0.00138977
0.00138977
0.00138814
0.00138247
0.00135274
0.00138091
0.00138091
0.00135437
0.00135437
0.00138247
0.00135274
0.00138091
0.00138091
0.00135437
0.00135437
0.00138091
0.00135437
0.00135437
0.00138247
0.00135274
0.00138091
0.00135437
0.00135437
0.00135274
0.00134708
0.00131738
0.00134552
0.00134552
0.001319
0.001319
0.00134708
0.00131738
0.00134552
0.00134552
0.001319
0.001319
0.00134552
0.001319
0.001319
0.00134708
0.00131738
0.00134552
0.001319
0.001319
0.00131738
0.00131172
0.00128205
0.00131017
0.00131017
0.00128367
0.00128367
0.00131172
0.00128205
0.00131017
0.00131017
0.00128367
0.00128367
0.00131017
0.00128367
0.00128367
0.00131172
0.00128205
0.00131017
0.00128367
0.00128367
0.00128205
0.0012764
0.00124675
0.00127484
0.00127484
0.00124837
0.00124837
0.0012764
0.00124675
0.00127484
0.00127484
0.00124837
0.00124837
0.00127484
0.00124837
0.00124837
0.0012764
0.00124675
0.00127484
0.00124837
0.00124837
0.00124675
0.0012411
0.00121147
0.00123955
0.00123955
0.00121309
0.00121309
0.0012411
0.00121147
0.00123955
0.00123955
0.00121309
0.00121309
0.00123955
0.00121309
0.00121309
0.0012411
0.00121147
0.00123955
0.00121309
0.00121309
0.00121147
0.00120583
0.00117621
0.00120427
0.00120427
0.00117783
0.00117783
0.00120583
0.00117621
0.00120427
0.00120427
0.00117783
0.00117783
0.00120427
0.00117783
0.00117783
0.00120583
0.00117621
0.00120427
0.00117783
0.00117783
0.00117621
0.00117057
0.00114097
0.00116901
0.00116901
0.00114258
0.00114258
0.00117057
0.00114097
0.00116901
0.00116901
0.00114258
0.00114258
0.00116901
0.00114258
0.00114258
0.00117057
0.00114097
0.00116901
0.00114258
0.00114258
0.00114096
0.00113533
0.00110573
0.00113377
0.00113377
0.00110735
0.00110735
0.00113533
0.00110573
0.00113377
0.00113377
0.00110735
0.00110735
0.00113377
0.00110735
0.00110735
0.00113533
0.00110573
0.00113377
0.00110735
0.00110735
0.00110573
0.0011001
0.00107051
0.00109854
0.00109854
0.00107212
0.00107212
0.00110009
0.00107051
0.00109854
0.00109854
0.00107212
0.00107212
0.00109854
0.00107212
0.00107212
0.0011001
0.00107051
0.00109854
0.00107212
0.00107212
0.00107051
0.00106487
0.00103528
0.00106331
0.00106331
0.0010369
0.0010369
0.00106487
0.00103528
0.00106331
0.00106331
0.0010369
0.0010369
0.00106331
0.0010369
0.0010369
0.00106487
0.00103528
0.00106331
0.0010369
0.0010369
0.00103528
0.00102965
0.00100006
0.00102809
0.00102809
0.00100168
0.00100168
0.00102965
0.00100006
0.00102809
0.00102809
0.00100168
0.00100168
0.00102809
0.00100168
0.00100168
0.00102965
0.00100006
0.00102809
0.00100168
0.00100168
0.00100006
0.00099443
0.00096484
0.00099287
0.00099287
0.000966451
0.000966451
0.000994429
0.00096484
0.00099287
0.00099287
0.000966451
0.000966451
0.00099287
0.000966451
0.000966451
0.000994429
0.000964839
0.00099287
0.000966451
0.000966451
0.000964839
0.000959205
0.00092961
0.000957644
0.000957644
0.000931221
0.000931221
0.000959205
0.00092961
0.000957644
0.000957644
0.000931221
0.000931221
0.000957644
0.000931221
0.00093122
0.000959205
0.000929609
0.000957644
0.00093122
0.00093122
0.000929609
0.000923975
0.00089437
0.000922412
0.000922412
0.000895981
0.000895981
0.000923974
0.00089437
0.000922412
0.000922412
0.000895981
0.000895981
0.000922412
0.000895981
0.000895981
0.000923974
0.00089437
0.000922411
0.000895981
0.000895981
0.00089437
0.000888734
0.000859119
0.00088717
0.00088717
0.00086073
0.00086073
0.000888734
0.000859119
0.00088717
0.00088717
0.00086073
0.00086073
0.00088717
0.00086073
0.00086073
0.000888734
0.000859119
0.00088717
0.00086073
0.000860731
0.000859119
0.000853482
0.000823853
0.000851915
0.000851915
0.000825464
0.000825464
0.000853481
0.000823853
0.000851915
0.000851915
0.000825464
0.000825464
0.000851915
0.000825464
0.000825464
0.000853482
0.000823853
0.000851915
0.000825464
0.000825464
0.000823853
0.000818213
0.000788569
0.000816644
0.000816645
0.00079018
0.00079018
0.000818213
0.000788569
0.000816644
0.000816645
0.00079018
0.00079018
0.000816645
0.00079018
0.00079018
0.000818213
0.000788569
0.000816645
0.00079018
0.00079018
0.000788569
0.00165448
0.00166777
0.00165446
0.00166778
0.00166778
0.00165446
0.00165448
0.00166777
0.00165446
0.00166778
0.00166584
0.00166584
0.00166584
0.00163897
0.00163897
0.00163897
0.00163897
0.00165462
0.00166774
0.0016658
0.0016568
0.00165453
0.00165684
0.00166772
0.00166778
0.00165446
0.00165462
0.0016658
0.00166774
0.0016568
0.00165684
0.00165453
0.00166772
0.00166778
0.00166778
0.00165515
0.00165447
0.00165447
0.0016187
0.00163196
0.00163196
0.00161868
0.00163196
0.00161867
0.0016187
0.00163196
0.00163196
0.00161868
0.00163002
0.00163002
0.00163002
0.00160321
0.00160321
0.00160321
0.00160321
0.00161883
0.00163193
0.00162999
0.001621
0.0016319
0.00161874
0.00162105
0.00163196
0.00161867
0.00161883
0.00162999
0.00163193
0.001621
0.0016319
0.00162105
0.00161874
0.00163197
0.00163197
0.00161936
0.00161868
0.00161868
0.00158297
0.00159622
0.00159622
0.00158296
0.00159622
0.00158295
0.00158297
0.00159622
0.00159622
0.00158296
0.00159428
0.00159428
0.00159428
0.00156751
0.00156751
0.00156751
0.00156751
0.00158311
0.00159618
0.00159424
0.00158527
0.00159616
0.00158302
0.00158532
0.00159622
0.00158295
0.00158311
0.00159424
0.00159618
0.00158527
0.00159616
0.00158532
0.00158302
0.00159622
0.00159622
0.00158363
0.00158296
0.00158296
0.00154732
0.00156054
0.00156054
0.0015473
0.00156054
0.00154729
0.00154732
0.00156054
0.00156054
0.0015473
0.0015586
0.0015586
0.0015586
0.00153188
0.00153188
0.00153188
0.00153188
0.00154744
0.0015605
0.00155856
0.0015496
0.00156048
0.00154736
0.00154965
0.00156054
0.0015473
0.00154744
0.00155856
0.0015605
0.0015496
0.00156048
0.00154965
0.00154736
0.00156055
0.00156055
0.00154797
0.0015473
0.0015473
0.00151172
0.00152492
0.00152492
0.0015117
0.00152493
0.0015117
0.00151172
0.00152492
0.00152492
0.0015117
0.00152298
0.00152298
0.00152298
0.0014963
0.0014963
0.0014963
0.0014963
0.00151184
0.00152488
0.00152294
0.001514
0.00152486
0.00151176
0.00151404
0.00152493
0.0015117
0.00151184
0.00152294