/*--------------------------------*- C++ -*----------------------------------*\
| =========                 |                                                 |
| \\      /  F ield         | OpenFOAM: The Open Source CFD Toolbox           |
|  \\    /   O peration     | Version:  v1906                                 |
|   \\  /    A nd           | Web:      www.OpenFOAM.com                      |
|    \\/     M anipulation  |                                                 |
\*---------------------------------------------------------------------------*/
FoamFile
{
    version     2.0;
    format      ascii;
    class       surfaceScalarField;
    location    "650";
    object      phi;
}
// * * * * * * * * * * * * * * * * * * * * * * * * * * * * * * * * * * * * * //

dimensions      [0 3 -1 0 0 0 0];
oriented        oriented;


internalField   nonuniform List<scalar> 
123680
(
1.19293e-07
1.19701e-07
-7.11166e-08
-7.1075e-08
0.00118432
-0.00118442
-1.19693e-06
-1.19617e-07
-4.86621e-08
0.0011323
-2.3426e-07
1.24127e-06
2.72131e-07
9.11178e-07
-2.12624e-07
2.66414e-07
-8.52949e-07
-0.00113233
-1.19148e-06
-1.19667e-07
-4.8647e-08
0.00113194
-2.3428e-07
1.23578e-06
2.72149e-07
9.1101e-07
-2.15329e-07
2.69128e-07
-8.52832e-07
-0.00113196
1.22555e-06
1.19161e-06
-1.98252e-07
-2.03529e-07
0.000268069
-0.000270084
-0.00027009
1.22515e-06
1.19121e-06
-1.98072e-07
-2.0335e-07
0.000268075
1.23093e-06
1.19431e-06
-1.95697e-07
-2.03481e-07
0.000268075
-0.000270101
-1.27511e-06
-1.23848e-06
-0.00026808
2.39152e-07
2.47065e-07
0.000270107
-4.86173e-08
0.00113147
-2.39779e-07
1.2752e-06
2.77527e-07
9.11097e-07
-2.12678e-07
2.66328e-07
-8.52995e-07
-0.00113149
-1.23645e-06
-1.19331e-07
-4.84238e-08
0.00113191
-2.4267e-07
1.28066e-06
2.80322e-07
9.16656e-07
-2.15467e-07
2.69122e-07
-8.58486e-07
-0.00113194
-1.21336e-07
-0.00113142
-4.94564e-08
-1.23061e-06
2.77433e-07
-2.39586e-07
-8.52673e-07
2.66283e-07
-2.12446e-07
9.11112e-07
0.00113139
1.28057e-06
-1.2137e-07
-0.00113187
-4.92574e-08
-1.23613e-06
2.80235e-07
-2.42467e-07
-8.58188e-07
2.69084e-07
-2.1525e-07
9.16656e-07
0.00113184
-1.98365e-07
-2.00822e-07
0.000268097
-0.000270131
-1.24117e-06
-0.000268101
2.41967e-07
2.4429e-07
0.000270137
-4.85977e-08
0.00113257
-2.37172e-07
1.23857e-06
2.74988e-07
9.13943e-07
-2.15408e-07
2.69202e-07
-8.5565e-07
-0.0011326
-1.231e-06
-1.19307e-07
-4.8495e-08
0.00113157
-2.42651e-07
1.27522e-06
2.80333e-07
9.13771e-07
-2.15399e-07
2.6906e-07
-8.55654e-07
-0.00113159
-1.21763e-07
-0.00113252
-4.93911e-08
-1.194e-06
2.74904e-07
-2.36974e-07
-8.55343e-07
2.69168e-07
-2.15184e-07
9.13963e-07
0.0011325
1.27512e-06
-1.21349e-07
-0.00113152
-4.9337e-08
-1.23069e-06
2.8024e-07
-2.42458e-07
-8.55332e-07
2.69003e-07
-2.1518e-07
9.13768e-07
0.00113149
-1.19364e-07
-4.85005e-08
0.00113136
-2.36993e-07
1.26977e-06
2.74725e-07
9.11119e-07
-2.12647e-07
2.66334e-07
-8.52998e-07
-0.00113139
-1.2168e-07
-0.00113225
-4.94746e-08
-1.19661e-06
2.72038e-07
-2.34066e-07
-8.52625e-07
2.66362e-07
9.11174e-07
-2.12405e-07
0.00113223
1.26967e-06
0.00113129
-1.21399e-07
-0.00113131
-4.93481e-08
-1.22524e-06
2.74626e-07
-2.36803e-07
-8.52662e-07
2.66286e-07
-2.12419e-07
9.13778e-07
-1.95745e-07
-2.03393e-07
0.000268056
-0.000270079
-1.23568e-06
-0.00026806
2.39298e-07
2.46864e-07
0.000270085
-1.19745e-07
-4.85765e-08
0.00113247
-2.34387e-07
1.23589e-06
2.72249e-07
9.11323e-07
-2.15372e-07
2.69188e-07
-8.53014e-07
-0.0011325
-1.21727e-07
-0.00113189
-4.94694e-08
-1.19116e-06
2.72059e-07
-2.34079e-07
-8.52469e-07
2.6904e-07
9.11087e-07
-2.15129e-07
0.00113186
1.23579e-06
0.0011324
-1.21782e-07
-0.00113242
-4.94284e-08
-1.1913e-06
2.72159e-07
-2.34189e-07
-8.52703e-07
2.69133e-07
-2.15151e-07
9.11328e-07
-0.000268073
2.4173e-07
2.47056e-07
-4.96375e-08
-2.36755e-07
1.26965e-06
2.74599e-07
9.13784e-07
-2.12366e-07
2.6627e-07
-8.55237e-07
-1.22074e-07
-2.34139e-07
1.23577e-06
2.72125e-07
-2.15097e-07
2.69118e-07
-1.22467e-07
-4.97148e-08
9.1132e-07
-8.5261e-07
-1.55306e-10
-7.01603e-08
0.000229293
3.2121e-08
2.20202e-09
-0.000229257
-5.16508e-09
2.24484e-08
0.000193524
-3.62968e-09
-0.000193538
6.85237e-09
-4.36387e-08
0.000193578
3.26767e-09
-0.000193544
8.83971e-11
2.87138e-08
0.000229238
-1.32056e-08
9.43602e-10
-0.000229254
5.15344e-09
1.11863e-08
9.79802e-05
-9.79966e-05
-6.75703e-09
-2.00633e-08
9.80176e-05
-9.79908e-05
-7.02464e-08
-1.95851e-10
0.000229321
2.15306e-09
3.00658e-08
-0.000229283
-5.17174e-09
2.46779e-08
0.000193545
-4.14064e-09
-0.000193561
6.80101e-09
-4.59571e-08
0.0001936
3.92608e-09
-0.000193565
2.88025e-08
2.39957e-10
0.000229263
8.71106e-10
-1.1152e-08
-0.000229282
-7.10259e-08
-7.10682e-08
0.00118432
-0.00118442
-7.11329e-08
-7.11111e-08
0.0011839
-0.001184
-7.1166e-08
-7.1147e-08
0.00118413
-0.00118423
-0.00118413
-7.35986e-08
-7.35431e-08
0.00118404
-0.00118413
-7.3505e-08
-7.35483e-08
0.00118403
-0.00118371
-7.36091e-08
-7.35836e-08
0.00118362
-0.00118394
-7.36419e-08
-7.3641e-08
0.00118384
7.01659e-08
-1.65619e-09
0.000250197
4.04323e-09
-1.9308e-07
-0.000250076
-9.7312e-09
-2.46486e-08
6.63876e-08
0.0002454
4.07189e-09
-0.000245436
0.00115244
3.60385e-09
-1.40116e-07
1.00833e-06
-7.57642e-07
8.30667e-07
-9.3681e-07
-0.0011525
-4.89322e-08
1.24124e-06
0.00113228
-1.20334e-07
-8.52825e-07
2.66396e-07
-2.12546e-07
9.11183e-07
-1.1968e-06
2.72104e-07
-2.3418e-07
2.07178e-08
4.59019e-08
0.000245474
-1.66745e-08
-0.000245419
-1.05012e-07
-3.72789e-09
0.00115239
-1.41631e-07
-9.36565e-07
8.30759e-07
-7.57395e-07
1.00841e-06
-2.87287e-08
1.61201e-09
0.000250063
1.92897e-09
1.32597e-07
-0.00025017
5.18023e-09
1.34369e-08
9.79614e-05
-9.79801e-05
-6.81582e-09
-2.22866e-08
9.80011e-05
-9.7972e-05
-1.31993e-09
7.00798e-08
0.000250159
-1.93003e-07
4.08138e-09
-0.000250039
0.00115213
3.58081e-09
-1.40205e-07
1.00273e-06
-7.52119e-07
8.25145e-07
-9.31213e-07
-0.00115219
-9.84987e-09
-2.24841e-08
6.64783e-08
0.000245343
4.14699e-09
-0.000245381
-4.89186e-08
1.23575e-06
0.00113191
-1.20381e-07
-8.52662e-07
2.69088e-07
-2.15266e-07
9.11081e-07
-1.19135e-06
2.72118e-07
-2.34199e-07
-3.64663e-09
0.00115208
-1.41717e-07
-9.30968e-07
8.25247e-07
-7.51867e-07
1.00282e-06
2.08439e-08
4.37401e-08
0.000245419
-1.67469e-08
-0.000245362
-1.05112e-07
1.29083e-09
-2.86714e-08
0.000250026
1.32535e-07
1.88334e-09
-0.000250133
1.22906e-08
-1.11553e-08
2.47979e-08
0.000278126
-7.03433e-09
-0.000278144
1.23153e-08
-1.11033e-08
2.24918e-08
0.000278073
-7.54503e-09
-0.000278089
-1.26974e-06
-1.23586e-06
0.000270087
-0.00026807
2.41861e-07
2.4718e-07
-2.31454e-08
2.00148e-08
0.000278195
9.90638e-09
-0.000278151
-5.09801e-08
-2.32433e-08
1.99308e-08
0.00027814
1.05345e-08
-0.000278098
-4.8686e-08
-0.000278246
1.21843e-08
-1.12787e-08
2.48705e-08
-6.89662e-09
0.000278227
-0.00027819
1.22043e-08
-1.12285e-08
2.25657e-08
-7.40035e-09
0.000278174
1.11306e-08
9.79781e-05
-9.79944e-05
-1.99311e-08
9.80154e-05
-9.79887e-05
1.11352e-08
9.79773e-05
-9.79936e-05
-1.99935e-08
9.80146e-05
-9.79878e-05
9.8656e-09
2.2529e-08
0.000278124
-7.47605e-09
-0.000278137
1.2324e-08
2.25059e-08
0.00027808
-7.55441e-09
-0.000278096
0.000270104
-1.27517e-06
-1.23854e-06
-0.000268077
2.39268e-07
2.47189e-07
0.000278188
-2.08313e-08
1.04453e-08
-0.000278149
-4.8652e-08
0.000278147
-2.32121e-08
1.04974e-08
-0.000278105
-4.87343e-08
-1.98267e-08
-6.89583e-09
-9.80096e-05
9.80363e-05
1.11894e-08
5.10169e-09
9.79992e-05
-1.98863e-08
-6.84689e-09
-9.80088e-05
9.80355e-05
1.11991e-08
5.10662e-09
9.79983e-05
1.2307e-06
1.19409e-06
0.000268078
-1.95583e-07
-2.03371e-07
-2.08429e-08
-4.85475e-08
-0.0002782
1.04961e-08
0.000278239
-2.32247e-08
-4.86255e-08
-0.000278156
1.05407e-08
0.000278197
9.80957e-09
-7.40641e-09
2.25547e-08
0.000278174
1.22694e-08
-7.48044e-09
2.25315e-08
0.000278131
-7.01842e-08
0.000229329
3.21342e-08
2.18361e-09
-0.000229294
2.25288e-08
0.00019356
-3.68835e-09
-0.000193573
-4.37848e-08
0.000193613
3.48309e-09
-0.000193579
2.87401e-08
0.000229274
-1.32223e-08
8.25484e-10
-0.00022929
-1.46651e-09
0.000250171
3.63917e-09
-1.95667e-07
-0.000250048
6.40809e-08
0.000245344
4.16031e-09
-0.00024538
0.00115252
3.5136e-09
-1.39995e-07
1.00832e-06
-7.57627e-07
8.30638e-07
-9.36806e-07
-0.00115257
-4.88964e-08
0.00113144
-1.19993e-07
-1.23082e-06
2.77487e-07
-2.39708e-07
-8.52868e-07
2.66315e-07
-2.12595e-07
9.11113e-07
0.000245418
-1.67917e-08
-0.000245363
-1.02597e-07
-3.73842e-09
0.00115247
-1.41505e-07
-9.36558e-07
8.30733e-07
-7.5738e-07
1.0084e-06
1.40923e-09
0.000250035
2.35393e-09
1.35178e-07
-0.000250145
0.000250199
4.52681e-09
-1.95697e-07
-0.000250079
-1.22805e-08
6.65339e-08
0.000245357
4.17982e-09
-0.000245393
0.00115267
-1.39994e-07
1.01125e-06
-7.57743e-07
8.30743e-07
-9.39691e-07
-0.00115272
-4.87181e-08
0.00113189
1.28063e-06
-1.20033e-07
-8.58366e-07
2.69107e-07
9.16662e-07
-2.15385e-07
-1.23633e-06
2.80284e-07
-2.42592e-07
0.000245431
2.30906e-08
-1.66495e-08
-0.000245376
-1.05104e-07
0.00115261
-1.41503e-07
-9.39456e-07
8.30837e-07
-7.57491e-07
1.01132e-06
0.000250066
1.33798e-09
1.35221e-07
-0.000250173
8.9388e-11
2.86222e-08
-1.31833e-08
9.56175e-10
0.000229277
-4.35633e-08
-0.000193584
3.20484e-09
0.000193617
2.2457e-08
-3.69949e-09
0.000193564
-1.51882e-10
-7.0129e-08
-0.000229296
3.20685e-08
2.21243e-09
0.000229332
2.8648e-08
-1.31993e-08
8.40533e-10
0.000229313
-4.37068e-08
6.80012e-09
-0.000193619
3.41833e-09
0.000193653
2.25462e-08
-5.09334e-09
-3.75876e-09
0.000193599
-7.01517e-08
-0.000229333
3.20831e-08
2.19692e-09
0.000229368
1.40805e-09
2.37795e-09
1.34917e-07
0.000250061
-4.92189e-08
-1.20739e-07
1.27514e-06
-2.3964e-07
2.77464e-07
9.11119e-07
-2.12512e-07
2.66304e-07
-8.52761e-07
-1.02515e-07
-0.000245401
-1.67996e-08
0.000245456
-0.00115241
-3.72531e-09
-1.44431e-07
-9.36153e-07
8.30889e-07
-7.56906e-07
1.00853e-06
0.00115236
4.1055e-09
6.40194e-08
0.000245382
3.52663e-09
-1.43052e-07
1.00845e-06
-7.57138e-07
-9.3637e-07
8.30808e-07
-1.46512e-09
-0.000250074
3.64846e-09
-1.95692e-07
0.000250198
1.35969e-09
1.34961e-07
0.000250093
-4.90084e-08
-1.23622e-06
-1.20775e-07
9.16652e-07
-2.153e-07
-8.58278e-07
2.69094e-07
1.2806e-06
-2.42523e-07
2.80264e-07
2.31014e-08
-1.05022e-07
-0.000245414
-1.66555e-08
0.000245469
-0.00115257
-1.44421e-07
-9.39044e-07
8.30993e-07
-7.57017e-07
1.01145e-06
0.00115251
-1.22234e-08
4.12796e-09
6.64749e-08
0.000245395
-1.43056e-07
1.01139e-06
-7.57253e-07
-9.3925e-07
8.30914e-07
-0.000250106
4.53971e-09
-1.95721e-07
0.000250226
2.25766e-08
0.00027807
-1.01432e-08
-0.000278083
-1.34668e-08
2.24405e-08
0.000278174
-1.00799e-08
-0.000278182
0.000270133
-0.000268098
2.42091e-07
2.44417e-07
0.000278134
1.29614e-08
-0.000278095
-4.87596e-08
2.22502e-08
0.000278233
1.3114e-08
-0.000278199
-4.8586e-08
5.12447e-09
9.79829e-05
-9.80015e-05
9.80225e-05
-6.82555e-09
-9.79934e-05
-1.99588e-08
-9.80117e-05
9.80384e-05
1.12436e-08
9.80012e-05
1.1967e-06
0.000268099
-1.98248e-07
-2.0071e-07
-4.86524e-08
-0.000278146
1.30076e-08
0.000278185
2.21478e-08
-2.07339e-08
-4.84716e-08
-0.00027825
1.31614e-08
0.000278283
-1.00719e-08
2.25991e-08
0.000278121
-1.35261e-08
9.67327e-09
-1.0009e-08
2.24626e-08
0.000278224
-6.8645e-09
-9.80144e-05
9.80434e-05
5.06001e-09
9.80039e-05
-1.76951e-09
0.000250184
4.03363e-09
-1.90533e-07
-0.000250066
6.40487e-08
0.000245359
4.15215e-09
-0.00024539
0.00115239
3.64204e-09
-1.40069e-07
1.00831e-06
-7.54944e-07
8.30705e-07
-9.34078e-07
-0.00115245
-4.8829e-08
0.00113255
-1.20409e-07
-1.19421e-06
2.74963e-07
-2.37103e-07
-8.5553e-07
2.69191e-07
-2.15322e-07
9.13951e-07
0.000245428
-1.66733e-08
-0.000245378
-1.02683e-07
-3.73681e-09
0.00115235
-1.4165e-07
-9.36541e-07
8.28087e-07
-7.57409e-07
1.00569e-06
1.7844e-09
0.000250053
1.87244e-09
1.30039e-07
-0.000250157
-7.02224e-08
0.000229285
3.0044e-08
2.07981e-09
-0.000229247
2.46607e-08
0.000193492
-3.73561e-09
-0.000193508
-4.58849e-08
0.000193547
3.45916e-09
-0.000193512
2.8799e-08
0.000229228
-1.11398e-08
1.02252e-09
-0.000229246
0.000250153
-1.93109e-07
4.26079e-09
-0.000250036
0.00115236
-1.40022e-07
1.00833e-06
-7.57714e-07
8.30712e-07
-9.36817e-07
-0.00115241
-1.22186e-08
6.40379e-08
0.00024529
6.5411e-09
-0.000245324
-4.87999e-08
0.00113154
1.27519e-06
-1.20011e-07
-8.5553e-07
2.69042e-07
9.13776e-07
-2.15319e-07
-1.23088e-06
2.80304e-07
-2.42579e-07
0.00115231
-1.41545e-07
-9.36584e-07
8.30805e-07
-7.57466e-07
1.00841e-06
0.000245362
2.30713e-08
-1.90661e-08
-0.000245309
-1.02576e-07
0.000250023
1.3265e-07
1.67616e-09
-0.000250126
2.87081e-08
2.4205e-10
8.89812e-10
-1.11309e-08
0.000229302
-4.58808e-08
-0.000193605
3.85676e-09
0.00019364
2.46919e-08
-4.21655e-09
0.000193585
-7.02109e-08
-2.02395e-10
-0.000229322
2.16208e-09
3.00254e-08
0.00022936
1.77895e-09
1.90294e-09
1.29776e-07
0.000250079
-4.91757e-08
-1.21143e-07
1.23852e-06
-2.37031e-07
2.74933e-07
9.13964e-07
-2.15239e-07
2.69177e-07
-8.5543e-07
-1.02604e-07
-0.000245416
-1.66831e-08
0.000245466
-0.00115229
-3.70413e-09
-1.44569e-07
-9.36147e-07
8.28225e-07
-7.56959e-07
1.00583e-06
0.00115224
4.0996e-09
6.39885e-08
0.000245397
3.64959e-09
-1.43133e-07
1.00846e-06
-7.54456e-07
-9.33645e-07
8.30885e-07
-1.78048e-09
-0.000250092
4.03867e-09
-1.90545e-07
0.00025021
2.87067e-08
-1.11167e-08
1.03637e-09
0.000229267
-4.58053e-08
6.86238e-09
-0.000193552
3.39147e-09
0.000193587
2.4673e-08
-5.11768e-09
-3.8086e-09
0.000193532
-7.0196e-08
-0.000229286
3.00071e-08
2.08819e-09
0.000229324
1.32393e-07
1.69248e-09
0.000250049
-4.90904e-08
-1.23077e-06
-1.20758e-07
9.1378e-07
-2.1524e-07
-8.55427e-07
2.69031e-07
1.27516e-06
-2.4251e-07
2.8027e-07
-0.00115226
-1.44459e-07
-9.36164e-07
8.3097e-07
-7.56993e-07
1.00853e-06
0.0011522
2.30847e-08
-1.02484e-07
-0.000245347
-1.90814e-08
0.0002454
-1.43088e-07
1.00847e-06
-7.57228e-07
-9.36372e-07
8.30888e-07
-1.216e-08
6.48149e-09
6.39801e-08
0.000245328
-0.000250062
-1.93144e-07
4.26873e-09
0.000250179
-1.64697e-10
0.000229328
2.19196e-09
3.21262e-08
-0.000229292
0.000193557
-3.79289e-09
-0.000193572
0.000193612
3.48014e-09
-0.000193576
1.32052e-10
0.000229272
9.12058e-10
-1.32215e-08
-0.000229289
7.01367e-08
0.000250166
-1.90478e-07
4.28848e-09
-0.000250052
0.00115237
-1.40101e-07
1.00564e-06
-7.57677e-07
8.30694e-07
-9.34085e-07
-0.00115242
-2.24698e-08
6.40543e-08
0.000245337
4.21085e-09
-0.00024537
-4.88018e-08
0.00113134
-1.20062e-07
-1.22543e-06
2.74694e-07
-2.36925e-07
-8.52869e-07
2.66316e-07
-2.12567e-07
9.11126e-07
0.00115231
-1.41606e-07
-9.33847e-07
8.30783e-07
-7.5743e-07
1.0057e-06
4.37099e-08
0.000245408
-1.67317e-08
-0.000245356
-1.02605e-07
-2.87143e-08
0.000250038
1.30018e-07
1.60936e-09
-0.00025014
0.000229292
3.2112e-08
2.19693e-09
-0.000229256
-5.15206e-09
0.000193505
-3.66835e-09
-0.000193519
0.000193559
6.7738e-09
3.43422e-09
-0.000193525
0.000229237
-1.3211e-08
8.38494e-10
-0.000229253
-2.8638e-08
1.60814e-09
1.94636e-09
1.3234e-07
0.000250089
-4.92493e-08
-1.21078e-07
1.24121e-06
-2.3412e-07
2.72075e-07
9.11187e-07
-2.12466e-07
-8.5272e-07
2.66385e-07
4.58134e-08
-1.04921e-07
-0.000245458
-1.66829e-08
0.000245513
-0.00115233
-4.90374e-09
-1.4455e-07
-9.36147e-07
8.30909e-07
1.00854e-06
-7.56925e-07
0.00115229
-2.46573e-08
4.01164e-09
6.63287e-08
0.000245438
3.46402e-09
-1.43176e-07
1.00847e-06
-7.57155e-07
-9.36363e-07
8.30834e-07
7.0137e-08
-1.96194e-09
-0.000250103
4.28953e-09
-1.931e-07
0.000250223
1.32554e-10
9.24254e-10
-1.3199e-08
0.000229311
-0.000193616
3.41779e-09
0.000193652
-3.86633e-09
0.000193596
-2.27941e-10
-0.000229331
2.19854e-09
3.20889e-08
0.000229367
-2.86255e-08
1.29759e-07
1.63372e-09
0.000250065
-4.9102e-08
-1.22532e-06
-1.20812e-07
9.1113e-07
-2.12484e-07
-8.5276e-07
2.66304e-07
1.26971e-06
-2.36862e-07
2.74672e-07
-0.00115226
0.0011522
-1.44523e-07
-9.3344e-07
8.30933e-07
-7.56957e-07
1.00853e-06
4.363e-08
2.3158e-08
0.000245446
-1.02519e-07
-0.000245394
-1.67391e-08
-1.43157e-07
1.00576e-06
-7.5719e-07
-9.33646e-07
8.3086e-07
-2.24806e-08
-1.22303e-08
4.15151e-09
6.39943e-08
0.000245375
7.01077e-08
0.000250192
-0.000250078
-1.90501e-07
4.54316e-09
-1.31893e-08
8.53458e-10
0.000229276
6.81849e-09
0.000193598
-0.000193565
3.36993e-09
-5.08962e-09
-3.73982e-09
0.000193545
0.000229331
-0.000229295
3.20721e-08
2.20833e-09
2.47563e-08
0.000278033
-7.15482e-09
-0.00027805
-1.11804e-08
2.47909e-08
0.000278131
-6.90511e-09
-0.000278148
0.000270082
-0.000268057
2.39427e-07
2.46987e-07
0.0002781
1.00277e-08
-0.000278059
-5.09388e-08
1.99777e-08
0.000278199
9.96587e-09
-0.000278157
-5.09651e-08
5.13447e-09
9.79717e-05
-9.7988e-05
9.8009e-05
-6.82144e-09
-9.79822e-05
-2.2178e-08
-9.79929e-05
9.80219e-05
1.34958e-08
9.79824e-05
1.19125e-06
0.000268058
-1.95631e-07
-2.03274e-07
-5.08234e-08
-0.000278109
1.00771e-08
0.000278151
1.98752e-08
-2.08524e-08
-5.08541e-08
-0.000278207
1.00073e-08
0.000278249
-7.08292e-09
2.47797e-08
0.000278084
-1.12378e-08
9.80364e-09
-6.84133e-09
2.48098e-08
0.000278182
-6.85857e-09
-9.80031e-05
9.80299e-05
5.07382e-09
9.79927e-05
7.0128e-08
0.000250184
-1.90463e-07
4.75834e-09
-0.00025007
0.00115226
-1.40209e-07
1.00564e-06
-7.54965e-07
8.27991e-07
-9.3408e-07
-0.00115231
-2.24447e-08
6.6442e-08
0.000245352
4.20089e-09
-0.000245388
-4.88821e-08
0.00113244
-1.20447e-07
-1.19149e-06
2.72212e-07
-2.34312e-07
-8.52894e-07
2.6917e-07
-2.15292e-07
9.11328e-07
0.00115221
-1.41713e-07
-9.33849e-07
8.28094e-07
-7.54714e-07
1.00571e-06
4.37411e-08
0.000245426
-1.67416e-08
-0.000245371
-1.05115e-07
-2.8714e-08
0.000250057
1.29996e-07
1.15288e-09
-0.000250158
-1.15433e-10
0.000229284
2.23784e-09
3.20734e-08
-0.000229248
0.000193509
-3.6817e-09
-0.000193523
0.000193563
3.39503e-09
-0.000193529
9.83709e-11
0.000229229
8.49334e-10
-1.31805e-08
-0.000229245
0.00022932
2.12655e-09
2.99727e-08
-0.000229282
-5.22616e-09
0.000193546
-3.53183e-09
-0.000193559
0.000193599
6.88162e-09
3.30428e-09
-0.000193566
0.000229263
9.28699e-10
-1.10777e-08
-0.000229281
1.29223e-09
-2.85665e-08
1.32264e-07
1.90611e-09
0.000250052
-4.92313e-08
-1.21125e-07
1.23572e-06
-2.34131e-07
2.7209e-07
9.11033e-07
-2.15166e-07
-8.52613e-07
2.69104e-07
-0.00115203
-3.63272e-09
-1.44628e-07
-9.30571e-07
8.25382e-07
1.00296e-06
-7.51413e-07
0.00115198
4.36446e-08
-1.05014e-07
-0.0002454
-1.6757e-08
0.000245458
3.58943e-09
-1.43261e-07
1.00289e-06
-7.51627e-07
-9.30779e-07
8.25321e-07
-2.24941e-08
4.09935e-09
6.64185e-08
0.000245381
-1.3229e-09
7.0027e-08
-0.000250065
-1.93011e-07
4.08589e-09
0.000250186
-2.86063e-08
1.29726e-07
1.16955e-09
0.000250083
-4.91702e-08
-1.19138e-06
-1.212e-07
9.11337e-07
-2.15212e-07
-8.52792e-07
2.69158e-07
1.23583e-06
-2.34242e-07
2.72186e-07
-0.00115216
-1.44618e-07
-9.33431e-07
8.28226e-07
-7.54257e-07
1.00585e-06
0.0011521
4.36594e-08
2.32603e-08
0.000245464
-1.05025e-07
-0.000245409
-1.67584e-08
-1.43267e-07
1.00579e-06
-7.54476e-07
-9.33641e-07
8.28152e-07
-2.24537e-08
-1.22598e-08
4.14413e-09
6.63826e-08
0.00024539
7.00664e-08
-0.000250097
-1.90465e-07
4.76385e-09
0.000250211
1.05032e-10
8.47923e-10
-1.31496e-08
0.000229268
-0.000193569
3.32687e-09
0.000193602
-3.74858e-09
0.000193549
-1.18594e-10
-0.000229287
2.26313e-09
3.20113e-08
0.000229323
9.32551e-10
-1.10395e-08
0.000229302
6.93206e-09
0.000193639
-0.000193605
3.22844e-09
-5.16225e-09
-3.60022e-09
0.000193585
-0.000229321
2.1493e-09
2.99018e-08
0.000229359
9.7971e-05
-9.79873e-05
9.80083e-05
-9.79815e-05
9.79753e-05
-9.79916e-05
9.80126e-05
-9.79858e-05
0.000268072
-1.98143e-07
-2.03412e-07
1.99076e-08
-5.08672e-08
-0.000278201
9.9563e-09
1.9821e-08
-4.85722e-08
-0.000278149
1.05864e-08
-1.12146e-08
-6.95913e-09
2.48232e-08
0.000278176
-1.11623e-08
-7.47538e-09
2.25161e-08
0.000278123
9.80292e-05
-9.80025e-05
9.7992e-05
9.80335e-05
-9.80067e-05
9.79963e-05
1.00861e-06
-7.56757e-07
8.30972e-07
-9.35985e-07
2.84693e-10
-1.45952e-07
-2.25062e-08
6.39666e-08
4.097e-09
0.000245413
-2.85579e-08
0.000250088
1.2954e-07
2.85899e-09
-1.63968e-10
-5.03158e-09
-3.80894e-09
0.000193585
0.000229314
-1.31911e-08
8.71527e-10
3.55728e-11
-2.24859e-08
6.63589e-08
0.000245428
4.08821e-09
-5.10565e-09
0.000193625
-3.66855e-09
9.80129e-05
9.80172e-05
-7.85058e-10
1.43971e-08
0.000143282
-2.97382e-10
-0.000143295
-0.000171014
-3.12862e-10
-2.24131e-11
0.000171047
-0.000223249
3.09216e-08
4.38353e-09
0.000223285
-6.91814e-08
-1.3193e-08
9.46406e-10
-0.000229273
-5.76303e-11
2.86684e-08
-0.000171028
-3.97312e-11
8.51341e-10
-0.000223265
3.05355e-08
1.64882e-09
0.000143311
-2.65616e-08
-7.92064e-05
7.92346e-05
-1.63312e-09
3.30271e-09
0.000193558
6.82574e-09
-4.36722e-08
0.000263067
-1.90876e-08
-8.33107e-10
3.06338e-08
-0.000263081
0.000263107
-4.37292e-09
-5.92098e-08
3.20938e-10
-7.92258e-05
1.91079e-08
7.92152e-05
-0.000263093
2.65194e-08
0.000263133
-5.91691e-08
-3.66497e-09
-5.13402e-09
2.24516e-08
3.06329e-08
7.92434e-05
3.1849e-10
-3.09355e-08
-0.000143266
3.21445e-08
2.19751e-09
-9.21832e-12
-7.01748e-08
0.000170996
7.76872e-10
-3.01326e-11
-0.00017101
0.000223229
-1.44083e-08
3.05827e-08
-0.000223245
-1.31828e-11
-6.91977e-08
-0.000143279
9.80071e-05
-6.72473e-09
-2.01195e-08
5.12213e-09
1.12138e-08
1.24156e-08
-7.09207e-10
0.000143351
-1.5867e-10
-0.000143363
-0.000223332
2.89451e-08
4.27148e-09
0.00022337
-6.93479e-08
-0.000171047
-3.5302e-10
-2.06607e-11
0.000171077
6.36039e-10
-1.11336e-08
-0.000229304
9.92365e-11
3.11788e-08
8.36499e-10
-0.000223352
3.31046e-08
-0.000171058
6.95935e-11
1.39442e-09
0.000143378
-2.44987e-08
-7.92522e-05
7.9278e-05
-1.37519e-09
3.96526e-09
0.00019358
6.77188e-09
-4.59909e-08
0.000263176
-1.69033e-08
-8.13423e-10
3.3139e-08
-0.000263196
0.000263222
-4.2546e-09
-6.18247e-08
1.86877e-10
-7.92693e-05
1.69259e-08
7.9261e-05
-0.000263202
2.44536e-08
0.000263248
-6.17767e-08
-4.17806e-09
-5.13912e-09
2.46829e-08
3.31382e-08
7.92868e-05
-2.89563e-08
3.60935e-10
-0.000143335
2.38734e-09
3.00854e-08
-5.39198e-11
-7.26889e-08
0.000223311
-1.24351e-08
3.07447e-08
-0.00022333
0.000171028
7.0004e-10
7.94937e-11
-0.00017104
-7.17745e-08
-9.50036e-12
-0.000143347
9.79906e-05
-6.79063e-09
-2.23377e-08
5.14768e-09
1.34659e-08
-6.97231e-09
-7.00372e-09
0.000213708
1.01217e-08
1.22049e-08
-0.000213716
-8.05257e-05
-1.23551e-08
-1.2008e-08
8.05501e-05
-8.05145e-05
-1.22989e-08
-1.20877e-08
8.05389e-05
9.46584e-09
-8.05422e-05
9.45712e-09
-8.05309e-05
-2.50151e-08
-2.7209e-08
0.000213736
-3.60508e-08
3.33643e-08
-0.000221862
0.000221899
2.50418e-08
-5.98719e-08
0.000250636
-1.57817e-08
5.86245e-08
2.95056e-08
-0.000250684
-5.10322e-08
9.88253e-09
0.00027817
2.00664e-08
-2.31384e-08
0.00018299
1.61535e-08
-9.48208e-09
-0.000183004
0.000250699
-9.74695e-08
-5.23249e-08
0.000183022
1.20091e-08
-1.01177e-08
3.10714e-08
-0.000221882
-3.61535e-08
3.1395e-08
-0.000221801
0.000221839
2.72353e-08
-6.00949e-08
0.000250541
-1.58079e-08
6.35054e-08
2.95455e-08
-0.000250596
-4.87389e-08
1.05037e-08
0.000278114
1.99845e-08
-2.32334e-08
0.000182945
1.42034e-08
-9.47179e-09
-0.000182958
0.000250611
-1.0238e-07
-5.24248e-08
0.000182975
1.20826e-08
-1.22035e-08
3.12806e-08
-0.000221822
1.57697e-08
-1.61658e-08
0.000221878
3.10745e-08
-0.000183008
-3.33149e-08
0.000183039
2.48081e-08
-6.99522e-09
-1.11854e-08
1.22609e-08
-0.000250652
3.60399e-08
0.000250714
-9.74132e-08
-5.23283e-08
5.86081e-08
2.94751e-08
0.000221916
-5.98103e-08
1.57934e-08
-1.42194e-08
0.000221818
3.12841e-08
-0.000182963
-3.13491e-08
0.000182993
2.25016e-08
-7.51043e-09
-1.11325e-08
1.22884e-08
-0.000250556
3.61435e-08
0.000250626
-1.02319e-07
-5.24331e-08
6.3487e-08
2.95165e-08
0.000221856
-6.00326e-08
1.23772e-08
1.23249e-08
-0.000213689
8.05178e-05
6.9682e-09
-8.05342e-05
8.05065e-05
6.99667e-09
-8.0523e-05
-0.000213697
-0.000221929
-3.59871e-08
3.31724e-08
2.49212e-08
-5.96092e-08
-1.57582e-08
0.000250697
-0.000250745
5.86066e-08
2.9398e-08
1.62317e-08
0.00018306
-9.42811e-09
-0.000183074
-5.08137e-08
9.97686e-09
1.9856e-08
-2.31621e-08
-1.01483e-08
-0.00022195
3.11218e-08
-9.72305e-08
-5.23287e-08
1.2004e-08
-0.000221869
-3.60994e-08
3.11992e-08
2.71258e-08
-5.98271e-08
-1.57772e-08
0.000250602
-0.000250657
6.349e-08
2.94369e-08
1.42841e-08
0.000183015
-9.41045e-09
-0.000183028
-4.85127e-08
1.06151e-08
1.97637e-08
-2.32697e-08
-1.22273e-08
-0.000221889
3.13373e-08
-1.02129e-07
-5.24508e-08
1.20893e-08
-0.000213766
1.22923e-08
1.2232e-08
6.99298e-09
8.05495e-05
-8.05659e-05
7.03285e-09
8.05382e-05
-8.05547e-05
-0.000213774
9.8005e-05
-1.99854e-08
1.11587e-08
9.80041e-05
-2.00486e-08
1.11653e-08
-7.00501e-09
-6.98773e-09
0.000213708
1.21788e-08
1.01602e-08
-0.000213717
-8.0526e-05
-1.23557e-08
-1.202e-08
8.05504e-05
-8.05125e-05
-1.23177e-08
-1.20739e-08
8.05369e-05
9.43834e-09
-8.05424e-05
9.47273e-09
-8.05289e-05
-2.71119e-08
-2.51367e-08
0.000213736
3.1414e-08
-3.61068e-08
-0.000221862
0.0002219
2.71404e-08
-6.00479e-08
0.000250635
-1.57723e-08
6.36611e-08
2.6924e-08
-0.000250687
1.04178e-08
-4.87073e-08
0.000278163
-2.08233e-08
0.000182991
1.42411e-08
-9.45224e-09
-0.000183003
0.000183021
1.2019e-08
0.000250702
-1.02454e-07
-4.98116e-08
-1.21748e-08
3.12998e-08
-0.000221883
3.14252e-08
-3.6154e-08
-0.000221797
0.000221839
2.51644e-08
-6.23126e-08
0.000250544
-1.58261e-08
6.35605e-08
3.2089e-08
-0.000250601
1.04685e-08
-4.87875e-08
0.000278121
-2.31993e-08
0.000182941
1.42108e-08
-9.48796e-09
-0.000182953
0.000182971
1.20715e-08
0.000250616
-1.02483e-07
-5.49434e-08
-1.01563e-08
3.34742e-08
-0.000221822
-1.42562e-08
0.000221879
1.57614e-08
3.1307e-08
-0.000183008
-3.13623e-08
0.000183038
-7.44159e-09
2.25405e-08
9.83782e-09
3.60925e-08
-0.00025065
0.000250717
-1.0239e-07
-4.98217e-08
0.000221917
-5.99823e-08
6.36504e-08
2.68891e-08
-1.42259e-08
0.000221814
1.58156e-08
3.34818e-08
-0.000182959
-3.13739e-08
0.000182988
-7.51923e-09
2.25197e-08
1.22971e-08
3.61451e-08
-0.000250559
0.000250631
-1.02425e-07
-5.49532e-08
0.000221856
-6.22466e-08
6.35519e-08
3.20555e-08
1.23792e-08
1.23428e-08
-0.000213689
8.0518e-05
7.00043e-09
-8.05345e-05
8.05045e-05
6.98111e-09
-8.0521e-05
-0.000213697
-9.80259e-05
1.12165e-08
5.0746e-09
-1.98785e-08
-6.87395e-09
-9.80251e-05
1.12296e-08
5.07654e-09
-1.99364e-08
-6.8237e-09
-0.000213728
1.23377e-08
1.22989e-08
-2.70866e-08
-2.51105e-08
0.000213755
7.00887e-09
8.05339e-05
9.42517e-09
6.99719e-09
8.05204e-05
9.45441e-09
1.21829e-08
1.01634e-08
-1.2017e-08
8.05583e-05
-1.20722e-08
8.05448e-05
-1.42969e-08
1.57467e-08
0.000221913
-0.000221934
-1.21917e-08
3.13287e-08
-0.00025068
3.6065e-08
-1.02276e-07
-4.9825e-08
0.000250748
-7.37285e-09
2.25722e-08
-0.000278213
9.78266e-09
-0.000183043
-3.12755e-08
1.2025e-08
0.000183073
-0.000183056
-9.40998e-09
-0.000250733
6.36319e-08
2.68377e-08
2.7056e-08
-5.9859e-08
0.000221951
-1.42613e-08
1.57976e-08
0.000221848
-0.000221873
-1.01701e-08
3.35049e-08
-0.00025059
3.61141e-08
-1.02302e-07
-5.49654e-08
0.000250662
-7.44282e-09
2.25524e-08
-0.000278172
1.2244e-08
-0.000182994
-3.12649e-08
1.20638e-08
0.000183023
-0.000183006
-9.43648e-09
-0.000250647
6.35326e-08
3.20038e-08
2.50852e-08
-6.21149e-08
0.00022189
-0.000221896
3.13162e-08
-3.60771e-08
-5.9919e-08
1.42751e-08
0.000183026
-1.57516e-08
0.000250665
6.36349e-08
2.68641e-08
1.04673e-08
-4.85997e-08
-2.0836e-08
3.13132e-08
-1.02334e-07
-4.98233e-08
-0.000221831
3.13268e-08
-3.61265e-08
-6.2183e-08
1.4243e-08
0.000182976
-1.58036e-08
0.000250574
6.35356e-08
3.20274e-08
1.0521e-08
-4.86799e-08
-2.32118e-08
3.34891e-08
-1.02364e-07
-5.49584e-08
-7.01548e-09
-7.00449e-09
0.000213747
-8.05419e-05
-1.23085e-08
8.05662e-05
-8.05283e-05
-1.22809e-08
8.05527e-05
0.000213774
-6.9802e-10
1.24127e-08
0.000143352
-1.60312e-10
-0.000143364
-0.000171049
-3.36511e-10
0.000171081
-0.000223333
2.89505e-08
4.32941e-09
0.000223374
-7.17495e-08
-1.32113e-08
6.08832e-10
-0.00022931
2.86943e-08
-0.000171063
7.77237e-10
-0.000223354
3.30665e-08
1.40942e-09
0.000143379
-2.44836e-08
-7.9251e-05
7.92769e-05
-1.39427e-09
3.51881e-09
0.000193593
-4.38071e-08
0.000263174
-1.69111e-08
-7.56902e-10
3.31453e-08
-0.000263193
0.000263219
-4.3154e-09
-6.17885e-08
1.84682e-10
-7.92681e-05
1.6932e-08
7.92598e-05
-0.0002632
2.44437e-08
0.000263245
-6.17458e-08
-3.72587e-09
2.25338e-08
3.31459e-08
7.92856e-05
3.43793e-10
-2.89671e-08
-0.000143336
3.21588e-08
2.39844e-09
-7.01937e-08
0.00017103
6.89432e-10
-0.000171044
0.000223313
-1.24228e-08
3.31171e-08
-0.000223334
-7.17566e-08
-0.000143348
-0.000143297
3.07474e-10
-3.08948e-08
1.66145e-09
0.000143326
7.96772e-10
0.000171033
-2.97374e-11
-1.43895e-08
0.000223269
8.67311e-10
3.05077e-08
3.20972e-08
2.20654e-09
0.000229312
-6.83446e-12
-7.01503e-08
-2.74817e-10
0.000171065
-1.00714e-11
4.39553e-09
0.000223305
-6.91616e-08
7.92327e-05
1.91436e-08
-7.92521e-05
2.55369e-10
-3.7311e-09
-0.000193598
2.24678e-08
2.64307e-08
-0.000263145
-4.40683e-09
-5.90756e-08
0.000263185
-1.67617e-09
7.92608e-05
-0.000263159
-8.85927e-10
3.0644e-08
-7.9224e-05
-2.64733e-08
-1.91269e-08
0.000263119
3.0636e-08
3.23676e-09
-4.36024e-08
-5.9124e-08
0.000143313
-8.07406e-10
1.43839e-08
-1.31679e-08
9.61806e-10
-5.57585e-11
2.8579e-08
-3.02076e-10
-0.000171051
-1.97996e-11
0.000171084
3.08769e-08
-0.000223289
-6.91394e-08
0.000223325
0.000143342
-3.84629e-11
3.0471e-08
-0.000143368
3.29411e-10
-2.89259e-08
1.42552e-09
0.000143395
7.10546e-10
0.000171067
-1.2403e-08
0.000223353
7.95826e-10
3.30406e-08
3.21102e-08
2.41158e-09
0.000229349
-7.01693e-08
-1.37134e-10
0.0001711
4.34497e-09
0.000223394
-7.17252e-08
1.69712e-08
7.92773e-05
-7.92944e-05
1.14429e-10
-3.79387e-09
-0.000193633
-5.06387e-09
2.25588e-08
-0.000263252
2.43476e-08
-4.35961e-09
-6.16483e-08
0.000263297
-0.000263271
-8.16431e-10
3.31656e-08
-1.44244e-09
7.93031e-05
-7.92685e-05
-2.43924e-08
-1.69522e-08
0.000263226
3.31579e-08
3.45133e-09
6.77673e-09
-4.37429e-08
-6.16955e-08
-7.23053e-10
1.23941e-08
0.000143383
-1.31844e-08
6.2556e-10
2.86053e-08
-0.000171086
-3.2044e-10
0.000171118
-0.000223373
2.89056e-08
-7.17113e-08
0.000223414
3.29946e-08
0.00014341
-6.98728e-09
-7.03733e-09
0.000213715
1.22881e-08
1.01045e-08
-0.000213723
-8.0515e-05
-1.23973e-08
-1.19915e-08
8.05394e-05
-8.05286e-05
-1.23191e-08
-1.20669e-08
8.0553e-05
9.46867e-09
-8.05314e-05
9.41517e-09
-8.05451e-05
-2.71777e-08
-2.51299e-08
0.000213742
3.16784e-08
-3.85207e-08
-0.000221802