/*--------------------------------*- C++ -*----------------------------------*\
| =========                 |                                                 |
| \\      /  F ield         | OpenFOAM: The Open Source CFD Toolbox           |
|  \\    /   O peration     | Version:  v1906                                 |
|   \\  /    A nd           | Web:      www.OpenFOAM.com                      |
|    \\/     M anipulation  |                                                 |
\*---------------------------------------------------------------------------*/
FoamFile
{
    version     2.0;
    format      ascii;
    class       volVectorField;
    location    "650";
    object      U;
}
// * * * * * * * * * * * * * * * * * * * * * * * * * * * * * * * * * * * * * //

dimensions      [0 1 -1 0 0 0 0];


internalField   nonuniform List<vector> 
42840
(
(-9.60377e-06 -9.58912e-06 0.112516)
(1.11323e-05 -5.97694e-06 0.107501)
(-5.97658e-06 1.11415e-05 0.1075)
(-2.39817e-05 -2.39758e-05 0.104199)
(-2.38598e-05 -2.38555e-05 0.104201)
(2.39655e-05 2.39749e-05 0.104199)
(-4.16758e-05 -4.16616e-05 0.104316)
(-5.96227e-06 -1.11024e-05 0.107499)
(5.94464e-06 -1.11113e-05 0.107498)
(-6.05655e-06 -1.12191e-05 0.107492)
(6.03958e-06 -1.12268e-05 0.107491)
(-2.39778e-05 2.39383e-05 0.104199)
(4.16647e-05 -4.16627e-05 0.104317)
(-1.11393e-05 -5.97013e-06 0.1075)
(-1.11099e-05 5.95646e-06 0.107498)
(-1.12561e-05 -6.06333e-06 0.107493)
(-1.12234e-05 6.05058e-06 0.107491)
(1.11112e-05 5.95544e-06 0.107499)
(1.12463e-05 -6.07023e-06 0.107494)
(1.12251e-05 6.04922e-06 0.107491)
(2.39467e-05 -2.39926e-05 0.104199)
(-4.16534e-05 4.16743e-05 0.104316)
(5.97564e-06 1.11477e-05 0.1075)
(-6.06983e-06 1.12572e-05 0.107493)
(6.07099e-06 1.12608e-05 0.107493)
(4.16685e-05 4.1661e-05 0.104316)
(1.12677e-05 6.08274e-06 0.107489)
(6.10484e-06 1.13024e-05 0.107491)
(-3.14519e-07 -1.66148e-05 0.0913963)
(7.0189e-07 7.12505e-06 0.082193)
(-1.22867e-06 -1.20699e-05 0.0822527)
(-2.63234e-07 5.00039e-06 0.0913435)
(-2.6465e-06 4.32813e-06 0.0715116)
(3.28159e-06 -5.946e-06 0.0715732)
(-1.66452e-05 -2.97048e-07 0.0913957)
(7.12587e-06 6.70489e-07 0.0821921)
(-1.21013e-05 -1.1667e-06 0.0822531)
(5.03294e-06 -2.35276e-07 0.0913439)
(9.59637e-06 -9.58864e-06 0.112516)
(-9.59077e-06 9.60633e-06 0.112515)
(9.59603e-06 9.60793e-06 0.112515)
(-9.88157e-06 -9.86598e-06 0.112489)
(9.87512e-06 -9.86696e-06 0.112489)
(-9.86849e-06 9.88318e-06 0.112488)
(9.87533e-06 9.88459e-06 0.112488)
(2.72643e-05 -6.92445e-07 0.09856)
(-8.72825e-06 3.12355e-06 0.0929748)
(1.3944e-05 -2.5089e-06 0.109933)
(1.11712e-05 -6.00637e-06 0.107499)
(2.04174e-05 -7.77157e-06 0.0930395)
(1.40429e-05 -2.52735e-06 0.109928)
(-8.13714e-06 -4.40533e-07 0.0984984)
(4.2664e-06 -2.60568e-06 0.0715089)
(-5.88492e-06 3.25546e-06 0.0715746)
(-7.05758e-07 2.72341e-05 0.0985601)
(-2.50948e-06 1.39544e-05 0.109932)
(3.15165e-06 -8.7695e-06 0.0929755)
(-6.00728e-06 1.11821e-05 0.107498)
(-2.52784e-06 1.40544e-05 0.109927)
(-7.79929e-06 2.04638e-05 0.0930391)
(-4.31067e-07 -8.11292e-06 0.0984982)
(-3.53269e-06 -3.52316e-06 0.087518)
(-3.52906e-06 -3.52518e-06 0.0875166)
(4.17264e-05 4.17195e-05 0.104315)
(9.95133e-06 6.90494e-06 0.0875758)
(6.94186e-06 9.94024e-06 0.0875739)
(-3.57407e-06 -3.48246e-06 0.0875499)
(-3.48769e-06 -3.56721e-06 0.0875486)
(2.64378e-06 4.30261e-06 0.0715126)
(-3.31583e-06 -5.90408e-06 0.0715737)
(4.3097e-06 2.66426e-06 0.0715115)
(-5.92423e-06 -3.31535e-06 0.0715732)
(3.50724e-06 3.53959e-06 0.0875189)
(3.53415e-06 3.53932e-06 0.0875165)
(-4.17298e-05 -4.17136e-05 0.104315)
(-6.91725e-06 -9.94044e-06 0.0875756)
(-9.95793e-06 -6.93512e-06 0.087574)
(-3.34157e-06 -5.87729e-06 0.071589)
(2.61218e-06 4.3135e-06 0.071528)
(-5.89571e-06 -3.34215e-06 0.0715884)
(4.3221e-06 2.63194e-06 0.0715269)
(2.38951e-05 2.39031e-05 0.1042)
(-6.92705e-06 -9.90739e-06 0.0875915)
(-9.9232e-06 -6.94764e-06 0.0875899)
(3.48547e-06 3.55936e-06 0.0875349)
(3.55399e-06 3.51774e-06 0.0875325)
(3.01518e-07 -1.66196e-05 0.0913961)
(-6.78526e-07 7.15079e-06 0.0821924)
(1.16694e-06 -1.21274e-05 0.0822522)
(2.21584e-07 5.0082e-06 0.0913434)
(-7.223e-07 -2.72657e-05 0.09856)
(3.15411e-06 8.74591e-06 0.0929751)
(-2.51113e-06 -1.39346e-05 0.109933)
(-5.99378e-06 -1.11424e-05 0.107497)
(-7.80117e-06 -2.04173e-05 0.0930381)
(-2.53092e-06 -1.40344e-05 0.109928)
(-4.17176e-07 8.13472e-06 0.0984982)
(6.88751e-07 -2.72692e-05 0.0985599)
(-3.16956e-06 8.7883e-06 0.0929737)
(2.49009e-06 -1.39362e-05 0.109933)
(5.97464e-06 -1.11503e-05 0.107496)
(7.76278e-06 -2.04648e-05 0.0930378)
(2.51176e-06 -1.40345e-05 0.109927)
(4.02828e-07 8.14172e-06 0.0984979)
(-2.62064e-07 4.98858e-06 0.091359)
(-1.24489e-06 -1.20407e-05 0.0822695)
(6.80003e-07 7.13389e-06 0.0822099)
(-3.14049e-07 -1.65959e-05 0.0914118)
(2.20998e-07 4.99578e-06 0.091359)
(1.18182e-06 -1.20945e-05 0.082269)
(-6.5814e-07 7.16534e-06 0.0822093)
(3.02563e-07 -1.66005e-05 0.0914116)
(-4.19138e-07 8.08064e-06 0.0985086)
(-6.03005e-06 -1.11883e-05 0.107494)
(-7.80292e-06 -2.0395e-05 0.0930525)
(-2.57285e-06 -1.42243e-05 0.109918)
(3.13523e-06 8.7448e-06 0.0929896)
(-2.55402e-06 -1.41368e-05 0.109923)
(-7.25176e-07 -2.72671e-05 0.0985704)
(4.03505e-07 8.0882e-06 0.0985084)
(6.01151e-06 -1.11965e-05 0.107494)
(7.76151e-06 -2.04409e-05 0.0930522)
(2.55376e-06 -1.42241e-05 0.109918)
(-3.15058e-06 8.78761e-06 0.0929881)
(2.53401e-06 -1.41381e-05 0.109923)
(6.91455e-07 -2.727e-05 0.0985703)
(-3.51905e-06 3.53341e-06 0.0875164)
(-3.49703e-06 3.47176e-06 0.0875173)
(4.17209e-05 -4.17208e-05 0.104316)
(6.881e-06 -9.95203e-06 0.0875745)
(9.89487e-06 -6.89539e-06 0.0875766)
(-4.2735e-06 2.57621e-06 0.0715095)
(5.88128e-06 -3.26023e-06 0.0715748)
(3.30682e-06 -5.91847e-06 0.0715885)
(-2.61494e-06 4.33868e-06 0.0715269)
(-2.3906e-05 2.38661e-05 0.1042)
(6.89096e-06 -9.91802e-06 0.0875904)
(9.85857e-06 -6.90638e-06 0.0875925)
(-3.49687e-06 3.55143e-06 0.0875324)
(-3.51461e-06 3.44957e-06 0.0875333)
(5.85428e-06 -3.28552e-06 0.0715901)
(-4.28435e-06 2.54393e-06 0.0715248)
(-2.72833e-05 -6.94818e-07 0.0985595)
(8.74536e-06 3.16593e-06 0.0929742)
(-1.39427e-05 -2.50701e-06 0.109932)
(-1.11797e-05 -6.00182e-06 0.107498)
(-2.04485e-05 -7.78459e-06 0.0930386)
(-1.40496e-05 -2.52604e-06 0.109927)
(8.15192e-06 -4.17211e-07 0.0984979)
(-1.66381e-05 2.8343e-07 0.0913956)
(7.11542e-06 -6.68362e-07 0.0821914)
(-1.20754e-05 1.17006e-06 0.0822531)
(5.03162e-06 2.85451e-07 0.0913439)
(-2.72772e-05 6.95281e-07 0.0985595)
(-1.39386e-05 2.49669e-06 0.109932)
(8.74669e-06 -3.13499e-06 0.0929736)
(-1.11483e-05 5.9865e-06 0.107495)
(-1.40363e-05 2.51842e-06 0.109926)
(-2.0423e-05 7.74592e-06 0.0930384)
(8.15411e-06 4.32399e-07 0.0984979)
(5.02033e-06 -2.34215e-07 0.0913595)
(-1.20699e-05 -1.18363e-06 0.0822699)
(7.13706e-06 6.47829e-07 0.082209)
(-1.66255e-05 -2.97584e-07 0.0914112)
(8.09579e-06 -4.20551e-07 0.0985084)
(-1.12252e-05 -6.03766e-06 0.107496)
(-2.04242e-05 -7.78539e-06 0.093053)
(-1.42393e-05 -2.56597e-06 0.109917)
(8.74583e-06 3.1489e-06 0.0929887)
(-1.41445e-05 -2.54882e-06 0.109922)
(-2.72818e-05 -6.98782e-07 0.0985699)
(5.01831e-06 2.85491e-07 0.0913595)
(-1.20443e-05 1.18739e-06 0.0822699)
(7.12751e-06 -6.46773e-07 0.0822083)
(-1.66198e-05 2.81351e-07 0.0914111)
(8.10158e-06 4.31304e-07 0.0985084)
(-1.11936e-05 6.0239e-06 0.107493)
(-1.42254e-05 2.55949e-06 0.109917)
(-2.0399e-05 7.74853e-06 0.0930528)
(-1.41394e-05 2.53985e-06 0.109922)
(8.74562e-06 -3.11487e-06 0.0929881)
(-2.72815e-05 6.9419e-07 0.0985699)
(1.66147e-05 -3.04371e-07 0.0913964)
(-7.11982e-06 6.43145e-07 0.082192)
(1.2085e-05 -1.16404e-06 0.0822534)
(-5.00497e-06 -2.5611e-07 0.0913437)
(2.72556e-05 7.04502e-07 0.0985598)
(1.39412e-05 2.49658e-06 0.109932)
(-8.74759e-06 -3.16992e-06 0.0929749)
(1.11494e-05 5.98558e-06 0.107496)
(1.40395e-05 2.51813e-06 0.109927)
(2.04337e-05 7.77729e-06 0.0930384)
(-8.13422e-06 4.00354e-07 0.0984985)
(1.66078e-05 3.12816e-07 0.0913963)
(-7.13942e-06 -6.83327e-07 0.0821932)
(1.21058e-05 1.17563e-06 0.0822528)
(-5.00056e-06 2.25176e-07 0.0913437)
(-8.08439e-06 -4.39303e-07 0.0985088)
(1.1216e-05 -6.0436e-06 0.107496)
(2.03942e-05 -7.77377e-06 0.0930538)
(1.4232e-05 -2.56939e-06 0.109918)
(-8.72709e-06 3.10339e-06 0.0929893)
(1.41452e-05 -2.55076e-06 0.109923)
(2.7265e-05 -6.92271e-07 0.0985704)
(-4.99318e-06 -2.53584e-07 0.0913593)
(1.20426e-05 -1.176e-06 0.0822702)
(-7.12783e-06 6.20227e-07 0.0822089)
(1.65957e-05 -3.03742e-07 0.0914119)
(-8.0814e-06 4.01087e-07 0.0985089)
(1.11956e-05 6.02183e-06 0.107494)
(1.42288e-05 2.5602e-06 0.109917)
(2.04099e-05 7.77941e-06 0.0930528)
(1.41429e-05 2.53981e-06 0.109922)
(-8.74619e-06 -3.14975e-06 0.0929894)
(2.72571e-05 7.08913e-07 0.0985703)
(-4.98882e-06 2.24342e-07 0.0913593)
(1.20747e-05 1.19199e-06 0.0822696)
(-7.15094e-06 -6.62185e-07 0.0822101)
(1.65874e-05 3.13555e-07 0.0914118)
(3.51401e-06 -3.52845e-06 0.0875149)
(3.49804e-06 -3.55119e-06 0.0875185)
(-4.17105e-05 4.17317e-05 0.104315)
(-9.92917e-06 6.90637e-06 0.0875748)
(-6.92963e-06 9.95498e-06 0.0875759)
(2.63413e-06 -4.31648e-06 0.0715126)
(-3.31507e-06 5.92041e-06 0.071574)
(-5.85688e-06 3.28145e-06 0.0715898)
(4.27768e-06 -2.57325e-06 0.0715243)
(2.3873e-05 -2.39198e-05 0.1042)
(-9.8918e-06 6.91738e-06 0.0875907)
(-6.93876e-06 9.91974e-06 0.0875918)
(3.53126e-06 -3.50636e-06 0.0875309)
(3.47901e-06 -3.56866e-06 0.0875345)
(-3.34032e-06 5.8928e-06 0.0715892)
(2.6034e-06 -4.32746e-06 0.0715279)
(6.98263e-07 2.72411e-05 0.0985597)
(2.49975e-06 1.39547e-05 0.109932)
(-3.18062e-06 -8.75307e-06 0.0929744)
(6.00709e-06 1.11854e-05 0.107497)
(2.52211e-06 1.40513e-05 0.109927)
(7.80845e-06 2.04596e-05 0.0930385)
(4.12264e-07 -8.12022e-06 0.0984983)
(-3.09705e-07 1.65871e-05 0.0913968)
(6.73589e-07 -7.13924e-06 0.0821937)
(-1.18793e-06 1.21079e-05 0.0822532)
(-2.5483e-07 -4.98831e-06 0.0913434)
(3.01554e-07 1.66008e-05 0.0913963)
(-7.31208e-07 -7.12166e-06 0.0821927)
(1.23143e-06 1.21013e-05 0.082253)
(2.47402e-07 -5.00124e-06 0.0913438)
(-4.31835e-07 -8.0517e-06 0.0985087)
(-6.04289e-06 1.12262e-05 0.107495)
(-2.5692e-06 1.42445e-05 0.109917)
(-7.79956e-06 2.04395e-05 0.0930535)
(-2.55072e-06 1.41561e-05 0.109922)
(3.1377e-06 -8.7689e-06 0.0929899)
(-7.07113e-07 2.72284e-05 0.0985705)
(4.12363e-07 -8.05993e-06 0.0985088)
(6.04202e-06 1.12315e-05 0.107495)
(2.56379e-06 1.42416e-05 0.109917)
(7.81227e-06 2.04349e-05 0.0930529)
(2.54245e-06 1.41563e-05 0.109922)
(-3.16101e-06 -8.75187e-06 0.0929889)
(6.98677e-07 2.72336e-05 0.0985701)
(-2.47492e-07 -4.97184e-06 0.0913589)
(-1.19919e-06 1.20617e-05 0.08227)
(6.53087e-07 -7.14882e-06 0.0822106)
(-3.14125e-07 1.65614e-05 0.0914125)
(2.44302e-07 -4.9816e-06 0.0913593)
(1.25072e-06 1.20693e-05 0.0822698)
(-7.09301e-07 -7.13053e-06 0.0822096)
(3.03838e-07 1.65716e-05 0.091412)
(-4.31473e-06 -2.64332e-06 0.0715121)
(5.9295e-06 3.29008e-06 0.0715736)
(-2.66776e-06 -4.29936e-06 0.0715118)
(3.33691e-06 5.90782e-06 0.0715732)
(-2.39086e-05 -2.39034e-05 0.1042)
(9.91565e-06 6.91493e-06 0.0875917)
(6.95368e-06 9.90391e-06 0.0875898)
(-3.55121e-06 -3.50055e-06 0.087534)
(-3.5075e-06 -3.54447e-06 0.0875326)
(5.90201e-06 3.31623e-06 0.0715889)
(-4.32626e-06 -2.61142e-06 0.0715275)
(3.36475e-06 5.87959e-06 0.0715885)
(-2.63557e-06 -4.31043e-06 0.0715271)
(1.43239e-05 2.57868e-06 0.109912)
(-8.75144e-06 -3.13171e-06 0.0930039)
(-8.0374e-06 4.02626e-07 0.0985195)
(-7.16156e-06 -6.40719e-07 0.0822269)
(-4.97897e-06 2.25078e-07 0.0913749)
(-3.14143e-06 -8.7577e-06 0.0930034)
(-6.89857e-07 -7.14844e-06 0.0822265)
(-4.33869e-06 -2.58251e-06 0.0715427)
(-2.60599e-06 -4.32368e-06 0.0715424)
(-6.85272e-07 4.21218e-06 0.076849)
(1.22088e-07 -7.42232e-06 0.0786691)
(-1.15722e-06 -1.5986e-05 0.0899176)
(-2.62271e-07 4.993e-06 0.0913512)
(-1.98869e-07 3.83045e-06 0.078626)
(-5.36317e-07 5.48628e-06 0.0898671)
(5.22105e-07 -7.41201e-06 0.0768987)
(2.22031e-07 -6.04926e-06 0.0684399)
(-1.21908e-06 -1.20838e-05 0.0822442)
(-7.26952e-07 5.78515e-06 0.0857869)
(-1.3802e-06 -1.23146e-05 0.0858442)
(-8.63437e-07 4.8444e-06 0.0683751)
(-8.79161e-07 4.84582e-06 0.0683828)
(-1.38778e-06 -1.22981e-05 0.0858527)
(6.91367e-07 7.12956e-06 0.0822015)
(-7.37296e-07 5.79219e-06 0.0857954)
(2.09365e-07 -6.04046e-06 0.0684475)
(5.28712e-07 -7.41695e-06 0.0768904)
(-3.16001e-07 -1.66256e-05 0.0913885)
(-1.98686e-07 3.83325e-06 0.0786174)
(-5.30734e-07 5.49338e-06 0.089859)
(1.21123e-07 -7.43322e-06 0.0786606)
(-1.15402e-06 -1.59941e-05 0.0899096)
(-6.76981e-07 4.21363e-06 0.0768406)
(3.26795e-06 -5.96035e-06 0.0715656)
(-2.63018e-06 4.33272e-06 0.0715192)
(4.26777e-06 -6.6065e-07 0.0768514)
(-1.60391e-05 -1.12441e-06 0.089917)
(-7.46423e-06 1.3584e-07 0.0786684)
(5.02357e-06 -2.3412e-07 0.0913517)
(5.54098e-06 -5.15341e-07 0.0898675)
(3.87226e-06 -1.64042e-07 0.0786277)
(-7.46251e-06 5.57355e-07 0.0768983)
(-6.12542e-06 2.40476e-07 0.0684369)
(-1.21162e-05 -1.15608e-06 0.0822447)
(5.83465e-06 -7.12922e-07 0.0857866)
(-1.23895e-05 -1.3378e-06 0.085843)
(4.91673e-06 -8.1114e-07 0.0683758)
(4.91801e-06 -8.28157e-07 0.0683834)
(-1.23728e-05 -1.34789e-06 0.0858515)
(7.13164e-06 6.58913e-07 0.0822006)
(5.84152e-06 -7.24836e-07 0.0857951)
(-6.11645e-06 2.25391e-07 0.0684444)
(-7.46583e-06 5.66272e-07 0.0768899)
(-1.66558e-05 -2.99069e-07 0.091388)
(5.55085e-06 -5.07228e-07 0.0898594)
(3.87371e-06 -1.63332e-07 0.0786192)
(-1.60469e-05 -1.11875e-06 0.089909)
(-7.47193e-06 1.35685e-07 0.0786599)
(4.27107e-06 -6.49597e-07 0.076843)
(-5.89816e-06 3.24145e-06 0.071567)
(4.27173e-06 -2.58918e-06 0.0715166)
(-3.10811e-06 -3.12135e-06 0.0835872)
(3.622e-06 5.13761e-06 0.0683536)
(5.16033e-06 3.60612e-06 0.0683476)
(-2.62902e-06 -4.09254e-06 0.0682976)
(-4.0805e-06 -2.64093e-06 0.0682918)
(7.28096e-06 7.2561e-06 0.0836337)
(1.68793e-05 1.02935e-05 0.091692)
(-1.09919e-05 -5.55508e-06 0.0962497)
(9.96863e-06 6.89932e-06 0.0875678)
(-3.80917e-06 -3.05159e-06 0.0815232)
(2.4081e-05 1.41982e-05 0.0962985)
(8.1282e-06 3.99217e-06 0.0815753)
(-7.76579e-06 -3.78675e-06 0.0916441)
(1.03404e-05 1.68757e-05 0.0916854)
(-5.56953e-06 -1.09736e-05 0.0962468)
(6.93546e-06 9.9576e-06 0.087566)
(-3.05776e-06 -3.82836e-06 0.0815187)
(1.42384e-05 2.40809e-05 0.0962959)
(4.03524e-06 8.14184e-06 0.0815698)
(-3.80186e-06 -7.77882e-06 0.0916375)
(-7.7712e-06 -3.78654e-06 0.0916511)
(8.11001e-06 3.99411e-06 0.0815831)
(-3.54159e-06 -3.5112e-06 0.087526)
(2.40581e-05 1.41972e-05 0.0963043)
(-1.09918e-05 -5.54595e-06 0.0962556)
(-3.81453e-06 -3.04095e-06 0.081531)
(1.68565e-05 1.02851e-05 0.091699)
(-3.80024e-06 -7.78427e-06 0.0916445)
(4.04183e-06 8.12814e-06 0.0815776)
(-3.51822e-06 -3.53422e-06 0.0875246)
(1.42389e-05 2.40582e-05 0.0963017)
(-5.55979e-06 -1.09732e-05 0.0962527)
(-3.04935e-06 -3.83689e-06 0.0815266)
(1.0332e-05 1.68519e-05 0.0916924)
(7.29084e-06 7.26686e-06 0.0836262)
(-2.62802e-06 -4.09558e-06 0.0682908)
(-4.08416e-06 -2.63855e-06 0.068285)
(3.62992e-06 5.13996e-06 0.0683469)
(5.16198e-06 3.61523e-06 0.0683409)
(-3.10557e-06 -3.118e-06 0.0835797)
(1.67831e-05 1.02526e-05 0.09172)
(-1.10059e-05 -5.52666e-06 0.0962733)
(-3.84503e-06 -3.01973e-06 0.0815544)
(9.89618e-06 6.91809e-06 0.0875996)
(-7.79779e-06 -3.79339e-06 0.0916722)
(2.39854e-05 1.41901e-05 0.0963219)
(8.06283e-06 4.00381e-06 0.0816065)
(1.03038e-05 1.67772e-05 0.0917134)
(-5.53854e-06 -1.09886e-05 0.0962704)
(-3.02195e-06 -3.86408e-06 0.08155)
(6.95884e-06 9.88334e-06 0.0875978)
(-3.80563e-06 -7.81384e-06 0.0916657)
(1.42353e-05 2.39823e-05 0.0963193)
(4.05278e-06 8.07534e-06 0.081601)
(7.25089e-06 7.22358e-06 0.0836562)
(-2.63556e-06 -4.08218e-06 0.0683178)
(-4.06851e-06 -2.64991e-06 0.068312)
(-3.11983e-06 -3.13592e-06 0.0836098)
(3.59855e-06 5.12877e-06 0.0683737)
(5.15435e-06 3.58061e-06 0.0683677)
(-3.30176e-06 -5.91786e-06 0.0715661)
(2.62837e-06 4.30814e-06 0.0715203)
(-5.93806e-06 -3.30084e-06 0.0715656)
(4.31588e-06 2.6487e-06 0.0715192)
(3.11118e-06 3.12043e-06 0.0835873)
(-5.13478e-06 -3.62379e-06 0.0683536)
(-3.61336e-06 -5.1572e-06 0.0683474)
(4.07785e-06 2.64157e-06 0.0682979)
(2.63706e-06 4.08905e-06 0.0682916)
(-7.26068e-06 -7.2786e-06 0.0836337)
(-1.03146e-05 -1.68988e-05 0.0916921)
(5.54822e-06 1.10247e-05 0.09625)
(-6.91119e-06 -9.95899e-06 0.0875676)
(3.04272e-06 3.84332e-06 0.0815243)
(-4.00769e-06 -8.14939e-06 0.0815752)
(-1.42158e-05 -2.40971e-05 0.0962987)
(3.78676e-06 7.8035e-06 0.0916443)
(-1.68939e-05 -1.03433e-05 0.0916854)
(1.09743e-05 5.57045e-06 0.0962468)
(-9.97677e-06 -6.9292e-06 0.087566)
(3.83365e-06 3.06125e-06 0.0815185)
(-8.15249e-06 -4.02755e-06 0.0815697)
(-2.41e-05 -1.42337e-05 0.096296)
(7.78223e-06 3.8105e-06 0.0916376)
(3.78631e-06 7.80901e-06 0.0916513)
(-4.01153e-06 -8.13244e-06 0.081583)
(3.49641e-06 3.54853e-06 0.0875269)
(-1.42157e-05 -2.4073e-05 0.0963045)
(3.03432e-06 3.85199e-06 0.0815322)
(-1.03042e-05 -1.68727e-05 0.0916991)
(5.53879e-06 1.10246e-05 0.0962559)
(7.78792e-06 3.81037e-06 0.0916446)
(-8.13551e-06 -4.0323e-06 0.0815775)
(3.54458e-06 3.52919e-06 0.0875245)
(-2.40759e-05 -1.42343e-05 0.0963019)
(3.84192e-06 3.05211e-06 0.0815263)
(-1.68682e-05 -1.03342e-05 0.0916924)
(1.0974e-05 5.56125e-06 0.0962527)
(-7.27148e-06 -7.28894e-06 0.0836262)
(4.08117e-06 2.64035e-06 0.0682912)
(2.63514e-06 4.09271e-06 0.0682848)
(-5.13691e-06 -3.63199e-06 0.0683469)
(-3.62181e-06 -5.15895e-06 0.0683407)
(3.10755e-06 3.11728e-06 0.0835797)
(2.59759e-06 4.31873e-06 0.0715357)
(-3.32852e-06 -5.89071e-06 0.0715813)
(4.32856e-06 2.61607e-06 0.0715346)
(-5.90952e-06 -3.32924e-06 0.0715808)
(-7.25147e-06 -7.2694e-06 0.0836412)
(4.07373e-06 2.64343e-06 0.0683047)
(2.64049e-06 4.08468e-06 0.0682983)
(3.1146e-06 3.1226e-06 0.0835948)
(-5.132e-06 -3.61664e-06 0.0683604)
(-3.60577e-06 -5.15435e-06 0.0683541)
(3.78876e-06 7.82508e-06 0.0916654)
(-1.42124e-05 -2.40269e-05 0.0963162)
(3.47494e-06 3.56819e-06 0.0875429)
(-4.02316e-06 -8.10795e-06 0.0815986)
(3.01899e-06 3.87066e-06 0.0815478)
(5.52456e-06 1.10304e-05 0.0962677)
(-1.02862e-05 -1.68267e-05 0.0917131)
(7.80527e-06 3.81198e-06 0.0916587)
(-2.40283e-05 -1.42312e-05 0.0963136)
(3.56466e-06 3.50797e-06 0.0875405)
(-8.08961e-06 -4.03012e-06 0.081593)
(3.85489e-06 3.03095e-06 0.081542)
(1.09803e-05 5.54565e-06 0.0962645)
(-1.68212e-05 -1.0316e-05 0.0917064)
(-1.02957e-05 -1.68503e-05 0.0917061)
(3.02763e-06 3.86243e-06 0.08154)
(5.53163e-06 1.10269e-05 0.0962617)
(-6.92215e-06 -9.92331e-06 0.0875835)
(3.78668e-06 7.81554e-06 0.0916584)
(-4.01344e-06 -8.11507e-06 0.0815908)
(-1.42141e-05 -2.40506e-05 0.0963103)
(-1.6845e-05 -1.03249e-05 0.0916994)
(3.84845e-06 3.04147e-06 0.0815342)
(1.09764e-05 5.55308e-06 0.0962586)
(-9.94041e-06 -6.94104e-06 0.0875819)
(7.79592e-06 3.81014e-06 0.0916516)
(-8.11848e-06 -4.03487e-06 0.0815853)
(-2.40535e-05 -1.42328e-05 0.0963077)
(3.11877e-06 3.12639e-06 0.0836024)
(-5.12944e-06 -3.6072e-06 0.0683671)
(-3.59873e-06 -5.1536e-06 0.0683608)
(4.07046e-06 2.64489e-06 0.0683114)
(2.64305e-06 4.08109e-06 0.0683051)
(-7.2416e-06 -7.25864e-06 0.0836487)
(6.52534e-07 4.26628e-06 0.0768506)
(-1.3327e-07 -7.42583e-06 0.078669)
(1.13904e-06 -1.60342e-05 0.0899169)
(2.21344e-07 5.00154e-06 0.0913512)
(1.64364e-07 3.83508e-06 0.0786261)
(4.95552e-07 5.53213e-06 0.089867)
(-5.45165e-07 -7.46839e-06 0.0768979)
(-2.32538e-07 -6.12507e-06 0.0684363)
(1.1519e-06 -1.2129e-05 0.0822437)
(7.07955e-07 5.83351e-06 0.0857862)
(1.34461e-06 -1.23791e-05 0.0858425)
(8.15539e-07 4.91752e-06 0.0683752)
(8.32666e-07 4.91894e-06 0.0683828)
(1.35163e-06 -1.23646e-05 0.085851)
(-6.67556e-07 7.15588e-06 0.0822008)
(7.19058e-07 5.84048e-06 0.0857947)
(-2.19957e-07 -6.11593e-06 0.0684439)
(-5.52077e-07 -7.4746e-06 0.0768895)
(3.02083e-07 -1.66303e-05 0.0913884)
(1.64246e-07 3.83729e-06 0.0786176)
(4.88971e-07 5.53928e-06 0.0898589)
(-1.33269e-07 -7.43627e-06 0.0786605)
(1.13502e-06 -1.60432e-05 0.0899089)
(6.43597e-07 4.26665e-06 0.0768422)
(5.16394e-07 -7.4034e-06 0.0769071)
(-1.98831e-07 3.82752e-06 0.0786345)
(-5.41767e-07 5.48326e-06 0.0898752)
(-3.14392e-07 -1.66055e-05 0.091404)
(-6.94304e-07 4.20951e-06 0.0768574)
(1.22997e-07 -7.41228e-06 0.0786776)
(-1.16119e-06 -1.5973e-05 0.0899256)
(-9.0885e-07 4.84599e-06 0.0683979)
(6.71012e-07 7.14129e-06 0.0822184)
(-1.40154e-06 -1.22654e-05 0.0858696)
(1.85718e-07 -6.0225e-06 0.0684626)
(-7.56631e-07 5.80419e-06 0.0858123)
(1.97105e-07 -6.03155e-06 0.068455)
(-7.46931e-07 5.7982e-06 0.0858038)
(-1.23717e-06 -1.20559e-05 0.0822611)
(-8.95025e-07 4.84507e-06 0.0683903)
(-1.39433e-06 -1.22818e-05 0.0858611)
(-7.01691e-07 4.20948e-06 0.0768658)
(-2.61864e-07 4.98136e-06 0.0913668)
(1.23525e-07 -7.39841e-06 0.0786861)
(-1.16535e-06 -1.59632e-05 0.0899337)
(5.09739e-07 -7.39919e-06 0.0769155)
(-1.99968e-07 3.82244e-06 0.078643)
(-5.48022e-07 5.4787e-06 0.0898833)
(-5.37676e-07 -7.46047e-06 0.0769063)
(1.64881e-07 3.83138e-06 0.0786346)
(5.0204e-07 5.528e-06 0.0898751)
(3.02322e-07 -1.66108e-05 0.0914039)
(6.62093e-07 4.2632e-06 0.076859)
(-1.33093e-07 -7.41338e-06 0.0786775)
(1.14437e-06 -1.60228e-05 0.089925)
(8.64939e-07 4.91949e-06 0.0683979)
(-6.48099e-07 7.17214e-06 0.0822177)
(1.36725e-06 -1.23287e-05 0.0858679)
(7.4065e-07 5.85514e-06 0.0858117)
(-1.93088e-07 -6.09719e-06 0.0684589)
(-2.06453e-07 -6.10614e-06 0.0684514)
(7.29914e-07 5.84742e-06 0.0858032)
(1.17385e-06 -1.21097e-05 0.0822606)
(8.49167e-07 4.91915e-06 0.0683904)
(1.35958e-06 -1.23459e-05 0.0858594)
(6.7181e-07 4.26227e-06 0.0768674)
(2.21505e-07 4.98956e-06 0.0913668)
(-1.32429e-07 -7.40393e-06 0.0786859)
(1.14968e-06 -1.60122e-05 0.089933)
(1.66401e-07 3.82571e-06 0.0786432)
(5.09117e-07 5.52178e-06 0.0898832)
(-5.29838e-07 -7.45484e-06 0.0769146)
(-3.139e-06 3.11288e-06 0.0835871)
(5.13292e-06 -3.63964e-06 0.0683481)
(3.60949e-06 -5.1629e-06 0.0683536)
(-4.09653e-06 2.63614e-06 0.0682919)
(-2.64968e-06 4.07433e-06 0.0682973)
(7.26862e-06 -7.29573e-06 0.0836339)
(1.03231e-05 -1.69004e-05 0.0916859)
(-5.59089e-06 1.10046e-05 0.0962465)
(6.87561e-06 -9.96936e-06 0.0875665)
(-3.05496e-06 3.80479e-06 0.0815184)
(3.98735e-06 -8.14428e-06 0.0815707)
(1.42016e-05 -2.41053e-05 0.0962962)
(-3.83773e-06 7.77768e-06 0.0916373)
(1.68854e-05 -1.03436e-05 0.0916924)
(-1.09726e-05 5.54137e-06 0.0962499)
(9.91023e-06 -6.89018e-06 0.0875687)
(-3.80665e-06 3.04078e-06 0.081523)
(2.40645e-05 -1.42306e-05 0.0962992)
(8.10185e-06 -4.03073e-06 0.0815755)
(-7.79555e-06 3.78392e-06 0.0916441)
(-3.83592e-06 7.78287e-06 0.0916444)
(3.99123e-06 -8.128e-06 0.0815784)
(-3.50668e-06 3.54084e-06 0.0875244)
(1.42006e-05 -2.40822e-05 0.096302)
(-3.0453e-06 3.81158e-06 0.0815262)
(-5.58185e-06 1.1004e-05 0.0962523)
(1.03153e-05 -1.6879e-05 0.0916929)
(-7.80046e-06 3.78281e-06 0.0916511)
(8.08743e-06 -4.03529e-06 0.0815833)
(-3.50538e-06 3.46001e-06 0.0875253)
(2.4042e-05 -1.42297e-05 0.096305)
(-1.09718e-05 5.53238e-06 0.0962557)
(-3.81363e-06 3.03173e-06 0.0815308)
(1.68643e-05 -1.03369e-05 0.0916994)
(7.27813e-06 -7.3052e-06 0.0836264)
(-4.1001e-06 2.63455e-06 0.0682852)
(-2.64851e-06 4.0775e-06 0.0682905)
(5.13471e-06 -3.64788e-06 0.0683414)
(3.61783e-06 -5.16514e-06 0.0683468)
(-3.13773e-06 3.1111e-06 0.0835796)
(5.89432e-06 -3.24641e-06 0.0715672)
(-4.27841e-06 2.55986e-06 0.0715172)
(-2.60011e-06 4.34467e-06 0.0715346)
(3.29377e-06 -5.93263e-06 0.0715809)
(7.25903e-06 -7.28633e-06 0.0836414)
(-4.09226e-06 2.63891e-06 0.0682987)
(-2.65283e-06 4.07038e-06 0.068304)
(-3.14206e-06 3.11612e-06 0.0835947)
(5.12963e-06 -3.63214e-06 0.0683549)
(3.6009e-06 -5.15998e-06 0.0683603)
(-3.83715e-06 7.79783e-06 0.0916584)
(1.41979e-05 -2.40351e-05 0.0963137)
(-3.48739e-06 3.56136e-06 0.0875404)
(3.99724e-06 -8.09418e-06 0.081594)
(-5.56758e-06 1.10107e-05 0.0962641)
(-3.02856e-06 3.82901e-06 0.0815419)
(1.02973e-05 -1.68315e-05 0.0917069)
(-7.81592e-06 3.78483e-06 0.0916652)
(2.39936e-05 -1.42259e-05 0.0963167)
(-3.52523e-06 3.43965e-06 0.0875413)
(8.04779e-06 -4.03758e-06 0.0815989)
(-3.83001e-06 3.01415e-06 0.0815465)
(-1.09784e-05 5.51746e-06 0.0962675)
(1.68166e-05 -1.03164e-05 0.0917134)
(1.0307e-05 -1.68563e-05 0.0916999)
(-3.03886e-06 3.82311e-06 0.0815341)
(-5.57513e-06 1.10064e-05 0.0962582)
(6.886e-06 -9.93507e-06 0.0875824)
(1.4199e-05 -2.406e-05 0.0963078)
(-3.83575e-06 7.78932e-06 0.0916514)
(3.99324e-06 -8.1106e-06 0.0815862)
(1.68408e-05 -1.03267e-05 0.0917064)
(-3.8215e-06 3.02307e-06 0.0815387)
(-1.09742e-05 5.52509e-06 0.0962616)
(9.8774e-06 -6.9004e-06 0.0875846)
(-7.80726e-06 3.78345e-06 0.0916581)
(8.07189e-06 -4.03886e-06 0.0815911)
(2.40191e-05 -1.42279e-05 0.0963109)
(-3.1462e-06 3.12067e-06 0.0836022)
(5.12837e-06 -3.62324e-06 0.0683616)
(3.59431e-06 -5.15859e-06 0.068367)
(-4.08926e-06 2.64139e-06 0.0683054)
(-2.65486e-06 4.06643e-06 0.0683108)
(7.24922e-06 -7.27545e-06 0.0836489)
(-4.29066e-06 2.52935e-06 0.0715325)
(5.86666e-06 -3.2726e-06 0.0715825)
(4.22053e-06 7.13037e-07 0.0768491)
(-7.46129e-06 -1.44668e-07 0.0786683)
(-1.59977e-05 1.10273e-06 0.0899173)
(5.02403e-06 2.85492e-07 0.0913517)
(3.86758e-06 2.22434e-07 0.0786274)
(5.50563e-06 5.68033e-07 0.0898669)
(-7.42282e-06 -5.68938e-07 0.0768985)
(-6.06644e-06 -2.62938e-07 0.0684396)
(-1.20901e-05 1.16064e-06 0.0822447)
(5.80376e-06 7.53697e-07 0.0857862)
(-1.23384e-05 1.3278e-06 0.085844)
(4.85716e-06 8.84882e-07 0.0683746)
(4.85849e-06 9.00983e-07 0.0683822)
(-1.2322e-05 1.33586e-06 0.0858524)
(7.12047e-06 -6.57225e-07 0.0821998)
(5.81e-06 7.64165e-07 0.0857947)
(-6.05767e-06 -2.49781e-07 0.0684472)
(-7.42833e-06 -5.7637e-07 0.0768901)
(-1.66492e-05 2.82106e-07 0.0913879)
(3.87195e-06 2.21027e-07 0.0786189)
(5.51228e-06 5.61895e-07 0.0898588)
(-7.46402e-06 -1.45525e-07 0.0786598)
(-1.6007e-05 1.09922e-06 0.0899093)
(4.22108e-06 7.04565e-07 0.0768407)
(-7.45809e-06 5.49476e-07 0.0769066)
(5.53917e-06 -5.22944e-07 0.0898755)
(3.87051e-06 -1.63941e-07 0.0786362)
(-1.66358e-05 -2.97784e-07 0.0914035)
(4.2652e-06 -6.70474e-07 0.0768598)
(-1.60249e-05 -1.12884e-06 0.0899251)
(-7.45896e-06 1.35086e-07 0.0786769)
(4.91814e-06 -8.61805e-07 0.0683985)
(7.14577e-06 6.37396e-07 0.0822175)
(-1.23373e-05 -1.36325e-06 0.0858684)
(-6.09817e-06 1.98099e-07 0.0684594)
(5.85642e-06 -7.46327e-07 0.0858121)
(-6.10687e-06 2.11951e-07 0.0684519)
(5.85073e-06 -7.3636e-07 0.0858036)
(-1.20868e-05 -1.17567e-06 0.0822615)
(4.91792e-06 -8.46838e-07 0.068391)
(-1.23537e-05 -1.35431e-06 0.0858599)
(4.261e-06 -6.79537e-07 0.0768682)
(5.01191e-06 -2.34644e-07 0.0913673)
(-1.60154e-05 -1.13363e-06 0.0899331)
(-7.45481e-06 1.33391e-07 0.0786853)
(-7.4533e-06 5.4082e-07 0.076915)
(5.53302e-06 -5.30302e-07 0.0898837)
(3.87078e-06 -1.64218e-07 0.0786448)
(-7.41497e-06 -5.62507e-07 0.0769069)
(3.86635e-06 2.22278e-07 0.078636)
(5.50004e-06 5.74163e-07 0.089875)
(-1.66287e-05 2.81332e-07 0.0914034)
(4.21676e-06 7.22448e-07 0.0768575)
(-7.45216e-06 -1.45738e-07 0.0786768)
(-1.59862e-05 1.1066e-06 0.0899254)
(4.85877e-06 9.31516e-07 0.0683974)
(7.13064e-06 -6.35566e-07 0.0822167)
(-1.22885e-05 1.35205e-06 0.0858693)
(5.82127e-06 7.85378e-07 0.0858117)
(-6.03858e-06 -2.23625e-07 0.0684622)
(-6.04823e-06 -2.36703e-07 0.0684547)
(5.81575e-06 7.75162e-07 0.0858032)
(-1.20565e-05 1.17668e-06 0.0822615)
(4.85802e-06 9.17248e-07 0.0683898)
(-1.23047e-05 1.34391e-06 0.0858609)
(4.21616e-06 7.29731e-07 0.0768659)
(5.0117e-06 2.85508e-07 0.0913673)
(-7.4516e-06 -1.45297e-07 0.0786853)
(-1.59787e-05 1.11117e-06 0.0899334)
(3.86594e-06 2.22673e-07 0.0786445)
(5.49409e-06 5.80525e-07 0.0898831)
(-7.40982e-06 -5.54267e-07 0.0769152)
(-4.26909e-06 -6.81562e-07 0.0768511)
(1.60379e-05 -1.14437e-06 0.0899175)
(7.42236e-06 1.30951e-07 0.0786693)
(-4.99858e-06 -2.54069e-07 0.0913515)
(-5.54189e-06 -5.27016e-07 0.0898674)
(-3.8357e-06 -1.93099e-07 0.0786264)
(7.46435e-06 5.44242e-07 0.0768985)
(6.12694e-06 2.28769e-07 0.0684371)
(1.21005e-05 -1.15524e-06 0.082245)
(-5.84108e-06 -7.3732e-07 0.0857868)
(1.23839e-05 -1.34692e-06 0.0858434)
(-4.92444e-06 -8.36188e-07 0.0683758)
(-4.92451e-06 -8.51481e-07 0.0683835)
(1.23674e-05 -1.35463e-06 0.0858519)
(-7.12472e-06 6.3204e-07 0.0822004)
(-5.84663e-06 -7.48766e-07 0.0857953)
(6.1178e-06 2.16286e-07 0.0684447)
(7.45956e-06 5.52316e-07 0.0768901)
(1.66266e-05 -3.06514e-07 0.0913886)
(-5.55035e-06 -5.21364e-07 0.0898593)
(-3.84065e-06 -1.91729e-07 0.0786179)
(1.60487e-05 -1.14127e-06 0.0899094)
(7.43641e-06 1.30286e-07 0.0786607)
(-4.26597e-06 -6.7325e-07 0.0768427)
(-4.25972e-06 6.5243e-07 0.0768507)
(7.42309e-06 -1.21253e-07 0.0786692)
(1.60289e-05 1.14933e-06 0.0899173)
(-4.99415e-06 2.24224e-07 0.0913515)
(-3.83254e-06 1.63886e-07 0.0786264)
(-5.52344e-06 4.99007e-07 0.0898675)
(7.46363e-06 -5.36255e-07 0.076898)
(6.11716e-06 -2.19195e-07 0.0684389)
(1.21209e-05 1.16622e-06 0.0822443)
(-5.82658e-06 7.05217e-07 0.0857876)
(1.23697e-05 1.35962e-06 0.0858439)
(-4.91087e-06 8.11883e-07 0.0683778)
(-4.91193e-06 8.29125e-07 0.0683854)
(1.2353e-05 1.3674e-06 0.0858523)
(-7.14392e-06 -6.72346e-07 0.0822016)
(-5.83327e-06 7.15794e-07 0.0857961)
(6.10819e-06 -2.05699e-07 0.0684464)
(7.46972e-06 -5.43154e-07 0.0768896)
(1.66196e-05 3.14028e-07 0.0913886)
(-3.83689e-06 1.63986e-07 0.0786179)
(-5.53119e-06 4.93063e-07 0.0898594)
(7.42612e-06 -1.2069e-07 0.0786607)
(1.60378e-05 1.14635e-06 0.0899093)
(-4.26055e-06 6.44003e-07 0.0768423)
(7.4643e-06 5.37078e-07 0.0769069)
(-5.5373e-06 -5.33086e-07 0.0898755)
(-3.83438e-06 -1.92627e-07 0.078635)
(1.66053e-05 -3.04646e-07 0.0914041)
(-4.26176e-06 -6.90587e-07 0.0768595)
(1.60262e-05 -1.14817e-06 0.0899255)
(7.41863e-06 1.3267e-07 0.0786777)
(-4.92435e-06 -8.83311e-07 0.0683986)
(-7.13003e-06 6.08858e-07 0.0822173)
(1.23334e-05 -1.36898e-06 0.0858688)
(-5.85797e-06 -7.67874e-07 0.0858123)
(6.09878e-06 1.90489e-07 0.0684597)
(6.10742e-06 2.02845e-07 0.0684522)
(-5.85199e-06 -7.5889e-07 0.0858038)
(1.20708e-05 -1.17274e-06 0.0822618)
(-4.92434e-06 -8.67415e-07 0.068391)
(1.23488e-05 -1.36125e-06 0.0858603)
(-4.2614e-06 -6.98933e-07 0.0768679)
(-4.9867e-06 -2.54672e-07 0.0913671)
(1.60164e-05 -1.15154e-06 0.0899336)
(7.4141e-06 1.32851e-07 0.0786862)
(-5.53316e-06 -5.39644e-07 0.0898836)
(-3.83458e-06 -1.9212e-07 0.0786435)
(7.45714e-06 5.30963e-07 0.0769152)
(7.45475e-06 -5.29076e-07 0.0769063)