/*--------------------------------*- C++ -*----------------------------------*\
| =========                 |                                                 |
| \\      /  F ield         | OpenFOAM: The Open Source CFD Toolbox           |
|  \\    /   O peration     | Version:  v1906                                 |
|   \\  /    A nd           | Web:      www.OpenFOAM.com                      |
|    \\/     M anipulation  |                                                 |
\*---------------------------------------------------------------------------*/
FoamFile
{
    version     2.0;
    format      ascii;
    class       volScalarField;
    location    "950";
    object      epsilon;
}
// * * * * * * * * * * * * * * * * * * * * * * * * * * * * * * * * * * * * * //

dimensions      [0 2 -3 0 0 0 0];


internalField   nonuniform List<scalar> 
43024
(
6.63533e-07
1.18841e-06
1.18847e-06
1.4206e-06
6.68499e-07
1.19041e-06
1.19047e-06
1.42262e-06
6.72896e-07
1.19192e-06
1.19198e-06
1.42423e-06
6.76744e-07
1.19295e-06
1.19301e-06
1.42564e-06
6.80062e-07
1.19353e-06
1.1936e-06
1.42658e-06
6.82873e-07
1.19367e-06
1.19374e-06
1.42704e-06
6.85201e-07
1.19344e-06
1.19351e-06
1.42715e-06
6.87068e-07
1.19282e-06
1.19289e-06
1.42691e-06
6.88496e-07
1.19183e-06
1.1919e-06
1.42634e-06
6.89508e-07
1.19051e-06
1.19058e-06
1.42547e-06
6.90124e-07
1.18887e-06
1.18894e-06
1.4243e-06
6.90372e-07
1.18694e-06
1.18701e-06
1.42253e-06
6.90293e-07
1.18475e-06
1.18481e-06
1.42088e-06
6.89917e-07
1.18231e-06
1.18236e-06
1.41897e-06
6.89254e-07
1.17965e-06
1.17968e-06
1.41687e-06
6.88326e-07
1.17679e-06
1.17681e-06
1.4145e-06
6.87154e-07
1.17376e-06
1.17375e-06
1.41195e-06
6.85761e-07
1.17059e-06
1.17055e-06
1.40925e-06
6.84167e-07
1.16726e-06
1.16724e-06
1.40637e-06
6.8214e-07
1.16354e-06
1.16356e-06
1.403e-06
6.6317e-07
1.10621e-06
1.10618e-06
1.35983e-06
1.41845e-06
1.18789e-06
1.18791e-06
1.41837e-06
1.1878e-06
1.18793e-06
1.18782e-06
1.18795e-06
1.41844e-06
1.18787e-06
1.18786e-06
1.41847e-06
1.42052e-06
1.42054e-06
1.18848e-06
1.18851e-06
1.19001e-06
1.19003e-06
1.4205e-06
1.42049e-06
1.18839e-06
1.18853e-06
1.18992e-06
1.19006e-06
1.18854e-06
1.18994e-06
1.19007e-06
1.42056e-06
1.42056e-06
1.18846e-06
1.19e-06
1.18998e-06
1.42058e-06
1.42255e-06
1.42223e-06
1.19048e-06
1.19051e-06
1.19163e-06
1.19166e-06
1.42251e-06
1.42218e-06
1.1904e-06
1.19053e-06
1.19154e-06
1.19168e-06
1.19055e-06
1.19156e-06
1.19169e-06
1.42258e-06
1.42225e-06
1.19046e-06
1.19162e-06
1.19161e-06
1.42228e-06
1.42417e-06
1.42361e-06
1.19199e-06
1.19202e-06
1.19278e-06
1.19281e-06
1.42413e-06
1.42339e-06
1.1919e-06
1.19204e-06
1.19269e-06
1.19283e-06
1.19205e-06
1.19271e-06
1.19284e-06
1.42419e-06
1.42347e-06
1.19197e-06
1.19277e-06
1.19276e-06
1.42349e-06
1.42538e-06
1.42455e-06
1.19302e-06
1.19305e-06
1.19348e-06
1.19351e-06
1.42551e-06
1.42422e-06
1.19294e-06
1.19308e-06
1.19339e-06
1.19353e-06
1.19309e-06
1.1934e-06
1.19354e-06
1.42557e-06
1.42429e-06
1.193e-06
1.19347e-06
1.19346e-06
1.42433e-06
1.42621e-06
1.42507e-06
1.1936e-06
1.19364e-06
1.19375e-06
1.19378e-06
1.42644e-06
1.42473e-06
1.19352e-06
1.19366e-06
1.19366e-06
1.1938e-06
1.19367e-06
1.19367e-06
1.19382e-06
1.42651e-06
1.42481e-06
1.19359e-06
1.19374e-06
1.19373e-06
1.42484e-06
1.42668e-06
1.42522e-06
1.19375e-06
1.19378e-06
1.19359e-06
1.19361e-06
1.42691e-06
1.42488e-06
1.19366e-06
1.1938e-06
1.1935e-06
1.19364e-06
1.19381e-06
1.19351e-06
1.19365e-06
1.42698e-06
1.42496e-06
1.19373e-06
1.19357e-06
1.19357e-06
1.42499e-06
1.42679e-06
1.42502e-06
1.19351e-06
1.19355e-06
1.19303e-06
1.19306e-06
1.42701e-06
1.42468e-06
1.19343e-06
1.19356e-06
1.19295e-06
1.19308e-06
1.19358e-06
1.19295e-06
1.1931e-06
1.42709e-06
1.42476e-06
1.19349e-06
1.19302e-06
1.19301e-06
1.42479e-06
1.42655e-06
1.4245e-06
1.19289e-06
1.19293e-06
1.19211e-06
1.19213e-06
1.42677e-06
1.42415e-06
1.19281e-06
1.19295e-06
1.19203e-06
1.19216e-06
1.19296e-06
1.19202e-06
1.19218e-06
1.42685e-06
1.42424e-06
1.19287e-06
1.19209e-06
1.19209e-06
1.42426e-06
1.42599e-06
1.42366e-06
1.19191e-06
1.19194e-06
1.19084e-06
1.19087e-06
1.4262e-06
1.42331e-06
1.19183e-06
1.19197e-06
1.19076e-06
1.19089e-06
1.19198e-06
1.19076e-06
1.19091e-06
1.42628e-06
1.4234e-06
1.19189e-06
1.19083e-06
1.19082e-06
1.42343e-06
1.42512e-06
1.42253e-06
1.19059e-06
1.19062e-06
1.18926e-06
1.18928e-06
1.42533e-06
1.42218e-06
1.19051e-06
1.19065e-06
1.18918e-06
1.18931e-06
1.19065e-06
1.18917e-06
1.18932e-06
1.42541e-06
1.42227e-06
1.19057e-06
1.18924e-06
1.18924e-06
1.4223e-06
1.42395e-06
1.42113e-06
1.18896e-06
1.18899e-06
1.18738e-06
1.1874e-06
1.42416e-06
1.42078e-06
1.18888e-06
1.18901e-06
1.18729e-06
1.18743e-06
1.18902e-06
1.18728e-06
1.18744e-06
1.42424e-06
1.42087e-06
1.18894e-06
1.18736e-06
1.18736e-06
1.42111e-06
1.42253e-06
1.41948e-06
1.18703e-06
1.18706e-06
1.18522e-06
1.18524e-06
1.42273e-06
1.41913e-06
1.18695e-06
1.18708e-06
1.18514e-06
1.18527e-06
1.18709e-06
1.18513e-06
1.18528e-06
1.42281e-06
1.41922e-06
1.18701e-06
1.1852e-06
1.1852e-06
1.41951e-06
1.42086e-06
1.41754e-06
1.18483e-06
1.18486e-06
1.18281e-06
1.18284e-06
1.42102e-06
1.41733e-06
1.18475e-06
1.18488e-06
1.18273e-06
1.18286e-06
1.18489e-06
1.18271e-06
1.18288e-06
1.4211e-06
1.41743e-06
1.18481e-06
1.18279e-06
1.18279e-06
1.4176e-06
1.41901e-06
1.4153e-06
1.18238e-06
1.18241e-06
1.18018e-06
1.1802e-06
1.41897e-06
1.41521e-06
1.1823e-06
1.18243e-06
1.1801e-06
1.18023e-06
1.18244e-06
1.18006e-06
1.18024e-06
1.41903e-06
1.4153e-06
1.18236e-06
1.18016e-06
1.18016e-06
1.41539e-06
1.41682e-06
1.41292e-06
1.17971e-06
1.17973e-06
1.17734e-06
1.17736e-06
1.41677e-06
1.41285e-06
1.17963e-06
1.17976e-06
1.17726e-06
1.17739e-06
1.17977e-06
1.1772e-06
1.1774e-06
1.41683e-06
1.41293e-06
1.17969e-06
1.17731e-06
1.17731e-06
1.41298e-06
1.41445e-06
1.41037e-06
1.17683e-06
1.17686e-06
1.17431e-06
1.17434e-06
1.41439e-06
1.41031e-06
1.17675e-06
1.17688e-06
1.17423e-06
1.17436e-06
1.1769e-06
1.17416e-06
1.17438e-06
1.41446e-06
1.41039e-06
1.17681e-06
1.17429e-06
1.17429e-06
1.41043e-06
1.4119e-06
1.40767e-06
1.17378e-06
1.17381e-06
1.17113e-06
1.17115e-06
1.41184e-06
1.40761e-06
1.1737e-06
1.17383e-06
1.17105e-06
1.17118e-06
1.17385e-06
1.17094e-06
1.17119e-06
1.41191e-06
1.40769e-06
1.17376e-06
1.1711e-06
1.17111e-06
1.40773e-06
1.40919e-06
1.40482e-06
1.17058e-06
1.17061e-06
1.16779e-06
1.16782e-06
1.40914e-06
1.40476e-06
1.1705e-06
1.17063e-06
1.16771e-06
1.16785e-06
1.17065e-06
1.1676e-06
1.16786e-06
1.40921e-06
1.40484e-06
1.17056e-06
1.16776e-06
1.16777e-06
1.40488e-06
1.40632e-06
1.40151e-06
1.16726e-06
1.16729e-06
1.16389e-06
1.16393e-06
1.40627e-06
1.40146e-06
1.16719e-06
1.16732e-06
1.16381e-06
1.16394e-06
1.16733e-06
1.16375e-06
1.16396e-06
1.40634e-06
1.40154e-06
1.16724e-06
1.16386e-06
1.16387e-06
1.40157e-06
1.40295e-06
1.38013e-06
1.16359e-06
1.16362e-06
1.14122e-06
1.14124e-06
1.4029e-06
1.38008e-06
1.1635e-06
1.16363e-06
1.1412e-06
1.14119e-06
1.16365e-06
1.14113e-06
1.14127e-06
1.40296e-06
1.38009e-06
1.16356e-06
1.14114e-06
1.14123e-06
1.3798e-06
1.35969e-06
1.10617e-06
1.1062e-06
1.35973e-06
1.10617e-06
1.10613e-06
6.63215e-07
6.63181e-07
6.63199e-07
1.10619e-06
1.35975e-06
1.10619e-06
4.2388e-06
9.56569e-06
1.90933e-05
4.23899e-06
9.56768e-06
6.62187e-07
6.622e-07
6.62292e-07
6.62287e-07
2.29551e-06
1.18656e-06
3.64734e-06
9.3503e-07
1.90943e-05
2.29548e-06
1.18662e-06
9.35081e-07
3.64739e-06
1.41725e-06
5.65053e-06
5.65249e-06
4.24104e-06
9.57185e-06
4.24065e-06
9.5766e-06
1.91046e-05
1.91146e-05
4.24123e-06
9.57384e-06
4.24075e-06
9.57859e-06
6.63547e-07
6.63639e-07
6.63627e-07
6.67294e-07
6.67307e-07
6.67398e-07
6.67397e-07
2.29663e-06
3.64924e-06
9.37675e-07
1.18894e-06
2.29654e-06
3.64947e-06
9.38459e-07
1.91055e-05
1.91155e-05
2.29659e-06
9.37726e-07
3.64923e-06
1.189e-06
2.29651e-06
9.38507e-07
3.64951e-06
5.65364e-06
5.65558e-06
1.41957e-06
5.65454e-06
5.65649e-06
4.243e-06
9.58245e-06
4.2427e-06
9.58698e-06
1.91254e-05
1.9135e-05
4.24319e-06
9.58445e-06
4.2428e-06
9.58897e-06
6.68513e-07
6.68604e-07
6.68591e-07
6.71827e-07
6.71841e-07
6.71931e-07
6.7193e-07
2.29745e-06
3.65117e-06
9.40655e-07
1.19081e-06
2.29743e-06
3.65128e-06
9.41285e-07
1.91263e-05
1.9136e-05
2.29742e-06
9.40704e-07
3.65117e-06
1.19087e-06
2.29739e-06
9.41334e-07
3.65133e-06
5.65745e-06
5.65939e-06
1.42148e-06
5.65825e-06
5.66021e-06
4.24467e-06
9.59252e-06
4.24446e-06
9.59682e-06
1.91455e-05
1.91548e-05
4.24485e-06
9.59451e-06
4.24457e-06
9.59882e-06
6.72911e-07
6.73001e-07
6.72988e-07
6.75806e-07
6.7582e-07
6.75909e-07
6.75909e-07
2.29785e-06
3.65279e-06
9.43052e-07
1.19219e-06
2.29794e-06
3.65279e-06
9.43534e-07
1.91464e-05
1.91558e-05
2.29779e-06
9.431e-07
3.6528e-06
1.19225e-06
2.2979e-06
9.43582e-07
3.65284e-06
5.66098e-06
5.66292e-06
1.42296e-06
5.66168e-06
5.66362e-06
4.24605e-06
9.60203e-06
4.24594e-06
9.60611e-06
1.91648e-05
1.91738e-05
4.24622e-06
9.60403e-06
4.24605e-06
9.6081e-06
6.76758e-07
6.76847e-07
6.76835e-07
6.7925e-07
6.79264e-07
6.79352e-07
6.79352e-07
2.29789e-06
3.65412e-06
9.44893e-07
1.19311e-06
2.2981e-06
3.65401e-06
9.45235e-07
1.91657e-05
1.91747e-05
2.29771e-06
9.4494e-07
3.65413e-06
1.19317e-06
2.29818e-06
9.45282e-07
3.65406e-06
5.66423e-06
5.66616e-06
1.42389e-06
5.66481e-06
5.66676e-06
4.24717e-06
9.61099e-06
4.24716e-06
9.61484e-06
1.91833e-05
1.91919e-05
4.24732e-06
9.61299e-06
4.24725e-06
9.61683e-06
6.80076e-07
6.80164e-07
6.80153e-07
6.82179e-07
6.82193e-07
6.82281e-07
6.82282e-07
2.29762e-06
3.65516e-06
9.46205e-07
1.19359e-06
2.29795e-06
3.65493e-06
9.46417e-07
1.91842e-05
1.91929e-05
2.29742e-06
9.46251e-07
3.65518e-06
1.19365e-06
2.29801e-06
9.46463e-07
3.65499e-06
5.66718e-06
5.66912e-06
1.42457e-06
5.66766e-06
5.66961e-06
4.248e-06
9.6194e-06
4.2481e-06
9.62302e-06
1.9201e-05
1.92093e-05
4.24814e-06
9.62139e-06
4.24818e-06
9.62501e-06
6.82887e-07
6.82975e-07
6.82964e-07
6.84616e-07
6.84629e-07
6.84716e-07
6.84718e-07
2.29702e-06
3.65592e-06
9.47016e-07
1.19364e-06
2.29748e-06
3.65558e-06
9.4711e-07
1.92018e-05
1.92102e-05
2.29683e-06
9.47061e-07
3.65594e-06
1.1937e-06
2.29753e-06
9.47155e-07
3.65565e-06
5.66986e-06
5.67181e-06
1.4249e-06
5.67023e-06
5.67218e-06
4.24857e-06
9.62725e-06
4.24877e-06
9.63065e-06
1.92178e-05
1.92258e-05
4.24871e-06
9.62924e-06
4.24885e-06
9.63263e-06
6.85214e-07
6.85302e-07
6.85292e-07
6.86585e-07
6.86597e-07
6.86684e-07
6.86686e-07
2.29612e-06
3.65641e-06
9.47349e-07
1.19327e-06
2.29673e-06
3.65597e-06
9.4735e-07
1.92187e-05
1.92267e-05
2.296e-06
9.47394e-07
3.65643e-06
1.19334e-06
2.29672e-06
9.47395e-07
3.65604e-06
5.67227e-06
5.67421e-06
1.42487e-06
5.67252e-06
5.67448e-06
4.24889e-06
9.63454e-06
4.24919e-06
9.63773e-06
1.92338e-05
1.92415e-05
4.24902e-06
9.63653e-06
4.24926e-06
9.6397e-06
6.8708e-07
6.87167e-07
6.87158e-07
6.88112e-07
6.88123e-07
6.8821e-07
6.88212e-07
2.29491e-06
3.65663e-06
9.47249e-07
1.19253e-06
2.29569e-06
3.65608e-06
9.47128e-07
1.92346e-05
1.92423e-05
2.2948e-06
9.47291e-07
3.65666e-06
1.1926e-06
2.29566e-06
9.47177e-07
3.65616e-06
5.67439e-06
5.67635e-06
1.42451e-06
5.67453e-06
5.67649e-06
4.24896e-06
9.64128e-06
4.24935e-06
9.64426e-06
1.92489e-05
1.92562e-05
4.24909e-06
9.64328e-06
4.24943e-06
9.6463e-06
6.88506e-07
6.88593e-07
6.88585e-07
6.89225e-07
6.89233e-07
6.89321e-07
6.89321e-07
2.29346e-06
3.6566e-06
9.46754e-07
1.19143e-06
2.29434e-06
3.65595e-06
9.46503e-07
1.92497e-05
1.92571e-05
2.29335e-06
9.46796e-07
3.65664e-06
1.1915e-06
2.29432e-06
9.46554e-07
3.65603e-06
5.67624e-06
5.67819e-06
1.42383e-06
5.67626e-06
5.67822e-06
4.2488e-06
9.64745e-06
4.24929e-06
9.65023e-06
1.92631e-05
1.92702e-05
4.24894e-06
9.64952e-06
4.24936e-06
9.6523e-06
6.89516e-07
6.89603e-07
6.89597e-07
6.89951e-07
6.89957e-07
6.90045e-07
6.90043e-07
2.29177e-06
3.65633e-06
9.45875e-07
1.19e-06
2.29275e-06
3.65557e-06
9.45504e-07
1.92639e-05
1.92711e-05
2.29166e-06
9.45919e-07
3.65636e-06
1.19007e-06
2.29274e-06
9.45555e-07
3.65565e-06
5.67782e-06
5.67977e-06
1.42285e-06
5.6777e-06
5.67966e-06
4.24844e-06
9.65307e-06
4.249e-06
9.65568e-06
1.92764e-05
1.92833e-05
4.24858e-06
9.65516e-06
4.24909e-06
9.65777e-06
6.9013e-07
6.90217e-07
6.90213e-07
6.90319e-07
6.90323e-07
6.90411e-07
6.90409e-07
2.28986e-06
3.65582e-06
9.44644e-07
1.18826e-06
2.29093e-06
3.65495e-06
9.4416e-07
1.92772e-05
1.92842e-05
2.28974e-06
9.44689e-07
3.65585e-06
1.18834e-06
2.29092e-06
9.44211e-07
3.65502e-06
5.67914e-06
5.68108e-06
1.42159e-06
5.67887e-06
5.68083e-06
4.24788e-06
9.65817e-06
4.24852e-06
9.66052e-06
1.92888e-05
1.92956e-05
4.24803e-06
9.66028e-06
4.24861e-06
9.66263e-06
6.90376e-07
6.90463e-07
6.90461e-07
6.90326e-07
6.90328e-07
6.90415e-07
6.90414e-07
2.28775e-06
3.65508e-06
9.43087e-07
1.18624e-06
2.28891e-06
3.65409e-06
9.42498e-07
1.92896e-05
1.92965e-05
2.28763e-06
9.43131e-07
3.65511e-06
1.18631e-06
2.2889e-06
9.42549e-07
3.65416e-06
5.68022e-06
5.68217e-06
1.42034e-06
5.67978e-06
5.68174e-06
4.24713e-06
9.6628e-06
4.24785e-06
9.66482e-06
1.93003e-05
1.93071e-05
4.24728e-06
9.66492e-06
4.24794e-06
9.66695e-06
6.90297e-07
6.90383e-07
6.90381e-07
6.90008e-07
6.90008e-07
6.90096e-07
6.90095e-07
2.28544e-06
3.65414e-06
9.41232e-07
1.18395e-06
2.28668e-06
3.65301e-06
9.40545e-07
1.93011e-05
1.9308e-05
2.28532e-06
9.41273e-07
3.65417e-06
1.18403e-06
2.28668e-06
9.40598e-07
3.65308e-06
5.68108e-06
5.68303e-06
1.41857e-06
5.68041e-06
5.68237e-06
4.24619e-06
9.66688e-06
4.24699e-06
9.66871e-06
1.93108e-05
1.93179e-05
4.24635e-06
9.66901e-06
4.24709e-06
9.67085e-06
6.8992e-07
6.90005e-07
6.90003e-07
6.89396e-07
6.89396e-07
6.89482e-07
6.89481e-07
2.28295e-06
3.65301e-06
9.39108e-07
1.18141e-06
2.28427e-06
3.65169e-06
9.38328e-07
1.93116e-05
1.93188e-05
2.28282e-06
9.39142e-07
3.65303e-06
1.1815e-06
2.28426e-06
9.38383e-07
3.65175e-06
5.68174e-06
5.68369e-06
1.41653e-06
5.68074e-06
5.68271e-06
4.24507e-06
9.67034e-06
4.24594e-06
9.67211e-06
1.93202e-05
1.93281e-05
4.24523e-06
9.67248e-06
4.24605e-06
9.67426e-06
6.89255e-07
6.8934e-07
6.89339e-07
6.88511e-07
6.88511e-07
6.88595e-07
6.88596e-07
2.28029e-06
3.65171e-06
9.36739e-07
1.17866e-06
2.28167e-06
3.65012e-06
9.35867e-07
1.9321e-05
1.9329e-05
2.28014e-06
9.36762e-07
3.65173e-06
1.17876e-06
2.28168e-06
9.35929e-07
3.65017e-06
5.68223e-06
5.68418e-06
1.4142e-06
5.68075e-06
5.68271e-06
4.24379e-06
9.67324e-06
4.24473e-06
9.67517e-06
1.93285e-05
1.93378e-05
4.24396e-06
9.67539e-06
4.24484e-06
9.67732e-06
6.88327e-07
6.8841e-07
6.88409e-07
6.87379e-07
6.87379e-07
6.87462e-07
6.87463e-07
2.27746e-06
3.65029e-06
9.34152e-07
1.17571e-06
2.27892e-06
3.64824e-06
9.3319e-07
1.93294e-05
1.93387e-05
2.27731e-06
9.34162e-07
3.6503e-06
1.17582e-06
2.27892e-06
9.33262e-07
3.6483e-06
5.68259e-06
5.68454e-06
1.41172e-06
5.68039e-06
5.68235e-06
4.24242e-06
9.67561e-06
4.24341e-06
9.678e-06
1.93356e-05
1.93473e-05
4.24258e-06
9.67776e-06
4.24351e-06
9.68016e-06
6.87155e-07
6.87236e-07
6.87237e-07
6.86023e-07
6.86022e-07
6.86104e-07
6.86105e-07
2.27448e-06
3.64878e-06
9.31374e-07
1.17258e-06
2.27602e-06
3.64594e-06
9.30317e-07
1.93365e-05
1.93482e-05
2.27435e-06
9.31364e-07
3.6488e-06
1.17271e-06
2.27601e-06
9.30405e-07
3.646e-06
5.68289e-06
5.68484e-06
1.4091e-06
5.67961e-06
5.68157e-06
4.24111e-06
9.67744e-06
4.24205e-06
9.68097e-06
1.93415e-05
1.93567e-05
4.24127e-06
9.67955e-06
4.24216e-06
9.68306e-06
6.85763e-07
6.85842e-07
6.85843e-07
6.84461e-07
6.8446e-07
6.84543e-07
6.84545e-07
2.27134e-06
3.64728e-06
9.28431e-07
1.1693e-06
2.27303e-06
3.64296e-06
9.27276e-07
1.93423e-05
1.93577e-05
2.27126e-06
9.28395e-07
3.6473e-06
1.16945e-06
2.27299e-06
9.27386e-07
3.64301e-06
5.68311e-06
5.68506e-06
1.40632e-06
5.67835e-06
5.68031e-06
4.24018e-06
9.6787e-06
4.24089e-06
9.68467e-06
1.93464e-05
1.93663e-05
4.24033e-06
9.68075e-06
4.24099e-06
9.68671e-06
6.84172e-07
6.84248e-07
6.84251e-07
6.8235e-07
6.82357e-07
6.82431e-07
6.82436e-07
2.26789e-06
3.64644e-06
9.25349e-07
1.16583e-06
2.26992e-06
3.64003e-06
9.24024e-07
1.93473e-05
1.93672e-05
2.26783e-06
9.25285e-07
3.64654e-06
1.16597e-06
2.26987e-06
9.24155e-07
3.64018e-06
5.68317e-06
5.68511e-06
1.40337e-06
5.67747e-06
5.6794e-06
4.2357e-06
9.67808e-06
4.23983e-06
9.68557e-06
1.93496e-05
1.93686e-05
4.23573e-06
9.68016e-06
4.23996e-06
9.68751e-06
6.82145e-07
6.82207e-07
6.8221e-07
6.71639e-07
6.71662e-07
6.71661e-07
6.71683e-07
2.26039e-06
3.64899e-06
9.21622e-07
1.15924e-06
2.26649e-06
3.63477e-06
9.19793e-07
1.93507e-05
1.93697e-05
2.26034e-06
9.21687e-07
3.64911e-06
1.15931e-06
2.26644e-06
9.19827e-07
3.63484e-06
5.68575e-06
5.68767e-06
1.39731e-06
5.68204e-06
5.68387e-06
3.44402e-06
8.89438e-06
4.17932e-06
5.85817e-06
1.71529e-05
8.58446e-06
3.44416e-06
8.89599e-06
4.1794e-06
5.85496e-06
3.18953e-07
4.84052e-07
4.84006e-07
7.09932e-07
3.25395e-07
5.05515e-07
5.05483e-07
2.16634e-06
3.53987e-06
8.94452e-07
1.05229e-06
2.2322e-06
3.65239e-06
8.33295e-07
1.7153e-05
8.58272e-06
2.16649e-06
8.94452e-07
3.53907e-06
1.05228e-06
2.23132e-06
8.33271e-07
3.65228e-06
5.59241e-06
5.59413e-06
1.30592e-06
5.25723e-06
5.25708e-06
1.90918e-05
1.90941e-05
1.41724e-06
5.65047e-06
5.65234e-06
1.91025e-05
1.90924e-05
1.91048e-05
1.90948e-05
1.41933e-06
5.65251e-06
5.65439e-06
5.65152e-06
5.65343e-06
4.23892e-06
9.56667e-06
2.29539e-06
1.18663e-06
3.64718e-06
9.34964e-07
2.29546e-06
1.18666e-06
3.64769e-06
9.35003e-07
4.23952e-06
9.57122e-06
9.56636e-06
4.23996e-06
4.23964e-06
9.5722e-06
9.56771e-06
4.24007e-06
2.2959e-06
1.18729e-06
3.64828e-06
9.36755e-07
3.64794e-06
9.35894e-07
2.296e-06
2.29597e-06
1.18732e-06
3.6488e-06
9.36794e-07
3.64847e-06
9.35933e-07
2.29606e-06
1.41715e-06
5.65223e-06
5.65047e-06
1.90911e-05
1.9104e-05
1.9094e-05
1.41934e-06
5.65427e-06
5.65251e-06
5.65333e-06
5.6517e-06
1.91018e-05
1.90917e-05
2.29555e-06
1.18654e-06
3.64789e-06
9.3505e-07
4.23889e-06
9.56689e-06
2.29547e-06
1.18668e-06
9.35057e-07
3.64773e-06
4.23962e-06
9.57321e-06
9.56835e-06
4.24015e-06
2.29605e-06
1.1872e-06
3.649e-06
9.36841e-07
3.6487e-06
9.3596e-07
2.29616e-06
4.23953e-06
9.57242e-06
9.56793e-06
4.24005e-06
2.29597e-06
1.18734e-06
9.36849e-07
3.64884e-06
9.35987e-07
3.64856e-06
2.29608e-06
4.23898e-06
9.56671e-06
2.29543e-06
1.18669e-06
9.35043e-07
3.64726e-06
4.23886e-06
9.56654e-06
2.29596e-06
1.18722e-06
3.64845e-06
9.3682e-07
3.64816e-06
9.3596e-07
2.29611e-06
4.23966e-06
9.57222e-06
9.56773e-06
4.24013e-06
2.29588e-06
1.18735e-06
9.36836e-07
3.64837e-06
9.35976e-07
3.64803e-06
2.29603e-06
4.23956e-06
9.57208e-06
9.56758e-06
4.24001e-06
1.41722e-06
5.65224e-06
5.65057e-06
1.90929e-05
1.9105e-05
1.90949e-05
1.41939e-06
5.65428e-06
5.65261e-06
5.65347e-06
5.65166e-06
1.91036e-05
1.90936e-05
2.29553e-06
1.18661e-06
9.35095e-07
3.64791e-06
4.23889e-06
9.56686e-06
4.23893e-06
9.56778e-06
2.29594e-06
1.18728e-06
9.36871e-07
3.64849e-06
9.36012e-07
3.64815e-06
2.29608e-06
2.29598e-06
1.18727e-06
9.36886e-07
3.64901e-06
9.36028e-07
3.64869e-06
2.29612e-06
4.23969e-06
9.57238e-06
9.56789e-06
4.24008e-06
4.23968e-06
9.5733e-06
9.56844e-06
4.24013e-06
1.90928e-05
1.90947e-05
1.41944e-06
5.65257e-06
5.65453e-06
5.65162e-06
5.65357e-06
1.91035e-05
1.90934e-05
1.91054e-05
1.90953e-05
1.91031e-05
1.9113e-05
1.91054e-05
1.91154e-05
5.65354e-06
5.65544e-06
1.41954e-06
5.65448e-06
5.65636e-06
1.91233e-05
1.91135e-05
1.91257e-05
1.91159e-05
1.42159e-06
5.65636e-06
5.65825e-06
5.65548e-06
5.65738e-06
4.24115e-06
9.57318e-06
4.24076e-06
9.57758e-06
2.29652e-06
3.64902e-06
9.3761e-07
1.18901e-06
2.29647e-06
3.6493e-06
9.38394e-07
2.29658e-06
3.64955e-06
9.37649e-07
1.18904e-06
2.29654e-06
3.64982e-06
9.38432e-07
4.24171e-06
9.58187e-06
9.57722e-06
4.24205e-06
4.24181e-06
9.58284e-06
9.57856e-06
4.24216e-06
2.29695e-06
1.18954e-06
3.65025e-06
9.39881e-07
3.65003e-06
9.39175e-07
2.29694e-06
2.29702e-06
1.18957e-06
3.65077e-06
9.39919e-07
3.65056e-06
9.39214e-07
2.297e-06
5.65534e-06
5.65371e-06
1.41948e-06
5.65624e-06
5.65447e-06
1.91024e-05
1.91123e-05
1.91249e-05
1.91151e-05
1.42155e-06
5.65813e-06
5.65637e-06
5.65729e-06
5.65565e-06
1.91227e-05
1.91129e-05
2.29668e-06
3.64978e-06
9.37676e-07
1.18892e-06
2.29662e-06
3.65003e-06
9.3848e-07
4.24113e-06
9.5734e-06
4.24065e-06
9.5778e-06
2.29659e-06
9.37704e-07
3.64963e-06
1.18906e-06
2.29654e-06
9.38488e-07
3.64986e-06
4.2418e-06
9.58386e-06
9.57921e-06
4.24224e-06
2.2971e-06
1.18946e-06
3.65098e-06
9.39968e-07
3.65079e-06
9.39242e-07
2.2971e-06
4.24171e-06
9.58306e-06
9.57878e-06
4.24214e-06
2.29703e-06
1.18959e-06
9.39975e-07
3.65081e-06
9.39269e-07
3.65064e-06
2.29702e-06
4.24121e-06
9.57321e-06
4.2408e-06
9.5776e-06
2.29654e-06
9.37692e-07
3.64912e-06
1.18907e-06
2.29646e-06
9.38473e-07
3.64939e-06
4.24109e-06
9.57305e-06
4.24069e-06
9.57746e-06
2.29702e-06
1.18948e-06
3.65041e-06
9.39944e-07
3.65024e-06
9.3924e-07
2.29706e-06
4.24185e-06
9.58286e-06
9.57858e-06
4.24222e-06
2.29695e-06
1.18961e-06
9.3996e-07
3.65034e-06
9.39256e-07
3.65013e-06
2.29696e-06
4.24175e-06
9.58272e-06
9.57843e-06
4.2421e-06
5.65548e-06
5.65367e-06
1.41955e-06
5.65625e-06
5.65458e-06
1.91043e-05
1.91142e-05
1.91259e-05
1.9116e-05
1.42162e-06
5.65814e-06
5.65647e-06
5.65742e-06
5.65561e-06
1.91245e-05
1.91148e-05
2.29663e-06
9.37743e-07
3.64977e-06
1.18899e-06
2.29657e-06
9.38524e-07
3.65004e-06
4.24117e-06
9.57336e-06
4.24084e-06
9.57776e-06
4.24122e-06
9.57394e-06
4.24083e-06
9.57869e-06
2.29699e-06
1.18953e-06
9.39993e-07
3.65046e-06
9.39289e-07
3.65024e-06
2.29703e-06
2.29706e-06
1.18952e-06
9.40011e-07
3.65098e-06
9.39309e-07
3.65077e-06
2.29705e-06
4.24191e-06
9.58302e-06
9.57873e-06
4.24218e-06
4.2419e-06
9.58395e-06
9.57931e-06
4.24223e-06
1.91041e-05
1.9114e-05
1.9106e-05
1.91159e-05
1.42167e-06
5.65643e-06
5.65839e-06
5.65558e-06
5.65752e-06
1.91244e-05
1.91146e-05
1.91263e-05
1.91165e-05
1.91239e-05
1.91335e-05
1.91262e-05
1.91359e-05
5.65735e-06
5.65925e-06
1.42144e-06
5.65818e-06
5.66007e-06
1.91435e-05
1.9134e-05
1.91458e-05
1.91364e-05
1.42341e-06
5.65993e-06
5.66182e-06
5.65916e-06
5.66105e-06
4.2431e-06
9.58378e-06
4.2428e-06
9.58796e-06
2.29728e-06
3.65096e-06
9.40591e-07
1.19088e-06
2.29737e-06
3.65112e-06
9.41222e-07
2.29733e-06
3.65149e-06
9.40628e-07
1.19091e-06
2.29742e-06
3.65164e-06
9.41258e-07
4.24361e-06
9.59198e-06
9.58755e-06
4.24387e-06
4.24371e-06
9.59296e-06
9.58889e-06
4.24397e-06
2.29778e-06
1.1913e-06
3.65192e-06
9.42417e-07
3.65181e-06
9.41861e-07
2.29749e-06
2.29783e-06
1.19132e-06
3.65244e-06
9.42452e-07
3.65234e-06
9.41897e-07
2.29753e-06
5.65916e-06
5.65752e-06
1.42138e-06
5.65995e-06
5.65819e-06
1.91232e-05
1.91328e-05
1.9145e-05
1.91356e-05
1.42337e-06
5.66171e-06
5.65993e-06
5.66096e-06
5.65931e-06
1.91428e-05
1.91333e-05
2.29745e-06
3.65172e-06
9.40658e-07
1.19079e-06
2.29754e-06
3.65185e-06
9.41309e-07
4.24308e-06
9.584e-06
4.2427e-06
9.58818e-06
2.29736e-06
9.40686e-07
3.65157e-06
1.19093e-06
2.29744e-06
9.41316e-07
3.65168e-06
4.24371e-06
9.59398e-06
9.58955e-06
4.24406e-06
2.29793e-06
1.19121e-06
3.65264e-06
9.42505e-07
3.65257e-06
9.41929e-07
2.29766e-06
4.24362e-06
9.59317e-06
9.58911e-06
4.24395e-06
2.29785e-06
1.19135e-06
9.42512e-07
3.65247e-06
9.41957e-07
3.65242e-06
2.29758e-06
4.24316e-06
9.5838e-06
4.24284e-06
9.58797e-06
2.2973e-06
9.40672e-07
3.65106e-06
1.19094e-06
2.29737e-06
9.41301e-07
3.65122e-06
4.24305e-06
9.58366e-06
4.24274e-06
9.58784e-06
2.29774e-06
1.19123e-06
3.65207e-06
9.42478e-07
3.65202e-06
9.41924e-07
2.29769e-06
4.24375e-06
9.59295e-06
9.58891e-06
4.24403e-06
2.29777e-06
1.19136e-06
9.42497e-07
3.65201e-06
9.41943e-07
3.65192e-06
2.29753e-06
4.24366e-06
9.59284e-06
9.58877e-06
4.24393e-06
5.65929e-06
5.65748e-06
1.42145e-06
5.65996e-06
5.65829e-06
1.91251e-05
1.91347e-05
1.9146e-05
1.91364e-05
1.42344e-06
5.66171e-06
5.66004e-06
5.66108e-06
5.65928e-06
1.91446e-05
1.91352e-05
2.29738e-06
9.40724e-07
3.6517e-06
1.19086e-06
2.29747e-06
9.41351e-07
3.65185e-06
4.24312e-06
9.58395e-06
4.24289e-06
9.58813e-06
4.24316e-06
9.58454e-06
4.24288e-06
9.58907e-06
2.29771e-06
1.19129e-06
9.42527e-07
3.65212e-06
9.41973e-07
3.65202e-06
2.29764e-06
2.29788e-06
1.19128e-06
9.42546e-07
3.65265e-06
9.41994e-07
3.65255e-06
2.29759e-06
4.24379e-06
9.59312e-06
9.58906e-06
4.24398e-06
4.24379e-06
9.59406e-06
9.58964e-06
4.24403e-06
1.91249e-05
1.91345e-05
1.91268e-05
1.91364e-05
1.42348e-06
5.66e-06
5.66195e-06
5.65925e-06
5.66119e-06
1.91445e-05
1.9135e-05
1.91464e-05
1.91369e-05
1.91439e-05
1.91532e-05
1.91463e-05
1.91556e-05
5.66089e-06
5.66278e-06
1.42294e-06
5.66161e-06
5.66349e-06
1.91628e-05
1.91537e-05
1.91652e-05
1.91561e-05
1.42483e-06
5.66321e-06
5.6651e-06
5.66254e-06
5.66444e-06
4.24478e-06
9.59384e-06
4.24456e-06
9.5978e-06
2.29765e-06
3.65259e-06
9.42989e-07
1.19226e-06
2.29798e-06
3.65264e-06
9.43473e-07
2.2977e-06
3.65312e-06
9.43026e-07
1.19229e-06
2.29803e-06
3.65316e-06
9.43509e-07
4.24523e-06
9.60154e-06
9.59734e-06
4.2454e-06
4.24533e-06
9.60252e-06
9.59868e-06
4.2455e-06
2.29811e-06
1.19256e-06
3.65329e-06
9.44391e-07
3.6533e-06
9.43979e-07
2.2977e-06
2.29817e-06
1.19259e-06
3.65381e-06
9.44427e-07
3.65383e-06
9.44015e-07
2.29775e-06
5.66268e-06
5.66103e-06
1.42286e-06
5.66338e-06
5.66161e-06
1.91432e-05
1.91526e-05
1.91644e-05
1.91552e-05
1.42482e-06
5.66498e-06
5.66321e-06
5.66434e-06
5.66268e-06
1.91621e-05
1.91529e-05
2.29783e-06
3.65335e-06
9.43058e-07
1.19218e-06
2.29813e-06
3.65337e-06
9.43561e-07
4.24475e-06
9.59406e-06
4.24447e-06
9.59801e-06
2.29775e-06
9.43085e-07
3.6532e-06
1.19231e-06
2.29805e-06
9.43568e-07
3.65319e-06
4.24534e-06
9.60354e-06
9.59934e-06
4.24557e-06
2.29827e-06
1.19248e-06
3.65402e-06
9.44478e-07
3.65406e-06
9.44047e-07
2.29787e-06
4.24524e-06
9.60273e-06
9.5989e-06
4.24547e-06
2.29819e-06
1.19262e-06
9.44485e-07
3.65384e-06
9.44074e-07
3.6539e-06
2.29779e-06
4.24482e-06
9.59385e-06
4.2446e-06
9.59779e-06
2.29769e-06
9.43071e-07
3.6527e-06
1.19233e-06
2.298e-06
9.43553e-07
3.65274e-06
4.24473e-06
9.59372e-06
4.24451e-06
9.59769e-06
2.29806e-06
1.1925e-06
3.65344e-06
9.4445e-07
3.65349e-06
9.4404e-07
2.29789e-06
4.24537e-06
9.6025e-06
9.59868e-06
4.24555e-06
2.29813e-06
1.19263e-06
9.4447e-07
3.65338e-06
9.4406e-07
3.6534e-06
2.29773e-06
4.24529e-06
9.6024e-06
9.59856e-06
4.24545e-06
5.66281e-06
5.66101e-06
1.42293e-06
5.66339e-06
5.66171e-06
1.91451e-05
1.91544e-05
1.91653e-05
1.91561e-05
1.42489e-06
5.665e-06
5.66332e-06
5.66446e-06
5.66267e-06
1.9164e-05
1.91549e-05
2.29775e-06
9.43121e-07
3.65333e-06
1.19224e-06
2.29808e-06
9.43601e-07
3.65337e-06
4.24477e-06
9.59401e-06
4.24463e-06
9.59796e-06
4.24486e-06
9.5946e-06
4.24471e-06
9.59891e-06
2.29801e-06
1.19255e-06
9.44497e-07
3.65349e-06
9.44088e-07
3.6535e-06
2.29772e-06
2.29821e-06
1.19254e-06
9.44517e-07
3.65401e-06
9.44109e-07
3.65404e-06
2.29778e-06
4.24539e-06
9.60267e-06
9.59884e-06
4.24549e-06
4.2455e-06
9.60361e-06
9.59942e-06
4.24559e-06
1.9145e-05
1.91543e-05
1.91468e-05
1.91561e-05
1.42494e-06
5.66328e-06
5.66523e-06
5.66264e-06
5.66458e-06
1.91639e-05
1.91547e-05
1.91657e-05
1.91566e-05
1.91632e-05
1.91722e-05
1.91656e-05
1.91746e-05
5.66413e-06
5.66603e-06
1.42415e-06
5.66474e-06
5.66663e-06
1.91814e-05
1.91726e-05
1.91838e-05
1.9175e-05
1.42583e-06
5.6662e-06
5.66809e-06
5.66565e-06
5.66755e-06
4.24616e-06
9.60336e-06
4.24604e-06
9.60709e-06
2.29771e-06
3.65393e-06
9.44832e-07
1.19318e-06
2.29816e-06
3.65386e-06
9.45176e-07
2.29776e-06
3.65446e-06
9.44869e-07
1.19321e-06
2.29822e-06
3.65438e-06
9.45213e-07
4.24658e-06
9.61055e-06
9.60658e-06
4.24664e-06
4.24668e-06
9.61153e-06
9.60792e-06
4.24674e-06
2.29813e-06
1.19337e-06
3.65437e-06
9.4583e-07
3.65449e-06
9.45553e-07
2.29759e-06
2.29819e-06
1.1934e-06
3.65489e-06
9.45867e-07
3.65502e-06
9.45591e-07
2.29764e-06
5.66592e-06
5.66426e-06
1.4238e-06
5.66651e-06
5.66475e-06
1.91625e-05
1.91715e-05
1.91829e-05
1.91741e-05
1.42609e-06
5.66798e-06
5.6662e-06
5.66744e-06
5.66577e-06
1.91807e-05
1.91718e-05
2.29787e-06
3.6547e-06
9.449e-07
1.1931e-06
2.29831e-06
3.65459e-06
9.45262e-07
4.24612e-06
9.60358e-06
4.24595e-06
9.6073e-06
2.29779e-06
9.44927e-07
3.65453e-06
1.19323e-06
2.29823e-06
9.4527e-07
3.65441e-06
4.24668e-06
9.61255e-06
9.60858e-06
4.24681e-06
2.29828e-06
1.19329e-06
3.6551e-06
9.45915e-07
3.65526e-06
9.45621e-07
2.29775e-06
4.24659e-06
9.61174e-06
9.60814e-06
4.24671e-06
2.2982e-06
1.19342e-06
9.45923e-07
3.65491e-06
9.45648e-07
3.65509e-06
2.29767e-06
4.2462e-06
9.60335e-06
4.24608e-06
9.60706e-06
2.29774e-06
9.44913e-07
3.65404e-06
1.19325e-06
2.29817e-06
9.45255e-07
3.65396e-06
4.24611e-06
9.60324e-06
4.246e-06
9.60697e-06
2.29807e-06
1.1933e-06
3.65451e-06
9.45888e-07
3.65468e-06
9.45613e-07
2.29778e-06
4.24672e-06
9.61149e-06
9.6079e-06
4.24679e-06
2.29815e-06
1.19344e-06
9.45909e-07
3.65446e-06
9.45634e-07
3.6546e-06
2.29762e-06
4.24663e-06
9.61141e-06
9.6078e-06
4.24669e-06
5.66604e-06
5.66426e-06
1.42388e-06
5.66653e-06
5.66485e-06
1.91644e-05
1.91734e-05
1.91839e-05
1.9175e-05
1.42616e-06
5.66799e-06
5.66631e-06
5.66755e-06
5.66577e-06
1.91825e-05
1.91738e-05
2.29778e-06
9.44961e-07
3.65467e-06
1.19316e-06
2.29825e-06
9.45302e-07
3.65459e-06
4.24613e-06
9.60351e-06
4.24609e-06
9.60723e-06
4.24623e-06
9.60411e-06
4.2462e-06
9.60819e-06
2.29813e-06
1.19336e-06
9.45934e-07
3.65456e-06
9.4566e-07
3.65469e-06
2.29756e-06
2.29822e-06
1.19335e-06
9.45955e-07
3.65509e-06
9.45682e-07
3.65523e-06
2.29766e-06
4.24672e-06
9.61166e-06
9.60806e-06
4.24671e-06
4.24683e-06
9.61262e-06
9.60865e-06
4.24681e-06
1.91643e-05
1.91732e-05
1.91661e-05
1.91751e-05
1.42621e-06
5.66627e-06
5.66822e-06
5.66574e-06
5.66768e-06
1.91824e-05
1.91736e-05
1.91843e-05
1.91755e-05
1.91817e-05
1.91904e-05
1.91841e-05
1.91928e-05
5.66709e-06
5.669e-06
1.42484e-06
5.66759e-06
5.66949e-06
1.91992e-05
1.91907e-05
1.92015e-05
1.91931e-05
1.42649e-06
5.66892e-06
5.67081e-06
5.66847e-06
5.67037e-06
4.24727e-06
9.61232e-06
4.24726e-06
9.61582e-06
2.29743e-06
3.65498e-06
9.46146e-07
1.19366e-06
2.29802e-06
3.6548e-06
9.46359e-07
2.29749e-06
3.65551e-06
9.46184e-07
1.19369e-06
2.29808e-06
3.65532e-06
9.46397e-07
4.24766e-06
9.61901e-06
9.61527e-06
4.24762e-06
4.24776e-06
9.61998e-06
9.6166e-06
4.24772e-06
2.29783e-06
1.19373e-06
3.65516e-06
9.46765e-07
3.6554e-06
9.46613e-07
2.29715e-06
2.29789e-06
1.19376e-06
3.65569e-06
9.46802e-07
3.65593e-06
9.46651e-07
2.29721e-06