/*--------------------------------*- C++ -*----------------------------------*\
| =========                 |                                                 |
| \\      /  F ield         | OpenFOAM: The Open Source CFD Toolbox           |
|  \\    /   O peration     | Version:  v1906                                 |
|   \\  /    A nd           | Web:      www.OpenFOAM.com                      |
|    \\/     M anipulation  |                                                 |
\*---------------------------------------------------------------------------*/
FoamFile
{
    version     2.0;
    format      ascii;
    class       volScalarField;
    location    "950";
    object      nut;
}
// * * * * * * * * * * * * * * * * * * * * * * * * * * * * * * * * * * * * * //

dimensions      [0 2 -1 0 0 0 0];


internalField   nonuniform List<scalar> 
43024
(
0.00020834
0.000201475
0.000201465
0.000182435
0.000210637
0.000202718
0.000202708
0.000183273
0.000212825
0.000203883
0.000203873
0.000184058
0.000214904
0.000204971
0.000204961
0.000184749
0.000216874
0.000205983
0.000205974
0.00018539
0.000218734
0.000206922
0.000206912
0.00018599
0.000220485
0.00020778
0.00020777
0.000186534
0.000222129
0.000208566
0.000208556
0.000187023
0.000223668
0.000209281
0.000209271
0.000187459
0.000225103
0.000209924
0.000209915
0.000187844
0.00022644
0.000210497
0.000210488
0.000188179
0.000227677
0.000211005
0.000210995
0.000188564
0.000228812
0.000211446
0.000211437
0.000188807
0.000229844
0.000211833
0.000211826
0.000188976
0.000230776
0.000212163
0.000212158
0.000189095
0.000231617
0.000212435
0.000212433
0.00018919
0.000232373
0.000212652
0.000212654
0.000189256
0.000233051
0.000212816
0.000212823
0.000189289
0.000233637
0.000212939
0.000212942
0.000189288
0.000234146
0.000212911
0.000212907
0.000189248
0.00023632
0.000214209
0.000214248
0.000192673
0.000182376
0.000201117
0.000201117
0.000182444
0.000201131
0.000201105
0.000201149
0.000201124
0.000182428
0.00020114
0.000201139
0.000182437
0.000182479
0.00018325
0.000201442
0.000201443
0.000202377
0.000202379
0.000182443
0.000183269
0.000201457
0.00020143
0.000202393
0.000202366
0.00020145
0.000202411
0.000202385
0.000182429
0.000183254
0.000201465
0.000202401
0.0002024
0.000183258
0.000183295
0.000184035
0.000202685
0.000202686
0.00020356
0.000203561
0.000183294
0.000184052
0.0002027
0.000202673
0.000203575
0.000203548
0.000202693
0.000203594
0.000203568
0.00018328
0.000184037
0.000202708
0.000203584
0.000203583
0.000184048
0.000184063
0.00018475
0.00020385
0.000203851
0.000204664
0.000204666
0.000184067
0.000184789
0.000203866
0.000203838
0.00020468
0.000204653
0.000203858
0.000204698
0.000204672
0.000184054
0.000184775
0.000203873
0.000204688
0.000204688
0.000184786
0.000184778
0.000185415
0.000204938
0.000204939
0.000205691
0.000205692
0.00018476
0.000185466
0.000204954
0.000204926
0.000205707
0.000205679
0.000204946
0.000205724
0.000205699
0.000184747
0.000185453
0.000204962
0.000205715
0.000205714
0.00018546
0.000185433
0.000186029
0.00020595
0.000205951
0.000206641
0.000206641
0.000185402
0.000186078
0.000205967
0.000205938
0.000206656
0.000206628
0.000205959
0.000206674
0.000206648
0.000185389
0.000186064
0.000205975
0.000206664
0.000206664
0.000186073
0.00018603
0.000186587
0.000206889
0.00020689
0.00020752
0.000207521
0.000186001
0.000186636
0.000206906
0.000206877
0.000207536
0.000207507
0.000206897
0.000207554
0.000207527
0.000185988
0.000186622
0.000206914
0.000207544
0.000207544
0.00018663
0.000186572
0.00018709
0.000207748
0.000207747
0.000208327
0.000208327
0.000186544
0.000187138
0.000207765
0.000207735
0.000208343
0.000208314
0.000207756
0.000208361
0.000208334
0.000186531
0.000187125
0.000207773
0.000208351
0.00020835
0.000187133
0.000187061
0.00018754
0.000208534
0.000208533
0.000209061
0.000209062
0.000187033
0.000187588
0.000208551
0.000208521
0.000209078
0.000209048
0.000208542
0.000209095
0.000209069
0.00018702
0.000187575
0.000208558
0.000209086
0.000209086
0.000187583
0.000187497
0.000187938
0.000209248
0.000209247
0.000209727
0.000209727
0.000187469
0.000187985
0.000209265
0.000209235
0.000209744
0.000209714
0.000209256
0.000209761
0.000209734
0.000187456
0.000187972
0.000209272
0.000209751
0.000209751
0.00018798
0.000187881
0.000188284
0.000209891
0.00020989
0.000210327
0.000210327
0.000187853
0.000188334
0.000209909
0.000209878
0.000210344
0.000210314
0.000209899
0.000210361
0.000210334
0.00018784
0.000188321
0.000209916
0.000210351
0.000210351
0.000188326
0.000188218
0.000188583
0.000210465
0.000210463
0.000210863
0.000210864
0.000188187
0.00018865
0.000210482
0.000210451
0.000210881
0.00021085
0.000210473
0.000210898
0.00021087
0.000188174
0.000188636
0.000210489
0.000210888
0.000210887
0.000188581
0.000188537
0.000188843
0.000210973
0.000210969
0.000211336
0.000211336
0.000188484
0.000188905
0.00021099
0.000210958
0.000211354
0.000211322
0.00021098
0.000211371
0.000211343
0.000188471
0.000188891
0.000210997
0.00021136
0.000211361
0.000188811
0.000188771
0.000189033
0.000211414
0.000211411
0.000211737
0.000211734
0.000188734
0.000189083
0.000211432
0.000211399
0.000211755
0.000211722
0.000211421
0.000211773
0.000211744
0.000188721
0.000189066
0.000211438
0.00021176
0.000211761
0.000189009
0.000188951
0.000189183
0.000211802
0.0002118
0.000212076
0.000212073
0.000188933
0.000189224
0.00021182
0.000211787
0.000212094
0.000212061
0.000211809
0.000212115
0.000212083
0.000188922
0.000189175
0.000211826
0.0002121
0.0002121
0.000189174
0.000189093
0.000189305
0.000212134
0.000212132
0.000212357
0.000212354
0.000189077
0.000189309
0.000212152
0.000212119
0.000212375
0.000212342
0.00021214
0.000212399
0.000212363
0.000189087
0.0001893
0.000212158
0.000212381
0.000212381
0.0001893
0.000189187
0.000189388
0.000212409
0.000212406
0.000212582
0.000212578
0.000189199
0.000189395
0.000212427
0.000212393
0.0002126
0.000212566
0.000212415
0.000212628
0.000212588
0.000189182
0.000189381
0.000212433
0.000212606
0.000212605
0.000189382
0.000189256
0.000189425
0.00021263
0.000212627
0.000212754
0.00021275
0.000189265
0.000189432
0.000212648
0.000212614
0.000212772
0.000212737
0.000212636
0.000212806
0.000212759
0.000189252
0.000189418
0.000212653
0.000212778
0.000212776
0.000189421
0.000189289
0.000189424
0.000212799
0.000212796
0.000212879
0.000212875
0.000189297
0.000189432
0.000212817
0.000212783
0.000212897
0.000212862
0.000212805
0.000212932
0.000212884
0.000189284
0.000189417
0.000212822
0.000212904
0.000212902
0.000189422
0.000189287
0.000189418
0.000212918
0.000212915
0.000213087
0.000213084
0.000189295
0.000189426
0.000212937
0.000212902
0.000213105
0.000213072
0.000212925
0.000213133
0.000213093
0.000189281
0.000189411
0.000212942
0.000213113
0.00021311
0.000189416
0.000189245
0.000190884
0.000212882
0.000212879
0.000215493
0.000215497
0.000189252
0.000190897
0.000212901
0.000212866
0.000215512
0.000215485
0.000212888
0.00021555
0.000215501
0.000189242
0.000190805
0.000212907
0.000215527
0.000215518
0.000190821
0.000192577
0.000214179
0.00021418
0.000192589
0.000214196
0.000214215
0.00023632
0.000236314
0.000236329
0.000214233
0.000192644
0.000214248
9.98329e-05
5.07422e-05
2.38927e-05
9.98396e-05
5.0739e-05
0.000207746
0.000207754
0.000207752
0.000207761
0.000144112
0.000200489
0.000103591
0.000210017
2.38906e-05
0.00014411
0.00020048
0.000210014
0.00010359
0.000181995
7.78993e-05
7.78987e-05
9.99355e-05
5.07556e-05
9.98794e-05
5.07614e-05
2.38974e-05
2.39016e-05
9.9941e-05
5.07525e-05
9.98921e-05
5.07582e-05
0.000208348
0.000208345
0.000208354
0.000210069
0.000210078
0.000210075
0.000210084
0.000144485
0.000103656
0.00021132
0.00020179
0.000144324
0.000103727
0.000211739
2.38952e-05
2.38994e-05
0.000144478
0.000211317
0.000103658
0.00020178
0.000144316
0.000211736
0.000103727
7.793e-05
7.79288e-05
0.000182865
7.79529e-05
7.79519e-05
0.000100025
5.07743e-05
9.99746e-05
5.07797e-05
2.39061e-05
2.39101e-05
0.00010003
5.07713e-05
9.99874e-05
5.07765e-05
0.000210645
0.000210642
0.000210651
0.000212283
0.000212292
0.000212289
0.000212298
0.000144817
0.000103784
0.000212973
0.000203012
0.000144677
0.000103848
0.000213366
2.39039e-05
2.3908e-05
0.000144809
0.00021297
0.000103786
0.000203003
0.000144669
0.000213363
0.000103849
7.79789e-05
7.79778e-05
0.000183664
7.79996e-05
7.79983e-05
0.0001001
5.07921e-05
0.000100057
5.07971e-05
2.39144e-05
2.39184e-05
0.000100106
5.0789e-05
0.000100069
5.07939e-05
0.000212833
0.00021283
0.000212839
0.000214388
0.000214397
0.000214393
0.000214402
0.000145121
0.000103896
0.000214533
0.000204156
0.000144996
0.000103954
0.000214901
2.39122e-05
2.39162e-05
0.000145116
0.000214529
0.000103898
0.000204146
0.000144985
0.000214897
0.000103955
7.80208e-05
7.80196e-05
0.000184422
7.80394e-05
7.8038e-05
0.000100164
5.08089e-05
0.000100126
5.08135e-05
2.39225e-05
2.39262e-05
0.00010017
5.08058e-05
0.000100138
5.08103e-05
0.000214913
0.000214909
0.000214918
0.000216384
0.000216392
0.000216388
0.000216397
0.000145394
0.000103993
0.000216001
0.000205221
0.000145282
0.000104044
0.000216343
2.39202e-05
2.39241e-05
0.000145398
0.000215997
0.000103995
0.000205211
0.000145254
0.000216339
0.000104046
7.8056e-05
7.80547e-05
0.000185141
7.80713e-05
7.80712e-05
0.000100216
5.08247e-05
0.000100183
5.08289e-05
2.39301e-05
2.39338e-05
0.000100221
5.08216e-05
0.000100194
5.08257e-05
0.000216882
0.000216878
0.000216888
0.00021827
0.000218278
0.000218274
0.000218283
0.000145634
0.000104075
0.000217379
0.000206209
0.000145534
0.000104121
0.000217695
2.39279e-05
2.39316e-05
0.000145635
0.000217375
0.000104078
0.000206199
0.000145508
0.00021769
0.000104123
7.8086e-05
7.80835e-05
0.000185783
7.80976e-05
7.8098e-05
0.000100254
5.08395e-05
0.000100227
5.08433e-05
2.39375e-05
2.3941e-05
0.000100259
5.08364e-05
0.000100236
5.08401e-05
0.000218742
0.000218738
0.000218747
0.000220048
0.000220056
0.000220051
0.000220061
0.000145841
0.000104144
0.000218669
0.000207123
0.000145751
0.000104184
0.000218956
2.39353e-05
2.39388e-05
0.000145839
0.000218664
0.000104147
0.000207113
0.00014573
0.00021895
0.000104187
7.81087e-05
7.8106e-05
0.000186367
7.81182e-05
7.81186e-05
0.00010028
5.08533e-05
0.000100259
5.08567e-05
2.39445e-05
2.39479e-05
0.000100287
5.08502e-05
0.000100267
5.08535e-05
0.000220493
0.000220488
0.000220498
0.000221717
0.000221725
0.00022172
0.000221729
0.000146021
0.0001042
0.000219871
0.000207967
0.000145937
0.000104234
0.000220126
2.39423e-05
2.39457e-05
0.000146013
0.000219866
0.000104202
0.000207957
0.000145923
0.000220121
0.000104237
7.81254e-05
7.81227e-05
0.000186897
7.81328e-05
7.81333e-05
0.000100296
5.08662e-05
0.00010028
5.08691e-05
2.39512e-05
2.39544e-05
0.000100303
5.0863e-05
0.000100287
5.08659e-05
0.000222137
0.000222132
0.000222142
0.000223278
0.000223286
0.000223281
0.000223291
0.000146171
0.000104243
0.000220983
0.000208737
0.000146091
0.00010427
0.000221217
2.39489e-05
2.39521e-05
0.000146164
0.000220979
0.000104244
0.000208727
0.000146079
0.000221211
0.000104273
7.81351e-05
7.81337e-05
0.000187373
7.81419e-05
7.81414e-05
0.000100302
5.08781e-05
0.000100289
5.08806e-05
2.39574e-05
2.39605e-05
0.000100309
5.08749e-05
0.000100297
5.08772e-05
0.000223675
0.00022367
0.00022368
0.000224733
0.00022474
0.000224735
0.000224745
0.000146292
0.000104272
0.000222006
0.000209437
0.000146221
0.000104295
0.000222223
2.39552e-05
2.39583e-05
0.000146284
0.000222001
0.000104274
0.000209427
0.000146208
0.000222216
0.000104297
7.81394e-05
7.81382e-05
0.000187796
7.81451e-05
7.81441e-05
0.000100298
5.0889e-05
0.000100289
5.0891e-05
2.39633e-05
2.39663e-05
0.000100305
5.08856e-05
0.000100297
5.08876e-05
0.000225111
0.000225106
0.000225114
0.000226081
0.000226088
0.000226082
0.000226094
0.000146385
0.000104288
0.000222944
0.000210069
0.000146324
0.000104307
0.000223146
2.39611e-05
2.3964e-05
0.000146378
0.000222939
0.00010429
0.000210059
0.000146311
0.000223139
0.000104308
7.81383e-05
7.81373e-05
0.000188167
7.81423e-05
7.81412e-05
0.000100286
5.0899e-05
0.00010028
5.09005e-05
2.39688e-05
2.39717e-05
0.000100293
5.08956e-05
0.000100287
5.08972e-05
0.000226447
0.000226441
0.00022645
0.000227324
0.000227331
0.000227325
0.000227337
0.000146453
0.000104293
0.000223799
0.000210638
0.000146401
0.000104306
0.00022399
2.39666e-05
2.39695e-05
0.000146446
0.000223793
0.000104295
0.000210628
0.000146387
0.000223982
0.000104308
7.81323e-05
7.81313e-05
0.000188477
7.81344e-05
7.81333e-05
0.000100265
5.09077e-05
0.000100262
5.09094e-05
2.3974e-05
2.39768e-05
0.000100272
5.09044e-05
0.00010027
5.09062e-05
0.000227684
0.000227678
0.000227687
0.000228477
0.000228483
0.000228477
0.000228488
0.000146495
0.000104287
0.000224571
0.000211143
0.000146455
0.000104295
0.000224757
2.39717e-05
2.39746e-05
0.000146488
0.000224564
0.000104289
0.000211132
0.000146442
0.000224751
0.000104297
7.81218e-05
7.81208e-05
0.000188705
7.81217e-05
7.81206e-05
0.000100237
5.09149e-05
0.000100235
5.09177e-05
2.39787e-05
2.39815e-05
0.000100243
5.09117e-05
0.000100244
5.09145e-05
0.000228819
0.000228813
0.000228822
0.000229536
0.000229542
0.000229536
0.000229546
0.000146513
0.00010427
0.000225265
0.000211579
0.000146483
0.000104274
0.000225448
2.39765e-05
2.39793e-05
0.000146507
0.000225258
0.000104272
0.000211568
0.000146468
0.000225443
0.000104275
7.8107e-05
7.81061e-05
0.000188916
7.81045e-05
7.81034e-05
0.000100198
5.09217e-05
0.000100199
5.09248e-05
2.39831e-05
2.3986e-05
0.000100204
5.09184e-05
0.000100209
5.09216e-05
0.00022985
0.000229844
0.000229854
0.000230508
0.000230513
0.000230508
0.000230516
0.000146506
0.000104242
0.00022588
0.000211951
0.000146485
0.000104242
0.000226062
2.39808e-05
2.39838e-05
0.000146503
0.000225875
0.000104244
0.000211938
0.000146469
0.000226053
0.000104243
7.80883e-05
7.80873e-05
0.000189096
7.80827e-05
7.80817e-05
0.000100151
5.09277e-05
0.000100155
5.09308e-05
2.3987e-05
2.39902e-05
0.000100158
5.09245e-05
0.000100166
5.09276e-05
0.000230783
0.000230776
0.000230787
0.000231394
0.000231396
0.000231394
0.000231399
0.000146475
0.000104206
0.000226422
0.000212264
0.000146464
0.000104201
0.000226592
2.39847e-05
2.3988e-05
0.000146475
0.00022642
0.000104208
0.000212248
0.000146444
0.000226581
0.000104202
7.80661e-05
7.80651e-05
0.000189239
7.80569e-05
7.80558e-05
0.000100096
5.09328e-05
0.000100103
5.09362e-05
2.39904e-05
2.39943e-05
0.000100102
5.09296e-05
0.000100113
5.0933e-05
0.000231627
0.000231617
0.000231631
0.000232191
0.00023219
0.000232191
0.000232193
0.000146422
0.000104164
0.000226905
0.00021252
0.00014642
0.000104151
0.000227055
2.39882e-05
2.39921e-05
0.000146422
0.000226906
0.000104166
0.000212501
0.000146399
0.00022704
0.000104152
7.80415e-05
7.80405e-05
0.000189347
7.80273e-05
7.80262e-05
0.000100032
5.0937e-05
0.00010004
5.09412e-05
2.39934e-05
2.39982e-05
0.000100037
5.09337e-05
0.000100051
5.09379e-05
0.000232386
0.000232372
0.000232389
0.000232901
0.000232903
0.000232899
0.000232906
0.000146353
0.000104118
0.00022732
0.000212722
0.000146355
0.000104093
0.000227451
2.39911e-05
2.3996e-05
0.000146346
0.000227325
0.00010412
0.000212699
0.000146337
0.000227433
0.000104094
7.8016e-05
7.80149e-05
0.000189407
7.79949e-05
7.79937e-05
9.99548e-05
5.09402e-05
9.99643e-05
5.09464e-05
2.39958e-05
2.40021e-05
9.996e-05
5.09372e-05
9.99762e-05
5.09434e-05
0.00023306
0.000233049
0.000233063
0.000233519
0.000233526
0.000233517
0.000233527
0.000146254
0.000104078
0.00022767
0.000212874
0.000146279
0.000104032
0.000227785
2.39935e-05
2.39999e-05
0.000146246
0.000227681
0.00010408
0.000212846
0.000146268
0.00022776
0.000104033
7.79927e-05
7.79916e-05
0.000189426
7.79629e-05
7.79617e-05
9.98483e-05
5.09424e-05
9.98672e-05
5.09529e-05
2.39978e-05
2.4006e-05
9.98556e-05
5.09397e-05
9.98763e-05
5.09501e-05
0.000233641
0.000233635
0.000233644
0.000234079
0.000234085
0.000234076
0.000234086
0.00014613
0.000104052
0.000227959
0.000212983
0.000146175
0.000103934
0.000228065
2.39956e-05
2.40038e-05
0.000146122
0.000227977
0.00010405
0.000212958
0.000146165
0.000228034
0.000103931
7.79797e-05
7.79788e-05
0.000189411
7.79262e-05
7.79253e-05
9.97601e-05
5.09464e-05
9.97251e-05
5.09869e-05
2.40015e-05
2.40209e-05
9.97683e-05
5.09432e-05
9.9732e-05
5.09844e-05
0.000234152
0.000234146
0.000234156
0.000233725
0.000233728
0.000233723
0.00023373
0.000146058
0.000103991
0.000228261
0.000213609
0.000146082
0.00010376
0.000228048
2.39992e-05
2.40188e-05
0.00014605
0.000228251
0.000103987
0.000213588
0.000146073
0.000228039
0.000103756
7.7923e-05
7.79222e-05
0.000189658
7.7711e-05
7.77114e-05
0.000109034
5.50878e-05
0.000100421
8.53775e-05
2.70318e-05
4.58789e-05
0.000109036
5.50844e-05
0.000100426
8.55244e-05
0.000251064
0.000243691
0.000243696
0.000235623
0.00025096
0.00024452
0.000244524
0.000150877
0.000105989
0.000232592
0.000214619
0.00014682
0.000108423
0.00023108
2.70301e-05
4.59005e-05
0.000150854
0.000232587
0.000106009
0.00021432
0.000146864
0.000231152
0.000108443
7.75766e-05
7.75768e-05
0.000197012
8.57814e-05
8.58065e-05
2.38933e-05
2.38921e-05
0.000181932
7.79003e-05
7.78977e-05
2.38978e-05
2.38937e-05
2.38965e-05
2.38923e-05
0.000182066
7.79279e-05
7.79253e-05
7.7907e-05
7.7901e-05
9.98367e-05
5.07447e-05
0.000144115
0.000200456
0.000103591
0.000210002
0.000144118
0.000200457
0.000103588
0.000210005
9.98261e-05
5.07519e-05
5.07458e-05
9.98867e-05
9.98294e-05
5.07544e-05
5.07438e-05
9.98898e-05
0.000144115
0.000200791
0.000103661
0.000210874
0.000103587
0.000210443
0.000144305
0.000144119
0.000200792
0.000103659
0.000210877
0.000103585
0.000210447
0.000144308
0.000182012
7.78971e-05
7.78961e-05
2.38933e-05
2.38972e-05
2.3893e-05
0.000181991
7.79246e-05
7.79233e-05
7.79027e-05
7.78972e-05
2.38978e-05
2.38935e-05
0.000144119
0.00020047
0.000103582
0.000210001
9.98357e-05
5.07371e-05
0.000144115
0.000200445
0.00021
0.00010357
9.98387e-05
5.07488e-05
5.07428e-05
9.98919e-05
0.00014412
0.000200806
0.000103653
0.000210874
0.000103578
0.000210447
0.000144309
9.9835e-05
5.07468e-05
5.07362e-05
9.98877e-05
0.000144115
0.000200779
0.000210872
0.00010364
0.000210442
0.000103566
0.000144306
9.98341e-05
5.07439e-05
0.000144117
0.000200464
0.000210014
0.000103589
9.98338e-05
5.07404e-05
0.000144136
0.000200824
0.000103661
0.00021089
0.000103586
0.000210459
0.000144303
9.9834e-05
5.07537e-05
5.07431e-05
9.98873e-05
0.00014412
0.000200799
0.000210886
0.000103659
0.000210455
0.000103584
0.000144308
9.98271e-05
5.07501e-05
5.07394e-05
9.9887e-05
0.000181996
7.78842e-05
7.79011e-05
2.38925e-05
2.38951e-05
2.38907e-05
0.000181976
7.79114e-05
7.79284e-05
7.78854e-05
7.7904e-05
2.3897e-05
2.38927e-05
0.000144118
0.000200479
0.000210014
0.000103588
9.98317e-05
5.07404e-05
9.98379e-05
5.07386e-05
0.000144124
0.000200814
0.000210886
0.000103661
0.000210455
0.000103588
0.000144295
0.000144122
0.000200813
0.000210886
0.000103658
0.000210456
0.000103583
0.000144308
9.98241e-05
5.075e-05
5.07395e-05
9.98827e-05
9.98311e-05
5.07483e-05
5.07422e-05
9.98893e-05
2.38922e-05
2.38918e-05
0.000181979
7.79268e-05
7.79262e-05
7.79031e-05
7.79018e-05
2.38967e-05
2.38924e-05
2.38962e-05
2.3892e-05
2.38981e-05
2.39022e-05
2.38968e-05
2.39009e-05
7.79339e-05
7.79282e-05
0.000182829
7.79538e-05
7.79511e-05
2.39065e-05
2.39025e-05
2.39052e-05
2.39011e-05
0.000182895
7.79781e-05
7.7975e-05
7.79592e-05
7.79535e-05
9.9939e-05
5.07537e-05
9.98825e-05
5.0764e-05
0.000144488
0.000103657
0.000211305
0.000201757
0.000144306
0.000103728
0.000211723
0.000144489
0.000103655
0.000211308
0.000201758
0.000144309
0.000103725
0.000211726
9.99283e-05
5.07708e-05
5.0765e-05
9.99825e-05
9.99315e-05
5.07732e-05
5.07631e-05
9.9985e-05
0.000144488
0.000202073
0.00010379
0.000212549
0.000103723
0.000212144
0.00014466
0.000144489
0.000202074
0.000103788
0.000212552
0.000103721
0.000212146
0.000144662
7.79297e-05
7.79244e-05
0.000182855
7.79504e-05
7.79491e-05
2.38979e-05
2.39022e-05
2.39059e-05
2.39018e-05
0.00018288
7.79755e-05
7.79731e-05
7.7955e-05
7.79496e-05
2.39065e-05
2.39023e-05
0.000144492
0.000103648
0.000211309
0.000201772
0.00014431
0.000103719
0.000211723
9.99374e-05
5.07461e-05
9.98879e-05
5.07564e-05
0.000144488
0.000211304
0.000103636
0.000201745
0.000144306
0.000211722
0.000103706
9.9941e-05
5.07676e-05
5.07619e-05
9.99879e-05
0.000144492
0.000202089
0.000103782
0.000212549
0.000103714
0.000212147
0.000144664
9.99371e-05
5.07656e-05
5.07556e-05
9.99836e-05
0.000144488
0.000202062
0.000212548
0.000103769
0.000212142
0.000103702
0.00014466
9.99368e-05
5.07529e-05
9.98863e-05
5.07633e-05
0.000144491
0.000211317
0.000103654
0.000201765
0.000144311
0.000211735
0.000103726
9.99366e-05
5.07494e-05
9.98802e-05
5.07596e-05
0.000144505
0.000202106
0.000103789
0.000212564
0.000103722
0.000212158
0.000144658
9.99352e-05
5.07725e-05
5.07623e-05
9.99829e-05
0.000144493
0.000202081
0.000212561
0.000103789
0.000212155
0.000103721
0.000144664
9.99296e-05
5.07689e-05
5.07588e-05
9.99829e-05
7.79127e-05
7.79313e-05
0.00018284
7.79373e-05
7.79541e-05
2.38972e-05
2.39014e-05
2.39037e-05
2.38995e-05
0.000182866
7.79613e-05
7.79782e-05
7.79379e-05
7.79567e-05
2.39057e-05
2.39015e-05
0.000144491
0.000211318
0.000103654
0.00020178
0.000144311
0.000211736
0.000103725
9.99309e-05
5.07493e-05
9.98751e-05
5.07596e-05
9.99374e-05
5.07518e-05
9.98826e-05
5.07578e-05
0.000144498
0.000202096
0.000212562
0.00010379
0.000212156
0.000103724
0.00014465
0.000144491
0.000202096
0.000212561
0.000103788
0.000212156
0.00010372
0.000144662
9.99233e-05
5.07688e-05
5.07588e-05
9.99761e-05
9.99308e-05
5.07671e-05
5.07614e-05
9.99824e-05
2.38968e-05
2.39011e-05
2.38965e-05
2.39006e-05
0.000182852
7.7977e-05
7.79758e-05
7.79554e-05
7.79544e-05
2.39054e-05
2.39012e-05
2.39049e-05
2.39008e-05
2.39068e-05
2.39107e-05
2.39054e-05
2.39094e-05
7.79826e-05
7.79771e-05
0.00018365
7.80005e-05
7.79974e-05
2.39149e-05
2.3911e-05
2.39136e-05
2.39096e-05
0.000183686
7.80212e-05
7.80181e-05
7.80044e-05
7.79988e-05
0.000100028
5.07724e-05
9.99772e-05
5.07823e-05
0.000144824
0.000103785
0.000212958
0.000202978
0.000144658
0.000103849
0.000213352
0.000144826
0.000103783
0.000212961
0.00020298
0.00014466
0.000103846
0.000213355
0.000100017
5.07886e-05
5.07832e-05
0.000100065
0.00010002
5.07911e-05
5.07814e-05
0.000100068
0.000144815
0.000203277
0.000103904
0.000214131
0.000103843
0.00021375
0.000144982
0.000144817
0.000203278
0.000103901
0.000214135
0.000103841
0.000213754
0.000144985
7.79775e-05
7.79731e-05
0.000183667
7.7998e-05
7.79954e-05
2.39066e-05
2.39107e-05
2.39143e-05
2.39103e-05
0.000183688
7.80186e-05
7.8016e-05
7.79993e-05
7.79948e-05
2.39149e-05
2.39108e-05
0.000144828
0.000103776
0.000212962
0.000202994
0.000144662
0.00010384
0.000213351
0.000100027
5.07648e-05
9.99832e-05
5.07747e-05
0.000144824
0.000212957
0.000103764
0.000202967
0.000144659
0.00021335
0.000103827
0.000100029
5.07854e-05
5.07802e-05
0.000100071
0.000144819
0.000203293
0.000103895
0.00021413
0.000103834
0.000213754
0.000144985
0.000100026
5.07835e-05
5.07738e-05
0.000100066
0.000144815
0.000203265
0.000214129
0.000103882
0.000213749
0.000103821
0.000144981
0.000100026
5.07716e-05
9.99814e-05
5.07816e-05
0.000144829
0.00021297
0.000103783
0.000202987
0.000144663
0.000213364
0.000103847
0.000100026
5.07681e-05
9.99756e-05
5.0778e-05
0.000144838
0.00020331
0.000103903
0.000214145
0.000103842
0.000213764
0.000144975
0.000100024
5.07903e-05
5.07805e-05
0.000100065
0.000144822
0.000203285
0.000214143
0.000103902
0.000213762
0.000103841
0.000144986
0.000100018
5.07867e-05
5.0777e-05
0.000100066
7.79614e-05
7.79803e-05
0.000183653
7.79835e-05
7.80007e-05
2.39058e-05
2.39099e-05
2.39121e-05
2.39081e-05
0.000183675
7.80042e-05
7.80214e-05
7.79831e-05
7.80021e-05
2.3914e-05
2.391e-05
0.000144826
0.000212971
0.000103781
0.000203002
0.000144662
0.000213364
0.000103846
0.000100018
5.0768e-05
9.99683e-05
5.07779e-05
0.000100024
5.07706e-05
9.99757e-05
5.07761e-05
0.000144829
0.0002033
0.000214142
0.000103904
0.000213761
0.000103844
0.000144966
0.000144818
0.0002033
0.000214142
0.000103901
0.000213762
0.000103839
0.000144982
0.00010001
5.07867e-05
5.0777e-05
0.000100057
0.000100018
5.07849e-05
5.07796e-05
0.000100063
2.39055e-05
2.39096e-05
2.39051e-05
2.39092e-05
0.000183671
7.80202e-05
7.80189e-05
7.80008e-05
7.79997e-05
2.39138e-05
2.39097e-05
2.39133e-05
2.39094e-05
2.39151e-05
2.3919e-05
2.39138e-05
2.39177e-05
7.80244e-05
7.80189e-05
0.000184402
7.80402e-05
7.80372e-05
2.3923e-05
2.39192e-05
2.39217e-05
2.39178e-05
0.000184428
7.80576e-05
7.80546e-05
7.80429e-05
7.80373e-05
0.000100104
5.07902e-05
0.000100059
5.07997e-05
0.000145128
0.000103897
0.000214519
0.000204122
0.000144971
0.000103955
0.000214887
0.000145132
0.000103895
0.000214523
0.000204123
0.000144974
0.000103953
0.000214891
0.000100092
5.08055e-05
5.08005e-05
0.000100135
0.000100095
5.08079e-05
5.07986e-05
0.000100137
0.000145117
0.000204403
0.000104003
0.00021562
0.000103947
0.000215265
0.00014527
0.00014512
0.000204405
0.000104001
0.000215624
0.000103945
0.000215268
0.000145274
7.80195e-05
7.80149e-05
0.000184424
7.80377e-05
7.80348e-05
2.39149e-05
2.39189e-05
2.39223e-05
2.39185e-05
0.000184426
7.80551e-05
7.80521e-05
7.80379e-05
7.80332e-05
2.39229e-05
2.3919e-05
0.000145132
0.000103889
0.000214522
0.000204137
0.000144975
0.000103946
0.000214886
0.000100103
5.07826e-05
0.000100065
5.07921e-05
0.000145128
0.000214517
0.000103876
0.00020411
0.000144971
0.000214885
0.000103933
0.000100105
5.08023e-05
5.07975e-05
0.00010014
0.000145121
0.000204419
0.000103994
0.000215619
0.000103939
0.000215267
0.000145273
0.000100101
5.08004e-05
5.07911e-05
0.000100136
0.000145117
0.000204392
0.000215618
0.000103981
0.000215262
0.000103926
0.000145269
0.000100102
5.07893e-05
0.000100063
5.07989e-05
0.000145133
0.00021453
0.000103895
0.00020413
0.000144976
0.000214898
0.000103953
0.000100102
5.07858e-05
0.000100058
5.07953e-05
0.000145142
0.000204437
0.000104001
0.000215634
0.000103946
0.000215278
0.000145265
0.000100099
5.08071e-05
5.07978e-05
0.000100136
0.000145122
0.000204411
0.000215631
0.000104001
0.000215276
0.000103945
0.000145275
0.000100094
5.08036e-05
5.07943e-05
0.000100136
7.80033e-05
7.80222e-05
0.00018441
7.8023e-05
7.80405e-05
2.39142e-05
2.39181e-05
2.39202e-05
2.39163e-05
0.000184413
7.80404e-05
7.80579e-05
7.80216e-05
7.80406e-05
2.39221e-05
2.39182e-05
0.000145128
0.00021453
0.000103894
0.000204145
0.000144972
0.000214898
0.000103952
0.000100092
5.07858e-05
0.000100049
5.07953e-05
0.000100097
5.07883e-05
0.000100054
5.07934e-05
0.000145123
0.000204427
0.00021563
0.000104003
0.000215274
0.000103948
0.000145268
0.000145117
0.000204427
0.000215631
0.000103999
0.000215276
0.000103944
0.00014527
0.000100084
5.08035e-05
5.07942e-05
0.000100125
0.000100088
5.08018e-05
5.07969e-05
0.000100128
2.39139e-05
2.39178e-05
2.39135e-05
2.39174e-05
0.000184415
7.80567e-05
7.80553e-05
7.80393e-05
7.80381e-05
2.39218e-05
2.39179e-05
2.39214e-05
2.39175e-05
2.39232e-05
2.39269e-05
2.39218e-05
2.39256e-05
7.80596e-05
7.80542e-05
0.000185086
7.80733e-05
7.80704e-05
2.39307e-05
2.39271e-05
2.39294e-05
2.39257e-05
0.000185115
7.80875e-05
7.80846e-05
7.80749e-05
7.80693e-05
0.000100168
5.0807e-05
0.000100129
5.08161e-05
0.0001454
0.000103995
0.000215988
0.000205187
0.000145256
0.000104046
0.00021633
0.000145404
0.000103992
0.000215991
0.000205189
0.000145259
0.000104044
0.000216333
0.000100155
5.08214e-05
5.08168e-05
0.000100192
0.000100158
5.08238e-05
5.08149e-05
0.000100195
0.000145385
0.000205454
0.000104087
0.000217017
0.000104038
0.000216688
0.000145525
0.000145388
0.000205455
0.000104085
0.000217021
0.000104036
0.000216691
0.000145528
7.80547e-05
7.80501e-05
0.000185143
7.8071e-05
7.80676e-05
2.3923e-05
2.39268e-05
2.39301e-05
2.39263e-05
0.000185079
7.80852e-05
7.80819e-05
7.80698e-05
7.80652e-05
2.39306e-05
2.39268e-05
0.000145402
0.000103986
0.00021599
0.000205203
0.000145259
0.000104038
0.000216329
0.000100166
5.07994e-05
0.000100134
5.08085e-05
0.000145399
0.000215985
0.000103973
0.000205175
0.000145255
0.000216327
0.000104025
0.000100167
5.08182e-05
5.08137e-05
0.000100198
0.000145389
0.00020547
0.000104078
0.000217016
0.000104029
0.00021669
0.000145526
0.000100163
5.08162e-05
5.08073e-05
0.000100193
0.000145385
0.000205442
0.000217014
0.000104065
0.000216685
0.000104017
0.000145522
0.000100166
5.08061e-05
0.000100132
5.08152e-05
0.000145404
0.000215999
0.000103992
0.000205195
0.000145261
0.000216341
0.000104044
0.000100166
5.08026e-05
0.000100127
5.08117e-05
0.000145412
0.000205487
0.000104085
0.000217031
0.000104036
0.000216701
0.000145521
0.000100162
5.0823e-05
5.08141e-05
0.000100193
0.000145391
0.000205462
0.000217028
0.000104085
0.000216699
0.000104035
0.000145529
0.000100157
5.08195e-05
5.08106e-05
0.000100193
7.80386e-05
7.80574e-05
0.000185129
7.80561e-05
7.80737e-05
2.39222e-05
2.3926e-05
2.39279e-05
2.39241e-05
0.000185066
7.80704e-05
7.80878e-05
7.80537e-05
7.80724e-05
2.39298e-05
2.39261e-05
0.000145399
0.000215998
0.000103991
0.000205211
0.000145255
0.00021634
0.000104043
0.000100155
5.08025e-05
0.000100116
5.08116e-05
0.000100157
5.08051e-05
0.00010012
5.08098e-05
0.000145384
0.000205477
0.000217026
0.000104087
0.000216697
0.000104038
0.000145526
0.000145384
0.000205477
0.000217027
0.000104084
0.000216698
0.000104034
0.000145524
0.000100146
5.08194e-05
5.08105e-05
0.000100182
0.000100148
5.08176e-05
5.08132e-05
0.000100184
2.39219e-05
2.39257e-05
2.39215e-05
2.39253e-05
0.000185068
7.80849e-05
7.80853e-05
7.80719e-05
7.807e-05
2.39295e-05
2.39258e-05
2.39291e-05
2.39254e-05
2.39309e-05
2.39344e-05
2.39295e-05
2.39331e-05
7.80885e-05
7.80829e-05
0.00018573
7.81001e-05
7.80972e-05
2.39381e-05
2.39346e-05
2.39368e-05
2.39332e-05
0.000185739
7.81112e-05
7.81083e-05
7.81006e-05
7.80949e-05
0.000100219
5.08228e-05
0.000100185
5.08315e-05
0.000145635
0.000104078
0.000217366
0.000206175
0.000145509
0.000104124
0.000217681
0.000145639
0.000104076
0.000217369
0.000206176
0.000145512
0.000104122
0.000217685
0.000100206
5.08363e-05
5.08321e-05
0.000100237
0.000100209
5.08387e-05
5.08302e-05
0.00010024
0.000145623
0.000206429
0.000104157
0.000218323
0.000104114
0.000218022
0.000145743
0.000145626
0.000206429
0.000104155
0.000218326
0.000104112
0.000218025
0.000145746