/*--------------------------------*- C++ -*----------------------------------*\
| =========                 |                                                 |
| \\      /  F ield         | OpenFOAM: The Open Source CFD Toolbox           |
|  \\    /   O peration     | Version:  v1906                                 |
|   \\  /    A nd           | Web:      www.OpenFOAM.com                      |
|    \\/     M anipulation  |                                                 |
\*---------------------------------------------------------------------------*/
FoamFile
{
    version     2.0;
    format      ascii;
    class       volVectorField;
    location    "300";
    object      U;
}
// * * * * * * * * * * * * * * * * * * * * * * * * * * * * * * * * * * * * * //

dimensions      [0 1 -1 0 0 0 0];


internalField   nonuniform List<vector> 
42840
(
(-3.91026e-06 -3.89981e-06 0.112762)
(4.7711e-06 -1.89599e-06 0.107583)
(-1.89308e-06 4.71334e-06 0.107584)
(-2.89904e-05 -2.9116e-05 0.104198)
(-2.94939e-05 -2.95589e-05 0.104197)
(2.91617e-05 2.92846e-05 0.1042)
(-3.78407e-05 -3.76758e-05 0.10432)
(-2.03583e-06 -4.4427e-06 0.107586)
(2.50597e-06 -4.24447e-06 0.107582)
(-1.75937e-06 -3.87308e-06 0.10758)
(2.23944e-06 -3.76443e-06 0.107577)
(-2.88403e-05 2.94017e-05 0.104198)
(3.81204e-05 -3.76317e-05 0.104319)
(-4.54673e-06 -1.99057e-06 0.107587)
(-4.37364e-06 2.28714e-06 0.107581)
(-4.04341e-06 -1.68661e-06 0.107581)
(-3.87117e-06 2.04006e-06 0.107576)
(4.67635e-06 2.25089e-06 0.107581)
(4.25848e-06 -1.66396e-06 0.107579)
(4.17605e-06 2.03072e-06 0.107577)
(2.93282e-05 -2.90295e-05 0.104198)
(-3.76872e-05 3.80191e-05 0.104318)
(2.39605e-06 4.59072e-06 0.107583)
(-1.68074e-06 4.2361e-06 0.107578)
(2.11325e-06 4.1284e-06 0.107578)
(3.80473e-05 3.79549e-05 0.104319)
(4.02151e-06 1.96735e-06 0.107575)
(2.04146e-06 4.00084e-06 0.107577)
(-3.2075e-09 -1.39213e-05 0.0911733)
(1.01856e-06 8.62746e-06 0.0819526)
(-1.03111e-06 -1.10604e-05 0.0820082)
(9.43392e-08 8.23499e-06 0.0911239)
(-3.31339e-06 4.80905e-06 0.0712959)
(2.78602e-06 -5.85374e-06 0.0713545)
(-1.39519e-05 4.77494e-08 0.0911708)
(8.59297e-06 1.21688e-06 0.0819511)
(-1.10887e-05 -7.1759e-07 0.0820078)
(8.30545e-06 1.81793e-07 0.0911223)
(4.32405e-06 -3.72893e-06 0.112758)
(-3.75489e-06 4.16712e-06 0.112758)
(4.24175e-06 4.06752e-06 0.112757)
(-3.55267e-06 -3.50085e-06 0.112748)
(4.08219e-06 -3.41623e-06 0.112745)
(-3.43688e-06 3.89657e-06 0.112744)
(3.95812e-06 3.81301e-06 0.112745)
(2.26492e-05 -5.28325e-08 0.0984269)
(-1.20882e-05 5.16753e-06 0.0927772)
(5.68501e-06 -7.50845e-07 0.110084)
(4.61323e-06 -1.80604e-06 0.107582)
(1.75796e-05 -6.11001e-06 0.0928387)
(5.53996e-06 -7.29659e-07 0.110081)
(-1.35481e-05 2.72289e-07 0.0983659)
(4.75543e-06 -3.1814e-06 0.071291)
(-5.80272e-06 2.81653e-06 0.0713541)
(-1.36457e-07 2.25644e-05 0.0984277)
(-7.19282e-07 5.67109e-06 0.110086)
(4.962e-06 -1.21484e-05 0.0927771)
(-1.80969e-06 4.55831e-06 0.107582)
(-6.92844e-07 5.53109e-06 0.110083)
(-6.35966e-06 1.75613e-05 0.0928376)
(2.22628e-07 -1.35585e-05 0.0983663)
(-5.23007e-06 -4.82861e-06 0.0872864)
(-4.8379e-06 -5.2449e-06 0.0872881)
(3.83121e-05 3.81893e-05 0.104319)
(8.62379e-06 5.82748e-06 0.0873405)
(5.89414e-06 8.5393e-06 0.0873416)
(-5.38475e-06 -4.8688e-06 0.0873012)
(-4.77678e-06 -5.50377e-06 0.0873029)
(3.17287e-06 4.83113e-06 0.0712969)
(-2.97484e-06 -5.753e-06 0.0713551)
(4.7606e-06 3.42148e-06 0.0712959)
(-5.86767e-06 -2.74825e-06 0.0713544)
(4.8583e-06 5.31315e-06 0.0872907)
(5.18415e-06 5.08491e-06 0.0872882)
(-3.81111e-05 -3.79462e-05 0.104321)
(-5.84276e-06 -8.46392e-06 0.0873431)
(-8.61451e-06 -5.61746e-06 0.0873414)
(-3.06002e-06 -5.68368e-06 0.071362)
(3.10433e-06 4.89658e-06 0.071304)
(-5.81998e-06 -2.84949e-06 0.0713612)
(4.80493e-06 3.34058e-06 0.0713027)
(2.93851e-05 2.95443e-05 0.104199)
(-5.88542e-06 -8.31798e-06 0.0873497)
(-8.48945e-06 -5.65894e-06 0.087348)
(4.81042e-06 5.47294e-06 0.0872976)
(5.32578e-06 5.09071e-06 0.0872951)
(1.91661e-07 -1.39297e-05 0.0911732)
(-1.07659e-06 8.64152e-06 0.0819518)
(8.40557e-07 -1.11295e-05 0.0820075)
(1.20751e-07 8.25336e-06 0.0911238)
(-2.23953e-07 -2.24458e-05 0.0984272)
(4.8164e-06 1.21822e-05 0.0927766)
(-8.06318e-07 -5.37684e-06 0.11009)
(-1.93315e-06 -4.25084e-06 0.107584)
(-6.45782e-06 -1.74534e-05 0.0928362)
(-7.67644e-07 -5.18243e-06 0.110086)
(1.35688e-07 1.36784e-05 0.0983664)
(5.0693e-07 -2.24175e-05 0.0984266)
(-4.78626e-06 1.23552e-05 0.092774)
(1.35069e-06 -5.27841e-06 0.110088)
(2.43018e-06 -4.08222e-06 0.10758)
(6.44962e-06 -1.74081e-05 0.0928348)
(1.35206e-06 -5.09345e-06 0.110085)
(1.99725e-07 1.37177e-05 0.0983657)
(5.41189e-08 8.3933e-06 0.0911317)
(-1.13607e-06 -1.09265e-05 0.0820157)
(9.19914e-07 8.71841e-06 0.0819605)
(-8.74551e-08 -1.37375e-05 0.0911806)
(7.96093e-08 8.39604e-06 0.0911316)
(9.13273e-07 -1.1011e-05 0.082015)
(-1.03827e-06 8.7424e-06 0.0819598)
(1.41845e-07 -1.37488e-05 0.0911805)
(9.68453e-08 1.395e-05 0.0983706)
(-1.875e-06 -4.10442e-06 0.107582)
(-6.48603e-06 -1.72241e-05 0.0928419)
(-6.85688e-07 -4.72778e-06 0.110081)
(4.79977e-06 1.24076e-05 0.0927827)
(-7.36383e-07 -5.02456e-06 0.110084)
(-2.65965e-07 -2.21656e-05 0.0984311)
(1.79389e-07 1.39901e-05 0.09837)
(2.36574e-06 -3.96207e-06 0.107578)
(6.4214e-06 -1.72248e-05 0.0928408)
(1.30309e-06 -4.66367e-06 0.110079)
(-4.78396e-06 1.25243e-05 0.0927802)
(1.34873e-06 -4.94805e-06 0.110082)
(4.64263e-07 -2.21217e-05 0.0984305)
(-4.90672e-06 5.32055e-06 0.0872878)
(-5.12152e-06 5.20079e-06 0.0872904)
(3.8414e-05 -3.78478e-05 0.104319)
(5.70539e-06 -8.48886e-06 0.0873416)
(8.58085e-06 -5.50409e-06 0.0873454)
(-4.63597e-06 3.41103e-06 0.0712957)
(5.86226e-06 -2.67057e-06 0.0713582)
(2.85686e-06 -5.7633e-06 0.0713609)
(-3.26473e-06 4.863e-06 0.0713027)
(-2.90959e-05 2.95901e-05 0.104197)
(5.69292e-06 -8.3618e-06 0.0873483)
(8.44513e-06 -5.64071e-06 0.0873521)
(-4.94796e-06 5.44792e-06 0.0872947)
(-5.26252e-06 5.07118e-06 0.0872972)
(5.75741e-06 -2.8138e-06 0.0713651)
(-4.74545e-06 3.26159e-06 0.0713029)
(-2.254e-05 -1.29435e-07 0.0984261)
(1.21633e-05 5.05037e-06 0.0927748)
(-5.47235e-06 -8.54302e-07 0.110089)
(-4.39733e-06 -1.88283e-06 0.107584)
(-1.75641e-05 -6.22303e-06 0.0928361)
(-5.32424e-06 -7.96441e-07 0.110085)
(1.3687e-05 2.01772e-07 0.0983651)
(-1.39271e-05 2.076e-07 0.0911704)
(8.60563e-06 -9.62851e-07 0.081948)
(-1.1107e-05 9.54439e-07 0.0820058)
(8.31768e-06 2.14444e-07 0.0911221)
(-2.25245e-05 5.01839e-07 0.0984259)
(-5.40937e-06 1.18031e-06 0.110086)
(1.22636e-05 -4.73303e-06 0.0927732)
(-4.21318e-06 2.20191e-06 0.107579)
(-5.25242e-06 1.18007e-06 0.110083)
(-1.74488e-05 6.45381e-06 0.0928348)
(1.37141e-05 2.14745e-07 0.0983649)
(8.43978e-06 1.1274e-07 0.0911301)
(-1.10422e-05 -8.7992e-07 0.0820155)
(8.70369e-06 1.11725e-06 0.0819589)
(-1.3799e-05 -4.00603e-08 0.0911781)
(1.39055e-05 1.69444e-07 0.09837)
(-4.27485e-06 -1.81451e-06 0.107583)
(-1.73647e-05 -6.25452e-06 0.0928422)
(-4.89588e-06 -6.96454e-07 0.11008)
(1.23226e-05 5.02747e-06 0.0927812)
(-5.17155e-06 -7.51166e-07 0.110083)
(-2.22727e-05 -1.62642e-07 0.0984306)
(8.43512e-06 1.86107e-07 0.0911299)
(-1.10142e-05 9.46119e-07 0.0820136)
(8.67966e-06 -9.3098e-07 0.0819561)
(-1.38233e-05 1.49071e-07 0.0911777)
(1.39234e-05 1.99776e-07 0.0983698)
(-4.08553e-06 2.14733e-06 0.107577)
(-4.8443e-06 1.14303e-06 0.110078)
(-1.72972e-05 6.4145e-06 0.0928409)
(-5.11511e-06 1.17808e-06 0.110081)
(1.24042e-05 -4.74267e-06 0.0927796)
(-2.22791e-05 4.66546e-07 0.0984304)
(1.40311e-05 1.44318e-07 0.0911729)
(-8.50052e-06 1.25469e-06 0.081953)
(1.11836e-05 -7.11645e-07 0.0820106)
(-8.18126e-06 2.42925e-07 0.0911236)
(2.26232e-05 6.11339e-07 0.0984262)
(5.63603e-06 1.21499e-06 0.110084)
(-1.21621e-05 -4.70687e-06 0.0927739)
(4.51992e-06 2.16771e-06 0.10758)
(5.49119e-06 1.19511e-06 0.110081)
(1.7574e-05 6.54026e-06 0.0928345)
(-1.35678e-05 3.00827e-07 0.0983655)
(1.39982e-05 3.70065e-07 0.0911721)
(-8.62077e-06 -9.46909e-07 0.0819493)
(1.11431e-05 9.60017e-07 0.0820052)
(-8.19988e-06 2.73927e-07 0.0911228)
(-1.37485e-05 2.20271e-07 0.0983707)
(4.48362e-06 -1.7617e-06 0.10758)
(1.7405e-05 -6.22727e-06 0.0928447)
(5.13821e-06 -6.95026e-07 0.110076)
(-1.22491e-05 5.06435e-06 0.0927836)
(5.41268e-06 -7.18587e-07 0.110079)
(2.24036e-05 -9.86689e-08 0.0984314)
(-8.2793e-06 2.08354e-07 0.0911315)
(1.10256e-05 -8.32696e-07 0.0820184)
(-8.6157e-06 1.09657e-06 0.0819612)
(1.38928e-05 1.07865e-07 0.0911804)
(-1.37657e-05 2.67609e-07 0.0983704)
(4.39269e-06 2.12316e-06 0.107578)
(5.09491e-06 1.13907e-06 0.110076)
(1.74341e-05 6.50681e-06 0.0928409)
(5.3641e-06 1.18178e-06 0.110079)
(-1.22888e-05 -4.71532e-06 0.0927806)
(2.23768e-05 5.69237e-07 0.0984308)
(-8.30491e-06 2.58373e-07 0.0911308)
(1.10426e-05 9.55806e-07 0.0820134)
(-8.6802e-06 -9.3568e-07 0.0819578)
(1.38714e-05 3.41087e-07 0.0911797)
(5.27204e-06 -4.87976e-06 0.087285)
(4.92497e-06 -5.24374e-06 0.0872906)
(-3.79034e-05 3.82664e-05 0.104319)
(-8.52281e-06 5.77979e-06 0.0873409)
(-5.80644e-06 8.55094e-06 0.087344)
(3.23676e-06 -4.83063e-06 0.0712974)
(-2.93564e-06 5.76255e-06 0.0713558)
(-5.77911e-06 2.7934e-06 0.0713613)
(4.78734e-06 -3.18391e-06 0.0712985)
(2.95366e-05 -2.92582e-05 0.104197)
(-8.45677e-06 5.70631e-06 0.0873479)
(-5.8675e-06 8.36967e-06 0.087351)
(5.35509e-06 -4.91362e-06 0.0872922)
(4.84167e-06 -5.40759e-06 0.0872978)
(-3.048e-06 5.67574e-06 0.0713625)
(3.12108e-06 -4.92607e-06 0.0713044)
(4.91243e-07 2.25506e-05 0.0984273)
(1.33522e-06 5.59057e-06 0.110085)
(-4.74386e-06 -1.2188e-05 0.0927757)
(2.29739e-06 4.44379e-06 0.107581)
(1.3059e-06 5.45141e-06 0.110082)
(6.56635e-06 1.75486e-05 0.0928369)
(2.24162e-07 -1.35857e-05 0.0983664)
(-7.52636e-10 1.38976e-05 0.0911743)
(1.05306e-06 -8.62473e-06 0.0819537)
(-9.43505e-07 1.10547e-05 0.0820093)
(1.23174e-07 -8.24484e-06 0.0911242)
(2.08185e-07 1.38992e-05 0.0911738)
(-9.82387e-07 -8.64865e-06 0.081953)
(1.06394e-06 1.10846e-05 0.0820094)
(1.63576e-07 -8.27831e-06 0.0911246)
(1.47908e-07 -1.3786e-05 0.0983715)
(-1.76445e-06 4.44467e-06 0.10758)
(-6.59011e-07 5.14596e-06 0.110077)
(-6.43719e-06 1.7339e-05 0.0928438)
(-6.86204e-07 5.40919e-06 0.11008)
(4.87937e-06 -1.23741e-05 0.0927835)
(-2.34004e-07 2.23026e-05 0.0984325)
(1.59987e-07 -1.38163e-05 0.0983715)
(2.2322e-06 4.33158e-06 0.10758)
(1.2174e-06 5.07488e-06 0.110077)
(6.56563e-06 1.73612e-05 0.0928432)
(1.26887e-06 5.33401e-06 0.11008)
(-4.71979e-06 -1.23488e-05 0.0927824)
(4.256e-07 2.22734e-05 0.0984321)
(6.21686e-08 -8.37676e-06 0.091132)
(-1.05997e-06 1.0888e-05 0.0820171)
(9.20995e-07 -8.78619e-06 0.081962)
(-8.2281e-08 1.37364e-05 0.0911818)
(1.23798e-07 -8.39686e-06 0.0911324)
(1.0691e-06 1.09526e-05 0.0820172)
(-9.41528e-07 -8.73287e-06 0.0819612)
(1.74936e-07 1.37462e-05 0.0911813)
(-4.8098e-06 -3.18578e-06 0.0712923)
(5.84227e-06 2.88557e-06 0.0713514)
(-3.17971e-06 -4.82701e-06 0.0712963)
(3.00872e-06 5.76696e-06 0.0713552)
(-2.92247e-05 -2.93312e-05 0.104197)
(8.54141e-06 5.79583e-06 0.0873477)
(5.93825e-06 8.41641e-06 0.0873489)
(-5.29595e-06 -4.84952e-06 0.087294)
(-4.80605e-06 -5.37131e-06 0.0872957)
(5.81845e-06 2.88663e-06 0.0713589)
(-4.8433e-06 -3.18271e-06 0.0713)
(3.05662e-06 5.69365e-06 0.0713622)
(-3.11198e-06 -4.89374e-06 0.0713038)
(4.93726e-06 1.11385e-06 0.110074)
(-1.2453e-05 -4.75664e-06 0.092787)
(-1.40283e-05 2.0934e-07 0.0983748)
(-8.743e-06 -9.37939e-07 0.081966)
(-8.43561e-06 2.21742e-07 0.0911383)
(-4.74367e-06 -1.25713e-05 0.0927886)
(-9.20516e-07 -8.83479e-06 0.081969)
(-4.86362e-06 -3.18244e-06 0.0713074)
(-3.08498e-06 -4.95706e-06 0.0713106)
(-3.39759e-07 5.29931e-06 0.0766028)
(2.11634e-07 -6.67364e-06 0.0784189)
(-4.52532e-07 -1.36236e-05 0.0896851)
(8.14011e-08 8.30449e-06 0.0911279)
(-7.31814e-08 5.01909e-06 0.0783752)
(2.51036e-07 8.44451e-06 0.0896342)
(7.89946e-07 -6.76396e-06 0.0766533)
(5.44107e-07 -6.00566e-06 0.068229)
(-9.71035e-07 -1.10683e-05 0.0820042)
(5.74956e-08 7.56015e-06 0.0855445)
(-6.90757e-07 -1.09892e-05 0.0856022)
(-4.30949e-07 5.33526e-06 0.0681627)
(-4.68086e-07 5.36879e-06 0.0681662)
(-7.2011e-07 -1.09296e-05 0.085606)
(9.68182e-07 8.68659e-06 0.0819567)
(1.71697e-08 7.61042e-06 0.0855485)
(4.97005e-07 -5.97354e-06 0.0682324)
(8.2737e-07 -6.81326e-06 0.0766492)
(1.81248e-08 -1.40035e-05 0.0911695)
(-5.04087e-08 4.99393e-06 0.0783707)
(2.59794e-07 8.37407e-06 0.0896302)
(2.40523e-07 -6.69192e-06 0.0784144)
(-4.32742e-07 -1.36863e-05 0.0896812)
(-3.17935e-07 5.25499e-06 0.0765986)
(2.76438e-06 -5.88849e-06 0.0713512)
(-3.28852e-06 4.8267e-06 0.0712994)
(5.31318e-06 -3.25364e-07 0.0766029)
(-1.36717e-05 -3.57153e-07 0.089683)
(-6.72269e-06 2.37637e-07 0.078415)
(8.36966e-06 1.55429e-07 0.0911263)
(8.5079e-06 3.41627e-07 0.089633)
(5.05938e-06 -2.53696e-08 0.0783739)
(-6.86002e-06 8.08738e-07 0.0766505)
(-6.10344e-06 6.10461e-07 0.068224)
(-1.11491e-05 -6.71469e-07 0.0820039)
(7.60329e-06 2.22175e-07 0.0855431)
(-1.1062e-05 -4.83187e-07 0.0855998)
(5.3978e-06 -3.32138e-07 0.0681616)
(5.41593e-06 -3.74516e-07 0.0681653)
(-1.10124e-05 -5.19566e-07 0.0856038)
(8.6457e-06 1.18222e-06 0.0819551)
(7.66166e-06 2.01118e-07 0.0855472)
(-6.08492e-06 5.59911e-07 0.0682277)
(-6.88712e-06 8.68727e-07 0.0766463)
(-1.40052e-05 8.71396e-08 0.0911669)
(8.44573e-06 3.67858e-07 0.089629)
(5.05037e-06 2.16925e-08 0.0783695)
(-1.373e-05 -3.21281e-07 0.0896791)
(-6.7307e-06 2.76305e-07 0.0784107)
(5.29444e-06 -2.66906e-07 0.0765986)
(-5.81897e-06 2.81908e-06 0.0713503)
(4.7661e-06 -3.17836e-06 0.0712948)
(-4.29872e-06 -4.26526e-06 0.0833586)
(3.6164e-06 4.9735e-06 0.0681518)
(5.04018e-06 3.54306e-06 0.0681467)
(-2.94271e-06 -4.59476e-06 0.0680941)
(-4.55646e-06 -2.98942e-06 0.0680892)
(6.40415e-06 6.4002e-06 0.0834055)
(1.51194e-05 8.7918e-06 0.0914921)
(-1.46201e-05 -8.30795e-06 0.0960922)
(8.65029e-06 5.83952e-06 0.0873367)
(-4.89365e-06 -3.54622e-06 0.0812934)
(2.1312e-05 1.18815e-05 0.096142)
(7.44649e-06 3.70627e-06 0.0813464)
(-1.01908e-05 -5.68344e-06 0.0914437)
(8.82725e-06 1.51839e-05 0.0914864)
(-8.32176e-06 -1.46089e-05 0.09609)
(5.87933e-06 8.59847e-06 0.0873379)
(-3.58063e-06 -4.91347e-06 0.0812915)
(1.19114e-05 2.12839e-05 0.09614)
(3.73721e-06 7.45288e-06 0.0813436)
(-5.71417e-06 -1.01318e-05 0.091438)
(-1.02291e-05 -5.70178e-06 0.0914467)
(7.42221e-06 3.69786e-06 0.0813501)
(-5.25086e-06 -4.82714e-06 0.0872902)
(2.12175e-05 1.18317e-05 0.0961444)
(-1.46934e-05 -8.34084e-06 0.0960947)
(-4.92607e-06 -3.54958e-06 0.0812971)
(1.50728e-05 8.75789e-06 0.0914951)
(-5.73616e-06 -1.01922e-05 0.0914411)
(3.77978e-06 7.41581e-06 0.0813474)
(-4.81828e-06 -5.30331e-06 0.087292)
(1.18626e-05 2.1189e-05 0.0961424)
(-8.35645e-06 -1.46876e-05 0.0960924)
(-3.56769e-06 -4.99067e-06 0.0812954)
(8.7855e-06 1.5102e-05 0.0914895)
(6.41526e-06 6.45385e-06 0.0834021)
(-2.94246e-06 -4.57033e-06 0.0680908)
(-4.57304e-06 -2.95718e-06 0.068086)
(3.61538e-06 4.9971e-06 0.0681486)
(5.0273e-06 3.5792e-06 0.0681435)
(-4.286e-06 -4.22497e-06 0.0833551)
(1.48836e-05 8.59836e-06 0.0915037)
(-1.49768e-05 -8.50801e-06 0.0961015)
(-5.00711e-06 -3.57927e-06 0.0813079)
(8.48877e-06 5.79734e-06 0.0873512)
(-1.04224e-05 -5.86832e-06 0.0914555)
(2.09418e-05 1.16745e-05 0.096151)
(7.31455e-06 3.65672e-06 0.0813608)
(8.6947e-06 1.48348e-05 0.0914982)
(-8.50315e-06 -1.5004e-05 0.0960992)
(-3.48321e-06 -5.17571e-06 0.0813063)
(5.93684e-06 8.33826e-06 0.0873524)
(-5.84285e-06 -1.04648e-05 0.09145)
(1.17502e-05 2.09006e-05 0.0961491)
(3.84502e-06 7.17843e-06 0.0813581)
(6.3861e-06 6.23362e-06 0.0834153)
(-2.92972e-06 -4.67908e-06 0.0681033)
(-4.49736e-06 -3.10056e-06 0.0680984)
(-4.32723e-06 -4.43091e-06 0.0833685)
(3.63046e-06 4.89079e-06 0.0681609)
(5.11403e-06 3.43167e-06 0.0681558)
(-2.94253e-06 -5.78572e-06 0.0713516)
(3.13798e-06 4.86266e-06 0.0713005)
(-5.88651e-06 -2.70668e-06 0.071351)
(4.78689e-06 3.39061e-06 0.0712993)
(4.28569e-06 4.43215e-06 0.0833604)
(-5.04735e-06 -3.50943e-06 0.0681544)
(-3.62394e-06 -4.92626e-06 0.068148)
(4.51983e-06 3.04386e-06 0.0680971)
(2.93087e-06 4.65839e-06 0.0680907)
(-6.38906e-06 -6.25371e-06 0.083407)
(-8.75265e-06 -1.50069e-05 0.0914938)
(8.41511e-06 1.47775e-05 0.0960937)
(-5.81749e-06 -8.53551e-06 0.0873396)
(3.5298e-06 4.99947e-06 0.0812984)
(-3.73221e-06 -7.36765e-06 0.08135)
(-1.17719e-05 -2.11499e-05 0.0961432)
(5.73343e-06 1.03197e-05 0.0914457)
(-1.51342e-05 -8.5873e-06 0.0914871)
(1.45695e-05 8.59156e-06 0.0960901)
(-8.6814e-06 -5.6202e-06 0.0873379)
(4.86023e-06 3.70073e-06 0.0812922)
(-7.52706e-06 -3.61495e-06 0.0813441)
(-2.13235e-05 -1.16185e-05 0.0961402)
(1.01645e-05 5.9347e-06 0.0914389)
(5.75121e-06 1.04042e-05 0.0914484)
(-3.76825e-06 -7.32259e-06 0.0813534)
(4.82739e-06 5.37995e-06 0.0872942)
(-1.17503e-05 -2.10418e-05 0.0961452)
(3.52476e-06 5.08509e-06 0.0813019)
(-8.73069e-06 -1.49112e-05 0.0914965)
(8.44402e-06 1.48951e-05 0.0960958)
(1.02412e-05 5.98781e-06 0.0914416)
(-7.46871e-06 -3.61682e-06 0.0813475)
(5.2542e-06 5.09528e-06 0.0872917)
(-2.12065e-05 -1.15528e-05 0.0961425)
(4.91436e-06 3.68506e-06 0.0812957)
(-1.50557e-05 -8.53434e-06 0.0914898)
(1.46753e-05 8.6596e-06 0.0960924)
(-6.41419e-06 -6.30231e-06 0.0834039)
(4.52163e-06 3.01878e-06 0.0680942)
(2.90883e-06 4.65317e-06 0.0680877)
(-5.03695e-06 -3.53643e-06 0.0681515)
(-3.63203e-06 -4.94062e-06 0.0681451)
(4.25305e-06 4.39289e-06 0.0833572)
(3.0592e-06 4.9269e-06 0.0713075)
(-3.01297e-06 -5.72186e-06 0.0713586)
(4.82707e-06 3.29138e-06 0.0713061)
(-5.84264e-06 -2.79707e-06 0.0713578)
(-6.3729e-06 -6.20388e-06 0.0834101)
(4.50808e-06 3.07375e-06 0.0681)
(2.9324e-06 4.68139e-06 0.0680935)
(4.30479e-06 4.48438e-06 0.0833635)
(-5.05821e-06 -3.48379e-06 0.0681572)
(-3.62139e-06 -4.90231e-06 0.0681508)
(5.79303e-06 1.05817e-05 0.0914538)
(-1.16771e-05 -2.07895e-05 0.0961492)
(4.78743e-06 5.54254e-06 0.087301)
(-3.8008e-06 -7.17528e-06 0.0813601)
(3.46151e-06 5.19793e-06 0.0813086)
(8.50292e-06 1.51278e-05 0.0960999)
(-8.68e-06 -1.47367e-05 0.0915019)
(1.03911e-05 6.06062e-06 0.091447)
(-2.09739e-05 -1.14811e-05 0.0961467)
(5.39393e-06 5.07763e-06 0.0872985)
(-7.36911e-06 -3.61881e-06 0.081354)
(5.02734e-06 3.69565e-06 0.0813023)
(1.49126e-05 8.75063e-06 0.0960967)
(-1.49135e-05 -8.47319e-06 0.0914951)
(-8.71282e-06 -1.48219e-05 0.0914992)
(3.48779e-06 5.13058e-06 0.0813053)
(8.47908e-06 1.50149e-05 0.0960979)
(-5.86292e-06 -8.3843e-06 0.0873465)
(5.7762e-06 1.04985e-05 0.0914512)
(-3.78316e-06 -7.24627e-06 0.0813568)
(-1.17259e-05 -2.0923e-05 0.0961473)
(-1.49885e-05 -8.50641e-06 0.0914924)
(4.97022e-06 3.68804e-06 0.081299)
(1.48065e-05 8.73035e-06 0.0960946)
(-8.54066e-06 -5.62458e-06 0.0873448)
(1.03213e-05 6.0385e-06 0.0914443)
(-7.41696e-06 -3.61465e-06 0.0813508)
(-2.10887e-05 -1.15134e-05 0.0961447)
(4.31879e-06 4.53363e-06 0.0833665)
(-5.06468e-06 -3.46938e-06 0.0681599)
(-3.62438e-06 -4.88435e-06 0.0681535)
(4.49844e-06 3.09596e-06 0.0681028)
(2.93078e-06 4.70211e-06 0.0680963)
(-6.36113e-06 -6.16653e-06 0.0834131)
(3.74654e-07 5.34126e-06 0.0766049)
(-2.04155e-07 -6.6698e-06 0.0784189)
(5.83709e-07 -1.36497e-05 0.0896847)
(1.05346e-07 8.31879e-06 0.0911278)
(8.70449e-08 5.02841e-06 0.0783755)
(-1.14165e-07 8.4962e-06 0.0896343)
(-7.7803e-07 -6.83654e-06 0.0766531)
(-5.38483e-07 -6.08133e-06 0.0682256)
(8.07343e-07 -1.11503e-05 0.0820035)
(-1.13541e-08 7.62998e-06 0.0855437)
(6.94985e-07 -1.10366e-05 0.0856004)
(4.17802e-07 5.42588e-06 0.0681632)
(4.36702e-07 5.44232e-06 0.0681668)
(7.00198e-07 -1.09966e-05 0.0856045)
(-1.06657e-06 8.70295e-06 0.0819558)
(-8.25318e-09 7.67493e-06 0.0855478)
(-5.22172e-07 -6.05747e-06 0.0682291)
(-7.67154e-07 -6.86849e-06 0.0766489)
(2.15738e-07 -1.39985e-05 0.0911693)
(9.8664e-08 4.99317e-06 0.078371)
(-1.0219e-07 8.44373e-06 0.0896302)
(-1.82838e-07 -6.71037e-06 0.0784145)
(6.04777e-07 -1.37162e-05 0.0896808)
(3.75086e-07 5.30939e-06 0.0766007)
(7.12965e-07 -6.7245e-06 0.0766573)
(-1.08576e-07 5.06244e-06 0.0783796)
(2.16463e-07 8.52225e-06 0.0896379)
(-3.98209e-08 -1.38375e-05 0.0911771)
(-3.98101e-07 5.34991e-06 0.0766068)
(1.60693e-07 -6.62757e-06 0.0784231)
(-5.02078e-07 -1.35315e-05 0.0896888)
(-5.98838e-07 5.41142e-06 0.0681729)
(8.75901e-07 8.81365e-06 0.0819643)
(-8.14906e-07 -1.07847e-05 0.0856134)
(3.61892e-07 -5.92326e-06 0.068239)
(-5.94692e-08 7.76261e-06 0.085556)
(4.29195e-07 -5.95263e-06 0.0682358)
(-1.23563e-08 7.69247e-06 0.0855523)
(-1.06886e-06 -1.09781e-05 0.082012)
(-5.34905e-07 5.39293e-06 0.0681696)
(-7.62805e-07 -1.08587e-05 0.0856098)
(-4.7945e-07 5.38048e-06 0.0766107)
(7.62032e-09 8.48369e-06 0.0911353)
(9.96209e-08 -6.62961e-06 0.0784272)
(-5.63996e-07 -1.3443e-05 0.0896924)
(6.33393e-07 -6.69122e-06 0.0766611)
(-1.69709e-07 5.07681e-06 0.0783838)
(1.57043e-07 8.61504e-06 0.0896416)
(-7.76734e-07 -6.80404e-06 0.076657)
(6.28637e-08 5.0717e-06 0.0783798)
(-1.3527e-07 8.56987e-06 0.0896382)
(1.69768e-07 -1.38516e-05 0.091177)
(3.73595e-07 5.37678e-06 0.076609)
(-2.32117e-07 -6.63391e-06 0.0784231)
(5.65001e-07 -1.35844e-05 0.0896886)
(4.67998e-07 5.46833e-06 0.0681736)
(-1.00454e-06 8.82454e-06 0.0819635)
(6.8891e-07 -1.08581e-05 0.085612)
(-1.99657e-09 7.80145e-06 0.0855556)
(-4.99755e-07 -6.03308e-06 0.0682357)
(-5.02233e-07 -6.05135e-06 0.0682325)
(-7.52738e-09 7.73113e-06 0.0855518)
(8.69288e-07 -1.10551e-05 0.0820114)
(4.58925e-07 5.4612e-06 0.0681703)
(6.98107e-07 -1.09292e-05 0.0856084)
(3.72964e-07 5.39396e-06 0.0766129)
(5.58398e-08 8.48011e-06 0.0911353)
(-2.61012e-07 -6.61398e-06 0.0784271)
(5.43211e-07 -1.34855e-05 0.0896922)
(3.41064e-08 5.09246e-06 0.078384)
(-1.52232e-07 8.66031e-06 0.089642)
(-7.82583e-07 -6.77396e-06 0.0766608)
(-4.28625e-06 4.44819e-06 0.0833608)
(4.98177e-06 -3.57307e-06 0.0681482)
(3.6346e-06 -4.90346e-06 0.0681543)
(-4.60004e-06 3.0012e-06 0.0680906)
(-2.91719e-06 4.69081e-06 0.0680965)
(6.42187e-06 -6.27156e-06 0.0834078)
(8.8055e-06 -1.49254e-05 0.0914875)
(-8.27199e-06 1.48937e-05 0.0960887)
(5.72009e-06 -8.53908e-06 0.0873382)
(-3.64104e-06 4.95496e-06 0.0812924)
(3.61883e-06 -7.39655e-06 0.0813454)
(1.19339e-05 -2.10376e-05 0.0961394)
(-5.75646e-06 1.04182e-05 0.0914386)
(1.52331e-05 -8.54564e-06 0.0914948)
(-1.45157e-05 8.66019e-06 0.0960937)
(8.64345e-06 -5.42698e-06 0.087342)
(-4.8087e-06 3.81744e-06 0.081298)
(2.13375e-05 -1.1539e-05 0.096144)
(7.49953e-06 -3.48466e-06 0.0813512)
(-1.00792e-05 5.97247e-06 0.091446)
(-5.77569e-06 1.04503e-05 0.0914415)
(3.62374e-06 -7.34659e-06 0.0813486)
(-4.9253e-06 5.37375e-06 0.0872913)
(1.18718e-05 -2.0945e-05 0.0961416)
(-3.63946e-06 5.00528e-06 0.0812957)
(-8.33056e-06 1.49919e-05 0.096091)
(8.76133e-06 -1.48759e-05 0.0914903)
(-1.01757e-05 5.99384e-06 0.0914489)
(7.43776e-06 -3.52611e-06 0.0813545)
(-5.18256e-06 5.13399e-06 0.0872938)
(2.12205e-05 -1.1519e-05 0.0961463)
(-1.46376e-05 8.68442e-06 0.0960961)
(-4.86814e-06 3.78286e-06 0.0813013)
(1.51266e-05 -8.51638e-06 0.0914976)
(6.46003e-06 -6.29159e-06 0.0834048)
(-4.60369e-06 2.98659e-06 0.0680879)
(-2.901e-06 4.69045e-06 0.0680938)
(4.97972e-06 -3.58928e-06 0.0681456)
(3.65813e-06 -4.89606e-06 0.0681516)
(-4.25112e-06 4.42182e-06 0.0833579)
(5.91693e-06 -2.59534e-06 0.0713546)
(-4.69125e-06 3.33492e-06 0.0712993)
(-3.23352e-06 4.91401e-06 0.0713059)
(2.82108e-06 -5.82087e-06 0.0713578)
(6.38449e-06 -6.26054e-06 0.0834107)
(-4.59966e-06 3.01487e-06 0.0680932)
(-2.94168e-06 4.6805e-06 0.0680992)
(-4.32077e-06 4.45875e-06 0.0833638)
(4.97653e-06 -3.56156e-06 0.0681508)
(3.60799e-06 -4.91559e-06 0.0681569)
(-5.87539e-06 1.05528e-05 0.091447)
(1.1721e-05 -2.07817e-05 0.0961461)
(-4.94844e-06 5.49026e-06 0.087298)
(3.66206e-06 -7.25034e-06 0.0813549)
(-8.47914e-06 1.5171e-05 0.0960955)
(-3.61332e-06 5.10148e-06 0.0813021)
(8.64082e-06 -1.47549e-05 0.0914958)
(-1.03634e-05 6.01756e-06 0.0914544)
(2.09606e-05 -1.14677e-05 0.0961505)
(-5.32288e-06 4.99529e-06 0.0873006)
(7.30617e-06 -3.62476e-06 0.0813612)
(-4.9906e-06 3.68205e-06 0.081308)
(-1.48898e-05 8.73226e-06 0.0961005)
(1.49428e-05 -8.49886e-06 0.091503)
(8.71877e-06 -1.48249e-05 0.0914931)
(-3.62968e-06 5.05229e-06 0.081299)
(-8.40312e-06 1.50846e-05 0.0960933)
(5.69407e-06 -8.42957e-06 0.087345)
(1.18049e-05 -2.08585e-05 0.0961439)
(-5.81841e-06 1.04907e-05 0.0914443)
(3.63869e-06 -7.29852e-06 0.0813518)
(1.50338e-05 -8.50737e-06 0.0915003)
(-4.92478e-06 3.7359e-06 0.0813047)
(-1.47678e-05 8.71893e-06 0.0960983)
(8.50482e-06 -5.5668e-06 0.0873488)
(-1.02676e-05 6.01461e-06 0.0914516)
(7.3749e-06 -3.57191e-06 0.0813579)
(2.10835e-05 -1.14929e-05 0.0961485)
(-4.3656e-06 4.46874e-06 0.0833667)
(4.97259e-06 -3.5562e-06 0.0681534)
(3.5804e-06 -4.94738e-06 0.0681596)
(-4.60522e-06 3.0238e-06 0.0680958)
(-2.97192e-06 4.65788e-06 0.0681019)
(6.34147e-06 -6.25082e-06 0.0834136)
(-4.79527e-06 3.19134e-06 0.0713064)
(5.80997e-06 -2.74434e-06 0.0713618)
(5.30219e-06 5.55305e-07 0.0765996)
(-6.73323e-06 -1.68887e-07 0.0784145)
(-1.361e-05 6.34172e-07 0.0896824)
(8.38534e-06 2.00538e-07 0.0911261)
(5.05338e-06 1.89941e-07 0.0783731)
(8.51253e-06 2.47769e-08 0.0896315)
(-6.79977e-06 -6.80984e-07 0.0766498)
(-6.01088e-06 -4.7866e-07 0.0682255)
(-1.11047e-05 9.19676e-07 0.0820017)
(7.64714e-06 8.63091e-08 0.0855409)
(-1.09637e-05 7.42829e-07 0.085599)
(5.3745e-06 5.75347e-07 0.0681588)
(5.38387e-06 5.72115e-07 0.0681626)
(-1.09423e-05 7.49381e-07 0.0856031)
(8.65047e-06 -9.45886e-07 0.0819521)
(7.66787e-06 9.59359e-08 0.085545)
(-6.00189e-06 -4.829e-07 0.0682292)
(-6.81204e-06 -6.5974e-07 0.0766457)
(-1.39961e-05 2.23024e-07 0.0911665)
(5.03928e-06 2.1072e-07 0.0783688)
(8.45428e-06 3.04767e-08 0.0896275)
(-6.73374e-06 -1.47242e-07 0.0784101)
(-1.36564e-05 6.32549e-07 0.0896784)
(5.28863e-06 5.67679e-07 0.0765954)
(-6.83328e-06 7.50997e-07 0.0766546)
(8.58302e-06 2.99042e-07 0.0896369)
(5.07796e-06 -6.79237e-08 0.0783782)
(-1.38826e-05 1.49491e-09 0.0911746)
(5.34761e-06 -3.85735e-07 0.076607)
(-1.3596e-05 -4.0504e-07 0.0896868)
(-6.7032e-06 1.88945e-07 0.0784192)
(5.45688e-06 -4.90005e-07 0.0681725)
(8.74843e-06 1.04432e-06 0.0819628)
(-1.09062e-05 -6.48775e-07 0.0856116)
(-6.04229e-06 4.34855e-07 0.0682347)
(7.76973e-06 8.08031e-08 0.085555)
(-6.06169e-06 5.02991e-07 0.0682312)
(7.72456e-06 1.49427e-07 0.0855511)
(-1.10689e-05 -8.00666e-07 0.0820117)
(5.43765e-06 -4.31539e-07 0.068169)
(-1.09579e-05 -5.79245e-07 0.0856078)
(5.37031e-06 -4.48472e-07 0.076611)
(8.50077e-06 6.2367e-08 0.0911339)
(-1.35368e-05 -4.61735e-07 0.0896905)
(-6.67241e-06 1.37911e-07 0.0784233)
(-6.80305e-06 6.897e-07 0.0766585)
(8.64326e-06 2.45303e-07 0.0896407)
(5.09101e-06 -1.19912e-07 0.0783824)
(-6.78911e-06 -6.89207e-07 0.0766538)
(5.07672e-06 1.63319e-07 0.0783774)
(8.56163e-06 2.98759e-08 0.0896354)
(-1.38626e-05 1.82128e-07 0.0911741)
(5.32102e-06 5.50841e-07 0.0766036)
(-6.71071e-06 -1.99066e-07 0.0784186)
(-1.35344e-05 6.25591e-07 0.0896862)
(5.39197e-06 5.71784e-07 0.0681698)
(8.71966e-06 -9.3012e-07 0.0819601)
(-1.08766e-05 7.34836e-07 0.085611)
(7.74677e-06 9.21964e-08 0.0855531)
(-5.997e-06 -4.88157e-07 0.0682363)
(-5.99822e-06 -4.87506e-07 0.0682328)
(7.71104e-06 9.73541e-08 0.0855491)
(-1.10471e-05 9.51547e-07 0.0820098)
(5.39113e-06 5.83574e-07 0.0681662)
(-1.09075e-05 7.43989e-07 0.0856072)
(5.32288e-06 5.35574e-07 0.0766076)
(8.49045e-06 1.50853e-07 0.0911335)
(-6.68009e-06 -2.42077e-07 0.0784226)
(-1.34912e-05 6.12465e-07 0.0896898)
(5.07913e-06 1.32571e-07 0.0783815)
(8.62062e-06 2.04963e-08 0.0896391)
(-6.77489e-06 -6.98678e-07 0.0766576)
(-5.27614e-06 -2.53412e-07 0.0766056)
(1.37612e-05 -3.05017e-07 0.0896856)
(6.73677e-06 3.93112e-07 0.0784186)
(-8.21699e-06 2.28551e-07 0.0911276)
(-8.41171e-06 3.92696e-07 0.0896351)
(-4.96878e-06 9.20618e-08 0.0783753)
(6.90373e-06 9.14404e-07 0.0766537)
(6.13021e-06 6.41713e-07 0.0682275)
(1.12555e-05 -6.40797e-07 0.0820064)
(-7.54036e-06 2.31384e-07 0.0855458)
(1.11294e-05 -4.67287e-07 0.0856028)
(-5.38154e-06 -3.20795e-07 0.0681649)
(-5.39112e-06 -3.56984e-07 0.0681687)
(1.10852e-05 -5.14825e-07 0.0856069)
(-8.54079e-06 1.17552e-06 0.0819572)
(-7.59321e-06 1.87915e-07 0.0855499)
(6.11043e-06 6.09472e-07 0.0682313)
(6.93032e-06 9.32729e-07 0.0766495)
(1.40799e-05 1.63014e-07 0.091169)
(-8.35246e-06 4.18869e-07 0.089631)
(-4.95525e-06 1.03478e-07 0.0783708)
(1.38146e-05 -2.78704e-07 0.0896816)
(6.74805e-06 4.00022e-07 0.0784141)
(-5.25879e-06 -2.24323e-07 0.0766013)
(-5.31888e-06 5.70218e-07 0.0766028)
(6.71891e-06 1.71941e-08 0.0784175)
(1.37052e-05 7.69627e-07 0.0896833)
(-8.24813e-06 2.70234e-07 0.0911269)
(-4.98206e-06 2.84939e-07 0.0783742)
(-8.45206e-06 5.37206e-08 0.0896328)
(6.85652e-06 -5.68185e-07 0.076651)
(6.06864e-06 -4.08709e-07 0.0682251)
(1.11667e-05 9.57062e-07 0.0820009)
(-7.60064e-06 1.07858e-07 0.0855424)
(1.10578e-05 8.33989e-07 0.0855991)
(-5.42312e-06 5.41968e-07 0.0681627)
(-5.42926e-06 5.37087e-07 0.0681666)
(1.10381e-05 8.34226e-07 0.0856034)
(-8.63984e-06 -9.40314e-07 0.0819536)
(-7.63182e-06 1.06412e-07 0.0855467)
(6.06079e-06 -4.0878e-07 0.068229)
(6.86892e-06 -5.6863e-07 0.0766466)
(1.40402e-05 3.79462e-07 0.0911682)
(-4.97438e-06 2.79274e-07 0.0783696)
(-8.41784e-06 5.59923e-08 0.0896286)
(6.72833e-06 1.76122e-08 0.078413)
(1.3742e-05 7.72465e-07 0.0896791)
(-5.31167e-06 5.65686e-07 0.0765984)
(6.88288e-06 8.88581e-07 0.0766578)
(-8.47953e-06 3.66482e-07 0.089639)
(-4.98766e-06 8.11687e-08 0.0783797)
(1.39623e-05 1.28583e-07 0.0911767)
(-5.30916e-06 -2.69869e-07 0.0766097)
(1.3691e-05 -3.32053e-07 0.0896894)
(6.7207e-06 3.7904e-07 0.0784229)
(-5.43434e-06 -4.27708e-07 0.0681759)
(-8.66811e-06 1.03114e-06 0.0819652)
(1.09598e-05 -6.01933e-07 0.0856146)
(-7.69947e-06 9.32999e-08 0.0855579)
(6.07549e-06 5.34253e-07 0.0682383)
(6.0954e-06 5.71053e-07 0.0682348)
(-7.65275e-06 1.3671e-07 0.0855539)
(1.11178e-05 -7.85815e-07 0.0820146)
(-5.41431e-06 -3.89965e-07 0.0681723)
(1.10226e-05 -5.62246e-07 0.0856109)
(-5.32665e-06 -3.00221e-07 0.0766138)
(-8.34443e-06 1.89993e-07 0.0911353)
(1.3626e-05 -3.58744e-07 0.0896931)
(6.69159e-06 3.58989e-07 0.0784272)
(-8.53629e-06 3.35034e-07 0.0896428)
(-5.00292e-06 5.9145e-08 0.078384)
(6.85447e-06 8.62625e-07 0.0766618)
(6.83051e-06 -5.79429e-07 0.0766553)
(-4.99629e-06 2.80694e-07 0.0783787)