/*--------------------------------*- C++ -*----------------------------------*\
| =========                 |                                                 |
| \\      /  F ield         | OpenFOAM: The Open Source CFD Toolbox           |
|  \\    /   O peration     | Version:  v1912                                 |
|   \\  /    A nd           | Website:  www.openfoam.com                      |
|    \\/     M anipulation  |                                                 |
\*---------------------------------------------------------------------------*/
FoamFile
{
    version     2.0;
    format      ascii;
    class       volScalarField;
    location    "1.6";
    object      nut;
}
// * * * * * * * * * * * * * * * * * * * * * * * * * * * * * * * * * * * * * //

dimensions      [0 2 -1 0 0 0 0];


internalField   nonuniform List<scalar> 
171728
(
1.26195e-06
1.27834e-06
1.27897e-06
5.32998e-07
8.49133e-08
9.72185e-08
9.74024e-08
1.08663e-07
6.68562e-09
7.91343e-09
7.91656e-09
1.06033e-07
2.04235e-09
4.37152e-09
4.34403e-09
1.06206e-07
2.15632e-09
4.11286e-09
4.11682e-09
1.06211e-07
2.15798e-09
4.10393e-09
4.10956e-09
1.06211e-07
2.14867e-09
4.10984e-09
4.10189e-09
1.06211e-07
2.16339e-09
4.11639e-09
4.11214e-09
1.0621e-07
2.16397e-09
4.11185e-09
4.10356e-09
1.06213e-07
2.16198e-09
4.11208e-09
4.10569e-09
1.06212e-07
2.15798e-09
4.11106e-09
4.1088e-09
1.06213e-07
2.16603e-09
4.10894e-09
4.10846e-09
1.06212e-07
2.16851e-09
4.1417e-09
4.11084e-09
1.06212e-07
2.17356e-09
4.137e-09
4.10547e-09
1.06212e-07
2.15449e-09
4.09986e-09
4.11061e-09
1.06212e-07
2.15654e-09
4.09831e-09
4.10601e-09
1.06213e-07
2.16611e-09
4.11407e-09
4.10863e-09
1.06214e-07
2.15944e-09
4.10238e-09
4.10726e-09
1.06212e-07
2.16692e-09
4.0904e-09
4.1092e-09
1.06211e-07
2.15174e-09
4.12878e-09
4.10477e-09
1.06204e-07
2.26935e-09
4.10611e-09
4.10809e-09
1.06215e-07
2.15799e-09
4.11359e-09
4.1076e-09
1.06214e-07
2.16312e-09
4.11186e-09
4.10817e-09
1.06215e-07
2.16175e-09
4.11309e-09
4.10991e-09
1.06215e-07
2.16395e-09
4.11013e-09
4.10723e-09
1.06215e-07
2.16119e-09
4.11112e-09
4.10743e-09
1.06215e-07
2.16395e-09
4.11374e-09
4.11028e-09
1.06215e-07
2.16261e-09
4.11182e-09
4.10835e-09
1.06215e-07
2.1622e-09
4.11052e-09
4.10706e-09
1.06215e-07
2.16327e-09
4.11301e-09
4.1097e-09
1.06214e-07
2.16284e-09
4.11252e-09
4.10855e-09
1.06215e-07
2.16325e-09
4.11031e-09
4.10797e-09
1.06215e-07
2.16296e-09
4.11378e-09
4.10863e-09
1.06215e-07
2.16195e-09
4.1134e-09
4.10858e-09
1.06215e-07
2.16369e-09
4.1142e-09
4.10917e-09
1.06216e-07
2.1625e-09
4.1109e-09
4.10663e-09
1.06215e-07
2.16385e-09
4.11329e-09
4.10904e-09
1.06215e-07
2.16326e-09
4.11296e-09
4.10872e-09
1.06216e-07
2.16318e-09
4.11453e-09
4.11561e-09
1.06216e-07
2.18049e-09
4.12031e-09
4.11406e-09
1.06201e-07
2.32653e-09
4.09792e-09
4.10939e-09
1.06214e-07
2.16163e-09
4.10024e-09
4.10452e-09
1.06215e-07
2.16396e-09
4.11133e-09
4.10274e-09
1.06216e-07
2.16475e-09
4.10881e-09
4.10264e-09
1.06216e-07
2.16737e-09
4.10987e-09
4.10735e-09
1.06216e-07
2.16587e-09
4.10791e-09
4.10274e-09
1.06216e-07
2.16435e-09
4.1072e-09
4.10613e-09
1.06218e-07
2.16589e-09
4.10958e-09
4.11141e-09
1.06216e-07
2.1656e-09
4.11043e-09
4.11249e-09
1.06216e-07
2.16583e-09
4.10872e-09
4.11079e-09
1.06216e-07
2.16426e-09
4.10707e-09
4.10946e-09
1.06216e-07
2.16618e-09
4.10883e-09
4.10989e-09
1.06216e-07
2.16658e-09
4.10971e-09
4.11083e-09
1.06216e-07
2.16771e-09
4.11801e-09
4.1105e-09
1.06216e-07
2.16885e-09
4.11306e-09
4.11096e-09
1.06215e-07
2.16362e-09
4.10817e-09
4.11122e-09
1.06211e-07
2.161e-09
4.11387e-09
4.11203e-09
1.06201e-07
2.16101e-09
4.11283e-09
4.11037e-09
1.06201e-07
2.16153e-09
4.11509e-09
4.11278e-09
1.062e-07
2.1626e-09
4.11364e-09
4.11032e-09
1.06201e-07
2.16243e-09
4.11535e-09
4.11328e-09
1.062e-07
2.16083e-09
4.1131e-09
4.11047e-09
1.06201e-07
2.16074e-09
4.11533e-09
4.11278e-09
1.06199e-07
2.16223e-09
4.11499e-09
4.11279e-09
1.062e-07
2.16148e-09
4.11489e-09
4.11251e-09
1.062e-07
2.16111e-09
4.11406e-09
4.11162e-09
1.062e-07
2.1612e-09
4.11309e-09
4.11066e-09
1.062e-07
2.16108e-09
4.11402e-09
4.1121e-09
1.062e-07
2.15669e-09
4.1126e-09
4.11125e-09
1.06201e-07
2.15389e-09
4.11353e-09
4.09332e-09
1.06202e-07
2.15828e-09
4.11758e-09
4.11052e-09
1.06198e-07
2.16228e-09
4.11438e-09
4.11209e-09
1.062e-07
2.16064e-09
4.11318e-09
4.11033e-09
1.062e-07
2.16039e-09
4.11418e-09
4.11128e-09
1.06199e-07
2.16296e-09
4.1148e-09
4.1119e-09
1.06199e-07
2.15997e-09
4.1138e-09
4.11098e-09
1.06199e-07
2.16097e-09
4.11397e-09
4.11097e-09
1.06199e-07
2.16212e-09
4.11432e-09
4.1115e-09
1.06199e-07
2.16174e-09
4.1132e-09
4.11069e-09
1.06199e-07
2.16103e-09
4.11499e-09
4.11255e-09
1.062e-07
2.16044e-09
4.11351e-09
4.11114e-09
1.06199e-07
2.16143e-09
4.11439e-09
4.11188e-09
1.06199e-07
2.162e-09
4.11498e-09
4.11251e-09
1.06199e-07
2.16376e-09
4.1142e-09
4.11183e-09
1.06199e-07
2.16395e-09
4.11453e-09
4.11206e-09
1.06199e-07
2.16446e-09
4.11383e-09
4.11184e-09
1.06198e-07
2.16422e-09
4.11633e-09
4.11422e-09
1.06199e-07
2.16197e-09
4.11251e-09
4.1106e-09
1.06199e-07
2.16337e-09
4.11286e-09
4.10999e-09
1.06199e-07
2.16479e-09
4.11497e-09
4.11218e-09
1.06199e-07
2.16667e-09
4.11125e-09
4.10655e-09
1.06202e-07
2.23118e-09
4.13209e-09
4.13685e-09
1.062e-07
4.65993e-09
5.07357e-09
5.12714e-09
1.06099e-07
5.30261e-08
4.70544e-08
4.70123e-08
1.04776e-07
5.08253e-07
2.39705e-07
2.39734e-07
5.39806e-07
4.52667e-07
7.60163e-07
7.60481e-07
4.52778e-07
7.60241e-07
7.60252e-07
2.14935e-06
2.1494e-06
2.14936e-06
2.14939e-06
7.60087e-07
7.59996e-07
4.52494e-07
7.59911e-07
7.60254e-07
4.52415e-07
5.33064e-07
2.77701e-07
1.27898e-06
1.27903e-06
2.14275e-07
2.14278e-07
5.33032e-07
2.77637e-07
1.27888e-06
1.27956e-06
2.14444e-07
2.14349e-07
1.27921e-06
2.14314e-07
2.14186e-07
5.32977e-07
2.77716e-07
1.27916e-06
2.14328e-07
2.14327e-07
2.77727e-07
1.08715e-07
2.69724e-07
9.73036e-08
9.73275e-08
1.24283e-08
1.25184e-08
1.08704e-07
2.69787e-07
9.73212e-08
9.72948e-08
1.23795e-08
1.24333e-08
9.72709e-08
1.23177e-08
1.24168e-08
1.08741e-07
2.69737e-07
9.74379e-08
1.23978e-08
1.23406e-08
2.69729e-07
1.05948e-07
2.69116e-07
7.96416e-09
7.9537e-09
4.62986e-09
4.62162e-09
1.05956e-07
2.69128e-07
7.97702e-09
7.96303e-09
4.59414e-09
4.63264e-09
7.97352e-09
4.60066e-09
4.6479e-09
1.0601e-07
2.69146e-07
7.97929e-09
4.56451e-09
4.55036e-09
2.69104e-07
1.0619e-07
2.69086e-07
4.39082e-09
4.42823e-09
4.17203e-09
4.18003e-09
1.06164e-07
2.69087e-07
4.33087e-09
4.39069e-09
4.12214e-09
4.17958e-09
4.40794e-09
4.12073e-09
4.16615e-09
1.06213e-07
2.69114e-07
4.34783e-09
4.1052e-09
4.11119e-09
2.6906e-07
1.0619e-07
2.6908e-07
4.16991e-09
4.17472e-09
4.16088e-09
4.17516e-09
1.0617e-07
2.69078e-07
4.10571e-09
4.17167e-09
4.12517e-09
4.16489e-09
4.15598e-09
4.10298e-09
4.14994e-09
1.06209e-07
2.69107e-07
4.10327e-09
4.09058e-09
4.09553e-09
2.69054e-07
1.0619e-07
2.69088e-07
4.16683e-09
4.18371e-09
4.14246e-09
4.19994e-09
1.06174e-07
2.6909e-07
4.09173e-09
4.16403e-09
4.11499e-09
4.15732e-09
4.14892e-09
4.11409e-09
4.14188e-09
1.0621e-07
2.69119e-07
4.09629e-09
4.0827e-09
4.08781e-09
2.69065e-07
1.06194e-07
2.69089e-07
4.11834e-09
4.19066e-09
4.17961e-09
4.18097e-09
1.06168e-07
2.69088e-07
4.07981e-09
4.15733e-09
4.12027e-09
4.16103e-09
4.14095e-09
4.11442e-09
4.14695e-09
1.06209e-07
2.69115e-07
4.08883e-09
4.08767e-09
4.09302e-09
2.69059e-07
1.06194e-07
2.69086e-07
4.16856e-09
4.18569e-09
4.1643e-09
4.18334e-09
1.06163e-07
2.69083e-07
4.09797e-09
4.16538e-09
4.12719e-09
4.16333e-09
4.14989e-09
4.11513e-09
4.14884e-09
1.06208e-07
2.6911e-07
4.09847e-09
4.09043e-09
4.09519e-09
2.69054e-07
1.06174e-07
2.69091e-07
4.16215e-09
4.18121e-09
4.13475e-09
4.16492e-09
1.06166e-07
2.69105e-07
4.09276e-09
4.1626e-09
4.10662e-09
4.15878e-09
4.14614e-09
4.10814e-09
4.1429e-09
1.06211e-07
2.69121e-07
4.09217e-09
4.08307e-09
4.089e-09
2.69066e-07
1.06183e-07
2.69078e-07
4.14777e-09
4.13703e-09
4.1688e-09
4.11556e-09
1.06159e-07
2.69087e-07
4.09806e-09
4.16154e-09
4.09998e-09
4.16288e-09
4.14368e-09
4.11224e-09
4.14731e-09
1.06209e-07
2.69114e-07
4.09223e-09
4.08844e-09
4.09403e-09
2.69057e-07
1.06197e-07
2.69088e-07
4.21385e-09
4.14245e-09
4.1637e-09
4.12142e-09
1.06166e-07
2.69088e-07
4.1039e-09
4.16253e-09
4.11185e-09
4.1613e-09
4.14517e-09
4.11112e-09
4.14499e-09
1.0621e-07
2.69117e-07
4.09406e-09
4.08692e-09
4.09059e-09
2.69063e-07
1.06183e-07
2.69079e-07
4.16395e-09
4.11367e-09
4.16271e-09
4.10852e-09
1.06167e-07
2.69115e-07
4.10727e-09
4.16209e-09
4.10576e-09
4.16126e-09
4.14586e-09
4.1281e-09
4.15256e-09
1.0621e-07
2.69114e-07
4.09212e-09
4.08959e-09
4.09067e-09
2.6906e-07
1.06185e-07
2.69079e-07
4.16589e-09
4.12671e-09
4.14961e-09
4.18052e-09
1.0616e-07
2.69113e-07
4.10283e-09
4.16256e-09
4.09382e-09
4.15688e-09
4.15327e-09
4.12995e-09
4.14858e-09
1.06211e-07
2.69118e-07
4.0938e-09
4.08501e-09
4.08906e-09
2.69068e-07
1.06187e-07
2.69076e-07
4.15279e-09
4.1886e-09
4.17171e-09
4.17486e-09
1.06166e-07
2.69094e-07
4.09236e-09
4.15788e-09
4.08909e-09
4.16264e-09
4.14691e-09
4.10669e-09
4.14971e-09
1.06211e-07
2.69115e-07
4.09134e-09
4.08841e-09
4.09538e-09
2.69059e-07
1.06186e-07
2.69084e-07
4.18159e-09
4.16514e-09
4.16384e-09
4.22619e-09
1.06176e-07
2.69077e-07
4.11198e-09
4.1649e-09
4.11137e-09
4.15888e-09
4.15044e-09
4.10404e-09
4.1442e-09
1.0621e-07
2.69121e-07
4.09807e-09
4.08494e-09
4.09027e-09
2.69067e-07
1.06183e-07
2.69074e-07
4.16442e-09
4.19473e-09
4.17202e-09
4.18299e-09
1.06193e-07
2.69064e-07
4.10948e-09
4.16024e-09
4.11266e-09
4.16296e-09
4.14273e-09
4.10966e-09
4.14954e-09
1.06211e-07
2.69115e-07
4.09117e-09
4.08822e-09
4.09501e-09
2.69058e-07
1.06185e-07
2.69082e-07
4.15435e-09
4.18113e-09
4.16829e-09
4.16467e-09
1.06187e-07
2.69112e-07
4.1121e-09
4.16333e-09
4.10928e-09
4.15866e-09
4.14746e-09
4.10941e-09
4.14548e-09
1.06212e-07
2.69123e-07
4.09509e-09
4.08419e-09
4.09069e-09
2.69065e-07
1.06182e-07
2.69095e-07
4.14818e-09
4.15483e-09
4.14389e-09
4.14742e-09
1.06198e-07
2.6911e-07
4.10871e-09
4.16261e-09
4.10424e-09
4.16325e-09
4.14769e-09
4.08534e-09
4.14554e-09
1.0621e-07
2.69119e-07
4.09464e-09
4.08785e-09
4.08837e-09
2.69067e-07
1.06184e-07
2.69071e-07
4.14337e-09
4.17794e-09
4.19976e-09
4.26437e-09
1.0623e-07
2.69147e-07
4.10128e-09
4.16393e-09
4.11704e-09
4.15753e-09
4.14426e-09
4.13232e-09
4.15955e-09
1.06211e-07
2.69119e-07
4.08572e-09
4.08589e-09
4.08156e-09
2.69078e-07
1.06222e-07
2.69141e-07
4.17633e-09
4.20217e-09
4.13905e-09
4.23435e-09
1.06169e-07
2.69113e-07
4.12355e-09
4.15799e-09
3.95122e-09
4.16282e-09
4.17304e-09
4.09886e-09
4.1489e-09
1.06213e-07
2.69124e-07
4.10038e-09
4.08338e-09
4.09174e-09
2.69069e-07
1.06177e-07
2.69103e-07
4.21256e-09
4.22345e-09
4.18271e-09
4.17725e-09
1.06175e-07
2.69098e-07
4.02889e-09
4.16013e-09
4.12377e-09
4.15955e-09
4.14672e-09
4.11832e-09
4.14532e-09
1.06212e-07
2.69122e-07
4.09197e-09
4.08647e-09
4.09242e-09
2.69068e-07
1.06205e-07
2.69102e-07
4.17504e-09
4.18159e-09
4.16356e-09
4.18338e-09
1.06183e-07
2.69099e-07
4.10862e-09
4.1609e-09
4.11328e-09
4.16116e-09
4.14561e-09
4.11321e-09
4.14677e-09
1.06213e-07
2.69123e-07
4.09397e-09
4.08703e-09
4.09282e-09
2.69066e-07
1.06204e-07
2.69099e-07
4.16867e-09
4.1853e-09
4.16195e-09
4.18465e-09
1.06182e-07
2.69096e-07
4.10879e-09
4.16202e-09
4.11264e-09
4.16232e-09
4.14683e-09
4.11481e-09
4.14699e-09
1.06212e-07
2.6912e-07
4.09512e-09
4.08892e-09
4.10102e-09
2.69065e-07
1.06205e-07
2.69102e-07
4.16755e-09
4.18571e-09
4.15881e-09
4.18202e-09
1.06183e-07
2.69099e-07
4.10718e-09
4.16237e-09
4.10954e-09
4.15963e-09
4.14775e-09
4.11167e-09
4.14493e-09
1.06213e-07
2.69123e-07
4.10377e-09
4.08604e-09
4.09634e-09
2.69067e-07
1.06203e-07
2.69105e-07
4.16855e-09
4.18457e-09
4.15833e-09
4.18207e-09
1.06183e-07
2.69099e-07
4.10821e-09
4.16119e-09
4.10905e-09
4.15992e-09
4.14386e-09
4.11333e-09
4.14692e-09
1.06213e-07
2.69123e-07
4.09829e-09
4.08662e-09
4.09576e-09
2.69066e-07
1.06204e-07
2.69098e-07
4.1648e-09
4.1829e-09
4.16287e-09
4.18569e-09
1.06183e-07
2.69095e-07
4.10449e-09
4.15971e-09
4.11356e-09
4.16338e-09
4.14682e-09
4.11497e-09
4.14724e-09
1.06213e-07
2.69119e-07
4.09864e-09
4.08886e-09
4.0975e-09
2.69065e-07
1.06204e-07
2.69103e-07
4.17091e-09
4.18733e-09
4.15832e-09
4.18201e-09
1.06183e-07
2.69098e-07
4.11055e-09
4.16406e-09
4.10903e-09
4.15971e-09
4.14623e-09
4.11295e-09
4.14736e-09
1.06213e-07
2.69122e-07
4.09862e-09
4.08691e-09
4.09765e-09
2.69064e-07
1.06204e-07
2.69103e-07
4.16691e-09
4.18464e-09
4.1597e-09
4.18268e-09
1.06183e-07
2.69099e-07
4.10658e-09
4.16136e-09
4.11041e-09
4.16039e-09
4.14717e-09
4.11228e-09
4.14508e-09
1.06213e-07
2.69123e-07
4.09957e-09
4.08625e-09
4.09541e-09
2.69068e-07
1.06204e-07
2.69102e-07
4.16667e-09
4.18345e-09
4.15994e-09
4.18333e-09
1.06183e-07
2.69098e-07
4.10636e-09
4.16017e-09
4.11062e-09
4.161e-09
4.14585e-09
4.11319e-09
4.14598e-09
1.06213e-07
2.69122e-07
4.09825e-09
4.08718e-09
4.09626e-09
2.69067e-07
1.06203e-07
2.69102e-07
4.16848e-09
4.18617e-09
4.16092e-09
4.18335e-09
1.06182e-07
2.69099e-07
4.10815e-09
4.16256e-09
4.11119e-09
4.16136e-09
4.14816e-09
4.11349e-09
4.14638e-09
1.06212e-07
2.69122e-07
4.10049e-09
4.08751e-09
4.09673e-09
2.69066e-07
1.06204e-07
2.691e-07
4.16812e-09
4.16943e-09
4.15982e-09
4.18276e-09
1.06183e-07
2.69088e-07
4.10758e-09
4.16177e-09
4.1106e-09
4.16075e-09
4.14632e-09
4.11622e-09
4.14582e-09
1.06213e-07
2.6912e-07
4.09869e-09
4.08707e-09
4.09612e-09
2.69066e-07
1.06204e-07
2.69104e-07
4.16907e-09
4.19112e-09
4.15792e-09
4.19028e-09
1.06184e-07
2.69105e-07
4.10844e-09
4.16126e-09
4.1087e-09
4.16035e-09
4.14506e-09
4.11499e-09
4.1472e-09
1.06213e-07
2.69121e-07
4.09744e-09
4.0875e-09
4.09753e-09
2.69065e-07
1.06204e-07
2.69103e-07
4.16716e-09
4.19132e-09
4.15999e-09
4.18916e-09
1.06179e-07
2.69107e-07
4.10687e-09
4.16176e-09
4.1107e-09
4.16024e-09
4.14528e-09
4.11392e-09
4.14501e-09
1.06213e-07
2.69123e-07
4.09765e-09
4.08696e-09
4.0958e-09
2.69068e-07
1.06204e-07
2.691e-07
4.16637e-09
4.19077e-09
4.16069e-09
4.18991e-09
1.06179e-07
2.69106e-07
4.10609e-09
4.16084e-09
4.11141e-09
4.1619e-09
4.14519e-09
4.1142e-09
4.14631e-09
1.06213e-07
2.69122e-07
4.0978e-09
4.08398e-09
4.09292e-09
2.69068e-07
1.06204e-07
2.69102e-07
4.16962e-09
4.19306e-09
4.15948e-09
4.18861e-09
1.06179e-07
2.69108e-07
4.1093e-09
4.16316e-09
4.11019e-09
4.16022e-09
4.14543e-09
4.1123e-09
4.1434e-09
1.06213e-07
2.69124e-07
4.09797e-09
4.08441e-09
4.0927e-09
2.69071e-07
1.06204e-07
2.69102e-07
4.16701e-09
4.18965e-09
4.15916e-09
4.18951e-09
1.06179e-07
2.69106e-07
4.10668e-09
4.15952e-09
4.10989e-09
4.16107e-09
4.14358e-09
4.11409e-09
4.14568e-09
1.06213e-07
2.69122e-07
4.09703e-09
4.08626e-09
4.09506e-09
2.69068e-07
1.06203e-07
2.69101e-07
4.16822e-09
4.19192e-09
4.1602e-09
4.19008e-09
1.06178e-07
2.69106e-07
4.10791e-09
4.16174e-09
4.11088e-09
4.16164e-09
4.1447e-09
4.11476e-09
4.14835e-09
1.06213e-07
2.69122e-07
4.0982e-09
4.08696e-09
4.09774e-09
2.69065e-07
1.06204e-07
2.69103e-07
4.1676e-09
4.19072e-09
4.15957e-09
4.18971e-09
1.06179e-07
2.69105e-07
4.10727e-09
4.16049e-09
4.11019e-09
4.16098e-09
4.14634e-09
4.11547e-09
4.14792e-09
1.06213e-07
2.69121e-07
4.0999e-09
4.08785e-09
4.0982e-09
2.69064e-07
1.06204e-07
2.69101e-07
4.16902e-09
4.19144e-09
4.16915e-09
4.1823e-09
1.06179e-07
2.69104e-07
4.10825e-09
4.16083e-09
4.10581e-09
4.15852e-09
4.1438e-09
4.11537e-09
4.11958e-09
1.06213e-07
2.69124e-07
4.09993e-09
4.08237e-09
4.07956e-09
2.69069e-07
1.06198e-07
2.69099e-07
4.16087e-09
4.18913e-09
4.10925e-09
4.18509e-09
1.06183e-07
2.69126e-07
4.09043e-09
4.15781e-09
4.08004e-09
4.1673e-09
4.11737e-09
4.10822e-09
4.19054e-09
1.06212e-07
2.69125e-07
4.00549e-09
4.08533e-09
4.08092e-09
2.69074e-07
1.06202e-07
2.69092e-07
4.13635e-09
4.14539e-09
4.16649e-09
4.1876e-09
1.06187e-07
2.69126e-07
3.99146e-09
4.17e-09
4.12792e-09
4.16314e-09
4.16297e-09
4.10709e-09
4.14826e-09
1.06212e-07
2.69122e-07
4.11826e-09
4.09457e-09
4.09806e-09
2.69067e-07
1.06194e-07
2.69089e-07
4.15922e-09
4.18103e-09
4.15181e-09
4.19597e-09
1.0623e-07
2.69123e-07
4.09021e-09
4.16303e-09
4.12324e-09
4.16156e-09
4.14833e-09
4.11379e-09
4.14726e-09
1.06212e-07
2.69122e-07
4.10118e-09
4.0938e-09
4.09618e-09
2.69066e-07
1.06192e-07
2.69086e-07
4.15639e-09
4.1884e-09
4.15271e-09
4.18308e-09
1.062e-07
2.69124e-07
4.09046e-09
4.16188e-09
4.12552e-09
4.1624e-09
4.1454e-09
4.10973e-09
4.14688e-09
1.06213e-07
2.69122e-07
4.09815e-09
4.09417e-09
4.09588e-09
2.69068e-07
1.06192e-07
2.69087e-07
4.1559e-09
4.18235e-09
4.15193e-09
4.18207e-09
1.06199e-07
2.69124e-07
4.09094e-09
4.16205e-09
4.12232e-09
4.16213e-09
4.14526e-09
4.11075e-09
4.14731e-09
1.06213e-07
2.69122e-07
4.09799e-09
4.09286e-09
4.0966e-09
2.69067e-07
1.06192e-07
2.69086e-07
4.15673e-09
4.18272e-09
4.15154e-09
4.18219e-09
1.06199e-07
2.69124e-07
4.09053e-09
4.16297e-09
4.12583e-09
4.16222e-09
4.14702e-09
4.1098e-09
4.14728e-09
1.06212e-07
2.69122e-07
4.10011e-09
4.09489e-09
4.099e-09
2.69065e-07
1.06192e-07
2.69087e-07
4.15613e-09
4.18105e-09
4.15132e-09
4.18127e-09
1.06199e-07
2.69124e-07
4.09146e-09
4.16164e-09
4.12581e-09
4.16205e-09
4.14627e-09
4.1098e-09
4.14678e-09
1.06213e-07
2.69122e-07
4.09738e-09
4.09516e-09
4.0978e-09
2.69068e-07
1.06193e-07
2.69086e-07
4.15521e-09
4.18031e-09
4.1522e-09
4.18238e-09
1.062e-07
2.69124e-07
4.0902e-09
4.16133e-09
4.12625e-09
4.16304e-09
4.14233e-09
4.10976e-09
4.14693e-09
1.06214e-07
2.69123e-07
4.1008e-09
4.08661e-09
4.09614e-09
2.69069e-07
1.06192e-07
2.69086e-07
4.15748e-09
4.18243e-09
4.15165e-09
4.18229e-09
1.06199e-07
2.69124e-07
4.09272e-09
4.16304e-09
4.1256e-09
4.16264e-09
4.14529e-09
4.10988e-09
4.14793e-09
1.06213e-07
2.69122e-07
4.09751e-09
4.08731e-09
4.09796e-09
2.69066e-07
1.06192e-07
2.69088e-07
4.15689e-09
4.18311e-09
4.15067e-09
4.18121e-09
1.06198e-07
2.69125e-07
4.09202e-09
4.16353e-09
4.12461e-09
4.1615e-09
4.14763e-09
4.10872e-09
4.14646e-09
1.06213e-07
2.69124e-07
4.10004e-09
4.0861e-09
4.09657e-09
2.69069e-07
1.06192e-07
2.69091e-07
4.15626e-09
4.18191e-09
4.15009e-09
4.18122e-09
1.06199e-07
2.69126e-07
4.09137e-09
4.16227e-09
4.12407e-09
4.16147e-09
4.14426e-09
4.10898e-09
4.14636e-09
1.06213e-07
2.69124e-07
4.09682e-09
4.08676e-09
4.09662e-09
2.6907e-07
1.06192e-07
2.69087e-07
4.15381e-09
4.1804e-09
4.15273e-09
4.18278e-09
1.06199e-07
2.69125e-07
4.08898e-09
4.16072e-09
4.12678e-09
4.16314e-09
4.14495e-09
4.11047e-09
4.14666e-09
1.06213e-07
2.69123e-07
4.10058e-09
4.08791e-09
4.09656e-09
2.69068e-07
1.06192e-07
2.69087e-07
4.15701e-09
4.18236e-09
4.15145e-09
4.18311e-09
1.06199e-07
2.69124e-07
4.09226e-09
4.16291e-09
4.12567e-09
4.16299e-09
4.1469e-09
4.11068e-09
4.14756e-09
1.06213e-07
2.69121e-07
4.0984e-09
4.08843e-09
4.09879e-09
2.69065e-07
1.06192e-07
2.69086e-07
4.15574e-09
4.18292e-09
4.15025e-09
4.18721e-09
1.06199e-07
2.69127e-07
4.09126e-09
4.16292e-09
4.11575e-09
4.16131e-09
4.14641e-09
4.11343e-09
4.14456e-09
1.06213e-07
2.69122e-07
4.09908e-09
4.08716e-09
4.09705e-09
2.69069e-07
1.06193e-07
2.69087e-07
4.15585e-09
4.19634e-09
4.14605e-09
4.17121e-09
1.06197e-07
2.69138e-07
4.11024e-09
4.16298e-09
4.10908e-09
4.16052e-09
4.14418e-09
4.11834e-09
4.1443e-09
1.06213e-07
2.69124e-07
4.09743e-09
4.08625e-09
4.0962e-09
2.6907e-07
1.06193e-07
2.69089e-07
4.15304e-09
4.1374e-09
4.15001e-09
4.17267e-09
1.06184e-07
2.69127e-07
4.10668e-09
4.16195e-09
4.10957e-09
4.16278e-09
4.14681e-09
4.10715e-09
4.14359e-09
1.06212e-07
2.69122e-07
4.09874e-09
4.08959e-09
4.08869e-09
2.69071e-07
1.06192e-07
2.69087e-07
4.15537e-09
4.1747e-09
4.15185e-09
4.178e-09
1.06197e-07
2.69127e-07
4.10546e-09
4.16432e-09
4.10737e-09
4.15741e-09
4.13733e-09
4.11536e-09
4.16803e-09
1.06212e-07
2.69117e-07
4.07442e-09
4.09177e-09
4.09121e-09
2.69077e-07
1.06193e-07
2.69086e-07
4.15554e-09
4.17785e-09
4.15288e-09
4.1794e-09
1.06197e-07
2.69127e-07
4.1025e-09
4.15711e-09
4.10772e-09
4.15617e-09
4.16894e-09
4.11597e-09
4.16982e-09
1.06215e-07
2.69117e-07
4.08824e-09
4.09106e-09
4.09267e-09
2.6908e-07
1.06193e-07
2.69085e-07
4.15676e-09
4.17778e-09
4.15292e-09
4.17944e-09
1.06197e-07
2.69127e-07
4.10333e-09
4.1557e-09
4.10767e-09
4.15602e-09
4.1679e-09
4.11569e-09
4.16791e-09
1.06216e-07
2.69117e-07
4.08717e-09
4.09076e-09
4.09079e-09
2.69084e-07
1.06192e-07
2.69085e-07
4.15775e-09
4.17972e-09
4.15284e-09
4.17888e-09
1.06196e-07
2.69129e-07
4.10427e-09
4.15751e-09
4.1076e-09
4.1555e-09
4.16911e-09
4.11416e-09
4.16581e-09
1.06215e-07
2.69118e-07
4.0885e-09
4.08854e-09
4.08916e-09
2.69087e-07
1.06193e-07
2.69083e-07
4.158e-09
4.17907e-09
4.15315e-09
4.17929e-09
1.06197e-07
2.69127e-07
4.10454e-09
4.15696e-09
4.10791e-09
4.15601e-09
4.16635e-09
4.11503e-09
4.16702e-09
1.06215e-07
2.69116e-07
4.08568e-09
4.08926e-09
4.08785e-09
2.69084e-07
1.06192e-07
2.69085e-07
4.15943e-09
4.18003e-09
4.15247e-09
4.17963e-09
1.06196e-07
2.69126e-07
4.1059e-09
4.15791e-09
4.10722e-09
4.15633e-09
4.16906e-09
4.11545e-09
4.16903e-09
1.06215e-07
2.69115e-07
4.09027e-09
4.09022e-09
4.0912e-09
2.69081e-07
1.06193e-07
2.69087e-07
4.15692e-09
4.1783e-09
4.15164e-09
4.17823e-09
1.06197e-07
2.69128e-07
4.10338e-09
4.15623e-09
4.10641e-09
4.15482e-09
4.168e-09
4.11467e-09
4.16761e-09
1.06216e-07
2.69117e-07
4.08703e-09
4.08964e-09
4.09027e-09
2.69082e-07
1.06193e-07
2.69086e-07
4.15715e-09
4.17938e-09
4.1522e-09
4.17792e-09
1.06196e-07
2.69129e-07
4.10363e-09
4.15724e-09
4.10697e-09
4.15459e-09
4.17088e-09
4.11484e-09
4.16793e-09
1.06215e-07
2.69118e-07
4.08996e-09
4.08978e-09
4.08983e-09
2.69083e-07
1.06192e-07
2.69085e-07
4.15853e-09
4.17942e-09
4.1521e-09
4.17931e-09
1.06196e-07
2.69125e-07
4.10502e-09
4.15725e-09
4.1067e-09
4.15591e-09
4.16954e-09
4.11575e-09
4.16968e-09
1.06215e-07
2.69115e-07
4.09003e-09
4.09092e-09
4.09372e-09
2.69077e-07
1.06193e-07
2.6909e-07
4.15762e-09
4.17948e-09
4.14988e-09
4.17756e-09
1.06196e-07
2.6913e-07
4.10461e-09
4.15739e-09
4.10181e-09
4.15406e-09
4.17037e-09
4.11435e-09
4.16624e-09
1.06215e-07
2.69119e-07
4.09084e-09
4.08941e-09
4.09025e-09
2.69085e-07
1.06193e-07
2.69086e-07
4.15554e-09
4.1777e-09
4.15297e-09
4.17962e-09
1.06196e-07
2.69128e-07
4.10268e-09
4.15551e-09
4.10479e-09
4.15612e-09
4.1687e-09
4.11561e-09
4.16673e-09
1.06215e-07
2.69117e-07
4.0891e-09
4.09067e-09
4.09069e-09
2.69086e-07
1.06193e-07
2.69083e-07
4.15691e-09
4.17805e-09
4.15316e-09
4.17977e-09
1.06197e-07
2.69127e-07
4.10394e-09
4.15587e-09
4.10479e-09
4.15655e-09
4.16865e-09
4.1154e-09
4.16875e-09
1.06215e-07
2.69117e-07
4.08896e-09
4.0904e-09
4.09243e-09
2.69083e-07
1.06193e-07
2.69085e-07
4.15798e-09
4.1798e-09
4.15289e-09
4.17867e-09
1.06196e-07
2.69127e-07
4.1047e-09
4.15814e-09
4.10381e-09
4.1576e-09
4.16914e-09
4.11495e-09
4.16797e-09
1.06215e-07
2.69118e-07
4.08916e-09
4.09191e-09
4.0895e-09
2.69087e-07
1.06193e-07
2.69089e-07
4.15718e-09
4.1775e-09
4.15064e-09
4.17858e-09
1.06197e-07
2.69128e-07
4.10319e-09
4.15887e-09
4.10132e-09
4.15882e-09
4.16798e-09
4.11474e-09
4.17328e-09
1.06216e-07
2.69112e-07
4.08388e-09
4.05092e-09
4.07381e-09
2.69076e-07
1.06193e-07
2.69079e-07
4.15682e-09
4.17922e-09
4.1569e-09
4.18186e-09
1.06196e-07
2.69124e-07
4.10302e-09
4.15849e-09
4.108e-09
4.15581e-09
4.17187e-09
4.11799e-09
4.16841e-09
1.06218e-07
2.69112e-07
4.07118e-09
4.08914e-09
4.09277e-09
2.69078e-07
1.06192e-07
2.69083e-07
4.1613e-09
4.18151e-09
4.15262e-09
4.17969e-09
1.06196e-07
2.69126e-07
4.10783e-09
4.15655e-09
4.1042e-09
4.15506e-09
4.17091e-09
4.11443e-09
4.16584e-09
1.06214e-07
2.69115e-07
4.08725e-09
4.08647e-09
4.07385e-09
2.69087e-07
1.06191e-07
2.69085e-07
4.1597e-09
4.18041e-09
4.15089e-09
4.17825e-09
1.06195e-07
2.69126e-07
4.1066e-09
4.15724e-09
4.10268e-09
4.15441e-09
4.16504e-09
4.11475e-09
4.16847e-09
1.06214e-07
2.69115e-07
4.09549e-09
4.08944e-09
4.08094e-09
2.69082e-07
1.06192e-07
2.69082e-07
4.15513e-09
4.1771e-09
4.15326e-09
4.1797e-09
1.06195e-07
2.69125e-07
4.10217e-09
4.15468e-09
4.10511e-09
4.15604e-09
4.16632e-09
4.11494e-09
4.16632e-09
1.06214e-07
2.69114e-07
4.10241e-09
4.09051e-09
4.08995e-09
2.69081e-07
1.06192e-07
2.69082e-07
4.15605e-09
4.17912e-09
4.15314e-09
4.18019e-09
1.06195e-07
2.69124e-07
4.1031e-09
4.15701e-09
4.10504e-09
4.15657e-09
4.16892e-09
4.11531e-09
4.16855e-09
1.06214e-07
2.69113e-07
4.08832e-09
4.09096e-09
4.09225e-09
2.69079e-07
1.06191e-07
2.69084e-07
4.15943e-09
4.18048e-09
4.15166e-09
4.17818e-09
1.06195e-07
2.69125e-07
4.1065e-09
4.15842e-09
4.10354e-09
4.15446e-09
4.17088e-09
4.11488e-09
4.16687e-09
1.06214e-07
2.69114e-07
4.09035e-09
4.09066e-09
4.09099e-09
2.6908e-07
1.06192e-07
2.69084e-07
4.15478e-09
4.17762e-09
4.15276e-09
4.18034e-09
1.06196e-07
2.69125e-07
4.10187e-09
4.15546e-09
4.10467e-09
4.15664e-09
4.16872e-09
4.11515e-09
4.16784e-09
1.06214e-07
2.69114e-07
4.08857e-09
4.09109e-09
4.09106e-09
2.6908e-07
1.06191e-07
2.69085e-07
4.15775e-09
4.17842e-09
4.15106e-09
4.17835e-09
1.06195e-07
2.69126e-07
4.10484e-09
4.15632e-09
4.10298e-09
4.15462e-09
4.1685e-09
4.11474e-09
4.16812e-09
1.06214e-07
2.69115e-07
4.08752e-09
4.09234e-09
4.09248e-09
2.6908e-07
1.06191e-07
2.69081e-07
4.15701e-09
4.1797e-09
4.15323e-09
4.17797e-09
1.06195e-07
2.69127e-07
4.10414e-09
4.15748e-09
4.10509e-09
4.1545e-09
4.17056e-09
4.11349e-09
4.16576e-09
1.06214e-07
2.69116e-07
4.09046e-09
4.08843e-09
4.08925e-09
2.69083e-07
1.06192e-07
2.69082e-07
4.15689e-09
4.17823e-09
4.15241e-09
4.18063e-09
1.06195e-07
2.69122e-07
4.10399e-09
4.15598e-09
4.1043e-09
4.15708e-09
4.16857e-09
4.117e-09
4.16924e-09
1.06214e-07
2.69111e-07
4.08853e-09
4.09212e-09
4.09283e-09
2.69076e-07
1.06192e-07
2.69084e-07
4.15723e-09
4.17923e-09
4.1516e-09
4.17785e-09
1.06196e-07
2.69126e-07
4.10431e-09
4.15698e-09
4.10345e-09
4.15428e-09
4.16918e-09
4.11406e-09
4.16654e-09
1.06215e-07
2.69115e-07
4.08922e-09
4.08923e-09
4.09017e-09
2.69081e-07
1.06192e-07
2.69086e-07
4.15588e-09
4.17842e-09
4.15188e-09
4.17834e-09
1.06195e-07
2.69127e-07
4.10292e-09
4.15616e-09
4.10378e-09
4.15476e-09
4.16897e-09
4.11554e-09
4.16743e-09
1.06214e-07
2.69116e-07
4.08898e-09
4.09067e-09
4.09104e-09
2.69081e-07
1.06191e-07
2.69082e-07
4.15683e-09
4.178e-09
4.15269e-09
4.17893e-09
1.06195e-07
2.69124e-07
4.10396e-09
4.15567e-09
4.10477e-09
4.15537e-09
4.16736e-09
4.11612e-09
4.16837e-09
1.06214e-07
2.69113e-07
4.0874e-09
4.09119e-09
4.09197e-09
2.69078e-07
1.06192e-07
2.69083e-07
4.15783e-09
4.17933e-09
4.15128e-09
4.17819e-09
1.06196e-07
2.69125e-07
4.1085e-09
4.15722e-09
4.11845e-09
4.15457e-09
4.16943e-09
4.1143e-09
4.16761e-09
1.06214e-07
2.69115e-07
4.08947e-09
4.0895e-09
4.09122e-09
2.6908e-07
1.0619e-07
2.69082e-07
4.15761e-09
4.17993e-09
4.15216e-09
4.17903e-09
1.06195e-07
2.69125e-07
4.08936e-09
4.15754e-09
4.11957e-09
4.15552e-09
4.16854e-09
4.1155e-09
4.16713e-09
1.06214e-07
2.69114e-07
4.08861e-09
4.09062e-09
4.09079e-09
2.69081e-07
1.0619e-07
2.69081e-07
4.15879e-09
4.17897e-09
4.15237e-09
4.17845e-09
1.06195e-07
2.69126e-07
4.09071e-09
4.15667e-09
4.11972e-09
4.15481e-09
4.16672e-09
4.11413e-09
4.16644e-09
1.06214e-07
2.69115e-07
4.08676e-09
4.08928e-09
4.09007e-09
2.69083e-07
1.0619e-07
2.69079e-07
4.15844e-09
4.17778e-09
4.15415e-09
4.18014e-09
1.06195e-07
2.69123e-07
4.09041e-09
4.15813e-09
4.1215e-09
4.1628e-09
4.16944e-09
4.11655e-09
4.16907e-09
1.06213e-07
2.69143e-07
4.08946e-09
4.09077e-09
4.09262e-09
2.69076e-07
1.06191e-07
2.69083e-07
4.15989e-09
4.18069e-09
4.15084e-09
4.17848e-09
1.06195e-07
2.69125e-07
4.09191e-09
4.15213e-09
4.11816e-09
4.16148e-09
4.17093e-09
4.11459e-09
4.16611e-09
1.06219e-07
2.69146e-07
4.09092e-09
4.08912e-09
4.08978e-09
2.69081e-07
1.06191e-07
2.69086e-07
4.15539e-09
4.17793e-09
4.15017e-09
4.17767e-09
1.06195e-07
2.69127e-07
4.08744e-09
4.14957e-09
4.11748e-09
4.16063e-09
4.16838e-09
4.11415e-09
4.16598e-09
1.06219e-07
2.69148e-07
4.08845e-09
4.08869e-09
4.08979e-09
2.69082e-07
1.0619e-07
2.69081e-07
4.15669e-09
4.17774e-09
4.15223e-09
4.18028e-09
1.06195e-07
2.69122e-07
4.08865e-09
4.14956e-09
4.11968e-09
4.1659e-09
4.1683e-09
4.11638e-09
4.16928e-09
1.06219e-07
2.69147e-07
4.08829e-09
4.09089e-09
4.09281e-09
2.69078e-07
1.06191e-07
2.69081e-07
4.15848e-09
4.17989e-09
4.151e-09
4.1808e-09
1.06196e-07
2.69124e-07
4.09068e-09
4.15126e-09
4.11949e-09
4.15543e-09
4.17031e-09
4.11383e-09
4.168e-09
1.06219e-07
2.69124e-07
4.09063e-09
4.0874e-09
4.09756e-09
2.69079e-07
1.0619e-07
2.69087e-07
4.15759e-09
4.18125e-09
4.15446e-09
4.18574e-09
1.06196e-07
2.69123e-07
4.09173e-09
4.15643e-09
4.12085e-09
4.17795e-09
4.17619e-09
4.12007e-09
4.15868e-09
1.06215e-07
2.6912e-07
4.1063e-09
4.10136e-09
4.10541e-09
2.69068e-07
1.06182e-07
2.69093e-07
4.16696e-09
4.17057e-09
4.58234e-09
4.55494e-09
1.0619e-07
2.69103e-07
4.08919e-09
4.18575e-09
4.56957e-09
4.59906e-09
4.1432e-09
4.42714e-09
4.49076e-09
1.06207e-07
2.69122e-07
4.07959e-09
4.46536e-09
4.46644e-09
2.69066e-07
1.06149e-07
2.68695e-07
5.16812e-09
5.21681e-09
2.37855e-08
2.38547e-08
1.06106e-07
2.6871e-07
5.14996e-09
5.12688e-09
2.383e-08
2.38693e-08
5.11846e-09
2.36871e-08
2.37868e-08
1.06156e-07
2.68664e-07
5.06687e-09
2.36997e-08
2.36664e-08
2.68701e-07
1.04811e-07
1.19474e-07
4.718e-08
4.71914e-08
2.20189e-07
2.19741e-07
1.04806e-07
1.19511e-07
4.70377e-08
4.72546e-08
2.19775e-07
2.19651e-07
4.72229e-08
2.20283e-07
2.2007e-07
1.04821e-07
1.19408e-07
4.7054e-08
2.19973e-07
2.19721e-07
1.19417e-07
5.39832e-07
2.39397e-07
2.39186e-07
5.3978e-07
2.39555e-07
2.39263e-07
5.08238e-07
5.08333e-07
5.08285e-07
2.39417e-07
5.39748e-07
2.39551e-07
5.47657e-08
2.46508e-07
1.6332e-07
1.63342e-07
5.27588e-07
3.35803e-07
5.51905e-07
2.20016e-07
5.2754e-07
3.35833e-07
2.20026e-07
5.51748e-07
4.44667e-07
4.75041e-07
4.74942e-07
3.43565e-06
0.000120057
3.37062e-06
0.000121453
0.000240636
0.000247374
3.43621e-06
0.000120074
3.37148e-06
0.000121471
1.26214e-06
1.26152e-06
1.26182e-06
1.75662e-07
1.75583e-07
1.75625e-07
1.7569e-07
2.78529e-07
5.47808e-06
9.26261e-07
7.73078e-07
1.79953e-07
4.04603e-06
6.19817e-07
0.000240628
0.00024736
2.77919e-07
9.25491e-07
5.47696e-06
7.72981e-07
1.79846e-07
6.19553e-07
4.04519e-06
8.03935e-06
8.0403e-06
2.69433e-07
8.74911e-06
8.75087e-06
3.29395e-06
0.000120788
3.28577e-06
0.00012078
0.000248107
0.000248098
3.29441e-06
0.000120805
3.28621e-06
0.000120796
8.48971e-08
8.48889e-08
8.49321e-08
1.19023e-08