/*--------------------------------*- C++ -*----------------------------------*\
| =========                 |                                                 |
| \\      /  F ield         | OpenFOAM: The Open Source CFD Toolbox           |
|  \\    /   O peration     | Version:  v1912                                 |
|   \\  /    A nd           | Website:  www.openfoam.com                      |
|    \\/     M anipulation  |                                                 |
\*---------------------------------------------------------------------------*/
FoamFile
{
    version     2.0;
    format      ascii;
    class       volScalarField;
    location    "1.6";
    object      p;
}
// * * * * * * * * * * * * * * * * * * * * * * * * * * * * * * * * * * * * * //

dimensions      [0 2 -2 0 0 0 0];


internalField   nonuniform List<scalar> 
171728
(
0.0207586
0.0207606
0.0207606
0.020777
0.0205414
0.0205414
0.0205414
0.0205549
0.0203213
0.0203212
0.0203212
0.0203347
0.0201012
0.020101
0.020101
0.0201145
0.019881
0.0198809
0.0198809
0.0198943
0.0196608
0.0196607
0.0196607
0.0196742
0.0194407
0.0194405
0.0194405
0.019454
0.0192205
0.0192204
0.0192204
0.0192338
0.0190003
0.0190002
0.0190002
0.0190137
0.0187801
0.01878
0.01878
0.0187935
0.01856
0.0185598
0.0185598
0.0185733
0.0183398
0.0183397
0.0183397
0.0183531
0.0181196
0.0181195
0.0181195
0.018133
0.0178994
0.0178993
0.0178993
0.0179128
0.0176793
0.0176792
0.0176792
0.0176926
0.0174591
0.017459
0.017459
0.0174725
0.0172389
0.0172388
0.0172388
0.0172523
0.0170188
0.0170186
0.0170186
0.0170321
0.0167986
0.0167985
0.0167985
0.0168119
0.0165784
0.0165783
0.0165783
0.0165918
0.0163583
0.0163581
0.0163581
0.0163716
0.0161381
0.016138
0.016138
0.0161514
0.0159179
0.0159178
0.0159178
0.0159313
0.0156977
0.0156976
0.0156976
0.0157111
0.0154776
0.0154775
0.0154775
0.0154909
0.0152574
0.0152573
0.0152573
0.0152708
0.0150372
0.0150371
0.0150371
0.0150506
0.0148171
0.0148169
0.0148169
0.0148304
0.0145969
0.0145968
0.0145968
0.0146102
0.0143767
0.0143766
0.0143766
0.0143901
0.0141565
0.0141564
0.0141564
0.0141699
0.0139364
0.0139362
0.0139362
0.0139497
0.0137162
0.0137161
0.0137161
0.0137295
0.013496
0.0134959
0.0134959
0.0135094
0.0132759
0.0132757
0.0132757
0.0132892
0.0130557
0.0130556
0.0130556
0.013069
0.0128355
0.0128354
0.0128354
0.0128489
0.0126153
0.0126152
0.0126152
0.0126287
0.0123952
0.0123951
0.0123951
0.0124085
0.012175
0.0121749
0.0121749
0.0121884
0.0119548
0.0119547
0.0119547
0.0119682
0.0117347
0.0117345
0.0117345
0.011748
0.0115145
0.0115144
0.0115144
0.0115278
0.0112943
0.0112942
0.0112942
0.0113077
0.0110741
0.011074
0.011074
0.0110875
0.010854
0.0108538
0.0108538
0.0108673
0.0106338
0.0106337
0.0106337
0.0106471
0.0104136
0.0104135
0.0104135
0.010427
0.0101934
0.0101933
0.0101933
0.0102068
0.00997327
0.00997315
0.00997315
0.00998662
0.0097531
0.00975298
0.00975298
0.00976645
0.00953293
0.00953281
0.00953281
0.00954628
0.00931276
0.00931264
0.00931264
0.00932611
0.00909259
0.00909247
0.00909247
0.00910594
0.00887242
0.0088723
0.0088723
0.00888577
0.00865225
0.00865213
0.00865213
0.0086656
0.00843208
0.00843196
0.00843196
0.00844543
0.00821191
0.00821179
0.00821179
0.00822526
0.00799174
0.00799162
0.00799162
0.00800509
0.00777157
0.00777145
0.00777145
0.00778492
0.00755139
0.00755128
0.00755128
0.00756474
0.00733122
0.0073311
0.0073311
0.00734457
0.00711105
0.00711093
0.00711093
0.0071244
0.00689088
0.00689076
0.00689076
0.00690422
0.0066707
0.00667058
0.00667058
0.00668405
0.00645053
0.00645041
0.00645041
0.00646388
0.00623036
0.00623024
0.00623024
0.00624371
0.00601019
0.00601007
0.00601007
0.00602354
0.00579002
0.0057899
0.0057899
0.00580337
0.00556985
0.00556973
0.00556973
0.0055832
0.00534968
0.00534956
0.00534956
0.00536303
0.00512951
0.00512939
0.0051294
0.00514286
0.00490934
0.00490923
0.00490923
0.00492269
0.00468917
0.00468905
0.00468906
0.00470252
0.004469
0.00446888
0.00446888
0.00448235
0.00424883
0.00424871
0.00424871
0.00426218
0.00402866
0.00402854
0.00402854
0.00404201
0.00380849
0.00380837
0.00380837
0.00382184
0.00358831
0.00358819
0.00358819
0.00360166
0.00336814
0.00336802
0.00336802
0.00338149
0.00314797
0.00314785
0.00314785
0.00316131
0.00292779
0.00292767
0.00292767
0.00294114
0.00270762
0.0027075
0.0027075
0.00272097
0.00248745
0.00248733
0.00248733
0.0025008
0.00226728
0.00226716
0.00226716
0.00228063
0.00204711
0.00204699
0.00204699
0.00206046
0.00182694
0.00182682
0.00182682
0.00184029
0.00160677
0.00160665
0.00160665
0.00162012
0.0013866
0.00138648
0.00138648
0.00139995
0.00116643
0.00116631
0.00116631
0.00117978
0.000946258
0.000946139
0.000946139
0.000959607
0.000726086
0.000725968
0.000725967
0.000739436
0.000505929
0.000505805
0.000505804
0.000519265
0.000286588
0.000285938
0.000285933
0.000299179
8.35052e-05
8.85569e-05
8.85489e-05
8.81432e-05
0.0208062
0.0208005
0.0208005
0.0208062
0.0208005
0.0208006
0.0208107
0.0208107
0.0208107
0.0208107
0.0208005
0.0208006
0.0208062
0.0208006
0.0208005
0.0208062
0.020777
0.020583
0.0207606
0.0207606
0.0205964
0.0205964
0.020777
0.020583
0.0207606
0.0207606
0.0205964
0.0205964
0.0207606
0.0205964
0.0205964
0.020777
0.020583
0.0207606
0.0205964
0.0205964
0.020583
0.0205549
0.0203629
0.0205414
0.0205414
0.0203763
0.0203763
0.0205549
0.0203629
0.0205414
0.0205414
0.0203763
0.0203763
0.0205414
0.0203763
0.0203763
0.0205549
0.0203629
0.0205414
0.0203763
0.0203763
0.0203629
0.0203347
0.0201427
0.0203212
0.0203212
0.0201561
0.0201561
0.0203347
0.0201427
0.0203212
0.0203212
0.0201561
0.0201561
0.0203212
0.0201561
0.0201561
0.0203347
0.0201427
0.0203212
0.0201561
0.0201561
0.0201427
0.0201145
0.0199225
0.020101
0.020101
0.0199359
0.0199359
0.0201145
0.0199225
0.020101
0.020101
0.0199359
0.0199359
0.020101
0.0199359
0.0199359
0.0201145
0.0199225
0.020101
0.0199359
0.0199359
0.0199225
0.0198943
0.0197024
0.0198809
0.0198809
0.0197158
0.0197158
0.0198943
0.0197024
0.0198809
0.0198809
0.0197158
0.0197158
0.0198809
0.0197158
0.0197158
0.0198943
0.0197024
0.0198809
0.0197158
0.0197158
0.0197024
0.0196742
0.0194822
0.0196607
0.0196607
0.0194956
0.0194956
0.0196742
0.0194822
0.0196607
0.0196607
0.0194956
0.0194956
0.0196607
0.0194956
0.0194956
0.0196742
0.0194822
0.0196607
0.0194956
0.0194956
0.0194822
0.019454
0.019262
0.0194405
0.0194405
0.0192754
0.0192754
0.019454
0.019262
0.0194405
0.0194405
0.0192754
0.0192754
0.0194405
0.0192754
0.0192754
0.019454
0.019262
0.0194405
0.0192754
0.0192754
0.019262
0.0192338
0.0190418
0.0192204
0.0192204
0.0190552
0.0190552
0.0192338
0.0190418
0.0192204
0.0192204
0.0190552
0.0190552
0.0192204
0.0190552
0.0190552
0.0192338
0.0190418
0.0192204
0.0190552
0.0190552
0.0190418
0.0190137
0.0188217
0.0190002
0.0190002
0.0188351
0.0188351
0.0190137
0.0188217
0.0190002
0.0190002
0.0188351
0.0188351
0.0190002
0.0188351
0.0188351
0.0190137
0.0188217
0.0190002
0.0188351
0.0188351
0.0188217
0.0187935
0.0186015
0.01878
0.01878
0.0186149
0.0186149
0.0187935
0.0186015
0.01878
0.01878
0.0186149
0.0186149
0.01878
0.0186149
0.0186149
0.0187935
0.0186015
0.01878
0.0186149
0.0186149
0.0186015
0.0185733
0.0183813
0.0185598
0.0185598
0.0183947
0.0183947
0.0185733
0.0183813
0.0185598
0.0185598
0.0183947
0.0183947
0.0185598
0.0183947
0.0183947
0.0185733
0.0183813
0.0185598
0.0183947
0.0183947
0.0183813
0.0183531
0.0181612
0.0183397
0.0183397
0.0181745
0.0181745
0.0183531
0.0181612
0.0183397
0.0183397
0.0181745
0.0181745
0.0183397
0.0181745
0.0181745
0.0183531
0.0181612
0.0183397
0.0181745
0.0181745
0.0181612
0.018133
0.017941
0.0181195
0.0181195
0.0179544
0.0179544
0.018133
0.017941
0.0181195
0.0181195
0.0179544
0.0179544
0.0181195
0.0179544
0.0179544
0.018133
0.017941
0.0181195
0.0179544
0.0179544
0.017941
0.0179128
0.0177208
0.0178993
0.0178993
0.0177342
0.0177342
0.0179128
0.0177208
0.0178993
0.0178993
0.0177342
0.0177342
0.0178993
0.0177342
0.0177342
0.0179128
0.0177208
0.0178993
0.0177342
0.0177342
0.0177208
0.0176926
0.0175006
0.0176792
0.0176792
0.017514
0.017514
0.0176926
0.0175006
0.0176792
0.0176792
0.017514
0.017514
0.0176792
0.017514
0.017514
0.0176926
0.0175006
0.0176792
0.017514
0.017514
0.0175006
0.0174725
0.0172805
0.017459
0.017459
0.0172939
0.0172939
0.0174725
0.0172805
0.017459
0.017459
0.0172939
0.0172939
0.017459
0.0172939
0.0172939
0.0174725
0.0172805
0.017459
0.0172939
0.0172939
0.0172805
0.0172523
0.0170603
0.0172388
0.0172388
0.0170737
0.0170737
0.0172523
0.0170603
0.0172388
0.0172388
0.0170737
0.0170737
0.0172388
0.0170737
0.0170737
0.0172523
0.0170603
0.0172388
0.0170737
0.0170737
0.0170603
0.0170321
0.0168401
0.0170186
0.0170186
0.0168535
0.0168535
0.0170321
0.0168401
0.0170186
0.0170186
0.0168535
0.0168535
0.0170186
0.0168535
0.0168535
0.0170321
0.0168401
0.0170186
0.0168535
0.0168535
0.0168401
0.0168119
0.01662
0.0167985
0.0167985
0.0166333
0.0166333
0.0168119
0.01662
0.0167985
0.0167985
0.0166333
0.0166333
0.0167985
0.0166333
0.0166333
0.0168119
0.01662
0.0167985
0.0166333
0.0166333
0.01662
0.0165918
0.0163998
0.0165783
0.0165783
0.0164132
0.0164132
0.0165918
0.0163998
0.0165783
0.0165783
0.0164132
0.0164132
0.0165783
0.0164132
0.0164132
0.0165918
0.0163998
0.0165783
0.0164132
0.0164132
0.0163998
0.0163716
0.0161796
0.0163581
0.0163581
0.016193
0.016193
0.0163716
0.0161796
0.0163581
0.0163581
0.016193
0.016193
0.0163581
0.016193
0.016193
0.0163716
0.0161796
0.0163581
0.016193
0.016193
0.0161796
0.0161514
0.0159594
0.016138
0.016138
0.0159728
0.0159728
0.0161514
0.0159594
0.016138
0.016138
0.0159728
0.0159728
0.016138
0.0159728
0.0159728
0.0161514
0.0159594
0.016138
0.0159728
0.0159728
0.0159594
0.0159313
0.0157393
0.0159178
0.0159178
0.0157527
0.0157527
0.0159313
0.0157393
0.0159178
0.0159178
0.0157527
0.0157527
0.0159178
0.0157527
0.0157527
0.0159313
0.0157393
0.0159178
0.0157527
0.0157527
0.0157393
0.0157111
0.0155191
0.0156976
0.0156976
0.0155325
0.0155325
0.0157111
0.0155191
0.0156976
0.0156976
0.0155325
0.0155325
0.0156976
0.0155325
0.0155325
0.0157111
0.0155191
0.0156976
0.0155325
0.0155325
0.0155191
0.0154909
0.0152989
0.0154775
0.0154775
0.0153123
0.0153123
0.0154909
0.0152989
0.0154775
0.0154775
0.0153123
0.0153123
0.0154775
0.0153123
0.0153123
0.0154909
0.0152989
0.0154775
0.0153123
0.0153123
0.0152989
0.0152708
0.0150788
0.0152573
0.0152573
0.0150922
0.0150922
0.0152708
0.0150788
0.0152573
0.0152573
0.0150922
0.0150922
0.0152573
0.0150922
0.0150922
0.0152708
0.0150788
0.0152573
0.0150922
0.0150922
0.0150788
0.0150506
0.0148586
0.0150371
0.0150371
0.014872
0.014872
0.0150506
0.0148586
0.0150371
0.0150371
0.014872
0.014872
0.0150371
0.014872
0.014872
0.0150506
0.0148586
0.0150371
0.014872
0.014872
0.0148586
0.0148304
0.0146384
0.0148169
0.0148169
0.0146518
0.0146518
0.0148304
0.0146384
0.0148169
0.0148169
0.0146518
0.0146518
0.0148169
0.0146518
0.0146518
0.0148304
0.0146384
0.0148169
0.0146518
0.0146518
0.0146384
0.0146102
0.0144182
0.0145968
0.0145968
0.0144316
0.0144316
0.0146102
0.0144182
0.0145968
0.0145968
0.0144316
0.0144316
0.0145968
0.0144316
0.0144316
0.0146102
0.0144182
0.0145968
0.0144316
0.0144316
0.0144182
0.0143901
0.0141981
0.0143766
0.0143766
0.0142115
0.0142115
0.0143901
0.0141981
0.0143766
0.0143766
0.0142115
0.0142115
0.0143766
0.0142115
0.0142115
0.0143901
0.0141981
0.0143766
0.0142115
0.0142115
0.0141981
0.0141699
0.0139779
0.0141564
0.0141564
0.0139913
0.0139913
0.0141699
0.0139779
0.0141564
0.0141564
0.0139913
0.0139913
0.0141564
0.0139913
0.0139913
0.0141699
0.0139779
0.0141564
0.0139913
0.0139913
0.0139779
0.0139497
0.0137577
0.0139362
0.0139362
0.0137711
0.0137711
0.0139497
0.0137577
0.0139362
0.0139362
0.0137711
0.0137711
0.0139362
0.0137711
0.0137711
0.0139497
0.0137577
0.0139362
0.0137711
0.0137711
0.0137577
0.0137295
0.0135376
0.0137161
0.0137161
0.0135509
0.0135509
0.0137295
0.0135376
0.0137161
0.0137161
0.0135509
0.0135509
0.0137161
0.0135509
0.0135509
0.0137295
0.0135376
0.0137161
0.0135509
0.0135509
0.0135376
0.0135094
0.0133174
0.0134959
0.0134959
0.0133308
0.0133308
0.0135094
0.0133174
0.0134959
0.0134959
0.0133308
0.0133308
0.0134959
0.0133308
0.0133308
0.0135094
0.0133174
0.0134959
0.0133308
0.0133308
0.0133174
0.0132892
0.0130972
0.0132757
0.0132757
0.0131106
0.0131106
0.0132892
0.0130972
0.0132757
0.0132757
0.0131106
0.0131106
0.0132757
0.0131106
0.0131106
0.0132892
0.0130972
0.0132757
0.0131106
0.0131106
0.0130972
0.013069
0.012877
0.0130556
0.0130556
0.0128904
0.0128904
0.013069
0.012877
0.0130556
0.0130556
0.0128904
0.0128904
0.0130556
0.0128904
0.0128904
0.013069
0.012877
0.0130556
0.0128904
0.0128904
0.012877
0.0128489
0.0126569
0.0128354
0.0128354
0.0126703
0.0126703
0.0128489
0.0126569
0.0128354
0.0128354
0.0126703
0.0126703
0.0128354
0.0126703
0.0126703
0.0128489
0.0126569
0.0128354
0.0126703
0.0126703
0.0126569
0.0126287
0.0124367
0.0126152
0.0126152
0.0124501
0.0124501
0.0126287
0.0124367
0.0126152
0.0126152
0.0124501
0.0124501
0.0126152
0.0124501
0.0124501
0.0126287
0.0124367
0.0126152
0.0124501
0.0124501
0.0124367
0.0124085
0.0122165
0.0123951
0.0123951
0.0122299
0.0122299
0.0124085
0.0122165
0.0123951
0.0123951
0.0122299
0.0122299
0.0123951
0.0122299
0.0122299
0.0124085
0.0122165
0.0123951
0.0122299
0.0122299
0.0122165
0.0121884
0.0119964
0.0121749
0.0121749
0.0120098
0.0120098
0.0121884
0.0119964
0.0121749
0.0121749
0.0120098
0.0120098
0.0121749
0.0120098
0.0120098
0.0121884
0.0119964
0.0121749
0.0120098
0.0120098
0.0119964
0.0119682
0.0117762
0.0119547
0.0119547
0.0117896
0.0117896
0.0119682
0.0117762
0.0119547
0.0119547
0.0117896
0.0117896
0.0119547
0.0117896
0.0117896
0.0119682
0.0117762
0.0119547
0.0117896
0.0117896
0.0117762
0.011748
0.011556
0.0117345
0.0117345
0.0115694
0.0115694
0.011748
0.011556
0.0117345
0.0117345
0.0115694
0.0115694
0.0117345
0.0115694
0.0115694
0.011748
0.011556
0.0117345
0.0115694
0.0115694
0.011556
0.0115278
0.0113358
0.0115144
0.0115144
0.0113492
0.0113492
0.0115278
0.0113358
0.0115144
0.0115144
0.0113492
0.0113492
0.0115144
0.0113492
0.0113492
0.0115278
0.0113358
0.0115144
0.0113492
0.0113492
0.0113358
0.0113077
0.0111157
0.0112942
0.0112942
0.0111291
0.0111291
0.0113077
0.0111157
0.0112942
0.0112942
0.0111291
0.0111291
0.0112942
0.0111291
0.0111291
0.0113077
0.0111157
0.0112942
0.0111291
0.0111291
0.0111157
0.0110875
0.0108955
0.011074
0.011074
0.0109089
0.0109089
0.0110875
0.0108955
0.011074
0.011074
0.0109089
0.0109089
0.011074
0.0109089
0.0109089
0.0110875
0.0108955
0.011074
0.0109089
0.0109089
0.0108955
0.0108673
0.0106753
0.0108538
0.0108538
0.0106887
0.0106887
0.0108673
0.0106753
0.0108538
0.0108538
0.0106887
0.0106887
0.0108538
0.0106887
0.0106887
0.0108673
0.0106753
0.0108538
0.0106887
0.0106887
0.0106753
0.0106471
0.0104552
0.0106337
0.0106337
0.0104685
0.0104685
0.0106471
0.0104552
0.0106337
0.0106337
0.0104685
0.0104685
0.0106337
0.0104685
0.0104685
0.0106471
0.0104552
0.0106337
0.0104685
0.0104685
0.0104552
0.010427
0.010235
0.0104135
0.0104135
0.0102484
0.0102484
0.010427
0.010235
0.0104135
0.0104135
0.0102484
0.0102484
0.0104135
0.0102484
0.0102484
0.010427
0.010235
0.0104135
0.0102484
0.0102484
0.010235
0.0102068
0.0100148
0.0101933
0.0101933
0.0100282
0.0100282
0.0102068
0.0100148
0.0101933
0.0101933
0.0100282
0.0100282
0.0101933
0.0100282
0.0100282
0.0102068
0.0100148
0.0101933
0.0100282
0.0100282
0.0100148
0.00998662
0.00979463
0.00997315
0.00997315
0.00980803
0.00980803
0.00998662
0.00979463
0.00997315
0.00997315
0.00980803
0.00980803
0.00997315
0.00980803
0.00980803
0.00998662
0.00979463
0.00997315
0.00980803
0.00980803
0.00979463
0.00976645
0.00957446
0.00975298
0.00975298
0.00958785
0.00958785
0.00976645
0.00957446
0.00975298
0.00975298
0.00958785
0.00958786
0.00975298
0.00958785
0.00958786
0.00976645
0.00957446
0.00975298
0.00958786
0.00958786
0.00957446
0.00954628
0.00935429
0.00953281
0.00953281
0.00936769
0.00936768
0.00954628
0.00935429
0.00953281
0.00953281
0.00936768
0.00936769
0.00953281
0.00936768
0.00936769
0.00954628
0.00935429
0.00953281
0.00936769
0.00936769
0.00935429
0.00932611
0.00913412
0.00931264
0.00931264
0.00914752
0.00914752
0.00932611
0.00913412
0.00931264
0.00931264
0.00914752
0.00914752
0.00931264
0.00914752
0.00914752
0.00932611
0.00913413
0.00931264
0.00914752
0.00914752
0.00913412
0.00910594
0.00891396
0.00909247
0.00909247
0.00892735
0.00892735
0.00910594
0.00891396
0.00909247
0.00909247
0.00892735
0.00892735
0.00909247
0.00892735
0.00892735
0.00910594
0.00891396
0.00909247
0.00892735
0.00892735
0.00891396
0.00888577
0.00869379
0.0088723
0.0088723
0.00870718
0.00870718
0.00888577
0.00869379
0.0088723
0.0088723
0.00870718
0.00870718
0.0088723
0.00870718
0.00870718
0.00888577
0.00869379
0.0088723
0.00870718
0.00870718
0.00869379
0.0086656
0.00847362
0.00865213
0.00865213
0.00848701
0.00848701
0.0086656
0.00847362
0.00865213
0.00865213
0.00848701
0.00848701
0.00865213
0.00848701
0.00848701
0.0086656
0.00847362
0.00865213
0.00848701
0.00848701
0.00847362
0.00844543
0.00825344
0.00843196
0.00843196
0.00826684
0.00826684
0.00844543
0.00825345
0.00843196
0.00843196
0.00826684
0.00826684
0.00843196
0.00826684
0.00826684
0.00844543
0.00825345
0.00843196
0.00826684
0.00826684
0.00825345
0.00822526
0.00803327
0.00821179
0.00821179
0.00804666
0.00804666
0.00822526
0.00803327
0.00821179
0.00821179
0.00804666
0.00804666
0.00821179
0.00804666
0.00804666
0.00822526
0.00803327
0.00821179
0.00804666
0.00804666
0.00803327
0.00800509
0.0078131
0.00799162
0.00799162
0.00782649
0.00782649
0.00800509
0.0078131
0.00799162
0.00799162
0.00782649
0.00782649
0.00799162
0.00782649
0.00782649
0.00800509
0.0078131
0.00799162
0.00782649
0.00782649
0.0078131
0.00778492
0.00759293
0.00777145
0.00777145
0.00760632
0.00760632
0.00778492
0.00759293
0.00777145
0.00777145
0.00760632
0.00760632
0.00777145
0.00760632
0.00760632
0.00778492
0.00759293
0.00777145
0.00760632
0.00760632
0.00759293
0.00756474
0.00737275
0.00755128
0.00755128
0.00738615
0.00738615
0.00756474
0.00737275
0.00755128
0.00755128
0.00738615
0.00738615
0.00755128
0.00738615
0.00738615
0.00756474
0.00737275
0.00755128
0.00738615
0.00738615
0.00737275
0.00734457
0.00715258
0.0073311
0.0073311
0.00716597
0.00716597
0.00734457
0.00715258
0.0073311
0.0073311
0.00716597
0.00716597
0.0073311
0.00716597
0.00716597
0.00734457
0.00715258
0.0073311
0.00716597
0.00716597
0.00715258
0.0071244
0.00693241
0.00711093
0.00711093
0.0069458
0.0069458
0.0071244
0.00693241
0.00711093
0.00711093
0.0069458
0.0069458
0.00711093
0.0069458
0.0069458
0.0071244
0.00693241
0.00711093
0.0069458
0.0069458
0.00693241
0.00690422
0.00671224
0.00689076
0.00689076
0.00672563
0.00672563
0.00690423
0.00671224
0.00689076
0.00689076
0.00672563
0.00672563
0.00689076
0.00672563
0.00672563
0.00690422
0.00671224
0.00689076
0.00672563
0.00672563
0.00671224
0.00668405
0.00649206
0.00667058
0.00667058
0.00650546
0.00650545
0.00668405
0.00649206
0.00667058
0.00667058
0.00650545
0.00650545
0.00667058
0.00650545
0.00650546
0.00668405
0.00649206
0.00667058
0.00650546
0.00650545
0.00649206
0.00646388
0.00627189
0.00645041
0.00645041
0.00628528
0.00628528
0.00646388
0.00627189
0.00645041
0.00645041
0.00628528
0.00628528
0.00645041
0.00628528
0.00628528
0.00646388
0.00627189
0.00645041
0.00628528
0.00628528
0.00627189
0.00624371
0.00605172
0.00623024
0.00623024
0.00606511
0.00606511
0.00624371
0.00605172
0.00623024
0.00623024
0.00606511
0.00606511
0.00623024
0.00606511
0.00606511
0.00624371
0.00605172
0.00623024
0.00606511
0.00606511
0.00605172
0.00602354
0.00583155
0.00601007
0.00601007
0.00584494
0.00584494
0.00602354
0.00583155
0.00601007
0.00601007
0.00584494
0.00584494
0.00601007
0.00584494
0.00584494
0.00602354
0.00583155
0.00601007
0.00584494
0.00584494
0.00583155
0.00580337
0.00561138
0.0057899
0.0057899
0.00562477
0.00562477
0.00580337
0.00561138
0.0057899
0.0057899
0.00562477
0.00562477
0.0057899
0.00562477
0.00562478
0.00580337
0.00561138
0.0057899
0.00562477
0.00562477
0.00561138
0.0055832
0.00539122
0.00556973
0.00556973
0.00540461
0.00540461
0.0055832
0.00539122
0.00556973
0.00556973
0.00540461
0.00540461
0.00556973
0.00540461
0.00540461
0.0055832
0.00539122
0.00556973
0.00540461
0.00540461
0.00539122
0.00536303
0.00517105
0.00534956
0.00534956
0.00518444
0.00518444
0.00536303
0.00517105
0.00534956
0.00534956
0.00518444
0.00518444
0.00534956
0.00518444
0.00518444
0.00536303
0.00517105
0.00534956
0.00518444
0.00518444
0.00517105
0.00514286
0.00495088
0.0051294
0.00512939
0.00496427
0.00496427
0.00514286
0.00495088
0.00512939
0.00512939
0.00496427
0.00496427
0.0051294
0.00496427
0.00496427
0.00514286
0.00495088
0.00512939
0.00496427
0.00496427
0.00495088
0.00492269
0.00473071
0.00490923
0.00490922
0.0047441
0.0047441
0.00492269
0.00473071
0.00490922
0.00490923
0.0047441
0.0047441
0.00490923
0.0047441
0.0047441
0.00492269
0.00473071
0.00490923
0.0047441
0.0047441
0.00473071
0.00470252
0.00451054
0.00468906
0.00468905
0.00452393
0.00452393
0.00470252
0.00451054
0.00468905
0.00468906
0.00452393
0.00452393
0.00468906
0.00452393
0.00452393
0.00470252
0.00451054
0.00468905
0.00452393
0.00452393
0.00451054
0.00448235
0.00429036
0.00446888
0.00446888
0.00430376
0.00430375
0.00448235
0.00429036
0.00446888
0.00446888
0.00430375
0.00430376
0.00446888
0.00430376
0.00430376
0.00448235
0.00429036
0.00446888
0.00430376
0.00430375
0.00429036
0.00426218
0.00407019
0.00424871
0.00424871
0.00408358
0.00408358
0.00426218
0.00407019
0.00424871
0.00424871
0.00408358
0.00408358
0.00424871
0.00408358
0.00408358
0.00426218
0.00407019
0.00424871
0.00408358
0.00408358
0.00407019
0.00404201
0.00385002
0.00402854
0.00402854
0.00386341
0.00386341
0.00404201
0.00385002
0.00402854
0.00402854
0.00386341
0.00386341
0.00402854
0.00386341
0.00386341
0.00404201
0.00385002
0.00402854
0.00386341
0.00386341
0.00385002
0.00382184
0.00362985
0.00380837
0.00380837
0.00364324
0.00364324
0.00382184
0.00362985
0.00380837
0.00380837
0.00364324
0.00364324
0.00380837
0.00364324
0.00364324
0.00382184
0.00362985
0.00380837
0.00364324
0.00364324
0.00362985
0.00360166
0.00340967
0.00358819
0.00358819
0.00342306
0.00342306
0.00360166
0.00340967
0.00358819
0.00358819
0.00342306
0.00342306
0.00358819
0.00342306
0.00342306
0.00360166
0.00340967
0.00358819
0.00342306
0.00342306
0.00340967
0.00338149
0.0031895
0.00336802
0.00336802
0.00320289
0.00320289
0.00338149
0.0031895
0.00336802
0.00336802
0.00320289
0.00320289
0.00336802
0.00320289
0.00320289
0.00338149
0.0031895
0.00336802
0.00320289
0.00320289
0.0031895
0.00316131
0.00296933
0.00314785
0.00314785
0.00298272
0.00298272
0.00316132
0.00296933
0.00314785
0.00314785
0.00298272
0.00298272
0.00314785
0.00298272
0.00298272
0.00316131
0.00296933
0.00314785
0.00298272
0.00298272
0.00296933
0.00294114
0.00274915
0.00292767
0.00292767
0.00276254
0.00276254
0.00294114
0.00274915
0.00292767
0.00292767
0.00276254
0.00276254
0.00292767
0.00276254
0.00276254
0.00294114
0.00274915
0.00292767
0.00276254
0.00276254
0.00274915
0.00272097
0.00252898
0.0027075
0.0027075
0.00254237
0.00254237
0.00272097
0.00252898
0.0027075
0.0027075
0.00254237
0.00254237
0.0027075
0.00254237
0.00254237
0.00272097
0.00252898
0.0027075
0.00254237
0.00254237
0.00252898
0.0025008
0.00230881
0.00248733
0.00248733
0.0023222
0.0023222
0.0025008
0.00230881
0.00248733
0.00248733
0.0023222
0.0023222
0.00248733
0.0023222
0.0023222
0.0025008
0.00230881
0.00248733
0.0023222
0.0023222
0.00230881
0.00228063
0.00208864
0.00226716
0.00226716
0.00210203
0.00210203
0.00228063
0.00208864
0.00226716
0.00226716
0.00210203
0.00210203
0.00226716
0.00210203
0.00210203
0.00228063
0.00208864
0.00226716
0.00210203
0.00210203
0.00208864
0.00206046
0.00186847
0.00204699
0.00204699
0.00188186
0.00188186
0.00206046
0.00186847
0.00204699
0.00204699
0.00188186
0.00188186
0.00204699
0.00188186
0.00188186
0.00206046
0.00186847
0.00204699
0.00188186
0.00188186
0.00186847
0.00184029
0.0016483
0.00182682
0.00182682
0.00166169
0.00166169
0.00184029
0.0016483
0.00182682
0.00182682
0.00166169
0.00166169
0.00182682
0.00166169
0.00166169
0.00184029
0.0016483
0.00182682
0.00166169
0.00166169
0.0016483
0.00162012
0.00142813
0.00160665
0.00160665
0.00144152
0.00144152
0.00162012
0.00142813
0.00160665
0.00160665
0.00144152
0.00144152
0.00160665
0.00144152
0.00144152
0.00162012
0.00142813
0.00160665
0.00144152
0.00144152
0.00142813
0.00139995
0.00120796
0.00138648
0.00138648
0.00122135
0.00122135
0.00139995
0.00120796
0.00138648
0.00138648
0.00122135
0.00122135
0.00138648
0.00122135
0.00122135
0.00139995
0.00120796
0.00138648
0.00122135
0.00122135
0.00120796
0.00117978
0.000987791
0.00116631
0.00116631
0.00100118
0.00100118
0.00117978
0.000987791
0.00116631
0.00116631
0.00100118
0.00100118
0.00116631
0.00100118
0.00100118
0.00117978
0.000987791
0.00116631
0.00100118
0.00100118
0.000987791
0.000959607
0.000767619
0.000946139
0.000946139
0.00078101
0.00078101
0.000959608
0.00076762
0.000946139
0.000946139
0.00078101
0.00078101
0.000946139
0.00078101
0.000781011
0.000959607
0.000767619
0.000946139
0.00078101
0.00078101
0.000767619
0.000739436
0.000547449
0.000725967
0.000725967
0.000560842
0.000560844
0.000739437
0.000547449
0.000725968
0.000725967
0.000560842
0.000560842
0.000725968
0.000560843
0.000560843
0.000739436
0.000547448
0.000725968
0.000560841
0.000560842
0.000547449
0.000519266
0.000327337
0.000505805
0.000505805
0.000340798
0.0003408
0.000519266
0.000327342
0.000505805
0.000505805
0.000340796
0.000340794
0.000505805
0.000340799
0.000340796
0.000519265
0.000327336
0.000505805
0.000340795
0.000340796
0.000327338
0.000299181
0.000109981
0.000285939
0.000285939
0.000123351
0.000123349
0.000299185
0.000109986
0.000285934
0.000285933
0.000123335
0.000123335
0.000285935
0.000123344
0.000123344
0.000299176
0.000109976
0.000285933
0.000123338
0.000123333
0.000109978
8.81447e-05
8.85531e-05
8.85486e-05
8.81497e-05
8.85453e-05
8.85378e-05
8.35076e-05
8.35007e-05
8.35032e-05
8.85499e-05
8.81383e-05
8.85446e-05
0.0208349
0.0208696
0.0208508
0.0208508
0.0209267
0.0208834
0.0209876
0.0208621
0.0209267
0.0208834
0.0208621
0.0209876
0.0208989
0.0210078
0.0210077
0.0206975
0.0208183
0.0208029
0.0206986
0.0207017
0.0206953
0.0206975
0.0208184
0.0208028
0.0206987
0.0207586
0.0207587
0.0207587
0.0205963
0.0205963
0.0205963
0.0205963
0.020692
0.0207987
0.0207618
0.0207058
0.0207679
0.020696
0.0207055
0.0207018
0.0206953
0.020692
0.0207618
0.0207987
0.0207058
0.0207679
0.0207055
0.020696
0.0207999
0.0207999
0.0206927
0.0206943
0.0206943
0.0204728
0.0205557
0.0205558
0.0204728
0.0205555
0.0204728
0.0204728
0.0205557
0.0205558
0.0204728
0.0205414
0.0205414
0.0205414
0.0203763
0.0203763
0.0203763
0.0203763
0.0204733
0.020555
0.0205414
0.0204864
0.0205549
0.0204733
0.0204864
0.0205555
0.0204728
0.0204733
0.0205414
0.020555
0.0204864
0.0205549
0.0204864
0.0204733
0.0205554
0.0205554
0.020473
0.0204728
0.0204728
0.0202525
0.020335
0.0203351
0.0202525
0.020335
0.0202526
0.0202525
0.020335
0.0203351
0.0202525
0.0203213
0.0203213
0.0203213
0.0201562
0.0201562
0.0201562
0.0201562
0.0202531
0.0203345
0.0203213
0.0202662
0.0203345
0.020253
0.0202662
0.020335
0.0202526
0.0202531
0.0203213
0.0203345
0.0202662
0.0203345
0.0202662
0.020253
0.020335
0.020335
0.0202528
0.0202526
0.0202526
0.0200323
0.0201148
0.0201149
0.0200323
0.0201148
0.0200324
0.0200323
0.0201149
0.0201149
0.0200323
0.0201012
0.0201012
0.0201012
0.019936
0.019936
0.019936
0.019936
0.0200329
0.0201143
0.0201011
0.020046
0.0201143
0.0200329
0.020046
0.0201148
0.0200324
0.0200329
0.0201011
0.0201143
0.020046
0.0201143
0.020046
0.0200328
0.0201148
0.0201148
0.0200326
0.0200324
0.0200324
0.0198122
0.0198947
0.0198947
0.0198122
0.0198946
0.0198122
0.0198122
0.0198947
0.0198947
0.0198122
0.019881
0.019881
0.019881
0.0197159
0.0197159
0.0197159
0.0197159
0.0198127
0.0198942
0.0198809
0.0198258
0.0198942
0.0198127
0.0198259
0.0198946
0.0198122
0.0198127
0.0198809
0.0198942
0.0198258
0.0198942
0.0198259
0.0198127
0.0198947
0.0198947
0.0198124
0.0198122
0.0198122
0.019592
0.0196745
0.0196745
0.019592
0.0196745
0.019592
0.019592
0.0196745
0.0196745
0.019592
0.0196608
0.0196608
0.0196608
0.0194957
0.0194957
0.0194957
0.0194957
0.0195925
0.019674
0.0196607
0.0196057
0.019674
0.0195925
0.0196057
0.0196745
0.019592
0.0195925
0.0196607
0.019674
0.0196057
0.019674
0.0196057
0.0195925
0.0196745
0.0196745
0.0195923
0.019592
0.019592
0.0193718
0.0194543
0.0194544
0.0193718
0.0194543
0.0193719
0.0193718
0.0194543
0.0194544
0.0193718
0.0194407
0.0194407
0.0194407
0.0192755
0.0192755
0.0192755
0.0192755
0.0193724
0.0194538
0.0194406
0.0193855
0.0194538
0.0193723
0.0193855
0.0194543
0.0193719
0.0193724
0.0194406
0.0194538
0.0193855
0.0194538
0.0193855
0.0193723
0.0194543
0.0194543
0.0193721
0.0193719
0.0193719
0.0191517
0.0192342
0.0192342
0.0191517
0.0192341
0.0191517
0.0191517
0.0192342
0.0192342
0.0191517
0.0192205
0.0192205
0.0192205
0.0190554
0.0190554
0.0190554
0.0190554
0.0191522
0.0192336
0.0192204
0.0191653
0.0192336
0.0191522
0.0191654
0.0192341
0.0191517
0.0191522
0.0192204
0.0192337
0.0191653
0.0192336
0.0191654
0.0191522
0.0192341
0.0192341
0.0191519
0.0191517
0.0191517
0.0189315
0.019014
0.019014
0.0189315
0.019014
0.0189315
0.0189315
0.019014
0.019014
0.0189315
0.0190003
0.0190003
0.0190003
0.0188352
0.0188352
0.0188352
0.0188352
0.018932
0.0190135
0.0190002
0.0189452
0.0190135
0.018932
0.0189452
0.019014
0.0189315
0.018932
0.0190002
0.0190135
0.0189452
0.0190135
0.0189452
0.018932
0.019014
0.019014
0.0189318
0.0189315
0.0189315
0.0187113
0.0187938
0.0187938
0.0187113
0.0187938
0.0187114
0.0187113
0.0187938
0.0187938
0.0187113
0.0187801
0.0187801
0.0187801
0.018615
0.018615
0.018615
0.018615
0.0187119
0.0187933
0.0187801
0.018725
0.0187933
0.0187118
0.018725
0.0187938
0.0187114
0.0187119
0.0187801
0.0187933
0.018725
0.0187933
0.018725
0.0187118
0.0187938
0.0187938
0.0187116
0.0187113
0.0187113
0.0184911
0.0185736
0.0185737
0.0184911
0.0185736
0.0184912
0.0184911
0.0185736
0.0185737
0.0184911
0.01856
0.01856
0.01856
0.0183948
0.0183948
0.0183948
0.0183948
0.0184917
0.0185731
0.0185599
0.0185048
0.0185731
0.0184916
0.0185048
0.0185736
0.0184912
0.0184917
0.0185599
0.0185731
0.0185048
0.0185731
0.0185048
0.0184916
0.0185736
0.0185736
0.0184914
0.0184912
0.0184912
0.018271
0.0183535
0.0183535