/*--------------------------------*- C++ -*----------------------------------*\
| =========                 |                                                 |
| \\      /  F ield         | OpenFOAM: The Open Source CFD Toolbox           |
|  \\    /   O peration     | Version:  v1906                                 |
|   \\  /    A nd           | Web:      www.OpenFOAM.com                      |
|    \\/     M anipulation  |                                                 |
\*---------------------------------------------------------------------------*/
FoamFile
{
    version     2.0;
    format      ascii;
    class       volScalarField;
    location    "625";
    object      epsilon;
}
// * * * * * * * * * * * * * * * * * * * * * * * * * * * * * * * * * * * * * //

dimensions      [0 2 -3 0 0 0 0];


internalField   nonuniform List<scalar> 
42616
(
6.68071e-07
1.19252e-06
1.19383e-06
1.42564e-06
6.73178e-07
1.19494e-06
1.19549e-06
1.4264e-06
6.75703e-07
1.19711e-06
1.19603e-06
1.42938e-06
6.79359e-07
1.19702e-06
1.19619e-06
1.43086e-06
6.83208e-07
1.19659e-06
1.19684e-06
1.42893e-06
6.86294e-07
1.1982e-06
1.2001e-06
1.43044e-06
6.88926e-07
1.19829e-06
1.20002e-06
1.43269e-06
6.90098e-07
1.19576e-06
1.19381e-06
1.42995e-06
6.9136e-07
1.19509e-06
1.19217e-06
1.42811e-06
6.9311e-07
1.19576e-06
1.19655e-06
1.43124e-06
6.93663e-07
1.19362e-06
1.1971e-06
1.43069e-06
6.92876e-07
1.18873e-06
1.18939e-06
1.42305e-06
6.92032e-07
1.18666e-06
1.18397e-06
1.42243e-06
6.93193e-07
1.18723e-06
1.18467e-06
1.42679e-06
6.92136e-07
1.18468e-06
1.18679e-06
1.4199e-06
6.91469e-07
1.17759e-06
1.18226e-06
1.40931e-06
6.90058e-07
1.17809e-06
1.17593e-06
1.41994e-06
6.82901e-07
1.17555e-06
1.17937e-06
1.435e-06
6.86808e-07
1.16523e-06
1.16198e-06
1.40002e-06
6.85766e-07
1.15794e-06
1.13761e-06
1.36896e-06
6.62359e-07
1.10257e-06
1.11868e-06
1.36946e-06
1.42376e-06
1.19347e-06
1.19217e-06
1.42272e-06
1.19344e-06
1.19311e-06
1.1922e-06
1.19319e-06
1.42349e-06
1.19319e-06
1.19313e-06
1.42396e-06
1.42617e-06
1.42685e-06
1.19439e-06
1.19271e-06
1.19589e-06
1.19476e-06
1.42468e-06
1.42483e-06
1.19441e-06
1.19398e-06
1.196e-06
1.19572e-06
1.19319e-06
1.19421e-06
1.19336e-06
1.42576e-06
1.42604e-06
1.19319e-06
1.19521e-06
1.19346e-06
1.42425e-06
1.42872e-06
1.42627e-06
1.19599e-06
1.19545e-06
1.19568e-06
1.19683e-06
1.42695e-06
1.42724e-06
1.19607e-06
1.19594e-06
1.19555e-06
1.19599e-06
1.194e-06
1.19676e-06
1.19698e-06
1.42794e-06
1.4266e-06
1.19408e-06
1.19591e-06
1.19683e-06
1.42715e-06
1.42792e-06
1.4266e-06
1.19563e-06
1.19702e-06
1.1962e-06
1.1969e-06
1.42926e-06
1.42766e-06
1.19545e-06
1.19588e-06
1.19595e-06
1.19576e-06
1.19765e-06
1.19727e-06
1.19842e-06
1.4283e-06
1.42638e-06
1.19746e-06
1.19619e-06
1.19818e-06
1.42929e-06
1.42847e-06
1.4279e-06
1.19654e-06
1.19673e-06
1.19726e-06
1.19668e-06
1.42926e-06
1.42747e-06
1.19635e-06
1.1958e-06
1.19708e-06
1.19668e-06
1.19822e-06
1.19655e-06
1.19646e-06
1.42815e-06
1.42735e-06
1.198e-06
1.19639e-06
1.1963e-06
1.42738e-06
1.42984e-06
1.4293e-06
1.19751e-06
1.19702e-06
1.19804e-06
1.19826e-06
1.42943e-06
1.4291e-06
1.19732e-06
1.19739e-06
1.19803e-06
1.19979e-06
1.19616e-06
1.19788e-06
1.19701e-06
1.42946e-06
1.43065e-06
1.19603e-06
1.19946e-06
1.19702e-06
1.42828e-06
1.4312e-06
1.42996e-06
1.19813e-06
1.19848e-06
1.19813e-06
1.19851e-06
1.4311e-06
1.43013e-06
1.19821e-06
1.20035e-06
1.19835e-06
1.20064e-06
1.19786e-06
1.19847e-06
1.1991e-06
1.43299e-06
1.43266e-06
1.19796e-06
1.2006e-06
1.19933e-06
1.43079e-06
1.43158e-06
1.4283e-06
1.19801e-06
1.19808e-06
1.1967e-06
1.19627e-06
1.43165e-06
1.42796e-06
1.19827e-06
1.19979e-06
1.19661e-06
1.19506e-06
1.19911e-06
1.19632e-06
1.19693e-06
1.43404e-06
1.42724e-06
1.19934e-06
1.19512e-06
1.19676e-06
1.42856e-06
1.42982e-06
1.42775e-06
1.1963e-06
1.19583e-06
1.19571e-06
1.19542e-06
1.42946e-06
1.42729e-06
1.19603e-06
1.19387e-06
1.19507e-06
1.19231e-06
1.19595e-06
1.19501e-06
1.1943e-06
1.42851e-06
1.42368e-06
1.19563e-06
1.19197e-06
1.19374e-06
1.42609e-06
1.42963e-06
1.42906e-06
1.19572e-06
1.1956e-06
1.19569e-06
1.19587e-06
1.4292e-06
1.42889e-06
1.19506e-06
1.19257e-06
1.19539e-06
1.19565e-06
1.19432e-06
1.19573e-06
1.1962e-06
1.42574e-06
1.42747e-06
1.19376e-06
1.19564e-06
1.19604e-06
1.42897e-06
1.43094e-06
1.42753e-06
1.1956e-06
1.19583e-06
1.19397e-06
1.19429e-06
1.43084e-06
1.42784e-06
1.19539e-06
1.19642e-06
1.19433e-06
1.19719e-06
1.19662e-06
1.1947e-06
1.19621e-06
1.43007e-06
1.4311e-06
1.1966e-06
1.19751e-06
1.19647e-06
1.42939e-06
1.42899e-06
1.42416e-06
1.19326e-06
1.19341e-06
1.19057e-06
1.19015e-06
1.42928e-06
1.42337e-06
1.1936e-06
1.19677e-06
1.19078e-06
1.19166e-06
1.19452e-06
1.18974e-06
1.18821e-06
1.43262e-06
1.4256e-06
1.19498e-06
1.19124e-06
1.18838e-06
1.42184e-06
1.4256e-06
1.4215e-06
1.18978e-06
1.18928e-06
1.18769e-06
1.18725e-06
1.42473e-06
1.42062e-06
1.18994e-06
1.18996e-06
1.18751e-06
1.18538e-06
1.18685e-06
1.18676e-06
1.18604e-06
1.4268e-06
1.41905e-06
1.18696e-06
1.18485e-06
1.18598e-06
1.41982e-06
1.42306e-06
1.42168e-06
1.1874e-06
1.187e-06
1.18716e-06
1.18673e-06
1.42243e-06
1.42179e-06
1.18708e-06
1.1844e-06
1.18634e-06
1.18352e-06
1.18751e-06
1.18709e-06
1.19059e-06
1.42042e-06
1.41845e-06
1.18723e-06
1.18366e-06
1.18982e-06
1.42477e-06
1.42356e-06
1.41945e-06
1.18707e-06
1.18672e-06
1.18394e-06
1.18559e-06
1.42377e-06
1.42084e-06
1.18621e-06
1.18424e-06
1.18387e-06
1.18645e-06
1.19057e-06
1.1863e-06
1.1832e-06
1.42062e-06
1.42097e-06
1.18977e-06
1.1866e-06
1.18306e-06
1.41897e-06
1.42089e-06
1.4171e-06
1.1827e-06
1.18435e-06
1.18074e-06
1.18032e-06
1.42221e-06
1.41499e-06
1.18314e-06
1.18686e-06
1.18159e-06
1.18658e-06
1.17982e-06
1.17868e-06
1.17241e-06
1.42294e-06
1.42148e-06
1.18017e-06
1.18459e-06
1.17328e-06
1.40806e-06
1.41895e-06
1.41454e-06
1.18076e-06
1.17974e-06
1.17982e-06
1.17881e-06
1.41636e-06
1.41484e-06
1.18138e-06
1.18536e-06
1.17885e-06
1.1772e-06
1.1719e-06
1.17701e-06
1.18008e-06
1.4228e-06
1.41511e-06
1.17257e-06
1.17631e-06
1.1779e-06
1.4143e-06
1.41551e-06
1.40459e-06
1.17824e-06
1.17868e-06
1.1674e-06
1.17252e-06
1.41702e-06
1.41117e-06
1.17558e-06
1.17568e-06
1.16811e-06
1.1739e-06
1.1861e-06
1.17774e-06
1.19362e-06
1.41649e-06
1.41395e-06
1.18382e-06
1.17843e-06
1.19298e-06
1.43218e-06
1.40595e-06
1.40455e-06
1.16619e-06
1.1703e-06
1.16802e-06
1.16749e-06
1.41225e-06
1.40238e-06
1.16778e-06
1.17405e-06
1.16984e-06
1.17132e-06
1.19314e-06
1.1664e-06
1.16288e-06
1.41589e-06
1.40425e-06
1.19308e-06
1.17323e-06
1.16587e-06
1.40187e-06
1.40675e-06
1.40102e-06
1.17042e-06
1.16817e-06
1.16959e-06
1.16735e-06
1.40367e-06
1.39753e-06
1.17041e-06
1.16495e-06
1.16326e-06
1.14498e-06
1.15255e-06
1.15878e-06
1.13655e-06
1.40305e-06
1.37494e-06
1.15291e-06
1.13854e-06
1.1313e-06
1.3674e-06
1.40214e-06
1.37897e-06
1.1671e-06
1.16553e-06
1.13835e-06
1.13449e-06
1.39878e-06
1.37485e-06
1.16051e-06
1.14364e-06
1.13733e-06
1.13768e-06
1.13756e-06
1.13525e-06
1.1477e-06
1.3761e-06
1.37925e-06
1.13174e-06
1.1395e-06
1.14578e-06
1.3815e-06
1.35948e-06
1.10479e-06
1.09975e-06
1.35434e-06
1.10642e-06
1.11539e-06
6.57916e-07
6.67182e-07
6.72576e-07
1.12323e-06
1.36611e-06
1.12407e-06
6.66317e-07
6.65729e-07
6.66328e-07
6.669e-07
4.24252e-06
9.5752e-06
4.24166e-06
9.58272e-06
1.91175e-05
1.91241e-05
4.24314e-06
9.57665e-06
4.24143e-06
9.5851e-06
6.66858e-07
6.67812e-07
6.67685e-07
6.7226e-07
6.70703e-07
6.71804e-07
6.70205e-07
2.2991e-06
3.65189e-06
9.4184e-07
1.19296e-06
2.29949e-06
3.65155e-06
9.42294e-07
1.91161e-05
1.91287e-05
2.29977e-06
9.42691e-07
3.65209e-06
1.19437e-06
2.29983e-06
9.43291e-07
3.65289e-06
5.65878e-06
5.66084e-06
1.42361e-06
5.65832e-06
5.66054e-06
4.2446e-06
9.59286e-06
4.24424e-06
9.59752e-06
1.91303e-05
1.91397e-05
4.24525e-06
9.59543e-06
4.24506e-06
9.59982e-06
6.72107e-07
6.72918e-07
6.71421e-07
6.75044e-07
6.75981e-07
6.75504e-07
6.75827e-07
2.29976e-06
3.65212e-06
9.44493e-07
1.19565e-06
2.29965e-06
3.65248e-06
9.45442e-07
1.91396e-05
1.91486e-05
2.30005e-06
9.45094e-07
3.65416e-06
1.19567e-06
2.30014e-06
9.4569e-07
3.65435e-06
5.65622e-06
5.65854e-06
1.4256e-06
5.65535e-06
5.65761e-06
4.24566e-06
9.60075e-06
4.24554e-06
9.60238e-06
1.91566e-05
1.91685e-05
4.24547e-06
9.60309e-06
4.24546e-06
9.60459e-06
6.77061e-07
6.76246e-07
6.77271e-07
6.78325e-07
6.79455e-07
6.78479e-07
6.80636e-07
2.30106e-06
3.65563e-06
9.48099e-07
1.19729e-06
2.30081e-06
3.6565e-06
9.48654e-07
1.91581e-05
1.91656e-05
2.3006e-06
9.47425e-07
3.65571e-06
1.19613e-06
2.30067e-06
9.47905e-07
3.65564e-06
5.66051e-06
5.66221e-06
1.42861e-06
5.66484e-06
5.66633e-06
4.24587e-06
9.6044e-06
4.24603e-06
9.60763e-06
1.91787e-05
1.91845e-05
4.24561e-06
9.60586e-06
4.24561e-06
9.60877e-06
6.80046e-07
6.79231e-07
6.81248e-07
6.82308e-07
6.8185e-07
6.8166e-07
6.81958e-07
2.29993e-06
3.65715e-06
9.49224e-07
1.19678e-06
2.30092e-06
3.65615e-06
9.49176e-07
1.91734e-05
1.91805e-05
2.29932e-06
9.48663e-07
3.65539e-06
1.19619e-06
2.30029e-06
9.48719e-07
3.65445e-06
5.67023e-06
5.67181e-06
1.42832e-06
5.67033e-06
5.67212e-06
4.246e-06
9.61335e-06
4.24602e-06
9.61716e-06
1.91869e-05
1.91916e-05
4.24619e-06
9.6152e-06
4.24607e-06
9.61929e-06
6.82642e-07
6.82755e-07
6.82127e-07
6.85556e-07
6.85446e-07
6.8685e-07
6.84392e-07
2.29877e-06
3.65529e-06
9.48894e-07
1.1969e-06
2.29917e-06
3.65466e-06
9.48996e-07
1.91868e-05
1.91913e-05
2.2986e-06
9.48956e-07
3.65395e-06
1.19772e-06
2.2987e-06
9.49368e-07
3.65365e-06
5.66785e-06
5.66999e-06
1.42709e-06
5.66507e-06
5.66705e-06
4.2487e-06
9.62354e-06
4.2475e-06
9.62968e-06
1.92062e-05
1.92226e-05
4.24909e-06
9.62523e-06
4.24759e-06
9.63139e-06
6.86402e-07
6.88133e-07
6.85686e-07
6.88361e-07
6.88579e-07
6.90353e-07
6.89117e-07
2.29969e-06
3.65697e-06
9.51066e-07
1.1984e-06
2.29934e-06
3.6586e-06
9.51595e-07
1.92017e-05
1.92204e-05
2.30061e-06
9.52227e-07
3.65683e-06
1.2005e-06
2.29985e-06
9.52895e-07
3.65969e-06
5.66589e-06
5.66765e-06
1.42967e-06
5.66951e-06
5.67144e-06
4.25141e-06
9.637e-06
4.25115e-06
9.64056e-06
1.92385e-05
1.92452e-05
4.25304e-06
9.63963e-06
4.25234e-06
9.64369e-06
6.88978e-07
6.90466e-07
6.89806e-07
6.8987e-07
6.89466e-07
6.89037e-07
6.90481e-07
2.29962e-06
3.66126e-06
9.52212e-07
1.19767e-06
2.30053e-06
3.66049e-06
9.52134e-07
1.92485e-05
1.92644e-05
2.30072e-06
9.53438e-07
3.66535e-06
1.19838e-06
2.30192e-06
9.52984e-07
3.66541e-06
5.67827e-06
5.68097e-06
1.43031e-06
5.67962e-06
5.68253e-06
4.24815e-06
9.64115e-06
4.25037e-06
9.63971e-06
1.92443e-05
1.92432e-05
4.24842e-06
9.64484e-06
4.2514e-06
9.6428e-06
6.89572e-07
6.88423e-07
6.90318e-07
6.90934e-07
6.90659e-07
6.8778e-07
6.89801e-07
2.29579e-06
3.65823e-06
9.50328e-07
1.19532e-06
2.29767e-06
3.65554e-06
9.49788e-07
1.92603e-05
1.92472e-05
2.29463e-06
9.49091e-07
3.66111e-06
1.19279e-06
2.29749e-06
9.48096e-07
3.65502e-06
5.6777e-06
5.6797e-06
1.42678e-06
5.67324e-06
5.67434e-06
4.24671e-06
9.63813e-06
4.2462e-06
9.64315e-06
1.92434e-05
1.92548e-05
4.24478e-06
9.6395e-06
4.2448e-06
9.6431e-06
6.91275e-07
6.88107e-07
6.89924e-07
6.92723e-07
6.93055e-07
6.9248e-07
6.92991e-07
2.29448e-06
3.65451e-06
9.49326e-07
1.19537e-06
2.29455e-06
3.65509e-06
9.49624e-07
1.92308e-05
1.9237e-05
2.29249e-06
9.47192e-07
3.64985e-06
1.1932e-06
2.29248e-06
9.47771e-07
3.64941e-06
5.66881e-06
5.66966e-06
1.42727e-06
5.66927e-06
5.67033e-06
4.25238e-06
9.65657e-06
4.25082e-06
9.66396e-06
1.92786e-05
1.92934e-05
4.25168e-06
9.6561e-06
4.24897e-06
9.66432e-06
6.9349e-07
6.93855e-07
6.93949e-07
6.93644e-07
6.9399e-07
6.96283e-07
6.95132e-07
2.29678e-06
3.66045e-06
9.50785e-07
1.19571e-06
2.29634e-06
3.66192e-06
9.50841e-07
1.92641e-05
1.92849e-05
2.29677e-06
9.51389e-07
3.65585e-06
1.19716e-06
2.29546e-06
9.52017e-07
3.65957e-06
5.6802e-06
5.68189e-06
1.4304e-06
5.68635e-06
5.68828e-06
4.25295e-06
9.66787e-06
4.25402e-06
9.66759e-06
1.93015e-05
1.93041e-05
4.25458e-06
9.66974e-06
4.25466e-06
9.67073e-06
6.9394e-07
6.96503e-07
6.95047e-07
6.93192e-07
6.9276e-07
6.94831e-07
6.9194e-07
2.29359e-06
3.66245e-06
9.49679e-07
1.19228e-06
2.29596e-06
3.66015e-06
9.48219e-07
1.93039e-05
1.93155e-05
2.29517e-06
9.52026e-07
3.66403e-06
1.19542e-06
2.29715e-06
9.50592e-07
3.66405e-06
5.69348e-06
5.69632e-06
1.42582e-06
5.6933e-06
5.69667e-06
4.24582e-06
9.6635e-06
4.24918e-06
9.66173e-06
1.92988e-05
1.92958e-05
4.2474e-06
9.66793e-06
4.25122e-06
9.66558e-06
6.92393e-07
6.9374e-07
6.91054e-07
6.92064e-07
6.9178e-07
6.90758e-07
6.90501e-07
2.28675e-06
3.65633e-06
9.44396e-07
1.1878e-06
2.2896e-06
3.65242e-06
9.43508e-07
1.93158e-05
1.93094e-05
2.28784e-06
9.44982e-07
3.66164e-06
1.18758e-06
2.29123e-06
9.4354e-07
3.65683e-06
5.68481e-06
5.68737e-06
1.41929e-06
5.67208e-06
5.67363e-06
4.2432e-06
9.65864e-06
4.24337e-06
9.65878e-06
1.92908e-05
1.93015e-05
4.24362e-06
9.66243e-06
4.24415e-06
9.66259e-06
6.91799e-07
6.90064e-07
6.91495e-07
6.9297e-07
6.92709e-07
6.89351e-07
6.95666e-07
2.28561e-06
3.65008e-06
9.42885e-07
1.1867e-06
2.28509e-06
3.65093e-06
9.43425e-07
1.92994e-05
1.93058e-05
2.28439e-06
9.41414e-07
3.65184e-06
1.18343e-06
2.2848e-06
9.41304e-07
3.65077e-06
5.65709e-06
5.65883e-06
1.42246e-06
5.65963e-06
5.66157e-06
4.24827e-06
9.66675e-06
4.24635e-06
9.67714e-06
1.93263e-05
1.93391e-05
4.24683e-06
9.66737e-06
4.24539e-06
9.67586e-06
6.93061e-07
6.89854e-07
6.9599e-07
6.92702e-07
6.93371e-07
6.93927e-07
6.93379e-07
2.28918e-06
3.65794e-06
9.44653e-07
1.18721e-06
2.28888e-06
3.65837e-06
9.44603e-07
1.93135e-05
1.93172e-05
2.28659e-06
9.42522e-07
3.65194e-06
1.18546e-06
2.28625e-06
9.42749e-07
3.65057e-06
5.69012e-06
5.69222e-06
1.42378e-06
5.70304e-06
5.70481e-06
4.25142e-06
9.69089e-06
4.25203e-06
9.69286e-06
1.93435e-05
1.9346e-05
4.24855e-06
9.6894e-06
4.24928e-06
9.69236e-06
6.93307e-07
6.94936e-07
6.90811e-07
6.91382e-07
6.91184e-07
6.95824e-07
6.85134e-07
2.28171e-06
3.6554e-06
9.40831e-07
1.18241e-06
2.286e-06
3.65136e-06
9.3828e-07
1.93195e-05
1.93285e-05
2.28325e-06
9.42748e-07
3.6498e-06
1.18671e-06
2.28575e-06
9.42132e-07
3.65007e-06
5.71206e-06
5.71224e-06
1.41296e-06
5.70377e-06
5.70438e-06
4.2391e-06
9.67387e-06
4.24495e-06
9.662e-06
1.93301e-05
1.93257e-05
4.24576e-06
9.67509e-06
4.24575e-06
9.66858e-06
6.9064e-07
6.95339e-07
6.84546e-07
6.9116e-07
6.89972e-07
6.89521e-07
6.88746e-07
2.27507e-06
3.64941e-06
9.33178e-07
1.1768e-06
2.27642e-06
3.6478e-06
9.32628e-07
1.93316e-05
1.93496e-05
2.27598e-06
9.36503e-07
3.65357e-06
1.17955e-06
2.27881e-06
9.34651e-07
3.65397e-06
5.677e-06
5.68015e-06
1.40709e-06
5.64743e-06
5.65405e-06
4.24783e-06
9.67028e-06
4.24102e-06
9.69763e-06
1.93274e-05
1.93646e-05
4.25176e-06
9.68157e-06
4.25079e-06
9.70395e-06
6.89984e-07
6.88465e-07
6.94263e-07
6.83595e-07
6.88435e-07
6.88273e-07
7.03329e-07
2.28301e-06
3.652e-06
9.36808e-07
1.1784e-06
2.27966e-06
3.6545e-06
9.38746e-07
1.93912e-05
1.93962e-05
2.28108e-06
9.33359e-07
3.65742e-06
1.17589e-06
2.27772e-06
9.34428e-07
3.65518e-06
5.62299e-06
5.63258e-06
1.42449e-06
5.63852e-06
5.64407e-06
4.25004e-06
9.71231e-06
4.2558e-06
9.69398e-06
1.93952e-05
1.93909e-05
4.23937e-06
9.70127e-06
4.24432e-06
9.68524e-06
6.86977e-07
6.89238e-07
7.03606e-07
6.84859e-07
6.84786e-07
6.88535e-07
6.86983e-07
2.28144e-06
3.66278e-06
9.39726e-07
1.17171e-06
2.28642e-06
3.65438e-06
9.36922e-07
1.93193e-05
1.93096e-05
2.28776e-06
9.41087e-07
3.65508e-06
1.17927e-06
2.28866e-06
9.41078e-07
3.65209e-06
5.7244e-06
5.71632e-06
1.42672e-06
5.75993e-06
5.75283e-06
4.22707e-06
9.6477e-06
4.23035e-06
9.65673e-06
1.92939e-05
1.92837e-05
4.24369e-06
9.66393e-06
4.2409e-06
9.67365e-06
6.85019e-07
6.84767e-07
6.77519e-07
6.87174e-07
6.85009e-07
6.69173e-07
6.61299e-07
2.25721e-06
3.63931e-06
9.21921e-07
1.16267e-06
2.26872e-06
3.62217e-06
9.17573e-07
1.93436e-05
1.94264e-05
2.25364e-06
9.2333e-07
3.655e-06
1.15095e-06
2.27142e-06
9.11988e-07
3.64267e-06
5.78251e-06
5.79932e-06
1.37934e-06
5.7293e-06
5.75131e-06
4.22868e-06
9.67096e-06
4.22837e-06
9.68105e-06
1.93081e-05
1.93724e-05
4.21448e-06
9.67234e-06
4.22962e-06
9.66984e-06
6.84162e-07
6.67533e-07
6.60899e-07
6.71139e-07
6.6827e-07
6.67404e-07
6.71207e-07
2.24494e-06
3.6328e-06
9.12553e-07
1.15317e-06
2.24885e-06
3.62084e-06
9.11854e-07
1.93795e-05
1.92689e-05
2.22897e-06
8.97243e-07
3.62349e-06
1.13867e-06
2.23376e-06
8.97786e-07
3.58591e-06
5.61903e-06
5.61479e-06
1.37399e-06
5.55657e-06
5.53339e-06
3.45947e-06
8.87348e-06
4.1727e-06
5.81481e-06
1.7152e-05
8.52564e-06
3.46031e-06
8.84287e-06
4.14708e-06
5.80789e-06
3.2096e-07
4.83387e-07
4.84553e-07
7.11057e-07
3.26129e-07
5.04995e-07
5.09409e-07
2.18494e-06
3.53912e-06
8.98696e-07
1.05517e-06
2.22658e-06
3.64619e-06
8.45243e-07
1.68219e-05
8.52124e-06
2.18924e-06
9.07257e-07
3.49985e-06
1.07932e-06
2.22069e-06
8.60759e-07
3.62154e-06
5.50359e-06
5.48131e-06
1.33514e-06
5.21026e-06
5.2109e-06
1.91064e-05
1.90951e-05
1.91089e-05
1.90967e-05
1.42409e-06
5.65215e-06
5.65402e-06
5.64958e-06
5.65114e-06
4.24019e-06
9.57394e-06
9.56871e-06
4.24099e-06
4.2406e-06
9.58035e-06
9.57607e-06
4.24125e-06
2.29869e-06
1.19241e-06
3.65005e-06
9.4146e-07
3.64894e-06
9.40335e-07
2.29907e-06
2.29887e-06
1.19173e-06
3.65192e-06
9.41102e-07
3.65185e-06
9.40241e-07
2.29916e-06
1.91171e-05
1.91085e-05
1.42411e-06
5.65711e-06
5.65571e-06
5.65685e-06
5.65575e-06
1.91155e-05
1.9108e-05
4.23944e-06
9.57523e-06
9.56984e-06
4.24073e-06
2.29859e-06
1.19231e-06
3.65071e-06
9.41739e-07
3.64952e-06
9.40397e-07
2.29929e-06
4.23934e-06
9.57695e-06
9.5705e-06
4.24063e-06
2.2985e-06
1.19221e-06
9.4164e-07
3.65117e-06
9.40425e-07
3.64998e-06
2.2992e-06
2.29959e-06
1.19195e-06
3.6516e-06
9.41451e-07
3.6518e-06
9.41041e-07
2.29931e-06
4.2418e-06
9.58061e-06
9.57683e-06
4.24224e-06
2.29959e-06
1.19312e-06
9.41882e-07
3.6528e-06
9.41543e-07
3.65246e-06
2.29935e-06
4.24179e-06
9.58298e-06
9.57751e-06
4.2423e-06
1.91143e-05
1.90996e-05
1.42407e-06
5.65576e-06
5.65473e-06
5.65302e-06
5.65188e-06
1.91142e-05
1.91002e-05
2.29913e-06
1.19248e-06
9.42014e-07
3.65112e-06
9.41234e-07
3.64993e-06
2.29948e-06
2.29938e-06
1.19299e-06
9.42133e-07
3.65351e-06
9.41594e-07
3.65299e-06
2.29965e-06
4.24075e-06
9.5782e-06
9.57106e-06
4.2418e-06
4.24115e-06
9.58399e-06
9.5778e-06
4.24216e-06
1.42537e-06
5.65833e-06
5.66033e-06
5.65715e-06
5.65892e-06
1.91218e-05
1.91105e-05
1.9124e-05
1.91119e-05
1.91083e-05
1.91239e-05
1.91111e-05
1.91276e-05
5.65402e-06
5.6561e-06
1.42565e-06
5.65773e-06
5.66004e-06
1.91406e-05
1.91261e-05
1.9144e-05
1.91298e-05
1.42785e-06
5.6623e-06
5.66461e-06
5.65964e-06
5.66196e-06
4.24246e-06
9.58092e-06
4.24182e-06
9.5837e-06
2.29992e-06
3.65118e-06
9.42565e-07
1.19511e-06
2.29953e-06
3.65275e-06
9.43567e-07
2.29981e-06
3.65228e-06
9.4201e-07
1.19333e-06
2.29955e-06
3.65212e-06
9.42919e-07
4.24314e-06
9.59176e-06
9.58423e-06
4.24377e-06
4.24297e-06
9.58663e-06
9.58408e-06
4.24344e-06
2.30031e-06
1.19562e-06
3.65496e-06
9.45135e-07
3.65388e-06
9.44446e-07
2.30046e-06
2.30017e-06
1.19404e-06
3.65244e-06
9.44667e-07
3.65247e-06
9.43828e-07
2.30023e-06
5.65742e-06
5.65596e-06
1.42368e-06
5.65724e-06
5.65524e-06
1.91157e-05
1.9121e-05
1.91299e-05
1.91242e-05
1.42575e-06
5.65749e-06
5.65498e-06
5.65742e-06
5.65542e-06
1.91256e-05
1.91207e-05
2.30058e-06
3.65203e-06
9.43001e-07
1.19519e-06
2.29985e-06
3.65375e-06
9.44133e-07
4.24299e-06
9.57843e-06
4.24134e-06
9.58581e-06
2.30045e-06
9.42828e-07
3.65239e-06
1.19473e-06
2.29975e-06
9.43902e-07
3.65347e-06
4.24377e-06
9.59439e-06
9.58675e-06
4.24474e-06
2.30101e-06
1.19572e-06
3.656e-06
9.45674e-07
3.655e-06
9.45027e-07
2.30114e-06
4.24362e-06
9.59141e-06
9.58684e-06
4.24453e-06
2.30087e-06
1.19533e-06
9.4552e-07
3.65465e-06
9.44825e-07
3.65431e-06
2.30098e-06
4.24264e-06
9.58111e-06
4.24257e-06
9.58389e-06
2.29909e-06
9.4211e-07
3.65315e-06
1.19318e-06
2.29952e-06
9.4236e-07
3.65275e-06
4.24265e-06
9.58366e-06
4.24262e-06
9.58677e-06
2.29935e-06
1.19354e-06
3.65164e-06
9.43625e-07
3.65186e-06
9.42893e-07
2.29932e-06
4.24284e-06
9.58661e-06
9.5843e-06
4.24282e-06
2.2993e-06
1.19321e-06
9.4336e-07
3.65221e-06
9.42762e-07
3.65295e-06
2.29925e-06
4.24283e-06
9.58902e-06
9.58713e-06
4.24278e-06
5.65757e-06
5.65613e-06
1.42504e-06
5.65945e-06
5.65774e-06
1.91158e-05
1.91268e-05
1.91389e-05
1.91296e-05
1.42713e-06
5.6617e-06
5.65921e-06
5.66064e-06
5.65849e-06
1.91351e-05
1.91275e-05
2.29973e-06
9.42537e-07
3.65393e-06
1.19322e-06
2.29995e-06
9.42897e-07
3.65357e-06
4.24313e-06
9.57959e-06
4.24258e-06
9.58596e-06
4.24316e-06
9.58474e-06
4.24276e-06
9.58803e-06
2.30004e-06
1.19484e-06
9.44481e-07
3.65369e-06
9.43887e-07
3.65349e-06
2.29982e-06
2.29995e-06
1.19328e-06
9.43891e-07
3.65301e-06
9.43339e-07
3.65377e-06
2.2997e-06
4.24356e-06
9.59048e-06
9.58676e-06
4.24359e-06
4.24344e-06
9.59019e-06
9.58836e-06
4.24343e-06
1.91226e-05
1.91296e-05
1.91249e-05
1.91323e-05
1.42538e-06
5.65639e-06
5.65877e-06
5.65833e-06
5.66054e-06
1.91329e-05
1.91295e-05
1.91358e-05
1.91323e-05
1.9142e-05
1.91522e-05
1.91454e-05
1.91551e-05
5.66349e-06
5.66574e-06
1.42674e-06
5.6644e-06
5.66656e-06
1.91586e-05
1.91528e-05
1.91607e-05
1.91555e-05
1.42832e-06
5.66411e-06
5.66595e-06
5.66475e-06
5.66684e-06
4.24428e-06
9.58713e-06
4.24388e-06
9.5911e-06
2.30053e-06
3.65567e-06
9.45665e-07
1.19596e-06
2.30076e-06
3.65577e-06
9.46033e-07
2.30041e-06
3.65294e-06
9.45435e-07
1.19604e-06
2.30054e-06
3.65338e-06
9.46082e-07
4.24497e-06
9.60049e-06
9.59803e-06
4.24522e-06
4.24472e-06
9.59865e-06
9.59212e-06
4.24514e-06
2.30074e-06
1.19581e-06
3.6554e-06
9.46601e-07
3.65606e-06
9.46337e-07
2.30031e-06
2.30069e-06
1.19651e-06
3.65507e-06
9.47108e-07
3.65419e-06
9.46648e-07
2.30041e-06
5.65817e-06
5.65569e-06
1.42608e-06
5.65991e-06
5.65712e-06
1.91258e-05
1.9135e-05
1.91549e-05
1.91412e-05
1.42819e-06
5.66419e-06
5.66205e-06
5.66138e-06
5.6589e-06
1.9152e-05
1.91366e-05
2.30079e-06
3.65668e-06
9.46065e-07
1.196e-06
2.30134e-06
3.65661e-06
9.46283e-07
4.24514e-06
9.59207e-06
4.24489e-06
9.59591e-06
2.30068e-06
9.46011e-07
3.65519e-06
1.19603e-06
2.30119e-06
9.46298e-07
3.65524e-06
4.24538e-06
9.60281e-06
9.60034e-06
4.24533e-06
2.30086e-06
1.19576e-06
3.65603e-06
9.46451e-07
3.65689e-06
9.46383e-07
2.30017e-06
4.24531e-06
9.60042e-06
9.59661e-06
4.24537e-06
2.30077e-06
1.19604e-06
9.46583e-07
3.65556e-06
9.46478e-07
3.6557e-06
2.30012e-06
4.24296e-06
9.58694e-06
4.24299e-06
9.58988e-06
2.29964e-06
9.44189e-07
3.65235e-06
1.19512e-06
2.29957e-06
9.45189e-07
3.65177e-06
4.2428e-06
9.58903e-06
4.24293e-06
9.58944e-06
2.30014e-06
1.19627e-06
3.65449e-06
9.47335e-07
3.65341e-06
9.46425e-07
2.30041e-06
4.2433e-06
9.59693e-06
9.59072e-06
4.24399e-06
2.3e-06
1.19613e-06
9.47308e-07
3.65294e-06
9.46277e-07
3.65219e-06
2.30028e-06
4.24308e-06
9.59303e-06
9.58952e-06
4.24372e-06
5.66271e-06
5.65993e-06
1.42649e-06
5.66373e-06
5.66106e-06
1.91357e-05
1.91445e-05
1.91576e-05
1.91492e-05
1.42829e-06
5.66526e-06
5.66353e-06
5.66465e-06
5.66212e-06
1.91563e-05
1.91456e-05
2.29993e-06
9.44584e-07
3.65315e-06
1.1951e-06
2.3e-06
9.45378e-07
3.65256e-06
4.24393e-06
9.59103e-06
4.24391e-06
9.59444e-06
4.24359e-06
9.59027e-06
4.24364e-06
9.59101e-06
2.30037e-06
1.1958e-06
9.46867e-07
3.65521e-06
9.46289e-07
3.65492e-06
2.30034e-06
2.30024e-06
1.19604e-06
9.47131e-07
3.65352e-06
9.46256e-07
3.65293e-06
2.30028e-06
4.2443e-06
9.59942e-06
9.5951e-06
4.24456e-06
4.24384e-06
9.59458e-06
9.59116e-06
4.24415e-06
1.9132e-05
1.91351e-05
1.91348e-05
1.91376e-05
1.42782e-06
5.65842e-06
5.66029e-06
5.65595e-06
5.65809e-06
1.91456e-05
1.91352e-05
1.91469e-05
1.91375e-05
1.91583e-05
1.91617e-05
1.91602e-05
1.9163e-05
5.66401e-06
5.6658e-06
1.42601e-06
5.66225e-06
5.66373e-06
1.91652e-05
1.91611e-05
1.91663e-05
1.91623e-05
1.42784e-06
5.66134e-06
5.66273e-06
5.66211e-06
5.66361e-06
4.24586e-06
9.59994e-06
4.24556e-06
9.60611e-06
2.29999e-06
3.65554e-06
9.46903e-07
1.19565e-06
2.30048e-06
3.65451e-06
9.47209e-07
2.3002e-06
3.6559e-06
9.47501e-07
1.19708e-06
2.30062e-06
3.65637e-06
9.4779e-07
4.24589e-06
9.60404e-06
9.60252e-06
4.24586e-06
4.24617e-06
9.61077e-06
9.60695e-06
4.24623e-06
2.30015e-06
1.19583e-06
3.65379e-06
9.47887e-07
3.6546e-06
9.47555e-07
2.29964e-06
2.30037e-06
1.19705e-06
3.65663e-06
9.48189e-07
3.65684e-06
9.48024e-07
2.29985e-06
5.66564e-06
5.66403e-06
1.42801e-06
5.66724e-06
5.66615e-06
1.91541e-05
1.91682e-05
1.91783e-05
1.91695e-05
1.42979e-06
5.66833e-06
5.66763e-06
5.66805e-06
5.66727e-06
1.91787e-05
1.91695e-05
2.29967e-06
3.65621e-06
9.46539e-07
1.19544e-06
2.30023e-06
3.65499e-06
9.46748e-07
4.24551e-06
9.60102e-06
4.2455e-06
9.6043e-06
2.29964e-06
9.46721e-07
3.6559e-06
1.1958e-06
2.3002e-06
9.46903e-07
3.65547e-06
4.24558e-06
9.60561e-06
9.60466e-06
4.24552e-06
2.29983e-06
1.19555e-06
3.65421e-06
9.47575e-07
3.65513e-06
9.47125e-07
2.29938e-06
4.2456e-06
9.60782e-06
9.60483e-06
4.24547e-06
2.29979e-06
1.19577e-06
9.47502e-07
3.65512e-06
9.47184e-07
3.65575e-06
2.29931e-06
4.24616e-06
9.59846e-06
4.24477e-06
9.60625e-06
2.30101e-06
9.48192e-07
3.65408e-06
1.1981e-06
2.30069e-06
9.48865e-07
3.65583e-06
4.24601e-06
9.59434e-06
4.24451e-06
9.60328e-06
2.30135e-06
1.19733e-06
3.6569e-06
9.49181e-07
3.65713e-06
9.49009e-07
2.30083e-06
4.24692e-06
9.6119e-06
9.60736e-06
4.2475e-06
2.30132e-06
1.19837e-06
9.49579e-07
3.65781e-06
9.49333e-07
3.65703e-06
2.30091e-06
4.24684e-06
9.61286e-06
9.60511e-06
4.24755e-06
5.66587e-06
5.66431e-06
1.42643e-06
5.66586e-06
5.66487e-06
1.91573e-05
1.91662e-05
1.91731e-05
1.91659e-05
1.42814e-06
5.66562e-06
5.6649e-06
5.66622e-06
5.66517e-06
1.91741e-05
1.91668e-05
2.30071e-06
9.47932e-07
3.65459e-06
1.19789e-06
2.30062e-06
9.48566e-07
3.65615e-06
4.24578e-06
9.60027e-06
4.24515e-06
9.60473e-06
4.2457e-06
9.59579e-06
4.24482e-06
9.60423e-06
2.30085e-06
1.19618e-06
9.48526e-07
3.65525e-06
9.48283e-07
3.6559e-06
2.3002e-06
2.30099e-06
1.19814e-06
9.49252e-07
3.65816e-06
9.4901e-07
3.65734e-06
2.30052e-06
4.24643e-06
9.60858e-06
9.60537e-06
4.2467e-06
4.24653e-06
9.61367e-06
9.60601e-06
4.24713e-06
1.91477e-05
1.91652e-05
1.91488e-05
1.91656e-05
1.43068e-06
5.66927e-06
5.67077e-06
5.66683e-06
5.66832e-06
1.91817e-05
1.91675e-05
1.91824e-05
1.91679e-05
1.91655e-05
1.91738e-05
1.91666e-05
1.91757e-05
5.66163e-06
5.66308e-06
1.42715e-06
5.66252e-06
5.66416e-06
1.91854e-05
1.91749e-05
1.9189e-05
1.9177e-05
1.42907e-06
5.66512e-06
5.66732e-06
5.66348e-06
5.66531e-06
4.24622e-06
9.6112e-06
4.24642e-06
9.6134e-06
2.29926e-06
3.65401e-06
9.48241e-07
1.1968e-06
2.29979e-06
3.65396e-06
9.48575e-07
2.29941e-06
3.65689e-06
9.48357e-07
1.19663e-06
2.29998e-06
3.65625e-06
9.48524e-07
4.246e-06
9.61264e-06
9.60836e-06
4.24584e-06
4.24633e-06
9.61486e-06
9.61363e-06
4.24608e-06
2.29942e-06
1.19705e-06
3.6549e-06
9.49305e-07
3.65449e-06
9.48939e-07
2.29904e-06
2.29955e-06
1.19661e-06
3.6556e-06
9.4911e-07
3.65644e-06
9.48776e-07
2.29913e-06
5.66861e-06
5.6679e-06
1.42728e-06
5.66783e-06
5.66661e-06
1.91789e-05
1.91835e-05
1.91875e-05
1.91842e-05
1.42899e-06
5.66627e-06
5.66432e-06
5.66782e-06
5.66658e-06
1.91847e-05
1.91827e-05
2.29912e-06
3.6545e-06
9.48034e-07
1.19664e-06
2.29955e-06
3.65448e-06
9.4848e-07
4.24531e-06
9.60828e-06
4.24551e-06
9.61088e-06
2.29897e-06
9.47853e-07
3.65536e-06
1.19592e-06
2.29946e-06
9.48184e-07
3.65457e-06
4.24578e-06
9.61436e-06
9.60955e-06
4.24589e-06
2.29933e-06
1.19688e-06
3.65569e-06
9.49315e-07
3.65515e-06
9.48892e-07
2.2991e-06
4.24537e-06
9.61336e-06
9.61125e-06
4.2453e-06
2.29914e-06
1.19619e-06
9.49067e-07
3.65417e-06
9.48579e-07
3.65481e-06
2.29882e-06
4.24746e-06
9.61238e-06
4.24776e-06
9.61452e-06
2.3e-06
9.49637e-07
3.65828e-06
1.19758e-06
2.301e-06
9.49553e-07
3.65781e-06
4.24758e-06
9.6138e-06
4.24785e-06
9.61778e-06
2.29995e-06
1.19661e-06
3.65513e-06
9.48906e-07
3.65631e-06
9.49013e-07
2.29909e-06
4.24755e-06
9.61558e-06
9.6147e-06
4.24698e-06
2.30001e-06
1.19696e-06
9.48944e-07
3.65657e-06
9.49237e-07
3.65796e-06
2.29909e-06
4.24767e-06
9.61921e-06
9.61812e-06
4.24705e-06
5.66583e-06
5.66494e-06
1.4266e-06
5.66475e-06
5.66379e-06
1.91745e-05
1.91807e-05
1.9187e-05
1.91808e-05
1.42846e-06
5.66381e-06
5.662e-06
5.66493e-06
5.66365e-06
1.91848e-05
1.91806e-05
2.2997e-06
9.49335e-07
3.65869e-06
1.19738e-06
2.30063e-06
9.4931e-07
3.6583e-06
4.24648e-06
9.60902e-06
4.24696e-06
9.61167e-06
4.24729e-06
9.6146e-06
4.24754e-06
9.61842e-06
2.29935e-06
1.19623e-06
9.48813e-07
3.65375e-06
9.48755e-07
3.65458e-06
2.29855e-06
2.29973e-06
1.19679e-06
9.48939e-07
3.65719e-06
9.49134e-07
3.65848e-06
2.29888e-06
4.24662e-06
9.61419e-06
9.61207e-06
4.24604e-06
4.24746e-06
9.6197e-06
9.61871e-06
4.24686e-06
1.9183e-05
1.91917e-05
1.91838e-05
1.91935e-05
1.42985e-06
5.66827e-06
5.67041e-06
5.6704e-06
5.67224e-06
1.9195e-05
1.91917e-05
1.91975e-05
1.91937e-05
1.91865e-05
1.91967e-05
1.91901e-05
1.92002e-05
5.66617e-06
5.66844e-06
1.42866e-06
5.6678e-06
5.67e-06
1.9209e-05
1.91978e-05
1.92111e-05
1.92012e-05
1.43057e-06
5.67103e-06
5.67282e-06
5.66896e-06
5.67104e-06
4.24598e-06
9.61482e-06
4.24619e-06
9.6156e-06
2.29913e-06
3.65556e-06
9.49728e-07
1.19772e-06
2.29931e-06
3.65599e-06
9.50159e-07
2.29915e-06
3.65577e-06
9.49573e-07
1.19753e-06
2.29938e-06
3.65535e-06
9.50085e-07
4.24632e-06
9.62248e-06
9.61785e-06
4.24682e-06
4.24624e-06
9.62008e-06
9.61591e-06
4.24674e-06
2.29943e-06
1.19791e-06
3.65724e-06
9.50981e-07
3.65666e-06
9.50604e-07
2.29939e-06
2.29944e-06
1.19795e-06
3.65658e-06
9.51077e-07
3.65585e-06
9.50619e-07
2.29941e-06
5.6663e-06
5.66438e-06
1.42823e-06
5.66635e-06
5.66385e-06
1.91836e-05
1.91873e-05
1.9204e-05
1.91923e-05
1.43019e-06
5.67013e-06
5.66752e-06
5.66735e-06
5.66491e-06
1.91996e-05
1.91877e-05
2.29939e-06
3.65648e-06
9.49788e-07
1.19757e-06
2.2994e-06
3.65692e-06
9.50324e-07
4.24557e-06
9.61356e-06
4.24543e-06
9.61492e-06
2.29913e-06
9.49725e-07
3.65449e-06
1.19822e-06
2.29911e-06
9.5048e-07
3.65434e-06
4.24645e-06
9.62424e-06
9.61997e-06
4.24698e-06
2.29974e-06
1.19783e-06
3.65806e-06
9.5142e-07
3.65761e-06
9.50888e-07
2.29995e-06
4.24586e-06
9.61798e-06
9.61507e-06
4.24664e-06
2.29954e-06
1.19906e-06
9.51996e-07
3.65612e-06
9.51281e-07
3.65503e-06
2.29984e-06
4.24618e-06
9.61548e-06
4.24704e-06
9.61591e-06
2.29866e-06
9.48794e-07
3.65661e-06
1.19609e-06
2.29915e-06
9.48784e-07
3.65501e-06
4.24613e-06
9.61903e-06
4.2471e-06
9.61838e-06
2.29902e-06