/*--------------------------------*- C++ -*----------------------------------*\
| =========                 |                                                 |
| \\      /  F ield         | OpenFOAM: The Open Source CFD Toolbox           |
|  \\    /   O peration     | Version:  v1906                                 |
|   \\  /    A nd           | Web:      www.OpenFOAM.com                      |
|    \\/     M anipulation  |                                                 |
\*---------------------------------------------------------------------------*/
FoamFile
{
    version     2.0;
    format      ascii;
    class       volScalarField;
    location    "625";
    object      k;
}
// * * * * * * * * * * * * * * * * * * * * * * * * * * * * * * * * * * * * * //

dimensions      [0 2 -2 0 0 0 0];


internalField   nonuniform List<scalar> 
42616
(
3.93016e-05
5.18559e-05
5.17043e-05
5.39332e-05
3.97194e-05
5.19875e-05
5.2024e-05
5.4107e-05
4.02086e-05
5.20595e-05
5.21886e-05
5.40034e-05
4.04245e-05
5.23594e-05
5.23303e-05
5.42663e-05
4.05644e-05
5.25103e-05
5.24293e-05
5.45289e-05
4.08591e-05
5.246e-05
5.23951e-05
5.43979e-05
4.11129e-05
5.26115e-05
5.26371e-05
5.43489e-05
4.14145e-05
5.2878e-05
5.30803e-05
5.48067e-05
4.15832e-05
5.28063e-05
5.28799e-05
5.47272e-05
4.15915e-05
5.26791e-05
5.24667e-05
5.44062e-05
4.18344e-05
5.29687e-05
5.27491e-05
5.47517e-05
4.20736e-05
5.31191e-05
5.32726e-05
5.51608e-05
4.21148e-05
5.28864e-05
5.31715e-05
5.46895e-05
4.19896e-05
5.26476e-05
5.26644e-05
5.40527e-05
4.21242e-05
5.2917e-05
5.25938e-05
5.50836e-05
4.23217e-05
5.3087e-05
5.29199e-05
5.53339e-05
4.22786e-05
5.26424e-05
5.30769e-05
5.40608e-05
4.24391e-05
5.25486e-05
5.26917e-05
5.3165e-05
4.21063e-05
5.31798e-05
5.27258e-05
5.62712e-05
4.19559e-05
5.24787e-05
5.36879e-05
5.71077e-05
4.19636e-05
5.10127e-05
4.98008e-05
5.06383e-05
5.36658e-05
5.16262e-05
5.17778e-05
5.38633e-05
5.16131e-05
5.1622e-05
5.17861e-05
5.17623e-05
5.36991e-05
5.16341e-05
5.1741e-05
5.3851e-05
5.36949e-05
5.39237e-05
5.16572e-05
5.18324e-05
5.18869e-05
5.19296e-05
5.39106e-05
5.39681e-05
5.16257e-05
5.16709e-05
5.1877e-05
5.19119e-05
5.1866e-05
5.19797e-05
5.20725e-05
5.37446e-05
5.39737e-05
5.18424e-05
5.19615e-05
5.20643e-05
5.40851e-05
5.401e-05
5.42424e-05
5.19827e-05
5.19454e-05
5.22281e-05
5.20448e-05
5.39855e-05
5.40074e-05
5.19834e-05
5.1985e-05
5.22471e-05
5.21729e-05
5.20839e-05
5.20137e-05
5.20442e-05
5.40311e-05
5.41475e-05
5.20836e-05
5.21467e-05
5.20578e-05
5.39955e-05
5.42851e-05
5.42723e-05
5.22822e-05
5.21094e-05
5.23246e-05
5.23166e-05
5.40549e-05
5.42752e-05
5.23017e-05
5.22295e-05
5.23362e-05
5.23347e-05
5.2037e-05
5.22856e-05
5.21705e-05
5.41891e-05
5.42722e-05
5.20529e-05
5.23045e-05
5.21858e-05
5.4165e-05
5.42776e-05
5.42096e-05
5.23189e-05
5.23696e-05
5.23146e-05
5.24654e-05
5.43299e-05
5.4405e-05
5.23256e-05
5.23438e-05
5.23049e-05
5.23662e-05
5.23033e-05
5.25036e-05
5.25706e-05
5.42972e-05
5.43036e-05
5.23056e-05
5.24117e-05
5.25576e-05
5.45001e-05
5.42462e-05
5.43709e-05
5.23403e-05
5.24674e-05
5.24702e-05
5.24436e-05
5.44198e-05
5.43141e-05
5.23186e-05
5.23794e-05
5.24669e-05
5.23742e-05
5.25946e-05
5.24724e-05
5.25668e-05
5.43183e-05
5.42427e-05
5.25831e-05
5.24078e-05
5.25588e-05
5.44028e-05
5.44085e-05
5.45076e-05
5.25033e-05
5.24429e-05
5.26095e-05
5.25735e-05
5.43238e-05
5.44625e-05
5.25007e-05
5.23741e-05
5.25989e-05
5.2552e-05
5.25108e-05
5.25137e-05
5.24497e-05
5.42508e-05
5.44256e-05
5.25034e-05
5.24838e-05
5.24412e-05
5.42956e-05
5.45519e-05
5.46693e-05
5.26522e-05
5.26584e-05
5.28042e-05
5.28486e-05
5.45429e-05
5.47289e-05
5.26459e-05
5.26854e-05
5.28269e-05
5.30322e-05
5.2467e-05
5.28495e-05
5.28258e-05
5.45478e-05
5.49712e-05
5.24612e-05
5.3035e-05
5.2853e-05
5.4747e-05
5.4698e-05
5.46061e-05
5.28311e-05
5.2866e-05
5.28208e-05
5.2833e-05
5.47539e-05
5.46098e-05
5.28606e-05
5.30675e-05
5.28544e-05
5.29923e-05
5.29087e-05
5.28604e-05
5.2938e-05
5.50173e-05
5.47426e-05
5.29396e-05
5.3021e-05
5.29653e-05
5.47413e-05
5.46041e-05
5.4514e-05
5.2782e-05
5.27722e-05
5.2723e-05
5.26793e-05
5.46013e-05
5.4455e-05
5.28134e-05
5.2847e-05
5.2707e-05
5.25098e-05
5.29036e-05
5.2679e-05
5.26613e-05
5.46943e-05
5.42249e-05
5.29226e-05
5.25038e-05
5.26367e-05
5.44011e-05
5.45573e-05
5.47991e-05
5.27321e-05
5.26847e-05
5.29368e-05
5.29152e-05
5.44886e-05
5.47835e-05
5.27078e-05
5.24811e-05
5.28744e-05
5.25958e-05
5.26371e-05
5.28756e-05
5.27321e-05
5.42296e-05
5.44964e-05
5.26044e-05
5.25609e-05
5.26794e-05
5.46309e-05
5.48505e-05
5.48663e-05
5.29922e-05
5.29917e-05
5.30456e-05
5.30869e-05
5.48521e-05
5.49387e-05
5.29532e-05
5.27765e-05
5.30589e-05
5.31721e-05
5.28874e-05
5.31138e-05
5.32238e-05
5.46318e-05
5.50401e-05
5.28428e-05
5.32033e-05
5.32412e-05
5.51175e-05
5.48707e-05
5.46951e-05
5.30447e-05
5.30873e-05
5.29505e-05
5.29633e-05
5.49479e-05
5.46879e-05
5.30616e-05
5.32303e-05
5.2992e-05
5.3228e-05
5.32501e-05
5.30105e-05
5.31118e-05
5.50965e-05
5.49905e-05
5.32753e-05
5.32669e-05
5.31465e-05
5.47881e-05
5.46916e-05
5.45214e-05
5.28915e-05
5.28761e-05
5.27306e-05
5.26995e-05
5.46624e-05
5.44246e-05
5.29303e-05
5.3156e-05
5.27591e-05
5.27877e-05
5.28679e-05
5.26514e-05
5.24344e-05
5.49552e-05
5.45001e-05
5.29018e-05
5.27339e-05
5.24572e-05
5.4037e-05
5.45298e-05
5.46406e-05
5.27188e-05
5.26941e-05
5.28157e-05
5.28067e-05
5.44507e-05
5.47197e-05
5.27385e-05
5.27122e-05
5.27774e-05
5.2595e-05
5.24333e-05
5.28132e-05
5.29198e-05
5.45018e-05
5.44242e-05
5.24549e-05
5.25909e-05
5.28964e-05
5.48982e-05
5.47203e-05
5.48907e-05
5.29337e-05
5.28979e-05
5.3041e-05
5.30304e-05
5.47809e-05
5.485e-05
5.2872e-05
5.25935e-05
5.29757e-05
5.27419e-05
5.31716e-05
5.30842e-05
5.34039e-05
5.44346e-05
5.45291e-05
5.31255e-05
5.28016e-05
5.33326e-05
5.53533e-05
5.4894e-05
5.43681e-05
5.30249e-05
5.30277e-05
5.26867e-05
5.27512e-05
5.48565e-05
5.44587e-05
5.29647e-05
5.28582e-05
5.27667e-05
5.30471e-05
5.33826e-05
5.28438e-05
5.25821e-05
5.46049e-05
5.48232e-05
5.33118e-05
5.30731e-05
5.26576e-05
5.42435e-05
5.4373e-05
5.49687e-05
5.26671e-05
5.26575e-05
5.29434e-05
5.26853e-05
5.44101e-05
5.43934e-05
5.27687e-05
5.31132e-05
5.29979e-05
5.31219e-05
5.21952e-05
5.24838e-05
5.17278e-05
5.49026e-05
5.49554e-05
5.23328e-05
5.28732e-05
5.18158e-05
5.31182e-05
5.50876e-05
5.44678e-05
5.3064e-05
5.28688e-05
5.29134e-05
5.30813e-05
5.45647e-05
5.52217e-05
5.30263e-05
5.30478e-05
5.2641e-05
5.25852e-05
5.1785e-05
5.3155e-05
5.36432e-05
5.48946e-05
5.42706e-05
5.18401e-05
5.25936e-05
5.3333e-05
5.57169e-05
5.42546e-05
5.37762e-05
5.25388e-05
5.30128e-05
5.20914e-05
5.22197e-05
5.52094e-05
5.38342e-05
5.23801e-05
5.26044e-05
5.23056e-05
5.318e-05
5.43209e-05
5.27204e-05
5.47162e-05
5.43148e-05
5.5669e-05
5.41399e-05
5.36828e-05
5.48897e-05
5.74318e-05
5.39434e-05
5.44334e-05
5.21518e-05
5.21951e-05
5.25892e-05
5.23838e-05
5.37728e-05
5.39842e-05
5.24938e-05
5.32183e-05
5.25106e-05
5.1812e-05
5.44165e-05
5.20078e-05
5.05222e-05
5.57266e-05
5.28391e-05
5.47059e-05
5.1432e-05
5.04988e-05
5.1298e-05
5.41881e-05
5.15915e-05
5.14774e-05
5.39141e-05
5.13699e-05
5.02231e-05
4.18798e-05
4.09624e-05
4.02264e-05
4.90954e-05
5.20103e-05
4.89071e-05
3.92461e-05
3.93403e-05
3.92292e-05
3.92604e-05
6.8661e-05
7.34874e-05
6.86306e-05
7.35258e-05
7.12557e-05
7.12722e-05
6.8636e-05
7.34899e-05
6.85829e-05
7.35331e-05
3.945e-05
3.93135e-05
3.9411e-05
3.95927e-05
3.97083e-05
3.96486e-05
3.98049e-05
6.09064e-05
6.4983e-05
4.71925e-05
5.19142e-05
6.08598e-05
6.4985e-05
4.72831e-05
7.1248e-05
7.12794e-05
6.08639e-05
4.70868e-05
6.48649e-05
5.17915e-05
6.07802e-05
4.71861e-05
6.4948e-05
7.01316e-05
7.01364e-05
5.40096e-05
7.01602e-05
7.01732e-05
6.87444e-05
7.35778e-05
6.8712e-05
7.36018e-05
7.12875e-05
7.13106e-05
6.87843e-05
7.35862e-05
6.87404e-05
7.36088e-05
3.97678e-05
3.97595e-05
3.98921e-05
4.01008e-05
3.99428e-05
4.00495e-05
3.99913e-05
6.08935e-05
6.49406e-05
4.74527e-05
5.19905e-05
6.09086e-05
6.49051e-05
4.7469e-05
7.13065e-05
7.13289e-05
6.09286e-05
4.74536e-05
6.49919e-05
5.20701e-05
6.09248e-05
4.75059e-05
6.49953e-05
7.01015e-05
7.01275e-05
5.40674e-05
7.00035e-05
7.00331e-05
6.87906e-05
7.36185e-05
6.87748e-05
7.36269e-05
7.13524e-05
7.13821e-05
6.88045e-05
7.36257e-05
6.88004e-05
7.36334e-05
4.0023e-05
4.0141e-05
4.00075e-05
4.04001e-05
4.03188e-05
4.03785e-05
4.02208e-05
6.08953e-05
6.49234e-05
4.75138e-05
5.2129e-05
6.08621e-05
6.50249e-05
4.7564e-05
7.13525e-05
7.13711e-05
6.09365e-05
4.76084e-05
6.50258e-05
5.22314e-05
6.09197e-05
4.76516e-05
6.50686e-05
6.99313e-05
6.99513e-05
5.39916e-05
7.00259e-05
7.00277e-05
6.87982e-05
7.36371e-05
6.87957e-05
7.36535e-05
7.14077e-05
7.14221e-05
6.87816e-05
7.36397e-05
6.87917e-05
7.36544e-05
4.04191e-05
4.0434e-05
4.03462e-05
4.05075e-05
4.06638e-05
4.05746e-05
4.07054e-05
6.11097e-05
6.51377e-05
4.78168e-05
5.24245e-05
6.1043e-05
6.51591e-05
4.79052e-05
7.13906e-05
7.14083e-05
6.10748e-05
4.78146e-05
6.50996e-05
5.23513e-05
6.10248e-05
4.78685e-05
6.51018e-05
7.0218e-05
7.02119e-05
5.43889e-05
7.02935e-05
7.0294e-05
6.87721e-05
7.36826e-05
6.87876e-05
7.37021e-05
7.1428e-05
7.14395e-05
6.87681e-05
7.36872e-05
6.87718e-05
7.37082e-05
4.07215e-05
4.06266e-05
4.07962e-05
4.07875e-05
4.08203e-05
4.07423e-05
4.09397e-05
6.11091e-05
6.51156e-05
4.80994e-05
5.25081e-05
6.11221e-05
6.50447e-05
4.81202e-05
7.14238e-05
7.14349e-05
6.10719e-05
4.80305e-05
6.50671e-05
5.24303e-05
6.10845e-05
4.80641e-05
6.50138e-05
7.02934e-05
7.03131e-05
5.45038e-05
7.01954e-05
7.02164e-05
6.87608e-05
7.37345e-05
6.87407e-05
7.37659e-05
7.14754e-05
7.15161e-05
6.87347e-05
7.37383e-05
6.87329e-05
7.37697e-05
4.08428e-05
4.07669e-05
4.09391e-05
4.10476e-05
4.09914e-05
4.09776e-05
4.09244e-05
6.09524e-05
6.49531e-05
4.80999e-05
5.2459e-05
6.09883e-05
6.49907e-05
4.8087e-05
7.14603e-05
7.15065e-05
6.09055e-05
4.80587e-05
6.48709e-05
5.23948e-05
6.09547e-05
4.80506e-05
6.48746e-05
7.00152e-05
7.00176e-05
5.43005e-05
6.99992e-05
6.99964e-05
6.89226e-05
7.38034e-05
6.88571e-05
7.38218e-05
7.15559e-05
7.15726e-05
6.89527e-05
7.3812e-05
6.88457e-05
7.38329e-05
4.10771e-05
4.11078e-05
4.09365e-05
4.13389e-05
4.13602e-05
4.15332e-05
4.12954e-05
6.11857e-05
6.51853e-05
4.81346e-05
5.27078e-05
6.10433e-05
6.52787e-05
4.82391e-05
7.15764e-05
7.16164e-05
6.12293e-05
4.81459e-05
6.51624e-05
5.27956e-05
6.10203e-05
4.82972e-05
6.53866e-05
7.02096e-05
7.02271e-05
5.44936e-05
7.03375e-05
7.03799e-05
6.8944e-05
7.3825e-05
6.89664e-05
7.38177e-05
7.15705e-05
7.15679e-05
6.90395e-05
7.3839e-05
6.90613e-05
7.38288e-05
4.14428e-05
4.16314e-05
4.144e-05
4.15704e-05
4.15674e-05
4.16978e-05
4.16703e-05
6.12983e-05
6.53033e-05
4.85291e-05
5.28828e-05
6.12969e-05
6.52375e-05
4.85695e-05
7.16071e-05
7.15745e-05
6.14451e-05
4.86611e-05
6.55699e-05
5.30863e-05
6.14369e-05
4.86965e-05
6.54975e-05
7.04194e-05
7.04684e-05
5.48231e-05
7.03704e-05
7.03881e-05
6.86921e-05
7.38092e-05
6.87616e-05
7.38344e-05
7.15679e-05
7.15959e-05
6.86593e-05
7.38115e-05
6.87813e-05
7.38291e-05
4.1567e-05
4.16766e-05
4.1674e-05
4.15837e-05
4.15451e-05
4.14575e-05
4.15862e-05
6.10137e-05
6.50236e-05
4.85674e-05
5.27414e-05
6.11367e-05
6.493e-05
4.85268e-05
7.15331e-05
7.15479e-05
6.09498e-05
4.86463e-05
6.50445e-05
5.27214e-05
6.11581e-05
4.85331e-05
6.48222e-05
7.01341e-05
7.01126e-05
5.45395e-05
6.99933e-05
6.99689e-05
6.88412e-05
7.39028e-05
6.87284e-05
7.39408e-05
7.16548e-05
7.16917e-05
6.87486e-05
7.38953e-05
6.86291e-05
7.39375e-05
4.15495e-05
4.14161e-05
4.15553e-05
4.17586e-05
4.17547e-05
4.14277e-05
4.15719e-05
6.09895e-05
6.49695e-05
4.84122e-05
5.26962e-05
6.09107e-05
6.51329e-05
4.84127e-05
7.16147e-05
7.16666e-05
6.08168e-05
4.82675e-05
6.47231e-05
5.24629e-05
6.07589e-05
4.82526e-05
6.48859e-05
6.99894e-05
6.99802e-05
5.44068e-05
7.01662e-05
7.01604e-05
6.90207e-05
7.39612e-05
6.89631e-05
7.39599e-05
7.17123e-05
7.17186e-05
6.90104e-05
7.39655e-05
6.89114e-05
7.39707e-05
4.18468e-05
4.15253e-05
4.16632e-05
4.20223e-05
4.20747e-05
4.20987e-05
4.21488e-05
6.13271e-05
6.53197e-05
4.86216e-05
5.30393e-05
6.12132e-05
6.53782e-05
4.87255e-05
7.17137e-05
7.17429e-05
6.13087e-05
4.84151e-05
6.51728e-05
5.29294e-05
6.11198e-05
4.86136e-05
6.53315e-05
7.04214e-05
7.0438e-05
5.49255e-05
7.05775e-05
7.06265e-05
6.8923e-05
7.39392e-05
6.89951e-05
7.39301e-05
7.17057e-05
7.16983e-05
6.9002e-05
7.39567e-05
6.90611e-05
7.39446e-05
4.21194e-05
4.22294e-05
4.22331e-05
4.21206e-05
4.21336e-05
4.23547e-05
4.22428e-05
6.13809e-05
6.53711e-05
4.88935e-05
5.31143e-05
6.14141e-05
6.52766e-05
4.88961e-05
7.17441e-05
7.17285e-05
6.1507e-05
4.90046e-05
6.55167e-05
5.32939e-05
6.15053e-05
4.90319e-05
6.55054e-05
7.07304e-05
7.0788e-05
5.51404e-05
7.05907e-05
7.06086e-05
6.86308e-05
7.39141e-05
6.87247e-05
7.39145e-05
7.16854e-05
7.17115e-05
6.87052e-05
7.39283e-05
6.87854e-05
7.3929e-05
4.2109e-05
4.23471e-05
4.21628e-05
4.20102e-05
4.19743e-05
4.21165e-05
4.18361e-05
6.07201e-05
6.4921e-05
4.87473e-05
5.27688e-05
6.09944e-05
6.47585e-05
4.86061e-05
7.17032e-05
7.17187e-05
6.08161e-05
4.89415e-05
6.5107e-05
5.29899e-05
6.1087e-05
4.87722e-05
6.49382e-05
6.98651e-05
6.98628e-05
5.42426e-05
6.94715e-05
6.9477e-05
6.8682e-05
7.39546e-05
6.85948e-05
7.40075e-05
7.1773e-05
7.1805e-05
6.86688e-05
7.39529e-05
6.86453e-05
7.3996e-05
4.19553e-05
4.20286e-05
4.18224e-05
4.20228e-05
4.19837e-05
4.18581e-05
4.19915e-05
6.08612e-05
6.49045e-05
4.84177e-05
5.2658e-05
6.06082e-05
6.51421e-05
4.84198e-05
7.1738e-05
7.17471e-05
6.08315e-05
4.84455e-05
6.49784e-05
5.26179e-05
6.06882e-05
4.84184e-05
6.50424e-05
6.97137e-05
6.97302e-05
5.42578e-05
7.01909e-05
7.02266e-05
6.90344e-05
7.40781e-05
6.88833e-05
7.40888e-05
7.18162e-05
7.18225e-05
6.88703e-05
7.40653e-05
6.87962e-05
7.40811e-05
4.20697e-05
4.18509e-05
4.22357e-05
4.23179e-05
4.23663e-05
4.1989e-05
4.25972e-05
6.13796e-05
6.52967e-05
4.87148e-05
5.2996e-05
6.12491e-05
6.52538e-05
4.88461e-05
7.17526e-05
7.17749e-05
6.1132e-05
4.84623e-05
6.49368e-05
5.26112e-05
6.10478e-05
4.8556e-05
6.48844e-05
7.08826e-05
7.08479e-05
5.52915e-05
7.10581e-05
7.09861e-05
6.86663e-05
7.39931e-05
6.90158e-05
7.39317e-05
7.17833e-05
7.17722e-05
6.86071e-05
7.39938e-05
6.87628e-05
7.39596e-05
4.24116e-05
4.21788e-05
4.25983e-05
4.22758e-05
4.23723e-05
4.25715e-05
4.22055e-05
6.12044e-05
6.51792e-05
4.89909e-05
5.30727e-05
6.13881e-05
6.50527e-05
4.89765e-05
7.17823e-05
7.18265e-05
6.11249e-05
4.88547e-05
6.49633e-05
5.29959e-05
6.11681e-05
4.88813e-05
6.50123e-05
7.10482e-05
7.10139e-05
5.49419e-05
7.05345e-05
7.06108e-05
6.83021e-05
7.39717e-05
6.82363e-05
7.41106e-05
7.17754e-05
7.18671e-05
6.89818e-05
7.40242e-05
6.86321e-05
7.4139e-05
4.22853e-05
4.26083e-05
4.19372e-05
4.24148e-05
4.2201e-05
4.25435e-05
4.15889e-05
6.00205e-05
6.46282e-05
4.84652e-05
5.25096e-05
6.04414e-05
6.44605e-05
4.82604e-05
7.19299e-05
7.19436e-05
6.06314e-05
4.88292e-05
6.52147e-05
5.30644e-05
6.08814e-05
4.87048e-05
6.52205e-05
6.88089e-05
6.92095e-05
5.33889e-05
6.80891e-05
6.84119e-05
6.9513e-05
7.41885e-05
6.92891e-05
7.40972e-05
7.19444e-05
7.19351e-05
6.87544e-05
7.41278e-05
6.91346e-05
7.40467e-05
4.22222e-05
4.24076e-05
4.16054e-05
4.23062e-05
4.2401e-05
4.22163e-05
4.27223e-05
6.10342e-05
6.51823e-05
4.81761e-05
5.27642e-05
6.02017e-05
6.58234e-05
4.82846e-05
7.17538e-05
7.17285e-05
6.02679e-05
4.83224e-05
6.48969e-05
5.25799e-05
6.02404e-05
4.8307e-05
6.4695e-05
6.90138e-05
6.87174e-05
5.3914e-05
7.02217e-05
6.96259e-05
6.80964e-05
7.38588e-05
6.86831e-05
7.39033e-05
7.16948e-05
7.1668e-05
6.8547e-05
7.39365e-05
6.83688e-05
7.39855e-05
4.2405e-05
4.22497e-05
4.33266e-05
4.1921e-05
4.22042e-05
4.27047e-05
4.38299e-05
6.22226e-05
6.59533e-05
4.92541e-05
5.31452e-05
6.21497e-05
6.50089e-05
4.93296e-05
7.18105e-05
7.20165e-05
6.25026e-05
4.87816e-05
6.52414e-05
5.3118e-05
6.13491e-05
4.92815e-05
6.60611e-05
7.31184e-05
7.32349e-05
5.73183e-05
7.3547e-05
7.43271e-05
6.85259e-05
7.39794e-05
6.80186e-05
7.40517e-05
7.17298e-05
7.19069e-05
6.92465e-05
7.39829e-05
6.93582e-05
7.39915e-05
4.2177e-05
4.27225e-05
4.37445e-05
4.19946e-05
4.18925e-05
4.16799e-05
4.10572e-05
6.00388e-05
6.43089e-05
4.91158e-05
5.23408e-05
6.11455e-05
6.40364e-05
4.85859e-05
7.19087e-05
7.16535e-05
6.11908e-05
4.9741e-05
6.66853e-05
5.35483e-05
6.30576e-05
4.95879e-05
6.4972e-05
7.14518e-05
7.21702e-05
5.47809e-05
6.85748e-05
6.8342e-05
6.41972e-05
7.36685e-05
6.82239e-05
7.44067e-05
7.17808e-05
6.61962e-05
6.23347e-05
7.34944e-05
6.66659e-05
7.41694e-05
2.97877e-05
3.64683e-05
3.62756e-05
4.31946e-05
3.01877e-05
3.73486e-05
3.68562e-05
5.83371e-05
6.39217e-05
4.71946e-05
4.9705e-05
5.85802e-05
6.57554e-05
4.52384e-05
7.08523e-05
6.44961e-05
5.59892e-05
4.63914e-05
6.14276e-05
4.77514e-05
5.71393e-05
4.41809e-05
6.25585e-05
6.56954e-05
6.47009e-05
4.96844e-05
6.67396e-05
6.57858e-05
7.12298e-05
7.12018e-05
7.12325e-05
7.12022e-05
5.36955e-05
6.98842e-05
6.98763e-05
6.98966e-05
6.98863e-05
6.86176e-05
7.3481e-05
7.34544e-05
6.86274e-05
6.86323e-05
7.35129e-05
7.34909e-05
6.86489e-05
6.0735e-05
5.16147e-05
6.48004e-05
4.70249e-05
6.48099e-05
4.69823e-05
6.07525e-05
6.07494e-05
5.17169e-05
6.4955e-05
4.70779e-05
6.49201e-05
4.70156e-05
6.07762e-05
7.12545e-05
7.12331e-05
5.38119e-05
7.00814e-05
7.00994e-05
7.00572e-05
7.00783e-05
7.12529e-05
7.12341e-05
6.8586e-05
7.34827e-05
7.34554e-05
6.85814e-05
6.07025e-05
5.16125e-05
6.47818e-05
4.6978e-05
6.47955e-05
4.69627e-05
6.0699e-05
6.85841e-05
7.34893e-05
7.34565e-05
6.85815e-05
6.06994e-05
5.16024e-05
4.69832e-05
6.48102e-05
4.69601e-05
6.47968e-05
6.06988e-05
6.07649e-05
5.17084e-05
6.49807e-05
4.7092e-05
6.49403e-05
4.69862e-05
6.08478e-05
6.86555e-05
7.35137e-05
7.34942e-05
6.87101e-05
6.0753e-05
5.16462e-05
4.70772e-05
6.4987e-05
4.69568e-05
6.48936e-05
6.08457e-05
6.86468e-05
7.35233e-05
7.34951e-05
6.87091e-05
7.12434e-05
7.12071e-05
5.36866e-05
6.99372e-05
6.99733e-05
6.98969e-05
6.99205e-05
7.1247e-05
7.12124e-05
6.06997e-05
5.15891e-05
4.6999e-05
6.48492e-05
4.69269e-05
6.48129e-05
6.07639e-05
6.07039e-05
5.16316e-05
4.70299e-05
6.49772e-05
4.69313e-05
6.48748e-05
6.07839e-05
6.85918e-05
7.34982e-05
7.34617e-05
6.86453e-05
6.86007e-05
7.35273e-05
7.34954e-05
6.8665e-05
5.3727e-05
7.01143e-05
7.01163e-05
7.00319e-05
7.0025e-05
7.12658e-05
7.12377e-05
7.12695e-05
7.12392e-05
7.12345e-05
7.12733e-05
7.12379e-05
7.12787e-05
6.98878e-05
6.98837e-05
5.37428e-05
6.99597e-05
6.9974e-05
7.13147e-05
7.12787e-05
7.13197e-05
7.12843e-05
5.3812e-05
7.00857e-05
7.01099e-05
6.9985e-05
7.00033e-05
6.86779e-05
7.35158e-05
6.86522e-05
7.35301e-05
6.07987e-05
6.48025e-05
4.70763e-05
5.17165e-05
6.0758e-05
6.4855e-05
4.71367e-05
6.08203e-05
6.49586e-05
4.71398e-05
5.18762e-05
6.07824e-05
6.49657e-05
4.71989e-05
6.86672e-05
7.35722e-05
7.35335e-05
6.8706e-05
6.86817e-05
7.3545e-05
7.3532e-05
6.87052e-05
6.08087e-05
5.17958e-05
6.49705e-05
4.72814e-05
6.48719e-05
4.72063e-05
6.08643e-05
6.0828e-05
5.19086e-05
6.49504e-05
4.73068e-05
6.49631e-05
4.72551e-05
6.08674e-05
7.00833e-05
7.01008e-05
5.39375e-05
7.0082e-05
7.00889e-05
7.12533e-05
7.12667e-05
7.12864e-05
7.12723e-05
5.39683e-05
7.00358e-05
7.00152e-05
7.00741e-05
7.00735e-05
7.12781e-05
7.1266e-05
6.0753e-05
6.47844e-05
4.70116e-05
5.16755e-05
6.07005e-05
6.48506e-05
4.70735e-05
6.86406e-05
7.34969e-05
6.8584e-05
7.35348e-05
6.07598e-05
4.70272e-05
6.48233e-05
5.17466e-05
6.07018e-05
4.7094e-05
6.49111e-05
6.86508e-05
7.35808e-05
7.35415e-05
6.87295e-05
6.07726e-05
5.17722e-05
6.49886e-05
4.72559e-05
6.48725e-05
4.71577e-05
6.0879e-05
6.86548e-05
7.35636e-05
7.35401e-05
6.87267e-05
6.07792e-05
5.18312e-05
4.72711e-05
6.4987e-05
4.7179e-05
6.49277e-05
6.08803e-05
6.87387e-05
7.35162e-05
6.87161e-05
7.35305e-05
6.09115e-05
4.7191e-05
6.50005e-05
5.19562e-05
6.08591e-05
4.72952e-05
6.50398e-05
6.87429e-05
7.35268e-05
6.87161e-05
7.35428e-05
6.0908e-05
5.19567e-05
6.49582e-05
4.7417e-05
6.49814e-05
4.736e-05
6.09133e-05
6.87375e-05
7.35444e-05
7.35326e-05
6.87365e-05
6.09147e-05
5.20292e-05
4.74536e-05
6.50362e-05
4.73857e-05
6.50405e-05
6.09221e-05
6.87422e-05
7.35544e-05
7.35447e-05
6.87426e-05
6.99623e-05
6.99948e-05
5.38155e-05
7.00344e-05
7.00573e-05
7.12511e-05
7.12785e-05
7.13048e-05
7.12818e-05
5.38906e-05
7.00845e-05
7.00748e-05
7.00512e-05
7.00665e-05
7.12991e-05
7.12802e-05
6.08826e-05
4.71342e-05
6.49937e-05
5.19332e-05
6.0801e-05
4.72398e-05
6.50431e-05
6.87183e-05
7.35053e-05
6.86575e-05
7.3538e-05
6.87324e-05
7.35312e-05
6.8677e-05
7.35481e-05
6.08777e-05
5.1882e-05
4.73797e-05
6.49923e-05
4.7288e-05
6.49598e-05
6.0925e-05
6.08947e-05
5.20115e-05
4.74256e-05
6.50439e-05
4.73406e-05
6.50452e-05
6.09317e-05
6.87249e-05
7.35613e-05
7.35422e-05
6.87408e-05
6.87373e-05
7.35593e-05
7.35498e-05
6.87479e-05
7.12678e-05
7.12854e-05
7.12717e-05
7.12903e-05
5.40613e-05
7.01319e-05
7.01569e-05
7.01611e-05
7.01755e-05
7.12936e-05
7.12852e-05
7.12989e-05
7.12902e-05
7.13184e-05
7.13439e-05
7.13232e-05
7.13476e-05
7.01126e-05
7.01376e-05
5.41152e-05
7.01881e-05
7.02135e-05
7.13597e-05
7.13453e-05
7.13615e-05
7.13486e-05
5.41862e-05
7.02276e-05
7.02483e-05
7.02035e-05
7.02283e-05
6.87271e-05
7.35475e-05
6.87078e-05
7.35677e-05
6.09273e-05
6.49907e-05
4.73615e-05
5.20751e-05
6.08751e-05
6.50718e-05
4.74436e-05
6.09087e-05
6.494e-05
4.73582e-05
5.19639e-05
6.08741e-05
6.49284e-05
4.74119e-05
6.87484e-05
7.36172e-05
7.36045e-05
6.87721e-05
6.873e-05
7.36061e-05
7.35728e-05
6.87546e-05
6.09361e-05
5.21583e-05
6.51127e-05
4.76065e-05
6.50824e-05
4.7527e-05
6.0978e-05
6.09154e-05
5.19959e-05
6.49625e-05
4.75407e-05
6.49277e-05
4.74732e-05
6.09537e-05
7.00216e-05
6.99941e-05
5.39701e-05
7.00044e-05
6.9956e-05
7.12785e-05
7.13012e-05
7.13483e-05
7.13143e-05
5.39894e-05
7.00626e-05
7.0005e-05
7.00051e-05
6.99541e-05
7.13431e-05
7.1305e-05
6.09755e-05
6.50103e-05
4.73606e-05
5.20834e-05
6.08982e-05
6.50909e-05
4.74643e-05
6.87756e-05
7.3567e-05
6.87359e-05
7.35866e-05
6.09662e-05
4.73649e-05
6.49938e-05
5.20504e-05
6.08975e-05
4.74554e-05
6.50226e-05
6.87873e-05
7.36242e-05
7.36115e-05
6.88011e-05
6.09851e-05
5.21729e-05
6.51282e-05
4.76515e-05
6.51013e-05
4.75622e-05
6.10217e-05
6.87789e-05
7.36097e-05
7.35902e-05
6.87953e-05
6.09751e-05
5.21132e-05
4.7626e-05
6.50592e-05
4.75433e-05
6.50281e-05
6.10118e-05
6.87072e-05
7.3546e-05
6.87311e-05
7.35609e-05
6.09025e-05
4.74935e-05
6.50225e-05
5.20818e-05
6.09177e-05
4.75079e-05
6.49607e-05
6.87134e-05
7.35545e-05
6.8738e-05
7.35565e-05
6.08808e-05
5.19967e-05
6.49087e-05
4.74882e-05
6.48965e-05
4.74767e-05
6.08654e-05
6.86895e-05
7.35967e-05
7.35652e-05
6.86694e-05
6.08875e-05
5.20671e-05
4.75089e-05
6.4872e-05
4.75093e-05
6.49244e-05
6.08616e-05
6.86932e-05
7.35744e-05
7.35569e-05
6.86641e-05
7.00928e-05
7.00734e-05
5.40732e-05
7.01198e-05
7.00715e-05
7.13006e-05
7.13224e-05
7.13514e-05
7.13306e-05
5.41157e-05
7.01582e-05
7.01209e-05
7.01305e-05
7.00753e-05
7.13518e-05
7.13252e-05
6.09281e-05
4.74874e-05
6.50328e-05
5.20838e-05
6.093e-05
4.75224e-05
6.49801e-05
6.87343e-05
7.35641e-05
6.87387e-05
7.35815e-05
6.87367e-05
7.35597e-05
6.87455e-05
7.35634e-05
6.09241e-05
5.21087e-05
4.75736e-05
6.50185e-05
4.75431e-05
6.4996e-05
6.09224e-05
6.09215e-05
5.20753e-05
4.75436e-05
6.48935e-05
4.75367e-05
6.49458e-05
6.09094e-05
6.87277e-05
7.36069e-05
7.35849e-05
6.87182e-05
6.87257e-05
7.35813e-05
7.35641e-05
6.87054e-05
7.12913e-05
7.12988e-05
7.12966e-05
7.13034e-05
5.40713e-05
6.99306e-05
6.99525e-05
6.99718e-05
7.00004e-05
7.13246e-05
7.12991e-05
7.13261e-05
7.13032e-05
7.13592e-05
7.13676e-05
7.13604e-05
7.13674e-05
7.02278e-05
7.02471e-05
5.4298e-05
7.01972e-05
7.0202e-05
7.13762e-05
7.13661e-05
7.13753e-05
7.13655e-05
5.43162e-05
7.01136e-05
7.01075e-05
7.01745e-05
7.01761e-05
6.87847e-05
7.36127e-05
6.87588e-05
7.36444e-05
6.10138e-05
6.51124e-05
4.76792e-05
5.23145e-05
6.09845e-05
6.51072e-05
4.77384e-05
6.10011e-05
6.49765e-05
4.76133e-05
5.21809e-05
6.09615e-05
6.50509e-05
4.76838e-05
6.87906e-05
7.36353e-05
7.36276e-05
6.87969e-05
6.87874e-05
7.36684e-05
7.36487e-05
6.88031e-05
6.10152e-05
5.23249e-05
6.50562e-05
4.78133e-05
6.50949e-05
4.77835e-05
6.10261e-05
6.10069e-05
5.22527e-05
6.51112e-05
4.78043e-05
6.5063e-05
4.77491e-05
6.10315e-05
7.00835e-05
7.00377e-05
5.41285e-05
7.01566e-05
7.01385e-05
7.13484e-05
7.13837e-05
7.14066e-05
7.13847e-05
5.41995e-05
7.0217e-05
7.02362e-05
7.01735e-05
7.01688e-05
7.14099e-05
7.13868e-05
6.10332e-05
6.51276e-05
4.7729e-05
5.23308e-05
6.10233e-05
6.51175e-05
4.77886e-05
6.88013e-05
7.36128e-05
6.8795e-05
7.36296e-05
6.10267e-05
4.77025e-05
6.50638e-05
5.22775e-05
6.10146e-05
4.77658e-05
6.50792e-05
6.88015e-05
7.36385e-05
7.36337e-05
6.87976e-05
6.10301e-05
5.23379e-05
6.50544e-05
4.78429e-05
6.51012e-05
4.7826e-05
6.10276e-05
6.87993e-05
7.36476e-05
7.36323e-05
6.87991e-05
6.10248e-05
5.23136e-05
4.78407e-05
6.50811e-05
4.7813e-05
6.5079e-05
6.10269e-05
6.87104e-05
7.36044e-05
6.86675e-05
7.36444e-05
6.0879e-05
4.75117e-05
6.48663e-05
5.20409e-05
6.08562e-05
4.75277e-05
6.49128e-05
6.8695e-05
7.3581e-05
6.86595e-05
7.36266e-05
6.09144e-05
5.22072e-05
6.51271e-05
4.77239e-05
6.50477e-05
4.76368e-05
6.10242e-05
6.87281e-05
7.36736e-05
7.36501e-05
6.88148e-05
6.08972e-05
5.20704e-05
4.76841e-05
6.5079e-05
4.75818e-05
6.49453e-05
6.10135e-05
6.87134e-05
7.36758e-05
7.3636e-05
6.88087e-05
7.01657e-05
7.01341e-05
5.42202e-05
7.01781e-05
7.01759e-05
7.13543e-05
7.13765e-05
7.13899e-05
7.1372e-05
5.4257e-05
7.01801e-05
7.02026e-05
7.01802e-05
7.01843e-05
7.13962e-05
7.1378e-05
6.09143e-05
4.75556e-05
6.48861e-05
5.20575e-05
6.0904e-05
4.7583e-05
6.4919e-05
6.87333e-05
7.36112e-05
6.87157e-05
7.36341e-05
6.87131e-05
7.35874e-05
6.86994e-05
7.36303e-05
6.09464e-05
5.22717e-05
4.77587e-05
6.50992e-05
4.77035e-05
6.50751e-05
6.10122e-05
6.09246e-05
5.20885e-05
4.77144e-05
6.50734e-05
4.76397e-05
6.49451e-05
6.10036e-05
6.8743e-05
7.36538e-05
7.36374e-05
6.87999e-05
6.87242e-05
7.36789e-05
7.36394e-05
6.87947e-05
7.13298e-05
7.13732e-05
7.13309e-05
7.13725e-05
5.40422e-05
7.01853e-05
7.01798e-05
7.00646e-05
7.00631e-05
7.14144e-05
7.13789e-05
7.14143e-05
7.13782e-05
7.13768e-05
7.13973e-05
7.1376e-05
7.13984e-05
7.00941e-05
7.00865e-05
5.42168e-05
7.00662e-05
7.00594e-05
7.14261e-05
7.13999e-05
7.14313e-05
7.14016e-05
5.42259e-05
7.00802e-05
7.00935e-05
7.00641e-05
7.0059e-05
6.88109e-05
7.36706e-05
6.88038e-05
7.36819e-05
6.10303e-05
6.50353e-05
4.78351e-05
5.2311e-05
6.10245e-05
6.50085e-05
4.78545e-05
6.10448e-05
6.51156e-05
4.78524e-05
5.24138e-05
6.10329e-05
6.51267e-05
4.78945e-05
6.87955e-05
7.3679e-05
7.36572e-05
6.87925e-05
6.88093e-05
7.36895e-05
7.36831e-05
6.88074e-05
6.10277e-05
5.23098e-05
6.50082e-05
4.79113e-05
6.50027e-05
4.78802e-05
6.10306e-05
6.10435e-05
5.24484e-05
6.51108e-05
4.79681e-05
6.51255e-05
4.79343e-05
6.10468e-05
7.02237e-05
7.02492e-05
5.43678e-05
7.02309e-05
7.02593e-05
7.14103e-05
7.1422e-05
7.14295e-05
7.14214e-05
5.44023e-05
7.01797e-05
7.0187e-05
7.02286e-05
7.02552e-05
7.1425e-05
7.142e-05
6.10102e-05
6.50294e-05
4.78471e-05
5.23096e-05
6.10211e-05
6.49975e-05
4.78485e-05
6.87886e-05
7.36499e-05
6.8795e-05
7.36632e-05
6.10169e-05
4.78547e-05
6.50792e-05
5.23473e-05
6.10218e-05
4.78613e-05
6.50723e-05
6.87766e-05
7.36829e-05
7.36584e-05
6.87749e-05
6.10034e-05
5.23037e-05
6.50034e-05
4.78633e-05
6.49917e-05
4.78519e-05
6.1002e-05
6.87832e-05
7.36759e-05
7.36651e-05
6.87765e-05
6.10108e-05
5.23528e-05
4.78897e-05
6.50471e-05
4.78716e-05
6.50655e-05
6.10077e-05
6.8862e-05
7.3676e-05
6.88252e-05
7.36871e-05
6.11118e-05
4.77929e-05
6.51047e-05
5.24195e-05
6.10347e-05
4.78976e-05
6.51867e-05
6.88642e-05
7.36807e-05
6.88207e-05
7.37012e-05
6.11141e-05
5.24755e-05
6.51379e-05
4.80511e-05
6.51581e-05
4.79843e-05
6.11251e-05
6.88628e-05
7.36926e-05
7.3688e-05
6.88674e-05
6.11182e-05
5.25119e-05
4.80731e-05
6.52108e-05
4.79933e-05
6.51965e-05
6.11336e-05
6.88665e-05
7.37088e-05
7.3703e-05
6.88741e-05
7.01774e-05
7.02044e-05
5.42951e-05
7.01617e-05
7.02025e-05
7.1397e-05
7.14124e-05
7.14243e-05
7.1409e-05
5.43132e-05
7.01273e-05
7.01509e-05
7.01558e-05
7.01939e-05
7.14228e-05
7.14124e-05
6.10856e-05
4.77991e-05
6.50981e-05
5.24123e-05
6.102e-05
4.78828e-05
6.51823e-05
6.88357e-05
7.36561e-05
6.88077e-05
7.36696e-05
6.8846e-05
7.36837e-05
6.88053e-05
7.37034e-05
6.10784e-05
5.23793e-05
4.79768e-05
6.50833e-05
4.79218e-05
6.50993e-05
6.10876e-05
6.10919e-05
5.24995e-05
4.80318e-05
6.52115e-05
4.7961e-05
6.5193e-05
6.11067e-05
6.88355e-05
7.36826e-05
7.36717e-05
6.88367e-05
6.88483e-05
7.37101e-05
7.37049e-05
6.88542e-05
7.14177e-05
7.14396e-05
7.1418e-05
7.14421e-05
5.44584e-05
7.03093e-05
7.03205e-05
7.0305e-05
7.03084e-05
7.14477e-05
7.14395e-05
7.14522e-05
7.14426e-05
7.14288e-05
7.1454e-05
7.14343e-05
7.14593e-05
7.00853e-05
7.01027e-05
5.4289e-05
7.01055e-05
7.01307e-05
7.14844e-05
7.14569e-05
7.14864e-05
7.14617e-05
5.43361e-05
7.01463e-05
7.01529e-05
7.011e-05
7.0134e-05
6.87796e-05
7.36892e-05
6.88019e-05
7.36931e-05
6.10214e-05
6.50117e-05
4.79475e-05
5.23898e-05
6.10263e-05
6.50296e-05
4.79819e-05
6.10303e-05
6.50921e-05
4.79962e-05
5.24643e-05
6.10423e-05
6.50357e-05
4.80147e-05
6.87601e-05
7.37291e-05
7.37056e-05
6.87442e-05
6.87628e-05
7.37156e-05
7.36946e-05
6.8738e-05
6.10147e-05
5.24343e-05
6.50476e-05
4.80443e-05
6.50309e-05
4.80151e-05
6.10081e-05
6.10199e-05
5.24527e-05
6.49779e-05
4.80358e-05
6.50081e-05
4.80274e-05
6.1003e-05
7.01523e-05
7.01552e-05
5.43674e-05
7.0078e-05
7.00557e-05
7.14221e-05
7.14311e-05
7.14699e-05
7.14411e-05
5.43722e-05
7.00436e-05
7.00003e-05
7.00584e-05
7.00294e-05
7.14612e-05
7.1432e-05
6.10057e-05
6.50103e-05
4.78959e-05
5.2366e-05
6.09996e-05
6.50416e-05
4.79415e-05
6.87591e-05
7.36769e-05
6.87712e-05
7.36838e-05
6.09996e-05
4.79179e-05
6.50344e-05
5.23814e-05
6.10031e-05
4.79487e-05
6.49943e-05
6.87615e-05
7.37333e-05
7.37116e-05
6.87429e-05
6.1002e-05
5.24236e-05
6.50514e-05
4.8029e-05
6.50434e-05
4.79886e-05
6.0999e-05
6.87473e-05
7.36991e-05
7.36846e-05
6.87192e-05
6.09934e-05
5.23794e-05
4.79949e-05
6.49043e-05
4.79769e-05
6.4967e-05
6.0979e-05
6.88444e-05
7.3692e-05
6.88649e-05
7.36942e-05
6.11217e-05
4.81287e-05
6.5206e-05
5.25967e-05
6.11313e-05
4.81535e-05
6.51545e-05
6.88558e-05
7.37078e-05