/*--------------------------------*- C++ -*----------------------------------*\
| =========                 |                                                 |
| \\      /  F ield         | OpenFOAM: The Open Source CFD Toolbox           |
|  \\    /   O peration     | Version:  v1906                                 |
|   \\  /    A nd           | Web:      www.OpenFOAM.com                      |
|    \\/     M anipulation  |                                                 |
\*---------------------------------------------------------------------------*/
FoamFile
{
    version     2.0;
    format      ascii;
    class       volScalarField;
    location    "625";
    object      nut;
}
// * * * * * * * * * * * * * * * * * * * * * * * * * * * * * * * * * * * * * //

dimensions      [0 2 -1 0 0 0 0];


internalField   nonuniform List<scalar> 
42616
(
0.000208085
0.000202942
0.000201536
0.000183631
0.00021092
0.00020356
0.000203753
0.000184718
0.00021534
0.000203755
0.000204952
0.000183628
0.000216487
0.000206124
0.00020604
0.000185228
0.00021676
0.000207389
0.000206706
0.000187277
0.000218933
0.000206713
0.000205876
0.000186181
0.000220814
0.000207894
0.000207796
0.000185555
0.000223685
0.00021045
0.000212411
0.000189055
0.000225099
0.000209996
0.000211099
0.000188749
0.00022462
0.00020887
0.000207052
0.000186134
0.000227071
0.000211552
0.000209191
0.000188579
0.000229935
0.000213629
0.000214746
0.000192434
0.000230667
0.000212131
0.000214911
0.000189242
0.000228914
0.000210119
0.000210706
0.000184297
0.000230735
0.000212731
0.000209767
0.000192321
0.000233129
0.00021539
0.00021319
0.000195533
0.00023313
0.000211708
0.000215612
0.000185241
0.000237365
0.000211409
0.000211874
0.000177273
0.000232328
0.000218436
0.000215323
0.000203554
0.000231022
0.000214053
0.000228036
0.000214409
0.000239273
0.000212419
0.000199531
0.00016852
0.000182055
0.000200988
0.000202392
0.00018353
0.000200892
0.000201017
0.000202452
0.000202097
0.000182314
0.000201097
0.000201941
0.000183287
0.000181945
0.000183411
0.000201075
0.000202727
0.000202612
0.000203138
0.000183601
0.000183973
0.000200826
0.000201251
0.000202517
0.000202837
0.000202908
0.000203624
0.000204497
0.000182333
0.000183855
0.000202723
0.000203311
0.000204416
0.000184847
0.000183757
0.00018566
0.000203345
0.000203144
0.000205322
0.000203687
0.000183818
0.000183929
0.000203336
0.000203371
0.000205493
0.000204835
0.000204477
0.000203457
0.000203657
0.000184001
0.000184968
0.000204461
0.000204643
0.000203789
0.00018386
0.000185737
0.000185821
0.000205755
0.000204161
0.000205992
0.000205809
0.000183993
0.000185704
0.000205941
0.000205298
0.000206127
0.000206147
0.000203488
0.000205501
0.000204402
0.000185032
0.000185849
0.000203644
0.000205836
0.000204562
0.00018474
0.000185614
0.000185224
0.000205888
0.000206256
0.00020573
0.00020702
0.00018587
0.000186618
0.000205974
0.000206212
0.000205686
0.000206237
0.000205477
0.000207344
0.000207889
0.000185791
0.000185939
0.000205534
0.000206646
0.000207813
0.000187282
0.000185222
0.000186145
0.00020589
0.000206976
0.000206822
0.000206575
0.000186463
0.000185783
0.000205752
0.000206218
0.000206797
0.000205766
0.000208131
0.000206867
0.000207763
0.000185765
0.000185094
0.000208062
0.000206087
0.000207698
0.000186497
0.000186156
0.000186997
0.000207067
0.000206532
0.000207907
0.000207555
0.00018559
0.000186664
0.000207032
0.000205669
0.000207784
0.000207018
0.000207172
0.00020709
0.000206477
0.000184846
0.000186082
0.000207097
0.000206487
0.00020637
0.000185437
0.000187088
0.000188326
0.000208264
0.000208301
0.000209697
0.000210126
0.000187017
0.000188782
0.00020817
0.000208217
0.000209895
0.000211802
0.000206612
0.000210125
0.000209829
0.000186739
0.000190554
0.000206527
0.000211815
0.000210074
0.000188828
0.000188323
0.000187963
0.000209981
0.000210342
0.000210004
0.000210151
0.000188756
0.000188049
0.000210264
0.000212297
0.000210383
0.000211973
0.000210662
0.000210442
0.000211186
0.000190704
0.000189444
0.000210964
0.000212262
0.000211502
0.000189116
0.000187702
0.000187158
0.000209693
0.000209636
0.00020923
0.000208852
0.000187739
0.000186776
0.000210059
0.000210766
0.000209156
0.000207548
0.000210908
0.000208874
0.000208652
0.000188837
0.000185384
0.000211157
0.000207503
0.000208485
0.000186395
0.000187209
0.000189324
0.000209318
0.000208901
0.000211235
0.000211006
0.00018675
0.000189174
0.000209163
0.000207187
0.000210673
0.00020796
0.000208387
0.000210618
0.000209212
0.00018508
0.00018677
0.000208131
0.00020763
0.000208748
0.000187919
0.000189485
0.000190238
0.000211803
0.000211772
0.000212709
0.000213116
0.000189457
0.000190846
0.000211431
0.000209465
0.000212779
0.00021353
0.000210743
0.000213405
0.000214565
0.000187501
0.000191251
0.000210307
0.000213855
0.000214675
0.000192297
0.000190075
0.000189405
0.000212844
0.000213275
0.000212461
0.000212643
0.000190726
0.000189472
0.00021295
0.000214303
0.000212826
0.000215112
0.000215023
0.00021311
0.000214056
0.000191483
0.000191787
0.000215208
0.000215523
0.000214345
0.000190275
0.000189173
0.00018818
0.000212039
0.000211988
0.000210794
0.000210622
0.000189055
0.000187499
0.000212408
0.000214708
0.000211169
0.000211901
0.000211831
0.000210174
0.000207833
0.000191356
0.000188461
0.000212152
0.000211444
0.000208148
0.000184451
0.00018799
0.000189302
0.000210716
0.000210581
0.000212051
0.000211683
0.000187417
0.000189664
0.000211026
0.000211166
0.000211755
0.000209837
0.000207827
0.000211608
0.000213019
0.000188186
0.000187604
0.000208138
0.000209778
0.000212857
0.000191155
0.000189662
0.000191355
0.000213222
0.000212637
0.000214442
0.000214433
0.000189905
0.000191356
0.000212647
0.000209752
0.000213762
0.000210987
0.000215668
0.000215168
0.000218933
0.000187415
0.000188261
0.00021523
0.000211821
0.000218185
0.000195844
0.000191129
0.000188069
0.000214309
0.000214517
0.000211752
0.000212453
0.000191215
0.000188656
0.00021371
0.000212137
0.000212572
0.000215136
0.000218852
0.000213526
0.000210866
0.000188608
0.000191153
0.000218147
0.000215512
0.000211864
0.000187239
0.000187972
0.000193608
0.00021188
0.000211722
0.000216096
0.00021306
0.000188029
0.000188693
0.000213178
0.000215952
0.000216409
0.00021635
0.00020672
0.000210496
0.000201754
0.000191521
0.000192233
0.000208211
0.000213506
0.000202551
0.00017731
0.000194258
0.000190101
0.000217306
0.000214953
0.000215737
0.000217207
0.000189738
0.000195702
0.000216703
0.00021572
0.000213188
0.000212468
0.000202283
0.000218014
0.00022271
0.000191545
0.000188768
0.000202724
0.00021219
0.000219575
0.000199301
0.000188321
0.000185771
0.000212256
0.000216521
0.000208804
0.000210237
0.000195435
0.000186637
0.000210977
0.000213786
0.000211671
0.0002223
0.000230418
0.000215874
0.000237074
0.000189236
0.000202855
0.000228813
0.000227805
0.000239689
0.000217096
0.000186779
0.000193383
0.000209737
0.000210367
0.000218655
0.000217689
0.000186045
0.000190775
0.000213704
0.000222883
0.000218198
0.000212365
0.000234278
0.000214431
0.000200161
0.000203105
0.000182185
0.000237994
0.000208927
0.000200311
0.000171433
0.000194392
0.00021683
0.000216861
0.00019316
0.000214654
0.000203528
0.000239928
0.000226344
0.000216532
0.000193132
0.000178212
0.000191511
0.000208044
0.000209228
0.000207861
0.000208014
0.000100009
5.07599e-05
9.99408e-05
5.0773e-05
2.39029e-05
2.39057e-05
9.99217e-05
5.07557e-05
9.98071e-05
5.07705e-05
0.000210041
0.000208291
0.000209366
0.000209863
0.00021158
0.000210598
0.000212769
0.000145215
0.00010407
0.000212819
0.000203324
0.000144968
0.000104086
0.000213534
2.38995e-05
2.39048e-05
0.00014497
0.000211676
0.000103686
0.000202125
0.000144568
0.000212434
0.000103929
7.82252e-05
7.82074e-05
0.000184414
7.82954e-05
7.82937e-05
0.000100203
5.07912e-05
0.000100117
5.07997e-05
2.39082e-05
2.3912e-05
0.000100304
5.07891e-05
0.00010018
5.07971e-05
0.000211772
0.000211428
0.000213315
0.000214396
0.000212415
0.000213703
0.00021298
0.000145112
0.000103928
0.000214568
0.000203464
0.00014519
0.000103804
0.0002145
2.39094e-05
2.39132e-05
0.00014526
0.00021444
0.000104034
0.000204084
0.000145237
0.000214778
0.000104039
7.81936e-05
7.82195e-05
0.00018455
7.79871e-05
7.80219e-05
0.000100313
5.08056e-05
0.000100269
5.08085e-05
2.3919e-05
2.3924e-05
0.000100358
5.08031e-05
0.000100346
5.08058e-05
0.000212929
0.000214444
0.000212698
0.000216555
0.000215327
0.000216275
0.000213909
0.000145038
0.000103773
0.000214303
0.000204269
0.000144896
0.000104073
0.00021463
2.39172e-05
2.39203e-05
0.000145263
0.00021531
0.000104098
0.000205271
0.000145179
0.000215592
0.000104237
7.77554e-05
7.77765e-05
0.000183646
7.79063e-05
7.78898e-05
0.00010033
5.08119e-05
0.000100319
5.08174e-05
2.39284e-05
2.39308e-05
0.000100288
5.08079e-05
0.000100317
5.08127e-05
0.000216211
0.00021663
0.000215051
0.000216437
0.000218258
0.000217362
0.00021867
0.000146133
0.000104415
0.000216788
0.000206679
0.000145751
0.000104513
0.000217601
2.39236e-05
2.39265e-05
0.000146005
0.000216896
0.000104343
0.000206204
0.000145704
0.000217373
0.000104378
7.82597e-05
7.82245e-05
0.000186396
7.84269e-05
7.84032e-05
0.000100251
5.08274e-05
0.000100295
5.08341e-05
2.39318e-05
2.39336e-05
0.000100234
5.0824e-05
0.000100248
5.08312e-05
0.000218624
0.00021757
0.000219593
0.0002184
0.000218787
0.000217507
0.000220407
0.000146204
0.000104398
0.000219434
0.000207319
0.00014624
0.000104188
0.0002196
2.39291e-05
2.39309e-05
0.000146037
0.000218791
0.00010428
0.000206562
0.000146091
0.000219003
0.000104118
7.84608e-05
7.84753e-05
0.000187347
7.82807e-05
7.83002e-05
0.000100154
5.08451e-05
0.000100124
5.08559e-05
2.39395e-05
2.39463e-05
0.000100069
5.08415e-05
0.000100099
5.08522e-05
0.000218724
0.000217364
0.000219986
0.000220294
0.000219622
0.00021891
0.000218733
0.000145397
0.000103829
0.000218938
0.000206672
0.00014559
0.000103904
0.000218698
2.3935e-05
2.39426e-05
0.000145115
0.000218296
0.000103571
0.000205805
0.000145397
0.00021807
0.000103502
7.78679e-05
7.78492e-05
0.000185616
7.77828e-05
7.775e-05
0.000100562
5.0869e-05
0.000100377
5.08756e-05
2.39531e-05
2.3956e-05
0.000100611
5.0867e-05
0.000100315
5.08743e-05
0.000220413
0.000220267
0.000218644
0.000222942
0.000223304
0.000225316
0.000222277
0.000146516
0.000104451
0.00021899
0.000208764
0.000145778
0.000104772
0.00021996
2.39544e-05
2.39614e-05
0.000146655
0.000218811
0.000104261
0.000209336
0.00014558
0.000220293
0.000104978
7.81304e-05
7.81321e-05
0.000186854
7.83967e-05
7.84509e-05
0.000100701
5.08769e-05
0.000100714
5.08745e-05
2.39558e-05
2.39553e-05
0.000100974
5.08768e-05
0.000100967
5.08734e-05
0.000224162
0.000226584
0.000223889
0.0002251
0.000225156
0.00022752
0.000226554
0.000147302
0.000104916
0.000223035
0.000210566
0.000147174
0.000104782
0.000223534
2.39602e-05
2.39548e-05
0.000148083
0.000224542
0.000105691
0.00021264
0.000147859
0.000225105
0.000105634
7.86058e-05
7.86874e-05
0.000189588
7.85582e-05
7.85826e-05
0.000100001
5.08711e-05
0.000100215
5.08793e-05
2.39551e-05
2.39596e-05
9.99508e-05
5.0867e-05
0.000100306
5.08723e-05
0.000224951
0.000227181
0.000226553
0.000224662
0.000224138
0.000223379
0.000224602
0.00014602
0.000104125
0.000223623
0.000209432
0.000146605
0.000103809
0.000223179
2.39475e-05
2.39496e-05
0.000145841
0.000224856
0.000104325
0.000209655
0.000146841
0.000223674
0.000103626
7.80924e-05
7.80329e-05
0.000187568
7.7773e-05
7.77041e-05
0.000100301
5.09028e-05
0.00010001
5.09162e-05
2.39695e-05
2.39757e-05
0.000100048
5.08948e-05
9.97645e-05
5.09097e-05
0.000224045
0.000222491
0.000223959
0.000226255
0.000226099
0.00022184
0.000223756
0.000145758
0.000103783
0.000221855
0.000209013
0.000145409
0.000104264
0.000221847
2.39606e-05
2.39694e-05
0.000144935
0.000220391
0.000103127
0.000206917
0.000144742
0.00022011
0.000103541
7.76145e-05
7.75711e-05
0.000186248
7.79228e-05
7.78836e-05
0.000100812
5.09237e-05
0.000100618
5.09234e-05
2.39794e-05
2.39805e-05
0.000100743
5.09198e-05
0.000100452
5.09217e-05
0.000227115
0.000222816
0.000224768
0.000229271
0.000229986
0.000229562
0.00023107
0.000147582
0.000104848
0.000224039
0.000212353
0.000146882
0.000105102
0.000225344
2.39775e-05
2.39825e-05
0.000147391
0.000221593
0.000104332
0.000210919
0.000146358
0.00022375
0.00010484
7.83924e-05
7.83902e-05
0.000190426
7.87429e-05
7.88055e-05
0.000100695
5.09163e-05
0.000100826
5.09131e-05
2.39784e-05
2.39771e-05
0.000100889
5.09172e-05
0.000100971
5.09129e-05
0.000230597
0.000231353
0.000232293
0.00023072
0.000230957
0.000233733
0.000232586
0.000148283
0.000105189
0.000227819
0.000213757
0.000148259
0.000104997
0.000228058
2.39829e-05
2.39804e-05
0.000148821
0.000228714
0.000105504
0.000215246
0.000148593
0.000229319
0.000105607
7.92025e-05
7.92958e-05
0.000192802
7.9067e-05
7.90854e-05
9.9905e-05
5.09074e-05
0.000100175
5.09073e-05
2.39748e-05
2.39789e-05
0.000100112
5.0907e-05
0.000100333
5.09071e-05
0.000230681
0.000233884
0.000231373
0.000229212
0.000228907
0.000231583
0.000226435
0.00014518
0.000103922
0.000226822
0.000211182
0.000146527
0.000103379
0.00022538
2.39759e-05
2.39784e-05
0.000145717
0.00022899
0.000104469
0.000213543
0.000146991
0.000227435
0.000103958
7.76551e-05
7.7626e-05
0.000186158
7.67481e-05
7.6734e-05
9.99346e-05
5.09204e-05
9.97263e-05
5.09387e-05
2.39892e-05
2.39947e-05
9.99301e-05
5.09149e-05
9.98957e-05
5.09295e-05
0.000228583
0.000230449
0.000226182
0.000229439
0.000228791
0.000227241
0.000228873
0.000145628
0.000103647
0.000223346
0.000210206
0.000144438
0.000104394
0.000223378
2.39816e-05
2.39832e-05
0.00014565
0.000224108
0.000104054
0.000210196
0.000144986
0.000223803
0.000104298
7.68702e-05
7.68782e-05
0.00018609
7.77495e-05
7.78045e-05
0.000100888
5.09634e-05
0.000100433
5.09678e-05
2.39967e-05
2.39979e-05
0.000100477
5.09537e-05
0.000100244
5.09597e-05
0.00022975
0.000226833
0.000232403
0.000233116
0.000233717
0.000228042
0.000238358
0.000148604
0.000104976
0.000227014
0.000213778
0.000147695
0.000104954
0.00022886
2.3984e-05
2.39877e-05
0.000147308
0.00022421
0.000103981
0.000209921
0.000146741
0.000225225
0.000103806
7.91642e-05
7.90843e-05
0.000194728
7.96724e-05
7.95025e-05
0.000100105
5.09359e-05
0.000100987
5.09139e-05
2.39913e-05
2.39894e-05
9.97759e-05
5.09306e-05
0.000100229
5.09177e-05
0.000234401
0.000230269
0.000238575
0.000232727
0.000234193
0.000236556
0.000232767
0.000148188
0.00010477
0.000231478
0.000215418
0.000148991
0.00010441
0.000231478
2.39889e-05
2.3996e-05
0.000147744
0.000229375
0.000103959
0.000214293
0.000147769
0.00023008
0.000104104
8.00258e-05
7.99042e-05
0.000193076
7.92857e-05
7.93642e-05
9.88423e-05
5.09254e-05
9.88104e-05
5.09727e-05
2.39894e-05
2.40045e-05
0.000100726
5.09383e-05
9.97303e-05
5.09786e-05
0.000233229
0.000237328
0.000227991
0.000236853
0.000232823
0.000236673
0.00022133
0.000142015
0.000102933
0.000225658
0.000210585
0.000144226
0.00010233
0.000223294
2.40136e-05
2.40165e-05
0.000145043
0.000229908
0.000104655
0.000215517
0.000146457
0.000228475
0.000104738
7.57816e-05
7.6536e-05
0.000180089
7.40001e-05
7.46301e-05
0.000102325
5.10027e-05
0.000101529
5.09734e-05
2.40183e-05
2.40174e-05
0.000100356
5.09772e-05
0.00010135
5.09499e-05
0.000233552
0.000234834
0.000221418
0.000235207
0.000236287
0.000232958
0.000239115
0.000146953
0.000104398
0.000222282
0.000213846
0.000142661
0.000106706
0.000223953
2.3985e-05
2.39801e-05
0.000142891
0.000223311
0.000103704
0.000210993
0.000142704
0.00022317
0.000103144
7.48833e-05
7.43462e-05
0.000183361
7.70493e-05
7.58409e-05
9.87307e-05
5.08889e-05
0.000100361
5.09027e-05
2.39771e-05
2.39719e-05
9.96497e-05
5.09104e-05
9.91974e-05
5.09267e-05
0.000236251
0.000234611
0.000249362
0.000230165
0.000234023
0.000245276
0.000261447
0.000154371
0.000107571
0.000236828
0.000218632
0.000153229
0.000105007
0.00023868
2.39928e-05
2.40277e-05
0.00015601
0.000231952
0.00010481
0.000220632
0.000149129
0.000239675
0.000107824
8.32107e-05
8.3234e-05
0.000214368
8.49711e-05
8.64509e-05
9.9942e-05
5.09325e-05
9.84747e-05
5.09789e-05
2.39829e-05
2.40216e-05
0.000102399
5.09301e-05
0.000102361
5.0955e-05
0.000234011
0.000246084
0.000260588
0.000236492
0.000236354
0.000234264
0.00022603
0.000144511
0.000102457
0.000237918
0.000213811
0.000149628
0.000101926
0.00023299
2.40139e-05
2.39806e-05
0.000151185
0.000248177
0.000110452
0.000226639
0.000160207
0.000246502
0.000105949
8.17725e-05
8.34882e-05
0.00019657
7.61667e-05
7.59672e-05
0.000107218
5.50442e-05
0.000100392
8.56902e-05
2.70361e-05
4.62574e-05
0.000101062
5.49741e-05
9.64514e-05
8.5246e-05
0.000248808
0.000247616
0.000244417
0.000236155
0.000251486
0.000248602
0.000239992
0.000140182
0.000103907
0.000223056
0.000210727
0.000138709
0.000106725
0.000217909
2.68582e-05
4.39346e-05
0.000128872
0.000213494
9.70332e-05
0.000190135
0.000132319
0.000204094
9.72572e-05
7.05775e-05
6.87352e-05
0.000166401
7.69397e-05
7.47471e-05
2.38994e-05
2.38948e-05
2.38981e-05
2.38931e-05
0.000182213
7.77655e-05
7.77222e-05
7.78284e-05
7.77839e-05
9.99374e-05
5.07577e-05
5.07487e-05
9.99472e-05
9.99707e-05
5.07677e-05
5.07601e-05
0.000100004
0.000144424
0.000201077
0.000103538
0.000211396
0.0001036
0.000211265
0.000144483
0.000144482
0.000201989
0.000103979
0.000211953
0.00010387
0.000211587
0.000144591
2.39027e-05
2.38991e-05
0.000183002
7.81364e-05
7.81959e-05
7.8086e-05
7.81483e-05
2.39035e-05
2.39004e-05
9.98632e-05
5.07532e-05
5.07441e-05
9.98194e-05
0.000144276
0.000201077
0.00010346
0.000210912
0.000103537
0.000211075
0.000144216
9.98597e-05
5.07533e-05
5.07421e-05
9.9822e-05
0.000144267
0.000201016
0.000210981
0.000103537
0.000211045
0.000103528
0.000144221
0.00014451
0.000201886
0.000104071
0.000212002
0.000103936
0.000211142
0.000144922
0.00010001
5.07674e-05
5.07606e-05
0.000100159
0.000144453
0.000201203
0.000211771
0.000104057
0.000210766
0.000103767
0.00014491
9.99846e-05
5.07682e-05
5.07582e-05
0.000100155
2.38987e-05
2.38927e-05
0.000182155
7.78337e-05
7.79284e-05
7.77817e-05
7.785e-05
2.39012e-05
2.38954e-05
0.000144229
0.000200867
0.000211039
0.000103663
0.000210566
0.000103581
0.000144512
0.000144233
0.000201112
0.000211289
0.000104005
0.000210525
0.000103692
0.000144596
9.98491e-05
5.07588e-05
5.07463e-05
9.99802e-05
9.98656e-05
5.07684e-05
5.07571e-05
0.000100029
0.000182264
7.8193e-05
7.81697e-05
7.80255e-05
7.79857e-05
2.39043e-05
2.38995e-05
2.3904e-05
2.38988e-05
2.39001e-05
2.39066e-05
2.38989e-05
2.39058e-05
7.77477e-05
7.77102e-05
0.000182335
7.78567e-05
7.78567e-05
2.39137e-05
2.39076e-05
2.39128e-05
2.39067e-05
0.000182523
7.80743e-05
7.80965e-05
7.78869e-05
7.78957e-05
0.00010006
5.07688e-05
9.99996e-05
5.07737e-05
0.00014465
0.000103513
0.00021161
0.000201415
0.000144481
0.000103636
0.000211928
0.00014476
0.00010398
0.000212306
0.000202964
0.000144596
0.000104008
0.000212634
0.000100012
5.07892e-05
5.07757e-05
0.000100111
0.000100058
5.07788e-05
5.07744e-05
0.000100116
0.000144673
0.000201948
0.000103942
0.000212877
0.000103658
0.000212356
0.000144928
0.000144774
0.000203097
0.00010395
0.000213212
0.000103989
0.000212935
0.000144958
7.81363e-05
7.81956e-05
0.000183912
7.8136e-05
7.81789e-05
2.39036e-05
2.39059e-05
2.3908e-05
2.39057e-05
0.000183856
7.80294e-05
7.80183e-05
7.81159e-05
7.81422e-05
2.39077e-05
2.39057e-05
0.000144391
0.00010343
0.000210931
0.000201083
0.000144187
0.000103593
0.000211234
9.99386e-05
5.07559e-05
9.98125e-05
5.07691e-05
0.000144432
0.00021111
0.000103545
0.000201714
0.0001442
0.000211469
0.000103795
9.99499e-05
5.07872e-05
5.07734e-05
0.000100156
0.000144457
0.000201746
0.000103971
0.000212527
0.000103628
0.000211789
0.000144956
9.9965e-05
5.07792e-05
5.0771e-05
0.000100153
0.000144497
0.000202273
0.000212698
0.000104004
0.000212025
0.000103824
0.000144971
0.000100233
5.07683e-05
0.000100168
5.07733e-05
0.00014524
0.000212745
0.00010409
0.000203615
0.000144963
0.000213629
0.000104227
0.000100245
5.07694e-05
0.000100167
5.07751e-05
0.000145207
0.000203559
0.000103997
0.000214442
0.000104065
0.000214093
0.000145234
0.000100224
5.07781e-05
5.0774e-05
0.000100222
0.000145242
0.000204183
0.000214835
0.000104231
0.000214355
0.000104224
0.00014528
0.000100238
5.07792e-05
5.07757e-05
0.000100241
7.78647e-05
7.7957e-05
0.000182908
7.79993e-05
7.80739e-05
2.39019e-05
2.39066e-05
2.39091e-05
2.39053e-05
0.000183149
7.80799e-05
7.80928e-05
7.80205e-05
7.80841e-05
2.39101e-05
2.39069e-05
0.000145061
0.000212137
0.000104046
0.000203429
0.000144659
0.000213007
0.000104214
0.000100161
5.07613e-05
9.99974e-05
5.07728e-05
0.000100202
5.07698e-05
0.00010005
5.07758e-05
0.000145019
0.000202752
0.000213911
0.000104048
0.000213218
0.00010395
0.000145258
0.000145105
0.000204033
0.00021446
0.000104233
0.000213817
0.000104215
0.000145298
0.00010017
5.07809e-05
5.07742e-05
0.000100216
0.000100209
5.07797e-05
5.07764e-05
0.000100241
2.39046e-05
2.39077e-05
2.39044e-05
2.39076e-05
0.000184538
7.82589e-05
7.82818e-05
7.82974e-05
7.82989e-05
2.39091e-05
2.39076e-05
2.39091e-05
2.39076e-05
2.39143e-05
2.39186e-05
2.39134e-05
2.39175e-05
7.81179e-05
7.81426e-05
0.000184729
7.82737e-05
7.83004e-05
2.39214e-05
2.39189e-05
2.39199e-05
2.39177e-05
0.000185009
7.83659e-05
7.83864e-05
7.83033e-05
7.83297e-05
0.00010016
5.07797e-05
0.000100113
5.07865e-05
0.000145224
0.000103987
0.00021348
0.000204073
0.000144961
0.000104243
0.000214137
0.000145143
0.000103902
0.000213501
0.000203188
0.00014497
0.000103853
0.00021384
0.000100206
5.08051e-05
5.08006e-05
0.000100269
0.000100158
5.07996e-05
5.07882e-05
0.00010022
0.000145253
0.000204751
0.000104385
0.00021548
0.000104269
0.000214821
0.00014548
0.000145157
0.000203359
0.000103914
0.00021477
0.000103827
0.000214264
0.000145358
7.79884e-05
7.79614e-05
0.000183825
7.79263e-05
7.78568e-05
2.39078e-05
2.39115e-05
2.39183e-05
2.39126e-05
0.000183685
7.79968e-05
7.78982e-05
7.79075e-05
7.78283e-05
2.39184e-05
2.39121e-05
0.000145437
0.000104021
0.000213381
0.000204132
0.000145034
0.000104281
0.000214267
0.000100281
5.07804e-05
0.000100171
5.07872e-05
0.0001454
0.000213432
0.00010401
0.000203868
0.00014504
0.000214183
0.000104101
0.00010031
5.08026e-05
5.07981e-05
0.000100351
0.000145479
0.000204875
0.000104417
0.000215922
0.000104306
0.000215129
0.000145697
0.000100287
5.07952e-05
5.07884e-05
0.000100333
0.000145437
0.000204358
0.000215661
0.000104209
0.000214937
0.000104106
0.000145653
0.000100133
5.07786e-05
0.000100202
5.07836e-05
0.000145162
0.000215007
0.000104183
0.000204269
0.000145239
0.00021491
0.000104002
0.000100155
5.07792e-05
0.000100224
5.07799e-05
0.000145027
0.000203407
0.000103758
0.000214245
0.00010375
0.000214347
0.000144937
0.000100074
5.07956e-05
5.0785e-05
9.99987e-05
0.000145068
0.000203982
0.000214438
0.000103685
0.000214675
0.000103873
0.000144927
0.000100089
5.07856e-05
5.07799e-05
9.99898e-05
7.80845e-05
7.80795e-05
0.000184475
7.81308e-05
7.80599e-05
2.39103e-05
2.39139e-05
2.3917e-05
2.39135e-05
0.000184532
7.8195e-05
7.81359e-05
7.81418e-05
7.80538e-05
2.39189e-05
2.39144e-05
0.000145266
0.000214861
0.000104193
0.000204288
0.00014527
0.000214998
0.000104041
0.000100189
5.07819e-05
0.000100203
5.07879e-05
0.000100204
5.07798e-05
0.000100229
5.07811e-05
0.000145219
0.000204364
0.000215123
0.000104089
0.000214978
0.000104025
0.000145213
0.000145215
0.000204061
0.000214791
0.000103737
0.000214928
0.000103921
0.000145155
0.000100161
5.07965e-05
5.0789e-05
0.000100128
0.000100166
5.07868e-05
5.07813e-05
0.0001001
2.39087e-05
2.39099e-05
2.39087e-05
2.39098e-05
0.000184291
7.77825e-05
7.78055e-05
7.79082e-05
7.79423e-05
2.3914e-05
2.39099e-05
2.39134e-05
2.39097e-05
2.39213e-05
2.39227e-05
2.39198e-05
2.39209e-05
7.83675e-05
7.8386e-05
0.000186074
7.83235e-05
7.8314e-05
2.39241e-05
2.39224e-05
2.39222e-05
2.39206e-05
0.00018596
7.81497e-05
7.8117e-05
7.82749e-05
7.82578e-05
0.000100291
5.08019e-05
0.000100222
5.0813e-05
0.000145671
0.00010438
0.00021607
0.000206007
0.0001455
0.000104393
0.000216537
0.000145597
0.000103935
0.000215338
0.000204712
0.000145381
0.000104159
0.00021591
0.000100307
5.08113e-05
5.08087e-05
0.000100326
0.000100291
5.08214e-05
5.08145e-05
0.000100335
0.000145668
0.000206059
0.00010425
0.000217062
0.000104351
0.000216867
0.000145752
0.000145614
0.00020528
0.000104345
0.000216911
0.000104185
0.000216448
0.000145765
7.80235e-05
7.79435e-05
0.000184655
7.81643e-05
7.81389e-05
2.39194e-05
2.39253e-05
2.39282e-05
2.39244e-05
0.00018491
7.82837e-05
7.83364e-05
7.81908e-05
7.8191e-05
2.39298e-05
2.39259e-05
0.000145784
0.00010441
0.000216605
0.000206172
0.000145701
0.000104412
0.000217098
0.000100347
5.07962e-05
0.000100329
5.08021e-05
0.000145755
0.000216323
0.000104214
0.00020569
0.000145661
0.000216856
0.000104276
0.000100346
5.08075e-05
5.08059e-05
0.000100336
0.000145759
0.000206208
0.000104232
0.000217402
0.000104356
0.000217352
0.000145776
0.000100339
5.08083e-05
5.0803e-05
0.000100342
0.000145736
0.00020598
0.000217399
0.000104292
0.00021722
0.000104267
0.000145777
0.000100067
5.07983e-05
9.99748e-05
5.08122e-05
0.000144964
0.000214263
0.000103634
0.00020344
0.000144875
0.000214255
0.000103733
0.000100026
5.07878e-05
9.99577e-05
5.08033e-05
0.000145111
0.000204875
0.000104388
0.000215956
0.000104128
0.000215207
0.000145667
0.000100101
5.08226e-05
5.08142e-05
0.00010034
0.000145031
0.000203627
0.000215506
0.000104209
0.000214637
0.000103803
0.000145611
0.00010006
5.08207e-05
5.08066e-05
0.000100321
7.82034e-05
7.81546e-05
0.000185488
7.82312e-05
7.82399e-05
2.39193e-05
2.39231e-05
2.39234e-05
2.39204e-05
0.000185517
7.8239e-05
7.82991e-05
7.82309e-05
7.82545e-05
2.39264e-05
2.39233e-05
0.000145151
0.000214718
0.000103683
0.000203607
0.000145108
0.000214822
0.000103744
0.000100143
5.0798e-05
0.000100106
5.0806e-05
0.000100086
5.07889e-05
0.000100067
5.08034e-05
0.000145295
0.000205579
0.000216421
0.000104346
0.000215975
0.000104251
0.00014565
0.000145182
0.000203807
0.000215854
0.000104181
0.000215234
0.000103794
0.000145588
0.000100156
5.08129e-05
5.08071e-05
0.000100315
0.000100098
5.08205e-05
5.08066e-05
0.00010029
2.39149e-05
2.39221e-05
2.39142e-05
2.39211e-05
0.000183723
7.82001e-05
7.81672e-05
7.7965e-05
7.7941e-05
2.39291e-05
2.39231e-05
2.39282e-05
2.39221e-05
2.39242e-05
2.39275e-05
2.39223e-05
2.39259e-05
7.81023e-05
7.80653e-05
0.00018537
7.80278e-05
7.79902e-05
2.39323e-05
2.39279e-05
2.39314e-05
2.39265e-05
0.000185184
7.80233e-05
7.80225e-05
7.80101e-05
7.79734e-05
0.000100359
5.08222e-05
0.000100333
5.08262e-05
0.000145796
0.000104177
0.000217179
0.000205781
0.000145734
0.000104093
0.000217278
0.000145856
0.000104352
0.000217309
0.00020662
0.000145762
0.000104406
0.000217653
0.000100319
5.08262e-05
5.08187e-05
0.000100314
0.000100351
5.08288e-05
5.08266e-05
0.000100352
0.000145773
0.00020573
0.000104065
0.000217627
0.000104059
0.000217428
0.000145811
0.000145841
0.000206897
0.000104374
0.000218188
0.000104396
0.000217958
0.000145883
7.82948e-05
7.83616e-05
0.000186387
7.83217e-05
7.84019e-05
2.39299e-05
2.39319e-05
2.39321e-05
2.39307e-05
0.0001864
7.82291e-05
7.82723e-05
7.83167e-05
7.83933e-05
2.39324e-05
2.39316e-05
0.000145709
0.000104144
0.000217335
0.000205799
0.000145734
0.000104042
0.000217245
0.000100315
5.08091e-05
0.000100329
5.08137e-05
0.00014575
0.000217446
0.000104279
0.00020622
0.000145742
0.000217429
0.000104279
0.000100269
5.08225e-05
5.08141e-05
0.000100261
0.000145663
0.00020571
0.000104027
0.000217189
0.000104005
0.000217182
0.000145671
0.000100298
5.08181e-05
5.08143e-05
0.00010028
0.00014571
0.000206216
0.000217485
0.00010421
0.000217432
0.000104251
0.000145716
0.000100478
5.08235e-05
0.000100364
5.08274e-05
0.000146139
0.000216477
0.000104277
0.000206501
0.000145707
0.000217446
0.000104554
0.000100482
5.08224e-05
0.000100349
5.08297e-05
0.000146153
0.00020711
0.000104474
0.000218991
0.000104505
0.000218358
0.00014626
0.000100479
5.08293e-05
5.08277e-05
0.000100505
0.000146169
0.000207337
0.000219182
0.000104666
0.000218388
0.000104581
0.000146301
0.000100487
5.08325e-05
5.08303e-05
0.000100523
7.82299e-05
7.83025e-05
0.000185978
7.82099e-05
7.83141e-05
2.39265e-05
2.39291e-05
2.39292e-05
2.39266e-05
0.00018586
7.81462e-05
7.82239e-05
7.81944e-05
7.82969e-05
2.39308e-05
2.39291e-05
0.000146033
0.000216602
0.000104245
0.000206478
0.00014566
0.000217367
0.000104526
0.000100425
5.08137e-05
0.000100332
5.08184e-05
0.000100435
5.08222e-05
0.000100311
5.08293e-05
0.00014602
0.000206417
0.000218336
0.000104338
0.000217849
0.000104366
0.000146115
0.000146061
0.00020727
0.000218808
0.000104651
0.000218118
0.000104555
0.000146185
0.000100421
5.08229e-05
5.08191e-05
0.000100438
0.000100438
5.08318e-05
5.08299e-05
0.00010047
2.39297e-05
2.39335e-05
2.39288e-05
2.3933e-05
0.000186674
7.84906e-05
7.84861e-05
7.84515e-05
7.84337e-05
2.39349e-05
2.39335e-05
2.39348e-05
2.39331e-05
2.39328e-05
2.3937e-05
2.39319e-05
2.39361e-05
7.80202e-05
7.80276e-05
0.000185668
7.80428e-05
7.80685e-05
2.39421e-05
2.39375e-05
2.39407e-05
2.39365e-05
0.000185741
7.8089e-05
7.80791e-05
7.80366e-05
7.80616e-05
0.000100273
5.08287e-05
0.000100333
5.08299e-05
0.000145762
0.000104057
0.000217859
0.000206244
0.000145774
0.000104102
0.000218073
0.000145803
0.000104309
0.000218337
0.000206864
0.000145845
0.00010414
0.000218388
0.000100208
5.08433e-05
5.08353e-05
0.00010015
0.000100218
5.08373e-05
5.08304e-05
0.000100134
0.000145711
0.000206561
0.000104124
0.000218452
0.000104087
0.000218272
0.000145682
0.000145735
0.000206701
0.00010392
0.000218352
0.000104037
0.00021838
0.000145656
7.81675e-05
7.82006e-05
0.000186261
7.80014e-05
7.79863e-05
2.39319e-05
2.39334e-05
2.39386e-05
2.39339e-05
0.000186038
7.7873e-05
7.78126e-05
7.79441e-05
7.79131e-05
2.39382e-05
2.39335e-05
0.00014567
0.000104026
0.000217377
0.000206083
0.00014564
0.000104114
0.000217668
0.000100223
5.08184e-05
0.000100261
5.08208e-05
0.000145657
0.000217591
0.00010416
0.000206092
0.000145675
0.000217697
0.000104036
0.000100209
5.08398e-05
5.08324e-05
0.000100142
0.00014563
0.000206491
0.000104113
0.000218211
0.0001041
0.000217966
0.000145603
0.000100182
5.08256e-05
5.0821e-05
0.000100081
0.000145602
0.000205931
0.00021777
0.000103697
0.00021777
0.000103929
0.000145514
0.000100457
5.08291e-05
0.000100497
5.08298e-05
0.000146271
0.000219725
0.00010465
0.000208158
0.000146286
0.000219953
0.000104531
0.000100492
5.08322e-05
0.000100517