/*--------------------------------*- C++ -*----------------------------------*\
| =========                 |                                                 |
| \\      /  F ield         | OpenFOAM: The Open Source CFD Toolbox           |
|  \\    /   O peration     | Version:  v1906                                 |
|   \\  /    A nd           | Web:      www.OpenFOAM.com                      |
|    \\/     M anipulation  |                                                 |
\*---------------------------------------------------------------------------*/
FoamFile
{
    version     2.0;
    format      ascii;
    class       volScalarField;
    location    "625";
    object      p;
}
// * * * * * * * * * * * * * * * * * * * * * * * * * * * * * * * * * * * * * //

dimensions      [0 2 -2 0 0 0 0];


internalField   nonuniform List<scalar> 
42616
(
0.000714377
0.000714244
0.000714302
0.00071626
0.000678893
0.000678745
0.000678746
0.000680733
0.000643233
0.000643244
0.00064319
0.000645256
0.000607623
0.000607589
0.000607602
0.000609634
0.000572036
0.000571909
0.000571939
0.000573922
0.000536364
0.00053632
0.000536312
0.000538328
0.000500765
0.000500726
0.00050075
0.000502804
0.000465013
0.000464945
0.000464892
0.000466949
0.000429147
0.000429117
0.00042907
0.000431113
0.000393441
0.000393416
0.000393492
0.000395483
0.000357715
0.000357628
0.000357698
0.000359687
0.00032181
0.00032173
0.000321657
0.000323745
0.000285729
0.000285711
0.000285645
0.000287712
0.000249819
0.000249909
0.000249899
0.000252032
0.000214047
0.000213894
0.000213957
0.00021587
0.000177796
0.000177755
0.00017785
0.000179848
0.000142036
0.000141756
0.000141718
0.000143746
0.00010563
0.000106254
0.000105759
0.000108205
6.96887e-05
6.925e-05
7.0125e-05
7.1736e-05
3.43966e-05
3.35838e-05
3.2364e-05
3.41173e-05
4.6943e-06
6.47863e-06
6.1479e-06
5.14695e-06
0.00072114
0.000723172
0.00072314
0.000721091
0.000723183
0.00072318
0.000723126
0.000723134
0.000721134
0.000723167
0.000723147
0.000721086
0.000716328
0.000685632
0.000714318
0.000714268
0.000687689
0.000687645
0.00071627
0.000685593
0.000714332
0.000714324
0.000687695
0.000687671
0.00071424
0.000687617
0.000687585
0.000716318
0.000685601
0.000714256
0.000687641
0.000687589
0.000685555
0.000680795
0.00065001
0.000678785
0.000678767
0.000652061
0.000652111
0.000680769
0.000650075
0.000678786
0.000678769
0.000652047
0.00065206
0.000678708
0.000652127
0.000652114
0.000680768
0.000650026
0.000678707
0.000652079
0.000652103
0.000650075
0.000645176
0.00061444
0.000643159
0.000643217
0.000616479
0.000616496
0.000645243
0.000614453
0.000643146
0.000643161
0.000616476
0.000616485
0.000643249
0.000616515
0.000616563
0.000645194
0.000614458
0.000643236
0.000616503
0.000616561
0.00061449
0.00060961
0.000578858
0.00060759
0.000607584
0.000580895
0.000580849
0.000609608
0.000578795
0.000607593
0.000607596
0.000580907
0.000580888
0.000607623
0.000580824
0.000580806
0.000609625
0.000578831
0.000607628
0.000580863
0.000580817
0.000578767
0.000574011
0.000543175
0.000571981
0.000571936
0.000545215
0.000545222
0.00057395
0.000543182
0.000571992
0.00057197
0.000545214
0.000545217
0.000571882
0.000545209
0.000545172
0.000573983
0.000543167
0.000571891
0.000545204
0.000545172
0.000543151
0.000538335
0.000507553
0.000536305
0.000536321
0.000509599
0.000509614
0.000538345
0.000507575
0.000536302
0.000536312
0.000509601
0.000509635
0.000536297
0.000509644
0.000509686
0.000538332
0.000507586
0.000536295
0.000509664
0.000509687
0.000507644
0.000502709
0.000471835
0.000500691
0.000500697
0.000473906
0.000473903
0.000502729
0.000471843
0.000500694
0.000500723
0.000473898
0.000473867
0.000500789
0.000473901
0.000473911
0.000502739
0.000471809
0.000500791
0.000473869
0.000473904
0.000471826
0.000466968
0.000436025
0.000464955
0.000464953
0.000438074
0.000438081
0.000466976
0.000436031
0.000464942
0.000464899
0.000438056
0.000438005
0.000464933
0.000438064
0.000438013
0.000466936
0.00043598
0.000464919
0.000437988
0.000437995
0.000435969
0.000431168
0.000400322
0.000429131
0.000429136
0.000402333
0.000402332
0.000431168
0.000400305
0.000429118
0.000429089
0.000402352
0.000402391
0.000429063
0.000402335
0.000402336
0.000431134
0.000400365
0.000429052
0.000402393
0.000402356
0.000400325
0.000395472
0.000364513
0.000393404
0.000393403
0.000366569
0.000366563
0.000395454
0.000364507
0.00039343
0.000393481
0.000366596
0.00036667
0.000393433
0.000366583
0.000366648
0.000395523
0.000364585
0.000393458
0.000366692
0.000366677
0.000364568
0.000359642
0.000328659
0.00035762
0.000357617
0.000330737
0.000330733
0.000359643
0.000328659
0.000357633
0.000357683
0.000330722
0.000330685
0.000357681
0.000330725
0.000330724
0.000359696
0.000328599
0.0003577
0.000330676
0.000330706
0.000328647
0.000323778
0.000292697
0.000321762
0.000321745
0.000294751
0.000294725
0.000323767
0.00029267
0.00032174
0.000321676
0.00029473
0.000294642
0.000321708
0.000294689
0.000294594
0.000323702
0.000292588
0.000321683
0.000294607
0.000294574
0.000292573
0.000287791
0.000256709
0.000285729
0.000285733
0.000258747
0.000258812
0.000287784
0.000256817
0.000285717
0.000285667
0.000258743
0.00025879
0.000285638
0.000258862
0.000258943
0.000287719
0.000256829
0.000285626
0.000258847
0.000258942
0.000256896
0.000251852
0.000220906
0.000249802
0.00024985
0.000222951
0.000222922
0.000251951
0.000220826
0.000249797
0.000249842
0.000222974
0.000222973
0.000250021
0.000222907
0.00022289
0.000251966
0.000220878
0.000250019
0.000222953
0.000222903
0.000220778
0.000216005
0.000184718
0.000213954
0.00021393
0.000186787
0.00018683
0.000215926
0.000184731
0.000213981
0.000213994
0.000186817
0.000186898
0.00021381
0.000186826
0.00018678
0.000215974
0.000184771
0.000213837
0.000186888
0.000186798
0.000184767
0.000179794
0.000148854
0.00017774
0.000177752
0.000150919
0.00015069
0.000179779
0.00014867
0.000177767
0.000177855
0.000150919
0.000150808
0.000177746
0.000150626
0.00015067
0.000179856
0.000148782
0.000177769
0.00015076
0.000150692
0.000148661
0.000143951
0.00011269
0.000141995
0.000141821
0.000114839
0.000115129
0.000143858
0.000113181
0.000141947
0.000141771
0.000114689
0.000114565
0.000141734
0.000115238
0.000115168
0.000143852
0.000112558
0.000141702
0.000114667
0.000115013
0.000113016
0.000107698
7.65159e-05
0.00010563
0.000106041
7.83964e-05
7.84192e-05
0.000108198
7.62959e-05
0.000105552
0.000105595
7.86178e-05
7.91077e-05
0.000106361
7.8497e-05
7.88577e-05
0.000107674
7.69861e-05
0.000106216
7.92052e-05
7.90812e-05
7.68444e-05
7.1675e-05
4.08289e-05
6.96234e-05
6.93279e-05
4.29841e-05
4.26027e-05
7.1243e-05
4.03818e-05
6.98432e-05
7.01834e-05
4.28566e-05
4.22874e-05
6.95481e-05
4.22255e-05
4.14217e-05
7.19897e-05
3.99178e-05
6.97774e-05
4.1888e-05
4.13546e-05
3.92599e-05
3.57092e-05
7.31643e-06
3.40242e-05
3.37735e-05
1.04872e-05
1.08054e-05
3.54101e-05
7.81874e-06
3.37286e-05
3.28216e-05
1.01374e-05
9.82593e-06
3.2229e-05
1.08118e-05
1.09445e-05
3.46685e-05
7.2895e-06
3.18831e-05
9.82356e-06
1.05487e-05
8.11317e-06
4.1046e-06
5.73258e-06
5.98631e-06
4.5505e-06
5.8785e-06
5.69075e-06
5.00783e-06
5.11748e-06
5.82568e-06
6.5047e-06
4.53639e-06
6.61111e-06
0.000723215
0.000723224
0.000723238
0.000723264
0.000703215
0.000716519
0.000716498
0.000703212
0.000716489
0.000703221
0.000703224
0.00071654
0.000716528
0.000703217
0.000714339
0.000714388
0.000714367
0.00068779
0.000687682
0.000687743
0.00068766
0.000703202
0.00071641
0.000714277
0.000705366
0.000716374
0.000703196
0.000705388
0.000716508
0.000703203
0.000703221
0.000714321
0.00071644
0.000705425
0.000716409
0.000705439
0.000703196
0.000716409
0.000716416
0.000703312
0.000703138
0.000703139
0.000667658
0.000680954
0.00068097
0.000667639
0.00068101
0.000667697
0.000667628
0.000680939
0.000680944
0.000667619
0.000678801
0.000678844
0.000678756
0.00065215
0.000652184
0.000652152
0.00065213
0.000667733
0.000680947
0.000678742
0.000669874
0.0006809
0.000667725
0.00066987
0.000680956
0.000667639
0.000667706
0.000678755
0.000680913
0.000669855
0.000680885
0.000669865
0.000667678
0.000680985
0.000680978
0.000667804
0.000667717
0.000667708
0.000632078
0.000645393
0.000645386
0.00063209
0.0006454
0.000632069
0.000632069
0.000645376
0.000645365
0.000632084
0.000643304
0.000643252
0.000643275
0.000616514
0.000616594
0.00061655
0.000616662
0.000632182
0.000645407
0.000643264
0.000634347
0.000645397
0.00063212
0.000634382
0.000645377
0.000632076
0.000632161
0.000643222
0.000645372
0.000634297
0.000645365
0.000634338
0.000632113
0.000645481
0.000645475
0.000632326
0.00063211
0.000632111
0.000596502
0.00060985
0.000609817
0.000596523
0.000609803
0.000596489
0.000596532
0.000609867
0.000609837
0.000596547
0.000607675
0.000607647
0.00060774
0.000580941
0.000580891
0.00058092
0.000580897
0.000596484
0.000609747
0.000607639
0.000598664
0.000609729
0.00059647
0.000598703
0.000609846
0.00059654
0.000596516
0.000607636
0.000609784
0.000598695
0.00060975
0.000598718
0.000596515
0.000609752
0.000609758
0.000596618
0.000596402
0.000596408
0.000560868
0.000574217
0.000574206
0.000560866
0.000574229
0.000560899
0.000560877
0.00057423
0.000574228
0.000560868
0.000571967
0.000571992
0.000571954
0.000545277
0.000545245
0.000545242
0.000545181
0.00056087
0.000574137
0.000571916
0.000563001
0.000574082
0.00056088
0.000562996
0.000574261
0.000560921
0.000560884
0.000571945
0.000574168
0.000563021
0.000574106
0.000563014
0.000560898
0.000574157
0.000574161
0.000560937
0.000560858
0.000560861
0.000525192
0.000538541
0.000538543
0.000525184
0.000538558
0.000525179
0.000525193
0.000538543
0.000538545
0.000525188
0.000536356
0.000536357
0.000536298
0.000509664
0.000509699
0.000509751
0.000509713
0.000525294
0.000538535
0.000536312
0.000527435
0.000538498
0.000525249
0.000527436
0.000538577
0.000525171
0.000525289
0.000536309
0.000538541
0.000527428
0.000538492
0.000527436
0.000525244
0.000538612
0.000538616
0.000525405
0.000525262
0.000525262
0.000489524
0.000502875
0.000502863
0.000489533
0.000502853
0.000489525
0.00048948
0.000502862
0.000502838
0.000489503
0.000500798
0.000500861
0.000500837
0.000473979
0.000473984
0.000473974
0.00047404
0.000489593
0.000502847
0.000500778
0.000491793
0.000502867
0.000489549
0.000491853
0.000502767
0.000489407
0.000489565
0.000500805
0.000502794
0.000491809
0.00050285
0.000491876
0.000489476
0.000502896
0.000502882
0.000489766
0.000489496
0.000489478
0.00045384
0.000467223
0.000467201
0.000453859
0.000467236
0.000453882
0.000453808
0.000467184
0.000467152
0.000453836
0.000465017
0.00046497
0.000465037
0.000438102
0.000438097
0.000438012
0.000438047
0.00045383
0.000467156
0.000464971
0.000455984
0.00046711
0.000453846
0.000455998
0.000467152
0.000453874
0.000453785
0.00046493
0.000467087
0.000455913
0.000467067
0.000455939
0.000453805
0.000467152
0.000467142
0.000453888
0.000453786
0.000453784
0.000418043
0.000431467
0.000431453
0.000418036
0.000431489
0.000418054
0.000418099
0.000431484
0.000431478
0.000418078
0.000429138
0.000429056
0.000429074
0.000402362
0.000402356
0.00040236
0.000402331
0.000418067
0.000431409
0.0004291
0.000420182
0.000431333
0.000418069
0.000420161
0.000431581
0.000418175
0.000418113
0.000429042
0.000431466
0.000420174
0.000431343
0.000420127
0.000418164
0.000431466
0.000431479
0.000418132
0.000418087
0.000418103
0.000382174
0.000395577
0.00039559
0.000382168
0.00039557
0.000382152
0.000382249
0.000395637
0.000395677
0.000382218
0.000393441
0.000393477
0.000393449
0.000366665
0.000366668
0.00036677
0.000366746
0.000382302
0.000395591
0.000393421
0.000384483
0.000395597
0.000382222
0.000384506
0.000395701
0.000382255
0.000382384
0.000393478
0.000395706
0.000384584
0.000395669
0.000384581
0.000382325
0.000395668
0.000395689
0.000382498
0.000382207
0.000382223
0.000346433
0.00035982
0.000359799
0.000346454
0.000359797
0.000346438
0.000346386
0.000359814
0.000359791
0.000346419
0.00035772
0.000357834
0.000357831
0.000330802
0.000330796
0.00033082
0.000330814
0.000346456
0.000359754
0.000357684
0.00034867
0.00035974
0.000346432
0.000348719
0.000359771
0.000346331
0.000346425
0.000357765
0.000359751
0.000348693
0.000359758
0.000348765
0.000346358
0.00035975
0.000359743
0.000346624
0.000346326
0.000346308
0.000310616
0.000324063
0.00032404
0.000310622
0.000324051
0.000310629
0.000310541
0.000324009
0.000323962
0.000310568
0.000321789
0.000321772
0.000321753
0.000294754
0.000294713
0.000294672
0.000294561
0.00031058
0.000323964
0.000321737
0.000312718
0.000323921
0.000310595
0.000312713
0.000323896
0.000310502
0.000310493
0.00032169
0.000323835
0.000312636
0.000323843
0.000312651
0.000310468
0.000323955
0.000323937
0.000310584
0.00031061
0.000310597
0.000274595
0.0002881
0.000288085
0.0002746
0.000288131
0.000274626
0.000274588
0.000288069
0.000288049
0.000274589
0.000285715
0.000285666
0.000285561
0.000258756
0.000258847
0.000258771
0.000258944
0.000274695
0.000288083
0.000285664
0.000276755
0.000288
0.000274688
0.000276719
0.000288078
0.000274633
0.000274698
0.000285615
0.000288046
0.000276711
0.000287964
0.000276677
0.000274701
0.00028829
0.000288281
0.000274711
0.000274805
0.000274799
0.000238592
0.000252045
0.000252053
0.000238575
0.000252041
0.000238572
0.000238668
0.000252077
0.000252086
0.000238639
0.000249885
0.000249815
0.000250048
0.000223042
0.000222995
0.000222965
0.000223092
0.000238682
0.000252068
0.000249944
0.000240928
0.000252113
0.000238606
0.000240981
0.000252167
0.000238762
0.000238733
0.000249922
0.000252139
0.000240931
0.00025213
0.000240958
0.00023872
0.000252052
0.000252062
0.000238945
0.000238381
0.000238394
0.000202622
0.000216072
0.000216074
0.000202661
0.000216109
0.000202679
0.000202706
0.000216145
0.00021619
0.000202689
0.000214009
0.000214012
0.000214038
0.000186834
0.000186895
0.000187029
0.000186819
0.000202602
0.000215997
0.000213926
0.000204881
0.000215937
0.000202634
0.000204883
0.00021625
0.000202702
0.000202654
0.000213958
0.00021613
0.000204945
0.000216022
0.00020494
0.000202693
0.000215778
0.000215814
0.00020275
0.000202429
0.000202465
0.000166755
0.000180212
0.000180158
0.000166789
0.000180188
0.000166684
0.00016663
0.000180214
0.000180116
0.000166722
0.000177815
0.00017801
0.000177754
0.000150955
0.000150668
0.000150839
0.000150471
0.000166675
0.000180063
0.000177748
0.000168662
0.000180014
0.000166651
0.000168659
0.000180093
0.000166533
0.000166676
0.00017785
0.000180016
0.000168814
0.000180021
0.000168808
0.000166593
0.000180274
0.000180246
0.000166725
0.000167078
0.000167006
0.00013055
0.000144133
0.000144152
0.000130474
0.000144102
0.000130527
0.000130436
0.000143984
0.000144003
0.000130348
0.000141787
0.000141761
0.000141548
0.000114791
0.000115192
0.000114578
0.00011517
0.000130923
0.000144156
0.000141703
0.00013293
0.000144135
0.000130849
0.000132883
0.000143843
0.000130388
0.000130704
0.00014168
0.000143983
0.000132638
0.000144051
0.000132629
0.000130631
0.000144702
0.000144638
0.000130724
0.000131034
0.000131042
9.4353e-05
0.000107755
0.000107778
9.44214e-05
0.000107892
9.44112e-05
9.46396e-05
0.000107901
0.00010793
9.46925e-05
0.000106157
0.000105681
0.000106367
7.84744e-05
7.8516e-05
7.92512e-05
7.94881e-05
9.44951e-05
0.000108062
0.000106344
9.70794e-05
0.000108233
9.44367e-05
9.72756e-05
0.000108246
9.48518e-05
9.4654e-05
0.000105913
0.000108156
9.68948e-05
0.000108095
9.7041e-05
9.47239e-05
0.000107749
0.000107879
9.51083e-05
9.37888e-05
9.38643e-05
5.88096e-05
7.22746e-05
7.22352e-05
5.88503e-05
7.22916e-05
5.85813e-05
5.84352e-05
7.22147e-05
7.21261e-05
5.85229e-05
6.93856e-05
7.03474e-05
7.0051e-05
4.31647e-05
4.27228e-05
4.23659e-05
4.16666e-05
5.78416e-05
7.1471e-05
6.94097e-05
6.01136e-05
7.13216e-05
5.82296e-05
6.01697e-05
7.20114e-05
5.77247e-05
5.79038e-05
7.02037e-05
7.1544e-05
6.0919e-05
7.16729e-05
6.09371e-05
5.77908e-05
7.06013e-05
7.04742e-05
5.81296e-05
5.75439e-05
5.72852e-05
2.11109e-05
3.53941e-05
3.5572e-05
2.05774e-05
3.55809e-05
1.98611e-05
2.10556e-05
3.49822e-05
3.51094e-05
2.05135e-05
3.44098e-05
3.31526e-05
3.25694e-05
1.05151e-05
1.10024e-05
9.77675e-06
1.03322e-05
2.19818e-05
3.53094e-05
3.32752e-05
2.48392e-05
3.53903e-05
2.14584e-05
2.47238e-05
3.51868e-05
2.04266e-05
2.14183e-05
3.24604e-05
3.44958e-05
2.35304e-05
3.46193e-05
2.3537e-05
2.13611e-05
3.57076e-05
3.56287e-05
2.18916e-05
2.23931e-05
2.25607e-05
2.94234e-06
3.597e-06
2.92697e-06
-2.1418e-07
1.03163e-06
-3.82382e-06
3.37018e-06
4.07256e-06
3.54804e-06
-1.32306e-07
3.19585e-07
6.06585e-06
5.82448e-06
6.98312e-06
6.50078e-06
3.25127e-06
3.16959e-06
1.95921e-06
3.15249e-06
5.68518e-06
1.3066e-06
4.7537e-06
5.4143e-06
-1.75779e-06
2.01964e-06
-3.41502e-06
2.43087e-06
5.79646e-06
4.02359e-06
1.3154e-06
5.18975e-06
-1.20907e-06
5.76695e-06
1.33188e-06
1.5313e-06
1.06233e-06
3.83938e-06
3.93931e-06
0.000720996
0.00073428
0.000721009
0.000734295
0.000734036
0.000720985
0.000720994
0.000734276
0.000734285
0.000734232
0.000720983
0.000734266
0.000720964
0.000734226
0.00072095
0.000734218
0.000720959
0.000734166
0.000732023
0.000721002
0.000723181
0.000734219
0.000732036
0.000721009
0.000734162
0.000732011
0.000720964
0.000723171
0.000734173
0.000732036
0.000721004
0.000720946
0.000734211
0.00073402
0.000720927
0.00072091
0.000734202
0.000734186
0.000720918
0.000734189
0.000734262
0.000721007
0.000734289
0.000720996
0.000734187
0.000732027
0.000721023
0.000723194
0.000734234
0.000732035
0.000721037
0.00073426
0.000720987
0.000734271
0.000720993
0.000734186
0.000732029
0.000723195
0.000721007
0.000732037
0.000734218
0.000721036
0.000734135
0.000732008
0.00072093
0.000723167
0.000734152
0.000732056
0.00072095
0.000734177
0.000720907
0.000734188
0.000720893
0.000734135
0.00073203
0.000723174
0.000720901
0.000732068
0.000734137
0.000720947
0.000734175
0.000720877
0.000734169
0.000720889
0.000720978
0.000734271
0.000734039
0.000720965
0.000720944
0.000734261
0.000734246
0.000720947
0.000734247
0.000734161
0.000732026
0.000723192
0.000720969
0.000732057
0.000734201
0.000720986
0.000734159
0.000732036
0.00072319
0.000720918
0.000732067
0.000734152
0.000720979
0.000734213
0.000720938
0.00073424
0.000720925
0.000734206
0.000720896
0.000734188
0.000720917
0.000734037
0.000720862
0.000720869
0.000734158
0.000734166
0.000720874
0.00073416
0.000720883
0.000734172
0.000716527
0.000703211
0.000716536
0.00070321
0.000716524
0.000716532
0.000703411
0.000703202
0.000703202
0.000685415
0.000698736
0.000685405
0.000698732
0.000698586
0.000685402
0.000685395
0.000698733
0.000698731
0.000703214
0.000716495
0.000716493
0.000703226
0.000703268
0.000716479
0.000714324
0.000705455
0.000716439
0.000703238
0.000705462
0.000703262
0.000716447
0.000714305
0.000705395
0.000716433
0.000703235
0.000705435
0.000698744
0.000685425
0.000698742
0.000685447
0.000698745
0.000685471
0.000698763
0.000685451
0.000698691
0.00069658
0.000685451
0.000687707
0.000698707
0.000696589
0.000685502
0.000698687
0.000696521
0.000685486
0.000687682
0.000698714
0.000696561
0.000685499
0.000716478
0.00071646
0.000703342
0.000703202
0.000703188
0.000716462
0.000703199
0.000685477
0.00069876
0.000698521
0.000685462
0.000685461
0.00069875
0.000698738
0.000685477
0.000698744
0.000703289
0.000716499
0.000714351
0.00070547
0.000716467
0.000703247
0.000705494
0.000703222
0.00071652
0.000716525
0.000703211
0.000703286
0.000714346
0.000716481
0.000705454
0.000716466
0.000705486
0.000703236
0.000698744
0.000685412
0.000698741
0.000685425
0.000698705
0.000696591
0.000685443
0.00068773
0.000698711
0.00069662
0.000685491
0.000698743
0.000685431
0.000698743
0.000685426
0.000698703
0.000696568
0.000687717
0.000685454
0.000696608
0.000698704
0.00068549
0.000703159
0.00071645
0.000716427
0.000703178
0.000703198
0.00071428
0.000716379
0.00070535
0.000716371
0.000705386
0.000703166
0.000703154
0.00071642
0.000716422
0.000703151
0.000698632
0.000696491
0.000685466
0.000687619
0.000698678
0.000696502
0.000685471
0.000698698
0.000685457
0.000698724
0.000685437
0.000698627
0.000696465
0.00068761
0.000685446
0.000696496
0.000698651
0.000685467
0.000698693
0.000685439
0.000698698
0.000685433
0.000716501
0.000716481
0.000703387
0.000703189
0.000703174
0.000716478
0.000703183
0.000685427
0.000698733
0.000698559
0.000685415
0.000685417
0.000698727
0.000698715
0.000685431
0.000698719
0.000703214
0.000714308
0.000716393
0.000705365
0.000716401
0.000705419
0.000703174
0.000703165
0.00071647
0.000716452
0.000703171
0.000703161
0.000716436
0.000716446
0.000703158
0.000698642
0.000696536
0.000687651
0.000685438
0.000696548
0.00069867
0.00068546
0.000698636
0.000696475
0.000687628
0.000685442
0.000696525
0.000698656
0.000685457
0.000698696
0.000685422
0.000698709
0.000685418
0.000698692
0.00068543
0.000698701
0.000685418
0.000716415
0.000703153
0.000716422
0.000703154
0.000698487
0.00068543
0.000685424
0.000698691
0.000698691
0.000685449
0.000698699
0.000685441
0.000698698
0.00068094
0.000667627
0.000680929
0.000667615
0.000680933
0.000680926
0.00066782
0.00066761
0.000667602
0.000649857
0.000663155
0.000649847
0.000663145
0.000662981
0.000649841
0.000649834
0.000663147
0.000663139
0.000667666
0.000681005
0.000680976
0.000667687
0.000667711
0.000680917
0.000678818
0.000669878
0.00068092
0.000667658
0.000669917
0.000667716
0.000680959
0.000678799
0.000669885
0.000680917
0.000667709
0.000669911
0.000663179
0.000649862
0.000663171
0.000649865
0.000663186
0.000649874
0.000663212
0.000649869
0.000663124
0.000660968
0.000649876
0.000652106
0.000663126
0.000661013
0.000649914
0.00066313
0.000660999
0.000649902
0.000652125
0.000663174
0.00066102
0.000649921
0.000681004
0.000681006
0.000667837
0.000667688
0.000667702
0.000681016
0.00066772
0.00064988
0.00066322
0.00066301
0.000649875
0.000649895
0.00066322
0.000663236
0.000649908
0.000663248
0.000667683
0.000680906
0.000678825
0.000669871
0.000680901
0.000667642
0.000669912
0.00066763
0.000680961
0.000680946
0.000667638
0.000667685
0.000678815
0.000680922
0.000669865
0.000680901
0.000669907
0.000667662
0.000663149
0.000649842
0.000663149
0.00064984
0.000663095
0.000660956
0.000649859
0.000652082
0.000663108
0.000660996
0.000649885
0.000663151
0.000649841
0.000663164
0.000649839
0.000663097
0.000660962
0.000652088
0.000649863
0.000660997
0.000663126
0.000649886
0.000667705
0.000681002
0.000680975
0.000667716
0.000667729
0.000678728
0.000680932
0.000669836
0.000680896
0.000669855
0.000667725
0.000667705
0.000680988
0.000680971
0.000667726
0.00066316
0.000661002
0.000649945
0.000652135
0.000663197
0.000661002
0.000649979
0.000663238
0.000649926
0.00066325
0.000649939
0.000663157
0.000660973
0.000652126
0.000649974
0.000660988
0.000663207
0.000649981
0.000663238
0.000649959
0.000663267
0.000649943
0.000680952
0.00068096
0.00066781
0.000667631
0.000667646
0.000680967
0.000667664
0.000649848
0.000663164
0.000662977
0.000649838
0.000649855
0.000663163
0.000663181
0.000649874
0.000663191
0.000667706
0.000678735
0.000680924
0.000669831
0.000680883
0.000669851
0.000667709
0.000667671
0.000680961
0.000680951
0.000667666
0.000667675
0.000680975
0.000680952
0.000667703
0.00066313
0.000660967
0.000652102
0.000649903
0.000660983
0.000663151
0.000649945
0.000663131
0.000660964
0.000652105
0.000649955
0.000660976
0.000663189
0.000649952
0.0006632
0.000649889
0.0006632
0.000649906
0.000663206
0.000649938
0.000663243
0.000649914
0.000680998
0.000667737
0.000680988
0.000667725
0.000662987
0.000649951
0.000649944
0.000663263
0.000663254
0.000649965
0.000663275
0.000649956
0.000663262
0.00064539
0.0006321
0.000645382
0.0006321
0.000645382
0.000645377
0.00063222
0.000632084
0.000632084
0.000614338
0.000627635
0.000614346
0.000627637
0.000627388
0.000614326
0.000614331
0.000627628
0.000627629
0.000632076
0.000645395
0.000645389
0.000632066
0.000632122
0.000645348
0.000643202
0.000634263
0.000645328
0.000632104
0.000634298
0.000632126
0.000645363
0.000643228
0.000634316
0.000645335
0.00063209
0.000634324
0.000627601
0.00061432
0.000627625
0.000614294
0.000627598
0.000614278
0.000627594
0.000614288
0.000627539
0.00062537
0.000614334
0.000616499
0.000627578
0.000625397
0.000614337
0.000627541
0.000625407
0.000614294
0.000616512
0.000627553
0.000625419
0.000614334
0.0006454
0.000645417
0.00063228
0.000632058
0.000632063
0.000645424
0.000632075
0.000614276
0.000627593
0.00062744
0.00061426
0.000614248
0.000627587
0.000627588
0.000614257
0.000627592
0.000632108
0.000645331
0.000643174
0.000634251
0.000645301
0.000632096
0.000634271
0.000632067
0.000645371
0.000645364
0.000632067
0.000632108
0.000643183
0.00064533
0.000634265
0.000645302
0.000634281
0.000632083
0.000627598
0.000614333
0.000627623
0.000614309
0.00062753
0.000625362
0.000614342
0.000616486
0.000627572
0.000625376
0.000614345
0.000627596
0.000614308
0.000627603
0.000614307
0.00062753
0.000625374
0.000616493
0.000614321
0.000625385
0.000627557
0.000614346
0.000632116
0.000645445
0.000645458
0.000632092
0.000632188
0.00064326
0.000645442
0.000634374
0.000645401
0.000634388
0.000632157
0.000632122
0.000645484
0.000645464
0.000632119
0.000627587
0.000625437
0.000614288
0.00061657
0.000627577
0.000625484
0.00061433
0.000627621
0.000614262
0.00062761
0.000614262
0.000627593
0.000625482
0.00061659
0.000614282
0.000625499
0.000627603
0.000614333
0.000627626
0.000614249
0.000627626
0.000614262
0.000645372
0.000645389
0.000632241
0.000632063
0.000632068
0.000645399
0.000632084
0.000614313
0.000627609
0.000627411
0.000614297
0.000614289
0.000627602
0.000627605
0.000614299
0.000627611
0.00063217
0.000643234
0.000645424
0.000634361
0.000645373
0.00063436
0.000632149
0.000632108
0.000645417
0.000645429
0.000632097
0.000632114
0.000645465
0.000645438
0.000632115
0.000627574
0.000625402
0.000616547
0.000614319
0.000625447
0.000627579
0.000614344
0.000627582
0.000625473
0.000616573
0.000614291
0.000625475
0.000627598
0.000614346
0.000627621
0.000614296
0.000627623
0.000614285
0.000627625
0.000614261
0.000627625
0.00061428
0.000645485
0.000632114
0.000645478
0.000632115
0.00062749
0.000614234
0.000614239
0.00062762
0.000627622
0.000614241
0.000627618
0.00061425
0.000627621
0.000609866
0.000596539
0.000609877
0.00059655
0.000609862
0.000609869
0.000596665
0.000596529
0.000596537
0.000578705
0.000592057
0.000578711
0.000592068
0.000591828
0.000578693
0.000578698
0.000592054
0.000592062
0.000596496
0.000609809
0.00060981
0.000596492
0.000596543
0.000609805
0.000607603
0.0005987
0.000609753
0.000596542
0.000598706
0.000596537
0.000609761
0.000607607
0.000598672
0.000609748
0.000596504
0.0005987
0.00059202
0.0005787
0.000592046
0.000578692
0.000592015
0.0005787
0.000592021
0.00057869
0.000591954
0.000589801
0.000578716
0.000580896
0.000592003
0.000589804
0.000578729
0.000591948
0.000589761
0.000578706
0.000580877
0.00059197
0.000589791
0.000578725
0.000609793
0.000609779
0.000596621
0.000596471
0.000596453
0.000609781
0.000596461
0.000578703
0.000592015
0.000591778
0.000578684
0.000578671
0.000592005
0.000591986
0.000578685
0.000591989
0.00059657
0.000609816
0.000607601
0.000598707
0.000609767
0.000596561
0.000598713
0.000596531
0.000609843
0.000609835
0.000596538
0.000596569
0.000607603
0.000609793
0.000598702
0.000609767
0.000598712
0.00059655
0.000592052
0.000578717
0.000592069
0.000578718
0.000591984
0.000589812
0.000578733
0.000580916
0.000592023
0.000589819
0.000578756
0.000592051
0.000578737
0.000592067
0.000578719
0.000591983
0.000589799
0.000580907
0.000578748
0.000589814
0.000592017
0.000578756
0.000596433
0.000609783
0.000609771
0.00059645
0.000596483
0.000607657
0.000609732
0.000598676
0.000609731
0.000598714
0.00059644
0.000596428
0.000609763
0.000609769
0.000596418
0.000591891
0.000589743
0.000578669
0.00058084
0.000591933
0.000589771
0.000578669
0.00059195
0.000578657
0.000591975
0.000578633
0.000591888
0.000589736
0.000580837
0.000578639
0.000589774
0.000591902
0.000578664
0.000591945
0.000578629
0.000591944
0.000578628
0.000609835
0.000609825
0.000596659
0.000596523
0.000596503
0.000609826
0.000596509
0.00057874
0.000592066
0.000591817
0.000578724
0.000578708
0.000592057
0.000592036
0.000578719
0.000592035
0.000596509
0.000607653
0.000609744
0.000598686
0.000609749
0.000598724
0.000596457
0.000596466
0.000609821
0.000609797
0.000596492
0.000596456
0.000609779
0.000609791
0.000596438
0.000591922
0.000589782
0.000580872
0.000578706
0.000589798
0.000591978
0.000578696
0.000591914
0.000589748
0.000580857
0.000578652
0.000589791
0.000591918
0.000578687
0.000591982
0.00057869
0.000592016
0.000578661
0.000591971
0.000578644
0.000591964
0.000578651
0.000609753
0.000596415
0.000609763
0.000596424
0.000591765
0.000578617
0.000578622
0.000591934
0.00059194
0.000578634
0.00059194
0.000578639
0.000591947
0.000574218
0.000560861
0.000574221
0.000560862
0.00057421
0.000574214
0.000561012
0.000560843
0.000560843
0.000543018
0.000556374
0.000543023
0.000556375
0.000556162
0.000543003
0.000543006
0.000556364
0.000556364
0.000560871
0.000574226
0.000574205
0.000560892
0.0005609
0.00057417
0.000571982
0.000563058
0.000574136
0.000560876
0.000563064
0.000560899
0.000574171
0.000571962
0.000563027
0.000574133
0.000560898
0.000563047
0.000556379
0.000543025
0.000556383
0.000543034
0.000556383
0.00054305
0.00055641
0.000543038
0.000556307
0.000554133
0.00054304
0.000545235
0.000556332
0.000554148
0.000543071
0.000556305
0.000554123
0.000543067
0.000545232
0.000556357
0.000554138
0.000543074
0.000574218
0.000574206
0.000560976
0.000560882
0.000560881
0.000574214
0.000560897
0.000543052
0.000556414
0.000556136
0.00054304
0.000543049
0.000556406
0.000556408
0.000543068
0.000556419
0.000560911
0.000574184
0.000572005
0.000563065
0.000574158
0.000560879
0.000563083
0.000560882
0.000574258
0.000574231
0.000560911
0.000560912
0.000571991
0.000574206
0.000563047
0.000574159
0.000563068
0.000560916
0.000556386
0.000543026
0.000556383
0.000543035
0.000556313
0.000554136
0.000543039
0.000545237
0.000556332
0.000554158
0.000543067
0.00055639
0.000543062
0.000556428
0.000543038
0.000556312
0.000554128
0.000545233
0.000543072
0.000554147
0.00055637
0.000543068
0.00056085
0.000574189
0.000574156
0.000560878
0.000560865
0.000571907
0.000574108
0.000562964
0.000574077
0.000562986
0.000560863
0.000560847
0.000574162
0.00057415