/*--------------------------------*- C++ -*----------------------------------*\
| =========                 |                                                 |
| \\      /  F ield         | OpenFOAM: The Open Source CFD Toolbox           |
|  \\    /   O peration     | Version:  v1906                                 |
|   \\  /    A nd           | Web:      www.OpenFOAM.com                      |
|    \\/     M anipulation  |                                                 |
\*---------------------------------------------------------------------------*/
FoamFile
{
    version     2.0;
    format      ascii;
    class       volScalarField;
    location    "625";
    object      p;
}
// * * * * * * * * * * * * * * * * * * * * * * * * * * * * * * * * * * * * * //

dimensions      [0 2 -2 0 0 0 0];


internalField   nonuniform List<scalar> 
42616
(
0.00360464
0.00360497
0.00360497
0.00360802
0.00354929
0.0035497
0.0035497
0.0035527
0.00349853
0.00349851
0.0034985
0.00350126
0.00344615
0.00344616
0.00344616
0.00344893
0.0033948
0.00339481
0.00339481
0.00339756
0.00334482
0.00334483
0.00334483
0.00334755
0.0032963
0.00329631
0.00329631
0.00329899
0.00324907
0.00324909
0.00324909
0.00325174
0.00320294
0.00320295
0.00320295
0.00320558
0.00315771
0.00315772
0.00315772
0.00316032
0.0031132
0.00311322
0.00311322
0.00311579
0.00306929
0.00306931
0.0030693
0.00307185
0.00302589
0.00302592
0.00302591
0.00302842
0.00298296
0.00298298
0.00298298
0.00298549
0.00294047
0.00294048
0.00294048
0.00294298
0.00289838
0.00289838
0.00289838
0.00290087
0.00285667
0.00285667
0.00285667
0.00285915
0.00281532
0.00281532
0.00281532
0.00281779
0.00277431
0.0027743
0.0027743
0.00277676
0.00273361
0.00273359
0.00273359
0.00273605
0.00269321
0.00269317
0.00269317
0.00269562
0.00361805
0.00361827
0.00361827
0.00361805
0.00361827
0.00361827
0.00361904
0.00361904
0.00361904
0.00361904
0.00361827
0.00361827
0.00361805
0.00361828
0.00361828
0.00361805
0.00360802
0.00355927
0.00360497
0.00360497
0.00356155
0.00356155
0.00360802
0.00355926
0.00360497
0.00360497
0.00356154
0.00356154
0.00360497
0.00356154
0.00356154
0.00360802
0.00355927
0.00360497
0.00356154
0.00356154
0.00355926
0.0035527
0.00350819
0.00354971
0.00354971
0.00351163
0.00351163
0.0035527
0.00350819
0.0035497
0.0035497
0.00351163
0.00351163
0.00354971
0.00351163
0.00351163
0.00355269
0.00350819
0.0035497
0.00351163
0.00351163
0.00350819
0.00350126
0.00345582
0.00349851
0.00349851
0.00345918
0.00345918
0.00350126
0.00345582
0.00349851
0.00349851
0.00345918
0.00345918
0.00349851
0.00345918
0.00345918
0.00350126
0.00345582
0.00349851
0.00345917
0.00345918
0.00345582
0.00344894
0.00340426
0.00344616
0.00344616
0.00340753
0.00340753
0.00344894
0.00340426
0.00344616
0.00344616
0.00340753
0.00340753
0.00344616
0.00340753
0.00340753
0.00344894
0.00340426
0.00344616
0.00340753
0.00340753
0.00340426
0.00339756
0.00335405
0.00339481
0.00339481
0.00335719
0.00335719
0.00339756
0.00335405
0.00339481
0.00339481
0.00335718
0.00335719
0.00339481
0.00335719
0.00335719
0.00339756
0.00335405
0.00339481
0.00335719
0.00335719
0.00335405
0.00334755
0.0033053
0.00334483
0.00334483
0.00330831
0.00330831
0.00334755
0.00330529
0.00334483
0.00334483
0.00330831
0.00330832
0.00334483
0.00330831
0.00330831
0.00334755
0.00330529
0.00334483
0.00330831
0.00330831
0.00330529
0.00329899
0.00325787
0.00329631
0.00329631
0.00326078
0.00326079
0.00329899
0.00325787
0.00329631
0.00329631
0.00326078
0.00326079
0.00329631
0.00326079
0.00326078
0.00329899
0.00325787
0.00329631
0.00326079
0.00326078
0.00325787
0.00325174
0.00321157
0.00324909
0.00324908
0.0032144
0.0032144
0.00325173
0.00321157
0.00324909
0.00324908
0.0032144
0.0032144
0.00324909
0.0032144
0.00321439
0.00325173
0.00321157
0.00324909
0.0032144
0.0032144
0.00321157
0.00320558
0.0031662
0.00320296
0.00320295
0.00316896
0.00316897
0.00320557
0.00316619
0.00320296
0.00320295
0.00316896
0.00316896
0.00320296
0.00316897
0.00316896
0.00320558
0.00316619
0.00320296
0.00316897
0.00316896
0.0031662
0.00316032
0.00312157
0.00315773
0.00315772
0.00312428
0.00312429
0.00316031
0.00312157
0.00315773
0.00315772
0.00312428
0.00312429
0.00315773
0.00312429
0.00312429
0.00316032
0.00312156
0.00315773
0.00312429
0.00312429
0.00312156
0.00311579
0.00307755
0.00311323
0.00311322
0.00308023
0.00308024
0.00311578
0.00307755
0.00311322
0.00311322
0.00308023
0.00308024
0.00311322
0.00308024
0.00308023
0.00311578
0.00307755
0.00311322
0.00308024
0.00308023
0.00307755
0.00307185
0.00303406
0.00306931
0.00306931
0.00303671
0.00303671
0.00307185
0.00303406
0.00306931
0.0030693
0.00303671
0.00303671
0.00306931
0.00303671
0.00303672
0.00307185
0.00303406
0.00306931
0.00303671
0.00303672
0.00303406
0.00302843
0.00299104
0.00302591
0.00302592
0.00299368
0.00299367
0.00302843
0.00299105
0.00302591
0.00302591
0.00299368
0.00299367
0.00302591
0.00299367
0.00299367
0.00302843
0.00299105
0.00302591
0.00299367
0.00299367
0.00299105
0.00298548
0.00294849
0.00298298
0.00298298
0.00295106
0.00295107
0.00298549
0.00294849
0.00298298
0.00298298
0.00295106
0.00295107
0.00298298
0.00295107
0.00295106
0.00298548
0.00294849
0.00298298
0.00295107
0.00295106
0.00294849
0.00294298
0.00290633
0.00294048
0.00294048
0.00290887
0.00290887
0.00294298
0.00290633
0.00294048
0.00294048
0.00290887
0.00290887
0.00294048
0.00290887
0.00290887
0.00294298
0.00290633
0.00294048
0.00290887
0.00290887
0.00290634
0.00290087
0.00286456
0.00289838
0.00289838
0.00286706
0.00286706
0.00290087
0.00286456
0.00289838
0.00289838
0.00286706
0.00286706
0.00289838
0.00286706
0.00286706
0.00290087
0.00286456
0.00289838
0.00286706
0.00286706
0.00286456
0.00285915
0.00282316
0.00285667
0.00285667
0.00282562
0.00282562
0.00285915
0.00282316
0.00285667
0.00285667
0.00282562
0.00282562
0.00285667
0.00282562
0.00282562
0.00285915
0.00282316
0.00285667
0.00282562
0.00282562
0.00282316
0.00281779
0.00278209
0.00281532
0.00281532
0.00278452
0.00278452
0.00281779
0.00278209
0.00281532
0.00281532
0.00278452
0.00278452
0.00281532
0.00278452
0.00278452
0.00281779
0.00278209
0.00281532
0.00278452
0.00278452
0.00278209
0.00277676
0.00274134
0.0027743
0.0027743
0.00274374
0.00274374
0.00277676
0.00274134
0.0027743
0.0027743
0.00274374
0.00274374
0.0027743
0.00274374
0.00274374
0.00277676
0.00274134
0.0027743
0.00274374
0.00274374
0.00274134
0.00273605
0.00270088
0.00273359
0.00273359
0.00270325
0.00270325
0.00273604
0.00270088
0.00273359
0.00273359
0.00270325
0.00270325
0.00273359
0.00270325
0.00270325
0.00273605
0.00270088
0.00273359
0.00270325
0.00270325
0.00270088
0.00269562
0.00269317
0.00269317
0.00269562
0.00269317
0.00269317
0.00269317
0.00269562
0.00269317
0.00362643
0.00363619
0.00363098
0.00363099
0.00365337
0.00364015
0.00366876
0.0036342
0.00365337
0.00364015
0.0036342
0.00366876
0.00364472
0.0036725
0.0036725
0.00358178
0.00360093
0.00361012
0.00357386
0.0035746
0.00357737
0.00358176
0.00360091
0.00361011
0.00357384
0.00360464
0.00360464
0.00360464
0.00356124
0.00356124
0.00356124
0.00356124
0.00357928
0.00360511
0.00360504
0.00358811
0.00360813
0.00357819
0.00358899
0.0035747
0.00357737
0.00357929
0.00360504
0.00360512
0.00358811
0.00360813
0.00358899
0.00357818
0.00361098
0.00361097
0.00358251
0.00357782
0.00357782
0.00353515
0.00355443
0.00355579
0.00353369
0.00355334
0.00353325
0.00353515
0.00355442
0.00355579
0.00353368
0.00354929
0.00354928
0.00354928
0.0035117
0.0035117
0.0035117
0.0035117
0.00353374
0.00355451
0.00354928
0.00353742
0.0035533
0.00353428
0.00353715
0.00355333
0.00353324
0.00353374
0.00354928
0.0035545
0.00353741
0.00355329
0.00353714
0.00353428
0.00355552
0.00355552
0.00353396
0.00353461
0.00353461
0.00348289
0.00350169
0.00350276
0.00348186
0.00350133
0.00348158
0.00348289
0.00350169
0.00350276
0.00348186
0.00349853
0.00349853
0.00349853
0.00345915
0.00345915
0.00345915
0.00345915
0.00348199
0.00350209
0.00349841
0.00348536
0.00350153
0.00348235
0.00348527
0.00350133
0.00348158
0.00348199
0.00349841
0.00350209
0.00348536
0.00350153
0.00348527
0.00348235
0.00350233
0.00350233
0.00348198
0.00348242
0.00348242
0.00343036
0.00344902
0.00344988
0.00342959
0.00344881
0.00342941
0.00343036
0.00344902
0.00344988
0.00342959
0.00344615
0.00344615
0.00344615
0.00340752
0.00340752
0.00340752
0.00340752
0.00342985
0.00344942
0.00344611
0.00343321
0.00344914
0.00343004
0.00343317
0.00344881
0.00342941
0.00342985
0.00344611
0.00344942
0.00343321
0.00344914
0.00343317
0.00343004
0.00344946
0.00344946
0.0034299
0.00342998
0.00342998
0.00337917
0.00339752
0.00339815
0.00337861
0.00339738
0.00337847
0.00337917
0.00339752
0.00339815
0.00337861
0.0033948
0.0033948
0.0033948
0.00335717
0.00335717
0.00335717
0.00335717
0.00337889
0.00339787
0.00339478
0.00338217
0.0033977
0.003379
0.00338215
0.00339737
0.00337848
0.00337889
0.00339478
0.00339787
0.00338217
0.0033977
0.00338215
0.003379
0.00339786
0.00339786
0.00337897
0.00337891
0.00337891
0.00332952
0.00334747
0.00334793
0.00332913
0.00334736
0.003329
0.00332952
0.00334747
0.00334793
0.00332913
0.00334482
0.00334482
0.00334482
0.0033083
0.0033083
0.0033083
0.0033083
0.0033294
0.00334777
0.00334481
0.00333257
0.00334766
0.00332947
0.00333254
0.00334735
0.00332901
0.0033294
0.00334481
0.00334777
0.00333257
0.00334766
0.00333254
0.00332947
0.00334776
0.00334776
0.00332949
0.00332939
0.00332939
0.00328135
0.0032989
0.00329922
0.00328107
0.0032988
0.00328097
0.00328135
0.0032989
0.00329922
0.00328107
0.0032963
0.0032963
0.0032963
0.00326076
0.00326076
0.00326076
0.00326076
0.00328133
0.00329916
0.00329628
0.00328439
0.00329907
0.00328139
0.00328436
0.0032988
0.00328097
0.00328133
0.00329628
0.00329916
0.00328439
0.00329907
0.00328436
0.00328139
0.00329915
0.00329915
0.00328143
0.0032813
0.0032813
0.00323446
0.00325164
0.00325187
0.00323425
0.00325155
0.00323416
0.00323446
0.00325164
0.00325187
0.00323425
0.00324907
0.00324907
0.00324907
0.00321438
0.00321438
0.00321438
0.00321438
0.0032345
0.00325187
0.00324905
0.00323747
0.00325179
0.00323455
0.00323743
0.00325155
0.00323416
0.0032345
0.00324905
0.00325187
0.00323747
0.00325179
0.00323743
0.00323455
0.00325187
0.00325187
0.00323459
0.00323447
0.00323447
0.00318862
0.00320549
0.00320567
0.00318846
0.0032054
0.00318837
0.00318862
0.00320549
0.00320567
0.00318846
0.00320294
0.00320294
0.00320294
0.00316894
0.00316894
0.00316894
0.00316894
0.0031887
0.0032057
0.00320293
0.00319158
0.00320563
0.00318875
0.00319154
0.0032054
0.00318837
0.0031887
0.00320293
0.0032057
0.00319158
0.00320563
0.00319154
0.00318874
0.0032057
0.0032057
0.00318878
0.00318866
0.00318866
0.00314363
0.00316024
0.00316038
0.0031435
0.00316015
0.00314341
0.00314363
0.00316024
0.00316038
0.0031435
0.0031577
0.0031577
0.00315771
0.00312426
0.00312426
0.00312426
0.00312426
0.00314373
0.00316043
0.0031577
0.00314654
0.00316037
0.00314378
0.00314651
0.00316015
0.00314341
0.00314373
0.0031577
0.00316043
0.00314654
0.00316037
0.00314651
0.00314378
0.00316043
0.00316043
0.0031438
0.00314368
0.00314367
0.00309933
0.0031157
0.00311584
0.0030992
0.00311562
0.00309912
0.00309933
0.0031157
0.00311584
0.0030992
0.0031132
0.0031132
0.0031132
0.00308021
0.00308021
0.00308021
0.00308021
0.00309945
0.0031159
0.00311319
0.00310219
0.00311585
0.00309948
0.00310216
0.00311562
0.00309912
0.00309945
0.00311319
0.0031159
0.00310219
0.00311585
0.00310216
0.00309948
0.00311588
0.00311588
0.00309949
0.00309936
0.00309936
0.00305559
0.00307177
0.00307189
0.00305546
0.00307169
0.00305539
0.00305559
0.00307177
0.00307189
0.00305546
0.00306929
0.00306929
0.00306929
0.0030367
0.0030367
0.0030367
0.0030367
0.00305573
0.00307196
0.00306929
0.00305841
0.00307193
0.00305574
0.00305839
0.00307169
0.00305539
0.00305573
0.00306929
0.00307196
0.00305842
0.00307193
0.00305839
0.00305574
0.00307193
0.00307193
0.00305574
0.00305561
0.00305561
0.00301234
0.00302834
0.00302847
0.00301222
0.00302827
0.00301215
0.00301234
0.00302834
0.00302847
0.00301222
0.00302589
0.00302589
0.00302589
0.00299366
0.00299366
0.00299365
0.00299366
0.00301251
0.00302853
0.0030259
0.00301513
0.00302852
0.00301249
0.00301512
0.00302827
0.00301215
0.00301251
0.0030259
0.00302853
0.00301513
0.00302852
0.00301512
0.00301249
0.00302849
0.00302849
0.00301249
0.00301235
0.00301235
0.00296955
0.00298538
0.00298551
0.00296942
0.00298532
0.00296936
0.00296955
0.00298538
0.00298551
0.00296942
0.00298297
0.00298297
0.00298297
0.00295105
0.00295105
0.00295105
0.00295105
0.00296974
0.00298556
0.00298297
0.00297232
0.00298558
0.00296969
0.00297231
0.00298532
0.00296936
0.00296974
0.00298297
0.00298556
0.00297232
0.00298558
0.00297231
0.00296969
0.00298552
0.00298552
0.00296972
0.00296954
0.00296954
0.00292718
0.00294286
0.00294299
0.00292705
0.0029428
0.002927
0.00292718
0.00294286
0.00294298
0.00292705
0.00294047
0.00294047
0.00294047
0.00290886
0.00290886
0.00290886
0.00290886
0.00292739
0.00294303
0.00294048
0.00292992
0.00294307
0.00292732
0.00292992
0.0029428
0.002927
0.00292739
0.00294048
0.00294303
0.00292992
0.00294307
0.00292992
0.00292732
0.00294298
0.00294298
0.00292736
0.00292716
0.00292716
0.00288521
0.00290074
0.00290086
0.00288508
0.00290068
0.00288504
0.00288521
0.00290074
0.00290086
0.00288509
0.00289838
0.00289838
0.00289838
0.00286706
0.00286706
0.00286706
0.00286706
0.00288544
0.0029009
0.00289839
0.00288792
0.00290097
0.00288534
0.00288793
0.00290069
0.00288504
0.00288544
0.00289839
0.0029009
0.00288792
0.00290097
0.00288793
0.00288534
0.00290085
0.00290085
0.0028854
0.00288519
0.00288519
0.00284361
0.00285901
0.00285913
0.00284349
0.00285897
0.00284345
0.00284361
0.00285901
0.00285913
0.00284349
0.00285667
0.00285667
0.00285667
0.00282563
0.00282563
0.00282563
0.00282563
0.00284387
0.00285916
0.00285669
0.0028463
0.00285925
0.00284374
0.00284632
0.00285897
0.00284345
0.00284387
0.00285669
0.00285916
0.0028463
0.00285925
0.00284632
0.00284374
0.00285911
0.00285911
0.00284382
0.00284359
0.00284359
0.00280237
0.00281765
0.00281775
0.00280226
0.00281761
0.00280222
0.00280237
0.00281765
0.00281775
0.00280226
0.00281532
0.00281532
0.00281532
0.00278453
0.00278453
0.00278453
0.00278453
0.00280263
0.00281778
0.00281534
0.00280503
0.00281789
0.00280249
0.00280506
0.00281761
0.00280222
0.00280263
0.00281534
0.00281778
0.00280503
0.00281789
0.00280506
0.00280249
0.00281774
0.00281774
0.00280259
0.00280234
0.00280234
0.00276145
0.00277662
0.00277672
0.00276134
0.00277658
0.00276131
0.00276145
0.00277662
0.00277672
0.00276135
0.00277431
0.00277431
0.00277431
0.00274376
0.00274376
0.00274376
0.00274376
0.00276172
0.00277673
0.00277433
0.00276409
0.00277686
0.00276156
0.00276412
0.00277658
0.00276131
0.00276172
0.00277433
0.00277673
0.00276409
0.00277685
0.00276412
0.00276156
0.0027767
0.0027767
0.00276168
0.00276142
0.00276142
0.00272083
0.0027359
0.00273599
0.00272074
0.00273586
0.00272072
0.00272083
0.0027359
0.00273599
0.00272074
0.00273361
0.00273361
0.00273361
0.00270328
0.00270328
0.00270328
0.00270328
0.00272111
0.002736
0.00273362
0.00272346
0.00273613
0.00272094
0.00272349
0.00273587
0.00272071
0.00272111
0.00273362
0.002736
0.00272346
0.00273613
0.00272349
0.00272094
0.00273597
0.00273597
0.00272108
0.0027208
0.0027208
0.0026805
0.00269547
0.00269556
0.00268041
0.00269543
0.0026804
0.00269547
0.00269556
0.00268042
0.00269321
0.00269321
0.00269321
0.00268077
0.00269556
0.0026932
0.00268311
0.00269569
0.0026806
0.00268314
0.00269544
0.00268077
0.0026932
0.00269556
0.00269568
0.00268314
0.00269553
0.00269553
0.00268076
0.00268047
0.00268047
0.00364472
0.00367249
0.0036725
0.00363685
0.00367202
0.00363682
0.00367204
0.00364157
0.00362863
0.00362864
0.0036673
0.00366731
0.00365335
0.00364015
0.00366875
0.00363419
0.00365335
0.00364015
0.00366875
0.00363419
0.00365787
0.00362892
0.00366915
0.00362372
0.00365787
0.0036289
0.00366915
0.00362373
0.00364895
0.00363767
0.00362009
0.0036205
0.00366402
0.00363263
0.00362072
0.00364895
0.00363767
0.00362009
0.0036205
0.00366402
0.00363263
0.00362072
0.00364472
0.00367249
0.0036725
0.00363681
0.00367202
0.00364157
0.00362862
0.00362864
0.0036673
0.00366731
0.00363684
0.00367203
0.00365337
0.00364015
0.00366876
0.0036342
0.00365337
0.00364015
0.0036342
0.00366876
0.00365789
0.00362891
0.00366917
0.00362374
0.00364897
0.00363768
0.00362009
0.0036205
0.00366403
0.00363264
0.00362073
0.00365789
0.00362892
0.00366916
0.00362373
0.00364897
0.00363768
0.0036205
0.0036201
0.00363264
0.00366403
0.00362073
0.00362643
0.00363619
0.00363098
0.00363099
0.00362643
0.00363619
0.00363099
0.00363099
0.00362643
0.00363619
0.00363099
0.00363099
0.00362519
0.00363427
0.00361716
0.00361716
0.00362955
0.00362955
0.00361533
0.00362519
0.00363427
0.00361716
0.00361716
0.00362955
0.00362955
0.00361533
0.00362519
0.00363427
0.00361716
0.00361716
0.00362956
0.00362956
0.00361533
0.00362519
0.00363427
0.00361716
0.00361716
0.00362955
0.00362956
0.00361533
0.00365337
0.00364015
0.0036342
0.00366875
0.00364897
0.00363768
0.00362009
0.0036205
0.00366403
0.00363264
0.00362073
0.00365789
0.00362892
0.00366916
0.00362374
0.00364897
0.00363768
0.0036205
0.0036201
0.00363264
0.00366403
0.00362073
0.00365789
0.00362891
0.00366916
0.00362373
0.00364472
0.0036725
0.0036725
0.0036368
0.00367203
0.00364158
0.00362863
0.00362863
0.00366731
0.00366731
0.00363679
0.00367203
0.00365337
0.00364015
0.0036342
0.00366876
0.00364897
0.00363768
0.0036205
0.0036201
0.00363264
0.00366403
0.00362073
0.00364897
0.00363768
0.0036205
0.0036201
0.00363264
0.00366403
0.00362073
0.00365789
0.00362892
0.00366917
0.00362373
0.00365789
0.00362893
0.00366917
0.00362374
0.00364157
0.00362863
0.00362864
0.00366731
0.00366731
0.0036368
0.00367203
0.00363682
0.00367204
0.0035746
0.00357736
0.0035747
0.00357734
0.00361094
0.00361098
0.00358252
0.00357782
0.00357782
0.00356011
0.00357701
0.00356011
0.00357702
0.00357586
0.00356271
0.00356272
0.00357597
0.00357597
0.00358178
0.00360091
0.00361012
0.00357386
0.0035793
0.00360511
0.00360504
0.0035881
0.00360813
0.00357819
0.00358899
0.0035793
0.00360511
0.00360504
0.00358811
0.00360813
0.0035782
0.00358899
0.00357723
0.00356184
0.00357476
0.00356259
0.00357723
0.00356184
0.00357476
0.00356259
0.00357428
0.0035738
0.00356153
0.00356128
0.00357535
0.00357421
0.00355987
0.00357427
0.0035738
0.00356153
0.00356128
0.00357535
0.00357421
0.00355987
0.00361093
0.00361098
0.00358253
0.00357782
0.00357782
0.00357475
0.00357735
0.00356011
0.00357702
0.00357586
0.00356271
0.00356272
0.00357597
0.00357597
0.0035601
0.00357702
0.00357928
0.00360511
0.00360504
0.00358811
0.00360813
0.00357819
0.00358899
0.00358177
0.00360092
0.0036101
0.00357386
0.00357929
0.00360504
0.00360511
0.0035881
0.00360813
0.00358899
0.00357819
0.00357723
0.00356184
0.00357476
0.00356259
0.00357426
0.0035738
0.00356153
0.00356128
0.00357534
0.00357421
0.00355987
0.00357723
0.00356184
0.00357477
0.00356259
0.00357427
0.0035738
0.00356128
0.00356152
0.00357421
0.00357535
0.00355987
0.00358176
0.00360092
0.00361011
0.00357385
0.00357929
0.00360504
0.00360512
0.0035881
0.00360813
0.00358899
0.00357819
0.00358177
0.00360093
0.0036101
0.00357385
0.00357426
0.0035738
0.00356152
0.00356128
0.00357534
0.00357421
0.00355987
0.00357723
0.00356184
0.00357476
0.00356259
0.00357427
0.0035738
0.00356128
0.00356153
0.00357421
0.00357534
0.00355987
0.00357723
0.00356185
0.00357475
0.00356259
0.00361097
0.00361098
0.00358251
0.00357782
0.00357782
0.00357471
0.00357735
0.00356011
0.00357703
0.00357586
0.00356272
0.00356272
0.00357598
0.00357596
0.00356011
0.00357699
0.00357928
0.00360504
0.00360511
0.00358811
0.00360813
0.00358899
0.00357818
0.00358176
0.00360093
0.0036101
0.00357384
0.00358176
0.00360092
0.00361011
0.00357385
0.00357427
0.0035738
0.00356128
0.00356153
0.00357421
0.00357534
0.00355987
0.00357426
0.0035738
0.00356128
0.00356152
0.00357422
0.00357534
0.00355987
0.00357723
0.00356184
0.00357476
0.00356259
0.00357722
0.00356184
0.00357476
0.00356259
0.00357473
0.00357735
0.00357473
0.00357735
0.00357586
0.00356272
0.00356271
0.00357597
0.00357597
0.00356012
0.003577
0.0035601
0.00357701
0.00355334
0.00353325
0.00355333
0.00353324
0.00355552
0.00355552
0.00353396
0.00353461
0.00353461
0.00350786
0.00352682
0.00350786
0.00352682
0.00352717
0.00350893
0.00350893
0.00352815
0.00352815
0.00353515
0.00355443
0.00355579
0.00353369
0.00353374
0.00355451
0.00354928
0.00353742
0.0035533
0.00353428
0.00353714
0.00353374
0.00355451
0.00354928
0.00353742
0.0035533
0.00353428
0.00353714
0.00352862
0.00350826
0.00352731
0.00350937
0.00352862
0.00350826
0.00352731
0.00350937
0.0035272
0.00352465
0.00350873
0.00351153
0.00352783
0.00352452
0.0035082
0.0035272
0.00352465
0.00350873
0.00351153
0.00352783
0.00352452
0.0035082
0.00355552
0.00355553
0.00353397
0.00353461
0.00353462
0.00355334
0.00353325
0.00350786
0.00352682
0.00352717
0.00350893
0.00350893
0.00352815
0.00352815
0.00350786
0.00352682
0.00353373
0.0035545
0.00354928
0.00353741
0.00355329
0.00353427
0.00353714
0.00353515
0.00355442
0.00355579
0.00353368
0.00353373
0.00354928
0.0035545
0.00353741
0.00355329
0.00353714
0.00353427
0.00352862
0.00350826
0.00352731
0.00350936
0.0035272
0.00352465
0.00350873
0.00351153
0.00352783
0.00352452
0.0035082
0.00352862
0.00350826
0.00352731
0.00350936
0.0035272
0.00352465
0.00351153
0.00350873
0.00352452
0.00352783
0.0035082
0.00353515
0.00355443
0.00355579
0.00353369
0.00353374
0.00354928
0.00355451
0.00353742
0.0035533
0.00353714
0.00353428
0.00353515
0.00355443
0.00355579
0.00353368
0.0035272
0.00352465
0.00350873
0.00351153
0.00352783
0.00352452
0.0035082
0.00352862
0.00350826
0.00352731
0.00350937
0.0035272
0.00352465
0.00351153
0.00350873
0.00352452
0.00352783
0.0035082
0.00352862
0.00350826
0.00352731
0.00350937
0.00355552
0.00355552
0.00353396
0.00353461
0.00353461
0.00355334
0.00353324
0.00350786
0.00352681
0.00352717
0.00350893
0.00350893
0.00352815
0.00352815
0.00350786
0.00352682
0.00353374
0.00354928
0.0035545
0.00353741
0.00355329
0.00353714
0.00353428
0.00353515
0.00355442
0.00355579
0.00353369
0.00353515
0.00355442
0.00355579
0.00353369
0.0035272
0.00352465
0.00351153
0.00350873
0.00352452
0.00352783
0.0035082
0.0035272
0.00352465
0.00351153
0.00350873
0.00352452
0.00352783
0.0035082
0.00352863
0.00350826
0.00352731
0.00350936
0.00352862
0.00350826
0.00352731
0.00350936
0.00355334
0.00353324
0.00355333
0.00353325
0.00352717
0.00350893
0.00350893
0.00352815
0.00352815
0.00350786
0.00352681
0.00350786
0.00352682
0.00350133
0.00348158
0.00350133
0.00348158
0.00350233
0.00350233
0.00348198
0.00348242
0.00348242
0.00345535
0.00347496
0.00345535
0.00347496
0.00347503
0.00345603
0.00345603
0.00347576
0.00347576
0.00348289
0.00350169
0.00350276
0.00348186
0.00348199
0.00350209
0.00349841
0.00348536
0.00350153
0.00348235
0.00348527
0.00348199
0.00350209
0.00349841
0.00348537
0.00350153
0.00348235
0.00348527
0.00347621
0.00345557
0.00347522
0.00345647
0.00347621
0.00345557
0.00347522
0.00345647
0.00347527
0.00347225
0.00345605
0.00345911
0.00347565
0.00347217
0.00345579
0.00347527
0.00347225
0.00345605
0.00345911
0.00347565
0.00347217
0.00345579
0.00350233
0.00350233
0.00348198
0.00348242
0.00348242
0.00350133
0.00348158
0.00345535
0.00347496
0.00347503
0.00345603
0.00345603
0.00347576
0.00347576
0.00345535
0.00347496
0.00348199
0.00350209
0.00349841
0.00348536
0.00350153
0.00348235
0.00348527
0.00348289
0.00350169
0.00350276
0.00348186
0.00348199
0.00349841
0.00350209
0.00348537
0.00350153
0.00348527
0.00348235
0.00347621
0.00345557
0.00347522
0.00345647
0.00347527
0.00347225
0.00345605
0.00345911
0.00347565
0.00347217
0.00345579
0.00347621
0.00345557
0.00347522
0.00345647
0.00347527
0.00347225
0.00345911
0.00345605
0.00347217
0.00347565
0.00345579
0.00348289
0.00350169
0.00350276
0.00348186
0.00348199
0.00349841
0.00350209
0.00348536
0.00350153
0.00348527
0.00348235
0.00348289
0.00350169
0.00350276
0.00348186
0.00347527
0.00347225
0.00345605
0.00345911
0.00347565
0.00347217
0.00345579
0.00347621
0.00345557
0.00347522
0.00345647
0.00347527
0.00347225
0.00345911
0.00345605
0.00347217
0.00347565
0.00345579
0.00347621
0.00345557
0.00347522
0.00345647
0.00350233
0.00350233
0.00348198
0.00348242
0.00348242
0.00350133
0.00348158
0.00345535
0.00347496
0.00347503
0.00345603
0.00345603
0.00347575
0.00347576
0.00345535
0.00347496
0.00348199
0.00349841
0.00350209
0.00348536
0.00350153
0.00348527
0.00348235
0.00348289
0.00350169
0.00350276
0.00348186
0.00348289
0.00350169
0.00350276
0.00348186
0.00347527
0.00347225
0.00345911
0.00345605
0.00347217
0.00347565
0.00345579
0.00347527
0.00347225
0.00345911
0.00345605
0.00347217
0.00347565
0.00345579
0.00347621
0.00345557
0.00347522
0.00345647
0.00347621
0.00345557
0.00347522
0.00345647
0.00350133
0.00348158
0.00350133
0.00348158
0.00347503
0.00345603
0.00345603
0.00347576
0.00347576
0.00345535
0.00347496
0.00345535
0.00347496
0.00344881
0.00342941
0.00344881
0.00342941
0.00344946
0.00344946
0.0034299
0.00342998
0.00342998
0.00340377
0.00342294
0.00340377
0.00342294
0.0034231
0.00340425
0.00340425
0.00342349
0.00342349
0.00343036
0.00344902
0.00344988
0.00342959
0.00342985
0.00344942
0.00344611
0.00343321
0.00344914
0.00343004
0.00343317
0.00342985
0.00344942
0.00344611
0.00343321
0.00344914
0.00343004
0.00343317
0.00342385
0.00340392
0.00342311
0.00340458
0.00342385
0.00340392
0.00342311
0.00340458
0.00342327
0.00342033
0.00340434
0.0034075
0.00342348
0.0034203
0.0034042
0.00342327
0.00342033
0.00340434
0.0034075
0.00342348
0.0034203
0.0034042
0.00344946
0.00344946
0.0034299
0.00342998
0.00342998
0.00344881
0.00342941
0.00340377
0.00342294
0.0034231
0.00340426
0.00340425
0.00342349
0.00342349
0.00340377
0.00342294
0.00342985
0.00344942
0.00344611
0.00343321
0.00344914
0.00343004
0.00343317
0.00343036
0.00344902
0.00344988
0.00342959
0.00342985
0.00344611
0.00344942
0.00343321
0.00344914
0.00343317
0.00343004
0.00342385
0.00340392
0.00342311
0.00340457
0.00342327
0.00342033
0.00340434
0.0034075
0.00342348
0.0034203
0.0034042
0.00342385
0.00340392
0.00342311
0.00340457
0.00342327
0.00342033
0.0034075
0.00340434
0.0034203
0.00342348
0.0034042
0.00343036
0.00344902
0.00344988
0.00342959
0.00342985
0.00344611
0.00344942
0.00343321
0.00344914
0.00343317
0.00343004
0.00343036
0.00344902
0.00344988
0.00342959
0.00342327
0.00342033
0.00340434
0.0034075
0.00342348
0.0034203
0.0034042
0.00342385
0.00340392
0.00342311
0.00340458
0.00342327
0.00342033
0.0034075
0.00340434
0.0034203
0.00342348
0.0034042
0.00342385
0.00340392
0.00342311
0.00340458
0.00344946
0.00344946
0.0034299
0.00342998
0.00342998
0.00344881
0.00342941
0.00340377
0.00342294
0.0034231
0.00340425
0.00340425
0.00342349
0.00342349
0.00340377
0.00342294
0.00342985
0.00344611
0.00344942
0.00343321
0.00344914
0.00343317
0.00343004
0.00343036
0.00344902
0.00344988
0.00342959
0.00343036
0.00344902
0.00344988
0.00342959
0.00342327
0.00342033
0.0034075
0.00340434
0.0034203
0.00342348
0.0034042
0.00342327
0.00342033
0.0034075
0.00340434
0.0034203
0.00342348
0.0034042
0.00342385
0.00340392
0.00342311
0.00340457
0.00342385
0.00340392
0.00342311
0.00340457
0.00344881
0.00342941
0.00344881
0.00342941
0.00342309
0.00340425
0.00340425
0.00342349
0.00342349
0.00340377
0.00342294
0.00340377
0.00342294
0.00339737
0.00337848
0.00339737
0.00337848
0.00339786
0.00339786
0.00337897
0.00337891
0.00337891
0.00335356
0.00337218
0.00335356
0.00337218
0.00337237
0.00335396
0.00335396
0.00337261
0.00337261
0.00337917
0.00339752
0.00339815
0.00337861
0.0033789
0.00339787
0.00339478
0.00338217
0.0033977
0.003379
0.00338215
0.0033789
0.00339787
0.00339478
0.00338217
0.0033977
0.003379
0.00338214
0.00337284
0.00335368
0.00337231
0.00335415
0.00337284
0.00335368
0.0033723
0.00335415
0.00337249
0.00336963
0.00335405
0.00335716
0.00337263
0.00336961
0.00335397
0.00337249
0.00336963
0.00335405
0.00335716
0.00337263
0.00336961
0.00335397
0.00339786
0.00339786
0.00337897
0.00337891
0.00337891
0.00339737
0.00337848
0.00335356
0.00337217
0.00337237
0.00335396
0.00335396
0.00337261
0.00337261
0.00335356
0.00337218
0.00337889
0.00339787
0.00339478
0.00338217
0.0033977
0.003379
0.00338215
0.00337917
0.00339752
0.00339815
0.00337861
0.0033789
0.00339478
0.00339787
0.00338217
0.0033977
0.00338214
0.003379
0.00337284
0.00335368
0.0033723
0.00335415
0.00337249
0.00336963
0.00335405
0.00335716
0.00337263
0.00336961
0.00335397
0.00337284
0.00335368
0.0033723
0.00335415
0.00337249
0.00336963
0.00335716
0.00335405
0.0033696
0.00337263
0.00335397
0.00337917
0.00339752
0.00339815
0.00337861
0.00337889
0.00339478
0.00339787
0.00338217
0.0033977
0.00338214
0.003379
0.00337917
0.00339752
0.00339815
0.00337861
0.00337249
0.00336963
0.00335405
0.00335716
0.00337263
0.00336961
0.00335397
0.00337284
0.00335368
0.0033723
0.00335415
0.00337249
0.00336963
0.00335716
0.00335405
0.00336961
0.00337263
0.00335397
0.00337284
0.00335368
0.0033723
0.00335415
0.00339786
0.00339786
0.00337897
0.00337891
0.00337891
0.00339737
0.00337848
0.00335356
0.00337218
0.00337237
0.00335396
0.00335396
0.00337261
0.00337261
0.00335356
0.00337218
0.00337889
0.00339478
0.00339787
0.00338217
0.0033977
0.00338215
0.003379
0.00337917
0.00339752
0.00339815
0.00337861
0.00337917
0.00339752
0.00339815
0.00337861
0.00337249
0.00336963
0.00335716
0.00335405
0.00336961
0.00337263
0.00335397
0.00337249
0.00336963
0.00335716
0.00335405
0.00336961
0.00337263
0.00335397
0.00337284
0.00335368
0.0033723
0.00335415
0.00337284
0.00335368
0.0033723
0.00335415
0.00339737
0.00337848
0.00339737
0.00337848
0.00337237
0.00335396
0.00335396
0.00337261
0.00337261
0.00335356
0.00337218
0.00335356
0.00337218
0.00334735
0.00332901
0.00334735
0.00332901
0.00334775
0.00334776
0.0033295
0.00332939
0.00332939
0.00330483
0.0033229
0.00330483
0.0033229
0.0033231
0.00330518
0.00330518
0.00332328
0.00332328
0.00332952
0.00334747
0.00334793
0.00332912
0.0033294
0.00334777
0.00334481
0.00333257
0.00334766
0.00332947
0.00333254
0.0033294
0.00334777
0.00334481
0.00333257
0.00334766
0.00332947
0.00333254
0.00332339
0.00330493
0.00332301
0.00330526
0.00332339
0.00330493
0.003323
0.00330526
0.00332318
0.0033204
0.00330526
0.00330828
0.00332329
0.00332037
0.0033052
0.00332318
0.0033204
0.00330526
0.00330828
0.00332328
0.00332037