/*--------------------------------*- C++ -*----------------------------------*\
| =========                 |                                                 |
| \\      /  F ield         | OpenFOAM: The Open Source CFD Toolbox           |
|  \\    /   O peration     | Version:  v1906                                 |
|   \\  /    A nd           | Web:      www.OpenFOAM.com                      |
|    \\/     M anipulation  |                                                 |
\*---------------------------------------------------------------------------*/
FoamFile
{
    version     2.0;
    format      ascii;
    class       surfaceScalarField;
    location    "625";
    object      phi;
}
// * * * * * * * * * * * * * * * * * * * * * * * * * * * * * * * * * * * * * //

dimensions      [0 3 -1 0 0 0 0];
oriented        oriented;


internalField   nonuniform List<scalar> 
123728
(
-0.00104221
-1.45815e-05
-1.44777e-05
9.34771e-06
9.17762e-06
0.00105274
-0.00026146
-5.64183e-06
1.44583e-05
6.83957e-06
0.00105941
-4.53274e-06
-1.62486e-06
-2.21805e-06
-2.57554e-06
-6.59143e-06
-7.04427e-06
-3.16375e-06
-0.000263303
-0.000259727
-0.000262829
-0.000261437
-5.64682e-06
1.44873e-05
6.92911e-06
0.0010592
-4.53785e-06
-1.63504e-06
-2.22565e-06
-2.57985e-06
-6.58553e-06
-7.04034e-06
-3.16594e-06
-0.000259699
-0.000263274
-0.000262793
-0.000260564
5.61732e-06
5.65742e-06
-4.87815e-06
-4.87221e-06
0.00025904
-1.63187e-06
-1.63376e-06
-0.00106073
8.98537e-07
8.99307e-07
0.0010622
-0.00106267
-1.60665e-06
1.62783e-06
8.28417e-07
0.00106395
-6.53888e-07
7.84507e-07
-1.48149e-07
3.78011e-07
-8.00667e-07
-1.39484e-06
-2.90553e-07
-0.00106235
-1.60156e-06
1.63834e-06
8.23606e-07
0.00106363
-6.53866e-07
7.79017e-07
-1.48197e-07
3.75395e-07
-8.03195e-07
-1.39453e-06
-2.88006e-07
-0.000261533
1.63928e-06
1.60171e-06
-7.1327e-07
-7.1642e-07
0.000259722
-1.36113e-06
-1.36255e-06
-0.0010664
6.82252e-07
6.83062e-07
0.00106775
-0.0010679
-1.55715e-06
1.3673e-06
6.90355e-07
0.00106925
-6.21821e-07
8.38625e-07
-1.06573e-07
4.24394e-07
-7.80407e-07
-1.35997e-06
-2.45166e-07
-0.00106758
-1.55189e-06
1.36211e-06
6.95678e-07
0.00106892
-6.21823e-07
8.33214e-07
-1.06544e-07
4.24339e-07
-7.80329e-07
-1.35442e-06
-2.42615e-07
-0.000262766
1.58732e-06
1.55204e-06
-6.74944e-07
-6.8312e-07
0.000260984
-1.34098e-06
-1.34229e-06
-0.00107186
6.6441e-07
6.65261e-07
0.00107322
-0.00107326
-1.55555e-06
1.34196e-06
6.6727e-07
0.00107457
-6.19908e-07
8.63798e-07
-8.15738e-08
4.3821e-07
-7.79453e-07
-1.36934e-06
-2.20267e-07
-0.00107292
-1.55022e-06
1.34185e-06
6.67347e-07
0.00107424
-6.17193e-07
8.5837e-07
-8.40303e-08
4.38154e-07
-7.81925e-07
-1.36912e-06
-2.17699e-07
-0.000264044
1.58325e-06
1.55043e-06
-6.64599e-07
-6.70255e-07
0.000262245
-1.29595e-06
-1.29716e-06
-0.00107721
6.42269e-07
6.43163e-07
0.00107852
-0.00107844
-1.54742e-06
1.29687e-06
6.34118e-07
0.00107969
-6.07392e-07
8.91671e-07
-5.62012e-08
4.60144e-07
-7.68236e-07
-1.37184e-06
-1.88975e-07
-0.0010781
-1.54202e-06
1.29669e-06
6.34117e-07
0.00107936
-6.04617e-07
8.86232e-07
-5.8625e-08
4.60144e-07
-7.70691e-07
-1.37164e-06
-1.86387e-07
-0.000265263
1.57524e-06
1.54224e-06
-6.47639e-07
-6.53302e-07
0.000263446
-1.24838e-06
-1.2495e-06
-0.00108237
6.20368e-07
6.21286e-07
0.00108362
-0.00108337
-1.539e-06
1.24923e-06
6.0444e-07
0.00108457
-5.9502e-07
9.17357e-07
-3.37665e-08
4.84397e-07
-7.53942e-07
-1.3694e-06
-1.58512e-07
-0.00108303
-1.53354e-06
1.24901e-06
6.04401e-07
0.00108423
-5.92158e-07
9.11828e-07
-3.62877e-08
4.84445e-07
-7.56436e-07
-1.36919e-06
-1.55867e-07
-0.000266408
1.56705e-06
1.53389e-06
-6.30886e-07
-6.3656e-07
0.000264575
-1.20428e-06
-1.20517e-06
-0.00108732
6.00831e-07
6.01725e-07
0.00108852
-0.00108806
-1.53227e-06
1.20491e-06
5.80522e-07
0.00108919
-5.85103e-07
9.40199e-07
-1.52703e-08
5.09133e-07
-7.40196e-07
-1.36528e-06
-1.30573e-07
-0.00108772
-1.52686e-06
1.20472e-06
5.80602e-07
0.00108885
-5.82414e-07
9.3451e-07
-1.79062e-08
5.09116e-07
-7.42714e-07
-1.36502e-06
-1.279e-07
-0.00026748
1.56073e-06
1.52742e-06
-6.1656e-07
-6.22248e-07
0.00026563
-1.16542e-06
-1.16673e-06
-0.00109208
5.84361e-07
5.85297e-07
0.00109324
-0.00109251
-1.52772e-06
1.16648e-06
5.62376e-07
0.00109359
-5.78254e-07
9.60174e-07
-1.04204e-09
5.33214e-07
-7.28038e-07
-1.36109e-06
-1.05668e-07
-0.00109217
-1.52229e-06
1.16638e-06
5.62628e-07
0.00109325
-5.75633e-07
9.54497e-07
-3.38323e-09
5.33084e-07
-7.30616e-07
-1.36086e-06
-1.03084e-07
-0.000268483
1.5566e-06
1.5231e-06
-6.04859e-07
-6.106e-07
0.000266618
-1.13174e-06
-1.13303e-06
-0.00109667
5.70279e-07
5.70948e-07
0.00109779
-0.00109676
-1.52646e-06
1.13285e-06
5.4867e-07
0.00109779
-5.74908e-07
9.76777e-07
1.68341e-08
5.55689e-07
-7.17715e-07
-1.35786e-06
-8.40789e-08
-0.00109641
-1.521e-06
1.13291e-06
5.48848e-07
0.00109744
-5.7226e-07
9.71173e-07
1.32595e-08
5.55658e-07
-7.20127e-07
-1.35756e-06
-8.14419e-08
-0.000269422
1.55516e-06
1.52154e-06
-5.96379e-07
-6.02047e-07
0.000267544
-1.10318e-06
-1.10433e-06
-0.00110111
5.58592e-07
5.59242e-07
0.0011022
-0.00110081
-1.52685e-06
1.10413e-06
5.37964e-07
0.0011018
-5.73309e-07
9.91965e-07
3.14156e-08
5.77049e-07
-7.08174e-07
-1.35509e-06
-6.52422e-08
-0.00110047
-1.52135e-06
1.10414e-06
5.38096e-07
0.00110145
-5.70619e-07
9.86341e-07
2.79185e-08
5.76977e-07
-7.10665e-07
-1.35483e-06
-6.26097e-08
-0.000270304
1.55566e-06
1.52191e-06
-5.89979e-07
-5.95694e-07
0.000268412
-1.07853e-06
-1.0795e-06
-0.00110542
5.48737e-07
5.49421e-07
0.00110648
-0.0011047
-1.52811e-06
1.07917e-06
5.28765e-07
0.00110564
-5.7015e-07
1.00632e-06
4.1256e-08
5.97212e-07
-6.98841e-07
-1.3523e-06
-4.89744e-08
-0.00110435
-1.52256e-06
1.07907e-06
5.28824e-07
0.0011053
-5.69917e-07
1.00067e-06
4.08009e-08
5.97148e-07
-7.01424e-07
-1.35202e-06
-4.64056e-08
-0.000271132
1.55697e-06
1.52309e-06
-5.84591e-07
-5.90339e-07
0.000269226
-1.05583e-06
-1.05682e-06
-0.00110962
5.39679e-07
5.40342e-07
0.00111065
-0.00110843
-1.52972e-06
1.05644e-06
5.19815e-07
0.00110933
-5.70015e-07
1.01999e-06
5.26256e-08
6.15957e-07
-6.88846e-07
-1.34877e-06
-3.48857e-08
-0.00110808
-1.52415e-06
1.05636e-06
5.19902e-07
0.00110899
-5.6968e-07
1.01429e-06
5.21142e-08
6.1588e-07
-6.91456e-07
-1.3486e-06
-3.23625e-08
-0.000271907
1.55864e-06
1.52463e-06
-5.79742e-07
-5.85538e-07
0.000269989
-1.03439e-06
-1.0353e-06
-0.00111371
5.3096e-07
5.31645e-07
0.00111472
-0.00111201
-1.53142e-06
1.03505e-06
5.10669e-07
0.00111288
-5.69796e-07
1.03335e-06
6.21326e-08
6.33238e-07
-6.77701e-07
-1.34424e-06
-2.2488e-08
-0.00111166
-1.52573e-06
1.03476e-06
5.10503e-07
0.00111253
-5.69441e-07
1.02787e-06
6.25717e-08
6.33158e-07
-6.80157e-07
-1.3439e-06
-2.00896e-08
-0.00027263
1.55994e-06
1.52578e-06
-5.74575e-07
-5.80462e-07
0.0002707
-1.01324e-06
-1.01412e-06
-0.0011177
5.22242e-07
5.2299e-07
0.00111868
-0.00111543
-1.53305e-06
1.01431e-06
5.00945e-07
0.00111627
-5.66931e-07
1.0457e-06
7.04318e-08
6.48811e-07
-6.65229e-07
-1.33817e-06
-1.18034e-08
-0.00111508
-1.52737e-06
1.01405e-06
5.00904e-07
0.00111592
-5.67256e-07
1.04034e-06
7.06056e-08
6.48936e-07
-6.67587e-07
-1.33776e-06
-9.33706e-09
-0.0002733
1.56153e-06
1.52737e-06
-5.69735e-07
-5.75366e-07
0.000271356
-9.92387e-07
-9.93169e-07
-0.00112159
5.13344e-07
5.14061e-07
0.00112255
-0.00111871
-1.53321e-06
9.92992e-07
4.90094e-07
0.00111951
-5.62394e-07
1.05899e-06
8.04651e-08
6.6254e-07
-6.51015e-07
-1.33023e-06
-3.21087e-09
-0.00111836
-1.52759e-06
9.92826e-07
4.90013e-07
0.00111916
-5.62143e-07
1.0534e-06
8.04716e-08
6.62538e-07
-6.5359e-07
-1.33001e-06
-1.08268e-09
-0.000273915
1.56214e-06
1.52789e-06
-5.62464e-07
-5.68167e-07
0.000271955
-9.71284e-07
-9.72e-07
-0.00112539
5.0412e-07
5.04865e-07
0.00112633
-0.00112184
-1.53325e-06
9.7209e-07
4.7809e-07
0.00112259
-5.57415e-07
1.07098e-06
8.73271e-08
6.74831e-07
-6.35926e-07
-1.32126e-06
7.55551e-09
-0.00112148
-1.52766e-06
9.71803e-07
4.77455e-07
0.00112224
-5.57241e-07
1.06542e-06
8.76455e-08
6.74693e-07
-6.38495e-07
-1.32102e-06
1.08691e-08
-0.000274471
1.56204e-06
1.5277e-06
-5.54928e-07
-5.60653e-07
0.000272497
-9.50013e-07
-9.50759e-07
-0.00112909
4.94665e-07
4.95311e-07
0.00113
-0.0011248
-1.53213e-06
9.50658e-07
4.66153e-07
0.00112552
-5.49772e-07
1.08254e-06
9.49402e-08
6.85154e-07
-6.19937e-07
-1.31084e-06
1.72953e-08
-0.00112445
-1.52662e-06
9.50502e-07
4.65916e-07
0.00112516
-5.49686e-07
1.07678e-06
9.4881e-08
6.85121e-07
-6.22537e-07
-1.31064e-06
2.05208e-08
-0.000274965
1.56121e-06
1.52676e-06
-5.46668e-07
-5.52416e-07
0.000272976
-9.28142e-07
-9.28845e-07
-0.0011327
4.84378e-07
4.85058e-07
0.00113359
-0.0011276
-1.53012e-06
9.28612e-07
4.55212e-07
0.00112828
-5.40492e-07
1.09314e-06
1.01801e-07
6.94273e-07
-6.03311e-07
-1.29928e-06
2.59057e-08
-0.00112725
-1.52461e-06
9.28606e-07
4.54764e-07
0.00112792
-5.40436e-07
1.08746e-06
1.0187e-07
6.94166e-07
-6.05874e-07
-1.29897e-06
2.89908e-08
-0.000275395
1.55912e-06
1.5246e-06
-5.3721e-07
-5.42945e-07
0.000273391
-9.07061e-07
-9.07544e-07
-0.00113622
4.74592e-07
4.75324e-07
0.00113708
-0.00113024
-1.52721e-06
9.07435e-07
4.44893e-07
0.00113087
-5.30209e-07
1.1025e-06
1.07689e-07
7.0268e-07
-5.86235e-07
-1.28592e-06
3.35398e-08
-0.00112988
-1.52167e-06
9.07153e-07
4.44594e-07
0.00113051
-5.30108e-07
1.09681e-06
1.07835e-07
7.02615e-07
-5.88747e-07
-1.28569e-06
3.66746e-08
-0.000275756
1.55628e-06
1.52172e-06
-5.27293e-07
-5.33025e-07
0.000273738
-8.86021e-07
-8.86512e-07
-0.00113964
4.65097e-07
4.65817e-07
0.00114048
-0.00113269
-1.52299e-06
8.86438e-07
4.34419e-07
0.00113328
-5.18514e-07
1.11119e-06
1.13633e-07
7.10217e-07
-5.69179e-07
-1.27132e-06
4.04125e-08
-0.00113233
-1.5175e-06
8.86226e-07
4.34134e-07
0.00113292
-5.18532e-07
1.10546e-06
1.13671e-07
7.10112e-07
-5.71708e-07
-1.2711e-06
4.349e-08
-0.000276047
1.55217e-06
1.51752e-06
-5.1639e-07
-5.22122e-07
0.000274016
-8.7097e-07
-8.65888e-07
-0.00114296
4.55985e-07
4.56644e-07
0.00114379
-0.00113497
-1.51756e-06
8.6035e-07
4.2513e-07
0.00113551
-5.09398e-07
1.11874e-06
1.21496e-07
7.20027e-07
-5.52212e-07
-1.25555e-06
4.69027e-08
-0.00113461
-1.51209e-06
8.656e-07
4.13934e-07
-5.06581e-07
1.11297e-06
1.18613e-07
7.1719e-07
-5.54673e-07
-1.25525e-06
5.00049e-08
0.00113516
-0.000276267
1.54684e-06
1.50935e-06
-5.04676e-07
-5.10402e-07
0.000274226
5.22146e-06
5.23231e-06
0.000260567
-0.000259171
-5.93189e-06
-5.91777e-06
5.08158e-06
0.000261409
-0.000258686
-5.96204e-06
3.37916e-06
-5.22153e-06
5.07656e-06
0.000261442
-0.000258702
-5.97005e-06
3.37432e-06
5.22214e-06
0.000260579
-0.000259173
-5.90328e-06
-5.94651e-06
5.07467e-06
0.000261473
-0.000258717
-5.96755e-06
3.369e-06
5.0814e-06
-5.22378e-06
0.000261417
-0.000258686
3.38421e-06
-5.97225e-06
1.07111e-05
1.06174e-05
-0.000252649
-0.000256079
-0.000255118
-0.000255118
-6.41734e-06
-4.12515e-06
-6.6623e-06
-6.41771e-06
-4.12609e-06
-6.66784e-06
-5.06963e-06
0.00104223
1.06707e-05
1.06227e-05
-0.000252651
-0.000256076
-0.000255121
-0.000255121
-6.41996e-06
-4.12544e-06
-6.66504e-06
-6.41517e-06
-4.12087e-06
-6.66025e-06
-5.06927e-06
0.00104211
1.0731e-05
1.06833e-05
-0.000252643
-0.000256071
-0.000255118
-0.000255113
-6.41981e-06
-4.13282e-06
-6.66497e-06
-6.42001e-06
-4.12309e-06
-6.66258e-06
-5.08397e-06
-5.07209e-06
0.00104217
1.07263e-05
1.06276e-05
-0.000252646
-0.000256074
-0.000255118
-0.000255118
-6.4147e-06
-4.12777e-06
-6.65997e-06
-6.42014e-06
-4.12593e-06
-6.6653e-06
-0.000258712
-5.95991e-06
3.36395e-06
-5.22138e-06
0.000261404
-0.000258684
3.37919e-06
-5.96198e-06
5.22453e-06
0.000260559
-0.000259158
-5.9056e-06
-5.94373e-06
-0.000258697
3.37148e-06
-5.95704e-06
-5.23228e-06
0.000261471
-0.000258712
3.36649e-06
-5.96502e-06
-0.000259168
-5.93177e-06
-5.9178e-06
5.61757e-06
5.65479e-06
-4.87838e-06
-4.87223e-06
0.000259045
-7.80481e-07
-7.44603e-07
0.000261544
-0.000259462
-2.82245e-07
-2.74852e-07
7.09202e-06
0.00105882
-4.53008e-06
-1.57833e-06
-2.21273e-06
-2.57666e-06
-6.60588e-06
-7.05009e-06
-3.17074e-06
-0.000263264
-0.000259684
-0.000262793
-5.62803e-06
1.4555e-05
7.03143e-06
0.00105919
-4.54921e-06
-1.57072e-06
-2.21587e-06
-2.58757e-06
-6.6374e-06
-7.067e-06
-3.18641e-06
-0.000263338
-0.000259715
-0.000262834
0.00106192
2.02401e-06
-0.00106086
9.73753e-07
-1.71809e-06
-1.69108e-07
-6.9224e-07
-1.46543e-06
-3.07556e-07
-8.28053e-07
3.43223e-07
7.88564e-07
0.00106234
2.02437e-06
-0.00106128
9.68688e-07
-1.72851e-06
-1.61611e-07
-6.9774e-07
-1.47114e-06
-3.07707e-07
-8.28419e-07
3.48638e-07
-4.87646e-06
-4.86912e-06
0.000259055
-7.47278e-07
0.000261569
-0.000259482
-2.79598e-07
-2.71983e-07
6.81326e-06
0.00105966
-4.55437e-06
-1.63766e-06
-2.22893e-06
-2.58587e-06
-6.61991e-06
-7.06238e-06
-3.18164e-06
-0.000263359
-0.000259742
-0.000262847
-5.62773e-06
1.45894e-05
7.12547e-06
0.00105896
-4.54903e-06
-1.58079e-06
-2.2209e-06
-2.58953e-06
-6.6367e-06
-7.06587e-06
-3.18603e-06
-0.000259684
-0.000263315
-0.000262806
0.00106294
2.03159e-06
-0.00106187
9.6225e-07
-1.68817e-06
-1.71616e-07
-6.92518e-07
-1.46847e-06
-3.07668e-07
-8.2582e-07
3.45597e-07
7.77943e-07
0.00106203
2.0346e-06
-0.00106099
9.84064e-07
-1.71815e-06
-1.66657e-07
-6.92438e-07
-1.46825e-06
-3.05089e-07
-8.30808e-07
3.43167e-07
1.45864e-05
7.11279e-06
0.00105877
-4.53002e-06
-1.57822e-06
-2.2101e-06
-2.57669e-06
-6.60589e-06
-3.17079e-06
-7.04777e-06
-0.000259679
-0.000263259
-0.000262788
2.03091e-06
-0.00106161
9.67484e-07
-1.68807e-06
-1.68942e-07
-6.89599e-07
-1.46576e-06
-3.1004e-07
3.40406e-07
-8.25543e-07
7.77917e-07
0.00106182
2.03422e-06
-0.00106078
9.84099e-07
-1.71806e-06
-1.66541e-07
-6.92196e-07
-1.46811e-06
-3.0753e-07
-8.28007e-07
3.45756e-07
-4.88128e-06
-4.8689e-06
0.000259035
-7.39135e-07
0.000261521
-0.000259444
-2.82644e-07
-2.7721e-07
1.44875e-05
6.83175e-06
0.00105961
-4.55451e-06
-1.63767e-06
-2.22898e-06
-2.5857e-06
-6.61978e-06
-3.18154e-06
-7.05965e-06
-0.000259732
-0.000263356
-0.000262842
2.03595e-06
-0.00106131
9.83007e-07
-1.68559e-06
-1.7149e-07
-6.9227e-07
-1.46263e-06
-3.05021e-07
3.40449e-07
-8.28069e-07
7.39229e-07
0.00106284
2.03659e-06
-0.00106179
9.72565e-07
-1.68313e-06
-1.71644e-07
-6.8994e-07
-1.4657e-06
-3.07508e-07
-8.28235e-07
3.40606e-07
-0.000259459
-2.79777e-07
-2.77426e-07
1.63935e-06
1.60415e-06
-7.10562e-07
-7.19032e-07
0.00025973
-8.66329e-07
-8.27636e-07
0.000262778
-0.000260667
-2.1263e-07
-2.05056e-07
8.29639e-07
0.00106319
-6.56443e-07
8.17758e-07
-1.43301e-07
3.78167e-07
-8.00556e-07
-1.39714e-06
-2.90472e-07
-1.64463e-06
1.63226e-06
8.24416e-07
0.00106362
-6.59297e-07
8.25831e-07
-1.43308e-07
3.83593e-07
-8.03531e-07
-1.40283e-06
-2.88163e-07
0.00106713
1.38301e-06
-0.0010658
7.02154e-07
-1.59182e-06
-1.03504e-07
-6.28658e-07
-1.35465e-06
-2.49029e-07
-7.76778e-07
4.224e-07
8.71694e-07
0.00106757
1.38328e-06
-0.00106623
6.97077e-07
-1.59714e-06
-1.03619e-07
-6.28884e-07
-1.35764e-06
-2.49139e-07
-7.77135e-07
4.25207e-07
-7.11053e-07
-7.18362e-07
0.000259748
-8.32892e-07
0.000262804
-0.000260679
-2.12669e-07
-2.07556e-07
8.23145e-07
0.00106421
-6.5408e-07
7.81857e-07
-1.45756e-07
3.80614e-07
-8.03598e-07
-1.40027e-06
-2.88114e-07
-1.63935e-06
1.63749e-06
8.297e-07
0.0010633
-6.59282e-07
8.17861e-07
-1.43344e-07
3.78182e-07
-8.03265e-07
-1.39733e-06
-2.87988e-07
0.00106816
1.38438e-06
-0.00106684
7.01113e-07
-1.5539e-06
-1.08437e-07
-6.23655e-07
-1.35235e-06
-2.46602e-07
-7.77122e-07
4.25055e-07
8.61111e-07
0.00106725
1.38304e-06
-0.00106591
7.02235e-07
-1.58922e-06
-1.06083e-07
-6.28798e-07
-1.35478e-06
-2.48994e-07
-7.76837e-07
4.25176e-07
1.63205e-06
8.29733e-07
0.0010631
-6.59068e-07
8.15185e-07
-1.45741e-07
3.78104e-07
-8.03182e-07
-2.88027e-07
-1.39723e-06
1.38399e-06
-0.00106657
7.06471e-07
-1.56169e-06
-1.10854e-07
-6.23498e-07
-1.35226e-06
-2.46621e-07
4.24922e-07
-7.76929e-07
8.63709e-07
0.00106704
1.37773e-06
-0.0010657
7.02254e-07
-1.58914e-06
-1.05962e-07
-6.28632e-07
-1.35472e-06
-2.49053e-07
-7.76779e-07
4.22417e-07
-7.13823e-07
-7.15804e-07
0.000259709
-8.24827e-07
0.000262753
-0.000260646
-2.12857e-07
-2.07511e-07
1.63355e-06
8.18033e-07
0.00106413
-6.54139e-07
7.76438e-07
-1.5087e-07
3.75478e-07
-8.00811e-07
-2.92947e-07
-1.39476e-06
1.38398e-06
-0.00106625
7.01387e-07
-1.55117e-06
-1.10855e-07
-6.23453e-07
-1.34669e-06
-2.49033e-07
4.16863e-07
-7.76853e-07
8.27502e-07
0.00106807
1.38438e-06
-0.00106674
7.01192e-07
-1.55136e-06
-1.11009e-07
-6.2373e-07
-1.35492e-06
-2.49048e-07
-7.79708e-07
4.22393e-07
-0.000260654
-2.12731e-07
-2.07646e-07
1.58996e-06
1.55721e-06
-6.72235e-07
-6.80571e-07
0.000260984
-8.90489e-07
-8.54277e-07
0.00026406
-0.000261937
-1.91615e-07
-1.86554e-07
6.91217e-07
0.00106848
-6.29687e-07
8.72074e-07
-9.92476e-08
4.24539e-07
-7.7766e-07
-1.35445e-06
-2.4756e-07
-1.59532e-06
1.36146e-06
7.01847e-07
0.00106891
-6.29907e-07
8.77482e-07
-9.9314e-08
4.30068e-07
-7.80616e-07
-1.36007e-06
-2.42709e-07
0.00107249
1.34952e-06
-0.00107117
6.75826e-07
-1.58991e-06
-8.55323e-08
-6.24924e-07
-1.367e-06
-2.29945e-07
-7.78126e-07
4.33835e-07
8.95929e-07
0.00107292
1.34982e-06
-0.00107159
6.7604e-07
-1.59526e-06
-8.31246e-08
-6.27782e-07
-1.3753e-06
-2.25025e-07
-7.83676e-07
4.42097e-07
-6.75283e-07
-6.77496e-07
0.000261005
-8.56944e-07
0.000264088
-0.000261963
-1.89014e-07
-1.83818e-07
6.90228e-07
0.00106952
-6.27347e-07
8.35993e-07
-1.04174e-07
4.27152e-07
-7.80589e-07
-1.36003e-06
-2.42661e-07
-1.58735e-06
1.36128e-06
6.96572e-07
0.00106859
-6.29856e-07
8.695e-07
-9.92871e-08
4.27294e-07
-7.803e-07
-1.35721e-06
-2.42537e-07
0.00107352
1.35084e-06
-0.0010722
6.74834e-07
-1.55439e-06
-8.79716e-08
-6.22527e-07
-1.36993e-06
-2.25004e-07
-7.83683e-07
4.36504e-07
8.90566e-07
0.0010726
1.34962e-06
-0.00107127
6.75986e-07
-1.58993e-06
-8.30841e-08
-6.27719e-07
-1.36968e-06
-2.24872e-07
-7.83377e-07
4.36605e-07
1.36625e-06
6.9133e-07
0.00106839
-6.27001e-07
8.66806e-07
-1.04156e-07
4.2718e-07
-7.80254e-07
-2.45104e-07
-1.35716e-06
1.35051e-06
-0.00107193
6.74955e-07
-1.55696e-06
-8.78699e-08
-6.22357e-07
-1.36723e-06
-2.27515e-07
4.33722e-07
-7.80923e-07
8.8517e-07
0.0010724
1.34943e-06
-0.00107107
6.75938e-07
-1.58462e-06
-8.79574e-08
-6.22201e-07
-1.36706e-06
-2.27464e-07
-7.807e-07
4.33835e-07
-6.75375e-07
-6.80014e-07
0.000260969
-8.51517e-07
0.000264039
-0.000261921
-1.91709e-07
-1.83825e-07
1.36252e-06
6.95525e-07
0.00106942
-6.22095e-07
8.27954e-07
-1.09166e-07
4.24569e-07
-7.77917e-07
-2.45116e-07
-1.35476e-06
1.35041e-06
-0.0010716
6.75034e-07
-1.55164e-06
-9.0333e-08
-6.19659e-07
-1.36693e-06
-2.24972e-07
4.33721e-07
-7.83403e-07
8.51509e-07
0.00107344
1.35086e-06
-0.00107211
6.74882e-07
-1.55186e-06
-9.04682e-08
-6.19945e-07
-1.36468e-06
-2.27478e-07
-7.80989e-07
4.31211e-07
-0.000261934
-1.89141e-07
-1.83945e-07
1.58854e-06
1.55297e-06
-6.619e-07
-6.67629e-07
0.000262248
-9.18505e-07
-8.82123e-07
0.000265279
-0.000263155
-1.6394e-07
-1.58788e-07
6.68144e-07
0.00107381
-6.22479e-07
8.97367e-07
-7.9272e-08
4.38329e-07
-7.76633e-07
-1.36912e-06
-2.22695e-07
-1.5939e-06
1.34128e-06
6.6835e-07
0.00107423
-6.25336e-07
9.02831e-07
-7.68298e-08
4.46583e-07
-7.82216e-07
-1.37743e-06
-2.17771e-07
0.00107767
1.30798e-06
-0.0010764
6.43181e-07
-1.58273e-06
-6.00735e-08
-6.13224e-07
-1.37179e-06
-1.99306e-07
-7.6883e-07
4.54322e-07
9.23941e-07
0.00107809
1.30829e-06
-0.00107682
6.43424e-07
-1.58813e-06
-5.77123e-08
-6.16109e-07
-1.38006e-06
-1.94415e-07
-7.74364e-07
4.62672e-07
-6.65021e-07
-6.69716e-07
0.000262274
-8.84775e-07
0.000265307
-0.000263181
-1.61377e-07
-1.56094e-07
6.6716e-07
0.00107484
-6.20074e-07
8.61116e-07
-8.17013e-08
4.40998e-07
-7.82207e-07
-1.37205e-06
-2.17745e-07
-1.58856e-06
1.34108e-06
6.6829e-07
0.00107391
-6.25266e-07
8.97457e-07
-7.6793e-08
4.41097e-07
-7.81905e-07
-1.3718e-06
-2.17623e-07
0.0010787
1.30918e-06
-0.00107743
6.42198e-07
-1.54704e-06
-6.24991e-08
-6.10816e-07
-1.37465e-06
-1.9435e-07
-7.74384e-07
4.57091e-07
9.18562e-07
0.00107777
1.30806e-06
-0.0010765
6.43337e-07
-1.58276e-06
-5.76695e-08
-6.16042e-07
-1.37443e-06
-1.9423e-07
-7.74092e-07
4.57137e-07
1.3409e-06
6.6823e-07
0.00107371
-6.19729e-07
8.92044e-07
-8.16809e-08
4.38318e-07
-7.79241e-07
-2.20197e-07
-1.36918e-06
1.3089e-06
-0.00107716
6.42339e-07
-1.54964e-06
-6.24362e-08
-6.10661e-07
-1.37196e-06
-1.96895e-07
4.54307e-07
-7.71622e-07
9.13139e-07
0.00107757
1.30788e-06
-0.0010763
6.43268e-07
-1.57746e-06
-6.2476e-08
-6.10526e-07
-1.37177e-06
-1.96832e-07
-7.71408e-07
4.54407e-07
-6.62435e-07
-6.69661e-07
0.000262232
-8.79366e-07
0.000265258
-0.00026314
-1.64017e-07
-1.56117e-07
1.34229e-06
6.67188e-07
0.00107475
-6.17461e-07
8.58356e-07
-8.41815e-08
4.35695e-07
-7.79531e-07
-2.20203e-07
-1.3668e-06
1.30875e-06
-0.00107683
6.42359e-07
-1.54428e-06
-6.4861e-08
-6.07951e-07
-1.37165e-06
-1.94358e-07
4.54254e-07
-7.74122e-07
8.79373e-07
0.00107861
1.30916e-06
-0.00107734
6.42225e-07
-1.5445e-06
-6.49394e-08
-6.08228e-07
-1.36938e-06
-1.96829e-07
-7.71699e-07
4.51769e-07
-0.000263153
-1.61414e-07
-1.56168e-07
1.58056e-06
1.54482e-06
-6.4497e-07
-6.50693e-07
0.000263449
-9.44942e-07
-9.08406e-07
0.000266424
-0.000264302
-1.3699e-07
-1.31758e-07
6.34944e-07
0.00107892
-6.09981e-07
9.25356e-07
-5.39669e-08
4.60339e-07
-7.65407e-07
-1.37156e-06
-1.91438e-07
-1.58593e-06
1.29629e-06
6.35196e-07
0.00107935
-6.12822e-07
9.30864e-07
-5.14955e-08
4.68558e-07
-7.71011e-07
-1.38004e-06
-1.86437e-07
0.0010826
1.26016e-06
-0.00108139
6.12163e-07
-1.57415e-06
-3.69757e-08
-6.00386e-07
-1.37022e-06
-1.68261e-07
-7.54805e-07
4.78252e-07
9.50405e-07
0.00108302
1.26055e-06
-0.00108181
6.12473e-07
-1.57969e-06
-3.46602e-08
-6.03521e-07
-1.37829e-06
-1.63385e-07
-7.60355e-07
4.86674e-07
-6.48095e-07
-6.52772e-07
0.000263475
-9.11051e-07
0.000266453
-0.000264328
-1.34466e-07
-1.29044e-07
6.33993e-07
0.00107996
-6.07553e-07
8.88971e-07
-5.63587e-08
4.62991e-07
-7.70998e-07
-1.37457e-06
-1.86436e-07
-1.58056e-06
1.29601e-06
6.35072e-07
0.00107903
-6.12731e-07
9.25463e-07
-5.14553e-08
4.63121e-07
-7.70678e-07
-1.37426e-06
-1.86339e-07
0.00108364
1.26123e-06
-0.00108243
6.11205e-07
-1.53832e-06
-3.93764e-08
-5.97978e-07
-1.3729e-06
-1.63303e-07
-7.60346e-07
4.81046e-07
9.45049e-07
0.0010827
1.26027e-06
-0.00108149
6.12348e-07
-1.5743e-06
-3.45106e-08
-6.03494e-07
-1.37282e-06
-1.63104e-07
-7.60053e-07
4.81153e-07
1.29589e-06
6.35031e-07
0.00107883
-6.07161e-07
9.19976e-07
-5.63988e-08
4.6025e-07
-7.6803e-07
-1.88919e-07
-1.37175e-06
1.26102e-06
-0.00108216
6.11419e-07
-1.54103e-06
-3.9343e-08
-5.98061e-07
-1.37018e-06
-1.65806e-07
4.78335e-07
-7.57605e-07
9.39615e-07
0.0010825
1.26001e-06
-0.00108129
6.1219e-07
-1.5689e-06
-3.9117e-08
-5.97728e-07
-1.36994e-06
-1.6585e-07
-7.57345e-07
4.78312e-07
-6.45438e-07
-6.52684e-07
0.000263433
-9.05721e-07
0.000266403
-0.000264287
-1.36916e-07
-1.29037e-07
1.29712e-06
6.34007e-07
0.00107987
-6.04858e-07
8.86174e-07
-5.88585e-08
4.57646e-07
-7.68307e-07
-1.8891e-07
-1.36934e-06
1.26081e-06
-0.00108182
6.11363e-07
-1.53564e-06
-4.15982e-08
-5.95389e-07
-1.36988e-06
-1.63308e-07
4.78198e-07
-7.60101e-07
9.05739e-07
0.00108355
1.26114e-06
-0.00108234
6.11173e-07
-1.53577e-06
-4.15294e-08
-5.95398e-07
-1.36756e-06
-1.65826e-07
-7.57629e-07
4.75688e-07
-0.0002643
-1.34256e-07
-1.28947e-07
1.57239e-06
1.53648e-06
-6.28187e-07
-6.33929e-07
0.000264577
-9.685e-07
-9.31842e-07
0.000267496
-0.000265375
-1.12818e-07
-1.07519e-07
6.05229e-07
0.00108379
-5.9788e-07
9.51204e-07
-3.14886e-08
4.84591e-07
-7.51102e-07
-1.36897e-06
-1.60934e-07
-1.57767e-06
1.24877e-06
6.05497e-07
0.00108422
-6.0044e-07
9.56669e-07
-2.91478e-08
4.92865e-07
-7.56753e-07
-1.37767e-06
-1.55905e-07
0.00108728
1.21486e-06
-0.00108613
5.86896e-07
-1.56721e-06
-1.77454e-08
-5.90152e-07
-1.36622e-06
-1.39526e-07
-7.40694e-07
5.03169e-07
9.74162e-07
0.00108771
1.21518e-06
-0.00108656
5.87049e-07
-1.57284e-06
-1.51848e-08
-5.93441e-07
-1.37428e-06
-1.34621e-07
-7.46192e-07
5.11462e-07
-6.31115e-07
-6.35769e-07
0.000264603
-9.34652e-07
0.000267525
-0.000265402
-1.09984e-07
-1.04512e-07
6.04306e-07
0.00108483
-5.95429e-07
9.14695e-07
-3.38279e-08
4.87333e-07
-7.56719e-07
-1.37208e-06
-1.55904e-07
-1.57226e-06
1.24847e-06
6.05365e-07
0.0010839
-6.00309e-07
9.51216e-07
-2.9227e-08
4.87342e-07
-7.56437e-07
-1.37168e-06
-1.55875e-07
0.00108833
1.21582e-06
-0.00108718
5.85898e-07
-1.53124e-06
-2.00624e-08
-5.87727e-07
-1.36899e-06
-1.34553e-07
-7.46287e-07
5.05844e-07
9.68795e-07
0.00108739
1.21492e-06
-0.00108624
5.86957e-07
-1.56741e-06
-1.49388e-08
-5.93327e-07
-1.36882e-06
-1.34393e-07
-7.45927e-07
5.06119e-07
1.24839e-06
6.05369e-07
0.00108369
-5.95087e-07
9.4568e-07
-3.41517e-08
4.84616e-07
-7.53769e-07
-1.5834e-07
-1.36934e-06
1.21556e-06
-0.00108691
5.86012e-07
-1.53399e-06
-1.97247e-08
-5.87965e-07
-1.36613e-06
-1.37079e-07
5.03065e-07
-7.43491e-07
9.63197e-07
0.00108718
1.21464e-06
-0.00108603
5.8683e-07
-1.56186e-06
-1.96825e-08
-5.87156e-07
-1.36604e-06
-1.37151e-07
-7.43323e-07
5.02956e-07
-6.28386e-07
-6.35655e-07
0.000264562
-9.29355e-07
0.000267475
-0.00026536
-1.12291e-07
-1.04445e-07
1.24949e-06
6.04372e-07
0.00108474
-5.92758e-07
9.11773e-07
-3.65535e-08
4.81976e-07
-7.54044e-07
-1.58327e-07
-1.3669e-06
1.21531e-06
-0.00108657
5.85965e-07
-1.52858e-06
-2.17882e-08
-5.85211e-07
-1.36592e-06
-1.34655e-07
5.02963e-07
-7.46015e-07
9.29216e-07
0.00108824
1.21566e-06
-0.00108709
5.85794e-07
-1.52857e-06
-2.2013e-08
-5.84792e-07
-1.36365e-06
-1.37122e-07
-7.43602e-07
5.00366e-07
-0.000265373
-1.09909e-07
-1.04545e-07
1.56591e-06
1.52987e-06
-6.13525e-07
-6.19292e-07
0.000265633
-9.91994e-07
-9.52586e-07
0.000268502
-0.000266379
-9.14525e-08
-8.61827e-08
5.81522e-07
0.00108841
-5.88157e-07
9.76995e-07
-1.05257e-08
5.09186e-07
-7.37337e-07
-1.36482e-06
-1.3299e-07
-1.57112e-06
1.20452e-06
5.8157e-07
0.00108884
-5.90531e-07
9.79629e-07
-1.08589e-08
5.17721e-07
-7.42964e-07
-1.37347e-06
-1.27881e-07
0.00109173
1.17501e-06
-0.00109063
5.67497e-07
-1.56515e-06
-5.11315e-10
-5.8567e-07
-1.36194e-06
-1.1395e-07
-7.28113e-07
5.27425e-07
9.95087e-07
0.00109216
1.17523e-06
-0.00109107
5.67523e-07
-1.56821e-06
6.00083e-11
-5.86429e-07
-1.36751e-06
-1.09009e-07
-7.33583e-07
5.32989e-07
-6.16265e-07
-6.20977e-07
0.000265659
-9.55534e-07
0.000268528
-0.000266406
-8.83839e-08
-8.30199e-08
5.80418e-07
0.00108946
-5.85716e-07
9.37646e-07
-1.50455e-08
5.1202e-07
-7.42948e-07
-1.36784e-06
-1.28005e-07
-1.56576e-06
1.20443e-06
5.81639e-07
0.00108852
-5.90595e-07
9.74082e-07
-1.10985e-08
5.11904e-07
-7.42692e-07
-1.36759e-06
-1.27874e-07
0.00109278
1.17599e-06
-0.00109169
5.66613e-07
-1.52622e-06
-4.66146e-09
-5.80485e-07
-1.36493e-06
-1.08981e-07
-7.3375e-07
5.30142e-07
9.89754e-07
0.00109184
1.17491e-06
-0.00109074
5.67442e-07
-1.56275e-06
4.69202e-10
-5.86241e-07
-1.36444e-06
-1.08914e-07
-7.33383e-07
5.30425e-07
1.20423e-06
5.81573e-07
0.00108832
-5.85782e-07
9.68615e-07
-1.55121e-08
5.09438e-07
-7.39946e-07
-1.30419e-07
-1.36507e-06
1.17575e-06
-0.00109142
5.66673e-07
-1.52909e-06
-4.12457e-09
-5.80885e-07
-1.36201e-06
-1.11574e-07
5.27254e-07
-7.30946e-07
9.84069e-07
0.00109163
1.17475e-06
-0.00109054
5.67501e-07
-1.55698e-06
-4.17936e-09
-5.79576e-07
-1.36197e-06
-1.11555e-07
-7.30794e-07
5.27122e-07
-6.13614e-07
-6.20977e-07
0.000265617
-9.50205e-07
0.000268478
-0.000266364
-9.06912e-08
-8.27788e-08
1.20522e-06
5.80558e-07
0.00108937
-5.83427e-07
9.34605e-07
-1.78141e-08
5.0675e-07
-7.40227e-07
-1.30407e-07
-1.36263e-06
1.17545e-06
-0.00109108
5.66631e-07
-1.52369e-06
-5.90886e-09
-5.7806e-07
-1.36177e-06
-1.09102e-07
5.27249e-07
-7.33406e-07
9.49988e-07
0.00109269
1.17568e-06
-0.0010916
5.6644e-07
-1.52352e-06
-6.26655e-09
-5.77181e-07
-1.35957e-06
-1.11535e-07
-7.31078e-07
5.24505e-07
-0.000266377
-8.84063e-08
-8.30048e-08
1.56438e-06
1.52533e-06
-6.01684e-07
-6.07296e-07
0.000266621
-1.00947e-06
-9.69904e-07
0.000269442
-0.00026732
-7.37474e-08
-6.82941e-08
5.62937e-07
0.0010928
-5.84374e-07
9.97257e-07
6.41433e-09
5.33142e-07
-7.2523e-07
-1.36088e-06
-1.0573e-07
-1.56687e-06
1.16564e-06
5.62987e-07
0.00109324
-5.83871e-07
9.99769e-07
5.45721e-09
5.38959e-07
-7.3092e-07
-1.36663e-06
-1.03187e-07
0.00109597
1.13987e-06
-0.00109492
5.52755e-07
-1.56321e-06
1.80462e-08
-5.81874e-07
-1.35859e-06
-8.9175e-08
-7.20035e-07
5.50186e-07
1.01262e-06
0.0010964
1.14009e-06
-0.00109536
5.52781e-07
-1.56627e-06
1.88961e-08
-5.82672e-07
-1.3644e-06
-8.67038e-08
-7.22948e-07
5.55877e-07
-6.04271e-07
-6.08827e-07
0.000266647
-9.72905e-07
0.000269468
-0.000267347
-7.05345e-08
-6.50601e-08
5.62306e-07
0.00109386
-5.79051e-07
9.57786e-07
-4.83313e-10
5.35974e-07
-7.3079e-07
-1.36364e-06
-1.03194e-07
-1.56156e-06
1.1656e-06
5.63133e-07
0.00109292
-5.83995e-07
9.94128e-07
4.9197e-09
5.35872e-07
-7.30596e-07
-1.36377e-06
-1.03003e-07
0.00109703
1.14125e-06
-0.00109598
5.51909e-07
-1.52417e-06
1.18909e-08
-5.76509e-07
-1.36151e-06
-8.65417e-08
-7.22892e-07
5.53203e-07
1.00737e-06
0.00109608
1.13967e-06
-0.00109504
5.52552e-07
-1.56073e-06
1.9372e-08
-5.82496e-07
-1.361e-06
-8.67138e-08
-7.22604e-07
5.53075e-07
1.16572e-06
5.63483e-07
0.00109271
-5.79438e-07
9.88845e-07
-1.13036e-09
5.33549e-07
-7.27722e-07
-1.05594e-07
-1.36079e-06
1.14102e-06
-0.00109571
5.51891e-07
-1.52712e-06
1.29239e-08
-5.77047e-07
-1.35862e-06
-8.91908e-08
5.50244e-07
-7.20044e-07
1.00177e-06
0.00109587
1.13983e-06
-0.00109483
5.52485e-07
-1.55473e-06
1.26727e-08
-5.75426e-07
-1.35872e-06
-8.91861e-08
-7.20052e-07
5.50038e-07
-6.01564e-07
-6.09021e-07
0.000266605
-9.67653e-07
0.000269418
-0.000267305
-7.28682e-08
-6.45853e-08
1.16674e-06
5.62531e-07
0.00109377
-5.77038e-07
9.5476e-07
-3.0908e-09
5.30854e-07
-7.28005e-07
-1.0557e-07
-1.35839e-06
1.14088e-06
-0.00109537
5.51873e-07
-1.52152e-06
1.03007e-08
-5.74042e-07
-1.35828e-06
-8.65787e-08
5.50366e-07
-7.2251e-07
9.6758e-07
0.00109693
1.14104e-06
-0.00109589
5.51577e-07
-1.52113e-06
9.54773e-09
-5.72924e-07
-1.3562e-06
-8.90782e-08
-7.20257e-07
5.47525e-07
-0.000267318
-7.04527e-08
-6.48868e-08
1.56313e-06
1.52407e-06
-5.93311e-07
-5.9896e-07
0.000267547
-1.02503e-06
-9.85349e-07
0.000270323
-0.000268202
-5.80941e-08
-5.26022e-08
5.49497e-07
0.00109699
-5.81091e-07
1.01404e-06
2.35883e-08
5.55724e-07
-7.17573e-07
-1.35775e-06
-8.41581e-08
-1.5657e-06
1.13199e-06
5.49587e-07