/*--------------------------------*- C++ -*----------------------------------*\
| =========                 |                                                 |
| \\      /  F ield         | OpenFOAM: The Open Source CFD Toolbox           |
|  \\    /   O peration     | Version:  v1906                                 |
|   \\  /    A nd           | Web:      www.OpenFOAM.com                      |
|    \\/     M anipulation  |                                                 |
\*---------------------------------------------------------------------------*/
FoamFile
{
    version     2.0;
    format      ascii;
    class       surfaceScalarField;
    location    "625";
    object      phi;
}
// * * * * * * * * * * * * * * * * * * * * * * * * * * * * * * * * * * * * * //

dimensions      [0 3 -1 0 0 0 0];
oriented        oriented;


internalField   nonuniform List<scalar> 
123728
(
1.53615e-07
1.35907e-07
-0.00118373
-1.0579e-07
-1.1078e-07
0.00118366
-0.00113208
-1.18697e-06
-1.27579e-07
-6.10311e-08
0.00113207
-2.06711e-07
1.22546e-06
2.35661e-07
8.87564e-07
-1.74139e-07
-8.22665e-07
2.35087e-07
-0.0011318
-1.18404e-06
-1.23017e-07
-3.23473e-08
0.00113177
-2.0935e-07
1.21721e-06
2.3301e-07
8.89041e-07
-1.75486e-07
-8.2075e-07
2.38819e-07
-0.00027005
1.21919e-06
1.17482e-06
-1.90212e-07
-2.03535e-07
0.00026805
1.19469e-07
8.6008e-08
-0.00118333
-7.08709e-09
-6.56069e-08
0.0011832
-0.00113209
-1.19363e-06
-1.95608e-07
-3.40916e-09
0.0011321
-2.11888e-07
1.22022e-06
2.32313e-07
8.93633e-07
-1.68959e-07
-8.15983e-07
2.39288e-07
-0.00113167
-1.19164e-06
-1.67628e-07
2.21731e-08
0.00113165
-2.14683e-07
1.21091e-06
2.29402e-07
8.89414e-07
-1.74794e-07
-8.19321e-07
2.38281e-07
-0.000270084
1.21041e-06
1.17202e-06
-1.89547e-07
-1.96654e-07
0.000268088
1.16882e-07
1.41792e-07
-0.00118283
-9.12951e-08
-7.58966e-08
0.00118274
-0.00113204
-1.18052e-06
-1.09563e-07
-4.76846e-08
0.00113201
-1.97447e-07
1.23374e-06
2.46731e-07
8.79218e-07
-1.82919e-07
-8.2933e-07
2.24841e-07
-0.00113161
-1.17144e-06
-1.16816e-07
-8.08024e-08
0.0011316
-1.93884e-07
1.23183e-06
2.50287e-07
8.7787e-07
-1.86706e-07
-8.30716e-07
2.26749e-07
-0.000270124
1.20741e-06
1.18401e-06
-1.96073e-07
-1.92832e-07
0.000268121
1.42364e-07
1.71832e-07
-0.00118257
-1.62053e-07
-1.08249e-07
0.00118252
-0.0011319
-1.17674e-06
-7.41425e-08
-1.01807e-07
0.00113188
-1.96191e-07
1.23469e-06
2.45122e-07
8.78265e-07
-1.83075e-07
-8.31741e-07
2.26082e-07
-0.0011316
-1.1686e-06
-9.85802e-08
-1.20707e-07
0.0011316
-1.94148e-07
1.23188e-06
2.47148e-07
8.81682e-07
-1.8237e-07
-8.28254e-07
2.32214e-07
-0.000270106
1.21856e-06
1.1864e-06
-1.97414e-07
-2.02454e-07
0.000268101
1.2789e-07
1.05012e-07
-0.00118232
-5.84651e-08
-7.31135e-08
0.00118222
-0.00113187
-1.19271e-06
-1.64959e-07
-2.18362e-08
0.00113187
-2.1257e-07
1.21902e-06
2.29696e-07
8.91094e-07
-1.70606e-07
-8.186e-07
2.37629e-07
-0.00113158
-1.19022e-06
-1.58168e-07
1.46643e-09
0.00113156
-2.15497e-07
1.2109e-06
2.27238e-07
8.90863e-07
-1.73834e-07
-8.18646e-07
2.39794e-07
-0.00027011
1.21457e-06
1.1719e-06
-1.89122e-07
-2.0091e-07
0.000268114
1.16067e-07
1.06824e-07
-0.00118185
-4.00394e-08
-6.29655e-08
0.00118173
-0.00113186
-1.19083e-06
-1.58295e-07
-2.01422e-09
0.00113184
-2.07663e-07
1.22267e-06
2.36541e-07
8.85739e-07
-1.76692e-07
-8.22527e-07
2.30532e-07
-0.0011315
-1.18418e-06
-1.57773e-07
3.35075e-09
0.00113147
-2.06777e-07
1.21816e-06
2.37191e-07
8.87355e-07
-1.78047e-07
-8.20974e-07
2.34813e-07
-0.000270165
1.20869e-06
1.17307e-06
-1.8973e-07
-1.9527e-07
0.000268169
1.65547e-07
1.33483e-07
-0.00118146
-9.03439e-08
-1.42054e-07
0.00118139
-0.00113178
-1.17107e-06
-1.03259e-07
-1.15757e-07
0.00113177
-1.89131e-07
1.24119e-06
2.52788e-07
8.79177e-07
-1.81843e-07
-8.30513e-07
2.26774e-07
-0.00113133
-1.17272e-06
-7.03827e-08
-7.06716e-08
0.00113129
-1.95516e-07
1.22726e-06
2.4583e-07
8.75226e-07
-1.86868e-07
-8.32901e-07
2.25885e-07
-0.000270183
1.21706e-06
1.17749e-06
-1.90939e-07
-1.99209e-07
0.000268179
1.35108e-07
1.55137e-07
-0.00118121
-1.08445e-07
-1.06033e-07
0.00118113
-0.0011318
-1.1827e-06
-1.39254e-07
-7.29614e-08
0.00113181
-2.03309e-07
1.22837e-06
2.38028e-07
8.85854e-07
-1.75757e-07
-8.23843e-07
2.32493e-07
-0.00113126
-1.17256e-06
-1.2994e-07
-1.15043e-07
0.00113131
-1.97399e-07
1.22816e-06
2.44298e-07
8.79451e-07
-1.83673e-07
-8.30059e-07
2.30192e-07
-0.000270176
1.21128e-06
1.18935e-06
-2.02456e-07
-1.97658e-07
0.000268176
5.78961e-08
1.5076e-07
-0.00118083
-1.13031e-07
1.62714e-08
0.00118072
-0.0011318
-1.19789e-06
-1.43872e-07
2.62834e-08
0.00113177
-2.17143e-07
1.21393e-06
2.25609e-07
8.86208e-07
-1.76888e-07
-8.23556e-07
2.31345e-07
-0.00113153
-1.18401e-06
-2.12947e-07
-4.76317e-08
0.0011316
-2.11088e-07
1.21674e-06
2.31424e-07
8.94324e-07
-1.72901e-07
-8.16017e-07
2.41159e-07
-0.00027021
1.20319e-06
1.18757e-06
-2.01012e-07
-1.9456e-07
0.000268215
1.0901e-07
7.98892e-08
-0.00118042
-6.40437e-08
-4.6088e-08
0.00118035
-0.00113167
-1.18465e-06
-8.79886e-08
-4.86284e-08
0.00113164
-1.99944e-07
1.22969e-06
2.44507e-07
8.75117e-07
-1.8651e-07
-8.33562e-07
2.21175e-07
-0.00113159
-1.18083e-06
-1.05569e-07
-1.31561e-08
0.00113153
-2.02272e-07
1.22317e-06
2.42758e-07
8.81416e-07
-1.83591e-07
-8.27482e-07
2.29862e-07
-0.000270251
1.22535e-06
1.16878e-06
-1.83952e-07
-2.08015e-07
0.000268249
2.12839e-07
1.17302e-07
-0.00118016
-7.20006e-08
-2.07509e-07
0.00118011
-0.00113161
-1.17079e-06
-1.15541e-07
-1.35641e-07
0.00113163
-1.90632e-07
1.23995e-06
2.49947e-07
8.81631e-07
-1.79042e-07
-8.28613e-07
2.29611e-07
-0.00113127
-1.17527e-06
-5.14835e-08
-5.14624e-08
0.0011312
-1.99789e-07
1.2238e-06
2.40351e-07
8.7585e-07
-1.86416e-07
-8.33395e-07
2.26899e-07
-0.000270243
1.22412e-06
1.17013e-06
-1.86384e-07
-2.0407e-07
0.000268239
1.62367e-07
1.48927e-07
-0.00117997
-8.92477e-08
-1.65961e-07
0.00117992
-0.00113174
-1.19417e-06
-1.59732e-07
-2.5522e-08
0.00113178
-2.15592e-07
1.21642e-06
2.25505e-07
8.86222e-07
-1.76337e-07
-8.23929e-07
2.31955e-07
-0.00113112
-1.19143e-06
-1.13435e-07
-1.78941e-08
0.00113114
-2.16188e-07
1.20795e-06
2.24967e-07
8.78143e-07
-1.85751e-07
-8.31261e-07
2.27579e-07
-0.000270255
1.2095e-06
1.18732e-06
-2.0498e-07
-1.98369e-07
0.000268262
1.70983e-08
9.14397e-08
-0.00117965
-4.40169e-08
4.21735e-08
0.00117954
-0.00113181
-1.20868e-06
-1.79718e-07
9.14709e-08
0.00113179
-2.25481e-07
1.20524e-06
2.19486e-07
8.8632e-07
-1.77668e-07
-8.23289e-07
2.29368e-07
-0.00113129
-1.19524e-06
-2.15605e-07
1.97174e-08
0.00113134
-2.17888e-07
1.2072e-06
2.26945e-07
8.86052e-07
-1.79543e-07
-8.2234e-07
2.32205e-07
-0.000270358
1.1942e-06
1.17987e-06
-1.96531e-07
-1.87509e-07
0.000268368
8.00127e-08
1.47697e-07
-0.00117929
-1.39312e-07
-2.03738e-08
0.00117922
-0.00113171
-1.15692e-06
3.57273e-08
-2.10361e-07
0.00113168
-1.72205e-07
1.25926e-06
2.72138e-07
8.55014e-07
-2.0587e-07
-8.5509e-07
2.03652e-07
-0.0011315
-1.14324e-06
-2.77008e-08
-2.81421e-07
0.00113155
-1.65767e-07
1.26277e-06
2.78291e-07
8.62482e-07
-2.02023e-07
-8.50048e-07
2.14977e-07
-0.000270375
1.23934e-06
1.21264e-06
-2.12774e-07
-2.16098e-07
0.000268352
1.02208e-07
8.04889e-08
-0.00117901
-6.81924e-08
-5.00782e-08
0.00117895
-0.00113166
-1.18914e-06
-1.55728e-07
-6.24877e-08
0.00113167
-2.11824e-07
1.21758e-06
2.25204e-07
8.96411e-07
-1.62745e-07
-8.14935e-07
2.44834e-07
-0.00113159
-1.19271e-06
-1.66734e-07
1.15759e-08
0.00113155
-2.22041e-07
1.20431e-06
2.1707e-07
9.03489e-07
-1.60982e-07
-8.06755e-07
2.50615e-07
-0.000270241
1.22322e-06
1.17117e-06
-1.88707e-07
-2.07517e-07
0.000268243
2.89591e-07
1.43191e-07
-0.00117886
-1.0701e-07
-2.91846e-07
0.00117883
-0.00113161
-1.22076e-06
-1.15335e-07
1.6349e-07
0.00113157
-2.38827e-07
1.19248e-06
2.04649e-07
8.71308e-07
-1.93005e-07
-8.34688e-07
2.09819e-07
-0.00113125
-1.21426e-06
-8.35688e-08
2.18509e-07
0.0011311
-2.35731e-07
1.18521e-06
2.04439e-07
8.72423e-07
-1.89619e-07
-8.32649e-07
2.19637e-07
-0.000270389
1.20515e-06
1.1411e-06
-1.73459e-07
-1.99194e-07
0.000268416
6.3769e-08
-3.70469e-08
-0.00117855
1.73722e-07
-4.64216e-08
0.00117839
-0.00113167
-1.19336e-06
-3.30116e-07
-3.41301e-08
0.00113179
-2.07037e-07
1.21877e-06
2.35545e-07
9.02974e-07
-1.55974e-07
-8.03799e-07
2.46298e-07
-0.00113084
-1.22003e-06
-1.04154e-07
9.41753e-08
0.00113089
-2.34587e-07
1.18318e-06
2.11888e-07
8.60216e-07
-1.99166e-07
-8.43932e-07
2.05087e-07
-0.000270567
1.20341e-06
1.17393e-06
-1.89599e-07
-1.85479e-07
0.000268565
-2.46018e-07
3.15694e-07
-0.00117798
-3.68232e-07
3.08821e-07
0.00117797
-0.00113194
-1.12277e-06
2.90999e-07
-3.58177e-07
0.00113186
-1.33205e-07
1.29708e-06
3.09771e-07
7.94413e-07
-2.40637e-07
-8.96299e-07
1.42671e-07
-0.00113158
-1.03517e-06
-1.42137e-07
-8.34916e-07
0.00113186
-5.85186e-08
1.37278e-06
3.77884e-07
8.61679e-07
-1.89136e-07
-8.3632e-07
2.08156e-07
-0.000270462
1.20026e-06
1.29771e-06
-2.685e-07
-1.77939e-07
0.00026841
8.22782e-07
1.36424e-07
-0.00117852
-3.30064e-07
-8.90706e-07
0.00117878
-0.00113167
-1.12266e-06
2.18942e-08
-4.90506e-07
0.00113177
-1.65696e-07
1.25746e-06
2.35993e-07
8.90121e-07
-1.495e-07
-8.16733e-07
2.42798e-07
-0.00113183
-1.20573e-06
3.72678e-07
1.44398e-07
0.00113149
-2.56302e-07
1.14211e-06
1.33135e-07
8.32697e-07
-1.76573e-07
-8.47126e-07
1.9797e-07
-0.000270109
1.37953e-06
1.1154e-06
-1.40393e-07
-3.2668e-07
0.000268081
4.27767e-07
7.57422e-07
-0.00117871
-2.62705e-07
-3.71568e-07
0.00117816
-0.00113233
-1.40582e-06
-1.74389e-06
1.20659e-06
0.00113266
-4.20322e-07
1.06037e-06
1.69111e-08
1.13049e-06
3.35445e-08
-5.9684e-07
3.94825e-07
-0.00113097
-1.33245e-06
-1.64959e-06
6.76013e-07
0.00113154
-3.46055e-07
1.13864e-06
1.09549e-07
1.09913e-06
-3.29546e-09
-6.36789e-07
3.73182e-07
-0.000270586
8.89307e-07
1.05436e-06
-1.12072e-07
6.48428e-08
0.000268689
5.3016e-06
5.50198e-06
-0.00116326
-1.20646e-05
-1.04092e-05
0.000283261
0.000285114
0.000285007
0.000285017
4.3412e-06
6.62152e-06
7.02869e-06
4.5535e-06
6.78572e-06
7.20226e-06
-0.000280506
5.49915e-06
-5.31694e-06
5.82373e-06
-3.49798e-06
0.000277998
-0.000280938
-5.56522e-06
5.60536e-06
-3.62369e-06
6.03777e-06
0.000278484
-0.000272122
-5.46542e-06
-5.31643e-06
5.72689e-06
5.80289e-06
0.000271375
-1.26146e-06
-1.23209e-06
0.00027011
-0.000268096
2.3908e-07
2.39831e-07
0.00113138
-1.54096e-07
-0.00113139
-4.36523e-08
-1.22007e-06
2.42881e-07
-2.10952e-07
-8.18282e-07
2.38268e-07
-1.70765e-07
8.91959e-07
1.27293e-06
0.00113172
-1.54018e-07
-0.00113172
-5.60573e-08
-1.22173e-06
2.54447e-07
-2.06775e-07
-8.31156e-07
2.32649e-07
-1.81321e-07
8.89398e-07
-1.2293e-06
0.000270115
-0.000268091
2.341e-07
2.43319e-07
0.00113251
-1.56676e-07
-0.00113252
-6.5604e-08
-1.17697e-06
2.48756e-07
-2.00952e-07
-8.23083e-07
2.38042e-07
-1.76357e-07
8.92347e-07
1.26621e-06
0.00113146
-1.64924e-07
-0.00113147
-4.14134e-08
-1.21737e-06
2.52917e-07
-2.08206e-07
-8.2464e-07
2.35591e-07
-1.78143e-07
8.90159e-07
-1.04734e-07
-0.00113209
-7.92797e-08
-1.18308e-06
2.39536e-07
-2.02665e-07
-8.25455e-07
2.32478e-07
8.84821e-07
-1.76857e-07
1.25121e-06
0.00113108
-1.00018e-07
-0.00113113
-1.73441e-08
-1.2193e-06
2.37457e-07
-2.10878e-07
-8.2736e-07
2.29225e-07
-1.79239e-07
8.82075e-07
-1.223e-06
0.000270079
-0.000268067
2.31653e-07
2.4557e-07
-1.12805e-07
-0.00113183
-6.53081e-08
-1.17826e-06
2.3828e-07
-2.03836e-07
-8.22104e-07
2.37673e-07
8.87857e-07
-1.76826e-07
1.22476e-06
0.00113221
-1.00165e-07
-0.00113225
-4.02805e-08
-1.1787e-06
2.43424e-07
-2.00821e-07
-8.29784e-07
2.28787e-07
-1.85016e-07
8.79557e-07
-0.000268047
2.37666e-07
2.35854e-07
1.22398e-06
1.17688e-06
-1.85396e-07
-2.01237e-07
0.000268096
-1.25507e-06
-1.22517e-06
0.000270095
-0.000268084
2.32501e-07
2.36647e-07
-1.64334e-08
0.00113135
-2.14258e-07
1.25755e-06
2.39669e-07
8.91919e-07
-1.7061e-07
-8.17883e-07
2.37923e-07
-1.21635e-06
-1.45621e-07
-8.57847e-08
0.00113173
-2.01898e-07
1.27817e-06
2.59063e-07
8.88461e-07
-1.82385e-07
-8.32297e-07
2.31791e-07
0.0011312
-1.29487e-07
-0.00113126
1.34451e-08
-1.22708e-06
2.39366e-07
-2.15328e-07
-8.23799e-07
2.30762e-07
-1.76778e-07
8.84765e-07
1.28471e-06
0.00113174
-1.18923e-07
-0.00113174
-1.31766e-07
-1.20838e-06
2.63162e-07
-1.96096e-07
-8.32462e-07
2.32447e-07
-1.82309e-07
8.88771e-07
-1.96881e-07
-1.88958e-07
0.000268098
-1.21953e-06
0.000270146
-0.000268121
2.29323e-07
2.49938e-07
-5.99621e-08
0.00113248
-2.00959e-07
1.23162e-06
2.48141e-07
8.9041e-07
-1.77878e-07
-8.24764e-07
2.36225e-07
-1.21371e-06
-1.42463e-07
-5.72162e-08
0.00113144
-2.04646e-07
1.26979e-06
2.56337e-07
8.87371e-07
-1.8077e-07
-8.27336e-07
2.33044e-07
0.00113231
-8.81345e-08
-0.00113237
-3.40206e-08
-1.18206e-06
2.42347e-07
-2.0594e-07
-8.3032e-07
2.30979e-07
-1.82713e-07
8.84257e-07
1.27495e-06
0.00113134
-8.82812e-08
-0.00113138
-9.721e-08
-1.2069e-06
2.59672e-07
-1.99407e-07
-8.32389e-07
2.29249e-07
-1.84883e-07
8.82512e-07
-1.18407e-07
-2.60001e-08
0.00113106
-2.10631e-07
1.25157e-06
2.37971e-07
8.83131e-07
-1.78295e-07
2.30189e-07
-8.26384e-07
-1.88944e-07
-0.00113208
-1.24336e-08
-1.19392e-06
2.30985e-07
-2.12797e-07
-8.16181e-07
2.39921e-07
8.93715e-07
-1.68652e-07
1.25821e-06
0.00113108
-1.59698e-07
-0.00113106
-6.33427e-08
-1.21325e-06
2.44199e-07
-2.05024e-07
-8.24081e-07
2.32048e-07
-1.76393e-07
8.85538e-07
-1.94971e-07
-1.92476e-07
0.000268069
-1.20948e-06
0.000270079
-0.000268068
2.239e-07
2.49856e-07
-9.99118e-08
-6.95924e-08
0.00113218
-1.97427e-07
1.2283e-06
2.46394e-07
8.78967e-07
-1.85583e-07
2.28484e-07
-8.30657e-07
-1.6119e-07
-0.0011317
2.24315e-08
-1.19271e-06
2.27328e-07
-2.16292e-07
-8.18457e-07
2.39729e-07
8.90597e-07
-1.73707e-07
1.23102e-06
0.00113219
-1.20965e-07
-0.00113218
-1.10171e-07
-1.17105e-06
2.47251e-07
-1.95648e-07
-8.27672e-07
2.32419e-07
-1.82159e-07
8.82629e-07
-0.000268076
2.3981e-07
2.41395e-07
1.2247e-06
1.18372e-06
-1.92151e-07
-2.01641e-07
0.000268081
-1.26868e-06
-1.22246e-06
0.000270106
-0.000268089
2.29249e-07
2.44992e-07
-6.09845e-10
0.00113116
-2.12655e-07
1.25746e-06
2.42034e-07
8.81808e-07
-1.79561e-07
-8.2671e-07
2.28065e-07
-1.21042e-06
-1.10522e-07
-1.20703e-07
0.00113173
-1.98924e-07
1.28183e-06
2.59583e-07
8.89501e-07
-1.81318e-07
-8.31743e-07
2.33452e-07
0.0011311
-1.11436e-07
-0.00113111
-8.30781e-08
-1.21337e-06
2.52205e-07
-2.02077e-07
-8.30263e-07
2.25887e-07
-1.82529e-07
8.79015e-07
1.26048e-06
0.00113162
-1.05738e-07
-0.00113167
-1.96001e-08
-1.23011e-06
2.39024e-07
-2.18828e-07
-8.2897e-07
2.35716e-07
-1.78232e-07
8.91722e-07
-1.99397e-07
-1.85609e-07
0.000268127
-1.22934e-06
0.000270152
-0.000268131
2.38685e-07
2.30623e-07
-3.20963e-08
0.00113226
-2.07396e-07
1.22334e-06
2.40831e-07
8.83184e-07
-1.83498e-07
-8.3139e-07
2.30174e-07
-1.20834e-06
-8.0726e-08
-9.47866e-08
0.0011313
-2.01675e-07
1.27258e-06
2.5666e-07
8.82292e-07
-1.84766e-07
-8.3261e-07
2.29366e-07
0.00113219
-1.2212e-07
-0.0011322
-5.0208e-08
-1.18476e-06
2.39948e-07
-2.0849e-07
-8.29406e-07
2.32953e-07
-1.81138e-07
8.85615e-07
1.25647e-06
0.0011312
-1.0271e-07
-0.00113123
-3.95833e-08
-1.22321e-06
2.40977e-07
-2.17006e-07
-8.28905e-07
2.33411e-07
-1.80671e-07
8.86105e-07
-1.66133e-07
-7.76232e-08
0.00113111
-2.02303e-07
1.26125e-06
2.46945e-07
8.86591e-07
-1.76028e-07
2.32719e-07
-8.23346e-07
-1.41395e-07
-0.00113207
-2.32487e-08
-1.18503e-06
2.42479e-07
-2.01946e-07
-8.24781e-07
2.28833e-07
8.83662e-07
-1.78627e-07
1.2652e-06
0.00113117
-1.56128e-07
-0.00113116
-8.5924e-08
-1.20581e-06
2.4975e-07
-1.98738e-07
-8.2106e-07
2.346e-07
-1.74159e-07
8.88826e-07
-1.99359e-07
-1.90443e-07
0.000268068
-1.22574e-06
0.000270087
-0.000268075
2.36736e-07
2.33409e-07
-1.34181e-07
-1.08717e-07
0.00113221
-1.9692e-07
1.23006e-06
2.45944e-07
8.85355e-07
-1.79851e-07
2.3497e-07
-8.25245e-07
-1.35769e-07
-0.00113162
-4.39005e-08
-1.17771e-06
2.44752e-07
-1.99842e-07
-8.27731e-07
2.28874e-07
8.80503e-07
-1.84089e-07
1.22186e-06
0.00113225
-1.65419e-07
-0.00113225
-5.40513e-08
-1.17975e-06
2.37559e-07
-2.05121e-07
-8.17602e-07
2.41549e-07
-1.728e-07
8.92725e-07
-0.000268118
2.3415e-07
2.4734e-07
1.21022e-06
1.18407e-06
-1.93663e-07
-1.92909e-07
0.000268098
-1.26986e-06
-1.22687e-06
0.00027015
-0.000268131
2.3389e-07
2.44505e-07
-1.05107e-07
0.00113111
-1.99558e-07
1.27155e-06
2.54366e-07
8.80158e-07
-1.81492e-07
-8.29399e-07
2.27161e-07
-1.23647e-06
-1.16816e-07
1.07194e-08
0.00113158
-2.24162e-07
1.25462e-06
2.34458e-07
8.92294e-07
-1.77521e-07
-8.28152e-07
2.3619e-07
0.00113116
-1.39202e-07
-0.00113115
-1.0333e-07
-1.21069e-06
2.50656e-07
-2.02108e-07
-8.23764e-07
2.33206e-07
-1.75687e-07
8.86248e-07
1.25667e-06
0.0011315
-1.54389e-07
-0.00113151
1.26754e-08
-1.23672e-06
2.39183e-07
-2.21511e-07
-8.28963e-07
2.34393e-07
-1.7871e-07
8.90923e-07
-1.88909e-07
-2.05239e-07
0.000268129
-1.23781e-06
0.000270152
-0.000268128
2.41128e-07
2.30212e-07
-5.66278e-08
0.0011322
-2.07934e-07
1.22327e-06
2.40638e-07
8.8772e-07
-1.79132e-07
-8.2743e-07
2.34953e-07
-1.22771e-06
-1.25347e-07
-2.1989e-08
0.00113119
-2.2079e-07
1.25247e-06
2.37848e-07
8.8843e-07
-1.78359e-07
-8.2659e-07
2.35642e-07
0.00113227
-1.77196e-07
-0.00113225
-6.16052e-08
-1.18091e-06
2.43754e-07
-2.05202e-07
-8.23189e-07
2.37883e-07
-1.75944e-07
8.91976e-07
1.25484e-06
0.00113121
-1.80256e-07
-0.0011312
-1.68362e-08
-1.22746e-06
2.41892e-07
-2.18616e-07
-8.23008e-07
2.37864e-07
-1.75435e-07
8.91538e-07
-1.36243e-07
-6.99585e-08
0.00113115
-2.00409e-07
1.26292e-06
2.47478e-07
8.871e-07
-1.75086e-07
2.33142e-07
-8.2217e-07
-6.35409e-08
-0.00113193
-1.05111e-07
-1.17426e-06
2.48842e-07
-1.92932e-07
-8.34092e-07
2.23233e-07
8.75665e-07
-1.85709e-07
1.25294e-06
0.00113098
-7.82662e-08
-0.00113105
-1.72315e-08
-1.2166e-06
2.38595e-07
-2.0894e-07
-8.29109e-07
2.26694e-07
-1.81185e-07
8.797e-07
-1.84857e-07
-2.06662e-07
0.00026808
-1.23605e-06
0.000270116
-0.000268101
2.41101e-07
2.35226e-07
-1.60638e-07
-2.15684e-08
0.00113223
-2.08909e-07
1.21729e-06
2.33689e-07
8.92044e-07
-1.72883e-07
2.40733e-07
-8.17515e-07
-9.1356e-08
-0.0011316
-1.35163e-07
-1.16497e-06
2.51893e-07
-1.898e-07
-8.30687e-07
2.29439e-07
8.79113e-07
-1.85123e-07
1.21323e-06
0.00113209
-1.16555e-07
-0.00113214
2.43392e-08
-1.1891e-06
2.32254e-07
-2.11512e-07
-8.26102e-07
2.31178e-07
-1.81589e-07
8.82421e-07
-0.000268107
2.29763e-07
2.37316e-07
1.21461e-06
1.1803e-06
-1.89223e-07
-1.96207e-07
0.00026814
-1.25412e-06
-1.22648e-06
0.00027016
-0.000268147
2.3412e-07
2.34139e-07
-8.04335e-08
0.00113117
-2.06278e-07
1.26567e-06
2.46402e-07
8.87674e-07
-1.74299e-07
-8.22139e-07
2.34366e-07
-1.23114e-06
-1.56877e-07
-1.37854e-08
0.0011315
-2.15816e-07
1.26274e-06
2.4514e-07
8.89651e-07
-1.80223e-07
-8.30281e-07
2.32949e-07
0.00113111
-1.32457e-07
-0.00113114
-5.14556e-09
-1.22677e-06
2.36815e-07
-2.16926e-07
-8.22245e-07
2.32691e-07
-1.75097e-07
8.86865e-07
1.27962e-06
0.00113152
-1.34272e-07
-0.00113151
-9.88029e-08
-1.21359e-06
2.59666e-07
-2.00123e-07
-8.33897e-07
2.29893e-07
-1.84009e-07
8.86663e-07
-1.89221e-07
-2.00476e-07
0.000268133
-1.22209e-06
0.000270182
-0.000268157
2.28848e-07
2.47455e-07
-5.74023e-08
0.00113229
-2.04591e-07
1.22748e-06
2.44344e-07
8.91345e-07
-1.76768e-07
-8.23541e-07
2.36917e-07
-1.22342e-06
-1.8113e-07
-3.09563e-08
0.00113123
-2.14364e-07
1.25937e-06
2.46444e-07
8.9047e-07
-1.76718e-07
-8.23973e-07
2.36494e-07
0.00113224
-1.2001e-07
-0.00113227
-3.81667e-08
-1.18091e-06
2.43453e-07
-2.05011e-07
-8.28911e-07
2.31505e-07
-1.82134e-07
8.85828e-07
1.27245e-06
0.00113125
-1.33986e-07
-0.00113125
-8.16399e-08
-1.21011e-06
2.57913e-07
-2.02076e-07
-8.30264e-07
2.30067e-07
-1.83611e-07
8.84461e-07
-7.70282e-08
-1.24501e-08
0.00113092
-2.10582e-07
1.2509e-06
2.36902e-07
8.78911e-07
-1.81773e-07
2.26026e-07
-8.29946e-07
-1.44312e-07
-0.00113187
-4.4386e-08
-1.18936e-06
2.32437e-07
-2.09438e-07
-8.20894e-07
2.3617e-07
8.88883e-07
-1.72422e-07
1.25321e-06
0.00113083
-1.20554e-07
-0.00113084
-4.247e-08
-1.21684e-06
2.39432e-07
-2.08759e-07
-8.2748e-07
2.2859e-07
-1.79331e-07
8.81534e-07
-1.84611e-07
-2.01213e-07
0.000268109
-1.21447e-06
0.000270142
-0.000268129
2.24988e-07
2.49084e-07
-1.05261e-07
1.00035e-08
0.00113203
-2.08446e-07
1.216e-06
2.35226e-07
8.7943e-07
-1.84559e-07
2.28245e-07
-8.29164e-07
-1.43134e-07
-0.00113159
-2.54181e-08
-1.18603e-06
2.30071e-07
-2.11888e-07
-8.20222e-07
2.38963e-07
8.89353e-07
-1.74907e-07
1.22748e-06
0.00113196
-1.08348e-07
-0.00113196
-7.39899e-08
-1.1744e-06
2.45207e-07
-1.97736e-07
-8.31207e-07
2.27632e-07
-1.86185e-07
8.78223e-07
-0.000268104
2.38269e-07
2.36522e-07
1.2277e-06
1.1814e-06
-1.89577e-07
-2.0465e-07
0.000268145
-1.26041e-06
-1.22482e-06
0.000270155
-0.000268141
2.31734e-07
2.39665e-07
3.89042e-09
0.00113107
-2.17092e-07
1.2537e-06
2.3714e-07
8.85534e-07
-1.76522e-07
-8.23422e-07
2.31172e-07
-1.21098e-06
-1.24598e-07
-1.12096e-07
0.00113153
-1.98456e-07
1.28159e-06
2.60628e-07
8.86977e-07
-1.83994e-07
-8.33849e-07
2.30162e-07
0.00113096
-1.14544e-07
-0.00113099
-2.98398e-08
-1.22102e-06
2.44438e-07
-2.09531e-07
-8.27478e-07
2.27651e-07
-1.80326e-07
8.81416e-07
1.27289e-06
0.00113147
-9.33361e-08
-0.0011315
-8.12014e-08
-1.21766e-06
2.50981e-07
-2.06656e-07
-8.32497e-07
2.31685e-07
-1.82222e-07
8.88002e-07
-2.00629e-07
-1.85406e-07
0.000268164
-1.21863e-06
0.0002702
-0.000268178
2.29983e-07
2.39693e-07
-3.49761e-08
0.00113219
-2.05532e-07
1.22587e-06
2.42862e-07
8.84464e-07
-1.83444e-07
-8.30362e-07
2.30308e-07
-1.20785e-06
-1.15805e-07
-9.13161e-08
0.00113124
-2.00638e-07
1.27423e-06
2.58867e-07
8.83484e-07
-1.84847e-07
-8.31557e-07
2.29202e-07
0.00113207
-9.88533e-08
-0.0011321
-4.5849e-08
-1.182e-06
2.4255e-07
-2.05732e-07
-8.30771e-07
2.30716e-07
-1.83096e-07
8.84035e-07
1.26832e-06
0.00113113
-9.10492e-08
-0.00113118
-7.49011e-08
-1.21164e-06
2.51686e-07
-2.0618e-07
-8.28865e-07
2.32939e-07
-1.81464e-07
8.86479e-07
-1.36737e-07
-5.93032e-08
0.00113085
-2.06601e-07
1.25563e-06
2.41678e-07
8.82725e-07
-1.78413e-07
2.29566e-07
-8.26382e-07
-1.75395e-07
-0.00113187
1.18949e-08
-1.19441e-06
2.31738e-07
-2.12162e-07
-8.19366e-07
2.33956e-07
8.89314e-07
-1.7335e-07
1.26158e-06
0.00113095
-1.68695e-07
-0.00113091
-9.02846e-08
-1.2088e-06
2.46324e-07
-2.01908e-07
-8.21796e-07
2.33994e-07
-1.74951e-07
8.88305e-07
-1.99806e-07
-1.89082e-07
0.000268133
-1.21447e-06
0.000270147
-0.000268137
2.29024e-07
2.4337e-07
-1.16996e-07
-9.60623e-08
0.00113197
-1.95903e-07
1.22965e-06
2.4672e-07
8.79713e-07
-1.84745e-07
2.29295e-07
-8.30002e-07
-1.73727e-07
-0.00113153
1.71851e-08
-1.18812e-06
2.33024e-07
-2.11232e-07
-8.18536e-07
2.37676e-07
8.90298e-07
-1.75429e-07
1.22964e-06
0.00113205
-1.53536e-07
-0.00113202
-1.0776e-07
-1.1718e-06
2.45475e-07
-1.97223e-07
-8.22563e-07
2.36648e-07
-1.77975e-07
8.87993e-07
-0.000268156
2.38746e-07
2.43244e-07
1.21836e-06
1.18101e-06
-1.90799e-07
-1.97824e-07
0.000268144
-1.26332e-06
-1.23195e-06
0.000270183
-0.000268166
2.36888e-07
2.40647e-07
-4.79957e-08
0.00113094
-2.07166e-07
1.26276e-06
2.4642e-07
8.81537e-07
-1.80064e-07
-8.27657e-07
2.28223e-07
-1.2231e-06
-8.97499e-08
-5.78447e-08
0.00113144
-2.11732e-07
1.26712e-06
2.45856e-07
8.88139e-07
-1.81586e-07
-8.32159e-07
2.32078e-07
0.00113094
-1.52693e-07
-0.00113093
-6.625e-08
-1.21691e-06
2.46073e-07
-2.068e-07
-8.22452e-07
2.34293e-07
-1.73968e-07
8.87096e-07
1.25905e-06
0.00113135
-1.34201e-07
-0.00113137
-2.16494e-08
-1.23254e-06
2.40398e-07
-2.18582e-07
-8.28277e-07
2.36657e-07
-1.76936e-07
8.92207e-07
-1.96758e-07
-1.9585e-07
0.000268179
-1.23933e-06
0.000270207
-0.000268183
2.4446e-07
2.30351e-07
-5.88892e-08
0.00113204
-2.04534e-07
1.22603e-06
2.43948e-07
8.84937e-07
-1.81932e-07
-8.2987e-07
2.31828e-07
-1.21712e-06
-8.9366e-08
-5.02823e-08
0.00113108
-2.11539e-07
1.26192e-06
2.45811e-07
8.87329e-07
-1.79918e-07
-8.27462e-07
2.33936e-07
0.00113204
-1.29501e-07
-0.00113203
-9.89554e-08
-1.17519e-06
2.48944e-07
-1.99187e-07
-8.27594e-07
2.34148e-07
-1.7943e-07
8.87061e-07
1.24775e-06
0.00113092
-1.12987e-07
-0.00113097
1.45286e-08
-1.2318e-06
2.3533e-07
-2.23038e-07
-8.2603e-07
2.34952e-07
-1.77801e-07
8.87657e-07
-1.69609e-07
-8.49038e-08
0.00113097
-2.01926e-07
1.26142e-06
2.45999e-07
8.89939e-07
-1.73197e-07
2.35651e-07
-8.20128e-07
-1.05161e-07
-0.0011318
-9.44085e-08
-1.17376e-06
2.5205e-07
-1.90786e-07
-8.3107e-07
2.25364e-07
8.78163e-07
-1.83117e-07
1.25438e-06
0.00113094
-1.52461e-07
-0.00113097
-2.62388e-08
-1.21517e-06
2.40135e-07
-2.07446e-07
-8.19438e-07
2.36039e-07
-1.71738e-07
8.89648e-07
-1.92606e-07
-1.97405e-07
0.000268136
-1.22727e-06
0.000270137
-0.000268128
2.37225e-07
2.29168e-07
-1.58374e-07
-9.74239e-08
0.00113207
-1.98345e-07
1.22844e-06
2.44411e-07
8.8999e-07
-1.758e-07
2.38511e-07
-8.20327e-07
-8.3804e-08
-0.00113138
-5.76537e-08
-1.17354e-06
2.46204e-07
-1.95955e-07
-8.31171e-07
2.26908e-07
8.76886e-07
-1.8628e-07
1.22483e-06
0.00113204
-1.28345e-07
-0.00113207
-5.7632e-08
-1.17687e-06
2.41877e-07
-2.00889e-07
-8.21843e-07
2.36505e-07
-1.76651e-07
8.87183e-07
-0.000268181
2.37474e-07
2.39875e-07
1.21788e-06
1.17445e-06
-1.85976e-07
-1.98004e-07
0.000268175
-1.26515e-06
-1.22123e-06
0.000270216
-0.0002682
2.27254e-07
2.42711e-07
-6.04644e-08
0.00113095
-2.07773e-07
1.26247e-06
2.45295e-07
8.88407e-07
-1.72635e-07
-8.20913e-07
2.35216e-07
-1.23163e-06
-1.56588e-07
-2.57897e-08
0.00113135
-2.17429e-07
1.26044e-06
2.41801e-07
8.93648e-07
-1.75468e-07
-8.26701e-07
2.37838e-07
0.00113099
-1.56036e-07
-0.00113098
-5.35963e-08
-1.21635e-06
2.4821e-07
-2.05953e-07
-8.24222e-07
2.29554e-07
-1.77516e-07
8.84271e-07
1.26883e-06
0.00113142
-1.78217e-07
-0.00113139
-5.47917e-08
-1.22367e-06
2.49081e-07
-2.10426e-07
-8.27617e-07
2.3549e-07
-1.77457e-07
8.92456e-07
-1.83503e-07
-2.0168e-07
0.000268189
-1.23276e-06
0.000270246
-0.000268219
2.36114e-07
2.38408e-07
-1.01553e-07
0.00113205
-1.99059e-07
1.23228e-06
2.48594e-07
8.87544e-07
-1.78966e-07
-8.2722e-07
2.34664e-07
-1.23231e-06
-1.21975e-07
1.78526e-08
0.00113088
-2.22854e-07
1.24754e-06
2.35676e-07
8.8613e-07
-1.78669e-07
-8.2714e-07
2.33343e-07
0.00113207
-1.47157e-07
-0.00113207
-3.92459e-08
-1.18401e-06
2.3657e-07
-2.1006e-07
-8.25241e-07
2.3644e-07
-1.77155e-07
8.89721e-07
1.26234e-06
0.0011309
-1.47663e-07
-0.00113087
-6.12591e-08
-1.21929e-06
2.49975e-07
-2.09776e-07
-8.32308e-07
2.28491e-07
-1.84143e-07
8.81509e-07
-1.46587e-07
-1.0286e-08
0.0011309
-2.08801e-07
1.25263e-06
2.38912e-07
8.88206e-07
-1.72712e-07
2.34811e-07
-8.20662e-07
-1.29898e-07
-0.00113178
-9.69368e-08
-1.17816e-06
2.42478e-07
-1.98599e-07
-8.25063e-07
2.31655e-07
8.84544e-07
-1.76562e-07
1.25518e-06
0.0011308
-1.1921e-07
-0.00113083
-2.25266e-08
-1.21498e-06
2.4183e-07
-2.06402e-07
-8.28991e-07
2.24809e-07
-1.81671e-07
8.78847e-07
-1.85938e-07
-2.08146e-07
0.000268126
-1.22693e-06
0.000270158
-0.000268141
2.32861e-07
2.3943e-07
-1.15421e-07
-4.9179e-08
0.001132
-2.01398e-07
1.22403e-06
2.41073e-07
8.85287e-07
-1.7813e-07
2.3514e-07
-8.23754e-07
-9.74215e-08
-0.00113125
-1.03421e-07
-1.17332e-06
2.4418e-07
-1.97323e-07
-8.3285e-07
2.26654e-07
8.75717e-07
-1.86454e-07
1.21445e-06
0.00113188
-1.10318e-07
-0.00113191
-9.17071e-09
-1.1851e-06
2.30943e-07
-2.09968e-07
-8.27248e-07
2.31382e-07
-1.81428e-07
8.81585e-07
-0.000268173
2.27059e-07
2.39401e-07
1.21379e-06
1.18976e-06
-1.9776e-07
-1.9475e-07
0.000268205
-1.26822e-06
-1.20766e-06
0.00027023
-0.000268216
2.19154e-07
2.42262e-07
-6.27834e-08
0.00113098
-2.03382e-07
1.26786e-06
2.5077e-07
8.81027e-07
-1.81114e-07
-8.27519e-07
2.26187e-07
-1.2216e-06
-1.68423e-07
-6.00918e-08
0.00113144
-2.08703e-07
1.27084e-06
2.50677e-07
8.9074e-07
-1.79698e-07
-8.29424e-07
2.33408e-07
0.00113092
-6.98679e-08
-0.00113095
-7.72256e-08
-1.21173e-06
2.49429e-07
-2.03037e-07
-8.34776e-07
2.20962e-07
-1.87645e-07
8.74847e-07
1.27185e-06
0.00113144
-1.1426e-07
-0.00113145
-5.70947e-08
-1.2202e-06
2.50855e-07
-2.08205e-07
-8.35433e-07
2.28021e-07
-1.8594e-07
8.85345e-07
-1.94088e-07
-1.93807e-07
0.000268229
-1.21649e-06
0.000270275
-0.000268251
2.2551e-07
2.39805e-07
-5.09974e-09
0.00113206
-2.15539e-07
1.21542e-06
2.31293e-07
8.90698e-07
-1.76686e-07
-8.24315e-07
2.36801e-07
-1.21229e-06
-1.6292e-07
-1.01831e-07
0.00113096
-2.0362e-07
1.26976e-06
2.56147e-07
8.82915e-07
-1.83825e-07
-8.31796e-07
2.29592e-07
0.00113202
-1.62756e-07
-0.00113204
4.94133e-08
-1.1992e-06
2.26254e-07
-2.22776e-07
-8.2616e-07
2.32837e-07
-1.80163e-07
8.88441e-07
1.27688e-06
0.00113119
-1.74875e-07
-0.00113112
-1.47037e-07
-1.20399e-06
2.5894e-07
-1.99531e-07
-8.2749e-07
2.33482e-07
-1.80766e-07
8.8833e-07
-1.04243e-07
-4.75631e-08
0.00113078
-2.02888e-07
1.25922e-06
2.4562e-07
8.75246e-07
-1.85676e-07
2.21089e-07
-8.32785e-07
-1.46005e-07
-0.00113181
8.87086e-09
-1.19504e-06
2.27153e-07
-2.15124e-07
-8.23455e-07
2.31915e-07
8.86415e-07
-1.76452e-07
1.26781e-06
0.00113078
-7.71144e-08
-0.00113077
-1.20416e-07
-1.20184e-06
2.51622e-07
-1.95688e-07
-8.37283e-07
2.19444e-07
-1.89684e-07
8.72847e-07
-1.89721e-07
-1.95532e-07
0.000268158
-1.22141e-06
0.000270254
-0.000268232
2.28472e-07
2.48157e-07
-1.23639e-07
7.68106e-09
0.00113186
-2.14194e-07
1.2102e-06
2.27054e-07
8.81979e-07
-1.81687e-07
2.31226e-07
-8.27147e-07
-2.1003e-07
-0.00113146
-8.17464e-08
-1.17882e-06
2.35317e-07
-2.06386e-07
-8.17515e-07
2.40737e-07
8.92978e-07
-1.73386e-07
1.21011e-06
0.00113188
-1.72972e-07
-0.00113186
6.55453e-09
-1.19192e-06
2.28628e-07
-2.15247e-07
-8.25548e-07
2.31579e-07
-1.81877e-07
8.84214e-07
-0.000268202
2.24399e-07
2.44974e-07
1.21542e-06
1.19702e-06
-2.021e-07
-1.98092e-07
0.000268218
-1.25109e-06
-1.23224e-06
0.000270238
-0.000268223
2.39353e-07
2.29617e-07
-6.75521e-08
0.00113089
-2.06812e-07
1.26393e-06
2.45283e-07
8.74868e-07
-1.87317e-07
-8.34924e-07
2.21434e-07
-1.22106e-06
-9.16654e-08
-5.49943e-08
0.00113141
-2.09142e-07
1.27078e-06
2.49717e-07
8.8393e-07
-1.87128e-07
-8.36879e-07
2.26922e-07
0.00113079
-7.91997e-08
-0.00113082
-3.3889e-08
-1.22881e-06
2.34916e-07
-2.18019e-07
-8.30117e-07
2.27806e-07
-1.81022e-07
8.79998e-07
1.26077e-06
0.00113126
-5.81618e-08
-0.00113131
-3.04662e-08
-1.22963e-06
2.4099e-07
-2.16926e-07
-8.38006e-07
2.27051e-07
-1.8693e-07
8.829e-07
-2.03499e-07
-1.93842e-07
0.000268253
-1.22165e-06
0.000270264
-0.000268244
2.32101e-07
2.30626e-07
3.73184e-08
0.00113201
-2.19404e-07