/*--------------------------------*- C++ -*----------------------------------*\
| =========                 |                                                 |
| \\      /  F ield         | OpenFOAM: The Open Source CFD Toolbox           |
|  \\    /   O peration     | Version:  v1906                                 |
|   \\  /    A nd           | Web:      www.OpenFOAM.com                      |
|    \\/     M anipulation  |                                                 |
\*---------------------------------------------------------------------------*/
FoamFile
{
    version     2.0;
    format      ascii;
    class       volScalarField;
    location    "500";
    object      k;
}
// * * * * * * * * * * * * * * * * * * * * * * * * * * * * * * * * * * * * * //

dimensions      [0 2 -2 0 0 0 0];


internalField   nonuniform List<scalar> 
171728
(
4.17894e-05
3.6459e-05
3.64595e-05
4.17669e-05
3.64566e-05
3.64605e-05
3.64575e-05
3.64638e-05
4.17675e-05
3.64603e-05
3.64614e-05
4.17556e-05
2.08497e-05
2.08499e-05
2.08527e-05
2.08543e-05
6.95313e-05
6.95341e-05
6.68947e-05
6.69046e-05
6.46092e-05
7.13528e-05
6.47087e-05
6.4613e-05
7.13571e-05
7.13235e-05
6.47102e-05
5.309e-05
6.01857e-05
2.88269e-05
2.85817e-05
5.32927e-05
5.30933e-05
3.62277e-05
6.01908e-05
2.88287e-05
6.00676e-05
2.85836e-05
5.32937e-05
6.95336e-05
6.95077e-05
4.15776e-05
6.69053e-05
6.68891e-05
6.68409e-05
6.68296e-05
6.95297e-05
6.95036e-05
7.13581e-05
6.47106e-05
6.01907e-05
2.88307e-05
5.32934e-05
7.13534e-05
6.47085e-05
2.88311e-05
6.01837e-05
5.32922e-05
5.30943e-05
3.62257e-05
6.01853e-05
2.88295e-05
6.00667e-05
2.85846e-05
5.32967e-05
6.46135e-05
7.13573e-05
7.13225e-05
6.47116e-05
5.30934e-05
3.62318e-05
2.88324e-05
6.01862e-05
2.85874e-05
6.0065e-05
5.32944e-05
6.46126e-05
7.1355e-05
7.13203e-05
6.47087e-05
6.95323e-05
6.68962e-05
6.68947e-05
6.95323e-05
5.3095e-05
2.88333e-05
6.01889e-05
2.85881e-05
5.32957e-05
5.3095e-05
3.62295e-05
2.8834e-05
6.01925e-05
2.8589e-05
6.00693e-05
5.32964e-05
6.46126e-05
7.13553e-05
6.47122e-05
6.46137e-05
7.13596e-05
7.13232e-05
6.47127e-05
4.15824e-05
6.68937e-05
6.6907e-05
6.68334e-05
6.68436e-05
6.95323e-05
6.95064e-05
6.95351e-05
6.95091e-05
6.95188e-05
6.95217e-05
7.00285e-05
5.9332e-05
6.68775e-05
7.11362e-05
7.11195e-05
5.92674e-05
7.00687e-05
7.00889e-05
5.93258e-05
6.68857e-05
7.11452e-05
7.11309e-05
5.92858e-05
7.00987e-05
9.23415e-05
7.20372e-05
7.20304e-05
7.20231e-05
7.20167e-05
9.23488e-05
7.01258e-05
6.98208e-05
6.81152e-05
6.46501e-05
7.01147e-05
6.98331e-05
6.8152e-05
7.01845e-05
7.13374e-05
7.7385e-05
7.73653e-05
7.01991e-05
7.01275e-05
6.4668e-05
6.98472e-05
6.82019e-05
6.9834e-05
6.81653e-05
7.01391e-05
7.01277e-05
6.98234e-05
6.81254e-05
6.4651e-05
7.01179e-05
6.98321e-05
6.81576e-05
7.01874e-05
7.13443e-05
7.74062e-05
7.73877e-05
7.02014e-05
7.01916e-05
7.73576e-05
7.13366e-05
7.01777e-05
7.7378e-05
7.01309e-05
6.46702e-05
6.98457e-05
6.82064e-05
6.98369e-05
6.81756e-05
7.01417e-05
6.95211e-05
6.95201e-05
9.23127e-05
7.20055e-05
7.20108e-05
9.23037e-05
7.20193e-05
7.20247e-05
7.0084e-05
5.9331e-05
6.68859e-05
7.1145e-05
5.92804e-05
7.11304e-05
7.01048e-05
7.00326e-05
5.9321e-05
6.68747e-05
7.11334e-05
7.11189e-05
5.9272e-05
7.00537e-05
7.00396e-05
7.11069e-05
5.91816e-05
6.68605e-05
5.92329e-05
7.00185e-05
7.11218e-05
6.99882e-05
7.10953e-05
5.91733e-05
6.68443e-05
6.99669e-05
7.11102e-05
5.9223e-05
9.23386e-05
7.20305e-05
7.20358e-05
7.20165e-05
7.20219e-05
9.23471e-05
6.95171e-05
6.95161e-05
7.01877e-05
7.13452e-05
7.74064e-05
7.73854e-05
7.02017e-05
7.01313e-05
6.46729e-05
6.82069e-05
6.98467e-05
6.81753e-05
6.98382e-05
7.01422e-05
7.01845e-05
7.13398e-05
7.73839e-05
7.73654e-05
7.01991e-05
7.01291e-05
6.46709e-05
6.9846e-05
6.82e-05
6.98375e-05
6.81671e-05
7.01388e-05
7.01278e-05
6.81225e-05
6.98237e-05
6.46525e-05
7.0117e-05
6.81599e-05
6.98324e-05
7.01867e-05
7.13415e-05
7.74047e-05
7.73855e-05
7.02007e-05
7.01909e-05
7.73568e-05
7.13358e-05
7.0177e-05
7.73753e-05
7.01297e-05
6.46711e-05
6.821e-05
6.9846e-05
6.81723e-05
6.98372e-05
7.01414e-05
7.01265e-05
6.98233e-05
6.81213e-05
6.46504e-05
7.01169e-05
6.98319e-05
6.8153e-05
7.01861e-05
7.13398e-05
7.73866e-05
7.73684e-05
7.02001e-05
7.01903e-05
7.73392e-05
7.13338e-05
7.01764e-05
7.73576e-05
7.01298e-05
6.46712e-05
6.98456e-05
6.82025e-05
6.98369e-05
6.81706e-05
7.01397e-05
6.95197e-05
7.00845e-05
5.93285e-05
6.68818e-05
7.11437e-05
5.92809e-05
7.11288e-05
7.01056e-05
7.00355e-05
5.9325e-05
6.68771e-05
7.11354e-05
7.112e-05
5.92738e-05
7.00566e-05
9.23419e-05
7.20307e-05
7.2037e-05
7.20167e-05
7.20231e-05
9.23541e-05
6.95198e-05
7.01276e-05
6.81185e-05
6.98222e-05
6.46537e-05
7.01158e-05
6.8155e-05
6.98348e-05
7.01864e-05
7.13398e-05
7.73883e-05
7.73668e-05
7.02004e-05
7.01905e-05
7.73589e-05
7.01285e-05
6.46715e-05
6.82047e-05
6.98488e-05
6.81684e-05
6.98359e-05
7.01411e-05
7.01284e-05
6.81226e-05
6.98225e-05
6.46545e-05
7.0117e-05
6.81582e-05
6.98351e-05
7.0187e-05
7.13439e-05
7.74032e-05
7.73839e-05
7.02016e-05
7.01919e-05
7.73548e-05
7.13387e-05
7.01773e-05
7.73742e-05
7.01298e-05
6.46728e-05
6.82074e-05
6.98491e-05
6.81727e-05
6.98362e-05
7.01417e-05
9.23167e-05
7.20126e-05
7.20066e-05
9.23077e-05
7.20265e-05
7.20204e-05
7.00351e-05
5.93242e-05
6.68785e-05
7.1136e-05
5.92736e-05
7.11198e-05
7.00564e-05
7.00877e-05
5.93358e-05
6.68887e-05
7.11473e-05
5.92835e-05
7.11311e-05
7.01088e-05
6.99909e-05
7.1097e-05
5.91748e-05
6.68488e-05
6.99694e-05
5.9226e-05
7.11122e-05
7.00434e-05
7.11068e-05
5.91847e-05
6.68621e-05
7.0022e-05
5.92375e-05
7.11246e-05
9.23431e-05
7.20376e-05
7.20316e-05
7.20237e-05
7.20177e-05
9.23515e-05
6.95199e-05
6.95187e-05
6.95226e-05
6.95215e-05
5.9518e-05
4.17631e-05
5.05117e-05
5.05108e-05
5.04652e-05
5.04708e-05
5.95524e-05
5.95164e-05
4.17657e-05
5.05011e-05
5.04984e-05
5.04659e-05
5.04649e-05
5.95478e-05
5.95174e-05
4.17581e-05
5.0498e-05
5.04992e-05
5.04675e-05
5.04668e-05
5.95488e-05
5.95206e-05
4.17698e-05
5.05029e-05
5.05079e-05
5.04719e-05
5.04754e-05
5.95513e-05
1.49203e-05
1.49203e-05
1.4809e-05
1.07951e-05
1.08221e-05
2.0665e-05
1.49206e-05
1.49193e-05
1.48092e-05
1.4808e-05
1.0795e-05
1.08219e-05
1.49229e-05
1.4922e-05
1.48105e-05
1.07961e-05
1.08231e-05
2.06693e-05
1.49233e-05
1.49223e-05
1.48118e-05
1.48109e-05
1.07962e-05
1.08232e-05
4.55453e-05
5.54125e-05
4.356e-05
5.31709e-05
4.55226e-05
5.54863e-05
4.36105e-05
4.80419e-05
5.25123e-05
6.0138e-05
5.85107e-05
5.24762e-05
5.84518e-05
4.80861e-05
4.56918e-05
5.3212e-05
5.55976e-05
4.37965e-05
5.55234e-05
4.37436e-05
4.57203e-05
4.55332e-05
5.54215e-05
4.35755e-05
5.31713e-05
4.55376e-05
5.54897e-05
4.35946e-05
4.80597e-05
5.25246e-05
6.01422e-05
5.85187e-05
5.84612e-05
5.24837e-05
4.80718e-05
4.79209e-05
5.83678e-05
5.23533e-05
6.01164e-05
4.7906e-05
5.84264e-05
5.23851e-05
4.57173e-05
5.32138e-05
5.56001e-05
4.37964e-05
5.55333e-05
4.37527e-05
4.57135e-05
5.94438e-05
4.15793e-05
5.03188e-05
5.03169e-05
5.03588e-05
5.94106e-05
5.03573e-05
4.8061e-05
5.2514e-05
6.01438e-05
5.85192e-05
5.24886e-05
5.8461e-05
4.80723e-05
4.571e-05
5.32161e-05
5.56001e-05
4.37756e-05
5.55334e-05
4.37599e-05
4.56992e-05
4.80554e-05
5.2511e-05
6.01412e-05
5.851e-05
5.8452e-05
5.24843e-05
4.80671e-05
4.57065e-05
5.32136e-05
4.37745e-05
5.55964e-05
4.37582e-05
5.55255e-05
4.56938e-05
4.55571e-05
5.54199e-05
4.35656e-05
5.3175e-05
4.55176e-05
5.54935e-05
4.36146e-05
4.80463e-05
5.252e-05
6.01415e-05
5.85189e-05
5.24783e-05
5.84603e-05
4.80923e-05
4.79327e-05
5.83669e-05
5.23477e-05
6.01108e-05
4.78943e-05
5.23874e-05
5.84261e-05
4.56999e-05
5.32165e-05
5.5605e-05
4.38014e-05
5.55306e-05
4.37485e-05
4.57272e-05
4.55315e-05
4.35633e-05
5.54194e-05
5.3173e-05
4.55362e-05
4.36129e-05
5.54878e-05
4.80583e-05
5.25136e-05
6.01395e-05
5.85129e-05
5.8455e-05
5.24834e-05
4.80701e-05
4.79198e-05
5.83617e-05
5.23517e-05
6.01123e-05
4.79053e-05
5.84204e-05
5.2382e-05
4.57175e-05
5.32157e-05
4.37995e-05
5.55995e-05
4.3748e-05
5.55294e-05
4.57064e-05
4.55517e-05
4.35681e-05
5.54176e-05
5.31748e-05
4.55195e-05
4.36129e-05
5.5491e-05
4.80517e-05
5.25135e-05
6.01407e-05
5.85141e-05
5.24825e-05
5.84553e-05
4.80678e-05
4.79308e-05
5.8421e-05
4.56936e-05
5.32175e-05
4.3776e-05
5.56016e-05
4.37565e-05
5.55284e-05
4.57072e-05
4.55527e-05
4.35657e-05
5.54195e-05
5.3175e-05
4.55255e-05
4.3616e-05
5.54935e-05
4.80469e-05
5.25275e-05
6.0144e-05
5.8519e-05
5.84608e-05
5.248e-05
4.80935e-05
4.79341e-05
5.83673e-05
5.23488e-05
6.01182e-05
4.78948e-05
5.84263e-05
5.23936e-05
4.56958e-05
5.32181e-05
4.38017e-05
5.56043e-05
4.37505e-05
5.55306e-05
4.57266e-05
5.94469e-05
4.15833e-05
5.03254e-05
5.03294e-05
5.94146e-05
5.03571e-05
5.03624e-05
3.83834e-05
5.11084e-05
5.11084e-05
5.32889e-05
5.34855e-05
5.32891e-05
5.3441e-05
5.11055e-05
5.11064e-05
5.12917e-05
5.12926e-05
5.33004e-05
5.34311e-05
5.11055e-05
5.1105e-05
5.12915e-05
5.12911e-05
5.11075e-05
5.12946e-05
5.12935e-05
5.32995e-05
5.3432e-05
5.11074e-05
5.12946e-05
5.12934e-05
5.3441e-05
5.13535e-05
5.13535e-05
6.85092e-05
7.33549e-05
7.33794e-05
6.84829e-05
7.11148e-05
7.1141e-05
6.85139e-05
7.33593e-05
7.33857e-05
6.84852e-05
3.83845e-05
3.83871e-05
3.83876e-05
3.86989e-05
3.87e-05
3.87026e-05
3.8703e-05
6.0522e-05
6.46918e-05
4.63271e-05
5.11716e-05
6.47227e-05
4.64068e-05
6.04767e-05
7.11134e-05
7.11396e-05
6.05214e-05
4.6328e-05
6.46928e-05
5.11716e-05
4.64077e-05
6.47238e-05
6.04728e-05
6.98617e-05
6.98728e-05
5.33434e-05
6.98799e-05
6.98916e-05
6.9917e-05
6.99281e-05
7.11129e-05
7.11389e-05
7.11153e-05
7.11414e-05
6.98623e-05
6.98714e-05
5.33434e-05
6.98807e-05
6.98907e-05
7.11663e-05
7.11407e-05
7.11688e-05
7.1143e-05
5.33874e-05
6.99081e-05
6.9918e-05
6.98906e-05
6.98997e-05
6.85113e-05
7.33586e-05
7.33852e-05
6.8485e-05
6.05189e-05
6.46906e-05
4.63235e-05
5.11687e-05
6.47212e-05
4.64032e-05
6.04738e-05
6.05203e-05
6.46948e-05
4.63249e-05
5.11696e-05
6.47253e-05
4.64046e-05
6.04753e-05
6.85151e-05
7.34094e-05
7.33848e-05
6.85401e-05
6.85172e-05
7.34146e-05
7.33888e-05
6.85422e-05
6.05306e-05
5.12312e-05
6.47571e-05
4.65583e-05
6.47279e-05
4.64821e-05
6.05727e-05
6.05321e-05
5.12322e-05
6.47612e-05
4.65597e-05
6.47321e-05
4.64835e-05
6.05742e-05
6.98713e-05
6.98599e-05
5.33339e-05
6.98905e-05
6.98781e-05
7.11113e-05
7.11376e-05
7.11684e-05
7.11426e-05
5.33986e-05
6.9918e-05
6.99055e-05
6.98996e-05
6.98874e-05
7.1165e-05
7.1139e-05
6.05226e-05
6.46941e-05
4.63255e-05
5.11685e-05
6.47252e-05
4.64052e-05
6.04737e-05
6.85119e-05
7.3355e-05
7.33796e-05
6.84834e-05
6.05208e-05
4.63255e-05
6.46892e-05
5.11682e-05
4.64051e-05
6.47196e-05
6.04718e-05
6.85176e-05
7.34153e-05
7.33894e-05
6.8545e-05
6.05305e-05
5.12312e-05
6.47609e-05
4.65603e-05
6.47314e-05
4.64841e-05
6.05766e-05
6.85156e-05
7.34092e-05
7.33851e-05
6.8543e-05
6.05287e-05
5.12307e-05
4.65601e-05
6.47554e-05
4.6484e-05
6.47265e-05
6.05748e-05
6.85128e-05
7.3358e-05
7.33845e-05
6.84846e-05
6.05201e-05
4.6327e-05
6.46904e-05
5.11707e-05
4.64066e-05
6.47213e-05
6.04751e-05
6.85102e-05
7.33561e-05
7.33806e-05
6.84839e-05
6.05319e-05
5.12342e-05
6.47584e-05
4.65618e-05
6.4729e-05
4.64856e-05
6.05769e-05
6.85168e-05
7.34139e-05
7.33881e-05
6.85438e-05
6.05318e-05
5.12332e-05
4.65615e-05
6.47571e-05
4.64854e-05
6.47277e-05
6.05739e-05
6.85161e-05
7.34103e-05
7.33861e-05
6.85411e-05
6.98657e-05
6.98623e-05
5.33332e-05
6.98833e-05
6.98817e-05
7.11139e-05
7.114e-05
7.11671e-05
7.11412e-05
5.33977e-05
6.99106e-05
6.99089e-05
6.9894e-05
6.98906e-05
7.11675e-05
7.11417e-05
6.05226e-05
4.63283e-05
6.46955e-05
5.11706e-05
4.64078e-05
6.47267e-05
6.04738e-05
6.85104e-05
7.33564e-05
7.33828e-05
6.84825e-05
6.85128e-05
7.33592e-05
7.33857e-05
6.84847e-05
6.05296e-05
5.12342e-05
4.65626e-05
6.47597e-05
4.64865e-05
6.473e-05
6.05753e-05
6.05306e-05
5.12331e-05
4.65628e-05
6.47625e-05
4.64867e-05
6.47329e-05
6.05765e-05
6.85147e-05
7.34122e-05
7.33864e-05
6.85413e-05
6.8517e-05
7.34153e-05
7.33893e-05
6.85437e-05
7.11132e-05
7.11392e-05
7.1116e-05
7.11421e-05
5.33874e-05
6.99073e-05
6.9919e-05
6.989e-05
6.99011e-05
7.11667e-05
7.1141e-05
7.11695e-05
7.11437e-05
4.66371e-05
6.47631e-05
6.05855e-05
7.34157e-05
6.85469e-05
6.47684e-05
7.34188e-05
7.11683e-05
7.11711e-05
7.17877e-05
7.15691e-05
7.15369e-05
6.84993e-05
7.15565e-05
7.15279e-05
7.18011e-05
7.16285e-05
7.33645e-05
7.96983e-05
7.97016e-05
7.16135e-05
7.1627e-05
7.97147e-05
7.33699e-05
7.97115e-05
7.1642e-05
7.17868e-05
6.84933e-05
7.15419e-05
7.1513e-05
7.15542e-05
7.15223e-05
7.17729e-05
7.11271e-05
7.11287e-05
7.17912e-05
7.1544e-05
7.15705e-05
6.85014e-05
7.15348e-05
7.15595e-05
7.18036e-05
7.16304e-05
7.33708e-05
7.9715e-05
7.97233e-05
7.16158e-05
7.16294e-05
7.97366e-05
7.33744e-05
7.97281e-05
7.16439e-05
7.17891e-05
6.84977e-05
7.152e-05
7.15452e-05
7.15294e-05
7.1555e-05
7.1776e-05
7.11258e-05
7.11273e-05
9.49266e-05
7.34526e-05
7.34462e-05
7.34389e-05
7.34326e-05
9.49296e-05
7.40729e-05
6.51179e-05
6.98657e-05
7.31898e-05
6.51316e-05
7.31991e-05
7.40684e-05
7.41217e-05
6.51265e-05
6.98774e-05
7.31986e-05
6.51412e-05
7.32111e-05
7.41162e-05
7.40858e-05
7.32135e-05
6.9876e-05
6.51547e-05
6.51413e-05
7.32042e-05
7.40901e-05
7.41336e-05
7.32254e-05
6.9887e-05
6.51644e-05
6.51499e-05
7.32132e-05
7.41388e-05
9.49149e-05
7.34261e-05
7.34198e-05
7.34399e-05
7.34335e-05
9.49118e-05
7.41398e-05
6.52079e-05
7.32469e-05
6.9921e-05
7.41349e-05
6.52203e-05
7.32567e-05
7.41878e-05
6.52166e-05
7.32557e-05
6.99324e-05
7.41826e-05
6.52299e-05
7.32684e-05
9.49723e-05
7.34768e-05
7.34705e-05
9.49696e-05
7.34904e-05
7.3484e-05
7.1125e-05
7.11268e-05
7.11275e-05
7.11292e-05
9.49262e-05
7.34527e-05
7.34459e-05
7.3439e-05
7.34322e-05
9.49291e-05
7.40754e-05
6.51182e-05
6.98664e-05
7.31903e-05
7.31997e-05
6.51331e-05
7.40697e-05
7.41213e-05
6.51259e-05
6.98765e-05
7.3198e-05
7.32105e-05
6.51405e-05
7.41153e-05
7.40871e-05
7.32141e-05
6.98766e-05
6.51562e-05
7.32048e-05
7.40925e-05
6.51416e-05
7.41326e-05
7.3225e-05
6.98858e-05
6.51636e-05
7.32126e-05
7.41382e-05
6.51494e-05
9.49144e-05
7.34262e-05
7.34194e-05
7.34399e-05
7.34331e-05
9.49115e-05
7.11544e-05
7.11527e-05
7.11568e-05
7.11552e-05
9.49435e-05
7.34517e-05
7.3445e-05
9.49408e-05
7.34653e-05
7.34586e-05
7.41205e-05
6.52003e-05
6.99043e-05
7.32427e-05
7.32337e-05
6.51867e-05
7.41248e-05
7.41657e-05
6.52078e-05
6.99134e-05
7.32534e-05
7.32412e-05
6.51944e-05
7.41711e-05
7.41087e-05
7.32195e-05
6.51644e-05
6.98944e-05
7.4104e-05
7.32288e-05
6.51785e-05
7.41551e-05
7.32271e-05
6.51722e-05
6.99043e-05
7.41494e-05
7.32393e-05
6.51859e-05
9.4955e-05
7.34779e-05
7.34712e-05
7.34644e-05
7.34576e-05
9.49577e-05
7.17899e-05
7.15683e-05
7.15445e-05
6.85014e-05
7.15588e-05
7.15355e-05
7.18037e-05
7.16302e-05
7.33702e-05
7.97168e-05
7.9725e-05
7.16156e-05
7.16292e-05
7.97382e-05
7.33737e-05
7.973e-05
7.16437e-05
7.17891e-05
6.84953e-05
7.15439e-05
7.15206e-05
7.15535e-05
7.153e-05
7.17751e-05
7.18152e-05
7.15716e-05
7.15424e-05
6.8525e-05
7.18035e-05
7.15842e-05
7.15514e-05
7.16539e-05
7.33995e-05
7.97402e-05
7.16687e-05
7.97373e-05
7.16554e-05
7.97246e-05
7.33945e-05
7.16405e-05
7.97277e-05
7.18183e-05
6.85307e-05
7.15988e-05
7.15654e-05
7.1829e-05
7.15864e-05
7.15567e-05
7.18183e-05
7.15737e-05
7.15501e-05
6.85271e-05
7.18046e-05
7.15834e-05
7.15591e-05
7.1656e-05
7.34035e-05
7.97637e-05
7.97559e-05
7.16705e-05
7.16571e-05
7.9743e-05
7.33999e-05
7.16426e-05
7.97511e-05
7.1819e-05
6.85327e-05
7.1598e-05
7.15732e-05
7.15886e-05
7.15643e-05
7.18327e-05
9.49246e-05
7.34459e-05
7.34517e-05
7.34322e-05
7.3438e-05
9.49271e-05
7.412e-05
6.51259e-05
6.98763e-05
7.31979e-05
7.32104e-05
6.51391e-05
7.41161e-05
7.40737e-05
6.51198e-05
6.98638e-05
7.31892e-05
6.51319e-05
7.31985e-05
7.40697e-05
7.41333e-05
7.32248e-05
6.98856e-05
6.51622e-05
7.32125e-05
6.51493e-05
7.41372e-05
7.40868e-05
7.32132e-05
6.98735e-05
6.51551e-05
6.51432e-05
7.32035e-05
7.40909e-05
9.49125e-05
7.34194e-05
7.34252e-05
7.34332e-05
7.34389e-05
9.49098e-05
7.11237e-05
7.11252e-05
7.11563e-05
7.11547e-05
9.49415e-05
7.34449e-05
7.34507e-05
9.49392e-05
7.34586e-05
7.34644e-05
7.41664e-05
6.52065e-05
6.99132e-05
7.32532e-05
6.51942e-05
7.3241e-05
7.41702e-05
7.41199e-05
6.51993e-05
6.99009e-05
7.32427e-05
7.32306e-05
6.51882e-05
7.41239e-05
7.41538e-05
7.3227e-05
6.5172e-05
6.99043e-05
6.51846e-05
7.415e-05
7.32391e-05
7.41075e-05
7.32179e-05
6.51659e-05
6.98919e-05
7.41036e-05
7.32281e-05
6.51774e-05
9.49535e-05
7.34712e-05
7.3477e-05
7.34576e-05
7.34633e-05
9.49557e-05
7.11527e-05
7.11513e-05
7.17882e-05
7.15703e-05
7.15377e-05
6.84995e-05
7.15578e-05
7.15261e-05
7.18023e-05
7.1628e-05
7.33646e-05
7.96964e-05
7.97005e-05
7.1613e-05
7.16266e-05
7.97137e-05
7.337e-05
7.97095e-05
7.16416e-05
7.17877e-05
6.84958e-05
7.15432e-05
7.15113e-05
7.15554e-05
7.1523e-05
7.17734e-05
7.18174e-05
7.15494e-05
7.15736e-05
6.85296e-05
7.18069e-05
7.15585e-05
7.15858e-05
7.16562e-05
7.34041e-05
7.97621e-05
7.16706e-05
7.97539e-05
7.16573e-05
7.97411e-05
7.34005e-05
7.16428e-05
7.97494e-05
7.18215e-05
6.85332e-05
7.15731e-05
7.16009e-05
7.18313e-05
7.15629e-05
7.15886e-05
7.18168e-05
7.15729e-05
7.15408e-05
6.85277e-05
7.18028e-05
7.15853e-05
7.15522e-05
7.16534e-05
7.33999e-05
7.97394e-05
7.97352e-05
7.16683e-05
7.1655e-05
7.97226e-05
7.33946e-05
7.16401e-05
7.97267e-05
7.18174e-05
6.85313e-05
7.16002e-05
7.15663e-05
7.15878e-05
7.15552e-05
7.18309e-05
7.17904e-05
7.15457e-05
7.15705e-05
6.85008e-05
7.15333e-05
7.15579e-05
7.18042e-05
7.16301e-05
7.33696e-05
7.97144e-05
7.97231e-05
7.16155e-05
7.16291e-05
7.97362e-05
7.33731e-05
7.97277e-05
7.16436e-05
7.17896e-05
6.84968e-05
7.15187e-05
7.15433e-05
7.1531e-05
7.15556e-05
7.17755e-05
7.17913e-05
7.15694e-05
7.15386e-05
6.85002e-05
7.15583e-05
7.15297e-05
7.18007e-05
7.16288e-05
7.33657e-05
7.96963e-05
7.97045e-05
7.16143e-05
7.16278e-05
7.97176e-05
7.33711e-05
7.97095e-05
7.16423e-05
7.17862e-05
6.84942e-05
7.15441e-05
7.15148e-05
7.15539e-05
7.15241e-05
7.17766e-05
7.18187e-05
7.15481e-05
7.1573e-05
6.85285e-05
7.1805e-05
7.15601e-05
7.15855e-05
7.16559e-05
7.34028e-05
7.97616e-05
7.97535e-05
7.16704e-05
7.1657e-05
7.97406e-05
7.33992e-05
7.16425e-05
7.9749e-05
7.18193e-05
6.85324e-05
7.15744e-05
7.16005e-05
7.15624e-05
7.15879e-05
7.18331e-05
7.18152e-05
7.15724e-05
7.15442e-05
6.8526e-05
7.18057e-05
7.15848e-05
7.15532e-05
7.16547e-05
7.3401e-05
7.97432e-05
7.97354e-05
7.16691e-05
7.16558e-05
7.97225e-05
7.33957e-05
7.16413e-05
7.97306e-05
7.18204e-05
6.85316e-05
7.15999e-05
7.15672e-05
7.15874e-05
7.15585e-05
7.18297e-05
9.49287e-05
7.34461e-05
7.34527e-05
7.34324e-05
7.3439e-05
9.49318e-05
7.41208e-05
6.51246e-05
6.9869e-05
7.31961e-05
7.32088e-05
6.51361e-05
7.4115e-05
7.40752e-05
6.51199e-05
6.98674e-05
7.31888e-05
6.51343e-05
7.32012e-05
7.40709e-05
7.41323e-05
7.32232e-05
6.988e-05
6.51593e-05
7.32107e-05
6.5148e-05
7.41377e-05
7.40883e-05
7.32155e-05
6.98767e-05
6.51575e-05
6.51433e-05
7.32038e-05
7.40925e-05
9.49171e-05
7.34196e-05
7.34262e-05
7.34334e-05
7.344e-05
9.49139e-05
7.11262e-05
7.11278e-05
7.11549e-05
7.11534e-05
9.49462e-05
7.34451e-05
7.34518e-05
9.49433e-05
7.34588e-05
7.34654e-05
7.41656e-05
6.52035e-05
6.99077e-05
7.32516e-05
6.51929e-05
7.32393e-05
7.41707e-05
7.41217e-05
6.52018e-05
6.99044e-05
7.32428e-05
7.32336e-05
6.51883e-05
7.41255e-05
7.41544e-05
7.32253e-05
6.51708e-05
6.98972e-05
6.51816e-05
7.41491e-05
7.32376e-05
7.41092e-05
7.32186e-05
6.51661e-05
6.98953e-05
7.41052e-05
7.32291e-05
6.51798e-05
9.49577e-05
7.34714e-05
7.3478e-05
7.34578e-05
7.34644e-05
9.49604e-05
7.11554e-05
7.11538e-05
7.17888e-05
7.15387e-05
7.15687e-05
6.84987e-05
7.15268e-05
7.15593e-05
7.18029e-05
7.16299e-05
7.33679e-05
7.96973e-05
7.97058e-05
7.16153e-05
7.16289e-05
7.97189e-05
7.33714e-05
7.97105e-05
7.16434e-05
7.17883e-05
6.84943e-05
7.15122e-05
7.15444e-05
7.1524e-05
7.1554e-05
7.17741e-05
7.17899e-05
7.15422e-05
7.15693e-05
6.8501e-05
7.15309e-05
7.15599e-05
7.1803e-05
7.16294e-05
7.33708e-05
7.97136e-05
7.9718e-05
7.16143e-05
7.16279e-05
7.97312e-05
7.33744e-05
7.9727e-05
7.1643e-05
7.1788e-05
6.84968e-05
7.15161e-05
7.1545e-05
7.15275e-05
7.15545e-05
7.17762e-05
7.18174e-05
7.15416e-05
7.15741e-05
6.8526e-05
7.18034e-05
7.15532e-05
7.15838e-05
7.16557e-05
7.34011e-05
7.97444e-05
7.97362e-05
7.16701e-05
7.16568e-05
7.97235e-05
7.33975e-05
7.16423e-05
7.97318e-05
7.18178e-05
6.85302e-05
7.15671e-05
7.15985e-05
7.15558e-05
7.1589e-05
7.18318e-05
7.18177e-05
7.15456e-05
7.15747e-05
6.85285e-05
7.18039e-05
7.15567e-05
7.15844e-05
7.16548e-05
7.34041e-05
7.97568e-05
7.97528e-05
7.16697e-05
7.16564e-05
7.974e-05
7.34005e-05
7.16414e-05
7.9744e-05
7.18181e-05
6.85325e-05
7.15707e-05
7.15992e-05
7.15599e-05
7.15896e-05
7.18322e-05
7.11254e-05
7.11272e-05
7.11282e-05
7.11299e-05
9.4944e-05
7.34516e-05
7.34453e-05
9.49412e-05
7.34653e-05
7.34589e-05
7.41192e-05
6.51989e-05
6.99037e-05
7.32422e-05
7.41232e-05
6.51863e-05
7.3233e-05
7.41667e-05
6.52085e-05
6.99147e-05
7.32538e-05
7.41717e-05
6.5195e-05
7.32418e-05
7.41068e-05
7.32188e-05
6.5164e-05
6.98937e-05
7.41027e-05
6.51771e-05
7.32281e-05
7.41555e-05
7.32277e-05
6.51727e-05
6.99055e-05
7.41503e-05
6.51867e-05
7.32396e-05
9.49555e-05
7.34779e-05
7.34715e-05
9.49582e-05
7.34643e-05
7.34579e-05
7.11547e-05
7.1153e-05
7.11575e-05
7.11559e-05
7.16823e-05
7.9748e-05
7.34246e-05
7.1668e-05
7.97555e-05
7.18436e-05
6.85558e-05
7.16019e-05
7.15726e-05
7.18346e-05
7.16146e-05
7.15807e-05
7.343e-05
7.11802e-05
7.11831e-05
3.12668e-05
3.12656e-05
3.849e-05
3.13971e-05
3.13961e-05
2.22601e-05
2.21088e-05
6.58133e-05
5.93022e-05
5.93036e-05
5.32937e-05
5.93072e-05
5.93086e-05
6.58057e-05
6.59094e-05
5.94416e-05
5.94421e-05
5.3489e-05
6.59031e-05
5.94463e-05
5.94479e-05
6.58146e-05
5.93028e-05
5.93019e-05
5.32939e-05
5.93077e-05
5.93094e-05
6.58065e-05
6.58803e-05
5.34371e-05
5.94117e-05
5.94127e-05
5.94079e-05
5.94089e-05
6.58877e-05
6.58131e-05
5.93063e-05
5.93066e-05
5.32844e-05
5.9306e-05
5.93054e-05
6.5808e-05
6.58814e-05
5.34485e-05
5.94098e-05
5.9412e-05
5.94103e-05
5.94124e-05
6.58865e-05
6.58125e-05
5.9303e-05
5.93056e-05
5.32836e-05
5.93056e-05
5.93024e-05
6.58071e-05
6.58807e-05
5.34473e-05
5.94064e-05
5.94105e-05
5.94089e-05
5.94108e-05
6.58857e-05
6.58799e-05
5.34372e-05
5.94123e-05
5.94129e-05
6.58858e-05
5.94055e-05
5.9408e-05
3.12673e-05
3.12662e-05
3.84911e-05
3.13977e-05
3.13966e-05
2.22602e-05
2.21088e-05
3.12708e-05
3.12699e-05
3.84937e-05
3.14012e-05
3.14002e-05
2.2264e-05
2.21127e-05
3.12712e-05
3.12698e-05
3.84942e-05
3.14016e-05
3.14001e-05
2.2264e-05
2.21126e-05
3.85958e-05
3.16535e-05
3.16524e-05
3.15266e-05
3.15254e-05
2.24112e-05
2.25609e-05
3.85969e-05
3.1654e-05
3.16529e-05
3.15271e-05
3.1526e-05
2.24112e-05
2.25609e-05
3.85995e-05
3.16574e-05
3.16564e-05
3.15306e-05
3.15296e-05
2.24151e-05
2.25647e-05
3.85999e-05
3.16579e-05
3.16563e-05
3.15309e-05
3.15295e-05
2.2415e-05
2.25647e-05
5.61413e-05
6.22265e-05
5.48421e-05
6.05053e-05
6.22084e-05
5.48548e-05
5.61328e-05
5.72147e-05
6.02238e-05
6.47041e-05
6.40851e-05
6.02328e-05
6.40994e-05
5.72138e-05
5.72499e-05
6.4122e-05
6.47106e-05
6.02631e-05
6.02547e-05
6.41077e-05
5.72517e-05
5.60911e-05
6.04936e-05
6.21846e-05
5.48079e-05
6.21999e-05
5.47963e-05
5.60995e-05
5.61376e-05
5.48494e-05
6.2223e-05
6.05015e-05
5.48447e-05
6.22038e-05
5.61327e-05
5.72126e-05
6.02243e-05
6.47053e-05
6.408e-05
6.02333e-05
6.40944e-05
5.72089e-05
5.72455e-05
6.41167e-05
6.47116e-05
6.02635e-05
6.0255e-05
6.41024e-05
5.72487e-05
5.60906e-05
6.04929e-05
5.47983e-05
6.21781e-05
5.48033e-05
6.21972e-05
5.60955e-05
6.58312e-05
5.33393e-05
5.93422e-05
5.93437e-05
5.93374e-05
5.93388e-05
6.58379e-05
6.5832e-05
5.33394e-05
5.93443e-05
5.93442e-05
6.58395e-05
5.9337e-05
5.93397e-05
6.58638e-05
5.33914e-05
5.9372e-05
5.93727e-05
6.58564e-05
5.93776e-05
5.93788e-05
5.61368e-05
6.22188e-05
5.48392e-05
6.05028e-05
6.22046e-05
5.48522e-05
5.6125e-05
5.72026e-05
6.02251e-05
6.47026e-05
6.40785e-05
6.40906e-05
6.02265e-05
5.72129e-05
5.72489e-05
6.4113e-05
6.47095e-05
6.0257e-05
6.4101e-05
6.02556e-05
5.72391e-05
5.60831e-05
6.04906e-05
6.21786e-05
5.48051e-05
6.21932e-05
5.47933e-05
5.6095e-05
5.61407e-05
6.22243e-05
5.48402e-05
6.05042e-05
6.22099e-05
5.48533e-05
5.61303e-05
5.72059e-05
6.02279e-05
6.47067e-05
6.40865e-05
6.40985e-05
6.02289e-05
5.72164e-05
5.72526e-05
6.4121e-05
6.47137e-05
6.02594e-05
6.4109e-05
5.72424e-05
6.02585e-05
5.60887e-05
6.04921e-05
6.21839e-05
5.48065e-05
6.21986e-05
5.47946e-05
5.60988e-05
5.61667e-05
6.22301e-05
5.48948e-05
6.05463e-05
5.61779e-05
6.22442e-05
5.48821e-05
5.73205e-05
6.03148e-05
6.47457e-05
6.41564e-05
6.03146e-05
6.41447e-05
5.731e-05
5.72743e-05
6.41233e-05
6.0285e-05
6.47393e-05
6.02865e-05
5.72851e-05
6.4135e-05
5.6218e-05
6.05577e-05
6.22687e-05
5.49235e-05
6.22549e-05
5.49379e-05
5.62068e-05
5.61713e-05
6.22355e-05
5.48962e-05
6.05479e-05
5.61816e-05
6.22497e-05
5.48834e-05
5.73242e-05
6.03173e-05
6.47501e-05
6.41643e-05
6.41529e-05
6.03178e-05
5.73135e-05
5.72777e-05
6.41312e-05
6.0288e-05
6.47435e-05
5.72888e-05
6.4143e-05
6.02888e-05
5.62216e-05
6.05592e-05
6.22741e-05
5.49247e-05
6.22604e-05
5.49391e-05
5.62111e-05
6.58332e-05
5.33499e-05
5.93394e-05
5.93415e-05
5.93424e-05
5.934e-05
6.58382e-05
6.58625e-05
5.33837e-05
5.93761e-05
5.93778e-05
5.93754e-05
6.58577e-05
5.93772e-05
5.61395e-05
6.22245e-05
5.48489e-05
6.05024e-05
6.22085e-05
5.48446e-05
5.61316e-05
5.72056e-05
6.02244e-05
6.47066e-05
6.40858e-05
6.40981e-05
6.0233e-05
5.7216e-05
5.72522e-05
6.41206e-05
6.47129e-05
6.02633e-05
6.4108e-05
6.02552e-05
5.72425e-05
5.60895e-05
6.04941e-05
6.21834e-05
5.47987e-05
6.21983e-05
5.48028e-05
5.60977e-05
5.61342e-05
5.48475e-05
6.22206e-05
6.05006e-05
5.48429e-05
6.22011e-05
5.61292e-05
5.72074e-05
6.02203e-05
6.4701e-05
6.40754e-05
6.40896e-05
6.02293e-05
5.72037e-05
5.72404e-05
6.4112e-05
6.4708e-05
6.02595e-05
6.40979e-05
5.72437e-05
6.02511e-05
5.6087e-05
6.04923e-05
5.47968e-05
6.21754e-05
5.48015e-05
6.21948e-05
5.60919e-05
5.61727e-05
6.22326e-05
5.48879e-05
6.05499e-05
5.61801e-05
6.22503e-05
5.4892e-05
5.73203e-05
6.03217e-05
6.47493e-05
6.41642e-05
6.0314e-05
6.41508e-05
5.7321e-05
5.72833e-05
6.41294e-05
6.02844e-05
6.47432e-05
6.02924e-05
5.72863e-05
6.41427e-05
5.62198e-05
6.05578e-05
6.22757e-05
5.4935e-05
6.22567e-05
5.49312e-05
5.62127e-05
5.61698e-05
5.48862e-05
6.22269e-05
6.05482e-05
5.61752e-05
5.48904e-05
6.22458e-05
5.7312e-05
6.03176e-05
6.47444e-05
6.41551e-05
6.41419e-05
6.031e-05
5.73151e-05
5.72799e-05
6.41202e-05
6.02805e-05
6.47377e-05
5.72769e-05
6.41338e-05
6.02883e-05
5.6215e-05
6.05561e-05
5.49334e-05
6.22705e-05
5.49295e-05
6.22519e-05
5.62094e-05
5.61389e-05
5.48408e-05
6.22203e-05
6.0504e-05
5.48537e-05
6.22061e-05
5.61262e-05
5.72036e-05
6.02252e-05
6.47027e-05
6.40793e-05
6.02264e-05
6.40915e-05
5.7214e-05
5.725e-05
6.41139e-05
6.47093e-05
6.02569e-05
6.02557e-05
6.41019e-05
5.72399e-05
5.60845e-05
6.04919e-05
5.4807e-05
6.21803e-05
5.47952e-05
6.21947e-05
5.60973e-05
5.61741e-05
6.22332e-05
5.48972e-05
6.05499e-05
5.61821e-05
6.22522e-05
5.48856e-05
5.732e-05
6.03202e-05
6.4747e-05
6.41651e-05
5.73227e-05
6.0315e-05
6.41516e-05
5.72878e-05
6.41299e-05
6.02841e-05
6.47407e-05
5.72854e-05
6.02919e-05
6.41437e-05
5.62216e-05
6.05581e-05
6.2277e-05
5.49336e-05
5.62141e-05
6.22585e-05
5.49374e-05
5.61681e-05
5.48965e-05
6.22316e-05
6.05476e-05
5.61798e-05
5.48839e-05
6.22458e-05
5.73216e-05
6.03147e-05
6.47457e-05
6.41572e-05
6.41457e-05
6.03147e-05
5.73108e-05
5.72751e-05
6.4124e-05
6.02851e-05
6.47394e-05
5.72861e-05
6.41359e-05
6.02864e-05
5.62199e-05
6.05588e-05
5.49253e-05
6.22702e-05
5.49391e-05
6.22565e-05
5.62083e-05
6.58322e-05
5.33491e-05
5.93377e-05
5.93417e-05
5.93417e-05
5.93389e-05
6.58375e-05
6.58621e-05
5.33832e-05
5.93745e-05
5.93765e-05
5.93733e-05
6.58568e-05
5.93772e-05
5.61385e-05
5.485e-05
6.22252e-05
6.05025e-05
5.48454e-05
6.2206e-05
5.61336e-05
5.72129e-05
6.02256e-05
6.47081e-05
6.40842e-05
6.02347e-05
6.40977e-05
5.72092e-05
5.72459e-05
6.41201e-05
6.47144e-05
6.02649e-05
6.02564e-05
6.41066e-05
5.72492e-05
5.60915e-05
6.04942e-05
5.47992e-05
6.21802e-05
5.48041e-05
6.21994e-05
5.60963e-05
5.61731e-05
5.48881e-05
6.22295e-05
6.05488e-05
5.61785e-05
5.48923e-05
6.22482e-05
5.73169e-05
6.03216e-05
6.47478e-05
6.41598e-05
5.73199e-05
6.03139e-05
6.41461e-05
5.72848e-05
6.41246e-05
6.02845e-05
6.4742e-05
5.72819e-05
6.02923e-05
6.41385e-05
5.62182e-05
6.05567e-05
5.49353e-05
6.22726e-05
5.62126e-05
5.49314e-05
6.22543e-05
5.61741e-05
5.48886e-05
6.22318e-05
6.05501e-05
5.61794e-05
5.48929e-05
6.22505e-05
5.73175e-05
6.0322e-05
6.47509e-05
6.41636e-05
6.41504e-05
6.03168e-05
5.73206e-05
5.72854e-05
6.4129e-05
6.02859e-05
6.47448e-05
5.72824e-05
6.41421e-05
6.02936e-05
5.62192e-05
6.05578e-05
5.49358e-05
6.22749e-05
5.49319e-05
6.22567e-05
5.62137e-05
6.58622e-05
5.33913e-05
5.93717e-05
5.93732e-05
6.58558e-05
5.93767e-05
5.93781e-05
5.73438e-05
6.03431e-05
6.41668e-05
6.47742e-05
6.03444e-05
5.73568e-05
6.41774e-05
5.62463e-05
6.05996e-05
5.49829e-05
6.2281e-05
5.49666e-05
5.62585e-05
6.22935e-05
6.03429e-05
6.47798e-05
6.03508e-05
2.10362e-05
3.66877e-05
3.66907e-05
4.19662e-05
2.17947e-05
3.75935e-05
3.75964e-05
4.2682e-05
2.25715e-05
3.84734e-05
3.84763e-05
4.33705e-05
2.33626e-05
3.93261e-05
3.9329e-05
4.40504e-05
2.41642e-05
4.01511e-05
4.01538e-05
4.46944e-05
2.49726e-05
4.09477e-05
4.09504e-05
4.53241e-05
2.57838e-05
4.17156e-05
4.17181e-05
4.59171e-05
2.65945e-05
4.24544e-05
4.24567e-05
4.6503e-05
2.74012e-05
4.31647e-05
4.31667e-05
4.70523e-05
2.82008e-05
4.3846e-05
4.38479e-05
4.75877e-05
2.89904e-05
4.44988e-05
4.45007e-05
4.80959e-05
2.97676e-05
4.51236e-05
4.51254e-05
4.85798e-05
3.05297e-05
4.57204e-05
4.57223e-05
4.90467e-05
3.12747e-05
4.62898e-05
4.62915e-05
4.94895e-05
3.20006e-05
4.68319e-05
4.68335e-05
4.99157e-05
3.27059e-05
4.73473e-05
4.73486e-05
5.03163e-05
3.33889e-05
4.7836e-05
4.78372e-05
5.07053e-05
3.40486e-05
4.82988e-05
4.82996e-05
5.10685e-05
3.46836e-05
4.87357e-05
4.87364e-05
5.14123e-05
3.52933e-05
4.91473e-05
4.91479e-05
5.17364e-05
3.58767e-05
4.95341e-05
4.95344e-05
5.20416e-05
3.64332e-05
4.98962e-05
4.98965e-05
5.23271e-05
3.69624e-05
5.02342e-05
5.02344e-05
5.26009e-05