/*--------------------------------*- C++ -*----------------------------------*\
| =========                 |                                                 |
| \\      /  F ield         | OpenFOAM: The Open Source CFD Toolbox           |
|  \\    /   O peration     | Version:  v1906                                 |
|   \\  /    A nd           | Web:      www.OpenFOAM.com                      |
|    \\/     M anipulation  |                                                 |
\*---------------------------------------------------------------------------*/
FoamFile
{
    version     2.0;
    format      ascii;
    class       volScalarField;
    location    "500";
    object      nut;
}
// * * * * * * * * * * * * * * * * * * * * * * * * * * * * * * * * * * * * * //

dimensions      [0 2 -1 0 0 0 0];


internalField   nonuniform List<scalar> 
171728
(
0.000136861
0.000138624
0.000138629
0.000136692
0.000138644
0.000138627
0.000138642
0.000138652
0.00013671
0.000138644
0.000138655
0.000136598
0.000122377
0.000122377
0.00012238
0.000122397
2.36123e-05
2.36118e-05
7.37297e-05
7.37351e-05
9.18255e-05
5.00169e-05
9.20625e-05
9.18329e-05
5.00161e-05
5.00072e-05
9.20578e-05
0.000120673
9.3827e-05
0.000133985
0.000133122
0.000121328
0.000120684
0.000137841
9.38378e-05
0.000133988
9.35349e-05
0.000133124
0.000121324
2.3612e-05
2.36076e-05
0.000135999
7.37335e-05
7.37241e-05
7.36295e-05
7.36274e-05
2.36126e-05
2.36082e-05
5.00135e-05
9.20555e-05
9.38203e-05
0.000133996
0.000121319
5.00099e-05
9.20532e-05
0.000133994
9.37976e-05
0.000121317
0.00012068
0.000137855
9.38248e-05
0.000133995
9.35363e-05
0.000133132
0.000121339
9.1832e-05
5.00185e-05
5.00064e-05
9.20637e-05
0.000120682
0.000137865
0.000134007
9.38147e-05
0.000133144
9.354e-05
0.000121333
9.18315e-05
5.00147e-05
5.00029e-05
9.20539e-05
2.36101e-05
7.37152e-05
7.37327e-05
2.36119e-05
0.000120681
0.000134007
9.38365e-05
0.000133146
0.000121332
0.000120681
0.000137868
0.000134014
9.38217e-05
0.000133151
9.35318e-05
0.000121334
9.18279e-05
5.00141e-05
9.2066e-05
9.18297e-05
5.00159e-05
5.00002e-05
9.20665e-05
0.000136045
7.37301e-05
7.37339e-05
7.36354e-05
7.36323e-05
2.36117e-05
2.36074e-05
2.36114e-05
2.36069e-05
2.36104e-05
2.36095e-05
9.72609e-05
0.000112669
7.3702e-05
4.79367e-05
4.79346e-05
0.000112502
9.731e-05
9.72914e-05
0.000112675
7.36956e-05
4.79331e-05
4.79287e-05
0.000112488
9.73492e-05
7.88222e-05
2.14921e-05
2.14902e-05
2.14904e-05
2.14878e-05
7.88385e-05
3.6268e-05
4.0533e-05
8.80181e-05
9.19319e-05
3.62644e-05
4.05394e-05
8.81129e-05
2.0102e-05
5.00101e-05
7.60349e-05
7.59905e-05
2.01041e-05
3.62676e-05
9.19463e-05
4.05442e-05
8.82121e-05
4.05365e-05
8.81176e-05
3.62717e-05
3.62688e-05
4.0537e-05
8.80403e-05
9.19308e-05
3.62674e-05
4.05361e-05
8.81192e-05
2.01031e-05
5.00148e-05
7.6058e-05
7.60177e-05
2.01051e-05
2.01037e-05
7.5969e-05
5.00094e-05
2.01017e-05
7.60134e-05
3.62711e-05
9.19507e-05
4.05397e-05
8.82149e-05
4.05409e-05
8.81428e-05
3.62726e-05
2.36099e-05
2.36097e-05
7.87953e-05
2.14864e-05
2.1489e-05
7.8777e-05
2.14885e-05
2.1491e-05
9.72763e-05
0.000112649
7.36955e-05
4.79301e-05
0.000112498
4.7929e-05
9.73242e-05
9.72623e-05
0.000112658
7.36955e-05
4.79379e-05
4.79369e-05
0.000112514
9.73107e-05
9.71996e-05
4.79208e-05
0.000112252
7.36654e-05
0.000112406
9.71506e-05
4.79228e-05
9.71856e-05
4.79286e-05
0.000112267
7.36567e-05
9.71351e-05
4.79306e-05
0.000112416
7.88206e-05
2.14901e-05
2.14927e-05
2.14881e-05
2.14906e-05
7.88379e-05
2.36105e-05
2.36103e-05
2.01034e-05
5.00115e-05
7.6059e-05
7.60142e-05
2.01054e-05
3.62711e-05
9.19614e-05
8.82176e-05
4.05392e-05
8.81411e-05
4.05407e-05
3.62723e-05
2.01016e-05
5.0007e-05
7.60303e-05
7.59884e-05
2.01037e-05
3.62683e-05
9.19556e-05
4.0539e-05
8.82026e-05
4.05405e-05
8.81206e-05
3.6269e-05
3.62702e-05
8.80343e-05
4.05364e-05
9.19336e-05
3.62669e-05
8.81293e-05
4.05355e-05
2.01038e-05
5.00099e-05
7.606e-05
7.60184e-05
2.01058e-05
2.01044e-05
7.59727e-05
5.0009e-05
2.01024e-05
7.6013e-05
3.62699e-05
9.19521e-05
8.82286e-05
4.05391e-05
8.81333e-05
4.05403e-05
3.62743e-05
3.6267e-05
4.05364e-05
8.80354e-05
9.19305e-05
3.6266e-05
4.05354e-05
8.81121e-05
2.01027e-05
5.00075e-05
7.60394e-05
7.59997e-05
2.01046e-05
2.01032e-05
7.59529e-05
5.00059e-05
2.01013e-05
7.59932e-05
3.62692e-05
9.19552e-05
4.0539e-05
8.8211e-05
4.05403e-05
8.81332e-05
3.62703e-05
2.3608e-05
9.72664e-05
0.00011265
7.36861e-05
4.79278e-05
0.000112491
4.79262e-05
9.73224e-05
9.72609e-05
0.000112679
7.37004e-05
4.794e-05
4.79374e-05
0.000112508
9.73122e-05
7.88188e-05
2.14891e-05
2.14926e-05
2.14871e-05
2.14905e-05
7.8843e-05
2.36098e-05
3.6269e-05
8.80255e-05
4.05324e-05
9.19427e-05
3.62643e-05
8.81198e-05
4.05394e-05
2.01028e-05
5.00071e-05
7.60425e-05
7.59963e-05
2.01048e-05
2.01034e-05
7.59957e-05
3.62673e-05
9.19535e-05
8.82202e-05
4.05438e-05
8.81259e-05
4.05364e-05
3.6273e-05
3.62703e-05
8.80317e-05
4.05324e-05
9.19438e-05
3.62662e-05
8.81252e-05
4.05395e-05
2.01034e-05
5.00074e-05
7.6054e-05
7.60106e-05
2.01055e-05
2.01041e-05
7.5964e-05
5.00079e-05
2.0102e-05
7.60078e-05
3.62693e-05
9.19556e-05
8.82208e-05
4.05439e-05
8.81307e-05
4.05365e-05
3.6274e-05
7.87968e-05
2.14891e-05
2.14862e-05
7.87783e-05
2.14911e-05
2.14882e-05
9.72587e-05
0.000112664
7.37033e-05
4.79406e-05
0.000112508
4.79357e-05
9.73175e-05
9.72758e-05
0.000112659
7.36987e-05
4.79314e-05
0.000112503
4.79271e-05
9.73314e-05
9.71904e-05
4.79293e-05
0.000112259
7.36627e-05
9.71327e-05
0.00011243
4.79318e-05
9.72071e-05
4.79169e-05
0.000112255
7.36658e-05
9.71498e-05
0.000112416
4.79252e-05
7.88228e-05
2.14928e-05
2.14899e-05
2.14907e-05
2.14878e-05
7.88401e-05
2.36096e-05
2.36094e-05
2.36092e-05
2.3609e-05
0.000119503
0.000136593
0.000129824
0.00012993
0.000129701
0.000129675
0.000119609
0.000119498
0.00013663
0.000129808
0.000129806
0.000129664
0.000129671
0.000119594
0.000119481
0.000136534
0.000129824
0.000129838
0.000129644
0.000129656
0.000119614
0.000119492
0.000136662
0.000129836
0.000129838
0.000129709
0.000129706
0.000119624
0.000120258
0.000120264
0.00011999
0.00013209
0.00013185
0.000121717
0.000120257
0.000120265
0.000119989
0.000119998
0.000132091
0.000131851
0.000120263
0.00012027
0.000120003
0.000132088
0.000131848
0.000121736
0.000120271
0.000120276
0.000120003
0.000120008
0.000132091
0.00013185
0.00013234
0.000117027
0.000134107
0.000120985
0.000132223
0.000117296
0.00013436
0.000128479
0.000122123
9.36822e-05
0.000107737
0.000121988
0.000107526
0.000128689
0.000132731
0.000121015
0.000117598
0.000134931
0.000117329
0.000134678
0.000132883
0.000132249
0.00011705
0.000134208
0.00012098
0.00013229
0.000117297
0.000134244
0.00012854
0.000122183
9.36844e-05
0.000107744
0.000107539
0.00012201
0.000128585
0.000128141
0.000107308
0.000121666
9.36673e-05
0.000128097
0.000107514
0.000121748
0.000132855
0.000121022
0.000117596
0.00013493
0.000117357
0.000134739
0.000132828
0.000119322
0.000136073
0.000129211
0.000129219
0.000129392
0.000119232
0.000129397
0.000128562
0.000122146
9.36858e-05
0.000107735
0.000122012
0.000107544
0.000128601
0.000132809
0.000121027
0.000117595
0.000134784
0.000117358
0.000134765
0.000132755
0.000128536
0.00012208
9.36789e-05
0.000107731
0.000107526
0.000122019
0.000128574
0.000132751
0.000121019
0.000134779
0.000117587
0.000134754
0.000117332
0.000132701
0.00013251
0.00011704
0.000134032
0.000120995
0.000132014
0.000117313
0.000134476
0.000128362
0.000122183
9.36914e-05
0.000107751
0.000121981
0.00010754
0.000128815
0.00012829
0.000107308
0.000121615
9.36661e-05
0.000127939
0.000121809
0.000107518
0.000132594
0.000121024
0.000117618
0.000135096
0.00011734
0.000134593
0.000133049
0.000132244
0.000134076
0.000117048
0.000120989
0.000132287
0.00013445
0.000117296
0.000128544
0.000122117
9.3691e-05
0.000107729
0.000107544
0.000122039
0.000128585
0.000128144
0.000107312
0.000121662
9.36614e-05
0.000128102
0.000107502
0.000121756
0.000132865
0.000121026
0.000135078
0.000117602
0.000134623
0.000117346
0.000132788
0.00013247
0.00013404
0.000117035
0.000120991
0.000132032
0.000134458
0.000117308
0.000128418
0.000122118
9.36834e-05
0.000107735
0.000122017
0.00010754
0.000128687
0.000128305
0.000107514
0.000132575
0.000121029
0.000134929
0.000117608
0.00013464
0.000117336
0.000132902
0.000132356
0.000134076
0.000117038
0.000120992
0.000132211
0.000134462
0.000117311
0.000128466
0.000122168
9.36871e-05
0.000107748
0.000107542
0.000121987
0.000128697
0.000128208
0.000107314
0.000121623
9.36683e-05
0.00012803
0.000107507
0.000121788
0.000132725
0.00012103
0.000135083
0.000117613
0.000134625
0.000117341
0.000132893
0.000119348
0.000136088
0.000129261
0.000129263
0.000119223
0.000129398
0.000129403
0.000203426
0.000198749
0.000198741
0.000180596
0.000181556
0.0001806
0.00018154
0.000198717
0.000198718
0.000199774
0.000199775
0.000180685
0.000181475
0.000198732
0.000198707
0.000199789
0.000199764
0.000198724
0.000199807
0.000199781
0.000180672
0.000181473
0.000198738
0.000199799
0.000199796
0.000181537
0.000200126
0.000200141
9.97138e-05
5.07153e-05
5.07218e-05
9.96508e-05
2.38792e-05
2.38836e-05
9.97241e-05
5.07098e-05
5.0721e-05
9.96556e-05
0.000203432
0.000203433
0.000203441
0.000205317
0.000205323
0.000205324
0.000205331
0.000143707
0.00010335
0.000207734
0.000199106
0.000103436
0.000208201
0.000143509
2.3877e-05
2.38814e-05
0.000143707
0.000207732
0.000103353
0.000199098
0.000208199
0.000103438
0.000143492
7.78119e-05
7.78098e-05
0.00018106
7.78373e-05
7.78368e-05
7.78747e-05
7.78727e-05
2.38799e-05
2.38842e-05
2.38785e-05
2.38829e-05
7.78145e-05
7.78086e-05
0.000181063
7.784e-05
7.78367e-05
2.38888e-05
2.38845e-05
2.38875e-05
2.38831e-05
0.000181073
7.78711e-05
7.78675e-05
7.78471e-05
7.78413e-05
9.9717e-05
5.07132e-05
5.07245e-05
9.96545e-05
0.000143697
0.000103352
0.000207719
0.000199074
0.000103436
0.000208186
0.000143503
0.0001437
0.00010335
0.000207722
0.000199075
0.000103434
0.000208189
0.000143506
9.97132e-05
5.07328e-05
5.07256e-05
9.97733e-05
9.97169e-05
5.0734e-05
5.07239e-05
9.97767e-05
0.00014372
0.000199427
0.000103515
0.000209105
0.000103434
0.00020865
0.000143903
0.000143723
0.000199429
0.000103513
0.000209108
0.000103433
0.000208653
0.000143907
7.78096e-05
7.78071e-05
0.000180999
7.78378e-05
7.78346e-05
2.38797e-05
2.38841e-05
2.38882e-05
2.38838e-05
0.000181158
7.7869e-05
7.78656e-05
7.7842e-05
7.78377e-05
2.38887e-05
2.38843e-05
0.000143708
0.000103342
0.000207724
0.000199088
0.000103429
0.000208187
0.000143494
9.97207e-05
5.07082e-05
5.07146e-05
9.96522e-05
0.000143704
0.000207719
0.000103331
0.000199063
0.000208185
0.000103416
0.000143489
9.97182e-05
5.07312e-05
5.07202e-05
9.97843e-05
0.00014371
0.000199443
0.000103507
0.000209105
0.000103424
0.000208655
0.000143915
9.97146e-05
5.07249e-05
5.07185e-05
9.97806e-05
0.000143706
0.000199417
0.000209104
0.000103494
0.00020865
0.000103413
0.000143912
9.97207e-05
5.07124e-05
5.07237e-05
9.96519e-05
0.000143701
0.000207731
0.000103349
0.000199081
0.000208198
0.000103434
0.000143508
9.97153e-05
5.07114e-05
5.07179e-05
9.96525e-05
0.000143718
0.00019946
0.000103515
0.00020912
0.000103432
0.000208665
0.000143919
9.97142e-05
5.07333e-05
5.07229e-05
9.97805e-05
0.000143724
0.000199434
0.000209116
0.000103513
0.000208661
0.000103431
0.000143907
9.97148e-05
5.07281e-05
5.07218e-05
9.9775e-05
7.77954e-05
7.78123e-05
0.000180987
7.78212e-05
7.78405e-05
2.38789e-05
2.38834e-05
2.3886e-05
2.38817e-05
0.000181145
7.78521e-05
7.7871e-05
7.78278e-05
7.7845e-05
2.3888e-05
2.38836e-05
0.00014371
0.000207733
0.000103347
0.000199095
0.000208199
0.000103434
0.000143495
9.97154e-05
5.0709e-05
5.07202e-05
9.96477e-05
9.97215e-05
5.07093e-05
5.07204e-05
9.96546e-05
0.000143709
0.000199452
0.000209118
0.000103517
0.000208663
0.000103434
0.000143913
0.000143712
0.000199449
0.000209118
0.000103512
0.000208664
0.00010343
0.000143917
9.97101e-05
5.07298e-05
5.07195e-05
9.97749e-05
9.9717e-05
5.07306e-05
5.07197e-05
9.97811e-05
2.38787e-05
2.3883e-05
2.38782e-05
2.38827e-05
0.000181069
7.78683e-05
7.78677e-05
7.78443e-05
7.78424e-05
2.38876e-05
2.38834e-05
2.38873e-05
2.38829e-05
0.000209569
0.000103509
0.000143932
5.07321e-05
9.97746e-05
0.000103508
5.07298e-05
2.38879e-05
2.38875e-05
3.66935e-05
4.10401e-05
9.435e-05
9.96826e-05
4.10338e-05
9.43236e-05
3.66994e-05
2.03078e-05
5.07167e-05
7.89833e-05
7.89937e-05
2.03056e-05
2.03076e-05
7.90058e-05
5.07204e-05
7.89955e-05
2.03097e-05
3.66961e-05
9.9683e-05
4.10298e-05
9.42987e-05
4.10358e-05
9.43259e-05
3.66894e-05
2.38813e-05
2.38815e-05
3.66962e-05
9.43627e-05
4.10385e-05
9.96868e-05
9.43377e-05
4.10351e-05
3.67004e-05
2.03089e-05
5.07158e-05
7.90007e-05
7.90191e-05
2.03069e-05
2.03088e-05
7.90314e-05
5.07151e-05
7.90125e-05
2.03109e-05
3.66973e-05
9.9693e-05
9.4313e-05
4.10322e-05
9.43389e-05
4.10332e-05
3.66915e-05
2.38791e-05
2.38794e-05
8.14444e-05
2.17029e-05
2.16999e-05
2.17009e-05
2.16979e-05
8.14523e-05
0.000105055
0.000128362
7.7821e-05
4.86297e-05
0.000128422
4.86295e-05
0.000105034
0.000105065
0.000128344
7.78207e-05
4.86164e-05
0.000128409
4.86238e-05
0.000105042
0.000105068
4.86343e-05
7.78284e-05
0.000128496
0.000128436
4.86344e-05
0.000105087
0.000105075
4.86285e-05
7.78262e-05
0.000128482
0.000128418
4.86214e-05
0.000105097
8.14419e-05
2.1699e-05
2.1696e-05
2.1701e-05
2.1698e-05
8.14339e-05
0.000105183
0.000128649
4.86479e-05
7.78843e-05
0.000105161
0.000128706
4.86499e-05
0.000105191
0.000128631
4.86352e-05
7.78831e-05
0.000105168
0.000128692
4.86434e-05
8.14819e-05
2.17065e-05
2.17035e-05
8.14743e-05
2.17085e-05
2.17055e-05
2.38819e-05
2.38822e-05
2.38806e-05
2.38808e-05
8.14442e-05
2.17029e-05
2.16996e-05
2.17008e-05
2.16976e-05
8.14519e-05
0.000105061
0.000128362
7.78236e-05
4.86302e-05
4.86302e-05
0.000128427
0.000105038
0.000105064
0.000128343
7.78205e-05
4.86149e-05
4.86223e-05
0.000128407
0.00010504
0.000105071
4.86349e-05
7.7831e-05
0.0001285
4.86348e-05
0.000105094
0.000128436
0.000105073
4.86271e-05
7.78254e-05
0.00012848
4.86199e-05
0.000105096
0.000128417
8.14415e-05
2.1699e-05
2.16957e-05
2.1701e-05
2.16977e-05
8.14338e-05
2.38868e-05
2.38865e-05
2.38854e-05
2.38852e-05
8.1462e-05
2.17027e-05
2.16994e-05
8.14545e-05
2.17047e-05
2.17015e-05
0.000105135
0.000128641
7.78625e-05
4.86446e-05
4.86448e-05
0.00012858
0.000105155
0.000105136
0.000128621
7.78568e-05
4.86363e-05
4.8629e-05
0.00012856
0.000105159
0.000105124
4.86398e-05
0.000128509
7.78557e-05
0.000105103
4.86401e-05
0.000128571
0.000105128
4.86246e-05
0.000128489
7.7852e-05
0.000105105
4.86315e-05
0.000128551
8.14643e-05
2.17066e-05
2.17033e-05
2.17046e-05
2.17013e-05
8.14718e-05
3.6695e-05
4.10374e-05
9.43641e-05
9.96863e-05
4.10374e-05
9.4339e-05
3.67018e-05
2.03087e-05
5.07191e-05
7.90032e-05
7.90215e-05
2.03066e-05
2.03085e-05
7.90336e-05
5.07185e-05
7.90153e-05
2.03106e-05
3.6698e-05
9.96863e-05
4.10329e-05
9.43143e-05
4.10332e-05
9.434e-05
3.66912e-05
3.67022e-05
4.10384e-05
9.4348e-05
9.97443e-05
3.66988e-05
4.10444e-05
9.43742e-05
2.03114e-05
5.07306e-05
7.9029e-05
2.03135e-05
7.90191e-05
2.03116e-05
7.90075e-05
5.07275e-05
2.03095e-05
7.90179e-05
3.67032e-05
9.97433e-05
4.10486e-05
9.43972e-05
3.67049e-05
4.10425e-05
9.43718e-05
3.67056e-05
4.10415e-05
9.43634e-05
9.97476e-05
3.6699e-05
4.10417e-05
9.43886e-05
2.03124e-05
5.0729e-05
7.90568e-05
7.9039e-05
2.03144e-05
2.03125e-05
7.90273e-05
5.07292e-05
2.03105e-05
7.90454e-05
3.67023e-05
9.9747e-05
4.10459e-05
9.44119e-05
4.10458e-05
9.43871e-05
3.67092e-05
8.14447e-05
2.17003e-05
2.17029e-05
2.16983e-05
2.17009e-05
8.14517e-05
0.000105064
0.000128346
7.78215e-05
4.86169e-05
4.86242e-05
0.000128406
0.000105045
0.00010506
0.00012837
7.78179e-05
4.86293e-05
0.000128426
4.86293e-05
0.000105041
0.000105078
4.86291e-05
7.78261e-05
0.000128479
4.86219e-05
0.00012842
0.000105097
0.000105074
4.86344e-05
7.78219e-05
0.000128499
0.000128444
4.86334e-05
0.000105093
8.14413e-05
2.16964e-05
2.1699e-05
2.16984e-05
2.1701e-05
8.14342e-05
2.38818e-05
2.3882e-05
2.38861e-05
2.38859e-05
8.14618e-05
2.17001e-05
2.17027e-05
8.1455e-05
2.17022e-05
2.17047e-05
0.000105141
0.00012862
7.78573e-05
4.86382e-05
0.000128563
4.86311e-05
0.00010516
0.000105137
0.00012864
7.78529e-05
4.86467e-05
4.86395e-05
0.000128588
0.000105156
0.000105128
4.86266e-05
0.000128492
7.78532e-05
0.00012855
0.00010511
4.86335e-05
0.000105125
4.86378e-05
0.000128517
7.78502e-05
0.000105106
4.86407e-05
0.00012857
8.1465e-05
2.1704e-05
2.17066e-05
2.1702e-05
2.17046e-05
8.14715e-05
2.38866e-05
2.38864e-05
3.66922e-05
4.10396e-05
9.435e-05
9.96833e-05
4.10334e-05
9.43163e-05
3.66994e-05
2.03073e-05
5.07096e-05
7.89772e-05
7.89893e-05
2.03052e-05
2.03071e-05
7.90014e-05
5.07133e-05
7.89893e-05
2.03092e-05
3.66956e-05
9.96897e-05
4.10294e-05
9.42919e-05
4.10352e-05
9.43256e-05
3.66883e-05
3.6703e-05
9.43621e-05
4.10381e-05
9.97548e-05
3.67016e-05
9.43873e-05
4.10438e-05
2.03126e-05
5.07252e-05
7.90545e-05
2.03147e-05
7.9036e-05
2.03128e-05
7.90244e-05
5.07258e-05
2.03107e-05
7.90431e-05
3.6706e-05
9.97485e-05
9.44117e-05
4.10484e-05
3.67058e-05
9.43839e-05
4.10425e-05
3.67031e-05
4.10379e-05
9.43412e-05
9.9751e-05
3.66961e-05
4.10438e-05
9.43742e-05
2.03109e-05
5.07237e-05
7.90249e-05
7.90126e-05
2.0313e-05
2.03111e-05
7.90013e-05
5.07201e-05
2.0309e-05
7.90133e-05
3.66997e-05
9.9745e-05
4.10483e-05
9.43978e-05
4.10422e-05
9.43651e-05
3.67064e-05
3.66957e-05
9.43697e-05
4.10399e-05
9.96831e-05
9.43354e-05
4.10335e-05
3.67026e-05
2.03094e-05
5.07185e-05
7.90037e-05
7.90229e-05
2.03074e-05
2.03093e-05
7.90349e-05
5.07177e-05
7.9016e-05
2.03114e-05
3.66988e-05
9.96898e-05
9.43112e-05
4.10295e-05
9.43455e-05
4.10355e-05
3.66917e-05
3.66974e-05
4.10386e-05
9.43547e-05
9.96841e-05
4.10349e-05
9.43302e-05
3.66964e-05
2.03082e-05
5.07127e-05
7.89835e-05
7.90019e-05
2.03062e-05
2.03081e-05
7.90139e-05
5.07165e-05
7.89957e-05
2.03101e-05
3.66928e-05
9.96844e-05
4.10323e-05
9.43055e-05
4.1033e-05
9.43307e-05
3.66938e-05
3.67063e-05
9.43602e-05
4.10381e-05
9.9751e-05
3.66995e-05
9.43939e-05
4.10441e-05
2.03131e-05
5.0728e-05
7.90579e-05
7.90397e-05
2.03152e-05
2.03133e-05
7.90277e-05
5.07284e-05
2.03112e-05
7.90466e-05
3.6703e-05
9.97444e-05
9.44177e-05
4.10486e-05
9.43841e-05
4.10424e-05
3.67099e-05
3.67001e-05
4.10379e-05
9.43544e-05
9.97459e-05
3.6701e-05
4.10438e-05
9.43792e-05
2.03119e-05
5.0727e-05
7.90372e-05
7.90194e-05
2.03139e-05
2.0312e-05
7.90077e-05
5.07234e-05
2.031e-05
7.90258e-05
3.67049e-05
9.97447e-05
4.10484e-05
9.44024e-05
4.10423e-05
9.43783e-05
3.67039e-05
8.14444e-05
2.16993e-05
2.17027e-05
2.16972e-05
2.17007e-05
8.14524e-05
0.000105058
0.000128337
7.78049e-05
4.86142e-05
4.86216e-05
0.000128391
0.000105034
0.000105057
0.000128364
7.78242e-05
4.86264e-05
0.000128428
4.86335e-05
0.000105036
0.000105067
4.86265e-05
7.78119e-05
0.000128464
4.86191e-05
0.000128411
0.000105091
0.00010507
4.86377e-05
7.78291e-05
0.000128501
0.000128438
4.86324e-05
0.00010509
8.1442e-05
2.16953e-05
2.16988e-05
2.16974e-05
2.17008e-05
8.14338e-05
2.38811e-05
2.38813e-05
2.3884e-05
2.38837e-05
8.14623e-05
2.16991e-05
2.17026e-05
8.14547e-05
2.17011e-05
2.17046e-05
0.000105131
0.000128605
7.78433e-05
4.86356e-05
0.000128555
4.86284e-05
0.000105154
0.000105134
0.000128643
7.78606e-05
4.86445e-05
4.86447e-05
0.000128582
0.000105153
0.000105122
4.86239e-05
0.000128484
7.7837e-05
0.000128535
0.000105099
4.86309e-05
0.000105121
4.8638e-05
0.000128511
7.78556e-05
0.000105102
4.8641e-05
0.000128572
8.14646e-05
2.1703e-05
2.17064e-05
2.1701e-05
2.17044e-05
8.14722e-05
2.38859e-05
2.38857e-05
3.66935e-05
9.43542e-05
4.10369e-05
9.9679e-05
9.43201e-05
4.1037e-05
3.67007e-05
2.03085e-05
5.0715e-05
7.89835e-05
7.90025e-05
2.03064e-05
2.03083e-05
7.90145e-05
5.07143e-05
7.89957e-05
2.03104e-05
3.66968e-05
9.96847e-05
9.42959e-05
4.10325e-05
9.43302e-05
4.10328e-05
3.66897e-05
3.66958e-05
9.43599e-05
4.10373e-05
9.96859e-05
9.43267e-05
4.10373e-05
3.67017e-05
2.03089e-05
5.07152e-05
7.89967e-05
7.90098e-05
2.03068e-05
2.03087e-05
7.90219e-05
5.07146e-05
7.90092e-05
2.03108e-05
3.66971e-05
9.96906e-05
9.43021e-05
4.10329e-05
9.43353e-05
4.10332e-05
3.66934e-05
3.67044e-05
9.43449e-05
4.1041e-05
9.97459e-05
3.66974e-05
9.43788e-05
4.10413e-05
2.03121e-05
5.07246e-05
7.90376e-05
7.90192e-05
2.03142e-05
2.03123e-05
7.90077e-05
5.07249e-05
2.03102e-05
7.90262e-05
3.67009e-05
9.97401e-05
9.44015e-05
4.10453e-05
9.43685e-05
4.10453e-05
3.6708e-05
3.67059e-05
9.43514e-05
4.10414e-05
9.97519e-05
3.66991e-05
9.43842e-05
4.10417e-05
2.03125e-05
5.07247e-05
7.9045e-05
7.90327e-05
2.03146e-05
2.03128e-05
7.90211e-05
5.07252e-05
2.03106e-05
7.90334e-05
3.67025e-05
9.97472e-05
9.44073e-05
4.10458e-05
9.43752e-05
4.10456e-05
3.67097e-05
2.38807e-05
2.3881e-05
2.38803e-05
2.38806e-05
8.14623e-05
2.17027e-05
2.16998e-05
8.14547e-05
2.17047e-05
2.17018e-05
0.000105131
0.000128637
7.78599e-05
4.8644e-05
0.000105151
0.000128579
4.86442e-05
0.000105138
0.000128623
7.78576e-05
4.86377e-05
0.00010516
0.000128562
4.86307e-05
0.000105119
4.86392e-05
0.000128508
7.78531e-05
0.0001051
0.000128567
4.86396e-05
0.000105129
4.86262e-05
0.000128491
7.78526e-05
0.000105107
0.000128553
4.86328e-05
8.14646e-05
2.17066e-05
2.17036e-05
8.14721e-05
2.17046e-05
2.17016e-05
2.38856e-05
2.38853e-05
2.38852e-05
2.3885e-05
2.03158e-05
7.90308e-05
5.07327e-05
2.03138e-05
7.90479e-05
3.67071e-05
9.9803e-05
4.1046e-05
9.44021e-05
3.67086e-05
4.1053e-05
9.44244e-05
5.07361e-05
2.38899e-05
2.38895e-05
0.000199191
0.000199191
0.000204062
0.0002
0.0002
0.000189296
0.000188273
0.000137901
0.000160898
0.000160886
0.000180821
0.000160981
0.000160971
0.000137854
0.00013824
0.000161531
0.000161514
0.000181778
0.000138197
0.000161616
0.000161605
0.000137904
0.0001609
0.000160876
0.000180825
0.000160984
0.000160975
0.000137855
0.000138114
0.000181318
0.000161454
0.000161441
0.000161375
0.000161361
0.000138161
0.000137903
0.000160908
0.000160919
0.000180761
0.000160972
0.000160961
0.000137866
0.000138123
0.000181405
0.000161434
0.000161454
0.000161378
0.000161398
0.000138161
0.000137893
0.000160889
0.000160909
0.000180748
0.000160965
0.000160942
0.000137856
0.000138114
0.000181389
0.000161413
0.00016144
0.000161368
0.000161385
0.000138151
0.000138114
0.000181316
0.000161458
0.000161442
0.000138155
0.000161363
0.000161357
0.000199192
0.000199198
0.000204068
0.000200002
0.000200008
0.000189298
0.000188275
0.000199199
0.000199205
0.000204069
0.000200009
0.000200014
0.000189306
0.000188284
0.000199207
0.000199207
0.000204077
0.000200016
0.000200016
0.000189308
0.000188286
0.000204694
0.000201603
0.000201603
0.000200806
0.000200807
0.000190317
0.000191335
0.000204701
0.000201605
0.000201611
0.000200808
0.000200813
0.000190319
0.000191336
0.000204701
0.000201611
0.000201617
0.000200814
0.00020082
0.000190327
0.000191345
0.000204709
0.000201619
0.000201619
0.000200822
0.000200822
0.00019033
0.000191347
0.000170437
0.000137228
0.000175599
0.000143617
0.000137136
0.000175582
0.000170528
0.00015999
0.000146881
0.000103395
0.000122353
0.000146957
0.000122424
0.000159881
0.000160037
0.000122491
0.000103391
0.000147082
0.000147008
0.00012242
0.000160155
0.000170324
0.000143599
0.000137053
0.000175348
0.000137132
0.000175371
0.000170234
0.000170408
0.000175654
0.000137221
0.000143602
0.000175514
0.000137124
0.000170552
0.000159991
0.00014688
0.000103397
0.000122348
0.000146957
0.000122418
0.000159857
0.000160012
0.000122484
0.000103394
0.00014708
0.000147006
0.000122415
0.000160154
0.000170337
0.000143599
0.000175284
0.000137033
0.000175424
0.000137129
0.000170211
0.000137943
0.000180839
0.000161138
0.000161127
0.000161055
0.000161043
0.000137986
0.000137944
0.000180842
0.000161149
0.00016113
0.000137991
0.000161051
0.000161047
0.000138077
0.000181294
0.000161209
0.000161194
0.00013803
0.000161298
0.000161286
0.000170429
0.000137205
0.000175587
0.000143613
0.000137131
0.000175575
0.000170476
0.00015993
0.000146891
0.000103395
0.000122346
0.000122405
0.000146928
0.000159894
0.000160051
0.000122472
0.000103394
0.000147054
0.000122413
0.000147016
0.000160086
0.000170275
0.000143589
0.000137039
0.00017534
0.000137113
0.00017536
0.000170228
0.000170434
0.000137215
0.00017559
0.000143616
0.00013714
0.000175576
0.000170497
0.000159929
0.000146881
0.000103394
0.000122352
0.000122412
0.000146918
0.000159893
0.00016005
0.000122479
0.000103392
0.000147043
0.000122418
0.000160085
0.000147006
0.000170303
0.000143592
0.000137047
0.000175343
0.000137123
0.000175363
0.000170231
0.000170684
0.000137223
0.000175786
0.000143802
0.000170631
0.000137297
0.000175801
0.000160369
0.000147293
0.000103474
0.000122601
0.000147259
0.000122543
0.000160395
0.000160237
0.000122479
0.000147136
0.000103476
0.000147176
0.000160211
0.000122538
0.000170829
0.000143824
0.000137385
0.000176006
0.000137313
0.000176001
0.000170881
0.000170694
0.000137232
0.000175789
0.000143805
0.000170635
0.000137307
0.000175804
0.000160368
0.000147283
0.000103472
0.000122608
0.000122549
0.000147251
0.000160395
0.000160236
0.000122485
0.000147127
0.000103474
0.00016021
0.000122544
0.000147164
0.000170832
0.000143827
0.000137395
0.000176009
0.000137323
0.000176003
0.000170891
0.000137953
0.000180922
0.000161112
0.000161132
0.00016108
0.000161058
0.00013799
0.000138076
0.000181244
0.000161222
0.00016124
0.000161276
0.000138039
0.000161294
0.000170424
0.000137215
0.000175645
0.000143602
0.000137135
0.000175511
0.000170512
0.00015993
0.000146861
0.000103388
0.000122349
0.000122411
0.000146935
0.00015989
0.000160048
0.000122478
0.000103383
0.000147059
0.000122414
0.000146987
0.000160093
0.000170311
0.000143601
0.000137046
0.000175285
0.000137123
0.000175416
0.000170221
0.000170391
0.000175644
0.00013721
0.000143598
0.000175505
0.000137112
0.000170534
0.000159962
0.000146847
0.000103375
0.000122329
0.000122397
0.000146924
0.00015983
0.000159987
0.000122464
0.000103372
0.000147048
0.000122395
0.000160124
0.000146973
0.000170319
0.000143596
0.000175277
0.000137021
0.000175415
0.000137117
0.000170193
0.000170714
0.00013722
0.000175725
0.000143814
0.000170623
0.00013731
0.00017586
0.000160345
0.000147301
0.000103464
0.000122609
0.00014723
0.000122541
0.000160459
0.000160283
0.000122478
0.000147106
0.000103468
0.000147179
0.000160196
0.000122544
0.000170821
0.000143816
0.000137402
0.000176076
0.000137307
0.000175943
0.000170923
0.000170744
0.000175718
0.000137206
0.000143809
0.000170576
0.000175857
0.000137301
0.000160284
0.000147288
0.000103452
0.000122593
0.000122527
0.000147217
0.000160456
0.000160291
0.000122462
0.000147094
0.000103455
0.000160142
0.000122529
0.000147166
0.000170749
0.000143812
0.000176073
0.00013739
0.000175935
0.000137296
0.00017094
0.000170438
0.000175593
0.00013721
0.000143618
0.000175581
0.000137136
0.000170479
0.000159934
0.000146891
0.000103393
0.000122348
0.000146928
0.000122409
0.000159898
0.000160055
0.000122475
0.000103391
0.000147053
0.000147016
0.000122415
0.000160089
0.00017028
0.000143594
0.000175348
0.000137044
0.000175367
0.000137118
0.000170238
0.00017074
0.000137225
0.000175791
0.000143814
0.000170634
0.000137321
0.000175817
0.000160334
0.000147318
0.000103472
0.00012262
0.000160485
0.000147259
0.000122552
0.00016032
0.000122487
0.000147129
0.000103476
0.000160191
0.000147201
0.000122555
0.000170815
0.000143818
0.000137412
0.000176068
0.000170952
0.000137317
0.000175987
0.000170689
0.000175792
0.000137228
0.000143806
0.000170639
0.000175808
0.000137302
0.000160372
0.000147293
0.000103471
0.000122605
0.000122546
0.00014726
0.000160396
0.00016024
0.000122481
0.000147136
0.000103474
0.000160214
0.000122541
0.000147175
0.000170838
0.000143828
0.000176014
0.00013739
0.000176005
0.000137318
0.000170886
0.000137944
0.000180909
0.0001611
0.000161128
0.000161072
0.000161049
0.000137981
0.000138067
0.000181233
0.000161211
0.000161228
0.000161262
0.00013803
0.000161289
0.000170409
0.000175654
0.000137221
0.000143605
0.000175516
0.000137125
0.000170545
0.000159978
0.000146865
0.000103393
0.000122345
0.000146942
0.000122412
0.000159847
0.000160005
0.000122478
0.000103389
0.000147066
0.000146991
0.000122411
0.00016014
0.000170331
0.000143602
0.000175287
0.000137033
0.000175426
0.000137129
0.000170209
0.000170758
0.000175728
0.000137217
0.000143812
0.000170593
0.000175866
0.000137313
0.000160306
0.000147321
0.000103474
0.000122613
0.000160473
0.000147249
0.000122545
0.00016032
0.000122481
0.000147127
0.000103478
0.000160164
0.000147199
0.000122549
0.000170773
0.000143814
0.000176083
0.0001374
0.000170946
0.000175945
0.000137307
0.000170755
0.000175729
0.000137218
0.000143815
0.000170596
0.000175867
0.000137313
0.000160304
0.000147301
0.00010347
0.000122608
0.000122541
0.000147241
0.00016047
0.000160306
0.000122477
0.000147112
0.000103473
0.00016016
0.000122543
0.000147183
0.000170769
0.000143817
0.000176083
0.000137401
0.000175946
0.000137308
0.00017095
0.000138072
0.00018129
0.00016121
0.000161198
0.000138029
0.000161294
0.000161283
0.000160544
0.000147378
0.000122609
0.00010355
0.000147419
0.000160532
0.000122665
0.000171075
0.000144007
0.000176229
0.000137408
0.000176222
0.000171027
0.000137475
0.000147349
0.00010355
0.000147422
0.000123049
0.000139428
0.000139431
0.000137357
0.000125847
0.000142553
0.000142556
0.000139723
0.000128805
0.000145641
0.000145644
0.000142039
0.0001319
0.000148684
0.000148688
0.000144404
0.000135112
0.000151679
0.000151683
0.000146643
0.000138422
0.000154618
0.000154622
0.000148887
0.000141809
0.000157496
0.0001575
0.000150987
0.000145256
0.000160312
0.000160314
0.000153134
0.000148747
0.000163064
0.000163066
0.000155136
0.000152265
0.000165749
0.000165751
0.000157135
0.000155797
0.000168367
0.000168369
0.000159043
0.000159329
0.000170916
0.000170918
0.000160872
0.000162848
0.000173395
0.000173397
0.000162672
0.000166343
0.000175803
0.000175804
0.000164396
0.000169803
0.000178137
0.000178138
0.00016609
0.000173221
0.000180398
0.000180396
0.000167692
0.000176586
0.000182582
0.000182579
0.000169291
0.000179891
0.00018469
0.000184687
0.000170788
0.000183129
0.000186721
0.000186717
0.000172225
0.000186293
0.000188675
0.00018867
0.000173602
0.000189377
0.000190551
0.000190545
0.00017492
0.000192375
0.000192348
0.000192341
0.000176173
0.000195283
0.000194066
0.000194059
0.000177413