/*--------------------------------*- C++ -*----------------------------------*\
| =========                 |                                                 |
| \\      /  F ield         | OpenFOAM: The Open Source CFD Toolbox           |
|  \\    /   O peration     | Version:  v1906                                 |
|   \\  /    A nd           | Web:      www.OpenFOAM.com                      |
|    \\/     M anipulation  |                                                 |
\*---------------------------------------------------------------------------*/
FoamFile
{
    version     2.0;
    format      ascii;
    class       volScalarField;
    location    "500";
    object      p;
}
// * * * * * * * * * * * * * * * * * * * * * * * * * * * * * * * * * * * * * //

dimensions      [0 2 -2 0 0 0 0];


internalField   nonuniform List<scalar> 
171728
(
0.00167306
0.00167471
0.00167471
0.00167306
0.00167471
0.00167471
0.00167471
0.00167471
0.00167306
0.00167471
0.00167471
0.00167306
0.00167478
0.00167479
0.00167478
0.00167479
0.00167236
0.00167236
0.00167237
0.00167237
0.0016857
0.00167237
0.00167239
0.0016857
0.00167237
0.00168569
0.00167239
0.00168564
0.00167244
0.00167475
0.00168372
0.00167253
0.00168564
0.00168368
0.00167244
0.00167475
0.00168566
0.00168372
0.00167253
0.00167236
0.00168569
0.00168525
0.00167237
0.00167237
0.0016857
0.0016857
0.00167236
0.00168569
0.00167237
0.00167239
0.00167244
0.00167475
0.00167253
0.00167237
0.00167239
0.00167475
0.00167244
0.00167253
0.00168564
0.00168368
0.00167244
0.00167475
0.00168566
0.00168372
0.00167253
0.0016857
0.00167237
0.00168569
0.00167239
0.00168564
0.00168368
0.00167475
0.00167244
0.00168372
0.00168566
0.00167253
0.0016857
0.00167237
0.00168569
0.00167239
0.00167236
0.00167237
0.00167237
0.00167236
0.00168564
0.00167475
0.00167244
0.00168372
0.00167253
0.00168564
0.00168368
0.00167475
0.00167244
0.00168372
0.00168566
0.00167253
0.0016857
0.00167237
0.00167239
0.0016857
0.00167237
0.00168569
0.00167239
0.00168525
0.00167237
0.00167237
0.0016857
0.0016857
0.00167236
0.00168569
0.00167236
0.00168569
0.00167673
0.00167673
0.00167672
0.00167245
0.00167673
0.00167237
0.00167673
0.00167669
0.0016724
0.00167671
0.00167247
0.00167673
0.00167237
0.00167672
0.0016767
0.00167241
0.00167674
0.00167236
0.00167235
0.00167674
0.00167673
0.00167236
0.00168133
0.0016857
0.00168569
0.00168136
0.0016857
0.00168133
0.00168135
0.00167673
0.00167672
0.00167236
0.00167673
0.00167236
0.00167673
0.00167673
0.00167236
0.00167238
0.00167673
0.00167672
0.00167236
0.00168133
0.0016857
0.00168569
0.00168136
0.0016857
0.00168133
0.00168135
0.00167673
0.00167672
0.00167236
0.00167673
0.00167236
0.00168133
0.0016857
0.00168133
0.0016857
0.00168133
0.00167673
0.00167673
0.00167236
0.00167238
0.00167673
0.00167672
0.00167236
0.00167672
0.00168133
0.00168132
0.0016857
0.0016857
0.00168571
0.00168132
0.00168132
0.00167671
0.00167246
0.00167673
0.00167237
0.00167669
0.00167672
0.00167241
0.00167671
0.00167246
0.00167673
0.00167237
0.00167672
0.00167669
0.00167241
0.00168138
0.00168569
0.00168566
0.00168134
0.00168143
0.00168568
0.00168134
0.00168138
0.00168569
0.00168566
0.00168134
0.00168568
0.00168134
0.00168143
0.00167674
0.00167236
0.00167236
0.00167673
0.00167673
0.00167236
0.00167673
0.00168133
0.00167673
0.00167672
0.00167236
0.00167673
0.00167236
0.00167673
0.00167673
0.00167238
0.00167236
0.00167672
0.00167673
0.00167236
0.00167673
0.00167672
0.00167236
0.00167673
0.00167236
0.00167673
0.00167673
0.00167236
0.00167238
0.00167673
0.00167672
0.00167236
0.00168133
0.00168569
0.0016857
0.00168136
0.0016857
0.00168135
0.00168133
0.00167673
0.00167672
0.00167236
0.00167673
0.00167236
0.00168133
0.0016857
0.00168133
0.0016857
0.00168133
0.00167673
0.00167673
0.00167238
0.00167236
0.00167672
0.00167673
0.00167236
0.00168132
0.0016857
0.00168569
0.00168136
0.0016857
0.00168133
0.00168135
0.00167673
0.00167672
0.00167236
0.00167673
0.00167236
0.00168133
0.0016857
0.00168133
0.0016857
0.00168133
0.00167673
0.00167673
0.00167236
0.00167238
0.00167673
0.00167672
0.00167236
0.00167673
0.00167671
0.00167246
0.00167673
0.00167237
0.00167669
0.00167672
0.00167241
0.00167671
0.00167246
0.00167673
0.00167237
0.00167672
0.00167669
0.00167241
0.00167674
0.00167236
0.00167236
0.00167674
0.00167674
0.00167236
0.00167673
0.00168133
0.00168569
0.0016857
0.00168136
0.0016857
0.00168135
0.00168133
0.00167673
0.00167672
0.00167236
0.00167673
0.00167236
0.00168133
0.00168133
0.00167673
0.00167673
0.00167238
0.00167236
0.00167672
0.00167673
0.00167236
0.00168133
0.00168569
0.0016857
0.00168136
0.0016857
0.00168135
0.00168133
0.00167673
0.00167672
0.00167236
0.00167673
0.00167236
0.00168133
0.0016857
0.00168133
0.0016857
0.00168133
0.00167673
0.00167673
0.00167238
0.00167236
0.00167672
0.00167673
0.00167236
0.00168132
0.0016857
0.0016857
0.00168571
0.00168132
0.00168132
0.00167671
0.00167246
0.00167673
0.00167237
0.00167669
0.00167672
0.00167241
0.00167671
0.00167246
0.00167673
0.00167237
0.00167669
0.00167672
0.00167241
0.00168138
0.00168569
0.00168566
0.00168134
0.00168568
0.00168143
0.00168134
0.00168138
0.00168569
0.00168567
0.00168134
0.00168568
0.00168143
0.00168134
0.00167674
0.00167236
0.00167236
0.00167674
0.00167673
0.00167236
0.00167672
0.00168133
0.00167673
0.00168133
0.00167662
0.00167628
0.00167274
0.00167276
0.00167648
0.00167649
0.00167257
0.00167662
0.00167628
0.00167275
0.00167275
0.00167649
0.00167649
0.00167256
0.00167662
0.00167628
0.00167275
0.00167275
0.00167649
0.00167649
0.00167256
0.00167662
0.00167628
0.00167275
0.00167275
0.00167649
0.00167649
0.00167256
0.0016748
0.0016748
0.00168377
0.00168376
0.0016748
0.00168375
0.0016748
0.0016748
0.00168377
0.00168377
0.00168376
0.0016748
0.0016748
0.0016748
0.00168377
0.00168376
0.0016748
0.00168375
0.0016748
0.0016748
0.00168377
0.00168377
0.00168376
0.0016748
0.00168174
0.00168563
0.00168545
0.0016815
0.00168544
0.00168148
0.00168175
0.0016765
0.0016726
0.00167669
0.00167249
0.00167655
0.00167667
0.00167274
0.00167646
0.00167667
0.00167251
0.00167278
0.00167666
0.00167648
0.00167277
0.00168174
0.00168563
0.00168545
0.0016815
0.00168544
0.00168148
0.00168175
0.0016765
0.0016726
0.00167669
0.00167249
0.00167667
0.00167655
0.00167274
0.0016817
0.00168564
0.00168552
0.0016814
0.00168547
0.00168146
0.00168157
0.00167647
0.00167667
0.00167251
0.00167278
0.00167666
0.00167648
0.00167277
0.00168153
0.00168203
0.00168546
0.00168546
0.00168172
0.00168559
0.00168172
0.0016765
0.00167261
0.00167669
0.00167249
0.00167656
0.00167667
0.00167274
0.00167647
0.00167667
0.00167251
0.00167278
0.00167666
0.00167648
0.00167277
0.0016765
0.0016726
0.00167669
0.00167249
0.00167667
0.00167655
0.00167274
0.00167646
0.00167667
0.00167278
0.00167252
0.00167648
0.00167666
0.00167277
0.00168174
0.00168563
0.00168545
0.0016815
0.00168544
0.00168148
0.00168175
0.0016765
0.0016726
0.00167669
0.00167249
0.00167655
0.00167667
0.00167274
0.00168171
0.00168564
0.00168552
0.00168141
0.00168547
0.00168157
0.00168146
0.00167646
0.00167667
0.00167252
0.00167278
0.00167666
0.00167648
0.00167277
0.00168174
0.00168545
0.00168563
0.0016815
0.00168544
0.00168175
0.00168148
0.0016765
0.0016726
0.00167669
0.00167249
0.00167667
0.00167655
0.00167274
0.0016817
0.00168564
0.00168552
0.00168141
0.00168547
0.00168146
0.00168157
0.00167647
0.00167667
0.00167278
0.00167251
0.00167648
0.00167666
0.00167277
0.00168174
0.00168545
0.00168563
0.0016815
0.00168544
0.00168175
0.00168148
0.0016765
0.0016726
0.00167669
0.00167249
0.00167655
0.00167667
0.00167274
0.00168171
0.00168146
0.00167646
0.00167667
0.00167278
0.00167251
0.00167648
0.00167666
0.00167277
0.00168174
0.00168545
0.00168563
0.0016815
0.00168544
0.00168175
0.00168148
0.0016765
0.0016726
0.00167669
0.00167249
0.00167667
0.00167655
0.00167274
0.00168171
0.00168564
0.00168552
0.00168141
0.00168547
0.00168146
0.00168157
0.00167646
0.00167667
0.00167278
0.00167251
0.00167648
0.00167666
0.00167277
0.00168153
0.00168203
0.00168546
0.00168546
0.00168559
0.00168172
0.00168172
0.000781413
0.000781356
0.000781356
0.000782927
0.00074762
0.000782927
0.000753265
0.000781356
0.000781356
0.000754876
0.000754876
0.000782927
0.000753265
0.000781356
0.000781356
0.000754876
0.000754876
0.000781356
0.000754876
0.000754876
0.000782927
0.000753265
0.000781356
0.000754876
0.000754876
0.000753265
0.000746047
0.000746047
0.000770366
0.000783489
0.000770367
0.000783477
0.000783496
0.000770366
0.000770365
0.000783489
0.000770367
0.000783477
0.000781413
0.000781413
0.000781413
0.000754931
0.000754931
0.000754931
0.000754931
0.000770449
0.000783441
0.000781378
0.000772531
0.000770403
0.000772552
0.000783394
0.000783496
0.000770366
0.000770449
0.000781378
0.000783442
0.000772531
0.000772552
0.000770403
0.000783394
0.000783488
0.000783488
0.000770919
0.000770361
0.000770361
0.000748184
0.000748184
0.000783496
0.000770366
0.000783496
0.000770366
0.000783488
0.000783488
0.000770919
0.00077036
0.00077036
0.000752712
0.000765847
0.000752713
0.000765847
0.000765276
0.000752707
0.000752707
0.000765839
0.000765839
0.000770366
0.000783489
0.000770367
0.000783476
0.000770449
0.000783442
0.000781378
0.000772531
0.000770403
0.000772552
0.000783394
0.000770449
0.000783441
0.000781378
0.000772531
0.000770403
0.000772552
0.000783394
0.000765827
0.000752713
0.00076584
0.000752712
0.000765827
0.000752714
0.000765839
0.000752712
0.000765744
0.000763704
0.000752749
0.000754897
0.000765792
0.000763725
0.000752795
0.000765744
0.000763704
0.000752749
0.000754897
0.000765792
0.000763725
0.000752795
0.000783488
0.000783488
0.00077092
0.000770361
0.000770361
0.000783496
0.000770366
0.000752713
0.000765847
0.000765276
0.000752707
0.000752708
0.000765839
0.000765839
0.000752713
0.000765847
0.000770449
0.000783441
0.000781378
0.000772531
0.000770403
0.000772552
0.000783394
0.000770365
0.000783488
0.000770367
0.000783477
0.000770449
0.000781378
0.000783441
0.000772531
0.000772552
0.000770403
0.000783394
0.000765827
0.000752714
0.000765839
0.000752712
0.000765744
0.000763704
0.00075275
0.000754897
0.000765792
0.000763725
0.000752795
0.000765828
0.000752714
0.000765839
0.000752712
0.000765744
0.000763704
0.000754897
0.00075275
0.000763725
0.000765792
0.000752795
0.000770366
0.000783489
0.000770367
0.000783477
0.000770449
0.000781378
0.000783442
0.000772531
0.000772552
0.000770403
0.000783394
0.000770366
0.000783489
0.000770367
0.000783477
0.000765745
0.000763704
0.00075275
0.000754897
0.000765792
0.000763725
0.000752795
0.000765827
0.000752714
0.000765839
0.000752712
0.000765744
0.000763704
0.000754897
0.000752749
0.000763725
0.000765792
0.000752795
0.000765827
0.000752714
0.00076584
0.000752712
0.000783488
0.000783488
0.00077092
0.000770361
0.000770361
0.000783496
0.000770366
0.000752713
0.000765847
0.000765276
0.000752708
0.000752707
0.000765839
0.000765839
0.000752713
0.000765847
0.000770449
0.000781378
0.000783442
0.000772531
0.000772552
0.000770403
0.000783394
0.000770366
0.000783489
0.000770367
0.000783476
0.000770366
0.000783489
0.000770367
0.000783477
0.000765744
0.000763704
0.000754897
0.000752749
0.000763725
0.000765793
0.000752795
0.000765745
0.000763704
0.000754897
0.00075275
0.000763725
0.000765792
0.000752795
0.000765827
0.000752714
0.00076584
0.000752713
0.000765828
0.000752714
0.00076584
0.000752712
0.000783496
0.000770366
0.000783496
0.000770366
0.000765276
0.000752707
0.000752707
0.000765839
0.000765839
0.000752713
0.000765847
0.000752713
0.000765847
0.000746068
0.000748138
0.000748089
0.000748185
0.000748172
0.000748137
0.000748185
0.000748192
0.000748192
0.000774675
0.000770359
0.000770364
0.000774652
0.000774673
0.000774656
0.000770359
0.000779187
0.000779191
0.000783493
0.000779179
0.0007835
0.000774676
0.000770355
0.000774665
0.000774669
0.000770363
0.000779184
0.00077919
0.000783497
0.000783479
0.000779183
0.000779189
0.000783498
0.00077919
0.000774672
0.000774675
0.000770363
0.000770359
0.000774653
0.000774656
0.000774673
0.000770359
0.000779188
0.000779192
0.000783493
0.000779179
0.0007835
0.000774676
0.000770354
0.000774665
0.000774669
0.000770363
0.000779184
0.00077919
0.00078348
0.000783497
0.000779188
0.000779183
0.000783498
0.00077919
0.000774672
0.000774679
0.000770361
0.000770361
0.000774682
0.000774682
0.000770352
0.000779209
0.000783432
0.000779185
0.000783492
0.000779239
0.000779193
0.000783465
0.000779209
0.000783432
0.000779185
0.000783492
0.000779239
0.000779193
0.000783465
0.000774641
0.000770369
0.000774664
0.000770414
0.000774608
0.000774668
0.000770384
0.000774641
0.000770369
0.000774664
0.000770414
0.000774608
0.000774668
0.000770384
0.000779177
0.000783506
0.000783506
0.000779186
0.000779186
0.000783503
0.000743902
0.000748128
0.000748188
0.000743879
0.000748161
0.000743932
0.000743886
0.000743902
0.000748128
0.000748188
0.000743879
0.000748161
0.000743932
0.000743887
0.00074387
0.000748202
0.000748202
0.000748199
0.000743879
0.000743879
0.00077919
0.000774672
0.00077919
0.000774672
0.000774679
0.000770361
0.000770361
0.000774682
0.000774682
0.000770352
0.000779209
0.000783432
0.000779185
0.000783492
0.000779193
0.000779239
0.000783465
0.000779209
0.000783432
0.000779185
0.000783492
0.000779193
0.000779239
0.000783465
0.000774641
0.000770368
0.000774665
0.000770414
0.000774668
0.000770384
0.000774608
0.000774641
0.000770368
0.000774664
0.000770414
0.000774668
0.000770384
0.000774608
0.000779177
0.000783506
0.000783506
0.000779186
0.000779186
0.000783503
0.00075702
0.00076154
0.00075702
0.00076154
0.000761526
0.000765857
0.000765857
0.000765853
0.000761535
0.000761535
0.000756989
0.000752761
0.000757013
0.000752715
0.000757016
0.000756956
0.000752731
0.000756989
0.000752761
0.000757013
0.000752715
0.000757016
0.000756956
0.00075273
0.000761558
0.000765842
0.000765783
0.000761534
0.000765816
0.000761542
0.000761588
0.000761558
0.000765842
0.000765783
0.000761534
0.000765816
0.000761542
0.000761588
0.000757027
0.000752708
0.000752708
0.00075703
0.00075703
0.000752699
0.000774675
0.000770359
0.000770364
0.000774652
0.000774673
0.000774656
0.000770359
0.000779188
0.000779192
0.000783493
0.000779179
0.0007835
0.000774676
0.000770354
0.000774665
0.000774669
0.000770363
0.000779184
0.00077919
0.000783497
0.00078348
0.000779184
0.000779188
0.000783499
0.000761533
0.000765847
0.00076583
0.00076154
0.000765849
0.000761533
0.000761538
0.000757024
0.000757013
0.000752701
0.00075271
0.000757017
0.000761537
0.000765843
0.000761541
0.000765851
0.000761529
0.000757023
0.000757001
0.000752706
0.000752711
0.000752706
0.000757021
0.000757004
0.000761533
0.000765847
0.000765831
0.00076154
0.000765849
0.000761533
0.000761538
0.000757024
0.000757013
0.000752701
0.000757017
0.00075271
0.000761537
0.000765844
0.000761541
0.000765851
0.000761528
0.000757023
0.000757001
0.000752706
0.00075271
0.000757021
0.000757004
0.000752706
0.000774679
0.000770361
0.000770361
0.000774682
0.000774682
0.000770352
0.000779209
0.000783432
0.000779185
0.000783492
0.000779193
0.00077924
0.000783465
0.000779209
0.000783432
0.000779186
0.000783492
0.00077924
0.000779193
0.000783465
0.000774641
0.000770369
0.000774664
0.000770415
0.000774668
0.000774608
0.000770384
0.000774641
0.000770369
0.000774664
0.000770415
0.000774608
0.000774668
0.000770384
0.000779177
0.000783506
0.000783506
0.000779186
0.000779186
0.000783502
0.00077919
0.000774672
0.00075702
0.00076154
0.000761526
0.000765857
0.000765857
0.000765853
0.000761535
0.000761535
0.000756989
0.000752761
0.000757012
0.000752715
0.000756955
0.000757016
0.000752731
0.000756989
0.000752761
0.000757012
0.000752715
0.000757016
0.000756956
0.000752731
0.000761558
0.000765842
0.000765782
0.000761535
0.000761588
0.000765816
0.000761543
0.000761558
0.000765842
0.000765783
0.000761535
0.000765816
0.000761542
0.000761588
0.000757027
0.000752708
0.000752708
0.00075703
0.00075703
0.000752699
0.00075702
0.00076154
0.000774675
0.000770359
0.000770364
0.000774653
0.000774673
0.000774656
0.000770359
0.000779187
0.000779192
0.000783492
0.000779179
0.0007835
0.000774676
0.000770355
0.000774664
0.000774669
0.000770363
0.000779184
0.00077919
0.000783496
0.000783479
0.000779183
0.000779189
0.000783498
0.000761533
0.000765831
0.000765847
0.000761539
0.000765849
0.000761538
0.000761533
0.000757024
0.000757013
0.000752701
0.00075271
0.000757017
0.000761537
0.000765844
0.000761541
0.000765851
0.000761528
0.000757023
0.000757001
0.00075271
0.000752706
0.000752706
0.000757004
0.000757021
0.000761533
0.000765847
0.00076583
0.000761539
0.000765849
0.000761533
0.000761538
0.000757025
0.000757013
0.000752701
0.000757017
0.00075271
0.000761537
0.000765843
0.000761541
0.000765851
0.000761529
0.000757023
0.000757001
0.000752706
0.000752711
0.000757021
0.000757004
0.000752706
0.000774675
0.000770364
0.000770359
0.000774653
0.000774656
0.000774673
0.000770359
0.000779188
0.000779192
0.000783493
0.000779179
0.0007835
0.000774676
0.000770354
0.000774665
0.000774669
0.000770363
0.000779184
0.00077919
0.00078348
0.000783497
0.000779188
0.000779183
0.000783499
0.000774675
0.000770359
0.000770364
0.000774652
0.000774673
0.000774656
0.000770359
0.000779188
0.000779192
0.000783493
0.000779179
0.0007835
0.000774676
0.000770354
0.000774665
0.000774669
0.000770363
0.000779183
0.00077919
0.000783497
0.00078348
0.000779183
0.000779188
0.000783499
0.000761533
0.000765831
0.000765847
0.00076154
0.000765849
0.000761538
0.000761533
0.000757025
0.000757013
0.000752701
0.000757017
0.00075271
0.000761537
0.000765844
0.000761541
0.000765851
0.000761528
0.000757023
0.000757001
0.00075271
0.000752706
0.000757004
0.000757021
0.000752706
0.000761533
0.000765848
0.000765831
0.00076154
0.000765849
0.000761533
0.000761538
0.000757025
0.000757013
0.000752701
0.000757017
0.00075271
0.000761537
0.000765844
0.000761541
0.000765851
0.000761528
0.000757023
0.000757001
0.000752706
0.00075271
0.000757021
0.000757004
0.000752706
0.000774679
0.000770361
0.000770362
0.000774682
0.000774682
0.000770352
0.000779209
0.000783432
0.000779186
0.000783491
0.000779193
0.00077924
0.000783465
0.000779209
0.000783432
0.000779185
0.000783492
0.000779239
0.000779193
0.000783465
0.000774641
0.000770369
0.000774664
0.000770415
0.000774668
0.000774608
0.000770384
0.000774641
0.000770369
0.000774665
0.000770415
0.000774608
0.000774668
0.000770384
0.000779177
0.000783506
0.000783506
0.000779186
0.000779186
0.000783502
0.000779191
0.000774672
0.00075702
0.00076154
0.000761526
0.000765857
0.000765857
0.000765853
0.000761535
0.000761536
0.000756989
0.000752761
0.000757012
0.000752716
0.000756955
0.000757016
0.000752731
0.000756989
0.000752761
0.000757013
0.000752715
0.000757016
0.000756956
0.000752731
0.000761558
0.000765842
0.000765782
0.000761535
0.000761589
0.000765816
0.000761543
0.000761558
0.000765842
0.000765783
0.000761535
0.000765816
0.000761543
0.000761588
0.000757027
0.000752708
0.000752708
0.00075703
0.00075703
0.000752699
0.00075702
0.00076154
0.000774675
0.000770364
0.000770359
0.000774652
0.000774656
0.000774673
0.000770359
0.000779188
0.000779192
0.000783493
0.000779179
0.0007835
0.000774677
0.000770354
0.000774665
0.000774669
0.000770363
0.000779184
0.000779191
0.000783479
0.000783497
0.000779189
0.000779184
0.000783499
0.000774675
0.000770364
0.000770359
0.000774653
0.000774655
0.000774673
0.000770359
0.000779188
0.000779192
0.000783492
0.00077918
0.0007835
0.000774677
0.000770355
0.000774665
0.000774669
0.000770363
0.000779184
0.00077919
0.000783479
0.000783497
0.000779189
0.000779184
0.000783499
0.000761533
0.00076583
0.000765847
0.00076154
0.000765849
0.000761538
0.000761533
0.000757025
0.000757013
0.000752701
0.000757017
0.00075271
0.000761537
0.000765844
0.000761541
0.000765851
0.000761528
0.000757023
0.000757001
0.000752711
0.000752706
0.000757004
0.000757021
0.000752706
0.000761533
0.00076583
0.000765847
0.00076154
0.000765849
0.000761538
0.000761533
0.000757025
0.000757013
0.000752702
0.000757017
0.00075271
0.000761537
0.000765843
0.000761541
0.000765851
0.000761529
0.000757023
0.000757001
0.000752711
0.000752706
0.000757004
0.000757021
0.000752706
0.00077919
0.000774672
0.000779191
0.000774672
0.000761526
0.000765857
0.000765857
0.000765853
0.000761535
0.000761535
0.000756989
0.000752761
0.000757013
0.000752715
0.000752731
0.000756956
0.000757016
0.000756989
0.000752761
0.000757013
0.000752715
0.000752731
0.000756956
0.000757016
0.000761558
0.000765842
0.000765783
0.000761535
0.000765816
0.000761588
0.000761543
0.000761558
0.000765842
0.000765783
0.000761535
0.000765816
0.000761588
0.000761543
0.000757027
0.000752708
0.000752708
0.000752699
0.00075703
0.00075703
0.00075702
0.00076154
0.00075702
0.00076154
0.000743881
0.000748189
0.000743885
0.000748196
0.000743872
0.000743877
0.000743883
0.000748193
0.000748176
0.000748195
0.000743877
0.000743882
0.000743885
0.000743884
0.000743884
0.000781448
0.000781448
0.000772587
0.000772622
0.000772622
0.000772669
0.000781496
0.000779311
0.000783204
0.000783204
0.000779745
0.000779485
0.000779485
0.000783364
0.000744004
0.000747899
0.000747899
0.000744436
0.00074806
0.000744177
0.000744177
0.000779311
0.000783203
0.000783204
0.000779745
0.000779486
0.000779485
0.000783364
0.000756887
0.000756449
0.000753006
0.000753006
0.000756726
0.000756727
0.000752833
0.000779312
0.000783203
0.000783204
0.000779745
0.000779485
0.000779486
0.000783364
0.000756887
0.000756449
0.000753006
0.000753006
0.000756726
0.000756727
0.000752833
0.000779312
0.000783203
0.000783205
0.000779745
0.000779485
0.000779486
0.000783364
0.000756887
0.000756449
0.000753006
0.000753006
0.000756726
0.000756727
0.000752833
0.000756888
0.000756449
0.000753006
0.000753005
0.000752832
0.000756727
0.000756727
0.000781448
0.000781448
0.000772587
0.000772622
0.000772622
0.000772669
0.000781496
0.000781448
0.000781448
0.000772587
0.000772622
0.000772622
0.000772669
0.000781496
0.000781448
0.000781448
0.000772587
0.000772622
0.000772622
0.000772669
0.000781496
0.00076376
0.000754965
0.000754965
0.000763794
0.000763794
0.000763841
0.000755012
0.00076376
0.000754965
0.000754965
0.000763794
0.000763794
0.000763841
0.000755012
0.00076376
0.000754965
0.000754965
0.000763794
0.000763794
0.000763841
0.000755012
0.00076376
0.000754965
0.000754965
0.000763794
0.000763794
0.000763841
0.000755012
0.000774339
0.000770446
0.000770686
0.00077457
0.000774574
0.000774342
0.000770691
0.000779476
0.000783295
0.000779228
0.000783412
0.000779389
0.000779255
0.000783192
0.000774367
0.00077043
0.000774617
0.000770565
0.00077447
0.000774588
0.000770651
0.000779516
0.000779274
0.000783398
0.000783167
0.00077927
0.000779511
0.000783164
0.00077434
0.000770686
0.000770446
0.00077457
0.000774343
0.000774574
0.000770691
0.000779476
0.000783294
0.000779228
0.000783412
0.00077939
0.000779255
0.000783192
0.000774367
0.00077043
0.000774618
0.000770565
0.00077447
0.000774588
0.000770651
0.000779516
0.000779274
0.000783167
0.000783398
0.000779511
0.000779271
0.000783164
0.00077454
0.000774102
0.00077066
0.00077066
0.00077438
0.00077438
0.000770486
0.00077454
0.000774102
0.00077066
0.00077066
0.000770486
0.000774379
0.00077438
0.00076166
0.000762093
0.000765553
0.000765554
0.000765714
0.000761834
0.000761833
0.00077434
0.000770445
0.000770686
0.000774569
0.000774574
0.000774342
0.000770691
0.000779476
0.000783295
0.000779227
0.000783412
0.000779254
0.000779389
0.000783192
0.000774368
0.00077043
0.000774618
0.000770564
0.000774588
0.000774471
0.000770651
0.000779516
0.000779274
0.000783398
0.000783167
0.00077927
0.000779512
0.000783164
0.00077434
0.000770446
0.000770686
0.000774569
0.000774574
0.000774342
0.000770691
0.000779476
0.000783294
0.000779228
0.000783412
0.000779255
0.00077939
0.000783192
0.000774367
0.00077043
0.000774618
0.000770565
0.000774588
0.000770651
0.00077447
0.000779516
0.000779274
0.000783398
0.000783167
0.00077927
0.000779512
0.000783164
0.000761864
0.000765748
0.000765516
0.000761623
0.000765514
0.000761619
0.00076186
0.000756715
0.00075291
0.000756966
0.000752776
0.000756819
0.000756936
0.000752996
0.000761824
0.000765763
0.000765645
0.000761577
0.000761738
0.000765542
0.000761604
0.000756687
0.000756917
0.000752791
0.000753032
0.000756922
0.000756689
0.000753036
0.000761864
0.000765748
0.000765516
0.000761623
0.000765514
0.000761619
0.00076186
0.000756714
0.000752911
0.000756966
0.000752776
0.000756936
0.000756817
0.000752997
0.000761825
0.000765763
0.000765644
0.000761577
0.000765541
0.000761604
0.000761739
0.000756687
0.000756917
0.000752792
0.000753032
0.000756922
0.000756689
0.000753036
0.00077454
0.000774102
0.000770661
0.00077066
0.00077438
0.000774379
0.000770487
0.00076166
0.000762093
0.000765553
0.000765554
0.000761834
0.000765714
0.000761834
0.00077434
0.000770445
0.000770686
0.00077457
0.000774574
0.000774343
0.000770691
0.000779476
0.000783295
0.000779228
0.000783412
0.000779255
0.00077939
0.000783192
0.000774367
0.00077043
0.000774617
0.000770565
0.000774588
0.00077447
0.000770651
0.000779516
0.000779274
0.000783398
0.000783167
0.00077927
0.000779511
0.000783164
0.00077434
0.000770686
0.000770446
0.00077457
0.000774342
0.000774574
0.000770691
0.000779476
0.000783294
0.000779228
0.000783412
0.000779255
0.00077939
0.000783192
0.000774367
0.00077043
0.000774617
0.000770565
0.000774588
0.000770651
0.00077447
0.000779516
0.000779274
0.000783167
0.000783398
0.000779511
0.00077927
0.000783164
0.000761865
0.000765748
0.000765517
0.000761623
0.000765514
0.000761619
0.00076186
0.000756715
0.000752911
0.000756965
0.000752776
0.000756818
0.000756936
0.000752997
0.000761825
0.000765763
0.000765645
0.000761577
0.000761738
0.000765542
0.000761604
0.000756687
0.000756918
0.000752791
0.000753031
0.000756922
0.000756689
0.000753036
0.000761864
0.000765517
0.000765748
0.000761623
0.000765514
0.00076186
0.000761619
0.000756715
0.000752911
0.000756965
0.000752776
0.000756936
0.000756818
0.000752997
0.000761825
0.000765763
0.000765645
0.000761577
0.000765542
0.000761604
0.000761739
0.000756687
0.000756918
0.000753032
0.000752792
0.000756689
0.000756922
0.000753037
0.00077434
0.000770686
0.000770445
0.00077457
0.000774343
0.000774574
0.00077069
0.000779476
0.000783295
0.000779228
0.000783412
0.000779389
0.000779255
0.000783192
0.000774368
0.00077043
0.000774618
0.000770564
0.000774471
0.000774588
0.000770651
0.000779515
0.000779274
0.000783167
0.000783398
0.000779511
0.00077927
0.000783165
0.000761864
0.000765748
0.000765517
0.000761623
0.000765514
0.000761619
0.00076186
0.000756715
0.000752911
0.000756965
0.000752776
0.000752997
0.000756818
0.000756936
0.000761825
0.000765763
0.000765645
0.000761577
0.000765542
0.000761738
0.000761604
0.000756687
0.000756918
0.000752792
0.000753032
0.000753037
0.000756922
0.000756689
0.000761864
0.000765517
0.000765748
0.000761623
0.000765514
0.000761859
0.000761619
0.000756715
0.00075291
0.000756966
0.000752776
0.000756936
0.000756819
0.000752997
0.000761824
0.000765763
0.000765645
0.000761577
0.000765542
0.000761604
0.000761738
0.000756687
0.000756918
0.000753031
0.000752791
0.000756689
0.000756922
0.000753036
0.00077454
0.000774102
0.000770661
0.00077066
0.00077438
0.000774379
0.000770487
0.00076166
0.000762093
0.000765553
0.000765555
0.000761834
0.000765714
0.000761833
0.00077434
0.000770686
0.000770446
0.00077457
0.000774343
0.000774574
0.000770691
0.000779476
0.000783294
0.000779228
0.000783412
0.00077939
0.000779255
0.000783192
0.000774368
0.00077043
0.000774618
0.000770565
0.00077447
0.000774588
0.000770651
0.000779516
0.000779274
0.000783167
0.000783398
0.000779511
0.00077927
0.000783164
0.000761864
0.000765517
0.000765749
0.000761623
0.000765514
0.00076186
0.000761619
0.000756715
0.000752911
0.000756966
0.000752776
0.000752997
0.000756818
0.000756936
0.000761825
0.000765763
0.000765645
0.000761577
0.000765542
0.000761739
0.000761604
0.000756687
0.000756917
0.000753031
0.000752792
0.000753036
0.00075669
0.000756922
0.000761864
0.000765517
0.000765749
0.000761623
0.000765514
0.000761859
0.000761619
0.000756715
0.000752911
0.000756966
0.000752776
0.000756936
0.000756818
0.000752997
0.000761825
0.000765763
0.000765645
0.000761577
0.000765542
0.000761604
0.000761739
0.000756687
0.000756918
0.000753031
0.000752792
0.00075669
0.000756922
0.000753036
0.00076166
0.000762093
0.000765554
0.000765554
0.000765714
0.000761833
0.000761833
0.000744168
0.00074799
0.000748108
0.000743921
0.000744082
0.000747886
0.000743947
0.000744207
0.000743966
0.000747861
0.000748093
0.000744202
0.000747859
0.000743963
0.000747989
0.000743921
0.000744082
0.00166582
0.00166574
0.00166574
0.00166731
0.00163001
0.00162993
0.00162993
0.0016315
0.00159427
0.00159418
0.00159418
0.00159575
0.00155859
0.0015585
0.0015585
0.00156006
0.00152297
0.00152288
0.00152288
0.00152444
0.0014874
0.00148731
0.00148731
0.00148887
0.00145189
0.0014518
0.0014518
0.00145336
0.00141642
0.00141633
0.00141633
0.00141789
0.001381
0.0013809
0.0013809
0.00138246
0.00134561
0.00134551
0.00134551
0.00134707
0.00131026
0.00131016
0.00131016
0.00131171
0.00127494
0.00127483
0.00127483
0.00127639
0.00123963
0.00123954
0.00123954
0.00124109
0.00120436
0.00120426
0.00120426
0.00120582
0.0011691
0.00116901
0.00116901
0.00117056
0.00113385
0.00113376
0.00113376
0.00113532
0.00109862
0.00109853
0.00109853
0.00110009
0.00106339
0.00106331
0.00106331
0.00106487
0.00102817
0.00102809
0.00102809
0.00102965
0.000992942
0.000992866
0.000992866
0.000994426
0.000957713
0.000957641
0.000957641
0.000959202
0.000922478
0.000922409
0.000922409
0.000923972
0.000887234
0.000887168
0.000887168
0.000888733
0.000851978
0.000851914
0.000851914
0.000853481
0.000816705
0.000816644
0.000816644
0.000818213
0.00166732
0.00163723
0.00166574
0.00166574
0.00163887
0.00163887
0.00166731
0.00163723
0.00166574
0.00166574
0.00163887
0.00163887
0.00166574
0.00163887
0.00163887
0.00166731
0.00163723
0.00166574
0.00163887
0.00163887
0.00163723
0.0016315
0.00160147
0.00162993
0.00162993
0.00160311
0.00160311
0.0016315
0.00160147
0.00162993
0.00162993
0.00160311
0.00160311
0.00162993
0.00160311
0.00160311
0.0016315
0.00160147
0.00162993
0.00160311
0.00160311
0.00160147
0.00159575
0.00156578
0.00159418
0.00159418
0.00156741
0.00156741
0.00159575
0.00156578
0.00159418
0.00159418
0.00156741
0.00156741
0.00159418
0.00156741