/*--------------------------------*- C++ -*----------------------------------*\
| =========                 |                                                 |
| \\      /  F ield         | OpenFOAM: The Open Source CFD Toolbox           |
|  \\    /   O peration     | Version:  v1906                                 |
|   \\  /    A nd           | Web:      www.OpenFOAM.com                      |
|    \\/     M anipulation  |                                                 |
\*---------------------------------------------------------------------------*/
FoamFile
{
    version     2.0;
    format      ascii;
    class       volScalarField;
    location    "1000";
    object      epsilon;
}
// * * * * * * * * * * * * * * * * * * * * * * * * * * * * * * * * * * * * * //

dimensions      [0 2 -3 0 0 0 0];


internalField   nonuniform List<scalar> 
171728
(
4.95567e-07
4.9733e-07
4.9733e-07
4.99575e-07
4.45573e-07
4.53735e-07
4.53737e-07
4.6371e-07
4.03752e-07
4.18513e-07
4.18517e-07
4.39411e-07
3.68363e-07
3.88552e-07
3.88558e-07
4.17667e-07
3.38015e-07
3.62102e-07
3.6211e-07
3.96081e-07
3.11646e-07
3.38273e-07
3.38281e-07
3.74581e-07
2.88473e-07
3.16637e-07
3.16646e-07
3.5371e-07
2.67923e-07
2.97021e-07
2.9703e-07
3.34147e-07
2.49579e-07
2.7937e-07
2.79379e-07
3.16483e-07
2.33137e-07
2.63679e-07
2.63688e-07
3.0116e-07
2.18365e-07
2.49955e-07
2.49964e-07
2.88493e-07
2.0509e-07
2.38198e-07
2.38208e-07
2.78695e-07
1.93171e-07
2.2841e-07
2.28421e-07
2.71875e-07
1.82498e-07
2.20601e-07
2.20612e-07
2.68164e-07
1.72979e-07
2.14776e-07
2.14788e-07
2.6765e-07
1.64542e-07
2.10942e-07
2.10959e-07
2.70514e-07
1.57123e-07
2.0911e-07
2.0913e-07
2.76719e-07
1.5067e-07
2.09301e-07
2.09322e-07
2.8631e-07
1.45138e-07
2.11554e-07
2.11581e-07
2.99266e-07
1.40492e-07
2.15885e-07
2.15919e-07
3.15595e-07
1.36701e-07
2.22305e-07
2.22349e-07
3.35312e-07
1.33741e-07
2.30848e-07
2.30889e-07
3.58256e-07
1.31595e-07
2.41526e-07
2.41553e-07
3.84403e-07
1.30252e-07
2.54257e-07
2.54298e-07
4.13392e-07
1.29694e-07
2.69066e-07
2.69082e-07
4.44814e-07
1.29961e-07
2.85961e-07
2.85957e-07
4.78981e-07
1.30918e-07
3.04483e-07
3.04679e-07
5.1423e-07
1.3266e-07
3.25237e-07
3.25315e-07
5.5104e-07
1.35299e-07
3.47392e-07
3.47516e-07
5.88386e-07
1.38501e-07
3.70697e-07
3.70438e-07
6.26013e-07
1.42373e-07
3.953e-07
3.95286e-07
6.62759e-07
1.47295e-07
4.21773e-07
4.22005e-07
7.00012e-07
1.53273e-07
4.48425e-07
4.49534e-07
7.38366e-07
1.59203e-07
4.7678e-07
4.78096e-07
7.75755e-07
1.66024e-07
5.08597e-07
5.0405e-07
8.07879e-07
1.75051e-07
5.36809e-07
5.32014e-07
8.46729e-07
1.83128e-07
5.62093e-07
5.78869e-07
8.73876e-07
1.92967e-07
5.83007e-07
6.22372e-07
8.83077e-07
2.08076e-07
6.44047e-07
6.19826e-07
9.31204e-07
2.18723e-07
7.08271e-07
5.85742e-07
1.05217e-06
2.17404e-07
6.59898e-07
5.97025e-07
9.73332e-07
2.12821e-07
6.22931e-07
8.45777e-07
9.2668e-07
2.64047e-07
7.53084e-07
8.89366e-07
1.08037e-06
3.23903e-07
8.52695e-07
6.96347e-07
1.08768e-06
3.15442e-07
7.57745e-07
6.93736e-07
1.04124e-06
2.39912e-07
8.14657e-07
8.09083e-07
1.13569e-06
2.53264e-07
9.43102e-07
8.2003e-07
1.2507e-06
3.86801e-07
8.81425e-07
8.93531e-07
1.18258e-06
4.01178e-07
7.77882e-07
9.79085e-07
1.03422e-06
3.42676e-07
8.85674e-07
9.44203e-07
1.14875e-06
3.43127e-07
1.01012e-06
8.65796e-07
1.26349e-06
4.10067e-07
9.93029e-07
9.11343e-07
1.25176e-06
4.40196e-07
9.75659e-07
1.01856e-06
1.25962e-06
4.19755e-07
9.68524e-07
1.00576e-06
1.25777e-06
4.08013e-07
9.90305e-07
9.97331e-07
1.247e-06
4.5771e-07
1.0466e-06
1.04077e-06
1.28359e-06
4.9935e-07
1.07063e-06
1.06276e-06
1.32191e-06
5.01909e-07
1.06999e-06
1.06549e-06
1.32331e-06
5.00733e-07
1.07144e-06
1.07207e-06
1.32312e-06
5.11263e-07
1.08927e-06
1.08971e-06
1.33738e-06
5.32843e-07
1.10269e-06
1.10312e-06
1.34785e-06
5.47585e-07
1.11228e-06
1.11298e-06
1.35279e-06
5.58071e-07
1.1229e-06
1.12327e-06
1.3626e-06
5.71572e-07
1.1338e-06
1.13342e-06
1.37191e-06
5.84664e-07
1.14191e-06
1.1422e-06
1.37979e-06
5.95254e-07
1.15054e-06
1.15077e-06
1.38699e-06
6.05744e-07
1.15809e-06
1.15806e-06
1.39293e-06
6.16524e-07
1.1634e-06
1.16329e-06
1.39814e-06
6.24678e-07
1.1705e-06
1.17076e-06
1.40424e-06
6.33552e-07
1.17571e-06
1.17563e-06
1.40885e-06
6.42111e-07
1.17951e-06
1.17972e-06
1.41243e-06
6.48625e-07
1.18446e-06
1.18441e-06
1.41692e-06
6.55776e-07
1.18802e-06
1.18816e-06
1.42004e-06
6.6178e-07
1.19026e-06
1.19038e-06
1.42251e-06
6.67183e-07
1.19254e-06
1.19253e-06
1.4249e-06
6.72405e-07
1.19592e-06
1.19597e-06
1.42795e-06
6.76735e-07
1.19695e-06
1.1971e-06
1.42944e-06
6.79634e-07
1.19572e-06
1.19574e-06
1.42788e-06
6.83105e-07
1.19752e-06
1.19742e-06
1.43025e-06
6.87055e-07
1.19934e-06
1.1995e-06
1.43303e-06
6.88576e-07
1.19762e-06
1.19782e-06
1.43123e-06
6.89783e-07
1.19595e-06
1.1959e-06
1.42943e-06
6.91217e-07
1.19488e-06
1.19478e-06
1.42904e-06
6.92492e-07
1.19444e-06
1.19462e-06
1.42937e-06
6.9362e-07
1.19383e-06
1.19419e-06
1.42947e-06
6.93148e-07
1.18991e-06
1.18958e-06
1.42531e-06
6.93006e-07
1.18799e-06
1.18807e-06
1.42519e-06
6.93799e-07
1.18816e-06
1.18873e-06
1.42565e-06
6.89965e-07
1.1793e-06
1.17868e-06
1.41501e-06
6.88625e-07
1.1768e-06
1.1768e-06
1.41525e-06
6.92485e-07
1.18204e-06
1.1826e-06
1.42279e-06
6.90225e-07
1.17499e-06
1.17482e-06
1.41403e-06
6.84555e-07
1.16694e-06
1.16684e-06
1.40484e-06
6.83433e-07
1.16553e-06
1.16554e-06
1.40575e-06
6.6617e-07
1.11045e-06
1.11064e-06
1.36472e-06
5.06417e-07
5.05584e-07
5.05582e-07
5.06417e-07
5.05583e-07
5.05582e-07
5.09649e-07
5.09649e-07
5.09649e-07
5.09649e-07
5.05584e-07
5.05584e-07
5.06418e-07
5.05584e-07
5.05583e-07
5.06418e-07
4.99575e-07
4.67237e-07
4.97331e-07
4.97335e-07
4.63713e-07
4.63721e-07
4.99575e-07
4.67235e-07
4.97335e-07
4.97336e-07
4.63718e-07
4.63724e-07
4.97332e-07
4.63709e-07
4.63714e-07
4.99575e-07
4.67241e-07
4.97334e-07
4.6371e-07
4.63719e-07
4.6724e-07
4.63709e-07
4.41426e-07
4.5374e-07
4.53748e-07
4.26739e-07
4.26747e-07
4.63708e-07
4.4142e-07
4.53744e-07
4.53751e-07
4.26739e-07
4.26751e-07
4.53741e-07
4.26729e-07
4.26741e-07
4.63711e-07
4.41431e-07
4.53744e-07
4.26734e-07
4.26741e-07
4.41429e-07
4.39407e-07
4.19283e-07
4.18522e-07
4.1853e-07
3.95676e-07
3.95682e-07
4.39405e-07
4.19275e-07
4.18522e-07
4.18535e-07
3.95672e-07
3.95689e-07
4.18525e-07
3.95663e-07
3.95679e-07
4.39413e-07
4.19289e-07
4.18523e-07
3.95669e-07
3.95673e-07
4.19287e-07
4.17662e-07
3.97645e-07
3.88566e-07
3.88571e-07
3.68461e-07
3.68466e-07
4.17656e-07
3.97636e-07
3.8856e-07
3.88578e-07
3.68452e-07
3.68473e-07
3.88569e-07
3.68444e-07
3.68464e-07
4.17669e-07
3.97651e-07
3.88562e-07
3.68452e-07
3.68454e-07
3.97649e-07
3.96076e-07
3.76086e-07
3.6212e-07
3.62124e-07
3.44033e-07
3.44036e-07
3.96069e-07
3.76076e-07
3.62109e-07
3.62131e-07
3.4402e-07
3.44043e-07
3.62123e-07
3.44013e-07
3.44036e-07
3.96082e-07
3.76091e-07
3.62111e-07
3.44022e-07
3.44021e-07
3.7609e-07
3.74575e-07
3.55111e-07
3.38292e-07
3.38295e-07
3.21875e-07
3.21876e-07
3.74568e-07
3.55101e-07
3.38279e-07
3.38303e-07
3.21858e-07
3.21884e-07
3.38296e-07
3.21853e-07
3.21877e-07
3.74582e-07
3.55117e-07
3.3828e-07
3.21862e-07
3.2186e-07
3.55116e-07
3.53705e-07
3.35395e-07
3.16659e-07
3.16661e-07
3.01763e-07
3.01764e-07
3.53697e-07
3.35385e-07
3.16642e-07
3.16668e-07
3.01745e-07
3.01771e-07
3.16662e-07
3.0174e-07
3.01765e-07
3.5371e-07
3.35401e-07
3.16644e-07
3.01749e-07
3.01746e-07
3.354e-07
3.34142e-07
3.17532e-07
2.97044e-07
2.97045e-07
2.83623e-07
2.83623e-07
3.34134e-07
3.17523e-07
2.97025e-07
2.97052e-07
2.83603e-07
2.83631e-07
2.97047e-07
2.83599e-07
2.83625e-07
3.34148e-07
3.17539e-07
2.97027e-07
2.83608e-07
2.83604e-07
3.17538e-07
3.16478e-07
3.01974e-07
2.79394e-07
2.79394e-07
2.67442e-07
2.67442e-07
3.1647e-07
3.01963e-07
2.79374e-07
2.79402e-07
2.67421e-07
2.67449e-07
2.79396e-07
2.67417e-07
2.67443e-07
3.16485e-07
3.0198e-07
2.79375e-07
2.67426e-07
2.67421e-07
3.01981e-07
3.01154e-07
2.8904e-07
2.63704e-07
2.63704e-07
2.53227e-07
2.53227e-07
3.01146e-07
2.89029e-07
2.63682e-07
2.63711e-07
2.53204e-07
2.53234e-07
2.63705e-07
2.532e-07
2.53227e-07
3.01161e-07
2.89047e-07
2.63683e-07
2.5321e-07
2.53205e-07
2.89046e-07
2.88485e-07
2.78951e-07
2.49981e-07
2.49981e-07
2.40981e-07
2.4098e-07
2.88476e-07
2.78939e-07
2.49958e-07
2.49989e-07
2.40957e-07
2.40988e-07
2.49982e-07
2.40952e-07
2.4098e-07
2.88492e-07
2.78958e-07
2.49959e-07
2.40962e-07
2.40957e-07
2.78955e-07
2.78688e-07
2.71828e-07
2.38226e-07
2.38227e-07
2.30702e-07
2.30702e-07
2.78679e-07
2.71815e-07
2.38203e-07
2.38235e-07
2.30676e-07
2.3071e-07
2.38227e-07
2.3067e-07
2.30701e-07
2.78696e-07
2.71837e-07
2.38203e-07
2.30681e-07
2.30676e-07
2.71835e-07
2.71867e-07
2.67863e-07
2.28441e-07
2.28443e-07
2.22399e-07
2.224e-07
2.71857e-07
2.67849e-07
2.28416e-07
2.28451e-07
2.22372e-07
2.22408e-07
2.28442e-07
2.22364e-07
2.22397e-07
2.71877e-07
2.67872e-07
2.28417e-07
2.22375e-07
2.22371e-07
2.67871e-07
2.68154e-07
2.66984e-07
2.20633e-07
2.20637e-07
2.16077e-07
2.16081e-07
2.68143e-07
2.66969e-07
2.20608e-07
2.20646e-07
2.1605e-07
2.1609e-07
2.20634e-07
2.16039e-07
2.16076e-07
2.68165e-07
2.66997e-07
2.20608e-07
2.16052e-07
2.1605e-07
2.66995e-07
2.67641e-07
2.69173e-07
2.14812e-07
2.14819e-07
2.11748e-07
2.11757e-07
2.67626e-07
2.69156e-07
2.14786e-07
2.14826e-07
2.11723e-07
2.11768e-07
2.14813e-07
2.11707e-07
2.11746e-07
2.6765e-07
2.69186e-07
2.14786e-07
2.11722e-07
2.11718e-07
2.69184e-07
2.70504e-07
2.74684e-07
2.10986e-07
2.10994e-07
2.0942e-07
2.09427e-07
2.70487e-07
2.74662e-07
2.1096e-07
2.11006e-07
2.09392e-07
2.0944e-07
2.10982e-07
2.09368e-07
2.09413e-07
2.70517e-07
2.747e-07
2.10954e-07
2.09387e-07
2.09384e-07
2.74696e-07
2.76708e-07
2.83573e-07
2.09162e-07
2.09171e-07
2.09134e-07
2.09143e-07
2.76687e-07
2.83546e-07
2.09135e-07
2.09182e-07
2.09106e-07
2.09157e-07
2.09156e-07
2.09075e-07
2.09128e-07
2.7672e-07
2.83584e-07
2.09128e-07
2.09097e-07
2.09099e-07
2.83587e-07
2.86299e-07
2.9584e-07
2.09362e-07
2.0937e-07
2.10861e-07
2.10864e-07
2.86269e-07
2.9581e-07
2.09333e-07
2.09386e-07
2.1083e-07
2.10887e-07
2.09356e-07
2.10791e-07
2.10852e-07
2.86306e-07
2.95853e-07
2.09326e-07
2.10815e-07
2.10821e-07
2.95859e-07
2.99248e-07
3.11495e-07
2.11625e-07
2.1163e-07
2.14675e-07
2.14685e-07
2.99209e-07
3.11459e-07
2.11597e-07
2.11654e-07
2.14644e-07
2.14711e-07
2.11617e-07
2.14601e-07
2.14662e-07
2.99256e-07
3.1153e-07
2.11586e-07
2.14633e-07
2.14632e-07
3.11512e-07
3.15582e-07
3.30512e-07
2.15959e-07
2.15975e-07
2.20584e-07
2.20605e-07
3.15549e-07
3.3048e-07
2.15932e-07
2.16e-07
2.20553e-07
2.20634e-07
2.15948e-07
2.20504e-07
2.20577e-07
3.15616e-07
3.30555e-07
2.15916e-07
2.20542e-07
2.20544e-07
3.30532e-07
3.35287e-07
3.52785e-07
2.22392e-07
2.22412e-07
2.2859e-07
2.28625e-07
3.35256e-07
3.52752e-07
2.22362e-07
2.22443e-07
2.28561e-07
2.28662e-07
2.22385e-07
2.28515e-07
2.28592e-07
3.35329e-07
3.52857e-07
2.22352e-07
2.28556e-07
2.28558e-07
3.52819e-07
3.58222e-07
3.78248e-07
2.30924e-07
2.30962e-07
2.38726e-07
2.38781e-07
3.58203e-07
3.78243e-07
2.30896e-07
2.30997e-07
2.38702e-07
2.38806e-07
2.30924e-07
2.38659e-07
2.38732e-07
3.58301e-07
3.78308e-07
2.3089e-07
2.38689e-07
2.38697e-07
3.78286e-07
3.84367e-07
4.06666e-07
2.4159e-07
2.4165e-07
2.50972e-07
2.51029e-07
3.84357e-07
4.06618e-07
2.41566e-07
2.41667e-07
2.50938e-07
2.51031e-07
2.41603e-07
2.5089e-07
2.50971e-07
3.84407e-07
4.06618e-07
2.41567e-07
2.50919e-07
2.50935e-07
4.06716e-07
4.13367e-07
4.37559e-07
2.54353e-07
2.54403e-07
2.65255e-07
2.6532e-07
4.13295e-07
4.37519e-07
2.54323e-07
2.54416e-07
2.65218e-07
2.65365e-07
2.54339e-07
2.6516e-07
2.65214e-07
4.13311e-07
4.37638e-07
2.54299e-07
2.65206e-07
2.65183e-07
4.37546e-07
4.44819e-07
4.71199e-07
2.69156e-07
2.69227e-07
2.81698e-07
2.81727e-07
4.44808e-07
4.71054e-07
2.69118e-07
2.69254e-07
2.81662e-07
2.81678e-07
2.69123e-07
2.8157e-07
2.81701e-07
4.44896e-07
4.7094e-07
2.69096e-07
2.81524e-07
2.81663e-07
4.71174e-07
4.79034e-07
5.06183e-07
2.86133e-07
2.86123e-07
2.99945e-07
2.99866e-07
4.7881e-07
5.05763e-07
2.86105e-07
2.86106e-07
2.999e-07
3.00022e-07
2.86132e-07
2.99652e-07
2.99941e-07
4.78716e-07
5.06242e-07
2.86082e-07
2.99858e-07
2.99885e-07
5.06186e-07
5.14156e-07
5.41849e-07
3.0469e-07
3.04706e-07
3.19711e-07
3.20093e-07
5.13853e-07
5.4261e-07
3.04648e-07
3.04852e-07
3.19696e-07
3.20121e-07
3.0474e-07
3.19861e-07
3.19992e-07
5.14351e-07
5.42689e-07
3.04688e-07
3.19957e-07
3.19937e-07
5.42531e-07
5.50355e-07
5.80249e-07
3.25045e-07
3.25461e-07
3.41912e-07
3.41915e-07
5.51194e-07
5.79948e-07
3.25023e-07
3.25461e-07
3.41855e-07
3.42043e-07
3.25309e-07
3.41759e-07
3.41732e-07
5.51216e-07
5.80238e-07
3.25256e-07
3.41876e-07
3.41719e-07
5.79792e-07
5.89076e-07
6.17626e-07
3.47687e-07
3.47527e-07
3.65198e-07
3.6496e-07
5.88515e-07
6.16825e-07
3.47639e-07
3.47682e-07
3.65048e-07
3.64799e-07
3.47393e-07
3.64776e-07
3.64928e-07
5.88817e-07
6.16587e-07
3.4738e-07
3.64613e-07
3.64826e-07
6.17245e-07
6.261e-07
6.53323e-07
3.71056e-07
3.70894e-07
3.88954e-07
3.89199e-07
6.25483e-07
6.53767e-07
3.70878e-07
3.70633e-07
3.88888e-07
3.89165e-07
3.70942e-07
3.88909e-07
3.89323e-07
6.25064e-07
6.5358e-07
3.70846e-07
3.88857e-07
3.89249e-07
6.54166e-07
6.62083e-07
6.91403e-07
3.95271e-07
3.95585e-07
4.15067e-07
4.152e-07
6.62659e-07
6.91368e-07
3.9522e-07
3.95614e-07
4.14925e-07
4.15388e-07
3.95534e-07
4.15042e-07
4.14781e-07
6.62566e-07
6.91923e-07
3.95431e-07
4.152e-07
4.14707e-07
6.90914e-07
7.00663e-07
7.30578e-07
4.21903e-07
4.2188e-07
4.43262e-07
4.42098e-07
7.00218e-07
7.27572e-07
4.21807e-07
4.2216e-07
4.43181e-07
4.4297e-07
4.21556e-07
4.41877e-07
4.42793e-07
7.00972e-07
7.29331e-07
4.21522e-07
4.42737e-07
4.42709e-07
7.29317e-07
7.39506e-07
7.64631e-07
4.5045e-07
4.48756e-07
4.70349e-07
4.69677e-07
7.36132e-07
7.63151e-07
4.50295e-07
4.49771e-07
4.70457e-07
4.70882e-07
4.49847e-07
4.69158e-07
4.71288e-07
7.38174e-07
7.65779e-07
4.49698e-07
4.70719e-07
4.71318e-07
7.67038e-07
7.72634e-07
7.97187e-07
4.76841e-07
4.77158e-07
4.97362e-07
5.00483e-07
7.7245e-07
8.03038e-07
4.77147e-07
4.78155e-07
4.97563e-07
4.97581e-07
4.78714e-07
5.007e-07
4.9952e-07
7.74122e-07
7.96242e-07
4.78822e-07
4.97767e-07
4.99484e-07
7.99718e-07
8.06308e-07
8.35004e-07
5.04933e-07
5.08367e-07
5.29978e-07
5.30852e-07
8.12117e-07
8.35895e-07
5.04869e-07
5.03947e-07
5.29086e-07
5.24941e-07
5.06034e-07
5.30511e-07
5.29475e-07
8.03824e-07
8.27918e-07
5.05912e-07
5.24429e-07
5.28841e-07
8.3698e-07
8.43303e-07
8.64861e-07
5.37691e-07
5.37433e-07
5.57799e-07
5.56228e-07
8.4311e-07
8.62394e-07
5.36609e-07
5.32715e-07
5.57156e-07
5.65158e-07
5.38398e-07
5.55154e-07
5.60392e-07
8.37351e-07
8.83037e-07
5.37691e-07
5.64602e-07
5.6022e-07
8.6847e-07
8.72231e-07
8.99485e-07
5.64492e-07
5.62996e-07
5.86667e-07
5.78795e-07
8.69492e-07
8.7985e-07
5.64152e-07
5.79194e-07
5.87762e-07
6.15665e-07
5.66263e-07
5.79393e-07
5.80497e-07
8.98867e-07
9.44757e-07
5.66221e-07
6.15835e-07
5.80505e-07
8.79547e-07
9.10712e-07
9.51433e-07
5.95307e-07
5.8205e-07
6.27611e-07
6.18884e-07
8.83915e-07
9.43184e-07
5.97141e-07
6.2223e-07
6.29958e-07
6.25772e-07
5.83364e-07
6.19104e-07
5.98665e-07
9.51152e-07
9.31691e-07
5.83404e-07
6.25198e-07
6.00213e-07
9.09594e-07
9.61053e-07
9.7691e-07
6.38983e-07
6.45435e-07
6.63949e-07
7.05373e-07
9.72846e-07
1.05158e-06
6.40533e-07
6.21743e-07
6.62251e-07
5.92974e-07
6.19057e-07
7.0246e-07
6.92319e-07
9.28949e-07
8.37654e-07
6.2146e-07
5.92388e-07
6.92191e-07
1.04098e-06
9.79846e-07
9.47047e-07
6.67902e-07
7.10615e-07
6.65748e-07
6.78737e-07
1.05397e-06
9.52123e-07
6.65345e-07
5.85292e-07
6.61132e-07
5.82152e-07
7.06637e-07
6.80887e-07
7.02812e-07
8.32832e-07
8.23324e-07
7.05232e-07
5.83966e-07
6.97217e-07
9.82144e-07
9.43465e-07
9.11559e-07
6.57251e-07
6.58073e-07
6.44155e-07
6.23629e-07
9.43129e-07
8.69499e-07
6.52266e-07
5.95312e-07
6.40518e-07
7.89527e-07
6.81987e-07
6.23966e-07
6.5093e-07
8.5472e-07
1.17961e-06
6.76053e-07
7.88879e-07
6.48156e-07
9.16626e-07
9.2342e-07
1.0739e-06
6.45901e-07
6.22802e-07
7.33624e-07
7.00757e-07
8.729e-07
1.03377e-06
6.43862e-07
8.4654e-07
7.49048e-07
9.02918e-07
6.51263e-07
6.99888e-07
7.21163e-07
1.22662e-06
1.2339e-06
6.49989e-07
9.03026e-07
7.35513e-07
1.05403e-06
1.11008e-06
1.21249e-06
7.74928e-07
7.53133e-07
8.67112e-07
8.48257e-07
1.08071e-06
1.18644e-06
7.91114e-07
8.88548e-07
8.70709e-07
7.30518e-07
7.50056e-07
8.49931e-07
7.94746e-07
1.2108e-06
9.35945e-07
7.64141e-07
7.31454e-07
7.98439e-07
1.09166e-06
1.22214e-06
1.14317e-06
8.78778e-07
8.50961e-07
8.68392e-07
7.80301e-07
1.18003e-06
1.01037e-06
8.76878e-07
6.96397e-07
8.55488e-07
6.76196e-07
7.95239e-07
7.76936e-07
7.76294e-07
9.16678e-07
9.21138e-07
7.94794e-07
6.71845e-07
7.67118e-07
1.03846e-06
1.11667e-06
8.94462e-07
8.26572e-07
7.62788e-07
6.9413e-07
7.71166e-07
1.00195e-06
1.07824e-06
8.12761e-07
7.03394e-07
6.97264e-07
7.99188e-07
7.73977e-07
7.66798e-07
7.95401e-07
9.64742e-07
1.10667e-06
7.65896e-07
7.93638e-07
8.05474e-07
1.10911e-06
8.88818e-07
1.02792e-06
6.76209e-07
8.14279e-07
7.17903e-07
9.162e-07
1.12449e-06
1.26932e-06
6.80752e-07
8.10929e-07
7.18552e-07
8.11666e-07
8.23427e-07
9.28053e-07
9.03945e-07
1.1124e-06
1.08316e-06
8.34128e-07
8.19553e-07
9.0686e-07
1.23865e-06
1.08482e-06
1.29928e-06
7.9627e-07
9.30543e-07
9.68572e-07
9.16763e-07
1.27623e-06
1.16685e-06
7.92569e-07
8.11284e-07
9.57959e-07
8.59765e-07
9.21061e-07
9.21328e-07
9.28292e-07
1.085e-06
1.14911e-06
9.19345e-07
8.63017e-07
9.20091e-07
1.20005e-06
1.30826e-06
1.20833e-06
9.91138e-07
8.81026e-07
9.53985e-07
7.94436e-07
1.1432e-06
9.88887e-07
9.80613e-07
8.93492e-07
9.52994e-07
9.77441e-07
9.11079e-07
7.88297e-07
8.18304e-07
1.17721e-06
1.29007e-06
8.99659e-07
9.70013e-07
8.2098e-07
1.03643e-06
1.1966e-06
1.10288e-06
9.16994e-07
7.84841e-07
8.5356e-07
8.35478e-07
9.88157e-07
1.12372e-06
9.21169e-07
9.87534e-07
8.63156e-07
9.77742e-07
8.04289e-07
8.28828e-07
8.23304e-07
1.30022e-06
1.24862e-06
8.10733e-07
9.69829e-07
8.39381e-07
1.113e-06
1.10405e-06
1.16245e-06
8.49021e-07
8.89104e-07
8.87596e-07
9.92435e-07
1.16627e-06
1.29415e-06
8.57615e-07
9.48914e-07
8.82767e-07
8.72553e-07
8.67565e-07
9.97355e-07
9.65546e-07
1.23702e-06
1.10319e-06
8.81115e-07
8.76188e-07
9.65231e-07
1.25592e-06
1.18533e-06
1.27441e-06
9.16156e-07
1.00405e-06
9.9157e-07
9.96342e-07
1.30026e-06
1.27236e-06
9.07949e-07
8.61442e-07
9.7925e-07
8.74742e-07
9.8129e-07
9.99915e-07
9.85911e-07
1.10024e-06
1.14384e-06
9.76556e-07
8.76791e-07
9.76509e-07
1.25077e-06
1.28953e-06
1.3026e-06
1.00846e-06
9.91398e-07
1.02413e-06
9.82476e-07
1.27219e-06
1.24469e-06
9.97948e-07
9.11938e-07
1.02133e-06
1.00662e-06
9.83137e-07
9.7953e-07
9.85184e-07
1.17543e-06
1.2874e-06
9.74994e-07
1.003e-06
9.84368e-07
1.25491e-06
1.3009e-06
1.21231e-06
1.02253e-06
9.79078e-07
9.77356e-07
9.70152e-07
1.24433e-06
1.21554e-06
1.02114e-06
1.02273e-06
9.81808e-07
1.01988e-06
9.89771e-07
9.68831e-07
9.96255e-07
1.29645e-06
1.26236e-06
9.90978e-07
1.01678e-06
9.99895e-07
1.25694e-06
1.20795e-06
1.19628e-06
9.63788e-07
9.68814e-07
9.52439e-07
9.72915e-07
1.21649e-06
1.23003e-06
9.67491e-07
1.00674e-06
9.54183e-07
9.92507e-07
9.96162e-07
9.77258e-07
9.92311e-07
1.26036e-06
1.24662e-06
9.99634e-07
9.95346e-07
9.93937e-07
1.24438e-06
1.2124e-06
1.30523e-06
9.60551e-07
9.84406e-07
1.03614e-06
1.03249e-06
1.242e-06
1.2967e-06
9.60991e-07
9.93933e-07
1.03532e-06
1.03015e-06
9.92376e-07
1.03367e-06
1.0143e-06
1.25491e-06
1.29677e-06
9.93713e-07
1.03064e-06
1.01317e-06
1.27241e-06
1.32157e-06
1.33702e-06
1.05546e-06
1.04702e-06
1.07984e-06
1.07091e-06
1.30837e-06
1.32736e-06
1.05457e-06
1.04176e-06
1.07909e-06
1.06274e-06
1.02722e-06
1.06833e-06
1.061e-06
1.30573e-06
1.31768e-06
1.02615e-06
1.06023e-06
1.0602e-06
1.31624e-06
1.33764e-06
1.31818e-06
1.0795e-06
1.07278e-06
1.06971e-06
1.07079e-06
1.32954e-06
1.31946e-06
1.07879e-06
1.06471e-06
1.06919e-06
1.06528e-06
1.06731e-06
1.07081e-06
1.07345e-06
1.31935e-06
1.31244e-06
1.06669e-06
1.0652e-06
1.07301e-06
1.32188e-06
1.31919e-06
1.31398e-06
1.06804e-06
1.06972e-06
1.06703e-06
1.06952e-06
1.32062e-06
1.31711e-06
1.06761e-06
1.06529e-06
1.06687e-06
1.06866e-06
1.07344e-06
1.06989e-06
1.07315e-06
1.314e-06
1.31566e-06
1.07303e-06
1.06904e-06
1.07287e-06
1.31998e-06
1.3168e-06
1.32495e-06
1.06822e-06
1.07131e-06
1.08002e-06
1.08434e-06
1.32045e-06
1.32956e-06
1.06828e-06
1.07191e-06
1.08e-06
1.0846e-06
1.07403e-06
1.08463e-06
1.08639e-06
1.31937e-06
1.32952e-06
1.07388e-06
1.08501e-06
1.08641e-06
1.33256e-06
1.33027e-06
1.34449e-06
1.08548e-06
1.08884e-06
1.10195e-06
1.10003e-06
1.33422e-06
1.34304e-06
1.08541e-06
1.08916e-06
1.10181e-06
1.10035e-06
1.09116e-06
1.10028e-06
1.10208e-06
1.33433e-06
1.34335e-06
1.09116e-06
1.10064e-06
1.10198e-06
1.34518e-06
1.34875e-06
1.35265e-06
1.10586e-06
1.10269e-06
1.11224e-06
1.11024e-06
1.34626e-06
1.35011e-06
1.10573e-06
1.10309e-06
1.11215e-06
1.11087e-06
1.10405e-06
1.10968e-06
1.10909e-06
1.34668e-06
1.35105e-06
1.10395e-06
1.11037e-06
1.109e-06
1.34978e-06
1.3551e-06
1.35796e-06
1.1136e-06
1.11283e-06
1.11892e-06
1.12031e-06
1.35336e-06
1.35945e-06
1.11353e-06
1.11347e-06
1.11886e-06
1.12076e-06
1.1114e-06
1.12021e-06
1.12012e-06
1.35432e-06
1.36004e-06
1.11132e-06
1.12073e-06
1.12007e-06
1.35889e-06
1.36122e-06
1.36823e-06
1.12144e-06
1.12285e-06
1.13057e-06
1.13117e-06
1.36293e-06
1.36862e-06
1.1214e-06
1.12317e-06
1.13046e-06
1.13086e-06
1.12307e-06
1.13123e-06
1.13101e-06
1.36337e-06
1.36847e-06
1.12304e-06
1.13097e-06
1.13091e-06
1.36868e-06
1.37201e-06
1.37754e-06
1.13363e-06
1.13382e-06
1.14116e-06
1.14022e-06
1.37199e-06
1.37655e-06
1.13348e-06
1.13339e-06
1.141e-06
1.14021e-06
1.13348e-06
1.14002e-06
1.14049e-06
1.37177e-06
1.3766e-06
1.13333e-06
1.14007e-06
1.14033e-06
1.37664e-06
1.38041e-06
1.38311e-06
1.1431e-06
1.14213e-06
1.1481e-06
1.14848e-06
1.37944e-06
1.38345e-06
1.14299e-06
1.14237e-06
1.14805e-06
1.14881e-06
1.14264e-06
1.14829e-06
1.14873e-06
1.37963e-06
1.38394e-06
1.14253e-06
1.14866e-06
1.14868e-06
1.38407e-06
1.38586e-06
1.38976e-06
1.14976e-06
1.15068e-06
1.15556e-06
1.15642e-06
1.3866e-06
1.39058e-06
1.1497e-06
1.15086e-06
1.15546e-06
1.15636e-06
1.15073e-06
1.1565e-06
1.15632e-06
1.38702e-06
1.39046e-06
1.15067e-06
1.15649e-06
1.15623e-06
1.39023e-06
1.39289e-06
1.39689e-06
1.15775e-06
1.15801e-06
1.16373e-06
1.16231e-06
1.39322e-06
1.39528e-06
1.15766e-06
1.15793e-06
1.16359e-06
1.16211e-06
1.15792e-06
1.16205e-06
1.16221e-06
1.39305e-06
1.39525e-06
1.15783e-06
1.16192e-06
1.16208e-06
1.39547e-06
1.39947e-06
1.4006e-06
1.16514e-06
1.16375e-06
1.16816e-06
1.16876e-06
1.39793e-06
1.40114e-06
1.165e-06
1.16358e-06
1.16807e-06
1.16894e-06
1.16373e-06
1.16856e-06
1.16901e-06
1.39791e-06
1.40126e-06
1.16359e-06
1.16877e-06
1.16893e-06
1.4014e-06
1.40303e-06
1.40585e-06
1.16928e-06
1.17054e-06
1.17398e-06
1.17474e-06
1.40399e-06
1.40655e-06
1.16923e-06
1.17077e-06
1.17389e-06
1.17466e-06
1.17077e-06
1.17485e-06
1.17468e-06
1.40414e-06
1.40663e-06
1.17071e-06
1.17483e-06
1.17459e-06
1.40658e-06
1.40865e-06
1.41102e-06
1.17575e-06
1.17569e-06
1.17978e-06
1.17862e-06
1.40888e-06
1.40977e-06
1.17563e-06
1.17555e-06
1.17967e-06
1.17871e-06
1.17564e-06
1.17832e-06
1.17874e-06
1.40889e-06
1.40985e-06
1.17552e-06
1.17846e-06
1.17864e-06
1.40995e-06
1.41329e-06
1.41383e-06
1.18059e-06
1.17981e-06
1.18273e-06
1.18341e-06
1.41218e-06
1.41436e-06
1.18051e-06
1.17997e-06
1.18265e-06
1.18339e-06
1.17995e-06
1.18335e-06
1.18346e-06
1.4123e-06
1.41447e-06
1.17988e-06
1.18337e-06
1.18338e-06
1.41455e-06
1.41609e-06
1.41765e-06
1.18368e-06
1.18447e-06
1.18709e-06
1.18729e-06
1.41686e-06
1.41794e-06
1.18358e-06
1.18437e-06
1.18697e-06
1.18731e-06
1.18448e-06
1.18724e-06
1.18721e-06
1.41689e-06
1.41798e-06
1.18439e-06
1.1873e-06
1.1871e-06
1.41783e-06
1.42004e-06
1.42056e-06
1.18809e-06
1.18813e-06
1.19005e-06
1.18993e-06
1.42012e-06
1.42025e-06
1.18799e-06
1.18822e-06
1.18997e-06
1.19004e-06
1.18802e-06
1.18978e-06
1.19e-06
1.42022e-06
1.42046e-06
1.18792e-06
1.18994e-06
1.18993e-06
1.42046e-06
1.42254e-06
1.42281e-06
1.19056e-06
1.19039e-06
1.19233e-06
1.19193e-06
1.42221e-06
1.42232e-06
1.19048e-06
1.19045e-06
1.19224e-06
1.19188e-06
1.19059e-06
1.19184e-06
1.19228e-06
1.42238e-06
1.42231e-06
1.19052e-06
1.19185e-06
1.19219e-06
1.42274e-06
1.42502e-06
1.42569e-06
1.19301e-06
1.19265e-06
1.195e-06
1.19528e-06
1.42456e-06
1.42591e-06
1.19292e-06
1.19259e-06
1.1949e-06
1.19527e-06
1.19288e-06
1.19514e-06
1.19505e-06
1.42454e-06
1.42595e-06
1.19278e-06
1.19515e-06
1.19495e-06
1.42575e-06
1.42776e-06
1.42711e-06
1.19559e-06
1.19606e-06
1.19659e-06
1.19703e-06
1.42817e-06
1.42767e-06
1.19549e-06
1.19608e-06
1.19651e-06
1.19713e-06
1.1958e-06
1.19696e-06
1.19703e-06
1.42823e-06
1.42785e-06
1.1957e-06
1.1971e-06
1.19696e-06
1.42772e-06
1.42881e-06
1.42646e-06
1.19664e-06
1.19701e-06
1.19631e-06
1.19602e-06
1.42926e-06
1.42601e-06
1.19656e-06
1.19711e-06
1.19624e-06
1.19603e-06
1.19707e-06
1.19593e-06
1.19623e-06
1.42945e-06
1.42611e-06
1.19699e-06
1.19601e-06
1.19615e-06
1.42629e-06
1.4282e-06
1.42834e-06
1.19623e-06
1.19582e-06
1.19708e-06
1.1967e-06
1.42762e-06
1.42785e-06
1.19615e-06
1.19579e-06
1.19697e-06
1.19655e-06
1.19598e-06
1.19649e-06
1.19653e-06
1.42768e-06
1.42774e-06
1.19589e-06
1.19635e-06
1.19643e-06
1.42786e-06
1.43058e-06
1.43074e-06
1.19786e-06
1.19771e-06
1.19908e-06
1.19936e-06
1.43025e-06
1.43097e-06
1.19775e-06
1.1976e-06
1.19899e-06
1.19944e-06
1.19758e-06
1.19926e-06
1.19945e-06
1.43015e-06
1.4311e-06
1.19748e-06
1.19938e-06
1.19936e-06
1.43113e-06
1.43255e-06
1.42921e-06
1.19911e-06
1.19943e-06
1.19792e-06
1.19829e-06
1.43284e-06
1.42959e-06
1.19902e-06
1.19954e-06
1.19785e-06
1.19849e-06
1.19955e-06
1.19824e-06
1.19842e-06
1.43301e-06
1.42986e-06
1.19946e-06
1.1985e-06
1.19835e-06
1.42973e-06
1.43072e-06
1.42785e-06
1.19735e-06
1.19767e-06
1.19636e-06
1.1963e-06
1.4311e-06
1.42767e-06
1.19729e-06
1.19783e-06
1.19628e-06
1.19629e-06
1.19775e-06
1.19621e-06
1.19634e-06
1.43135e-06
1.42773e-06
1.19769e-06
1.19623e-06
1.19626e-06
1.42778e-06
1.42971e-06
1.42795e-06
1.19623e-06
1.19607e-06
1.19564e-06
1.19526e-06
1.42931e-06
1.42744e-06
1.19615e-06
1.19598e-06
1.19552e-06
1.1951e-06
1.19611e-06
1.19509e-06
1.19525e-06
1.4293e-06
1.42731e-06
1.19603e-06
1.19498e-06
1.19515e-06
1.4275e-06
1.42949e-06
1.42704e-06
1.19528e-06
1.19505e-06
1.19442e-06
1.1946e-06
1.42902e-06
1.42726e-06
1.19518e-06
1.19491e-06
1.19433e-06
1.19465e-06
1.19499e-06
1.19448e-06
1.19458e-06
1.42891e-06
1.4275e-06
1.19489e-06
1.19457e-06
1.19448e-06
1.42739e-06
1.42895e-06
1.42759e-06
1.19434e-06
1.19455e-06
1.19407e-06
1.19422e-06
1.42917e-06
1.42765e-06
1.19425e-06
1.19467e-06
1.19401e-06
1.19454e-06
1.19461e-06
1.19416e-06
1.1945e-06
1.42943e-06
1.42813e-06
1.19451e-06
1.19451e-06
1.19444e-06
1.42805e-06
1.42905e-06
1.42394e-06
1.19376e-06
1.19388e-06
1.1907e-06
1.19102e-06
1.42913e-06
1.4243e-06
1.19373e-06
1.19421e-06
1.19062e-06
1.19075e-06
1.19416e-06
1.19093e-06
1.19071e-06
1.42956e-06
1.42393e-06
1.19413e-06
1.1907e-06
1.19063e-06
1.4239e-06
1.42538e-06
1.42311e-06
1.18978e-06
1.19003e-06
1.1885e-06
1.18817e-06
1.42572e-06
1.42224e-06
1.18967e-06
1.18966e-06
1.18834e-06
1.18806e-06
1.18971e-06
1.18802e-06
1.18835e-06
1.42531e-06
1.42242e-06
1.18959e-06
1.18794e-06
1.18819e-06
1.42291e-06
1.42534e-06
1.42419e-06
1.18862e-06
1.18814e-06
1.18897e-06
1.18847e-06
1.42436e-06
1.42388e-06
1.18847e-06
1.18818e-06
1.18893e-06
1.18904e-06
1.18849e-06
1.18834e-06
1.18904e-06
1.42473e-06
1.42461e-06
1.18836e-06
1.18895e-06
1.18901e-06
1.4244e-06
1.42543e-06
1.41364e-06
1.18852e-06
1.18827e-06
1.18048e-06
1.18158e-06
1.42528e-06
1.41501e-06
1.18852e-06
1.18881e-06
1.18041e-06
1.18108e-06
1.18867e-06
1.18151e-06
1.1808e-06
1.42593e-06
1.41432e-06
1.18866e-06
1.18105e-06
1.18069e-06
1.414e-06
1.41465e-06
1.41199e-06
1.17836e-06
1.17936e-06
1.1762e-06
1.1764e-06
1.41602e-06
1.41172e-06
1.17822e-06
1.17873e-06
1.176e-06
1.17604e-06
1.17864e-06
1.17632e-06
1.17629e-06
1.41527e-06
1.41161e-06
1.17847e-06
1.17597e-06
1.1761e-06
1.41197e-06
1.41537e-06
1.42092e-06
1.17731e-06
1.1769e-06
1.18242e-06
1.18158e-06
1.41476e-06
1.41964e-06
1.17714e-06
1.17688e-06
1.18241e-06
1.18214e-06
1.17723e-06
1.18141e-06
1.18217e-06
1.41488e-06
1.4204e-06
1.17709e-06
1.18202e-06
1.18218e-06
1.42056e-06
1.42311e-06
1.41276e-06
1.18291e-06
1.18222e-06
1.17725e-06
1.1779e-06
1.422e-06
1.41336e-06
1.18292e-06
1.18273e-06
1.17721e-06
1.17772e-06
1.1827e-06
1.17778e-06
1.17764e-06
1.42268e-06
1.41328e-06
1.18271e-06
1.17765e-06
1.17753e-06
1.41321e-06
1.41353e-06
1.40304e-06
1.17426e-06
1.17506e-06
1.16698e-06
1.16752e-06
1.41421e-06
1.40374e-06
1.17418e-06
1.17486e-06
1.16686e-06
1.16738e-06
1.1748e-06
1.16749e-06
1.16726e-06
1.4141e-06
1.40364e-06
1.17466e-06
1.16736e-06
1.16714e-06
1.40337e-06
1.40459e-06
1.40432e-06
1.16662e-06
1.16699e-06
1.16592e-06
1.16548e-06
1.4052e-06
1.40364e-06
1.1665e-06
1.16687e-06
1.16581e-06
1.16543e-06
1.16676e-06
1.16532e-06
1.16562e-06
1.4051e-06
1.40361e-06
1.16665e-06
1.16532e-06
1.16552e-06
1.40386e-06
1.40624e-06
1.38534e-06
1.16623e-06
1.1657e-06
1.14533e-06
1.14493e-06
1.4054e-06
1.38497e-06
1.16611e-06
1.16567e-06
1.14531e-06
1.14501e-06
1.16591e-06
1.14489e-06
1.1455e-06
1.40536e-06
1.38521e-06
1.16581e-06
1.145e-06
1.14546e-06
1.38576e-06
1.36417e-06
1.11051e-06
1.11041e-06
1.3641e-06
1.11053e-06
1.11059e-06
6.65896e-07
6.6598e-07
6.66358e-07
1.11089e-06
1.3644e-06
1.11089e-06
5.35663e-07
5.35601e-07
5.35655e-07
5.35655e-07
5.34573e-07
5.35516e-07
5.33634e-07
5.35654e-07
5.34573e-07
5.35517e-07
5.35654e-07
5.33634e-07
5.35256e-07
5.35986e-07
5.35987e-07
1.10713e-06
3.88084e-06
9.33892e-07
4.60615e-06
1.26081e-05
1.66011e-05
1.10724e-06
3.88108e-06
9.33927e-07
4.60654e-06
4.95567e-07
4.95567e-07
4.95567e-07
4.57231e-07
4.57231e-07
4.57232e-07
4.57232e-07
5.43144e-07
1.22027e-06
4.95565e-07
4.85522e-07
5.25341e-07
1.20946e-06
4.82301e-07
1.26097e-05
1.66037e-05
5.43162e-07
4.95565e-07
1.22025e-06
4.85523e-07
5.2532e-07
4.82302e-07
1.20945e-06
2.52172e-06
2.52242e-06
4.8419e-07
2.37248e-06
2.37288e-06
1.4308e-06
5.59331e-06
1.32967e-06
6.13636e-06
2.12844e-05
2.31105e-05
1.4312e-06
5.59398e-06
1.32973e-06
6.13701e-06
4.45572e-07
4.45573e-07
4.45573e-07
4.13542e-07
4.13542e-07