/*--------------------------------*- C++ -*----------------------------------*\
| =========                 |                                                 |
| \\      /  F ield         | OpenFOAM: The Open Source CFD Toolbox           |
|  \\    /   O peration     | Version:  v1906                                 |
|   \\  /    A nd           | Web:      www.OpenFOAM.com                      |
|    \\/     M anipulation  |                                                 |
\*---------------------------------------------------------------------------*/
FoamFile
{
    version     2.0;
    format      ascii;
    class       volScalarField;
    location    "1000";
    object      epsilon;
}
// * * * * * * * * * * * * * * * * * * * * * * * * * * * * * * * * * * * * * //

dimensions      [0 2 -3 0 0 0 0];


internalField   nonuniform List<scalar> 
171728
(
1.33171e-06
9.19808e-07
7.323e-07
9.48816e-07
9.42492e-07
8.6754e-07
7.39405e-07
7.99569e-07
1.05786e-06
8.7709e-07
8.14621e-07
1.04817e-06
3.16862e-07
2.51524e-07
3.89571e-07
2.82103e-07
1.88485e-05
1.87613e-05
5.72715e-06
5.70121e-06
4.05748e-06
9.35253e-06
4.11487e-06
4.04791e-06
9.03883e-06
8.97294e-06
4.09263e-06
2.0496e-06
3.61738e-06
5.28854e-07
5.00454e-07
2.10729e-06
2.03959e-06
7.32862e-07
3.33228e-06
4.98044e-07
3.31794e-06
4.96188e-07
2.0823e-06
1.81562e-05
1.80507e-05
9.6318e-07
5.24413e-06
5.194e-06
5.22243e-06
5.20708e-06
1.80426e-05
1.79634e-05
9.2823e-06
4.0822e-06
3.59944e-06
5.84521e-07
2.11624e-06
8.91051e-06
4.07053e-06
6.01118e-07
3.33814e-06
2.0966e-06
2.06225e-06
7.41642e-07
3.30375e-06
5.10366e-07
3.31649e-06
5.09955e-07
2.05097e-06
4.04172e-06
8.9663e-06
8.9515e-06
4.03286e-06
2.07133e-06
8.01295e-07
5.27278e-07
3.36758e-06
5.24369e-07
3.39598e-06
2.05799e-06
4.04841e-06
9.01822e-06
9.03007e-06
4.03678e-06
1.77322e-05
5.20385e-06
5.16415e-06
1.76645e-05
2.14958e-06
6.12383e-07
3.30721e-06
6.23088e-07
2.05374e-06
2.13997e-06
8.17188e-07
5.63108e-07
3.33783e-06
5.63257e-07
3.41129e-06
2.05687e-06
4.10081e-06
8.86455e-06
4.00539e-06
4.08522e-06
8.94274e-06
9.00417e-06
3.99652e-06
1.07499e-06
5.28569e-06
5.23886e-06
5.32398e-06
5.31916e-06
1.81193e-05
1.80953e-05
1.79966e-05
1.80267e-05
1.88121e-05
1.87379e-05
4.77502e-06
3.03087e-06
5.66084e-06
1.00067e-05
9.91588e-06
2.97654e-06
4.86166e-06
4.79166e-06
3.03473e-06
5.64418e-06
9.99628e-06
9.92338e-06
2.99293e-06
4.86234e-06
1.00726e-05
2.23462e-05
2.23228e-05
2.22133e-05
2.21993e-05
1.02644e-05
1.22138e-05
1.08102e-05
4.70929e-06
4.07662e-06
1.21919e-05
1.08282e-05
4.73496e-06
2.21453e-05
9.32086e-06
7.1548e-06
7.14016e-06
2.21695e-05
1.22273e-05
4.09743e-06
1.0851e-05
4.78148e-06
1.08407e-05
4.76099e-06
1.22382e-05
1.21744e-05
1.07996e-05
4.68693e-06
4.06203e-06
1.21566e-05
1.08171e-05
4.70173e-06
2.19546e-05
9.01717e-06
7.07141e-06
7.05577e-06
2.19721e-05
2.19446e-05
7.01523e-06
8.99501e-06
2.19124e-05
7.03576e-06
1.21866e-05
4.07836e-06
1.08413e-05
4.7317e-06
1.083e-05
4.71716e-06
1.21986e-05
1.81126e-05
1.80898e-05
9.22501e-06
2.09842e-05
2.09833e-05
9.24793e-06
2.10368e-05
2.1014e-05
4.225e-06
2.58108e-06
5.22923e-06
9.11346e-06
2.57805e-06
9.071e-06
4.22749e-06
4.21299e-06
2.57026e-06
5.19345e-06
9.04601e-06
9.02003e-06
2.57062e-06
4.21279e-06
4.22647e-06
9.03639e-06
2.58047e-06
5.22244e-06
2.57786e-06
4.23418e-06
9.04278e-06
4.21751e-06
9.0153e-06
2.58145e-06
5.19701e-06
4.22878e-06
9.01404e-06
2.57389e-06
9.21698e-06
2.11746e-05
2.11282e-05
2.10894e-05
2.10554e-05
9.21902e-06
1.79994e-05
1.798e-05
2.19964e-05
9.26404e-06
7.09084e-06
7.08782e-06
2.19972e-05
1.21497e-05
4.08695e-06
4.73613e-06
1.07762e-05
4.7383e-06
1.07802e-05
1.21481e-05
2.18473e-05
8.95819e-06
7.06673e-06
7.08046e-06
2.18325e-05
1.21159e-05
4.08149e-06
1.07648e-05
4.72994e-06
1.07715e-05
4.7403e-06
1.21049e-05
1.21085e-05
4.68422e-06
1.07586e-05
4.03798e-06
1.21084e-05
4.68005e-06
1.07575e-05
2.18334e-05
8.95417e-06
6.99381e-06
6.99323e-06
2.18357e-05
2.18381e-05
6.99381e-06
8.9514e-06
2.18371e-05
6.99314e-06
1.21089e-05
4.03466e-06
4.6718e-06
1.07569e-05
4.6751e-06
1.07565e-05
1.21121e-05
1.21211e-05
1.07631e-05
4.69186e-06
4.04348e-06
1.21234e-05
1.07613e-05
4.68551e-06
2.18366e-05
9.02009e-06
7.0004e-06
7.00981e-06
2.18427e-05
2.18394e-05
7.02855e-06
9.0252e-06
2.184e-05
7.01793e-06
1.21174e-05
4.03912e-06
1.07585e-05
4.67676e-06
1.07588e-05
4.6801e-06
1.2117e-05
1.78042e-05
4.30438e-06
2.56145e-06
5.29039e-06
8.79e-06
2.64367e-06
8.93183e-06
4.17921e-06
4.29341e-06
2.55012e-06
5.26301e-06
8.75163e-06
8.90588e-06
2.63816e-06
4.16413e-06
9.16626e-06
2.0294e-05
2.0255e-05
2.04361e-05
2.04118e-05
8.9182e-06
1.77425e-05
1.2076e-05
4.76934e-06
1.07474e-05
4.06763e-06
1.21068e-05
4.7354e-06
1.07217e-05
2.17659e-05
8.92293e-06
7.00058e-06
7.02762e-06
2.17387e-05
2.18301e-05
7.06412e-06
1.2044e-05
4.03235e-06
4.67042e-06
1.0677e-05
4.69787e-06
1.06948e-05
1.20247e-05
1.2059e-05
4.7157e-06
1.07423e-05
4.0542e-06
1.20819e-05
4.68105e-06
1.07184e-05
2.16604e-05
8.956e-06
6.92612e-06
6.94984e-06
2.16503e-05
2.16983e-05
7.0113e-06
8.9784e-06
2.17331e-05
6.97684e-06
1.20361e-05
4.02175e-06
4.62104e-06
1.06779e-05
4.64771e-06
1.06939e-05
1.20239e-05
9.41676e-06
2.11967e-05
2.12144e-05
9.46777e-06
2.11945e-05
2.12006e-05
4.33326e-06
2.66277e-06
5.29756e-06
9.17325e-06
2.67474e-06
9.17366e-06
4.31109e-06
4.33733e-06
2.65686e-06
5.26077e-06
9.1407e-06
2.67736e-06
9.15527e-06
4.30892e-06
4.35823e-06
9.18681e-06
2.70417e-06
5.30929e-06
4.38457e-06
2.68999e-06
9.17856e-06
4.37086e-06
9.2052e-06
2.72594e-06
5.28736e-06
4.40402e-06
2.70259e-06
9.1788e-06
9.36768e-06
2.12021e-05
2.11773e-05
2.11926e-05
2.1181e-05
9.32518e-06
1.81016e-05
1.80971e-05
1.79963e-05
1.80092e-05
2.89863e-06
1.28149e-06
2.0089e-06
2.01595e-06
1.96141e-06
1.97429e-06
2.94938e-06
2.39929e-06
9.52239e-07
1.54664e-06
1.54689e-06
1.54612e-06
1.54753e-06
2.39999e-06
2.45255e-06
1.12912e-06
1.54208e-06
1.5408e-06
1.62437e-06
1.62565e-06
2.35875e-06
2.51957e-06
1.06071e-06
1.64566e-06
1.64991e-06
1.65883e-06
1.66635e-06
2.50129e-06
1.5229e-07
1.65181e-07
1.46896e-07
7.67539e-08
7.78261e-08
2.5199e-07
1.43848e-07
1.43713e-07
1.43095e-07
1.43269e-07
7.39134e-08
7.42234e-08
1.90545e-07
1.91484e-07
1.9206e-07
8.48905e-08
8.52854e-08
2.79337e-07
1.49812e-07
1.60564e-07
1.47107e-07
1.58718e-07
7.57198e-08
7.6196e-08
1.37358e-06
2.3181e-06
1.21522e-06
2.06676e-06
1.35562e-06
2.34474e-06
1.22298e-06
1.65917e-06
2.18284e-06
3.57232e-06
2.93233e-06
2.14108e-06
2.90232e-06
1.69053e-06
1.41631e-06
2.08806e-06
2.39751e-06
1.25843e-06
2.37326e-06
1.24614e-06
1.43649e-06
1.3307e-06
2.27813e-06
1.21064e-06
2.05122e-06
1.33094e-06
2.2885e-06
1.21392e-06
1.50539e-06
1.87256e-06
3.32297e-06
2.7765e-06
2.76588e-06
1.8691e-06
1.50753e-06
1.50042e-06
2.74704e-06
1.86934e-06
3.31838e-06
1.50215e-06
2.75344e-06
1.86726e-06
1.33996e-06
2.06705e-06
2.31596e-06
1.23387e-06
2.3021e-06
1.22746e-06
1.34347e-06
2.40018e-06
9.51992e-07
1.55081e-06
1.55544e-06
1.54556e-06
2.40556e-06
1.54797e-06
1.69279e-06
2.19366e-06
3.56965e-06
2.91834e-06
2.16489e-06
2.9058e-06
1.71068e-06
1.46454e-06
2.12065e-06
2.3947e-06
1.31014e-06
2.39242e-06
1.31097e-06
1.47053e-06
1.58561e-06
1.85743e-06
3.3924e-06
2.78664e-06
2.82055e-06
1.92314e-06
1.53696e-06
1.41986e-06
2.10877e-06
1.2862e-06
2.32359e-06
1.30074e-06
2.34401e-06
1.38689e-06
1.35536e-06
2.30014e-06
1.2483e-06
2.05762e-06
1.3644e-06
2.29527e-06
1.24273e-06
1.51176e-06
1.86787e-06
3.30506e-06
2.7471e-06
1.86979e-06
2.74869e-06
1.50705e-06
1.51205e-06
2.75754e-06
1.88102e-06
3.30872e-06
1.52333e-06
1.87158e-06
2.75167e-06
1.3554e-06
2.05337e-06
2.28931e-06
1.23774e-06
2.29122e-06
1.24259e-06
1.34959e-06
1.38306e-06
1.25691e-06
2.32505e-06
2.0665e-06
1.38962e-06
1.25228e-06
2.31939e-06
1.56438e-06
1.93804e-06
3.37715e-06
2.78746e-06
2.7948e-06
1.94757e-06
1.55499e-06
1.56641e-06
2.81088e-06
1.96533e-06
3.38508e-06
1.57572e-06
2.80261e-06
1.95373e-06
1.38292e-06
2.0613e-06
1.24641e-06
2.30848e-06
1.25195e-06
2.3127e-06
1.37552e-06
1.4572e-06
1.35159e-06
2.40881e-06
2.11973e-06
1.50006e-06
1.32675e-06
2.37024e-06
1.58708e-06
1.84758e-06
3.37179e-06
2.75162e-06
1.92137e-06
2.79849e-06
1.52894e-06
1.63732e-06
2.85586e-06
1.42523e-06
2.0846e-06
1.27232e-06
2.28916e-06
1.30503e-06
2.326e-06
1.37972e-06
1.43413e-06
1.34081e-06
2.37684e-06
2.11457e-06
1.45253e-06
1.32382e-06
2.35238e-06
1.588e-06
1.93917e-06
3.36037e-06
2.76397e-06
2.78756e-06
1.96006e-06
1.56381e-06
1.60151e-06
2.84074e-06
1.9998e-06
3.3845e-06
1.62199e-06
2.81488e-06
1.97831e-06
1.42335e-06
2.08396e-06
1.27993e-06
2.29794e-06
1.30735e-06
2.32305e-06
1.39543e-06
2.54031e-06
1.06376e-06
1.6842e-06
1.69754e-06
2.5613e-06
1.66882e-06
1.67958e-06
6.5502e-07
1.18802e-06
1.18792e-06
1.42033e-06
1.4237e-06
1.42004e-06
1.42233e-06
1.18791e-06
1.18804e-06
1.19168e-06
1.19148e-06
1.42022e-06
1.42199e-06
1.18782e-06
1.18793e-06
1.19157e-06
1.19139e-06
1.18815e-06
1.19132e-06
1.19136e-06
1.42014e-06
1.42185e-06
1.18807e-06
1.19129e-06
1.19124e-06
1.42187e-06
1.19154e-06
1.19143e-06
4.23961e-06
9.55867e-06
9.56433e-06
4.23735e-06
1.90769e-05
1.90844e-05
4.2397e-06
9.56038e-06
9.56625e-06
4.23719e-06
6.55197e-07
6.55243e-07
6.55331e-07
6.61312e-07
6.61214e-07
6.61182e-07
6.61219e-07
2.29873e-06
3.64932e-06
9.33998e-07
1.18963e-06
3.65017e-06
9.36004e-07
2.29696e-06
1.90768e-05
1.90849e-05
2.29854e-06
9.34004e-07
3.64882e-06
1.18947e-06
9.35922e-07
3.64994e-06
2.29685e-06
5.65073e-06
5.6526e-06
1.42053e-06
5.65137e-06
5.65329e-06
5.6494e-06
5.65136e-06
1.90752e-05
1.90836e-05
1.90775e-05
1.9086e-05
5.65068e-06
5.6525e-06
1.42063e-06
5.65212e-06
5.65398e-06
1.90887e-05
1.90837e-05
1.90912e-05
1.90861e-05
1.4232e-06
5.65079e-06
5.65272e-06
5.65233e-06
5.65421e-06
4.23968e-06
9.55995e-06
9.5651e-06
4.23745e-06
2.29876e-06
3.64887e-06
9.33762e-07
1.18971e-06
3.65027e-06
9.35854e-07
2.29673e-06
2.29881e-06
3.64965e-06
9.33867e-07
1.1897e-06
3.65067e-06
9.35924e-07
2.29682e-06
4.24015e-06
9.56618e-06
9.56473e-06
4.23997e-06
4.24022e-06
9.56669e-06
9.56541e-06
4.24006e-06
2.2993e-06
1.191e-06
3.64975e-06
9.39139e-07
3.6507e-06
9.37757e-07
2.29915e-06
2.29935e-06
1.19087e-06
3.64983e-06
9.39113e-07
3.651e-06
9.37778e-07
2.29918e-06
5.65283e-06
5.65115e-06
1.42058e-06
5.65358e-06
5.65162e-06
1.90744e-05
1.90817e-05
1.90892e-05
1.90844e-05
1.42302e-06
5.65158e-06
5.64958e-06
5.65365e-06
5.65179e-06
1.90866e-05
1.90817e-05
2.29878e-06
3.64953e-06
9.33819e-07
1.18958e-06
3.65094e-06
9.35858e-07
2.29675e-06
4.23954e-06
9.55968e-06
9.56511e-06
4.23713e-06
2.29866e-06
9.33874e-07
3.64928e-06
1.1895e-06
9.35835e-07
3.65041e-06
2.29669e-06
4.24017e-06
9.56826e-06
9.56669e-06
4.24017e-06
2.29934e-06
1.19088e-06
3.6505e-06
9.39144e-07
3.65147e-06
9.37731e-07
2.29929e-06
4.24e-06
9.56691e-06
9.56549e-06
4.23999e-06
2.29921e-06
1.1907e-06
9.39049e-07
3.64983e-06
9.3767e-07
3.65087e-06
2.29914e-06
4.23955e-06
9.55988e-06
9.56481e-06
4.23757e-06
2.29865e-06
9.34026e-07
3.64903e-06
1.18969e-06
9.3601e-07
3.6499e-06
2.29688e-06
4.23944e-06
9.55942e-06
9.56439e-06
4.23747e-06
2.2992e-06
1.19075e-06
3.64928e-06
9.39038e-07
3.6505e-06
9.37782e-07
2.29893e-06
4.24004e-06
9.5664e-06
9.5651e-06
4.23986e-06
2.29911e-06
1.19079e-06
9.3903e-07
3.64908e-06
9.37779e-07
3.6502e-06
2.29884e-06
4.23992e-06
9.56615e-06
9.5647e-06
4.23972e-06
5.65233e-06
5.65049e-06
1.42034e-06
5.65323e-06
5.65147e-06
1.90753e-05
1.90833e-05
1.90903e-05
1.9085e-05
1.42279e-06
5.6517e-06
5.64996e-06
5.6535e-06
5.65162e-06
1.90888e-05
1.90835e-05
2.29863e-06
9.34087e-07
3.64962e-06
1.18958e-06
9.36004e-07
3.65051e-06
2.29691e-06
4.23933e-06
9.55924e-06
9.56471e-06
4.23741e-06
4.23945e-06
9.56069e-06
9.5655e-06
4.23737e-06
2.29905e-06
1.19064e-06
9.38997e-07
3.64936e-06
9.37691e-07
3.65031e-06
2.29888e-06
2.29911e-06
1.19066e-06
9.39016e-07
3.6497e-06
9.37746e-07
3.65082e-06
2.2989e-06
4.23989e-06
9.56673e-06
9.56511e-06
4.23975e-06
4.23989e-06
9.56705e-06
9.56578e-06
4.23978e-06
1.90755e-05
1.9083e-05
1.90773e-05
1.90849e-05
1.42291e-06
5.64954e-06
5.65152e-06
5.65145e-06
5.65337e-06
1.90882e-05
1.90831e-05
1.90901e-05
1.90849e-05
9.39798e-07
3.64913e-06
2.29882e-06
9.56637e-06
4.23974e-06
3.64975e-06
9.56722e-06
1.90884e-05
1.90904e-05
1.26488e-05
1.12407e-05
4.88495e-06
4.23928e-06
1.12382e-05
4.88473e-06
1.26515e-05
2.27525e-05
9.56161e-06
7.24095e-06
7.24121e-06
2.27456e-05
2.27525e-05
7.24267e-06
9.56256e-06
7.24281e-06
2.2758e-05
1.26478e-05
4.23813e-06
1.1234e-05
4.88284e-06
1.12372e-05
4.88358e-06
1.26443e-05
1.90811e-05
1.90815e-05
1.26489e-05
4.8852e-06
1.12412e-05
4.23915e-06
4.88473e-06
1.12387e-05
1.26516e-05
2.27519e-05
9.56341e-06
7.242e-06
7.24257e-06
2.27449e-05
2.27523e-05
7.24415e-06
9.5644e-06
7.24411e-06
2.27578e-05
1.26479e-05
4.23816e-06
4.88274e-06
1.12346e-05
4.88373e-06
1.12376e-05
1.26444e-05
1.90812e-05
1.90817e-05
9.96409e-06
2.23861e-05
2.23852e-05
2.23829e-05
2.2382e-05
9.9635e-06
4.70643e-06
2.97848e-06
5.65096e-06
9.92535e-06
2.97881e-06
9.92748e-06
4.70634e-06
4.71212e-06
2.97962e-06
5.65285e-06
9.93002e-06
2.97997e-06
9.93213e-06
4.71202e-06
4.70702e-06
9.92867e-06
5.65159e-06
2.97929e-06
2.97933e-06
9.92783e-06
4.70673e-06
4.71271e-06
9.93337e-06
5.65349e-06
2.98045e-06
2.98048e-06
9.93251e-06
4.71244e-06
9.96342e-06
2.23792e-05
2.23783e-05
2.23833e-05
2.23824e-05
9.9633e-06
4.70353e-06
2.97755e-06
9.92893e-06
5.64882e-06
4.70453e-06
2.97674e-06
9.9294e-06
4.70931e-06
2.97874e-06
9.93372e-06
5.65078e-06
4.71029e-06
2.97796e-06
9.93419e-06
9.95854e-06
2.23894e-05
2.23887e-05
9.95943e-06
2.23933e-05
2.23926e-05
1.90798e-05
1.90803e-05
1.90821e-05
1.90827e-05
9.96527e-06
2.23883e-05
2.23875e-05
2.23849e-05
2.2384e-05
9.96499e-06
4.7067e-06
2.97836e-06
5.65117e-06
9.92567e-06
9.92839e-06
2.97896e-06
4.70638e-06
4.71237e-06
2.97947e-06
5.65298e-06
9.93043e-06
9.93316e-06
2.98004e-06
4.71202e-06
4.70767e-06
9.93031e-06
5.65216e-06
2.97979e-06
9.92902e-06
4.70756e-06
2.97969e-06
4.71332e-06
9.93511e-06
5.65401e-06
2.98089e-06
9.9338e-06
4.71323e-06
2.98079e-06
9.96397e-06
2.23802e-05
2.23793e-05
2.2385e-05
2.23841e-05
9.96344e-06
1.90862e-05
1.90863e-05
1.90887e-05
1.90887e-05
9.96417e-06
2.23876e-05
2.23868e-05
9.96522e-06
2.23906e-05
2.23898e-05
4.70709e-06
2.97864e-06
5.65174e-06
9.93094e-06
9.93067e-06
2.97956e-06
4.70593e-06
4.71281e-06
2.97983e-06
5.65366e-06
9.93583e-06
9.93554e-06
2.98073e-06
4.7117e-06
4.70722e-06
9.93037e-06
2.98003e-06
5.65189e-06
4.70778e-06
9.9308e-06
2.97969e-06
4.71294e-06
9.93519e-06
2.98115e-06
5.65378e-06
4.71345e-06
9.93565e-06
2.98083e-06
9.96374e-06
2.23924e-05
2.23917e-05
2.23896e-05
2.23889e-05
9.96182e-06
1.26488e-05
1.12408e-05
4.88521e-06
4.23935e-06
1.12384e-05
4.88486e-06
1.26514e-05
2.27521e-05
9.56271e-06
7.24252e-06
7.24294e-06
2.27454e-05
2.27524e-05
7.24417e-06
9.56353e-06
7.24422e-06
2.27577e-05
1.26478e-05
4.23823e-06
1.12342e-05
4.883e-06
1.12373e-05
4.88392e-06
1.26444e-05
1.26542e-05
1.12414e-05
4.88544e-06
4.24012e-06
1.26521e-05
1.12432e-05
4.88532e-06
2.27617e-05
9.56571e-06
7.24283e-06
2.27666e-05
7.24345e-06
2.27625e-05
7.24347e-06
9.56558e-06
2.27575e-05
7.24302e-06
1.26547e-05
4.24029e-06
1.12455e-05
4.88504e-06
1.26567e-05
1.12439e-05
4.88546e-06
1.26541e-05
1.12415e-05
4.88559e-06
4.24019e-06
1.26521e-05
1.12433e-05
4.88555e-06
2.27619e-05
9.56624e-06
7.24418e-06
7.24461e-06
2.27666e-05
2.27623e-05
7.24467e-06
9.56614e-06
2.27575e-05
7.24436e-06
1.26547e-05
4.24036e-06
1.12456e-05
4.88533e-06
1.1244e-05
4.88564e-06
1.26566e-05
9.96439e-06
2.23857e-05
2.23863e-05
2.23826e-05
2.23833e-05
9.9638e-06
4.71233e-06
2.97973e-06
5.65309e-06
9.93053e-06
9.93272e-06
2.98011e-06
4.71222e-06
4.70663e-06
2.97866e-06
5.65123e-06
9.92601e-06
2.979e-06
9.9281e-06
4.7065e-06
4.713e-06
9.9339e-06
5.6538e-06
2.98066e-06
9.9331e-06
2.98069e-06
4.71271e-06
4.70725e-06
9.92915e-06
5.652e-06
2.9795e-06
2.97955e-06
9.92843e-06
4.70696e-06
9.96369e-06
2.2379e-05
2.23798e-05
2.2383e-05
2.23838e-05
9.96352e-06
1.90785e-05
1.90788e-05
1.90868e-05
1.90869e-05
9.9621e-06
2.23846e-05
2.23852e-05
9.96369e-06
2.23872e-05
2.23878e-05
4.71186e-06
2.97912e-06
5.65265e-06
9.93403e-06
2.98009e-06
9.93384e-06
4.7107e-06
4.70605e-06
2.97788e-06
5.65077e-06
9.92918e-06
9.92901e-06
2.97886e-06
4.7049e-06
4.71202e-06
9.9338e-06
2.98082e-06
5.65289e-06
2.98023e-06
4.71284e-06
9.93409e-06
4.70624e-06
9.92902e-06
2.97963e-06
5.65084e-06
4.70706e-06
9.92928e-06
2.97901e-06
9.96159e-06
2.23888e-05
2.23894e-05
2.23859e-05
2.23865e-05
9.95993e-06
1.90841e-05
1.90843e-05
1.26489e-05
1.1241e-05
4.88483e-06
4.23902e-06
1.12385e-05
4.8846e-06
1.26516e-05
2.27519e-05
9.56252e-06
7.24103e-06
7.24127e-06
2.27451e-05
2.27519e-05
7.24264e-06
9.56341e-06
7.24279e-06
2.27574e-05
1.26479e-05
4.23807e-06
1.12344e-05
4.88281e-06
1.12374e-05
4.88349e-06
1.26446e-05
1.26544e-05
4.88562e-06
1.1242e-05
4.24025e-06
1.26524e-05
4.88562e-06
1.12439e-05
2.27621e-05
9.56775e-06
7.2445e-06
2.27668e-05
7.24487e-06
2.27625e-05
7.24481e-06
9.56759e-06
2.27576e-05
7.24457e-06
1.2655e-05
4.24035e-06
4.88543e-06
1.12462e-05
1.2657e-05
4.8857e-06
1.12445e-05
1.26543e-05
1.12417e-05
4.88535e-06
4.24008e-06
1.26523e-05
1.12436e-05
4.88525e-06
2.27614e-05
9.56644e-06
7.24264e-06
7.24328e-06
2.27663e-05
2.27621e-05
7.24337e-06
9.56631e-06
2.2757e-05
7.24291e-06
1.26549e-05
4.24018e-06
1.12459e-05
4.88504e-06
1.12442e-05
4.88542e-06
1.26569e-05
1.26484e-05
4.8849e-06
1.12407e-05
4.23929e-06
4.8846e-06
1.12384e-05
1.26509e-05
2.27508e-05
9.56254e-06
7.24194e-06
7.24231e-06
2.27442e-05
2.2751e-05
7.24344e-06
9.56332e-06
7.2435e-06
2.27563e-05
1.26474e-05
4.23826e-06
4.88291e-06
1.12344e-05
4.88375e-06
1.12373e-05
1.26441e-05
1.26486e-05
1.12405e-05
4.88463e-06
4.23919e-06
1.12382e-05
4.88435e-06
1.26511e-05
2.27511e-05
9.56207e-06
7.24034e-06
7.2407e-06
2.27445e-05
2.27513e-05
7.24185e-06
9.56286e-06
7.24191e-06
2.27565e-05
1.26476e-05
4.23815e-06
1.12342e-05
4.88269e-06
1.12372e-05
4.8835e-06
1.26443e-05
1.26536e-05
4.88523e-06
1.12415e-05
4.23999e-06
1.26516e-05
4.88517e-06
1.12433e-05
2.27605e-05
9.56592e-06
7.24351e-06
7.24388e-06
2.27653e-05
2.27609e-05
7.24392e-06
9.56579e-06
2.27561e-05
7.24362e-06
1.26543e-05
4.24015e-06
4.88496e-06
1.12457e-05
4.88525e-06
1.12439e-05
1.26563e-05
1.26539e-05
1.12413e-05
4.88495e-06
4.23987e-06
1.26518e-05
1.12431e-05
4.88488e-06
2.27608e-05
9.56559e-06
7.24199e-06
7.24236e-06
2.27655e-05
2.27611e-05
7.24236e-06
9.56545e-06
2.27563e-05
7.24207e-06
1.26545e-05
4.24002e-06
1.12456e-05
4.88463e-06
1.12438e-05
4.88495e-06
1.26567e-05
9.96464e-06
2.23865e-05
2.23868e-05
2.23831e-05
2.23835e-05
9.96418e-06
4.71216e-06
2.97939e-06
5.6525e-06
9.92959e-06
9.93199e-06
2.97972e-06
4.71202e-06
4.70644e-06
2.97832e-06
5.65082e-06
9.92505e-06
2.97871e-06
9.92741e-06
4.70632e-06
4.71289e-06
9.93355e-06
5.65346e-06
2.98037e-06
9.93247e-06
2.98039e-06
4.71266e-06
4.70717e-06
9.92893e-06
5.6516e-06
2.97932e-06
2.97931e-06
9.92788e-06
4.70692e-06
9.96377e-06
2.23789e-05
2.23794e-05
2.23833e-05
2.23837e-05
9.96351e-06
1.90796e-05
1.90801e-05
1.90876e-05
1.90877e-05
9.96287e-06
2.23856e-05
2.2386e-05
9.96422e-06
2.23885e-05
2.23888e-05
4.71206e-06
2.97917e-06
5.65282e-06
9.93417e-06
2.98009e-06
9.93387e-06
4.71093e-06
4.70629e-06
2.97805e-06
5.65092e-06
9.92956e-06
9.92925e-06
2.97896e-06
4.70514e-06
4.71216e-06
9.93357e-06
2.98062e-06
5.65281e-06
2.98016e-06
4.71284e-06
9.934e-06
4.70639e-06
9.92895e-06
2.97952e-06
5.65109e-06
4.7071e-06
9.92937e-06
2.97907e-06
9.96237e-06
2.23904e-05
2.23906e-05
2.23875e-05
2.23877e-05
9.96058e-06
1.90862e-05
1.90862e-05
1.26483e-05
4.88454e-06
1.12405e-05
4.2391e-06
4.88434e-06
1.12381e-05
1.26509e-05
2.2751e-05
9.56208e-06
7.24023e-06
7.24073e-06
2.27444e-05
2.27513e-05
7.24206e-06
9.56298e-06
7.24207e-06
2.27567e-05
1.26473e-05
4.23798e-06
4.88269e-06
1.12341e-05
4.88329e-06
1.12371e-05
1.2644e-05
1.26481e-05
4.88482e-06
1.12406e-05
4.23909e-06
4.88471e-06
1.12382e-05
1.26506e-05
2.27508e-05
9.56327e-06
7.24246e-06
7.24254e-06
2.27443e-05
2.27508e-05
7.24368e-06
9.56403e-06
7.24392e-06
2.27562e-05
1.26471e-05
4.23815e-06
4.88312e-06
1.12343e-05
4.88363e-06
1.12372e-05
1.26439e-05
1.26538e-05
4.88503e-06
1.12413e-05
4.23983e-06
1.26516e-05
4.88491e-06
1.12431e-05
2.27611e-05
9.56615e-06
7.24226e-06
7.24263e-06
2.27659e-05
2.27614e-05
7.24261e-06
9.56598e-06
2.27565e-05
7.24234e-06
1.26544e-05
4.24003e-06
4.88474e-06
1.12455e-05
4.88508e-06
1.12438e-05
1.26565e-05
1.26533e-05
4.88532e-06
1.12413e-05
4.2399e-06
1.26513e-05
4.88516e-06
1.12432e-05
2.27601e-05
9.56658e-06
7.24355e-06
7.24421e-06
2.27651e-05
2.27608e-05
7.24434e-06
9.56647e-06
2.27557e-05
7.24382e-06
1.26539e-05
4.24e-06
4.88489e-06
1.12456e-05
4.88532e-06
1.12438e-05
1.2656e-05
1.90796e-05
1.908e-05
1.90814e-05
1.90818e-05
9.96182e-06
2.23851e-05
2.23843e-05
9.96341e-06
2.23879e-05
2.23871e-05
4.70586e-06
2.97774e-06
5.65054e-06
9.92908e-06
4.70471e-06
2.97869e-06
9.92881e-06
4.7116e-06
2.97895e-06
5.65249e-06
9.93385e-06
4.71048e-06
2.97987e-06
9.93357e-06
4.70604e-06
9.92862e-06
2.97942e-06
5.65076e-06
4.70684e-06
2.97883e-06
9.92899e-06
4.71177e-06
9.93334e-06
2.98058e-06
5.65272e-06
4.71255e-06
2.98002e-06
9.93372e-06
9.96131e-06
2.23899e-05
2.23891e-05
9.9596e-06
2.23869e-05
2.23861e-05
1.90856e-05
1.90856e-05
1.90875e-05
1.90875e-05
2.27702e-05
7.24228e-06
9.56721e-06
2.27653e-05
7.24195e-06
1.26598e-05
4.23936e-06
1.12463e-05
4.88464e-06
1.26574e-05
1.12483e-05
4.88432e-06
9.56797e-06
1.90919e-05
1.90938e-05
4.4419e-07
4.44172e-07
6.5722e-07
4.46377e-07
4.46331e-07
2.37556e-07
2.35705e-07
2.83253e-06
1.97257e-06
1.97281e-06
1.4191e-06
1.97219e-06
1.9724e-06
2.83256e-06
2.83073e-06
1.97335e-06
1.9736e-06
1.42194e-06
2.83176e-06
1.97211e-06
1.97235e-06
2.83267e-06
1.97243e-06
1.97264e-06
1.41889e-06
1.97213e-06
1.97234e-06
2.83259e-06
2.83363e-06
1.4239e-06
1.97351e-06
1.97375e-06
1.97466e-06
1.97488e-06
2.83258e-06
2.8327e-06
1.97276e-06
1.97267e-06
1.41903e-06
1.97231e-06
1.9724e-06
2.83272e-06
2.83298e-06
1.42359e-06
1.97319e-06
1.97303e-06
1.97441e-06
1.97426e-06
2.83193e-06
2.83242e-06
1.97252e-06
1.97245e-06
1.4189e-06
1.97206e-06
1.97212e-06
2.83243e-06
2.83295e-06
1.42342e-06
1.97316e-06
1.97305e-06
1.97427e-06
1.97416e-06
2.83197e-06
2.83275e-06
1.42346e-06
1.97283e-06
1.97306e-06
2.83173e-06
1.97402e-06
1.97426e-06
4.44268e-07
4.44268e-07
6.57329e-07
4.46446e-07
4.46437e-07
2.37591e-07
2.35736e-07
4.4438e-07
4.44383e-07
6.57294e-07
4.46495e-07
4.46489e-07
2.37669e-07
2.35826e-07
4.44411e-07
4.44397e-07
6.57412e-07
4.46574e-07
4.46524e-07
2.37679e-07
2.35822e-07
6.59412e-07
4.51009e-07
4.50932e-07
4.48735e-07
4.48661e-07
2.39568e-07
2.41682e-07
6.59416e-07
4.51023e-07
4.50961e-07
4.4878e-07
4.48749e-07
2.39607e-07
2.41716e-07
6.59358e-07
4.51013e-07
4.50959e-07
4.48781e-07
4.48756e-07
2.39664e-07
2.41755e-07
6.59451e-07
4.51072e-07
4.50989e-07
4.48868e-07
4.48797e-07
2.39686e-07
2.41784e-07
1.66966e-06
2.54433e-06
1.54682e-06
2.29843e-06
2.54412e-06
1.54749e-06
1.66847e-06
1.84655e-06
2.22773e-06
3.64943e-06
3.02498e-06
2.22758e-06
3.02504e-06
1.84741e-06
1.84888e-06
3.02604e-06
3.65036e-06
2.22847e-06
2.22885e-06
3.02621e-06
1.84788e-06
1.66714e-06
2.29758e-06
2.54271e-06
1.54599e-06
2.54332e-06
1.54537e-06
1.66826e-06
1.6694e-06
1.54669e-06
2.54399e-06
2.29826e-06
1.54738e-06
2.54374e-06
1.66821e-06
1.84622e-06
2.2274e-06
3.64904e-06
3.02425e-06
2.22724e-06
3.02434e-06
1.84712e-06
1.84851e-06
3.02544e-06
3.65004e-06
2.22821e-06
2.22854e-06
3.02554e-06
1.84752e-06
1.66695e-06
2.29738e-06
1.54596e-06
2.54237e-06
1.54532e-06
2.54292e-06
1.66809e-06
2.83331e-06
1.42186e-06
1.97311e-06
1.97331e-06
1.97365e-06
1.97388e-06
2.83307e-06
2.83372e-06
1.42189e-06
1.9734e-06
1.9736e-06
2.83357e-06
1.97388e-06
1.97408e-06
2.83352e-06
1.42178e-06
1.97459e-06
1.9748e-06
2.83405e-06
1.97391e-06
1.97412e-06
1.66949e-06
2.5443e-06
1.54674e-06
2.29838e-06
2.54395e-06
1.54738e-06
1.66836e-06
1.84625e-06
2.22746e-06
3.64919e-06
3.0244e-06
3.02458e-06
2.22739e-06
1.84705e-06
1.8487e-06
3.02581e-06
3.65032e-06
2.22857e-06
3.02589e-06
2.22885e-06
1.84777e-06
1.66688e-06
2.29742e-06
2.54233e-06
1.54577e-06
2.54309e-06
1.54517e-06
1.66795e-06
1.66966e-06
2.54452e-06
1.54678e-06
2.29844e-06
2.54422e-06
1.54744e-06
1.66851e-06
1.84658e-06
2.22798e-06
3.64985e-06
3.02515e-06
3.02527e-06
2.22784e-06
1.84742e-06
1.84897e-06
3.02637e-06
3.6508e-06
2.22883e-06
3.0265e-06
1.848e-06
2.22919e-06
1.66709e-06
2.2975e-06
2.54266e-06
1.54584e-06
2.54337e-06
1.54523e-06
1.66817e-06
1.66937e-06
2.54476e-06
1.54869e-06
2.29932e-06
1.67065e-06
2.54462e-06
1.54791e-06
1.85028e-06
2.22838e-06
3.65047e-06
3.02552e-06
2.22927e-06
3.02646e-06
1.84897e-06
1.84867e-06
3.02652e-06
2.2294e-06
3.65033e-06
2.22883e-06
1.84977e-06
3.02615e-06
1.67129e-06
2.29956e-06
2.54425e-06
1.54852e-06
2.54472e-06
1.54945e-06
1.66987e-06
1.66947e-06
2.54498e-06
1.54873e-06
2.29935e-06
1.67076e-06
2.54479e-06
1.54794e-06
1.85038e-06
2.22837e-06
3.65063e-06
3.02582e-06
3.02685e-06
2.22934e-06
1.84901e-06
1.84879e-06
3.02704e-06
2.22955e-06
3.65053e-06
1.84993e-06
3.02658e-06
2.2289e-06
1.67136e-06
2.29959e-06
2.54441e-06
1.54853e-06
2.54491e-06
1.54947e-06
1.66993e-06
2.83354e-06
1.4219e-06
1.97343e-06
1.97332e-06
1.97387e-06
1.97398e-06
2.8333e-06
2.8329e-06
1.42155e-06
1.97449e-06
1.97436e-06
1.97374e-06
2.83363e-06
1.9736e-06
1.66959e-06
2.54446e-06
1.54675e-06
2.29835e-06
2.54408e-06
1.5474e-06
1.66844e-06
1.84641e-06
2.22781e-06
3.64978e-06
3.02485e-06
3.025e-06
2.22771e-06
1.84724e-06
1.84886e-06
3.02631e-06
3.65102e-06
2.2289e-06
3.02638e-06
2.22919e-06
1.84792e-06
1.667e-06
2.29742e-06
2.54247e-06
1.54585e-06
2.54319e-06
1.54523e-06
1.6681e-06
1.6694e-06
1.54667e-06
2.54414e-06
2.29826e-06
1.54733e-06
2.54383e-06
1.66822e-06
1.84623e-06
2.22761e-06
3.64945e-06
3.02441e-06
3.02452e-06
2.22745e-06
1.84711e-06
1.84856e-06
3.02568e-06
3.65054e-06
2.22846e-06
3.02578e-06
1.84758e-06
2.22879e-06
1.66689e-06
2.29736e-06
1.54583e-06
2.54233e-06
1.5452e-06
2.543e-06
1.66801e-06
1.66945e-06
2.54496e-06
1.54868e-06
2.29938e-06
1.67074e-06
2.54484e-06
1.5479e-06
1.85048e-06
2.22878e-06
3.65125e-06
3.02616e-06
2.22967e-06
3.02711e-06
1.84917e-06
1.84883e-06
3.02708e-06
2.22977e-06
3.65106e-06
2.2292e-06
1.84995e-06
3.02672e-06
1.6714e-06
2.29964e-06
2.54454e-06
1.54855e-06
2.54499e-06
1.54945e-06
1.66999e-06
1.66918e-06
1.54859e-06
2.54462e-06
2.29926e-06
1.67047e-06
1.54781e-06
2.54449e-06
1.85002e-06
2.22826e-06
3.65061e-06
3.02534e-06
3.0263e-06
2.22914e-06
1.84871e-06
1.8484e-06
3.02638e-06
2.22926e-06
3.65042e-06
1.84953e-06
3.02599e-06
2.22867e-06
1.67109e-06
2.29949e-06
1.54843e-06
2.54417e-06
1.54935e-06
2.54462e-06
1.66968e-06
1.66951e-06
1.54676e-06
2.54411e-06
2.29834e-06
1.54744e-06
2.54389e-06
1.66833e-06
1.84638e-06
2.22758e-06
3.64918e-06
3.02449e-06
2.22742e-06
3.02454e-06
1.84725e-06
1.84866e-06
3.02554e-06
3.65005e-06
2.22829e-06
2.22865e-06
3.0257e-06
1.84766e-06
1.66703e-06
2.2975e-06
1.54595e-06
2.5425e-06
1.54533e-06
2.54311e-06
1.66814e-06
1.66934e-06
2.54476e-06
1.54867e-06
2.29917e-06
1.67067e-06
2.54451e-06
1.54786e-06
1.85018e-06
2.22791e-06
3.65011e-06
3.0254e-06
1.84876e-06
2.22889e-06
3.02643e-06
1.84861e-06
3.02669e-06
2.22913e-06
3.64998e-06
1.84977e-06
2.22847e-06
3.02618e-06
1.67122e-06
2.29936e-06
2.54411e-06
1.54838e-06
1.66974e-06
2.54462e-06
1.54932e-06
1.66919e-06
1.5486e-06
2.54452e-06
2.29909e-06
1.6705e-06
1.5478e-06
2.54428e-06
1.84994e-06
2.22778e-06
3.64984e-06
3.02496e-06
3.02595e-06
2.22872e-06
1.84855e-06
1.84838e-06
3.02618e-06
2.22895e-06
3.64974e-06
1.84953e-06
3.02569e-06
2.2283e-06
1.67105e-06
2.29926e-06
1.54832e-06
2.54389e-06
1.54925e-06
2.54438e-06
1.66959e-06
2.83327e-06
1.42167e-06
1.97311e-06
1.97304e-06
1.97357e-06
1.97365e-06
2.83307e-06
2.83285e-06
1.42134e-06
1.97422e-06
1.97412e-06
1.97352e-06
2.83344e-06
1.97343e-06
1.6696e-06
1.54675e-06
2.54424e-06
2.29832e-06
1.54744e-06
2.54404e-06
1.66841e-06
1.84659e-06
2.22797e-06
3.64976e-06
3.02505e-06
2.22779e-06
3.02507e-06
1.84748e-06
1.84884e-06
3.02605e-06
3.65066e-06
2.22865e-06
2.22903e-06
3.02624e-06
1.84783e-06
1.66717e-06
2.2975e-06
1.54602e-06
2.54271e-06
1.54538e-06
2.54326e-06
1.66829e-06
1.66909e-06
1.54852e-06
2.54445e-06
2.29903e-06
1.6704e-06
1.54772e-06
2.54426e-06
1.84991e-06
2.22794e-06
3.65005e-06
3.02511e-06
1.84857e-06
2.22882e-06
3.02604e-06
1.8483e-06
3.02611e-06
2.22897e-06
3.64992e-06
1.84944e-06
2.22837e-06
3.02573e-06
1.67098e-06
2.29929e-06
1.54827e-06
2.54394e-06
1.66955e-06
1.54919e-06
2.54441e-06
1.66924e-06
1.54857e-06
2.54468e-06
2.2991e-06
1.67055e-06
1.54777e-06
2.54445e-06
1.85009e-06
2.22817e-06
3.65047e-06
3.02542e-06
3.02645e-06
2.22911e-06
1.8487e-06
1.84853e-06
3.0267e-06
2.22933e-06
3.65035e-06
1.84969e-06
3.02619e-06
2.22868e-06
1.6711e-06
2.29931e-06
1.5483e-06
2.54406e-06
1.54922e-06
2.54457e-06
1.66965e-06
2.83267e-06
1.42144e-06
1.97411e-06
1.97434e-06
2.83337e-06
1.97337e-06
1.97359e-06
1.84791e-06
2.22808e-06
3.02516e-06
3.64838e-06
2.22699e-06
1.84975e-06
3.02421e-06
1.66939e-06
2.29833e-06
1.54951e-06
2.54385e-06
1.5484e-06
1.67119e-06
2.54327e-06
2.22849e-06
3.64899e-06
2.22739e-06
3.65115e-07
7.39951e-07
7.82342e-07
1.0453e-06
4.07002e-07
8.27488e-07
6.91721e-07
1.0593e-06
2.99753e-07
1.00117e-06
9.93587e-07
1.28971e-06
2.94575e-07
1.046e-06
1.01344e-06
1.29948e-06
3.99825e-07
9.37131e-07
9.39481e-07
1.224e-06
4.81667e-07
9.14267e-07
9.84754e-07
1.20877e-06
4.91327e-07
9.7278e-07
1.01393e-06
1.2027e-06
4.58895e-07
1.05583e-06
1.03157e-06
1.32321e-06
4.3381e-07
1.04723e-06
1.02233e-06
1.30979e-06
4.41252e-07
1.0382e-06
1.02897e-06
1.30052e-06
4.97887e-07
1.08261e-06
1.09076e-06
1.34275e-06
5.21871e-07
1.08923e-06
1.09099e-06
1.33111e-06
5.21168e-07
1.07969e-06
1.07939e-06
1.31649e-06
5.22499e-07
1.09209e-06
1.0927e-06
1.33749e-06
5.43214e-07
1.11661e-06
1.11704e-06
1.36006e-06
5.62772e-07
1.1249e-06
1.12476e-06
1.36464e-06
5.71725e-07
1.13231e-06
1.13204e-06
1.36984e-06
5.82507e-07
1.14134e-06
1.14153e-06
1.37973e-06
5.94821e-07
1.14999e-06
1.15007e-06
1.38546e-06
6.05933e-07
1.15786e-06
1.15811e-06
1.39336e-06
6.16411e-07
1.16465e-06
1.16476e-06
1.39976e-06
6.24683e-07
1.16995e-06
1.16919e-06
1.40273e-06
6.33498e-07
1.17473e-06
1.17589e-06
1.40888e-06