/*--------------------------------*- C++ -*----------------------------------*\
| =========                 |                                                 |
| \\      /  F ield         | OpenFOAM: The Open Source CFD Toolbox           |
|  \\    /   O peration     | Version:  v1906                                 |
|   \\  /    A nd           | Web:      www.OpenFOAM.com                      |
|    \\/     M anipulation  |                                                 |
\*---------------------------------------------------------------------------*/
FoamFile
{
    version     2.0;
    format      ascii;
    class       volScalarField;
    location    "1000";
    object      nut;
}
// * * * * * * * * * * * * * * * * * * * * * * * * * * * * * * * * * * * * * //

dimensions      [0 2 -1 0 0 0 0];


internalField   nonuniform List<scalar> 
171728
(
9.95613e-05
9.81204e-05
0.00011839
0.0001171
9.92941e-05
0.000200465
0.000119492
0.00012759
0.000221316
0.000202857
0.00012962
0.000129964
9.11442e-05
0.000101139
0.000164569
0.000106334
2.37872e-05
2.37503e-05
7.03674e-05
7.14102e-05
8.88766e-05
5.03523e-05
8.97072e-05
8.93197e-05
4.97857e-05
4.96658e-05
8.95216e-05
0.000114062
8.8868e-05
0.000114355
0.000120764
0.000113742
0.000115412
0.000122048
8.81079e-05
0.000120221
8.9558e-05
0.000121772
0.000113957
2.34922e-05
2.34479e-05
0.000127077
6.90584e-05
6.90088e-05
7.04075e-05
7.09764e-05
2.34449e-05
2.34137e-05
5.0226e-05
9.28533e-05
9.13224e-05
0.000114979
0.00012404
4.95675e-05
9.33876e-05
0.000150757
0.000102868
0.000127564
0.000120433
0.00012357
8.88407e-05
0.000121923
9.09648e-05
0.000123125
0.000119462
9.15588e-05
4.96535e-05
4.96326e-05
9.10222e-05
0.000120473
0.000127564
0.000122913
9.17323e-05
0.000123298
9.23273e-05
0.000120152
9.1798e-05
4.97523e-05
4.97758e-05
9.1267e-05
2.3316e-05
7.75075e-05
7.79618e-05
2.32891e-05
0.00013082
0.000156824
0.000104539
0.000150353
0.00013461
0.000127989
0.000128724
0.000134997
9.3526e-05
0.000129764
9.55422e-05
0.000131672
9.62127e-05
4.94888e-05
9.47877e-05
9.54718e-05
4.96153e-05
4.97346e-05
9.4263e-05
0.000129595
7.12231e-05
7.16469e-05
7.17027e-05
7.36573e-05
2.3478e-05
2.34693e-05
2.34252e-05
2.34405e-05
2.37704e-05
2.37385e-05
8.67599e-05
0.000103372
6.83019e-05
4.87412e-05
4.85905e-05
9.82287e-05
9.02201e-05
8.83227e-05
0.000105877
6.98299e-05
4.87234e-05
4.85934e-05
0.000100879
9.17395e-05
7.12403e-05
2.16831e-05
2.16749e-05
2.16387e-05
2.16325e-05
7.36114e-05
3.62748e-05
4.05136e-05
8.46907e-05
8.89967e-05
3.62525e-05
4.05365e-05
8.50817e-05
2.0128e-05
5.02916e-05
7.50697e-05
7.4358e-05
2.01362e-05
3.6289e-05
8.92669e-05
4.05664e-05
8.63649e-05
4.05527e-05
8.56741e-05
3.63007e-05
3.6238e-05
4.05005e-05
8.57265e-05
8.91372e-05
3.62201e-05
4.05226e-05
8.55239e-05
2.00717e-05
4.97462e-05
7.46354e-05
7.43703e-05
2.00776e-05
2.00684e-05
7.40333e-05
4.97058e-05
2.00584e-05
7.41489e-05
3.62503e-05
8.91901e-05
4.05541e-05
8.58271e-05
4.05392e-05
8.55144e-05
3.62629e-05
2.34738e-05
2.34643e-05
7.46362e-05
2.12415e-05
2.12446e-05
7.54735e-05
2.12568e-05
2.12525e-05
9.01573e-05
0.000102153
6.94796e-05
4.72547e-05
0.000103017
4.71831e-05
8.92771e-05
9.04567e-05
0.000102786
6.96371e-05
4.71556e-05
4.71191e-05
0.000103886
8.94884e-05
9.12365e-05
4.71361e-05
0.000105622
6.9955e-05
0.000104212
9.23889e-05
4.71433e-05
9.16434e-05
4.71171e-05
0.000107326
7.03273e-05
9.28967e-05
4.71127e-05
0.000105529
7.39227e-05
2.13015e-05
2.12889e-05
2.12737e-05
2.12653e-05
7.3439e-05
2.3427e-05
2.34193e-05
2.00858e-05
5.01898e-05
7.55775e-05
7.54267e-05
2.00862e-05
3.62168e-05
9.29669e-05
8.82136e-05
4.04756e-05
8.81148e-05
4.04807e-05
3.62153e-05
2.00409e-05
4.96596e-05
7.67916e-05
7.71212e-05
2.00362e-05
3.6183e-05
9.38718e-05
4.04619e-05
8.93567e-05
4.04706e-05
9.00494e-05
3.61716e-05
3.61762e-05
8.73238e-05
4.04528e-05
9.13855e-05
3.61762e-05
8.72014e-05
4.04512e-05
2.0037e-05
4.9635e-05
7.47512e-05
7.48696e-05
2.00375e-05
2.00385e-05
7.51457e-05
4.96317e-05
2.00382e-05
7.50569e-05
3.61763e-05
9.11311e-05
8.6904e-05
4.04499e-05
8.69879e-05
4.04496e-05
3.61791e-05
3.61868e-05
4.04587e-05
8.78892e-05
9.16563e-05
3.61893e-05
4.04563e-05
8.77831e-05
2.00364e-05
4.97563e-05
7.49818e-05
7.49803e-05
2.00379e-05
2.00375e-05
7.52045e-05
4.97664e-05
2.00379e-05
7.51399e-05
3.61828e-05
9.13861e-05
4.04523e-05
8.74353e-05
4.04528e-05
8.75193e-05
3.61823e-05
2.33507e-05
0.000121246
0.000142733
8.04988e-05
4.6753e-05
0.000149385
4.70162e-05
0.000114467
0.000121882
0.000144942
8.12422e-05
4.67084e-05
4.69948e-05
0.000151626
0.000115054
8.67923e-05
2.10173e-05
2.10079e-05
2.10726e-05
2.10687e-05
8.16682e-05
2.33271e-05
3.61482e-05
9.26904e-05
4.04446e-05
9.65727e-05
3.6179e-05
9.26294e-05
4.04123e-05
2.00181e-05
4.96024e-05
7.7055e-05
7.77291e-05
2.00092e-05
2.00386e-05
7.85991e-05
3.6115e-05
9.5804e-05
9.04199e-05
4.0354e-05
9.14411e-05
4.03776e-05
3.60944e-05
3.61311e-05
9.08342e-05
4.04377e-05
9.58015e-05
3.61545e-05
9.05842e-05
4.04077e-05
1.99848e-05
4.9642e-05
7.51366e-05
7.57151e-05
1.99809e-05
1.99975e-05
7.70457e-05
4.96857e-05
2.00088e-05
7.64983e-05
3.61071e-05
9.51262e-05
8.91016e-05
4.03546e-05
8.9758e-05
4.03759e-05
3.60937e-05
7.77411e-05
2.13168e-05
2.13212e-05
7.79503e-05
2.13158e-05
2.13162e-05
9.48918e-05
0.000108852
7.12678e-05
4.73872e-05
0.000109245
4.73888e-05
9.45561e-05
9.61973e-05
0.000111069
7.22743e-05
4.73188e-05
0.000111788
4.73461e-05
9.55985e-05
9.54556e-05
4.74147e-05
0.00011041
7.14749e-05
9.5777e-05
0.000109948
4.73989e-05
9.69651e-05
4.74357e-05
0.000113339
7.30651e-05
9.74111e-05
0.000112786
4.73889e-05
7.73498e-05
2.1317e-05
2.13072e-05
2.13147e-05
2.1309e-05
7.70069e-05
2.34711e-05
2.34697e-05
2.34256e-05
2.34322e-05
0.000102617
8.93468e-05
0.000109792
0.00011161
0.000101121
0.000102706
0.000109385
0.000108303
0.000120016
0.000113785
0.000114146
0.000115275
0.000115892
0.000107119
0.000170186
0.000215823
0.000194404
0.000196204
0.000196357
0.000197894
0.000163485
0.000117034
0.000130225
0.000124606
0.000126143
0.000125145
0.000126714
0.000116412
0.000107707
0.000107972
0.000112648
0.000126846
0.000124496
0.000105815
0.000107637
0.00010734
0.000110846
0.000110221
0.000125462
0.000122823
0.000130671
0.00013213
0.000123264
0.000124265
0.000128783
0.000107517
0.000107714
0.000111309
0.000110557
0.000109473
0.000125098
0.000124008
0.000116973
0.000108338
0.000124474
0.000113358
0.000118292
0.000107881
0.000123603
0.000107905
0.000108554
8.65727e-05
0.000102131
0.000103963
9.9773e-05
0.000111549
0.000115732
0.000113206
0.000110444
0.000121816
0.000108933
0.000122087
0.000116665
0.000124579
0.000112366
0.000126391
0.000114782
0.000125382
0.000111798
0.000125741
0.000118673
0.000111385
8.8647e-05
0.000101234
0.00010166
0.000112187
0.000117876
0.000119286
0.000102652
0.000114414
8.91596e-05
0.000120547
0.000102259
0.000113027
0.000123791
0.000114122
0.000110575
0.000124152
0.000111139
0.000124604
0.000123176
0.000110117
0.000122635
0.000120515
0.000121636
0.000117505
0.000112279
0.000118444
0.000115888
0.000113582
8.94778e-05
0.000106661
0.000108923
0.000104816
0.00011965
0.000125699
0.000123475
0.000118122
0.000136334
0.000116721
0.000134791
0.00012825
0.000160469
0.000157346
0.000106509
0.00011778
0.000120665
0.000160816
0.000161336
0.000151379
0.000127162
0.000144836
0.000126893
0.000143156
0.000128062
0.000153693
0.000129353
0.000116206
0.000131422
0.00012036
0.0001297
0.000115704
0.000131736
0.000121916
0.000112839
8.93734e-05
0.000103215
0.000114036
0.000103688
0.000120558
0.000123159
0.000105236
0.000117569
9.01546e-05
0.000124781
0.0001157
0.000104513
0.000128894
0.000119806
0.000114546
0.000131389
0.000114954
0.000131693
0.000127853
0.000130127
0.000131565
0.000116822
0.000120632
0.000129687
0.000131951
0.000116949
0.000125597
0.000118389
9.18209e-05
0.000106127
0.00010628
0.000118718
0.000125376
0.000125672
0.000106746
0.000119538
9.21752e-05
0.000125346
0.000106666
0.000119231
0.00013027
0.000120439
0.000132288
0.000116512
0.000132124
0.000116732
0.000130379
0.000155686
0.000145848
0.000130918
0.000132701
0.000151079
0.000149326
0.000132835
0.000166361
0.000161526
0.000108555
0.000121015
0.000164832
0.000124336
0.000167659
0.000162488
0.000125773
0.000159109
0.000134447
0.000155701
0.000132007
0.000152202
0.000133757
0.000162473
0.000137605
0.000140027
0.000122405
0.000129601
0.000135511
0.000142615
0.000123608
0.000131816
0.000122833
9.41603e-05
0.000110046
0.000110828
0.000123388
0.000132751
0.000130799
0.000110955
0.000122825
9.50738e-05
0.000129199
0.000111444
0.000123707
0.000139022
0.000131206
0.00014788
0.000124216
0.000144989
0.000124545
0.000141437
0.00011793
0.000130226
0.000126304
0.000127291
0.000118398
0.000125937
0.000127536
0.000203655
0.000198813
0.000198882
0.000180673
0.000182431
0.000180507
0.000182323
0.000198672
0.000198762
0.000200633
0.000200693
0.000180602
0.00018236
0.000198713
0.000198837
0.000200638
0.000200607
0.000198839
0.000200744
0.000200708
0.000180691
0.000182283
0.000198873
0.000200656
0.000200718
0.000182329
0.000201302
0.000201307
9.98558e-05
5.07306e-05
5.07411e-05
9.96205e-05
2.38859e-05
2.38891e-05
9.98482e-05
5.07269e-05
5.07378e-05
9.96412e-05
0.000203753
0.000203853
0.00020381
0.000205817
0.000205956
0.000205903
0.000205992
0.000143923
0.00010342
0.000207836
0.000199366
0.000103706
0.000208282
0.00014348
2.38832e-05
2.38867e-05
0.000143914
0.000207918
0.000103404
0.000199368
0.000208337
0.00010368
0.000143509
7.79072e-05
7.79038e-05
0.000181427
7.80236e-05
7.80197e-05
7.80185e-05
7.80195e-05
2.38864e-05
2.38901e-05
2.38851e-05
2.38887e-05
7.78789e-05
7.78723e-05
0.000181291
7.80178e-05
7.80109e-05
2.38922e-05
2.38901e-05
2.38909e-05
2.38888e-05
0.0001816
7.80691e-05
7.8064e-05
7.8036e-05
7.80294e-05
9.98591e-05
5.07312e-05
5.07408e-05
9.96262e-05
0.00014388
0.000103368
0.000207751
0.000199204
0.00010368
0.000208171
0.000143439
0.000143888
0.0001034
0.000207787
0.000199309
0.000103699
0.000208214
0.000143447
9.98818e-05
5.07446e-05
5.07419e-05
0.000100001
9.9885e-05
5.07439e-05
5.07415e-05
0.000100004
0.000143974
0.00019991
0.000103838
0.000209723
0.000103716
0.000208876
0.000144432
0.000143981
0.000200002
0.000103831
0.000209763
0.000103729
0.000208921
0.000144435
7.79021e-05
7.79069e-05
0.000181406
7.80295e-05
7.80273e-05
2.38863e-05
2.38895e-05
2.38911e-05
2.38891e-05
0.000181702
7.80609e-05
7.80466e-05
7.80425e-05
7.80381e-05
2.38915e-05
2.38895e-05
0.000143874
0.000103362
0.000207807
0.000199232
0.000103669
0.000208219
0.000143472
9.98459e-05
5.07228e-05
5.07329e-05
9.96437e-05
0.000143875
0.000207869
0.000103385
0.000199318
0.000208272
0.00010366
0.000143482
9.98769e-05
5.07416e-05
5.07387e-05
0.000100003
0.000143959
0.000199925
0.000103828
0.000209703
0.000103703
0.000208892
0.000144418
9.98738e-05
5.07363e-05
5.07336e-05
9.99979e-05
0.000143959
0.000199949
0.000209712
0.000103799
0.000208923
0.00010369
0.000144411
9.98678e-05
5.07303e-05
5.07395e-05
9.96422e-05
0.00014392
0.000207849
0.000103418
0.000199371
0.000208293
0.000103697
0.000143481
9.9865e-05
5.07262e-05
5.07355e-05
9.96409e-05
0.000144011
0.00020006
0.000103828
0.000209836
0.000103734
0.000208999
0.000144437
9.98915e-05
5.07425e-05
5.07401e-05
9.99996e-05
0.000144007
0.000200042
0.00020983
0.000103817
0.000209002
0.000103724
0.000144432
9.98886e-05
5.07387e-05
5.07361e-05
9.99965e-05
7.78775e-05
7.78938e-05
0.000181377
7.79971e-05
7.80129e-05
2.38851e-05
2.38886e-05
2.3889e-05
2.38868e-05
0.000181633
7.80373e-05
7.80525e-05
7.80117e-05
7.80268e-05
2.38909e-05
2.38886e-05
0.000143921
0.000207904
0.000103421
0.000199402
0.000208343
0.000103695
0.000143511
9.98562e-05
5.07253e-05
5.07354e-05
9.96498e-05
9.98627e-05
5.07269e-05
5.07359e-05
9.9659e-05
0.000143993
0.000200002
0.000209783
0.000103813
0.000208998
0.000103709
0.000144412
0.000144002
0.000200061
0.000209813
0.000103815
0.000209021
0.000103721
0.000144419
9.98795e-05
5.07392e-05
5.07362e-05
9.99914e-05
9.98883e-05
5.07388e-05
5.07365e-05
9.99982e-05
2.38849e-05
2.38882e-05
2.38845e-05
2.38878e-05
0.000181698
7.80496e-05
7.80492e-05
7.80351e-05
7.80316e-05
2.38904e-05
2.38882e-05
2.389e-05
2.38878e-05
0.000210682
0.000103809
0.00014446
5.07391e-05
9.9995e-05
0.000103807
5.07391e-05
2.38905e-05
2.38901e-05
3.67037e-05
4.10482e-05
9.44892e-05
9.97454e-05
4.10451e-05
9.43979e-05
3.67063e-05
2.03121e-05
5.0736e-05
7.90087e-05
7.90699e-05
2.031e-05
2.03121e-05
7.91246e-05
5.07378e-05
7.90843e-05
2.03138e-05
3.67026e-05
9.97151e-05
4.10399e-05
9.42827e-05
4.10438e-05
9.43739e-05
3.66992e-05
2.38877e-05
2.38878e-05
3.67051e-05
9.4489e-05
4.10477e-05
9.97492e-05
9.44037e-05
4.10446e-05
3.67078e-05
2.03131e-05
5.07325e-05
7.90138e-05
7.90813e-05
2.0311e-05
2.03133e-05
7.91401e-05
5.07343e-05
7.90931e-05
2.03149e-05
3.67041e-05
9.97213e-05
9.42993e-05
4.10394e-05
9.43793e-05
4.10432e-05
3.67007e-05
2.38851e-05
2.38853e-05
8.16178e-05
2.1707e-05
2.1704e-05
2.17059e-05
2.17029e-05
8.16317e-05
0.000105256
0.000128445
7.79624e-05
4.86461e-05
0.000128638
4.86498e-05
0.000105146
0.000105262
0.000128432
7.79588e-05
4.86366e-05
0.000128623
4.86403e-05
0.000105154
0.000105299
4.86521e-05
7.79914e-05
0.00012887
0.000128718
4.86505e-05
0.000105371
0.000105304
4.86426e-05
7.7987e-05
0.000128852
0.0001287
4.8641e-05
0.000105376
8.15959e-05
2.17047e-05
2.17017e-05
2.1706e-05
2.1703e-05
8.1562e-05
0.000105429
0.000129119
4.86526e-05
7.80079e-05
0.00010543
0.000129151
4.86533e-05
0.000105437
0.000129101
4.86432e-05
7.80097e-05
0.000105437
0.000129132
4.86439e-05
8.15511e-05
2.1708e-05
2.17051e-05
8.15748e-05
2.17092e-05
2.17063e-05
2.38884e-05
2.38887e-05
2.3887e-05
2.38873e-05
8.16024e-05
2.17076e-05
2.17043e-05
2.17065e-05
2.17032e-05
8.16245e-05
0.000105214
0.000128353
7.79428e-05
4.86469e-05
4.86516e-05
0.000128564
0.000105088
0.000105215
0.000128338
7.79362e-05
4.86353e-05
4.864e-05
0.000128545
0.000105089
0.000105265
4.86551e-05
7.79766e-05
0.000128833
4.86528e-05
0.000105353
0.000128656
0.000105263
4.86436e-05
7.79692e-05
0.00012881
4.86412e-05
0.000105353
0.000128635
8.1573e-05
2.17049e-05
2.17016e-05
2.17065e-05
2.17032e-05
8.15305e-05
2.38912e-05
2.38912e-05
2.38899e-05
2.38899e-05
8.16431e-05
2.17074e-05
2.17042e-05
8.16345e-05
2.17084e-05
2.17051e-05
0.000105444
0.000129145
7.80588e-05
4.86563e-05
4.86559e-05
0.000129061
0.000105474
0.000105443
0.000129121
7.80532e-05
4.86449e-05
4.86444e-05
0.000129036
0.000105473
0.000105435
4.86553e-05
0.000128898
7.80552e-05
0.000105384
4.86561e-05
0.000129024
0.000105434
4.86438e-05
0.000128875
7.80494e-05
0.000105382
4.86446e-05
0.000129001
8.16415e-05
2.1709e-05
2.17057e-05
2.17081e-05
2.17048e-05
8.16298e-05
3.67053e-05
4.10483e-05
9.45019e-05
9.975e-05
4.10453e-05
9.44162e-05
3.67079e-05
2.03129e-05
5.07363e-05
7.90294e-05
7.90964e-05
2.03108e-05
2.0313e-05
7.91494e-05
5.07379e-05
7.91079e-05
2.03146e-05
3.67043e-05
9.97203e-05
4.104e-05
9.43034e-05
4.10439e-05
9.43903e-05
3.67009e-05
3.6709e-05
4.10491e-05
9.45065e-05
9.9954e-05
3.6707e-05
4.10514e-05
9.45594e-05
2.03149e-05
5.07438e-05
7.91534e-05
2.03164e-05
7.91458e-05
2.03151e-05
7.91297e-05
5.07435e-05
2.03137e-05
7.91493e-05
3.67096e-05
9.99648e-05
4.10542e-05
9.45851e-05
3.67115e-05
4.10522e-05
9.4562e-05
3.67106e-05
4.10492e-05
9.452e-05
9.99569e-05
3.67086e-05
4.10515e-05
9.45706e-05
2.03159e-05
5.0743e-05
7.91738e-05
7.91664e-05
2.03173e-05
2.0316e-05
7.91529e-05
5.07428e-05
2.03145e-05
7.91705e-05
3.67111e-05
9.99675e-05
4.10543e-05
9.45963e-05
4.10522e-05
9.45739e-05
3.6713e-05
8.16248e-05
2.17047e-05
2.17072e-05
2.17037e-05
2.17062e-05
8.16398e-05
0.000105262
0.0001284
7.79628e-05
4.86383e-05
4.86422e-05
0.000128606
0.000105145
0.000105261
0.000128436
7.79638e-05
4.86469e-05
0.000128638
4.86506e-05
0.000105145
0.000105311
4.86444e-05
7.79936e-05
0.000128856
4.86429e-05
0.000128695
0.000105387
0.00010531
4.86526e-05
7.79946e-05
0.000128885
0.000128728
4.86513e-05
0.000105385
8.16012e-05
2.17024e-05
2.1705e-05
2.17038e-05
2.17064e-05
8.15636e-05
2.38881e-05
2.38882e-05
2.38901e-05
2.38902e-05
8.16468e-05
2.17044e-05
2.17069e-05
8.16434e-05
2.17052e-05
2.17077e-05
0.000105455
0.000129122
7.80594e-05
4.86448e-05
0.000129056
4.86444e-05
0.000105475
0.000105451
0.000129143
7.80508e-05
4.86528e-05
4.86525e-05
0.000129078
0.000105471
0.000105451
4.86443e-05
0.000128914
7.80593e-05
0.00012903
0.00010541
4.86448e-05
0.000105448
4.86524e-05
0.000128942
7.80542e-05
0.000105407
4.86529e-05
0.000129054
8.16274e-05
2.17057e-05
2.17082e-05
2.17048e-05
2.17073e-05
8.16031e-05
2.38905e-05
2.38905e-05
3.67025e-05
4.10474e-05
9.44784e-05
9.97491e-05
4.10444e-05
9.43949e-05
3.67051e-05
2.03114e-05
5.0728e-05
7.90065e-05
7.90659e-05
2.03093e-05
2.03114e-05
7.91167e-05
5.07297e-05
7.90774e-05
2.03131e-05
3.67015e-05
9.97218e-05
4.10392e-05
9.42958e-05
4.1043e-05
9.43755e-05
3.66982e-05
3.67106e-05
9.45091e-05
4.10487e-05
9.99526e-05
3.67086e-05
9.45649e-05
4.1051e-05
2.03162e-05
5.07407e-05
7.91707e-05
2.03176e-05
7.91623e-05
2.03163e-05
7.91446e-05
5.07404e-05
2.03149e-05
7.9166e-05
3.67112e-05
9.99665e-05
9.45942e-05
4.10538e-05
3.67131e-05
9.45703e-05
4.10518e-05
3.67079e-05
4.10484e-05
9.44947e-05
9.99479e-05
3.67058e-05
4.10507e-05
9.4548e-05
2.03143e-05
5.07354e-05
7.91444e-05
7.91363e-05
2.03157e-05
2.03145e-05
7.91206e-05
5.07352e-05
2.0313e-05
7.914e-05
3.67084e-05
9.99615e-05
4.10536e-05
9.4575e-05
4.10515e-05
9.45511e-05
3.67103e-05
3.67057e-05
9.45079e-05
4.10474e-05
9.97645e-05
9.44269e-05
4.10444e-05
3.67082e-05
2.03135e-05
5.07352e-05
7.90366e-05
7.91014e-05
2.03115e-05
2.03136e-05
7.91501e-05
5.07367e-05
7.91114e-05
2.03152e-05
3.67047e-05
9.97362e-05
9.4316e-05
4.10394e-05
9.44019e-05
4.10431e-05
3.67014e-05
3.67033e-05
4.10472e-05
9.4497e-05
9.97621e-05
4.10443e-05
9.44168e-05
3.67058e-05
2.03122e-05
5.07311e-05
7.90166e-05
7.90796e-05
2.03102e-05
2.03123e-05
7.91276e-05
5.07326e-05
7.90896e-05
2.03139e-05
3.67023e-05
9.97341e-05
4.10393e-05
9.43087e-05
4.1043e-05
9.43925e-05
3.66991e-05
3.67109e-05
9.45241e-05
4.10483e-05
9.99583e-05
3.67089e-05
9.45701e-05
4.10506e-05
2.03165e-05
5.07417e-05
7.91694e-05
7.91625e-05
2.03179e-05
2.03166e-05
7.91522e-05
5.07414e-05
2.03151e-05
7.91673e-05
3.67115e-05
9.99672e-05
9.45932e-05
4.10535e-05
9.45721e-05
4.10514e-05
3.67135e-05
3.67086e-05
4.10482e-05
9.45132e-05
9.99552e-05
3.67065e-05
4.10504e-05
9.45589e-05
2.03151e-05
5.07378e-05
7.91462e-05
7.91397e-05
2.03166e-05
2.03152e-05
7.91297e-05
5.07375e-05
2.03138e-05
7.91448e-05
3.67092e-05
9.99641e-05
4.10534e-05
9.45817e-05
4.10512e-05
9.45608e-05
3.67112e-05
8.1609e-05
2.17035e-05
2.1707e-05
2.17024e-05
2.17059e-05
8.16262e-05
0.000105234
0.000128393
7.79323e-05
4.8634e-05
4.86382e-05
0.000128579
0.000105124
0.000105237
0.000128426
7.79494e-05
4.8646e-05
0.000128613
4.86501e-05
0.000105129
0.000105275
4.8641e-05
7.79623e-05
0.000128809
4.86391e-05
0.000128654
0.000105353
0.000105279
4.86529e-05
7.79777e-05
0.000128843
0.000128686
4.8651e-05
0.000105354
8.15841e-05
2.1701e-05
2.17045e-05
2.17025e-05
2.17059e-05
8.1548e-05
2.38869e-05
2.38872e-05
2.38879e-05
2.38879e-05
8.16396e-05
2.17033e-05
2.17067e-05
8.16322e-05
2.17042e-05
2.17076e-05
0.000105425
0.000129081
7.80293e-05
4.86422e-05
0.000129007
4.86417e-05
0.00010545
0.000105426
0.000129111
7.80453e-05
4.86541e-05
4.86535e-05
0.000129039
0.000105451
0.00010542
4.86411e-05
0.000128864
7.80291e-05
0.000128979
0.000105375
4.86419e-05
0.000105421
4.8653e-05
0.000128895
7.80432e-05
0.000105377
4.86537e-05
0.000129011
8.16302e-05
2.17048e-05
2.17082e-05
2.17039e-05
2.17073e-05
8.16092e-05
2.38898e-05
2.38898e-05
3.67034e-05
9.44852e-05
4.10472e-05
9.97575e-05
9.44045e-05
4.10443e-05
3.6706e-05
2.03123e-05
5.07305e-05
7.901e-05
7.90704e-05
2.03103e-05
2.03124e-05
7.91216e-05
5.07322e-05
7.90807e-05
2.0314e-05
3.67024e-05
9.97346e-05
9.43064e-05
4.10393e-05
9.43856e-05
4.1043e-05
3.66992e-05
3.67053e-05
9.45006e-05
4.10476e-05
9.97676e-05
9.44197e-05
4.10447e-05
3.67078e-05
2.0313e-05
5.07317e-05
7.90398e-05
7.90956e-05
2.0311e-05
2.0313e-05
7.91412e-05
5.07331e-05
7.91066e-05
2.03146e-05
3.67044e-05
9.9741e-05
9.43162e-05
4.10398e-05
9.44006e-05
4.10434e-05
3.67011e-05
3.67088e-05
9.44999e-05
4.10482e-05
9.99471e-05
3.67067e-05
9.45493e-05
4.10505e-05
2.03154e-05
5.07382e-05
7.91448e-05
7.91375e-05
2.03168e-05
2.03154e-05
7.91246e-05
5.07379e-05
2.0314e-05
7.9142e-05
3.67094e-05
9.99571e-05
9.45735e-05
4.10535e-05
9.45512e-05
4.10513e-05
3.67114e-05
3.67105e-05
9.45141e-05
4.10486e-05
9.99547e-05
3.67085e-05
9.45609e-05
4.10509e-05
2.03158e-05
5.0738e-05
7.91613e-05
7.91549e-05
2.03173e-05
2.0316e-05
7.91438e-05
5.07378e-05
2.03145e-05
7.91597e-05
3.67111e-05
9.99659e-05
9.45833e-05
4.10538e-05
9.45619e-05
4.10517e-05
3.67131e-05
2.38867e-05
2.38869e-05
2.38863e-05
2.38865e-05
8.1639e-05
2.17067e-05
2.17037e-05
8.16352e-05
2.17076e-05
2.17046e-05
0.000105433
0.00012912
7.80495e-05
4.86529e-05
0.000105454
0.000129056
4.86524e-05
0.000105438
0.0001291
7.80472e-05
4.86435e-05
0.000105459
0.000129037
4.8643e-05
0.00010543
4.8652e-05
0.000128923
7.80496e-05
0.00010539
0.000129033
4.86527e-05
0.000105435
4.86426e-05
0.000128903
7.80465e-05
0.000105396
0.000129013
4.86432e-05
8.16222e-05
2.17082e-05
2.17053e-05
8.15983e-05
2.17072e-05
2.17043e-05
2.38893e-05
2.38893e-05
2.38889e-05
2.38889e-05
2.03179e-05
7.91377e-05
5.07405e-05
2.03165e-05
7.91397e-05
3.67142e-05
0.000100014
4.10543e-05
9.45783e-05
3.6712e-05
4.10567e-05
9.45942e-05
5.07404e-05
2.38919e-05
2.38915e-05
0.000199916
0.000199936
0.000204135
0.000200331
0.000200371
0.000190386
0.000189751
0.000138144
0.00016098
0.000160973
0.000180916
0.000161142
0.000161134
0.000137953
0.000138742
0.000162253
0.000162237
0.000182623
0.000138701
0.00016235
0.000162334
0.000138055
0.000160839
0.000160833
0.000180753
0.000161012
0.000161003
0.000137841
0.000138631
0.00018211
0.00016218
0.000162163
0.000162054
0.000162039
0.00013873
0.000138131
0.00016091
0.000160935
0.000180856
0.000161112
0.000161087
0.000137922
0.000138653
0.000182159
0.000162186
0.000162207
0.000162069
0.00016209
0.00013873
0.000138112
0.000160958
0.000160982
0.000180914
0.000161129
0.000161105
0.000137929
0.000138602
0.000182081
0.000162114
0.000162139
0.000162001
0.000162026
0.000138687
0.000138627
0.000182131
0.000162173
0.000162157
0.000138702
0.000162061
0.000162044
0.000199955
0.000199977
0.000204257
0.000200377
0.000200416
0.000190406
0.000189772
0.000200011
0.000200034
0.000204333
0.000200463
0.000200501
0.00019044
0.000189766
0.000199989
0.000200008
0.000204325
0.00020044
0.000200481
0.000190426
0.000189764
0.000204876
0.000201862
0.00020187
0.000200956
0.000200989
0.00019098
0.000191743
0.000205016
0.000201927
0.000201991
0.000201014
0.00020107
0.000191007
0.000191784
0.000205029
0.000201936
0.000201998
0.000201077
0.000201131
0.000191059
0.000191824
0.000205076
0.000202015
0.000202024
0.000201099
0.000201133
0.00019105
0.000191835
0.000170603
0.000137467
0.000175822
0.000143692
0.000137256
0.000175652
0.000170763
0.00016007
0.000146936
0.000103557
0.000122356
0.000147077
0.000122549
0.000159914
0.000160279
0.000122779
0.000103606
0.000147442
0.000147308
0.000122606
0.000160455
0.000170429
0.000143626
0.000137032
0.000175389
0.000137189
0.000175483
0.000170327
0.00017062
0.00017584
0.000137439
0.000143702
0.000175681
0.000137247
0.000170765
0.000160092
0.00014696
0.000103536
0.000122367
0.000147079
0.000122527
0.000159954
0.000160265
0.000122743
0.000103576
0.000147395
0.000147271
0.000122569
0.000160429
0.000170463
0.000143647
0.000175424
0.000137054
0.000175519
0.000137192
0.000170364
0.000138245
0.000181161
0.000161551
0.000161539
0.000161395
0.000161384
0.0001384
0.000138172
0.000181006
0.000161465
0.000161451
0.000138353
0.000161285
0.000161273
0.000138578
0.000181862
0.000161724
0.00016171
0.000138444
0.000161864
0.000161849
0.000170521
0.000137417
0.00017575
0.000143641
0.000137198
0.000175578
0.000170684
0.000159987
0.000146848
0.000103513
0.000122301
0.000122487
0.000146988
0.000159836
0.000160188
0.000122738
0.000103565
0.000147365
0.000122547
0.000147219
0.000160371
0.00017036
0.000143577
0.000136983
0.000175338
0.000137131
0.000175425
0.000170264
0.000170554
0.000137438
0.000175764
0.00014365
0.000137222
0.000175592
0.000170715
0.000160028
0.000146895
0.000103543
0.000122328
0.00012252
0.000147037
0.000159874
0.000160234
0.000122761
0.000103593
0.000147405
0.000122579
0.000160413
0.000147268
0.000170389
0.000143586
0.000137004
0.000175349
0.000137155
0.000175438
0.000170292
0.000171136
0.000137496
0.000176058
0.000144206
0.000170969
0.000137695
0.000176249
0.000160945
0.000147933
0.000103798
0.000123012
0.000147845
0.000122932
0.000161062
0.000160773
0.000122784
0.000147582
0.000103788
0.000147696
0.000160616
0.000122913
0.000171381
0.00014427
0.000137869
0.000176708
0.000137747
0.000176563
0.000171513
0.000171155
0.000137513
0.00017607
0.000144211
0.000170994
0.000137707
0.000176259
0.000160943
0.000147925
0.000103797
0.000123011
0.000122937
0.000147843
0.000161059
0.000160794
0.000122801
0.000147609
0.000103792
0.000160646
0.000122922
0.000147715
0.000171387
0.000144274
0.000137872
0.000176713
0.000137755
0.000176569
0.000171517
0.000138247
0.000181126
0.000161533
0.000161558
0.000161391
0.000161365
0.000138411
0.000138616
0.000181948
0.000161775
0.000161798
0.000161902
0.000138493
0.000161924
0.000170542
0.000137414
0.00017577
0.000143658
0.000137208
0.000175608
0.000170698
0.000159998
0.000146852
0.000103506
0.000122312
0.00012249
0.000146987
0.00015985
0.000160191
0.000122733
0.000103554
0.000147348
0.000122543
0.000147207
0.00016037
0.000170386
0.000143603
0.000137008
0.000175368
0.000137149
0.000175457
0.000170288
0.000170574
0.000175781
0.000137412
0.000143664
0.000175623
0.000137217
0.00017072
0.000160053
0.000146922
0.000103514
0.00012234
0.000122503
0.00014704
0.000159916
0.000160225
0.000122724
0.000103557
0.000147355
0.000122547
0.00016039
0.00014723
0.000170425
0.00014361
0.000175385
0.000137028
0.000175474
0.000137162
0.000170328
0.000171129
0.000137488
0.000176057
0.000144185
0.000170967
0.000137684
0.00017624
0.00016093
0.000147913
0.000103787
0.000123008
0.000147826
0.000122925
0.000161046
0.000160762
0.000122776
0.000147564
0.000103777
0.000147677
0.000160606
0.000122907
0.000171367
0.000144252
0.000137864
0.000176686
0.000137736
0.000176541
0.000171497
0.000171124
0.000176061
0.000137481
0.00014418
0.000170971
0.00017624
0.000137668
0.000160897
0.000147872
0.000103762
0.000122979
0.000122902
0.000147791
0.000161011
0.000160748
0.000122763
0.000147551
0.000103756
0.000160602
0.000122885
0.000147656
0.000171348
0.000144247
0.000176679
0.00013784
0.000176536
0.000137718
0.000171477
0.000170605
0.000175822
0.000137456
0.000143691
0.000175653
0.00013725
0.000170761
0.000160081
0.000146954
0.000103552
0.000122359
0.000147085
0.00012254
0.000159932
0.000160277
0.000122764
0.000103598
0.000147427
0.000147298
0.000122592
0.000160447
0.000170436
0.000143626
0.000175391
0.000137034
0.000175486
0.000137186
0.000170335
0.000171187
0.000137537
0.000176124
0.000144228
0.000171034
0.000137721
0.000176304
0.000160958
0.000147945
0.000103796
0.000123011
0.000161075
0.000147865
0.000122942
0.000160821
0.000122814
0.000147642
0.000103793
0.000160679
0.000147744
0.00012293
0.000171403
0.000144288
0.000137872
0.000176731
0.000171533
0.000137763
0.000176597
0.000171178
0.000176121
0.000137526
0.000144223
0.000171026
0.000176301
0.000137708
0.000160939
0.00014792
0.000103786
0.000122994
0.000122925
0.000147842
0.000161054
0.000160804
0.000122798
0.000147622
0.000103783
0.000160664
0.000122913
0.000147722
0.000171393
0.000144284
0.000176726
0.000137859
0.000176593
0.000137751
0.000171521
0.000138206
0.000181122
0.000161481
0.000161506
0.000161354
0.000161329
0.000138362
0.000138561
0.000181873
0.000161708
0.000161733
0.000161834
0.000138439
0.000161859
0.00017063
0.000175846
0.000137461
0.000143709
0.000175685
0.000137265
0.00017078
0.000160095
0.000146959
0.000103554
0.000122375
0.000147088
0.000122553
0.000159946
0.000160289
0.000122767
0.000103597
0.00014742
0.000147295
0.000122603
0.000160455
0.000170459
0.00014365
0.000175419
0.000137055
0.000175517
0.000137206
0.000170356
0.000171159
0.000176117
0.000137505
0.000144202
0.000171011
0.000176288
0.000137684
0.000160919
0.000147902
0.000103779
0.000122986
0.000161033
0.000147822
0.000122913
0.000160779
0.00012278
0.000147588
0.000103773
0.000160636
0.000147692
0.000122899
0.000171371
0.00014426
0.000176701
0.000137844
0.000171497
0.000176568
0.000137729
0.000171177
0.000176127
0.000137526
0.000144209
0.000171031
0.000176297
0.000137701
0.000160929
0.000147906
0.000103784
0.000122992
0.000122924
0.000147828
0.000161043
0.0001608
0.0001228
0.000147611
0.00010378
0.000160663
0.000122912
0.00014771
0.000171383
0.000144269
0.000176708
0.000137852
0.000176576
0.000137743
0.000171509
0.000138593
0.000181935
0.000161781
0.000161767
0.000138475
0.000161902
0.000161888
0.000161272
0.000147969
0.000122984
0.000103827
0.000148036
0.000161134
0.000123037
0.000171804
0.000144537
0.000176911
0.000137866
0.000177023
0.000171666
0.000137933
0.000147955
0.000103826
0.000148023
8.25027e-05
0.000117077
0.00022121
0.000129481
0.000148757
0.000106506
0.000120675
0.000119869
0.000176191
0.000140887
0.000106258
0.000133634
0.000106896
0.000177614
0.000176947
0.000165019
8.91404e-05
0.000190587
0.000172781
0.000156028
0.000149205
0.000147454
0.000152089
0.000148301
0.000179366
0.000137803
0.000160319
0.000144627
0.000188903
0.000159374
0.000165702
0.000146031
0.000156989
0.000174487
0.000168455
0.000166055
0.000142392
0.000170099
0.00016289
0.000158618
0.000138543
0.000166816
0.000166869
0.00016087
0.000167079
0.000176401
0.000178511
0.000166077
0.000172372
0.000175393
0.000176004
0.000162272
0.000168432
0.000172365
0.00017246
0.000160566
0.000163064
0.000176904
0.000176951
0.000166541
0.000173419
0.000182034
0.000182204
0.000169171
0.000178791
0.000183187
0.000183011
0.000169496
0.000180104
0.000185131
0.000185138
0.000171105
0.000183371
0.000187131
0.000187103
0.00017283
0.000186844
0.00018949
0.000189456
0.000173882
0.000190373
0.000191249
0.000191432
0.000175809
0.000193611
0.000193379
0.000193146
0.000176855
0.000195843