/*--------------------------------*- C++ -*----------------------------------*\
| =========                 |                                                 |
| \\      /  F ield         | OpenFOAM: The Open Source CFD Toolbox           |
|  \\    /   O peration     | Version:  v1906                                 |
|   \\  /    A nd           | Web:      www.OpenFOAM.com                      |
|    \\/     M anipulation  |                                                 |
\*---------------------------------------------------------------------------*/
FoamFile
{
    version     2.0;
    format      ascii;
    class       volScalarField;
    location    "1000";
    object      p;
}
// * * * * * * * * * * * * * * * * * * * * * * * * * * * * * * * * * * * * * //

dimensions      [0 2 -2 0 0 0 0];


internalField   nonuniform List<scalar> 
171728
(
0.00168294
0.00168627
0.00168297
0.00168073
0.00168523
0.00167717
0.00168208
0.00168069
0.0016742
0.00167597
0.0016797
0.00167797
0.00168404
0.00168214
0.00167858
0.00168034
0.00168017
0.00167914
0.00168013
0.00167937
0.00169534
0.00168119
0.00168167
0.00169501
0.00168144
0.00169445
0.00168166
0.00169526
0.00168144
0.00168425
0.00169292
0.00168198
0.00169477
0.00169124
0.00168141
0.00168353
0.00169419
0.00169205
0.00168177
0.00168149
0.00169447
0.00169321
0.00168142
0.00168084
0.00169432
0.00169374
0.0016807
0.00169363
0.00167932
0.00167848
0.0016797
0.00168249
0.00167863
0.0016773
0.0016781
0.00168009
0.00167699
0.0016778
0.00169239
0.0016905
0.00168019
0.00168171
0.00169303
0.00169044
0.00167941
0.00169251
0.00168009
0.00169307
0.00167942
0.00169233
0.0016899
0.00168115
0.00167872
0.00169016
0.00169217
0.00167914
0.00169241
0.00167885
0.00169229
0.00167917
0.00167776
0.00167772
0.00167709
0.00167703
0.00168894
0.00167808
0.0016754
0.00168738
0.00167541
0.00168957
0.0016892
0.0016791
0.00167707
0.00168854
0.00169071
0.00167577
0.0016888
0.00167593
0.00167585
0.00168931
0.00167699
0.00169049
0.00167601
0.00169159
0.00167843
0.00167773
0.00169222
0.00169143
0.00167856
0.00169229
0.00167762
0.00169118
0.00168567
0.00168456
0.00168616
0.00168118
0.0016857
0.00167986
0.0016854
0.00168685
0.00168048
0.00168563
0.00168049
0.00168488
0.00167892
0.00168446
0.0016861
0.00167992
0.00168509
0.00167887
0.00167855
0.00168464
0.0016843
0.00167917
0.0016911
0.00169533
0.0016957
0.00169097
0.00169565
0.00169088
0.00169122
0.00168632
0.00168634
0.0016811
0.00168624
0.00168125
0.00168639
0.00168636
0.0016815
0.00168163
0.00168625
0.00168645
0.00168157
0.0016905
0.00169506
0.00169472
0.00169072
0.00169482
0.00169069
0.00169049
0.00168584
0.00168583
0.00168141
0.00168583
0.00168138
0.00169027
0.00169447
0.00169019
0.00169457
0.00169021
0.00168601
0.00168624
0.00168151
0.00168159
0.00168615
0.00168607
0.00168145
0.00168588
0.00169023
0.0016901
0.00169445
0.00169423
0.00169434
0.00169017
0.00168996
0.00168563
0.00168118
0.00168576
0.0016815
0.00168549
0.00168583
0.00168135
0.00168531
0.0016807
0.00168518
0.00168086
0.0016852
0.00168498
0.00168104
0.00168995
0.0016944
0.001694
0.00169009
0.00168981
0.00169412
0.00169017
0.00168963
0.00169381
0.00169345
0.00168951
0.0016938
0.00168955
0.00168928
0.00168576
0.00168141
0.00168123
0.00168576
0.00168557
0.00168139
0.00168505
0.00168939
0.00168431
0.00168445
0.00167949
0.00168444
0.00167939
0.00168352
0.00168307
0.00167869
0.0016785
0.00168358
0.00168307
0.00167877
0.00168127
0.00168116
0.0016774
0.00168131
0.0016773
0.00168201
0.00168243
0.00167813
0.00167762
0.00168251
0.00168183
0.00167773
0.00168827
0.00169266
0.00169258
0.00168816
0.00169264
0.0016883
0.00168821
0.00168437
0.0016844
0.00168015
0.00168445
0.00168009
0.0016887
0.00169306
0.00168877
0.00169295
0.00168878
0.00168387
0.00168375
0.00167956
0.00167948
0.0016839
0.00168382
0.00167953
0.00168796
0.00169248
0.00169229
0.00168799
0.00169239
0.00168806
0.00168785
0.00168335
0.00168327
0.00167877
0.00168325
0.0016789
0.0016879
0.00169234
0.00168779
0.00169241
0.00168781
0.00168352
0.00168353
0.00167923
0.00167904
0.00168361
0.00168339
0.00167914
0.00168118
0.00167881
0.00167483
0.00168082
0.00167812
0.00167837
0.00168134
0.00167603
0.00167833
0.00167426
0.00168014
0.00167738
0.00168048
0.00167763
0.00167557
0.00168114
0.00167872
0.0016785
0.00168186
0.00168159
0.00167828
0.00168029
0.00168401
0.0016883
0.00168881
0.00168419
0.00168841
0.0016838
0.00168437
0.00167966
0.00167955
0.00167617
0.00167977
0.00167602
0.0016836
0.00168361
0.00167982
0.00167985
0.00167572
0.00167609
0.00167958
0.00168012
0.00167585
0.00168502
0.00168966
0.00168933
0.00168464
0.00168962
0.00168498
0.00168482
0.00168132
0.00168129
0.00167709
0.00168139
0.00167706
0.00168573
0.00169052
0.00168589
0.00169038
0.00168591
0.00168061
0.00168016
0.00167629
0.00167628
0.00168047
0.00168043
0.00167644
0.00168722
0.00169203
0.00169173
0.00169191
0.00168739
0.00168709
0.0016827
0.00167823
0.00168295
0.00167856
0.00168273
0.00168303
0.0016782
0.00168224
0.00167745
0.00168221
0.0016777
0.00168192
0.00168216
0.00167775
0.00168739
0.00169222
0.00169203
0.00168758
0.00169203
0.0016874
0.00168762
0.00168692
0.00169142
0.00169126
0.00168679
0.0016916
0.00168658
0.00168676
0.00168259
0.00167831
0.00167802
0.00168277
0.00168249
0.0016781
0.00168306
0.00168768
0.00168214
0.00168658
0.00168655
0.00168773
0.00168203
0.00168203
0.00168754
0.00168735
0.00168103
0.00168515
0.00168473
0.00168108
0.0016809
0.00168521
0.00168493
0.00168107
0.00167727
0.00167895
0.00167374
0.00167348
0.00167764
0.0016774
0.00167404
0.00168237
0.00168213
0.00167801
0.00167793
0.00168237
0.00168221
0.00167804
0.00168297
0.001682
0.00169189
0.00169083
0.00168178
0.0016906
0.0016825
0.00168157
0.00169116
0.00169029
0.00169058
0.00168173
0.0016801
0.00167935
0.00168872
0.00168985
0.00168061
0.0016895
0.00168096
0.00167992
0.00168992
0.00168917
0.00168988
0.00168081
0.00169155
0.00169578
0.00169519
0.0016911
0.00169565
0.00169151
0.0016911
0.00168734
0.00168233
0.00168653
0.00168187
0.00168765
0.00168692
0.00168236
0.00168694
0.00168644
0.00168198
0.00168207
0.00168669
0.00168658
0.00168233
0.00169012
0.00169445
0.00169456
0.00169066
0.0016942
0.00169036
0.00169044
0.00168541
0.0016811
0.00168566
0.00168149
0.00168574
0.00168537
0.0016812
0.00168986
0.00169425
0.00169389
0.00169005
0.00169396
0.00169016
0.00168973
0.00168563
0.00168613
0.00168165
0.00168161
0.00168591
0.00168593
0.00168141
0.00168961
0.00168917
0.0016935
0.00169332
0.00168948
0.00169356
0.00168935
0.00168564
0.0016807
0.00168492
0.00167982
0.00168607
0.00168483
0.00168052
0.00168456
0.00168316
0.00167912
0.00167893
0.00168384
0.00168362
0.00167964
0.00167966
0.0016742
0.00168024
0.00167658
0.0016804
0.00167854
0.00167546
0.00168113
0.00168219
0.00167772
0.0016771
0.00168223
0.00168126
0.00167677
0.00168825
0.00169251
0.00169246
0.00168813
0.00169248
0.0016883
0.00168816
0.00168425
0.00168012
0.00168443
0.00168007
0.00168439
0.00168423
0.00168004
0.00168861
0.00169279
0.00169285
0.00168884
0.00169281
0.00168863
0.00168865
0.00168375
0.0016836
0.00167963
0.00167936
0.00168382
0.0016836
0.00167956
0.00168787
0.0016924
0.00169223
0.00168799
0.00169226
0.00168801
0.00168785
0.00168291
0.00167849
0.0016831
0.00167878
0.00168313
0.00168288
0.00167859
0.00168771
0.00169222
0.00169208
0.00168773
0.00169216
0.00168779
0.00168756
0.00168315
0.00168339
0.00167903
0.00167898
0.00168332
0.00168325
0.00167887
0.00168392
0.00168924
0.00168824
0.00168422
0.0016886
0.00168458
0.00168353
0.0016782
0.00167321
0.0016787
0.00167503
0.00167728
0.00167861
0.00167404
0.00168291
0.0016828
0.001679
0.0016795
0.00167516
0.00167507
0.0016797
0.00167897
0.0016746
0.0016856
0.00168989
0.00168993
0.00168487
0.00169023
0.0016852
0.00168523
0.00168128
0.00167699
0.00168142
0.00167675
0.001681
0.00168145
0.00167685
0.00168613
0.00169041
0.00169086
0.00168609
0.00169082
0.00168576
0.00168613
0.00168074
0.00168002
0.00167593
0.00167615
0.00168038
0.00168042
0.00167631
0.00168726
0.00168726
0.00169171
0.00169174
0.00169173
0.0016872
0.0016872
0.000785541
0.00078547
0.000785465
0.000787478
0.000751927
0.000787491
0.000756749
0.000785479
0.000785473
0.000758804
0.000758803
0.000787485
0.000756749
0.000785477
0.000785467
0.000758806
0.000758807
0.000785466
0.000758801
0.000758801
0.000787479
0.000756752
0.000785464
0.000758805
0.000758802
0.000756749
0.00074992
0.000749921
0.00077434
0.000787649
0.000774334
0.000787661
0.000787633
0.000774333
0.000774343
0.000787648
0.000774336
0.000787659
0.000785536
0.000785531
0.000785531
0.000758915
0.000758909
0.000758911
0.000758907
0.000774402
0.000787606
0.000785491
0.000776588
0.000774354
0.000776622
0.000787606
0.000787637
0.000774337
0.000774404
0.000785487
0.000787608
0.000776587
0.000776618
0.000774359
0.000787602
0.000787624
0.000787624
0.000774527
0.000774319
0.000774319
0.000752126
0.000752126
0.000787639
0.000774334
0.000787639
0.000774335
0.000787636
0.000787635
0.000774539
0.000774323
0.000774323
0.000756583
0.000769867
0.000756583
0.000769869
0.000769709
0.000756568
0.000756569
0.000769863
0.000769864
0.00077434
0.000787644
0.000774333
0.00078766
0.000774411
0.000787617
0.000785498
0.000776599
0.000774361
0.000776631
0.000787615
0.00077441
0.000787611
0.000785496
0.000776592
0.000774359
0.000776628
0.000787614
0.000769861
0.000756576
0.000769868
0.000756568
0.000769861
0.000756581
0.000769869
0.000756569
0.000769822
0.000767702
0.000756594
0.000758848
0.00076983
0.000767745
0.000756624
0.000769821
0.000767697
0.000756598
0.000758846
0.00076983
0.000767742
0.000756624
0.000787628
0.000787625
0.000774532
0.000774321
0.00077432
0.000787629
0.000774331
0.00075659
0.000769869
0.000769703
0.000756575
0.000756576
0.000769864
0.000769862
0.000756592
0.000769868
0.000774412
0.000787616
0.000785495
0.000776598
0.000774362
0.000776628
0.00078761
0.000774343
0.000787645
0.000774337
0.000787658
0.000774411
0.000785491
0.000787612
0.00077659
0.000776624
0.000774363
0.00078761
0.000769865
0.000756578
0.00076987
0.00075657
0.000769824
0.000767703
0.000756596
0.000758849
0.000769831
0.000767744
0.000756627
0.000769865
0.000756583
0.000769871
0.000756571
0.000769825
0.000767699
0.000758849
0.000756601
0.000767741
0.000769833
0.000756627
0.000774334
0.000787638
0.00077433
0.000787651
0.000774402
0.00078549
0.000787605
0.000776584
0.00077662
0.000774354
0.000787606
0.000774334
0.000787638
0.000774329
0.000787651
0.000769816
0.000767693
0.000756599
0.000758842
0.000769824
0.000767736
0.000756624
0.000769856
0.000756582
0.000769866
0.000756571
0.000769815
0.000767691
0.000758842
0.000756599
0.000767735
0.000769826
0.000756624
0.000769856
0.000756582
0.000769866
0.000756571
0.000787633
0.000787631
0.000774533
0.000774326
0.000774324
0.000787634
0.000774335
0.00075659
0.000769872
0.000769706
0.000756576
0.000756576
0.000769867
0.000769866
0.000756591
0.00076987
0.000774403
0.000785487
0.000787603
0.000776583
0.000776617
0.000774354
0.000787601
0.000774337
0.00078764
0.000774333
0.000787649
0.000774336
0.000787636
0.000774331
0.000787648
0.000769818
0.000767696
0.000758845
0.0007566
0.000767736
0.000769829
0.000756627
0.000769817
0.000767692
0.000758843
0.0007566
0.000767734
0.000769827
0.000756627
0.00076986
0.000756583
0.000769868
0.000756573
0.00076986
0.000756584
0.000769867
0.000756573
0.000787628
0.00077433
0.000787627
0.000774331
0.0007697
0.000756576
0.000756576
0.000769862
0.000769862
0.000756591
0.000769867
0.000756592
0.000769867
0.000749954
0.00075208
0.00075205
0.000752126
0.000752107
0.000752081
0.000752127
0.000752134
0.000752134
0.000778764
0.000774333
0.000774338
0.00077876
0.000778765
0.000778758
0.000774334
0.000783232
0.000783225
0.000787648
0.00078322
0.000787649
0.000778754
0.000774327
0.000778755
0.000778752
0.00077434
0.000783232
0.000783243
0.000787665
0.000787659
0.000783231
0.000783239
0.000787664
0.000783216
0.000778748
0.000778766
0.00077434
0.000774336
0.000778762
0.00077876
0.000778767
0.000774337
0.000783232
0.000783226
0.000787648
0.00078322
0.000787648
0.000778754
0.000774328
0.000778756
0.000778753
0.000774341
0.000783233
0.000783242
0.000787657
0.000787663
0.000783239
0.000783232
0.000787662
0.00078322
0.000778752
0.000778742
0.000774332
0.000774333
0.000778745
0.000778746
0.000774319
0.000783215
0.000787633
0.0007832
0.000787625
0.000783223
0.000783206
0.000787617
0.000783215
0.000787632
0.0007832
0.000787624
0.000783223
0.000783206
0.000787617
0.000778731
0.000774327
0.00077874
0.000774333
0.000778742
0.000778743
0.000774332
0.000778731
0.000774328
0.00077874
0.000774333
0.000778742
0.000778743
0.000774332
0.000783195
0.000787624
0.000787624
0.000783208
0.000783209
0.000787621
0.000747722
0.000752103
0.000752133
0.000747715
0.00075211
0.000747708
0.000747726
0.000747722
0.000752104
0.000752133
0.000747715
0.00075211
0.000747709
0.000747726
0.00074772
0.000752139
0.000752139
0.000752134
0.000747734
0.000747734
0.00078322
0.00077875
0.000783221
0.000778751
0.000778748
0.000774334
0.000774335
0.00077875
0.00077875
0.000774322
0.000783227
0.000787648
0.000783209
0.000787635
0.000783214
0.000783236
0.000787631
0.000783227
0.000787647
0.000783209
0.000787635
0.000783214
0.000783236
0.00078763
0.00077874
0.000774329
0.000778747
0.000774342
0.000778748
0.000774338
0.000778753
0.00077874
0.000774331
0.000778747
0.000774342
0.000778749
0.000774338
0.000778754
0.000783204
0.000787634
0.000787634
0.000783216
0.000783216
0.000787633
0.000760991
0.000765455
0.000760992
0.000765456
0.000765443
0.00076987
0.000769871
0.000769867
0.000765456
0.000765457
0.000760972
0.000756569
0.000760986
0.000756577
0.00076099
0.000760974
0.000756576
0.000760972
0.00075657
0.000760986
0.000756578
0.000760991
0.000760975
0.000756577
0.000765454
0.000769866
0.00076986
0.000765442
0.000769853
0.00076545
0.000765452
0.000765454
0.000769868
0.000769861
0.000765443
0.000769854
0.000765452
0.000765453
0.000760991
0.000756585
0.000756585
0.000760995
0.000760995
0.000756569
0.000778764
0.000774333
0.000774337
0.000778759
0.000778764
0.000778757
0.000774334
0.000783228
0.000783223
0.000787644
0.000783216
0.000787645
0.000778751
0.000774325
0.000778753
0.000778749
0.000774338
0.00078323
0.000783242
0.000787664
0.000787657
0.000783231
0.000783237
0.000787662
0.000765448
0.000769872
0.000769861
0.000765447
0.000769872
0.000765447
0.000765446
0.000760989
0.000760989
0.00075657
0.000756585
0.000760985
0.000765458
0.000769863
0.000765451
0.000769866
0.000765444
0.000760991
0.000760975
0.000756571
0.000756569
0.000756572
0.000760992
0.000760976
0.000765449
0.000769872
0.000769861
0.000765447
0.000769872
0.000765447
0.000765447
0.00076099
0.000760992
0.000756572
0.000760987
0.000756587
0.000765458
0.000769863
0.000765453
0.000769865
0.000765444
0.000760993
0.000760975
0.000756572
0.000756571
0.000760991
0.000760978
0.000756574
0.000778744
0.000774335
0.000774334
0.000778748
0.000778747
0.00077432
0.000783219
0.000787639
0.000783204
0.000787629
0.00078321
0.000783228
0.000787621
0.000783218
0.000787637
0.000783202
0.000787626
0.000783226
0.000783207
0.00078762
0.000778734
0.00077433
0.000778743
0.000774337
0.000778746
0.000778746
0.000774334
0.000778733
0.000774328
0.000778741
0.000774335
0.000778744
0.000778744
0.000774333
0.000783197
0.000787627
0.000787626
0.000783211
0.00078321
0.000787624
0.000783212
0.000778745
0.000760996
0.000765458
0.000765447
0.000769873
0.000769873
0.000769869
0.000765462
0.000765462
0.000760976
0.000756574
0.00076099
0.000756586
0.000760975
0.000760996
0.000756583
0.000760976
0.000756574
0.00076099
0.000756586
0.000760996
0.000760975
0.000756584
0.000765455
0.000769869
0.000769857
0.000765445
0.000765452
0.000769852
0.000765455
0.000765455
0.000769867
0.000769855
0.000765445
0.000769851
0.000765454
0.000765451
0.000760997
0.000756595
0.000756595
0.000761003
0.000761003
0.000756579
0.000760998
0.000765457
0.000778766
0.000774337
0.000774341
0.000778762
0.000778767
0.00077876
0.000774338
0.000783232
0.000783225
0.000787646
0.00078322
0.000787647
0.000778755
0.00077433
0.000778756
0.000778753
0.000774343
0.000783232
0.000783242
0.000787663
0.000787655
0.000783232
0.000783238
0.000787661
0.000765451
0.000769864
0.000769875
0.00076545
0.000769875
0.000765449
0.000765449
0.00076099
0.000760991
0.000756571
0.000756586
0.000760986
0.00076546
0.000769865
0.000765453
0.000769868
0.000765445
0.000760994
0.000760978
0.000756571
0.000756573
0.000756574
0.000760979
0.000760994
0.000765452
0.000769875
0.000769865
0.000765451
0.000769876
0.00076545
0.000765451
0.000760992
0.000760995
0.000756574
0.000760989
0.000756589
0.000765462
0.000769867
0.000765456
0.000769869
0.000765448
0.000760995
0.000760979
0.000756574
0.000756573
0.000760994
0.000760981
0.000756576
0.000778757
0.000774332
0.000774328
0.000778752
0.00077875
0.000778758
0.000774329
0.000783223
0.000783217
0.000787638
0.000783211
0.000787639
0.000778747
0.000774323
0.000778748
0.000778745
0.000774335
0.000783223
0.000783233
0.000787649
0.000787655
0.000783229
0.000783223
0.000787654
0.000778757
0.000774328
0.000774331
0.000778752
0.000778758
0.00077875
0.000774329
0.000783222
0.000783216
0.000787638
0.00078321
0.000787638
0.000778746
0.000774322
0.000778747
0.000778745
0.000774335
0.000783223
0.000783233
0.000787655
0.000787648
0.000783223
0.000783229
0.000787653
0.000765447
0.000769857
0.000769869
0.000765445
0.000769869
0.000765445
0.000765445
0.000760991
0.000760992
0.000756574
0.000760987
0.000756589
0.000765458
0.000769861
0.000765452
0.000769864
0.000765444
0.000760992
0.000760975
0.000756572
0.000756574
0.000760978
0.000760992
0.000756576
0.000765447
0.000769869
0.000769857
0.000765445
0.000769869
0.000765445
0.000765445
0.000760991
0.000760991
0.000756574
0.000760987
0.00075659
0.000765458
0.000769861
0.000765451
0.000769863
0.000765444
0.000760992
0.000760975
0.000756574
0.000756572
0.000760992
0.000760977
0.000756575
0.000778749
0.000774338
0.000774337
0.000778752
0.000778751
0.000774324
0.000783224
0.00078764
0.000783209
0.000787632
0.000783214
0.000783232
0.000787625
0.000783223
0.000787638
0.000783206
0.00078763
0.00078323
0.000783212
0.000787624
0.000778739
0.000774334
0.000778748
0.000774341
0.000778751
0.000778751
0.000774339
0.000778738
0.000774331
0.000778746
0.000774339
0.000778749
0.000778748
0.000774338
0.000783203
0.000787631
0.00078763
0.000783216
0.000783215
0.000787629
0.000783217
0.000778749
0.000760998
0.00076546
0.000765449
0.000769875
0.000769875
0.000769871
0.000765463
0.000765463
0.000760978
0.000756576
0.000760992
0.000756586
0.000760978
0.000760998
0.000756584
0.000760978
0.000756576
0.000760992
0.000756586
0.000760997
0.000760978
0.000756584
0.000765459
0.000769872
0.000769861
0.000765448
0.000765455
0.000769856
0.000765457
0.000765458
0.00076987
0.00076986
0.000765447
0.000769855
0.000765456
0.000765454
0.000760998
0.000756595
0.000756595
0.000761004
0.000761004
0.000756579
0.000760998
0.000765459
0.00077876
0.000774335
0.000774331
0.000778754
0.000778753
0.00077876
0.000774332
0.000783227
0.00078322
0.000787641
0.000783216
0.000787641
0.00077875
0.000774326
0.000778751
0.00077875
0.000774339
0.000783224
0.000783233
0.000787647
0.000787654
0.000783231
0.000783224
0.000787653
0.000778758
0.000774334
0.00077433
0.000778753
0.00077875
0.000778759
0.000774331
0.000783222
0.000783216
0.000787635
0.000783209
0.000787636
0.000778747
0.000774323
0.000778748
0.000778744
0.000774336
0.000783223
0.000783232
0.000787645
0.000787653
0.000783228
0.000783223
0.000787651
0.00076545
0.000769861
0.000769872
0.000765449
0.000769872
0.000765448
0.000765448
0.000760993
0.000760994
0.000756575
0.000760989
0.000756591
0.000765461
0.000769865
0.000765454
0.000769867
0.000765447
0.000760995
0.000760978
0.000756574
0.000756576
0.00076098
0.000760995
0.000756577
0.000765449
0.00076986
0.000769871
0.000765448
0.000769871
0.000765448
0.000765448
0.000760993
0.000760994
0.000756576
0.000760988
0.000756591
0.00076546
0.000769862
0.000765453
0.000769865
0.000765446
0.000760995
0.000760978
0.000756575
0.000756576
0.00076098
0.000760994
0.000756578
0.000783212
0.000778744
0.000783212
0.000778744
0.000765446
0.000769871
0.000769871
0.000769867
0.000765461
0.000765461
0.000760976
0.000756574
0.00076099
0.000756586
0.000756584
0.000760975
0.000760995
0.000760976
0.000756575
0.000760991
0.000756587
0.000756584
0.000760976
0.000760997
0.000765454
0.000769866
0.000769855
0.000765444
0.00076985
0.00076545
0.000765453
0.000765455
0.000769867
0.000769855
0.000765444
0.000769851
0.000765451
0.000765454
0.000760997
0.000756595
0.000756595
0.000756579
0.000761003
0.000761003
0.000760997
0.000765457
0.000760997
0.000765458
0.000747728
0.000752121
0.00074772
0.000752126
0.000747712
0.000747712
0.000747707
0.000752125
0.00075211
0.000752125
0.000747711
0.000747708
0.000747721
0.00074773
0.000747731
0.000785551
0.00078555
0.000776678
0.000776694
0.000776691
0.000776719
0.000785582
0.000783306
0.000787573
0.000787573
0.000783416
0.00078332
0.00078332
0.000787538
0.000747797
0.000752036
0.000752036
0.000747874
0.000752017
0.000747795
0.000747795
0.00078332
0.000787589
0.000787588
0.000783431
0.000783336
0.000783336
0.000787554
0.000760886
0.000760811
0.000756662
0.000756661
0.00076091
0.000760911
0.00075666
0.00078331
0.00078758
0.00078758
0.000783424
0.000783326
0.000783327
0.000787543
0.000760888
0.000760809
0.000756665
0.000756664
0.000760911
0.00076091
0.000756663
0.000783314
0.000787577
0.000787577
0.00078342
0.000783326
0.000783328
0.000787545
0.000760891
0.000760812
0.000756667
0.000756666
0.000760914
0.000760914
0.000756666
0.000760888
0.000760808
0.000756665
0.000756664
0.000756664
0.00076091
0.000760911
0.000785549
0.000785547
0.000776672
0.000776691
0.000776689
0.000776718
0.000785581
0.000785547
0.000785545
0.000776667
0.000776688
0.000776685
0.000776717
0.000785581
0.000785546
0.000785546
0.000776666
0.000776687
0.000776685
0.000776717
0.000785581
0.000767802
0.000758952
0.000758951
0.000767828
0.000767826
0.000767856
0.000758989
0.000767795
0.00075895
0.000758948
0.000767826
0.000767822
0.000767855
0.000758988
0.000767793
0.000758949
0.000758946
0.000767823
0.000767819
0.000767853
0.000758987
0.00076779
0.000758946
0.000758946
0.000767821
0.000767819
0.000767853
0.000758987
0.000778695
0.000774396
0.000774458
0.000778715
0.000778713
0.000778702
0.000774464
0.00078332
0.00078764
0.000783245
0.000787606
0.000783267
0.000783274
0.000787583
0.000778695
0.000774377
0.000778713
0.000774371
0.000778746
0.000778709
0.000774425
0.000783356
0.0007833
0.000787607
0.000787583
0.000783294
0.000783347
0.000787579
0.000778694
0.000774457
0.000774399
0.000778714
0.000778701
0.000778714
0.000774465
0.000783318
0.000787637
0.000783249
0.000787605
0.000783268
0.000783276
0.00078758
0.000778696
0.000774382
0.000778718
0.000774375
0.000778749
0.000778713
0.000774429
0.000783352
0.000783297
0.00078758
0.000787603
0.000783343
0.000783293
0.000787575
0.000778649
0.000778594
0.00077443
0.000774429
0.000778684
0.000778684
0.000774419
0.00077866
0.000778608
0.000774441
0.000774441
0.000774428
0.000778697
0.000778697
0.000765541
0.000765641
0.0007698
0.000769801
0.000769771
0.000765548
0.000765547
0.000778705
0.000774405
0.000774466
0.000778724
0.000778723
0.000778711
0.000774474
0.000783329
0.000787651
0.000783255
0.000787617
0.000783284
0.000783278
0.000787592
0.000778706
0.000774385
0.000778722
0.00077438
0.000778719
0.000778757
0.000774434
0.000783365
0.00078331
0.000787616
0.000787591
0.000783305
0.000783355
0.000787588
0.000778702
0.000774403
0.000774465
0.000778723
0.00077872
0.00077871
0.00077447
0.000783324
0.000787643
0.00078325
0.000787612
0.00078328
0.000783271
0.000787587
0.0007787
0.000774382
0.000778718
0.000774374
0.000778715
0.00077443
0.000778749
0.000783362
0.000783309
0.000787614
0.00078759
0.000783302
0.000783354
0.000787585
0.000765573
0.000769821
0.000769815
0.000765511
0.000769807
0.000765506
0.000765567
0.000760912
0.000756598
0.000760946
0.00075661
0.000760967
0.000760934
0.000756645
0.000765536
0.000769821
0.000769858
0.000765473
0.000765484
0.000769807
0.000765491
0.000760908
0.000760928
0.000756621
0.000756672
0.000760929
0.000760916
0.000756678
0.000765571
0.00076982
0.000769814
0.00076551
0.000769804
0.000765506
0.000765566
0.000760911
0.000756601
0.000760949
0.000756612
0.000760935
0.000760966
0.000756647
0.000765534
0.000769819
0.000769853
0.000765474
0.000769802
0.000765491
0.000765482
0.000760907
0.000760928
0.000756622
0.000756672
0.00076093
0.000760915
0.000756679
0.000778652
0.0007786
0.000774434
0.000774432
0.000778688
0.000778689
0.000774422
0.00076554
0.000765637
0.000769797
0.000769795
0.000765546
0.000769767
0.000765544
0.000778703
0.000774406
0.000774466
0.000778723
0.000778723
0.00077871
0.000774473
0.000783328
0.000787648
0.000783255
0.000787614
0.000783284
0.000783277
0.00078759
0.000778704
0.000774386
0.000778722
0.000774381
0.00077872
0.000778757
0.000774435
0.000783362
0.000783306
0.000787612
0.000787588
0.000783302
0.000783352
0.000787584
0.0007787
0.000774465
0.000774405
0.000778723
0.000778708
0.000778721
0.000774471
0.000783322
0.000787641
0.000783253
0.00078761
0.000783281
0.000783271
0.000787583
0.0007787
0.000774385
0.000778722
0.000774378
0.000778718
0.000774432
0.000778752
0.000783359
0.000783305
0.000787586
0.000787609
0.00078335
0.0007833
0.00078758
0.000765574
0.000769823
0.000769817
0.000765514
0.000769808
0.000765509
0.000765569
0.000760913
0.0007566
0.000760948
0.000756612
0.000760969
0.000760936
0.000756649
0.000765538
0.000769823
0.000769859
0.000765475
0.000765486
0.000769808
0.000765494
0.00076091
0.000760932
0.000756624
0.000756675
0.000760933
0.000760919
0.000756681
0.000765575
0.000769816
0.000769824
0.000765514
0.000769807
0.000765569
0.00076551
0.000760915
0.000756603
0.000760952
0.000756615
0.000760938
0.00076097
0.00075665
0.000765537
0.000769823
0.000769858
0.000765478
0.000769806
0.000765495
0.000765487
0.000760911
0.000760932
0.000756675
0.000756625
0.00076092
0.000760934
0.000756683
0.000778694
0.000774457
0.000774396
0.000778714
0.000778702
0.000778713
0.000774463
0.000783316
0.000787636
0.000783245
0.000787604
0.000783264
0.000783273
0.00078758
0.000778693
0.000774376
0.000778713
0.000774369
0.000778743
0.000778709
0.000774423
0.000783354
0.000783299
0.000787583
0.000787605
0.000783346
0.000783293
0.000787578
0.000765566
0.000769815
0.000769808
0.000765507
0.000769798
0.000765503
0.000765561
0.000760909
0.0007566
0.000760948
0.000756613
0.000756648
0.000760967
0.000760935
0.000765532
0.000769817
0.000769851
0.000765472
0.000769799
0.00076548
0.000765489
0.000760904
0.000760926
0.000756622
0.000756671
0.000756677
0.000760928
0.000760913
0.000765566
0.000769807
0.000769815
0.000765506
0.000769798
0.00076556
0.000765503
0.00076091
0.000756601
0.000760948
0.000756613
0.000760935
0.000760966
0.000756647
0.00076553
0.000769815
0.00076985
0.000765472
0.000769798
0.000765489
0.00076548
0.000760905
0.000760926
0.000756671
0.000756622
0.000760913
0.000760928
0.000756678
0.000778657
0.000778598
0.000774438
0.000774436
0.000778691
0.000778691
0.000774427
0.000765543
0.00076564
0.000769801
0.0007698
0.00076555
0.000769771
0.000765548
0.000778692
0.000774456
0.000774396
0.000778713
0.000778701
0.000778711
0.000774461
0.000783315
0.000787633
0.000783243
0.000787601
0.000783262
0.000783271
0.000787578
0.000778692
0.000774377
0.000778712
0.000774369
0.000778742
0.000778708
0.000774423
0.00078335
0.000783296
0.00078758
0.000787601
0.000783343
0.000783291
0.000787574
0.000765569
0.00076981
0.000769819
0.00076551
0.000769802
0.000765563
0.000765507
0.000760912
0.000756604
0.000760951
0.000756615
0.00075665
0.000760971
0.000760938
0.000765536
0.000769821
0.000769855
0.000765475
0.000769804
0.000765485
0.000765493
0.000760908
0.000760929
0.000756674
0.000756625
0.000756681
0.000760917
0.000760931
0.000765567
0.000769809
0.000769816
0.000765509
0.000769799
0.000765562
0.000765505
0.000760911
0.000756603
0.00076095
0.000756614
0.000760936
0.000760967
0.000756649
0.000765532
0.000769816
0.00076985
0.000765473
0.000769799
0.000765491
0.000765481
0.000760907
0.000760929
0.000756673
0.000756625
0.000760916
0.000760931
0.00075668
0.000765539
0.000765634
0.000769794
0.000769794
0.000769765
0.000765543
0.000765543
0.000747776
0.000752093
0.000752063
0.000747734
0.000747733
0.000752033
0.000747745
0.000747805
0.000747753
0.00075203
0.000752053
0.000747795
0.000752024
0.000747752
0.000752094
0.000747735
0.000747735
0.00167517
0.00167356
0.0016674
0.00167312
0.00163533
0.00163899
0.00164108
0.00164099
0.00160293
0.00160408
0.00160621
0.00160723
0.00156924
0.00156738
0.00156576
0.00156907
0.00153323
0.00153082
0.00153206
0.00153358
0.00149641
0.00149709
0.00149718
0.00149862
0.0014596
0.00146117
0.00146013
0.00146306
0.00142364
0.00142413
0.00142405
0.00142672
0.001388
0.00138705
0.00138761
0.00138907
0.00135301
0.00135266
0.00135298
0.0013546
0.00131771
0.00131752
0.00131727
0.00131942
0.001281
0.0012809
0.00128071
0.00128293
0.00124534
0.00124543
0.00124547
0.0012475
0.00121004
0.00121019
0.00121022
0.00121229
0.00117497
0.00117461
0.00117461
0.00117656
0.00113947
0.00113928
0.00113927
0.00114124
0.00110408
0.00110404
0.00110405
0.00110607
0.0010688
0.00106868
0.00106868
0.00107069
0.00103342
0.00103331
0.00103331
0.0010353
0.000998062
0.000997951
0.000997954
0.000999974
0.000962661
0.000962574
0.000962559
0.000964557
0.000927242
0.000927145
0.000927162
0.000929163
0.000891877
0.000891788
0.00089179
0.000893799
0.000856417
0.000856322
0.000856313
0.000858321
0.000820939
0.00082087
0.000820875
0.000822884
0.00167648
0.00164073
0.00167564
0.0016743
0.00164294
0.00164738
0.00167601
0.00164562
0.00167454
0.00166833
0.00164273
0.00164714
0.00167177
0.00164773
0.00164688
0.00167031
0.00164614
0.00167065
0.00164779
0.00164667
0.00164499
0.00163682
0.00160984
0.001634
0.00163823
0.00160995
0.00161174
0.00164067
0.00161001
0.00163397
0.00164024
0.00161085
0.00161565
0.00163899
0.00161283
0.00161414
0.00164196
0.00161308
0.00163912
0.00161669
0.00161513
0.00161229
0.0016062
0.0015785
0.00160351
0.00160342
0.0015806
0.00157734
0.00160547
0.00157485
0.00160414
0.00160547
0.00158037
0.00157565
0.00160488
0.00157666
0.00157645
0.00160738
0.00157336