/*--------------------------------*- C++ -*----------------------------------*\
| =========                 |                                                 |
| \\      /  F ield         | OpenFOAM: The Open Source CFD Toolbox           |
|  \\    /   O peration     | Version:  v1906                                 |
|   \\  /    A nd           | Web:      www.OpenFOAM.com                      |
|    \\/     M anipulation  |                                                 |
\*---------------------------------------------------------------------------*/
FoamFile
{
    version     2.0;
    format      ascii;
    class       volScalarField;
    location    "400";
    object      k;
}
// * * * * * * * * * * * * * * * * * * * * * * * * * * * * * * * * * * * * * //

dimensions      [0 2 -2 0 0 0 0];


internalField   nonuniform List<scalar> 
42616
(
3.58933e-05
3.58914e-05
3.58914e-05
3.59958e-05
3.39293e-05
3.38875e-05
3.38877e-05
3.39603e-05
3.2157e-05
3.20046e-05
3.20047e-05
3.19463e-05
3.0533e-05
3.02237e-05
3.02236e-05
2.99793e-05
2.90306e-05
2.85466e-05
2.85467e-05
2.81117e-05
2.76322e-05
2.69784e-05
2.69787e-05
2.63783e-05
2.63268e-05
2.55212e-05
2.55215e-05
2.4794e-05
2.51066e-05
2.41743e-05
2.41744e-05
2.33647e-05
2.39658e-05
2.29391e-05
2.2939e-05
2.20902e-05
2.29e-05
2.18146e-05
2.18143e-05
2.09709e-05
2.19057e-05
2.07982e-05
2.07978e-05
1.9997e-05
2.09795e-05
1.98869e-05
1.98864e-05
1.9164e-05
2.01166e-05
1.90787e-05
1.90783e-05
1.84698e-05
1.93156e-05
1.83704e-05
1.837e-05
1.79094e-05
1.85757e-05
1.77588e-05
1.77584e-05
1.7478e-05
1.78942e-05
1.72422e-05
1.72419e-05
1.71682e-05
1.72687e-05
1.68199e-05
1.68197e-05
1.69848e-05
1.66973e-05
1.6491e-05
1.64909e-05
1.6938e-05
1.61785e-05
1.62555e-05
1.62554e-05
1.7032e-05
1.571e-05
1.61133e-05
1.61134e-05
1.72583e-05
1.52901e-05
1.60641e-05
1.60642e-05
1.76092e-05
3.63062e-05
3.62907e-05
3.62907e-05
3.63062e-05
3.62907e-05
3.62907e-05
3.6423e-05
3.6423e-05
3.6423e-05
3.6423e-05
3.62907e-05
3.62907e-05
3.63062e-05
3.62907e-05
3.62907e-05
3.63062e-05
3.59958e-05
3.42671e-05
3.58914e-05
3.58914e-05
3.43755e-05
3.43754e-05
3.59958e-05
3.4267e-05
3.58914e-05
3.58914e-05
3.43757e-05
3.43755e-05
3.58914e-05
3.43756e-05
3.43755e-05
3.59959e-05
3.4267e-05
3.58914e-05
3.43757e-05
3.43756e-05
3.4267e-05
3.39605e-05
3.2258e-05
3.38876e-05
3.38874e-05
3.24655e-05
3.24652e-05
3.39603e-05
3.22583e-05
3.38877e-05
3.38875e-05
3.24655e-05
3.24655e-05
3.38875e-05
3.24655e-05
3.24652e-05
3.39603e-05
3.22581e-05
3.38876e-05
3.24657e-05
3.24654e-05
3.22581e-05
3.19462e-05
3.02911e-05
3.20045e-05
3.20041e-05
3.06593e-05
3.06586e-05
3.19465e-05
3.02911e-05
3.20045e-05
3.20044e-05
3.06594e-05
3.06589e-05
3.20042e-05
3.06595e-05
3.06588e-05
3.19463e-05
3.029e-05
3.20045e-05
3.06594e-05
3.06592e-05
3.02904e-05
2.99801e-05
2.84155e-05
3.02236e-05
3.02227e-05
2.89558e-05
2.89547e-05
2.998e-05
2.84149e-05
3.02237e-05
3.02231e-05
2.8956e-05
2.89552e-05
3.02229e-05
2.89558e-05
2.8955e-05
2.9979e-05
2.84143e-05
3.02233e-05
2.89559e-05
2.89553e-05
2.84144e-05
2.81129e-05
2.66635e-05
2.85465e-05
2.85455e-05
2.73598e-05
2.73587e-05
2.81121e-05
2.66617e-05
2.85469e-05
2.8546e-05
2.73603e-05
2.73594e-05
2.85458e-05
2.73601e-05
2.7359e-05
2.81118e-05
2.66618e-05
2.8546e-05
2.73603e-05
2.7359e-05
2.66622e-05
2.63797e-05
2.50551e-05
2.69781e-05
2.6977e-05
2.58748e-05
2.58736e-05
2.63797e-05
2.50546e-05
2.69787e-05
2.69777e-05
2.58754e-05
2.58743e-05
2.69773e-05
2.58752e-05
2.58739e-05
2.63795e-05
2.50546e-05
2.69773e-05
2.58755e-05
2.58738e-05
2.50543e-05
2.47956e-05
2.36011e-05
2.55208e-05
2.55195e-05
2.45e-05
2.44988e-05
2.47952e-05
2.36003e-05
2.55214e-05
2.55202e-05
2.45008e-05
2.44994e-05
2.55198e-05
2.45005e-05
2.44989e-05
2.47946e-05
2.36e-05
2.55198e-05
2.45007e-05
2.44992e-05
2.35994e-05
2.33655e-05
2.23002e-05
2.41737e-05
2.41725e-05
2.32367e-05
2.32355e-05
2.33655e-05
2.22997e-05
2.41745e-05
2.41731e-05
2.32376e-05
2.32361e-05
2.41726e-05
2.32374e-05
2.32355e-05
2.33649e-05
2.22995e-05
2.4173e-05
2.32374e-05
2.32362e-05
2.22992e-05
2.20915e-05
2.11546e-05
2.29384e-05
2.29372e-05
2.20845e-05
2.20834e-05
2.20914e-05
2.11549e-05
2.29393e-05
2.29377e-05
2.20856e-05
2.20839e-05
2.29372e-05
2.20855e-05
2.20833e-05
2.20906e-05
2.11545e-05
2.29379e-05
2.20852e-05
2.20843e-05
2.11532e-05
2.09727e-05
2.01565e-05
2.18135e-05
2.18125e-05
2.10411e-05
2.104e-05
2.09724e-05
2.01563e-05
2.18147e-05
2.1813e-05
2.10424e-05
2.10407e-05
2.18124e-05
2.10423e-05
2.10399e-05
2.09714e-05
2.01555e-05
2.18134e-05
2.10419e-05
2.1041e-05
2.01547e-05
1.99989e-05
1.92987e-05
2.07969e-05
2.07959e-05
2.01037e-05
2.01025e-05
1.99988e-05
1.92983e-05
2.07982e-05
2.07965e-05
2.0105e-05
2.01033e-05
2.07958e-05
2.0105e-05
2.01025e-05
1.99983e-05
1.92981e-05
2.07969e-05
2.01045e-05
2.01036e-05
1.92967e-05
1.91658e-05
1.85718e-05
1.98856e-05
1.98843e-05
1.92698e-05
1.92684e-05
1.91654e-05
1.85715e-05
1.98868e-05
1.98852e-05
1.9271e-05
1.92694e-05
1.98844e-05
1.92711e-05
1.92686e-05
1.91649e-05
1.85712e-05
1.98855e-05
1.92706e-05
1.92696e-05
1.85699e-05
1.84714e-05
1.79754e-05
1.90774e-05
1.90761e-05
1.85369e-05
1.85356e-05
1.84711e-05
1.7975e-05
1.90786e-05
1.9077e-05
1.8538e-05
1.85364e-05
1.90763e-05
1.85381e-05
1.85358e-05
1.84708e-05
1.79747e-05
1.90772e-05
1.85377e-05
1.85366e-05
1.79736e-05
1.79112e-05
1.75125e-05
1.83693e-05
1.83679e-05
1.79015e-05
1.79002e-05
1.79107e-05
1.75122e-05
1.83703e-05
1.83688e-05
1.79026e-05
1.7901e-05
1.83682e-05
1.79025e-05
1.79004e-05
1.79104e-05
1.75117e-05
1.8369e-05
1.79021e-05
1.79012e-05
1.75108e-05
1.74797e-05
1.71863e-05
1.77578e-05
1.77565e-05
1.73613e-05
1.73601e-05
1.7479e-05
1.71869e-05
1.77588e-05
1.77573e-05
1.73624e-05
1.73608e-05
1.77567e-05
1.73621e-05
1.73603e-05
1.74786e-05
1.71858e-05
1.77575e-05
1.73618e-05
1.7361e-05
1.71848e-05
1.71691e-05
1.69859e-05
1.72415e-05
1.72402e-05
1.69156e-05
1.69145e-05
1.71669e-05
1.69882e-05
1.72424e-05
1.72409e-05
1.69166e-05
1.69151e-05
1.72405e-05
1.69162e-05
1.69147e-05
1.71661e-05
1.69877e-05
1.72412e-05
1.69159e-05
1.69153e-05
1.69854e-05
1.69867e-05
1.69299e-05
1.68194e-05
1.68183e-05
1.65632e-05
1.65624e-05
1.69827e-05
1.6931e-05
1.68202e-05
1.68188e-05
1.65642e-05
1.65627e-05
1.68185e-05
1.65637e-05
1.65624e-05
1.6982e-05
1.69303e-05
1.68191e-05
1.65635e-05
1.6563e-05
1.69287e-05
1.69393e-05
1.69956e-05
1.64908e-05
1.64898e-05
1.63042e-05
1.63036e-05
1.69391e-05
1.6998e-05
1.64915e-05
1.64901e-05
1.63052e-05
1.63037e-05
1.649e-05
1.63045e-05
1.63035e-05
1.69385e-05
1.69974e-05
1.64905e-05
1.63044e-05
1.6304e-05
1.69945e-05
1.70338e-05
1.71897e-05
1.62555e-05
1.62547e-05
1.61386e-05
1.61381e-05
1.70313e-05
1.71964e-05
1.6256e-05
1.62549e-05
1.61394e-05
1.61382e-05
1.62548e-05
1.61386e-05
1.6138e-05
1.70308e-05
1.71972e-05
1.62552e-05
1.61386e-05
1.61384e-05
1.71865e-05
1.72553e-05
1.7513e-05
1.61135e-05
1.6113e-05
1.6066e-05
1.60657e-05
1.72494e-05
1.7526e-05
1.6114e-05
1.6113e-05
1.60666e-05
1.60656e-05
1.61129e-05
1.60657e-05
1.60655e-05
1.7249e-05
1.75269e-05
1.61133e-05
1.60659e-05
1.60658e-05
1.75122e-05
1.76109e-05
1.60643e-05
1.60642e-05
1.7598e-05
1.6065e-05
1.60641e-05
1.60639e-05
1.75984e-05
1.60642e-05
3.73774e-05
3.73766e-05
3.7377e-05
3.7377e-05
3.73701e-05
3.73777e-05
3.73049e-05
3.73768e-05
3.73702e-05
3.73777e-05
3.73769e-05
3.73045e-05
3.73741e-05
3.72974e-05
3.7297e-05
3.58626e-05
4.06806e-05
3.65928e-05
4.50632e-05
5.51598e-05
6.49666e-05
3.58691e-05
4.06856e-05
3.65954e-05
4.50603e-05
3.58933e-05
3.58933e-05
3.58933e-05
3.44002e-05
3.44001e-05
3.44002e-05
3.44002e-05
3.52727e-05
3.56118e-05
3.58931e-05
3.53767e-05
3.60493e-05
3.41861e-05
3.53822e-05
5.51897e-05
6.49949e-05
3.52727e-05
3.58931e-05
3.56078e-05
3.53767e-05
3.60491e-05
3.53822e-05
3.41861e-05
3.66196e-05
3.65803e-05
3.52786e-05
3.40538e-05
3.40538e-05
3.39359e-05
5.12962e-05
3.46661e-05
5.46144e-05
7.66661e-05
8.09447e-05
3.39487e-05
5.13031e-05
3.46756e-05
5.46112e-05
3.39293e-05
3.39293e-05
3.39293e-05
3.25848e-05
3.25847e-05
3.25848e-05
3.25848e-05
3.30433e-05
3.24347e-05
3.39291e-05
3.34068e-05
3.38916e-05
3.15309e-05
3.34673e-05
7.66557e-05
8.09815e-05
3.30434e-05
3.39292e-05
3.2441e-05
3.3407e-05
3.3892e-05
3.34673e-05
3.15367e-05
3.1683e-05
3.1687e-05
3.32602e-05
3.088e-05
3.08714e-05
3.22276e-05
5.91591e-05
3.29082e-05
6.14574e-05
8.44035e-05
8.50785e-05
3.22338e-05
5.91623e-05
3.29144e-05
6.14621e-05
3.21569e-05
3.2157e-05
3.21569e-05
3.09268e-05
3.09267e-05
3.09268e-05
3.09267e-05
3.07729e-05
3.04841e-05
3.21361e-05
3.155e-05
3.16251e-05
2.98616e-05
3.17084e-05
8.44192e-05
8.50831e-05
3.07726e-05
3.21361e-05
3.0489e-05
3.15501e-05
3.1624e-05
3.17083e-05
2.98629e-05
3.01942e-05
3.02066e-05
3.12659e-05
2.99773e-05
2.9989e-05
3.07326e-05
6.4353e-05
3.13333e-05
6.57475e-05
8.46079e-05
8.39179e-05
3.07412e-05
6.43545e-05
3.13381e-05
6.57508e-05
3.05329e-05
3.0533e-05
3.05329e-05
2.93959e-05
2.93957e-05
2.93958e-05
2.93957e-05
2.85835e-05
2.91227e-05
3.04668e-05
2.97944e-05
2.94011e-05
2.8653e-05
3.00658e-05
8.46091e-05
8.3917e-05
2.85853e-05
3.04668e-05
2.91261e-05
2.97944e-05
2.9402e-05
3.00659e-05
2.86567e-05
2.99441e-05
2.99459e-05
2.93383e-05
3.00516e-05
3.00489e-05
2.9494e-05
6.73156e-05
2.99832e-05
6.80433e-05
8.21941e-05
8.1228e-05
2.9509e-05
6.73185e-05
2.99858e-05
6.80479e-05
2.90304e-05
2.90305e-05
2.90303e-05
2.79727e-05
2.79725e-05
2.79726e-05
2.79724e-05
2.655e-05
2.81041e-05
2.8899e-05
2.81442e-05
2.73082e-05
2.77613e-05
2.85217e-05
8.21926e-05
8.12298e-05
2.65511e-05
2.88992e-05
2.81084e-05
2.81444e-05
2.73093e-05
2.85219e-05
2.77695e-05
3.0482e-05
3.04794e-05
2.75215e-05
3.08083e-05
3.08037e-05
2.8581e-05
6.87348e-05
2.8927e-05
6.90312e-05
7.94214e-05
7.85444e-05
2.85935e-05
6.87385e-05
2.89316e-05
6.90345e-05
2.7632e-05
2.76321e-05
2.76319e-05
2.66449e-05
2.66447e-05
2.66449e-05
2.66445e-05
2.47242e-05
2.73795e-05
2.74239e-05
2.66037e-05
2.54072e-05
2.7169e-05
2.70693e-05
7.94198e-05
7.85466e-05
2.4725e-05
2.74242e-05
2.73852e-05
2.6604e-05
2.54074e-05
2.70694e-05
2.71757e-05
3.16352e-05
3.16399e-05
2.58392e-05
3.21393e-05
3.214e-05
2.80329e-05
6.92435e-05
2.82282e-05
6.92992e-05
7.69984e-05
7.63014e-05
2.80456e-05
6.92464e-05
2.82257e-05
6.93022e-05
2.63266e-05
2.63268e-05
2.63264e-05
2.5404e-05
2.54037e-05
2.54039e-05
2.54035e-05
2.31432e-05
2.69743e-05
2.60387e-05
2.51741e-05
2.374e-05
2.68982e-05
2.57063e-05
7.69978e-05
7.63025e-05
2.31439e-05
2.60389e-05
2.69753e-05
2.51743e-05
2.37404e-05
2.57064e-05
2.69002e-05
3.32858e-05
3.32878e-05
2.4307e-05
3.39216e-05
3.39224e-05
2.78964e-05
6.92834e-05
2.79088e-05
6.92535e-05
7.50762e-05
7.45463e-05
2.79021e-05
6.92869e-05
2.79119e-05
6.92575e-05
2.51063e-05
2.51065e-05
2.5106e-05
2.42437e-05
2.42434e-05
2.42435e-05
2.42431e-05
2.18284e-05
2.69169e-05
2.47422e-05
2.3855e-05
2.23313e-05
2.6967e-05
2.44319e-05
7.50771e-05
7.4545e-05
2.18281e-05
2.47423e-05
2.69174e-05
2.38551e-05
2.2331e-05
2.44319e-05
2.69616e-05
3.52934e-05
3.52967e-05
2.29296e-05
3.60274e-05
3.60275e-05
2.81417e-05
6.91793e-05
2.80275e-05
6.91441e-05
7.36158e-05
7.32248e-05
2.8161e-05
6.91848e-05
2.80235e-05
6.91497e-05
2.39654e-05
2.39655e-05
2.39651e-05
2.31596e-05
2.31592e-05
2.31593e-05
2.31589e-05
2.07885e-05
2.71839e-05
2.35337e-05
2.26477e-05
2.11891e-05
2.73504e-05
2.32448e-05
7.36163e-05
7.32217e-05
2.07875e-05
2.35336e-05
2.71935e-05
2.26475e-05
2.11881e-05
2.32446e-05
2.7335e-05
3.75409e-05
3.75466e-05
2.17069e-05
3.83278e-05
3.83302e-05
2.88143e-05
6.90963e-05
2.85558e-05
6.90872e-05
7.25377e-05
7.2252e-05
2.88253e-05
6.91018e-05
2.85542e-05
6.90935e-05
2.28997e-05
2.28997e-05
2.28993e-05
2.21477e-05
2.21473e-05
2.21474e-05
2.2147e-05
2.00186e-05
2.7769e-05
2.24092e-05
2.15505e-05
2.03104e-05
2.80388e-05
2.21412e-05
7.2537e-05
7.22542e-05
2.00182e-05
2.24091e-05
2.77786e-05
2.15501e-05
2.03083e-05
2.21408e-05
2.80271e-05
3.99285e-05
3.993e-05
2.06361e-05
4.07334e-05
4.07384e-05
2.99027e-05
6.90868e-05
2.9499e-05
6.9105e-05
7.17594e-05
7.15635e-05
2.99062e-05
6.90925e-05
2.94959e-05
6.91092e-05
2.19054e-05
2.19054e-05
2.1905e-05
2.12047e-05
2.12044e-05
2.12044e-05
2.1204e-05
1.95132e-05
2.86453e-05
2.13685e-05
2.05606e-05
1.96958e-05
2.90001e-05
2.11214e-05
7.17647e-05
7.15586e-05
1.95112e-05
2.13682e-05
2.86539e-05
2.05602e-05
1.96902e-05
2.1121e-05
2.89896e-05
4.23512e-05
4.23531e-05
1.97086e-05
4.31482e-05
4.31554e-05
3.13843e-05
6.91393e-05
3.08545e-05
6.91834e-05
7.12106e-05
7.10781e-05
3.13982e-05
6.91479e-05
3.08474e-05
6.91845e-05
2.09793e-05
2.09792e-05
2.09788e-05
2.03266e-05
2.03264e-05
2.03264e-05
2.03259e-05
1.9264e-05
2.97697e-05
2.04109e-05
1.96752e-05
1.93426e-05
3.01923e-05
2.01842e-05
7.12172e-05
7.10723e-05
1.92645e-05
2.04105e-05
2.97772e-05
1.96747e-05
1.93362e-05
2.01836e-05
3.0195e-05
4.47239e-05
4.47334e-05
1.8917e-05
4.5492e-05
4.54992e-05
3.32497e-05
6.92395e-05
3.25957e-05
6.92918e-05
7.08282e-05
7.07399e-05
3.32544e-05
6.92481e-05
3.25871e-05
6.92938e-05
2.01163e-05
2.01163e-05
2.01159e-05
1.951e-05
1.95097e-05
1.95097e-05
1.95092e-05
1.9283e-05
3.11064e-05
1.95335e-05
1.88923e-05
1.92527e-05
3.15896e-05
1.93263e-05
7.08348e-05
7.07332e-05
1.92814e-05
1.95331e-05
3.11166e-05
1.88918e-05
1.92508e-05
1.93258e-05
3.15912e-05
4.69815e-05
4.69918e-05
1.82554e-05
4.76968e-05
4.7705e-05
3.54323e-05
6.93544e-05
3.46777e-05
6.94062e-05
7.05593e-05
7.05011e-05
3.54359e-05
6.9363e-05
3.46742e-05
6.94094e-05
1.93153e-05
1.93154e-05
1.93149e-05
1.8755e-05
1.87547e-05
1.87547e-05
1.87542e-05
1.95479e-05
3.26127e-05
1.87332e-05
1.82084e-05
1.94309e-05
3.31509e-05
1.85449e-05
7.05656e-05
7.04934e-05
1.95482e-05
1.87328e-05
3.26228e-05
1.8208e-05
1.94293e-05
1.85444e-05
3.31409e-05
4.90689e-05
4.90783e-05
1.77252e-05
4.97191e-05
4.97273e-05
3.78633e-05
6.94657e-05
3.7035e-05
6.95137e-05
7.03646e-05
7.03237e-05
3.78662e-05
6.9475e-05
3.70317e-05
6.95175e-05
1.85754e-05
1.85754e-05
1.8575e-05
1.80591e-05
1.80587e-05
1.80588e-05
1.80583e-05
2.00731e-05
3.42301e-05
1.80075e-05
1.76205e-05
1.98665e-05
3.47951e-05
1.78375e-05
7.03703e-05
7.03169e-05
2.00704e-05
1.80071e-05
3.42426e-05
1.76201e-05
1.98672e-05
1.78371e-05
3.47818e-05
5.09576e-05
5.09657e-05
1.73313e-05
5.15378e-05
5.15468e-05
4.04387e-05
6.95676e-05
3.95695e-05
6.96112e-05
7.02172e-05
7.01821e-05
4.04496e-05
6.9577e-05
3.95695e-05
6.96153e-05
1.78938e-05
1.78939e-05
1.78935e-05
1.74198e-05
1.74194e-05
1.74195e-05
1.74191e-05
2.084e-05
3.59204e-05
1.7354e-05
1.71274e-05
2.05546e-05
3.64861e-05
1.72018e-05
7.02198e-05
7.01791e-05
2.08422e-05
1.73537e-05
3.59278e-05
1.71271e-05
2.05537e-05
1.72014e-05
3.64838e-05
5.26333e-05
5.26438e-05
1.70695e-05
5.31446e-05
5.31539e-05
4.30564e-05
6.966e-05
4.21709e-05
6.97001e-05
7.00958e-05
7.00644e-05
4.30747e-05
6.96696e-05
4.21579e-05
6.97044e-05
1.72684e-05
1.72684e-05
1.72681e-05
1.6835e-05
1.68347e-05
1.68347e-05
1.68343e-05
2.18444e-05
3.76209e-05
1.67721e-05
1.67283e-05
2.14844e-05
3.8184e-05
1.66374e-05
7.00956e-05
7.00628e-05
2.18451e-05
1.67718e-05
3.76304e-05
1.67281e-05
2.14819e-05
1.66371e-05
3.81803e-05
5.41041e-05
5.41158e-05
1.69399e-05
5.45499e-05
5.45607e-05
4.55962e-05
6.97453e-05
4.4722e-05
6.97831e-05
6.99889e-05
6.99603e-05
4.56131e-05
6.97548e-05
4.47136e-05
6.97876e-05
1.6697e-05
1.66969e-05
1.66967e-05
1.63031e-05
1.63028e-05
1.63028e-05
1.63026e-05
2.30652e-05
3.92994e-05
1.62593e-05
1.64224e-05
2.26318e-05
3.98495e-05
1.61416e-05
6.99879e-05
6.99593e-05
2.30639e-05
1.62591e-05
3.93057e-05
1.64223e-05
2.26366e-05
1.61414e-05
3.98382e-05
5.53861e-05
5.53978e-05
1.69461e-05
5.57728e-05
5.57835e-05
4.79582e-05
6.98257e-05
4.71381e-05
6.98614e-05
6.98911e-05
6.9865e-05
4.79729e-05
6.98348e-05
4.71321e-05
6.98659e-05
1.61782e-05
1.61782e-05
1.6178e-05
1.58223e-05
1.58221e-05
1.5822e-05
1.58218e-05
2.44601e-05
4.09122e-05
1.58143e-05
1.62099e-05
2.39788e-05
4.1435e-05
1.57133e-05
6.98901e-05
6.98642e-05
2.44608e-05
1.58141e-05
4.09216e-05
1.62098e-05
2.39846e-05
1.57132e-05
4.14325e-05
5.64987e-05
5.65102e-05
1.70743e-05
5.68355e-05
5.68473e-05
5.00792e-05
6.99014e-05
4.934e-05
6.99348e-05
6.98005e-05
6.97765e-05
5.00932e-05
6.99105e-05
4.93359e-05
6.99395e-05
1.57098e-05
1.57097e-05
1.57096e-05
1.53905e-05
1.53903e-05
1.53902e-05
1.53901e-05
2.60076e-05
4.24452e-05
1.54367e-05
1.60906e-05
2.54876e-05
4.29365e-05
1.53525e-05
6.97995e-05
6.97756e-05
2.60137e-05
1.54366e-05
4.24543e-05
1.60907e-05
2.54879e-05
1.53524e-05
4.29376e-05
5.74672e-05
5.74786e-05
1.73335e-05
5.77608e-05
5.77719e-05
5.19303e-05
6.99721e-05
5.12828e-05
7.00034e-05
6.97156e-05
6.96933e-05
6.9981e-05
5.12806e-05
7.00081e-05
1.529e-05
1.52899e-05
1.52898e-05
2.76508e-05
4.38776e-05
1.51262e-05
1.60665e-05
2.71036e-05
4.43347e-05
1.50587e-05
6.97148e-05
2.76572e-05
1.51261e-05
4.3886e-05
2.71016e-05
1.50586e-05
5.83126e-05
5.83234e-05
1.77248e-05
5.85691e-05
5.85802e-05
3.73741e-05
3.72968e-05
3.72966e-05
5.31783e-05
3.71923e-05
5.32456e-05
3.71927e-05
3.70929e-05
3.72524e-05
3.72553e-05
3.71753e-05
3.71772e-05
3.73702e-05
3.73777e-05
3.73051e-05
3.73768e-05
3.73702e-05
3.73777e-05
3.73043e-05
3.73768e-05
3.71728e-05
3.93032e-05
3.71538e-05
3.67302e-05
3.71729e-05
3.92235e-05
3.71645e-05
3.67314e-05
3.70959e-05
3.71021e-05
3.59935e-05
3.64209e-05
3.71642e-05
3.71108e-05
3.63051e-05
3.70958e-05
3.71021e-05
3.59877e-05
3.64209e-05
3.71666e-05
3.71108e-05
3.63052e-05
3.73741e-05
3.72966e-05
3.72967e-05
5.32198e-05
3.71927e-05
3.70929e-05
3.725e-05
3.72574e-05
3.71761e-05
3.71763e-05
5.32134e-05
3.71926e-05
3.73702e-05
3.73777e-05
3.73046e-05
3.73769e-05
3.73702e-05
3.73777e-05
3.73768e-05
3.73046e-05
3.71728e-05
3.92289e-05
3.71639e-05
3.67322e-05
3.70959e-05
3.71021e-05
3.59873e-05
3.64209e-05
3.71661e-05
3.71108e-05
3.63054e-05
3.71728e-05
3.92303e-05
3.71641e-05
3.67311e-05
3.70959e-05
3.71021e-05
3.64209e-05
3.59867e-05
3.71108e-05
3.71662e-05
3.63052e-05
3.73774e-05
3.73766e-05
3.7377e-05
3.7377e-05
3.73774e-05
3.73766e-05
3.7377e-05
3.7377e-05
3.73774e-05
3.73766e-05
3.7377e-05
3.7377e-05
3.71133e-05
3.71098e-05
3.64241e-05
3.64241e-05
3.71125e-05
3.71125e-05
3.64261e-05
3.71133e-05
3.71098e-05
3.64241e-05
3.64241e-05
3.71125e-05
3.71125e-05
3.64261e-05
3.71133e-05
3.71098e-05
3.64241e-05
3.64241e-05
3.71125e-05
3.71125e-05
3.64261e-05
3.71133e-05
3.71098e-05
3.64241e-05
3.64241e-05
3.71125e-05
3.71125e-05
3.64261e-05
3.73702e-05
3.73777e-05
3.73768e-05
3.73048e-05
3.7096e-05
3.71021e-05
3.59935e-05
3.64209e-05
3.71643e-05
3.71108e-05
3.63054e-05
3.71728e-05
3.93049e-05
3.71539e-05
3.67326e-05
3.70959e-05
3.71021e-05
3.64209e-05
3.59983e-05
3.71108e-05
3.71648e-05
3.63054e-05
3.71728e-05
3.9301e-05
3.71544e-05
3.67326e-05
3.73741e-05
3.72966e-05
3.72965e-05
5.31945e-05
3.71927e-05
3.70929e-05
3.7256e-05
3.72608e-05
3.71769e-05
3.7177e-05
5.32117e-05
3.71929e-05
3.73702e-05
3.73777e-05
3.73769e-05
3.7305e-05
3.70958e-05
3.71021e-05
3.64209e-05
3.59868e-05
3.71108e-05
3.71662e-05
3.63054e-05
3.70959e-05
3.71021e-05
3.64209e-05
3.59983e-05
3.71108e-05
3.71644e-05
3.63054e-05
3.71729e-05
3.92248e-05
3.71641e-05
3.67326e-05
3.71729e-05
3.929e-05
3.71541e-05
3.67332e-05
3.70929e-05
3.7245e-05
3.72125e-05
3.71745e-05
3.71755e-05
5.31916e-05
3.71924e-05
5.30113e-05
3.71922e-05
5.51813e-05
6.50117e-05
5.52074e-05
6.50418e-05
3.66294e-05
3.66066e-05
3.52787e-05
3.40451e-05
3.40454e-05
7.48402e-05
6.77289e-05
7.48845e-05
6.78291e-05
3.49725e-05
3.19712e-05
3.2001e-05
3.34501e-05
3.34655e-05
3.58612e-05
4.06889e-05
3.65939e-05
4.50611e-05
3.52713e-05
3.56061e-05
3.58931e-05
3.53767e-05
3.60486e-05
3.41798e-05
3.53821e-05
3.52711e-05
3.56009e-05
3.58931e-05
3.53766e-05
3.60487e-05
3.41758e-05
3.53821e-05
3.56263e-05
5.01619e-05
4.63613e-05
3.48731e-05
3.56252e-05
5.01657e-05
4.63519e-05
3.48752e-05
3.49959e-05
3.48716e-05
3.26776e-05
3.44015e-05
3.38193e-05
3.48854e-05
3.41717e-05
3.49956e-05
3.48715e-05
3.26761e-05
3.44014e-05
3.38128e-05
3.48854e-05
3.41724e-05
3.66122e-05
3.66316e-05
3.52786e-05
3.40284e-05
3.4048e-05
5.51819e-05
6.49972e-05
7.48763e-05
6.77476e-05
3.49724e-05
3.19882e-05
3.19726e-05
3.34406e-05
3.34603e-05
7.48493e-05
6.77326e-05
3.52729e-05
3.56021e-05
3.58931e-05
3.53766e-05
3.60491e-05
3.41799e-05
3.53822e-05
3.58623e-05
4.06899e-05
3.65948e-05
4.50723e-05
3.52714e-05
3.58931e-05
3.56047e-05
3.53767e-05
3.60488e-05
3.53821e-05
3.41808e-05
3.56328e-05
5.01719e-05
4.63602e-05
3.4884e-05
3.49977e-05
3.48716e-05
3.26826e-05
3.44015e-05
3.382e-05
3.48855e-05
3.41752e-05
3.56252e-05
5.01641e-05
4.63589e-05
3.48779e-05
3.49958e-05
3.48716e-05
3.44015e-05
3.26775e-05
3.48854e-05
3.38192e-05
3.41733e-05
3.58674e-05
4.06746e-05
3.6598e-05
4.50693e-05
3.52727e-05
3.58931e-05
3.56053e-05
3.53767e-05
3.60492e-05
3.53822e-05
3.4177e-05
3.58676e-05
4.06732e-05
3.65978e-05
4.50686e-05
3.49975e-05
3.48717e-05
3.26795e-05
3.44015e-05
3.38238e-05
3.48855e-05
3.41739e-05
3.56317e-05
5.01608e-05
4.63528e-05
3.48799e-05
3.49978e-05
3.48716e-05
3.44015e-05
3.26724e-05
3.48855e-05
3.38137e-05
3.41739e-05
3.56321e-05
5.01647e-05
4.63599e-05
3.48795e-05
3.66322e-05
3.66139e-05
3.52786e-05
3.40438e-05
3.40353e-05
5.51874e-05
6.49938e-05
7.48537e-05
6.77372e-05
3.49724e-05
3.19707e-05
3.19882e-05
3.34524e-05
3.34494e-05
7.48707e-05
6.77529e-05
3.52731e-05
3.58931e-05
3.56028e-05
3.53766e-05
3.60492e-05
3.53822e-05
3.41774e-05
3.58677e-05
4.06913e-05
3.65963e-05
4.5067e-05
3.58696e-05
4.06531e-05
3.65979e-05
4.50716e-05
3.49976e-05
3.48717e-05
3.44015e-05
3.26885e-05
3.48855e-05
3.38256e-05
3.41746e-05
3.49979e-05
3.48716e-05
3.44016e-05
3.26763e-05
3.48855e-05
3.38165e-05
3.41755e-05
3.56308e-05
5.01684e-05
4.63555e-05
3.48812e-05
3.56325e-05
5.01713e-05
4.63679e-05
3.48843e-05
5.51822e-05
6.50091e-05
5.50556e-05
6.51566e-05
3.49724e-05
3.19841e-05
3.19975e-05
3.34605e-05
3.34731e-05
7.48456e-05
6.77357e-05
7.48519e-05
6.7885e-05
7.66571e-05
8.09655e-05
7.6645e-05
8.09246e-05
3.16776e-05
3.16959e-05
3.32604e-05
3.08745e-05
3.08676e-05
8.40416e-05
8.19148e-05
8.40419e-05
8.18835e-05
3.29507e-05
3.02696e-05
3.02567e-05
3.07231e-05
3.07056e-05
3.39382e-05
5.13034e-05
3.46683e-05
5.46139e-05
3.30422e-05
3.24321e-05
3.39291e-05
3.34068e-05
3.38899e-05
3.15294e-05
3.34672e-05
3.30432e-05
3.24305e-05
3.39291e-05
3.34067e-05
3.38907e-05
3.15271e-05
3.34673e-05
3.37626e-05
5.83755e-05
5.55738e-05
3.30542e-05
3.37637e-05
5.83738e-05
5.55708e-05
3.30506e-05
3.27601e-05
3.2933e-05
3.06132e-05
3.25716e-05
3.13567e-05
3.3015e-05
3.19048e-05
3.27607e-05
3.29327e-05
3.06075e-05
3.25715e-05
3.13517e-05
3.3015e-05
3.19034e-05
3.16936e-05
3.16815e-05
3.32605e-05
3.08846e-05
3.08687e-05
7.666e-05
8.0968e-05
8.40334e-05
8.18926e-05
3.29509e-05
3.02704e-05
3.02681e-05
3.07228e-05
3.07231e-05
8.40478e-05
8.19171e-05
3.3047e-05
3.24359e-05
3.39292e-05
3.3407e-05
3.38933e-05
3.15285e-05
3.34674e-05
3.39458e-05
5.13001e-05
3.46709e-05
5.4619e-05
3.30459e-05
3.39291e-05
3.24325e-05
3.34068e-05
3.38918e-05
3.34674e-05
3.15289e-05
3.37709e-05
5.83763e-05
5.55709e-05
3.30642e-05
3.27645e-05
3.2933e-05
3.06102e-05
3.25718e-05
3.13531e-05
3.30153e-05
3.19093e-05
3.37688e-05
5.83803e-05
5.55765e-05
3.30625e-05
3.27637e-05
3.29329e-05
3.25718e-05
3.06123e-05
3.30152e-05
3.13566e-05
3.19086e-05
3.39398e-05
5.12949e-05
3.46712e-05
5.46117e-05
3.30429e-05
3.39291e-05
3.24254e-05
3.34067e-05
3.38915e-05
3.34673e-05
3.15221e-05
3.3938e-05
5.13016e-05
3.46705e-05
5.46174e-05
3.27605e-05
3.29329e-05
3.0616e-05
3.25715e-05
3.1359e-05
3.3015e-05
3.19038e-05
3.37638e-05
5.83712e-05
5.55683e-05
3.30525e-05
3.27602e-05
3.29327e-05
3.25715e-05
3.06045e-05
3.3015e-05
3.13473e-05
3.19046e-05
3.37627e-05
5.83792e-05
5.55766e-05
3.3054e-05
3.16785e-05
3.16851e-05
3.32603e-05
3.0873e-05
3.08729e-05
7.66613e-05
8.09436e-05
8.40558e-05
8.19287e-05
3.29508e-05
3.02676e-05
3.02743e-05
3.0723e-05
3.07173e-05
8.40467e-05
8.18998e-05
3.30464e-05
3.39292e-05
3.24268e-05
3.34068e-05
3.38933e-05
3.34674e-05
3.15225e-05
3.3939e-05
5.13024e-05
3.46706e-05
5.4613e-05
3.39472e-05
5.12979e-05
3.46753e-05
5.46127e-05
3.27599e-05
3.29331e-05
3.25715e-05
3.062e-05
3.30151e-05
3.13623e-05
3.1903e-05
3.27636e-05
3.29329e-05
3.25718e-05
3.06084e-05
3.30152e-05
3.13485e-05
3.19079e-05
3.37591e-05
5.83777e-05
5.55712e-05
3.305e-05
3.37697e-05
5.83822e-05
5.55736e-05
3.30623e-05
7.66613e-05
8.09657e-05
7.66147e-05
8.0937e-05
3.29506e-05
3.02693e-05
3.02775e-05
3.0719e-05
3.07172e-05
8.4045e-05
8.19168e-05
8.40569e-05
8.19072e-05
8.44046e-05
8.50765e-05
8.44139e-05
8.50835e-05
3.01984e-05
3.01854e-05
3.1266e-05
2.99777e-05
2.99744e-05
8.48339e-05
8.50761e-05
8.48362e-05
8.50817e-05
3.09538e-05
2.99285e-05
2.9926e-05
2.99603e-05
2.99565e-05
3.2217e-05
5.91574e-05
3.29021e-05
6.14589e-05
3.07751e-05
3.04814e-05
3.21363e-05
3.15499e-05
3.16266e-05
2.98582e-05
3.17086e-05
3.07706e-05
3.04753e-05
3.21361e-05
3.15493e-05
3.1624e-05
2.98505e-05
3.17083e-05
3.20964e-05
6.38943e-05
6.20729e-05
3.14524e-05
3.20852e-05
6.38949e-05
6.20726e-05
3.14409e-05
3.05035e-05
3.11015e-05
2.92145e-05
3.08743e-05
2.97447e-05
3.1288e-05
2.96645e-05
3.04982e-05
3.11009e-05
2.92072e-05
3.08737e-05
2.97435e-05
3.12876e-05
2.96587e-05
3.01949e-05
3.02018e-05
3.12663e-05
2.99807e-05
2.99823e-05
8.44114e-05
8.50808e-05
8.48374e-05
8.50776e-05
3.09538e-05
2.99331e-05
2.99304e-05
2.99625e-05
2.9965e-05
8.48354e-05
8.50798e-05
3.07789e-05
3.0479e-05
3.21366e-05
3.15499e-05
3.16306e-05
2.9855e-05
3.17088e-05
3.22328e-05
5.91617e-05
3.29131e-05
6.1463e-05
3.07785e-05
3.21365e-05
3.04809e-05
3.15497e-05
3.163e-05
3.17088e-05
2.98565e-05
3.21018e-05
6.38973e-05
6.20762e-05
3.14593e-05
3.0507e-05
3.11015e-05
2.92105e-05
3.08745e-05
2.97477e-05
3.12883e-05
2.96684e-05
3.21017e-05
6.38995e-05
6.20756e-05
3.14594e-05
3.05067e-05
3.11012e-05
3.08745e-05
2.92137e-05
3.12882e-05
2.97442e-05
2.96684e-05
3.22224e-05
5.91523e-05
3.29047e-05
6.14548e-05
3.07753e-05
3.21362e-05
3.04727e-05
3.15495e-05
3.16265e-05
3.17085e-05
2.98493e-05
3.22275e-05
5.91618e-05
3.29081e-05
6.14608e-05
3.05013e-05
3.11017e-05
2.92151e-05
3.0874e-05
2.97476e-05
3.12878e-05
2.96629e-05
3.20924e-05
6.38923e-05
6.20673e-05
3.14497e-05
3.05039e-05
3.1101e-05
3.08742e-05
2.92079e-05
3.12879e-05
2.97372e-05
2.96651e-05
3.20974e-05
6.38971e-05
6.20742e-05
3.1453e-05
3.01979e-05
3.02041e-05
3.12656e-05
2.99754e-05
2.99885e-05
8.4416e-05
8.50808e-05
8.48389e-05
8.50817e-05
3.09531e-05
2.99223e-05
2.99325e-05
2.99569e-05
2.9967e-05
8.48467e-05
8.50787e-05
3.07773e-05
3.21365e-05
3.04773e-05
3.15498e-05
3.16289e-05
3.17087e-05
2.98535e-05
3.22212e-05
5.91616e-05
3.28997e-05
6.14606e-05
3.22314e-05
5.91659e-05
3.29121e-05
6.14633e-05
3.0501e-05
3.11017e-05
3.0874e-05
2.92166e-05
3.12878e-05
2.97549e-05
2.96639e-05
3.05052e-05
3.11014e-05
3.08744e-05
2.92072e-05
3.12882e-05
2.97424e-05
2.96668e-05
3.20905e-05
6.3896e-05
6.20736e-05
3.14514e-05
3.20998e-05
6.38977e-05
6.20757e-05
3.14572e-05
8.44095e-05
8.50783e-05
8.4422e-05
8.50802e-05
3.09535e-05
2.99278e-05
2.99307e-05
2.99579e-05
2.99667e-05
8.48358e-05
8.50771e-05
8.48348e-05
8.50777e-05
8.46121e-05
8.39187e-05
8.46096e-05
8.39176e-05
2.9947e-05
2.99422e-05
2.93393e-05
3.00493e-05
3.00504e-05
8.26288e-05
8.35292e-05
8.26303e-05
8.35286e-05
2.90315e-05
3.03476e-05
3.03516e-05
3.013e-05
3.01256e-05
3.07248e-05
6.43509e-05
3.13209e-05
6.5747e-05
2.85831e-05
2.91196e-05
3.0467e-05
2.97944e-05
2.94023e-05
2.86567e-05
3.0066e-05
2.85788e-05
2.91169e-05
3.04663e-05
2.97934e-05
2.93967e-05
2.86494e-05
3.00652e-05
3.06255e-05
6.71005e-05
6.60715e-05
3.00758e-05
3.06171e-05
6.71012e-05
6.60697e-05
3.00728e-05
2.83331e-05
2.93717e-05
2.81757e-05
2.92821e-05
2.85751e-05
2.96711e-05
2.75413e-05
2.83292e-05
2.93707e-05
2.81678e-05
2.92814e-05
2.85744e-05
2.96703e-05
2.7539e-05
2.9949e-05
2.99484e-05
2.93391e-05
3.00581e-05
3.0048e-05
8.46103e-05
8.39163e-05
8.26285e-05
8.35287e-05
2.9031e-05
3.03536e-05
3.03426e-05
3.01293e-05
3.01286e-05
8.26286e-05
8.3527e-05
2.85879e-05
2.91214e-05
3.04673e-05
2.97945e-05
2.94061e-05
2.86538e-05
3.00663e-05
3.07429e-05
6.43547e-05
3.13369e-05
6.57525e-05
2.85882e-05
3.04673e-05
2.91155e-05
2.97938e-05
2.94062e-05
3.00663e-05
2.86564e-05
3.06291e-05
6.7105e-05
6.60736e-05
3.00892e-05
2.83377e-05
2.93719e-05
2.81692e-05
2.92825e-05
2.858e-05
2.96715e-05
2.75469e-05
3.06318e-05
6.7106e-05
6.60741e-05
3.0088e-05
2.83382e-05
2.93711e-05
2.92825e-05
2.8176e-05
2.96714e-05
2.85722e-05
2.75475e-05
3.07342e-05
6.43474e-05
3.13282e-05
6.57455e-05
2.85842e-05
3.04669e-05
2.91147e-05
2.97936e-05
2.9403e-05
3.00659e-05
2.86489e-05
3.07346e-05
6.43537e-05
3.13336e-05
6.57507e-05
2.8334e-05
2.93718e-05
2.81717e-05
2.9282e-05
2.85729e-05
2.96709e-05
2.75437e-05
3.06275e-05
6.70989e-05
6.60663e-05
3.0082e-05
2.83342e-05
2.9371e-05
2.9282e-05
2.81648e-05
2.9671e-05
2.85721e-05
2.75429e-05
3.06268e-05
6.71044e-05
6.60735e-05
3.00788e-05
2.99404e-05
2.99472e-05
2.9338e-05
3.0042e-05
3.00517e-05
8.46004e-05
8.39169e-05
8.26305e-05
8.35286e-05
2.90302e-05
3.03431e-05
3.03505e-05
3.01253e-05
3.01263e-05
8.26288e-05
8.35297e-05
2.85862e-05
3.04671e-05
2.9116e-05
2.9794e-05
2.94044e-05
3.00661e-05
2.86481e-05
3.07372e-05
6.43521e-05
3.1329e-05
6.57494e-05
3.0739e-05
6.43543e-05
3.13336e-05
6.57507e-05
2.83355e-05
2.93718e-05
2.92822e-05
2.81737e-05
2.96711e-05
2.85816e-05
2.75455e-05
2.83359e-05
2.93713e-05
2.92822e-05
2.81643e-05
2.96712e-05
2.85696e-05
2.75446e-05
3.0629e-05
6.71037e-05
6.60721e-05
3.00847e-05
3.06308e-05
6.71025e-05
6.60726e-05
3.00826e-05
8.46092e-05
8.39185e-05
8.46093e-05
8.39187e-05
2.90305e-05
3.03487e-05
3.03463e-05
3.01276e-05
3.01262e-05
8.26293e-05
8.353e-05
8.26276e-05
8.35298e-05
8.21943e-05
8.12284e-05
8.2193e-05
8.12293e-05
3.04849e-05
3.0481e-05
2.75228e-05
3.08063e-05
3.08073e-05
7.98448e-05
8.07888e-05
7.98457e-05
8.07868e-05
2.72283e-05
3.1409e-05
3.14126e-05
3.09923e-05
3.09934e-05
2.94923e-05
6.73152e-05
2.99793e-05
6.80448e-05
2.65462e-05
2.81036e-05
2.88989e-05
2.81441e-05
2.73052e-05
2.7764e-05
2.85215e-05
2.65451e-05
2.8106e-05
2.88983e-05
2.8143e-05
2.73034e-05
2.77558e-05
2.85209e-05
2.94145e-05
6.86615e-05
6.81751e-05
2.89933e-05
2.94146e-05
6.86631e-05
6.81758e-05
2.89916e-05
2.63267e-05
2.77485e-05
2.74239e-05
2.77839e-05
2.77144e-05
2.81499e-05
2.56048e-05
2.63257e-05
2.77474e-05