/*--------------------------------*- C++ -*----------------------------------*\
| =========                 |                                                 |
| \\      /  F ield         | OpenFOAM: The Open Source CFD Toolbox           |
|  \\    /   O peration     | Version:  v1906                                 |
|   \\  /    A nd           | Web:      www.OpenFOAM.com                      |
|    \\/     M anipulation  |                                                 |
\*---------------------------------------------------------------------------*/
FoamFile
{
    version     2.0;
    format      ascii;
    class       volScalarField;
    location    "400";
    object      p;
}
// * * * * * * * * * * * * * * * * * * * * * * * * * * * * * * * * * * * * * //

dimensions      [0 2 -2 0 0 0 0];


internalField   nonuniform List<scalar> 
42616
(
0.00358696
0.00358677
0.00358678
0.00358958
0.00353342
0.00353355
0.00353355
0.00353576
0.00348214
0.00348218
0.00348217
0.00348448
0.00343024
0.0034302
0.0034302
0.00343248
0.00337916
0.00337911
0.00337911
0.00338134
0.00332945
0.00332941
0.00332941
0.00333161
0.00328118
0.00328114
0.00328115
0.0032833
0.00323419
0.00323418
0.00323418
0.0032363
0.0031883
0.0031883
0.0031883
0.00319039
0.0031433
0.00314331
0.00314331
0.00314537
0.00309903
0.00309903
0.00309903
0.00310108
0.00305535
0.00305536
0.00305536
0.00305738
0.00301218
0.00301219
0.00301219
0.00301418
0.00296948
0.00296949
0.00296949
0.00297146
0.0029272
0.00292721
0.00292721
0.00292918
0.00288534
0.00288534
0.00288534
0.00288729
0.00284385
0.00284385
0.00284385
0.00284578
0.00280271
0.00280272
0.00280272
0.00280463
0.00276191
0.00276192
0.00276192
0.00276382
0.00272142
0.00272143
0.00272143
0.00272332
0.00268122
0.00268122
0.00268122
0.0026831
0.00360036
0.00360055
0.00360054
0.00360035
0.00360055
0.00360056
0.00360128
0.00360128
0.00360129
0.00360128
0.00360054
0.00360055
0.00360037
0.00360056
0.00360055
0.00360036
0.00358958
0.00354343
0.00358678
0.00358677
0.00354593
0.00354593
0.00358958
0.00354343
0.00358678
0.00358678
0.00354593
0.00354593
0.00358678
0.00354593
0.00354593
0.00358959
0.00354343
0.00358678
0.00354593
0.00354593
0.00354343
0.00353576
0.00349251
0.00353355
0.00353355
0.00349517
0.00349518
0.00353576
0.00349251
0.00353355
0.00353355
0.00349517
0.00349517
0.00353355
0.00349517
0.00349517
0.00353576
0.00349251
0.00353355
0.00349517
0.00349517
0.00349251
0.00348448
0.00344047
0.00348218
0.00348218
0.00344315
0.00344315
0.00348448
0.00344047
0.00348217
0.00348217
0.00344315
0.00344315
0.00348218
0.00344315
0.00344315
0.00348448
0.00344047
0.00348217
0.00344315
0.00344315
0.00344047
0.00343248
0.00338915
0.0034302
0.0034302
0.00339176
0.00339176
0.00343248
0.00338915
0.0034302
0.0034302
0.00339176
0.00339176
0.0034302
0.00339176
0.00339176
0.00343248
0.00338915
0.0034302
0.00339176
0.00339176
0.00338915
0.00338135
0.00333918
0.00337911
0.00337911
0.0033417
0.0033417
0.00338135
0.00333918
0.00337911
0.00337911
0.0033417
0.0033417
0.00337911
0.0033417
0.0033417
0.00338135
0.00333918
0.00337911
0.0033417
0.0033417
0.00333918
0.00333161
0.00329067
0.00332941
0.00332941
0.00329308
0.00329308
0.00333161
0.00329067
0.00332941
0.00332941
0.00329308
0.00329308
0.00332941
0.00329308
0.00329308
0.00333161
0.00329067
0.00332941
0.00329308
0.00329308
0.00329067
0.0032833
0.00324348
0.00328115
0.00328114
0.00324581
0.00324581
0.0032833
0.00324348
0.00328115
0.00328115
0.00324581
0.00324581
0.00328115
0.00324581
0.00324581
0.0032833
0.00324348
0.00328115
0.00324581
0.00324581
0.00324348
0.0032363
0.00319742
0.00323418
0.00323418
0.00319967
0.00319968
0.0032363
0.00319742
0.00323418
0.00323418
0.00319968
0.00319968
0.00323418
0.00319968
0.00319968
0.0032363
0.00319742
0.00323418
0.00319968
0.00319968
0.00319742
0.00319039
0.00315228
0.00318829
0.0031883
0.00315448
0.00315448
0.00319039
0.00315228
0.0031883
0.0031883
0.00315448
0.00315448
0.0031883
0.00315448
0.00315448
0.00319039
0.00315228
0.0031883
0.00315448
0.00315448
0.00315228
0.00314538
0.00310789
0.0031433
0.0031433
0.00311004
0.00311004
0.00314537
0.00310789
0.00314331
0.0031433
0.00311004
0.00311004
0.0031433
0.00311004
0.00311004
0.00314537
0.00310789
0.00314331
0.00311004
0.00311004
0.00310789
0.00310108
0.00306411
0.00309903
0.00309903
0.00306622
0.00306622
0.00310108
0.0030641
0.00309903
0.00309903
0.00306622
0.00306622
0.00309903
0.00306623
0.00306622
0.00310108
0.00306411
0.00309903
0.00306623
0.00306623
0.0030641
0.00305738
0.00302084
0.00305536
0.00305536
0.00302293
0.00302293
0.00305738
0.00302083
0.00305536
0.00305536
0.00302294
0.00302293
0.00305536
0.00302294
0.00302294
0.00305738
0.00302084
0.00305536
0.00302294
0.00302294
0.00302083
0.00301419
0.00297805
0.00301219
0.00301219
0.00298012
0.00298012
0.00301418
0.00297805
0.00301219
0.00301219
0.00298012
0.00298012
0.00301219
0.00298012
0.00298012
0.00301419
0.00297805
0.00301219
0.00298012
0.00298012
0.00297805
0.00297146
0.00293571
0.00296949
0.00296949
0.00293774
0.00293774
0.00297146
0.00293572
0.00296949
0.00296949
0.00293774
0.00293774
0.00296949
0.00293774
0.00293774
0.00297146
0.00293571
0.00296949
0.00293774
0.00293774
0.00293571
0.00292918
0.00289379
0.00292721
0.00292721
0.00289577
0.00289577
0.00292918
0.00289379
0.00292721
0.00292721
0.00289577
0.00289577
0.00292721
0.00289577
0.00289577
0.00292918
0.00289379
0.00292721
0.00289577
0.00289577
0.00289379
0.00288729
0.00285224
0.00288534
0.00288534
0.00285419
0.00285419
0.00288729
0.00285224
0.00288534
0.00288534
0.00285419
0.00285419
0.00288534
0.00285419
0.00285419
0.00288729
0.00285224
0.00288534
0.00285419
0.00285419
0.00285224
0.00284578
0.00281105
0.00284385
0.00284385
0.00281297
0.00281297
0.00284578
0.00281105
0.00284385
0.00284385
0.00281297
0.00281297
0.00284385
0.00281297
0.00281297
0.00284578
0.00281105
0.00284385
0.00281297
0.00281297
0.00281105
0.00280464
0.0027702
0.00280272
0.00280272
0.00277209
0.00277209
0.00280464
0.0027702
0.00280272
0.00280272
0.00277209
0.00277209
0.00280272
0.00277209
0.00277209
0.00280463
0.0027702
0.00280272
0.00277209
0.00277209
0.0027702
0.00276382
0.00272966
0.00276192
0.00276192
0.00273152
0.00273152
0.00276382
0.00272966
0.00276192
0.00276192
0.00273152
0.00273152
0.00276192
0.00273152
0.00273152
0.00276382
0.00272967
0.00276192
0.00273152
0.00273152
0.00272967
0.00272331
0.00268942
0.00272143
0.00272142
0.00269125
0.00269125
0.00272331
0.00268942
0.00272143
0.00272143
0.00269125
0.00269125
0.00272143
0.00269125
0.00269125
0.00272331
0.00268942
0.00272143
0.00269125
0.00269125
0.00268942
0.0026831
0.00268122
0.00268122
0.0026831
0.00268122
0.00268122
0.00268122
0.0026831
0.00268122
0.0036095
0.00361947
0.00361408
0.00361408
0.00363655
0.00362347
0.00365201
0.00361738
0.00363653
0.00362347
0.00361737
0.00365193
0.00362799
0.00365615
0.00365614
0.00356845
0.00356855
0.00358681
0.00356675
0.00354658
0.00356576
0.00356845
0.00356844
0.00358679
0.00356676
0.00358696
0.00358696
0.00358696
0.0035458
0.0035458
0.0035458
0.0035458
0.00356711
0.00358387
0.00358703
0.00357127
0.00358917
0.00356807
0.00357191
0.00354672
0.00356579
0.00356712
0.00358704
0.00358388
0.00357128
0.00358918
0.00357192
0.00356808
0.00358052
0.00358057
0.00356813
0.00356841
0.00356843
0.00351878
0.00353664
0.00353766
0.00351787
0.003536
0.00351741
0.00351878
0.00353662
0.00353766
0.00351787
0.00353342
0.00353342
0.00353342
0.00349512
0.00349512
0.00349512
0.00349512
0.00351788
0.00353713
0.00353349
0.00352094
0.00353642
0.00351835
0.00352088
0.003536
0.0035174
0.00351787
0.00353349
0.00353712
0.00352093
0.00353642
0.00352088
0.00351834
0.0035374
0.0035374
0.0035183
0.00351847
0.00351847
0.00346651
0.00348511
0.00348595
0.00346574
0.00348481
0.0034655
0.00346651
0.00348511
0.00348595
0.00346574
0.00348214
0.00348214
0.00348214
0.00344317
0.00344317
0.00344317
0.00344317
0.00346599
0.00348548
0.00348215
0.00346916
0.00348519
0.00346616
0.00346914
0.00348481
0.0034655
0.00346599
0.00348214
0.00348548
0.00346915
0.00348519
0.00346914
0.00346616
0.00348556
0.00348555
0.00346648
0.00346611
0.00346611
0.0034144
0.00343289
0.00343358
0.00341379
0.00343273
0.00341363
0.0034144
0.00343289
0.00343358
0.00341379
0.00343024
0.00343024
0.00343024
0.00339181
0.00339181
0.00339181
0.00339181
0.00341413
0.0034332
0.00343021
0.00341731
0.0034331
0.00341417
0.00341732
0.00343273
0.00341363
0.00341413
0.00343021
0.0034332
0.00341731
0.0034331
0.00341732
0.00341417
0.00343319
0.00343319
0.00341466
0.00341405
0.00341405
0.00336353
0.00338167
0.00338217
0.00336309
0.00338155
0.00336296
0.00336353
0.00338167
0.00338217
0.00336309
0.00337916
0.00337916
0.00337916
0.00334174
0.00334174
0.00334174
0.00334174
0.00336341
0.00338191
0.00337912
0.00336655
0.00338187
0.00336342
0.00336655
0.00338155
0.00336296
0.00336341
0.00337912
0.00338191
0.00336655
0.00338187
0.00336655
0.00336342
0.00338189
0.00338189
0.00336398
0.0033633
0.0033633
0.00331418
0.00333189
0.00333224
0.00331387
0.00333181
0.00331375
0.00331418
0.00333189
0.00333225
0.00331387
0.00332945
0.00332945
0.00332945
0.00329312
0.00329312
0.00329312
0.00329312
0.00331417
0.00333208
0.00332941
0.00331721
0.00333206
0.00331416
0.00331721
0.0033318
0.00331376
0.00331417
0.00332941
0.00333208
0.00331721
0.00333206
0.00331721
0.00331417
0.00333208
0.00333208
0.00331475
0.00331405
0.00331405
0.00326629
0.00328358
0.00328382
0.00326607
0.00328349
0.00326596
0.00326629
0.00328358
0.00328383
0.00326607
0.00328118
0.00328118
0.00328118
0.00324583
0.00324583
0.00324583
0.00324583
0.00326635
0.00328372
0.00328114
0.00326929
0.00328371
0.00326634
0.00326928
0.0032835
0.00326596
0.00326634
0.00328114
0.00328372
0.00326929
0.00328371
0.00326928
0.00326634
0.00328375
0.00328375
0.00326692
0.00326623
0.00326623
0.00321966
0.00323657
0.00323675
0.0032195
0.0032365
0.0032194
0.00321966
0.00323657
0.00323675
0.0032195
0.00323419
0.00323419
0.00323419
0.00319968
0.00319968
0.00319968
0.00319968
0.00321976
0.00323668
0.00323416
0.00322261
0.00323667
0.00321976
0.00322259
0.00323649
0.0032194
0.00321976
0.00323416
0.00323669
0.00322261
0.00323667
0.00322259
0.00321976
0.00323672
0.00323672
0.00322032
0.00321964
0.00321965
0.00317408
0.00319066
0.0031908
0.00317395
0.00319059
0.00317385
0.00317408
0.00319066
0.0031908
0.00317395
0.0031883
0.0031883
0.0031883
0.00315448
0.00315448
0.00315448
0.00315448
0.00317421
0.00319076
0.00318827
0.00317697
0.00319075
0.0031742
0.00317695
0.00319059
0.00317385
0.00317421
0.00318827
0.00319076
0.00317697
0.00319075
0.00317695
0.0031742
0.0031908
0.0031908
0.00317474
0.00317408
0.00317408
0.00312934
0.00314565
0.00314576
0.00312922
0.00314558
0.00312912
0.00312934
0.00314565
0.00314576
0.00312922
0.0031433
0.0031433
0.0031433
0.00311004
0.00311004
0.00311004
0.00311004
0.00312949
0.00314573
0.00314328
0.00313218
0.00314572
0.00312947
0.00313215
0.00314558
0.00312913
0.00312949
0.00314328
0.00314573
0.00313218
0.00314572
0.00313215
0.00312947
0.00314577
0.00314577
0.00313
0.00312934
0.00312934
0.00308527
0.00310135
0.00310145
0.00308515
0.00310129
0.00308506
0.00308527
0.00310136
0.00310145
0.00308516
0.00309903
0.00309903
0.00309903
0.00306622
0.00306622
0.00306622
0.00306622
0.00308544
0.00310143
0.00309901
0.00308806
0.00310142
0.00308541
0.00308804
0.00310129
0.00308507
0.00308544
0.00309901
0.00310143
0.00308806
0.00310142
0.00308804
0.00308541
0.00310147
0.00310147
0.00308593
0.00308527
0.00308527
0.00304177
0.00305765
0.00305775
0.00304165
0.00305759
0.00304157
0.00304177
0.00305765
0.00305775
0.00304165
0.00305535
0.00305535
0.00305535
0.00302292
0.00302292
0.00302292
0.00302292
0.00304196
0.00305771
0.00305534
0.00304452
0.00305773
0.00304191
0.0030445
0.00305759
0.00304156
0.00304196
0.00305534
0.00305771
0.00304452
0.00305773
0.0030445
0.00304191
0.00305775
0.00305775
0.00304241
0.00304176
0.00304176
0.00299876
0.00301446
0.00301456
0.00299864
0.00301441
0.00299856
0.00299876
0.00301447
0.00301456
0.00299864
0.00301218
0.00301218
0.00301218
0.00298011
0.00298011
0.00298011
0.00298011
0.00299897
0.00301452
0.00301217
0.00300147
0.00301455
0.00299889
0.00300146
0.00301441
0.00299856
0.00299897
0.00301217
0.00301452
0.00300147
0.00301455
0.00300146
0.00299889
0.00301455
0.00301455
0.00299938
0.00299873
0.00299873
0.0029562
0.00297174
0.00297184
0.00295607
0.00297169
0.002956
0.0029562
0.00297174
0.00297184
0.00295607
0.00296948
0.00296948
0.00296948
0.00293773
0.00293773
0.00293773
0.00293773
0.00295643
0.00297179
0.00296947
0.00295888
0.00297183
0.00295633
0.00295887
0.00297169
0.002956
0.00295643
0.00296947
0.00297179
0.00295888
0.00297183
0.00295887
0.00295633
0.00297182
0.00297182
0.00295683
0.00295616
0.00295616
0.00291406
0.00292945
0.00292955
0.00291393
0.0029294
0.00291387
0.00291406
0.00292945
0.00292955
0.00291393
0.0029272
0.0029272
0.0029272
0.00289577
0.00289577
0.00289577
0.00289577
0.00291431
0.00292949
0.00292721
0.00291671
0.00292954
0.00291418
0.0029167
0.0029294
0.00291386
0.00291431
0.00292721
0.00292949
0.00291671
0.00292954
0.0029167
0.00291418
0.00292951
0.00292952
0.0029147
0.00291401
0.00291401
0.00287232
0.00288756
0.00288766
0.00287219
0.00288751
0.00287212
0.00287231
0.00288756
0.00288766
0.00287218
0.00288534
0.00288534
0.00288534
0.00285419
0.00285419
0.00285419
0.00285418
0.00287258
0.00288759
0.00288534
0.00287494
0.00288766
0.00287243
0.00287493
0.00288752
0.00287212
0.00287258
0.00288534
0.00288759
0.00287494
0.00288766
0.00287493
0.00287243
0.00288762
0.00288762
0.00287297
0.00287225
0.00287225
0.00283094
0.00284605
0.00284616
0.00283081
0.00284602
0.00283076
0.00283094
0.00284605
0.00284616
0.00283081
0.00284385
0.00284385
0.00284385
0.00281296
0.00281297
0.00281296
0.00281296
0.00283122
0.00284608
0.00284385
0.00283354
0.00284616
0.00283105
0.00283354
0.00284602
0.00283076
0.00283122
0.00284385
0.00284608
0.00283354
0.00284616
0.00283354
0.00283105
0.00284611
0.00284611
0.0028316
0.00283088
0.00283088
0.00278993
0.00280491
0.00280501
0.0027898
0.00280488
0.00278975
0.00278992
0.00280491
0.00280501
0.0027898
0.00280271
0.00280271
0.00280271
0.00277208
0.00277208
0.00277208
0.00277208
0.00279021
0.00280493
0.00280272
0.00279249
0.00280501
0.00279003
0.00279249
0.00280488
0.00278975
0.00279021
0.00280272
0.00280493
0.00279249
0.00280501
0.00279249
0.00279003
0.00280496
0.00280496
0.00279059
0.00278985
0.00278985
0.00274923
0.00276411
0.0027642
0.0027491
0.00276407
0.00274906
0.00274923
0.00276411
0.0027642
0.00274911
0.00276191
0.00276191
0.00276191
0.00273152
0.00273151
0.00273152
0.00273152
0.00274952
0.00276412
0.00276192
0.00275177
0.0027642
0.00274933
0.00275177
0.00276408
0.00274906
0.00274952
0.00276192
0.00276412
0.00275177
0.0027642
0.00275177
0.00274933
0.00276414
0.00276414
0.0027499
0.00274915
0.00274915
0.00270883
0.00272361
0.0027237
0.00270871
0.00272358
0.00270869
0.00270883
0.00272361
0.0027237
0.00270871
0.00272142
0.00272142
0.00272142
0.00269124
0.00269124
0.00269124
0.00269124
0.00270913
0.00272361
0.00272143
0.00271135
0.00272369
0.00270893
0.00271135
0.00272358
0.00270867
0.00270913
0.00272143
0.00272361
0.00271135
0.00272369
0.00271135
0.00270893
0.00272364
0.00272364
0.00270951
0.00270876
0.00270875
0.00266871
0.0026834
0.00268348
0.0026686
0.00268336
0.00266856
0.0026834
0.00268348
0.0026686
0.00268122
0.00268122
0.00268122
0.00266901
0.0026834
0.00268122
0.00267121
0.00268347
0.0026688
0.00267121
0.00268337
0.00266901
0.00268122
0.0026834
0.00268347
0.00267121
0.00268343
0.00268343
0.0026694
0.00266864
0.00266864
0.00362798
0.0036561
0.00365603
0.00361044
0.00365605
0.00361038
0.0036559
0.00362462
0.00360883
0.0036089
0.00365036
0.00365027
0.00363651
0.00362348
0.00365203
0.00361737
0.00363651
0.00362347
0.00365197
0.00361737
0.00364022
0.00360427
0.00365268
0.00360198
0.00364023
0.00360434
0.00365236
0.00360199
0.00363189
0.00362063
0.00360377
0.00360259
0.00364666
0.00361547
0.00360212
0.0036319
0.00362062
0.00360373
0.00360259
0.00364651
0.00361547
0.00360212
0.00362797
0.00365605
0.00365609
0.00361034
0.00365588
0.00362461
0.00360884
0.00360881
0.00365027
0.00365035
0.00361028
0.00365603
0.0036365
0.00362347
0.00365196
0.00361737
0.0036365
0.00362346
0.00361737
0.00365194
0.00364022
0.00360438
0.00365237
0.00360201
0.0036319
0.00362062
0.00360375
0.0036026
0.0036465
0.00361547
0.00360214
0.00364021
0.00360436
0.00365233
0.003602
0.00363189
0.00362062
0.0036026
0.00360375
0.00361547
0.00364648
0.00360214
0.0036095
0.00361947
0.00361408
0.00361408
0.0036095
0.00361947
0.00361408
0.00361408
0.0036095
0.00361948
0.00361408
0.00361408
0.00360818
0.0036171
0.00359966
0.00359966
0.00361242
0.00361242
0.00359803
0.00360818
0.0036171
0.00359966
0.00359966
0.00361242
0.00361243
0.00359803
0.00360818
0.0036171
0.00359966
0.00359966
0.00361242
0.00361242
0.00359803
0.00360818
0.00361711
0.00359966
0.00359966
0.00361243
0.00361243
0.00359803
0.00363656
0.00362349
0.00361738
0.00365206
0.00363193
0.00362062
0.00360379
0.0036026
0.00364665
0.00361548
0.00360212
0.00364028
0.00360431
0.00365266
0.00360196
0.00363193
0.00362064
0.0036026
0.00360379
0.00361548
0.0036467
0.00360212
0.00364028
0.00360431
0.0036527
0.00360196
0.00362796
0.00365601
0.00365601
0.00361038
0.00365586
0.00362461
0.00360889
0.00360888
0.00365023
0.00365025
0.00361035
0.00365587
0.00363654
0.00362349
0.00361738
0.00365205
0.00363192
0.00362062
0.00360261
0.00360378
0.00361547
0.00364649
0.00360214
0.00363193
0.00362063
0.0036026
0.00360379
0.00361548
0.00364669
0.00360213
0.00364027
0.00360437
0.00365235
0.00360198
0.00364027
0.00360432
0.00365272
0.00360198
0.00362463
0.00360885
0.00360876
0.00365042
0.00365042
0.00361039
0.00365611
0.00361057
0.00365612
0.00354659
0.00356574
0.00354693
0.00356565
0.00358047
0.00358043
0.00356815
0.00356842
0.00356846
0.0035424
0.00355895
0.00354242
0.00355896
0.00356057
0.00354393
0.00354391
0.00356158
0.00356162
0.00356844
0.00356844
0.0035868
0.00356676
0.00356712
0.00358387
0.00358703
0.00357127
0.00358918
0.00356807
0.00357191
0.00356712
0.00358385
0.00358703
0.00357127
0.00358918
0.00356807
0.00357191
0.00356207
0.0035431
0.00356007
0.00354413
0.00356206
0.00354309
0.00356007
0.00354413
0.00356071
0.00355827
0.00354367
0.0035459
0.00356137
0.00355845
0.00354293
0.00356071
0.00355827
0.00354366
0.0035459
0.00356138
0.00355845
0.00354293
0.00358048
0.00358047
0.00356816
0.00356843
0.00356843
0.00354668
0.00356575
0.00354239
0.00355894
0.00356056
0.00354393
0.00354393
0.00356159
0.00356158
0.00354241
0.00355898
0.00356712
0.00358385
0.00358703
0.00357128
0.00358918
0.00356808
0.00357192
0.00356845
0.00356845
0.00358679
0.00356678
0.00356712
0.00358704
0.00358387
0.00357128
0.00358918
0.00357192
0.00356808
0.00356206
0.00354309
0.0035601
0.00354413
0.00356071
0.00355827
0.00354366
0.0035459
0.00356138
0.00355845
0.00354293
0.00356206
0.0035431
0.00356008
0.00354413
0.00356071
0.00355827
0.0035459
0.00354366
0.00355845
0.00356138
0.00354293
0.00356843
0.00356855
0.00358677
0.00356677
0.00356711
0.00358703
0.00358389
0.00357127
0.00358917
0.00357191
0.00356807
0.00356844
0.00356859
0.00358677
0.00356676
0.0035607
0.00355826
0.00354367
0.0035459
0.00356137
0.00355845
0.00354293
0.00356205
0.00354311
0.00356006
0.00354413
0.00356071
0.00355827
0.0035459
0.00354367
0.00355845
0.00356137
0.00354293
0.00356206
0.00354311
0.00356005
0.00354413
0.0035805
0.00358051
0.00356813
0.00356843
0.00356843
0.00354666
0.00356572
0.0035424
0.003559
0.00356057
0.00354393
0.00354392
0.0035616
0.0035616
0.00354239
0.00355893
0.00356712
0.00358704
0.0035839
0.00357128
0.00358918
0.00357192
0.00356808
0.00356845
0.00356847
0.00358678
0.00356676
0.00356845
0.00356859
0.00358678
0.00356677
0.00356071
0.00355827
0.0035459
0.00354366
0.00355845
0.00356138
0.00354293
0.00356071
0.00355827
0.0035459
0.00354365
0.00355845
0.00356137
0.00354293
0.00356206
0.00354309
0.00356009
0.00354412
0.00356205
0.00354308
0.00356006
0.00354412
0.00354676
0.00356572
0.00354649
0.00356571
0.00356056
0.00354393
0.00354391
0.00356158
0.00356158
0.0035424
0.00355895
0.00354241
0.00355896
0.00353599
0.0035174
0.00353601
0.00351741
0.00353741
0.00353739
0.0035183
0.00351847
0.00351847
0.00349158
0.00351074
0.00349158
0.00351074
0.00351038
0.00349237
0.00349237
0.00351173
0.00351174
0.00351878
0.00353664
0.00353766
0.00351787
0.00351787
0.00353713
0.00353349
0.00352094
0.00353642
0.00351834
0.00352088
0.00351787
0.00353713
0.00353349
0.00352094
0.00353642
0.00351834
0.00352088
0.00351207
0.00349191
0.00351116
0.00349275
0.00351208
0.00349191
0.00351116
0.00349275
0.00351111
0.00350811
0.00349235
0.00349513
0.00351157
0.00350806
0.00349206
0.00351111
0.00350812
0.00349235
0.00349513
0.00351158
0.00350806
0.00349206
0.00353741
0.00353742
0.0035183
0.00351846
0.00351847
0.00353601
0.00351741
0.00349158
0.00351075
0.00351038
0.00349237
0.00349237
0.00351173
0.00351174
0.00349159
0.00351075
0.00351787
0.00353712
0.00353349
0.00352093
0.00353642
0.00351834
0.00352088
0.00351877
0.00353664
0.00353766
0.00351787
0.00351787
0.00353349
0.00353712
0.00352093
0.00353642
0.00352088
0.00351834
0.00351207
0.0034919
0.00351116
0.00349275
0.00351111
0.00350811
0.00349235
0.00349513
0.00351157
0.00350806
0.00349206
0.00351207
0.0034919
0.00351116
0.00349275
0.00351111
0.00350811
0.00349513
0.00349235
0.00350806
0.00351157
0.00349206
0.00351878
0.00353665
0.00353766
0.00351788
0.00351788
0.00353349
0.00353712
0.00352094
0.00353642
0.00352088
0.00351834
0.00351878
0.00353663
0.00353766
0.00351787
0.00351112
0.00350812
0.00349235
0.00349513
0.00351158
0.00350806
0.00349207
0.00351208
0.00349191
0.00351117
0.00349275
0.00351111
0.00350812
0.00349513
0.00349235
0.00350806
0.00351157
0.00349206
0.00351208
0.00349191
0.00351116
0.00349275
0.00353741
0.0035374
0.0035183
0.00351847
0.00351847
0.00353601
0.00351741
0.00349158
0.00351074
0.00351038
0.00349237
0.00349237
0.00351173
0.00351174
0.00349158
0.00351074
0.00351787
0.00353349
0.00353712
0.00352093
0.00353642
0.00352088
0.00351834
0.00351878
0.00353664
0.00353766
0.00351787
0.00351878
0.00353663
0.00353766
0.00351787
0.00351111
0.00350811
0.00349513
0.00349235
0.00350806
0.00351157
0.00349206
0.00351111
0.00350811
0.00349513
0.00349235
0.00350806
0.00351158
0.00349206
0.00351208
0.0034919
0.00351116
0.00349275
0.00351208
0.0034919
0.00351117
0.00349275
0.00353598
0.0035174
0.00353602
0.0035174
0.00351038
0.00349237
0.00349237
0.00351173
0.00351174
0.00349158
0.00351074
0.00349158
0.00351073
0.00348481
0.0034655
0.00348481
0.0034655
0.00348555
0.00348556
0.00346648
0.00346611
0.00346611
0.00343946
0.00345872
0.00343946
0.00345872
0.00345844
0.00343995
0.00343995
0.0034593
0.0034593
0.00346651
0.00348511
0.00348595
0.00346574
0.00346599
0.00348548
0.00348214
0.00346916
0.00348519
0.00346616
0.00346914
0.00346599
0.00348548
0.00348214
0.00346916
0.00348519
0.00346616
0.00346914
0.0034597
0.00343965
0.00345894
0.00344034
0.0034597
0.00343965
0.00345894
0.00344034
0.0034591
0.00345614
0.00344005
0.00344315
0.00345928
0.00345613
0.00343996
0.0034591
0.00345614
0.00344005
0.00344315
0.00345928
0.00345613
0.00343996
0.00348556
0.00348556
0.00346647
0.00346611
0.00346611
0.00348482
0.0034655
0.00343946
0.00345872
0.00345843
0.00343995
0.00343995
0.0034593
0.0034593
0.00343946
0.00345872
0.00346599
0.00348548
0.00348214
0.00346916
0.00348519
0.00346616
0.00346914
0.00346651
0.0034851
0.00348595
0.00346574
0.00346599
0.00348214
0.00348548
0.00346916
0.00348519
0.00346914
0.00346616
0.0034597
0.00343965
0.00345893
0.00344034
0.0034591
0.00345614
0.00344005
0.00344315
0.00345928
0.00345613
0.00343996
0.0034597
0.00343965
0.00345893
0.00344034
0.0034591
0.00345614
0.00344315
0.00344005
0.00345613
0.00345928
0.00343996
0.00346651
0.00348511
0.00348595
0.00346574
0.00346599
0.00348214
0.00348548
0.00346916
0.00348519
0.00346914
0.00346616
0.00346651
0.00348511
0.00348595
0.00346574
0.0034591
0.00345614
0.00344005
0.00344315
0.00345928
0.00345613
0.00343996
0.0034597
0.00343965
0.00345893
0.00344034
0.0034591
0.00345614
0.00344315
0.00344005
0.00345613
0.00345928
0.00343996
0.0034597
0.00343965
0.00345894
0.00344034
0.00348555
0.00348555
0.00346647
0.00346611
0.00346611
0.00348481
0.0034655
0.00343946
0.00345872
0.00345843
0.00343995
0.00343995
0.0034593
0.0034593
0.00343946
0.00345872
0.00346599
0.00348214
0.00348548
0.00346915
0.00348519
0.00346914
0.00346616
0.00346651
0.00348511
0.00348595
0.00346574
0.00346651
0.00348511
0.00348595
0.00346574
0.0034591
0.00345614
0.00344315
0.00344005
0.00345613
0.00345928
0.00343996
0.0034591
0.00345614
0.00344315
0.00344005
0.00345613
0.00345928
0.00343996
0.0034597
0.00343965
0.00345893
0.00344034
0.0034597
0.00343965
0.00345893
0.00344034
0.00348481
0.0034655
0.00348481
0.0034655
0.00345844
0.00343995
0.00343995
0.0034593
0.0034593
0.00343946
0.00345872
0.00343946
0.00345872
0.00343273
0.00341364
0.00343273
0.00341363
0.00343319
0.00343319
0.00341466
0.00341405
0.00341405
0.00338812
0.00340697
0.00338812
0.00340697
0.00340675
0.00338849
0.00338849
0.00340737
0.00340737
0.0034144
0.00343289
0.00343358
0.00341379
0.00341413
0.0034332
0.00343021
0.00341731
0.0034331
0.00341417
0.00341732
0.00341413
0.0034332
0.00343021
0.00341731
0.0034331
0.00341417
0.00341732
0.0034077
0.00338826
0.00340711
0.00338878
0.0034077
0.00338826
0.00340711
0.00338878
0.00340733
0.0034045
0.00338861
0.00339177
0.00340739
0.00340451
0.00338859
0.00340733
0.0034045
0.00338861
0.00339177
0.00340739
0.00340451
0.00338859
0.00343319
0.00343319
0.00341466
0.00341405
0.00341405
0.00343273
0.00341363
0.00338813
0.00340697
0.00340675
0.00338849
0.00338849
0.00340737
0.00340737
0.00338812
0.00340697
0.00341413
0.0034332
0.00343021
0.00341731
0.0034331
0.00341417
0.00341732
0.0034144
0.00343289
0.00343358
0.00341379
0.00341413
0.00343021
0.0034332
0.00341731
0.0034331
0.00341732
0.00341417
0.0034077
0.00338826
0.00340711
0.00338878
0.00340733
0.0034045
0.00338861
0.00339177
0.00340739
0.00340451
0.00338859
0.0034077
0.00338826
0.00340711
0.00338878
0.00340733
0.0034045
0.00339177
0.00338861
0.00340451
0.00340738
0.00338859
0.0034144
0.00343289
0.00343357
0.00341379
0.00341413
0.00343021
0.0034332
0.00341731
0.0034331
0.00341732
0.00341417
0.0034144
0.00343289
0.00343357
0.00341379
0.00340733
0.0034045
0.00338861
0.00339177
0.00340738
0.00340451
0.00338859
0.0034077
0.00338826
0.00340711
0.00338878
0.00340733
0.0034045
0.00339177
0.00338861
0.00340451
0.00340739
0.00338859
0.0034077
0.00338826
0.00340711
0.00338878
0.00343319
0.00343319
0.00341466
0.00341405
0.00341405
0.00343272
0.00341364
0.00338812
0.00340697
0.00340675
0.00338849
0.00338849
0.00340737
0.00340737
0.00338812
0.00340698
0.00341413
0.00343021
0.0034332
0.00341731
0.0034331
0.00341732
0.00341417
0.0034144
0.00343289
0.00343358
0.00341379
0.0034144
0.00343289
0.00343358
0.00341379
0.00340733
0.0034045
0.00339177
0.00338861
0.00340451
0.00340739
0.00338859
0.00340733
0.0034045
0.00339177
0.00338861
0.00340451
0.00340739
0.00338859
0.0034077
0.00338826
0.00340711
0.00338878
0.0034077
0.00338826
0.00340711
0.00338878
0.00343273
0.00341363
0.00343273
0.00341363
0.00340675
0.00338849
0.00338849
0.00340737
0.00340737
0.00338812
0.00340697
0.00338812
0.00340697
0.00338155
0.00336297
0.00338155
0.00336297
0.00338189
0.00338189
0.00336398
0.0033633
0.0033633
0.00333818
0.00335649
0.00333818
0.00335649
0.00335629
0.00333849
0.00333849
0.0033568
0.0033568
0.00336353
0.00338167
0.00338217
0.00336309
0.00336341
0.00338191
0.00337912
0.00336655
0.00338187
0.00336342
0.00336655
0.00336341
0.00338191
0.00337912
0.00336655
0.00338187
0.00336342
0.00336655
0.00335701
0.0033383
0.00335659
0.00333867
0.00335701
0.0033383
0.00335659
0.00333867
0.00335678
0.00335408
0.0033386
0.0033417
0.0033568
0.00335408
0.00333861
0.00335678
0.00335408
0.00333861
0.0033417
0.0033568
0.00335408
0.00333861
0.0033819
0.00338189
0.00336398
0.00336329
0.0033633
0.00338155
0.00336296
0.00333818
0.00335648
0.00335629
0.00333849
0.00333849
0.00335679
0.0033568
0.00333818
0.00335649
0.00336341
0.00338191
0.00337912
0.00336655
0.00338187
0.00336342
0.00336655
0.00336353
0.00338167
0.00338217
0.00336309
0.00336341
0.00337912
0.00338191
0.00336655
0.00338187
0.00336655
0.00336342
0.00335701
0.0033383
0.00335659
0.00333867
0.00335678
0.00335408
0.0033386
0.0033417
0.0033568
0.00335408
0.00333861
0.00335701
0.0033383
0.00335659
0.00333866
0.00335678
0.00335408
0.0033417
0.0033386
0.00335408
0.0033568
0.00333861
0.00336353
0.00338167
0.00338217
0.00336309
0.00336341
0.00337912
0.00338191
0.00336655
0.00338187
0.00336655
0.00336342
0.00336353
0.00338167
0.00338217
0.00336309
0.00335678
0.00335408
0.0033386
0.0033417
0.0033568
0.00335408
0.00333861
0.00335702
0.0033383
0.00335659
0.00333867
0.00335678
0.00335408
0.0033417
0.0033386
0.00335408
0.0033568
0.00333861
0.00335701
0.0033383
0.00335659
0.00333867
0.00338189
0.00338189
0.00336398
0.0033633
0.0033633
0.00338155
0.00336296
0.00333818
0.00335649
0.00335629
0.00333849
0.00333849
0.0033568
0.0033568
0.00333818
0.00335649
0.00336341
0.00337912
0.00338191
0.00336655
0.00338187
0.00336655
0.00336342
0.00336353
0.00338167
0.00338217
0.00336309
0.00336353
0.00338167
0.00338217
0.00336309
0.00335678
0.00335408
0.0033417
0.0033386
0.00335408
0.0033568
0.00333861
0.00335678
0.00335408
0.0033417
0.0033386
0.00335408
0.0033568
0.00333861
0.00335701
0.0033383
0.00335659
0.00333866
0.00335701
0.0033383
0.00335659
0.00333866
0.00338155
0.00336297
0.00338155
0.00336296
0.00335629
0.00333849
0.00333849
0.0033568
0.0033568
0.00333818
0.00335649
0.00333818
0.00335649
0.0033318
0.00331376
0.0033318
0.00331376
0.00333208
0.00333208
0.00331475
0.00331405
0.00331405
0.0032897
0.00330747
0.0032897
0.00330747
0.00330728
0.00328998
0.00328997
0.00330774
0.00330774
0.00331418
0.0033319
0.00333224
0.00331387
0.00331417
0.00333208
0.00332941
0.00331721
0.00333206
0.00331417
0.00331721
0.00331417
0.00333208
0.00332941
0.00331721
0.00333206
0.00331416
0.00331721
0.00330785
0.00328981
0.00330756
0.00329006
0.00330785
0.0032898
0.00330756
0.00329006
0.00330771
0.0033051
0.00329009
0.00329308
0.00330772
0.0033051
0.00329009
0.00330771
0.0033051
0.00329008
0.00329307
0.00330772
0.0033051
0.00329009
0.00333209
0.00333208