/*--------------------------------*- C++ -*----------------------------------*\
| =========                 |                                                 |
| \\      /  F ield         | OpenFOAM: The Open Source CFD Toolbox           |
|  \\    /   O peration     | Version:  v1906                                 |
|   \\  /    A nd           | Web:      www.OpenFOAM.com                      |
|    \\/     M anipulation  |                                                 |
\*---------------------------------------------------------------------------*/
FoamFile
{
    version     2.0;
    format      ascii;
    class       volScalarField;
    location    "0.23";
    object      p;
}
// * * * * * * * * * * * * * * * * * * * * * * * * * * * * * * * * * * * * * //

dimensions      [0 2 -2 0 0 0 0];


internalField   nonuniform List<scalar> 
247104
(
-1.80539e-10
-1.66369e-10
-8.2603e-11
-1.82468e-10
-3.29723e-10
-1.54304e-10
-9.50886e-11
-2.4899e-10
-1.33821e-10
-9.62683e-11
-5.95197e-11
-2.49881e-10
-3.70721e-10
-2.26286e-10
-5.48139e-11
-1.33106e-10
2.92692e-12
-1.26169e-11
-3.33786e-10
-7.2242e-10
-8.78012e-10
-6.86502e-10
-2.91802e-10
-6.61095e-12
-1.45898e-11
-5.42798e-11
-1.54437e-10
-6.719e-10
-1.17006e-09
-1.35098e-09
-1.12651e-09
-6.09776e-10
-1.24798e-10
-8.59104e-11
-1.47205e-10
-1.67272e-10
-2.30901e-10
-7.79572e-10
-1.30162e-09
-1.48842e-09
-1.25631e-09
-7.13379e-10
-1.99444e-10
-2.1579e-10
4.36694e-11
-4.9412e-11
-5.4757e-10
-1.03427e-09
-1.21223e-09
-9.91449e-10
-4.87147e-10
-2.13513e-11
1.67421e-11
1.25449e-10
1.4733e-10
-1.23551e-10
-4.8474e-10
-6.34131e-10
-4.50761e-10
-8.62999e-11
1.47496e-10
1.06301e-10
-2.42175e-11
7.93359e-11
1.77546e-10
2.10714e-11
-9.55226e-11
4.22511e-11
1.76023e-10
3.41554e-11
1.71198e-10
6.82119e-11
-9.77053e-11
9.86789e-11
1.55642e-10
-3.39044e-08
-3.59604e-08
-3.62017e-08
-3.73703e-08
-3.74391e-08
-3.75213e-08
-3.75113e-08
-3.61624e-08
-3.57969e-08
-3.62026e-08
-3.82589e-08
-4.1127e-08
-4.1203e-08
-4.12037e-08
-4.11275e-08
-3.78601e-08
-3.76533e-08
-3.73559e-08
-4.11205e-08
-4.11879e-08
-4.11394e-08
-4.11397e-08
-4.11891e-08
-4.11214e-08
-3.74406e-08
-3.64632e-08
-3.38719e-08
-3.74177e-08
-4.11907e-08
-4.11325e-08
-4.10293e-08
-4.10297e-08
-4.11338e-08
-4.1192e-08
-3.75255e-08
-3.58818e-08
-3.59122e-08
-3.74915e-08
-4.11846e-08
-4.11262e-08
-4.10228e-08
-4.10233e-08
-4.11274e-08
-4.11858e-08
-3.7356e-08
-3.75133e-08
-3.74742e-08
-4.11035e-08
-4.11698e-08
-4.11206e-08
-4.1121e-08
-4.11708e-08
-4.11049e-08
-3.75408e-08
-3.66043e-08
-3.61181e-08
-3.7824e-08
-4.10982e-08
-4.11738e-08
-4.11749e-08
-4.10994e-08
-3.76818e-08
-3.74228e-08
-3.60223e-08
-3.57486e-08
-3.76117e-08
-3.74034e-08
-3.74956e-08
-3.73343e-08
-3.75277e-08
-3.74188e-08
-3.53049e-08
-3.64138e-08
-3.58471e-08
-3.74878e-08
-3.65846e-08
-3.60092e-08
-5.40024e-08
-5.41998e-08
-5.43495e-08
-5.65227e-08
-5.65933e-08
-5.66081e-08
-5.65425e-08
-5.43164e-08
-5.41157e-08
-5.43464e-08
-5.72359e-08
-6.02189e-08
-6.03664e-08
-6.03658e-08
-6.02169e-08
-5.65706e-08
-5.60697e-08
-5.65217e-08
-6.0219e-08
-6.05985e-08
-6.05922e-08
-6.05916e-08
-6.05966e-08
-6.02091e-08
-5.5761e-08
-5.37842e-08
-5.39921e-08
-5.65853e-08
-6.03594e-08
-6.05892e-08
-6.05687e-08
-6.05687e-08
-6.05891e-08
-6.03587e-08
-5.57218e-08
-5.40864e-08
-5.41869e-08
-5.65963e-08
-6.03566e-08
-6.05861e-08
-6.0566e-08
-6.05665e-08
-6.0587e-08
-6.03571e-08
-5.57875e-08
-5.60138e-08
-5.65298e-08
-6.02054e-08
-6.05875e-08
-6.05842e-08
-6.05856e-08
-6.05916e-08
-6.02051e-08
-5.56941e-08
-5.37269e-08
-5.43016e-08
-5.65568e-08
-6.01997e-08
-6.03531e-08
-6.03571e-08
-6.02115e-08
-5.60698e-08
-5.58683e-08
-5.38197e-08
-5.40971e-08
-5.60544e-08
-5.57476e-08
-5.57133e-08
-5.57821e-08
-5.56911e-08
-5.58678e-08
-5.38658e-08
-5.37704e-08
-5.40739e-08
-5.60065e-08
-5.37178e-08
-5.38193e-08
-7.33477e-08
-7.35217e-08
-7.36389e-08
-7.58945e-08
-7.59548e-08
-7.60568e-08
-7.58625e-08
-7.36348e-08
-7.34115e-08
-7.36409e-08
-7.67279e-08
-7.96475e-08
-7.97016e-08
-7.97028e-08
-7.96508e-08
-7.60175e-08
-7.53047e-08
-7.58905e-08
-7.96438e-08
-7.98062e-08
-7.9809e-08
-7.981e-08
-7.98085e-08
-7.9649e-08
-7.50716e-08
-7.3122e-08
-7.33383e-08
-7.59472e-08
-7.96976e-08
-7.98079e-08
-7.98059e-08
-7.98066e-08
-7.98095e-08
-7.97007e-08
-7.49745e-08
-7.34483e-08
-7.35131e-08
-7.60493e-08
-7.96978e-08
-7.9807e-08
-7.9805e-08
-7.98056e-08
-7.98084e-08
-7.97008e-08
-7.50103e-08
-7.52607e-08
-7.58574e-08
-7.96448e-08
-7.98035e-08
-7.98062e-08
-7.98071e-08
-7.98056e-08
-7.96473e-08
-7.49951e-08
-7.30978e-08
-7.36295e-08
-7.60112e-08
-7.96419e-08
-7.96953e-08
-7.96966e-08
-7.96424e-08
-7.52144e-08
-7.51323e-08
-7.31301e-08
-7.34079e-08
-7.52975e-08
-7.50632e-08
-7.49678e-08
-7.5003e-08
-7.49875e-08
-7.51278e-08
-7.3136e-08
-7.31118e-08
-7.34405e-08
-7.52471e-08
-7.30865e-08
-7.31213e-08
-9.26856e-08
-9.28544e-08
-9.30247e-08
-9.52893e-08
-9.53623e-08
-9.55012e-08
-9.52622e-08
-9.30006e-08
-9.27741e-08
-9.30284e-08
-9.61457e-08
-9.90736e-08
-9.90914e-08
-9.90914e-08
-9.90747e-08
-9.54684e-08
-9.46549e-08
-9.52846e-08
-9.90731e-08
-9.912e-08
-9.91226e-08
-9.9123e-08
-9.91212e-08
-9.90743e-08
-9.44114e-08
-9.24615e-08
-9.26761e-08
-9.53587e-08
-9.90896e-08
-9.91218e-08
-9.91221e-08
-9.91223e-08
-9.91223e-08
-9.9091e-08
-9.42674e-08
-9.27449e-08
-9.28516e-08
-9.54983e-08
-9.90896e-08
-9.91216e-08
-9.91216e-08
-9.91217e-08
-9.91217e-08
-9.90901e-08
-9.42865e-08
-9.45545e-08
-9.52594e-08
-9.90725e-08
-9.91194e-08
-9.91211e-08
-9.9121e-08
-9.91188e-08
-9.9072e-08
-9.43192e-08
-9.24022e-08
-9.29972e-08
-9.54639e-08
-9.90716e-08
-9.90889e-08
-9.90886e-08
-9.90709e-08
-9.44836e-08
-9.44564e-08
-9.24771e-08
-9.27754e-08
-9.46532e-08
-9.44082e-08
-9.42644e-08
-9.42838e-08
-9.43159e-08
-9.44524e-08
-9.25261e-08
-9.2459e-08
-9.27402e-08
-9.4549e-08
-9.23952e-08
-9.24717e-08
-1.12077e-07
-1.12243e-07
-1.12434e-07
-1.147e-07
-1.14774e-07
-1.14918e-07
-1.14676e-07
-1.12404e-07
-1.12186e-07
-1.12441e-07
-1.15558e-07
-1.18492e-07
-1.18496e-07
-1.18496e-07
-1.18491e-07
-1.14901e-07
-1.1406e-07
-1.14699e-07
-1.18491e-07
-1.18504e-07
-1.18503e-07
-1.18503e-07
-1.18502e-07
-1.18489e-07
-1.13808e-07
-1.11859e-07
-1.12069e-07
-1.14773e-07
-1.18497e-07
-1.18504e-07
-1.18503e-07
-1.18503e-07
-1.18503e-07
-1.18495e-07
-1.13649e-07
-1.12119e-07
-1.12241e-07
-1.14918e-07
-1.18496e-07
-1.18504e-07
-1.18503e-07
-1.18503e-07
-1.18503e-07
-1.18495e-07
-1.13659e-07
-1.13932e-07
-1.14676e-07
-1.18492e-07
-1.18503e-07
-1.18503e-07
-1.18503e-07
-1.18503e-07
-1.18491e-07
-1.13713e-07
-1.11779e-07
-1.12403e-07
-1.14904e-07
-1.18491e-07
-1.18496e-07
-1.18496e-07
-1.18491e-07
-1.13857e-07
-1.13846e-07
-1.11877e-07
-1.12185e-07
-1.14061e-07
-1.13809e-07
-1.13651e-07
-1.1366e-07
-1.13712e-07
-1.13853e-07
-1.11897e-07
-1.11858e-07
-1.12117e-07
-1.13931e-07
-1.11779e-07
-1.11877e-07
-1.31483e-07
-1.31648e-07
-1.31842e-07
-1.34108e-07
-1.34184e-07
-1.34328e-07
-1.34087e-07
-1.31813e-07
-1.31584e-07
-1.31845e-07
-1.34965e-07
-1.37897e-07
-1.37898e-07
-1.37898e-07
-1.37897e-07
-1.34319e-07
-1.33499e-07
-1.34108e-07
-1.37897e-07
-1.379e-07
-1.379e-07
-1.37899e-07
-1.379e-07
-1.37897e-07
-1.33219e-07
-1.31268e-07
-1.31477e-07
-1.34183e-07
-1.37898e-07
-1.379e-07
-1.37899e-07
-1.37899e-07
-1.379e-07
-1.37898e-07
-1.33053e-07
-1.31522e-07
-1.31648e-07
-1.34328e-07
-1.37898e-07
-1.379e-07
-1.37899e-07
-1.37899e-07
-1.379e-07
-1.37899e-07
-1.33059e-07
-1.33334e-07
-1.34088e-07
-1.37898e-07
-1.379e-07
-1.379e-07
-1.379e-07
-1.379e-07
-1.37897e-07
-1.33118e-07
-1.31183e-07
-1.31815e-07
-1.34316e-07
-1.37898e-07
-1.37898e-07
-1.37898e-07
-1.37897e-07
-1.33251e-07
-1.33248e-07
-1.31286e-07
-1.31602e-07
-1.33468e-07
-1.33215e-07
-1.33054e-07
-1.33059e-07
-1.33121e-07
-1.33256e-07
-1.31308e-07
-1.31269e-07
-1.3152e-07
-1.33335e-07
-1.31186e-07
-1.31288e-07
-1.5087e-07
-1.51035e-07
-1.5123e-07
-1.53495e-07
-1.53572e-07
-1.53716e-07
-1.53476e-07
-1.51202e-07
-1.50974e-07
-1.51233e-07
-1.54353e-07
-1.57288e-07
-1.5729e-07
-1.57289e-07
-1.57289e-07
-1.5371e-07
-1.52888e-07
-1.53497e-07
-1.57289e-07
-1.5729e-07
-1.5729e-07
-1.5729e-07
-1.57291e-07
-1.57289e-07
-1.5261e-07
-1.50658e-07
-1.50864e-07
-1.53573e-07
-1.5729e-07
-1.5729e-07
-1.5729e-07
-1.5729e-07
-1.5729e-07
-1.5729e-07
-1.52441e-07
-1.50911e-07
-1.51035e-07
-1.53718e-07
-1.5729e-07
-1.5729e-07
-1.57291e-07
-1.5729e-07
-1.5729e-07
-1.5729e-07
-1.52446e-07
-1.52721e-07
-1.53478e-07
-1.57289e-07
-1.57291e-07
-1.57291e-07
-1.5729e-07
-1.5729e-07
-1.57289e-07
-1.52506e-07
-1.50571e-07
-1.51204e-07
-1.53707e-07
-1.57289e-07
-1.5729e-07
-1.5729e-07
-1.57289e-07
-1.52641e-07
-1.52636e-07
-1.50675e-07
-1.50991e-07
-1.52856e-07
-1.52606e-07
-1.52441e-07
-1.52448e-07
-1.52508e-07
-1.52643e-07
-1.50696e-07
-1.50656e-07
-1.50908e-07
-1.52721e-07
-1.50573e-07
-1.50675e-07
-1.70264e-07
-1.7043e-07
-1.70625e-07
-1.72894e-07
-1.72971e-07
-1.73116e-07
-1.72875e-07
-1.70597e-07
-1.70368e-07
-1.70628e-07
-1.73751e-07
-1.76694e-07
-1.76694e-07
-1.76694e-07
-1.76694e-07
-1.73112e-07
-1.72286e-07
-1.72895e-07
-1.76694e-07
-1.76694e-07
-1.76695e-07
-1.76695e-07
-1.76694e-07
-1.76694e-07
-1.72008e-07
-1.70053e-07
-1.70258e-07
-1.72971e-07
-1.76694e-07
-1.76695e-07
-1.76695e-07
-1.76695e-07
-1.76695e-07
-1.76694e-07
-1.7184e-07
-1.70305e-07
-1.70429e-07
-1.73117e-07
-1.76694e-07
-1.76695e-07
-1.76695e-07
-1.76695e-07
-1.76695e-07
-1.76694e-07
-1.71847e-07
-1.72118e-07
-1.72876e-07
-1.76694e-07
-1.76694e-07
-1.76695e-07
-1.76695e-07
-1.76695e-07
-1.76694e-07
-1.71906e-07
-1.69966e-07
-1.70599e-07
-1.73107e-07
-1.76693e-07
-1.76694e-07
-1.76694e-07
-1.76694e-07
-1.72039e-07
-1.72033e-07
-1.70069e-07
-1.70386e-07
-1.72255e-07
-1.72007e-07
-1.71841e-07
-1.71847e-07
-1.71908e-07
-1.72041e-07
-1.70092e-07
-1.70051e-07
-1.70304e-07
-1.72118e-07
-1.69967e-07
-1.7007e-07
-1.89687e-07
-1.89853e-07
-1.90048e-07
-1.92318e-07
-1.92393e-07
-1.92538e-07
-1.92297e-07
-1.9002e-07
-1.89792e-07
-1.90052e-07
-1.93174e-07
-1.96112e-07
-1.96112e-07
-1.96112e-07
-1.96112e-07
-1.92534e-07
-1.91709e-07
-1.92318e-07
-1.96112e-07
-1.96112e-07
-1.96111e-07
-1.96111e-07
-1.96112e-07
-1.96112e-07
-1.9143e-07
-1.89476e-07
-1.89681e-07
-1.92394e-07
-1.96112e-07
-1.96112e-07
-1.96111e-07
-1.96111e-07
-1.96111e-07
-1.96112e-07
-1.91262e-07
-1.89728e-07
-1.89853e-07
-1.92539e-07
-1.96112e-07
-1.96111e-07
-1.96111e-07
-1.96111e-07
-1.96111e-07
-1.96112e-07
-1.91267e-07
-1.91541e-07
-1.92298e-07
-1.96112e-07
-1.96112e-07
-1.96111e-07
-1.96111e-07
-1.96112e-07
-1.96112e-07
-1.91327e-07
-1.89389e-07
-1.90022e-07
-1.92528e-07
-1.96112e-07
-1.96112e-07
-1.96112e-07
-1.96112e-07
-1.91459e-07
-1.91455e-07
-1.89492e-07
-1.89808e-07
-1.91678e-07
-1.91428e-07
-1.91261e-07
-1.91268e-07
-1.91329e-07
-1.91463e-07
-1.89515e-07
-1.89474e-07
-1.89726e-07
-1.91541e-07
-1.8939e-07
-1.89493e-07
-2.09101e-07
-2.09265e-07
-2.09461e-07
-2.11727e-07
-2.11802e-07
-2.11946e-07
-2.11706e-07
-2.0943e-07
-2.09204e-07
-2.09464e-07
-2.12581e-07
-2.15516e-07
-2.15516e-07
-2.15516e-07
-2.15515e-07
-2.1194e-07
-2.11117e-07
-2.11727e-07
-2.15516e-07
-2.15515e-07
-2.15515e-07
-2.15515e-07
-2.15515e-07
-2.15516e-07
-2.10837e-07
-2.08888e-07
-2.09094e-07
-2.11802e-07
-2.15516e-07
-2.15515e-07
-2.15515e-07
-2.15515e-07
-2.15515e-07
-2.15515e-07
-2.10669e-07
-2.09139e-07
-2.09265e-07
-2.11947e-07
-2.15516e-07
-2.15515e-07
-2.15515e-07
-2.15515e-07
-2.15515e-07
-2.15515e-07
-2.10674e-07
-2.1095e-07
-2.11707e-07
-2.15516e-07
-2.15515e-07
-2.15515e-07
-2.15515e-07
-2.15515e-07
-2.15516e-07
-2.10734e-07
-2.088e-07
-2.09433e-07
-2.11935e-07
-2.15516e-07
-2.15515e-07
-2.15515e-07
-2.15516e-07
-2.10866e-07
-2.10863e-07
-2.08904e-07
-2.0922e-07
-2.11086e-07
-2.10835e-07
-2.10669e-07
-2.10675e-07
-2.10736e-07
-2.1087e-07
-2.08925e-07
-2.08886e-07
-2.09137e-07
-2.1095e-07
-2.08801e-07
-2.08905e-07
-2.28488e-07
-2.28653e-07
-2.28859e-07
-2.31115e-07
-2.31191e-07
-2.31336e-07
-2.31095e-07
-2.28818e-07
-2.28592e-07
-2.28855e-07
-2.31971e-07
-2.34908e-07
-2.34908e-07
-2.34907e-07
-2.34907e-07
-2.3133e-07
-2.30506e-07
-2.31116e-07
-2.34907e-07
-2.34907e-07
-2.34908e-07
-2.34908e-07
-2.34907e-07
-2.34907e-07
-2.30227e-07
-2.28276e-07
-2.28482e-07
-2.31191e-07
-2.34907e-07
-2.34907e-07
-2.34908e-07
-2.34908e-07
-2.34908e-07
-2.34907e-07
-2.30059e-07
-2.28528e-07
-2.28653e-07
-2.31337e-07
-2.34907e-07
-2.34908e-07
-2.34908e-07
-2.34908e-07
-2.34908e-07
-2.34907e-07
-2.30065e-07
-2.30339e-07
-2.31096e-07
-2.34907e-07
-2.34908e-07
-2.34908e-07
-2.34908e-07
-2.34907e-07
-2.34907e-07
-2.30124e-07
-2.28188e-07
-2.28822e-07
-2.31326e-07
-2.34907e-07
-2.34907e-07
-2.34907e-07
-2.34907e-07
-2.30256e-07
-2.30252e-07
-2.28292e-07
-2.28609e-07
-2.30476e-07
-2.30225e-07
-2.30059e-07
-2.30065e-07
-2.30126e-07
-2.3026e-07
-2.28314e-07
-2.28274e-07
-2.28526e-07
-2.30338e-07
-2.2819e-07
-2.28293e-07
-2.47884e-07
-2.48049e-07
-2.48252e-07
-2.50511e-07
-2.50587e-07
-2.50732e-07
-2.50491e-07
-2.48214e-07
-2.47989e-07
-2.48245e-07
-2.51368e-07
-2.54303e-07
-2.54303e-07
-2.54303e-07
-2.54303e-07
-2.50724e-07
-2.49902e-07
-2.50513e-07
-2.54303e-07
-2.54303e-07
-2.54303e-07
-2.54303e-07
-2.54303e-07
-2.54303e-07
-2.49623e-07
-2.47672e-07
-2.47878e-07
-2.50588e-07
-2.54303e-07
-2.54303e-07
-2.54303e-07
-2.54303e-07
-2.54303e-07
-2.54303e-07
-2.49455e-07
-2.47924e-07
-2.48048e-07
-2.50733e-07
-2.54303e-07
-2.54303e-07
-2.54303e-07
-2.54303e-07
-2.54303e-07
-2.54303e-07
-2.49461e-07
-2.49735e-07
-2.50492e-07
-2.54303e-07
-2.54303e-07
-2.54303e-07
-2.54303e-07
-2.54303e-07
-2.54303e-07
-2.4952e-07
-2.47584e-07
-2.48217e-07
-2.50722e-07
-2.54303e-07
-2.54303e-07
-2.54303e-07
-2.54303e-07
-2.49652e-07
-2.49649e-07
-2.47688e-07
-2.48005e-07
-2.49872e-07
-2.49621e-07
-2.49455e-07
-2.49461e-07
-2.49522e-07
-2.49656e-07
-2.4771e-07
-2.4767e-07
-2.47922e-07
-2.49735e-07
-2.47585e-07
-2.47689e-07
-2.67277e-07
-2.67442e-07
-2.67644e-07
-2.69902e-07
-2.69978e-07
-2.70123e-07
-2.69882e-07
-2.67608e-07
-2.67381e-07
-2.67638e-07
-2.70759e-07
-2.73694e-07
-2.73694e-07
-2.73694e-07
-2.73694e-07
-2.70116e-07
-2.69294e-07
-2.69904e-07
-2.73694e-07
-2.73694e-07
-2.73694e-07
-2.73694e-07
-2.73694e-07
-2.73694e-07
-2.69015e-07
-2.67065e-07
-2.67271e-07
-2.69979e-07
-2.73694e-07
-2.73694e-07
-2.73694e-07
-2.73694e-07
-2.73694e-07
-2.73694e-07
-2.68846e-07
-2.67316e-07
-2.67441e-07
-2.70124e-07
-2.73694e-07
-2.73694e-07
-2.73694e-07
-2.73694e-07
-2.73694e-07
-2.73694e-07
-2.68852e-07
-2.69127e-07
-2.69883e-07
-2.73694e-07
-2.73694e-07
-2.73694e-07
-2.73694e-07
-2.73694e-07
-2.73694e-07
-2.68911e-07
-2.66977e-07
-2.6761e-07
-2.70114e-07
-2.73694e-07
-2.73694e-07
-2.73694e-07
-2.73694e-07
-2.69043e-07
-2.6904e-07
-2.67081e-07
-2.67397e-07
-2.69263e-07
-2.69013e-07
-2.68846e-07
-2.68853e-07
-2.68913e-07
-2.69048e-07
-2.67102e-07
-2.67062e-07
-2.67314e-07
-2.69126e-07
-2.66978e-07
-2.67082e-07
-2.86664e-07
-2.86829e-07
-2.87035e-07
-2.89293e-07
-2.8937e-07
-2.89514e-07
-2.89272e-07
-2.86996e-07
-2.86769e-07
-2.87032e-07
-2.90149e-07
-2.93091e-07
-2.93091e-07
-2.93091e-07
-2.93091e-07
-2.89509e-07
-2.88684e-07
-2.89294e-07
-2.93091e-07
-2.93092e-07
-2.93092e-07
-2.93092e-07
-2.93092e-07
-2.93091e-07
-2.88407e-07
-2.86452e-07
-2.86658e-07
-2.8937e-07
-2.93091e-07
-2.93092e-07
-2.93093e-07
-2.93093e-07
-2.93092e-07
-2.93091e-07
-2.88239e-07
-2.86704e-07
-2.86828e-07
-2.89515e-07
-2.93091e-07
-2.93092e-07
-2.93093e-07
-2.93093e-07
-2.93092e-07
-2.93091e-07
-2.88245e-07
-2.88517e-07
-2.89274e-07
-2.93091e-07
-2.93092e-07
-2.93092e-07
-2.93092e-07
-2.93092e-07
-2.93091e-07
-2.88303e-07
-2.86365e-07
-2.86998e-07
-2.89506e-07
-2.93091e-07
-2.93092e-07
-2.93092e-07
-2.93091e-07
-2.88437e-07
-2.88431e-07
-2.86468e-07
-2.86785e-07
-2.88654e-07
-2.88404e-07
-2.88239e-07
-2.88245e-07
-2.88305e-07
-2.88438e-07
-2.86491e-07
-2.8645e-07
-2.86703e-07
-2.88516e-07
-2.86366e-07
-2.86469e-07
-3.06082e-07
-3.06247e-07
-3.06451e-07
-3.08712e-07
-3.08788e-07
-3.08933e-07
-3.08691e-07
-3.06414e-07
-3.06187e-07
-3.06448e-07
-3.09568e-07
-3.12509e-07
-3.12509e-07
-3.12509e-07
-3.12509e-07
-3.08927e-07
-3.08104e-07
-3.08713e-07
-3.12509e-07
-3.12509e-07
-3.12508e-07
-3.12508e-07
-3.12509e-07
-3.12509e-07
-3.07825e-07
-3.0587e-07
-3.06075e-07
-3.08789e-07
-3.12509e-07
-3.12509e-07
-3.12508e-07
-3.12508e-07
-3.12508e-07
-3.12509e-07
-3.07657e-07
-3.06122e-07
-3.06246e-07
-3.08934e-07
-3.12509e-07
-3.12508e-07
-3.12508e-07
-3.12508e-07
-3.12508e-07
-3.12509e-07
-3.07663e-07
-3.07936e-07
-3.08693e-07
-3.12509e-07
-3.12509e-07
-3.12508e-07
-3.12508e-07
-3.12509e-07
-3.12509e-07
-3.07722e-07
-3.05783e-07
-3.06416e-07
-3.08925e-07
-3.12509e-07
-3.12509e-07
-3.12509e-07
-3.12509e-07
-3.07855e-07
-3.0785e-07
-3.05886e-07
-3.06203e-07
-3.08073e-07
-3.07823e-07
-3.07657e-07
-3.07665e-07
-3.07724e-07
-3.07858e-07
-3.05909e-07
-3.05868e-07
-3.0612e-07
-3.07937e-07
-3.05784e-07
-3.05887e-07
-3.25501e-07
-3.25666e-07
-3.2587e-07
-3.28127e-07
-3.28203e-07
-3.28348e-07
-3.28106e-07
-3.25832e-07
-3.25606e-07
-3.25867e-07
-3.28983e-07
-3.31917e-07
-3.31917e-07
-3.31917e-07
-3.31917e-07
-3.2834e-07
-3.27519e-07
-3.28129e-07
-3.31917e-07
-3.31917e-07
-3.31916e-07
-3.31916e-07
-3.31917e-07
-3.31917e-07
-3.27239e-07
-3.25289e-07
-3.25495e-07
-3.28204e-07
-3.31917e-07
-3.31916e-07
-3.31916e-07
-3.31916e-07
-3.31916e-07
-3.31917e-07
-3.2707e-07
-3.2554e-07
-3.25666e-07
-3.28349e-07
-3.31917e-07
-3.31916e-07
-3.31916e-07
-3.31916e-07
-3.31916e-07
-3.31917e-07
-3.27076e-07
-3.27352e-07
-3.28108e-07
-3.31917e-07
-3.31917e-07
-3.31916e-07
-3.31916e-07
-3.31917e-07
-3.31917e-07
-3.27135e-07
-3.25201e-07
-3.25834e-07
-3.28338e-07
-3.31917e-07
-3.31917e-07
-3.31917e-07
-3.31917e-07
-3.27268e-07
-3.27265e-07
-3.25306e-07
-3.25621e-07
-3.27488e-07
-3.27237e-07
-3.2707e-07
-3.27076e-07
-3.27137e-07
-3.27272e-07
-3.25326e-07
-3.25287e-07
-3.25539e-07
-3.27351e-07
-3.25202e-07
-3.25307e-07
-3.4489e-07
-3.45055e-07
-3.4526e-07
-3.47516e-07
-3.47592e-07
-3.47737e-07
-3.47495e-07
-3.45222e-07
-3.44995e-07
-3.45256e-07
-3.48372e-07
-3.51309e-07
-3.51309e-07
-3.51309e-07
-3.51309e-07
-3.4773e-07
-3.46908e-07
-3.47518e-07
-3.51309e-07
-3.51309e-07
-3.51309e-07
-3.51309e-07
-3.51309e-07
-3.51309e-07
-3.46629e-07
-3.44678e-07
-3.44884e-07
-3.47593e-07
-3.51309e-07
-3.51309e-07
-3.51309e-07
-3.51309e-07
-3.51309e-07
-3.51309e-07
-3.46461e-07
-3.4493e-07
-3.45055e-07
-3.47739e-07
-3.51309e-07
-3.51309e-07
-3.51309e-07
-3.51309e-07
-3.51309e-07
-3.51309e-07
-3.46466e-07
-3.46741e-07
-3.47498e-07
-3.51309e-07
-3.51309e-07
-3.51309e-07
-3.51309e-07
-3.51309e-07
-3.51309e-07
-3.46525e-07
-3.4459e-07
-3.45224e-07
-3.47728e-07
-3.51309e-07
-3.51309e-07
-3.51309e-07
-3.51309e-07
-3.46658e-07
-3.46654e-07
-3.44694e-07
-3.45011e-07
-3.46877e-07
-3.46627e-07
-3.46461e-07
-3.46467e-07
-3.46527e-07
-3.46662e-07
-3.44715e-07
-3.44676e-07
-3.44928e-07
-3.4674e-07
-3.44591e-07
-3.44695e-07
-3.64286e-07
-3.64451e-07
-3.64656e-07
-3.66913e-07
-3.66989e-07
-3.67134e-07
-3.66892e-07
-3.64618e-07
-3.64391e-07
-3.64652e-07
-3.67769e-07
-3.70706e-07
-3.70706e-07
-3.70706e-07
-3.70706e-07
-3.67127e-07
-3.66305e-07
-3.66915e-07
-3.70706e-07
-3.70706e-07
-3.70706e-07
-3.70706e-07
-3.70706e-07
-3.70706e-07
-3.66026e-07
-3.64074e-07
-3.6428e-07
-3.6699e-07
-3.70706e-07
-3.70706e-07
-3.70705e-07
-3.70705e-07
-3.70706e-07
-3.70706e-07
-3.65858e-07
-3.64326e-07
-3.64451e-07
-3.67135e-07
-3.70706e-07
-3.70706e-07
-3.70705e-07
-3.70705e-07
-3.70706e-07
-3.70706e-07
-3.65863e-07
-3.66138e-07
-3.66895e-07
-3.70706e-07
-3.70706e-07
-3.70706e-07
-3.70706e-07
-3.70706e-07
-3.70706e-07
-3.65923e-07
-3.63987e-07
-3.6462e-07
-3.67125e-07
-3.70706e-07
-3.70706e-07
-3.70706e-07
-3.70706e-07
-3.66056e-07
-3.66052e-07
-3.64091e-07
-3.64407e-07
-3.66275e-07
-3.66024e-07
-3.65858e-07
-3.65865e-07
-3.65924e-07
-3.66059e-07
-3.64112e-07
-3.64072e-07
-3.64324e-07
-3.66137e-07
-3.63988e-07
-3.64091e-07
-3.83681e-07
-3.83846e-07
-3.84051e-07
-3.86306e-07
-3.86382e-07
-3.86527e-07
-3.86285e-07
-3.84012e-07
-3.83786e-07
-3.84047e-07
-3.87162e-07
-3.90096e-07
-3.90096e-07
-3.90096e-07
-3.90096e-07
-3.86519e-07
-3.85697e-07
-3.86308e-07
-3.90096e-07
-3.90096e-07
-3.90096e-07
-3.90096e-07
-3.90096e-07
-3.90096e-07
-3.85418e-07
-3.83469e-07
-3.83675e-07
-3.86383e-07
-3.90096e-07
-3.90096e-07
-3.90096e-07
-3.90096e-07
-3.90096e-07
-3.90096e-07
-3.8525e-07
-3.8372e-07
-3.83846e-07
-3.86528e-07
-3.90096e-07
-3.90096e-07
-3.90096e-07
-3.90096e-07
-3.90096e-07
-3.90096e-07
-3.85255e-07
-3.85531e-07
-3.86287e-07
-3.90096e-07
-3.90096e-07
-3.90096e-07
-3.90096e-07
-3.90096e-07
-3.90096e-07
-3.85315e-07
-3.83381e-07
-3.84014e-07
-3.86517e-07
-3.90096e-07
-3.90096e-07
-3.90096e-07
-3.90096e-07
-3.85447e-07
-3.85444e-07
-3.83486e-07
-3.83802e-07
-3.85667e-07
-3.85416e-07
-3.8525e-07
-3.85256e-07
-3.85316e-07
-3.85451e-07
-3.83506e-07
-3.83467e-07
-3.83719e-07
-3.85531e-07
-3.83383e-07
-3.83487e-07
-4.03061e-07
-4.03226e-07
-4.03431e-07
-4.05689e-07
-4.05765e-07
-4.0591e-07
-4.05668e-07
-4.03393e-07
-4.03166e-07
-4.03428e-07
-4.06546e-07
-4.09486e-07
-4.09487e-07
-4.09487e-07
-4.09487e-07
-4.05905e-07
-4.05081e-07
-4.0569e-07
-4.09486e-07
-4.09488e-07
-4.09488e-07
-4.09488e-07
-4.09488e-07
-4.09487e-07
-4.04803e-07
-4.0285e-07
-4.03055e-07
-4.05766e-07
-4.09487e-07
-4.09488e-07
-4.09489e-07
-4.09489e-07
-4.09488e-07
-4.09487e-07
-4.04635e-07
-4.03102e-07
-4.03226e-07
-4.05912e-07
-4.09487e-07
-4.09488e-07
-4.09489e-07
-4.09489e-07
-4.09488e-07
-4.09487e-07
-4.04641e-07
-4.04913e-07
-4.05671e-07
-4.09487e-07
-4.09488e-07
-4.09488e-07
-4.09488e-07
-4.09488e-07
-4.09487e-07
-4.047e-07
-4.02762e-07
-4.03395e-07
-4.05903e-07
-4.09487e-07
-4.09487e-07
-4.09487e-07
-4.09487e-07
-4.04834e-07
-4.04828e-07
-4.02866e-07
-4.03182e-07
-4.0505e-07
-4.04801e-07
-4.04635e-07
-4.04642e-07
-4.04701e-07
-4.04835e-07
-4.02888e-07
-4.02847e-07
-4.031e-07
-4.04913e-07
-4.02764e-07
-4.02866e-07
-4.22471e-07
-4.22637e-07
-4.22842e-07
-4.25104e-07
-4.2518e-07
-4.25325e-07
-4.25083e-07
-4.22804e-07
-4.22577e-07
-4.22838e-07
-4.25961e-07
-4.28904e-07
-4.28904e-07
-4.28904e-07
-4.28904e-07
-4.2532e-07
-4.24495e-07
-4.25105e-07
-4.28904e-07
-4.28904e-07
-4.28904e-07
-4.28904e-07
-4.28904e-07
-4.28904e-07
-4.24218e-07
-4.22261e-07
-4.22466e-07
-4.25181e-07
-4.28904e-07
-4.28904e-07
-4.28904e-07
-4.28904e-07
-4.28904e-07
-4.28904e-07
-4.2405e-07
-4.22514e-07
-4.22637e-07
-4.25326e-07
-4.28904e-07
-4.28904e-07
-4.28904e-07
-4.28904e-07
-4.28904e-07
-4.28904e-07
-4.24056e-07
-4.24328e-07
-4.25085e-07
-4.28904e-07
-4.28904e-07
-4.28904e-07
-4.28904e-07
-4.28904e-07
-4.28904e-07
-4.24115e-07
-4.22174e-07
-4.22807e-07
-4.25318e-07
-4.28904e-07
-4.28904e-07
-4.28904e-07
-4.28904e-07
-4.24249e-07
-4.24243e-07
-4.22277e-07
-4.22594e-07
-4.24465e-07
-4.24216e-07
-4.2405e-07
-4.24056e-07
-4.24116e-07
-4.2425e-07
-4.223e-07
-4.22259e-07
-4.22512e-07
-4.24327e-07
-4.22176e-07
-4.22277e-07
-4.41902e-07
-4.42067e-07
-4.42272e-07
-4.44531e-07
-4.44606e-07
-4.44751e-07
-4.44509e-07
-4.42233e-07
-4.42007e-07
-4.42268e-07
-4.45386e-07
-4.48324e-07
-4.48323e-07
-4.48323e-07
-4.48323e-07
-4.44744e-07
-4.43922e-07
-4.44532e-07
-4.48324e-07
-4.48323e-07
-4.48322e-07
-4.48322e-07
-4.48323e-07
-4.48323e-07
-4.43643e-07
-4.41691e-07
-4.41896e-07
-4.44607e-07
-4.48323e-07
-4.48322e-07
-4.48322e-07
-4.48322e-07
-4.48322e-07
-4.48323e-07
-4.43474e-07
-4.41943e-07
-4.42067e-07
-4.44752e-07
-4.48323e-07
-4.48322e-07
-4.48322e-07
-4.48322e-07
-4.48322e-07
-4.48323e-07
-4.4348e-07
-4.43755e-07
-4.44512e-07
-4.48324e-07
-4.48323e-07
-4.48322e-07
-4.48322e-07
-4.48323e-07
-4.48324e-07
-4.43539e-07
-4.41603e-07
-4.42236e-07
-4.44742e-07
-4.48323e-07
-4.48323e-07
-4.48323e-07
-4.48324e-07
-4.43672e-07
-4.43669e-07
-4.41707e-07
-4.42023e-07
-4.43891e-07
-4.43641e-07
-4.43474e-07
-4.4348e-07
-4.43541e-07
-4.43676e-07
-4.41729e-07
-4.41689e-07
-4.41941e-07
-4.43755e-07
-4.41605e-07
-4.41708e-07
-4.61308e-07
-4.61472e-07
-4.61677e-07
-4.63933e-07
-4.64009e-07
-4.64153e-07
-4.63912e-07
-4.61637e-07
-4.61412e-07
-4.61673e-07
-4.64789e-07
-4.67723e-07
-4.67723e-07
-4.67723e-07
-4.67723e-07
-4.64146e-07
-4.63324e-07
-4.63934e-07
-4.67723e-07
-4.67722e-07
-4.67722e-07
-4.67722e-07
-4.67722e-07
-4.67723e-07
-4.63045e-07
-4.61095e-07
-4.61301e-07
-4.64009e-07
-4.67723e-07
-4.67722e-07
-4.67722e-07
-4.67722e-07
-4.67722e-07
-4.67723e-07
-4.62876e-07
-4.61347e-07
-4.61472e-07
-4.64155e-07
-4.67723e-07
-4.67722e-07
-4.67722e-07
-4.67722e-07
-4.67722e-07
-4.67723e-07
-4.62882e-07
-4.63158e-07
-4.63914e-07
-4.67723e-07
-4.67722e-07
-4.67722e-07
-4.67722e-07
-4.67722e-07
-4.67723e-07
-4.62941e-07
-4.61007e-07
-4.61641e-07
-4.64144e-07
-4.67723e-07
-4.67723e-07
-4.67723e-07
-4.67723e-07
-4.63073e-07
-4.63071e-07
-4.61112e-07
-4.61428e-07
-4.63294e-07
-4.63043e-07
-4.62876e-07
-4.62882e-07
-4.62942e-07
-4.63078e-07
-4.61132e-07
-4.61093e-07
-4.61345e-07
-4.63157e-07
-4.61009e-07
-4.61112e-07
-4.80695e-07
-4.80859e-07
-4.81064e-07
-4.8332e-07
-4.83396e-07
-4.83541e-07
-4.83299e-07
-4.81023e-07
-4.80798e-07
-4.8106e-07
-4.84176e-07
-4.87111e-07
-4.87111e-07
-4.87111e-07
-4.87111e-07
-4.83534e-07
-4.82712e-07
-4.83321e-07
-4.87111e-07
-4.87112e-07
-4.87112e-07
-4.87112e-07
-4.87111e-07
-4.87111e-07
-4.82432e-07
-4.80482e-07
-4.80688e-07
-4.83397e-07
-4.87111e-07
-4.87112e-07
-4.87112e-07
-4.87112e-07
-4.87111e-07
-4.87111e-07
-4.82264e-07
-4.80734e-07
-4.80859e-07
-4.83542e-07
-4.87111e-07
-4.87112e-07
-4.87112e-07
-4.87112e-07
-4.87111e-07
-4.87111e-07
-4.8227e-07
-4.82545e-07
-4.83301e-07
-4.87111e-07
-4.87112e-07
-4.87112e-07
-4.87112e-07
-4.87111e-07
-4.87111e-07
-4.82329e-07
-4.80394e-07
-4.81028e-07
-4.83532e-07
-4.87111e-07
-4.87111e-07
-4.87111e-07
-4.87111e-07
-4.82461e-07
-4.82458e-07
-4.80499e-07
-4.80815e-07
-4.82681e-07
-4.8243e-07
-4.82264e-07
-4.8227e-07
-4.8233e-07
-4.82465e-07
-4.80519e-07
-4.8048e-07
-4.80732e-07
-4.82544e-07
-4.80396e-07
-4.80499e-07
-5.00082e-07
-5.00247e-07
-5.00451e-07
-5.02708e-07
-5.02785e-07
-5.02929e-07
-5.02688e-07
-5.00411e-07
-5.00186e-07
-5.00447e-07
-5.03565e-07
-5.06502e-07
-5.06502e-07
-5.06502e-07
-5.06502e-07
-5.02923e-07
-5.021e-07
-5.02709e-07
-5.06502e-07
-5.06502e-07
-5.06502e-07
-5.06502e-07
-5.06502e-07
-5.06502e-07
-5.01821e-07
-4.9987e-07
-5.00076e-07
-5.02785e-07
-5.06502e-07
-5.06502e-07
-5.06502e-07
-5.06502e-07
-5.06502e-07
-5.06502e-07
-5.01653e-07
-5.00122e-07
-5.00246e-07
-5.02931e-07
-5.06502e-07
-5.06502e-07
-5.06502e-07
-5.06502e-07
-5.06502e-07
-5.06502e-07
-5.01659e-07
-5.01933e-07
-5.0269e-07
-5.06502e-07
-5.06502e-07
-5.06502e-07
-5.06502e-07
-5.06502e-07
-5.06502e-07
-5.01718e-07
-4.99782e-07
-5.00415e-07
-5.02921e-07
-5.06502e-07
-5.06502e-07
-5.06502e-07
-5.06502e-07
-5.01851e-07
-5.01847e-07
-4.99886e-07
-5.00203e-07
-5.02069e-07
-5.01819e-07
-5.01653e-07
-5.01659e-07
-5.01719e-07
-5.01854e-07
-4.99907e-07
-4.99868e-07
-5.0012e-07
-5.01932e-07
-4.99784e-07
-4.99887e-07
-5.19477e-07
-5.19642e-07
-5.19846e-07
-5.22104e-07
-5.22182e-07
-5.22326e-07
-5.22084e-07
-5.19807e-07
-5.19582e-07
-5.19843e-07
-5.22961e-07
-5.25899e-07
-5.25899e-07
-5.25899e-07
-5.25899e-07
-5.2232e-07
-5.21497e-07
-5.22106e-07
-5.25899e-07
-5.25899e-07
-5.259e-07
-5.259e-07
-5.259e-07
-5.25899e-07
-5.21218e-07
-5.19266e-07
-5.19471e-07
-5.22181e-07
-5.25899e-07
-5.259e-07
-5.259e-07
-5.259e-07
-5.259e-07
-5.259e-07
-5.2105e-07
-5.19517e-07
-5.19641e-07
-5.22327e-07
-5.25899e-07
-5.259e-07
-5.259e-07
-5.259e-07
-5.259e-07
-5.259e-07
-5.21055e-07
-5.21329e-07
-5.22086e-07
-5.25899e-07
-5.259e-07
-5.259e-07
-5.259e-07
-5.259e-07
-5.25899e-07
-5.21114e-07
-5.19178e-07
-5.19811e-07
-5.22317e-07
-5.25899e-07
-5.25899e-07
-5.259e-07
-5.25899e-07
-5.21248e-07
-5.21243e-07
-5.19282e-07
-5.19598e-07
-5.21465e-07
-5.21215e-07
-5.2105e-07
-5.21056e-07
-5.21116e-07
-5.2125e-07
-5.19303e-07
-5.19263e-07
-5.19515e-07
-5.21328e-07
-5.19179e-07
-5.19282e-07
-5.38878e-07
-5.39043e-07
-5.39247e-07
-5.41506e-07
-5.41584e-07
-5.41728e-07
-5.41486e-07
-5.39208e-07
-5.38983e-07
-5.39244e-07
-5.42364e-07
-5.45304e-07
-5.45304e-07
-5.45304e-07
-5.45304e-07
-5.41723e-07
-5.40899e-07
-5.41508e-07
-5.45304e-07
-5.45304e-07
-5.45304e-07
-5.45304e-07
-5.45304e-07
-5.45304e-07
-5.4062e-07
-5.38667e-07
-5.38872e-07
-5.41583e-07
-5.45304e-07
-5.45305e-07
-5.45305e-07
-5.45305e-07
-5.45305e-07
-5.45304e-07
-5.40453e-07
-5.38919e-07
-5.39043e-07
-5.41729e-07
-5.45304e-07
-5.45305e-07
-5.45305e-07
-5.45305e-07
-5.45305e-07
-5.45304e-07
-5.40458e-07
-5.40731e-07
-5.41488e-07
-5.45304e-07
-5.45304e-07
-5.45305e-07
-5.45305e-07
-5.45304e-07
-5.45304e-07
-5.40517e-07
-5.38579e-07
-5.39212e-07
-5.4172e-07
-5.45304e-07
-5.45304e-07
-5.45304e-07
-5.45304e-07
-5.40651e-07
-5.40646e-07
-5.38683e-07
-5.38999e-07
-5.40868e-07
-5.40619e-07
-5.40453e-07
-5.40459e-07
-5.40519e-07
-5.40653e-07
-5.38705e-07
-5.38665e-07
-5.38917e-07
-5.40731e-07
-5.38581e-07
-5.38684e-07
-5.58291e-07
-5.58457e-07
-5.58661e-07
-5.60921e-07
-5.60998e-07
-5.61142e-07
-5.609e-07
-5.58622e-07
-5.58396e-07
-5.58658e-07
-5.61778e-07
-5.64718e-07
-5.64718e-07
-5.64718e-07
-5.64718e-07
-5.61137e-07
-5.60313e-07
-5.60923e-07
-5.64718e-07
-5.64718e-07
-5.64718e-07
-5.64717e-07
-5.64718e-07
-5.64718e-07
-5.60034e-07
-5.5808e-07
-5.58286e-07
-5.60998e-07
-5.64718e-07
-5.64718e-07
-5.64718e-07
-5.64718e-07
-5.64718e-07
-5.64718e-07
-5.59866e-07
-5.58332e-07
-5.58456e-07
-5.61144e-07
-5.64718e-07
-5.64718e-07
-5.64718e-07
-5.64717e-07
-5.64717e-07
-5.64718e-07
-5.59872e-07
-5.60145e-07
-5.60903e-07
-5.64718e-07
-5.64718e-07
-5.64718e-07
-5.64718e-07
-5.64718e-07
-5.64718e-07
-5.59931e-07
-5.57992e-07
-5.58626e-07
-5.61134e-07
-5.64718e-07
-5.64718e-07
-5.64718e-07
-5.64718e-07
-5.60064e-07
-5.60059e-07
-5.58096e-07
-5.58413e-07
-5.60282e-07
-5.60032e-07
-5.59866e-07
-5.59872e-07
-5.59932e-07
-5.60066e-07
-5.58118e-07
-5.58078e-07
-5.5833e-07
-5.60144e-07
-5.57994e-07
-5.58096e-07
-5.77711e-07
-5.77876e-07
-5.78079e-07
-5.80338e-07
-5.80414e-07
-5.80558e-07
-5.80317e-07
-5.7804e-07
-5.77815e-07
-5.78076e-07
-5.81193e-07
-5.84129e-07
-5.84129e-07
-5.84129e-07
-5.84129e-07
-5.80551e-07
-5.79729e-07
-5.80339e-07
-5.84129e-07
-5.84128e-07
-5.84128e-07
-5.84128e-07
-5.84128e-07
-5.84129e-07
-5.7945e-07
-5.77498e-07
-5.77704e-07
-5.80414e-07