/*--------------------------------*- C++ -*----------------------------------*\
| =========                 |                                                 |
| \\      /  F ield         | OpenFOAM: The Open Source CFD Toolbox           |
|  \\    /   O peration     | Version:  v1906                                 |
|   \\  /    A nd           | Web:      www.OpenFOAM.com                      |
|    \\/     M anipulation  |                                                 |
\*---------------------------------------------------------------------------*/
FoamFile
{
    version     2.0;
    format      ascii;
    class       volScalarField;
    location    "50";
    object      p;
}
// * * * * * * * * * * * * * * * * * * * * * * * * * * * * * * * * * * * * * //

dimensions      [0 2 -2 0 0 0 0];


internalField   nonuniform List<scalar> 
43024
(
0.000761364
0.000761336
0.00076134
0.000763131
0.000723153
0.000723123
0.000723123
0.00072492
0.000684943
0.000684922
0.000684921
0.000686719
0.000646741
0.000646716
0.000646713
0.00064851
0.000608533
0.000608508
0.000608506
0.000610308
0.000570322
0.000570294
0.00057029
0.000572086
0.00053212
0.000532091
0.000532088
0.000533883
0.000493915
0.000493888
0.000493892
0.000495686
0.000455707
0.000455679
0.000455681
0.000457479
0.000417493
0.000417469
0.000417468
0.000419262
0.00037928
0.000379254
0.000379251
0.000381052
0.000341065
0.000341041
0.000341041
0.00034283
0.00030285
0.000302822
0.000302819
0.000304616
0.000264631
0.000264605
0.000264608
0.000266397
0.000226415
0.00022639
0.000226395
0.000228179
0.000188197
0.000188175
0.000188175
0.000189965
0.000149968
0.000149955
0.000149958
0.000151741
0.000111735
0.000111725
0.000111725
0.000113497
7.34833e-05
7.34718e-05
7.34666e-05
7.51952e-05
3.58377e-05
3.53629e-05
3.53596e-05
3.67856e-05
7.21567e-06
6.98892e-06
6.98094e-06
6.24637e-06
0.000769094
0.000770888
0.000770888
0.000769092
0.000770891
0.000770887
0.000770888
0.00077089
0.000769091
0.000770888
0.000770889
0.000769091
0.000763141
0.000730882
0.000761339
0.000761339
0.000732679
0.000732678
0.00076314
0.000730877
0.000761338
0.000761339
0.000732678
0.000732671
0.000761337
0.000732674
0.000732673
0.000763139
0.000730874
0.000761336
0.000732675
0.000732674
0.000730877
0.000724927
0.000692669
0.000723126
0.000723125
0.000694464
0.00069447
0.000724922
0.000692676
0.000723127
0.00072312
0.000694465
0.000694467
0.000723125
0.000694472
0.000694475
0.00072492
0.000692672
0.000723125
0.00069447
0.000694473
0.000692677
0.000686715
0.000654467
0.000684916
0.000684922
0.000656263
0.000656264
0.000686723
0.000654469
0.000684918
0.000684922
0.000656264
0.000656268
0.000684927
0.000656265
0.000656265
0.000686721
0.00065447
0.000684926
0.000656266
0.000656264
0.000654466
0.000648514
0.000616264
0.000646715
0.000646715
0.000618061
0.00061806
0.000648516
0.000616264
0.000646714
0.000646717
0.000618058
0.000618057
0.000646716
0.000618062
0.000618058
0.000648514
0.000616261
0.000646714
0.000618058
0.000618061
0.000616263
0.000610308
0.000578049
0.000608508
0.000608509
0.000579848
0.000579847
0.000610308
0.000578047
0.000608507
0.000608507
0.000579847
0.000579843
0.00060851
0.000579845
0.000579847
0.000610307
0.000578044
0.000608512
0.000579843
0.000579843
0.000578044
0.000572096
0.000539847
0.000570298
0.000570295
0.00054164
0.000541639
0.000572092
0.000539842
0.000570297
0.000570291
0.000541643
0.00054164
0.000570295
0.00054164
0.000541633
0.000572089
0.000539844
0.000570292
0.000541638
0.000541634
0.000539837
0.000533896
0.000501646
0.000532093
0.000532095
0.000503442
0.000503442
0.000533892
0.000501647
0.000532096
0.000532091
0.00050344
0.00050344
0.000532088
0.000503441
0.000503438
0.00053389
0.000501646
0.000532087
0.000503442
0.000503439
0.000501642
0.000495689
0.000463433
0.000493891
0.000493892
0.000465231
0.00046523
0.000495692
0.000463435
0.000493889
0.000493891
0.000465229
0.000465233
0.000493891
0.00046523
0.000465232
0.000495692
0.000463435
0.000493892
0.000465232
0.000465232
0.000463435
0.000457479
0.000425221
0.000455682
0.00045568
0.000427019
0.000427019
0.00045748
0.000425225
0.000455682
0.000455685
0.000427021
0.000427021
0.000455683
0.000427022
0.00042702
0.000457482
0.000425225
0.000455682
0.000427023
0.000427019
0.000425219
0.000419264
0.000387012
0.000417467
0.000417469
0.000388806
0.000388808
0.000419268
0.000387011
0.000417468
0.000417468
0.000388804
0.000388804
0.000417471
0.000388806
0.000388808
0.000419267
0.000387007
0.000417467
0.000388803
0.000388808
0.000387013
0.000381055
0.000348798
0.000379255
0.000379258
0.000350594
0.000350591
0.000381054
0.000348798
0.000379254
0.000379252
0.000350592
0.000350592
0.000379258
0.000350594
0.000350591
0.000381049
0.000348799
0.000379259
0.000350592
0.000350591
0.000348794
0.000342836
0.000310584
0.000341042
0.00034104
0.000312376
0.000312378
0.000342838
0.000310586
0.000341039
0.000341041
0.000312377
0.000312376
0.000341039
0.000312377
0.000312376
0.000342839
0.000310581
0.00034104
0.000312375
0.000312376
0.000310584
0.000304621
0.000272366
0.000302824
0.000302824
0.000274158
0.000274155
0.00030462
0.000272363
0.000302826
0.000302822
0.000274158
0.000274159
0.000302823
0.000274156
0.000274158
0.000304615
0.000272366
0.000302824
0.000274158
0.000274159
0.000272366
0.000266399
0.000234153
0.000264605
0.000264605
0.000235945
0.000235945
0.000266399
0.00023415
0.000264605
0.000264609
0.000235945
0.00023595
0.000264606
0.000235941
0.00023594
0.000266403
0.000234158
0.000264609
0.000235949
0.000235942
0.000234146
0.000228187
0.000195942
0.000226394
0.000226394
0.000197731
0.000197726
0.000228185
0.000195937
0.000226393
0.000226398
0.000197731
0.000197729
0.00022639
0.000197726
0.000197726
0.000228192
0.000195938
0.000226392
0.000197727
0.000197725
0.000195934
0.000189974
0.000157715
0.000188179
0.000188175
0.000159503
0.000159508
0.00018997
0.000157718
0.000188179
0.00018818
0.000159505
0.000159509
0.000188177
0.000159507
0.000159506
0.00018997
0.000157722
0.000188176
0.00015951
0.000159509
0.000157718
0.000151739
0.000119497
0.000149952
0.000149954
0.000121282
0.000121279
0.000151741
0.000119494
0.000149953
0.000149957
0.000121282
0.000121283
0.000149959
0.000121278
0.000121283
0.000151746
0.000119498
0.000149958
0.000121282
0.000121284
0.0001195
0.000113502
8.12557e-05
0.000111728
0.000111726
8.30298e-05
8.30314e-05
0.0001135
8.12618e-05
0.000111727
0.000111728
8.3027e-05
8.30299e-05
0.000111728
8.30357e-05
8.30285e-05
0.000113501
8.12579e-05
0.00011173
8.30314e-05
8.30297e-05
8.12541e-05
7.52006e-05
4.3046e-05
7.34668e-05
7.34695e-05
4.48107e-05
4.48115e-05
7.52049e-05
4.3048e-05
7.34649e-05
7.34658e-05
4.48095e-05
4.48053e-05
7.3467e-05
4.48093e-05
4.48085e-05
7.52e-05
4.30438e-05
7.34658e-05
4.48071e-05
4.48053e-05
4.30439e-05
3.67938e-05
8.85206e-06
3.53673e-05
3.53677e-05
1.0631e-05
1.06315e-05
3.67931e-05
8.85377e-06
3.53646e-05
3.53593e-05
1.06269e-05
1.0619e-05
3.53621e-05
1.06285e-05
1.06204e-05
3.67872e-05
8.83946e-06
3.53595e-05
1.06187e-05
1.06209e-05
8.84699e-06
6.24965e-06
6.98936e-06
6.99064e-06
6.25189e-06
6.98755e-06
6.98142e-06
7.21552e-06
7.21018e-06
7.21313e-06
6.98568e-06
6.24023e-06
6.98458e-06
0.000787717
0.000787717
0.000787689
0.000787724
0.000787714
0.000770915
0.000770915
0.000770915
0.000770915
0.00078781
0.000789998
0.000787792
0.000790002
0.000787701
0.000787812
0.000789998
0.000790004
0.000787791
0.000788203
0.00078772
0.00078772
0.000749521
0.000763619
0.000763623
0.000749526
0.000763624
0.000749517
0.000749525
0.000763623
0.000763629
0.000749521
0.000761362
0.000761364
0.000761361
0.000732704
0.000732702
0.000732702
0.0007327
0.000749588
0.000763552
0.00076134
0.000751783
0.000763546
0.000749589
0.000751787
0.000763662
0.000749517
0.000749597
0.000761344
0.000763554
0.000751786
0.000763546
0.00075179
0.000749594
0.000763627
0.000763627
0.00074998
0.000749517
0.000749518
0.0007113
0.00072543
0.000725423
0.000711309
0.00072544
0.00071129
0.000711298
0.000725424
0.000725408
0.000711312
0.000723152
0.000723152
0.000723151
0.000694492
0.000694495
0.000694493
0.000694498
0.000711386
0.000725338
0.000723129
0.000713575
0.000725331
0.000711379
0.00071358
0.000725419
0.000711286
0.000711393
0.00072313
0.000725342
0.000713573
0.000725336
0.00071358
0.000711382
0.000725413
0.000725421
0.000711773
0.000711315
0.000711311
0.0006731
0.000687212
0.000687207
0.000673102
0.000687224
0.000673104
0.000673102
0.000687218
0.000687205
0.000673107
0.000684948
0.000684947
0.000684951
0.000656289
0.000656291
0.000656292
0.000656291
0.000673181
0.000687144
0.000684927
0.000675371
0.000687133
0.00067318
0.000675379
0.000687218
0.000673101
0.000673187
0.000684927
0.000687139
0.000675372
0.000687126
0.000675377
0.000673181
0.000687226
0.000687229
0.000673575
0.000673118
0.000673118
0.000634893
0.000649006
0.000649006
0.000634899
0.000649019
0.000634903
0.000634888
0.000649015
0.000649021
0.000634897
0.000646744
0.000646743
0.000646742
0.000618084
0.000618085
0.000618084
0.000618085
0.000634979
0.000648936
0.000646722
0.000637169
0.000648924
0.00063498
0.000637172
0.000649024
0.000634895
0.000634974
0.00064672
0.000648935
0.000637164
0.000648916
0.000637169
0.000634972
0.000649015
0.000649004
0.000635366
0.000634909
0.000634909
0.000596688
0.000610815
0.000610804
0.0005967
0.000610824
0.000596683
0.000596683
0.000610801
0.000610796
0.000596685
0.000608536
0.000608535
0.000608536
0.000579872
0.000579872
0.000579869
0.00057987
0.000596772
0.000610734
0.000608514
0.000598955
0.000610721
0.000596764
0.000598962
0.000610802
0.000596686
0.000596776
0.000608513
0.000610728
0.000598957
0.000610721
0.000598963
0.000596763
0.000610807
0.000610816
0.000597155
0.000596705
0.000596706
0.000558477
0.000572595
0.000572596
0.000558486
0.000572594
0.000558479
0.000558476
0.000572591
0.000572584
0.00055848
0.000570322
0.000570319
0.000570321
0.000541667
0.000541666
0.000541664
0.000541661
0.000558562
0.000572507
0.000570301
0.000560744
0.00057251
0.00055855
0.000560751
0.000572592
0.000558472
0.000558554
0.000570297
0.000572504
0.000560742
0.000572499
0.000560748
0.000558549
0.000572589
0.000572583
0.000558939
0.000558482
0.00055848
0.000520268
0.000534387
0.000534378
0.000520282
0.000534396
0.000520271
0.000520279
0.000534389
0.000534383
0.00052029
0.00053212
0.000532118
0.000532115
0.000503466
0.000503464
0.000503466
0.000503462
0.000520354
0.00053431
0.000532095
0.000522544
0.000534298
0.000520352
0.000522547
0.000534396
0.000520275
0.000520358
0.000532094
0.000534306
0.000522545
0.000534292
0.000522549
0.000520352
0.000534371
0.000534368
0.000520737
0.000520276
0.000520275
0.000482069
0.000496184
0.000496183
0.000482072
0.000496204
0.000482071
0.000482071
0.000496192
0.000496182
0.000482071
0.000493916
0.000493917
0.000493915
0.000465256
0.000465255
0.000465257
0.000465257
0.00048215
0.000496112
0.000493895
0.000484337
0.000496098
0.000482145
0.000484344
0.000496203
0.000482072
0.000482158
0.000493897
0.000496112
0.000484341
0.0004961
0.000484345
0.000482146
0.000496179
0.00049618
0.000482541
0.000482074
0.000482079
0.000443856
0.000457975
0.000457969
0.000443873
0.000457981
0.000443868
0.000443867
0.000457973
0.000457969
0.000443871
0.000455706
0.000455709
0.000455708
0.000427045
0.000427045
0.000427047
0.000427045
0.000443945
0.000457891
0.000455684
0.00044613
0.000457885
0.000443934
0.000446135
0.000457974
0.000443878
0.000443944
0.000455687
0.000457903
0.000446131
0.000457894
0.000446136
0.000443939
0.000457973
0.000457974
0.000444329
0.000443867
0.00044387
0.000405644
0.000419751
0.000419753
0.000405646
0.000419767
0.000405639
0.000405643
0.000419766
0.00041976
0.000405649
0.000417495
0.000417495
0.000417494
0.000388831
0.000388831
0.000388829
0.000388832
0.000405731
0.000419687
0.000417475
0.000407916
0.000419679
0.000405728
0.000407922
0.000419761
0.000405641
0.000405731
0.000417473
0.000419687
0.000407915
0.000419678
0.000407921
0.000405725
0.000419762
0.000419758
0.000406116
0.000405654
0.00040565
0.000367442
0.000381549
0.000381544
0.000367437
0.000381552
0.000367441
0.000367432
0.000381547
0.00038154
0.000367438
0.000379282
0.000379278
0.000379283
0.000350617
0.000350618
0.000350617
0.000350617
0.000367519
0.000381467
0.00037926
0.000369702
0.00038146
0.000367513
0.000369708
0.00038155
0.000367428
0.000367519
0.00037926
0.000381466
0.000369701
0.000381458
0.000369708
0.000367511
0.000381548
0.000381553
0.000367908
0.000367451
0.00036745
0.000329222
0.000343332
0.000343324
0.00032923
0.000343347
0.000329204
0.000329221
0.00034333
0.000343316
0.000329226
0.000341067
0.000341068
0.000341066
0.000312402
0.000312402
0.0003124
0.0003124
0.000329309
0.000343261
0.000341046
0.000331488
0.000343246
0.000329306
0.000331493
0.000343337
0.000329219
0.000329309
0.000341046
0.000343258
0.00033149
0.000343245
0.000331493
0.000329307
0.000343332
0.000343334
0.000329686
0.000329228
0.000329226
0.000291003
0.000305115
0.000305117
0.000291016
0.000305123
0.00029101
0.000291005
0.00030512
0.000305114
0.000291009
0.00030285
0.000302849
0.000302849
0.000274183
0.000274181
0.000274184
0.000274184
0.000291088
0.000305043
0.000302828
0.000293268
0.00030503
0.000291086
0.000293274
0.00030512
0.000291003
0.000291087
0.000302827
0.000305034
0.000293267
0.000305025
0.000293273
0.000291079
0.000305112
0.000305107
0.000291474
0.000291017
0.000291015
0.00025279
0.000266896
0.00026688
0.000252795
0.000266915
0.000252777
0.000252791
0.000266896
0.00026688
0.000252795
0.000264631
0.000264634
0.000264633
0.000235968
0.000235967
0.000235972
0.000235965
0.000252875
0.000266813
0.00026461
0.000255054
0.000266801
0.000252866
0.000255058
0.00026689
0.000252791
0.000252879
0.000264614
0.000266816
0.000255059
0.000266806
0.000255063
0.000252879
0.000266896
0.000266897
0.000253259
0.0002528
0.000252802
0.000214582
0.000228687
0.00022868
0.000214577
0.000228682
0.000214573
0.000214582
0.000228684
0.000228684
0.000214579
0.000226415
0.00022642
0.000226414
0.000197752
0.000197749
0.000197748
0.000197747
0.000214658
0.000228596
0.000226395
0.000216837
0.000228581
0.000214646
0.000216841
0.000228699
0.00021458
0.00021466
0.000226399
0.000228605
0.00021684
0.000228589
0.000216845
0.000214653
0.000228669
0.000228672
0.00021504
0.000214579
0.000214582
0.000176371
0.000190469
0.000190448
0.000176359
0.000190468
0.000176346
0.00017637
0.000190474
0.00019045
0.000176357
0.000188195
0.000188197
0.000188195
0.000159523
0.000159523
0.000159526
0.000159525
0.000176451
0.000190385
0.00018818
0.000178621
0.000190362
0.000176438
0.000178625
0.000190459
0.000176345
0.00017645
0.00018818
0.000190377
0.000178621
0.00019036
0.000178626
0.000176434
0.000190458
0.000190456
0.000176825
0.000176365
0.000176365
0.000138134
0.000152228
0.00015221
0.000138116
0.000152259
0.000138105
0.000138146
0.000152236
0.000152212
0.000138125
0.000149969
0.000149972
0.000149973
0.000121294
0.000121293
0.000121294
0.000121296
0.000138235
0.000152154
0.00014996
0.000140395
0.000152129
0.000138214
0.000140401
0.000152258
0.000138118
0.000138237
0.000149962
0.000152165
0.0001404
0.000152135
0.000140403
0.000138225
0.00015223
0.000152235
0.000138611
0.000138146
0.00013814
9.98963e-05
0.000114014
0.000113973
9.98662e-05
0.000114029
9.98669e-05
9.99021e-05
0.000114021
0.000113979
9.98685e-05
0.000111736
0.000111736
0.000111738
8.30442e-05
8.3047e-05
8.30445e-05
8.30435e-05
0.000100006
0.000113912
0.000111729
0.000102164
0.00011388
9.99915e-05
0.000102163
0.000114034
9.98413e-05
0.00010001
0.00011173
0.000113916
0.000102163
0.000113886
0.000102163
9.99898e-05
0.000114008
0.000114009
0.000100379
9.98833e-05
9.98853e-05
6.16081e-05
7.57682e-05
7.56909e-05
6.15136e-05
7.5837e-05
6.14068e-05
6.161e-05
7.57573e-05
7.56791e-05
6.1507e-05
7.34879e-05
7.34841e-05
7.34849e-05
4.50354e-05
4.50359e-05
4.50326e-05
4.50333e-05
6.17375e-05
7.56419e-05
7.34799e-05
6.39023e-05
7.55943e-05
6.17163e-05
6.39133e-05
7.58207e-05
6.14037e-05
6.17329e-05
7.34751e-05
7.56273e-05
6.38967e-05
7.55872e-05
6.39089e-05
6.17084e-05
7.57401e-05
7.57408e-05
6.21311e-05
6.15674e-05
6.15647e-05
2.2684e-05
3.72114e-05
3.7097e-05
2.19405e-05
3.75765e-05
2.07746e-05
2.26681e-05
3.72067e-05
3.70865e-05
2.19344e-05
3.58383e-05
3.58338e-05
3.58346e-05
1.24436e-05
1.24432e-05
1.24354e-05
1.24372e-05
2.33137e-05
3.69858e-05
3.56121e-05
2.61605e-05
3.70933e-05
2.26398e-05
2.66386e-05
3.75759e-05
2.08078e-05
2.331e-05
3.56095e-05
3.69801e-05
2.61528e-05
3.70926e-05
2.6634e-05
2.26369e-05
3.70501e-05
3.70487e-05
2.41776e-05
2.23437e-05
2.23396e-05
1.46826e-06
9.40094e-07
2.67742e-06
2.44483e-06
2.67764e-06
-1.46756e-06
1.47345e-06
9.06137e-07
2.65923e-06
2.44353e-06
2.73915e-06
7.65536e-06
7.6529e-06
3.01651e-06
8.07158e-06
2.79054e-06
2.79024e-06
2.28162e-06
2.62547e-06
6.85023e-06
2.51905e-06
4.79188e-06
5.49188e-06
2.69509e-06
2.6947e-06
-1.44219e-06
2.28714e-06
6.8479e-06
2.61462e-06
2.51819e-06
4.78893e-06
2.69421e-06
5.49337e-06
-2.56952e-06
-2.56649e-06
2.49283e-06
6.143e-06
6.15136e-06
0.000787721
0.000787701
0.000788206
0.000787717
0.000787715
0.000768605
0.000782765
0.000768611
0.000782756
0.00078224
0.000768615
0.000768616
0.000782746
0.00078275
0.000787714
0.000787702
0.000787806
0.000790001
0.000787784
0.000790005
0.000787802
0.000789996
0.000787788
0.000790003
0.000782749
0.000768613
0.000782751
0.000768628
0.000782745
0.000768613
0.000782744
0.00076863
0.000782654
0.00078044
0.000768687
0.000770892
0.000782673
0.000780444
0.000768698
0.000782652
0.000780438
0.000768682
0.000770892
0.000782673
0.000780443
0.000768701
0.0007882
0.000787715
0.000787724
0.000787717
0.000768611
0.000782746
0.000782234
0.000768612
0.000768619
0.000782744
0.000782749
0.000768602
0.000782766
0.000787811
0.000790003
0.000787791
0.000790006
0.000787726
0.00078771
0.000787812
0.000789996
0.000790004
0.00078779
0.000782758
0.000768619
0.000782754
0.000768638
0.000782658
0.000780444
0.000768687
0.000770895
0.000782678
0.000780447
0.000768702
0.000782758
0.000768631
0.000782754
0.000768642
0.000782659
0.000780438
0.000770894
0.000768693
0.000780447
0.000782675
0.000768703
0.000787722
0.000787719
0.000787809
0.000789999
0.000790003
0.000787792
0.00078772
0.000787717
0.000782658
0.00078044
0.000768691
0.000770891
0.000782678
0.000780445
0.000768703
0.000782757
0.000768623
0.000782755
0.000768642
0.000782659
0.000780442
0.000770892
0.000768691
0.000780445
0.000782682
0.000768703
0.000782756
0.000768628
0.000782757
0.000768644
0.0007882
0.000787715
0.000787714
0.000787688
0.00076863
0.000782762
0.000782235
0.000768627
0.000768616
0.000782746
0.000782746
0.000768596
0.000782757
0.000787811
0.000790001
0.000790005
0.000787789
0.000787722
0.000787709
0.000787722
0.000787718
0.00078266
0.000780438
0.000770893
0.000768689
0.000780445
0.000782676
0.000768703
0.000782663
0.000780442
0.000770893
0.000768695
0.000780445
0.000782681
0.000768703
0.000782755
0.000768613
0.000782752
0.00076864
0.000782755
0.000768621
0.000782756
0.00076864
0.000787714
0.000787719
0.00078224
0.000768625
0.000768626
0.000782752
0.000782752
0.000768619
0.000782763
0.000768601
0.000782767
0.000763622
0.000749526
0.000763629
0.000749511
0.000763613
0.000763614
0.00074998
0.00074953
0.000749529
0.000730407
0.000744534
0.000730411
0.000744521
0.000744034
0.000730416
0.000730415
0.000744517
0.000744517
0.00074952
0.000763611
0.000763613
0.000749531
0.000749597
0.00076355
0.000761344
0.000751787
0.000763551
0.000749591
0.000751791
0.0007496
0.000763545
0.000761344
0.000751785
0.00076355
0.000749597
0.000751792
0.000744525
0.000730422
0.000744522
0.000730433
0.000744529
0.000730416
0.000744521
0.000730432
0.000744446
0.000742234
0.000730483
0.000732685
0.000744446
0.000742239
0.000730492
0.00074445
0.000742233
0.00073048
0.000732685
0.000744451
0.000742239
0.000730492
0.000763612
0.000763616
0.000749979
0.000749531
0.000749524
0.000763627
0.000749505
0.000730413
0.000744535
0.000744034
0.000730415
0.00073041
0.000744518
0.00074451
0.000730398
0.000744511
0.000749602
0.000763549
0.000761344
0.000751784
0.000763556
0.000749595
0.000751791
0.000749523
0.000763633
0.000763628
0.000749537
0.000749599
0.000761344
0.000763549
0.000751784
0.000763555
0.000751789
0.000749593
0.000744532
0.000730414
0.000744518
0.000730418
0.000744446
0.00074223
0.00073048
0.000732683
0.000744452
0.000742237
0.000730482
0.000744525
0.000730401
0.000744528
0.000730422
0.000744443
0.000742229
0.000732678
0.000730464
0.000742234
0.00074444
0.000730481
0.00074951
0.000763623
0.00076362
0.000749521
0.000749588
0.000761341
0.000763551
0.000751781
0.00076355
0.000751786
0.000749584
0.000749513
0.000763627
0.000763624
0.000749523
0.000744431
0.00074223
0.000730474
0.000732678
0.000744442
0.000742233
0.000730481
0.000744504
0.000730402
0.000744508
0.000730411
0.000744432
0.000742227
0.000732679
0.000730474
0.000742231
0.000744437
0.000730477
0.000744508
0.000730393
0.000744508
0.000730411
0.000763622
0.000763615
0.000749978
0.000749529
0.000749534
0.00076361
0.000749525
0.000730399
0.000744535
0.000744032
0.000730398
0.000730406
0.000744514
0.00074452
0.000730399
0.000744536
0.000749598
0.000761343
0.000763552
0.000751783
0.000763551
0.00075179
0.000749589
0.000749531
0.000763613
0.000763619
0.000749538
0.000749527
0.00076362
0.00076362
0.000749523
0.000744437
0.000742232
0.00073268
0.000730476
0.000742236
0.000744448
0.000730491
0.000744441
0.00074223
0.000732681
0.000730479
0.000742235
0.000744442
0.000730491
0.00074452
0.000730404
0.000744527
0.000730419
0.000744518
0.00073041
0.000744512
0.000730426
0.000763641
0.000749507
0.000763629
0.000749502
0.000744032
0.000730402
0.000730412
0.000744508
0.000744511
0.000730375
0.000744523
0.000730404
0.000744519
0.000725433
0.000711303
0.000725433
0.000711304
0.00072542
0.00072542
0.000711767
0.000711318
0.000711322
0.000692186
0.000706311
0.0006922
0.000706323
0.000705823
0.0006922
0.000692206
0.000706302
0.000706307
0.000711304
0.000725421
0.000725418
0.000711312
0.000711381
0.000725348
0.000723132
0.000713572
0.000725344
0.000711381
0.000713578
0.000711382
0.000725344
0.000723133
0.000713575
0.000725342
0.000711379
0.000713579
0.000706306
0.000692196
0.000706303
0.000692211
0.000706305
0.000692198
0.0007063
0.000692212
0.00070623
0.000704019
0.00069227
0.000694471
0.000706233
0.000704024
0.000692279
0.000706229
0.000704022
0.000692271
0.000694472
0.000706234
0.000704025
0.000692278
0.000725418
0.000725414
0.000711771
0.000711312
0.000711315
0.000725432
0.000711308
0.000692184
0.000706304
0.000705827
0.000692202
0.000692205
0.0007063
0.000706302
0.00069219
0.000706318
0.00071138
0.000725345
0.000723131
0.000713573
0.000725334
0.000711382
0.000713577
0.000711295
0.000725402
0.000725401
0.000711301
0.000711376
0.000723128
0.000725326
0.000713569
0.000725329
0.000713576
0.000711377
0.000706309
0.000692206
0.00070631
0.000692209
0.000706228
0.000704018
0.000692273
0.00069447
0.000706235
0.000704021
0.000692277
0.000706301
0.000692192
0.000706293
0.00069221
0.000706224
0.000704019
0.000694471
0.000692266
0.000704023
0.000706226
0.000692277
0.000711312
0.000725413
0.000725402
0.000711316
0.000711386
0.00072313
0.00072534
0.000713577
0.00072533
0.000713581
0.000711381
0.00071131
0.000725409
0.000725402
0.000711317
0.000706233
0.000704026
0.000692276
0.000694475
0.000706236
0.000704028
0.000692286
0.000706314
0.000692209
0.000706308
0.000692225
0.000706235
0.000704026
0.000694476
0.00069228
0.000704027
0.00070624
0.000692286
0.000706314
0.000692207
0.000706308
0.000692223
0.000725397
0.000725408
0.000711764
0.000711307
0.000711317
0.000725423
0.000711303
0.000692185
0.000706299
0.000705822
0.000692195
0.000692202
0.000706295
0.000706302
0.000692195
0.000706311
0.000711392
0.000723132
0.000725342
0.000713575
0.00072534
0.000713581
0.00071138
0.000711315
0.000725411
0.000725406
0.000711319
0.000711312
0.00072542
0.000725415
0.000711318
0.000706234
0.000704022
0.000694476
0.000692272
0.000704029
0.000706238
0.000692282
0.000706237
0.000704024
0.000694476
0.000692285
0.000704029
0.000706236
0.000692282
0.000706312
0.000692206
0.000706308
0.000692223
0.000706315
0.000692206
0.000706307
0.000692216
0.000725414
0.000711303
0.000725445
0.00071131
0.000705826
0.000692215
0.000692215
0.00070631
0.000706305
0.000692201
0.000706314
0.000692186
0.000706318
0.000687219
0.000673085
0.00068724
0.0006731
0.000687205
0.000687208
0.000673564
0.00067311
0.000673109
0.00065398
0.000668108
0.000653986
0.000668115
0.000667618
0.000653997
0.000653996
0.000668099
0.000668098
0.000673097
0.000687208
0.000687204
0.000673114
0.000673176
0.000687136
0.000684925
0.000675368
0.000687129
0.000673176
0.000675373
0.000673176
0.000687137
0.000684925
0.00067537
0.00068713
0.000673177
0.000675374
0.000668103
0.000653993
0.000668102
0.000654007
0.000668099
0.000653996
0.000668102
0.000654016
0.000668022
0.000665817
0.000654067
0.000656267
0.000668032
0.00066582
0.000654076
0.000668024
0.000665818
0.000654065
0.000656267
0.000668028
0.000665821
0.000654077
0.000687208
0.000687211
0.000673566
0.000673117
0.000673118
0.000687213
0.000673094
0.00065399
0.000668114
0.000667622
0.000653997
0.000653998
0.0006681
0.000668102
0.000653976
0.000668103
0.00067318
0.000687134
0.000684925
0.00067537
0.00068713
0.000673175
0.000675374
0.000673101
0.000687201
0.0006872
0.000673112
0.000673182
0.000684926
0.00068713
0.000675374
0.000687128
0.000675377
0.00067318
0.000668108
0.000654002
0.000668105
0.000654023
0.000668031
0.000665818
0.000654065
0.00065627
0.000668032
0.000665822
0.000654077
0.000668103
0.000654004
0.000668105
0.000654022
0.000668032
0.000665824
0.000656271
0.000654076
0.000665823
0.000668035
0.00065408
0.000673109
0.000687217
0.000687214
0.000673115
0.000673185
0.000684929
0.000687151
0.000675376
0.000687136
0.00067538
0.000673182
0.000673109
0.000687216
0.000687215
0.000673124
0.000668023
0.000665819
0.00065407
0.000656271
0.000668034
0.000665826
0.000654081
0.000668106
0.00065399
0.000668101
0.000654018
0.00066803
0.00066582
0.000656272
0.000654075
0.000665826
0.000668039
0.000654082
0.000668106
0.000654001
0.000668106
0.000654016
0.000687201
0.000687209
0.00067357
0.000673118
0.000673121
0.000687227
0.000673105
0.000653999
0.000668121
0.000667625
0.000654009
0.000654006
0.000668107
0.000668107
0.000653981
0.000668123
0.000673185
0.000684928
0.000687152
0.000675375
0.000687133
0.000675378
0.000673183
0.000673115
0.000687218
0.000687203
0.000673116
0.000673111
0.000687222
0.000687209
0.000673122
0.000668026
0.00066582
0.000656271
0.000654071
0.000665825
0.000668033
0.000654074
0.000668026
0.00066582
0.00065627
0.000654065
0.000665824
0.000668036
0.000654073
0.000668106
0.000653998
0.000668106
0.000654005
0.000668107
0.000653993
0.000668106
0.000654011
0.000687225
0.000673113
0.000687236
0.000673115
0.000667622
0.000654006
0.000653996
0.000668107
0.000668107
0.000653984
0.000668114
0.000653981
0.000668119
0.000649003
0.000634888
0.000649016
0.000634886
0.000649003
0.000648999
0.000635358
0.000634906
0.000634904
0.000615797
0.000629904
0.000615787
0.000629902
0.000629415
0.0006158
0.000615793
0.000629896
0.000629894
0.000634896
0.000649005
0.000649003
0.000634913
0.000634976
0.000648933
0.00064672
0.000637165
0.000648928
0.000634971
0.00063717
0.000634978
0.000648933
0.000646721
0.000637167
0.000648928
0.000634981
0.000637172
0.000629908
0.000615802
0.000629898
0.000615805
0.000629901
0.000615793
0.000629905
0.000615807
0.000629826
0.000627614
0.000615869
0.000618065
0.000629828
0.000627618
0.000615869
0.000629826
0.000627614
0.000615866
0.000618065
0.000629834
0.000627618
0.000615869
0.000649004
0.000649003
0.000635364
0.000634915
0.000634914
0.000649009
0.000634893
0.000615785
0.000629916
0.000629418
0.000615802
0.000615809
0.000629907
0.000629902
0.000615796
0.00062991
0.000634974
0.000648929
0.00064672
0.000637163
0.000648931
0.000634968
0.000637168
0.000634892
0.000649011
0.000649017
0.00063491
0.000634974
0.000646722
0.000648937
0.000637165
0.000648934
0.000637169
0.000634978
0.000629899
0.000615791
0.000629896
0.000615791
0.000629825
0.000627613
0.000615859
0.000618062
0.000629823
0.000627616
0.000615868
0.000629897
0.000615788
0.000629896
0.000615797
0.000629823
0.000627611
0.000618061
0.000615862
0.000627615
0.000629828
0.000615869
0.000634897
0.000649001
0.000648998
0.000634908
0.00063498
0.000646723
0.00064894
0.000637167
0.000648929
0.000637172
0.00063497
0.000634904
0.000649014
0.000649004
0.000634916
0.000629826
0.000627618
0.000615872
0.000618065
0.000629835
0.00062762
0.000615875
0.0006299
0.000615804
0.000629899
0.000615805
0.000629827
0.000627612
0.000618063
0.000615863
0.000627618
0.000629825
0.00061587
0.000629905
0.000615785
0.000629905
0.000615804
0.00064901
0.000649011
0.000635359
0.000634913
0.000634915
0.000649022
0.000634914
0.000615774
0.000629907
0.000629414
0.000615792
0.000615797
0.000629899
0.000629901
0.000615795
0.000629924
0.00063498
0.000646722
0.000648931
0.000637166
0.000648922
0.00063717
0.000634976
0.000634896
0.000649009
0.000648988
0.000634917
0.000634897
0.000648999
0.000648993
0.000634909
0.000629821
0.000627613
0.000618063
0.000615864
0.000627617
0.000629824
0.000615873
0.000629826
0.000627614
0.000618066
0.000615872
0.000627618
0.000629832
0.000615868
0.000629897
0.000615798
0.000629904
0.000615807
0.0006299
0.0006158
0.000629899
0.000615802
0.000649027
0.000634912
0.000649004
0.000634903
0.000629414
0.000615798
0.000615807
0.000629903
0.000629906
0.000615771
0.000629926
0.000615791
0.000629917
0.000610827
0.000596697
0.000610819
0.000596675
0.000610804
0.000610797
0.000597151
0.000596705
0.000596696
0.000577577
0.000591718
0.00057758
0.000591687
0.000591204
0.000577583
0.000577578
0.000591693
0.000591687
0.000596691
0.000610801
0.000610797
0.000596697
0.00059677
0.000610732
0.000608514
0.000598955
0.000610723
0.000596767
0.000598961
0.000596771
0.000610727
0.000608515
0.000598956
0.000610723
0.000596769
0.000598961
0.000591693
0.000577581
0.000591695
0.000577595
0.000591697
0.000577577
0.000591683
0.000577598
0.000591617
0.000589402
0.00057765
0.000579853
0.000591619
0.000589407
0.000577661
0.000591617
0.000589402
0.000577648
0.000579853
0.000591619
0.000589407
0.00057766
0.000610804
0.000610811
0.000597148