/*--------------------------------*- C++ -*----------------------------------*\
| =========                 |                                                 |
| \\      /  F ield         | OpenFOAM: The Open Source CFD Toolbox           |
|  \\    /   O peration     | Version:  v1906                                 |
|   \\  /    A nd           | Web:      www.OpenFOAM.com                      |
|    \\/     M anipulation  |                                                 |
\*---------------------------------------------------------------------------*/
FoamFile
{
    version     2.0;
    format      ascii;
    class       surfaceScalarField;
    location    "50";
    object      phi;
}
// * * * * * * * * * * * * * * * * * * * * * * * * * * * * * * * * * * * * * //

dimensions      [0 3 -1 0 0 0 0];
oriented        oriented;


internalField   nonuniform List<scalar> 
124908
(
5.02328e-10
-1.10539e-10
-0.00110643
-1.09304e-10
-5.30003e-10
0.00110643
-0.00110445
-1.24371e-06
-1.73234e-09
4.34054e-09
0.00110445
-2.94881e-07
1.24614e-06
2.92664e-07
9.4079e-07
-3.02071e-07
-9.40454e-07
2.97681e-07
-0.0011041
-1.23822e-06
-1.51534e-09
3.87181e-09
0.00110411
-2.94619e-07
1.24076e-06
2.93005e-07
9.40576e-07
-3.04635e-07
-9.404e-07
3.00441e-07
-0.000270773
1.27174e-06
1.23796e-06
-2.42118e-07
-2.4772e-07
0.000268753
7.88602e-10
4.62756e-10
-0.00110643
-5.19133e-10
-8.35905e-10
0.00110643
-0.00110445
-1.24358e-06
-3.80356e-09
3.70803e-09
0.00110445
-2.94672e-07
1.24605e-06
2.93055e-07
9.41186e-07
-3.01213e-07
-9.3959e-07
2.98408e-07
-0.0011041
-1.23785e-06
-4.84528e-10
3.6646e-09
0.0011041
-2.94581e-07
1.24118e-06
2.93127e-07
9.40113e-07
-3.0497e-07
-9.40886e-07
3.00148e-07
-0.000270772
1.27181e-06
1.23765e-06
-2.41853e-07
-2.47548e-07
0.000268752
7.2489e-10
1.93875e-09
-0.00110643
-1.38546e-09
-1.12621e-09
0.00110643
-0.00110445
-1.2435e-06
-1.99406e-09
3.55436e-09
0.00110445
-2.9468e-07
1.24611e-06
2.92979e-07
9.40521e-07
-3.01577e-07
-9.40413e-07
2.97554e-07
-0.0011041
-1.23774e-06
-4.76471e-10
2.7948e-09
0.0011041
-2.9452e-07
1.24112e-06
2.93022e-07
9.40595e-07
-3.05113e-07
-9.40646e-07
3.00324e-07
-0.000270772
1.27197e-06
1.23798e-06
-2.42178e-07
-2.47787e-07
0.000268752
1.36154e-09
1.47427e-09
-0.00110643
-1.47002e-09
-1.46382e-09
0.00110643
-0.00110445
-1.24336e-06
-7.68134e-10
2.5924e-09
0.00110445
-2.94495e-07
1.24652e-06
2.93187e-07
9.40218e-07
-3.01933e-07
-9.40431e-07
2.97649e-07
-0.0011041
-1.23821e-06
-1.87413e-09
3.13875e-09
0.0011041
-2.94849e-07
1.24074e-06
2.93038e-07
9.41137e-07
-3.04544e-07
-9.39794e-07
3.00506e-07
-0.000270772
1.27186e-06
1.2386e-06
-2.42913e-07
-2.47612e-07
0.000268752
1.80551e-09
1.29329e-09
-0.00110643
-1.67923e-09
-1.53215e-09
0.00110643
-0.00110445
-1.24335e-06
-2.72097e-10
3.44694e-09
0.00110445
-2.94399e-07
1.2466e-06
2.93505e-07
9.39978e-07
-3.02397e-07
-9.41067e-07
2.97139e-07
-0.0011041
-1.23814e-06
-1.54772e-09
3.27271e-09
0.0011041
-2.94425e-07
1.24085e-06
2.93532e-07
9.40405e-07
-3.04695e-07
-9.40497e-07
3.00442e-07
-0.000270772
1.27194e-06
1.23834e-06
-2.42424e-07
-2.47758e-07
0.000268752
5.16455e-10
2.33785e-09
-0.00110643
-1.77542e-09
-9.31385e-10
0.00110643
-0.00110444
-1.24337e-06
-7.91267e-10
2.90013e-09
0.00110444
-2.9419e-07
1.24663e-06
2.93779e-07
9.40085e-07
-3.01986e-07
-9.40971e-07
2.97571e-07
-0.0011041
-1.23793e-06
-1.63441e-09
2.44454e-09
0.0011041
-2.9424e-07
1.24117e-06
2.9354e-07
9.40376e-07
-3.04804e-07
-9.40092e-07
3.00497e-07
-0.000270771
1.27143e-06
1.23807e-06
-2.4206e-07
-2.47339e-07
0.000268751
9.42938e-11
8.47298e-10
-0.00110643
-9.47629e-10
-3.32116e-10
0.00110643
-0.00110444
-1.24368e-06
-7.77081e-10
4.2118e-09
0.00110444
-2.94962e-07
1.24612e-06
2.92726e-07
9.40544e-07
-3.02126e-07
-9.40446e-07
2.97546e-07
-0.0011041
-1.23793e-06
-1.59783e-09
3.04817e-09
0.0011041
-2.94464e-07
1.241e-06
2.93272e-07
9.40365e-07
-3.04604e-07
-9.40122e-07
3.00648e-07
-0.00027077
1.27171e-06
1.23823e-06
-2.4253e-07
-2.4742e-07
0.00026875
-3.22224e-10
-5.25698e-10
-0.00110643
-1.07241e-11
-1.34105e-10
0.00110643
-0.00110444
-1.24408e-06
-2.0434e-09
4.49094e-09
0.00110444
-2.95577e-07
1.24579e-06
2.92174e-07
9.40907e-07
-3.01634e-07
-9.40144e-07
2.98171e-07
-0.0011041
-1.23871e-06
-6.35497e-10
4.90892e-09
0.0011041
-2.95417e-07
1.24024e-06
2.92337e-07
9.40297e-07
-3.04556e-07
-9.40311e-07
3.00708e-07
-0.00027077
1.27158e-06
1.2378e-06
-2.42088e-07
-2.47414e-07
0.00026875
3.61748e-12
-1.26724e-10
-0.00110643
-1.15374e-10
-5.69145e-10
0.00110643
-0.00110445
-1.24398e-06
-2.52713e-09
4.09776e-09
0.00110445
-2.95386e-07
1.24578e-06
2.922e-07
9.40978e-07
-3.0147e-07
-9.39732e-07
2.98242e-07
-0.0011041
-1.23835e-06
-8.61518e-10
4.13734e-09
0.0011041
-2.95236e-07
1.24062e-06
2.92565e-07
9.40232e-07
-3.04633e-07
-9.40511e-07
3.00349e-07
-0.000270771
1.27204e-06
1.23809e-06
-2.42223e-07
-2.47934e-07
0.000268751
4.57e-10
6.20859e-10
-0.00110643
-5.97313e-10
-1.09871e-09
0.00110643
-0.00110445
-1.24349e-06
-1.71306e-09
3.75195e-09
0.00110445
-2.94971e-07
1.24586e-06
2.92464e-07
9.40229e-07
-3.01421e-07
-9.40204e-07
2.97592e-07
-0.0011041
-1.23803e-06
-3.36177e-10
4.14449e-09
0.0011041
-2.9474e-07
1.24067e-06
2.92781e-07
9.39384e-07
-3.04767e-07
-9.40596e-07
2.99453e-07
-0.000270772
1.27166e-06
1.23788e-06
-2.41803e-07
-2.47555e-07
0.000268751
1.06618e-09
2.50227e-09
-0.00110643
-1.79221e-09
-1.44761e-09
0.00110643
-0.00110445
-1.24292e-06
-1.40792e-09
3.36305e-09
0.00110445
-2.94034e-07
1.24573e-06
2.92472e-07
9.39838e-07
-3.01068e-07
-9.39598e-07
2.96615e-07
-0.0011041
-1.23743e-06
-2.12121e-09
2.17524e-09
0.0011041
-2.9397e-07
1.24079e-06
2.92838e-07
9.39403e-07
-3.03571e-07
-9.39383e-07
2.99362e-07
-0.000270772
1.27167e-06
1.23788e-06
-2.41745e-07
-2.47561e-07
0.000268751
4.69053e-10
3.04019e-09
-0.00110643
-2.10671e-09
-1.24806e-09
0.00110643
-0.00110445
-1.24277e-06
-4.25506e-10
3.67181e-09
0.00110445
-2.93935e-07
1.24532e-06
2.92028e-07
9.38497e-07
-3.00567e-07
-9.39033e-07
2.95509e-07
-0.0011041
-1.23739e-06
-1.46944e-09
2.92418e-09
0.0011041
-2.93931e-07
1.24022e-06
2.92282e-07
9.38503e-07
-3.02731e-07
-9.38787e-07
2.98556e-07
-0.000270773
1.271e-06
1.23752e-06
-2.41382e-07
-2.46471e-07
0.000268752
1.18903e-09
1.55091e-09
-0.00110643
-1.73757e-09
-1.4876e-09
0.00110643
-0.00110445
-1.24242e-06
-4.49366e-10
3.25128e-09
0.00110445
-2.93537e-07
1.245e-06
2.9186e-07
9.37951e-07
-3.00135e-07
-9.392e-07
2.94703e-07
-0.0011041
-1.23736e-06
-1.14657e-09
3.26422e-09
0.0011041
-2.93603e-07
1.23974e-06
2.91876e-07
9.37988e-07
-3.02532e-07
-9.38196e-07
2.97592e-07
-0.000270773
1.27064e-06
1.23719e-06
-2.41086e-07
-2.45868e-07
0.000268752
2.54711e-09
1.03344e-09
-0.00110643
-1.28675e-09
-2.04602e-09
0.00110643
-0.00110445
-1.2422e-06
-2.05963e-09
2.59344e-09
0.00110445
-2.93305e-07
1.24523e-06
2.91899e-07
9.37788e-07
-2.98924e-07
-9.37456e-07
2.9431e-07
-0.0011041
-1.237e-06
-1.79473e-09
3.39014e-09
0.0011041
-2.93569e-07
1.23947e-06
2.91556e-07
9.37447e-07
-3.01398e-07
-9.37337e-07
2.97403e-07
-0.000270773
1.27088e-06
1.23708e-06
-2.4079e-07
-2.46083e-07
0.000268752
3.49533e-09
1.16524e-09
-0.00110643
-1.57238e-09
-2.60436e-09
0.00110643
-0.00110445
-1.2422e-06
-3.94774e-09
2.58299e-09
0.00110445
-2.93314e-07
1.24491e-06
2.91711e-07
9.37088e-07
-2.96943e-07
-9.35931e-07
2.93367e-07
-0.0011041
-1.23719e-06
-1.6818e-09
3.74596e-09
0.00110411
-2.93848e-07
1.23889e-06
2.91268e-07
9.36624e-07
-3.00149e-07
-9.3606e-07
2.95697e-07
-0.000270773
1.27072e-06
1.23629e-06
-2.39912e-07
-2.45969e-07
0.000268752
2.80491e-09
2.6556e-09
-0.00110643
-2.18738e-09
-2.61542e-09
0.00110643
-0.00110445
-1.24142e-06
-5.82534e-09
2.44263e-09
0.00110445
-2.92251e-07
1.24377e-06
2.90724e-07
9.3456e-07
-2.92883e-07
-9.33206e-07
2.89753e-07
-0.0011041
-1.23624e-06
-5.16395e-09
3.19257e-09
0.00110411
-2.9242e-07
1.23795e-06
2.90287e-07
9.34629e-07
-2.9598e-07
-9.32954e-07
2.9258e-07
-0.000270774
1.26959e-06
1.23559e-06
-2.39001e-07
-2.44894e-07
0.000268752
6.36717e-09
5.80583e-09
-0.00110644
-4.33532e-09
-4.81562e-09
0.00110643
-0.00110445
-1.23835e-06
-6.45341e-09
2.05348e-09
0.00110446
-2.88241e-07
1.24099e-06
2.86438e-07
9.29804e-07
-2.85066e-07
-9.297e-07
2.81107e-07
-0.0011041
-1.23308e-06
-6.44359e-09
2.49359e-09
0.00110411
-2.88298e-07
1.23536e-06
2.86143e-07
9.29604e-07
-2.87916e-07
-9.29338e-07
2.84017e-07
-0.000270775
1.26655e-06
1.23279e-06
-2.35851e-07
-2.40986e-07
0.000268752
9.20301e-09
8.61449e-09
-0.00110644
-5.93724e-09
-6.7579e-09
0.00110643
-0.00110445
-1.23197e-06
-1.00366e-08
1.7412e-09
0.00110446
-2.79006e-07
1.23386e-06
2.76629e-07
9.22049e-07
-2.67794e-07
-9.21003e-07
2.64261e-07
-0.0011041
-1.22659e-06
-9.22704e-09
2.49693e-09
0.00110411
-2.79203e-07
1.22846e-06
2.76575e-07
9.21805e-07
-2.71286e-07
-9.21164e-07
2.66534e-07
-0.000270776
1.26066e-06
1.22646e-06
-2.2809e-07
-2.34128e-07
0.000268751
3.19035e-08
3.26487e-08
-0.00110645
-1.55631e-08
-2.06259e-08
0.00110643
-0.00110445
-1.21646e-06
-2.53028e-08
-4.76584e-09
0.00110448
-2.57288e-07
1.22078e-06
2.59046e-07
9.07282e-07
-2.35415e-07
-9.05502e-07
2.29536e-07
-0.00110412
-1.20857e-06
-3.17432e-08
1.03136e-10
0.00110414
-2.5739e-07
1.21225e-06
2.55888e-07
9.05139e-07
-2.34875e-07
-9.02071e-07
2.33131e-07
-0.000270786
1.24748e-06
1.21101e-06
-2.07054e-07
-2.12602e-07
0.000268747
9.14848e-07
9.23076e-07
-0.00110635
-7.55321e-07
-7.44497e-07
0.00110601
-0.00110472
-1.10281e-06
-9.1739e-07
-4.00917e-07
0.00110511
-1.39197e-07
1.36797e-06
3.24003e-07
1.02192e-06
-7.98639e-08
-7.6119e-07
3.00673e-07
-0.00110439
-1.09467e-06
-9.27391e-07
-4.11806e-07
0.0011048
-1.39109e-07
1.36274e-06
3.26991e-07
1.01857e-06
-8.65904e-08
-7.58279e-07
3.02989e-07
-0.000270874
1.13625e-06
1.09481e-06
-9.23664e-08
-9.45953e-08
0.00026883
5.12178e-06
5.11531e-06
-0.00109226
-1.08118e-05
-1.07121e-05
0.000265117
0.000268517
0.000267616
0.000267616
4.14429e-06
6.45385e-06
6.73831e-06
4.14847e-06
6.45494e-06
6.74203e-06
-0.00027331
5.23535e-06
-5.11244e-06
5.8794e-06
-3.31442e-06
0.000270622
-0.000273286
-5.11503e-06
5.24135e-06
-3.32306e-06
5.8766e-06
0.000270606
-0.000271356
-5.23292e-06
-5.24392e-06
5.82496e-06
5.81296e-06
0.000270194
-1.27994e-06
-1.24387e-06
0.00027079
-0.000268759
2.42447e-07
2.50008e-07
0.00110366
-2.20507e-10
-0.00110366
4.3005e-09
-1.27733e-06
2.98458e-07
-3.00362e-07
-9.40253e-07
2.97546e-07
-3.02127e-07
9.4002e-07
1.28585e-06
0.0011041
-7.12982e-10
-0.0011041
3.05294e-09
-1.28255e-06
3.01684e-07
-3.02825e-07
-9.45858e-07
3.00416e-07
-3.04883e-07
9.45696e-07
-1.24664e-06
0.000270819
-0.000268779
2.45344e-07
2.47561e-07
0.00110472
1.92888e-10
-0.00110472
3.71704e-09
-1.24056e-06
2.95996e-07
-2.97461e-07
-9.43353e-07
3.00106e-07
-3.05341e-07
9.42763e-07
1.28059e-06
0.00110376
-4.26141e-10
-0.00110376
1.85501e-09
-1.27678e-06
3.01998e-07
-3.02528e-07
-9.4316e-07
3.00395e-07
-3.04995e-07
9.42751e-07
-1.25876e-09
-0.00110445
3.9695e-09
-1.24331e-06
2.93277e-07
-2.94418e-07
-9.4072e-07
2.97414e-07
9.40064e-07
-3.02255e-07
1.27502e-06
0.00110356
-1.32747e-09
-0.00110356
3.16007e-09
-1.27181e-06
2.96037e-07
-2.97243e-07
-9.40376e-07
2.97694e-07
-3.01956e-07
9.39791e-07
-1.24105e-06
0.000270768
-0.000268739
2.42502e-07
2.50481e-07
-2.10479e-09
-0.0011041
3.36662e-09
-1.23779e-06
2.93446e-07
-2.94223e-07
-9.40228e-07
3.00649e-07
9.4044e-07
-3.04701e-07
1.24132e-06
0.00110462
-1.80696e-09
-0.00110462
3.0847e-09
-1.23806e-06
2.93416e-07
-2.94796e-07
-9.4027e-07
3.00792e-07
-3.0434e-07
9.40224e-07
-0.000268752
2.45028e-07
2.50424e-07
1.27772e-06
1.24097e-06
-2.3944e-07
-2.47925e-07
0.000268759
-1.2803e-06
-1.24407e-06
0.00027079
-0.000268759
2.427e-07
2.50391e-07
4.49699e-09
0.00110366
-3.00526e-07
1.27976e-06
2.98388e-07
9.4042e-07
-3.02072e-07
-9.4028e-07
2.97613e-07
-1.2829e-06
-5.00662e-10
3.28267e-09
0.0011041
-3.03066e-07
1.28547e-06
3.01418e-07
9.45892e-07
-3.04983e-07
-9.46139e-07
3.005e-07
0.00110365
-1.01706e-09
-0.00110365
3.82925e-09
-1.27721e-06
2.9873e-07
-3.00047e-07
-9.40237e-07
2.97834e-07
-3.01932e-07
9.40298e-07
1.2862e-06
0.0011041
1.50058e-10
-0.0011041
2.26943e-09
-1.28222e-06
3.02061e-07
-3.02671e-07
-9.46199e-07
3.00331e-07
-3.05046e-07
9.45522e-07
-2.42221e-07
-2.44959e-07
0.000268779
-1.24638e-06
0.000270818
-0.000268779
2.45206e-07
2.48049e-07
3.7464e-09
0.00110472
-2.9764e-07
1.24359e-06
2.95924e-07
9.42861e-07
-3.05213e-07
-9.43361e-07
3.00295e-07
-1.27734e-06
-5.57618e-10
2.52871e-09
0.00110377
-3.02761e-07
1.28013e-06
3.01636e-07
9.43358e-07
-3.0508e-07
-9.43438e-07
3.00342e-07
0.00110472
-4.43333e-10
-0.00110472
3.2624e-09
-1.24059e-06
2.96133e-07
-2.97117e-07
-9.43201e-07
3.00273e-07
-3.05277e-07
9.42781e-07
1.28027e-06
0.00110377
-1.20281e-09
-0.00110377
2.61135e-09
-1.27739e-06
3.01429e-07
-3.03242e-07
-9.42306e-07
3.00692e-07
-3.047e-07
9.43932e-07
-1.8658e-09
3.40911e-09
0.00110356
-2.97199e-07
1.27461e-06
2.95926e-07
9.4075e-07
-3.01915e-07
2.97749e-07
-9.40374e-07
-2.87183e-09
-0.00110445
4.0334e-09
-1.24347e-06
2.93155e-07
-2.94752e-07
-9.39299e-07
2.98356e-07
9.4121e-07
-3.01401e-07
1.27492e-06
0.00110356
-2.46164e-09
-0.00110356
3.67953e-09
-1.27196e-06
2.96043e-07
-2.97389e-07
-9.39456e-07
2.98083e-07
-3.01461e-07
9.40638e-07
-2.39667e-07
-2.47312e-07
0.000268739
-1.24156e-06
0.000270768
-0.000268739
2.43162e-07
2.50004e-07
-1.49971e-09
2.76337e-09
0.00110463
-2.94606e-07
1.24097e-06
2.93168e-07
9.41093e-07
-3.04483e-07
3.00612e-07
-9.40204e-07
-3.71343e-10
-0.0011041
3.69564e-09
-1.23766e-06
2.93377e-07
-2.94513e-07
-9.40458e-07
3.00297e-07
9.40054e-07
-3.05072e-07
1.24165e-06
0.00110462
-8.34743e-10
-0.00110462
1.92721e-09
-1.2378e-06
2.93881e-07
-2.94291e-07
-9.39941e-07
3.00523e-07
-3.04681e-07
9.4049e-07
-0.000268751
2.45602e-07
2.50619e-07
1.27764e-06
1.24102e-06
-2.39535e-07
-2.47765e-07
0.000268758
-1.28038e-06
-1.24383e-06
0.000270789
-0.000268758
2.42347e-07
2.5067e-07
4.11001e-09
0.00110365
-3.00499e-07
1.27989e-06
2.98355e-07
9.4082e-07
-3.01944e-07
-9.40344e-07
2.97844e-07
-1.28221e-06
-2.77293e-10
2.07941e-09
0.0011041
-3.02448e-07
1.28597e-06
3.01948e-07
9.45862e-07
-3.05176e-07
-9.46284e-07
3.00268e-07
0.00110365
-9.15692e-10
-0.00110365
3.45764e-09
-1.27726e-06
2.98895e-07
-3.00104e-07
-9.3982e-07
2.97646e-07
-3.02118e-07
9.40445e-07
1.28593e-06
0.0011041
-6.19917e-10
-0.0011041
2.604e-09
-1.28216e-06
3.01624e-07
-3.0269e-07
-9.45598e-07
3.00449e-07
-3.04594e-07
9.45799e-07
-2.42295e-07
-2.44133e-07
0.000268779
-1.24653e-06
0.000270818
-0.000268779
2.45214e-07
2.47999e-07
3.82376e-09
0.00110472
-2.9755e-07
1.24361e-06
2.95796e-07
9.4342e-07
-3.05318e-07
-9.43275e-07
3.00324e-07
-1.27771e-06
-2.04502e-09
2.75606e-09
0.00110377
-3.03447e-07
1.27984e-06
3.01005e-07
9.44498e-07
-3.04665e-07
-9.42078e-07
3.00966e-07
0.00110472
-1.87314e-09
-0.00110472
4.08483e-09
-1.24098e-06
2.96047e-07
-2.97459e-07
-9.42438e-07
3.0104e-07
-3.04523e-07
9.43427e-07
1.28009e-06
0.00110377
-3.16523e-09
-0.00110377
3.35163e-09
-1.27752e-06
3.01396e-07
-3.03247e-07
-9.41892e-07
3.01426e-07
-3.03766e-07
9.44116e-07
-3.16036e-09
3.91704e-09
0.00110356
-2.97285e-07
1.2748e-06
2.95724e-07
9.41227e-07
-3.01435e-07
2.97935e-07
-9.39851e-07
-2.54803e-09
-0.00110445
3.26397e-09
-1.24311e-06
2.9332e-07
-2.94406e-07
-9.401e-07
2.98342e-07
9.40445e-07
-3.01203e-07
1.27514e-06
0.00110355
-1.72574e-09
-0.00110356
4.18498e-09
-1.27187e-06
2.95764e-07
-2.97563e-07
-9.39778e-07
2.98089e-07
-3.01353e-07
9.40236e-07
-2.39259e-07
-2.478e-07
0.000268739
-1.24177e-06
0.000270768
-0.000268739
2.4356e-07
2.49706e-07
-1.00369e-09
2.08372e-09
0.00110462
-2.94168e-07
1.2415e-06
2.93631e-07
9.40424e-07
-3.04687e-07
3.00544e-07
-9.40398e-07
-1.44633e-10
-0.0011041
2.59609e-09
-1.23735e-06
2.93468e-07
-2.94221e-07
-9.40304e-07
3.00321e-07
9.40147e-07
-3.05042e-07
1.24171e-06
0.00110462
-2.95163e-10
-0.00110462
2.39129e-09
-1.23786e-06
2.9357e-07
-2.94653e-07
-9.40206e-07
3.00403e-07
-3.04672e-07
9.3997e-07
-0.000268751
2.45491e-07
2.50625e-07
1.27738e-06
1.24113e-06
-2.39858e-07
-2.47399e-07
0.000268757
-1.28043e-06
-1.24398e-06
0.000270789
-0.000268757
2.42438e-07
2.50733e-07
3.47059e-09
0.00110365
-2.99996e-07
1.28005e-06
2.9869e-07
9.40611e-07
-3.02376e-07
-9.4063e-07
2.97631e-07
-1.28266e-06
-8.38946e-10
3.44483e-09
0.0011041
-3.03022e-07
1.28542e-06
3.01174e-07
9.46373e-07
-3.04675e-07
-9.45712e-07
3.00323e-07
0.00110365
-1.39978e-09
-0.00110365
3.51945e-09
-1.27708e-06
2.9883e-07
-3.00023e-07
-9.39766e-07
2.9773e-07
-3.02274e-07
9.40554e-07
1.28572e-06
0.00110409
-1.2177e-09
-0.00110409
4.30573e-09
-1.28275e-06
3.01538e-07
-3.03071e-07
-9.45399e-07
3.00288e-07
-3.0479e-07
9.46094e-07
-2.42301e-07
-2.44522e-07
0.000268779
-1.24684e-06
0.000270818
-0.000268779
2.45634e-07
2.47606e-07
4.16621e-09
0.00110472
-2.97525e-07
1.24348e-06
2.95791e-07
9.43645e-07
-3.04818e-07
-9.42865e-07
3.00694e-07
-1.27787e-06
-3.08748e-09
3.82243e-09
0.00110377
-3.03503e-07
1.2796e-06
3.00888e-07
9.44273e-07
-3.03925e-07
-9.42163e-07
3.01464e-07
0.00110472
-1.95045e-09
-0.00110472
3.36574e-09
-1.24076e-06
2.96283e-07
-2.97399e-07
-9.42894e-07
3.00908e-07
-3.04589e-07
9.43029e-07
1.2803e-06
0.00110376
-1.48456e-09
-0.00110376
4.01967e-09
-1.27753e-06
3.01286e-07
-3.03446e-07
-9.42424e-07
3.01009e-07
-3.04049e-07
9.43279e-07
-1.09951e-09
4.47075e-09
0.00110355
-2.97634e-07
1.27471e-06
2.95375e-07
9.40164e-07
-3.01788e-07
2.97842e-07
-9.40369e-07
-7.12644e-10
-0.00110445
2.3785e-09
-1.24315e-06
2.93392e-07
-2.94307e-07
-9.39898e-07
2.97761e-07
9.4049e-07
-3.01988e-07
1.27508e-06
0.00110356
3.72642e-10
-0.00110355
3.829e-09
-1.27195e-06
2.95874e-07
-2.9766e-07
-9.40689e-07
2.97241e-07
-3.02306e-07
9.39861e-07
-2.38917e-07
-2.4806e-07
0.000268739
-1.24127e-06
0.000270767
-0.000268739
2.42947e-07
2.50054e-07
-2.46141e-11
3.27063e-09
0.00110462
-2.94602e-07
1.24115e-06
2.93218e-07
9.40086e-07
-3.05044e-07
3.00153e-07
-9.40884e-07
-8.81109e-10
-0.0011041
2.97952e-09
-1.23797e-06
2.93317e-07
-2.94839e-07
-9.39861e-07
3.00729e-07
9.40955e-07
-3.04827e-07
1.24093e-06
0.00110462
-5.17769e-10
-0.00110462
4.16091e-09
-1.23857e-06
2.93004e-07
-2.9522e-07
-9.40413e-07
3.00623e-07
-3.04826e-07
9.40354e-07
-0.000268752
2.44507e-07
2.50762e-07
1.27732e-06
1.24094e-06
-2.39657e-07
-2.47415e-07
0.000268758
-1.28067e-06
-1.24428e-06
0.000270789
-0.000268757
2.42891e-07
2.50728e-07
3.71433e-09
0.00110365
-3.00177e-07
1.2802e-06
2.98543e-07
9.40631e-07
-3.02245e-07
-9.40409e-07
2.97691e-07
-1.28294e-06
-1.37253e-09
4.45266e-09
0.00110409
-3.03159e-07
1.28538e-06
3.01429e-07
9.46124e-07
-3.04845e-07
-9.45914e-07
3.00214e-07
0.00110365
-2.01428e-09
-0.00110365
3.0007e-09
-1.27697e-06
2.99115e-07
-2.9964e-07
-9.40566e-07
2.98043e-07
-3.01769e-07
9.40043e-07
1.2857e-06
0.00110409
-1.32349e-09
-0.00110409
4.17669e-09
-1.28295e-06
3.01581e-07
-3.03185e-07
-9.45593e-07
3.007e-07
-3.04495e-07
9.45855e-07
-2.42171e-07
-2.44872e-07
0.000268779
-1.24704e-06
0.000270818
-0.000268779
2.45713e-07
2.47627e-07
3.29475e-09
0.00110472
-2.97455e-07
1.24373e-06
2.96117e-07
9.43718e-07
-3.0489e-07
-9.43108e-07
3.00617e-07
-1.27758e-06
-1.46264e-09
4.10682e-09
0.00110376
-3.03368e-07
1.2801e-06
3.01374e-07
9.43065e-07
-3.04398e-07
-9.43226e-07
3.00554e-07
0.00110472
-1.21289e-09
-0.00110472
2.83903e-09
-1.24046e-06
2.96786e-07
-2.96856e-07
-9.42719e-07
3.00094e-07
-3.05166e-07
9.43236e-07
1.28052e-06
0.00110376
-1.02302e-09
-0.00110376
3.41737e-09
-1.27722e-06
3.01868e-07
-3.02756e-07
-9.43028e-07
3.00532e-07
-3.04596e-07
9.4285e-07
2.92942e-10
3.66708e-09
0.00110356
-2.97408e-07
1.2748e-06
2.9574e-07
9.40172e-07
-3.02422e-07
2.97173e-07
-9.40938e-07
-1.11691e-10
-0.00110445
3.01611e-09
-1.24317e-06
2.93872e-07
-2.94279e-07
-9.40882e-07
2.97542e-07
9.39766e-07
-3.02164e-07
1.27489e-06
0.00110355
-3.25138e-10
-0.00110356
2.97368e-09
-1.27186e-06
2.96088e-07
-2.97631e-07
-9.39794e-07
2.97522e-07
-3.01982e-07
9.4059e-07
-2.39496e-07
-2.47753e-07
0.000268739
-1.2412e-06
0.000270767
-0.000268738
2.42617e-07
2.50549e-07
-1.1107e-09
4.16018e-09
0.00110462
-2.95208e-07
1.24058e-06
2.9253e-07
9.41142e-07
-3.0484e-07
3.00758e-07
-9.40302e-07
-1.61023e-09
-0.0011041
3.1286e-09
-1.238e-06
2.93712e-07
-2.94421e-07
-9.39984e-07
3.00989e-07
9.40523e-07
-3.04506e-07
1.24101e-06
0.00110462
-9.59243e-10
-0.00110462
3.80872e-09
-1.2384e-06
2.93202e-07
-2.95288e-07
-9.40257e-07
3.00954e-07
-3.04566e-07
9.40333e-07
-0.000268752
2.44899e-07
2.50487e-07
1.27715e-06
1.24071e-06
-2.39278e-07
-2.47336e-07
0.000268757
-1.28067e-06
-1.24379e-06
0.000270788
-0.000268757
2.4232e-07
2.5096e-07
3.17479e-09
0.00110365
-2.99794e-07
1.2802e-06
2.98925e-07
9.40583e-07
-3.0204e-07
-9.40859e-07
2.97814e-07
-1.28306e-06
-1.42427e-09
4.44801e-09
0.00110409
-3.03248e-07
1.28537e-06
3.01256e-07
9.46016e-07
-3.04564e-07
-9.45938e-07
3.00682e-07
0.00110365
-8.79117e-10
-0.00110365
3.03062e-09
-1.27701e-06
2.98854e-07
-3.0002e-07
-9.40053e-07
2.97896e-07
-3.02101e-07
9.40453e-07
1.28606e-06
0.00110409
-7.72414e-10
-0.00110409
3.97833e-09
-1.28266e-06
3.01788e-07
-3.02966e-07
-9.46012e-07
3.00283e-07
-3.04668e-07
9.45554e-07
-2.42111e-07
-2.44996e-07
0.000268779
-1.2469e-06
0.000270818
-0.000268779
2.45365e-07
2.4822e-07
3.08865e-09
0.00110472
-2.97039e-07
1.24375e-06
2.96569e-07
9.43264e-07
-3.05113e-07
-9.42907e-07
3.00158e-07
-1.27729e-06
-1.12323e-09
3.8529e-09
0.00110376
-3.02869e-07
1.28032e-06
3.01787e-07
9.42997e-07
-3.04926e-07
-9.43372e-07
3.00303e-07
0.00110472
-2.62629e-09
-0.00110472
3.64486e-09
-1.24098e-06
2.96073e-07
-2.97563e-07
-9.422e-07
3.0103e-07
-3.04164e-07
9.43554e-07
1.28064e-06
0.00110376
-1.62739e-09
-0.00110376
3.54769e-09
-1.27711e-06
3.01967e-07
-3.02832e-07
-9.4278e-07
3.00399e-07
-3.04782e-07
9.43177e-07
-5.45045e-10
3.24224e-09
0.00110355
-2.97233e-07
1.27437e-06
2.95967e-07
9.40708e-07
-3.02162e-07
2.97546e-07
-9.40086e-07
-4.66926e-10
-0.00110445
3.00358e-09
-1.24329e-06
2.94083e-07
-2.94073e-07
-9.40364e-07
2.97636e-07
9.40215e-07
-3.02156e-07
1.27525e-06
0.00110355
-7.93833e-10
-0.00110355
2.50274e-09
-1.27161e-06
2.96551e-07
-2.96822e-07
-9.40356e-07
2.97786e-07
-3.01885e-07
9.40078e-07
-2.39829e-07
-2.47188e-07
0.000268738
-1.24146e-06
0.000270767
-0.000268739
2.42814e-07
2.50677e-07
-9.43235e-10
3.91587e-09
0.00110462
-2.94733e-07
1.24058e-06
2.93024e-07
9.40814e-07
-3.04886e-07
3.00668e-07
-9.40569e-07
-1.20329e-09
-0.0011041
2.36331e-09
-1.23779e-06
2.94009e-07
-2.94268e-07
-9.39965e-07
3.00553e-07
9.40672e-07
-3.04889e-07
1.2412e-06
0.00110462
-1.39423e-09
-0.00110462
3.34798e-09
-1.23816e-06
2.93614e-07
-2.9448e-07
-9.40131e-07
3.00802e-07
-3.04682e-07
9.40608e-07
-0.000268751
2.45197e-07
2.50831e-07
1.27718e-06
1.24122e-06
-2.39787e-07
-2.47253e-07
0.000268757
-1.2803e-06
-1.24387e-06
0.000270787
-0.000268756
2.42435e-07
2.50497e-07
3.322e-09
0.00110365
-3.00218e-07
1.28024e-06
2.9845e-07
9.40487e-07
-3.02116e-07
-9.40535e-07
2.97861e-07
-1.28262e-06
-9.93164e-10
3.8265e-09
0.00110409
-3.02914e-07
1.28587e-06
3.01675e-07
9.45832e-07
-3.0497e-07
-9.46286e-07
3.00099e-07
0.00110365
-5.50338e-10
-0.00110365
3.35515e-09
-1.27727e-06
2.98653e-07
-3.00257e-07
-9.40344e-07
2.9782e-07
-3.0189e-07
9.40407e-07
1.28572e-06
0.00110409
-7.8245e-10
-0.00110409
3.36908e-09
-1.28269e-06
3.015e-07
-3.02975e-07
-9.45313e-07
3.00424e-07
-3.04478e-07
9.46039e-07
-2.42448e-07
-2.44244e-07
0.000268779
-1.24679e-06
0.000270817
-0.000268778
2.45586e-07
2.477e-07
4.04774e-09
0.00110472
-2.97861e-07
1.24336e-06
2.95472e-07
9.43966e-07
-3.04256e-07
-9.42517e-07
3.01181e-07
-1.27723e-06
-2.34554e-09
3.29678e-09
0.00110376
-3.02763e-07
1.28033e-06
3.01771e-07
9.43675e-07
-3.04828e-07
-9.42815e-07
3.00519e-07
0.00110471
-1.47448e-09
-0.00110471
4.38378e-09
-1.24096e-06
2.95807e-07
-2.97849e-07
-9.42639e-07
3.00995e-07
-3.04218e-07
9.43051e-07
1.28057e-06
0.00110376
-1.95304e-09
-0.00110376
2.64965e-09
-1.27711e-06
3.01902e-07
-3.02687e-07
-9.42474e-07
3.00846e-07
-3.04383e-07
9.43285e-07
-8.17276e-10
2.46965e-09
0.00110355
-2.96779e-07
1.27503e-06
2.96254e-07
9.40127e-07
-3.01889e-07
2.97761e-07
-9.40647e-07
-4.57853e-10
-0.00110444
3.35413e-09
-1.24311e-06
2.93518e-07
-2.94479e-07
-9.4047e-07
2.97605e-07
9.40371e-07
-3.01823e-07
1.27506e-06
0.00110355
-7.50115e-10
-0.00110355
2.436e-09
-1.27171e-06
2.95862e-07
-2.97335e-07
-9.39554e-07
2.97686e-07
-3.0182e-07
9.40852e-07
-2.3961e-07
-2.471e-07
0.000268739
-1.24155e-06
0.000270768
-0.000268739
2.43125e-07
2.5056e-07
-1.42716e-09
3.67739e-09
0.00110462
-2.9461e-07
1.24091e-06
2.93267e-07
9.41145e-07
-3.04772e-07
3.00539e-07
-9.40138e-07
-1.33107e-09
-0.0011041
2.44093e-09
-1.23753e-06
2.93822e-07
-2.93996e-07
-9.40132e-07
3.00624e-07
9.4036e-07
-3.04478e-07
1.24108e-06
0.00110462
-1.35125e-09
-0.00110462
2.99911e-09
-1.23828e-06
2.93264e-07
-2.95003e-07
-9.39588e-07
3.00791e-07
-3.04511e-07
9.41055e-07
-0.00026875
2.44859e-07
2.509e-07
1.27762e-06
1.24115e-06
-2.39728e-07
-2.47765e-07
0.000268756
-1.2799e-06
-1.24364e-06
0.000270786
-0.000268755
2.42393e-07
2.49887e-07
3.81158e-09
0.00110365
-3.0052e-07
1.27966e-06
2.98151e-07
9.40742e-07
-3.02383e-07
-9.4052e-07
2.97668e-07
-1.28299e-06
-2.19678e-10
3.87938e-09
0.00110409
-3.03346e-07
1.28538e-06
3.01035e-07
9.46025e-07
-3.04731e-07
-9.45956e-07
3.00566e-07
0.00110365
2.23448e-10
-0.00110365
4.23303e-09
-1.27757e-06
2.9827e-07
-3.00419e-07
-9.40407e-07
2.97684e-07
-3.02321e-07
9.40312e-07
1.2857e-06
0.00110409
8.00262e-10
-0.00110409
3.24661e-09
-1.28275e-06
3.01191e-07
-3.03345e-07
-9.46244e-07
3.00571e-07
-3.04655e-07
9.45329e-07
-2.42329e-07
-2.44964e-07
0.000268778
-1.24617e-06
0.000270817
-0.000268778
2.45086e-07
2.47489e-07
4.84919e-09
0.00110471
-2.98089e-07
1.24335e-06
2.95427e-07
9.43115e-07
-3.04707e-07
-9.4308e-07
3.0067e-07
-1.27737e-06
-1.62174e-09
2.76174e-09
0.00110376
-3.02948e-07
1.28017e-06
3.01435e-07
9.43579e-07
-3.04523e-07
-9.42786e-07
3.00803e-07
0.00110471
4.31216e-10
-0.00110471
4.18045e-09
-1.24092e-06
2.95955e-07
-2.97786e-07
-9.43108e-07
3.00016e-07
-3.05241e-07
9.42715e-07
1.28002e-06
0.00110376
1.50444e-10
-0.00110376
3.53832e-09
-1.27751e-06
3.01209e-07
-3.03498e-07
-9.42685e-07
3.00483e-07
-3.04804e-07
9.43053e-07
-1.09232e-09
2.81408e-09
0.00110355
-2.97532e-07
1.2748e-06
2.95368e-07
9.40865e-07
-3.01952e-07
2.97618e-07
-9.39844e-07
-1.16434e-09
-0.00110444
4.47779e-09
-1.24377e-06
2.92363e-07
-2.95393e-07
-9.40037e-07
2.98245e-07
9.40742e-07
-3.0169e-07
1.27508e-06
0.00110355
-1.23991e-09
-0.00110355
3.13371e-09
-1.27176e-06
2.9598e-07
-2.97249e-07
-9.4014e-07
2.97704e-07
-3.01863e-07
9.40085e-07
-2.39432e-07
-2.47279e-07
0.000268739
-1.24067e-06
0.000270766
-0.000268738
2.42182e-07
2.50145e-07
-1.60277e-09
3.16558e-09
0.00110462
-2.95095e-07
1.24083e-06
2.92858e-07
9.41397e-07
-3.04491e-07
3.00966e-07
-9.40052e-07
-4.96745e-10
-0.0011041
4.25129e-09
-1.23829e-06
2.92801e-07
-2.94956e-07
-9.39824e-07
3.00723e-07
9.40371e-07
-3.045e-07
1.24139e-06
0.00110462
-9.04265e-10
-0.00110462
2.19768e-09
-1.23807e-06
2.93514e-07
-2.94729e-07
-9.40203e-07
3.00736e-07
-3.044e-07
9.40137e-07
-0.00026875
2.45145e-07
2.50769e-07
1.27783e-06
1.24122e-06
-2.39602e-07
-2.48175e-07
0.000268755
-1.28034e-06
-1.24383e-06
0.000270786
-0.000268754
2.42302e-07
2.5055e-07
4.50456e-09
0.00110365
-3.00567e-07
1.27958e-06
2.98061e-07
9.40493e-07
-3.02482e-07
-9.40856e-07
2.97579e-07
-1.28289e-06
6.1592e-10
3.28158e-09
0.00110409
-3.03458e-07
1.28559e-06
3.00931e-07
9.45548e-07
-3.04943e-07
-9.46607e-07
3.00305e-07
0.00110365
-2.8079e-10
-0.00110365
4.13158e-09
-1.2772e-06
2.98191e-07
-3.00332e-07
-9.40203e-07
2.97737e-07
-3.02018e-07
9.40189e-07
1.28572e-06
0.00110409
5.70278e-10
-0.00110409
2.7798e-09
-1.28268e-06
3.01046e-07
-3.03167e-07
-9.45513e-07
3.00402e-07
-3.04954e-07
9.46143e-07
-2.42668e-07
-2.44901e-07
0.000268777
-1.24611e-06
0.000270817
-0.000268778
2.44807e-07
2.47675e-07
4.3208e-09
0.00110471
-2.97732e-07
1.24325e-06
2.95794e-07
9.42931e-07
-3.05335e-07
-9.43472e-07
2.9985e-07
-1.27785e-06
2.84301e-10
3.98425e-09
0.00110376
-3.03685e-07
1.27961e-06
3.00817e-07
9.43241e-07
-3.04884e-07
-9.43184e-07
3.00521e-07
0.00110471
-2.84039e-10
-0.00110471
3.12861e-09
-1.24078e-06
2.95801e-07
-2.97621e-07
-9.42477e-07
3.0048e-07
-3.04737e-07
9.43116e-07
1.28042e-06
0.00110376
3.01082e-10
-0.00110376
3.4633e-09
-1.27722e-06
3.01172e-07
-3.03358e-07
-9.42908e-07
3.00308e-07
-3.04656e-07
9.42526e-07
-1.64682e-09
3.43939e-09
0.00110355
-2.97309e-07
1.27489e-06
2.95667e-07
9.40366e-07
-3.01967e-07
2.97568e-07
-9.40544e-07
-1.84178e-09
-0.00110445
3.86467e-09
-1.24383e-06
2.92472e-07
-2.95125e-07
-9.39338e-07
2.98184e-07
9.41139e-07
-3.01569e-07
1.27484e-06
0.00110355
-1.11909e-09
-0.00110355
3.90578e-09
-1.27206e-06
2.9572e-07
-2.97578e-07
-9.40003e-07
2.97566e-07
-3.01544e-07
9.4009e-07
-2.4024e-07
-2.47627e-07
0.000268738
-1.24106e-06
0.000270766
-0.000268737
2.42486e-07
2.50392e-07
-1.05145e-09
2.23311e-09
0.00110462
-2.94682e-07
1.24127e-06
2.93284e-07
9.40572e-07
-3.04682e-07
3.0057e-07
-9.40649e-07
-2.67573e-10
-0.0011041
4.12354e-09
-1.23806e-06
2.92925e-07
-2.95092e-07
-9.40486e-07
3.00691e-07
9.40003e-07
-3.04497e-07
1.24138e-06
0.00110462
1.02286e-10
-0.00110462
2.47506e-09
-1.23809e-06
2.93352e-07
-2.94925e-07
-9.40218e-07
3.00093e-07
-3.05019e-07
9.40298e-07
-0.00026875
2.45191e-07
2.50369e-07
1.27745e-06
1.24109e-06
-2.39777e-07
-2.47512e-07
0.000268754
-1.28015e-06
-1.24377e-06
0.000270787
-0.000268755
2.42027e-07
2.5031e-07
4.53184e-09
0.00110365
-3.00845e-07
1.27977e-06
2.97724e-07
9.40439e-07
-3.02103e-07
-9.40506e-07
2.9762e-07
-1.28281e-06
3.26296e-10
2.97046e-09
0.00110409
-3.03468e-07
1.28544e-06
3.00937e-07
9.46098e-07
-3.05039e-07
-9.45619e-07
3.00437e-07
0.00110365
-3.55226e-11
-0.00110365
4.40724e-09
-1.27719e-06
2.9821e-07
-3.00439e-07
-9.40187e-07
2.97124e-07
-3.01943e-07
9.40002e-07
1.28547e-06
0.00110409
1.24244e-10
-0.00110409
3.00541e-09
-1.2825e-06
3.01058e-07
-3.02964e-07
-9.45435e-07
3.00102e-07
-3.04698e-07
9.45688e-07
-2.42738e-07
-2.44624e-07
0.000268778
-1.24628e-06
0.000270817
-0.000268777
2.4499e-07
2.47243e-07
3.50785e-09
0.00110471
-2.98084e-07
1.24329e-06
2.95334e-07
9.42975e-07
-3.04812e-07
-9.43205e-07
3.00372e-07
-1.27739e-06
1.93358e-10
3.57417e-09
0.00110376
-3.03586e-07
1.28018e-06