/*--------------------------------*- C++ -*----------------------------------*\
| =========                 |                                                 |
| \\      /  F ield         | OpenFOAM: The Open Source CFD Toolbox           |
|  \\    /   O peration     | Version:  v1906                                 |
|   \\  /    A nd           | Web:      www.OpenFOAM.com                      |
|    \\/     M anipulation  |                                                 |
\*---------------------------------------------------------------------------*/
FoamFile
{
    version     2.0;
    format      ascii;
    class       volVectorField;
    location    "50";
    object      U;
}
// * * * * * * * * * * * * * * * * * * * * * * * * * * * * * * * * * * * * * //

dimensions      [0 1 -1 0 0 0 0];


internalField   nonuniform List<vector> 
43024
(
(-5.67287e-07 -6.21233e-07 0.105112)
(-6.84118e-07 1.04136e-06 0.104856)
(9.66913e-07 -6.89275e-07 0.104856)
(-4.43775e-05 -4.44158e-05 0.104512)
(-6.26628e-07 -6.47031e-07 0.105112)
(-6.03607e-07 9.86892e-07 0.104855)
(9.18764e-07 -8.71692e-07 0.104856)
(-4.42676e-05 -4.4425e-05 0.104512)
(-7.29293e-07 -6.92795e-07 0.105112)
(-6.50735e-07 9.39252e-07 0.104855)
(8.67298e-07 -8.41997e-07 0.104855)
(-4.44312e-05 -4.45193e-05 0.104512)
(-7.07529e-07 -7.19685e-07 0.105111)
(-7.87703e-07 8.68524e-07 0.104855)
(9.84296e-07 -7.24769e-07 0.104855)
(-4.4659e-05 -4.44615e-05 0.104512)
(-7.42094e-07 -7.28526e-07 0.105111)
(-8.22114e-07 9.02693e-07 0.104855)
(9.63346e-07 -7.36162e-07 0.104855)
(-4.45427e-05 -4.44957e-05 0.104512)
(-7.57739e-07 -6.43733e-07 0.105111)
(-7.45357e-07 8.33153e-07 0.104855)
(8.23997e-07 -7.40344e-07 0.104855)
(-4.44132e-05 -4.43054e-05 0.104512)
(-6.41719e-07 -5.94138e-07 0.105111)
(-7.96967e-07 1.0153e-06 0.104855)
(9.14759e-07 -7.45256e-07 0.104855)
(-4.45191e-05 -4.44013e-05 0.104511)
(-5.63226e-07 -5.47308e-07 0.105111)
(-7.00288e-07 1.12216e-06 0.104855)
(1.09586e-06 -7.45509e-07 0.104855)
(-4.43318e-05 -4.43233e-05 0.104511)
(-5.72153e-07 -5.96311e-07 0.105111)
(-6.60165e-07 1.07917e-06 0.104855)
(1.01034e-06 -7.63656e-07 0.104855)
(-4.44324e-05 -4.45552e-05 0.104512)
(-5.99577e-07 -6.55137e-07 0.105112)
(-6.95688e-07 9.9241e-07 0.104856)
(9.82248e-07 -8.29115e-07 0.104855)
(-4.43503e-05 -4.44131e-05 0.104512)
(-7.74982e-07 -7.22113e-07 0.105112)
(-7.04008e-07 9.5911e-07 0.104856)
(7.88833e-07 -6.65774e-07 0.104856)
(-4.43322e-05 -4.43713e-05 0.104512)
(-8.16317e-07 -6.63307e-07 0.105112)
(-8.4775e-07 9.5485e-07 0.104856)
(8.90251e-07 -7.17818e-07 0.104856)
(-4.41794e-05 -4.40564e-05 0.104512)
(-7.5397e-07 -7.28101e-07 0.105113)
(-8.33506e-07 8.99866e-07 0.104856)
(9.5603e-07 -7.61318e-07 0.104856)
(-4.40287e-05 -4.38615e-05 0.104512)
(-6.84341e-07 -7.95515e-07 0.105113)
(-6.94021e-07 8.70924e-07 0.104856)
(9.48069e-07 -6.67888e-07 0.104856)
(-4.39449e-05 -4.39572e-05 0.104512)
(-7.09938e-07 -8.09174e-07 0.105114)
(-5.33223e-07 8.6221e-07 0.104856)
(1.00152e-06 -6.52e-07 0.104856)
(-4.35964e-05 -4.39035e-05 0.104511)
(-8.00612e-07 -8.35938e-07 0.105114)
(-3.37011e-07 8.54175e-07 0.104856)
(9.61964e-07 -3.73337e-07 0.104856)
(-4.31902e-05 -4.33015e-05 0.104511)
(-1.02275e-06 -1.07283e-06 0.105116)
(-2.2309e-07 7.91365e-07 0.104856)
(9.10892e-07 -2.48516e-07 0.104856)
(-4.16955e-05 -4.17016e-05 0.104512)
(-1.18739e-06 -1.24936e-06 0.105118)
(1.85769e-07 8.86261e-07 0.104855)
(9.8698e-07 1.18159e-07 0.104855)
(-3.8187e-05 -3.84008e-05 0.104513)
(-1.57797e-06 -1.53055e-06 0.105121)
(8.20423e-07 1.3656e-06 0.104854)
(1.3568e-06 9.82737e-07 0.104854)
(-2.98578e-05 -2.98957e-05 0.104516)
(-6.77409e-06 -6.65476e-06 0.10512)
(7.34951e-06 1.96504e-07 0.104849)
(1.41992e-07 7.31276e-06 0.104849)
(-1.09415e-05 -1.07469e-05 0.104528)
(-4.78839e-05 -4.76561e-05 0.105058)
(5.43633e-05 -3.31613e-05 0.10482)
(-3.34362e-05 5.44171e-05 0.10482)
(4.73184e-05 4.74123e-05 0.104525)
(-4.6706e-05 -4.68385e-05 0.104533)
(9.45147e-07 8.66112e-07 0.104856)
(-8.7564e-07 7.97851e-07 0.104855)
(4.6903e-05 -4.69097e-05 0.104533)
(8.74882e-07 8.52962e-07 0.104856)
(8.71186e-07 -7.26501e-07 0.104855)
(-7.58143e-07 8.68588e-07 0.104856)
(-7.89785e-07 -8.79559e-07 0.104855)
(-4.67837e-05 4.69353e-05 0.104532)
(8.25376e-07 -6.91996e-07 0.104856)
(-8.67943e-07 -7.30816e-07 0.104856)
(4.68575e-05 4.68487e-05 0.104532)
(4.45728e-05 4.43905e-05 0.104513)
(-4.68941e-05 -4.69243e-05 0.104533)
(1.05292e-06 7.79119e-07 0.104856)
(-9.77829e-07 7.714e-07 0.104856)
(9.27508e-07 7.28654e-07 0.104856)
(-7.07118e-07 8.8305e-07 0.104856)
(-4.44434e-05 4.43836e-05 0.104513)
(4.70012e-05 -4.677e-05 0.104532)
(8.50886e-07 9.54061e-07 0.104856)
(7.897e-07 -8.76291e-07 0.104855)
(8.08409e-07 8.40526e-07 0.104856)
(7.43622e-07 -8.58342e-07 0.104855)
(-6.96425e-07 -8.96804e-07 0.104855)
(-6.65292e-07 9.3819e-07 0.104855)
(-6.94816e-07 -9.39725e-07 0.104855)
(4.44362e-05 -4.44365e-05 0.104512)
(-4.70291e-05 4.68105e-05 0.104532)
(-8.53852e-07 -7.21527e-07 0.104856)
(8.18472e-07 -8.39678e-07 0.104856)
(-7.38112e-07 -7.9404e-07 0.104855)
(4.70316e-05 4.68903e-05 0.104532)
(4.45163e-05 4.44463e-05 0.104513)
(-4.69464e-05 -4.68389e-05 0.104532)
(1.02265e-06 7.93039e-07 0.104856)
(-7.45645e-07 8.57123e-07 0.104856)
(9.05157e-07 8.15355e-07 0.104855)
(-7.72467e-07 8.04789e-07 0.104855)
(-4.42029e-05 4.4408e-05 0.104512)
(4.69048e-05 -4.68098e-05 0.104532)
(8.06413e-07 9.56476e-07 0.104856)
(7.10378e-07 -9.60594e-07 0.104855)
(6.78933e-07 9.48268e-07 0.104856)
(5.8008e-07 -9.20159e-07 0.104855)
(-6.41645e-07 -9.85715e-07 0.104855)
(-6.01381e-07 8.04735e-07 0.104855)
(-7.19911e-07 -9.4778e-07 0.104855)
(4.42773e-05 -4.46214e-05 0.104512)
(-4.7131e-05 4.67176e-05 0.104533)
(-7.74512e-07 -7.65899e-07 0.104855)
(7.32895e-07 -8.46434e-07 0.104855)
(-7.73515e-07 -8.5974e-07 0.104855)
(4.70215e-05 4.69401e-05 0.104532)
(4.44352e-05 4.45211e-05 0.104512)
(-4.69305e-05 -4.68791e-05 0.104532)
(9.9142e-07 8.27642e-07 0.104855)
(-9.48479e-07 7.68675e-07 0.104855)
(9.09438e-07 7.42042e-07 0.104855)
(-9.81988e-07 7.63733e-07 0.104855)
(-4.43657e-05 4.43666e-05 0.104512)
(4.6901e-05 -4.69669e-05 0.104532)
(6.59763e-07 1.03694e-06 0.104856)
(5.8822e-07 -1.03434e-06 0.104855)
(6.27132e-07 8.57415e-07 0.104855)
(7.06443e-07 -9.17576e-07 0.104855)
(-7.87965e-07 -1.01496e-06 0.104855)
(-7.90057e-07 7.6305e-07 0.104855)
(-9.6258e-07 -9.25216e-07 0.104855)
(4.42152e-05 -4.46991e-05 0.104512)
(-4.69197e-05 4.68342e-05 0.104532)
(-8.72324e-07 -8.75115e-07 0.104855)
(8.68397e-07 -7.92599e-07 0.104855)
(-9.69455e-07 -7.76637e-07 0.104855)
(4.6714e-05 4.69441e-05 0.104532)
(4.44128e-05 4.44224e-05 0.104512)
(-4.70416e-05 -4.70485e-05 0.104532)
(9.96293e-07 7.31847e-07 0.104855)
(-1.09646e-06 7.58549e-07 0.104855)
(8.06144e-07 6.6751e-07 0.104855)
(-9.78274e-07 7.35877e-07 0.104855)
(-4.44378e-05 4.43372e-05 0.104512)
(4.68485e-05 -4.70252e-05 0.104532)
(7.10539e-07 9.34633e-07 0.104855)
(6.96149e-07 -9.98637e-07 0.104855)
(7.76717e-07 7.86395e-07 0.104855)
(7.74242e-07 -8.64826e-07 0.104855)
(-9.54508e-07 -9.31278e-07 0.104855)
(-8.13138e-07 7.65978e-07 0.104855)
(-9.08787e-07 -8.66652e-07 0.104855)
(4.44515e-05 -4.45478e-05 0.104512)
(-4.68771e-05 4.69698e-05 0.104532)
(-1.01272e-06 -7.27441e-07 0.104855)
(8.45443e-07 -6.80903e-07 0.104855)
(-9.19302e-07 -7.62781e-07 0.104855)
(4.67258e-05 4.68204e-05 0.104532)
(4.4352e-05 4.43296e-05 0.104512)
(-4.70487e-05 -4.67936e-05 0.104532)
(9.19887e-07 6.85553e-07 0.104855)
(-1.07726e-06 7.19779e-07 0.104855)
(8.58428e-07 7.6364e-07 0.104855)
(-8.91147e-07 7.4656e-07 0.104855)
(-4.45304e-05 4.43183e-05 0.104512)
(4.70182e-05 -4.69762e-05 0.104532)
(7.75646e-07 9.07052e-07 0.104855)
(7.73267e-07 -9.85703e-07 0.104855)
(6.34923e-07 9.17447e-07 0.104855)
(7.27333e-07 -8.56395e-07 0.104855)
(-8.88629e-07 -9.45819e-07 0.104855)
(-7.6491e-07 7.56111e-07 0.104855)
(-7.88815e-07 -7.97447e-07 0.104855)
(4.44137e-05 -4.43745e-05 0.104512)
(-4.69545e-05 4.70199e-05 0.104532)
(-9.62736e-07 -7.78475e-07 0.104855)
(7.10528e-07 -7.36489e-07 0.104855)
(-8.89755e-07 -7.38991e-07 0.104855)
(4.68265e-05 4.6965e-05 0.104532)
(4.43607e-05 4.45762e-05 0.104512)
(-4.68906e-05 -4.68729e-05 0.104532)
(9.61129e-07 7.92354e-07 0.104855)
(-9.38237e-07 7.29101e-07 0.104855)
(8.96187e-07 8.09289e-07 0.104855)
(-8.96979e-07 8.11811e-07 0.104855)
(-4.43381e-05 4.43464e-05 0.104512)
(4.68261e-05 -4.69323e-05 0.104532)
(6.39011e-07 1.02711e-06 0.104855)
(6.93416e-07 -9.31799e-07 0.104855)
(6.77211e-07 9.62154e-07 0.104855)
(6.54152e-07 -7.87043e-07 0.104855)
(-8.09347e-07 -8.09113e-07 0.104855)
(-8.17951e-07 8.11519e-07 0.104855)
(-8.46441e-07 -8.19515e-07 0.104855)
(4.43657e-05 -4.43768e-05 0.104512)
(-4.70412e-05 4.69652e-05 0.104532)
(-9.57111e-07 -7.75817e-07 0.104855)
(7.28309e-07 -7.27339e-07 0.104855)
(-8.55999e-07 -7.28382e-07 0.104855)
(4.67669e-05 4.69285e-05 0.104531)
(4.45334e-05 4.44719e-05 0.104512)
(-4.66932e-05 -4.67971e-05 0.104531)
(1.024e-06 8.59452e-07 0.104855)
(-1.01419e-06 8.34812e-07 0.104855)
(9.93064e-07 8.60255e-07 0.104855)
(-8.71823e-07 9.08311e-07 0.104855)
(-4.45341e-05 4.444e-05 0.104512)
(4.68252e-05 -4.67025e-05 0.104532)
(7.51067e-07 1.09805e-06 0.104855)
(6.98677e-07 -8.97987e-07 0.104855)
(9.38477e-07 1.01396e-06 0.104855)
(8.81128e-07 -9.84626e-07 0.104855)
(-7.97193e-07 -9.10099e-07 0.104855)
(-7.14958e-07 9.85504e-07 0.104855)
(-7.7278e-07 -8.99145e-07 0.104855)
(4.43094e-05 -4.44552e-05 0.104512)
(-4.66308e-05 4.67546e-05 0.104532)
(-9.1886e-07 -7.18739e-07 0.104855)
(9.48923e-07 -7.62581e-07 0.104855)
(-7.87797e-07 -7.38208e-07 0.104855)
(4.69084e-05 4.69496e-05 0.104531)
(4.46328e-05 4.45215e-05 0.104511)
(-4.68698e-05 -4.67777e-05 0.104531)
(1.09653e-06 8.50243e-07 0.104855)
(-9.4431e-07 8.7672e-07 0.104855)
(9.64985e-07 7.96376e-07 0.104855)
(-8.46121e-07 9.29877e-07 0.104855)
(-4.4486e-05 4.45824e-05 0.104512)
(4.68443e-05 -4.66532e-05 0.104532)
(9.23978e-07 1.08427e-06 0.104855)
(9.00242e-07 -1.1088e-06 0.104855)
(8.13392e-07 8.86128e-07 0.104855)
(8.69888e-07 -9.07424e-07 0.104855)
(-7.38457e-07 -9.57363e-07 0.104855)
(-7.03058e-07 9.56829e-07 0.104855)
(-8.0256e-07 -9.42625e-07 0.104855)
(4.46577e-05 -4.46221e-05 0.104512)
(-4.68024e-05 4.6892e-05 0.104532)
(-8.27636e-07 -7.14189e-07 0.104855)
(9.08533e-07 -7.9182e-07 0.104855)
(-8.10393e-07 -8.75851e-07 0.104855)
(4.6903e-05 4.68068e-05 0.104531)
(4.44859e-05 4.45396e-05 0.104511)
(-4.68039e-05 -4.67382e-05 0.104532)
(1.06655e-06 8.58218e-07 0.104855)
(-9.43973e-07 9.16898e-07 0.104855)
(9.53996e-07 8.64222e-07 0.104855)
(-8.97776e-07 8.86996e-07 0.104855)
(-4.44222e-05 4.45615e-05 0.104512)
(4.66996e-05 -4.67011e-05 0.104532)
(8.67623e-07 9.78451e-07 0.104855)
(8.50296e-07 -9.50437e-07 0.104855)
(8.25452e-07 8.61245e-07 0.104855)
(9.03538e-07 -8.91151e-07 0.104855)
(-7.85052e-07 -9.92668e-07 0.104855)
(-6.89183e-07 9.23942e-07 0.104855)
(-7.83665e-07 -8.82131e-07 0.104855)
(4.44942e-05 -4.44666e-05 0.104512)
(-4.67791e-05 4.67346e-05 0.104532)
(-8.86054e-07 -8.70976e-07 0.104855)
(9.05195e-07 -8.49343e-07 0.104855)
(-7.67846e-07 -8.51322e-07 0.104855)
(4.693e-05 4.69026e-05 0.104532)
(4.43856e-05 4.44227e-05 0.104511)
(-4.67643e-05 -4.66578e-05 0.104531)
(9.86345e-07 8.24596e-07 0.104855)
(-9.61685e-07 8.06026e-07 0.104855)
(8.38988e-07 7.88097e-07 0.104855)
(-8.88432e-07 7.54866e-07 0.104855)
(-4.44284e-05 4.43261e-05 0.104512)
(4.66573e-05 -4.67631e-05 0.104532)
(7.22072e-07 8.76575e-07 0.104855)
(7.97521e-07 -9.72432e-07 0.104855)
(6.81917e-07 8.20384e-07 0.104855)
(7.27083e-07 -8.47999e-07 0.104855)
(-7.24293e-07 -8.71649e-07 0.104855)
(-7.69442e-07 8.68784e-07 0.104855)
(-9.1847e-07 -9.5616e-07 0.104855)
(4.43382e-05 -4.44808e-05 0.104512)
(-4.67485e-05 4.67223e-05 0.104533)
(-7.96175e-07 -7.88268e-07 0.104856)
(7.33842e-07 -7.91823e-07 0.104855)
(-9.44321e-07 -9.01479e-07 0.104855)
(4.67191e-05 4.67156e-05 0.104532)
(4.41319e-05 4.42095e-05 0.104511)
(-4.66214e-05 -4.6443e-05 0.104532)
(9.00883e-07 7.73544e-07 0.104855)
(-9.42149e-07 7.06733e-07 0.104855)
(7.8727e-07 8.71568e-07 0.104855)
(-9.67991e-07 8.18947e-07 0.104855)
(-4.41764e-05 4.40443e-05 0.104511)
(4.63302e-05 -4.6417e-05 0.104532)
(6.47837e-07 9.10337e-07 0.104855)
(6.70606e-07 -8.8164e-07 0.104856)
(6.89977e-07 8.99878e-07 0.104855)
(7.82746e-07 -9.03836e-07 0.104855)
(-8.64025e-07 -9.97503e-07 0.104855)
(-8.85144e-07 8.96638e-07 0.104855)
(-9.14656e-07 -9.07347e-07 0.104855)
(4.41058e-05 -4.41739e-05 0.104512)
(-4.65835e-05 4.66093e-05 0.104533)
(-9.93862e-07 -8.12547e-07 0.104856)
(7.72844e-07 -7.42361e-07 0.104855)
(-9.51442e-07 -8.5062e-07 0.104855)
(4.64709e-05 4.66021e-05 0.104532)
(4.39228e-05 4.40656e-05 0.104512)
(-4.63573e-05 -4.62549e-05 0.104533)
(8.26028e-07 8.08175e-07 0.104855)
(-1.0273e-06 7.3412e-07 0.104855)
(7.92149e-07 8.10945e-07 0.104855)
(-9.72087e-07 7.96631e-07 0.104855)
(-4.41735e-05 4.39991e-05 0.104511)
(4.61926e-05 -4.63131e-05 0.104532)
(6.15474e-07 9.60952e-07 0.104856)
(7.11812e-07 -1.00714e-06 0.104856)
(7.04986e-07 8.63594e-07 0.104855)
(7.66254e-07 -1.05283e-06 0.104855)
(-8.11698e-07 -9.0205e-07 0.104856)
(-8.89757e-07 8.02776e-07 0.104855)
(-8.95992e-07 -8.63935e-07 0.104855)
(4.40485e-05 -4.41229e-05 0.104513)
(-4.6365e-05 4.63617e-05 0.104533)
(-9.26414e-07 -7.6135e-07 0.104856)
(8.92817e-07 -8.0412e-07 0.104855)
(-8.60287e-07 -7.90227e-07 0.104855)
(4.62143e-05 4.64418e-05 0.104532)
(4.38906e-05 4.38995e-05 0.104512)
(-4.62576e-05 -4.63334e-05 0.104533)
(8.96502e-07 7.89334e-07 0.104856)
(-1.02359e-06 7.69302e-07 0.104856)
(9.11733e-07 7.24694e-07 0.104855)
(-9.16324e-07 7.79336e-07 0.104855)
(-4.39871e-05 4.38507e-05 0.104512)
(4.62633e-05 -4.62659e-05 0.104533)
(7.21715e-07 9.32918e-07 0.104856)
(7.10834e-07 -1.03564e-06 0.104856)
(7.7515e-07 8.02878e-07 0.104855)
(7.89927e-07 -9.24728e-07 0.104855)
(-8.68477e-07 -9.16872e-07 0.104856)
(-7.8983e-07 8.15744e-07 0.104855)
(-9.33493e-07 -9.8164e-07 0.104855)
(4.40201e-05 -4.4082e-05 0.104513)
(-4.62427e-05 4.63099e-05 0.104534)
(-8.91398e-07 -7.15556e-07 0.104856)
(8.97567e-07 -7.55726e-07 0.104855)
(-9.34914e-07 -8.49343e-07 0.104855)
(4.609e-05 4.61367e-05 0.104533)
(4.38796e-05 4.37071e-05 0.104512)
(-4.60518e-05 -4.62973e-05 0.104533)
(9.85623e-07 6.67974e-07 0.104856)
(-9.64892e-07 6.66439e-07 0.104856)
(9.95115e-07 6.90066e-07 0.104855)
(-8.77042e-07 8.32373e-07 0.104855)
(-4.38163e-05 4.37579e-05 0.104512)
(4.62439e-05 -4.61444e-05 0.104534)
(7.70488e-07 8.55929e-07 0.104856)
(7.17209e-07 -9.60844e-07 0.104856)
(8.86234e-07 8.4734e-07 0.104855)
(9.82321e-07 -1.00218e-06 0.104855)
(-8.15609e-07 -1.01042e-06 0.104856)
(-7.91904e-07 8.27647e-07 0.104855)
(-8.03294e-07 -1.03954e-06 0.104855)
(4.38579e-05 -4.38635e-05 0.104512)
(-4.60035e-05 4.61374e-05 0.104534)
(-9.42465e-07 -7.66567e-07 0.104856)
(9.47919e-07 -8.63246e-07 0.104855)
(-8.26105e-07 -9.57646e-07 0.104855)
(4.62928e-05 4.60633e-05 0.104533)
(4.38617e-05 4.3623e-05 0.104511)
(-4.57123e-05 -4.56001e-05 0.104534)
(9.63837e-07 4.9662e-07 0.104856)
(-8.27302e-07 6.83652e-07 0.104856)
(1.04744e-06 1.06612e-06 0.104855)
(-7.88016e-07 1.11945e-06 0.104855)
(-4.36604e-05 4.37552e-05 0.104512)
(4.60106e-05 -4.57182e-05 0.104534)
(7.17055e-07 8.31821e-07 0.104856)
(8.15808e-07 -1.00392e-06 0.104856)
(1.04659e-06 8.98635e-07 0.104855)
(1.13043e-06 -9.73033e-07 0.104855)
(-5.48e-07 -9.59748e-07 0.104856)
(-8.06931e-07 8.98625e-07 0.104855)
(-9.02434e-07 -9.80847e-07 0.104855)
(4.39008e-05 -4.38204e-05 0.104512)
(-4.54979e-05 4.58259e-05 0.104534)
(-7.3255e-07 -7.69059e-07 0.104856)
(1.04595e-06 -9.26264e-07 0.104855)
(-8.46438e-07 -1.10774e-06 0.104855)
(4.59076e-05 4.57718e-05 0.104533)
(4.32475e-05 4.33368e-05 0.104511)
(-4.43492e-05 -4.45018e-05 0.104534)
(1.00179e-06 6.16195e-07 0.104856)
(-7.71285e-07 6.50522e-07 0.104856)
(8.99986e-07 1.23977e-06 0.104855)
(-8.60394e-07 1.30991e-06 0.104855)
(-4.30926e-05 4.33185e-05 0.104512)
(4.45661e-05 -4.4482e-05 0.104534)
(5.96616e-07 8.6204e-07 0.104856)
(6.27501e-07 -8.40456e-07 0.104856)
(1.3182e-06 8.5749e-07 0.104855)
(1.37356e-06 -9.15974e-07 0.104855)
(-3.96301e-07 -8.25527e-07 0.104856)
(-1.21344e-06 8.56557e-07 0.104856)
(-1.25032e-06 -9.01686e-07 0.104855)
(4.33944e-05 -4.31352e-05 0.104512)
(-4.44058e-05 4.45513e-05 0.104534)
(-7.28944e-07 -5.55044e-07 0.104856)
(9.46348e-07 -1.19171e-06 0.104855)
(-8.08944e-07 -1.27748e-06 0.104855)
(4.456e-05 4.45518e-05 0.104534)
(4.17048e-05 4.15159e-05 0.104511)
(-4.13554e-05 -4.14245e-05 0.104533)
(8.05438e-07 2.53092e-07 0.104856)
(-8.29668e-07 2.51747e-07 0.104856)
(7.92837e-07 1.66654e-06 0.104856)
(-7.86864e-07 1.69911e-06 0.104856)
(-4.16705e-05 4.16972e-05 0.104512)
(4.1505e-05 -4.13767e-05 0.104533)
(3.21519e-07 7.81624e-07 0.104856)
(3.99883e-07 -9.14598e-07 0.104855)
(1.76196e-06 7.10394e-07 0.104856)
(1.81428e-06 -8.26667e-07 0.104856)
(-2.84656e-07 -8.00501e-07 0.104856)
(-1.65051e-06 6.58812e-07 0.104856)
(-1.76582e-06 -9.50406e-07 0.104856)
(4.17377e-05 -4.17139e-05 0.104511)
(-4.13815e-05 4.14164e-05 0.104533)
(-7.00197e-07 -2.54975e-07 0.104856)
(7.92497e-07 -1.73263e-06 0.104856)
(-8.37593e-07 -1.86761e-06 0.104856)
(4.13407e-05 4.12324e-05 0.104533)
(3.82023e-05 3.81384e-05 0.104512)
(-3.42764e-05 -3.4061e-05 0.104531)
(1.02518e-06 -1.0153e-07 0.104855)
(-1.0074e-06 -9.42927e-08 0.104855)
(4.65472e-07 2.50471e-06 0.104858)
(-5.57471e-07 2.50878e-06 0.104858)
(-3.81649e-05 3.82335e-05 0.104513)
(3.40111e-05 -3.44069e-05 0.104532)
(-2.7229e-08 9.28768e-07 0.104855)
(-7.54589e-08 -9.95542e-07 0.104855)
(2.45983e-06 4.06059e-07 0.104858)
(2.53745e-06 -5.03266e-07 0.104858)
(1.45022e-07 -1.08388e-06 0.104855)
(-2.68712e-06 3.7215e-07 0.104858)
(-2.49861e-06 -4.27906e-07 0.104858)
(3.81902e-05 -3.82291e-05 0.104513)
(-3.43001e-05 3.41783e-05 0.104531)
(-9.79207e-07 -1.67794e-08 0.104855)
(3.87093e-07 -2.57297e-06 0.104858)
(-4.24619e-07 -2.58577e-06 0.104858)
(3.4269e-05 3.42055e-05 0.104531)
(2.98935e-05 3.00684e-05 0.104517)
(-2.10009e-05 -2.08539e-05 0.104524)
(1.41019e-06 -9.82975e-07 0.104854)
(-1.51451e-06 -9.83146e-07 0.104854)
(-1.6183e-06 2.38344e-06 0.10486)
(1.5529e-06 2.35447e-06 0.104861)
(-3.02188e-05 2.98021e-05 0.104517)
(2.08901e-05 -2.09599e-05 0.104525)
(-1.06948e-06 1.3706e-06 0.104854)
(-9.77647e-07 -1.46962e-06 0.104854)
(2.21415e-06 -1.56208e-06 0.10486)
(2.37754e-06 1.5028e-06 0.10486)
(9.97199e-07 -1.28477e-06 0.104854)
(-2.39861e-06 -1.58077e-06 0.104861)
(-2.48603e-06 1.56122e-06 0.104861)
(2.99656e-05 -3.00819e-05 0.104517)
(-2.09152e-05 2.07594e-05 0.104524)
(-1.30346e-06 9.90133e-07 0.104854)
(-1.58276e-06 -2.44428e-06 0.104861)
(1.45824e-06 -2.29601e-06 0.104861)
(2.07259e-05 2.09109e-05 0.104524)
(1.0724e-05 1.0893e-05 0.104528)
(-4.00223e-05 -3.97908e-05 0.104492)
(1.31111e-07 -7.21269e-06 0.104849)
(-1.60859e-07 -7.24972e-06 0.104849)
(-3.23174e-05 -4.58011e-05 0.104837)
(3.22489e-05 -4.58485e-05 0.104837)
(-1.07963e-05 1.0819e-05 0.104529)
(4.00137e-05 -3.97424e-05 0.104492)
(-7.40767e-06 2.05695e-07 0.104849)
(-7.32388e-06 -2.01703e-07 0.104849)
(-4.61374e-05 -3.21072e-05 0.104837)
(-4.60989e-05 3.24467e-05 0.104837)
(7.23531e-06 -3.74985e-08 0.104849)
(4.6044e-05 -3.21485e-05 0.104838)
(4.60023e-05 3.24325e-05 0.104838)
(1.08306e-05 -1.09473e-05 0.104528)
(-4.01488e-05 4.0123e-05 0.104492)
(-1.30216e-07 7.4193e-06 0.104849)
(-3.24287e-05 4.61043e-05 0.104838)
(3.22905e-05 4.611e-05 0.104838)
(4.00502e-05 4.01206e-05 0.104492)
(-4.73333e-05 -4.70863e-05 0.104525)
(-3.33631e-05 -5.40757e-05 0.10482)
(3.32808e-05 -5.40776e-05 0.10482)
(4.72778e-05 -4.70027e-05 0.104525)
(-5.44233e-05 -3.31471e-05 0.10482)
(-5.43658e-05 3.34684e-05 0.10482)
(4.78207e-05 -4.76533e-05 0.105058)
(-4.78878e-05 4.79842e-05 0.105058)
(4.78405e-05 4.79823e-05 0.105058)
(5.43102e-05 3.34523e-05 0.10482)
(-4.74076e-05 4.74264e-05 0.104525)
(3.33191e-05 5.44123e-05 0.10482)
(5.522e-07 -1.82762e-05 0.0989776)
(-1.05695e-06 -1.40908e-05 0.0885869)
(4.0406e-06 -7.3997e-06 0.0758101)
(-1.84788e-05 4.31586e-07 0.0989826)
(-1.43175e-05 -1.44985e-06 0.088588)
(-5.68757e-07 -6.198e-07 0.105112)
(6.99714e-07 -6.60499e-07 0.105112)
(-6.52888e-07 7.69047e-07 0.105112)
(7.45379e-07 7.67223e-07 0.105112)
(2.28182e-05 4.41632e-07 0.103337)
(-7.34576e-07 1.06856e-06 0.104855)
(1.93155e-05 -9.51476e-06 0.0997685)
(-7.68629e-07 3.78048e-08 0.105018)
(-6.68314e-06 3.91024e-06 0.0758462)
(4.74279e-07 2.28868e-05 0.103338)
(1.02262e-06 -6.18654e-07 0.104856)
(-3.18302e-09 -6.71936e-07 0.105018)
(-1.00065e-05 1.96736e-05 0.0997693)
(4.68679e-05 4.69676e-05 0.104532)
(6.8355e-06 9.14141e-06 0.0947151)
(8.94828e-06 6.91353e-06 0.0947089)
(3.99809e-07 -1.8495e-05 0.098977)
(8.85823e-07 1.46628e-05 0.0885279)
(-3.10237e-07 1.79216e-05 0.0989213)
(-1.18553e-06 -1.43625e-05 0.0885865)
(-4.0349e-06 7.13837e-06 0.0757482)
(3.95432e-06 -7.39536e-06 0.0758114)
(-1.81643e-05 1.329e-07 0.0989787)
(1.45891e-05 4.26809e-07 0.0885284)
(1.83207e-05 -4.88403e-07 0.0989266)
(-1.45332e-05 -1.3871e-06 0.0885872)
(7.02905e-07 -6.23944e-07 0.105112)
(-6.45896e-07 7.27663e-07 0.105112)
(7.36223e-07 7.42702e-07 0.105112)
(-6.27126e-07 -6.48064e-07 0.105112)
(8.154e-07 -5.97082e-07 0.105112)
(-6.72363e-07 6.26292e-07 0.105112)
(8.19756e-07 6.86057e-07 0.105112)
(2.24569e-05 2.0151e-07 0.103339)
(-2.05323e-05 9.48327e-06 0.0996944)
(-6.23448e-07 8.58294e-09 0.105019)
(-7.35198e-07 9.50815e-07 0.104856)
(-2.29569e-05 -5.04385e-07 0.10331)
(1.91103e-05 -9.37325e-06 0.0997678)
(-6.50541e-07 -2.89132e-08 0.105019)
(8.07213e-06 -3.81567e-06 0.0757702)
(-6.04259e-06 3.82815e-06 0.07583)
(4.24104e-07 2.23632e-05 0.103337)
(-3.15758e-08 -6.6308e-07 0.105019)
(9.19907e-06 -2.02256e-05 0.099697)
(8.4591e-07 -7.4886e-07 0.104856)
(-3.24721e-07 -2.27546e-05 0.103309)
(3.04741e-10 -7.28281e-07 0.105019)
(-1.02861e-05 1.94029e-05 0.0997687)
(-6.97782e-06 -9.32196e-06 0.0946434)
(-9.43924e-06 -7.06437e-06 0.0946377)
(4.6875e-05 4.67995e-05 0.104533)
(6.18859e-06 8.91063e-06 0.0947157)
(8.98036e-06 6.13244e-06 0.0947099)
(1.82143e-07 -1.80223e-05 0.0989764)
(2.75773e-07 1.4616e-05 0.0885285)
(-5.56465e-07 1.81003e-05 0.0989207)
(-1.3004e-06 -1.42611e-05 0.0885863)
(-3.80112e-06 7.49657e-06 0.0757485)
(4.43336e-06 -7.16395e-06 0.0758121)
(-1.79766e-05 2.40394e-07 0.0989766)
(1.46555e-05 4.09596e-07 0.0885287)
(1.84686e-05 -4.02843e-07 0.0989234)
(-1.44093e-05 -9.98758e-07 0.0885875)
(8.82389e-07 -6.35233e-07 0.105112)
(-7.37076e-07 6.71147e-07 0.105112)
(8.59089e-07 6.90715e-07 0.105112)
(-7.33224e-07 -6.97408e-07 0.105112)
(7.67789e-07 -6.7778e-07 0.105111)
(-8.01653e-07 6.32484e-07 0.105112)
(7.87481e-07 6.33208e-07 0.105111)
(2.28072e-05 4.18116e-07 0.103339)
(-2.0208e-05 9.56083e-06 0.0996941)
(-5.35959e-07 -9.66867e-08 0.105019)
(-5.6232e-07 8.38241e-07 0.104855)
(-2.24174e-05 -5.66887e-07 0.10331)
(1.9383e-05 -1.01501e-05 0.0997685)
(-5.20653e-07 -1.22459e-07 0.105018)
(8.27799e-06 -3.85184e-06 0.0757499)
(-7.12721e-06 4.33437e-06 0.0758145)
(3.88259e-07 2.23797e-05 0.103337)
(-3.23573e-08 -8.02906e-07 0.105019)
(9.14853e-06 -2.04297e-05 0.0996971)
(7.21284e-07 -8.32511e-07 0.104856)
(-3.87897e-07 -2.27851e-05 0.103308)
(-8.3333e-08 -7.82667e-07 0.105019)
(-1.01978e-05 1.92907e-05 0.0997687)
(-7.26529e-06 -9.27101e-06 0.0946433)
(-8.63949e-06 -6.68296e-06 0.0946386)
(4.71758e-05 4.7046e-05 0.104532)
(6.28623e-06 9.06369e-06 0.0947148)
(9.66056e-06 6.51919e-06 0.0947116)
(1.21748e-07 -1.82733e-05 0.0989763)
(2.34706e-07 1.42805e-05 0.0885286)
(-5.79186e-07 1.79612e-05 0.0989201)
(-1.51169e-06 -1.4607e-05 0.0885873)
(-3.68638e-06 7.18925e-06 0.0757516)
(4.165e-06 -7.40939e-06 0.075816)
(-1.85976e-05 5.67291e-07 0.0989757)
(1.4415e-05 8.96724e-07 0.0885283)
(1.79616e-05 -2.22047e-07 0.0989219)
(-1.42558e-05 -8.17609e-07 0.0885878)
(7.32442e-07 -6.74664e-07 0.105111)
(-8.02037e-07 6.47264e-07 0.105111)
(7.33301e-07 6.06369e-07 0.105111)
(-7.05526e-07 -7.34215e-07 0.105111)
(6.47516e-07 -7.14718e-07 0.105111)
(-7.32456e-07 6.78332e-07 0.105111)
(6.21612e-07 6.09096e-07 0.105111)
(2.24339e-05 3.18267e-07 0.103339)
(-2.01458e-05 8.99251e-06 0.0996951)
(-6.19972e-07 -7.07492e-08 0.105018)
(-7.51429e-07 8.19921e-07 0.104855)
(-2.27002e-05 -3.58193e-07 0.103311)
(1.93053e-05 -9.64633e-06 0.0997689)
(-7.0352e-07 -1.42861e-07 0.105018)
(7.79314e-06 -4.21755e-06 0.0757433)
(-7.33724e-06 4.01576e-06 0.0758092)
(1.32551e-07 2.23327e-05 0.103337)
(-1.32991e-07 -7.54115e-07 0.105019)
(9.26851e-06 -2.0534e-05 0.0996961)
(8.01396e-07 -8.87695e-07 0.104855)
(-4.86921e-07 -2.29557e-05 0.103308)
(-1.5966e-07 -7.75102e-07 0.105019)
(-9.95317e-06 1.92343e-05 0.0997673)
(-6.87179e-06 -9.50356e-06 0.0946413)
(-9.29339e-06 -6.97055e-06 0.0946402)
(4.68489e-05 4.69307e-05 0.104532)
(6.48228e-06 8.84537e-06 0.0947129)
(9.07108e-06 6.49837e-06 0.0947115)
(3.44082e-07 -1.85625e-05 0.0989767)
(3.46264e-07 1.42453e-05 0.0885299)
(-6.7374e-07 1.78398e-05 0.0989202)
(-1.11426e-06 -1.43895e-05 0.0885885)
(-3.87863e-06 6.79502e-06 0.0757564)
(3.88639e-06 -7.52012e-06 0.0758211)
(-1.8298e-05 2.38253e-07 0.0989749)
(1.48795e-05 -6.17974e-08 0.0885288)
(1.80545e-05 -1.72734e-07 0.0989212)
(-1.4305e-05 -1.73903e-06 0.0885879)
(6.44982e-07 -7.21086e-07 0.105111)
(-7.08101e-07 7.29153e-07 0.105111)
(6.31009e-07 6.51801e-07 0.105111)
(-7.30259e-07 -7.39082e-07 0.105111)
(5.80506e-07 -7.14807e-07 0.105111)
(-6.9979e-07 7.19002e-07 0.105111)
(6.91478e-07 6.80002e-07 0.105111)
(2.25838e-05 2.74986e-07 0.103339)
(-2.02393e-05 9.26338e-06 0.0996946)
(-8.00213e-07 -1.80502e-07 0.105018)
(-8.32519e-07 7.75262e-07 0.104855)
(-2.28816e-05 -4.98247e-07 0.103311)
(1.93057e-05 -1.00728e-05 0.0997676)
(-8.43286e-07 -1.75607e-07 0.105018)
(7.2959e-06 -4.37765e-06 0.0757417)
(-7.39828e-06 3.90681e-06 0.0758094)
(1.69382e-07 2.27401e-05 0.103338)
(-1.79149e-07 -6.28628e-07 0.105018)
(9.84522e-06 -2.03062e-05 0.0996947)
(8.31653e-07 -7.07477e-07 0.104855)
(-6.00861e-07 -2.25962e-05 0.103309)
(-1.8934e-07 -6.05978e-07 0.105018)
(-9.7162e-06 1.95045e-05 0.0997669)
(-7.17374e-06 -8.94448e-06 0.094638)
(-9.41242e-06 -7.13914e-06 0.0946393)
(4.67067e-05 4.69377e-05 0.104533)
(6.74622e-06 9.35957e-06 0.0947103)
(8.94799e-06 6.56906e-06 0.0947096)
(3.8061e-07 -1.83495e-05 0.0989773)
(2.26103e-07 1.46052e-05 0.0885317)
(-3.38629e-07 1.77677e-05 0.0989208)
(-1.75176e-06 -1.44124e-05 0.0885903)
(-4.50968e-06 7.34071e-06 0.0757562)
(3.97785e-06 -7.88331e-06 0.0758187)
(-1.83785e-05 1.35795e-07 0.0989754)
(1.47481e-05 5.14999e-07 0.0885282)
(1.8013e-05 -3.93825e-07 0.0989212)
(-1.41445e-05 -9.00371e-07 0.0885876)
(5.85314e-07 -7.02287e-07 0.105111)
(-7.01226e-07 7.24776e-07 0.105111)
(7.14745e-07 6.78546e-07 0.105111)
(-7.83666e-07 -6.86426e-07 0.105111)
(6.06802e-07 -6.55039e-07 0.105111)
(-7.39334e-07 6.97959e-07 0.105111)
(6.96787e-07 7.34556e-07 0.105111)
(2.25744e-05 4.34986e-07 0.103338)
(-2.05206e-05 9.42957e-06 0.0996926)
(-8.23796e-07 -4.45564e-08 0.105018)
(-8.49905e-07 7.71704e-07 0.104855)
(-2.27834e-05 -3.07911e-07 0.10331)
(1.89899e-05 -9.51578e-06 0.099766)
(-8.52905e-07 -6.85114e-08 0.105018)
(6.84917e-06 -3.84501e-06 0.0757458)
(-7.70782e-06 4.19373e-06 0.0758167)
(3.49079e-07 2.25443e-05 0.103338)
(-1.54078e-07 -6.62194e-07 0.105018)
(9.57574e-06 -2.03314e-05 0.0996953)
(8.07374e-07 -7.3579e-07 0.104855)
(-4.13002e-07 -2.23823e-05 0.103309)
(-1.69159e-07 -6.9972e-07 0.105018)
(-9.74942e-06 1.91802e-05 0.0997666)
(-6.9527e-06 -9.88939e-06 0.0946386)
(-9.91523e-06 -6.62416e-06 0.0946376)
(4.68207e-05 4.68161e-05 0.104532)
(6.56631e-06 8.313e-06 0.0947103)
(8.50971e-06 6.48789e-06 0.0947094)
(3.95302e-07 -1.82551e-05 0.0989769)
(7.25914e-07 1.45373e-05 0.0885325)
(-5.11128e-07 1.79396e-05 0.098921)
(-1.18409e-06 -1.44517e-05 0.0885913)
(-3.83052e-06 7.15042e-06 0.0757619)
(4.27539e-06 -6.89822e-06 0.0758229)
(-1.86316e-05 3.17686e-07 0.0989755)
(1.41847e-05 8.50112e-07 0.0885293)
(1.80535e-05 -5.17953e-07 0.0989217)
(-1.48119e-05 -1.15846e-06 0.0885897)
(6.20382e-07 -6.53168e-07 0.105111)
(-7.72604e-07 7.43821e-07 0.105111)
(6.93455e-07 7.51789e-07 0.105111)
(-7.01165e-07 -6.27287e-07 0.105111)
(6.32006e-07 -6.75675e-07 0.105111)
(-7.42122e-07 7.17627e-07 0.105111)
(7.25307e-07 7.43693e-07 0.105111)
(2.23767e-05 4.24676e-07 0.103336)
(-2.03569e-05 9.15217e-06 0.0996928)
(-8.12894e-07 -1.03154e-07 0.105018)
(-7.79796e-07 6.88133e-07 0.104855)
(-2.27172e-05 -4.87312e-07 0.103308)
(1.92597e-05 -1.03214e-05 0.0997667)
(-8.62538e-07 -1.26027e-07 0.105018)
(7.16311e-06 -3.91499e-06 0.0757502)
(-7.33005e-06 4.25196e-06 0.0758192)
(1.93088e-07 2.2486e-05 0.103337)
(-1.68183e-07 -6.75562e-07 0.105018)
(9.63285e-06 -2.0486e-05 0.0996936)
(6.68921e-07 -7.25153e-07 0.104855)
(-4.97853e-07 -2.26414e-05 0.103308)
(-1.75893e-07 -6.7618e-07 0.105018)
(-1.01281e-05 1.92864e-05 0.0997649)
(-6.88128e-06 -9.05335e-06 0.0946396)
(-9.31164e-06 -6.95536e-06 0.0946395)
(4.68513e-05 4.70102e-05 0.104532)
(6.2485e-06 9.14436e-06 0.0947127)
(8.98669e-06 6.25331e-06 0.0947116)
(3.99518e-07 -1.83304e-05 0.0989763)
(6.90056e-08 1.45544e-05 0.0885335)
(-2.82227e-07 1.79406e-05 0.0989206)
(-1.09516e-06 -1.44646e-05 0.0885914)
(-3.90448e-06 7.46437e-06 0.0757575)
(4.02712e-06 -7.22465e-06 0.0758194)
(-1.86675e-05 2.2177e-07 0.0989755)
(1.4044e-05 9.12937e-08 0.0885335)
(1.78314e-05 -3.19643e-07 0.0989217)
(-1.47262e-05 -1.58709e-06 0.0885935)
(6.5182e-07 -6.17136e-07 0.105111)
(-7.12831e-07 7.43729e-07 0.105111)
(7.49944e-07 7.50628e-07 0.105111)
(-5.70734e-07 -5.75067e-07 0.105111)
(6.8064e-07 -5.26985e-07 0.105111)
(-5.84425e-07 6.26746e-07 0.105111)
(7.7168e-07 6.76484e-07 0.105111)
(2.24822e-05 5.51577e-07 0.103335)
(-2.02222e-05 9.06521e-06 0.0996929)
(-7.8774e-07 2.7004e-09 0.105018)
(-8.23937e-07 9.67881e-07 0.104855)
(-2.28006e-05 -3.69681e-07 0.103307)
(1.93856e-05 -9.88085e-06 0.0997665)
(-7.78405e-07 -9.89118e-09 0.105018)
(7.23257e-06 -3.52644e-06 0.0757528)
(-7.16137e-06 4.42324e-06 0.0758216)
(5.35128e-07 2.24745e-05 0.103336)
(-1.09882e-07 -6.91022e-07 0.105018)
(9.07099e-06 -2.03376e-05 0.0996928)
(8.62644e-07 -7.68434e-07 0.104855)
(-3.80032e-07 -2.26263e-05 0.103308)
(-6.79768e-08 -7.40594e-07 0.105018)
(-1.02712e-05 1.94905e-05 0.0997643)