/*--------------------------------*- C++ -*----------------------------------*\
| =========                 |                                                 |
| \\      /  F ield         | OpenFOAM: The Open Source CFD Toolbox           |
|  \\    /   O peration     | Version:  v1906                                 |
|   \\  /    A nd           | Web:      www.OpenFOAM.com                      |
|    \\/     M anipulation  |                                                 |
\*---------------------------------------------------------------------------*/
FoamFile
{
    version     2.0;
    format      ascii;
    class       volScalarField;
    location    "500";
    object      epsilon;
}
// * * * * * * * * * * * * * * * * * * * * * * * * * * * * * * * * * * * * * //

dimensions      [0 2 -3 0 0 0 0];


internalField   nonuniform List<scalar> 
42840
(
6.51812e-07
1.18283e-06
1.18288e-06
1.41517e-06
1.41809e-06
1.41515e-06
1.41585e-06
1.18288e-06
1.18292e-06
1.18521e-06
1.18525e-06
1.41508e-06
1.41584e-06
1.18279e-06
1.18292e-06
1.18512e-06
1.18525e-06
1.18294e-06
1.18515e-06
1.18526e-06
1.41514e-06
1.4159e-06
1.18284e-06
1.18521e-06
1.18517e-06
1.41588e-06
1.18599e-06
1.18589e-06
4.23629e-06
9.54908e-06
9.55423e-06
4.23571e-06
1.90609e-05
1.90714e-05
4.23643e-06
9.55127e-06
9.55604e-06
4.23578e-06
6.51829e-07
6.51916e-07
6.51906e-07
6.56471e-07
6.56488e-07
6.56574e-07
6.56565e-07
2.29399e-06
3.64444e-06
9.29834e-07
1.18363e-06
3.64488e-06
9.30941e-07
2.29372e-06
1.90618e-05
1.90724e-05
2.29395e-06
9.29879e-07
3.64445e-06
1.18368e-06
9.30986e-07
3.64494e-06
2.29368e-06
5.64513e-06
5.64709e-06
1.41443e-06
5.64624e-06
5.64817e-06
5.64952e-06
5.65146e-06
1.90593e-05
1.90698e-05
1.90617e-05
1.90722e-05
5.64504e-06
5.64694e-06
1.41441e-06
5.64617e-06
5.64802e-06
1.90808e-05
1.90705e-05
1.90832e-05
1.90729e-05
1.41667e-06
5.64834e-06
5.65021e-06
5.64726e-06
5.64916e-06
4.2364e-06
9.55044e-06
9.55524e-06
4.23581e-06
2.29391e-06
3.64422e-06
9.29756e-07
1.18369e-06
3.64472e-06
9.30866e-07
2.29359e-06
2.29398e-06
3.64476e-06
9.298e-07
1.18373e-06
3.64524e-06
9.30909e-07
2.29365e-06
4.23704e-06
9.55999e-06
9.55495e-06
4.23758e-06
4.23714e-06
9.5611e-06
9.5563e-06
4.2377e-06
2.29443e-06
1.18448e-06
3.64598e-06
9.32979e-07
3.64553e-06
9.31954e-07
2.2947e-06
2.2945e-06
1.18451e-06
3.6465e-06
9.33023e-07
3.64607e-06
9.31998e-07
2.29476e-06
5.64686e-06
5.6452e-06
1.4144e-06
5.64792e-06
5.64615e-06
1.90586e-05
1.90691e-05
1.90824e-05
1.90721e-05
1.41659e-06
5.6501e-06
5.64832e-06
5.64908e-06
5.64742e-06
1.90802e-05
1.90698e-05
2.29402e-06
3.64498e-06
9.29816e-07
1.18359e-06
3.64542e-06
9.30944e-07
2.29372e-06
4.23633e-06
9.55046e-06
9.55563e-06
4.23571e-06
2.29394e-06
9.29839e-07
3.64482e-06
1.18373e-06
9.30947e-07
3.64526e-06
2.29367e-06
4.23713e-06
9.56183e-06
9.55714e-06
4.23772e-06
2.29458e-06
1.18439e-06
3.64668e-06
9.33056e-07
3.64629e-06
9.32012e-07
2.29481e-06
4.23705e-06
9.56141e-06
9.55634e-06
4.23763e-06
2.29451e-06
1.18452e-06
9.3306e-07
3.64652e-06
9.32035e-07
3.64613e-06
2.29473e-06
4.23644e-06
9.55044e-06
9.55521e-06
4.23587e-06
2.29394e-06
9.29843e-07
3.64431e-06
1.18374e-06
9.30948e-07
3.6448e-06
2.29361e-06
4.23635e-06
9.55013e-06
9.5553e-06
4.23576e-06
2.29456e-06
1.18442e-06
3.64613e-06
9.33052e-07
3.64574e-06
9.32029e-07
2.29477e-06
4.23721e-06
9.56106e-06
9.55629e-06
4.23773e-06
2.29446e-06
1.18453e-06
9.33058e-07
3.64606e-06
9.32039e-07
3.64562e-06
2.29472e-06
4.2371e-06
9.56108e-06
9.556e-06
4.23763e-06
5.64698e-06
5.64521e-06
1.41446e-06
5.64795e-06
5.64629e-06
1.90606e-05
1.90711e-05
1.90835e-05
1.9073e-05
1.41665e-06
5.65013e-06
5.64848e-06
5.64921e-06
5.64742e-06
1.90821e-05
1.90718e-05
2.29399e-06
9.29886e-07
3.64495e-06
1.18365e-06
9.30991e-07
3.64542e-06
2.29371e-06
4.23636e-06
9.55065e-06
9.55543e-06
4.23579e-06
4.2364e-06
9.55135e-06
9.55614e-06
4.23577e-06
2.29453e-06
1.18447e-06
9.33097e-07
3.6462e-06
9.32074e-07
3.64576e-06
2.29473e-06
2.29456e-06
1.18444e-06
9.33103e-07
3.64669e-06
9.32081e-07
3.64626e-06
2.29477e-06
4.23712e-06
9.56129e-06
9.5565e-06
4.23765e-06
4.23711e-06
9.56193e-06
9.55722e-06
4.23769e-06
1.90604e-05
1.90709e-05
1.90623e-05
1.90728e-05
1.41669e-06
5.64841e-06
5.65035e-06
5.64736e-06
5.6493e-06
1.9082e-05
1.90716e-05
1.90838e-05
1.90735e-05
9.3407e-07
3.64685e-06
2.29521e-06
9.56175e-06
4.23837e-06
3.64749e-06
9.56299e-06
1.90826e-05
1.90845e-05
1.26402e-05
1.12327e-05
4.88159e-06
4.23639e-06
1.12305e-05
4.88172e-06
1.26429e-05
2.2738e-05
9.55132e-06
7.23778e-06
7.23742e-06
2.27308e-05
2.27373e-05
7.23869e-06
9.55202e-06
7.23906e-06
2.27444e-05
1.2639e-05
4.23562e-06
1.1227e-05
4.88097e-06
1.12292e-05
4.88085e-06
1.26364e-05
1.90658e-05
1.90665e-05
1.26405e-05
4.8819e-06
1.12336e-05
4.23646e-06
4.88194e-06
1.12311e-05
1.26434e-05
2.27378e-05
9.55313e-06
7.23922e-06
7.23904e-06
2.27309e-05
2.27374e-05
7.24032e-06
9.5542e-06
7.24051e-06
2.27443e-05
1.26394e-05
4.23574e-06
4.88119e-06
1.12274e-05
4.88113e-06
1.12302e-05
1.26368e-05
1.90669e-05
1.90674e-05
9.95766e-06
2.23738e-05
2.2373e-05
2.23675e-05
2.23667e-05
9.95732e-06
4.70053e-06
2.97309e-06
5.64512e-06
9.91383e-06
2.97293e-06
9.91639e-06
4.70086e-06
4.70626e-06
2.97429e-06
5.64705e-06
9.91892e-06
2.97413e-06
9.92082e-06
4.70659e-06
4.70158e-06
9.91931e-06
5.64626e-06
2.97334e-06
2.97351e-06
9.9168e-06
4.70124e-06
4.70731e-06
9.92374e-06
5.6482e-06
2.97455e-06
2.97471e-06
9.92187e-06
4.70697e-06
9.95551e-06
2.23617e-05
2.23609e-05
2.2368e-05
2.23671e-05
9.95584e-06
4.70326e-06
2.97466e-06
9.9256e-06
5.64947e-06
4.70363e-06
2.97448e-06
9.92785e-06
4.70899e-06
2.97586e-06
9.93059e-06
5.65141e-06
4.70936e-06
2.97568e-06
9.93234e-06
9.96266e-06
2.23849e-05
2.23841e-05
9.96302e-06
2.23911e-05
2.23902e-05
1.90642e-05
1.90649e-05
1.90666e-05
1.90673e-05
9.9576e-06
2.23738e-05
2.23731e-05
2.23676e-05
2.23669e-05
9.95727e-06
4.70055e-06
2.9731e-06
5.64506e-06
9.91389e-06
9.91643e-06
2.97295e-06
4.70087e-06
4.70626e-06
2.97426e-06
5.6469e-06
9.91908e-06
9.92098e-06
2.9741e-06
4.70657e-06
4.70159e-06
9.91937e-06
5.64616e-06
2.97337e-06
9.91687e-06
4.70126e-06
2.97353e-06
4.70729e-06
9.92391e-06
5.64805e-06
2.97452e-06
9.92203e-06
4.70697e-06
2.97469e-06
9.95546e-06
2.23618e-05
2.2361e-05
2.2368e-05
2.23673e-05
9.95578e-06
1.9076e-05
1.90753e-05
1.90784e-05
1.90777e-05
9.95906e-06
2.23734e-05
2.23727e-05
9.9594e-06
2.23796e-05
2.23789e-05
4.70297e-06
2.97414e-06
5.64835e-06
9.92514e-06
9.92267e-06
2.97431e-06
4.70263e-06
4.70867e-06
2.97529e-06
5.65024e-06
9.92973e-06
9.9279e-06
2.97547e-06
4.70833e-06
4.70195e-06
9.91981e-06
2.97393e-06
5.64726e-06
4.70229e-06
9.92228e-06
2.97377e-06
4.70766e-06
9.925e-06
2.97509e-06
5.64913e-06
4.70799e-06
9.92689e-06
2.97491e-06
9.96118e-06
2.23854e-05
2.23846e-05
2.23792e-05
2.23784e-05
9.96084e-06
1.26404e-05
1.12332e-05
4.8819e-06
4.23648e-06
1.12303e-05
4.88196e-06
1.2643e-05
2.2738e-05
9.55235e-06
7.23932e-06
7.23913e-06
2.27311e-05
2.27375e-05
7.24041e-06
9.55339e-06
7.2406e-06
2.27445e-05
1.26391e-05
4.23573e-06
1.12268e-05
4.88122e-06
1.12297e-05
4.88115e-06
1.26365e-05
1.26469e-05
1.1234e-05
4.88245e-06
4.23694e-06
1.26439e-05
1.12363e-05
4.88232e-06
2.27501e-05
9.55782e-06
7.24121e-06
2.27571e-05
7.24159e-06
2.27508e-05
7.24033e-06
9.55711e-06
2.27437e-05
7.23996e-06
1.26476e-05
4.23769e-06
1.12397e-05
4.88303e-06
1.26508e-05
1.12375e-05
4.88316e-06
1.26468e-05
1.12338e-05
4.88269e-06
4.23706e-06
1.26443e-05
1.12368e-05
4.88262e-06
2.27503e-05
9.55916e-06
7.24292e-06
7.24313e-06
2.27572e-05
2.27509e-05
7.24188e-06
9.55819e-06
2.2744e-05
7.24167e-06
1.26482e-05
4.23779e-06
1.12402e-05
4.88334e-06
1.12373e-05
4.88341e-06
1.26506e-05
9.9572e-06
2.23724e-05
2.23732e-05
2.23661e-05
2.2367e-05
9.95687e-06
4.70609e-06
2.97418e-06
5.64681e-06
9.91864e-06
9.92053e-06
2.974e-06
4.70643e-06
4.70038e-06
2.97306e-06
5.64504e-06
9.91378e-06
2.97289e-06
9.91629e-06
4.7007e-06
4.70715e-06
9.92347e-06
5.64798e-06
2.97442e-06
9.92158e-06
2.9746e-06
4.7068e-06
4.70142e-06
9.91921e-06
5.64632e-06
2.97331e-06
2.97348e-06
9.91681e-06
4.70109e-06
9.95506e-06
2.23603e-05
2.23611e-05
2.23666e-05
2.23674e-05
9.95538e-06
1.90636e-05
1.90642e-05
1.90776e-05
1.90769e-05
9.95867e-06
2.23719e-05
2.23728e-05
9.959e-06
2.23782e-05
2.2379e-05
4.70853e-06
2.97519e-06
5.65017e-06
9.92929e-06
2.97539e-06
9.92745e-06
4.70816e-06
4.70281e-06
2.97408e-06
5.6485e-06
9.92473e-06
9.92288e-06
2.97427e-06
4.70245e-06
4.70749e-06
9.92456e-06
2.975e-06
5.64902e-06
2.97481e-06
4.70785e-06
9.92644e-06
4.70178e-06
9.91981e-06
2.97388e-06
5.64724e-06
4.70212e-06
9.92198e-06
2.9737e-06
9.96079e-06
2.23839e-05
2.23848e-05
2.23777e-05
2.23786e-05
9.96045e-06
1.90753e-05
1.90747e-05
1.26408e-05
1.12332e-05
4.88169e-06
4.23638e-06
1.1231e-05
4.88185e-06
1.26433e-05
2.27382e-05
9.5527e-06
7.23799e-06
7.23763e-06
2.27311e-05
2.27375e-05
7.23891e-06
9.55341e-06
7.23927e-06
2.27446e-05
1.26395e-05
4.23566e-06
1.12275e-05
4.8811e-06
1.12298e-05
4.88095e-06
1.26369e-05
1.26474e-05
4.88267e-06
1.12347e-05
4.23707e-06
1.26442e-05
4.88261e-06
1.1237e-05
2.27502e-05
9.56003e-06
7.24284e-06
2.2757e-05
7.24304e-06
2.27507e-05
7.24178e-06
9.55899e-06
2.27438e-05
7.24159e-06
1.26478e-05
4.23777e-06
4.88333e-06
1.12404e-05
1.26513e-05
4.88338e-06
1.12382e-05
1.26471e-05
1.12345e-05
4.88258e-06
4.23699e-06
1.26446e-05
1.12368e-05
4.88242e-06
2.27503e-05
9.55923e-06
7.24144e-06
7.2418e-06
2.27574e-05
2.2751e-05
7.24055e-06
9.55852e-06
2.27439e-05
7.24018e-06
1.26485e-05
4.23769e-06
1.12403e-05
4.88313e-06
1.1238e-05
4.88329e-06
1.2651e-05
1.26404e-05
4.88176e-06
1.12332e-05
4.23655e-06
4.88186e-06
1.1231e-05
1.26429e-05
2.27371e-05
9.55231e-06
7.23883e-06
7.23865e-06
2.27302e-05
2.27366e-05
7.23993e-06
9.55337e-06
7.24012e-06
2.27436e-05
1.2639e-05
4.23577e-06
4.88111e-06
1.12275e-05
4.88102e-06
1.12297e-05
1.26365e-05
1.26401e-05
1.12332e-05
4.88158e-06
4.23644e-06
1.12308e-05
4.88162e-06
1.26437e-05
2.27377e-05
9.55239e-06
7.23739e-06
7.2372e-06
2.27308e-05
2.27372e-05
7.23848e-06
9.55308e-06
7.23867e-06
2.27441e-05
1.26399e-05
4.23568e-06
1.1227e-05
4.88088e-06
1.12299e-05
4.88084e-06
1.26362e-05
1.26467e-05
4.88258e-06
1.12345e-05
4.23709e-06
1.26442e-05
4.88249e-06
1.12368e-05
2.27494e-05
9.55916e-06
7.24244e-06
7.24264e-06
2.27563e-05
2.275e-05
7.24138e-06
9.55817e-06
2.27431e-05
7.24119e-06
1.26481e-05
4.23785e-06
4.8832e-06
1.12402e-05
4.8833e-06
1.1238e-05
1.26505e-05
1.26476e-05
1.12344e-05
4.88235e-06
4.237e-06
1.2644e-05
1.12366e-05
4.8823e-06
2.275e-05
9.55888e-06
7.241e-06
7.24121e-06
2.27569e-05
2.27505e-05
7.23995e-06
9.55819e-06
2.27436e-05
7.23974e-06
1.26478e-05
4.23774e-06
1.12401e-05
4.88301e-06
1.12379e-05
4.88307e-06
1.26514e-05
9.95811e-06
2.23736e-05
2.2374e-05
2.23673e-05
2.23678e-05
9.95778e-06
4.70643e-06
2.97426e-06
5.64684e-06
9.91872e-06
9.92063e-06
2.97407e-06
4.70678e-06
4.70073e-06
2.97321e-06
5.64517e-06
9.91423e-06
2.97305e-06
9.91616e-06
4.70108e-06
4.7075e-06
9.92356e-06
5.6481e-06
2.97449e-06
9.92167e-06
2.97468e-06
4.70714e-06
4.7018e-06
9.91917e-06
5.64632e-06
2.97347e-06
2.97363e-06
9.91709e-06
4.70144e-06
9.95596e-06
2.23615e-05
2.23619e-05
2.23677e-05
2.23682e-05
9.95629e-06
1.90655e-05
1.90662e-05
1.90785e-05
1.9078e-05
9.95957e-06
2.23731e-05
2.23736e-05
9.95991e-06
2.23794e-05
2.23798e-05
4.70888e-06
2.97527e-06
5.65029e-06
9.92939e-06
2.97547e-06
9.92754e-06
4.70851e-06
4.70318e-06
2.97424e-06
5.6485e-06
9.9252e-06
9.92264e-06
2.97442e-06
4.70281e-06
4.70783e-06
9.92463e-06
2.97509e-06
5.64905e-06
2.97489e-06
4.7082e-06
9.92654e-06
4.70213e-06
9.91994e-06
2.97404e-06
5.64739e-06
4.7025e-06
9.9222e-06
2.97386e-06
9.9617e-06
2.23851e-05
2.23856e-05
2.23789e-05
2.23794e-05
9.96135e-06
1.90773e-05
1.90766e-05
1.26406e-05
4.88161e-06
1.12335e-05
4.23647e-06
4.88176e-06
1.12305e-05
1.26431e-05
2.27381e-05
9.55252e-06
7.23757e-06
7.23739e-06
2.27311e-05
2.27376e-05
7.23867e-06
9.55358e-06
7.23885e-06
2.27445e-05
1.26393e-05
4.23568e-06
4.88102e-06
1.1227e-05
4.88085e-06
1.123e-05
1.26367e-05
1.26402e-05
4.8818e-06
1.12336e-05
4.23645e-06
4.88197e-06
1.12306e-05
1.26428e-05
2.27373e-05
9.55323e-06
7.23932e-06
7.23893e-06
2.27301e-05
2.27366e-05
7.24021e-06
9.55428e-06
7.24061e-06
2.27437e-05
1.26391e-05
4.23573e-06
4.88122e-06
1.12271e-05
4.88106e-06
1.123e-05
1.26362e-05
1.26469e-05
4.88249e-06
1.1234e-05
4.237e-06
1.26444e-05
4.88232e-06
1.1237e-05
2.27504e-05
9.55937e-06
7.24119e-06
7.24138e-06
2.27572e-05
2.27509e-05
7.24013e-06
9.55838e-06
2.2744e-05
7.23994e-06
1.26482e-05
4.23777e-06
4.88305e-06
1.12405e-05
4.8832e-06
1.12375e-05
1.26507e-05
1.26465e-05
4.8827e-06
1.12341e-05
4.23706e-06
1.2644e-05
4.88252e-06
1.12371e-05
2.27494e-05
9.56012e-06
7.24274e-06
7.24315e-06
2.27565e-05
2.27501e-05
7.24189e-06
9.55909e-06
2.2743e-05
7.24149e-06
1.26478e-05
4.23775e-06
4.88323e-06
1.12406e-05
4.88342e-06
1.12376e-05
1.26503e-05
1.90654e-05
1.9066e-05
1.90672e-05
1.90679e-05
9.95912e-06
2.23734e-05
2.23725e-05
9.95946e-06
2.23796e-05
2.23788e-05
4.70296e-06
2.97412e-06
5.64845e-06
9.92511e-06
4.7026e-06
2.9743e-06
9.9226e-06
4.70869e-06
2.97532e-06
5.65039e-06
9.92957e-06
4.70834e-06
2.97549e-06
9.92771e-06
4.70193e-06
9.91975e-06
2.97392e-06
5.64733e-06
4.70228e-06
2.97374e-06
9.9222e-06
4.70766e-06
9.92482e-06
2.97511e-06
5.64927e-06
4.70801e-06
2.97494e-06
9.92672e-06
9.96125e-06
2.23853e-05
2.23845e-05
9.9609e-06
2.23791e-05
2.23783e-05
1.90771e-05
1.90765e-05
1.9079e-05
1.90783e-05
2.27632e-05
7.24245e-06
9.56395e-06
2.27563e-05
7.24224e-06
1.26552e-05
4.23826e-06
1.12414e-05
4.88377e-06
1.26515e-05
1.12435e-05
4.88371e-06
9.56473e-06
1.90874e-05
1.90892e-05
4.41713e-07
4.41678e-07
6.53397e-07
4.43601e-07
4.4357e-07
2.3559e-07
2.3366e-07
2.82685e-06
1.96713e-06
1.96738e-06
1.41366e-06
1.96644e-06
1.96667e-06
2.82716e-06
2.82816e-06
1.96864e-06
1.96889e-06
1.41654e-06
2.82849e-06
1.96793e-06
1.96816e-06
2.82689e-06
1.96715e-06
1.96738e-06
1.41364e-06
1.96645e-06
1.96667e-06
2.8272e-06
2.82823e-06
1.41738e-06
1.9676e-06
1.96783e-06
1.96832e-06
1.96855e-06
2.8279e-06
2.8268e-06
1.96728e-06
1.96716e-06
1.41364e-06
1.96648e-06
1.96658e-06
2.82712e-06
2.82814e-06
1.41731e-06
1.96773e-06
1.96762e-06
1.96844e-06
1.96833e-06
2.82781e-06
2.82693e-06
1.9673e-06
1.96722e-06
1.4137e-06
1.96654e-06
1.96661e-06
2.82724e-06
2.82827e-06
1.41737e-06
1.96776e-06
1.96769e-06
1.96847e-06
1.96839e-06
2.82795e-06
2.82819e-06
1.4174e-06
1.9676e-06
1.96782e-06
2.82786e-06
1.9683e-06
1.96855e-06
4.41724e-07
4.41681e-07
6.53414e-07
4.43612e-07
4.43569e-07
2.35588e-07
2.33659e-07
4.41808e-07
4.41768e-07
6.535e-07
4.43696e-07
4.43654e-07
2.35659e-07
2.3373e-07
4.418e-07
4.41762e-07
6.53491e-07
4.43691e-07
4.43649e-07
2.35656e-07
2.33725e-07
6.54964e-07
4.47288e-07
4.47257e-07
4.45471e-07
4.45436e-07
2.37517e-07
2.3942e-07
6.54981e-07
4.47299e-07
4.47256e-07
4.45482e-07
4.45439e-07
2.37516e-07
2.39418e-07
6.55067e-07
4.47383e-07
4.47341e-07
4.45565e-07
4.45525e-07
2.37587e-07
2.39489e-07
6.55055e-07
4.47378e-07
4.47335e-07
4.45557e-07
4.45518e-07
2.37582e-07
2.39486e-07
1.66435e-06
2.53952e-06
1.54152e-06
2.29415e-06
2.53974e-06
1.54239e-06
1.66296e-06
1.84147e-06
2.22235e-06
3.64422e-06
3.02093e-06
2.22186e-06
3.02055e-06
1.84267e-06
1.84319e-06
3.02102e-06
3.6451e-06
2.22222e-06
2.22271e-06
3.02141e-06
1.84196e-06
1.66247e-06
2.29356e-06
2.53934e-06
1.5418e-06
2.53912e-06
1.54095e-06
1.66385e-06
1.66441e-06
1.54145e-06
2.53936e-06
2.29412e-06
1.54241e-06
2.53958e-06
1.66271e-06
1.84132e-06
2.2224e-06
3.64428e-06
3.02057e-06
2.22191e-06
3.0202e-06
1.84264e-06
1.84321e-06
3.02068e-06
3.64512e-06
2.22227e-06
2.22277e-06
3.02105e-06
1.84178e-06
1.66231e-06
2.2935e-06
1.54183e-06
2.53918e-06
1.54087e-06
2.53895e-06
1.66384e-06
2.82753e-06
1.41594e-06
1.96685e-06
1.96708e-06
1.96754e-06
1.96779e-06
2.82721e-06
2.82757e-06
1.41592e-06
1.96686e-06
1.96708e-06
2.82724e-06
1.96756e-06
1.96779e-06
2.82758e-06
1.41514e-06
1.96795e-06
1.96818e-06
2.82791e-06
1.96725e-06
1.96747e-06
1.66415e-06
2.53932e-06
1.54145e-06
2.29403e-06
2.53951e-06
1.5423e-06
1.663e-06
1.84138e-06
2.2223e-06
3.64406e-06
3.02049e-06
3.02016e-06
2.22184e-06
1.84246e-06
1.84297e-06
3.02064e-06
3.64488e-06
2.22219e-06
3.02097e-06
2.22267e-06
1.84193e-06
1.66248e-06
2.29349e-06
2.53911e-06
1.54172e-06
2.53892e-06
1.54088e-06
1.66365e-06
1.66434e-06
2.53958e-06
1.54149e-06
2.29409e-06
2.53979e-06
1.54235e-06
1.6631e-06
1.84161e-06
2.22266e-06
3.64458e-06
3.0211e-06
3.02075e-06
2.22217e-06
1.8427e-06
1.84322e-06
3.02122e-06
3.64543e-06
2.22253e-06
3.02158e-06
1.84216e-06
2.22303e-06
1.66254e-06
2.29355e-06
2.53939e-06
1.54177e-06
2.53918e-06
1.54092e-06
1.66384e-06
1.66344e-06
2.53989e-06
1.54284e-06
2.29431e-06
1.66462e-06
2.53969e-06
1.542e-06
1.84393e-06
2.22284e-06
3.64615e-06
3.02154e-06
2.22333e-06
3.02187e-06
1.84295e-06
1.84246e-06
3.02143e-06
2.22301e-06
3.64536e-06
2.22253e-06
1.84346e-06
3.02109e-06
1.66507e-06
2.29483e-06
2.54005e-06
1.54252e-06
2.54025e-06
1.54337e-06
1.6639e-06
1.66361e-06
2.54017e-06
1.5429e-06
2.29438e-06
1.6648e-06
2.53995e-06
1.54204e-06
1.84417e-06
2.22318e-06
3.6467e-06
3.02212e-06
3.02248e-06
2.2237e-06
1.84317e-06
1.84269e-06
3.02204e-06
2.22337e-06
3.64588e-06
1.84371e-06
3.02168e-06
2.22287e-06
1.66525e-06
2.29489e-06
2.54031e-06
1.54256e-06
2.54053e-06
1.54342e-06
1.66405e-06
2.82748e-06
1.41586e-06
1.96699e-06
1.96688e-06
1.96758e-06
1.96769e-06
2.82715e-06
2.82749e-06
1.41513e-06
1.96808e-06
1.96797e-06
1.96737e-06
2.82782e-06
1.96727e-06
1.66437e-06
2.53958e-06
1.5415e-06
2.29417e-06
2.53978e-06
1.54243e-06
1.66303e-06
1.84158e-06
2.22271e-06
3.64476e-06
3.0211e-06
3.02073e-06
2.22222e-06
1.8427e-06
1.84322e-06
3.02121e-06
3.64564e-06
2.22258e-06
3.02158e-06
2.22308e-06
1.84208e-06
1.66251e-06
2.29356e-06
2.53937e-06
1.54184e-06
2.53916e-06
1.54091e-06
1.66387e-06
1.66437e-06
1.54143e-06
2.53937e-06
2.2941e-06
1.54239e-06
2.53958e-06
1.66268e-06
1.84133e-06
2.2226e-06
3.6446e-06
3.02062e-06
3.02026e-06
2.22211e-06
1.84261e-06
1.84316e-06
3.02074e-06
3.64549e-06
2.22247e-06
3.0211e-06
1.84179e-06
2.22297e-06
1.66228e-06
2.29351e-06
1.5418e-06
2.53918e-06
1.54085e-06
2.53897e-06
1.6638e-06
1.6635e-06
2.54015e-06
1.54299e-06
2.2944e-06
1.66483e-06
2.53993e-06
1.54203e-06
1.84419e-06
2.22323e-06
3.64691e-06
3.02209e-06
2.22374e-06
3.02248e-06
1.84292e-06
1.84252e-06
3.02204e-06
2.22342e-06
3.64606e-06
2.22291e-06
1.84371e-06
3.02165e-06
1.66525e-06
2.29497e-06
2.54031e-06
1.54255e-06
2.54051e-06
1.54351e-06
1.66384e-06
1.66304e-06
1.54295e-06
2.53997e-06
2.29434e-06
1.665e-06
1.54198e-06
2.53975e-06
1.84435e-06
2.22312e-06
3.64676e-06
3.02163e-06
3.02201e-06
2.22364e-06
1.84258e-06
1.8422e-06
3.02156e-06
2.22331e-06
3.6459e-06
1.84373e-06
3.02119e-06
2.2228e-06
1.66567e-06
2.2949e-06
1.54249e-06
2.5401e-06
1.54348e-06
2.54033e-06
1.66348e-06
1.66419e-06
1.5415e-06
2.53935e-06
2.29405e-06
1.54233e-06
2.53955e-06
1.66303e-06
1.84141e-06
2.2223e-06
3.64414e-06
3.02051e-06
2.22183e-06
3.02016e-06
1.84248e-06
1.843e-06
3.02063e-06
3.64498e-06
2.22219e-06
2.22267e-06
3.02099e-06
1.84196e-06
1.66252e-06
2.29352e-06
1.54175e-06
2.53915e-06
1.54092e-06
2.53895e-06
1.66368e-06
1.66334e-06
2.54012e-06
1.54294e-06
2.29439e-06
1.66484e-06
2.53989e-06
1.54205e-06
1.84429e-06
2.22286e-06
3.64637e-06
3.0219e-06
1.84273e-06
2.22337e-06
3.0223e-06
1.84238e-06
3.02186e-06
2.22305e-06
3.64551e-06
1.84371e-06
2.22255e-06
3.02147e-06
1.66542e-06
2.29495e-06
2.54024e-06
1.54254e-06
1.66364e-06
2.54048e-06
1.54346e-06
1.66348e-06
1.54288e-06
2.53993e-06
2.29434e-06
1.66465e-06
1.54203e-06
2.53972e-06
1.84395e-06
2.22284e-06
3.64625e-06
3.02153e-06
3.02189e-06
2.22334e-06
1.84298e-06
1.84249e-06
3.02145e-06
2.22301e-06
3.64544e-06
1.84349e-06
3.02109e-06
2.22253e-06
1.6651e-06
2.29485e-06
1.54255e-06
2.54008e-06
1.5434e-06
2.5403e-06
1.66394e-06
2.8276e-06
1.41591e-06
1.96702e-06
1.96695e-06
1.96763e-06
1.96772e-06
2.82729e-06
2.82763e-06
1.41519e-06
1.9681e-06
1.96802e-06
1.9674e-06
2.82794e-06
1.96733e-06
1.66445e-06
1.54148e-06
2.53953e-06
2.29415e-06
1.54243e-06
2.53976e-06
1.66283e-06
1.8415e-06
2.22273e-06
3.64476e-06
3.02106e-06
2.22223e-06
3.02068e-06
1.84277e-06
1.84331e-06
3.02115e-06
3.64561e-06
2.2226e-06
2.2231e-06
3.02154e-06
1.84197e-06
1.66243e-06
2.29356e-06
1.54184e-06
2.53935e-06
1.5409e-06
2.53913e-06
1.6639e-06
1.6631e-06
1.54297e-06
2.53996e-06
2.29434e-06
1.66503e-06
1.542e-06
2.53971e-06
1.84441e-06
2.22292e-06
3.64639e-06
3.02157e-06
1.84269e-06
2.22344e-06
3.02196e-06
1.84219e-06
3.02151e-06
2.22311e-06
3.64558e-06
1.84379e-06
2.22261e-06
3.02113e-06
1.66563e-06
2.29491e-06
1.54251e-06
2.54009e-06
1.6636e-06
1.5435e-06
2.54032e-06
1.66319e-06
1.54299e-06
2.54014e-06
2.29439e-06
1.66505e-06
1.54202e-06
2.5399e-06
1.84447e-06
2.22324e-06
3.64689e-06
3.02205e-06
3.02245e-06
2.22376e-06
1.84276e-06
1.84238e-06
3.022e-06
2.22344e-06
3.64606e-06
1.84387e-06
3.02161e-06
2.22293e-06
1.66572e-06
2.29495e-06
1.54254e-06
2.54026e-06
1.54352e-06
2.5405e-06
1.66363e-06
2.82755e-06
1.41517e-06
1.96793e-06
1.96818e-06
2.82787e-06
1.96724e-06
1.96746e-06
1.84341e-06
2.22364e-06
3.02232e-06
3.64666e-06
2.22313e-06
1.84438e-06
3.02195e-06
1.66435e-06
2.29508e-06
1.5439e-06
2.54064e-06
1.54305e-06
1.66554e-06
2.5404e-06
2.22407e-06
3.64729e-06
2.22354e-06
3.23668e-07
8.68832e-07
8.68954e-07
1.15396e-06
3.39705e-07
8.92262e-07
8.92382e-07
1.17344e-06
3.55983e-07
9.14704e-07
9.1482e-07
1.19185e-06
3.72425e-07
9.36135e-07
9.36249e-07
1.20938e-06
3.88948e-07
9.56556e-07
9.56668e-07
1.226e-06
4.05474e-07
9.75983e-07
9.76088e-07
1.24178e-06
4.21923e-07
9.94417e-07
9.94517e-07
1.25676e-06
4.38219e-07
1.01187e-06
1.01196e-06
1.27096e-06
4.54292e-07
1.02835e-06
1.02844e-06
1.28438e-06
4.70074e-07
1.04388e-06
1.04396e-06
1.29706e-06
4.85506e-07
1.05848e-06
1.05856e-06
1.30901e-06
5.00535e-07
1.07217e-06
1.07225e-06
1.32031e-06
5.15116e-07
1.08499e-06
1.08507e-06
1.33092e-06
5.29204e-07
1.09695e-06
1.09703e-06
1.34084e-06
5.42764e-07
1.10808e-06
1.10816e-06
1.35012e-06
5.55768e-07
1.11841e-06
1.11848e-06
1.35878e-06
5.68187e-07
1.12796e-06
1.12803e-06
1.36683e-06
5.80002e-07
1.13677e-06
1.13683e-06
1.37433e-06
5.91199e-07
1.14484e-06
1.1449e-06
1.38128e-06
6.01767e-07
1.1522e-06
1.15226e-06
1.38765e-06
6.117e-07
1.15888e-06
1.15894e-06
1.39349e-06
6.20993e-07
1.16491e-06
1.16496e-06
1.39881e-06
6.29647e-07
1.17029e-06
1.17034e-06
1.4036e-06
6.37663e-07
1.17506e-06
1.1751e-06
1.40792e-06
6.45049e-07
1.17923e-06
1.17928e-06
1.41177e-06
1.15419e-06
1.16793e-06
8.68963e-07
8.69002e-07
8.8661e-07
8.86664e-07
1.15391e-06
1.168e-06
8.68861e-07
8.69071e-07
8.86539e-07
8.86729e-07
8.69063e-07
8.86495e-07
8.86731e-07
1.15438e-06
1.16804e-06
8.6894e-07
8.86614e-07
8.86606e-07
1.16817e-06
1.17353e-06
1.18651e-06
8.92377e-07
8.92425e-07
9.09305e-07
9.09345e-07
1.17329e-06
1.18659e-06
8.92309e-07
8.92491e-07
9.09221e-07
9.09411e-07
8.92498e-07
9.09184e-07
9.09418e-07
1.1735e-06
1.18669e-06
8.92375e-07
9.09302e-07
9.09299e-07
1.18673e-06
1.19191e-06
1.20421e-06
9.1482e-07
9.14857e-07
9.30989e-07
9.3102e-07
1.1917e-06
1.20429e-06
9.1474e-07
9.14925e-07
9.30898e-07
9.31089e-07
9.14933e-07
9.3087e-07
9.31098e-07
1.19185e-06
1.2044e-06
9.14816e-07
9.30986e-07
9.30985e-07
1.20441e-06
1.20943e-06
1.22109e-06
9.36252e-07
9.36281e-07
9.51664e-07
9.51689e-07
1.20921e-06
1.22112e-06
9.36167e-07
9.36349e-07
9.51567e-07
9.51754e-07
9.36361e-07
9.51546e-07
9.51766e-07
1.20934e-06
1.22123e-06
9.3625e-07
9.51658e-07
9.51658e-07
1.22126e-06
1.22606e-06
1.23709e-06
9.56674e-07
9.56695e-07
9.71333e-07
9.7135e-07
1.22585e-06
1.23711e-06
9.56582e-07
9.56762e-07
9.71234e-07
9.71416e-07
9.56778e-07
9.71219e-07
9.71429e-07
1.22598e-06
1.23722e-06
9.5667e-07
9.71326e-07
9.7132e-07
1.23723e-06
1.24184e-06
1.25228e-06
9.76096e-07
9.7611e-07
9.90011e-07
9.90026e-07
1.24167e-06
1.25225e-06
9.76002e-07
9.76176e-07
9.8991e-07
9.90085e-07
9.76194e-07
9.89901e-07
9.90101e-07
1.24178e-06
1.25236e-06
9.76085e-07
9.90003e-07
9.89992e-07
1.25239e-06
1.25678e-06
1.26668e-06
9.94525e-07
9.94538e-07
1.0077e-06
1.00772e-06
1.25666e-06
1.26661e-06
9.9443e-07
9.94597e-07
1.0076e-06
1.00777e-06
9.94618e-07
1.0076e-06
1.00778e-06
1.25678e-06
1.26653e-06
9.94509e-07
1.00769e-06
1.00768e-06
1.26674e-06
1.27095e-06
1.28027e-06
1.01197e-06
1.01199e-06
1.02442e-06
1.02444e-06
1.27086e-06
1.28019e-06
1.01187e-06
1.01203e-06
1.02431e-06
1.02447e-06
1.01206e-06
1.02432e-06
1.02449e-06
1.27108e-06
1.28011e-06
1.01195e-06
1.02441e-06
1.02439e-06
1.28032e-06
1.28437e-06
1.29306e-06
1.02845e-06
1.02847e-06
1.04018e-06
1.0402e-06
1.28431e-06
1.293e-06
1.02835e-06
1.0285e-06
1.04007e-06
1.04022e-06
1.02853e-06
1.04008e-06
1.04025e-06
1.28453e-06
1.29308e-06
1.02842e-06
1.04017e-06
1.04014e-06
1.29313e-06
1.29705e-06
1.30506e-06
1.04398e-06
1.044e-06
1.05501e-06
1.05503e-06
1.29698e-06
1.30507e-06
1.04387e-06
1.04401e-06
1.0549e-06
1.05504e-06
1.04405e-06
1.05491e-06
1.05507e-06
1.29708e-06
1.30517e-06
1.04394e-06
1.055e-06
1.05497e-06
1.3052e-06
1.30908e-06
1.31646e-06
1.05857e-06
1.0586e-06
1.06892e-06
1.06895e-06
1.30895e-06
1.31645e-06
1.05847e-06
1.05861e-06
1.06882e-06
1.06896e-06
1.05864e-06
1.06883e-06
1.06898e-06
1.30902e-06
1.31655e-06
1.05854e-06
1.06891e-06
1.06888e-06
1.31651e-06
1.32033e-06
1.32718e-06
1.07226e-06
1.07229e-06
1.08195e-06
1.08198e-06
1.32022e-06
1.32715e-06
1.07216e-06
1.0723e-06
1.08185e-06
1.08199e-06
1.07232e-06
1.08187e-06
1.08201e-06
1.32029e-06
1.32725e-06
1.07222e-06
1.08194e-06
1.08191e-06
1.32721e-06
1.3309e-06
1.33723e-06
1.08507e-06
1.0851e-06
1.09412e-06
1.09415e-06
1.33079e-06
1.33721e-06
1.08497e-06
1.08511e-06
1.09401e-06
1.09415e-06
1.08513e-06
1.09404e-06
1.09417e-06
1.33087e-06
1.33729e-06
1.08503e-06
1.09411e-06
1.09407e-06
1.33726e-06
1.34081e-06
1.34663e-06
1.09703e-06
1.09706e-06
1.10544e-06
1.10548e-06
1.34072e-06
1.34661e-06
1.09693e-06
1.09706e-06
1.10534e-06
1.10548e-06
1.09709e-06
1.10537e-06
1.1055e-06
1.34079e-06
1.3467e-06
1.09699e-06
1.10545e-06
1.10541e-06
1.34667e-06
1.35009e-06
1.35543e-06
1.10815e-06
1.10818e-06
1.11597e-06
1.116e-06
1.35e-06
1.3554e-06
1.10806e-06
1.10819e-06
1.11587e-06
1.116e-06
1.10821e-06
1.1159e-06
1.11603e-06
1.35008e-06
1.35549e-06
1.10811e-06
1.11597e-06
1.11593e-06
1.35546e-06
1.35875e-06
1.36363e-06
1.11847e-06
1.11851e-06
1.12571e-06
1.12574e-06
1.35868e-06
1.36359e-06
1.11838e-06
1.11851e-06
1.12561e-06
1.12575e-06
1.11854e-06
1.12565e-06
1.12577e-06
1.35874e-06
1.36367e-06
1.11844e-06
1.12572e-06
1.12567e-06
1.36367e-06
1.36681e-06
1.37122e-06
1.12802e-06
1.12806e-06
1.13469e-06
1.13472e-06
1.36675e-06
1.3712e-06
1.12793e-06
1.12806e-06
1.13459e-06
1.13473e-06
1.12809e-06
1.13463e-06
1.13475e-06
1.36682e-06
1.37126e-06
1.12799e-06
1.1347e-06
1.13465e-06
1.37127e-06
1.3743e-06
1.37827e-06
1.13682e-06
1.13686e-06
1.14294e-06
1.14297e-06
1.37425e-06
1.37822e-06
1.13673e-06
1.13686e-06
1.14284e-06
1.14298e-06
1.13688e-06
1.14288e-06
1.143e-06
1.37431e-06
1.37829e-06
1.13679e-06
1.14294e-06
1.14291e-06
1.37831e-06
1.38122e-06
1.38476e-06
1.14489e-06
1.14493e-06
1.15047e-06
1.15051e-06
1.38118e-06
1.38471e-06
1.1448e-06
1.14493e-06
1.15038e-06
1.15051e-06
1.14496e-06
1.15042e-06
1.15054e-06
1.38125e-06
1.38477e-06
1.14486e-06
1.15048e-06
1.15044e-06
1.38479e-06
1.38759e-06
1.3907e-06
1.15225e-06
1.15229e-06
1.15732e-06
1.15736e-06
1.38757e-06
1.39065e-06
1.15216e-06
1.15229e-06
1.15723e-06
1.15736e-06
1.15232e-06
1.15727e-06
1.15739e-06
1.38763e-06
1.39072e-06
1.15222e-06
1.15733e-06
1.15729e-06
1.39074e-06
1.39343e-06
1.39611e-06
1.15893e-06
1.15897e-06
1.1635e-06
1.16354e-06
1.39341e-06
1.39608e-06
1.15884e-06
1.15897e-06
1.16341e-06
1.16354e-06
1.159e-06
1.16346e-06
1.16357e-06
1.39346e-06
1.39614e-06
1.1589e-06
1.16351e-06
1.16347e-06
1.39615e-06
1.39876e-06
1.40101e-06
1.16495e-06
1.16499e-06
1.16904e-06
1.16908e-06
1.39872e-06
1.40101e-06
1.16487e-06
1.16499e-06
1.16895e-06
1.16908e-06
1.16502e-06
1.169e-06
1.16911e-06
1.39878e-06
1.40107e-06
1.16492e-06
1.16905e-06
1.16901e-06
1.40108e-06
1.40359e-06
1.40543e-06
1.17034e-06
1.17037e-06
1.17396e-06
1.174e-06
1.40353e-06
1.40543e-06
1.17025e-06
1.17038e-06
1.17387e-06
1.174e-06
1.1704e-06
1.17392e-06
1.17402e-06
1.40359e-06
1.40549e-06
1.1703e-06
1.17396e-06
1.17393e-06
1.40551e-06
1.40792e-06
1.40937e-06
1.17511e-06
1.17514e-06
1.17828e-06
1.17832e-06
1.40785e-06
1.40937e-06
1.17502e-06
1.17514e-06
1.17819e-06
1.17832e-06
1.17517e-06
1.17823e-06
1.17834e-06
1.40791e-06
1.40943e-06
1.17507e-06
1.17828e-06
1.17825e-06
1.40941e-06
1.41177e-06
1.41285e-06
1.17928e-06
1.17932e-06
1.18203e-06
1.18206e-06
1.4117e-06
1.41284e-06
1.17919e-06
1.17932e-06
1.18193e-06
1.18206e-06
1.17934e-06
1.18197e-06
1.18208e-06
1.41175e-06
1.4129e-06
1.17924e-06
1.18202e-06
1.18199e-06
1.41287e-06
4.09733e-06
9.1622e-06
9.16921e-06
4.09543e-06
1.84293e-05
1.84399e-05
4.09777e-06
9.1641e-06
9.17117e-06
4.09528e-06
3.23666e-07
3.23746e-07
3.23752e-07
3.3567e-07
3.35664e-07
3.35749e-07
3.35758e-07
2.11415e-06
3.47733e-06
5.64121e-07
8.74783e-07
3.48022e-06
5.69991e-07
2.10966e-06
1.84301e-05
1.84407e-05
2.11415e-06
5.64211e-07
3.47757e-06
8.74904e-07
5.70083e-07
3.48027e-06
2.10969e-06
5.46401e-06
5.46583e-06
1.1586e-06
5.46678e-06
5.46876e-06
4.10497e-06
9.17826e-06
4.10303e-06
9.18538e-06
1.84516e-05
1.84625e-05
4.10532e-06
9.18041e-06
4.10287e-06
9.18755e-06
3.39698e-07
3.39785e-07
3.39794e-07
3.51895e-07
3.51887e-07
3.51979e-07
3.51988e-07
2.12797e-06
3.48842e-06
5.87453e-07
8.97966e-07
2.12371e-06
3.49107e-06
5.93248e-07
1.84524e-05
1.84633e-05
2.12796e-06
5.87551e-07
3.4881e-06
8.98085e-07
2.12374e-06
5.93346e-07
3.49152e-06
5.47329e-06
5.47516e-06
1.1776e-06
5.47601e-06
5.47792e-06
4.11243e-06
9.19467e-06
4.11048e-06
9.20185e-06
1.84747e-05
1.84859e-05
4.11276e-06
9.19684e-06
4.11049e-06
9.20403e-06
3.55974e-07
3.56068e-07
3.56078e-07
3.68303e-07
3.68294e-07
3.68393e-07
3.68402e-07
2.14107e-06
3.49865e-06
6.10455e-07
9.20157e-07
2.13707e-06
3.50175e-06
6.16152e-07
1.84755e-05
1.84867e-05
2.14106e-06
6.10557e-07
3.49871e-06
9.20273e-07
2.13706e-06
6.16252e-07
3.50177e-06
5.48237e-06
5.48431e-06
1.1957e-06
5.48505e-06
5.487e-06
4.11977e-06
9.21122e-06
4.11787e-06
9.21845e-06
1.84985e-05
1.85099e-05
4.1202e-06
9.21338e-06