/*--------------------------------*- C++ -*----------------------------------*\
| =========                 |                                                 |
| \\      /  F ield         | OpenFOAM: The Open Source CFD Toolbox           |
|  \\    /   O peration     | Version:  v1906                                 |
|   \\  /    A nd           | Web:      www.OpenFOAM.com                      |
|    \\/     M anipulation  |                                                 |
\*---------------------------------------------------------------------------*/
FoamFile
{
    version     2.0;
    format      ascii;
    class       surfaceScalarField;
    location    "500";
    object      phi;
}
// * * * * * * * * * * * * * * * * * * * * * * * * * * * * * * * * * * * * * //

dimensions      [0 3 -1 0 0 0 0];
oriented        oriented;


internalField   nonuniform List<scalar> 
123680
(
1.19226e-07
1.19613e-07
-7.10411e-08
-7.10188e-08
0.00118432
-0.00118442
-1.19699e-06
-1.19593e-07
-4.85412e-08
0.0011323
-2.34333e-07
1.24126e-06
2.72134e-07
9.11197e-07
-2.12667e-07
2.66446e-07
-8.52994e-07
-0.00113233
-1.19152e-06
-1.19634e-07
-4.86102e-08
0.00113194
-2.34318e-07
1.23579e-06
2.72175e-07
9.11048e-07
-2.15378e-07
2.69154e-07
-8.52881e-07
-0.00113196
1.22559e-06
1.19164e-06
-1.98285e-07
-2.03572e-07
0.000268069
-0.000270085
-0.00027009
1.22518e-06
1.19123e-06
-1.98086e-07
-2.03389e-07
0.000268075
1.23097e-06
1.19434e-06
-1.95719e-07
-2.03528e-07
0.000268076
-0.000270102
-1.2751e-06
-1.2385e-06
-0.00026808
2.39176e-07
2.47065e-07
0.000270107
-4.85086e-08
0.00113147
-2.39838e-07
1.2752e-06
2.7753e-07
9.11132e-07
-2.1272e-07
2.6636e-07
-8.53044e-07
-0.00113149
-1.23646e-06
-1.19174e-07
-4.84918e-08
0.00113191
-2.42681e-07
1.2807e-06
2.80379e-07
9.16654e-07
-2.15544e-07
2.69119e-07
-8.58567e-07
-0.00113194
-1.2128e-07
-0.00113142
-4.93378e-08
-1.23066e-06
2.77432e-07
-2.39647e-07
-8.5272e-07
2.66305e-07
-2.12488e-07
9.11146e-07
0.00113139
1.2806e-06
-1.2122e-07
-0.00113186
-4.93408e-08
-1.23614e-06
2.80282e-07
-2.42486e-07
-8.58253e-07
2.69067e-07
-2.15328e-07
9.16668e-07
0.00113184
-1.98423e-07
-2.0084e-07
0.000268097
-0.000270131
-1.24116e-06
-0.000268101
2.41959e-07
2.44326e-07
0.000270136
-4.8575e-08
0.00113258
-2.37204e-07
1.23859e-06
2.75022e-07
9.1397e-07
-2.15467e-07
2.6922e-07
-8.55703e-07
-0.0011326
-1.23103e-06
-1.19232e-07
-4.84942e-08
0.00113157
-2.42699e-07
1.27524e-06
2.8036e-07
9.138e-07
-2.15451e-07
2.69083e-07
-8.5571e-07
-0.00113159
-1.21664e-07
-0.00113253
-4.93657e-08
-1.19402e-06
2.74938e-07
-2.37006e-07
-8.55396e-07
2.69175e-07
-2.15254e-07
9.13965e-07
0.0011325
1.27514e-06
-1.21283e-07
-0.00113152
-4.93329e-08
-1.23072e-06
2.80263e-07
-2.425e-07
-8.55386e-07
2.69034e-07
-2.15241e-07
9.13799e-07
0.0011315
-1.19298e-07
-4.85047e-08
0.00113136
-2.37041e-07
1.26978e-06
2.7475e-07
9.11147e-07
-2.12698e-07
2.66357e-07
-8.53056e-07
-0.00113139
-1.2166e-07
-0.00113225
-4.93652e-08
-1.19667e-06
2.72046e-07
-2.34129e-07
-8.52678e-07
2.66389e-07
9.11207e-07
-2.12448e-07
0.00113223
1.26968e-06
0.00113129
-1.21347e-07
-0.00113132
-4.93504e-08
-1.22527e-06
2.74654e-07
-2.36854e-07
-8.52719e-07
2.66304e-07
-2.12467e-07
9.13813e-07
-1.95785e-07
-2.03422e-07
0.000268056
-0.000270079
-1.23569e-06
-0.00026806
2.39311e-07
2.46875e-07
0.000270085
-1.19699e-07
-4.85693e-08
0.00113247
-2.34423e-07
1.23591e-06
2.72277e-07
9.11346e-07
-2.15431e-07
2.69203e-07
-8.53073e-07
-0.0011325
-1.21688e-07
-0.00113189
-4.94237e-08
-1.1912e-06
2.72077e-07
-2.34128e-07
-8.52515e-07
2.69078e-07
9.11118e-07
-2.15189e-07
0.00113186
1.23581e-06
0.0011324
-1.21734e-07
-0.00113242
-4.94202e-08
-1.19132e-06
2.72187e-07
-2.34217e-07
-8.52757e-07
2.69148e-07
-2.15212e-07
9.11344e-07
-0.000268073
2.41759e-07
2.47057e-07
-4.96467e-08
-2.36796e-07
1.26966e-06
2.74616e-07
9.1381e-07
-2.12403e-07
2.66301e-07
-8.5529e-07
-1.22028e-07
-2.34174e-07
1.2358e-06
2.72159e-07
-2.15158e-07
2.69132e-07
-1.22416e-07
-4.97074e-08
9.11347e-07
-8.52668e-07
-1.09882e-10
-7.017e-08
0.000229293
3.21298e-08
2.16055e-09
-0.000229257
-5.18915e-09
2.24514e-08
0.000193525
-3.58987e-09
-0.000193538
6.83205e-09
-4.36617e-08
0.000193578
3.3085e-09
-0.000193545
1.37837e-10
2.8736e-08
0.000229238
-1.32135e-08
9.00071e-10
-0.000229254
5.13053e-09
1.12119e-08
9.79803e-05
-9.79966e-05
-6.78747e-09
-2.00422e-08
9.80176e-05
-9.79908e-05
-7.02504e-08
-2.18823e-10
0.000229322
2.17755e-09
3.00617e-08
-0.000229284
-5.15474e-09
2.47039e-08
0.000193545
-4.16952e-09
-0.000193561
6.82435e-09
-4.59567e-08
0.000193601
3.89281e-09
-0.000193565
2.88226e-08
2.21225e-10
0.000229264
8.90299e-10
-1.11539e-08
-0.000229283
-7.10276e-08
-7.09416e-08
0.00118432
-0.00118441
-7.1116e-08
-7.10698e-08
0.0011839
-0.001184
-7.11777e-08
-7.11071e-08
0.00118413
-0.00118423
-0.00118413
-7.35225e-08
-7.34797e-08
0.00118403
-0.00118412
-7.35122e-08
-7.34164e-08
0.00118403
-0.00118371
-7.35909e-08
-7.35336e-08
0.00118361
-0.00118394
-7.36558e-08
-7.36027e-08
0.00118384
7.0173e-08
-1.65612e-09
0.000250197
4.04397e-09
-1.93107e-07
-0.000250076
-9.7425e-09
-2.46676e-08
6.64272e-08
0.0002454
4.08039e-09
-0.000245436
0.00115244
3.66692e-09
-1.40048e-07
1.00835e-06
-7.57697e-07
8.307e-07
-9.36865e-07
-0.00115249
-4.88203e-08
1.24123e-06
0.00113228
-1.20309e-07
-8.52878e-07
2.6643e-07
-2.12585e-07
9.11209e-07
-1.19686e-06
2.72105e-07
-2.34251e-07
2.07073e-08
4.59099e-08
0.000245474
-1.66585e-08
-0.000245419
-1.05042e-07
-3.66708e-09
0.00115239
-1.4156e-07
-9.36624e-07
8.30791e-07
-7.5745e-07
1.00843e-06
-2.87562e-08
1.61464e-09
0.000250063
1.92501e-09
1.3265e-07
-0.000250171
5.1868e-09
1.34367e-08
9.79616e-05
-9.79803e-05
-6.81402e-09
-2.22925e-08
9.80013e-05
-9.79721e-05
-1.31429e-09
7.00865e-08
0.00025016
-1.9302e-07
4.07026e-09
-0.000250039
0.00115213
3.60226e-09
-1.40163e-07
1.00276e-06
-7.5217e-07
8.25168e-07
-9.31268e-07
-0.00115219
-9.84817e-09
-2.25043e-08
6.65209e-08
0.000245344
4.14035e-09
-0.000245382
-4.88838e-08
1.23577e-06
0.00113191
-1.20348e-07
-8.52706e-07
2.69111e-07
-2.15317e-07
9.11117e-07
-1.1914e-06
2.72139e-07
-2.3425e-07
-3.62938e-09
0.00115208
-1.41675e-07
-9.3102e-07
8.25257e-07
-7.51924e-07
1.00284e-06
2.08538e-08
4.37465e-08
0.00024542
-1.67483e-08
-0.000245363
-1.05136e-07
1.29557e-09
-2.86929e-08
0.000250026
1.32581e-07
1.88144e-09
-0.000250133
1.23086e-08
-1.11439e-08
2.48093e-08
0.000278126
-7.06008e-09
-0.000278145
1.22956e-08
-1.1126e-08
2.25252e-08
0.000278073
-7.52202e-09
-0.00027809
-1.26975e-06
-1.23588e-06
0.000270087
-0.00026807
2.41885e-07
2.47191e-07
-2.31275e-08
2.00335e-08
0.000278195
9.88219e-09
-0.000278151
-5.09996e-08
-2.32678e-08
1.99132e-08
0.00027814
1.05664e-08
-0.000278099
-4.86802e-08
-0.000278246
1.22024e-08
-1.12621e-08
2.4869e-08
-6.91893e-09
0.000278227
-0.000278191
1.2181e-08
-1.12531e-08
2.25991e-08
-7.37241e-09
0.000278175
1.11151e-08
9.79782e-05
-9.79945e-05
-1.99543e-08
9.80155e-05
-9.79887e-05
1.11592e-08
9.79774e-05
-9.79937e-05
-1.99757e-08
9.80147e-05
-9.79879e-05
9.89483e-09
2.25328e-08
0.000278124
-7.50693e-09
-0.000278138
1.23024e-08
2.25349e-08
0.00027808
-7.52368e-09
-0.000278096
0.000270104
-1.27517e-06
-1.23857e-06
-0.000268077
2.39302e-07
2.47194e-07
0.000278188
-2.0802e-08
1.04158e-08
-0.000278149
-4.8679e-08
0.000278147
-2.32414e-08
1.05374e-08
-0.000278106
-4.87327e-08
-1.98553e-08
-6.86802e-09
-9.80097e-05
9.80364e-05
1.11729e-08
5.12743e-09
9.79992e-05
-1.98654e-08
-6.8696e-09
-9.80088e-05
9.80356e-05
1.12215e-08
5.08878e-09
9.79984e-05
1.23075e-06
1.19411e-06
0.000268078
-1.95606e-07
-2.03419e-07
-2.08122e-08
-4.85682e-08
-0.0002782
1.04565e-08
0.000278239
-2.32554e-08
-4.86214e-08
-0.000278156
1.05907e-08
0.000278198
9.84131e-09
-7.43946e-09
2.25559e-08
0.000278174
1.22387e-08
-7.44758e-09
2.25662e-08
0.000278131
-7.01894e-08
0.00022933
3.21377e-08
2.23146e-09
-0.000229294
2.257e-08
0.00019356
-3.74066e-09
-0.000193573
-4.37759e-08
0.000193613
3.4289e-09
-0.00019358
2.87662e-08
0.000229275
-1.32308e-08
8.7668e-10
-0.000229291
-1.42243e-09
0.000250172
3.59876e-09
-1.95689e-07
-0.000250048
6.4112e-08
0.000245344
4.18894e-09
-0.00024538
0.00115252
3.60822e-09
-1.39897e-07
1.00835e-06
-7.57686e-07
8.30662e-07
-9.3687e-07
-0.00115257
-4.87949e-08
0.00113144
-1.19932e-07
-1.23086e-06
2.77497e-07
-2.39773e-07
-8.5292e-07
2.66347e-07
-2.12635e-07
9.1115e-07
0.000245418
-1.67528e-08
-0.000245363
-1.02636e-07
-3.63727e-09
0.00115247
-1.41405e-07
-9.36619e-07
8.30751e-07
-7.57441e-07
1.00842e-06
1.45367e-09
0.000250035
2.31691e-09
1.35229e-07
-0.000250145
0.000250199
4.5716e-09
-1.95713e-07
-0.00025008
-1.22418e-08
6.65997e-08
0.000245357
4.13209e-09
-0.000245393
0.00115267
-1.39859e-07
1.01126e-06
-7.57809e-07
8.30759e-07
-9.39772e-07
-0.00115272
-4.87929e-08
0.00113189
1.28067e-06
-1.19877e-07
-8.58445e-07
2.69104e-07
9.16664e-07
-2.15461e-07
-1.23634e-06
2.80336e-07
-2.4261e-07
0.000245431
2.31259e-08
-1.66864e-08
-0.000245376
-1.05107e-07
0.00115261
-1.41362e-07
-9.39541e-07
8.30849e-07
-7.57561e-07
1.01134e-06
0.000250067
1.38747e-09
1.35279e-07
-0.000250173
1.35353e-10
2.86463e-08
-1.31927e-08
9.10904e-10
0.000229277
-4.35704e-08
-0.000193584
3.24638e-09
0.000193618
2.24578e-08
-3.65612e-09
0.000193564
-1.09919e-10
-7.01483e-08
-0.000229296
3.20955e-08
2.16827e-09
0.000229332
2.86762e-08
-1.32128e-08
8.86358e-10
0.000229313
-4.37093e-08
6.83566e-09
-0.000193619
3.36416e-09
0.000193653
2.25816e-08
-5.07242e-09
-3.80663e-09
0.000193599
-7.01646e-08
-0.000229333
3.20957e-08
2.23957e-09
0.000229369
1.45061e-09
2.33751e-09
1.34971e-07
0.000250061
-4.91052e-08
-1.2068e-07
1.27514e-06
-2.39707e-07
2.77474e-07
9.11151e-07
-2.12552e-07
2.66336e-07
-8.52818e-07
-1.02543e-07
-0.000245401
-1.67602e-08
0.000245456
-0.00115241
-3.61526e-09
-1.44322e-07
-9.36203e-07
8.30915e-07
-7.56975e-07
1.00855e-06
0.00115236
4.13771e-09
6.40483e-08
0.000245382
3.62983e-09
-1.42947e-07
1.00848e-06
-7.57201e-07
-9.36427e-07
8.30828e-07
-1.42549e-09
-0.000250075
3.60833e-09
-1.95722e-07
0.000250198
1.40309e-09
1.35021e-07
0.000250093
-4.90886e-08
-1.23623e-06
-1.20626e-07
9.1667e-07
-2.15381e-07
-8.58348e-07
2.69095e-07
1.28064e-06
-2.4254e-07
2.80312e-07
2.31352e-08
-1.05021e-07
-0.000245414
-1.67044e-08
0.000245469
-0.00115257
-1.44285e-07
-9.39106e-07
8.3101e-07
-7.57095e-07
1.01146e-06
0.00115251
-1.21875e-08
4.07865e-09
6.65393e-08
0.000245395
-1.42917e-07
1.0114e-06
-7.57324e-07
-9.39327e-07
8.30924e-07
-0.000250106
4.57832e-09
-1.95744e-07
0.000250226
2.26141e-08
0.00027807
-1.01099e-08
-0.000278084
-1.34694e-08
2.24524e-08
0.000278174
-1.00899e-08
-0.000278182
0.000270133
-0.000268098
2.42084e-07
2.44454e-07
0.000278134
1.29949e-08
-0.000278095
-4.87494e-08
2.22505e-08
0.000278233
1.31064e-08
-0.000278199
-4.86004e-08
5.12962e-09
9.79829e-05
-9.80015e-05
9.80225e-05
-6.82842e-09
-9.79934e-05
-1.99331e-08
-9.80117e-05
9.80385e-05
1.12671e-08
9.80013e-05
1.19675e-06
0.000268099
-1.98307e-07
-2.0072e-07
-4.86397e-08
-0.000278146
1.3046e-08
0.000278185
2.21378e-08
-2.07187e-08
-4.84901e-08
-0.00027825
1.31622e-08
0.000278283
-1.00427e-08
2.26353e-08
0.000278121
-1.35292e-08
9.68617e-09
-1.00148e-08
2.24726e-08
0.000278224
-6.8819e-09
-9.80143e-05
9.80434e-05
5.06689e-09
9.80039e-05
-1.77964e-09
0.000250184
4.03933e-09
-1.90546e-07
-0.000250066
6.40978e-08
0.000245359
4.12743e-09
-0.00024539
0.00115239
3.66792e-09
-1.39985e-07
1.00833e-06
-7.54999e-07
8.30723e-07
-9.34136e-07
-0.00115245
-4.88278e-08
0.00113255
-1.20329e-07
-1.19422e-06
2.74995e-07
-2.37137e-07
-8.55578e-07
2.69206e-07
-2.1538e-07
9.13974e-07
0.000245428
-1.66924e-08
-0.000245378
-1.02702e-07
-3.70553e-09
0.00115235
-1.41566e-07
-9.36599e-07
8.28093e-07
-7.57469e-07
1.00571e-06
1.7764e-09
0.000250053
1.88497e-09
1.30086e-07
-0.000250158
-7.02339e-08
0.000229286
3.005e-08
2.06335e-09
-0.000229248
2.46744e-08
0.000193493
-3.72709e-09
-0.000193508
-4.58963e-08
0.000193548
3.46786e-09
-0.000193512
2.88195e-08
0.000229228
-1.11451e-08
1.00717e-09
-0.000229247
0.000250153
-1.93133e-07
4.2527e-09
-0.000250036
0.00115236
-1.39951e-07
1.00836e-06
-7.57771e-07
8.30734e-07
-9.36876e-07
-0.00115241
-1.22229e-08
6.40813e-08
0.000245291
6.54007e-09
-0.000245324
-4.87925e-08
0.00113154
1.27521e-06
-1.1994e-07
-8.55584e-07
2.69066e-07
9.13806e-07
-2.15369e-07
-1.23091e-06
2.80328e-07
-2.42621e-07
0.00115231
-1.41471e-07
-9.36639e-07
8.30824e-07
-7.57521e-07
1.00843e-06
0.000245362
2.30696e-08
-1.90585e-08
-0.00024531
-1.02603e-07
0.000250023
1.32699e-07
1.6705e-09
-0.000250127
2.87349e-08
2.18724e-10
9.03968e-10
-1.11369e-08
0.000229303
-4.5874e-08
-0.000193605
3.82231e-09
0.00019364
2.47192e-08
-4.24849e-09
0.000193585
-7.02219e-08
-2.24107e-10
-0.000229323
2.18877e-09
3.00221e-08
0.000229361
1.77149e-09
1.90761e-09
1.29832e-07
0.00025008
-4.91644e-08
-1.21055e-07
1.23854e-06
-2.37071e-07
2.7497e-07
9.13963e-07
-2.15307e-07
2.69194e-07
-8.5546e-07
-1.02612e-07
-0.000245416
-1.67021e-08
0.000245466
-0.00115229
-3.70014e-09
-1.44487e-07
-9.36189e-07
8.2825e-07
-7.57003e-07
1.00584e-06
0.00115224
4.06177e-09
6.40413e-08
0.000245397
3.66901e-09
-1.4305e-07
1.00847e-06
-7.54515e-07
-9.33692e-07
8.3089e-07
-1.78857e-09
-0.000250093
4.05717e-09
-1.90572e-07
0.000250211
2.87277e-08
-1.11241e-08
1.01646e-09
0.000229267
-4.58205e-08
6.85868e-09
-0.000193552
3.40461e-09
0.000193588
2.46843e-08
-5.12567e-09
-3.79541e-09
0.000193532
-7.02031e-08
-0.000229287
3.00022e-08
2.07005e-09
0.000229325
1.32441e-07
1.68375e-09
0.00025005
-4.90895e-08
-1.2308e-06
-1.20692e-07
9.13809e-07
-2.1529e-07
-8.55481e-07
2.69054e-07
1.27518e-06
-2.42555e-07
2.80305e-07
-0.00115226
-1.44393e-07
-9.36217e-07
8.3098e-07
-7.57051e-07
1.00856e-06
0.0011522
2.30844e-08
-1.02516e-07
-0.000245348
-1.90691e-08
0.0002454
-1.43014e-07
1.0085e-06
-7.57284e-07
-9.36426e-07
8.309e-07
-1.21675e-08
6.48299e-09
6.40192e-08
0.000245329
-0.000250063
-1.93159e-07
4.25704e-09
0.00025018
-1.74687e-10
0.000229328
2.19583e-09
3.21299e-08
-0.000229292
0.000193557
-3.79315e-09
-0.000193572
0.000193612
3.47687e-09
-0.000193577
1.31012e-10
0.000229272
9.1011e-10
-1.32307e-08
-0.000229289
7.01416e-08
0.000250166
-1.90501e-07
4.28313e-09
-0.000250052
0.00115237
-1.40026e-07
1.00566e-06
-7.57736e-07
8.30719e-07
-9.34139e-07
-0.00115242
-2.24817e-08
6.40951e-08
0.000245337
4.21892e-09
-0.000245371
-4.88155e-08
0.00113134
-1.2e-07
-1.22547e-06
2.74716e-07
-2.36969e-07
-8.52929e-07
2.66343e-07
-2.12614e-07
9.1116e-07
0.00115231
-1.41524e-07
-9.33913e-07
8.30805e-07
-7.5749e-07
1.00572e-06
4.37261e-08
0.000245409
-1.67137e-08
-0.000245356
-1.02637e-07
-2.87387e-08
0.000250039
1.30071e-07
1.60699e-09
-0.00025014
0.000229292
3.21031e-08
2.18848e-09
-0.000229256
-5.17024e-09
0.000193506
-3.64897e-09
-0.000193519
0.000193559
6.76035e-09
3.45554e-09
-0.000193525
0.000229237
-1.32111e-08
8.29347e-10
-0.000229253
-2.86585e-08
1.60725e-09
1.95221e-09
1.32384e-07
0.00025009
-4.91347e-08
-1.21056e-07
1.2412e-06
-2.3418e-07
2.72076e-07
9.11218e-07
-2.12508e-07
-8.52773e-07
2.66415e-07
4.58405e-08
-1.04952e-07
-0.000245458
-1.66771e-08
0.000245513
-0.00115233
-4.83842e-09
-1.44487e-07
-9.36207e-07
8.30919e-07
1.00856e-06
-7.56954e-07
0.00115229
-2.46825e-08
4.02202e-09
6.63697e-08
0.000245438
3.5225e-09
-1.43111e-07
1.00849e-06
-7.57204e-07
-9.36425e-07
8.30862e-07
7.01418e-08
-1.97423e-09
-0.000250103
4.29053e-09
-1.93122e-07
0.000250224
1.28014e-10
9.28687e-10
-1.3207e-08
0.000229311
-0.000193616
3.40504e-09
0.000193652
-3.86722e-09
0.000193596
-2.38841e-10
-0.000229331
2.20765e-09
3.20873e-08
0.000229367
-2.86493e-08
1.29811e-07
1.62993e-09
0.000250065
-4.91057e-08
-1.22536e-06
-1.20754e-07
9.11167e-07
-2.12529e-07
-8.52824e-07
2.66335e-07
1.26972e-06
-2.36907e-07
2.74691e-07
-0.00115226
0.0011522
-1.44446e-07
-9.33493e-07
8.30966e-07
-7.57019e-07
1.00856e-06
4.36473e-08
2.31338e-08
0.000245447
-1.02547e-07
-0.000245394
-1.672e-08
-1.43079e-07
1.00579e-06
-7.57248e-07
-9.33704e-07
8.30886e-07
-2.24883e-08
-1.22536e-08
4.1665e-09
6.40317e-08
0.000245375
7.01184e-08
0.000250192
-0.000250078
-1.90537e-07
4.53586e-09
-1.31949e-08
8.41027e-10
0.000229276
6.80277e-09
0.000193599
-0.000193565
3.39288e-09
-5.10867e-09
-3.71585e-09
0.000193545
0.000229331
-0.000229295
3.20683e-08
2.19856e-09
2.47775e-08
0.000278034
-7.16394e-09
-0.00027805
-1.11912e-08
2.48108e-08
0.000278132
-6.90237e-09
-0.000278148
0.000270082
-0.000268057
2.39444e-07
2.47009e-07
0.000278101
1.00247e-08
-0.000278059
-5.09489e-08
1.99697e-08
0.000278199
9.98438e-09
-0.000278157
-5.09718e-08
5.13039e-09
9.79718e-05
-9.79881e-05
9.80091e-05
-6.83346e-09
-9.79823e-05
-2.2186e-08
-9.79931e-05
9.80221e-05
1.3495e-08
9.79826e-05
1.19128e-06
0.000268059
-1.95669e-07
-2.0331e-07
-5.08365e-08
-0.00027811
1.00769e-08
0.000278151
1.98589e-08
-2.08652e-08
-5.08594e-08
-0.000278208
1.00302e-08
0.00027825
-7.09164e-09
2.47967e-08
0.000278085
-1.12466e-08
9.79136e-09
-6.83388e-09
2.48327e-08
0.000278182
-6.88355e-09
-9.80032e-05
9.803e-05
5.07042e-09
9.79928e-05
7.01287e-08
0.000250185
-1.90475e-07
4.7626e-09
-0.000250071
0.00115226
-1.40161e-07
1.00567e-06
-7.55018e-07
8.28011e-07
-9.34137e-07
-0.00115231
-2.24721e-08
6.64953e-08
0.000245352
4.17779e-09
-0.000245388
-4.88737e-08
0.00113245
-1.204e-07
-1.19152e-06
2.72247e-07
-2.34347e-07
-8.52954e-07
2.69186e-07
-2.15351e-07
9.1135e-07
0.00115221
-1.41666e-07
-9.33904e-07
8.281e-07
-7.54771e-07
1.00574e-06
4.37393e-08
0.000245426
-1.67567e-08
-0.000245371
-1.0513e-07
-2.87365e-08
0.000250057
1.30045e-07
1.15998e-09
-0.000250159
-1.09451e-10
0.000229285
2.23666e-09
3.20738e-08
-0.000229249
0.00019351
-3.69269e-09
-0.000193523
0.000193563
3.37951e-09
-0.000193529
1.06586e-10
0.00022923
8.47177e-10
-1.31895e-08
-0.000229246
0.000229321
2.13802e-09
2.99689e-08
-0.000229283
-5.21023e-09
0.000193546
-3.55801e-09
-0.00019356
0.0001936
6.90401e-09
3.27282e-09
-0.000193566
0.000229263
9.38892e-10
-1.10836e-08
-0.000229282
1.2993e-09
-2.85872e-08
1.32315e-07
1.89284e-09
0.000250053
-4.92066e-08
-1.21089e-07
1.23574e-06
-2.34178e-07
2.7212e-07
9.11062e-07
-2.15219e-07
-8.52653e-07
2.69124e-07
-0.00115203
-3.61115e-09
-1.44596e-07
-9.30605e-07
8.25411e-07
1.00297e-06
-7.51451e-07
0.00115198
4.36797e-08
-1.05051e-07
-0.000245401
-1.67631e-08
0.000245458
3.60657e-09
-1.43225e-07
1.0029e-06
-7.5168e-07
-9.30822e-07
8.25331e-07
-2.25163e-08
4.0843e-09
6.64614e-08
0.000245382
-1.31277e-09
7.00434e-08
-0.000250066
-1.9304e-07
4.08269e-09
0.000250186
-2.86283e-08
1.29777e-07
1.17921e-09
0.000250084
-4.91621e-08
-1.19141e-06
-1.21147e-07
9.11356e-07
-2.15271e-07
-8.52851e-07
2.69172e-07
1.23585e-06
-2.34282e-07
2.72224e-07
-0.00115216
-1.44583e-07
-9.33479e-07
8.28252e-07
-7.54298e-07
1.00586e-06
0.0011521
4.36555e-08
2.32876e-08
0.000245464
-1.05039e-07
-0.000245409
-1.67774e-08
-1.43229e-07
1.00581e-06
-7.54526e-07
-9.33695e-07
8.28174e-07
-2.24841e-08
-1.2235e-08
4.11902e-09
6.64368e-08
0.00024539
7.00835e-08
-0.000250097
-1.90493e-07
4.77838e-09
0.000250212
1.12277e-10
8.42966e-10
-1.31585e-08
0.000229268
-0.000193569
3.31144e-09
0.000193603
-3.75992e-09
0.000193549
-1.08878e-10
-0.000229288
2.26067e-09
3.20217e-08
0.000229324
9.44894e-10
-1.10502e-08
0.000229302
6.95412e-09
0.000193639
-0.000193606
3.19639e-09
-5.14737e-09
-3.62881e-09
0.000193586
-0.000229322
2.16418e-09
2.99151e-08
0.00022936
9.79712e-05
-9.79875e-05
9.80085e-05
-9.79817e-05
9.79755e-05
-9.79918e-05
9.80128e-05
-9.7986e-05
0.000268072
-1.98169e-07
-2.0346e-07
1.99293e-08
-5.08898e-08
-0.000278202
9.92419e-09
1.9802e-08
-4.85647e-08
-0.000278149
1.06202e-08
-1.12019e-08
-6.9903e-09
2.48315e-08
0.000278177
-1.11854e-08
-7.44834e-09
2.25517e-08
0.000278124
9.80293e-05
-9.80026e-05
9.79922e-05
9.80337e-05
-9.80069e-05
9.79965e-05
1.00863e-06
-7.56813e-07
8.3099e-07
-9.36044e-07
2.24517e-10
-1.45876e-07
-2.25155e-08
6.39969e-08
4.11442e-09
0.000245413
-2.85799e-08
0.000250088
1.29587e-07
2.84789e-09
-1.56807e-10
-5.05651e-09
-3.78115e-09
0.000193585
0.000229315
-1.31836e-08
8.52961e-10
4.53641e-11
-2.25107e-08
6.64121e-08
0.000245429
4.05955e-09
-5.08704e-09
0.000193626
-3.69871e-09
9.8013e-05
9.80173e-05
-7.52125e-10
1.44028e-08
0.000143282
-3.24553e-10
-0.000143295
-0.000171014
-3.45457e-10
1.5424e-11
0.000171047
-0.000223249
3.09403e-08
4.34088e-09
0.000223285
-6.91966e-08
-1.32004e-08
9.02875e-10
-0.000229274
-1.06929e-11
2.86918e-08
-0.000171028
-3.26866e-12
8.16429e-10
-0.000223265
3.05529e-08
1.62719e-09
0.000143311
-2.65864e-08
-7.92065e-05
7.92347e-05
-1.60936e-09
3.34076e-09
0.000193558
6.8079e-09
-4.36951e-08
0.000263067
-1.90702e-08
-7.98939e-10
3.06445e-08
-0.000263082
0.000263108
-4.33425e-09
-5.92347e-08
3.46877e-10
-7.92259e-05
1.90881e-08
7.92153e-05
-0.000263093
2.65434e-08
0.000263134
-5.91945e-08
-3.6235e-09
-5.15827e-09
2.24535e-08
3.06451e-08
7.92435e-05
3.52993e-10
-3.09501e-08
-0.000143266
3.21477e-08
2.15726e-09
3.9594e-11
-7.01874e-08
0.000170996
7.42822e-10
6.8835e-12
-0.00017101
0.000223229
-1.44128e-08
3.06004e-08
-0.000223245
2.35162e-11
-6.92154e-08
-0.000143279
9.80071e-05
-6.76199e-09
-2.00945e-08
5.10072e-09
1.1239e-08
1.24297e-08
-7.35485e-10
0.000143351
-1.41736e-10
-0.000143363
-0.000223332
2.89551e-08
4.29022e-09
0.00022337
-6.93512e-08
-0.000171047
-3.31098e-10
-4.67692e-11
0.000171077
6.54076e-10
-1.11348e-08
-0.000229304
7.7311e-11
3.12019e-08
8.57081e-10
-0.000223353
3.31265e-08
-0.000171059
4.5065e-11
1.41451e-09
0.000143378
-2.44819e-08
-7.92522e-05
7.92781e-05
-1.3983e-09
3.9331e-09
0.000193581
6.79538e-09
-4.59913e-08
0.000263177
-1.69285e-08
-8.34219e-10
3.31659e-08
-0.000263196
0.000263222
-4.27458e-09
-6.18307e-08
1.66681e-10
-7.92693e-05
1.69459e-08
7.9261e-05
-0.000263203
2.44394e-08
0.000263248
-6.17854e-08
-4.20895e-09
-5.1205e-09
2.47068e-08
3.31613e-08
7.92869e-05
-2.89685e-08
3.40252e-10
-0.000143336
2.41612e-09
3.00778e-08
-7.18037e-11
-7.26954e-08
0.000223312
-1.24452e-08
3.07642e-08
-0.00022333
0.000171028
7.25685e-10
5.5121e-11
-0.00017104
-7.17812e-08
-3.78538e-11
-0.000143347
9.79908e-05
-6.78952e-09
-2.23438e-08
5.15578e-09
1.34648e-08
-6.96296e-09
-7.02575e-09
0.000213708
1.0151e-08
1.22e-08
-0.000213717
-8.05258e-05
-1.23751e-08
-1.19942e-08
8.05502e-05
-8.05146e-05
-1.22879e-08
-1.21052e-08
8.0539e-05
9.48067e-09
-8.05423e-05
9.44165e-09
-8.05311e-05
-2.50056e-08
-2.72358e-08
0.000213736
-3.60503e-08
3.33768e-08
-0.000221862
0.000221899
2.50334e-08
-5.98898e-08
0.000250637
-1.58181e-08
5.86496e-08
2.95384e-08
-0.000250684
-5.10499e-08
9.85726e-09
0.00027817
2.00846e-08
-2.31221e-08
0.00018299
1.61494e-08
-9.49621e-09
-0.000183004
0.000250699
-9.74912e-08
-5.23262e-08
0.000183022
1.19926e-08
-1.01489e-08
3.10808e-08
-0.000221882
-3.61839e-08
3.13867e-08
-0.000221801
0.000221839
2.72592e-08
-6.00898e-08
0.000250541
-1.58114e-08
6.35469e-08
2.95526e-08
-0.000250596
-4.87329e-08
1.05363e-08
0.000278115
1.99661e-08
-2.32571e-08
0.000182946
1.42275e-08
-9.45833e-09
-0.000182958
0.000250611
-1.0238e-07
-5.24541e-08
0.000182976
1.21011e-08
-1.22e-08
3.13135e-08
-0.000221822
1.58042e-08
-1.61635e-08
0.000221879
3.1081e-08
-0.000183008
-3.3331e-08
0.000183039
2.48164e-08
-7.02328e-09
-1.11719e-08
1.22815e-08
-0.000250652
3.60379e-08
0.000250715
-9.7435e-08
-5.23297e-08
5.86279e-08
2.9509e-08
0.000221916
-5.98293e-08
1.57957e-08
-1.42443e-08
0.000221818
3.13159e-08
-0.000182963
-3.13392e-08
0.000182993
2.25356e-08
-7.48303e-09
-1.11557e-08
1.22666e-08
-0.000250557
3.61761e-08
0.000250627
-1.02322e-07
-5.24626e-08
6.35281e-08
2.95213e-08
0.000221856
-6.00269e-08
1.23982e-08
1.23123e-08
-0.000213689
8.05179e-05
6.95816e-09
-8.05343e-05
8.05066e-05
7.01933e-09
-8.05231e-05
-0.000213698
-0.00022193
-3.59798e-08
3.3175e-08
2.49161e-08
-5.96302e-08
-1.57895e-08
0.000250698
-0.000250745
5.86171e-08
2.94319e-08
1.62134e-08
0.000183061
-9.43499e-09
-0.000183074
-5.08342e-08
9.94393e-09
1.98765e-08
-2.31401e-08
-1.01762e-08
-0.00022195
3.11211e-08
-9.72548e-08
-5.23269e-08
1.19781e-08
-0.000221869
-3.61361e-08
3.11881e-08
2.71552e-08
-5.98196e-08
-1.57767e-08
0.000250603
-0.000250657
6.35286e-08
2.94393e-08
1.43048e-08
0.000183016
-9.39316e-09
-0.000183028
-4.85088e-08
1.06501e-08
1.97467e-08
-2.32989e-08
-1.22205e-08
-0.00022189
3.13639e-08
-1.02132e-07
-5.24811e-08
1.21083e-08
-0.000213766
1.23231e-08
1.22177e-08
6.98351e-09
8.05496e-05
-8.0566e-05
7.05256e-09
8.05383e-05
-8.05548e-05
-0.000213774
9.8005e-05
-2.00058e-08
1.11422e-08
9.80042e-05
-2.00279e-08
1.11895e-08
-6.99128e-09
-7.01224e-09
0.000213708
1.22094e-08
1.01504e-08
-0.000213717
-8.0526e-05
-1.23794e-08
-1.20031e-08
8.05504e-05
-8.05125e-05
-1.23034e-08
-1.20959e-08
8.05369e-05
9.45638e-09
-8.05424e-05
9.45307e-09
-8.0529e-05
-2.71004e-08
-2.51672e-08
0.000213736
3.14272e-08
-3.60962e-08
-0.000221862
0.0002219
2.7128e-08
-6.0067e-08
0.000250635
-1.58151e-08
6.36763e-08
2.69707e-08
-0.000250687
1.03911e-08
-4.87291e-08
0.000278163
-2.07964e-08
0.000182991
1.42372e-08
-9.46958e-09
-0.000183003
0.000183021
1.20014e-08
0.000250702
-1.02479e-07
-4.9798e-08
-1.22057e-08
3.13027e-08
-0.000221883
3.14153e-08
-3.61889e-08
-0.000221797
0.000221839
2.51913e-08
-6.2304e-08
0.000250544
-1.58266e-08
6.36001e-08
3.20916e-08
-0.000250601
1.05061e-08
-4.87847e-08
0.000278122
-2.32251e-08
0.000182941
1.42317e-08
-9.46873e-09
-0.000182953
0.000182971
1.20932e-08
0.000250617
-1.02484e-07
-5.49757e-08
-1.01487e-08
3.35051e-08
-0.000221822
-1.42523e-08
0.000221879
1.5804e-08
3.13058e-08
-0.000183008
-3.13812e-08
0.000183038
-7.4739e-09
2.25435e-08
9.86878e-09
3.60842e-08
-0.00025065
0.000250717
-1.02424e-07
-4.98034e-08
0.000221917
-6.00084e-08
6.36592e-08
2.694e-08
-1.42498e-08
0.000221814
1.58126e-08
3.35127e-08
-0.000182959
-3.13648e-08
0.000182988
-7.48506e-09
2.25481e-08
1.22708e-08
3.61812e-08
-0.000250559
0.000250632
-1.02429e-07
-5.49844e-08
0.000221856
-6.22397e-08
6.35863e-08
3.20582e-08
1.24026e-08
1.23269e-08
-0.000213689
8.0518e-05
6.98651e-09
-8.05345e-05
8.05045e-05
7.00481e-09
-8.0521e-05
-0.000213698
-9.8026e-05
1.11986e-08
5.09786e-09
-1.99026e-08
-6.85204e-09
-9.80251e-05
1.1253e-08
5.05785e-09
-1.99198e-08
-6.84623e-09
-0.000213728
1.23606e-08
1.22836e-08
-2.7072e-08
-2.51415e-08
0.000213755
6.9973e-09
8.05339e-05
9.44266e-09
7.01946e-09
8.05204e-05
9.43804e-09
1.22189e-08
1.01518e-08
-1.20011e-08
8.05583e-05
-1.20947e-08
8.05448e-05
-1.42869e-08
1.5791e-08
0.000221913
-0.000221934
-1.22239e-08
3.13262e-08
-0.000250681
3.6046e-08
-1.023e-07
-4.98038e-08
0.000250748
-7.40883e-09
2.25733e-08
-0.000278214
9.81859e-09
-0.000183043
-3.12813e-08
1.19937e-08
0.000183073
-0.000183056
-9.42748e-09
-0.000250733
6.36432e-08
2.68901e-08
2.70424e-08
-5.98797e-08
0.000221951
-1.42931e-08
1.57979e-08
0.000221848
-0.000221873
-1.01595e-08
3.35394e-08
-0.00025059
3.61525e-08
-1.02301e-07
-5.49946e-08
0.000250662
-7.41326e-09
2.2586e-08
-0.000278172
1.22177e-08
-0.000182994
-3.12723e-08
1.21019e-08
0.000183023
-0.000183006
-9.42238e-09
-0.000250647
6.35749e-08
3.20103e-08
2.51111e-08
-6.21073e-08
0.00022189
-0.000221896
3.1337e-08
-3.60667e-08
-5.9945e-08
1.42694e-08
0.000183026
-1.58004e-08
0.000250665
6.36506e-08
2.69157e-08
1.04385e-08
-4.86276e-08
-2.08067e-08
3.13171e-08
-1.02364e-07
-4.98058e-08
-0.000221831
3.13164e-08
-3.61648e-08
-6.21746e-08
1.42709e-08
0.000182976
-1.58038e-08
0.000250574
6.35798e-08
3.20281e-08
1.0562e-08
-4.86766e-08
-2.32449e-08
3.35251e-08
-1.02366e-07
-5.49875e-08
-7.00304e-09
-7.02733e-09
0.000213747
-8.05419e-05
-1.23423e-08
8.05662e-05
-8.05284e-05
-1.22526e-08
8.05527e-05
0.000213774
-7.3612e-10
1.24244e-08
0.000143352
-1.29693e-10
-0.000143364
-0.000171049
-3.01169e-10
0.000171081
-0.000223334
2.89472e-08
4.37913e-09
0.000223374
-7.17515e-08
-1.32213e-08
6.57213e-10
-0.00022931
2.87225e-08
-0.000171063
8.19208e-10
-0.000223354
3.31018e-08
1.43875e-09
0.000143379
-2.44596e-08
-7.9251e-05
7.92769e-05
-1.42612e-09
3.46173e-09
0.000193593
-4.38086e-08
0.000263174
-1.69475e-08
-8.02207e-10
3.31871e-08
-0.000263193
0.000263219
-4.36918e-09
-6.17823e-08
1.51464e-10
-7.92681e-05
1.69638e-08
7.92598e-05
-0.0002632
2.44185e-08
0.000263245
-6.17429e-08
-3.77393e-09
2.2573e-08
3.3185e-08
7.92857e-05
3.0615e-10
-2.89643e-08
-0.000143337
3.21638e-08
2.45035e-09
-7.02028e-08
0.00017103
7.29104e-10
-0.000171044
0.000223314
-1.24355e-08
3.31528e-08
-0.000223334
-7.17575e-08
-0.000143348
-0.000143297
3.38217e-10
-3.09112e-08
1.63822e-09
0.000143326
7.62849e-10
0.000171033
6.29858e-12
-1.44013e-08
0.000223269
8.32933e-10
3.05257e-08
3.21081e-08
2.16426e-09
0.000229313
3.78415e-11
-7.01628e-08
-3.05731e-10
0.000171065
2.35943e-11
4.35493e-09
0.000223306
-6.91803e-08
7.92328e-05
1.9121e-08
-7.92522e-05
2.85531e-10
-3.68912e-09
-0.000193598
2.2463e-08
2.64569e-08
-0.000263145
-4.36505e-09
-5.91025e-08
0.000263185
-1.65462e-09
7.92609e-05
-0.00026316
-8.52296e-10
3.0653e-08
-7.92241e-05
-2.64987e-08
-1.91045e-08
0.000263119
3.06463e-08
3.27894e-09
-4.36243e-08
-5.91503e-08
0.000143313
-7.74572e-10
1.43949e-08
-1.31848e-08
9.17436e-10
-1.08653e-11
2.86071e-08
-3.27975e-10
-0.000171051
1.46884e-11
0.000171084
3.08948e-08
-0.000223289
-6.9159e-08
0.000223326
0.000143342
-5.65526e-12
3.04873e-08
-0.000143368
2.94764e-10
-2.89226e-08
1.45243e-09
0.000143395
7.45291e-10
0.000171067
-1.24127e-08
0.000223354
8.35947e-10
3.307e-08
3.21213e-08
2.45471e-09
0.000229349
-7.01784e-08
-1.08215e-10
0.0001711
4.39198e-09
0.000223394
-7.17304e-08
1.6996e-08
7.92773e-05
-7.92944e-05
8.914e-11
-3.83779e-09
-0.000193633
-5.04562e-09
2.25961e-08
-0.000263252
2.43295e-08
-4.40531e-09
-6.16529e-08
0.000263297
-0.000263271
-8.54576e-10
3.31934e-08
-1.46773e-09
7.93031e-05
-7.92686e-05
-2.43724e-08
-1.69817e-08
0.000263226
3.31878e-08
3.3989e-09
6.80757e-09
-4.37399e-08
-6.17e-08
-7.54909e-10
1.24051e-08
0.000143383
-1.32031e-08
6.69313e-10
2.86371e-08
-0.000171086
-2.88136e-10
0.000171118
-0.000223374
2.8906e-08
-7.17172e-08
0.000223414
3.30247e-08
0.000143411
-7.0053e-09
-7.03755e-09
0.000213715
1.22836e-08
1.01326e-08
-0.000213723
-8.0515e-05
-1.23905e-08
-1.20038e-08
8.05394e-05
-8.05286e-05
-1.23332e-08
-1.20574e-08
8.0553e-05
9.4569e-09
-8.05314e-05
9.4203e-09
-8.05451e-05
-2.7203e-08
-2.51249e-08
0.000213742
3.16667e-08
-3.85637e-08
-0.000221802
0.000221842
2.72291e-08