/*--------------------------------*- C++ -*----------------------------------*\
| =========                 |                                                 |
| \\      /  F ield         | OpenFOAM: The Open Source CFD Toolbox           |
|  \\    /   O peration     | Version:  v1906                                 |
|   \\  /    A nd           | Web:      www.OpenFOAM.com                      |
|    \\/     M anipulation  |                                                 |
\*---------------------------------------------------------------------------*/
FoamFile
{
    version     2.0;
    format      ascii;
    class       volVectorField;
    location    "500";
    object      U;
}
// * * * * * * * * * * * * * * * * * * * * * * * * * * * * * * * * * * * * * //

dimensions      [0 1 -1 0 0 0 0];


internalField   nonuniform List<vector> 
42840
(
(-9.59491e-06 -9.58287e-06 0.112516)
(1.1131e-05 -5.96413e-06 0.107501)
(-5.9724e-06 1.11367e-05 0.1075)
(-2.39973e-05 -2.39947e-05 0.104199)
(-2.38685e-05 -2.387e-05 0.104201)
(2.39866e-05 2.39875e-05 0.104199)
(-4.16782e-05 -4.16729e-05 0.104316)
(-5.95217e-06 -1.10976e-05 0.107499)
(5.94983e-06 -1.10966e-05 0.107498)
(-6.04501e-06 -1.12139e-05 0.107492)
(6.0453e-06 -1.12108e-05 0.107491)
(-2.39858e-05 2.39652e-05 0.104199)
(4.16804e-05 -4.16631e-05 0.104317)
(-1.11308e-05 -5.9688e-06 0.107501)
(-1.11027e-05 5.95462e-06 0.107498)
(-1.12467e-05 -6.06211e-06 0.107493)
(-1.12169e-05 6.04741e-06 0.107491)
(1.11048e-05 5.95376e-06 0.107499)
(1.12453e-05 -6.0583e-06 0.107494)
(1.12201e-05 6.04652e-06 0.107491)
(2.3963e-05 -2.40082e-05 0.104199)
(-4.16601e-05 4.16823e-05 0.104316)
(5.97351e-06 1.1141e-05 0.1075)
(-6.0649e-06 1.12512e-05 0.107493)
(6.07001e-06 1.12533e-05 0.107493)
(4.16788e-05 4.16667e-05 0.104316)
(1.12631e-05 6.08056e-06 0.107489)
(6.1032e-06 1.1295e-05 0.107491)
(-2.98144e-07 -1.66136e-05 0.0913964)
(7.12802e-07 7.11845e-06 0.0821931)
(-1.21875e-06 -1.20727e-05 0.0822528)
(-2.45229e-07 5.00171e-06 0.0913436)
(-2.63773e-06 4.33221e-06 0.0715116)
(3.29261e-06 -5.94049e-06 0.0715733)
(-1.66454e-05 -3.07009e-07 0.0913959)
(7.1293e-06 6.63428e-07 0.0821922)
(-1.20944e-05 -1.17628e-06 0.0822532)
(5.03553e-06 -2.42074e-07 0.0913441)
(9.59581e-06 -9.57532e-06 0.112516)
(-9.5853e-06 9.60249e-06 0.112515)
(9.59069e-06 9.60628e-06 0.112515)
(-9.87385e-06 -9.86009e-06 0.112488)
(9.87412e-06 -9.853e-06 0.112488)
(-9.86253e-06 9.87994e-06 0.112487)
(9.87048e-06 9.88305e-06 0.112488)
(2.7268e-05 -6.92356e-07 0.0985601)
(-8.74035e-06 3.12637e-06 0.0929748)
(1.39381e-05 -2.50104e-06 0.109933)
(1.11703e-05 -5.99532e-06 0.107499)
(2.04247e-05 -7.76458e-06 0.0930395)
(1.40368e-05 -2.51941e-06 0.109928)
(-8.1512e-06 -4.39514e-07 0.0984984)
(4.26529e-06 -2.60869e-06 0.0715091)
(-5.88568e-06 3.25488e-06 0.0715748)
(-7.02819e-07 2.72381e-05 0.0985603)
(-2.50533e-06 1.39486e-05 0.109932)
(3.15e-06 -8.78294e-06 0.0929756)
(-6.00144e-06 1.11767e-05 0.107498)
(-2.52427e-06 1.40488e-05 0.109927)
(-7.80067e-06 2.04694e-05 0.0930393)
(-4.29373e-07 -8.12381e-06 0.0984985)
(-3.53357e-06 -3.53296e-06 0.0875181)
(-3.52421e-06 -3.53552e-06 0.0875168)
(4.17381e-05 4.17277e-05 0.104315)
(9.95817e-06 6.89894e-06 0.0875759)
(6.95261e-06 9.93707e-06 0.0875741)
(-3.56992e-06 -3.49289e-06 0.0875501)
(-3.48114e-06 -3.57824e-06 0.0875488)
(2.65358e-06 4.29821e-06 0.0715127)
(-3.30812e-06 -5.90852e-06 0.0715738)
(4.3143e-06 2.65652e-06 0.0715116)
(-5.91908e-06 -3.32671e-06 0.0715732)
(3.51851e-06 3.53887e-06 0.087519)
(3.54394e-06 3.53264e-06 0.0875166)
(-4.17368e-05 -4.17289e-05 0.104315)
(-6.90961e-06 -9.94952e-06 0.0875757)
(-9.95632e-06 -6.94828e-06 0.0875741)
(-3.33317e-06 -5.8823e-06 0.071589)
(2.62244e-06 4.30907e-06 0.0715281)
(-5.89055e-06 -3.35237e-06 0.0715885)
(4.32611e-06 2.62351e-06 0.071527)
(2.39153e-05 2.39154e-05 0.1042)
(-6.91922e-06 -9.91532e-06 0.0875916)
(-9.92029e-06 -6.95753e-06 0.08759)
(3.4978e-06 3.55709e-06 0.087535)
(3.56464e-06 3.50886e-06 0.0875326)
(3.20027e-07 -1.66172e-05 0.0913963)
(-6.66642e-07 7.16006e-06 0.0821924)
(1.18166e-06 -1.21192e-05 0.0822522)
(2.41016e-07 5.01061e-06 0.0913435)
(-7.0633e-07 -2.72709e-05 0.0985602)
(3.16355e-06 8.75375e-06 0.0929753)
(-2.50081e-06 -1.39254e-05 0.109933)
(-5.98223e-06 -1.11376e-05 0.107497)
(-7.78769e-06 -2.04294e-05 0.0930382)
(-2.52047e-06 -1.40252e-05 0.109928)
(-4.01303e-07 8.14757e-06 0.0984983)
(7.06054e-07 -2.72726e-05 0.09856)
(-3.15221e-06 8.80783e-06 0.0929737)
(2.49812e-06 -1.39231e-05 0.109932)
(5.98081e-06 -1.11355e-05 0.107496)
(7.77405e-06 -2.0464e-05 0.0930379)
(2.51917e-06 -1.40212e-05 0.109927)
(4.21224e-07 8.1566e-06 0.0984981)
(-2.44602e-07 4.99017e-06 0.0913591)
(-1.2294e-06 -1.20289e-05 0.0822696)
(6.9138e-07 7.12602e-06 0.08221)
(-2.97163e-07 -1.65958e-05 0.0914119)
(2.38645e-07 4.99872e-06 0.0913591)
(1.20173e-06 -1.20988e-05 0.0822691)
(-6.4779e-07 7.17347e-06 0.0822093)
(3.18824e-07 -1.65999e-05 0.0914118)
(-4.02956e-07 8.09452e-06 0.0985087)
(-6.01833e-06 -1.11826e-05 0.107494)
(-7.78894e-06 -2.04075e-05 0.0930526)
(-2.56236e-06 -1.42147e-05 0.109918)
(3.14583e-06 8.75189e-06 0.0929897)
(-2.54371e-06 -1.41271e-05 0.109923)
(-7.09122e-07 -2.72756e-05 0.0985706)
(4.19859e-07 8.10391e-06 0.0985085)
(6.01726e-06 -1.11803e-05 0.107494)
(7.77651e-06 -2.04407e-05 0.0930523)
(2.56212e-06 -1.42105e-05 0.109917)
(-3.13426e-06 8.80592e-06 0.0929882)
(2.54146e-06 -1.41238e-05 0.109922)
(7.05964e-07 -2.72757e-05 0.0985704)
(-3.50914e-06 3.544e-06 0.0875164)
(-3.4994e-06 3.47616e-06 0.0875173)
(4.17386e-05 -4.17209e-05 0.104316)
(6.89431e-06 -9.94815e-06 0.0875745)
(9.89777e-06 -6.89563e-06 0.0875766)
(-4.27347e-06 2.57808e-06 0.0715095)
(5.87931e-06 -3.26057e-06 0.0715748)
(3.31697e-06 -5.91238e-06 0.0715885)
(-2.60694e-06 4.34297e-06 0.0715269)
(-2.3913e-05 2.38909e-05 0.1042)
(6.90178e-06 -9.91274e-06 0.0875904)
(9.86181e-06 -6.9036e-06 0.0875925)
(-3.48802e-06 3.5615e-06 0.0875324)
(-3.51782e-06 3.45552e-06 0.0875333)
(5.85033e-06 -3.28727e-06 0.0715901)
(-4.28539e-06 2.54619e-06 0.0715248)
(-2.72851e-05 -6.97949e-07 0.0985597)
(8.76047e-06 3.1571e-06 0.0929743)
(-1.39335e-05 -2.50221e-06 0.109932)
(-1.11705e-05 -5.99835e-06 0.107498)
(-2.04525e-05 -7.7924e-06 0.0930388)
(-1.40405e-05 -2.52184e-06 0.109927)
(8.16361e-06 -4.20743e-07 0.0984982)
(-1.66383e-05 2.76064e-07 0.0913959)
(7.11246e-06 -6.70929e-07 0.0821916)
(-1.2074e-05 1.16871e-06 0.0822533)
(5.03302e-06 2.78548e-07 0.0913442)
(-2.72837e-05 6.92085e-07 0.0985597)
(-1.39305e-05 2.4981e-06 0.109932)
(8.75878e-06 -3.13424e-06 0.0929738)
(-1.11416e-05 5.98399e-06 0.107495)
(-1.40289e-05 2.51816e-06 0.109927)
(-2.0431e-05 7.74353e-06 0.0930386)
(8.16627e-06 4.29789e-07 0.0984982)
(5.0239e-06 -2.41669e-07 0.0913597)
(-1.20604e-05 -1.19318e-06 0.08227)
(7.14209e-06 6.39667e-07 0.0822092)
(-1.66249e-05 -3.07274e-07 0.0914114)
(8.11215e-06 -4.22594e-07 0.0985086)
(-1.12153e-05 -6.03518e-06 0.107496)
(-2.04273e-05 -7.7938e-06 0.0930532)
(-1.42307e-05 -2.56451e-06 0.109917)
(8.76028e-06 3.13431e-06 0.0929888)
(-1.41361e-05 -2.5465e-06 0.109922)
(-2.72878e-05 -7.03219e-07 0.0985701)
(5.02037e-06 2.76628e-07 0.0913598)
(-1.2043e-05 1.18505e-06 0.0822702)
(7.12243e-06 -6.49811e-07 0.0822085)
(-1.66191e-05 2.73517e-07 0.0914114)
(8.11381e-06 4.27594e-07 0.0985087)
(-1.11867e-05 6.02171e-06 0.107493)
(-1.42182e-05 2.56065e-06 0.109917)
(-2.04076e-05 7.74564e-06 0.093053)
(-1.41318e-05 2.54074e-06 0.109922)
(8.75696e-06 -3.11522e-06 0.0929883)
(-2.7285e-05 6.90678e-07 0.0985701)
(1.6612e-05 -3.07693e-07 0.0913965)
(-7.11922e-06 6.44102e-07 0.082192)
(1.2083e-05 -1.16602e-06 0.0822535)
(-5.00941e-06 -2.5587e-07 0.0913438)
(2.72596e-05 7.03415e-07 0.09856)
(1.39334e-05 2.49967e-06 0.109932)
(-8.75865e-06 -3.17368e-06 0.0929751)
(1.11437e-05 5.98401e-06 0.107496)
(1.40318e-05 2.52221e-06 0.109927)
(2.04434e-05 7.76987e-06 0.0930386)
(-8.14776e-06 4.00634e-07 0.0984986)
(1.66057e-05 3.09489e-07 0.0913965)
(-7.13648e-06 -6.90299e-07 0.0821933)
(1.21062e-05 1.16978e-06 0.0822529)
(-5.00449e-06 2.23173e-07 0.0913439)
(-8.09468e-06 -4.41171e-07 0.0985089)
(1.12147e-05 -6.0318e-06 0.107496)
(2.03996e-05 -7.76814e-06 0.0930539)
(1.42267e-05 -2.56142e-06 0.109918)
(-8.7395e-06 3.10788e-06 0.0929893)
(1.41391e-05 -2.54328e-06 0.109923)
(2.72723e-05 -6.95548e-07 0.0985705)
(-4.99647e-06 -2.55819e-07 0.0913594)
(1.20618e-05 -1.18853e-06 0.0822703)
(-7.1338e-06 6.2319e-07 0.0822089)
(1.65942e-05 -3.07681e-07 0.091412)
(-8.09513e-06 4.0109e-07 0.098509)
(1.11901e-05 6.01953e-06 0.107494)
(1.42221e-05 2.56272e-06 0.109917)
(2.04202e-05 7.76984e-06 0.093053)
(1.41351e-05 2.54274e-06 0.109922)
(-8.75648e-06 -3.15595e-06 0.0929895)
(2.72654e-05 7.06542e-07 0.0985704)
(-4.99225e-06 2.21349e-07 0.0913594)
(1.20758e-05 1.18563e-06 0.0822697)
(-7.14476e-06 -6.69405e-07 0.0822102)
(1.6587e-05 3.10344e-07 0.091412)
(3.51831e-06 -3.53275e-06 0.0875151)
(3.4985e-06 -3.55771e-06 0.0875186)
(-4.17205e-05 4.17436e-05 0.104315)
(-9.93269e-06 6.90724e-06 0.087575)
(-6.93504e-06 9.95548e-06 0.0875761)
(2.63252e-06 -4.31805e-06 0.0715127)
(-3.32014e-06 5.91723e-06 0.0715741)
(-5.85765e-06 3.27996e-06 0.07159)
(4.2759e-06 -2.57713e-06 0.0715244)
(2.38913e-05 -2.39367e-05 0.1042)
(-9.8974e-06 6.91588e-06 0.0875908)
(-6.945e-06 9.91969e-06 0.087592)
(3.53573e-06 -3.51023e-06 0.087531)
(3.47609e-06 -3.57544e-06 0.0875346)
(-3.34546e-06 5.88885e-06 0.0715893)
(2.60106e-06 -4.32847e-06 0.0715281)
(7.00202e-07 2.72442e-05 0.09856)
(2.49952e-06 1.39484e-05 0.109932)
(-3.17131e-06 -8.7693e-06 0.0929747)
(6.00517e-06 1.11788e-05 0.107498)
(2.52152e-06 1.40454e-05 0.109927)
(7.81502e-06 2.04628e-05 0.0930387)
(4.14464e-07 -8.13288e-06 0.0984986)
(-3.0827e-07 1.6586e-05 0.0913971)
(6.71692e-07 -7.14046e-06 0.0821939)
(-1.19317e-06 1.21046e-05 0.0822534)
(-2.52366e-07 -4.99151e-06 0.0913437)
(3.05102e-07 1.65973e-05 0.0913966)
(-7.23909e-07 -7.12464e-06 0.0821929)
(1.24117e-06 1.20947e-05 0.0822532)
(2.50866e-07 -5.00395e-06 0.0913441)
(-4.26591e-07 -8.06639e-06 0.098509)
(-6.03938e-06 1.122e-05 0.107496)
(-2.5657e-06 1.42376e-05 0.109917)
(-7.80309e-06 2.04448e-05 0.0930537)
(-2.54877e-06 1.41494e-05 0.109922)
(3.13088e-06 -8.78131e-06 0.0929901)
(-7.04726e-07 2.72368e-05 0.0985707)
(4.14466e-07 -8.07479e-06 0.0985091)
(6.04133e-06 1.12241e-05 0.107495)
(2.56454e-06 1.42342e-05 0.109917)
(7.81982e-06 2.0438e-05 0.0930531)
(2.54324e-06 1.41491e-05 0.109922)
(-3.15052e-06 -8.7681e-06 0.0929891)
(7.02815e-07 2.72421e-05 0.0985704)
(-2.44856e-07 -4.97389e-06 0.0913592)
(-1.21433e-06 1.20844e-05 0.0822702)
(6.51712e-07 -7.15337e-06 0.0822108)
(-3.11835e-07 1.65614e-05 0.0914128)
(2.4781e-07 -4.98534e-06 0.0913596)
(1.26054e-06 1.20616e-05 0.08227)
(-7.02571e-07 -7.1365e-06 0.0822098)
(3.08818e-07 1.65724e-05 0.0914122)
(-4.3114e-06 -2.65176e-06 0.0715122)
(5.93332e-06 3.28393e-06 0.0715737)
(-2.66088e-06 -4.30336e-06 0.0715119)
(3.34648e-06 5.90308e-06 0.0715734)
(-2.39238e-05 -2.39228e-05 0.1042)
(9.92311e-06 6.90873e-06 0.0875918)
(6.96526e-06 9.90074e-06 0.08759)
(-3.55114e-06 -3.51135e-06 0.0875341)
(-3.50081e-06 -3.55467e-06 0.0875328)
(5.90612e-06 3.30901e-06 0.0715889)
(-4.32225e-06 -2.62028e-06 0.0715276)
(3.37419e-06 5.8743e-06 0.0715886)
(-2.62855e-06 -4.31466e-06 0.0715273)
(1.43175e-05 2.58241e-06 0.109912)
(-8.76044e-06 -3.13731e-06 0.0930041)
(-8.04929e-06 3.99508e-07 0.0985196)
(-7.16036e-06 -6.51335e-07 0.082227)
(-4.98206e-06 2.20005e-07 0.0913751)
(-3.13079e-06 -8.77431e-06 0.0930036)
(-6.80418e-07 -7.14827e-06 0.0822267)
(-4.33446e-06 -2.59192e-06 0.0715428)
(-2.59903e-06 -4.32773e-06 0.0715425)
(-6.70117e-07 4.21637e-06 0.076849)
(1.38374e-07 -7.43096e-06 0.0786692)
(-1.1407e-06 -1.59854e-05 0.0899177)
(-2.44599e-07 4.99458e-06 0.0913514)
(-1.83627e-07 3.83427e-06 0.078626)
(-5.19568e-07 5.48624e-06 0.0898672)
(5.36503e-07 -7.42618e-06 0.0768988)
(2.36515e-07 -6.05331e-06 0.06844)
(-1.21019e-06 -1.20871e-05 0.0822444)
(-7.13355e-07 5.78287e-06 0.085787)
(-1.36565e-06 -1.23184e-05 0.0858444)
(-8.49731e-07 4.84278e-06 0.0683752)
(-8.6491e-07 4.84405e-06 0.0683828)
(-1.37182e-06 -1.23011e-05 0.0858528)
(7.0261e-07 7.12278e-06 0.0822016)
(-7.22917e-07 5.78989e-06 0.0857955)
(2.23144e-07 -6.04452e-06 0.0684476)
(5.44048e-07 -7.42594e-06 0.0768904)
(-2.9882e-07 -1.66263e-05 0.0913887)
(-1.82734e-07 3.83843e-06 0.0786175)
(-5.13975e-07 5.49334e-06 0.0898591)
(1.37408e-07 -7.43441e-06 0.0786607)
(-1.13863e-06 -1.59956e-05 0.0899097)
(-6.62345e-07 4.21688e-06 0.0768406)
(3.27888e-06 -5.95425e-06 0.0715656)
(-2.62194e-06 4.33748e-06 0.0715193)
(4.27687e-06 -6.71932e-07 0.0768515)
(-1.60354e-05 -1.13329e-06 0.0899172)
(-7.46151e-06 1.25166e-07 0.0786685)
(5.02633e-06 -2.41585e-07 0.091352)
(5.54305e-06 -5.23793e-07 0.0898677)
(3.86913e-06 -1.75817e-07 0.0786279)
(-7.47422e-06 5.45839e-07 0.0768984)
(-6.12439e-06 2.30241e-07 0.0684369)
(-1.21098e-05 -1.16528e-06 0.0822448)
(5.83907e-06 -7.23107e-07 0.0857868)
(-1.23847e-05 -1.34547e-06 0.0858432)
(4.92074e-06 -8.22363e-07 0.0683758)
(4.92137e-06 -8.3976e-07 0.0683834)
(-1.237e-05 -1.35561e-06 0.0858516)
(7.13455e-06 6.51254e-07 0.0822007)
(5.84474e-06 -7.34338e-07 0.0857953)
(-6.11519e-06 2.15985e-07 0.0684445)
(-7.4794e-06 5.53297e-07 0.07689)
(-1.66543e-05 -3.08607e-07 0.0913882)
(5.55284e-06 -5.16044e-07 0.0898596)
(3.87315e-06 -1.74965e-07 0.0786193)
(-1.60439e-05 -1.12924e-06 0.0899092)
(-7.46541e-06 1.24866e-07 0.07866)
(4.27585e-06 -6.62697e-07 0.0768431)
(-5.89892e-06 3.24097e-06 0.0715671)
(4.27032e-06 -2.59247e-06 0.0715168)
(-3.10505e-06 -3.13217e-06 0.0835873)
(3.62909e-06 5.1306e-06 0.0683537)
(5.16703e-06 3.60224e-06 0.0683477)
(-2.62488e-06 -4.09856e-06 0.0682977)
(-4.07295e-06 -2.64796e-06 0.0682919)
(7.29006e-06 7.25127e-06 0.0836338)
(1.68833e-05 1.02907e-05 0.0916921)
(-1.09995e-05 -5.57124e-06 0.0962498)
(9.97461e-06 6.89383e-06 0.087568)
(-3.80587e-06 -3.05751e-06 0.0815233)
(2.4088e-05 1.42008e-05 0.0962986)
(8.13547e-06 3.98498e-06 0.0815754)
(-7.76351e-06 -3.7983e-06 0.0916442)
(1.03499e-05 1.68685e-05 0.0916855)
(-5.57454e-06 -1.09893e-05 0.096247)
(6.94568e-06 9.95409e-06 0.0875662)
(-3.05353e-06 -3.84168e-06 0.0815189)
(1.4252e-05 2.40794e-05 0.096296)
(4.04467e-06 8.14004e-06 0.08157)
(-3.80014e-06 -7.78716e-06 0.0916377)
(-7.76881e-06 -3.79727e-06 0.0916512)
(8.12105e-06 3.98937e-06 0.0815832)
(-3.5416e-06 -3.5215e-06 0.0875261)
(2.40662e-05 1.41995e-05 0.0963044)
(-1.09981e-05 -5.5619e-06 0.0962557)
(-3.81248e-06 -3.04791e-06 0.0815311)
(1.68608e-05 1.02817e-05 0.0916991)
(-3.79829e-06 -7.7933e-06 0.0916447)
(4.04999e-06 8.12418e-06 0.0815778)
(-3.51208e-06 -3.54514e-06 0.0875248)
(1.42527e-05 2.40569e-05 0.0963019)
(-5.56408e-06 -1.09887e-05 0.0962529)
(-3.04393e-06 -3.85007e-06 0.0815267)
(1.03428e-05 1.68455e-05 0.0916925)
(7.29939e-06 7.26153e-06 0.0836263)
(-2.62366e-06 -4.10209e-06 0.0682909)
(-4.07725e-06 -2.64614e-06 0.0682851)
(3.63732e-06 5.13296e-06 0.068347)
(5.16847e-06 3.61099e-06 0.068341)
(-3.10296e-06 -3.12927e-06 0.0835798)
(1.67899e-05 1.02497e-05 0.0917201)
(-1.10097e-05 -5.54283e-06 0.0962734)
(-3.83172e-06 -3.01925e-06 0.0815545)
(9.90442e-06 6.91419e-06 0.0875998)
(-7.79331e-06 -3.80297e-06 0.0916723)
(2.39947e-05 1.41905e-05 0.096322)
(8.05813e-06 3.98768e-06 0.0816066)
(1.03152e-05 1.67698e-05 0.0917135)
(-5.54248e-06 -1.10034e-05 0.0962706)
(-3.01536e-06 -3.87546e-06 0.0815502)
(6.97027e-06 9.88047e-06 0.0875979)
(-3.80238e-06 -7.8208e-06 0.0916658)
(1.42499e-05 2.39819e-05 0.0963194)
(4.06188e-06 8.07169e-06 0.0816011)
(7.26348e-06 7.21898e-06 0.0836563)
(-2.63187e-06 -4.08867e-06 0.0683179)
(-4.06115e-06 -2.65625e-06 0.0683121)
(-3.11607e-06 -3.1459e-06 0.0836099)
(3.60769e-06 5.12258e-06 0.0683738)
(5.16146e-06 3.57548e-06 0.0683678)
(-3.29471e-06 -5.92181e-06 0.0715661)
(2.63788e-06 4.30342e-06 0.0715204)
(-5.93258e-06 -3.3118e-06 0.0715656)
(4.32019e-06 2.63951e-06 0.0715193)
(3.12192e-06 3.11483e-06 0.0835873)
(-5.1268e-06 -3.63162e-06 0.0683537)
(-3.60783e-06 -5.16496e-06 0.0683474)
(4.0847e-06 2.63666e-06 0.0682979)
(2.64541e-06 4.08045e-06 0.0682916)
(-7.25531e-06 -7.28992e-06 0.0836338)
(-1.03087e-05 -1.69026e-05 0.0916922)
(5.56781e-06 1.10287e-05 0.0962501)
(-6.90455e-06 -9.96646e-06 0.0875677)
(3.05124e-06 3.84281e-06 0.0815244)
(-4.0008e-06 -8.15792e-06 0.0815752)
(-1.42143e-05 -2.41057e-05 0.0962988)
(3.79957e-06 7.79926e-06 0.0916444)
(-1.68859e-05 -1.03539e-05 0.0916855)
(1.09875e-05 5.57408e-06 0.0962469)
(-9.97371e-06 -6.94111e-06 0.0875661)
(3.84527e-06 3.05326e-06 0.0815186)
(-8.15017e-06 -4.03882e-06 0.0815697)
(-2.40988e-05 -1.42483e-05 0.0962962)
(7.79008e-06 3.80757e-06 0.0916376)
(3.79884e-06 7.8045e-06 0.0916514)
(-4.0051e-06 -8.14327e-06 0.081583)
(3.50799e-06 3.54741e-06 0.087527)
(-1.42133e-05 -2.4084e-05 0.0963046)
(3.04313e-06 3.85067e-06 0.0815322)
(-1.02996e-05 -1.68802e-05 0.0916991)
(5.55914e-06 1.10279e-05 0.0962559)
(7.79716e-06 3.80676e-06 0.0916447)
(-8.13293e-06 -4.04358e-06 0.0815775)
(3.55405e-06 3.52096e-06 0.0875246)
(-2.40761e-05 -1.42492e-05 0.096302)
(3.85426e-06 3.04405e-06 0.0815264)
(-1.68611e-05 -1.0346e-05 0.0916925)
(1.09877e-05 5.56427e-06 0.0962528)
(-7.26568e-06 -7.29911e-06 0.0836262)
(4.08747e-06 2.63528e-06 0.0682912)
(2.643e-06 4.08451e-06 0.0682848)
(-5.12912e-06 -3.63994e-06 0.0683469)
(-3.6163e-06 -5.16623e-06 0.0683407)
(3.11834e-06 3.11267e-06 0.0835798)
(2.60806e-06 4.31451e-06 0.0715357)
(-3.32018e-06 -5.89492e-06 0.0715814)
(4.33236e-06 2.6085e-06 0.0715346)
(-5.90523e-06 -3.33973e-06 0.0715809)
(-7.24512e-06 -7.2805e-06 0.0836413)
(4.08155e-06 2.63916e-06 0.0683047)
(2.64846e-06 4.0758e-06 0.0682983)
(3.12556e-06 3.11715e-06 0.0835949)
(-5.12306e-06 -3.62389e-06 0.0683604)
(-3.59985e-06 -5.16266e-06 0.0683541)
(3.80159e-06 7.81899e-06 0.0916655)
(-1.4208e-05 -2.40368e-05 0.0963163)
(3.48896e-06 3.56607e-06 0.087543)
(-4.00613e-06 -8.10515e-06 0.0815986)
(3.02673e-06 3.86583e-06 0.0815478)
(5.5453e-06 1.10327e-05 0.0962677)
(-1.02791e-05 -1.68342e-05 0.0917131)
(7.81391e-06 3.80796e-06 0.0916587)
(-2.40275e-05 -1.42466e-05 0.0963137)
(3.57499e-06 3.49948e-06 0.0875406)
(-8.10574e-06 -4.05581e-06 0.0815931)
(3.87483e-06 3.02782e-06 0.0815421)
(1.09955e-05 5.54965e-06 0.0962646)
(-1.68119e-05 -1.03269e-05 0.0917065)
(-1.02904e-05 -1.6857e-05 0.0917061)
(3.03473e-06 3.85748e-06 0.08154)
(5.55312e-06 1.10297e-05 0.0962618)
(-6.91466e-06 -9.93312e-06 0.0875836)
(3.80193e-06 7.81258e-06 0.0916584)
(-4.00856e-06 -8.1283e-06 0.0815908)
(-1.42113e-05 -2.40613e-05 0.0963104)
(-1.68374e-05 -1.03376e-05 0.0916995)
(3.86575e-06 3.0364e-06 0.0815342)
(1.09913e-05 5.55625e-06 0.0962587)
(-9.93812e-06 -6.95431e-06 0.087582)
(7.80496e-06 3.8061e-06 0.0916517)
(-8.11452e-06 -4.04607e-06 0.0815853)
(-2.40521e-05 -1.42477e-05 0.0963078)
(3.12994e-06 3.12067e-06 0.0836024)
(-5.12075e-06 -3.6176e-06 0.0683671)
(-3.59012e-06 -5.16028e-06 0.0683608)
(4.07798e-06 2.64121e-06 0.0683114)
(2.65043e-06 4.07201e-06 0.0683051)
(-7.23296e-06 -7.27122e-06 0.0836488)
(6.71362e-07 4.27151e-06 0.0768507)
(-1.16785e-07 -7.43042e-06 0.0786691)
(1.15909e-06 -1.60304e-05 0.089917)
(2.39948e-07 5.00451e-06 0.0913513)
(1.81298e-07 3.8407e-06 0.0786262)
(5.15185e-07 5.53675e-06 0.0898671)
(-5.27795e-07 -7.46934e-06 0.076898)
(-2.15446e-07 -6.12286e-06 0.0684364)
(1.17224e-06 -1.21322e-05 0.0822438)
(7.28487e-07 5.8401e-06 0.0857863)
(1.36221e-06 -1.23744e-05 0.0858426)
(8.35071e-07 4.92334e-06 0.0683752)
(8.50419e-07 4.92349e-06 0.0683828)
(1.369e-06 -1.23588e-05 0.0858511)
(-6.57109e-07 7.1655e-06 0.0822009)
(7.37841e-07 5.84657e-06 0.0857948)
(-2.03969e-07 -6.11409e-06 0.0684439)
(-5.33495e-07 -7.47461e-06 0.0768896)
(3.2244e-07 -1.66296e-05 0.0913885)
(1.81315e-07 3.84236e-06 0.0786177)
(5.0969e-07 5.54426e-06 0.089859)
(-1.162e-07 -7.44013e-06 0.0786606)
(1.15667e-06 -1.60403e-05 0.089909)
(6.63085e-07 4.27197e-06 0.0768422)
(5.31038e-07 -7.41431e-06 0.0769072)
(-1.83498e-07 3.8335e-06 0.0786346)
(-5.24654e-07 5.48288e-06 0.0898753)
(-2.97517e-07 -1.66051e-05 0.0914041)
(-6.77537e-07 4.22063e-06 0.0768574)
(1.37816e-07 -7.4224e-06 0.0786777)
(-1.1448e-06 -1.59743e-05 0.0899258)
(-8.94218e-07 4.84373e-06 0.068398)
(6.80999e-07 7.12873e-06 0.0822184)
(-1.38716e-06 -1.22691e-05 0.0858697)
(1.99661e-07 -6.02688e-06 0.0684626)
(-7.42079e-07 5.80039e-06 0.0858124)
(2.11154e-07 -6.03595e-06 0.0684551)
(-7.32042e-07 5.79526e-06 0.085804)
(-1.22626e-06 -1.2058e-05 0.0822612)
(-8.80829e-07 4.84279e-06 0.0683904)
(-1.37892e-06 -1.22862e-05 0.0858613)
(-6.85525e-07 4.21924e-06 0.0768658)
(-2.44072e-07 4.98361e-06 0.091367)
(1.36825e-07 -7.42254e-06 0.0786861)
(-1.14827e-06 -1.59651e-05 0.0899338)
(5.23217e-07 -7.41158e-06 0.0769155)
(-1.85664e-07 3.83298e-06 0.0786431)
(-5.31517e-07 5.47732e-06 0.0898834)
(-5.21754e-07 -7.46033e-06 0.0769064)
(1.80453e-07 3.84002e-06 0.0786347)
(5.20701e-07 5.53137e-06 0.0898752)
(3.19688e-07 -1.66089e-05 0.091404)
(6.7981e-07 4.26748e-06 0.0768591)
(-1.17234e-07 -7.42526e-06 0.0786776)
(1.16309e-06 -1.60209e-05 0.0899251)
(8.80347e-07 4.9228e-06 0.068398)
(-6.39218e-07 7.18103e-06 0.0822178)
(1.38336e-06 -1.23269e-05 0.0858679)
(7.58087e-07 5.8574e-06 0.0858118)
(-1.79211e-07 -6.09612e-06 0.068459)
(-1.91554e-07 -6.10512e-06 0.0684515)
(7.48246e-07 5.85218e-06 0.0858033)
(1.18885e-06 -1.21047e-05 0.0822607)
(8.66117e-07 4.92293e-06 0.0683904)
(1.37583e-06 -1.23425e-05 0.0858595)
(6.87742e-07 4.2671e-06 0.0768675)
(2.38769e-07 4.99327e-06 0.0913669)
(-1.1707e-07 -7.4157e-06 0.078686)
(1.16745e-06 -1.6012e-05 0.0899331)
(1.80754e-07 3.837e-06 0.0786432)
(5.26549e-07 5.52507e-06 0.0898833)
(-5.15035e-07 -7.45602e-06 0.0769147)
(-3.13791e-06 3.12185e-06 0.0835871)
(5.1355e-06 -3.63748e-06 0.0683481)
(3.61268e-06 -5.16046e-06 0.0683535)
(-4.09262e-06 2.64146e-06 0.0682919)
(-2.65062e-06 4.07683e-06 0.0682973)
(7.27632e-06 -7.29346e-06 0.0836339)
(1.03358e-05 -1.68923e-05 0.0916859)
(-5.59047e-06 1.10237e-05 0.0962465)
(6.88869e-06 -9.96542e-06 0.0875666)
(-3.04884e-06 3.81652e-06 0.0815184)
(3.99561e-06 -8.1413e-06 0.0815707)
(1.42202e-05 -2.40999e-05 0.0962962)
(-3.83403e-06 7.78928e-06 0.0916373)
(1.68907e-05 -1.03406e-05 0.0916924)
(-1.09786e-05 5.56031e-06 0.0962498)
(9.91413e-06 -6.89027e-06 0.0875687)
(-3.80951e-06 3.044e-06 0.081523)
(2.40722e-05 -1.42302e-05 0.0962992)
(8.10401e-06 -4.02782e-06 0.0815755)
(-7.79342e-06 3.79595e-06 0.091644)
(-3.83208e-06 7.79376e-06 0.0916443)
(3.99898e-06 -8.12529e-06 0.0815785)
(-3.49798e-06 3.55184e-06 0.0875244)
(1.4219e-05 -2.40778e-05 0.096302)
(-3.03952e-06 3.82377e-06 0.0815262)
(-5.58159e-06 1.10228e-05 0.0962523)
(1.0327e-05 -1.68703e-05 0.0916928)
(-7.79839e-06 3.79479e-06 0.0916511)
(8.08618e-06 -4.03033e-06 0.0815833)
(-3.5085e-06 3.46533e-06 0.0875253)
(2.40504e-05 -1.42298e-05 0.096305)
(-1.09771e-05 5.55076e-06 0.0962557)
(-3.81581e-06 3.03383e-06 0.0815308)
(1.68682e-05 -1.03334e-05 0.0916994)
(7.28599e-06 -7.30242e-06 0.0836264)
(-4.09622e-06 2.63975e-06 0.0682852)
(-2.64814e-06 4.08062e-06 0.0682905)
(5.13751e-06 -3.6455e-06 0.0683414)
(3.62124e-06 -5.16155e-06 0.0683468)
(-3.1354e-06 3.11982e-06 0.0835796)
(5.89327e-06 -3.2468e-06 0.0715672)
(-4.27947e-06 2.56197e-06 0.0715172)
(-2.59223e-06 4.34866e-06 0.0715346)
(3.30505e-06 -5.92761e-06 0.0715809)
(7.26715e-06 -7.28416e-06 0.0836414)
(-4.08862e-06 2.64357e-06 0.0682987)
(-2.65311e-06 4.07258e-06 0.068304)
(-3.14085e-06 3.12424e-06 0.0835947)
(5.13312e-06 -3.63008e-06 0.0683549)
(3.60512e-06 -5.15725e-06 0.0683603)
(-3.83413e-06 7.80857e-06 0.0916584)
(1.42161e-05 -2.40303e-05 0.0963137)
(-3.4771e-06 3.57072e-06 0.0875404)
(4.01106e-06 -8.10059e-06 0.081594)
(-5.56686e-06 1.10288e-05 0.0962641)
(-3.02513e-06 3.84351e-06 0.0815419)
(1.03074e-05 -1.68229e-05 0.0917068)
(-7.81346e-06 3.79558e-06 0.0916651)
(2.40024e-05 -1.42278e-05 0.0963167)
(-3.529e-06 3.44388e-06 0.0875413)
(8.06592e-06 -4.0459e-06 0.0815989)
(-3.833e-06 3.01659e-06 0.0815465)
(-1.0984e-05 5.53502e-06 0.0962675)
(1.68204e-05 -1.03135e-05 0.0917134)
(1.03189e-05 -1.68478e-05 0.0916998)
(-3.03368e-06 3.83436e-06 0.0815341)
(-5.57493e-06 1.10245e-05 0.0962582)
(6.89971e-06 -9.93157e-06 0.0875825)
(1.4218e-05 -2.40554e-05 0.0963078)
(-3.83287e-06 7.79917e-06 0.0916514)
(4.0017e-06 -8.10814e-06 0.0815862)
(1.68458e-05 -1.03247e-05 0.0917064)
(-3.81852e-06 3.02152e-06 0.0815387)
(-1.09791e-05 5.54325e-06 0.0962616)
(9.88025e-06 -6.90077e-06 0.0875846)
(-7.8041e-06 3.79405e-06 0.0916581)
(8.06623e-06 -4.0304e-06 0.0815911)
(2.40274e-05 -1.42287e-05 0.0963108)
(-3.14464e-06 3.12808e-06 0.0836022)
(5.13017e-06 -3.62066e-06 0.0683616)
(3.59481e-06 -5.15475e-06 0.068367)
(-4.08486e-06 2.6456e-06 0.0683054)
(-2.65514e-06 4.0691e-06 0.0683108)
(7.25348e-06 -7.27085e-06 0.0836489)
(-4.29034e-06 2.53073e-06 0.0715325)
(5.86609e-06 -3.27381e-06 0.0715825)
(4.22189e-06 7.06204e-07 0.0768493)
(-7.46605e-06 -1.56621e-07 0.0786685)
(-1.59985e-05 1.09731e-06 0.0899176)
(5.02536e-06 2.77807e-07 0.091352)
(3.86961e-06 2.12519e-07 0.0786276)
(5.50581e-06 5.6188e-07 0.0898671)
(-7.42806e-06 -5.77668e-07 0.0768987)
(-6.06906e-06 -2.68169e-07 0.0684398)
(-1.20889e-05 1.15968e-06 0.0822449)
(5.80269e-06 7.51338e-07 0.0857864)
(-1.23408e-05 1.3244e-06 0.0858443)
(4.85778e-06 8.81177e-07 0.0683748)
(4.85795e-06 8.96335e-07 0.0683824)
(-1.23241e-05 1.33144e-06 0.0858527)
(7.11811e-06 -6.60811e-07 0.0822001)
(5.80951e-06 7.60613e-07 0.0857949)
(-6.06069e-06 -2.55753e-07 0.0684474)
(-7.43311e-06 -5.84792e-07 0.0768904)
(-1.66499e-05 2.76166e-07 0.0913882)
(3.87479e-06 2.12224e-07 0.0786191)
(5.51339e-06 5.56572e-07 0.0898591)
(-7.46899e-06 -1.56899e-07 0.07866)
(-1.60078e-05 1.09489e-06 0.0899096)
(4.22337e-06 6.97799e-07 0.0768409)
(-7.46369e-06 5.39804e-07 0.0769068)
(5.5403e-06 -5.29454e-07 0.0898758)
(3.87014e-06 -1.76006e-07 0.0786364)
(-1.66325e-05 -3.06398e-07 0.0914037)
(4.27883e-06 -6.79558e-07 0.0768599)
(-1.60216e-05 -1.13631e-06 0.0899253)
(-7.46266e-06 1.23042e-07 0.078677)
(4.92201e-06 -8.72126e-07 0.0683986)
(7.1475e-06 6.28365e-07 0.0822176)
(-1.23348e-05 -1.37319e-06 0.0858685)
(-6.09639e-06 1.88918e-07 0.0684595)
(5.85882e-06 -7.57866e-07 0.0858123)
(-6.10584e-06 2.04607e-07 0.068452)
(5.85033e-06 -7.46529e-07 0.0858038)
(-1.20783e-05 -1.18503e-06 0.0822616)
(4.9211e-06 -8.55928e-07 0.068391)
(-1.23525e-05 -1.36408e-06 0.0858601)
(4.26937e-06 -6.90554e-07 0.0768683)
(5.01557e-06 -2.41675e-07 0.0913675)
(-1.60139e-05 -1.14316e-06 0.0899333)
(-7.45173e-06 1.23299e-07 0.0786855)
(-7.45646e-06 5.31261e-07 0.0769151)
(5.53223e-06 -5.38142e-07 0.0898839)
(3.86986e-06 -1.77374e-07 0.0786449)
(-7.42066e-06 -5.71943e-07 0.0769071)
(3.86947e-06 2.11856e-07 0.0786361)
(5.50015e-06 5.67166e-07 0.0898752)
(-1.6629e-05 2.73242e-07 0.0914036)
(4.21948e-06 7.14761e-07 0.0768577)
(-7.45698e-06 -1.57817e-07 0.078677)
(-1.59874e-05 1.1009e-06 0.0899257)
(4.85812e-06 9.25474e-07 0.0683975)
(7.13102e-06 -6.41226e-07 0.082217)
(-1.22908e-05 1.34574e-06 0.0858696)
(5.82048e-06 7.80676e-07 0.0858119)
(-6.04237e-06 -2.31348e-07 0.0684624)
(-6.05113e-06 -2.4337e-07 0.0684549)
(5.81464e-06 7.71094e-07 0.0858034)
(-1.20603e-05 1.17627e-06 0.0822618)
(4.85801e-06 9.11778e-07 0.06839)
(-1.23076e-05 1.3379e-06 0.0858612)
(4.21998e-06 7.22309e-07 0.0768661)
(5.0136e-06 2.7624e-07 0.0913676)
(-7.44756e-06 -1.57921e-07 0.0786854)
(-1.59784e-05 1.1046e-06 0.0899337)
(3.86589e-06 2.12789e-07 0.0786447)
(5.49428e-06 5.73227e-07 0.0898833)
(-7.41878e-06 -5.64604e-07 0.0769154)
(-4.27572e-06 -6.83649e-07 0.0768512)
(1.60343e-05 -1.14479e-06 0.0899175)
(7.42931e-06 1.28872e-07 0.0786693)
(-5.00249e-06 -2.56001e-07 0.0913516)
(-5.54845e-06 -5.26971e-07 0.0898675)
(-3.83942e-06 -1.97139e-07 0.0786265)
(7.47115e-06 5.42321e-07 0.0768986)
(6.12648e-06 2.27712e-07 0.0684372)
(1.20978e-05 -1.15646e-06 0.082245)
(-5.84357e-06 -7.37922e-07 0.0857869)
(1.23807e-05 -1.3452e-06 0.0858435)
(-4.92679e-06 -8.37175e-07 0.0683759)
(-4.92713e-06 -8.53715e-07 0.0683835)
(1.23642e-05 -1.35384e-06 0.0858519)
(-7.12512e-06 6.33375e-07 0.0822005)
(-5.85145e-06 -7.48337e-07 0.0857954)
(6.11791e-06 2.14609e-07 0.0684447)
(7.4761e-06 5.49471e-07 0.0768902)
(1.66251e-05 -3.09831e-07 0.0913888)
(-5.5545e-06 -5.19912e-07 0.0898594)
(-3.84382e-06 -1.96089e-07 0.078618)
(1.60446e-05 -1.14141e-06 0.0899095)
(7.43236e-06 1.28881e-07 0.0786608)
(-4.27662e-06 -6.74182e-07 0.0768428)
(-4.26331e-06 6.4779e-07 0.0768508)
(7.41765e-06 -1.26589e-07 0.0786693)
(1.60281e-05 1.14555e-06 0.0899175)
(-4.9983e-06 2.21709e-07 0.0913516)
(-3.83066e-06 1.59608e-07 0.0786265)
(-5.5259e-06 4.94082e-07 0.0898676)
(7.46514e-06 -5.4413e-07 0.0768981)
(6.12041e-06 -2.26515e-07 0.068439)
(1.21199e-05 1.16093e-06 0.0822445)
(-5.82685e-06 7.00298e-07 0.0857878)
(1.23718e-05 1.35399e-06 0.085844)
(-4.91095e-06 8.06471e-07 0.0683779)
(-4.91154e-06 8.22433e-07 0.0683855)
(1.23556e-05 1.36029e-06 0.0858524)
(-7.14089e-06 -6.80054e-07 0.0822017)
(-5.83364e-06 7.09812e-07 0.0857963)
(6.1118e-06 -2.14003e-07 0.0684465)
(7.47041e-06 -5.50094e-07 0.0768897)
(1.66189e-05 3.11743e-07 0.0913887)
(-3.83252e-06 1.60073e-07 0.078618)
(-5.53373e-06 4.8927e-07 0.0898595)
(7.41923e-06 -1.26319e-07 0.0786608)
(1.60387e-05 1.1437e-06 0.0899094)
(-4.26692e-06 6.39576e-07 0.0768424)
(7.46445e-06 5.34582e-07 0.0769069)
(-5.54354e-06 -5.34163e-07 0.0898756)
(-3.83772e-06 -1.96636e-07 0.0786351)
(1.6603e-05 -3.07374e-07 0.0914042)
(-4.27175e-06 -6.93361e-07 0.0768596)
(1.60234e-05 -1.15096e-06 0.0899256)
(7.42181e-06 1.27964e-07 0.0786778)
(-4.9264e-06 -8.86496e-07 0.0683986)
(-7.14062e-06 6.13085e-07 0.0822174)
(1.23308e-05 -1.36905e-06 0.0858688)
(-5.8623e-06 -7.7062e-07 0.0858123)
(6.09936e-06 1.88855e-07 0.0684598)
(6.10868e-06 2.00999e-07 0.0684523)
(-5.85764e-06 -7.60187e-07 0.0858038)
(1.20666e-05 -1.17384e-06 0.0822619)
(-4.92646e-06 -8.70941e-07 0.0683911)
(1.23472e-05 -1.36171e-06 0.0858604)
(-4.271e-06 -7.03262e-07 0.076868)
(-4.98659e-06 -2.56319e-07 0.0913672)
(1.60113e-05 -1.15537e-06 0.0899336)
(7.41224e-06 1.27522e-07 0.0786863)
(-5.53665e-06 -5.41992e-07 0.0898837)
(-3.83345e-06 -1.9827e-07 0.0786436)
(7.45718e-06 5.26878e-07 0.0769153)
(7.46062e-06 -5.36523e-07 0.0769064)