/*--------------------------------*- C++ -*----------------------------------*\
| =========                 |                                                 |
| \\      /  F ield         | OpenFOAM: The Open Source CFD Toolbox           |
|  \\    /   O peration     | Version:  v1906                                 |
|   \\  /    A nd           | Web:      www.OpenFOAM.com                      |
|    \\/     M anipulation  |                                                 |
\*---------------------------------------------------------------------------*/
FoamFile
{
    version     2.0;
    format      ascii;
    class       volScalarField;
    location    "450";
    object      nut;
}
// * * * * * * * * * * * * * * * * * * * * * * * * * * * * * * * * * * * * * //

dimensions      [0 2 -1 0 0 0 0];


internalField   nonuniform List<scalar> 
42616
(
0.000233972
0.000233082
0.000233087
0.000233399
0.000232523
0.000227716
0.00022772
0.000223731
0.000230493
0.000220187
0.000220197
0.000208949
0.000227759
0.0002115
0.000211519
0.000193668
0.00022438
0.000202488
0.000202503
0.000179652
0.000220489
0.000193629
0.000193633
0.000167346
0.000216235
0.000185152
0.000185148
0.000156646
0.000211747
0.000177128
0.00017712
0.00014729
0.000207133
0.000169597
0.000169588
0.000138951
0.000202473
0.000162531
0.000162522
0.000131636
0.00019782
0.000155875
0.000155865
0.000125011
0.000193209
0.000149576
0.000149566
0.000118874
0.000188621
0.000143591
0.00014358
0.000113159
0.00018409
0.000137867
0.000137856
0.000107924
0.000179646
0.000132366
0.000132354
0.000102995
0.000175277
0.000127076
0.000127063
9.83282e-05
0.000170972
0.000122018
0.000122004
9.40683e-05
0.000166717
0.000117221
0.000117207
9.03747e-05
0.000162513
0.000112713
0.0001127
8.74137e-05
0.000158335
0.000108555
0.000108543
8.50757e-05
0.000154176
0.000104797
0.000104785
8.3377e-05
0.000234266
0.000234456
0.000234458
0.000234258
0.000234456
0.000234457
0.000234275
0.000234275
0.000234275
0.000234275
0.000234458
0.00023446
0.000234258
0.000234458
0.000234461
0.000234265
0.000233398
0.000226108
0.000233089
0.000233082
0.000229292
0.000229272
0.000233388
0.000226076
0.000233086
0.000233082
0.000229293
0.000229284
0.000233089
0.000229289
0.00022928
0.000233395
0.000226096
0.000233086
0.000229294
0.000229282
0.000226084
0.00022375
0.000212094
0.000227714
0.000227694
0.000222209
0.000222197
0.000223721
0.000212091
0.000227717
0.000227708
0.000222219
0.000222205
0.000227701
0.000222217
0.000222197
0.000223739
0.000212086
0.000227705
0.000222224
0.000222205
0.000212081
0.000208964
0.000196944
0.00022018
0.000220169
0.00021373
0.000213718
0.000208959
0.000196935
0.00022019
0.000220176
0.000213739
0.000213723
0.000220165
0.000213729
0.000213704
0.000208954
0.000196936
0.000220177
0.000213746
0.000213725
0.000196909
0.00019368
0.000182791
0.000211502
0.000211489
0.000204739
0.000204723
0.00019368
0.000182808
0.000211511
0.000211494
0.000204748
0.000204729
0.000211474
0.000204738
0.000204707
0.000193661
0.000182801
0.000211497
0.000204756
0.000204733
0.000182754
0.000179659
0.000170193
0.000202485
0.000202469
0.0001958
0.000195785
0.000179628
0.000170248
0.000202494
0.000202474
0.000195812
0.00019579
0.000202454
0.000195812
0.000195774
0.000179622
0.000170249
0.00020248
0.000195818
0.000195799
0.000170172
0.000167348
0.000159184
0.000193613
0.000193599
0.000187205
0.000187195
0.000167299
0.000159259
0.000193626
0.000193603
0.000187221
0.000187197
0.000193588
0.00018723
0.000187187
0.000167279
0.000159267
0.000193613
0.000187226
0.000187211
0.000159159
0.000156634
0.000149635
0.000185125
0.000185115
0.000179055
0.000179047
0.000156583
0.00014967
0.000185141
0.000185116
0.000179074
0.000179047
0.000185108
0.000179088
0.000179043
0.000156546
0.000149592
0.000185132
0.00017908
0.000179068
0.000149555
0.000147219
0.000141162
0.000177095
0.000177088
0.000171398
0.000171391
0.000147216
0.000141136
0.000177114
0.000177086
0.000171419
0.000171389
0.000177083
0.000171434
0.000171388
0.000147258
0.000141155
0.000177108
0.000171425
0.000171415
0.000141155
0.00013899
0.000133571
0.000169561
0.000169555
0.000164219
0.000164214
0.000139075
0.000133576
0.000169583
0.000169552
0.000164242
0.00016421
0.000169551
0.000164257
0.000164211
0.000138991
0.000133638
0.000169579
0.000164247
0.000164239
0.000133655
0.000131784
0.000126818
0.000162494
0.000162489
0.000157464
0.00015746
0.000131783
0.000126829
0.000162517
0.000162484
0.00015749
0.000157455
0.000162486
0.000157503
0.000157458
0.000131681
0.000126735
0.000162514
0.000157493
0.000157487
0.000126824
0.000125012
0.000120546
0.000155836
0.000155833
0.000151079
0.000151076
0.000125025
0.000120558
0.000155862
0.000155827
0.000151107
0.00015107
0.000155831
0.00015112
0.000151075
0.000125138
0.000120478
0.00015586
0.000151109
0.000151105
0.000120536
0.000118936
0.000114471
0.000149535
0.000149532
0.000145017
0.000145014
0.000118944
0.000114497
0.000149564
0.000149526
0.000145047
0.000145009
0.000149531
0.00014506
0.000145015
0.000118963
0.000114424
0.000149561
0.000145048
0.000145045
0.000114495
0.000113257
0.000108802
0.00014355
0.000143545
0.000139234
0.000139229
0.000113186
0.00010882
0.000143579
0.00014354
0.000139265
0.000139224
0.000143547
0.000139276
0.000139232
0.000113242
0.000108781
0.000143578
0.000139264
0.000139265
0.000108816
0.000107921
0.000103643
0.000137827
0.00013782
0.000133683
0.000133676
0.000107928
0.000103648
0.000137857
0.000137815
0.000133715
0.000133671
0.000137824
0.000133724
0.00013368
0.000107902
0.000103626
0.000137857
0.000133712
0.000133715
0.000103636
0.000103005
9.90389e-05
0.000132326
0.000132317
0.000128339
0.000128332
0.000103006
9.90292e-05
0.000132356
0.000132313
0.000128369
0.000128327
0.000132322
0.00012838
0.000128337
0.000102991
9.90164e-05
0.000132358
0.000128369
0.000128371
9.90264e-05
9.83334e-05
9.48578e-05
0.000127035
0.000127026
0.000123222
0.000123214
9.83585e-05
9.48272e-05
0.000127062
0.000127022
0.00012325
0.00012321
0.000127033
0.000123264
0.000123223
9.8342e-05
9.48259e-05
0.000127067
0.000123252
0.000123254
9.48595e-05
9.40913e-05
9.12948e-05
0.000121977
0.000121968
0.00011833
0.000118322
9.41453e-05
9.11916e-05
0.000122001
0.000121963
0.000118355
0.000118316
0.000121975
0.000118374
0.000118332
9.41244e-05
9.13111e-05
0.000122007
0.000118359
0.000118357
9.13574e-05
9.04801e-05
8.82456e-05
0.000117181
0.000117174
0.000113751
0.000113749
9.05354e-05
8.81213e-05
0.000117202
0.000117166
0.000113781
0.000113741
0.000117177
0.000113795
0.000113753
9.0429e-05
8.82044e-05
0.000117206
0.000113783
0.000113778
8.82921e-05
8.75096e-05
8.5775e-05
0.000112675
0.000112665
0.000109496
0.000109493
8.75889e-05
8.56735e-05
0.000112691
0.000112657
0.000109524
0.000109485
0.000112672
0.00010954
0.000109498
8.75273e-05
8.57405e-05
0.000112696
0.000109529
0.000109521
8.58262e-05
8.51281e-05
8.40173e-05
0.000108521
0.000108507
0.000105628
0.000105622
8.5216e-05
8.37649e-05
0.000108531
0.0001085
0.000105656
0.000105616
0.000108517
0.000105669
0.000105631
8.51532e-05
8.38237e-05
0.000108539
0.000105659
0.000105654
8.40067e-05
8.33804e-05
0.000104767
0.000104749
8.35557e-05
0.000104773
0.000104742
0.000104762
8.34658e-05
0.000104783
0.00023473
0.000234746
0.000234729
0.000234729
0.000235127
0.000234799
0.000235032
0.000234726
0.000235131
0.000234799
0.000234726
0.00023483
0.000234873
0.000233663
0.000233464
0.000104691
3.88091e-05
0.000128484
3.97841e-05
2.18847e-05
2.28485e-05
0.000104597
3.88258e-05
0.00012842
3.97825e-05
0.000233972
0.000233972
0.000233972
0.00023293
0.000232929
0.000232929
0.000232929
0.000205963
9.30621e-05
0.000233966
0.000231961
0.000222307
8.65796e-05
0.000233604
2.18948e-05
2.28413e-05
0.000206031
0.000233967
9.35414e-05
0.000231965
0.000222348
0.000233606
8.66033e-05
4.76941e-05
4.76069e-05
0.000231282
4.37421e-05
4.37779e-05
7.26371e-05
4.24075e-05
8.13602e-05
4.3755e-05
2.47847e-05
2.54723e-05
7.25772e-05
4.24036e-05
8.12881e-05
4.37533e-05
0.000232522
0.000232523
0.000232522
0.000231066
0.000231065
0.000231065
0.000231064
0.000167248
7.8949e-05
0.000232054
0.000225999
0.000179915
7.39707e-05
0.000231342
2.47813e-05
2.5469e-05
0.000167346
0.000232061
7.89618e-05
0.000226004
0.000180015
0.00023135
7.4084e-05
3.91833e-05
3.91858e-05
0.00021945
3.65238e-05
3.6562e-05
5.6343e-05
4.55415e-05
6.12497e-05
4.64173e-05
2.60142e-05
2.61182e-05
5.63326e-05
4.55389e-05
6.12154e-05
4.64155e-05
0.000230492
0.000230493
0.000230491
0.000228507
0.000228505
0.000228507
0.000228502
0.000138472
6.70508e-05
0.00022858
0.000218086
0.000147917
6.30862e-05
0.000227462
2.60131e-05
2.61164e-05
0.00013856
0.000228598
6.70257e-05
0.000218098
0.000148018
0.000227483
6.31906e-05
3.32089e-05
3.33198e-05
0.000204464
3.19777e-05
3.20691e-05
4.70446e-05
4.74984e-05
4.99692e-05
4.80109e-05
2.60413e-05
2.59397e-05
4.69936e-05
4.74953e-05
4.99986e-05
4.80083e-05
0.000227756
0.000227759
0.000227753
0.000225279
0.000225274
0.000225278
0.00022527
0.000117463
5.7931e-05
0.000223618
0.000209251
0.000124522
5.51586e-05
0.000222201
2.60387e-05
2.59381e-05
0.000117521
0.000223649
5.79227e-05
0.000209271
0.000124622
0.000222231
5.51915e-05
3.06703e-05
3.07339e-05
0.000189644
3.03814e-05
3.04007e-05
4.14762e-05
4.85808e-05
4.32578e-05
4.88428e-05
2.56722e-05
2.55206e-05
4.14342e-05
4.85769e-05
4.33024e-05
4.88404e-05
0.000224375
0.00022438
0.000224371
0.000221502
0.000221497
0.000221501
0.000221492
0.000102062
5.16758e-05
0.000217655
0.000200244
0.000107419
4.98124e-05
0.000216065
2.56696e-05
2.5519e-05
0.000102084
0.000217683
5.16587e-05
0.000200257
0.00010744
0.000216088
4.9819e-05
3.03108e-05
3.03166e-05
0.000176261
3.04546e-05
3.0456e-05
3.81927e-05
4.90893e-05
3.92373e-05
4.91965e-05
2.52354e-05
2.50956e-05
3.81795e-05
4.9087e-05
3.92727e-05
4.91941e-05
0.000220485
0.000220488
0.00022048
0.000217325
0.000217322
0.000217323
0.000217316
9.04772e-05
4.75452e-05
0.000211159
0.000191467
9.45775e-05
4.64065e-05
0.000209495
2.52328e-05
2.5094e-05
9.0477e-05
0.000211174
4.75443e-05
0.000191469
9.45752e-05
0.000209504
4.63808e-05
3.11444e-05
3.11389e-05
0.000164475
3.15616e-05
3.15533e-05
3.6398e-05
4.92666e-05
3.69366e-05
4.92943e-05
2.48474e-05
2.47349e-05
3.63796e-05
4.9264e-05
3.69634e-05
4.92921e-05
0.000216233
0.000216233
0.000216226
0.000212884
0.000212884
0.000212883
0.000212877
8.15929e-05
4.49843e-05
0.000204478
0.0001831
8.48216e-05
4.43914e-05
0.000202809
2.4845e-05
2.47329e-05
8.16309e-05
0.000204483
4.50089e-05
0.000183094
8.48103e-05
0.000202809
4.4381e-05
3.27086e-05
3.26998e-05
0.00015419
3.33109e-05
3.3307e-05
3.5699e-05
4.92835e-05
3.58257e-05
4.92806e-05
2.45352e-05
2.44492e-05
3.56877e-05
4.92812e-05
3.58285e-05
4.92784e-05
0.000211748
0.000211745
0.00021174
0.000208293
0.000208295
0.000208291
0.000208286
7.47014e-05
4.36486e-05
0.000197847
0.000175199
7.72769e-05
4.33737e-05
0.000196216
2.45326e-05
2.44473e-05
7.46768e-05
0.000197847
4.36476e-05
0.00017519
7.72315e-05
0.000196212
4.33717e-05
3.47192e-05
3.47197e-05
0.000145167
3.54719e-05
3.54481e-05
3.58279e-05
4.92436e-05
3.56387e-05
4.92413e-05
2.42978e-05
2.42279e-05
3.5753e-05
4.92411e-05
3.5676e-05
4.92396e-05
0.000207135
0.000207131
0.000207126
0.000203638
0.000203641
0.000203635
0.000203632
6.92691e-05
4.31701e-05
0.000191402
0.000167789
7.13016e-05
4.30775e-05
0.000189823
2.4292e-05
2.42304e-05
6.92289e-05
0.000191401
4.31266e-05
0.000167779
7.1351e-05
0.000189819
4.31139e-05
3.70333e-05
3.70212e-05
0.000137304
3.78447e-05
3.78497e-05
3.66111e-05
4.92183e-05
3.62006e-05
4.92163e-05
2.41196e-05
2.40678e-05
3.65462e-05
4.92169e-05
3.62583e-05
4.92149e-05
0.000202476
0.00020247
0.000202466
0.00019898
0.000198983
0.000198976
0.000198973
6.49243e-05
4.33309e-05
0.00018517
0.00016083
6.6562e-05
4.3421e-05
0.000183649
2.41167e-05
2.40654e-05
6.49141e-05
0.000185168
4.3256e-05
0.00016082
6.65841e-05
0.000183643
4.35225e-05
3.94957e-05
3.94789e-05
0.000130159
4.03417e-05
4.03471e-05
3.80141e-05
4.92169e-05
3.74231e-05
4.92219e-05
2.39909e-05
2.39507e-05
3.79676e-05
4.92143e-05
3.74715e-05
4.92215e-05
0.000197823
0.000197816
0.000197814
0.000194355
0.000194358
0.000194351
0.000194349
6.15385e-05
4.4026e-05
0.000179194
0.000154269
6.27725e-05
4.42805e-05
0.000177744
2.39841e-05
2.39554e-05
6.15165e-05
0.000179191
4.39486e-05
0.000154258
6.27914e-05
0.000177737
4.43751e-05
4.20141e-05
4.19998e-05
0.000123592
4.28565e-05
4.28627e-05
3.99594e-05
4.92408e-05
3.92582e-05
4.92457e-05
2.38996e-05
2.38691e-05
3.99443e-05
4.92282e-05
3.92681e-05
4.92516e-05
0.000193212
0.000193204
0.000193203
0.000189768
0.00018977
0.000189763
0.000189762
5.89409e-05
4.51567e-05
0.000173496
0.000148051
5.98792e-05
4.55459e-05
0.00017211
2.38903e-05
2.38744e-05
5.89361e-05
0.000173493
4.50708e-05
0.000148039
5.98748e-05
0.000172104
4.56464e-05
4.45037e-05
4.45025e-05
0.000117486
4.53065e-05
4.53066e-05
4.24565e-05
4.92758e-05
4.15817e-05
4.92843e-05
2.38353e-05
2.3812e-05
4.24238e-05
4.9264e-05
4.16014e-05
4.92899e-05
0.000188623
0.000188615
0.000188615
0.000185214
0.000185216
0.000185209
0.000185209
5.70987e-05
4.66607e-05
0.000168045
0.000142137
5.77179e-05
4.7155e-05
0.000166717
2.38257e-05
2.38175e-05
5.70924e-05
0.000168042
4.65802e-05
0.000142126
5.77188e-05
0.000166711
4.72432e-05
4.68844e-05
4.6886e-05
0.000111595
4.76619e-05
4.76621e-05
4.53731e-05
4.93161e-05
4.43536e-05
4.93255e-05
2.37902e-05
2.37714e-05
4.53643e-05
4.93054e-05
4.43799e-05
4.93301e-05
0.000184091
0.000184084
0.000184085
0.000180749
0.00018075
0.000180743
0.000180744
5.59969e-05
4.84631e-05
0.000162807
0.000136473
5.62662e-05
4.9029e-05
0.000161527
2.378e-05
2.37773e-05
5.59503e-05
0.000162805
4.84357e-05
0.000136462
5.63065e-05
0.000161522
4.9064e-05
4.91342e-05
4.91227e-05
0.000106153
4.98254e-05
4.98444e-05
4.85826e-05
4.93553e-05
4.75191e-05
4.93645e-05
2.37573e-05
2.37423e-05
4.85866e-05
4.93457e-05
4.75244e-05
4.93684e-05
0.000179647
0.000179639
0.000179641
0.000176362
0.000176363
0.000176356
0.000176358
5.54256e-05
5.0441e-05
0.000157749
0.000131024
5.55212e-05
5.11618e-05
0.000156512
2.37472e-05
2.37465e-05
5.5422e-05
0.000157748
5.04762e-05
0.000131013
5.55557e-05
0.000156507
5.1146e-05
5.11839e-05
5.11979e-05
0.000101273
5.18473e-05
5.18287e-05
5.2011e-05
4.93914e-05
5.09024e-05
4.93995e-05
2.37301e-05
2.37208e-05
5.20495e-05
4.93823e-05
5.08888e-05
4.9403e-05
0.000175278
0.00017527
0.000175273
0.000172042
0.000172043
0.000172036
0.000172038
5.5551e-05
5.26097e-05
0.000152844
0.000125792
5.54326e-05
5.33804e-05
0.000151644
2.37242e-05
2.37208e-05
5.55097e-05
0.000152844
5.26261e-05
0.000125779
5.54537e-05
0.000151639
5.3365e-05
5.3062e-05
5.30814e-05
9.68879e-05
5.36494e-05
5.365e-05
5.55612e-05
4.94238e-05
5.43174e-05
4.94314e-05
2.37078e-05
2.37017e-05
5.56047e-05
4.94152e-05
5.42921e-05
4.94347e-05
0.000170973
0.000170965
0.000170969
0.000167774
0.000167775
0.000167768
0.000167769
5.62816e-05
5.48966e-05
0.000148089
0.000120797
5.59544e-05
5.56013e-05
0.000146922
2.3705e-05
2.37004e-05
5.62363e-05
0.000148087
5.4895e-05
0.000120782
5.60035e-05
0.000146916
5.56159e-05
5.47625e-05
5.47627e-05
9.30497e-05
5.53098e-05
5.53088e-05
5.89721e-05
4.94543e-05
5.77144e-05
4.94606e-05
2.36893e-05
2.36847e-05
5.9e-05
4.94455e-05
5.77062e-05
4.94641e-05
0.000166719
0.00016671
0.000166714
0.000163556
0.000163559
0.000163551
0.000163552
5.76029e-05
5.71809e-05
0.000143448
0.000116052
5.70697e-05
5.78814e-05
0.000142307
2.36871e-05
2.36827e-05
5.75732e-05
0.000143447
5.71703e-05
0.00011604
5.70816e-05
0.000142301
5.78987e-05
5.63098e-05
5.63081e-05
8.9751e-05
5.67729e-05
5.67746e-05
6.21783e-05
4.94824e-05
6.09689e-05
4.94888e-05
2.36728e-05
2.36683e-05
6.2207e-05
4.94742e-05
6.09503e-05
4.94917e-05
0.000162516
0.000162507
0.000162511
0.000159374
0.000159377
0.000159369
0.000159369
5.94063e-05
5.94368e-05
0.000138905
0.000111621
5.87212e-05
6.01173e-05
0.00013779
2.36706e-05
2.36665e-05
5.93979e-05
0.000138902
5.93958e-05
0.00011161
5.87195e-05
0.000137785
6.01742e-05
5.76953e-05
5.76939e-05
8.69738e-05
5.81117e-05
5.81124e-05
6.50828e-05
4.95089e-05
6.39922e-05
4.95143e-05
2.36573e-05
2.36535e-05
6.51121e-05
4.95013e-05
6.39744e-05
4.95174e-05
0.000158339
0.000158328
0.000158333
0.000155211
0.000155214
0.000155206
0.000155207
6.16162e-05
6.16255e-05
0.000134464
0.000107553
6.08216e-05
6.22892e-05
0.000133382
2.36553e-05
2.36515e-05
6.16345e-05
0.000134463
6.15822e-05
0.000107543
6.08113e-05
0.000133381
6.23419e-05
5.89466e-05
5.89461e-05
8.48352e-05
5.93251e-05
5.93279e-05
6.76855e-05
4.95337e-05
6.67076e-05
4.95377e-05
2.36432e-05
2.36398e-05
4.95267e-05
6.66937e-05
4.95425e-05
0.000154181
0.000154169
0.000154175
6.42293e-05
6.37286e-05
0.000130142
0.000103922
6.3266e-05
6.44261e-05
0.000129098
2.3641e-05
6.41652e-05
0.000130142
6.36905e-05
6.32621e-05
0.000129101
6.00823e-05
6.00815e-05
8.3189e-05
6.0426e-05
6.04274e-05
0.000234868
0.00023351
0.00023388
2.31606e-05
0.000214672
2.31727e-05
0.000214371
0.000234432
5.10018e-05
5.08072e-05
0.000229102
0.00022885
0.000235128
0.0002348
0.000235331
0.000234726
0.000235127
0.0002348
0.000234921
0.000234726
0.000234324
4.04073e-05
0.000213465
0.000147179
0.000234325
4.03307e-05
0.000218418
0.000146863
0.000233828
0.000234471
9.95943e-05
0.000234271
0.000232462
0.000234597
0.000228302
0.000233834
0.00023447
9.79358e-05
0.00023427
0.000233364
0.000234597
0.000228233
0.000234872
0.000233868
0.000233511
2.31834e-05
0.000214428
0.000234425
5.07606e-05
5.02758e-05
0.000230254
0.000228989
2.31964e-05
0.000214322
0.000235132
0.0002348
0.000234931
0.000234726
0.000235134
0.0002348
0.000234726
0.000234913
0.000234318
4.03364e-05
0.000218406
0.000147168
0.000233824
0.000234471
9.8139e-05
0.000234271
0.000233244
0.000234597
0.000228364
0.000234327
4.03292e-05
0.000218439
0.00014712
0.000233817
0.00023447
0.00023427
9.81428e-05
0.000234597
0.000233271
0.000228304
0.00023473
0.000234746
0.000234729
0.000234729
0.00023473
0.000234746
0.000234729
0.000234729
0.00023473
0.000234746
0.000234729
0.000234729
0.000234591
0.000234573
0.000234253
0.000234253
0.000234592
0.000234592
0.000234252
0.000234591
0.000234573
0.000234253
0.000234253
0.000234592
0.000234592
0.000234252
0.000234591
0.000234573
0.000234253
0.000234253
0.000234592
0.000234592
0.000234252
0.000234591
0.000234574
0.000234253
0.000234253
0.000234592
0.000234592
0.000234252
0.000235132
0.000234798
0.000234726
0.000235021
0.000233835
0.000234471
9.95555e-05
0.000234271
0.000233169
0.000234597
0.00022829
0.000234333
4.04126e-05
0.000213462
0.000146868
0.000233821
0.000234473
0.00023427
9.99031e-05
0.000234597
0.000233206
0.000228224
0.000234319
4.04079e-05
0.000213756
0.0001469
0.000234872
0.000233511
0.000233794
2.31896e-05
0.000214103
0.000234426
5.0588e-05
5.09506e-05
0.00022879
0.000229325
2.32209e-05
0.00021416
0.000235111
0.000234798
0.000234726
0.000235022
0.000233821
0.000234471
0.000234271
9.82835e-05
0.000234597
0.00023331
0.000228294
0.00023392
0.000234473
0.000234271
9.98837e-05
0.000234597
0.00023319
0.000228282
0.000234321
4.03322e-05
0.000218368
0.000147007
0.000234353
4.04096e-05
0.000213552
0.000146828
0.000234426
5.09941e-05
5.06094e-05
0.0002299
0.000229954
2.32196e-05
0.000214282
2.32183e-05
0.000214253
2.19364e-05
2.28586e-05
2.19206e-05
2.28578e-05
4.75892e-05
4.73378e-05
0.000231299
4.36581e-05
4.35999e-05
2.44979e-05
2.33123e-05
2.44944e-05
2.33123e-05
0.000229605
3.99407e-05
3.99639e-05
4.28502e-05
4.28167e-05
0.000104579
3.88426e-05
0.000128209
3.97881e-05
0.000206085
9.27937e-05
0.000233967
0.000231967
0.00022237
8.65855e-05
0.000233607
0.000205971
9.29997e-05
0.000233966
0.000231952
0.000222292
8.64833e-05
0.000233604
9.83259e-05
4.19377e-05
4.03234e-05
8.55167e-05
9.82037e-05
4.19355e-05
4.03171e-05
8.54481e-05
0.000199923
0.000230709
8.01647e-05
0.00023267
8.49923e-05
0.000233181
0.000185422
0.000199807
0.00023069
8.01243e-05
0.000232663
8.49188e-05
0.000233176
0.000185324
4.76722e-05
4.66895e-05
0.000231274
4.37048e-05
4.3424e-05
2.19113e-05
2.28532e-05
2.4495e-05
2.33209e-05
0.000229568
3.99627e-05
3.99151e-05
4.2813e-05
4.26447e-05
2.44967e-05
2.33075e-05
0.000206007
9.30755e-05
0.000233967
0.000231965
0.000222361
8.65342e-05
0.000233606
0.000104668
3.88356e-05
0.00012841
3.9786e-05
0.00020606
0.000233967
9.30446e-05
0.000231959
0.000222344
0.000233606
8.65491e-05
9.82373e-05
4.19336e-05
4.03249e-05
8.54415e-05
0.000199849
0.000230709
8.01853e-05
0.000232666
8.50396e-05
0.000233179
0.000185336
9.82854e-05
4.19328e-05
4.03133e-05
8.54711e-05
0.000199884
0.000230701
0.000232667
8.0154e-05
0.000233179
8.49869e-05
0.000185363
0.000104583
3.8829e-05
0.000128301
3.97952e-05
0.000205961
0.000233966
9.25853e-05
0.00023196
0.000222295
0.000233605
8.63287e-05
0.00010457
3.88321e-05
0.00012826
3.97936e-05
0.000199796
0.000230704
8.02548e-05
0.000232664
8.50011e-05
0.000233177
0.000185304
9.82139e-05
4.19383e-05
4.03087e-05
8.54377e-05
0.0001998
0.000230699
0.000232663
8.00957e-05
0.000233177
8.48067e-05
0.000185305
9.82213e-05
4.19377e-05
4.03108e-05
8.54419e-05
4.69829e-05
4.74755e-05
0.000231291
4.3526e-05
4.36e-05
2.19038e-05
2.2855e-05
2.4492e-05
2.33138e-05
0.000229595
3.99071e-05
3.99805e-05
4.27365e-05
4.28098e-05
2.4496e-05
2.3311e-05
0.000206009
0.000233967
9.25931e-05
0.000231959
0.000222418
0.000233606
8.63724e-05
0.00010462
3.88418e-05
0.000128398
3.9788e-05
0.000104591
3.88314e-05
0.000128412
3.97929e-05
0.000199889
0.000230711
0.000232668
8.02841e-05
0.00023318
8.52054e-05
0.000185406
0.000199872
0.0002307
0.000232667
8.01138e-05
0.000233179
8.48482e-05
0.000185384
9.82939e-05
4.19367e-05
4.03147e-05
8.5501e-05
9.82672e-05
4.19359e-05
4.03113e-05
8.54797e-05
2.19088e-05
2.28537e-05
2.19233e-05
2.28562e-05
0.000229579
4.0026e-05
4.00137e-05
4.28189e-05
4.29033e-05
2.44957e-05
2.33094e-05
2.4492e-05
2.33114e-05
2.47872e-05
2.54733e-05
2.47839e-05
2.54711e-05
3.91331e-05
3.91438e-05
0.000219467
3.65345e-05
3.65728e-05
2.59586e-05
2.5624e-05
2.59556e-05
2.56212e-05
0.000216635
3.3894e-05
3.39026e-05
3.58007e-05
3.58029e-05
7.25962e-05
4.24052e-05
8.12995e-05
4.37556e-05
0.000167329
7.88614e-05
0.000232061
0.000225995
0.000180026
7.39206e-05
0.00023135
0.000167263
7.88063e-05
0.000232053
0.000225977
0.000179934
7.3979e-05
0.000231341
6.97118e-05
4.52381e-05
4.41382e-05
6.33018e-05
6.96758e-05
4.5239e-05
4.41374e-05
6.32872e-05
0.000162792
0.000224154
6.81705e-05
0.000229613
7.2699e-05
0.000230533
0.00015178
0.000162733
0.000224139
6.82269e-05
0.000229605
7.26296e-05
0.000230525
0.000151752
3.91517e-05
3.91339e-05
0.000219453
3.65697e-05
3.65508e-05
2.47859e-05
2.54727e-05
2.59568e-05
2.56228e-05
0.000216618
3.39115e-05
3.39009e-05
3.58218e-05
3.58201e-05
2.59596e-05
2.56237e-05
0.000167253
7.88621e-05
0.000232057
0.000226001
0.00017994
7.40152e-05
0.000231344
7.25805e-05
4.24021e-05
8.13136e-05
4.37507e-05
0.000167247
0.000232057
7.88567e-05
0.00022599
0.000179969
0.000231345
7.3921e-05
6.96677e-05
4.52358e-05
4.41357e-05
6.32796e-05
0.000162723
0.000224161
6.82501e-05
0.000229608
7.26619e-05
0.000230528
0.000151747
6.96645e-05
4.5235e-05
4.41333e-05
6.32725e-05
0.000162724
0.00022415
0.000229605
6.81663e-05
0.000230526
7.26968e-05
0.000151714
7.25808e-05
4.24063e-05
8.12949e-05
4.37531e-05
0.00016723
0.000232053
7.87595e-05
0.000225982
0.000179915
0.00023134
7.39241e-05
7.25852e-05
4.24067e-05
8.12926e-05
4.37535e-05
0.000162686
0.000224161
6.81869e-05
0.000229602
7.27488e-05
0.000230524
0.00015173
6.96649e-05
4.52355e-05
4.41356e-05
6.326e-05
0.000162705
0.000224142
0.000229602
6.81585e-05
0.000230523
7.25804e-05
0.000151706
6.96676e-05
4.52372e-05
4.41362e-05
6.32729e-05
3.91184e-05
3.9162e-05
0.000219458
3.65393e-05
3.65815e-05
2.47858e-05
2.54713e-05
2.59562e-05
2.56201e-05
0.000216625
3.38836e-05
3.39106e-05
3.57935e-05
3.58212e-05
2.59576e-05
2.56228e-05
0.00016732
0.000232058
7.87867e-05
0.000225987
0.000179991
0.000231348
7.39541e-05
7.26273e-05
4.24055e-05
8.1341e-05
4.37532e-05
7.26226e-05
4.24047e-05
8.13233e-05
4.37532e-05
0.000162785
0.000224167
0.000229616
6.82956e-05
0.000230536
7.27275e-05
0.000151822
0.000162784
0.000224149
0.000229613
6.82047e-05
0.000230532
7.26063e-05
0.000151786
6.97088e-05
4.52368e-05
4.41355e-05
6.33121e-05
6.96985e-05
4.52361e-05
4.4135e-05
6.33037e-05
2.47849e-05
2.54705e-05
2.47836e-05
2.54721e-05
0.00021662
3.38026e-05
3.3891e-05
3.57804e-05
3.58111e-05
2.59571e-05
2.56222e-05
2.59571e-05
2.56227e-05
2.60155e-05
2.61189e-05
2.60128e-05
2.61168e-05
3.33269e-05
3.33208e-05
0.000204482
3.20779e-05
3.20707e-05
2.60888e-05
2.61187e-05
2.60872e-05
2.61166e-05
0.000201215
3.09839e-05
3.09739e-05
3.16867e-05
3.1675e-05
5.63422e-05
4.55413e-05
6.12166e-05
4.64185e-05
0.000138505
6.70251e-05
0.000228594
0.000218082
0.000148033
6.3095e-05
0.000227479
0.000138493
6.69653e-05
0.000228585
0.000218072
0.000147982
6.31397e-05
0.000227471
5.48717e-05
4.73287e-05
4.66492e-05
5.10925e-05
5.48407e-05
4.73298e-05
4.66493e-05
5.10817e-05
0.00013541
0.000215928
5.88416e-05
0.000224996
6.20745e-05
0.000226278
0.000127165
0.000135379
0.000215918
5.88167e-05
0.000224988
6.20097e-05
0.00022627
0.000127154
3.33339e-05
3.33436e-05
0.000204484
3.2073e-05
3.20842e-05
2.60163e-05
2.61194e-05
2.60884e-05
2.6118e-05
0.000201214
3.09705e-05
3.0995e-05
3.16799e-05
3.1695e-05
2.60887e-05
2.61191e-05
0.00013849
6.6986e-05
0.000228589
0.000218092
0.000147975
6.31606e-05
0.000227474
5.63263e-05
4.55375e-05
6.12044e-05
4.64142e-05
0.000138462
0.000228584
6.70186e-05
0.000218077
0.000147972
0.000227469
6.30854e-05
5.48618e-05
4.73269e-05
4.66466e-05
5.1046e-05
0.000135386
0.000215937
5.88293e-05
0.000224992
6.20233e-05
0.000226274
0.000127159
5.48529e-05
4.73252e-05
4.66451e-05
5.10533e-05
0.000135379
0.000215922
0.000224987
5.8833e-05
0.000226268
6.20642e-05
0.000127153
5.63103e-05
4.55369e-05
6.11999e-05
4.64124e-05
0.000138455
0.000228581
6.68999e-05
0.000218064
0.000147958
0.000227465
6.30774e-05
5.63314e-05
4.55391e-05
6.12021e-05
4.64158e-05
0.000135304
0.00021593
5.87647e-05
0.000224973
6.20795e-05
0.000226258
0.000127162
5.48302e-05
4.73223e-05
4.66429e-05
5.10665e-05
0.000135351
0.000215907
0.000224979
5.87751e-05
0.000226262
6.19499e-05
0.00012713
5.48327e-05
4.73261e-05
4.66464e-05
5.10705e-05
3.33156e-05
3.33326e-05
0.000204473
3.20651e-05
3.20839e-05
2.60147e-05
2.61181e-05
2.6086e-05
2.61162e-05
0.000201205
3.09758e-05
3.09925e-05
3.16727e-05
3.1688e-05
2.6074e-05
2.6118e-05
0.000138507
0.000228593
6.69429e-05
0.000218079
0.000148025
0.000227479
6.3131e-05
5.63483e-05
4.55388e-05
6.12411e-05
4.64162e-05
5.63381e-05
4.55385e-05
6.12287e-05
4.64156e-05
0.000135388
0.000215945
0.000225001
5.88048e-05
0.000226284
6.20523e-05
0.000127191
0.000135405
0.000215925
0.000224994
5.88179e-05
0.000226277
6.19961e-05
0.000127166
5.48749e-05
4.73269e-05
4.66467e-05
5.10709e-05
5.48599e-05
4.73268e-05
4.66462e-05
5.10541e-05
2.60141e-05
2.6117e-05
2.60142e-05
2.61171e-05
0.000201196
3.08994e-05
3.0977e-05
3.15741e-05
3.16773e-05
2.6086e-05
2.61166e-05
2.60867e-05
2.61169e-05
2.60425e-05
2.59407e-05
2.60405e-05
2.59387e-05
3.07354e-05
3.07275e-05
0.000189678
3.04179e-05
3.03981e-05
2.57413e-05
2.58803e-05
2.57389e-05
2.58779e-05
0.00018647
3.02951e-05
3.02816e-05
3.03222e-05
3.03183e-05
4.70012e-05
4.74983e-05
4.99543e-05
4.80116e-05
0.000117499
5.78789e-05
0.000223642
0.000209255
0.000124607
5.5217e-05
0.000222225
0.000117489
5.784e-05
0.000223634
0.000209241
0.000124591
5.52199e-05
0.000222217
4.61875e-05
4.85033e-05
4.81293e-05
4.39103e-05
4.62133e-05
4.85036e-05
4.81287e-05
4.38638e-05
0.000115376
0.000206998
5.22606e-05
0.000219232
5.44351e-05
0.000220752
0.000109234
0.000115371
0.000206983
5.22675e-05
0.000219225
5.43904e-05
0.000220744
0.000109237
3.07266e-05
3.07365e-05
0.000189667
3.03902e-05
3.04297e-05
2.60421e-05
2.59407e-05
2.57398e-05
2.58793e-05
0.000186469
3.02611e-05
3.02913e-05
3.03195e-05
3.03124e-05
2.57408e-05
2.5879e-05
0.0001175
5.78566e-05
0.000223641
0.000209263
0.000124606
5.52234e-05
0.000222224
4.70061e-05
4.74933e-05
4.99926e-05
4.80065e-05
0.0001175
0.000223635
5.7869e-05
0.000209246
0.000124598
0.000222219
5.52066e-05
4.6233e-05
4.85003e-05
4.81254e-05
4.38617e-05
0.000115381
0.000207007
5.22792e-05
0.000219233
5.44073e-05
0.000220754
0.000109237
4.62319e-05
4.84983e-05
4.81236e-05
4.38676e-05
0.000115382
0.000206988
0.00021923
5.22536e-05
0.000220749
5.44235e-05
0.000109243
4.6986e-05
4.74915e-05
4.99505e-05
4.80057e-05
0.000117473
0.000223624
5.7805e-05
0.000209225
0.000124569
0.000222207
5.51965e-05
4.69923e-05
4.74946e-05
4.99509e-05
4.80078e-05
0.00011535
0.000206997
5.22104e-05
0.000219212
5.44815e-05
0.00022073
0.000109237
4.62186e-05
4.84992e-05
4.81233e-05
4.38601e-05
0.00011536
0.000206967
0.000219215
5.22561e-05
0.000220734
5.43715e-05
0.000109217
4.62111e-05
4.85e-05
4.81248e-05
4.38627e-05
3.07212e-05
3.0739e-05
0.000189682
3.04053e-05
3.04167e-05
2.60505e-05
2.594e-05
2.5738e-05
2.58759e-05
0.000186438
3.02965e-05
3.02718e-05
3.03103e-05
3.03311e-05
2.57397e-05
2.58803e-05
0.000117503
0.00022364
5.78353e-05
0.000209249
0.000124603
0.000222222
5.52136e-05
4.70546e-05
4.74959e-05
4.99985e-05
4.80089e-05
4.70391e-05
4.7495e-05
4.99839e-05
4.80082e-05
0.000115402
0.000207016
0.00021924
5.22305e-05
0.000220761
5.44723e-05
0.000109258
0.00011538
0.000206993
0.00021923
5.22682e-05
0.00022075
5.43925e-05
0.000109241
4.6218e-05
4.85007e-05
4.81265e-05
4.391e-05
4.6204e-05
4.84999e-05
4.81252e-05
4.39068e-05
2.60398e-05
2.5938e-05
2.60403e-05
2.59378e-05
0.000186454
3.02508e-05
3.02645e-05
3.02874e-05
3.03275e-05
2.57387e-05
2.58777e-05
2.57382e-05
2.58779e-05
2.56734e-05
2.55223e-05
2.56708e-05
2.55199e-05
3.03011e-05
3.02991e-05
0.000176302
3.04925e-05
3.04782e-05
2.53039e-05
2.54529e-05
2.53015e-05
2.54503e-05
0.000173286
3.09461e-05
3.09256e-05
3.059e-05
3.05898e-05
4.14407e-05
4.85806e-05
4.32839e-05
4.88437e-05
0.000102065
5.16194e-05
0.000217672
0.000200239
0.000107386
4.98674e-05
0.000216079
0.000102057
5.15814e-05
0.000217665
0.000200224
0.000107409
4.98704e-05
0.000216072
4.09759e-05
4.90642e-05
4.88898e-05
3.95962e-05
4.10067e-05
4.9065e-05
4.88903e-05
3.95801e-05
0.000100525
0.000198011
4.7969e-05
0.000212818
4.93389e-05
0.000214458
9.58645e-05
0.000100532
0.000197995