/*--------------------------------*- C++ -*----------------------------------*\
| =========                 |                                                 |
| \\      /  F ield         | OpenFOAM: The Open Source CFD Toolbox           |
|  \\    /   O peration     | Version:  v1906                                 |
|   \\  /    A nd           | Web:      www.OpenFOAM.com                      |
|    \\/     M anipulation  |                                                 |
\*---------------------------------------------------------------------------*/
FoamFile
{
    version     2.0;
    format      ascii;
    class       volVectorField;
    location    "450";
    object      U;
}
// * * * * * * * * * * * * * * * * * * * * * * * * * * * * * * * * * * * * * //

dimensions      [0 1 -1 0 0 0 0];


internalField   nonuniform List<vector> 
42616
(
(0.00010623 0.000106169 0.100294)
(-0.000184803 0.000115481 0.10039)
(0.000115528 -0.000184789 0.100389)
(-0.000247659 -0.000247834 0.100398)
(9.72157e-05 9.71548e-05 0.100854)
(-0.00015146 9.36153e-05 0.100938)
(9.36709e-05 -0.000151547 0.100938)
(-0.000194456 -0.000194333 0.100971)
(9.70626e-05 9.69924e-05 0.101368)
(-0.000152124 9.09819e-05 0.101447)
(9.09646e-05 -0.000152385 0.101447)
(-0.000194737 -0.000194746 0.101474)
(9.48515e-05 9.4787e-05 0.101886)
(-0.000149155 8.7121e-05 0.101953)
(8.72206e-05 -0.000149348 0.101954)
(-0.000192128 -0.000192082 0.101967)
(9.14382e-05 9.14046e-05 0.102391)
(-0.000143627 8.22739e-05 0.102442)
(8.24869e-05 -0.000143685 0.102442)
(-0.00018709 -0.000187006 0.102435)
(8.79586e-05 8.79594e-05 0.102877)
(-0.000137778 7.8219e-05 0.102907)
(7.83828e-05 -0.00013776 0.102907)
(-0.000181704 -0.000181605 0.102874)
(8.48199e-05 8.48316e-05 0.103344)
(-0.000132358 7.50167e-05 0.103348)
(7.51322e-05 -0.000132304 0.103348)
(-0.000176966 -0.000176921 0.103285)
(8.21114e-05 8.21359e-05 0.103793)
(-0.000127602 7.25098e-05 0.103768)
(7.25734e-05 -0.000127532 0.103768)
(-0.000173171 -0.000173137 0.103668)
(7.98403e-05 7.98382e-05 0.104226)
(-0.000123503 7.05293e-05 0.104168)
(7.05767e-05 -0.000123437 0.104168)
(-0.000170242 -0.000170217 0.104027)
(7.7916e-05 7.78405e-05 0.104646)
(-0.00011999 6.91846e-05 0.10455)
(6.91586e-05 -0.000119933 0.10455)
(-0.000168098 -0.000168083 0.104363)
(7.6183e-05 7.60879e-05 0.105053)
(-0.000116831 6.8101e-05 0.104917)
(6.8115e-05 -0.000116796 0.104917)
(-0.000166528 -0.000166583 0.104678)
(7.46025e-05 7.4505e-05 0.10545)
(-0.000113868 6.71012e-05 0.105269)
(6.713e-05 -0.000113826 0.105269)
(-0.000165185 -0.000165266 0.104972)
(7.31156e-05 7.3036e-05 0.105836)
(-0.000111205 6.6109e-05 0.105606)
(6.61628e-05 -0.00011118 0.105606)
(-0.000164045 -0.000164153 0.105245)
(7.16415e-05 7.1597e-05 0.106213)
(-0.000108736 6.50415e-05 0.10593)
(6.50974e-05 -0.000108698 0.10593)
(-0.00016303 -0.000163039 0.105497)
(7.02036e-05 7.01832e-05 0.106581)
(-0.000106305 6.40063e-05 0.106239)
(6.40352e-05 -0.000106271 0.106239)
(-0.000161788 -0.000161736 0.105727)
(6.87875e-05 6.87758e-05 0.10694)
(-0.000103909 6.30045e-05 0.106534)
(6.30198e-05 -0.000103899 0.106534)
(-0.000160278 -0.000160262 0.105934)
(6.74029e-05 6.7389e-05 0.10729)
(-0.000101562 6.19958e-05 0.106813)
(6.19965e-05 -0.000101575 0.106813)
(-0.000158651 -0.00015867 0.106117)
(6.60744e-05 6.60619e-05 0.107631)
(-9.92841e-05 6.09885e-05 0.107077)
(6.10093e-05 -9.94083e-05 0.107077)
(-0.00015682 -0.000156881 0.106274)
(6.47855e-05 6.47799e-05 0.107963)
(-9.73053e-05 6.00496e-05 0.107325)
(6.00661e-05 -9.74348e-05 0.107325)
(-0.000154744 -0.000154823 0.106405)
(6.35235e-05 6.3502e-05 0.108287)
(-9.54606e-05 5.90602e-05 0.107556)
(5.91137e-05 -9.55525e-05 0.107556)
(-0.000152312 -0.000152382 0.106508)
(6.22807e-05 6.22608e-05 0.108602)
(-9.364e-05 5.80501e-05 0.10777)
(5.80816e-05 -9.36982e-05 0.10777)
(-0.000149473 -0.000149524 0.106585)
(0.000138077 0.000138124 0.10028)
(0.000126527 0.000159991 0.100229)
(-0.000126404 0.000159818 0.100229)
(-0.000137844 0.000137912 0.10028)
(0.00016 0.000126479 0.100229)
(0.000159769 -0.000126204 0.100229)
(9.38543e-05 9.38144e-05 0.100152)
(-9.3749e-05 9.37401e-05 0.100152)
(9.37306e-05 -9.35885e-05 0.100152)
(-9.37688e-05 -9.37429e-05 0.100152)
(-0.000159845 0.00012636 0.100229)
(-0.000159927 -0.000126395 0.100229)
(0.000137847 -0.000137764 0.10028)
(0.000126392 -0.000159621 0.100229)
(-0.000126392 -0.000159952 0.100229)
(-0.000137963 -0.000138045 0.10028)
(0.000247888 0.000247851 0.100398)
(0.000112807 0.000112723 0.100896)
(0.000115667 0.000184807 0.10039)
(-0.000115475 0.000184802 0.10039)
(9.31999e-05 0.000149047 0.100817)
(-9.31252e-05 0.00014914 0.100817)
(-0.000247662 0.000247608 0.100398)
(-0.000112673 0.000112667 0.100896)
(0.000184973 0.000115581 0.10039)
(0.000184763 -0.000115439 0.100389)
(0.000149088 9.31736e-05 0.100817)
(0.000149053 -9.31762e-05 0.100817)
(-0.000184851 -0.000115601 0.10039)
(-0.000148952 9.31088e-05 0.100817)
(-0.000149069 -9.31759e-05 0.100817)
(0.000247644 -0.000247599 0.100398)
(0.000112709 -0.000112853 0.100896)
(-0.000115549 -0.000185076 0.10039)
(9.3173e-05 -0.000149024 0.100817)
(-9.31325e-05 -0.000148997 0.100817)
(-0.000112872 -0.000112727 0.100896)
(0.000194416 0.000194312 0.100971)
(0.000105495 0.000105386 0.101399)
(9.36623e-05 0.000151517 0.100938)
(-9.36151e-05 0.000151637 0.100938)
(9.14957e-05 0.000152126 0.101319)
(-9.13669e-05 0.000152284 0.101319)
(-0.000194267 0.0001943 0.100971)
(-0.00010528 0.000105426 0.101399)
(0.000151577 9.36151e-05 0.100938)
(0.000151553 -9.36657e-05 0.100938)
(0.000152191 9.14462e-05 0.101319)
(0.00015217 -9.15407e-05 0.101319)
(-0.000151578 -9.36563e-05 0.100938)
(-0.000152018 9.14849e-05 0.101319)
(-0.000152199 -9.14273e-05 0.101319)
(0.000194315 -0.000194461 0.100971)
(0.000105391 -0.000105533 0.101399)
(-9.36321e-05 -0.00015149 0.100938)
(9.14831e-05 -0.000152265 0.101319)
(-9.14068e-05 -0.000152146 0.101319)
(-0.000105397 -0.000105403 0.101399)
(0.00019487 0.000194742 0.101474)
(9.78171e-05 9.77331e-05 0.101896)
(9.09732e-05 0.000152273 0.101447)
(-9.08264e-05 0.000152426 0.101447)
(8.8371e-05 0.000150482 0.101828)
(-8.81602e-05 0.000150578 0.101828)
(-0.000194624 0.000194795 0.101474)
(-9.75492e-05 9.77325e-05 0.101896)
(0.000152307 9.09436e-05 0.101447)
(0.000152294 -9.10089e-05 0.101447)
(0.000150468 8.83649e-05 0.101829)
(0.000150452 -8.83304e-05 0.101829)
(-0.000152302 -9.09132e-05 0.101447)
(-0.000150293 8.82914e-05 0.101828)
(-0.000150468 -8.82876e-05 0.101828)
(0.000194744 -0.000194898 0.101474)
(9.76675e-05 -9.78261e-05 0.101896)
(-9.08987e-05 -0.000152289 0.101447)
(8.83517e-05 -0.000150518 0.101829)
(-8.82942e-05 -0.000150462 0.101829)
(-9.77146e-05 -9.76465e-05 0.101896)
(0.000192247 0.000192132 0.101967)
(8.84927e-05 8.84257e-05 0.10237)
(8.72331e-05 0.000149321 0.101954)
(-8.70277e-05 0.000149384 0.101954)
(8.36583e-05 0.000145176 0.102322)
(-8.34613e-05 0.00014513 0.102322)
(-0.00019197 0.000192151 0.101967)
(-8.83051e-05 8.82915e-05 0.10237)
(0.000149314 8.72248e-05 0.101954)
(0.000149288 -8.71876e-05 0.101954)
(0.000145158 8.36636e-05 0.102322)
(0.00014512 -8.35919e-05 0.102322)
(-0.000149346 -8.71703e-05 0.101954)
(-0.000145096 8.34685e-05 0.102322)
(-0.000145345 -8.37115e-05 0.102322)
(0.000192089 -0.000192237 0.101967)
(8.83666e-05 -8.85008e-05 0.10237)
(-8.72e-05 -0.0001493 0.101954)
(8.36573e-05 -0.000145178 0.102322)
(-8.37752e-05 -0.000145152 0.102322)
(-8.86168e-05 -8.85063e-05 0.10237)
(0.000186988 0.000186881 0.102435)
(7.96909e-05 7.97122e-05 0.102816)
(8.24816e-05 0.000143689 0.102442)
(-8.23193e-05 0.000143623 0.102442)
(7.93604e-05 0.000139255 0.102793)
(-7.92585e-05 0.000139136 0.102793)
(-0.000186803 0.000186734 0.102435)
(-7.96235e-05 7.95394e-05 0.102816)
(0.000143656 8.24849e-05 0.102442)
(0.00014362 -8.24412e-05 0.102442)
(0.000139164 7.93771e-05 0.102793)
(0.00013914 -7.93471e-05 0.102793)
(-0.000143881 -8.25477e-05 0.102442)
(-0.000139213 7.91426e-05 0.102793)
(-0.000139423 -7.9419e-05 0.102793)
(0.000186818 -0.000186992 0.102435)
(7.96543e-05 -7.96896e-05 0.102816)
(-8.26227e-05 -0.000143659 0.102442)
(7.93211e-05 -0.000139211 0.102793)
(-7.94631e-05 -0.000139183 0.102793)
(-7.98748e-05 -7.97131e-05 0.102816)
(0.00018158 0.000181549 0.102874)
(7.19297e-05 7.19766e-05 0.103234)
(7.84268e-05 0.000137821 0.102907)
(-7.83412e-05 0.000137704 0.102907)
(7.59174e-05 0.000133736 0.10324)
(-7.58437e-05 0.000133597 0.10324)
(-0.000181494 0.000181358 0.102874)
(-7.18914e-05 7.18149e-05 0.103234)
(0.00013772 7.84446e-05 0.102907)
(0.0001377 -7.84121e-05 0.102907)
(0.000133608 7.59317e-05 0.10324)
(0.000133603 -7.58717e-05 0.10324)
(-0.000137966 -7.84716e-05 0.102907)
(-0.000133655 7.57463e-05 0.10324)
(-0.000133781 -7.59107e-05 0.10324)
(0.000181473 -0.000181582 0.102874)
(7.192e-05 -7.18948e-05 0.103234)
(-7.85105e-05 -0.000137736 0.102907)
(7.58771e-05 -0.000133608 0.10324)
(-7.59438e-05 -0.000133599 0.10324)
(-7.20215e-05 -7.19135e-05 0.103234)
(0.000176944 0.000176938 0.103285)
(6.51097e-05 6.51796e-05 0.103626)
(7.51767e-05 0.000132456 0.103348)
(-7.51013e-05 0.000132319 0.103348)
(7.3195e-05 0.000128864 0.103665)
(-7.31196e-05 0.000128743 0.103665)
(-0.000176867 0.000176757 0.103284)
(-6.5056e-05 6.50631e-05 0.103625)
(0.000132322 7.51883e-05 0.103348)
(0.000132315 -7.51145e-05 0.103348)
(0.000128705 7.32145e-05 0.103665)
(0.000128697 -7.31079e-05 0.103665)
(-0.000132467 -7.51499e-05 0.103348)
(-0.000128722 7.30865e-05 0.103665)
(-0.000128817 -7.31377e-05 0.103665)
(0.000176856 -0.000176902 0.103285)
(6.51115e-05 -6.50509e-05 0.103626)
(-7.51817e-05 -0.000132299 0.103348)
(7.31585e-05 -0.000128654 0.103665)
(-7.31788e-05 -0.000128664 0.103665)
(-6.51537e-05 -6.50613e-05 0.103626)
(0.000173193 0.000173192 0.103668)
(5.91624e-05 5.92621e-05 0.103993)
(7.261e-05 0.000127735 0.103768)
(-7.25387e-05 0.00012763 0.103768)
(7.10676e-05 0.000124581 0.10407)
(-7.09966e-05 0.0001245 0.10407)
(-0.000173096 0.000173061 0.103668)
(-5.91076e-05 5.91887e-05 0.103993)
(0.000127584 7.26302e-05 0.103768)
(0.000127574 -7.25254e-05 0.103768)
(0.000124449 7.10782e-05 0.10407)
(0.00012443 -7.09845e-05 0.10407)
(-0.000127695 -7.25497e-05 0.103768)
(-0.000124465 7.09735e-05 0.10407)
(-0.000124567 -7.09869e-05 0.10407)
(0.0001731 -0.00017313 0.103668)
(5.92041e-05 -5.91014e-05 0.103993)
(-7.25927e-05 -0.000127539 0.103768)
(7.10203e-05 -0.000124396 0.10407)
(-7.10347e-05 -0.0001244 0.10407)
(-5.91993e-05 -5.90903e-05 0.103993)
(0.000170292 0.000170223 0.104027)
(5.41928e-05 5.4352e-05 0.104338)
(7.06615e-05 0.000123613 0.104168)
(-7.0591e-05 0.000123535 0.104168)
(6.97151e-05 0.000120927 0.104456)
(-6.96335e-05 0.000120839 0.104456)
(-0.000170185 0.00017012 0.104027)
(-5.41507e-05 5.42975e-05 0.104338)
(0.00012349 7.06397e-05 0.104168)
(0.000123468 -7.05799e-05 0.104168)
(0.000120817 6.9571e-05 0.104456)
(0.000120794 -6.96112e-05 0.104456)
(-0.000123601 -7.05309e-05 0.104168)
(-0.000120823 6.94857e-05 0.104456)
(-0.000120901 -6.94723e-05 0.104456)
(0.000170133 -0.000170241 0.104027)
(5.43058e-05 -5.40598e-05 0.104338)
(-7.05719e-05 -0.000123437 0.104168)
(6.9456e-05 -0.000120758 0.104456)
(-6.94327e-05 -0.000120759 0.104456)
(-5.41792e-05 -5.40406e-05 0.104338)
(0.000168193 0.000168175 0.104363)
(4.97645e-05 4.98819e-05 0.104663)
(6.94331e-05 0.000120095 0.10455)
(-6.93507e-05 0.000119999 0.10455)
(6.86785e-05 0.000117727 0.104827)
(-6.8559e-05 0.000117598 0.104827)
(-0.000168097 0.000168079 0.104363)
(-4.96582e-05 4.98077e-05 0.104663)
(0.000119987 6.92753e-05 0.10455)
(0.000119966 -6.93363e-05 0.10455)
(0.000117608 6.84923e-05 0.104827)
(0.0001176 -6.85725e-05 0.104827)
(-0.00012007 -6.91958e-05 0.10455)
(-0.000117595 6.83627e-05 0.104827)
(-0.000117673 -6.84395e-05 0.104827)
(0.000168093 -0.000168104 0.104363)
(4.98262e-05 -4.96633e-05 0.104663)
(-6.91359e-05 -0.00011994 0.10455)
(6.83705e-05 -0.000117559 0.104827)
(-6.83349e-05 -0.000117592 0.104827)
(-4.97132e-05 -4.96746e-05 0.104663)
(0.000166645 0.00016661 0.104678)
(4.55555e-05 4.56059e-05 0.104968)
(6.84161e-05 0.000116951 0.104917)
(-6.8305e-05 0.000116825 0.104917)
(6.76584e-05 0.000114706 0.105182)
(-6.75551e-05 0.00011458 0.105182)
(-0.000166519 0.000166501 0.104678)
(-4.54752e-05 4.55757e-05 0.104968)
(0.000116835 6.82295e-05 0.104917)
(0.000116834 -6.83207e-05 0.104917)
(0.00011459 6.74713e-05 0.105182)
(0.000114606 -6.75688e-05 0.105182)
(-0.000116906 -6.81903e-05 0.104917)
(-0.000114588 6.73482e-05 0.105182)
(-0.000114652 -6.74442e-05 0.105182)
(0.000166539 -0.000166576 0.104678)
(4.55895e-05 -4.54908e-05 0.104968)
(-6.8076e-05 -0.000116837 0.104917)
(6.73737e-05 -0.000114556 0.105182)
(-6.73175e-05 -0.000114606 0.105182)
(-4.54898e-05 -4.55179e-05 0.104968)
(0.000165301 0.000165239 0.104972)
(4.15902e-05 4.15967e-05 0.105253)
(6.74044e-05 0.000113981 0.105269)
(-6.73062e-05 0.00011385 0.105269)
(6.66413e-05 0.000111928 0.105523)
(-6.65498e-05 0.00011184 0.105523)
(-0.000165185 0.000165162 0.104972)
(-4.15558e-05 4.15991e-05 0.105253)
(0.000113855 6.72256e-05 0.105269)
(0.000113876 -6.73191e-05 0.105269)
(0.000111835 6.64912e-05 0.105523)
(0.000111874 -6.65478e-05 0.105523)
(-0.000113929 -6.71948e-05 0.105269)
(-0.000111832 6.6366e-05 0.105523)
(-0.000111877 -6.64155e-05 0.105523)
(0.000165206 -0.00016525 0.104972)
(4.16014e-05 -4.15494e-05 0.105253)
(-6.70712e-05 -0.00011388 0.105269)
(6.64142e-05 -0.000111811 0.105523)
(-6.63366e-05 -0.000111814 0.105523)
(-4.15274e-05 -4.15631e-05 0.105253)
(0.00016415 0.000164053 0.105245)
(3.7623e-05 3.77443e-05 0.105519)
(6.6369e-05 0.00011129 0.105606)
(-6.62904e-05 0.000111214 0.105606)
(6.55727e-05 0.000109433 0.10585)
(-6.55239e-05 0.00010936 0.10585)
(-0.000164114 0.000164011 0.105245)
(-3.75561e-05 3.76847e-05 0.105519)
(0.000111202 6.6243e-05 0.105606)
(0.000111245 -6.62841e-05 0.105606)
(0.000109339 6.54409e-05 0.10585)
(0.000109393 -6.55062e-05 0.10585)
(-0.000111245 -6.61491e-05 0.105606)
(-0.000109343 6.53059e-05 0.10585)
(-0.00010939 -6.53564e-05 0.10585)
(0.000164054 -0.000164153 0.105245)
(3.77475e-05 -3.75337e-05 0.105519)
(-6.60832e-05 -0.000111171 0.105606)
(6.53655e-05 -0.000109308 0.10585)
(-6.52887e-05 -0.000109274 0.10585)
(-3.76359e-05 -3.75165e-05 0.105519)
(0.000163084 0.00016304 0.105497)
(3.34613e-05 3.36287e-05 0.105764)
(6.53033e-05 0.000108818 0.10593)
(-6.52633e-05 0.000108756 0.10593)
(6.45428e-05 0.000107001 0.106163)
(-6.45158e-05 0.000106941 0.106163)
(-0.000163044 0.000162975 0.105497)
(-3.33607e-05 3.35529e-05 0.105764)
(0.000108727 6.5177e-05 0.10593)
(0.000108782 -6.5245e-05 0.10593)
(0.000106903 6.44046e-05 0.106163)
(0.000106963 -6.4501e-05 0.106163)
(-0.000108784 -6.50927e-05 0.10593)
(-0.000106903 6.42564e-05 0.106163)
(-0.000106964 -6.43334e-05 0.106163)
(0.00016303 -0.000163059 0.105497)
(3.36617e-05 -3.33613e-05 0.105764)
(-6.50279e-05 -0.000108655 0.10593)
(6.42976e-05 -0.000106869 0.106163)
(-6.42406e-05 -0.000106811 0.106163)
(-3.34996e-05 -3.32986e-05 0.105764)
(0.000161808 0.000161821 0.105727)
(2.9368e-05 2.94958e-05 0.105986)
(6.42906e-05 0.000106392 0.106239)
(-6.42689e-05 0.00010635 0.106239)
(6.35398e-05 0.000104616 0.106461)
(-6.35294e-05 0.000104575 0.106461)
(-0.000161751 0.00016174 0.105727)
(-2.92647e-05 2.9435e-05 0.105986)
(0.000106297 6.41512e-05 0.106239)
(0.000106359 -6.42526e-05 0.106239)
(0.000104519 6.34164e-05 0.106461)
(0.000104567 -6.3512e-05 0.106461)
(-0.000106365 -6.40856e-05 0.106239)
(-0.0001045 6.32675e-05 0.106461)
(-0.000104574 -6.33439e-05 0.106461)
(0.000161813 -0.000161788 0.105727)
(2.95005e-05 -2.92908e-05 0.105986)
(-6.39881e-05 -0.000106208 0.106239)
(6.32763e-05 -0.000104484 0.106461)
(-6.32404e-05 -0.000104417 0.106461)
(-2.93544e-05 -2.92114e-05 0.105986)
(0.000160328 0.000160323 0.105934)
(2.55222e-05 2.56081e-05 0.106186)
(6.32887e-05 0.00010401 0.106533)
(-6.32633e-05 0.000103983 0.106533)
(6.25357e-05 0.000102268 0.106744)
(-6.24971e-05 0.000102225 0.106744)
(-0.000160254 0.000160249 0.105934)
(-2.54077e-05 2.55191e-05 0.106186)
(0.000103922 6.31588e-05 0.106534)
(0.000103974 -6.32623e-05 0.106533)
(0.000102188 6.24132e-05 0.106745)
(0.000102218 -6.25061e-05 0.106744)
(-0.000103989 -6.30957e-05 0.106533)
(-0.000102137 6.22492e-05 0.106745)
(-0.000102231 -6.23498e-05 0.106744)
(0.000160301 -0.000160326 0.105934)
(2.55853e-05 -2.54388e-05 0.106186)
(-6.29905e-05 -0.000103834 0.106534)
(6.22535e-05 -0.000102153 0.106745)
(-6.22349e-05 -0.000102087 0.106745)
(-2.5461e-05 -2.53691e-05 0.106186)
(0.000158721 0.000158687 0.106117)
(2.19789e-05 2.20397e-05 0.10636)
(6.2282e-05 0.000101666 0.106813)
(-6.22325e-05 0.000101653 0.106813)
(6.15329e-05 9.99946e-05 0.107012)
(-6.14585e-05 9.99267e-05 0.107012)
(-0.000158636 0.000158615 0.106117)
(-2.18416e-05 2.19269e-05 0.10636)
(0.000101595 6.21479e-05 0.106813)
(0.000101632 -6.22511e-05 0.106813)
(9.99449e-05 6.14145e-05 0.107013)
(9.99578e-05 -6.15087e-05 0.107012)
(-0.00010166 -6.20988e-05 0.106813)
(-9.98228e-05 6.12345e-05 0.107013)
(-9.99291e-05 -6.13489e-05 0.107012)
(0.000158642 -0.000158713 0.106117)
(2.20113e-05 -2.19034e-05 0.10636)
(-6.19823e-05 -0.000101518 0.106813)
(6.12516e-05 -9.99028e-05 0.107013)
(-6.12247e-05 -9.98025e-05 0.107013)
(-2.18826e-05 -2.18392e-05 0.10636)
(0.000156919 0.000156881 0.106274)
(1.86747e-05 1.87174e-05 0.106509)
(6.12969e-05 9.9493e-05 0.107077)
(-6.12034e-05 9.93924e-05 0.107077)
(6.05764e-05 9.7995e-05 0.107264)
(-6.04923e-05 9.78772e-05 0.107264)
(-0.000156807 0.000156785 0.106274)
(-1.85595e-05 1.86158e-05 0.106509)
(9.94303e-05 6.116e-05 0.107077)
(9.94576e-05 -6.12681e-05 0.107077)
(9.7972e-05 6.04739e-05 0.107265)
(9.79716e-05 -6.05503e-05 0.107264)
(-9.93954e-05 -6.11096e-05 0.107077)
(-9.77739e-05 6.02859e-05 0.107265)
(-9.78713e-05 -6.03989e-05 0.107264)
(0.000156823 -0.000156912 0.106274)
(1.87006e-05 -1.86041e-05 0.106509)
(-6.0982e-05 -9.92668e-05 0.107077)
(6.03052e-05 -9.79122e-05 0.107264)
(-6.02623e-05 -9.77692e-05 0.107265)
(-1.85694e-05 -1.85577e-05 0.106509)
(0.000154856 0.00015482 0.106404)
(1.55637e-05 1.55845e-05 0.106631)
(6.03375e-05 9.75618e-05 0.107325)
(-6.02492e-05 9.74058e-05 0.107325)
(5.96038e-05 9.60577e-05 0.107499)
(-5.95329e-05 9.60096e-05 0.107499)
(-0.000154761 0.000154722 0.106405)
(-1.54612e-05 1.55114e-05 0.106631)
(9.74707e-05 6.02096e-05 0.107325)
(9.74961e-05 -6.0306e-05 0.107324)
(9.60777e-05 5.95043e-05 0.1075)
(9.6078e-05 -5.95731e-05 0.107499)
(-9.73976e-05 -6.01577e-05 0.107325)
(-9.59048e-05 5.93132e-05 0.1075)
(-9.59671e-05 -5.94279e-05 0.1075)
(0.000154759 -0.00015484 0.106405)
(1.55767e-05 -1.54738e-05 0.106631)
(-6.00221e-05 -9.72919e-05 0.107325)
(5.93498e-05 -9.601e-05 0.1075)
(-5.92942e-05 -9.58794e-05 0.1075)
(-1.54634e-05 -1.54523e-05 0.106631)
(0.000152406 0.000152391 0.106508)
(1.26451e-05 1.26169e-05 0.106725)
(5.93519e-05 9.56279e-05 0.107556)
(-5.929e-05 9.55496e-05 0.107556)
(5.85568e-05 9.41186e-05 0.107717)
(-5.85428e-05 9.41864e-05 0.107718)
(-0.000152326 0.000152277 0.106508)
(-1.25771e-05 1.25549e-05 0.106725)
(9.55797e-05 5.92004e-05 0.107556)
(9.56166e-05 -5.93251e-05 0.107555)
(9.42267e-05 5.84906e-05 0.107718)
(9.42297e-05 -5.8547e-05 0.107717)
(-9.5522e-05 -5.91847e-05 0.107556)
(-9.40861e-05 5.83117e-05 0.107718)
(-9.41237e-05 -5.84118e-05 0.107718)
(0.000152336 -0.000152404 0.106508)
(1.26421e-05 -1.252e-05 0.106725)
(-5.90573e-05 -9.54257e-05 0.107556)
(5.83427e-05 -9.4148e-05 0.107718)
(-5.82797e-05 -9.40346e-05 0.107718)
(-1.25085e-05 -1.24927e-05 0.106725)
(0.000149525 0.000149542 0.106585)
(5.82859e-05 9.37337e-05 0.10777)
(-5.82741e-05 9.37358e-05 0.107769)
(-0.0001495 0.000149403 0.106585)
(9.37117e-05 5.8142e-05 0.10777)
(9.37768e-05 -5.82769e-05 0.107769)
(-9.36968e-05 -5.81466e-05 0.10777)
(0.000149497 -0.000149548 0.106585)
(-5.8022e-05 -9.35825e-05 0.10777)
(-3.98002e-07 -3.8346e-07 0.0999987)
(1.81947e-05 1.82e-05 0.100004)
(-1.82648e-07 1.34278e-05 0.1)
(1.34175e-05 -1.67428e-07 0.1)
(-5.17191e-05 7.0967e-06 0.100012)
(-2.01266e-05 1.84408e-05 0.100002)
(-0.000136657 5.8774e-05 0.100069)
(-1.24628e-05 -5.47023e-07 0.0999962)
(7.5613e-06 -5.13539e-05 0.100012)
(1.84591e-05 -2.01245e-05 0.100002)
(-5.01962e-07 -1.23617e-05 0.0999962)
(6.00933e-05 -0.000135351 0.100068)
(-2.45318e-05 -2.43551e-05 0.100007)
(-0.000134408 -7.9796e-05 0.100055)
(-8.12226e-05 -0.000133243 0.100056)
(-1.34221e-05 0.000147052 0.100668)
(0.000227189 0.000577115 0.0996123)
(1.12509e-05 0.00033555 0.10056)
(-3.80391e-05 0.000365831 0.0990395)
(-0.000414162 0.000955011 0.0979395)
(-0.000209121 0.000400736 0.0956674)
(0.000146255 -1.36449e-05 0.100668)
(0.000576286 0.000225851 0.0996097)
(0.00033557 1.13054e-05 0.10056)
(0.000366098 -3.85099e-05 0.0990396)
(-0.00010613 0.000106114 0.100294)
(0.000106117 -0.000106024 0.100294)
(-0.000106152 -0.000106185 0.100294)
(9.48527e-05 9.47858e-05 0.100733)
(-9.48458e-05 9.47892e-05 0.100733)
(9.49078e-05 -9.49722e-05 0.100733)
(-9.4813e-05 -9.48616e-05 0.100733)
(-0.00025305 5.92454e-06 0.100718)
(-0.000386835 0.000206074 0.100571)
(-0.000169069 3.99686e-05 0.100331)
(-0.000145156 8.86326e-05 0.10056)
(-0.000335216 2.6862e-05 0.100496)
(-0.00015023 0.000169233 0.10066)
(-0.00014115 3.22939e-05 0.100497)
(0.000954325 -0.000407365 0.0979363)
(0.000400234 -0.000206783 0.0956684)
(5.71467e-06 -0.000253111 0.100717)
(3.98582e-05 -0.000169021 0.100331)
(0.000206036 -0.000385853 0.100569)
(8.85102e-05 -0.000145209 0.10056)
(2.58129e-05 -0.000334873 0.100495)
(3.23619e-05 -0.000141032 0.100497)
(0.000167014 -0.000149909 0.100659)
(-0.000416445 -0.000169641 0.100451)
(-0.000169559 -0.000417689 0.100452)
(-0.000112679 -0.000112636 0.100645)
(-2.21078e-05 -9.05663e-05 0.10049)
(-9.07954e-05 -2.23742e-05 0.10049)
(1.02717e-06 0.000177688 0.100868)
(-4.53828e-05 0.00035645 0.0983232)
(-3.46786e-06 0.000192288 0.100779)
(-3.91809e-05 0.000318637 0.0979421)
(-0.000195595 0.000322791 0.0926301)
(-0.000170757 0.000277453 0.0910098)
(0.000177627 8.13544e-07 0.100868)
(0.000356988 -4.53344e-05 0.0983238)
(0.000192142 -3.7124e-06 0.10078)
(0.000319071 -3.93033e-05 0.0979427)
(-9.72079e-05 9.72028e-05 0.100854)
(9.73043e-05 -9.735e-05 0.100854)
(-9.71987e-05 -9.72302e-05 0.100854)
(9.72195e-05 9.71459e-05 0.101238)
(-9.71371e-05 9.72478e-05 0.101238)
(9.72598e-05 -9.73472e-05 0.101238)
(-9.71813e-05 -9.72137e-05 0.101238)
(-0.000248299 1.96616e-05 0.101155)
(-0.000205051 0.000198897 0.100823)
(-0.000156747 3.04294e-05 0.100889)
(-0.000151814 9.28055e-05 0.101063)
(-0.000288788 1.82273e-05 0.100985)
(-0.000171367 0.000184174 0.100948)
(-0.000158683 3.05287e-05 0.101015)
(0.000322831 -0.000194337 0.0926272)
(0.000278092 -0.000169907 0.0910109)
(1.97483e-05 -0.000248465 0.101155)
(3.06389e-05 -0.000156652 0.100889)
(0.000197938 -0.000204909 0.100823)
(9.28536e-05 -0.000151977 0.101063)
(1.83133e-05 -0.00028883 0.100985)
(3.07141e-05 -0.000158648 0.101015)
(0.000183133 -0.000171421 0.100947)
(-5.93325e-05 -9.17351e-05 0.10044)
(-9.15008e-05 -5.9123e-05 0.10044)
(-0.000108747 -0.000108733 0.101146)
(-6.36233e-05 -7.28279e-05 0.10044)
(-7.25616e-05 -6.35516e-05 0.100438)
(3.93744e-06 0.000195714 0.100968)
(-2.00971e-05 0.000325802 0.0971203)
(2.42419e-06 0.00022315 0.100898)
(-1.14668e-05 0.000284392 0.0967104)
(-0.00014696 0.000232349 0.0883831)
(-0.000119437 0.000189405 0.0870828)
(0.000195635 3.71538e-06 0.100968)
(0.000326157 -1.99536e-05 0.097121)
(0.000223204 2.34695e-06 0.100899)
(0.000284632 -1.09318e-05 0.0967106)
(-9.69515e-05 9.7097e-05 0.101368)
(9.70883e-05 -9.71746e-05 0.101368)
(-9.70279e-05 -9.7055e-05 0.101368)
(9.56003e-05 9.55362e-05 0.101758)
(-9.54315e-05 9.55936e-05 0.101757)
(9.55863e-05 -9.56395e-05 0.101758)
(-9.5576e-05 -9.558e-05 0.101758)
(-0.000242055 1.82431e-05 0.101587)
(-0.000220518 0.000188769 0.101025)
(-0.000161063 3.05586e-05 0.101404)
(-0.000151881 9.02874e-05 0.101575)
(-0.000287635 1.84922e-05 0.101417)
(-0.000176813 0.000164792 0.101133)
(-0.000161375 3.04695e-05 0.101533)
(0.000232604 -0.000146094 0.0883782)
(0.000189524 -0.000118784 0.0870832)
(1.84848e-05 -0.000242148 0.101587)
(3.07581e-05 -0.000161136 0.101404)
(0.000187579 -0.000221025 0.101026)
(9.02861e-05 -0.00015214 0.101575)
(1.87166e-05 -0.000287827 0.101417)
(3.06829e-05 -0.000161447 0.101534)
(0.000163713 -0.000177353 0.101132)
(-9.76203e-05 -8.5833e-05 0.10018)
(-8.56206e-05 -9.79127e-05 0.100179)
(-0.000101928 -0.000101867 0.10165)
(-9.39372e-05 -6.29052e-05 0.100114)
(-6.2884e-05 -9.44412e-05 0.100111)
(3.0636e-06 0.000197916 0.10097)
(5.1028e-06 0.000290083 0.0958328)
(2.62207e-06 0.000234202 0.100921)
(9.81539e-06 0.00024545 0.0954177)
(-9.84196e-05 0.000157282 0.0849707)
(-7.37227e-05 0.000120143 0.0839848)
(0.000197913 2.93435e-06 0.100969)
(0.000290311 5.32086e-06 0.0958323)
(0.000234267 2.44962e-06 0.100923)
(0.000245657 9.91393e-06 0.0954177)
(-9.46754e-05 9.48149e-05 0.101886)
(9.48284e-05 -9.48722e-05 0.101886)
(-9.48412e-05 -9.48312e-05 0.101886)
(9.23223e-05 9.22782e-05 0.102266)
(-9.21828e-05 9.2224e-05 0.102266)
(9.2298e-05 -9.23306e-05 0.102267)
(-9.23928e-05 -9.23363e-05 0.102266)
(-0.000230947 1.61369e-05 0.101987)
(-0.000219314 0.000166443 0.101136)
(-0.00015985 2.97989e-05 0.101919)
(-0.00014789 8.59174e-05 0.102078)
(-0.000281851 1.62252e-05 0.101825)
(-0.000170686 0.000139011 0.101224)
(-0.000158867 2.95154e-05 0.102045)
(0.000157126 -9.78831e-05 0.0849672)
(0.000120166 -7.33767e-05 0.0839871)
(1.62231e-05 -0.000230794 0.101987)
(3.00367e-05 -0.000159884 0.101919)
(0.000165907 -0.00022 0.101137)
(8.60475e-05 -0.00014804 0.102078)
(1.63833e-05 -0.000281823 0.101825)
(2.97523e-05 -0.00015885 0.102046)
(0.000138595 -0.000171257 0.101224)
(-0.000118305 -7.5432e-05 0.0997208)
(-7.55973e-05 -0.000118764 0.0997165)
(-9.32044e-05 -9.31292e-05 0.102136)
(-0.000109421 -5.14818e-05 0.0996084)
(-5.15903e-05 -0.000109671 0.0996027)
(8.54066e-07 0.000191182 0.100874)
(1.86185e-05 0.000251776 0.0945315)
(8.03384e-07 0.000233406 0.100847)
(1.84174e-05 0.000205936 0.0941366)
(-6.07464e-05 0.000103214 0.082337)
(-4.08043e-05 7.26082e-05 0.081613)
(0.000191023 1.00459e-06 0.100873)
(0.000251956 1.85015e-05 0.094531)
(0.000233458 9.41002e-07 0.100848)
(0.000206078 1.85252e-05 0.0941374)
(-9.13234e-05 9.13284e-05 0.102391)
(9.14127e-05 -9.14532e-05 0.102391)
(-9.15309e-05 -9.14644e-05 0.102391)
(8.88054e-05 8.88011e-05 0.102757)
(-8.87543e-05 8.86895e-05 0.102757)
(8.87753e-05 -8.88454e-05 0.102758)
(-8.89208e-05 -8.88541e-05 0.102757)
(-0.00021636 1.4293e-05 0.102346)
(-0.000210859 0.000143473 0.101154)
(-0.000155092 2.86945e-05 0.102418)
(-0.000142147 8.11694e-05 0.10256)
(-0.000270934 1.41344e-05 0.102193)
(-0.000160268 0.000114877 0.101226)
(-0.000153654 2.84477e-05 0.10254)
(0.0001032 -6.03333e-05 0.082334)
(7.26593e-05 -4.03449e-05 0.0816153)
(1.41962e-05 -0.000216069 0.102346)
(2.88929e-05 -0.000154984 0.102419)
(0.000143554 -0.000211381 0.101155)
(8.13654e-05 -0.000142178 0.102561)
(1.40667e-05 -0.000270697 0.102193)
(2.86248e-05 -0.000153516 0.102541)
(0.000114964 -0.000160563 0.101224)
(-0.000127175 -6.70613e-05 0.0991173)
(-6.69225e-05 -0.000127075 0.0991129)
(-8.41299e-05 -8.39685e-05 0.102597)
(-0.000114213 -4.31611e-05 0.0989748)
(-4.29577e-05 -0.000114076 0.0989705)
(-6.34729e-07 0.000179713 0.100693)
(2.05882e-05 0.000215582 0.09328)
(-1.05129e-06 0.000226074 0.100683)
(1.72754e-05 0.000169721 0.092921)
(-3.56599e-05 6.85136e-05 0.0803314)
(-1.9421e-05 4.24636e-05 0.0798083)
(0.000179542 -5.27551e-07 0.100691)
(0.000215582 2.06191e-05 0.0932789)
(0.000225998 -8.24806e-07 0.100684)
(0.00016974 1.74546e-05 0.0929217)
(-8.79172e-05 8.78465e-05 0.102877)
(8.793e-05 -8.79978e-05 0.102877)
(-8.8065e-05 -8.80022e-05 0.102877)
(8.55637e-05 8.55725e-05 0.103229)
(-8.55264e-05 8.54686e-05 0.103229)
(8.55419e-05 -8.55718e-05 0.103229)
(-8.56194e-05 -8.55679e-05 0.103229)
(-0.000200544 1.28524e-05 0.102663)
(-0.000199715 0.000123995 0.101088)
(-0.000149143 2.77878e-05 0.102898)
(-0.000136368 7.73486e-05 0.103019)
(-0.000257528 1.23689e-05 0.102518)
(-0.000148383 9.49387e-05 0.101146)
(-0.000147621 2.75918e-05 0.103014)
(6.87144e-05 -3.53225e-05 0.080328)
(4.2653e-05 -1.89997e-05 0.07981)
(1.27744e-05 -0.000200304 0.102662)
(2.79173e-05 -0.000148999 0.102898)
(0.000124302 -0.000199929 0.101088)
(7.74983e-05 -0.00013634 0.10302)
(1.2274e-05 -0.000257315 0.102518)
(2.77056e-05 -0.00014747 0.103014)
(9.50913e-05 -0.00014842 0.101145)
(-0.000127197 -6.1255e-05 0.0984175)
(-6.10584e-05 -0.000127076 0.0984156)
(-7.58271e-05 -7.56912e-05 0.103029)
(-0.000111583 -3.72939e-05 0.0982588)
(-3.71329e-05 -0.000111535 0.0982566)
(-9.82948e-07 0.000165932 0.100438)
(1.58567e-05 0.000183973 0.0921147)
(-1.67146e-06 0.000215283 0.100443)
(1.1e-05 0.000138425 0.0917987)
(-2.03783e-05 4.7966e-05 0.0788008)
(-6.45639e-06 2.44099e-05 0.0784259)
(0.00016589 -1.01342e-06 0.100436)
(0.000183896 1.58786e-05 0.0921133)
(0.000215357 -1.6049e-06 0.100444)
(0.000138381 1.12182e-05 0.0917993)
(-8.478e-05 8.47346e-05 0.103344)
(8.47982e-05 -8.48146e-05 0.103344)
(-8.48584e-05 -8.481e-05 0.103344)
(8.27481e-05 8.27726e-05 0.103682)
(-8.27069e-05 8.27039e-05 0.103682)
(8.27293e-05 -8.27162e-05 0.103682)
(-8.27664e-05 -8.27102e-05 0.103682)
(-0.000185022 1.19737e-05 0.102938)
(-0.000187748 0.000108446 0.100948)
(-0.000143165 2.70772e-05 0.103356)
(-0.000131101 7.43359e-05 0.103455)
(-0.000243653 1.11705e-05 0.1028)
(-0.000136287 7.88092e-05 0.100996)
(-0.00014174 2.69252e-05 0.103467)
(4.80317e-05 -1.99565e-05 0.0787968)
(2.45832e-05 -6.18542e-06 0.0784277)
(1.19329e-05 -0.000184827 0.102938)
(2.71525e-05 -0.000143035 0.103356)
(0.000108719 -0.000187772 0.100949)
(7.44356e-05 -0.000131039 0.103455)
(1.11065e-05 -0.000243498 0.1028)
(2.69895e-05 -0.000141601 0.103468)
(7.89196e-05 -0.000136208 0.100995)
(-0.000122193 -5.72688e-05 0.0976616)
(-5.71188e-05 -0.000122189 0.0976607)
(-6.84643e-05 -6.83707e-05 0.103433)
(-0.000105002 -3.31395e-05 0.0974962)
(-3.29937e-05 -0.000105053 0.0974945)
(-5.21229e-07 0.000151383 0.100124)
(8.26153e-06 0.00015744 0.0910514)
(-1.37902e-06 0.000202852 0.10014)
(3.1681e-06 0.000112439 0.0907786)
(-1.14913e-05 3.61923e-05 0.077619)
(9.59696e-07 1.38746e-05 0.0773533)