/*--------------------------------*- C++ -*----------------------------------*\
| =========                 |                                                 |
| \\      /  F ield         | OpenFOAM: The Open Source CFD Toolbox           |
|  \\    /   O peration     | Version:  v1906                                 |
|   \\  /    A nd           | Web:      www.OpenFOAM.com                      |
|    \\/     M anipulation  |                                                 |
\*---------------------------------------------------------------------------*/
FoamFile
{
    version     2.0;
    format      ascii;
    class       volScalarField;
    location    "875";
    object      epsilon;
}
// * * * * * * * * * * * * * * * * * * * * * * * * * * * * * * * * * * * * * //

dimensions      [0 2 -3 0 0 0 0];


internalField   nonuniform List<scalar> 
42616
(
6.67244e-07
1.19302e-06
1.19309e-06
1.42512e-06
6.72164e-07
1.19497e-06
1.19502e-06
1.4271e-06
6.76482e-07
1.19632e-06
1.1964e-06
1.42862e-06
6.80201e-07
1.1973e-06
1.19735e-06
1.42988e-06
6.83487e-07
1.1978e-06
1.19786e-06
1.43053e-06
6.86238e-07
1.19782e-06
1.19791e-06
1.43099e-06
6.88401e-07
1.19747e-06
1.19748e-06
1.43085e-06
6.90145e-07
1.19664e-06
1.19673e-06
1.43058e-06
6.91516e-07
1.19558e-06
1.19574e-06
1.42986e-06
6.92914e-07
1.19462e-06
1.19471e-06
1.42942e-06
6.93282e-07
1.19296e-06
1.19291e-06
1.42852e-06
6.92586e-07
1.18971e-06
1.18971e-06
1.42565e-06
6.92502e-07
1.1871e-06
1.18749e-06
1.42327e-06
6.93352e-07
1.18622e-06
1.18671e-06
1.42328e-06
6.93105e-07
1.18524e-06
1.18466e-06
1.42244e-06
6.88263e-07
1.17698e-06
1.17639e-06
1.41597e-06
6.86765e-07
1.17138e-06
1.17309e-06
1.40957e-06
6.96224e-07
1.18252e-06
1.1842e-06
1.41951e-06
6.97857e-07
1.18655e-06
1.18648e-06
1.42938e-06
6.72746e-07
1.15216e-06
1.15158e-06
1.40164e-06
6.39909e-07
1.06886e-06
1.06993e-06
1.32369e-06
1.42298e-06
1.19254e-06
1.19258e-06
1.42294e-06
1.19245e-06
1.1926e-06
1.19248e-06
1.19263e-06
1.42302e-06
1.19254e-06
1.19254e-06
1.42306e-06
1.42504e-06
1.42503e-06
1.19309e-06
1.19313e-06
1.19459e-06
1.19462e-06
1.425e-06
1.42498e-06
1.19301e-06
1.19316e-06
1.1945e-06
1.19463e-06
1.19318e-06
1.19451e-06
1.19467e-06
1.42508e-06
1.42506e-06
1.1931e-06
1.19457e-06
1.19458e-06
1.42511e-06
1.42702e-06
1.42666e-06
1.19506e-06
1.19509e-06
1.19612e-06
1.19614e-06
1.42698e-06
1.42659e-06
1.19496e-06
1.19509e-06
1.19603e-06
1.19617e-06
1.19513e-06
1.19603e-06
1.19619e-06
1.42705e-06
1.42666e-06
1.19503e-06
1.1961e-06
1.1961e-06
1.42671e-06
1.42856e-06
1.42793e-06
1.1964e-06
1.19643e-06
1.19714e-06
1.1972e-06
1.4285e-06
1.42789e-06
1.19632e-06
1.19647e-06
1.19705e-06
1.19722e-06
1.19648e-06
1.19709e-06
1.19724e-06
1.42857e-06
1.42798e-06
1.1964e-06
1.19716e-06
1.19715e-06
1.42799e-06
1.42982e-06
1.4286e-06
1.19735e-06
1.19741e-06
1.19776e-06
1.19779e-06
1.42978e-06
1.42857e-06
1.19726e-06
1.19741e-06
1.19766e-06
1.1978e-06
1.19745e-06
1.19768e-06
1.19783e-06
1.42986e-06
1.42863e-06
1.19736e-06
1.19774e-06
1.19775e-06
1.4287e-06
1.43044e-06
1.42915e-06
1.19788e-06
1.19791e-06
1.19796e-06
1.19799e-06
1.4304e-06
1.42911e-06
1.19779e-06
1.19792e-06
1.19788e-06
1.19802e-06
1.19796e-06
1.19788e-06
1.19804e-06
1.43046e-06
1.42918e-06
1.19787e-06
1.19796e-06
1.19795e-06
1.42923e-06
1.43092e-06
1.42907e-06
1.1979e-06
1.19793e-06
1.19761e-06
1.19764e-06
1.43087e-06
1.42898e-06
1.19782e-06
1.19797e-06
1.19753e-06
1.19766e-06
1.19798e-06
1.19754e-06
1.19768e-06
1.43094e-06
1.42912e-06
1.1979e-06
1.19758e-06
1.19758e-06
1.42912e-06
1.4308e-06
1.42896e-06
1.19754e-06
1.19757e-06
1.19694e-06
1.19699e-06
1.43073e-06
1.42886e-06
1.19746e-06
1.19757e-06
1.19685e-06
1.19698e-06
1.19761e-06
1.19687e-06
1.19702e-06
1.43082e-06
1.42889e-06
1.19751e-06
1.19692e-06
1.19693e-06
1.42896e-06
1.43055e-06
1.42803e-06
1.19671e-06
1.19676e-06
1.19586e-06
1.19591e-06
1.43045e-06
1.42802e-06
1.19662e-06
1.19678e-06
1.19577e-06
1.19598e-06
1.1968e-06
1.19579e-06
1.19599e-06
1.43055e-06
1.42821e-06
1.19673e-06
1.19595e-06
1.19593e-06
1.42819e-06
1.42969e-06
1.42765e-06
1.19567e-06
1.1957e-06
1.19496e-06
1.19492e-06
1.42969e-06
1.42749e-06
1.19558e-06
1.19577e-06
1.19489e-06
1.19499e-06
1.19579e-06
1.19481e-06
1.19501e-06
1.42987e-06
1.42765e-06
1.19574e-06
1.19491e-06
1.19494e-06
1.42773e-06
1.42933e-06
1.42709e-06
1.19478e-06
1.19474e-06
1.19359e-06
1.19362e-06
1.42918e-06
1.42696e-06
1.1947e-06
1.19479e-06
1.19352e-06
1.19358e-06
1.19483e-06
1.19352e-06
1.19362e-06
1.42936e-06
1.42689e-06
1.19475e-06
1.19347e-06
1.19348e-06
1.42701e-06
1.4286e-06
1.42413e-06
1.193e-06
1.19306e-06
1.19037e-06
1.19051e-06
1.42848e-06
1.42415e-06
1.19293e-06
1.19302e-06
1.1903e-06
1.1905e-06
1.19305e-06
1.19044e-06
1.19052e-06
1.42843e-06
1.4242e-06
1.19291e-06
1.19043e-06
1.1904e-06
1.4242e-06
1.42558e-06
1.42147e-06
1.18965e-06
1.18978e-06
1.18778e-06
1.18766e-06
1.42561e-06
1.42142e-06
1.18957e-06
1.18977e-06
1.1877e-06
1.18785e-06
1.18982e-06
1.18758e-06
1.18799e-06
1.42564e-06
1.42156e-06
1.18971e-06
1.18783e-06
1.18793e-06
1.4217e-06
1.42304e-06
1.42117e-06
1.18743e-06
1.18719e-06
1.18677e-06
1.18636e-06
1.42295e-06
1.42052e-06
1.18736e-06
1.18751e-06
1.18674e-06
1.18688e-06
1.18766e-06
1.18627e-06
1.18697e-06
1.42311e-06
1.42124e-06
1.18762e-06
1.18683e-06
1.18695e-06
1.42143e-06
1.42299e-06
1.42124e-06
1.18665e-06
1.18632e-06
1.18575e-06
1.18578e-06
1.42243e-06
1.42126e-06
1.18663e-06
1.18677e-06
1.18565e-06
1.18577e-06
1.18682e-06
1.18565e-06
1.1856e-06
1.42313e-06
1.42135e-06
1.18679e-06
1.1856e-06
1.1854e-06
1.42106e-06
1.42267e-06
1.41531e-06
1.18494e-06
1.18539e-06
1.1787e-06
1.17967e-06
1.42296e-06
1.41613e-06
1.18477e-06
1.18486e-06
1.17851e-06
1.17852e-06
1.18457e-06
1.17952e-06
1.17835e-06
1.42276e-06
1.41501e-06
1.18428e-06
1.17841e-06
1.17817e-06
1.41478e-06
1.41645e-06
1.40682e-06
1.17641e-06
1.17707e-06
1.17218e-06
1.17152e-06
1.41723e-06
1.40625e-06
1.17631e-06
1.17641e-06
1.17233e-06
1.17283e-06
1.1764e-06
1.17161e-06
1.17319e-06
1.41616e-06
1.40743e-06
1.17635e-06
1.17304e-06
1.17342e-06
1.40792e-06
1.40824e-06
1.41285e-06
1.17206e-06
1.17127e-06
1.17937e-06
1.17819e-06
1.40755e-06
1.41128e-06
1.17225e-06
1.17286e-06
1.17967e-06
1.18056e-06
1.17329e-06
1.17827e-06
1.18081e-06
1.40897e-06
1.41397e-06
1.1736e-06
1.18072e-06
1.1812e-06
1.41478e-06
1.41782e-06
1.42795e-06
1.18318e-06
1.18253e-06
1.1872e-06
1.1874e-06
1.41616e-06
1.42721e-06
1.18338e-06
1.18418e-06
1.1872e-06
1.18786e-06
1.18398e-06
1.18722e-06
1.18682e-06
1.41889e-06
1.42859e-06
1.18423e-06
1.18761e-06
1.18671e-06
1.42759e-06
1.43011e-06
1.4048e-06
1.1863e-06
1.18675e-06
1.15973e-06
1.16167e-06
1.43001e-06
1.40734e-06
1.18621e-06
1.18681e-06
1.15938e-06
1.16003e-06
1.18551e-06
1.1616e-06
1.15929e-06
1.43061e-06
1.40488e-06
1.18523e-06
1.15985e-06
1.15879e-06
1.40326e-06
1.40286e-06
1.34202e-06
1.15074e-06
1.15204e-06
1.10397e-06
1.10451e-06
1.40516e-06
1.34466e-06
1.15056e-06
1.15155e-06
1.10398e-06
1.10532e-06
1.15128e-06
1.1054e-06
1.10857e-06
1.40304e-06
1.34358e-06
1.1509e-06
1.10627e-06
1.10862e-06
1.34585e-06
1.31942e-06
1.06751e-06
1.06794e-06
1.32265e-06
1.06761e-06
1.06884e-06
6.40454e-07
6.40854e-07
6.42921e-07
1.07266e-06
1.32102e-06
1.07292e-06
6.65928e-07
6.65941e-07
6.66036e-07
6.66045e-07
4.24187e-06
9.57699e-06
4.24124e-06
9.58766e-06
1.91118e-05
1.91335e-05
4.24204e-06
9.57816e-06
4.24136e-06
9.58785e-06
6.67253e-07
6.67349e-07
6.6735e-07
6.70966e-07
6.70965e-07
6.71059e-07
6.71075e-07
2.2993e-06
3.65135e-06
9.42088e-07
1.19353e-06
2.29916e-06
3.65183e-06
9.42844e-07
1.91091e-05
1.91291e-05
2.29928e-06
9.42147e-07
3.65138e-06
1.1936e-06
2.29913e-06
9.42906e-07
3.65192e-06
5.65506e-06
5.65701e-06
1.42414e-06
5.65644e-06
5.65841e-06
4.24379e-06
9.58922e-06
4.24336e-06
9.58557e-06
1.91372e-05
1.9136e-05
4.24397e-06
9.5899e-06
4.2435e-06
9.58829e-06
6.72163e-07
6.72247e-07
6.72252e-07
6.75471e-07
6.75465e-07
6.75556e-07
6.75562e-07
2.30005e-06
3.65348e-06
9.44998e-07
1.19538e-06
2.30004e-06
3.65353e-06
9.45632e-07
1.91358e-05
1.91388e-05
2.3e-06
9.45045e-07
3.65347e-06
1.19542e-06
2.30003e-06
9.45671e-07
3.65357e-06
5.65905e-06
5.66095e-06
1.42598e-06
5.65932e-06
5.66126e-06
4.24519e-06
9.59503e-06
4.2447e-06
9.61089e-06
1.91507e-05
1.91771e-05
4.24546e-06
9.59988e-06
4.24476e-06
9.61361e-06
6.76477e-07
6.76585e-07
6.76572e-07
6.79303e-07
6.79323e-07
6.79424e-07
6.79429e-07
2.30026e-06
3.65454e-06
9.47269e-07
1.19658e-06
2.30043e-06
3.65494e-06
9.47726e-07
1.91589e-05
1.91796e-05
2.30024e-06
9.47338e-07
3.65456e-06
1.19667e-06
2.3004e-06
9.47802e-07
3.65502e-06
5.66135e-06
5.66335e-06
1.42736e-06
5.66313e-06
5.66511e-06
4.24706e-06
9.61462e-06
4.24691e-06
9.60278e-06
1.91799e-05
1.9169e-05
4.24716e-06
9.61475e-06
4.24699e-06
9.60277e-06
6.8023e-07
6.80315e-07
6.80322e-07
6.82689e-07
6.82699e-07
6.82776e-07
6.82801e-07
2.3004e-06
3.65656e-06
9.4901e-07
1.19744e-06
2.30077e-06
3.65644e-06
9.4934e-07
1.91755e-05
1.91639e-05
2.30035e-06
9.49056e-07
3.65652e-06
1.19748e-06
2.30073e-06
9.4938e-07
3.6565e-06
5.66628e-06
5.66816e-06
1.42845e-06
5.66697e-06
5.66888e-06
4.24802e-06
9.60052e-06
4.24783e-06
9.62708e-06
1.91774e-05
1.92249e-05
4.2481e-06
9.60378e-06
4.24793e-06
9.63163e-06
6.83487e-07
6.83573e-07
6.8358e-07
6.85616e-07
6.8561e-07
6.85719e-07
6.85717e-07
2.30008e-06
3.65749e-06
9.50247e-07
1.19789e-06
2.30036e-06
3.65738e-06
9.50486e-07
1.91827e-05
1.92333e-05
2.30002e-06
9.50304e-07
3.65744e-06
1.19796e-06
2.30032e-06
9.50546e-07
3.65733e-06
5.66954e-06
5.67146e-06
1.42909e-06
5.66919e-06
5.67112e-06
4.24791e-06
9.65723e-06
4.24796e-06
9.65686e-06
1.92588e-05
1.92464e-05
4.24829e-06
9.65824e-06
4.24815e-06
9.65635e-06
6.86236e-07
6.8635e-07
6.86335e-07
6.87873e-07
6.87872e-07
6.87956e-07
6.87963e-07
2.29914e-06
3.65726e-06
9.5095e-07
1.1977e-06
2.29979e-06
3.65718e-06
9.50998e-07
1.92561e-05
1.92368e-05
2.29914e-06
9.51023e-07
3.6574e-06
1.1978e-06
2.29977e-06
9.5106e-07
3.65745e-06
5.6692e-06
5.67119e-06
1.42926e-06
5.671e-06
5.67304e-06
4.24994e-06
9.60586e-06
4.24978e-06
9.58928e-06
1.91712e-05
1.91658e-05
4.24993e-06
9.60629e-06
4.24973e-06
9.59353e-06
6.88409e-07
6.8847e-07
6.88482e-07
6.89753e-07
6.89784e-07
6.89845e-07
6.89864e-07
2.29864e-06
3.65904e-06
9.51151e-07
1.19732e-06
2.29915e-06
3.65865e-06
9.51149e-07
1.91723e-05
1.91754e-05
2.29844e-06
9.51151e-07
3.65885e-06
1.19731e-06
2.29899e-06
9.51148e-07
3.65852e-06
5.6753e-06
5.67719e-06
1.42916e-06
5.67479e-06
5.67671e-06
4.24901e-06
9.61065e-06
4.2491e-06
9.65305e-06
1.92227e-05
1.92863e-05
4.2492e-06
9.62105e-06
4.24928e-06
9.65837e-06
6.90181e-07
6.9027e-07
6.9027e-07
6.9113e-07
6.9114e-07
6.91289e-07
6.91285e-07
2.29687e-06
3.65788e-06
9.50923e-07
1.19635e-06
2.29774e-06
3.65784e-06
9.50756e-07
1.92408e-05
1.92899e-05
2.29687e-06
9.50997e-07
3.65799e-06
1.19646e-06
2.2977e-06
9.50862e-07
3.65789e-06
5.67445e-06
5.67636e-06
1.4285e-06
5.67605e-06
5.6779e-06
4.24924e-06
9.69508e-06
4.25021e-06
9.69617e-06
1.9324e-05
1.93158e-05
4.24955e-06
9.68999e-06
4.25018e-06
9.68899e-06
6.91504e-07
6.91647e-07
6.91649e-07
6.9259e-07
6.92538e-07
6.92638e-07
6.92653e-07
2.29573e-06
3.65895e-06
9.50345e-07
1.19532e-06
2.2965e-06
3.65758e-06
9.50195e-07
1.93058e-05
1.92916e-05
2.29574e-06
9.50477e-07
3.65883e-06
1.19544e-06
2.29645e-06
9.50299e-07
3.65794e-06
5.67832e-06
5.68023e-06
1.42793e-06
5.67622e-06
5.67837e-06
4.24939e-06
9.63992e-06
4.2486e-06
9.62673e-06
1.92434e-05
1.92406e-05
4.24945e-06
9.64252e-06
4.24886e-06
9.6354e-06
6.92842e-07
6.92931e-07
6.92941e-07
6.93287e-07
6.93298e-07
6.93332e-07
6.93338e-07
2.29441e-06
3.65719e-06
9.49772e-07
1.19432e-06
2.29495e-06
3.65791e-06
9.49532e-07
1.92575e-05
1.92662e-05
2.29432e-06
9.49803e-07
3.6576e-06
1.19438e-06
2.29506e-06
9.49547e-07
3.65773e-06
5.67712e-06
5.67916e-06
1.42749e-06
5.68024e-06
5.68212e-06
4.25039e-06
9.63816e-06
4.25105e-06
9.64078e-06
1.92654e-05
1.927e-05
4.25047e-06
9.64714e-06
4.25093e-06
9.64772e-06
6.93303e-07
6.93332e-07
6.93337e-07
6.92753e-07
6.92895e-07
6.92887e-07
6.92893e-07
2.29255e-06
3.65914e-06
9.48425e-07
1.19213e-06
2.29396e-06
3.6578e-06
9.47733e-07
1.92788e-05
1.92691e-05
2.29234e-06
9.48356e-07
3.65882e-06
1.19209e-06
2.29372e-06
9.47667e-07
3.6581e-06
5.68344e-06
5.68535e-06
1.42572e-06
5.68262e-06
5.68477e-06
4.24705e-06
9.64101e-06
4.2485e-06
9.69142e-06
1.92875e-05
1.93655e-05
4.24739e-06
9.64258e-06
4.24905e-06
9.68109e-06
6.92691e-07
6.92727e-07
6.92743e-07
6.92406e-07
6.92326e-07
6.92549e-07
6.92596e-07
2.28869e-06
3.65656e-06
9.45732e-07
1.18887e-06
2.2905e-06
3.65504e-06
9.45042e-07
1.92637e-05
1.93368e-05
2.28834e-06
9.45728e-07
3.65663e-06
1.18892e-06
2.29034e-06
9.45099e-07
3.65444e-06
5.6811e-06
5.68277e-06
1.42278e-06
5.67873e-06
5.68034e-06
4.24416e-06
9.75624e-06
4.24499e-06
9.72663e-06
1.94126e-05
1.93247e-05
4.24424e-06
9.74842e-06
4.24487e-06
9.73564e-06
6.92331e-07
6.9263e-07
6.92692e-07
6.93152e-07
6.92833e-07
6.93256e-07
6.93312e-07
2.28572e-06
3.65302e-06
9.4376e-07
1.18666e-06
2.28695e-06
3.65166e-06
9.4342e-07
1.94189e-05
1.93827e-05
2.28595e-06
9.44055e-07
3.65254e-06
1.18716e-06
2.28681e-06
9.43771e-07
3.65168e-06
5.67596e-06
5.67754e-06
1.42117e-06
5.67587e-06
5.67768e-06
4.24755e-06
9.57644e-06
4.24642e-06
9.56958e-06
1.91866e-05
1.92344e-05
4.24782e-06
9.59704e-06
4.24663e-06
9.58266e-06
6.93136e-07
6.93426e-07
6.93454e-07
6.93346e-07
6.93364e-07
6.9333e-07
6.9329e-07
2.28649e-06
3.65355e-06
9.42958e-07
1.18605e-06
2.28613e-06
3.65394e-06
9.42727e-07
1.92037e-05
1.91968e-05
2.28693e-06
9.43237e-07
3.65418e-06
1.18643e-06
2.28661e-06
9.42927e-07
3.65525e-06
5.68025e-06
5.68268e-06
1.42161e-06
5.68174e-06
5.68465e-06
4.25203e-06
9.69726e-06
4.25012e-06
9.74185e-06
1.94046e-05
1.9426e-05
4.25308e-06
9.67661e-06
4.25113e-06
9.7282e-06
6.93277e-07
6.93024e-07
6.92903e-07
6.89542e-07
6.90233e-07
6.89486e-07
6.89402e-07
2.28522e-06
3.65609e-06
9.41522e-07
1.18395e-06
2.28682e-06
3.65767e-06
9.39923e-07
1.93344e-05
1.94349e-05
2.28492e-06
9.40833e-07
3.65821e-06
1.18254e-06
2.28704e-06
9.39015e-07
3.65833e-06
5.6892e-06
5.69225e-06
1.41843e-06
5.69585e-06
5.69791e-06
4.24698e-06
9.71434e-06
4.2522e-06
9.6808e-06
1.93559e-05
1.9343e-05
4.24583e-06
9.72632e-06
4.25067e-06
9.69779e-06
6.88593e-07
6.88391e-07
6.88429e-07
6.8662e-07
6.86139e-07
6.87101e-07
6.87331e-07
2.27478e-06
3.65897e-06
9.33967e-07
1.17419e-06
2.28083e-06
3.65295e-06
9.32056e-07
1.94436e-05
1.94058e-05
2.27369e-06
9.33812e-07
3.65581e-06
1.17454e-06
2.27907e-06
9.32485e-07
3.65038e-06
5.69903e-06
5.69957e-06
1.41054e-06
5.69383e-06
5.6943e-06
4.22341e-06
9.69865e-06
4.23357e-06
9.78272e-06
1.93948e-05
1.9489e-05
4.22229e-06
9.70172e-06
4.2338e-06
9.77646e-06
6.86192e-07
6.87317e-07
6.87602e-07
6.93464e-07
6.92543e-07
6.9415e-07
6.94269e-07
2.26584e-06
3.64141e-06
9.30583e-07
1.1717e-06
2.26818e-06
3.63058e-06
9.31182e-07
1.93718e-05
1.9403e-05
2.26721e-06
9.31825e-07
3.64085e-06
1.17393e-06
2.26892e-06
9.32886e-07
3.62987e-06
5.66546e-06
5.66625e-06
1.40902e-06
5.64149e-06
5.6431e-06
4.23716e-06
9.82818e-06
4.22354e-06
9.62915e-06
1.94431e-05
1.91627e-05
4.24159e-06
9.82772e-06
4.22567e-06
9.64796e-06
6.95912e-07
6.96706e-07
6.96469e-07
6.98466e-07
6.9889e-07
6.98672e-07
6.97926e-07
2.28259e-06
3.63177e-06
9.40853e-07
1.18498e-06
2.27376e-06
3.64056e-06
9.42372e-07
1.93891e-05
1.91858e-05
2.28571e-06
9.41591e-07
3.63661e-06
1.18624e-06
2.27734e-06
9.42692e-07
3.64745e-06
5.65002e-06
5.6537e-06
1.42279e-06
5.67002e-06
5.67303e-06
4.27601e-06
9.18489e-06
4.26376e-06
9.16654e-06
1.86922e-05
1.88075e-05
4.27834e-06
9.19174e-06
4.26438e-06
9.16488e-06
6.98453e-07
6.98014e-07
6.97101e-07
6.79802e-07
6.81396e-07
6.80201e-07
6.79442e-07
2.29328e-06
3.674e-06
9.41934e-07
1.18291e-06
2.29582e-06
3.6786e-06
9.37163e-07
1.87368e-05
1.88106e-05
2.29307e-06
9.41195e-07
3.67874e-06
1.18101e-06
2.29595e-06
9.35065e-07
3.68318e-06
5.71996e-06
5.72536e-06
1.42176e-06
5.74331e-06
5.74931e-06
4.22186e-06
9.74541e-06
4.27174e-06
1.02823e-05
1.97103e-05
2.03038e-05
4.21303e-06
9.70245e-06
4.26837e-06
1.02642e-05
6.73908e-07
6.73505e-07
6.73334e-07
6.48868e-07
6.49396e-07
6.4998e-07
6.51504e-07
2.23067e-06
3.68729e-06
9.08274e-07
1.13412e-06
2.27075e-06
3.63205e-06
8.98632e-07
1.96517e-05
2.03904e-05
2.22644e-06
9.07927e-07
3.6811e-06
1.13465e-06
2.26756e-06
8.99061e-07
3.61834e-06
5.73684e-06
5.73359e-06
1.37686e-06
5.62903e-06
5.62774e-06
3.32279e-06
9.67435e-06
4.06893e-06
5.4145e-06
1.83795e-05
8.1e-06
3.32849e-06
9.71925e-06
4.07282e-06
5.42525e-06
3.08683e-07
4.6593e-07
4.66001e-07
6.89797e-07
3.15582e-07
4.90884e-07
4.90953e-07
2.09925e-06
3.48311e-06
8.63697e-07
1.02284e-06
2.16331e-06
3.54098e-06
8.08187e-07
1.87206e-05
8.22629e-06
2.10072e-06
8.64576e-07
3.47961e-06
1.02285e-06
2.16419e-06
8.09706e-07
3.53043e-06
5.47795e-06
5.48137e-06
1.27316e-06
5.03386e-06
5.04135e-06
1.91128e-05
1.90913e-05
1.91145e-05
1.90941e-05
1.42393e-06
5.65414e-06
5.65608e-06
5.65253e-06
5.65443e-06
4.24016e-06
9.57368e-06
9.56367e-06
4.24072e-06
4.24027e-06
9.57145e-06
9.56424e-06
4.24082e-06
2.29859e-06
1.19197e-06
3.65057e-06
9.41215e-07
3.65012e-06
9.40374e-07
2.2987e-06
2.29866e-06
1.19202e-06
3.65104e-06
9.41259e-07
3.65068e-06
9.4042e-07
2.29877e-06
1.91073e-05
1.90892e-05
1.4239e-06
5.6557e-06
5.65387e-06
5.65429e-06
5.65261e-06
1.91048e-05
1.9087e-05
4.2402e-06
9.57534e-06
9.56676e-06
4.24096e-06
2.29872e-06
1.19188e-06
3.65131e-06
9.41294e-07
3.65088e-06
9.40435e-07
2.29887e-06
4.24011e-06
9.5712e-06
9.56605e-06
4.24085e-06
2.29864e-06
1.19204e-06
9.41309e-07
3.65111e-06
9.40473e-07
3.6507e-06
2.29878e-06
2.29871e-06
1.19191e-06
3.65066e-06
9.41274e-07
3.65034e-06
9.40436e-07
2.29881e-06
4.24034e-06
9.5707e-06
9.56488e-06
4.24085e-06
2.29864e-06
1.19207e-06
9.41303e-07
3.65061e-06
9.40467e-07
3.65022e-06
2.29874e-06
4.24023e-06
9.57247e-06
9.56657e-06
4.24074e-06
1.91058e-05
1.90915e-05
1.42397e-06
5.6558e-06
5.6541e-06
5.65435e-06
5.6525e-06
1.91026e-05
1.90897e-05
2.29868e-06
1.19198e-06
9.41331e-07
3.65072e-06
9.40497e-07
3.6503e-06
2.29878e-06
2.29872e-06
1.19198e-06
9.41354e-07
3.65124e-06
9.40521e-07
3.65084e-06
2.29883e-06
4.24033e-06
9.56959e-06
9.56585e-06
4.2408e-06
4.24032e-06
9.57258e-06
9.56723e-06
4.24085e-06
1.42401e-06
5.65402e-06
5.65598e-06
5.65246e-06
5.65438e-06
1.91085e-05
1.90932e-05
1.91094e-05
1.90946e-05
1.91162e-05
1.913e-05
1.91177e-05
1.91311e-05
5.65504e-06
5.65699e-06
1.42406e-06
5.65623e-06
5.65814e-06
1.91319e-05
1.91299e-05
1.91334e-05
1.91311e-05
1.42608e-06
5.65815e-06
5.66005e-06
5.65701e-06
5.65895e-06
4.24197e-06
9.5749e-06
4.24133e-06
9.58807e-06
2.29918e-06
3.6512e-06
9.4203e-07
1.19361e-06
2.29905e-06
3.65168e-06
9.42791e-07
2.29924e-06
3.65169e-06
9.42071e-07
1.19364e-06
2.29912e-06
3.65218e-06
9.42829e-07
4.24233e-06
9.59016e-06
9.58886e-06
4.24281e-06
4.24243e-06
9.59323e-06
9.59005e-06
4.24292e-06
2.29951e-06
1.19411e-06
3.65258e-06
9.44254e-07
3.65224e-06
9.43542e-07
2.29957e-06
2.29958e-06
1.19414e-06
3.65318e-06
9.44291e-07
3.6528e-06
9.43579e-07
2.29964e-06
5.65668e-06
5.65501e-06
1.424e-06
5.65799e-06
5.65626e-06
1.91091e-05
1.91305e-05
1.91387e-05
1.91345e-05
1.42604e-06
5.66015e-06
5.65842e-06
5.65891e-06
5.65738e-06
1.91362e-05
1.91315e-05
2.29935e-06
3.65201e-06
9.42091e-07
1.19352e-06
2.29921e-06
3.65241e-06
9.42872e-07
4.24196e-06
9.57352e-06
4.24125e-06
9.58521e-06
2.29927e-06
9.42124e-07
3.65183e-06
1.19366e-06
2.29913e-06
9.42883e-07
3.65227e-06
4.24243e-06
9.59044e-06
9.58894e-06
4.24304e-06
2.29967e-06
1.19403e-06
3.65332e-06
9.44329e-07
3.65303e-06
9.43604e-07
2.29974e-06
4.24235e-06
9.59096e-06
9.58703e-06
4.24297e-06
2.2996e-06
1.19417e-06
9.44336e-07
3.65324e-06
9.43633e-07
3.65294e-06
2.29966e-06
4.24206e-06
9.57357e-06
4.24137e-06
9.58685e-06
2.29923e-06
9.4212e-07
3.65128e-06
1.19369e-06
2.29908e-06
9.42877e-07
3.65183e-06
4.24196e-06
9.57469e-06
4.24127e-06
9.58575e-06
2.29963e-06
1.19403e-06
3.65284e-06
9.44299e-07
3.6525e-06
9.43593e-07
2.29971e-06
4.24254e-06
9.59294e-06
9.58895e-06
4.24305e-06
2.29957e-06
1.1942e-06
9.44331e-07
3.65277e-06
9.43628e-07
3.65243e-06
2.29964e-06
4.24244e-06
9.59118e-06
9.58747e-06
4.24294e-06
5.65693e-06
5.65508e-06
1.42409e-06
5.65814e-06
5.65647e-06
1.91058e-05
1.91275e-05
1.91365e-05
1.91303e-05
1.42612e-06
5.6601e-06
5.65852e-06
5.65926e-06
5.6574e-06
1.91367e-05
1.91293e-05
2.29933e-06
9.42174e-07
3.65192e-06
1.19361e-06
2.29917e-06
9.42932e-07
3.65246e-06
4.24207e-06
9.5716e-06
4.24143e-06
9.58422e-06
4.24212e-06
9.57472e-06
4.24142e-06
9.58617e-06
2.29963e-06
1.19411e-06
9.44355e-07
3.6529e-06
9.43656e-07
3.65253e-06
2.2997e-06
2.29967e-06
1.19412e-06
9.44382e-07
3.65341e-06
9.43685e-07
3.65308e-06
2.29975e-06
4.24264e-06
9.59212e-06
9.58653e-06
4.24307e-06
4.24262e-06
9.59224e-06
9.58805e-06
4.24311e-06
1.91116e-05
1.91286e-05
1.91126e-05
1.91301e-05
1.42617e-06
5.65839e-06
5.66032e-06
5.65731e-06
5.65927e-06
1.91346e-05
1.91295e-05
1.91366e-05
1.91311e-05
1.91299e-05
1.91308e-05
1.91318e-05
1.91339e-05
5.65886e-06
5.66075e-06
1.42591e-06
5.65923e-06
5.66111e-06
1.91505e-05
1.91315e-05
1.91552e-05
1.9135e-05
1.42786e-06
5.66035e-06
5.66223e-06
5.65974e-06
5.66162e-06
4.24391e-06
9.59292e-06
4.24348e-06
9.58916e-06
2.29993e-06
3.65317e-06
9.44957e-07
1.19546e-06
2.2999e-06
3.65337e-06
9.45597e-07
2.3e-06
3.65379e-06
9.44995e-07
1.19549e-06
2.29998e-06
3.65392e-06
9.45635e-07
4.2442e-06
9.59067e-06
9.58525e-06
4.24437e-06
4.2443e-06
9.59026e-06
9.58813e-06
4.24447e-06
2.30023e-06
1.19583e-06
3.6539e-06
9.46724e-07
3.65383e-06
9.46201e-07
2.30008e-06
2.3003e-06
1.19585e-06
3.65436e-06
9.4676e-07
3.65436e-06
9.46238e-07
2.30014e-06
5.66088e-06
5.65918e-06
1.42586e-06
5.66101e-06
5.6591e-06
1.91347e-05
1.91343e-05
1.91467e-05
1.91351e-05
1.42781e-06
5.66196e-06
5.66021e-06
5.66145e-06
5.65969e-06
1.91453e-05
1.91335e-05
2.30008e-06
3.65396e-06
9.45006e-07
1.19537e-06
2.30006e-06
3.65409e-06
9.4566e-07
4.24387e-06
9.59078e-06
4.24342e-06
9.58979e-06
2.3e-06
9.4503e-07
3.65385e-06
1.19549e-06
2.29999e-06
9.45663e-07
3.65387e-06
4.24427e-06
9.59571e-06
9.58835e-06
4.24449e-06
2.30037e-06
1.19574e-06
3.65461e-06
9.46799e-07
3.6546e-06
9.46248e-07
2.30021e-06
4.24415e-06
9.59488e-06
9.58968e-06
4.24439e-06
2.30028e-06
1.19586e-06
9.46807e-07
3.6544e-06
9.46271e-07
3.65436e-06
2.30013e-06
4.244e-06
9.59279e-06
4.2436e-06
9.59019e-06
2.29998e-06
9.45028e-07
3.65335e-06
1.19552e-06
2.29996e-06
9.45658e-07
3.65349e-06
4.24389e-06
9.59102e-06
4.24349e-06
9.58934e-06
2.30034e-06
1.19574e-06
3.65399e-06
9.4676e-07
3.65399e-06
9.46235e-07
2.30017e-06
4.24437e-06
9.59103e-06
9.58916e-06
4.24452e-06
2.30026e-06
1.19589e-06
9.46788e-07
3.65401e-06
9.46262e-07
3.65394e-06
2.3001e-06
4.24427e-06
9.59183e-06
9.58878e-06
4.24443e-06
5.66076e-06
5.65911e-06
1.42593e-06
5.66077e-06
5.65926e-06
1.91363e-05
1.91387e-05
1.91549e-05
1.91392e-05
1.42787e-06
5.66211e-06
5.66044e-06
5.66143e-06
5.65972e-06
1.91514e-05
1.91386e-05
2.30005e-06
9.45074e-07
3.65398e-06
1.19543e-06
2.30007e-06
9.45697e-07
3.6541e-06
4.24393e-06
9.59217e-06
4.24365e-06
9.59133e-06
4.24397e-06
9.59214e-06
4.24364e-06
9.59066e-06
2.3003e-06
1.19579e-06
9.46814e-07
3.65406e-06
9.46278e-07
3.65399e-06
2.30012e-06
2.30033e-06
1.1958e-06
9.46836e-07
3.65465e-06
9.46304e-07
3.65457e-06
2.30017e-06
4.24436e-06
9.59329e-06
9.59076e-06
4.24449e-06
4.24436e-06
9.59332e-06
9.59014e-06
4.24454e-06
1.91338e-05
1.91354e-05
1.91359e-05
1.91378e-05
1.42792e-06
5.66052e-06
5.66252e-06
5.65985e-06
5.66179e-06
1.91499e-05
1.91354e-05
1.91522e-05
1.91378e-05
1.91557e-05
1.91787e-05
1.91603e-05
1.91812e-05
5.66111e-06
5.66302e-06
1.42731e-06
5.66309e-06
5.66503e-06
1.91793e-05
1.91789e-05
1.91807e-05
1.91811e-05
1.4292e-06
5.66588e-06
5.66778e-06
5.66429e-06
5.66625e-06
4.2453e-06
9.59324e-06
4.2448e-06
9.60945e-06
2.30016e-06
3.65438e-06
9.47225e-07
1.19666e-06
2.30036e-06
3.65477e-06
9.47675e-07
2.30022e-06
3.65486e-06
9.47262e-07
1.19669e-06
2.30042e-06
3.65529e-06
9.47715e-07
4.2457e-06
9.61561e-06
9.61327e-06
4.24654e-06
4.2458e-06
9.61682e-06
9.61256e-06
4.24665e-06
2.30046e-06
1.19692e-06
3.65596e-06
9.48534e-07
3.65544e-06
9.4813e-07
2.3004e-06
2.30053e-06
1.19697e-06
3.65651e-06
9.48582e-07
3.65601e-06
9.48174e-07
2.30047e-06
5.6628e-06
5.66127e-06
1.42724e-06
5.66498e-06
5.66322e-06
1.91492e-05
1.91749e-05
1.91824e-05
1.91788e-05
1.42915e-06
5.66766e-06
5.6657e-06
5.66625e-06
5.66456e-06
1.91795e-05
1.91763e-05
2.30033e-06
3.65514e-06
9.47293e-07
1.19657e-06
2.30048e-06
3.65551e-06
9.47767e-07
4.24538e-06
9.59854e-06
4.24466e-06
9.61241e-06
2.30026e-06
9.47326e-07
3.65498e-06
1.19674e-06
2.3004e-06
9.47786e-07
3.65543e-06
4.24585e-06
9.61657e-06
9.61535e-06
4.24673e-06
2.30063e-06
1.19684e-06
3.6567e-06
9.48616e-07
3.65625e-06
9.48202e-07
2.30056e-06
4.24577e-06
9.61583e-06
9.6143e-06
4.24663e-06
2.30056e-06
1.19701e-06
9.48636e-07
3.65649e-06
9.48242e-07
3.65615e-06
2.30049e-06
4.24534e-06
9.5936e-06
4.24485e-06
9.60936e-06
2.30019e-06
9.47301e-07
3.65452e-06
1.19674e-06
2.30037e-06
9.47757e-07
3.65488e-06
4.24523e-06
9.59487e-06
4.24476e-06
9.61077e-06
2.30056e-06
1.19686e-06
3.65609e-06
9.48605e-07
3.65568e-06
9.48193e-07
2.30051e-06
4.24586e-06
9.61685e-06
9.61246e-06
4.24666e-06
2.30049e-06
1.19702e-06
9.48633e-07
3.65596e-06
9.48225e-07
3.65552e-06
2.30043e-06
4.24575e-06
9.61754e-06
9.6137e-06
4.24653e-06
5.66324e-06
5.66134e-06
1.42734e-06
5.66514e-06
5.66344e-06
1.91551e-05
1.91779e-05
1.91799e-05
1.91796e-05
1.42925e-06
5.66742e-06
5.66578e-06
5.66637e-06
5.66455e-06
1.91804e-05
1.91787e-05
2.30029e-06
9.4736e-07
3.65517e-06
1.19666e-06
2.30045e-06
9.4782e-07
3.65553e-06
4.24533e-06
9.59585e-06
4.24492e-06
9.61073e-06
4.24542e-06
9.59645e-06
4.245e-06
9.61232e-06
2.30055e-06
1.19694e-06
9.48662e-07
3.6561e-06
9.48264e-07
3.65568e-06
2.30047e-06
2.30059e-06
1.19693e-06
9.48683e-07
3.65656e-06
9.48285e-07
3.65617e-06
2.30051e-06
4.24595e-06
9.61688e-06
9.61344e-06
4.24654e-06
4.24603e-06
9.61867e-06
9.61516e-06
4.24663e-06
1.91542e-05
1.91794e-05
1.91565e-05
1.91814e-05
1.42927e-06
5.66563e-06
5.66754e-06
5.66425e-06
5.66618e-06
1.91828e-05
1.91805e-05
1.91845e-05
1.91824e-05
1.91751e-05
1.91629e-05
1.91756e-05
1.91635e-05
5.66647e-06
5.66837e-06
1.42837e-06
5.66706e-06
5.66895e-06
1.91716e-05
1.916e-05
1.91747e-05
1.91612e-05
1.43016e-06
5.66881e-06
5.67064e-06
5.66764e-06
5.66955e-06
4.24715e-06
9.61645e-06
4.24701e-06
9.60663e-06
2.30028e-06
3.6564e-06
9.48932e-07
1.1975e-06
2.30066e-06
3.65634e-06
9.49267e-07
2.30035e-06
3.65695e-06
9.48982e-07
1.19755e-06
2.30073e-06
3.65683e-06
9.49315e-07
4.24725e-06
9.59832e-06
9.5994e-06
4.2474e-06
4.24734e-06
9.60031e-06
9.60262e-06
4.24749e-06
2.30044e-06
1.19764e-06
3.65679e-06
9.49898e-07
3.65671e-06
9.49604e-07
2.3e-06
2.3005e-06
1.19768e-06
3.65724e-06
9.49938e-07
3.65719e-06
9.49649e-07
2.30006e-06
5.6682e-06
5.66639e-06
1.42834e-06
5.66862e-06
5.66682e-06
1.91769e-05
1.91658e-05
1.91719e-05
1.91642e-05
1.43014e-06
5.67037e-06
5.66866e-06
5.6692e-06
5.66765e-06
1.91693e-05
1.91611e-05
2.30042e-06
3.65718e-06
9.48989e-07
1.1974e-06
2.30081e-06
3.65706e-06
9.49335e-07
4.24706e-06
9.61424e-06
4.24688e-06
9.60186e-06
2.30034e-06
9.49024e-07
3.65696e-06
1.19754e-06
2.30073e-06
9.49348e-07
3.65688e-06
4.24733e-06
9.60027e-06
9.60001e-06
4.24758e-06
2.30057e-06
1.19755e-06
3.65749e-06
9.49963e-07
3.65747e-06
9.49655e-07
2.30015e-06
4.24724e-06
9.59923e-06
9.59898e-06
4.24749e-06
2.30049e-06
1.19768e-06
9.49971e-07
3.65733e-06
9.49682e-07
3.65733e-06
2.30007e-06
4.24718e-06
9.61652e-06
4.24703e-06
9.60662e-06
2.30034e-06
9.49037e-07
3.65641e-06
1.19759e-06
2.30068e-06
9.49366e-07
3.65641e-06
4.24708e-06
9.61709e-06
4.24691e-06
9.60603e-06
2.30056e-06
1.19757e-06
3.6569e-06
9.49948e-07
3.65685e-06
9.49671e-07
2.30012e-06
4.24739e-06
9.59961e-06
9.60233e-06
4.24758e-06
2.30049e-06
1.19773e-06
9.49977e-07
3.6569e-06
9.497e-07
3.65681e-06
2.30006e-06
4.24729e-06
9.59878e-06
9.60163e-06
4.24748e-06
5.66817e-06
5.66634e-06
1.4284e-06
5.66873e-06
5.66693e-06
1.91772e-05
1.91651e-05
1.91757e-05
1.91615e-05
1.4302e-06
5.67026e-06
5.66866e-06
5.66963e-06
5.66763e-06
1.91719e-05
1.91615e-05
2.3004e-06
9.49084e-07
3.65701e-06
1.1975e-06
2.30077e-06
9.49409e-07
3.65702e-06
4.24709e-06
9.61638e-06
4.247e-06
9.60552e-06
4.24718e-06
9.61811e-06
4.24709e-06
9.60644e-06
2.30051e-06
1.19762e-06
9.49998e-07
3.65696e-06
9.49715e-07
3.65688e-06
2.30008e-06
2.30057e-06
1.19764e-06
9.50027e-07
3.65754e-06
9.49748e-07
3.65743e-06
2.30014e-06
4.24741e-06
9.5996e-06
9.60158e-06
4.24757e-06
4.24751e-06
9.59984e-06
9.60225e-06
4.24767e-06
1.91797e-05
1.91664e-05
1.91814e-05
1.91681e-05
1.43026e-06
5.66883e-06
5.67078e-06
5.66765e-06
5.66957e-06
1.9169e-05
1.91615e-05
1.91712e-05
1.91634e-05
1.91779e-05
1.92268e-05
1.91815e-05
1.92314e-05
5.66954e-06
5.67129e-06
1.42901e-06
5.66907e-06
5.67087e-06
1.92587e-05
1.92351e-05
1.92607e-05
1.92391e-05
1.43082e-06
5.66827e-06
5.67031e-06
5.66903e-06
5.67089e-06
4.24814e-06
9.60167e-06
4.24792e-06
9.6262e-06
2.29996e-06
3.6573e-06
9.50205e-07
1.19798e-06
2.30024e-06
3.65718e-06
9.50451e-07
2.30003e-06
3.65781e-06
9.50242e-07
1.19801e-06
2.3003e-06
3.65779e-06
9.50485e-07
4.24822e-06
9.65494e-06
9.6353e-06
4.24787e-06
4.24834e-06
9.65508e-06
9.63465e-06
4.24801e-06
2.30018e-06
1.19799e-06
3.65673e-06
9.50797e-07
3.6574e-06
9.50669e-07
2.29961e-06
2.30026e-06
1.19802e-06
3.65736e-06
9.50831e-07
3.65804e-06
9.50703e-07
2.29968e-06
5.6713e-06
5.66956e-06
1.42897e-06
5.67112e-06
5.66914e-06
1.91749e-05
1.92232e-05
1.92592e-05
1.92341e-05
1.43078e-06
5.67036e-06
5.66863e-06
5.67115e-06
5.66931e-06
1.92569e-05
1.92322e-05
2.30009e-06
3.65805e-06
9.50257e-07
1.19788e-06
2.30039e-06
3.65787e-06
9.50522e-07
4.24799e-06
9.60293e-06
4.24783e-06
9.63229e-06
2.30001e-06
9.50281e-07
3.65783e-06
1.19802e-06
2.30031e-06
9.5053e-07
3.6576e-06
4.24821e-06
9.65658e-06
9.63923e-06
4.24807e-06
2.3003e-06
1.19791e-06
3.65751e-06
9.50886e-07
3.65814e-06
9.50735e-07
2.29975e-06
4.24811e-06
9.65648e-06
9.64018e-06
4.24799e-06
2.30022e-06
1.19804e-06
9.50902e-07
3.65744e-06
9.50762e-07
3.65791e-06
2.29967e-06
4.2482e-06
9.60084e-06
4.24801e-06
9.62526e-06
2.30001e-06
9.50279e-07
3.65742e-06
1.19805e-06
2.30029e-06
9.50517e-07
3.6573e-06
4.24809e-06
9.59996e-06