/*--------------------------------*- C++ -*----------------------------------*\
| =========                 |                                                 |
| \\      /  F ield         | OpenFOAM: The Open Source CFD Toolbox           |
|  \\    /   O peration     | Version:  v1906                                 |
|   \\  /    A nd           | Web:      www.OpenFOAM.com                      |
|    \\/     M anipulation  |                                                 |
\*---------------------------------------------------------------------------*/
FoamFile
{
    version     2.0;
    format      ascii;
    class       volScalarField;
    location    "875";
    object      k;
}
// * * * * * * * * * * * * * * * * * * * * * * * * * * * * * * * * * * * * * //

dimensions      [0 2 -2 0 0 0 0];


internalField   nonuniform List<scalar> 
42616
(
3.58932e-05
3.58912e-05
3.58912e-05
3.59957e-05
3.39296e-05
3.3889e-05
3.3889e-05
3.39622e-05
3.21578e-05
3.20081e-05
3.20081e-05
3.19522e-05
3.05346e-05
3.02293e-05
3.02292e-05
2.99884e-05
2.90329e-05
2.8554e-05
2.85539e-05
2.81227e-05
2.76353e-05
2.69872e-05
2.69871e-05
2.63907e-05
2.63308e-05
2.55311e-05
2.55309e-05
2.48073e-05
2.51112e-05
2.4185e-05
2.41848e-05
2.33782e-05
2.3971e-05
2.29507e-05
2.29505e-05
2.21047e-05
2.29058e-05
2.18269e-05
2.18267e-05
2.09857e-05
2.1912e-05
2.08114e-05
2.08113e-05
2.00141e-05
2.09865e-05
1.99014e-05
1.99014e-05
1.91816e-05
2.01241e-05
1.90948e-05
1.90946e-05
1.84899e-05
1.93239e-05
1.83891e-05
1.8389e-05
1.79373e-05
1.85848e-05
1.77796e-05
1.77812e-05
1.7508e-05
1.79044e-05
1.7272e-05
1.72704e-05
1.72242e-05
1.72803e-05
1.6861e-05
1.68595e-05
1.70917e-05
1.67123e-05
1.65569e-05
1.65421e-05
1.71304e-05
1.6196e-05
1.63145e-05
1.63015e-05
1.72712e-05
1.57307e-05
1.61913e-05
1.61864e-05
1.73942e-05
1.53095e-05
1.61214e-05
1.6211e-05
1.77739e-05
3.63068e-05
3.6291e-05
3.6291e-05
3.63068e-05
3.6291e-05
3.6291e-05
3.6423e-05
3.6423e-05
3.6423e-05
3.6423e-05
3.6291e-05
3.6291e-05
3.63068e-05
3.6291e-05
3.6291e-05
3.63068e-05
3.59957e-05
3.42687e-05
3.58912e-05
3.58912e-05
3.43767e-05
3.43766e-05
3.59957e-05
3.42687e-05
3.58911e-05
3.58912e-05
3.43767e-05
3.43766e-05
3.58912e-05
3.43767e-05
3.43767e-05
3.59957e-05
3.42687e-05
3.58912e-05
3.43767e-05
3.43767e-05
3.42687e-05
3.39623e-05
3.22635e-05
3.38889e-05
3.38889e-05
3.24684e-05
3.24683e-05
3.39623e-05
3.22635e-05
3.38889e-05
3.38889e-05
3.24684e-05
3.24683e-05
3.38889e-05
3.24685e-05
3.24684e-05
3.39623e-05
3.22634e-05
3.38889e-05
3.24685e-05
3.24684e-05
3.22634e-05
3.19522e-05
3.02993e-05
3.20079e-05
3.20078e-05
3.06643e-05
3.06642e-05
3.19522e-05
3.02994e-05
3.2008e-05
3.20078e-05
3.06644e-05
3.06641e-05
3.20079e-05
3.06646e-05
3.06643e-05
3.19522e-05
3.02992e-05
3.2008e-05
3.06645e-05
3.06644e-05
3.02992e-05
2.99885e-05
2.84253e-05
3.0229e-05
3.02288e-05
2.89624e-05
2.89622e-05
2.99886e-05
2.84255e-05
3.02291e-05
3.02287e-05
2.89626e-05
2.89621e-05
3.02289e-05
2.89628e-05
2.89623e-05
2.99885e-05
2.84252e-05
3.02291e-05
2.89627e-05
2.89626e-05
2.84251e-05
2.81228e-05
2.6674e-05
2.85536e-05
2.85534e-05
2.7368e-05
2.73678e-05
2.81228e-05
2.66742e-05
2.85538e-05
2.85532e-05
2.73683e-05
2.73676e-05
2.85535e-05
2.73685e-05
2.73679e-05
2.81225e-05
2.66739e-05
2.85538e-05
2.73684e-05
2.73683e-05
2.66738e-05
2.63908e-05
2.50663e-05
2.69866e-05
2.69864e-05
2.58841e-05
2.58838e-05
2.6391e-05
2.50664e-05
2.69869e-05
2.69862e-05
2.58845e-05
2.58836e-05
2.69865e-05
2.58848e-05
2.5884e-05
2.63907e-05
2.50661e-05
2.69869e-05
2.58846e-05
2.58844e-05
2.50661e-05
2.48074e-05
2.36125e-05
2.55304e-05
2.55301e-05
2.45102e-05
2.45099e-05
2.48077e-05
2.36127e-05
2.55308e-05
2.55299e-05
2.45108e-05
2.45097e-05
2.55303e-05
2.45111e-05
2.45102e-05
2.48074e-05
2.36124e-05
2.55307e-05
2.45109e-05
2.45107e-05
2.36122e-05
2.33785e-05
2.23125e-05
2.41842e-05
2.41838e-05
2.32479e-05
2.32475e-05
2.33785e-05
2.23125e-05
2.41847e-05
2.41836e-05
2.32484e-05
2.32473e-05
2.41841e-05
2.32487e-05
2.32478e-05
2.33782e-05
2.23121e-05
2.41847e-05
2.32486e-05
2.32484e-05
2.23123e-05
2.21047e-05
2.1168e-05
2.29497e-05
2.29494e-05
2.20966e-05
2.20963e-05
2.2105e-05
2.11686e-05
2.29504e-05
2.29492e-05
2.20973e-05
2.2096e-05
2.29496e-05
2.20976e-05
2.20965e-05
2.21048e-05
2.11682e-05
2.29503e-05
2.20974e-05
2.20972e-05
2.11676e-05
2.09869e-05
2.01717e-05
2.18259e-05
2.18255e-05
2.10543e-05
2.10539e-05
2.09869e-05
2.01712e-05
2.18266e-05
2.18253e-05
2.1055e-05
2.10536e-05
2.18259e-05
2.10553e-05
2.10542e-05
2.0986e-05
2.01701e-05
2.18266e-05
2.1055e-05
2.1055e-05
2.01704e-05
2.0014e-05
1.9315e-05
2.08104e-05
2.08101e-05
2.01182e-05
2.01178e-05
2.00133e-05
1.93146e-05
2.08111e-05
2.08099e-05
2.0119e-05
2.01177e-05
2.08103e-05
2.01192e-05
2.0118e-05
2.00128e-05
1.93142e-05
2.08111e-05
2.01191e-05
2.01189e-05
1.93149e-05
1.91815e-05
1.859e-05
1.99005e-05
1.99e-05
1.92854e-05
1.92855e-05
1.9182e-05
1.8592e-05
1.99012e-05
1.98999e-05
1.92863e-05
1.92852e-05
1.99003e-05
1.92868e-05
1.92856e-05
1.91823e-05
1.85906e-05
1.99011e-05
1.92866e-05
1.92866e-05
1.85892e-05
1.8489e-05
1.79978e-05
1.90937e-05
1.90934e-05
1.85549e-05
1.85546e-05
1.84899e-05
1.79978e-05
1.90945e-05
1.90932e-05
1.85556e-05
1.85544e-05
1.90939e-05
1.8556e-05
1.85553e-05
1.84889e-05
1.79967e-05
1.90948e-05
1.85558e-05
1.85557e-05
1.80012e-05
1.79358e-05
1.75377e-05
1.83885e-05
1.83878e-05
1.79216e-05
1.79221e-05
1.79317e-05
1.75375e-05
1.83889e-05
1.83877e-05
1.79218e-05
1.79214e-05
1.83877e-05
1.79228e-05
1.79212e-05
1.79325e-05
1.75381e-05
1.83883e-05
1.79226e-05
1.79225e-05
1.75468e-05
1.75057e-05
1.72388e-05
1.77783e-05
1.77788e-05
1.73859e-05
1.73862e-05
1.75054e-05
1.72304e-05
1.77788e-05
1.77799e-05
1.73874e-05
1.73884e-05
1.77774e-05
1.73877e-05
1.73863e-05
1.75124e-05
1.72443e-05
1.77783e-05
1.73897e-05
1.73868e-05
1.72419e-05
1.72225e-05
1.70724e-05
1.72666e-05
1.72706e-05
1.69487e-05
1.69517e-05
1.72242e-05
1.70884e-05
1.7268e-05
1.72691e-05
1.69498e-05
1.69509e-05
1.72677e-05
1.69521e-05
1.69498e-05
1.72305e-05
1.70947e-05
1.72685e-05
1.69519e-05
1.69509e-05
1.70911e-05
1.70669e-05
1.70646e-05
1.68493e-05
1.68605e-05
1.66102e-05
1.66185e-05
1.70941e-05
1.71383e-05
1.68501e-05
1.68585e-05
1.66109e-05
1.66162e-05
1.68572e-05
1.66194e-05
1.66154e-05
1.70994e-05
1.71081e-05
1.68582e-05
1.66169e-05
1.66161e-05
1.71125e-05
1.70857e-05
1.71948e-05
1.65394e-05
1.65559e-05
1.63606e-05
1.63767e-05
1.71724e-05
1.72421e-05
1.65397e-05
1.65414e-05
1.63615e-05
1.63628e-05
1.65448e-05
1.63774e-05
1.63822e-05
1.71169e-05
1.71443e-05
1.65455e-05
1.63634e-05
1.63829e-05
1.72572e-05
1.72755e-05
1.74992e-05
1.63248e-05
1.6314e-05
1.62285e-05
1.62098e-05
1.72482e-05
1.74009e-05
1.63254e-05
1.6301e-05
1.62288e-05
1.61812e-05
1.63283e-05
1.62098e-05
1.61791e-05
1.71499e-05
1.72638e-05
1.6329e-05
1.61813e-05
1.61797e-05
1.72791e-05
1.75118e-05
1.75894e-05
1.61884e-05
1.61913e-05
1.61162e-05
1.61267e-05
1.74835e-05
1.76348e-05
1.61886e-05
1.61863e-05
1.6117e-05
1.62108e-05
1.61792e-05
1.61268e-05
1.6158e-05
1.7443e-05
1.81046e-05
1.61797e-05
1.62109e-05
1.61586e-05
1.77696e-05
1.77107e-05
1.61209e-05
1.61216e-05
1.76921e-05
1.61216e-05
1.6211e-05
1.61148e-05
1.81628e-05
1.61155e-05
3.73773e-05
3.73765e-05
3.7377e-05
3.7377e-05
3.73701e-05
3.73777e-05
3.73043e-05
3.73768e-05
3.73701e-05
3.73777e-05
3.73768e-05
3.73043e-05
3.73741e-05
3.72959e-05
3.72959e-05
3.58798e-05
4.08724e-05
3.66033e-05
4.51462e-05
5.51147e-05
6.4895e-05
3.58803e-05
4.08715e-05
3.66034e-05
4.51462e-05
3.58932e-05
3.58933e-05
3.58932e-05
3.44005e-05
3.44005e-05
3.44005e-05
3.44005e-05
3.52757e-05
3.56386e-05
3.58929e-05
3.53771e-05
3.60476e-05
3.42363e-05
3.53822e-05
5.51168e-05
6.48993e-05
3.52758e-05
3.58929e-05
3.56382e-05
3.53771e-05
3.60475e-05
3.53822e-05
3.42372e-05
3.65971e-05
3.65977e-05
3.5279e-05
3.40641e-05
3.40632e-05
3.39657e-05
5.1354e-05
3.46793e-05
5.46242e-05
7.65449e-05
8.08613e-05
3.39682e-05
5.1355e-05
3.46789e-05
5.46247e-05
3.39296e-05
3.39297e-05
3.39297e-05
3.25854e-05
3.25854e-05
3.25855e-05
3.25855e-05
3.3054e-05
3.24752e-05
3.39295e-05
3.34087e-05
3.38961e-05
3.15752e-05
3.34678e-05
7.6546e-05
8.08653e-05
3.30541e-05
3.39295e-05
3.24741e-05
3.34087e-05
3.38958e-05
3.34678e-05
3.15771e-05
3.1717e-05
3.17163e-05
3.32637e-05
3.09256e-05
3.0924e-05
3.22496e-05
5.91703e-05
3.29237e-05
6.14372e-05
8.4392e-05
8.50675e-05
3.22518e-05
5.91716e-05
3.29216e-05
6.14404e-05
3.21578e-05
3.21578e-05
3.21578e-05
3.09282e-05
3.09282e-05
3.09281e-05
3.09282e-05
3.07893e-05
3.05138e-05
3.21376e-05
3.15541e-05
3.16368e-05
2.98863e-05
3.17101e-05
8.43939e-05
8.50701e-05
3.07892e-05
3.21376e-05
3.05136e-05
3.1554e-05
3.16363e-05
3.17101e-05
2.98873e-05
3.02178e-05
3.02168e-05
3.12731e-05
3.00049e-05
3.00035e-05
3.07529e-05
6.43571e-05
3.13502e-05
6.57257e-05
8.46121e-05
8.39102e-05
3.07538e-05
6.43562e-05
3.13505e-05
6.57256e-05
3.05346e-05
3.05346e-05
3.05346e-05
2.9398e-05
2.9398e-05
2.93979e-05
2.9398e-05
2.86006e-05
2.91415e-05
3.04694e-05
2.98005e-05
2.9413e-05
2.86745e-05
3.00687e-05
8.46122e-05
8.39131e-05
2.86004e-05
3.04694e-05
2.91421e-05
2.98004e-05
2.94126e-05
3.00687e-05
2.86755e-05
2.99417e-05
2.99406e-05
2.93483e-05
3.00363e-05
3.00353e-05
2.95176e-05
6.73265e-05
3.00007e-05
6.80396e-05
8.22146e-05
8.12204e-05
2.95185e-05
6.73314e-05
3.00011e-05
6.80394e-05
2.90329e-05
2.90328e-05
2.90328e-05
2.79756e-05
2.79756e-05
2.79756e-05
2.79756e-05
2.65675e-05
2.8123e-05
2.89027e-05
2.8152e-05
2.73171e-05
2.77809e-05
2.85257e-05
8.22129e-05
8.12228e-05
2.65677e-05
2.89027e-05
2.81235e-05
2.81519e-05
2.73168e-05
2.85256e-05
2.77819e-05
3.04492e-05
3.04483e-05
2.7533e-05
3.07884e-05
3.07886e-05
2.86035e-05
6.87446e-05
2.89474e-05
6.90354e-05
7.94361e-05
7.85335e-05
2.86047e-05
6.8753e-05
2.89477e-05
6.90431e-05
2.76353e-05
2.76353e-05
2.76353e-05
2.66486e-05
2.66487e-05
2.66486e-05
2.66486e-05
2.47434e-05
2.74062e-05
2.74287e-05
2.66128e-05
2.54141e-05
2.71907e-05
2.70743e-05
7.94332e-05
7.85351e-05
2.47438e-05
2.74286e-05
2.74065e-05
2.66126e-05
2.54137e-05
2.70741e-05
2.71917e-05
3.15581e-05
3.1559e-05
2.58511e-05
3.21375e-05
3.21374e-05
2.80574e-05
6.92587e-05
2.82442e-05
6.93e-05
7.70055e-05
7.62872e-05
2.80594e-05
6.92518e-05
2.82444e-05
6.93135e-05
2.63308e-05
2.63307e-05
2.63307e-05
2.54084e-05
2.54084e-05
2.54083e-05
2.54084e-05
2.31632e-05
2.70019e-05
2.60445e-05
2.51841e-05
2.37463e-05
2.69205e-05
2.57123e-05
7.70041e-05
7.62884e-05
2.31639e-05
2.60444e-05
2.70021e-05
2.51839e-05
2.37459e-05
2.57121e-05
2.69212e-05
3.3134e-05
3.31313e-05
2.432e-05
3.38622e-05
3.387e-05
2.79138e-05
6.92964e-05
2.79271e-05
6.92766e-05
7.50725e-05
7.45352e-05
2.79147e-05
6.93011e-05
2.79279e-05
6.92831e-05
2.51112e-05
2.51111e-05
2.51111e-05
2.42488e-05
2.42488e-05
2.42486e-05
2.42487e-05
2.18464e-05
2.69349e-05
2.47489e-05
2.38659e-05
2.23372e-05
2.69822e-05
2.44388e-05
7.50727e-05
7.45343e-05
2.18474e-05
2.47488e-05
2.69338e-05
2.38657e-05
2.23367e-05
2.44386e-05
2.69851e-05
3.52061e-05
3.5206e-05
2.29423e-05
3.59237e-05
3.59303e-05
2.81562e-05
6.92134e-05
2.80337e-05
6.91573e-05
7.36099e-05
7.321e-05
2.81597e-05
6.92068e-05
2.80319e-05
6.91769e-05
2.3971e-05
2.39708e-05
2.39709e-05
2.31652e-05
2.31652e-05
2.3165e-05
2.31651e-05
2.07992e-05
2.72e-05
2.3541e-05
2.26594e-05
2.11959e-05
2.73563e-05
2.32523e-05
7.36083e-05
7.32122e-05
2.08005e-05
2.35409e-05
2.72028e-05
2.26592e-05
2.11956e-05
2.3252e-05
2.73542e-05
3.74818e-05
3.74892e-05
2.17209e-05
3.842e-05
3.8424e-05
2.88222e-05
6.91097e-05
2.85532e-05
6.91193e-05
7.25266e-05
7.2245e-05
2.88301e-05
6.9126e-05
2.85557e-05
6.91089e-05
2.29058e-05
2.29056e-05
2.29057e-05
2.21538e-05
2.21538e-05
2.21536e-05
2.21538e-05
2.00281e-05
2.77796e-05
2.24172e-05
2.1563e-05
2.03175e-05
2.80354e-05
2.21492e-05
7.25275e-05
7.22455e-05
2.0028e-05
2.24171e-05
2.77746e-05
2.15628e-05
2.0318e-05
2.2149e-05
2.80409e-05
3.99617e-05
3.99626e-05
2.06516e-05
4.07777e-05
4.07903e-05
2.99392e-05
6.91132e-05
2.94896e-05
6.91298e-05
7.1753e-05
7.15489e-05
2.9952e-05
6.91099e-05
2.9455e-05
6.91268e-05
2.1912e-05
2.19118e-05
2.19119e-05
2.12115e-05
2.12115e-05
2.12113e-05
2.12114e-05
1.9522e-05
2.86487e-05
2.1377e-05
2.05742e-05
1.97032e-05
2.89967e-05
2.113e-05
7.17519e-05
7.15509e-05
1.95223e-05
2.13769e-05
2.86474e-05
2.0574e-05
1.97037e-05
2.11298e-05
2.90023e-05
4.22452e-05
4.2248e-05
1.97248e-05
4.31993e-05
4.32058e-05
3.14323e-05
6.91735e-05
3.08389e-05
6.91885e-05
7.12037e-05
7.10631e-05
3.14575e-05
6.91695e-05
3.08112e-05
6.9188e-05
2.09865e-05
2.09863e-05
2.09864e-05
2.0334e-05
2.0334e-05
2.03338e-05
2.03339e-05
1.92801e-05
2.97806e-05
2.042e-05
1.969e-05
1.93521e-05
3.01893e-05
2.01934e-05
7.12015e-05
7.10677e-05
1.92805e-05
2.04199e-05
2.97848e-05
1.96898e-05
1.93532e-05
2.01932e-05
3.0194e-05
4.45758e-05
4.45865e-05
1.89363e-05
4.55273e-05
4.55361e-05
3.33203e-05
6.9228e-05
3.25143e-05
6.92941e-05
7.08165e-05
7.07276e-05
3.33295e-05
6.92396e-05
3.25268e-05
6.92937e-05
2.01241e-05
2.01239e-05
2.01241e-05
1.9518e-05
1.9518e-05
1.95178e-05
1.9518e-05
1.92997e-05
3.11039e-05
1.95434e-05
1.8909e-05
1.92676e-05
3.16044e-05
1.93364e-05
7.08259e-05
7.07213e-05
1.92988e-05
1.95433e-05
3.11073e-05
1.89087e-05
1.92671e-05
1.93362e-05
3.16009e-05
4.70113e-05
4.70306e-05
1.82773e-05
4.75843e-05
4.75908e-05
3.55759e-05
6.93818e-05
3.46066e-05
6.94443e-05
7.05637e-05
7.04767e-05
3.55299e-05
6.93591e-05
3.46165e-05
6.94075e-05
1.93239e-05
1.93238e-05
1.93238e-05
1.87638e-05
1.8764e-05
1.87637e-05
1.87638e-05
1.95698e-05
3.26309e-05
1.87442e-05
1.82277e-05
1.94541e-05
3.31547e-05
1.85562e-05
7.05522e-05
7.04773e-05
1.95658e-05
1.87441e-05
3.26273e-05
1.82272e-05
1.94522e-05
1.85559e-05
3.31502e-05
4.88124e-05
4.88196e-05
1.77494e-05
4.98526e-05
4.98624e-05
3.79179e-05
6.94527e-05
3.69983e-05
6.94798e-05
7.03436e-05
7.03039e-05
3.79436e-05
6.94694e-05
3.69688e-05
6.9513e-05
1.85849e-05
1.85847e-05
1.85847e-05
1.8069e-05
1.80691e-05
1.80692e-05
1.8069e-05
2.00861e-05
3.42414e-05
1.80196e-05
1.76404e-05
1.98851e-05
3.47702e-05
1.78498e-05
7.03448e-05
7.0312e-05
2.00894e-05
1.80196e-05
3.42163e-05
1.76447e-05
1.98867e-05
1.78499e-05
3.47813e-05
5.07369e-05
5.07525e-05
1.73589e-05
5.16757e-05
5.16821e-05
4.05279e-05
6.95441e-05
3.94552e-05
6.95991e-05
7.02046e-05
7.01563e-05
4.053e-05
6.95692e-05
3.9496e-05
6.96121e-05
1.79048e-05
1.79045e-05
1.79044e-05
1.74317e-05
1.74318e-05
1.74314e-05
1.74315e-05
2.08647e-05
3.58968e-05
1.73681e-05
1.71583e-05
2.05823e-05
3.64741e-05
1.72163e-05
7.01908e-05
7.01661e-05
2.08587e-05
1.7368e-05
3.58963e-05
1.71569e-05
2.05823e-05
1.72161e-05
3.64512e-05
5.24856e-05
5.24968e-05
1.71368e-05
5.30396e-05
5.3053e-05
4.31816e-05
6.9656e-05
4.20537e-05
6.96945e-05
7.00786e-05
7.00135e-05
4.3172e-05
6.96619e-05
4.20535e-05
6.96999e-05
1.72815e-05
1.7281e-05
1.7281e-05
1.68492e-05
1.68497e-05
1.68496e-05
1.68499e-05
2.18661e-05
3.75716e-05
1.67883e-05
1.67745e-05
2.15034e-05
3.81032e-05
1.66544e-05
7.00718e-05
7.00376e-05
2.18694e-05
1.67883e-05
3.75514e-05
1.67752e-05
2.15073e-05
1.66544e-05
3.81346e-05
5.40199e-05
5.40309e-05
1.7083e-05
5.42378e-05
5.42514e-05
4.5703e-05
6.97425e-05
4.46508e-05
6.97682e-05
6.99584e-05
6.99237e-05
4.56974e-05
6.97482e-05
4.4653e-05
6.97724e-05
1.67136e-05
1.67119e-05
1.67124e-05
1.63192e-05
1.63218e-05
1.63197e-05
1.63219e-05
2.3097e-05
3.91961e-05
1.62789e-05
1.64985e-05
2.26629e-05
3.97878e-05
1.61624e-05
6.9969e-05
6.99459e-05
2.3093e-05
1.62784e-05
3.92271e-05
1.64783e-05
2.2667e-05
1.61616e-05
3.97815e-05
5.50214e-05
5.50357e-05
1.71655e-05
5.5622e-05
5.56311e-05
4.80317e-05
6.98127e-05
4.70715e-05
6.98594e-05
6.98437e-05
6.98412e-05
4.80514e-05
6.982e-05
4.70783e-05
6.98649e-05
1.61956e-05
1.61945e-05
1.61973e-05
1.58438e-05
1.58413e-05
1.5838e-05
1.58383e-05
2.45059e-05
4.08461e-05
1.58362e-05
1.62659e-05
2.40257e-05
4.13004e-05
1.57356e-05
6.98706e-05
6.98108e-05
2.45064e-05
1.58355e-05
4.09903e-05
1.62347e-05
2.40267e-05
1.57341e-05
4.13218e-05
5.64332e-05
5.64497e-05
1.72313e-05
5.6677e-05
5.66915e-05
5.01205e-05
6.98926e-05
4.93049e-05
6.99251e-05
6.97727e-05
6.9766e-05
5.01187e-05
6.98994e-05
4.92773e-05
6.99307e-05
1.57301e-05
1.57293e-05
1.57292e-05
1.54084e-05
1.541e-05
1.54191e-05
1.54125e-05
2.60486e-05
4.24401e-05
1.5462e-05
1.61643e-05
2.55141e-05
4.29068e-05
1.53784e-05
6.97503e-05
6.97255e-05
2.60452e-05
1.54617e-05
4.22779e-05
1.61977e-05
2.55038e-05
1.53794e-05
4.27204e-05
5.73494e-05
5.73483e-05
1.76711e-05
5.79648e-05
5.79781e-05
5.19719e-05
6.99608e-05
5.12343e-05
6.99938e-05
6.97131e-05
6.97021e-05
6.99662e-05
5.12454e-05
6.99998e-05
1.53101e-05
1.53213e-05
1.53099e-05
2.76982e-05
4.39102e-05
1.51535e-05
1.61163e-05
2.71526e-05
4.44108e-05
1.50862e-05
6.97012e-05
2.77104e-05
1.51593e-05
4.38723e-05
2.71608e-05
1.50916e-05
5.81924e-05
5.82163e-05
1.77135e-05
5.84561e-05
5.84647e-05
3.73741e-05
3.72958e-05
3.72959e-05
5.3112e-05
3.71932e-05
5.31139e-05
3.71932e-05
3.7093e-05
3.72394e-05
3.72405e-05
3.71762e-05
3.71762e-05
3.73701e-05
3.73777e-05
3.73043e-05
3.73768e-05
3.73701e-05
3.73777e-05
3.73043e-05
3.73768e-05
3.71732e-05
3.94121e-05
3.7168e-05
3.67256e-05
3.71732e-05
3.9412e-05
3.7168e-05
3.67257e-05
3.70959e-05
3.71022e-05
3.60246e-05
3.64211e-05
3.71636e-05
3.71109e-05
3.63054e-05
3.70959e-05
3.71022e-05
3.60251e-05
3.64211e-05
3.71636e-05
3.71109e-05
3.63055e-05
3.73741e-05
3.72958e-05
3.72958e-05
5.31122e-05
3.71933e-05
3.7093e-05
3.7241e-05
3.72387e-05
3.71762e-05
3.71762e-05
5.31138e-05
3.71933e-05
3.73701e-05
3.73777e-05
3.73043e-05
3.73768e-05
3.73701e-05
3.73777e-05
3.73768e-05
3.73043e-05
3.71732e-05
3.94125e-05
3.7168e-05
3.67258e-05
3.70958e-05
3.71022e-05
3.60248e-05
3.64211e-05
3.71636e-05
3.71109e-05
3.63055e-05
3.71732e-05
3.94127e-05
3.7168e-05
3.67256e-05
3.70959e-05
3.71022e-05
3.64211e-05
3.60247e-05
3.71109e-05
3.71636e-05
3.63055e-05
3.73773e-05
3.73765e-05
3.7377e-05
3.7377e-05
3.73773e-05
3.73765e-05
3.7377e-05
3.7377e-05
3.73773e-05
3.73765e-05
3.7377e-05
3.7377e-05
3.71133e-05
3.71099e-05
3.64241e-05
3.64241e-05
3.71125e-05
3.71125e-05
3.64261e-05
3.71133e-05
3.71099e-05
3.64241e-05
3.64241e-05
3.71125e-05
3.71125e-05
3.64261e-05
3.71133e-05
3.71099e-05
3.64241e-05
3.64241e-05
3.71125e-05
3.71125e-05
3.64261e-05
3.71133e-05
3.71099e-05
3.64241e-05
3.64241e-05
3.71125e-05
3.71125e-05
3.64261e-05
3.73701e-05
3.73777e-05
3.73768e-05
3.73043e-05
3.70959e-05
3.71022e-05
3.60243e-05
3.64211e-05
3.71636e-05
3.71109e-05
3.63055e-05
3.71732e-05
3.94121e-05
3.7168e-05
3.67258e-05
3.70959e-05
3.71022e-05
3.64211e-05
3.60251e-05
3.71109e-05
3.71636e-05
3.63055e-05
3.71732e-05
3.94127e-05
3.7168e-05
3.67255e-05
3.73741e-05
3.72959e-05
3.72959e-05
5.31144e-05
3.71933e-05
3.7093e-05
3.72396e-05
3.72407e-05
3.71762e-05
3.71762e-05
5.31145e-05
3.71933e-05
3.73701e-05
3.73777e-05
3.73768e-05
3.73043e-05
3.70958e-05
3.71022e-05
3.64211e-05
3.6025e-05
3.71109e-05
3.71636e-05
3.63055e-05
3.70958e-05
3.71022e-05
3.64211e-05
3.60251e-05
3.71109e-05
3.71636e-05
3.63055e-05
3.71732e-05
3.94126e-05
3.7168e-05
3.67256e-05
3.71732e-05
3.94126e-05
3.7168e-05
3.67258e-05
3.7093e-05
3.72406e-05
3.72411e-05
3.71762e-05
3.71762e-05
5.31143e-05
3.71933e-05
5.31142e-05
3.71933e-05
5.51147e-05
6.48948e-05
5.51165e-05
6.48978e-05
3.65983e-05
3.65984e-05
3.5279e-05
3.40627e-05
3.40629e-05
7.47295e-05
6.76707e-05
7.47333e-05
6.76745e-05
3.49729e-05
3.20402e-05
3.20402e-05
3.34711e-05
3.34701e-05
3.58797e-05
4.08718e-05
3.66035e-05
4.51445e-05
3.52756e-05
3.56386e-05
3.58929e-05
3.53771e-05
3.60476e-05
3.42369e-05
3.53822e-05
3.52757e-05
3.56381e-05
3.58929e-05
3.5377e-05
3.60475e-05
3.42377e-05
3.53822e-05
3.56333e-05
5.0215e-05
4.64551e-05
3.48928e-05
3.56336e-05
5.02136e-05
4.64546e-05
3.48933e-05
3.49994e-05
3.48726e-05
3.27309e-05
3.44018e-05
3.38644e-05
3.48857e-05
3.41796e-05
3.49994e-05
3.48725e-05
3.27317e-05
3.44018e-05
3.38634e-05
3.48857e-05
3.41797e-05
3.65974e-05
3.65996e-05
3.5279e-05
3.40641e-05
3.40604e-05
5.51158e-05
6.48974e-05
7.47302e-05
6.76731e-05
3.49729e-05
3.20413e-05
3.20377e-05
3.34693e-05
3.34728e-05
7.47322e-05
6.76722e-05
3.52758e-05
3.56384e-05
3.58929e-05
3.5377e-05
3.60475e-05
3.4237e-05
3.53822e-05
3.588e-05
4.08724e-05
3.66031e-05
4.51476e-05
3.52757e-05
3.58929e-05
3.56386e-05
3.5377e-05
3.60475e-05
3.53822e-05
3.42368e-05
3.5633e-05
5.02146e-05
4.64544e-05
3.48941e-05
3.49993e-05
3.48726e-05
3.27307e-05
3.44018e-05
3.38636e-05
3.48857e-05
3.41799e-05
3.5633e-05
5.02169e-05
4.64561e-05
3.48936e-05
3.49992e-05
3.48725e-05
3.44018e-05
3.27305e-05
3.48857e-05
3.38641e-05
3.41798e-05
3.58799e-05
4.08703e-05
3.66035e-05
4.51466e-05
3.52757e-05
3.58929e-05
3.56382e-05
3.53771e-05
3.60475e-05
3.53822e-05
3.42377e-05
3.58799e-05
4.08733e-05
3.6603e-05
4.51465e-05
3.49994e-05
3.48726e-05
3.27298e-05
3.44018e-05
3.38642e-05
3.48857e-05
3.41798e-05
3.56334e-05
5.02141e-05
4.64524e-05
3.48934e-05
3.49993e-05
3.48726e-05
3.44018e-05
3.27316e-05
3.48857e-05
3.38632e-05
3.41797e-05
3.5633e-05
5.02147e-05
4.64566e-05
3.48932e-05
3.65988e-05
3.65973e-05
3.5279e-05
3.40615e-05
3.40634e-05
5.51169e-05
6.48964e-05
7.47347e-05
6.76736e-05
3.49729e-05
3.20386e-05
3.2042e-05
3.34713e-05
3.34697e-05
7.47317e-05
6.76746e-05
3.52759e-05
3.58929e-05
3.56381e-05
3.5377e-05
3.60475e-05
3.53822e-05
3.42375e-05
3.58806e-05
4.08727e-05
3.6603e-05
4.51469e-05
3.58809e-05
4.08718e-05
3.66033e-05
4.51459e-05
3.49992e-05
3.48726e-05
3.44018e-05
3.27315e-05
3.48857e-05
3.38635e-05
3.41798e-05
3.49992e-05
3.48726e-05
3.44018e-05
3.27314e-05
3.48857e-05
3.3863e-05
3.41799e-05
3.56322e-05
5.02158e-05
4.64563e-05
3.48939e-05
3.56325e-05
5.02152e-05
4.64543e-05
3.48942e-05
5.51165e-05
6.48963e-05
5.51165e-05
6.48969e-05
3.49729e-05
3.20418e-05
3.20405e-05
3.3469e-05
3.34693e-05
7.47308e-05
6.76738e-05
7.47323e-05
6.76754e-05
7.65423e-05
8.08603e-05
7.65465e-05
8.08645e-05
3.1719e-05
3.17168e-05
3.32638e-05
3.09229e-05
3.09233e-05
8.4005e-05
8.1848e-05
8.40087e-05
8.18515e-05
3.29546e-05
3.03087e-05
3.03089e-05
3.07487e-05
3.07449e-05
3.39662e-05
5.13536e-05
3.46794e-05
5.46237e-05
3.30538e-05
3.24751e-05
3.39295e-05
3.34086e-05
3.38961e-05
3.15759e-05
3.34678e-05
3.3054e-05
3.2474e-05
3.39294e-05
3.34086e-05
3.38961e-05
3.15772e-05
3.34678e-05
3.37799e-05
5.83672e-05
5.55979e-05
3.3082e-05
3.37802e-05
5.83689e-05
5.5598e-05
3.30826e-05
3.27692e-05
3.29353e-05
3.06506e-05
3.25726e-05
3.13932e-05
3.30158e-05
3.1918e-05
3.27693e-05
3.29352e-05
3.06513e-05
3.25726e-05
3.13916e-05
3.30158e-05
3.19183e-05
3.17164e-05
3.172e-05
3.32638e-05
3.09243e-05
3.09196e-05
7.65438e-05
8.08624e-05
8.40059e-05
8.185e-05
3.29546e-05
3.03095e-05
3.03057e-05
3.07451e-05
3.07494e-05
8.40069e-05
8.18493e-05
3.30542e-05
3.24743e-05
3.39295e-05
3.34087e-05
3.38959e-05
3.15765e-05
3.34678e-05
3.39677e-05
5.13558e-05
3.46788e-05
5.46276e-05
3.3054e-05
3.39295e-05
3.24749e-05
3.34086e-05
3.38959e-05
3.34678e-05
3.15754e-05
3.37779e-05
5.83698e-05
5.55999e-05
3.30848e-05
3.27691e-05
3.29353e-05
3.06505e-05
3.25726e-05
3.13916e-05
3.30158e-05
3.19184e-05
3.37777e-05
5.83708e-05
5.55995e-05
3.30842e-05
3.27689e-05
3.29351e-05
3.25726e-05
3.06499e-05
3.30158e-05
3.1393e-05
3.19181e-05
3.39666e-05
5.13529e-05
3.46792e-05
5.46236e-05
3.30539e-05
3.39295e-05
3.24743e-05
3.34086e-05
3.3896e-05
3.34678e-05
3.15776e-05
3.39659e-05
5.13559e-05
3.46794e-05
5.46252e-05
3.27694e-05
3.29354e-05
3.06498e-05
3.25726e-05
3.13929e-05
3.30158e-05
3.19183e-05
3.37796e-05
5.83689e-05
5.55974e-05
3.30826e-05
3.27692e-05
3.29352e-05
3.25726e-05
3.06516e-05
3.30158e-05
3.13919e-05
3.19181e-05
3.37795e-05
5.83709e-05
5.56001e-05
3.30824e-05
3.1719e-05
3.17167e-05
3.32637e-05
3.0921e-05
3.09243e-05
7.65459e-05
8.0862e-05
8.40095e-05
8.18519e-05
3.29546e-05
3.03072e-05
3.03101e-05
3.07482e-05
3.07465e-05
8.40066e-05
8.1851e-05
3.30543e-05
3.39295e-05
3.24736e-05
3.34086e-05
3.38959e-05
3.34678e-05
3.15772e-05
3.39678e-05
5.13559e-05
3.46787e-05
5.46261e-05
3.39677e-05
5.13545e-05
3.46789e-05
5.46252e-05
3.27689e-05
3.29353e-05
3.25726e-05
3.06512e-05
3.30158e-05
3.13919e-05
3.19183e-05
3.2769e-05
3.29353e-05
3.25726e-05
3.06511e-05
3.30158e-05
3.13914e-05
3.19186e-05
3.37777e-05
5.83706e-05
5.56e-05
3.30846e-05
3.37782e-05
5.83706e-05
5.55997e-05
3.30852e-05
7.65457e-05
8.08621e-05
7.65476e-05
8.08636e-05
3.29546e-05
3.03107e-05
3.03092e-05
3.07457e-05
3.07449e-05
8.40068e-05
8.18509e-05
8.4008e-05
8.18525e-05
8.43913e-05
8.50672e-05
8.43933e-05
8.50695e-05
3.02203e-05
3.02168e-05
3.12731e-05
3.0004e-05
3.00033e-05
8.48431e-05
8.50719e-05
8.48444e-05
8.50733e-05
3.09612e-05
2.99305e-05
2.99295e-05
2.99711e-05
2.99691e-05
3.22502e-05
5.91699e-05
3.29239e-05
6.14401e-05
3.0789e-05
3.05147e-05
3.21375e-05
3.15538e-05
3.16366e-05
2.9887e-05
3.17101e-05
3.07893e-05
3.05131e-05
3.21375e-05
3.15537e-05
3.16368e-05
2.9887e-05
3.17101e-05
3.21138e-05
6.3869e-05
6.20769e-05
3.14719e-05
3.21139e-05
6.38692e-05
6.20727e-05
3.14723e-05
3.05138e-05
3.1106e-05
2.9237e-05
3.08764e-05
2.97757e-05
3.12898e-05
2.96795e-05
3.05139e-05
3.11059e-05
2.92371e-05
3.08764e-05
2.97753e-05
3.12898e-05
2.96798e-05
3.02173e-05
3.02196e-05
3.12732e-05
3.00038e-05
3.00015e-05
8.43917e-05
8.50682e-05
8.48433e-05
8.5072e-05
3.09612e-05
2.99299e-05
2.99285e-05
2.99697e-05
2.997e-05
8.48434e-05
8.50722e-05
3.07893e-05
3.05133e-05
3.21376e-05
3.15539e-05
3.16365e-05
2.98865e-05
3.17101e-05
3.22512e-05
5.91723e-05
3.29214e-05
6.14418e-05
3.0789e-05
3.21375e-05
3.0514e-05
3.15537e-05
3.16363e-05
3.17101e-05
2.98864e-05
3.21125e-05
6.38702e-05
6.20757e-05
3.14728e-05
3.05137e-05
3.11061e-05
2.92369e-05
3.08763e-05
2.97752e-05
3.12899e-05
2.96798e-05
3.21125e-05
6.38754e-05
6.2079e-05
3.14725e-05
3.05136e-05
3.11058e-05
3.08763e-05
2.92365e-05
3.12898e-05
2.97751e-05
2.96796e-05
3.22502e-05
5.91688e-05
3.2924e-05
6.144e-05
3.07891e-05
3.21375e-05
3.05133e-05
3.15538e-05
3.16366e-05
3.17101e-05
2.98872e-05
3.225e-05
5.91715e-05
3.29237e-05
6.14421e-05
3.0514e-05
3.11062e-05
2.92364e-05
3.08764e-05
2.9775e-05
3.12899e-05
2.968e-05
3.21141e-05
6.38756e-05
6.20758e-05
3.14725e-05
3.05137e-05
3.1106e-05
3.08764e-05
2.92372e-05
3.12898e-05
2.97754e-05
2.96796e-05
3.21134e-05
6.38718e-05
6.20741e-05
3.1472e-05
3.02191e-05
3.02183e-05
3.1273e-05
3.00026e-05
3.0005e-05
8.43929e-05
8.50682e-05
8.48446e-05
8.50738e-05
3.09611e-05
2.99294e-05
2.99309e-05
2.99702e-05
2.99707e-05
8.48438e-05
8.50726e-05
3.07895e-05
3.21375e-05
3.05128e-05
3.15539e-05
3.16365e-05
3.17101e-05
2.98867e-05
3.22516e-05
5.91715e-05
3.29212e-05
6.14408e-05
3.22522e-05
5.91714e-05
3.29217e-05
6.14423e-05
3.05135e-05
3.11062e-05
3.08763e-05
2.92373e-05
3.12899e-05
2.97756e-05
2.96797e-05
3.05136e-05
3.11061e-05
3.08763e-05
2.92368e-05
3.12898e-05
2.9775e-05
2.968e-05
3.2112e-05
6.38707e-05
6.20755e-05
3.14725e-05
3.21122e-05
6.38721e-05
6.20743e-05
3.14731e-05
8.4393e-05
8.50684e-05
8.43942e-05
8.50692e-05
3.09611e-05
2.99306e-05
2.99295e-05
2.99703e-05
2.99692e-05
8.48441e-05
8.50728e-05
8.48445e-05
8.50734e-05
8.46123e-05
8.39115e-05
8.46118e-05
8.39129e-05
2.99421e-05
2.99404e-05
2.93484e-05
3.00363e-05
3.00353e-05
8.26233e-05
8.35495e-05
8.26244e-05
8.35489e-05
2.90407e-05
3.03205e-05
3.03196e-05
3.01087e-05
3.01079e-05
3.07533e-05
6.43513e-05
3.13505e-05
6.57217e-05
2.86003e-05
2.91422e-05
3.04694e-05
2.98002e-05
2.94129e-05
2.86754e-05
3.00687e-05
2.86005e-05
2.91419e-05
3.04694e-05
2.98e-05
2.9413e-05
2.86754e-05
3.00687e-05
3.06423e-05
6.70865e-05
6.60786e-05
3.00988e-05
3.06427e-05
6.70796e-05
6.60764e-05
3.0099e-05
2.83444e-05
2.9378e-05
2.81916e-05
2.92854e-05
2.85943e-05
2.96741e-05
2.75607e-05
2.83444e-05
2.93778e-05
2.81914e-05
2.92854e-05
2.85944e-05
2.96741e-05
2.75608e-05
2.9941e-05
2.99408e-05
2.93485e-05
3.00357e-05
3.00344e-05
8.46111e-05
8.39117e-05
8.26221e-05
8.355e-05
2.90408e-05
3.03198e-05
3.03184e-05
3.01084e-05
3.01081e-05
8.26241e-05
8.3549e-05
2.86005e-05
2.91418e-05
3.04694e-05
2.98003e-05
2.94128e-05
2.86753e-05
3.00687e-05
3.07533e-05
6.43583e-05
3.13503e-05
6.57326e-05
2.86004e-05
3.04693e-05
2.91418e-05
2.97999e-05
2.94127e-05
3.00686e-05
2.86748e-05
3.06426e-05
6.70869e-05
6.60811e-05
3.00998e-05
2.83442e-05
2.93782e-05
2.81914e-05
2.92854e-05
2.85943e-05
2.96741e-05
2.7561e-05
3.06422e-05
6.70927e-05
6.60784e-05
3.00995e-05
2.8344e-05
2.93777e-05
2.92853e-05
2.81908e-05
2.9674e-05
2.85941e-05
2.75609e-05
3.07533e-05
6.43505e-05
3.13506e-05
6.57264e-05
2.86003e-05
3.04694e-05
2.91419e-05
2.98001e-05
2.94127e-05
3.00687e-05
2.86753e-05
3.0753e-05
6.43505e-05
3.13501e-05
6.57232e-05
2.83443e-05
2.93783e-05
2.81903e-05
2.92855e-05
2.85938e-05
2.96741e-05
2.75608e-05
3.06426e-05
6.70797e-05
6.60701e-05
3.00991e-05
2.8344e-05
2.93779e-05
2.92854e-05
2.81912e-05
2.96741e-05
2.85942e-05
2.75605e-05
3.06423e-05
6.70785e-05
6.60727e-05
3.00986e-05
2.99413e-05
2.99419e-05
2.93483e-05
3.00354e-05
3.00366e-05
8.46129e-05
8.39108e-05
8.26247e-05
8.3549e-05
2.90406e-05
3.03196e-05
3.03209e-05
3.01088e-05
3.01093e-05
8.26228e-05
8.35505e-05
2.86007e-05
3.04694e-05
2.91416e-05
2.98003e-05
2.94126e-05
3.00687e-05
2.8675e-05
3.07535e-05
6.43557e-05
3.135e-05
6.57258e-05
3.07541e-05
6.43512e-05
3.13501e-05
6.57237e-05
2.8344e-05
2.93783e-05
2.92854e-05
2.81915e-05
2.96741e-05
2.85945e-05
2.75608e-05
2.8344e-05
2.93781e-05
2.92854e-05
2.8191e-05
2.96741e-05
2.8594e-05
2.7561e-05
3.06422e-05
6.70867e-05
6.60804e-05
3.00993e-05
3.06427e-05
6.70793e-05
6.60745e-05
3.00997e-05
8.46124e-05
8.39113e-05
8.46128e-05
8.39111e-05
2.90406e-05
3.03205e-05
3.03197e-05
3.01091e-05
3.01082e-05
8.26231e-05
8.35501e-05
8.26225e-05
8.35501e-05
8.22142e-05
8.12211e-05
8.22129e-05
8.12219e-05
3.04487e-05
3.04484e-05
2.75332e-05
3.07974e-05
3.07904e-05
7.98351e-05
8.08064e-05
7.98361e-05
8.08045e-05
2.72388e-05
3.13872e-05
3.13764e-05
3.09162e-05
3.09158e-05
2.95179e-05
6.73279e-05
3.00009e-05
6.80294e-05
2.65675e-05
2.81235e-05
2.89026e-05
2.81515e-05
2.73171e-05
2.77826e-05
2.85256e-05
2.65674e-05
2.81236e-05
2.89026e-05
2.81513e-05
2.73172e-05
2.7782e-05
2.85256e-05
2.94333e-05
6.86647e-05
6.81883e-05
2.90171e-05
2.94334e-05
6.8655e-05
6.81921e-05
2.90174e-05
2.63385e-05
2.77563e-05
2.74484e-05
2.77886e-05
2.77273e-05
2.81543e-05
2.56268e-05
2.63384e-05
2.77561e-05