/*--------------------------------*- C++ -*----------------------------------*\
| =========                 |                                                 |
| \\      /  F ield         | OpenFOAM: The Open Source CFD Toolbox           |
|  \\    /   O peration     | Version:  v1906                                 |
|   \\  /    A nd           | Web:      www.OpenFOAM.com                      |
|    \\/     M anipulation  |                                                 |
\*---------------------------------------------------------------------------*/
FoamFile
{
    version     2.0;
    format      ascii;
    class       volScalarField;
    location    "875";
    object      nut;
}
// * * * * * * * * * * * * * * * * * * * * * * * * * * * * * * * * * * * * * //

dimensions      [0 2 -1 0 0 0 0];


internalField   nonuniform List<scalar> 
42616
(
0.000209179
0.000201895
0.000201925
0.000182782
0.000211475
0.000203475
0.000203345
0.000183806
0.000213635
0.000204446
0.000204484
0.000184436
0.000215856
0.000205844
0.000205899
0.000185656
0.000217651
0.000206299
0.000206252
0.000185284
0.000219718
0.000208235
0.00020823
0.000187601
0.000221994
0.000208997
0.000208875
0.000187753
0.000222191
0.00020798
0.00020813
0.000185527
0.000224184
0.000210279
0.00021025
0.000189157
0.00022689
0.000211568
0.000211216
0.000189476
0.000227139
0.000210583
0.000211003
0.000187856
0.000227455
0.000210787
0.000210848
0.000187807
0.000230631
0.000213886
0.000213321
0.000192165
0.000231202
0.000212239
0.000213401
0.000188649
0.000230086
0.000211054
0.000210199
0.00018653
0.000232709
0.000213879
0.000214824
0.000191758
0.000235373
0.00021517
0.000216245
0.000192254
0.000234626
0.000216681
0.000214257
0.000196395
0.000225955
0.000203269
0.000202918
0.000173303
0.000227629
0.000201276
0.000201774
0.000166733
0.000259988
0.000242121
0.000246753
0.000245945
0.000182701
0.000201631
0.000201607
0.000182611
0.000201664
0.000201687
0.000201651
0.000201696
0.000182685
0.00020173
0.00020172
0.000182724
0.000182805
0.00018385
0.000201944
0.000201854
0.000203104
0.000203056
0.000182655
0.000183885
0.000201973
0.000201896
0.0002031
0.000202932
0.000201967
0.000203066
0.000203015
0.000182677
0.000183685
0.000201983
0.00020294
0.000203015
0.000183775
0.000183843
0.000184334
0.000203442
0.000203466
0.000204095
0.000204209
0.00018395
0.000184453
0.00020343
0.000203323
0.000204099
0.000204168
0.000203382
0.000204245
0.000204159
0.000183763
0.000184477
0.000203382
0.000204227
0.000204172
0.000184391
0.000184404
0.000185637
0.000204363
0.000204401
0.000205533
0.000205425
0.000184445
0.000185519
0.000204388
0.000204441
0.000205583
0.000205541
0.000204408
0.000205465
0.000205531
0.000184529
0.000185601
0.000204426
0.00020555
0.000205561
0.000185659
0.000185596
0.000185338
0.000205878
0.000205807
0.000206174
0.000206239
0.000185529
0.000185457
0.000205916
0.000205871
0.000206166
0.000206137
0.00020591
0.000206268
0.000206265
0.000185563
0.000185357
0.000205938
0.000206218
0.000206278
0.000185443
0.000185192
0.000187376
0.000206207
0.000206271
0.000207426
0.000207372
0.000185306
0.000187295
0.000206199
0.000206178
0.000207471
0.000207496
0.000206279
0.000207393
0.000207226
0.000185219
0.000187405
0.000206293
0.000207446
0.000207257
0.000187089
0.000187914
0.000188164
0.000208286
0.000208215
0.00020916
0.000209091
0.000187814
0.000188021
0.000208328
0.000208285
0.000209153
0.000208951
0.000208068
0.000209109
0.000209096
0.000187852
0.000187703
0.000208086
0.000208984
0.00020909
0.000188128
0.000187716
0.000185149
0.00020903
0.000208977
0.000207735
0.000207906
0.0001876
0.000185556
0.000209013
0.00020881
0.000207768
0.000208004
0.000209024
0.000207975
0.000208028
0.000187306
0.000185812
0.000209019
0.000208099
0.000208065
0.000185661
0.000185022
0.000188654
0.000207716
0.000207904
0.000209045
0.000209085
0.00018545
0.00018851
0.000207765
0.000208042
0.000209181
0.000209444
0.000208007
0.000209177
0.000209095
0.000185767
0.000188666
0.000208049
0.00020942
0.000209171
0.00018847
0.000189556
0.000190513
0.000210396
0.000210236
0.000211924
0.000211648
0.000189205
0.000190049
0.000210464
0.000210279
0.000211832
0.000211203
0.000210201
0.000211595
0.00021149
0.000189079
0.000189278
0.000210251
0.000211211
0.00021145
0.000189827
0.000190103
0.000187551
0.000211868
0.000211621
0.00021059
0.000210737
0.000189699
0.000187981
0.000211774
0.000211205
0.000210626
0.000211003
0.00021146
0.000210765
0.000210716
0.000189037
0.000188672
0.000211413
0.000211018
0.000210726
0.000188015
0.000187334
0.000186921
0.000210251
0.000210517
0.000210149
0.000210506
0.000187803
0.000187586
0.00021034
0.000210972
0.000210263
0.000210634
0.000210585
0.000210632
0.000210735
0.000188528
0.000187534
0.00021063
0.000210772
0.000210817
0.000187879
0.000186854
0.000193146
0.000210316
0.000210659
0.00021341
0.000213077
0.000187502
0.000192222
0.000210423
0.000210706
0.000213268
0.000212046
0.000210881
0.000213078
0.00021284
0.000187368
0.000190789
0.000210959
0.000212081
0.000212794
0.000191627
0.000193967
0.000190074
0.000214587
0.000213999
0.000214286
0.000213715
0.000192741
0.000189211
0.000214438
0.000213392
0.000214264
0.0002141
0.00021362
0.000213557
0.00021353
0.00019186
0.00019152
0.000213563
0.000213977
0.000213517
0.000189811
0.000188278
0.00018485
0.000212517
0.000212297
0.000209739
0.000210586
0.000187941
0.000186882
0.000212702
0.000213488
0.000209843
0.000209965
0.000212484
0.000210799
0.000210464
0.000190317
0.00018507
0.000212549
0.000210085
0.000210441
0.000186002
0.000185842
0.000191879
0.000210065
0.000210843
0.000213802
0.000213507
0.000187825
0.000191099
0.000210133
0.000210065
0.000213614
0.000213128
0.000210722
0.0002134
0.000213643
0.000185061
0.0001917
0.000210702
0.000213271
0.000213697
0.000191636
0.000191718
0.000190868
0.000214358
0.000214018
0.000215084
0.00021495
0.000190846
0.000190809
0.000214249
0.000214646
0.00021508
0.000216154
0.000214474
0.000214856
0.00021535
0.000192466
0.000193444
0.000214658
0.000216296
0.000215609
0.00019224
0.000191287
0.000202723
0.000215489
0.000215222
0.000218699
0.000217382
0.000191137
0.000199378
0.000215536
0.000216186
0.000218674
0.000215502
0.000215527
0.000217385
0.000216112
0.000193265
0.000194995
0.000215722
0.000214966
0.000215629
0.000196869
0.000202169
0.000175018
0.000217986
0.000216669
0.000207981
0.000210012
0.000198994
0.000179725
0.000217972
0.000214813
0.000208052
0.000209091
0.000215515
0.000210149
0.000209061
0.000194555
0.000179713
0.000215015
0.000208677
0.000208365
0.000178334
0.000168879
0.000160592
0.000199828
0.000203007
0.000196099
0.000198585
0.000174287
0.000165264
0.000199893
0.00020271
0.000196014
0.000198599
0.000202427
0.000198757
0.000198541
0.000174901
0.000165428
0.000202156
0.000199556
0.000199128
0.000164706
0.000164207
0.000243836
0.00019916
0.000201199
0.000243576
0.000235631
0.000167789
0.000225739
0.000198967
0.000200879
0.000243246
0.000238133
0.000200855
0.00023461
0.000238289
0.000166976
0.000234851
0.000201449
0.00023757
0.000238699
0.000236977
0.000251441
0.000252764
0.000243005
0.000231928
0.000252688
0.000247513
0.000253419
0.000256497
0.000256563
0.00024757
0.000243581
0.000247908
0.000208654
0.000208672
0.000208734
0.0002087
0.000100042
5.07624e-05
9.97857e-05
5.0782e-05
2.39e-05
2.39094e-05
0.000100008
5.0758e-05
9.98184e-05
5.07757e-05
0.000209166
0.000209214
0.000209222
0.000210878
0.000210826
0.000210776
0.000210833
0.000144592
0.000103491
0.00021197
0.000202226
0.000144344
0.000103842
0.000212322
2.38964e-05
2.3905e-05
0.000144523
0.000212002
0.000103503
0.000202189
0.000144349
0.000212321
0.000103715
7.7847e-05
7.78233e-05
0.000183244
7.81028e-05
7.8086e-05
0.00010017
5.07857e-05
0.000100236
5.07789e-05
2.39112e-05
2.39107e-05
0.000100137
5.078e-05
0.000100175
5.0777e-05
0.000211455
0.000211381
0.000211427
0.000213112
0.0002132
0.000213151
0.000213151
0.000145232
0.000104141
0.000213705
0.000203811
0.000145107
0.000104063
0.000214187
2.3908e-05
2.39092e-05
0.000145216
0.000213638
0.000104064
0.000203701
0.000145032
0.000214121
0.00010404
7.81529e-05
7.8147e-05
0.00018411
7.79493e-05
7.79568e-05
0.000100167
5.07938e-05
9.99926e-05
5.08225e-05
2.39163e-05
2.39274e-05
0.000100281
5.07959e-05
0.000100058
5.08209e-05
0.000213705
0.000213689
0.000213681
0.000215276
0.000215218
0.000215286
0.000215276
0.000145279
0.00010382
0.000215289
0.000204717
0.000145159
0.000104065
0.000215598
2.39171e-05
2.39261e-05
0.000145322
0.000215283
0.000103895
0.000204794
0.00014518
0.000215616
0.000104164
7.78661e-05
7.78745e-05
0.000184977
7.83618e-05
7.83646e-05
0.000100408
5.08307e-05
0.000100494
5.08102e-05
2.39291e-05
2.39247e-05
0.000100342
5.08247e-05
0.000100484
5.08033e-05
0.00021579
0.000215862
0.000215865
0.000217301
0.00021733
0.000217313
0.000217369
0.000145911
0.000104489
0.000216836
0.000206115
0.000145847
0.000104341
0.000217287
2.39248e-05
2.39198e-05
0.000145907
0.000216891
0.000104496
0.000206123
0.000145865
0.000217329
0.000104285
7.8539e-05
7.85368e-05
0.000185772
7.80213e-05
7.80139e-05
9.9947e-05
5.08038e-05
9.99014e-05
5.08491e-05
2.39272e-05
2.39465e-05
0.000100015
5.08023e-05
9.98794e-05
5.08507e-05
0.000217704
0.000217662
0.000217719
0.000219013
0.000219005
0.00021902
0.000218937
0.000145434
0.000103619
0.000218077
0.000206397
0.000145448
0.000103746
0.000218211
2.39266e-05
2.39477e-05
0.000145422
0.000218047
0.00010361
0.000206367
0.000145419
0.000218185
0.0001038
7.74081e-05
7.74136e-05
0.000185583
7.79222e-05
7.7944e-05
0.000101232
5.09049e-05
0.000100986
5.09056e-05
2.39618e-05
2.39574e-05
0.000101195
5.09001e-05
0.000101032
5.08984e-05
0.000219684
0.000219696
0.000219606
0.000221628
0.000221583
0.000221512
0.000221554
0.000147178
0.000105298
0.000219442
0.000208866
0.000146518
0.000105544
0.000220095
2.39583e-05
2.3951e-05
0.00014709
0.00021944
0.000105268
0.000208788
0.000146509
0.000220065
0.000105437
7.93336e-05
7.93134e-05
0.000188422
7.94014e-05
7.93683e-05
9.95595e-05
5.08171e-05
0.000100435
5.07854e-05
2.39257e-05
2.39227e-05
9.95246e-05
5.08108e-05
0.000100285
5.0786e-05
0.000221977
0.000221901
0.000221984
0.000222204
0.000222278
0.00022227
0.000222367
0.000145778
0.00010419
0.00022127
0.000208616
0.000146744
0.000103202
0.000221259
2.39233e-05
2.39239e-05
0.000145792
0.00022123
0.000104103
0.000208529
0.000146643
0.000221228
0.000103279
7.76539e-05
7.76494e-05
0.000186448
7.68022e-05
7.68348e-05
9.98088e-05
5.08184e-05
9.91188e-05
5.08937e-05
2.39451e-05
2.3972e-05
0.000100108
5.08304e-05
9.92777e-05
5.08971e-05
0.000222308
0.000222353
0.000222398
0.00022332
0.000223381
0.000223526
0.000223402
0.000145369
0.000102953
0.000220986
0.000208087
0.000144953
0.000103938
0.000221028
2.39503e-05
2.39714e-05
0.000145538
0.000221041
0.000103185
0.000208258
0.000145108
0.000221085
0.000104172
7.68181e-05
7.6865e-05
0.000186208
7.81718e-05
7.81985e-05
0.000101692
5.0971e-05
0.0001013
5.09745e-05
2.39888e-05
2.39861e-05
0.000101421
5.09557e-05
0.000101225
5.09552e-05
0.000224149
0.000224213
0.000224148
0.00022638
0.000226189
0.000225978
0.000226108
0.000147865
0.000105532
0.000222344
0.00021111
0.000147164
0.000105863
0.000223186
2.39788e-05
2.39735e-05
0.000147651
0.000222429
0.000105374
0.000210856
0.000147133
0.000223135
0.000105509
7.95931e-05
7.95763e-05
0.000190156
7.97144e-05
7.96741e-05
0.000100043
5.08772e-05
0.000100985
5.08514e-05
2.39557e-05
2.39539e-05
0.000100134
5.08738e-05
0.0001007
5.08594e-05
0.000226718
0.000226477
0.000226607
0.000227201
0.000227238
0.00022724
0.000227174
0.000146648
0.000104758
0.000224528
0.000211381
0.000147549
0.000103912
0.000224577
2.39585e-05
2.39618e-05
0.000146557
0.000224356
0.000104502
0.000211156
0.000147233
0.000224423
0.000104109
7.79762e-05
7.79102e-05
0.000188528
7.74447e-05
7.74409e-05
9.97787e-05
5.08703e-05
9.96128e-05
5.08757e-05
2.39641e-05
2.39662e-05
0.000100009
5.08795e-05
9.9963e-05
5.08812e-05
0.000227228
0.000227327
0.000227194
0.000227243
0.000227445
0.000227756
0.000227655
0.00014611
0.00010383
0.000224324
0.000210498
0.000145961
0.000103978
0.000224308
2.39674e-05
2.39638e-05
0.000146345
0.000224433
0.000104298
0.000210938
0.000146234
0.000224474
0.000104339
7.7774e-05
7.78547e-05
0.00018788
7.78384e-05
7.79158e-05
9.99073e-05
5.08746e-05
9.97275e-05
5.09582e-05
2.39725e-05
2.4004e-05
9.97758e-05
5.0871e-05
9.97119e-05
5.09335e-05
0.000227749
0.000228002
0.000227971
0.00022969
0.000229645
0.000229206
0.000229562
0.000146382
0.000103683
0.000224696
0.000211089
0.000146217
0.000103924
0.000224935
2.39602e-05
2.39891e-05
0.000146227
0.000224856
0.000103437
0.000211015
0.000146183
0.000225044
0.000103489
7.74813e-05
7.74953e-05
0.000188666
7.80641e-05
7.7979e-05
0.000102696
5.10792e-05
0.000102322
5.1038e-05
2.40262e-05
2.39924e-05
0.000102475
5.1058e-05
0.000101881
5.10417e-05
0.000230347
0.000229911
0.000230144
0.000231415
0.000231167
0.000231261
0.000230969
0.000148806
0.000106654
0.000226789
0.000214104
0.000148116
0.000106814
0.000227248
2.40256e-05
2.40127e-05
0.000148744
0.000226357
0.000106236
0.000213981
0.000147717
0.000226988
0.000106937
8.05918e-05
8.05138e-05
0.000192626
8.04909e-05
8.04735e-05
9.78367e-05
5.07651e-05
9.93739e-05
5.0748e-05
2.39314e-05
2.39488e-05
9.83776e-05
5.07955e-05
0.000100168
5.07654e-05
0.000231001
0.000231195
0.000230879
0.000230027
0.000230413
0.000230251
0.000230297
0.000144941
0.000102805
0.000227198
0.000211147
0.000146823
0.000101862
0.000226603
2.3937e-05
2.39324e-05
0.000145239
0.000227278
0.000104149
0.000211887
0.00014754
0.00022693
0.000101952
7.60686e-05
7.61764e-05
0.000186114
7.53536e-05
7.53269e-05
0.000100733
5.09678e-05
9.87954e-05
5.10522e-05
2.40208e-05
2.4031e-05
9.98335e-05
5.09244e-05
9.81236e-05
5.102e-05
0.000230445
0.00023023
0.000230413
0.000231783
0.000231813
0.00023173
0.000232006
0.000146183
0.000103969
0.000225656
0.000211856
0.000144627
0.00010522
0.000226051
2.39874e-05
2.40308e-05
0.00014516
0.000225509
0.000101635
0.000210717
0.000143943
0.000225911
0.000103839
7.79738e-05
7.76656e-05
0.00018903
7.93579e-05
7.93312e-05
0.000100663
5.10099e-05
0.000101353
5.09479e-05
2.40027e-05
2.39964e-05
0.000101215
5.10218e-05
0.000101155
5.0971e-05
0.000232711
0.00023272
0.000232899
0.000234567
0.000234618
0.000235171
0.000234768
0.000147893
0.000104984
0.000228237
0.000214329
0.000147534
0.000104094
0.000228977
2.40361e-05
2.40212e-05
0.000149341
0.000228375
0.000106446
0.000215815
0.000148375
0.000229465
0.000106594
7.93636e-05
7.97382e-05
0.000192152
7.81734e-05
7.86236e-05
0.000101399
5.09705e-05
0.000100285
5.11181e-05
2.4016e-05
2.40558e-05
0.000101507
5.09715e-05
0.000100764
5.11002e-05
0.000235093
0.000235625
0.00023525
0.000235618
0.000235168
0.000234016
0.000234132
0.000148332
0.000104386
0.000229957
0.000215988
0.00014789
0.00010607
0.000230132
2.40056e-05
2.40181e-05
0.000148018
0.000230432
0.000105021
0.000216087
0.000148685
0.000230122
0.000105207
7.84036e-05
7.84873e-05
0.000194083
8.03785e-05
7.99005e-05
0.000104184
5.121e-05
0.000104611
5.08917e-05
2.40428e-05
2.39321e-05
0.000103863
5.12016e-05
0.000104312
5.09177e-05
0.000234019
0.000233062
0.000233323
0.000230226
0.000230755
0.000229908
0.000230173
0.000150347
0.000110162
0.000228574
0.00021589
0.00015064
0.000109145
0.000228056
2.40164e-05
2.39368e-05
0.000147345
0.000227387
0.000106906
0.000213472
0.000147802
0.000226684
0.000106413
8.3435e-05
8.26067e-05
0.000194279
8.0458e-05
7.98656e-05
8.55176e-05
5.00659e-05
9.14164e-05
5.00159e-05
2.37229e-05
2.37642e-05
8.55636e-05
5.00734e-05
9.16816e-05
5.0008e-05
0.000227582
0.000226886
0.000226996
0.000224923
0.000226024
0.00022641
0.000226572
0.000130405
9.42258e-05
0.000222669
0.000197958
0.000139381
8.73653e-05
0.00021864
2.37398e-05
2.37644e-05
0.00013251
0.000221617
9.59788e-05
0.000198578
0.000139688
0.000218976
8.90774e-05
6.44466e-05
6.51169e-05
0.0001638
6.02191e-05
6.10001e-05
0.000104336
5.10058e-05
8.73183e-05
5.19808e-05
2.41329e-05
2.43956e-05
0.000103085
5.09229e-05
8.62303e-05
5.19395e-05
0.000228711
0.000228888
0.000228877
0.000246829
0.000243419
0.000244691
0.000244639
0.000142436
9.23131e-05
0.000221293
0.000208108
0.000128867
0.000107205
0.000224652
2.41038e-05
2.44242e-05
0.000142416
0.000222396
9.17214e-05
0.00020821
0.000131
0.000225583
0.000106307
7.19217e-05
7.21458e-05
0.000189728
8.95674e-05
8.94947e-05
0.000141557
5.66649e-05
0.000126413
0.000108843
2.76761e-05
5.73146e-05
0.00014498
5.67434e-05
0.000127618
0.000110908
0.000261777
0.000257032
0.000257356
0.000270821
0.000258095
0.000264405
0.000265185
0.000190055
0.000130948
0.00025448
0.000248543
0.00017897
0.000137886
0.000257178
2.78444e-05
5.97155e-05
0.00019356
0.00025635
0.00013668
0.000256084
0.000180965
0.000258709
0.000145871
0.000109916
0.000110086
0.000258403
0.000121118
0.000121557
2.39018e-05
2.3893e-05
2.39003e-05
2.38919e-05
0.000182333
7.78508e-05
7.78498e-05
7.76731e-05
7.76834e-05
9.97798e-05
5.07565e-05
5.07396e-05
9.97744e-05
9.97831e-05
5.0751e-05
5.07392e-05
9.97673e-05
0.000144286
0.000201388
0.000103558
0.000211612
0.00010349
0.000211295
0.000144315
0.000144295
0.000201432
0.00010347
0.000211621
0.00010349
0.00021132
0.000144312
2.38982e-05
2.38909e-05
0.000182362
7.76455e-05
7.76499e-05
7.76407e-05
7.76415e-05
2.38987e-05
2.38915e-05
9.98302e-05
5.07529e-05
5.07385e-05
9.98139e-05
0.000144334
0.00020142
0.000103568
0.000211642
0.000103505
0.000211325
0.000144362
9.98298e-05
5.07429e-05
5.07346e-05
9.98025e-05
0.000144344
0.00020152
0.000211672
0.000103505
0.000211364
0.000103546
0.000144359
0.00014433
0.000201472
0.000103482
0.000211654
0.000103503
0.000211342
0.000144348
9.98173e-05
5.07491e-05
5.07396e-05
9.97923e-05
0.00014433
0.000201459
0.00021166
0.000103582
0.000211328
0.000103567
0.000144358
9.98228e-05
5.0749e-05
5.07392e-05
9.9802e-05
2.38951e-05
2.38894e-05
0.000182483
7.76635e-05
7.76666e-05
7.7695e-05
7.77169e-05
2.38963e-05
2.38912e-05
0.000144371
0.000201569
0.000211703
0.000103517
0.000211396
0.00010358
0.000144367
0.000144366
0.000201488
0.000211688
0.000103573
0.000211361
0.000103571
0.000144373
9.98361e-05
5.07435e-05
5.07376e-05
9.9789e-05
9.98432e-05
5.07477e-05
5.07388e-05
9.98045e-05
0.000182404
7.77775e-05
7.77624e-05
7.77543e-05
7.77536e-05
2.38985e-05
2.38923e-05
2.38977e-05
2.38917e-05
2.39033e-05
2.39094e-05
2.39017e-05
2.39075e-05
7.79672e-05
7.79584e-05
0.000183343
7.82191e-05
7.81916e-05
2.39103e-05
2.39094e-05
2.39086e-05
2.39075e-05
0.000183455
7.82129e-05
7.8178e-05
7.82357e-05
7.82041e-05
0.000100028
5.07569e-05
9.97744e-05
5.07808e-05
0.000144659
0.00010361
0.00021195
0.000202315
0.000144325
0.000103981
0.000212333
0.000144635
0.000103484
0.000211939
0.000202196
0.000144315
0.000103865
0.000212305
0.000100103
5.07871e-05
5.07843e-05
0.000100253
0.000100095
5.07908e-05
5.07845e-05
0.000100265
0.00014473
0.000202718
0.000104117
0.000213258
0.000104038
0.000212777
0.000145136
0.00014471
0.000202616
0.000104175
0.00021323
0.000103961
0.000212742
0.000145141
7.77351e-05
7.77407e-05
0.000183171
7.81638e-05
7.81465e-05
2.39004e-05
2.39096e-05
2.39118e-05
2.39099e-05
0.000183341
7.82864e-05
7.8266e-05
7.82331e-05
7.82131e-05
2.39122e-05
2.39101e-05
0.000144636
0.000103609
0.000211981
0.000202334
0.000144365
0.000103945
0.000212347
9.99784e-05
5.07468e-05
9.98015e-05
5.07678e-05
0.000144599
0.000211983
0.000103499
0.000202176
0.000144354
0.000212324
0.000103756
0.000100049
5.07809e-05
5.07778e-05
0.000100191
0.000144692
0.000202725
0.000104064
0.000213229
0.000103993
0.000212775
0.000145043
0.000100025
5.07787e-05
5.07712e-05
0.000100191
0.000144656
0.000202534
0.000213179
0.000104034
0.000212727
0.000103829
0.000145028
9.99649e-05
5.07538e-05
9.97878e-05
5.07777e-05
0.0001446
0.000211992
0.000103595
0.000202279
0.000144356
0.000212348
0.000103842
9.99651e-05
5.07528e-05
9.97974e-05
5.07726e-05
0.000144654
0.000202634
0.000104155
0.000213204
0.000103933
0.000212735
0.000145072
0.000100019
5.07894e-05
5.07817e-05
0.000100236
0.000144658
0.000202638
0.000213206
0.000104072
0.000212753
0.000103901
0.000145056
0.000100013
5.0783e-05
5.07758e-05
0.000100222
7.76905e-05
7.76744e-05
0.000183082
7.80271e-05
7.80072e-05
2.38976e-05
2.39067e-05
2.39083e-05
2.39055e-05
0.000183191
7.81425e-05
7.81789e-05
7.80876e-05
7.80864e-05
2.39108e-05
2.39075e-05
0.000144549
0.000212008
0.00010358
0.000202288
0.000144361
0.000212346
0.000103814
9.98955e-05
5.07468e-05
9.97736e-05
5.07691e-05
9.99178e-05
5.07513e-05
9.97923e-05
5.07718e-05
0.000144577
0.000202538
0.000213147
0.000104065
0.000212703
0.000103796
0.000144988
0.000144602
0.00020264
0.000213177
0.000104061
0.000212736
0.000103873
0.000144997
9.99435e-05
5.0784e-05
5.07734e-05
0.00010019
9.99633e-05
5.07833e-05
5.07752e-05
0.000100194
2.38998e-05
2.39071e-05
2.3899e-05
2.39065e-05
0.000183343
7.81697e-05
7.81619e-05
7.81432e-05
7.81292e-05
2.39098e-05
2.39075e-05
2.39094e-05
2.39069e-05
2.39095e-05
2.39097e-05
2.39079e-05
2.39086e-05
7.81423e-05
7.81049e-05
0.000184078
7.78444e-05
7.78376e-05
2.39175e-05
2.39099e-05
2.39171e-05
2.3909e-05
0.000184027
7.78007e-05
7.78257e-05
7.77919e-05
7.77948e-05
0.000100191
5.07904e-05
0.00010025
5.07838e-05
0.000145195
0.000104086
0.000213746
0.000203699
0.000145152
0.000103916
0.000214191
0.000145219
0.000104159
0.000213736
0.000203795
0.000145163
0.000104063
0.000214208
0.000100098
5.07864e-05
5.07782e-05
0.000100006
0.000100119
5.07846e-05
5.07817e-05
0.000100014
0.000145146
0.000203897
0.000103775
0.000214913
0.000103822
0.00021458
0.000145129
0.00014517
0.000204033
0.000103815
0.000214956
0.000103945
0.000214617
0.000145145
7.82681e-05
7.82482e-05
0.000184261
7.79954e-05
7.79915e-05
2.39117e-05
2.39114e-05
2.39147e-05
2.39102e-05
0.000184217
7.78053e-05
7.78191e-05
7.78934e-05
7.78978e-05
2.39156e-05
2.3911e-05
0.000145147
0.000104032
0.000213703
0.000203683
0.000145062
0.000103889
0.000214137
0.000100146
5.07785e-05
0.000100178
5.07767e-05
0.000145158
0.000213659
0.000104022
0.000203658
0.000145053
0.000214118
0.000103976
0.000100093
5.07886e-05
5.07769e-05
0.000100059
0.000145114
0.000203886
0.000103791
0.000214878
0.000103812
0.000214532
0.000145144
0.000100103
5.07844e-05
5.07764e-05
0.000100062
0.000145126
0.000203928
0.0002149
0.000103867
0.000214535
0.000103908
0.000145155
0.000100201
5.07892e-05
0.000100228
5.07848e-05
0.000145216
0.00021369
0.000104057
0.000203697
0.00014509
0.00021416
0.000103993
0.000100189
5.07828e-05
0.000100214
5.07799e-05
0.000145194
0.000204059
0.000103838
0.000214975
0.000103955
0.000214616
0.000145191
0.000100149
5.07852e-05
5.07827e-05
0.000100057
0.00014518
0.000203945
0.000214947
0.000103838
0.000214584
0.000103912
0.000145183
0.000100139
5.07831e-05
5.07787e-05
0.000100054
7.81291e-05
7.81698e-05
0.000184135
7.7964e-05
7.80308e-05
2.39107e-05
2.39116e-05
2.39155e-05
2.39093e-05
0.000184143
7.78936e-05
7.79155e-05
7.79113e-05
7.79633e-05
2.39166e-05
2.39116e-05
0.000145207
0.000213657
0.000104047
0.0002037
0.000145038
0.000214129
0.000103994
0.000100186
5.07841e-05
0.000100191
5.07828e-05
0.000100184
5.07831e-05
0.000100194
5.07806e-05
0.000145186
0.000203987
0.000214944
0.000103908
0.000214565
0.000103979
0.000145205
0.000145178
0.000203952
0.000214932
0.000103848
0.000214561
0.000103918
0.000145196
0.000100147
5.07853e-05
5.07816e-05
0.000100074
0.000100144
5.07842e-05
5.07795e-05
0.00010007
2.39094e-05
2.391e-05
2.39091e-05
2.39098e-05
0.000184088
7.78397e-05
7.78486e-05
7.78814e-05
7.789e-05
2.39156e-05
2.391e-05
2.39154e-05
2.39098e-05
2.39196e-05
2.39296e-05
2.39192e-05
2.39284e-05
7.79055e-05
7.79617e-05
0.000185011
7.84303e-05
7.84583e-05
2.39302e-05
2.39298e-05
2.39284e-05
2.39284e-05
0.000185191
7.85326e-05
7.85314e-05
7.85031e-05
7.85185e-05
0.000100144
5.07893e-05
9.99957e-05
5.08181e-05
0.00014527
0.000103782
0.000215225
0.000204715
0.0001451
0.000104222
0.000215555
0.000145253
0.000103797
0.000215257
0.000204669
0.000145111
0.000104042
0.000215563
0.000100266
5.0832e-05
5.08271e-05
0.000100499
0.000100245
5.08324e-05
5.08239e-05
0.000100499
0.000145341
0.000205122
0.000104528
0.000216385
0.000104343
0.000215942
0.000145821
0.000145319
0.000205022
0.000104493
0.000216353
0.000104187
0.000215924
0.000145809
7.78093e-05
7.78236e-05
0.000184889
7.8256e-05
7.82711e-05
2.39172e-05
2.3928e-05
2.393e-05
2.39283e-05
0.000185023
7.84994e-05
7.84952e-05
7.83783e-05
7.83863e-05
2.39304e-05
2.39287e-05
0.000145391
0.00010381
0.000215222
0.000204757
0.000145137
0.000104278
0.00021558
0.000100271
5.07906e-05
0.000100059
5.08158e-05
0.000145385
0.000215245
0.000103865
0.000204772
0.000145146
0.0002156
0.000104227
0.000100358
5.08272e-05
5.08243e-05
0.000100495
0.000145462
0.000205171
0.000104519
0.000216443
0.000104381
0.000215994
0.000145854
0.00010035
5.08228e-05
5.08194e-05
0.000100494
0.000145455
0.000205149
0.000216441
0.000104482
0.000215998
0.000104329
0.000145849
0.000100137
5.07893e-05
0.000100034
5.08171e-05
0.000145286
0.000215271
0.000103827
0.000204728
0.000145154
0.000215595
0.000104147
0.000100147
5.0788e-05
0.000100034
5.08164e-05
0.000145336
0.000205067
0.000104495
0.000216374
0.000104204
0.000215951
0.000145808
0.000100228
5.08316e-05
5.08229e-05
0.000100501
0.000145346
0.000205113
0.000216395
0.000104548
0.000215962
0.00010428
0.00014582
0.000100239
5.08296e-05
5.08219e-05
0.000100507
7.79419e-05
7.79302e-05
0.000185043
7.83886e-05
7.83511e-05
2.39181e-05
2.39278e-05
2.39265e-05
2.39262e-05
0.000185175
7.84841e-05
7.85029e-05
7.84542e-05
7.84388e-05
2.39292e-05
2.39283e-05
0.000145324
0.000215269
0.000103838
0.000204752
0.000145172
0.000215605
0.000104162
0.000100167
5.07895e-05
0.000100053
5.08158e-05
0.000100178
5.07892e-05
0.000100051
5.08176e-05
0.000145381
0.000205158
0.000216427
0.000104509
0.000215991
0.000104281
0.000145836
0.000145387
0.000205141
0.000216426
0.000104552
0.000215985
0.000104292
0.000145849
0.000100257
5.08279e-05
5.08209e-05
0.000100506
0.000100271
5.083e-05
5.08229e-05
0.000100518
2.39174e-05
2.39281e-05
2.39171e-05
2.39278e-05
0.000185156
7.85588e-05
7.85571e-05
7.84678e-05
7.84688e-05
2.39299e-05
2.39287e-05
2.39295e-05
2.39283e-05
2.39286e-05
2.39233e-05
2.39265e-05
2.39212e-05
7.84906e-05
7.84756e-05
0.000185632
7.78905e-05
7.78333e-05
2.39261e-05
2.39219e-05
2.3925e-05
2.392e-05
0.000185441
7.74346e-05
7.74088e-05
7.76909e-05
7.76389e-05
0.000100426
5.08319e-05
0.000100497
5.08155e-05
0.000145879
0.000104511
0.00021685
0.000206088
0.000145846
0.000104235
0.000217286
0.000145891
0.000104488
0.000216819
0.000206082
0.000145842
0.000104352
0.000217269
0.000100273
5.08008e-05
5.08037e-05
9.99674e-05
0.000100297
5.08028e-05
5.08079e-05
9.99806e-05
0.000145799
0.000206159
0.000103652
0.000217885
0.00010401
0.000217638
0.000145565
0.000145818
0.000206206
0.000103705
0.000217905
0.000104127
0.000217642
0.000145585
7.84857e-05
7.84783e-05
0.000185695
7.8046e-05
7.80111e-05
2.39293e-05
2.39248e-05
2.39251e-05
2.39224e-05
0.000185529
7.74713e-05
7.74502e-05
7.78158e-05
7.77842e-05
2.39254e-05
2.39226e-05
0.000145824
0.000104497
0.000216903
0.000206105
0.000145847
0.000104162
0.000217311
0.000100338
5.08207e-05
0.000100483
5.07988e-05
0.00014582
0.000216894
0.000104462
0.000206066
0.000145843
0.000217306
0.000104146
0.000100185
5.07973e-05
5.07979e-05
9.99221e-05
0.000145714
0.000206157
0.000103613
0.000217847
0.000103939
0.000217634
0.00014548
0.000100177
5.07924e-05
5.07932e-05
9.99126e-05
0.000145709
0.000206124
0.00021784
0.000103598
0.000217626
0.000103921
0.00014547
0.000100448
5.08312e-05
0.000100503
5.08147e-05
0.000145914
0.000216862
0.000104539
0.000206162
0.000145857
0.000217311
0.000104356
0.000100448
5.0829e-05
0.000100508
5.08104e-05
0.000145842
0.000206236
0.000103687
0.000217924
0.000104113
0.000217661
0.000145594
0.000100325
5.08008e-05
5.08067e-05
9.99762e-05
0.000145842
0.000206254
0.000217931
0.000103665
0.000217678
0.000104115
0.000145586
0.000100319
5.0796e-05
5.08022e-05
9.99671e-05
7.84383e-05
7.84783e-05
0.000185623
7.78195e-05
7.794e-05
2.3928e-05
2.39229e-05
2.39238e-05
2.39186e-05
0.000185437
7.74066e-05
7.74458e-05
7.7623e-05
7.77248e-05
2.39249e-05
2.39212e-05
0.000145916
0.000216896
0.000104541
0.000206184
0.000145878
0.000217339
0.000104344
0.000100435
5.08272e-05
0.000100504
5.08089e-05
0.00010044
5.08293e-05
0.000100514
5.08096e-05
0.000145825
0.000206202
0.000217913
0.000103663
0.000217678
0.000104052
0.00014556
0.00014583
0.00020627
0.00021793
0.000103663
0.000217692
0.000104102
0.000145558
0.00010029
5.07968e-05
5.08014e-05
9.99455e-05
0.000100288
5.07963e-05
5.08016e-05
9.99401e-05
2.39288e-05
2.39233e-05
2.39283e-05
2.39228e-05
0.000185585
7.74265e-05
7.74303e-05
7.77832e-05
7.7778e-05
2.39235e-05
2.3921e-05
2.39232e-05
2.39206e-05
2.39286e-05
2.39488e-05
2.39277e-05
2.39484e-05
7.74277e-05
7.74081e-05
0.000185636
7.81155e-05
7.81765e-05
2.3963e-05
2.39524e-05
2.39615e-05
2.39518e-05
0.000185953
7.93215e-05
7.93418e-05
7.84906e-05
7.85454e-05
9.99436e-05
5.08046e-05
9.99093e-05
5.08458e-05
0.000145473
0.000103606
0.000218038
0.000206323
0.000145444
0.000103819
0.000218191
0.000145474
0.000103636
0.000218065
0.000206372
0.000145458
0.000103756
0.000218212
0.000100082
5.09003e-05
5.08639e-05
0.00010084
0.000100068
5.08988e-05
5.0861e-05
0.00010083
0.000145537
0.000206664
0.000105129
0.000218906
0.000104123
0.000218463
0.000146368
0.000145532
0.000206665
0.00010508
0.000218898
0.000104021
0.000218468
0.000146351
7.74503e-05
7.74327e-05
0.000185673
7.79769e-05
7.7998e-05
2.39276e-05
2.39473e-05
2.39619e-05
2.39506e-05
0.000185936
7.92839e-05
7.92953e-05
7.8389e-05
7.8413e-05
2.39624e-05
2.39513e-05
0.000145482
0.000103577
0.000217989
0.00020632
0.000145386
0.000103871
0.000218149
0.000100014
5.07978e-05
9.98709e-05
5.08487e-05
0.000145479
0.000217982
0.000103567
0.000206313
0.000145377
0.000218152
0.000103906
0.000100207
5.08967e-05
5.08644e-05
0.000100916
0.000145579
0.000206684
0.000105163
0.000218925
0.000104191
0.000218452
0.000146488
0.000100213
5.08938e-05
5.08631e-05
0.000100924
0.000145579
0.00020672
0.000218938
0.000105197
0.000218458
0.000104249
0.000146502
9.99044e-05
5.08024e-05
9.98921e-05
5.08433e-05
0.000145422
0.000218075
0.000103592
0.000206351
0.000145438
0.000218199
0.000103704
9.98949e-05
5.07975e-05
9.98829e-05