/*--------------------------------*- C++ -*----------------------------------*\
| =========                 |                                                 |
| \\      /  F ield         | OpenFOAM: The Open Source CFD Toolbox           |
|  \\    /   O peration     | Version:  v1906                                 |
|   \\  /    A nd           | Web:      www.OpenFOAM.com                      |
|    \\/     M anipulation  |                                                 |
\*---------------------------------------------------------------------------*/
FoamFile
{
    version     2.0;
    format      ascii;
    class       volScalarField;
    location    "875";
    object      p;
}
// * * * * * * * * * * * * * * * * * * * * * * * * * * * * * * * * * * * * * //

dimensions      [0 2 -2 0 0 0 0];


internalField   nonuniform List<scalar> 
42616
(
0.000713103
0.00071305
0.000713027
0.000715051
0.000677521
0.000677444
0.00067746
0.000679456
0.000642041
0.000641975
0.000641983
0.000644016
0.000606307
0.000606234
0.000606218
0.000608236
0.000570861
0.000570797
0.000570817
0.000572807
0.000535224
0.000535183
0.000535149
0.000537237
0.000498993
0.000498907
0.000498951
0.000500911
0.000463788
0.000463749
0.000463758
0.000465775
0.000428178
0.000428115
0.000428029
0.000430131
0.000391861
0.00039179
0.000391901
0.000393835
0.000356025
0.000356017
0.000356001
0.000358084
0.000320682
0.000320615
0.000320486
0.000322568
0.000284522
0.00028443
0.000284675
0.000286601
0.000247747
0.000247839
0.000247574
0.000249736
0.00021292
0.000212851
0.000212904
0.00021499
0.000176617
0.000176466
0.00017678
0.000178608
0.000141302
0.000141291
0.000140791
0.000143168
0.000102197
0.000102726
0.000102872
0.000104997
6.44775e-05
6.40603e-05
6.41325e-05
6.57159e-05
3.86764e-05
3.76166e-05
3.77694e-05
3.95651e-05
1.00376e-05
1.09202e-05
1.2021e-05
9.28332e-06
0.000719888
0.000721913
0.000721903
0.000719884
0.000721908
0.000721882
0.000721899
0.000721892
0.000719855
0.000721877
0.000721889
0.000719864
0.000715067
0.000684271
0.000713048
0.000713054
0.000686336
0.000686357
0.000715075
0.000684292
0.000713042
0.000713031
0.000686335
0.00068636
0.000713034
0.00068636
0.000686354
0.000715047
0.000684304
0.00071303
0.000686366
0.000686355
0.000684292
0.000679441
0.000648845
0.000677435
0.00067744
0.000650853
0.000650827
0.000679448
0.000648808
0.000677438
0.000677455
0.000650859
0.000650849
0.000677448
0.000650827
0.000650841
0.000679467
0.000648827
0.00067745
0.000650844
0.000650844
0.000648826
0.000644028
0.000613089
0.000641994
0.000641976
0.000615184
0.000615207
0.000644
0.000613123
0.000641997
0.000641988
0.000615177
0.00061518
0.000641986
0.000615209
0.000615204
0.000644013
0.000613095
0.000641988
0.000615188
0.000615202
0.000613114
0.000608215
0.000577608
0.000606215
0.000606233
0.000579598
0.000579585
0.000608244
0.000577585
0.000606208
0.000606211
0.000579603
0.000579608
0.000606228
0.000579582
0.000579575
0.00060822
0.000577614
0.000606226
0.000579599
0.000579578
0.000577575
0.000572842
0.000542168
0.000570817
0.000570801
0.000544232
0.000544227
0.000572817
0.000542161
0.000570824
0.00057083
0.000544227
0.000544197
0.000570788
0.000544226
0.000544223
0.000572847
0.000542118
0.000570791
0.000544198
0.000544218
0.00054216
0.000537235
0.000505717
0.000535187
0.000535183
0.000507851
0.000507874
0.000537229
0.00050576
0.000535177
0.000535143
0.00050785
0.000507886
0.000535191
0.000507882
0.000507905
0.000537186
0.000505793
0.000535184
0.0005079
0.000507909
0.000505787
0.000500846
0.000470541
0.000498863
0.000498897
0.000472485
0.000472485
0.000500894
0.000470526
0.000498871
0.000498941
0.0004725
0.000472535
0.000498916
0.000472488
0.000472477
0.000500944
0.000470572
0.000498925
0.000472526
0.000472484
0.000470516
0.000465816
0.000435145
0.000463777
0.000463751
0.000437222
0.000437182
0.000465783
0.000435108
0.000463786
0.000463771
0.000437194
0.000437078
0.000463742
0.000437165
0.000437149
0.000465809
0.000434984
0.000463744
0.000437073
0.000437135
0.000435073
0.000430192
0.000398646
0.00042815
0.000428131
0.000400761
0.000400787
0.000430171
0.000398681
0.000428123
0.000428032
0.000400774
0.000400864
0.000428093
0.000400793
0.0004008
0.000430061
0.000398804
0.000428077
0.000400864
0.000400805
0.000398702
0.000393767
0.00036289
0.000391746
0.000391774
0.000364936
0.000364968
0.0003938
0.000362931
0.000391774
0.000391899
0.00036495
0.000365006
0.000391812
0.000364984
0.000365014
0.000393942
0.000362948
0.000391829
0.000365021
0.000365026
0.000362974
0.000358001
0.000327401
0.000355967
0.000356003
0.000329375
0.000329365
0.000358044
0.000327382
0.00035597
0.000355985
0.000329349
0.00032923
0.000356043
0.000329361
0.000329327
0.000358029
0.000327221
0.000356044
0.000329226
0.000329304
0.000327319
0.000322704
0.000291783
0.000320685
0.000320635
0.000293925
0.000293821
0.000322655
0.000291633
0.000320651
0.000320505
0.000293933
0.000293969
0.000320553
0.000293775
0.000293781
0.000322501
0.000291887
0.000320531
0.000293933
0.000293796
0.000291669
0.000286627
0.000254259
0.00028451
0.000284446
0.000256377
0.000256562
0.000286513
0.000254548
0.000284549
0.000284688
0.000256409
0.000256549
0.0002845
0.000256631
0.00025665
0.000286805
0.000254365
0.00028453
0.000256592
0.000256654
0.000254535
0.000249543
0.000220065
0.000247593
0.00024778
0.000221909
0.000221834
0.000249822
0.000219886
0.000247577
0.000247538
0.000221836
0.00022159
0.000247763
0.000221794
0.00022171
0.000249502
0.000219707
0.000247732
0.000221571
0.000221666
0.000219806
0.000215199
0.000183249
0.000213066
0.000212907
0.000185482
0.000185498
0.000214972
0.000183311
0.000213019
0.000212923
0.000185553
0.000185928
0.000212887
0.000185516
0.000185685
0.000215004
0.000183808
0.000212886
0.000185965
0.00018577
0.000183566
0.000178294
0.000148466
0.00017637
0.000176435
0.000150161
0.000149981
0.00017839
0.000148154
0.000176438
0.000176744
0.000150134
0.000149688
0.00017659
0.000149957
0.00014983
0.00017879
0.000147686
0.000176653
0.000149624
0.000149776
0.000147914
0.000143853
0.000110366
0.00014162
0.000141345
0.00011293
0.000113075
0.000143477
0.000110767
0.000141568
0.000140901
0.0001129
0.000113002
0.000141082
0.000113067
0.000112978
0.000142918
0.000110808
0.000140995
0.000112933
0.000112908
0.000110672
0.000104431
6.97424e-05
0.000102257
0.000102662
7.18477e-05
7.21484e-05
0.000104978
7.00397e-05
0.000102275
0.000102831
7.18615e-05
7.23224e-05
0.000102751
7.22536e-05
7.23727e-05
0.000105191
7.01882e-05
0.000102745
7.25432e-05
7.25147e-05
7.02273e-05
6.54862e-05
4.38593e-05
6.39274e-05
6.40208e-05
4.45986e-05
4.40958e-05
6.56404e-05
4.30311e-05
6.39036e-05
6.4002e-05
4.45549e-05
4.3914e-05
6.4096e-05
4.39705e-05
4.3868e-05
6.56358e-05
4.28511e-05
6.41976e-05
4.37816e-05
4.38409e-05
4.29188e-05
4.05132e-05
1.32334e-05
3.8636e-05
3.77762e-05
1.73517e-05
1.64559e-05
3.95235e-05
1.23666e-05
3.86006e-05
3.79574e-05
1.76193e-05
1.78108e-05
3.78012e-05
1.64557e-05
1.7542e-05
3.95934e-05
1.37095e-05
3.77801e-05
1.77529e-05
1.77312e-05
1.35836e-05
8.7943e-06
1.15898e-05
1.08675e-05
8.26003e-06
1.17258e-05
1.20366e-05
9.74902e-06
1.04177e-05
1.02833e-05
1.19487e-05
9.3207e-06
1.20028e-05
0.000721968
0.000721962
0.000721946
0.000721954
0.000701946
0.000715226
0.00071523
0.00070193
0.000715214
0.000701932
0.000701938
0.000715224
0.000715222
0.000701928
0.000713106
0.000713088
0.000713092
0.000686419
0.000686435
0.000686437
0.000686432
0.000702012
0.000715201
0.000713057
0.000704177
0.00071517
0.000701976
0.000704188
0.000715215
0.000701924
0.000702003
0.000713042
0.000715187
0.00070416
0.000715157
0.000704176
0.000701968
0.000715217
0.000715215
0.000702113
0.00070193
0.000701929
0.000666354
0.000679678
0.000679664
0.000666377
0.000679685
0.000666382
0.000666363
0.000679677
0.000679664
0.000666378
0.000677527
0.000677537
0.000677531
0.000650911
0.00065089
0.000650906
0.000650902
0.00066639
0.000679631
0.000677482
0.000668549
0.000679608
0.000666367
0.000668585
0.000679682
0.000666382
0.0006664
0.000677492
0.000679634
0.00066857
0.000679613
0.000668598
0.000666379
0.00067968
0.000679681
0.000666518
0.000666348
0.000666349
0.000630872
0.000644171
0.00064416
0.000630849
0.000644164
0.000630846
0.000630868
0.000644174
0.000644169
0.000630852
0.000642027
0.000642035
0.000642036
0.00061526
0.000615278
0.000615262
0.000615276
0.000630939
0.000644131
0.000641983
0.000633097
0.000644097
0.000630907
0.000633104
0.000644159
0.000630857
0.000630938
0.000641988
0.00064414
0.000633091
0.000644103
0.000633102
0.000630904
0.00064415
0.000644151
0.000631065
0.000630858
0.000630859
0.00059513
0.000608512
0.000608508
0.000595162
0.000608526
0.000595181
0.000595123
0.000608509
0.000608497
0.000595159
0.000606323
0.000606308
0.000606318
0.00057967
0.000579656
0.00057967
0.00057965
0.000595145
0.000608474
0.000606282
0.000597291
0.000608446
0.000595129
0.00059734
0.000608527
0.000595175
0.000595142
0.000606272
0.000608462
0.000597287
0.000608438
0.000597336
0.000595126
0.000608546
0.000608547
0.000595209
0.000595142
0.000595142
0.000559736
0.000572967
0.00057294
0.000559701
0.000572958
0.000559655
0.000559744
0.000572969
0.000572954
0.000559703
0.000570846
0.000570861
0.000570837
0.000544251
0.000544248
0.000544228
0.000544242
0.000559813
0.000572902
0.00057079
0.000562016
0.000572869
0.00055978
0.000561985
0.000572956
0.000559655
0.000559819
0.0005708
0.000572915
0.000562025
0.00057288
0.00056199
0.000559784
0.000572892
0.000572896
0.000560029
0.000559659
0.000559661
0.000523928
0.000537408
0.000537419
0.000523929
0.00053741
0.000523953
0.000523909
0.000537408
0.000537409
0.000523924
0.000535226
0.000535198
0.00053523
0.000507976
0.000507996
0.000508008
0.000508017
0.000523951
0.000537397
0.000535205
0.000526077
0.000537394
0.00052394
0.000526126
0.000537405
0.000523951
0.000523933
0.000535182
0.000537379
0.000526048
0.000537374
0.000526108
0.000523914
0.000537432
0.000537431
0.000523966
0.000523991
0.000523987
0.000487916
0.000501377
0.000501292
0.000487956
0.000501416
0.000487968
0.000487937
0.000501368
0.000501299
0.00048796
0.000499016
0.000499046
0.000499033
0.000472539
0.000472529
0.000472559
0.000472527
0.00048792
0.000501252
0.000498968
0.000490033
0.000501149
0.000487942
0.000490065
0.000501402
0.000487979
0.000487951
0.000498996
0.000501264
0.000490089
0.000501169
0.000490102
0.000487973
0.00050139
0.000501392
0.000488006
0.000487932
0.000487937
0.00045264
0.000465804
0.000465817
0.00045257
0.00046574
0.000452534
0.000452633
0.00046581
0.000465845
0.000452578
0.000463763
0.000463769
0.000463757
0.000437216
0.000437192
0.00043712
0.000437162
0.000452764
0.00046581
0.00046372
0.000454977
0.000465809
0.000452667
0.000454938
0.000465761
0.000452551
0.000452747
0.000463725
0.000465836
0.000454945
0.000465822
0.000454919
0.000452655
0.00046575
0.000465753
0.000453009
0.000452535
0.000452535
0.000416829
0.000430301
0.000430329
0.000416816
0.000430303
0.000416823
0.000416795
0.000430295
0.000430294
0.000416805
0.000428169
0.000428096
0.000428135
0.000400877
0.000400889
0.000400941
0.000400903
0.00041684
0.000430288
0.000428132
0.000419006
0.000430284
0.000416826
0.00041904
0.00043027
0.000416811
0.000416804
0.000428073
0.000430235
0.000418953
0.000430238
0.000419004
0.000416776
0.00043031
0.000430304
0.000416839
0.000416839
0.00041683
0.000380723
0.000394265
0.000394155
0.000380778
0.000394281
0.000380784
0.000380767
0.000394264
0.000394186
0.000380789
0.000391874
0.000391955
0.000391906
0.000364985
0.000365011
0.000365041
0.000365047
0.000380734
0.000394122
0.000391832
0.00038285
0.000394014
0.000380768
0.000382867
0.000394261
0.000380816
0.0003808
0.000391898
0.000394169
0.000382964
0.000394062
0.000382943
0.000380832
0.000394235
0.000394239
0.000380869
0.000380767
0.000380777
0.000344863
0.000358266
0.00035829
0.000344828
0.000358277
0.000344847
0.000344846
0.000358279
0.000358303
0.000344827
0.000356056
0.000356044
0.000356084
0.000329425
0.000329422
0.000329323
0.00032938
0.000344948
0.000358278
0.00035605
0.000347056
0.000358272
0.000344879
0.000347103
0.000358322
0.000344887
0.000344912
0.000356044
0.000358296
0.000346983
0.000358282
0.00034706
0.000344849
0.000358334
0.000358337
0.000344995
0.000344869
0.000344862
0.000309479
0.000322673
0.00032263
0.00030943
0.000322661
0.000309321
0.000309439
0.000322654
0.000322589
0.000309433
0.000320648
0.000320556
0.000320579
0.000293868
0.000293773
0.000293879
0.000293767
0.000309526
0.000322603
0.000320569
0.000311864
0.000322582
0.000309521
0.000311759
0.000322587
0.000309286
0.000309469
0.000320485
0.000322501
0.000311767
0.000322507
0.000311699
0.000309449
0.000322533
0.000322519
0.000309857
0.000309292
0.000309291
0.000273028
0.000286879
0.000286916
0.000273054
0.000286842
0.00027315
0.000273128
0.000286882
0.000286959
0.000273064
0.000284468
0.000284652
0.000284526
0.00025664
0.000256777
0.000256762
0.000256819
0.000273018
0.000286847
0.000284491
0.00027501
0.000286833
0.000272969
0.000275153
0.000286894
0.000273206
0.000273167
0.000284639
0.00028695
0.00027528
0.000286933
0.000275311
0.000273205
0.000286963
0.000286977
0.000272871
0.000273239
0.000273268
0.000236925
0.000250294
0.000250147
0.000236946
0.000250322
0.000236952
0.00023683
0.000250288
0.000250133
0.000236936
0.00024791
0.000247739
0.000247868
0.000221766
0.000221726
0.000221591
0.000221656
0.000236991
0.000250161
0.00024785
0.000239194
0.000250008
0.000237028
0.000239103
0.00025038
0.00023685
0.000236785
0.000247708
0.000250084
0.0002388
0.000249929
0.000238869
0.000236789
0.000250275
0.000250265
0.000237114
0.000236807
0.000236766
0.000201514
0.000214818
0.00021497
0.000201464
0.000214769
0.000201489
0.000201563
0.000214804
0.000214906
0.00020147
0.000212822
0.00021287
0.000212838
0.000185691
0.000185667
0.000185981
0.000185828
0.000201602
0.000214911
0.000212802
0.000203789
0.000214966
0.000201516
0.000203834
0.000214638
0.000201431
0.000201781
0.000212822
0.000214845
0.000204106
0.000214882
0.000204009
0.000201652
0.000214744
0.00021473
0.000201863
0.000201485
0.000201496
0.000165241
0.000178764
0.000178747
0.000165299
0.000178881
0.000165269
0.000165296
0.000178789
0.000178878
0.00016531
0.000176631
0.000176853
0.000176746
0.000150072
0.000149951
0.000149722
0.000149811
0.000165319
0.000178706
0.000176608
0.000167528
0.000178742
0.000165245
0.00016761
0.000178978
0.000165444
0.00016543
0.000176829
0.000178964
0.000167624
0.000178974
0.000167698
0.000165371
0.000178909
0.000178947
0.000165477
0.000165288
0.000165327
0.00012985
0.000143177
0.000143123
0.00012979
0.000142947
0.000129499
0.000129734
0.000143162
0.000143029
0.000129753
0.00014112
0.000140794
0.0001409
0.000112586
0.000112736
0.000112668
0.000112657
0.000129852
0.000143005
0.000141034
0.000132332
0.000143012
0.000129881
0.000131994
0.000142915
0.000129398
0.000129547
0.000140703
0.000142843
0.000131837
0.000142808
0.000131644
0.000129589
0.000142784
0.000142762
0.000130209
0.00012951
0.000129454
9.06782e-05
0.000105917
0.00010608
9.08806e-05
0.000106241
9.14888e-05
9.07908e-05
0.000105897
0.000106068
9.09117e-05
0.000102511
0.00010263
0.000102581
7.25797e-05
7.28652e-05
7.30399e-05
7.30535e-05
9.0609e-05
0.000106139
0.000102767
9.20268e-05
0.000105963
9.06877e-05
9.24094e-05
0.000106233
9.15074e-05
9.08195e-05
0.00010282
0.000106086
9.24254e-05
0.000105849
9.26068e-05
9.10034e-05
0.000106595
0.000106547
8.91864e-05
9.19319e-05
9.1945e-05
5.45775e-05
6.73091e-05
6.68075e-05
5.47685e-05
6.74571e-05
5.44753e-05
5.44994e-05
6.75049e-05
6.68558e-05
5.47783e-05
6.45654e-05
6.46294e-05
6.46881e-05
4.47788e-05
4.43916e-05
4.43316e-05
4.42769e-05
5.45354e-05
6.66658e-05
6.42494e-05
5.68591e-05
6.62573e-05
5.46881e-05
5.68725e-05
6.74873e-05
5.43602e-05
5.44756e-05
6.44531e-05
6.67372e-05
5.66874e-05
6.65097e-05
5.68686e-05
5.45287e-05
6.69567e-05
6.69949e-05
5.52559e-05
5.40362e-05
5.40616e-05
2.42351e-05
3.54294e-05
3.65603e-05
2.26055e-05
3.51777e-05
2.15933e-05
2.44174e-05
3.54436e-05
3.64958e-05
2.26164e-05
3.80765e-05
3.82177e-05
3.80998e-05
1.73654e-05
1.66669e-05
1.75963e-05
1.74471e-05
2.63545e-05
3.65299e-05
3.74522e-05
3.07081e-05
3.75429e-05
2.42375e-05
3.08437e-05
3.50893e-05
2.1601e-05
2.66871e-05
3.75091e-05
3.64916e-05
3.14362e-05
3.73701e-05
3.12382e-05
2.45964e-05
3.47215e-05
3.47159e-05
2.96416e-05
2.25124e-05
2.25801e-05
3.58878e-06
7.2402e-06
6.67882e-06
1.57298e-06
4.02763e-06
-1.97844e-06
3.69203e-06
7.29717e-06
7.0969e-06
1.67367e-06
1.98387e-06
1.12626e-05
1.15215e-05
1.053e-05
1.16766e-05
5.45932e-06
5.73686e-06
2.94003e-06
5.76591e-06
1.06847e-05
2.36374e-06
8.29652e-06
6.38053e-06
-1.60711e-06
4.2444e-06
-1.64331e-06
3.22303e-06
1.12873e-05
6.53133e-06
2.69953e-06
8.9765e-06
-1.51144e-06
6.61083e-06
3.18014e-06
3.28861e-06
1.69961e-06
4.94113e-06
5.02632e-06
0.000719676
0.000732966
0.000719676
0.000732967
0.000732778
0.000719676
0.000719675
0.000732946
0.000732946
0.000732946
0.000719687
0.000732969
0.000719691
0.000732945
0.000719691
0.000732963
0.000719691
0.000732881
0.000730762
0.000719724
0.000721922
0.000732919
0.000730773
0.000719745
0.000732879
0.000730743
0.000719717
0.000721919
0.000732908
0.000730767
0.000719744
0.000719684
0.000732962
0.000732753
0.00071967
0.000719668
0.000732942
0.000732941
0.000719682
0.000732961
0.000732946
0.000719686
0.00073297
0.000719684
0.00073288
0.00073076
0.00071972
0.000721914
0.000732919
0.00073077
0.000719735
0.000732944
0.000719685
0.000732961
0.000719683
0.000732877
0.000730731
0.000721905
0.000719705
0.00073076
0.000732905
0.000719732
0.000732875
0.000730741
0.000719713
0.000721911
0.000732907
0.000730763
0.000719732
0.000732942
0.00071969
0.000732962
0.000719682
0.000732876
0.000730745
0.000721909
0.000719707
0.000730764
0.000732911
0.000719731
0.000732943
0.000719683
0.000732962
0.000719681
0.000719683
0.000732962
0.000732738
0.000719666
0.000719663
0.000732946
0.000732945
0.000719683
0.000732961
0.000732869
0.000730727
0.000721897
0.0007197
0.000730753
0.000732902
0.00071972
0.000732871
0.000730743
0.000721901
0.000719703
0.000730759
0.000732909
0.000719721
0.000732939
0.000719682
0.00073296
0.000719675
0.00073294
0.000719681
0.000732961
0.000719675
0.000732757
0.000719666
0.000719664
0.000732944
0.000732943
0.000719678
0.00073296
0.000719678
0.000732959
0.000715215
0.000701936
0.000715215
0.000701934
0.000715224
0.000715223
0.000702102
0.000701935
0.000701932
0.000684156
0.000697469
0.000684155
0.000697467
0.00069726
0.000684143
0.000684143
0.000697476
0.000697474
0.000701948
0.000715231
0.00071523
0.000701934
0.000702014
0.000715205
0.000713063
0.00070416
0.000715184
0.000701966
0.000704186
0.000702017
0.000715206
0.000713065
0.000704179
0.000715183
0.000701978
0.000704192
0.000697469
0.000684149
0.000697463
0.000684147
0.00069747
0.000684153
0.000697467
0.000684148
0.000697426
0.000695251
0.000684157
0.00068638
0.00069743
0.000695289
0.00068419
0.00069743
0.000695277
0.000684169
0.000686387
0.000697443
0.000695297
0.000684194
0.000715221
0.000715218
0.000702138
0.000701934
0.000701934
0.000715213
0.000701932
0.000684159
0.000697468
0.000697296
0.000684156
0.000684157
0.000697474
0.000697474
0.00068416
0.000697469
0.000702
0.0007152
0.000713053
0.000704155
0.000715171
0.000701961
0.000704176
0.000701938
0.000715225
0.000715221
0.000701927
0.000702002
0.000713048
0.000715191
0.00070416
0.000715168
0.000704178
0.000701966
0.000697462
0.000684147
0.00069746
0.000684144
0.000697416
0.000695248
0.000684156
0.000686378
0.000697426
0.000695282
0.00068419
0.000697463
0.00068415
0.00069746
0.000684145
0.000697418
0.000695267
0.000686386
0.000684165
0.000695288
0.000697433
0.000684193
0.000701946
0.000715229
0.000715222
0.000701933
0.000702009
0.000713052
0.000715192
0.000704158
0.000715168
0.000704182
0.000701968
0.000701944
0.000715223
0.00071522
0.000701931
0.000697431
0.000695278
0.000684171
0.000686392
0.000697443
0.000695298
0.000684203
0.000697471
0.000684154
0.000697467
0.000684153
0.000697428
0.000695264
0.00068639
0.000684169
0.000695293
0.000697437
0.000684202
0.00069747
0.000684153
0.000697465
0.000684153
0.000715215
0.000715214
0.000702122
0.000701924
0.000701924
0.000715217
0.000701922
0.000684154
0.00069746
0.000697287
0.000684146
0.000684148
0.000697462
0.000697464
0.000684156
0.000697457
0.000702002
0.000713043
0.000715188
0.000704156
0.000715158
0.000704175
0.000701965
0.00070194
0.000715224
0.000715213
0.000701925
0.000701939
0.000715221
0.000715214
0.000701928
0.000697426
0.000695271
0.000686395
0.00068417
0.000695294
0.000697437
0.000684207
0.000697424
0.000695263
0.000686391
0.000684169
0.000695291
0.000697435
0.000684206
0.000697466
0.000684152
0.000697459
0.000684154
0.000697466
0.000684152
0.000697462
0.000684153
0.000715214
0.000701932
0.000715212
0.000701929
0.000697277
0.000684152
0.000684152
0.000697471
0.00069747
0.000684158
0.000697467
0.000684158
0.000697465
0.000679686
0.000666382
0.000679686
0.000666383
0.000679671
0.000679671
0.000666523
0.000666345
0.000666348
0.000648625
0.000661915
0.000648626
0.000661917
0.000661716
0.000648611
0.000648614
0.000661886
0.00066189
0.000666354
0.00067968
0.000679665
0.000666372
0.000666386
0.000679618
0.000677473
0.000668556
0.000679596
0.000666373
0.000668582
0.000666384
0.000679629
0.000677476
0.000668546
0.000679598
0.000666364
0.000668579
0.000661884
0.000648634
0.000661917
0.00064862
0.000661883
0.000648628
0.000661911
0.000648619
0.000661812
0.000659699
0.000648661
0.000650854
0.000661855
0.000659712
0.000648668
0.000661809
0.000659678
0.000648644
0.000650846
0.000661843
0.000659705
0.000648664
0.000679682
0.000679684
0.000666499
0.000666348
0.000666349
0.000679686
0.000666382
0.000648628
0.000661914
0.000661686
0.000648601
0.000648601
0.000661888
0.000661889
0.000648627
0.000661913
0.0006664
0.000679618
0.000677478
0.000668562
0.000679599
0.000666378
0.000668593
0.000666363
0.00067968
0.000679665
0.000666377
0.0006664
0.000677484
0.000679629
0.000668569
0.000679602
0.000668596
0.000666379
0.000661895
0.000648638
0.000661919
0.000648631
0.000661828
0.000659706
0.000648668
0.000650866
0.000661861
0.000659725
0.000648683
0.000661895
0.000648638
0.000661917
0.000648631
0.000661828
0.000659703
0.000650863
0.000648661
0.000659724
0.00066186
0.000648681
0.000666357
0.000679681
0.00067967
0.000666373
0.000666392
0.000677483
0.000679631
0.00066856
0.000679608
0.000668588
0.000666372
0.000666357
0.000679681
0.00067967
0.000666374
0.000661812
0.000659679
0.000648643
0.000650844
0.000661844
0.000659706
0.000648659
0.000661884
0.000648627
0.00066191
0.000648615
0.000661814
0.000659692
0.000650849
0.000648648
0.000659711
0.00066185
0.00064866
0.000661885
0.00064863
0.000661912
0.000648615
0.000679677
0.00067968
0.000666526
0.000666353
0.000666352
0.000679683
0.000666385
0.000648633
0.000661916
0.000661713
0.000648615
0.000648612
0.000661893
0.000661896
0.000648636
0.000661919
0.0006664
0.000677489
0.000679632
0.000668563
0.000679613
0.000668595
0.000666375
0.000666364
0.000679681
0.000679672
0.000666378
0.000666363
0.000679681
0.000679672
0.000666376
0.000661823
0.0006597
0.000650856
0.000648652
0.000659721
0.000661857
0.000648666
0.000661822
0.000659696
0.000650856
0.00064865
0.000659719
0.000661853
0.000648667
0.000661892
0.000648636
0.000661917
0.000648621
0.000661891
0.000648633
0.000661915
0.000648621
0.000679685
0.00066638
0.000679685
0.000666382
0.000661706
0.000648603
0.000648604
0.000661887
0.000661888
0.000648628
0.000661912
0.000648629
0.000661914
0.00064415
0.000630852
0.00064415
0.000630856
0.000644158
0.00064416
0.000631049
0.000630861
0.000630861
0.000613017
0.000626379
0.000613016
0.000626382
0.000626178
0.00061303
0.000613026
0.000626397
0.000626396
0.000630872
0.00064417
0.000644159
0.000630853
0.000630941
0.000644149
0.000641991
0.000633098
0.000644107
0.000630901
0.000633105
0.000630941
0.000644133
0.000641985
0.000633097
0.000644103
0.000630908
0.000633105
0.000626384
0.000613007
0.000626372
0.000613012
0.000626386
0.000613012
0.000626374
0.000613014
0.000626347
0.000624157
0.000613025
0.00061523
0.000626354
0.000624182
0.000613055
0.000626349
0.000624172
0.000613036
0.000615237
0.000626364
0.000624188
0.000613059
0.00064415
0.00064415
0.000631063
0.000630857
0.000630858
0.000644161
0.000630848
0.000613022
0.000626375
0.000626203
0.000613037
0.000613039
0.000626391
0.000626392
0.000613025
0.000626377
0.000630935
0.000644154
0.000641998
0.000633097
0.000644119
0.000630899
0.000633105
0.000630869
0.000644175
0.000644169
0.000630854
0.000630936
0.000641995
0.000644147
0.000633092
0.000644117
0.000633103
0.000630901
0.000626379
0.000613004
0.000626375
0.000613003
0.000626335
0.000624151
0.000613018
0.000615217
0.000626351
0.000624174
0.000613038
0.000626379
0.000613005
0.000626375
0.000613003
0.000626336
0.000624152
0.000615218
0.000613019
0.000624174
0.000626353
0.000613038
0.000630873
0.000644169
0.000644154
0.000630854
0.00063094
0.000641987
0.000644136
0.000633102
0.000644098
0.000633106
0.000630907
0.000630873
0.000644171
0.000644154
0.000630853
0.000626351
0.000624173
0.00061304
0.000615242
0.000626364
0.00062419
0.000613068
0.000626389
0.000613015
0.000626376
0.00061302
0.000626351
0.000624172
0.00061524
0.000613039
0.00062419
0.000626363
0.000613067
0.000626389
0.000613015
0.000626377
0.00061302
0.00064416
0.00064416
0.000631048
0.000630862
0.000630862
0.000644167
0.000630853
0.000613015
0.000626382
0.000626181
0.000613026
0.00061303
0.000626395
0.000626396
0.000613015
0.000626378
0.00063094
0.00064199
0.000644139
0.000633102
0.000644103
0.000633106
0.000630907
0.000630872
0.000644176
0.000644159
0.000630853
0.000630873
0.000644173
0.000644159
0.000630853
0.000626347
0.000624157
0.00061523
0.000613029
0.000624182
0.000626359
0.000613059
0.000626348
0.000624171
0.000615235
0.000613038
0.000624187
0.000626363
0.000613061
0.000626386
0.000613007
0.000626374
0.000613015
0.000626386
0.000613015
0.000626376
0.000613017
0.000644158
0.00063085
0.00064416
0.00063085
0.000626201
0.000613041
0.000613041
0.000626395
0.000626395
0.000613025
0.000626379
0.000613025
0.000626379
0.000608529
0.000595178
0.00060853
0.000595176
0.000608532
0.000608528
0.000595217
0.000595132
0.000595131
0.000577403
0.000590694
0.000577404
0.000590692
0.000590411
0.000577344
0.000577348
0.000590657
0.000590656
0.000595131
0.000608516
0.000608509
0.000595159
0.000595144
0.000608458
0.000606272
0.000597285
0.000608434
0.000595129
0.000597337
0.000595145
0.000608471
0.000606278
0.000597291
0.000608438
0.000595128
0.00059734
0.000590647
0.000577408
0.000590689
0.000577385
0.000590647
0.000577405
0.000590687
0.000577384
0.000590553
0.000588415
0.000577409
0.000579612
0.000590598
0.00058845
0.000577421
0.000590553
0.000588409
0.0005774
0.000579608
0.000590593
0.000588448
0.000577419
0.000608541
0.000608543
0.000595217
0.000595138
0.000595139
0.00060853
0.000595182
0.000577403
0.000590698
0.000590401
0.00057734
0.000577336
0.00059066
0.000590659
0.000577395
0.000590697
0.000595136
0.000608449
0.00060626
0.000597282
0.000608417
0.000595127
0.00059733
0.000595123
0.000608509
0.000608497
0.00059516
0.000595135
0.00060626
0.000608451
0.000597283
0.000608417
0.00059733
0.000595126
0.000590645
0.00057741
0.000590686
0.000577395
0.000590552
0.000588417
0.000577416
0.000579621
0.000590598
0.000588451
0.000577439
0.000590645
0.000577414
0.000590688
0.000577396
0.000590552
0.000588419
0.000579622
0.000577421
0.000588452
0.000590598
0.000577439
0.000595132
0.000608519
0.000608516
0.000595161
0.000595145
0.000606279
0.000608473
0.000597284
0.000608445
0.000597337
0.000595129
0.000595132
0.00060852
0.000608516
0.000595164
0.000590549
0.000588406
0.000577396
0.000579599
0.000590592
0.000588442
0.000577406
0.000590645
0.000577401
0.000590687
0.000577375
0.000590549
0.0005884
0.000579596
0.000577395
0.00058844
0.000590594
0.000577405
0.000590646
0.0005774
0.00059069
0.000577375
0.000608528
0.000608533
0.000595219
0.00059513
0.00059513
0.000608523
0.000595178
0.000577408
0.000590693
0.000590414
0.000577351
0.000577342
0.000590656
0.000590655
0.000577403
0.000590695
0.000595141
0.000606274
0.000608472
0.000597283
0.000608439
0.000597334
0.000595129
0.00059513
0.000608511
0.00060851
0.000595162
0.000595131
0.00060852
0.000608511
0.000595164
0.000590549
0.000588415
0.000579608
0.000577407
0.000588446
0.000590595
0.000577416
0.000590548
0.000588401
0.000579601
0.000577398
0.000588441
0.000590595
0.000577414
0.000590646
0.000577409
0.00059069
0.000577384
0.000590646
0.000577402
0.000590691
0.000577383
0.000608531
0.000595187
0.000608533
0.000595188
0.000590394
0.000577338
0.000577341
0.000590663
0.000590664
0.000577398
0.000590701
0.0005774
0.000590702
0.000572954
0.000559654
0.000572955
0.000559655
0.000572904
0.000572909
0.000560062
0.000559669
0.000559669
0.000541907
0.000555201
0.000541908
0.000555196
0.000555244
0.000541926
0.000541925
0.000555219
0.000555218
0.000559735
0.000572965
0.00057294
0.000559706
0.000559827
0.000572916
0.000570806
0.000562032
0.000572885
0.000559784
0.000562
0.000559825
0.000572906
0.000570801
0.000562019
0.000572883
0.000559784
0.000561995
0.000555277
0.000541905
0.000555236
0.000541933
0.000555277
0.0005419
0.000555237
0.000541932
0.000555277
0.000553185
0.000541977
0.000544224
0.000555264
0.000553154
0.000542034
0.000555276
0.000553177
0.000541975
0.000544222
0.000555268
0.000553151
0.000542034
0.000572896
0.000572895
0.000560049
0.00055967
0.000559665
0.000572945
0.00055965
0.000541902
0.000555197
0.000555235
0.000541925
0.000541924
0.000555218
0.000555209
0.000541901
0.0005552
0.000559843
0.000572925
0.000570818
0.000562038
0.000572905
0.000559788
0.000562011
0.000559745
0.000572972
0.000572954
0.000559699
0.000559844
0.000570819
0.000572931
0.000562038
0.000572906
0.000562012
0.000559791
0.00055528
0.000541907
0.000555243
0.000541925
0.000555285
0.000553185
0.000541972
0.000544215
0.000555266
0.000553156
0.000542018
0.00055528
0.000541897
0.000555236
0.000541924
0.000555285
0.000553171
0.000544205
0.000541959
0.000553152
0.000555265
0.000542014
0.000559726
0.000572959
0.00057293
0.000559701
0.000559811
0.000570786
0.000572899
0.000562002
0.000572868
0.00056198
0.000559771
0.000559724
0.000572956
0.000572929
0.000559693