/*--------------------------------*- C++ -*----------------------------------*\
| =========                 |                                                 |
| \\      /  F ield         | OpenFOAM: The Open Source CFD Toolbox           |
|  \\    /   O peration     | Version:  v1906                                 |
|   \\  /    A nd           | Web:      www.OpenFOAM.com                      |
|    \\/     M anipulation  |                                                 |
\*---------------------------------------------------------------------------*/
FoamFile
{
    version     2.0;
    format      ascii;
    class       volScalarField;
    location    "875";
    object      p;
}
// * * * * * * * * * * * * * * * * * * * * * * * * * * * * * * * * * * * * * //

dimensions      [0 2 -2 0 0 0 0];


internalField   nonuniform List<scalar> 
42616
(
0.00360405
0.00360438
0.00360438
0.00360744
0.0035487
0.00354912
0.00354912
0.00355211
0.00349795
0.00349792
0.00349792
0.00350067
0.00344557
0.00344558
0.00344558
0.00344835
0.00339422
0.00339424
0.00339423
0.00339698
0.00334425
0.00334426
0.00334425
0.00334697
0.00329573
0.00329574
0.00329573
0.00329843
0.0032485
0.0032485
0.00324851
0.00325117
0.00320238
0.0032024
0.00320237
0.00320502
0.00315714
0.00315714
0.00315718
0.00315976
0.00311264
0.00311267
0.00311268
0.0031152
0.00306872
0.00306874
0.0030687
0.00307131
0.00302535
0.00302532
0.00302536
0.00302784
0.00298242
0.00298248
0.00298247
0.00298489
0.00293997
0.00293998
0.00294004
0.00294242
0.00289794
0.00289799
0.00289791
0.00290048
0.00285628
0.00285634
0.00285629
0.00285886
0.00281488
0.00281495
0.0028148
0.00281744
0.0027738
0.00277372
0.00277361
0.00277602
0.00273294
0.00273293
0.00273338
0.00273584
0.00269251
0.00269233
0.00269214
0.00269458
0.00361746
0.00361769
0.00361768
0.00361746
0.00361769
0.00361769
0.00361845
0.00361845
0.00361845
0.00361845
0.00361769
0.00361769
0.00361746
0.00361769
0.00361769
0.00361746
0.00360744
0.00355868
0.00360438
0.00360438
0.00356096
0.00356096
0.00360744
0.00355868
0.00360438
0.00360438
0.00356096
0.00356096
0.00360438
0.00356096
0.00356096
0.00360744
0.00355868
0.00360439
0.00356096
0.00356095
0.00355868
0.00355211
0.0035076
0.00354912
0.00354912
0.00351104
0.00351105
0.00355211
0.0035076
0.00354912
0.00354912
0.00351104
0.00351104
0.00354912
0.00351104
0.00351105
0.00355211
0.0035076
0.00354912
0.00351104
0.00351104
0.0035076
0.00350068
0.00345524
0.00349792
0.00349792
0.00345859
0.00345859
0.00350068
0.00345524
0.00349792
0.00349792
0.00345859
0.0034586
0.00349792
0.0034586
0.00345859
0.00350067
0.00345524
0.00349792
0.00345859
0.00345859
0.00345523
0.00344836
0.00340369
0.00344558
0.00344559
0.00340695
0.00340695
0.00344836
0.00340369
0.00344558
0.00344558
0.00340695
0.00340695
0.00344558
0.00340694
0.00340695
0.00344836
0.00340369
0.00344558
0.00340695
0.00340695
0.00340369
0.00339698
0.00335347
0.00339422
0.00339424
0.00335662
0.00335661
0.00339698
0.00335348
0.00339423
0.00339423
0.00335662
0.00335662
0.00339423
0.00335661
0.00335661
0.00339698
0.00335348
0.00339423
0.00335661
0.00335662
0.00335348
0.00334698
0.00330473
0.00334426
0.00334427
0.00330773
0.00330775
0.00334698
0.00330473
0.00334425
0.00334425
0.00330773
0.00330775
0.00334426
0.00330775
0.00330775
0.00334698
0.00330473
0.00334425
0.00330775
0.00330775
0.00330472
0.00329844
0.0032573
0.00329576
0.00329574
0.00326021
0.00326023
0.00329841
0.0032573
0.00329576
0.00329575
0.00326022
0.00326019
0.00329573
0.00326022
0.00326024
0.00329841
0.0032573
0.00329573
0.00326022
0.00326024
0.00325731
0.00325116
0.00321103
0.00324852
0.0032485
0.00321383
0.00321385
0.00325117
0.00321102
0.00324851
0.00324854
0.00321383
0.00321385
0.00324852
0.00321386
0.00321382
0.00325118
0.003211
0.00324852
0.00321387
0.00321383
0.003211
0.00320503
0.00316562
0.00320241
0.00320241
0.00316843
0.0031684
0.00320501
0.0031656
0.00320241
0.00320238
0.00316845
0.00316835
0.00320239
0.0031684
0.00316841
0.003205
0.00316562
0.00320239
0.00316837
0.00316842
0.00316566
0.00315973
0.00312101
0.00315714
0.00315715
0.0031237
0.00312372
0.00315975
0.00312102
0.00315713
0.00315718
0.00312371
0.00312372
0.00315719
0.00312372
0.00312377
0.00315979
0.00312102
0.00315719
0.00312374
0.00312377
0.003121
0.00311523
0.00307699
0.00311268
0.00311267
0.00307969
0.00307971
0.00311524
0.00307698
0.00311266
0.0031127
0.00307969
0.00307971
0.00311261
0.0030797
0.00307965
0.00311525
0.00307697
0.00311261
0.00307972
0.00307966
0.003077
0.00307129
0.00303354
0.00306872
0.00306873
0.00303611
0.00303612
0.00307126
0.00303345
0.00306872
0.00306871
0.00303612
0.00303609
0.00306876
0.00303613
0.00303619
0.00307125
0.00303349
0.00306876
0.0030361
0.0030362
0.00303352
0.0030279
0.00299054
0.00302542
0.00302531
0.00299316
0.00299307
0.00302788
0.00299053
0.00302541
0.00302536
0.00299315
0.00299309
0.00302538
0.00299307
0.00299314
0.0030279
0.00299051
0.00302537
0.00299309
0.00299314
0.00299046
0.00298495
0.00294797
0.00298245
0.00298249
0.00295053
0.00295055
0.00298495
0.00294793
0.00298244
0.00298248
0.00295054
0.00295062
0.00298235
0.00295056
0.0029505
0.00298495
0.00294804
0.00298236
0.00295062
0.0029505
0.00294791
0.00294247
0.00290585
0.00293996
0.00293997
0.00290841
0.00290851
0.00294243
0.00290596
0.00293997
0.00294004
0.00290841
0.00290845
0.00293991
0.00290851
0.00290838
0.00294252
0.00290585
0.0029399
0.00290845
0.00290838
0.00290591
0.0029004
0.0028641
0.00289789
0.00289799
0.00286663
0.00286673
0.00290049
0.00286426
0.00289789
0.0028979
0.00286663
0.00286672
0.00289794
0.00286674
0.00286666
0.0029004
0.00286424
0.00289795
0.00286673
0.00286665
0.00286426
0.0028587
0.00282272
0.0028562
0.00285633
0.00282522
0.00282528
0.00285885
0.00282288
0.0028562
0.00285629
0.0028252
0.00282515
0.00285634
0.00282529
0.00282522
0.00285881
0.00282267
0.00285634
0.00282516
0.00282521
0.0028228
0.00281734
0.00278179
0.00281487
0.00281495
0.00278413
0.00278396
0.00281744
0.00278146
0.00281486
0.0028148
0.00278411
0.00278383
0.00281493
0.00278394
0.00278385
0.00281726
0.00278123
0.00281492
0.00278382
0.00278384
0.00278134
0.00277639
0.0027405
0.00277383
0.00277374
0.00274293
0.00274314
0.00277614
0.0027407
0.00277382
0.00277362
0.00274296
0.00274359
0.00277365
0.00274317
0.00274335
0.00277595
0.00274134
0.00277364
0.00274364
0.00274338
0.0027412
0.00273523
0.00270036
0.00273282
0.0027329
0.00270261
0.00270246
0.00273535
0.00270003
0.00273286
0.00273335
0.00270261
0.00270246
0.00273316
0.00270243
0.00270223
0.00273601
0.00269987
0.0027332
0.00270243
0.00270224
0.00269978
0.00269508
0.00269253
0.00269236
0.00269476
0.00269252
0.00269217
0.0026922
0.00269447
0.00269219
0.00362584
0.0036356
0.0036304
0.0036304
0.00365278
0.00363956
0.00366817
0.00363361
0.00365278
0.00363957
0.00363361
0.00366817
0.00364413
0.00367191
0.00367191
0.00358119
0.00360034
0.00360953
0.00357328
0.00357401
0.00357678
0.00358117
0.00360032
0.00360952
0.00357326
0.00360405
0.00360406
0.00360406
0.00356065
0.00356065
0.00356065
0.00356065
0.0035787
0.00360452
0.00360445
0.00358752
0.00360755
0.0035776
0.0035884
0.00357412
0.00357678
0.0035787
0.00360446
0.00360453
0.00358752
0.00360754
0.0035884
0.0035776
0.0036104
0.00361038
0.00358192
0.00357724
0.00357723
0.00353457
0.00355384
0.00355521
0.0035331
0.00355275
0.00353266
0.00353456
0.00355384
0.0035552
0.0035331
0.0035487
0.0035487
0.0035487
0.00351111
0.00351111
0.00351111
0.00351111
0.00353315
0.00355392
0.0035487
0.00353683
0.00355271
0.00353369
0.00353656
0.00355275
0.00353265
0.00353315
0.0035487
0.00355392
0.00353683
0.00355271
0.00353656
0.00353369
0.00355494
0.00355494
0.00353338
0.00353402
0.00353403
0.00348231
0.00350111
0.00350218
0.00348128
0.00350074
0.003481
0.00348231
0.00350111
0.00350218
0.00348128
0.00349795
0.00349795
0.00349795
0.00345857
0.00345857
0.00345857
0.00345857
0.00348141
0.00350151
0.00349783
0.00348478
0.00350095
0.00348177
0.00348469
0.00350074
0.003481
0.00348141
0.00349782
0.00350151
0.00348478
0.00350095
0.00348469
0.00348177
0.00350175
0.00350175
0.0034814
0.00348183
0.00348183
0.00342978
0.00344844
0.0034493
0.00342901
0.00344823
0.00342884
0.00342978
0.00344844
0.0034493
0.00342901
0.00344557
0.00344557
0.00344557
0.00340694
0.00340694
0.00340694
0.00340694
0.00342927
0.00344884
0.00344553
0.00343263
0.00344856
0.00342946
0.00343259
0.00344823
0.00342884
0.00342927
0.00344553
0.00344884
0.00343263
0.00344856
0.00343259
0.00342946
0.00344888
0.00344888
0.00342932
0.0034294
0.0034294
0.00337859
0.00339694
0.00339758
0.00337803
0.00339681
0.0033779
0.00337859
0.00339694
0.00339758
0.00337803
0.00339422
0.00339422
0.00339422
0.0033566
0.0033566
0.0033566
0.0033566
0.00337832
0.0033973
0.0033942
0.00338159
0.00339713
0.00337843
0.00338157
0.0033968
0.0033779
0.00337832
0.0033942
0.00339729
0.0033816
0.00339712
0.00338157
0.00337842
0.00339728
0.00339728
0.0033784
0.00337834
0.00337834
0.00332895
0.0033469
0.00334735
0.00332855
0.00334678
0.00332843
0.00332895
0.00334689
0.00334735
0.00332855
0.00334425
0.00334425
0.00334425
0.00330773
0.00330773
0.00330773
0.00330773
0.00332883
0.00334719
0.00334423
0.003332
0.00334708
0.00332891
0.00333197
0.00334677
0.00332843
0.00332883
0.00334423
0.0033472
0.00333201
0.00334708
0.00333197
0.0033289
0.00334718
0.00334718
0.00332892
0.0033288
0.0033288
0.00328078
0.00329833
0.00329865
0.0032805
0.00329822
0.00328039
0.00328077
0.00329834
0.00329865
0.0032805
0.00329573
0.00329573
0.00329572
0.0032602
0.0032602
0.0032602
0.0032602
0.00328076
0.00329858
0.00329571
0.00328382
0.0032985
0.00328082
0.00328379
0.00329824
0.0032804
0.00328076
0.00329571
0.00329859
0.00328383
0.00329849
0.0032838
0.00328082
0.00329858
0.00329858
0.00328085
0.00328074
0.00328074
0.0032339
0.00325107
0.00325131
0.0032337
0.00325099
0.00323357
0.00323389
0.00325109
0.00325131
0.0032337
0.0032485
0.0032485
0.0032485
0.00321381
0.00321382
0.00321382
0.00321381
0.00323394
0.0032513
0.00324848
0.00323692
0.00325122
0.00323398
0.00323687
0.00325101
0.0032336
0.00323393
0.00324848
0.0032513
0.00323692
0.00325122
0.00323687
0.00323398
0.00325133
0.00325132
0.00323404
0.00323391
0.00323392
0.00318807
0.00320492
0.00320511
0.00318789
0.00320484
0.00318783
0.00318806
0.00320494
0.0032051
0.00318789
0.00320238
0.00320237
0.00320237
0.00316839
0.00316838
0.00316837
0.00316838
0.00318814
0.00320515
0.00320237
0.00319098
0.00320507
0.00318817
0.00319098
0.00320483
0.00318783
0.00318814
0.00320235
0.00320515
0.00319101
0.00320506
0.00319099
0.00318818
0.00320513
0.00320513
0.00318821
0.00318812
0.00318812
0.00314308
0.00315967
0.00315982
0.00314295
0.00315962
0.00314287
0.00314307
0.00315968
0.00315982
0.00314295
0.00315714
0.00315715
0.00315715
0.0031237
0.00312371
0.00312371
0.00312372
0.00314317
0.00315988
0.00315714
0.00314601
0.00315982
0.00314322
0.00314596
0.0031596
0.00314289
0.00314317
0.00315714
0.00315989
0.00314601
0.00315982
0.00314595
0.00314322
0.00315984
0.00315984
0.00314324
0.00314313
0.00314313
0.00309877
0.00311513
0.00311528
0.00309866
0.00311506
0.00309855
0.00309877
0.00311515
0.00311528
0.00309865
0.00311264
0.00311265
0.00311263
0.00307966
0.00307966
0.00307966
0.00307965
0.0030989
0.00311536
0.00311262
0.00310164
0.00311528
0.00309892
0.00310162
0.00311508
0.00309858
0.00309889
0.00311262
0.00311536
0.00310163
0.00311528
0.00310162
0.0030989
0.00311532
0.00311532
0.00309894
0.00309881
0.0030988
0.00305503
0.00307121
0.00307134
0.0030549
0.00307111
0.00305483
0.00305502
0.00307121
0.00307133
0.0030549
0.00306872
0.00306872
0.00306873
0.00303613
0.00303613
0.00303612
0.00303614
0.00305517
0.0030714
0.00306873
0.00305782
0.00307137
0.00305519
0.00305783
0.00307115
0.00305478
0.00305517
0.00306872
0.00307137
0.00305785
0.00307136
0.00305783
0.00305519
0.00307137
0.00307137
0.00305513
0.00305503
0.00305503
0.00301179
0.00302778
0.00302791
0.00301167
0.00302771
0.0030116
0.00301179
0.00302779
0.00302791
0.00301166
0.00302533
0.00302533
0.00302534
0.00299311
0.00299309
0.00299309
0.0029931
0.00301196
0.00302798
0.00302534
0.00301465
0.00302797
0.00301193
0.00301457
0.00302766
0.00301162
0.00301196
0.00302534
0.00302797
0.00301462
0.00302796
0.00301456
0.00301193
0.00302791
0.0030279
0.00301193
0.00301184
0.00301183
0.00296901
0.00298484
0.00298497
0.00296885
0.00298474
0.00296884
0.002969
0.00298485
0.00298496
0.00296885
0.00298242
0.00298242
0.00298239
0.00295053
0.00295052
0.00295056
0.00295051
0.00296916
0.00298499
0.00298241
0.00297174
0.00298501
0.00296913
0.00297174
0.00298475
0.0029688
0.00296918
0.0029824
0.00298498
0.00297175
0.00298501
0.00297175
0.00296912
0.00298499
0.002985
0.00296918
0.00296894
0.00296896
0.00292667
0.00294232
0.00294244
0.00292659
0.00294227
0.00292643
0.0029267
0.00294233
0.00294248
0.0029266
0.00293995
0.00293999
0.00293995
0.00290841
0.00290844
0.00290841
0.00290841
0.0029269
0.00294245
0.00293995
0.00292936
0.00294254
0.00292678
0.00292942
0.00294232
0.00292648
0.00292691
0.00293998
0.00294251
0.00292938
0.00294256
0.00292944
0.00292685
0.00294245
0.00294245
0.00292692
0.00292657
0.00292657
0.0028848
0.00290028
0.00290041
0.00288464
0.00290016
0.00288465
0.00288479
0.00290028
0.0029004
0.00288465
0.00289796
0.00289793
0.00289796
0.00286665
0.0028667
0.00286671
0.00286669
0.00288502
0.00290048
0.00289796
0.00288746
0.00290054
0.00288485
0.00288753
0.0029002
0.00288463
0.00288504
0.00289795
0.00290045
0.00288749
0.00290052
0.00288754
0.00288489
0.00290037
0.00290038
0.002885
0.00288469
0.00288469
0.00284323
0.00285858
0.00285873
0.0028431
0.00285855
0.00284314
0.00284322
0.00285858
0.00285873
0.0028431
0.00285632
0.00285631
0.00285633
0.00282521
0.00282527
0.00282518
0.00282523
0.00284352
0.00285876
0.00285634
0.002846
0.00285889
0.00284338
0.00284599
0.00285862
0.00284308
0.0028435
0.00285634
0.0028588
0.00284597
0.00285889
0.00284597
0.00284339
0.00285865
0.00285866
0.0028435
0.0028432
0.0028432
0.00280193
0.00281721
0.00281736
0.00280186
0.00281727
0.00280175
0.00280188
0.0028172
0.0028173
0.00280183
0.00281491
0.00281485
0.00281492
0.00278409
0.00278399
0.00278388
0.00278391
0.00280219
0.00281743
0.00281495
0.00280456
0.00281751
0.00280208
0.00280459
0.00281716
0.0028017
0.00280213
0.00281489
0.00281736
0.00280447
0.00281745
0.00280455
0.00280197
0.00281735
0.00281734
0.00280215
0.00280193
0.00280192
0.00276088
0.00277619
0.00277623
0.00276075
0.00277611
0.00276076
0.00276088
0.00277617
0.00277618
0.00276075
0.00277377
0.0027737
0.00277368
0.00274309
0.00274315
0.00274342
0.00274334
0.00276116
0.00277618
0.00277376
0.00276355
0.00277629
0.00276106
0.00276357
0.00277584
0.00276076
0.00276114
0.0027737
0.00277597
0.00276347
0.00277623
0.00276357
0.00276092
0.00277616
0.00277616
0.00276106
0.00276075
0.00276076
0.00272011
0.00273517
0.0027353
0.00271999
0.00273526
0.00272001
0.00272023
0.00273522
0.00273543
0.00272004
0.00273294
0.0027332
0.00273311
0.00270261
0.00270249
0.00270248
0.00270241
0.00272043
0.00273541
0.002733
0.00272269
0.00273555
0.00272029
0.00272279
0.00273547
0.00272036
0.00272059
0.00273321
0.00273561
0.00272302
0.00273571
0.00272297
0.00272058
0.00273547
0.0027355
0.00272022
0.00272037
0.0027204
0.00267975
0.00269478
0.00269482
0.0026797
0.00269461
0.00267956
0.00269478
0.00269483
0.00267968
0.00269239
0.00269228
0.00269235
0.00267992
0.00269476
0.00269234
0.0026822
0.00269484
0.00267974
0.00268228
0.00269472
0.00267986
0.00269228
0.00269483
0.00269485
0.00268218
0.0026947
0.0026947
0.00268
0.00267957
0.00267955
0.00364413
0.0036719
0.00367192
0.00363626
0.00367143
0.00363623
0.00367145
0.00364098
0.00362804
0.00362805
0.00366671
0.00366673
0.00365277
0.00363956
0.00366816
0.0036336
0.00365277
0.00363956
0.00366816
0.0036336
0.00365728
0.00362834
0.00366856
0.00362314
0.00365729
0.00362831
0.00366857
0.00362314
0.00364837
0.00363709
0.00361951
0.00361991
0.00366343
0.00363204
0.00362013
0.00364837
0.00363709
0.00361951
0.00361991
0.00366344
0.00363204
0.00362014
0.00364413
0.0036719
0.00367191
0.00363623
0.00367144
0.00364098
0.00362803
0.00362806
0.00366672
0.00366672
0.00363626
0.00367144
0.00365278
0.00363956
0.00366817
0.00363361
0.00365278
0.00363957
0.00363361
0.00366817
0.0036573
0.00362832
0.00366858
0.00362315
0.00364838
0.00363709
0.00361951
0.00361991
0.00366345
0.00363205
0.00362014
0.0036573
0.00362834
0.00366857
0.00362314
0.00364838
0.00363709
0.00361991
0.00361951
0.00363205
0.00366344
0.00362014
0.00362584
0.0036356
0.0036304
0.0036304
0.00362584
0.0036356
0.0036304
0.0036304
0.00362584
0.0036356
0.0036304
0.0036304
0.0036246
0.00363368
0.00361657
0.00361657
0.00362896
0.00362897
0.00361474
0.0036246
0.00363368
0.00361657
0.00361657
0.00362896
0.00362897
0.00361474
0.0036246
0.00363369
0.00361657
0.00361657
0.00362897
0.00362897
0.00361474
0.0036246
0.00363369
0.00361657
0.00361657
0.00362897
0.00362897
0.00361474
0.00365278
0.00363957
0.00363361
0.00366817
0.00364838
0.00363709
0.0036195
0.00361991
0.00366344
0.00363205
0.00362014
0.00365731
0.00362833
0.00366857
0.00362315
0.00364838
0.00363709
0.00361991
0.00361951
0.00363205
0.00366344
0.00362014
0.0036573
0.00362832
0.00366857
0.00362314
0.00364413
0.00367191
0.00367191
0.00363621
0.00367144
0.00364099
0.00362804
0.00362805
0.00366672
0.00366672
0.0036362
0.00367145
0.00365278
0.00363957
0.00363361
0.00366817
0.00364838
0.00363709
0.00361992
0.00361952
0.00363205
0.00366344
0.00362014
0.00364838
0.00363709
0.00361991
0.00361951
0.00363205
0.00366344
0.00362014
0.0036573
0.00362833
0.00366858
0.00362314
0.00365731
0.00362834
0.00366858
0.00362315
0.00364099
0.00362805
0.00362805
0.00366672
0.00366672
0.00363621
0.00367144
0.00363624
0.00367145
0.00357401
0.00357678
0.00357411
0.00357676
0.00361036
0.00361039
0.00358194
0.00357723
0.00357723
0.00355952
0.00357642
0.00355952
0.00357643
0.00357527
0.00356213
0.00356213
0.00357539
0.00357539
0.00358119
0.00360032
0.00360954
0.00357327
0.00357872
0.00360452
0.00360445
0.00358752
0.00360754
0.0035776
0.00358841
0.00357871
0.00360452
0.00360445
0.00358752
0.00360755
0.00357761
0.00358841
0.00357665
0.00356126
0.00357417
0.003562
0.00357665
0.00356126
0.00357418
0.003562
0.00357369
0.00357322
0.00356094
0.00356069
0.00357476
0.00357363
0.00355928
0.00357369
0.00357322
0.00356094
0.00356069
0.00357477
0.00357363
0.00355928
0.00361035
0.0036104
0.00358194
0.00357724
0.00357724
0.00357416
0.00357676
0.00355952
0.00357643
0.00357527
0.00356213
0.00356213
0.00357539
0.00357538
0.00355951
0.00357644
0.0035787
0.00360452
0.00360445
0.00358752
0.00360755
0.0035776
0.0035884
0.00358118
0.00360033
0.00360951
0.00357328
0.0035787
0.00360445
0.00360452
0.00358752
0.00360754
0.0035884
0.0035776
0.00357664
0.00356126
0.00357417
0.003562
0.00357368
0.00357322
0.00356094
0.00356069
0.00357476
0.00357363
0.00355928
0.00357664
0.00356125
0.00357418
0.003562
0.00357368
0.00357322
0.00356069
0.00356094
0.00357363
0.00357476
0.00355928
0.00358118
0.00360033
0.00360952
0.00357327
0.0035787
0.00360445
0.00360453
0.00358752
0.00360754
0.0035884
0.0035776
0.00358118
0.00360034
0.00360951
0.00357327
0.00357368
0.00357321
0.00356094
0.00356069
0.00357476
0.00357363
0.00355928
0.00357664
0.00356125
0.00357417
0.003562
0.00357368
0.00357322
0.00356069
0.00356094
0.00357363
0.00357476
0.00355928
0.00357664
0.00356126
0.00357416
0.003562
0.00361039
0.0036104
0.00358192
0.00357724
0.00357723
0.00357412
0.00357676
0.00355952
0.00357644
0.00357527
0.00356213
0.00356213
0.00357539
0.00357538
0.00355953
0.0035764
0.0035787
0.00360446
0.00360452
0.00358753
0.00360754
0.00358841
0.0035776
0.00358118
0.00360034
0.00360951
0.00357326
0.00358117
0.00360034
0.00360952
0.00357327
0.00357368
0.00357322
0.00356069
0.00356094
0.00357362
0.00357476
0.00355928
0.00357368
0.00357322
0.00356069
0.00356094
0.00357363
0.00357476
0.00355928
0.00357664
0.00356125
0.00357417
0.003562
0.00357664
0.00356125
0.00357417
0.003562
0.00357414
0.00357676
0.00357414
0.00357676
0.00357527
0.00356213
0.00356213
0.00357538
0.00357538
0.00355953
0.00357641
0.00355951
0.00357642
0.00355276
0.00353266
0.00355275
0.00353266
0.00355494
0.00355494
0.00353338
0.00353403
0.00353402
0.00350727
0.00352623
0.00350727
0.00352623
0.00352658
0.00350835
0.00350835
0.00352757
0.00352756
0.00353457
0.00355384
0.00355521
0.0035331
0.00353315
0.00355392
0.0035487
0.00353683
0.00355271
0.00353369
0.00353656
0.00353315
0.00355392
0.0035487
0.00353683
0.00355271
0.00353369
0.00353656
0.00352804
0.00350768
0.00352673
0.00350878
0.00352804
0.00350768
0.00352673
0.00350878
0.00352662
0.00352407
0.00350815
0.00351095
0.00352724
0.00352393
0.00350761
0.00352662
0.00352407
0.00350815
0.00351095
0.00352724
0.00352393
0.00350761
0.00355494
0.00355494
0.00353338
0.00353403
0.00353403
0.00355276
0.00353267
0.00350727
0.00352623
0.00352658
0.00350835
0.00350835
0.00352757
0.00352757
0.00350727
0.00352623
0.00353315
0.00355392
0.0035487
0.00353683
0.00355271
0.00353369
0.00353656
0.00353456
0.00355383
0.0035552
0.0035331
0.00353315
0.0035487
0.00355391
0.00353683
0.00355271
0.00353656
0.00353369
0.00352804
0.00350768
0.00352672
0.00350878
0.00352662
0.00352407
0.00350815
0.00351095
0.00352724
0.00352393
0.00350761
0.00352804
0.00350768
0.00352672
0.00350878
0.00352662
0.00352407
0.00351095
0.00350815
0.00352393
0.00352724
0.00350761
0.00353457
0.00355384
0.0035552
0.0035331
0.00353315
0.0035487
0.00355392
0.00353683
0.00355271
0.00353656
0.00353369
0.00353457
0.00355384
0.0035552
0.0035331
0.00352662
0.00352407
0.00350815
0.00351095
0.00352724
0.00352393
0.00350761
0.00352804
0.00350768
0.00352673
0.00350878
0.00352662
0.00352407
0.00351095
0.00350815
0.00352393
0.00352724
0.00350761
0.00352804
0.00350768
0.00352672
0.00350878
0.00355493
0.00355494
0.00353338
0.00353402
0.00353403
0.00355275
0.00353266
0.00350727
0.00352623
0.00352658
0.00350835
0.00350835
0.00352756
0.00352756
0.00350727
0.00352623
0.00353315
0.0035487
0.00355392
0.00353683
0.00355271
0.00353656
0.00353369
0.00353457
0.00355384
0.0035552
0.0035331
0.00353457
0.00355384
0.0035552
0.0035331
0.00352662
0.00352407
0.00351095
0.00350815
0.00352393
0.00352724
0.00350761
0.00352662
0.00352407
0.00351095
0.00350815
0.00352393
0.00352724
0.00350761
0.00352804
0.00350768
0.00352673
0.00350878
0.00352804
0.00350768
0.00352673
0.00350878
0.00355275
0.00353266
0.00355274
0.00353266
0.00352658
0.00350835
0.00350835
0.00352756
0.00352757
0.00350727
0.00352623
0.00350727
0.00352623
0.00350074
0.003481
0.00350074
0.003481
0.00350175
0.00350175
0.0034814
0.00348183
0.00348183
0.00345477
0.00347437
0.00345477
0.00347437
0.00347445
0.00345545
0.00345545
0.00347517
0.00347517
0.00348231
0.00350111
0.00350218
0.00348128
0.00348141
0.00350151
0.00349782
0.00348478
0.00350095
0.00348177
0.00348469
0.00348141
0.00350151
0.00349782
0.00348478
0.00350095
0.00348177
0.00348469
0.00347563
0.00345499
0.00347464
0.00345589
0.00347563
0.00345499
0.00347464
0.00345589
0.00347469
0.00347167
0.00345547
0.00345853
0.00347506
0.00347159
0.00345521
0.00347469
0.00347167
0.00345547
0.00345853
0.00347507
0.00347159
0.00345521
0.00350175
0.00350175
0.0034814
0.00348183
0.00348183
0.00350075
0.003481
0.00345477
0.00347437
0.00347445
0.00345545
0.00345545
0.00347517
0.00347517
0.00345477
0.00347437
0.00348141
0.00350151
0.00349782
0.00348478
0.00350095
0.00348177
0.00348469
0.00348231
0.00350111
0.00350218
0.00348128
0.00348141
0.00349782
0.00350151
0.00348478
0.00350095
0.00348469
0.00348177
0.00347563
0.00345499
0.00347464
0.00345589
0.00347469
0.00347167
0.00345547
0.00345853
0.00347507
0.00347159
0.00345521
0.00347563
0.00345499
0.00347464
0.00345589
0.00347469
0.00347167
0.00345853
0.00345547
0.00347159
0.00347506
0.00345521
0.00348231
0.00350111
0.00350218
0.00348128
0.00348141
0.00349782
0.00350151
0.00348478
0.00350095
0.00348469
0.00348177
0.00348231
0.00350111
0.00350218
0.00348128
0.00347469
0.00347166
0.00345547
0.00345853
0.00347506
0.00347158
0.00345521
0.00347563
0.00345499
0.00347464
0.00345589
0.00347469
0.00347167
0.00345853
0.00345547
0.00347158
0.00347507
0.00345521
0.00347563
0.00345499
0.00347464
0.00345589
0.00350175
0.00350175
0.0034814
0.00348183
0.00348183
0.00350074
0.003481
0.00345477
0.00347437
0.00347445
0.00345545
0.00345545
0.00347517
0.00347517
0.00345477
0.00347437
0.00348141
0.00349783
0.00350151
0.00348478
0.00350095
0.00348469
0.00348177
0.00348231
0.00350111
0.00350218
0.00348128
0.00348231
0.00350111
0.00350218
0.00348128
0.00347469
0.00347167
0.00345853
0.00345547
0.00347159
0.00347507
0.00345521
0.00347469
0.00347167
0.00345853
0.00345547
0.00347159
0.00347507
0.00345521
0.00347563
0.00345499
0.00347464
0.00345589
0.00347563
0.00345499
0.00347464
0.00345588
0.00350074
0.003481
0.00350074
0.003481
0.00347445
0.00345545
0.00345545
0.00347517
0.00347517
0.00345477
0.00347437
0.00345477
0.00347437
0.00344823
0.00342883
0.00344823
0.00342884
0.00344888
0.00344888
0.00342932
0.0034294
0.0034294
0.00340319
0.00342236
0.00340319
0.00342236
0.00342252
0.00340368
0.00340368
0.00342291
0.00342291
0.00342978
0.00344844
0.0034493
0.00342902
0.00342928
0.00344884
0.00344553
0.00343263
0.00344856
0.00342946
0.00343259
0.00342928
0.00344885
0.00344553
0.00343263
0.00344856
0.00342946
0.00343259
0.00342327
0.00340334
0.00342253
0.003404
0.00342327
0.00340335
0.00342253
0.003404
0.00342269
0.00341975
0.00340376
0.00340692
0.0034229
0.00341972
0.00340363
0.00342269
0.00341976
0.00340376
0.00340692
0.00342291
0.00341972
0.00340362
0.00344888
0.00344888
0.00342932
0.0034294
0.0034294
0.00344823
0.00342883
0.00340319
0.00342236
0.00342252
0.00340368
0.00340368
0.00342291
0.00342291
0.00340319
0.00342236
0.00342927
0.00344884
0.00344553
0.00343263
0.00344856
0.00342946
0.00343259
0.00342978
0.00344844
0.0034493
0.00342901
0.00342927
0.00344553
0.00344884
0.00343264
0.00344856
0.00343259
0.00342946
0.00342327
0.00340334
0.00342253
0.003404
0.00342269
0.00341975
0.00340376
0.00340692
0.0034229
0.00341972
0.00340362
0.00342327
0.00340334
0.00342253
0.003404
0.00342269
0.00341975
0.00340692
0.00340376
0.00341972
0.0034229
0.00340362
0.00342978
0.00344844
0.0034493
0.00342901
0.00342927
0.00344553
0.00344884
0.00343263
0.00344856
0.00343259
0.00342946
0.00342978
0.00344844
0.0034493
0.00342901
0.00342269
0.00341976
0.00340376
0.00340692
0.00342291
0.00341972
0.00340362
0.00342327
0.00340334
0.00342253
0.003404
0.00342269
0.00341976
0.00340692
0.00340376
0.00341972
0.00342291
0.00340362
0.00342327
0.00340334
0.00342253
0.003404
0.00344888
0.00344888
0.00342932
0.0034294
0.0034294
0.00344823
0.00342884
0.00340319
0.00342236
0.00342252
0.00340368
0.00340368
0.00342291
0.00342291
0.00340319
0.00342236
0.00342927
0.00344553
0.00344884
0.00343263
0.00344856
0.00343259
0.00342946
0.00342978
0.00344844
0.0034493
0.00342901
0.00342978
0.00344844
0.0034493
0.00342901
0.00342269
0.00341975
0.00340692
0.00340376
0.00341972
0.0034229
0.00340362
0.00342269
0.00341976
0.00340692
0.00340377
0.00341972
0.00342291
0.00340362
0.00342327
0.00340334
0.00342253
0.003404
0.00342327
0.00340334
0.00342253
0.003404
0.00344823
0.00342883
0.00344823
0.00342883
0.00342252
0.00340368
0.00340368
0.00342291
0.00342291
0.00340319
0.00342236
0.00340319
0.00342236
0.0033968
0.0033779
0.0033968
0.0033779
0.00339728
0.00339728
0.0033784
0.00337834
0.00337834
0.00335299
0.00337161
0.00335299
0.0033716
0.00337179
0.00335338
0.00335338
0.00337203
0.00337204
0.00337859
0.00339694
0.00339758
0.00337803
0.00337832
0.00339729
0.0033942
0.00338161
0.00339712
0.00337842
0.00338157
0.00337832
0.00339729
0.0033942
0.00338159
0.00339713
0.00337843
0.00338157
0.00337227
0.0033531
0.00337173
0.00335358
0.00337227
0.0033531
0.00337173
0.00335358
0.00337191
0.00336905
0.00335347
0.00335659
0.00337205
0.00336903
0.00335339
0.00337192
0.00336907
0.00335348
0.00335658
0.00337205
0.00336903
0.00335339
0.00339728
0.00339728
0.0033784
0.00337834
0.00337834
0.0033968
0.0033779
0.00335299
0.0033716
0.0033718
0.00335339
0.00335339
0.00337204
0.00337204
0.00335299
0.00337161
0.00337832
0.00339729
0.0033942
0.0033816
0.00339712
0.00337843
0.00338157
0.00337859
0.00339694
0.00339757
0.00337803
0.00337832
0.0033942
0.00339729
0.0033816
0.00339712
0.00338157
0.00337842
0.00337227
0.0033531
0.00337173
0.00335358
0.00337191
0.00336905
0.00335347
0.00335659
0.00337205
0.00336903
0.00335339
0.00337226
0.0033531
0.00337173
0.00335358
0.00337191
0.00336906
0.00335659
0.00335347
0.00336903
0.00337206
0.00335339
0.00337859
0.00339694
0.00339758
0.00337804
0.00337832
0.0033942
0.00339729
0.00338159
0.00339713
0.00338157
0.00337843
0.00337859
0.00339694
0.00339758
0.00337804
0.00337192
0.00336906
0.00335348
0.00335658
0.00337205
0.00336903
0.00335339
0.00337227
0.0033531
0.00337173
0.00335358
0.00337192
0.00336906
0.00335658
0.00335348
0.00336903
0.00337205
0.00335339
0.00337227
0.00335311
0.00337173
0.00335358
0.00339728
0.00339728
0.0033784
0.00337834
0.00337834
0.0033968
0.00337791
0.00335298
0.0033716
0.0033718
0.00335339
0.00335339
0.00337204
0.00337204
0.00335299
0.0033716
0.00337832
0.0033942
0.00339729
0.00338159
0.00339713
0.00338157
0.00337843
0.00337859
0.00339694
0.00339758
0.00337803
0.00337859
0.00339694
0.00339758
0.00337804
0.00337192
0.00336906
0.00335659
0.00335347
0.00336903
0.00337205
0.00335339
0.00337192
0.00336906
0.00335659
0.00335347
0.00336903
0.00337205
0.00335339
0.00337227
0.0033531
0.00337173
0.00335358
0.00337227
0.00335311
0.00337172
0.00335358
0.0033968
0.0033779
0.0033968
0.00337789
0.00337179
0.00335338
0.00335338
0.00337204
0.00337204
0.00335298
0.0033716
0.00335298
0.0033716
0.00334678
0.00332845
0.00334678
0.00332845
0.00334719
0.00334719
0.00332893
0.00332881
0.00332881
0.00330427
0.00332233
0.00330425
0.00332232
0.00332253
0.00330461
0.0033046
0.00332272
0.00332272
0.00332895
0.00334689
0.00334735
0.00332855
0.00332884
0.0033472
0.00334423
0.003332
0.00334708
0.0033289
0.00333197
0.00332883
0.0033472
0.00334423
0.003332
0.00334708
0.00332891
0.00333197
0.00332282
0.00330436
0.00332244
0.0033047
0.00332282
0.00330436
0.00332243
0.00330469
0.00332262
0.00331984
0.00330469
0.00330771
0.00332272
0.0033198
0.00330463
0.00332262
0.00331983
0.0033047
0.00330771
0.00332271
0.0033198
0.00330463
0.00334719
0.00334719
0.00332893
0.00332883
0.00332883
0.00334678