/*--------------------------------*- C++ -*----------------------------------*\
| =========                 |                                                 |
| \\      /  F ield         | OpenFOAM: The Open Source CFD Toolbox           |
|  \\    /   O peration     | Version:  v1906                                 |
|   \\  /    A nd           | Web:      www.OpenFOAM.com                      |
|    \\/     M anipulation  |                                                 |
\*---------------------------------------------------------------------------*/
FoamFile
{
    version     2.0;
    format      ascii;
    class       surfaceScalarField;
    location    "875";
    object      phi;
}
// * * * * * * * * * * * * * * * * * * * * * * * * * * * * * * * * * * * * * //

dimensions      [0 3 -1 0 0 0 0];
oriented        oriented;


internalField   nonuniform List<scalar> 
123728
(
1.16836e-07
1.2053e-07
-0.00118367
-7.44394e-08
-7.09752e-08
0.00118358
-0.00113216
-1.18805e-06
-1.25292e-07
-3.92951e-08
0.00113214
-2.07665e-07
1.22536e-06
2.36112e-07
8.8609e-07
-1.75104e-07
-8.23238e-07
2.33006e-07
-0.00113179
-1.18111e-06
-1.30378e-07
-4.62555e-08
0.00113177
-2.06004e-07
1.22131e-06
2.37734e-07
8.862e-07
-1.77536e-07
-8.229e-07
2.361e-07
-0.000270079
1.21521e-06
1.18195e-06
-1.94999e-07
-1.99467e-07
0.000268076
1.35325e-07
1.37879e-07
-0.00118331
-8.95773e-08
-8.71353e-08
0.00118321
-0.00113207
-1.18156e-06
-1.27925e-07
-5.66626e-08
0.00113205
-1.97847e-07
1.23231e-06
2.45577e-07
8.83642e-07
-1.7953e-07
-8.26614e-07
2.29712e-07
-0.00113172
-1.17606e-06
-1.27358e-07
-5.59344e-08
0.00113169
-1.98407e-07
1.22655e-06
2.44903e-07
8.84008e-07
-1.81402e-07
-8.25947e-07
2.33095e-07
-0.00027009
1.20995e-06
1.17559e-06
-1.90297e-07
-1.95615e-07
0.00026809
1.25962e-07
1.19244e-07
-0.00118291
-7.46019e-08
-8.14307e-08
0.00118282
-0.00113199
-1.1868e-06
-1.31252e-07
-4.46767e-08
0.00113197
-2.08007e-07
1.22505e-06
2.34521e-07
8.86956e-07
-1.73221e-07
-8.21522e-07
2.34138e-07
-0.00113162
-1.1832e-06
-1.28253e-07
-3.80416e-08
0.0011316
-2.09389e-07
1.21796e-06
2.3349e-07
8.86387e-07
-1.76368e-07
-8.21634e-07
2.3611e-07
-0.0002701
1.21762e-06
1.18251e-06
-1.95517e-07
-2.014e-07
0.000268096
1.32725e-07
1.39351e-07
-0.00118258
-9.27786e-08
-8.83389e-08
0.00118249
-0.00113195
-1.18032e-06
-1.28657e-07
-6.35807e-08
0.00113194
-1.94685e-07
1.234e-06
2.49566e-07
8.79869e-07
-1.8378e-07
-8.30256e-07
2.25148e-07
-0.00113158
-1.17208e-06
-1.30867e-07
-7.18027e-08
0.00113158
-1.91971e-07
1.231e-06
2.51792e-07
8.7959e-07
-1.86782e-07
-8.305e-07
2.27882e-07
-0.000270113
1.20853e-06
1.17498e-06
-1.91168e-07
-1.95862e-07
0.000268117
1.46157e-07
1.41997e-07
-0.00118216
-9.1311e-08
-9.38266e-08
0.00118206
-0.00113188
-1.18474e-06
-1.49791e-07
-4.34971e-08
0.00113185
-2.083e-07
1.22434e-06
2.30448e-07
8.949e-07
-1.64704e-07
-8.1387e-07
2.43586e-07
-0.00113152
-1.18235e-06
-1.46904e-07
-3.49844e-08
0.00113149
-2.11903e-07
1.21568e-06
2.27585e-07
8.94763e-07
-1.67021e-07
-8.13494e-07
2.46106e-07
-0.000270141
1.21297e-06
1.17814e-06
-1.9053e-07
-1.96255e-07
0.000268137
8.41346e-08
8.78523e-08
-0.00118184
-5.93885e-08
-5.62564e-08
0.00118178
-0.00113179
-1.19358e-06
-9.00998e-08
-2.94144e-08
0.00113179
-2.11477e-07
1.22159e-06
2.35819e-07
8.71597e-07
-1.88889e-07
-8.3616e-07
2.16752e-07
-0.00113143
-1.18543e-06
-9.65489e-08
-3.9715e-08
0.00113144
-2.07561e-07
1.21931e-06
2.40402e-07
8.71623e-07
-1.9189e-07
-8.36031e-07
2.19321e-07
-0.000270123
1.22118e-06
1.18816e-06
-2.02464e-07
-2.06744e-07
0.000268123
1.68548e-07
1.71638e-07
-0.00118155
-1.18722e-07
-1.17133e-07
0.00118145
-0.00113185
-1.17155e-06
-1.61044e-07
-9.23796e-08
0.00113186
-1.89234e-07
1.23981e-06
2.51601e-07
8.85056e-07
-1.81176e-07
-8.26279e-07
2.29627e-07
-0.00113149
-1.16654e-06
-1.57308e-07
-8.82156e-08
0.0011315
-1.90622e-07
1.23307e-06
2.49633e-07
8.85512e-07
-1.82285e-07
-8.25417e-07
2.3365e-07
-0.000270185
1.20336e-06
1.16815e-06
-1.87048e-07
-1.92998e-07
0.000268193
1.46831e-07
1.30754e-07
-0.00118113
-8.75602e-08
-1.02647e-07
0.00118104
-0.00113182
-1.18889e-06
-1.33641e-07
-3.40901e-08
0.00113179
-2.10823e-07
1.22135e-06
2.30239e-07
8.91801e-07
-1.65254e-07
-8.16775e-07
2.42017e-07
-0.00113144
-1.18795e-06
-1.24409e-07
-1.84692e-08
0.0011314
-2.14646e-07
1.21212e-06
2.27589e-07
8.89861e-07
-1.70444e-07
-8.18134e-07
2.41653e-07
-0.000270219
1.2178e-06
1.18169e-06
-1.93114e-07
-1.99844e-07
0.000268213
6.09572e-08
8.44853e-08
-0.00118083
-5.04276e-08
-2.93483e-08
0.00118076
-0.00113167
-1.19469e-06
-9.51233e-08
-2.13903e-08
0.00113167
-2.12932e-07
1.21932e-06
2.32799e-07
8.75356e-07
-1.84522e-07
-8.32233e-07
2.20731e-07
-0.00113132
-1.18008e-06
-1.13634e-07
-5.73534e-08
0.00113133
-2.01294e-07
1.22358e-06
2.44888e-07
8.75721e-07
-1.87622e-07
-8.32383e-07
2.24108e-07
-0.000270174
1.21978e-06
1.18923e-06
-2.02609e-07
-2.05226e-07
0.000268173
1.61171e-07
1.53086e-07
-0.00118051
-1.08332e-07
-1.13607e-07
0.00118042
-0.0011317
-1.17704e-06
-1.50186e-07
-7.42948e-08
0.00113172
-1.97028e-07
1.23349e-06
2.4243e-07
8.84018e-07
-1.81207e-07
-8.26936e-07
2.28877e-07
-0.00113136
-1.17859e-06
-1.41276e-07
-4.67947e-08
0.00113136
-2.05872e-07
1.21991e-06
2.32778e-07
8.86534e-07
-1.79727e-07
-8.23517e-07
2.34787e-07
-0.000270232
1.20696e-06
1.17116e-06
-1.89383e-07
-1.95375e-07
0.000268238
1.37907e-07
1.19955e-07
-0.00118022
-9.21188e-08
-1.12347e-07
0.00118017
-0.00113177
-1.18558e-06
-1.09186e-07
-6.08288e-08
0.00113178
-2.01866e-07
1.2293e-06
2.4566e-07
8.73996e-07
-1.87311e-07
-8.34977e-07
2.20087e-07
-0.00113138
-1.18178e-06
-9.54318e-08
-5.24249e-08
0.00113138
-2.01474e-07
1.22395e-06
2.48365e-07
8.68551e-07
-1.95998e-07
-8.39538e-07
2.15887e-07
-0.000270281
1.21953e-06
1.18159e-06
-1.97241e-07
-2.05841e-07
0.000268283
1.28536e-07
1.56037e-07
-0.00117986
-9.40406e-08
-6.51627e-08
0.00117973
-0.00113168
-1.18629e-06
-1.4174e-07
-2.44545e-08
0.00113162
-2.14912e-07
1.21666e-06
2.13979e-07
9.03576e-07
-1.54858e-07
-8.07677e-07
2.54799e-07
-0.00113134
-1.16923e-06
-1.75047e-07
-7.68364e-08
0.0011313
-1.98952e-07
1.22427e-06
2.30693e-07
9.05189e-07
-1.58099e-07
-8.07172e-07
2.59227e-07
-0.000270288
1.21071e-06
1.18268e-06
-1.90925e-07
-1.91236e-07
0.000268277
5.43081e-09
3.01862e-09
-0.0011796
-4.13623e-10
-9.63753e-09
0.00117961
-0.00113161
-1.20301e-06
-6.96355e-08
-2.37486e-08
0.00113167
-2.09243e-07
1.2217e-06
2.53017e-07
8.50218e-07
-2.12211e-07
-8.56325e-07
1.89679e-07
-0.00113127
-1.21233e-06
-3.80584e-08
4.27562e-08
0.00113129
-2.35754e-07
1.19568e-06
2.1811e-07
8.56062e-07
-2.0485e-07
-8.49219e-07
2.01709e-07
-0.000270244
1.23061e-06
1.19304e-06
-2.12657e-07
-2.20004e-07
0.000268253
2.85935e-07
2.48098e-07
-0.00117938
-1.81255e-07
-2.13026e-07
0.00117924
-0.00113179
-1.15833e-06
-1.86121e-07
-1.22848e-07
0.0011318
-1.84166e-07
1.24465e-06
2.42506e-07
8.97569e-07
-1.6747e-07
-8.15822e-07
2.45804e-07
-0.00113137
-1.14743e-06
-1.84826e-07
-1.47437e-07
0.0011314
-1.68763e-07
1.2517e-06
2.69452e-07
8.83703e-07
-1.88561e-07
-8.29876e-07
2.30585e-07
-0.000270391
1.19298e-06
1.15627e-06
-1.76e-07
-1.83955e-07
0.000268401
-8.31089e-09
5.88324e-08
-0.00117897
-4.35617e-08
2.02518e-08
0.00117894
-0.00113168
-1.21658e-06
-5.33635e-08
4.2225e-08
0.00113165
-2.32883e-07
1.20074e-06
2.17197e-07
8.74393e-07
-1.82227e-07
-8.31679e-07
2.20338e-07
-0.00113142
-1.19838e-06
-1.15155e-07
-1.2164e-08
0.00113139
-2.31016e-07
1.19939e-06
2.09438e-07
8.95171e-07
-1.58123e-07
-8.11229e-07
2.49641e-07
-0.000270375
1.23372e-06
1.21134e-06
-2.16227e-07
-2.10777e-07
0.000268357
2.02152e-07
1.39567e-07
-0.00117881
-8.61747e-08
-1.49907e-07
0.0011787
-0.00113164
-1.15884e-06
-1.56233e-07
-1.38233e-07
0.00113164
-1.70152e-07
1.25384e-06
2.70804e-07
8.80818e-07
-1.81091e-07
-8.30917e-07
2.29036e-07
-0.00113119
-1.18351e-06
-4.0984e-08
-9.81414e-09
0.00113114
-1.99921e-07
1.22212e-06
2.47242e-07
8.61414e-07
-2.00813e-07
-8.46073e-07
2.08915e-07
-0.000270328
1.21238e-06
1.15546e-06
-1.73835e-07
-1.98709e-07
0.000268332
1.94859e-08
3.63168e-08
-0.0011783
9.07795e-09
2.57203e-08
0.00117821
-0.00113153
-1.21949e-06
-1.03203e-07
6.86877e-08
0.00113148
-2.58007e-07
1.18132e-06
1.69933e-07
9.03735e-07
-1.45118e-07
-8.00446e-07
2.51818e-07
-0.00113107
-1.18907e-06
-1.64885e-07
-3.77859e-08
0.00113111
-2.23005e-07
1.20246e-06
2.03761e-07
8.96791e-07
-1.64268e-07
-8.11768e-07
2.45487e-07
-0.000270345
1.23154e-06
1.21195e-06
-2.15759e-07
-2.10288e-07
0.000268328
-1.4182e-07
-1.2315e-07
-0.00117863
8.93703e-09
3.53226e-08
0.00117885
-0.00113171
-1.24614e-06
1.62141e-07
2.69005e-08
0.00113202
-2.47676e-07
1.20124e-06
2.53401e-07
7.36793e-07
-3.11228e-07
-9.50266e-07
5.61448e-08
-0.00113158
-1.25219e-06
9.18453e-08
5.76705e-08
0.00113189
-2.75117e-07
1.17451e-06
2.10656e-07
7.73711e-07
-2.7623e-07
-9.13448e-07
9.94259e-08
-0.000270346
1.25464e-06
1.24094e-06
-2.80995e-07
-2.66392e-07
0.000268398
7.34284e-07
7.08627e-07
-0.00117866
-5.16705e-07
-5.43039e-07
0.00117828
-0.00113259
-1.03897e-06
-5.07812e-07
-4.28562e-07
0.00113254
-3.92426e-08
1.34747e-06
3.61541e-07
9.55582e-07
-1.24336e-07
-7.56434e-07
2.84143e-07
-0.00113229
-1.02562e-06
-4.03441e-07
-4.14627e-07
0.0011322
-2.26446e-08
1.35318e-06
3.8583e-07
9.15237e-07
-1.54682e-07
-7.8963e-07
2.52564e-07
-0.000270912
1.1004e-06
1.02839e-06
-5.60152e-08
-8.99157e-08
0.000268929
8.63671e-07
9.27804e-07
-0.00117671
-6.81565e-07
-6.28656e-07
0.00117623
-0.00113181
-1.17588e-06
-1.05108e-06
-1.0629e-07
0.00113173
-2.44983e-07
1.27711e-06
1.97534e-07
1.14445e-06
1.25296e-07
-5.60592e-07
4.78409e-07
-0.00113135
-1.15054e-06
-1.1543e-06
-1.57851e-07
0.00113123
-2.44456e-07
1.2734e-06
1.86181e-07
1.18897e-06
1.60852e-07
-5.12798e-07
5.28086e-07
-0.000270626
1.18999e-06
1.15401e-06
-9.36489e-08
-9.03589e-08
0.000268466
5.35634e-06
5.28307e-06
-0.00116342
-1.11343e-05
-1.13802e-05
0.00028357
0.000285188
0.000285222
0.000285219
4.41611e-06
6.64969e-06
7.0896e-06
4.35046e-06
6.57519e-06
7.0134e-06
-0.000280328
5.42857e-06
-5.39688e-06
5.86322e-06
-3.42991e-06
0.000277863
-0.000280142
-5.31735e-06
5.32596e-06
-3.32924e-06
5.78456e-06
0.000277678
-0.000270503
-5.28197e-06
-5.34286e-06
5.6511e-06
5.59481e-06
0.000269882
-1.25989e-06
-1.22238e-06
0.000270095
-0.000268082
2.30633e-07
2.38882e-07
0.00113132
-1.22631e-07
-0.00113134
-3.73725e-08
-1.22223e-06
2.41541e-07
-2.13182e-07
-8.2346e-07
2.32605e-07
-1.755e-07
8.85741e-07
1.26739e-06
0.00113177
-1.29278e-07
-0.00113179
-4.91567e-08
-1.22537e-06
2.45651e-07
-2.13886e-07
-8.27986e-07
2.37156e-07
-1.76872e-07
8.92628e-07
-1.22689e-06
0.000270129
-0.000268107
2.34814e-07
2.37645e-07
0.00113242
-1.24007e-07
-0.00113245
-3.51347e-08
-1.18564e-06
2.38381e-07
-2.10952e-07
-8.26057e-07
2.35559e-07
-1.7825e-07
8.88921e-07
1.26346e-06
0.00113142
-1.30249e-07
-0.00113144
-5.43383e-08
-1.21841e-06
2.47477e-07
-2.11923e-07
-8.25993e-07
2.36304e-07
-1.77952e-07
8.89078e-07
-1.31114e-07
-0.00113218
-4.59587e-08
-1.18604e-06
2.36723e-07
-2.0621e-07
-8.22031e-07
2.34778e-07
8.87693e-07
-1.73918e-07
1.25624e-06
0.00113121
-1.25884e-07
-0.00113124
-4.41231e-08
-1.2149e-06
2.40596e-07
-2.08237e-07
-8.23325e-07
2.3298e-07
-1.75593e-07
8.86212e-07
-1.2225e-06
0.000270077
-0.000268065
2.32875e-07
2.41407e-07
-1.34325e-07
-0.00113181
-5.0647e-08
-1.17953e-06
2.3831e-07
-2.04585e-07
-8.22148e-07
2.37207e-07
8.87472e-07
-1.77137e-07
1.22123e-06
0.00113232
-1.28654e-07
-0.00113234
-4.09204e-08
-1.18137e-06
2.37284e-07
-2.06307e-07
-8.22921e-07
2.36262e-07
-1.77923e-07
8.86967e-07
-0.000268076
2.34476e-07
2.40451e-07
1.22221e-06
1.18618e-06
-1.93786e-07
-2.00812e-07
0.000268081
-1.26745e-06
-1.22971e-06
0.000270107
-0.000268091
2.36211e-07
2.44685e-07
-3.88794e-08
0.00113129
-2.1219e-07
1.26042e-06
2.43022e-07
8.83597e-07
-1.7754e-07
-8.25449e-07
2.30372e-07
-1.22692e-06
-1.21447e-07
-4.40396e-08
0.00113175
-2.14936e-07
1.26624e-06
2.45329e-07
8.90693e-07
-1.78497e-07
-8.29643e-07
2.3498e-07
0.00113124
-1.2589e-07
-0.00113125
-6.34212e-08
-1.21508e-06
2.52311e-07
-2.02195e-07
-8.27666e-07
2.2875e-07
-1.80376e-07
8.82543e-07
1.26959e-06
0.00113168
-1.20317e-07
-0.0011317
-4.70066e-08
-1.22423e-06
2.51546e-07
-2.0937e-07
-8.33344e-07
2.30716e-07
-1.83371e-07
8.87614e-07
-1.95728e-07
-1.9731e-07
0.000268107
-1.23009e-06
0.000270134
-0.00026811
2.3711e-07
2.39238e-07
-3.43724e-08
0.0011324
-2.10484e-07
1.22237e-06
2.39377e-07
8.87313e-07
-1.79842e-07
-8.27513e-07
2.33782e-07
-1.21975e-06
-1.25151e-07
-5.08478e-08
0.0011314
-2.13196e-07
1.2623e-06
2.46871e-07
8.87903e-07
-1.78668e-07
-8.26946e-07
2.35039e-07
0.00113234
-1.30737e-07
-0.00113236
-5.97139e-08
-1.17909e-06
2.49108e-07
-2.0038e-07
-8.29381e-07
2.32436e-07
-1.822e-07
8.8624e-07
1.26377e-06
0.00113135
-1.25318e-07
-0.00113137
-4.84645e-08
-1.2188e-06
2.50872e-07
-2.09663e-07
-8.28965e-07
2.32552e-07
-1.81593e-07
8.8636e-07
-1.21992e-07
-4.49099e-08
0.00113119
-2.08085e-07
1.25612e-06
2.41114e-07
8.84853e-07
-1.76496e-07
2.31728e-07
-8.24464e-07
-1.21252e-07
-0.00113209
-4.86287e-08
-1.18433e-06
2.43773e-07
-2.00925e-07
-8.27591e-07
2.28187e-07
8.82078e-07
-1.80317e-07
1.26011e-06
0.00113114
-1.24566e-07
-0.00113115
-5.73989e-08
-1.21153e-06
2.47438e-07
-2.02022e-07
-8.27177e-07
2.28892e-07
-1.79739e-07
8.82619e-07
-1.92326e-07
-1.98598e-07
0.000268067
-1.2251e-06
0.000270086
-0.000268074
2.35275e-07
2.41564e-07
-1.25984e-07
-3.99912e-08
0.0011323
-2.06407e-07
1.22089e-06
2.37607e-07
8.857e-07
-1.78644e-07
2.35153e-07
-8.23893e-07
-1.22903e-07
-0.00113174
-5.13589e-08
-1.17808e-06
2.43771e-07
-2.00562e-07
-8.26802e-07
2.31766e-07
8.82641e-07
-1.82116e-07
1.2257e-06
0.00113224
-1.26794e-07
-0.00113226
-5.52744e-08
-1.17765e-06
2.44743e-07
-1.99704e-07
-8.26982e-07
2.31944e-07
-1.82178e-07
8.83029e-07
-0.000268084
2.3766e-07
2.4306e-07
1.21373e-06
1.17702e-06
-1.86685e-07
-1.94073e-07
0.000268097
-1.25825e-06
-1.22332e-06
0.000270117
-0.000268104
2.31331e-07
2.37334e-07
-6.64075e-08
0.00113122
-2.01672e-07
1.26797e-06
2.51705e-07
8.85548e-07
-1.77851e-07
-8.25022e-07
2.31754e-07
-1.22207e-06
-1.29489e-07
-5.27049e-08
0.00113166
-2.06857e-07
1.27124e-06
2.52865e-07
8.89733e-07
-1.82114e-07
-8.31737e-07
2.32689e-07
0.00113116
-1.36546e-07
-0.00113118
-3.74086e-08
-1.22182e-06
2.38271e-07
-2.14608e-07
-8.19313e-07
2.36451e-07
-1.71208e-07
8.89402e-07
1.26794e-06
0.0011316
-1.40338e-07
-0.00113162
-5.33935e-08
-1.22339e-06
2.45321e-07
-2.12477e-07
-8.25417e-07
2.39348e-07
-1.74665e-07
8.94882e-07
-1.90977e-07
-1.93728e-07
0.000268115
-1.22834e-06
0.000270147
-0.000268124
2.36056e-07
2.38072e-07
-6.55862e-08
0.00113233
-1.99137e-07
1.23105e-06
2.49288e-07
8.88611e-07
-1.80052e-07
-8.27337e-07
2.34989e-07
-1.21728e-06
-1.3232e-07
-5.1304e-08
0.00113132
-2.07905e-07
1.26493e-06
2.51801e-07
8.88207e-07
-1.80292e-07
-8.27401e-07
2.34326e-07
0.00113226
-1.29872e-07
-0.00113229
-4.48994e-08
-1.18297e-06
2.37521e-07
-2.10176e-07
-8.23689e-07
2.37863e-07
-1.75302e-07
8.9059e-07
1.2615e-06
0.00113125
-1.32205e-07
-0.00113127
-4.6654e-08
-1.219e-06
2.44351e-07
-2.13827e-07
-8.23802e-07
2.37727e-07
-1.75643e-07
8.9041e-07
-1.31772e-07
-6.04138e-08
0.00113112
-2.00332e-07
1.26119e-06
2.48098e-07
8.84552e-07
-1.78474e-07
2.30761e-07
-8.25754e-07
-1.3887e-07
-0.00113201
-5.32056e-08
-1.18322e-06
2.37224e-07
-2.03996e-07
-8.20213e-07
2.36375e-07
8.89183e-07
-1.7224e-07
1.25493e-06
0.00113105
-1.37622e-07
-0.00113107
-4.33465e-08
-1.21418e-06
2.37495e-07
-2.09165e-07
-8.19696e-07
2.36647e-07
-1.71576e-07
8.89488e-07
-1.87985e-07
-1.96706e-07
0.000268077
-1.22057e-06
0.000270092
-0.000268081
2.31385e-07
2.40122e-07
-1.32311e-07
-6.07949e-08
0.00113222
-1.97555e-07
1.22726e-06
2.45857e-07
8.84723e-07
-1.81176e-07
2.33548e-07
-8.25789e-07
-1.35267e-07
-0.00113164
-4.48388e-08
-1.17986e-06
2.35245e-07
-2.0628e-07
-8.19982e-07
2.38813e-07
8.89048e-07
-1.74856e-07
1.22174e-06
0.00113216
-1.34417e-07
-0.00113218
-4.87228e-08
-1.17896e-06
2.35909e-07
-2.05599e-07
-8.20248e-07
2.39001e-07
-1.74776e-07
8.89176e-07
-0.000268097
2.34896e-07
2.39438e-07
1.22484e-06
1.18608e-06
-1.93794e-07
-2.0312e-07
0.000268103
-1.26638e-06
-1.22804e-06
0.000270133
-0.000268115
2.33635e-07
2.42758e-07
-2.96887e-08
0.00113114
-2.16632e-07
1.25624e-06
2.37532e-07
8.85806e-07
-1.74117e-07
-8.22202e-07
2.32649e-07
-1.22656e-06
-1.31044e-07
-4.64677e-08
0.00113159
-2.16077e-07
1.26504e-06
2.42979e-07
8.92269e-07
-1.75927e-07
-8.27204e-07
2.36824e-07
0.00113111
-1.20299e-07
-0.00113112
-5.92536e-08
-1.21697e-06
2.53172e-07
-2.03166e-07
-8.31333e-07
2.23208e-07
-1.84537e-07
8.77794e-07
1.26876e-06
0.00113156
-1.18764e-07
-0.00113157
-4.8519e-08
-1.2253e-06
2.52068e-07
-2.10087e-07
-8.36184e-07
2.26545e-07
-1.8645e-07
8.83903e-07
-1.94908e-07
-1.9733e-07
0.000268126
-1.22937e-06
0.000270164
-0.000268138
2.35216e-07
2.37298e-07
-3.68702e-08
0.00113224
-2.12373e-07
1.22096e-06
2.36413e-07
8.87398e-07
-1.78268e-07
-8.26418e-07
2.34203e-07
-1.22163e-06
-1.22495e-07
-4.14171e-08
0.00113123
-2.16461e-07
1.2592e-06
2.42779e-07
8.87419e-07
-1.77953e-07
-8.26283e-07
2.3457e-07
0.00113222
-1.2366e-07
-0.00113222
-5.50674e-08
-1.18107e-06
2.49254e-07
-2.01625e-07
-8.33248e-07
2.26778e-07
-1.86768e-07
8.81695e-07
1.26427e-06
0.00113121
-1.23778e-07
-0.00113122
-5.38509e-08
-1.21877e-06
2.53792e-07
-2.08135e-07
-8.33132e-07
2.26808e-07
-1.8654e-07
8.81648e-07
-1.28328e-07
-3.47957e-08
0.00113103
-2.12602e-07
1.25204e-06
2.35439e-07
8.86785e-07
-1.73232e-07
2.33795e-07
-8.21481e-07
-1.18012e-07
-0.00113196
-5.16019e-08
-1.18517e-06
2.44362e-07
-2.01466e-07
-8.30756e-07
2.23745e-07
8.78103e-07
-1.83725e-07
1.25842e-06
0.001131
-1.16854e-07
-0.00113101
-5.13028e-08
-1.21386e-06
2.47591e-07
-2.03653e-07
-8.31265e-07
2.22955e-07
-1.84351e-07
8.77515e-07
-1.94193e-07
-2.00087e-07
0.000268081
-1.2262e-06
0.000270112
-0.000268096
2.34775e-07
2.40387e-07
-1.25158e-07
-3.9566e-08
0.00113214
-2.09157e-07
1.21867e-06
2.33675e-07
8.86455e-07
-1.76434e-07
2.36169e-07
-8.22072e-07
-1.19448e-07
-0.00113159
-5.8404e-08
-1.17765e-06
2.47287e-07
-1.98567e-07
-8.31399e-07
2.25571e-07
8.77218e-07
-1.87349e-07
1.22371e-06
0.00113211
-1.18009e-07
-0.00113211
-4.90792e-08
-1.18e-06
2.44546e-07
-2.01439e-07
-8.31209e-07
2.25944e-07
-1.86989e-07
8.77948e-07
-0.000268106
2.34761e-07
2.40455e-07
1.21158e-06
1.17638e-06
-1.87448e-07
-1.93543e-07
0.000268126
-1.26484e-06
-1.22854e-06
0.000270159
-0.000268147
2.37293e-07
2.44337e-07
-7.36988e-08
0.00113111
-1.97269e-07
1.27089e-06
2.57065e-07
8.80614e-07
-1.83412e-07
-8.29685e-07
2.25904e-07
-1.22067e-06
-1.30271e-07
-5.94239e-08
0.00113155
-2.03528e-07
1.27324e-06
2.57122e-07
8.85844e-07
-1.86307e-07
-8.35365e-07
2.28088e-07
0.00113105
-1.5739e-07
-0.00113107
-6.08879e-08
-1.21319e-06
2.44189e-07
-2.04795e-07
-8.1548e-07
2.42245e-07
-1.67314e-07
8.94458e-07
1.27227e-06
0.00113149
-1.57534e-07
-0.00113152
-6.54455e-08
-1.21738e-06
2.49362e-07
-2.0544e-07
-8.21597e-07
2.44449e-07
-1.70829e-07
8.9964e-07
-1.91223e-07
-1.93808e-07
0.000268148
-1.23178e-06
0.000270187
-0.000268167
2.40507e-07
2.43328e-07
-6.70055e-08
0.00113221
-1.9627e-07
1.23205e-06
2.52807e-07
8.85073e-07
-1.84907e-07
-8.30914e-07
2.30148e-07
-1.21409e-06
-1.39016e-07
-6.56229e-08
0.00113121
-2.02167e-07
1.2685e-06
2.57978e-07
8.8502e-07
-1.84877e-07
-8.30847e-07
2.30031e-07
0.00113215
-1.58012e-07
-0.00113218
-6.18137e-08
-1.17606e-06
2.42367e-07
-2.01805e-07
-8.18292e-07
2.44781e-07
-1.7002e-07
8.96738e-07
1.26512e-06
0.00113115
-1.55512e-07
-0.00113118
-6.04863e-08
-1.21334e-06
2.46565e-07
-2.08035e-07
-8.18154e-07
2.44826e-07
-1.69856e-07
8.96704e-07
-1.28445e-07
-6.57491e-08
0.001131
-1.96543e-07
1.26337e-06
2.52858e-07
8.79448e-07
-1.8435e-07
2.24565e-07
-8.30657e-07
-1.59932e-07
-0.00113191
-6.23415e-08
-1.17809e-06
2.40482e-07
-1.97736e-07
-8.15642e-07
2.42169e-07
8.9467e-07
-1.6775e-07
1.26087e-06
0.00113094
-1.59385e-07
-0.00113097
-6.56723e-08
-1.2067e-06
2.43407e-07
-2.00379e-07
-8.16004e-07
2.416e-07
-1.68122e-07
8.94192e-07
-1.86142e-07
-1.95777e-07
0.000268107
-1.22392e-06
0.000270135
-0.000268126
2.3566e-07
2.44566e-07
-1.30987e-07
-6.20098e-08
0.0011321
-1.94616e-07
1.22841e-06
2.49593e-07
8.80194e-07
-1.86739e-07
2.27779e-07
-8.30255e-07
-1.58449e-07
-0.00113154
-5.72205e-08
-1.17426e-06
2.37006e-07
-2.00682e-07
-8.14809e-07
2.45589e-07
8.95177e-07
-1.69587e-07
1.22695e-06
0.00113205
-1.59868e-07
-0.00113207
-6.61429e-08
-1.17238e-06
2.41171e-07
-1.97631e-07
-8.16116e-07
2.4427e-07
-1.70903e-07
8.94192e-07
-0.000268139
2.4047e-07
2.45453e-07
1.22044e-06
1.18203e-06
-1.88739e-07
-1.97814e-07
0.000268143
-1.25067e-06
-1.21357e-06
0.000270133
-0.00026812
2.21704e-07
2.2965e-07
-4.05352e-08
0.00113102
-2.15025e-07
1.25734e-06
2.35265e-07
8.94058e-07
-1.64858e-07
-8.14364e-07
2.43027e-07
-1.22358e-06
-1.45678e-07
-4.94159e-08
0.00113146
-2.15539e-07
1.26522e-06
2.39745e-07
8.99563e-07
-1.68034e-07
-8.20182e-07
2.45711e-07
0.00113095
-8.83429e-08
-0.00113096
-1.458e-08
-1.23121e-06
2.32201e-07
-2.22478e-07
-8.30239e-07
2.23577e-07
-1.81808e-07
8.77093e-07
1.257e-06
0.0011314
-8.7534e-08
-0.00113141
-1.92553e-08
-1.23618e-06
2.3612e-07
-2.24725e-07
-8.36209e-07
2.25732e-07
-1.85216e-07
8.82281e-07
-1.91333e-07
-1.93016e-07
0.000268163
-1.21645e-06
0.000270164
-0.000268143
2.24577e-07
2.27435e-07
-4.59694e-08
0.00113213
-2.1093e-07
1.22221e-06
2.34397e-07
8.95232e-07
-1.68675e-07
-8.18537e-07
2.44568e-07
-1.2198e-06
-1.37572e-07
-4.23136e-08
0.00113112
-2.17901e-07
1.25836e-06
2.38285e-07
8.94551e-07
-1.689e-07
-8.1881e-07
2.43889e-07
0.00113205
-8.6532e-08
-0.00113207
-1.49336e-08
-1.19395e-06
2.2932e-07
-2.19729e-07
-8.33346e-07
2.26079e-07
-1.85133e-07
8.79887e-07
1.25342e-06
0.00113105
-8.5671e-08
-0.00113106
-2.4668e-08
-1.22908e-06
2.38774e-07
-2.22567e-07
-8.35296e-07
2.23916e-07
-1.87213e-07
8.77767e-07
-1.50056e-07
-4.86532e-08
0.00113092
-2.10091e-07
1.254e-06
2.34446e-07
8.94279e-07
-1.65239e-07
2.4294e-07
-8.14348e-07
-9.09652e-08
-0.0011318
-1.42451e-08
-1.19715e-06
2.2724e-07
-2.17246e-07
-8.30232e-07
2.23491e-07
8.77152e-07
-1.81985e-07
1.24743e-06
0.00113086
-9.37238e-08
-0.00113087
-2.35645e-08
-1.22365e-06
2.32181e-07
-2.17145e-07
-8.29711e-07
2.24502e-07
-1.81165e-07
8.77874e-07
-1.91781e-07
-1.96881e-07
0.000268122
-1.2123e-06
0.000270114
-0.000268102
2.22828e-07
2.31269e-07
-1.48505e-07
-5.15211e-08
0.00113202
-2.06886e-07
1.22054e-06
2.32597e-07
8.93798e-07
-1.68408e-07
2.45255e-07
-8.14971e-07
-9.40308e-08
-0.00113144
-1.82343e-08
-1.1909e-06
2.29572e-07
-2.1573e-07
-8.30612e-07
2.25418e-07
8.76584e-07
-1.85489e-07
1.21254e-06
0.00113197
-9.52416e-08
-0.00113198
-2.18355e-08
-1.18982e-06
2.28952e-07
-2.14977e-07
-8.29556e-07
2.27673e-07
-1.83739e-07
8.78543e-07
-0.00026812
2.25809e-07
2.31718e-07
1.22852e-06
1.19263e-06
-2.01845e-07
-2.08799e-07
0.000268123
-1.27511e-06
-1.23664e-06
0.000270206
-0.00026818
2.38398e-07
2.47543e-07
-2.66085e-08
0.00113095
-2.18585e-07
1.25478e-06
2.38665e-07
8.71093e-07
-1.89115e-07
-8.36453e-07
2.16233e-07
-1.23295e-06
-8.74126e-08
-3.19758e-08
0.0011314
-2.19314e-07
1.26181e-06
2.44339e-07
8.76691e-07
-1.92124e-07
-8.42122e-07
2.18936e-07
0.00113101
-1.43459e-07
-0.00113099
-8.95101e-08
-1.20659e-06
2.61522e-07
-1.91824e-07
-8.34509e-07
2.19827e-07
-1.90932e-07
8.76819e-07
1.27858e-06
0.00113146
-1.4931e-07
-0.00113144
-8.27174e-08
-1.21346e-06
2.61162e-07
-1.9677e-07
-8.38058e-07
2.25512e-07
-1.90884e-07
8.84679e-07
-2.03349e-07
-2.05231e-07
0.000268146
-1.24042e-06
0.000270238
-0.000268205
2.42223e-07
2.43275e-07
-2.11809e-08
0.00113206
-2.17117e-07
1.2163e-06
2.34523e-07
8.75058e-07
-1.91441e-07
-8.38447e-07
2.19809e-07
-1.22488e-06
-9.36282e-08
-4.27537e-08
0.00113106
-2.15578e-07
1.25903e-06
2.48344e-07
8.74198e-07
-1.92673e-07
-8.39568e-07
2.18917e-07
0.00113212
-1.52056e-07
-0.00113209
-8.33394e-08
-1.17156e-06
2.57772e-07
-1.90799e-07
-8.352e-07
2.24433e-07
-1.91668e-07
8.81352e-07
1.27188e-06
0.00113113
-1.59878e-07
-0.00113111
-8.28736e-08
-1.20869e-06
2.59262e-07
-1.9826e-07
-8.31127e-07
2.29531e-07
-1.86573e-07
8.85568e-07
-8.91688e-08
-3.27133e-08
0.00113086
-2.13387e-07
1.25099e-06
2.37786e-07
8.72532e-07
-1.87723e-07
2.18049e-07
-8.3535e-07
-1.4561e-07
-0.00113183
-9.16863e-08
-1.17233e-06
2.54687e-07
-1.87082e-07
-8.32743e-07
2.22489e-07
8.78656e-07
-1.88224e-07
1.26564e-06
0.0011309
-1.38814e-07
-0.00113088
-7.42303e-08
-1.20473e-06
2.53984e-07
-1.93581e-07
-8.33152e-07
2.21256e-07
-1.88999e-07
8.77911e-07
-1.98931e-07
-2.06e-07
0.000268108
-1.23576e-06
0.000270191
-0.000268169
2.408e-07
2.45083e-07
-9.43475e-08
-2.71725e-08
0.00113197
-2.11966e-07
1.21532e-06
2.33863e-07
8.7402e-07
-1.89647e-07
2.21879e-07
-8.344e-07
-1.46877e-07
-0.00113147
-9.50925e-08
-1.16527e-06
2.54473e-07
-1.86702e-07
-8.31462e-07
2.27004e-07
8.79566e-07
-1.88996e-07
1.23146e-06
0.001132
-1.41292e-07
-0.00113199
-7.25539e-08
-1.17088e-06
2.51582e-07
-1.91227e-07
-8.32634e-07
2.24372e-07
-1.9115e-07
8.78238e-07
-0.000268172
2.39511e-07
2.44662e-07
1.20446e-06
1.16776e-06
-1.82623e-07
-1.89822e-07
0.000268206
-1.26025e-06
-1.22818e-06
0.000270248
-0.000268238
2.37542e-07
2.40843e-07
-9.65079e-08
0.00113103
-1.92054e-07
1.27577e-06
2.60119e-07
8.84599e-07
-1.82588e-07
-8.27042e-07
2.28729e-07
-1.21357e-06
-1.68613e-07
-8.0102e-08
0.00113148
-1.99691e-07
1.27711e-06
2.57359e-07
8.91903e-07
-1.83051e-07
-8.30788e-07
2.33432e-07
0.00113102
-1.71806e-07
-0.00113104
-5.57857e-08
-1.21679e-06
2.38596e-07
-2.10251e-07
-8.10928e-07
2.48493e-07
-1.60589e-07
8.98065e-07
1.26399e-06
0.00113144
-1.57209e-07
-0.00113147
-4.20471e-08
-1.22534e-06
2.40555e-07
-2.16049e-07
-8.19136e-07
2.46922e-07
-1.66864e-07
9.00456e-07
-1.85599e-07
-1.89567e-07
0.000268228
-1.22595e-06
0.000270266
-0.000268249
2.35951e-07
2.36697e-07
-9.71057e-08
0.00113214
-1.89413e-07
1.23918e-06
2.58142e-07
8.87826e-07
-1.84307e-07
-8.28957e-07
2.32256e-07
-1.20998e-06
-1.71483e-07
-7.30979e-08
0.00113114
-2.02212e-07
1.26939e-06
2.54589e-07
8.91234e-07
-1.79798e-07
-8.25197e-07
2.36146e-07
0.00113212
-1.55245e-07
-0.00113214
-7.30261e-08
-1.17523e-06
2.40461e-07
-2.03237e-07
-8.17998e-07
2.47683e-07
-1.66802e-07
8.96378e-07
1.25582e-06
0.00113107
-1.37471e-07
-0.00113111
-2.67051e-08
-1.22295e-06
2.37808e-07
-2.19726e-07
-8.20125e-07
2.42983e-07
-1.69801e-07
8.93314e-07
-1.59396e-07
-7.78458e-08
0.00113091
-1.94183e-07
1.26593e-06
2.52609e-07
8.84295e-07
-1.82122e-07
2.28492e-07
-8.26839e-07
-1.48818e-07
-0.00113185
-4.89682e-08
-1.18349e-06
2.33821e-07
-2.06026e-07
-8.15736e-07
2.42559e-07
8.92954e-07
-1.65922e-07
1.2552e-06
0.00113088
-1.59989e-07
-0.0011309
-5.25098e-08
-1.21167e-06
2.36834e-07
-2.07226e-07
-8.14519e-07
2.44145e-07
-1.64701e-07
8.9434e-07
-1.82705e-07
-1.93063e-07
0.00026819
-1.21497e-06
0.000270204
-0.000268199
2.28309e-07
2.37049e-07
-1.56621e-07
-8.17754e-08
0.00113202
-1.90556e-07
1.23312e-06
2.51461e-07
8.83459e-07
-1.8527e-07
2.30637e-07
-8.27584e-07
-1.37895e-07
-0.00113147
-2.93579e-08
-1.18358e-06
2.28721e-07
-2.11944e-07
-8.16301e-07
2.43587e-07
8.91913e-07
-1.69505e-07
1.22347e-06
0.00113199
-1.50792e-07
-0.00113201
-6.48094e-08
-1.17486e-06
2.36563e-07
-2.02196e-07
-8.16455e-07
2.45441e-07
-1.69076e-07
8.92846e-07
-0.000268219
2.37706e-07
2.41069e-07
1.22496e-06
1.18364e-06
-1.88885e-07
-2.00728e-07
0.000268229
-1.24914e-06
-1.20723e-06
0.00027018
-0.000268172
2.18363e-07
2.30433e-07
-3.05579e-08
0.00113098
-2.19394e-07
1.25291e-06
2.31431e-07
8.95976e-07
-1.59464e-07
-8.1213e-07
2.47329e-07
-1.22943e-06
-1.37091e-07
-3.37019e-08
0.0011314
-2.19512e-07
1.26091e-06
2.38458e-07
8.98144e-07
-1.66889e-07
-8.21069e-07
2.45564e-07
0.00113083
-6.49379e-08
-0.00113087
-1.05069e-09
-1.23268e-06
2.30856e-07
-2.23731e-07
-8.30083e-07
2.23688e-07
-1.80498e-07
8.7659e-07
1.26006e-06
0.00113129
-7.96364e-08
-0.00113132
-3.12322e-08
-1.2325e-06
2.39331e-07
-2.20325e-07
-8.34781e-07
2.28154e-07
-1.82414e-07
8.8365e-07
-1.94311e-07
-1.97514e-07
0.00026824
-1.21603e-06
0.000270218
-0.000268199
2.25569e-07
2.3125e-07
-4.60267e-08
0.00113208
-2.12877e-07
1.21997e-06
2.32271e-07
8.95286e-07
-1.65876e-07
-8.19012e-07
2.46752e-07
-1.22575e-06
-1.17341e-07
-2.32158e-08
0.00113103
-2.20991e-07
1.25435e-06
2.37942e-07
8.90616e-07
-1.71805e-07
-8.22922e-07
2.40146e-07
0.00113193
-7.76649e-08
-0.00113198
1.54406e-08
-1.19973e-06
2.23471e-07
-2.25152e-07
-8.3006e-07
2.28928e-07
-1.81451e-07
8.82923e-07
1.25995e-06
0.00113095
-9.42459e-08
-0.00113096
-5.36404e-08
-1.22239e-06
2.46757e-07
-2.14258e-07
-8.33101e-07
2.26939e-07
-1.84514e-07
8.80417e-07
-1.40741e-07
-3.62432e-08
0.00113085
-2.14429e-07
1.2496e-06
2.3128e-07
8.928e-07
-1.63682e-07
2.43428e-07
-8.15622e-07
-9.3467e-08
-0.0011317
-1.30372e-08
-1.19652e-06
2.27098e-07
-2.15873e-07
-8.26851e-07
2.27589e-07
8.80844e-07
-1.77799e-07
1.24698e-06
0.00113074
-8.19592e-08
-0.00113077
-2.05239e-08
-1.22406e-06
2.32063e-07
-2.17274e-07
-8.29037e-07
2.24845e-07
-1.80136e-07
8.78323e-07
-1.96049e-07
-2.01641e-07
0.000268188
-1.21766e-06
0.000270174
-0.000268161
2.28023e-07
2.37188e-07
-1.33553e-07
-4.59158e-08
0.00113196
-2.1012e-07
1.217e-06
2.30158e-07
8.91932e-07
-1.6767e-07
2.45181e-07
-8.16951e-07
-1.05272e-07
-0.00113134
-3.90012e-08
-1.1852e-06
2.36272e-07
-2.08516e-07
-8.28602e-07
2.28388e-07
8.79133e-07
-1.82864e-07
1.20989e-06
0.00113185
-8.9235e-08
-0.00113188
-6.73324e-09
-1.19225e-06
2.26603e-07
-2.17171e-07
-8.2836e-07
2.28555e-07
-1.82213e-07
8.79561e-07
-0.000268174
2.24741e-07
2.32203e-07
1.22838e-06
1.19762e-06
-2.04436e-07
-2.07102e-07
0.000268165
-1.27182e-06
-1.23485e-06
0.000270236
-0.000268211
2.36884e-07
2.44368e-07
-1.862e-08
0.0011308
-2.18076e-07
1.25499e-06
2.39383e-07
8.69317e-07
-1.89569e-07
-8.37529e-07
2.14738e-07
-1.23005e-06
-7.68181e-08
-4.15628e-08
0.00113128
-2.16931e-07
1.26381e-06
2.45328e-07
8.77264e-07
-1.90072e-07
-8.41098e-07
2.20365e-07
0.00113082
-1.37628e-07
-0.0011308
-8.46124e-08
-1.20782e-06
2.55433e-07
-1.95078e-07
-8.33606e-07
2.21733e-07
-1.89675e-07
8.7847e-07
1.27605e-06
0.00113131
-1.37882e-07
-0.00113129
-7.68812e-08
-1.21483e-06
2.56784e-07
-1.99434e-07
-8.38242e-07
2.26045e-07
-1.90687e-07
8.8507e-07
-2.02946e-07
-2.01708e-07
0.000268198
-1.23619e-06
0.000270278
-0.000268246
2.39107e-07