/*--------------------------------*- C++ -*----------------------------------*\
| =========                 |                                                 |
| \\      /  F ield         | OpenFOAM: The Open Source CFD Toolbox           |
|  \\    /   O peration     | Version:  v1906                                 |
|   \\  /    A nd           | Web:      www.OpenFOAM.com                      |
|    \\/     M anipulation  |                                                 |
\*---------------------------------------------------------------------------*/
FoamFile
{
    version     2.0;
    format      ascii;
    class       surfaceScalarField;
    location    "875";
    object      phi;
}
// * * * * * * * * * * * * * * * * * * * * * * * * * * * * * * * * * * * * * //

dimensions      [0 3 -1 0 0 0 0];
oriented        oriented;


internalField   nonuniform List<scalar> 
123728
(
-0.00104221
-1.45815e-05
-1.44777e-05
9.34771e-06
9.17762e-06
0.00105274
-0.00026146
-5.64183e-06
1.44583e-05
6.83957e-06
0.00105941
-4.53274e-06
-1.62486e-06
-2.21805e-06
-2.57553e-06
-6.59143e-06
-7.04426e-06
-3.16375e-06
-0.000263303
-0.000259727
-0.000262829
-0.000261437
-5.64682e-06
1.44873e-05
6.92911e-06
0.0010592
-4.53785e-06
-1.63504e-06
-2.22565e-06
-2.57985e-06
-6.58553e-06
-7.04032e-06
-3.16594e-06
-0.000259699
-0.000263274
-0.000262793
-0.000260564
5.61732e-06
5.65742e-06
-4.87815e-06
-4.87221e-06
0.00025904
-1.63187e-06
-1.63376e-06
-0.00106073
8.98537e-07
8.99308e-07
0.0010622
-0.00106267
-1.60665e-06
1.62783e-06
8.2842e-07
0.00106395
-6.53881e-07
7.84503e-07
-1.48155e-07
3.77992e-07
-8.00661e-07
-1.39483e-06
-2.90563e-07
-0.00106235
-1.60156e-06
1.63834e-06
8.23606e-07
0.00106363
-6.53859e-07
7.79011e-07
-1.48207e-07
3.75376e-07
-8.03184e-07
-1.39451e-06
-2.88014e-07
-0.000261533
1.63927e-06
1.60171e-06
-7.13267e-07
-7.16417e-07
0.000259722
-1.36113e-06
-1.36257e-06
-0.0010664
6.82253e-07
6.83062e-07
0.00106775
-0.0010679
-1.55714e-06
1.36732e-06
6.90364e-07
0.00106925
-6.2183e-07
8.38623e-07
-1.06581e-07
4.24444e-07
-7.80431e-07
-1.36004e-06
-2.45151e-07
-0.00106758
-1.5519e-06
1.36212e-06
6.95683e-07
0.00106892
-6.21846e-07
8.33229e-07
-1.06528e-07
4.24235e-07
-7.80317e-07
-1.35438e-06
-2.4265e-07
-0.000262766
1.58732e-06
1.55204e-06
-6.74932e-07
-6.83108e-07
0.000260984
-1.3409e-06
-1.34228e-06
-0.00107186
6.6439e-07
6.65248e-07
0.00107322
-0.00107326
-1.55563e-06
1.34201e-06
6.67284e-07
0.00107457
-6.20048e-07
8.63892e-07
-8.14287e-08
4.37671e-07
-7.79383e-07
-1.36911e-06
-2.20427e-07
-0.00107292
-1.55018e-06
1.34179e-06
6.67283e-07
0.00107424
-6.17182e-07
8.58435e-07
-8.38977e-08
4.38639e-07
-7.81923e-07
-1.36935e-06
-2.17576e-07
-0.000264044
1.58323e-06
1.55041e-06
-6.64558e-07
-6.70222e-07
0.000262245
-1.29587e-06
-1.29699e-06
-0.00107721
6.42252e-07
6.43162e-07
0.00107852
-0.00107844
-1.54748e-06
1.29682e-06
6.34083e-07
0.00107969
-6.07729e-07
8.91861e-07
-5.58737e-08
4.61036e-07
-7.68185e-07
-1.37254e-06
-1.88724e-07
-0.0010781
-1.54209e-06
1.29644e-06
6.33937e-07
0.00107935
-6.04891e-07
8.86237e-07
-5.83926e-08
4.60977e-07
-7.7029e-07
-1.37092e-06
-1.86556e-07
-0.000265263
1.57504e-06
1.54203e-06
-6.47307e-07
-6.52998e-07
0.000263446
-1.2485e-06
-1.24941e-06
-0.00108237
6.2037e-07
6.21287e-07
0.00108362
-0.00108337
-1.53901e-06
1.24895e-06
6.04326e-07
0.00108457
-5.9502e-07
9.17187e-07
-3.41374e-08
4.86307e-07
-7.53734e-07
-1.36933e-06
-1.58042e-07
-0.00108303
-1.53367e-06
1.24873e-06
6.04226e-07
0.00108422
-5.92498e-07
9.11781e-07
-3.64085e-08
4.8529e-07
-7.56239e-07
-1.36772e-06
-1.55932e-07
-0.000266409
1.56666e-06
1.53359e-06
-6.30188e-07
-6.35735e-07
0.000264574
-1.20396e-06
-1.20586e-06
-0.00108732
6.00928e-07
6.01673e-07
0.00108852
-0.00108806
-1.53164e-06
1.20412e-06
5.79736e-07
0.00108919
-5.84095e-07
9.40623e-07
-1.43328e-08
5.10624e-07
-7.39651e-07
-1.36479e-06
-1.30291e-07
-0.00108772
-1.52653e-06
1.20431e-06
5.80055e-07
0.00108885
-5.81979e-07
9.3514e-07
-1.66465e-08
5.07784e-07
-7.42454e-07
-1.36344e-06
-1.28214e-07
-0.000267478
1.56146e-06
1.52819e-06
-6.17631e-07
-6.23253e-07
0.00026563
-1.16534e-06
-1.16717e-06
-0.00109208
5.84496e-07
5.85303e-07
0.00109324
-0.00109251
-1.5282e-06
1.16635e-06
5.62803e-07
0.00109359
-5.80147e-07
9.58606e-07
-3.14145e-09
5.34324e-07
-7.27129e-07
-1.35845e-06
-1.05335e-07
-0.00109217
-1.52374e-06
1.16695e-06
5.63536e-07
0.00109325
-5.78773e-07
9.53199e-07
-5.03725e-09
5.31638e-07
-7.29743e-07
-1.3586e-06
-1.03192e-07
-0.000268484
1.55625e-06
1.52291e-06
-6.04731e-07
-6.10217e-07
0.00026662
-1.13058e-06
-1.13343e-06
-0.00109667
5.70359e-07
5.70641e-07
0.00109779
-0.00109676
-1.52591e-06
1.13118e-06
5.4675e-07
0.00109778
-5.75114e-07
9.784e-07
2.20205e-08
5.58332e-07
-7.16034e-07
-1.35646e-06
-8.50434e-08
-0.00109641
-1.52019e-06
1.13199e-06
5.47782e-07
0.00109744
-5.69738e-07
9.71641e-07
1.79547e-08
5.54945e-07
-7.20899e-07
-1.35543e-06
-8.36629e-08
-0.00026942
1.5553e-06
1.52191e-06
-5.96378e-07
-6.01738e-07
0.000267541
-1.10201e-06
-1.10265e-06
-0.00110111
5.57712e-07
5.58564e-07
0.0011022
-0.00110081
-1.52654e-06
1.10522e-06
5.39463e-07
0.0011018
-5.69211e-07
9.90138e-07
2.82549e-08
5.75226e-07
-7.10212e-07
-1.358e-06
-6.63065e-08
-0.00110046
-1.52346e-06
1.1064e-06
5.41447e-07
0.00110146
-5.74259e-07
9.83913e-07
1.92911e-08
5.78357e-07
-7.11186e-07
-1.35658e-06
-6.16266e-08
-0.000270307
1.55575e-06
1.52205e-06
-5.90751e-07
-5.96444e-07
0.000268416
-1.08044e-06
-1.08136e-06
-0.00110542
5.49642e-07
5.50423e-07
0.00110648
-0.0011047
-1.52976e-06
1.08008e-06
5.30253e-07
0.00110565
-5.76062e-07
1.00638e-06
3.90181e-08
5.96423e-07
-6.97844e-07
-1.34934e-06
-4.88097e-08
-0.00110435
-1.52445e-06
1.08027e-06
5.30256e-07
0.0011053
-5.76596e-07
1.00139e-06
4.26816e-08
5.9405e-07
-6.99472e-07
-1.34986e-06
-4.80053e-08
-0.000271134
1.55567e-06
1.52178e-06
-5.80716e-07
-5.86484e-07
0.000269224
-1.05525e-06
-1.05617e-06
-0.00110962
5.39346e-07
5.40265e-07
0.00111065
-0.00110843
-1.52766e-06
1.05549e-06
5.18963e-07
0.00110933
-5.63042e-07
1.02112e-06
5.87227e-08
6.1453e-07
-6.9074e-07
-1.35116e-06
-3.60244e-08
-0.00110808
-1.52231e-06
1.05528e-06
5.19105e-07
0.00110898
-5.63421e-07
1.0136e-06
5.50396e-08
6.14333e-07
-6.91595e-07
-1.34861e-06
-3.29819e-08
-0.000271905
1.55976e-06
1.52542e-06
-5.82131e-07
-5.88331e-07
0.00026999
-1.03556e-06
-1.03622e-06
-0.00111371
5.31631e-07
5.32591e-07
0.00111472
-0.00111199
-1.53226e-06
1.0387e-06
5.14626e-07
0.00111288
-5.67159e-07
1.02832e-06
5.06302e-08
6.33308e-07
-6.7983e-07
-1.3464e-06
-2.37315e-08
-0.00111165
-1.52784e-06
1.03756e-06
5.14875e-07
0.00111253
-5.72758e-07
1.02427e-06
4.8163e-08
6.36152e-07
-6.82224e-07
-1.34388e-06
-1.82283e-08
-0.000272638
1.55722e-06
1.52361e-06
-5.72405e-07
-5.77817e-07
0.000270707
-1.01336e-06
-1.00935e-06
-0.00111771
5.19539e-07
5.237e-07
0.00111869
-0.00111544
-1.53687e-06
1.01545e-06
5.05737e-07
0.00111628
-5.78982e-07
1.04444e-06
6.11713e-08
6.54794e-07
-6.62554e-07
-1.33498e-06
-7.28034e-09
-0.00111509
-1.52865e-06
1.00705e-06
4.92995e-07
0.00111592
-5.7589e-07
1.04346e-06
7.26104e-08
6.55677e-07
-6.60635e-07
-1.33067e-06
-5.61353e-09
-0.000273303
1.55858e-06
1.52394e-06
-5.62644e-07
-5.68741e-07
0.000271352
-9.90244e-07
-9.99262e-07
-0.00112158
5.18625e-07
5.11385e-07
0.00112254
-0.00111872
-1.52752e-06
9.80137e-07
4.69876e-07
0.00111949
-5.56877e-07
1.06799e-06
9.76157e-08
6.65436e-07
-6.41917e-07
-1.32301e-06
-1.62029e-09
-0.00111836
-1.53307e-06
9.97885e-07
4.99197e-07
0.00111914
-5.74723e-07
1.05204e-06
7.97814e-08
6.63252e-07
-6.46359e-07
-1.32465e-06
-1.98342e-10
-0.000273909
1.5586e-06
1.5242e-06
-5.54897e-07
-5.60475e-07
0.000271941
-9.79583e-07
-9.79102e-07
-0.00112538
5.06541e-07
5.09138e-07
0.00112632
-0.00112184
-1.53246e-06
9.67512e-07
4.72342e-07
0.00112257
-5.51573e-07
1.0769e-06
1.01619e-07
6.74948e-07
-6.33462e-07
-1.31711e-06
3.11031e-09
-0.00112146
-1.51844e-06
9.61866e-07
4.65588e-07
0.0011222
-5.35544e-07
1.07094e-06
1.0266e-07
6.72773e-07
-6.38913e-07
-1.32018e-06
5.58017e-09
-0.000274451
1.56687e-06
1.53211e-06
-5.59545e-07
-5.65718e-07
0.000272477
-9.52576e-07
-9.53827e-07
-0.00112907
4.93602e-07
4.9276e-07
0.00112999
-0.00112477
-1.53324e-06
9.55176e-07
4.68438e-07
0.00112548
-5.51889e-07
1.07787e-06
8.18929e-08
6.89543e-07
-6.14877e-07
-1.30715e-06
2.45449e-08
-0.00112441
-1.53253e-06
9.70237e-07
4.90212e-07
0.00112514
-5.58015e-07
1.06437e-06
7.34104e-08
6.82698e-07
-6.2299e-07
-1.31339e-06
1.94172e-08
-0.00027493
1.57003e-06
1.53561e-06
-5.55841e-07
-5.61515e-07
0.000272941
-9.14105e-07
-9.06752e-07
-0.00113271
4.68998e-07
4.78578e-07
0.00113358
-0.00112757
-1.54651e-06
9.52864e-07
4.79489e-07
0.00112827
-5.61179e-07
1.07842e-06
8.7217e-08
6.94737e-07
-6.02524e-07
-1.2993e-06
2.27714e-08
-0.00112722
-1.52336e-06
9.47264e-07
4.65282e-07
0.00112791
-5.36532e-07
1.07988e-06
9.14578e-08
6.87833e-07
-6.14391e-07
-1.30665e-06
2.04208e-08
-0.000275338
1.57043e-06
1.53842e-06
-5.4937e-07
-5.53089e-07
0.000273332
-9.55857e-07
-9.4147e-07
-0.00113624
4.99487e-07
5.21299e-07
0.00113712
-0.00113018
-1.51926e-06
8.99211e-07
4.60662e-07
0.0011308
-5.22372e-07
1.10077e-06
9.93421e-08
7.02773e-07
-5.85308e-07
-1.28768e-06
3.63224e-08
-0.00112989
-1.47128e-06
8.22929e-07
3.50916e-07
0.00113044
-4.4724e-07
1.14236e-06
1.76494e-07
7.05051e-07
-5.86608e-07
-1.28617e-06
4.52271e-08
-0.000275696
1.51602e-06
1.48494e-06
-4.94546e-07
-4.97902e-07
0.000273688
-8.24575e-07
-8.52646e-07
-0.00113965
4.40656e-07
4.00274e-07
0.00114049
-0.00113269
-1.51209e-06
8.821e-07
3.78466e-07
0.00113327
-4.93036e-07
1.1284e-06
1.49158e-07
7.05048e-07
-5.74011e-07
-1.27327e-06
3.01038e-08
-0.00113229
-1.57281e-06
9.783e-07
5.4579e-07
0.00113288
-5.96213e-07
1.05489e-06
4.59723e-08
7.20782e-07
-5.55744e-07
-1.25557e-06
5.06171e-08
-0.000275992
1.61761e-06
1.57583e-06
-5.78988e-07
-5.89761e-07
0.000273968
-9.18636e-07
-9.19245e-07
-0.00114297
4.99372e-07
4.97625e-07
0.00114381
-0.00113498
-1.51595e-06
8.34465e-07
4.14564e-07
0.00113552
-4.9778e-07
1.12727e-06
1.46225e-07
7.18552e-07
-5.5544e-07
-1.25467e-06
4.07828e-08
-0.00113457
-1.48877e-06
8.20806e-07
3.60502e-07
-4.43447e-07
1.14571e-06
2.03535e-07
6.99277e-07
-5.78751e-07
-1.27058e-06
1.7998e-08
0.0011351
-0.000276238
1.50631e-06
1.46664e-06
-4.65987e-07
-4.74149e-07
0.000274205
5.22146e-06
5.23231e-06
0.000260567
-0.000259171
-5.93189e-06
-5.91777e-06
5.08158e-06
0.000261409
-0.000258686
-5.96204e-06
3.37916e-06
-5.22153e-06
5.07656e-06
0.000261442
-0.000258702
-5.97005e-06
3.37431e-06
5.22214e-06
0.000260579
-0.000259173
-5.90328e-06
-5.9465e-06
5.07467e-06
0.000261473
-0.000258717
-5.96755e-06
3.369e-06
5.0814e-06
-5.22378e-06
0.000261417
-0.000258686
3.38421e-06
-5.97225e-06
1.07111e-05
1.06174e-05
-0.000252649
-0.000256079
-0.000255118
-0.000255118
-6.41734e-06
-4.12515e-06
-6.6623e-06
-6.41771e-06
-4.12609e-06
-6.66784e-06
-5.06963e-06
0.00104223
1.06707e-05
1.06227e-05
-0.000252651
-0.000256076
-0.000255121
-0.000255121
-6.41996e-06
-4.12544e-06
-6.66504e-06
-6.41517e-06
-4.12087e-06
-6.66025e-06
-5.06927e-06
0.00104211
1.0731e-05
1.06833e-05
-0.000252643
-0.000256071
-0.000255118
-0.000255113
-6.41981e-06
-4.13282e-06
-6.66497e-06
-6.42001e-06
-4.12309e-06
-6.66258e-06
-5.08397e-06
-5.07209e-06
0.00104217
1.07263e-05
1.06276e-05
-0.000252646
-0.000256074
-0.000255118
-0.000255118
-6.4147e-06
-4.12777e-06
-6.65997e-06
-6.42014e-06
-4.12593e-06
-6.6653e-06
-0.000258712
-5.95991e-06
3.36395e-06
-5.22138e-06
0.000261404
-0.000258684
3.37919e-06
-5.96198e-06
5.22453e-06
0.000260559
-0.000259158
-5.9056e-06
-5.94373e-06
-0.000258697
3.37148e-06
-5.95704e-06
-5.23228e-06
0.000261471
-0.000258712
3.36649e-06
-5.96502e-06
-0.000259168
-5.93177e-06
-5.9178e-06
5.61757e-06
5.65479e-06
-4.87838e-06
-4.87223e-06
0.000259045
-7.8048e-07
-7.44602e-07
0.000261544
-0.000259462
-2.82248e-07
-2.74856e-07
7.09203e-06
0.00105882
-4.53008e-06
-1.57833e-06
-2.21273e-06
-2.57667e-06
-6.60588e-06
-7.05009e-06
-3.17074e-06
-0.000263264
-0.000259684
-0.000262793
-5.62803e-06
1.4555e-05
7.03143e-06
0.00105919
-4.5492e-06
-1.57071e-06
-2.21587e-06
-2.58758e-06
-6.63739e-06
-7.06699e-06
-3.18642e-06
-0.000263338
-0.000259715
-0.000262834
0.00106192
2.02402e-06
-0.00106086
9.73755e-07
-1.71809e-06
-1.69111e-07
-6.92235e-07
-1.46544e-06
-3.07556e-07
-8.2806e-07
3.4322e-07
7.8856e-07
0.00106234
2.02437e-06
-0.00106128
9.68688e-07
-1.7285e-06
-1.61616e-07
-6.97737e-07
-1.47114e-06
-3.07706e-07
-8.2842e-07
3.48641e-07
-4.87645e-06
-4.86912e-06
0.000259055
-7.47277e-07
0.000261569
-0.000259482
-2.79598e-07
-2.7199e-07
6.81326e-06
0.00105966
-4.55437e-06
-1.63766e-06
-2.22893e-06
-2.58588e-06
-6.6199e-06
-7.06237e-06
-3.18164e-06
-0.000263359
-0.000259742
-0.000262847
-5.62773e-06
1.45894e-05
7.12547e-06
0.00105896
-4.54903e-06
-1.58079e-06
-2.2209e-06
-2.58953e-06
-6.6367e-06
-7.06587e-06
-3.18603e-06
-0.000259684
-0.000263315
-0.000262806
0.00106294
2.03159e-06
-0.00106187
9.6225e-07
-1.68817e-06
-1.7162e-07
-6.92517e-07
-1.46845e-06
-3.07675e-07
-8.25813e-07
3.45582e-07
7.77942e-07
0.00106203
2.0346e-06
-0.00106099
9.84066e-07
-1.71815e-06
-1.66659e-07
-6.92433e-07
-1.46825e-06
-3.05093e-07
-8.30811e-07
3.43161e-07
1.45864e-05
7.11279e-06
0.00105877
-4.53002e-06
-1.57822e-06
-2.2101e-06
-2.5767e-06
-6.60589e-06
-3.17079e-06
-7.04776e-06
-0.000259679
-0.000263259
-0.000262788
2.03092e-06
-0.00106161
9.67484e-07
-1.68807e-06
-1.68945e-07
-6.89596e-07
-1.46575e-06
-3.10049e-07
3.40398e-07
-8.25538e-07
7.77915e-07
0.00106182
2.03422e-06
-0.00106078
9.84097e-07
-1.71806e-06
-1.66545e-07
-6.92192e-07
-1.46809e-06
-3.07539e-07
-8.27996e-07
3.45739e-07
-4.88128e-06
-4.8689e-06
0.000259035
-7.39135e-07
0.000261521
-0.000259444
-2.82647e-07
-2.77215e-07
1.44875e-05
6.83175e-06
0.00105961
-4.55451e-06
-1.63767e-06
-2.22899e-06
-2.5857e-06
-6.61977e-06
-3.18154e-06
-7.05964e-06
-0.000259732
-0.000263356
-0.000262842
2.03595e-06
-0.00106131
9.83009e-07
-1.68559e-06
-1.71492e-07
-6.92269e-07
-1.46262e-06
-3.05032e-07
3.40434e-07
-8.28064e-07
7.39226e-07
0.00106284
2.03659e-06
-0.00106179
9.72563e-07
-1.68313e-06
-1.71648e-07
-6.89936e-07
-1.46568e-06
-3.07517e-07
-8.28226e-07
3.4059e-07
-0.000259459
-2.79782e-07
-2.77431e-07
1.63935e-06
1.60415e-06
-7.10555e-07
-7.1903e-07
0.00025973
-8.66325e-07
-8.27636e-07
0.000262778
-0.000260667
-2.12629e-07
-2.05053e-07
8.29638e-07
0.00106319
-6.56441e-07
8.17758e-07
-1.43301e-07
3.78142e-07
-8.00544e-07
-1.39712e-06
-2.90488e-07
-1.64463e-06
1.63226e-06
8.24416e-07
0.00106362
-6.59289e-07
8.25827e-07
-1.43315e-07
3.83591e-07
-8.03535e-07
-1.40283e-06
-2.88163e-07
0.00106713
1.383e-06
-0.0010658
7.02148e-07
-1.59182e-06
-1.03503e-07
-6.28671e-07
-1.35459e-06
-2.49045e-07
-7.76741e-07
4.22395e-07
8.71704e-07
0.00106757
1.38328e-06
-0.00106623
6.9708e-07
-1.59714e-06
-1.03608e-07
-6.2887e-07
-1.35769e-06
-2.49122e-07
-7.77162e-07
4.25234e-07
-7.11048e-07
-7.18354e-07
0.000259748
-8.3289e-07
0.000262804
-0.000260679
-2.12667e-07
-2.07538e-07
8.23144e-07
0.00106421
-6.54073e-07
7.81854e-07
-1.45761e-07
3.8061e-07
-8.03596e-07
-1.40026e-06
-2.88112e-07
-1.63935e-06
1.63749e-06
8.29699e-07
0.0010633
-6.59279e-07
8.17857e-07
-1.43351e-07
3.78156e-07
-8.03249e-07
-1.39731e-06
-2.88004e-07
0.00106816
1.38438e-06
-0.00106684
7.01112e-07
-1.5539e-06
-1.08431e-07
-6.23652e-07
-1.35237e-06
-2.46584e-07
-7.77131e-07
4.25101e-07
8.611e-07
0.00106725
1.38303e-06
-0.00106591
7.02229e-07
-1.58922e-06
-1.06092e-07
-6.28794e-07
-1.35472e-06
-2.49015e-07
-7.76804e-07
4.2515e-07
1.63204e-06
8.2973e-07
0.0010631
-6.59064e-07
8.15185e-07
-1.45743e-07
3.78112e-07
-8.03181e-07
-2.88019e-07
-1.39722e-06
1.38398e-06
-0.00106657
7.06469e-07
-1.56169e-06
-1.10854e-07
-6.23487e-07
-1.35228e-06
-2.46598e-07
4.24981e-07
-7.76947e-07
8.63713e-07
0.00106704
1.37773e-06
-0.0010657
7.02258e-07
-1.58914e-06
-1.05965e-07
-6.28631e-07
-1.35475e-06
-2.4903e-07
-7.76799e-07
4.22448e-07
-7.13815e-07
-7.15798e-07
0.000259709
-8.24822e-07
0.000262753
-0.000260646
-2.12863e-07
-2.0752e-07
1.63354e-06
8.1803e-07
0.00106413
-6.54135e-07
7.76439e-07
-1.50872e-07
3.75488e-07
-8.00812e-07
-2.92939e-07
-1.39476e-06
1.38397e-06
-0.00106625
7.01387e-07
-1.55115e-06
-1.10858e-07
-6.23434e-07
-1.34671e-06
-2.49025e-07
4.16883e-07
-7.76859e-07
8.27506e-07
0.00106807
1.38438e-06
-0.00106674
7.01196e-07
-1.55136e-06
-1.11012e-07
-6.23729e-07
-1.35496e-06
-2.49025e-07
-7.79727e-07
4.22422e-07
-0.000260654
-2.12731e-07
-2.07645e-07
1.58994e-06
1.55722e-06
-6.72235e-07
-6.80551e-07
0.000260984
-8.90548e-07
-8.54271e-07
0.00026406
-0.000261937
-1.91582e-07
-1.86461e-07
6.9122e-07
0.00106848
-6.29663e-07
8.72067e-07
-9.92714e-08
4.24577e-07
-7.77694e-07
-1.35452e-06
-2.4752e-07
-1.59534e-06
1.36147e-06
7.01857e-07
0.00106891
-6.29933e-07
8.7748e-07
-9.93186e-08
4.29939e-07
-7.80589e-07
-1.36e-06
-2.42764e-07
0.00107249
1.34958e-06
-0.00107117
6.75849e-07
-1.5899e-06
-8.54219e-08
-6.24894e-07
-1.36693e-06
-2.3009e-07
-7.78171e-07
4.33378e-07
8.95844e-07
0.00107292
1.34977e-06
-0.00107159
6.75997e-07
-1.59527e-06
-8.32393e-08
-6.27745e-07
-1.37498e-06
-2.25071e-07
-7.83579e-07
4.4214e-07
-6.75284e-07
-6.77519e-07
0.000261005
-8.56921e-07
0.000264088
-0.000261962
-1.89074e-07
-1.83909e-07
6.9024e-07
0.00106952
-6.27346e-07
8.35996e-07
-1.04184e-07
4.27046e-07
-7.80589e-07
-1.36002e-06
-2.42693e-07
-1.58734e-06
1.36127e-06
6.96572e-07
0.00106859
-6.29855e-07
8.69503e-07
-9.92864e-08
4.27369e-07
-7.80326e-07
-1.35727e-06
-2.42494e-07
0.00107352
1.35083e-06
-0.0010722
6.74804e-07
-1.5544e-06
-8.79271e-08
-6.22516e-07
-1.3696e-06
-2.25145e-07
-7.83607e-07
4.36214e-07
8.90573e-07
0.0010726
1.34971e-06
-0.00107127
6.76038e-07
-1.58991e-06
-8.31171e-08
-6.27681e-07
-1.36979e-06
-2.24931e-07
-7.83475e-07
4.36234e-07
1.36627e-06
6.9133e-07
0.00106839
-6.26991e-07
8.66801e-07
-1.04159e-07
4.27069e-07
-7.80237e-07
-2.4516e-07
-1.3571e-06
1.35053e-06
-0.00107193
6.74977e-07
-1.5569e-06
-8.79235e-08
-6.22254e-07
-1.36758e-06
-2.27416e-07
4.33998e-07
-7.81035e-07
8.85151e-07
0.0010724
1.34935e-06
-0.00107107
6.75876e-07
-1.58463e-06
-8.79328e-08
-6.22247e-07
-1.36686e-06
-2.27451e-07
-7.80577e-07
4.34138e-07
-6.75396e-07
-6.80012e-07
0.000260969
-8.51448e-07
0.000264039
-0.000261921
-1.91838e-07
-1.8389e-07
1.36253e-06
6.95526e-07
0.00106942
-6.22084e-07
8.27948e-07
-1.09169e-07
4.24457e-07
-7.779e-07
-2.45171e-07
-1.3547e-06
1.35042e-06
-0.0010716
6.75053e-07
-1.55166e-06
-9.04426e-08
-6.19657e-07
-1.36665e-06
-2.25069e-07
4.33442e-07
-7.83351e-07
8.51489e-07
0.00107344
1.35078e-06
-0.00107211
6.74817e-07
-1.55187e-06
-9.04445e-08
-6.19995e-07
-1.36444e-06
-2.2747e-07
-7.80861e-07
4.31485e-07
-0.000261934
-1.89093e-07
-1.83895e-07
1.58857e-06
1.55296e-06
-6.61935e-07
-6.67706e-07
0.000262248
-9.18729e-07
-8.82353e-07
0.000265278
-0.000263155
-1.63597e-07
-1.58466e-07
6.68103e-07
0.00107381
-6.22557e-07
8.97284e-07
-7.94243e-08
4.38889e-07
-7.76518e-07
-1.36906e-06
-2.22556e-07
-1.59389e-06
1.3413e-06
6.68383e-07
0.00107423
-6.2537e-07
9.0292e-07
-7.66896e-08
4.46732e-07
-7.8231e-07
-1.37787e-06
-2.17657e-07
0.00107767
1.30804e-06
-0.0010764
6.43196e-07
-1.58263e-06
-5.96513e-08
-6.12971e-07
-1.37238e-06
-1.99392e-07
-7.6911e-07
4.53803e-07
9.23821e-07
0.00107809
1.30843e-06
-0.00107682
6.43488e-07
-1.58808e-06
-5.79145e-08
-6.15898e-07
-1.37963e-06
-1.9468e-07
-7.74534e-07
4.6173e-07
-6.6517e-07
-6.69751e-07
0.000262274
-8.84547e-07
0.000265307
-0.000263181
-1.6166e-07
-1.56312e-07
6.67169e-07
0.00107484
-6.2011e-07
8.61095e-07
-8.17934e-08
4.41511e-07
-7.82243e-07
-1.37237e-06
-2.17538e-07
-1.58858e-06
1.34095e-06
6.68209e-07
0.00107391
-6.25322e-07
8.97457e-07
-7.67248e-08
4.41446e-07
-7.81732e-07
-1.37149e-06
-2.17633e-07
0.0010787
1.3093e-06
-0.00107743
6.42261e-07
-1.54701e-06
-6.20657e-08
-6.10644e-07
-1.37489e-06
-1.94632e-07
-7.74642e-07
4.56073e-07
9.18518e-07
0.00107777
1.30813e-06
-0.0010765
6.43416e-07
-1.58267e-06
-5.79032e-08
-6.15801e-07
-1.37532e-06
-1.93873e-07
-7.74368e-07
4.57341e-07
1.341e-06
6.68309e-07
0.00107371
-6.1966e-07
8.92061e-07
-8.17337e-08
4.38027e-07
-7.79418e-07
-2.20157e-07
-1.36955e-06
1.30885e-06
-0.00107716
6.42312e-07
-1.54959e-06
-6.27583e-08
-6.10423e-07
-1.37121e-06
-1.97071e-07
4.53915e-07
-7.71535e-07
9.13159e-07
0.00107757
1.30781e-06
-0.0010763
6.43177e-07
-1.57757e-06
-6.22807e-08
-6.10806e-07
-1.37088e-06
-1.97209e-07
-7.71114e-07
4.54143e-07
-6.62427e-07
-6.69717e-07
0.000262232
-8.79368e-07
0.000265258
-0.00026314
-1.64173e-07
-1.56315e-07
1.34239e-06
6.67279e-07
0.00107475
-6.17387e-07
8.58369e-07
-8.42382e-08
4.35471e-07
-7.79713e-07
-2.20149e-07
-1.36721e-06
1.30898e-06
-0.00107683
6.42525e-07
-1.54428e-06
-6.50381e-08
-6.0784e-07
-1.3721e-06
-1.94301e-07
4.53447e-07
-7.74442e-07
8.79406e-07
0.00107861
1.30911e-06
-0.00107734
6.42127e-07
-1.54462e-06
-6.47297e-08
-6.08523e-07
-1.36846e-06
-1.97244e-07
-7.71411e-07
4.51376e-07
-0.000263153
-1.61285e-07
-1.56051e-07
1.58065e-06
1.54484e-06
-6.44969e-07
-6.50778e-07
0.000263449
-9.45588e-07
-9.09196e-07
0.000266424
-0.000264302
-1.35674e-07
-1.30619e-07
6.34924e-07
0.00107892
-6.1026e-07
9.25005e-07
-5.45706e-08
4.60881e-07
-7.65017e-07
-1.37072e-06
-1.91433e-07
-1.58601e-06
1.29611e-06
6.35107e-07
0.00107935
-6.13164e-07
9.30993e-07
-5.12548e-08
4.69704e-07
-7.70692e-07
-1.3804e-06
-1.86225e-07
0.0010826
1.26009e-06
-0.00108139
6.12038e-07
-1.57403e-06
-3.59882e-08
-6.00227e-07
-1.37143e-06
-1.67818e-07
-7.55078e-07
4.78101e-07
9.50338e-07
0.00108303
1.26066e-06
-0.00108181
6.12524e-07
-1.57962e-06
-3.45953e-08
-6.03251e-07
-1.37787e-06
-1.63592e-07
-7.60553e-07
4.85117e-07
-6.48392e-07
-6.53103e-07
0.000263475
-9.11131e-07
0.000266453
-0.000264328
-1.34388e-07
-1.29251e-07
6.33901e-07
0.00107996
-6.07741e-07
8.88614e-07
-5.69776e-08
4.64112e-07
-7.70586e-07
-1.37407e-06
-1.86216e-07
-1.58074e-06
1.29596e-06
6.35008e-07
0.00107903
-6.13147e-07
9.25529e-07
-5.11445e-08
4.62795e-07
-7.70401e-07
-1.37316e-06
-1.86795e-07
0.00108364
1.26136e-06
-0.00108243
6.11223e-07
-1.53829e-06
-3.82435e-08
-5.97907e-07
-1.37415e-06
-1.6302e-07
-7.6081e-07
4.79992e-07
9.44896e-07
0.0010827
1.26027e-06
-0.00108149
6.12368e-07
-1.57388e-06
-3.47365e-08
-6.02768e-07
-1.37447e-06
-1.62775e-07
-7.60097e-07
4.81663e-07
1.29589e-06
6.35085e-07
0.00107883
-6.06705e-07
9.19957e-07
-5.66323e-08
4.6076e-07
-7.68303e-07
-1.88389e-07
-1.37282e-06
1.26124e-06
-0.00108216
6.11512e-07
-1.54091e-06
-3.91928e-08
-5.97792e-07
-1.37012e-06
-1.66204e-07
4.76548e-07
-7.57828e-07
9.39811e-07
0.0010825
1.26022e-06
-0.00108129
6.12304e-07
-1.56941e-06
-3.8831e-08
-5.98598e-07
-1.369e-06
-1.66214e-07
-7.57562e-07
4.77283e-07
-6.45636e-07
-6.53035e-07
0.000263434
-9.05673e-07
0.000266403
-0.000264286
-1.37314e-07
-1.29516e-07
1.29709e-06
6.34054e-07
0.00107987
-6.04381e-07
8.86134e-07
-5.91157e-08
4.5836e-07
-7.68567e-07
-1.88326e-07
-1.37047e-06
1.26105e-06
-0.00108182
6.1151e-07
-1.53538e-06
-4.16991e-08
-5.94825e-07
-1.37123e-06
-1.63142e-07
4.77343e-07
-7.60358e-07
9.05977e-07
0.00108355
1.26134e-06
-0.00108234
6.11321e-07
-1.53622e-06
-4.12084e-08
-5.96202e-07
-1.36723e-06
-1.6602e-07
-7.57947e-07
4.75105e-07
-0.0002643
-1.34034e-07
-1.28755e-07
1.57254e-06
1.53661e-06
-6.28296e-07
-6.34116e-07
0.000264577
-9.68186e-07
-9.31264e-07
0.000267495
-0.000265374
-1.13337e-07
-1.07818e-07
6.0538e-07
0.00108379
-5.98019e-07
9.50786e-07
-3.21304e-08
4.84832e-07
-7.51099e-07
-1.36834e-06
-1.61329e-07
-1.57761e-06
1.24863e-06
6.05454e-07
0.00108422
-6.00428e-07
9.56666e-07
-2.9409e-08
4.94551e-07
-7.56663e-07
-1.37814e-06
-1.55598e-07
0.00108728
1.21513e-06
-0.00108613
5.87026e-07
-1.56689e-06
-1.78864e-08
-5.89734e-07
-1.36546e-06
-1.40051e-07
-7.40451e-07
5.00747e-07
9.73868e-07
0.00108771
1.21566e-06
-0.00108656
5.87416e-07
-1.57351e-06
-1.56541e-08
-5.94604e-07
-1.37455e-06
-1.34701e-07
-7.46201e-07
5.10705e-07
-6.31383e-07
-6.35877e-07
0.000264603
-9.345e-07
0.000267527
-0.000265401
-1.11102e-07
-1.05787e-07
6.04321e-07
0.00108483
-5.95556e-07
9.14107e-07
-3.4627e-08
4.87744e-07
-7.5642e-07
-1.37073e-06
-1.56358e-07
-1.57256e-06
1.24845e-06
6.05334e-07
0.0010839
-6.00793e-07
9.51323e-07
-2.91831e-08
4.86727e-07
-7.56475e-07
-1.37008e-06
-1.56019e-07
0.00108832
1.21543e-06
-0.00108718
5.85633e-07
-1.53076e-06
-2.04146e-08
-5.87066e-07
-1.36833e-06
-1.34549e-07
-7.45694e-07
5.06933e-07
9.68513e-07
0.00108739
1.21534e-06
-0.00108624
5.87321e-07
-1.56792e-06
-1.54602e-08
-5.9416e-07
-1.36846e-06
-1.34896e-07
-7.45955e-07
5.05137e-07
1.24818e-06
6.0522e-07
0.00108369
-5.945e-07
9.4544e-07
-3.42891e-08
4.85081e-07
-7.53307e-07
-1.58389e-07
-1.36948e-06
1.21622e-06
-0.00108691
5.86601e-07
-1.53463e-06
-2.00792e-08
-5.89161e-07
-1.3663e-06
-1.37434e-07
5.01248e-07
-7.4383e-07
9.6378e-07
0.00108718
1.21426e-06
-0.00108604
5.86455e-07
-1.56132e-06
-1.89771e-08
-5.86195e-07
-1.36752e-06
-1.36333e-07
-7.43542e-07
5.04469e-07
-6.28582e-07
-6.3617e-07
0.000264562
-9.29146e-07
0.000267477
-0.00026536
-1.13411e-07
-1.05562e-07
1.24934e-06
6.04235e-07
0.00108474
-5.92272e-07
9.11525e-07
-3.66963e-08
4.81657e-07
-7.53538e-07
-1.58597e-07
-1.3664e-06
1.21562e-06
-0.00108657
5.86368e-07
-1.52901e-06
-2.22429e-08
-5.85875e-07
-1.36744e-06
-1.34447e-07
5.03632e-07
-7.46101e-07
9.29711e-07
0.00108823
1.21512e-06
-0.00108709
5.85424e-07
-1.52797e-06
-2.13705e-08
-5.8376e-07
-1.36504e-06
-1.36209e-07
-7.43706e-07
5.02341e-07
-0.000265373
-1.08578e-07
-1.03095e-07
1.56628e-06
1.53048e-06
-6.15212e-07
-6.20623e-07
0.000265634
-9.92403e-07
-9.52967e-07
0.000268502
-0.000266381
-9.08108e-08
-8.54009e-08
5.81461e-07
0.00108841
-5.88899e-07
9.77143e-07
-1.08517e-08
5.12297e-07
-7.37451e-07
-1.36597e-06
-1.3198e-07
-1.57052e-06
1.20397e-06
5.81072e-07
0.00108884
-5.89638e-07
9.8018e-07
-9.84817e-09
5.17609e-07
-7.42751e-07
-1.37233e-06
-1.28042e-07
0.00109173
1.1746e-06
-0.00109064
5.67075e-07
-1.56587e-06
1.26694e-09
-5.87006e-07
-1.35826e-06
-1.15365e-07
-7.27053e-07
5.2622e-07
9.95782e-07
0.00109216
1.17511e-06
-0.00109107
5.67504e-07
-1.56745e-06
1.4656e-09
-5.84106e-07
-1.37038e-06
-1.09194e-07
-7.34542e-07
5.33051e-07
-6.15336e-07
-6.19902e-07
0.00026566
-9.5627e-07
0.000268527
-0.000266406
-8.73328e-08
-8.2117e-08
5.80962e-07
0.00108946
-5.86819e-07
9.38184e-07
-1.50779e-08
5.10553e-07
-7.43768e-07
-1.36911e-06
-1.27689e-07
-1.56516e-06
1.20375e-06
5.80968e-07
0.00108852
-5.89795e-07
9.74744e-07
-9.8319e-09
5.13579e-07
-7.42312e-07
-1.36838e-06
-1.27232e-07
0.00109278
1.17507e-06
-0.00109169
5.65856e-07
-1.52618e-06
-3.30564e-09
-5.80959e-07
-1.36408e-06
-1.09427e-07
-7.32117e-07
5.33182e-07
9.89321e-07
0.00109184
1.17443e-06
-0.00109074
5.67177e-07
-1.5622e-06
2.86374e-10
-5.83833e-07
-1.36158e-06
-1.10052e-07
-7.34376e-07
5.29705e-07
1.20478e-06
5.82176e-07
0.00108832
-5.86891e-07
9.67706e-07
-1.67752e-08
5.0793e-07
-7.39974e-07
-1.31333e-07
-1.36312e-06
1.17574e-06
-0.00109142
5.66521e-07
-1.52851e-06
-3.02625e-09
-5.78699e-07
-1.36434e-06
-1.11981e-07
5.26582e-07
-7.31874e-07
9.84304e-07
0.00109163
1.17533e-06
-0.00109054
5.67985e-07
-1.55729e-06
-4.2306e-09
-5.81391e-07
-1.36459e-06
-1.10465e-07
-7.30134e-07
5.26162e-07
-6.12798e-07
-6.19969e-07
0.000265618
-9.5051e-07
0.000268476
-0.000266364
-8.96763e-08
-8.23623e-08
1.20586e-06
5.81175e-07
0.00108937
-5.84595e-07
9.33806e-07
-1.90024e-08
5.04835e-07
-7.40366e-07
-1.31363e-07
-1.36087e-06
1.17494e-06
-0.00109108
5.66134e-07
-1.5223e-06
-5.49218e-09
-5.74792e-07
-1.36396e-06
-1.08979e-07
5.28898e-07
-7.34427e-07
9.50065e-07
0.00109269
1.17599e-06
-0.0010916
5.66817e-07
-1.52373e-06
-6.44305e-09
-5.78864e-07
-1.36207e-06
-1.1032e-07
-7.30185e-07
5.24766e-07
-0.000266377
-8.8934e-08
-8.33349e-08
1.56318e-06
1.52487e-06
-6.00452e-07
-6.05244e-07
0.00026662
-1.0087e-06
-9.68589e-07
0.000269441
-0.000267317
-7.60721e-08
-7.01893e-08
5.62959e-07
0.0010928
-5.81782e-07
9.97234e-07
5.71629e-09
5.3324e-07
-7.26375e-07
-1.3637e-06
-1.04867e-07
-1.5674e-06
1.16604e-06
5.63541e-07
0.00109324
-5.85747e-07
9.98251e-07
1.37878e-09
5.39579e-07
-7.2983e-07
-1.36354e-06
-1.02946e-07
0.00109597
1.14125e-06
-0.00109492
5.5364e-07
-1.5634e-06
1.64884e-08
-5.80585e-07
-1.36144e-06
-8.94616e-08
-7.21564e-07
5.473e-07
1.01226e-06
0.00109641
1.14174e-06
-0.00109536
5.53929e-07
-1.56773e-06
1.55332e-08
-5.85029e-07
-1.36579e-06
-8.55971e-08
-7.23769e-07
5.53221e-07
-6.04385e-07
-6.09345e-07
0.000266646
-9.72423e-07
0.000269471
-0.000267346
-7.28594e-08
-6.71445e-08
5.62427e-07
0.00109386
-5.77244e-07
9.57781e-07
-9.51342e-10
5.32688e-07
-7.32365e-07
-1.36364e-06
-1.03151e-07
-1.5622e-06
1.16692e-06
5.64186e-07
0.00109292
-5.86315e-07
9.93894e-07
3.3247e-09
5.34879e-07
-7.29953e-07
-1.36694e-06
-1.02025e-07
0.00109703
1.1417e-06
-0.00109598
5.52767e-07
-1.524e-06
9.61284e-09
-5.74728e-07
-1.36392e-06
-8.66239e-08
-7.23751e-07
5.54325e-07
1.00743e-06
0.00109608
1.13937e-06
-0.00109504
5.52576e-07
-1.56123e-06
1.75029e-08
-5.84875e-07
-1.36e-06
-8.52633e-08
-7.21281e-07
5.55373e-07
1.16459e-06
5.62655e-07
0.00109271
-5.7775e-07
9.89345e-07
1.43648e-10
5.35792e-07
-7.28097e-07
-1.06254e-07
-1.35852e-06
1.14243e-06
-0.00109571
5.53199e-07
-1.52845e-06
9.30668e-09
-5.79301e-07
-1.36001e-06
-8.79002e-08
5.48497e-07
-7.2097e-07
1.00268e-06
0.00109587
1.13951e-06
-0.00109483
5.51572e-07
-1.55398e-06
1.7115e-08
-5.7351e-07
-1.35857e-06
-9.08332e-08
-7.20255e-07
5.46507e-07
-6.03486e-07
-6.10123e-07
0.000266603
-9.6852e-07
0.000269421
-0.000267307
-7.25686e-08
-6.51085e-08
1.16606e-06
5.61736e-07
0.00109377
-5.75534e-07
9.55373e-07
-2.0835e-09
5.31648e-07
-7.28637e-07
-1.06498e-07
-1.35577e-06
1.14146e-06
-0.00109537
5.52139e-07
-1.522e-06
9.24585e-09
-5.76382e-07
-1.36028e-06
-8.50085e-08
5.5103e-07
-7.21649e-07
9.68586e-07
0.00109693
1.14066e-06
-0.00109589
5.50828e-07
-1.52012e-06
1.41691e-08
-5.70735e-07
-1.35747e-06
-9.05107e-08
-7.20499e-07
5.44868e-07
-0.000267318
-6.8313e-08
-6.28004e-08
1.56372e-06
1.52525e-06
-5.96128e-07
-6.0101e-07
0.000267549
-1.02676e-06
-9.87809e-07
0.000270328
-0.000268208
-5.54843e-08
-5.05927e-08
5.49146e-07
0.00109699
-5.84558e-07
1.01403e-06
2.20096e-08
5.60876e-07
-7.15112e-07
-1.35531e-06
-8.26759e-08
-1.56483e-06
1.13006e-06
5.48101e-07
0.00109743