/*--------------------------------*- C++ -*----------------------------------*\
| =========                 |                                                 |
| \\      /  F ield         | OpenFOAM: The Open Source CFD Toolbox           |
|  \\    /   O peration     | Version:  v1906                                 |
|   \\  /    A nd           | Web:      www.OpenFOAM.com                      |
|    \\/     M anipulation  |                                                 |
\*---------------------------------------------------------------------------*/
FoamFile
{
    version     2.0;
    format      ascii;
    class       volVectorField;
    location    "875";
    object      U;
}
// * * * * * * * * * * * * * * * * * * * * * * * * * * * * * * * * * * * * * //

dimensions      [0 1 -1 0 0 0 0];


internalField   nonuniform List<vector> 
42616
(
(-1.07184e-05 -1.03827e-05 0.112445)
(1.15513e-05 -4.83068e-06 0.107485)
(-5.51568e-06 1.19716e-05 0.107484)
(-2.73071e-05 -2.69752e-05 0.104201)
(-1.2352e-05 -1.21144e-05 0.11241)
(1.17772e-05 -7.30417e-06 0.107477)
(-7.19845e-06 1.1704e-05 0.107477)
(-2.50235e-05 -2.50566e-05 0.104206)
(-1.0714e-05 -1.13697e-05 0.112373)
(1.20006e-05 -5.19084e-06 0.107469)
(-4.5692e-06 1.18402e-05 0.107468)
(-2.75074e-05 -2.7804e-05 0.10421)
(-1.27273e-05 -1.22198e-05 0.112342)
(1.14387e-05 -8.15165e-06 0.107466)
(-9.06444e-06 1.15719e-05 0.107465)
(-2.48672e-05 -2.46399e-05 0.104216)
(-1.27364e-05 -1.30296e-05 0.112301)
(1.3937e-05 -5.25077e-06 0.107459)
(-4.252e-06 1.37327e-05 0.107458)
(-2.579e-05 -2.59917e-05 0.104226)
(-8.34814e-06 -8.05507e-06 0.112272)
(7.66985e-06 -3.77904e-06 0.107451)
(-4.91755e-06 8.20555e-06 0.107451)
(-2.9756e-05 -2.93513e-05 0.10422)
(-1.59407e-05 -1.57139e-05 0.112244)
(1.41954e-05 -1.12449e-05 0.107458)
(-1.08325e-05 1.39239e-05 0.107458)
(-2.25117e-05 -2.28148e-05 0.104246)
(-1.20136e-05 -1.35316e-05 0.112204)
(1.23766e-05 -4.14842e-06 0.107453)
(-2.59043e-06 1.17025e-05 0.107451)
(-2.71016e-05 -2.77695e-05 0.104257)
(-7.60388e-06 -5.50348e-06 0.112177)
(8.27677e-06 -2.90217e-06 0.10744)
(-6.65838e-06 9.67757e-06 0.107441)
(-2.99313e-05 -2.87466e-05 0.104241)
(-1.45423e-05 -1.51316e-05 0.112146)
(1.3125e-05 -9.06282e-06 0.107444)
(-6.09202e-06 1.26252e-05 0.107445)
(-2.3614e-05 -2.39685e-05 0.104265)
(-1.20618e-05 -1.39594e-05 0.112121)
(9.00291e-06 -7.14825e-06 0.107451)
(-6.76728e-06 7.88667e-06 0.107447)
(-2.73525e-05 -2.87818e-05 0.104283)
(-1.31116e-05 -1.04076e-05 0.112083)
(1.38911e-05 -2.71317e-06 0.107439)
(-7.99861e-06 1.63791e-05 0.107441)
(-2.65877e-05 -2.44883e-05 0.104284)
(-1.20498e-06 -1.57339e-06 0.112067)
(4.95162e-06 -3.96166e-06 0.107438)
(3.8316e-06 2.39595e-06 0.107437)
(-3.2725e-05 -3.36113e-05 0.10427)
(-2.34386e-05 -2.69484e-05 0.112041)
(1.63931e-05 -1.43166e-05 0.107455)
(-1.82666e-05 1.62076e-05 0.10745)
(-1.76878e-05 -1.88485e-05 0.104328)
(-5.67831e-06 7.14895e-07 0.112008)
(5.04002e-06 4.58683e-06 0.107441)
(8.61803e-07 1.04515e-05 0.107452)
(-3.76987e-05 -3.31493e-05 0.104316)
(-1.23287e-05 -1.80421e-05 0.111991)
(1.39443e-05 -1.62366e-05 0.107441)
(-4.14994e-06 4.26063e-06 0.107429)
(-1.73541e-05 -2.55947e-05 0.104303)
(-1.0051e-06 4.51218e-07 0.111942)
(1.10566e-05 8.23508e-06 0.10743)
(-2.62623e-06 1.52853e-05 0.107423)
(-3.78209e-05 -3.32155e-05 0.104307)
(3.19602e-06 4.98706e-06 0.112004)
(-2.14723e-05 1.65251e-06 0.107462)
(7.60562e-06 -1.46811e-05 0.107485)
(-5.46908e-05 -4.64137e-05 0.104318)
(-6.4941e-05 -6.63244e-05 0.111995)
(4.47382e-05 -5.0955e-05 0.107543)
(-5.36127e-05 3.44824e-05 0.107544)
(3.23959e-05 1.97971e-05 0.104539)
(-3.81847e-07 4.64178e-06 0.111817)
(2.53829e-05 3.7547e-05 0.107416)
(3.62503e-05 3.61905e-05 0.107404)
(-3.26872e-05 -3.0386e-05 0.104397)
(2.5472e-05 -5.95769e-06 0.111949)
(6.56277e-05 -6.53891e-05 0.107611)
(-2.62349e-05 3.89379e-05 0.10755)
(1.70679e-05 -3.24191e-07 0.104374)
(-4.27955e-05 -4.25751e-05 0.104314)
(-4.7894e-06 -1.14336e-05 0.107485)
(5.78881e-06 -1.19834e-05 0.107484)
(4.33742e-05 -4.31183e-05 0.104315)
(-1.15306e-05 -4.60428e-06 0.107486)
(-1.19979e-05 6.37456e-06 0.107483)
(1.21303e-05 -5.51764e-06 0.107487)
(1.17334e-05 5.52338e-06 0.107484)
(-4.34881e-05 4.39568e-05 0.104315)
(-6.0156e-06 1.23976e-05 0.107486)
(5.24006e-06 1.19763e-05 0.107485)
(4.31261e-05 4.34329e-05 0.104313)
(2.75396e-05 2.78402e-05 0.104201)
(-4.55024e-05 -4.52052e-05 0.104317)
(-4.94827e-06 -1.08211e-05 0.107482)
(5.24591e-06 -1.12095e-05 0.107482)
(-7.73984e-06 -1.14933e-05 0.107477)
(6.21544e-06 -1.10206e-05 0.107476)
(-2.72471e-05 2.75508e-05 0.104202)
(4.43471e-05 -4.44229e-05 0.104316)
(-1.11251e-05 -4.54908e-06 0.107484)
(-1.14765e-05 5.93249e-06 0.107482)
(-1.19051e-05 -7.4171e-06 0.107478)
(-1.14979e-05 6.24566e-06 0.107476)
(1.13251e-05 5.49447e-06 0.107482)
(1.10922e-05 -6.36138e-06 0.107479)
(1.13617e-05 7.04056e-06 0.107476)
(2.71229e-05 -2.66893e-05 0.104202)
(-4.4621e-05 4.41848e-05 0.104317)
(5.09023e-06 1.16468e-05 0.107483)
(-6.5842e-06 1.11886e-05 0.107479)
(6.91818e-06 1.14937e-05 0.107478)
(4.47373e-05 4.47998e-05 0.104317)
(2.44326e-05 2.45556e-05 0.104206)
(-4.19505e-05 -4.26868e-05 0.104321)
(-8.08736e-06 -1.24297e-05 0.107475)
(6.93816e-06 -1.19219e-05 0.107474)
(-4.67946e-06 -1.26624e-05 0.107469)
(6.29436e-06 -1.301e-05 0.107468)
(-2.53912e-05 2.51774e-05 0.104205)
(4.34303e-05 -4.35184e-05 0.104321)
(-1.26403e-05 -8.05206e-06 0.107477)
(-1.22392e-05 6.71552e-06 0.107474)
(-1.20339e-05 -5.41665e-06 0.107471)
(-1.22774e-05 5.72708e-06 0.107467)
(1.20857e-05 7.51255e-06 0.107475)
(1.28607e-05 -6.33287e-06 0.107471)
(1.2797e-05 5.41764e-06 0.107469)
(2.51328e-05 -2.56805e-05 0.104206)
(-4.26968e-05 4.32048e-05 0.10432)
(7.59188e-06 1.20823e-05 0.107476)
(-5.49683e-06 1.26603e-05 0.10747)
(5.86877e-06 1.25541e-05 0.10747)
(4.30977e-05 4.2767e-05 0.104321)
(2.84889e-05 2.7808e-05 0.10421)
(-4.5006e-05 -4.44479e-05 0.104326)
(-3.81969e-06 -1.15321e-05 0.107467)
(5.30413e-06 -1.19924e-05 0.107467)
(-7.38951e-06 -1.05461e-05 0.107464)
(6.23622e-06 -1.03757e-05 0.107464)
(-2.71551e-05 2.71131e-05 0.10421)
(4.38053e-05 -4.39008e-05 0.104327)
(-1.09276e-05 -4.49121e-06 0.107469)
(-1.12004e-05 4.96377e-06 0.107465)
(-1.09e-05 -6.95432e-06 0.107466)
(-1.08852e-05 6.77628e-06 0.107463)
(1.18115e-05 4.3407e-06 0.107467)
(1.0338e-05 -6.47605e-06 0.107467)
(1.02477e-05 6.51745e-06 0.107463)
(2.78415e-05 -2.72908e-05 0.104209)
(-4.48248e-05 4.41342e-05 0.104326)
(4.74053e-06 1.15757e-05 0.107468)
(-7.27586e-06 1.04084e-05 0.107465)
(6.34541e-06 1.03529e-05 0.107464)
(4.38586e-05 4.40443e-05 0.104324)
(2.37228e-05 2.43712e-05 0.104218)
(-4.42946e-05 -4.45593e-05 0.104337)
(-9.17878e-06 -1.17956e-05 0.107464)
(7.82968e-06 -1.15439e-05 0.107464)
(-7.41619e-06 -1.45814e-05 0.107459)
(8.001e-06 -1.46412e-05 0.107458)
(-2.49867e-05 2.4842e-05 0.104218)
(4.50258e-05 -4.47747e-05 0.104337)
(-1.24605e-05 -8.53192e-06 0.107465)
(-1.24493e-05 8.38071e-06 0.107463)
(-1.45473e-05 -7.56402e-06 0.107461)
(-1.43864e-05 7.38625e-06 0.107458)
(1.14009e-05 8.37946e-06 0.107463)
(1.48271e-05 -7.72298e-06 0.107461)
(1.47387e-05 7.93899e-06 0.107459)
(2.38094e-05 -2.46911e-05 0.104218)
(-4.38282e-05 4.44258e-05 0.104336)
(8.07902e-06 1.16152e-05 0.107464)
(-7.03334e-06 1.46922e-05 0.10746)
(8.00693e-06 1.47309e-05 0.10746)
(4.49545e-05 4.48418e-05 0.104336)
(2.67149e-05 2.62002e-05 0.104227)
(-3.91552e-05 -3.90685e-05 0.104326)
(-4.89531e-06 -1.36718e-05 0.107457)
(5.73984e-06 -1.36465e-05 0.107456)
(-1.68761e-06 -7.75657e-06 0.107449)
(2.0672e-06 -7.6749e-06 0.107448)
(-2.5829e-05 2.61091e-05 0.104226)
(3.94039e-05 -3.91498e-05 0.104327)
(-1.31871e-05 -5.4743e-06 0.107458)
(-1.28204e-05 5.07398e-06 0.107455)
(-7.58096e-06 -1.71682e-06 0.10745)
(-7.44872e-06 2.79704e-06 0.107447)
(1.3922e-05 5.6645e-06 0.107456)
(7.88764e-06 -1.73088e-06 0.107451)
(8.18191e-06 2.60377e-06 0.10745)
(2.73316e-05 -2.6459e-05 0.104226)
(-3.9643e-05 4.01031e-05 0.104326)
(5.9356e-06 1.37357e-05 0.107458)
(-2.22442e-06 8.1732e-06 0.107451)
(2.42998e-06 8.33578e-06 0.107451)
(3.96534e-05 3.99334e-05 0.104328)
(3.0105e-05 3.0427e-05 0.104218)
(-4.76617e-05 -4.70868e-05 0.104352)
(-3.37032e-06 -7.17678e-06 0.107448)
(3.93361e-06 -7.46198e-06 0.107448)
(-1.12256e-05 -1.22523e-05 0.107453)
(1.05472e-05 -1.27931e-05 0.107453)
(-2.97306e-05 2.98904e-05 0.104219)
(4.68544e-05 -4.73946e-05 0.104353)
(-7.52376e-06 -2.8759e-06 0.10745)
(-8.05353e-06 5.09106e-06 0.107448)
(-1.30648e-05 -1.0647e-05 0.107455)
(-1.39006e-05 1.02969e-05 0.107454)
(7.6245e-06 3.98847e-06 0.107449)
(1.25784e-05 -1.12518e-05 0.107456)
(1.20537e-05 9.6812e-06 0.107452)
(2.90096e-05 -2.88897e-05 0.104219)
(-4.77279e-05 4.63687e-05 0.104355)
(3.48462e-06 8.09166e-06 0.107451)
(-1.16087e-05 1.26793e-05 0.107456)
(9.61389e-06 1.22198e-05 0.107454)
(4.6283e-05 4.62458e-05 0.10435)
(2.13259e-05 2.15201e-05 0.104249)
(-4.22974e-05 -4.41257e-05 0.104371)
(-1.18648e-05 -1.47038e-05 0.107456)
(1.02444e-05 -1.47494e-05 0.107456)
(-6.29373e-06 -1.54128e-05 0.107456)
(5.22509e-06 -1.41988e-05 0.107453)
(-2.25028e-05 2.17752e-05 0.104249)
(4.18211e-05 -4.2458e-05 0.104367)
(-1.50238e-05 -1.19246e-05 0.107458)
(-1.51462e-05 9.40362e-06 0.107456)
(-1.38271e-05 -8.00858e-06 0.107457)
(-1.24759e-05 3.95202e-06 0.107451)
(1.40866e-05 1.00595e-05 0.107454)
(1.34554e-05 -5.89171e-06 0.107456)
(1.43374e-05 6.20696e-06 0.107453)
(2.18418e-05 -2.31503e-05 0.10425)
(-4.04526e-05 4.09816e-05 0.104363)
(1.05049e-05 1.37917e-05 0.107456)
(-3.88363e-06 1.27164e-05 0.107453)
(7.24734e-06 1.36047e-05 0.107454)
(4.34067e-05 4.25545e-05 0.104366)
(2.83494e-05 2.66689e-05 0.104261)
(-3.89158e-05 -3.70331e-05 0.104344)
(-3.46241e-06 -1.36058e-05 0.107454)
(4.04733e-06 -1.27421e-05 0.107451)
(-5.27431e-07 -6.13222e-06 0.107438)
(3.08307e-06 -7.27268e-06 0.107438)
(-2.80079e-05 2.76358e-05 0.104257)
(4.06023e-05 -3.90795e-05 0.104347)
(-1.20894e-05 -4.97255e-06 0.107455)
(-1.09583e-05 3.29258e-06 0.107448)
(-7.29826e-06 1.12134e-06 0.107439)
(-8.41997e-06 5.44035e-06 0.107437)
(1.28601e-05 4.16386e-06 0.107451)
(8.3801e-06 -1.47085e-06 0.10744)
(7.4404e-06 2.23073e-06 0.107439)
(2.933e-05 -2.85917e-05 0.104253)
(-4.15649e-05 4.23931e-05 0.104349)
(4.935e-06 1.23333e-05 0.107452)
(-4.30101e-06 9.20617e-06 0.10744)
(1.10237e-06 7.97285e-06 0.10744)
(3.88537e-05 3.98689e-05 0.104347)
(2.96921e-05 3.18574e-05 0.104236)
(-4.62323e-05 -4.6297e-05 0.104363)
(-2.95671e-06 -5.54553e-06 0.107436)
(4.71575e-06 -6.75281e-06 0.107437)
(-1.03995e-05 -1.20561e-05 0.107435)
(9.75215e-06 -1.21155e-05 0.107438)
(-2.84299e-05 2.99709e-05 0.10424)
(4.58178e-05 -4.58111e-05 0.104368)
(-7.68948e-06 -4.84267e-07 0.107437)
(-9.29543e-06 7.69368e-06 0.107438)
(-1.2795e-05 -1.01633e-05 0.107437)
(-1.29122e-05 8.48229e-06 0.107441)
(7.26403e-06 4.53815e-06 0.107438)
(1.26614e-05 -9.65963e-06 0.107442)
(1.2645e-05 1.02646e-05 0.107439)
(2.68516e-05 -2.62685e-05 0.104244)
(-4.43129e-05 4.44042e-05 0.104372)
(2.85997e-06 8.33605e-06 0.107439)
(-8.45922e-06 1.31058e-05 0.107443)
(9.9646e-06 1.34288e-05 0.107441)
(4.59809e-05 4.62321e-05 0.104368)
(2.38953e-05 2.28994e-05 0.104261)
(-4.04197e-05 -4.27084e-05 0.104395)
(-9.22529e-06 -1.39528e-05 0.107439)
(8.13189e-06 -1.35461e-05 0.107441)
(-4.92331e-06 -1.13656e-05 0.10745)
(3.19912e-06 -1.05779e-05 0.107446)
(-2.42757e-05 2.36891e-05 0.104265)
(3.93106e-05 -4.11686e-05 0.104389)
(-1.30837e-05 -1.0729e-05 0.107441)
(-1.24399e-05 5.64275e-06 0.107442)
(-9.12211e-06 -7.45597e-06 0.107451)
(-8.16755e-06 1.52107e-06 0.107442)
(1.3628e-05 8.42363e-06 0.107442)
(8.98726e-06 -5.20478e-06 0.107448)
(1.01948e-05 3.26323e-06 0.107446)
(2.60564e-05 -2.60713e-05 0.104267)
(-3.9477e-05 3.81563e-05 0.10438)
(9.40085e-06 1.34318e-05 0.107443)
(-3.02127e-06 7.37716e-06 0.107444)
(5.34341e-06 8.40803e-06 0.107447)
(4.12308e-05 3.93495e-05 0.104388)
(2.73978e-05 2.57479e-05 0.104291)
(-4.79693e-05 -4.58e-05 0.104401)
(-7.17316e-06 -1.10628e-05 0.107454)
(5.14754e-06 -1.03866e-05 0.107449)
(-1.0277e-05 -1.59714e-05 0.107447)
(9.13848e-06 -1.59438e-05 0.107442)
(-2.86941e-05 2.70001e-05 0.104284)
(4.66027e-05 -4.68662e-05 0.104395)
(-9.63333e-06 -8.61086e-06 0.107455)
(-9.21198e-06 4.93063e-06 0.107444)
(-1.71263e-05 -8.04333e-06 0.107447)
(-1.7127e-05 1.23281e-05 0.107442)
(9.80194e-06 4.98979e-06 0.107449)
(1.49507e-05 -9.65057e-06 0.107444)
(1.38252e-05 9.221e-06 0.107441)
(2.77249e-05 -2.92738e-05 0.104276)
(-4.96206e-05 4.90115e-05 0.104398)
(6.27195e-06 8.54656e-06 0.10745)
(-1.31561e-05 1.58459e-05 0.107443)
(7.2253e-06 1.4913e-05 0.107442)
(4.47884e-05 4.66776e-05 0.104392)
(2.47506e-05 2.72498e-05 0.10429)
(-2.87255e-05 -2.78044e-05 0.104356)
(-3.24013e-06 -1.34945e-05 0.10744)
(3.82502e-06 -1.39534e-05 0.107437)
(8.53292e-06 3.35552e-06 0.10742)
(-1.08269e-06 1.65489e-06 0.107426)
(-2.53587e-05 2.5635e-05 0.104285)
(3.51025e-05 -3.0462e-05 0.104369)
(-1.57279e-05 -1.34812e-07 0.107441)
(-1.63919e-05 8.75086e-06 0.10744)
(1.22034e-06 9.48658e-06 0.107423)
(-3.13442e-07 -3.20943e-06 0.10743)
(1.29391e-05 5.35704e-06 0.107437)
(2.77109e-06 6.06115e-06 0.107429)
(2.47245e-06 -2.05281e-06 0.107428)
(2.18286e-05 -2.17145e-05 0.104292)
(-2.90281e-05 3.29056e-05 0.104375)
(2.69096e-06 1.4685e-05 0.107438)
(7.57261e-06 3.88496e-06 0.107432)
(-2.25262e-06 3.37498e-06 0.107429)
(3.38912e-05 3.3898e-05 0.104372)
(3.73658e-05 3.70978e-05 0.104254)
(-5.64921e-05 -6.14694e-05 0.104432)
(-2.15208e-07 6.12608e-07 0.107427)
(7.86124e-06 -7.94392e-07 0.107435)
(-2.22375e-05 -2.24958e-05 0.107444)
(1.54285e-05 -2.04154e-05 0.107446)
(-3.05055e-05 3.45708e-05 0.104269)
(5.02072e-05 -5.58082e-05 0.104434)
(6.10009e-07 -1.83375e-06 0.107429)
(7.31575e-07 -2.71908e-07 0.107434)
(-1.73111e-05 -2.75039e-05 0.107446)
(-1.39296e-05 1.25608e-05 0.107439)
(3.98147e-06 3.08722e-06 0.107435)
(1.65519e-05 -2.07625e-05 0.10745)
(1.69543e-05 1.47788e-05 0.107445)
(3.90211e-05 -3.57685e-05 0.10427)
(-5.31622e-05 4.97045e-05 0.104415)
(4.95096e-06 3.30638e-06 0.107436)
(-1.62392e-05 1.18214e-05 0.107442)
(1.81648e-05 1.41095e-05 0.107448)
(5.32599e-05 5.07179e-05 0.104427)
(1.40031e-05 1.04618e-05 0.104336)
(-3.04483e-05 -2.28813e-05 0.104432)
(-1.90909e-05 -2.48008e-05 0.107455)
(7.6421e-06 -2.20732e-05 0.107452)
(4.94751e-06 -4.53989e-06 0.10745)
(-6.10016e-06 -5.73274e-06 0.10744)
(-2.23393e-05 1.62338e-05 0.104333)
(3.13544e-05 -2.95677e-05 0.104415)
(-2.12591e-05 -2.15514e-05 0.107456)
(-1.9457e-05 1.34323e-05 0.107447)
(-1.05857e-05 1.3092e-05 0.107449)
(-1.43472e-05 4.96346e-06 0.107445)
(1.84096e-05 1.34178e-05 0.107453)
(5.93726e-06 7.24864e-06 0.10744)
(7.10774e-06 9.43288e-07 0.107443)
(1.50693e-05 -1.88965e-05 0.104318)
(-3.8342e-05 3.89495e-05 0.104439)
(1.39686e-05 1.73854e-05 0.107455)
(-4.61839e-06 1.43485e-05 0.107448)
(-6.13357e-06 1.2285e-05 0.107444)
(3.04036e-05 3.63077e-05 0.104427)
(3.84772e-05 4.54171e-05 0.104318)
(-5.08365e-05 -5.67464e-05 0.104409)
(6.52322e-06 6.19595e-07 0.107449)
(-9.3163e-07 -2.02308e-06 0.10744)
(-1.2104e-05 -1.19035e-05 0.107429)
(1.47114e-05 -1.07323e-05 0.107429)
(-3.45018e-05 3.77391e-05 0.104304)
(5.11297e-05 -5.06221e-05 0.104416)
(-5.5925e-06 1.29175e-05 0.10745)
(-9.3486e-06 7.21502e-07 0.10745)
(-8.27519e-06 -1.86069e-05 0.107432)
(-4.50466e-06 -2.10412e-06 0.107428)
(4.75051e-06 -1.22231e-06 0.107445)
(1.22141e-05 -1.42604e-05 0.107433)
(1.06981e-05 3.3309e-06 0.107427)
(3.30144e-05 -3.18197e-05 0.10433)
(-3.92058e-05 3.70116e-05 0.104399)
(-5.35945e-06 8.48313e-06 0.107446)
(3.90993e-07 2.85774e-06 0.107428)
(1.18049e-05 4.49484e-06 0.107427)
(4.9276e-05 4.11468e-05 0.104404)
(1.49879e-05 8.17294e-06 0.104311)
(-2.99647e-05 -2.93854e-05 0.104413)
(-1.75289e-05 -1.85367e-05 0.107435)
(1.44441e-05 -1.46746e-05 0.107437)
(3.43597e-06 -1.50523e-05 0.107416)
(2.37603e-06 -1.50295e-05 0.10742)
(-1.76893e-05 1.68549e-05 0.104317)
(3.6387e-05 -3.61195e-05 0.104421)
(-1.2824e-05 -2.53073e-05 0.107439)
(-7.1382e-06 1.16388e-06 0.107428)
(-1.39762e-05 2.99138e-06 0.107418)
(-1.3886e-05 1.08615e-05 0.107409)
(1.39193e-05 6.88363e-06 0.107432)
(1.40257e-05 -2.08663e-06 0.107425)
(1.34842e-05 4.68955e-06 0.107418)
(2.71736e-05 -3.00388e-05 0.104294)
(-4.27228e-05 4.56102e-05 0.104405)
(1.55163e-05 6.89497e-06 0.107432)
(-8.66387e-06 1.44344e-05 0.107412)
(3.47474e-06 1.3353e-05 0.107418)
(3.71368e-05 3.94862e-05 0.104413)
(4.67511e-05 4.92547e-05 0.104299)
(-7.0038e-06 -2.6503e-06 0.104355)
(1.82456e-05 -4.31575e-06 0.107416)
(-3.67907e-06 -9.78786e-06 0.107426)
(2.18439e-05 3.34727e-05 0.107408)
(-2.10993e-05 2.85267e-05 0.107425)
(-3.64289e-05 3.82219e-05 0.104312)
(7.72284e-06 -3.68372e-06 0.104386)
(-6.18099e-06 2.27193e-05 0.107416)
(-1.10275e-05 1.02018e-05 0.107419)
(2.96288e-05 2.83522e-05 0.107407)
(2.35765e-05 -1.14977e-05 0.107436)
(8.33319e-06 -4.10801e-07 0.107424)
(-2.38149e-05 2.69322e-05 0.107424)
(-2.4987e-05 -1.30083e-05 0.107427)
(2.99972e-05 -2.51282e-05 0.104304)
(-5.50181e-06 1.5644e-05 0.104423)
(-7.16331e-06 1.20671e-05 0.107424)
(2.24965e-05 -1.16281e-05 0.107444)
(-2.48668e-05 -1.42324e-05 0.107432)
(4.76605e-06 1.52006e-05 0.1044)
(4.32776e-05 4.59429e-05 0.104283)
(-9.70423e-05 -0.000101237 0.104658)
(-1.41697e-05 2.10427e-05 0.107454)
(-2.56632e-06 2.29922e-05 0.107463)
(-7.42911e-05 -5.37165e-05 0.107545)
(4.6511e-05 -4.45979e-05 0.107516)
(-5.30623e-05 5.46656e-05 0.104304)
(7.67415e-05 -8.96115e-05 0.104598)
(1.92977e-05 -1.2273e-05 0.107453)
(2.14264e-05 -4.7895e-06 0.107477)
(-5.05377e-05 -7.93691e-05 0.107547)
(-3.96197e-05 3.22206e-05 0.107523)
(-2.1093e-05 4.30893e-06 0.107467)
(3.42913e-05 -6.16243e-05 0.107518)
(3.92559e-05 4.76905e-05 0.107527)
(5.84159e-05 -5.19779e-05 0.104337)
(-8.73243e-05 6.56972e-05 0.104594)
(-2.06899e-06 -1.26321e-05 0.107474)
(-5.44613e-05 2.14363e-05 0.107526)
(5.95362e-05 2.98239e-05 0.107534)
(8.84921e-05 7.61889e-05 0.104613)
(-3.69277e-05 -4.08384e-05 0.104589)
(-1.06525e-05 -5.13137e-06 0.104493)
(-5.8437e-05 -6.35041e-05 0.10758)
(3.70674e-05 -5.55643e-05 0.107541)
(1.94551e-05 -4.82925e-05 0.107465)
(-6.88757e-06 -4.51054e-05 0.107433)
(1.85831e-05 -3.04779e-05 0.104524)
(2.01582e-05 -1.01952e-05 0.104456)
(-5.98658e-05 -6.364e-05 0.107582)
(-5.45178e-05 3.16718e-05 0.107545)
(-5.43694e-05 2.51816e-05 0.107467)
(-5.89053e-05 7.86876e-06 0.107436)
(5.25958e-05 4.05807e-05 0.107553)
(5.04637e-05 1.68868e-05 0.107436)
(5.61994e-05 -2.82234e-06 0.107448)
(-3.26059e-05 1.18425e-05 0.104517)
(-2.48322e-05 3.33221e-05 0.104465)
(5.40528e-05 4.00822e-05 0.107556)
(-1.84413e-07 6.17716e-05 0.107428)
(-5.29891e-06 5.70572e-05 0.10744)
(2.1392e-05 2.3059e-05 0.104477)
(4.26625e-05 4.68827e-05 0.104397)
(-1.9315e-06 -2.49929e-05 0.103955)
(5.26464e-05 -1.35871e-05 0.107419)
(-2.0561e-05 -1.38813e-05 0.107412)
(1.36745e-05 -2.59343e-05 0.107244)
(5.22276e-05 -4.33224e-05 0.107343)
(-2.75051e-05 4.00739e-05 0.104386)
(5.76567e-05 -5.53645e-05 0.104136)
(-1.91802e-05 5.59798e-05 0.107422)
(-2.51821e-05 -1.93191e-05 0.107411)
(-5.5573e-06 -1.36264e-05 0.107243)
(-1.44517e-05 9.36565e-06 0.10728)
(2.54111e-05 -3.61267e-05 0.107418)
(4.76141e-05 -4.86219e-05 0.107349)
(2.92878e-05 -1.34935e-05 0.107267)
(3.2312e-05 -1.97177e-05 0.104392)
(-1.19539e-05 1.80903e-05 0.104019)
(-3.88598e-05 2.8173e-05 0.107408)
(-5.33245e-07 2.29247e-05 0.107283)
(8.13258e-06 1.44074e-05 0.10726)
(2.16678e-05 3.61407e-06 0.103986)
(-1.829e-06 -2.49624e-05 0.104355)
(-1.5984e-05 -4.7612e-05 0.107509)
(6.38936e-05 -6.54917e-05 0.107607)
(4.89466e-05 -4.96082e-05 0.104525)
(-2.62954e-05 -4.20128e-05 0.107508)
(-3.37101e-05 3.02204e-05 0.107546)
(2.5294e-05 -2.72779e-05 0.112001)
(1.46214e-05 -1.03674e-05 0.111966)
(-3.65005e-06 -2.79731e-05 0.111951)
(4.59042e-05 1.0554e-05 0.107527)
(-1.02812e-05 1.41088e-05 0.10441)
(3.04455e-05 3.10872e-05 0.107524)
(-1.09577e-05 -1.08415e-05 0.112453)
(1.16658e-05 -1.15107e-05 0.112453)
(-1.16611e-05 1.19741e-05 0.112452)
(1.11316e-05 1.1362e-05 0.112453)
(-6.04979e-07 -1.23452e-05 0.0914539)
(-2.00179e-08 3.47719e-06 0.0822726)
(-2.40916e-07 -1.02818e-06 0.0914129)
(-1.35071e-06 -8.27707e-06 0.0823235)
(-5.76041e-07 1.4598e-06 0.0715902)
(2.39659e-06 -3.73133e-06 0.0716426)
(-1.2358e-05 -3.91725e-07 0.0914535)
(3.48697e-06 1.54268e-07 0.0822713)
(-6.38166e-07 5.33493e-08 0.091413)
(-8.28862e-06 -1.15404e-06 0.082323)
(1.11878e-05 -1.08519e-05 0.112445)
(-1.12588e-05 1.16975e-05 0.112444)
(1.08282e-05 1.12075e-05 0.112444)
(-1.17637e-05 -1.13134e-05 0.112419)
(1.08523e-05 -1.07678e-05 0.112419)
(-1.12217e-05 1.10788e-05 0.112419)
(1.12137e-05 1.14651e-05 0.112418)
(2.18351e-05 9.95281e-08 0.0985963)
(-1.54865e-06 -1.51752e-07 0.0930382)
(1.46216e-05 -2.3394e-06 0.109895)
(1.10056e-05 -4.76276e-06 0.107483)
(-3.85969e-08 -7.11191e-08 0.0985411)
(1.62399e-05 -5.57082e-06 0.0930923)
(1.4027e-05 -2.04378e-06 0.109891)
(1.65071e-06 -6.12559e-07 0.0715841)
(-3.56153e-06 2.524e-06 0.0716394)
(-3.00054e-07 2.19356e-05 0.098597)
(-2.93073e-06 1.49346e-05 0.109894)
(2.37961e-09 -1.93143e-06 0.093039)
(-5.43765e-06 1.14135e-05 0.107483)
(-5.32315e-07 -1.48398e-07 0.0985412)
(-2.70205e-06 1.43906e-05 0.10989)
(-5.90521e-06 1.63991e-05 0.0930927)
(1.29447e-07 -1.34573e-06 0.0875908)
(-1.54676e-06 2.7242e-07 0.0875896)
(4.32654e-05 4.36011e-05 0.104314)
(6.18663e-06 5.24741e-06 0.0876343)
(5.134e-06 6.29278e-06 0.0876326)
(-1.2607e-07 -1.10503e-05 0.0914846)
(9.26851e-07 5.44205e-06 0.0823055)
(-6.67156e-07 2.1024e-06 0.0914428)
(-1.00316e-06 -7.73833e-06 0.0823495)
(-1.4937e-06 3.2047e-06 0.0716192)
(2.69764e-06 -2.28496e-06 0.071657)
(-1.15592e-05 -3.57007e-07 0.0914845)
(5.31079e-06 8.18822e-07 0.0823042)
(1.6225e-06 -6.64108e-07 0.0914437)
(-7.80914e-06 -1.2566e-06 0.0823503)
(1.13774e-05 -1.15356e-05 0.112411)
(-1.17623e-05 1.13707e-05 0.11241)
(1.18104e-05 1.1886e-05 0.11241)
(-1.15591e-05 -1.21757e-05 0.112381)
(1.23618e-05 -1.251e-05 0.112381)
(-1.17701e-05 1.19097e-05 0.11238)
(1.22393e-05 1.18664e-05 0.112381)
(2.07746e-05 -9.69212e-07 0.098616)
(-5.59015e-06 1.48163e-06 0.0930647)
(1.40167e-05 -3.03439e-06 0.109877)
(1.25794e-05 -7.73496e-06 0.107475)
(-2.42641e-06 -6.25432e-07 0.09856)
(1.52251e-05 -4.76306e-06 0.0931216)
(1.48257e-05 -3.4455e-06 0.109872)
(2.90926e-06 -1.15049e-06 0.0716156)
(-2.56736e-06 2.84357e-06 0.0716612)
(-5.85437e-07 2.09924e-05 0.0986161)
(-3.01328e-06 1.40388e-05 0.109877)
(1.01159e-06 -4.89691e-06 0.0930659)
(-7.30091e-06 1.23881e-05 0.107475)
(-5.46119e-07 -2.10677e-06 0.0985603)
(-3.11899e-06 1.47345e-05 0.109872)
(-4.89514e-06 1.58007e-05 0.0931213)
(-1.41407e-06 -1.97711e-06 0.0876221)
(-1.85648e-06 -1.46846e-06 0.0876208)
(4.52808e-05 4.50403e-05 0.10432)
(7.90317e-06 5.53602e-06 0.0876672)
(5.7506e-06 7.79892e-06 0.0876654)
(-3.08903e-07 -1.28283e-05 0.0915182)
(-3.63236e-07 3.12338e-06 0.0823392)
(2.66291e-07 -1.50426e-06 0.0914769)
(-1.36314e-06 -8.8574e-06 0.0823926)
(-5.07048e-07 1.54604e-06 0.0716494)
(2.22155e-06 -4.25282e-06 0.0717053)
(-1.23448e-05 -2.9299e-07 0.0915172)
(3.07996e-06 -4.86399e-07 0.0823396)
(-1.19461e-06 -5.16623e-08 0.0914769)
(-8.6247e-06 -1.26293e-06 0.0823935)
(1.18442e-05 -1.18398e-05 0.112372)
(-1.1066e-05 1.1454e-05 0.112371)
(1.1533e-05 1.11584e-05 0.112372)
(-1.14339e-05 -1.1217e-05 0.11235)
(1.09934e-05 -1.11155e-05 0.11235)
(-1.15037e-05 1.11826e-05 0.112348)
(1.08939e-05 1.09672e-05 0.112348)
(2.19978e-05 -2.91713e-07 0.098641)
(-9.77465e-07 -2.99899e-07 0.0930974)
(1.5606e-05 -2.9679e-06 0.109857)
(1.09214e-05 -4.71262e-06 0.107468)
(4.80404e-07 -5.00214e-07 0.0985846)
(1.63973e-05 -5.82974e-06 0.0931514)
(1.4626e-05 -2.64051e-06 0.109854)
(1.422e-06 -7.31617e-07 0.0716522)
(-3.79373e-06 1.84172e-06 0.0717076)
(-3.16653e-07 2.1736e-05 0.0986408)
(-2.37225e-06 1.54103e-05 0.109857)
(8.31747e-08 -1.19453e-06 0.0930978)
(-4.54475e-06 1.08275e-05 0.107466)
(-1.85582e-07 4.40025e-07 0.0985843)
(-2.34599e-06 1.44646e-05 0.109853)
(-5.51835e-06 1.58255e-05 0.0931509)
(1.37476e-06 -8.89209e-07 0.087657)
(-7.58193e-07 1.34291e-06 0.0876559)
(4.1682e-05 4.15511e-05 0.10432)
(5.97891e-06 4.71076e-06 0.0876997)
(4.67291e-06 5.98882e-06 0.0876981)
(-5.49669e-07 -9.2879e-06 0.0915462)
(1.18256e-06 6.2914e-06 0.0823739)
(-9.04006e-07 3.36075e-06 0.0915059)
(-9.92653e-07 -6.26101e-06 0.082412)
(-1.88227e-06 3.35275e-06 0.0716787)
(3.06852e-06 -1.29604e-06 0.0717078)
(-9.70669e-06 -3.86338e-07 0.0915461)
(6.31509e-06 1.46748e-06 0.082372)
(3.69538e-06 -5.5596e-07 0.0915063)
(-6.34198e-06 -1.01238e-06 0.0824114)
(1.18066e-05 -1.2022e-05 0.112342)
(-1.27155e-05 1.20855e-05 0.112341)
(1.18304e-05 1.20465e-05 0.112341)
(-1.41743e-05 -1.40482e-05 0.112311)
(1.42357e-05 -1.40148e-05 0.112312)
(-1.39242e-05 1.41057e-05 0.11231)
(1.42526e-05 1.43204e-05 0.11231)
(1.90513e-05 -1.03506e-06 0.098661)
(-8.07606e-06 2.45504e-06 0.0931228)
(1.36229e-05 -3.458e-06 0.109845)
(1.31427e-05 -9.33042e-06 0.107465)
(-4.06138e-06 -7.11925e-07 0.0986057)
(1.29611e-05 -3.83941e-06 0.0931793)
(1.49323e-05 -3.88949e-06 0.10984)
(3.68468e-06 -1.85947e-06 0.0716712)
(-1.48342e-06 3.32204e-06 0.0717054)
(-1.24292e-06 1.91331e-05 0.0986609)
(-4.05942e-06 1.37059e-05 0.109844)
(2.28414e-06 -8.52626e-06 0.0931233)
(-9.92053e-06 1.32579e-05 0.107464)
(-1.1153e-06 -4.24734e-06 0.0986055)
(-4.41518e-06 1.50713e-05 0.109839)
(-4.1899e-06 1.34445e-05 0.093179)
(-4.60515e-06 -3.60025e-06 0.0876835)
(-3.75099e-06 -4.55209e-06 0.0876822)
(4.65771e-05 4.681e-05 0.104333)
(5.87827e-06 5.39283e-06 0.0877265)
(5.40425e-06 5.86533e-06 0.0877246)
(-3.48367e-08 -1.66039e-05 0.091581)
(-1.31248e-06 2.94667e-06 0.0823966)
(2.24659e-07 -2.84613e-06 0.0915383)
(-3.16852e-06 -1.13856e-05 0.082457)
(1.41392e-06 2.58307e-06 0.0716995)
(4.31615e-06 -5.32606e-06 0.0717731)
(-1.6321e-05 -3.23659e-07 0.0915799)
(2.73468e-06 -1.708e-06 0.0823963)
(-3.36496e-06 -1.82951e-07 0.0915391)
(-1.14049e-05 -3.21573e-06 0.0824584)
(1.33813e-05 -1.29447e-05 0.112301)
(-1.23303e-05 1.30713e-05 0.1123)
(1.3468e-05 1.33417e-05 0.1123)
(-8.10846e-06 -8.30309e-06 0.112277)
(8.63287e-06 -8.23137e-06 0.112277)
(-8.09876e-06 8.90417e-06 0.112277)
(8.87954e-06 8.96688e-06 0.112277)
(2.58308e-05 6.0529e-07 0.0986866)
(2.42429e-06 -2.02378e-06 0.093157)
(1.77659e-05 -2.68377e-06 0.109822)
(1.19806e-05 -2.89797e-06 0.107456)
(2.40744e-06 -1.51946e-07 0.0986306)
(2.21731e-05 -9.15543e-06 0.0932108)
(1.64518e-05 -1.60886e-06 0.109818)
(1.71588e-06 1.6114e-06 0.0717015)
(-5.11955e-06 3.72852e-06 0.0717789)
(8.21154e-07 2.56051e-05 0.0986869)
(-2.12181e-06 1.76841e-05 0.109822)
(-1.88459e-06 2.8451e-06 0.0931578)
(-2.08515e-06 1.17713e-05 0.107455)
(2.80253e-07 2.5521e-06 0.0986308)
(-1.0598e-06 1.62799e-05 0.109817)
(-8.59317e-06 2.16176e-05 0.0932101)
(5.37688e-06 1.81488e-06 0.0877193)
(2.00986e-06 5.24922e-06 0.087718)
(4.0534e-05 4.02877e-05 0.104332)
(1.00016e-05 8.53519e-06 0.0877652)
(8.51437e-06 1.00144e-05 0.0877634)
(-2.237e-07 -5.08622e-06 0.0916094)
(1.476e-06 4.89863e-06 0.0824582)
(6.64047e-09 1.48422e-06 0.0915701)
(1.62509e-06 -4.63847e-06 0.0824971)
(-3.51391e-06 1.48332e-06 0.0717724)
(-1.41851e-06 -2.21578e-06 0.0717923)
(-4.75e-06 3.87934e-07 0.0916087)
(4.99887e-06 1.90039e-06 0.0824568)
(2.25087e-06 4.58564e-07 0.0915701)
(-4.59343e-06 2.15649e-06 0.0824959)
(8.63814e-06 -8.36937e-06 0.112273)
(-8.89886e-06 9.28888e-06 0.112272)
(8.53324e-06 8.98099e-06 0.112272)
(-1.42927e-05 -1.35655e-05 0.112253)
(1.3627e-05 -1.41097e-05 0.112253)
(-1.49494e-05 1.3784e-05 0.112252)
(1.2951e-05 1.32158e-05 0.112252)
(1.45029e-05 -1.04479e-06 0.098704)
(-6.66952e-06 2.29149e-06 0.0931796)
(1.0999e-05 -1.62703e-06 0.109812)
(8.78942e-06 -6.99167e-06 0.107452)
(-3.09309e-06 5.51828e-08 0.0986497)
(5.70531e-06 1.52808e-07 0.0932336)
(1.07287e-05 -2.96262e-06 0.10981)
(1.93391e-06 -3.55428e-06 0.0717654)
(-1.21678e-06 -1.18078e-06 0.0717849)
(-1.73466e-06 1.4761e-05 0.0987049)
(-2.38604e-06 1.135e-05 0.109812)
(2.49829e-06 -7.5896e-06 0.0931804)
(-8.32179e-06 9.34156e-06 0.107452)
(-4.98933e-07 -3.31593e-06 0.0986502)
(-3.92413e-06 1.12724e-05 0.10981)
(-4.17217e-07 5.91263e-06 0.0932339)
(-4.19205e-06 -4.09756e-06 0.0877541)
(-4.47885e-06 -3.98729e-06 0.0877528)
(4.26642e-05 4.33126e-05 0.104335)
(-1.24347e-06 -3.54817e-07 0.087792)
(-5.71946e-07 -1.02622e-06 0.0877903)
(-8.20229e-07 -1.03485e-05 0.091638)
(1.95671e-06 9.27456e-06 0.0824442)
(-5.52555e-07 7.5597e-06 0.0915965)
(-2.43862e-06 -6.70253e-06 0.0824769)
(-1.41631e-06 5.21982e-06 0.071711)
(4.96854e-06 -1.84437e-06 0.0717473)
(-1.1534e-05 -1.64854e-06 0.0916383)
(8.96504e-06 1.57054e-06 0.0824429)
(6.48532e-06 -8.76271e-07 0.0915982)
(-6.88194e-06 -3.22134e-06 0.0824786)
(1.48555e-05 -1.57045e-05 0.112244)
(-1.58852e-05 1.44871e-05 0.112243)
(1.46892e-05 1.44557e-05 0.112243)
(-1.44863e-05 -1.59731e-05 0.112212)
(1.36787e-05 -1.45102e-05 0.112212)
(-1.26693e-05 1.24371e-05 0.11221)
(1.48585e-05 1.38669e-05 0.11221)
(2.05968e-05 -7.40374e-07 0.0987373)
(-1.00562e-05 5.14892e-06 0.0932126)
(1.64336e-05 -5.57661e-06 0.1098)
(1.48233e-05 -9.99645e-06 0.107459)
(-6.91464e-06 -1.70606e-06 0.098677)
(1.57749e-05 -5.38519e-06 0.0932692)
(1.79919e-05 -4.99933e-06 0.109795)
(4.43008e-06 -8.5266e-07 0.0717096)
(-2.48065e-06 4.86166e-06 0.0717573)
(1.45919e-07 2.08543e-05 0.0987367)
(-5.23318e-06 1.62969e-05 0.109799)
(4.05755e-06 -8.66981e-06 0.0932137)
(-8.7782e-06 1.42163e-05 0.107457)
(-1.34856e-06 -6.26147e-06 0.0986774)
(-4.05466e-06 1.74924e-05 0.109794)
(-5.58125e-06 1.70735e-05 0.0932686)
(-4.00345e-06 -4.66597e-06 0.0877692)
(-4.19495e-06 -4.17783e-06 0.0877679)
(4.66559e-05 4.57774e-05 0.104365)
(7.84422e-06 6.67822e-06 0.0878092)
(7.26683e-06 7.55256e-06 0.0878074)
(3.81073e-08 -1.95877e-05 0.0916682)
(-3.80801e-06 -7.17125e-07 0.0824764)
(-2.43771e-07 -7.58401e-06 0.0916286)
(-4.0204e-06 -1.38526e-05 0.0825494)
(2.92091e-06 9.14999e-09 0.071776)
(4.3811e-06 -5.52863e-06 0.0718609)
(-1.79256e-05 2.66746e-07 0.0916659)
(-6.4767e-07 -4.06273e-06 0.082479)
(-6.60638e-06 -8.10039e-07 0.0916278)
(-1.3193e-05 -3.55265e-06 0.0825508)
(1.21938e-05 -1.2515e-05 0.112204)
(-1.06622e-05 1.11453e-05 0.112202)
(1.30337e-05 1.21996e-05 0.112202)
(-6.83063e-06 -5.7496e-06 0.112181)