/*--------------------------------*- C++ -*----------------------------------*\
| =========                 |                                                 |
| \\      /  F ield         | OpenFOAM: The Open Source CFD Toolbox           |
|  \\    /   O peration     | Version:  v1906                                 |
|   \\  /    A nd           | Web:      www.OpenFOAM.com                      |
|    \\/     M anipulation  |                                                 |
\*---------------------------------------------------------------------------*/
FoamFile
{
    version     2.0;
    format      ascii;
    class       volVectorField;
    location    "875";
    object      U;
}
// * * * * * * * * * * * * * * * * * * * * * * * * * * * * * * * * * * * * * //

dimensions      [0 1 -1 0 0 0 0];


internalField   nonuniform List<vector> 
42616
(
(0.000107958 0.000107892 0.100299)
(-0.000190194 0.00011927 0.100385)
(0.000119341 -0.000190187 0.100385)
(-0.000239593 -0.000239612 0.100397)
(9.42791e-05 9.4232e-05 0.10086)
(-0.000158939 9.68066e-05 0.100942)
(9.68113e-05 -0.000158935 0.100942)
(-0.000201046 -0.000201098 0.100968)
(9.54255e-05 9.54124e-05 0.10137)
(-0.000155795 9.3467e-05 0.101449)
(9.34557e-05 -0.000155804 0.101449)
(-0.000201987 -0.000202039 0.101471)
(9.38806e-05 9.38688e-05 0.101892)
(-0.000152046 9.00816e-05 0.101957)
(9.00992e-05 -0.000152048 0.101957)
(-0.000198925 -0.000198974 0.101964)
(9.11214e-05 9.11253e-05 0.102398)
(-0.000146276 8.55612e-05 0.102446)
(8.55829e-05 -0.000146288 0.102446)
(-0.000193431 -0.00019349 0.102432)
(8.81457e-05 8.81576e-05 0.102885)
(-0.000140631 8.16219e-05 0.102912)
(8.16254e-05 -0.000140641 0.102912)
(-0.000188028 -0.000188022 0.10287)
(8.53568e-05 8.53061e-05 0.103353)
(-0.000135498 7.83963e-05 0.103354)
(7.84089e-05 -0.000135506 0.103354)
(-0.000184177 -0.000184195 0.10328)
(8.2867e-05 8.28454e-05 0.103803)
(-0.000131091 7.60205e-05 0.103774)
(7.60083e-05 -0.000131069 0.103774)
(-0.000180175 -0.000180132 0.103665)
(8.06672e-05 8.05147e-05 0.104237)
(-0.000127278 7.41226e-05 0.104175)
(7.43157e-05 -0.000127438 0.104174)
(-0.000178328 -0.00017822 0.104021)
(7.85437e-05 7.85698e-05 0.104658)
(-0.000124164 7.30607e-05 0.104557)
(7.30102e-05 -0.000124034 0.104557)
(-0.000177254 -0.000177289 0.104361)
(7.72327e-05 7.72417e-05 0.105066)
(-0.000121221 7.16773e-05 0.104925)
(7.16468e-05 -0.000121213 0.104925)
(-0.000175479 -0.000175527 0.104673)
(7.55907e-05 7.55904e-05 0.105464)
(-0.000118963 7.0925e-05 0.105276)
(7.09777e-05 -0.000118982 0.105276)
(-0.000176578 -0.000176865 0.104966)
(7.4333e-05 7.43726e-05 0.105851)
(-0.000116455 6.98752e-05 0.105614)
(6.95542e-05 -0.000116157 0.105614)
(-0.000174392 -0.000174357 0.105243)
(7.23903e-05 7.2797e-05 0.106229)
(-0.000113718 6.84854e-05 0.105939)
(6.68308e-05 -0.000112651 0.10594)
(-0.000172801 -0.000173023 0.10549)
(7.17605e-05 7.09798e-05 0.106596)
(-0.000110502 6.51245e-05 0.106247)
(6.85833e-05 -0.000112331 0.106247)
(-0.000172039 -0.000172032 0.105716)
(7.0142e-05 7.0287e-05 0.106956)
(-0.000108937 6.55052e-05 0.106542)
(6.55552e-05 -0.000108989 0.106539)
(-0.000175162 -0.000175392 0.105918)
(6.81012e-05 6.80034e-05 0.107305)
(-0.000107158 6.54774e-05 0.106819)
(6.88285e-05 -0.000109321 0.106819)
(-0.000175621 -0.00017562 0.106094)
(6.53407e-05 6.613e-05 0.107649)
(-0.000106891 6.69024e-05 0.107085)
(6.71004e-05 -0.00010829 0.107083)
(-0.000175113 -0.000174256 0.106241)
(6.85881e-05 7.02737e-05 0.107986)
(-0.000104144 6.41644e-05 0.107328)
(5.01518e-05 -9.65703e-05 0.107332)
(-0.000155 -0.000153977 0.106373)
(6.07726e-05 5.75995e-05 0.108307)
(-0.000101121 5.62067e-05 0.107565)
(7.71495e-05 -0.000108676 0.107562)
(-0.000191445 -0.000193758 0.106477)
(6.68485e-05 6.6469e-05 0.108623)
(-9.76317e-05 5.84188e-05 0.107781)
(5.19445e-05 -9.59087e-05 0.107775)
(-0.00014241 -0.000143443 0.106563)
(0.000134959 0.000134949 0.100282)
(0.000124248 0.000152867 0.100229)
(-0.00012424 0.000152848 0.100229)
(-0.000134954 0.000134918 0.100282)
(0.000152896 0.0001242 0.100229)
(0.000152868 -0.000124217 0.100229)
(9.08046e-05 9.0753e-05 0.100151)
(-9.07944e-05 9.07505e-05 0.100151)
(9.07789e-05 -9.07986e-05 0.100151)
(-9.07764e-05 -9.07968e-05 0.100151)
(-0.000152891 0.000124197 0.100229)
(-0.000152877 -0.000124213 0.100229)
(0.000134949 -0.000134968 0.100282)
(0.000124201 -0.000152897 0.100229)
(-0.000124197 -0.00015288 0.100229)
(-0.000134957 -0.000134941 0.100282)
(0.000239635 0.000239615 0.100397)
(0.000111305 0.000111178 0.100892)
(0.000119392 0.000190088 0.100385)
(-0.000119343 0.000190129 0.100385)
(8.91025e-05 0.000147213 0.100823)
(-8.9064e-05 0.00014721 0.100823)
(-0.000239645 0.000239562 0.100397)
(-0.000111266 0.000111146 0.100892)
(0.000190231 0.000119289 0.100385)
(0.00019017 -0.000119349 0.100385)
(0.00014719 8.90738e-05 0.100823)
(0.000147222 -8.90949e-05 0.100823)
(-0.000190151 -0.000119353 0.100385)
(-0.000147159 8.90749e-05 0.100823)
(-0.000147179 -8.90889e-05 0.100823)
(0.000239567 -0.000239657 0.100397)
(0.000111256 -0.00011127 0.100892)
(-0.000119321 -0.000190216 0.100385)
(8.90759e-05 -0.000147148 0.100823)
(-8.90552e-05 -0.000147174 0.100823)
(-0.000111255 -0.000111273 0.100892)
(0.000201136 0.000200968 0.100968)
(0.000105727 0.000105645 0.101395)
(9.68196e-05 0.000158993 0.100941)
(-9.67929e-05 0.000158989 0.100941)
(9.41999e-05 0.000156672 0.10132)
(-9.42001e-05 0.000156672 0.10132)
(-0.000201096 0.000200934 0.100967)
(-0.000105709 0.000105639 0.101395)
(0.000158972 9.68005e-05 0.100942)
(0.00015899 -9.68128e-05 0.100942)
(0.000156627 9.42043e-05 0.10132)
(0.000156668 -9.42074e-05 0.10132)
(-0.000158967 -9.68078e-05 0.100942)
(-0.000156624 9.42134e-05 0.10132)
(-0.000156644 -9.41975e-05 0.10132)
(0.000201042 -0.000201107 0.100968)
(0.000105691 -0.000105707 0.101395)
(-9.6793e-05 -0.000158961 0.100942)
(9.42011e-05 -0.000156624 0.10132)
(-9.42071e-05 -0.000156644 0.10132)
(-0.000105702 -0.000105708 0.101395)
(0.000202048 0.000201929 0.101471)
(9.6583e-05 9.65529e-05 0.101893)
(9.34495e-05 0.000155854 0.101449)
(-9.34537e-05 0.000155851 0.101449)
(9.11434e-05 0.000153337 0.101832)
(-9.11376e-05 0.000153328 0.101832)
(-0.000202053 0.000201912 0.101471)
(-9.66386e-05 9.65629e-05 0.101892)
(0.000155804 9.34625e-05 0.101449)
(0.000155844 -9.34585e-05 0.101449)
(0.00015328 9.11483e-05 0.101832)
(0.00015331 -9.11319e-05 0.101832)
(-0.000155828 -9.34514e-05 0.101449)
(-0.000153272 9.11434e-05 0.101832)
(-0.000153311 -9.11392e-05 0.101832)
(0.000201976 -0.000202042 0.101471)
(9.6607e-05 -9.66061e-05 0.101893)
(-9.34639e-05 -0.000155827 0.101449)
(9.11502e-05 -0.000153278 0.101832)
(-9.11398e-05 -0.000153286 0.101832)
(-9.66339e-05 -9.66351e-05 0.101893)
(0.000198978 0.000198861 0.101964)
(8.59391e-05 8.59006e-05 0.102366)
(9.0099e-05 0.000152108 0.101957)
(-9.00809e-05 0.000152094 0.101957)
(8.66863e-05 0.000147828 0.102326)
(-8.66829e-05 0.000147837 0.102326)
(-0.000198951 0.000198893 0.101964)
(-8.61158e-05 8.61364e-05 0.102366)
(0.00015205 9.00988e-05 0.101957)
(0.000152085 -9.00824e-05 0.101957)
(0.000147775 8.66831e-05 0.102326)
(0.000147804 -8.66794e-05 0.102326)
(-0.000152085 -9.00845e-05 0.101957)
(-0.00014778 8.66949e-05 0.102326)
(-0.000147814 -8.66735e-05 0.102326)
(0.000198853 -0.000198978 0.101964)
(8.60324e-05 -8.60878e-05 0.102366)
(-9.00847e-05 -0.000152054 0.101957)
(8.6696e-05 -0.000147777 0.102326)
(-8.66673e-05 -0.000147775 0.102326)
(-8.6062e-05 -8.60722e-05 0.102366)
(0.000193624 0.000193492 0.102431)
(7.57349e-05 7.56472e-05 0.102812)
(8.55867e-05 0.000146359 0.102446)
(-8.5566e-05 0.000146333 0.102446)
(8.25009e-05 0.000142044 0.102797)
(-8.25105e-05 0.00014207 0.102797)
(-0.000193612 0.000193525 0.102432)
(-7.60928e-05 7.60222e-05 0.102811)
(0.000146296 8.55904e-05 0.102446)
(0.000146328 -8.55459e-05 0.102446)
(0.000141991 8.24957e-05 0.102798)
(0.000142027 -8.25111e-05 0.102798)
(-0.000146332 -8.55795e-05 0.102446)
(-0.000142004 8.25136e-05 0.102798)
(-0.000142044 -8.24936e-05 0.102798)
(0.00019351 -0.000193682 0.102432)
(7.60318e-05 -7.61218e-05 0.102812)
(-8.55787e-05 -0.000146288 0.102446)
(8.25343e-05 -0.000142002 0.102798)
(-8.24926e-05 -0.000141989 0.102798)
(-7.59597e-05 -7.59835e-05 0.102812)
(0.000188301 0.000188188 0.10287)
(6.72621e-05 6.73527e-05 0.103228)
(8.16154e-05 0.000140693 0.102912)
(-8.16131e-05 0.000140697 0.102912)
(7.91603e-05 0.000136817 0.103245)
(-7.90761e-05 0.000136744 0.103245)
(-0.000188103 0.000188064 0.102871)
(-6.72764e-05 6.72201e-05 0.10323)
(0.000140637 8.16205e-05 0.102912)
(0.000140673 -8.15762e-05 0.102912)
(0.000136759 7.91969e-05 0.103245)
(0.000136723 -7.90536e-05 0.103245)
(-0.000140671 -8.16019e-05 0.102912)
(-0.000136684 7.90801e-05 0.103245)
(-0.000136776 -7.91516e-05 0.103245)
(0.000188107 -0.000188321 0.102871)
(6.71477e-05 -6.72481e-05 0.10323)
(-8.15951e-05 -0.000140626 0.102912)
(7.91191e-05 -0.00013668 0.103245)
(-7.91559e-05 -0.000136719 0.103245)
(-6.68036e-05 -6.67686e-05 0.103229)
(0.000183922 0.000184028 0.103281)
(5.90353e-05 5.89838e-05 0.103621)
(7.837e-05 0.000135493 0.103354)
(-7.83733e-05 0.00013556 0.103354)
(7.6425e-05 0.000132131 0.103671)
(-7.64812e-05 0.000132154 0.103671)
(-0.000183225 0.000183121 0.103282)
(-5.87223e-05 5.86788e-05 0.10362)
(0.000135458 7.83247e-05 0.103354)
(0.000135526 -7.83813e-05 0.103354)
(0.000132063 7.64688e-05 0.103671)
(0.000132185 -7.649e-05 0.103671)
(-0.000135557 -7.83946e-05 0.103354)
(-0.000132106 7.64994e-05 0.103671)
(-0.000132091 -7.64371e-05 0.103671)
(0.000183307 -0.000183276 0.103281)
(5.87795e-05 -5.92088e-05 0.10362)
(-7.83893e-05 -0.000135498 0.103354)
(7.6568e-05 -0.000132128 0.103671)
(-7.64538e-05 -0.000132041 0.103671)
(-5.92015e-05 -5.91423e-05 0.10362)
(0.000179494 0.000179782 0.103664)
(5.31475e-05 5.33849e-05 0.103986)
(7.59931e-05 0.000131138 0.103774)
(-7.59797e-05 0.000131152 0.103774)
(7.47409e-05 0.000128291 0.104076)
(-7.45688e-05 0.000128178 0.104076)
(-0.000180292 0.000180103 0.103664)
(-5.29604e-05 5.30646e-05 0.103988)
(0.000131117 7.5967e-05 0.103774)
(0.000131073 -7.59179e-05 0.103774)
(0.000128261 7.47573e-05 0.104076)
(0.000128154 -7.4603e-05 0.104076)
(-0.000131089 -7.59283e-05 0.103774)
(-0.000128102 7.45263e-05 0.104076)
(-0.000128317 -7.46707e-05 0.104076)
(0.000180705 -0.000180541 0.103663)
(5.22113e-05 -5.25543e-05 0.103989)
(-7.59018e-05 -0.000131053 0.103774)
(7.44969e-05 -0.000128122 0.104076)
(-7.46467e-05 -0.00012825 0.104076)
(-5.19521e-05 -5.19766e-05 0.103987)
(0.000178513 0.00017889 0.104023)
(4.63657e-05 4.60171e-05 0.104335)
(7.42347e-05 0.000127265 0.104175)
(-7.42351e-05 0.000127317 0.104175)
(7.30644e-05 0.000124753 0.104463)
(-7.31827e-05 0.000124905 0.104463)
(-0.000177566 0.000177687 0.104024)
(-4.57228e-05 4.56003e-05 0.104333)
(0.000127212 7.40563e-05 0.104175)
(0.000127468 -7.44171e-05 0.104174)
(0.000124667 7.29747e-05 0.104464)
(0.000125075 -7.35133e-05 0.104463)
(-0.000127436 -7.44319e-05 0.104174)
(-0.000124835 7.3068e-05 0.104463)
(-0.000124919 -7.33887e-05 0.104463)
(0.000177418 -0.000177454 0.104024)
(4.62497e-05 -4.67564e-05 0.10433)
(-7.43512e-05 -0.000127369 0.104174)
(7.33179e-05 -0.000125015 0.104463)
(-7.33077e-05 -0.000124859 0.104463)
(-4.79239e-05 -4.80134e-05 0.104332)
(0.000175332 0.000175466 0.10436)
(4.09122e-05 4.09438e-05 0.104655)
(7.30642e-05 0.000124317 0.104557)
(-7.31129e-05 0.00012423 0.104557)
(7.20066e-05 0.000122058 0.104834)
(-7.21461e-05 0.000122026 0.104834)
(-0.000176589 0.000176462 0.104356)
(-4.20793e-05 4.2136e-05 0.104655)
(0.000124218 7.30392e-05 0.104557)
(0.000124145 -7.30356e-05 0.104557)
(0.000121935 7.20147e-05 0.104834)
(0.000122062 -7.22738e-05 0.104834)
(-0.000124076 -7.27866e-05 0.104558)
(-0.000121938 7.20964e-05 0.104834)
(-0.000121887 -7.1908e-05 0.104834)
(0.000177924 -0.000178121 0.104356)
(4.26439e-05 -4.26745e-05 0.104656)
(-7.27449e-05 -0.000124013 0.104558)
(7.22714e-05 -0.000121997 0.104834)
(-7.18436e-05 -0.000121801 0.104834)
(-4.03864e-05 -4.0352e-05 0.104658)
(0.000176466 0.0001769 0.104671)
(3.60559e-05 3.61155e-05 0.104961)
(7.19267e-05 0.000121382 0.104924)
(-7.17083e-05 0.000121294 0.104924)
(7.10805e-05 0.000119579 0.10519)
(-7.06241e-05 0.000119257 0.10519)
(-0.000177269 0.000177101 0.104673)
(-3.57828e-05 3.60381e-05 0.104963)
(0.000121313 7.19188e-05 0.104924)
(0.00012126 -7.17052e-05 0.104925)
(0.000119476 7.10892e-05 0.10519)
(0.000119427 -7.08714e-05 0.10519)
(-0.000121467 -7.19079e-05 0.104924)
(-0.000119172 7.06425e-05 0.10519)
(-0.000119426 -7.11348e-05 0.10519)
(0.00017727 -0.00017686 0.104673)
(3.53898e-05 -3.57709e-05 0.104964)
(-7.18444e-05 -0.000121323 0.104924)
(7.07623e-05 -0.00011931 0.10519)
(-7.09561e-05 -0.000119358 0.10519)
(-3.66643e-05 -3.6983e-05 0.10496)
(0.000175549 0.000175693 0.104966)
(3.32626e-05 3.29666e-05 0.105244)
(7.06477e-05 0.000118726 0.105277)
(-7.10298e-05 0.000119134 0.105276)
(7.02605e-05 0.000116972 0.10553)
(-6.99225e-05 0.000117005 0.105531)
(-0.000174336 0.000174426 0.104968)
(-2.9862e-05 2.96153e-05 0.105245)
(0.000118627 7.06117e-05 0.105277)
(0.00011901 -7.09943e-05 0.105276)
(0.00011692 7.01402e-05 0.105531)
(0.000116992 -6.98586e-05 0.10553)
(-0.000118434 -7.02008e-05 0.105277)
(-0.000117065 6.96813e-05 0.105531)
(-0.000116813 -6.96311e-05 0.105531)
(0.000174416 -0.000174615 0.104968)
(3.10125e-05 -3.11538e-05 0.105243)
(-7.01973e-05 -0.000118369 0.105277)
(6.9776e-05 -0.00011687 0.105531)
(-6.96223e-05 -0.000116563 0.105532)
(-3.26216e-05 -3.27548e-05 0.105248)
(0.000177302 0.000177082 0.105239)
(2.86132e-05 2.876e-05 0.105511)
(6.92284e-05 0.000115976 0.105615)
(-7.00426e-05 0.000116455 0.105613)
(6.89878e-05 0.00011499 0.105859)
(-6.88681e-05 0.000114754 0.105858)
(-0.000176107 0.000175689 0.105235)
(-2.85652e-05 2.86008e-05 0.105509)
(0.000116005 6.92248e-05 0.105615)
(0.000116208 -6.94807e-05 0.105614)
(0.000114587 6.91962e-05 0.105859)
(0.00011419 -6.83137e-05 0.105858)
(-0.000116559 -6.89912e-05 0.105614)
(-0.000114615 6.89891e-05 0.105858)
(-0.000114609 -6.86629e-05 0.105859)
(0.000176645 -0.000176816 0.105237)
(2.87912e-05 -2.86677e-05 0.10551)
(-6.92383e-05 -0.000116117 0.105615)
(6.85154e-05 -0.000113962 0.105859)
(-6.86089e-05 -0.000114618 0.105859)
(-2.46404e-05 -2.47363e-05 0.105514)
(0.000174966 0.000175208 0.105493)
(2.10676e-05 2.05839e-05 0.105755)
(6.74611e-05 0.000113933 0.105939)
(-6.82529e-05 0.00011417 0.105939)
(6.8099e-05 0.000112029 0.10617)
(-6.5513e-05 0.000110555 0.106172)
(-0.000177496 0.00017754 0.105491)
(-2.2081e-05 2.24379e-05 0.105756)
(0.000113412 6.77975e-05 0.105939)
(0.00011286 -6.68146e-05 0.105939)
(0.000112409 6.74023e-05 0.10617)
(0.000112753 -6.91838e-05 0.10617)
(-0.000114078 -6.90542e-05 0.105937)
(-0.000110311 6.55209e-05 0.106172)
(-0.000111959 -6.68183e-05 0.10617)
(0.000176777 -0.000176573 0.105491)
(2.69996e-05 -2.67459e-05 0.105754)
(-6.88764e-05 -0.000114335 0.105937)
(6.92179e-05 -0.000112586 0.106171)
(-6.64401e-05 -0.00011185 0.10617)
(-1.64803e-05 -1.65018e-05 0.105755)
(0.000174867 0.0001742 0.105718)
(1.52865e-05 1.53905e-05 0.105975)
(6.93874e-05 0.00011187 0.106245)
(-6.54586e-05 0.000110354 0.106247)
(6.75639e-05 0.000110851 0.106468)
(-6.76794e-05 0.000109789 0.106469)
(-0.000172281 0.000172229 0.105722)
(-2.22556e-05 2.22554e-05 0.105975)
(0.000112477 6.84557e-05 0.106246)
(0.000112492 -6.85846e-05 0.106247)
(0.000110895 6.76365e-05 0.106469)
(0.000108953 -6.51789e-05 0.106469)
(-0.000111913 -6.82834e-05 0.106245)
(-0.000109789 6.74618e-05 0.10647)
(-0.0001106 -6.79249e-05 0.106467)
(0.000176699 -0.000176612 0.10572)
(1.47212e-05 -1.47006e-05 0.105975)
(-6.79329e-05 -0.000111771 0.106245)
(6.49804e-05 -0.00010888 0.10647)
(-6.78669e-05 -0.000110675 0.106467)
(-1.63399e-05 -1.64776e-05 0.10597)
(0.000172948 0.000173011 0.10592)
(5.50017e-06 5.58258e-06 0.106171)
(6.88302e-05 0.0001109 0.106539)
(-6.56027e-05 0.000109185 0.106542)
(6.28979e-05 0.000107185 0.106752)
(-6.74209e-05 0.000107638 0.106751)
(-0.000173234 0.000173163 0.105925)
(-1.51518e-05 1.47714e-05 0.106165)
(0.000110782 6.89384e-05 0.106539)
(0.000109036 -6.58004e-05 0.106539)
(0.000107116 6.2755e-05 0.106752)
(0.000109763 -6.96727e-05 0.10675)
(-0.000109532 -6.77225e-05 0.10654)
(-0.000107849 6.66058e-05 0.106751)
(-0.000109506 -6.85269e-05 0.106749)
(0.00016849 -0.000168684 0.105922)
(1.39403e-05 -1.43168e-05 0.106166)
(-6.75777e-05 -0.000109577 0.10654)
(6.87842e-05 -0.000110077 0.10675)
(-6.82905e-05 -0.000109441 0.106749)
(-1.40594e-05 -1.4009e-05 0.106163)
(0.000166674 0.000166695 0.106099)
(2.4871e-06 3.40461e-06 0.10634)
(6.69926e-05 0.000108741 0.106817)
(-6.63235e-05 0.000106709 0.106819)
(6.08921e-05 0.000104301 0.107021)
(-7.19484e-05 0.000109203 0.107017)
(-0.000173194 0.000172532 0.106096)
(-1.70135e-05 1.66555e-05 0.106325)
(0.000108689 6.68231e-05 0.106818)
(0.000108993 -6.95904e-05 0.106818)
(0.000103575 6.19137e-05 0.107022)
(0.000106658 -6.46083e-05 0.107019)
(-0.000108434 -6.84351e-05 0.106818)
(-0.000109535 7.11321e-05 0.107017)
(-0.00010738 -6.54997e-05 0.107017)
(0.000173543 -0.000174147 0.106095)
(4.43661e-06 -4.82722e-06 0.106334)
(-6.82516e-05 -0.000108299 0.106819)
(6.38362e-05 -0.000106875 0.107019)
(-6.6528e-05 -0.0001066 0.107017)
(-8.72141e-06 -7.78874e-06 0.106329)
(0.000162761 0.000163699 0.106252)
(1.77583e-05 1.89704e-05 0.106474)
(6.00336e-05 0.000103887 0.107084)
(-6.7777e-05 0.00010666 0.107084)
(7.54123e-05 0.000110164 0.107268)
(-5.5996e-05 0.000102747 0.107269)
(-0.000178314 0.000177902 0.106239)
(4.55246e-06 -3.25881e-06 0.106474)
(0.000103139 6.09069e-05 0.107084)
(0.00010812 -6.80098e-05 0.107083)
(0.000109111 7.69367e-05 0.107269)
(9.5934e-05 -4.55144e-05 0.107277)
(-0.000109152 -6.97904e-05 0.107082)
(-0.000101751 5.80058e-05 0.10727)
(-0.000100201 -5.45141e-05 0.107273)
(0.000168312 -0.000168788 0.106247)
(-1.33798e-05 1.46565e-05 0.106494)
(-7.06262e-05 -0.000108361 0.107082)
(4.74536e-05 -9.49859e-05 0.107278)
(-5.60097e-05 -9.91671e-05 0.107274)
(4.18584e-06 5.32447e-06 0.106474)
(0.000181069 0.00018224 0.106367)
(-1.30345e-05 -1.4927e-05 0.106589)
(7.01864e-05 0.000106854 0.107332)
(-6.17587e-05 0.000105345 0.107328)
(5.344e-05 9.83742e-05 0.107503)
(-6.24129e-05 0.000100551 0.107509)
(-0.000162409 0.000163709 0.106371)
(-2.76197e-06 1.17953e-06 0.106602)
(0.000105701 7.18691e-05 0.107332)
(9.77589e-05 -4.78066e-05 0.107332)
(9.95318e-05 5.10309e-05 0.107503)
(0.000106508 -8.06733e-05 0.107503)
(-9.60539e-05 -4.63598e-05 0.107333)
(-0.000101571 5.94536e-05 0.107509)
(-0.000111012 -8.31649e-05 0.1075)
(0.000146795 -0.000145513 0.106392)
(2.81313e-05 -2.95172e-05 0.106603)
(-4.80605e-05 -9.4992e-05 0.107333)
(7.76609e-05 -0.000107564 0.107503)
(-8.06856e-05 -0.000112087 0.107499)
(-2.56289e-05 -2.74488e-05 0.106599)
(0.0001525 0.000150167 0.106471)
(5.56412e-06 4.1051e-06 0.106704)
(5.33838e-05 9.68064e-05 0.10756)
(-5.94898e-05 9.96401e-05 0.107564)
(6.83114e-05 0.000102051 0.107723)
(-5.80879e-05 9.9797e-05 0.107727)
(-0.000164088 0.000162124 0.106479)
(2.79433e-06 -1.33959e-06 0.106707)
(9.86663e-05 4.98228e-05 0.10756)
(0.000107209 -8.05052e-05 0.107561)
(0.000103479 6.62802e-05 0.107725)
(0.000101884 -6.05768e-05 0.107722)
(-0.000106215 -7.70984e-05 0.107565)
(-9.88946e-05 6.01246e-05 0.107728)
(-9.45063e-05 -4.66946e-05 0.107725)
(0.000188698 -0.000190564 0.106475)
(-4.03233e-06 5.55049e-06 0.106656)
(-7.35421e-05 -0.000107988 0.107565)
(6.26141e-05 -0.000101086 0.107723)
(-4.46217e-05 -9.5862e-05 0.107726)
(2.80197e-05 2.65071e-05 0.106698)
(0.000171619 0.000170658 0.106561)
(7.27137e-05 0.000103764 0.107775)
(-5.57512e-05 9.91636e-05 0.10778)
(-0.000160649 0.000162477 0.10657)
(0.000104343 7.22007e-05 0.107776)
(9.72985e-05 -4.92898e-05 0.107774)
(-9.79582e-05 -5.51436e-05 0.107774)
(0.000153556 -0.0001519 0.106519)
(-5.46051e-05 -9.85013e-05 0.107775)
(-3.34133e-07 -3.36777e-07 0.0999988)
(1.68284e-05 1.68229e-05 0.100003)
(-4.50602e-07 1.39328e-05 0.1)
(1.39404e-05 -4.53144e-07 0.1)
(-4.66039e-05 5.72902e-06 0.100009)
(-1.52713e-05 1.55873e-05 0.0999999)
(-0.000127915 6.04488e-05 0.100058)
(-1.3111e-05 -8.63698e-07 0.0999958)
(5.7231e-06 -4.6588e-05 0.100009)
(1.55911e-05 -1.52711e-05 0.0999999)
(-8.61879e-07 -1.31089e-05 0.0999958)
(6.04597e-05 -0.000127845 0.100058)
(-1.87249e-05 -1.87281e-05 0.100003)
(-0.000134955 -8.10566e-05 0.100055)
(-8.10644e-05 -0.000134935 0.100055)
(-3.47654e-05 0.000136056 0.100724)
(0.00017704 0.000388505 0.0994164)
(2.39743e-06 0.000305448 0.100516)
(-8.4027e-05 0.000243425 0.0991477)
(-0.000303494 0.000837892 0.0977722)
(-0.000129181 0.000304533 0.0957183)
(0.000135779 -3.49101e-05 0.100724)
(0.000389103 0.000176008 0.0994172)
(0.000306209 2.24727e-06 0.100517)
(0.000243521 -8.39035e-05 0.099148)
(-0.000107942 0.000107894 0.100299)
(0.000107929 -0.000107939 0.100299)
(-0.00010792 -0.000107948 0.100299)
(9.17525e-05 9.16834e-05 0.100739)
(-9.17084e-05 9.17006e-05 0.100739)
(9.17377e-05 -9.17513e-05 0.100739)
(-9.17168e-05 -9.17613e-05 0.100739)
(-0.000280711 6.39937e-06 0.100754)
(-0.000399061 0.000229232 0.100526)
(-0.000175286 3.73826e-05 0.100332)
(-0.000153241 9.45076e-05 0.100558)
(-0.000358997 1.56391e-05 0.100479)
(-0.000148847 0.00019879 0.10074)
(-0.000152721 3.32781e-05 0.100497)
(0.000836864 -0.000301609 0.0977703)
(0.000304531 -0.000128801 0.0957195)
(6.34925e-06 -0.000280621 0.100754)
(3.7418e-05 -0.000175261 0.100332)
(0.000229345 -0.000399036 0.100526)
(9.44673e-05 -0.00015323 0.100558)
(1.56331e-05 -0.00035887 0.100479)
(3.33272e-05 -0.000152706 0.100497)
(0.000198832 -0.000148833 0.100739)
(-0.000372642 -0.000141971 0.100361)
(-0.000142176 -0.000372888 0.100361)
(-0.000111979 -0.000112054 0.100655)
(1.10771e-05 -7.8909e-05 0.10059)
(-7.91683e-05 1.1098e-05 0.10059)
(-1.65577e-05 0.000198346 0.100868)
(-5.49073e-05 0.000288029 0.0983198)
(-2.02981e-05 0.000208744 0.100777)
(-4.47803e-05 0.000271043 0.0979454)
(-0.000150376 0.000313473 0.0926213)
(-0.000137208 0.000273099 0.0909995)
(0.000198267 -1.66749e-05 0.100867)
(0.000288333 -5.47796e-05 0.0983202)
(0.000208781 -2.04177e-05 0.100778)
(0.00027129 -4.47438e-05 0.0979456)
(-9.42337e-05 9.42495e-05 0.10086)
(9.42898e-05 -9.42835e-05 0.10086)
(-9.42671e-05 -9.42818e-05 0.10086)
(9.61983e-05 9.61819e-05 0.101239)
(-9.61698e-05 9.61985e-05 0.101239)
(9.62119e-05 -9.62077e-05 0.101239)
(-9.62057e-05 -9.62019e-05 0.101239)
(-0.000263636 1.32917e-05 0.101153)
(-0.000219004 0.000214164 0.100818)
(-0.000164513 3.10418e-05 0.100897)
(-0.000160205 9.74313e-05 0.101064)
(-0.000297961 1.41156e-05 0.100977)
(-0.000183333 0.000197864 0.100945)
(-0.000168726 3.24798e-05 0.101019)
(0.000313429 -0.000150094 0.0926195)
(0.000273189 -0.00013705 0.0910012)
(1.33563e-05 -0.000263605 0.101153)
(3.11143e-05 -0.000164509 0.100897)
(0.000214248 -0.000219078 0.100819)
(9.74273e-05 -0.000160204 0.101064)
(1.4208e-05 -0.000297933 0.100977)
(3.25462e-05 -0.000168722 0.101019)
(0.000197846 -0.000183256 0.100945)
(-8.38817e-05 -9.71632e-05 0.100438)
(-9.72702e-05 -8.39025e-05 0.100438)
(-0.000112481 -0.000112481 0.101144)
(-8.66618e-05 -8.26065e-05 0.10043)
(-8.27375e-05 -8.67156e-05 0.10043)
(-9.30553e-06 0.00021079 0.100957)
(-2.19982e-05 0.000281716 0.0971363)
(-1.15434e-05 0.000230428 0.100902)
(-1.24761e-05 0.000257283 0.0967129)
(-0.000117394 0.000225945 0.0883853)
(-9.68969e-05 0.000187249 0.0870648)
(0.000210725 -9.56603e-06 0.100956)
(0.000281666 -2.19181e-05 0.0971364)
(0.000230488 -1.17676e-05 0.100903)
(0.000257015 -1.21928e-05 0.096713)
(-9.53975e-05 9.54298e-05 0.10137)
(9.54376e-05 -9.54345e-05 0.10137)
(-9.54311e-05 -9.54297e-05 0.10137)
(9.4349e-05 9.4342e-05 0.101763)
(-9.43267e-05 9.43603e-05 0.101763)
(9.43795e-05 -9.43559e-05 0.101763)
(-9.43513e-05 -9.43518e-05 0.101763)
(-0.000251023 1.22533e-05 0.10158)
(-0.000222551 0.00019043 0.101027)
(-0.000167313 3.27723e-05 0.101407)
(-0.000155161 9.28657e-05 0.101577)
(-0.000290193 1.21197e-05 0.101414)
(-0.000182331 0.000169187 0.101124)
(-0.000167152 3.27099e-05 0.101537)
(0.000225807 -0.000117165 0.0883825)
(0.000187408 -9.68427e-05 0.0870664)
(1.22538e-05 -0.000250971 0.10158)
(3.28139e-05 -0.000167324 0.101407)
(0.000190568 -0.00022256 0.101028)
(9.28632e-05 -0.000155166 0.101577)
(1.21501e-05 -0.000290172 0.101414)
(3.27442e-05 -0.000167149 0.101537)
(0.000169419 -0.000182182 0.101123)
(-0.000116074 -9.15315e-05 0.100182)
(-9.16332e-05 -0.000116147 0.100182)
(-0.000101491 -0.000101495 0.101646)
(-0.000111958 -7.24196e-05 0.100086)
(-7.25029e-05 -0.000112031 0.100086)
(-6.78217e-06 0.000210111 0.100953)
(5.73932e-06 0.000257857 0.0958571)
(-7.90004e-06 0.000236262 0.100926)
(9.94372e-06 0.000229992 0.0954232)
(-7.74091e-05 0.000150105 0.0849777)
(-5.91869e-05 0.000119074 0.0839651)
(0.000210059 -7.00702e-06 0.100952)
(0.0002585 5.44102e-06 0.0958571)
(0.000236321 -7.82982e-06 0.100928)
(0.000230449 9.74308e-06 0.0954235)
(-9.38665e-05 9.38976e-05 0.101892)
(9.39049e-05 -9.38817e-05 0.101892)
(-9.38972e-05 -9.38971e-05 0.101892)
(9.18756e-05 9.1868e-05 0.102273)
(-9.18578e-05 9.19059e-05 0.102273)
(9.19102e-05 -9.18855e-05 0.102273)
(-9.188e-05 -9.18805e-05 0.102273)
(-0.000238472 1.11203e-05 0.101978)
(-0.000219726 0.000163006 0.101141)
(-0.000165097 3.20934e-05 0.101923)
(-0.000150698 8.89843e-05 0.102081)
(-0.000282618 1.09577e-05 0.101822)
(-0.000174814 0.00014173 0.101214)
(-0.000163802 3.17574e-05 0.10205)
(0.000149813 -7.71545e-05 0.0849744)
(0.000119002 -5.92334e-05 0.0839666)
(1.13299e-05 -0.000238563 0.101978)
(3.21041e-05 -0.000165094 0.101923)
(0.000162551 -0.000219986 0.101142)
(8.8987e-05 -0.000150701 0.102081)
(1.10847e-05 -0.00028271 0.101822)
(3.17858e-05 -0.000163788 0.10205)
(0.000140546 -0.000175073 0.101213)
(-0.000133144 -7.92048e-05 0.0997187)
(-7.92692e-05 -0.000133224 0.0997185)
(-9.1382e-05 -9.13905e-05 0.102133)
(-0.000123887 -6.01177e-05 0.0995707)
(-6.01543e-05 -0.00012397 0.0995698)
(-6.28327e-06 0.000202147 0.100852)
(1.98787e-05 0.000225921 0.0945605)
(-7.20723e-06 0.00023135 0.100852)
(1.90006e-05 0.000197201 0.0941434)
(-4.55792e-05 9.53026e-05 0.0823436)
(-3.1677e-05 7.21655e-05 0.0815906)
(0.000202081 -6.13039e-06 0.100851)
(0.000226102 1.98375e-05 0.0945598)
(0.000231388 -6.75608e-06 0.100853)
(0.000198078 1.8653e-05 0.0941438)
(-9.11091e-05 9.11427e-05 0.102398)
(9.11641e-05 -9.11133e-05 0.102398)
(-9.11411e-05 -9.11361e-05 0.102398)
(8.88965e-05 8.88924e-05 0.102765)
(-8.89009e-05 8.89415e-05 0.102765)
(8.89386e-05 -8.89033e-05 0.102765)
(-8.89204e-05 -8.89107e-05 0.102765)
(-0.000223591 1.03776e-05 0.102335)
(-0.000210965 0.000136633 0.101161)
(-0.000159031 3.06684e-05 0.102424)
(-0.000144843 8.45134e-05 0.102565)
(-0.000271139 9.95793e-06 0.102189)
(-0.000164306 0.000115874 0.101213)
(-0.000157342 3.03358e-05 0.102546)
(9.51464e-05 -4.50999e-05 0.0823402)
(7.19578e-05 -3.12048e-05 0.0815925)
(1.03909e-05 -0.000223652 0.102335)
(3.06673e-05 -0.000159025 0.102424)
(0.000138161 -0.000210699 0.101162)
(8.4521e-05 -0.00014484 0.102565)
(9.76927e-06 -0.000271087 0.102189)
(3.0341e-05 -0.00015732 0.102546)
(0.000115982 -0.000164051 0.101213)
(-0.000138216 -6.84694e-05 0.0991142)
(-6.85472e-05 -0.000138292 0.0991139)
(-8.09018e-05 -8.09285e-05 0.102593)
(-0.00012679 -5.0879e-05 0.0989311)
(-5.09299e-05 -0.000126908 0.0989299)
(-6.43417e-06 0.00019044 0.100665)
(2.0482e-05 0.000193993 0.0933121)
(-7.0862e-06 0.000221123 0.100688)
(1.67409e-05 0.000165503 0.0929272)
(-2.40632e-05 5.99126e-05 0.0803377)
(-1.35337e-05 4.15344e-05 0.079785)
(0.000190583 -6.20012e-06 0.100664)
(0.00019305 2.11204e-05 0.0933109)
(0.000221283 -6.90685e-06 0.100689)
(0.000164626 1.80868e-05 0.0929276)
(-8.81249e-05 8.81766e-05 0.102885)
(8.81968e-05 -8.81306e-05 0.102885)
(-8.81613e-05 -8.81598e-05 0.102885)
(8.59808e-05 8.60351e-05 0.103238)
(-8.60375e-05 8.60743e-05 0.103238)
(8.60922e-05 -8.60084e-05 0.103238)
(-8.59731e-05 -8.59552e-05 0.103238)
(-0.00020798 1.006e-05 0.10265)
(-0.000199414 0.000117029 0.101097)
(-0.000152215 2.93225e-05 0.102904)
(-0.00013926 8.06888e-05 0.103024)
(-0.000257574 9.18141e-06 0.102514)
(-0.000152431 9.61933e-05 0.101133)
(-0.000150512 2.9061e-05 0.10302)
(6.02876e-05 -2.38326e-05 0.0803339)
(4.21979e-05 -1.30508e-05 0.0797868)
(9.93438e-06 -0.000207911 0.10265)
(2.93199e-05 -0.000152207 0.102904)
(0.000118502 -0.000199328 0.101097)
(8.07109e-05 -0.000139263 0.103024)
(9.03127e-06 -0.000257426 0.102514)
(2.9047e-05 -0.000150489 0.103021)
(9.77459e-05 -0.000151987 0.101131)
(-0.000134094 -6.06295e-05 0.0984184)
(-6.0646e-05 -0.000133996 0.0984176)
(-7.132e-05 -7.13125e-05 0.103024)
(-0.0001197 -4.39013e-05 0.0982148)
(-4.40331e-05 -0.000119657 0.0982135)
(-4.70684e-06 0.000176525 0.100405)
(1.53321e-05 0.000164861 0.0921483)
(-5.06826e-06 0.000207839 0.100448)
(8.23197e-06 0.000138366 0.0918032)
(-1.14969e-05 3.91445e-05 0.0788066)
(-2.52598e-06 2.45938e-05 0.0784006)
(0.000177104 -5.92217e-06 0.100404)
(0.000165435 1.3522e-05 0.0921459)
(0.000207845 -5.97113e-06 0.100449)
(0.000135816 1.08317e-05 0.0918033)
(-8.52496e-05 8.53164e-05 0.103353)
(8.53172e-05 -8.52766e-05 0.103353)
(-8.53971e-05 -8.53894e-05 0.103353)
(8.33697e-05 8.34269e-05 0.103692)
(-8.33997e-05 8.34443e-05 0.103692)
(8.34613e-05 -8.33676e-05 0.103692)
(-8.35024e-05 -8.34696e-05 0.103692)
(-0.000192625 9.85031e-06 0.102924)
(-0.000187272 0.000100456 0.100959)
(-0.000145578 2.81724e-05 0.103363)
(-0.000134343 7.77566e-05 0.103461)
(-0.000243612 8.95669e-06 0.102796)
(-0.000140075 8.1525e-05 0.100981)
(-0.000144013 2.80706e-05 0.103474)
(3.9102e-05 -1.20214e-05 0.078803)
(2.55686e-05 -3.67054e-06 0.0784024)
(9.50873e-06 -0.000192423 0.102924)
(2.81939e-05 -0.000145565 0.103363)
(0.000100922 -0.000187471 0.100959)
(7.78161e-05 -0.000134345 0.103461)
(8.82529e-06 -0.00024346 0.102795)
(2.80385e-05 -0.000143987 0.103474)
(8.3619e-05 -0.00013963 0.100979)
(-0.000128789 -5.54167e-05 0.0976642)
(-5.5322e-05 -0.000128844 0.0976634)
(-6.25171e-05 -6.24469e-05 0.103428)
(-0.000113417 -3.92531e-05 0.0974518)
(-3.91774e-05 -0.000113088 0.0974499)
(-2.93471e-06 0.000162585 0.100087)
(7.63891e-06 0.000139587 0.0910836)
(-3.04565e-06 0.000193258 0.100145)
(2.09852e-06 0.000112825 0.0907817)