/*--------------------------------*- C++ -*----------------------------------*\
| =========                 |                                                 |
| \\      /  F ield         | OpenFOAM: The Open Source CFD Toolbox           |
|  \\    /   O peration     | Version:  v1912                                 |
|   \\  /    A nd           | Website:  www.openfoam.com                      |
|    \\/     M anipulation  |                                                 |
\*---------------------------------------------------------------------------*/
FoamFile
{
    version     2.0;
    format      ascii;
    class       volScalarField;
    location    "1.95";
    object      p;
}
// * * * * * * * * * * * * * * * * * * * * * * * * * * * * * * * * * * * * * //

dimensions      [0 2 -2 0 0 0 0];


internalField   nonuniform List<scalar> 
171728
(
0.0204832
0.0204837
0.0204837
0.0205004
0.0202675
0.0202674
0.0202674
0.0202808
0.0200503
0.0200502
0.0200502
0.0200635
0.0198331
0.019833
0.019833
0.0198463
0.0196159
0.0196158
0.0196158
0.019629
0.0193987
0.0193985
0.0193985
0.0194118
0.0191815
0.0191813
0.0191813
0.0191946
0.0189642
0.0189641
0.0189641
0.0189774
0.018747
0.0187469
0.0187469
0.0187602
0.0185298
0.0185296
0.0185296
0.0185429
0.0183126
0.0183124
0.0183124
0.0183257
0.0180954
0.0180952
0.0180952
0.0181085
0.0178781
0.017878
0.017878
0.0178913
0.0176609
0.0176608
0.0176608
0.0176741
0.0174437
0.0174435
0.0174435
0.0174568
0.0172265
0.0172263
0.0172263
0.0172396
0.0170092
0.0170091
0.0170091
0.0170224
0.016792
0.0167919
0.0167919
0.0168052
0.0165748
0.0165747
0.0165747
0.016588
0.0163576
0.0163574
0.0163574
0.0163707
0.0161404
0.0161402
0.0161402
0.0161535
0.0159231
0.015923
0.015923
0.0159363
0.0157059
0.0157058
0.0157058
0.0157191
0.0154887
0.0154886
0.0154886
0.0155019
0.0152715
0.0152713
0.0152713
0.0152846
0.0150543
0.0150541
0.0150541
0.0150674
0.014837
0.0148369
0.0148369
0.0148502
0.0146198
0.0146197
0.0146197
0.014633
0.0144026
0.0144025
0.0144025
0.0144157
0.0141854
0.0141852
0.0141852
0.0141985
0.0139682
0.013968
0.013968
0.0139813
0.0137509
0.0137508
0.0137508
0.0137641
0.0135337
0.0135336
0.0135336
0.0135469
0.0133165
0.0133163
0.0133163
0.0133296
0.0130993
0.0130991
0.0130991
0.0131124
0.0128821
0.0128819
0.0128819
0.0128952
0.0126648
0.0126647
0.0126647
0.012678
0.0124476
0.0124475
0.0124475
0.0124608
0.0122304
0.0122303
0.0122303
0.0122435
0.0120132
0.012013
0.012013
0.0120263
0.011796
0.0117958
0.0117958
0.0118091
0.0115787
0.0115786
0.0115786
0.0115919
0.0113615
0.0113614
0.0113614
0.0113747
0.0111443
0.0111441
0.0111441
0.0111574
0.0109271
0.0109269
0.0109269
0.0109402
0.0107098
0.0107097
0.0107097
0.010723
0.0104926
0.0104925
0.0104925
0.0105058
0.0102754
0.0102753
0.0102753
0.0102885
0.0100582
0.010058
0.010058
0.0100713
0.00984096
0.00984081
0.00984081
0.0098541
0.00962374
0.00962359
0.00962359
0.00963688
0.00940652
0.00940637
0.00940637
0.00941966
0.0091893
0.00918915
0.00918915
0.00920244
0.00897208
0.00897193
0.00897193
0.00898522
0.00875486
0.00875472
0.00875472
0.00876801
0.00853764
0.0085375
0.0085375
0.00855079
0.00832042
0.00832028
0.00832028
0.00833357
0.0081032
0.00810306
0.00810306
0.00811635
0.00788598
0.00788583
0.00788583
0.00789913
0.00766876
0.00766861
0.00766861
0.0076819
0.00745154
0.00745139
0.00745139
0.00746468
0.00723432
0.00723417
0.00723417
0.00724746
0.00701709
0.00701695
0.00701695
0.00703024
0.00679987
0.00679973
0.00679973
0.00681302
0.00658265
0.0065825
0.0065825
0.00659579
0.00636543
0.00636528
0.00636528
0.00637857
0.00614821
0.00614806
0.00614806
0.00616135
0.00593099
0.00593084
0.00593084
0.00594413
0.00571377
0.00571362
0.00571362
0.00572691
0.00549655
0.0054964
0.0054964
0.00550969
0.00527933
0.00527919
0.00527919
0.00529248
0.00506211
0.00506197
0.00506197
0.00507526
0.00484489
0.00484475
0.00484475
0.00485804
0.00462767
0.00462753
0.00462753
0.00464082
0.00441045
0.00441031
0.00441031
0.0044236
0.00419323
0.00419308
0.00419308
0.00420637
0.00397601
0.00397586
0.00397586
0.00398915
0.00375879
0.00375864
0.00375864
0.00377193
0.00354156
0.00354142
0.00354142
0.00355471
0.00332434
0.0033242
0.0033242
0.00333749
0.00310712
0.00310697
0.00310697
0.00312026
0.0028899
0.00288975
0.00288975
0.00290304
0.00267268
0.00267253
0.00267253
0.00268582
0.00245546
0.00245531
0.00245531
0.0024686
0.00223824
0.00223809
0.00223809
0.00225138
0.00202102
0.00202087
0.00202087
0.00203416
0.0018038
0.00180365
0.00180365
0.00181694
0.00158658
0.00158643
0.00158643
0.00159972
0.00136936
0.00136921
0.00136921
0.0013825
0.00115214
0.00115199
0.00115199
0.00116528
0.000934917
0.000934771
0.000934772
0.000948062
0.000717696
0.000717551
0.000717551
0.000730842
0.00050049
0.000500339
0.000500342
0.000513623
0.000284115
0.000283502
0.00028352
0.000296509
8.30443e-05
8.78362e-05
8.78472e-05
8.76e-05
0.0205291
0.0205234
0.0205234
0.0205291
0.0205234
0.0205234
0.0205343
0.0205343
0.0205343
0.0205343
0.0205234
0.0205234
0.0205291
0.0205234
0.0205234
0.0205291
0.0205004
0.0203085
0.0204837
0.0204837
0.0203216
0.0203216
0.0205004
0.0203085
0.0204837
0.0204837
0.0203216
0.0203216
0.0204837
0.0203216
0.0203216
0.0205004
0.0203085
0.0204837
0.0203216
0.0203216
0.0203085
0.0202808
0.0200913
0.0202674
0.0202674
0.0201045
0.0201045
0.0202808
0.0200913
0.0202674
0.0202674
0.0201045
0.0201045
0.0202674
0.0201045
0.0201045
0.0202808
0.0200913
0.0202674
0.0201045
0.0201045
0.0200913
0.0200635
0.0198741
0.0200502
0.0200502
0.0198873
0.0198873
0.0200635
0.0198741
0.0200502
0.0200502
0.0198873
0.0198873
0.0200502
0.0198873
0.0198873
0.0200635
0.0198741
0.0200502
0.0198873
0.0198873
0.0198741
0.0198463
0.0196569
0.019833
0.019833
0.0196701
0.0196701
0.0198463
0.0196569
0.019833
0.019833
0.0196701
0.0196701
0.019833
0.0196701
0.0196701
0.0198463
0.0196569
0.019833
0.0196701
0.0196701
0.0196569
0.019629
0.0194396
0.0196158
0.0196158
0.0194528
0.0194528
0.019629
0.0194396
0.0196158
0.0196158
0.0194528
0.0194528
0.0196158
0.0194528
0.0194528
0.019629
0.0194396
0.0196158
0.0194528
0.0194528
0.0194396
0.0194118
0.0192224
0.0193985
0.0193985
0.0192356
0.0192356
0.0194118
0.0192224
0.0193985
0.0193985
0.0192356
0.0192356
0.0193985
0.0192356
0.0192356
0.0194118
0.0192224
0.0193985
0.0192356
0.0192356
0.0192224
0.0191946
0.0190052
0.0191813
0.0191813
0.0190184
0.0190184
0.0191946
0.0190052
0.0191813
0.0191813
0.0190184
0.0190184
0.0191813
0.0190184
0.0190184
0.0191946
0.0190052
0.0191813
0.0190184
0.0190184
0.0190052
0.0189774
0.018788
0.0189641
0.0189641
0.0188012
0.0188012
0.0189774
0.018788
0.0189641
0.0189641
0.0188012
0.0188012
0.0189641
0.0188012
0.0188012
0.0189774
0.018788
0.0189641
0.0188012
0.0188012
0.018788
0.0187602
0.0185708
0.0187469
0.0187469
0.018584
0.018584
0.0187602
0.0185708
0.0187469
0.0187469
0.018584
0.018584
0.0187469
0.018584
0.018584
0.0187602
0.0185708
0.0187469
0.018584
0.018584
0.0185708
0.0185429
0.0183535
0.0185297
0.0185296
0.0183667
0.0183667
0.0185429
0.0183535
0.0185296
0.0185297
0.0183667
0.0183667
0.0185296
0.0183667
0.0183667
0.0185429
0.0183535
0.0185297
0.0183667
0.0183667
0.0183535
0.0183257
0.0181363
0.0183124
0.0183124
0.0181495
0.0181495
0.0183257
0.0181363
0.0183124
0.0183124
0.0181495
0.0181495
0.0183124
0.0181495
0.0181495
0.0183257
0.0181363
0.0183124
0.0181495
0.0181495
0.0181363
0.0181085
0.0179191
0.0180952
0.0180952
0.0179323
0.0179323
0.0181085
0.0179191
0.0180952
0.0180952
0.0179323
0.0179323
0.0180952
0.0179323
0.0179323
0.0181085
0.0179191
0.0180952
0.0179323
0.0179323
0.0179191
0.0178913
0.0177019
0.017878
0.017878
0.0177151
0.0177151
0.0178913
0.0177019
0.017878
0.017878
0.0177151
0.0177151
0.017878
0.0177151
0.0177151
0.0178913
0.0177019
0.017878
0.0177151
0.0177151
0.0177019
0.0176741
0.0174846
0.0176608
0.0176608
0.0174978
0.0174978
0.0176741
0.0174846
0.0176608
0.0176608
0.0174978
0.0174978
0.0176608
0.0174978
0.0174978
0.0176741
0.0174846
0.0176608
0.0174978
0.0174978
0.0174846
0.0174568
0.0172674
0.0174435
0.0174435
0.0172806
0.0172806
0.0174568
0.0172674
0.0174435
0.0174435
0.0172806
0.0172806
0.0174435
0.0172806
0.0172806
0.0174568
0.0172674
0.0174435
0.0172806
0.0172806
0.0172674
0.0172396
0.0170502
0.0172263
0.0172263
0.0170634
0.0170634
0.0172396
0.0170502
0.0172263
0.0172263
0.0170634
0.0170634
0.0172263
0.0170634
0.0170634
0.0172396
0.0170502
0.0172263
0.0170634
0.0170634
0.0170502
0.0170224
0.016833
0.0170091
0.0170091
0.0168462
0.0168462
0.0170224
0.016833
0.0170091
0.0170091
0.0168462
0.0168462
0.0170091
0.0168462
0.0168462
0.0170224
0.016833
0.0170091
0.0168462
0.0168462
0.016833
0.0168052
0.0166158
0.0167919
0.0167919
0.016629
0.016629
0.0168052
0.0166158
0.0167919
0.0167919
0.016629
0.016629
0.0167919
0.016629
0.016629
0.0168052
0.0166158
0.0167919
0.016629
0.016629
0.0166158
0.016588
0.0163985
0.0165747
0.0165747
0.0164117
0.0164117
0.016588
0.0163985
0.0165747
0.0165747
0.0164117
0.0164117
0.0165747
0.0164117
0.0164117
0.016588
0.0163985
0.0165747
0.0164117
0.0164117
0.0163985
0.0163707
0.0161813
0.0163574
0.0163574
0.0161945
0.0161945
0.0163707
0.0161813
0.0163574
0.0163574
0.0161945
0.0161945
0.0163574
0.0161945
0.0161945
0.0163707
0.0161813
0.0163574
0.0161945
0.0161945
0.0161813
0.0161535
0.0159641
0.0161402
0.0161402
0.0159773
0.0159773
0.0161535
0.0159641
0.0161402
0.0161402
0.0159773
0.0159773
0.0161402
0.0159773
0.0159773
0.0161535
0.0159641
0.0161402
0.0159773
0.0159773
0.0159641
0.0159363
0.0157469
0.015923
0.015923
0.0157601
0.0157601
0.0159363
0.0157469
0.015923
0.015923
0.0157601
0.0157601
0.015923
0.0157601
0.0157601
0.0159363
0.0157469
0.015923
0.0157601
0.0157601
0.0157469
0.0157191
0.0155297
0.0157058
0.0157058
0.0155429
0.0155429
0.0157191
0.0155297
0.0157058
0.0157058
0.0155429
0.0155429
0.0157058
0.0155429
0.0155429
0.0157191
0.0155297
0.0157058
0.0155429
0.0155429
0.0155297
0.0155019
0.0153124
0.0154886
0.0154886
0.0153256
0.0153256
0.0155019
0.0153124
0.0154886
0.0154886
0.0153256
0.0153256
0.0154886
0.0153256
0.0153256
0.0155019
0.0153124
0.0154886
0.0153256
0.0153256
0.0153124
0.0152846
0.0150952
0.0152713
0.0152713
0.0151084
0.0151084
0.0152846
0.0150952
0.0152713
0.0152713
0.0151084
0.0151084
0.0152713
0.0151084
0.0151084
0.0152846
0.0150952
0.0152713
0.0151084
0.0151084
0.0150952
0.0150674
0.014878
0.0150541
0.0150541
0.0148912
0.0148912
0.0150674
0.014878
0.0150541
0.0150541
0.0148912
0.0148912
0.0150541
0.0148912
0.0148912
0.0150674
0.014878
0.0150541
0.0148912
0.0148912
0.014878
0.0148502
0.0146608
0.0148369
0.0148369
0.014674
0.014674
0.0148502
0.0146608
0.0148369
0.0148369
0.014674
0.014674
0.0148369
0.014674
0.014674
0.0148502
0.0146608
0.0148369
0.014674
0.014674
0.0146608
0.014633
0.0144436
0.0146197
0.0146197
0.0144568
0.0144568
0.014633
0.0144436
0.0146197
0.0146197
0.0144568
0.0144568
0.0146197
0.0144568
0.0144568
0.014633
0.0144436
0.0146197
0.0144568
0.0144568
0.0144436
0.0144157
0.0142263
0.0144025
0.0144025
0.0142395
0.0142395
0.0144157
0.0142263
0.0144025
0.0144025
0.0142395
0.0142395
0.0144025
0.0142395
0.0142395
0.0144157
0.0142263
0.0144025
0.0142395
0.0142395
0.0142263
0.0141985
0.0140091
0.0141852
0.0141852
0.0140223
0.0140223
0.0141985
0.0140091
0.0141852
0.0141852
0.0140223
0.0140223
0.0141852
0.0140223
0.0140223
0.0141985
0.0140091
0.0141852
0.0140223
0.0140223
0.0140091
0.0139813
0.0137919
0.013968
0.013968
0.0138051
0.0138051
0.0139813
0.0137919
0.013968
0.013968
0.0138051
0.0138051
0.013968
0.0138051
0.0138051
0.0139813
0.0137919
0.013968
0.0138051
0.0138051
0.0137919
0.0137641
0.0135747
0.0137508
0.0137508
0.0135879
0.0135879
0.0137641
0.0135747
0.0137508
0.0137508
0.0135879
0.0135879
0.0137508
0.0135879
0.0135879
0.0137641
0.0135747
0.0137508
0.0135879
0.0135879
0.0135747
0.0135469
0.0133575
0.0135336
0.0135336
0.0133707
0.0133707
0.0135469
0.0133575
0.0135336
0.0135336
0.0133707
0.0133707
0.0135336
0.0133707
0.0133707
0.0135469
0.0133575
0.0135336
0.0133707
0.0133707
0.0133575
0.0133296
0.0131402
0.0133163
0.0133163
0.0131534
0.0131534
0.0133296
0.0131402
0.0133163
0.0133163
0.0131534
0.0131534
0.0133163
0.0131534
0.0131534
0.0133296
0.0131402
0.0133163
0.0131534
0.0131534
0.0131402
0.0131124
0.012923
0.0130991
0.0130991
0.0129362
0.0129362
0.0131124
0.012923
0.0130991
0.0130991
0.0129362
0.0129362
0.0130991
0.0129362
0.0129362
0.0131124
0.012923
0.0130991
0.0129362
0.0129362
0.012923
0.0128952
0.0127058
0.0128819
0.0128819
0.012719
0.012719
0.0128952
0.0127058
0.0128819
0.0128819
0.012719
0.012719
0.0128819
0.012719
0.012719
0.0128952
0.0127058
0.0128819
0.012719
0.012719
0.0127058
0.012678
0.0124886
0.0126647
0.0126647
0.0125018
0.0125018
0.012678
0.0124886
0.0126647
0.0126647
0.0125018
0.0125018
0.0126647
0.0125018
0.0125018
0.012678
0.0124886
0.0126647
0.0125018
0.0125018
0.0124886
0.0124608
0.0122714
0.0124475
0.0124475
0.0122846
0.0122846
0.0124608
0.0122714
0.0124475
0.0124475
0.0122846
0.0122846
0.0124475
0.0122846
0.0122846
0.0124608
0.0122714
0.0124475
0.0122846
0.0122846
0.0122714
0.0122435
0.0120541
0.0122303
0.0122303
0.0120673
0.0120673
0.0122435
0.0120541
0.0122303
0.0122303
0.0120673
0.0120673
0.0122303
0.0120673
0.0120673
0.0122435
0.0120541
0.0122303
0.0120673
0.0120673
0.0120541
0.0120263
0.0118369
0.012013
0.012013
0.0118501
0.0118501
0.0120263
0.0118369
0.012013
0.012013
0.0118501
0.0118501
0.012013
0.0118501
0.0118501
0.0120263
0.0118369
0.012013
0.0118501
0.0118501
0.0118369
0.0118091
0.0116197
0.0117958
0.0117958
0.0116329
0.0116329
0.0118091
0.0116197
0.0117958
0.0117958
0.0116329
0.0116329
0.0117958
0.0116329
0.0116329
0.0118091
0.0116197
0.0117958
0.0116329
0.0116329
0.0116197
0.0115919
0.0114025
0.0115786
0.0115786
0.0114157
0.0114157
0.0115919
0.0114025
0.0115786
0.0115786
0.0114157
0.0114157
0.0115786
0.0114157
0.0114157
0.0115919
0.0114025
0.0115786
0.0114157
0.0114157
0.0114025
0.0113747
0.0111852
0.0113614
0.0113614
0.0111985
0.0111985
0.0113747
0.0111852
0.0113614
0.0113614
0.0111985
0.0111985
0.0113614
0.0111985
0.0111985
0.0113747
0.0111852
0.0113614
0.0111985
0.0111985
0.0111852
0.0111574
0.010968
0.0111441
0.0111441
0.0109812
0.0109812
0.0111574
0.010968
0.0111441
0.0111441
0.0109812
0.0109812
0.0111441
0.0109812
0.0109812
0.0111574
0.010968
0.0111441
0.0109812
0.0109812
0.010968
0.0109402
0.0107508
0.0109269
0.0109269
0.010764
0.010764
0.0109402
0.0107508
0.0109269
0.0109269
0.010764
0.010764
0.0109269
0.010764
0.010764
0.0109402
0.0107508
0.0109269
0.010764
0.010764
0.0107508
0.010723
0.0105336
0.0107097
0.0107097
0.0105468
0.0105468
0.010723
0.0105336
0.0107097
0.0107097
0.0105468
0.0105468
0.0107097
0.0105468
0.0105468
0.010723
0.0105336
0.0107097
0.0105468
0.0105468
0.0105336
0.0105058
0.0103164
0.0104925
0.0104925
0.0103296
0.0103296
0.0105058
0.0103164
0.0104925
0.0104925
0.0103296
0.0103296
0.0104925
0.0103296
0.0103296
0.0105058
0.0103164
0.0104925
0.0103296
0.0103296
0.0103164
0.0102885
0.0100991
0.0102753
0.0102753
0.0101123
0.0101123
0.0102885
0.0100991
0.0102753
0.0102753
0.0101123
0.0101123
0.0102753
0.0101123
0.0101123
0.0102885
0.0100991
0.0102753
0.0101123
0.0101123
0.0100991
0.0100713
0.00988192
0.010058
0.010058
0.00989512
0.00989512
0.0100713
0.00988192
0.010058
0.010058
0.00989512
0.00989512
0.010058
0.00989512
0.00989512
0.0100713
0.00988192
0.010058
0.00989512
0.00989512
0.00988192
0.0098541
0.0096647
0.00984081
0.00984081
0.0096779
0.0096779
0.0098541
0.0096647
0.00984081
0.00984081
0.0096779
0.0096779
0.00984081
0.0096779
0.0096779
0.0098541
0.0096647
0.00984081
0.0096779
0.0096779
0.0096647
0.00963688
0.00944748
0.00962359
0.00962359
0.00946068
0.00946068
0.00963688
0.00944748
0.00962359
0.00962359
0.00946068
0.00946068
0.00962359
0.00946068
0.00946068
0.00963688
0.00944748
0.00962359
0.00946068
0.00946068
0.00944748
0.00941966
0.00923026
0.00940637
0.00940637
0.00924346
0.00924346
0.00941966
0.00923026
0.00940637
0.00940637
0.00924346
0.00924346
0.00940637
0.00924346
0.00924346
0.00941966
0.00923026
0.00940637
0.00924346
0.00924346
0.00923026
0.00920244
0.00901304
0.00918915
0.00918915
0.00902624
0.00902624
0.00920244
0.00901304
0.00918915
0.00918915
0.00902624
0.00902624
0.00918915
0.00902624
0.00902624
0.00920244
0.00901304
0.00918915
0.00902624
0.00902624
0.00901304
0.00898522
0.00879582
0.00897193
0.00897193
0.00880902
0.00880902
0.00898522
0.00879582
0.00897193
0.00897193
0.00880902
0.00880902
0.00897193
0.00880902
0.00880902
0.00898523
0.00879582
0.00897193
0.00880902
0.00880902
0.00879582
0.00876801
0.0085786
0.00875472
0.00875472
0.0085918
0.0085918
0.00876801
0.0085786
0.00875472
0.00875472
0.0085918
0.0085918
0.00875472
0.0085918
0.0085918
0.00876801
0.0085786
0.00875472
0.0085918
0.0085918
0.0085786
0.00855079
0.00836138
0.0085375
0.0085375
0.00837458
0.00837458
0.00855079
0.00836138
0.0085375
0.0085375
0.00837458
0.00837458
0.0085375
0.00837458
0.00837458
0.00855079
0.00836138
0.0085375
0.00837458
0.00837458
0.00836138
0.00833357
0.00814416
0.00832028
0.00832028
0.00815736
0.00815736
0.00833357
0.00814416
0.00832028
0.00832028
0.00815736
0.00815736
0.00832028
0.00815736
0.00815736
0.00833357
0.00814416
0.00832028
0.00815736
0.00815736
0.00814416
0.00811635
0.00792694
0.00810306
0.00810306
0.00794014
0.00794014
0.00811635
0.00792694
0.00810306
0.00810306
0.00794014
0.00794014
0.00810306
0.00794014
0.00794014
0.00811635
0.00792694
0.00810306
0.00794014
0.00794014
0.00792694
0.00789913
0.00770972
0.00788583
0.00788583
0.00772292
0.00772292
0.00789913
0.00770972
0.00788583
0.00788583
0.00772292
0.00772292
0.00788584
0.00772292
0.00772292
0.00789913
0.00770972
0.00788583
0.00772292
0.00772292
0.00770972
0.0076819
0.00749249
0.00766861
0.00766861
0.0075057
0.0075057
0.0076819
0.00749249
0.00766861
0.00766861
0.0075057
0.0075057
0.00766861
0.0075057
0.0075057
0.0076819
0.00749249
0.00766861
0.0075057
0.0075057
0.00749249
0.00746468
0.00727527
0.00745139
0.00745139
0.00728847
0.00728847
0.00746468
0.00727527
0.00745139
0.00745139
0.00728847
0.00728847
0.00745139
0.00728847
0.00728848
0.00746468
0.00727527
0.00745139
0.00728847
0.00728847
0.00727527
0.00724746
0.00705805
0.00723417
0.00723417
0.00707125
0.00707125
0.00724746
0.00705805
0.00723417
0.00723417
0.00707125
0.00707125
0.00723417
0.00707125
0.00707125
0.00724746
0.00705805
0.00723417
0.00707125
0.00707125
0.00705805
0.00703024
0.00684083
0.00701695
0.00701695
0.00685403
0.00685403
0.00703024
0.00684083
0.00701695
0.00701695
0.00685403
0.00685403
0.00701695
0.00685403
0.00685403
0.00703024
0.00684083
0.00701695
0.00685403
0.00685403
0.00684083
0.00681302
0.00662361
0.00679973
0.00679972
0.00663681
0.00663681
0.00681302
0.00662361
0.00679972
0.00679973
0.00663681
0.00663681
0.00679973
0.00663681
0.00663681
0.00681302
0.00662361
0.00679973
0.00663681
0.00663681
0.00662361
0.00659579
0.00640639
0.0065825
0.0065825
0.00641959
0.00641959
0.00659579
0.00640639
0.0065825
0.0065825
0.00641959
0.00641959
0.0065825
0.00641959
0.00641959
0.00659579
0.00640639
0.0065825
0.00641959
0.00641959
0.00640639
0.00637857
0.00618917
0.00636528
0.00636528
0.00620237
0.00620237
0.00637857
0.00618917
0.00636528
0.00636528
0.00620237
0.00620237
0.00636528
0.00620237
0.00620237
0.00637857
0.00618917
0.00636528
0.00620237
0.00620237
0.00618917
0.00616135
0.00597195
0.00614806
0.00614806
0.00598515
0.00598515
0.00616135
0.00597195
0.00614806
0.00614806
0.00598515
0.00598515
0.00614806
0.00598515
0.00598515
0.00616135
0.00597195
0.00614806
0.00598515
0.00598515
0.00597195
0.00594413
0.00575473
0.00593084
0.00593084
0.00576793
0.00576793
0.00594413
0.00575473
0.00593084
0.00593084
0.00576793
0.00576793
0.00593084
0.00576793
0.00576793
0.00594413
0.00575473
0.00593084
0.00576793
0.00576793
0.00575473
0.00572691
0.00553751
0.00571362
0.00571362
0.00555071
0.00555071
0.00572691
0.00553751
0.00571362
0.00571362
0.00555071
0.00555071
0.00571362
0.00555071
0.00555071
0.00572691
0.00553751
0.00571362
0.00555071
0.00555071
0.00553751
0.00550969
0.00532029
0.0054964
0.0054964
0.00533349
0.00533349
0.00550969
0.00532029
0.0054964
0.0054964
0.00533349
0.00533349
0.0054964
0.00533349
0.00533349
0.00550969
0.00532029
0.0054964
0.00533349
0.00533349
0.00532029
0.00529248
0.00510307
0.00527919
0.00527918
0.00511627
0.00511627
0.00529248
0.00510307
0.00527918
0.00527919
0.00511627
0.00511627
0.00527919
0.00511627
0.00511627
0.00529248
0.00510307
0.00527919
0.00511627
0.00511627
0.00510307
0.00507526
0.00488585
0.00506197
0.00506197
0.00489905
0.00489905
0.00507526
0.00488585
0.00506197
0.00506197
0.00489905
0.00489905
0.00506197
0.00489905
0.00489905
0.00507526
0.00488585
0.00506197
0.00489905
0.00489905
0.00488585
0.00485804
0.00466863
0.00484475
0.00484475
0.00468183
0.00468183
0.00485804
0.00466863
0.00484475
0.00484475
0.00468183
0.00468183
0.00484475
0.00468183
0.00468183
0.00485804
0.00466863
0.00484475
0.00468183
0.00468183
0.00466863
0.00464082
0.00445141
0.00462753
0.00462753
0.00446461
0.00446461
0.00464082
0.00445141
0.00462753
0.00462753
0.00446461
0.00446461
0.00462753
0.00446461
0.00446461
0.00464082
0.00445141
0.00462753
0.00446461
0.00446461
0.00445141
0.0044236
0.00423419
0.00441031
0.0044103
0.00424739
0.00424739
0.0044236
0.00423419
0.0044103
0.00441031
0.00424739
0.00424739
0.00441031
0.00424739
0.00424739
0.0044236
0.00423419
0.00441031
0.00424739
0.00424739
0.00423419
0.00420637
0.00401697
0.00419308
0.00419308
0.00403017
0.00403017
0.00420638
0.00401697
0.00419308
0.00419308
0.00403017
0.00403017
0.00419308
0.00403017
0.00403017
0.00420637
0.00401697
0.00419308
0.00403017
0.00403017
0.00401697
0.00398915
0.00379974
0.00397586
0.00397586
0.00381295
0.00381295
0.00398915
0.00379974
0.00397586
0.00397586
0.00381295
0.00381295
0.00397586
0.00381295
0.00381295
0.00398915
0.00379974
0.00397586
0.00381295
0.00381295
0.00379974
0.00377193
0.00358252
0.00375864
0.00375864
0.00359572
0.00359572
0.00377193
0.00358252
0.00375864
0.00375864
0.00359572
0.00359572
0.00375864
0.00359572
0.00359572
0.00377193
0.00358252
0.00375864
0.00359572
0.00359572
0.00358252
0.00355471
0.0033653
0.00354142
0.00354142
0.0033785
0.0033785
0.00355471
0.0033653
0.00354142
0.00354142
0.0033785
0.0033785
0.00354142
0.0033785
0.0033785
0.00355471
0.0033653
0.00354142
0.0033785
0.0033785
0.0033653
0.00333749
0.00314808
0.0033242
0.0033242
0.00316128
0.00316128
0.00333749
0.00314808
0.0033242
0.0033242
0.00316128
0.00316128
0.0033242
0.00316128
0.00316128
0.00333749
0.00314808
0.0033242
0.00316128
0.00316128
0.00314808
0.00312026
0.00293086
0.00310697
0.00310697
0.00294406
0.00294406
0.00312026
0.00293086
0.00310697
0.00310697
0.00294406
0.00294406
0.00310697
0.00294406
0.00294406
0.00312026
0.00293086
0.00310697
0.00294406
0.00294406
0.00293086
0.00290304
0.00271363
0.00288975
0.00288975
0.00272684
0.00272684
0.00290304
0.00271363
0.00288975
0.00288975
0.00272684
0.00272684
0.00288975
0.00272684
0.00272684
0.00290304
0.00271363
0.00288975
0.00272684
0.00272684
0.00271363
0.00268582
0.00249641
0.00267253
0.00267253
0.00250961
0.00250961
0.00268582
0.00249641
0.00267253
0.00267253
0.00250961
0.00250961
0.00267253
0.00250961
0.00250962
0.00268582
0.00249641
0.00267253
0.00250961
0.00250961
0.00249641
0.0024686
0.00227919
0.00245531
0.00245531
0.00229239
0.00229239
0.0024686
0.00227919
0.00245531
0.00245531
0.00229239
0.00229239
0.00245531
0.00229239
0.0022924
0.0024686
0.00227919
0.00245531
0.00229239
0.00229239
0.00227919
0.00225138
0.00206197
0.00223809
0.00223809
0.00207517
0.00207517
0.00225138
0.00206197
0.00223809
0.00223809
0.00207517
0.00207517
0.00223809
0.00207517
0.00207518
0.00225138
0.00206197
0.00223809
0.00207517
0.00207517
0.00206197
0.00203416
0.00184475
0.00202087
0.00202087
0.00185796
0.00185795
0.00203416
0.00184475
0.00202087
0.00202087
0.00185795
0.00185795
0.00202087
0.00185796
0.00185796
0.00203416
0.00184475
0.00202087
0.00185796
0.00185795
0.00184475
0.00181694
0.00162753
0.00180365
0.00180365
0.00164074
0.00164074
0.00181694
0.00162753
0.00180365
0.00180365
0.00164074
0.00164074
0.00180365
0.00164074
0.00164074
0.00181694
0.00162753
0.00180365
0.00164074
0.00164074
0.00162753
0.00159972
0.00141031
0.00158643
0.00158643
0.00142352
0.00142352
0.00159972
0.00141031
0.00158643
0.00158643
0.00142352
0.00142352
0.00158643
0.00142352
0.00142352
0.00159972
0.00141031
0.00158643
0.00142352
0.00142352
0.00141031
0.0013825
0.0011931
0.00136921
0.00136921
0.0012063
0.0012063
0.0013825
0.0011931
0.00136921
0.00136921
0.0012063
0.0012063
0.00136921
0.0012063
0.0012063
0.0013825
0.00119309
0.00136921
0.0012063
0.0012063
0.0011931
0.00116528
0.000975875
0.00115199
0.00115199
0.000989077
0.000989076
0.00116528
0.000975875
0.00115199
0.00115199
0.000989076
0.000989077
0.00115199
0.000989077
0.000989077
0.00116528
0.000975875
0.00115199
0.000989077
0.000989077
0.000975875
0.000948062
0.000758654
0.000934772
0.000934771
0.000771856
0.000771855
0.000948062
0.000758654
0.000934771
0.000934771
0.000771856
0.000771856
0.000934772
0.000771856
0.000771857
0.000948062
0.000758655
0.000934772
0.000771856
0.000771857
0.000758654
0.000730842
0.000541435
0.000717551
0.00071755
0.000554638
0.00055464
0.000730842
0.000541433
0.000717551
0.000717551
0.000554639
0.00055464
0.000717552
0.000554639
0.000554641
0.000730842
0.000541436
0.000717552
0.00055464
0.00055464
0.000541436
0.000513623
0.00032428
0.00050034
0.000500338
0.000337577
0.000337572
0.000513621
0.000324274
0.000500341
0.000500343
0.000337576
0.000337582
0.000500341
0.000337572
0.000337577
0.000513625
0.000324288
0.000500341
0.000337584
0.000337579
0.000324283
0.00029651
0.000109272
0.000283513
0.000283503
0.000121836
0.00012183
0.0002965
0.000109264
0.000283509
0.000283518
0.000121826
0.00012184
0.00028351
0.00012182
0.000121831
0.000296518
0.000109281
0.000283511
0.000121837
0.000121827
0.000109269
8.76023e-05
8.78415e-05
8.7831e-05
8.75966e-05
8.78364e-05
8.78386e-05
8.30408e-05
8.30462e-05
8.30431e-05
8.78388e-05
8.76071e-05
8.78357e-05
0.0205584
0.0205928
0.0205743
0.0205743
0.0206506
0.0206067
0.0207102
0.0205855
0.0206506
0.0206067
0.0205855
0.0207101
0.0206223
0.0207315
0.0207315
0.0204216
0.0205431
0.0205262
0.0204227
0.0204266
0.0204209
0.0204216
0.0205432
0.0205262
0.0204227
0.0204832
0.0204832
0.0204832
0.0203219
0.0203219
0.0203219
0.0203219
0.0204162
0.0205224
0.0204855
0.0204296
0.0204909
0.020419
0.0204292
0.0204267
0.020421
0.0204162
0.0204855
0.0205224
0.0204296
0.020491
0.0204292
0.020419
0.0205239
0.0205239
0.0204171
0.0204171
0.0204171
0.0201998
0.0202816
0.0202818
0.0201998
0.0202813
0.0201998
0.0201998
0.0202816
0.0202818
0.0201998
0.0202675
0.0202675
0.0202675
0.0201046
0.0201046
0.0201046
0.0201046
0.0202003
0.0202809
0.0202674
0.0202131
0.0202808
0.0202003
0.0202131
0.0202813
0.0201998
0.0202003
0.0202674
0.0202808
0.0202131
0.0202808
0.0202131
0.0202003
0.0202812
0.0202812
0.0201999
0.0201998
0.0201998
0.0199824
0.0200638
0.0200639
0.0199824
0.0200638
0.0199825
0.0199824
0.0200638
0.0200639
0.0199824
0.0200503
0.0200503
0.0200503
0.0198874
0.0198874
0.0198874
0.0198874
0.019983
0.0200633
0.0200502
0.0199959
0.0200633
0.0199829
0.0199959
0.0200638
0.0199825
0.019983
0.0200502
0.0200633
0.0199959
0.0200633
0.0199959
0.0199829
0.0200638
0.0200638
0.0199827
0.0199825
0.0199825
0.0197652
0.0198466
0.0198466
0.0197652
0.0198466
0.0197653
0.0197652
0.0198466
0.0198466
0.0197652
0.0198331
0.0198331
0.0198331
0.0196702
0.0196702
0.0196702
0.0196702
0.0197658
0.0198461
0.019833
0.0197787
0.0198461
0.0197657
0.0197787
0.0198466
0.0197653
0.0197658
0.019833
0.0198461
0.0197787
0.0198461
0.0197787
0.0197657
0.0198466
0.0198466
0.0197655
0.0197652
0.0197652
0.019548
0.0196294
0.0196294
0.019548
0.0196293
0.019548
0.019548
0.0196294
0.0196294
0.019548
0.0196159
0.0196159
0.0196159
0.019453
0.019453
0.019453
0.019453
0.0195485
0.0196289
0.0196158
0.0195615
0.0196289
0.0195485
0.0195615
0.0196293
0.019548
0.0195485
0.0196158
0.0196289
0.0195614
0.0196289
0.0195615
0.0195485
0.0196294
0.0196294
0.0195482
0.019548
0.019548
0.0193308
0.0194122
0.0194122
0.0193308
0.0194121
0.0193308
0.0193308
0.0194122
0.0194122
0.0193308
0.0193987
0.0193987
0.0193987
0.0192358
0.0192358
0.0192358
0.0192358
0.0193313
0.0194116
0.0193986
0.0193442
0.0194116
0.0193313
0.0193443
0.0194121
0.0193308
0.0193313
0.0193986
0.0194116
0.0193442
0.0194116
0.0193443
0.0193313
0.0194121
0.0194121
0.019331
0.0193308
0.0193308
0.0191135
0.0191949
0.019195
0.0191135
0.0191949
0.0191136
0.0191135
0.0191949
0.019195
0.0191135
0.0191815
0.0191815
0.0191815
0.0190185
0.0190185
0.0190185
0.0190185
0.0191141
0.0191944
0.0191814
0.019127
0.0191944
0.0191141
0.0191271
0.0191949
0.0191136
0.0191141
0.0191814
0.0191944
0.019127
0.0191944
0.0191271
0.0191141
0.0191949
0.0191949
0.0191138
0.0191136
0.0191136
0.0188963
0.0189777
0.0189777
0.0188963
0.0189777
0.0188964
0.0188963
0.0189777
0.0189777
0.0188963
0.0189642
0.0189642
0.0189642
0.0188013
0.0188013
0.0188013
0.0188013
0.0188969
0.0189772
0.0189641
0.0189098
0.0189772
0.0188968
0.0189098
0.0189777
0.0188964
0.0188969
0.0189641
0.0189772
0.0189098
0.0189772
0.0189098
0.0188968
0.0189777
0.0189777
0.0188966
0.0188964
0.0188964
0.0186791
0.0187605
0.0187605
0.0186791
0.0187605
0.0186792
0.0186791
0.0187605
0.0187605
0.0186791
0.018747
0.018747
0.018747
0.0185841
0.0185841
0.0185841
0.0185841
0.0186797
0.01876
0.0187469
0.0186926
0.01876
0.0186796
0.0186926
0.0187605
0.0186791
0.0186796
0.0187469
0.01876
0.0186926
0.01876
0.0186926
0.0186796
0.0187605
0.0187605
0.0186794
0.0186791
0.0186791
0.0184619
0.0185433
0.0185433
0.0184619
0.0185432
0.0184619
0.0184619
0.0185433
0.0185433
0.0184619
0.0185298
0.0185298
0.0185298
0.0183669
0.0183669
0.0183669
0.0183669
0.0184624
0.0185428
0.0185297
0.0184753
0.0185428
0.0184624
0.0184754
0.0185432
0.0184619
0.0184624
0.0185297
0.0185428
0.0184753
0.0185428
0.0184754
0.0184624
0.0185433
0.0185433
0.0184621
0.0184619
0.0184619
0.0182447
0.0183261
0.0183261
0.0182447
0.018326
0.0182447
0.0182447
0.0183261
0.0183261
0.0182447
0.0183126
0.0183126
0.0183126
0.0181497
0.0181497
0.0181497
0.0181497
0.0182452
0.0183255
0.0183125
0.0182581
0.0183255
0.0182452
0.0182582
0.018326
0.0182447
0.0182452
0.0183125
0.0183255
0.0182581
0.0183255
0.0182582
0.0182452
0.018326
0.018326
0.0182449
0.0182447
0.0182447
0.0180274