/*--------------------------------*- C++ -*----------------------------------*\
| =========                 |                                                 |
| \\      /  F ield         | OpenFOAM: The Open Source CFD Toolbox           |
|  \\    /   O peration     | Version:  v1906                                 |
|   \\  /    A nd           | Web:      www.OpenFOAM.com                      |
|    \\/     M anipulation  |                                                 |
\*---------------------------------------------------------------------------*/
FoamFile
{
    version     2.0;
    format      ascii;
    class       volScalarField;
    location    "500";
    object      epsilon;
}
// * * * * * * * * * * * * * * * * * * * * * * * * * * * * * * * * * * * * * //

dimensions      [0 2 -3 0 0 0 0];


internalField   nonuniform List<scalar> 
42616
(
6.65876e-07
1.19298e-06
1.19266e-06
1.43289e-06
6.71908e-07
1.1943e-06
1.19157e-06
1.4231e-06
6.76708e-07
1.19535e-06
1.19581e-06
1.42397e-06
6.80313e-07
1.1982e-06
1.19837e-06
1.43259e-06
6.83655e-07
1.19835e-06
1.19823e-06
1.4319e-06
6.86319e-07
1.1978e-06
1.19785e-06
1.42983e-06
6.88596e-07
1.1979e-06
1.19777e-06
1.43238e-06
6.89997e-07
1.19601e-06
1.19662e-06
1.42901e-06
6.91746e-07
1.19653e-06
1.19592e-06
1.43249e-06
6.92587e-07
1.19366e-06
1.19445e-06
1.42732e-06
6.92554e-07
1.19227e-06
1.19206e-06
1.42852e-06
6.93719e-07
1.19169e-06
1.19181e-06
1.42715e-06
6.92627e-07
1.18689e-06
1.18695e-06
1.42317e-06
6.92598e-07
1.18576e-06
1.18655e-06
1.42293e-06
6.92315e-07
1.184e-06
1.18309e-06
1.42151e-06
6.90275e-07
1.17823e-06
1.17905e-06
1.41551e-06
6.8977e-07
1.17778e-06
1.17685e-06
1.41676e-06
6.88649e-07
1.17365e-06
1.17543e-06
1.41378e-06
6.85753e-07
1.1684e-06
1.16781e-06
1.4061e-06
6.84778e-07
1.16724e-06
1.16702e-06
1.4057e-06
6.66766e-07
1.1131e-06
1.1138e-06
1.37441e-06
1.41673e-06
1.18882e-06
1.19195e-06
1.42244e-06
1.18913e-06
1.19367e-06
1.19191e-06
1.19509e-06
1.42194e-06
1.19377e-06
1.19535e-06
1.43029e-06
1.41975e-06
1.42538e-06
1.18952e-06
1.19275e-06
1.19429e-06
1.19394e-06
1.42474e-06
1.42352e-06
1.18979e-06
1.19236e-06
1.19393e-06
1.19107e-06
1.19635e-06
1.19426e-06
1.19515e-06
1.42291e-06
1.41845e-06
1.19647e-06
1.19143e-06
1.19478e-06
1.42217e-06
1.42822e-06
1.42819e-06
1.1955e-06
1.19417e-06
1.19693e-06
1.19529e-06
1.42511e-06
1.42539e-06
1.19512e-06
1.19135e-06
1.19677e-06
1.19515e-06
1.19368e-06
1.1947e-06
1.19242e-06
1.42121e-06
1.42585e-06
1.19333e-06
1.19467e-06
1.19217e-06
1.42069e-06
1.42982e-06
1.42794e-06
1.19699e-06
1.1959e-06
1.19728e-06
1.19785e-06
1.42782e-06
1.42928e-06
1.19692e-06
1.1963e-06
1.19725e-06
1.19827e-06
1.19291e-06
1.19764e-06
1.19767e-06
1.4288e-06
1.43003e-06
1.19277e-06
1.19809e-06
1.19763e-06
1.42985e-06
1.4298e-06
1.42897e-06
1.19748e-06
1.19829e-06
1.19802e-06
1.19851e-06
1.43139e-06
1.42947e-06
1.19743e-06
1.19841e-06
1.19789e-06
1.19823e-06
1.19872e-06
1.19854e-06
1.19942e-06
1.43184e-06
1.4289e-06
1.19866e-06
1.19835e-06
1.19931e-06
1.43056e-06
1.43089e-06
1.42965e-06
1.19818e-06
1.1983e-06
1.19819e-06
1.19789e-06
1.43096e-06
1.42869e-06
1.19806e-06
1.19813e-06
1.19812e-06
1.19804e-06
1.19902e-06
1.19776e-06
1.19754e-06
1.43054e-06
1.42928e-06
1.19889e-06
1.19791e-06
1.19745e-06
1.42759e-06
1.43128e-06
1.42949e-06
1.19809e-06
1.198e-06
1.19788e-06
1.19823e-06
1.431e-06
1.43017e-06
1.19804e-06
1.19803e-06
1.19775e-06
1.19785e-06
1.19751e-06
1.19808e-06
1.19819e-06
1.43111e-06
1.42945e-06
1.19743e-06
1.19779e-06
1.19808e-06
1.43081e-06
1.4314e-06
1.42784e-06
1.19782e-06
1.19798e-06
1.19665e-06
1.19626e-06
1.4315e-06
1.42673e-06
1.19768e-06
1.19779e-06
1.19665e-06
1.19719e-06
1.19816e-06
1.19614e-06
1.19649e-06
1.43125e-06
1.42893e-06
1.19804e-06
1.19709e-06
1.19647e-06
1.42716e-06
1.4293e-06
1.42892e-06
1.19612e-06
1.19616e-06
1.19589e-06
1.19659e-06
1.42886e-06
1.43049e-06
1.19614e-06
1.19676e-06
1.1958e-06
1.19592e-06
1.19629e-06
1.19654e-06
1.19672e-06
1.43043e-06
1.42827e-06
1.19629e-06
1.19593e-06
1.19663e-06
1.43073e-06
1.43151e-06
1.42779e-06
1.19628e-06
1.19658e-06
1.19585e-06
1.19459e-06
1.43225e-06
1.42605e-06
1.1961e-06
1.19589e-06
1.19577e-06
1.19559e-06
1.19671e-06
1.19441e-06
1.19444e-06
1.43046e-06
1.42802e-06
1.1966e-06
1.19548e-06
1.19437e-06
1.42586e-06
1.42877e-06
1.42255e-06
1.19429e-06
1.1939e-06
1.19142e-06
1.19248e-06
1.42749e-06
1.42576e-06
1.19432e-06
1.19474e-06
1.19134e-06
1.19212e-06
1.19374e-06
1.19239e-06
1.19281e-06
1.42927e-06
1.42413e-06
1.19373e-06
1.19214e-06
1.19276e-06
1.4266e-06
1.42578e-06
1.42992e-06
1.19145e-06
1.19229e-06
1.19283e-06
1.19201e-06
1.42767e-06
1.42682e-06
1.19136e-06
1.192e-06
1.19271e-06
1.19218e-06
1.1927e-06
1.19197e-06
1.19176e-06
1.42661e-06
1.42773e-06
1.19262e-06
1.19218e-06
1.19166e-06
1.42566e-06
1.43117e-06
1.41769e-06
1.19268e-06
1.19181e-06
1.18716e-06
1.1881e-06
1.42845e-06
1.42049e-06
1.19257e-06
1.1919e-06
1.18707e-06
1.18755e-06
1.19133e-06
1.18795e-06
1.18845e-06
1.42891e-06
1.41916e-06
1.19125e-06
1.18748e-06
1.18833e-06
1.42173e-06
1.41904e-06
1.42271e-06
1.18612e-06
1.18693e-06
1.18609e-06
1.18575e-06
1.42176e-06
1.421e-06
1.18605e-06
1.18696e-06
1.18611e-06
1.18674e-06
1.18773e-06
1.18575e-06
1.18602e-06
1.42085e-06
1.42355e-06
1.18759e-06
1.18671e-06
1.18597e-06
1.42107e-06
1.42521e-06
1.41987e-06
1.18634e-06
1.18581e-06
1.1847e-06
1.18493e-06
1.42344e-06
1.42034e-06
1.18633e-06
1.18663e-06
1.18446e-06
1.18362e-06
1.18574e-06
1.18468e-06
1.18424e-06
1.42524e-06
1.41797e-06
1.18567e-06
1.18351e-06
1.18408e-06
1.41969e-06
1.42123e-06
1.41314e-06
1.18404e-06
1.18422e-06
1.17943e-06
1.17948e-06
1.42168e-06
1.41311e-06
1.1838e-06
1.18316e-06
1.17949e-06
1.18069e-06
1.18399e-06
1.17941e-06
1.18042e-06
1.41958e-06
1.41536e-06
1.18385e-06
1.18078e-06
1.1806e-06
1.41469e-06
1.41419e-06
1.4147e-06
1.17804e-06
1.17827e-06
1.17691e-06
1.17726e-06
1.41429e-06
1.41532e-06
1.17809e-06
1.17903e-06
1.1768e-06
1.17671e-06
1.17865e-06
1.1772e-06
1.17648e-06
1.41628e-06
1.41296e-06
1.17869e-06
1.17649e-06
1.17618e-06
1.41261e-06
1.419e-06
1.41219e-06
1.17788e-06
1.1779e-06
1.17727e-06
1.17657e-06
1.41899e-06
1.41082e-06
1.17764e-06
1.1771e-06
1.17714e-06
1.17703e-06
1.17703e-06
1.1763e-06
1.17701e-06
1.41686e-06
1.41322e-06
1.17668e-06
1.17697e-06
1.17696e-06
1.41323e-06
1.41229e-06
1.40208e-06
1.17432e-06
1.1739e-06
1.16784e-06
1.16852e-06
1.41123e-06
1.40423e-06
1.17439e-06
1.17527e-06
1.1678e-06
1.16832e-06
1.17508e-06
1.16852e-06
1.16878e-06
1.41376e-06
1.40304e-06
1.17538e-06
1.16831e-06
1.16876e-06
1.404e-06
1.40523e-06
1.40694e-06
1.16779e-06
1.16838e-06
1.16761e-06
1.16712e-06
1.40706e-06
1.40454e-06
1.16769e-06
1.16788e-06
1.16744e-06
1.16677e-06
1.16839e-06
1.16698e-06
1.16645e-06
1.40496e-06
1.40438e-06
1.16824e-06
1.1665e-06
1.16607e-06
1.40293e-06
1.40941e-06
1.39474e-06
1.16804e-06
1.16742e-06
1.14921e-06
1.14915e-06
1.40668e-06
1.39575e-06
1.16787e-06
1.1673e-06
1.14929e-06
1.15007e-06
1.16684e-06
1.14904e-06
1.14966e-06
1.40767e-06
1.39743e-06
1.16649e-06
1.15008e-06
1.14997e-06
1.3979e-06
1.37019e-06
1.11264e-06
1.11308e-06
1.37196e-06
1.11275e-06
1.11361e-06
6.66921e-07
6.67101e-07
6.67321e-07
1.11393e-06
1.37283e-06
1.11423e-06
6.64589e-07
6.65547e-07
6.66805e-07
6.66464e-07
4.24005e-06
9.57006e-06
4.23814e-06
9.56994e-06
1.91012e-05
1.91196e-05
4.23836e-06
9.57773e-06
4.23933e-06
9.57752e-06
6.66977e-07
6.67594e-07
6.68246e-07
6.70395e-07
6.7076e-07
6.69853e-07
6.71535e-07
2.30318e-06
3.65353e-06
9.41988e-07
1.19372e-06
2.30143e-06
3.65448e-06
9.43211e-07
1.91393e-05
1.91359e-05
2.30089e-06
9.42901e-07
3.65207e-06
1.19191e-06
2.30235e-06
9.43294e-07
3.6478e-06
5.67196e-06
5.67414e-06
1.42855e-06
5.66849e-06
5.66967e-06
4.24436e-06
9.57649e-06
4.24379e-06
9.58893e-06
1.91354e-05
1.9142e-05
4.24313e-06
9.57759e-06
4.24099e-06
9.58637e-06
6.71866e-07
6.70853e-07
6.72138e-07
6.75675e-07
6.74961e-07
6.7462e-07
6.74023e-07
2.2975e-06
3.65242e-06
9.45125e-07
1.19432e-06
2.30042e-06
3.65019e-06
9.45284e-07
1.9116e-05
1.91186e-05
2.29597e-06
9.43921e-07
3.64681e-06
1.19227e-06
2.29769e-06
9.44197e-07
3.64796e-06
5.65224e-06
5.653e-06
1.41879e-06
5.64576e-06
5.64703e-06
4.24455e-06
9.60262e-06
4.24429e-06
9.60573e-06
1.91491e-05
1.91578e-05
4.24573e-06
9.60263e-06
4.24527e-06
9.608e-06
6.76045e-07
6.75981e-07
6.75027e-07
6.79421e-07
6.79378e-07
6.79598e-07
6.79068e-07
2.2983e-06
3.65163e-06
9.46118e-07
1.19609e-06
2.29648e-06
3.65387e-06
9.46762e-07
1.91408e-05
1.91618e-05
2.29897e-06
9.46054e-07
3.65325e-06
1.19679e-06
2.29711e-06
9.46911e-07
3.65559e-06
5.65247e-06
5.65465e-06
1.42545e-06
5.66016e-06
5.66247e-06
4.24783e-06
9.60736e-06
4.24708e-06
9.61136e-06
1.91743e-05
1.91885e-05
4.24782e-06
9.61095e-06
4.24738e-06
9.61431e-06
6.80463e-07
6.80629e-07
6.80422e-07
6.82842e-07
6.83083e-07
6.83118e-07
6.83468e-07
2.30259e-06
3.65848e-06
9.49236e-07
1.19848e-06
2.30195e-06
3.65898e-06
9.499e-07
1.91813e-05
1.91922e-05
2.30245e-06
9.49461e-07
3.65872e-06
1.19844e-06
2.30217e-06
9.50031e-07
3.65848e-06
5.6713e-06
5.67323e-06
1.43192e-06
5.67299e-06
5.67485e-06
4.24833e-06
9.61915e-06
4.24849e-06
9.62231e-06
1.92008e-05
1.92073e-05
4.24836e-06
9.62054e-06
4.24815e-06
9.62372e-06
6.83777e-07
6.83849e-07
6.8411e-07
6.85701e-07
6.85644e-07
6.85746e-07
6.85645e-07
2.30056e-06
3.65881e-06
9.50898e-07
1.19803e-06
2.30211e-06
3.65713e-06
9.50925e-07
1.92005e-05
1.92059e-05
2.30037e-06
9.50869e-07
3.65802e-06
1.1981e-06
2.30169e-06
9.50915e-07
3.65744e-06
5.67166e-06
5.67345e-06
1.42837e-06
5.66805e-06
5.66996e-06
4.24873e-06
9.62588e-06
4.24859e-06
9.62967e-06
1.92126e-05
1.92179e-05
4.24895e-06
9.62783e-06
4.24905e-06
9.63191e-06
6.86329e-07
6.86357e-07
6.86258e-07
6.88032e-07
6.88111e-07
6.88062e-07
6.88171e-07
2.29861e-06
3.65675e-06
9.5086e-07
1.19799e-06
2.29889e-06
3.65801e-06
9.50917e-07
1.92118e-05
1.92201e-05
2.2986e-06
9.50923e-07
3.65761e-06
1.1978e-06
2.29914e-06
9.50965e-07
3.65757e-06
5.66771e-06
5.6698e-06
1.42962e-06
5.67146e-06
5.6735e-06
4.24982e-06
9.63339e-06
4.25005e-06
9.63606e-06
1.92271e-05
1.92385e-05
4.24981e-06
9.63565e-06
4.24941e-06
9.63784e-06
6.88565e-07
6.88652e-07
6.88691e-07
6.89715e-07
6.89553e-07
6.89966e-07
6.89741e-07
2.29947e-06
3.66079e-06
9.51361e-07
1.19723e-06
2.30049e-06
3.65813e-06
9.51338e-07
1.92303e-05
1.92375e-05
2.29928e-06
9.51365e-07
3.65906e-06
1.19771e-06
2.29977e-06
9.51368e-07
3.65901e-06
5.67768e-06
5.67934e-06
1.42858e-06
5.67478e-06
5.67652e-06
4.24731e-06
9.64222e-06
4.24804e-06
9.64442e-06
1.92467e-05
1.92484e-05
4.24841e-06
9.64322e-06
4.24958e-06
9.64685e-06
6.90014e-07
6.90315e-07
6.90186e-07
6.91183e-07
6.91375e-07
6.91275e-07
6.91522e-07
2.29506e-06
3.65473e-06
9.50625e-07
1.19606e-06
2.29586e-06
3.65612e-06
9.50469e-07
1.92458e-05
1.92534e-05
2.29606e-06
9.50997e-07
3.65813e-06
1.19622e-06
2.29717e-06
9.50764e-07
3.65698e-06
5.67073e-06
5.67316e-06
1.42895e-06
5.67399e-06
5.67648e-06
4.25186e-06
9.64233e-06
4.25054e-06
9.64317e-06
1.92515e-05
1.92673e-05
4.25092e-06
9.64681e-06
4.24901e-06
9.64651e-06
6.9179e-07
6.9172e-07
6.91905e-07
6.92603e-07
6.92378e-07
6.92658e-07
6.92437e-07
2.29827e-06
3.66235e-06
9.50545e-07
1.1963e-06
2.29839e-06
3.6609e-06
9.50533e-07
1.92598e-05
1.92652e-05
2.29705e-06
9.50438e-07
3.65887e-06
1.19591e-06
2.29699e-06
9.50381e-07
3.66002e-06
5.68339e-06
5.68485e-06
1.4285e-06
5.68138e-06
5.68265e-06
4.24794e-06
9.65751e-06
4.25094e-06
9.665e-06
1.92822e-05
1.92833e-05
4.24934e-06
9.65666e-06
4.25269e-06
9.66581e-06
6.92504e-07
6.92708e-07
6.92576e-07
6.92411e-07
6.92668e-07
6.92719e-07
6.9286e-07
2.29224e-06
3.65605e-06
9.49479e-07
1.19304e-06
2.29401e-06
3.65486e-06
9.48854e-07
1.92749e-05
1.92854e-05
2.29317e-06
9.49769e-07
3.65974e-06
1.19331e-06
2.2953e-06
9.49191e-07
3.65573e-06
5.67524e-06
5.67751e-06
1.42534e-06
5.67516e-06
5.67786e-06
4.24725e-06
9.659e-06
4.24589e-06
9.6516e-06
1.92797e-05
1.92887e-05
4.24615e-06
9.66447e-06
4.24449e-06
9.65555e-06
6.9282e-07
6.92903e-07
6.93029e-07
6.93674e-07
6.93517e-07
6.93556e-07
6.93496e-07
2.29241e-06
3.65711e-06
9.47772e-07
1.19216e-06
2.29253e-06
3.65743e-06
9.47497e-07
1.92896e-05
1.92886e-05
2.29151e-06
9.47736e-07
3.65407e-06
1.19212e-06
2.29174e-06
9.47433e-07
3.65689e-06
5.68099e-06
5.68274e-06
1.42681e-06
5.68213e-06
5.68361e-06
4.25355e-06
9.65289e-06
4.25333e-06
9.66986e-06
1.93012e-05
1.93078e-05
4.25421e-06
9.65254e-06
4.25452e-06
9.6704e-06
6.93572e-07
6.93558e-07
6.93524e-07
6.92851e-07
6.93033e-07
6.9298e-07
6.93199e-07
2.29143e-06
3.65942e-06
9.4693e-07
1.19081e-06
2.29218e-06
3.65894e-06
9.46489e-07
1.92919e-05
1.931e-05
2.2917e-06
9.46993e-07
3.66214e-06
1.19037e-06
2.2929e-06
9.46539e-07
3.65777e-06
5.68359e-06
5.68564e-06
1.4239e-06
5.68289e-06
5.68516e-06
4.24095e-06
9.68551e-06
4.24454e-06
9.67799e-06
1.93161e-05
1.93205e-05
4.24089e-06
9.68878e-06
4.24329e-06
9.68012e-06
6.92799e-07
6.92914e-07
6.93075e-07
6.92546e-07
6.92508e-07
6.9284e-07
6.92644e-07
2.28508e-06
3.65276e-06
9.44307e-07
1.18613e-06
2.28778e-06
3.64959e-06
9.43388e-07
1.93235e-05
1.93183e-05
2.28465e-06
9.44171e-07
3.64975e-06
1.18673e-06
2.28658e-06
9.4338e-07
3.6504e-06
5.67929e-06
5.68097e-06
1.42063e-06
5.67808e-06
5.67968e-06
4.24986e-06
9.65261e-06
4.24747e-06
9.65921e-06
1.93083e-05
1.93137e-05
4.25061e-06
9.65408e-06
4.24932e-06
9.66277e-06
6.92514e-07
6.92778e-07
6.9255e-07
6.92428e-07
6.92402e-07
6.92213e-07
6.92293e-07
2.28619e-06
3.65536e-06
9.42018e-07
1.18569e-06
2.28578e-06
3.65644e-06
9.41552e-07
1.9303e-05
1.93217e-05
2.28651e-06
9.42289e-07
3.65853e-06
1.1857e-06
2.28684e-06
9.41757e-07
3.65593e-06
5.68293e-06
5.68508e-06
1.4204e-06
5.68349e-06
5.6856e-06
4.2458e-06
9.68648e-06
4.24717e-06
9.68749e-06
1.93402e-05
1.93486e-05
4.24512e-06
9.68985e-06
4.24511e-06
9.68924e-06
6.9229e-07
6.92152e-07
6.92272e-07
6.90808e-07
6.90824e-07
6.91205e-07
6.91276e-07
2.28267e-06
3.65467e-06
9.40296e-07
1.18258e-06
2.28409e-06
3.65244e-06
9.39453e-07
1.93459e-05
1.93449e-05
2.28242e-06
9.40049e-07
3.65115e-06
1.18265e-06
2.28273e-06
9.39393e-07
3.65256e-06
5.68544e-06
5.68702e-06
1.41986e-06
5.68666e-06
5.68875e-06
4.23872e-06
9.67886e-06
4.2448e-06
9.681e-06
1.93374e-05
1.93419e-05
4.24021e-06
9.67842e-06
4.2472e-06
9.68369e-06
6.90374e-07
6.90611e-07
6.90586e-07
6.8969e-07
6.89776e-07
6.8967e-07
6.89606e-07
2.27637e-06
3.64995e-06
9.36878e-07
1.1773e-06
2.28119e-06
3.64397e-06
9.35538e-07
1.93297e-05
1.93439e-05
2.27655e-06
9.37257e-07
3.6541e-06
1.17736e-06
2.28333e-06
9.35684e-07
3.64385e-06
5.68203e-06
5.68513e-06
1.40995e-06
5.67247e-06
5.67485e-06
4.24883e-06
9.67439e-06
4.23884e-06
9.6667e-06
1.93401e-05
1.93447e-05
4.24704e-06
9.67977e-06
4.23655e-06
9.66941e-06
6.89787e-07
6.89676e-07
6.89619e-07
6.89332e-07
6.89071e-07
6.8936e-07
6.89309e-07
2.27939e-06
3.65023e-06
9.33913e-07
1.17786e-06
2.27433e-06
3.6562e-06
9.33711e-07
1.93489e-05
1.93451e-05
2.27768e-06
9.33553e-07
3.64508e-06
1.17725e-06
2.27157e-06
9.33344e-07
3.65391e-06
5.68166e-06
5.68212e-06
1.41787e-06
5.69272e-06
5.69383e-06
4.23751e-06
9.68544e-06
4.25043e-06
9.71148e-06
1.93546e-05
1.93842e-05
4.23978e-06
9.68365e-06
4.25191e-06
9.71151e-06
6.88466e-07
6.88919e-07
6.88876e-07
6.8603e-07
6.86281e-07
6.863e-07
6.86508e-07
2.27054e-06
3.65264e-06
9.32489e-07
1.17071e-06
2.28093e-06
3.6386e-06
9.30377e-07
1.93486e-05
1.93837e-05
2.27312e-06
9.32919e-07
3.65684e-06
1.17196e-06
2.28305e-06
9.3129e-07
3.64213e-06
5.69165e-06
5.69479e-06
1.4058e-06
5.67609e-06
5.67975e-06
4.23873e-06
9.68285e-06
4.23124e-06
9.67088e-06
1.9351e-05
1.93463e-05
4.23726e-06
9.68767e-06
4.23153e-06
9.67505e-06
6.85999e-07
6.85831e-07
6.86055e-07
6.84611e-07
6.84458e-07
6.8442e-07
6.84293e-07
2.26839e-06
3.64285e-06
9.27e-07
1.16784e-06
2.26619e-06
3.64072e-06
9.25903e-07
1.93596e-05
1.93531e-05
2.26578e-06
9.2699e-07
3.64137e-06
1.1668e-06
2.26563e-06
9.25453e-07
3.63751e-06
5.67817e-06
5.67995e-06
1.40435e-06
5.67908e-06
5.67971e-06
4.23667e-06
9.67003e-06
4.23755e-06
9.68468e-06
1.93421e-05
1.93772e-05
4.23723e-06
9.67106e-06
4.23705e-06
9.68501e-06
6.84595e-07
6.84611e-07
6.84453e-07
6.75915e-07
6.75901e-07
6.76159e-07
6.7612e-07
2.26209e-06
3.65053e-06
9.2408e-07
1.16484e-06
2.26787e-06
3.6375e-06
9.22811e-07
1.93404e-05
1.93746e-05
2.26277e-06
9.23774e-07
3.64976e-06
1.16532e-06
2.26649e-06
9.22793e-07
3.63896e-06
5.68814e-06
5.68873e-06
1.40844e-06
5.69609e-06
5.69844e-06
3.46078e-06
8.89636e-06
4.19715e-06
5.84101e-06
1.7149e-05
8.52343e-06
3.46098e-06
8.8972e-06
4.1988e-06
5.84301e-06
3.20827e-07
4.86873e-07
4.86858e-07
7.1226e-07
3.27384e-07
5.08051e-07
5.08025e-07
2.1849e-06
3.55916e-06
9.01233e-07
1.0557e-06
2.24023e-06
3.64846e-06
8.37576e-07
1.7146e-05
8.52093e-06
2.18633e-06
9.01754e-07
3.5617e-06
1.05569e-06
2.2426e-06
8.3781e-07
3.64921e-06
5.62325e-06
5.6268e-06
1.3077e-06
5.23987e-06
5.24196e-06
1.90974e-05
1.90965e-05
1.9104e-05
1.90991e-05
1.41746e-06
5.64304e-06
5.64666e-06
5.64254e-06
5.64714e-06
4.23651e-06
9.57063e-06
9.57229e-06
4.23727e-06
4.23741e-06
9.56753e-06
9.56696e-06
4.2384e-06
2.29542e-06
1.18872e-06
3.6433e-06
9.39685e-07
3.64379e-06
9.39099e-07
2.29569e-06
2.29609e-06
1.19103e-06
3.65053e-06
9.4033e-07
3.64853e-06
9.39505e-07
2.29667e-06
1.90989e-05
1.90917e-05
1.42266e-06
5.65607e-06
5.65501e-06
5.65221e-06
5.64986e-06
1.90932e-05
1.90849e-05
4.2419e-06
9.57777e-06
9.57515e-06
4.23979e-06
2.29971e-06
1.18901e-06
3.64543e-06
9.40559e-07
3.64701e-06
9.40041e-07
2.29778e-06
4.24336e-06
9.59579e-06
9.5817e-06
4.2404e-06
2.3012e-06
1.19469e-06
9.41895e-07
3.65097e-06
9.41501e-07
3.65843e-06
2.29852e-06
2.29559e-06
1.19062e-06
3.65165e-06
9.40575e-07
3.648e-06
9.39186e-07
2.30001e-06
4.23689e-06
9.56216e-06
9.56174e-06
4.24297e-06
2.29588e-06
1.1927e-06
9.40923e-07
3.65977e-06
9.38984e-07
3.6517e-06
2.30093e-06
4.23733e-06
9.5505e-06
9.54438e-06
4.24393e-06
1.91396e-05
1.91223e-05
1.42855e-06
5.65508e-06
5.65462e-06
5.66532e-06
5.66302e-06
1.91355e-05
1.91171e-05
2.30089e-06
1.19443e-06
9.42245e-07
3.65269e-06
9.41348e-07
3.65783e-06
2.30205e-06
2.3004e-06
1.19311e-06
9.41846e-07
3.66161e-06
9.40118e-07
3.65472e-06
2.30305e-06
4.24337e-06
9.59178e-06
9.5768e-06
4.24517e-06
4.24312e-06
9.55945e-06
9.54612e-06
4.24654e-06
1.42779e-06
5.66963e-06
5.67254e-06
5.65792e-06
5.66175e-06
1.9088e-05
1.90616e-05
1.90951e-05
1.9064e-05
1.90966e-05
1.91013e-05
1.91038e-05
1.9108e-05
5.64495e-06
5.64767e-06
1.42093e-06
5.65061e-06
5.65184e-06
1.91145e-05
1.91018e-05
1.91166e-05
1.91079e-05
1.42436e-06
5.65959e-06
5.66015e-06
5.6539e-06
5.65475e-06
4.2407e-06
9.56882e-06
4.23925e-06
9.57798e-06
2.29757e-06
3.64438e-06
9.40513e-07
1.19114e-06
2.29637e-06
3.64763e-06
9.41492e-07
2.29821e-06
3.6517e-06
9.41263e-07
1.19331e-06
2.29734e-06
3.65239e-06
9.42194e-07
4.24122e-06
9.57463e-06
9.57004e-06
4.24303e-06
4.24164e-06
9.58888e-06
9.57996e-06
4.24284e-06
2.29841e-06
1.19281e-06
3.65332e-06
9.43693e-07
3.64998e-06
9.42601e-07
2.29964e-06
2.29886e-06
1.19371e-06
3.65235e-06
9.43949e-07
3.65281e-06
9.43122e-07
2.29951e-06
5.65758e-06
5.65745e-06
1.42369e-06
5.65841e-06
5.65883e-06
1.9096e-05
1.91184e-05
1.91347e-05
1.9122e-05
1.42553e-06
5.65793e-06
5.65713e-06
5.65874e-06
5.65915e-06
1.91367e-05
1.91217e-05
2.29631e-06
3.6458e-06
9.4108e-07
1.19113e-06
2.29747e-06
3.6474e-06
9.41697e-07
4.23794e-06
9.59715e-06
4.23967e-06
9.5958e-06
2.29606e-06
9.42103e-07
3.65015e-06
1.19151e-06
2.29794e-06
9.42228e-07
3.6455e-06
4.23847e-06
9.57678e-06
9.57686e-06
4.24014e-06
2.29644e-06
1.19258e-06
3.65254e-06
9.43283e-07
3.6494e-06
9.42427e-07
2.29727e-06
4.23786e-06
9.58257e-06
9.59166e-06
4.23918e-06
2.29599e-06
1.19112e-06
9.42826e-07
3.64564e-06
9.4244e-07
3.64552e-06
2.29632e-06
4.24737e-06
9.56422e-06
4.24492e-06
9.57884e-06
2.30407e-06
9.42683e-07
3.66214e-06
1.19671e-06
2.30242e-06
9.44078e-07
3.6614e-06
4.24814e-06
9.55697e-06
4.24595e-06
9.58521e-06
2.30341e-06
1.19412e-06
3.65255e-06
9.44773e-07
3.65477e-06
9.44172e-07
2.30111e-06
4.24756e-06
9.59428e-06
9.58255e-06
4.24478e-06
2.30415e-06
1.19647e-06
9.4527e-07
3.65163e-06
9.44933e-07
3.66042e-06
2.30102e-06
4.24817e-06
9.60847e-06
9.59225e-06
4.24448e-06
5.65336e-06
5.65311e-06
1.41828e-06
5.64706e-06
5.64805e-06
1.91358e-05
1.91353e-05
1.91189e-05
1.91289e-05
1.41971e-06
5.64822e-06
5.64805e-06
5.64706e-06
5.64777e-06
1.91226e-05
1.91304e-05
2.30267e-06
9.43297e-07
3.66324e-06
1.19671e-06
2.30362e-06
9.44286e-07
3.66097e-06
4.24448e-06
9.59362e-06
4.24569e-06
9.59572e-06
4.24613e-06
9.56599e-06
4.24723e-06
9.59176e-06
2.3006e-06
1.19152e-06
9.43707e-07
3.6464e-06
9.43552e-07
3.64762e-06
2.29806e-06
2.30208e-06
1.19633e-06
9.44875e-07
3.6509e-06
9.4476e-07
3.6598e-06
2.2987e-06
4.24428e-06
9.5893e-06
9.59445e-06
4.24127e-06
4.24565e-06
9.60926e-06
9.59729e-06
4.24164e-06
1.90958e-05
1.91375e-05
1.91034e-05
1.91429e-05
1.4294e-06
5.65487e-06
5.65562e-06
5.66653e-06
5.66757e-06
1.91588e-05
1.9142e-05
1.91602e-05
1.91466e-05
1.91177e-05
1.91413e-05
1.91189e-05
1.91395e-05
5.66162e-06
5.66251e-06
1.42777e-06
5.6633e-06
5.66469e-06
1.91604e-05
1.91446e-05
1.91611e-05
1.91431e-05
1.42978e-06
5.66315e-06
5.66524e-06
5.66366e-06
5.66533e-06
4.24388e-06
9.58997e-06
4.24348e-06
9.59415e-06
2.30052e-06
3.65482e-06
9.44741e-07
1.1963e-06
2.3002e-06
3.65561e-06
9.45611e-07
2.30001e-06
3.65255e-06
9.44716e-07
1.19443e-06
2.29994e-06
3.65199e-06
9.4535e-07
4.24457e-06
9.60153e-06
9.59171e-06
4.24418e-06
4.2441e-06
9.59674e-06
9.59454e-06
4.24388e-06
2.30069e-06
1.19675e-06
3.65513e-06
9.46874e-07
3.65592e-06
9.46342e-07
2.30001e-06
2.3002e-06
1.19481e-06
3.65261e-06
9.46443e-07
3.65233e-06
9.45938e-07
2.29963e-06
5.65805e-06
5.657e-06
1.4236e-06
5.65777e-06
5.6551e-06
1.91374e-05
1.91432e-05
1.91487e-05
1.91422e-05
1.42586e-06
5.66013e-06
5.65675e-06
5.65834e-06
5.65541e-06
1.91455e-05
1.91426e-05
2.29936e-06
3.65435e-06
9.44204e-07
1.19595e-06
2.29809e-06
3.65575e-06
9.45129e-07
4.24236e-06
9.57995e-06
4.24003e-06
9.57861e-06
2.29857e-06
9.43478e-07
3.64719e-06
1.19243e-06
2.29712e-06
9.44275e-07
3.6498e-06
4.24382e-06
9.60092e-06
9.58889e-06
4.24492e-06
2.29998e-06
1.19651e-06
3.65614e-06
9.4673e-07
3.65644e-06
9.45986e-07
2.30051e-06
4.24315e-06
9.58731e-06
9.57925e-06
4.24462e-06
2.2993e-06
1.19385e-06
9.46091e-07
3.65399e-06
9.45201e-07
3.65167e-06
2.30013e-06
4.24056e-06
9.59571e-06
4.24403e-06
9.59838e-06
2.29675e-06
9.45325e-07
3.65032e-06
1.19279e-06
2.30009e-06
9.45255e-07
3.64464e-06
4.23968e-06
9.61014e-06
4.24355e-06
9.60843e-06
2.29706e-06
1.1944e-06
3.65035e-06
9.4565e-07
3.6503e-06
9.45428e-07
2.29601e-06
4.24e-06
9.59605e-06
9.59808e-06
4.23929e-06
2.29623e-06
1.19242e-06
9.45143e-07
3.64534e-06
9.45145e-07
3.64446e-06
2.29526e-06
4.23908e-06
9.59105e-06
9.60333e-06
4.23856e-06
5.65056e-06
5.64931e-06
1.42183e-06
5.65521e-06
5.65267e-06
1.912e-05
1.91213e-05
1.91374e-05
1.91198e-05
1.425e-06
5.66248e-06
5.65926e-06
5.65813e-06
5.65491e-06
1.91345e-05
1.91217e-05
2.29552e-06
9.44852e-07
3.64971e-06
1.19246e-06
2.29797e-06
9.44738e-07
3.64463e-06
4.23887e-06
9.58679e-06
4.24096e-06
9.58436e-06
4.23824e-06
9.60995e-06
4.24093e-06
9.60563e-06
2.29593e-06
1.19349e-06
9.45256e-07
3.65157e-06
9.44662e-07
3.64928e-06
2.29611e-06
2.29532e-06
1.19214e-06
9.44785e-07
3.64612e-06
9.44703e-07
3.64464e-06
2.29535e-06
4.23889e-06
9.58588e-06
9.58397e-06
4.23957e-06
4.23811e-06
9.58917e-06
9.60015e-06
4.23887e-06
1.91583e-05
1.9153e-05
1.91592e-05
1.91519e-05
1.42046e-06
5.64913e-06
5.65124e-06
5.64567e-06
5.64712e-06
1.91338e-05
1.91451e-05
1.91337e-05
1.91436e-05
1.91616e-05
1.91691e-05
1.91626e-05
1.91716e-05
5.66325e-06
5.66544e-06
1.42776e-06
5.66316e-06
5.66542e-06
1.91742e-05
1.91692e-05
1.91777e-05
1.91719e-05
1.42949e-06
5.66496e-06
5.66698e-06
5.66373e-06
5.66595e-06
4.24462e-06
9.59707e-06
4.24407e-06
9.59967e-06
2.29965e-06
3.65527e-06
9.47344e-07
1.19703e-06
2.30006e-06
3.6549e-06
9.4774e-07
2.29967e-06
3.65354e-06
9.46986e-07
1.19654e-06
2.29978e-06
3.65492e-06
9.47515e-07
4.24522e-06
9.60696e-06
9.60582e-06
4.24632e-06
4.24536e-06
9.60456e-06
9.60023e-06
4.24653e-06
2.30008e-06
1.19712e-06
3.65579e-06
9.48638e-07
3.65535e-06
9.48198e-07
2.3005e-06
2.30022e-06
1.19723e-06
3.6574e-06
9.48685e-07
3.65613e-06
9.48119e-07
2.30069e-06
5.66167e-06
5.6587e-06
1.42751e-06
5.66469e-06
5.6622e-06
1.91448e-05
1.9151e-05
1.91723e-05
1.91591e-05
1.42991e-06
5.66909e-06
5.66752e-06
5.66645e-06
5.66457e-06
1.91672e-05
1.91523e-05
2.30067e-06
3.6564e-06
9.47359e-07
1.19699e-06
2.30083e-06
3.65602e-06
9.47893e-07
4.2458e-06
9.58938e-06
4.24509e-06
9.5998e-06
2.30075e-06
9.46968e-07
3.65544e-06
1.19722e-06
2.30055e-06
9.47718e-07
3.65677e-06
4.24616e-06
9.6105e-06
9.6084e-06
4.24692e-06
2.30097e-06
1.19712e-06
3.65665e-06
9.48836e-07
3.65646e-06
9.48383e-07
2.301e-06
4.24627e-06
9.60896e-06
9.60146e-06
4.24703e-06
2.30108e-06
1.19789e-06
9.4898e-07
3.65821e-06
9.48421e-07
3.65774e-06
2.30118e-06
4.24298e-06
9.59473e-06
4.24014e-06
9.59423e-06
2.29803e-06
9.45343e-07
3.64763e-06
1.19446e-06
2.29585e-06
9.46104e-07
3.65221e-06
4.24273e-06
9.58719e-06
4.2396e-06
9.58363e-06
2.2994e-06
1.1969e-06
3.65738e-06
9.48419e-07
3.65558e-06
9.47587e-07
2.30121e-06
4.24447e-06
9.60131e-06
9.59468e-06
4.24727e-06
2.2992e-06
1.1962e-06
9.48255e-07
3.6581e-06
9.47203e-07
3.65482e-06
2.30125e-06
4.24431e-06
9.59439e-06
9.58387e-06
4.2473e-06
5.66469e-06
5.66155e-06
1.4288e-06
5.66734e-06
5.66505e-06
1.9137e-05
1.91555e-05
1.91798e-05
1.91643e-05
1.4311e-06
5.66988e-06
5.66842e-06
5.66877e-06
5.66672e-06
1.91757e-05
1.91582e-05
2.29869e-06
9.45264e-07
3.64857e-06
1.19443e-06
2.29643e-06
9.46263e-07
3.65319e-06
4.24367e-06
9.58678e-06
4.24094e-06
9.59348e-06
4.24351e-06
9.58603e-06
4.24039e-06
9.58397e-06
2.30006e-06
1.19757e-06
9.48687e-07
3.6581e-06
9.47849e-07
3.65697e-06
2.30156e-06
2.29986e-06
1.19617e-06
9.48412e-07
3.65887e-06
9.47365e-07
3.65577e-06
2.30165e-06
4.24539e-06
9.60521e-06
9.5952e-06
4.24762e-06
4.24535e-06
9.59654e-06
9.58478e-06
4.24783e-06
1.91307e-05
1.9134e-05
1.91311e-05
1.91356e-05
1.42893e-06
5.66932e-06
5.67138e-06
5.66376e-06
5.66593e-06
1.91602e-05
1.91363e-05
1.91631e-05
1.91383e-05
1.91745e-05
1.91824e-05
1.91779e-05
1.91854e-05
5.66587e-06
5.6678e-06
1.42844e-06
5.66703e-06
5.66881e-06
1.91938e-05
1.91833e-05
1.9196e-05
1.91862e-05
1.4303e-06
5.66847e-06
5.67018e-06
5.6677e-06
5.66944e-06
4.24808e-06
9.60571e-06
4.24731e-06
9.61309e-06
2.30119e-06
3.65646e-06
9.49125e-07
1.19766e-06
2.30095e-06
3.65677e-06
9.49537e-07
2.30142e-06
3.6583e-06
9.4926e-07
1.1985e-06
2.30116e-06
3.65875e-06
9.49726e-07
4.24826e-06
9.61837e-06
9.61243e-06
4.24834e-06
4.2485e-06
9.62177e-06
9.61461e-06
4.24855e-06
2.30146e-06
1.19785e-06
3.65716e-06
9.50208e-07
3.6572e-06
9.49926e-07
2.30091e-06
2.3017e-06
1.19855e-06
3.65852e-06
9.5041e-07
3.65912e-06
9.50137e-07
2.30108e-06
5.67038e-06
5.66908e-06
1.43017e-06
5.67153e-06
5.67015e-06
1.91698e-05
1.91871e-05
1.92003e-05
1.919e-05
1.43195e-06
5.67141e-06
5.67005e-06
5.672e-06
5.67074e-06
1.91993e-05
1.91887e-05
2.30119e-06
3.65725e-06
9.49271e-07
1.19758e-06
2.30132e-06
3.65737e-06
9.49648e-07
4.24783e-06
9.61017e-06
4.24746e-06
9.61649e-06
2.30123e-06
9.49489e-07
3.65867e-06
1.19843e-06
2.30149e-06
9.49853e-07
3.65819e-06
4.24802e-06
9.6198e-06
9.6151e-06
4.24803e-06
2.30136e-06
1.19774e-06
3.65769e-06
9.50238e-07
3.6578e-06
9.49977e-07
2.30071e-06
4.24799e-06
9.62214e-06
9.61756e-06
4.24792e-06
2.30134e-06
1.19838e-06
9.50362e-07
3.65762e-06
9.50168e-07
3.65842e-06
2.30064e-06
4.24954e-06
9.60322e-06
4.24835e-06
9.61408e-06
2.30271e-06
9.49232e-07
3.65955e-06
1.19929e-06
2.30202e-06
9.50026e-07
3.66045e-06
4.24962e-06
9.59764e-06
4.24841e-06
9.61332e-06
2.30287e-06
1.19857e-06
3.65866e-06
9.50743e-07
3.65938e-06
9.50422e-07
2.30206e-06
4.24998e-06
9.6233e-06
9.61595e-06
4.2499e-06
2.30299e-06
1.19947e-06
9.50961e-07
3.65996e-06
9.5063e-07
3.66088e-06
2.30216e-06
4.25006e-06
9.62527e-06
9.61604e-06
4.24995e-06
5.67057e-06
5.66911e-06
1.42963e-06
5.67039e-06
5.66916e-06
1.91779e-05
1.91913e-05
1.92005e-05
1.91929e-05
1.43116e-06
5.6701e-06
5.66898e-06
5.67066e-06
5.66935e-06
1.92005e-05
1.91924e-05
2.30274e-06
9.4937e-07
3.66022e-06
1.19921e-06
2.30233e-06
9.50117e-07
3.66098e-06
4.24935e-06
9.60723e-06
4.24867e-06
9.61697e-06
4.24968e-06
9.59991e-06
4.24894e-06
9.61515e-06
2.30264e-06
1.19844e-06
9.50718e-07
3.65785e-06
9.50473e-07
3.65868e-06
2.30162e-06
2.30294e-06
1.19937e-06
9.50979e-07
3.66041e-06
9.50676e-07
3.66137e-06
2.30193e-06
4.24971e-06
9.62342e-06
9.61837e-06
4.24933e-06
4.25006e-06
9.62617e-06
9.61766e-06
4.24966e-06
1.91652e-05
1.91905e-05
1.91682e-05
1.91929e-05
1.43376e-06
5.67202e-06
5.67382e-06
5.67346e-06
5.67527e-06
1.92053e-05
1.91931e-05
1.9207e-05
1.91953e-05
1.91947e-05
1.92027e-05
1.91968e-05
1.92047e-05
5.66916e-06
5.6709e-06
1.42965e-06
5.67007e-06
5.67193e-06
1.92102e-05
1.92031e-05
1.92125e-05
1.92051e-05
1.43148e-06
5.67112e-06
5.67318e-06
5.6707e-06
5.67265e-06
4.24839e-06
9.62266e-06
4.24868e-06
9.62602e-06
2.30027e-06
3.65752e-06
9.5046e-07
1.19823e-06
2.30098e-06
3.65758e-06
9.50624e-07
2.30028e-06
3.65867e-06
9.50607e-07
1.19804e-06
2.30115e-06
3.65743e-06
9.5071e-07
4.24849e-06
9.62529e-06
9.62266e-06
4.24838e-06
4.24851e-06
9.62745e-06
9.62623e-06
4.24829e-06
2.30034e-06
1.19823e-06
3.65787e-06
9.50899e-07
3.658e-06
9.50789e-07
2.29969e-06
2.30032e-06
1.19791e-06
3.6571e-06
9.50854e-07
3.65757e-06
9.50804e-07
2.29956e-06
5.67145e-06
5.67018e-06
1.42848e-06
5.67018e-06
5.66853e-06
1.91997e-05
1.92059e-05
1.92125e-05
1.92074e-05
1.43005e-06
5.67088e-06
5.66865e-06
5.67028e-06
5.66865e-06
1.92109e-05
1.92059e-05
2.30023e-06
3.65814e-06
9.50468e-07
1.19813e-06
2.30078e-06
3.65828e-06
9.50666e-07
4.2482e-06
9.62254e-06
4.24801e-06
9.6242e-06
2.30009e-06
9.50549e-07
3.65791e-06
1.19806e-06
2.30069e-06
9.50684e-07
3.65764e-06
4.24866e-06
9.62718e-06
9.62416e-06
4.24889e-06
2.30044e-06
1.19815e-06
3.65872e-06
9.50991e-07
3.65884e-06
9.5084e-07
2.30011e-06
4.24849e-06
9.62614e-06
9.62437e-06
4.24876e-06
2.30028e-06
1.19805e-06
9.50953e-07
3.65816e-06
9.50837e-07
3.65811e-06
2.29998e-06
4.24876e-06
9.62407e-06
4.24998e-06
9.62699e-06
2.3005e-06
9.51072e-07
3.65994e-06
1.1983e-06
2.3022e-06
9.51073e-07
3.65699e-06
4.24863e-06
9.62626e-06
4.25002e-06
9.62957e-06