/*--------------------------------*- C++ -*----------------------------------*\
| =========                 |                                                 |
| \\      /  F ield         | OpenFOAM: The Open Source CFD Toolbox           |
|  \\    /   O peration     | Version:  v1906                                 |
|   \\  /    A nd           | Web:      www.OpenFOAM.com                      |
|    \\/     M anipulation  |                                                 |
\*---------------------------------------------------------------------------*/
FoamFile
{
    version     2.0;
    format      ascii;
    class       volScalarField;
    location    "500";
    object      k;
}
// * * * * * * * * * * * * * * * * * * * * * * * * * * * * * * * * * * * * * //

dimensions      [0 2 -2 0 0 0 0];


internalField   nonuniform List<scalar> 
42616
(
3.58932e-05
3.58912e-05
3.58912e-05
3.59957e-05
3.39296e-05
3.3889e-05
3.3889e-05
3.39623e-05
3.21578e-05
3.20081e-05
3.20081e-05
3.19522e-05
3.05346e-05
3.02293e-05
3.02292e-05
2.99885e-05
2.90329e-05
2.8554e-05
2.85539e-05
2.81226e-05
2.76353e-05
2.69872e-05
2.69871e-05
2.63907e-05
2.63308e-05
2.5531e-05
2.55309e-05
2.48073e-05
2.51112e-05
2.4185e-05
2.41848e-05
2.33782e-05
2.39709e-05
2.29506e-05
2.29504e-05
2.21046e-05
2.29057e-05
2.18269e-05
2.18267e-05
2.09859e-05
2.1912e-05
2.08114e-05
2.08112e-05
2.00136e-05
2.09865e-05
1.99013e-05
1.99011e-05
1.91812e-05
2.0124e-05
1.9095e-05
1.90945e-05
1.84894e-05
1.93238e-05
1.83887e-05
1.83883e-05
1.79332e-05
1.85848e-05
1.77802e-05
1.77804e-05
1.75073e-05
1.79049e-05
1.7269e-05
1.72694e-05
1.72106e-05
1.7281e-05
1.68549e-05
1.68519e-05
1.70432e-05
1.67112e-05
1.65258e-05
1.65271e-05
1.70174e-05
1.62035e-05
1.63439e-05
1.63598e-05
1.72954e-05
1.57424e-05
1.62545e-05
1.62172e-05
1.74713e-05
1.53491e-05
1.62859e-05
1.63296e-05
1.88805e-05
3.63068e-05
3.6291e-05
3.6291e-05
3.63068e-05
3.6291e-05
3.6291e-05
3.6423e-05
3.6423e-05
3.6423e-05
3.6423e-05
3.6291e-05
3.6291e-05
3.63068e-05
3.6291e-05
3.6291e-05
3.63068e-05
3.59957e-05
3.42687e-05
3.58912e-05
3.58912e-05
3.43767e-05
3.43766e-05
3.59957e-05
3.42687e-05
3.58911e-05
3.58912e-05
3.43767e-05
3.43766e-05
3.58912e-05
3.43767e-05
3.43767e-05
3.59957e-05
3.42687e-05
3.58912e-05
3.43767e-05
3.43767e-05
3.42687e-05
3.39623e-05
3.22635e-05
3.38889e-05
3.38889e-05
3.24684e-05
3.24683e-05
3.39623e-05
3.22635e-05
3.38889e-05
3.38889e-05
3.24684e-05
3.24683e-05
3.38889e-05
3.24685e-05
3.24684e-05
3.39623e-05
3.22634e-05
3.38889e-05
3.24685e-05
3.24684e-05
3.22634e-05
3.19522e-05
3.02993e-05
3.20079e-05
3.20078e-05
3.06643e-05
3.06642e-05
3.19522e-05
3.02994e-05
3.2008e-05
3.20078e-05
3.06644e-05
3.06641e-05
3.20079e-05
3.06646e-05
3.06643e-05
3.19522e-05
3.02992e-05
3.2008e-05
3.06645e-05
3.06644e-05
3.02992e-05
2.99885e-05
2.84253e-05
3.0229e-05
3.02288e-05
2.89624e-05
2.89622e-05
2.99886e-05
2.84255e-05
3.02291e-05
3.02287e-05
2.89626e-05
2.89621e-05
3.02289e-05
2.89628e-05
2.89623e-05
2.99885e-05
2.84252e-05
3.02291e-05
2.89627e-05
2.89626e-05
2.84252e-05
2.81227e-05
2.6674e-05
2.85536e-05
2.85534e-05
2.7368e-05
2.73678e-05
2.81228e-05
2.66742e-05
2.85538e-05
2.85533e-05
2.73683e-05
2.73676e-05
2.85535e-05
2.73685e-05
2.73679e-05
2.81226e-05
2.66739e-05
2.85538e-05
2.73684e-05
2.73683e-05
2.66738e-05
2.63909e-05
2.50663e-05
2.69866e-05
2.69864e-05
2.58841e-05
2.58838e-05
2.63909e-05
2.50665e-05
2.6987e-05
2.69862e-05
2.58845e-05
2.58836e-05
2.69865e-05
2.58848e-05
2.5884e-05
2.63907e-05
2.50661e-05
2.69869e-05
2.58846e-05
2.58845e-05
2.50661e-05
2.48075e-05
2.36125e-05
2.55304e-05
2.553e-05
2.45102e-05
2.45099e-05
2.48077e-05
2.36126e-05
2.55308e-05
2.55299e-05
2.45107e-05
2.45097e-05
2.55302e-05
2.4511e-05
2.45102e-05
2.48073e-05
2.36123e-05
2.55307e-05
2.45109e-05
2.45107e-05
2.36123e-05
2.33783e-05
2.23124e-05
2.41842e-05
2.41839e-05
2.32479e-05
2.32475e-05
2.33786e-05
2.23127e-05
2.41847e-05
2.41836e-05
2.32484e-05
2.32473e-05
2.41841e-05
2.32488e-05
2.32478e-05
2.33782e-05
2.23123e-05
2.41846e-05
2.32486e-05
2.32484e-05
2.23121e-05
2.2105e-05
2.1168e-05
2.29497e-05
2.29494e-05
2.20966e-05
2.20962e-05
2.2105e-05
2.11683e-05
2.29503e-05
2.29491e-05
2.20972e-05
2.2096e-05
2.29496e-05
2.20976e-05
2.20965e-05
2.21046e-05
2.11679e-05
2.29503e-05
2.20974e-05
2.20972e-05
2.11678e-05
2.09863e-05
2.01709e-05
2.18259e-05
2.18255e-05
2.10542e-05
2.10538e-05
2.09866e-05
2.01709e-05
2.18266e-05
2.18252e-05
2.1055e-05
2.10536e-05
2.18258e-05
2.10553e-05
2.10542e-05
2.09862e-05
2.01704e-05
2.18265e-05
2.10551e-05
2.1055e-05
2.01704e-05
2.00139e-05
1.93145e-05
2.08103e-05
2.08099e-05
2.0118e-05
2.01178e-05
2.00137e-05
1.93151e-05
2.08111e-05
2.08097e-05
2.01188e-05
2.01175e-05
2.08102e-05
2.01192e-05
2.0118e-05
2.00133e-05
1.93147e-05
2.0811e-05
2.0119e-05
2.01189e-05
1.93144e-05
1.91815e-05
1.85909e-05
1.99002e-05
1.98999e-05
1.92857e-05
1.92855e-05
1.91824e-05
1.85909e-05
1.9901e-05
1.98996e-05
1.92866e-05
1.92853e-05
1.99002e-05
1.92868e-05
1.92858e-05
1.91818e-05
1.85912e-05
1.99011e-05
1.92868e-05
1.92866e-05
1.85902e-05
1.84896e-05
1.7999e-05
1.90935e-05
1.90936e-05
1.8555e-05
1.85547e-05
1.84909e-05
1.79981e-05
1.90943e-05
1.9093e-05
1.85559e-05
1.85545e-05
1.90936e-05
1.85559e-05
1.85547e-05
1.84901e-05
1.79994e-05
1.90944e-05
1.85559e-05
1.85557e-05
1.79986e-05
1.79333e-05
1.75408e-05
1.83875e-05
1.83876e-05
1.79222e-05
1.79215e-05
1.79348e-05
1.75404e-05
1.83884e-05
1.83869e-05
1.79228e-05
1.79219e-05
1.83873e-05
1.79234e-05
1.79219e-05
1.79347e-05
1.75433e-05
1.83883e-05
1.79235e-05
1.79225e-05
1.75411e-05
1.75072e-05
1.72255e-05
1.7779e-05
1.77787e-05
1.73859e-05
1.73867e-05
1.75081e-05
1.72229e-05
1.77795e-05
1.77789e-05
1.73865e-05
1.73863e-05
1.7779e-05
1.73869e-05
1.73868e-05
1.75096e-05
1.72235e-05
1.77792e-05
1.73867e-05
1.73878e-05
1.72276e-05
1.72077e-05
1.70318e-05
1.72679e-05
1.72684e-05
1.69417e-05
1.69424e-05
1.72069e-05
1.70308e-05
1.72684e-05
1.72681e-05
1.69435e-05
1.6945e-05
1.72665e-05
1.69441e-05
1.69463e-05
1.72081e-05
1.7034e-05
1.72671e-05
1.69458e-05
1.69476e-05
1.70439e-05
1.70287e-05
1.70173e-05
1.68497e-05
1.68529e-05
1.66029e-05
1.65979e-05
1.70309e-05
1.6998e-05
1.685e-05
1.68529e-05
1.66038e-05
1.66022e-05
1.68492e-05
1.65971e-05
1.66059e-05
1.70339e-05
1.70014e-05
1.68512e-05
1.66025e-05
1.66037e-05
1.70059e-05
1.70247e-05
1.71761e-05
1.65257e-05
1.65272e-05
1.63901e-05
1.63973e-05
1.70109e-05
1.72283e-05
1.65294e-05
1.65288e-05
1.63858e-05
1.63793e-05
1.65286e-05
1.63968e-05
1.63768e-05
1.70103e-05
1.71866e-05
1.65268e-05
1.63813e-05
1.63804e-05
1.71858e-05
1.72608e-05
1.7405e-05
1.6354e-05
1.63473e-05
1.62231e-05
1.62362e-05
1.72938e-05
1.74251e-05
1.63465e-05
1.63526e-05
1.62233e-05
1.62398e-05
1.63592e-05
1.62441e-05
1.62163e-05
1.72855e-05
1.75217e-05
1.63625e-05
1.62383e-05
1.62253e-05
1.74556e-05
1.75031e-05
1.84613e-05
1.62281e-05
1.62422e-05
1.63261e-05
1.62711e-05
1.75612e-05
1.82357e-05
1.62291e-05
1.62196e-05
1.63217e-05
1.62648e-05
1.62072e-05
1.62808e-05
1.63439e-05
1.75647e-05
1.82531e-05
1.62195e-05
1.62679e-05
1.63545e-05
1.8651e-05
1.85626e-05
1.63406e-05
1.62828e-05
1.82941e-05
1.63276e-05
1.63316e-05
1.63966e-05
1.85137e-05
1.63968e-05
3.73773e-05
3.73765e-05
3.7377e-05
3.7377e-05
3.73701e-05
3.73777e-05
3.73043e-05
3.73768e-05
3.73701e-05
3.73777e-05
3.73768e-05
3.73043e-05
3.73741e-05
3.72959e-05
3.72959e-05
3.58797e-05
4.08724e-05
3.66033e-05
4.51461e-05
5.51147e-05
6.48947e-05
3.58803e-05
4.08716e-05
3.66034e-05
4.5146e-05
3.58932e-05
3.58933e-05
3.58932e-05
3.44005e-05
3.44005e-05
3.44005e-05
3.44005e-05
3.52757e-05
3.56385e-05
3.58929e-05
3.53771e-05
3.60476e-05
3.42364e-05
3.53822e-05
5.51168e-05
6.48989e-05
3.52758e-05
3.58929e-05
3.56381e-05
3.53771e-05
3.60475e-05
3.53822e-05
3.42374e-05
3.65969e-05
3.65974e-05
3.5279e-05
3.40645e-05
3.40636e-05
3.39657e-05
5.13543e-05
3.46793e-05
5.46241e-05
7.65452e-05
8.08611e-05
3.39681e-05
5.13551e-05
3.46789e-05
5.46246e-05
3.39296e-05
3.39297e-05
3.39297e-05
3.25854e-05
3.25854e-05
3.25855e-05
3.25855e-05
3.3054e-05
3.24751e-05
3.39295e-05
3.34087e-05
3.38961e-05
3.15753e-05
3.34678e-05
7.65463e-05
8.08651e-05
3.30541e-05
3.39295e-05
3.2474e-05
3.34087e-05
3.38958e-05
3.34678e-05
3.15771e-05
3.17166e-05
3.17158e-05
3.32637e-05
3.0926e-05
3.09245e-05
3.22499e-05
5.91699e-05
3.29237e-05
6.14388e-05
8.43923e-05
8.50675e-05
3.22522e-05
5.91723e-05
3.29218e-05
6.14428e-05
3.21578e-05
3.21578e-05
3.21578e-05
3.09282e-05
3.09282e-05
3.09281e-05
3.09282e-05
3.07894e-05
3.05137e-05
3.21376e-05
3.15541e-05
3.16369e-05
2.98864e-05
3.17101e-05
8.43941e-05
8.50701e-05
3.07893e-05
3.21376e-05
3.05135e-05
3.1554e-05
3.16364e-05
3.17101e-05
2.98874e-05
3.02174e-05
3.02164e-05
3.1273e-05
3.00049e-05
3.00035e-05
3.07531e-05
6.43519e-05
3.13502e-05
6.57223e-05
8.46124e-05
8.39099e-05
3.07541e-05
6.43518e-05
3.13502e-05
6.57283e-05
3.05346e-05
3.05346e-05
3.05346e-05
2.9398e-05
2.9398e-05
2.93979e-05
2.9398e-05
2.86007e-05
2.91414e-05
3.04694e-05
2.98005e-05
2.9413e-05
2.86746e-05
3.00687e-05
8.46123e-05
8.39125e-05
2.86007e-05
3.04694e-05
2.9142e-05
2.98004e-05
2.94125e-05
3.00687e-05
2.86755e-05
2.99416e-05
2.99406e-05
2.93483e-05
3.00363e-05
3.00353e-05
2.95178e-05
6.73223e-05
3.00005e-05
6.8027e-05
8.22147e-05
8.12191e-05
2.95188e-05
6.73217e-05
3.00009e-05
6.80339e-05
2.90329e-05
2.90328e-05
2.90328e-05
2.79756e-05
2.79756e-05
2.79756e-05
2.79756e-05
2.65677e-05
2.8123e-05
2.89027e-05
2.8152e-05
2.73171e-05
2.7781e-05
2.85257e-05
8.22141e-05
8.12212e-05
2.65677e-05
2.89027e-05
2.81234e-05
2.81519e-05
2.73166e-05
2.85256e-05
2.7782e-05
3.04504e-05
3.04497e-05
2.75329e-05
3.07689e-05
3.07685e-05
2.86039e-05
6.87472e-05
2.89472e-05
6.90312e-05
7.94371e-05
7.85326e-05
2.86049e-05
6.87468e-05
2.89476e-05
6.90396e-05
2.76353e-05
2.76353e-05
2.76353e-05
2.66486e-05
2.66487e-05
2.66486e-05
2.66486e-05
2.47436e-05
2.74058e-05
2.74287e-05
2.66128e-05
2.5414e-05
2.71908e-05
2.70743e-05
7.94352e-05
7.85338e-05
2.47437e-05
2.74286e-05
2.7406e-05
2.66126e-05
2.54135e-05
2.70741e-05
2.71915e-05
3.16024e-05
3.16029e-05
2.58511e-05
3.21172e-05
3.2119e-05
2.80581e-05
6.92493e-05
2.82444e-05
6.9309e-05
7.70068e-05
7.62874e-05
2.80589e-05
6.92557e-05
2.82449e-05
6.93176e-05
2.63308e-05
2.63307e-05
2.63307e-05
2.54084e-05
2.54084e-05
2.54083e-05
2.54084e-05
2.31634e-05
2.70013e-05
2.60444e-05
2.51841e-05
2.37465e-05
2.69211e-05
2.57123e-05
7.7005e-05
7.62879e-05
2.31638e-05
2.60444e-05
2.70013e-05
2.5184e-05
2.3746e-05
2.57121e-05
2.69222e-05
3.32179e-05
3.32216e-05
2.432e-05
3.39204e-05
3.39263e-05
2.79142e-05
6.92959e-05
2.79271e-05
6.92757e-05
7.50745e-05
7.45346e-05
2.79139e-05
6.93083e-05
2.79273e-05
6.92681e-05
2.51112e-05
2.51111e-05
2.51111e-05
2.42488e-05
2.42488e-05
2.42487e-05
2.42487e-05
2.18462e-05
2.6935e-05
2.47489e-05
2.38659e-05
2.23368e-05
2.69822e-05
2.44388e-05
7.50722e-05
7.45356e-05
2.18459e-05
2.47488e-05
2.69343e-05
2.38657e-05
2.23367e-05
2.44386e-05
2.69835e-05
3.51591e-05
3.51575e-05
2.29423e-05
3.59666e-05
3.59759e-05
2.8158e-05
6.91991e-05
2.80328e-05
6.91698e-05
7.36071e-05
7.32131e-05
2.81604e-05
6.9193e-05
2.80299e-05
6.91758e-05
2.3971e-05
2.39708e-05
2.39709e-05
2.31652e-05
2.31652e-05
2.3165e-05
2.31651e-05
2.08002e-05
2.72004e-05
2.3541e-05
2.26594e-05
2.11954e-05
2.73558e-05
2.32523e-05
7.36073e-05
7.32131e-05
2.08006e-05
2.35409e-05
2.72001e-05
2.26592e-05
2.11945e-05
2.32521e-05
2.73565e-05
3.74147e-05
3.74137e-05
2.1721e-05
3.83018e-05
3.83114e-05
2.882e-05
6.91237e-05
2.85565e-05
6.91004e-05
7.25283e-05
7.22426e-05
2.8822e-05
6.91224e-05
2.85561e-05
6.91106e-05
2.29058e-05
2.29056e-05
2.29057e-05
2.21538e-05
2.21539e-05
2.21537e-05
2.21538e-05
2.0028e-05
2.778e-05
2.24171e-05
2.1563e-05
2.03175e-05
2.80353e-05
2.21493e-05
7.25287e-05
7.22429e-05
2.0028e-05
2.2417e-05
2.77797e-05
2.15628e-05
2.03174e-05
2.2149e-05
2.80364e-05
3.98336e-05
3.9838e-05
2.06512e-05
4.07138e-05
4.07244e-05
2.99041e-05
6.90983e-05
2.94944e-05
6.91142e-05
7.17496e-05
7.15514e-05
2.9912e-05
6.91075e-05
2.9497e-05
6.9122e-05
2.1912e-05
2.19118e-05
2.19119e-05
2.12115e-05
2.12115e-05
2.12113e-05
2.12114e-05
1.95213e-05
2.86496e-05
2.1377e-05
2.05741e-05
1.97024e-05
2.89941e-05
2.113e-05
7.17502e-05
7.15517e-05
1.95223e-05
2.13768e-05
2.86491e-05
2.0574e-05
1.97022e-05
2.11298e-05
2.89959e-05
4.22538e-05
4.22586e-05
1.9725e-05
4.31249e-05
4.31307e-05
3.14378e-05
6.91456e-05
3.0822e-05
6.92014e-05
7.12046e-05
7.10621e-05
3.13919e-05
6.91652e-05
3.08341e-05
6.91858e-05
2.09865e-05
2.09863e-05
2.09864e-05
2.0334e-05
2.0334e-05
2.03338e-05
2.0334e-05
1.92781e-05
2.97788e-05
2.042e-05
1.969e-05
1.93522e-05
3.01899e-05
2.01934e-05
7.12034e-05
7.10651e-05
1.92767e-05
2.04199e-05
2.97755e-05
1.96898e-05
1.93529e-05
2.01932e-05
3.01929e-05
4.45528e-05
4.456e-05
1.89364e-05
4.55565e-05
4.55795e-05
3.33035e-05
6.92629e-05
3.25599e-05
6.92793e-05
7.08211e-05
7.07214e-05
3.33563e-05
6.92581e-05
3.24985e-05
6.92923e-05
2.01242e-05
2.01239e-05
2.0124e-05
1.95181e-05
1.95181e-05
1.95179e-05
1.9518e-05
1.92988e-05
3.11162e-05
1.95434e-05
1.8909e-05
1.92654e-05
3.15957e-05
1.93365e-05
7.08237e-05
7.0722e-05
1.92975e-05
1.95432e-05
3.11135e-05
1.89089e-05
1.92651e-05
1.93363e-05
3.15938e-05
4.69258e-05
4.69315e-05
1.82775e-05
4.77439e-05
4.7752e-05
3.54011e-05
6.93622e-05
3.46943e-05
6.93954e-05
7.05489e-05
7.04852e-05
3.54637e-05
6.93804e-05
3.46838e-05
6.93936e-05
1.93239e-05
1.93236e-05
1.93238e-05
1.8764e-05
1.8764e-05
1.87638e-05
1.87638e-05
1.95678e-05
3.26205e-05
1.87441e-05
1.82275e-05
1.94474e-05
3.31427e-05
1.85561e-05
7.05464e-05
7.04891e-05
1.95673e-05
1.8744e-05
3.26168e-05
1.82272e-05
1.94474e-05
1.85559e-05
3.31409e-05
4.89523e-05
4.8964e-05
1.77515e-05
4.97414e-05
4.97507e-05
3.80966e-05
6.94594e-05
3.6848e-05
6.95378e-05
7.03605e-05
7.03068e-05
3.7977e-05
6.94667e-05
3.69414e-05
6.95341e-05
1.85849e-05
1.85848e-05
1.85848e-05
1.80694e-05
1.80695e-05
1.80693e-05
1.80694e-05
2.00846e-05
3.42508e-05
1.80201e-05
1.76427e-05
1.99069e-05
3.47962e-05
1.78503e-05
7.03658e-05
7.03037e-05
2.00915e-05
1.80201e-05
3.4242e-05
1.76418e-05
1.98957e-05
1.78501e-05
3.47987e-05
5.09529e-05
5.09507e-05
1.73636e-05
5.14731e-05
5.15038e-05
4.05722e-05
6.95564e-05
3.94728e-05
6.96337e-05
7.02076e-05
7.01626e-05
4.05584e-05
6.95606e-05
3.94545e-05
6.96484e-05
1.79049e-05
1.79046e-05
1.79044e-05
1.7431e-05
1.74313e-05
1.74315e-05
1.74315e-05
2.08659e-05
3.59363e-05
1.73685e-05
1.71546e-05
2.05827e-05
3.64878e-05
1.72167e-05
7.02127e-05
7.01616e-05
2.08937e-05
1.73684e-05
3.5932e-05
1.71565e-05
2.05732e-05
1.72175e-05
3.64997e-05
5.2422e-05
5.24249e-05
1.71093e-05
5.32634e-05
5.32648e-05
4.33335e-05
6.96546e-05
4.19459e-05
6.97323e-05
7.0079e-05
7.00579e-05
4.31299e-05
6.9652e-05
4.20682e-05
6.96793e-05
1.72818e-05
1.72811e-05
1.72806e-05
1.68488e-05
1.6848e-05
1.68492e-05
1.68497e-05
2.19155e-05
3.76178e-05
1.67897e-05
1.6769e-05
2.14981e-05
3.82045e-05
1.66568e-05
7.00792e-05
7.00581e-05
2.18768e-05
1.67885e-05
3.76147e-05
1.67645e-05
2.15068e-05
1.66551e-05
3.81542e-05
5.39287e-05
5.40179e-05
1.70037e-05
5.4646e-05
5.46146e-05
4.57017e-05
6.97203e-05
4.44035e-05
6.98474e-05
6.99749e-05
6.99469e-05
4.56884e-05
6.98006e-05
4.49452e-05
6.97879e-05
1.67115e-05
1.67117e-05
1.67115e-05
1.63274e-05
1.63283e-05
1.63255e-05
1.6326e-05
2.31009e-05
3.92511e-05
1.62788e-05
1.64709e-05
2.26507e-05
3.97165e-05
1.61643e-05
6.9974e-05
6.99625e-05
2.30826e-05
1.62789e-05
3.92826e-05
1.64618e-05
2.26627e-05
1.61625e-05
3.9745e-05
5.52218e-05
5.52249e-05
1.70249e-05
5.58157e-05
5.5792e-05
4.80083e-05
6.98361e-05
4.7261e-05
6.98349e-05
6.98856e-05
6.98512e-05
4.77818e-05
6.98194e-05
4.72987e-05
6.98439e-05
1.62023e-05
1.62057e-05
1.62057e-05
1.58477e-05
1.58536e-05
1.58518e-05
1.58493e-05
2.44639e-05
4.1017e-05
1.58416e-05
1.62818e-05
2.40238e-05
4.13488e-05
1.57412e-05
6.98888e-05
6.98664e-05
2.46392e-05
1.58483e-05
4.0977e-05
1.63339e-05
2.41349e-05
1.57507e-05
4.15389e-05
5.64421e-05
5.64777e-05
1.74324e-05
5.69823e-05
5.69605e-05
4.99003e-05
6.99202e-05
4.93205e-05
6.9968e-05
6.98253e-05
6.98125e-05
4.98724e-05
6.99417e-05
4.96105e-05
6.99374e-05
1.57473e-05
1.57413e-05
1.57394e-05
1.54475e-05
1.5441e-05
1.54415e-05
1.5451e-05
2.60986e-05
4.2509e-05
1.54805e-05
1.62753e-05
2.56843e-05
4.30872e-05
1.54003e-05
6.98221e-05
6.98173e-05
2.60709e-05
1.54708e-05
4.23278e-05
1.62179e-05
2.55212e-05
1.53881e-05
4.27741e-05
5.72057e-05
5.72625e-05
1.76766e-05
5.77395e-05
5.7777e-05
5.26474e-05
7.01189e-05
5.14694e-05
7.00865e-05
6.97685e-05
6.97327e-05
7.00415e-05
5.12586e-05
7.00565e-05
1.53438e-05
1.53523e-05
1.53606e-05
2.7643e-05
4.36778e-05
1.51791e-05
1.63091e-05
2.72706e-05
4.40333e-05
1.51082e-05
6.97402e-05
2.77134e-05
1.51786e-05
4.3747e-05
2.71458e-05
1.51175e-05
5.81563e-05
5.81622e-05
1.89714e-05
5.87326e-05
5.87529e-05
3.73741e-05
3.72958e-05
3.72959e-05
5.3112e-05
3.71932e-05
5.31139e-05
3.71932e-05
3.7093e-05
3.72395e-05
3.72406e-05
3.71762e-05
3.71762e-05
3.73701e-05
3.73777e-05
3.73043e-05
3.73768e-05
3.73701e-05
3.73777e-05
3.73043e-05
3.73768e-05
3.71732e-05
3.9412e-05
3.7168e-05
3.67256e-05
3.71732e-05
3.9412e-05
3.7168e-05
3.67257e-05
3.70959e-05
3.71022e-05
3.60246e-05
3.64211e-05
3.71636e-05
3.71109e-05
3.63054e-05
3.70959e-05
3.71022e-05
3.60251e-05
3.64211e-05
3.71636e-05
3.71109e-05
3.63055e-05
3.73741e-05
3.72958e-05
3.72958e-05
5.31122e-05
3.71933e-05
3.7093e-05
3.72412e-05
3.7239e-05
3.71762e-05
3.71762e-05
5.31137e-05
3.71933e-05
3.73701e-05
3.73777e-05
3.73043e-05
3.73768e-05
3.73701e-05
3.73777e-05
3.73768e-05
3.73043e-05
3.71732e-05
3.94125e-05
3.7168e-05
3.67258e-05
3.70958e-05
3.71022e-05
3.60248e-05
3.64211e-05
3.71636e-05
3.71109e-05
3.63055e-05
3.71732e-05
3.94127e-05
3.7168e-05
3.67256e-05
3.70959e-05
3.71022e-05
3.64211e-05
3.60248e-05
3.71109e-05
3.71636e-05
3.63055e-05
3.73773e-05
3.73765e-05
3.7377e-05
3.7377e-05
3.73773e-05
3.73765e-05
3.7377e-05
3.7377e-05
3.73773e-05
3.73765e-05
3.7377e-05
3.7377e-05
3.71133e-05
3.71099e-05
3.64241e-05
3.64241e-05
3.71125e-05
3.71125e-05
3.64261e-05
3.71133e-05
3.71099e-05
3.64241e-05
3.64241e-05
3.71125e-05
3.71125e-05
3.64261e-05
3.71133e-05
3.71099e-05
3.64241e-05
3.64241e-05
3.71125e-05
3.71125e-05
3.64261e-05
3.71133e-05
3.71099e-05
3.64241e-05
3.64241e-05
3.71125e-05
3.71125e-05
3.64261e-05
3.73701e-05
3.73777e-05
3.73768e-05
3.73043e-05
3.70959e-05
3.71022e-05
3.60245e-05
3.64211e-05
3.71636e-05
3.71109e-05
3.63055e-05
3.71732e-05
3.94121e-05
3.7168e-05
3.67258e-05
3.70959e-05
3.71022e-05
3.64211e-05
3.60251e-05
3.71109e-05
3.71636e-05
3.63055e-05
3.71732e-05
3.94127e-05
3.7168e-05
3.67255e-05
3.73741e-05
3.72959e-05
3.72959e-05
5.31144e-05
3.71933e-05
3.7093e-05
3.72399e-05
3.7241e-05
3.71762e-05
3.71762e-05
5.31145e-05
3.71933e-05
3.73701e-05
3.73777e-05
3.73768e-05
3.73043e-05
3.70958e-05
3.71022e-05
3.64211e-05
3.60251e-05
3.71109e-05
3.71636e-05
3.63056e-05
3.70958e-05
3.71022e-05
3.64211e-05
3.60251e-05
3.71109e-05
3.71636e-05
3.63056e-05
3.71732e-05
3.94126e-05
3.7168e-05
3.67256e-05
3.71732e-05
3.94126e-05
3.7168e-05
3.67258e-05
3.7093e-05
3.72409e-05
3.72414e-05
3.71762e-05
3.71762e-05
5.31143e-05
3.71933e-05
5.31142e-05
3.71933e-05
5.51147e-05
6.48946e-05
5.51165e-05
6.48977e-05
3.65982e-05
3.65983e-05
3.5279e-05
3.40628e-05
3.4063e-05
7.47293e-05
6.76709e-05
7.47332e-05
6.76746e-05
3.49729e-05
3.20404e-05
3.20404e-05
3.3471e-05
3.347e-05
3.58797e-05
4.0872e-05
3.66035e-05
4.51448e-05
3.52756e-05
3.56386e-05
3.58929e-05
3.53771e-05
3.60476e-05
3.42369e-05
3.53822e-05
3.52757e-05
3.56382e-05
3.58929e-05
3.5377e-05
3.60476e-05
3.42379e-05
3.53822e-05
3.56333e-05
5.02146e-05
4.64551e-05
3.48928e-05
3.56337e-05
5.02137e-05
4.64548e-05
3.48934e-05
3.49993e-05
3.48726e-05
3.27309e-05
3.44018e-05
3.38644e-05
3.48857e-05
3.41796e-05
3.49994e-05
3.48725e-05
3.27316e-05
3.44018e-05
3.38632e-05
3.48857e-05
3.41798e-05
3.65972e-05
3.65993e-05
3.5279e-05
3.40643e-05
3.40606e-05
5.51159e-05
6.48971e-05
7.47299e-05
6.76734e-05
3.49729e-05
3.20414e-05
3.20379e-05
3.34689e-05
3.34725e-05
7.4732e-05
6.76725e-05
3.52758e-05
3.56384e-05
3.58929e-05
3.5377e-05
3.60475e-05
3.4237e-05
3.53822e-05
3.588e-05
4.08726e-05
3.66031e-05
4.51476e-05
3.52757e-05
3.58929e-05
3.56385e-05
3.5377e-05
3.60475e-05
3.53822e-05
3.42368e-05
3.56329e-05
5.02147e-05
4.64545e-05
3.48941e-05
3.49992e-05
3.48726e-05
3.27308e-05
3.44018e-05
3.38636e-05
3.48857e-05
3.41799e-05
3.56329e-05
5.02165e-05
4.64562e-05
3.48936e-05
3.49992e-05
3.48725e-05
3.44018e-05
3.27305e-05
3.48857e-05
3.3864e-05
3.41798e-05
3.58799e-05
4.08703e-05
3.66034e-05
4.51467e-05
3.52757e-05
3.58929e-05
3.56383e-05
3.53771e-05
3.60475e-05
3.53822e-05
3.42378e-05
3.58799e-05
4.08736e-05
3.6603e-05
4.51464e-05
3.49994e-05
3.48726e-05
3.27299e-05
3.44018e-05
3.38641e-05
3.48857e-05
3.41798e-05
3.56335e-05
5.02143e-05
4.64523e-05
3.48934e-05
3.49993e-05
3.48726e-05
3.44018e-05
3.27316e-05
3.48857e-05
3.38631e-05
3.41797e-05
3.56331e-05
5.0215e-05
4.64571e-05
3.48933e-05
3.65985e-05
3.6597e-05
3.5279e-05
3.40617e-05
3.40637e-05
5.51169e-05
6.48961e-05
7.47344e-05
6.76739e-05
3.49729e-05
3.20388e-05
3.20422e-05
3.3471e-05
3.34693e-05
7.47314e-05
6.7675e-05
3.52759e-05
3.58929e-05
3.56381e-05
3.5377e-05
3.60475e-05
3.53822e-05
3.42375e-05
3.58806e-05
4.08728e-05
3.66029e-05
4.51469e-05
3.58809e-05
4.08719e-05
3.66032e-05
4.51455e-05
3.49992e-05
3.48726e-05
3.44018e-05
3.27316e-05
3.48857e-05
3.38634e-05
3.41798e-05
3.49992e-05
3.48726e-05
3.44018e-05
3.27315e-05
3.48857e-05
3.3863e-05
3.418e-05
3.56322e-05
5.02158e-05
4.64565e-05
3.48939e-05
3.56324e-05
5.02153e-05
4.64546e-05
3.48942e-05
5.51164e-05
6.48959e-05
5.51165e-05
6.48965e-05
3.49729e-05
3.20421e-05
3.20409e-05
3.34685e-05
3.34689e-05
7.47303e-05
6.76743e-05
7.47318e-05
6.76759e-05
7.65426e-05
8.08601e-05
7.65467e-05
8.08644e-05
3.17188e-05
3.17165e-05
3.32638e-05
3.09231e-05
3.09233e-05
8.40048e-05
8.18483e-05
8.40086e-05
8.18517e-05
3.29546e-05
3.03086e-05
3.03089e-05
3.07482e-05
3.07447e-05
3.39662e-05
5.13532e-05
3.46794e-05
5.46232e-05
3.30538e-05
3.24752e-05
3.39295e-05
3.34086e-05
3.38961e-05
3.15761e-05
3.34678e-05
3.3054e-05
3.24739e-05
3.39294e-05
3.34086e-05
3.38961e-05
3.15771e-05
3.34678e-05
3.378e-05
5.83687e-05
5.55987e-05
3.30822e-05
3.37801e-05
5.83679e-05
5.55978e-05
3.30825e-05
3.27692e-05
3.29353e-05
3.06506e-05
3.25726e-05
3.13931e-05
3.30158e-05
3.19181e-05
3.27693e-05
3.29352e-05
3.06517e-05
3.25726e-05
3.13918e-05
3.30158e-05
3.19183e-05
3.17163e-05
3.17199e-05
3.32638e-05
3.09246e-05
3.09199e-05
7.65441e-05
8.08622e-05
8.40058e-05
8.18503e-05
3.29546e-05
3.031e-05
3.03062e-05
3.07452e-05
3.07493e-05
8.40068e-05
8.18496e-05
3.30542e-05
3.24743e-05
3.39295e-05
3.34087e-05
3.38959e-05
3.15765e-05
3.34678e-05
3.39676e-05
5.13557e-05
3.46787e-05
5.4627e-05
3.3054e-05
3.39295e-05
3.2475e-05
3.34086e-05
3.38958e-05
3.34678e-05
3.15756e-05
3.3778e-05
5.83701e-05
5.56e-05
3.3085e-05
3.27691e-05
3.29353e-05
3.06506e-05
3.25726e-05
3.13916e-05
3.30158e-05
3.19185e-05
3.37779e-05
5.83719e-05
5.56004e-05
3.30843e-05
3.27689e-05
3.29351e-05
3.25726e-05
3.06502e-05
3.30158e-05
3.1393e-05
3.19182e-05
3.39665e-05
5.13527e-05
3.46793e-05
5.46239e-05
3.30538e-05
3.39295e-05
3.24741e-05
3.34086e-05
3.3896e-05
3.34678e-05
3.15775e-05
3.39658e-05
5.13553e-05
3.46793e-05
5.46245e-05
3.27694e-05
3.29354e-05
3.065e-05
3.25726e-05
3.13929e-05
3.30158e-05
3.19183e-05
3.37796e-05
5.83687e-05
5.55971e-05
3.30827e-05
3.27692e-05
3.29352e-05
3.25726e-05
3.06519e-05
3.30158e-05
3.1392e-05
3.19181e-05
3.37794e-05
5.83701e-05
5.55999e-05
3.30823e-05
3.17189e-05
3.17165e-05
3.32637e-05
3.09214e-05
3.09246e-05
7.65463e-05
8.08618e-05
8.40093e-05
8.18522e-05
3.29546e-05
3.03075e-05
3.03105e-05
3.0748e-05
3.07465e-05
8.40064e-05
8.18513e-05
3.30543e-05
3.39295e-05
3.24734e-05
3.34086e-05
3.38959e-05
3.34678e-05
3.15771e-05
3.39678e-05
5.13557e-05
3.46787e-05
5.4626e-05
3.39677e-05
5.13546e-05
3.46788e-05
5.4625e-05
3.27689e-05
3.29353e-05
3.25726e-05
3.06514e-05
3.30158e-05
3.13919e-05
3.19183e-05
3.2769e-05
3.29353e-05
3.25726e-05
3.06513e-05
3.30158e-05
3.13914e-05
3.19185e-05
3.37777e-05
5.83704e-05
5.56e-05
3.30845e-05
3.37781e-05
5.83695e-05
5.55991e-05
3.30849e-05
7.65462e-05
8.08616e-05
7.65481e-05
8.08631e-05
3.29546e-05
3.03111e-05
3.03095e-05
3.07454e-05
3.07444e-05
8.40065e-05
8.18514e-05
8.40076e-05
8.1853e-05
8.43914e-05
8.50671e-05
8.43934e-05
8.50695e-05
3.02201e-05
3.02167e-05
3.12731e-05
3.00039e-05
3.00033e-05
8.48431e-05
8.50719e-05
8.48445e-05
8.50733e-05
3.09612e-05
2.99304e-05
2.99294e-05
2.99713e-05
2.99691e-05
3.22504e-05
5.91714e-05
3.29241e-05
6.14423e-05
3.07891e-05
3.05145e-05
3.21375e-05
3.15539e-05
3.16366e-05
2.9887e-05
3.17101e-05
3.07894e-05
3.05132e-05
3.21375e-05
3.15537e-05
3.16368e-05
2.98872e-05
3.17101e-05
3.21135e-05
6.3869e-05
6.20736e-05
3.14721e-05
3.2114e-05
6.3874e-05
6.20744e-05
3.14726e-05
3.05137e-05
3.1106e-05
2.92368e-05
3.08764e-05
2.97756e-05
3.12898e-05
2.96796e-05
3.0514e-05
3.11059e-05
2.92372e-05
3.08764e-05
2.97753e-05
3.12898e-05
2.968e-05
3.02171e-05
3.02194e-05
3.12732e-05
3.00041e-05
3.00017e-05
8.43919e-05
8.50681e-05
8.48434e-05
8.5072e-05
3.09612e-05
2.993e-05
2.99286e-05
2.99695e-05
2.99699e-05
8.48434e-05
8.50722e-05
3.07895e-05
3.05133e-05
3.21376e-05
3.15539e-05
3.16365e-05
2.98866e-05
3.17101e-05
3.22518e-05
5.91732e-05
3.29217e-05
6.1445e-05
3.07892e-05
3.21375e-05
3.05139e-05
3.15537e-05
3.16364e-05
3.17101e-05
2.98865e-05
3.21125e-05
6.38749e-05
6.20756e-05
3.14734e-05
3.05137e-05
3.11061e-05
2.9237e-05
3.08763e-05
2.97752e-05
3.12899e-05
2.968e-05
3.21124e-05
6.38778e-05
6.20771e-05
3.14731e-05
3.05136e-05
3.11058e-05
3.08763e-05
2.92365e-05
3.12898e-05
2.97751e-05
2.96798e-05
3.22505e-05
5.91701e-05
3.29242e-05
6.14423e-05
3.07892e-05
3.21375e-05
3.05133e-05
3.15538e-05
3.16367e-05
3.17101e-05
2.98874e-05
3.22501e-05
5.91726e-05
3.29239e-05
6.14436e-05
3.0514e-05
3.11062e-05
2.92363e-05
3.08764e-05
2.9775e-05
3.12899e-05
2.968e-05
3.21141e-05
6.38756e-05
6.20742e-05
3.14726e-05
3.05138e-05
3.1106e-05
3.08764e-05
2.92372e-05
3.12898e-05
2.97755e-05
2.96798e-05
3.21137e-05
6.38759e-05
6.20762e-05
3.14722e-05
3.02188e-05
3.02181e-05
3.1273e-05
3.00027e-05
3.00052e-05
8.43931e-05
8.50681e-05
8.48447e-05
8.50738e-05
3.09611e-05
2.99294e-05
2.99309e-05
2.997e-05
2.99704e-05
8.48439e-05
8.50726e-05
3.07895e-05
3.21375e-05
3.05129e-05
3.15539e-05
3.16365e-05
3.17101e-05
2.9887e-05
3.22519e-05
5.91723e-05
3.29215e-05
6.14432e-05
3.22522e-05
5.91722e-05
3.29219e-05
6.14428e-05
3.05135e-05
3.11062e-05
3.08763e-05
2.92373e-05
3.12899e-05
2.97756e-05
2.96799e-05
3.05138e-05
3.11061e-05
3.08763e-05
2.92369e-05
3.12898e-05
2.97751e-05
2.96802e-05
3.21123e-05
6.38756e-05
6.20762e-05
3.14732e-05
3.21128e-05
6.38771e-05
6.20778e-05
3.14735e-05
8.43933e-05
8.50683e-05
8.43946e-05
8.50692e-05
3.09611e-05
2.99306e-05
2.99294e-05
2.99701e-05
2.9969e-05
8.48441e-05
8.50728e-05
8.48445e-05
8.50735e-05
8.46128e-05
8.39107e-05
8.46121e-05
8.39121e-05
2.99421e-05
2.99405e-05
2.93484e-05
3.00362e-05
3.00353e-05
8.26223e-05
8.35502e-05
8.26234e-05
8.35493e-05
2.90407e-05
3.03204e-05
3.03195e-05
3.01088e-05
3.0108e-05
3.07533e-05
6.435e-05
3.13507e-05
6.57267e-05
2.86003e-05
2.91421e-05
3.04694e-05
2.98002e-05
2.94128e-05
2.86752e-05
3.00687e-05
2.86007e-05
2.91419e-05
3.04694e-05
2.98e-05
2.9413e-05
2.86755e-05
3.00687e-05
3.06424e-05
6.70784e-05
6.60731e-05
3.00988e-05
3.06427e-05
6.70849e-05
6.60724e-05
3.00992e-05
2.83441e-05
2.9378e-05
2.81912e-05
2.92854e-05
2.85942e-05
2.96741e-05
2.75605e-05
2.83443e-05
2.93778e-05
2.81915e-05
2.92854e-05
2.85944e-05
2.96741e-05
2.75609e-05
2.99411e-05
2.99408e-05
2.93485e-05
3.00357e-05
3.00344e-05
8.46114e-05
8.39118e-05
8.26214e-05
8.35499e-05
2.90408e-05
3.03199e-05
3.03185e-05
3.01084e-05
3.01081e-05
8.26234e-05
8.3549e-05
2.86008e-05
2.91417e-05
3.04694e-05
2.98003e-05
2.94127e-05
2.86752e-05
3.00687e-05
3.07537e-05
6.43519e-05
3.135e-05
6.57297e-05
2.86005e-05
3.04693e-05
2.91416e-05
2.97999e-05
2.94125e-05
3.00686e-05
2.86747e-05
3.06428e-05
6.70852e-05
6.60725e-05
3.00998e-05
2.8344e-05
2.93782e-05
2.81912e-05
2.92854e-05
2.85941e-05
2.96741e-05
2.7561e-05
3.06424e-05
6.70851e-05
6.60723e-05
3.00994e-05
2.83438e-05
2.93777e-05
2.92853e-05
2.81906e-05
2.9674e-05
2.8594e-05
2.75607e-05
3.07533e-05
6.43497e-05
3.13507e-05
6.57294e-05
2.86005e-05
3.04694e-05
2.91419e-05
2.98001e-05
2.94128e-05
3.00687e-05
2.86754e-05
3.07529e-05
6.43511e-05
3.13503e-05
6.57281e-05
2.83444e-05
2.93783e-05
2.81905e-05
2.92855e-05
2.85939e-05
2.96741e-05
2.7561e-05
3.06427e-05
6.70875e-05
6.60713e-05
3.00992e-05
2.83441e-05
2.93779e-05
2.92854e-05
2.81913e-05
2.96741e-05
2.85942e-05
2.75607e-05
3.06423e-05
6.70845e-05
6.60718e-05
3.00988e-05
2.99413e-05
2.99419e-05
2.93483e-05
3.00354e-05
3.00366e-05
8.46131e-05
8.39102e-05
8.26235e-05
8.35495e-05
2.90406e-05
3.03197e-05
3.03207e-05
3.01088e-05
3.01093e-05
8.26217e-05
8.35507e-05
2.86009e-05
3.04694e-05
2.91416e-05
2.98003e-05
2.94128e-05
3.00687e-05
2.86752e-05
3.07538e-05
6.43512e-05
3.135e-05
6.57281e-05
3.0754e-05
6.43535e-05
3.13505e-05
6.57307e-05
2.83439e-05
2.93783e-05
2.92854e-05
2.81915e-05
2.96741e-05
2.85943e-05
2.7561e-05
2.83441e-05
2.93781e-05
2.92854e-05
2.81912e-05
2.96741e-05
2.8594e-05
2.75612e-05
3.06425e-05
6.70856e-05
6.60722e-05
3.00994e-05
3.06428e-05
6.70877e-05
6.60742e-05
3.00998e-05
8.46132e-05
8.39105e-05
8.46136e-05
8.39103e-05
2.90406e-05
3.03203e-05
3.03195e-05
3.0109e-05
3.01081e-05
8.2622e-05
8.35508e-05
8.26214e-05
8.35508e-05
8.22154e-05
8.12203e-05
8.22137e-05
8.12209e-05
3.04502e-05
3.04495e-05
2.75331e-05
3.07687e-05
3.07688e-05
7.98341e-05
8.08072e-05
7.98345e-05
8.08051e-05
2.72388e-05
3.13787e-05
3.13752e-05
3.09486e-05
3.09492e-05
2.95182e-05
6.73213e-05
3.00009e-05
6.80358e-05
2.65672e-05
2.81234e-05
2.89026e-05
2.81515e-05
2.73169e-05
2.77818e-05
2.85256e-05
2.65677e-05
2.81236e-05
2.89026e-05
2.81513e-05
2.73171e-05
2.77823e-05
2.85256e-05
2.94331e-05
6.86526e-05
6.81862e-05
2.90172e-05
2.94336e-05
6.86627e-05
6.81831e-05
2.90176e-05
2.63381e-05
2.77564e-05
2.7448e-05
2.77886e-05
2.77272e-05
2.81543e-05
2.56263e-05
2.63384e-05