/*--------------------------------*- C++ -*----------------------------------*\
| =========                 |                                                 |
| \\      /  F ield         | OpenFOAM: The Open Source CFD Toolbox           |
|  \\    /   O peration     | Version:  v1906                                 |
|   \\  /    A nd           | Web:      www.OpenFOAM.com                      |
|    \\/     M anipulation  |                                                 |
\*---------------------------------------------------------------------------*/
FoamFile
{
    version     2.0;
    format      ascii;
    class       volScalarField;
    location    "500";
    object      nut;
}
// * * * * * * * * * * * * * * * * * * * * * * * * * * * * * * * * * * * * * //

dimensions      [0 2 -1 0 0 0 0];


internalField   nonuniform List<scalar> 
42616
(
0.000233973
0.000233116
0.000233116
0.000233423
0.000232532
0.000227802
0.000227801
0.000223867
0.000230516
0.00022032
0.000220318
0.000209109
0.000227799
0.000211665
0.000211661
0.000193785
0.000224433
0.00020265
0.000202644
0.000179709
0.000220552
0.000193772
0.000193765
0.00016734
0.000216304
0.000185275
0.000185268
0.000156587
0.00021182
0.000177234
0.000177225
0.000147206
0.000207207
0.000169688
0.00016968
0.000138949
0.000202545
0.000162611
0.000162602
0.000131612
0.000197889
0.000155949
0.00015594
0.000124954
0.000193274
0.000149644
0.000149636
0.000118808
0.000188681
0.000143665
0.000143648
0.000113152
0.000184146
0.000137941
0.000137928
0.000107891
0.000179702
0.000132447
0.000132425
0.000102953
0.000175339
0.000127135
0.000127157
9.82495e-05
0.000170992
0.000121961
0.000121925
9.37538e-05
0.000166704
0.000116859
0.000116731
8.90145e-05
0.000162459
0.000112312
0.000112833
8.70749e-05
0.000158388
0.000108125
0.000107469
8.26718e-05
0.000155086
0.000105378
0.000106676
9.6249e-05
0.000234266
0.000234448
0.000234449
0.000234267
0.000234448
0.000234449
0.000234274
0.000234274
0.000234274
0.000234274
0.000234448
0.000234448
0.000234266
0.000234448
0.000234448
0.000234266
0.000233423
0.000226204
0.000233116
0.000233114
0.000229361
0.000229357
0.000233423
0.000226205
0.000233114
0.000233114
0.000229359
0.000229356
0.000233116
0.000229364
0.000229361
0.000233423
0.000226202
0.000233114
0.000229363
0.000229359
0.000226202
0.000223867
0.00021223
0.000227799
0.000227794
0.000222332
0.000222326
0.000223868
0.000212234
0.000227797
0.000227792
0.000222332
0.000222323
0.000227798
0.000222339
0.000222331
0.000223866
0.000212227
0.000227797
0.000222336
0.000222331
0.000212228
0.000209111
0.00019706
0.000220313
0.000220307
0.000213879
0.000213874
0.000209112
0.000197066
0.000220314
0.000220304
0.000213883
0.000213869
0.000220311
0.00021389
0.000213877
0.000209108
0.000197056
0.000220313
0.000213886
0.000213882
0.000197057
0.000193788
0.000182876
0.000211654
0.000211648
0.00020489
0.000204884
0.000193792
0.000182882
0.000211658
0.000211643
0.000204898
0.000204879
0.000211651
0.000204905
0.000204887
0.000193785
0.000182872
0.000211657
0.000204899
0.000204896
0.000182872
0.000179713
0.000170268
0.000202634
0.000202628
0.000195942
0.000195938
0.000179717
0.000170274
0.000202643
0.000202623
0.000195954
0.000195931
0.000202631
0.000195962
0.00019594
0.000179708
0.000170264
0.000202641
0.000195955
0.000195953
0.000170264
0.000167344
0.000159242
0.000193753
0.000193747
0.000187336
0.000187331
0.000167349
0.000159249
0.000193765
0.000193741
0.000187351
0.000187324
0.00019375
0.000187359
0.000187334
0.000167339
0.000159238
0.000193764
0.000187351
0.00018735
0.000159238
0.000156592
0.000149613
0.000185253
0.000185247
0.000179172
0.000179168
0.000156597
0.00014962
0.000185268
0.00018524
0.000179191
0.00017916
0.000185249
0.000179198
0.00017917
0.000156587
0.000149608
0.000185267
0.00017919
0.00017919
0.000149608
0.00014721
0.000141106
0.000177208
0.000177203
0.000171501
0.000171496
0.000147217
0.000141113
0.000177227
0.000177195
0.000171521
0.000171488
0.000177205
0.000171529
0.000171498
0.000147207
0.000141101
0.000177225
0.00017152
0.000171521
0.0001411
0.000138957
0.000133546
0.000169659
0.000169655
0.000164309
0.000164304
0.00013896
0.000133554
0.000169681
0.000169647
0.000164333
0.000164297
0.000169657
0.000164339
0.000164308
0.000138949
0.00013354
0.00016968
0.000164331
0.000164332
0.00013354
0.000131621
0.000126684
0.00016258
0.000162575
0.000157546
0.000157541
0.000131627
0.00012669
0.000162604
0.000162567
0.000157571
0.000157533
0.000162578
0.000157579
0.000157545
0.000131615
0.000126676
0.000162603
0.00015757
0.000157572
0.000126676
0.000124959
0.000120357
0.000155915
0.00015591
0.000151155
0.000151152
0.000124962
0.000120365
0.000155941
0.000155902
0.000151182
0.000151144
0.000155912
0.000151191
0.000151155
0.00012495
0.000120357
0.00015594
0.000151183
0.000151184
0.000120353
0.000118815
0.000114422
0.000149609
0.000149605
0.000145096
0.000145091
0.000118827
0.00011442
0.000149636
0.000149596
0.000145124
0.000145082
0.000149609
0.00014513
0.000145097
0.000118817
0.000114418
0.000149637
0.000145123
0.000145124
0.000114408
0.00011316
0.000108808
0.000143623
0.000143626
0.000139312
0.000139304
0.000113174
0.000108796
0.000143651
0.000143609
0.000139344
0.000139301
0.000143625
0.000139349
0.000139311
0.00011316
0.000108811
0.000143653
0.000139347
0.000139344
0.000108803
0.000107893
0.000103623
0.000137895
0.000137896
0.000133762
0.000133745
0.00010791
0.000103611
0.000137926
0.000137882
0.000133784
0.000133745
0.000137894
0.000133797
0.000133758
0.000107911
0.000103623
0.000137926
0.000133787
0.000133787
0.000103615
0.000102957
9.89673e-05
0.0001324
0.000132402
0.000128401
0.000128409
0.000102955
9.89136e-05
0.000132416
0.000132381
0.000128439
0.000128378
0.000132394
0.000128443
0.00012842
0.000102954
9.89161e-05
0.000132413
0.000128427
0.000128448
9.89708e-05
9.82056e-05
9.44339e-05
0.00012709
0.000127097
0.00012315
0.000123105
9.81764e-05
9.43236e-05
0.000127121
0.000127095
0.000123184
0.000123206
0.000127095
0.000123174
0.000123267
9.81932e-05
9.44179e-05
0.000127127
0.000123265
0.000123303
9.45577e-05
9.35951e-05
9.03602e-05
0.000121892
0.000121891
0.000118126
0.000118032
9.34433e-05
9.00536e-05
0.000121935
0.000121914
0.000118207
0.000118018
0.000121904
0.000118046
0.000118125
9.35885e-05
8.98657e-05
0.000121931
0.000118024
0.000118072
8.99147e-05
8.94599e-05
8.69407e-05
0.000116836
0.000116859
0.00011366
0.000113714
8.92495e-05
8.71353e-05
0.000116953
0.000116743
0.000113617
0.000113652
0.000116807
0.000113628
0.000113692
8.89024e-05
8.71624e-05
0.000116749
0.000113739
0.000113649
8.74408e-05
8.62264e-05
8.36838e-05
0.000112433
0.000112429
0.000108719
0.000108736
8.62769e-05
8.30862e-05
0.000112354
0.00011268
0.000108848
0.000108523
0.00011266
0.000109005
0.000108353
8.68552e-05
8.34048e-05
0.000112624
0.00010863
0.000108542
8.32225e-05
8.38345e-05
9.16027e-05
0.000108271
0.000107747
0.000108256
0.000105546
8.28654e-05
8.45597e-05
0.000108388
0.000107352
0.000108105
0.000106187
0.000107795
0.000105751
0.00010886
8.24471e-05
8.64962e-05
0.000108058
0.000106243
0.000109106
9.45212e-05
9.19058e-05
0.000107959
0.000105305
8.46318e-05
0.000107631
0.000106725
0.000109008
8.85928e-05
0.000109077
0.00023473
0.000234746
0.000234729
0.000234729
0.000235117
0.000234798
0.000234701
0.000234727
0.000235118
0.000234798
0.000234727
0.000234701
0.000234867
0.000233566
0.000233566
0.000104651
3.87413e-05
0.000129118
3.98246e-05
2.16834e-05
2.28312e-05
0.000104643
3.87373e-05
0.000129114
3.98212e-05
0.000233973
0.000233973
0.000233973
0.000232935
0.000232935
0.000232935
0.000232935
0.000206196
9.36755e-05
0.000233969
0.000231994
0.000222614
8.72225e-05
0.000233611
2.16823e-05
2.28306e-05
0.00020619
0.000233969
9.36751e-05
0.000231994
0.000222622
0.000233611
8.7228e-05
4.78006e-05
4.77888e-05
0.000231345
4.40193e-05
4.40097e-05
7.25679e-05
4.24344e-05
8.14026e-05
4.37631e-05
2.47749e-05
2.54634e-05
7.2558e-05
4.24308e-05
8.13973e-05
4.37593e-05
0.000232532
0.000232532
0.000232532
0.000231084
0.000231084
0.000231083
0.000231084
0.000167491
7.94395e-05
0.000232081
0.000226097
0.000180211
7.45074e-05
0.000231376
2.47731e-05
2.54618e-05
0.000167486
0.000232081
7.94333e-05
0.000226096
0.000180204
0.000231375
7.45103e-05
3.91637e-05
3.91531e-05
0.000219593
3.65772e-05
3.65663e-05
5.62776e-05
4.55469e-05
6.11322e-05
4.6412e-05
2.60134e-05
2.61173e-05
5.62824e-05
4.55444e-05
6.1128e-05
4.64097e-05
0.000230516
0.000230515
0.000230515
0.000228543
0.000228543
0.000228541
0.000228542
0.000138602
6.74259e-05
0.000228643
0.000218231
0.000148066
6.35185e-05
0.000227537
2.60112e-05
2.61152e-05
0.000138597
0.000228643
6.74199e-05
0.000218228
0.000148057
0.000227534
6.35146e-05
3.32172e-05
3.32087e-05
0.000204613
3.19922e-05
3.19833e-05
4.69657e-05
4.74993e-05
4.99087e-05
4.80026e-05
2.60473e-05
2.5939e-05
4.69654e-05
4.74954e-05
4.99086e-05
4.80009e-05
0.000227799
0.000227797
0.000227798
0.000225328
0.000225329
0.000225326
0.000225327
0.000117549
5.82052e-05
0.000223721
0.00020942
0.000124602
5.54856e-05
0.00022231
2.60448e-05
2.59369e-05
0.000117546
0.000223719
5.82037e-05
0.000209415
0.000124595
0.000222306
5.54823e-05
3.0618e-05
3.06101e-05
0.000189778
3.03048e-05
3.0297e-05
4.14284e-05
4.85833e-05
4.32434e-05
4.8837e-05
2.56756e-05
2.55196e-05
4.14276e-05
4.85789e-05
4.32438e-05
4.88353e-05
0.000224433
0.000224431
0.000224432
0.000221562
0.000221563
0.000221559
0.000221561
0.000102114
5.18779e-05
0.000217771
0.000200404
0.00010738
5.00763e-05
0.000216181
2.5673e-05
2.55175e-05
0.000102111
0.000217769
5.18761e-05
0.000200398
0.000107373
0.000216177
5.00738e-05
3.0196e-05
3.0189e-05
0.000176368
3.03725e-05
3.03659e-05
3.81558e-05
4.90947e-05
3.92421e-05
4.91962e-05
2.52381e-05
2.50938e-05
3.81551e-05
4.90904e-05
3.92423e-05
4.9195e-05
0.000220552
0.000220549
0.00022055
0.000217392
0.000217393
0.000217389
0.000217391
9.04961e-05
4.77376e-05
0.000211269
0.000191607
9.44594e-05
4.66132e-05
0.000209603
2.52354e-05
2.50919e-05
9.0495e-05
0.000211267
4.77362e-05
0.0001916
9.4454e-05
0.000209598
4.66098e-05
3.10464e-05
3.10411e-05
0.000164561
3.15419e-05
3.15388e-05
3.63742e-05
4.92738e-05
3.69398e-05
4.92953e-05
2.48488e-05
2.47325e-05
3.63733e-05
4.9272e-05
3.694e-05
4.92937e-05
0.000216305
0.0002163
0.000216302
0.000212957
0.000212958
0.000212952
0.000212955
8.1588e-05
4.51687e-05
0.000204579
0.00018322
8.46734e-05
4.45537e-05
0.000202907
2.48464e-05
2.47305e-05
8.15885e-05
0.000204576
4.51673e-05
0.000183212
8.46677e-05
0.000202902
4.45525e-05
3.25679e-05
3.25676e-05
0.000154267
3.33428e-05
3.3346e-05
3.56774e-05
4.92903e-05
3.58207e-05
4.92837e-05
2.45351e-05
2.44467e-05
3.56743e-05
4.92904e-05
3.58203e-05
4.92762e-05
0.000211821
0.000211815
0.000211818
0.000208367
0.000208368
0.000208362
0.000208365
7.46431e-05
4.37718e-05
0.000197938
0.000175301
7.71186e-05
4.3524e-05
0.000196304
2.45326e-05
2.44448e-05
7.46393e-05
0.000197935
4.37698e-05
0.000175292
7.71158e-05
0.000196298
4.35216e-05
3.44845e-05
3.44727e-05
0.00014522
3.5371e-05
3.5379e-05
3.57593e-05
4.92568e-05
3.56404e-05
4.92453e-05
2.42941e-05
2.4229e-05
3.57614e-05
4.92492e-05
3.56342e-05
4.92441e-05
0.000207208
0.000207201
0.000207204
0.000203711
0.000203712
0.000203705
0.000203708
6.91747e-05
4.32431e-05
0.000191482
0.000167877
7.12047e-05
4.32364e-05
0.000189901
2.42921e-05
2.4227e-05
6.91752e-05
0.00019148
4.32412e-05
0.000167869
7.11966e-05
0.000189895
4.32339e-05
3.68204e-05
3.68079e-05
0.000137218
3.78088e-05
3.78154e-05
3.6551e-05
4.92293e-05
3.62114e-05
4.92209e-05
2.41154e-05
2.40679e-05
3.65529e-05
4.92252e-05
3.62095e-05
4.92204e-05
0.000202546
0.000202539
0.000202542
0.000199049
0.000199051
0.000199044
0.000199047
6.48714e-05
4.33799e-05
0.000185239
0.000160909
6.6505e-05
4.35697e-05
0.000183718
2.41135e-05
2.40659e-05
6.48688e-05
0.000185237
4.33795e-05
0.0001609
6.65018e-05
0.000183711
4.35666e-05
3.93668e-05
3.93629e-05
0.000130035
4.03167e-05
4.03234e-05
3.7981e-05
4.92205e-05
3.74225e-05
4.92264e-05
2.39856e-05
2.39525e-05
3.80002e-05
4.92194e-05
3.74283e-05
4.92243e-05
0.00019789
0.000197883
0.000197886
0.000194421
0.000194422
0.000194415
0.000194419
6.15078e-05
4.40656e-05
0.000179254
0.000154342
6.27515e-05
4.44075e-05
0.000177803
2.39837e-05
2.39505e-05
6.15121e-05
0.000179251
4.40611e-05
0.000154333
6.27486e-05
0.000177796
4.44086e-05
4.18904e-05
4.1887e-05
0.000123453
4.2822e-05
4.28147e-05
4.00916e-05
4.92376e-05
3.91678e-05
4.92576e-05
2.38944e-05
2.38704e-05
3.99737e-05
4.92395e-05
3.92009e-05
4.92475e-05
0.000193276
0.000193269
0.000193273
0.000189831
0.000189831
0.000189823
0.000189829
5.89963e-05
4.52069e-05
0.000173549
0.00014812
5.98559e-05
4.56505e-05
0.000172164
2.38922e-05
2.38689e-05
5.8988e-05
0.000173547
4.51976e-05
0.00014811
5.98564e-05
0.000172156
4.56559e-05
4.4229e-05
4.42262e-05
0.00011734
4.54549e-05
4.54832e-05
4.25967e-05
4.9279e-05
4.14942e-05
4.92854e-05
2.38298e-05
2.38132e-05
4.27244e-05
4.92732e-05
4.13427e-05
4.92852e-05
0.000188685
0.000188674
0.000188679
0.000185275
0.000185275
0.000185268
0.000185272
5.72119e-05
4.67052e-05
0.000168096
0.00014221
5.77214e-05
4.72826e-05
0.00016677
2.38283e-05
2.38113e-05
5.72011e-05
0.000168093
4.66957e-05
0.0001422
5.77146e-05
0.000166763
4.72707e-05
4.68461e-05
4.68391e-05
0.000111548
4.77783e-05
4.77746e-05
4.52581e-05
4.93152e-05
4.44222e-05
4.93249e-05
2.37842e-05
2.37732e-05
4.54189e-05
4.93168e-05
4.43936e-05
4.93209e-05
0.000184149
0.000184139
0.000184145
0.00018081
0.000180809
0.0001808
0.000180803
5.60475e-05
4.85075e-05
0.000162859
0.000136547
5.63086e-05
4.91545e-05
0.000161582
2.37817e-05
2.37719e-05
5.60356e-05
0.000162857
4.8489e-05
0.000136534
5.63152e-05
0.000161575
4.91495e-05
4.89785e-05
4.89819e-05
0.000106117
4.99016e-05
4.98981e-05
4.91818e-05
4.93494e-05
4.70306e-05
4.9377e-05
2.37522e-05
2.37433e-05
4.88502e-05
4.93476e-05
4.72824e-05
4.93699e-05
0.000179707
0.000179696
0.000179699
0.000176421
0.000176428
0.000176412
0.000176419
5.54832e-05
5.05554e-05
0.000157813
0.000131084
5.56877e-05
5.12561e-05
0.00015657
2.37511e-05
2.37408e-05
5.54964e-05
0.000157807
5.05212e-05
0.000131071
5.56158e-05
0.000156563
5.12562e-05
5.12694e-05
5.12433e-05
0.00010122
5.17522e-05
5.17951e-05
5.23058e-05
4.93826e-05
5.0656e-05
4.94114e-05
2.37265e-05
2.37185e-05
5.22988e-05
4.93807e-05
5.06063e-05
4.9411e-05
0.00017534
0.000175331
0.000175329
0.00017206
0.000172057
0.000172078
0.000172087
5.56068e-05
5.27403e-05
0.000152908
0.000125843
5.55099e-05
5.34714e-05
0.000151709
2.37255e-05
2.37166e-05
5.57785e-05
0.000152915
5.27274e-05
0.000125844
5.54796e-05
0.000151722
5.35061e-05
5.27363e-05
5.2722e-05
9.66388e-05
5.39656e-05
5.39406e-05
5.61779e-05
4.94167e-05
5.37717e-05
4.94463e-05
2.37045e-05
2.37009e-05
5.56651e-05
4.94134e-05
5.40413e-05
4.94215e-05
0.000171
0.000170988
0.000170984
0.00016778
0.000167755
0.000167746
0.000167768
5.65371e-05
5.49911e-05
0.000148151
0.000120707
5.59643e-05
5.58546e-05
0.000147004
2.37028e-05
2.36991e-05
5.63393e-05
0.000148128
5.49696e-05
0.00012063
5.59902e-05
0.000146941
5.57017e-05
5.45574e-05
5.47237e-05
9.22907e-05
5.56091e-05
5.55258e-05
5.91675e-05
4.94411e-05
5.68636e-05
4.9486e-05
2.36871e-05
2.36823e-05
5.91396e-05
4.9466e-05
5.83564e-05
4.94619e-05
0.000166696
0.000166677
0.000166691
0.000163574
0.000163591
0.000163596
0.000163573
5.76035e-05
5.71314e-05
0.00014346
0.000115819
5.70358e-05
5.77536e-05
0.000142336
2.36849e-05
2.36829e-05
5.74922e-05
0.000143459
5.72285e-05
0.000115581
5.69685e-05
0.000142341
5.7795e-05
5.61099e-05
5.60943e-05
8.80942e-05
5.70553e-05
5.69843e-05
6.22517e-05
4.94838e-05
6.13348e-05
4.94825e-05
2.36723e-05
2.36658e-05
6.16502e-05
4.94722e-05
6.14189e-05
4.94801e-05
0.000162485
0.000162583
0.000162499
0.000159252
0.000159284
0.000159172
0.000159225
5.92286e-05
5.99054e-05
0.000138925
0.000110948
5.86587e-05
6.01161e-05
0.000137813
2.36705e-05
2.36668e-05
6.01083e-05
0.000139128
5.98837e-05
0.000111697
5.9359e-05
0.000138024
6.07869e-05
5.78122e-05
5.78571e-05
8.58661e-05
5.8582e-05
5.85017e-05
6.43514e-05
4.95121e-05
6.37296e-05
4.95278e-05
2.36615e-05
2.36596e-05
6.43265e-05
4.95159e-05
6.46698e-05
4.95142e-05
0.000158232
0.000158097
0.000158333
0.000156001
0.000155325
0.000155559
0.00015618
6.20268e-05
6.21734e-05
0.000134754
0.000107333
6.16527e-05
6.30714e-05
0.000133684
2.36592e-05
2.36583e-05
6.16622e-05
0.000134479
6.14514e-05
0.00010672
6.08117e-05
0.000133377
6.1991e-05
5.84875e-05
5.85833e-05
8.47022e-05
5.93674e-05
5.9421e-05
6.95694e-05
4.95828e-05
6.72515e-05
4.95733e-05
2.36521e-05
2.36466e-05
4.95508e-05
6.65226e-05
4.95564e-05
0.000154523
0.000154874
0.000155344
6.3655e-05
6.30305e-05
0.00013041
0.000105399
6.37287e-05
6.33264e-05
0.00012932
2.36454e-05
6.41558e-05
0.000130497
6.32182e-05
6.31307e-05
0.000129653
5.98826e-05
5.98603e-05
9.549e-05
6.07874e-05
6.0791e-05
0.000234867
0.000233564
0.000233566
2.32575e-05
0.000214159
2.32564e-05
0.000214162
0.000234435
5.13351e-05
5.13187e-05
0.00022999
0.000229991
0.000235117
0.000234798
0.000234701
0.000234727
0.000235117
0.000234798
0.000234701
0.000234727
0.000234477
4.02624e-05
0.000218814
0.000147835
0.000234477
4.02619e-05
0.000218814
0.000147842
0.000233889
0.000234474
0.000100094
0.000234271
0.000233358
0.000234597
0.000228477
0.000233889
0.000234474
0.000100084
0.000234271
0.000233359
0.000234597
0.000228476
0.000234867
0.000233565
0.000233565
2.32572e-05
0.000214167
0.000234435
5.133e-05
5.13207e-05
0.000229989
0.000229991
2.32571e-05
0.000214169
0.000235118
0.000234798
0.000234701
0.000234727
0.000235117
0.000234798
0.000234727
0.000234701
0.000234477
4.02592e-05
0.000218815
0.000147811
0.000233889
0.000234474
0.000100072
0.00023427
0.000233359
0.000234597
0.000228474
0.000234477
4.02587e-05
0.000218815
0.000147826
0.000233889
0.000234474
0.000234271
0.00010008
0.000234597
0.000233359
0.000228476
0.00023473
0.000234746
0.000234729
0.000234729
0.00023473
0.000234746
0.000234729
0.000234729
0.00023473
0.000234746
0.000234729
0.000234729
0.000234591
0.000234574
0.000234253
0.000234253
0.000234592
0.000234592
0.000234252
0.000234591
0.000234574
0.000234253
0.000234253
0.000234592
0.000234592
0.000234253
0.000234591
0.000234574
0.000234253
0.000234253
0.000234592
0.000234592
0.000234252
0.000234591
0.000234574
0.000234253
0.000234253
0.000234592
0.000234592
0.000234253
0.000235117
0.000234798
0.000234727
0.000234701
0.000233889
0.000234474
0.000100075
0.000234271
0.000233359
0.000234597
0.000228475
0.000234477
4.02599e-05
0.000218817
0.000147827
0.000233889
0.000234474
0.000234271
0.000100089
0.000234597
0.000233359
0.000228476
0.000234477
4.02595e-05
0.000218816
0.000147835
0.000234867
0.000233566
0.000233566
2.32565e-05
0.000214163
0.000234435
5.13204e-05
5.13268e-05
0.000229991
0.000229993
2.32569e-05
0.000214171
0.000235118
0.000234798
0.000234727
0.000234701
0.000233889
0.000234474
0.00023427
0.000100084
0.000234596
0.00023336
0.000228476
0.000233889
0.000234474
0.00023427
0.000100074
0.000234597
0.000233359
0.000228475
0.000234477
4.02591e-05
0.000218818
0.000147813
0.000234477
4.02589e-05
0.000218813
0.000147799
0.000234435
5.13306e-05
5.13179e-05
0.000229992
0.000229992
2.3257e-05
0.00021417
2.32564e-05
0.000214164
2.16838e-05
2.28323e-05
2.16825e-05
2.28308e-05
4.78051e-05
4.77912e-05
0.000231346
4.40214e-05
4.40083e-05
2.44811e-05
2.33049e-05
2.44795e-05
2.33036e-05
0.000229667
4.00652e-05
4.00537e-05
4.31022e-05
4.30862e-05
0.000104665
3.87405e-05
0.000129103
3.98228e-05
0.0002062
9.36859e-05
0.000233969
0.000231993
0.000222609
8.72301e-05
0.000233611
0.000206202
9.36694e-05
0.000233969
0.000231989
0.000222605
8.72177e-05
0.000233611
9.8425e-05
4.19623e-05
4.03777e-05
8.55718e-05
9.84181e-05
4.19609e-05
4.03767e-05
8.55739e-05
0.000200084
0.000230759
8.08046e-05
0.000232683
8.56703e-05
0.000233189
0.000185633
0.000200083
0.000230754
8.0796e-05
0.000232682
8.56527e-05
0.000233188
0.000185637
4.77933e-05
4.78035e-05
0.000231346
4.40138e-05
4.40136e-05
2.16834e-05
2.28324e-05
2.44802e-05
2.33042e-05
0.000229667
4.00585e-05
4.00549e-05
4.30875e-05
4.30998e-05
2.44814e-05
2.3305e-05
0.00020619
9.3664e-05
0.000233969
0.000231991
0.000222608
8.72107e-05
0.000233611
0.000104646
3.87368e-05
0.000129133
3.98207e-05
0.000206191
0.000233969
9.36681e-05
0.000231989
0.000222613
0.000233611
8.72101e-05
9.84213e-05
4.19586e-05
4.03741e-05
8.55668e-05
0.000200082
0.000230756
8.07908e-05
0.000232682
8.56535e-05
0.000233189
0.000185632
9.84226e-05
4.19578e-05
4.03733e-05
8.55651e-05
0.000200082
0.000230753
0.000232682
8.07859e-05
0.000233188
8.56522e-05
0.000185628
0.000104652
3.87377e-05
0.000129122
3.98236e-05
0.000206196
0.000233969
9.3677e-05
0.000231993
0.000222618
0.000233611
8.72258e-05
0.000104649
3.87385e-05
0.000129142
3.98217e-05
0.000200085
0.00023076
8.08e-05
0.000232683
8.56684e-05
0.000233189
0.000185635
9.84235e-05
4.1961e-05
4.03752e-05
8.55679e-05
0.000200085
0.000230758
0.000232683
8.08042e-05
0.000233189
8.56646e-05
0.000185634
9.84289e-05
4.19597e-05
4.03758e-05
8.55692e-05
4.77931e-05
4.77988e-05
0.000231344
4.4005e-05
4.4024e-05
2.16828e-05
2.28313e-05
2.4479e-05
2.33027e-05
0.000229667
4.00488e-05
4.00668e-05
4.30899e-05
4.30945e-05
2.44801e-05
2.33042e-05
0.000206187
0.000233969
9.36629e-05
0.00023199
0.000222617
0.000233611
8.72139e-05
0.00010463
3.87375e-05
0.00012915
3.98219e-05
0.000104626
3.87369e-05
0.000129136
3.98207e-05
0.000200083
0.00023076
0.000232682
8.08046e-05
0.000233189
8.5661e-05
0.000185631
0.000200084
0.000230756
0.000232682
8.07959e-05
0.000233189
8.56525e-05
0.00018563
9.84373e-05
4.19592e-05
4.03752e-05
8.55646e-05
9.84367e-05
4.19585e-05
4.03739e-05
8.55643e-05
2.16832e-05
2.28313e-05
2.16823e-05
2.28307e-05
0.000229667
4.00672e-05
4.00555e-05
4.30982e-05
4.30842e-05
2.44803e-05
2.33045e-05
2.44794e-05
2.33039e-05
2.47756e-05
2.54645e-05
2.47739e-05
2.54627e-05
3.91715e-05
3.91544e-05
0.000219595
3.65744e-05
3.65656e-05
2.59543e-05
2.56194e-05
2.59528e-05
2.56177e-05
0.000216776
3.38487e-05
3.38413e-05
3.57359e-05
3.5719e-05
7.25703e-05
4.24329e-05
8.14044e-05
4.37616e-05
0.000167489
7.94407e-05
0.00023208
0.000226092
0.00018021
7.45094e-05
0.000231376
0.000167492
7.94244e-05
0.00023208
0.000226087
0.000180212
7.45034e-05
0.000231375
6.96292e-05
4.52375e-05
4.41516e-05
6.32365e-05
6.96314e-05
4.52366e-05
4.41501e-05
6.32388e-05
0.000162884
0.000224265
6.86673e-05
0.000229654
7.31612e-05
0.000230567
0.000151899
0.000162888
0.000224259
6.86658e-05
0.000229654
7.3146e-05
0.000230566
0.000151902
3.91576e-05
3.91713e-05
0.000219598
3.65711e-05
3.65652e-05
2.47757e-05
2.54646e-05
2.59538e-05
2.56186e-05
0.000216777
3.38457e-05
3.38444e-05
3.57225e-05
3.57329e-05
2.59547e-05
2.56193e-05
0.000167488
7.94226e-05
0.00023208
0.000226091
0.000180204
7.45003e-05
0.000231375
7.25558e-05
4.24295e-05
8.13966e-05
4.37583e-05
0.000167485
0.000232079
7.94249e-05
0.000226085
0.000180202
0.000231375
7.44917e-05
6.96329e-05
4.52346e-05
4.41482e-05
6.32365e-05
0.000162879
0.000224263
6.86601e-05
0.000229653
7.31443e-05
0.000230567
0.000151899
6.96323e-05
4.5233e-05
4.41461e-05
6.32335e-05
0.000162876
0.000224257
0.000229653
6.86547e-05
0.000230565
7.31432e-05
0.000151894
7.25628e-05
4.24324e-05
8.1405e-05
4.37617e-05
0.000167488
0.00023208
7.94329e-05
0.000226091
0.000180209
0.000231375
7.45099e-05
7.25658e-05
4.24319e-05
8.13989e-05
4.37599e-05
0.000162887
0.000224269
6.86692e-05
0.000229655
7.31592e-05
0.000230567
0.0001519
6.96339e-05
4.52366e-05
4.41495e-05
6.32364e-05
0.000162885
0.000224263
0.000229654
6.86707e-05
0.000230566
7.31513e-05
0.000151898
6.96317e-05
4.52349e-05
4.41486e-05
6.32343e-05
3.91592e-05
3.91672e-05
0.000219593
3.65594e-05
3.65758e-05
2.47751e-05
2.5463e-05
2.59518e-05
2.56165e-05
0.000216774
3.38374e-05
3.38513e-05
3.57208e-05
3.57293e-05
2.59534e-05
2.56183e-05
0.000167489
0.00023208
7.94229e-05
0.00022609
0.000180206
0.000231375
7.4502e-05
7.25566e-05
4.24316e-05
8.13968e-05
4.37603e-05
7.25628e-05
4.24305e-05
8.13982e-05
4.3759e-05
0.000162878
0.000224268
0.000229654
6.86698e-05
0.000230567
7.31523e-05
0.000151896
0.00016288
0.000224263
0.000229654
6.86625e-05
0.000230566
7.31422e-05
0.000151898
6.96327e-05
4.52351e-05
4.41486e-05
6.32345e-05
6.96331e-05
4.52337e-05
4.41472e-05
6.3235e-05
2.47751e-05
2.54628e-05
2.47743e-05
2.54621e-05
0.000216775
3.38514e-05
3.38413e-05
3.57259e-05
3.5717e-05
2.59532e-05
2.56182e-05
2.59524e-05
2.56175e-05
2.6014e-05
2.61179e-05
2.60122e-05
2.61162e-05
3.32224e-05
3.32112e-05
0.000204615
3.19929e-05
3.19838e-05
2.60836e-05
2.61186e-05
2.60816e-05
2.61168e-05
0.00020135
3.08804e-05
3.08709e-05
3.15697e-05
3.15613e-05
5.62805e-05
4.55469e-05
6.11349e-05
4.64127e-05
0.000138599
6.74255e-05
0.000228642
0.000218222
0.000148063
6.35173e-05
0.000227536
0.000138603
6.74155e-05
0.000228642
0.000218217
0.000148067
6.35113e-05
0.000227535
5.47698e-05
4.73209e-05
4.6651e-05
5.10054e-05
5.47724e-05
4.73223e-05
4.6651e-05
5.10079e-05
0.000135411
0.000216074
5.91333e-05
0.000225066
6.24208e-05
0.000226342
0.00012725
0.000135414
0.000216068
5.91265e-05
0.000225066
6.24149e-05
0.000226341
0.000127254
3.32129e-05
3.3221e-05
0.00020462
3.19869e-05
3.19897e-05
2.60142e-05
2.61182e-05
2.60828e-05
2.6118e-05
0.000201352
3.08731e-05
3.08783e-05
3.15628e-05
3.15676e-05
2.60837e-05
2.61188e-05
0.000138598
6.74153e-05
0.000228642
0.000218224
0.000148057
6.35077e-05
0.000227534
5.62809e-05
4.55425e-05
6.11278e-05
4.64085e-05
0.000138595
0.00022864
6.74111e-05
0.000218213
0.000148057
0.000227533
6.35048e-05
5.47668e-05
4.73192e-05
4.66481e-05
5.10061e-05
0.000135406
0.000216077
5.9124e-05
0.000225065
6.24107e-05
0.000226341
0.000127248
5.47664e-05
4.73184e-05
4.66467e-05
5.10053e-05
0.000135404
0.000216064
0.000225063
5.91209e-05
0.000226339
6.24074e-05
0.000127246
5.62783e-05
4.55461e-05
6.11323e-05
4.64123e-05
0.000138599
0.000228642
6.74202e-05
0.00021822
0.000148063
0.000227535
6.35155e-05
5.62768e-05
4.55448e-05
6.11308e-05
4.64105e-05
0.000135413
0.000216083
5.91334e-05
0.000225068
6.24211e-05
0.000226343
0.000127252
5.47703e-05
4.73226e-05
4.66505e-05
5.10059e-05
0.000135411
0.000216071
0.000225066
5.91301e-05
0.000226341
6.24191e-05
0.00012725
5.4769e-05
4.73204e-05
4.6649e-05
5.10048e-05
3.32102e-05
3.32191e-05
0.000204612
3.19818e-05
3.19933e-05
2.60131e-05
2.61169e-05
2.60805e-05
2.61157e-05
0.000201346
3.08703e-05
3.08792e-05
3.15586e-05
3.1569e-05
2.60825e-05
2.61176e-05
0.000138599
0.000228641
6.74131e-05
0.000218223
0.000148059
0.000227534
6.3509e-05
5.62815e-05
4.55446e-05
6.11275e-05
4.641e-05
5.62822e-05
4.55436e-05
6.11286e-05
4.64091e-05
0.000135406
0.00021608
0.000225065
5.91298e-05
0.000226342
6.24192e-05
0.000127248
0.000135407
0.000216075
0.000225065
5.91243e-05
0.00022634
6.24123e-05
0.00012725
5.47666e-05
4.73199e-05
4.66486e-05
5.10058e-05
5.47679e-05
4.73197e-05
4.66485e-05
5.10066e-05
2.60129e-05
2.61167e-05
2.60121e-05
2.61159e-05
0.000201347
3.08783e-05
3.087e-05
3.1568e-05
3.15596e-05
2.60823e-05
2.61174e-05
2.60814e-05
2.61166e-05
2.60482e-05
2.59399e-05
2.60459e-05
2.59379e-05
3.06185e-05
3.06112e-05
0.000189782
3.03066e-05
3.02978e-05
2.57403e-05
2.58844e-05
2.5738e-05
2.58818e-05
0.00018655
3.01722e-05
3.0164e-05
3.02079e-05
3.01994e-05
4.69673e-05
4.74983e-05
4.99108e-05
4.80037e-05
0.000117547
5.82047e-05
0.000223719
0.000209407
0.0001246
5.54863e-05
0.000222308
0.00011755
5.82002e-05
0.000223718
0.000209402
0.000124603
5.54797e-05
0.000222307
4.61551e-05
4.84955e-05
4.81305e-05
4.38436e-05
4.61565e-05
4.84971e-05
4.81297e-05
4.38452e-05
0.000115369
0.00020715
5.24978e-05
0.000219325
5.47237e-05
0.000220841
0.000109269
0.000115371
0.000207145
5.24915e-05
0.000219324
5.47173e-05
0.00022084
0.000109273
3.06129e-05
3.06169e-05
0.000189788
3.02996e-05
3.03052e-05
2.6048e-05
2.59401e-05
2.5739e-05
2.58833e-05
0.000186554
3.01654e-05
3.01709e-05
3.02007e-05
3.02049e-05
2.57402e-05
2.58839e-05
0.000117546
5.81975e-05
0.000223719
0.000209413
0.000124595
5.54772e-05
0.000222306
4.69642e-05
4.74937e-05
4.9908e-05
4.79995e-05
0.000117543
0.000223716
5.81926e-05
0.000209397
0.000124593
0.000222304
5.54741e-05
4.6156e-05
4.84937e-05
4.81262e-05
4.38428e-05
0.000115363
0.000207157
5.24891e-05
0.000219323
5.47149e-05
0.000220841
0.000109268
4.61549e-05
4.84918e-05
4.81242e-05
4.38421e-05
0.000115361
0.000207139
0.000219321
5.24859e-05
0.000220837
5.47105e-05
0.000109266
4.69654e-05
4.74979e-05
4.99088e-05
4.80044e-05
0.000117547
0.000223718
5.82036e-05
0.000209405
0.0001246
0.000222307
5.54825e-05
4.69645e-05
4.74961e-05
4.99077e-05
4.80016e-05
0.00011537
0.000207164
5.24964e-05
0.000219327
5.47222e-05
0.000220842
0.000109272
4.61546e-05
4.84978e-05
4.81291e-05
4.38437e-05
0.000115368
0.000207147
0.000219324
5.24941e-05
0.00022084
5.47204e-05
0.000109269
4.61537e-05
4.84943e-05
4.81268e-05
4.38429e-05
3.06086e-05
3.06189e-05
0.000189777
3.02974e-05
3.03057e-05
2.6047e-05
2.59385e-05
2.57369e-05
2.58807e-05
0.000186546
3.01635e-05
3.01714e-05
3.01971e-05
3.02068e-05
2.57386e-05
2.58829e-05
0.000117548
0.000223718
5.81971e-05
0.000209412
0.000124597
0.000222307
5.54769e-05
4.69647e-05
4.74957e-05
4.99082e-05
4.80012e-05
4.69652e-05
4.74959e-05
4.99095e-05
4.80014e-05
0.000115363
0.000207159
0.000219323
5.24941e-05
0.000220841
5.47206e-05
0.000109269
0.000115365
0.000207155
0.000219324
5.24888e-05
0.000220839
5.47149e-05
0.000109271
4.61554e-05
4.84943e-05
4.81265e-05
4.38424e-05
4.6156e-05
4.84943e-05
4.81267e-05
4.3843e-05
2.60468e-05
2.59384e-05
2.60459e-05
2.59374e-05
0.000186547
3.01707e-05
3.01633e-05
3.0206e-05
3.01986e-05
2.57385e-05
2.58827e-05
2.57374e-05
2.58818e-05
2.56768e-05
2.5521e-05
2.56741e-05
2.55186e-05
3.01973e-05
3.01894e-05
0.000176372
3.03733e-05
3.03673e-05
2.53023e-05
2.5456e-05
2.52999e-05
2.54532e-05
0.000173314
3.08608e-05
3.08469e-05
3.0491e-05
3.04854e-05
4.143e-05
4.85825e-05
4.32447e-05
4.88397e-05
0.000102111
5.18788e-05
0.000217769
0.000200387
0.000107379
5.00776e-05
0.000216179
0.000102115
5.18731e-05
0.000217768
0.000200382
0.000107381
5.00718e-05
0.000216177
4.09847e-05
4.9061e-05
4.8894e-05
3.95685e-05
4.09859e-05
4.90642e-05
4.88925e-05
3.95699e-05
0.000100457
0.000198156
4.81416e-05
0.000212922
4.95784e-05