/*--------------------------------*- C++ -*----------------------------------*\
| =========                 |                                                 |
| \\      /  F ield         | OpenFOAM: The Open Source CFD Toolbox           |
|  \\    /   O peration     | Version:  v1906                                 |
|   \\  /    A nd           | Web:      www.OpenFOAM.com                      |
|    \\/     M anipulation  |                                                 |
\*---------------------------------------------------------------------------*/
FoamFile
{
    version     2.0;
    format      ascii;
    class       volScalarField;
    location    "500";
    object      p;
}
// * * * * * * * * * * * * * * * * * * * * * * * * * * * * * * * * * * * * * //

dimensions      [0 2 -2 0 0 0 0];


internalField   nonuniform List<scalar> 
42616
(
0.00360467
0.003605
0.003605
0.00360805
0.00354932
0.00354973
0.00354973
0.00355273
0.00349857
0.00349854
0.00349854
0.00350129
0.00344618
0.0034462
0.0034462
0.00344897
0.00339483
0.00339484
0.00339484
0.00339759
0.00334486
0.00334487
0.00334487
0.00334759
0.00329634
0.00329635
0.00329635
0.00329903
0.00324911
0.00324913
0.00324912
0.00325179
0.00320298
0.00320301
0.00320302
0.00320562
0.00315775
0.00315777
0.00315778
0.00316038
0.00311325
0.00311326
0.00311326
0.00311583
0.00306934
0.00306935
0.00306935
0.0030719
0.00302595
0.00302596
0.00302595
0.00302849
0.00298303
0.00298302
0.00298301
0.00298557
0.00294054
0.00294055
0.00294057
0.00294304
0.00289849
0.00289849
0.00289852
0.00290093
0.00285685
0.00285689
0.00285685
0.00285926
0.00281559
0.00281557
0.00281554
0.002818
0.00277464
0.00277458
0.00277466
0.00277716
0.00273401
0.00273401
0.00273393
0.0027365
0.00269332
0.00269341
0.00269339
0.00269574
0.00361808
0.0036183
0.0036183
0.00361808
0.0036183
0.0036183
0.00361907
0.00361907
0.00361907
0.00361907
0.0036183
0.0036183
0.00361808
0.0036183
0.0036183
0.00361808
0.00360805
0.0035593
0.003605
0.003605
0.00356158
0.00356158
0.00360805
0.00355929
0.003605
0.003605
0.00356157
0.00356157
0.003605
0.00356157
0.00356157
0.00360805
0.0035593
0.003605
0.00356157
0.00356157
0.00355929
0.00355273
0.00350822
0.00354974
0.00354974
0.00351166
0.00351166
0.00355273
0.00350822
0.00354973
0.00354974
0.00351166
0.00351166
0.00354974
0.00351166
0.00351166
0.00355273
0.00350822
0.00354973
0.00351166
0.00351166
0.00350822
0.00350129
0.00345585
0.00349854
0.00349854
0.00345921
0.00345921
0.00350129
0.00345585
0.00349854
0.00349854
0.00345921
0.00345921
0.00349854
0.00345921
0.00345921
0.00350129
0.00345585
0.00349854
0.00345921
0.00345921
0.00345585
0.00344897
0.0034043
0.0034462
0.0034462
0.00340756
0.00340756
0.00344897
0.0034043
0.0034462
0.0034462
0.00340756
0.00340756
0.0034462
0.00340756
0.00340756
0.00344897
0.0034043
0.00344619
0.00340756
0.00340757
0.0034043
0.0033976
0.00335409
0.00339485
0.00339484
0.00335722
0.00335723
0.00339759
0.00335409
0.00339484
0.00339485
0.00335722
0.00335722
0.00339484
0.00335722
0.00335723
0.00339759
0.00335409
0.00339484
0.00335722
0.00335723
0.00335409
0.00334759
0.00330534
0.00334487
0.00334487
0.00330836
0.00330836
0.00334759
0.00330533
0.00334487
0.00334488
0.00330836
0.00330835
0.00334487
0.00330835
0.00330836
0.00334759
0.00330533
0.00334487
0.00330835
0.00330836
0.00330534
0.00329903
0.00325793
0.00329635
0.00329635
0.0032608
0.00326084
0.00329903
0.00325791
0.00329634
0.00329636
0.00326082
0.00326083
0.00329635
0.00326083
0.00326082
0.00329904
0.00325791
0.00329635
0.00326085
0.00326082
0.00325791
0.00325179
0.00321161
0.00324914
0.00324912
0.00321445
0.00321443
0.00325177
0.00321162
0.00324915
0.00324912
0.00321442
0.00321445
0.00324916
0.00321444
0.00321443
0.00325177
0.00321162
0.00324915
0.00321444
0.00321444
0.00321161
0.00320563
0.00316624
0.00320299
0.00320302
0.00316903
0.00316901
0.00320563
0.00316623
0.00320301
0.00320301
0.00316903
0.00316901
0.00320301
0.003169
0.003169
0.00320563
0.00316623
0.003203
0.00316899
0.003169
0.00316625
0.00316036
0.00312161
0.00315777
0.00315777
0.00312431
0.00312434
0.00316036
0.00312162
0.00315776
0.00315775
0.00312433
0.00312434
0.00315779
0.00312436
0.00312434
0.00316037
0.00312161
0.0031578
0.00312436
0.00312434
0.0031216
0.00311584
0.0030776
0.00311329
0.00311327
0.00308029
0.00308029
0.00311583
0.00307761
0.00311327
0.00311328
0.00308028
0.00308027
0.00311324
0.00308029
0.00308028
0.00311582
0.0030776
0.00311326
0.00308028
0.00308029
0.0030776
0.0030719
0.00303411
0.00306935
0.00306937
0.00303675
0.00303677
0.00307189
0.00303411
0.00306936
0.00306937
0.00303675
0.00303677
0.00306937
0.00303676
0.00303676
0.0030719
0.0030341
0.00306934
0.00303675
0.00303674
0.00303411
0.00302849
0.00299113
0.00302597
0.00302596
0.00299373
0.00299377
0.00302847
0.00299109
0.00302597
0.00302595
0.00299373
0.00299373
0.00302596
0.00299375
0.0029937
0.00302848
0.00299108
0.00302597
0.00299372
0.00299369
0.00299112
0.00298556
0.00294857
0.00298305
0.00298302
0.00295111
0.00295112
0.00298552
0.00294857
0.00298306
0.00298301
0.00295111
0.0029511
0.00298306
0.00295114
0.00295116
0.00298552
0.00294856
0.00298307
0.0029511
0.00295114
0.00294857
0.00294306
0.00290645
0.00294055
0.00294056
0.00290892
0.00290897
0.00294306
0.00290645
0.00294054
0.00294057
0.00290893
0.002909
0.00294054
0.00290899
0.00290898
0.00294306
0.00290645
0.00294054
0.00290898
0.00290896
0.00290639
0.00290101
0.00286475
0.00289852
0.0028985
0.00286718
0.00286721
0.00290098
0.00286476
0.00289851
0.00289851
0.00286719
0.00286726
0.00289842
0.00286721
0.00286722
0.00290099
0.00286474
0.00289844
0.00286724
0.00286723
0.00286469
0.00285935
0.00282335
0.00285687
0.00285688
0.00282581
0.00282584
0.00285937
0.0028234
0.00285686
0.00285686
0.00282584
0.00282583
0.00285679
0.00282583
0.00282585
0.00285933
0.00282335
0.0028568
0.00282583
0.00282585
0.00282335
0.002818
0.00278244
0.00281553
0.00281556
0.0027849
0.0027849
0.00281805
0.00278237
0.00281556
0.00281557
0.00278491
0.0027849
0.00281554
0.00278489
0.00278488
0.00281801
0.0027825
0.00281555
0.00278491
0.00278488
0.00278251
0.0027771
0.00274189
0.00277464
0.00277458
0.00274415
0.00274414
0.00277702
0.00274185
0.00277466
0.00277466
0.00274416
0.00274404
0.00277464
0.00274416
0.002744
0.00277715
0.00274164
0.00277467
0.00274402
0.002744
0.00274172
0.00273665
0.00270111
0.00273409
0.00273402
0.00270345
0.00270344
0.00273658
0.00270118
0.00273409
0.00273392
0.00270345
0.00270361
0.00273398
0.00270345
0.00270358
0.00273639
0.00270131
0.00273398
0.00270359
0.00270354
0.00270124
0.00269578
0.00269331
0.00269342
0.00269595
0.0026933
0.0026934
0.00269323
0.002696
0.00269322
0.00362645
0.00363622
0.00363101
0.00363102
0.0036534
0.00364018
0.00366879
0.00363423
0.0036534
0.00364018
0.00363423
0.00366879
0.00364475
0.00367253
0.00367253
0.00358181
0.00360096
0.00361015
0.00357389
0.00357463
0.0035774
0.00358179
0.00360094
0.00361014
0.00357387
0.00360467
0.00360467
0.00360467
0.00356127
0.00356127
0.00356127
0.00356127
0.00357931
0.00360514
0.00360507
0.00358814
0.00360816
0.00357822
0.00358902
0.00357473
0.0035774
0.00357932
0.00360507
0.00360515
0.00358814
0.00360816
0.00358902
0.00357821
0.00361101
0.003611
0.00358254
0.00357785
0.00357785
0.00353518
0.00355446
0.00355582
0.00353372
0.00355337
0.00353328
0.00353518
0.00355445
0.00355582
0.00353371
0.00354932
0.00354931
0.00354931
0.00351173
0.00351173
0.00351173
0.00351173
0.00353377
0.00355454
0.00354931
0.00353745
0.00355333
0.00353431
0.00353718
0.00355337
0.00353327
0.00353377
0.00354931
0.00355454
0.00353744
0.00355332
0.00353717
0.00353431
0.00355556
0.00355555
0.003534
0.00353464
0.00353464
0.00348292
0.00350172
0.0035028
0.0034819
0.00350136
0.00348161
0.00348292
0.00350172
0.0035028
0.0034819
0.00349857
0.00349857
0.00349857
0.00345919
0.00345919
0.00345919
0.00345919
0.00348202
0.00350212
0.00349844
0.0034854
0.00350156
0.00348238
0.0034853
0.00350136
0.00348161
0.00348202
0.00349844
0.00350212
0.0034854
0.00350156
0.0034853
0.00348238
0.00350237
0.00350237
0.00348201
0.00348245
0.00348245
0.0034304
0.00344905
0.00344991
0.00342963
0.00344885
0.00342945
0.0034304
0.00344905
0.00344991
0.00342963
0.00344618
0.00344618
0.00344618
0.00340756
0.00340756
0.00340756
0.00340756
0.00342989
0.00344946
0.00344615
0.00343325
0.00344917
0.00343007
0.00343321
0.00344885
0.00342945
0.00342989
0.00344615
0.00344946
0.00343325
0.00344917
0.00343321
0.00343007
0.0034495
0.0034495
0.00342993
0.00343001
0.00343001
0.0033792
0.00339756
0.00339819
0.00337865
0.00339741
0.00337851
0.0033792
0.00339756
0.00339819
0.00337865
0.00339483
0.00339483
0.00339483
0.00335721
0.00335721
0.00335721
0.00335721
0.00337893
0.00339791
0.00339481
0.00338221
0.00339774
0.00337904
0.00338218
0.00339741
0.00337851
0.00337893
0.00339481
0.00339791
0.00338221
0.00339774
0.00338218
0.00337904
0.00339789
0.00339789
0.00337901
0.00337895
0.00337895
0.00332956
0.0033475
0.00334797
0.00332917
0.0033474
0.00332905
0.00332956
0.00334751
0.00334797
0.00332917
0.00334486
0.00334486
0.00334486
0.00330834
0.00330834
0.00330834
0.00330834
0.00332944
0.00334781
0.00334484
0.00333261
0.00334769
0.00332951
0.00333258
0.00334739
0.00332905
0.00332944
0.00334484
0.00334781
0.00333261
0.00334769
0.00333258
0.00332951
0.0033478
0.0033478
0.00332954
0.00332943
0.00332943
0.00328139
0.00329893
0.00329926
0.00328112
0.00329883
0.00328101
0.00328139
0.00329894
0.00329926
0.00328111
0.00329634
0.00329634
0.00329634
0.0032608
0.00326081
0.00326081
0.00326081
0.00328137
0.0032992
0.00329632
0.00328444
0.0032991
0.00328143
0.0032844
0.00329884
0.003281
0.00328137
0.00329632
0.00329921
0.00328444
0.0032991
0.00328441
0.00328142
0.00329919
0.00329919
0.00328147
0.00328135
0.00328134
0.0032345
0.00325169
0.00325192
0.00323431
0.0032516
0.0032342
0.0032345
0.00325169
0.00325192
0.0032343
0.00324911
0.00324911
0.00324912
0.00321442
0.00321442
0.00321442
0.00321442
0.00323454
0.0032519
0.0032491
0.00323751
0.00325184
0.0032346
0.00323747
0.0032516
0.00323421
0.00323455
0.0032491
0.0032519
0.00323752
0.00325183
0.00323747
0.0032346
0.00325192
0.00325193
0.00323463
0.00323451
0.0032345
0.00318867
0.00320555
0.00320571
0.00318849
0.00320547
0.00318841
0.00318866
0.00320553
0.00320572
0.00318851
0.00320299
0.00320299
0.00320298
0.00316899
0.00316899
0.00316899
0.00316898
0.00318875
0.00320574
0.00320297
0.00319161
0.00320568
0.00318878
0.00319159
0.00320546
0.00318842
0.00318874
0.00320298
0.00320575
0.0031916
0.00320568
0.00319158
0.00318878
0.00320577
0.00320576
0.00318883
0.00318869
0.00318869
0.00314369
0.00316028
0.00316043
0.00314354
0.0031602
0.00314346
0.00314369
0.00316029
0.00316042
0.00314354
0.00315775
0.00315775
0.00315776
0.00312431
0.00312432
0.00312431
0.00312431
0.00314377
0.00316048
0.00315775
0.00314661
0.00316043
0.00314382
0.00314657
0.00316019
0.00314347
0.00314377
0.00315775
0.00316049
0.0031466
0.00316043
0.00314656
0.00314382
0.00316047
0.00316048
0.00314384
0.00314372
0.00314372
0.00309937
0.00311574
0.00311589
0.00309925
0.00311568
0.00309917
0.00309938
0.00311576
0.00311589
0.00309924
0.00311324
0.00311324
0.00311324
0.00308026
0.00308026
0.00308026
0.00308026
0.0030995
0.00311594
0.00311323
0.00310223
0.00311589
0.00309952
0.00310221
0.00311568
0.00309918
0.00309949
0.00311324
0.00311594
0.00310224
0.00311589
0.00310222
0.00309952
0.00311593
0.00311594
0.00309954
0.00309942
0.00309941
0.00305564
0.00307182
0.00307194
0.00305552
0.00307175
0.00305541
0.00305563
0.00307181
0.00307196
0.00305552
0.00306934
0.00306934
0.00306934
0.00303674
0.00303675
0.00303675
0.00303674
0.00305579
0.003072
0.00306933
0.00305845
0.00307196
0.0030558
0.00305843
0.00307176
0.00305541
0.00305581
0.00306934
0.00307199
0.00305846
0.00307195
0.00305843
0.00305581
0.00307199
0.00307198
0.00305579
0.00305564
0.00305566
0.00301239
0.00302838
0.00302852
0.00301229
0.0030283
0.00301222
0.00301238
0.00302839
0.00302852
0.00301228
0.00302594
0.00302594
0.00302595
0.00299371
0.00299372
0.00299371
0.0029937
0.00301257
0.00302859
0.00302594
0.00301519
0.00302857
0.00301253
0.00301519
0.00302829
0.00301222
0.00301257
0.00302595
0.00302858
0.00301521
0.00302858
0.00301519
0.00301255
0.00302851
0.00302851
0.00301255
0.00301243
0.00301243
0.00296963
0.00298548
0.00298556
0.00296947
0.00298542
0.00296939
0.00296962
0.00298546
0.00298557
0.00296948
0.00298302
0.00298302
0.00298303
0.00295112
0.00295112
0.00295111
0.00295113
0.00296978
0.00298562
0.00298305
0.00297237
0.00298566
0.00296974
0.00297237
0.0029854
0.00296941
0.00296981
0.00298303
0.0029856
0.00297242
0.00298564
0.00297239
0.00296978
0.00298559
0.00298559
0.00296977
0.00296959
0.00296961
0.00292729
0.00294293
0.00294304
0.00292714
0.00294284
0.00292711
0.00292728
0.00294295
0.00294304
0.00292713
0.00294054
0.00294055
0.00294054
0.00290895
0.00290897
0.00290897
0.00290896
0.00292751
0.00294311
0.00294055
0.00292997
0.0029431
0.00292739
0.00292996
0.00294284
0.00292712
0.00292748
0.00294056
0.00294311
0.00293
0.00294313
0.00292999
0.00292738
0.00294301
0.002943
0.00292747
0.00292725
0.00292728
0.00288534
0.00290086
0.00290099
0.00288521
0.00290082
0.00288515
0.00288535
0.00290087
0.00290097
0.00288518
0.00289848
0.00289849
0.00289847
0.00286722
0.00286722
0.00286723
0.00286722
0.00288558
0.00290099
0.00289846
0.00288802
0.00290105
0.00288548
0.00288805
0.00290083
0.00288515
0.00288554
0.00289849
0.002901
0.00288801
0.00290111
0.00288807
0.00288547
0.00290097
0.00290099
0.00288555
0.00288528
0.00288526
0.00284385
0.00285917
0.00285932
0.00284374
0.00285914
0.00284369
0.00284379
0.00285922
0.00285931
0.00284372
0.00285685
0.00285684
0.00285683
0.00282585
0.00282587
0.00282585
0.00282585
0.00284406
0.00285936
0.00285686
0.00284649
0.00285946
0.00284398
0.00284654
0.00285918
0.00284367
0.00284407
0.00285686
0.00285934
0.00284647
0.00285944
0.00284652
0.002844
0.00285934
0.00285935
0.00284403
0.00284376
0.00284376
0.00280266
0.00281785
0.00281798
0.0028025
0.00281784
0.00280248
0.00280261
0.00281785
0.00281802
0.00280256
0.00281559
0.00281559
0.00281559
0.00278486
0.00278485
0.00278488
0.00278487
0.00280293
0.00281796
0.0028156
0.00280532
0.00281816
0.00280281
0.00280538
0.00281788
0.00280246
0.00280292
0.00281559
0.00281801
0.00280533
0.00281815
0.00280538
0.00280274
0.00281806
0.00281807
0.00280296
0.00280254
0.00280254
0.00276179
0.00277705
0.00277705
0.0027617
0.00277698
0.00276176
0.00276178
0.00277705
0.00277708
0.00276165
0.00277463
0.00277464
0.00277462
0.00274415
0.00274413
0.00274409
0.00274412
0.00276216
0.00277707
0.00277462
0.00276434
0.00277716
0.00276189
0.00276444
0.00277695
0.00276171
0.00276198
0.00277471
0.00277712
0.00276438
0.00277724
0.00276444
0.00276195
0.00277709
0.0027771
0.00276184
0.00276192
0.00276189
0.0027211
0.00273621
0.00273633
0.00272093
0.00273618
0.00272104
0.0027211
0.00273622
0.0027363
0.00272097
0.00273396
0.00273396
0.00273402
0.00270347
0.00270352
0.00270354
0.00270348
0.00272142
0.00273635
0.00273397
0.0027238
0.00273635
0.00272124
0.00272376
0.00273626
0.00272093
0.00272133
0.00273399
0.00273633
0.00272384
0.00273645
0.00272384
0.0027212
0.00273608
0.00273612
0.00272189
0.00272052
0.00272052
0.0026804
0.00269542
0.00269559
0.00268039
0.00269536
0.00268006
0.0026955
0.0026956
0.00268036
0.00269342
0.00269338
0.00269323
0.0026807
0.00269552
0.00269337
0.00268335
0.00269571
0.00268029
0.00268319
0.00269532
0.00268075
0.00269337
0.00269547
0.00269578
0.00268318
0.00269565
0.00269564
0.00268021
0.00268077
0.00268077
0.00364475
0.00367251
0.00367253
0.00363688
0.00367205
0.00363685
0.00367207
0.0036416
0.00362866
0.00362867
0.00366733
0.00366734
0.00365338
0.00364018
0.00366877
0.00363422
0.00365338
0.00364018
0.00366878
0.00363422
0.0036579
0.00362895
0.00366918
0.00362375
0.0036579
0.00362893
0.00366918
0.00362376
0.00364898
0.0036377
0.00362012
0.00362053
0.00366405
0.00363266
0.00362075
0.00364898
0.0036377
0.00362012
0.00362053
0.00366405
0.00363266
0.00362075
0.00364475
0.00367252
0.00367253
0.00363684
0.00367205
0.0036416
0.00362865
0.00362867
0.00366733
0.00366733
0.00363687
0.00367206
0.0036534
0.00364018
0.00366879
0.00363423
0.0036534
0.00364018
0.00363423
0.00366879
0.00365792
0.00362894
0.0036692
0.00362377
0.003649
0.00363771
0.00362012
0.00362053
0.00366406
0.00363267
0.00362076
0.00365792
0.00362895
0.00366919
0.00362376
0.003649
0.00363771
0.00362053
0.00362013
0.00363267
0.00366406
0.00362076
0.00362645
0.00363621
0.00363101
0.00363102
0.00362646
0.00363622
0.00363102
0.00363102
0.00362645
0.00363622
0.00363102
0.00363102
0.00362522
0.0036343
0.00361718
0.00361719
0.00362958
0.00362958
0.00361536
0.00362522
0.0036343
0.00361718
0.00361719
0.00362958
0.00362958
0.00361536
0.00362522
0.0036343
0.00361719
0.00361719
0.00362958
0.00362959
0.00361536
0.00362522
0.0036343
0.00361719
0.00361719
0.00362958
0.00362959
0.00361536
0.0036534
0.00364018
0.00363423
0.00366878
0.003649
0.0036377
0.00362012
0.00362053
0.00366406
0.00363267
0.00362076
0.00365792
0.00362894
0.00366919
0.00362377
0.003649
0.00363771
0.00362053
0.00362013
0.00363267
0.00366406
0.00362076
0.00365792
0.00362894
0.00366919
0.00362376
0.00364475
0.00367253
0.00367253
0.00363682
0.00367206
0.0036416
0.00362866
0.00362866
0.00366734
0.00366734
0.00363682
0.00367206
0.0036534
0.00364018
0.00363423
0.00366879
0.003649
0.00363771
0.00362053
0.00362013
0.00363267
0.00366406
0.00362076
0.003649
0.00363771
0.00362053
0.00362013
0.00363267
0.00366406
0.00362076
0.00365792
0.00362894
0.00366919
0.00362376
0.00365792
0.00362896
0.0036692
0.00362377
0.0036416
0.00362866
0.00362867
0.00366734
0.00366734
0.00363683
0.00367206
0.00363685
0.00367207
0.00357463
0.00357739
0.00357473
0.00357737
0.00361097
0.00361101
0.00358255
0.00357785
0.00357785
0.00356014
0.00357704
0.00356014
0.00357705
0.00357589
0.00356274
0.00356275
0.003576
0.003576
0.00358181
0.00360094
0.00361015
0.00357389
0.00357933
0.00360514
0.00360507
0.00358813
0.00360816
0.00357822
0.00358902
0.00357933
0.00360514
0.00360507
0.00358814
0.00360816
0.00357823
0.00358902
0.00357726
0.00356187
0.00357479
0.00356262
0.00357726
0.00356187
0.00357479
0.00356262
0.00357431
0.00357383
0.00356156
0.00356131
0.00357538
0.00357424
0.0035599
0.0035743
0.00357383
0.00356156
0.00356131
0.00357538
0.00357424
0.0035599
0.00361096
0.00361101
0.00358256
0.00357785
0.00357785
0.00357478
0.00357738
0.00356014
0.00357705
0.00357589
0.00356274
0.00356275
0.003576
0.003576
0.00356013
0.00357705
0.00357931
0.00360514
0.00360507
0.00358814
0.00360816
0.00357822
0.00358902
0.0035818
0.00360095
0.00361013
0.00357389
0.00357932
0.00360507
0.00360514
0.00358813
0.00360816
0.00358902
0.00357822
0.00357726
0.00356187
0.00357479
0.00356262
0.00357429
0.00357383
0.00356156
0.00356131
0.00357537
0.00357424
0.0035599
0.00357726
0.00356187
0.0035748
0.00356262
0.0035743
0.00357383
0.00356131
0.00356155
0.00357424
0.00357538
0.0035599
0.00358179
0.00360095
0.00361014
0.00357388
0.00357932
0.00360507
0.00360515
0.00358813
0.00360816
0.00358902
0.00357822
0.0035818
0.00360096
0.00361013
0.00357388
0.00357429
0.00357383
0.00356156
0.00356131
0.00357537
0.00357424
0.0035599
0.00357726
0.00356187
0.00357479
0.00356262
0.0035743
0.00357383
0.00356131
0.00356156
0.00357424
0.00357537
0.0035599
0.00357726
0.00356188
0.00357478
0.00356262
0.003611
0.00361101
0.00358254
0.00357785
0.00357785
0.00357474
0.00357738
0.00356014
0.00357706
0.00357589
0.00356275
0.00356275
0.003576
0.00357599
0.00356014
0.00357702
0.00357931
0.00360507
0.00360514
0.00358814
0.00360816
0.00358902
0.00357821
0.00358179
0.00360096
0.00361013
0.00357387
0.00358179
0.00360095
0.00361014
0.00357388
0.0035743
0.00357383
0.00356131
0.00356156
0.00357424
0.00357537
0.0035599
0.00357429
0.00357383
0.00356131
0.00356155
0.00357425
0.00357537
0.0035599
0.00357726
0.00356187
0.00357479
0.00356262
0.00357725
0.00356187
0.00357479
0.00356262
0.00357476
0.00357738
0.00357476
0.00357738
0.00357589
0.00356275
0.00356274
0.003576
0.003576
0.00356015
0.00357703
0.00356013
0.00357704
0.00355337
0.00353328
0.00355336
0.00353327
0.00355555
0.00355555
0.00353399
0.00353464
0.00353464
0.00350789
0.00352685
0.00350789
0.00352685
0.0035272
0.00350896
0.00350896
0.00352818
0.00352818
0.00353518
0.00355446
0.00355582
0.00353372
0.00353377
0.00355454
0.00354931
0.00353745
0.00355333
0.00353431
0.00353718
0.00353377
0.00355454
0.00354931
0.00353745
0.00355333
0.00353431
0.00353718
0.00352865
0.0035083
0.00352734
0.0035094
0.00352865
0.0035083
0.00352734
0.0035094
0.00352723
0.00352468
0.00350877
0.00351156
0.00352786
0.00352455
0.00350823
0.00352723
0.00352469
0.00350877
0.00351156
0.00352786
0.00352455
0.00350823
0.00355555
0.00355556
0.003534
0.00353464
0.00353465
0.00355337
0.00353328
0.00350789
0.00352685
0.0035272
0.00350896
0.00350896
0.00352818
0.00352818
0.00350789
0.00352685
0.00353377
0.00355453
0.00354931
0.00353745
0.00355333
0.00353431
0.00353717
0.00353518
0.00355445
0.00355582
0.00353371
0.00353377
0.00354931
0.00355453
0.00353744
0.00355332
0.00353717
0.0035343
0.00352865
0.0035083
0.00352734
0.0035094
0.00352723
0.00352468
0.00350877
0.00351156
0.00352786
0.00352455
0.00350823
0.00352865
0.0035083
0.00352734
0.0035094
0.00352723
0.00352468
0.00351156
0.00350877
0.00352455
0.00352786
0.00350823
0.00353518
0.00355446
0.00355582
0.00353372
0.00353377
0.00354931
0.00355454
0.00353745
0.00355333
0.00353718
0.00353431
0.00353518
0.00355446
0.00355582
0.00353372
0.00352723
0.00352468
0.00350877
0.00351157
0.00352786
0.00352455
0.00350823
0.00352865
0.00350829
0.00352734
0.0035094
0.00352723
0.00352468
0.00351156
0.00350877
0.00352455
0.00352786
0.00350823
0.00352865
0.0035083
0.00352734
0.0035094
0.00355555
0.00355556
0.00353399
0.00353464
0.00353464
0.00355337
0.00353328
0.00350789
0.00352684
0.0035272
0.00350896
0.00350896
0.00352818
0.00352818
0.00350789
0.00352685
0.00353377
0.00354931
0.00355453
0.00353744
0.00355332
0.00353717
0.00353431
0.00353519
0.00355445
0.00355582
0.00353372
0.00353518
0.00355445
0.00355582
0.00353372
0.00352724
0.00352468
0.00351157
0.00350877
0.00352455
0.00352786
0.00350823
0.00352724
0.00352468
0.00351157
0.00350877
0.00352455
0.00352786
0.00350823
0.00352866
0.0035083
0.00352734
0.0035094
0.00352866
0.0035083
0.00352734
0.0035094
0.00355337
0.00353327
0.00355336
0.00353328
0.0035272
0.00350896
0.00350896
0.00352818
0.00352818
0.00350789
0.00352685
0.00350789
0.00352685
0.00350136
0.00348161
0.00350136
0.00348161
0.00350237
0.00350237
0.00348201
0.00348245
0.00348245
0.00345539
0.00347499
0.00345539
0.00347499
0.00347506
0.00345606
0.00345606
0.00347579
0.00347579
0.00348292
0.00350172
0.0035028
0.0034819
0.00348202
0.00350212
0.00349844
0.0034854
0.00350156
0.00348238
0.0034853
0.00348202
0.00350212
0.00349844
0.0034854
0.00350156
0.00348238
0.0034853
0.00347625
0.00345561
0.00347525
0.0034565
0.00347625
0.00345561
0.00347525
0.0034565
0.0034753
0.00347228
0.00345608
0.00345915
0.00347568
0.0034722
0.00345583
0.0034753
0.00347228
0.00345608
0.00345915
0.00347568
0.0034722
0.00345583
0.00350237
0.00350237
0.00348201
0.00348245
0.00348245
0.00350136
0.00348161
0.00345539
0.00347499
0.00347506
0.00345606
0.00345606
0.00347579
0.00347579
0.00345539
0.00347499
0.00348202
0.00350212
0.00349844
0.0034854
0.00350156
0.00348238
0.0034853
0.00348292
0.00350172
0.0035028
0.0034819
0.00348202
0.00349844
0.00350212
0.0034854
0.00350156
0.0034853
0.00348238
0.00347625
0.00345561
0.00347525
0.0034565
0.0034753
0.00347228
0.00345608
0.00345915
0.00347568
0.0034722
0.00345583
0.00347625
0.00345561
0.00347525
0.0034565
0.0034753
0.00347228
0.00345915
0.00345608
0.0034722
0.00347568
0.00345583
0.00348292
0.00350172
0.0035028
0.0034819
0.00348202
0.00349844
0.00350212
0.0034854
0.00350156
0.0034853
0.00348238
0.00348292
0.00350172
0.0035028
0.0034819
0.0034753
0.00347228
0.00345608
0.00345915
0.00347568
0.0034722
0.00345583
0.00347625
0.00345561
0.00347525
0.0034565
0.0034753
0.00347228
0.00345915
0.00345608
0.0034722
0.00347568
0.00345583
0.00347625
0.00345561
0.00347525
0.0034565
0.00350236
0.00350237
0.00348201
0.00348245
0.00348245
0.00350136
0.00348161
0.00345539
0.00347499
0.00347506
0.00345606
0.00345606
0.00347579
0.00347579
0.00345539
0.00347499
0.00348202
0.00349844
0.00350212
0.0034854
0.00350156
0.0034853
0.00348238
0.00348292
0.00350172
0.0035028
0.0034819
0.00348292
0.00350172
0.0035028
0.0034819
0.0034753
0.00347228
0.00345915
0.00345608
0.0034722
0.00347568
0.00345583
0.0034753
0.00347228
0.00345915
0.00345608
0.0034722
0.00347568
0.00345583
0.00347625
0.00345561
0.00347525
0.0034565
0.00347625
0.00345561
0.00347525
0.0034565
0.00350136
0.00348161
0.00350136
0.00348161
0.00347506
0.00345606
0.00345606
0.00347579
0.00347579
0.00345539
0.00347499
0.00345539
0.00347499
0.00344885
0.00342945
0.00344885
0.00342945
0.0034495
0.0034495
0.00342993
0.00343001
0.00343001
0.0034038
0.00342297
0.0034038
0.00342297
0.00342313
0.00340429
0.00340429
0.00342352
0.00342352
0.0034304
0.00344905
0.00344991
0.00342963
0.00342989
0.00344946
0.00344615
0.00343325
0.00344918
0.00343008
0.00343321
0.00342989
0.00344946
0.00344615
0.00343325
0.00344917
0.00343007
0.00343321
0.00342388
0.00340396
0.00342314
0.00340461
0.00342388
0.00340396
0.00342314
0.00340461
0.00342331
0.00342037
0.00340438
0.00340753
0.00342352
0.00342033
0.00340424
0.0034233
0.00342037
0.00340437
0.00340753
0.00342352
0.00342033
0.00340424
0.0034495
0.0034495
0.00342993
0.00343001
0.00343001
0.00344885
0.00342945
0.0034038
0.00342297
0.00342313
0.00340429
0.00340429
0.00342352
0.00342352
0.0034038
0.00342297
0.00342989
0.00344946
0.00344615
0.00343325
0.00344917
0.00343007
0.00343321
0.0034304
0.00344905
0.00344991
0.00342963
0.00342989
0.00344615
0.00344946
0.00343325
0.00344917
0.00343321
0.00343007
0.00342388
0.00340396
0.00342314
0.00340461
0.0034233
0.00342037
0.00340437
0.00340753
0.00342352
0.00342033
0.00340424
0.00342388
0.00340396
0.00342314
0.00340461
0.0034233
0.00342037
0.00340753
0.00340437
0.00342033
0.00342352
0.00340424
0.0034304
0.00344905
0.00344991
0.00342963
0.00342989
0.00344615
0.00344946
0.00343325
0.00344917
0.00343321
0.00343007
0.0034304
0.00344905
0.00344991
0.00342963
0.0034233
0.00342037
0.00340437
0.00340753
0.00342352
0.00342033
0.00340424
0.00342388
0.00340396
0.00342314
0.00340461
0.0034233
0.00342037
0.00340753
0.00340437
0.00342033
0.00342352
0.00340424
0.00342388
0.00340396
0.00342314
0.00340461
0.0034495
0.0034495
0.00342993
0.00343001
0.00343001
0.00344885
0.00342945
0.0034038
0.00342297
0.00342313
0.00340429
0.00340429
0.00342352
0.00342352
0.0034038
0.00342297
0.00342989
0.00344615
0.00344946
0.00343325
0.00344917
0.00343321
0.00343007
0.0034304
0.00344905
0.00344991
0.00342963
0.0034304
0.00344905
0.00344991
0.00342963
0.0034233
0.00342037
0.00340753
0.00340437
0.00342033
0.00342352
0.00340424
0.0034233
0.00342037
0.00340753
0.00340437
0.00342033
0.00342352
0.00340424
0.00342388
0.00340396
0.00342314
0.00340461
0.00342388
0.00340396
0.00342314
0.00340461
0.00344885
0.00342945
0.00344885
0.00342945
0.00342313
0.00340429
0.00340429
0.00342352
0.00342352
0.0034038
0.00342297
0.0034038
0.00342297
0.00339741
0.00337851
0.00339741
0.00337851
0.0033979
0.00339789
0.00337901
0.00337895
0.00337895
0.00335359
0.00337221
0.00335359
0.00337221
0.00337241
0.003354
0.003354
0.00337265
0.00337265
0.0033792
0.00339756
0.00339819
0.00337865
0.00337893
0.00339791
0.00339482
0.00338221
0.00339774
0.00337904
0.00338218
0.00337893
0.00339791
0.00339481
0.00338221
0.00339774
0.00337904
0.00338218
0.00337288
0.00335372
0.00337234
0.00335419
0.00337288
0.00335372
0.00337234
0.00335419
0.00337253
0.00336968
0.00335409
0.0033572
0.00337267
0.00336965
0.003354
0.00337253
0.00336967
0.00335408
0.0033572
0.00337267
0.00336964
0.003354
0.00339789
0.00339789
0.00337901
0.00337895
0.00337895
0.00339741
0.00337851
0.00335361
0.00337221
0.00337241
0.00335399
0.00335399
0.00337265
0.00337265
0.0033536
0.00337222
0.00337893
0.00339791
0.00339481
0.00338221
0.00339774
0.00337904
0.00338218
0.0033792
0.00339756
0.00339819
0.00337865
0.00337893
0.00339481
0.00339791
0.00338221
0.00339774
0.00338218
0.00337904
0.00337288
0.00335372
0.00337234
0.00335419
0.00337253
0.00336967
0.00335409
0.0033572
0.00337267
0.00336964
0.003354
0.00337288
0.00335372
0.00337234
0.00335419
0.00337253
0.00336968
0.0033572
0.00335409
0.00336964
0.00337267
0.003354
0.0033792
0.00339756
0.00339819
0.00337865
0.00337893
0.00339481
0.00339791
0.00338221
0.00339774
0.00338218
0.00337904
0.0033792
0.00339756
0.00339819
0.00337865
0.00337253
0.00336967
0.00335408
0.0033572
0.00337267
0.00336964
0.003354
0.00337288
0.00335372
0.00337234
0.00335419
0.00337253
0.00336967
0.0033572
0.00335409
0.00336964
0.00337267
0.003354
0.00337288
0.00335372
0.00337234
0.00335419
0.00339789
0.00339789
0.00337901
0.00337894
0.00337894
0.00339741
0.00337851
0.0033536
0.00337222
0.00337241
0.00335399
0.00335399
0.00337265
0.00337265
0.0033536
0.00337222
0.00337893
0.00339481
0.00339791
0.00338221
0.00339774
0.00338218
0.00337904
0.0033792
0.00339756
0.00339819
0.00337865
0.0033792
0.00339756
0.00339819
0.00337865
0.00337253
0.00336967
0.0033572
0.00335408
0.00336964
0.00337267
0.003354
0.00337253
0.00336967
0.0033572
0.00335409
0.00336964
0.00337267
0.003354
0.00337288
0.00335372
0.00337234
0.00335419
0.00337288
0.00335372
0.00337234
0.00335419
0.00339741
0.00337851
0.00339741
0.00337852
0.00337241
0.003354
0.003354
0.00337265
0.00337265
0.0033536
0.00337221
0.0033536
0.00337221
0.00334739
0.00332904
0.00334739
0.00332904
0.00334779
0.00334779
0.00332953
0.00332943
0.00332943
0.00330486
0.00332294
0.00330486
0.00332294
0.00332313
0.00330522
0.00330522
0.00332331
0.00332331
0.00332956
0.00334751
0.00334796
0.00332916
0.00332944
0.0033478
0.00334485
0.00333261
0.0033477
0.00332952
0.00333258
0.00332944
0.00334781
0.00334484
0.00333261
0.00334769
0.0033295
0.00333258
0.00332343
0.00330498
0.00332304
0.0033053
0.00332343
0.00330497
0.00332305
0.0033053
0.00332323
0.00332044
0.00330531
0.00330832
0.00332332
0.00332041
0.00330524
0.00332322
0.00332044
0.00330529
0.00330832
0.00332333
0.00332041
0.00330524
0.00334779
0.00334779
0.00332953
0.00332942
0.00332942
0.00334739
0.00332905
0.00330487
0.00332292