/*--------------------------------*- C++ -*----------------------------------*\
| =========                 |                                                 |
| \\      /  F ield         | OpenFOAM: The Open Source CFD Toolbox           |
|  \\    /   O peration     | Version:  v1906                                 |
|   \\  /    A nd           | Web:      www.OpenFOAM.com                      |
|    \\/     M anipulation  |                                                 |
\*---------------------------------------------------------------------------*/
FoamFile
{
    version     2.0;
    format      ascii;
    class       volScalarField;
    location    "500";
    object      p;
}
// * * * * * * * * * * * * * * * * * * * * * * * * * * * * * * * * * * * * * //

dimensions      [0 2 -2 0 0 0 0];


internalField   nonuniform List<scalar> 
42616
(
0.000714264
0.000714289
0.000714349
0.000716542
0.00067881
0.00067881
0.000678624
0.000680773
0.000643307
0.000643112
0.000643182
0.000645
0.000607691
0.000607667
0.000607709
0.000609768
0.000572119
0.000572098
0.00057206
0.000574139
0.000536464
0.000536355
0.000536377
0.000538335
0.000500754
0.000500737
0.000500702
0.000502774
0.000465041
0.000464934
0.000464993
0.000466971
0.000429223
0.000429241
0.000429185
0.000431274
0.000393563
0.000393439
0.00039349
0.000395461
0.000357532
0.000357548
0.000357508
0.000359599
0.000321845
0.000321757
0.000321796
0.000323795
0.00028586
0.000285844
0.00028578
0.00028787
0.000249836
0.000249772
0.000249865
0.000251867
0.000214017
0.000214004
0.000213915
0.000215981
0.000177938
0.000177878
0.000177948
0.000179994
0.000141716
0.000141691
0.000141655
0.000143654
0.000106016
0.000106011
0.000106012
0.000108075
6.94661e-05
6.93785e-05
6.94254e-05
7.14213e-05
3.42425e-05
3.36992e-05
3.36212e-05
3.54172e-05
6.14816e-06
7.01283e-06
7.07058e-06
5.37896e-06
0.000721018
0.000723051
0.000723091
0.000721085
0.000723092
0.000723302
0.000723097
0.000723209
0.000721204
0.000723308
0.000723251
0.000721304
0.000716201
0.000685618
0.000714177
0.000714259
0.000687638
0.000687695
0.000716293
0.000685659
0.000714201
0.000714316
0.000687607
0.000687475
0.000714476
0.000687737
0.000687831
0.000716322
0.000685427
0.0007145
0.000687514
0.000687793
0.000685688
0.000680809
0.000650092
0.000678795
0.000678794
0.000652154
0.000652055
0.000680814
0.000649986
0.000678762
0.000678608
0.000652153
0.000652083
0.000678801
0.00065201
0.000651854
0.000680619
0.000650057
0.000678763
0.000652037
0.000651853
0.000649794
0.000645245
0.000614459
0.000643228
0.000643155
0.000616497
0.000616519
0.000645153
0.000614498
0.000643241
0.000643225
0.000616511
0.000616589
0.00064299
0.000616524
0.000616556
0.000645239
0.000614548
0.000643001
0.000616593
0.000616569
0.000614572
0.000609632
0.000578908
0.000607612
0.00060765
0.000580956
0.000580995
0.000609679
0.000578953
0.000607621
0.00060769
0.000580951
0.000580962
0.000607726
0.000581016
0.000581068
0.000609714
0.000578908
0.000607735
0.000580983
0.000581063
0.000578999
0.000574073
0.000543284
0.000572059
0.000572084
0.000545327
0.000545295
0.000574108
0.000543232
0.000572052
0.000572046
0.000545326
0.000545303
0.000572129
0.000545288
0.000545266
0.000574064
0.000543253
0.000572123
0.000545296
0.000545265
0.000543191
0.000538434
0.000507571
0.000536407
0.000536367
0.000509623
0.000509641
0.00053838
0.000507615
0.000536409
0.000536389
0.000509624
0.000509628
0.000536322
0.000509633
0.000509618
0.000538407
0.00050758
0.000536323
0.00050962
0.000509619
0.000507605
0.000502724
0.000471891
0.0005007
0.000500738
0.000473933
0.000473906
0.000502772
0.000471831
0.000500697
0.000500702
0.000473932
0.000473928
0.000500738
0.000473913
0.000473938
0.00050273
0.000471885
0.000500736
0.000473936
0.000473938
0.000471852
0.000467023
0.000436041
0.000464988
0.000464934
0.000438101
0.000438133
0.000466959
0.000436118
0.000464993
0.000464993
0.000438106
0.000438127
0.000464946
0.000438128
0.000438116
0.000467025
0.000436072
0.00046495
0.000438123
0.000438121
0.000436103
0.000431193
0.000400457
0.000429171
0.00042924
0.000402472
0.00040244
0.000431281
0.000400357
0.000429168
0.000429182
0.000402462
0.000402423
0.000429236
0.000402446
0.00040245
0.000431214
0.000400393
0.000429234
0.000402429
0.00040244
0.000400359
0.000395589
0.00036437
0.000393537
0.000393443
0.000366469
0.000366496
0.000395466
0.000364452
0.000393535
0.000393495
0.000366479
0.000366516
0.000393435
0.000366487
0.000366482
0.000395532
0.000364433
0.000393434
0.000366508
0.000366492
0.000364452
0.000359468
0.000328711
0.000357449
0.000357546
0.000330699
0.000330697
0.000359587
0.000328658
0.000357451
0.000357503
0.000330688
0.000330679
0.000357557
0.000330708
0.000330722
0.000359539
0.000328683
0.00035756
0.000330695
0.000330713
0.000328668
0.000323888
0.000292785
0.000321833
0.000321756
0.000294909
0.000294881
0.0003238
0.000292809
0.000321831
0.000321796
0.000294929
0.000294872
0.000321752
0.000294863
0.000294833
0.000323846
0.000292748
0.00032175
0.000294852
0.000294836
0.000292769
0.000287827
0.000256663
0.000285796
0.000285851
0.000258666
0.00025871
0.000287892
0.000256656
0.000285796
0.000285785
0.000258665
0.000258737
0.00028583
0.000258728
0.000258783
0.000287817
0.000256752
0.000285828
0.000258757
0.000258781
0.000256735
0.00025185
0.000220984
0.000249793
0.000249757
0.000223054
0.000223016
0.000251802
0.000220975
0.0002498
0.000249854
0.000223057
0.000222997
0.000249816
0.000223002
0.000222943
0.000251917
0.000220886
0.000249822
0.000222981
0.000222945
0.00022088
0.000216049
0.000184825
0.000214007
0.000214019
0.00018687
0.000186886
0.00021607
0.000184829
0.000213997
0.000213928
0.000186863
0.00018688
0.000213942
0.000186893
0.000186936
0.000215959
0.000184879
0.000213934
0.00018689
0.000186932
0.000184904
0.000179925
0.000148603
0.000177878
0.000177869
0.00015071
0.000150715
0.000179913
0.000148618
0.000177884
0.000177936
0.000150721
0.000150746
0.000177942
0.000150716
0.000150709
0.000179992
0.000148622
0.00017795
0.000150747
0.000150715
0.00014858
0.000143693
0.000113035
0.000141668
0.000141693
0.000114983
0.000114968
0.000143723
0.000113004
0.000141667
0.000141664
0.000114965
0.000114912
0.00014164
0.000114961
0.000114939
0.000143691
0.000112958
0.00014163
0.0001149
0.000114921
0.000112986
0.000108114
7.631e-05
0.000106062
0.000106014
7.84738e-05
7.84782e-05
0.000108066
7.63304e-05
0.000106049
0.000106014
7.84891e-05
7.85585e-05
0.000106028
7.84849e-05
7.85399e-05
0.000108052
7.64223e-05
0.000106027
7.85742e-05
7.85658e-05
7.64071e-05
7.13147e-05
4.05182e-05
6.93293e-05
6.93664e-05
4.2507e-05
4.25206e-05
7.13556e-05
4.05234e-05
6.93375e-05
6.94136e-05
4.24924e-05
4.24301e-05
6.94136e-05
4.25246e-05
4.2474e-05
7.14255e-05
4.0419e-05
6.94277e-05
4.24217e-05
4.24456e-05
4.04515e-05
3.55272e-05
8.44563e-06
3.3733e-05
3.3708e-05
1.14209e-05
1.13713e-05
3.54988e-05
8.38567e-06
3.37206e-05
3.36368e-05
1.14272e-05
1.14289e-05
3.36405e-05
1.13522e-05
1.1345e-05
3.54094e-05
8.4734e-06
3.36218e-05
1.14121e-05
1.13601e-05
8.38564e-06
5.38599e-06
7.0552e-06
7.0117e-06
5.36132e-06
7.05733e-06
7.06499e-06
6.13043e-06
6.1711e-06
6.15006e-06
7.01281e-06
5.44131e-06
7.01911e-06
0.000723156
0.000723156
0.000723353
0.000723227
0.000703238
0.000716544
0.000716498
0.000703284
0.000716515
0.000703204
0.000703148
0.000716518
0.000716451
0.000703226
0.000714321
0.000714433
0.000714457
0.000687661
0.000687769
0.000687615
0.000687868
0.000703385
0.000716516
0.000714311
0.000705469
0.000716498
0.000703301
0.000705502
0.000716301
0.000703115
0.000703304
0.000714398
0.000716413
0.000705385
0.000716529
0.000705502
0.000703187
0.000716579
0.000716546
0.000703718
0.000703103
0.000703067
0.000667686
0.000681035
0.000681008
0.000667674
0.000680975
0.000667679
0.000667697
0.000681004
0.000680961
0.000667686
0.000678872
0.000678719
0.000678902
0.000652212
0.000652111
0.000652091
0.000651988
0.000667646
0.000680922
0.000678865
0.000669866
0.000680931
0.00066764
0.000669908
0.000681066
0.000667777
0.000667625
0.000678727
0.000680918
0.000669754
0.000680843
0.000669806
0.00066768
0.000680798
0.000680792
0.000667632
0.000667564
0.000667574
0.000632077
0.000645374
0.000645387
0.000632073
0.00064543
0.000632119
0.00063211
0.000645402
0.000645444
0.000632089
0.000643205
0.000643226
0.000643101
0.000616584
0.000616573
0.000616641
0.000616576
0.000632098
0.000645328
0.000643108
0.000634236
0.000645245
0.000632112
0.000634226
0.000645473
0.000632117
0.000632152
0.000643134
0.000645391
0.000634325
0.000645298
0.000634278
0.000632152
0.000645485
0.0006455
0.000632192
0.000632188
0.000632197
0.000596547
0.000609853
0.00060984
0.000596552
0.000609852
0.000596536
0.000596535
0.000609853
0.000609838
0.000596546
0.00060771
0.000607764
0.000607739
0.00058102
0.000581073
0.000581055
0.000581132
0.000596665
0.000609854
0.00060768
0.0005988
0.000609845
0.000596598
0.000598824
0.000609829
0.000596518
0.000596659
0.000607721
0.000609839
0.000598812
0.000609857
0.000598845
0.000596578
0.000609917
0.000609914
0.00059685
0.000596549
0.000596543
0.000560938
0.000574283
0.000574271
0.000560948
0.000574266
0.000560938
0.000560935
0.000574279
0.000574261
0.000560946
0.000572162
0.000572136
0.000572209
0.000545384
0.000545364
0.000545366
0.000545354
0.000560978
0.000574233
0.000572138
0.000563166
0.000574229
0.000560954
0.000563203
0.000574266
0.000560948
0.000560967
0.000572114
0.000574228
0.000563136
0.000574212
0.000563181
0.000560948
0.000574222
0.000574221
0.0005611
0.000560881
0.00056088
0.000525278
0.000538637
0.000538626
0.000525281
0.000538651
0.00052531
0.000525281
0.000538639
0.00053863
0.000525282
0.000536428
0.000536443
0.000536404
0.000509679
0.000509683
0.000509674
0.000509664
0.000525286
0.000538582
0.00053638
0.000527434
0.000538531
0.000525288
0.000527451
0.000538647
0.000525287
0.000525295
0.000536389
0.000538578
0.000527458
0.000538535
0.000527464
0.000525289
0.000538632
0.000538633
0.000525347
0.000525307
0.000525306
0.000489576
0.000502951
0.000502938
0.000489576
0.000502939
0.000489536
0.000489575
0.000502947
0.000502934
0.000489574
0.000500781
0.000500752
0.000500773
0.000473983
0.00047397
0.000473983
0.000473994
0.000489653
0.000502901
0.000500733
0.000491828
0.000502878
0.0004896
0.000491829
0.000502946
0.000489584
0.000489641
0.000500716
0.000502909
0.000491786
0.000502875
0.000491806
0.000489607
0.000502946
0.000502949
0.000489823
0.000489528
0.000489532
0.000453825
0.000467204
0.000467204
0.000453836
0.00046722
0.000453898
0.000453834
0.000467215
0.000467215
0.000453842
0.000464999
0.000465044
0.000465015
0.000438158
0.000438177
0.000438177
0.000438172
0.00045384
0.000467183
0.000464979
0.000455966
0.000467157
0.000453855
0.000456007
0.000467221
0.000453835
0.000453862
0.000465007
0.00046718
0.000456035
0.000467163
0.000456045
0.000453849
0.00046721
0.000467217
0.000453892
0.000453881
0.000453881
0.000418102
0.000431514
0.000431469
0.000418116
0.000431507
0.000418048
0.000418084
0.000431493
0.000431451
0.000418103
0.000429273
0.000429233
0.000429272
0.000402496
0.000402488
0.000402467
0.000402485
0.000418163
0.000431433
0.000429229
0.000420346
0.000431376
0.000418114
0.000420329
0.000431479
0.000418109
0.00041813
0.000429208
0.000431424
0.00042026
0.000431371
0.000420286
0.000418107
0.000431486
0.000431482
0.000418335
0.000418024
0.000418025
0.000382239
0.000395628
0.000395675
0.000382203
0.00039564
0.000382279
0.000382263
0.000395648
0.000395691
0.000382219
0.000393503
0.000393534
0.000393495
0.000366543
0.000366554
0.000366567
0.000366552
0.000382272
0.000395622
0.000393473
0.000384433
0.000395636
0.000382265
0.000384473
0.000395672
0.000382222
0.00038231
0.000393489
0.000395635
0.000384522
0.000395638
0.000384516
0.000382275
0.000395636
0.000395645
0.000382338
0.000382283
0.000382288
0.00034643
0.000359866
0.000359807
0.000346516
0.000359875
0.000346444
0.000346403
0.000359855
0.000359795
0.000346499
0.000357593
0.000357565
0.000357603
0.000330727
0.00033073
0.000330724
0.00033074
0.000346482
0.000359812
0.000357558
0.000348608
0.000359736
0.000346471
0.000348611
0.00035983
0.000346501
0.000346443
0.000357548
0.000359805
0.00034853
0.00035974
0.000348578
0.000346458
0.000359881
0.000359873
0.000346603
0.000346425
0.000346419
0.000310581
0.000324006
0.000324021
0.000310491
0.000324008
0.000310557
0.000310596
0.000324019
0.000324031
0.000310507
0.000321789
0.00032182
0.000321785
0.000294948
0.00029492
0.000294903
0.000294887
0.000310601
0.000323949
0.000321761
0.000312805
0.000323933
0.00031056
0.000312805
0.000324021
0.000310483
0.000310628
0.000321774
0.000323939
0.000312874
0.000323927
0.000312835
0.000310563
0.000323968
0.00032397
0.000310724
0.000310535
0.000310537
0.000274566
0.000288024
0.000288031
0.000274633
0.000288005
0.000274589
0.00027456
0.000288032
0.000288025
0.000274628
0.000285894
0.000285842
0.000285878
0.000258748
0.000258782
0.000258806
0.000258827
0.000274658
0.000288032
0.000285857
0.000276798
0.000288024
0.000274643
0.000276825
0.000288025
0.000274693
0.00027463
0.000285828
0.000288048
0.000276718
0.000288026
0.000276786
0.000274641
0.000288062
0.000288062
0.000274736
0.000274618
0.00027462
0.000238741
0.000252218
0.000252143
0.000238722
0.000252258
0.000238757
0.000238745
0.000252231
0.000252161
0.000238726
0.000249817
0.000249887
0.000249858
0.000223043
0.000223015
0.000222999
0.000222969
0.000238717
0.000252095
0.000249804
0.000240858
0.000252
0.000238723
0.000240858
0.000252238
0.000238656
0.000238754
0.000249844
0.00025209
0.000240959
0.000252018
0.000240913
0.000238711
0.000252165
0.000252166
0.000238848
0.000238689
0.000238686
0.00020267
0.000216148
0.000216193
0.000202666
0.000216115
0.000202649
0.000202663
0.000216132
0.000216168
0.00020266
0.00021402
0.000213957
0.000213966
0.000186936
0.000186947
0.000186942
0.000186977
0.00020275
0.000216149
0.00021398
0.000204962
0.000216167
0.000202702
0.00020496
0.000216107
0.000202737
0.000202711
0.000213938
0.000216141
0.000204856
0.000216148
0.000204902
0.000202708
0.000216176
0.000216175
0.000202853
0.000202703
0.00020271
0.000166643
0.000180114
0.000180112
0.000166659
0.000180146
0.000166645
0.000166657
0.000180126
0.000180147
0.000166665
0.000177931
0.000177978
0.000177986
0.00015075
0.000150755
0.000150775
0.000150753
0.000166715
0.000180086
0.00017791
0.000168836
0.000180064
0.000166702
0.00016887
0.000180162
0.000166569
0.000166762
0.000177946
0.000180095
0.000168944
0.000180086
0.000168934
0.000166708
0.000180088
0.000180085
0.000166835
0.000166588
0.000166571
0.00013065
0.000144188
0.000144092
0.000130704
0.000144235
0.000130736
0.000130621
0.000144175
0.000144068
0.000130683
0.000141736
0.000141716
0.000141702
0.000114967
0.000114958
0.000114914
0.000114928
0.000130562
0.000144072
0.000141714
0.000132738
0.000143974
0.00013064
0.000132724
0.000144167
0.00013079
0.000130499
0.000141694
0.000144053
0.000132631
0.00014395
0.000132665
0.000130631
0.000144205
0.000144227
0.000130632
0.000130781
0.000130789
9.44747e-05
0.00010796
0.000108077
9.43837e-05
0.000107936
9.42436e-05
9.45063e-05
0.000107995
0.000108099
9.44018e-05
0.00010599
0.000105991
0.000105998
7.85572e-05
7.85561e-05
7.86216e-05
7.861e-05
9.47134e-05
0.000107969
0.000105957
9.69068e-05
0.000108071
9.45637e-05
9.69072e-05
0.000107998
9.42269e-05
9.47627e-05
0.000105947
0.000108001
9.69814e-05
0.000108083
9.69484e-05
9.45819e-05
0.000107869
0.000107891
9.48775e-05
9.43408e-05
9.43431e-05
5.82998e-05
7.1826e-05
7.17523e-05
5.8441e-05
7.20631e-05
5.83661e-05
5.82653e-05
7.18093e-05
7.17407e-05
5.84109e-05
6.94924e-05
6.95241e-05
6.95275e-05
4.27206e-05
4.27433e-05
4.26689e-05
4.26983e-05
5.81984e-05
7.17097e-05
6.94832e-05
6.03536e-05
7.16655e-05
5.84098e-05
6.04015e-05
7.19782e-05
5.83323e-05
5.81606e-05
6.95232e-05
7.16823e-05
6.03284e-05
7.16777e-05
6.04015e-05
5.83456e-05
7.18679e-05
7.18558e-05
5.83313e-05
5.84886e-05
5.84679e-05
2.15874e-05
3.54601e-05
3.55725e-05
2.10412e-05
3.57185e-05
2.03934e-05
2.15906e-05
3.54492e-05
3.55628e-05
2.10486e-05
3.42264e-05
3.41663e-05
3.41666e-05
1.17222e-05
1.16751e-05
1.17207e-05
1.16657e-05
2.20383e-05
3.53551e-05
3.39082e-05
2.512e-05
3.56338e-05
2.15254e-05
2.54913e-05
3.57516e-05
2.04497e-05
2.20374e-05
3.38416e-05
3.53598e-05
2.50967e-05
3.56029e-05
2.54574e-05
2.15589e-05
3.52374e-05
3.52511e-05
2.28473e-05
2.13476e-05
2.13666e-05
3.22759e-06
4.2101e-06
3.70631e-06
-1.12347e-07
1.74278e-06
-3.75536e-06
3.24569e-06
4.20567e-06
3.71563e-06
-1.2971e-07
6.40419e-07
7.20213e-06
7.21263e-06
7.75817e-06
7.72287e-06
3.77312e-06
3.79166e-06
1.91685e-06
3.23809e-06
6.40754e-06
1.51391e-06
4.72371e-06
5.55138e-06
-1.99378e-06
1.71769e-06
-3.76806e-06
1.95176e-06
6.44459e-06
3.25632e-06
1.56383e-06
4.76784e-06
-1.95259e-06
5.56858e-06
6.09983e-07
6.21188e-07
1.03305e-06
3.63962e-06
3.64412e-06
0.000721022
0.000734251
0.000720988
0.000734268
0.000733981
0.000721014
0.000720992
0.000734249
0.000734269
0.00073421
0.000720991
0.000734241
0.000720957
0.000734213
0.000720979
0.000734277
0.000720957
0.00073412
0.000731948
0.000720993
0.000723089
0.000734188
0.000731979
0.000720968
0.000734115
0.000731938
0.000720976
0.000723094
0.000734194
0.000731973
0.000720968
0.000720984
0.000734293
0.000733942
0.00072096
0.000720999
0.000734267
0.000734304
0.000721047
0.000734348
0.000734287
0.000720985
0.000734288
0.000720939
0.000734252
0.00073199
0.000721012
0.000723181
0.000734251
0.000732069
0.000721029
0.000734288
0.000720816
0.000734178
0.000720921
0.00073427
0.00073225
0.000723258
0.000720889
0.000732147
0.000734198
0.000721031
0.000734114
0.000731918
0.000721027
0.000723104
0.000734208
0.000731917
0.000721041
0.000734295
0.000721054
0.000734319
0.000721072
0.000734121
0.00073192
0.000723135
0.0007211
0.000731903
0.000734315
0.000721058
0.000734314
0.000721116
0.000734457
0.00072109
0.000720755
0.000734087
0.000734292
0.000720768
0.00072081
0.000734085
0.000734122
0.000720818
0.000734139
0.000734252
0.000732225
0.000723262
0.000720939
0.000732096
0.000734209
0.000721105
0.000734238
0.000731966
0.000723233
0.000721117
0.000732004
0.000734365
0.000721118
0.000734346
0.00072089
0.000734218
0.000721039
0.000734369
0.000721105
0.000734485
0.000721071
0.00073398
0.000721079
0.000721066
0.000734476
0.000734485
0.00072113
0.000734529
0.000721102
0.000734532
0.000716573
0.000703319
0.00071653
0.000703266
0.000716573
0.000716548
0.000703296
0.000703295
0.00070326
0.000685524
0.000698854
0.000685503
0.000698806
0.000698492
0.000685496
0.000685476
0.000698834
0.000698798
0.000703235
0.000716515
0.000716498
0.000703214
0.000703259
0.000716482
0.000714217
0.00070532
0.000716405
0.000703273
0.00070536
0.000703265
0.000716457
0.000714241
0.000705423
0.000716406
0.00070324
0.000705396
0.000698773
0.000685512
0.000698825
0.000685484
0.000698768
0.00068544
0.000698745
0.000685476
0.00069869
0.000696476
0.000685515
0.000687661
0.000698752
0.000696511
0.000685521
0.000698696
0.000696572
0.000685469
0.000687688
0.000698714
0.000696547
0.000685522
0.000716501
0.000716537
0.000703432
0.000703197
0.000703214
0.00071657
0.000703223
0.000685441
0.000698735
0.000698621
0.00068543
0.000685402
0.000698734
0.000698739
0.000685396
0.000698735
0.000703194
0.000716483
0.000714279
0.000705321
0.000716429
0.000703233
0.000705372
0.00070313
0.000716356
0.000716431
0.000703107
0.000703182
0.000714334
0.000716353
0.000705327
0.000716426
0.000705399
0.000703129
0.000698682
0.00068547
0.000698764
0.00068542
0.000698609
0.000696457
0.000685465
0.000687595
0.000698703
0.000696475
0.00068543
0.000698665
0.000685464
0.000698667
0.000685411
0.000698595
0.000696385
0.000687562
0.00068544
0.000696464
0.000698615
0.000685416
0.00070331
0.000716591
0.000716613
0.000703268
0.000703404
0.000714368
0.000716571
0.000705687
0.000716516
0.000705565
0.00070328
0.000703318
0.00071663
0.00071663
0.000703192
0.000698814
0.000696622
0.000685468
0.000687788
0.000698768
0.000696663
0.000685551
0.000698817
0.000685409
0.000698777
0.000685413
0.000698831
0.000696804
0.000687827
0.000685382
0.00069672
0.000698711
0.00068555
0.000698817
0.000685294
0.000698676
0.0006854
0.000716327
0.000716366
0.000703246
0.000703116
0.000703132
0.000716364
0.000703134
0.000685518
0.000698695
0.000698405
0.000685493
0.000685463
0.000698693
0.000698696
0.000685469
0.000698693
0.000703343
0.000714428
0.000716578
0.000705695
0.00071655
0.00070558
0.000703229
0.000703195
0.000716429
0.000716553
0.000703157
0.000703214
0.000716603
0.000716588
0.00070313
0.000698699
0.000696437
0.000687657
0.000685439
0.000696585
0.000698663
0.00068544
0.000698734
0.000696785
0.000687757
0.000685339
0.000696692
0.000698656
0.000685451
0.000698698
0.000685432
0.000698702
0.000685361
0.000698708
0.000685262
0.000698623
0.000685348
0.000716618
0.000703119
0.000716563
0.000703071
0.000698848
0.000685249
0.000685236
0.000698602
0.000698569
0.000685233
0.000698602
0.000685219
0.000698564
0.000681038
0.000667648
0.000681025
0.000667671
0.00068102
0.000681007
0.000667919
0.000667641
0.000667654
0.000649831
0.00066316
0.000649855
0.000663184
0.000663086
0.000649826
0.000649844
0.00066316
0.000663177
0.000667683
0.000680975
0.000680999
0.000667677
0.000667748
0.000680983
0.000678805
0.000669943
0.000680944
0.000667713
0.000669937
0.000667742
0.000680939
0.000678814
0.00066988
0.000680943
0.000667696
0.000669923
0.000663201
0.000649845
0.000663186
0.00064987
0.0006632
0.000649895
0.00066321
0.000649874
0.000663162
0.000661064
0.000649881
0.000652152
0.000663168
0.000661053
0.000649937
0.000663154
0.000660965
0.000649908
0.000652116
0.000663165
0.000661022
0.000649932
0.00068097
0.000680936
0.000667809
0.000667666
0.000667627
0.000680923
0.000667621
0.000649901
0.00066321
0.000662962
0.000649888
0.000649872
0.000663205
0.000663167
0.000649884
0.000663157
0.000667718
0.000680939
0.000678731
0.000669916
0.000680862
0.000667704
0.000669873
0.000667701
0.00068102
0.000680956
0.000667748
0.000667711
0.000678683
0.000680935
0.000669766
0.000680849
0.00066982
0.000667735
0.00066323
0.000649875
0.00066321
0.000649925
0.00066315
0.000661047
0.000649909
0.000652138
0.000663173
0.000661011
0.000649975
0.000663236
0.000649959
0.000663282
0.000649934
0.000663146
0.000660929
0.000652106
0.000649973
0.000660965
0.000663212
0.000649978
0.000667568
0.000680929
0.000680911
0.000667606
0.000667632
0.000678872
0.000680837
0.000669771
0.000680926
0.000669883
0.000667581
0.000667553
0.000680822
0.000680897
0.000667551
0.000663044
0.000660928
0.000649853
0.000652015
0.000663105
0.000660951
0.000649823
0.000663089
0.000649849
0.000663138
0.000649807
0.000663029
0.000660785
0.000651967
0.00064986
0.000660905
0.000663055
0.000649809
0.000663077
0.000649895
0.000663103
0.000649804
0.000681047
0.000681011
0.000667748
0.000667749
0.000667709
0.000681009
0.000667718
0.00064996
0.000663302
0.00066294
0.000649944
0.000649925
0.000663283
0.000663246
0.00064994
0.00066325
0.000667612
0.000678787
0.000680803
0.000669741
0.000680846
0.000669818
0.000667573
0.000667589
0.000680972
0.000680879
0.000667676
0.000667568
0.0006808
0.000680864
0.000667557
0.000663043
0.000660894
0.000652007
0.000649917
0.000660898
0.000663155
0.000649865
0.000663025
0.000660772
0.000651958
0.000649885
0.000660869
0.000663056
0.000649844
0.00066312
0.000649913
0.00066321
0.000649863
0.000663101
0.000649923
0.000663118
0.000649853
0.000680772
0.000667551
0.000680767
0.00066757
0.000662769
0.000649932
0.000649949
0.000663138
0.000663154
0.000649953
0.00066313
0.000649977
0.000663157
0.000645362
0.000632075
0.000645382
0.000632085
0.000645364
0.00064538
0.000632249
0.000632064
0.000632072
0.000614327
0.000627613
0.000614325
0.000627619
0.000627413
0.000614306
0.000614306
0.000627607
0.000627613
0.000632082
0.000645423
0.000645392
0.000632109
0.000632121
0.000645344
0.000643241
0.000634304
0.000645343
0.000632089
0.000634327
0.000632123
0.000645374
0.00064321
0.000634267
0.000645341
0.000632117
0.000634308
0.000627603
0.000614316
0.00062761
0.000614312
0.000627608
0.000614329
0.00062764
0.000614314
0.000627537
0.000625392
0.000614324
0.000616526
0.000627561
0.000625421
0.000614345
0.000627539
0.000625389
0.00061434
0.000616529
0.000627587
0.000625413
0.000614347
0.000645423
0.000645415
0.000632224
0.0006321
0.000632116
0.000645426
0.000632145
0.000614327
0.000627646
0.000627404
0.00061431
0.000614338
0.000627634
0.000627656
0.000614364
0.00062768
0.000632175
0.000645372
0.000643253
0.000634323
0.000645393
0.000632109
0.00063436
0.000632118
0.00064548
0.000645454
0.000632125
0.000632183
0.000643237
0.000645439
0.000634358
0.000645398
0.000634362
0.000632156
0.000627627
0.00061432
0.000627623
0.000614313
0.000627582
0.000625411
0.000614332
0.000616562
0.000627578
0.000625462
0.000614362
0.000627633
0.000614308
0.000627645
0.000614313
0.000627591
0.00062548
0.000616587
0.000614333
0.000625478
0.00062761
0.000614367
0.000632111
0.000645393
0.000645348
0.000632124
0.000632097
0.000643066
0.000645353
0.00063417
0.000645234
0.000634199
0.000632157
0.000632118
0.000645451
0.000645348
0.000632185
0.000627539
0.000625376
0.000614378
0.000616525
0.000627595
0.000625369
0.00061441
0.000627655
0.000614374
0.000627668
0.00061439
0.000627541
0.000625366
0.000616532
0.000614427
0.00062536
0.000627643
0.000614418
0.000627663
0.000614417
0.000627727
0.000614397
0.000645468
0.000645459
0.00063233
0.000632106
0.000632126
0.000645467
0.000632147
0.000614302
0.000627634
0.000627503
0.000614288
0.000614315
0.000627629
0.000627653
0.000614338
0.00062767
0.000632145
0.00064308
0.000645379
0.000634187
0.00064528
0.000634231
0.00063218
0.000632149
0.00064545
0.000645406
0.000632147
0.000632154
0.000645479
0.000645401
0.000632208
0.000627587
0.000625464
0.000616581
0.000614372
0.00062543
0.000627624
0.000614432
0.000627583
0.000625383
0.000616565
0.000614436
0.000625398
0.000627662
0.000614439
0.000627685
0.000614355
0.000627678
0.000614395
0.000627691
0.000614422
0.000627743
0.000614405
0.000645505
0.00063223
0.000645525
0.000632238
0.000627408
0.000614394
0.000614395
0.000627724
0.000627733
0.000614412
0.000627755
0.00061441
0.000627762
0.000609861
0.000596556
0.000609857
0.00059655
0.000609847
0.000609846
0.000596691
0.000596539
0.000596534
0.000578759
0.000592083
0.000578756
0.000592077
0.000591862
0.000578753
0.00057875
0.000592076
0.000592071
0.000596547
0.00060986
0.000609842
0.00059654
0.000596589
0.000609799
0.00060764
0.00059873
0.000609769
0.000596566
0.000598758
0.000596591
0.000609812
0.000607651
0.000598774
0.000609771
0.000596563
0.000598774
0.000592072
0.000578759
0.000592083
0.000578755
0.000592072
0.000578738
0.000592066
0.000578754
0.000592011
0.000589846
0.000578784
0.000580987
0.000592039
0.000589876
0.000578811
0.000592013
0.000589891
0.000578768
0.000581003
0.000592031
0.000589893
0.000578813
0.000609844
0.00060987
0.000596747
0.000596525
0.000596537
0.000609884
0.000596548
0.000578741
0.000592062
0.00059192
0.000578731
0.00057873
0.000592059
0.000592066
0.00057874
0.00059207
0.000596581
0.000609804
0.000607665
0.000598733
0.000609778
0.000596562
0.00059877
0.000596533
0.000609837
0.000609838
0.00059652
0.000596582
0.000607691
0.000609798
0.000598785
0.000609781
0.000598792
0.000596546
0.000592059
0.000578754
0.000592076
0.000578743
0.000591999
0.000589844
0.000578776
0.000580977
0.000592032
0.000589875
0.000578794
0.000592057
0.000578735
0.000592051
0.00057874
0.000592001
0.000589876
0.000580985
0.000578759
0.000589891
0.000592015
0.000578792
0.000596601
0.000609905
0.000609919
0.000596566
0.000596674
0.000607696
0.0006099
0.000598871
0.000609854
0.000598843
0.000596617
0.000596605
0.000609941
0.000609926
0.000596571
0.000592079
0.000589918
0.000578775
0.000581056
0.000592059
0.000589952
0.000578831
0.00059211
0.000578742
0.000592085
0.000578752
0.000592086
0.000589987
0.000581077
0.000578757
0.000589973
0.000592064
0.000578832
0.000592112
0.000578719
0.000592082
0.000578751
0.00060982
0.000609845
0.000596739
0.000596506
0.000596518
0.000609859
0.000596532
0.000578738
0.000592047
0.000591899
0.00057873
0.000578729
0.000592044
0.000592052
0.000578737
0.000592055
0.000596668
0.00060772
0.000609907
0.000598875
0.000609867
0.000598859
0.000596609
0.000596584
0.00060988
0.000609918
0.000596546
0.000596589
0.00060994
0.000609927
0.000596562
0.000592065
0.000589903
0.00058104
0.000578768
0.000589951
0.000592042
0.000578812
0.000592073
0.000589985
0.000581069
0.00057875
0.000589977
0.000592057
0.000578815
0.000592091
0.00057874
0.000592071
0.000578739
0.000592094
0.000578714
0.000592074
0.00057874
0.000609919
0.000596554
0.000609914
0.000596547
0.000592013
0.000578701
0.000578698
0.000592067
0.000592061
0.000578713
0.000592066
0.00057871
0.000592061
0.000574283
0.000560954
0.000574281
0.000560955
0.000574284
0.000574282
0.000561103
0.000560942
0.000560943
0.000543125
0.000556474
0.000543127
0.000556475
0.000556262
0.000543108
0.00054311
0.000556467
0.000556468
0.000560937
0.000574263
0.000574271
0.000560937
0.000560989
0.000574247
0.000572088
0.000563152
0.000574222
0.000560966
0.000563178
0.00056099
0.00057423
0.000572101
0.000563161
0.000574224
0.000560959
0.000563184
0.000556452
0.00054312
0.000556469
0.000543114
0.00055645
0.000543127
0.000556462
0.000543112
0.000556394
0.000554241
0.000543137
0.000545341
0.000556424
0.000554262
0.000543156
0.000556394
0.000554229
0.00054314
0.000545331
0.00055642
0.000554259
0.000543153
0.000574261
0.000574258
0.000561104
0.000560926
0.000560918
0.000574261
0.000560926
0.000543129
0.00055646
0.000556245
0.000543119
0.000543109
0.000556455
0.000556446
0.000543114
0.000556446
0.00056098
0.00057424
0.000572075
0.000563146
0.000574206
0.000560963
0.000563165
0.000560933
0.000574264
0.000574259
0.00056094
0.000560977
0.000572076
0.000574223
0.00056313
0.000574204
0.000563162
0.000560954
0.000556452
0.000543121
0.000556468
0.000543118
0.000556387
0.000554238
0.000543138
0.000545338
0.000556422
0.000554253
0.000543159
0.00055645
0.000543125
0.000556464
0.000543117
0.000556386
0.000554216
0.00054533
0.000543138
0.000554246
0.000556416
0.000543157
0.000560916
0.000574264
0.000574261
0.000560928
0.000560976
0.000572154
0.00057421
0.000563178
0.00057423
0.000563211
0.00056093
0.000560913
0.000574238
0.000574259