/*--------------------------------*- C++ -*----------------------------------*\
| =========                 |                                                 |
| \\      /  F ield         | OpenFOAM: The Open Source CFD Toolbox           |
|  \\    /   O peration     | Version:  v1906                                 |
|   \\  /    A nd           | Web:      www.OpenFOAM.com                      |
|    \\/     M anipulation  |                                                 |
\*---------------------------------------------------------------------------*/
FoamFile
{
    version     2.0;
    format      ascii;
    class       volVectorField;
    location    "500";
    object      U;
}
// * * * * * * * * * * * * * * * * * * * * * * * * * * * * * * * * * * * * * //

dimensions      [0 1 -1 0 0 0 0];


internalField   nonuniform List<vector> 
42616
(
(-1.19913e-05 -1.95427e-05 0.112441)
(1.27127e-05 -6.54334e-06 0.107486)
(-2.9327e-06 5.13789e-06 0.107468)
(-3.05429e-05 -3.90053e-05 0.104234)
(-1.58624e-05 -1.11864e-05 0.112418)
(6.27278e-06 -1.11202e-05 0.107483)
(-2.00436e-05 1.11529e-05 0.107473)
(-3.25457e-05 -2.62042e-05 0.104182)
(-8.70683e-06 -5.91294e-06 0.11238)
(1.60628e-05 -1.48197e-06 0.107472)
(8.69575e-07 1.66058e-05 0.107483)
(-2.03878e-05 -1.94635e-05 0.104213)
(-1.02987e-05 -1.27972e-05 0.112335)
(1.24006e-05 -5.12061e-06 0.107464)
(-3.19211e-06 1.09725e-05 0.107466)
(-2.705e-05 -2.97107e-05 0.104233)
(-1.35873e-05 -1.36025e-05 0.112303)
(9.79384e-06 -8.6143e-06 0.107457)
(-1.03973e-05 1.03155e-05 0.107455)
(-2.79431e-05 -2.74278e-05 0.104218)
(-1.20364e-05 -1.18228e-05 0.112272)
(1.25339e-05 -7.99423e-06 0.107454)
(-6.07636e-06 1.23435e-05 0.107454)
(-2.38096e-05 -2.35821e-05 0.104225)
(-1.21926e-05 -1.20827e-05 0.112238)
(1.19659e-05 -2.55429e-06 0.107451)
(-5.81248e-06 1.24128e-05 0.107451)
(-2.81091e-05 -2.80992e-05 0.104243)
(-1.0976e-05 -1.09533e-05 0.112208)
(1.04187e-05 -1.03861e-05 0.107449)
(-5.91349e-06 1.00971e-05 0.10745)
(-2.49892e-05 -2.50407e-05 0.104244)
(-1.36368e-05 -1.45707e-05 0.112176)
(1.27661e-05 -2.70708e-06 0.107449)
(-7.54827e-06 1.25215e-05 0.107445)
(-2.72174e-05 -2.80359e-05 0.104262)
(-9.11036e-06 -7.60735e-06 0.112147)
(8.89326e-06 -7.99613e-06 0.107444)
(-3.53616e-06 9.54133e-06 0.107445)
(-2.68501e-05 -2.53192e-05 0.104257)
(-1.32092e-05 -1.47232e-05 0.112119)
(1.25398e-05 -5.27759e-06 0.107446)
(-9.42609e-06 1.18295e-05 0.107443)
(-2.57332e-05 -2.75503e-05 0.104281)
(-1.19534e-05 -1.07464e-05 0.112087)
(1.00889e-05 -6.61611e-06 0.107444)
(-1.91251e-06 1.01532e-05 0.107444)
(-2.80672e-05 -2.6625e-05 0.104281)
(-7.4777e-06 -7.56848e-06 0.112066)
(8.65307e-06 -3.01808e-06 0.107442)
(-9.58371e-06 9.50366e-06 0.107441)
(-2.75798e-05 -2.80938e-05 0.104292)
(-1.63787e-05 -1.68311e-05 0.112035)
(1.264e-05 -1.03151e-05 0.107445)
(-2.58046e-06 1.15144e-05 0.107447)
(-2.644e-05 -2.6357e-05 0.104306)
(-5.95613e-06 -6.14516e-06 0.112015)
(7.67986e-06 -9.04569e-07 0.107446)
(-7.98118e-06 8.42445e-06 0.107442)
(-2.72131e-05 -2.74041e-05 0.104311)
(-1.06931e-05 -9.63668e-06 0.111988)
(8.63099e-06 -4.63028e-06 0.107443)
(-1.0059e-08 8.7104e-06 0.107446)
(-3.24691e-05 -3.20258e-05 0.104319)
(-1.56861e-05 -1.74175e-05 0.111976)
(1.32109e-05 -1.34256e-05 0.107456)
(-1.57177e-05 1.20045e-05 0.107452)
(-1.56932e-05 -1.6838e-05 0.104337)
(-1.89575e-06 7.3892e-07 0.111946)
(1.34893e-06 1.1665e-05 0.107446)
(1.1348e-05 4.39641e-06 0.10745)
(-4.40633e-05 -4.11661e-05 0.104342)
(-1.80511e-05 -2.11854e-05 0.111948)
(1.28081e-05 -1.91014e-05 0.107461)
(-1.67805e-05 8.27639e-06 0.107458)
(-8.62007e-06 -1.32862e-05 0.104361)
(-1.81001e-05 -1.54476e-05 0.111932)
(1.78276e-06 8.30488e-06 0.107467)
(4.82881e-06 5.82938e-06 0.107466)
(-2.55699e-05 -2.09998e-05 0.104413)
(-2.85265e-05 -2.98916e-05 0.112012)
(9.60914e-05 -5.58414e-05 0.107738)
(-5.19628e-05 9.46273e-05 0.107741)
(5.08346e-05 4.91866e-05 0.104772)
(-4.28946e-05 -5.22623e-05 0.104315)
(-7.21021e-06 -1.57335e-05 0.107478)
(6.69812e-06 -1.21399e-05 0.107485)
(4.33555e-05 -4.19758e-05 0.104317)
(-8.54855e-06 -1.70422e-05 0.107482)
(-2.65347e-06 -4.7491e-06 0.107476)
(1.58737e-05 -3.27636e-06 0.107485)
(2.02318e-05 -5.72785e-07 0.107501)
(-3.59276e-05 3.73375e-05 0.104286)
(8.04161e-06 6.54221e-06 0.107476)
(9.49973e-06 1.31703e-05 0.107504)
(4.3706e-05 3.43919e-05 0.10435)
(2.65552e-05 1.82531e-05 0.104207)
(-4.66746e-05 -4.13252e-05 0.104341)
(-8.94228e-06 -1.64148e-05 0.107482)
(2.99573e-06 -1.31006e-05 0.107483)
(-9.78114e-06 -1.30701e-05 0.107493)
(-2.09117e-07 -1.39949e-05 0.107479)
(-2.88112e-05 2.72259e-05 0.104204)
(3.85956e-05 -4.87422e-05 0.104319)
(-9.63555e-06 -1.72112e-05 0.107486)
(-5.66049e-06 -6.68089e-07 0.107466)
(-1.55288e-05 -4.80797e-06 0.107493)
(-1.74731e-05 1.013e-05 0.107462)
(1.54662e-05 -7.92218e-06 0.107502)
(5.42372e-06 -1.23221e-05 0.107485)
(2.18281e-06 -2.23646e-06 0.107477)
(2.94872e-05 -3.11385e-05 0.104171)
(-5.56005e-05 4.54373e-05 0.104309)
(6.16484e-07 8.65302e-06 0.107505)
(-2.25037e-05 8.9517e-06 0.107467)
(-7.46918e-06 4.81606e-06 0.107476)
(3.48622e-05 4.03483e-05 0.104296)
(2.45191e-05 3.08997e-05 0.104228)
(-4.22995e-05 -4.01999e-05 0.104322)
(-7.52675e-06 -1.09451e-05 0.107493)
(2.40607e-06 -1.33311e-05 0.107478)
(-2.96826e-06 -7.96237e-06 0.107477)
(1.15308e-05 -9.72205e-06 0.107474)
(-3.02304e-05 2.19995e-05 0.104208)
(4.90356e-05 -4.09003e-05 0.104327)
(-1.56854e-05 -1.41349e-07 0.107492)
(-1.80608e-05 1.13628e-05 0.107468)
(-1.09767e-05 5.47161e-07 0.107478)
(-1.1716e-05 1.12052e-05 0.107483)
(2.86238e-06 5.59828e-06 0.107467)
(1.41523e-05 -3.22397e-06 0.107474)
(1.34051e-05 1.76165e-05 0.107459)
(1.59997e-05 -2.42972e-05 0.104205)
(-3.9274e-05 4.74765e-05 0.104344)
(-1.89202e-06 7.73201e-06 0.107466)
(-2.8932e-06 1.6245e-05 0.107483)
(1.40126e-05 1.63186e-05 0.10746)
(4.965e-05 5.19262e-05 0.104318)
(2.76026e-05 2.82931e-05 0.104209)
(-4.28739e-05 -4.58401e-05 0.104318)
(-3.17267e-06 -8.93263e-06 0.10747)
(1.21003e-05 -9.10668e-06 0.107472)
(-5.26096e-06 -1.2744e-05 0.107456)
(6.75684e-06 -1.0897e-05 0.107464)
(-2.06742e-05 2.96672e-05 0.104216)
(4.36216e-05 -4.14952e-05 0.104327)
(-9.85925e-06 -2.45805e-06 0.107472)
(-9.60818e-06 1.00164e-05 0.107483)
(-1.04721e-05 -8.54489e-06 0.107459)
(-9.1831e-06 4.34995e-06 0.107469)
(1.58027e-05 1.53266e-05 0.107463)
(1.43117e-05 -2.83526e-06 0.107466)
(1.53776e-05 4.16032e-06 0.107474)
(3.21054e-05 -2.29597e-05 0.104232)
(-4.07591e-05 4.28932e-05 0.104328)
(1.44385e-05 1.68473e-05 0.107465)
(-3.52072e-07 1.27021e-05 0.107471)
(7.44429e-06 1.32422e-05 0.107477)
(4.35692e-05 4.06134e-05 0.104345)
(2.65927e-05 2.39399e-05 0.104209)
(-4.46371e-05 -4.42902e-05 0.10433)
(-5.9542e-06 -1.3271e-05 0.107455)
(5.10231e-06 -1.19925e-05 0.107461)
(-8.11466e-06 -1.25104e-05 0.107455)
(3.54297e-06 -1.29549e-05 0.107454)
(-2.70034e-05 2.71377e-05 0.104216)
(4.12491e-05 -4.57584e-05 0.104327)
(-1.12213e-05 -8.8826e-06 0.107457)
(-1.04277e-05 3.12575e-06 0.107463)
(-1.25186e-05 -8.20443e-06 0.107456)
(-1.30165e-05 4.33097e-06 0.107452)
(1.36762e-05 2.52798e-06 0.107474)
(9.60307e-06 -8.8951e-06 0.107459)
(9.94415e-06 2.84266e-06 0.107461)
(2.77766e-05 -2.76562e-05 0.104216)
(-4.65771e-05 4.19897e-05 0.104324)
(5.52059e-06 1.16775e-05 0.107476)
(-9.74765e-06 9.61112e-06 0.107456)
(2.98229e-06 9.86372e-06 0.107463)
(4.1804e-05 4.20814e-05 0.104329)
(2.4809e-05 2.5407e-05 0.104222)
(-4.29139e-05 -4.25067e-05 0.10434)
(-8.44674e-06 -1.23321e-05 0.107456)
(3.79981e-06 -1.27195e-05 0.107453)
(-6.05424e-06 -1.18713e-05 0.107455)
(7.59082e-06 -1.22477e-05 0.107451)
(-2.81922e-05 2.41848e-05 0.104219)
(4.45865e-05 -4.44892e-05 0.104337)
(-1.27987e-05 -7.83438e-06 0.107457)
(-1.33821e-05 5.49287e-06 0.107451)
(-1.23848e-05 -5.52519e-06 0.107456)
(-1.28887e-05 7.21197e-06 0.107451)
(9.78896e-06 3.39109e-06 0.107457)
(1.15378e-05 -8.0987e-06 0.107454)
(1.11513e-05 8.25089e-06 0.107448)
(2.29275e-05 -2.70701e-05 0.104217)
(-4.38276e-05 4.38752e-05 0.104339)
(2.85464e-06 1.0131e-05 0.107458)
(-7.74879e-06 1.20668e-05 0.107454)
(7.73656e-06 1.16208e-05 0.107449)
(4.47521e-05 4.51671e-05 0.104331)
(2.69616e-05 2.7121e-05 0.104232)
(-4.35267e-05 -4.37397e-05 0.104345)
(-5.19066e-06 -1.15727e-05 0.107454)
(9.14017e-06 -1.23151e-05 0.107452)
(-6.5929e-06 -1.16423e-05 0.10745)
(6.06508e-06 -1.12821e-05 0.10745)
(-2.42615e-05 2.49576e-05 0.10423)
(4.26219e-05 -4.06013e-05 0.104348)
(-1.1759e-05 -5.19312e-06 0.107455)
(-1.21497e-05 7.26158e-06 0.107452)
(-1.12089e-05 -6.83468e-06 0.107451)
(-1.04454e-05 6.97793e-06 0.107449)
(1.22696e-05 9.99654e-06 0.107448)
(1.3329e-05 -3.77999e-06 0.107452)
(1.37009e-05 6.63662e-06 0.10745)
(2.62984e-05 -2.56213e-05 0.104231)
(-4.16932e-05 4.38219e-05 0.104346)
(9.94918e-06 1.25206e-05 0.107449)
(-4.65842e-06 1.27027e-05 0.107451)
(6.82813e-06 1.34088e-05 0.107452)
(4.2794e-05 4.26287e-05 0.104351)
(2.55083e-05 2.55273e-05 0.104239)
(-4.16179e-05 -4.11214e-05 0.104353)
(-7.38832e-06 -1.17798e-05 0.107449)
(3.54039e-06 -1.05644e-05 0.107449)
(-5.10767e-06 -1.04019e-05 0.107448)
(6.44055e-06 -1.05455e-05 0.107445)
(-2.79227e-05 2.93536e-05 0.10424)
(4.32104e-05 -4.47591e-05 0.10435)
(-1.16969e-05 -6.97163e-06 0.107451)
(-1.0926e-05 6.73826e-06 0.107449)
(-1.1308e-05 -4.61741e-06 0.107449)
(-1.19711e-05 5.34333e-06 0.107446)
(1.22923e-05 3.78548e-06 0.107451)
(9.01832e-06 -7.9687e-06 0.107448)
(8.48919e-06 5.45684e-06 0.107447)
(2.71359e-05 -2.56942e-05 0.104239)
(-4.34599e-05 4.17053e-05 0.104354)
(3.42152e-06 1.22143e-05 0.107452)
(-6.95093e-06 1.02154e-05 0.10745)
(5.05446e-06 9.12884e-06 0.107448)
(4.2506e-05 4.28405e-05 0.104349)
(2.80421e-05 2.8051e-05 0.104247)
(-4.49458e-05 -4.65215e-05 0.104364)
(-4.31425e-06 -1.02121e-05 0.107448)
(9.82231e-06 -1.15796e-05 0.107446)
(-8.35562e-06 -1.29487e-05 0.107445)
(6.7567e-06 -1.28863e-05 0.107447)
(-2.46017e-05 2.33914e-05 0.104245)
(4.31801e-05 -4.20486e-05 0.10437)
(-1.04546e-05 -5.00438e-06 0.107449)
(-1.13673e-05 5.39773e-06 0.107447)
(-1.11317e-05 -1.00664e-05 0.107447)
(-1.02825e-05 6.75319e-06 0.107443)
(1.00111e-05 8.5407e-06 0.107446)
(1.42601e-05 -5.73703e-06 0.107449)
(1.479e-05 6.66912e-06 0.107446)
(2.62836e-05 -2.76174e-05 0.104248)
(-4.26098e-05 4.39268e-05 0.104361)
(9.21018e-06 1.01631e-05 0.107448)
(-5.72391e-06 1.19337e-05 0.107445)
(8.31792e-06 1.326e-05 0.107448)
(4.42828e-05 4.2915e-05 0.104368)
(2.36766e-05 2.27164e-05 0.104259)
(-3.90964e-05 -3.67564e-05 0.104371)
(-9.66515e-06 -1.37765e-05 0.107446)
(2.43431e-06 -1.19581e-05 0.107447)
(-2.7432e-06 -9.19452e-06 0.107445)
(3.86304e-06 -9.16324e-06 0.10744)
(-2.80746e-05 2.8719e-05 0.104262)
(4.10892e-05 -4.24946e-05 0.104363)
(-1.27209e-05 -9.83832e-06 0.107448)
(-1.15332e-05 7.1693e-06 0.107443)
(-1.14953e-05 -3.26322e-07 0.107445)
(-1.23423e-05 4.74276e-06 0.107441)
(1.32568e-05 3.24841e-06 0.107446)
(7.37534e-06 -5.35706e-06 0.107443)
(6.80012e-06 4.9112e-06 0.107441)
(2.58814e-05 -2.51372e-05 0.104255)
(-4.22616e-05 4.06112e-05 0.10437)
(3.43908e-06 1.23475e-05 0.107447)
(-6.26032e-06 1.02974e-05 0.107444)
(2.58922e-06 8.85916e-06 0.107441)
(3.99929e-05 4.20886e-05 0.104362)
(3.10782e-05 3.27649e-05 0.104263)
(-4.53785e-05 -4.78798e-05 0.104373)
(-3.31218e-07 -7.62612e-06 0.107444)
(8.44026e-06 -9.69885e-06 0.107441)
(-8.29497e-06 -1.07988e-05 0.107437)
(8.91765e-06 -1.13361e-05 0.107442)
(-2.60343e-05 2.53376e-05 0.104258)
(4.45815e-05 -4.24269e-05 0.104385)
(-9.30021e-06 5.64498e-07 0.107445)
(-1.05446e-05 4.02698e-06 0.107442)
(-8.49275e-06 -1.08664e-05 0.10744)
(-8.01333e-06 7.78429e-06 0.10744)
(8.31391e-06 8.45937e-06 0.107441)
(1.36864e-05 -6.54041e-06 0.107444)
(1.4196e-05 7.47606e-06 0.107441)
(2.80961e-05 -2.89705e-05 0.104265)
(-4.22522e-05 4.47347e-05 0.104376)
(7.60785e-06 9.83022e-06 0.107441)
(-5.22798e-06 1.08739e-05 0.107441)
(9.8478e-06 1.2217e-05 0.107443)
(4.53068e-05 4.30497e-05 0.104385)
(2.18231e-05 1.98208e-05 0.104272)
(-4.19717e-05 -3.97128e-05 0.104403)
(-1.29786e-05 -1.29881e-05 0.10744)
(5.20937e-06 -1.13038e-05 0.107444)
(-6.57642e-06 -1.30594e-05 0.107446)
(3.51086e-06 -1.17941e-05 0.107438)
(-2.62361e-05 2.74342e-05 0.10428)
(4.06694e-05 -4.35344e-05 0.104389)
(-1.1179e-05 -1.41542e-05 0.107442)
(-1.02768e-05 9.37265e-06 0.107441)
(-1.51568e-05 -4.3881e-06 0.107446)
(-1.48341e-05 3.63694e-06 0.107439)
(1.30865e-05 4.78305e-06 0.107444)
(9.05078e-06 -6.81791e-06 0.107443)
(8.6321e-06 4.54277e-06 0.10744)
(2.50081e-05 -2.35981e-05 0.104273)
(-4.33412e-05 3.97165e-05 0.104394)
(5.87801e-06 1.14819e-05 0.107446)
(-7.58063e-06 1.11312e-05 0.107443)
(2.87511e-06 1.01429e-05 0.10744)
(4.00151e-05 4.18132e-05 0.104386)
(3.04854e-05 3.23146e-05 0.104296)
(-3.83196e-05 -3.95814e-05 0.10438)
(5.14913e-07 -1.08129e-05 0.107447)
(5.64271e-06 -1.19348e-05 0.10744)
(-3.34237e-07 -4.60196e-06 0.107434)
(4.97432e-06 -6.40006e-06 0.107438)
(-2.76073e-05 2.56045e-05 0.104283)
(4.07197e-05 -3.71726e-05 0.104393)
(-1.24464e-05 1.42836e-06 0.107447)
(-1.25266e-05 6.65564e-07 0.107441)
(-3.2928e-06 -1.5435e-06 0.107436)
(-4.02684e-06 6.74859e-06 0.107436)
(9.52994e-06 5.8614e-06 0.10744)
(9.45392e-06 -8.45072e-07 0.107439)
(9.86759e-06 5.27378e-06 0.107437)
(2.84478e-05 -3.10348e-05 0.104288)
(-3.91775e-05 4.34078e-05 0.104387)
(5.22606e-06 1.07637e-05 0.107441)
(-2.06649e-06 7.93155e-06 0.107437)
(6.08596e-06 8.95742e-06 0.107439)
(4.18138e-05 4.09271e-05 0.104395)
(2.66992e-05 2.59464e-05 0.104277)
(-4.7901e-05 -4.71718e-05 0.104422)
(-9.3893e-06 -6.41783e-06 0.107436)
(5.34847e-06 -5.96257e-06 0.107441)
(-1.34859e-05 -1.59028e-05 0.10744)
(8.18655e-06 -1.43161e-05 0.107437)
(-2.83594e-05 3.1225e-05 0.104289)
(4.49598e-05 -4.88571e-05 0.104413)
(-5.85708e-06 -9.08715e-06 0.107438)
(-6.53026e-06 1.20733e-05 0.10744)
(-1.70339e-05 -1.26673e-05 0.107441)
(-1.64596e-05 5.77905e-06 0.10744)
(9.13962e-06 6.17127e-06 0.107441)
(1.14697e-05 -1.26473e-05 0.107441)
(1.1048e-05 6.98424e-06 0.107438)
(2.65519e-05 -2.32884e-05 0.104285)
(-4.56824e-05 4.14715e-05 0.104421)
(5.72767e-06 8.67921e-06 0.107443)
(-1.04439e-05 1.30942e-05 0.107443)
(6.25623e-06 1.21187e-05 0.107439)
(4.3076e-05 4.38035e-05 0.10441)
(2.53877e-05 2.52923e-05 0.10432)
(-3.56041e-05 -3.69291e-05 0.104412)
(-5.01725e-06 -1.5676e-05 0.107447)
(6.61044e-06 -1.5868e-05 0.107441)
(1.99175e-06 -5.57201e-06 0.10744)
(2.34709e-06 -6.39944e-06 0.107439)
(-2.50653e-05 2.13003e-05 0.10431)
(3.82831e-05 -3.55349e-05 0.104417)
(-1.55094e-05 -6.29323e-06 0.107447)
(-1.44928e-05 -9.3291e-07 0.107444)
(-3.76508e-06 2.97291e-07 0.107442)
(-3.62287e-06 3.91326e-06 0.107434)
(1.20453e-05 4.48433e-06 0.107441)
(7.97503e-06 6.47594e-07 0.10744)
(8.41223e-06 4.08869e-06 0.107436)
(2.71783e-05 -3.08958e-05 0.104316)
(-3.78855e-05 4.10623e-05 0.104405)
(5.56238e-06 1.21614e-05 0.107442)
(-5.80709e-07 5.87575e-06 0.107436)
(5.50952e-06 6.97875e-06 0.107438)
(4.0999e-05 3.9943e-05 0.104414)
(3.01003e-05 2.98216e-05 0.104306)
(-4.23908e-05 -4.0181e-05 0.104421)
(-4.58887e-06 -5.3808e-06 0.107444)
(4.37158e-06 -5.1035e-06 0.107445)
(-6.4449e-06 -9.74433e-06 0.107432)
(4.47247e-06 -9.62059e-06 0.107432)
(-2.96187e-05 3.27099e-05 0.104311)
(4.12006e-05 -4.1964e-05 0.10442)
(-5.21166e-06 -3.79655e-06 0.107446)
(-5.90918e-06 1.13649e-05 0.10744)
(-1.23216e-05 -3.94368e-06 0.107433)
(-1.28752e-05 4.53878e-06 0.107434)
(8.48827e-06 7.96282e-06 0.107444)
(9.68046e-06 -5.10292e-06 0.107435)
(9.3719e-06 2.99458e-06 0.107435)
(2.75799e-05 -2.44771e-05 0.104303)
(-4.10084e-05 3.95996e-05 0.104429)
(7.21034e-06 8.38773e-06 0.107446)
(-5.71831e-06 1.23565e-05 0.107437)
(1.01229e-06 1.13896e-05 0.107436)
(3.79776e-05 3.94913e-05 0.104424)
(2.90743e-05 3.0156e-05 0.104318)
(-4.67294e-05 -4.9577e-05 0.104442)
(-1.9291e-06 -8.92863e-06 0.107441)
(2.78827e-06 -9.63377e-06 0.10744)
(-1.20721e-05 -1.05344e-05 0.107439)
(1.20927e-05 -1.04138e-05 0.107439)
(-2.88984e-05 2.75005e-05 0.104317)
(4.68106e-05 -4.76941e-05 0.104444)
(-9.91228e-06 -1.82694e-06 0.107442)
(-1.00682e-05 -2.29864e-06 0.107443)
(-7.58305e-06 -1.5138e-05 0.107441)
(-6.91992e-06 9.87611e-06 0.107437)
(7.80769e-06 -2.1065e-06 0.107442)
(9.45796e-06 -1.33916e-05 0.107442)
(9.08842e-06 1.17187e-05 0.107435)
(3.0977e-05 -3.28538e-05 0.104325)
(-4.67408e-05 4.59786e-05 0.104435)
(-1.68227e-06 8.07786e-06 0.107443)
(-1.11214e-05 5.61846e-06 0.10744)
(1.46664e-05 6.14898e-06 0.107437)
(4.96356e-05 4.71942e-05 0.104434)
(1.82549e-05 1.63156e-05 0.104344)
(-2.66014e-05 -2.30992e-05 0.104442)
(-1.62085e-05 -1.47667e-05 0.107454)
(1.32216e-05 -1.35951e-05 0.107453)
(8.30759e-06 -6.86884e-06 0.107434)
(-8.0847e-06 -6.935e-06 0.107431)
(-1.96933e-05 1.92974e-05 0.104345)
(2.69981e-05 -2.52787e-05 0.104437)
(-1.30298e-05 -1.72683e-05 0.107455)
(-1.21186e-05 1.61462e-05 0.10745)
(-9.97865e-06 1.19063e-05 0.107435)
(-9.83117e-06 -3.53323e-06 0.107431)
(1.38096e-05 1.78976e-05 0.107449)
(8.07157e-06 1.02194e-05 0.107433)
(8.55131e-06 -3.98407e-06 0.107434)
(1.79332e-05 -1.79801e-05 0.104336)
(-2.74552e-05 3.04181e-05 0.104443)
(1.82063e-05 1.29615e-05 0.107451)
(6.65995e-06 1.2747e-05 0.107434)
(-8.41543e-06 1.26963e-05 0.107436)
(2.57542e-05 2.98571e-05 0.104447)
(4.36854e-05 4.65852e-05 0.104335)
(-5.21288e-05 -5.56156e-05 0.104437)
(1.33438e-05 1.07031e-06 0.107447)
(-9.54333e-06 4.57196e-08 0.107445)
(-1.96068e-05 -1.00643e-05 0.107428)
(2.13378e-05 -1.0362e-05 0.107431)
(-4.15292e-05 4.32215e-05 0.104331)
(5.31806e-05 -5.41333e-05 0.104445)
(-1.58338e-06 1.56876e-05 0.107448)
(-2.27541e-06 -9.20428e-06 0.107447)
(-7.44222e-06 -2.31498e-05 0.107431)
(-8.16178e-06 1.49558e-05 0.107431)
(1.12095e-06 -1.05591e-05 0.107449)
(1.0306e-05 -2.24342e-05 0.107434)
(9.66242e-06 1.43907e-05 0.107431)
(4.26332e-05 -4.03216e-05 0.104339)
(-5.07725e-05 4.73223e-05 0.104439)
(-1.27779e-05 3.69173e-06 0.107451)
(-1.78538e-05 5.41152e-06 0.107434)
(1.95568e-05 5.34134e-06 0.107434)
(5.24715e-05 4.73778e-05 0.104439)
(8.33248e-06 4.86949e-06 0.104362)
(-2.19499e-05 -1.94737e-05 0.10444)
(-1.9073e-05 -1.45449e-05 0.107455)
(1.65442e-05 -1.3947e-05 0.107458)
(-2.77103e-06 -1.38638e-05 0.10744)
(-2.02702e-06 -1.30458e-05 0.107436)
(-9.26027e-06 7.70635e-06 0.104368)
(1.84019e-05 -1.95032e-05 0.104432)
(-1.14282e-05 -2.25187e-05 0.107457)
(-1.13556e-05 1.31192e-05 0.107456)
(-1.54029e-05 -4.3767e-07 0.10744)
(-1.43163e-05 3.90052e-06 0.107433)
(1.29547e-05 1.33548e-05 0.107456)
(1.15348e-05 5.92375e-07 0.107439)
(1.17326e-05 3.63396e-06 0.107434)
(1.00195e-05 -1.35192e-05 0.104362)
(-2.31508e-05 2.42578e-05 0.104431)
(1.77443e-05 8.66523e-06 0.107457)
(-3.94848e-06 1.47643e-05 0.107435)
(5.55104e-08 1.44124e-05 0.107433)
(1.95368e-05 2.36002e-05 0.104428)
(2.38347e-05 2.68092e-05 0.104423)
(-5.56309e-05 -5.64089e-05 0.104386)
(6.75996e-06 -2.04157e-06 0.10747)
(-7.66094e-06 -2.03469e-06 0.107465)
(-4.15077e-05 -6.34532e-05 0.107481)
(4.80658e-05 -6.4414e-05 0.107481)
(-2.57296e-05 2.55469e-05 0.104414)
(6.15605e-05 -5.8604e-05 0.104391)
(-4.64182e-06 1.00118e-05 0.10747)
(-4.16429e-06 -2.73344e-06 0.107464)
(-6.34747e-05 -4.21032e-05 0.107482)
(-6.4245e-05 4.46739e-05 0.107484)
(1.22516e-06 -3.11439e-06 0.107464)
(6.69512e-05 -4.45392e-05 0.107482)
(6.69328e-05 4.66183e-05 0.107483)
(2.22976e-05 -2.04596e-05 0.104417)
(-5.55677e-05 5.80007e-05 0.104395)
(-7.73106e-06 5.2219e-06 0.107464)
(-4.11576e-05 6.66574e-05 0.107486)
(4.72182e-05 6.73063e-05 0.107486)
(6.13109e-05 6.02986e-05 0.104398)
(-4.59396e-05 -4.71443e-05 0.104759)
(-5.34556e-05 -9.27811e-05 0.107736)
(5.87164e-05 -9.37959e-05 0.107737)
(5.07979e-05 -4.8219e-05 0.104766)
(-9.21606e-05 -5.47871e-05 0.107737)
(-9.26681e-05 5.45022e-05 0.107739)
(3.37418e-05 -3.06502e-05 0.112012)
(-2.79774e-05 3.09821e-05 0.112013)
(3.37924e-05 3.21737e-05 0.112012)
(9.64458e-05 5.66356e-05 0.107739)
(-4.48667e-05 4.68203e-05 0.104768)
(5.82884e-05 9.57513e-05 0.107742)
(-1.08093e-05 -1.77893e-05 0.112447)
(1.6562e-05 -1.04578e-05 0.112453)
(1.98526e-06 4.00831e-06 0.112451)
(2.3101e-05 1.5846e-05 0.112448)
(-3.48508e-06 -1.25061e-05 0.0914548)
(3.30383e-07 5.29962e-06 0.0822643)
(-4.20705e-06 9.87753e-07 0.0914116)
(-6.16984e-07 -7.84158e-06 0.082314)
(-3.14684e-06 1.40056e-06 0.0715803)
(2.35925e-06 -3.5521e-06 0.0716309)
(-1.00874e-05 3.85141e-06 0.0914467)
(2.89829e-06 4.02342e-06 0.0822654)
(2.3718e-06 -1.05355e-06 0.0914102)
(-1.07062e-05 5.67224e-06 0.0823132)
(1.34333e-05 -1.2382e-05 0.112443)
(-2.42339e-06 3.28153e-06 0.112439)
(1.6264e-05 8.40146e-06 0.112444)
(-1.65236e-05 -1.49262e-05 0.112424)
(4.70658e-06 -1.53486e-05 0.112421)
(-2.04666e-05 9.95207e-06 0.112409)
(-9.93232e-07 7.97865e-07 0.112423)
(2.35572e-05 -1.06142e-05 0.0986121)
(-4.64536e-06 -6.22773e-06 0.0930402)
(1.93261e-05 -4.95647e-06 0.109892)
(9.17376e-06 -9.69434e-06 0.107486)
(2.16977e-06 -8.52253e-06 0.098552)
(1.36016e-05 -1.49848e-05 0.0930968)
(1.54503e-05 -9.0853e-06 0.109892)
(1.60427e-06 -1.23833e-06 0.0715947)
(-3.36666e-06 -4.84985e-07 0.0716369)
(-1.67496e-05 1.88467e-05 0.0985977)
(3.87299e-06 1.13625e-05 0.109891)
(-1.09819e-05 -1.29225e-05 0.0930251)
(-1.34814e-05 5.43265e-06 0.107464)
(-7.40593e-06 -1.31953e-06 0.0985476)
(-7.41175e-06 9.08887e-06 0.109887)
(-1.54916e-05 5.81058e-06 0.0930809)
(3.16269e-06 2.49735e-06 0.0875967)
(9.5202e-07 3.95313e-06 0.0875972)
(3.37377e-05 3.08148e-05 0.104325)
(2.22835e-06 1.40247e-05 0.087635)
(8.07983e-06 5.93897e-06 0.0876338)
(2.84707e-06 -1.28797e-05 0.0914872)
(6.92886e-08 3.85771e-06 0.0823035)
(1.65885e-06 -7.5975e-07 0.0914465)
(-2.45702e-06 -8.91405e-06 0.082353)
(1.77049e-06 3.95311e-06 0.071618)
(5.35301e-06 -1.92644e-06 0.0716628)
(-1.34099e-05 3.12576e-06 0.0914867)
(3.63397e-06 2.67734e-06 0.0822996)
(1.72763e-07 5.82364e-06 0.0914421)
(-7.85234e-06 -3.57522e-06 0.0823507)
(5.17231e-06 -1.46298e-05 0.112414)
(-2.1999e-05 1.26818e-05 0.112402)
(7.44284e-08 4.87742e-06 0.112412)
(-9.92821e-06 -4.98721e-06 0.112391)
(1.34738e-05 -9.52271e-06 0.112387)
(-1.3671e-05 1.76271e-05 0.112385)
(1.38507e-05 1.87073e-05 0.112378)
(1.78881e-05 4.1778e-06 0.0986105)
(-4.93196e-06 -4.88542e-07 0.0930668)
(7.82726e-06 -8.69635e-06 0.109886)
(8.50447e-06 -8.64883e-06 0.10748)
(-3.66563e-06 -1.9103e-06 0.098564)
(1.56085e-05 -9.21906e-07 0.0931196)
(8.86354e-06 -4.89514e-06 0.109879)
(3.64183e-06 -1.21685e-06 0.0716025)
(-1.8429e-06 4.35418e-06 0.0716495)
(1.13949e-06 1.8928e-05 0.0986108)
(-1.84812e-05 1.11868e-05 0.109875)
(1.92646e-06 -5.30431e-06 0.0930666)
(-1.47635e-05 1.32931e-05 0.107478)
(-8.87285e-06 -4.64437e-06 0.0985559)
(-1.35478e-05 1.34279e-05 0.10987)
(1.26529e-06 1.85561e-05 0.0931247)
(-1.00049e-05 2.08819e-06 0.0876147)
(-1.89356e-06 -7.61332e-06 0.0876124)
(4.47379e-05 5.13502e-05 0.104295)
(2.68488e-06 2.62538e-06 0.0876585)
(2.13108e-06 3.20712e-06 0.0876557)
(-3.65808e-07 -1.1359e-05 0.0915129)
(4.95276e-07 4.14966e-06 0.082339)
(1.06034e-06 8.79175e-07 0.0914725)
(-8.62694e-07 -7.99497e-06 0.0823856)
(-1.35415e-06 2.34221e-06 0.0716451)
(1.82728e-06 -3.44481e-06 0.0716905)
(-1.20209e-05 -2.80169e-06 0.0915141)
(4.94658e-06 -2.20093e-06 0.0823385)
(-2.57854e-07 -2.11147e-06 0.0914761)
(-7.62209e-06 -2.51435e-06 0.0823873)
(1.57291e-05 -8.32854e-06 0.112377)
(-9.89412e-06 1.74534e-05 0.112379)
(1.70293e-05 1.99215e-05 0.112368)
(-9.31077e-06 -1.14888e-05 0.112345)
(1.49351e-05 -8.82207e-06 0.112347)
(-6.08386e-06 1.23275e-05 0.112353)
(1.6546e-05 1.44976e-05 0.112347)
(2.29146e-05 2.82655e-06 0.0986361)
(-1.36956e-06 7.79244e-06 0.0930918)
(1.69409e-05 3.59809e-06 0.109856)
(1.66465e-05 -7.47643e-07 0.107469)
(-1.92594e-06 6.28224e-06 0.098574)
(1.78835e-05 -2.02335e-06 0.0931491)
(1.8815e-05 3.65819e-06 0.109851)
(1.9601e-06 2.74933e-07 0.0716377)
(-3.77928e-06 2.38719e-06 0.0716937)
(5.92933e-06 2.38759e-05 0.0986418)
(3.60078e-06 1.89173e-05 0.109859)
(7.08117e-06 1.21419e-06 0.0930973)
(2.36029e-06 1.60098e-05 0.10748)
(9.07223e-06 -1.08399e-07 0.0985812)
(5.80328e-06 1.9273e-05 0.109856)
(-3.31723e-06 1.88694e-05 0.0931499)
(3.68587e-06 -6.55099e-06 0.0876503)
(-3.73262e-06 2.04003e-06 0.0876486)
(4.73703e-05 4.54439e-05 0.10434)
(1.15879e-05 3.88406e-06 0.0876952)
(6.34197e-06 1.01536e-05 0.0876935)
(-1.50923e-06 -1.23316e-05 0.0915483)
(7.26521e-08 5.15372e-06 0.0823717)
(-1.6274e-06 3.51681e-07 0.0915051)
(-2.24726e-06 -7.39312e-06 0.0824196)
(-1.66917e-06 1.98014e-06 0.0716782)
(1.65503e-06 -3.80366e-06 0.071727)
(-1.1929e-05 -1.10005e-06 0.0915473)
(4.86783e-06 1.9839e-07 0.0823717)
(5.21926e-07 -1.91835e-06 0.0915054)
(-7.70661e-06 -1.4618e-06 0.0824203)
(1.3066e-05 -1.01461e-05 0.112338)
(-7.46261e-06 1.04302e-05 0.112342)
(1.42099e-05 1.17429e-05 0.112342)
(-1.30362e-05 -1.37709e-05 0.112309)
(9.36838e-06 -1.32554e-05 0.112312)
(-1.28371e-05 8.93296e-06 0.112312)
(8.90385e-06 8.13422e-06 0.112319)
(2.26115e-05 -4.19573e-06 0.0986675)
(-3.65824e-06 -3.32928e-06 0.0931247)
(1.72001e-05 -1.95215e-06 0.109842)
(1.07938e-05 -7.27938e-06 0.107463)
(1.1672e-06 -3.26199e-06 0.0986123)
(1.4997e-05 -9.60822e-06 0.0931802)
(1.52701e-05 -4.11248e-06 0.109839)
(2.17704e-06 -1.52427e-06 0.0716794)
(-3.14232e-06 2.47228e-06 0.0717292)
(-4.08634e-06 2.21253e-05 0.098666)
(1.0109e-06 1.5503e-05 0.109845)
(-3.13687e-06 -3.76879e-06 0.0931243)
(-6.00036e-06 9.76819e-06 0.107462)
(-2.20724e-06 1.00242e-06 0.0986124)
(-2.0378e-06 1.38538e-05 0.109841)
(-9.53089e-06 1.43569e-05 0.0931788)
(8.76717e-07 6.00248e-07 0.0876846)
(8.49303e-07 8.04163e-07 0.0876836)
(4.24854e-05 4.10831e-05 0.104337)
(7.42065e-06 6.69234e-06 0.0877313)
(6.0719e-06 7.82377e-06 0.0877298)
(1.21431e-07 -1.13723e-05 0.0915797)
(7.64437e-07 4.16261e-06 0.0824056)
(-9.08054e-07 7.23007e-07 0.0915384)
(-3.17518e-07 -8.35069e-06 0.0824531)
(-5.52243e-07 2.93645e-06 0.0717111)
(4.23846e-06 -2.36644e-06 0.0717545)
(-1.14454e-05 6.79073e-07 0.0915787)
(4.0167e-06 1.29735e-06 0.0824042)
(9.63215e-07 1.83634e-07 0.0915383)
(-8.29828e-06 -2.18296e-07 0.0824529)
(9.21745e-06 -1.34498e-05 0.112304)
(-1.39842e-05 9.69434e-06 0.112304)
(8.4586e-06 8.3872e-06 0.112309)
(-1.28089e-05 -1.22548e-05 0.11228)
(1.15342e-05 -1.33051e-05 0.112279)
(-1.39931e-05 1.21315e-05 0.112278)
(1.11221e-05 1.16122e-05 0.112279)
(2.02377e-05 -9.14823e-07 0.0986833)
(-4.05134e-06 -3.56988e-07 0.0931545)
(1.29667e-05 -6.09979e-06 0.109828)
(1.0171e-05 -8.22436e-06 0.107456)
(-1.55912e-06 -2.20194e-06 0.0986291)
(1.42893e-05 -5.47766e-06 0.0932093)
(1.32065e-05 -5.54425e-06 0.109823)
(2.34367e-06 -1.27082e-06 0.0717078)
(-2.90084e-06 2.4161e-06 0.0717553)
(-1.92555e-06 2.01416e-05 0.0986827)
(-7.11349e-06 1.30678e-05 0.109827)
(-8.40021e-07 -5.39116e-06 0.0931536)
(-1.01744e-05 1.10311e-05 0.107454)
(-3.29584e-06 -1.92641e-06 0.098628)
(-6.99148e-06 1.36027e-05 0.109822)
(-4.92935e-06 1.47539e-05 0.0932088)
(-1.82838e-06 -6.56568e-07 0.0877204)
(-1.29946e-06 -1.41888e-06 0.0877192)
(4.17016e-05 4.25137e-05 0.104325)
(3.29497e-06 6.82434e-06 0.0877612)
(6.52341e-06 3.50459e-06 0.0877593)
(1.30151e-07 -1.1202e-05 0.0916099)
(1.5415e-07 4.8762e-06 0.0824369)
(1.14656e-06 1.11455e-06 0.0915693)
(-2.25288e-06 -7.33354e-06 0.0824823)
(-1.94147e-06 2.00845e-06 0.0717357)
(1.94855e-07 -3.78753e-06 0.0717798)
(-1.13655e-05 -2.79725e-07 0.0916104)
(5.01125e-06 -2.72922e-07 0.0824363)
(8.81666e-07 3.18279e-07 0.0915705)
(-7.40143e-06 -2.17832e-06 0.0824829)
(1.29648e-05 -1.32759e-05 0.112272)
(-1.30241e-05 1.26801e-05 0.11227)
(1.29765e-05 1.31842e-05 0.11227)
(-1.15859e-05 -1.19219e-05 0.112246)
(1.35966e-05 -1.1411e-05 0.112245)
(-1.0831e-05 1.31256e-05 0.112245)
(1.44375e-05 1.41953e-05 0.112243)
(2.02578e-05 1.15836e-06 0.0987047)
(-4.73513e-06 2.58601e-06 0.0931812)
(1.46731e-05 -3.39284e-06 0.10981)
(1.34336e-05 -7.18401e-06 0.107453)
(-2.96923e-06 6.53167e-07 0.0986495)
(1.65519e-05 -1.73218e-06 0.0932374)
(1.54638e-05 -2.63262e-06 0.109805)
(2.92521e-06 -3.61662e-07 0.0717318)
(-2.87798e-06 3.29946e-06 0.0717801)
(2.04807e-06 2.05283e-05 0.0987064)
(-2.65488e-06 1.50914e-05 0.109809)
(3.17949e-06 -3.24773e-06 0.0931844)
(-4.691e-06 1.2501e-05 0.107453)
(1.30491e-06 -2.37952e-06 0.0986504)
(-1.17025e-06 1.5491e-05 0.109804)
(-3.21669e-06 1.60183e-05 0.0932377)
(-9.76075e-07 -3.70173e-06 0.0877477)
(-3.47167e-06 -1.14191e-06 0.0877463)
(4.65643e-05 4.6334e-05 0.104343)
(9.13487e-06 1.82745e-06 0.0877925)
(1.91507e-06 9.05642e-06 0.0877909)
(-6.06015e-07 -1.147e-05 0.0916411)
(7.39006e-07 4.79322e-06 0.0824654)
(-1.8617e-06 9.87705e-07 0.0915995)
(-4.18778e-07 -7.99581e-06 0.0825135)
(5.94182e-07 3.78529e-06 0.0717596)
(6.6618e-06 -1.56019e-06 0.0718043)
(-1.137e-05 -2.32484e-08 0.091639)
(4.3386e-06 1.41977e-06 0.0824643)
(1.32346e-06 -4.26463e-07 0.0915987)
(-7.90936e-06 -5.75267e-07 0.0825135)
(1.19784e-05 -1.04629e-05 0.112238)
(-1.12856e-05 1.28498e-05 0.112237)
(1.24816e-05 1.26182e-05 0.112236)
(-1.19096e-05 -1.10961e-05 0.112214)
(1.01801e-05 -1.14104e-05 0.112214)
(-1.25403e-05 1.11809e-05 0.112213)
(9.2733e-06 9.9338e-06 0.112214)
(2.14989e-05 -1.12104e-06 0.0987361)
(-2.1909e-06 1.19855e-06 0.093214)
(1.65243e-05 -1.03181e-06 0.109794)
(1.02431e-05 -2.985e-06 0.10745)
(-2.04545e-07 2.29338e-07 0.0986777)
(1.37168e-05 -8.74914e-06 0.0932669)
(1.53235e-05 -1.51834e-06 0.109792)
(2.20719e-06 -1.55422e-06 0.0717591)
(-3.03004e-06 2.05171e-06 0.0718077)
(-2.70617e-06 2.12119e-05 0.0987343)
(-2.61173e-06 1.60848e-05 0.109794)
(2.70301e-07 -4.40719e-06 0.0932113)
(-6.9574e-06 1.17625e-05 0.10745)
(-1.02633e-06 -9.7514e-07 0.098677)
(-4.11629e-06 1.54487e-05 0.109791)
(-6.67036e-06 1.48099e-05 0.0932664)
(3.4095e-07 -2.00532e-07 0.0877797)
(-6.49685e-07 7.06554e-07 0.0877785)
(3.84046e-05 3.90236e-05 0.104349)
(2.82082e-06 9.78672e-06 0.087819)
(9.70448e-06 2.99831e-06 0.0878169)
(1.93104e-07 -1.0283e-05 0.0916656)
(-6.25864e-07 4.98994e-06 0.0824955)
(1.85187e-06 1.67804e-06 0.0916277)
(-2.5892e-06 -7.2135e-06 0.0825387)
(-2.56598e-06 1.20482e-06 0.0717871)
(-2.57518e-06 -4.85218e-06 0.0718315)
(-1.06542e-05 -1.40162e-06 0.0916683)
(5.85968e-06 -2.2953e-06 0.0824958)
(1.13845e-06 -7.09154e-07 0.0916305)
(-6.99342e-06 -2.99452e-06 0.0825398)
(1.19659e-05 -1.27699e-05 0.112208)
(-1.18626e-05 1.09848e-05 0.112207)
(1.11691e-05 1.11012e-05 0.112208)