/*--------------------------------*- C++ -*----------------------------------*\
| =========                 |                                                 |
| \\      /  F ield         | OpenFOAM: The Open Source CFD Toolbox           |
|  \\    /   O peration     | Version:  v1906                                 |
|   \\  /    A nd           | Web:      www.OpenFOAM.com                      |
|    \\/     M anipulation  |                                                 |
\*---------------------------------------------------------------------------*/
FoamFile
{
    version     2.0;
    format      ascii;
    class       volScalarField;
    location    "0.025";
    object      p;
}
// * * * * * * * * * * * * * * * * * * * * * * * * * * * * * * * * * * * * * //

dimensions      [0 2 -2 0 0 0 0];


internalField   nonuniform List<scalar> 
247104
(
4.3773e-13
1.2374e-09
7.06112e-10
1.0497e-09
6.71836e-10
1.07572e-09
7.71378e-10
1.07909e-09
1.18422e-09
1.43673e-09
1.61505e-09
1.55702e-09
1.39908e-09
1.59521e-09
1.62886e-09
1.40444e-09
7.14531e-10
1.62712e-09
1.43587e-09
1.04785e-09
8.82724e-10
1.09921e-09
1.49464e-09
1.60877e-09
4.96509e-10
1.03057e-09
1.55523e-09
1.04334e-09
4.97787e-10
3.01893e-10
5.58286e-10
1.13187e-09
1.59077e-09
8.27072e-10
-1.29482e-10
6.01162e-10
1.36663e-09
8.64201e-10
2.92621e-10
9.00951e-11
3.55974e-10
9.59416e-10
1.39702e-09
4.05895e-10
9.81083e-10
1.54836e-09
1.0685e-09
5.39041e-10
3.47376e-10
6.00957e-10
1.16011e-09
1.59217e-09
7.80982e-10
7.00736e-10
1.57961e-09
1.45471e-09
1.10299e-09
9.44046e-10
1.15623e-09
1.51532e-09
1.56887e-09
5.18681e-10
1.00911e-09
1.34917e-09
1.55832e-09
1.54981e-09
1.3767e-09
1.59182e-09
1.57405e-09
1.3262e-09
4.36803e-10
7.67567e-10
3.81901e-10
7.93473e-10
5.39888e-10
-3.78898e-08
-3.8108e-08
-3.17022e-08
-3.49119e-08
-3.76586e-08
-3.66382e-08
-3.72662e-08
-2.89282e-08
-3.11616e-08
-3.16969e-08
-3.61851e-08
-4.24423e-08
-4.28974e-08
-4.28962e-08
-4.24424e-08
-3.64249e-08
-3.48746e-08
-3.49812e-08
-4.24595e-08
-4.25597e-08
-4.26045e-08
-4.26014e-08
-4.25502e-08
-4.2436e-08
-3.56666e-08
-2.63273e-08
-3.77073e-08
-3.76819e-08
-4.29117e-08
-4.26104e-08
-4.23952e-08
-4.23919e-08
-4.26001e-08
-4.28921e-08
-3.75395e-08
-3.26525e-08
-3.8137e-08
-3.66689e-08
-4.29143e-08
-4.26127e-08
-4.23975e-08
-4.23946e-08
-4.26034e-08
-4.28957e-08
-3.70027e-08
-3.75964e-08
-3.72707e-08
-4.24665e-08
-4.25665e-08
-4.2611e-08
-4.26095e-08
-4.25603e-08
-4.2446e-08
-3.71944e-08
-3.52504e-08
-2.89296e-08
-3.64607e-08
-4.24549e-08
-4.29085e-08
-4.29113e-08
-4.24642e-08
-3.71903e-08
-3.51462e-08
-2.68437e-08
-3.12131e-08
-3.48811e-08
-3.5669e-08
-3.75561e-08
-3.70333e-08
-3.72266e-08
-3.51279e-08
-2.56207e-08
-2.62797e-08
-3.27556e-08
-3.76047e-08
-3.53389e-08
-2.67418e-08
-5.44931e-08
-5.41724e-08
-5.57049e-08
-5.7406e-08
-5.7583e-08
-5.76783e-08
-5.73974e-08
-5.41668e-08
-5.45772e-08
-5.56993e-08
-5.76931e-08
-5.96627e-08
-6.00397e-08
-6.00454e-08
-5.97045e-08
-5.51311e-08
-5.66997e-08
-5.7439e-08
-5.97773e-08
-6.03118e-08
-6.0491e-08
-6.04873e-08
-6.02925e-08
-5.96843e-08
-5.45919e-08
-5.35984e-08
-5.46225e-08
-5.76166e-08
-6.0066e-08
-6.05012e-08
-6.06731e-08
-6.06661e-08
-6.0476e-08
-6.00156e-08
-5.56192e-08
-5.45502e-08
-5.42167e-08
-5.77145e-08
-6.00555e-08
-6.04998e-08
-6.06737e-08
-6.06673e-08
-6.04741e-08
-6.00079e-08
-5.61473e-08
-5.77084e-08
-5.74417e-08
-5.97429e-08
-6.03132e-08
-6.04942e-08
-6.04941e-08
-6.02896e-08
-5.96303e-08
-5.49955e-08
-5.39525e-08
-5.42277e-08
-5.51793e-08
-5.96975e-08
-6.00413e-08
-6.00709e-08
-5.97409e-08
-5.44398e-08
-5.55524e-08
-5.42277e-08
-5.46058e-08
-5.67418e-08
-5.45982e-08
-5.56209e-08
-5.61622e-08
-5.50319e-08
-5.55431e-08
-5.27196e-08
-5.3555e-08
-5.4526e-08
-5.76618e-08
-5.39493e-08
-5.41833e-08
-7.98392e-08
-7.96738e-08
-8.0718e-08
-8.21093e-08
-8.23789e-08
-8.24647e-08
-8.20267e-08
-7.85372e-08
-7.91578e-08
-8.0713e-08
-8.23971e-08
-8.49177e-08
-8.52359e-08
-8.52317e-08
-8.48965e-08
-7.80861e-08
-8.08708e-08
-8.21344e-08
-8.48759e-08
-8.50206e-08
-8.51263e-08
-8.51299e-08
-8.50385e-08
-8.49525e-08
-7.76029e-08
-7.83352e-08
-7.9866e-08
-8.24004e-08
-8.52265e-08
-8.51248e-08
-8.51274e-08
-8.51319e-08
-8.51417e-08
-8.52632e-08
-7.86802e-08
-7.96437e-08
-7.97139e-08
-8.24886e-08
-8.52353e-08
-8.51319e-08
-8.51324e-08
-8.51354e-08
-8.51441e-08
-8.5267e-08
-7.93629e-08
-8.24555e-08
-8.20593e-08
-8.4911e-08
-8.50436e-08
-8.51412e-08
-8.51401e-08
-8.50437e-08
-8.49562e-08
-7.79981e-08
-7.90663e-08
-7.85487e-08
-7.81223e-08
-8.49575e-08
-8.52586e-08
-8.52496e-08
-8.49005e-08
-7.63786e-08
-7.90556e-08
-7.87434e-08
-7.91884e-08
-8.09147e-08
-7.76125e-08
-7.86719e-08
-7.93442e-08
-7.79791e-08
-7.89875e-08
-7.69497e-08
-7.83351e-08
-7.96153e-08
-8.24168e-08
-7.90029e-08
-7.86837e-08
-1.02709e-07
-1.02485e-07
-1.03596e-07
-1.05246e-07
-1.05638e-07
-1.0564e-07
-1.05203e-07
-1.01436e-07
-1.02286e-07
-1.03687e-07
-1.05968e-07
-1.09468e-07
-1.09535e-07
-1.09533e-07
-1.09467e-07
-1.01031e-07
-1.0386e-07
-1.05252e-07
-1.09469e-07
-1.09465e-07
-1.09475e-07
-1.09475e-07
-1.09467e-07
-1.09477e-07
-9.98379e-08
-1.01086e-07
-1.02736e-07
-1.05641e-07
-1.09533e-07
-1.09474e-07
-1.09458e-07
-1.0946e-07
-1.09479e-07
-1.09542e-07
-1.00683e-07
-1.02458e-07
-1.02535e-07
-1.05643e-07
-1.09532e-07
-1.09473e-07
-1.09458e-07
-1.0946e-07
-1.09478e-07
-1.09539e-07
-1.01366e-07
-1.05378e-07
-1.05199e-07
-1.09457e-07
-1.09461e-07
-1.09474e-07
-1.09477e-07
-1.09469e-07
-1.09479e-07
-1.00151e-07
-1.01852e-07
-1.01453e-07
-1.01003e-07
-1.09464e-07
-1.09534e-07
-1.09536e-07
-1.09469e-07
-9.86066e-08
-1.01658e-07
-1.01575e-07
-1.0244e-07
-1.03875e-07
-9.98393e-08
-1.00685e-07
-1.01354e-07
-1.00137e-07
-1.01661e-07
-1.00374e-07
-1.0108e-07
-1.02462e-07
-1.05324e-07
-1.01848e-07
-1.01557e-07
-1.2581e-07
-1.25614e-07
-1.26721e-07
-1.28343e-07
-1.28929e-07
-1.28918e-07
-1.28359e-07
-1.24354e-07
-1.2532e-07
-1.26483e-07
-1.29206e-07
-1.33242e-07
-1.33246e-07
-1.33245e-07
-1.33212e-07
-1.2411e-07
-1.26924e-07
-1.28351e-07
-1.33215e-07
-1.33223e-07
-1.33223e-07
-1.3322e-07
-1.33211e-07
-1.33206e-07
-1.22734e-07
-1.2401e-07
-1.25834e-07
-1.28949e-07
-1.33245e-07
-1.33223e-07
-1.33214e-07
-1.33212e-07
-1.33215e-07
-1.33235e-07
-1.23541e-07
-1.25568e-07
-1.25623e-07
-1.2892e-07
-1.33242e-07
-1.3322e-07
-1.33212e-07
-1.33211e-07
-1.33216e-07
-1.33237e-07
-1.24228e-07
-1.28523e-07
-1.28356e-07
-1.33207e-07
-1.33214e-07
-1.33217e-07
-1.33216e-07
-1.33211e-07
-1.33216e-07
-1.22996e-07
-1.24898e-07
-1.24355e-07
-1.24074e-07
-1.33222e-07
-1.33236e-07
-1.33238e-07
-1.33205e-07
-1.21452e-07
-1.24516e-07
-1.24423e-07
-1.25314e-07
-1.26923e-07
-1.22747e-07
-1.23482e-07
-1.24202e-07
-1.22984e-07
-1.2456e-07
-1.2323e-07
-1.24004e-07
-1.25579e-07
-1.28501e-07
-1.24901e-07
-1.24447e-07
-1.4915e-07
-1.48956e-07
-1.50009e-07
-1.51677e-07
-1.52332e-07
-1.52307e-07
-1.51711e-07
-1.47607e-07
-1.48579e-07
-1.49932e-07
-1.52557e-07
-1.56767e-07
-1.56766e-07
-1.56764e-07
-1.56744e-07
-1.47431e-07
-1.50245e-07
-1.51686e-07
-1.56767e-07
-1.56761e-07
-1.56757e-07
-1.56753e-07
-1.56744e-07
-1.56737e-07
-1.45996e-07
-1.47305e-07
-1.49161e-07
-1.52342e-07
-1.56765e-07
-1.56758e-07
-1.56753e-07
-1.56748e-07
-1.56745e-07
-1.56746e-07
-1.46763e-07
-1.48899e-07
-1.48961e-07
-1.52312e-07
-1.56765e-07
-1.56756e-07
-1.56751e-07
-1.56747e-07
-1.56744e-07
-1.56746e-07
-1.47442e-07
-1.51856e-07
-1.51722e-07
-1.56758e-07
-1.56755e-07
-1.56752e-07
-1.56749e-07
-1.56742e-07
-1.56734e-07
-1.46266e-07
-1.48221e-07
-1.47627e-07
-1.47452e-07
-1.56758e-07
-1.56757e-07
-1.56759e-07
-1.56742e-07
-1.44734e-07
-1.4783e-07
-1.47712e-07
-1.48543e-07
-1.50245e-07
-1.46037e-07
-1.46739e-07
-1.47488e-07
-1.4625e-07
-1.47821e-07
-1.46533e-07
-1.47299e-07
-1.4891e-07
-1.51844e-07
-1.48226e-07
-1.47706e-07
-1.72555e-07
-1.72367e-07
-1.73407e-07
-1.7509e-07
-1.75746e-07
-1.75727e-07
-1.75143e-07
-1.71002e-07
-1.71983e-07
-1.73333e-07
-1.75982e-07
-1.80222e-07
-1.8023e-07
-1.80235e-07
-1.80204e-07
-1.70845e-07
-1.7363e-07
-1.75089e-07
-1.80223e-07
-1.80223e-07
-1.80225e-07
-1.80224e-07
-1.80217e-07
-1.8022e-07
-1.69392e-07
-1.7069e-07
-1.72556e-07
-1.7574e-07
-1.80224e-07
-1.80223e-07
-1.80223e-07
-1.80222e-07
-1.80221e-07
-1.80222e-07
-1.70175e-07
-1.72303e-07
-1.72363e-07
-1.7571e-07
-1.80222e-07
-1.80222e-07
-1.80222e-07
-1.80222e-07
-1.80222e-07
-1.80225e-07
-1.70848e-07
-1.75268e-07
-1.75152e-07
-1.80224e-07
-1.80221e-07
-1.80222e-07
-1.80223e-07
-1.80223e-07
-1.80227e-07
-1.69677e-07
-1.71626e-07
-1.71036e-07
-1.70853e-07
-1.80214e-07
-1.80225e-07
-1.80224e-07
-1.8022e-07
-1.68101e-07
-1.71208e-07
-1.7111e-07
-1.71828e-07
-1.73647e-07
-1.69396e-07
-1.70162e-07
-1.70825e-07
-1.69713e-07
-1.7125e-07
-1.69943e-07
-1.70683e-07
-1.72314e-07
-1.75249e-07
-1.71635e-07
-1.71109e-07
-1.95985e-07
-1.958e-07
-1.96824e-07
-1.98511e-07
-1.99208e-07
-1.99161e-07
-1.98585e-07
-1.94445e-07
-1.95426e-07
-1.96751e-07
-1.99417e-07
-2.03679e-07
-2.03685e-07
-2.03684e-07
-2.03679e-07
-1.94293e-07
-1.97066e-07
-1.98508e-07
-2.0368e-07
-2.03681e-07
-2.03682e-07
-2.03682e-07
-2.03681e-07
-2.03682e-07
-1.92859e-07
-1.94153e-07
-1.9599e-07
-1.99184e-07
-2.0368e-07
-2.03681e-07
-2.03682e-07
-2.03682e-07
-2.03682e-07
-2.03684e-07
-1.93623e-07
-1.95762e-07
-1.95799e-07
-1.99147e-07
-2.03682e-07
-2.03682e-07
-2.03682e-07
-2.03682e-07
-2.03683e-07
-2.03685e-07
-1.94288e-07
-1.9872e-07
-1.98572e-07
-2.03683e-07
-2.03683e-07
-2.03682e-07
-2.03682e-07
-2.03682e-07
-2.03686e-07
-1.9312e-07
-1.95075e-07
-1.9447e-07
-1.94319e-07
-2.03684e-07
-2.03682e-07
-2.03683e-07
-2.03677e-07
-1.91545e-07
-1.94647e-07
-1.9455e-07
-1.95271e-07
-1.97082e-07
-1.92818e-07
-1.93606e-07
-1.94276e-07
-1.9315e-07
-1.94682e-07
-1.93384e-07
-1.9413e-07
-1.95757e-07
-1.9869e-07
-1.95073e-07
-1.94545e-07
-2.19433e-07
-2.19248e-07
-2.20277e-07
-2.21956e-07
-2.22659e-07
-2.22613e-07
-2.22034e-07
-2.17889e-07
-2.18875e-07
-2.20196e-07
-2.22852e-07
-2.27134e-07
-2.27136e-07
-2.27135e-07
-2.27137e-07
-2.17724e-07
-2.20513e-07
-2.21951e-07
-2.27133e-07
-2.27135e-07
-2.27136e-07
-2.27136e-07
-2.27137e-07
-2.27138e-07
-2.16305e-07
-2.176e-07
-2.19433e-07
-2.22628e-07
-2.27134e-07
-2.27136e-07
-2.27137e-07
-2.27137e-07
-2.27138e-07
-2.27138e-07
-2.17066e-07
-2.19208e-07
-2.19243e-07
-2.22594e-07
-2.27135e-07
-2.27137e-07
-2.27137e-07
-2.27137e-07
-2.27138e-07
-2.27138e-07
-2.17737e-07
-2.22168e-07
-2.22019e-07
-2.27136e-07
-2.27137e-07
-2.27137e-07
-2.27138e-07
-2.27138e-07
-2.27138e-07
-2.16577e-07
-2.18524e-07
-2.17916e-07
-2.17768e-07
-2.27135e-07
-2.27136e-07
-2.27137e-07
-2.27138e-07
-2.14986e-07
-2.18097e-07
-2.17999e-07
-2.18716e-07
-2.20522e-07
-2.16267e-07
-2.17043e-07
-2.17694e-07
-2.16586e-07
-2.18126e-07
-2.16832e-07
-2.17576e-07
-2.19204e-07
-2.2214e-07
-2.18521e-07
-2.17992e-07
-2.42884e-07
-2.427e-07
-2.43712e-07
-2.45411e-07
-2.46107e-07
-2.46063e-07
-2.45491e-07
-2.41372e-07
-2.42335e-07
-2.43645e-07
-2.4632e-07
-2.50596e-07
-2.50587e-07
-2.50587e-07
-2.50602e-07
-2.41172e-07
-2.43966e-07
-2.45406e-07
-2.50591e-07
-2.50593e-07
-2.50592e-07
-2.50591e-07
-2.50593e-07
-2.50591e-07
-2.39757e-07
-2.41051e-07
-2.42888e-07
-2.46084e-07
-2.50591e-07
-2.50592e-07
-2.50592e-07
-2.50592e-07
-2.50593e-07
-2.50592e-07
-2.4052e-07
-2.42661e-07
-2.42697e-07
-2.46053e-07
-2.5059e-07
-2.50592e-07
-2.50592e-07
-2.50592e-07
-2.50592e-07
-2.50592e-07
-2.41191e-07
-2.45621e-07
-2.45473e-07
-2.50588e-07
-2.50592e-07
-2.50592e-07
-2.50592e-07
-2.50592e-07
-2.50593e-07
-2.40031e-07
-2.41977e-07
-2.41368e-07
-2.41221e-07
-2.50593e-07
-2.50592e-07
-2.50592e-07
-2.50593e-07
-2.38442e-07
-2.41551e-07
-2.41452e-07
-2.42167e-07
-2.43974e-07
-2.39718e-07
-2.40491e-07
-2.41151e-07
-2.40049e-07
-2.41584e-07
-2.40287e-07
-2.41029e-07
-2.42657e-07
-2.45595e-07
-2.41977e-07
-2.41449e-07
-2.66335e-07
-2.66151e-07
-2.67022e-07
-2.68868e-07
-2.69557e-07
-2.69509e-07
-2.68942e-07
-2.6483e-07
-2.65786e-07
-2.67051e-07
-2.69779e-07
-2.74047e-07
-2.74045e-07
-2.74044e-07
-2.74051e-07
-2.64644e-07
-2.67422e-07
-2.6886e-07
-2.74048e-07
-2.74048e-07
-2.74046e-07
-2.74047e-07
-2.74048e-07
-2.74048e-07
-2.63213e-07
-2.64507e-07
-2.66342e-07
-2.69539e-07
-2.74047e-07
-2.74047e-07
-2.74046e-07
-2.74047e-07
-2.74047e-07
-2.74047e-07
-2.63976e-07
-2.66116e-07
-2.66152e-07
-2.69508e-07
-2.74046e-07
-2.74046e-07
-2.74046e-07
-2.74046e-07
-2.74047e-07
-2.74047e-07
-2.64646e-07
-2.69076e-07
-2.68928e-07
-2.74046e-07
-2.74046e-07
-2.74046e-07
-2.74046e-07
-2.74046e-07
-2.74047e-07
-2.63485e-07
-2.65432e-07
-2.64822e-07
-2.64663e-07
-2.74046e-07
-2.74045e-07
-2.74045e-07
-2.74046e-07
-2.61896e-07
-2.65005e-07
-2.64907e-07
-2.65622e-07
-2.67429e-07
-2.63173e-07
-2.63945e-07
-2.64605e-07
-2.63503e-07
-2.65038e-07
-2.63741e-07
-2.64484e-07
-2.66111e-07
-2.69049e-07
-2.65431e-07
-2.64903e-07
-2.89787e-07
-2.89603e-07
-2.90526e-07
-2.92322e-07
-2.93004e-07
-2.9296e-07
-2.92397e-07
-2.88281e-07
-2.89238e-07
-2.90549e-07
-2.93229e-07
-2.97497e-07
-2.97496e-07
-2.97496e-07
-2.97509e-07
-2.88113e-07
-2.90887e-07
-2.9231e-07
-2.97498e-07
-2.97498e-07
-2.97498e-07
-2.97499e-07
-2.97501e-07
-2.97502e-07
-2.8667e-07
-2.87963e-07
-2.89797e-07
-2.92991e-07
-2.97498e-07
-2.97498e-07
-2.97499e-07
-2.975e-07
-2.97501e-07
-2.97501e-07
-2.8743e-07
-2.89571e-07
-2.89606e-07
-2.92961e-07
-2.97499e-07
-2.97499e-07
-2.97499e-07
-2.975e-07
-2.975e-07
-2.97501e-07
-2.881e-07
-2.9253e-07
-2.92382e-07
-2.97499e-07
-2.97499e-07
-2.97499e-07
-2.97499e-07
-2.975e-07
-2.975e-07
-2.86939e-07
-2.88886e-07
-2.88275e-07
-2.88116e-07
-2.97499e-07
-2.97499e-07
-2.97499e-07
-2.975e-07
-2.85349e-07
-2.88459e-07
-2.8836e-07
-2.89075e-07
-2.90882e-07
-2.86626e-07
-2.87396e-07
-2.88052e-07
-2.86954e-07
-2.88491e-07
-2.87194e-07
-2.87936e-07
-2.89564e-07
-2.925e-07
-2.88883e-07
-2.88355e-07
-3.13243e-07
-3.13059e-07
-3.13982e-07
-3.15776e-07
-3.16462e-07
-3.16425e-07
-3.15846e-07
-3.11724e-07
-3.12691e-07
-3.13999e-07
-3.16681e-07
-3.2095e-07
-3.20952e-07
-3.20953e-07
-3.20954e-07
-3.11559e-07
-3.14336e-07
-3.15761e-07
-3.2095e-07
-3.20951e-07
-3.20952e-07
-3.20952e-07
-3.20953e-07
-3.20953e-07
-3.10121e-07
-3.11414e-07
-3.13248e-07
-3.16443e-07
-3.20951e-07
-3.20951e-07
-3.20952e-07
-3.20952e-07
-3.20953e-07
-3.20953e-07
-3.10882e-07
-3.13023e-07
-3.13058e-07
-3.16413e-07
-3.20951e-07
-3.20952e-07
-3.20952e-07
-3.20952e-07
-3.20953e-07
-3.20953e-07
-3.11552e-07
-3.15983e-07
-3.15834e-07
-3.20952e-07
-3.20952e-07
-3.20952e-07
-3.20952e-07
-3.20953e-07
-3.20953e-07
-3.10392e-07
-3.12338e-07
-3.11727e-07
-3.11568e-07
-3.20952e-07
-3.20952e-07
-3.20952e-07
-3.20952e-07
-3.08801e-07
-3.11911e-07
-3.11813e-07
-3.12527e-07
-3.14334e-07
-3.10078e-07
-3.10849e-07
-3.11504e-07
-3.10407e-07
-3.11943e-07
-3.10647e-07
-3.11388e-07
-3.13016e-07
-3.15952e-07
-3.12336e-07
-3.11808e-07
-3.36696e-07
-3.36513e-07
-3.37403e-07
-3.39228e-07
-3.39916e-07
-3.39877e-07
-3.39293e-07
-3.35199e-07
-3.36155e-07
-3.37413e-07
-3.4014e-07
-3.44406e-07
-3.44406e-07
-3.44406e-07
-3.44406e-07
-3.35017e-07
-3.37794e-07
-3.3922e-07
-3.44405e-07
-3.44406e-07
-3.44406e-07
-3.44406e-07
-3.44406e-07
-3.44405e-07
-3.33575e-07
-3.34868e-07
-3.36702e-07
-3.39898e-07
-3.44406e-07
-3.44406e-07
-3.44406e-07
-3.44406e-07
-3.44406e-07
-3.44406e-07
-3.34335e-07
-3.36476e-07
-3.36512e-07
-3.39869e-07
-3.44406e-07
-3.44406e-07
-3.44407e-07
-3.44407e-07
-3.44407e-07
-3.44407e-07
-3.35006e-07
-3.39438e-07
-3.39288e-07
-3.44406e-07
-3.44406e-07
-3.44407e-07
-3.44407e-07
-3.44407e-07
-3.44407e-07
-3.33846e-07
-3.35793e-07
-3.35181e-07
-3.35022e-07
-3.44406e-07
-3.44406e-07
-3.44406e-07
-3.44407e-07
-3.32255e-07
-3.35365e-07
-3.35267e-07
-3.35982e-07
-3.37788e-07
-3.3353e-07
-3.343e-07
-3.34956e-07
-3.33859e-07
-3.35397e-07
-3.34101e-07
-3.3484e-07
-3.36468e-07
-3.39405e-07
-3.35779e-07
-3.3526e-07
-3.60155e-07
-3.59969e-07
-3.60875e-07
-3.62689e-07
-3.63375e-07
-3.63334e-07
-3.62744e-07
-3.58642e-07
-3.59608e-07
-3.60883e-07
-3.63605e-07
-3.6787e-07
-3.67862e-07
-3.67863e-07
-3.67863e-07
-3.58481e-07
-3.61251e-07
-3.62679e-07
-3.67862e-07
-3.67864e-07
-3.67863e-07
-3.67863e-07
-3.67863e-07
-3.67862e-07
-3.57031e-07
-3.58323e-07
-3.60158e-07
-3.63353e-07
-3.67862e-07
-3.67863e-07
-3.67863e-07
-3.67863e-07
-3.67863e-07
-3.67862e-07
-3.5779e-07
-3.59931e-07
-3.59968e-07
-3.63324e-07
-3.67862e-07
-3.67862e-07
-3.67863e-07
-3.67863e-07
-3.67863e-07
-3.67863e-07
-3.58461e-07
-3.62893e-07
-3.62744e-07
-3.67862e-07
-3.67862e-07
-3.67863e-07
-3.67864e-07
-3.67863e-07
-3.67863e-07
-3.57302e-07
-3.59248e-07
-3.58637e-07
-3.58477e-07
-3.67862e-07
-3.67863e-07
-3.67864e-07
-3.67863e-07
-3.55711e-07
-3.5882e-07
-3.58723e-07
-3.59438e-07
-3.61243e-07
-3.56984e-07
-3.57755e-07
-3.58414e-07
-3.57318e-07
-3.58854e-07
-3.57557e-07
-3.5829e-07
-3.59918e-07
-3.62888e-07
-3.59231e-07
-3.58712e-07
-3.83604e-07
-3.83421e-07
-3.84436e-07
-3.86129e-07
-3.86825e-07
-3.86786e-07
-3.86196e-07
-3.82095e-07
-3.83065e-07
-3.84349e-07
-3.87064e-07
-3.91316e-07
-3.91317e-07
-3.91317e-07
-3.91316e-07
-3.81935e-07
-3.84705e-07
-3.86137e-07
-3.91316e-07
-3.91316e-07
-3.91316e-07
-3.91316e-07
-3.91316e-07
-3.91315e-07
-3.80485e-07
-3.81777e-07
-3.83614e-07
-3.86809e-07
-3.91316e-07
-3.91316e-07
-3.91316e-07
-3.91316e-07
-3.91316e-07
-3.91316e-07
-3.81244e-07
-3.83385e-07
-3.83423e-07
-3.86778e-07
-3.91316e-07
-3.91316e-07
-3.91316e-07
-3.91316e-07
-3.91316e-07
-3.91316e-07
-3.81914e-07
-3.86346e-07
-3.86198e-07
-3.91316e-07
-3.91316e-07
-3.91316e-07
-3.91316e-07
-3.91316e-07
-3.91316e-07
-3.80755e-07
-3.82701e-07
-3.8209e-07
-3.81931e-07
-3.91315e-07
-3.91315e-07
-3.91315e-07
-3.91315e-07
-3.79162e-07
-3.82272e-07
-3.82175e-07
-3.82891e-07
-3.84696e-07
-3.80439e-07
-3.81211e-07
-3.8187e-07
-3.8077e-07
-3.82301e-07
-3.8101e-07
-3.81749e-07
-3.83377e-07
-3.86316e-07
-3.82695e-07
-3.82178e-07
-4.07064e-07
-4.06877e-07
-4.07783e-07
-4.09591e-07
-4.10283e-07
-4.10243e-07
-4.0965e-07
-4.05553e-07
-4.06522e-07
-4.07795e-07
-4.10516e-07
-4.14771e-07
-4.14775e-07
-4.14772e-07
-4.14772e-07
-4.0539e-07
-4.0816e-07
-4.0959e-07
-4.14771e-07
-4.14771e-07
-4.14772e-07
-4.14772e-07
-4.14771e-07
-4.14771e-07
-4.03939e-07
-4.05232e-07
-4.07069e-07
-4.10264e-07
-4.14771e-07
-4.14771e-07
-4.14771e-07
-4.14771e-07
-4.14771e-07
-4.14771e-07
-4.04699e-07
-4.0684e-07
-4.06878e-07
-4.10233e-07
-4.14771e-07
-4.14771e-07
-4.14771e-07
-4.14771e-07
-4.14771e-07
-4.14771e-07
-4.0537e-07
-4.09802e-07
-4.09653e-07
-4.14771e-07
-4.14771e-07
-4.14772e-07
-4.14771e-07
-4.14771e-07
-4.14771e-07
-4.0421e-07
-4.06156e-07
-4.05545e-07
-4.05385e-07
-4.1477e-07
-4.14771e-07
-4.1477e-07
-4.1477e-07
-4.02616e-07
-4.05727e-07
-4.0563e-07
-4.06346e-07
-4.0815e-07
-4.03891e-07
-4.04662e-07
-4.0533e-07
-4.04226e-07
-4.05754e-07
-4.04464e-07
-4.05199e-07
-4.06825e-07
-4.09762e-07
-4.06144e-07
-4.05628e-07
-4.30519e-07
-4.30333e-07
-4.31233e-07
-4.33053e-07
-4.33741e-07
-4.33699e-07
-4.33104e-07
-4.29004e-07
-4.29974e-07
-4.31248e-07
-4.33967e-07
-4.38226e-07
-4.38226e-07
-4.38226e-07
-4.38226e-07
-4.28844e-07
-4.31613e-07
-4.33045e-07
-4.38225e-07
-4.38225e-07
-4.38225e-07
-4.38225e-07
-4.38225e-07
-4.38225e-07
-4.27394e-07
-4.28687e-07
-4.30524e-07
-4.33718e-07
-4.38225e-07
-4.38225e-07
-4.38226e-07
-4.38225e-07
-4.38225e-07
-4.38225e-07
-4.28154e-07
-4.30295e-07
-4.30333e-07
-4.33688e-07
-4.38225e-07
-4.38225e-07
-4.38226e-07
-4.38226e-07
-4.38225e-07
-4.38226e-07
-4.28825e-07
-4.33256e-07
-4.33108e-07
-4.38225e-07
-4.38225e-07
-4.38226e-07
-4.38226e-07
-4.38226e-07
-4.38226e-07
-4.27665e-07
-4.29612e-07
-4.29e-07
-4.2884e-07
-4.38224e-07
-4.38226e-07
-4.38225e-07
-4.38225e-07
-4.26073e-07
-4.29182e-07
-4.29086e-07
-4.29802e-07
-4.31606e-07
-4.27347e-07
-4.28119e-07
-4.28784e-07
-4.27685e-07
-4.29212e-07
-4.2792e-07
-4.28646e-07
-4.30271e-07
-4.33208e-07
-4.29595e-07
-4.29081e-07
-4.53972e-07
-4.53786e-07
-4.54686e-07
-4.5651e-07
-4.57195e-07
-4.57152e-07
-4.56557e-07
-4.52466e-07
-4.53429e-07
-4.54703e-07
-4.57422e-07
-4.61679e-07
-4.61679e-07
-4.61679e-07
-4.61679e-07
-4.52292e-07
-4.55067e-07
-4.56498e-07
-4.61679e-07
-4.61679e-07
-4.61679e-07
-4.61679e-07
-4.61679e-07
-4.61678e-07
-4.50848e-07
-4.5214e-07
-4.53978e-07
-4.57174e-07
-4.61679e-07
-4.61678e-07
-4.61678e-07
-4.61678e-07
-4.61678e-07
-4.61678e-07
-4.51607e-07
-4.53748e-07
-4.53786e-07
-4.57143e-07
-4.61678e-07
-4.61678e-07
-4.61678e-07
-4.61678e-07
-4.61678e-07
-4.61678e-07
-4.52278e-07
-4.56709e-07
-4.56561e-07
-4.61678e-07
-4.61678e-07
-4.61678e-07
-4.61678e-07
-4.61678e-07
-4.61678e-07
-4.51117e-07
-4.53064e-07
-4.52454e-07
-4.52295e-07
-4.61677e-07
-4.61677e-07
-4.61677e-07
-4.61678e-07
-4.49525e-07
-4.52636e-07
-4.52538e-07
-4.53254e-07
-4.5506e-07
-4.50803e-07
-4.51575e-07
-4.52242e-07
-4.51136e-07
-4.52663e-07
-4.51373e-07
-4.52112e-07
-4.53737e-07
-4.56666e-07
-4.53054e-07
-4.52538e-07
-4.77427e-07
-4.77243e-07
-4.78144e-07
-4.79966e-07
-4.8065e-07
-4.80614e-07
-4.80012e-07
-4.75915e-07
-4.76888e-07
-4.78157e-07
-4.80876e-07
-4.8513e-07
-4.85132e-07
-4.85132e-07
-4.85132e-07
-4.75745e-07
-4.78519e-07
-4.79951e-07
-4.8513e-07
-4.85131e-07
-4.85131e-07
-4.85132e-07
-4.85132e-07
-4.85132e-07
-4.743e-07
-4.75592e-07
-4.7743e-07
-4.80627e-07
-4.85131e-07
-4.85131e-07
-4.85131e-07
-4.85132e-07
-4.85132e-07
-4.85132e-07
-4.7506e-07
-4.77202e-07
-4.77239e-07
-4.80596e-07
-4.85131e-07
-4.85131e-07
-4.85131e-07
-4.85132e-07
-4.85132e-07
-4.85132e-07
-4.7573e-07
-4.80161e-07
-4.80014e-07
-4.85131e-07
-4.85131e-07
-4.85131e-07
-4.85131e-07
-4.85132e-07
-4.85132e-07
-4.7457e-07
-4.76517e-07
-4.75907e-07
-4.75748e-07
-4.85131e-07
-4.85131e-07
-4.85131e-07
-4.85131e-07
-4.72979e-07
-4.76089e-07
-4.75991e-07
-4.76707e-07
-4.78514e-07
-4.74258e-07
-4.7503e-07
-4.75697e-07
-4.74591e-07
-4.76117e-07
-4.74826e-07
-4.75567e-07
-4.77192e-07
-4.80129e-07
-4.76512e-07
-4.7599e-07
-5.00881e-07
-5.00696e-07
-5.01625e-07
-5.03417e-07
-5.04103e-07
-5.04067e-07
-5.03465e-07
-4.99373e-07
-5.00347e-07
-5.01614e-07
-5.0433e-07
-5.08586e-07
-5.08586e-07
-5.08586e-07
-5.08586e-07
-4.99198e-07
-5.01973e-07
-5.03405e-07
-5.08585e-07
-5.08585e-07
-5.08585e-07
-5.08586e-07
-5.08586e-07
-5.08585e-07
-4.97753e-07
-4.99046e-07
-5.00883e-07
-5.0408e-07
-5.08585e-07
-5.08585e-07
-5.08585e-07
-5.08585e-07
-5.08585e-07
-5.08585e-07
-4.98513e-07
-5.00655e-07
-5.00692e-07
-5.04049e-07
-5.08585e-07
-5.08585e-07
-5.08585e-07
-5.08585e-07
-5.08585e-07
-5.08585e-07
-4.99183e-07
-5.03615e-07
-5.03467e-07
-5.08585e-07
-5.08585e-07
-5.08585e-07
-5.08585e-07
-5.08585e-07
-5.08585e-07
-4.98023e-07
-4.9997e-07
-4.99361e-07
-4.99201e-07
-5.08585e-07
-5.08585e-07
-5.08585e-07
-5.08585e-07
-4.96432e-07
-4.99542e-07
-4.99444e-07
-5.00161e-07
-5.01967e-07
-4.97711e-07
-4.98484e-07
-4.99151e-07
-4.98045e-07
-4.99571e-07
-4.98279e-07
-4.99021e-07
-5.00646e-07
-5.03583e-07
-4.99966e-07
-4.99443e-07
-5.24333e-07
-5.24148e-07
-5.25051e-07
-5.26872e-07
-5.27556e-07
-5.27518e-07
-5.26918e-07
-5.22827e-07
-5.23801e-07
-5.25064e-07
-5.27783e-07
-5.3204e-07
-5.3204e-07
-5.3204e-07
-5.3204e-07
-5.22653e-07
-5.25427e-07
-5.26859e-07
-5.3204e-07
-5.3204e-07
-5.3204e-07
-5.3204e-07
-5.3204e-07
-5.3204e-07
-5.21208e-07
-5.225e-07
-5.24338e-07
-5.27534e-07
-5.3204e-07
-5.3204e-07
-5.3204e-07
-5.3204e-07
-5.3204e-07
-5.3204e-07
-5.21968e-07
-5.2411e-07
-5.24147e-07
-5.27503e-07
-5.3204e-07
-5.3204e-07
-5.3204e-07
-5.3204e-07
-5.3204e-07
-5.3204e-07
-5.22638e-07
-5.27069e-07
-5.26922e-07
-5.3204e-07
-5.3204e-07
-5.3204e-07
-5.3204e-07
-5.3204e-07
-5.3204e-07
-5.21478e-07
-5.23424e-07
-5.22815e-07
-5.22656e-07
-5.32039e-07
-5.32039e-07
-5.32039e-07
-5.32039e-07
-5.19886e-07
-5.22997e-07
-5.22899e-07
-5.23615e-07
-5.25422e-07
-5.21166e-07
-5.21938e-07
-5.22605e-07
-5.21499e-07
-5.23025e-07
-5.21733e-07
-5.22475e-07
-5.24101e-07
-5.27037e-07
-5.2342e-07
-5.22897e-07
-5.47787e-07
-5.47602e-07
-5.48507e-07
-5.50326e-07
-5.51011e-07
-5.50972e-07
-5.50373e-07
-5.46273e-07
-5.47255e-07
-5.48518e-07
-5.51237e-07
-5.55495e-07
-5.55494e-07
-5.55494e-07
-5.55494e-07
-5.46108e-07
-5.48883e-07
-5.50313e-07
-5.55494e-07
-5.55494e-07
-5.55494e-07
-5.55494e-07
-5.55494e-07
-5.55494e-07
-5.44663e-07
-5.45955e-07
-5.47793e-07
-5.50989e-07
-5.55494e-07
-5.55494e-07
-5.55494e-07
-5.55494e-07
-5.55494e-07
-5.55494e-07
-5.45422e-07
-5.47564e-07
-5.47601e-07
-5.50957e-07
-5.55494e-07
-5.55494e-07
-5.55494e-07
-5.55494e-07
-5.55494e-07
-5.55494e-07
-5.46092e-07
-5.50524e-07
-5.50377e-07
-5.55494e-07
-5.55494e-07
-5.55494e-07
-5.55494e-07
-5.55494e-07
-5.55494e-07
-5.44932e-07
-5.46879e-07
-5.4627e-07
-5.4611e-07
-5.55494e-07
-5.55494e-07
-5.55494e-07
-5.55494e-07
-5.4334e-07
-5.46451e-07
-5.46353e-07
-5.4707e-07
-5.48876e-07
-5.4462e-07
-5.45392e-07
-5.46059e-07
-5.44953e-07
-5.46479e-07
-5.45188e-07
-5.4593e-07
-5.47555e-07
-5.50492e-07
-5.46875e-07
-5.46352e-07
-5.71239e-07
-5.71054e-07
-5.71959e-07
-5.73772e-07
-5.74464e-07
-5.74424e-07
-5.73827e-07
-5.69769e-07
-5.70735e-07
-5.71972e-07
-5.74695e-07
-5.78948e-07
-5.7895e-07
-5.78949e-07
-5.78948e-07
-5.6956e-07
-5.72341e-07
-5.73768e-07
-5.78948e-07
-5.78948e-07
-5.78949e-07
-5.78948e-07
-5.78948e-07
-5.78947e-07
-5.68116e-07
-5.69408e-07
-5.71247e-07
-5.74443e-07
-5.78948e-07
-5.78948e-07
-5.78948e-07
-5.78948e-07
-5.78948e-07
-5.78948e-07
-5.68875e-07
-5.71018e-07
-5.71056e-07
-5.74412e-07
-5.78948e-07
-5.78948e-07
-5.78948e-07
-5.78948e-07
-5.78948e-07
-5.78948e-07
-5.69546e-07
-5.73978e-07
-5.73831e-07
-5.78948e-07
-5.78948e-07
-5.78948e-07
-5.78948e-07
-5.78948e-07
-5.78948e-07
-5.68386e-07
-5.70333e-07
-5.69724e-07
-5.69564e-07
-5.78948e-07
-5.78948e-07
-5.78948e-07
-5.78948e-07
-5.66794e-07
-5.69905e-07
-5.69807e-07
-5.70524e-07
-5.7233e-07
-5.68074e-07
-5.68846e-07
-5.69513e-07
-5.68407e-07
-5.69933e-07
-5.68641e-07
-5.69384e-07
-5.71009e-07
-5.73946e-07
-5.70328e-07
-5.69806e-07
-5.94695e-07
-5.9451e-07
-5.95414e-07
-5.97232e-07
-5.97896e-07
-5.9788e-07
-5.97281e-07
-5.93187e-07
-5.94173e-07
-5.95451e-07
-5.98152e-07
-6.02403e-07
-6.02404e-07
-6.02404e-07
-6.02404e-07
-5.93017e-07
-5.95792e-07
-5.9722e-07
-6.02403e-07
-6.02403e-07
-6.02403e-07
-6.02403e-07
-6.02403e-07
-6.02403e-07
-5.91571e-07
-5.92863e-07
-5.94694e-07
-5.97897e-07
-6.02403e-07
-6.02403e-07
-6.02403e-07
-6.02403e-07
-6.02403e-07
-6.02403e-07
-5.9233e-07
-5.94473e-07
-5.94508e-07
-5.97867e-07
-6.02403e-07
-6.02403e-07
-6.02403e-07
-6.02403e-07
-6.02403e-07
-6.02403e-07
-5.93e-07
-5.97432e-07
-5.97285e-07
-6.02403e-07
-6.02403e-07
-6.02403e-07
-6.02403e-07
-6.02403e-07
-6.02403e-07
-5.9184e-07
-5.93787e-07
-5.93178e-07
-5.93018e-07
-6.02403e-07
-6.02403e-07
-6.02403e-07
-6.02403e-07
-5.90248e-07
-5.93359e-07
-5.93261e-07
-5.93979e-07
-5.95784e-07
-5.91528e-07
-5.923e-07
-5.92967e-07
-5.91861e-07
-5.93387e-07
-5.92095e-07
-5.92838e-07
-5.94463e-07
-5.974e-07
-5.93783e-07
-5.9326e-07
-6.18149e-07
-6.17964e-07
-6.18874e-07
-6.20686e-07
-6.21351e-07
-6.21335e-07
-6.20736e-07
-6.1664e-07
-6.17625e-07
-6.18884e-07
-6.21605e-07
-6.25859e-07
-6.25859e-07
-6.25858e-07
-6.25858e-07
-6.1647e-07
-6.19247e-07
-6.20679e-07
-6.25859e-07
-6.25858e-07
-6.25858e-07
-6.25858e-07
-6.25858e-07
-6.25858e-07
-6.15026e-07
-6.16316e-07
-6.18158e-07
-6.21354e-07
-6.25858e-07
-6.25858e-07
-6.25858e-07
-6.25858e-07
-6.25858e-07
-6.25858e-07
-6.15784e-07
-6.17927e-07
-6.17967e-07
-6.21324e-07
-6.25859e-07
-6.25858e-07
-6.25858e-07
-6.25858e-07
-6.25858e-07
-6.25858e-07
-6.16454e-07
-6.20886e-07
-6.20742e-07
-6.25859e-07
-6.25858e-07
-6.25858e-07
-6.25858e-07
-6.25858e-07
-6.25857e-07
-6.15294e-07
-6.17241e-07
-6.16634e-07
-6.16474e-07
-6.25858e-07
-6.25858e-07
-6.25858e-07
-6.25857e-07
-6.13702e-07
-6.16814e-07
-6.16716e-07
-6.17435e-07
-6.1924e-07
-6.14983e-07
-6.15755e-07
-6.16422e-07
-6.15316e-07
-6.16842e-07
-6.1555e-07
-6.16293e-07
-6.17919e-07
-6.20855e-07
-6.17238e-07
-6.16715e-07
-6.41601e-07
-6.41417e-07
-6.42344e-07
-6.44141e-07
-6.44804e-07
-6.44789e-07
-6.44192e-07
-6.4009e-07
-6.41077e-07
-6.4234e-07
-6.4506e-07
-6.49322e-07
-6.49313e-07
-6.49313e-07
-6.49312e-07
-6.39924e-07
-6.42701e-07
-6.44133e-07
-6.49312e-07
-6.4931e-07
-6.49311e-07
-6.49312e-07
-6.49312e-07
-6.49312e-07
-6.3848e-07
-6.39771e-07
-6.41623e-07
-6.44814e-07
-6.49312e-07
-6.49312e-07
-6.49312e-07
-6.49312e-07
-6.49312e-07
-6.49312e-07
-6.39238e-07
-6.41381e-07
-6.4143e-07
-6.44784e-07
-6.49313e-07
-6.49312e-07
-6.49312e-07
-6.49312e-07
-6.49312e-07
-6.49312e-07
-6.39908e-07
-6.4434e-07
-6.44198e-07
-6.49313e-07
-6.49313e-07
-6.49312e-07
-6.49312e-07
-6.49312e-07
-6.49312e-07
-6.38748e-07
-6.40695e-07
-6.4009e-07
-6.39928e-07
-6.49312e-07
-6.49312e-07
-6.49312e-07
-6.49312e-07
-6.37156e-07
-6.40268e-07
-6.4017e-07
-6.40892e-07
-6.42695e-07
-6.38437e-07
-6.39209e-07
-6.39877e-07
-6.3877e-07
-6.40296e-07
-6.39004e-07
-6.39748e-07
-6.41373e-07
-6.4431e-07
-6.40692e-07
-6.40169e-07
-6.65058e-07
-6.64875e-07
-6.65806e-07
-6.676e-07
-6.68262e-07
-6.68246e-07
-6.6765e-07
-6.6353e-07
-6.64517e-07
-6.65797e-07
-6.68519e-07
-6.72777e-07
-6.72772e-07
-6.72772e-07
-6.72768e-07
-6.63376e-07
-6.66153e-07
-6.6759e-07
-6.72769e-07
-6.72768e-07
-6.72768e-07
-6.72768e-07
-6.72767e-07
-6.72766e-07
-6.61933e-07
-6.63223e-07
-6.6507e-07
-6.68265e-07
-6.72769e-07
-6.72768e-07
-6.72768e-07
-6.72767e-07
-6.72767e-07
-6.72766e-07
-6.62691e-07
-6.64835e-07
-6.64878e-07
-6.68234e-07
-6.72768e-07
-6.72768e-07
-6.72767e-07
-6.72767e-07
-6.72767e-07
-6.72766e-07
-6.63363e-07
-6.67795e-07
-6.67651e-07
-6.72768e-07
-6.72767e-07
-6.72767e-07
-6.72767e-07
-6.72766e-07
-6.72766e-07
-6.62202e-07
-6.64149e-07
-6.63544e-07
-6.63383e-07
-6.72767e-07
-6.72767e-07
-6.72767e-07
-6.72766e-07
-6.6061e-07
-6.63722e-07
-6.63624e-07
-6.64345e-07
-6.66149e-07
-6.61892e-07
-6.62663e-07
-6.63331e-07
-6.62224e-07
-6.6375e-07
-6.62458e-07
-6.63202e-07
-6.64827e-07
-6.67764e-07
-6.64146e-07
-6.63623e-07
-6.88515e-07
-6.88332e-07
-6.89266e-07
-6.91063e-07
-6.91721e-07
-6.91705e-07
-6.91107e-07
-6.86989e-07
-6.87976e-07
-6.89251e-07
-6.91973e-07
-6.96227e-07
-6.96223e-07
-6.96222e-07
-6.96221e-07
-6.86833e-07
-6.89609e-07
-6.91043e-07
-6.96222e-07
-6.96221e-07
-6.96222e-07
-6.96221e-07
-6.96221e-07
-6.9622e-07
-6.85379e-07
-6.86665e-07
-6.88521e-07
-6.91718e-07
-6.96221e-07
-6.96221e-07
-6.96221e-07
-6.96221e-07
-6.9622e-07