/*--------------------------------*- C++ -*----------------------------------*\
| =========                 |                                                 |
| \\      /  F ield         | OpenFOAM: The Open Source CFD Toolbox           |
|  \\    /   O peration     | Version:  v1906                                 |
|   \\  /    A nd           | Web:      www.OpenFOAM.com                      |
|    \\/     M anipulation  |                                                 |
\*---------------------------------------------------------------------------*/
FoamFile
{
    version     2.0;
    format      ascii;
    class       volScalarField;
    location    "0.205";
    object      p;
}
// * * * * * * * * * * * * * * * * * * * * * * * * * * * * * * * * * * * * * //

dimensions      [0 2 -2 0 0 0 0];


internalField   nonuniform List<scalar> 
247104
(
-3.94248e-11
1.12059e-10
1.84074e-10
6.69347e-11
-9.7857e-11
1.0073e-10
1.78838e-10
3.41769e-11
1.19775e-10
1.69979e-10
2.14776e-10
2.26639e-11
-1.02652e-10
5.0143e-11
2.2473e-10
1.39748e-10
2.17723e-10
2.32484e-10
-7.50803e-11
-4.58954e-10
-6.13132e-10
-4.19886e-10
-2.7701e-11
2.44981e-10
2.06112e-10
1.16985e-10
5.92824e-11
-4.39183e-10
-9.27963e-10
-1.10513e-09
-8.81559e-10
-3.71851e-10
9.5047e-11
8.80337e-11
-4.36828e-11
-3.59611e-11
-4.83275e-11
-5.73837e-10
-1.08488e-09
-1.26738e-09
-1.03684e-09
-5.028e-10
-1.20709e-11
-8.24227e-11
1.76999e-10
1.19862e-10
-3.63609e-10
-8.4321e-10
-1.01813e-09
-7.97442e-10
-2.97928e-10
1.53816e-10
1.51737e-10
2.65688e-10
3.05229e-10
4.08634e-11
-3.19702e-10
-4.69075e-10
-2.82203e-10
8.39239e-11
3.12239e-10
2.53146e-10
1.23258e-10
2.24806e-10
3.19962e-10
1.55466e-10
3.19702e-11
1.81432e-10
3.24797e-10
1.87923e-10
2.81261e-10
1.50734e-10
-3.26084e-11
1.88076e-10
2.75174e-10
-3.38489e-08
-3.59263e-08
-3.60649e-08
-3.72145e-08
-3.73394e-08
-3.74157e-08
-3.74112e-08
-3.59942e-08
-3.56295e-08
-3.60632e-08
-3.8125e-08
-4.10676e-08
-4.11633e-08
-4.11637e-08
-4.10669e-08
-3.77205e-08
-3.75151e-08
-3.72094e-08
-4.10652e-08
-4.11367e-08
-4.10943e-08
-4.10943e-08
-4.11364e-08
-4.10637e-08
-3.72848e-08
-3.63663e-08
-3.38358e-08
-3.73337e-08
-4.11585e-08
-4.10913e-08
-4.09847e-08
-4.09846e-08
-4.10911e-08
-4.11572e-08
-3.74057e-08
-3.57477e-08
-3.58989e-08
-3.74046e-08
-4.11555e-08
-4.10883e-08
-4.09815e-08
-4.09814e-08
-4.1088e-08
-4.11541e-08
-3.72534e-08
-3.74736e-08
-3.73945e-08
-4.10571e-08
-4.11279e-08
-4.1085e-08
-4.10849e-08
-4.11273e-08
-4.10559e-08
-3.74125e-08
-3.65403e-08
-3.5975e-08
-3.77062e-08
-4.10536e-08
-4.11486e-08
-4.11493e-08
-4.10534e-08
-3.75853e-08
-3.72938e-08
-3.58988e-08
-3.56056e-08
-3.74981e-08
-3.72664e-08
-3.73904e-08
-3.72429e-08
-3.74068e-08
-3.72918e-08
-3.50657e-08
-3.63399e-08
-3.57317e-08
-3.74615e-08
-3.6533e-08
-3.5891e-08
-5.39557e-08
-5.41582e-08
-5.43128e-08
-5.64953e-08
-5.65563e-08
-5.65631e-08
-5.65116e-08
-5.42363e-08
-5.406e-08
-5.42975e-08
-5.71955e-08
-6.02092e-08
-6.03759e-08
-6.03766e-08
-6.02107e-08
-5.64785e-08
-5.60281e-08
-5.64922e-08
-6.02195e-08
-6.06211e-08
-6.06211e-08
-6.06207e-08
-6.06196e-08
-6.02098e-08
-5.5673e-08
-5.36935e-08
-5.39495e-08
-5.65533e-08
-6.03768e-08
-6.06217e-08
-6.06029e-08
-6.06022e-08
-6.06194e-08
-6.03719e-08
-5.56472e-08
-5.40268e-08
-5.41517e-08
-5.65581e-08
-6.0376e-08
-6.06209e-08
-6.06019e-08
-6.0601e-08
-6.06177e-08
-6.0371e-08
-5.57209e-08
-5.60142e-08
-5.65068e-08
-6.02127e-08
-6.06184e-08
-6.06182e-08
-6.06173e-08
-6.06151e-08
-6.02063e-08
-5.56111e-08
-5.3658e-08
-5.42306e-08
-5.64744e-08
-6.02085e-08
-6.03701e-08
-6.0371e-08
-6.02041e-08
-5.59792e-08
-5.58071e-08
-5.37463e-08
-5.40524e-08
-5.60222e-08
-5.56679e-08
-5.5644e-08
-5.57184e-08
-5.56089e-08
-5.58069e-08
-5.37325e-08
-5.36889e-08
-5.40198e-08
-5.60108e-08
-5.36505e-08
-5.3748e-08
-7.34319e-08
-7.36067e-08
-7.37094e-08
-7.5995e-08
-7.60431e-08
-7.61474e-08
-7.59509e-08
-7.36696e-08
-7.34652e-08
-7.37095e-08
-7.68554e-08
-7.97733e-08
-7.98332e-08
-7.98339e-08
-7.97744e-08
-7.60574e-08
-7.53709e-08
-7.59906e-08
-7.9771e-08
-7.99424e-08
-7.99471e-08
-7.99473e-08
-7.99422e-08
-7.97718e-08
-7.50935e-08
-7.31509e-08
-7.34261e-08
-7.60387e-08
-7.98315e-08
-7.99472e-08
-7.99461e-08
-7.9946e-08
-7.99463e-08
-7.98303e-08
-7.49916e-08
-7.35173e-08
-7.3602e-08
-7.6143e-08
-7.9832e-08
-7.99466e-08
-7.99455e-08
-7.99453e-08
-7.99455e-08
-7.98308e-08
-7.50331e-08
-7.53673e-08
-7.59488e-08
-7.97728e-08
-7.99406e-08
-7.99452e-08
-7.99454e-08
-7.99402e-08
-7.97704e-08
-7.50092e-08
-7.31537e-08
-7.36664e-08
-7.60567e-08
-7.97694e-08
-7.98281e-08
-7.9829e-08
-7.97676e-08
-7.5219e-08
-7.51767e-08
-7.31639e-08
-7.34648e-08
-7.53695e-08
-7.509e-08
-7.49885e-08
-7.50299e-08
-7.50065e-08
-7.51766e-08
-7.31809e-08
-7.31466e-08
-7.35128e-08
-7.53567e-08
-7.31481e-08
-7.31622e-08
-9.28948e-08
-9.30635e-08
-9.32385e-08
-9.55277e-08
-9.55877e-08
-9.57406e-08
-9.54901e-08
-9.31851e-08
-9.29906e-08
-9.32412e-08
-9.64366e-08
-9.93424e-08
-9.93615e-08
-9.93618e-08
-9.93441e-08
-9.56644e-08
-9.48639e-08
-9.55282e-08
-9.93433e-08
-9.93914e-08
-9.93942e-08
-9.93945e-08
-9.93923e-08
-9.93432e-08
-9.4569e-08
-9.26303e-08
-9.28892e-08
-9.55872e-08
-9.93607e-08
-9.93936e-08
-9.9394e-08
-9.93941e-08
-9.93938e-08
-9.93614e-08
-9.44054e-08
-9.29404e-08
-9.30628e-08
-9.57392e-08
-9.93603e-08
-9.93932e-08
-9.93935e-08
-9.93936e-08
-9.93934e-08
-9.93607e-08
-9.44277e-08
-9.47823e-08
-9.54869e-08
-9.93414e-08
-9.93902e-08
-9.93926e-08
-9.93928e-08
-9.93905e-08
-9.93421e-08
-9.44619e-08
-9.25862e-08
-9.31776e-08
-9.56573e-08
-9.93397e-08
-9.93592e-08
-9.93596e-08
-9.93415e-08
-9.46133e-08
-9.46382e-08
-9.26553e-08
-9.29777e-08
-9.48566e-08
-9.4564e-08
-9.44025e-08
-9.44264e-08
-9.44614e-08
-9.46418e-08
-9.27073e-08
-9.26248e-08
-9.29359e-08
-9.47785e-08
-9.25822e-08
-9.26537e-08
-1.12413e-07
-1.12579e-07
-1.12774e-07
-1.15069e-07
-1.1513e-07
-1.15292e-07
-1.15034e-07
-1.12715e-07
-1.12515e-07
-1.12778e-07
-1.15983e-07
-1.18892e-07
-1.18897e-07
-1.18897e-07
-1.18892e-07
-1.1523e-07
-1.14413e-07
-1.15071e-07
-1.18891e-07
-1.18904e-07
-1.18904e-07
-1.18904e-07
-1.18903e-07
-1.1889e-07
-1.14094e-07
-1.12156e-07
-1.12407e-07
-1.1513e-07
-1.18896e-07
-1.18904e-07
-1.18903e-07
-1.18903e-07
-1.18903e-07
-1.18896e-07
-1.13912e-07
-1.1244e-07
-1.12577e-07
-1.15292e-07
-1.18896e-07
-1.18903e-07
-1.18903e-07
-1.18903e-07
-1.18903e-07
-1.18895e-07
-1.13922e-07
-1.14283e-07
-1.15032e-07
-1.1889e-07
-1.18903e-07
-1.18903e-07
-1.18903e-07
-1.18903e-07
-1.18891e-07
-1.13981e-07
-1.1209e-07
-1.12712e-07
-1.15231e-07
-1.1889e-07
-1.18896e-07
-1.18896e-07
-1.18891e-07
-1.14107e-07
-1.14155e-07
-1.12185e-07
-1.12512e-07
-1.14411e-07
-1.14093e-07
-1.13912e-07
-1.13923e-07
-1.1398e-07
-1.14162e-07
-1.12227e-07
-1.12153e-07
-1.12436e-07
-1.14282e-07
-1.12089e-07
-1.12184e-07
-1.31941e-07
-1.32105e-07
-1.32303e-07
-1.346e-07
-1.34663e-07
-1.34826e-07
-1.34567e-07
-1.32247e-07
-1.32042e-07
-1.32303e-07
-1.35513e-07
-1.38421e-07
-1.38423e-07
-1.38423e-07
-1.38422e-07
-1.3477e-07
-1.33946e-07
-1.34602e-07
-1.38421e-07
-1.38424e-07
-1.38424e-07
-1.38424e-07
-1.38425e-07
-1.38421e-07
-1.33625e-07
-1.31685e-07
-1.31936e-07
-1.34662e-07
-1.38422e-07
-1.38424e-07
-1.38424e-07
-1.38424e-07
-1.38425e-07
-1.38423e-07
-1.33435e-07
-1.31963e-07
-1.32105e-07
-1.34825e-07
-1.38422e-07
-1.38424e-07
-1.38424e-07
-1.38424e-07
-1.38425e-07
-1.38423e-07
-1.33442e-07
-1.33805e-07
-1.34567e-07
-1.38422e-07
-1.38424e-07
-1.38424e-07
-1.38424e-07
-1.38424e-07
-1.38421e-07
-1.33509e-07
-1.31615e-07
-1.32246e-07
-1.3477e-07
-1.38421e-07
-1.38422e-07
-1.38423e-07
-1.38422e-07
-1.33621e-07
-1.33677e-07
-1.31715e-07
-1.32033e-07
-1.33939e-07
-1.33621e-07
-1.33436e-07
-1.33442e-07
-1.3351e-07
-1.33686e-07
-1.31758e-07
-1.31685e-07
-1.3196e-07
-1.33805e-07
-1.31617e-07
-1.31716e-07
-1.51453e-07
-1.51617e-07
-1.51816e-07
-1.54114e-07
-1.54179e-07
-1.54341e-07
-1.54083e-07
-1.51761e-07
-1.51557e-07
-1.51816e-07
-1.55028e-07
-1.57943e-07
-1.57945e-07
-1.57944e-07
-1.57944e-07
-1.54288e-07
-1.53461e-07
-1.54117e-07
-1.57944e-07
-1.57946e-07
-1.57946e-07
-1.57946e-07
-1.57946e-07
-1.57944e-07
-1.53143e-07
-1.512e-07
-1.51448e-07
-1.54179e-07
-1.57945e-07
-1.57946e-07
-1.57946e-07
-1.57946e-07
-1.57946e-07
-1.57945e-07
-1.5295e-07
-1.51477e-07
-1.51617e-07
-1.54343e-07
-1.57945e-07
-1.57946e-07
-1.57946e-07
-1.57946e-07
-1.57946e-07
-1.57945e-07
-1.52956e-07
-1.53318e-07
-1.54085e-07
-1.57944e-07
-1.57946e-07
-1.57946e-07
-1.57946e-07
-1.57946e-07
-1.57944e-07
-1.53024e-07
-1.51128e-07
-1.51762e-07
-1.5429e-07
-1.57944e-07
-1.57945e-07
-1.57945e-07
-1.57944e-07
-1.53139e-07
-1.53193e-07
-1.51228e-07
-1.51548e-07
-1.53454e-07
-1.5314e-07
-1.5295e-07
-1.52958e-07
-1.53025e-07
-1.53201e-07
-1.51272e-07
-1.51197e-07
-1.51474e-07
-1.53318e-07
-1.51129e-07
-1.51228e-07
-1.70987e-07
-1.71152e-07
-1.71352e-07
-1.73654e-07
-1.73718e-07
-1.73882e-07
-1.73623e-07
-1.71297e-07
-1.71092e-07
-1.71352e-07
-1.74568e-07
-1.77489e-07
-1.77489e-07
-1.77489e-07
-1.77489e-07
-1.73831e-07
-1.73e-07
-1.73657e-07
-1.77489e-07
-1.77489e-07
-1.77489e-07
-1.77489e-07
-1.77489e-07
-1.77489e-07
-1.72681e-07
-1.70735e-07
-1.70982e-07
-1.73719e-07
-1.77489e-07
-1.77489e-07
-1.7749e-07
-1.7749e-07
-1.7749e-07
-1.77489e-07
-1.7249e-07
-1.71012e-07
-1.71152e-07
-1.73883e-07
-1.77489e-07
-1.77489e-07
-1.7749e-07
-1.7749e-07
-1.7749e-07
-1.77489e-07
-1.72497e-07
-1.72857e-07
-1.73624e-07
-1.77489e-07
-1.77489e-07
-1.7749e-07
-1.7749e-07
-1.77489e-07
-1.77489e-07
-1.72564e-07
-1.70663e-07
-1.71297e-07
-1.73831e-07
-1.77488e-07
-1.77489e-07
-1.77489e-07
-1.77489e-07
-1.72677e-07
-1.72731e-07
-1.70763e-07
-1.71083e-07
-1.72994e-07
-1.72682e-07
-1.72491e-07
-1.72498e-07
-1.72566e-07
-1.72739e-07
-1.70808e-07
-1.70733e-07
-1.71011e-07
-1.72857e-07
-1.70665e-07
-1.70763e-07
-1.90552e-07
-1.90717e-07
-1.90916e-07
-1.93217e-07
-1.93279e-07
-1.93443e-07
-1.93185e-07
-1.9086e-07
-1.90656e-07
-1.90916e-07
-1.94129e-07
-1.97044e-07
-1.97043e-07
-1.97043e-07
-1.97044e-07
-1.93392e-07
-1.92562e-07
-1.9322e-07
-1.97043e-07
-1.97044e-07
-1.97043e-07
-1.97043e-07
-1.97043e-07
-1.97044e-07
-1.92241e-07
-1.90299e-07
-1.90547e-07
-1.93281e-07
-1.97044e-07
-1.97043e-07
-1.97042e-07
-1.97042e-07
-1.97043e-07
-1.97044e-07
-1.9205e-07
-1.90575e-07
-1.90717e-07
-1.93445e-07
-1.97043e-07
-1.97043e-07
-1.97042e-07
-1.97042e-07
-1.97043e-07
-1.97044e-07
-1.92056e-07
-1.9242e-07
-1.93186e-07
-1.97044e-07
-1.97043e-07
-1.97043e-07
-1.97043e-07
-1.97043e-07
-1.97044e-07
-1.92124e-07
-1.90227e-07
-1.90861e-07
-1.93391e-07
-1.97044e-07
-1.97043e-07
-1.97044e-07
-1.97044e-07
-1.92236e-07
-1.92292e-07
-1.90328e-07
-1.90647e-07
-1.92556e-07
-1.92241e-07
-1.9205e-07
-1.92057e-07
-1.92126e-07
-1.92301e-07
-1.90372e-07
-1.90297e-07
-1.90574e-07
-1.92419e-07
-1.90228e-07
-1.90328e-07
-2.10093e-07
-2.10256e-07
-2.10454e-07
-2.12754e-07
-2.12816e-07
-2.1298e-07
-2.12721e-07
-2.10398e-07
-2.10195e-07
-2.10453e-07
-2.13664e-07
-2.16577e-07
-2.16576e-07
-2.16577e-07
-2.16576e-07
-2.12927e-07
-2.12098e-07
-2.12757e-07
-2.16577e-07
-2.16576e-07
-2.16576e-07
-2.16576e-07
-2.16576e-07
-2.16577e-07
-2.11777e-07
-2.09838e-07
-2.10087e-07
-2.12817e-07
-2.16576e-07
-2.16576e-07
-2.16576e-07
-2.16576e-07
-2.16576e-07
-2.16577e-07
-2.11586e-07
-2.10114e-07
-2.10257e-07
-2.12981e-07
-2.16577e-07
-2.16576e-07
-2.16576e-07
-2.16576e-07
-2.16576e-07
-2.16577e-07
-2.11592e-07
-2.11956e-07
-2.12722e-07
-2.16577e-07
-2.16576e-07
-2.16576e-07
-2.16576e-07
-2.16576e-07
-2.16577e-07
-2.1166e-07
-2.09766e-07
-2.104e-07
-2.12926e-07
-2.16577e-07
-2.16577e-07
-2.16577e-07
-2.16577e-07
-2.11771e-07
-2.11828e-07
-2.09868e-07
-2.10187e-07
-2.12093e-07
-2.11777e-07
-2.11586e-07
-2.11593e-07
-2.11661e-07
-2.11837e-07
-2.0991e-07
-2.09837e-07
-2.10113e-07
-2.11956e-07
-2.09767e-07
-2.09868e-07
-2.29612e-07
-2.29776e-07
-2.29976e-07
-2.32276e-07
-2.32338e-07
-2.32503e-07
-2.32244e-07
-2.29917e-07
-2.29715e-07
-2.29972e-07
-2.33191e-07
-2.36103e-07
-2.36103e-07
-2.36103e-07
-2.36103e-07
-2.32449e-07
-2.3162e-07
-2.32278e-07
-2.36103e-07
-2.36103e-07
-2.36103e-07
-2.36103e-07
-2.36103e-07
-2.36103e-07
-2.313e-07
-2.29358e-07
-2.29607e-07
-2.32339e-07
-2.36103e-07
-2.36103e-07
-2.36103e-07
-2.36103e-07
-2.36103e-07
-2.36103e-07
-2.31109e-07
-2.29635e-07
-2.29776e-07
-2.32504e-07
-2.36103e-07
-2.36103e-07
-2.36103e-07
-2.36103e-07
-2.36103e-07
-2.36103e-07
-2.31116e-07
-2.31478e-07
-2.32245e-07
-2.36103e-07
-2.36103e-07
-2.36103e-07
-2.36103e-07
-2.36103e-07
-2.36103e-07
-2.31183e-07
-2.29287e-07
-2.29921e-07
-2.32451e-07
-2.36103e-07
-2.36103e-07
-2.36103e-07
-2.36103e-07
-2.31295e-07
-2.31351e-07
-2.29387e-07
-2.29708e-07
-2.31615e-07
-2.313e-07
-2.31109e-07
-2.31116e-07
-2.31184e-07
-2.31359e-07
-2.29431e-07
-2.29357e-07
-2.29633e-07
-2.31477e-07
-2.29288e-07
-2.29387e-07
-2.49149e-07
-2.49312e-07
-2.49516e-07
-2.51812e-07
-2.51873e-07
-2.52037e-07
-2.51777e-07
-2.49453e-07
-2.49252e-07
-2.49512e-07
-2.52724e-07
-2.55634e-07
-2.55634e-07
-2.55634e-07
-2.55634e-07
-2.51981e-07
-2.51155e-07
-2.51813e-07
-2.55634e-07
-2.55633e-07
-2.55633e-07
-2.55633e-07
-2.55633e-07
-2.55634e-07
-2.50834e-07
-2.48894e-07
-2.49143e-07
-2.51874e-07
-2.55634e-07
-2.55633e-07
-2.55633e-07
-2.55633e-07
-2.55633e-07
-2.55633e-07
-2.50642e-07
-2.4917e-07
-2.49312e-07
-2.52038e-07
-2.55634e-07
-2.55633e-07
-2.55633e-07
-2.55633e-07
-2.55633e-07
-2.55633e-07
-2.50649e-07
-2.51013e-07
-2.51779e-07
-2.55634e-07
-2.55633e-07
-2.55633e-07
-2.55633e-07
-2.55633e-07
-2.55634e-07
-2.50716e-07
-2.48822e-07
-2.49456e-07
-2.51984e-07
-2.55634e-07
-2.55633e-07
-2.55633e-07
-2.55634e-07
-2.50827e-07
-2.50885e-07
-2.48923e-07
-2.49243e-07
-2.5115e-07
-2.50834e-07
-2.50643e-07
-2.5065e-07
-2.50718e-07
-2.50894e-07
-2.48966e-07
-2.48892e-07
-2.49169e-07
-2.51012e-07
-2.48823e-07
-2.48923e-07
-2.68667e-07
-2.6883e-07
-2.69033e-07
-2.71328e-07
-2.7139e-07
-2.71554e-07
-2.71294e-07
-2.68973e-07
-2.68771e-07
-2.69029e-07
-2.7224e-07
-2.75151e-07
-2.75151e-07
-2.75151e-07
-2.75151e-07
-2.71499e-07
-2.70672e-07
-2.71329e-07
-2.7515e-07
-2.75151e-07
-2.75152e-07
-2.75152e-07
-2.75152e-07
-2.75151e-07
-2.70351e-07
-2.68413e-07
-2.68661e-07
-2.7139e-07
-2.75151e-07
-2.75152e-07
-2.75152e-07
-2.75152e-07
-2.75152e-07
-2.75151e-07
-2.7016e-07
-2.68689e-07
-2.68831e-07
-2.71555e-07
-2.75151e-07
-2.75152e-07
-2.75152e-07
-2.75152e-07
-2.75152e-07
-2.75151e-07
-2.70166e-07
-2.7053e-07
-2.71296e-07
-2.75151e-07
-2.75152e-07
-2.75152e-07
-2.75152e-07
-2.75152e-07
-2.75151e-07
-2.70234e-07
-2.68341e-07
-2.68974e-07
-2.71501e-07
-2.75151e-07
-2.75151e-07
-2.75151e-07
-2.75151e-07
-2.70345e-07
-2.70402e-07
-2.68442e-07
-2.68761e-07
-2.70666e-07
-2.70351e-07
-2.7016e-07
-2.70167e-07
-2.70235e-07
-2.7041e-07
-2.68484e-07
-2.68411e-07
-2.68687e-07
-2.70529e-07
-2.68342e-07
-2.68442e-07
-2.8818e-07
-2.88344e-07
-2.88544e-07
-2.90847e-07
-2.9091e-07
-2.91074e-07
-2.90814e-07
-2.88489e-07
-2.88286e-07
-2.8854e-07
-2.91763e-07
-2.94682e-07
-2.94683e-07
-2.94683e-07
-2.94682e-07
-2.91023e-07
-2.90192e-07
-2.90849e-07
-2.94682e-07
-2.94683e-07
-2.94684e-07
-2.94684e-07
-2.94684e-07
-2.94682e-07
-2.89874e-07
-2.87928e-07
-2.88175e-07
-2.90911e-07
-2.94683e-07
-2.94684e-07
-2.94685e-07
-2.94685e-07
-2.94684e-07
-2.94683e-07
-2.89684e-07
-2.88204e-07
-2.88345e-07
-2.91076e-07
-2.94683e-07
-2.94684e-07
-2.94685e-07
-2.94685e-07
-2.94684e-07
-2.94683e-07
-2.8969e-07
-2.90049e-07
-2.90817e-07
-2.94682e-07
-2.94684e-07
-2.94684e-07
-2.94684e-07
-2.94684e-07
-2.94682e-07
-2.89757e-07
-2.87856e-07
-2.8849e-07
-2.91025e-07
-2.94683e-07
-2.94683e-07
-2.94683e-07
-2.94682e-07
-2.89871e-07
-2.89923e-07
-2.87956e-07
-2.88277e-07
-2.90187e-07
-2.89874e-07
-2.89684e-07
-2.89691e-07
-2.89758e-07
-2.89932e-07
-2.88001e-07
-2.87926e-07
-2.88203e-07
-2.90048e-07
-2.87856e-07
-2.87956e-07
-3.07746e-07
-3.0791e-07
-3.08111e-07
-3.10414e-07
-3.10476e-07
-3.1064e-07
-3.1038e-07
-3.08054e-07
-3.07851e-07
-3.08107e-07
-3.11329e-07
-3.14245e-07
-3.14244e-07
-3.14244e-07
-3.14245e-07
-3.10587e-07
-3.09758e-07
-3.10416e-07
-3.14245e-07
-3.14244e-07
-3.14244e-07
-3.14244e-07
-3.14244e-07
-3.14245e-07
-3.09439e-07
-3.07493e-07
-3.0774e-07
-3.10477e-07
-3.14244e-07
-3.14244e-07
-3.14243e-07
-3.14243e-07
-3.14244e-07
-3.14244e-07
-3.09248e-07
-3.0777e-07
-3.0791e-07
-3.10642e-07
-3.14244e-07
-3.14244e-07
-3.14243e-07
-3.14243e-07
-3.14244e-07
-3.14244e-07
-3.09254e-07
-3.09616e-07
-3.10383e-07
-3.14245e-07
-3.14244e-07
-3.14244e-07
-3.14244e-07
-3.14244e-07
-3.14245e-07
-3.09322e-07
-3.07421e-07
-3.08056e-07
-3.1059e-07
-3.14245e-07
-3.14244e-07
-3.14244e-07
-3.14245e-07
-3.09434e-07
-3.09489e-07
-3.07522e-07
-3.07842e-07
-3.09753e-07
-3.09439e-07
-3.09248e-07
-3.09256e-07
-3.09323e-07
-3.09498e-07
-3.07567e-07
-3.07492e-07
-3.07768e-07
-3.09616e-07
-3.07422e-07
-3.07522e-07
-3.27305e-07
-3.27469e-07
-3.27669e-07
-3.29967e-07
-3.30029e-07
-3.30193e-07
-3.29932e-07
-3.27612e-07
-3.2741e-07
-3.27666e-07
-3.30882e-07
-3.33788e-07
-3.33788e-07
-3.33788e-07
-3.33788e-07
-3.30137e-07
-3.29311e-07
-3.29969e-07
-3.33788e-07
-3.33788e-07
-3.33787e-07
-3.33787e-07
-3.33788e-07
-3.33788e-07
-3.2899e-07
-3.27052e-07
-3.273e-07
-3.3003e-07
-3.33788e-07
-3.33787e-07
-3.33787e-07
-3.33787e-07
-3.33787e-07
-3.33788e-07
-3.28798e-07
-3.27327e-07
-3.2747e-07
-3.30194e-07
-3.33788e-07
-3.33787e-07
-3.33787e-07
-3.33787e-07
-3.33787e-07
-3.33788e-07
-3.28804e-07
-3.2917e-07
-3.29935e-07
-3.33788e-07
-3.33788e-07
-3.33787e-07
-3.33787e-07
-3.33787e-07
-3.33788e-07
-3.28872e-07
-3.26979e-07
-3.27613e-07
-3.30139e-07
-3.33788e-07
-3.33788e-07
-3.33788e-07
-3.33788e-07
-3.28983e-07
-3.29041e-07
-3.27081e-07
-3.274e-07
-3.29306e-07
-3.28989e-07
-3.28798e-07
-3.28805e-07
-3.28872e-07
-3.29049e-07
-3.27123e-07
-3.27049e-07
-3.27325e-07
-3.29168e-07
-3.2698e-07
-3.27081e-07
-3.46824e-07
-3.46988e-07
-3.47189e-07
-3.49486e-07
-3.49548e-07
-3.49712e-07
-3.49452e-07
-3.47131e-07
-3.46929e-07
-3.47185e-07
-3.50402e-07
-3.53311e-07
-3.53311e-07
-3.53311e-07
-3.53311e-07
-3.49658e-07
-3.4883e-07
-3.49488e-07
-3.53311e-07
-3.53311e-07
-3.53311e-07
-3.53311e-07
-3.53311e-07
-3.53311e-07
-3.4851e-07
-3.4657e-07
-3.46818e-07
-3.49549e-07
-3.53311e-07
-3.53312e-07
-3.53312e-07
-3.53312e-07
-3.53312e-07
-3.53311e-07
-3.48319e-07
-3.46846e-07
-3.46988e-07
-3.49714e-07
-3.53311e-07
-3.53312e-07
-3.53312e-07
-3.53312e-07
-3.53311e-07
-3.53311e-07
-3.48325e-07
-3.48688e-07
-3.49455e-07
-3.53311e-07
-3.53311e-07
-3.53312e-07
-3.53312e-07
-3.53311e-07
-3.53311e-07
-3.48393e-07
-3.46497e-07
-3.47132e-07
-3.49661e-07
-3.53311e-07
-3.53312e-07
-3.53311e-07
-3.53311e-07
-3.48504e-07
-3.48561e-07
-3.46598e-07
-3.46919e-07
-3.48825e-07
-3.4851e-07
-3.48319e-07
-3.48326e-07
-3.48393e-07
-3.48569e-07
-3.46642e-07
-3.46568e-07
-3.46844e-07
-3.48687e-07
-3.46498e-07
-3.46598e-07
-3.66352e-07
-3.66516e-07
-3.66718e-07
-3.69015e-07
-3.69077e-07
-3.69241e-07
-3.68981e-07
-3.66659e-07
-3.66457e-07
-3.66714e-07
-3.69931e-07
-3.7284e-07
-3.7284e-07
-3.7284e-07
-3.7284e-07
-3.69186e-07
-3.6836e-07
-3.69017e-07
-3.7284e-07
-3.7284e-07
-3.7284e-07
-3.7284e-07
-3.7284e-07
-3.7284e-07
-3.68039e-07
-3.66098e-07
-3.66347e-07
-3.69078e-07
-3.7284e-07
-3.7284e-07
-3.7284e-07
-3.72839e-07
-3.7284e-07
-3.7284e-07
-3.67848e-07
-3.66374e-07
-3.66516e-07
-3.69243e-07
-3.7284e-07
-3.7284e-07
-3.7284e-07
-3.72839e-07
-3.7284e-07
-3.7284e-07
-3.67854e-07
-3.68217e-07
-3.68984e-07
-3.7284e-07
-3.7284e-07
-3.7284e-07
-3.7284e-07
-3.7284e-07
-3.7284e-07
-3.67922e-07
-3.66026e-07
-3.66661e-07
-3.69189e-07
-3.7284e-07
-3.7284e-07
-3.7284e-07
-3.7284e-07
-3.68034e-07
-3.6809e-07
-3.66127e-07
-3.66447e-07
-3.68354e-07
-3.68039e-07
-3.67848e-07
-3.67855e-07
-3.67922e-07
-3.68098e-07
-3.66171e-07
-3.66097e-07
-3.66373e-07
-3.68217e-07
-3.66028e-07
-3.66127e-07
-3.85876e-07
-3.8604e-07
-3.86242e-07
-3.88538e-07
-3.886e-07
-3.88764e-07
-3.88504e-07
-3.86182e-07
-3.85981e-07
-3.86237e-07
-3.89454e-07
-3.92363e-07
-3.92364e-07
-3.92364e-07
-3.92364e-07
-3.8871e-07
-3.87882e-07
-3.8854e-07
-3.92363e-07
-3.92364e-07
-3.92364e-07
-3.92364e-07
-3.92364e-07
-3.92364e-07
-3.87562e-07
-3.85622e-07
-3.85871e-07
-3.88601e-07
-3.92364e-07
-3.92364e-07
-3.92364e-07
-3.92364e-07
-3.92364e-07
-3.92364e-07
-3.87371e-07
-3.85898e-07
-3.8604e-07
-3.88766e-07
-3.92364e-07
-3.92364e-07
-3.92364e-07
-3.92364e-07
-3.92364e-07
-3.92364e-07
-3.87378e-07
-3.8774e-07
-3.88507e-07
-3.92364e-07
-3.92364e-07
-3.92364e-07
-3.92364e-07
-3.92364e-07
-3.92363e-07
-3.87445e-07
-3.8555e-07
-3.86184e-07
-3.88712e-07
-3.92364e-07
-3.92364e-07
-3.92364e-07
-3.92363e-07
-3.87557e-07
-3.87613e-07
-3.85651e-07
-3.85971e-07
-3.87877e-07
-3.87562e-07
-3.87371e-07
-3.87378e-07
-3.87445e-07
-3.87621e-07
-3.85694e-07
-3.8562e-07
-3.85897e-07
-3.8774e-07
-3.85551e-07
-3.85651e-07
-4.05401e-07
-4.05565e-07
-4.05768e-07
-4.08067e-07
-4.08129e-07
-4.08293e-07
-4.08033e-07
-4.05709e-07
-4.05506e-07
-4.05763e-07
-4.08983e-07
-4.11897e-07
-4.11897e-07
-4.11897e-07
-4.11897e-07
-4.08241e-07
-4.07411e-07
-4.08069e-07
-4.11897e-07
-4.11898e-07
-4.11898e-07
-4.11898e-07
-4.11898e-07
-4.11897e-07
-4.07092e-07
-4.05148e-07
-4.05396e-07
-4.0813e-07
-4.11897e-07
-4.11898e-07
-4.11898e-07
-4.11898e-07
-4.11898e-07
-4.11897e-07
-4.06901e-07
-4.05425e-07
-4.05566e-07
-4.08295e-07
-4.11897e-07
-4.11898e-07
-4.11898e-07
-4.11898e-07
-4.11898e-07
-4.11897e-07
-4.06908e-07
-4.07269e-07
-4.08036e-07
-4.11897e-07
-4.11898e-07
-4.11898e-07
-4.11898e-07
-4.11898e-07
-4.11897e-07
-4.06975e-07
-4.05076e-07
-4.05711e-07
-4.08243e-07
-4.11897e-07
-4.11897e-07
-4.11897e-07
-4.11897e-07
-4.07088e-07
-4.07142e-07
-4.05177e-07
-4.05497e-07
-4.07406e-07
-4.07092e-07
-4.06902e-07
-4.06908e-07
-4.06975e-07
-4.0715e-07
-4.05221e-07
-4.05146e-07
-4.05423e-07
-4.07268e-07
-4.05078e-07
-4.05176e-07
-4.24949e-07
-4.25113e-07
-4.25315e-07
-4.27614e-07
-4.27676e-07
-4.2784e-07
-4.2758e-07
-4.25255e-07
-4.25053e-07
-4.25311e-07
-4.2853e-07
-4.31441e-07
-4.31441e-07
-4.31441e-07
-4.31441e-07
-4.27786e-07
-4.26958e-07
-4.27616e-07
-4.31441e-07
-4.31441e-07
-4.31441e-07
-4.31441e-07
-4.31441e-07
-4.31441e-07
-4.26638e-07
-4.24696e-07
-4.24944e-07
-4.27677e-07
-4.31441e-07
-4.31441e-07
-4.31441e-07
-4.31441e-07
-4.31441e-07
-4.31441e-07
-4.26447e-07
-4.24972e-07
-4.25113e-07
-4.27841e-07
-4.31441e-07
-4.31441e-07
-4.31441e-07
-4.31441e-07
-4.31441e-07
-4.31441e-07
-4.26453e-07
-4.26816e-07
-4.27582e-07
-4.31441e-07
-4.31441e-07
-4.31441e-07
-4.31441e-07
-4.31441e-07
-4.31441e-07
-4.26521e-07
-4.24624e-07
-4.25258e-07
-4.27788e-07
-4.31441e-07
-4.31441e-07
-4.31441e-07
-4.31441e-07
-4.26633e-07
-4.26689e-07
-4.24725e-07
-4.25044e-07
-4.26953e-07
-4.26638e-07
-4.26447e-07
-4.26454e-07
-4.26521e-07
-4.26697e-07
-4.24769e-07
-4.24694e-07
-4.24971e-07
-4.26815e-07
-4.24626e-07
-4.24724e-07
-4.44488e-07
-4.44652e-07
-4.44854e-07
-4.47153e-07
-4.47215e-07
-4.47379e-07
-4.47119e-07
-4.44795e-07
-4.44593e-07
-4.4485e-07
-4.48069e-07
-4.50982e-07
-4.50982e-07
-4.50982e-07
-4.50982e-07
-4.47326e-07
-4.46497e-07
-4.47155e-07
-4.50982e-07
-4.50982e-07
-4.50982e-07
-4.50982e-07
-4.50982e-07
-4.50982e-07
-4.46178e-07
-4.44235e-07
-4.44483e-07
-4.47216e-07
-4.50982e-07
-4.50982e-07
-4.50982e-07
-4.50982e-07
-4.50982e-07
-4.50982e-07
-4.45987e-07
-4.44512e-07
-4.44652e-07
-4.47381e-07
-4.50982e-07
-4.50982e-07
-4.50982e-07
-4.50982e-07
-4.50982e-07
-4.50982e-07
-4.45993e-07
-4.46355e-07
-4.47122e-07
-4.50982e-07
-4.50982e-07
-4.50982e-07
-4.50982e-07
-4.50982e-07
-4.50982e-07
-4.4606e-07
-4.44163e-07
-4.44797e-07
-4.47328e-07
-4.50982e-07
-4.50982e-07
-4.50982e-07
-4.50982e-07
-4.46173e-07
-4.46228e-07
-4.44264e-07
-4.44584e-07
-4.46492e-07
-4.46178e-07
-4.45987e-07
-4.45994e-07
-4.46061e-07
-4.46236e-07
-4.44308e-07
-4.44233e-07
-4.4451e-07
-4.46354e-07
-4.44165e-07
-4.44263e-07
-4.64035e-07
-4.64199e-07
-4.64401e-07
-4.66701e-07
-4.66763e-07
-4.66926e-07
-4.66666e-07
-4.64341e-07
-4.6414e-07
-4.64397e-07
-4.67616e-07
-4.70528e-07
-4.70527e-07
-4.70527e-07
-4.70527e-07
-4.66873e-07
-4.66045e-07
-4.66703e-07
-4.70528e-07
-4.70527e-07
-4.70527e-07
-4.70527e-07
-4.70527e-07
-4.70527e-07
-4.65724e-07
-4.63782e-07
-4.6403e-07
-4.66764e-07
-4.70527e-07
-4.70527e-07
-4.70526e-07
-4.70526e-07
-4.70527e-07
-4.70527e-07
-4.65533e-07
-4.64059e-07
-4.642e-07
-4.66928e-07
-4.70527e-07
-4.70527e-07
-4.70526e-07
-4.70526e-07
-4.70527e-07
-4.70527e-07
-4.6554e-07
-4.65902e-07
-4.66669e-07
-4.70528e-07
-4.70527e-07
-4.70527e-07
-4.70527e-07
-4.70527e-07
-4.70527e-07
-4.65607e-07
-4.6371e-07
-4.64344e-07
-4.66875e-07
-4.70527e-07
-4.70527e-07
-4.70527e-07
-4.70527e-07
-4.65719e-07
-4.65775e-07
-4.63811e-07
-4.64131e-07
-4.66039e-07
-4.65724e-07
-4.65534e-07
-4.6554e-07
-4.65608e-07
-4.65783e-07
-4.63855e-07
-4.6378e-07
-4.64057e-07
-4.65902e-07
-4.63712e-07
-4.6381e-07
-4.83577e-07
-4.83741e-07
-4.83942e-07
-4.86239e-07
-4.863e-07
-4.86463e-07
-4.86204e-07
-4.83881e-07
-4.83681e-07
-4.83938e-07
-4.87153e-07
-4.90059e-07
-4.90059e-07
-4.90059e-07
-4.90059e-07
-4.86408e-07
-4.85583e-07
-4.86241e-07
-4.90059e-07
-4.90059e-07
-4.90058e-07
-4.90058e-07
-4.90058e-07
-4.90059e-07
-4.85261e-07
-4.83323e-07
-4.83572e-07
-4.86301e-07
-4.90059e-07
-4.90058e-07
-4.90058e-07
-4.90058e-07
-4.90058e-07
-4.90059e-07
-4.85069e-07
-4.83599e-07
-4.83741e-07
-4.86466e-07
-4.90059e-07
-4.90058e-07
-4.90058e-07
-4.90058e-07
-4.90058e-07
-4.90059e-07
-4.85076e-07
-4.85441e-07
-4.86207e-07
-4.90059e-07
-4.90058e-07
-4.90058e-07
-4.90058e-07
-4.90058e-07
-4.90059e-07
-4.85143e-07
-4.83251e-07
-4.83885e-07
-4.86411e-07
-4.90059e-07
-4.90059e-07
-4.90059e-07
-4.90059e-07
-4.85254e-07
-4.85313e-07
-4.83352e-07
-4.83672e-07
-4.85577e-07
-4.85261e-07
-4.8507e-07
-4.85076e-07
-4.85144e-07
-4.85321e-07
-4.83395e-07
-4.83321e-07
-4.83598e-07
-4.8544e-07
-4.83252e-07
-4.83352e-07
-5.03089e-07
-5.03253e-07
-5.03454e-07
-5.0575e-07
-5.05813e-07
-5.05976e-07
-5.05716e-07
-5.03393e-07
-5.03193e-07
-5.0345e-07
-5.06666e-07
-5.09574e-07
-5.09574e-07
-5.09574e-07
-5.09574e-07
-5.05922e-07
-5.05094e-07
-5.05751e-07
-5.09573e-07
-5.09574e-07
-5.09575e-07
-5.09575e-07
-5.09574e-07
-5.09574e-07
-5.04774e-07
-5.02835e-07
-5.03084e-07
-5.05813e-07
-5.09574e-07
-5.09575e-07
-5.09575e-07
-5.09575e-07
-5.09575e-07
-5.09574e-07
-5.04582e-07
-5.03111e-07
-5.03253e-07
-5.05978e-07
-5.09574e-07
-5.09575e-07
-5.09575e-07
-5.09575e-07
-5.09575e-07
-5.09574e-07
-5.04589e-07
-5.04952e-07
-5.05719e-07
-5.09574e-07
-5.09574e-07
-5.09575e-07
-5.09575e-07
-5.09574e-07
-5.09574e-07
-5.04656e-07
-5.02763e-07
-5.03397e-07
-5.05924e-07
-5.09574e-07
-5.09574e-07
-5.09574e-07
-5.09574e-07
-5.04768e-07
-5.04825e-07
-5.02864e-07
-5.03184e-07
-5.05089e-07
-5.04774e-07
-5.04583e-07
-5.04589e-07
-5.04657e-07
-5.04833e-07
-5.02907e-07
-5.02833e-07
-5.0311e-07
-5.04952e-07
-5.02764e-07
-5.02864e-07
-5.22604e-07
-5.22768e-07
-5.2297e-07
-5.2527e-07
-5.25334e-07
-5.25497e-07
-5.25236e-07
-5.2291e-07
-5.22709e-07
-5.22966e-07
-5.26187e-07
-5.29102e-07
-5.29102e-07
-5.29103e-07
-5.29102e-07
-5.25445e-07
-5.24615e-07
-5.25272e-07
-5.29102e-07
-5.29103e-07
-5.29103e-07
-5.29103e-07
-5.29103e-07
-5.29102e-07
-5.24295e-07
-5.22351e-07
-5.22599e-07
-5.25334e-07
-5.29102e-07
-5.29103e-07
-5.29104e-07
-5.29104e-07
-5.29103e-07
-5.29103e-07
-5.24105e-07
-5.22628e-07
-5.22768e-07
-5.25498e-07
-5.29102e-07
-5.29103e-07
-5.29104e-07
-5.29104e-07
-5.29103e-07
-5.29103e-07
-5.24112e-07
-5.24471e-07
-5.25239e-07
-5.29102e-07
-5.29103e-07
-5.29103e-07
-5.29103e-07
-5.29103e-07
-5.29102e-07
-5.24178e-07
-5.22279e-07
-5.22914e-07
-5.25447e-07
-5.29102e-07
-5.29102e-07
-5.29102e-07
-5.29102e-07
-5.24292e-07
-5.24346e-07
-5.22379e-07
-5.227e-07
-5.24609e-07
-5.24295e-07
-5.24105e-07
-5.24112e-07
-5.24179e-07
-5.24353e-07
-5.22424e-07
-5.22349e-07
-5.22626e-07
-5.24471e-07
-5.22281e-07
-5.22379e-07
-5.42158e-07
-5.42322e-07
-5.42523e-07
-5.44824e-07
-5.44887e-07
-5.4505e-07
-5.4479e-07
-5.42464e-07
-5.42262e-07
-5.42519e-07
-5.4574e-07
-5.48652e-07
-5.48652e-07
-5.48652e-07
-5.48653e-07
-5.44997e-07
-5.44168e-07
-5.44826e-07
-5.48653e-07
-5.48652e-07
-5.48652e-07
-5.48652e-07
-5.48652e-07
-5.48653e-07
-5.43848e-07
-5.41904e-07
-5.42152e-07
-5.44886e-07
-5.48652e-07
-5.48652e-07
-5.48652e-07
-5.48652e-07
-5.48652e-07
-5.48653e-07
-5.43657e-07
-5.42182e-07
-5.42322e-07
-5.45052e-07
-5.48652e-07
-5.48652e-07
-5.48652e-07
-5.48652e-07
-5.48652e-07
-5.48653e-07
-5.43664e-07
-5.44026e-07
-5.44793e-07
-5.48653e-07
-5.48652e-07
-5.48652e-07
-5.48652e-07
-5.48652e-07
-5.48653e-07
-5.43731e-07
-5.41833e-07
-5.42467e-07
-5.44999e-07
-5.48653e-07
-5.48653e-07
-5.48653e-07
-5.48653e-07
-5.43844e-07
-5.43899e-07
-5.41933e-07
-5.42253e-07
-5.44163e-07
-5.43848e-07
-5.43658e-07
-5.43664e-07
-5.43732e-07
-5.43907e-07
-5.41978e-07
-5.41903e-07
-5.4218e-07
-5.44025e-07
-5.41834e-07
-5.41933e-07
-5.61704e-07
-5.61868e-07
-5.62069e-07
-5.64366e-07
-5.64429e-07
-5.64592e-07
-5.64332e-07
-5.62008e-07
-5.61808e-07
-5.62065e-07
-5.65281e-07
-5.68191e-07
-5.6819e-07
-5.6819e-07
-5.6819e-07
-5.64538e-07
-5.63711e-07
-5.64368e-07
-5.6819e-07
-5.6819e-07
-5.6819e-07
-5.6819e-07
-5.6819e-07
-5.6819e-07
-5.63389e-07
-5.6145e-07
-5.61699e-07
-5.64429e-07
-5.6819e-07
-5.6819e-07
-5.6819e-07
-5.6819e-07
-5.6819e-07
-5.6819e-07
-5.63198e-07
-5.61727e-07
-5.61868e-07
-5.64594e-07
-5.6819e-07
-5.6819e-07
-5.6819e-07
-5.6819e-07
-5.6819e-07
-5.6819e-07
-5.63205e-07
-5.63569e-07
-5.64335e-07
-5.6819e-07
-5.6819e-07
-5.6819e-07
-5.6819e-07
-5.6819e-07
-5.6819e-07
-5.63272e-07
-5.61378e-07
-5.62012e-07
-5.6454e-07
-5.6819e-07
-5.6819e-07
-5.6819e-07
-5.6819e-07
-5.63384e-07
-5.63441e-07
-5.6148e-07
-5.61799e-07
-5.63705e-07
-5.6339e-07
-5.63199e-07
-5.63205e-07
-5.63273e-07
-5.63449e-07
-5.61522e-07
-5.61449e-07
-5.61725e-07
-5.63568e-07
-5.6138e-07
-5.6148e-07
-5.8123e-07
-5.81394e-07
-5.81595e-07
-5.83895e-07
-5.83959e-07
-5.84121e-07
-5.83861e-07
-5.81535e-07
-5.81334e-07
-5.81592e-07
-5.84811e-07
-5.87725e-07
-5.87725e-07
-5.87725e-07
-5.87725e-07
-5.84069e-07
-5.83239e-07
-5.83897e-07
-5.87725e-07
-5.87725e-07
-5.87725e-07
-5.87725e-07
-5.87725e-07
-5.87725e-07
-5.8292e-07
-5.80975e-07
-5.81224e-07
-5.83958e-07
-5.87725e-07
-5.87725e-07
-5.87726e-07
-5.87726e-07