/*--------------------------------*- C++ -*----------------------------------*\
| =========                 |                                                 |
| \\      /  F ield         | OpenFOAM: The Open Source CFD Toolbox           |
|  \\    /   O peration     | Version:  v1906                                 |
|   \\  /    A nd           | Web:      www.OpenFOAM.com                      |
|    \\/     M anipulation  |                                                 |
\*---------------------------------------------------------------------------*/
FoamFile
{
    version     2.0;
    format      ascii;
    class       surfaceScalarField;
    location    "200";
    object      phi;
}
// * * * * * * * * * * * * * * * * * * * * * * * * * * * * * * * * * * * * * //

dimensions      [0 3 -1 0 0 0 0];
oriented        oriented;


internalField   nonuniform List<scalar> 
124908
(
4.03634e-10
2.82515e-09
-0.00119159
-1.08369e-09
-1.03976e-09
0.00119158
-0.00114229
-1.24779e-06
-4.77636e-09
7.48571e-09
0.00114229
-2.72545e-07
1.25147e-06
2.7053e-07
9.09595e-07
-2.59804e-07
-9.07358e-07
2.57497e-07
-0.00114207
-1.24235e-06
-3.84268e-09
6.30224e-09
0.00114207
-2.72345e-07
1.24645e-06
2.71143e-07
9.09085e-07
-2.63316e-07
-9.08084e-07
2.59781e-07
-0.000271974
1.27649e-06
1.24239e-06
-2.38696e-07
-2.44094e-07
0.000269938
-7.73161e-12
4.50775e-09
-0.00119158
-2.41929e-09
-9.02202e-10
0.00119158
-0.00114227
-1.24793e-06
-2.99763e-09
7.53572e-09
0.00114227
-2.72658e-07
1.25137e-06
2.70482e-07
9.08936e-07
-2.60214e-07
-9.07793e-07
2.57062e-07
-0.00114206
-1.24184e-06
-3.15096e-09
4.11724e-09
0.00114206
-2.72045e-07
1.24689e-06
2.71317e-07
9.08717e-07
-2.63338e-07
-9.0841e-07
2.59578e-07
-0.000271974
1.27646e-06
1.24263e-06
-2.39021e-07
-2.44107e-07
0.000269938
2.57818e-09
3.48922e-09
-0.00119158
-3.01829e-09
-2.02901e-09
0.00119158
-0.00114226
-1.24766e-06
-2.07835e-09
6.85069e-09
0.00114226
-2.72414e-07
1.25179e-06
2.70803e-07
9.08581e-07
-2.60741e-07
-9.08152e-07
2.56495e-07
-0.00114206
-1.24192e-06
-4.63467e-09
4.12944e-09
0.00114205
-2.7203e-07
1.24685e-06
2.71368e-07
9.0906e-07
-2.63016e-07
-9.07918e-07
2.59982e-07
-0.000271973
1.27631e-06
1.24284e-06
-2.39267e-07
-2.43851e-07
0.000269937
5.16262e-09
1.97179e-09
-0.00119158
-2.42494e-09
-3.36666e-09
0.00119158
-0.00114224
-1.24706e-06
4.02973e-11
5.0832e-09
0.00114224
-2.71903e-07
1.25256e-06
2.71541e-07
9.07952e-07
-2.61483e-07
-9.09157e-07
2.55788e-07
-0.00114205
-1.24221e-06
-4.52263e-09
4.29269e-09
0.00114205
-2.72315e-07
1.24686e-06
2.71372e-07
9.08975e-07
-2.62978e-07
-9.07876e-07
2.59968e-07
-0.000271974
1.27581e-06
1.24265e-06
-2.39474e-07
-2.43342e-07
0.000269938
5.45103e-09
1.00349e-09
-0.00119158
-1.92838e-09
-3.11379e-09
0.00119158
-0.00114223
-1.24732e-06
-7.79996e-11
4.17376e-09
0.00114223
-2.71949e-07
1.25231e-06
2.71434e-07
9.07666e-07
-2.62471e-07
-9.09476e-07
2.54907e-07
-0.00114204
-1.24228e-06
-4.26331e-09
3.45535e-09
0.00114204
-2.72884e-07
1.24717e-06
2.70959e-07
9.08919e-07
-2.6333e-07
-9.08067e-07
2.59683e-07
-0.000271975
1.27679e-06
1.24356e-06
-2.40058e-07
-2.43972e-07
0.000269939
3.00572e-09
4.39865e-10
-0.00119159
-1.43228e-09
-2.28049e-09
0.00119159
-0.00114224
-1.24787e-06
-2.00263e-10
3.82044e-09
0.00114224
-2.728e-07
1.252e-06
2.70704e-07
9.07713e-07
-2.62086e-07
-9.09564e-07
2.55588e-07
-0.00114205
-1.24262e-06
-3.51372e-09
3.1425e-09
0.00114205
-2.72983e-07
1.24735e-06
2.71025e-07
9.08787e-07
-2.63719e-07
-9.08341e-07
2.59376e-07
-0.000271973
1.27696e-06
1.24353e-06
-2.39755e-07
-2.44333e-07
0.000269937
2.28061e-09
-7.31904e-11
-0.0011916
-1.20785e-09
-2.33585e-09
0.0011916
-0.00114225
-1.24815e-06
-2.08342e-12
3.27542e-09
0.00114225
-2.73059e-07
1.25186e-06
2.70675e-07
9.08087e-07
-2.61558e-07
-9.09263e-07
2.56084e-07
-0.00114206
-1.2429e-06
-9.68923e-10
2.09963e-09
0.00114206
-2.7315e-07
1.24718e-06
2.71015e-07
9.08516e-07
-2.64106e-07
-9.08837e-07
2.59031e-07
-0.000271969
1.27781e-06
1.24326e-06
-2.39508e-07
-2.44846e-07
0.000269933
3.0769e-09
-2.83544e-10
-0.00119161
-1.11811e-09
-2.97811e-09
0.00119161
-0.00114225
-1.24796e-06
-1.33985e-10
1.80203e-09
0.00114225
-2.72687e-07
1.25271e-06
2.70954e-07
9.08098e-07
-2.61474e-07
-9.09083e-07
2.56086e-07
-0.00114206
-1.24299e-06
9.76402e-10
2.01535e-09
0.00114206
-2.72917e-07
1.24713e-06
2.71527e-07
9.07878e-07
-2.64587e-07
-9.093e-07
2.58594e-07
-0.000271965
1.27795e-06
1.24268e-06
-2.38767e-07
-2.45316e-07
0.000269929
3.94979e-09
9.12697e-10
-0.00119162
-1.48605e-09
-3.77284e-09
0.00119162
-0.00114226
-1.24803e-06
-9.70463e-10
1.62315e-09
0.00114226
-2.73009e-07
1.25254e-06
2.70856e-07
9.08364e-07
-2.61563e-07
-9.0884e-07
2.56075e-07
-0.00114206
-1.24273e-06
1.6913e-09
3.3461e-09
0.00114206
-2.72544e-07
1.24745e-06
2.71633e-07
9.0759e-07
-2.64509e-07
-9.09389e-07
2.58651e-07
-0.000271963
1.27802e-06
1.2424e-06
-2.38826e-07
-2.45688e-07
0.000269927
4.59873e-09
3.22297e-09
-0.00119164
-2.82797e-09
-4.25401e-09
0.00119163
-0.00114227
-1.24826e-06
-2.82939e-09
1.37519e-09
0.00114227
-2.72803e-07
1.25269e-06
2.7087e-07
9.08003e-07
-2.6135e-07
-9.09176e-07
2.56193e-07
-0.00114205
-1.24258e-06
2.46793e-09
4.66343e-09
0.00114205
-2.72785e-07
1.24751e-06
2.71264e-07
9.07597e-07
-2.64432e-07
-9.09318e-07
2.58629e-07
-0.000271963
1.27825e-06
1.24222e-06
-2.38795e-07
-2.45824e-07
0.000269927
6.31658e-09
4.58078e-09
-0.00119165
-3.32276e-09
-5.19822e-09
0.00119164
-0.00114228
-1.24804e-06
-4.66565e-09
1.66737e-09
0.00114228
-2.72666e-07
1.2526e-06
2.71089e-07
9.08423e-07
-2.60953e-07
-9.08657e-07
2.56501e-07
-0.00114203
-1.24257e-06
2.2388e-09
4.90492e-09
0.00114203
-2.72758e-07
1.24735e-06
2.71123e-07
9.07717e-07
-2.64555e-07
-9.0942e-07
2.58286e-07
-0.000271964
1.27823e-06
1.24236e-06
-2.3899e-07
-2.45776e-07
0.000269928
7.85238e-09
5.22889e-09
-0.00119165
-3.2015e-09
-6.05382e-09
0.00119165
-0.00114228
-1.24787e-06
-5.42112e-09
8.38573e-10
0.00114229
-2.72363e-07
1.25317e-06
2.71256e-07
9.08461e-07
-2.60832e-07
-9.08373e-07
2.56422e-07
-0.00114202
-1.24266e-06
1.38577e-09
4.89136e-09
0.00114202
-2.72607e-07
1.24689e-06
2.71174e-07
9.07488e-07
-2.64575e-07
-9.09132e-07
2.58216e-07
-0.000271964
1.27815e-06
1.24197e-06
-2.38472e-07
-2.45725e-07
0.000269928
9.09521e-09
7.86468e-09
-0.00119166
-4.33045e-09
-6.76387e-09
0.00119165
-0.00114229
-1.24742e-06
-6.79461e-09
5.63631e-10
0.00114229
-2.72251e-07
1.25312e-06
2.71262e-07
9.08366e-07
-2.60862e-07
-9.08155e-07
2.55979e-07
-0.001142
-1.24239e-06
1.14694e-10
4.30188e-09
0.001142
-2.72241e-07
1.24678e-06
2.71187e-07
9.07519e-07
-2.64272e-07
-9.08833e-07
2.5798e-07
-0.000271963
1.27788e-06
1.24226e-06
-2.38535e-07
-2.45419e-07
0.000269927
9.04737e-09
1.00206e-08
-0.00119166
-5.85871e-09
-6.26749e-09
0.00119165
-0.0011423
-1.24751e-06
-7.96064e-09
7.74728e-10
0.0011423
-2.72417e-07
1.25276e-06
2.70793e-07
9.07849e-07
-2.60177e-07
-9.07823e-07
2.55676e-07
-0.001142
-1.2419e-06
-2.80972e-09
3.06746e-09
0.001142
-2.71827e-07
1.24685e-06
2.7119e-07
9.06876e-07
-2.63528e-07
-9.08454e-07
2.57817e-07
-0.000271961
1.27739e-06
1.24252e-06
-2.38732e-07
-2.4493e-07
0.000269925
7.51887e-09
1.22417e-08
-0.00119166
-7.5142e-09
-5.84702e-09
0.00119165
-0.0011423
-1.24746e-06
-8.87994e-09
1.15877e-09
0.00114231
-2.71804e-07
1.2519e-06
2.70573e-07
9.06803e-07
-2.59515e-07
-9.07282e-07
2.54415e-07
-0.00114199
-1.24134e-06
-6.01447e-09
2.39619e-09
0.00114199
-2.71464e-07
1.24648e-06
2.70567e-07
9.06315e-07
-2.62776e-07
-9.07439e-07
2.56486e-07
-0.000271958
1.27641e-06
1.24259e-06
-2.38779e-07
-2.43783e-07
0.000269922
8.36397e-09
1.60136e-08
-0.00119166
-1.12264e-08
-7.00713e-09
0.00119165
-0.00114231
-1.24619e-06
-9.23707e-09
1.56673e-10
0.00114233
-2.70589e-07
1.25109e-06
2.69603e-07
9.03965e-07
-2.58184e-07
-9.06218e-07
2.51353e-07
-0.00114199
-1.24018e-06
-9.82434e-09
5.59122e-10
0.001142
-2.70276e-07
1.24586e-06
2.69839e-07
9.04053e-07
-2.60565e-07
-9.05986e-07
2.54446e-07
-0.000271956
1.27515e-06
1.24265e-06
-2.38618e-07
-2.42228e-07
0.000269919
1.33653e-08
1.92441e-08
-0.00119166
-1.62507e-08
-1.22383e-08
0.00119166
-0.00114232
-1.24368e-06
-9.03015e-09
7.08172e-10
0.00114234
-2.6803e-07
1.2487e-06
2.6715e-07
8.99339e-07
-2.54084e-07
-9.034e-07
2.4575e-07
-0.00114199
-1.23804e-06
-1.36788e-08
8.72537e-10
0.00114201
-2.67843e-07
1.24343e-06
2.672e-07
9.00138e-07
-2.55722e-07
-9.0242e-07
2.49442e-07
-0.000271955
1.27286e-06
1.24085e-06
-2.35917e-07
-2.39289e-07
0.000269916
1.95264e-08
2.36157e-08
-0.00119166
-2.34992e-08
-2.05406e-08
0.00119166
-0.00114233
-1.23836e-06
-1.39759e-08
5.9e-09
0.00114235
-2.62025e-07
1.24219e-06
2.59255e-07
8.90636e-07
-2.42953e-07
-8.9616e-07
2.33269e-07
-0.001142
-1.23322e-06
-1.80849e-08
7.48453e-09
0.00114202
-2.62692e-07
1.23654e-06
2.58482e-07
8.91324e-07
-2.44911e-07
-8.94976e-07
2.36696e-07
-0.000271957
1.26829e-06
1.23618e-06
-2.29034e-07
-2.32842e-07
0.000269914
4.13386e-08
4.44783e-08
-0.00119167
-4.01887e-08
-4.26019e-08
0.00119167
-0.00114233
-1.22636e-06
-3.17512e-08
7.41703e-09
0.00114238
-2.44936e-07
1.22866e-06
2.41982e-07
8.76241e-07
-2.18452e-07
-8.80905e-07
2.06281e-07
-0.00114202
-1.21869e-06
-4.0828e-08
1.64964e-08
0.00114206
-2.45455e-07
1.22008e-06
2.38669e-07
8.74343e-07
-2.17657e-07
-8.77277e-07
2.09871e-07
-0.000271966
1.2589e-06
1.22333e-06
-2.08768e-07
-2.13124e-07
0.000269905
9.79214e-07
9.88204e-07
-0.00119159
-8.67379e-07
-8.54343e-07
0.00119134
-0.00114265
-1.11896e-06
-9.77787e-07
-3.83923e-07
0.00114315
-1.28278e-07
1.37865e-06
2.92205e-07
9.93775e-07
-7.8059e-08
-7.49517e-07
2.75849e-07
-0.00114235
-1.11128e-06
-9.93677e-07
-3.92469e-07
0.00114286
-1.28476e-07
1.37246e-06
2.94803e-07
9.91902e-07
-8.2759e-08
-7.45801e-07
2.79762e-07
-0.000272057
1.15286e-06
1.11228e-06
-9.87694e-08
-9.98421e-08
0.000269991
5.51155e-06
5.50478e-06
-0.00117827
-1.1691e-05
-1.15807e-05
0.000286457
0.000289486
0.000288841
0.000288841
4.49276e-06
6.77792e-06
7.17199e-06
4.49715e-06
6.77926e-06
7.17605e-06
-0.000283213
5.4075e-06
-5.50114e-06
6.02341e-06
-3.41765e-06
0.000280701
-0.000283197
-5.5046e-06
5.41272e-06
-3.42558e-06
6.02145e-06
0.000280693
-0.000273016
-5.40561e-06
-5.41551e-06
5.75749e-06
5.74718e-06
0.000272333
-1.28574e-06
-1.2484e-06
0.000271965
-0.000269919
2.3978e-07
2.48496e-07
0.00114149
-3.59418e-10
-0.00114149
5.77583e-09
-1.28242e-06
2.76202e-07
-2.78124e-07
-9.08346e-07
2.56061e-07
-2.61437e-07
9.0893e-07
1.29157e-06
0.00114192
1.55244e-09
-0.00114192
6.73703e-09
-1.28747e-06
2.78953e-07
-2.80952e-07
-9.13822e-07
2.59015e-07
-2.64042e-07
9.14533e-07
-1.25103e-06
0.000271993
-0.000269939
2.4286e-07
2.46007e-07
0.00114258
-1.17518e-09
-0.00114258
6.18273e-09
-1.24587e-06
2.73285e-07
-2.75924e-07
-9.1096e-07
2.59382e-07
-2.63813e-07
9.11847e-07
1.28584e-06
0.00114161
1.12707e-09
-0.00114162
7.03171e-09
-1.28257e-06
2.78987e-07
-2.81049e-07
-9.11169e-07
2.58819e-07
-2.64226e-07
9.11412e-07
-4.39204e-09
-0.00114229
9.0073e-09
-1.24849e-06
2.70136e-07
-2.732e-07
-9.07341e-07
2.57343e-07
9.0958e-07
-2.60099e-07
1.28046e-06
0.00114149
-4.87412e-09
-0.00114149
5.98032e-09
-1.27685e-06
2.73334e-07
-2.75299e-07
-9.07773e-07
2.56968e-07
-2.60512e-07
9.09529e-07
-1.24566e-06
0.000271957
-0.000269914
2.40261e-07
2.48055e-07
-3.31309e-09
-0.00114208
8.73752e-09
-1.24334e-06
2.70356e-07
-2.73172e-07
-9.07934e-07
2.59367e-07
9.09205e-07
-2.6371e-07
1.24624e-06
0.00114264
-3.62022e-09
-0.00114264
5.49785e-09
-1.24267e-06
2.70794e-07
-2.72649e-07
-9.07683e-07
2.59451e-07
-2.63719e-07
9.10113e-07
-0.000269939
2.43006e-07
2.48294e-07
1.2816e-06
1.24531e-06
-2.36712e-07
-2.43701e-07
0.000269918
-1.28644e-06
-1.24852e-06
0.000271964
-0.000269918
2.39743e-07
2.48899e-07
4.02683e-09
0.00114149
-2.77443e-07
1.28643e-06
2.76694e-07
9.08316e-07
-2.61099e-07
-9.08403e-07
2.56127e-07
-1.2869e-06
1.14339e-09
5.94553e-09
0.00114191
-2.80441e-07
1.29191e-06
2.79201e-07
9.14099e-07
-2.63589e-07
-9.13644e-07
2.59181e-07
0.00114148
7.6827e-10
-0.00114148
4.23019e-09
-1.28165e-06
2.76505e-07
-2.77728e-07
-9.0896e-07
2.55886e-07
-2.61489e-07
9.08105e-07
1.29125e-06
0.00114189
1.24899e-09
-0.0011419
8.72864e-09
-1.28757e-06
2.78585e-07
-2.81161e-07
-9.13986e-07
2.5916e-07
-2.63713e-07
9.14026e-07
-2.3893e-07
-2.40663e-07
0.000269938
-1.25096e-06
0.000271988
-0.000269934
2.42757e-07
2.45649e-07
5.17547e-09
0.00114258
-2.75396e-07
1.24877e-06
2.73569e-07
9.11699e-07
-2.6317e-07
-9.10624e-07
2.59728e-07
-1.28201e-06
-2.45927e-10
5.7076e-09
0.00114161
-2.80594e-07
1.28622e-06
2.79253e-07
9.11306e-07
-2.63566e-07
-9.10884e-07
2.59232e-07
0.00114258
-3.83463e-09
-0.00114258
7.42009e-09
-1.24565e-06
2.73221e-07
-2.75847e-07
-9.10716e-07
2.59798e-07
-2.6313e-07
9.11736e-07
1.28598e-06
0.0011416
-2.70533e-09
-0.0011416
7.18529e-09
-1.28223e-06
2.78738e-07
-2.81166e-07
-9.1062e-07
2.59533e-07
-2.63276e-07
9.11715e-07
-4.72255e-09
4.8177e-09
0.00114149
-2.74886e-07
1.28105e-06
2.73732e-07
9.09241e-07
-2.60171e-07
2.57016e-07
-9.07587e-07
-2.54819e-09
-0.00114228
8.66886e-09
-1.24826e-06
2.70128e-07
-2.72942e-07
-9.07584e-07
2.57009e-07
9.09111e-07
-2.60166e-07
1.28074e-06
0.00114148
-3.25643e-09
-0.00114148
5.70487e-09
-1.27656e-06
2.73427e-07
-2.75216e-07
-9.08107e-07
2.5667e-07
-2.60612e-07
9.0907e-07
-2.36377e-07
-2.44018e-07
0.000269913
-1.24655e-06
0.000271955
-0.000269912
2.40842e-07
2.48193e-07
-4.05948e-09
4.56811e-09
0.00114264
-2.72444e-07
1.24673e-06
2.71104e-07
9.09577e-07
-2.632e-07
2.5972e-07
-9.07772e-07
-2.18884e-09
-0.00114207
5.59959e-09
-1.24214e-06
2.70991e-07
-2.72439e-07
-9.08221e-07
2.59411e-07
9.08863e-07
-2.63535e-07
1.24621e-06
0.00114263
-3.63501e-09
-0.00114264
6.66149e-09
-1.24275e-06
2.70387e-07
-2.73033e-07
-9.07912e-07
2.59623e-07
-2.63381e-07
9.09633e-07
-0.000269938
2.42932e-07
2.48506e-07
1.28122e-06
1.24529e-06
-2.36782e-07
-2.43619e-07
0.000269918
-1.28615e-06
-1.24898e-06
0.000271965
-0.000269919
2.40294e-07
2.48483e-07
2.56976e-09
0.00114148
-2.77394e-07
1.28674e-06
2.76715e-07
9.07843e-07
-2.6137e-07
-9.08906e-07
2.55919e-07
-1.28735e-06
8.62243e-10
8.12511e-09
0.00114189
-2.80962e-07
1.29141e-06
2.78666e-07
9.13922e-07
-2.63649e-07
-9.13962e-07
2.59136e-07
0.00114148
-5.24414e-10
-0.00114148
4.27436e-09
-1.28188e-06
2.7618e-07
-2.78029e-07
-9.08721e-07
2.56235e-07
-2.61191e-07
9.083e-07
1.29073e-06
0.00114187
1.21249e-09
-0.00114187
9.79945e-09
-1.28805e-06
2.77973e-07
-2.81785e-07
-9.13937e-07
2.59173e-07
-2.6371e-07
9.14246e-07
-2.3913e-07
-2.412e-07
0.000269933
-1.25127e-06
0.000271984
-0.00026993
2.43062e-07
2.45033e-07
6.12336e-09
0.00114258
-2.75641e-07
1.24893e-06
2.73409e-07
9.11528e-07
-2.63091e-07
-9.10772e-07
2.59773e-07
-1.28191e-06
-3.31465e-09
5.90038e-09
0.0011416
-2.80815e-07
1.2864e-06
2.79113e-07
9.11397e-07
-2.63156e-07
-9.10632e-07
2.59607e-07
0.00114257
-2.98554e-09
-0.00114257
6.60459e-09
-1.24528e-06
2.73447e-07
-2.75687e-07
-9.10745e-07
2.59536e-07
-2.63398e-07
9.11658e-07
1.28646e-06
0.00114159
-1.8526e-09
-0.00114159
6.66528e-09
-1.282e-06
2.79142e-07
-2.80941e-07
-9.11101e-07
2.59191e-07
-2.63571e-07
9.11353e-07
-3.63443e-09
4.54736e-09
0.00114148
-2.74984e-07
1.28105e-06
2.73792e-07
9.08681e-07
-2.60617e-07
2.56618e-07
-9.08235e-07
-1.38067e-09
-0.00114226
8.41037e-09
-1.24801e-06
2.70348e-07
-2.72811e-07
-9.07959e-07
2.56489e-07
9.08675e-07
-2.60719e-07
1.28101e-06
0.00114148
-2.8072e-09
-0.00114148
4.77648e-09
-1.27648e-06
2.73804e-07
-2.74898e-07
-9.08331e-07
2.5636e-07
-2.60936e-07
9.08682e-07
-2.36063e-07
-2.43978e-07
0.000269911
-1.24653e-06
0.000271954
-0.000269911
2.40646e-07
2.48694e-07
-4.14426e-09
5.79715e-09
0.00114263
-2.72935e-07
1.24659e-06
2.70712e-07
9.0936e-07
-2.63185e-07
2.59905e-07
-9.07947e-07
-3.48968e-09
-0.00114206
5.24799e-09
-1.2423e-06
2.71e-07
-2.72571e-07
-9.07848e-07
2.59705e-07
9.09044e-07
-2.63251e-07
1.24631e-06
0.00114263
-4.14077e-09
-0.00114263
7.44141e-09
-1.2429e-06
2.70291e-07
-2.73336e-07
-9.07922e-07
2.6016e-07
-2.62921e-07
9.09636e-07
-0.000269938
2.42907e-07
2.49012e-07
1.28167e-06
1.24488e-06
-2.36326e-07
-2.44146e-07
0.000269919
-1.28587e-06
-1.24964e-06
0.000271966
-0.00026992
2.40968e-07
2.47978e-07
3.22981e-09
0.00114148
-2.77843e-07
1.28638e-06
2.76415e-07
9.08346e-07
-2.60935e-07
-9.08469e-07
2.56435e-07
-1.28798e-06
-1.54637e-10
8.61493e-09
0.00114186
-2.81684e-07
1.29087e-06
2.78146e-07
9.14004e-07
-2.63566e-07
-9.13874e-07
2.59273e-07
0.00114148
-3.70184e-09
-0.00114148
5.52418e-09
-1.28234e-06
2.75698e-07
-2.78465e-07
-9.08041e-07
2.56827e-07
-2.60591e-07
9.08949e-07
1.29035e-06
0.00114185
-1.90799e-09
-0.00114186
1.03261e-08
-1.28858e-06
2.776e-07
-2.82206e-07
-9.13489e-07
2.59676e-07
-2.6333e-07
9.1459e-07
-2.38931e-07
-2.41961e-07
0.000269929
-1.25224e-06
0.000271981
-0.000269927
2.43971e-07
2.44441e-07
4.77062e-09
0.00114257
-2.75255e-07
1.24947e-06
2.73957e-07
9.11272e-07
-2.63495e-07
-9.11025e-07
2.59344e-07
-1.28153e-06
-2.39396e-09
5.19248e-09
0.00114159
-2.80591e-07
1.28679e-06
2.79309e-07
9.11319e-07
-2.63709e-07
-9.11326e-07
2.58986e-07
0.00114257
-8.74779e-10
-0.00114257
4.67691e-09
-1.24479e-06
2.73952e-07
-2.75214e-07
-9.11685e-07
2.58754e-07
-2.64165e-07
9.10973e-07
1.28638e-06
0.00114158
-5.62828e-10
-0.00114158
6.18958e-09
-1.28225e-06
2.79102e-07
-2.81174e-07
-9.1153e-07
2.58755e-07
-2.64133e-07
9.11028e-07
-3.25691e-09
3.4006e-09
0.00114148
-2.74467e-07
1.28156e-06
2.74241e-07
9.08285e-07
-2.60935e-07
2.56319e-07
-9.08548e-07
3.28895e-10
-0.00114225
6.67716e-09
-1.24727e-06
2.71099e-07
-2.7219e-07
-9.08795e-07
2.55882e-07
9.08065e-07
-2.61371e-07
1.28185e-06
0.00114147
-1.90692e-09
-0.00114147
4.52184e-09
-1.27599e-06
2.7386e-07
-2.7493e-07
-9.09173e-07
2.55845e-07
-2.61487e-07
9.08129e-07
-2.36501e-07
-2.43538e-07
0.000269911
-1.24646e-06
0.000271955
-0.000269911
2.40442e-07
2.48646e-07
-5.26823e-09
5.98718e-09
0.00114262
-2.7311e-07
1.24678e-06
2.70662e-07
9.09561e-07
-2.62737e-07
2.6033e-07
-9.0788e-07
-3.45836e-09
-0.00114205
5.57997e-09
-1.24259e-06
2.70868e-07
-2.72863e-07
-9.07765e-07
2.59929e-07
9.09102e-07
-2.62998e-07
1.24665e-06
0.00114262
-4.80493e-09
-0.00114262
6.15739e-09
-1.24292e-06
2.70356e-07
-2.7347e-07
-9.07908e-07
2.59999e-07
-2.6299e-07
9.09486e-07
-0.000269938
2.42951e-07
2.49728e-07
1.28209e-06
1.24442e-06
-2.35792e-07
-2.44837e-07
0.000269921
-1.28601e-06
-1.25016e-06
0.000271968
-0.000269921
2.4155e-07
2.47999e-07
4.35009e-09
0.00114148
-2.78197e-07
1.28621e-06
2.762e-07
9.08795e-07
-2.60448e-07
-9.07998e-07
2.5697e-07
-1.28855e-06
-3.90599e-09
9.17846e-09
0.00114185
-2.82307e-07
1.29054e-06
2.77743e-07
9.14587e-07
-2.63037e-07
-9.13458e-07
2.59939e-07
0.00114148
-3.99839e-09
-0.00114148
6.3511e-09
-1.28291e-06
2.75288e-07
-2.7926e-07
-9.08167e-07
2.56886e-07
-2.6048e-07
9.09107e-07
1.29052e-06
0.00114185
-2.95134e-09
-0.00114185
1.10014e-08
-1.28879e-06
2.77164e-07
-2.82866e-07
-9.13762e-07
2.59653e-07
-2.63202e-07
9.14388e-07
-2.38474e-07
-2.42744e-07
0.000269927
-1.25232e-06
0.000271981
-0.000269927
2.43711e-07
2.44358e-07
2.92205e-09
0.00114257
-2.74818e-07
1.25001e-06
2.74276e-07
9.11063e-07
-2.64278e-07
-9.11408e-07
2.58674e-07
-1.28184e-06
-1.68773e-09
5.022e-09
0.00114158
-2.8094e-07
1.28675e-06
2.79279e-07
9.10684e-07
-2.64174e-07
-9.11672e-07
2.58559e-07
0.00114257
-2.46169e-10
-0.00114257
3.95958e-09
-1.24502e-06
2.73706e-07
-2.75474e-07
-9.11918e-07
2.58487e-07
-2.64548e-07
9.10778e-07
1.28641e-06
0.00114158
-8.04938e-10
-0.00114158
5.96605e-09
-1.28254e-06
2.79212e-07
-2.81157e-07
-9.12043e-07
2.58248e-07
-2.64623e-07
9.1039e-07
-3.00682e-09
3.0416e-09
0.00114148
-2.74753e-07
1.28244e-06
2.7415e-07
9.07947e-07
-2.61588e-07
2.5576e-07
-9.09151e-07
1.15776e-09
-0.00114223
5.70529e-09
-1.24738e-06
2.7108e-07
-2.72418e-07
-9.09435e-07
2.54885e-07
9.07407e-07
-2.62283e-07
1.28133e-06
0.00114148
-1.34269e-09
-0.00114148
4.81143e-09
-1.27669e-06
2.73852e-07
-2.75071e-07
-9.09002e-07
2.55711e-07
-2.6181e-07
9.08384e-07
-2.3693e-07
-2.43814e-07
0.000269912
-1.24664e-06
0.000271958
-0.000269914
2.4049e-07
2.48493e-07
-5.44594e-09
4.84062e-09
0.00114262
-2.73199e-07
1.24724e-06
2.70658e-07
9.09287e-07
-2.62962e-07
2.60035e-07
-9.07979e-07
-2.73033e-09
-0.00114204
5.06821e-09
-1.24281e-06
2.70626e-07
-2.73269e-07
-9.07849e-07
2.59572e-07
9.08984e-07
-2.63365e-07
1.24621e-06
0.00114262
-3.51629e-09
-0.00114262
6.9247e-09
-1.24351e-06
2.70285e-07
-2.73555e-07
-9.07945e-07
2.60213e-07
-2.62942e-07
9.09807e-07
-0.00026994
2.42626e-07
2.49479e-07
1.28241e-06
1.24435e-06
-2.35675e-07
-2.45083e-07
0.000269922
-1.28527e-06
-1.24934e-06
0.00027197
-0.000269923
2.40623e-07
2.47483e-07
4.9675e-09
0.00114149
-2.79004e-07
1.28622e-06
2.75407e-07
9.09057e-07
-2.60629e-07
-9.07758e-07
2.56682e-07
-1.28859e-06
-4.02921e-09
9.26441e-09
0.00114185
-2.8273e-07
1.29065e-06
2.77265e-07
9.14399e-07
-2.63441e-07
-9.13652e-07
2.59449e-07
0.00114149
-1.83799e-09
-0.00114149
8.39826e-09
-1.28359e-06
2.75038e-07
-2.79617e-07
-9.0865e-07
2.56328e-07
-2.61167e-07
9.08564e-07
1.29017e-06
0.00114186
-1.49558e-09
-0.00114185
1.00935e-08
-1.2892e-06
2.77464e-07
-2.82758e-07
-9.14539e-07
2.5883e-07
-2.64233e-07
9.13886e-07
-2.39027e-07
-2.42934e-07
0.000269927
-1.25177e-06
0.000271984
-0.000269929
2.431e-07
2.44114e-07
3.07674e-09
0.00114257
-2.75401e-07
1.25056e-06
2.73909e-07
9.104e-07
-2.64537e-07
-9.1208e-07
2.58448e-07
-1.28199e-06
-1.70406e-09
4.37143e-09
0.00114158
-2.80909e-07
1.28713e-06
2.79454e-07
9.1006e-07
-2.64647e-07
-9.12278e-07
2.58347e-07
0.00114257
5.62721e-10
-0.00114257
6.14791e-09
-1.24567e-06
2.73581e-07
-2.75943e-07
-9.12287e-07
2.58134e-07
-2.64991e-07
9.1037e-07
1.28686e-06
0.00114159
-8.72804e-11
-0.00114158
6.33028e-09
-1.28293e-06
2.78869e-07
-2.81844e-07
-9.12425e-07
2.58223e-07
-2.64811e-07
9.10082e-07
-2.3499e-09
4.02574e-09
0.00114148
-2.74973e-07
1.28192e-06
2.74095e-07
9.07992e-07
-2.61655e-07
2.55884e-07
-9.09126e-07
1.12215e-09
-0.00114224
5.05477e-09
-1.24807e-06
2.70553e-07
-2.72956e-07
-9.09483e-07
2.55211e-07
9.07633e-07
-2.6233e-07
1.28097e-06
0.00114147
-3.02211e-10
-0.00114147
6.21227e-09
-1.27719e-06
2.73703e-07
-2.75204e-07
-9.09421e-07
2.55765e-07
-2.61743e-07
9.07858e-07
-2.37062e-07
-2.44291e-07
0.000269915
-1.24667e-06
0.000271962
-0.000269918
2.40488e-07
2.48784e-07
-4.38225e-09
5.87111e-09
0.00114262
-2.73426e-07
1.24688e-06
2.70471e-07
9.0954e-07
-2.62826e-07
2.60333e-07
-9.0797e-07
-2.3768e-09
-0.00114205
4.58124e-09
-1.24355e-06
2.70388e-07
-2.73571e-07
-9.08371e-07
2.5931e-07
9.08583e-07
-2.63651e-07
1.24597e-06
0.00114261
-2.42665e-09
-0.00114261
8.164e-09
-1.24379e-06
2.6981e-07
-2.7394e-07
-9.0774e-07
2.59823e-07
-2.63297e-07
9.09847e-07
-0.000269938
2.4278e-07
2.48926e-07
1.28334e-06
1.24548e-06
-2.36933e-07
-2.45743e-07
0.000269924
-1.28538e-06
-1.24911e-06
0.000271971
-0.000269924
2.40248e-07
2.47676e-07
7.11005e-09
0.0011415
-2.79312e-07
1.28554e-06
2.75299e-07
9.08317e-07
-2.61104e-07
-9.08763e-07
2.56361e-07
-1.28893e-06
-2.74e-09
8.60066e-09
0.00114186
-2.82336e-07
1.29056e-06
2.77938e-07
9.13435e-07
-2.64329e-07
-9.14868e-07
2.58766e-07
0.0011415
-3.80789e-10
-0.0011415
9.22776e-09
-1.28366e-06
2.74687e-07
-2.79975e-07
-9.09051e-07
2.55994e-07
-2.61504e-07
9.08166e-07
1.29041e-06
0.00114187
-1.1888e-09
-0.00114187
9.33446e-09
-1.28902e-06
2.77998e-07
-2.82208e-07
-9.15109e-07
2.58407e-07
-2.6474e-07
9.13467e-07
-2.39482e-07
-2.43223e-07
0.00026993
-1.25145e-06
0.000271985
-0.000269931
2.4286e-07
2.44599e-07
4.96177e-09
0.00114257
-2.75384e-07
1.24954e-06
2.74063e-07
9.10169e-07
-2.64955e-07
-9.12328e-07
2.5818e-07
-1.28221e-06
-1.60431e-09
5.00836e-09
0.00114159
-2.81313e-07
1.28726e-06
2.79313e-07
9.09657e-07
-2.64808e-07
-9.12562e-07
2.58129e-07
0.00114258
1.1565e-09
-0.00114258
6.93138e-09
-1.24604e-06
2.73576e-07
-2.75992e-07
-9.12511e-07
2.57884e-07
-2.65228e-07
9.10106e-07
1.28638e-06
0.0011416
-2.97356e-10
-0.0011416
7.58649e-09
-1.28315e-06
2.78554e-07
-2.82034e-07
-9.1251e-07
2.5815e-07
-2.64962e-07
9.1013e-07
-1.57715e-09
5.59293e-09
0.00114147
-2.75196e-07
1.28156e-06
2.73815e-07
9.07683e-07
-2.6165e-07
2.55863e-07
-9.09547e-07
1.16287e-09
-0.00114225
5.02722e-09
-1.24846e-06
2.70137e-07
-2.73368e-07
-9.0912e-07
2.55705e-07
9.07964e-07
-2.61843e-07
1.28028e-06
0.00114147
-2.77134e-10
-0.00114147
8.59112e-09
-1.27775e-06
2.72774e-07
-2.76106e-07
-9.08836e-07
2.56161e-07
-2.61446e-07
9.08555e-07
-2.37266e-07
-2.44406e-07
0.000269919
-1.24688e-06
0.000271965
-0.000269921
2.40767e-07
2.48348e-07
-3.2951e-09
6.7905e-09
0.00114261
-2.73702e-07
1.24668e-06
2.70308e-07
9.09395e-07
-2.6324e-07
2.60011e-07
-9.08115e-07
-3.23463e-10
-0.00114205
3.73651e-09
-1.24317e-06
2.70463e-07
-2.73606e-07
-9.08532e-07
2.58972e-07
9.0863e-07
-2.64089e-07
1.24635e-06
0.0011426
3.79925e-10
-0.0011426
7.52278e-09
-1.24351e-06
2.70675e-07
-2.73298e-07
-9.08689e-07
2.59654e-07
-2.63543e-07
9.08926e-07
-0.000269935
2.43135e-07
2.48624e-07
1.28362e-06
1.246e-06
-2.37345e-07
-2.45835e-07
0.000269924
-1.28502e-06
-1.24909e-06
0.00027197
-0.000269924
2.40635e-07
2.47266e-07
7.92712e-09
0.00114151
-2.79673e-07
1.2855e-06
2.74965e-07
9.08008e-07
-2.61426e-07
-9.09116e-07
2.56176e-07
-1.28877e-06
-3.28504e-09
7.9533e-09
0.00114187
-2.819e-07
1.29083e-06
2.78392e-07
9.13365e-07
-2.64705e-07
-9.15072e-07
2.58459e-07
0.00114151
-4.13234e-10
-0.00114151
9.77806e-09
-1.28395e-06
2.74987e-07
-2.79722e-07
-9.08989e-07
2.56143e-07
-2.61359e-07
9.08309e-07
1.29073e-06
0.00114188
-2.61099e-09
-0.00114188
8.70836e-09
-1.28901e-06
2.78218e-07
-2.82118e-07
-9.14679e-07
2.58548e-07
-2.64658e-07
9.13757e-07
-2.39827e-07
-2.42739e-07
0.000269931
-1.25191e-06
0.000271985
-0.00026993
2.4315e-07
2.45181e-07
5.31254e-09
0.00114258
-2.75751e-07
1.24923e-06
2.73754e-07
9.09784e-07
-2.65229e-07
-9.12684e-07
2.57915e-07
-1.28317e-06
-2.39239e-09
6.99051e-09
0.0011416
-2.81895e-07
1.2864e-06
2.78833e-07
9.10187e-07
-2.64801e-07
-9.12408e-07
2.58321e-07
0.00114259
1.71241e-09
-0.00114258
7.36664e-09
-1.24616e-06
2.73507e-07
-2.76092e-07
-9.12733e-07
2.57792e-07
-2.6539e-07
9.09964e-07
1.28534e-06
0.00114161
-5.96546e-10
-0.00114161
1.05351e-08
-1.28412e-06
2.77814e-07
-2.82674e-07
-9.12052e-07
2.58096e-07
-2.64996e-07
9.10661e-07
-2.04192e-09
7.31004e-09
0.00114147
-2.76056e-07
1.28094e-06
2.72854e-07
9.08483e-07
-2.6115e-07
2.56564e-07
-9.08734e-07
1.36528e-09
-0.00114225
3.4401e-09
-1.24829e-06
2.70624e-07
-2.73181e-07
-9.08859e-07
2.56042e-07
9.08055e-07
-2.61369e-07
1.28025e-06
0.00114146
-3.03611e-10
-0.00114146
9.73401e-09
-1.278e-06
2.72299e-07
-2.76692e-07
-9.08517e-07
2.56539e-07
-2.60976e-07
9.0887e-07
-2.37279e-07
-2.4517e-07
0.000269921
-1.24685e-06
0.000271965
-0.000269921
2.40858e-07
2.47664e-07
-3.65803e-10
5.51975e-09
0.00114259
-2.72797e-07
1.24726e-06
2.71062e-07
9.0857e-07
-2.63589e-07
2.59573e-07
-9.08905e-07
1.85299e-09
-0.00114206
3.36375e-09
-1.24311e-06
2.70862e-07
-2.7322e-07
-9.08763e-07
2.58426e-07
9.08085e-07
-2.64631e-07
1.24719e-06
0.00114258
2.3759e-09
-0.00114259
6.7484e-09
-1.24277e-06
2.71126e-07
-2.7277e-07
-9.09575e-07
2.58602e-07
-2.64414e-07
9.08018e-07
-0.00026993
2.4393e-07
2.48253e-07
1.28372e-06
1.24575e-06
-2.36873e-07
-2.46097e-07
0.000269924
-1.28529e-06
-1.24937e-06
0.000271969
-0.000269923
2.40655e-07
2.47567e-07
7.99717e-09
0.00114151
-2.79383e-07
1.28539e-06
2.75303e-07
9.08156e-07
-2.61317e-07
-9.09086e-07
2.56248e-07
-1.28864e-06
-4.90675e-09
6.80327e-09
0.00114189
-2.81945e-07
1.29162e-06
2.78295e-07
9.13489e-07
-2.64572e-07
-9.14786e-07
2.58657e-07
0.00114152
-7.00109e-10
-0.00114152
9.41932e-09
-1.28413e-06
2.74738e-07
-2.79841e-07
-9.0877e-07
2.55797e-07
-2.61655e-07
9.08512e-07
1.29107e-06
0.0011419
-2.80048e-09
-0.0011419
8.88814e-09
-1.28887e-06
2.781e-07
-2.82193e-07
-9.14913e-07
2.5851e-07
-2.64609e-07
9.13582e-07
-2.39885e-07
-2.4247e-07
0.00026993
-1.25197e-06
0.000271987
-0.000269933
2.43027e-07
2.45388e-07
5.40955e-09
0.00114259
-2.75733e-07
1.24951e-06
2.73862e-07
9.09901e-07
-2.65188e-07
-9.12712e-07
2.58007e-07
-1.28409e-06
-2.90453e-09
9.33703e-09
0.00114161
-2.82488e-07
1.28562e-06
2.78081e-07
9.10462e-07
-2.6483e-07
-9.12128e-07
2.58341e-07
0.00114259
1.67433e-09
-0.00114259
6.6653e-09
-1.24623e-06
2.73216e-07
-2.76285e-07
-9.12559e-07
2.57788e-07
-2.65267e-07
9.1029e-07
1.285e-06
0.00114162
-5.83708e-11
-0.00114162
1.21062e-08
-1.28456e-06
2.77476e-07
-2.83129e-07
-9.12033e-07
2.58449e-07
-2.64593e-07
9.10637e-07
-2.78988e-09
8.64295e-09
0.00114146
-2.76314e-07
1.28054e-06
2.72791e-07
9.08754e-07
-2.60922e-07
2.56676e-07
-9.08578e-07
1.27235e-09
-0.00114226
3.39659e-09
-1.24838e-06
2.70537e-07
-2.73098e-07
-9.09197e-07
2.55851e-07
9.07872e-07
-2.61509e-07
1.28e-06
0.00114146
-5.95356e-10
-0.00114146
9.33107e-09
-1.27817e-06
2.72188e-07
-2.76738e-07
-9.08474e-07
2.56432e-07
-2.61091e-07
9.08909e-07
-2.37279e-07
-2.45842e-07
0.000269921
-1.24664e-06
0.000271964
-0.00026992
2.40666e-07
2.47456e-07
1.52955e-09
5.28916e-09
0.00114258
-2.72426e-07
1.2475e-06
2.71549e-07
9.08113e-07
-2.64715e-07
2.58351e-07
-9.09428e-07
3.15501e-09
-0.00114206
4.81759e-09
-1.24332e-06
2.70962e-07
-2.72963e-07
-9.0929e-07
2.5842e-07
9.07545e-07
-2.64575e-07
1.24724e-06
0.00114257
3.05823e-09
-0.00114257
5.49422e-09
-1.24261e-06
2.71169e-07
-2.72858e-07
-9.09519e-07
2.57966e-07
-2.65129e-07
9.07987e-07
-0.000269927
2.439e-07
2.47739e-07
1.28336e-06
1.24552e-06
-2.3694e-07
-2.45687e-07
0.000269923
-1.28548e-06
-1.24921e-06
0.00027197
-0.000269924
2.40496e-07
2.47679e-07
7.3991e-09
0.00114152
-2.7958e-07
1.28593e-06
2.75137e-07
9.08366e-07
-2.61576e-07
-9.0884e-07
2.55906e-07
-1.28845e-06
-5.46509e-09
7.05375e-09
0.00114191
-2.81989e-07
1.29168e-06
2.78466e-07
9.13518e-07
-2.64561e-07
-9.15035e-07
2.58593e-07
0.00114153
-4.42497e-10
-0.00114153
8.1165e-09
-1.2837e-06
2.75375e-07
-2.79323e-07
-9.09057e-07
2.5585e-07
-2.61551e-07
9.08055e-07
1.29126e-06
0.00114192
-2.20032e-09
-0.00114192
7.88663e-09
-1.28875e-06
2.78423e-07
-2.8186e-07
-9.14751e-07
2.58278e-07
-2.64831e-07
9.1358e-07
-2.39982e-07
-2.42424e-07
0.000269933
-1.25201e-06
0.00027199
-0.000269935
2.42998e-07
2.45527e-07
4.77357e-09
0.0011426
-2.75763e-07
1.24988e-06
2.73836e-07
9.09919e-07
-2.65291e-07
-9.12493e-07
2.57807e-07
-1.28398e-06
-2.88835e-09
1.056e-08
0.00114162
-2.82774e-07
1.28573e-06