/*--------------------------------*- C++ -*----------------------------------*\
| =========                 |                                                 |
| \\      /  F ield         | OpenFOAM: The Open Source CFD Toolbox           |
|  \\    /   O peration     | Version:  v1906                                 |
|   \\  /    A nd           | Web:      www.OpenFOAM.com                      |
|    \\/     M anipulation  |                                                 |
\*---------------------------------------------------------------------------*/
FoamFile
{
    version     2.0;
    format      ascii;
    class       volVectorField;
    location    "200";
    object      U;
}
// * * * * * * * * * * * * * * * * * * * * * * * * * * * * * * * * * * * * * //

dimensions      [0 1 -1 0 0 0 0];


internalField   nonuniform List<vector> 
43024
(
(-1.00907e-06 -9.95673e-07 0.113202)
(-5.66414e-07 1.39074e-06 0.108448)
(1.31708e-06 -7.37269e-07 0.108462)
(-4.20211e-05 -4.20349e-05 0.104891)
(-1.1487e-06 -9.48031e-07 0.113202)
(-7.48325e-07 1.43775e-06 0.108447)
(1.08672e-06 -8.07041e-07 0.108461)
(-4.21278e-05 -4.20074e-05 0.104891)
(-1.17303e-06 -1.09532e-06 0.113202)
(-8.20841e-07 1.35869e-06 0.108446)
(1.09607e-06 -6.68597e-07 0.108461)
(-4.22737e-05 -4.19733e-05 0.104891)
(-1.11578e-06 -1.26273e-06 0.113203)
(-1.05913e-06 1.1202e-06 0.108445)
(1.10732e-06 -6.77807e-07 0.10846)
(-4.21697e-05 -4.17874e-05 0.104891)
(-1.06749e-06 -1.25548e-06 0.113203)
(-1.19613e-06 1.16055e-06 0.108444)
(1.05566e-06 -7.16021e-07 0.10846)
(-4.26003e-05 -4.21568e-05 0.104891)
(-1.00292e-06 -1.17109e-06 0.113205)
(-1.11398e-06 1.08015e-06 0.108445)
(1.10086e-06 -8.11384e-07 0.108461)
(-4.25326e-05 -4.22281e-05 0.10489)
(-9.78717e-07 -1.11936e-06 0.113206)
(-1.17664e-06 1.08822e-06 0.108447)
(1.01858e-06 -9.7375e-07 0.108463)
(-4.24827e-05 -4.2555e-05 0.104889)
(-9.69459e-07 -1.15593e-06 0.113209)
(-1.10611e-06 9.67915e-07 0.108448)
(1.02683e-06 -1.19609e-06 0.108464)
(-4.22106e-05 -4.26419e-05 0.104887)
(-1.01943e-06 -1.26911e-06 0.113211)
(-1.02804e-06 9.14349e-07 0.108449)
(1.00557e-06 -1.18101e-06 0.108464)
(-4.21638e-05 -4.27695e-05 0.104886)
(-1.20393e-06 -1.28314e-06 0.113214)
(-9.17296e-07 8.35478e-07 0.108451)
(1.04354e-06 -1.21511e-06 0.108464)
(-4.21577e-05 -4.28599e-05 0.104887)
(-1.30771e-06 -1.384e-06 0.113216)
(-7.33909e-07 8.03136e-07 0.108453)
(9.7605e-07 -1.17706e-06 0.108464)
(-4.22569e-05 -4.28435e-05 0.104887)
(-1.32924e-06 -1.51018e-06 0.113219)
(-6.96566e-07 7.41271e-07 0.108456)
(9.85978e-07 -1.10471e-06 0.108465)
(-4.2091e-05 -4.28531e-05 0.104887)
(-1.49277e-06 -1.62163e-06 0.113222)
(-5.8442e-07 6.77973e-07 0.108459)
(9.25762e-07 -9.68328e-07 0.108466)
(-4.21946e-05 -4.27789e-05 0.104887)
(-1.70941e-06 -1.6347e-06 0.113226)
(-5.26144e-07 6.81083e-07 0.108462)
(7.11934e-07 -7.57768e-07 0.108468)
(-4.23077e-05 -4.25725e-05 0.104887)
(-1.91431e-06 -1.63374e-06 0.11323)
(-4.59367e-07 6.6321e-07 0.108467)
(7.13505e-07 -6.53067e-07 0.108471)
(-4.22975e-05 -4.21617e-05 0.104886)
(-2.38671e-06 -1.78678e-06 0.113235)
(-5.77779e-07 5.43908e-07 0.108474)
(6.80782e-07 -4.2337e-07 0.108477)
(-4.22634e-05 -4.16297e-05 0.104887)
(-2.9837e-06 -2.49146e-06 0.113241)
(-7.34567e-07 8.28353e-07 0.108482)
(8.14106e-07 -2.96254e-07 0.108484)
(-4.12169e-05 -4.04354e-05 0.104891)
(-3.94328e-06 -3.64234e-06 0.113248)
(-7.13246e-07 1.47851e-06 0.108492)
(1.80356e-06 -4.14475e-07 0.108495)
(-3.86745e-05 -3.79246e-05 0.104902)
(-5.44782e-06 -5.1963e-06 0.113255)
(-1.01988e-06 3.59215e-06 0.108505)
(3.8046e-06 -7.31329e-07 0.108509)
(-3.16305e-05 -3.11776e-05 0.10493)
(-1.29639e-05 -1.27402e-05 0.113259)
(1.50145e-06 6.3194e-06 0.108526)
(6.3809e-06 1.93262e-06 0.108529)
(-1.49058e-05 -1.42523e-05 0.105)
(-2.30759e-05 -2.27437e-05 0.113374)
(9.26405e-05 -5.05987e-05 0.108717)
(-5.05056e-05 9.30282e-05 0.10872)
(3.16492e-05 3.23526e-05 0.105374)
(-4.47766e-05 -4.45249e-05 0.105068)
(1.46769e-06 1.12648e-06 0.10845)
(-1.45919e-06 1.18165e-06 0.108447)
(4.49471e-05 -4.45632e-05 0.105068)
(9.49676e-07 1.48944e-06 0.108448)
(1.10297e-06 -1.50944e-06 0.10845)
(-6.46094e-07 1.68225e-06 0.108448)
(-7.21626e-07 -1.39901e-06 0.108459)
(-4.45983e-05 4.4782e-05 0.105074)
(1.70807e-06 -8.23141e-07 0.108461)
(-1.35941e-06 -8.95241e-07 0.108464)
(4.47775e-05 4.47496e-05 0.105078)
(4.19399e-05 4.22284e-05 0.104882)
(-4.50127e-05 -4.45928e-05 0.105068)
(1.1353e-06 1.11266e-06 0.108451)
(-1.25058e-06 1.12343e-06 0.108447)
(1.30565e-06 1.2432e-06 0.108449)
(-1.61481e-06 1.14428e-06 0.108444)
(-4.17563e-05 4.20455e-05 0.104881)
(4.47974e-05 -4.45373e-05 0.105066)
(8.26355e-07 1.23423e-06 0.10845)
(9.58664e-07 -1.24671e-06 0.108451)
(7.54898e-07 1.58179e-06 0.108448)
(7.92908e-07 -1.56177e-06 0.108449)
(-7.3443e-07 -1.14119e-06 0.10846)
(-7.98053e-07 1.70193e-06 0.108446)
(-8.64547e-07 -1.38104e-06 0.108458)
(4.20783e-05 -4.20856e-05 0.104887)
(-4.49134e-05 4.48554e-05 0.105073)
(-1.12092e-06 -8.31193e-07 0.108465)
(1.39052e-06 -8.88243e-07 0.10846)
(-1.51665e-06 -8.83009e-07 0.108463)
(4.47748e-05 4.48927e-05 0.105078)
(4.18153e-05 4.21969e-05 0.104881)
(-4.49075e-05 -4.48095e-05 0.105068)
(1.02843e-06 1.15814e-06 0.10845)
(-1.39131e-06 1.11513e-06 0.108445)
(1.3346e-06 1.10271e-06 0.108448)
(-1.81052e-06 1.18599e-06 0.108442)
(-4.1978e-05 4.21106e-05 0.104879)
(4.46098e-05 -4.4697e-05 0.105064)
(7.01386e-07 1.32147e-06 0.108449)
(7.67336e-07 -1.26711e-06 0.10845)
(8.67556e-07 1.51872e-06 0.108447)
(9.84902e-07 -1.467e-06 0.108448)
(-8.32648e-07 -1.16042e-06 0.108459)
(-8.79327e-07 1.67381e-06 0.108444)
(-9.66776e-07 -1.34704e-06 0.108457)
(4.19098e-05 -4.2042e-05 0.104886)
(-4.48895e-05 4.5045e-05 0.105072)
(-1.29069e-06 -8.00212e-07 0.108464)
(1.36962e-06 -7.88127e-07 0.108459)
(-1.47517e-06 -7.66451e-07 0.108462)
(4.47942e-05 4.5074e-05 0.105078)
(4.20115e-05 4.204e-05 0.104882)
(-4.47787e-05 -4.50708e-05 0.105069)
(1.08014e-06 9.41214e-07 0.10845)
(-1.56699e-06 1.0355e-06 0.108443)
(1.49222e-06 8.73088e-07 0.108448)
(-1.92869e-06 8.86983e-07 0.10844)
(-4.22407e-05 4.20069e-05 0.104877)
(4.44433e-05 -4.50708e-05 0.105063)
(8.3551e-07 1.16614e-06 0.108449)
(9.78717e-07 -1.1738e-06 0.108449)
(1.14286e-06 1.30325e-06 0.108446)
(1.16707e-06 -1.45732e-06 0.108446)
(-9.16588e-07 -1.04714e-06 0.108459)
(-1.09011e-06 1.47013e-06 0.108443)
(-1.11087e-06 -1.31398e-06 0.108457)
(4.20025e-05 -4.19407e-05 0.104886)
(-4.48565e-05 4.50131e-05 0.105073)
(-1.2203e-06 -6.48544e-07 0.108464)
(1.37814e-06 -7.67926e-07 0.108458)
(-1.55133e-06 -7.44537e-07 0.108461)
(4.50161e-05 4.54052e-05 0.105078)
(4.22489e-05 4.19059e-05 0.104882)
(-4.49421e-05 -4.54043e-05 0.10507)
(1.19781e-06 7.43356e-07 0.108451)
(-1.67715e-06 7.33226e-07 0.108442)
(1.591e-06 8.5641e-07 0.108448)
(-2.08412e-06 8.71982e-07 0.108439)
(-4.2531e-05 4.18405e-05 0.104876)
(4.44547e-05 -4.51018e-05 0.105064)
(1.04792e-06 9.59326e-07 0.108449)
(1.06876e-06 -1.18608e-06 0.108449)
(1.23304e-06 1.27807e-06 0.108446)
(1.19287e-06 -1.50388e-06 0.108446)
(-9.82211e-07 -1.03257e-06 0.108459)
(-1.30833e-06 1.46605e-06 0.108441)
(-1.12393e-06 -1.3136e-06 0.108457)
(4.21236e-05 -4.20781e-05 0.104886)
(-4.49058e-05 4.50486e-05 0.105074)
(-1.30618e-06 -6.58943e-07 0.108464)
(1.36368e-06 -8.7354e-07 0.108457)
(-1.54905e-06 -7.74645e-07 0.108461)
(4.47839e-05 4.52514e-05 0.105079)
(4.22656e-05 4.17813e-05 0.104882)
(-4.45726e-05 -4.49716e-05 0.105071)
(1.35378e-06 7.49026e-07 0.108451)
(-1.6965e-06 8.13062e-07 0.108442)
(1.87426e-06 1.06332e-06 0.108448)
(-1.86648e-06 1.09345e-06 0.108439)
(-4.26834e-05 4.19746e-05 0.104876)
(4.43448e-05 -4.48483e-05 0.105065)
(1.11153e-06 1.04478e-06 0.108449)
(1.09402e-06 -1.20173e-06 0.108449)
(1.28619e-06 1.52721e-06 0.108446)
(1.25804e-06 -1.55587e-06 0.108446)
(-9.94756e-07 -1.08946e-06 0.10846)
(-1.30462e-06 1.37725e-06 0.108441)
(-1.20366e-06 -1.46242e-06 0.108456)
(4.22263e-05 -4.21774e-05 0.104887)
(-4.50216e-05 4.52936e-05 0.105076)
(-1.29603e-06 -6.39906e-07 0.108463)
(1.439e-06 -9.28463e-07 0.108457)
(-1.69595e-06 -8.70401e-07 0.108459)
(4.47465e-05 4.50792e-05 0.105078)
(4.2792e-05 4.23697e-05 0.104883)
(-4.46496e-05 -4.48992e-05 0.105071)
(1.53238e-06 9.04894e-07 0.108453)
(-1.53599e-06 9.73726e-07 0.108443)
(1.96176e-06 1.16649e-06 0.108449)
(-1.83366e-06 1.18521e-06 0.10844)
(-4.27486e-05 4.22109e-05 0.104877)
(4.44528e-05 -4.47208e-05 0.105065)
(1.11648e-06 1.21424e-06 0.10845)
(1.09928e-06 -1.2487e-06 0.10845)
(1.34104e-06 1.6881e-06 0.108446)
(1.25433e-06 -1.66516e-06 0.108447)
(-1.03486e-06 -1.20454e-06 0.10846)
(-1.36913e-06 1.43984e-06 0.108442)
(-1.14784e-06 -1.75885e-06 0.108455)
(4.23365e-05 -4.2258e-05 0.104888)
(-4.51074e-05 4.51125e-05 0.105077)
(-1.3964e-06 -7.41624e-07 0.108463)
(1.3869e-06 -1.11334e-06 0.108457)
(-1.55347e-06 -1.06076e-06 0.108458)
(4.49086e-05 4.48769e-05 0.105077)
(4.28355e-05 4.25635e-05 0.104883)
(-4.45175e-05 -4.49421e-05 0.105071)
(1.59141e-06 9.7528e-07 0.108454)
(-1.49501e-06 1.00903e-06 0.108445)
(1.93584e-06 1.16519e-06 0.108449)
(-1.88205e-06 1.11576e-06 0.108441)
(-4.26695e-05 4.23539e-05 0.104878)
(4.46394e-05 -4.49003e-05 0.105065)
(1.18625e-06 1.29618e-06 0.108451)
(1.02773e-06 -1.39399e-06 0.108452)
(1.45019e-06 1.68832e-06 0.108446)
(1.27503e-06 -2.00723e-06 0.108447)
(-9.38685e-07 -1.44807e-06 0.10846)
(-1.31802e-06 1.33829e-06 0.108441)
(-1.09877e-06 -1.92952e-06 0.108454)
(4.24346e-05 -4.25966e-05 0.104889)
(-4.50927e-05 4.4705e-05 0.105077)
(-1.1552e-06 -9.0988e-07 0.108462)
(1.4008e-06 -1.38353e-06 0.108457)
(-1.47454e-06 -1.38059e-06 0.108456)
(4.52908e-05 4.48891e-05 0.105075)
(4.28983e-05 4.24243e-05 0.104883)
(-4.47135e-05 -4.50882e-05 0.105071)
(1.49527e-06 9.00572e-07 0.108455)
(-1.49151e-06 8.88078e-07 0.108447)
(1.96923e-06 1.24884e-06 0.108449)
(-1.90481e-06 1.16657e-06 0.108442)
(-4.26628e-05 4.23381e-05 0.104877)
(4.47974e-05 -4.49371e-05 0.105066)
(1.1806e-06 1.24085e-06 0.108453)
(1.03476e-06 -1.66811e-06 0.108454)
(1.45396e-06 1.61383e-06 0.108446)
(1.29279e-06 -2.22747e-06 0.108448)
(-8.51615e-07 -1.59134e-06 0.10846)
(-1.32586e-06 1.36594e-06 0.108441)
(-1.09859e-06 -1.90563e-06 0.108452)
(4.24934e-05 -4.29912e-05 0.104889)
(-4.49818e-05 4.46133e-05 0.105077)
(-1.10658e-06 -1.21565e-06 0.108461)
(1.43695e-06 -1.48379e-06 0.108457)
(-1.46515e-06 -1.52106e-06 0.108454)
(4.53069e-05 4.4726e-05 0.105074)
(4.27322e-05 4.23231e-05 0.104882)
(-4.47221e-05 -4.49747e-05 0.105071)
(1.56111e-06 9.21533e-07 0.108457)
(-1.41908e-06 8.97494e-07 0.10845)
(1.83933e-06 1.26762e-06 0.108449)
(-1.78875e-06 1.28909e-06 0.108442)
(-4.25503e-05 4.2348e-05 0.104878)
(4.48524e-05 -4.49188e-05 0.105067)
(1.11851e-06 1.22641e-06 0.108454)
(9.66272e-07 -1.77237e-06 0.108456)
(1.3705e-06 1.67141e-06 0.108446)
(1.26479e-06 -2.34094e-06 0.108447)
(-7.64461e-07 -1.46928e-06 0.10846)
(-1.29824e-06 1.33051e-06 0.108441)
(-1.11829e-06 -1.87834e-06 0.108452)
(4.23946e-05 -4.29077e-05 0.104889)
(-4.52131e-05 4.4666e-05 0.105076)
(-1.00062e-06 -1.19448e-06 0.108461)
(1.50893e-06 -1.56201e-06 0.108455)
(-1.32534e-06 -1.45194e-06 0.108452)
(4.52729e-05 4.45648e-05 0.105074)
(4.26609e-05 4.24232e-05 0.104883)
(-4.48481e-05 -4.50309e-05 0.105072)
(1.26388e-06 8.09745e-07 0.108459)
(-1.21609e-06 8.92503e-07 0.108453)
(1.78506e-06 1.17804e-06 0.108449)
(-1.6751e-06 1.30411e-06 0.108443)
(-4.26313e-05 4.25287e-05 0.104879)
(4.50977e-05 -4.50354e-05 0.105069)
(9.33678e-07 1.152e-06 0.108457)
(8.70967e-07 -1.89838e-06 0.108457)
(1.3349e-06 1.69008e-06 0.108446)
(1.24621e-06 -2.49909e-06 0.108446)
(-7.31474e-07 -1.44903e-06 0.108461)
(-1.21061e-06 1.34892e-06 0.108441)
(-1.13189e-06 -1.96964e-06 0.108451)
(4.23405e-05 -4.30089e-05 0.104888)
(-4.52278e-05 4.44675e-05 0.105075)
(-8.41432e-07 -1.05863e-06 0.108462)
(1.50196e-06 -1.64165e-06 0.108452)
(-1.25313e-06 -1.49129e-06 0.10845)
(4.52129e-05 4.46189e-05 0.105074)
(4.26967e-05 4.24645e-05 0.104884)
(-4.4657e-05 -4.5001e-05 0.105072)
(1.18589e-06 6.75866e-07 0.108461)
(-1.09956e-06 8.06084e-07 0.108456)
(1.80557e-06 1.18221e-06 0.108448)
(-1.7359e-06 1.24717e-06 0.108443)
(-4.24824e-05 4.24637e-05 0.10488)
(4.49833e-05 -4.51496e-05 0.105069)
(8.40523e-07 1.07215e-06 0.108459)
(7.38209e-07 -1.89557e-06 0.108459)
(1.39924e-06 1.54159e-06 0.108445)
(1.23809e-06 -2.43337e-06 0.108445)
(-6.15578e-07 -1.46171e-06 0.108463)
(-1.25015e-06 1.39328e-06 0.10844)
(-1.09665e-06 -2.06256e-06 0.108449)
(4.23018e-05 -4.3145e-05 0.104887)
(-4.50557e-05 4.44308e-05 0.105074)
(-6.81389e-07 -1.02753e-06 0.108463)
(1.6457e-06 -1.72829e-06 0.108449)
(-1.29726e-06 -1.54933e-06 0.108448)
(4.53743e-05 4.45986e-05 0.105075)
(4.26787e-05 4.23058e-05 0.104884)
(-4.48118e-05 -4.50724e-05 0.105073)
(1.19841e-06 5.34563e-07 0.108464)
(-1.06808e-06 5.94878e-07 0.108459)
(1.77729e-06 1.19632e-06 0.108446)
(-1.7756e-06 1.23201e-06 0.108442)
(-4.26406e-05 4.23831e-05 0.104881)
(4.49528e-05 -4.51524e-05 0.10507)
(7.90004e-07 8.93832e-07 0.108462)
(6.01692e-07 -1.71261e-06 0.108462)
(1.40576e-06 1.50128e-06 0.108444)
(1.26778e-06 -2.29916e-06 0.108443)
(-4.64194e-07 -1.40459e-06 0.108465)
(-1.33652e-06 1.4108e-06 0.108438)
(-1.17393e-06 -2.13015e-06 0.108447)
(4.23669e-05 -4.30803e-05 0.104886)
(-4.49417e-05 4.44264e-05 0.105073)
(-6.37072e-07 -9.02295e-07 0.108464)
(1.65857e-06 -1.76432e-06 0.108445)
(-1.4636e-06 -1.63284e-06 0.108445)
(4.52142e-05 4.45665e-05 0.105074)
(4.24466e-05 4.22224e-05 0.104885)
(-4.50838e-05 -4.4935e-05 0.105073)
(9.70223e-07 4.1124e-07 0.108467)
(-1.07285e-06 4.4503e-07 0.108463)
(1.67515e-06 1.42262e-06 0.108444)
(-1.76949e-06 1.35043e-06 0.10844)
(-4.24817e-05 4.21871e-05 0.104882)
(4.47753e-05 -4.50578e-05 0.105071)
(5.61207e-07 7.21728e-07 0.108465)
(4.48385e-07 -1.51466e-06 0.108464)
(1.38211e-06 1.62773e-06 0.108443)
(1.3794e-06 -2.22333e-06 0.108441)
(-3.77447e-07 -1.35318e-06 0.108467)
(-1.47349e-06 1.43747e-06 0.108436)
(-1.3853e-06 -2.06603e-06 0.108443)
(4.22699e-05 -4.28886e-05 0.104886)
(-4.48515e-05 4.44564e-05 0.105071)
(-7.87914e-07 -8.4439e-07 0.108465)
(1.55194e-06 -1.78928e-06 0.108442)
(-1.73942e-06 -1.75845e-06 0.108442)
(4.48182e-05 4.451e-05 0.105073)
(4.21178e-05 4.23181e-05 0.104886)
(-4.47188e-05 -4.4312e-05 0.105072)
(8.39181e-07 4.83261e-07 0.10847)
(-9.08403e-07 3.74512e-07 0.108467)
(1.61158e-06 1.81037e-06 0.10844)
(-1.81188e-06 1.68696e-06 0.108438)
(-4.25745e-05 4.22392e-05 0.104883)
(4.45584e-05 -4.47255e-05 0.105071)
(3.24306e-07 8.75373e-07 0.108469)
(3.63297e-07 -1.34141e-06 0.108467)
(1.42817e-06 1.91868e-06 0.108439)
(1.60331e-06 -2.10829e-06 0.108437)
(-3.92556e-07 -1.22123e-06 0.108469)
(-1.6833e-06 1.52887e-06 0.108433)
(-1.76337e-06 -1.9694e-06 0.108438)
(4.21622e-05 -4.26819e-05 0.104885)
(-4.47814e-05 4.41963e-05 0.10507)
(-9.60288e-07 -7.0638e-07 0.108468)
(1.57076e-06 -1.9112e-06 0.108438)
(-1.93425e-06 -1.81432e-06 0.108438)
(4.43843e-05 4.44236e-05 0.105071)
(4.20337e-05 4.24448e-05 0.104887)
(-4.44718e-05 -4.36277e-05 0.105069)
(7.14703e-07 5.79692e-07 0.108474)
(-9.96578e-07 4.05969e-07 0.108472)
(1.45444e-06 2.17772e-06 0.108435)
(-1.97072e-06 1.93424e-06 0.108435)
(-4.25469e-05 4.23063e-05 0.104885)
(4.40435e-05 -4.44331e-05 0.10507)
(1.26807e-07 1.11364e-06 0.108473)
(3.41647e-07 -1.30599e-06 0.108471)
(1.55115e-06 1.9818e-06 0.108435)
(1.7312e-06 -2.01962e-06 0.108433)
(-5.32943e-07 -1.0523e-06 0.108472)
(-2.06634e-06 1.32178e-06 0.10843)
(-2.19627e-06 -1.71451e-06 0.108432)
(4.19109e-05 -4.26096e-05 0.104886)
(-4.45362e-05 4.40574e-05 0.105069)
(-1.19538e-06 -4.53797e-07 0.108471)
(1.45665e-06 -2.05283e-06 0.108433)
(-2.23978e-06 -1.81734e-06 0.108432)
(4.35884e-05 4.41499e-05 0.105068)
(4.13172e-05 4.21732e-05 0.104888)
(-4.34569e-05 -4.28048e-05 0.105064)
(6.61436e-07 5.68238e-07 0.108479)
(-1.26948e-06 3.31061e-07 0.108479)
(1.15462e-06 2.32751e-06 0.108428)
(-2.08193e-06 1.96047e-06 0.10843)
(-4.22161e-05 4.17151e-05 0.104888)
(4.2482e-05 -4.3409e-05 0.105066)
(-6.84184e-08 1.28002e-06 0.108479)
(1.29895e-07 -1.23759e-06 0.108477)
(1.74074e-06 1.75563e-06 0.108429)
(1.82281e-06 -1.79598e-06 0.108427)
(-7.01286e-07 -9.82371e-07 0.108476)
(-2.61154e-06 1.13205e-06 0.108424)
(-2.69475e-06 -1.46414e-06 0.108425)
(4.13842e-05 -4.19862e-05 0.104888)
(-4.36169e-05 4.30935e-05 0.105065)
(-1.5535e-06 -2.1838e-07 0.108476)
(1.09335e-06 -2.17542e-06 0.108427)
(-2.24493e-06 -2.05479e-06 0.108425)
(4.25958e-05 4.33895e-05 0.105063)
(4.03143e-05 4.08871e-05 0.104892)
(-4.07937e-05 -4.04485e-05 0.105054)
(9.28908e-07 3.64186e-07 0.108485)
(-1.92259e-06 6.80915e-08 0.108488)
(6.40856e-07 2.31424e-06 0.108419)
(-1.54635e-06 2.05139e-06 0.108423)
(-4.15334e-05 4.05123e-05 0.104894)
(3.99476e-05 -4.09852e-05 0.105056)
(-1.74886e-07 1.46719e-06 0.108487)
(-9.70196e-08 -1.54548e-06 0.108484)
(1.88357e-06 9.42113e-07 0.108421)
(2.01668e-06 -1.1735e-06 0.108419)
(-8.23119e-07 -1.25005e-06 0.108481)
(-2.79101e-06 3.17497e-07 0.108416)
(-2.98996e-06 -9.67641e-07 0.108415)
(4.03593e-05 -4.09365e-05 0.104893)
(-4.10548e-05 4.06481e-05 0.105055)
(-2.07311e-06 -1.69472e-07 0.108482)
(6.11712e-07 -2.4853e-06 0.108419)
(-1.82366e-06 -2.40192e-06 0.108417)
(3.99006e-05 4.07231e-05 0.105052)
(3.75766e-05 3.78589e-05 0.104904)
(-3.43689e-05 -3.41802e-05 0.105028)
(1.77807e-06 2.24646e-07 0.108495)
(-2.62712e-06 -2.32057e-09 0.108499)
(-4.79649e-07 2.33543e-06 0.108407)
(-2.94438e-08 2.218e-06 0.108412)
(-3.85726e-05 3.75588e-05 0.104906)
(3.37149e-05 -3.44892e-05 0.105031)
(-1.61614e-07 2.03291e-06 0.108497)
(-3.436e-08 -2.38226e-06 0.108494)
(2.0563e-06 -3.75164e-07 0.10841)
(2.20887e-06 1.36145e-07 0.108407)
(-9.23453e-07 -2.16523e-06 0.10849)
(-2.77905e-06 -8.23748e-07 0.108405)
(-2.9766e-06 3.42451e-07 0.108403)
(3.76188e-05 -3.80305e-05 0.104904)
(-3.42808e-05 3.40429e-05 0.105029)
(-2.9099e-06 -3.52908e-07 0.108492)
(-6.01555e-07 -2.44339e-06 0.108408)
(-2.68392e-07 -2.39161e-06 0.108406)
(3.35495e-05 3.40287e-05 0.105026)
(3.06936e-05 3.08589e-05 0.104931)
(-2.18787e-05 -2.17018e-05 0.104966)
(3.92696e-06 6.34757e-07 0.108508)
(-4.41282e-06 6.04469e-07 0.108513)
(-4.19836e-06 5.64722e-07 0.10839)
(3.81468e-06 6.01589e-07 0.108395)
(-3.14974e-05 3.08058e-05 0.104934)
(2.13056e-05 -2.17755e-05 0.104969)
(3.59306e-07 3.98112e-06 0.10851)
(6.0851e-07 -4.16857e-06 0.108508)
(4.31007e-07 -3.96021e-06 0.108393)
(6.76403e-07 4.04175e-06 0.10839)
(-1.27221e-06 -3.96237e-06 0.108503)
(-9.34448e-07 -4.02861e-06 0.108388)
(-1.18299e-06 4.32292e-06 0.108386)
(3.1032e-05 -3.11738e-05 0.104932)
(-2.1617e-05 2.17506e-05 0.104966)
(-4.56826e-06 -6.87324e-07 0.108506)
(-3.89942e-06 -5.21917e-07 0.108392)
(3.61423e-06 -5.52764e-07 0.10839)
(2.11687e-05 2.17509e-05 0.104965)
(1.40156e-05 1.4291e-05 0.105001)
(-4.30106e-05 -4.26736e-05 0.104927)
(6.0504e-06 -1.81832e-06 0.108527)
(-6.46036e-06 -1.71118e-06 0.108533)
(-3.47984e-05 -4.52982e-05 0.108442)
(3.45693e-05 -4.51762e-05 0.108448)
(-1.45249e-05 1.43135e-05 0.105004)
(4.25371e-05 -4.23649e-05 0.104931)
(-1.98576e-06 6.26494e-06 0.10853)
(-1.72902e-06 -6.15064e-06 0.108528)
(-4.55497e-05 -3.44087e-05 0.108445)
(-4.5221e-05 3.48083e-05 0.108443)
(1.26053e-06 -5.89903e-06 0.108523)
(4.52875e-05 -3.43451e-05 0.108441)
(4.49524e-05 3.50307e-05 0.108438)
(1.45536e-05 -1.42313e-05 0.105002)
(-4.232e-05 4.3e-05 0.104928)
(-6.62518e-06 1.84162e-06 0.108527)
(-3.41847e-05 4.57135e-05 0.108444)
(3.42413e-05 4.56351e-05 0.108444)
(4.22878e-05 4.29882e-05 0.104929)
(-3.23303e-05 -3.19649e-05 0.105373)
(-5.12299e-05 -9.26726e-05 0.108718)
(5.10498e-05 -9.24374e-05 0.108723)
(3.1963e-05 -3.16734e-05 0.105376)
(-9.29901e-05 -5.08198e-05 0.10872)
(-9.26186e-05 5.1385e-05 0.108718)
(2.29233e-05 -2.26396e-05 0.113372)
(-2.26922e-05 2.33308e-05 0.113373)
(2.26507e-05 2.3438e-05 0.113369)
(9.24373e-05 5.13774e-05 0.108714)
(-3.16891e-05 3.24048e-05 0.105374)
(5.06613e-05 9.3079e-05 0.10872)
(-5.20102e-07 -1.45482e-05 0.0909144)
(-2.1623e-06 -1.15021e-05 0.0814201)
(3.60547e-06 -6.65252e-06 0.070713)
(-1.44132e-05 -2.23856e-07 0.0909302)
(-1.15929e-05 -1.72784e-06 0.0814321)
(-9.21219e-07 -9.72312e-07 0.1132)
(1.13941e-06 -6.64924e-07 0.113197)
(-7.08055e-07 1.12256e-06 0.113207)
(1.2671e-06 1.16916e-06 0.113213)
(2.25076e-05 -2.42562e-07 0.09867)
(-5.97065e-07 1.6977e-06 0.108449)
(1.62684e-05 -7.62668e-06 0.0926205)
(-5.29278e-07 2.52139e-07 0.110997)
(-6.39348e-06 3.91807e-06 0.0707099)
(-5.87895e-07 2.24678e-05 0.0986681)
(1.7954e-06 -8.16368e-07 0.108462)
(3.94793e-07 -7.51948e-07 0.111006)
(-7.98766e-06 1.60603e-05 0.0926062)
(4.50159e-05 4.48924e-05 0.105078)
(7.87075e-06 6.43102e-06 0.086888)
(6.24805e-06 8.00384e-06 0.0868839)
(-5.29002e-07 -1.46095e-05 0.0909141)
(1.27876e-07 1.24068e-05 0.0813555)
(-1.52866e-07 1.37055e-05 0.0908519)
(-2.16386e-06 -1.14559e-05 0.081421)
(-3.47866e-06 6.81465e-06 0.0706423)
(3.52055e-06 -6.72153e-06 0.0707143)
(-1.46051e-05 -8.58673e-08 0.0909293)
(1.22144e-05 6.29569e-07 0.0813654)
(1.38119e-05 1.57579e-07 0.0908685)
(-1.1676e-05 -1.65375e-06 0.0814322)
(1.09435e-06 -6.87344e-07 0.113199)
(-7.93111e-07 1.10295e-06 0.113209)
(1.23204e-06 1.19011e-06 0.113215)
(-1.09618e-06 -9.01293e-07 0.113199)
(9.64216e-07 -6.9332e-07 0.113196)
(-9.72465e-07 1.00912e-06 0.113205)
(1.14872e-06 1.19624e-06 0.113212)
(2.25516e-05 -1.99598e-07 0.0986719)
(-1.7208e-05 6.82174e-06 0.0925413)
(-4.37513e-07 1.90743e-07 0.110998)
(-6.59601e-07 1.65392e-06 0.108447)
(-2.10773e-05 5.54197e-07 0.0985862)
(1.63267e-05 -7.58717e-06 0.0926211)
(-6.69812e-07 2.01805e-07 0.110996)
(6.93078e-06 -3.17694e-06 0.0706346)
(-6.52873e-06 3.71185e-06 0.0707108)
(-6.60348e-07 2.22931e-05 0.0986691)
(5.80506e-08 -5.77056e-07 0.111007)
(6.25375e-06 -1.74852e-05 0.0925281)
(1.47946e-06 -8.15057e-07 0.108461)
(3.24199e-08 -2.1285e-05 0.0985831)
(1.1626e-08 -7.21069e-07 0.111006)
(-8.17179e-06 1.61925e-05 0.0926071)
(-8.44194e-06 -6.38566e-06 0.0868215)
(-6.68844e-06 -8.27303e-06 0.0868181)
(4.48307e-05 4.4905e-05 0.105078)
(7.8469e-06 6.46759e-06 0.0868889)
(6.11799e-06 8.02862e-06 0.0868847)
(-4.10684e-07 -1.46251e-05 0.0909141)
(2.62457e-07 1.2368e-05 0.0813558)
(-1.2714e-07 1.36905e-05 0.0908518)
(-1.91748e-06 -1.1576e-05 0.0814209)
(-3.58976e-06 6.7499e-06 0.0706433)
(3.25128e-06 -6.79985e-06 0.070715)
(-1.47334e-05 -2.17941e-07 0.0909301)
(1.22436e-05 4.70378e-07 0.0813664)
(1.36666e-05 1.54388e-07 0.0908687)
(-1.15845e-05 -1.83678e-06 0.0814334)
(9.7296e-07 -7.29746e-07 0.113199)
(-1.04965e-06 1.06203e-06 0.113208)
(1.17064e-06 1.22132e-06 0.113215)
(-1.13611e-06 -9.96792e-07 0.113199)
(8.93118e-07 -7.40738e-07 0.113195)
(-1.05897e-06 1.06204e-06 0.113204)
(1.18244e-06 1.18768e-06 0.113211)
(2.24927e-05 -2.57704e-07 0.0986714)
(-1.71895e-05 6.73347e-06 0.0925415)
(-6.97805e-07 1.58932e-07 0.110997)
(-8.14352e-07 1.67393e-06 0.108445)
(-2.11031e-05 4.20225e-07 0.0985865)
(1.62965e-05 -7.73698e-06 0.0926212)
(-9.19789e-07 1.69878e-07 0.110995)
(6.89677e-06 -3.19154e-06 0.070636)
(-6.54128e-06 3.68353e-06 0.0707122)
(-6.99221e-07 2.2353e-05 0.0986705)
(-1.49617e-07 -6.48983e-07 0.111007)
(6.56925e-06 -1.75511e-05 0.0925288)
(1.35972e-06 -8.55527e-07 0.108459)
(1.30565e-08 -2.12154e-05 0.0985845)
(-1.29952e-07 -7.99616e-07 0.111005)
(-7.77508e-06 1.61593e-05 0.0926077)
(-8.62429e-06 -6.1357e-06 0.0868224)
(-6.65699e-06 -8.31324e-06 0.0868187)
(4.47562e-05 4.49606e-05 0.105078)
(7.64644e-06 6.79593e-06 0.0868897)
(6.14772e-06 7.98994e-06 0.0868853)
(-4.78919e-07 -1.46232e-05 0.0909146)
(6.95145e-07 1.21824e-05 0.0813558)
(-2.65642e-07 1.36857e-05 0.0908517)
(-1.56577e-06 -1.17387e-05 0.0814214)
(-3.73212e-06 6.71776e-06 0.0706438)
(3.23083e-06 -6.85972e-06 0.0707159)
(-1.46977e-05 -4.12001e-07 0.0909308)
(1.23688e-05 3.25056e-07 0.0813673)
(1.36556e-05 -9.73958e-09 0.0908697)
(-1.15516e-05 -1.87449e-06 0.081434)
(9.38655e-07 -8.41405e-07 0.113198)
(-1.10395e-06 1.13101e-06 0.113207)
(1.19854e-06 1.23283e-06 0.113214)
(-1.07032e-06 -1.17903e-06 0.113198)
(8.16158e-07 -9.11822e-07 0.113193)
(-1.05594e-06 1.06745e-06 0.113203)
(1.18745e-06 1.18264e-06 0.113209)
(2.23392e-05 -4.13465e-07 0.0986702)
(-1.74035e-05 6.47999e-06 0.0925413)
(-8.12719e-07 1.36203e-07 0.110997)
(-9.60873e-07 1.57755e-06 0.108443)
(-2.12987e-05 3.41849e-07 0.0985857)
(1.60582e-05 -8.09218e-06 0.0926208)
(-1.03864e-06 1.2286e-07 0.110994)
(6.97598e-06 -3.11443e-06 0.0706373)
(-6.48088e-06 3.81081e-06 0.0707136)
(-6.40154e-07 2.25378e-05 0.0986715)
(-1.13177e-07 -6.81865e-07 0.111006)
(6.95589e-06 -1.72645e-05 0.0925295)
(1.40695e-06 -7.54794e-07 0.108459)
(9.53179e-08 -2.12003e-05 0.0985859)
(-8.02153e-08 -8.62343e-07 0.111004)
(-7.49056e-06 1.64545e-05 0.0926087)
(-8.7283e-06 -5.92238e-06 0.086823)
(-6.82759e-06 -8.28059e-06 0.0868189)
(4.50584e-05 4.54315e-05 0.105078)
(7.68505e-06 6.93721e-06 0.0868902)
(5.98724e-06 8.21526e-06 0.0868857)
(-3.11823e-07 -1.48507e-05 0.0909171)
(9.2538e-07 1.20372e-05 0.0813569)
(-8.54304e-08 1.35042e-05 0.0908537)
(-1.35667e-06 -1.18398e-05 0.0814226)
(-3.87467e-06 6.68994e-06 0.0706442)
(3.07098e-06 -6.85201e-06 0.070716)
(-1.4594e-05 -2.95935e-07 0.0909306)
(1.24106e-05 3.46737e-07 0.0813673)
(1.37944e-05 3.0258e-08 0.0908697)
(-1.1505e-05 -1.8792e-06 0.0814336)
(8.50279e-07 -1.04254e-06 0.113197)
(-1.11261e-06 1.11974e-06 0.113207)
(1.21062e-06 1.22347e-06 0.113214)
(-1.03577e-06 -1.20756e-06 0.113198)
(7.85971e-07 -1.06325e-06 0.113192)
(-1.08853e-06 1.04348e-06 0.113202)
(1.15095e-06 1.11646e-06 0.113208)
(2.21128e-05 -4.80749e-07 0.0986684)
(-1.77409e-05 6.36889e-06 0.0925406)
(-1.0213e-06 3.89083e-08 0.110996)
(-1.22862e-06 1.33837e-06 0.108442)
(-2.15927e-05 2.05153e-07 0.0985841)
(1.5783e-05 -8.08167e-06 0.0926199)
(-1.25231e-06 4.15629e-08 0.110993)
(7.02415e-06 -2.96393e-06 0.0706384)
(-6.39581e-06 3.98917e-06 0.0707147)
(-6.24559e-07 2.25377e-05 0.098672)
(-9.57876e-08 -7.85047e-07 0.111005)
(6.98514e-06 -1.71276e-05 0.0925308)
(1.35299e-06 -8.23517e-07 0.108458)
(1.01568e-07 -2.12051e-05 0.0985869)
(-1.21568e-07 -1.03378e-06 0.111002)
(-7.47189e-06 1.64351e-05 0.0926102)
(-8.80026e-06 -5.96233e-06 0.0868228)
(-7.04602e-06 -7.93403e-06 0.0868202)
(4.49325e-05 4.53734e-05 0.105079)
(7.49186e-06 6.78546e-06 0.0868899)
(5.8e-06 8.36788e-06 0.0868874)
(-2.7928e-07 -1.48798e-05 0.0909195)
(9.65238e-07 1.20356e-05 0.0813584)
(-5.97268e-10 1.33624e-05 0.0908565)
(-1.50661e-06 -1.17599e-05 0.0814243)
(-3.83428e-06 6.73069e-06 0.0706441)
(3.27366e-06 -6.80335e-06 0.0707159)
(-1.45797e-05 -1.1053e-07 0.0909298)
(1.23796e-05 3.12786e-07 0.0813666)
(1.37e-05 4.08279e-08 0.0908692)
(-1.14256e-05 -1.99627e-06 0.0814327)
(9.11499e-07 -1.14172e-06 0.113197)
(-1.15116e-06 1.10883e-06 0.113207)
(1.16138e-06 1.11012e-06 0.113213)
(-9.63401e-07 -1.15732e-06 0.113197)
(9.00082e-07 -1.1178e-06 0.113191)
(-1.07271e-06 1.05355e-06 0.113201)
(1.05791e-06 1.02789e-06 0.113207)
(2.19931e-05 -4.05611e-07 0.0986675)
(-1.78367e-05 6.57338e-06 0.0925396)
(-9.67426e-07 -1.10875e-07 0.110995)
(-1.35094e-06 1.39645e-06 0.108441)
(-2.17086e-05 2.67468e-07 0.0985828)
(1.57773e-05 -7.65119e-06 0.0926188)
(-1.20603e-06 -1.74493e-07 0.110992)
(7.03281e-06 -2.96868e-06 0.0706391)
(-6.36604e-06 3.92216e-06 0.0707152)
(-4.78022e-07 2.234e-05 0.0986723)
(-2.08032e-07 -7.9806e-07 0.111004)
(6.96019e-06 -1.72685e-05 0.0925321)
(1.38711e-06 -8.44477e-07 0.108457)
(2.63271e-07 -2.11839e-05 0.0985873)
(-2.46115e-07 -1.05456e-06 0.111)
(-7.52757e-06 1.6386e-05 0.0926113)
(-8.81935e-06 -6.07818e-06 0.0868227)
(-6.75474e-06 -8.13649e-06 0.0868217)
(4.5002e-05 4.5361e-05 0.105079)
(7.72594e-06 6.62975e-06 0.0868902)
(6.28268e-06 8.14209e-06 0.0868889)
(-4.64405e-07 -1.4611e-05 0.0909207)
(6.38326e-07 1.23006e-05 0.0813598)
(-1.61316e-07 1.35159e-05 0.0908582)
(-1.74913e-06 -1.15548e-05 0.0814255)
(-3.43416e-06 6.9571e-06 0.0706432)
(3.80005e-06 -6.48708e-06 0.0707147)
(-1.42838e-05 -2.28585e-07 0.0909271)
(1.26092e-05 1.49926e-07 0.0813649)
(1.39747e-05 1.26502e-07 0.0908677)
(-1.1315e-05 -2.05217e-06 0.081431)
(9.68396e-07 -1.17233e-06 0.113198)
(-1.14186e-06 1.08707e-06 0.113208)
(1.08701e-06 1.04888e-06 0.113213)
(-9.07358e-07 -1.04792e-06 0.113198)
(9.17901e-07 -1.17437e-06 0.113191)
(-1.11296e-06 9.73307e-07 0.113201)
(1.02001e-06 8.15967e-07 0.113205)
(2.19989e-05 -4.08691e-07 0.098667)
(-1.75753e-05 7.0011e-06 0.0925385)
(-1.03489e-06 -2.42566e-07 0.110996)
(-1.31051e-06 1.41251e-06 0.108441)
(-2.16778e-05 2.7138e-07 0.0985821)
(1.60676e-05 -7.38397e-06 0.0926183)
(-1.33871e-06 -2.42375e-07 0.110991)
(7.03662e-06 -3.07e-06 0.0706389)
(-6.50433e-06 3.69922e-06 0.070715)
(-4.84375e-07 2.23672e-05 0.0986725)
(-2.82505e-07 -8.58997e-07 0.111003)
(7.00065e-06 -1.73665e-05 0.092533)
(1.41562e-06 -1.0451e-06 0.108457)
(2.06609e-07 -2.122e-05 0.0985874)
(-3.74738e-07 -1.19505e-06 0.110999)
(-7.46642e-06 1.63131e-05 0.092612)
(-8.49677e-06 -6.37192e-06 0.086823)
(-6.40432e-06 -8.38615e-06 0.0868232)
(4.48615e-05 4.51171e-05 0.105078)
(7.89867e-06 6.32594e-06 0.0868905)
(6.44403e-06 7.89343e-06 0.0868901)
(-5.35894e-07 -1.44665e-05 0.0909204)
(5.34931e-07 1.23574e-05 0.0813603)
(-1.39012e-07 1.38047e-05 0.0908585)
(-1.70822e-06 -1.15089e-05 0.0814258)
(-3.01624e-06 7.13571e-06 0.0706414)
(3.99775e-06 -6.36002e-06 0.0707131)
(-1.42818e-05 -3.3301e-07 0.0909242)
(1.26854e-05 6.44754e-08 0.0813632)
(1.40773e-05 6.30725e-08 0.0908644)
(-1.1225e-05 -2.17025e-06 0.0814294)
(9.93442e-07 -1.27935e-06 0.113199)
(-1.18784e-06 9.78787e-07 0.113209)
(1.07267e-06 8.2121e-07 0.113213)
(-8.96888e-07 -1.05773e-06 0.113198)
(8.64641e-07 -1.31041e-06 0.113191)
(-1.15963e-06 7.50288e-07 0.1132)
(9.77775e-07 6.37335e-07 0.113203)
(2.20742e-05 -4.12653e-07 0.0986672)
(-1.74017e-05 6.99115e-06 0.0925385)
(-1.04368e-06 -3.48036e-07 0.110997)
(-1.33336e-06 1.39328e-06 0.108441)
(-2.17215e-05 3.76947e-07 0.0985822)
(1.62693e-05 -7.35442e-06 0.0926184)
(-1.36422e-06 -4.07247e-07 0.110991)
(7.00619e-06 -3.19264e-06 0.0706383)
(-6.45133e-06 3.69229e-06 0.0707147)
(-4.65055e-07 2.21739e-05 0.0986722)
(-5.01261e-07 -9.88402e-07 0.111003)
(6.9546e-06 -1.74543e-05 0.0925331)
(1.3439e-06 -1.23349e-06 0.108457)
(1.98319e-07 -2.13068e-05 0.0985875)
(-5.0958e-07 -1.42293e-06 0.110997)
(-7.58462e-06 1.61824e-05 0.0926116)