/*--------------------------------*- C++ -*----------------------------------*\
| =========                 |                                                 |
| \\      /  F ield         | OpenFOAM: The Open Source CFD Toolbox           |
|  \\    /   O peration     | Version:  v1906                                 |
|   \\  /    A nd           | Web:      www.OpenFOAM.com                      |
|    \\/     M anipulation  |                                                 |
\*---------------------------------------------------------------------------*/
FoamFile
{
    version     2.0;
    format      ascii;
    class       volScalarField;
    location    "125";
    object      nut;
}
// * * * * * * * * * * * * * * * * * * * * * * * * * * * * * * * * * * * * * //

dimensions      [0 2 -1 0 0 0 0];


internalField   nonuniform List<scalar> 
42840
(
0.00012476
9.58739e-05
9.58695e-05
9.0769e-05
9.08779e-05
9.08066e-05
9.08058e-05
9.58553e-05
9.58377e-05
9.58541e-05
9.58379e-05
9.07602e-05
9.08584e-05
9.58627e-05
9.58353e-05
9.58614e-05
9.58341e-05
9.58563e-05
9.58739e-05
9.58576e-05
9.07817e-05
9.0793e-05
9.58641e-05
9.58682e-05
9.58655e-05
9.09055e-05
9.58571e-05
9.58649e-05
7.80446e-05
4.9525e-05
4.95254e-05
7.80328e-05
2.35453e-05
2.35462e-05
7.8052e-05
4.95218e-05
4.95223e-05
7.80405e-05
0.000124762
0.000124754
0.000124761
0.000124758
0.00012476
0.000124752
0.000124759
8.51712e-05
7.5779e-05
0.000108109
9.5874e-05
7.57902e-05
0.000108108
8.51636e-05
2.3543e-05
2.3544e-05
8.51657e-05
0.000108115
7.57836e-05
9.58689e-05
0.000108114
7.57949e-05
8.51626e-05
6.54976e-05
6.54985e-05
9.0782e-05
6.5503e-05
6.55039e-05
6.54976e-05
6.54985e-05
2.35459e-05
2.35468e-05
2.35445e-05
2.35454e-05
6.54988e-05
6.54976e-05
9.08577e-05
6.5504e-05
6.5503e-05
2.35468e-05
2.35459e-05
2.35454e-05
2.35445e-05
9.08194e-05
6.5504e-05
6.55029e-05
6.54986e-05
6.54975e-05
7.80477e-05
4.95256e-05
4.9526e-05
7.80358e-05
8.51614e-05
7.57841e-05
0.000108104
9.58546e-05
7.5796e-05
0.000108103
8.51646e-05
8.51643e-05
7.57849e-05
0.000108096
9.58378e-05
7.57968e-05
0.000108095
8.51674e-05
7.80326e-05
4.95255e-05
4.9525e-05
7.80448e-05
7.80356e-05
4.9526e-05
4.95256e-05
7.80479e-05
8.51634e-05
9.58544e-05
7.57948e-05
0.000108102
7.57835e-05
0.000108103
8.51686e-05
8.51661e-05
9.58384e-05
7.57957e-05
0.000108094
7.57841e-05
0.000108095
8.51716e-05
6.54975e-05
6.54899e-05
9.08327e-05
6.55029e-05
6.54955e-05
2.35457e-05
2.35466e-05
2.35462e-05
2.35453e-05
9.0841e-05
6.55028e-05
6.54954e-05
6.54973e-05
6.54897e-05
2.35466e-05
2.35457e-05
8.51711e-05
7.57788e-05
0.000108104
9.58619e-05
7.57911e-05
0.000108104
8.51672e-05
7.80487e-05
4.95179e-05
4.95184e-05
7.80375e-05
8.51686e-05
0.000108096
7.57693e-05
9.58348e-05
0.000108095
7.57796e-05
8.51638e-05
7.80402e-05
4.95223e-05
4.95219e-05
7.8052e-05
8.51718e-05
9.58616e-05
7.57892e-05
0.000108102
7.57797e-05
0.000108103
8.51701e-05
7.80373e-05
4.95184e-05
4.95179e-05
7.80487e-05
8.51698e-05
9.58348e-05
0.000108094
7.57792e-05
0.000108095
7.57713e-05
8.5167e-05
7.80478e-05
4.95244e-05
4.95248e-05
7.80359e-05
8.51683e-05
0.000108108
7.57822e-05
9.58566e-05
0.000108107
7.57948e-05
8.51627e-05
7.80458e-05
4.95211e-05
4.95215e-05
7.8034e-05
8.51706e-05
9.58745e-05
7.57887e-05
0.000108106
7.57813e-05
0.000108108
8.51657e-05
7.80357e-05
4.95249e-05
4.95244e-05
7.80478e-05
8.51682e-05
9.58577e-05
0.000108106
7.57934e-05
0.000108107
7.57823e-05
8.51646e-05
7.80337e-05
4.95216e-05
4.95211e-05
7.80458e-05
6.54842e-05
6.54987e-05
9.08656e-05
6.54898e-05
6.55039e-05
2.35449e-05
2.35458e-05
2.3544e-05
2.3543e-05
9.08451e-05
6.54898e-05
6.55039e-05
6.5484e-05
6.54984e-05
2.35458e-05
2.35449e-05
8.51692e-05
0.00010811
7.57839e-05
9.58645e-05
0.000108109
7.57958e-05
8.51661e-05
7.80449e-05
4.95208e-05
4.95213e-05
7.80331e-05
7.805e-05
4.95214e-05
4.95219e-05
7.80394e-05
8.51654e-05
9.5869e-05
0.000108113
7.57943e-05
0.000108114
7.57822e-05
8.51651e-05
8.51695e-05
9.58656e-05
0.000108108
7.57944e-05
0.000108109
7.57831e-05
8.51683e-05
7.80329e-05
4.95213e-05
4.95208e-05
7.8045e-05
7.80392e-05
4.95219e-05
4.95214e-05
7.80501e-05
2.35447e-05
2.35456e-05
2.35442e-05
2.35451e-05
9.08171e-05
6.55029e-05
6.55038e-05
6.54975e-05
6.54983e-05
2.35456e-05
2.35447e-05
2.35451e-05
2.35442e-05
0.000108105
7.57809e-05
8.51584e-05
4.95211e-05
7.80345e-05
7.5782e-05
4.95214e-05
2.35447e-05
2.35442e-05
3.61628e-05
4.03796e-05
7.69261e-05
7.80326e-05
4.03791e-05
7.69153e-05
3.61635e-05
2.01199e-05
4.95254e-05
7.07989e-05
7.0812e-05
2.01187e-05
2.01187e-05
7.08121e-05
4.9525e-05
7.07989e-05
2.01199e-05
3.61635e-05
7.80442e-05
4.03791e-05
7.69153e-05
4.03796e-05
7.69258e-05
3.61628e-05
2.35462e-05
2.35453e-05
3.61645e-05
7.69381e-05
4.03793e-05
7.80407e-05
7.69275e-05
4.03789e-05
3.61651e-05
2.01211e-05
4.95223e-05
7.08204e-05
7.08322e-05
2.01199e-05
2.01199e-05
7.08323e-05
4.95219e-05
7.08204e-05
2.01211e-05
3.61651e-05
7.80515e-05
7.69276e-05
4.03789e-05
7.69379e-05
4.03793e-05
3.61645e-05
2.3544e-05
2.3543e-05
7.33971e-05
2.14798e-05
2.14769e-05
2.14788e-05
2.1476e-05
7.34037e-05
8.19997e-05
8.54141e-05
6.55029e-05
4.72778e-05
8.54289e-05
4.72783e-05
8.19899e-05
8.20357e-05
8.54165e-05
6.55038e-05
4.72697e-05
8.54313e-05
4.72702e-05
8.2026e-05
8.19898e-05
4.72783e-05
6.54976e-05
8.54294e-05
8.54136e-05
4.72778e-05
8.19996e-05
8.20259e-05
4.72702e-05
6.54984e-05
8.5432e-05
8.54161e-05
4.72697e-05
8.20355e-05
7.34037e-05
2.14788e-05
2.1476e-05
2.14798e-05
2.14769e-05
7.3397e-05
8.19994e-05
8.54139e-05
4.72778e-05
6.55028e-05
8.19897e-05
8.54246e-05
4.72783e-05
8.20332e-05
8.54166e-05
4.72697e-05
6.55036e-05
8.20258e-05
8.54268e-05
4.72702e-05
7.34036e-05
2.14788e-05
2.1476e-05
7.3397e-05
2.14797e-05
2.14769e-05
2.35468e-05
2.35459e-05
2.35454e-05
2.35445e-05
7.33961e-05
2.14798e-05
2.14766e-05
2.14788e-05
2.14757e-05
7.34027e-05
8.20026e-05
8.54155e-05
6.5504e-05
4.72783e-05
4.72789e-05
8.54299e-05
8.1993e-05
8.20326e-05
8.54152e-05
6.55029e-05
4.72683e-05
4.72688e-05
8.54299e-05
8.20231e-05
8.19928e-05
4.72789e-05
6.54987e-05
8.54303e-05
4.72783e-05
8.20023e-05
8.54147e-05
8.20229e-05
4.72688e-05
6.54976e-05
8.54302e-05
4.72683e-05
8.20324e-05
8.54144e-05
7.34027e-05
2.14788e-05
2.14757e-05
2.14798e-05
2.14766e-05
7.3396e-05
2.35459e-05
2.35468e-05
2.35445e-05
2.35454e-05
7.34028e-05
2.14788e-05
2.14757e-05
7.33961e-05
2.14798e-05
2.14766e-05
8.19931e-05
8.54302e-05
6.54986e-05
4.72789e-05
4.72784e-05
8.54145e-05
8.20022e-05
8.20232e-05
8.54302e-05
6.54975e-05
4.72688e-05
4.72683e-05
8.54142e-05
8.20324e-05
8.20025e-05
4.72783e-05
8.54141e-05
6.55039e-05
8.19929e-05
4.72789e-05
8.54296e-05
8.20326e-05
4.72683e-05
8.54138e-05
6.55029e-05
8.2023e-05
4.72688e-05
8.54296e-05
7.3396e-05
2.14798e-05
2.14766e-05
2.14788e-05
2.14757e-05
7.34027e-05
3.61647e-05
4.03798e-05
7.69394e-05
7.80356e-05
4.03793e-05
7.69288e-05
3.61653e-05
2.01209e-05
4.9526e-05
7.08222e-05
7.08345e-05
2.01197e-05
2.01197e-05
7.08346e-05
4.95256e-05
7.08222e-05
2.01209e-05
3.61653e-05
7.80473e-05
4.03793e-05
7.69289e-05
4.03798e-05
7.69392e-05
3.61647e-05
3.61635e-05
4.03791e-05
7.69153e-05
7.80446e-05
3.61628e-05
4.03796e-05
7.6926e-05
2.01187e-05
4.9525e-05
7.08122e-05
2.01199e-05
7.07991e-05
2.01199e-05
7.0799e-05
4.95254e-05
2.01187e-05
7.08121e-05
3.61628e-05
7.80329e-05
4.03796e-05
7.69262e-05
3.61635e-05
4.03791e-05
7.69154e-05
3.61653e-05
4.03793e-05
7.69289e-05
7.80477e-05
3.61647e-05
4.03798e-05
7.69395e-05
2.01197e-05
4.95256e-05
7.08348e-05
7.08224e-05
2.01209e-05
2.01209e-05
7.08223e-05
4.9526e-05
2.01197e-05
7.08347e-05
3.61647e-05
7.80359e-05
4.03798e-05
7.69396e-05
4.03793e-05
7.69291e-05
3.61653e-05
7.33963e-05
2.14774e-05
2.14798e-05
2.14764e-05
2.14788e-05
7.3403e-05
8.20343e-05
8.54128e-05
6.55028e-05
4.72702e-05
4.72707e-05
8.54279e-05
8.20245e-05
8.20013e-05
8.54118e-05
6.54954e-05
4.72774e-05
8.54262e-05
4.72779e-05
8.19918e-05
8.20242e-05
4.72707e-05
6.54974e-05
8.54283e-05
4.72702e-05
8.54122e-05
8.20341e-05
8.19916e-05
4.72779e-05
6.54898e-05
8.54267e-05
8.54111e-05
4.72773e-05
8.20011e-05
7.3403e-05
2.14764e-05
2.14788e-05
2.14774e-05
2.14798e-05
7.33962e-05
2.35466e-05
2.35457e-05
2.35453e-05
2.35462e-05
7.3403e-05
2.14764e-05
2.14788e-05
7.33962e-05
2.14773e-05
2.14798e-05
8.20245e-05
8.54281e-05
6.54973e-05
4.72707e-05
8.54119e-05
4.72702e-05
8.20339e-05
8.19918e-05
8.54265e-05
6.54897e-05
4.72779e-05
4.72774e-05
8.5411e-05
8.2001e-05
8.20342e-05
4.72702e-05
8.54115e-05
6.55027e-05
8.54275e-05
8.20244e-05
4.72707e-05
8.20012e-05
4.72773e-05
8.54106e-05
6.54953e-05
8.19917e-05
4.72779e-05
8.54261e-05
7.33962e-05
2.14773e-05
2.14798e-05
2.14764e-05
2.14788e-05
7.3403e-05
2.35457e-05
2.35466e-05
3.6162e-05
4.03791e-05
7.69244e-05
7.80374e-05
4.03787e-05
7.69135e-05
3.61626e-05
2.01195e-05
4.95184e-05
7.0795e-05
7.08083e-05
2.01182e-05
2.01182e-05
7.08084e-05
4.95179e-05
7.0795e-05
2.01195e-05
3.61626e-05
7.80483e-05
4.03787e-05
7.69136e-05
4.03791e-05
7.69241e-05
3.6162e-05
3.61651e-05
7.69275e-05
4.03789e-05
7.80518e-05
3.61645e-05
7.69382e-05
4.03793e-05
2.01199e-05
4.95219e-05
7.08326e-05
2.01211e-05
7.08207e-05
2.01211e-05
7.08205e-05
4.95223e-05
2.01199e-05
7.08325e-05
3.61645e-05
7.80408e-05
7.69384e-05
4.03793e-05
3.61652e-05
7.69278e-05
4.03789e-05
3.61626e-05
4.03787e-05
7.69136e-05
7.80485e-05
3.6162e-05
4.03791e-05
7.69244e-05
2.01182e-05
4.9518e-05
7.08086e-05
7.07952e-05
2.01195e-05
2.01195e-05
7.07951e-05
4.95184e-05
2.01182e-05
7.08085e-05
3.6162e-05
7.80375e-05
4.03791e-05
7.69245e-05
4.03787e-05
7.69137e-05
3.61626e-05
3.61652e-05
7.69394e-05
4.03792e-05
7.80358e-05
7.69288e-05
4.03787e-05
3.61658e-05
2.01216e-05
4.95248e-05
7.08228e-05
7.08346e-05
2.01204e-05
2.01204e-05
7.08347e-05
4.95244e-05
7.08228e-05
2.01216e-05
3.61658e-05
7.80475e-05
7.69288e-05
4.03787e-05
7.69392e-05
4.03792e-05
3.61652e-05
3.61629e-05
4.03791e-05
7.69307e-05
7.80338e-05
4.03786e-05
7.69202e-05
3.61636e-05
2.01203e-05
4.95215e-05
7.08022e-05
7.08146e-05
2.01191e-05
2.01191e-05
7.08148e-05
4.95211e-05
7.08022e-05
2.01203e-05
3.61636e-05
7.80454e-05
4.03786e-05
7.69202e-05
4.03791e-05
7.69305e-05
3.61629e-05
3.61658e-05
7.69287e-05
4.03787e-05
7.80476e-05
3.61652e-05
7.69393e-05
4.03792e-05
2.01204e-05
4.95244e-05
7.08349e-05
7.08231e-05
2.01216e-05
2.01216e-05
7.08229e-05
4.95248e-05
2.01204e-05
7.08348e-05
3.61652e-05
7.80358e-05
7.69396e-05
4.03792e-05
7.69289e-05
4.03787e-05
3.61658e-05
3.61636e-05
4.03786e-05
7.69201e-05
7.80456e-05
3.61629e-05
4.03791e-05
7.69307e-05
2.01191e-05
4.95211e-05
7.0815e-05
7.08024e-05
2.01203e-05
2.01203e-05
7.08022e-05
4.95216e-05
2.01191e-05
7.08148e-05
3.61629e-05
7.80339e-05
4.03791e-05
7.69309e-05
4.03786e-05
7.69203e-05
3.61636e-05
7.33975e-05
2.14763e-05
2.14796e-05
2.14753e-05
2.14787e-05
7.34042e-05
8.20306e-05
8.54076e-05
6.54897e-05
4.72676e-05
4.72681e-05
8.54224e-05
8.20206e-05
8.20019e-05
8.5416e-05
6.55039e-05
4.72782e-05
8.54308e-05
4.72788e-05
8.1992e-05
8.20204e-05
4.72681e-05
6.54841e-05
8.5423e-05
4.72676e-05
8.54069e-05
8.20303e-05
8.19917e-05
4.72788e-05
6.54986e-05
8.54313e-05
8.54154e-05
4.72782e-05
8.20016e-05
7.34042e-05
2.14753e-05
2.14787e-05
2.14763e-05
2.14796e-05
7.33974e-05
2.35458e-05
2.35449e-05
2.3543e-05
2.3544e-05
7.34042e-05
2.14753e-05
2.14787e-05
7.33975e-05
2.14763e-05
2.14796e-05
8.20206e-05
8.54227e-05
6.54841e-05
4.72681e-05
8.54068e-05
4.72676e-05
8.20302e-05
8.1992e-05
8.5431e-05
6.54985e-05
4.72788e-05
4.72782e-05
8.5415e-05
8.20015e-05
8.20304e-05
4.72676e-05
8.54065e-05
6.54897e-05
8.54223e-05
8.20205e-05
4.72681e-05
8.20017e-05
4.72782e-05
8.54148e-05
6.55038e-05
8.19919e-05
4.72788e-05
8.54305e-05
7.33974e-05
2.14763e-05
2.14796e-05
2.14753e-05
2.14787e-05
7.34042e-05
2.35449e-05
2.35458e-05
3.6163e-05
7.69264e-05
4.03791e-05
7.80333e-05
7.69155e-05
4.03786e-05
3.61636e-05
2.01205e-05
4.95213e-05
7.0803e-05
7.08145e-05
2.01193e-05
2.01193e-05
7.08146e-05
4.95208e-05
7.0803e-05
2.01205e-05
3.61636e-05
7.80445e-05
7.69156e-05
4.03786e-05
7.69263e-05
4.03791e-05
3.6163e-05
3.61648e-05
7.69327e-05
4.03796e-05
7.80393e-05
7.69219e-05
4.03791e-05
3.61655e-05
2.01211e-05
4.95218e-05
7.08137e-05
7.08271e-05
2.01198e-05
2.01198e-05
7.08273e-05
4.95214e-05
7.08136e-05
2.01211e-05
3.61655e-05
7.80496e-05
7.6922e-05
4.03791e-05
7.69324e-05
4.03796e-05
3.61648e-05
3.61636e-05
7.69155e-05
4.03786e-05
7.80447e-05
3.6163e-05
7.69264e-05
4.03791e-05
2.01193e-05
4.95208e-05
7.08149e-05
7.08032e-05
2.01205e-05
2.01205e-05
7.0803e-05
4.95213e-05
2.01193e-05
7.08148e-05
3.6163e-05
7.80335e-05
7.69266e-05
4.03791e-05
7.69157e-05
4.03786e-05
3.61636e-05
3.61655e-05
7.6922e-05
4.03791e-05
7.80498e-05
3.61648e-05
7.69328e-05
4.03796e-05
2.01198e-05
4.95214e-05
7.08275e-05
7.08139e-05
2.01211e-05
2.01211e-05
7.08137e-05
4.95219e-05
2.01198e-05
7.08274e-05
3.61648e-05
7.80395e-05
7.69329e-05
4.03796e-05
7.69221e-05
4.03791e-05
3.61655e-05
2.35456e-05
2.35447e-05
2.35451e-05
2.35442e-05
7.34037e-05
2.14788e-05
2.1476e-05
7.3397e-05
2.14798e-05
2.14769e-05
8.199e-05
8.54289e-05
6.54975e-05
4.72783e-05
8.19994e-05
8.54132e-05
4.72778e-05
8.20261e-05
8.54314e-05
6.54984e-05
4.72702e-05
8.20352e-05
8.54158e-05
4.72697e-05
8.19997e-05
4.72778e-05
8.54131e-05
6.55029e-05
8.19899e-05
8.54286e-05
4.72783e-05
8.20356e-05
4.72697e-05
8.54157e-05
6.55037e-05
8.20261e-05
8.54313e-05
4.72702e-05
7.33969e-05
2.14798e-05
2.14769e-05
7.34036e-05
2.14788e-05
2.1476e-05
2.35447e-05
2.35456e-05
2.35442e-05
2.35451e-05
2.01203e-05
7.08023e-05
4.95216e-05
2.01191e-05
7.08148e-05
3.61636e-05
7.80427e-05
4.03786e-05
7.69202e-05
3.61629e-05
4.03791e-05
7.69308e-05
4.95219e-05
2.35456e-05
2.35451e-05
0.000147227
0.000147236
0.00012476
0.000147227
0.000147236
0.000167496
0.000167497
8.95337e-05
8.89716e-05
8.89778e-05
9.076e-05
8.8975e-05
8.89813e-05
8.95291e-05
8.95441e-05
8.8973e-05
8.89793e-05
9.08473e-05
8.95257e-05
8.89746e-05
8.89809e-05
8.95344e-05
8.89727e-05
8.898e-05
9.08465e-05
8.89764e-05
8.89835e-05
8.95317e-05
8.95312e-05
9.07777e-05
8.89757e-05
8.89828e-05
8.89714e-05
8.89787e-05
8.95354e-05
8.95342e-05
8.89741e-05
8.89713e-05
9.07799e-05
8.89753e-05
8.8978e-05
8.95306e-05
8.95302e-05
9.08555e-05
8.89789e-05
8.89762e-05
8.89758e-05
8.8973e-05
8.95335e-05
8.95325e-05
8.89717e-05
8.89744e-05
9.08259e-05
8.89783e-05
8.89756e-05
8.95285e-05
8.95271e-05
9.07932e-05
8.89741e-05
8.89768e-05
8.89704e-05
8.8973e-05
8.95312e-05
8.9532e-05
9.08785e-05
8.89781e-05
8.89844e-05
8.95341e-05
8.89752e-05
8.89814e-05
0.000147226
0.000147242
0.000124762
0.000147225
0.000147241
0.000167498
0.000167499
0.000147221
0.00014724
0.000124754
0.00014722
0.000147239
0.000167492
0.000167494
0.000147229
0.000147241
0.000124761
0.000147228
0.00014724
0.000167494
0.000167496
0.000124759
0.000147225
0.000147234
0.000147226
0.000147235
0.000167495
0.000167495
0.000124761
0.000147224
0.000147239
0.000147224
0.00014724
0.000167497
0.000167496
0.000124753
0.000147219
0.000147236
0.000147219
0.000147237
0.000167492
0.000167491
0.00012476
0.000147226
0.000147237
0.000147227
0.000147238
0.000167494
0.000167493
8.55725e-05
8.49633e-05
8.6204e-05
8.5168e-05
8.49617e-05
8.62055e-05
8.55641e-05
8.47922e-05
8.54559e-05
7.57887e-05
8.16325e-05
8.54604e-05
8.16336e-05
8.48013e-05
8.4793e-05
8.16318e-05
7.57803e-05
8.54606e-05
8.54553e-05
8.16309e-05
8.47861e-05
8.55649e-05
8.51663e-05
8.49566e-05
8.62032e-05
8.4961e-05
8.62008e-05
8.55728e-05
8.55705e-05
8.62034e-05
8.49512e-05
8.51637e-05
8.62055e-05
8.49521e-05
8.55621e-05
8.47949e-05
8.54605e-05
7.57954e-05
8.16276e-05
8.54652e-05
8.1627e-05
8.48021e-05
8.47954e-05
8.16226e-05
7.57832e-05
8.54651e-05
8.54598e-05
8.1623e-05
8.47878e-05
8.55631e-05
8.51641e-05
8.62035e-05
8.49527e-05
8.6201e-05
8.49548e-05
8.5571e-05
8.95319e-05
9.07414e-05
8.89776e-05
8.8984e-05
8.89725e-05
8.89787e-05
8.95366e-05
8.95301e-05
9.08458e-05
8.89761e-05
8.89832e-05
8.9533e-05
8.89725e-05
8.89798e-05
8.95341e-05
9.08044e-05
8.89714e-05
8.89787e-05
8.95296e-05
8.89751e-05
8.89822e-05
8.55718e-05
8.495e-05
8.61972e-05
8.51596e-05
8.4948e-05
8.61975e-05
8.55636e-05
8.47937e-05
8.5461e-05
7.5796e-05
8.16218e-05
8.16225e-05
8.54656e-05
8.48011e-05
8.47969e-05
8.16232e-05
7.57843e-05
8.54657e-05
8.16209e-05
8.54604e-05
8.47913e-05
8.5564e-05
8.51621e-05
8.49502e-05
8.61999e-05
8.495e-05
8.6195e-05
8.5572e-05
8.55748e-05
8.49591e-05
8.61985e-05
8.51626e-05
8.49572e-05
8.61988e-05
8.55664e-05
8.47929e-05
8.54573e-05
7.57969e-05
8.16327e-05
8.1634e-05
8.5462e-05
8.48003e-05
8.47957e-05
8.16345e-05
7.57848e-05
8.5462e-05
8.16321e-05
8.47896e-05
8.54567e-05
8.5567e-05
8.5165e-05
8.49593e-05
8.6201e-05
8.49596e-05
8.61962e-05
8.55751e-05
8.55639e-05
8.49505e-05
8.61998e-05
8.51674e-05
8.55715e-05
8.49536e-05
8.61997e-05
8.48038e-05
8.54652e-05
7.5783e-05
8.16265e-05
8.546e-05
8.16256e-05
8.47988e-05
8.47959e-05
8.16231e-05
8.546e-05
7.57951e-05
8.54652e-05
8.47982e-05
8.16262e-05
8.5571e-05
8.51684e-05
8.49546e-05
8.61977e-05
8.49533e-05
8.62014e-05
8.5563e-05
8.55669e-05
8.49588e-05
8.6201e-05
8.51701e-05
8.55745e-05
8.49623e-05
8.62008e-05
8.48024e-05
8.54616e-05
7.57837e-05
8.16393e-05
8.16372e-05
8.54563e-05
8.47984e-05
8.47934e-05
8.1634e-05
8.54562e-05
7.5796e-05
8.47957e-05
8.16376e-05
8.54616e-05
8.55742e-05
8.51712e-05
8.49655e-05
8.61988e-05
8.49622e-05
8.62026e-05
8.55662e-05
8.95309e-05
9.0791e-05
8.898e-05
8.89773e-05
8.89726e-05
8.89754e-05
8.95341e-05
8.95339e-05
9.08706e-05
8.89762e-05
8.89734e-05
8.89799e-05
8.95305e-05
8.89773e-05
8.55755e-05
8.49584e-05
8.62062e-05
8.51679e-05
8.49577e-05
8.62085e-05
8.55673e-05
8.47943e-05
8.54577e-05
7.57894e-05
8.16339e-05
8.16319e-05
8.54622e-05
8.48038e-05
8.47957e-05
8.1627e-05
7.57794e-05
8.54624e-05
8.16265e-05
8.54571e-05
8.47887e-05
8.55681e-05
8.5168e-05
8.49611e-05
8.62061e-05
8.49608e-05
8.62035e-05
8.55761e-05
8.5568e-05
8.62036e-05
8.4949e-05
8.5165e-05
8.62049e-05
8.49472e-05
8.55597e-05
8.47854e-05
8.54483e-05
7.57784e-05
8.16173e-05
8.16166e-05
8.54528e-05
8.47923e-05
8.47874e-05
8.16148e-05
7.57695e-05
8.54529e-05
8.16135e-05
8.47805e-05
8.54478e-05
8.55603e-05
8.51644e-05
8.62023e-05
8.49491e-05
8.62e-05
8.49489e-05
8.55682e-05
8.55678e-05
8.49578e-05
8.62072e-05
8.51737e-05
8.55752e-05
8.49614e-05
8.62038e-05
8.48051e-05
8.5462e-05
7.57784e-05
8.16415e-05
8.54569e-05
8.16366e-05
8.48012e-05
8.47944e-05
8.1627e-05
8.54568e-05
7.5791e-05
8.54621e-05
8.47952e-05
8.16335e-05
8.5575e-05
8.51713e-05
8.49675e-05
8.62007e-05
8.49622e-05
8.62046e-05
8.55674e-05
8.556e-05
8.62044e-05
8.49494e-05
8.51714e-05
8.55676e-05
8.62008e-05
8.49522e-05
8.47945e-05
8.54525e-05
7.57709e-05
8.16233e-05
8.16207e-05
8.54475e-05
8.47904e-05
8.47845e-05
8.16149e-05
8.54475e-05
7.5781e-05
8.47862e-05
8.16193e-05
8.54526e-05
8.55671e-05
8.5169e-05
8.61974e-05
8.49537e-05
8.62011e-05
8.49521e-05
8.55592e-05
8.55742e-05
8.6205e-05
8.49547e-05
8.51653e-05
8.62075e-05
8.49529e-05
8.55657e-05
8.47961e-05
8.54596e-05
7.5794e-05
8.16278e-05
8.54642e-05
8.16285e-05
8.48022e-05
8.47988e-05
8.16267e-05
7.57827e-05
8.54643e-05
8.5459e-05
8.16255e-05
8.47922e-05
8.55665e-05
8.51645e-05
8.62055e-05
8.49536e-05
8.62025e-05
8.49547e-05
8.55744e-05
8.55642e-05
8.49597e-05
8.62047e-05
8.51701e-05
8.55718e-05
8.4959e-05
8.62011e-05
8.4801e-05
8.54602e-05
7.57798e-05
8.164e-05
8.47981e-05
8.54551e-05
8.16352e-05
8.47906e-05
8.163e-05
8.5455e-05
7.57905e-05
8.47916e-05
8.54603e-05
8.16337e-05
8.55715e-05
8.51668e-05
8.49634e-05
8.61979e-05
8.55639e-05
8.49567e-05
8.62014e-05
8.55658e-05
8.62061e-05
8.49537e-05
8.51687e-05
8.55736e-05
8.62019e-05
8.4956e-05
8.48029e-05
8.54638e-05
7.57817e-05
8.16328e-05
8.16294e-05
8.54586e-05
8.47992e-05
8.47939e-05
8.16254e-05
8.54586e-05
7.57941e-05
8.47969e-05
8.16289e-05
8.54638e-05
8.55731e-05
8.51658e-05
8.61997e-05
8.49577e-05
8.62034e-05
8.49551e-05
8.55652e-05
8.9529e-05
9.08382e-05
8.89759e-05
8.89786e-05
8.8975e-05
8.89723e-05
8.95323e-05
8.95313e-05
9.0835e-05
8.89712e-05
8.89739e-05
8.89744e-05
8.95279e-05
8.8977e-05
8.55753e-05
8.62063e-05
8.49544e-05
8.51666e-05
8.62091e-05
8.4953e-05
8.5567e-05
8.47949e-05
8.54594e-05
7.57959e-05
8.16321e-05
8.54641e-05
8.16308e-05
8.4802e-05
8.47964e-05
8.16272e-05
7.57839e-05
8.54641e-05
8.54588e-05
8.16264e-05
8.47889e-05
8.55677e-05
8.51668e-05
8.62073e-05
8.49571e-05
8.62044e-05
8.49564e-05
8.55757e-05
8.55625e-05
8.62039e-05
8.49485e-05
8.51668e-05
8.55699e-05
8.62e-05
8.49508e-05
8.48024e-05
8.54647e-05
7.57822e-05
8.16346e-05
8.47994e-05
8.54594e-05
8.16297e-05
8.47919e-05
8.16218e-05
8.54593e-05
7.57941e-05
8.47928e-05
8.54647e-05
8.16267e-05
8.55698e-05
8.51651e-05
8.61976e-05
8.49605e-05
8.55621e-05
8.6201e-05
8.49521e-05
8.55676e-05
8.62072e-05
8.49543e-05
8.51709e-05
8.55751e-05
8.62029e-05
8.49584e-05
8.48033e-05
8.54637e-05
7.57825e-05
8.16392e-05
8.1635e-05
8.54585e-05
8.47998e-05
8.47926e-05
8.1627e-05
8.54584e-05
7.57948e-05
8.47942e-05
8.16326e-05
8.54637e-05
8.55751e-05
8.51691e-05
8.6201e-05
8.4963e-05
8.62047e-05
8.49591e-05
8.55673e-05
8.9537e-05
9.08667e-05
8.89747e-05
8.89809e-05
8.95337e-05
8.8979e-05
8.89854e-05
8.47961e-05
8.54579e-05
8.16304e-05
7.57928e-05
8.54625e-05
8.48043e-05
8.1635e-05
8.55643e-05
8.51771e-05
8.62014e-05
8.49453e-05
8.61997e-05
8.55726e-05
8.49694e-05
8.54578e-05
7.57939e-05
8.54624e-05
0.000124771
9.58701e-05
9.58657e-05
9.08401e-05
0.000124768
9.58713e-05
9.58666e-05
9.09036e-05
0.000124768
9.58738e-05
9.5869e-05
9.08617e-05
0.000124774
9.58756e-05
9.58713e-05
9.07817e-05
0.000124766
9.58724e-05
9.58674e-05
9.07233e-05
0.000124761
9.58674e-05
9.58625e-05
9.07296e-05
0.00012476
9.5867e-05
9.58618e-05
9.07904e-05
0.00012476
9.58681e-05
9.58625e-05
9.08698e-05
0.00012476
9.58692e-05
9.5864e-05
9.0892e-05
0.000124759
9.58731e-05
9.58682e-05
9.0861e-05
0.000124759
9.58737e-05
9.58687e-05
9.07984e-05
0.000124759
9.58738e-05
9.58683e-05
9.07637e-05
0.00012476
9.58741e-05
9.58685e-05
9.07727e-05
0.00012476
9.58732e-05
9.58678e-05
9.08042e-05
0.00012476
9.58725e-05
9.58674e-05
9.08481e-05
0.00012476
9.58722e-05
9.58674e-05
9.08591e-05
0.00012476
9.58722e-05
9.58677e-05
9.08613e-05
0.00012476
9.5873e-05
9.58678e-05
9.0849e-05
0.00012476
9.58742e-05
9.58681e-05
9.07905e-05
0.00012476
9.58741e-05
9.58682e-05
9.07522e-05
0.00012476
9.58735e-05
9.5868e-05
9.07561e-05
0.00012476
9.58729e-05
9.58675e-05
9.07984e-05
0.00012476
9.5873e-05
9.58675e-05
9.08723e-05
0.000124761
9.5875e-05
9.58692e-05
9.08562e-05
0.000124761
9.58749e-05
9.58699e-05
9.07522e-05
9.08496e-05
9.08925e-05
9.58476e-05
9.5834e-05
9.58498e-05
9.58359e-05
9.08412e-05
9.0893e-05
9.58587e-05
9.5831e-05
9.58606e-05
9.58327e-05
9.58541e-05
9.5872e-05
9.58559e-05
9.0839e-05
9.08891e-05
9.58631e-05
9.58674e-05
9.5865e-05
9.0898e-05
9.09027e-05
9.08032e-05
9.58493e-05
9.58354e-05
9.58495e-05
9.58351e-05
9.09017e-05
9.07994e-05
9.58605e-05
9.58322e-05
9.58608e-05
9.58315e-05
9.58553e-05
9.5871e-05
9.58556e-05
9.08981e-05
9.07959e-05
9.58642e-05
9.5866e-05
9.58649e-05
9.0813e-05
9.08542e-05
9.07435e-05
9.58532e-05
9.58375e-05
9.58533e-05
9.58376e-05
9.08505e-05
9.07397e-05
9.58639e-05
9.5835e-05
9.58634e-05
9.58354e-05
9.58581e-05
9.5874e-05
9.58577e-05
9.08471e-05
9.07371e-05
9.58665e-05
9.58695e-05
9.58665e-05
9.07456e-05
9.07726e-05
9.07481e-05
9.58547e-05
9.58396e-05
9.585e-05
9.58352e-05
9.07666e-05
9.07471e-05
9.58647e-05
9.58372e-05
9.58602e-05
9.58332e-05
9.58595e-05
9.58721e-05
9.58552e-05
9.07639e-05
9.07446e-05
9.58684e-05
9.58673e-05
9.5864e-05
9.07435e-05
9.07215e-05
9.07952e-05
9.58504e-05
9.58355e-05
9.58468e-05
9.58314e-05
9.07199e-05
9.07903e-05
9.58606e-05
9.58335e-05
9.58563e-05
9.58286e-05
9.58556e-05
9.58679e-05
9.58511e-05
9.07174e-05
9.07876e-05
9.58644e-05
9.58629e-05
9.58599e-05
9.07841e-05
9.07367e-05
9.08691e-05
9.58465e-05
9.58312e-05
9.58473e-05
9.58315e-05
9.07329e-05
9.08599e-05
9.58558e-05
9.58284e-05
9.58566e-05
9.58287e-05
9.58511e-05
9.58679e-05
9.58514e-05
9.07302e-05
9.08575e-05
9.58598e-05
9.58628e-05
9.58602e-05
9.08627e-05
9.07975e-05
9.09053e-05
9.58467e-05
9.58308e-05
9.58494e-05
9.5833e-05
9.07877e-05
9.0902e-05
9.58562e-05
9.58279e-05
9.58596e-05
9.58296e-05
9.58507e-05
9.58695e-05
9.58535e-05
9.07854e-05
9.08988e-05
9.58594e-05
9.5864e-05
9.58621e-05
9.09095e-05
9.08606e-05
9.08973e-05
9.58483e-05
9.58321e-05
9.585e-05
9.58343e-05
9.08537e-05
9.08966e-05
9.58584e-05
9.58284e-05
9.58598e-05
9.58308e-05
9.58525e-05
9.58705e-05
9.58545e-05
9.08508e-05
9.08938e-05
9.58611e-05
9.58649e-05
9.5863e-05
9.08872e-05
9.08853e-05
9.08697e-05
9.58494e-05
9.58332e-05
9.58505e-05
9.58363e-05
9.08841e-05
9.08662e-05
9.58588e-05
9.58299e-05
9.58582e-05
9.58333e-05
9.58538e-05
9.58723e-05
9.58546e-05
9.08816e-05
9.08623e-05
9.58624e-05
9.58674e-05
9.58629e-05
9.08209e-05
9.08851e-05
9.0827e-05
9.5851e-05
9.5837e-05
9.58517e-05
9.58367e-05
9.08844e-05
9.08188e-05
9.58578e-05
9.58339e-05
9.58571e-05
9.58332e-05
9.58568e-05
9.58728e-05
9.58564e-05
9.08823e-05
9.08066e-05
9.5865e-05
9.58676e-05
9.58645e-05
9.07691e-05
9.0865e-05
9.07863e-05
9.58527e-05
9.58374e-05
9.58516e-05
9.58366e-05
9.0858e-05
9.07847e-05
9.58576e-05
9.5834e-05
9.58579e-05
9.58332e-05
9.58579e-05
9.58728e-05
9.58564e-05
9.08476e-05
9.07756e-05
9.58663e-05
9.58675e-05
9.58646e-05
9.07817e-05
9.08325e-05
9.07564e-05
9.58527e-05
9.58375e-05
9.58519e-05
9.58366e-05
9.08249e-05
9.07633e-05
9.58597e-05
9.58339e-05
9.58592e-05
9.58333e-05
9.58564e-05
9.5873e-05
9.58564e-05
9.08099e-05
9.07607e-05
9.58645e-05
9.58675e-05
9.58647e-05
9.08099e-05
9.0779e-05
9.07715e-05
9.58535e-05
9.58375e-05
9.58527e-05
9.58367e-05
9.07798e-05
9.07791e-05
9.58605e-05
9.58341e-05
9.58596e-05
9.5833e-05
9.58563e-05
9.5873e-05
9.58573e-05
9.07664e-05
9.07862e-05
9.58646e-05
9.58678e-05
9.58657e-05
9.08515e-05
9.07427e-05
9.08296e-05
9.58528e-05
9.58367e-05
9.58529e-05
9.58369e-05
9.07505e-05
9.08333e-05
9.58596e-05
9.58329e-05
9.586e-05
9.58333e-05
9.58564e-05
9.5873e-05
9.58569e-05
9.0751e-05
9.08556e-05
9.58648e-05
9.58683e-05
9.58653e-05
9.08802e-05
9.0778e-05
9.08791e-05
9.58523e-05
9.58363e-05
9.58526e-05
9.58367e-05
9.07857e-05
9.08757e-05
9.58594e-05
9.58326e-05
9.586e-05
9.58343e-05
9.58561e-05
9.58728e-05
9.58562e-05
9.08067e-05
9.08778e-05
9.58646e-05
9.58679e-05
9.58646e-05
9.08694e-05
9.08278e-05
9.08901e-05
9.5852e-05
9.5836e-05
9.58542e-05
9.58365e-05
9.0831e-05
9.08823e-05
9.58594e-05
9.58337e-05
9.58606e-05
9.58345e-05
9.58557e-05
9.58724e-05
9.58569e-05
9.08564e-05
9.08568e-05
9.5864e-05
9.58676e-05
9.58648e-05
9.0858e-05
9.08599e-05
9.08824e-05
9.58535e-05
9.58358e-05
9.58544e-05
9.58368e-05
9.0855e-05
9.08787e-05
9.586e-05
9.58342e-05
9.58611e-05
9.58339e-05
9.58567e-05
9.58731e-05
9.58576e-05
9.0856e-05
9.08329e-05
9.58645e-05
9.58674e-05
9.58657e-05
9.08273e-05
9.08717e-05
9.08609e-05
9.58537e-05
9.58363e-05
9.5854e-05
9.58376e-05
9.0867e-05
9.08597e-05
9.58608e-05
9.58336e-05
9.5862e-05
9.58336e-05
9.5858e-05
9.5874e-05
9.58566e-05
9.08423e-05
9.08134e-05
9.58663e-05
9.58677e-05
9.5865e-05
9.07741e-05
9.08679e-05
9.08083e-05
9.58537e-05
9.58374e-05
9.58536e-05
9.58371e-05
9.08657e-05
9.08033e-05
9.58617e-05
9.58337e-05
9.58612e-05
9.58338e-05
9.58567e-05
9.58734e-05
9.58566e-05
9.08267e-05
9.08163e-05
9.58651e-05
9.58681e-05
9.5865e-05
9.07784e-05
9.08268e-05
9.08087e-05
9.58538e-05
9.58374e-05
9.58537e-05
9.58373e-05
9.08191e-05
9.08188e-05
9.58615e-05
9.58341e-05
9.58613e-05
9.58341e-05
9.58569e-05
9.58735e-05
9.58568e-05
9.08111e-05
9.08524e-05
9.58655e-05
9.58683e-05
9.5865e-05
9.08042e-05
9.07941e-05
9.0878e-05
9.5854e-05
9.58375e-05
9.58544e-05
9.58376e-05
9.07963e-05
9.08819e-05
9.58616e-05
9.58342e-05
9.5862e-05
9.5834e-05
9.5857e-05
9.58738e-05
9.58574e-05
9.08097e-05
9.08735e-05
9.58652e-05
9.58683e-05
9.58653e-05
9.08586e-05
9.08288e-05
9.09194e-05
9.58539e-05
9.58369e-05
9.58552e-05
9.58383e-05
9.08211e-05
9.09207e-05
9.58616e-05
9.58335e-05
9.5863e-05
9.58346e-05
9.5857e-05
9.58745e-05
9.58586e-05
9.0806e-05
9.09135e-05
9.58649e-05
9.5869e-05
9.58666e-05
9.09011e-05
9.08757e-05
9.08952e-05
9.5854e-05
9.58371e-05
9.58557e-05
9.58387e-05
9.088e-05
9.08843e-05
9.58617e-05
9.58334e-05
9.58631e-05
9.5835e-05
9.58575e-05
9.58749e-05
9.5858e-05
9.08631e-05
9.0895e-05
9.58654e-05
9.58696e-05
9.58659e-05
9.08373e-05
9.08997e-05
9.08115e-05
9.58557e-05
9.5839e-05
9.58548e-05
9.58375e-05
9.08954e-05
9.07828e-05
9.58631e-05
9.5835e-05
9.58623e-05
9.58345e-05
9.58589e-05
9.58738e-05
9.58569e-05
9.08963e-05
9.08093e-05
9.58669e-05
9.5869e-05
9.58648e-05
9.07587e-05
9.08424e-05
9.07976e-05
9.58553e-05
9.58388e-05
9.58552e-05
9.58377e-05
9.08168e-05
9.079e-05
9.58629e-05
9.58352e-05
9.58627e-05
9.58349e-05
9.58576e-05
9.5874e-05
9.5857e-05
9.08413e-05
9.07802e-05
9.58655e-05
9.58692e-05
9.58649e-05
9.08209e-05
7.80353e-05
4.95238e-05
4.95247e-05
7.80229e-05
2.35451e-05
2.3546e-05
7.80473e-05
4.95223e-05
4.95226e-05
7.80346e-05
0.00012477
0.000124762
0.000124771
0.000124769
0.000124769
0.00012476
0.000124769
8.51738e-05
7.57694e-05
0.000108113
9.58689e-05
7.57822e-05
0.000108113
8.5178e-05
2.3543e-05
2.35439e-05
8.51765e-05
0.000108117
7.5774e-05
9.58645e-05
0.000108116
7.57883e-05
8.51797e-05
6.54934e-05
6.54939e-05
9.07271e-05
6.54994e-05
6.55e-05
7.80394e-05
4.95247e-05
7.80262e-05
4.95251e-05
2.3545e-05
2.35459e-05
7.80503e-05
4.95218e-05
7.80378e-05
4.9522e-05
0.000124768
0.000124759
0.000124769
0.000124767
0.000124766
0.000124759
0.000124767
8.51781e-05
7.57752e-05
0.000108111
9.58696e-05
8.51732e-05
7.57847e-05
0.00010811
2.35429e-05
2.35438e-05
8.51808e-05
0.000108115
7.57783e-05
9.58648e-05
8.51757e-05
0.000108114
7.57914e-05
6.54946e-05
6.54951e-05
9.07887e-05
6.55001e-05
6.55007e-05
7.80424e-05
4.95246e-05
7.80296e-05
4.9525e-05
2.35449e-05
2.35458e-05
7.80523e-05
4.95215e-05
7.80402e-05
4.95219e-05
0.000124767
0.00012476
0.000124767
0.000124771
0.00012477
0.000124763
0.00012477
8.5181e-05
7.57783e-05
0.000108112
9.58738e-05
8.51784e-05
7.57857e-05
0.000108114
2.35428e-05
2.35438e-05
8.51831e-05
0.000108117
7.57804e-05
9.58692e-05
8.51801e-05
0.000108119
7.57924e-05
6.54949e-05
6.54955e-05
9.08817e-05
6.55002e-05
6.55008e-05
7.80425e-05
4.95246e-05
7.80309e-05
4.9525e-05
2.35449e-05
2.35458e-05
7.80519e-05
4.95215e-05
7.80408e-05
4.95219e-05