/*--------------------------------*- C++ -*----------------------------------*\
| =========                 |                                                 |
| \\      /  F ield         | OpenFOAM: The Open Source CFD Toolbox           |
|  \\    /   O peration     | Version:  v1906                                 |
|   \\  /    A nd           | Web:      www.OpenFOAM.com                      |
|    \\/     M anipulation  |                                                 |
\*---------------------------------------------------------------------------*/
FoamFile
{
    version     2.0;
    format      ascii;
    class       volScalarField;
    location    "125";
    object      p;
}
// * * * * * * * * * * * * * * * * * * * * * * * * * * * * * * * * * * * * * //

dimensions      [0 2 -2 0 0 0 0];


internalField   nonuniform List<scalar> 
43024
(
0.00358302
0.00358335
0.00358335
0.0035864
0.00352766
0.00352808
0.00352808
0.00353107
0.00347691
0.00347688
0.00347688
0.00347964
0.00342452
0.00342454
0.00342454
0.00342731
0.00337317
0.00337318
0.00337318
0.00337593
0.0033232
0.00332321
0.00332321
0.00332592
0.00327467
0.00327469
0.00327468
0.00327737
0.00322744
0.00322746
0.00322746
0.00323011
0.00318131
0.00318133
0.00318133
0.00318395
0.00313608
0.0031361
0.0031361
0.00313869
0.00309156
0.00309159
0.00309159
0.00309415
0.00304765
0.00304767
0.00304767
0.00305022
0.00300426
0.00300428
0.00300428
0.00300679
0.00296133
0.00296134
0.00296134
0.00296385
0.00291883
0.00291884
0.00291884
0.00292134
0.00287673
0.00287674
0.00287674
0.00287923
0.00283503
0.00283502
0.00283502
0.0028375
0.00279368
0.00279367
0.00279367
0.00279614
0.00275267
0.00275265
0.00275265
0.00275512
0.00271197
0.00271194
0.00271195
0.0027144
0.00267156
0.00267153
0.00267152
0.00267398
0.00359642
0.00359665
0.00359665
0.00359642
0.00359665
0.00359665
0.00359741
0.00359741
0.00359742
0.00359741
0.00359665
0.00359665
0.00359642
0.00359665
0.00359665
0.00359642
0.0035864
0.00353764
0.00358334
0.00358334
0.00353992
0.00353992
0.0035864
0.00353764
0.00358335
0.00358334
0.00353992
0.00353992
0.00358334
0.00353992
0.00353992
0.0035864
0.00353764
0.00358335
0.00353992
0.00353992
0.00353764
0.00353107
0.00348656
0.00352808
0.00352808
0.00349001
0.00349001
0.00353107
0.00348656
0.00352808
0.00352808
0.00349001
0.00349001
0.00352808
0.00349001
0.00349001
0.00353107
0.00348656
0.00352808
0.00349001
0.00349001
0.00348656
0.00347964
0.00343419
0.00347688
0.00347688
0.00343755
0.00343755
0.00347964
0.00343419
0.00347688
0.00347688
0.00343755
0.00343755
0.00347688
0.00343755
0.00343755
0.00347964
0.00343419
0.00347688
0.00343755
0.00343755
0.00343419
0.00342731
0.00338264
0.00342454
0.00342454
0.0033859
0.0033859
0.00342731
0.00338264
0.00342454
0.00342454
0.0033859
0.0033859
0.00342454
0.0033859
0.0033859
0.00342731
0.00338264
0.00342454
0.0033859
0.0033859
0.00338264
0.00337593
0.00333243
0.00337318
0.00337318
0.00333556
0.00333556
0.00337593
0.00333243
0.00337318
0.00337318
0.00333556
0.00333556
0.00337318
0.00333556
0.00333556
0.00337593
0.00333243
0.00337318
0.00333556
0.00333556
0.00333242
0.00332593
0.00328367
0.00332321
0.00332321
0.00328669
0.00328669
0.00332593
0.00328367
0.00332321
0.00332321
0.00328669
0.00328669
0.00332321
0.00328669
0.00328669
0.00332593
0.00328367
0.00332321
0.00328669
0.00328669
0.00328367
0.00327737
0.00323625
0.00327469
0.00327469
0.00323916
0.00323916
0.00327737
0.00323624
0.00327469
0.00327469
0.00323916
0.00323916
0.00327469
0.00323916
0.00323916
0.00327737
0.00323624
0.00327469
0.00323916
0.00323916
0.00323624
0.00323011
0.00318994
0.00322746
0.00322746
0.00319277
0.00319277
0.00323011
0.00318994
0.00322746
0.00322746
0.00319277
0.00319277
0.00322746
0.00319277
0.00319277
0.00323011
0.00318994
0.00322746
0.00319277
0.00319277
0.00318994
0.00318395
0.00314457
0.00318133
0.00318133
0.00314733
0.00314733
0.00318395
0.00314456
0.00318133
0.00318133
0.00314733
0.00314733
0.00318133
0.00314733
0.00314733
0.00318395
0.00314457
0.00318133
0.00314733
0.00314733
0.00314457
0.00313869
0.00309993
0.0031361
0.0031361
0.00310265
0.00310265
0.00313869
0.00309993
0.0031361
0.0031361
0.00310265
0.00310265
0.0031361
0.00310266
0.00310266
0.00313869
0.00309993
0.0031361
0.00310265
0.00310266
0.00309993
0.00309415
0.00305592
0.00309159
0.00309159
0.0030586
0.0030586
0.00309415
0.00305592
0.00309159
0.00309159
0.0030586
0.0030586
0.00309159
0.0030586
0.0030586
0.00309415
0.00305592
0.00309159
0.0030586
0.0030586
0.00305592
0.00305022
0.00301243
0.00304767
0.00304767
0.00301508
0.00301508
0.00305021
0.00301242
0.00304767
0.00304767
0.00301508
0.00301508
0.00304767
0.00301508
0.00301508
0.00305022
0.00301242
0.00304767
0.00301508
0.00301508
0.00301242
0.00300679
0.00296941
0.00300428
0.00300428
0.00297204
0.00297204
0.00300679
0.00296941
0.00300428
0.00300428
0.00297204
0.00297204
0.00300428
0.00297204
0.00297204
0.00300679
0.00296941
0.00300428
0.00297204
0.00297204
0.00296941
0.00296385
0.00292685
0.00296134
0.00296134
0.00292943
0.00292943
0.00296385
0.00292685
0.00296134
0.00296134
0.00292943
0.00292943
0.00296134
0.00292943
0.00292943
0.00296385
0.00292685
0.00296134
0.00292943
0.00292943
0.00292685
0.00292134
0.00288469
0.00291884
0.00291884
0.00288723
0.00288723
0.00292134
0.00288469
0.00291884
0.00291884
0.00288723
0.00288723
0.00291884
0.00288723
0.00288723
0.00292134
0.00288469
0.00291884
0.00288723
0.00288723
0.00288469
0.00287923
0.00284292
0.00287674
0.00287674
0.00284542
0.00284542
0.00287923
0.00284292
0.00287674
0.00287674
0.00284542
0.00284542
0.00287674
0.00284542
0.00284542
0.00287923
0.00284292
0.00287674
0.00284542
0.00284542
0.00284292
0.0028375
0.00280151
0.00283502
0.00283502
0.00280398
0.00280398
0.0028375
0.00280151
0.00283502
0.00283502
0.00280398
0.00280398
0.00283502
0.00280398
0.00280398
0.0028375
0.00280151
0.00283502
0.00280398
0.00280398
0.00280152
0.00279614
0.00276045
0.00279367
0.00279367
0.00276288
0.00276288
0.00279614
0.00276045
0.00279367
0.00279367
0.00276288
0.00276288
0.00279367
0.00276288
0.00276288
0.00279614
0.00276045
0.00279367
0.00276288
0.00276288
0.00276045
0.00275512
0.00271969
0.00275265
0.00275265
0.0027221
0.00272209
0.00275512
0.00271969
0.00275265
0.00275265
0.00272209
0.0027221
0.00275265
0.00272209
0.0027221
0.00275512
0.0027197
0.00275265
0.0027221
0.0027221
0.0027197
0.0027144
0.00267924
0.00271195
0.00271194
0.00268161
0.00268161
0.0027144
0.00267924
0.00271195
0.00271195
0.0026816
0.0026816
0.00271195
0.0026816
0.0026816
0.0027144
0.00267924
0.00271195
0.0026816
0.0026816
0.00267924
0.00267398
0.00267153
0.00267153
0.00267398
0.00267152
0.00267153
0.00267153
0.00267398
0.00267153
0.0036048
0.00361456
0.00360936
0.00360936
0.00363174
0.00361853
0.00364713
0.00361257
0.00363174
0.00361853
0.00361257
0.00364713
0.0036231
0.00365087
0.00365087
0.00356016
0.0035793
0.0035885
0.00355224
0.00355298
0.00355575
0.00356014
0.00357928
0.00358849
0.00355222
0.00358302
0.00358302
0.00358302
0.00353961
0.00353961
0.00353961
0.00353961
0.00355766
0.00358348
0.00358342
0.00356649
0.00358651
0.00355656
0.00356737
0.00355308
0.00355574
0.00355767
0.00358342
0.0035835
0.00356649
0.0035865
0.00356737
0.00355656
0.00358936
0.00358934
0.00356089
0.0035562
0.0035562
0.00351353
0.00353281
0.00353417
0.00351207
0.00353171
0.00351162
0.00351352
0.0035328
0.00353417
0.00351206
0.00352766
0.00352766
0.00352766
0.00349007
0.00349007
0.00349007
0.00349007
0.00351211
0.00353288
0.00352766
0.00351579
0.00353167
0.00351266
0.00351552
0.00353171
0.00351162
0.00351211
0.00352766
0.00353288
0.00351579
0.00353167
0.00351552
0.00351265
0.0035339
0.0035339
0.00351234
0.00351299
0.00351299
0.00346126
0.00348007
0.00348114
0.00346024
0.0034797
0.00345996
0.00346126
0.00348007
0.00348114
0.00346024
0.00347691
0.00347691
0.00347691
0.00343753
0.00343753
0.00343753
0.00343753
0.00346036
0.00348047
0.00347679
0.00346374
0.00347991
0.00346073
0.00346365
0.0034797
0.00345996
0.00346036
0.00347679
0.00348047
0.00346374
0.00347991
0.00346365
0.00346073
0.00348071
0.00348071
0.00346036
0.00346079
0.00346079
0.00340874
0.00342739
0.00342825
0.00340797
0.00342719
0.00340779
0.00340874
0.00342739
0.00342825
0.00340797
0.00342452
0.00342452
0.00342452
0.0033859
0.0033859
0.0033859
0.00338589
0.00340823
0.0034278
0.00342449
0.00341159
0.00342752
0.00340842
0.00341155
0.00342719
0.00340779
0.00340823
0.00342449
0.0034278
0.00341159
0.00342752
0.00341155
0.00340841
0.00342784
0.00342784
0.00340827
0.00340835
0.00340835
0.00335754
0.0033759
0.00337653
0.00335699
0.00337575
0.00335685
0.00335754
0.0033759
0.00337653
0.00335699
0.00337317
0.00337317
0.00337317
0.00333555
0.00333555
0.00333555
0.00333555
0.00335727
0.00337625
0.00337315
0.00336055
0.00337608
0.00335738
0.00336052
0.00337575
0.00335685
0.00335727
0.00337315
0.00337625
0.00336055
0.00337608
0.00336052
0.00335738
0.00337623
0.00337623
0.00335735
0.00335729
0.00335729
0.0033079
0.00332584
0.0033263
0.0033075
0.00332574
0.00330738
0.0033079
0.00332584
0.0033263
0.0033075
0.0033232
0.0033232
0.0033232
0.00328667
0.00328667
0.00328667
0.00328667
0.00330778
0.00332614
0.00332318
0.00331094
0.00332603
0.00330785
0.00331092
0.00332573
0.00330739
0.00330778
0.00332318
0.00332614
0.00331094
0.00332603
0.00331092
0.00330785
0.00332613
0.00332613
0.00330787
0.00330776
0.00330776
0.00325972
0.00327727
0.00327759
0.00325945
0.00327717
0.00325934
0.00325972
0.00327727
0.00327759
0.00325945
0.00327467
0.00327467
0.00327467
0.00323914
0.00323914
0.00323914
0.00323914
0.0032597
0.00327753
0.00327465
0.00326277
0.00327744
0.00325976
0.00326273
0.00327717
0.00325934
0.0032597
0.00327465
0.00327753
0.00326277
0.00327744
0.00326273
0.00325976
0.00327753
0.00327753
0.0032598
0.00325968
0.00325968
0.00321283
0.00323002
0.00323025
0.00321263
0.00322992
0.00321254
0.00321283
0.00323002
0.00323025
0.00321263
0.00322744
0.00322744
0.00322744
0.00319275
0.00319275
0.00319275
0.00319275
0.00321287
0.00323025
0.00322743
0.00321584
0.00323017
0.00321292
0.0032158
0.00322992
0.00321254
0.00321287
0.00322743
0.00323025
0.00321584
0.00323017
0.0032158
0.00321292
0.00323025
0.00323025
0.00321297
0.00321284
0.00321284
0.00316699
0.00318386
0.00318404
0.00316683
0.00318378
0.00316675
0.00316699
0.00318386
0.00318404
0.00316683
0.00318131
0.00318131
0.00318131
0.00314731
0.00314731
0.00314731
0.00314731
0.00316707
0.00318408
0.0031813
0.00316995
0.003184
0.00316712
0.00316992
0.00318378
0.00316675
0.00316707
0.0031813
0.00318408
0.00316995
0.003184
0.00316992
0.00316712
0.00318408
0.00318408
0.00316715
0.00316703
0.00316703
0.003122
0.0031386
0.00313875
0.00312187
0.00313852
0.00312178
0.003122
0.0031386
0.00313875
0.00312186
0.00313608
0.00313608
0.00313608
0.00310263
0.00310263
0.00310263
0.00310263
0.0031221
0.00313881
0.00313607
0.00312491
0.00313875
0.00312214
0.00312488
0.00313852
0.00312178
0.0031221
0.00313607
0.00313881
0.00312491
0.00313875
0.00312488
0.00312214
0.0031388
0.0031388
0.00312217
0.00312204
0.00312204
0.00307769
0.00309407
0.0030942
0.00307756
0.00309399
0.00307748
0.00307769
0.00309407
0.0030942
0.00307756
0.00309156
0.00309156
0.00309156
0.00305858
0.00305858
0.00305858
0.00305858
0.00307781
0.00309426
0.00309156
0.00308056
0.00309422
0.00307784
0.00308053
0.00309399
0.00307748
0.00307781
0.00309156
0.00309426
0.00308056
0.00309422
0.00308053
0.00307784
0.00309425
0.00309425
0.00307785
0.00307773
0.00307773
0.00303395
0.00305013
0.00305026
0.00303383
0.00305006
0.00303375
0.00303395
0.00305013
0.00305026
0.00303383
0.00304765
0.00304765
0.00304765
0.00301506
0.00301506
0.00301506
0.00301506
0.0030341
0.00305032
0.00304765
0.00303678
0.00305029
0.00303411
0.00303676
0.00305006
0.00303375
0.0030341
0.00304765
0.00305032
0.00303678
0.00305029
0.00303676
0.00303411
0.0030503
0.0030503
0.00303411
0.00303398
0.00303398
0.00299071
0.00300671
0.00300683
0.00299058
0.00300664
0.00299051
0.00299071
0.00300671
0.00300683
0.00299058
0.00300426
0.00300426
0.00300426
0.00297202
0.00297202
0.00297202
0.00297202
0.00299087
0.00300689
0.00300426
0.0029935
0.00300689
0.00299086
0.00299349
0.00300664
0.00299051
0.00299087
0.00300426
0.00300689
0.0029935
0.00300689
0.00299349
0.00299086
0.00300686
0.00300686
0.00299085
0.00299072
0.00299072
0.00294791
0.00296375
0.00296387
0.00294778
0.00296368
0.00294772
0.00294791
0.00296375
0.00296387
0.00294778
0.00296133
0.00296133
0.00296133
0.00292941
0.00292941
0.00292941
0.00292941
0.0029481
0.00296392
0.00296134
0.00295068
0.00296394
0.00294806
0.00295067
0.00296368
0.00294772
0.0029481
0.00296134
0.00296392
0.00295068
0.00296394
0.00295067
0.00294805
0.00296388
0.00296388
0.00294809
0.00294791
0.00294791
0.00290554
0.00292122
0.00292134
0.00290541
0.00292116
0.00290536
0.00290554
0.00292122
0.00292134
0.00290541
0.00291883
0.00291883
0.00291883
0.00288722
0.00288722
0.00288722
0.00288722
0.00290575
0.00292139
0.00291884
0.00290827
0.00292143
0.00290568
0.00290828
0.00292116
0.00290536
0.00290575
0.00291884
0.00292139
0.00290828
0.00292143
0.00290828
0.00290568
0.00292134
0.00292134
0.00290572
0.00290552
0.00290552
0.00286356
0.0028791
0.00287922
0.00286344
0.00287904
0.00286339
0.00286356
0.0028791
0.00287922
0.00286344
0.00287673
0.00287673
0.00287673
0.00284542
0.00284542
0.00284542
0.00284542
0.0028638
0.00287926
0.00287675
0.00286627
0.00287933
0.0028637
0.00286629
0.00287905
0.00286339
0.0028638
0.00287675
0.00287926
0.00286627
0.00287933
0.00286629
0.0028637
0.00287921
0.00287921
0.00286376
0.00286354
0.00286354
0.00282197
0.00283737
0.00283748
0.00282185
0.00283732
0.00282181
0.00282197
0.00283737
0.00283748
0.00282185
0.00283503
0.00283503
0.00283503
0.00280399
0.00280398
0.00280399
0.00280399
0.00282222
0.00283751
0.00283504
0.00282465
0.00283761
0.00282209
0.00282468
0.00283732
0.00282181
0.00282222
0.00283504
0.00283751
0.00282465
0.00283761
0.00282468
0.00282209
0.00283747
0.00283747
0.00282217
0.00282194
0.00282194
0.00278072
0.002796
0.00279611
0.00278061
0.00279596
0.00278058
0.00278072
0.002796
0.00279611
0.00278061
0.00279368
0.00279368
0.00279368
0.00276289
0.00276289
0.00276289
0.00276289
0.00278099
0.00279613
0.0027937
0.00278339
0.00279625
0.00278084
0.00278341
0.00279596
0.00278058
0.00278099
0.0027937
0.00279613
0.00278339
0.00279625
0.00278342
0.00278084
0.00279609
0.00279609
0.00278094
0.00278069
0.00278069
0.0027398
0.00275498
0.00275507
0.0027397
0.00275494
0.00273967
0.0027398
0.00275497
0.00275507
0.0027397
0.00275267
0.00275267
0.00275267
0.00272212
0.00272212
0.00272212
0.00272212
0.00274008
0.00275509
0.00275268
0.00274245
0.00275521
0.00273992
0.00274248
0.00275494
0.00273967
0.00274008
0.00275268
0.00275509
0.00274245
0.00275521
0.00274248
0.00273992
0.00275505
0.00275505
0.00274003
0.00273977
0.00273977
0.00269919
0.00271425
0.00271434
0.00269909
0.00271421
0.00269907
0.00269919
0.00271425
0.00271435
0.00269909
0.00271197
0.00271197
0.00271197
0.00268164
0.00268164
0.00268164
0.00268164
0.00269946
0.00271435
0.00271198
0.00270181
0.00271448
0.0026993
0.00270185
0.00271422
0.00269907
0.00269946
0.00271198
0.00271436
0.00270181
0.00271448
0.00270185
0.0026993
0.00271433
0.00271433
0.00269943
0.00269916
0.00269916
0.00265886
0.00267383
0.00267391
0.00265877
0.00267379
0.00265875
0.00265886
0.00267383
0.00267391
0.00265877
0.00267156
0.00267156
0.00267156
0.00265913
0.00267391
0.00267156
0.00266146
0.00267404
0.00265896
0.00266149
0.0026738
0.00265874
0.00265913
0.00267156
0.00267391
0.00266146
0.00267404
0.00266149
0.00265895
0.00267389
0.00267389
0.00265911
0.00265882
0.00265882
0.00362309
0.00365086
0.00365088
0.00361523
0.0036504
0.0036152
0.00365042
0.00361995
0.00360701
0.00360701
0.00364567
0.00364569
0.00363173
0.00361852
0.00364712
0.00361257
0.00363173
0.00361852
0.00364712
0.00361257
0.00363625
0.0036073
0.00364753
0.0036021
0.00363625
0.00360728
0.00364753
0.00360211
0.00362733
0.00361605
0.00359847
0.00359887
0.00364239
0.00361101
0.0035991
0.00362733
0.00361605
0.00359847
0.00359887
0.0036424
0.00361101
0.0035991
0.00362309
0.00365086
0.00365087
0.00361519
0.0036504
0.00361995
0.00360699
0.00360702
0.00364568
0.00364568
0.00361522
0.00365041
0.00363174
0.00361853
0.00364714
0.00361257
0.00363174
0.00361853
0.00361257
0.00364714
0.00363627
0.00360728
0.00364754
0.00360212
0.00362735
0.00361605
0.00359847
0.00359888
0.00364241
0.00361101
0.00359911
0.00363627
0.0036073
0.00364754
0.00360211
0.00362735
0.00361606
0.00359888
0.00359847
0.00361101
0.00364241
0.00359911
0.0036048
0.00361456
0.00360936
0.00360936
0.0036048
0.00361457
0.00360936
0.00360937
0.0036048
0.00361456
0.00360936
0.00360936
0.00360356
0.00361265
0.00359553
0.00359553
0.00360793
0.00360793
0.0035937
0.00360356
0.00361265
0.00359553
0.00359553
0.00360793
0.00360793
0.0035937
0.00360356
0.00361265
0.00359553
0.00359553
0.00360793
0.00360793
0.00359371
0.00360356
0.00361265
0.00359553
0.00359553
0.00360793
0.00360793
0.00359371
0.00363174
0.00361853
0.00361257
0.00364713
0.00362735
0.00361605
0.00359847
0.00359888
0.00364241
0.00361101
0.00359911
0.00363627
0.00360729
0.00364754
0.00360211
0.00362734
0.00361605
0.00359888
0.00359848
0.00361101
0.0036424
0.0035991
0.00363627
0.00360729
0.00364754
0.0036021
0.0036231
0.00365088
0.00365088
0.00361517
0.00365041
0.00361995
0.00360701
0.00360701
0.00364569
0.00364569
0.00361517
0.00365041
0.00363174
0.00361853
0.00361257
0.00364713
0.00362735
0.00361606
0.00359888
0.00359848
0.00361101
0.00364241
0.0035991
0.00362735
0.00361605
0.00359888
0.00359847
0.00361101
0.00364241
0.00359911
0.00363627
0.00360729
0.00364754
0.0036021
0.00363627
0.0036073
0.00364754
0.00360211
0.00361995
0.00360701
0.00360701
0.00364568
0.00364568
0.00361517
0.0036504
0.0036152
0.00365041
0.00355297
0.00355574
0.00355307
0.00355572
0.00358932
0.00358935
0.0035609
0.0035562
0.0035562
0.00353849
0.00355539
0.00353849
0.0035554
0.00355424
0.00354109
0.00354109
0.00355435
0.00355435
0.00356015
0.00357929
0.0035885
0.00355224
0.00355768
0.00358348
0.00358342
0.00356648
0.00358651
0.00355657
0.00356737
0.00355767
0.00358348
0.00358342
0.00356648
0.00358651
0.00355657
0.00356737
0.00355561
0.00354022
0.00355313
0.00354097
0.00355561
0.00354022
0.00355314
0.00354097
0.00355265
0.00355218
0.0035399
0.00353965
0.00355372
0.00355259
0.00353824
0.00355265
0.00355218
0.00353991
0.00353965
0.00355373
0.00355259
0.00353824
0.00358931
0.00358936
0.00356091
0.0035562
0.0035562
0.00355312
0.00355573
0.00353849
0.00355539
0.00355424
0.00354109
0.00354109
0.00355435
0.00355435
0.00353848
0.0035554
0.00355766
0.00358349
0.00358342
0.00356649
0.00358651
0.00355656
0.00356737
0.00356014
0.0035793
0.00358848
0.00355224
0.00355767
0.00358342
0.00358349
0.00356648
0.00358651
0.00356737
0.00355656
0.0035556
0.00354022
0.00355313
0.00354097
0.00355264
0.00355218
0.0035399
0.00353965
0.00355372
0.00355259
0.00353825
0.00355561
0.00354021
0.00355315
0.00354096
0.00355265
0.00355218
0.00353965
0.0035399
0.00355259
0.00355373
0.00353824
0.00356014
0.00357929
0.00358848
0.00355223
0.00355767
0.00358342
0.00358349
0.00356648
0.00358651
0.00356737
0.00355656
0.00356014
0.00357931
0.00358848
0.00355223
0.00355264
0.00355218
0.0035399
0.00353965
0.00355372
0.00355259
0.00353825
0.0035556
0.00354022
0.00355313
0.00354097
0.00355264
0.00355218
0.00353965
0.0035399
0.00355259
0.00355372
0.00353825
0.00355561
0.00354022
0.00355312
0.00354097
0.00358935
0.00358936
0.00356089
0.0035562
0.0035562
0.00355309
0.00355572
0.00353848
0.00355541
0.00355424
0.00354109
0.00354109
0.00355435
0.00355434
0.00353849
0.00355537
0.00355766
0.00358342
0.00358349
0.00356649
0.00358651
0.00356737
0.00355656
0.00356014
0.0035793
0.00358847
0.00355222
0.00356014
0.0035793
0.00358848
0.00355223
0.00355264
0.00355218
0.00353965
0.0035399
0.00355258
0.00355372
0.00353824
0.00355264
0.00355218
0.00353965
0.0035399
0.00355259
0.00355372
0.00353824
0.00355561
0.00354022
0.00355313
0.00354096
0.0035556
0.00354021
0.00355313
0.00354096
0.00355311
0.00355572
0.0035531
0.00355572
0.00355424
0.00354109
0.00354109
0.00355434
0.00355434
0.0035385
0.00355537
0.00353848
0.00355539
0.00353172
0.00351162
0.00353171
0.00351162
0.0035339
0.0035339
0.00351234
0.00351299
0.00351299
0.00348623
0.00350519
0.00348623
0.00350519
0.00350554
0.00348731
0.00348731
0.00350653
0.00350653
0.00351353
0.0035328
0.00353417
0.00351206
0.00351211
0.00353288
0.00352766
0.00351579
0.00353167
0.00351265
0.00351552
0.00351211
0.00353289
0.00352766
0.00351579
0.00353167
0.00351266
0.00351552
0.003507
0.00348664
0.00350569
0.00348774
0.003507
0.00348664
0.00350569
0.00348774
0.00350558
0.00350303
0.00348711
0.00348991
0.00350621
0.00350289
0.00348657
0.00350558
0.00350303
0.00348711
0.00348991
0.00350621
0.00350289
0.00348657
0.0035339
0.0035339
0.00351234
0.00351299
0.00351299
0.00353172
0.00351163
0.00348623
0.00350519
0.00350555
0.00348731
0.00348731
0.00350653
0.00350653
0.00348623
0.0035052
0.00351211
0.00353288
0.00352766
0.00351579
0.00353167
0.00351265
0.00351552
0.00351353
0.0035328
0.00353417
0.00351206
0.00351211
0.00352766
0.00353288
0.00351579
0.00353167
0.00351552
0.00351265
0.003507
0.00348664
0.00350568
0.00348774
0.00350558
0.00350303
0.00348711
0.00348991
0.0035062
0.00350289
0.00348657
0.003507
0.00348664
0.00350568
0.00348774
0.00350558
0.00350303
0.00348991
0.00348711
0.00350289
0.0035062
0.00348657
0.00351353
0.00353281
0.00353417
0.00351207
0.00351211
0.00352766
0.00353288
0.00351579
0.00353167
0.00351552
0.00351265
0.00351353
0.00353281
0.00353417
0.00351206
0.00350558
0.00350303
0.00348711
0.00348991
0.0035062
0.00350289
0.00348657
0.003507
0.00348664
0.00350569
0.00348774
0.00350558
0.00350303
0.00348991
0.00348711
0.00350289
0.0035062
0.00348657
0.003507
0.00348664
0.00350569
0.00348774
0.0035339
0.0035339
0.00351234
0.00351299
0.00351299
0.00353171
0.00351162
0.00348623
0.00350519
0.00350554
0.00348731
0.00348731
0.00350653
0.00350653
0.00348623
0.00350519
0.00351211
0.00352766
0.00353288
0.00351579
0.00353167
0.00351552
0.00351265
0.00351353
0.0035328
0.00353417
0.00351206
0.00351353
0.0035328
0.00353417
0.00351207
0.00350558
0.00350303
0.00348991
0.00348711
0.00350289
0.0035062
0.00348657
0.00350558
0.00350303
0.00348991
0.00348711
0.00350289
0.0035062
0.00348657
0.003507
0.00348664
0.00350569
0.00348774
0.003507
0.00348664
0.00350569
0.00348774
0.00353172
0.00351162
0.00353171
0.00351162
0.00350555
0.00348731
0.00348731
0.00350653
0.00350653
0.00348623
0.00350519
0.00348623
0.0035052
0.0034797
0.00345996
0.0034797
0.00345996
0.00348071
0.00348071
0.00346036
0.00346079
0.00346079
0.00343373
0.00345333
0.00343373
0.00345333
0.00345341
0.0034344
0.0034344
0.00345413
0.00345413
0.00346126
0.00348007
0.00348114
0.00346024
0.00346036
0.00348047
0.00347678
0.00346374
0.00347991
0.00346073
0.00346365
0.00346036
0.00348047
0.00347678
0.00346374
0.00347991
0.00346073
0.00346365
0.00345459
0.00343395
0.00345359
0.00343484
0.00345459
0.00343395
0.00345359
0.00343484
0.00345365
0.00345062
0.00343442
0.00343749
0.00345402
0.00345054
0.00343417
0.00345365
0.00345062
0.00343442
0.00343749
0.00345402
0.00345054
0.00343417
0.00348071
0.00348071
0.00346036
0.00346079
0.00346079
0.00347971
0.00345996
0.00343373
0.00345333
0.00345341
0.0034344
0.0034344
0.00345413
0.00345413
0.00343373
0.00345333
0.00346036
0.00348047
0.00347678
0.00346374
0.00347991
0.00346073
0.00346365
0.00346126
0.00348007
0.00348114
0.00346024
0.00346036
0.00347678
0.00348047
0.00346374
0.00347991
0.00346365
0.00346073
0.00345459
0.00343395
0.00345359
0.00343484
0.00345365
0.00345062
0.00343442
0.00343749
0.00345402
0.00345054
0.00343417
0.00345459
0.00343395
0.00345359
0.00343484
0.00345365
0.00345062
0.00343749
0.00343442
0.00345054
0.00345402
0.00343417
0.00346127
0.00348007
0.00348114
0.00346024
0.00346036
0.00347678
0.00348047
0.00346374
0.00347991
0.00346365
0.00346073
0.00346127
0.00348007
0.00348114
0.00346024
0.00345365
0.00345062
0.00343442
0.00343749
0.00345402
0.00345054
0.00343417
0.00345459
0.00343395
0.00345359
0.00343484
0.00345365
0.00345062
0.00343749
0.00343442
0.00345054
0.00345402
0.00343417
0.00345459
0.00343395
0.00345359
0.00343484
0.00348071
0.00348071
0.00346036
0.00346079
0.00346079
0.0034797
0.00345996
0.00343373
0.00345333
0.00345341
0.0034344
0.0034344
0.00345413
0.00345413
0.00343373
0.00345333
0.00346036
0.00347679
0.00348047
0.00346374
0.00347991
0.00346365
0.00346073
0.00346126
0.00348007
0.00348114
0.00346024
0.00346126
0.00348007
0.00348114
0.00346024
0.00345365
0.00345062
0.00343749
0.00343442
0.00345054
0.00345402
0.00343417
0.00345365
0.00345062
0.00343749
0.00343442
0.00345054
0.00345402
0.00343417
0.00345459
0.00343395
0.00345359
0.00343484
0.00345459
0.00343395
0.00345359
0.00343484
0.0034797
0.00345996
0.0034797
0.00345996
0.00345341
0.0034344
0.0034344
0.00345413
0.00345413
0.00343373
0.00345333
0.00343373
0.00345333
0.00342719
0.00340779
0.00342719
0.00340779
0.00342784
0.00342784
0.00340827
0.00340835
0.00340835
0.00338214
0.00340131
0.00338214
0.00340131
0.00340147
0.00338263
0.00338263
0.00340186
0.00340186
0.00340874
0.00342739
0.00342825
0.00340797
0.00340823
0.0034278
0.00342449
0.00341159
0.00342752
0.00340842
0.00341155
0.00340823
0.0034278
0.00342449
0.00341159
0.00342752
0.00340842
0.00341155
0.00340222
0.0033823
0.00340148
0.00338295
0.00340222
0.0033823
0.00340148
0.00338295
0.00340165
0.00339871
0.00338271
0.00338587
0.00340186
0.00339867
0.00338258
0.00340165
0.00339871
0.00338272
0.00338587
0.00340186
0.00339867
0.00338258
0.00342784
0.00342784
0.00340827
0.00340835
0.00340835
0.00342719
0.00340779
0.00338214
0.00340131
0.00340147
0.00338263
0.00338263
0.00340186
0.00340186
0.00338214
0.00340131
0.00340823
0.0034278
0.00342449
0.00341159
0.00342752
0.00340842
0.00341155
0.00340874
0.00342739
0.00342825
0.00340797
0.00340823
0.00342449
0.0034278
0.00341159
0.00342752
0.00341155
0.00340842
0.00340222
0.0033823
0.00340148
0.00338295
0.00340165
0.00339871
0.00338271
0.00338587
0.00340186
0.00339867
0.00338258
0.00340222
0.0033823
0.00340148
0.00338295
0.00340165
0.00339871
0.00338587
0.00338271
0.00339867
0.00340186
0.00338258
0.00340874
0.00342739
0.00342825
0.00340797
0.00340823
0.00342449
0.0034278
0.00341159
0.00342752
0.00341155
0.00340841
0.00340874
0.00342739
0.00342825
0.00340797
0.00340165
0.00339871
0.00338271
0.00338587
0.00340186
0.00339867
0.00338258
0.00340222
0.0033823
0.00340148
0.00338295
0.00340165
0.00339871
0.00338587
0.00338271
0.00339867
0.00340186
0.00338258
0.00340222
0.00338229
0.00340148
0.00338295
0.00342784
0.00342784
0.00340827
0.00340835
0.00340835
0.00342719
0.00340779
0.00338214
0.00340131
0.00340147
0.00338263
0.00338263
0.00340186
0.00340186
0.00338214
0.00340131
0.00340823
0.00342449
0.0034278
0.00341159
0.00342752
0.00341155
0.00340841
0.00340874
0.00342739
0.00342825
0.00340797
0.00340874
0.00342739
0.00342825
0.00340797
0.00340165
0.00339871
0.00338587
0.00338271
0.00339867
0.00340186
0.00338258
0.00340165
0.00339871
0.00338587
0.00338271
0.00339867
0.00340186
0.00338258
0.00340222
0.00338229
0.00340148
0.00338295
0.00340222
0.00338229
0.00340148
0.00338295
0.00342719
0.00340779
0.00342719
0.00340779
0.00340147
0.00338263
0.00338263
0.00340186
0.00340186
0.00338214
0.00340131
0.00338214
0.00340131
0.00337575
0.00335685
0.00337575
0.00335685
0.00337623
0.00337623
0.00335735
0.00335729
0.00335729
0.00333193
0.00335055
0.00333193
0.00335055
0.00335075
0.00333233
0.00333233
0.00335099
0.00335099
0.00335754
0.0033759
0.00337653
0.00335699
0.00335727
0.00337625
0.00337315
0.00336055
0.00337608
0.00335738
0.00336052
0.00335727
0.00337625
0.00337315
0.00336055
0.00337608
0.00335738
0.00336052
0.00335122
0.00333205
0.00335068
0.00333253
0.00335122
0.00333206
0.00335068
0.00333253
0.00335087
0.00334801
0.00333242
0.00333553
0.003351
0.00334798
0.00333234
0.00335087
0.00334801
0.00333242
0.00333553
0.003351
0.00334798
0.00333234
0.00337624
0.00337623
0.00335735
0.00335729
0.00335729
0.00337575
0.00335685
0.00333194
0.00335055
0.00335074
0.00333233
0.00333233
0.00335099
0.00335099
0.00333193
0.00335055
0.00335727
0.00337625
0.00337315
0.00336055
0.00337608
0.00335738
0.00336052
0.00335754
0.0033759
0.00337653
0.00335699
0.00335727
0.00337315
0.00337625
0.00336055
0.00337608
0.00336052
0.00335738
0.00335122
0.00333205
0.00335068
0.00333253
0.00335087
0.00334801
0.00333242
0.00333553
0.003351
0.00334798
0.00333234
0.00335122
0.00333205
0.00335068
0.00333253
0.00335087
0.00334801
0.00333553
0.00333242
0.00334798
0.003351
0.00333234
0.00335754
0.0033759
0.00337653
0.00335699
0.00335727
0.00337315
0.00337625
0.00336055
0.00337608
0.00336052
0.00335738
0.00335754
0.0033759
0.00337653
0.00335699
0.00335086
0.00334801
0.00333242
0.00333553
0.003351
0.00334798
0.00333234
0.00335122
0.00333205
0.00335068
0.00333253
0.00335086
0.00334801
0.00333553
0.00333242
0.00334798
0.003351
0.00333234
0.00335122
0.00333205
0.00335068
0.00333253
0.00337623
0.00337623
0.00335735
0.00335729
0.00335729
0.00337575
0.00335685
0.00333193
0.00335055
0.00335074
0.00333233
0.00333233
0.00335099
0.00335099
0.00333193
0.00335055
0.00335727
0.00337315
0.00337625
0.00336055
0.00337608
0.00336052
0.00335738
0.00335754
0.0033759
0.00337653
0.00335699
0.00335754
0.0033759
0.00337653
0.00335698
0.00335086
0.00334801
0.00333553
0.00333242
0.00334798
0.003351
0.00333234
0.00335086
0.00334801
0.00333553
0.00333242
0.00334798
0.003351
0.00333234
0.00335122
0.00333205
0.00335068
0.00333253
0.00335122
0.00333205
0.00335068
0.00333253
0.00337575
0.00335685
0.00337575
0.00335685
0.00335074
0.00333233
0.00333233
0.00335099
0.00335099
0.00333193
0.00335055
0.00333193
0.00335055
0.00332573
0.00330739
0.00332573
0.00330739
0.00332613
0.00332613
0.00330787
0.00330776
0.00330776
0.0032832
0.00330127
0.0032832
0.00330127
0.00330147
0.00328355
0.00328355
0.00330165
0.00330165
0.0033079
0.00332584
0.0033263
0.0033075
0.00330778
0.00332614
0.00332318
0.00331095
0.00332603
0.00330785
0.00331092
0.00330778
0.00332614
0.00332318
0.00331095
0.00332603
0.00330785
0.00331092
0.00330176
0.00328331
0.00330138
0.00328364
0.00330176
0.0032833
0.00330138
0.00328363
0.00330156
0.00329877
0.00328364
0.00328666
0.00330166
0.00329874
0.00328357
0.00330156
0.00329877