/*--------------------------------*- C++ -*----------------------------------*\
| =========                 |                                                 |
| \\      /  F ield         | OpenFOAM: The Open Source CFD Toolbox           |
|  \\    /   O peration     | Version:  v1906                                 |
|   \\  /    A nd           | Web:      www.OpenFOAM.com                      |
|    \\/     M anipulation  |                                                 |
\*---------------------------------------------------------------------------*/
FoamFile
{
    version     2.0;
    format      ascii;
    class       surfaceScalarField;
    location    "125";
    object      phi;
}
// * * * * * * * * * * * * * * * * * * * * * * * * * * * * * * * * * * * * * //

dimensions      [0 3 -1 0 0 0 0];
oriented        oriented;


internalField   nonuniform List<scalar> 
123680
(
5.53413e-09
6.00743e-09
-5.8199e-09
-5.7776e-09
0.0011644
-0.0011644
-1.28959e-06
-6.04377e-09
1.15257e-08
0.00114475
-2.82974e-07
1.29705e-06
2.78582e-07
9.43372e-07
-2.69357e-07
2.5995e-07
-9.42528e-07
-0.00114475
-1.284e-06
-6.10743e-09
1.15366e-08
0.00114438
-2.82924e-07
1.29141e-06
2.78619e-07
9.4318e-07
-2.72016e-07
2.62659e-07
-9.42401e-07
-0.00114438
1.319e-06
1.28415e-06
-2.6866e-07
-2.74066e-07
0.000273611
-0.000275671
-0.000275671
1.31899e-06
1.28413e-06
-2.68704e-07
-2.74111e-07
0.000273611
1.32453e-06
1.28689e-06
-2.66059e-07
-2.73993e-07
0.000273617
-0.000275688
-1.3318e-06
-1.2942e-06
-0.000273617
2.73301e-07
2.81364e-07
0.000275688
1.20493e-08
0.00114391
-2.88622e-07
1.3319e-06
2.83901e-07
9.43154e-07
-2.69439e-07
2.59732e-07
-9.4261e-07
-0.00114391
-1.33023e-06
-5.39817e-09
1.20957e-08
0.00114437
-2.91423e-07
1.33753e-06
2.86733e-07
9.48854e-07
-2.72332e-07
2.62501e-07
-9.48341e-07
-0.00114437
-5.38404e-09
-0.00114391
1.2108e-08
-1.32462e-06
2.83875e-07
-2.8866e-07
-9.42638e-07
2.59694e-07
-2.69475e-07
9.4314e-07
0.00114391
1.33755e-06
-5.27e-09
-0.00114437
1.21621e-08
-1.33021e-06
2.86666e-07
-2.91475e-07
-9.48414e-07
2.62433e-07
-2.72392e-07
9.48797e-07
0.00114437
-2.68838e-07
-2.71188e-07
0.00027364
-0.00027572
-1.29707e-06
-0.00027364
2.76271e-07
2.78557e-07
0.000275719
1.14871e-08
0.00114502
-2.8578e-07
1.29431e-06
2.81388e-07
9.46214e-07
-2.72151e-07
2.62708e-07
-9.45269e-07
-0.00114502
-1.32467e-06
-5.4233e-09
1.21517e-08
0.00114402
-2.9143e-07
1.3319e-06
2.86693e-07
9.45897e-07
-2.72216e-07
2.62508e-07
-9.45422e-07
-0.00114402
-5.86584e-09
-0.00114502
1.15518e-08
-1.28698e-06
2.8136e-07
-2.85818e-07
-9.45318e-07
2.62679e-07
-2.72175e-07
9.46198e-07
0.00114502
1.33184e-06
-5.28743e-09
-0.00114402
1.22092e-08
-1.32469e-06
2.86638e-07
-2.9149e-07
-9.45475e-07
2.62467e-07
-2.72261e-07
9.45877e-07
0.00114402
-5.45248e-09
1.20935e-08
0.00114381
-2.85785e-07
1.32626e-06
2.81117e-07
9.4315e-07
-2.6946e-07
2.59713e-07
-9.42662e-07
-0.00114381
-5.92063e-09
-0.00114475
1.1604e-08
-1.28958e-06
2.78509e-07
-2.83031e-07
-9.42608e-07
2.59889e-07
9.43319e-07
-2.69411e-07
0.00114475
1.32632e-06
0.00114381
-5.33827e-09
-0.00114381
1.21768e-08
-1.31901e-06
2.8106e-07
-2.85814e-07
-9.4274e-07
2.59639e-07
-2.69515e-07
9.4582e-07
-2.66257e-07
-2.73813e-07
0.000273597
-0.000275666
-1.29135e-06
-0.000273597
2.73577e-07
2.81076e-07
0.000275666
-5.98053e-09
1.15838e-08
0.00114492
-2.83027e-07
1.29145e-06
2.78578e-07
9.43517e-07
-2.72123e-07
2.62719e-07
-9.42597e-07
-0.00114492
-5.94908e-09
-0.00114438
1.16045e-08
-1.28402e-06
2.78562e-07
-2.82985e-07
-9.42409e-07
2.6259e-07
9.43205e-07
-2.72085e-07
0.00114438
1.29151e-06
0.00114492
-5.90729e-09
-0.00114492
1.16725e-08
-1.28416e-06
2.78526e-07
-2.83051e-07
-9.42673e-07
2.62648e-07
-2.72173e-07
9.43453e-07
-0.00027361
2.75902e-07
2.81395e-07
1.21969e-08
-2.8587e-07
1.32631e-06
2.81011e-07
9.458e-07
-2.6956e-07
2.59614e-07
-9.45502e-07
-5.2955e-09
-2.83107e-07
1.29151e-06
2.78478e-07
-2.7222e-07
2.62622e-07
-5.84691e-09
1.1686e-08
9.43427e-07
-9.42695e-07
-1.35665e-10
-5.42496e-08
0.000232534
2.12869e-08
1.17119e-09
-0.000232502
-4.30149e-09
3.69807e-08
0.000194328
-5.68465e-09
-0.000194355
6.48618e-09
-3.22384e-08
0.000194355
-1.23512e-09
-0.000194328
1.27761e-10
5.17078e-08
0.000232502
-2.02227e-08
3.81796e-10
-0.000232534
4.32128e-09
1.33573e-08
9.78951e-05
-9.79128e-05
-6.4642e-09
-1.11984e-08
9.79128e-05
-9.78951e-05
-5.43057e-08
-1.65923e-10
0.000232562
1.14806e-09
1.92812e-08
-0.000232528
-4.31226e-09
3.91471e-08
0.000194348
-6.07294e-09
-0.000194377
6.44804e-09
-3.45247e-08
0.000194377
-6.8665e-10
-0.000194348
5.18444e-08
2.39082e-10
0.000232528
2.84866e-10
-1.82481e-08
-0.000232562
-5.76727e-09
-5.70885e-09
0.0011644
-0.0011644
-5.84299e-09
-5.7338e-09
0.001164
-0.001164
-5.76813e-09
-5.72642e-09
0.00116422
-0.00116422
-0.0011644
-5.73872e-09
-5.68334e-09
0.0011644
-0.0011644
-5.70803e-09
-5.6792e-09
0.0011644
-0.001164
-5.75614e-09
-5.65988e-09
0.001164
-0.00116422
-5.7538e-09
-5.69227e-09
0.00116422
5.42469e-08
-1.68447e-09
0.000256164
8.72189e-10
-2.26118e-07
-0.000255992
-1.34281e-08
-3.90954e-08
1.37053e-07
0.00024878
6.07735e-09
-0.000248871
0.00115246
3.39944e-09
5.81499e-09
1.04143e-06
-8.57585e-07
8.59205e-07
-1.03715e-06
-0.00115247
1.15672e-08
1.29706e-06
0.00114475
-5.98574e-09
-9.42564e-07
2.59942e-07
-2.69361e-07
9.43334e-07
-1.2896e-06
2.78578e-07
-2.82967e-07
1.47818e-08
3.44698e-08
0.000248871
-1.08185e-08
-0.00024878
-1.29041e-07
-3.95351e-09
0.00115247
5.87103e-09
-1.03716e-06
8.5921e-07
-8.57583e-07
1.04142e-06
-5.17471e-08
1.73465e-09
0.000255992
-5.17202e-11
2.22749e-07
-0.000256164
4.31436e-09
1.5547e-08
9.78759e-05
-9.78957e-05
-6.46808e-09
-1.33796e-08
9.78957e-05
-9.78758e-05
-1.36027e-09
5.41409e-08
0.000256125
-2.26008e-07
8.81842e-10
-0.000255952
0.00115216
3.59785e-09
5.72338e-09
1.03566e-06
-8.51957e-07
8.53481e-07
-1.03142e-06
-0.00115217
-1.35683e-08
-3.69485e-08
1.37095e-07
0.000248721
6.13119e-09
-0.000248813
1.15753e-08
1.29145e-06
0.00114438
-6.05789e-09
-9.42391e-07
2.62624e-07
-2.72052e-07
9.43192e-07
-1.28396e-06
2.78591e-07
-2.82942e-07
-3.68202e-09
0.00115217
5.80574e-09
-1.03143e-06
8.53478e-07
-8.51957e-07
1.03564e-06
1.49502e-08
3.23219e-08
0.000248813
-1.08873e-08
-0.000248721
-1.29109e-07
1.34661e-09
-5.17261e-08
0.000255952
2.22758e-07
-4.24e-11
-0.000256125
1.6043e-08
-1.33964e-08
3.88434e-08
0.000280347
-8.38118e-09
-0.00028038
1.60101e-08
-1.33935e-08
3.64693e-08
0.000280294
-8.82481e-09
-0.000280324
-1.32621e-06
-1.2914e-06
0.000275671
-0.000273611
2.75901e-07
2.81392e-07
-1.73656e-08
1.1191e-08
0.00028038
8.89099e-09
-0.000280347
-3.57976e-08
-1.73983e-08
1.11875e-08
0.000280324
9.4998e-09
-0.000280294
-3.35198e-08
-0.00028038
1.60937e-08
-1.34072e-08
3.88467e-08
-8.37285e-09
0.000280347
-0.000280324
1.60605e-08
-1.34061e-08
3.64748e-08
-8.81653e-09
0.000280293
1.33916e-08
9.7893e-05
-9.79107e-05
-1.11942e-08
9.79106e-05
-9.7893e-05
1.33575e-08
9.78918e-05
-9.79095e-05
-1.12081e-08
9.79095e-05
-9.78918e-05
1.36102e-08
3.65062e-08
0.000280346
-8.88729e-09
-0.000280374
1.60039e-08
3.64299e-08
0.000280301
-8.83763e-09
-0.000280332
0.000275688
-1.33191e-06
-1.29431e-06
-0.000273617
2.73378e-07
2.81437e-07
0.000280374
-1.49285e-08
9.41344e-09
-0.000280346
-3.34991e-08
0.000280332
-1.73516e-08
9.49214e-09
-0.000280301
-3.35791e-08
-1.11721e-08
-6.49795e-09
-9.78929e-05
9.79106e-05
1.33932e-08
4.30425e-09
9.78929e-05
-1.11798e-08
-6.46883e-09
-9.78918e-05
9.79094e-05
1.33534e-08
4.32225e-09
9.78918e-05
1.32454e-06
1.2869e-06
0.000273617
-2.66069e-07
-2.74006e-07
-1.49213e-08
-3.34649e-08
-0.000280346
9.42308e-09
0.000280374
-1.73505e-08
-3.35379e-08
-0.000280301
9.51067e-09
0.000280331
1.36195e-08
-8.88406e-09
3.65264e-08
0.000280346
1.60194e-08
-8.83491e-09
3.64452e-08
0.000280301
-5.42548e-08
0.000232571
2.13004e-08
1.1895e-09
-0.000232539
3.70316e-08
0.000194364
-5.67668e-09
-0.000194391
-3.22546e-08
0.000194391
-1.22838e-09
-0.000194364
5.17402e-08
0.00023254
-2.02464e-08
3.34893e-10
-0.000232571
-1.45011e-09
0.000256139
3.81779e-10
-2.28721e-07
-0.000255964
1.34774e-07
0.000248722
6.14553e-09
-0.000248813
0.00115254
3.63436e-09
5.93476e-09
1.04147e-06
-8.57552e-07
8.59204e-07
-1.03707e-06
-0.00115254
1.20718e-08
0.00114391
-5.50158e-09
-1.3245e-06
2.83876e-07
-2.88643e-07
-9.42633e-07
2.59726e-07
-2.69449e-07
9.43144e-07
0.000248813
-1.09419e-08
-0.000248722
-1.26564e-07
-3.64739e-09
0.00115254
6.0363e-09
-1.03708e-06
8.59188e-07
-8.57576e-07
1.04145e-06
1.46682e-09
0.000255964
4.85194e-10
2.2531e-07
-0.000256139
0.000256167
1.3687e-09
-2.28724e-07
-0.000255996
-1.60113e-08
1.37265e-07
0.000248735
6.09971e-09
-0.000248826
0.0011527
6.00058e-09
1.04449e-06
-8.57714e-07
8.59278e-07
-1.04002e-06
-0.00115269
1.21158e-08
0.00114437
1.33754e-06
-5.34825e-09
-9.48366e-07
2.62491e-07
9.48827e-07
-2.72335e-07
-1.33024e-06
2.86732e-07
-2.91414e-07
0.000248826
1.72679e-08
-1.08794e-08
-0.000248735
-1.28972e-07
0.00115269
6.08561e-09
-1.04004e-06
8.59267e-07
-8.57733e-07
1.04448e-06
0.000255996
-5.23993e-10
2.25387e-07
-0.000256167
1.2428e-10
5.1728e-08
-2.02283e-08
3.7092e-10
0.000232502
-3.22212e-08
-0.000194328
-1.25436e-09
0.000194355
3.69713e-08
-5.65899e-09
0.000194328
-1.39358e-10
-5.42227e-08
-0.000232502
2.12819e-08
1.16975e-09
0.000232534
5.17604e-08
-2.02521e-08
3.16974e-10
0.000232539
-3.22348e-08
6.47121e-09
-0.000194363
-1.24377e-09
0.00019439
3.70204e-08
-4.33813e-09
-5.63779e-09
0.000194364
-5.42264e-08
-0.000232539
2.12957e-08
1.17827e-09
0.000232571
1.46374e-09
4.94675e-10
2.2535e-07
0.000255963
1.20497e-08
-5.44075e-09
1.33183e-06
-2.88654e-07
2.83878e-07
9.43142e-07
-2.69459e-07
2.59716e-07
-9.42643e-07
-1.2653e-07
-0.000248722
-1.09324e-08
0.000248813
-0.00115254
-3.64029e-09
6.11918e-09
-1.03712e-06
8.59149e-07
-8.57614e-07
1.04141e-06
0.00115254
6.14942e-09
1.34774e-07
0.000248722
3.64626e-09
6.01096e-09
1.04143e-06
-8.57595e-07
-1.0371e-06
8.59171e-07
-1.45388e-09
-0.000255963
3.78538e-10
-2.28689e-07
0.000256139
-5.18046e-10
2.25426e-07
0.000255996
1.21076e-08
-1.33021e-06
-5.34275e-09
9.48806e-07
-2.72355e-07
-9.48394e-07
2.62467e-07
1.33757e-06
-2.91433e-07
2.86707e-07
1.72445e-08
-1.28925e-07
-0.000248735
-1.08617e-08
0.000248826
-0.0011527
6.18624e-09
-1.04008e-06
8.59227e-07
-8.57771e-07
1.04444e-06
0.00115269
-1.60366e-08
6.11698e-09
1.37265e-07
0.000248735
6.10226e-09
1.04446e-06
-8.57759e-07
-1.04006e-06
8.59244e-07
-0.000255996
1.35699e-09
-2.28689e-07
0.000256167
3.65031e-08
0.000280292
-1.1455e-08
-0.00028032
-1.55197e-08
3.63747e-08
0.000280397
-1.13354e-08
-0.00028042
0.000275719
-0.00027364
2.76306e-07
2.78587e-07
0.00028032
1.19191e-08
-0.000280292
-3.35282e-08
1.33393e-08
0.00028042
1.19654e-08
-0.000280397
-3.34528e-08
4.30919e-09
9.78974e-05
-9.79172e-05
9.79172e-05
-6.47115e-09
-9.78974e-05
-1.1183e-08
-9.7895e-05
9.79127e-05
1.33435e-08
9.78951e-05
1.28957e-06
0.00027364
-2.68839e-07
-2.71188e-07
-3.35169e-08
-0.000280292
1.19345e-08
0.000280319
1.33208e-08
-1.47601e-08
-3.34395e-08
-0.000280397
1.19825e-08
0.00028042
-1.14638e-08
3.64939e-08
0.000280292
-1.55051e-08
1.34601e-08
-1.13445e-08
3.63663e-08
0.000280397
-6.48464e-09
-9.78973e-05
9.79172e-05
4.3265e-09
9.78974e-05
-1.77811e-09
0.000256151
8.46334e-10
-2.23504e-07
-0.000255981
1.3467e-07
0.000248737
6.10681e-09
-0.000248822
0.00115242
3.40669e-09
5.94945e-09
1.04135e-06
-8.5483e-07
8.59195e-07
-1.03437e-06
-0.00115243
1.1525e-08
0.00114502
-5.95553e-09
-1.28685e-06
2.81364e-07
-2.858e-07
-9.45318e-07
2.62708e-07
-2.72157e-07
9.46176e-07
0.000248822
-1.08506e-08
-0.000248737
-1.2664e-07
-3.93632e-09
0.00115243
5.89926e-09
-1.03714e-06
8.56403e-07
-8.57613e-07
1.03857e-06
1.84859e-09
0.000255981
-5.6725e-11
2.20189e-07
-0.000256151
-5.42867e-08
0.000232525
1.92556e-08
1.15925e-09
-0.000232491
3.91446e-08
0.000194295
-5.69581e-09
-0.000194324
-3.44344e-08
0.000194324
-1.16946e-09
-0.000194295
5.18479e-08
0.000232491
-1.82381e-08
4.00201e-10
-0.000232525
0.000256119
-2.2609e-07
1.1191e-09
-0.00025595
0.0011524
6.01695e-09
1.04147e-06
-8.57715e-07
8.5919e-07
-1.03713e-06
-0.00115239
-1.59623e-08
1.347e-07
0.000248667
8.55595e-09
-0.000248755
1.218e-08
0.00114402
1.33194e-06
-5.37574e-09
-9.45466e-07
2.62494e-07
9.45858e-07
-2.72232e-07
-1.32462e-06
2.86669e-07
-2.91445e-07
0.00115239
6.07942e-09
-1.03715e-06
8.59193e-07
-8.57714e-07
1.04144e-06
0.000248755
1.72196e-08
-1.33062e-08
-0.000248667
-1.26509e-07
0.00025595
2.22842e-07
-2.34072e-10
-0.000256119
5.18521e-08
2.29533e-10
3.00279e-10
-1.8245e-08
0.000232528
-3.45092e-08
-0.000194348
-7.05192e-10
0.000194377
3.9132e-08
-6.02062e-09
0.000194348
-5.4265e-08
-1.678e-10
-0.000232528
1.12088e-09
1.92686e-08
0.000232562
1.84911e-09
-4.06684e-11
2.2021e-07
0.000255981
1.14956e-08
-5.92028e-09
1.29424e-06
-2.8581e-07
2.81367e-07
9.46189e-07
-2.72158e-07
2.62704e-07
-9.45326e-07
-1.26611e-07
-0.000248737
-1.08431e-08
0.000248822
-0.00115242
-3.94679e-09
5.98274e-09
-1.03718e-06
8.56348e-07
-8.57662e-07
1.03854e-06
0.00115243
6.11403e-09
1.34653e-07
0.000248737
3.41133e-09
6.02393e-09
1.04131e-06
-8.54854e-07
-1.03442e-06
8.59165e-07
-1.77865e-09
-0.000255981
8.28199e-10
-2.2345e-07
0.000256151
5.18561e-08
-1.8234e-08
3.97855e-10
0.000232491
-3.44262e-08
6.49388e-09
-0.000194295
-1.17837e-09
0.000194324
3.91334e-08
-4.33052e-09
-5.65569e-09
0.000194295
-5.42465e-08
-0.000232491
1.92427e-08
1.13089e-09
0.000232525
2.2286e-07
-2.16361e-10
0.00025595
1.21709e-08
-1.32462e-06
-5.36044e-09
9.45859e-07
-2.72243e-07
-9.45486e-07
2.62484e-07
1.33192e-06
-2.91471e-07
2.86648e-07
-0.0011524
6.17336e-09
-1.03719e-06
8.59133e-07
-8.57763e-07
1.04141e-06
0.00115239
1.72236e-08
-1.26494e-07
-0.000248667
-1.33042e-08
0.000248755
6.10242e-09
1.04143e-06
-8.57736e-07
-1.03717e-06
8.59163e-07
-1.59909e-08
8.57527e-09
1.34705e-07
0.000248667
-0.00025595
-2.26036e-07
1.09845e-09
0.000256119
-1.28223e-10
0.000232568
1.14453e-09
2.13038e-08
-0.000232536
0.00019436
-5.63877e-09
-0.000194389
0.000194389
-1.14586e-09
-0.00019436
2.19097e-10
0.000232537
2.822e-10
-2.0258e-08
-0.000232569
5.42199e-08
0.000256133
-2.23474e-07
1.1377e-09
-0.000255967
0.0011524
5.83869e-09
1.03868e-06
-8.57643e-07
8.59197e-07
-1.03429e-06
-0.00115239
-3.70011e-08
1.34778e-07
0.000248715
6.14254e-09
-0.000248802
1.21269e-08
0.00114381
-5.37788e-09
-1.31908e-06
2.81143e-07
-2.85759e-07
-9.42671e-07
2.59717e-07
-2.6945e-07
9.43133e-07
0.00115239
5.91686e-09
-1.03432e-06
8.59197e-07
-8.57644e-07
1.03865e-06
3.22401e-08
0.000248802
-1.09396e-08
-0.000248715
-1.26544e-07
-5.17711e-08
0.000255967
2.20184e-07
-2.3757e-10
-0.000256133
0.000232532
2.12881e-08
1.2227e-09
-0.0002325
-4.30949e-09
0.000194308
-5.68633e-09
-0.000194335
0.000194335
6.49767e-09
-1.25608e-09
-0.000194308
0.0002325
-2.02682e-08
3.62957e-10
-0.000232532
-5.17597e-08
1.72712e-09
-3.20678e-11
2.22766e-07
0.000255992
1.15529e-08
-5.97709e-09
1.29709e-06
-2.82987e-07
2.78551e-07
9.43315e-07
-2.69377e-07
-9.42599e-07
2.59922e-07
3.44581e-08
-1.29011e-07
-0.00024878
-1.08025e-08
0.000248871
-0.00115246
-5.08093e-09
5.97814e-09
-1.03721e-06
8.59138e-07
1.04138e-06
-8.57642e-07
0.00115247
-3.90855e-08
6.09687e-09
1.37052e-07
0.00024878
3.28626e-09
5.9002e-09
1.04139e-06
-8.57607e-07
-1.0372e-06
8.59176e-07
5.42065e-08
-1.99482e-09
-0.000255992
1.09057e-09
-2.26056e-07
0.000256165
2.19898e-10
2.84649e-10
-2.02529e-08
0.000232536
-0.00019436
-1.14973e-09
0.000194389
-5.59377e-09
0.00019436
-1.95787e-10
-0.000232536
1.12398e-09
2.12859e-08
0.000232568
-5.17841e-08
2.20207e-07
-2.24542e-10
0.000255967
1.21158e-08
-1.31907e-06
-5.39702e-09
9.43101e-07
-2.69466e-07
-9.42704e-07
2.59689e-07
1.32626e-06
-2.8576e-07
2.81125e-07
-0.0011524
0.00115239
6.03999e-09
-1.03436e-06
8.5913e-07
-8.577e-07
1.04141e-06
3.22222e-08
1.73172e-08
0.000248802
-1.26495e-07
-0.000248715
-1.09107e-08
5.94149e-09
1.03864e-06
-8.57668e-07
-1.03434e-06
8.59166e-07
-3.69901e-08
-1.60588e-08
6.15483e-09
1.34769e-07
0.000248715
5.41808e-08
0.000256132
-0.000255966
-2.23424e-07
1.36748e-09
-2.02641e-08
3.69176e-10
0.0002325
6.49256e-09
0.000194335
-0.000194308
-1.25373e-09
-4.31834e-09
-5.65049e-09
0.000194308
0.000232531
-0.0002325
2.12717e-08
1.19863e-09
3.87375e-08
0.000280254
-8.38824e-09
-0.000280284
-1.33973e-08
3.87687e-08
0.000280353
-8.27903e-09
-0.000280383
0.000275666
-0.000273597
2.73651e-07
2.81151e-07
0.000280284
8.86753e-09
-0.000280254
-3.57877e-08
1.11997e-08
0.000280383
8.96231e-09
-0.000280353
-3.58526e-08
4.30449e-09
9.78859e-05
-9.79036e-05
9.79035e-05
-6.48872e-09
-9.78859e-05
-1.3346e-08
-9.78758e-05
9.78956e-05
1.55355e-08
9.78758e-05
1.28395e-06
0.000273597
-2.6625e-07
-2.73803e-07
-3.57298e-08
-0.000280254
8.89308e-09
0.000280284
1.11666e-08
-1.49564e-08
-3.5804e-08
-0.000280353
8.98451e-09
0.000280383
-8.38997e-09
3.87283e-08
0.000280254
-1.33819e-08
1.35991e-08
-8.28958e-09
3.87543e-08
0.000280353
-6.51169e-09
-9.78858e-05
9.79035e-05
4.3236e-09
9.78858e-05
5.41758e-08
0.000256151
-2.23419e-07
1.57903e-09
-0.000255985
0.00115229
5.72346e-09
1.03863e-06
-8.54891e-07
8.56371e-07
-1.03435e-06
-0.00115229
-3.69345e-08
1.37114e-07
0.000248729
6.12875e-09
-0.000248819
1.16267e-08
0.00114492
-5.9321e-09
-1.28423e-06
2.78607e-07
-2.82999e-07
-9.42612e-07
2.62727e-07
-2.72108e-07
9.43493e-07
0.00115229
5.82533e-09
-1.03439e-06
8.56363e-07
-8.54896e-07
1.0386e-06
3.23232e-08
0.000248819
-1.0904e-08
-0.000248729
-1.29123e-07
-5.18003e-08
0.000255985
2.2022e-07
-7.77608e-10
-0.000256151
-1.22034e-10
0.000232523
1.18752e-09
2.12016e-08
-0.000232491
0.000194311
-5.62537e-09
-0.000194338
0.000194338
-1.17187e-09
-0.000194311
1.23082e-10
0.000232491
2.87167e-10
-2.0198e-08
-0.000232523
0.00023256
1.14231e-09
1.91289e-08
-0.000232526
-4.30514e-09
0.000194349
-5.61301e-09
-0.000194376
0.000194376
6.49421e-09
-1.1788e-09
-0.000194349
0.000232526
3.17644e-10
-1.81505e-08
-0.00023256
1.34406e-09
-5.17231e-08
2.22777e-07
-2.55891e-11
0.000255952
1.15516e-08
-6.02289e-09
1.29142e-06
-2.82966e-07
2.78573e-07
9.43132e-07
-2.72042e-07
-9.42471e-07
2.62633e-07
-0.00115216
-3.63962e-09
5.88956e-09
-1.03147e-06
8.53415e-07
1.03561e-06
-8.52014e-07
0.00115217
3.2305e-08
-1.29073e-07
-0.000248721
-1.08786e-08
0.000248813
3.6151e-09
5.80278e-09
1.03562e-06
-8.51981e-07
-1.03146e-06
8.53447e-07
-3.69344e-08
6.1471e-09
1.37093e-07
0.000248721
-1.35941e-09
5.40853e-08
-0.000255952
-2.25949e-07
8.60607e-10
0.000256125
-5.17952e-08
2.2024e-07
-7.64816e-10
0.000255984
1.16117e-08
-1.28422e-06
-5.93623e-09
9.43466e-07
-2.72124e-07
-9.42649e-07
2.62697e-07
1.29145e-06
-2.82999e-07
2.7859e-07
-0.00115229
5.94803e-09
-1.03442e-06
8.56302e-07
-8.54951e-07
1.03857e-06
0.00115229
3.23006e-08
1.73528e-08
0.000248819
-1.29064e-07
-0.000248729
-1.0874e-08
5.84403e-09
1.03859e-06
-8.54921e-07
-1.03441e-06
8.56333e-07
-3.69193e-08
-1.60317e-08
6.14863e-09
1.37097e-07
0.000248729
5.41153e-08
-0.000255984
-2.23361e-07
1.56296e-09
0.000256151
1.25288e-10
2.90364e-10
-2.01749e-08
0.000232491
-0.000194311
-1.20631e-09
0.000194338
-5.58586e-09
0.000194311
-1.22842e-10
-0.000232491
1.16462e-09
2.11575e-08
0.000232523
3.23866e-10
-1.81245e-08
0.000232526
6.49516e-09
0.000194376
-0.000194349
-1.19696e-09
-4.32093e-09
-5.56147e-09
0.000194349
-0.000232526
1.11522e-09
1.90795e-08
0.00023256
9.78855e-05
-9.79032e-05
9.79032e-05
-9.78855e-05
9.78896e-05
-9.79073e-05
9.79073e-05
-9.78896e-05
0.00027361
-2.68682e-07
-2.74089e-07
1.11914e-08
-3.58363e-08
-0.000280347
8.89767e-09
1.11825e-08
-3.35586e-08
-0.000280293
9.50822e-09
-1.33906e-08
-8.39019e-09
3.88577e-08
0.000280347
-1.33829e-08
-8.83622e-09
3.64815e-08
0.000280294
9.79031e-05
-9.78854e-05
9.78855e-05
9.79072e-05
-9.78896e-05
9.78896e-05
1.0414e-06
-8.57727e-07
8.59077e-07
-1.0372e-06
4.75891e-10
6.08853e-09
-3.70128e-08
1.34836e-07
6.17702e-09
0.000248715
-5.18286e-08
0.000255963
2.20257e-07
1.01249e-09
-2.41649e-10
-4.31029e-09
-5.68107e-09
0.000194308
0.000232499
-2.02976e-08
3.39251e-10
-5.62264e-11
-3.69458e-08
1.3717e-07
0.000248729
6.16904e-09
-4.30349e-09
0.000194349
-5.61044e-09
9.78854e-05
9.78895e-05
-1.52059e-09
2.00166e-08
0.000143581
1.30529e-09
-0.000143601
-0.000171532
-3.84969e-10
-1.45373e-11
0.000171554
-0.000225768
2.11924e-08
3.30638e-09
0.0002258
-5.44825e-08
-2.02272e-08
3.75246e-10
-0.000232534
-2.36556e-11
5.17165e-08
-0.000171554
-1.01584e-11
7.19751e-10
-0.0002258
5.08705e-08
1.05325e-09
0.000143601
-1.87111e-08
-7.91624e-05
7.91822e-05
-1.06541e-09
-1.24772e-09
0.000194355
6.48782e-09
-3.22324e-08
0.000264796
-2.10977e-08
-7.31575e-10
4.66292e-08
-0.000264827
0.000264827
-3.31711e-09
-4.71434e-08
-1.31863e-09
-7.91822e-05
2.10882e-08
7.91624e-05
-0.000264796
1.87185e-08
0.000264827
-4.71412e-08
-5.66166e-09
-4.31117e-09
3.69746e-08
4.66312e-08
7.91821e-05
3.75592e-10
-2.11918e-08
-0.000143581
2.12902e-08
1.1773e-09
1.49691e-11
-5.42613e-08
0.000171532
1.53075e-09
1.67863e-13
-0.000171554
0.000225768
-2.00152e-08
5.08657e-08
-0.0002258
-4.80386e-12
-5.4486e-08
-0.000143601
9.79128e-05
-6.47478e-09
-1.119e-08
4.3331e-09
1.33485e-08
1.80853e-08
-1.45064e-09
0.00014365
1.38917e-09
-0.000143668
-0.000225851
1.92314e-08
3.23503e-09
0.000225885
-5.45538e-08
-0.000171564
-4.13846e-10
9.93654e-12
0.000171584
4.16016e-11
-1.82484e-08
-0.000232564
8.72201e-11
5.4348e-08
6.509e-10
-0.000225887
5.34793e-08
-0.000171584
3.24484e-11
8.34564e-10
0.000143668
-1.66936e-08
-7.92081e-05
7.92256e-05
-8.40563e-10
-7.13436e-10
0.000194377
6.45492e-09
-3.45154e-08
0.000264906
-1.89242e-08
-6.47941e-10
4.90776e-08
-0.000264942
0.000264942
-3.23591e-09
-4.975e-08
-1.39388e-09
-7.92256e-05
1.89245e-08
7.92081e-05
-0.000264906
1.6694e-08
0.000264942
-4.97368e-08
-6.04136e-09
-4.32688e-09
3.91349e-08
4.90941e-08
7.92256e-05
-1.923e-08
4.1082e-10
-0.00014365
1.37977e-09
1.9279e-08
-1.4157e-11
-5.682e-08
0.000225852
-1.80822e-08
5.10042e-08
-0.000225885
0.000171564
1.45344e-09
4.53244e-11
-0.000171584
-5.70401e-08
2.30536e-11
-0.000143668
9.78957e-05
-6.48041e-09
-1.33712e-08
4.33242e-09
1.5532e-08
-7.30496e-09
-7.37364e-09
0.000215319
1.35798e-08
1.56558e-08
-0.000215334
-8.07884e-05
-6.82733e-09
-6.76819e-09
8.0802e-05
-8.07772e-05
-6.76023e-09
-6.86536e-09
8.07908e-05
6.30919e-09
-8.0802e-05
6.2701e-09
-8.07908e-05
-1.29037e-08
-1.51682e-08
0.000215334
-2.27156e-08
2.29283e-08
-0.00022458
0.000224617
1.29039e-08
-4.94015e-08
0.000254913
-2.63222e-08
7.88908e-08
3.68135e-08
-0.000254964
-3.58054e-08
8.89814e-09
0.00028038
1.11871e-08
-1.73754e-08
0.000183964
2.30159e-08
-6.3073e-09
-0.000183989
0.000254964
-7.86979e-08
-3.03789e-08
0.000183989
6.76944e-09
-1.35738e-08
4.65703e-08
-0.000224617
-2.28729e-08
2.09661e-08
-0.000224517
0.000224553
1.51685e-08
-4.9593e-08
0.000254814
-2.62338e-08
8.37767e-08
3.67409e-08
-0.000254872
-3.35266e-08
9.50915e-09
0.000280324
1.11809e-08
-1.74121e-08
0.000183919
2.10813e-08
-6.26836e-09
-0.000183943
0.000254872
-8.37407e-08
-3.04902e-08
0.000183943
6.86743e-09
-1.56503e-08
4.68457e-08
-0.000224553
2.63183e-08
-2.30191e-08
0.00022458
4.66051e-08
-0.000183964
-2.29336e-08
0.000183989
3.88696e-08
-8.38517e-09
-1.33969e-08
1.60404e-08
-0.000254913
2.27078e-08
0.000254964
-7.86697e-08
-3.03741e-08
7.89428e-08
3.67933e-08
0.000224617
-4.93972e-08
2.62322e-08
-2.10858e-08
0.000224517
4.68803e-08
-0.000183919
-2.09712e-08
0.000183943
3.64967e-08
-8.8298e-09
-1.33911e-08
1.60089e-08
-0.000254814
2.28636e-08
0.000254872
-8.37121e-08
-3.04862e-08
8.38304e-08
3.67238e-08
0.000224553
-4.9589e-08
6.82492e-09
6.75692e-09
-0.000215319
8.07885e-05
7.30621e-09
-8.08021e-05
8.07772e-05
7.37465e-09
-8.07908e-05
-0.000215334
-0.00022458
-2.26589e-08
2.28933e-08
1.28708e-08
-4.93916e-08
-2.63849e-08
0.000254913
-0.000254964
7.88803e-08
3.69125e-08
2.30316e-08
0.000183964
-6.29985e-09
-0.000183989
-3.5804e-08
8.91744e-09
1.11686e-08
-1.73179e-08
-1.35953e-08
-0.000224616
4.65561e-08
-7.87126e-08
-3.02814e-08
6.7795e-09
-0.000224516
-2.28198e-08
2.09323e-08
1.51382e-08
-4.95884e-08
-2.62984e-08
0.000254814
-0.000254872
8.37646e-08
3.68456e-08
2.11002e-08
0.000183919
-6.25981e-09
-0.000183943
-3.35234e-08
9.52574e-09
1.11602e-08
-1.73551e-08
-1.56721e-08
-0.000224553
4.6832e-08
-8.37586e-08
-3.03957e-08
6.88142e-09
-0.000215319
6.8066e-09
6.73586e-09
7.31551e-09
8.07884e-05
-8.0802e-05
7.38597e-09
8.07771e-05
-8.07908e-05
-0.000215333
9.79106e-05
-1.11956e-08
1.33839e-08
9.79095e-05
-1.12063e-08
1.33455e-08
-7.31527e-09
-7.36772e-09
0.00021532
1.56963e-08
1.35408e-08
-0.000215334
-8.07888e-05
-6.83754e-09
-6.79044e-09
8.08024e-05
-8.07752e-05
-6.7642e-09
-6.86591e-09
8.07889e-05
6.32486e-09
-8.08024e-05
6.27379e-09
-8.07889e-05
-1.50417e-08
-1.30619e-08
0.000215334
2.10012e-08
-2.27243e-08
-0.000224581
0.000224617
1.50474e-08
-4.96274e-08
0.000254912
-2.63522e-08
8.39647e-08
3.42536e-08
-0.000254967
9.41333e-09
-3.35124e-08
0.000280374
-1.49343e-08
0.000183965
2.10791e-08
-6.32337e-09
-0.000183988
0.000183988
6.7913e-09
0.000254967
-8.38261e-08
-2.77666e-08
-1.56951e-08
4.6741e-08
-0.000224617
2.09968e-08
-2.28631e-08
-0.000224513
0.000224553
1.30673e-08
-5.189e-08
0.000254818
-2.62354e-08
8.37914e-08
3.93131e-08
-0.000254878
9.49032e-09
-3.35908e-08
0.000280332
-1.73599e-08
0.000183915
2.10715e-08
-6.27256e-09
-0.000183939
0.000183939
6.8646e-09
0.000254878
-8.38751e-08
-3.3026e-08
-1.35389e-08
4.90772e-08
-0.000224553
-2.10796e-08
0.000224581
2.63564e-08
4.6741e-08
-0.000183965
-2.09957e-08
0.000183988
-8.89029e-09
3.65021e-08
1.36231e-08
2.27191e-08
-0.000254912
0.000254967
-8.38184e-08
-2.77543e-08
0.000224617
-4.96117e-08
8.39521e-08
3.42618e-08
-2.10685e-08
0.000224513
2.62394e-08
4.90744e-08
-0.000183915
-2.09921e-08
0.000183939
-8.84271e-09
3.64216e-08
1.60192e-08
2.28569e-08
-0.000254818
0.000254878
-8.38684e-08
-3.30078e-08
0.000224553
-5.18764e-08
8.37748e-08
3.93348e-08
6.83722e-09
6.76631e-09
-0.00021532
8.07888e-05
7.31741e-09
-8.08024e-05
8.07752e-05
7.36971e-09
-8.07889e-05
-0.000215334
-9.79106e-05
1.34063e-08
4.29442e-09
-1.11806e-08
-6.49529e-09
-9.79094e-05
1.33713e-08
4.3062e-09
-1.11922e-08
-6.46117e-09
-0.000215319
6.83275e-09
6.75629e-09
-1.50312e-08
-1.30518e-08
0.000215334
7.31893e-09
8.07888e-05
6.32325e-09
7.37313e-09
8.07752e-05
6.27041e-09
1.57064e-08
1.35504e-08
-6.79198e-09
8.08024e-05
-6.87081e-09
8.07888e-05
-2.11003e-08
2.63771e-08
0.000224581
-0.000224617
-1.57157e-08
4.67926e-08
-0.000254912
2.26924e-08
-8.37506e-08
-2.77312e-08
0.000254967
-8.87895e-09
3.65486e-08
-0.000280374
1.3619e-08
-0.000183965
-2.09781e-08
6.79522e-09
0.000183988
-0.000183988
-6.32121e-09
-0.000254967
8.40281e-08
3.42746e-08
1.50253e-08
-4.95841e-08
0.000224617
-2.10933e-08
2.62647e-08
0.000224513
-0.000224553
-1.35591e-08
4.91247e-08
-0.000254817
2.28257e-08
-8.3801e-08
-3.2973e-08
0.000254878
-8.82256e-09
3.64747e-08
-0.000280331
1.60132e-08
-0.000183915
-2.09696e-08
6.87591e-09
0.000183939
-0.000183939
-6.26431e-09
-0.000254878
8.38514e-08
3.93569e-08
1.3046e-08
-5.18488e-08
0.000224553
-0.000224581
2.09847e-08
-2.27094e-08
-4.95825e-08
2.10898e-08
0.000183965
-2.63632e-08
0.000254912
8.39847e-08
3.42704e-08
9.41797e-09
-3.3471e-08
-1.49299e-08
4.67701e-08
-8.37728e-08
-2.77474e-08
-0.000224513
2.09791e-08
-2.28444e-08
-5.18473e-08
2.108e-08
0.000183915
-2.62481e-08
0.000254818
8.38095e-08
3.93292e-08
9.50181e-09
-3.35473e-08
-1.73542e-08
4.91026e-08
-8.38204e-08
-3.30012e-08
-7.32294e-09
-7.38127e-09
0.000215319
-8.07887e-05
-6.82767e-09
8.08024e-05
-8.07752e-05
-6.74928e-09
8.07888e-05
0.000215334
-1.49231e-09
1.80365e-08
0.000143652
1.46559e-09
-0.00014367
-0.000171567
-3.96705e-10
0.000171589
-0.000225854
1.92471e-08
3.34064e-09
0.00022589
-5.70898e-08
-2.02513e-08
9.39053e-11
-0.000232571
5.17485e-08
-0.000171589
6.66803e-10
-0.00022589
5.34207e-08
8.8556e-10
0.00014367
-1.6624e-08
-7.92072e-05
7.92247e-05
-8.98733e-10
-1.24796e-09
0.000194391
-3.22491e-08
0.000264905
-1.90038e-08
-6.82248e-10
4.91538e-08
-0.00026494
0.00026494
-3.35586e-09
-4.9676e-08
-1.48025e-09
-7.92247e-05
1.89928e-08
7.92072e-05
-0.000264905
1.66331e-08
0.00026494
-4.96737e-08
-5.64964e-09
3.70243e-08
4.91556e-08
7.92247e-05
3.87104e-10
-1.92472e-08
-0.000143652
2.13048e-08
1.42109e-09
-5.42634e-08
0.000171567
1.5043e-09
-0.000171589
0.000225854
-1.8036e-08
5.34247e-08
-0.00022589
-5.70866e-08
-0.00014367
-0.000143581
3.90166e-10
-2.11915e-08
1.0458e-09
0.000143601
1.51302e-09
0.000171532
-6.5697e-13
-2.00135e-08
0.000225768
7.11152e-10
5.08792e-08
2.1287e-08
1.1711e-09
0.000232534
1.04028e-11
-5.42384e-08
1.29476e-09
0.000171554
-4.42502e-12
3.3021e-09
0.0002258
-5.44716e-08
7.91623e-05
2.10747e-08
-7.91821e-05
-1.2891e-09
-5.67437e-09
-0.000194355
3.69764e-08
1.87256e-08
-0.000264796
-3.29826e-09
-4.71388e-08
0.000264827
-1.0429e-09
7.91821e-05
-0.000264827
-7.10058e-10
4.66343e-08
-7.91624e-05
-1.87249e-08
-2.10792e-08
0.000264796
4.66326e-08
-1.24562e-09
-3.22338e-08
-4.71427e-08
0.000143581
-1.50887e-09
2.00149e-08
-2.02298e-08
3.71218e-10
-2.74994e-11
5.17463e-08
-3.92469e-10
-0.000171532
-1.32118e-11
0.000171554
2.11916e-08
-0.000225768
-5.4463e-08
0.000225799
0.000143601
-8.88152e-12
5.08969e-08
-0.000143652
4.01897e-10
-1.92474e-08
8.77155e-10
0.00014367
1.48464e-09
0.000171567
-1.80349e-08
0.000225854
6.53328e-10
5.34373e-08
2.13014e-08
1.40572e-09
0.000232571
-5.42403e-08
1.45442e-09
0.000171589
3.33028e-09
0.00022589
-5.70735e-08
1.89808e-08
7.92072e-05
-7.92247e-05
-1.44867e-09
-5.65326e-09
-0.000194391
-4.3316e-09
3.70266e-08
-0.000264905
1.66396e-08
-3.32401e-09
-4.96651e-08
0.00026494
-0.00026494
-6.47903e-10
4.91654e-08
-8.75099e-10
7.92247e-05
-7.92072e-05
-1.66393e-08
-1.89844e-08
0.000264905
4.91615e-08
-1.23154e-09
6.46363e-09
-3.22484e-08
-4.967e-08
-1.48165e-09
1.80381e-08
0.000143652
-2.0255e-08
7.93962e-11
5.17806e-08
-0.000171567
-4.02697e-10
0.000171588
-0.000225854
1.92452e-08
-5.70676e-08
0.00022589
5.34487e-08
0.00014367
-7.30646e-09
-7.37421e-09
0.000215326
1.57405e-08
1.3497e-08
-0.000215341
-8.0778e-05
-6.84295e-09
-6.73495e-09
8.07915e-05
-8.07915e-05
-6.78623e-09
-6.77811e-09
8.08051e-05
6.28594e-09
-8.07916e-05
6.20528e-09
-8.08051e-05
-1.50924e-08
-1.30321e-08
0.000215341
2.11953e-08
-2.51906e-08
-0.000224519
0.000224557
1.50939e-08
-4.96655e-08
0.000254805
-2.88115e-08