/*--------------------------------*- C++ -*----------------------------------*\
| =========                 |                                                 |
| \\      /  F ield         | OpenFOAM: The Open Source CFD Toolbox           |
|  \\    /   O peration     | Version:  v1906                                 |
|   \\  /    A nd           | Web:      www.OpenFOAM.com                      |
|    \\/     M anipulation  |                                                 |
\*---------------------------------------------------------------------------*/
FoamFile
{
    version     2.0;
    format      ascii;
    class       volVectorField;
    location    "125";
    object      U;
}
// * * * * * * * * * * * * * * * * * * * * * * * * * * * * * * * * * * * * * //

dimensions      [0 1 -1 0 0 0 0];


internalField   nonuniform List<vector> 
42840
(
(-2.41027e-06 -2.39733e-06 0.110618)
(-1.43097e-06 2.908e-06 0.108682)
(2.9029e-06 -1.42637e-06 0.108681)
(-6.70458e-05 -6.70545e-05 0.106314)
(-6.70317e-05 -6.70419e-05 0.106313)
(6.70355e-05 6.70192e-05 0.106314)
(-7.28822e-05 -7.28473e-05 0.106513)
(2.98609e-06 1.50732e-06 0.10868)
(-2.9969e-06 1.53102e-06 0.10868)
(2.99569e-06 1.52134e-06 0.10868)
(-3.01763e-06 1.55009e-06 0.10868)
(-6.70387e-05 6.69878e-05 0.106314)
(7.29296e-05 -7.29066e-05 0.106513)
(1.44074e-06 2.91645e-06 0.108681)
(1.5204e-06 -2.98688e-06 0.10868)
(1.45575e-06 2.92681e-06 0.108681)
(1.53596e-06 -2.99967e-06 0.10868)
(-1.51304e-06 -2.96749e-06 0.10868)
(-1.44738e-06 2.93082e-06 0.108682)
(-1.53307e-06 -2.99296e-06 0.10868)
(6.70184e-05 -6.70861e-05 0.106314)
(-7.28633e-05 7.28865e-05 0.106512)
(-2.90101e-06 -1.42993e-06 0.108681)
(2.91682e-06 -1.44295e-06 0.108681)
(-2.92573e-06 -1.44844e-06 0.108681)
(7.28919e-05 7.29216e-05 0.106512)
(-1.5402e-06 -2.99952e-06 0.10868)
(-2.93188e-06 -1.45632e-06 0.108681)
(-1.37374e-07 -1.06296e-05 0.0926991)
(2.38791e-07 9.56571e-06 0.0825281)
(-2.18785e-06 -8.57664e-06 0.0825932)
(-1.27793e-07 9.35877e-06 0.0926373)
(-2.60472e-06 4.33068e-06 0.071444)
(2.77883e-06 -4.01717e-06 0.071506)
(-1.06657e-05 -1.2794e-07 0.0926981)
(9.52213e-06 2.26046e-07 0.082527)
(-8.56258e-06 -2.15496e-06 0.0825936)
(9.41193e-06 -1.01596e-07 0.0926376)
(2.40686e-06 -2.39637e-06 0.110618)
(-2.39072e-06 2.41401e-06 0.110618)
(2.38851e-06 2.39508e-06 0.110618)
(-2.40077e-06 -2.38542e-06 0.110618)
(2.40121e-06 -2.39249e-06 0.110618)
(-2.38208e-06 2.40237e-06 0.110618)
(2.38849e-06 2.40023e-06 0.110618)
(1.91713e-05 -8.19334e-08 0.100926)
(-1.57681e-05 4.35457e-06 0.0942421)
(-2.06032e-06 -6.53752e-07 0.109933)
(-1.43633e-06 2.91332e-06 0.108682)
(1.32693e-05 -5.58677e-06 0.0943436)
(-2.06711e-06 -6.52142e-07 0.109933)
(-1.88702e-05 1.55288e-08 0.100821)
(4.24804e-06 -2.54076e-06 0.0714408)
(-3.9233e-06 2.73887e-06 0.0715072)
(-9.47347e-08 1.91373e-05 0.100926)
(-6.47166e-07 -2.04414e-06 0.109932)
(4.38024e-06 -1.58094e-05 0.0942424)
(2.9118e-06 -1.43255e-06 0.108681)
(-6.46563e-07 -2.05605e-06 0.109932)
(-5.61938e-06 1.33257e-05 0.0943423)
(8.19517e-09 -1.8863e-05 0.100821)
(-5.72686e-06 -5.52283e-06 0.0882105)
(-5.50143e-06 -5.72304e-06 0.088209)
(7.28322e-05 7.28611e-05 0.106512)
(4.21127e-06 5.15706e-06 0.0882744)
(5.17329e-06 4.21502e-06 0.0882723)
(-5.73506e-06 -5.53371e-06 0.0882104)
(-5.51178e-06 -5.7316e-06 0.0882089)
(2.59989e-06 4.3324e-06 0.0714451)
(-2.79247e-06 -4.013e-06 0.0715064)
(4.32221e-06 2.60379e-06 0.0714437)
(-4.01458e-06 -2.78821e-06 0.0715057)
(5.51974e-06 5.73325e-06 0.0882119)
(5.71712e-06 5.50929e-06 0.0882091)
(-7.29366e-05 -7.29029e-05 0.106513)
(-5.15038e-06 -4.2126e-06 0.0882743)
(-4.21993e-06 -5.16652e-06 0.0882725)
(-2.79743e-06 -4.00829e-06 0.0715064)
(2.59706e-06 4.33315e-06 0.0714451)
(-4.00927e-06 -2.79695e-06 0.0715057)
(4.32195e-06 2.60189e-06 0.0714437)
(6.70384e-05 6.70203e-05 0.106314)
(-5.15058e-06 -4.20278e-06 0.0882742)
(-4.20698e-06 -5.16766e-06 0.0882724)
(5.52369e-06 5.73364e-06 0.0882119)
(5.7152e-06 5.51544e-06 0.0882091)
(1.40289e-07 -1.0631e-05 0.092699)
(-2.39498e-07 9.58085e-06 0.0825277)
(2.17879e-06 -8.58115e-06 0.0825929)
(1.17058e-07 9.36689e-06 0.0926373)
(-7.78659e-08 -1.91763e-05 0.100926)
(4.39083e-06 1.58364e-05 0.0942428)
(-6.34733e-07 2.06829e-06 0.109933)
(2.99186e-06 1.50869e-06 0.10868)
(-5.62248e-06 -1.32751e-05 0.0943416)
(-6.33667e-07 2.0829e-06 0.109932)
(1.49224e-08 1.88551e-05 0.100821)
(8.19279e-08 -1.91727e-05 0.100926)
(-4.38263e-06 1.58536e-05 0.0942408)
(6.36042e-07 2.0727e-06 0.109933)
(-2.99976e-06 1.53647e-06 0.10868)
(5.60052e-06 -1.32772e-05 0.0943415)
(6.35893e-07 2.08466e-06 0.109932)
(-1.20396e-08 1.88649e-05 0.100821)
(-1.27503e-07 9.36036e-06 0.0926372)
(-2.19605e-06 -8.57487e-06 0.0825932)
(2.43451e-07 9.56378e-06 0.0825281)
(-1.40183e-07 -1.06187e-05 0.092699)
(1.14217e-07 9.36834e-06 0.0926373)
(2.18566e-06 -8.57776e-06 0.0825929)
(-2.48868e-07 9.57966e-06 0.0825276)
(1.40086e-07 -1.06207e-05 0.092699)
(1.1889e-08 1.88712e-05 0.100821)
(2.9871e-06 1.51558e-06 0.10868)
(-5.6153e-06 -1.32625e-05 0.0943416)
(-6.34089e-07 2.0935e-06 0.109933)
(4.39248e-06 1.58309e-05 0.0942428)
(-6.33682e-07 2.07794e-06 0.109933)
(-8.12318e-08 -1.91707e-05 0.100926)
(-1.1506e-08 1.88812e-05 0.100821)
(-3.00411e-06 1.53896e-06 0.10868)
(5.58851e-06 -1.32649e-05 0.0943415)
(6.41598e-07 2.09746e-06 0.109932)
(-4.39171e-06 1.5846e-05 0.0942408)
(6.40351e-07 2.08626e-06 0.109933)
(8.23526e-08 -1.91654e-05 0.100926)
(-5.50433e-06 5.70047e-06 0.0882091)
(-5.65352e-06 5.44546e-06 0.0882101)
(7.2918e-05 -7.28976e-05 0.106513)
(5.10937e-06 -4.18732e-06 0.0882733)
(4.14841e-06 -5.1014e-06 0.0882757)
(-4.24287e-06 2.52935e-06 0.0714415)
(3.91535e-06 -2.73755e-06 0.0715074)
(2.78285e-06 -4.01397e-06 0.0715059)
(-2.60788e-06 4.32775e-06 0.071444)
(-6.70303e-05 6.698e-05 0.106314)
(5.10596e-06 -4.17849e-06 0.0882732)
(4.13876e-06 -5.09758e-06 0.0882756)
(-5.51306e-06 5.69644e-06 0.0882091)
(-5.64913e-06 5.45697e-06 0.0882101)
(3.91167e-06 -2.74516e-06 0.0715074)
(-4.24013e-06 2.53238e-06 0.0714415)
(-1.91719e-05 -7.67323e-08 0.100925)
(1.57914e-05 4.37079e-06 0.0942411)
(2.075e-06 -6.68417e-07 0.109932)
(1.44658e-06 2.92307e-06 0.108681)
(-1.32857e-05 -5.60738e-06 0.0943422)
(2.06478e-06 -6.65889e-07 0.109932)
(1.88911e-05 1.98335e-08 0.100821)
(-1.06574e-05 1.41105e-07 0.0926979)
(9.51364e-06 -2.27615e-07 0.082526)
(-8.53424e-06 2.15222e-06 0.0825936)
(9.41411e-06 1.39604e-07 0.0926377)
(-1.91724e-05 9.13203e-08 0.100925)
(2.07765e-06 6.16481e-07 0.109932)
(1.58057e-05 -4.37608e-06 0.0942404)
(1.52745e-06 -2.99421e-06 0.10868)
(2.08707e-06 6.16523e-07 0.109932)
(-1.32507e-05 5.57259e-06 0.094342)
(1.88978e-05 1.60413e-09 0.100821)
(9.41207e-06 -1.08998e-07 0.0926376)
(-8.55733e-06 -2.16779e-06 0.0825936)
(9.52031e-06 2.39643e-07 0.082527)
(-1.0653e-05 -1.25101e-07 0.092698)
(1.88985e-05 1.5813e-08 0.100821)
(1.44835e-06 2.91756e-06 0.108681)
(-1.32784e-05 -5.60343e-06 0.0943422)
(2.07422e-06 -6.67618e-07 0.109932)
(1.57806e-05 4.37338e-06 0.0942411)
(2.08472e-06 -6.66445e-07 0.109932)
(-1.91579e-05 -7.59635e-08 0.100925)
(9.41448e-06 1.40103e-07 0.0926376)
(-8.52783e-06 2.16248e-06 0.0825936)
(9.50895e-06 -2.38359e-07 0.082526)
(-1.06444e-05 1.37157e-07 0.0926979)
(1.89052e-05 6.62419e-09 0.100821)
(1.52869e-06 -2.99539e-06 0.10868)
(2.09891e-06 6.16354e-07 0.109932)
(-1.32517e-05 5.57399e-06 0.094342)
(2.0894e-06 6.18061e-07 0.109932)
(1.58021e-05 -4.38693e-06 0.0942404)
(-1.91593e-05 8.96616e-08 0.100925)
(1.06294e-05 -1.23456e-07 0.0926989)
(-9.50753e-06 2.2705e-07 0.0825268)
(8.5384e-06 -2.15298e-06 0.082594)
(-9.36938e-06 -1.00628e-07 0.0926373)
(1.91587e-05 9.89076e-08 0.100926)
(-2.06518e-06 6.05636e-07 0.109932)
(-1.58406e-05 -4.38702e-06 0.0942421)
(-1.51788e-06 -2.96588e-06 0.10868)
(-2.0715e-06 6.0178e-07 0.109932)
(1.32724e-05 5.62195e-06 0.0943419)
(-1.88835e-05 -2.26812e-09 0.100821)
(1.06255e-05 1.60434e-07 0.0926987)
(-9.57734e-06 -2.32752e-07 0.0825279)
(8.581e-06 2.18788e-06 0.082593)
(-9.3763e-06 1.31904e-07 0.0926372)
(-1.88752e-05 1.08133e-08 0.100821)
(-1.43861e-06 2.91723e-06 0.108682)
(1.32679e-05 -5.57721e-06 0.0943436)
(-2.08105e-06 -6.5959e-07 0.109933)
(-1.57604e-05 4.36524e-06 0.0942421)
(-2.07111e-06 -6.57591e-07 0.109933)
(1.91536e-05 -7.883e-08 0.100926)
(-9.37245e-06 -1.02607e-07 0.0926372)
(8.53177e-06 -2.1605e-06 0.082594)
(-9.5069e-06 2.40256e-07 0.0825268)
(1.06184e-05 -1.23079e-07 0.0926988)
(-1.88898e-05 1.64821e-09 0.100821)
(-1.52129e-06 -2.97132e-06 0.10868)
(-2.08493e-06 6.16046e-07 0.109932)
(1.32658e-05 5.60138e-06 0.0943419)
(-2.0723e-06 6.09793e-07 0.109932)
(-1.58325e-05 -4.39212e-06 0.0942421)
(1.91449e-05 9.89349e-08 0.100926)
(-9.37917e-06 1.36301e-07 0.0926371)
(8.57436e-06 2.18928e-06 0.082593)
(-9.57705e-06 -2.41776e-07 0.0825279)
(1.06135e-05 1.56847e-07 0.0926987)
(5.68417e-06 -5.49981e-06 0.0882069)
(5.49908e-06 -5.72615e-06 0.0882109)
(-7.29131e-05 7.29362e-05 0.106512)
(-4.17323e-06 5.12675e-06 0.0882735)
(-5.17149e-06 4.22567e-06 0.0882743)
(2.58974e-06 -4.33482e-06 0.0714446)
(-2.80708e-06 4.01418e-06 0.0715062)
(-3.91655e-06 2.75132e-06 0.0715072)
(4.24567e-06 -2.54387e-06 0.0714408)
(6.69926e-05 -6.70583e-05 0.106314)
(-4.15849e-06 5.12839e-06 0.0882734)
(-5.17762e-06 4.21343e-06 0.0882743)
(5.68147e-06 -5.50769e-06 0.0882069)
(5.50881e-06 -5.72078e-06 0.0882109)
(-2.81533e-06 4.00672e-06 0.0715062)
(2.59311e-06 -4.33239e-06 0.0714445)
(8.10271e-08 1.91355e-05 0.100925)
(6.33888e-07 -2.05072e-06 0.109932)
(-4.3822e-06 -1.58074e-05 0.0942412)
(-2.89986e-06 -1.43436e-06 0.108681)
(6.28911e-07 -2.06265e-06 0.109932)
(5.63159e-06 1.33223e-05 0.0943419)
(-1.31584e-08 -1.88793e-05 0.100821)
(-1.39507e-07 1.05906e-05 0.0926992)
(2.4103e-07 -9.5687e-06 0.0825282)
(-2.16941e-06 8.59053e-06 0.0825931)
(-1.16745e-07 -9.36218e-06 0.0926363)
(1.38979e-07 1.06103e-05 0.0926986)
(-2.49844e-07 -9.55458e-06 0.0825275)
(2.1812e-06 8.58874e-06 0.0825933)
(1.17932e-07 -9.39263e-06 0.0926371)
(4.23565e-09 -1.88688e-05 0.100821)
(2.91072e-06 -1.43571e-06 0.108681)
(-6.46276e-07 -2.0667e-06 0.109932)
(-5.61611e-06 1.33116e-05 0.0943423)
(-6.48681e-07 -2.05467e-06 0.109932)
(4.39015e-06 -1.5801e-05 0.0942424)
(-9.33033e-08 1.91207e-05 0.100926)
(-9.65806e-09 -1.8884e-05 0.100821)
(-2.9048e-06 -1.43914e-06 0.108681)
(6.42491e-07 -2.076e-06 0.109932)
(5.60951e-06 1.33099e-05 0.0943419)
(6.37102e-07 -2.06206e-06 0.109932)
(-4.38916e-06 -1.57966e-05 0.0942412)
(7.99752e-08 1.91179e-05 0.100925)
(-1.19269e-07 -9.3566e-06 0.0926361)
(-2.18517e-06 8.59031e-06 0.0825931)
(2.5202e-07 -9.56571e-06 0.0825282)
(-1.36399e-07 1.05696e-05 0.0926993)
(1.22266e-07 -9.38612e-06 0.0926369)
(2.18921e-06 8.58354e-06 0.0825933)
(-2.62867e-07 -9.55312e-06 0.0825275)
(1.34898e-07 1.05872e-05 0.0926988)
(-4.33815e-06 -2.60176e-06 0.0714442)
(4.01242e-06 2.79819e-06 0.0715061)
(-2.59538e-06 -4.33455e-06 0.0714438)
(2.80311e-06 4.01183e-06 0.0715056)
(-6.70773e-05 -6.70876e-05 0.106313)
(4.20681e-06 5.14659e-06 0.0882744)
(5.16556e-06 4.20961e-06 0.0882722)
(-5.72407e-06 -5.5305e-06 0.0882104)
(-5.51127e-06 -5.71899e-06 0.088209)
(4.01256e-06 2.7983e-06 0.0715061)
(-4.3372e-06 -2.60148e-06 0.0714442)
(2.80357e-06 4.01034e-06 0.0715056)
(-2.59631e-06 -4.33262e-06 0.0714438)
(-2.09225e-06 6.15015e-07 0.109932)
(-1.58469e-05 -4.41001e-06 0.0942421)
(-1.89076e-05 -9.98961e-10 0.100821)
(-9.57951e-06 -2.32139e-07 0.0825279)
(-9.39332e-06 1.29933e-07 0.0926371)
(-4.40615e-06 -1.58137e-05 0.0942412)
(-2.47372e-07 -9.55645e-06 0.0825275)
(-4.34049e-06 -2.59911e-06 0.0714442)
(-2.59197e-06 -4.33752e-06 0.0714438)
(-1.29514e-06 4.95216e-06 0.0770073)
(3.98374e-08 -4.53761e-06 0.0789083)
(-5.86284e-07 -1.0512e-05 0.0909414)
(-1.26713e-07 9.358e-06 0.0926373)
(-2.97077e-07 4.81476e-06 0.0788624)
(-3.40005e-07 9.11669e-06 0.090874)
(5.17732e-07 -4.7479e-06 0.0770607)
(1.1126e-07 -3.8563e-06 0.0684043)
(-2.19012e-06 -8.5747e-06 0.0825932)
(-7.07945e-07 7.86879e-06 0.0863439)
(-1.64478e-06 -8.15645e-06 0.0864164)
(-1.96441e-06 4.2795e-06 0.0683312)
(-1.95759e-06 4.27826e-06 0.0683312)
(-1.6398e-06 -8.15778e-06 0.0864164)
(2.45026e-07 9.56364e-06 0.0825281)
(-7.00974e-07 7.86744e-06 0.0863439)
(1.17609e-07 -3.85707e-06 0.0684043)
(5.10027e-07 -4.74745e-06 0.0770608)
(-1.37327e-07 -1.06304e-05 0.0926991)
(-2.98096e-07 4.81354e-06 0.0788625)
(-3.43472e-07 9.11762e-06 0.0908741)
(3.91345e-08 -4.53788e-06 0.0789083)
(-5.90517e-07 -1.05111e-05 0.0909414)
(-1.30296e-06 4.95247e-06 0.0770073)
(2.78281e-06 -4.01576e-06 0.071506)
(-2.6073e-06 4.3288e-06 0.071444)
(5.02617e-06 -1.25929e-06 0.0770099)
(-1.05442e-05 -5.68318e-07 0.0909406)
(-4.60273e-06 4.9647e-08 0.0789072)
(9.41062e-06 -1.04028e-07 0.0926376)
(9.17421e-06 -3.09405e-07 0.0908744)
(4.8864e-06 -2.75172e-07 0.0788642)
(-4.81663e-06 5.40858e-07 0.0770601)
(-3.95583e-06 1.16476e-07 0.0684009)
(-8.56043e-06 -2.16289e-06 0.0825936)
(7.8931e-06 -6.57032e-07 0.0863436)
(-8.21107e-06 -1.63021e-06 0.0864152)
(4.36157e-06 -1.86574e-06 0.0683322)
(4.36255e-06 -1.86335e-06 0.0683322)
(-8.21323e-06 -1.62363e-06 0.0864152)
(9.5188e-06 2.37012e-07 0.082527)
(7.89201e-06 -6.51707e-07 0.0863436)
(-3.95462e-06 1.19724e-07 0.0684009)
(-4.81663e-06 5.36877e-07 0.0770601)
(-1.06634e-05 -1.22561e-07 0.0926981)
(9.17557e-06 -3.02945e-07 0.0908744)
(4.88781e-06 -2.74159e-07 0.0788643)
(-1.05389e-05 -5.65563e-07 0.0909406)
(-4.60136e-06 5.11656e-08 0.0789072)
(5.0271e-06 -1.26236e-06 0.0770099)
(-3.9217e-06 2.7427e-06 0.0715072)
(4.24508e-06 -2.54626e-06 0.0714408)
(-3.71514e-06 -3.74512e-06 0.0842157)
(1.87755e-06 2.77929e-06 0.0685719)
(2.81271e-06 1.85771e-06 0.0685659)
(-2.21242e-06 -2.56044e-06 0.0685193)
(-2.53613e-06 -2.23617e-06 0.0685135)
(3.8039e-06 3.77167e-06 0.0842644)
(1.24167e-05 5.01218e-06 0.0928252)
(-1.79281e-05 -1.07019e-05 0.0978754)
(4.20996e-06 5.16138e-06 0.0882744)
(-4.84004e-06 -2.52619e-06 0.0819562)
(1.72902e-05 8.59974e-06 0.0979563)
(4.25127e-06 2.72627e-06 0.0820112)
(-1.18553e-05 -5.60266e-06 0.0927604)
(5.07402e-06 1.24107e-05 0.0928175)
(-1.06589e-05 -1.78855e-05 0.0978717)
(5.17889e-06 4.21299e-06 0.0882723)
(-2.5189e-06 -4.87637e-06 0.0819521)
(8.65625e-06 1.73039e-05 0.097953)
(2.77719e-06 4.26944e-06 0.0820059)
(-5.58497e-06 -1.18706e-05 0.0927528)
(-1.18576e-05 -5.60487e-06 0.0927604)
(4.25267e-06 2.72666e-06 0.0820112)
(-5.72605e-06 -5.52336e-06 0.0882104)
(1.72794e-05 8.59542e-06 0.0979563)
(-1.79542e-05 -1.06973e-05 0.0978755)
(-4.8394e-06 -2.52694e-06 0.0819562)
(1.24197e-05 5.01036e-06 0.0928252)
(-5.58696e-06 -1.1873e-05 0.0927528)
(2.77726e-06 4.27065e-06 0.0820058)
(-5.50373e-06 -5.72165e-06 0.088209)
(8.65108e-06 1.72931e-05 0.097953)
(-1.06564e-05 -1.79125e-05 0.0978717)
(-2.51923e-06 -4.87661e-06 0.0819521)
(5.07211e-06 1.24137e-05 0.0928175)
(3.80168e-06 3.76951e-06 0.0842644)
(-2.21307e-06 -2.55996e-06 0.0685193)
(-2.53558e-06 -2.23695e-06 0.0685135)
(1.87763e-06 2.77972e-06 0.0685719)
(2.81361e-06 1.85724e-06 0.0685659)
(-3.71471e-06 -3.74429e-06 0.0842157)
(1.24106e-05 4.99787e-06 0.0928251)
(-1.79145e-05 -1.07363e-05 0.0978754)
(-4.85074e-06 -2.51766e-06 0.0819562)
(4.19474e-06 5.15218e-06 0.0882743)
(-1.18573e-05 -5.61598e-06 0.0927603)
(1.73158e-05 8.56919e-06 0.0979562)
(4.23103e-06 2.73561e-06 0.0820112)
(5.06233e-06 1.24078e-05 0.0928174)
(-1.06938e-05 -1.78724e-05 0.0978717)
(-2.51075e-06 -4.88815e-06 0.081952)
(5.17044e-06 4.19698e-06 0.0882722)
(-5.59865e-06 -1.18734e-05 0.0927527)
(8.62669e-06 1.73295e-05 0.0979529)
(2.7848e-06 4.24758e-06 0.0820058)
(3.79484e-06 3.7627e-06 0.0842643)
(-2.21899e-06 -2.55941e-06 0.0685193)
(-2.53523e-06 -2.24343e-06 0.0685135)
(-3.71555e-06 -3.74564e-06 0.0842156)
(1.86907e-06 2.77984e-06 0.0685719)
(2.81338e-06 1.84744e-06 0.0685658)
(-2.79195e-06 -4.01351e-06 0.0715064)
(2.60142e-06 4.33093e-06 0.0714451)
(-4.01445e-06 -2.78844e-06 0.0715057)
(4.32018e-06 2.60691e-06 0.0714437)
(3.73839e-06 3.7168e-06 0.0842158)
(-2.78088e-06 -1.88199e-06 0.068572)
(-1.85974e-06 -2.81281e-06 0.0685657)
(2.56239e-06 2.2177e-06 0.0685197)
(2.23634e-06 2.53905e-06 0.0685134)
(-3.772e-06 -3.80734e-06 0.0842645)
(-5.02497e-06 -1.24423e-05 0.0928253)
(1.07092e-05 1.79342e-05 0.0978759)
(-5.15267e-06 -4.21286e-06 0.0882743)
(2.53782e-06 4.8697e-06 0.0819577)
(-2.74573e-06 -4.27972e-06 0.0820112)
(-8.59394e-06 -1.73264e-05 0.0979565)
(5.61485e-06 1.18748e-05 0.0927607)
(-1.24251e-05 -5.07945e-06 0.0928176)
(1.78631e-05 1.06583e-05 0.0978718)
(-4.21966e-06 -5.16927e-06 0.0882725)
(4.87522e-06 2.51843e-06 0.0819519)
(-4.27846e-06 -2.7771e-06 0.0820057)
(-1.73459e-05 -8.64737e-06 0.0979533)
(1.18646e-05 5.58536e-06 0.092753)
(5.61564e-06 1.18753e-05 0.0927607)
(-2.74635e-06 -4.27749e-06 0.0820112)
(5.52394e-06 5.73091e-06 0.0882119)
(-8.59027e-06 -1.73181e-05 0.0979565)
(2.53703e-06 4.86996e-06 0.0819576)
(-5.02272e-06 -1.24405e-05 0.0928253)
(1.07133e-05 1.79308e-05 0.0978759)
(1.18633e-05 5.58639e-06 0.092753)
(-4.2757e-06 -2.77867e-06 0.0820057)
(5.71264e-06 5.51387e-06 0.0882091)
(-1.73385e-05 -8.64192e-06 0.0979533)
(4.87457e-06 2.51775e-06 0.0819519)
(-1.24243e-05 -5.07681e-06 0.0928176)
(1.7858e-05 1.06614e-05 0.0978718)
(-3.77286e-06 -3.80763e-06 0.0842646)
(2.56135e-06 2.21895e-06 0.0685198)
(2.23686e-06 2.53851e-06 0.0685134)
(-2.78177e-06 -1.88188e-06 0.068572)
(-1.86079e-06 -2.81256e-06 0.0685657)
(3.73903e-06 3.71652e-06 0.0842159)
(2.59279e-06 4.33546e-06 0.0714451)
(-2.79604e-06 -4.01001e-06 0.0715064)
(4.32497e-06 2.59523e-06 0.0714437)
(-4.01132e-06 -2.79406e-06 0.0715057)
(-3.76967e-06 -3.80558e-06 0.0842645)
(2.56241e-06 2.21917e-06 0.0685197)
(2.23846e-06 2.53838e-06 0.0685134)
(3.74053e-06 3.71827e-06 0.0842158)
(-2.78073e-06 -1.88005e-06 0.068572)
(-1.85632e-06 -2.81378e-06 0.0685657)
(5.62477e-06 1.1883e-05 0.0927607)
(-8.57996e-06 -1.72985e-05 0.0979565)
(5.523e-06 5.73906e-06 0.0882119)
(-2.74977e-06 -4.26855e-06 0.0820111)
(2.53356e-06 4.87776e-06 0.0819576)
(1.07199e-05 1.79618e-05 0.0978759)
(-5.01501e-06 -1.24355e-05 0.0928252)
(1.18716e-05 5.59592e-06 0.0927529)
(-1.73171e-05 -8.62851e-06 0.0979533)
(5.72336e-06 5.51318e-06 0.088209)
(-4.26406e-06 -2.78489e-06 0.0820057)
(4.88534e-06 2.51102e-06 0.0819519)
(1.78907e-05 1.06723e-05 0.0978718)
(-1.2418e-05 -5.06831e-06 0.0928176)
(-5.01788e-06 -1.24368e-05 0.0928253)
(2.53518e-06 4.87361e-06 0.0819576)
(1.07152e-05 1.79471e-05 0.0978759)
(-5.15109e-06 -4.2081e-06 0.0882743)
(5.62007e-06 1.18791e-05 0.0927607)
(-2.74743e-06 -4.27308e-06 0.0820111)
(-8.58769e-06 -1.72985e-05 0.0979565)
(-1.24202e-05 -5.07215e-06 0.0928176)
(4.87966e-06 2.51459e-06 0.0819519)
(1.78745e-05 1.06663e-05 0.0978718)
(-4.21417e-06 -5.16669e-06 0.0882724)
(1.1867e-05 5.59049e-06 0.0927529)
(-4.2698e-06 -2.78198e-06 0.0820057)
(-1.73174e-05 -8.63711e-06 0.0979533)
(3.74241e-06 3.71884e-06 0.0842158)
(-2.78052e-06 -1.8771e-06 0.068572)
(-1.85302e-06 -2.814e-06 0.0685657)
(2.56236e-06 2.22137e-06 0.0685197)
(2.24223e-06 2.53682e-06 0.0685133)
(-3.768e-06 -3.8051e-06 0.0842645)
(1.28227e-06 5.0135e-06 0.0770095)
(-4.63551e-08 -4.54389e-06 0.0789083)
(5.90048e-07 -1.05555e-05 0.090941)
(1.14633e-07 9.36662e-06 0.0926373)
(2.90078e-07 4.82211e-06 0.0788628)
(3.21859e-07 9.14696e-06 0.0908742)
(-5.26689e-07 -4.81794e-06 0.0770602)
(-7.01734e-08 -3.94726e-06 0.0684007)
(2.18356e-06 -8.57903e-06 0.0825929)
(6.90046e-07 7.90453e-06 0.0863435)
(1.66325e-06 -8.19775e-06 0.0864151)
(1.92545e-06 4.37169e-06 0.068332)
(1.91777e-06 4.36995e-06 0.0683319)
(1.65652e-06 -8.1987e-06 0.0864151)
(-2.46559e-07 9.57947e-06 0.0825276)
(6.81021e-07 7.90361e-06 0.0863435)
(-7.74725e-08 -3.9484e-06 0.0684007)
(-5.18774e-07 -4.81765e-06 0.0770602)
(1.41775e-07 -1.06317e-05 0.0926991)
(2.92099e-07 4.82104e-06 0.0788628)
(3.26255e-07 9.14799e-06 0.0908743)
(-4.56483e-08 -4.54418e-06 0.0789083)
(5.95886e-07 -1.05547e-05 0.090941)
(1.29079e-06 5.01392e-06 0.0770095)
(5.22499e-07 -4.74904e-06 0.0770607)
(-2.96754e-07 4.81306e-06 0.0788624)
(-3.36093e-07 9.11777e-06 0.090874)
(-1.39353e-07 -1.06261e-05 0.0926991)
(-1.28858e-06 4.95003e-06 0.0770072)
(3.99632e-08 -4.53986e-06 0.0789082)
(-5.83596e-07 -1.05082e-05 0.0909414)
(-1.94985e-06 4.27546e-06 0.0683312)
(2.37785e-07 9.5638e-06 0.0825281)
(-1.64111e-06 -8.15638e-06 0.0864164)
(1.22543e-07 -3.85892e-06 0.0684043)
(-6.99587e-07 7.86635e-06 0.0863438)
(1.21461e-07 -3.85836e-06 0.0684043)
(-6.97587e-07 7.86594e-06 0.0863439)
(-2.1931e-06 -8.57672e-06 0.0825932)
(-1.95224e-06 4.27661e-06 0.0683312)
(-1.64038e-06 -8.1583e-06 0.0864164)
(-1.28484e-06 4.94883e-06 0.0770072)
(-1.29371e-07 9.36574e-06 0.0926372)
(4.04084e-08 -4.54052e-06 0.0789082)
(-5.81441e-07 -1.05052e-05 0.0909414)
(5.2453e-07 -4.74992e-06 0.0770607)
(-2.96195e-07 4.81194e-06 0.0788624)
(-3.34074e-07 9.12201e-06 0.090874)
(-5.31974e-07 -4.81931e-06 0.0770602)
(2.8997e-07 4.8207e-06 0.0788627)
(3.15997e-07 9.14758e-06 0.0908742)
(1.40314e-07 -1.06276e-05 0.092699)
(1.27547e-06 5.01218e-06 0.0770095)
(-4.59453e-08 -4.54607e-06 0.0789083)
(5.84586e-07 -1.05528e-05 0.090941)
(1.90975e-06 4.36735e-06 0.0683319)
(-2.43582e-07 9.57979e-06 0.0825276)
(1.65596e-06 -8.196e-06 0.086415)
(6.76985e-07 7.90453e-06 0.0863435)
(-8.25521e-08 -3.9502e-06 0.0684006)
(-8.20622e-08 -3.95e-06 0.0684006)
(6.75488e-07 7.90374e-06 0.0863435)
(2.18092e-06 -8.58031e-06 0.0825929)
(1.9121e-06 4.36835e-06 0.0683319)
(1.65528e-06 -8.19764e-06 0.0864151)
(1.27177e-06 5.01172e-06 0.0770094)
(1.14412e-07 9.37477e-06 0.0926372)
(-4.5605e-08 -4.54654e-06 0.0789082)
(5.80535e-07 -1.05484e-05 0.090941)
(2.90366e-07 4.81961e-06 0.0788627)
(3.11206e-07 9.15205e-06 0.0908742)
(-5.33386e-07 -4.81932e-06 0.0770602)
(-3.74584e-06 3.71554e-06 0.0842158)
(2.77397e-06 -1.88285e-06 0.0685666)
(1.86479e-06 -2.79727e-06 0.0685719)
(-2.55476e-06 2.21369e-06 0.0685139)
(-2.2349e-06 2.52367e-06 0.0685192)
(3.7842e-06 -3.81222e-06 0.0842649)
(5.03279e-06 -1.24269e-05 0.0928184)
(-1.07064e-05 1.79057e-05 0.0978715)
(5.11443e-06 -4.18482e-06 0.0882733)
(-2.51331e-06 4.82099e-06 0.081952)
(2.70948e-06 -4.24532e-06 0.082007)
(8.59533e-06 -1.73016e-05 0.0979538)
(-5.62426e-06 1.18468e-05 0.0927528)
(1.24272e-05 -5.06893e-06 0.0928261)
(-1.78863e-05 1.06502e-05 0.097876)
(4.14645e-06 -5.10843e-06 0.0882757)
(-4.82861e-06 2.48379e-06 0.0819563)
(1.73074e-05 -8.64072e-06 0.0979577)
(4.22881e-06 -2.72624e-06 0.0820116)
(-1.18736e-05 5.56986e-06 0.0927607)
(-5.62499e-06 1.18448e-05 0.0927528)
(2.70876e-06 -4.24683e-06 0.082007)
(-5.5082e-06 5.69755e-06 0.0882091)
(8.58731e-06 -1.73043e-05 0.0979538)
(-2.51389e-06 4.81836e-06 0.0819519)
(-1.07094e-05 1.79099e-05 0.0978715)
(5.03088e-06 -1.24312e-05 0.0928183)
(-1.1872e-05 5.57051e-06 0.0927606)
(4.22901e-06 -2.72757e-06 0.0820116)
(-5.65035e-06 5.44951e-06 0.0882101)
(1.731e-05 -8.63129e-06 0.0979577)
(-1.78905e-05 1.06526e-05 0.097876)
(-4.82663e-06 2.48349e-06 0.0819563)
(1.24304e-05 -5.06719e-06 0.092826)
(3.78334e-06 -3.80903e-06 0.0842649)
(-2.55315e-06 2.21521e-06 0.0685139)
(-2.23594e-06 2.52317e-06 0.0685192)
(2.77508e-06 -1.88238e-06 0.0685666)
(1.86466e-06 -2.79775e-06 0.068572)
(-3.7463e-06 3.71781e-06 0.0842159)
(3.91391e-06 -2.74106e-06 0.0715074)
(-4.24088e-06 2.53254e-06 0.0714415)
(-2.60509e-06 4.32981e-06 0.0714439)
(2.77861e-06 -4.0163e-06 0.071506)
(3.78445e-06 -3.81226e-06 0.0842649)
(-2.55456e-06 2.21499e-06 0.0685139)
(-2.23575e-06 2.52408e-06 0.0685192)
(-3.74452e-06 3.71374e-06 0.0842158)
(2.7743e-06 -1.8802e-06 0.0685666)
(1.86214e-06 -2.79717e-06 0.0685719)
(-5.63362e-06 1.18439e-05 0.0927527)
(8.56787e-06 -1.73091e-05 0.0979538)
(-5.51419e-06 5.70077e-06 0.0882091)
(2.71591e-06 -4.2361e-06 0.0820069)
(-1.073e-05 1.78994e-05 0.0978715)
(-2.50838e-06 4.82351e-06 0.0819519)
(5.02226e-06 -1.24281e-05 0.0928183)
(-1.18728e-05 5.57882e-06 0.0927606)
(1.73144e-05 -8.60929e-06 0.0979577)
(-5.65531e-06 5.45837e-06 0.08821)
(4.21739e-06 -2.73483e-06 0.0820116)
(-4.834e-06 2.47601e-06 0.0819563)
(-1.78808e-05 1.06775e-05 0.097876)
(1.24262e-05 -5.05856e-06 0.092826)
(5.02645e-06 -1.24329e-05 0.0928183)
(-2.51131e-06 4.8185e-06 0.0819519)
(-1.07198e-05 1.7902e-05 0.0978715)
(5.10542e-06 -4.18561e-06 0.0882732)
(8.57536e-06 -1.73122e-05 0.0979538)
(-5.62864e-06 1.18413e-05 0.0927528)
(2.71169e-06 -4.24395e-06 0.0820069)
(1.24313e-05 -5.06248e-06 0.092826)
(-4.82785e-06 2.48023e-06 0.0819563)
(-1.7883e-05 1.06652e-05 0.097876)
(4.14589e-06 -5.09646e-06 0.0882757)
(-1.18697e-05 5.57368e-06 0.0927606)
(4.22534e-06 -2.73211e-06 0.0820116)
(1.73172e-05 -8.6168e-06 0.0979577)
(-3.74565e-06 3.71471e-06 0.0842158)
(2.77516e-06 -1.87597e-06 0.0685666)
(1.85875e-06 -2.79671e-06 0.0685719)
(-2.55353e-06 2.21793e-06 0.0685139)
(-2.23891e-06 2.52338e-06 0.0685192)
(3.78223e-06 -3.80851e-06 0.0842648)
(-4.24264e-06 2.52729e-06 0.0714415)
(3.91451e-06 -2.73981e-06 0.0715074)
(4.95472e-06 1.28539e-06 0.0770074)
(-4.59348e-06 -3.06099e-08 0.0789071)
(-1.05156e-05 5.76212e-07 0.0909409)
(9.41143e-06 1.40462e-07 0.0926376)
(4.88093e-06 2.98722e-07 0.0788639)
(9.12771e-06 3.48823e-07 0.0908737)
(-4.76461e-06 -5.22373e-07 0.0770605)
(-3.85928e-06 -1.00615e-07 0.0684039)
(-8.53116e-06 2.15872e-06 0.0825936)
(7.87173e-06 7.12612e-07 0.0863429)
(-8.15063e-06 1.63555e-06 0.086416)
(4.27648e-06 1.96625e-06 0.0683307)
(4.27563e-06 1.95968e-06 0.0683306)
(-8.1526e-06 1.62957e-06 0.086416)
(9.50883e-06 -2.36314e-07 0.082526)
(7.86933e-06 7.07203e-07 0.0863429)
(-3.85943e-06 -1.06756e-07 0.0684039)
(-4.76359e-06 -5.1527e-07 0.0770605)
(-1.06575e-05 1.40201e-07 0.092698)
(4.88177e-06 3.00105e-07 0.0788639)
(9.13018e-06 3.47352e-07 0.0908737)
(-4.59173e-06 -2.97193e-08 0.0789072)
(-1.05144e-05 5.76891e-07 0.090941)
(4.95593e-06 1.2921e-06 0.0770074)
(-4.81798e-06 5.48205e-07 0.0770601)
(9.17259e-06 -3.07553e-07 0.0908744)
(4.88521e-06 -2.76117e-07 0.0788642)
(-1.06574e-05 -1.28256e-07 0.0926981)
(5.02585e-06 -1.25418e-06 0.0770099)
(-1.0538e-05 -5.62084e-07 0.0909406)
(-4.60426e-06 5.02322e-08 0.0789072)
(4.35905e-06 -1.85216e-06 0.0683322)
(9.5228e-06 2.30807e-07 0.0825269)
(-8.21117e-06 -1.61863e-06 0.0864152)
(-3.95963e-06 1.32391e-07 0.0684009)
(7.8914e-06 -6.42284e-07 0.0863436)
(-3.95704e-06 1.26261e-07 0.0684009)
(7.88998e-06 -6.44377e-07 0.0863436)
(-8.55947e-06 -2.15984e-06 0.0825936)
(4.36217e-06 -1.85951e-06 0.0683322)
(-8.21324e-06 -1.61948e-06 0.0864153)
(5.02499e-06 -1.24572e-06 0.0770098)
(9.42145e-06 -1.06023e-07 0.0926376)
(-1.05359e-05 -5.49478e-07 0.0909405)
(-4.60292e-06 5.26469e-08 0.0789072)
(-4.81739e-06 5.55105e-07 0.0770601)
(9.17951e-06 -2.97236e-07 0.0908744)
(4.8849e-06 -2.74125e-07 0.0788642)
(-4.76579e-06 -5.29807e-07 0.0770605)
(4.87851e-06 2.98277e-07 0.0788638)
(9.12831e-06 3.44872e-07 0.0908737)
(-1.06513e-05 1.39522e-07 0.0926979)
(4.95292e-06 1.27803e-06 0.0770073)
(-4.59506e-06 -3.08835e-08 0.0789071)
(-1.05126e-05 5.68095e-07 0.0909409)
(4.27283e-06 1.94916e-06 0.0683306)
(9.51241e-06 -2.32219e-07 0.082526)
(-8.15154e-06 1.6217e-06 0.086416)
(7.86824e-06 6.96877e-07 0.0863429)
(-3.86207e-06 -1.1569e-07 0.0684039)
(-3.86111e-06 -1.13107e-07 0.0684039)
(7.86797e-06 7.00906e-07 0.0863429)
(-8.53118e-06 2.15534e-06 0.0825936)
(4.27441e-06 1.9537e-06 0.0683306)
(-8.15266e-06 1.6238e-06 0.086416)
(4.95274e-06 1.27137e-06 0.0770073)
(9.42268e-06 1.38022e-07 0.0926376)
(-4.59338e-06 -3.12363e-08 0.0789071)
(-1.05083e-05 5.57595e-07 0.0909409)
(4.87933e-06 2.97745e-07 0.0788638)
(9.1333e-06 3.34053e-07 0.0908736)
(-4.76532e-06 -5.34092e-07 0.0770605)
(-5.01178e-06 -1.25952e-06 0.0770095)
(1.054e-05 -5.71784e-07 0.0909411)
(4.54602e-06 5.96996e-08 0.0789081)
(-9.36858e-06 -1.00057e-07 0.0926372)
(-9.15923e-06 -3.04511e-07 0.0908742)
(-4.82169e-06 -2.74202e-07 0.0788627)
(4.81806e-06 5.45192e-07 0.0770603)
(3.95217e-06 1.04991e-07 0.0684011)
(8.53797e-06 -2.16071e-06 0.082594)
(-7.88796e-06 -6.61306e-07 0.0863438)
(8.19938e-06 -1.62892e-06 0.0864157)
(-4.36012e-06 -1.88e-06 0.0683323)
(-4.35902e-06 -1.8754e-06 0.0683323)
(8.19934e-06 -1.62339e-06 0.0864157)
(-9.50527e-06 2.34594e-07 0.0825268)
(-7.8876e-06 -6.58011e-07 0.0863438)
(3.95239e-06 1.0977e-07 0.0684011)
(4.81607e-06 5.39828e-07 0.0770603)
(1.06318e-05 -1.2276e-07 0.0926989)
(-9.15887e-06 -3.01326e-07 0.0908742)
(-4.82388e-06 -2.75626e-07 0.0788627)
(1.05403e-05 -5.71021e-07 0.0909411)
(4.54363e-06 5.94446e-08 0.0789081)
(-5.01517e-06 -1.26515e-06 0.0770096)
(-5.01926e-06 1.29198e-06 0.0770089)
(4.54085e-06 -2.51606e-08 0.0789079)
(1.05432e-05 6.02088e-07 0.0909408)
(-9.37533e-06 1.34719e-07 0.0926372)
(-4.82758e-06 3.10827e-07 0.0788625)
(-9.15985e-06 3.29936e-07 0.0908741)
(4.81192e-06 -5.15785e-07 0.0770596)
(3.94682e-06 -7.10655e-08 0.0684026)
(8.57956e-06 2.19279e-06 0.082593)
(-7.90976e-06 6.87374e-07 0.0863443)
(8.19294e-06 1.66702e-06 0.0864158)
(-4.37026e-06 1.92122e-06 0.0683339)
(-4.36939e-06 1.91643e-06 0.0683339)
(8.19397e-06 1.66265e-06 0.0864158)
(-9.57391e-06 -2.36732e-07 0.0825279)
(-7.90825e-06 6.83859e-07 0.0863443)
(3.94727e-06 -7.60732e-08 0.0684026)
(4.81048e-06 -5.10356e-07 0.0770596)
(1.06278e-05 1.57415e-07 0.0926988)
(-4.82921e-06 3.10561e-07 0.0788626)
(-9.16068e-06 3.27218e-07 0.0908741)
(4.5388e-06 -2.57252e-08 0.078908)
(1.05436e-05 6.01678e-07 0.0909408)
(-5.02061e-06 1.29673e-06 0.0770089)
(4.81765e-06 5.51845e-07 0.0770603)
(-9.15957e-06 -3.02538e-07 0.0908742)
(-4.81988e-06 -2.74548e-07 0.0788626)
(1.06248e-05 -1.2454e-07 0.0926989)
(-5.01124e-06 -1.25401e-06 0.0770095)
(1.05377e-05 -5.64858e-07 0.0909411)
(4.54652e-06 5.96819e-08 0.0789081)
(-4.35676e-06 -1.86524e-06 0.0683322)
(-9.5104e-06 2.35199e-07 0.0825268)
(8.19653e-06 -1.61449e-06 0.0864157)
(-7.88915e-06 -6.44706e-07 0.0863437)
(3.95506e-06 1.18947e-07 0.0684011)
(3.95385e-06 1.15643e-07 0.0684011)
(-7.88789e-06 -6.50597e-07 0.0863438)
(8.53487e-06 -2.15291e-06 0.082594)
(-4.35851e-06 -1.87103e-06 0.0683323)
(8.19846e-06 -1.61683e-06 0.0864157)
(-5.01381e-06 -1.24766e-06 0.0770095)
(-9.37797e-06 -1.02756e-07 0.0926372)
(1.05343e-05 -5.5351e-07 0.0909411)
(4.54389e-06 5.98653e-08 0.0789081)
(-9.16327e-06 -2.91322e-07 0.0908742)
(-4.82135e-06 -2.74648e-07 0.0788626)
(4.81599e-06 5.56134e-07 0.0770603)
(4.81287e-06 -5.21838e-07 0.0770595)