/*--------------------------------*- C++ -*----------------------------------*\
| =========                 |                                                 |
| \\      /  F ield         | OpenFOAM: The Open Source CFD Toolbox           |
|  \\    /   O peration     | Version:  v1906                                 |
|   \\  /    A nd           | Web:      www.OpenFOAM.com                      |
|    \\/     M anipulation  |                                                 |
\*---------------------------------------------------------------------------*/
FoamFile
{
    version     2.0;
    format      ascii;
    class       volVectorField;
    location    "125";
    object      U;
}
// * * * * * * * * * * * * * * * * * * * * * * * * * * * * * * * * * * * * * //

dimensions      [0 1 -1 0 0 0 0];


internalField   nonuniform List<vector> 
43024
(
(0.000107958 0.000107892 0.100299)
(-0.000190196 0.000119271 0.100385)
(0.000119342 -0.000190187 0.100385)
(-0.000239594 -0.000239612 0.100397)
(9.42793e-05 9.42319e-05 0.10086)
(-0.000158939 9.68067e-05 0.100942)
(9.68114e-05 -0.000158935 0.100942)
(-0.000201047 -0.000201099 0.100968)
(9.54248e-05 9.54127e-05 0.10137)
(-0.000155796 9.34673e-05 0.101449)
(9.34567e-05 -0.000155804 0.101449)
(-0.000201986 -0.000202038 0.101471)
(9.38834e-05 9.38739e-05 0.101892)
(-0.000152046 9.00878e-05 0.101957)
(9.01001e-05 -0.000152051 0.101957)
(-0.000198934 -0.000198979 0.101964)
(9.11289e-05 9.11273e-05 0.102398)
(-0.000146289 8.55716e-05 0.102446)
(8.55849e-05 -0.000146293 0.102446)
(-0.000193551 -0.000193599 0.102432)
(8.81508e-05 8.81562e-05 0.102885)
(-0.000140624 8.15995e-05 0.102912)
(8.16149e-05 -0.000140629 0.102912)
(-0.000188173 -0.000188222 0.102871)
(8.53189e-05 8.53345e-05 0.103353)
(-0.000135491 7.83893e-05 0.103354)
(7.84228e-05 -0.000135501 0.103354)
(-0.000183665 -0.000183719 0.103281)
(8.28428e-05 8.28542e-05 0.103803)
(-0.000131057 7.59314e-05 0.103774)
(7.59768e-05 -0.000131066 0.103774)
(-0.000180164 -0.000180246 0.103664)
(8.06317e-05 8.05943e-05 0.104237)
(-0.000127326 7.42362e-05 0.104174)
(7.42351e-05 -0.000127319 0.104174)
(-0.000178038 -0.000178078 0.104023)
(7.87256e-05 7.86998e-05 0.104658)
(-0.000124093 7.28961e-05 0.104557)
(7.28969e-05 -0.000124089 0.104557)
(-0.000176889 -0.000176941 0.104358)
(7.70911e-05 7.7073e-05 0.105066)
(-0.00012126 7.17417e-05 0.104924)
(7.17489e-05 -0.000121258 0.104924)
(-0.000176238 -0.000176301 0.104673)
(7.55891e-05 7.55728e-05 0.105464)
(-0.000118706 7.06307e-05 0.105277)
(7.0641e-05 -0.000118699 0.105277)
(-0.000175819 -0.000175893 0.104967)
(7.41422e-05 7.41316e-05 0.105851)
(-0.000116275 6.94601e-05 0.105615)
(6.94738e-05 -0.000116264 0.105615)
(-0.000175481 -0.000175587 0.10524)
(7.27407e-05 7.27372e-05 0.106229)
(-0.000113891 6.82326e-05 0.105938)
(6.82297e-05 -0.000113876 0.105938)
(-0.000175199 -0.000175214 0.105491)
(7.13394e-05 7.13323e-05 0.106598)
(-0.000111581 6.71742e-05 0.106248)
(6.71422e-05 -0.000111554 0.106248)
(-0.000174344 -0.000174365 0.10572)
(6.98654e-05 6.98699e-05 0.106957)
(-0.000109412 6.61385e-05 0.106543)
(6.61222e-05 -0.000109451 0.106543)
(-0.000173267 -0.0001733 0.105927)
(6.83547e-05 6.83597e-05 0.107308)
(-0.00010742 6.5101e-05 0.106822)
(6.50819e-05 -0.000107456 0.106822)
(-0.000171959 -0.000171998 0.106108)
(6.68595e-05 6.68685e-05 0.107649)
(-0.000105422 6.40252e-05 0.107086)
(6.40061e-05 -0.000105434 0.107086)
(-0.000170228 -0.000170274 0.106265)
(6.53223e-05 6.53384e-05 0.107982)
(-0.000103507 6.29486e-05 0.107334)
(6.29105e-05 -0.000103503 0.107334)
(-0.000168036 -0.000168078 0.106394)
(6.3855e-05 6.38684e-05 0.108306)
(-0.000101644 6.19253e-05 0.107565)
(6.1919e-05 -0.000101647 0.107565)
(-0.000165343 -0.000165393 0.106497)
(6.231e-05 6.23312e-05 0.108622)
(-9.95601e-05 6.08587e-05 0.107779)
(6.08395e-05 -9.95648e-05 0.107779)
(-0.000161955 -0.000162005 0.106573)
(0.000134959 0.000134948 0.100282)
(0.000124248 0.000152867 0.100229)
(-0.00012424 0.000152848 0.100229)
(-0.000134955 0.000134917 0.100282)
(0.000152895 0.0001242 0.100229)
(0.000152868 -0.000124217 0.100229)
(9.08044e-05 9.07527e-05 0.100151)
(-9.07946e-05 9.07502e-05 0.100151)
(9.07788e-05 -9.07986e-05 0.100151)
(-9.07763e-05 -9.07966e-05 0.100151)
(-0.000152891 0.000124196 0.100229)
(-0.000152877 -0.000124212 0.100229)
(0.000134949 -0.000134968 0.100282)
(0.000124201 -0.000152897 0.100229)
(-0.000124197 -0.000152879 0.100229)
(-0.000134957 -0.000134941 0.100282)
(0.000239636 0.000239616 0.100397)
(0.000111305 0.000111179 0.100892)
(0.000119392 0.000190089 0.100385)
(-0.000119344 0.00019013 0.100385)
(8.91025e-05 0.000147213 0.100823)
(-8.9064e-05 0.00014721 0.100823)
(-0.000239646 0.000239564 0.100397)
(-0.000111266 0.000111147 0.100892)
(0.000190232 0.00011929 0.100385)
(0.00019017 -0.00011935 0.100385)
(0.000147189 8.90739e-05 0.100823)
(0.000147222 -8.9095e-05 0.100823)
(-0.000190152 -0.000119353 0.100385)
(-0.000147158 8.90751e-05 0.100823)
(-0.000147179 -8.90891e-05 0.100823)
(0.000239567 -0.000239658 0.100397)
(0.000111257 -0.00011127 0.100892)
(-0.000119322 -0.000190217 0.100385)
(8.9076e-05 -0.000147148 0.100823)
(-8.90555e-05 -0.000147173 0.100823)
(-0.000111254 -0.000111273 0.100892)
(0.000201135 0.000200969 0.100968)
(0.000105726 0.000105646 0.101395)
(9.682e-05 0.000158993 0.100941)
(-9.67931e-05 0.000158989 0.100941)
(9.42e-05 0.000156671 0.10132)
(-9.42002e-05 0.000156672 0.10132)
(-0.000201097 0.000200935 0.100967)
(-0.000105716 0.00010564 0.101395)
(0.000158972 9.68005e-05 0.100942)
(0.00015899 -9.68131e-05 0.100942)
(0.000156627 9.42044e-05 0.10132)
(0.000156667 -9.42074e-05 0.10132)
(-0.000158967 -9.6808e-05 0.100942)
(-0.000156624 9.42131e-05 0.10132)
(-0.000156645 -9.41978e-05 0.10132)
(0.000201044 -0.000201107 0.100968)
(0.00010569 -0.000105703 0.101395)
(-9.67933e-05 -0.000158961 0.100942)
(9.42011e-05 -0.000156624 0.10132)
(-9.42072e-05 -0.000156644 0.10132)
(-0.000105705 -0.000105711 0.101395)
(0.000202055 0.000201927 0.101471)
(9.66161e-05 9.65561e-05 0.101893)
(9.34494e-05 0.000155854 0.101449)
(-9.34545e-05 0.000155851 0.101449)
(9.11465e-05 0.000153336 0.101832)
(-9.1135e-05 0.000153325 0.101832)
(-0.000202044 0.000201911 0.101471)
(-9.65994e-05 9.65513e-05 0.101893)
(0.000155804 9.3463e-05 0.101449)
(0.000155845 -9.34586e-05 0.101449)
(0.000153277 9.11493e-05 0.101832)
(0.00015331 -9.11342e-05 0.101832)
(-0.000155827 -9.34521e-05 0.101449)
(-0.000153272 9.11413e-05 0.101832)
(-0.00015331 -9.11383e-05 0.101832)
(0.000201968 -0.000202044 0.101471)
(9.65712e-05 -9.66053e-05 0.101893)
(-9.34646e-05 -0.000155826 0.101449)
(9.11492e-05 -0.000153275 0.101832)
(-9.11387e-05 -0.000153284 0.101832)
(-9.66302e-05 -9.66319e-05 0.101893)
(0.000198966 0.000198863 0.101964)
(8.60639e-05 8.6022e-05 0.102366)
(9.00961e-05 0.00015211 0.101957)
(-9.00836e-05 0.0001521 0.101957)
(8.66926e-05 0.000147833 0.102326)
(-8.66812e-05 0.000147826 0.102326)
(-0.000198953 0.000198845 0.101964)
(-8.60515e-05 8.60224e-05 0.102366)
(0.000152054 9.00975e-05 0.101957)
(0.000152084 -9.00812e-05 0.101957)
(0.000147776 8.66926e-05 0.102326)
(0.000147807 -8.66728e-05 0.102326)
(-0.000152086 -9.00859e-05 0.101957)
(-0.000147771 8.66854e-05 0.102326)
(-0.000147814 -8.66824e-05 0.102326)
(0.000198873 -0.00019897 0.101964)
(8.6024e-05 -8.60591e-05 0.102366)
(-9.00855e-05 -0.000152056 0.101957)
(8.66975e-05 -0.000147774 0.102326)
(-8.66783e-05 -0.000147774 0.102326)
(-8.6091e-05 -8.60942e-05 0.102366)
(0.000193572 0.000193485 0.102432)
(7.60485e-05 7.60161e-05 0.102812)
(8.5578e-05 0.000146351 0.102446)
(-8.5569e-05 0.000146348 0.102446)
(8.2524e-05 0.000142061 0.102797)
(-8.25149e-05 0.000142065 0.102797)
(-0.000193565 0.000193473 0.102432)
(-7.60409e-05 7.60246e-05 0.102812)
(0.000146295 8.5578e-05 0.102446)
(0.000146325 -8.55574e-05 0.102446)
(0.000142004 8.25252e-05 0.102798)
(0.000142035 -8.24987e-05 0.102798)
(-0.000146334 -8.55665e-05 0.102446)
(-0.000142 8.25225e-05 0.102798)
(-0.000142047 -8.25145e-05 0.102798)
(0.000193484 -0.000193582 0.102432)
(7.60122e-05 -7.60489e-05 0.102812)
(-8.5564e-05 -0.00014629 0.102446)
(8.25336e-05 -0.000142003 0.102798)
(-8.25102e-05 -0.000141997 0.102798)
(-7.60885e-05 -7.60915e-05 0.102812)
(0.000188185 0.000188107 0.10287)
(6.7076e-05 6.70482e-05 0.103229)
(8.1603e-05 0.000140685 0.102912)
(-8.15948e-05 0.000140692 0.102912)
(7.91271e-05 0.000136773 0.103245)
(-7.91037e-05 0.00013677 0.103245)
(-0.00018818 0.000188099 0.10287)
(-6.70669e-05 6.70442e-05 0.103229)
(0.00014063 8.16033e-05 0.102912)
(0.00014066 -8.15771e-05 0.102912)
(0.000136721 7.91306e-05 0.103245)
(0.000136748 -7.90927e-05 0.103245)
(-0.000140672 -8.15914e-05 0.102912)
(-0.000136712 7.91198e-05 0.103245)
(-0.000136764 -7.91204e-05 0.103245)
(0.000188098 -0.000188199 0.10287)
(6.70429e-05 -6.7082e-05 0.103229)
(-8.15902e-05 -0.000140621 0.102912)
(7.91431e-05 -0.000136718 0.103245)
(-7.91156e-05 -0.000136711 0.103245)
(-6.71326e-05 -6.71385e-05 0.103229)
(0.000183668 0.00018359 0.103281)
(5.91316e-05 5.90844e-05 0.10362)
(7.83998e-05 0.000135552 0.103354)
(-7.83772e-05 0.000135549 0.103354)
(7.64728e-05 0.000132159 0.103671)
(-7.64537e-05 0.000132155 0.103671)
(-0.000183656 0.00018356 0.103281)
(-5.91301e-05 5.91046e-05 0.10362)
(0.000135502 7.84046e-05 0.103354)
(0.000135528 -7.83683e-05 0.103354)
(0.00013211 7.6506e-05 0.103671)
(0.000132132 -7.64445e-05 0.103671)
(-0.000135545 -7.83929e-05 0.103354)
(-0.000132099 7.64851e-05 0.103671)
(-0.000132148 -7.64865e-05 0.103671)
(0.000183575 -0.000183687 0.103281)
(5.91083e-05 -5.91588e-05 0.10362)
(-7.8394e-05 -0.000135491 0.103354)
(7.65187e-05 -0.000132108 0.103671)
(-7.64853e-05 -0.000132094 0.103671)
(-5.91998e-05 -5.92129e-05 0.10362)
(0.000180172 0.000180042 0.103664)
(5.26039e-05 5.26312e-05 0.103987)
(7.59521e-05 0.000131118 0.103774)
(-7.59365e-05 0.000131119 0.103774)
(7.47049e-05 0.000128271 0.104076)
(-7.46919e-05 0.000128276 0.104076)
(-0.000180169 0.00018004 0.103664)
(-5.26143e-05 5.26653e-05 0.103987)
(0.000131068 7.59524e-05 0.103774)
(0.000131097 -7.59272e-05 0.103774)
(0.000128217 7.46371e-05 0.104076)
(0.000128252 -7.46839e-05 0.104076)
(-0.0001311 -7.59262e-05 0.103774)
(-0.000128206 7.46156e-05 0.104076)
(-0.000128248 -7.46363e-05 0.104076)
(0.000180055 -0.000180228 0.103664)
(5.26288e-05 -5.2557e-05 0.103987)
(-7.5936e-05 -0.000131046 0.103774)
(7.46101e-05 -0.000128198 0.104076)
(-7.45905e-05 -0.000128181 0.104076)
(-5.25777e-05 -5.25486e-05 0.103987)
(0.000178121 0.000178066 0.104023)
(4.68634e-05 4.68773e-05 0.104332)
(7.43263e-05 0.000127389 0.104174)
(-7.43129e-05 0.000127396 0.104174)
(7.32975e-05 0.000124927 0.104463)
(-7.32816e-05 0.000124934 0.104463)
(-0.000178127 0.000178075 0.104023)
(-4.68728e-05 4.69183e-05 0.104332)
(0.000127337 7.42613e-05 0.104175)
(0.000127373 -7.43097e-05 0.104174)
(0.000124871 7.32375e-05 0.104463)
(0.000124914 -7.32792e-05 0.104463)
(-0.000127372 -7.42666e-05 0.104174)
(-0.00012486 7.321e-05 0.104463)
(-0.000124915 -7.3243e-05 0.104463)
(0.000178059 -0.000178108 0.104023)
(4.68817e-05 -4.68354e-05 0.104332)
(-7.42182e-05 -0.000127305 0.104175)
(7.32089e-05 -0.000124854 0.104463)
(-7.31933e-05 -0.000124845 0.104463)
(-4.68554e-05 -4.68426e-05 0.104332)
(0.000176957 0.000176893 0.104358)
(4.15115e-05 4.1523e-05 0.104657)
(7.29853e-05 0.000124162 0.104557)
(-7.29673e-05 0.000124169 0.104557)
(7.21219e-05 0.00012202 0.104834)
(-7.2095e-05 0.000122015 0.104834)
(-0.000176962 0.000176905 0.104358)
(-4.15053e-05 4.15536e-05 0.104657)
(0.000124104 7.29286e-05 0.104557)
(0.000124149 -7.29664e-05 0.104557)
(0.000121951 7.20663e-05 0.104834)
(0.000121998 -7.20935e-05 0.104834)
(-0.00012415 -7.29314e-05 0.104557)
(-0.000121936 7.20201e-05 0.104834)
(-0.000121999 -7.20602e-05 0.104834)
(0.000176891 -0.000176956 0.104358)
(4.15198e-05 -4.14881e-05 0.104657)
(-7.28809e-05 -0.000124079 0.104557)
(7.2026e-05 -0.000121932 0.104834)
(-7.20102e-05 -0.000121925 0.104834)
(-4.15076e-05 -4.1506e-05 0.104657)
(0.000176302 0.000176238 0.104673)
(3.63939e-05 3.63799e-05 0.104961)
(7.18435e-05 0.000121342 0.104924)
(-7.1817e-05 0.000121336 0.104924)
(7.10007e-05 0.000119397 0.10519)
(-7.09817e-05 0.000119397 0.10519)
(-0.000176294 0.000176238 0.104673)
(-3.63948e-05 3.64326e-05 0.104961)
(0.000121275 7.17898e-05 0.104924)
(0.000121323 -7.18157e-05 0.104924)
(0.000119337 7.09482e-05 0.10519)
(0.000119388 -7.09788e-05 0.10519)
(-0.000121325 -7.17833e-05 0.104924)
(-0.000119326 7.09076e-05 0.10519)
(-0.000119392 -7.0947e-05 0.10519)
(0.000176228 -0.000176307 0.104673)
(3.63948e-05 -3.63843e-05 0.104961)
(-7.17322e-05 -0.00012125 0.104924)
(7.09163e-05 -0.000119319 0.10519)
(-7.08978e-05 -0.000119314 0.10519)
(-3.6398e-05 -3.6407e-05 0.104961)
(0.000175875 0.000175785 0.104967)
(3.14156e-05 3.13831e-05 0.105246)
(7.07224e-05 0.000118775 0.105277)
(-7.07049e-05 0.000118776 0.105277)
(6.98553e-05 0.000116947 0.105531)
(-6.98285e-05 0.000116944 0.105531)
(-0.000175873 0.000175807 0.104967)
(-3.14296e-05 3.1451e-05 0.105246)
(0.000118717 7.06743e-05 0.105277)
(0.000118768 -7.0703e-05 0.105277)
(0.000116884 6.98095e-05 0.105531)
(0.000116935 -6.98263e-05 0.105531)
(-0.000118771 -7.06712e-05 0.105277)
(-0.000116875 6.97639e-05 0.105531)
(-0.000116942 -6.97951e-05 0.105531)
(0.000175794 -0.000175895 0.104967)
(3.14024e-05 -3.14193e-05 0.105246)
(-7.06209e-05 -0.000118694 0.105277)
(6.97743e-05 -0.000116865 0.105531)
(-6.97525e-05 -0.000116862 0.105531)
(-3.142e-05 -3.14485e-05 0.105246)
(0.000175538 0.000175424 0.10524)
(2.65437e-05 2.65405e-05 0.105511)
(6.9549e-05 0.000116341 0.105614)
(-6.95216e-05 0.000116342 0.105614)
(6.86013e-05 0.000114566 0.105859)
(-6.86014e-05 0.000114555 0.105859)
(-0.000175559 0.000175465 0.10524)
(-2.6498e-05 2.66102e-05 0.105511)
(0.000116283 6.95124e-05 0.105615)
(0.000116334 -6.95208e-05 0.105614)
(0.000114492 6.85611e-05 0.105859)
(0.000114549 -6.86027e-05 0.105859)
(-0.000116341 -6.94892e-05 0.105614)
(-0.000114482 6.85183e-05 0.105859)
(-0.000114559 -6.85704e-05 0.105859)
(0.00017544 -0.00017558 0.10524)
(2.65569e-05 -2.64835e-05 0.105511)
(-6.94476e-05 -0.00011626 0.105615)
(6.85361e-05 -0.000114465 0.105859)
(-6.85031e-05 -0.000114466 0.105859)
(-2.65805e-05 -2.65241e-05 0.105511)
(0.000175217 0.000175145 0.105491)
(2.1387e-05 2.14475e-05 0.105755)
(6.83264e-05 0.000113973 0.105938)
(-6.83303e-05 0.000113967 0.105938)
(6.75291e-05 0.000112213 0.106172)
(-6.75387e-05 0.00011222 0.106172)
(-0.000175181 0.000175181 0.105491)
(-2.13484e-05 2.14788e-05 0.105755)
(0.0001139 6.82643e-05 0.105938)
(0.000113963 -6.83255e-05 0.105938)
(0.000112143 6.74524e-05 0.106172)
(0.000112209 -6.75241e-05 0.106172)
(-0.000113971 -6.82997e-05 0.105938)
(-0.000112153 6.74356e-05 0.106172)
(-0.000112229 -6.75086e-05 0.106172)
(0.000175153 -0.000175193 0.105491)
(2.14798e-05 -2.13566e-05 0.105755)
(-6.82163e-05 -0.000113874 0.105938)
(6.7405e-05 -0.000112118 0.106172)
(-6.74141e-05 -0.000112132 0.106172)
(-2.14495e-05 -2.13799e-05 0.105755)
(0.000174352 0.000174319 0.10572)
(1.64715e-05 1.65383e-05 0.105977)
(6.72651e-05 0.000111642 0.106248)
(-6.72767e-05 0.000111655 0.106248)
(6.6501e-05 0.000110052 0.10647)
(-6.65305e-05 0.00011008 0.10647)
(-0.000174325 0.000174329 0.10572)
(-1.64297e-05 1.65456e-05 0.105977)
(0.000111578 6.71909e-05 0.106248)
(0.000111644 -6.72629e-05 0.106248)
(0.000110002 6.64346e-05 0.10647)
(0.000110068 -6.65076e-05 0.10647)
(-0.000111663 -6.72452e-05 0.106248)
(-0.000109943 6.64062e-05 0.10647)
(-0.000110016 -6.64729e-05 0.10647)
(0.000174348 -0.000174365 0.10572)
(1.65584e-05 -1.64539e-05 0.105977)
(-6.71512e-05 -0.000111559 0.106248)
(6.63858e-05 -0.000109976 0.10647)
(-6.63773e-05 -0.000109914 0.10647)
(-1.64891e-05 -1.64322e-05 0.105977)
(0.000173314 0.000173287 0.105926)
(1.1896e-05 1.19619e-05 0.106176)
(6.62342e-05 0.000109522 0.106542)
(-6.62635e-05 0.00010955 0.106542)
(6.54782e-05 0.000108055 0.106753)
(-6.5492e-05 0.000108066 0.106753)
(-0.00017328 0.000173273 0.105926)
(-1.18614e-05 1.19271e-05 0.106176)
(0.000109478 6.61705e-05 0.106543)
(0.000109545 -6.62439e-05 0.106542)
(0.000108015 6.54106e-05 0.106754)
(0.000108082 -6.54861e-05 0.106753)
(-0.000109493 -6.62085e-05 0.106542)
(-0.000107955 6.53777e-05 0.106754)
(-0.000108039 -6.54582e-05 0.106753)
(0.000173306 -0.000173341 0.105926)
(1.19757e-05 -1.18803e-05 0.106176)
(-6.6114e-05 -0.000109384 0.106543)
(6.53634e-05 -0.000107984 0.106754)
(-6.53596e-05 -0.000107934 0.106754)
(-1.19107e-05 -1.18594e-05 0.106176)
(0.00017201 0.000171981 0.106108)
(7.67786e-06 7.74358e-06 0.10635)
(6.5196e-05 0.000107524 0.106822)
(-6.52111e-05 0.000107537 0.106822)
(6.4367e-05 0.000105972 0.107021)
(-6.43831e-05 0.000105992 0.107021)
(-0.000171978 0.000171929 0.106108)
(-7.63936e-06 7.70755e-06 0.10635)
(0.000107489 6.51304e-05 0.106822)
(0.000107554 -6.5205e-05 0.106822)
(0.000105942 6.4304e-05 0.107022)
(0.000106011 -6.43804e-05 0.107021)
(-0.000107514 -6.51776e-05 0.106822)
(-0.000105878 6.42723e-05 0.107022)
(-0.000105975 -6.43535e-05 0.107021)
(0.000171995 -0.000172038 0.106108)
(7.75662e-06 -7.6676e-06 0.10635)
(-6.50787e-05 -0.000107398 0.106822)
(6.42556e-05 -0.000105907 0.107022)
(-6.42514e-05 -0.000105855 0.107022)
(-7.69207e-06 -7.64952e-06 0.10635)
(0.000170278 0.000170251 0.106264)
(3.84026e-06 3.89857e-06 0.106498)
(6.41165e-05 0.000105518 0.107086)
(-6.41311e-05 0.000105518 0.107086)
(6.32888e-05 0.000104082 0.107273)
(-6.3304e-05 0.000104081 0.107273)
(-0.000170242 0.000170201 0.106265)
(-3.79784e-06 3.87516e-06 0.106498)
(0.00010547 6.40559e-05 0.107086)
(0.000105536 -6.41302e-05 0.107086)
(0.000104019 6.32332e-05 0.107274)
(0.000104086 -6.33017e-05 0.107273)
(-0.000105502 -6.41038e-05 0.107086)
(-0.000103987 6.32107e-05 0.107274)
(-0.00010406 -6.32752e-05 0.107273)
(0.000170264 -0.000170311 0.106264)
(3.91401e-06 -3.82932e-06 0.106498)
(-6.40022e-05 -0.000105399 0.107086)
(6.31789e-05 -0.000103983 0.107274)
(-6.31768e-05 -0.000103959 0.107274)
(-3.85855e-06 -3.8146e-06 0.106498)
(0.000168084 0.000168048 0.106394)
(4.37245e-07 5.06284e-07 0.106619)
(6.3016e-05 0.000103609 0.107334)
(-6.30357e-05 0.000103608 0.107334)
(6.22763e-05 0.000102197 0.107509)
(-6.22915e-05 0.000102216 0.107509)
(-0.000168044 0.000168012 0.106394)
(-3.94809e-07 4.81317e-07 0.106619)
(0.000103541 6.29699e-05 0.107334)
(0.000103606 -6.3034e-05 0.107334)
(0.000102142 6.22219e-05 0.107509)
(0.000102215 -6.22851e-05 0.107508)
(-0.000103582 -6.30079e-05 0.107334)
(-0.000102113 6.2189e-05 0.107509)
(-0.000102193 -6.22664e-05 0.107509)
(0.000168064 -0.000168114 0.106394)
(5.09068e-07 -4.28602e-07 0.106618)
(-6.29099e-05 -0.000103478 0.107334)
(6.2164e-05 -0.00010211 0.107509)
(-6.21615e-05 -0.000102088 0.107509)
(-4.54157e-07 -4.17986e-07 0.106618)
(0.000165391 0.00016536 0.106497)
(-2.64155e-06 -2.582e-06 0.106712)
(6.20245e-05 0.000101716 0.107565)
(-6.20307e-05 0.000101732 0.107565)
(6.11332e-05 0.00010004 0.107727)
(-6.11486e-05 0.000100075 0.107727)
(-0.000165341 0.000165318 0.106497)
(2.68375e-06 -2.63769e-06 0.106712)
(0.000101675 6.19677e-05 0.107565)
(0.00010175 -6.20317e-05 0.107564)
(9.99968e-05 6.10805e-05 0.107727)
(0.000100074 -6.11542e-05 0.107726)
(-0.00010172 -6.20118e-05 0.107565)
(-9.9978e-05 6.10562e-05 0.107727)
(-0.000100047 -6.11302e-05 0.107727)
(0.00016537 -0.000165425 0.106497)
(-2.58193e-06 2.65179e-06 0.106712)
(-6.19069e-05 -0.000101622 0.107565)
(6.1033e-05 -9.99729e-05 0.107727)
(-6.10291e-05 -9.99548e-05 0.107727)
(2.63805e-06 2.67123e-06 0.106712)
(0.000162016 0.000161974 0.106573)
(6.09323e-05 9.96292e-05 0.107778)
(-6.09476e-05 9.96706e-05 0.107778)
(-0.000161973 0.00016191 0.106573)
(9.95962e-05 6.08902e-05 0.107779)
(9.96724e-05 -6.09528e-05 0.107778)
(-9.96489e-05 -6.09288e-05 0.107778)
(0.000161983 -0.000162046 0.106573)
(-6.08249e-05 -9.95281e-05 0.107779)
(-3.34131e-07 -3.36788e-07 0.0999988)
(1.6828e-05 1.68226e-05 0.100003)
(-4.5065e-07 1.39327e-05 0.1)
(1.39404e-05 -4.53197e-07 0.1)
(-4.66041e-05 5.72863e-06 0.100009)
(-1.52705e-05 1.55869e-05 0.0999999)
(-0.000127914 6.04499e-05 0.100058)
(-1.31108e-05 -8.63738e-07 0.0999958)
(5.72291e-06 -4.6588e-05 0.100009)
(1.55905e-05 -1.52704e-05 0.0999999)
(-8.61865e-07 -1.31087e-05 0.0999958)
(6.04602e-05 -0.000127844 0.100058)
(-1.87235e-05 -1.87267e-05 0.100003)
(-0.000134957 -8.10553e-05 0.100054)
(-8.10631e-05 -0.000134937 0.100054)
(-3.47637e-05 0.00013606 0.100724)
(0.000177042 0.000388493 0.0994167)
(2.38519e-06 0.000305445 0.100517)
(-8.40127e-05 0.000243399 0.0991471)
(-0.000303484 0.000837889 0.0977726)
(-0.0001292 0.00030453 0.0957179)
(0.00013579 -3.49091e-05 0.100724)
(0.000389111 0.000176003 0.0994175)
(0.000306198 2.24661e-06 0.100517)
(0.000243523 -8.39097e-05 0.0991475)
(-0.000107942 0.000107894 0.100299)
(0.000107929 -0.000107939 0.100299)
(-0.000107921 -0.000107948 0.100299)
(9.17525e-05 9.16835e-05 0.100739)
(-9.17084e-05 9.17009e-05 0.100739)
(9.17377e-05 -9.17511e-05 0.100739)
(-9.17169e-05 -9.17614e-05 0.100739)
(-0.000280713 6.40024e-06 0.100754)
(-0.000399052 0.000229237 0.100526)
(-0.000175287 3.73832e-05 0.100332)
(-0.000153241 9.45082e-05 0.100558)
(-0.000358991 1.56361e-05 0.100479)
(-0.00014885 0.00019878 0.100739)
(-0.000152722 3.32785e-05 0.100497)
(0.00083685 -0.000301609 0.0977707)
(0.00030454 -0.000128806 0.0957191)
(6.35206e-06 -0.000280628 0.100753)
(3.74183e-05 -0.000175261 0.100332)
(0.000229337 -0.000399034 0.100526)
(9.44676e-05 -0.00015323 0.100558)
(1.56327e-05 -0.000358868 0.100479)
(3.33274e-05 -0.000152706 0.100497)
(0.000198819 -0.000148845 0.100739)
(-0.000372635 -0.000141962 0.100361)
(-0.000142166 -0.000372882 0.100361)
(-0.000111979 -0.000112054 0.100655)
(1.10644e-05 -7.89109e-05 0.10059)
(-7.9169e-05 1.10839e-05 0.10059)
(-1.65347e-05 0.000198364 0.100867)
(-5.49141e-05 0.000288084 0.0983202)
(-2.02847e-05 0.000208727 0.100777)
(-4.48006e-05 0.000271137 0.0979449)
(-0.000150379 0.000313452 0.0926218)
(-0.000137214 0.00027311 0.0909991)
(0.000198286 -1.66922e-05 0.100867)
(0.000288336 -5.48e-05 0.0983205)
(0.000208774 -2.04247e-05 0.100778)
(0.000271271 -4.47339e-05 0.0979451)
(-9.42336e-05 9.42495e-05 0.10086)
(9.42899e-05 -9.42835e-05 0.10086)
(-9.42675e-05 -9.42821e-05 0.10086)
(9.61988e-05 9.61824e-05 0.101239)
(-9.61705e-05 9.61986e-05 0.101239)
(9.62123e-05 -9.62081e-05 0.101239)
(-9.6206e-05 -9.62023e-05 0.101239)
(-0.00026363 1.32864e-05 0.101153)
(-0.000219008 0.000214164 0.100818)
(-0.000164512 3.10415e-05 0.100897)
(-0.000160205 9.74315e-05 0.101064)
(-0.000297966 1.41208e-05 0.100977)
(-0.000183321 0.0001979 0.100945)
(-0.000168725 3.24797e-05 0.101019)
(0.000313423 -0.000150092 0.09262)
(0.000273216 -0.00013706 0.0910008)
(1.33588e-05 -0.000263608 0.101153)
(3.11142e-05 -0.000164509 0.100897)
(0.000214238 -0.000219082 0.100819)
(9.74276e-05 -0.000160204 0.101064)
(1.42134e-05 -0.000297935 0.100977)
(3.25464e-05 -0.000168722 0.101019)
(0.000197861 -0.000183259 0.100944)
(-8.38662e-05 -9.7156e-05 0.100439)
(-9.72645e-05 -8.38849e-05 0.100439)
(-0.000112483 -0.000112482 0.101144)
(-8.66678e-05 -8.26252e-05 0.10043)
(-8.27579e-05 -8.67198e-05 0.100429)
(-9.3691e-06 0.000210821 0.100957)
(-2.19414e-05 0.000281515 0.0971366)
(-1.16104e-05 0.00023041 0.100903)
(-1.22685e-05 0.000257001 0.0967124)
(-0.000117392 0.000225923 0.0883858)
(-9.69294e-05 0.000187315 0.0870646)
(0.000210747 -9.48582e-06 0.100956)
(0.000281648 -2.18747e-05 0.0971367)
(0.000230463 -1.17281e-05 0.100904)
(0.000257103 -1.21855e-05 0.0967126)
(-9.53972e-05 9.5429e-05 0.10137)
(9.54382e-05 -9.54341e-05 0.10137)
(-9.54305e-05 -9.54292e-05 0.10137)
(9.43488e-05 9.43389e-05 0.101763)
(-9.43273e-05 9.43618e-05 0.101763)
(9.43745e-05 -9.4354e-05 0.101763)
(-9.43561e-05 -9.43566e-05 0.101763)
(-0.000251016 1.22056e-05 0.10158)
(-0.000222513 0.000190503 0.101028)
(-0.000167313 3.27723e-05 0.101407)
(-0.00015516 9.28662e-05 0.101577)
(-0.000290173 1.20932e-05 0.101414)
(-0.000182299 0.000169381 0.101123)
(-0.000167151 3.27082e-05 0.101537)
(0.00022577 -0.000117141 0.0883829)
(0.000187394 -9.68484e-05 0.0870661)
(1.22556e-05 -0.000251002 0.10158)
(3.28136e-05 -0.000167324 0.101407)
(0.000190535 -0.000222563 0.101028)
(9.28619e-05 -0.000155165 0.101577)
(1.21473e-05 -0.000290177 0.101414)
(3.27443e-05 -0.000167149 0.101537)
(0.000169329 -0.000182242 0.101122)
(-0.000116075 -9.15026e-05 0.100183)
(-9.16054e-05 -0.000116148 0.100183)
(-0.00010149 -0.000101495 0.101646)
(-0.000111983 -7.23403e-05 0.100086)
(-7.2423e-05 -0.000112057 0.100085)
(-6.96112e-06 0.000210238 0.100953)
(5.51259e-06 0.000258126 0.0958572)
(-7.87143e-06 0.00023624 0.100927)
(1.02233e-05 0.000229636 0.0954228)
(-7.7345e-05 0.000150016 0.0849776)
(-5.91711e-05 0.000118941 0.0839654)
(0.000210163 -7.05182e-06 0.100952)
(0.000258206 5.56489e-06 0.0958571)
(0.000236319 -7.9581e-06 0.100928)
(0.000229723 1.03112e-05 0.0954231)
(-9.38639e-05 9.38988e-05 0.101892)
(9.39123e-05 -9.38876e-05 0.101892)
(-9.38919e-05 -9.38923e-05 0.101892)
(9.18703e-05 9.18671e-05 0.102273)
(-9.18564e-05 9.18954e-05 0.102273)
(9.19071e-05 -9.18717e-05 0.102273)
(-9.1883e-05 -9.18816e-05 0.102273)
(-0.000238552 1.11542e-05 0.101978)
(-0.00021984 0.000162763 0.101142)
(-0.000165096 3.20931e-05 0.101923)
(-0.000150696 8.89757e-05 0.102081)
(-0.000282643 1.10178e-05 0.101822)
(-0.000175026 0.000141241 0.101214)
(-0.000163802 3.17587e-05 0.10205)
(0.00014985 -7.71542e-05 0.0849744)
(0.000119027 -5.91456e-05 0.0839669)
(1.11942e-05 -0.000238544 0.101978)
(3.21132e-05 -0.000165095 0.101923)
(0.000162813 -0.000219904 0.101142)
(8.89878e-05 -0.000150699 0.102081)
(1.10559e-05 -0.000282658 0.101822)
(3.17742e-05 -0.000163787 0.10205)
(0.000141194 -0.000174971 0.101212)
(-0.00013307 -7.94038e-05 0.0997195)
(-7.94709e-05 -0.000133137 0.0997193)
(-9.13925e-05 -9.13958e-05 0.102133)
(-0.000123762 -6.02287e-05 0.0995702)
(-6.0283e-05 -0.00012383 0.0995694)
(-6.41766e-06 0.000202344 0.100851)
(1.90192e-05 0.000226827 0.0945607)
(-6.84114e-06 0.000231187 0.100852)
(1.86954e-05 0.000197435 0.0941429)
(-4.54563e-05 9.53652e-05 0.0823431)
(-3.13377e-05 7.2067e-05 0.081591)
(0.000202267 -6.48449e-06 0.10085)
(0.000226847 1.9047e-05 0.09456)
(0.000231282 -6.90056e-06 0.100854)
(0.000197512 1.87903e-05 0.0941434)
(-9.11169e-05 9.11573e-05 0.102398)
(9.11678e-05 -9.11294e-05 0.102398)
(-9.1143e-05 -9.11399e-05 0.102398)
(8.88927e-05 8.88972e-05 0.102765)
(-8.88852e-05 8.89309e-05 0.102765)
(8.89392e-05 -8.88899e-05 0.102765)
(-8.89104e-05 -8.89041e-05 0.102765)
(-0.000223567 1.02715e-05 0.102335)
(-0.000210915 0.000137478 0.101161)
(-0.000159035 3.06782e-05 0.102424)
(-0.000144832 8.45073e-05 0.102565)
(-0.000271017 9.92364e-06 0.102189)
(-0.000164252 0.000117107 0.101213)
(-0.00015734 3.03244e-05 0.102546)
(9.51871e-05 -4.52844e-05 0.0823398)
(7.20668e-05 -3.1241e-05 0.0815929)
(1.03036e-05 -0.000223557 0.102335)
(3.06832e-05 -0.000159026 0.102424)
(0.000137527 -0.000210984 0.101162)
(8.4517e-05 -0.000144835 0.102565)
(9.953e-06 -0.000271034 0.102189)
(3.0326e-05 -0.00015732 0.102546)
(0.000117054 -0.000164198 0.101212)
(-0.000137944 -6.86203e-05 0.0991153)
(-6.86697e-05 -0.000138002 0.099115)
(-8.09605e-05 -8.09633e-05 0.102592)
(-0.000125634 -5.08087e-05 0.0989316)
(-5.08478e-05 -0.000125686 0.0989305)
(-6.09358e-06 0.000190672 0.100664)
(2.06083e-05 0.000194436 0.0933117)
(-6.63456e-06 0.000220912 0.100688)
(1.72461e-05 0.000165625 0.0929267)
(-2.42534e-05 6.00335e-05 0.0803365)
(-1.3563e-05 4.23931e-05 0.0797841)
(0.000190591 -6.14977e-06 0.100663)
(0.000194417 2.06313e-05 0.0933104)
(0.000221017 -6.67342e-06 0.10069)
(0.000165684 1.73329e-05 0.0929275)
(-8.81436e-05 8.81898e-05 0.102885)
(8.81992e-05 -8.81466e-05 0.102885)
(-8.81694e-05 -8.81614e-05 0.102885)
(8.59959e-05 8.60075e-05 0.103238)
(-8.59865e-05 8.60367e-05 0.103238)
(8.60529e-05 -8.59866e-05 0.103238)
(-8.60158e-05 -8.6006e-05 0.103238)
(-0.00020785 9.73231e-06 0.102649)
(-0.000199418 0.000116615 0.101097)
(-0.000152216 2.93382e-05 0.102904)
(-0.00013928 8.07276e-05 0.103024)
(-0.000257466 9.1919e-06 0.102514)
(-0.000152221 9.75406e-05 0.101132)
(-0.000150516 2.90345e-05 0.10302)
(5.9829e-05 -2.40746e-05 0.0803332)
(4.24044e-05 -1.34766e-05 0.0797864)
(9.76129e-06 -0.000207841 0.102649)
(2.93333e-05 -0.000152204 0.102904)
(0.000116666 -0.000199491 0.101098)
(8.07399e-05 -0.000139284 0.103024)
(9.21597e-06 -0.000257486 0.102514)
(2.90287e-05 -0.000150495 0.103021)
(9.74882e-05 -0.000152163 0.10113)
(-0.000135342 -6.08856e-05 0.0984182)
(-6.09241e-05 -0.000135392 0.0984176)
(-7.14774e-05 -7.14816e-05 0.103024)
(-0.000121513 -4.43322e-05 0.0982132)
(-4.43608e-05 -0.000121557 0.0982117)
(-4.95035e-06 0.000176988 0.100405)
(1.56427e-05 0.000164604 0.0921472)
(-5.84315e-06 0.00020791 0.100448)
(1.08759e-05 0.000137015 0.0918029)
(-1.14511e-05 3.84824e-05 0.0788062)
(-2.99376e-06 2.45281e-05 0.0784001)
(0.000176907 -5.01573e-06 0.100403)
(0.000164573 1.56512e-05 0.0921459)
(0.000208024 -5.88715e-06 0.10045)
(0.000137052 1.09243e-05 0.0918037)
(-8.53081e-05 8.53594e-05 0.103353)
(8.53787e-05 -8.53073e-05 0.103353)
(-8.53395e-05 -8.53276e-05 0.103353)
(8.34271e-05 8.34549e-05 0.103692)
(-8.34183e-05 8.34706e-05 0.103692)
(8.34921e-05 -8.34134e-05 0.103692)
(-8.34498e-05 -8.34352e-05 0.103692)
(-0.00019251 9.5641e-06 0.102923)
(-0.000187166 9.98766e-05 0.100959)
(-0.000145577 2.82401e-05 0.103363)
(-0.000134316 7.77139e-05 0.103461)
(-0.000243623 8.80941e-06 0.102796)
(-0.000140191 8.18797e-05 0.10098)
(-0.000144011 2.80131e-05 0.103474)
(3.83225e-05 -1.13395e-05 0.0788025)
(2.46395e-05 -3.04271e-06 0.0784028)
(9.59601e-06 -0.000192502 0.102923)
(2.82345e-05 -0.000145566 0.103363)
(9.99441e-05 -0.00018724 0.10096)
(7.77429e-05 -0.000134324 0.103461)
(8.8355e-06 -0.000243646 0.102796)
(2.80075e-05 -0.00014399 0.103474)
(8.18433e-05 -0.00014013 0.100979)
(-0.00012857 -5.5328e-05 0.0976637)
(-5.53554e-05 -0.000128611 0.0976629)
(-6.30487e-05 -6.30562e-05 0.103428)
(-0.000114084 -3.95603e-05 0.0974482)
(-3.95788e-05 -0.00011412 0.0974465)
(-3.13275e-06 0.000162672 0.100086)
(7.99266e-06 0.000138972 0.0910837)
(-4.24897e-06 0.000193554 0.100146)
(2.96909e-06 0.000112831 0.0907807)