/*--------------------------------*- C++ -*----------------------------------*\
| =========                 |                                                 |
| \\      /  F ield         | OpenFOAM: The Open Source CFD Toolbox           |
|  \\    /   O peration     | Version:  v1906                                 |
|   \\  /    A nd           | Web:      www.OpenFOAM.com                      |
|    \\/     M anipulation  |                                                 |
\*---------------------------------------------------------------------------*/
FoamFile
{
    version     2.0;
    format      ascii;
    class       volScalarField;
    location    "0.18";
    object      p;
}
// * * * * * * * * * * * * * * * * * * * * * * * * * * * * * * * * * * * * * //

dimensions      [0 2 -2 0 0 0 0];


internalField   nonuniform List<scalar> 
247104
(
3.12718e-11
3.57412e-10
4.00992e-10
2.57219e-10
7.11256e-11
2.98082e-10
4.07311e-10
2.8629e-10
3.5135e-10
4.12083e-10
4.57586e-10
2.55039e-10
1.21388e-10
2.87989e-10
4.7447e-10
3.88654e-10
4.06762e-10
4.58283e-10
1.59486e-10
-2.2867e-10
-3.85566e-10
-1.85662e-10
2.12335e-10
4.75015e-10
3.95978e-10
2.59885e-10
2.54332e-10
-2.29625e-10
-7.19116e-10
-8.97333e-10
-6.69474e-10
-1.57812e-10
2.92763e-10
2.26411e-10
1.8095e-11
6.529e-11
1.17146e-10
-3.8867e-10
-8.99023e-10
-1.08224e-09
-8.4791e-10
-3.13554e-10
1.54951e-10
1.55453e-11
2.89126e-10
2.80652e-10
-1.91171e-10
-6.73085e-10
-8.49539e-10
-6.23915e-10
-1.20683e-10
3.18002e-10
2.60937e-10
3.98236e-10
4.65149e-10
2.04668e-10
-1.63205e-10
-3.16426e-10
-1.21515e-10
2.53493e-10
4.76962e-10
3.8832e-10
2.75621e-10
3.77846e-10
4.65475e-10
2.85641e-10
1.51433e-10
3.17568e-10
4.7758e-10
3.48309e-10
3.84477e-10
2.16983e-10
1.1892e-11
2.62717e-10
3.90766e-10
-3.38451e-08
-3.59409e-08
-3.59447e-08
-3.70841e-08
-3.72906e-08
-3.73518e-08
-3.73563e-08
-3.58272e-08
-3.54681e-08
-3.59499e-08
-3.80205e-08
-4.10472e-08
-4.11684e-08
-4.11684e-08
-4.10454e-08
-3.76087e-08
-3.74084e-08
-3.70868e-08
-4.10483e-08
-4.11254e-08
-4.10913e-08
-4.10909e-08
-4.11241e-08
-4.10451e-08
-3.71514e-08
-3.6278e-08
-3.38438e-08
-3.72971e-08
-4.11697e-08
-4.10915e-08
-4.0981e-08
-4.09806e-08
-4.10905e-08
-4.11672e-08
-3.73169e-08
-3.56276e-08
-3.59301e-08
-3.73571e-08
-4.11696e-08
-4.10914e-08
-4.09808e-08
-4.09805e-08
-4.10904e-08
-4.11671e-08
-3.7186e-08
-3.74801e-08
-3.73593e-08
-4.10479e-08
-4.11252e-08
-4.10909e-08
-4.10906e-08
-4.1124e-08
-4.10459e-08
-3.73104e-08
-3.64988e-08
-3.58333e-08
-3.76137e-08
-4.10473e-08
-4.11679e-08
-4.11685e-08
-4.10468e-08
-3.75203e-08
-3.71882e-08
-3.57847e-08
-3.54668e-08
-3.74146e-08
-3.71526e-08
-3.73171e-08
-3.71867e-08
-3.73117e-08
-3.71884e-08
-3.48486e-08
-3.62796e-08
-3.56332e-08
-3.74812e-08
-3.65018e-08
-3.57803e-08
-5.3919e-08
-5.41262e-08
-5.42796e-08
-5.64774e-08
-5.6529e-08
-5.65286e-08
-5.64927e-08
-5.4165e-08
-5.40125e-08
-5.42666e-08
-5.71651e-08
-6.02253e-08
-6.04042e-08
-6.04048e-08
-6.02268e-08
-5.63886e-08
-5.60104e-08
-5.64792e-08
-6.0234e-08
-6.06652e-08
-6.06711e-08
-6.06709e-08
-6.06641e-08
-6.02256e-08
-5.55891e-08
-5.3612e-08
-5.39184e-08
-5.65297e-08
-6.04062e-08
-6.06725e-08
-6.0658e-08
-6.06575e-08
-6.0671e-08
-6.04028e-08
-5.55813e-08
-5.3985e-08
-5.41254e-08
-5.65282e-08
-6.04064e-08
-6.06728e-08
-6.06581e-08
-6.06575e-08
-6.06705e-08
-6.04028e-08
-5.5665e-08
-5.60366e-08
-5.64936e-08
-6.02306e-08
-6.06653e-08
-6.06715e-08
-6.06711e-08
-6.06636e-08
-6.02265e-08
-5.55354e-08
-5.36038e-08
-5.41671e-08
-5.63907e-08
-6.02278e-08
-6.04035e-08
-6.04052e-08
-6.02265e-08
-5.58959e-08
-5.57632e-08
-5.36906e-08
-5.40128e-08
-5.60123e-08
-5.55906e-08
-5.55826e-08
-5.56659e-08
-5.55357e-08
-5.57636e-08
-5.36529e-08
-5.36155e-08
-5.39837e-08
-5.60378e-08
-5.36006e-08
-5.36926e-08
-7.35364e-08
-7.37115e-08
-7.38013e-08
-7.61187e-08
-7.61521e-08
-7.62588e-08
-7.60632e-08
-7.37249e-08
-7.35477e-08
-7.38051e-08
-7.70122e-08
-7.99339e-08
-8e-08
-8.0001e-08
-7.99348e-08
-7.61118e-08
-7.5466e-08
-7.61184e-08
-7.99334e-08
-8.01142e-08
-8.01213e-08
-8.01214e-08
-8.01134e-08
-7.99329e-08
-7.51289e-08
-7.31999e-08
-7.35341e-08
-7.615e-08
-8.00002e-08
-8.01222e-08
-8.01232e-08
-8.01229e-08
-8.01208e-08
-7.99981e-08
-7.50217e-08
-7.36167e-08
-7.37097e-08
-7.62566e-08
-8.00011e-08
-8.01221e-08
-8.01231e-08
-8.01229e-08
-8.01207e-08
-7.99991e-08
-7.50709e-08
-7.55105e-08
-7.60636e-08
-7.99357e-08
-8.01136e-08
-8.01211e-08
-8.01215e-08
-8.01136e-08
-7.9933e-08
-7.50359e-08
-7.32379e-08
-7.37239e-08
-7.61149e-08
-7.99325e-08
-7.99977e-08
-7.99992e-08
-7.99321e-08
-7.52381e-08
-7.52491e-08
-7.32286e-08
-7.35506e-08
-7.54677e-08
-7.51281e-08
-7.50205e-08
-7.50697e-08
-7.50356e-08
-7.52495e-08
-7.326e-08
-7.31995e-08
-7.36143e-08
-7.55e-08
-7.32343e-08
-7.32284e-08
-9.31615e-08
-9.33285e-08
-9.35097e-08
-9.58272e-08
-9.58715e-08
-9.60395e-08
-9.57749e-08
-9.34109e-08
-9.32511e-08
-9.35077e-08
-9.67976e-08
-9.96837e-08
-9.97044e-08
-9.97044e-08
-9.96849e-08
-9.59016e-08
-9.51175e-08
-9.58329e-08
-9.96867e-08
-9.97357e-08
-9.97386e-08
-9.97386e-08
-9.97355e-08
-9.96836e-08
-9.47644e-08
-9.2844e-08
-9.31599e-08
-9.58746e-08
-9.97053e-08
-9.97388e-08
-9.97393e-08
-9.97392e-08
-9.97382e-08
-9.97045e-08
-9.45807e-08
-9.31955e-08
-9.33317e-08
-9.60412e-08
-9.97047e-08
-9.97386e-08
-9.97392e-08
-9.97392e-08
-9.97384e-08
-9.97044e-08
-9.46099e-08
-9.50752e-08
-9.5775e-08
-9.96844e-08
-9.97353e-08
-9.97384e-08
-9.97387e-08
-9.97358e-08
-9.96848e-08
-9.46418e-08
-9.28268e-08
-9.34106e-08
-9.5897e-08
-9.96829e-08
-9.97046e-08
-9.97054e-08
-9.9686e-08
-9.47802e-08
-9.48671e-08
-9.28837e-08
-9.32621e-08
-9.51204e-08
-9.47645e-08
-9.45816e-08
-9.46124e-08
-9.46457e-08
-9.48797e-08
-9.29479e-08
-9.28449e-08
-9.31957e-08
-9.50758e-08
-9.28269e-08
-9.28851e-08
-1.12844e-07
-1.13007e-07
-1.13209e-07
-1.15538e-07
-1.15583e-07
-1.15765e-07
-1.15487e-07
-1.13109e-07
-1.12942e-07
-1.13208e-07
-1.16519e-07
-1.19406e-07
-1.19411e-07
-1.19412e-07
-1.19407e-07
-1.15643e-07
-1.14848e-07
-1.15543e-07
-1.19405e-07
-1.19419e-07
-1.19419e-07
-1.19419e-07
-1.19419e-07
-1.19406e-07
-1.1446e-07
-1.12537e-07
-1.1284e-07
-1.15584e-07
-1.19412e-07
-1.19419e-07
-1.19419e-07
-1.1942e-07
-1.1942e-07
-1.19412e-07
-1.14251e-07
-1.12858e-07
-1.13006e-07
-1.15767e-07
-1.19411e-07
-1.19419e-07
-1.19419e-07
-1.1942e-07
-1.1942e-07
-1.19411e-07
-1.14264e-07
-1.14736e-07
-1.15486e-07
-1.19404e-07
-1.19418e-07
-1.19419e-07
-1.1942e-07
-1.19419e-07
-1.19406e-07
-1.14324e-07
-1.12494e-07
-1.13106e-07
-1.15645e-07
-1.19405e-07
-1.19412e-07
-1.19412e-07
-1.19407e-07
-1.14433e-07
-1.14551e-07
-1.1258e-07
-1.12936e-07
-1.14843e-07
-1.14458e-07
-1.14249e-07
-1.14265e-07
-1.14325e-07
-1.1456e-07
-1.1264e-07
-1.12534e-07
-1.12855e-07
-1.14736e-07
-1.12494e-07
-1.1258e-07
-1.32543e-07
-1.32704e-07
-1.32907e-07
-1.35244e-07
-1.3529e-07
-1.35476e-07
-1.35195e-07
-1.32814e-07
-1.3264e-07
-1.32903e-07
-1.36228e-07
-1.39114e-07
-1.39116e-07
-1.39116e-07
-1.39115e-07
-1.3536e-07
-1.34542e-07
-1.35248e-07
-1.39115e-07
-1.39118e-07
-1.39118e-07
-1.39118e-07
-1.39118e-07
-1.39115e-07
-1.34162e-07
-1.32236e-07
-1.32538e-07
-1.3529e-07
-1.39116e-07
-1.39118e-07
-1.39118e-07
-1.39118e-07
-1.39119e-07
-1.39117e-07
-1.33944e-07
-1.32551e-07
-1.32704e-07
-1.35476e-07
-1.39116e-07
-1.39118e-07
-1.39118e-07
-1.39118e-07
-1.39119e-07
-1.39117e-07
-1.33955e-07
-1.34429e-07
-1.35196e-07
-1.39116e-07
-1.39118e-07
-1.39118e-07
-1.39118e-07
-1.39119e-07
-1.39115e-07
-1.34026e-07
-1.3219e-07
-1.32812e-07
-1.35367e-07
-1.39115e-07
-1.39116e-07
-1.39117e-07
-1.39116e-07
-1.3412e-07
-1.34248e-07
-1.32279e-07
-1.32613e-07
-1.34544e-07
-1.3416e-07
-1.33945e-07
-1.33956e-07
-1.34027e-07
-1.34257e-07
-1.32337e-07
-1.32235e-07
-1.32548e-07
-1.3443e-07
-1.32193e-07
-1.3228e-07
-1.52245e-07
-1.52407e-07
-1.52608e-07
-1.54948e-07
-1.54995e-07
-1.5518e-07
-1.549e-07
-1.52518e-07
-1.52341e-07
-1.52604e-07
-1.55933e-07
-1.5882e-07
-1.58821e-07
-1.5882e-07
-1.58821e-07
-1.55066e-07
-1.54245e-07
-1.54952e-07
-1.5882e-07
-1.58821e-07
-1.58821e-07
-1.58821e-07
-1.58821e-07
-1.58821e-07
-1.53866e-07
-1.51939e-07
-1.5224e-07
-1.54996e-07
-1.58821e-07
-1.58821e-07
-1.5882e-07
-1.5882e-07
-1.58821e-07
-1.5882e-07
-1.53644e-07
-1.52254e-07
-1.52407e-07
-1.55182e-07
-1.58821e-07
-1.58821e-07
-1.5882e-07
-1.5882e-07
-1.58821e-07
-1.58821e-07
-1.53655e-07
-1.54131e-07
-1.54902e-07
-1.5882e-07
-1.58821e-07
-1.58821e-07
-1.58821e-07
-1.58821e-07
-1.5882e-07
-1.53728e-07
-1.51892e-07
-1.52519e-07
-1.55073e-07
-1.5882e-07
-1.58821e-07
-1.58821e-07
-1.5882e-07
-1.53822e-07
-1.53951e-07
-1.51983e-07
-1.52318e-07
-1.54247e-07
-1.53865e-07
-1.53645e-07
-1.53657e-07
-1.53728e-07
-1.53958e-07
-1.5204e-07
-1.51938e-07
-1.52251e-07
-1.5413e-07
-1.51893e-07
-1.51982e-07
-1.71948e-07
-1.72109e-07
-1.72311e-07
-1.74652e-07
-1.74697e-07
-1.74884e-07
-1.74603e-07
-1.72221e-07
-1.72044e-07
-1.72308e-07
-1.75634e-07
-1.78522e-07
-1.78523e-07
-1.78523e-07
-1.78523e-07
-1.7477e-07
-1.73947e-07
-1.74655e-07
-1.78522e-07
-1.78522e-07
-1.78522e-07
-1.78522e-07
-1.78522e-07
-1.78522e-07
-1.73566e-07
-1.71642e-07
-1.71943e-07
-1.74698e-07
-1.78522e-07
-1.78522e-07
-1.78522e-07
-1.78522e-07
-1.78522e-07
-1.78523e-07
-1.73346e-07
-1.71955e-07
-1.72109e-07
-1.74885e-07
-1.78522e-07
-1.78522e-07
-1.78522e-07
-1.78522e-07
-1.78522e-07
-1.78522e-07
-1.73357e-07
-1.73833e-07
-1.74605e-07
-1.78522e-07
-1.78522e-07
-1.78522e-07
-1.78522e-07
-1.78523e-07
-1.78522e-07
-1.7343e-07
-1.71594e-07
-1.72221e-07
-1.74777e-07
-1.78522e-07
-1.78522e-07
-1.78522e-07
-1.78523e-07
-1.7352e-07
-1.73652e-07
-1.71685e-07
-1.72021e-07
-1.73951e-07
-1.73569e-07
-1.73347e-07
-1.73358e-07
-1.73431e-07
-1.7366e-07
-1.71739e-07
-1.71641e-07
-1.71954e-07
-1.73832e-07
-1.71595e-07
-1.71685e-07
-1.91647e-07
-1.91808e-07
-1.9201e-07
-1.94351e-07
-1.94396e-07
-1.94583e-07
-1.94302e-07
-1.9192e-07
-1.91743e-07
-1.92007e-07
-1.95335e-07
-1.98222e-07
-1.98222e-07
-1.98222e-07
-1.98222e-07
-1.94471e-07
-1.93646e-07
-1.94355e-07
-1.98221e-07
-1.98222e-07
-1.98222e-07
-1.98222e-07
-1.98222e-07
-1.98222e-07
-1.93266e-07
-1.91341e-07
-1.91642e-07
-1.94397e-07
-1.98222e-07
-1.98222e-07
-1.98222e-07
-1.98222e-07
-1.98222e-07
-1.98222e-07
-1.93046e-07
-1.91654e-07
-1.91808e-07
-1.94586e-07
-1.98221e-07
-1.98222e-07
-1.98222e-07
-1.98222e-07
-1.98222e-07
-1.98222e-07
-1.93056e-07
-1.93532e-07
-1.94304e-07
-1.98222e-07
-1.98222e-07
-1.98222e-07
-1.98222e-07
-1.98222e-07
-1.98222e-07
-1.93129e-07
-1.91293e-07
-1.9192e-07
-1.94476e-07
-1.98222e-07
-1.98222e-07
-1.98222e-07
-1.98222e-07
-1.9322e-07
-1.93351e-07
-1.91384e-07
-1.9172e-07
-1.9365e-07
-1.93267e-07
-1.93045e-07
-1.93056e-07
-1.93129e-07
-1.93359e-07
-1.91438e-07
-1.9134e-07
-1.91652e-07
-1.9353e-07
-1.91294e-07
-1.91384e-07
-2.11346e-07
-2.11507e-07
-2.11712e-07
-2.14052e-07
-2.14096e-07
-2.14283e-07
-2.14002e-07
-2.11617e-07
-2.11442e-07
-2.11707e-07
-2.15032e-07
-2.17922e-07
-2.17922e-07
-2.17922e-07
-2.17922e-07
-2.1417e-07
-2.13345e-07
-2.14054e-07
-2.17922e-07
-2.17922e-07
-2.17923e-07
-2.17922e-07
-2.17922e-07
-2.17922e-07
-2.12965e-07
-2.1104e-07
-2.11341e-07
-2.14097e-07
-2.17922e-07
-2.17922e-07
-2.17922e-07
-2.17922e-07
-2.17922e-07
-2.17922e-07
-2.12745e-07
-2.11353e-07
-2.11507e-07
-2.14285e-07
-2.17922e-07
-2.17923e-07
-2.17923e-07
-2.17923e-07
-2.17922e-07
-2.17922e-07
-2.12756e-07
-2.13231e-07
-2.14004e-07
-2.17922e-07
-2.17923e-07
-2.17922e-07
-2.17922e-07
-2.17922e-07
-2.17922e-07
-2.12828e-07
-2.10993e-07
-2.11619e-07
-2.14176e-07
-2.17922e-07
-2.17922e-07
-2.17922e-07
-2.17922e-07
-2.1292e-07
-2.1305e-07
-2.11083e-07
-2.1142e-07
-2.1335e-07
-2.12967e-07
-2.12745e-07
-2.12756e-07
-2.12828e-07
-2.13058e-07
-2.11137e-07
-2.11039e-07
-2.11352e-07
-2.1323e-07
-2.10993e-07
-2.11083e-07
-2.31049e-07
-2.3121e-07
-2.31407e-07
-2.33755e-07
-2.33799e-07
-2.33987e-07
-2.33705e-07
-2.31319e-07
-2.31144e-07
-2.31402e-07
-2.34744e-07
-2.37627e-07
-2.37626e-07
-2.37626e-07
-2.37625e-07
-2.33872e-07
-2.33048e-07
-2.33758e-07
-2.37627e-07
-2.37626e-07
-2.37626e-07
-2.37626e-07
-2.37626e-07
-2.37625e-07
-2.32668e-07
-2.30743e-07
-2.31044e-07
-2.33801e-07
-2.37627e-07
-2.37626e-07
-2.37626e-07
-2.37626e-07
-2.37626e-07
-2.37626e-07
-2.32448e-07
-2.31056e-07
-2.3121e-07
-2.33989e-07
-2.37626e-07
-2.37626e-07
-2.37626e-07
-2.37626e-07
-2.37626e-07
-2.37626e-07
-2.32459e-07
-2.32934e-07
-2.33707e-07
-2.37626e-07
-2.37626e-07
-2.37626e-07
-2.37626e-07
-2.37626e-07
-2.37626e-07
-2.32532e-07
-2.30696e-07
-2.31323e-07
-2.33881e-07
-2.37626e-07
-2.37626e-07
-2.37626e-07
-2.37626e-07
-2.32623e-07
-2.32754e-07
-2.30786e-07
-2.31123e-07
-2.33053e-07
-2.3267e-07
-2.32449e-07
-2.3246e-07
-2.32532e-07
-2.32761e-07
-2.30841e-07
-2.30743e-07
-2.31055e-07
-2.32933e-07
-2.30696e-07
-2.30786e-07
-2.50754e-07
-2.50914e-07
-2.51121e-07
-2.5346e-07
-2.53504e-07
-2.53691e-07
-2.53409e-07
-2.51024e-07
-2.50849e-07
-2.5112e-07
-2.54442e-07
-2.5733e-07
-2.5733e-07
-2.5733e-07
-2.57329e-07
-2.53576e-07
-2.52753e-07
-2.53461e-07
-2.5733e-07
-2.5733e-07
-2.5733e-07
-2.57329e-07
-2.5733e-07
-2.57329e-07
-2.52373e-07
-2.50447e-07
-2.50749e-07
-2.53504e-07
-2.5733e-07
-2.5733e-07
-2.5733e-07
-2.5733e-07
-2.5733e-07
-2.5733e-07
-2.52153e-07
-2.50761e-07
-2.50915e-07
-2.53693e-07
-2.5733e-07
-2.5733e-07
-2.5733e-07
-2.5733e-07
-2.5733e-07
-2.5733e-07
-2.52163e-07
-2.52638e-07
-2.53412e-07
-2.5733e-07
-2.5733e-07
-2.5733e-07
-2.5733e-07
-2.5733e-07
-2.5733e-07
-2.52236e-07
-2.504e-07
-2.51027e-07
-2.53584e-07
-2.5733e-07
-2.5733e-07
-2.5733e-07
-2.5733e-07
-2.52327e-07
-2.52458e-07
-2.50491e-07
-2.50827e-07
-2.52757e-07
-2.52374e-07
-2.52153e-07
-2.52164e-07
-2.52236e-07
-2.52465e-07
-2.50545e-07
-2.50447e-07
-2.50759e-07
-2.52637e-07
-2.504e-07
-2.5049e-07
-2.70457e-07
-2.70617e-07
-2.70824e-07
-2.73162e-07
-2.73207e-07
-2.73394e-07
-2.73112e-07
-2.70728e-07
-2.70552e-07
-2.70823e-07
-2.74144e-07
-2.77032e-07
-2.77033e-07
-2.77033e-07
-2.77033e-07
-2.73279e-07
-2.72456e-07
-2.73163e-07
-2.77032e-07
-2.77033e-07
-2.77033e-07
-2.77033e-07
-2.77033e-07
-2.77033e-07
-2.72076e-07
-2.70151e-07
-2.70451e-07
-2.73207e-07
-2.77033e-07
-2.77033e-07
-2.77033e-07
-2.77033e-07
-2.77033e-07
-2.77033e-07
-2.71856e-07
-2.70464e-07
-2.70617e-07
-2.73395e-07
-2.77033e-07
-2.77033e-07
-2.77033e-07
-2.77033e-07
-2.77033e-07
-2.77033e-07
-2.71867e-07
-2.72342e-07
-2.73114e-07
-2.77033e-07
-2.77033e-07
-2.77033e-07
-2.77033e-07
-2.77033e-07
-2.77033e-07
-2.71939e-07
-2.70103e-07
-2.7073e-07
-2.73288e-07
-2.77033e-07
-2.77033e-07
-2.77033e-07
-2.77033e-07
-2.72031e-07
-2.72161e-07
-2.70194e-07
-2.7053e-07
-2.7246e-07
-2.72078e-07
-2.71856e-07
-2.71867e-07
-2.71939e-07
-2.72169e-07
-2.70248e-07
-2.7015e-07
-2.70462e-07
-2.7234e-07
-2.70104e-07
-2.70193e-07
-2.9016e-07
-2.90321e-07
-2.90517e-07
-2.92865e-07
-2.92911e-07
-2.93098e-07
-2.92815e-07
-2.90433e-07
-2.90255e-07
-2.90511e-07
-2.93853e-07
-2.96737e-07
-2.96737e-07
-2.96737e-07
-2.96737e-07
-2.92984e-07
-2.9216e-07
-2.92868e-07
-2.96737e-07
-2.96737e-07
-2.96737e-07
-2.96737e-07
-2.96737e-07
-2.96737e-07
-2.9178e-07
-2.89855e-07
-2.90155e-07
-2.92911e-07
-2.96737e-07
-2.96737e-07
-2.96737e-07
-2.96737e-07
-2.96737e-07
-2.96737e-07
-2.9156e-07
-2.90168e-07
-2.90322e-07
-2.931e-07
-2.96737e-07
-2.96737e-07
-2.96737e-07
-2.96737e-07
-2.96737e-07
-2.96737e-07
-2.91571e-07
-2.92046e-07
-2.92819e-07
-2.96737e-07
-2.96737e-07
-2.96737e-07
-2.96737e-07
-2.96737e-07
-2.96738e-07
-2.91644e-07
-2.89808e-07
-2.90434e-07
-2.92992e-07
-2.96737e-07
-2.96737e-07
-2.96738e-07
-2.96738e-07
-2.91735e-07
-2.91866e-07
-2.89898e-07
-2.90235e-07
-2.92165e-07
-2.91782e-07
-2.9156e-07
-2.91571e-07
-2.91643e-07
-2.91873e-07
-2.89952e-07
-2.89854e-07
-2.90166e-07
-2.92044e-07
-2.89807e-07
-2.89897e-07
-3.09866e-07
-3.10026e-07
-3.10226e-07
-3.12571e-07
-3.12616e-07
-3.12803e-07
-3.1252e-07
-3.10137e-07
-3.0996e-07
-3.10221e-07
-3.13559e-07
-3.16442e-07
-3.16441e-07
-3.16441e-07
-3.16441e-07
-3.12688e-07
-3.11864e-07
-3.12574e-07
-3.16441e-07
-3.16441e-07
-3.16441e-07
-3.16441e-07
-3.16441e-07
-3.16441e-07
-3.11484e-07
-3.09559e-07
-3.0986e-07
-3.12617e-07
-3.16441e-07
-3.16441e-07
-3.16441e-07
-3.16441e-07
-3.16441e-07
-3.16441e-07
-3.11264e-07
-3.09873e-07
-3.10027e-07
-3.12804e-07
-3.16441e-07
-3.16441e-07
-3.16441e-07
-3.16441e-07
-3.16441e-07
-3.16441e-07
-3.11275e-07
-3.11751e-07
-3.12523e-07
-3.16441e-07
-3.16441e-07
-3.16441e-07
-3.16441e-07
-3.16441e-07
-3.16441e-07
-3.11348e-07
-3.09512e-07
-3.10139e-07
-3.12696e-07
-3.16441e-07
-3.16441e-07
-3.16441e-07
-3.16441e-07
-3.11439e-07
-3.1157e-07
-3.09603e-07
-3.09939e-07
-3.11869e-07
-3.11486e-07
-3.11265e-07
-3.11277e-07
-3.11348e-07
-3.11577e-07
-3.09655e-07
-3.09559e-07
-3.09871e-07
-3.11751e-07
-3.09512e-07
-3.09602e-07
-3.29568e-07
-3.29729e-07
-3.29928e-07
-3.32273e-07
-3.32318e-07
-3.32505e-07
-3.32222e-07
-3.29841e-07
-3.29663e-07
-3.29924e-07
-3.33263e-07
-3.36143e-07
-3.36143e-07
-3.36143e-07
-3.36143e-07
-3.32391e-07
-3.31567e-07
-3.32276e-07
-3.36143e-07
-3.36143e-07
-3.36143e-07
-3.36143e-07
-3.36143e-07
-3.36143e-07
-3.31187e-07
-3.29262e-07
-3.29563e-07
-3.32319e-07
-3.36143e-07
-3.36143e-07
-3.36143e-07
-3.36143e-07
-3.36143e-07
-3.36143e-07
-3.30967e-07
-3.29575e-07
-3.29729e-07
-3.32507e-07
-3.36143e-07
-3.36143e-07
-3.36143e-07
-3.36143e-07
-3.36143e-07
-3.36143e-07
-3.30978e-07
-3.31453e-07
-3.32226e-07
-3.36143e-07
-3.36143e-07
-3.36143e-07
-3.36143e-07
-3.36143e-07
-3.36143e-07
-3.3105e-07
-3.29215e-07
-3.29841e-07
-3.32398e-07
-3.36143e-07
-3.36143e-07
-3.36143e-07
-3.36143e-07
-3.31142e-07
-3.31273e-07
-3.29305e-07
-3.29642e-07
-3.31572e-07
-3.31188e-07
-3.30966e-07
-3.30977e-07
-3.31049e-07
-3.31279e-07
-3.29357e-07
-3.29261e-07
-3.29573e-07
-3.31451e-07
-3.29214e-07
-3.29304e-07
-3.49269e-07
-3.4943e-07
-3.4963e-07
-3.51974e-07
-3.52018e-07
-3.52205e-07
-3.51922e-07
-3.49541e-07
-3.49365e-07
-3.49624e-07
-3.52963e-07
-3.55844e-07
-3.55844e-07
-3.55844e-07
-3.55844e-07
-3.5209e-07
-3.51267e-07
-3.51976e-07
-3.55844e-07
-3.55844e-07
-3.55844e-07
-3.55844e-07
-3.55844e-07
-3.55844e-07
-3.50887e-07
-3.48962e-07
-3.49264e-07
-3.52019e-07
-3.55844e-07
-3.55844e-07
-3.55844e-07
-3.55844e-07
-3.55844e-07
-3.55844e-07
-3.50667e-07
-3.49275e-07
-3.49429e-07
-3.52207e-07
-3.55844e-07
-3.55844e-07
-3.55844e-07
-3.55844e-07
-3.55844e-07
-3.55844e-07
-3.50678e-07
-3.51153e-07
-3.51926e-07
-3.55844e-07
-3.55844e-07
-3.55844e-07
-3.55844e-07
-3.55844e-07
-3.55844e-07
-3.5075e-07
-3.48915e-07
-3.49542e-07
-3.52099e-07
-3.55844e-07
-3.55844e-07
-3.55844e-07
-3.55844e-07
-3.50842e-07
-3.50973e-07
-3.49006e-07
-3.49342e-07
-3.51272e-07
-3.50889e-07
-3.50667e-07
-3.50678e-07
-3.5075e-07
-3.5098e-07
-3.49058e-07
-3.48962e-07
-3.49274e-07
-3.51152e-07
-3.48914e-07
-3.49005e-07
-3.68969e-07
-3.69129e-07
-3.6933e-07
-3.71674e-07
-3.71719e-07
-3.71905e-07
-3.71623e-07
-3.69241e-07
-3.69065e-07
-3.69324e-07
-3.72664e-07
-3.75545e-07
-3.75545e-07
-3.75545e-07
-3.75545e-07
-3.7179e-07
-3.70968e-07
-3.71677e-07
-3.75546e-07
-3.75545e-07
-3.75545e-07
-3.75545e-07
-3.75545e-07
-3.75545e-07
-3.70588e-07
-3.68662e-07
-3.68963e-07
-3.7172e-07
-3.75545e-07
-3.75545e-07
-3.75545e-07
-3.75545e-07
-3.75545e-07
-3.75545e-07
-3.70368e-07
-3.68976e-07
-3.69129e-07
-3.71908e-07
-3.75545e-07
-3.75545e-07
-3.75545e-07
-3.75545e-07
-3.75545e-07
-3.75545e-07
-3.70379e-07
-3.70853e-07
-3.71626e-07
-3.75545e-07
-3.75545e-07
-3.75545e-07
-3.75545e-07
-3.75545e-07
-3.75545e-07
-3.70451e-07
-3.68615e-07
-3.69242e-07
-3.718e-07
-3.75545e-07
-3.75545e-07
-3.75545e-07
-3.75545e-07
-3.70543e-07
-3.70674e-07
-3.68706e-07
-3.69042e-07
-3.70972e-07
-3.7059e-07
-3.70368e-07
-3.70379e-07
-3.70451e-07
-3.7068e-07
-3.68756e-07
-3.68662e-07
-3.68974e-07
-3.70852e-07
-3.68615e-07
-3.68704e-07
-3.88673e-07
-3.88834e-07
-3.89034e-07
-3.91379e-07
-3.91424e-07
-3.9161e-07
-3.91327e-07
-3.88945e-07
-3.88769e-07
-3.89029e-07
-3.92368e-07
-3.9525e-07
-3.95251e-07
-3.95251e-07
-3.95251e-07
-3.91496e-07
-3.90673e-07
-3.91382e-07
-3.9525e-07
-3.95251e-07
-3.95251e-07
-3.95251e-07
-3.95251e-07
-3.95251e-07
-3.90293e-07
-3.88367e-07
-3.88668e-07
-3.91424e-07
-3.95251e-07
-3.95251e-07
-3.95251e-07
-3.95251e-07
-3.95251e-07
-3.95251e-07
-3.90073e-07
-3.8868e-07
-3.88834e-07
-3.91612e-07
-3.95251e-07
-3.95251e-07
-3.95251e-07
-3.95251e-07
-3.95251e-07
-3.95251e-07
-3.90084e-07
-3.90558e-07
-3.91331e-07
-3.95251e-07
-3.95251e-07
-3.95251e-07
-3.95251e-07
-3.95251e-07
-3.95251e-07
-3.90156e-07
-3.88319e-07
-3.88946e-07
-3.91505e-07
-3.95251e-07
-3.95251e-07
-3.95251e-07
-3.95251e-07
-3.90248e-07
-3.90378e-07
-3.8841e-07
-3.88746e-07
-3.90677e-07
-3.90295e-07
-3.90073e-07
-3.90084e-07
-3.90155e-07
-3.90385e-07
-3.88463e-07
-3.88366e-07
-3.88679e-07
-3.90557e-07
-3.88319e-07
-3.88409e-07
-4.08381e-07
-4.08542e-07
-4.08742e-07
-4.11087e-07
-4.11131e-07
-4.11318e-07
-4.11035e-07
-4.08653e-07
-4.08476e-07
-4.08737e-07
-4.12076e-07
-4.14957e-07
-4.14957e-07
-4.14957e-07
-4.14958e-07
-4.11204e-07
-4.10381e-07
-4.11089e-07
-4.14957e-07
-4.14958e-07
-4.14957e-07
-4.14957e-07
-4.14958e-07
-4.14958e-07
-4.1e-07
-4.08075e-07
-4.08376e-07
-4.11132e-07
-4.14958e-07
-4.14957e-07
-4.14957e-07
-4.14957e-07
-4.14957e-07
-4.14958e-07
-4.0978e-07
-4.08389e-07
-4.08542e-07
-4.1132e-07
-4.14958e-07
-4.14957e-07
-4.14957e-07
-4.14957e-07
-4.14957e-07
-4.14958e-07
-4.09791e-07
-4.10266e-07
-4.11039e-07
-4.14958e-07
-4.14957e-07
-4.14957e-07
-4.14957e-07
-4.14958e-07
-4.14958e-07
-4.09864e-07
-4.08028e-07
-4.08654e-07
-4.11212e-07
-4.14958e-07
-4.14958e-07
-4.14958e-07
-4.14958e-07
-4.09956e-07
-4.10086e-07
-4.08118e-07
-4.08455e-07
-4.10385e-07
-4.10002e-07
-4.09781e-07
-4.09791e-07
-4.09863e-07
-4.10093e-07
-4.08171e-07
-4.08074e-07
-4.08387e-07
-4.10265e-07
-4.08028e-07
-4.08117e-07
-4.28086e-07
-4.28247e-07
-4.28447e-07
-4.30792e-07
-4.30836e-07
-4.31023e-07
-4.3074e-07
-4.28357e-07
-4.28182e-07
-4.28442e-07
-4.31781e-07
-4.34662e-07
-4.34662e-07
-4.34662e-07
-4.34662e-07
-4.30909e-07
-4.30086e-07
-4.30794e-07
-4.34662e-07
-4.34662e-07
-4.34662e-07
-4.34662e-07
-4.34662e-07
-4.34662e-07
-4.29705e-07
-4.2778e-07
-4.28081e-07
-4.30837e-07
-4.34662e-07
-4.34662e-07
-4.34662e-07
-4.34662e-07
-4.34662e-07
-4.34662e-07
-4.29485e-07
-4.28094e-07
-4.28247e-07
-4.31025e-07
-4.34662e-07
-4.34662e-07
-4.34662e-07
-4.34662e-07
-4.34662e-07
-4.34662e-07
-4.29496e-07
-4.29971e-07
-4.30744e-07
-4.34662e-07
-4.34662e-07
-4.34662e-07
-4.34662e-07
-4.34662e-07
-4.34662e-07
-4.29569e-07
-4.27733e-07
-4.28359e-07
-4.30917e-07
-4.34662e-07
-4.34662e-07
-4.34662e-07
-4.34662e-07
-4.2966e-07
-4.29791e-07
-4.27824e-07
-4.2816e-07
-4.3009e-07
-4.29707e-07
-4.29486e-07
-4.29496e-07
-4.29568e-07
-4.29798e-07
-4.27877e-07
-4.2778e-07
-4.28092e-07
-4.2997e-07
-4.27734e-07
-4.27823e-07
-4.4779e-07
-4.47951e-07
-4.48151e-07
-4.50496e-07
-4.5054e-07
-4.50727e-07
-4.50444e-07
-4.48061e-07
-4.47886e-07
-4.48146e-07
-4.51485e-07
-4.54366e-07
-4.54366e-07
-4.54366e-07
-4.54366e-07
-4.50612e-07
-4.49789e-07
-4.50498e-07
-4.54366e-07
-4.54366e-07
-4.54366e-07
-4.54366e-07
-4.54366e-07
-4.54366e-07
-4.49409e-07
-4.47484e-07
-4.47785e-07
-4.50541e-07
-4.54366e-07
-4.54366e-07
-4.54366e-07
-4.54366e-07
-4.54366e-07
-4.54366e-07
-4.49189e-07
-4.47798e-07
-4.47951e-07
-4.50729e-07
-4.54366e-07
-4.54366e-07
-4.54366e-07
-4.54366e-07
-4.54366e-07
-4.54366e-07
-4.492e-07
-4.49675e-07
-4.50448e-07
-4.54366e-07
-4.54366e-07
-4.54366e-07
-4.54366e-07
-4.54366e-07
-4.54366e-07
-4.49272e-07
-4.47437e-07
-4.48063e-07
-4.50621e-07
-4.54366e-07
-4.54366e-07
-4.54366e-07
-4.54366e-07
-4.49364e-07
-4.49495e-07
-4.47527e-07
-4.47864e-07
-4.49794e-07
-4.49411e-07
-4.49189e-07
-4.492e-07
-4.49272e-07
-4.49502e-07
-4.47581e-07
-4.47483e-07
-4.47796e-07
-4.49674e-07
-4.47437e-07
-4.47526e-07
-4.67493e-07
-4.67654e-07
-4.67854e-07
-4.70198e-07
-4.70242e-07
-4.70429e-07
-4.70146e-07
-4.67763e-07
-4.67588e-07
-4.67848e-07
-4.71187e-07
-4.74067e-07
-4.74067e-07
-4.74067e-07
-4.74067e-07
-4.70315e-07
-4.69491e-07
-4.702e-07
-4.74067e-07
-4.74067e-07
-4.74067e-07
-4.74067e-07
-4.74067e-07
-4.74067e-07
-4.69111e-07
-4.67186e-07
-4.67488e-07
-4.70243e-07
-4.74067e-07
-4.74067e-07
-4.74067e-07
-4.74067e-07
-4.74067e-07
-4.74067e-07
-4.68891e-07
-4.675e-07
-4.67654e-07
-4.70431e-07
-4.74067e-07
-4.74067e-07
-4.74067e-07
-4.74067e-07
-4.74067e-07
-4.74067e-07
-4.68902e-07
-4.69377e-07
-4.7015e-07
-4.74067e-07
-4.74067e-07
-4.74067e-07
-4.74067e-07
-4.74067e-07
-4.74067e-07
-4.68974e-07
-4.67139e-07
-4.67766e-07
-4.70323e-07
-4.74067e-07
-4.74067e-07
-4.74067e-07
-4.74067e-07
-4.69066e-07
-4.69197e-07
-4.6723e-07
-4.67566e-07
-4.69496e-07
-4.69113e-07
-4.68891e-07
-4.68902e-07
-4.68973e-07
-4.69204e-07
-4.67283e-07
-4.67186e-07
-4.67498e-07
-4.69376e-07
-4.6714e-07
-4.67229e-07
-4.87191e-07
-4.87351e-07
-4.87552e-07
-4.89896e-07
-4.8994e-07
-4.90127e-07
-4.89844e-07
-4.87461e-07
-4.87285e-07
-4.87546e-07
-4.90885e-07
-4.93766e-07
-4.93766e-07
-4.93766e-07
-4.93766e-07
-4.90013e-07
-4.89189e-07
-4.89898e-07
-4.93766e-07
-4.93766e-07
-4.93766e-07
-4.93766e-07
-4.93766e-07
-4.93766e-07
-4.88809e-07
-4.86884e-07
-4.87186e-07
-4.89941e-07
-4.93766e-07
-4.93766e-07
-4.93766e-07
-4.93766e-07
-4.93766e-07
-4.93766e-07
-4.88589e-07
-4.87198e-07
-4.87352e-07
-4.90129e-07
-4.93766e-07
-4.93766e-07
-4.93766e-07
-4.93766e-07
-4.93766e-07
-4.93766e-07
-4.886e-07
-4.89075e-07
-4.89848e-07
-4.93766e-07
-4.93766e-07
-4.93766e-07
-4.93766e-07
-4.93766e-07
-4.93766e-07
-4.88672e-07
-4.86837e-07
-4.87464e-07
-4.90021e-07
-4.93766e-07
-4.93766e-07
-4.93766e-07
-4.93766e-07
-4.88764e-07
-4.88895e-07
-4.86928e-07
-4.87264e-07
-4.89194e-07
-4.88811e-07
-4.88589e-07
-4.886e-07
-4.88672e-07
-4.88902e-07
-4.86981e-07
-4.86884e-07
-4.87196e-07
-4.89074e-07
-4.86838e-07
-4.86927e-07
-5.06891e-07
-5.07051e-07
-5.07251e-07
-5.09596e-07
-5.09642e-07
-5.09827e-07
-5.09545e-07
-5.0716e-07
-5.06987e-07
-5.07245e-07
-5.10586e-07
-5.13468e-07
-5.13468e-07
-5.13468e-07
-5.13468e-07
-5.09713e-07
-5.0889e-07
-5.09598e-07
-5.13467e-07
-5.13468e-07
-5.13468e-07
-5.13468e-07
-5.13468e-07
-5.13468e-07
-5.0851e-07
-5.06584e-07
-5.06885e-07
-5.09642e-07
-5.13468e-07
-5.13468e-07
-5.13468e-07
-5.13468e-07
-5.13468e-07
-5.13468e-07
-5.0829e-07
-5.06898e-07
-5.07051e-07
-5.0983e-07
-5.13468e-07
-5.13468e-07
-5.13468e-07
-5.13468e-07
-5.13468e-07
-5.13468e-07
-5.08301e-07
-5.08775e-07
-5.09549e-07
-5.13468e-07
-5.13468e-07
-5.13468e-07
-5.13468e-07
-5.13468e-07
-5.13468e-07
-5.08373e-07
-5.06537e-07
-5.07164e-07
-5.09722e-07
-5.13468e-07
-5.13468e-07
-5.13468e-07
-5.13468e-07
-5.08465e-07
-5.08595e-07
-5.06628e-07
-5.06964e-07
-5.08894e-07
-5.08512e-07
-5.0829e-07
-5.08301e-07
-5.08373e-07
-5.08602e-07
-5.06682e-07
-5.06584e-07
-5.06896e-07
-5.08774e-07
-5.06538e-07
-5.06627e-07
-5.26597e-07
-5.26757e-07
-5.26957e-07
-5.29303e-07
-5.29349e-07
-5.29534e-07
-5.29252e-07
-5.26866e-07
-5.26692e-07
-5.26952e-07
-5.30292e-07
-5.33175e-07
-5.33175e-07
-5.33175e-07
-5.33175e-07
-5.2942e-07
-5.28597e-07
-5.29305e-07
-5.33175e-07
-5.33175e-07
-5.33175e-07
-5.33175e-07
-5.33175e-07
-5.33175e-07
-5.28216e-07
-5.2629e-07
-5.26591e-07
-5.29348e-07
-5.33175e-07
-5.33175e-07
-5.33175e-07
-5.33175e-07
-5.33175e-07
-5.33175e-07
-5.27997e-07
-5.26604e-07
-5.26757e-07
-5.29536e-07
-5.33175e-07
-5.33175e-07
-5.33175e-07
-5.33175e-07
-5.33175e-07
-5.33175e-07
-5.28007e-07
-5.28482e-07
-5.29255e-07
-5.33175e-07
-5.33175e-07
-5.33175e-07
-5.33175e-07
-5.33175e-07
-5.33175e-07
-5.2808e-07
-5.26243e-07
-5.2687e-07
-5.29428e-07
-5.33175e-07
-5.33175e-07
-5.33175e-07
-5.33175e-07
-5.28172e-07
-5.28301e-07
-5.26334e-07
-5.2667e-07
-5.28601e-07
-5.28218e-07
-5.27997e-07
-5.28007e-07
-5.28079e-07
-5.28309e-07
-5.26389e-07
-5.2629e-07
-5.26602e-07
-5.28481e-07
-5.26244e-07
-5.26333e-07
-5.46306e-07
-5.46467e-07
-5.46666e-07
-5.49012e-07
-5.49058e-07
-5.49243e-07
-5.48961e-07
-5.46576e-07
-5.46402e-07
-5.46662e-07
-5.50002e-07
-5.52883e-07
-5.52883e-07
-5.52884e-07
-5.52884e-07
-5.49129e-07
-5.48306e-07
-5.49015e-07
-5.52883e-07
-5.52883e-07
-5.52883e-07
-5.52883e-07
-5.52883e-07
-5.52883e-07
-5.47926e-07
-5.46e-07
-5.46301e-07
-5.49057e-07
-5.52883e-07
-5.52883e-07
-5.52883e-07
-5.52883e-07
-5.52883e-07
-5.52883e-07
-5.47706e-07
-5.46314e-07
-5.46467e-07
-5.49245e-07
-5.52883e-07
-5.52883e-07
-5.52883e-07
-5.52883e-07
-5.52883e-07
-5.52883e-07
-5.47716e-07
-5.48191e-07
-5.48964e-07
-5.52883e-07
-5.52883e-07
-5.52883e-07
-5.52883e-07
-5.52883e-07
-5.52883e-07
-5.47789e-07
-5.45952e-07
-5.46579e-07
-5.49138e-07
-5.52883e-07
-5.52883e-07
-5.52883e-07
-5.52883e-07
-5.47881e-07
-5.48011e-07
-5.46043e-07
-5.46379e-07
-5.4831e-07
-5.47928e-07
-5.47706e-07
-5.47716e-07
-5.47788e-07
-5.48018e-07
-5.46098e-07
-5.45999e-07
-5.46312e-07
-5.4819e-07
-5.45953e-07
-5.46042e-07
-5.66015e-07
-5.66175e-07
-5.66375e-07
-5.6872e-07
-5.68766e-07
-5.68951e-07
-5.68669e-07
-5.66284e-07
-5.6611e-07
-5.6637e-07
-5.69709e-07
-5.7259e-07
-5.7259e-07
-5.7259e-07
-5.7259e-07
-5.68837e-07
-5.68014e-07
-5.68723e-07
-5.7259e-07
-5.7259e-07
-5.7259e-07
-5.72589e-07
-5.7259e-07
-5.7259e-07
-5.67633e-07
-5.65708e-07
-5.66009e-07
-5.68765e-07
-5.7259e-07
-5.7259e-07
-5.7259e-07
-5.7259e-07
-5.7259e-07
-5.7259e-07
-5.67413e-07
-5.66022e-07
-5.66175e-07
-5.68953e-07
-5.7259e-07
-5.7259e-07
-5.7259e-07
-5.7259e-07
-5.7259e-07
-5.7259e-07
-5.67424e-07
-5.67899e-07
-5.68672e-07
-5.7259e-07
-5.7259e-07
-5.7259e-07
-5.7259e-07
-5.7259e-07
-5.7259e-07
-5.67496e-07
-5.6566e-07
-5.66287e-07
-5.68845e-07
-5.7259e-07
-5.7259e-07
-5.7259e-07
-5.7259e-07
-5.67588e-07
-5.67718e-07
-5.65751e-07
-5.66088e-07
-5.68018e-07
-5.67635e-07
-5.67413e-07
-5.67424e-07
-5.67496e-07
-5.67726e-07
-5.65807e-07
-5.65707e-07
-5.6602e-07
-5.67898e-07
-5.65661e-07
-5.65751e-07
-5.85719e-07
-5.85879e-07
-5.86079e-07
-5.88423e-07
-5.88468e-07
-5.88654e-07
-5.88372e-07
-5.85987e-07
-5.85814e-07
-5.86074e-07
-5.89412e-07
-5.92292e-07
-5.92292e-07
-5.92292e-07
-5.92292e-07
-5.88539e-07
-5.87717e-07
-5.88426e-07
-5.92292e-07
-5.92291e-07
-5.92292e-07
-5.92292e-07
-5.92292e-07
-5.92292e-07
-5.87337e-07
-5.85411e-07
-5.85713e-07
-5.88468e-07
-5.92292e-07
-5.92292e-07
-5.92291e-07
-5.92291e-07
-5.92292e-07
-5.92292e-07