/*--------------------------------*- C++ -*----------------------------------*\
| =========                 |                                                 |
| \\      /  F ield         | OpenFOAM: The Open Source CFD Toolbox           |
|  \\    /   O peration     | Version:  v1906                                 |
|   \\  /    A nd           | Web:      www.OpenFOAM.com                      |
|    \\/     M anipulation  |                                                 |
\*---------------------------------------------------------------------------*/
FoamFile
{
    version     2.0;
    format      ascii;
    class       volScalarField;
    location    "0.175";
    object      p;
}
// * * * * * * * * * * * * * * * * * * * * * * * * * * * * * * * * * * * * * //

dimensions      [0 2 -2 0 0 0 0];


internalField   nonuniform List<scalar> 
247104
(
3.08399e-11
3.91394e-10
4.34345e-10
2.88317e-10
9.85576e-11
3.30116e-10
4.41136e-10
3.20385e-10
3.7633e-10
4.41303e-10
4.9088e-10
2.90226e-10
1.56296e-10
3.23629e-10
5.08296e-10
4.1898e-10
4.21347e-10
4.81885e-10
1.88392e-10
-1.96088e-10
-3.51614e-10
-1.52722e-10
2.42141e-10
5.00216e-10
4.12371e-10
2.65675e-10
2.72037e-10
-2.05113e-10
-6.89334e-10
-8.65376e-10
-6.39432e-10
-1.32398e-10
3.12157e-10
2.33699e-10
1.03617e-11
6.4419e-11
1.2966e-10
-3.68121e-10
-8.72464e-10
-1.05326e-09
-8.21257e-10
-2.92417e-10
1.68508e-10
1.51854e-11
2.89414e-10
2.91254e-10
-1.74394e-10
-6.51266e-10
-8.25702e-10
-6.02133e-10
-1.03573e-10
3.29467e-10
2.61293e-10
4.00104e-10
4.73556e-10
2.17498e-10
-1.47077e-10
-2.992e-10
-1.05456e-10
2.66383e-10
4.85866e-10
3.91103e-10
2.80955e-10
3.84532e-10
4.74305e-10
2.95655e-10
1.60808e-10
3.27759e-10
4.86297e-10
3.55176e-10
3.8626e-10
2.15172e-10
7.42577e-12
2.61882e-10
3.93335e-10
-3.38532e-08
-3.59517e-08
-3.59286e-08
-3.70683e-08
-3.72935e-08
-3.73507e-08
-3.73576e-08
-3.57984e-08
-3.54429e-08
-3.59357e-08
-3.80114e-08
-4.10597e-08
-4.11865e-08
-4.11864e-08
-4.10574e-08
-3.75978e-08
-3.73967e-08
-3.70728e-08
-4.10613e-08
-4.11397e-08
-4.11074e-08
-4.11069e-08
-4.11381e-08
-4.10577e-08
-3.71364e-08
-3.62658e-08
-3.38552e-08
-3.73028e-08
-4.11888e-08
-4.11081e-08
-4.09965e-08
-4.09961e-08
-4.11069e-08
-4.11861e-08
-3.73119e-08
-3.56097e-08
-3.59439e-08
-3.73588e-08
-4.11889e-08
-4.11082e-08
-4.09967e-08
-4.09964e-08
-4.11071e-08
-4.11862e-08
-3.71845e-08
-3.7492e-08
-3.73632e-08
-4.10612e-08
-4.114e-08
-4.11078e-08
-4.11075e-08
-4.11391e-08
-4.10594e-08
-3.73011e-08
-3.64953e-08
-3.58076e-08
-3.76053e-08
-4.10607e-08
-4.11875e-08
-4.11882e-08
-4.10607e-08
-3.75187e-08
-3.71748e-08
-3.57639e-08
-3.54442e-08
-3.74054e-08
-3.7138e-08
-3.73125e-08
-3.71861e-08
-3.73036e-08
-3.71766e-08
-3.48038e-08
-3.62676e-08
-3.56151e-08
-3.7494e-08
-3.65002e-08
-3.57616e-08
-5.39393e-08
-5.41472e-08
-5.43011e-08
-5.65029e-08
-5.6552e-08
-5.65501e-08
-5.65173e-08
-5.41773e-08
-5.40305e-08
-5.42875e-08
-5.71855e-08
-6.02561e-08
-6.04379e-08
-6.04385e-08
-6.02577e-08
-5.63958e-08
-5.60351e-08
-5.65041e-08
-6.02643e-08
-6.07014e-08
-6.07085e-08
-6.07083e-08
-6.07005e-08
-6.02561e-08
-5.55979e-08
-5.36215e-08
-5.39386e-08
-5.65523e-08
-6.04395e-08
-6.07098e-08
-6.0696e-08
-6.06956e-08
-6.07085e-08
-6.04364e-08
-5.55941e-08
-5.40036e-08
-5.41463e-08
-5.65495e-08
-6.04396e-08
-6.071e-08
-6.06961e-08
-6.06956e-08
-6.0708e-08
-6.04365e-08
-5.56801e-08
-5.60692e-08
-5.65178e-08
-6.02606e-08
-6.07012e-08
-6.07087e-08
-6.07085e-08
-6.07e-08
-6.02572e-08
-5.55456e-08
-5.36189e-08
-5.4179e-08
-5.63974e-08
-6.02577e-08
-6.04368e-08
-6.04389e-08
-6.02573e-08
-5.5903e-08
-5.57804e-08
-5.37055e-08
-5.40302e-08
-5.60364e-08
-5.5599e-08
-5.55953e-08
-5.56809e-08
-5.55457e-08
-5.57801e-08
-5.36612e-08
-5.36245e-08
-5.40019e-08
-5.60704e-08
-5.36157e-08
-5.3706e-08
-7.35945e-08
-7.37696e-08
-7.38557e-08
-7.61788e-08
-7.62092e-08
-7.63166e-08
-7.61212e-08
-7.37708e-08
-7.36007e-08
-7.38598e-08
-7.70782e-08
-7.99998e-08
-8.00676e-08
-8.00687e-08
-8.00013e-08
-7.61555e-08
-7.55213e-08
-7.61788e-08
-7.99999e-08
-8.01823e-08
-8.019e-08
-8.01902e-08
-8.01818e-08
-8e-08
-7.51688e-08
-7.32451e-08
-7.35917e-08
-7.62067e-08
-8.00676e-08
-8.01907e-08
-8.01922e-08
-8.0192e-08
-8.01897e-08
-8.0066e-08
-7.50599e-08
-7.36731e-08
-7.3767e-08
-7.63134e-08
-8.00679e-08
-8.01903e-08
-8.01921e-08
-8.0192e-08
-8.01895e-08
-8.00666e-08
-7.51106e-08
-7.55759e-08
-7.61202e-08
-8.00001e-08
-8.01811e-08
-8.01896e-08
-8.01904e-08
-8.01822e-08
-7.99991e-08
-7.50726e-08
-7.32904e-08
-7.3768e-08
-7.61568e-08
-7.99985e-08
-8.00653e-08
-8.00674e-08
-7.99995e-08
-7.52728e-08
-7.52971e-08
-7.32761e-08
-7.36021e-08
-7.55209e-08
-7.51668e-08
-7.50583e-08
-7.51098e-08
-7.50732e-08
-7.52976e-08
-7.33107e-08
-7.32436e-08
-7.36703e-08
-7.55652e-08
-7.32872e-08
-7.3276e-08
-9.32517e-08
-9.3418e-08
-9.35856e-08
-9.59255e-08
-9.59656e-08
-9.6136e-08
-9.58678e-08
-9.34881e-08
-9.33232e-08
-9.35862e-08
-9.69132e-08
-9.97914e-08
-9.98121e-08
-9.98119e-08
-9.97923e-08
-9.59866e-08
-9.52264e-08
-9.59286e-08
-9.97939e-08
-9.98434e-08
-9.98464e-08
-9.98464e-08
-9.98434e-08
-9.97916e-08
-9.48413e-08
-9.29225e-08
-9.32494e-08
-9.59677e-08
-9.98128e-08
-9.98466e-08
-9.98472e-08
-9.98471e-08
-9.98461e-08
-9.98124e-08
-9.46503e-08
-9.32844e-08
-9.3421e-08
-9.61378e-08
-9.98125e-08
-9.98466e-08
-9.98471e-08
-9.98471e-08
-9.98463e-08
-9.98122e-08
-9.46809e-08
-9.51718e-08
-9.58693e-08
-9.97926e-08
-9.98434e-08
-9.98463e-08
-9.98465e-08
-9.98436e-08
-9.97925e-08
-9.47121e-08
-9.29115e-08
-9.34908e-08
-9.5986e-08
-9.9791e-08
-9.98124e-08
-9.9813e-08
-9.97934e-08
-9.48484e-08
-9.49541e-08
-9.29644e-08
-9.3326e-08
-9.52197e-08
-9.48399e-08
-9.46509e-08
-9.4683e-08
-9.47149e-08
-9.49602e-08
-9.30094e-08
-9.29228e-08
-9.32842e-08
-9.51721e-08
-9.29111e-08
-9.29642e-08
-1.12973e-07
-1.13135e-07
-1.13327e-07
-1.15676e-07
-1.15716e-07
-1.15903e-07
-1.1562e-07
-1.13228e-07
-1.13044e-07
-1.13329e-07
-1.16674e-07
-1.19552e-07
-1.19558e-07
-1.19558e-07
-1.19553e-07
-1.15769e-07
-1.14969e-07
-1.15678e-07
-1.19551e-07
-1.19565e-07
-1.19565e-07
-1.19565e-07
-1.19565e-07
-1.19552e-07
-1.1457e-07
-1.12651e-07
-1.12968e-07
-1.15717e-07
-1.19558e-07
-1.19565e-07
-1.19565e-07
-1.19565e-07
-1.19565e-07
-1.19558e-07
-1.14355e-07
-1.12983e-07
-1.13134e-07
-1.15905e-07
-1.19557e-07
-1.19565e-07
-1.19565e-07
-1.19565e-07
-1.19565e-07
-1.19557e-07
-1.14371e-07
-1.14869e-07
-1.1562e-07
-1.19551e-07
-1.19565e-07
-1.19565e-07
-1.19566e-07
-1.19565e-07
-1.19552e-07
-1.14432e-07
-1.12616e-07
-1.13226e-07
-1.15771e-07
-1.19551e-07
-1.19558e-07
-1.19558e-07
-1.19553e-07
-1.14536e-07
-1.14674e-07
-1.12698e-07
-1.13043e-07
-1.14966e-07
-1.14569e-07
-1.14354e-07
-1.14372e-07
-1.1443e-07
-1.14678e-07
-1.12744e-07
-1.12649e-07
-1.1298e-07
-1.14868e-07
-1.12615e-07
-1.12697e-07
-1.32706e-07
-1.32866e-07
-1.33065e-07
-1.35415e-07
-1.35457e-07
-1.35648e-07
-1.35362e-07
-1.32968e-07
-1.32785e-07
-1.33063e-07
-1.36417e-07
-1.39295e-07
-1.39297e-07
-1.39297e-07
-1.39296e-07
-1.3552e-07
-1.34701e-07
-1.35418e-07
-1.39295e-07
-1.39298e-07
-1.39299e-07
-1.39299e-07
-1.39299e-07
-1.39295e-07
-1.34307e-07
-1.32386e-07
-1.32701e-07
-1.35457e-07
-1.39296e-07
-1.39299e-07
-1.39299e-07
-1.39299e-07
-1.39299e-07
-1.39297e-07
-1.34082e-07
-1.3271e-07
-1.32866e-07
-1.35648e-07
-1.39296e-07
-1.39299e-07
-1.39299e-07
-1.39299e-07
-1.39299e-07
-1.39298e-07
-1.34095e-07
-1.34595e-07
-1.35363e-07
-1.39296e-07
-1.39298e-07
-1.39299e-07
-1.39299e-07
-1.39299e-07
-1.39295e-07
-1.34167e-07
-1.32346e-07
-1.32966e-07
-1.35524e-07
-1.39296e-07
-1.39297e-07
-1.39297e-07
-1.39296e-07
-1.34257e-07
-1.34404e-07
-1.32433e-07
-1.32774e-07
-1.34704e-07
-1.34305e-07
-1.34084e-07
-1.34096e-07
-1.34167e-07
-1.3441e-07
-1.32481e-07
-1.32386e-07
-1.32708e-07
-1.34596e-07
-1.32349e-07
-1.32433e-07
-1.52441e-07
-1.52601e-07
-1.52801e-07
-1.55154e-07
-1.55197e-07
-1.55387e-07
-1.55102e-07
-1.52705e-07
-1.52523e-07
-1.52799e-07
-1.56156e-07
-1.59037e-07
-1.59039e-07
-1.59038e-07
-1.59039e-07
-1.55261e-07
-1.54438e-07
-1.55157e-07
-1.59038e-07
-1.59039e-07
-1.59039e-07
-1.59039e-07
-1.5904e-07
-1.59039e-07
-1.54047e-07
-1.52123e-07
-1.52436e-07
-1.55197e-07
-1.59039e-07
-1.59039e-07
-1.59039e-07
-1.59039e-07
-1.59039e-07
-1.59039e-07
-1.53818e-07
-1.52447e-07
-1.52601e-07
-1.55389e-07
-1.59039e-07
-1.59039e-07
-1.59039e-07
-1.59039e-07
-1.59039e-07
-1.59039e-07
-1.5383e-07
-1.54331e-07
-1.55104e-07
-1.59038e-07
-1.5904e-07
-1.5904e-07
-1.59039e-07
-1.59039e-07
-1.59039e-07
-1.53905e-07
-1.52082e-07
-1.52706e-07
-1.55266e-07
-1.59038e-07
-1.5904e-07
-1.59039e-07
-1.59038e-07
-1.53995e-07
-1.54143e-07
-1.52169e-07
-1.52513e-07
-1.54441e-07
-1.54046e-07
-1.53819e-07
-1.53832e-07
-1.53903e-07
-1.54146e-07
-1.52217e-07
-1.52122e-07
-1.52444e-07
-1.54331e-07
-1.52083e-07
-1.52168e-07
-1.7219e-07
-1.7235e-07
-1.72551e-07
-1.74905e-07
-1.74946e-07
-1.75138e-07
-1.74853e-07
-1.72455e-07
-1.72272e-07
-1.72549e-07
-1.75906e-07
-1.78788e-07
-1.78788e-07
-1.78789e-07
-1.78788e-07
-1.75013e-07
-1.74188e-07
-1.74908e-07
-1.78788e-07
-1.78788e-07
-1.78788e-07
-1.78788e-07
-1.78788e-07
-1.78788e-07
-1.73794e-07
-1.71872e-07
-1.72185e-07
-1.74947e-07
-1.78788e-07
-1.78788e-07
-1.78788e-07
-1.78788e-07
-1.78788e-07
-1.78788e-07
-1.73567e-07
-1.72195e-07
-1.7235e-07
-1.75139e-07
-1.78788e-07
-1.78788e-07
-1.78788e-07
-1.78788e-07
-1.78788e-07
-1.78788e-07
-1.7358e-07
-1.74081e-07
-1.74854e-07
-1.78788e-07
-1.78788e-07
-1.78788e-07
-1.78788e-07
-1.78788e-07
-1.78788e-07
-1.73653e-07
-1.71831e-07
-1.72455e-07
-1.75017e-07
-1.78788e-07
-1.78788e-07
-1.78788e-07
-1.78788e-07
-1.73741e-07
-1.7389e-07
-1.71919e-07
-1.72262e-07
-1.74192e-07
-1.73797e-07
-1.73568e-07
-1.73581e-07
-1.73654e-07
-1.73895e-07
-1.71966e-07
-1.71872e-07
-1.72194e-07
-1.74081e-07
-1.71832e-07
-1.71918e-07
-1.91941e-07
-1.92101e-07
-1.92302e-07
-1.94654e-07
-1.94694e-07
-1.94886e-07
-1.94601e-07
-1.92205e-07
-1.92023e-07
-1.92299e-07
-1.95654e-07
-1.98533e-07
-1.98533e-07
-1.98533e-07
-1.98533e-07
-1.94762e-07
-1.93936e-07
-1.94657e-07
-1.98533e-07
-1.98534e-07
-1.98533e-07
-1.98533e-07
-1.98533e-07
-1.98534e-07
-1.93542e-07
-1.91622e-07
-1.91935e-07
-1.94695e-07
-1.98533e-07
-1.98533e-07
-1.98533e-07
-1.98533e-07
-1.98533e-07
-1.98533e-07
-1.93315e-07
-1.91945e-07
-1.92101e-07
-1.94889e-07
-1.98533e-07
-1.98533e-07
-1.98533e-07
-1.98533e-07
-1.98533e-07
-1.98533e-07
-1.93327e-07
-1.9383e-07
-1.94602e-07
-1.98533e-07
-1.98533e-07
-1.98533e-07
-1.98533e-07
-1.98533e-07
-1.98534e-07
-1.93401e-07
-1.91581e-07
-1.92205e-07
-1.94765e-07
-1.98534e-07
-1.98533e-07
-1.98533e-07
-1.98534e-07
-1.93488e-07
-1.93638e-07
-1.91669e-07
-1.92012e-07
-1.93941e-07
-1.93543e-07
-1.93315e-07
-1.93327e-07
-1.934e-07
-1.93643e-07
-1.91716e-07
-1.91621e-07
-1.91943e-07
-1.93828e-07
-1.91581e-07
-1.91668e-07
-2.11677e-07
-2.11837e-07
-2.12039e-07
-2.14391e-07
-2.14431e-07
-2.14623e-07
-2.14337e-07
-2.11939e-07
-2.11758e-07
-2.12035e-07
-2.15389e-07
-2.18271e-07
-2.1827e-07
-2.18271e-07
-2.1827e-07
-2.14498e-07
-2.13672e-07
-2.14393e-07
-2.1827e-07
-2.18271e-07
-2.18271e-07
-2.18271e-07
-2.18271e-07
-2.18271e-07
-2.13278e-07
-2.11358e-07
-2.11671e-07
-2.14431e-07
-2.1827e-07
-2.18271e-07
-2.18271e-07
-2.18271e-07
-2.18271e-07
-2.18271e-07
-2.13052e-07
-2.11681e-07
-2.11836e-07
-2.14625e-07
-2.18271e-07
-2.18271e-07
-2.18271e-07
-2.18271e-07
-2.18271e-07
-2.18271e-07
-2.13064e-07
-2.13565e-07
-2.14338e-07
-2.18271e-07
-2.18271e-07
-2.18271e-07
-2.18271e-07
-2.18271e-07
-2.18271e-07
-2.13137e-07
-2.11317e-07
-2.11941e-07
-2.14502e-07
-2.18271e-07
-2.18271e-07
-2.18271e-07
-2.1827e-07
-2.13224e-07
-2.13374e-07
-2.11405e-07
-2.11749e-07
-2.13677e-07
-2.1328e-07
-2.13051e-07
-2.13064e-07
-2.13136e-07
-2.13379e-07
-2.11451e-07
-2.11358e-07
-2.11679e-07
-2.13564e-07
-2.11317e-07
-2.11403e-07
-2.31415e-07
-2.31575e-07
-2.31775e-07
-2.3413e-07
-2.3417e-07
-2.34363e-07
-2.34077e-07
-2.31676e-07
-2.31496e-07
-2.31769e-07
-2.35135e-07
-2.38012e-07
-2.38012e-07
-2.38011e-07
-2.38011e-07
-2.34237e-07
-2.33411e-07
-2.34132e-07
-2.38012e-07
-2.38012e-07
-2.38012e-07
-2.38012e-07
-2.38012e-07
-2.38011e-07
-2.33018e-07
-2.31096e-07
-2.31409e-07
-2.34171e-07
-2.38012e-07
-2.38012e-07
-2.38012e-07
-2.38012e-07
-2.38012e-07
-2.38012e-07
-2.32791e-07
-2.31419e-07
-2.31574e-07
-2.34364e-07
-2.38012e-07
-2.38012e-07
-2.38012e-07
-2.38012e-07
-2.38012e-07
-2.38012e-07
-2.32804e-07
-2.33304e-07
-2.34078e-07
-2.38012e-07
-2.38012e-07
-2.38012e-07
-2.38012e-07
-2.38012e-07
-2.38012e-07
-2.32877e-07
-2.31055e-07
-2.31679e-07
-2.34242e-07
-2.38012e-07
-2.38012e-07
-2.38011e-07
-2.38011e-07
-2.32965e-07
-2.33114e-07
-2.31143e-07
-2.31487e-07
-2.33416e-07
-2.3302e-07
-2.32791e-07
-2.32804e-07
-2.32876e-07
-2.33119e-07
-2.3119e-07
-2.31096e-07
-2.31417e-07
-2.33303e-07
-2.31055e-07
-2.31142e-07
-2.51161e-07
-2.5132e-07
-2.51526e-07
-2.53875e-07
-2.53916e-07
-2.54108e-07
-2.53821e-07
-2.51422e-07
-2.51244e-07
-2.51522e-07
-2.54876e-07
-2.57755e-07
-2.57755e-07
-2.57755e-07
-2.57755e-07
-2.5398e-07
-2.53156e-07
-2.53877e-07
-2.57755e-07
-2.57755e-07
-2.57755e-07
-2.57755e-07
-2.57755e-07
-2.57755e-07
-2.52762e-07
-2.50842e-07
-2.51155e-07
-2.53916e-07
-2.57755e-07
-2.57755e-07
-2.57755e-07
-2.57755e-07
-2.57755e-07
-2.57755e-07
-2.52536e-07
-2.51164e-07
-2.5132e-07
-2.54109e-07
-2.57755e-07
-2.57755e-07
-2.57755e-07
-2.57755e-07
-2.57755e-07
-2.57755e-07
-2.52548e-07
-2.5305e-07
-2.53823e-07
-2.57755e-07
-2.57755e-07
-2.57755e-07
-2.57755e-07
-2.57755e-07
-2.57755e-07
-2.52621e-07
-2.50801e-07
-2.51425e-07
-2.53987e-07
-2.57755e-07
-2.57755e-07
-2.57755e-07
-2.57755e-07
-2.52709e-07
-2.52858e-07
-2.50889e-07
-2.51233e-07
-2.53161e-07
-2.52764e-07
-2.52536e-07
-2.52548e-07
-2.5262e-07
-2.52863e-07
-2.50935e-07
-2.50842e-07
-2.51163e-07
-2.53048e-07
-2.50801e-07
-2.50887e-07
-2.709e-07
-2.71059e-07
-2.71265e-07
-2.73614e-07
-2.73654e-07
-2.73846e-07
-2.7356e-07
-2.71163e-07
-2.70983e-07
-2.71261e-07
-2.74614e-07
-2.77494e-07
-2.77494e-07
-2.77495e-07
-2.77494e-07
-2.73719e-07
-2.72896e-07
-2.73615e-07
-2.77494e-07
-2.77495e-07
-2.77495e-07
-2.77495e-07
-2.77495e-07
-2.77495e-07
-2.72502e-07
-2.70581e-07
-2.70894e-07
-2.73655e-07
-2.77494e-07
-2.77495e-07
-2.77495e-07
-2.77495e-07
-2.77495e-07
-2.77495e-07
-2.72275e-07
-2.70904e-07
-2.71059e-07
-2.73848e-07
-2.77495e-07
-2.77495e-07
-2.77495e-07
-2.77495e-07
-2.77495e-07
-2.77495e-07
-2.72287e-07
-2.72789e-07
-2.73562e-07
-2.77495e-07
-2.77495e-07
-2.77495e-07
-2.77495e-07
-2.77495e-07
-2.77495e-07
-2.72361e-07
-2.7054e-07
-2.71164e-07
-2.73726e-07
-2.77495e-07
-2.77495e-07
-2.77495e-07
-2.77495e-07
-2.72448e-07
-2.72598e-07
-2.70628e-07
-2.70972e-07
-2.729e-07
-2.72503e-07
-2.72275e-07
-2.72287e-07
-2.7236e-07
-2.72603e-07
-2.70675e-07
-2.70581e-07
-2.70902e-07
-2.72787e-07
-2.7054e-07
-2.70627e-07
-2.9064e-07
-2.908e-07
-2.91e-07
-2.93355e-07
-2.93396e-07
-2.93588e-07
-2.93301e-07
-2.90904e-07
-2.90724e-07
-2.90994e-07
-2.94359e-07
-2.97238e-07
-2.97238e-07
-2.97238e-07
-2.97237e-07
-2.93462e-07
-2.92637e-07
-2.93358e-07
-2.97237e-07
-2.97238e-07
-2.97238e-07
-2.97238e-07
-2.97238e-07
-2.97238e-07
-2.92244e-07
-2.90322e-07
-2.90635e-07
-2.93397e-07
-2.97238e-07
-2.97238e-07
-2.97238e-07
-2.97238e-07
-2.97238e-07
-2.97238e-07
-2.92017e-07
-2.90645e-07
-2.908e-07
-2.9359e-07
-2.97238e-07
-2.97238e-07
-2.97238e-07
-2.97238e-07
-2.97238e-07
-2.97238e-07
-2.9203e-07
-2.92531e-07
-2.93304e-07
-2.97238e-07
-2.97238e-07
-2.97238e-07
-2.97238e-07
-2.97238e-07
-2.97238e-07
-2.92103e-07
-2.90281e-07
-2.90905e-07
-2.93469e-07
-2.97238e-07
-2.97238e-07
-2.97238e-07
-2.97238e-07
-2.92191e-07
-2.9234e-07
-2.90369e-07
-2.90713e-07
-2.92642e-07
-2.92246e-07
-2.92017e-07
-2.92029e-07
-2.92102e-07
-2.92345e-07
-2.90416e-07
-2.90322e-07
-2.90643e-07
-2.92529e-07
-2.9028e-07
-2.90367e-07
-3.10388e-07
-3.10547e-07
-3.10749e-07
-3.13102e-07
-3.13143e-07
-3.13335e-07
-3.13047e-07
-3.1065e-07
-3.10471e-07
-3.10743e-07
-3.14106e-07
-3.16984e-07
-3.16983e-07
-3.16984e-07
-3.16983e-07
-3.13208e-07
-3.12384e-07
-3.13105e-07
-3.16983e-07
-3.16983e-07
-3.16983e-07
-3.16984e-07
-3.16983e-07
-3.16983e-07
-3.1199e-07
-3.10069e-07
-3.10382e-07
-3.13144e-07
-3.16983e-07
-3.16984e-07
-3.16983e-07
-3.16984e-07
-3.16983e-07
-3.16983e-07
-3.11763e-07
-3.10392e-07
-3.10547e-07
-3.13337e-07
-3.16983e-07
-3.16984e-07
-3.16983e-07
-3.16984e-07
-3.16983e-07
-3.16984e-07
-3.11776e-07
-3.12277e-07
-3.1305e-07
-3.16984e-07
-3.16984e-07
-3.16983e-07
-3.16984e-07
-3.16984e-07
-3.16984e-07
-3.11849e-07
-3.10028e-07
-3.10652e-07
-3.13215e-07
-3.16984e-07
-3.16984e-07
-3.16984e-07
-3.16984e-07
-3.11937e-07
-3.12086e-07
-3.10116e-07
-3.1046e-07
-3.12389e-07
-3.11992e-07
-3.11764e-07
-3.11777e-07
-3.11848e-07
-3.12091e-07
-3.10163e-07
-3.10069e-07
-3.10389e-07
-3.12277e-07
-3.10027e-07
-3.10114e-07
-3.30132e-07
-3.30292e-07
-3.30493e-07
-3.32846e-07
-3.32887e-07
-3.3308e-07
-3.32792e-07
-3.30396e-07
-3.30215e-07
-3.30488e-07
-3.33852e-07
-3.36729e-07
-3.36729e-07
-3.36729e-07
-3.36729e-07
-3.32953e-07
-3.32129e-07
-3.32849e-07
-3.36729e-07
-3.36729e-07
-3.36729e-07
-3.36729e-07
-3.36729e-07
-3.36729e-07
-3.31735e-07
-3.29813e-07
-3.30126e-07
-3.32888e-07
-3.36729e-07
-3.36729e-07
-3.36729e-07
-3.36729e-07
-3.36729e-07
-3.36729e-07
-3.31508e-07
-3.30136e-07
-3.30292e-07
-3.33081e-07
-3.36729e-07
-3.36729e-07
-3.36729e-07
-3.36729e-07
-3.36729e-07
-3.36729e-07
-3.31521e-07
-3.32022e-07
-3.32795e-07
-3.36729e-07
-3.36729e-07
-3.36729e-07
-3.36729e-07
-3.36729e-07
-3.36729e-07
-3.31594e-07
-3.29772e-07
-3.30396e-07
-3.3296e-07
-3.36729e-07
-3.36729e-07
-3.36729e-07
-3.36729e-07
-3.31682e-07
-3.31831e-07
-3.2986e-07
-3.30204e-07
-3.32134e-07
-3.31737e-07
-3.31508e-07
-3.3152e-07
-3.31592e-07
-3.31835e-07
-3.29907e-07
-3.29813e-07
-3.30134e-07
-3.3202e-07
-3.29772e-07
-3.29859e-07
-3.4988e-07
-3.5004e-07
-3.50242e-07
-3.52595e-07
-3.52635e-07
-3.52827e-07
-3.52539e-07
-3.50144e-07
-3.49964e-07
-3.50236e-07
-3.53599e-07
-3.56474e-07
-3.56474e-07
-3.56474e-07
-3.56474e-07
-3.52699e-07
-3.51876e-07
-3.52597e-07
-3.56474e-07
-3.56474e-07
-3.56473e-07
-3.56474e-07
-3.56474e-07
-3.56474e-07
-3.51482e-07
-3.49561e-07
-3.49875e-07
-3.52636e-07
-3.56474e-07
-3.56474e-07
-3.56474e-07
-3.56473e-07
-3.56474e-07
-3.56474e-07
-3.51255e-07
-3.49884e-07
-3.5004e-07
-3.52829e-07
-3.56474e-07
-3.56474e-07
-3.56473e-07
-3.56473e-07
-3.56474e-07
-3.56474e-07
-3.51267e-07
-3.51769e-07
-3.52543e-07
-3.56474e-07
-3.56474e-07
-3.56474e-07
-3.56474e-07
-3.56474e-07
-3.56474e-07
-3.51341e-07
-3.4952e-07
-3.50144e-07
-3.52706e-07
-3.56474e-07
-3.56474e-07
-3.56474e-07
-3.56474e-07
-3.51429e-07
-3.51578e-07
-3.49608e-07
-3.49952e-07
-3.51881e-07
-3.51484e-07
-3.51255e-07
-3.51267e-07
-3.5134e-07
-3.51583e-07
-3.49655e-07
-3.49561e-07
-3.49882e-07
-3.51768e-07
-3.4952e-07
-3.49607e-07
-3.69619e-07
-3.69779e-07
-3.69981e-07
-3.72331e-07
-3.72372e-07
-3.72564e-07
-3.72277e-07
-3.69882e-07
-3.69702e-07
-3.69975e-07
-3.73336e-07
-3.7621e-07
-3.76211e-07
-3.7621e-07
-3.7621e-07
-3.72436e-07
-3.71613e-07
-3.72335e-07
-3.76211e-07
-3.7621e-07
-3.76211e-07
-3.76211e-07
-3.7621e-07
-3.7621e-07
-3.71219e-07
-3.693e-07
-3.69614e-07
-3.72373e-07
-3.7621e-07
-3.76211e-07
-3.76211e-07
-3.76211e-07
-3.76211e-07
-3.7621e-07
-3.70992e-07
-3.69622e-07
-3.69779e-07
-3.72566e-07
-3.76211e-07
-3.76211e-07
-3.76211e-07
-3.76211e-07
-3.76211e-07
-3.7621e-07
-3.71005e-07
-3.71507e-07
-3.7228e-07
-3.76211e-07
-3.76211e-07
-3.76211e-07
-3.76211e-07
-3.76211e-07
-3.7621e-07
-3.71078e-07
-3.69259e-07
-3.69883e-07
-3.72444e-07
-3.76211e-07
-3.76211e-07
-3.76211e-07
-3.7621e-07
-3.71166e-07
-3.71316e-07
-3.69347e-07
-3.69691e-07
-3.71619e-07
-3.71222e-07
-3.70993e-07
-3.71005e-07
-3.71077e-07
-3.7132e-07
-3.69393e-07
-3.693e-07
-3.69621e-07
-3.71506e-07
-3.69259e-07
-3.69346e-07
-3.8935e-07
-3.8951e-07
-3.89712e-07
-3.92065e-07
-3.92106e-07
-3.92298e-07
-3.9201e-07
-3.89614e-07
-3.89434e-07
-3.89706e-07
-3.9307e-07
-3.95948e-07
-3.95948e-07
-3.95948e-07
-3.95948e-07
-3.92172e-07
-3.91347e-07
-3.92068e-07
-3.95948e-07
-3.95949e-07
-3.95949e-07
-3.95949e-07
-3.95949e-07
-3.95948e-07
-3.90954e-07
-3.89031e-07
-3.89345e-07
-3.92106e-07
-3.95948e-07
-3.95949e-07
-3.95949e-07
-3.95949e-07
-3.95949e-07
-3.95948e-07
-3.90727e-07
-3.89354e-07
-3.8951e-07
-3.923e-07
-3.95948e-07
-3.95949e-07
-3.95949e-07
-3.95949e-07
-3.95949e-07
-3.95948e-07
-3.9074e-07
-3.9124e-07
-3.92013e-07
-3.95948e-07
-3.95949e-07
-3.95949e-07
-3.95949e-07
-3.95949e-07
-3.95948e-07
-3.90813e-07
-3.88991e-07
-3.89615e-07
-3.92179e-07
-3.95948e-07
-3.95949e-07
-3.95949e-07
-3.95948e-07
-3.90901e-07
-3.91049e-07
-3.89078e-07
-3.89423e-07
-3.91352e-07
-3.90956e-07
-3.90728e-07
-3.9074e-07
-3.90812e-07
-3.91054e-07
-3.89125e-07
-3.89031e-07
-3.89353e-07
-3.91239e-07
-3.8899e-07
-3.89077e-07
-4.091e-07
-4.0926e-07
-4.09462e-07
-4.11816e-07
-4.11856e-07
-4.12048e-07
-4.1176e-07
-4.09364e-07
-4.09183e-07
-4.09456e-07
-4.1282e-07
-4.15697e-07
-4.15697e-07
-4.15697e-07
-4.15697e-07
-4.11921e-07
-4.11097e-07
-4.11818e-07
-4.15697e-07
-4.15697e-07
-4.15697e-07
-4.15697e-07
-4.15697e-07
-4.15697e-07
-4.10703e-07
-4.08782e-07
-4.09095e-07
-4.11857e-07
-4.15697e-07
-4.15697e-07
-4.15697e-07
-4.15697e-07
-4.15697e-07
-4.15697e-07
-4.10477e-07
-4.09105e-07
-4.0926e-07
-4.1205e-07
-4.15697e-07
-4.15697e-07
-4.15697e-07
-4.15697e-07
-4.15697e-07
-4.15697e-07
-4.10489e-07
-4.1099e-07
-4.11764e-07
-4.15697e-07
-4.15697e-07
-4.15697e-07
-4.15697e-07
-4.15697e-07
-4.15697e-07
-4.10562e-07
-4.08741e-07
-4.09365e-07
-4.11928e-07
-4.15697e-07
-4.15697e-07
-4.15697e-07
-4.15697e-07
-4.10651e-07
-4.108e-07
-4.08828e-07
-4.09172e-07
-4.11102e-07
-4.10705e-07
-4.10477e-07
-4.10489e-07
-4.10561e-07
-4.10804e-07
-4.08876e-07
-4.08781e-07
-4.09103e-07
-4.10989e-07
-4.08741e-07
-4.08827e-07
-4.28846e-07
-4.29006e-07
-4.29208e-07
-4.3156e-07
-4.316e-07
-4.31792e-07
-4.31505e-07
-4.29108e-07
-4.28929e-07
-4.29202e-07
-4.32564e-07
-4.3544e-07
-4.3544e-07
-4.3544e-07
-4.3544e-07
-4.31665e-07
-4.30842e-07
-4.31562e-07
-4.3544e-07
-4.3544e-07
-4.3544e-07
-4.3544e-07
-4.3544e-07
-4.3544e-07
-4.30447e-07
-4.28527e-07
-4.28841e-07
-4.31601e-07
-4.3544e-07
-4.3544e-07
-4.3544e-07
-4.3544e-07
-4.3544e-07
-4.3544e-07
-4.30221e-07
-4.28851e-07
-4.29006e-07
-4.31794e-07
-4.3544e-07
-4.3544e-07
-4.3544e-07
-4.3544e-07
-4.3544e-07
-4.3544e-07
-4.30233e-07
-4.30735e-07
-4.31508e-07
-4.3544e-07
-4.3544e-07
-4.3544e-07
-4.3544e-07
-4.3544e-07
-4.3544e-07
-4.30306e-07
-4.28486e-07
-4.2911e-07
-4.31672e-07
-4.3544e-07
-4.3544e-07
-4.3544e-07
-4.3544e-07
-4.30394e-07
-4.30544e-07
-4.28574e-07
-4.28918e-07
-4.30847e-07
-4.30449e-07
-4.30221e-07
-4.30233e-07
-4.30305e-07
-4.30548e-07
-4.28621e-07
-4.28527e-07
-4.28849e-07
-4.30734e-07
-4.28487e-07
-4.28573e-07
-4.48584e-07
-4.48744e-07
-4.48946e-07
-4.513e-07
-4.5134e-07
-4.51532e-07
-4.51245e-07
-4.48847e-07
-4.48667e-07
-4.48941e-07
-4.52305e-07
-4.55182e-07
-4.55182e-07
-4.55182e-07
-4.55182e-07
-4.51406e-07
-4.50582e-07
-4.51302e-07
-4.55182e-07
-4.55182e-07
-4.55183e-07
-4.55183e-07
-4.55182e-07
-4.55182e-07
-4.50188e-07
-4.48266e-07
-4.48579e-07
-4.51341e-07
-4.55182e-07
-4.55183e-07
-4.55183e-07
-4.55183e-07
-4.55183e-07
-4.55182e-07
-4.49962e-07
-4.48589e-07
-4.48744e-07
-4.51534e-07
-4.55182e-07
-4.55183e-07
-4.55183e-07
-4.55183e-07
-4.55183e-07
-4.55182e-07
-4.49974e-07
-4.50474e-07
-4.51248e-07
-4.55182e-07
-4.55183e-07
-4.55183e-07
-4.55183e-07
-4.55182e-07
-4.55182e-07
-4.50047e-07
-4.48225e-07
-4.48849e-07
-4.51413e-07
-4.55182e-07
-4.55182e-07
-4.55182e-07
-4.55182e-07
-4.50135e-07
-4.50284e-07
-4.48312e-07
-4.48657e-07
-4.50586e-07
-4.5019e-07
-4.49962e-07
-4.49974e-07
-4.50046e-07
-4.50288e-07
-4.4836e-07
-4.48266e-07
-4.48587e-07
-4.50473e-07
-4.48225e-07
-4.48311e-07
-4.68334e-07
-4.68494e-07
-4.68696e-07
-4.71049e-07
-4.71089e-07
-4.71281e-07
-4.70994e-07
-4.68596e-07
-4.68417e-07
-4.6869e-07
-4.72054e-07
-4.7493e-07
-4.7493e-07
-4.74929e-07
-4.7493e-07
-4.71155e-07
-4.70331e-07
-4.71052e-07
-4.7493e-07
-4.74929e-07
-4.74929e-07
-4.74929e-07
-4.74929e-07
-4.7493e-07
-4.69937e-07
-4.68016e-07
-4.68329e-07
-4.7109e-07
-4.7493e-07
-4.74929e-07
-4.74929e-07
-4.74929e-07
-4.74929e-07
-4.7493e-07
-4.6971e-07
-4.68339e-07
-4.68494e-07
-4.71283e-07
-4.7493e-07
-4.74929e-07
-4.74929e-07
-4.74929e-07
-4.74929e-07
-4.7493e-07
-4.69722e-07
-4.70224e-07
-4.70997e-07
-4.7493e-07
-4.74929e-07
-4.74929e-07
-4.74929e-07
-4.74929e-07
-4.7493e-07
-4.69796e-07
-4.67975e-07
-4.68599e-07
-4.71161e-07
-4.7493e-07
-4.7493e-07
-4.7493e-07
-4.7493e-07
-4.69884e-07
-4.70033e-07
-4.68062e-07
-4.68406e-07
-4.70336e-07
-4.69939e-07
-4.6971e-07
-4.69722e-07
-4.69794e-07
-4.70038e-07
-4.68109e-07
-4.68015e-07
-4.68337e-07
-4.70223e-07
-4.67975e-07
-4.68061e-07
-4.88077e-07
-4.88237e-07
-4.88439e-07
-4.9079e-07
-4.9083e-07
-4.91022e-07
-4.90735e-07
-4.88338e-07
-4.8816e-07
-4.88433e-07
-4.91795e-07
-4.94669e-07
-4.94669e-07
-4.94669e-07
-4.94669e-07
-4.90896e-07
-4.90072e-07
-4.90793e-07
-4.94669e-07
-4.94669e-07
-4.94669e-07
-4.94669e-07
-4.94669e-07
-4.94669e-07
-4.89678e-07
-4.87758e-07
-4.88072e-07
-4.90831e-07
-4.94669e-07
-4.94669e-07
-4.94669e-07
-4.94669e-07
-4.94669e-07
-4.94669e-07
-4.89451e-07
-4.88081e-07
-4.88237e-07
-4.91025e-07
-4.94669e-07
-4.94669e-07
-4.94669e-07
-4.94669e-07
-4.94669e-07
-4.94669e-07
-4.89463e-07
-4.89965e-07
-4.90738e-07
-4.94669e-07
-4.94669e-07
-4.94669e-07
-4.94669e-07
-4.94669e-07
-4.94669e-07
-4.89536e-07
-4.87717e-07
-4.88341e-07
-4.90902e-07
-4.94669e-07
-4.94669e-07
-4.94669e-07
-4.94669e-07
-4.89624e-07
-4.89774e-07
-4.87805e-07
-4.88149e-07
-4.90077e-07
-4.8968e-07
-4.89451e-07
-4.89463e-07
-4.89535e-07
-4.89779e-07
-4.87851e-07
-4.87758e-07
-4.88079e-07
-4.89964e-07
-4.87718e-07
-4.87804e-07
-5.07811e-07
-5.07971e-07
-5.08173e-07
-5.10525e-07
-5.10567e-07
-5.10758e-07
-5.10471e-07
-5.08072e-07
-5.07894e-07
-5.08167e-07
-5.11531e-07
-5.14408e-07
-5.14408e-07
-5.14408e-07
-5.14408e-07
-5.10632e-07
-5.09808e-07
-5.10527e-07
-5.14407e-07
-5.14408e-07
-5.14408e-07
-5.14408e-07
-5.14408e-07
-5.14408e-07
-5.09414e-07
-5.07492e-07
-5.07806e-07
-5.10567e-07
-5.14408e-07
-5.14408e-07
-5.14408e-07
-5.14408e-07
-5.14408e-07
-5.14408e-07
-5.09187e-07
-5.07816e-07
-5.07971e-07
-5.1076e-07
-5.14408e-07
-5.14408e-07
-5.14408e-07
-5.14408e-07
-5.14408e-07
-5.14408e-07
-5.092e-07
-5.097e-07
-5.10474e-07
-5.14408e-07
-5.14408e-07
-5.14408e-07
-5.14408e-07
-5.14408e-07
-5.14408e-07
-5.09273e-07
-5.07452e-07
-5.08076e-07
-5.10639e-07
-5.14408e-07
-5.14408e-07
-5.14408e-07
-5.14408e-07
-5.09361e-07
-5.0951e-07
-5.07539e-07
-5.07883e-07
-5.09813e-07
-5.09416e-07
-5.09188e-07
-5.092e-07
-5.09271e-07
-5.09514e-07
-5.07586e-07
-5.07492e-07
-5.07814e-07
-5.09699e-07
-5.07452e-07
-5.07538e-07
-5.27556e-07
-5.27716e-07
-5.27918e-07
-5.30272e-07
-5.30314e-07
-5.30504e-07
-5.30217e-07
-5.27818e-07
-5.27639e-07
-5.27912e-07
-5.31277e-07
-5.34154e-07
-5.34154e-07
-5.34154e-07
-5.34154e-07
-5.30378e-07
-5.29554e-07
-5.30274e-07
-5.34154e-07
-5.34154e-07
-5.34154e-07
-5.34154e-07
-5.34154e-07
-5.34154e-07
-5.2916e-07
-5.27238e-07
-5.27551e-07
-5.30313e-07
-5.34154e-07
-5.34154e-07
-5.34154e-07
-5.34154e-07
-5.34154e-07
-5.34154e-07
-5.28933e-07
-5.27561e-07
-5.27716e-07
-5.30506e-07
-5.34154e-07
-5.34154e-07
-5.34154e-07
-5.34154e-07
-5.34154e-07
-5.34154e-07
-5.28945e-07
-5.29446e-07
-5.3022e-07
-5.34154e-07
-5.34154e-07
-5.34154e-07
-5.34154e-07
-5.34154e-07
-5.34154e-07
-5.29019e-07
-5.27197e-07
-5.27821e-07
-5.30384e-07
-5.34154e-07
-5.34154e-07
-5.34154e-07
-5.34154e-07
-5.29107e-07
-5.29256e-07
-5.27284e-07
-5.27628e-07
-5.29558e-07
-5.29162e-07
-5.28933e-07
-5.28945e-07
-5.29017e-07
-5.2926e-07
-5.27332e-07
-5.27237e-07
-5.27559e-07
-5.29445e-07
-5.27197e-07
-5.27283e-07
-5.47305e-07
-5.47465e-07
-5.47666e-07
-5.50018e-07
-5.5006e-07
-5.50251e-07
-5.49964e-07
-5.47566e-07
-5.47388e-07
-5.47661e-07
-5.51023e-07
-5.53897e-07
-5.53897e-07
-5.53898e-07
-5.53898e-07
-5.50124e-07
-5.49301e-07
-5.50021e-07
-5.53897e-07
-5.53897e-07
-5.53897e-07
-5.53897e-07
-5.53897e-07
-5.53898e-07
-5.48906e-07
-5.46986e-07
-5.473e-07
-5.50059e-07
-5.53897e-07
-5.53897e-07
-5.53897e-07
-5.53897e-07
-5.53897e-07
-5.53898e-07
-5.48679e-07
-5.47309e-07
-5.47465e-07
-5.50253e-07
-5.53897e-07
-5.53897e-07
-5.53897e-07
-5.53897e-07
-5.53897e-07
-5.53898e-07
-5.48691e-07
-5.49194e-07
-5.49967e-07
-5.53898e-07
-5.53897e-07
-5.53897e-07
-5.53897e-07
-5.53898e-07
-5.53898e-07
-5.48765e-07
-5.46945e-07
-5.47569e-07
-5.5013e-07
-5.53898e-07
-5.53898e-07
-5.53898e-07
-5.53898e-07
-5.48852e-07
-5.49002e-07
-5.47033e-07
-5.47377e-07
-5.49305e-07
-5.48908e-07
-5.48679e-07
-5.48691e-07
-5.48764e-07
-5.49007e-07
-5.4708e-07
-5.46986e-07
-5.47308e-07
-5.49193e-07
-5.46946e-07
-5.47032e-07
-5.67038e-07
-5.67198e-07
-5.674e-07
-5.69753e-07
-5.69795e-07
-5.69986e-07
-5.69699e-07
-5.67299e-07
-5.67121e-07
-5.67395e-07
-5.70758e-07
-5.73636e-07
-5.73636e-07
-5.73637e-07
-5.73636e-07
-5.6986e-07
-5.69035e-07
-5.69756e-07
-5.73636e-07
-5.73636e-07
-5.73637e-07
-5.73637e-07
-5.73636e-07
-5.73636e-07
-5.68641e-07
-5.6672e-07
-5.67033e-07
-5.69794e-07
-5.73636e-07
-5.73637e-07
-5.73637e-07
-5.73637e-07
-5.73637e-07
-5.73636e-07
-5.68415e-07
-5.67043e-07
-5.67198e-07
-5.69988e-07
-5.73636e-07
-5.73637e-07
-5.73637e-07
-5.73637e-07
-5.73637e-07
-5.73636e-07
-5.68427e-07
-5.68928e-07
-5.69701e-07
-5.73636e-07
-5.73637e-07
-5.73637e-07
-5.73637e-07
-5.73637e-07
-5.73636e-07
-5.685e-07
-5.66679e-07
-5.67303e-07
-5.69866e-07
-5.73636e-07
-5.73636e-07
-5.73636e-07
-5.73636e-07
-5.68589e-07
-5.68737e-07
-5.66766e-07
-5.67111e-07
-5.6904e-07
-5.68643e-07
-5.68415e-07
-5.68427e-07
-5.68499e-07
-5.68742e-07
-5.66813e-07
-5.66719e-07
-5.67041e-07
-5.68926e-07
-5.66679e-07
-5.66765e-07
-5.86789e-07
-5.86949e-07
-5.8715e-07
-5.89505e-07
-5.89546e-07
-5.89737e-07
-5.8945e-07
-5.8705e-07
-5.86871e-07
-5.87145e-07
-5.9051e-07
-5.93387e-07
-5.93387e-07
-5.93388e-07
-5.93388e-07
-5.89611e-07
-5.88787e-07
-5.89508e-07
-5.93388e-07
-5.93387e-07
-5.93387e-07
-5.93387e-07
-5.93387e-07
-5.93388e-07
-5.88393e-07
-5.8647e-07
-5.86783e-07
-5.89546e-07
-5.93388e-07
-5.93387e-07
-5.93387e-07
-5.93387e-07
-5.93387e-07