/*--------------------------------*- C++ -*----------------------------------*\
| =========                 |                                                 |
| \\      /  F ield         | OpenFOAM: The Open Source CFD Toolbox           |
|  \\    /   O peration     | Version:  v1912                                 |
|   \\  /    A nd           | Website:  www.openfoam.com                      |
|    \\/     M anipulation  |                                                 |
\*---------------------------------------------------------------------------*/
FoamFile
{
    version     2.0;
    format      ascii;
    class       volScalarField;
    location    "1.9";
    object      nut;
}
// * * * * * * * * * * * * * * * * * * * * * * * * * * * * * * * * * * * * * //

dimensions      [0 2 -1 0 0 0 0];


internalField   nonuniform List<scalar> 
171728
(
1.58636e-06
1.58463e-06
1.58532e-06
6.6133e-07
1.10223e-07
1.26704e-07
1.26868e-07
1.2483e-07
8.52711e-09
9.7738e-09
9.78191e-09
1.21067e-07
2.71887e-09
5.11818e-09
5.08868e-09
1.21298e-07
2.88208e-09
4.805e-09
4.80813e-09
1.21302e-07
2.88499e-09
4.79463e-09
4.79913e-09
1.21304e-07
2.87501e-09
4.79888e-09
4.78944e-09
1.21303e-07
2.89215e-09
4.80739e-09
4.80171e-09
1.21302e-07
2.89181e-09
4.8025e-09
4.79298e-09
1.21306e-07
2.88863e-09
4.80141e-09
4.79339e-09
1.21304e-07
2.8828e-09
4.80117e-09
4.79782e-09
1.21304e-07
2.89084e-09
4.79927e-09
4.79721e-09
1.21304e-07
2.8921e-09
4.83498e-09
4.80058e-09
1.21303e-07
2.89731e-09
4.8259e-09
4.7932e-09
1.21303e-07
2.88106e-09
4.78829e-09
4.79941e-09
1.21303e-07
2.88226e-09
4.78494e-09
4.79411e-09
1.21305e-07
2.89272e-09
4.80535e-09
4.7982e-09
1.21306e-07
2.88508e-09
4.79081e-09
4.79483e-09
1.21304e-07
2.89824e-09
4.77678e-09
4.7985e-09
1.21303e-07
2.87989e-09
4.81948e-09
4.79515e-09
1.21295e-07
3.00588e-09
4.79286e-09
4.79641e-09
1.21307e-07
2.8835e-09
4.80381e-09
4.79632e-09
1.21306e-07
2.88969e-09
4.80213e-09
4.79699e-09
1.21307e-07
2.88814e-09
4.80318e-09
4.79863e-09
1.21307e-07
2.89021e-09
4.79997e-09
4.79567e-09
1.21308e-07
2.8869e-09
4.80022e-09
4.79512e-09
1.21306e-07
2.89105e-09
4.80433e-09
4.79948e-09
1.21307e-07
2.88801e-09
4.80171e-09
4.79686e-09
1.21307e-07
2.88892e-09
4.8007e-09
4.79587e-09
1.21306e-07
2.88885e-09
4.80243e-09
4.79774e-09
1.21306e-07
2.8895e-09
4.80315e-09
4.79731e-09
1.21307e-07
2.88946e-09
4.80115e-09
4.79646e-09
1.21308e-07
2.88856e-09
4.80365e-09
4.79672e-09
1.21307e-07
2.88806e-09
4.80327e-09
4.79644e-09
1.21307e-07
2.89031e-09
4.8047e-09
4.79725e-09
1.21308e-07
2.88866e-09
4.80007e-09
4.79335e-09
1.21308e-07
2.88994e-09
4.80356e-09
4.79687e-09
1.21307e-07
2.8892e-09
4.80313e-09
4.79644e-09
1.21307e-07
2.88971e-09
4.80523e-09
4.80331e-09
1.21308e-07
2.90641e-09
4.81044e-09
4.80196e-09
1.21294e-07
3.0501e-09
4.7898e-09
4.79682e-09
1.21306e-07
2.88672e-09
4.78684e-09
4.79324e-09
1.21307e-07
2.88968e-09
4.8015e-09
4.79202e-09
1.21308e-07
2.89046e-09
4.79767e-09
4.79076e-09
1.21308e-07
2.89317e-09
4.79978e-09
4.79649e-09
1.21308e-07
2.89185e-09
4.79786e-09
4.79187e-09
1.21307e-07
2.88965e-09
4.7962e-09
4.79445e-09
1.2131e-07
2.89201e-09
4.79908e-09
4.80001e-09
1.21308e-07
2.89138e-09
4.79927e-09
4.80047e-09
1.21307e-07
2.89177e-09
4.79819e-09
4.79936e-09
1.21308e-07
2.8895e-09
4.79566e-09
4.79711e-09
1.21308e-07
2.89238e-09
4.79906e-09
4.79947e-09
1.21307e-07
2.8918e-09
4.79869e-09
4.79914e-09
1.21308e-07
2.89319e-09
4.80779e-09
4.79922e-09
1.21308e-07
2.89412e-09
4.80329e-09
4.7983e-09
1.21307e-07
2.8891e-09
4.7984e-09
4.80144e-09
1.21303e-07
2.88561e-09
4.8045e-09
4.80314e-09
1.21292e-07
2.88578e-09
4.8031e-09
4.80121e-09
1.21293e-07
2.88673e-09
4.80619e-09
4.80441e-09
1.21291e-07
2.88697e-09
4.80337e-09
4.80045e-09
1.21292e-07
2.88716e-09
4.8052e-09
4.80354e-09
1.21291e-07
2.88553e-09
4.8033e-09
4.80118e-09
1.21291e-07
2.88554e-09
4.80505e-09
4.80301e-09
1.21291e-07
2.88627e-09
4.8049e-09
4.80325e-09
1.21291e-07
2.88646e-09
4.80505e-09
4.80329e-09
1.21291e-07
2.88582e-09
4.80394e-09
4.8021e-09
1.21292e-07
2.88589e-09
4.80429e-09
4.80246e-09
1.21291e-07
2.88642e-09
4.80423e-09
4.80294e-09
1.21292e-07
2.88103e-09
4.80348e-09
4.8024e-09
1.21292e-07
2.8798e-09
4.80382e-09
4.78372e-09
1.21293e-07
2.88306e-09
4.80803e-09
4.80201e-09
1.21289e-07
2.88717e-09
4.80493e-09
4.80309e-09
1.21292e-07
2.88506e-09
4.80231e-09
4.8002e-09
1.21292e-07
2.88484e-09
4.80369e-09
4.80173e-09
1.2129e-07
2.88795e-09
4.80588e-09
4.80411e-09
1.2129e-07
2.88494e-09
4.80414e-09
4.80234e-09
1.2129e-07
2.88479e-09
4.80318e-09
4.80121e-09
1.2129e-07
2.88705e-09
4.80492e-09
4.80309e-09
1.2129e-07
2.88668e-09
4.8041e-09
4.8022e-09
1.2129e-07
2.88546e-09
4.80433e-09
4.80252e-09
1.21291e-07
2.8851e-09
4.80464e-09
4.80288e-09
1.2129e-07
2.88651e-09
4.80416e-09
4.8023e-09
1.2129e-07
2.88747e-09
4.80568e-09
4.80378e-09
1.21291e-07
2.88768e-09
4.80388e-09
4.80222e-09
1.2129e-07
2.88846e-09
4.80399e-09
4.80213e-09
1.21291e-07
2.88996e-09
4.80444e-09
4.8029e-09
1.2129e-07
2.88867e-09
4.80633e-09
4.80491e-09
1.2129e-07
2.88666e-09
4.80297e-09
4.8017e-09
1.2129e-07
2.88788e-09
4.80344e-09
4.80087e-09
1.2129e-07
2.8897e-09
4.80576e-09
4.80363e-09
1.21291e-07
2.89108e-09
4.80117e-09
4.79707e-09
1.21294e-07
2.95153e-09
4.82048e-09
4.82326e-09
1.21291e-07
5.47839e-09
5.69576e-09
5.74491e-09
1.21169e-07
5.72643e-08
5.15099e-08
5.14814e-08
1.18992e-07
6.05168e-07
2.41729e-07
2.41766e-07
6.22096e-07
5.61443e-07
8.90434e-07
8.90752e-07
5.61559e-07
8.90533e-07
8.90424e-07
2.48865e-06
2.48871e-06
2.48864e-06
2.48869e-06
8.90446e-07
8.902e-07
5.61276e-07
8.90173e-07
8.90536e-07
5.6117e-07
6.61421e-07
3.17609e-07
1.58518e-06
1.5852e-06
2.79459e-07
2.7952e-07
6.61388e-07
3.17585e-07
1.58514e-06
1.58572e-06
2.79687e-07
2.79553e-07
1.58544e-06
2.79542e-07
2.79359e-07
6.6132e-07
3.17638e-07
1.58554e-06
2.7951e-07
2.79558e-07
3.17661e-07
1.24879e-07
3.07065e-07
1.26774e-07
1.26815e-07
1.57512e-08
1.58481e-08
1.2488e-07
3.07117e-07
1.26796e-07
1.26765e-07
1.56998e-08
1.57521e-08
1.26726e-07
1.56373e-08
1.57396e-08
1.24909e-07
3.07067e-07
1.26915e-07
1.57118e-08
1.56523e-08
3.07053e-07
1.20982e-07
3.06219e-07
9.83176e-09
9.82764e-09
5.44974e-09
5.43987e-09
1.20993e-07
3.06234e-07
9.84173e-09
9.83244e-09
5.4046e-09
5.44884e-09
9.84457e-09
5.41323e-09
5.46863e-09
1.21049e-07
3.06255e-07
9.84401e-09
5.37179e-09
5.3568e-09
3.0621e-07
1.21284e-07
3.0618e-07
5.1477e-09
5.18696e-09
4.87191e-09
4.88635e-09
1.21255e-07
3.06185e-07
5.07665e-09
5.14425e-09
4.81431e-09
4.87947e-09
5.16327e-09
4.81452e-09
4.86529e-09
1.21309e-07
3.06215e-07
5.09397e-09
4.79567e-09
4.80189e-09
3.06157e-07
1.21282e-07
3.06173e-07
4.86984e-09
4.87706e-09
4.85738e-09
4.87514e-09
1.21261e-07
3.06176e-07
4.7997e-09
4.86876e-09
4.81384e-09
4.86106e-09
4.85291e-09
4.79198e-09
4.84579e-09
1.21305e-07
3.06207e-07
4.79327e-09
4.777e-09
4.78348e-09
3.06149e-07
1.21282e-07
3.06185e-07
4.86419e-09
4.88528e-09
4.83678e-09
4.89877e-09
1.21264e-07
3.06189e-07
4.78283e-09
4.86023e-09
4.80121e-09
4.851e-09
4.84461e-09
4.8023e-09
4.83547e-09
1.21306e-07
3.06222e-07
4.7853e-09
4.76692e-09
4.77317e-09
3.06163e-07
1.21286e-07
3.06183e-07
4.81427e-09
4.88889e-09
4.87474e-09
4.88072e-09
1.21259e-07
3.06185e-07
4.76821e-09
4.85007e-09
4.80664e-09
4.85549e-09
4.83386e-09
4.80389e-09
4.84189e-09
1.21305e-07
3.06216e-07
4.77458e-09
4.77326e-09
4.77929e-09
3.06156e-07
1.21286e-07
3.06178e-07
4.86573e-09
4.88684e-09
4.86256e-09
4.88509e-09
1.21254e-07
3.06178e-07
4.78931e-09
4.86126e-09
4.81613e-09
4.8598e-09
4.84579e-09
4.80611e-09
4.84551e-09
1.21303e-07
3.06208e-07
4.78688e-09
4.77797e-09
4.7832e-09
3.06148e-07
1.21268e-07
3.06187e-07
4.85881e-09
4.8819e-09
4.82883e-09
4.86693e-09
1.21258e-07
3.06204e-07
4.78382e-09
4.85802e-09
4.79255e-09
4.85242e-09
4.84165e-09
4.79724e-09
4.83689e-09
1.21307e-07
3.06222e-07
4.78017e-09
4.76758e-09
4.77412e-09
3.06163e-07
1.21277e-07
3.06177e-07
4.84353e-09
4.84771e-09
4.85994e-09
4.8196e-09
1.2125e-07
3.06187e-07
4.78652e-09
4.85518e-09
4.78493e-09
4.85784e-09
4.83768e-09
4.80152e-09
4.84221e-09
1.21305e-07
3.06215e-07
4.77863e-09
4.7737e-09
4.78019e-09
3.06155e-07
1.21291e-07
3.06184e-07
4.91431e-09
4.85046e-09
4.86119e-09
4.82563e-09
1.21258e-07
3.06187e-07
4.79239e-09
4.85736e-09
4.79937e-09
4.85619e-09
4.84038e-09
4.80039e-09
4.83996e-09
1.21305e-07
3.06217e-07
4.78176e-09
4.77231e-09
4.77641e-09
3.06159e-07
1.21276e-07
3.06173e-07
4.86141e-09
4.82199e-09
4.86071e-09
4.80968e-09
1.21259e-07
3.06214e-07
4.79662e-09
4.85724e-09
4.7927e-09
4.85651e-09
4.84104e-09
4.82023e-09
4.84827e-09
1.21306e-07
3.06214e-07
4.77897e-09
4.77561e-09
4.77539e-09
3.06156e-07
1.21279e-07
3.06169e-07
4.86346e-09
4.83215e-09
4.84639e-09
4.87607e-09
1.2125e-07
3.06209e-07
4.79188e-09
4.85791e-09
4.78078e-09
4.85151e-09
4.84916e-09
4.81994e-09
4.84423e-09
1.21307e-07
3.06219e-07
4.78007e-09
4.77063e-09
4.77455e-09
3.06164e-07
1.21284e-07
3.06172e-07
4.84842e-09
4.88217e-09
4.86251e-09
4.87326e-09
1.21257e-07
3.06192e-07
4.78025e-09
4.85164e-09
4.7748e-09
4.85691e-09
4.84127e-09
4.7939e-09
4.84412e-09
1.21307e-07
3.06216e-07
4.7772e-09
4.77288e-09
4.78126e-09
3.06156e-07
1.21277e-07
3.0618e-07
4.88222e-09
4.86478e-09
4.86039e-09
4.92302e-09
1.21266e-07
3.06171e-07
4.80249e-09
4.85979e-09
4.79968e-09
4.85493e-09
4.84549e-09
4.7897e-09
4.83924e-09
1.21305e-07
3.0622e-07
4.78597e-09
4.7707e-09
4.77707e-09
3.06163e-07
1.21275e-07
3.06167e-07
4.85986e-09
4.89148e-09
4.86828e-09
4.88312e-09
1.21284e-07
3.06163e-07
4.79911e-09
4.85508e-09
4.80137e-09
4.85852e-09
4.83657e-09
4.79925e-09
4.84577e-09
1.21307e-07
3.06214e-07
4.77797e-09
4.77425e-09
4.78251e-09
3.06153e-07
1.21277e-07
3.06179e-07
4.85016e-09
4.88251e-09
4.86088e-09
4.86124e-09
1.21278e-07
3.0621e-07
4.80309e-09
4.85953e-09
4.79592e-09
4.85243e-09
4.84261e-09
4.79765e-09
4.83918e-09
1.21307e-07
3.06225e-07
4.78274e-09
4.76864e-09
4.77568e-09
3.06163e-07
1.21274e-07
3.06189e-07
4.84305e-09
4.85109e-09
4.84293e-09
4.84328e-09
1.21291e-07
3.06207e-07
4.79719e-09
4.85634e-09
4.79246e-09
4.85843e-09
4.84198e-09
4.77303e-09
4.83962e-09
1.21306e-07
3.0622e-07
4.78155e-09
4.77364e-09
4.77388e-09
3.06165e-07
1.21276e-07
3.06169e-07
4.84187e-09
4.87468e-09
4.89154e-09
4.9649e-09
1.21323e-07
3.06241e-07
4.79225e-09
4.85856e-09
4.80005e-09
4.85135e-09
4.83882e-09
4.81943e-09
4.85705e-09
1.21307e-07
3.06219e-07
4.7721e-09
4.77272e-09
4.76444e-09
3.06174e-07
1.21312e-07
3.0624e-07
4.87944e-09
4.90662e-09
4.82472e-09
4.93804e-09
1.21262e-07
3.06212e-07
4.81167e-09
4.85277e-09
4.63586e-09
4.8576e-09
4.86958e-09
4.79028e-09
4.84447e-09
1.21309e-07
3.06223e-07
4.7832e-09
4.76916e-09
4.7774e-09
3.06166e-07
1.21268e-07
3.06199e-07
4.91238e-09
4.92518e-09
4.88105e-09
4.87836e-09
1.21262e-07
3.06194e-07
4.70935e-09
4.85427e-09
4.81092e-09
4.85423e-09
4.8418e-09
4.80779e-09
4.84076e-09
1.21308e-07
3.06223e-07
4.77872e-09
4.77169e-09
4.7791e-09
3.06164e-07
1.21295e-07
3.06199e-07
4.87296e-09
4.88079e-09
4.86109e-09
4.88359e-09
1.21274e-07
3.06195e-07
4.79763e-09
4.85542e-09
4.80003e-09
4.85483e-09
4.84075e-09
4.80171e-09
4.84132e-09
1.21308e-07
3.06224e-07
4.78137e-09
4.77157e-09
4.77835e-09
3.06163e-07
1.21294e-07
3.06194e-07
4.86558e-09
4.88545e-09
4.85937e-09
4.88667e-09
1.21273e-07
3.0619e-07
4.79958e-09
4.85707e-09
4.80036e-09
4.85781e-09
4.8419e-09
4.80458e-09
4.84262e-09
1.21308e-07
3.06219e-07
4.78262e-09
4.77477e-09
4.78637e-09
3.0616e-07
1.21296e-07
3.06199e-07
4.86453e-09
4.88563e-09
4.85497e-09
4.88272e-09
1.21274e-07
3.06194e-07
4.79755e-09
4.85724e-09
4.79602e-09
4.85379e-09
4.84294e-09
4.80047e-09
4.84019e-09
1.21309e-07
3.06224e-07
4.79102e-09
4.77089e-09
4.78255e-09
3.06164e-07
1.21294e-07
3.06201e-07
4.86546e-09
4.8841e-09
4.85604e-09
4.88391e-09
1.21273e-07
3.06194e-07
4.79854e-09
4.85564e-09
4.79706e-09
4.85524e-09
4.83874e-09
4.80256e-09
4.84127e-09
1.21308e-07
3.06223e-07
4.78544e-09
4.77179e-09
4.78102e-09
3.06163e-07
1.21295e-07
3.06194e-07
4.86102e-09
4.88238e-09
4.85988e-09
4.88706e-09
1.21273e-07
3.0619e-07
4.79411e-09
4.85416e-09
4.80088e-09
4.85821e-09
4.84075e-09
4.80456e-09
4.84285e-09
1.21309e-07
3.06219e-07
4.78482e-09
4.77452e-09
4.78417e-09
3.06161e-07
1.21294e-07
3.06199e-07
4.86909e-09
4.88816e-09
4.85494e-09
4.88323e-09
1.21273e-07
3.06193e-07
4.80213e-09
4.85983e-09
4.79596e-09
4.8544e-09
4.84105e-09
4.80192e-09
4.84297e-09
1.21308e-07
3.06222e-07
4.78577e-09
4.77196e-09
4.7843e-09
3.06159e-07
1.21295e-07
3.06199e-07
4.86275e-09
4.88405e-09
4.85704e-09
4.88393e-09
1.21274e-07
3.06195e-07
4.79583e-09
4.85571e-09
4.79807e-09
4.8551e-09
4.84284e-09
4.80076e-09
4.83872e-09
1.21309e-07
3.06224e-07
4.78757e-09
4.77079e-09
4.78012e-09
3.06166e-07
1.21295e-07
3.06198e-07
4.8644e-09
4.88396e-09
4.85643e-09
4.88385e-09
1.21273e-07
3.06194e-07
4.7975e-09
4.85563e-09
4.79741e-09
4.85501e-09
4.84074e-09
4.80167e-09
4.83943e-09
1.21308e-07
3.06223e-07
4.78549e-09
4.77174e-09
4.78076e-09
3.06164e-07
1.21294e-07
3.06197e-07
4.8644e-09
4.88563e-09
4.85902e-09
4.88619e-09
1.21272e-07
3.06195e-07
4.7975e-09
4.85696e-09
4.79961e-09
4.85671e-09
4.84227e-09
4.80267e-09
4.84126e-09
1.21308e-07
3.06222e-07
4.78692e-09
4.77307e-09
4.78267e-09
3.06163e-07
1.21295e-07
3.06196e-07
4.8659e-09
4.87063e-09
4.85624e-09
4.88256e-09
1.21273e-07
3.06183e-07
4.79872e-09
4.85688e-09
4.7974e-09
4.85535e-09
4.8413e-09
4.80482e-09
4.84117e-09
1.21309e-07
3.06221e-07
4.78602e-09
4.77238e-09
4.78251e-09
3.06162e-07
1.21295e-07
3.062e-07
4.86551e-09
4.89379e-09
4.8542e-09
4.89284e-09
1.21273e-07
3.06201e-07
4.79831e-09
4.8561e-09
4.79531e-09
4.85472e-09
4.83966e-09
4.80415e-09
4.84194e-09
1.21309e-07
3.06222e-07
4.78439e-09
4.77244e-09
4.78333e-09
3.06162e-07
1.21295e-07
3.062e-07
4.86262e-09
4.89178e-09
4.85702e-09
4.89099e-09
1.2127e-07
3.06204e-07
4.79576e-09
4.85596e-09
4.79808e-09
4.85427e-09
4.83948e-09
4.80273e-09
4.83923e-09
1.21308e-07
3.06225e-07
4.78422e-09
4.77151e-09
4.78108e-09
3.06166e-07
1.21295e-07
3.06197e-07
4.86332e-09
4.8918e-09
4.85732e-09
4.89233e-09
1.21269e-07
3.06202e-07
4.79648e-09
4.85555e-09
4.79838e-09
4.85652e-09
4.83858e-09
4.80386e-09
4.84231e-09
1.21308e-07
3.06223e-07
4.78332e-09
4.76995e-09
4.78063e-09
3.06164e-07
1.21294e-07
3.06198e-07
4.86741e-09
4.89471e-09
4.85629e-09
4.89125e-09
1.21269e-07
3.06204e-07
4.8005e-09
4.85845e-09
4.79733e-09
4.85507e-09
4.8395e-09
4.80175e-09
4.83779e-09
1.21309e-07
3.06225e-07
4.78379e-09
4.77029e-09
4.77893e-09
3.06169e-07
1.21295e-07
3.06198e-07
4.86394e-09
4.89033e-09
4.85615e-09
4.89233e-09
1.2127e-07
3.06202e-07
4.79705e-09
4.85387e-09
4.7972e-09
4.85609e-09
4.83613e-09
4.80373e-09
4.84073e-09
1.21309e-07
3.06223e-07
4.78128e-09
4.77235e-09
4.78195e-09
3.06164e-07
1.21294e-07
3.06198e-07
4.86492e-09
4.89337e-09
4.85735e-09
4.89266e-09
1.21269e-07
3.06202e-07
4.79802e-09
4.85684e-09
4.79836e-09
4.85641e-09
4.8393e-09
4.80436e-09
4.84261e-09
1.21308e-07
3.06223e-07
4.7845e-09
4.77301e-09
4.78385e-09
3.06162e-07
1.21295e-07
3.06199e-07
4.86414e-09
4.89124e-09
4.85653e-09
4.89257e-09
1.2127e-07
3.062e-07
4.79726e-09
4.85465e-09
4.79745e-09
4.85609e-09
4.84198e-09
4.80535e-09
4.84441e-09
1.21309e-07
3.06221e-07
4.78723e-09
4.77399e-09
4.78659e-09
3.06159e-07
1.21295e-07
3.06197e-07
4.8661e-09
4.8929e-09
4.86386e-09
4.88474e-09
1.2127e-07
3.06199e-07
4.79873e-09
4.85594e-09
4.79277e-09
4.85271e-09
4.83903e-09
4.80515e-09
4.81751e-09
1.21308e-07
3.06225e-07
4.78703e-09
4.76803e-09
4.76932e-09
3.06166e-07
1.21288e-07
3.06194e-07
4.85517e-09
4.88984e-09
4.80638e-09
4.88808e-09
1.21276e-07
3.06222e-07
4.78074e-09
4.85143e-09
4.77056e-09
4.86213e-09
4.8096e-09
4.80155e-09
4.88486e-09
1.21308e-07
3.06225e-07
4.69827e-09
4.77097e-09
4.76385e-09
3.06169e-07
1.21298e-07
3.06185e-07
4.82619e-09
4.84401e-09
4.86497e-09
4.88976e-09
1.21278e-07
3.06217e-07
4.68781e-09
4.86534e-09
4.8151e-09
4.85789e-09
4.85671e-09
4.79506e-09
4.84202e-09
1.21308e-07
3.06223e-07
4.80341e-09
4.7807e-09
4.78402e-09
3.06164e-07
1.21286e-07
3.06184e-07
4.85458e-09
4.87544e-09
4.84833e-09
4.89864e-09
1.21321e-07
3.06217e-07
4.77974e-09
4.85828e-09
4.81137e-09
4.85742e-09
4.84337e-09
4.80345e-09
4.8426e-09
1.21308e-07
3.06222e-07
4.78851e-09
4.78084e-09
4.78357e-09
3.06161e-07
1.21284e-07
3.06182e-07
4.852e-09
4.89022e-09
4.84808e-09
4.88353e-09
1.21293e-07
3.0622e-07
4.78126e-09
4.85782e-09
4.81231e-09
4.85703e-09
4.8411e-09
4.79767e-09
4.84144e-09
1.21308e-07
3.06223e-07
4.78577e-09
4.77999e-09
4.78227e-09
3.06165e-07
1.21284e-07
3.06182e-07
4.85114e-09
4.88243e-09
4.84781e-09
4.88345e-09
1.21291e-07
3.06219e-07
4.78127e-09
4.85661e-09
4.80978e-09
4.85772e-09
4.83949e-09
4.79972e-09
4.84252e-09
1.21308e-07
3.06222e-07
4.78394e-09
4.77974e-09
4.78366e-09
3.06162e-07
1.21284e-07
3.06182e-07
4.85214e-09
4.88386e-09
4.84694e-09
4.88318e-09
1.21291e-07
3.0622e-07
4.78051e-09
4.85869e-09
4.81253e-09
4.85738e-09
4.84207e-09
4.79836e-09
4.84147e-09
1.21308e-07
3.06223e-07
4.78689e-09
4.78094e-09
4.78491e-09
3.06163e-07
1.21284e-07
3.06182e-07
4.85158e-09
4.88218e-09
4.84688e-09
4.88246e-09
1.21291e-07
3.06219e-07
4.78205e-09
4.85732e-09
4.81266e-09
4.8574e-09
4.84229e-09
4.79874e-09
4.84201e-09
1.21308e-07
3.06222e-07
4.78518e-09
4.78211e-09
4.78429e-09
3.06164e-07
1.21285e-07
3.06182e-07
4.85006e-09
4.88094e-09
4.84684e-09
4.88231e-09
1.21292e-07
3.0622e-07
4.7798e-09
4.85644e-09
4.81226e-09
4.85714e-09
4.83657e-09
4.7977e-09
4.84104e-09
1.21309e-07
3.06224e-07
4.78714e-09
4.77233e-09
4.78309e-09
3.06167e-07
1.21284e-07
3.06183e-07
4.85361e-09
4.88365e-09
4.84644e-09
4.88212e-09
1.21291e-07
3.06219e-07
4.78395e-09
4.85878e-09
4.81177e-09
4.85663e-09
4.83978e-09
4.79752e-09
4.84204e-09
1.21308e-07
3.06223e-07
4.7827e-09
4.77283e-09
4.78467e-09
3.06163e-07
1.21284e-07
3.06184e-07
4.85225e-09
4.88361e-09
4.846e-09
4.88187e-09
1.2129e-07
3.0622e-07
4.78246e-09
4.85854e-09
4.81132e-09
4.85632e-09
4.84276e-09
4.79741e-09
4.8417e-09
1.21308e-07
3.06224e-07
4.7858e-09
4.77261e-09
4.78446e-09
3.06166e-07
1.21284e-07
3.06187e-07
4.85148e-09
4.88251e-09
4.84509e-09
4.88181e-09
1.21291e-07
3.06221e-07
4.78168e-09
4.85738e-09
4.81044e-09
4.85624e-09
4.8394e-09
4.79714e-09
4.84122e-09
1.21309e-07
3.06225e-07
4.78261e-09
4.77264e-09
4.78379e-09
3.06166e-07
1.21285e-07
3.06182e-07
4.84838e-09
4.88022e-09
4.84853e-09
4.88382e-09
1.21292e-07
3.06219e-07
4.77863e-09
4.85506e-09
4.81394e-09
4.85834e-09
4.8385e-09
4.79909e-09
4.84076e-09
1.21309e-07
3.06223e-07
4.78474e-09
4.77419e-09
4.7825e-09
3.06165e-07
1.21284e-07
3.06183e-07
4.85349e-09
4.88397e-09
4.84689e-09
4.88337e-09
1.21291e-07
3.06219e-07
4.78379e-09
4.85901e-09
4.81243e-09
4.85741e-09
4.84262e-09
4.79892e-09
4.84161e-09
1.21308e-07
3.06222e-07
4.7858e-09
4.77432e-09
4.78459e-09
3.06162e-07
1.21284e-07
3.06182e-07
4.85084e-09
4.88326e-09
4.84606e-09
4.88839e-09
1.21291e-07
3.06223e-07
4.78137e-09
4.85774e-09
4.80265e-09
4.85646e-09
4.84144e-09
4.80215e-09
4.84025e-09
1.21308e-07
3.06223e-07
4.78566e-09
4.77342e-09
4.78439e-09
3.06165e-07
1.21285e-07
3.06183e-07
4.85092e-09
4.89665e-09
4.84161e-09
4.8756e-09
1.21289e-07
3.06229e-07
4.79997e-09
4.85808e-09
4.79561e-09
4.85511e-09
4.83952e-09
4.80938e-09
4.83972e-09
1.21309e-07
3.06225e-07
4.78408e-09
4.77177e-09
4.78269e-09
3.06166e-07
1.21286e-07
3.06184e-07
4.84804e-09
4.83516e-09
4.84638e-09
4.87365e-09
1.21275e-07
3.06222e-07
4.79564e-09
4.85594e-09
4.797e-09
4.85842e-09
4.84087e-09
4.79653e-09
4.84106e-09
1.21308e-07
3.06222e-07
4.78356e-09
4.77665e-09
4.77628e-09
3.06166e-07
1.21285e-07
3.06183e-07
4.8519e-09
4.87507e-09
4.8483e-09
4.87789e-09
1.21289e-07
3.06222e-07
4.79611e-09
4.85983e-09
4.79418e-09
4.85206e-09
4.83547e-09
4.80447e-09
4.86503e-09
1.21308e-07
3.06217e-07
4.76239e-09
4.77831e-09
4.77245e-09
3.06173e-07
1.21286e-07
3.06182e-07
4.85184e-09
4.87766e-09
4.8491e-09
4.87918e-09
1.21288e-07
3.06223e-07
4.7923e-09
4.85206e-09
4.79418e-09
4.85055e-09
4.8672e-09
4.80576e-09
4.86812e-09
1.21311e-07
3.06216e-07
4.77049e-09
4.7784e-09
4.77521e-09
3.06175e-07
1.21286e-07
3.06182e-07
4.85283e-09
4.87727e-09
4.84833e-09
4.87827e-09
1.21289e-07
3.06224e-07
4.79281e-09
4.85022e-09
4.7933e-09
4.84944e-09
4.86587e-09
4.80473e-09
4.86538e-09
1.21312e-07
3.06217e-07
4.76928e-09
4.77733e-09
4.77252e-09
3.0618e-07
1.21285e-07
3.0618e-07
4.85435e-09
4.87975e-09
4.84863e-09
4.87764e-09
1.21287e-07
3.06225e-07
4.79427e-09
4.85255e-09
4.79361e-09
4.84885e-09
4.86893e-09
4.80282e-09
4.86187e-09
1.21311e-07
3.06218e-07
4.77241e-09
4.77465e-09
4.76951e-09
3.06185e-07
1.21285e-07
3.06178e-07
4.85305e-09
4.87757e-09
4.84865e-09
4.87812e-09
1.21288e-07
3.06223e-07
4.79296e-09
4.85043e-09
4.79363e-09
4.84943e-09
4.86306e-09
4.80366e-09
4.86363e-09
1.21311e-07
3.06216e-07
4.76644e-09
4.77541e-09
4.76883e-09
3.06182e-07
1.21285e-07
3.0618e-07
4.85508e-09
4.87899e-09
4.84863e-09
4.87911e-09
1.21288e-07
3.06222e-07
4.79495e-09
4.85187e-09
4.79361e-09
4.85038e-09
4.86635e-09
4.80457e-09
4.86542e-09
1.21311e-07
3.06215e-07
4.77131e-09
4.77681e-09
4.7718e-09
3.06178e-07
1.21286e-07
3.06183e-07
4.85314e-09
4.87766e-09
4.84732e-09
4.87769e-09
1.21288e-07
3.06223e-07
4.79301e-09
4.85059e-09
4.79233e-09
4.84885e-09
4.86589e-09
4.80431e-09
4.86475e-09
1.21312e-07
3.06217e-07
4.76901e-09
4.7768e-09
4.77165e-09
3.06178e-07
1.21285e-07
3.06181e-07
4.85308e-09
4.87846e-09
4.84922e-09
4.87798e-09
1.21288e-07
3.06224e-07
4.793e-09
4.85131e-09
4.79419e-09
4.84927e-09
4.8683e-09
4.80492e-09
4.86544e-09
1.21311e-07
3.06217e-07
4.7715e-09
4.7774e-09
4.77155e-09
3.06179e-07
1.21285e-07
3.06181e-07
4.85443e-09
4.87835e-09
4.84821e-09
4.87872e-09
1.21288e-07
3.06221e-07
4.79432e-09
4.85119e-09
4.79309e-09
4.84991e-09
4.86748e-09
4.80488e-09
4.86635e-09
1.21311e-07
3.06215e-07
4.77194e-09
4.77767e-09
4.77491e-09
3.06174e-07
1.21285e-07
3.06187e-07
4.85403e-09
4.8791e-09
4.84487e-09
4.87718e-09
1.21288e-07
3.06225e-07
4.79426e-09
4.85201e-09
4.78552e-09
4.84817e-09
4.86799e-09
4.80361e-09
4.86426e-09
1.21311e-07
3.06219e-07
4.77286e-09
4.77627e-09
4.77278e-09
3.0618e-07
1.21285e-07
3.06181e-07
4.85084e-09
4.87699e-09
4.84936e-09
4.87968e-09
1.21288e-07
3.06223e-07
4.79141e-09
4.84975e-09
4.78985e-09
4.85066e-09
4.86598e-09
4.80514e-09
4.86423e-09
1.21311e-07
3.06217e-07
4.77078e-09
4.77777e-09
4.77273e-09
3.06182e-07
1.21286e-07
3.06178e-07
4.85281e-09
4.87779e-09
4.84924e-09
4.87939e-09
1.21288e-07
3.06222e-07
4.79326e-09
4.85054e-09
4.78961e-09
4.85071e-09
4.86674e-09
4.805e-09
4.86744e-09
1.21312e-07
3.06216e-07
4.77145e-09
4.77762e-09
4.7757e-09
3.06178e-07
1.21285e-07
3.06179e-07
4.85501e-09
4.87905e-09
4.8495e-09
4.87844e-09
1.21288e-07
3.06222e-07
4.79525e-09
4.85236e-09
4.78935e-09
4.85195e-09
4.86722e-09
4.8048e-09
4.86539e-09
1.21311e-07
3.06217e-07
4.77176e-09
4.77939e-09
4.77187e-09
3.06183e-07
1.21287e-07
3.06185e-07
4.8521e-09
4.8764e-09
4.84588e-09
4.87657e-09
1.21289e-07
3.06225e-07
4.79184e-09
4.85277e-09
4.78573e-09
4.85123e-09
4.86625e-09
4.80329e-09
4.86846e-09
1.21312e-07
3.06213e-07
4.76713e-09
4.73517e-09
4.75414e-09
3.06173e-07
1.21285e-07
3.06175e-07
4.8531e-09
4.87819e-09
4.85188e-09
4.88109e-09
1.21288e-07
3.06219e-07
4.7932e-09
4.8527e-09
4.79202e-09
4.84956e-09
4.8682e-09
4.80835e-09
4.86625e-09
1.21314e-07
3.06212e-07
4.75315e-09
4.77832e-09
4.77858e-09
3.06172e-07
1.21284e-07
3.06177e-07
4.85661e-09
4.88015e-09
4.84952e-09
4.87989e-09
1.21287e-07
3.06221e-07
4.79684e-09
4.85001e-09
4.78991e-09
4.84968e-09
4.86874e-09
4.80427e-09
4.86314e-09
1.2131e-07
3.06215e-07
4.76999e-09
4.77408e-09
4.75674e-09
3.06185e-07
1.21284e-07
3.06181e-07
4.85571e-09
4.87968e-09
4.84694e-09
4.8781e-09
1.21287e-07
3.06222e-07
4.79609e-09
4.85139e-09
4.78746e-09
4.84872e-09
4.86248e-09
4.80356e-09
4.86621e-09
1.2131e-07
3.06216e-07
4.77654e-09
4.7756e-09
4.76358e-09
3.06178e-07
1.21285e-07
3.06177e-07
4.85063e-09
4.87632e-09
4.84983e-09
4.8792e-09
1.21287e-07
3.0622e-07
4.79111e-09
4.84886e-09
4.79038e-09
4.85001e-09
4.86266e-09
4.80428e-09
4.86371e-09
1.2131e-07
3.06213e-07
4.78244e-09
4.77703e-09
4.77175e-09
3.06177e-07
1.21285e-07
3.06176e-07
4.85172e-09
4.8787e-09
4.84977e-09
4.8798e-09
1.21287e-07
3.06219e-07
4.79221e-09
4.85153e-09
4.79033e-09
4.85066e-09
4.86577e-09
4.80501e-09
4.86587e-09
1.2131e-07
3.06212e-07
4.76945e-09
4.77799e-09
4.77397e-09
3.06174e-07
1.21284e-07
3.06181e-07
4.85565e-09
4.88023e-09
4.84752e-09
4.87716e-09
1.21287e-07
3.06221e-07
4.79614e-09
4.85311e-09
4.78808e-09
4.84791e-09
4.86939e-09
4.80397e-09
4.86362e-09
1.2131e-07
3.06215e-07
4.77328e-09
4.77698e-09
4.77205e-09
3.06177e-07
1.21285e-07
3.06179e-07
4.85104e-09
4.87729e-09
4.84893e-09
4.87909e-09
1.21287e-07
3.06221e-07
4.79156e-09
4.85009e-09
4.78949e-09
4.84988e-09
4.86598e-09
4.80398e-09
4.86353e-09
1.2131e-07
3.06214e-07
4.77017e-09
4.77717e-09
4.77093e-09
3.06178e-07
1.21284e-07
3.06181e-07
4.85235e-09
4.87683e-09
4.84697e-09
4.87799e-09
1.21287e-07
3.06221e-07
4.79287e-09
4.84968e-09
4.78754e-09
4.84879e-09
4.86511e-09
4.80499e-09
4.86641e-09
1.2131e-07
3.06214e-07
4.76834e-09
4.7799e-09
4.77505e-09
3.06174e-07
1.21284e-07
3.06176e-07
4.85261e-09
4.87883e-09
4.85002e-09
4.87793e-09
1.21287e-07
3.06222e-07
4.79312e-09
4.8515e-09
4.79056e-09
4.84898e-09
4.86958e-09
4.8028e-09
4.8627e-09
1.2131e-07
3.06216e-07
4.77386e-09
4.77532e-09
4.77049e-09
3.0618e-07
1.21285e-07
3.06178e-07
4.85331e-09
4.87783e-09
4.84769e-09
4.87989e-09
1.21287e-07
3.06217e-07
4.79382e-09
4.85051e-09
4.78825e-09
4.85085e-09
4.86675e-09
4.80588e-09
4.86695e-09
1.2131e-07
3.06211e-07
4.77089e-09
4.77862e-09
4.77493e-09
3.06171e-07
1.21285e-07
3.0618e-07
4.85197e-09
4.87813e-09
4.84783e-09
4.87647e-09
1.21288e-07
3.06223e-07
4.79249e-09
4.85078e-09
4.78839e-09
4.8474e-09
4.86599e-09
4.8029e-09
4.86338e-09
1.21311e-07
3.06216e-07
4.77029e-09
4.77564e-09
4.77136e-09
3.06178e-07
1.21284e-07
3.06182e-07
4.85209e-09
4.87838e-09
4.84778e-09
4.87813e-09
1.21286e-07
3.06222e-07
4.79256e-09
4.85105e-09
4.78837e-09
4.84909e-09
4.86709e-09
4.80468e-09
4.86463e-09
1.2131e-07
3.06216e-07
4.77136e-09
4.77744e-09
4.77261e-09
3.06178e-07
1.21284e-07
3.06177e-07
4.85286e-09
4.87764e-09
4.84833e-09
4.87847e-09
1.21287e-07
3.06219e-07
4.79339e-09
4.85024e-09
4.78868e-09
4.84942e-09
4.86597e-09
4.8058e-09
4.86634e-09
1.2131e-07
3.06212e-07
4.77028e-09
4.7785e-09
4.7743e-09
3.06174e-07
1.21284e-07
3.06179e-07
4.85419e-09
4.87855e-09
4.84704e-09
4.87713e-09
1.21287e-07
3.06221e-07
4.799e-09
4.85131e-09
4.80271e-09
4.84802e-09
4.86764e-09
4.80304e-09
4.86469e-09
1.21311e-07
3.06215e-07
4.77192e-09
4.77588e-09
4.77266e-09
3.06176e-07
1.21283e-07
3.06176e-07
4.85219e-09
4.8778e-09
4.84844e-09
4.87804e-09
1.21287e-07
3.06221e-07
4.77762e-09
4.85037e-09
4.80431e-09
4.84906e-09
4.86619e-09
4.80439e-09
4.86457e-09
1.2131e-07
3.06214e-07
4.77046e-09
4.77717e-09
4.77261e-09
3.06178e-07
1.21283e-07
3.06177e-07
4.85381e-09
4.87784e-09
4.84846e-09
4.87924e-09
1.21287e-07
3.06222e-07
4.77943e-09
4.85045e-09
4.80426e-09
4.84979e-09
4.86406e-09
4.80376e-09
4.86351e-09
1.2131e-07
3.06215e-07
4.76838e-09
4.77646e-09
4.7715e-09
3.0618e-07
1.21283e-07
3.06173e-07
4.85519e-09
4.87789e-09
4.85e-09
4.87964e-09
1.21287e-07
3.06217e-07
4.78084e-09
4.85315e-09
4.80574e-09
4.8567e-09
4.86699e-09
4.80584e-09
4.86586e-09
1.2131e-07
3.06238e-07
4.77121e-09
4.7776e-09
4.77371e-09
3.06172e-07
1.21283e-07
3.0618e-07
4.85516e-09
4.88005e-09
4.84538e-09
4.87674e-09
1.21287e-07
3.06222e-07
4.78091e-09
4.84693e-09
4.80119e-09
4.85425e-09
4.86888e-09
4.80313e-09
4.86242e-09
1.21317e-07
3.06243e-07
4.77315e-09
4.77528e-09
4.77047e-09
3.06178e-07
1.21283e-07
3.06181e-07
4.85042e-09
4.87659e-09
4.84724e-09
4.87696e-09
1.21287e-07
3.06223e-07
4.77615e-09
4.84367e-09
4.80305e-09
4.85441e-09
4.86433e-09
4.80395e-09
4.86367e-09
1.21317e-07
3.06243e-07
4.76873e-09
4.77619e-09
4.77185e-09
3.06178e-07
1.21283e-07
3.06174e-07
4.85215e-09
4.8774e-09
4.84951e-09
4.8802e-09
1.21287e-07
3.06217e-07
4.77784e-09
4.8446e-09
4.80542e-09
4.86041e-09
4.86672e-09
4.80575e-09
4.86726e-09
1.21317e-07
3.06245e-07
4.77096e-09
4.77776e-09
4.77525e-09
3.06173e-07
1.21284e-07
3.06176e-07
4.85413e-09
4.88084e-09
4.84621e-09
4.88074e-09
1.21287e-07
3.0622e-07
4.78012e-09
4.84712e-09
4.80354e-09
4.85002e-09
4.86887e-09
4.80252e-09
4.86419e-09
1.21316e-07
3.06224e-07
4.77368e-09
4.77358e-09
4.77947e-09
3.06177e-07
1.21282e-07
3.06183e-07
4.85242e-09
4.881e-09
4.84897e-09
4.88467e-09
1.21287e-07
3.06219e-07
4.78094e-09
4.85143e-09
4.80427e-09
4.87134e-09
4.87132e-09
4.80858e-09
4.85207e-09
1.21311e-07
3.0622e-07
4.78789e-09
4.78678e-09
4.78974e-09
3.06165e-07
1.21274e-07
3.06181e-07
4.8609e-09
4.87188e-09
5.28048e-09
5.24264e-09
1.21282e-07
3.06197e-07
4.77781e-09
4.87972e-09
5.24059e-09
5.2921e-09
4.83646e-09
5.0919e-09
5.17501e-09
1.21302e-07
3.0622e-07
4.76263e-09
5.14056e-09
5.16605e-09
3.06166e-07
1.21214e-07
3.05035e-07
5.7864e-09
5.85071e-09
2.61635e-08
2.62399e-08
1.21167e-07
3.05065e-07
5.77133e-09
5.7553e-09
2.61924e-08
2.62353e-08
5.74212e-09
2.60526e-08
2.6156e-08
1.21228e-07
3.05018e-07
5.67371e-09
2.60606e-08
2.60292e-08
3.05052e-07
1.19036e-07
7.59271e-08
5.16194e-08
5.16689e-08
2.80337e-07
2.79933e-07
1.1902e-07
7.59531e-08
5.14989e-08
5.17217e-08
2.7999e-07
2.79766e-07
5.1701e-08
2.80507e-07
2.80166e-07
1.1904e-07
7.58528e-08
5.15144e-08
2.80101e-07
2.79932e-07
7.58816e-08
6.22129e-07
2.41426e-07
2.41174e-07
6.21957e-07
2.41586e-07
2.4129e-07
6.05159e-07
6.05246e-07
6.05166e-07
2.41465e-07
6.21979e-07
2.41582e-07
5.179e-08
2.19714e-07
1.50585e-07
1.50599e-07
5.75088e-07
3.1523e-07
8.34063e-07
2.04892e-07
5.74999e-07
3.15244e-07
2.04888e-07
8.3386e-07
4.12273e-07
4.6484e-07
4.64742e-07
4.04402e-06
0.000119848
3.79297e-06
0.000121506
0.000239414
0.000245643
4.04463e-06
0.000119864
3.79411e-06
0.000121524
1.58663e-06
1.58579e-06
1.5862e-06
2.28817e-07
2.2875e-07
2.28782e-07
2.28852e-07
3.55166e-07
6.40539e-06
1.08845e-06
1.01234e-06
1.85364e-07
4.64661e-06
7.42339e-07
0.000239407
0.000245629
3.54098e-07
1.08738e-06
6.40387e-06
1.01213e-06
1.85258e-07
7.41945e-07
4.64565e-06
8.68133e-06
8.68241e-06
3.20533e-07
1.00814e-05
1.00833e-05
3.89613e-06
0.000120519
3.88608e-06
0.000120504
0.000246548
0.000246539
3.89667e-06
0.000120535
3.88661e-06
0.00012052
1.10204e-07
1.102e-07
1.10247e-07
1.52892e-08
1.52862e-08