/*--------------------------------*- C++ -*----------------------------------*\
| =========                 |                                                 |
| \\      /  F ield         | OpenFOAM: The Open Source CFD Toolbox           |
|  \\    /   O peration     | Version:  v1912                                 |
|   \\  /    A nd           | Website:  www.openfoam.com                      |
|    \\/     M anipulation  |                                                 |
\*---------------------------------------------------------------------------*/
FoamFile
{
    version     2.0;
    format      ascii;
    class       volScalarField;
    location    "1.9";
    object      p;
}
// * * * * * * * * * * * * * * * * * * * * * * * * * * * * * * * * * * * * * //

dimensions      [0 2 -2 0 0 0 0];


internalField   nonuniform List<scalar> 
171728
(
0.020522
0.0205227
0.0205227
0.0205394
0.0203061
0.020306
0.020306
0.0203194
0.0200885
0.0200884
0.0200884
0.0201017
0.0198709
0.0198708
0.0198708
0.0198841
0.0196533
0.0196531
0.0196531
0.0196665
0.0194356
0.0194355
0.0194355
0.0194488
0.019218
0.0192179
0.0192179
0.0192312
0.0190004
0.0190002
0.0190002
0.0190135
0.0187827
0.0187826
0.0187826
0.0187959
0.0185651
0.018565
0.018565
0.0185783
0.0183475
0.0183473
0.0183473
0.0183606
0.0181298
0.0181297
0.0181297
0.018143
0.0179122
0.017912
0.017912
0.0179254
0.0176945
0.0176944
0.0176944
0.0177077
0.0174769
0.0174768
0.0174768
0.0174901
0.0172593
0.0172591
0.0172591
0.0172724
0.0170416
0.0170415
0.0170415
0.0170548
0.016824
0.0168239
0.0168239
0.0168372
0.0166064
0.0166062
0.0166062
0.0166195
0.0163887
0.0163886
0.0163886
0.0164019
0.0161711
0.0161709
0.0161709
0.0161843
0.0159534
0.0159533
0.0159533
0.0159666
0.0157358
0.0157357
0.0157357
0.015749
0.0155182
0.015518
0.015518
0.0155313
0.0153005
0.0153004
0.0153004
0.0153137
0.0150829
0.0150828
0.0150828
0.0150961
0.0148653
0.0148651
0.0148651
0.0148784
0.0146476
0.0146475
0.0146475
0.0146608
0.01443
0.0144298
0.0144298
0.0144432
0.0142124
0.0142122
0.0142122
0.0142255
0.0139947
0.0139946
0.0139946
0.0140079
0.0137771
0.0137769
0.0137769
0.0137903
0.0135594
0.0135593
0.0135593
0.0135726
0.0133418
0.0133417
0.0133417
0.013355
0.0131242
0.013124
0.013124
0.0131373
0.0129065
0.0129064
0.0129064
0.0129197
0.0126889
0.0126888
0.0126888
0.0127021
0.0124713
0.0124711
0.0124711
0.0124844
0.0122536
0.0122535
0.0122535
0.0122668
0.012036
0.0120358
0.0120358
0.0120492
0.0118183
0.0118182
0.0118182
0.0118315
0.0116007
0.0116006
0.0116006
0.0116139
0.0113831
0.0113829
0.0113829
0.0113962
0.0111654
0.0111653
0.0111653
0.0111786
0.0109478
0.0109477
0.0109477
0.010961
0.0107302
0.01073
0.01073
0.0107433
0.0105125
0.0105124
0.0105124
0.0105257
0.0102949
0.0102947
0.0102947
0.0103081
0.0100772
0.0100771
0.0100771
0.0100904
0.00985961
0.00985947
0.00985947
0.00987279
0.00964198
0.00964183
0.00964183
0.00965515
0.00942434
0.0094242
0.0094242
0.00943751
0.0092067
0.00920656
0.00920656
0.00921988
0.00898907
0.00898892
0.00898892
0.00900224
0.00877143
0.00877129
0.00877129
0.0087846
0.00855379
0.00855365
0.00855365
0.00856697
0.00833616
0.00833602
0.00833601
0.00834933
0.00811852
0.00811838
0.00811838
0.00813169
0.00790088
0.00790074
0.00790074
0.00791406
0.00768325
0.0076831
0.0076831
0.00769642
0.00746561
0.00746547
0.00746547
0.00747878
0.00724797
0.00724783
0.00724783
0.00726114
0.00703033
0.00703019
0.00703019
0.00704351
0.0068127
0.00681255
0.00681255
0.00682587
0.00659506
0.00659492
0.00659492
0.00660823
0.00637742
0.00637728
0.00637728
0.00639059
0.00615978
0.00615964
0.00615964
0.00617296
0.00594215
0.00594201
0.005942
0.00595532
0.00572451
0.00572437
0.00572437
0.00573768
0.00550687
0.00550673
0.00550673
0.00552005
0.00528924
0.0052891
0.0052891
0.00530241
0.0050716
0.00507146
0.00507146
0.00508478
0.00485397
0.00485382
0.00485382
0.00486714
0.00463633
0.00463619
0.00463619
0.0046495
0.00441869
0.00441855
0.00441855
0.00443187
0.00420106
0.00420091
0.00420091
0.00421423
0.00398342
0.00398328
0.00398328
0.00399659
0.00376578
0.00376564
0.00376564
0.00377895
0.00354814
0.003548
0.003548
0.00356132
0.00333051
0.00333036
0.00333036
0.00334368
0.00311287
0.00311273
0.00311273
0.00312604
0.00289523
0.00289509
0.00289509
0.00290841
0.00267759
0.00267745
0.00267745
0.00269077
0.00245996
0.00245982
0.00245982
0.00247313
0.00224232
0.00224218
0.00224218
0.00225549
0.00202468
0.00202454
0.00202454
0.00203786
0.00180705
0.00180691
0.00180691
0.00182022
0.00158941
0.00158927
0.00158927
0.00160259
0.00137178
0.00137163
0.00137163
0.00138495
0.00115414
0.001154
0.001154
0.00116731
0.000936503
0.000936361
0.000936361
0.000949676
0.000718865
0.000718724
0.000718724
0.00073204
0.000501243
0.000501097
0.000501097
0.000514404
0.000284444
0.000283832
0.000283828
0.000296866
8.31091e-05
8.79511e-05
8.79544e-05
8.76672e-05
0.0205682
0.0205625
0.0205625
0.0205682
0.0205625
0.0205625
0.0205733
0.0205733
0.0205733
0.0205733
0.0205625
0.0205625
0.0205682
0.0205625
0.0205625
0.0205682
0.0205394
0.0203472
0.0205227
0.0205227
0.0203604
0.0203604
0.0205394
0.0203472
0.0205227
0.0205227
0.0203604
0.0203604
0.0205227
0.0203604
0.0203604
0.0205393
0.0203472
0.0205227
0.0203604
0.0203604
0.0203472
0.0203194
0.0201296
0.020306
0.020306
0.0201428
0.0201428
0.0203194
0.0201296
0.020306
0.020306
0.0201428
0.0201428
0.020306
0.0201428
0.0201428
0.0203194
0.0201296
0.020306
0.0201428
0.0201428
0.0201296
0.0201017
0.019912
0.0200884
0.0200884
0.0199252
0.0199252
0.0201017
0.019912
0.0200884
0.0200884
0.0199252
0.0199252
0.0200884
0.0199252
0.0199252
0.0201017
0.019912
0.0200884
0.0199252
0.0199252
0.019912
0.0198841
0.0196943
0.0198708
0.0198708
0.0197075
0.0197075
0.0198841
0.0196943
0.0198708
0.0198708
0.0197075
0.0197075
0.0198708
0.0197075
0.0197075
0.0198841
0.0196943
0.0198708
0.0197075
0.0197075
0.0196943
0.0196665
0.0194767
0.0196531
0.0196531
0.0194899
0.0194899
0.0196665
0.0194767
0.0196531
0.0196531
0.0194899
0.0194899
0.0196531
0.0194899
0.0194899
0.0196665
0.0194767
0.0196531
0.0194899
0.0194899
0.0194767
0.0194488
0.019259
0.0194355
0.0194355
0.0192723
0.0192723
0.0194488
0.019259
0.0194355
0.0194355
0.0192723
0.0192723
0.0194355
0.0192723
0.0192723
0.0194488
0.019259
0.0194355
0.0192723
0.0192723
0.019259
0.0192312
0.0190414
0.0192179
0.0192179
0.0190546
0.0190546
0.0192312
0.0190414
0.0192179
0.0192179
0.0190546
0.0190546
0.0192179
0.0190546
0.0190546
0.0192312
0.0190414
0.0192179
0.0190546
0.0190546
0.0190414
0.0190135
0.0188238
0.0190002
0.0190002
0.018837
0.018837
0.0190135
0.0188238
0.0190002
0.0190002
0.018837
0.018837
0.0190002
0.018837
0.018837
0.0190135
0.0188238
0.0190002
0.018837
0.018837
0.0188238
0.0187959
0.0186061
0.0187826
0.0187826
0.0186194
0.0186194
0.0187959
0.0186061
0.0187826
0.0187826
0.0186194
0.0186194
0.0187826
0.0186194
0.0186194
0.0187959
0.0186061
0.0187826
0.0186194
0.0186194
0.0186061
0.0185783
0.0183885
0.018565
0.018565
0.0184017
0.0184017
0.0185783
0.0183885
0.018565
0.018565
0.0184017
0.0184017
0.018565
0.0184017
0.0184017
0.0185783
0.0183885
0.018565
0.0184017
0.0184017
0.0183885
0.0183606
0.0181709
0.0183473
0.0183473
0.0181841
0.0181841
0.0183606
0.0181709
0.0183473
0.0183473
0.0181841
0.0181841
0.0183473
0.0181841
0.0181841
0.0183606
0.0181709
0.0183473
0.0181841
0.0181841
0.0181709
0.018143
0.0179532
0.0181297
0.0181297
0.0179664
0.0179664
0.018143
0.0179532
0.0181297
0.0181297
0.0179664
0.0179664
0.0181297
0.0179664
0.0179664
0.018143
0.0179532
0.0181297
0.0179664
0.0179664
0.0179532
0.0179254
0.0177356
0.017912
0.017912
0.0177488
0.0177488
0.0179254
0.0177356
0.017912
0.017912
0.0177488
0.0177488
0.017912
0.0177488
0.0177488
0.0179254
0.0177356
0.017912
0.0177488
0.0177488
0.0177356
0.0177077
0.0175179
0.0176944
0.0176944
0.0175312
0.0175312
0.0177077
0.0175179
0.0176944
0.0176944
0.0175312
0.0175312
0.0176944
0.0175312
0.0175312
0.0177077
0.0175179
0.0176944
0.0175312
0.0175312
0.0175179
0.0174901
0.0173003
0.0174768
0.0174768
0.0173135
0.0173135
0.0174901
0.0173003
0.0174768
0.0174768
0.0173135
0.0173135
0.0174768
0.0173135
0.0173135
0.0174901
0.0173003
0.0174768
0.0173135
0.0173135
0.0173003
0.0172724
0.0170827
0.0172591
0.0172591
0.0170959
0.0170959
0.0172724
0.0170827
0.0172591
0.0172591
0.0170959
0.0170959
0.0172591
0.0170959
0.0170959
0.0172724
0.0170827
0.0172591
0.0170959
0.0170959
0.0170827
0.0170548
0.016865
0.0170415
0.0170415
0.0168783
0.0168783
0.0170548
0.016865
0.0170415
0.0170415
0.0168783
0.0168783
0.0170415
0.0168783
0.0168783
0.0170548
0.016865
0.0170415
0.0168783
0.0168783
0.016865
0.0168372
0.0166474
0.0168239
0.0168239
0.0166606
0.0166606
0.0168372
0.0166474
0.0168239
0.0168239
0.0166606
0.0166606
0.0168239
0.0166606
0.0166606
0.0168372
0.0166474
0.0168239
0.0166606
0.0166606
0.0166474
0.0166195
0.0164298
0.0166062
0.0166062
0.016443
0.016443
0.0166195
0.0164298
0.0166062
0.0166062
0.016443
0.016443
0.0166062
0.016443
0.016443
0.0166195
0.0164298
0.0166062
0.016443
0.016443
0.0164298
0.0164019
0.0162121
0.0163886
0.0163886
0.0162254
0.0162254
0.0164019
0.0162121
0.0163886
0.0163886
0.0162254
0.0162254
0.0163886
0.0162254
0.0162254
0.0164019
0.0162121
0.0163886
0.0162254
0.0162254
0.0162121
0.0161843
0.0159945
0.0161709
0.0161709
0.0160077
0.0160077
0.0161843
0.0159945
0.0161709
0.0161709
0.0160077
0.0160077
0.0161709
0.0160077
0.0160077
0.0161843
0.0159945
0.0161709
0.0160077
0.0160077
0.0159945
0.0159666
0.0157769
0.0159533
0.0159533
0.0157901
0.0157901
0.0159666
0.0157769
0.0159533
0.0159533
0.0157901
0.0157901
0.0159533
0.0157901
0.0157901
0.0159666
0.0157769
0.0159533
0.0157901
0.0157901
0.0157769
0.015749
0.0155592
0.0157357
0.0157357
0.0155724
0.0155724
0.015749
0.0155592
0.0157357
0.0157357
0.0155724
0.0155724
0.0157357
0.0155724
0.0155724
0.015749
0.0155592
0.0157357
0.0155724
0.0155724
0.0155592
0.0155313
0.0153416
0.015518
0.015518
0.0153548
0.0153548
0.0155313
0.0153416
0.015518
0.015518
0.0153548
0.0153548
0.015518
0.0153548
0.0153548
0.0155313
0.0153416
0.015518
0.0153548
0.0153548
0.0153416
0.0153137
0.0151239
0.0153004
0.0153004
0.0151372
0.0151372
0.0153137
0.0151239
0.0153004
0.0153004
0.0151372
0.0151372
0.0153004
0.0151372
0.0151372
0.0153137
0.0151239
0.0153004
0.0151372
0.0151372
0.0151239
0.0150961
0.0149063
0.0150828
0.0150828
0.0149195
0.0149195
0.0150961
0.0149063
0.0150828
0.0150828
0.0149195
0.0149195
0.0150828
0.0149195
0.0149195
0.0150961
0.0149063
0.0150828
0.0149195
0.0149195
0.0149063
0.0148784
0.0146887
0.0148651
0.0148651
0.0147019
0.0147019
0.0148784
0.0146887
0.0148651
0.0148651
0.0147019
0.0147019
0.0148651
0.0147019
0.0147019
0.0148784
0.0146887
0.0148651
0.0147019
0.0147019
0.0146887
0.0146608
0.014471
0.0146475
0.0146475
0.0144843
0.0144843
0.0146608
0.014471
0.0146475
0.0146475
0.0144843
0.0144843
0.0146475
0.0144843
0.0144843
0.0146608
0.014471
0.0146475
0.0144843
0.0144843
0.014471
0.0144432
0.0142534
0.0144298
0.0144298
0.0142666
0.0142666
0.0144432
0.0142534
0.0144298
0.0144298
0.0142666
0.0142666
0.0144298
0.0142666
0.0142666
0.0144432
0.0142534
0.0144298
0.0142666
0.0142666
0.0142534
0.0142255
0.0140358
0.0142122
0.0142122
0.014049
0.014049
0.0142255
0.0140358
0.0142122
0.0142122
0.014049
0.014049
0.0142122
0.014049
0.014049
0.0142255
0.0140358
0.0142122
0.014049
0.014049
0.0140358
0.0140079
0.0138181
0.0139946
0.0139946
0.0138313
0.0138313
0.0140079
0.0138181
0.0139946
0.0139946
0.0138313
0.0138313
0.0139946
0.0138313
0.0138313
0.0140079
0.0138181
0.0139946
0.0138313
0.0138313
0.0138181
0.0137903
0.0136005
0.0137769
0.0137769
0.0136137
0.0136137
0.0137903
0.0136005
0.0137769
0.0137769
0.0136137
0.0136137
0.0137769
0.0136137
0.0136137
0.0137903
0.0136005
0.0137769
0.0136137
0.0136137
0.0136005
0.0135726
0.0133828
0.0135593
0.0135593
0.0133961
0.0133961
0.0135726
0.0133828
0.0135593
0.0135593
0.0133961
0.0133961
0.0135593
0.0133961
0.0133961
0.0135726
0.0133828
0.0135593
0.0133961
0.0133961
0.0133828
0.013355
0.0131652
0.0133417
0.0133417
0.0131784
0.0131784
0.013355
0.0131652
0.0133417
0.0133417
0.0131784
0.0131784
0.0133417
0.0131784
0.0131784
0.013355
0.0131652
0.0133417
0.0131784
0.0131784
0.0131652
0.0131373
0.0129476
0.013124
0.013124
0.0129608
0.0129608
0.0131373
0.0129476
0.013124
0.013124
0.0129608
0.0129608
0.013124
0.0129608
0.0129608
0.0131373
0.0129476
0.013124
0.0129608
0.0129608
0.0129476
0.0129197
0.0127299
0.0129064
0.0129064
0.0127432
0.0127432
0.0129197
0.0127299
0.0129064
0.0129064
0.0127432
0.0127432
0.0129064
0.0127432
0.0127432
0.0129197
0.0127299
0.0129064
0.0127432
0.0127432
0.0127299
0.0127021
0.0125123
0.0126888
0.0126888
0.0125255
0.0125255
0.0127021
0.0125123
0.0126888
0.0126888
0.0125255
0.0125255
0.0126888
0.0125255
0.0125255
0.0127021
0.0125123
0.0126888
0.0125255
0.0125255
0.0125123
0.0124844
0.0122947
0.0124711
0.0124711
0.0123079
0.0123079
0.0124844
0.0122947
0.0124711
0.0124711
0.0123079
0.0123079
0.0124711
0.0123079
0.0123079
0.0124844
0.0122947
0.0124711
0.0123079
0.0123079
0.0122947
0.0122668
0.012077
0.0122535
0.0122535
0.0120903
0.0120903
0.0122668
0.012077
0.0122535
0.0122535
0.0120903
0.0120903
0.0122535
0.0120903
0.0120903
0.0122668
0.012077
0.0122535
0.0120903
0.0120903
0.012077
0.0120492
0.0118594
0.0120358
0.0120358
0.0118726
0.0118726
0.0120492
0.0118594
0.0120358
0.0120358
0.0118726
0.0118726
0.0120358
0.0118726
0.0118726
0.0120492
0.0118594
0.0120358
0.0118726
0.0118726
0.0118594
0.0118315
0.0116418
0.0118182
0.0118182
0.011655
0.011655
0.0118315
0.0116418
0.0118182
0.0118182
0.011655
0.011655
0.0118182
0.011655
0.011655
0.0118315
0.0116418
0.0118182
0.011655
0.011655
0.0116418
0.0116139
0.0114241
0.0116006
0.0116006
0.0114373
0.0114373
0.0116139
0.0114241
0.0116006
0.0116006
0.0114373
0.0114373
0.0116006
0.0114373
0.0114373
0.0116139
0.0114241
0.0116006
0.0114373
0.0114373
0.0114241
0.0113962
0.0112065
0.0113829
0.0113829
0.0112197
0.0112197
0.0113962
0.0112065
0.0113829
0.0113829
0.0112197
0.0112197
0.0113829
0.0112197
0.0112197
0.0113962
0.0112065
0.0113829
0.0112197
0.0112197
0.0112065
0.0111786
0.0109888
0.0111653
0.0111653
0.0110021
0.0110021
0.0111786
0.0109888
0.0111653
0.0111653
0.0110021
0.0110021
0.0111653
0.0110021
0.0110021
0.0111786
0.0109888
0.0111653
0.0110021
0.0110021
0.0109888
0.010961
0.0107712
0.0109477
0.0109477
0.0107844
0.0107844
0.010961
0.0107712
0.0109477
0.0109477
0.0107844
0.0107844
0.0109477
0.0107844
0.0107844
0.010961
0.0107712
0.0109477
0.0107844
0.0107844
0.0107712
0.0107433
0.0105536
0.01073
0.01073
0.0105668
0.0105668
0.0107433
0.0105536
0.01073
0.01073
0.0105668
0.0105668
0.01073
0.0105668
0.0105668
0.0107433
0.0105536
0.01073
0.0105668
0.0105668
0.0105536
0.0105257
0.0103359
0.0105124
0.0105124
0.0103492
0.0103492
0.0105257
0.0103359
0.0105124
0.0105124
0.0103492
0.0103492
0.0105124
0.0103492
0.0103492
0.0105257
0.0103359
0.0105124
0.0103492
0.0103492
0.0103359
0.0103081
0.0101183
0.0102947
0.0102947
0.0101315
0.0101315
0.0103081
0.0101183
0.0102947
0.0102947
0.0101315
0.0101315
0.0102947
0.0101315
0.0101315
0.0103081
0.0101183
0.0102947
0.0101315
0.0101315
0.0101183
0.0100904
0.00990065
0.0100771
0.0100771
0.00991388
0.00991388
0.0100904
0.00990065
0.0100771
0.0100771
0.00991388
0.00991388
0.0100771
0.00991388
0.00991388
0.0100904
0.00990065
0.0100771
0.00991388
0.00991388
0.00990065
0.00987279
0.00968301
0.00985947
0.00985947
0.00969624
0.00969624
0.00987279
0.00968301
0.00985947
0.00985947
0.00969624
0.00969624
0.00985947
0.00969624
0.00969624
0.00987279
0.00968301
0.00985947
0.00969624
0.00969624
0.00968301
0.00965515
0.00946538
0.00964183
0.00964183
0.00947861
0.00947861
0.00965515
0.00946538
0.00964183
0.00964183
0.00947861
0.00947861
0.00964183
0.00947861
0.00947861
0.00965515
0.00946538
0.00964183
0.00947861
0.00947861
0.00946538
0.00943751
0.00924774
0.0094242
0.0094242
0.00926097
0.00926097
0.00943751
0.00924774
0.0094242
0.0094242
0.00926097
0.00926097
0.0094242
0.00926097
0.00926097
0.00943751
0.00924774
0.0094242
0.00926097
0.00926097
0.00924774
0.00921988
0.0090301
0.00920656
0.00920656
0.00904333
0.00904333
0.00921988
0.0090301
0.00920656
0.00920656
0.00904333
0.00904333
0.00920656
0.00904333
0.00904333
0.00921988
0.00903011
0.00920656
0.00904333
0.00904333
0.0090301
0.00900224
0.00881247
0.00898892
0.00898892
0.0088257
0.0088257
0.00900224
0.00881247
0.00898892
0.00898892
0.0088257
0.0088257
0.00898892
0.0088257
0.0088257
0.00900224
0.00881247
0.00898892
0.0088257
0.0088257
0.00881247
0.0087846
0.00859483
0.00877129
0.00877129
0.00860806
0.00860806
0.0087846
0.00859483
0.00877129
0.00877129
0.00860806
0.00860806
0.00877129
0.00860806
0.00860806
0.0087846
0.00859483
0.00877129
0.00860806
0.00860806
0.00859483
0.00856697
0.0083772
0.00855365
0.00855365
0.00839042
0.00839042
0.00856697
0.0083772
0.00855365
0.00855365
0.00839042
0.00839042
0.00855365
0.00839042
0.00839043
0.00856697
0.0083772
0.00855365
0.00839042
0.00839042
0.0083772
0.00834933
0.00815956
0.00833602
0.00833601
0.00817279
0.00817279
0.00834933
0.00815956
0.00833601
0.00833601
0.00817279
0.00817279
0.00833602
0.00817279
0.00817279
0.00834933
0.00815956
0.00833602
0.00817279
0.00817279
0.00815956
0.00813169
0.00794192
0.00811838
0.00811838
0.00795515
0.00795515
0.00813169
0.00794192
0.00811838
0.00811838
0.00795515
0.00795515
0.00811838
0.00795515
0.00795515
0.00813169
0.00794192
0.00811838
0.00795515
0.00795515
0.00794192
0.00791406
0.00772428
0.00790074
0.00790074
0.00773751
0.00773751
0.00791406
0.00772428
0.00790074
0.00790074
0.00773751
0.00773751
0.00790074
0.00773751
0.00773751
0.00791406
0.00772428
0.00790074
0.00773751
0.00773751
0.00772428
0.00769642
0.00750665
0.0076831
0.0076831
0.00751988
0.00751987
0.00769642
0.00750665
0.0076831
0.0076831
0.00751987
0.00751988
0.0076831
0.00751988
0.00751988
0.00769642
0.00750665
0.0076831
0.00751988
0.00751988
0.00750665
0.00747878
0.00728901
0.00746547
0.00746547
0.00730224
0.00730224
0.00747878
0.00728901
0.00746547
0.00746547
0.00730224
0.00730224
0.00746547
0.00730224
0.00730224
0.00747878
0.00728901
0.00746547
0.00730224
0.00730224
0.00728901
0.00726114
0.00707137
0.00724783
0.00724783
0.0070846
0.0070846
0.00726114
0.00707137
0.00724783
0.00724783
0.0070846
0.0070846
0.00724783
0.0070846
0.0070846
0.00726114
0.00707137
0.00724783
0.0070846
0.0070846
0.00707137
0.00704351
0.00685373
0.00703019
0.00703019
0.00686696
0.00686696
0.00704351
0.00685373
0.00703019
0.00703019
0.00686696
0.00686696
0.00703019
0.00686696
0.00686696
0.00704351
0.00685373
0.00703019
0.00686696
0.00686696
0.00685373
0.00682587
0.0066361
0.00681255
0.00681255
0.00664932
0.00664932
0.00682587
0.0066361
0.00681255
0.00681255
0.00664932
0.00664932
0.00681255
0.00664933
0.00664933
0.00682587
0.0066361
0.00681255
0.00664932
0.00664933
0.0066361
0.00660823
0.00641846
0.00659492
0.00659492
0.00643169
0.00643169
0.00660823
0.00641846
0.00659492
0.00659492
0.00643169
0.00643169
0.00659492
0.00643169
0.00643169
0.00660823
0.00641846
0.00659492
0.00643169
0.00643169
0.00641846
0.00639059
0.00620082
0.00637728
0.00637728
0.00621405
0.00621405
0.00639059
0.00620082
0.00637728
0.00637728
0.00621405
0.00621405
0.00637728
0.00621405
0.00621405
0.00639059
0.00620082
0.00637728
0.00621405
0.00621405
0.00620082
0.00617296
0.00598319
0.00615964
0.00615964
0.00599641
0.00599641
0.00617296
0.00598319
0.00615964
0.00615964
0.00599641
0.00599641
0.00615964
0.00599641
0.00599641
0.00617296
0.00598319
0.00615964
0.00599641
0.00599641
0.00598319
0.00595532
0.00576555
0.005942
0.005942
0.00577878
0.00577878
0.00595532
0.00576555
0.005942
0.005942
0.00577878
0.00577878
0.00594201
0.00577878
0.00577878
0.00595532
0.00576555
0.005942
0.00577878
0.00577878
0.00576555
0.00573768
0.00554791
0.00572437
0.00572437
0.00556114
0.00556114
0.00573768
0.00554791
0.00572437
0.00572437
0.00556114
0.00556114
0.00572437
0.00556114
0.00556114
0.00573768
0.00554791
0.00572437
0.00556114
0.00556114
0.00554791
0.00552005
0.00533028
0.00550673
0.00550673
0.00534351
0.00534351
0.00552005
0.00533028
0.00550673
0.00550673
0.00534351
0.00534351
0.00550673
0.00534351
0.00534351
0.00552005
0.00533028
0.00550673
0.00534351
0.00534351
0.00533028
0.00530241
0.00511264
0.0052891
0.0052891
0.00512587
0.00512587
0.00530241
0.00511264
0.0052891
0.0052891
0.00512587
0.00512587
0.0052891
0.00512587
0.00512587
0.00530241
0.00511264
0.0052891
0.00512587
0.00512587
0.00511264
0.00508478
0.00489501
0.00507146
0.00507146
0.00490823
0.00490823
0.00508478
0.00489501
0.00507146
0.00507146
0.00490823
0.00490823
0.00507146
0.00490823
0.00490823
0.00508478
0.00489501
0.00507146
0.00490823
0.00490823
0.00489501
0.00486714
0.00467737
0.00485382
0.00485382
0.0046906
0.0046906
0.00486714
0.00467737
0.00485382
0.00485382
0.0046906
0.0046906
0.00485383
0.0046906
0.0046906
0.00486714
0.00467737
0.00485382
0.0046906
0.0046906
0.00467737
0.0046495
0.00445973
0.00463619
0.00463619
0.00447296
0.00447296
0.0046495
0.00445973
0.00463619
0.00463619
0.00447296
0.00447296
0.00463619
0.00447296
0.00447296
0.0046495
0.00445973
0.00463619
0.00447296
0.00447296
0.00445973
0.00443187
0.00424209
0.00441855
0.00441855
0.00425532
0.00425532
0.00443187
0.0042421
0.00441855
0.00441855
0.00425532
0.00425532
0.00441855
0.00425532
0.00425532
0.00443187
0.00424209
0.00441855
0.00425532
0.00425532
0.0042421
0.00421423
0.00402446
0.00420091
0.00420091
0.00403769
0.00403769
0.00421423
0.00402446
0.00420091
0.00420091
0.00403769
0.00403769
0.00420091
0.00403769
0.00403769
0.00421423
0.00402446
0.00420091
0.00403769
0.00403769
0.00402446
0.00399659
0.00380682
0.00398328
0.00398328
0.00382005
0.00382005
0.00399659
0.00380682
0.00398328
0.00398328
0.00382005
0.00382005
0.00398328
0.00382005
0.00382005
0.00399659
0.00380682
0.00398328
0.00382005
0.00382005
0.00380682
0.00377895
0.00358918
0.00376564
0.00376564
0.00360241
0.00360241
0.00377895
0.00358918
0.00376564
0.00376564
0.00360241
0.00360241
0.00376564
0.00360241
0.00360241
0.00377895
0.00358918
0.00376564
0.00360241
0.00360241
0.00358918
0.00356132
0.00337154
0.003548
0.003548
0.00338477
0.00338477
0.00356132
0.00337155
0.003548
0.003548
0.00338477
0.00338477
0.003548
0.00338477
0.00338477
0.00356132
0.00337154
0.003548
0.00338477
0.00338477
0.00337155
0.00334368
0.00315391
0.00333036
0.00333036
0.00316714
0.00316714
0.00334368
0.00315391
0.00333036
0.00333036
0.00316714
0.00316714
0.00333036
0.00316714
0.00316714
0.00334368
0.00315391
0.00333036
0.00316714
0.00316714
0.00315391
0.00312604
0.00293627
0.00311273
0.00311273
0.0029495
0.0029495
0.00312604
0.00293627
0.00311273
0.00311273
0.0029495
0.0029495
0.00311273
0.0029495
0.0029495
0.00312604
0.00293627
0.00311273
0.0029495
0.0029495
0.00293627
0.0029084
0.00271863
0.00289509
0.00289509
0.00273186
0.00273186
0.00290841
0.00271863
0.00289509
0.00289509
0.00273186
0.00273186
0.00289509
0.00273186
0.00273186
0.0029084
0.00271863
0.00289509
0.00273186
0.00273186
0.00271863
0.00269077
0.002501
0.00267745
0.00267745
0.00251422
0.00251422
0.00269077
0.002501
0.00267745
0.00267745
0.00251422
0.00251422
0.00267745
0.00251422
0.00251423
0.00269077
0.002501
0.00267745
0.00251422
0.00251422
0.002501
0.00247313
0.00228336
0.00245982
0.00245982
0.00229659
0.00229659
0.00247313
0.00228336
0.00245982
0.00245982
0.00229659
0.00229659
0.00245982
0.00229659
0.00229659
0.00247313
0.00228336
0.00245982
0.00229659
0.00229659
0.00228336
0.00225549
0.00206572
0.00224218
0.00224218
0.00207895
0.00207895
0.0022555
0.00206572
0.00224218
0.00224218
0.00207895
0.00207895
0.00224218
0.00207895
0.00207895
0.00225549
0.00206572
0.00224218
0.00207895
0.00207895
0.00206572
0.00203786
0.00184809
0.00202454
0.00202454
0.00186132
0.00186132
0.00203786
0.00184809
0.00202454
0.00202454
0.00186132
0.00186132
0.00202454
0.00186132
0.00186132
0.00203786
0.00184809
0.00202454
0.00186132
0.00186132
0.00184809
0.00182022
0.00163045
0.00180691
0.00180691
0.00164368
0.00164368
0.00182022
0.00163045
0.00180691
0.00180691
0.00164368
0.00164368
0.00180691
0.00164368
0.00164368
0.00182022
0.00163045
0.00180691
0.00164368
0.00164368
0.00163045
0.00160259
0.00141281
0.00158927
0.00158927
0.00142604
0.00142604
0.00160259
0.00141281
0.00158927
0.00158927
0.00142604
0.00142604
0.00158927
0.00142604
0.00142604
0.00160259
0.00141281
0.00158927
0.00142604
0.00142604
0.00141282
0.00138495
0.00119518
0.00137163
0.00137163
0.00120841
0.00120841
0.00138495
0.00119518
0.00137163
0.00137163
0.00120841
0.00120841
0.00137163
0.00120841
0.00120841
0.00138495
0.00119518
0.00137163
0.00120841
0.00120841
0.00119518
0.00116731
0.000977542
0.001154
0.001154
0.00099077
0.00099077
0.00116731
0.000977542
0.001154
0.001154
0.00099077
0.00099077
0.001154
0.00099077
0.000990771
0.00116731
0.000977542
0.001154
0.00099077
0.00099077
0.000977542
0.000949676
0.000759905
0.000936361
0.00093636
0.000773133
0.000773133
0.000949677
0.000759905
0.00093636
0.000936361
0.000773133
0.000773133
0.000936361
0.000773133
0.000773134
0.000949676
0.000759905
0.000936361
0.000773133
0.000773133
0.000759905
0.00073204
0.00054227
0.000718724
0.000718723
0.0005555
0.000555502
0.00073204
0.000542269
0.000718724
0.000718724
0.0005555
0.0005555
0.000718725
0.000555501
0.000555501
0.000732039
0.000542269
0.000718725
0.000555499
0.0005555
0.000542269
0.000514406
0.0003247
0.000501098
0.000501097
0.000338016
0.000338017
0.000514405
0.000324704
0.000501098
0.000501097
0.000338015
0.000338013
0.000501097
0.000338017
0.000338012
0.000514404
0.000324696
0.000501097
0.000338013
0.000338013
0.000324696
0.000296874
0.000109345
0.000283835
0.000283833
0.00012205
0.000122041
0.000296877
0.000109338
0.000283831
0.000283828
0.00012204
0.000122045
0.000283827
0.000122042
0.00012204
0.000296867
0.000109344
0.000283827
0.00012204
0.000122035
0.000109336
8.76748e-05
8.79528e-05
8.7939e-05
8.76677e-05
8.79483e-05
8.79459e-05
8.31058e-05
8.31088e-05
8.31058e-05
8.79467e-05
8.7674e-05
8.79431e-05
0.0205973
0.0206318
0.0206132
0.0206132
0.0206895
0.0206457
0.0207492
0.0206245
0.0206895
0.0206457
0.0206245
0.0207491
0.0206613
0.0207703
0.0207703
0.0204605
0.020582
0.0205652
0.0204616
0.0204655
0.0204595
0.0204605
0.0205821
0.0205651
0.0204616
0.020522
0.020522
0.020522
0.0203606
0.0203606
0.0203606
0.0203606
0.020455
0.0205614
0.0205244
0.0204685
0.0205299
0.020458
0.0204681
0.0204655
0.0204595
0.020455
0.0205244
0.0205613
0.0204685
0.02053
0.0204681
0.020458
0.0205628
0.0205628
0.020456
0.0204561
0.0204561
0.0202383
0.0203202
0.0203204
0.0202383
0.02032
0.0202383
0.0202383
0.0203202
0.0203204
0.0202383
0.0203061
0.0203061
0.0203061
0.0201429
0.0201429
0.0201429
0.0201429
0.0202388
0.0203195
0.020306
0.0202516
0.0203194
0.0202388
0.0202516
0.02032
0.0202383
0.0202388
0.020306
0.0203195
0.0202516
0.0203194
0.0202516
0.0202388
0.0203198
0.0203198
0.0202384
0.0202383
0.0202383
0.0200205
0.0201021
0.0201021
0.0200205
0.020102
0.0200206
0.0200205
0.0201021
0.0201021
0.0200205
0.0200885
0.0200885
0.0200885
0.0199253
0.0199253
0.0199253
0.0199253
0.0200211
0.0201016
0.0200885
0.020034
0.0201016
0.020021
0.020034
0.020102
0.0200206
0.0200211
0.0200885
0.0201016
0.020034
0.0201016
0.020034
0.020021
0.0201021
0.0201021
0.0200208
0.0200205
0.0200205
0.0198029
0.0198844
0.0198844
0.0198029
0.0198844
0.0198029
0.0198029
0.0198844
0.0198844
0.0198029
0.0198709
0.0198709
0.0198709
0.0197077
0.0197077
0.0197077
0.0197077
0.0198034
0.0198839
0.0198708
0.0198164
0.0198839
0.0198034
0.0198164
0.0198844
0.0198029
0.0198034
0.0198708
0.0198839
0.0198164
0.0198839
0.0198164
0.0198034
0.0198844
0.0198844
0.0198031
0.0198029
0.0198029
0.0195852
0.0196668
0.0196668
0.0195852
0.0196667
0.0195853
0.0195852
0.0196668
0.0196668
0.0195852
0.0196533
0.0196533
0.0196533
0.01949
0.01949
0.01949
0.01949
0.0195858
0.0196663
0.0196532
0.0195987
0.0196663
0.0195857
0.0195988
0.0196667
0.0195853
0.0195858
0.0196532
0.0196663
0.0195987
0.0196663
0.0195988
0.0195857
0.0196668
0.0196668
0.0195855
0.0195853
0.0195853
0.0193676
0.0194492
0.0194492
0.0193676
0.0194491
0.0193676
0.0193676
0.0194492
0.0194492
0.0193676
0.0194356
0.0194356
0.0194356
0.0192724
0.0192724
0.0192724
0.0192724
0.0193681
0.0194486
0.0194355
0.0193811
0.0194486
0.0193681
0.0193811
0.0194491
0.0193676
0.0193681
0.0194355
0.0194486
0.0193811
0.0194486
0.0193811
0.0193681
0.0194491
0.0194491
0.0193679
0.0193676
0.0193676
0.01915
0.0192315
0.0192315
0.01915
0.0192315
0.01915
0.01915
0.0192315
0.0192315
0.01915
0.019218
0.019218
0.019218
0.0190548
0.0190548
0.0190548
0.0190548
0.0191505
0.019231
0.0192179
0.0191635
0.019231
0.0191505
0.0191635
0.0192315
0.01915
0.0191505
0.0192179
0.019231
0.0191635
0.019231
0.0191635
0.0191505
0.0192315
0.0192315
0.0191502
0.01915
0.01915
0.0189323
0.0190139
0.0190139
0.0189323
0.0190138
0.0189324
0.0189323
0.0190139
0.0190139
0.0189323
0.0190004
0.0190004
0.0190004
0.0188371
0.0188371
0.0188371
0.0188371
0.0189329
0.0190134
0.0190003
0.0189458
0.0190134
0.0189328
0.0189459
0.0190138
0.0189324
0.0189329
0.0190003
0.0190134
0.0189458
0.0190134
0.0189459
0.0189328
0.0190139
0.0190139
0.0189326
0.0189324
0.0189324
0.0187147
0.0187962
0.0187963
0.0187147
0.0187962
0.0187147
0.0187147
0.0187962
0.0187963
0.0187147
0.0187827
0.0187827
0.0187827
0.0186195
0.0186195
0.0186195
0.0186195
0.0187152
0.0187957
0.0187826
0.0187282
0.0187957
0.0187152
0.0187282
0.0187962
0.0187147
0.0187152
0.0187826
0.0187957
0.0187282
0.0187957
0.0187282
0.0187152
0.0187962
0.0187962
0.018715
0.0187147
0.0187147
0.018497
0.0185786
0.0185786
0.0184971
0.0185786
0.0184971
0.018497
0.0185786
0.0185786
0.018497
0.0185651
0.0185651
0.0185651
0.0184019
0.0184019
0.0184019
0.0184019
0.0184976
0.0185781
0.018565
0.0185105
0.0185781
0.0184976
0.0185106
0.0185786
0.0184971
0.0184976
0.018565
0.0185781
0.0185105
0.0185781
0.0185106
0.0184976
0.0185786
0.0185786
0.0184973
0.0184971
0.0184971
0.0182794
0.018361
0.018361
0.0182794
0.0183609
0.0182795
0.0182794
0.018361
0.018361
0.0182794
0.0183475
0.0183475
0.0183475
0.0181842
0.0181842
0.0181842
0.0181842
0.01828
0.0183604
0.0183474
0.0182929
0.0183604
0.0182799
0.0182929
0.0183609
0.0182795
0.01828
0.0183474
0.0183604
0.0182929
0.0183604
0.0182929
0.0182799
0.0183609
0.0183609
0.0182797
0.0182794
0.0182794
0.0180618
0.0181433
0.0181433
0.0180618
0.0181433
0.0180618
0.0180618