/*--------------------------------*- C++ -*----------------------------------*\
| =========                 |                                                 |
| \\      /  F ield         | OpenFOAM: The Open Source CFD Toolbox           |
|  \\    /   O peration     | Version:  v1906                                 |
|   \\  /    A nd           | Web:      www.OpenFOAM.com                      |
|    \\/     M anipulation  |                                                 |
\*---------------------------------------------------------------------------*/
FoamFile
{
    version     2.0;
    format      ascii;
    class       volScalarField;
    location    "700";
    object      epsilon;
}
// * * * * * * * * * * * * * * * * * * * * * * * * * * * * * * * * * * * * * //

dimensions      [0 2 -3 0 0 0 0];


internalField   nonuniform List<scalar> 
43024
(
6.63551e-07
1.18843e-06
1.18849e-06
1.4206e-06
6.68517e-07
1.19043e-06
1.19049e-06
1.42262e-06
6.72913e-07
1.19193e-06
1.192e-06
1.42424e-06
6.7676e-07
1.19297e-06
1.19303e-06
1.42564e-06
6.80078e-07
1.19355e-06
1.19361e-06
1.42659e-06
6.82889e-07
1.19369e-06
1.19375e-06
1.42705e-06
6.85216e-07
1.19345e-06
1.19351e-06
1.42715e-06
6.8708e-07
1.19283e-06
1.19289e-06
1.42692e-06
6.88506e-07
1.19185e-06
1.19191e-06
1.42635e-06
6.89515e-07
1.19052e-06
1.19058e-06
1.42547e-06
6.90129e-07
1.18888e-06
1.18894e-06
1.42434e-06
6.90376e-07
1.18695e-06
1.18701e-06
1.42255e-06
6.90295e-07
1.18475e-06
1.18481e-06
1.42089e-06
6.89927e-07
1.18231e-06
1.18236e-06
1.41898e-06
6.89263e-07
1.17966e-06
1.17969e-06
1.41689e-06
6.88335e-07
1.1768e-06
1.17681e-06
1.4145e-06
6.87166e-07
1.17377e-06
1.17376e-06
1.41196e-06
6.85779e-07
1.17059e-06
1.17055e-06
1.40925e-06
6.84195e-07
1.16726e-06
1.16724e-06
1.40637e-06
6.8219e-07
1.16354e-06
1.16356e-06
1.403e-06
6.63174e-07
1.10578e-06
1.10576e-06
1.35882e-06
1.41846e-06
1.18791e-06
1.18793e-06
1.41838e-06
1.18782e-06
1.18795e-06
1.18783e-06
1.18796e-06
1.41846e-06
1.18789e-06
1.18787e-06
1.41847e-06
1.42053e-06
1.42055e-06
1.1885e-06
1.18852e-06
1.19003e-06
1.19005e-06
1.4205e-06
1.4205e-06
1.18842e-06
1.18854e-06
1.18994e-06
1.19007e-06
1.18856e-06
1.18995e-06
1.19008e-06
1.42058e-06
1.42057e-06
1.18847e-06
1.19002e-06
1.19e-06
1.42059e-06
1.42257e-06
1.42224e-06
1.1905e-06
1.19052e-06
1.19165e-06
1.19167e-06
1.42252e-06
1.42219e-06
1.19042e-06
1.19055e-06
1.19156e-06
1.1917e-06
1.19056e-06
1.19157e-06
1.19171e-06
1.42259e-06
1.42227e-06
1.19047e-06
1.19164e-06
1.19162e-06
1.42229e-06
1.42418e-06
1.42346e-06
1.192e-06
1.19203e-06
1.19279e-06
1.19282e-06
1.42414e-06
1.42356e-06
1.19193e-06
1.19205e-06
1.19271e-06
1.19284e-06
1.19207e-06
1.19272e-06
1.19285e-06
1.42421e-06
1.42355e-06
1.19198e-06
1.19278e-06
1.19277e-06
1.4235e-06
1.42557e-06
1.42429e-06
1.19304e-06
1.19306e-06
1.19349e-06
1.19352e-06
1.42535e-06
1.42451e-06
1.19296e-06
1.19309e-06
1.19341e-06
1.19354e-06
1.1931e-06
1.19342e-06
1.19355e-06
1.42544e-06
1.42459e-06
1.19302e-06
1.19348e-06
1.19347e-06
1.42434e-06
1.42651e-06
1.4248e-06
1.19362e-06
1.19365e-06
1.19376e-06
1.19379e-06
1.42617e-06
1.42502e-06
1.19354e-06
1.19367e-06
1.19368e-06
1.19381e-06
1.19368e-06
1.19369e-06
1.19382e-06
1.42624e-06
1.4251e-06
1.1936e-06
1.19375e-06
1.19374e-06
1.42485e-06
1.42698e-06
1.42495e-06
1.19376e-06
1.19379e-06
1.1936e-06
1.19363e-06
1.42664e-06
1.42517e-06
1.19368e-06
1.19381e-06
1.19352e-06
1.19364e-06
1.19382e-06
1.19352e-06
1.19366e-06
1.42671e-06
1.42525e-06
1.19374e-06
1.19358e-06
1.19357e-06
1.42499e-06
1.42708e-06
1.42475e-06
1.19353e-06
1.19355e-06
1.19304e-06
1.19307e-06
1.42675e-06
1.42498e-06
1.19344e-06
1.19358e-06
1.19296e-06
1.19309e-06
1.19359e-06
1.19296e-06
1.1931e-06
1.42682e-06
1.42505e-06
1.19351e-06
1.19303e-06
1.19302e-06
1.4248e-06
1.42683e-06
1.42422e-06
1.19291e-06
1.19293e-06
1.19211e-06
1.19215e-06
1.42651e-06
1.42445e-06
1.19282e-06
1.19296e-06
1.19204e-06
1.19216e-06
1.19297e-06
1.19204e-06
1.19218e-06
1.42658e-06
1.42452e-06
1.19289e-06
1.1921e-06
1.1921e-06
1.42427e-06
1.42627e-06
1.42338e-06
1.19193e-06
1.19195e-06
1.19085e-06
1.19088e-06
1.42595e-06
1.42361e-06
1.19184e-06
1.19197e-06
1.19077e-06
1.1909e-06
1.19199e-06
1.19077e-06
1.19091e-06
1.42601e-06
1.42368e-06
1.19191e-06
1.19083e-06
1.19083e-06
1.42343e-06
1.42539e-06
1.42225e-06
1.1906e-06
1.19063e-06
1.18926e-06
1.18929e-06
1.42507e-06
1.42248e-06
1.19052e-06
1.19065e-06
1.18918e-06
1.18931e-06
1.19067e-06
1.18919e-06
1.18933e-06
1.42514e-06
1.42255e-06
1.19058e-06
1.18924e-06
1.18924e-06
1.4223e-06
1.42422e-06
1.42084e-06
1.18896e-06
1.18899e-06
1.18737e-06
1.18741e-06
1.42391e-06
1.42108e-06
1.18888e-06
1.18902e-06
1.18729e-06
1.18743e-06
1.18903e-06
1.1873e-06
1.18744e-06
1.42397e-06
1.42115e-06
1.18895e-06
1.18736e-06
1.18736e-06
1.42115e-06
1.42279e-06
1.41919e-06
1.18704e-06
1.18707e-06
1.18521e-06
1.18525e-06
1.42248e-06
1.41942e-06
1.18695e-06
1.18709e-06
1.18514e-06
1.18527e-06
1.1871e-06
1.18515e-06
1.18528e-06
1.42254e-06
1.4195e-06
1.18702e-06
1.1852e-06
1.1852e-06
1.41952e-06
1.42108e-06
1.41738e-06
1.18484e-06
1.18488e-06
1.1828e-06
1.18283e-06
1.42081e-06
1.41748e-06
1.18475e-06
1.18489e-06
1.18273e-06
1.18287e-06
1.18491e-06
1.18273e-06
1.18287e-06
1.42088e-06
1.41755e-06
1.18482e-06
1.18279e-06
1.18278e-06
1.41761e-06
1.41903e-06
1.41527e-06
1.1824e-06
1.18243e-06
1.18015e-06
1.18019e-06
1.41895e-06
1.41524e-06
1.1823e-06
1.18243e-06
1.18009e-06
1.18023e-06
1.18247e-06
1.18008e-06
1.18022e-06
1.41903e-06
1.41531e-06
1.18238e-06
1.18016e-06
1.18014e-06
1.41539e-06
1.41682e-06
1.4129e-06
1.17973e-06
1.17977e-06
1.17729e-06
1.17733e-06
1.41677e-06
1.41286e-06
1.17963e-06
1.17976e-06
1.17722e-06
1.17739e-06
1.1798e-06
1.17721e-06
1.17736e-06
1.41683e-06
1.41294e-06
1.1797e-06
1.17731e-06
1.17731e-06
1.41297e-06
1.41444e-06
1.41036e-06
1.17687e-06
1.17691e-06
1.17424e-06
1.17428e-06
1.4144e-06
1.41032e-06
1.1768e-06
1.17688e-06
1.17416e-06
1.17436e-06
1.17695e-06
1.17416e-06
1.17432e-06
1.41446e-06
1.41039e-06
1.17681e-06
1.17429e-06
1.17429e-06
1.41042e-06
1.4119e-06
1.40766e-06
1.17385e-06
1.17388e-06
1.17103e-06
1.17107e-06
1.41185e-06
1.40761e-06
1.17377e-06
1.17383e-06
1.17095e-06
1.17118e-06
1.17392e-06
1.17095e-06
1.1711e-06
1.41192e-06
1.40769e-06
1.17376e-06
1.1711e-06
1.1711e-06
1.40772e-06
1.40919e-06
1.40481e-06
1.17067e-06
1.17071e-06
1.16768e-06
1.16772e-06
1.40914e-06
1.40476e-06
1.17059e-06
1.17063e-06
1.1676e-06
1.16785e-06
1.17075e-06
1.16761e-06
1.16775e-06
1.40921e-06
1.40485e-06
1.17056e-06
1.16776e-06
1.16777e-06
1.40487e-06
1.40631e-06
1.40151e-06
1.16735e-06
1.16739e-06
1.16382e-06
1.16385e-06
1.40627e-06
1.40146e-06
1.16727e-06
1.16732e-06
1.16373e-06
1.16394e-06
1.16742e-06
1.16375e-06
1.16388e-06
1.40634e-06
1.40154e-06
1.16724e-06
1.16386e-06
1.16386e-06
1.40157e-06
1.40294e-06
1.3811e-06
1.16363e-06
1.16367e-06
1.14126e-06
1.14129e-06
1.4029e-06
1.38107e-06
1.16354e-06
1.16363e-06
1.14124e-06
1.14126e-06
1.1637e-06
1.14136e-06
1.14131e-06
1.40296e-06
1.38114e-06
1.16355e-06
1.14135e-06
1.1413e-06
1.38131e-06
1.35886e-06
1.10572e-06
1.10578e-06
1.35884e-06
1.10572e-06
1.10572e-06
6.63211e-07
6.63175e-07
6.63213e-07
1.10575e-06
1.35883e-06
1.10576e-06
4.23884e-06
9.56551e-06
1.90933e-05
4.239e-06
9.56754e-06
6.62205e-07
6.62207e-07
6.62304e-07
6.62297e-07
2.29552e-06
1.18658e-06
3.64735e-06
9.35047e-07
1.90943e-05
2.2955e-06
1.18664e-06
9.351e-07
3.64741e-06
1.41725e-06
5.65055e-06
5.65248e-06
4.24107e-06
9.57203e-06
4.24066e-06
9.5764e-06
1.91046e-05
1.91145e-05
4.24123e-06
9.57408e-06
4.24078e-06
9.57843e-06
6.63553e-07
6.63651e-07
6.63636e-07
6.67312e-07
6.67313e-07
6.67411e-07
6.67406e-07
2.29666e-06
3.64924e-06
9.37692e-07
1.18896e-06
2.29659e-06
3.64948e-06
9.38475e-07
1.91055e-05
1.91156e-05
2.29662e-06
9.37745e-07
3.64925e-06
1.18902e-06
2.29653e-06
9.38528e-07
3.64953e-06
5.65363e-06
5.65558e-06
1.41958e-06
5.65455e-06
5.65649e-06
4.24302e-06
9.58262e-06
4.2427e-06
9.58677e-06
1.91254e-05
1.91351e-05
4.24318e-06
9.58467e-06
4.24282e-06
9.5888e-06
6.68519e-07
6.68617e-07
6.68599e-07
6.71844e-07
6.71847e-07
6.71944e-07
6.71939e-07
2.29748e-06
3.65117e-06
9.4067e-07
1.19082e-06
2.29746e-06
3.65129e-06
9.413e-07
1.91263e-05
1.9136e-05
2.29735e-06
9.40724e-07
3.65118e-06
1.19089e-06
2.29742e-06
9.41353e-07
3.65134e-06
5.65745e-06
5.65938e-06
1.42149e-06
5.65825e-06
5.66021e-06
4.24469e-06
9.59268e-06
4.24447e-06
9.59662e-06
1.91455e-05
1.91548e-05
4.24485e-06
9.59472e-06
4.24458e-06
9.59863e-06
6.72916e-07
6.73013e-07
6.72996e-07
6.75822e-07
6.75825e-07
6.75922e-07
6.75916e-07
2.29788e-06
3.65281e-06
9.43067e-07
1.19221e-06
2.29797e-06
3.65281e-06
9.4355e-07
1.91464e-05
1.91558e-05
2.29769e-06
9.43119e-07
3.65281e-06
1.19227e-06
2.29804e-06
9.436e-07
3.65285e-06
5.66098e-06
5.66291e-06
1.42297e-06
5.66167e-06
5.66363e-06
4.24607e-06
9.6022e-06
4.24595e-06
9.60591e-06
1.91648e-05
1.91738e-05
4.24622e-06
9.60422e-06
4.24605e-06
9.60791e-06
6.76763e-07
6.76859e-07
6.76842e-07
6.79266e-07
6.79268e-07
6.79364e-07
6.79359e-07
2.29792e-06
3.65414e-06
9.44908e-07
1.19312e-06
2.29813e-06
3.65403e-06
9.4525e-07
1.91656e-05
1.91747e-05
2.29772e-06
9.44957e-07
3.65414e-06
1.19319e-06
2.29819e-06
9.45298e-07
3.65407e-06
5.66423e-06
5.66616e-06
1.42389e-06
5.66481e-06
5.66677e-06
4.24717e-06
9.61116e-06
4.24716e-06
9.61464e-06
1.91833e-05
1.91919e-05
4.24732e-06
9.61318e-06
4.24726e-06
9.61664e-06
6.8008e-07
6.80176e-07
6.80159e-07
6.82195e-07
6.82197e-07
6.82291e-07
6.82287e-07
2.29764e-06
3.65518e-06
9.46219e-07
1.1936e-06
2.29798e-06
3.65496e-06
9.46432e-07
1.91841e-05
1.91929e-05
2.29744e-06
9.46266e-07
3.65519e-06
1.19366e-06
2.29803e-06
9.46478e-07
3.655e-06
5.66719e-06
5.66913e-06
1.42457e-06
5.66766e-06
5.66963e-06
4.24801e-06
9.61957e-06
4.2481e-06
9.62283e-06
1.9201e-05
1.92093e-05
4.24814e-06
9.62158e-06
4.24819e-06
9.62482e-06
6.82891e-07
6.82985e-07
6.8297e-07
6.84631e-07
6.84633e-07
6.84726e-07
6.84723e-07
2.2969e-06
3.65594e-06
9.4703e-07
1.19365e-06
2.29751e-06
3.65561e-06
9.47124e-07
1.92018e-05
1.92102e-05
2.29684e-06
9.47077e-07
3.65595e-06
1.19372e-06
2.29756e-06
9.4717e-07
3.65566e-06
5.66986e-06
5.67181e-06
1.4249e-06
5.67024e-06
5.6722e-06
4.24857e-06
9.62742e-06
4.24877e-06
9.63045e-06
1.92178e-05
1.92258e-05
4.24871e-06
9.62943e-06
4.24886e-06
9.63244e-06
6.85219e-07
6.85311e-07
6.85297e-07
6.86599e-07
6.86602e-07
6.86693e-07
6.86691e-07
2.29609e-06
3.65643e-06
9.47362e-07
1.19329e-06
2.29681e-06
3.65599e-06
9.47363e-07
1.92186e-05
1.92267e-05
2.29602e-06
9.47409e-07
3.65644e-06
1.19335e-06
2.29675e-06
9.47407e-07
3.65604e-06
5.67228e-06
5.67422e-06
1.42488e-06
5.67253e-06
5.67448e-06
4.24889e-06
9.63472e-06
4.24918e-06
9.63753e-06
1.92338e-05
1.92415e-05
4.24903e-06
9.63672e-06
4.24927e-06
9.63951e-06
6.87084e-07
6.87175e-07
6.87162e-07
6.88124e-07
6.88128e-07
6.88217e-07
6.88216e-07
2.29489e-06
3.65665e-06
9.47258e-07
1.19255e-06
2.29573e-06
3.6561e-06
9.47144e-07
1.92346e-05
1.92423e-05
2.29481e-06
9.47302e-07
3.65666e-06
1.19261e-06
2.29566e-06
9.4719e-07
3.65616e-06
5.67441e-06
5.67635e-06
1.42452e-06
5.67454e-06
5.6765e-06
4.24896e-06
9.64146e-06
4.24935e-06
9.64405e-06
1.92489e-05
1.92563e-05
4.2491e-06
9.64346e-06
4.24943e-06
9.64609e-06
6.88511e-07
6.886e-07
6.88589e-07
6.89233e-07
6.89239e-07
6.89326e-07
6.89325e-07
2.29343e-06
3.65662e-06
9.46761e-07
1.19145e-06
2.29439e-06
3.65597e-06
9.4652e-07
1.92497e-05
1.92571e-05
2.29335e-06
9.46805e-07
3.65663e-06
1.19151e-06
2.29433e-06
9.46562e-07
3.65603e-06
5.67625e-06
5.6782e-06
1.42384e-06
5.67627e-06
5.67823e-06
4.2488e-06
9.64765e-06
4.24928e-06
9.65002e-06
1.92631e-05
1.92702e-05
4.24894e-06
9.64971e-06
4.24937e-06
9.65208e-06
6.89521e-07
6.89608e-07
6.89601e-07
6.89956e-07
6.89963e-07
6.90049e-07
6.90046e-07
2.29173e-06
3.65635e-06
9.45883e-07
1.19002e-06
2.29281e-06
3.65559e-06
9.45519e-07
1.92639e-05
1.92711e-05
2.29165e-06
9.45925e-07
3.65636e-06
1.19008e-06
2.29274e-06
9.45559e-07
3.65565e-06
5.67783e-06
5.67978e-06
1.42285e-06
5.67771e-06
5.67968e-06
4.24844e-06
9.65328e-06
4.249e-06
9.65545e-06
1.92764e-05
1.92833e-05
4.24858e-06
9.65536e-06
4.24909e-06
9.65754e-06
6.90136e-07
6.9022e-07
6.90216e-07
6.9032e-07
6.90327e-07
6.90413e-07
6.90408e-07
2.28982e-06
3.65583e-06
9.4465e-07
1.18828e-06
2.29099e-06
3.65497e-06
9.44175e-07
1.92772e-05
1.92842e-05
2.28974e-06
9.44691e-07
3.65584e-06
1.18834e-06
2.29092e-06
9.44212e-07
3.65502e-06
5.67915e-06
5.6811e-06
1.42181e-06
5.67888e-06
5.68085e-06
4.24788e-06
9.65834e-06
4.24852e-06
9.66035e-06
1.92888e-05
1.92956e-05
4.24802e-06
9.66045e-06
4.24861e-06
9.66247e-06
6.90384e-07
6.90465e-07
6.90464e-07
6.90326e-07
6.90334e-07
6.90416e-07
6.90415e-07
2.28773e-06
3.6551e-06
9.43092e-07
1.18626e-06
2.28896e-06
3.65411e-06
9.42513e-07
1.92896e-05
1.92965e-05
2.28763e-06
9.43131e-07
3.65511e-06
1.18631e-06
2.2889e-06
9.4255e-07
3.65417e-06
5.68023e-06
5.68218e-06
1.42036e-06
5.67979e-06
5.68175e-06
4.24713e-06
9.66285e-06
4.24785e-06
9.66476e-06
1.93003e-05
1.93071e-05
4.24728e-06
9.66497e-06
4.24794e-06
9.66689e-06
6.90303e-07
6.90384e-07
6.90384e-07
6.89999e-07
6.90008e-07
6.90096e-07
6.90088e-07
2.28545e-06
3.65415e-06
9.41235e-07
1.18397e-06
2.28672e-06
3.65302e-06
9.4056e-07
1.9301e-05
1.9308e-05
2.28532e-06
9.41273e-07
3.65417e-06
1.18403e-06
2.28668e-06
9.40597e-07
3.65308e-06
5.68109e-06
5.68304e-06
1.41858e-06
5.68042e-06
5.68238e-06
4.24619e-06
9.66687e-06
4.24699e-06
9.66869e-06
1.93107e-05
1.93179e-05
4.24634e-06
9.66901e-06
4.24708e-06
9.67083e-06
6.89937e-07
6.90004e-07
6.90015e-07
6.89378e-07
6.89388e-07
6.89481e-07
6.89468e-07
2.28296e-06
3.65302e-06
9.39115e-07
1.18144e-06
2.2843e-06
3.6517e-06
9.38337e-07
1.93115e-05
1.93188e-05
2.28283e-06
9.39141e-07
3.65303e-06
1.1815e-06
2.28427e-06
9.38383e-07
3.65175e-06
5.68175e-06
5.6837e-06
1.41654e-06
5.68075e-06
5.68271e-06
4.24507e-06
9.67033e-06
4.24594e-06
9.6721e-06
1.93202e-05
1.9328e-05
4.24522e-06
9.67247e-06
4.24604e-06
9.67425e-06
6.89273e-07
6.89339e-07
6.89351e-07
6.8849e-07
6.885e-07
6.88594e-07
6.88579e-07
2.28029e-06
3.65172e-06
9.36746e-07
1.17867e-06
2.28171e-06
3.65012e-06
9.35871e-07
1.9321e-05
1.9329e-05
2.28015e-06
9.36761e-07
3.65173e-06
1.17876e-06
2.28168e-06
9.35928e-07
3.65018e-06
5.68224e-06
5.68419e-06
1.41419e-06
5.68075e-06
5.68272e-06
4.2438e-06
9.67323e-06
4.24474e-06
9.67516e-06
1.93285e-05
1.93378e-05
4.24395e-06
9.67538e-06
4.24484e-06
9.6773e-06
6.88345e-07
6.88408e-07
6.88423e-07
6.87353e-07
6.87363e-07
6.8746e-07
6.87442e-07
2.27746e-06
3.65029e-06
9.34157e-07
1.17571e-06
2.27895e-06
3.64824e-06
9.33192e-07
1.93293e-05
1.93387e-05
2.27734e-06
9.3416e-07
3.65031e-06
1.17582e-06
2.27892e-06
9.3326e-07
3.6483e-06
5.6826e-06
5.68454e-06
1.41172e-06
5.68039e-06
5.68235e-06
4.24243e-06
9.6756e-06
4.24341e-06
9.67799e-06
1.93356e-05
1.93472e-05
4.24257e-06
9.67774e-06
4.24351e-06
9.68013e-06
6.87176e-07
6.87234e-07
6.87254e-07
6.85988e-07
6.85999e-07
6.86102e-07
6.86076e-07
2.27448e-06
3.64878e-06
9.31376e-07
1.17258e-06
2.27606e-06
3.64594e-06
9.30318e-07
1.93364e-05
1.93482e-05
2.27439e-06
9.31361e-07
3.6488e-06
1.17271e-06
2.27601e-06
9.30402e-07
3.646e-06
5.68289e-06
5.68483e-06
1.40909e-06
5.67961e-06
5.68157e-06
4.24111e-06
9.67743e-06
4.24205e-06
9.68096e-06
1.93414e-05
1.93567e-05
4.24125e-06
9.67952e-06
4.24215e-06
9.68303e-06
6.8579e-07
6.85839e-07
6.85867e-07
6.84416e-07
6.84425e-07
6.8454e-07
6.84506e-07
2.27134e-06
3.64727e-06
9.28431e-07
1.1693e-06
2.27305e-06
3.64295e-06
9.27274e-07
1.93423e-05
1.93576e-05
2.27128e-06
9.28392e-07
3.6473e-06
1.16945e-06
2.27299e-06
9.27383e-07
3.64301e-06
5.68311e-06
5.68506e-06
1.40632e-06
5.67835e-06
5.6803e-06
4.24018e-06
9.6787e-06
4.24089e-06
9.68466e-06
1.93463e-05
1.93663e-05
4.24032e-06
9.68072e-06
4.24098e-06
9.68667e-06
6.84207e-07
6.84245e-07
6.84283e-07
6.82293e-07
6.82325e-07
6.82427e-07
6.8238e-07
2.26788e-06
3.64642e-06
9.2535e-07
1.16583e-06
2.26992e-06
3.64002e-06
9.24018e-07
1.93472e-05
1.93672e-05
2.26784e-06
9.25281e-07
3.64654e-06
1.16596e-06
2.26987e-06
9.24152e-07
3.64018e-06
5.68317e-06
5.6851e-06
1.40337e-06
5.67747e-06
5.6794e-06
4.23569e-06
9.67808e-06
4.23985e-06
9.68556e-06
1.93496e-05
1.93686e-05
4.23581e-06
9.68013e-06
4.23994e-06
9.68748e-06
6.82163e-07
6.82203e-07
6.82272e-07
6.71635e-07
6.71653e-07
6.71653e-07
6.71675e-07
2.26038e-06
3.64898e-06
9.21615e-07
1.15924e-06
2.26648e-06
3.63476e-06
9.19788e-07
1.93507e-05
1.93696e-05
2.26034e-06
9.2168e-07
3.64911e-06
1.15931e-06
2.26645e-06
9.19822e-07
3.63484e-06
5.68574e-06
5.68767e-06
1.39729e-06
5.68204e-06
5.68387e-06
3.45796e-06
8.8945e-06
4.19198e-06
5.89953e-06
1.71507e-05
8.56779e-06
3.45808e-06
8.89605e-06
4.19228e-06
5.89763e-06
3.18864e-07
4.84037e-07
4.83999e-07
7.09954e-07
3.2539e-07
5.05511e-07
5.05481e-07
2.17759e-06
3.55379e-06
8.94484e-07
1.05432e-06
2.2286e-06
3.65094e-06
8.33806e-07
1.71509e-05
8.56712e-06
2.17724e-06
8.94485e-07
3.54953e-06
1.05429e-06
2.22843e-06
8.33796e-07
3.65084e-06
5.62062e-06
5.62269e-06
1.31066e-06
5.25749e-06
5.25821e-06
1.90917e-05
1.90942e-05
1.41725e-06
5.65046e-06
5.65237e-06
1.91024e-05
1.90924e-05
1.91049e-05
1.90948e-05
1.41935e-06
5.6525e-06
5.65441e-06
5.65153e-06
5.65343e-06
4.23894e-06
9.56686e-06
2.29544e-06
1.18665e-06
3.64719e-06
9.34985e-07
2.2955e-06
1.18667e-06
3.6477e-06
9.35022e-07
4.23952e-06
9.57104e-06
9.56654e-06
4.23999e-06
4.23963e-06
9.57239e-06
9.56751e-06
4.2401e-06
2.29589e-06
1.18731e-06
3.64828e-06
9.36775e-07
3.64795e-06
9.35914e-07
2.29604e-06
2.29596e-06
1.18733e-06
3.64881e-06
9.36812e-07
3.64848e-06
9.35951e-07
2.2961e-06
1.41716e-06
5.65223e-06
5.65048e-06
1.90911e-05
1.9104e-05
1.90939e-05
1.41934e-06
5.65427e-06
5.65252e-06
5.65333e-06
5.65168e-06
1.91018e-05
1.90916e-05
2.29559e-06
1.18657e-06
3.64792e-06
9.35072e-07
4.2389e-06
9.56708e-06
2.29551e-06
1.18669e-06
9.35073e-07
3.64774e-06
4.23965e-06
9.57307e-06
9.56858e-06
4.24015e-06
2.29604e-06
1.18723e-06
3.64902e-06
9.36864e-07
3.64873e-06
9.35982e-07
2.2962e-06
4.23955e-06
9.5726e-06
9.56774e-06
4.24005e-06
2.29596e-06
1.18735e-06
9.36865e-07
3.64885e-06
9.36003e-07
3.64856e-06
2.29611e-06
4.23899e-06
9.56687e-06
2.29547e-06
1.18671e-06
9.35062e-07
3.64729e-06
4.2389e-06
9.56676e-06
2.29602e-06
1.18724e-06
3.64846e-06
9.36836e-07
3.64816e-06
9.35976e-07
2.29612e-06
4.2397e-06
9.57239e-06
9.56752e-06
4.24014e-06
2.29592e-06
1.18737e-06
9.36854e-07
3.64839e-06
9.35994e-07
3.64805e-06
2.29607e-06
4.2396e-06
9.57228e-06
9.5674e-06
4.24005e-06
1.41724e-06
5.65227e-06
5.6506e-06
1.9093e-05
1.9105e-05
1.90948e-05
1.41941e-06
5.65431e-06
5.65264e-06
5.65346e-06
5.65166e-06
1.91037e-05
1.90936e-05
2.29555e-06
1.18662e-06
9.35111e-07
3.64791e-06
4.23892e-06
9.56706e-06
4.23896e-06
9.56759e-06
2.29595e-06
1.1873e-06
9.3689e-07
3.64851e-06
9.3603e-07
3.64817e-06
2.29611e-06
2.296e-06
1.18728e-06
9.36901e-07
3.64902e-06
9.36043e-07
3.64869e-06
2.29615e-06
4.2397e-06
9.57258e-06
9.56771e-06
4.24011e-06
4.23968e-06
9.57313e-06
9.56863e-06
4.24015e-06
1.90928e-05
1.90946e-05
1.41944e-06
5.65258e-06
5.65452e-06
5.65162e-06
5.65357e-06
1.91035e-05
1.90934e-05
1.91053e-05
1.90953e-05
1.9103e-05
1.91129e-05
1.91054e-05
1.91154e-05
5.65354e-06
5.65544e-06
1.41955e-06
5.65446e-06
5.65637e-06
1.91233e-05
1.91135e-05
1.91257e-05
1.91159e-05
1.4216e-06
5.65635e-06
5.65826e-06
5.65548e-06
5.65738e-06
4.24118e-06
9.57302e-06
4.24076e-06
9.57778e-06
2.29655e-06
3.64903e-06
9.3763e-07
1.18903e-06
2.29647e-06
3.64931e-06
9.38413e-07
2.29662e-06
3.64956e-06
9.37667e-07
1.18905e-06
2.29653e-06
3.64983e-06
9.38451e-07
4.24171e-06
9.58167e-06
9.57738e-06
4.24208e-06
4.24182e-06
9.58303e-06
9.57838e-06
4.24219e-06
2.29695e-06
1.18956e-06
3.65025e-06
9.399e-07
3.65003e-06
9.39194e-07
2.29699e-06
2.29702e-06
1.18959e-06
3.65078e-06
9.39937e-07
3.65056e-06
9.39232e-07
2.29706e-06
5.65534e-06
5.6537e-06
1.41949e-06
5.65624e-06
5.65449e-06
1.91023e-05
1.91123e-05
1.91249e-05
1.91151e-05
1.42156e-06
5.65814e-06
5.65638e-06
5.65728e-06
5.65564e-06
1.91227e-05
1.91128e-05
2.29671e-06
3.64981e-06
9.37699e-07
1.18894e-06
2.29662e-06
3.65005e-06
9.38503e-07
4.24113e-06
9.57324e-06
4.24068e-06
9.57799e-06
2.29663e-06
9.3772e-07
3.64964e-06
1.18907e-06
2.29654e-06
9.38504e-07
3.64987e-06
4.24183e-06
9.58371e-06
9.57943e-06
4.24224e-06
2.29711e-06
1.18948e-06
3.65099e-06
9.3999e-07
3.65081e-06
9.39264e-07
2.29712e-06
4.24174e-06
9.58324e-06
9.57861e-06
4.24215e-06
2.29703e-06
1.18961e-06
9.39992e-07
3.65082e-06
9.39286e-07
3.65065e-06
2.29706e-06
4.24122e-06
9.57302e-06
4.24083e-06
9.57778e-06
2.29659e-06
9.37711e-07
3.64914e-06
1.18909e-06
2.2965e-06
9.38492e-07
3.64941e-06
4.24113e-06
9.57291e-06
4.24073e-06
9.57767e-06
2.29706e-06
1.18949e-06
3.65042e-06
9.3996e-07
3.65025e-06
9.39256e-07
2.29709e-06
4.24189e-06
9.58303e-06
9.57838e-06
4.24223e-06
2.29698e-06
1.18962e-06
9.39978e-07
3.65036e-06
9.39275e-07
3.65014e-06
2.29702e-06
4.24178e-06
9.58292e-06
9.57827e-06
4.24214e-06
5.65548e-06
5.65368e-06
1.41957e-06
5.65627e-06
5.65461e-06
1.91043e-05
1.91142e-05
1.91259e-05
1.9116e-05
1.42164e-06
5.65817e-06
5.65649e-06
5.65742e-06
5.65562e-06
1.91246e-05
1.91148e-05
2.29667e-06
9.37759e-07
3.64977e-06
1.189e-06
2.29658e-06
9.3854e-07
3.65004e-06
4.2412e-06
9.57321e-06
4.24085e-06
9.57796e-06
4.24125e-06
9.5741e-06
4.24084e-06
9.57851e-06
2.29702e-06
1.18955e-06
9.40013e-07
3.65047e-06
9.3931e-07
3.65025e-06
2.29704e-06
2.29706e-06
1.18953e-06
9.40027e-07
3.65099e-06
9.39324e-07
3.65078e-06
2.2971e-06
4.24191e-06
9.58321e-06
9.57857e-06
4.24221e-06
4.2419e-06
9.58377e-06
9.57948e-06
4.24225e-06
1.91041e-05
1.9114e-05
1.9106e-05
1.91159e-05
1.42167e-06
5.65643e-06
5.65839e-06
5.65558e-06
5.65752e-06
1.91244e-05
1.91146e-05
1.91262e-05
1.91164e-05
1.91238e-05
1.91334e-05
1.91262e-05
1.91359e-05
5.65735e-06
5.65925e-06
1.42144e-06
5.65817e-06
5.66007e-06
1.91434e-05
1.91339e-05
1.91458e-05
1.91364e-05
1.42343e-06
5.65992e-06
5.66182e-06
5.65915e-06
5.66105e-06
4.24313e-06
9.58362e-06
4.24281e-06
9.58816e-06
2.29739e-06
3.65096e-06
9.40609e-07
1.1909e-06
2.29736e-06
3.65112e-06
9.41241e-07
2.29746e-06
3.6515e-06
9.40648e-07
1.19092e-06
2.29743e-06
3.65165e-06
9.41279e-07
4.24362e-06
9.59178e-06
9.58771e-06
4.2439e-06
4.24373e-06
9.59314e-06
9.58872e-06
4.24401e-06
2.29769e-06
1.19131e-06
3.65192e-06
9.42435e-07
3.65181e-06
9.4188e-07
2.29764e-06
2.29775e-06
1.19134e-06
3.65245e-06
9.42473e-07
3.65235e-06
9.41918e-07
2.29771e-06
5.65915e-06
5.65751e-06
1.42139e-06
5.65996e-06
5.65821e-06
1.91231e-05
1.91328e-05
1.9145e-05
1.91355e-05
1.42338e-06
5.66171e-06
5.65996e-06
5.66095e-06
5.6593e-06
1.91428e-05
1.91332e-05
2.29745e-06
3.65174e-06
9.4068e-07
1.19081e-06
2.29754e-06
3.65186e-06
9.41331e-07
4.24309e-06
9.58384e-06
4.24272e-06
9.58837e-06
2.2974e-06
9.40702e-07
3.65158e-06
1.19094e-06
2.29743e-06
9.41333e-07
3.65169e-06
4.24373e-06
9.5938e-06
9.58975e-06
4.24405e-06
2.29794e-06
1.19123e-06
3.65265e-06
9.42525e-07
3.65259e-06
9.41951e-07
2.29767e-06
4.24364e-06
9.59335e-06
9.58894e-06
4.24396e-06
2.29778e-06
1.19136e-06
9.42529e-07
3.65248e-06
9.41973e-07
3.65243e-06
2.2976e-06
4.24317e-06
9.58361e-06
4.24287e-06
9.58815e-06
2.29741e-06
9.4069e-07
3.65107e-06
1.19096e-06
2.29738e-06
9.41319e-07
3.65123e-06
4.24308e-06
9.58351e-06
4.24277e-06
9.58805e-06
2.29778e-06
1.19124e-06
3.65209e-06
9.42494e-07
3.65203e-06
9.4194e-07
2.29773e-06
4.24379e-06
9.59313e-06
9.58871e-06
4.24405e-06
2.29771e-06
1.19137e-06
9.42514e-07
3.65202e-06
9.41961e-07
3.65193e-06
2.29767e-06
4.24369e-06
9.59303e-06
9.58861e-06
4.24396e-06
5.65929e-06
5.65749e-06
1.42147e-06
5.65999e-06
5.65831e-06
1.91251e-05
1.91347e-05
1.9146e-05
1.91364e-05
1.42345e-06
5.66174e-06
5.66005e-06
5.66108e-06
5.65929e-06
1.91447e-05
1.91352e-05
2.29747e-06
9.4074e-07
3.65171e-06
1.19087e-06
2.29746e-06
9.41367e-07
3.65186e-06
4.24314e-06
9.58379e-06
4.24289e-06
9.58833e-06
4.24318e-06
9.5847e-06
4.24288e-06
9.58889e-06
2.29785e-06
1.1913e-06
9.42546e-07
3.65213e-06
9.41992e-07
3.65203e-06
2.29752e-06
2.29778e-06
1.19129e-06
9.42562e-07
3.65265e-06
9.4201e-07
3.65256e-06
2.29763e-06
4.2438e-06
9.5933e-06
9.58888e-06
4.244e-06
4.24379e-06
9.59388e-06
9.58981e-06
4.24405e-06
1.91249e-05
1.91345e-05
1.91267e-05
1.91364e-05
1.42348e-06
5.66e-06
5.66195e-06
5.65925e-06
5.66118e-06
1.91445e-05
1.9135e-05
1.91464e-05
1.91369e-05
1.91439e-05
1.91532e-05
1.91463e-05
1.91556e-05
5.66088e-06
5.66278e-06
1.42292e-06
5.66159e-06
5.66349e-06
1.91628e-05
1.91536e-05
1.91652e-05
1.9156e-05
1.42488e-06
5.6632e-06
5.6651e-06
5.66254e-06
5.66444e-06
4.2448e-06
9.59368e-06
4.24457e-06
9.598e-06
2.2978e-06
3.65259e-06
9.43007e-07
1.19228e-06
2.29788e-06
3.65264e-06
9.43491e-07
2.29786e-06
3.65313e-06
9.43046e-07
1.1923e-06
2.29795e-06
3.65317e-06
9.43529e-07
4.24524e-06
9.60135e-06
9.5975e-06
4.24541e-06
4.24535e-06
9.6027e-06
9.5985e-06
4.24553e-06
2.29802e-06
1.19258e-06
3.65329e-06
9.44407e-07
3.6533e-06
9.43996e-07
2.29785e-06
2.29809e-06
1.19261e-06
3.65382e-06
9.44446e-07
3.65384e-06
9.44034e-07
2.29791e-06
5.66268e-06
5.66103e-06
1.4229e-06
5.66338e-06
5.66163e-06
1.91432e-05
1.91526e-05
1.91644e-05
1.91552e-05
1.42479e-06
5.66499e-06
5.66324e-06
5.66434e-06
5.66268e-06
1.91622e-05
1.91529e-05
2.29783e-06
3.65336e-06
9.43078e-07
1.1922e-06
2.29814e-06
3.65337e-06
9.43581e-07
4.24475e-06
9.59389e-06
4.24448e-06
9.5982e-06
2.29775e-06
9.43101e-07
3.65321e-06
1.19233e-06
2.29806e-06
9.43585e-07
3.6532e-06
4.24535e-06
9.60336e-06
9.59953e-06
4.24556e-06
2.29827e-06
1.1925e-06
3.65402e-06
9.44496e-07
3.65407e-06
9.44066e-07
2.29787e-06
4.24525e-06
9.6029e-06
9.59872e-06
4.24547e-06
2.29819e-06
1.19263e-06
9.44501e-07
3.65385e-06
9.4409e-07
3.65391e-06
2.29779e-06
4.24485e-06
9.59367e-06
4.24463e-06
9.59799e-06
2.29783e-06
9.43088e-07
3.65271e-06
1.19234e-06
2.29791e-06
9.4357e-07
3.65274e-06
4.24476e-06
9.59357e-06
4.24454e-06
9.59788e-06
2.29809e-06
1.19251e-06
3.65346e-06
9.44465e-07
3.65351e-06
9.44055e-07
2.29792e-06
4.2454e-06
9.60269e-06
9.5985e-06
4.24557e-06
2.29805e-06
1.19264e-06
9.44486e-07
3.65339e-06
9.44076e-07
3.65341e-06
2.29788e-06
4.24531e-06
9.60259e-06
9.59839e-06
4.24548e-06
5.66281e-06
5.66101e-06
1.42295e-06
5.66341e-06
5.66172e-06
1.91451e-05
1.91544e-05
1.91654e-05
1.91561e-05
1.4249e-06
5.66502e-06
5.66332e-06
5.66446e-06
5.66267e-06
1.9164e-05
1.91548e-05
2.29777e-06
9.43137e-07
3.65334e-06
1.19225e-06
2.2981e-06
9.43616e-07
3.65338e-06
4.24478e-06
9.59384e-06
4.24463e-06
9.59815e-06
4.24488e-06
9.59477e-06
4.24471e-06
9.59873e-06
2.29816e-06
1.19257e-06
9.44515e-07
3.6535e-06
9.44105e-07
3.65351e-06
2.29771e-06
2.29823e-06
1.19256e-06
9.44532e-07
3.65403e-06
9.44125e-07
3.65405e-06
2.2978e-06
4.24539e-06
9.60285e-06
9.59866e-06
4.2455e-06
4.2455e-06
9.60344e-06
9.5996e-06
4.2456e-06
1.9145e-05
1.91543e-05
1.91468e-05
1.91561e-05
1.42495e-06
5.66328e-06
5.66524e-06
5.66264e-06
5.66458e-06
1.91639e-05
1.91547e-05
1.91657e-05
1.91566e-05
1.91632e-05
1.91721e-05
1.91656e-05
1.91746e-05
5.66413e-06
5.66603e-06
1.42387e-06
5.66474e-06
5.66663e-06
1.91813e-05
1.91725e-05
1.91838e-05
1.91749e-05
1.42615e-06
5.6662e-06
5.6681e-06
5.66565e-06
5.66755e-06
4.24618e-06
9.60319e-06
4.24606e-06
9.60728e-06
2.29784e-06
3.65393e-06
9.44848e-07
1.1932e-06
2.29806e-06
3.65387e-06
9.45192e-07
2.29791e-06
3.65447e-06
9.44887e-07
1.19322e-06
2.29813e-06
3.65439e-06
9.4523e-07
4.24659e-06
9.61037e-06
9.60674e-06
4.24666e-06
4.24669e-06
9.61171e-06
9.60774e-06
4.24676e-06
2.29803e-06
1.19339e-06
3.65437e-06
9.45845e-07
3.65449e-06
9.45569e-07
2.29773e-06
2.2981e-06
1.19341e-06
3.6549e-06
9.45882e-07
3.65503e-06
9.45607e-07
2.2978e-06
5.66592e-06
5.66427e-06
1.42411e-06
5.66652e-06
5.66477e-06
1.91625e-05
1.91715e-05
1.9183e-05
1.91741e-05
1.4258e-06
5.66798e-06
5.66623e-06
5.66744e-06
5.66578e-06
1.91807e-05
1.91718e-05
2.29786e-06
3.6547e-06
9.44919e-07
1.19312e-06
2.29831e-06
3.65459e-06
9.4528e-07
4.24612e-06
9.6034e-06
4.24596e-06
9.60748e-06
2.29779e-06
9.44942e-07
3.65454e-06
1.19325e-06
2.29823e-06
9.45285e-07
3.65442e-06
4.24668e-06
9.61237e-06
9.60876e-06
4.2468e-06
2.29828e-06
1.19331e-06
3.6551e-06
9.45932e-07
3.65526e-06
9.4564e-07
2.29775e-06
4.24659e-06
9.61191e-06
9.60795e-06
4.2467e-06
2.2982e-06
1.19344e-06
9.45937e-07
3.65492e-06
9.45662e-07
3.6551e-06
2.29766e-06
4.24622e-06
9.60318e-06
4.24611e-06
9.60727e-06
2.29788e-06
9.44929e-07
3.65404e-06
1.19326e-06
2.29809e-06
9.45271e-07
3.65397e-06
4.24613e-06
9.60307e-06
4.24602e-06
9.60716e-06
2.2981e-06
1.19331e-06
3.65453e-06
9.45902e-07
3.6547e-06
9.45628e-07
2.29781e-06
4.24674e-06
9.61169e-06
9.60773e-06
4.2468e-06
2.29806e-06
1.19345e-06
9.45923e-07
3.65447e-06
9.45649e-07
3.6546e-06
2.29777e-06
4.24665e-06
9.61159e-06
9.60762e-06
4.24671e-06
5.66604e-06
5.66425e-06
1.4242e-06
5.66654e-06
5.66485e-06
1.91644e-05
1.91734e-05
1.91839e-05
1.9175e-05
1.42587e-06
5.668e-06
5.66631e-06
5.66756e-06
5.66577e-06
1.91826e-05
1.91737e-05
2.29779e-06
9.44975e-07
3.65468e-06
1.19317e-06
2.29826e-06
9.45315e-07
3.6546e-06
4.24615e-06
9.60334e-06
4.24609e-06
9.60743e-06
4.24625e-06
9.60428e-06
4.2462e-06
9.60801e-06
2.29815e-06
1.19337e-06
9.45949e-07
3.65457e-06
9.45676e-07
3.6547e-06
2.29757e-06
2.29823e-06
1.19336e-06
9.45967e-07
3.65511e-06
9.45695e-07
3.65524e-06
2.29767e-06
4.24673e-06
9.61185e-06
9.60789e-06
4.24673e-06
4.24683e-06
9.61245e-06
9.60884e-06
4.24682e-06
1.91643e-05
1.91732e-05
1.91661e-05
1.91751e-05
1.42622e-06
5.66627e-06
5.66823e-06
5.66575e-06
5.66768e-06
1.91824e-05
1.91736e-05
1.91843e-05
1.91755e-05
1.91817e-05
1.91903e-05
1.91841e-05
1.91927e-05
5.6671e-06
5.66899e-06
1.42457e-06
5.66759e-06
5.66949e-06
1.91991e-05
1.91906e-05
1.92015e-05
1.9193e-05
1.42679e-06
5.66891e-06
5.67081e-06
5.66847e-06
5.67037e-06
4.24728e-06
9.61215e-06
4.24726e-06
9.61601e-06
2.29757e-06
3.65498e-06
9.46161e-07
1.19368e-06
2.29791e-06
3.6548e-06
9.46374e-07
2.29763e-06
3.65552e-06
9.46199e-07
1.1937e-06
2.29797e-06
3.65533e-06
9.46411e-07
4.24766e-06
9.61882e-06
9.61543e-06
4.24763e-06
4.24776e-06
9.62017e-06
9.61642e-06
4.24773e-06
2.29772e-06
1.19375e-06
3.65517e-06
9.46778e-07
3.6554e-06
9.46628e-07
2.2973e-06
2.29779e-06
1.19377e-06
3.6557e-06
9.46816e-07
3.65594e-06
9.46665e-07
2.29736e-06
5.66889e-06
5.66722e-06
1.4248e-06