/*--------------------------------*- C++ -*----------------------------------*\
| =========                 |                                                 |
| \\      /  F ield         | OpenFOAM: The Open Source CFD Toolbox           |
|  \\    /   O peration     | Version:  v1906                                 |
|   \\  /    A nd           | Web:      www.OpenFOAM.com                      |
|    \\/     M anipulation  |                                                 |
\*---------------------------------------------------------------------------*/
FoamFile
{
    version     2.0;
    format      ascii;
    class       volScalarField;
    location    "700";
    object      nut;
}
// * * * * * * * * * * * * * * * * * * * * * * * * * * * * * * * * * * * * * //

dimensions      [0 2 -1 0 0 0 0];


internalField   nonuniform List<scalar> 
43024
(
0.000208341
0.000201474
0.000201467
0.000182435
0.000210638
0.000202717
0.00020271
0.000183272
0.000212827
0.000203882
0.000203875
0.000184057
0.000214906
0.00020497
0.000204963
0.000184749
0.000216876
0.000205983
0.000205975
0.00018539
0.000218736
0.000206922
0.000206914
0.00018599
0.000220487
0.00020778
0.000207773
0.000186534
0.000222131
0.000208567
0.000208558
0.000187024
0.000223669
0.000209281
0.000209272
0.00018746
0.000225104
0.000209925
0.000209915
0.000187844
0.00022644
0.000210499
0.000210488
0.000188176
0.000227677
0.000211007
0.000210996
0.000188563
0.000228812
0.000211448
0.000211437
0.000188793
0.000229839
0.000211835
0.000211825
0.00018897
0.000230772
0.000212163
0.000212158
0.000189091
0.000231615
0.000212435
0.000212433
0.000189178
0.000232372
0.000212651
0.000212654
0.000189251
0.000233043
0.000212814
0.000212823
0.000189285
0.000233621
0.000212937
0.000212941
0.000189284
0.000234123
0.00021291
0.000212904
0.000189244
0.000236311
0.000214333
0.000214284
0.000192703
0.000182375
0.000201118
0.000201116
0.000182442
0.000201134
0.000201107
0.000201148
0.000201124
0.000182431
0.000201141
0.000201139
0.000182437
0.000182478
0.000183253
0.000201443
0.000201442
0.000202379
0.000202378
0.000182442
0.000183268
0.00020146
0.000201432
0.000202395
0.000202368
0.00020145
0.00020241
0.000202385
0.000182432
0.000183256
0.000201465
0.000202403
0.0002024
0.000183258
0.000183292
0.000184041
0.000202686
0.000202685
0.000203561
0.000203561
0.000183293
0.00018405
0.000202702
0.000202675
0.000203577
0.00020355
0.000202692
0.000203593
0.000203567
0.000183283
0.000184039
0.000202708
0.000203585
0.000203583
0.000184048
0.000184058
0.000184779
0.000203851
0.00020385
0.000204666
0.000204665
0.000184067
0.00018476
0.000203867
0.00020384
0.000204682
0.000204654
0.000203858
0.000204697
0.000204672
0.000184056
0.000184761
0.000203874
0.00020469
0.000204688
0.000184786
0.000184752
0.000185458
0.000204939
0.000204938
0.000205693
0.000205691
0.000184785
0.000185424
0.000204956
0.000204928
0.000205709
0.000205681
0.000204946
0.000205724
0.000205699
0.000184769
0.000185412
0.000204962
0.000205716
0.000205715
0.00018546
0.000185394
0.00018607
0.000205952
0.00020595
0.000206642
0.000206641
0.000185442
0.000186038
0.000205969
0.00020594
0.000206659
0.00020663
0.000205958
0.000206674
0.000206648
0.00018543
0.000186025
0.000205975
0.000206666
0.000206665
0.000186073
0.000185993
0.000186628
0.000206891
0.000206889
0.000207522
0.00020752
0.000186039
0.000186597
0.000206909
0.000206878
0.000207538
0.00020751
0.000206897
0.000207554
0.000207528
0.000186027
0.000186584
0.000206914
0.000207545
0.000207545
0.000186631
0.000186537
0.000187131
0.000207748
0.000207748
0.000208329
0.000208326
0.000186582
0.0001871
0.000207768
0.000207736
0.000208345
0.000208316
0.000207755
0.00020836
0.000208335
0.000186569
0.000187087
0.000207772
0.000208351
0.000208352
0.000187134
0.000187025
0.00018758
0.000208534
0.000208533
0.000209063
0.000209061
0.00018707
0.00018755
0.000208553
0.000208521
0.00020908
0.00020905
0.000208541
0.000209095
0.00020907
0.000187058
0.000187537
0.000208558
0.000209086
0.000209087
0.000187584
0.000187461
0.000187977
0.000209248
0.000209248
0.000209729
0.000209727
0.000187506
0.000187947
0.000209267
0.000209235
0.000209746
0.000209715
0.000209255
0.000209761
0.000209735
0.000187493
0.000187934
0.000209272
0.000209752
0.000209752
0.000187981
0.000187845
0.000188326
0.000209891
0.000209891
0.000210328
0.000210326
0.00018789
0.000188294
0.00020991
0.000209878
0.000210346
0.000210315
0.000209899
0.000210361
0.000210335
0.000187877
0.00018828
0.000209916
0.000210351
0.000210352
0.000188328
0.000188179
0.000188641
0.000210464
0.000210464
0.000210866
0.000210862
0.000188227
0.000188579
0.000210482
0.000210451
0.000210883
0.00021085
0.000210472
0.000210897
0.000210871
0.000188213
0.000188565
0.000210489
0.000210887
0.000210888
0.000188578
0.000188478
0.00018889
0.00021097
0.000210971
0.000211338
0.000211336
0.000188561
0.000188851
0.000210989
0.000210958
0.000211355
0.000211323
0.00021098
0.00021137
0.000211344
0.000188549
0.000188803
0.000210996
0.00021136
0.000211362
0.000188832
0.000188725
0.000189071
0.000211411
0.00021141
0.000211739
0.000211737
0.000188782
0.000189043
0.000211431
0.000211399
0.000211754
0.000211721
0.000211419
0.000211771
0.000211746
0.000188789
0.000189009
0.000211436
0.00021176
0.000211763
0.000189015
0.000188924
0.000189215
0.000211798
0.000211796
0.00021208
0.000212078
0.000188961
0.000189192
0.00021182
0.000211786
0.000212094
0.00021206
0.000211805
0.000212114
0.000212087
0.000188952
0.000189178
0.000211822
0.000212099
0.000212103
0.000189173
0.000189069
0.000189325
0.000212128
0.000212126
0.000212363
0.000212362
0.000189102
0.000189313
0.000212151
0.000212118
0.00021238
0.000212341
0.000212134
0.000212399
0.00021237
0.000189088
0.0001893
0.000212154
0.00021238
0.00021238
0.000189319
0.000189184
0.00018939
0.0002124
0.000212397
0.000212591
0.00021259
0.000189196
0.000189395
0.000212418
0.000212393
0.000212609
0.000212565
0.000212406
0.000212628
0.000212598
0.000189182
0.000189381
0.000212431
0.000212605
0.000212603
0.000189389
0.000189255
0.000189423
0.000212615
0.000212613
0.000212768
0.000212766
0.000189264
0.000189432
0.000212633
0.000212614
0.000212786
0.000212737
0.000212621
0.000212805
0.000212775
0.000189251
0.000189418
0.000212651
0.000212777
0.000212774
0.000189423
0.000189287
0.000189423
0.000212779
0.000212775
0.000212896
0.000212893
0.000189296
0.000189432
0.000212796
0.000212782
0.000212913
0.000212861
0.000212784
0.00021293
0.000212902
0.000189284
0.000189417
0.000212819
0.000212903
0.0002129
0.000189423
0.000189285
0.000189416
0.0002129
0.000212897
0.000213098
0.000213095
0.000189294
0.000189425
0.000212917
0.000212901
0.000213116
0.000213071
0.000212906
0.000213131
0.000213105
0.00018928
0.00018941
0.000212939
0.000213112
0.000213109
0.000189418
0.000189246
0.000190651
0.000212872
0.00021287
0.000215479
0.000215485
0.000189254
0.000190669
0.00021289
0.000212864
0.000215497
0.000215469
0.000212876
0.000215495
0.000215491
0.000189238
0.000190739
0.000212903
0.000215495
0.000215505
0.000190752
0.000192781
0.00021431
0.000214303
0.000192783
0.000214325
0.000214252
0.000236318
0.000236313
0.000236321
0.000214268
0.000192709
0.000214282
9.98305e-05
5.07443e-05
2.38927e-05
9.98428e-05
5.07413e-05
0.000207748
0.000207752
0.000207753
0.00020776
0.000144115
0.000200488
0.00010359
0.000210017
2.38905e-05
0.000144107
0.000200481
0.000210015
0.000103592
0.000181997
7.78982e-05
7.78985e-05
9.99332e-05
5.07532e-05
9.9883e-05
5.07635e-05
2.38974e-05
2.39016e-05
9.99451e-05
5.07501e-05
9.98894e-05
5.07605e-05
0.000208346
0.000208347
0.000208354
0.000210071
0.000210076
0.000210076
0.000210083
0.000144486
0.000103656
0.000211319
0.000201789
0.000144325
0.000103727
0.000211738
2.38953e-05
2.38994e-05
0.000144479
0.000211318
0.000103658
0.000201782
0.000144319
0.000211736
0.000103729
7.79314e-05
7.7929e-05
0.000182865
7.79516e-05
7.7951e-05
0.000100022
5.07719e-05
9.99783e-05
5.07819e-05
2.39061e-05
2.39101e-05
0.000100034
5.07688e-05
9.99844e-05
5.07788e-05
0.000210643
0.000210644
0.000210651
0.000212285
0.00021229
0.00021229
0.000212297
0.000144819
0.000103784
0.000212972
0.000203011
0.000144678
0.000103848
0.000213365
2.39039e-05
2.39079e-05
0.00014482
0.00021297
0.000103785
0.000203004
0.000144668
0.000213363
0.00010385
7.79789e-05
7.7979e-05
0.000183664
7.79996e-05
7.7997e-05
0.000100098
5.07897e-05
0.00010006
5.07992e-05
2.39145e-05
2.39183e-05
0.00010011
5.07866e-05
0.000100066
5.07962e-05
0.000212832
0.000212832
0.000212839
0.00021439
0.000214395
0.000214395
0.000214402
0.000145123
0.000103896
0.000214532
0.000204155
0.000144997
0.000103954
0.0002149
2.39123e-05
2.39161e-05
0.000145126
0.000214529
0.000103897
0.000204147
0.00014497
0.000214897
0.000103956
7.80207e-05
7.80209e-05
0.000184422
7.80393e-05
7.80368e-05
0.000100162
5.08065e-05
0.000100129
5.08156e-05
2.39225e-05
2.39262e-05
0.000100173
5.08033e-05
0.000100135
5.08125e-05
0.000214911
0.000214911
0.000214918
0.000216386
0.000216391
0.00021639
0.000216397
0.000145395
0.000103993
0.000216
0.00020522
0.000145284
0.000104045
0.000216343
2.39203e-05
2.3924e-05
0.0001454
0.000215997
0.000103995
0.000205212
0.000145256
0.00021634
0.000104047
7.80559e-05
7.80562e-05
0.000185141
7.80724e-05
7.807e-05
0.000100213
5.08223e-05
0.000100185
5.0831e-05
2.39302e-05
2.39337e-05
0.000100223
5.08191e-05
0.000100191
5.08279e-05
0.000216881
0.00021688
0.000216887
0.000218272
0.000218277
0.000218276
0.000218283
0.000145634
0.000104076
0.000217379
0.000206208
0.000145535
0.000104122
0.000217694
2.3928e-05
2.39316e-05
0.000145638
0.000217376
0.000104078
0.0002062
0.00014551
0.000217691
0.000104124
7.80855e-05
7.80851e-05
0.000185783
7.80976e-05
7.80967e-05
0.000100252
5.08371e-05
0.000100229
5.08454e-05
2.39375e-05
2.3941e-05
0.000100261
5.08339e-05
0.000100235
5.08423e-05
0.000218741
0.000218739
0.000218747
0.00022005
0.000220055
0.000220053
0.00022006
0.00014585
0.000104145
0.000218668
0.000207123
0.000145749
0.000104185
0.000218955
2.39353e-05
2.39388e-05
0.000145842
0.000218665
0.000104147
0.000207115
0.000145732
0.000218952
0.000104187
7.81087e-05
7.81077e-05
0.000186368
7.81182e-05
7.8118e-05
0.00010028
5.08509e-05
0.00010026
5.08589e-05
2.39446e-05
2.39478e-05
0.000100288
5.08478e-05
0.000100268
5.08557e-05
0.000220492
0.00022049
0.000220497
0.000221719
0.000221724
0.000221721
0.000221729
0.000146023
0.000104201
0.00021987
0.000207967
0.000145932
0.000104234
0.000220125
2.39423e-05
2.39456e-05
0.000146014
0.000219867
0.000104202
0.000207957
0.000145924
0.000220123
0.000104236
7.81254e-05
7.81226e-05
0.000186898
7.81328e-05
7.81333e-05
0.000100296
5.08637e-05
0.00010028
5.08714e-05
2.39512e-05
2.39543e-05
0.000100304
5.08606e-05
0.000100288
5.08682e-05
0.000222136
0.000222133
0.000222141
0.00022328
0.000223285
0.000223282
0.00022329
0.000146174
0.000104243
0.000220983
0.000208736
0.000146089
0.000104271
0.000221215
2.39489e-05
2.39521e-05
0.000146165
0.00022098
0.000104245
0.000208728
0.000146081
0.000221212
0.000104273
7.81355e-05
7.81339e-05
0.000187374
7.81419e-05
7.81416e-05
0.000100302
5.08756e-05
0.000100289
5.08829e-05
2.39575e-05
2.39605e-05
0.000100309
5.08724e-05
0.000100297
5.08795e-05
0.000223675
0.000223671
0.000223679
0.000224734
0.000224739
0.000224736
0.000224745
0.000146295
0.000104273
0.000222006
0.000209436
0.000146219
0.000104295
0.000222221
2.39552e-05
2.39583e-05
0.000146285
0.000222002
0.000104274
0.000209427
0.000146209
0.000222217
0.000104297
7.81395e-05
7.81385e-05
0.000187796
7.81452e-05
7.81444e-05
0.000100298
5.08864e-05
0.000100289
5.08934e-05
2.39633e-05
2.39663e-05
0.000100306
5.0883e-05
0.000100297
5.08901e-05
0.00022511
0.000225106
0.000225114
0.000226082
0.000226087
0.000226083
0.000226093
0.000146389
0.000104289
0.000222944
0.000210069
0.000146322
0.000104307
0.000223144
2.39611e-05
2.3964e-05
0.000146378
0.00022294
0.00010429
0.000210059
0.000146311
0.00022314
0.000104308
7.81384e-05
7.81375e-05
0.000188168
7.81424e-05
7.81415e-05
0.000100286
5.08962e-05
0.00010028
5.09031e-05
2.39688e-05
2.39717e-05
0.000100293
5.08928e-05
0.000100288
5.08997e-05
0.000226446
0.000226442
0.000226449
0.000227326
0.000227332
0.000227326
0.000227337
0.000146457
0.000104294
0.0002238
0.000210637
0.000146398
0.000104307
0.000223989
2.39666e-05
2.39695e-05
0.000146446
0.000223794
0.000104296
0.000210627
0.000146387
0.000223983
0.000104308
7.81324e-05
7.81315e-05
0.000188448
7.81345e-05
7.81335e-05
0.000100265
5.09053e-05
0.000100262
5.09112e-05
2.3974e-05
2.39768e-05
0.000100272
5.0902e-05
0.00010027
5.09079e-05
0.000227683
0.000227679
0.000227685
0.000228477
0.000228483
0.000228477
0.000228488
0.000146497
0.000104288
0.000224571
0.000211141
0.000146453
0.000104296
0.000224757
2.39717e-05
2.39746e-05
0.000146487
0.000224565
0.000104289
0.000211131
0.000146442
0.000224751
0.000104297
7.81219e-05
7.8121e-05
0.000188706
7.81218e-05
7.81208e-05
0.000100235
5.09141e-05
0.000100236
5.09182e-05
2.39787e-05
2.39815e-05
0.000100243
5.09109e-05
0.000100244
5.09149e-05
0.000228818
0.000228813
0.00022882
0.000229538
0.000229544
0.000229535
0.000229548
0.000146514
0.00010427
0.000225264
0.000211578
0.000146481
0.000104274
0.000225449
2.39765e-05
2.39793e-05
0.000146506
0.000225257
0.000104272
0.000211567
0.000146468
0.000225442
0.000104275
7.81071e-05
7.81062e-05
0.000188932
7.81045e-05
7.81035e-05
0.000100196
5.09216e-05
0.000100201
5.09249e-05
2.39831e-05
2.3986e-05
0.000100206
5.09183e-05
0.000100208
5.09216e-05
0.000229845
0.000229844
0.000229848
0.00023051
0.000230518
0.000230506
0.00023052
0.000146509
0.000104242
0.000225879
0.000211949
0.000146482
0.000104242
0.000226061
2.39808e-05
2.39838e-05
0.000146501
0.000225875
0.000104244
0.000211937
0.000146469
0.000226052
0.000104243
7.80883e-05
7.80873e-05
0.000189094
7.80828e-05
7.80817e-05
0.00010015
5.09277e-05
0.000100157
5.09308e-05
2.3987e-05
2.39902e-05
0.000100159
5.09245e-05
0.000100164
5.09276e-05
0.000230777
0.000230776
0.00023078
0.000231394
0.000231404
0.000231388
0.000231407
0.000146482
0.000104206
0.000226421
0.000212264
0.000146458
0.000104201
0.000226592
2.39847e-05
2.3988e-05
0.000146475
0.000226419
0.000104208
0.000212247
0.000146444
0.00022658
0.000104202
7.80661e-05
7.80651e-05
0.000189262
7.80569e-05
7.80558e-05
0.000100096
5.09328e-05
0.000100103
5.09362e-05
2.39904e-05
2.39942e-05
0.000100104
5.09296e-05
0.000100111
5.09329e-05
0.000231617
0.00023162
0.00023162
0.000232189
0.000232203
0.000232182
0.000232204
0.000146428
0.000104164
0.000226904
0.00021252
0.000146411
0.000104151
0.000227054
2.39882e-05
2.39921e-05
0.000146417
0.000226905
0.000104166
0.0002125
0.0001464
0.000227039
0.000104152
7.80416e-05
7.80405e-05
0.000189358
7.80274e-05
7.80261e-05
0.000100032
5.0937e-05
0.00010004
5.09412e-05
2.39933e-05
2.39982e-05
0.00010004
5.09337e-05
0.000100048
5.09379e-05
0.000232371
0.000232379
0.000232374
0.000232904
0.000232913
0.000232895
0.000232915
0.000146352
0.000104118
0.000227319
0.000212722
0.000146348
0.000104093
0.00022745
2.39911e-05
2.3996e-05
0.000146344
0.000227324
0.00010412
0.000212698
0.00014634
0.000227431
0.000104094
7.80159e-05
7.80147e-05
0.00018941
7.79948e-05
7.79935e-05
9.99541e-05
5.09402e-05
9.99642e-05
5.09464e-05
2.39958e-05
2.40021e-05
9.99612e-05
5.09372e-05
9.99726e-05
5.09433e-05
0.000233046
0.000233052
0.000233048
0.000233529
0.000233535
0.000233516
0.000233536
0.000146245
0.000104078
0.000227668
0.000212872
0.000146281
0.000104031
0.000227783
2.39935e-05
2.39999e-05
0.000146236
0.00022768
0.00010408
0.000212845
0.000146272
0.000227759
0.000104033
7.79926e-05
7.79914e-05
0.000189427
7.79629e-05
7.79616e-05
9.98479e-05
5.09424e-05
9.9867e-05
5.09529e-05
2.39978e-05
2.4006e-05
9.98549e-05
5.09396e-05
9.98753e-05
5.095e-05
0.000233627
0.000233633
0.000233628
0.000234093
0.000234092
0.000234075
0.0002341
0.000146128
0.000104051
0.000227956
0.000212981
0.000146174
0.000103933
0.000228063
2.39956e-05
2.40038e-05
0.000146119
0.000227975
0.00010405
0.000212957
0.000146165
0.000228032
0.000103931
7.79796e-05
7.79787e-05
0.000189412
7.79262e-05
7.79252e-05
9.97602e-05
5.09464e-05
9.97242e-05
5.09869e-05
2.40015e-05
2.40209e-05
9.97658e-05
5.09431e-05
9.97314e-05
5.09843e-05
0.000234142
0.000234144
0.00023413
0.000233719
0.000233728
0.000233722
0.000233729
0.000146057
0.00010399
0.000228259
0.0002136
0.00014608
0.000103759
0.000228045
2.39992e-05
2.40188e-05
0.000146049
0.00022825
0.000103987
0.000213595
0.000146072
0.000228038
0.000103756
7.7923e-05
7.79221e-05
0.000189687
7.77109e-05
7.77114e-05
0.000108453
5.50865e-05
0.000100117
8.49894e-05
2.70397e-05
4.59537e-05
0.000108454
5.50834e-05
0.000100116
8.50853e-05
0.000251126
0.000243691
0.000243692
0.000235607
0.000250956
0.000244515
0.000244517
0.000149964
0.000105568
0.000232581
0.000213929
0.000147053
0.000108559
0.000231007
2.70376e-05
4.59649e-05
0.000149979
0.000232576
0.000105695
0.0002142
0.000147056
0.000230951
0.000108574
7.71836e-05
7.71785e-05
0.00019681
8.57759e-05
8.57897e-05
2.38934e-05
2.38921e-05
0.000181934
7.79024e-05
7.78969e-05
2.38979e-05
2.38936e-05
2.38965e-05
2.38923e-05
0.000182066
7.79296e-05
7.79241e-05
7.79053e-05
7.79029e-05
9.98341e-05
5.07426e-05
0.000144106
0.000200458
0.000103591
0.000210003
0.000144109
0.000200457
0.000103589
0.000210006
9.98305e-05
5.0754e-05
5.07435e-05
9.98839e-05
9.98341e-05
5.07523e-05
5.07463e-05
9.98873e-05
0.000144131
0.000200793
0.000103661
0.000210876
0.000103587
0.000210445
0.000144297
0.000144134
0.000200791
0.000103659
0.000210878
0.000103584
0.000210448
0.0001443
0.00018201
7.78979e-05
7.78939e-05
2.38932e-05
2.38972e-05
2.3893e-05
0.000181989
7.79254e-05
7.79212e-05
7.79019e-05
7.78995e-05
2.38977e-05
2.38936e-05
0.000144111
0.000200474
0.000103584
0.000210004
9.98388e-05
5.07349e-05
0.000144106
0.000200447
0.000210002
0.00010357
9.98367e-05
5.0751e-05
5.07404e-05
9.98964e-05
0.000144136
0.000200809
0.000103654
0.000210877
0.000103579
0.000210451
0.000144302
9.98325e-05
5.07447e-05
5.07388e-05
9.98918e-05
0.000144131
0.000200781
0.000210875
0.00010364
0.000210445
0.000103567
0.000144298
9.9838e-05
5.07416e-05
0.00014411
0.000200465
0.000210013
0.000103588
9.98323e-05
5.07381e-05
0.000144136
0.000200822
0.00010366
0.000210889
0.000103586
0.000210459
0.000144305
9.98311e-05
5.07515e-05
5.07456e-05
9.9891e-05
0.000144135
0.000200799
0.000210885
0.000103659
0.000210455
0.000103586
0.000144301
9.9832e-05
5.0748e-05
5.07421e-05
9.98856e-05
0.000181999
7.78824e-05
7.78998e-05
2.38925e-05
2.3895e-05
2.38908e-05
0.000181979
7.79096e-05
7.79273e-05
7.78881e-05
7.79063e-05
2.38969e-05
2.38928e-05
0.00014411
0.000200479
0.000210015
0.000103588
9.98299e-05
5.07382e-05
9.98359e-05
5.07406e-05
0.000144131
0.000200816
0.000210888
0.000103662
0.000210457
0.000103589
0.000144297
0.000144135
0.000200813
0.000210887
0.000103658
0.000210457
0.000103584
0.000144301
9.98277e-05
5.0748e-05
5.0742e-05
9.98814e-05
9.98351e-05
5.07503e-05
5.07398e-05
9.98874e-05
2.38921e-05
2.38918e-05
0.000181981
7.79257e-05
7.79259e-05
7.79046e-05
7.79019e-05
2.38966e-05
2.38925e-05
2.38963e-05
2.3892e-05
2.38981e-05
2.39022e-05
2.38968e-05
2.39009e-05
7.79326e-05
7.79297e-05
0.00018283
7.79554e-05
7.79498e-05
2.39065e-05
2.39024e-05
2.39052e-05
2.39011e-05
0.000182894
7.79794e-05
7.79739e-05
7.7958e-05
7.7955e-05
9.9937e-05
5.07559e-05
9.98863e-05
5.07618e-05
0.00014448
0.000103657
0.000211307
0.000201758
0.000144318
0.000103728
0.000211725
0.000144483
0.000103654
0.000211309
0.000201757
0.000144322
0.000103726
0.000211727
9.99318e-05
5.07728e-05
5.07628e-05
9.99798e-05
9.99354e-05
5.07711e-05
5.07654e-05
9.99831e-05
0.000144499
0.000202074
0.00010379
0.000212551
0.000103723
0.000212145
0.000144652
0.000144503
0.000202073
0.000103788
0.000212553
0.00010372
0.000212147
0.000144655
7.79288e-05
7.79263e-05
0.000182853
7.79513e-05
7.79469e-05
2.3898e-05
2.39021e-05
2.39059e-05
2.39018e-05
0.000182879
7.7974e-05
7.7971e-05
7.79542e-05
7.79516e-05
2.39064e-05
2.39024e-05
0.000144485
0.000103649
0.000211312
0.000201774
0.000144323
0.00010372
0.000211726
9.99413e-05
5.07483e-05
9.98851e-05
5.07542e-05
0.000144481
0.000211306
0.000103636
0.000201747
0.000144319
0.000211724
0.000103707
9.99381e-05
5.07698e-05
5.07597e-05
9.99921e-05
0.000144504
0.000202091
0.000103783
0.000212552
0.000103715
0.00021215
0.00014466
9.99343e-05
5.07635e-05
5.07579e-05
9.99875e-05
0.000144499
0.000202064
0.00021255
0.000103769
0.000212144
0.000103702
0.000144652
9.99404e-05
5.07551e-05
9.98838e-05
5.07609e-05
0.000144484
0.000211316
0.000103655
0.000201765
0.000144323
0.000211734
0.000103725
9.99353e-05
5.07515e-05
9.98842e-05
5.07574e-05
0.000144506
0.000202105
0.000103789
0.000212564
0.000103722
0.000212158
0.000144659
9.9933e-05
5.07702e-05
5.07647e-05
9.99867e-05
0.000144504
0.000202081
0.00021256
0.000103788
0.000212154
0.000103722
0.000144656
9.99333e-05
5.07668e-05
5.07611e-05
9.99814e-05
7.79149e-05
7.79331e-05
0.000182843
7.79354e-05
7.79532e-05
2.38972e-05
2.39013e-05
2.39037e-05
2.38996e-05
0.000182869
7.79594e-05
7.79774e-05
7.79402e-05
7.79583e-05
2.39056e-05
2.39016e-05
0.000144483
0.000211318
0.000103654
0.00020178
0.000144322
0.000211736
0.000103724
9.99296e-05
5.07515e-05
9.98783e-05
5.07574e-05
9.99358e-05
5.07497e-05
9.98858e-05
5.07599e-05
0.000144499
0.000202098
0.000212562
0.000103792
0.000212156
0.000103723
0.000144652
0.000144502
0.000202096
0.000212562
0.000103787
0.000212156
0.00010372
0.000144654
9.99262e-05
5.07668e-05
5.07611e-05
9.99746e-05
9.99337e-05
5.07692e-05
5.07591e-05
9.99807e-05
2.38969e-05
2.3901e-05
2.38964e-05
2.39006e-05
0.000182852
7.7977e-05
7.79745e-05
7.79564e-05
7.79548e-05
2.39053e-05
2.39013e-05
2.39049e-05
2.39008e-05
2.39067e-05
2.39108e-05
2.39054e-05
2.39094e-05
7.79815e-05
7.79784e-05
0.000183655
7.80019e-05
7.79962e-05
2.39149e-05
2.39109e-05
2.39136e-05
2.39096e-05
0.00018368
7.80226e-05
7.80169e-05
7.80033e-05
7.80002e-05
0.000100026
5.07746e-05
9.99816e-05
5.07801e-05
0.000144812
0.000103785
0.00021296
0.00020298
0.000144671
0.000103849
0.000213353
0.000144815
0.000103782
0.000212962
0.000202979
0.000144675
0.000103847
0.000213355
0.00010002
5.07906e-05
5.0781e-05
0.000100062
0.000100024
5.0789e-05
5.07837e-05
0.000100066
0.000144832
0.000203278
0.000103904
0.000214132
0.000103843
0.000213751
0.000144967
0.000144835
0.000203277
0.000103902
0.000214135
0.00010384
0.000213754
0.00014497
7.79784e-05
7.79751e-05
0.000183666
7.79966e-05
7.79932e-05
2.39067e-05
2.39106e-05
2.39142e-05
2.39103e-05
0.000183687
7.80173e-05
7.80139e-05
7.80004e-05
7.79969e-05
2.39148e-05
2.39109e-05
0.000144828
0.000103776
0.000212965
0.000202996
0.000144662
0.000103841
0.000213354
0.00010003
5.0767e-05
9.99803e-05
5.07725e-05
0.00014482
0.000212959
0.000103764
0.000202969
0.000144671
0.000213352
0.000103828
0.000100026
5.07876e-05
5.07779e-05
0.000100074
0.000144819
0.000203295
0.000103896
0.000214133
0.000103835
0.000213756
0.000144986
0.000100023
5.07814e-05
5.07761e-05
0.00010007
0.00014482
0.000203267
0.000214131
0.000103883
0.000213751
0.000103822
0.000144981
0.000100029
5.07738e-05
9.9979e-05
5.07792e-05
0.000144818
0.000212969
0.000103783
0.000202986
0.000144676
0.000213363
0.000103847
0.000100024
5.07703e-05
9.99795e-05
5.07758e-05
0.000144839
0.000203309
0.000103903
0.000214145
0.000103842
0.000213763
0.000144976
0.000100021
5.07881e-05
5.07829e-05
0.000100069
0.000144838
0.000203284
0.000214142
0.000103902
0.000213761
0.000103841
0.000144972
0.000100022
5.07846e-05
5.07793e-05
0.000100064
7.79637e-05
7.79817e-05
0.000183655
7.79816e-05
7.79997e-05
2.39059e-05
2.39098e-05
2.39121e-05
2.39082e-05
0.000183677
7.80022e-05
7.80203e-05
7.79854e-05
7.80034e-05
2.3914e-05
2.39101e-05
0.000144818
0.000212971
0.000103782
0.000203002
0.000144673
0.000213364
0.000103845
0.000100017
5.07703e-05
9.99712e-05
5.07757e-05
0.000100023
5.07684e-05
9.99786e-05
5.07782e-05
0.000144813
0.000203302
0.000214142
0.000103905
0.000213761
0.000103843
0.000144982
0.000144824
0.0002033
0.000214143
0.000103901
0.000213762
0.00010384
0.000144981
0.000100012
5.07846e-05
5.07793e-05
0.000100055
0.00010002
5.0787e-05
5.07773e-05
0.000100061
2.39056e-05
2.39096e-05
2.39051e-05
2.39091e-05
0.000183671
7.80202e-05
7.80177e-05
7.80008e-05
7.80009e-05
2.39137e-05
2.39098e-05
2.39133e-05
2.39094e-05
2.39151e-05
2.3919e-05
2.39138e-05
2.39177e-05
7.80235e-05
7.80202e-05
0.000184414
7.80417e-05
7.8036e-05
2.3923e-05
2.39191e-05
2.39216e-05
2.39178e-05
0.000184417
7.80591e-05
7.80535e-05
7.80419e-05
7.80387e-05
0.000100102
5.07924e-05
0.000100063
5.07975e-05
0.000145114
0.000103898
0.00021452
0.000204123
0.000144988
0.000103954
0.000214888
0.000145117
0.000103895
0.000214522
0.000204123
0.000144992
0.000103953
0.00021489
0.000100096
5.08075e-05
5.07983e-05
0.000100132
0.000100099
5.08058e-05
5.0801e-05
0.000100135
0.000145133
0.000204404
0.000104002
0.000215621
0.000103949
0.000215266
0.000145255
0.000145136
0.000204404
0.000103999
0.000215623
0.000103946
0.000215268
0.000145258
7.80205e-05
7.80171e-05
0.000184415
7.80364e-05
7.80326e-05
2.3915e-05
2.39188e-05
2.39223e-05
2.39185e-05
0.000184433
7.80538e-05
7.80501e-05
7.8039e-05
7.80355e-05
2.39228e-05
2.39191e-05
0.000145132
0.000103889
0.000214525
0.000204139
0.000144975
0.000103947
0.000214889
0.000100106
5.07848e-05
0.000100062
5.07899e-05
0.000145128
0.000214519
0.000103876
0.000204112
0.000144971
0.000214887
0.000103934
0.000100102
5.08045e-05
5.07951e-05
0.000100144
0.000145121
0.000204421
0.000103995
0.000215622
0.000103939
0.00021527
0.000145274
0.000100098
5.07982e-05
5.07934e-05
0.000100139
0.000145117
0.000204394
0.00021562
0.000103981
0.000215265
0.000103927
0.00014527
0.000100105
5.07916e-05
0.000100061
5.07966e-05
0.00014512
0.00021453
0.000103896
0.00020413
0.000144994
0.000214898
0.000103952
0.0001001
5.0788e-05
0.000100061
5.07931e-05
0.000145143
0.000204436
0.000104001
0.000215633
0.000103947
0.000215278
0.000145266
0.000100097
5.08049e-05
5.08002e-05
0.000100139
0.000145139
0.000204411
0.000215631
0.000104
0.000215275
0.000103946
0.000145261
0.000100097
5.08015e-05
5.07966e-05
0.000100134
7.80056e-05
7.80234e-05
0.000184409
7.8021e-05
7.80392e-05
2.39142e-05
2.39181e-05
2.39201e-05
2.39163e-05
0.000184416
7.80385e-05
7.80566e-05
7.8024e-05
7.80418e-05
2.3922e-05
2.39183e-05
0.000145128
0.000214531
0.000103895
0.000204146
0.000144972
0.000214898
0.000103952
0.000100091
5.0788e-05
0.000100051
5.07931e-05
0.000100095
5.07861e-05
0.000100056
5.07956e-05
0.000145116
0.000204428
0.00021563
0.000104003
0.000215275
0.000103948
0.000145271
0.000145117
0.000204427
0.000215631
0.000103999
0.000215276
0.000103945
0.000145269
0.000100086
5.08014e-05
5.07965e-05
0.000100124
0.00010009
5.08039e-05
5.07946e-05
0.000100127
2.39139e-05
2.39178e-05
2.39135e-05
2.39174e-05
0.000184415
7.80566e-05
7.80541e-05
7.80392e-05
7.80394e-05
2.39218e-05
2.3918e-05
2.39214e-05
2.39176e-05
2.39231e-05
2.39269e-05
2.39218e-05
2.39255e-05
7.80587e-05
7.80555e-05
0.000185134
7.8075e-05
7.80692e-05
2.39307e-05
2.3927e-05
2.39294e-05
2.39257e-05
0.000185071
7.80892e-05
7.80835e-05
7.80739e-05
7.80707e-05
0.000100165
5.08092e-05
0.000100132
5.08138e-05
0.000145385
0.000103995
0.000215989
0.000205189
0.000145273
0.000104046
0.000216331
0.000145388
0.000103993
0.00021599
0.000205188
0.000145276
0.000104043
0.000216333
0.000100158
5.08234e-05
5.08146e-05
0.00010019
0.000100161
5.08217e-05
5.08173e-05
0.000100193
0.000145401
0.000205455
0.000104086
0.000217018
0.000104039
0.000216689
0.00014551
0.000145404
0.000205454
0.000104084
0.00021702
0.000104037
0.000216691
0.000145513
7.80557e-05
7.80524e-05
0.000185095
7.80695e-05
7.80656e-05
2.3923e-05
2.39267e-05
2.393e-05
2.39264e-05
0.000185123
7.80838e-05
7.80799e-05
7.8071e-05
7.80675e-05
2.39306e-05
2.39269e-05
0.000145404
0.000103986
0.000215993
0.000205205
0.00014526
0.000104039
0.000216332
0.000100169
5.08016e-05
0.000100131
5.08062e-05
0.000145399
0.000215987
0.000103974
0.000205177
0.000145256
0.000216329
0.000104025
0.000100164
5.08203e-05
5.08114e-05
0.000100201
0.000145389
0.000205472
0.000104079
0.000217019
0.00010403
0.000216693
0.000145528
0.00010016
5.08141e-05
5.08097e-05
0.000100197
0.000145385
0.000205443
0.000217017
0.000104065
0.000216688
0.000104017
0.000145524
0.000100169
5.08084e-05
0.00010013
5.0813e-05
0.000145391
0.000215998
0.000103993
0.000205195
0.000145279
0.00021634
0.000104043
0.000100164
5.08048e-05
0.00010013
5.08095e-05
0.000145413
0.000205486
0.000104085
0.00021703
0.000104037
0.000216701
0.000145522
0.00010016
5.08208e-05
5.08164e-05
0.000100196
0.000145407
0.000205461
0.000217028
0.000104084
0.000216698
0.000104037
0.000145516
0.00010016
5.08174e-05
5.08129e-05
0.000100191
7.80408e-05
7.80585e-05
0.000185081
7.8054e-05
7.80723e-05
2.39223e-05
2.39259e-05
2.39278e-05
2.39242e-05
0.000185111
7.80683e-05
7.80865e-05
7.80559e-05
7.80737e-05
2.39298e-05
2.39262e-05
0.0001454
0.000215999
0.000103992
0.000205211
0.000145256
0.000216341
0.000104043
0.000100154
5.08047e-05
0.000100119
5.08094e-05
0.000100156
5.08029e-05
0.000100122
5.0812e-05
0.000145386
0.000205478
0.000217027
0.000104087
0.000216698
0.000104038
0.000145528
0.000145385
0.000205478
0.000217028
0.000104083
0.000216699
0.000104036
0.000145525
0.000100148
5.08173e-05
5.08128e-05
0.000100181
0.00010015
5.08198e-05
5.08109e-05
0.000100182
2.39219e-05
2.39257e-05
2.39215e-05
2.39253e-05
0.000185068
7.80848e-05
7.80841e-05
7.80711e-05
7.80715e-05
2.39295e-05
2.39258e-05
2.39291e-05
2.39254e-05
2.39308e-05
2.39345e-05
2.39295e-05
2.39331e-05
7.80875e-05
7.80844e-05
0.000185774
7.81018e-05
7.8096e-05
2.39381e-05
2.39345e-05
2.39367e-05
2.39332e-05
0.0001857
7.81129e-05
7.81071e-05
7.80995e-05
7.80964e-05
0.000100217
5.08249e-05
0.000100188
5.08292e-05
0.000145624
0.000104079
0.000217367
0.000206177
0.000145524
0.000104123
0.000217682
0.000145626
0.000104076
0.000217368
0.000206175
0.000145526
0.000104121
0.000217684
0.000100208
5.08383e-05
5.08299e-05
0.000100235
0.000100211
5.08366e-05
5.08326e-05
0.000100238
0.000145634
0.00020643
0.000104157
0.000218324
0.000104115
0.000218023
0.000145732
0.000145637
0.000206429
0.000104154
0.000218326
0.000104113
0.000218024
0.000145734
7.80846e-05
7.80812e-05
0.000185739
7.80964e-05