/*--------------------------------*- C++ -*----------------------------------*\
| =========                 |                                                 |
| \\      /  F ield         | OpenFOAM: The Open Source CFD Toolbox           |
|  \\    /   O peration     | Version:  v1906                                 |
|   \\  /    A nd           | Web:      www.OpenFOAM.com                      |
|    \\/     M anipulation  |                                                 |
\*---------------------------------------------------------------------------*/
FoamFile
{
    version     2.0;
    format      ascii;
    class       volScalarField;
    location    "700";
    object      p;
}
// * * * * * * * * * * * * * * * * * * * * * * * * * * * * * * * * * * * * * //

dimensions      [0 2 -2 0 0 0 0];


internalField   nonuniform List<scalar> 
43024
(
0.000710777
0.000710725
0.000710725
0.000712301
0.000675418
0.000675369
0.000675369
0.000676947
0.000640031
0.000639985
0.000639985
0.000641566
0.000604616
0.000604573
0.000604573
0.000606156
0.00056917
0.000569129
0.000569129
0.000570716
0.000533693
0.000533655
0.000533655
0.000535244
0.000498183
0.000498147
0.000498147
0.000499739
0.000462639
0.000462606
0.000462606
0.000464201
0.000427062
0.00042703
0.00042703
0.000428628
0.000391449
0.00039142
0.00039142
0.00039302
0.0003558
0.000355773
0.000355773
0.000357376
0.000320115
0.00032009
0.00032009
0.000321696
0.000284394
0.000284371
0.000284371
0.000285979
0.000248637
0.000248616
0.000248617
0.000250226
0.000212844
0.000212826
0.000212826
0.000214437
0.000177015
0.000176999
0.000176999
0.00017861
0.000141148
0.000141135
0.000141135
0.000142743
0.000105241
0.000105231
0.000105231
0.000106826
6.93038e-05
6.92877e-05
6.92861e-05
7.08368e-05
3.39082e-05
3.34553e-05
3.34516e-05
3.47048e-05
6.82496e-06
7.84903e-06
7.8445e-06
5.75185e-06
0.000717949
0.00071956
0.00071956
0.000717949
0.00071956
0.00071956
0.00071956
0.00071956
0.000717949
0.00071956
0.00071956
0.000717949
0.000712301
0.000682598
0.000710725
0.000710725
0.00068421
0.00068421
0.000712301
0.000682598
0.000710725
0.000710725
0.00068421
0.00068421
0.000710725
0.00068421
0.00068421
0.000712301
0.000682598
0.000710725
0.00068421
0.00068421
0.000682598
0.000676947
0.000647221
0.000675369
0.000675369
0.000648834
0.000648834
0.000676947
0.000647221
0.000675369
0.000675369
0.000648834
0.000648834
0.000675369
0.000648834
0.000648834
0.000676947
0.000647221
0.000675369
0.000648834
0.000648834
0.000647221
0.000641566
0.000611815
0.000639985
0.000639985
0.000613428
0.000613428
0.000641566
0.000611816
0.000639985
0.000639985
0.000613428
0.000613428
0.000639985
0.000613428
0.000613428
0.000641566
0.000611815
0.000639985
0.000613428
0.000613428
0.000611815
0.000606156
0.000576379
0.000604573
0.000604573
0.000577993
0.000577993
0.000606156
0.00057638
0.000604573
0.000604573
0.000577993
0.000577993
0.000604573
0.000577993
0.000577993
0.000606156
0.000576379
0.000604573
0.000577993
0.000577993
0.000576379
0.000570716
0.000540912
0.00056913
0.00056913
0.000542526
0.000542526
0.000570716
0.000540912
0.00056913
0.00056913
0.000542526
0.000542526
0.000569129
0.000542526
0.000542526
0.000570716
0.000540912
0.000569129
0.000542526
0.000542526
0.000540912
0.000535244
0.000505411
0.000533655
0.000533655
0.000507027
0.000507027
0.000535243
0.000505412
0.000533655
0.000533655
0.000507027
0.000507027
0.000533655
0.000507027
0.000507027
0.000535244
0.000505411
0.000533655
0.000507027
0.000507027
0.000505411
0.000499739
0.000469878
0.000498147
0.000498147
0.000471494
0.000471494
0.000499738
0.000469878
0.000498147
0.000498147
0.000471494
0.000471494
0.000498147
0.000471494
0.000471494
0.000499739
0.000469878
0.000498147
0.000471494
0.000471494
0.000469878
0.000464201
0.00043431
0.000462606
0.000462606
0.000435927
0.000435927
0.0004642
0.00043431
0.000462606
0.000462606
0.000435927
0.000435927
0.000462606
0.000435927
0.000435927
0.0004642
0.00043431
0.000462606
0.000435927
0.000435927
0.00043431
0.000428628
0.000398707
0.00042703
0.00042703
0.000400325
0.000400325
0.000428627
0.000398707
0.00042703
0.00042703
0.000400325
0.000400325
0.00042703
0.000400325
0.000400325
0.000428628
0.000398707
0.00042703
0.000400325
0.000400325
0.000398707
0.00039302
0.000363069
0.00039142
0.00039142
0.000364687
0.000364687
0.000393019
0.000363069
0.00039142
0.00039142
0.000364687
0.000364687
0.00039142
0.000364687
0.000364687
0.00039302
0.000363068
0.00039142
0.000364687
0.000364687
0.000363068
0.000357376
0.000327394
0.000355773
0.000355773
0.000329013
0.000329013
0.000357376
0.000327394
0.000355773
0.000355773
0.000329013
0.000329013
0.000355773
0.000329013
0.000329013
0.000357376
0.000327394
0.000355773
0.000329013
0.000329013
0.000327393
0.000321696
0.000291683
0.00032009
0.00032009
0.000293303
0.000293303
0.000321695
0.000291683
0.00032009
0.00032009
0.000293303
0.000293303
0.00032009
0.000293303
0.000293303
0.000321696
0.000291682
0.00032009
0.000293303
0.000293303
0.000291682
0.000285979
0.000255935
0.000284371
0.000284371
0.000257556
0.000257556
0.000285979
0.000255936
0.000284371
0.000284371
0.000257556
0.000257556
0.000284371
0.000257556
0.000257556
0.000285979
0.000255935
0.000284371
0.000257556
0.000257556
0.000255935
0.000250226
0.000220152
0.000248616
0.000248616
0.000221773
0.000221773
0.000250226
0.000220153
0.000248616
0.000248617
0.000221773
0.000221773
0.000248617
0.000221773
0.000221773
0.000250226
0.000220152
0.000248617
0.000221773
0.000221773
0.000220152
0.000214437
0.000184333
0.000212826
0.000212826
0.000185953
0.000185953
0.000214436
0.000184333
0.000212826
0.000212826
0.000185953
0.000185953
0.000212826
0.000185953
0.000185953
0.000214437
0.000184333
0.000212826
0.000185953
0.000185953
0.000184333
0.00017861
0.000148477
0.000176999
0.000176999
0.000150095
0.000150095
0.000178609
0.000148477
0.000176999
0.000176999
0.000150095
0.000150095
0.000176999
0.000150095
0.000150095
0.00017861
0.000148477
0.000176999
0.000150095
0.000150095
0.000148477
0.000142742
0.000112582
0.000141135
0.000141135
0.000114196
0.000114196
0.000142742
0.000112583
0.000141135
0.000141135
0.000114196
0.000114196
0.000141135
0.000114196
0.000114196
0.000142742
0.000112582
0.000141135
0.000114196
0.000114196
0.000112582
0.000106826
7.66452e-05
0.000105231
0.000105231
7.82526e-05
7.82528e-05
0.000106826
7.66459e-05
0.000105231
0.000105231
7.82524e-05
7.82516e-05
0.000105231
7.82528e-05
7.82518e-05
0.000106826
7.66441e-05
0.000105231
7.82517e-05
7.82519e-05
7.66442e-05
7.08373e-05
4.06725e-05
6.92875e-05
6.92875e-05
4.23094e-05
4.23104e-05
7.08372e-05
4.0675e-05
6.9287e-05
6.92859e-05
4.23078e-05
4.23058e-05
6.92864e-05
4.23094e-05
4.23063e-05
7.08366e-05
4.06696e-05
6.92865e-05
4.23058e-05
4.23052e-05
4.06695e-05
3.47091e-05
8.49814e-06
3.34569e-05
3.34575e-05
1.09455e-05
1.09476e-05
3.47099e-05
8.5008e-06
3.34547e-05
3.3452e-05
1.09458e-05
1.09396e-05
3.34522e-05
1.09461e-05
1.09386e-05
3.47056e-05
8.49354e-06
3.34509e-05
1.09405e-05
1.09417e-05
8.4938e-06
5.75471e-06
7.84819e-06
7.84944e-06
5.7576e-06
7.84871e-06
7.84283e-06
6.82588e-06
6.82338e-06
6.82235e-06
7.8411e-06
5.75256e-06
7.84389e-06
0.000735063
0.000735065
0.000735064
0.000735063
0.000735065
0.000719613
0.000719613
0.000719613
0.000719613
0.000735146
0.000737226
0.000735101
0.000737246
0.000735064
0.000735146
0.000737226
0.000737246
0.000735101
0.000735615
0.000735059
0.000735059
0.000699727
0.000712868
0.000712856
0.000699729
0.000712876
0.000699728
0.000699727
0.000712868
0.000712856
0.000699729
0.000710777
0.000710777
0.000710777
0.00068426
0.00068426
0.00068426
0.00068426
0.000699808
0.000712821
0.000710745
0.000701888
0.000712772
0.000699765
0.000701908
0.000712876
0.000699728
0.000699809
0.000710745
0.000712821
0.000701888
0.000712772
0.000701908
0.000699764
0.000712868
0.000712868
0.000700277
0.000699723
0.000699723
0.000664366
0.000677517
0.000677504
0.000664368
0.000677524
0.000664367
0.000664365
0.000677517
0.000677505
0.000664368
0.000675418
0.000675418
0.000675418
0.00064888
0.00064888
0.00064888
0.00064888
0.000664446
0.000677469
0.000675387
0.000666525
0.00067742
0.000664403
0.000666543
0.000677524
0.000664367
0.000664446
0.000675387
0.00067747
0.000666525
0.000677419
0.000666543
0.000664403
0.000677517
0.000677517
0.000664913
0.000664361
0.000664361
0.000628976
0.000642139
0.000642126
0.000628979
0.000642146
0.000628978
0.000628976
0.000642139
0.000642126
0.000628979
0.000640031
0.000640031
0.000640031
0.000613473
0.000613473
0.000613473
0.000613473
0.000629055
0.00064209
0.000640002
0.000631135
0.00064204
0.000629013
0.000631152
0.000642146
0.000628978
0.000629055
0.000640002
0.000642091
0.000631135
0.00064204
0.000631152
0.000629013
0.000642138
0.000642138
0.000629522
0.000628972
0.000628972
0.000593557
0.000606731
0.000606718
0.00059356
0.000606738
0.000593559
0.000593557
0.000606731
0.000606718
0.00059356
0.000604616
0.000604616
0.000604616
0.000578035
0.000578035
0.000578035
0.000578035
0.000593636
0.000606683
0.000604589
0.000595715
0.000606632
0.000593594
0.00059573
0.000606738
0.000593559
0.000593636
0.000604589
0.000606683
0.000595715
0.000606632
0.00059573
0.000593594
0.000606731
0.000606731
0.000594101
0.000593553
0.000593553
0.000558107
0.000571293
0.00057128
0.00055811
0.0005713
0.000558109
0.000558107
0.000571293
0.00057128
0.00055811
0.00056917
0.00056917
0.00056917
0.000542565
0.000542565
0.000542565
0.000542565
0.000558185
0.000571244
0.000569144
0.000560264
0.000571193
0.000558144
0.000560278
0.0005713
0.000558109
0.000558185
0.000569145
0.000571245
0.000560264
0.000571193
0.000560278
0.000558144
0.000571292
0.000571292
0.000558649
0.000558104
0.000558103
0.000522625
0.000535823
0.00053581
0.000522628
0.00053583
0.000522627
0.000522625
0.000535823
0.00053581
0.000522628
0.000533693
0.000533693
0.000533693
0.000507063
0.000507063
0.000507063
0.000507063
0.000522702
0.000535774
0.000533669
0.000524781
0.000535723
0.000522662
0.000524794
0.00053583
0.000522627
0.000522702
0.000533669
0.000535775
0.000524781
0.000535723
0.000524794
0.000522661
0.000535822
0.000535822
0.000523165
0.000522621
0.000522621
0.00048711
0.00050032
0.000500307
0.000487113
0.000500327
0.000487112
0.000487109
0.00050032
0.000500307
0.000487113
0.000498183
0.000498183
0.000498183
0.000471528
0.000471528
0.000471528
0.000471528
0.000487185
0.000500271
0.00049816
0.000489265
0.000500219
0.000487146
0.000489277
0.000500327
0.000487112
0.000487186
0.00049816
0.000500271
0.000489265
0.000500219
0.000489277
0.000487146
0.000500319
0.000500319
0.000487649
0.000487106
0.000487106
0.00045156
0.000464784
0.00046477
0.000451564
0.000464791
0.000451563
0.00045156
0.000464783
0.00046477
0.000451564
0.000462639
0.000462639
0.000462639
0.000435959
0.000435959
0.000435959
0.000435959
0.000451635
0.000464734
0.000462618
0.000453715
0.000464682
0.000451597
0.000453727
0.000464791
0.000451563
0.000451636
0.000462618
0.000464735
0.000453715
0.000464682
0.000453727
0.000451596
0.000464783
0.000464783
0.000452098
0.000451557
0.000451557
0.000415976
0.000429212
0.000429199
0.000415979
0.00042922
0.000415979
0.000415976
0.000429212
0.000429199
0.00041598
0.000427062
0.000427062
0.000427062
0.000400355
0.000400355
0.000400355
0.000400355
0.000416051
0.000429163
0.000427041
0.00041813
0.000429111
0.000416013
0.000418141
0.000429219
0.000415978
0.000416051
0.000427041
0.000429164
0.00041813
0.00042911
0.000418141
0.000416012
0.000429212
0.000429212
0.000416513
0.000415973
0.000415973
0.000380356
0.000393606
0.000393592
0.00038036
0.000393613
0.000380359
0.000380356
0.000393606
0.000393593
0.00038036
0.000391449
0.000391449
0.000391449
0.000364715
0.000364715
0.000364715
0.000364715
0.000380431
0.000393556
0.00039143
0.000382511
0.000393504
0.000380393
0.00038252
0.000393613
0.000380359
0.000380431
0.00039143
0.000393557
0.000382511
0.000393503
0.00038252
0.000380392
0.000393605
0.000393605
0.000380892
0.000380353
0.000380353
0.000344701
0.000357963
0.00035795
0.000344704
0.00035797
0.000344703
0.0003447
0.000357963
0.00035795
0.000344704
0.0003558
0.0003558
0.0003558
0.000329039
0.000329039
0.000329039
0.000329039
0.000344775
0.000357914
0.000355782
0.000346855
0.000357861
0.000344737
0.000346864
0.00035797
0.000344703
0.000344775
0.000355782
0.000357914
0.000346855
0.00035786
0.000346864
0.000344737
0.000357963
0.000357963
0.000345235
0.000344697
0.000344697
0.000309009
0.000322284
0.000322271
0.000309012
0.000322291
0.000309011
0.000309008
0.000322284
0.000322271
0.000309012
0.000320115
0.000320115
0.000320115
0.000293326
0.000293326
0.000293326
0.000293326
0.000309082
0.000322235
0.000320098
0.000311162
0.000322181
0.000309045
0.00031117
0.000322291
0.000309011
0.000309082
0.000320098
0.000322235
0.000311162
0.000322181
0.00031117
0.000309045
0.000322284
0.000322284
0.000309542
0.000309005
0.000309005
0.00027328
0.000286568
0.000286555
0.000273284
0.000286575
0.000273282
0.00027328
0.000286568
0.000286555
0.000273284
0.000284394
0.000284394
0.000284394
0.000257578
0.000257578
0.000257578
0.000257578
0.000273354
0.000286519
0.000284379
0.000275434
0.000286465
0.000273317
0.000275441
0.000286576
0.000273282
0.000273354
0.000284379
0.000286519
0.000275434
0.000286465
0.000275441
0.000273317
0.000286568
0.000286568
0.000273813
0.000273277
0.000273277
0.000237516
0.000250815
0.000250803
0.000237519
0.000250823
0.000237517
0.000237516
0.000250815
0.000250803
0.00023752
0.000248637
0.000248637
0.000248637
0.000221793
0.000221793
0.000221793
0.000221793
0.000237589
0.000250766
0.000248623
0.000239669
0.000250713
0.000237553
0.000239675
0.000250823
0.000237517
0.00023759
0.000248623
0.000250766
0.000239669
0.000250713
0.000239675
0.000237553
0.000250815
0.000250815
0.000238048
0.000237513
0.000237513
0.000201715
0.000215026
0.000215014
0.000201719
0.000215034
0.000201716
0.000201715
0.000215025
0.000215014
0.000201719
0.000212844
0.000212844
0.000212844
0.000185972
0.000185972
0.000185972
0.000185972
0.000201789
0.000214976
0.000212831
0.000203867
0.000214923
0.000201754
0.000203873
0.000215034
0.000201716
0.000201789
0.000212831
0.000214976
0.000203867
0.000214923
0.000203873
0.000201753
0.000215026
0.000215026
0.000202247
0.000201713
0.000201713
0.000165877
0.000179197
0.000179188
0.000165883
0.000179209
0.000165877
0.000165877
0.000179197
0.000179188
0.000165884
0.000177015
0.000177015
0.000177015
0.000150113
0.000150113
0.000150113
0.000150113
0.000165953
0.000179147
0.000177003
0.000168029
0.000179096
0.000165919
0.000168034
0.000179209
0.000165877
0.000165953
0.000177003
0.000179147
0.000168029
0.000179096
0.000168034
0.000165919
0.000179198
0.000179198
0.00016641
0.000165877
0.000165877
0.000129998
0.000143328
0.000143323
0.00013001
0.000143346
0.000129996
0.000129997
0.000143328
0.000143323
0.00013001
0.000141148
0.000141148
0.000141148
0.000114214
0.000114214
0.000114214
0.000114214
0.00013008
0.000143276
0.000141139
0.000132151
0.00014323
0.000130049
0.000132156
0.000143346
0.000129995
0.00013008
0.000141138
0.000143276
0.000132151
0.00014323
0.000132156
0.000130049
0.000143331
0.000143331
0.000130535
0.000130003
0.000130003
9.40708e-05
0.000107412
0.000107418
9.40978e-05
0.000107446
9.40536e-05
9.40699e-05
0.000107412
0.000107418
9.40971e-05
0.000105241
0.000105241
0.000105241
7.82725e-05
7.82726e-05
7.82717e-05
7.82719e-05
9.41683e-05
0.000107354
0.000105235
9.62302e-05
0.000107321
9.41482e-05
9.62343e-05
0.000107446
9.40525e-05
9.41677e-05
0.000105234
0.000107354
9.62296e-05
0.00010732
9.62339e-05
9.4147e-05
0.000107419
0.000107419
9.46182e-05
9.40803e-05
9.40797e-05
5.80769e-05
7.14324e-05
7.14588e-05
5.81171e-05
7.15317e-05
5.79707e-05
5.80749e-05
7.14324e-05
7.1458e-05
5.81159e-05
6.9304e-05
6.93028e-05
6.93031e-05
4.25202e-05
4.25211e-05
4.25181e-05
4.25179e-05
5.82033e-05
7.13534e-05
6.92929e-05
6.02675e-05
7.13541e-05
5.82019e-05
6.02814e-05
7.15242e-05
5.79673e-05
5.82012e-05
6.92915e-05
7.13512e-05
6.02652e-05
7.13531e-05
6.02799e-05
5.81996e-05
7.14383e-05
7.1436e-05
5.86571e-05
5.81104e-05
5.81084e-05
2.15709e-05
3.51771e-05
3.52712e-05
2.11769e-05
3.56031e-05
2.00918e-05
2.15585e-05
3.51698e-05
3.52655e-05
2.11717e-05
3.39091e-05
3.39045e-05
3.39046e-05
1.21193e-05
1.21194e-05
1.21145e-05
1.21141e-05
2.20976e-05
3.5035e-05
3.37023e-05
2.47499e-05
3.52306e-05
2.16456e-05
2.52494e-05
3.55867e-05
2.00978e-05
2.20977e-05
3.36995e-05
3.50287e-05
2.47452e-05
3.52295e-05
2.52456e-05
2.1643e-05
3.50693e-05
3.50692e-05
2.29107e-05
2.1464e-05
2.14626e-05
6.97983e-07
3.27855e-06
3.62942e-06
2.55385e-06
5.62305e-06
-1.8813e-06
7.01224e-07
3.25138e-06
3.60984e-06
2.5551e-06
1.95952e-06
7.70897e-06
7.70774e-06
7.73629e-06
8.0142e-06
4.39692e-06
4.39767e-06
2.96809e-06
2.65789e-06
7.22128e-06
2.45683e-06
5.31306e-06
6.76732e-06
-6.42038e-08
5.60565e-06
-1.87181e-06
2.97069e-06
7.22031e-06
2.65317e-06
2.45545e-06
5.30997e-06
-6.39936e-08
6.77195e-06
-3.53225e-07
-3.57253e-07
1.60333e-06
6.52455e-06
6.5364e-06
0.000735064
0.000735064
0.000735615
0.000735058
0.000735059
0.000717399
0.000730542
0.000717399
0.000730542
0.000729968
0.000717393
0.000717394
0.000730534
0.000730534
0.000735063
0.000735065
0.000735146
0.000737226
0.0007351
0.000737246
0.000735146
0.000737226
0.0007351
0.000737246
0.000730522
0.0007174
0.000730535
0.000717398
0.000730522
0.0007174
0.000730535
0.000717398
0.000730439
0.000728394
0.000717435
0.00071958
0.000730487
0.000728414
0.00071748
0.000730439
0.000728394
0.000717436
0.00071958
0.000730487
0.000728414
0.00071748
0.000735615
0.000735059
0.000735059
0.000735064
0.000717399
0.000730542
0.000729968
0.000717394
0.000717394
0.000730534
0.000730534
0.000717399
0.000730542
0.000735145
0.000737226
0.000735101
0.000737246
0.000735063
0.000735065
0.000735146
0.000737226
0.000737246
0.000735101
0.000730522
0.0007174
0.000730535
0.000717398
0.000730439
0.000728394
0.000717436
0.00071958
0.000730487
0.000728414
0.00071748
0.000730523
0.0007174
0.000730535
0.000717398
0.000730439
0.000728394
0.00071958
0.000717436
0.000728414
0.000730487
0.00071748
0.000735063
0.000735065
0.000735145
0.000737226
0.000737246
0.000735101
0.000735063
0.000735065
0.000730439
0.000728394
0.000717436
0.00071958
0.000730487
0.000728414
0.00071748
0.000730522
0.0007174
0.000730535
0.000717398
0.000730439
0.000728394
0.00071958
0.000717435
0.000728414
0.000730487
0.00071748
0.000730522
0.0007174
0.000730535
0.000717398
0.000735615
0.000735059
0.000735059
0.000735064
0.000717399
0.000730542
0.000729969
0.000717394
0.000717394
0.000730534
0.000730534
0.000717399
0.000730542
0.000735146
0.000737226
0.000737246
0.000735101
0.000735064
0.000735065
0.000735064
0.000735065
0.000730439
0.000728394
0.00071958
0.000717436
0.000728414
0.000730488
0.00071748
0.000730439
0.000728394
0.00071958
0.000717436
0.000728414
0.000730487
0.00071748
0.000730522
0.0007174
0.000730535
0.000717399
0.000730522
0.0007174
0.000730535
0.000717399
0.000735064
0.000735064
0.000729969
0.000717394
0.000717394
0.000730534
0.000730534
0.000717399
0.000730542
0.000717399
0.000730542
0.000712876
0.000699728
0.000712876
0.000699728
0.000712868
0.000712868
0.000700277
0.000699723
0.000699723
0.000682051
0.000695203
0.000682051
0.000695203
0.000694627
0.000682045
0.000682045
0.000695196
0.000695196
0.000699727
0.000712868
0.000712856
0.000699729
0.000699808
0.000712821
0.000710745
0.000701888
0.000712772
0.000699764
0.000701908
0.000699809
0.000712821
0.000710745
0.000701888
0.000712772
0.000699764
0.000701908
0.000695183
0.000682052
0.000695196
0.00068205
0.000695183
0.000682052
0.000695196
0.00068205
0.000695099
0.00069305
0.000682087
0.000684229
0.000695148
0.000693069
0.000682131
0.000695099
0.00069305
0.000682087
0.000684229
0.000695148
0.000693069
0.000682131
0.000712868
0.000712868
0.000700277
0.000699723
0.000699723
0.000712876
0.000699728
0.000682051
0.000695203
0.000694627
0.000682046
0.000682046
0.000695195
0.000695195
0.000682051
0.000695203
0.000699808
0.00071282
0.000710745
0.000701888
0.000712772
0.000699765
0.000701908
0.000699727
0.000712868
0.000712856
0.00069973
0.000699808
0.000710745
0.00071282
0.000701888
0.000712772
0.000701908
0.000699765
0.000695184
0.000682052
0.000695196
0.00068205
0.000695099
0.00069305
0.000682087
0.000684229
0.000695148
0.000693069
0.00068213
0.000695184
0.000682052
0.000695196
0.00068205
0.000695099
0.00069305
0.000684229
0.000682087
0.000693069
0.000695148
0.00068213
0.000699727
0.000712868
0.000712856
0.00069973
0.000699808
0.000710745
0.000712821
0.000701888
0.000712772
0.000701908
0.000699764
0.000699727
0.000712869
0.000712856
0.000699729
0.000695099
0.00069305
0.000682087
0.000684229
0.000695148
0.000693069
0.00068213
0.000695183
0.000682052
0.000695196
0.00068205
0.000695099
0.00069305
0.000684229
0.000682087
0.000693069
0.000695148
0.00068213
0.000695183
0.000682052
0.000695196
0.00068205
0.000712867
0.000712868
0.000700277
0.000699723
0.000699723
0.000712876
0.000699728
0.000682051
0.000695203
0.000694627
0.000682046
0.000682045
0.000695195
0.000695196
0.000682051
0.000695203
0.000699808
0.000710745
0.000712821
0.000701888
0.000712772
0.000701908
0.000699764
0.000699728
0.000712869
0.000712855
0.000699729
0.000699728
0.000712868
0.000712856
0.00069973
0.000695099
0.00069305
0.000684229
0.000682087
0.000693069
0.000695148
0.000682131
0.000695099
0.00069305
0.000684229
0.000682087
0.000693069
0.000695148
0.00068213
0.000695183
0.000682052
0.000695196
0.00068205
0.000695183
0.000682052
0.000695196
0.00068205
0.000712876
0.000699728
0.000712876
0.000699728
0.000694627
0.000682045
0.000682045
0.000695195
0.000695196
0.000682051
0.000695203
0.000682051
0.000695203
0.000677524
0.000664367
0.000677524
0.000664367
0.000677517
0.000677517
0.000664913
0.000664361
0.000664361
0.000646676
0.000659839
0.000646676
0.000659838
0.00065926
0.00064667
0.00064667
0.000659831
0.000659831
0.000664366
0.000677517
0.000677504
0.000664368
0.000664446
0.000677469
0.000675387
0.000666525
0.000677419
0.000664402
0.000666543
0.000664446
0.000677469
0.000675387
0.000666525
0.000677419
0.000664403
0.000666543
0.000659818
0.000646677
0.000659831
0.000646675
0.000659818
0.000646677
0.000659831
0.000646675
0.000659733
0.00065768
0.000646711
0.000648851
0.000659784
0.000657698
0.000646754
0.000659733
0.00065768
0.000646712
0.000648851
0.000659783
0.000657698
0.000646754
0.000677516
0.000677516
0.000664913
0.000664361
0.000664362
0.000677524
0.000664367
0.000646676
0.000659839
0.00065926
0.000646671
0.000646671
0.000659831
0.00065983
0.000646676
0.000659839
0.000664446
0.000677469
0.000675387
0.000666525
0.00067742
0.000664403
0.000666543
0.000664365
0.000677517
0.000677505
0.000664368
0.000664446
0.000675387
0.000677469
0.000666525
0.00067742
0.000666543
0.000664403
0.000659819
0.000646677
0.000659831
0.000646674
0.000659733
0.00065768
0.000646712
0.000648851
0.000659783
0.000657698
0.000646754
0.000659819
0.000646677
0.000659831
0.000646674
0.000659733
0.00065768
0.000648851
0.000646712
0.000657698
0.000659783
0.000646754
0.000664366
0.000677517
0.000677504
0.000664368
0.000664446
0.000675387
0.000677469
0.000666525
0.00067742
0.000666543
0.000664402
0.000664366
0.000677517
0.000677504
0.000664368
0.000659733
0.00065768
0.000646712
0.000648851
0.000659783
0.000657698
0.000646754
0.000659818
0.000646677
0.000659831
0.000646675
0.000659734
0.00065768
0.000648851
0.000646711
0.000657698
0.000659784
0.000646754
0.000659818
0.000646677
0.000659831
0.000646675
0.000677516
0.000677517
0.000664913
0.000664362
0.000664361
0.000677524
0.000664367
0.000646676
0.000659839
0.00065926
0.000646671
0.00064667
0.00065983
0.000659831
0.000646676
0.000659839
0.000664446
0.000675387
0.000677469
0.000666525
0.00067742
0.000666543
0.000664403
0.000664366
0.000677517
0.000677504
0.000664368
0.000664366
0.000677517
0.000677504
0.000664368
0.000659733
0.00065768
0.000648851
0.000646712
0.000657698
0.000659784
0.000646754
0.000659733
0.00065768
0.000648851
0.000646712
0.000657698
0.000659783
0.000646754
0.000659818
0.000646677
0.000659831
0.000646675
0.000659818
0.000646677
0.000659831
0.000646675
0.000677524
0.000664367
0.000677524
0.000664367
0.00065926
0.00064667
0.00064667
0.000659831
0.000659831
0.000646676
0.000659839
0.000646676
0.000659839
0.000642146
0.000628978
0.000642146
0.000628978
0.000642138
0.000642138
0.000629522
0.000628972
0.000628972
0.000611272
0.000624446
0.000611272
0.000624446
0.000623865
0.000611266
0.000611267
0.000624438
0.000624438
0.000628976
0.000642139
0.000642126
0.000628979
0.000629055
0.000642091
0.000640002
0.000631135
0.00064204
0.000629013
0.000631152
0.000629055
0.000642091
0.000640002
0.000631135
0.00064204
0.000629013
0.000631152
0.000624425
0.000611273
0.000624439
0.000611271
0.000624425
0.000611273
0.000624439
0.000611271
0.00062434
0.000622283
0.000611307
0.000613445
0.000624391
0.000622299
0.000611349
0.00062434
0.000622283
0.000611308
0.000613445
0.00062439
0.000622299
0.000611349
0.000642138
0.000642138
0.000629522
0.000628972
0.000628973
0.000642146
0.000628978
0.000611273
0.000624446
0.000623865
0.000611267
0.000611267
0.000624438
0.000624438
0.000611273
0.000624446
0.000629055
0.00064209
0.000640002
0.000631135
0.00064204
0.000629013
0.000631152
0.000628976
0.000642138
0.000642126
0.000628979
0.000629055
0.000640002
0.00064209
0.000631135
0.00064204
0.000631152
0.000629014
0.000624426
0.000611274
0.000624438
0.00061127
0.00062434
0.000622283
0.000611308
0.000613445
0.00062439
0.000622299
0.000611349
0.000624426
0.000611274
0.000624438
0.00061127
0.00062434
0.000622283
0.000613445
0.000611308
0.000622299
0.00062439
0.000611349
0.000628976
0.000642139
0.000642126
0.000628979
0.000629055
0.000640002
0.000642091
0.000631135
0.00064204
0.000631152
0.000629013
0.000628976
0.000642139
0.000642126
0.000628979
0.00062434
0.000622283
0.000611308
0.000613445
0.00062439
0.000622299
0.000611349
0.000624426
0.000611274
0.000624439
0.000611271
0.00062434
0.000622283
0.000613445
0.000611307
0.000622299
0.000624391
0.000611349
0.000624426
0.000611273
0.000624439
0.000611271
0.000642137
0.000642138
0.000629522
0.000628973
0.000628972
0.000642146
0.000628978
0.000611272
0.000624446
0.000623865
0.000611267
0.000611267
0.000624437
0.000624438
0.000611273
0.000624446
0.000629055
0.000640002
0.000642091
0.000631135
0.00064204
0.000631152
0.000629013
0.000628977
0.000642139
0.000642125
0.000628979
0.000628977
0.000642139
0.000642125
0.000628979
0.00062434
0.000622283
0.000613445
0.000611307
0.000622299
0.000624391
0.000611349
0.00062434
0.000622283
0.000613445
0.000611308
0.000622299
0.000624391
0.000611349
0.000624425
0.000611274
0.000624439
0.000611271
0.000624425
0.000611274
0.000624439
0.000611271
0.000642146
0.000628978
0.000642146
0.000628978
0.000623865
0.000611267
0.000611267
0.000624438
0.000624438
0.000611272
0.000624446
0.000611273
0.000624446
0.000606738
0.000593559
0.000606738
0.000593559
0.000606731
0.000606731
0.000594101
0.000593553
0.000593553
0.000575838
0.000589023
0.000575838
0.000589023
0.00058844
0.000575832
0.000575832
0.000589016
0.000589015
0.000593557
0.000606731
0.000606718
0.00059356
0.000593636
0.000606683
0.000604589
0.000595715
0.000606632
0.000593594
0.00059573
0.000593636
0.000606683
0.000604589
0.000595715
0.000606632
0.000593594
0.00059573
0.000589003
0.000575839
0.000589016
0.000575837
0.000589003
0.000575839
0.000589016
0.000575837
0.000588916
0.000586855
0.000575873
0.000578008
0.000588968
0.00058687
0.000575914
0.000588916
0.000586855
0.000575873
0.000578008
0.000588968
0.00058687
0.000575914
0.00060673
0.00060673
0.000594101
0.000593554
0.000593554
0.000606739
0.000593559
0.000575838
0.000589023
0.00058844
0.000575833
0.000575833
0.000589015
0.000589015
0.000575838
0.000589023
0.000593635
0.000606683
0.000604589
0.000595715
0.000606632
0.000593594
0.00059573
0.000593557
0.000606731
0.000606718
0.00059356
0.000593635
0.000604589
0.000606682
0.000595715
0.000606632
0.00059573
0.000593594
0.000589003
0.000575839
0.000589016
0.000575836
0.000588917
0.000586855
0.000575873
0.000578008
0.000588967
0.000586871
0.000575914
0.000589003
0.000575839
0.000589016
0.000575836
0.000588916
0.000586855
0.000578008
0.000575873
0.000586871
0.000588967
0.000575914
0.000593557
0.000606731
0.000606718
0.00059356
0.000593635
0.000604589
0.000606683
0.000595715
0.000606632
0.00059573
0.000593594
0.000593557
0.000606731
0.000606718
0.00059356
0.000588917
0.000586855
0.000575873
0.000578008
0.000588967
0.00058687
0.000575914
0.000589003
0.00057584
0.000589016
0.000575836
0.000588917
0.000586855
0.000578008
0.000575873
0.00058687
0.000588968
0.000575914
0.000589003
0.000575839
0.000589016
0.000575836
0.00060673
0.000606731
0.000594101
0.000593554
0.000593553
0.000606738
0.000593559
0.000575838
0.000589023
0.00058844
0.000575833
0.000575832
0.000589015
0.000589015
0.000575838
0.000589023
0.000593636
0.000604589
0.000606683
0.000595715
0.000606632
0.00059573
0.000593594
0.000593558
0.000606731
0.000606717
0.00059356
0.000593558
0.000606731
0.000606717
0.00059356
0.000588916
0.000586855
0.000578008
0.000575873
0.000586871
0.000588968
0.000575914
0.000588916
0.000586855
0.000578008
0.000575873
0.00058687
0.000588968
0.000575914
0.000589002
0.000575839
0.000589016
0.000575837
0.000589002
0.000575839
0.000589016
0.000575837
0.000606738
0.000593559
0.000606738
0.000593559
0.00058844
0.000575832
0.000575832
0.000589015
0.000589015
0.000575838
0.000589023
0.000575838
0.000589023
0.0005713
0.000558109
0.0005713
0.000558109
0.000571293
0.000571293
0.000558649
0.000558103
0.000558103
0.000540372
0.000553569
0.000540372
0.000553569
0.000552984
0.000540366
0.000540366
0.000553562
0.000553562
0.000558107
0.000571293
0.00057128
0.00055811
0.000558185
0.000571245
0.000569145
0.000560264
0.000571193
0.000558144
0.000560278
0.000558185
0.000571245
0.000569145
0.000560264
0.000571193
0.000558144
0.000560278
0.000553549
0.000540373
0.000553562
0.00054037
0.000553549
0.000540373
0.000553562
0.00054037
0.000553462
0.000551396
0.000540407
0.00054254
0.000553514
0.000551411
0.000540447
0.000553462
0.000551396
0.000540407
0.00054254
0.000553514
0.000551411
0.000540447
0.000571292
0.000571292
0.00055865
0.000558104
0.000558104