/*--------------------------------*- C++ -*----------------------------------*\
| =========                 |                                                 |
| \\      /  F ield         | OpenFOAM: The Open Source CFD Toolbox           |
|  \\    /   O peration     | Version:  v1906                                 |
|   \\  /    A nd           | Web:      www.OpenFOAM.com                      |
|    \\/     M anipulation  |                                                 |
\*---------------------------------------------------------------------------*/
FoamFile
{
    version     2.0;
    format      ascii;
    class       surfaceScalarField;
    location    "700";
    object      phi;
}
// * * * * * * * * * * * * * * * * * * * * * * * * * * * * * * * * * * * * * //

dimensions      [0 3 -1 0 0 0 0];
oriented        oriented;


internalField   nonuniform List<scalar> 
124908
(
1.24198e-07
1.245e-07
-0.00118366
-7.71074e-08
-7.71757e-08
0.00118356
-0.00113214
-1.19626e-06
-1.24519e-07
-5.06332e-08
0.00113212
-2.33904e-07
1.241e-06
2.71877e-07
9.11154e-07
-2.12206e-07
-8.52337e-07
2.66255e-07
-0.00113178
-1.19081e-06
-1.24521e-07
-5.06091e-08
0.00113176
-2.33922e-07
1.23551e-06
2.7189e-07
9.10981e-07
-2.14909e-07
-8.52196e-07
2.68959e-07
-0.000270098
1.22488e-06
1.19093e-06
-1.97973e-07
-2.0327e-07
0.000268083
1.25778e-07
1.26075e-07
-0.00118328
-7.93644e-08
-7.94547e-08
0.00118319
-0.00113206
-1.19606e-06
-1.261e-07
-5.1309e-08
0.00113204
-2.33815e-07
1.24082e-06
2.71698e-07
9.11024e-07
-2.12133e-07
-8.52195e-07
2.66085e-07
-0.0011317
-1.19061e-06
-1.26098e-07
-5.12544e-08
0.00113168
-2.33834e-07
1.23533e-06
2.71709e-07
9.10856e-07
-2.14847e-07
-8.5208e-07
2.68786e-07
-0.000270108
1.22468e-06
1.19072e-06
-1.97921e-07
-2.03221e-07
0.000268094
1.26844e-07
1.27135e-07
-0.00118291
-8.11598e-08
-8.12602e-08
0.00118282
-0.00113199
-1.19595e-06
-1.27159e-07
-5.17868e-08
0.00113198
-2.33806e-07
1.24063e-06
2.71493e-07
9.10849e-07
-2.12172e-07
-8.5218e-07
2.65848e-07
-0.00113163
-1.19051e-06
-1.2716e-07
-5.17176e-08
0.00113161
-2.33825e-07
1.23513e-06
2.71505e-07
9.10677e-07
-2.14886e-07
-8.52067e-07
2.68553e-07
-0.000270121
1.22458e-06
1.19062e-06
-1.97945e-07
-2.03245e-07
0.000268107
1.27406e-07
1.27701e-07
-0.00118255
-8.25031e-08
-8.26022e-08
0.00118246
-0.00113193
-1.19593e-06
-1.27724e-07
-5.20517e-08
0.00113192
-2.33862e-07
1.24041e-06
2.7126e-07
9.10616e-07
-2.12311e-07
-8.52277e-07
2.65558e-07
-0.00113157
-1.19049e-06
-1.27726e-07
-5.19906e-08
0.00113155
-2.33881e-07
1.23491e-06
2.71274e-07
9.10447e-07
-2.15022e-07
-8.5217e-07
2.68271e-07
-0.000270136
1.22455e-06
1.1906e-06
-1.98029e-07
-2.03325e-07
0.000268122
1.27485e-07
1.27796e-07
-0.00118219
-8.34222e-08
-8.35136e-08
0.0011821
-0.00113188
-1.196e-06
-1.27815e-07
-5.21144e-08
0.00113187
-2.33988e-07
1.24015e-06
2.71001e-07
9.10331e-07
-2.12544e-07
-8.52489e-07
2.6522e-07
-0.00113152
-1.19056e-06
-1.27833e-07
-5.20715e-08
0.0011315
-2.34007e-07
1.23466e-06
2.71013e-07
9.10169e-07
-2.15254e-07
-8.52366e-07
2.67932e-07
-0.000270152
1.22462e-06
1.19067e-06
-1.9818e-07
-2.0347e-07
0.000268138
1.27108e-07
1.27441e-07
-0.00118184
-8.39469e-08
-8.40198e-08
0.00118175
-0.00113184
-1.19615e-06
-1.27449e-07
-5.19892e-08
0.00113183
-2.3418e-07
1.23987e-06
2.70718e-07
9.09994e-07
-2.12867e-07
-8.52802e-07
2.64833e-07
-0.00113147
-1.1907e-06
-1.2747e-07
-5.19482e-08
0.00113146
-2.34197e-07
1.23438e-06
2.70731e-07
9.09836e-07
-2.15578e-07
-8.52683e-07
2.67544e-07
-0.00027017
1.22477e-06
1.19083e-06
-1.98389e-07
-2.03675e-07
0.000268156
1.26337e-07
1.26695e-07
-0.00118149
-8.41186e-08
-8.41695e-08
0.00118141
-0.0011318
-1.19638e-06
-1.26684e-07
-5.17042e-08
0.00113179
-2.34432e-07
1.23957e-06
2.7041e-07
9.09615e-07
-2.13273e-07
-8.53207e-07
2.64403e-07
-0.00113143
-1.19093e-06
-1.26706e-07
-5.16692e-08
0.00113143
-2.34449e-07
1.23408e-06
2.70424e-07
9.09456e-07
-2.15987e-07
-8.53094e-07
2.67114e-07
-0.000270189
1.225e-06
1.19106e-06
-1.98654e-07
-2.03939e-07
0.000268176
1.25187e-07
1.2556e-07
-0.00118116
-8.39413e-08
-8.39735e-08
0.00118108
-0.00113177
-1.19668e-06
-1.25535e-07
-5.12627e-08
0.00113176
-2.34748e-07
1.23924e-06
2.7007e-07
9.09195e-07
-2.13763e-07
-8.53708e-07
2.63925e-07
-0.0011314
-1.19123e-06
-1.25557e-07
-5.1225e-08
0.0011314
-2.34764e-07
1.23375e-06
2.70087e-07
9.09028e-07
-2.16475e-07
-8.53595e-07
2.66638e-07
-0.000270209
1.22531e-06
1.19136e-06
-1.98973e-07
-2.0426e-07
0.000268196
1.23696e-07
1.24072e-07
-0.00118083
-8.34466e-08
-8.34669e-08
0.00118075
-0.00113174
-1.19705e-06
-1.2404e-07
-5.06655e-08
0.00113174
-2.35114e-07
1.23889e-06
2.69711e-07
9.08718e-07
-2.14315e-07
-8.54293e-07
2.6341e-07
-0.00113138
-1.19161e-06
-1.24068e-07
-5.06286e-08
0.00113137
-2.35134e-07
1.2334e-06
2.69723e-07
9.08555e-07
-2.17029e-07
-8.54175e-07
2.66121e-07
-0.000270231
1.22568e-06
1.19173e-06
-1.99342e-07
-2.04629e-07
0.000268217
1.21901e-07
1.22282e-07
-0.00118051
-8.26755e-08
-8.26851e-08
0.00118043
-0.00113172
-1.19748e-06
-1.22242e-07
-4.99406e-08
0.00113172
-2.35528e-07
1.23852e-06
2.69322e-07
9.08196e-07
-2.14925e-07
-8.54939e-07
2.62851e-07
-0.00113136
-1.19204e-06
-1.22277e-07
-4.9903e-08
0.00113135
-2.35548e-07
1.23302e-06
2.69333e-07
9.08035e-07
-2.17637e-07
-8.54824e-07
2.65565e-07
-0.000270253
1.22611e-06
1.19217e-06
-1.99751e-07
-2.05041e-07
0.00026824
1.19853e-07
1.20237e-07
-0.0011802
-8.16648e-08
-8.1665e-08
0.00118012
-0.0011317
-1.19797e-06
-1.2019e-07
-4.90967e-08
0.0011317
-2.35984e-07
1.23811e-06
2.68908e-07
9.07635e-07
-2.15584e-07
-8.55649e-07
2.62238e-07
-0.00113134
-1.19252e-06
-1.20237e-07
-4.90615e-08
0.00113134
-2.36004e-07
1.23262e-06
2.6892e-07
9.07476e-07
-2.18292e-07
-8.55532e-07
2.64956e-07
-0.000270276
1.2266e-06
1.19265e-06
-2.00197e-07
-2.05488e-07
0.000268262
1.1761e-07
1.17992e-07
-0.0011799
-8.04534e-08
-8.04421e-08
0.00117982
-0.00113169
-1.1985e-06
-1.1794e-07
-4.81749e-08
0.00113169
-2.36466e-07
1.23767e-06
2.68465e-07
9.0701e-07
-2.16266e-07
-8.56392e-07
2.61564e-07
-0.00113133
-1.19305e-06
-1.17996e-07
-4.81448e-08
0.00113133
-2.36485e-07
1.23218e-06
2.68478e-07
9.06856e-07
-2.18971e-07
-8.56273e-07
2.64287e-07
-0.000270299
1.22713e-06
1.19318e-06
-2.00673e-07
-2.05965e-07
0.000268286
1.1527e-07
1.15656e-07
-0.00117961
-7.91332e-08
-7.91167e-08
0.00117953
-0.00113168
-1.19906e-06
-1.15593e-07
-4.72199e-08
0.00113169
-2.36967e-07
1.23721e-06
2.67973e-07
9.06288e-07
-2.16931e-07
-8.57133e-07
2.60799e-07
-0.00113132
-1.19362e-06
-1.15652e-07
-4.71919e-08
0.00113132
-2.36957e-07
1.23172e-06
2.67986e-07
9.06137e-07
-2.19635e-07
-8.57014e-07
2.63525e-07
-0.000270323
1.22769e-06
1.19374e-06
-2.01158e-07
-2.06453e-07
0.00026831
1.12937e-07
1.13316e-07
-0.00117932
-7.77794e-08
-7.77657e-08
0.00117925
-0.00113168
-1.19962e-06
-1.13243e-07
-4.62318e-08
0.00113168
-2.37455e-07
1.23669e-06
2.6742e-07
9.05415e-07
-2.17507e-07
-8.57807e-07
2.59871e-07
-0.00113132
-1.19418e-06
-1.13311e-07
-4.62005e-08
0.00113132
-2.37444e-07
1.2312e-06
2.67435e-07
9.05268e-07
-2.20207e-07
-8.57687e-07
2.62601e-07
-0.000270348
1.22826e-06
1.1943e-06
-2.01624e-07
-2.06921e-07
0.000268334
1.10819e-07
1.1119e-07
-0.00117905
-7.65664e-08
-7.65559e-08
0.00117898
-0.00113168
-1.20015e-06
-1.11113e-07
-4.52714e-08
0.00113169
-2.37871e-07
1.23606e-06
2.66762e-07
9.04278e-07
-2.17824e-07
-8.58278e-07
2.58641e-07
-0.00113132
-1.19471e-06
-1.11186e-07
-4.52424e-08
0.00113132
-2.3786e-07
1.23058e-06
2.66777e-07
9.04135e-07
-2.2052e-07
-8.58155e-07
2.61371e-07
-0.000270372
1.22879e-06
1.19484e-06
-2.02011e-07
-2.07313e-07
0.000268358
1.09268e-07
1.09645e-07
-0.00117879
-7.58268e-08
-7.58217e-08
0.00117872
-0.00113168
-1.20054e-06
-1.09559e-07
-4.43265e-08
0.00113169
-2.38103e-07
1.23522e-06
2.65847e-07
9.02622e-07
-2.17511e-07
-8.58276e-07
2.56725e-07
-0.00113132
-1.1951e-06
-1.09636e-07
-4.42881e-08
0.00113133
-2.38098e-07
1.22974e-06
2.65834e-07
9.02478e-07
-2.20201e-07
-8.58151e-07
2.59453e-07
-0.000270397
1.22919e-06
1.19523e-06
-2.0217e-07
-2.0748e-07
0.000268382
1.08929e-07
1.09301e-07
-0.00117853
-7.62487e-08
-7.62398e-08
0.00117847
-0.00113169
-1.20048e-06
-1.09218e-07
-4.32046e-08
0.0011317
-2.37774e-07
1.23377e-06
2.64177e-07
8.99812e-07
-2.15558e-07
-8.57225e-07
2.5305e-07
-0.00113133
-1.19504e-06
-1.09299e-07
-4.31591e-08
0.00113134
-2.3777e-07
1.2283e-06
2.6417e-07
8.9966e-07
-2.18241e-07
-8.57094e-07
2.55775e-07
-0.000270422
1.22913e-06
1.19516e-06
-2.01649e-07
-2.06967e-07
0.000268406
1.10978e-07
1.11361e-07
-0.00117829
-7.94865e-08
-7.94626e-08
0.00117823
-0.0011317
-1.19884e-06
-1.11265e-07
-4.0687e-08
0.00113172
-2.35414e-07
1.2303e-06
2.59923e-07
8.94061e-07
-2.09025e-07
-8.53623e-07
2.44311e-07
-0.00113134
-1.19339e-06
-1.11373e-07
-4.06871e-08
0.00113136
-2.35436e-07
1.22483e-06
2.5996e-07
8.93903e-07
-2.11717e-07
-8.53421e-07
2.47034e-07
-0.000270448
1.22749e-06
1.1935e-06
-1.98857e-07
-2.04187e-07
0.00026843
1.34355e-07
1.35023e-07
-0.00117807
-9.60998e-08
-1.01814e-07
0.001178
-0.00113171
-1.19157e-06
-1.29191e-07
-4.49135e-08
0.00113175
-2.25163e-07
1.22272e-06
2.51418e-07
8.84368e-07
-1.9169e-07
-8.44689e-07
2.22957e-07
-0.00113136
-1.18341e-06
-1.34996e-07
-3.9637e-08
0.0011314
-2.25111e-07
1.21454e-06
2.48656e-07
8.81598e-07
-1.91683e-07
-8.41826e-07
2.2578e-07
-0.000270482
1.22292e-06
1.1862e-06
-1.85277e-07
-1.90624e-07
0.000268448
1.05241e-06
1.05995e-06
-0.00117775
-9.08502e-07
-8.97351e-07
0.00117744
-0.00113201
-1.0876e-06
-1.05391e-06
-4.40918e-07
0.0011325
-1.18881e-07
1.3761e-06
3.14384e-07
1.00639e-06
-5.29117e-08
-7.21347e-07
2.92216e-07
-0.00113167
-1.0793e-06
-1.06514e-06
-4.52339e-07
0.00113217
-1.18708e-07
1.37075e-06
3.17322e-07
1.00346e-06
-5.91357e-08
-7.1842e-07
2.95074e-07
-0.0002706
1.12153e-06
1.07945e-06
-7.94503e-08
-8.19873e-08
0.00026856
5.51306e-06
5.50597e-06
-0.00116443
-1.16869e-05
-1.15798e-05
0.000283409
0.000285664
0.000285391
0.000285391
4.52784e-06
6.71956e-06
7.15992e-06
4.53181e-06
6.72047e-06
7.16353e-06
-0.000280655
5.41705e-06
-5.50298e-06
5.96527e-06
-3.38955e-06
0.000278166
-0.000280631
-5.50553e-06
5.42245e-06
-3.39794e-06
5.96235e-06
0.000278149
-0.000271535
-5.41378e-06
-5.42532e-06
5.74676e-06
5.73483e-06
0.000270892
-1.27496e-06
-1.23837e-06
0.000270115
-0.000268087
2.38915e-07
2.46792e-07
0.00113131
-1.23661e-07
-0.00113133
-5.03076e-08
-1.23034e-06
2.77284e-07
-2.39472e-07
-8.52409e-07
2.66221e-07
-2.12268e-07
9.11109e-07
1.28046e-06
0.00113175
-1.23629e-07
-0.00113177
-5.03023e-08
-1.23583e-06
2.80126e-07
-2.42312e-07
-8.57915e-07
2.68985e-07
-2.15093e-07
9.16633e-07
-1.24105e-06
0.000270145
-0.000268109
2.41713e-07
2.44061e-07
0.00113241
-1.23986e-07
-0.00113243
-5.0388e-08
-1.19369e-06
2.74794e-07
-2.36821e-07
-8.55077e-07
2.6906e-07
-2.15037e-07
9.13929e-07
1.275e-06
0.00113141
-1.23595e-07
-0.00113143
-5.02884e-08
-1.23039e-06
2.80116e-07
-2.42318e-07
-8.55076e-07
2.68933e-07
-2.15018e-07
9.13752e-07
-1.23997e-07
-0.00113216
-5.04047e-08
-1.19633e-06
2.71911e-07
-2.33933e-07
-8.52372e-07
2.66288e-07
9.11173e-07
-2.12231e-07
1.26954e-06
0.0011312
-1.23698e-07
-0.00113122
-5.02942e-08
-1.22494e-06
2.74507e-07
-2.36666e-07
-8.52418e-07
2.66204e-07
-2.12256e-07
9.11108e-07
-1.23556e-06
0.000270093
-0.000268068
2.39047e-07
2.4662e-07
-1.23995e-07
-0.0011318
-5.03793e-08
-1.19088e-06
2.71927e-07
-2.33948e-07
-8.52208e-07
2.68961e-07
9.1107e-07
-2.14964e-07
1.23568e-06
0.00113231
-1.24033e-07
-0.00113233
-5.04188e-08
-1.19099e-06
2.72043e-07
-2.34036e-07
-8.52443e-07
2.69036e-07
-2.15e-07
9.11299e-07
-0.000268081
2.41496e-07
2.46798e-07
1.23027e-06
1.19362e-06
-1.95399e-07
-2.03227e-07
0.00026809
-1.27478e-06
-1.23819e-06
0.000270126
-0.000268098
2.38619e-07
2.46492e-07
-5.05386e-08
0.00113128
-2.39445e-07
1.27492e-06
2.77246e-07
9.11081e-07
-2.12232e-07
-8.52368e-07
2.66191e-07
-1.23576e-06
-1.24154e-07
-5.05111e-08
0.00113173
-2.42284e-07
1.28042e-06
2.80091e-07
9.16607e-07
-2.15061e-07
-8.57883e-07
2.68952e-07
0.00113123
-1.25357e-07
-0.00113125
-5.10006e-08
-1.23011e-06
2.77107e-07
-2.39368e-07
-8.52249e-07
2.66059e-07
-2.12178e-07
9.10988e-07
1.28028e-06
0.00113167
-1.25323e-07
-0.00113169
-5.09975e-08
-1.2356e-06
2.79956e-07
-2.42209e-07
-8.57768e-07
2.68816e-07
-2.15004e-07
9.16515e-07
-1.98103e-07
-2.00537e-07
0.000268111
-1.24086e-06
0.000270155
-0.000268119
2.41409e-07
2.43758e-07
-5.06491e-08
0.00113239
-2.36794e-07
1.23833e-06
2.74758e-07
9.13899e-07
-2.15011e-07
-8.55042e-07
2.69028e-07
-1.23033e-06
-1.24116e-07
-5.049e-08
0.00113139
-2.42291e-07
1.27496e-06
2.80082e-07
9.13729e-07
-2.14989e-07
-8.55046e-07
2.68887e-07
0.00113233
-1.25661e-07
-0.00113235
-5.10848e-08
-1.19346e-06
2.7462e-07
-2.36715e-07
-8.54934e-07
2.68892e-07
-2.14949e-07
9.13807e-07
1.27482e-06
0.00113133
-1.25274e-07
-0.00113135
-5.09708e-08
-1.23016e-06
2.79944e-07
-2.42217e-07
-8.54932e-07
2.68746e-07
-2.14932e-07
9.13634e-07
-1.24225e-07
-5.05078e-08
0.00113118
-2.36639e-07
1.2695e-06
2.74469e-07
9.1109e-07
-2.12218e-07
2.66182e-07
-8.52376e-07
-1.25685e-07
-0.00113208
-5.1108e-08
-1.1961e-06
2.71739e-07
-2.33829e-07
-8.52221e-07
2.66114e-07
9.11051e-07
-2.12142e-07
1.26936e-06
0.00113112
-1.25396e-07
-0.00113114
-5.09866e-08
-1.22472e-06
2.74331e-07
-2.36569e-07
-8.52261e-07
2.66038e-07
-2.12166e-07
9.10997e-07
-1.95482e-07
-2.03119e-07
0.00026807
-1.23537e-06
0.000270103
-0.000268078
2.38743e-07
2.46315e-07
-1.2456e-07
-5.06271e-08
0.00113229
-2.34011e-07
1.23564e-06
2.72005e-07
9.11272e-07
-2.14963e-07
2.69012e-07
-8.52412e-07
-1.25681e-07
-0.00113172
-5.10525e-08
-1.19065e-06
2.71754e-07
-2.33844e-07
-8.52056e-07
2.68801e-07
9.10943e-07
-2.14883e-07
1.23551e-06
0.00113223
-1.25705e-07
-0.00113225
-5.11119e-08
-1.19076e-06
2.71871e-07
-2.33937e-07
-8.52298e-07
2.6886e-07
-2.14912e-07
9.11175e-07
-0.000268091
2.41201e-07
2.465e-07
1.23007e-06
1.19342e-06
-1.95353e-07
-2.03185e-07
0.000268101
-1.27458e-06
-1.238e-06
0.000270138
-0.00026811
2.38301e-07
2.46175e-07
-5.11875e-08
0.00113121
-2.39358e-07
1.27474e-06
2.77065e-07
9.10952e-07
-2.12164e-07
-8.52231e-07
2.66006e-07
-1.23556e-06
-1.25753e-07
-5.11734e-08
0.00113166
-2.42195e-07
1.28024e-06
2.79913e-07
9.16484e-07
-2.14982e-07
-8.5775e-07
2.68775e-07
0.00113116
-1.2652e-07
-0.00113117
-5.14968e-08
-1.22998e-06
2.76908e-07
-2.39341e-07
-8.52206e-07
2.65835e-07
-2.12186e-07
9.1082e-07
1.28009e-06
0.00113161
-1.26492e-07
-0.00113162
-5.15049e-08
-1.23547e-06
2.79754e-07
-2.42185e-07
-8.57723e-07
2.68597e-07
-2.15008e-07
9.16348e-07
-1.98054e-07
-2.00489e-07
0.000268122
-1.24067e-06
0.000270168
-0.000268132
2.41093e-07
2.43437e-07
-5.1316e-08
0.00113232
-2.36705e-07
1.23816e-06
2.74579e-07
9.13774e-07
-2.14943e-07
-8.54913e-07
2.6885e-07
-1.23012e-06
-1.25703e-07
-5.11528e-08
0.00113131
-2.42204e-07
1.27478e-06
2.79901e-07
9.13603e-07
-2.14917e-07
-8.54914e-07
2.68719e-07
0.00113227
-1.26824e-07
-0.00113228
-5.15871e-08
-1.19333e-06
2.7442e-07
-2.36687e-07
-8.54889e-07
2.6867e-07
-2.14958e-07
9.13636e-07
1.27463e-06
0.00113126
-1.26429e-07
-0.00113128
-5.14789e-08
-1.23003e-06
2.79741e-07
-2.42192e-07
-8.5489e-07
2.68532e-07
-2.14945e-07
9.13465e-07
-1.25815e-07
-5.116e-08
0.00113111
-2.36556e-07
1.26932e-06
2.74288e-07
9.1097e-07
-2.1215e-07
2.66004e-07
-8.52249e-07
-1.26846e-07
-0.00113201
-5.16269e-08
-1.19597e-06
2.71542e-07
-2.33799e-07
-8.52176e-07
2.65895e-07
9.10886e-07
-2.12153e-07
1.26916e-06
0.00113106
-1.2655e-07
-0.00113107
-5.14837e-08
-1.22459e-06
2.74129e-07
-2.36541e-07
-8.52218e-07
2.65819e-07
-2.12173e-07
9.10827e-07
-1.95434e-07
-2.03072e-07
0.000268081
-1.23517e-06
0.000270116
-0.000268091
2.3842e-07
2.45996e-07
-1.26139e-07
-5.12834e-08
0.00113221
-2.33924e-07
1.23546e-06
2.71828e-07
9.11143e-07
-2.14898e-07
2.68832e-07
-8.5228e-07
-1.26842e-07
-0.00113165
-5.15555e-08
-1.19052e-06
2.71549e-07
-2.33821e-07
-8.52014e-07
2.68579e-07
9.10776e-07
-2.14895e-07
1.2353e-06
0.00113216
-1.26863e-07
-0.00113218
-5.1606e-08
-1.19064e-06
2.71668e-07
-2.33909e-07
-8.52254e-07
2.68645e-07
-2.14923e-07
9.11007e-07
-0.000268104
2.40878e-07
2.46176e-07
1.22997e-06
1.19331e-06
-1.95372e-07
-2.03206e-07
0.000268114
-1.27437e-06
-1.23777e-06
0.000270153
-0.000268124
2.37955e-07
2.45834e-07
-5.1649e-08
0.00113114
-2.39342e-07
1.27454e-06
2.76865e-07
9.10774e-07
-2.12202e-07
-8.52215e-07
2.65776e-07
-1.23545e-06
-1.26817e-07
-5.1644e-08
0.00113159
-2.42189e-07
1.28004e-06
2.79706e-07
9.16307e-07
-2.15027e-07
-8.57735e-07
2.68545e-07
0.0011311
-1.27166e-07
-0.00113111
-5.17917e-08
-1.22995e-06
2.76684e-07
-2.39383e-07
-8.52276e-07
2.65553e-07
-2.123e-07
9.10602e-07
1.27987e-06
0.00113155
-1.27147e-07
-0.00113156
-5.18005e-08
-1.23543e-06
2.79519e-07
-2.42231e-07
-8.57791e-07
2.68319e-07
-2.15122e-07
9.1613e-07
-1.98073e-07
-2.00514e-07
0.000268135
-1.24045e-06
0.000270182
-0.000268146
2.40752e-07
2.43094e-07
-5.17744e-08
0.00113225
-2.36692e-07
1.23795e-06
2.74374e-07
9.13594e-07
-2.14974e-07
-8.54896e-07
2.68616e-07
-1.23002e-06
-1.26755e-07
-5.16157e-08
0.00113124
-2.42196e-07
1.27458e-06
2.79696e-07
9.13422e-07
-2.14959e-07
-8.54901e-07
2.68475e-07
0.0011322
-1.2747e-07
-0.00113222
-5.18711e-08
-1.19329e-06
2.74186e-07
-2.36738e-07
-8.54951e-07
2.68395e-07
-2.1507e-07
9.13403e-07
1.27441e-06
0.0011312
-1.27082e-07
-0.00113121
-5.17775e-08
-1.23e-06
2.79512e-07
-2.42232e-07
-8.54964e-07
2.68253e-07
-2.15059e-07
9.13245e-07
-1.26865e-07
-5.16202e-08
0.00113104
-2.36547e-07
1.26912e-06
2.74082e-07
9.10783e-07
-2.12185e-07
2.65771e-07
-8.52232e-07
-1.27493e-07
-0.00113195
-5.19275e-08
-1.19593e-06
2.71309e-07
-2.33844e-07
-8.52246e-07
2.65619e-07
9.10665e-07
-2.12268e-07
1.26895e-06
0.001131
-1.27195e-07
-0.00113101
-5.17818e-08
-1.22455e-06
2.73901e-07
-2.36584e-07
-8.5229e-07
2.65541e-07
-2.12286e-07
9.10605e-07
-1.95457e-07
-2.03093e-07
0.000268094
-1.23496e-06
0.000270131
-0.000268105
2.38078e-07
2.45656e-07
-1.27195e-07
-5.17409e-08
0.00113214
-2.33916e-07
1.23526e-06
2.7162e-07
9.10965e-07
-2.14937e-07
2.68592e-07
-8.52268e-07
-1.27497e-07
-0.00113158
-5.18575e-08
-1.19049e-06
2.71317e-07
-2.3387e-07
-8.52066e-07
2.68305e-07
9.10559e-07
-2.15001e-07
1.23508e-06
0.0011321
-1.27518e-07
-0.00113211
-5.19024e-08
-1.1906e-06
2.71433e-07
-2.33959e-07
-8.52324e-07
2.68371e-07
-2.15037e-07
9.10789e-07
-0.000268118
2.40532e-07
2.45835e-07
1.22995e-06
1.1933e-06
-1.95458e-07
-2.03287e-07
0.000268128
-1.27412e-06
-1.23752e-06
0.000270169
-0.00026814
2.37579e-07
2.45467e-07
-5.19163e-08
0.00113108
-2.394e-07
1.27432e-06
2.76636e-07
9.10543e-07
-2.12339e-07
-8.52314e-07
2.65492e-07
-1.23544e-06
-1.27389e-07
-5.19015e-08
0.00113153
-2.4225e-07
1.27982e-06
2.7947e-07
9.16076e-07
-2.15163e-07
-8.57833e-07
2.68258e-07
0.00113105
-1.27325e-07
-0.00113106
-5.1894e-08
-1.22998e-06
2.76435e-07
-2.39487e-07
-8.52459e-07
2.6522e-07
-2.12515e-07
9.10322e-07
1.27961e-06
0.00113149
-1.27318e-07
-0.00113151
-5.18852e-08
-1.23548e-06
2.79261e-07
-2.42341e-07
-8.57957e-07
2.67993e-07
-2.15333e-07
9.15856e-07
-1.98157e-07
-2.00599e-07
0.00026815
-1.2402e-06
0.000270199
-0.000268162
2.40375e-07
2.42716e-07
-5.2023e-08
0.00113219
-2.36759e-07
1.23773e-06
2.74136e-07
9.13369e-07
-2.15112e-07
-8.54977e-07
2.68332e-07
-1.23001e-06
-1.2732e-07
-5.18795e-08
0.00113119
-2.42261e-07
1.27436e-06
2.79461e-07
9.13193e-07
-2.15097e-07
-8.55003e-07
2.68192e-07
0.00113215
-1.27644e-07
-0.00113217
-5.19511e-08
-1.19334e-06
2.73931e-07
-2.36848e-07
-8.55142e-07
2.68069e-07
-2.15275e-07
9.13147e-07
1.27416e-06
0.00113115
-1.27253e-07
-0.00113116
-5.18881e-08
-1.23004e-06
2.79257e-07
-2.42342e-07
-8.55141e-07
2.67927e-07
-2.15266e-07
9.12973e-07
-1.27425e-07
-5.18845e-08
0.00113098
-2.36604e-07
1.2689e-06
2.73852e-07
9.10552e-07
-2.12327e-07
2.65481e-07
-8.5233e-07
-1.27661e-07
-0.00113189
-5.20166e-08
-1.19597e-06
2.71055e-07
-2.33948e-07
-8.52429e-07
2.65292e-07
9.10391e-07
-2.12478e-07
1.2687e-06
0.00113094
-1.27357e-07
-0.00113096
-5.18849e-08
-1.22459e-06
2.73649e-07
-2.3669e-07
-8.52472e-07
2.65212e-07
-2.12499e-07
9.10328e-07
-1.95547e-07
-2.03179e-07
0.000268109
-1.23471e-06
0.000270147
-0.000268121
2.37705e-07
2.45281e-07
-1.27764e-07
-5.2012e-08
0.00113209
-2.3398e-07
1.23503e-06
2.71383e-07
9.10739e-07
-2.15074e-07
2.68309e-07
-8.52363e-07
-1.27674e-07
-0.00113153
-5.19673e-08
-1.19052e-06
2.71066e-07
-2.33967e-07
-8.52259e-07
2.67979e-07
9.10288e-07
-2.15209e-07
1.23483e-06
0.00113205
-1.27697e-07
-0.00113206
-5.19983e-08
-1.19065e-06
2.71175e-07
-2.3407e-07
-8.52501e-07
2.68045e-07
-2.15242e-07
9.10517e-07
-0.000268134
2.40156e-07
2.45465e-07
1.23001e-06
1.19337e-06
-1.9561e-07
-2.03431e-07
0.000268145
-1.27385e-06
-1.23724e-06
0.000270187
-0.000268158
2.37177e-07
2.45074e-07
-5.19967e-08
0.00113103
-2.39523e-07
1.27407e-06
2.76381e-07
9.10253e-07
-2.12579e-07
-8.52529e-07
2.65146e-07
-1.23551e-06
-1.27476e-07
-5.19521e-08
0.00113148
-2.42379e-07
1.27956e-06
2.79209e-07
9.15789e-07
-2.15391e-07
-8.58045e-07
2.67925e-07
0.001131
-1.27016e-07
-0.00113101
-5.18218e-08
-1.23011e-06
2.76157e-07
-2.39659e-07
-8.5275e-07
2.64838e-07
-2.12821e-07
9.09994e-07
1.27934e-06
0.00113145
-1.27026e-07
-0.00113146
-5.17807e-08
-1.23561e-06
2.78981e-07
-2.42521e-07
-8.58258e-07
2.67619e-07
-2.15629e-07
9.15539e-07
-1.98303e-07
-2.00747e-07
0.000268166
-1.23993e-06
0.000270217
-0.00026818
2.39982e-07
2.42322e-07
-5.20829e-08
0.00113214
-2.36888e-07
1.23747e-06
2.73875e-07
9.13084e-07
-2.15342e-07
-8.552e-07
2.67996e-07
-1.23007e-06
-1.27418e-07
-5.19664e-08
0.00113114
-2.42382e-07
1.27411e-06
2.79203e-07
9.1291e-07
-2.15328e-07
-8.55212e-07
2.67857e-07
0.00113211
-1.27358e-07
-0.00113212
-5.18479e-08
-1.19347e-06
2.73642e-07
-2.37031e-07
-8.55428e-07
2.67695e-07
-2.15575e-07
9.12826e-07
1.27389e-06
0.0011311
-1.26967e-07
-0.00113111
-5.17991e-08
-1.23017e-06
2.78978e-07
-2.42521e-07
-8.55425e-07
2.67554e-07
-2.15564e-07
9.12651e-07
-1.2751e-07
-5.19626e-08
0.00113093
-2.36727e-07
1.26865e-06
2.73595e-07
9.10265e-07
-2.12562e-07
2.6514e-07
-8.52543e-07
-1.27363e-07
-0.00113185
-5.192e-08
-1.1961e-06
2.70776e-07
-2.34126e-07
-8.52713e-07
2.64915e-07
9.10067e-07
-2.1278e-07
1.26843e-06
0.0011309
-1.27055e-07
-0.00113091
-5.17999e-08
-1.22472e-06
2.73369e-07
-2.36866e-07
-8.52758e-07
2.64835e-07
-2.12801e-07
9.10005e-07
-1.95686e-07
-2.03325e-07
0.000268125
-1.23444e-06
0.000270165
-0.000268139
2.37312e-07
2.44886e-07
-1.27865e-07
-5.20708e-08
0.00113204
-2.34108e-07
1.23477e-06
2.7112e-07
9.10457e-07
-2.15304e-07
2.67975e-07
-8.52571e-07
-1.27382e-07
-0.00113148
-5.18818e-08
-1.19065e-06
2.70789e-07
-2.34144e-07
-8.52547e-07
2.67603e-07
9.09964e-07
-2.15509e-07
1.23455e-06
0.001132
-1.27409e-07
-0.00113201
-5.18977e-08
-1.19078e-06
2.70891e-07
-2.34251e-07
-8.52784e-07
2.67673e-07
-2.15539e-07
9.10198e-07
-0.000268152
2.39758e-07
2.45073e-07
1.23016e-06
1.19353e-06
-1.95823e-07
-2.03637e-07
0.000268163
-1.27356e-06
-1.23694e-06
0.000270206
-0.000268177
2.36752e-07
2.44657e-07
-5.18893e-08
0.00113099
-2.39713e-07
1.2738e-06
2.76099e-07
9.09916e-07
-2.12909e-07
-8.52845e-07
2.64754e-07
-1.23566e-06
-1.2712e-07
-5.18206e-08
0.00113144
-2.42576e-07
1.27928e-06
2.78921e-07
9.15464e-07
-2.15714e-07
-8.58349e-07
2.67539e-07
0.00113096
-1.26262e-07
-0.00113097
-5.15646e-08
-1.23032e-06
2.75853e-07
-2.39894e-07
-8.53135e-07
2.6441e-07
-2.13208e-07
9.09619e-07
1.27904e-06
0.00113141
-1.2629e-07
-0.00113142
-5.15003e-08
-1.23582e-06
2.78672e-07
-2.42761e-07
-8.58637e-07
2.67199e-07
-2.16009e-07
9.15168e-07
-1.98509e-07
-2.00955e-07
0.000268184
-1.23963e-06
0.000270236
-0.000268199
2.39564e-07
2.41901e-07
-5.19376e-08
0.0011321
-2.37088e-07
1.23719e-06
2.73582e-07
9.1275e-07
-2.15666e-07
-8.55516e-07
2.67611e-07
-1.23022e-06
-1.27065e-07
-5.18426e-08
0.00113109
-2.42577e-07
1.27383e-06
2.78919e-07
9.1258e-07
-2.1565e-07
-8.55521e-07
2.67473e-07
0.00113207
-1.26632e-07
-0.00113208
-5.15561e-08
-1.19368e-06
2.73327e-07
-2.37275e-07
-8.55809e-07
2.67274e-07
-2.15959e-07
9.12455e-07
1.27359e-06
0.00113106
-1.26236e-07
-0.00113107
-5.15195e-08
-1.23038e-06
2.7867e-07
-2.4276e-07
-8.55807e-07
2.67132e-07
-2.15945e-07
9.12282e-07
-1.27139e-07
-5.18409e-08
0.00113089
-2.36919e-07
1.26837e-06
2.7331e-07
9.09932e-07
-2.12888e-07
2.64752e-07
-8.52854e-07
-1.26617e-07
-0.00113181
-5.16466e-08
-1.1963e-06
2.7047e-07
-2.34361e-07
-8.53096e-07
2.6449e-07
9.0969e-07
-2.13163e-07
1.26813e-06
0.00113086
-1.2631e-07
-0.00113087
-5.15244e-08
-1.22493e-06
2.73061e-07
-2.37102e-07
-8.53141e-07
2.64408e-07
-2.13185e-07
9.09632e-07
-1.9589e-07
-2.03533e-07
0.000268143
-1.23414e-06
0.000270184
-0.000268158
2.36895e-07
2.44466e-07
-1.27507e-07
-5.19342e-08
0.00113199
-2.34305e-07
1.23449e-06
2.70831e-07
9.10126e-07
-2.15625e-07
2.67591e-07
-8.52881e-07
-1.26639e-07
-0.00113144
-5.16122e-08
-1.19086e-06
2.70485e-07
-2.34378e-07
-8.52933e-07
2.67177e-07
9.09592e-07
-2.15895e-07
1.23425e-06
0.00113197
-1.2667e-07
-0.00113197
-5.16076e-08
-1.19099e-06
2.70579e-07
-2.3449e-07
-8.53166e-07
2.67249e-07
-2.15922e-07
9.09825e-07
-0.000268171
2.39336e-07
2.44654e-07
1.23039e-06
1.19376e-06
-1.96091e-07
-2.039e-07
0.000268182
-1.27323e-06
-1.23661e-06
0.000270227
-0.000268197
2.36304e-07
2.44214e-07
-5.16244e-08
0.00113096
-2.39964e-07
1.2735e-06
2.75794e-07
9.09537e-07
-2.13318e-07
-8.53255e-07
2.64322e-07
-1.23589e-06
-1.26368e-07
-5.15213e-08
0.0011314
-2.42833e-07
1.27898e-06
2.7861e-07
9.15088e-07
-2.16118e-07
-8.58758e-07
2.67113e-07
0.00113093
-1.25091e-07
-0.00113094
-5.11228e-08
-1.2306e-06
2.7552e-07
-2.40186e-07
-8.5361e-07
2.63936e-07
-2.13672e-07
9.09194e-07
1.27871e-06
0.00113138
-1.25129e-07
-0.00113139
-5.10187e-08
-1.2361e-06
2.78332e-07
-2.4306e-07
-8.59113e-07
2.66726e-07
-2.16471e-07
9.14744e-07
-1.98771e-07
-2.0122e-07
0.000268203
-1.2393e-06
0.000270256
-0.000268219
2.39118e-07
2.41452e-07
-5.16398e-08
0.00113206
-2.37349e-07
1.23688e-06
2.73267e-07
9.12375e-07
-2.16073e-07
-8.55924e-07
2.67186e-07
-1.23046e-06
-1.26315e-07
-5.15529e-08
0.00113106
-2.42834e-07
1.27353e-06
2.78608e-07
9.12206e-07
-2.16054e-07
-8.55928e-07
2.67046e-07
0.00113204
-1.25479e-07
-0.00113205
-5.10911e-08
-1.19397e-06
2.72988e-07
-2.37573e-07
-8.56284e-07
2.66806e-07
-2.16424e-07
9.12036e-07
1.27326e-06
0.00113103
-1.25079e-07
-0.00113104
-5.10566e-08
-1.23066e-06
2.78331e-07
-2.43059e-07
-8.56278e-07
2.66661e-07
-2.16406e-07
9.11859e-07
-1.26375e-07
-5.15571e-08
0.00113085
-2.37174e-07
1.26807e-06
2.73001e-07
9.09555e-07
-2.13296e-07
2.64321e-07
-8.53263e-07
-1.25447e-07
-0.00113177
-5.1196e-08
-1.19658e-06
2.70132e-07
-2.34657e-07
-8.5357e-07
2.64013e-07
9.09272e-07
-2.13629e-07
1.2678e-06
0.00113083
-1.2514e-07
-0.00113084
-5.10654e-08
-1.22521e-06
2.72724e-07
-2.37397e-07
-8.53616e-07
2.63934e-07
-2.13649e-07
9.09207e-07
-1.96152e-07
-2.03799e-07
0.000268162
-1.23381e-06
0.000270204
-0.000268178
2.36449e-07
2.44018e-07
-1.26749e-07
-5.16342e-08
0.00113196
-2.34563e-07
1.23419e-06
2.70517e-07
9.09748e-07
-2.16032e-07
2.67162e-07
-8.5329e-07
-1.25468e-07
-0.00113141
-5.11589e-08
-1.19113e-06
2.70147e-07
-2.34673e-07
-8.53407e-07
2.66702e-07
9.09167e-07
-2.16361e-07
1.23392e-06
0.00113193
-1.25502e-07
-0.00113194
-5.11337e-08
-1.19127e-06
2.70239e-07
-2.34788e-07
-8.53643e-07
2.66774e-07
-2.16388e-07
9.09397e-07
-0.000268191
2.3889e-07
2.44208e-07
1.23069e-06
1.19407e-06
-1.96411e-07
-2.04218e-07
0.000268202
-1.27288e-06
-1.23625e-06
0.000270248
-0.000268218
2.35834e-07
2.43745e-07
-5.11924e-08
0.00113092
-2.40277e-07
1.27318e-06
2.7546e-07
9.09112e-07
-2.13804e-07
-8.53754e-07
2.63847e-07
-1.2362e-06
-1.25227e-07
-5.10618e-08
0.00113137
-2.43151e-07
1.27865e-06
2.78271e-07
9.14664e-07
-2.16603e-07
-8.59257e-07
2.6664e-07
0.00113091
-1.23517e-07
-0.00113091
-5.04995e-08
-1.23094e-06
2.75158e-07
-2.40534e-07
-8.54163e-07
2.63417e-07
-2.14204e-07
9.08721e-07
1.27835e-06
0.00113135
-1.23566e-07
-0.00113136
-5.03774e-08
-1.23645e-06
2.77969e-07
-2.43409e-07
-8.59666e-07
2.66207e-07
-2.17003e-07
9.1427e-07
-1.9909e-07
-2.01541e-07
0.000268224
-1.23895e-06
0.000270277
-0.00026824
2.38648e-07
2.40983e-07
-5.11869e-08
0.00113203
-2.37666e-07
1.23655e-06
2.72928e-07
9.11957e-07
-2.16562e-07
-8.56426e-07
2.66717e-07
-1.23076e-06
-1.25177e-07
-5.10995e-08
0.00113103
-2.4315e-07
1.2732e-06
2.7827e-07
9.11782e-07
-2.16539e-07
-8.56426e-07
2.66573e-07
0.00113201
-1.23918e-07
-0.00113202
-5.04534e-08
-1.19431e-06
2.72624e-07
-2.37922e-07
-8.56843e-07
2.66295e-07
-2.16963e-07
9.11569e-07
1.2729e-06
0.00113101
-1.23511e-07
-0.00113101
-5.04208e-08
-1.23101e-06
2.77968e-07
-2.43407e-07
-8.56834e-07
2.66141e-07
-2.1694e-07
9.11386e-07
-1.25225e-07
-5.11048e-08
0.00113082
-2.37488e-07
1.26775e-06
2.72664e-07
9.09128e-07
-2.13782e-07
2.63845e-07
-8.53763e-07
-1.2387e-07
-0.00113175
-5.05605e-08
-1.19693e-06
2.69769e-07
-2.35004e-07
-8.54126e-07
2.63496e-07
9.08791e-07
-2.1416e-07
1.26745e-06
0.0011308
-1.23566e-07
-0.00113081
-5.04307e-08
-1.22556e-06
2.7236e-07
-2.37746e-07
-8.5417e-07
2.63414e-07
-2.14182e-07
9.08733e-07
-1.96469e-07
-2.0412e-07
0.000268183
-1.23345e-06
0.000270226
-0.000268199
2.35977e-07
2.43549e-07
-1.25601e-07
-5.11728e-08
0.00113193
-2.34879e-07
1.23386e-06
2.70179e-07
9.0932e-07
-2.16521e-07
2.66685e-07
-8.53791e-07
-1.23897e-07
-0.00113138
-5.05233e-08
-1.19148e-06
2.69781e-07
-2.35023e-07
-8.53961e-07
2.66182e-07
9.08692e-07
-2.16894e-07
1.23356e-06
0.00113191
-1.2393e-07
-0.00113191
-5.04935e-08
-1.19161e-06
2.69874e-07
-2.35137e-07
-8.54199e-07
2.66252e-07
-2.16923e-07
9.08925e-07
-0.000268212
2.38418e-07
2.43737e-07
1.23106e-06
1.19444e-06
-1.96778e-07
-2.04586e-07
0.000268224
-1.2725e-06
-1.23587e-06
0.00027027
-0.00026824
2.35336e-07
2.43246e-07
-5.06073e-08
0.0011309
-2.40644e-07
1.27283e-06
2.751e-07
9.08642e-07
-2.14358e-07
-8.54333e-07
2.6333e-07
-1.23657e-06
-1.23744e-07
-5.04607e-08
0.00113135
-2.43519e-07
1.2783e-06
2.77911e-07
9.14193e-07
-2.17157e-07
-8.59836e-07
2.66122e-07
0.00113089
-1.21562e-07
-0.00113089
-4.97056e-08
-1.23135e-06
2.74762e-07
-2.40928e-07
-8.54785e-07
2.6285e-07
-2.14792e-07
9.08193e-07
1.27797e-06
0.00113133
-1.21615e-07
-0.00113134
-4.9575e-08
-1.23686e-06
2.77575e-07
-2.43803e-07
-8.60286e-07
2.65638e-07
-2.17593e-07
9.13739e-07
-1.99457e-07
-2.01907e-07
0.000268245
-1.23856e-06
0.0002703
-0.000268262
2.38149e-07