/*--------------------------------*- C++ -*----------------------------------*\
| =========                 |                                                 |
| \\      /  F ield         | OpenFOAM: The Open Source CFD Toolbox           |
|  \\    /   O peration     | Version:  v1906                                 |
|   \\  /    A nd           | Web:      www.OpenFOAM.com                      |
|    \\/     M anipulation  |                                                 |
\*---------------------------------------------------------------------------*/
FoamFile
{
    version     2.0;
    format      ascii;
    class       volScalarField;
    location    "600";
    object      epsilon;
}
// * * * * * * * * * * * * * * * * * * * * * * * * * * * * * * * * * * * * * //

dimensions      [0 2 -3 0 0 0 0];


internalField   nonuniform List<scalar> 
42616
(
4.95569e-07
4.97406e-07
4.97401e-07
4.99626e-07
4.4558e-07
4.53876e-07
4.53867e-07
4.63965e-07
4.03769e-07
4.18667e-07
4.18661e-07
4.39605e-07
3.68384e-07
3.88676e-07
3.88672e-07
4.17704e-07
3.38033e-07
3.62174e-07
3.62172e-07
3.95963e-07
3.11656e-07
3.38286e-07
3.38285e-07
3.74332e-07
2.88471e-07
3.16596e-07
3.16598e-07
3.53385e-07
2.67907e-07
2.96931e-07
2.96941e-07
3.33731e-07
2.49549e-07
2.79232e-07
2.7925e-07
3.1578e-07
2.33091e-07
2.63499e-07
2.63521e-07
3.00335e-07
2.18305e-07
2.49738e-07
2.49759e-07
2.87605e-07
2.05017e-07
2.37941e-07
2.37965e-07
2.77822e-07
1.93085e-07
2.28111e-07
2.28143e-07
2.71122e-07
1.82399e-07
2.20261e-07
2.20298e-07
2.67493e-07
1.72866e-07
2.14391e-07
2.14432e-07
2.66936e-07
1.64413e-07
2.10514e-07
2.10558e-07
2.69734e-07
1.56977e-07
2.08636e-07
2.08682e-07
2.75849e-07
1.50505e-07
2.08765e-07
2.08812e-07
2.8523e-07
1.44952e-07
2.10964e-07
2.11003e-07
2.98053e-07
1.40284e-07
2.15232e-07
2.1527e-07
3.14313e-07
1.3647e-07
2.21591e-07
2.2163e-07
3.33824e-07
5.0641e-07
5.05554e-07
5.05551e-07
5.0641e-07
5.05553e-07
5.05555e-07
5.09645e-07
5.09644e-07
5.09645e-07
5.09645e-07
5.05559e-07
5.05549e-07
5.06416e-07
5.05559e-07
5.05545e-07
5.06405e-07
4.99594e-07
4.67405e-07
4.97401e-07
4.97417e-07
4.63821e-07
4.63855e-07
4.9963e-07
4.67472e-07
4.97407e-07
4.97411e-07
4.63828e-07
4.63838e-07
4.97404e-07
4.63835e-07
4.63836e-07
4.9961e-07
4.67432e-07
4.97412e-07
4.63824e-07
4.63846e-07
4.67452e-07
4.63917e-07
4.41578e-07
4.53865e-07
4.53902e-07
4.26879e-07
4.26919e-07
4.6399e-07
4.41631e-07
4.53874e-07
4.53883e-07
4.26887e-07
4.26895e-07
4.53886e-07
4.26886e-07
4.26903e-07
4.63941e-07
4.41591e-07
4.53894e-07
4.26881e-07
4.26907e-07
4.41613e-07
4.39573e-07
4.19293e-07
4.18663e-07
4.18702e-07
3.958e-07
3.95834e-07
4.3963e-07
4.19331e-07
4.18669e-07
4.18678e-07
3.95799e-07
3.95813e-07
4.18686e-07
3.958e-07
3.95818e-07
4.39589e-07
4.19328e-07
4.18687e-07
3.95796e-07
3.95813e-07
4.19307e-07
4.17687e-07
3.97479e-07
3.88679e-07
3.88711e-07
3.68537e-07
3.68561e-07
4.17719e-07
3.97556e-07
3.88676e-07
3.88692e-07
3.68529e-07
3.68546e-07
3.88696e-07
3.68532e-07
3.68551e-07
4.17671e-07
3.97557e-07
3.88689e-07
3.6853e-07
3.68538e-07
3.97506e-07
3.9596e-07
3.75773e-07
3.62182e-07
3.62204e-07
3.44056e-07
3.44067e-07
3.95916e-07
3.75855e-07
3.62172e-07
3.6219e-07
3.4404e-07
3.44059e-07
3.62195e-07
3.44043e-07
3.44066e-07
3.95865e-07
3.75897e-07
3.6218e-07
3.44042e-07
3.44046e-07
3.75818e-07
3.74363e-07
3.54695e-07
3.38303e-07
3.3831e-07
3.21848e-07
3.21846e-07
3.74274e-07
3.54785e-07
3.38286e-07
3.38305e-07
3.21825e-07
3.21848e-07
3.38312e-07
3.21827e-07
3.21854e-07
3.74211e-07
3.54835e-07
3.38291e-07
3.21827e-07
3.21829e-07
3.54733e-07
3.53417e-07
3.34899e-07
3.16619e-07
3.16617e-07
3.01687e-07
3.01681e-07
3.53282e-07
3.34977e-07
3.16595e-07
3.16619e-07
3.01657e-07
3.01687e-07
3.16625e-07
3.01663e-07
3.01691e-07
3.53265e-07
3.34906e-07
3.16599e-07
3.0167e-07
3.01664e-07
3.34936e-07
3.33788e-07
3.17111e-07
2.96957e-07
2.96949e-07
2.83503e-07
2.83491e-07
3.33628e-07
3.16982e-07
2.96925e-07
2.96956e-07
2.83466e-07
2.83497e-07
2.96959e-07
2.83474e-07
2.83503e-07
3.33821e-07
3.17115e-07
2.96932e-07
2.8349e-07
2.83476e-07
3.17143e-07
3.15918e-07
3.01348e-07
2.79263e-07
2.79248e-07
2.67283e-07
2.67261e-07
3.15989e-07
3.01279e-07
2.79224e-07
2.79253e-07
2.67241e-07
2.67267e-07
2.7926e-07
2.67248e-07
2.67277e-07
3.15921e-07
3.01438e-07
2.79234e-07
2.67269e-07
2.67251e-07
3.01495e-07
3.006e-07
2.88473e-07
2.63535e-07
2.63509e-07
2.53035e-07
2.53005e-07
3.0057e-07
2.88416e-07
2.63493e-07
2.63517e-07
2.52992e-07
2.53013e-07
2.63528e-07
2.52994e-07
2.53025e-07
3.00471e-07
2.88289e-07
2.63503e-07
2.53016e-07
2.52999e-07
2.88432e-07
2.87624e-07
2.78274e-07
2.4978e-07
2.49747e-07
2.40756e-07
2.40719e-07
2.87575e-07
2.78119e-07
2.49737e-07
2.49757e-07
2.40713e-07
2.40733e-07
2.49769e-07
2.40706e-07
2.40743e-07
2.87889e-07
2.78019e-07
2.49745e-07
2.4073e-07
2.40718e-07
2.78162e-07
2.77798e-07
2.71122e-07
2.37992e-07
2.37954e-07
2.30445e-07
2.30402e-07
2.77802e-07
2.7114e-07
2.37951e-07
2.37971e-07
2.30404e-07
2.30426e-07
2.37979e-07
2.30383e-07
2.30428e-07
2.77931e-07
2.71041e-07
2.37955e-07
2.30412e-07
2.30406e-07
2.71205e-07
2.71284e-07
2.6717e-07
2.28175e-07
2.28133e-07
2.22108e-07
2.22063e-07
2.71079e-07
2.67129e-07
2.28137e-07
2.2816e-07
2.22069e-07
2.22095e-07
2.28159e-07
2.22035e-07
2.22089e-07
2.71339e-07
2.67183e-07
2.28137e-07
2.22071e-07
2.22067e-07
2.672e-07
2.67483e-07
2.66289e-07
2.20334e-07
2.20292e-07
2.15746e-07
2.15703e-07
2.67427e-07
2.66216e-07
2.20297e-07
2.20324e-07
2.15708e-07
2.15737e-07
2.20316e-07
2.15667e-07
2.15725e-07
2.67501e-07
2.66304e-07
2.20294e-07
2.15705e-07
2.15703e-07
2.66295e-07
2.66942e-07
2.68412e-07
2.14472e-07
2.14432e-07
2.11368e-07
2.11334e-07
2.66871e-07
2.68346e-07
2.14436e-07
2.14467e-07
2.11334e-07
2.11367e-07
2.14451e-07
2.11285e-07
2.11348e-07
2.66954e-07
2.68431e-07
2.14429e-07
2.11328e-07
2.11323e-07
2.68423e-07
2.69753e-07
2.73869e-07
2.10601e-07
2.10566e-07
2.08986e-07
2.08953e-07
2.69668e-07
2.73749e-07
2.10566e-07
2.10599e-07
2.08951e-07
2.08986e-07
2.10579e-07
2.08895e-07
2.08963e-07
2.69751e-07
2.73863e-07
2.10555e-07
2.08941e-07
2.08938e-07
2.73892e-07
2.75876e-07
2.82805e-07
2.08729e-07
2.08694e-07
2.0866e-07
2.08618e-07
2.75801e-07
2.8231e-07
2.08692e-07
2.08728e-07
2.08615e-07
2.08654e-07
2.08705e-07
2.08562e-07
2.08634e-07
2.75879e-07
2.8285e-07
2.08681e-07
2.08605e-07
2.08603e-07
2.82884e-07
2.85289e-07
2.94852e-07
2.08856e-07
2.08833e-07
2.10315e-07
2.10283e-07
2.85523e-07
2.94531e-07
2.08828e-07
2.08869e-07
2.1027e-07
2.10317e-07
2.08831e-07
2.10217e-07
2.10285e-07
2.85281e-07
2.94844e-07
2.08809e-07
2.10257e-07
2.10257e-07
2.95067e-07
2.98185e-07
3.10611e-07
2.11055e-07
2.11034e-07
2.14069e-07
2.14041e-07
2.98331e-07
3.10059e-07
2.11025e-07
2.11069e-07
2.14016e-07
2.14072e-07
2.11031e-07
2.13967e-07
2.14037e-07
2.98054e-07
3.10532e-07
2.11003e-07
2.14004e-07
2.14005e-07
3.10545e-07
3.14378e-07
3.29756e-07
2.15321e-07
2.1531e-07
2.19909e-07
2.19895e-07
3.14587e-07
3.28944e-07
2.15297e-07
2.15343e-07
2.19851e-07
2.1992e-07
2.153e-07
2.19807e-07
2.19879e-07
3.14367e-07
3.29666e-07
2.1527e-07
2.19843e-07
2.19844e-07
3.29449e-07
3.34086e-07
2.21671e-07
2.21685e-07
3.34444e-07
2.2166e-07
2.21712e-07
2.21661e-07
3.34099e-07
2.21628e-07
5.35663e-07
5.35602e-07
5.35656e-07
5.35656e-07
5.34607e-07
5.35516e-07
5.33369e-07
5.35656e-07
5.34602e-07
5.35515e-07
5.35656e-07
5.33608e-07
5.35249e-07
5.35541e-07
5.35634e-07
1.10582e-06
3.86456e-06
9.38934e-07
4.59092e-06
1.27395e-05
1.66549e-05
1.10703e-06
3.86356e-06
9.40456e-07
4.59082e-06
4.95568e-07
4.95569e-07
4.95568e-07
4.57234e-07
4.57235e-07
4.57235e-07
4.57235e-07
5.43364e-07
1.22681e-06
4.95577e-07
4.85571e-07
5.26135e-07
1.21486e-06
4.82309e-07
1.27329e-05
1.66591e-05
5.43312e-07
4.95575e-07
1.22649e-06
4.85566e-07
5.25902e-07
4.82308e-07
1.21608e-06
2.55297e-06
2.53688e-06
4.84307e-07
2.3888e-06
2.38503e-06
1.42749e-06
5.58189e-06
1.32976e-06
6.13202e-06
2.13186e-05
2.31394e-05
1.42807e-06
5.58139e-06
1.33028e-06
6.13141e-06
4.45581e-07
4.45581e-07
4.45581e-07
4.13557e-07
4.1356e-07
4.13559e-07
4.13561e-07
5.87298e-07
1.19971e-06
4.46462e-07
4.44441e-07
5.74224e-07
1.20822e-06
4.35726e-07
2.13241e-05
2.3146e-05
5.87335e-07
4.46462e-07
1.19945e-06
4.44433e-07
5.74219e-07
4.35727e-07
1.20935e-06
2.30865e-06
2.3069e-06
4.53717e-07
2.34436e-06
2.34387e-06
1.65871e-06
6.91449e-06
1.59206e-06
7.32134e-06
2.46461e-05
2.49396e-05
1.65881e-06
6.91422e-06
1.59199e-06
7.32175e-06
4.03772e-07
4.0377e-07
4.03773e-07
3.7671e-07
3.76714e-07
3.76712e-07
3.76714e-07
6.15352e-07
1.24773e-06
4.06598e-07
4.1077e-07
6.08222e-07
1.2699e-06
3.97784e-07
2.46507e-05
2.49436e-05
6.15363e-07
4.06599e-07
1.2468e-06
4.10764e-07
6.08224e-07
3.97786e-07
1.27115e-06
2.46215e-06
2.46179e-06
4.30296e-07
2.52018e-06
2.51969e-06
1.80851e-06
7.84495e-06
1.76728e-06
8.10168e-06
2.47299e-05
2.44312e-05
1.80746e-06
7.84594e-06
1.76789e-06
8.10317e-06
3.68388e-07
3.68386e-07
3.68389e-07
3.45212e-07
3.45217e-07
3.45215e-07
3.45217e-07
6.25731e-07
1.31828e-06
3.73536e-07
3.8177e-07
6.24346e-07
1.33789e-06
3.66085e-07
2.4733e-05
2.44332e-05
6.25723e-07
3.73537e-07
1.31825e-06
3.81767e-07
6.24487e-07
3.66087e-07
1.33795e-06
2.62515e-06
2.62501e-06
4.08401e-07
2.67031e-06
2.66981e-06
1.8899e-06
8.3938e-06
1.86845e-06
8.53058e-06
2.36825e-05
2.32662e-05
1.88813e-06
8.39505e-06
1.86949e-06
8.53206e-06
3.38037e-07
3.38035e-07
3.38038e-07
3.17925e-07
3.17928e-07
3.17927e-07
3.17929e-07
6.21157e-07
1.37737e-06
3.45286e-07
3.55981e-07
6.24744e-07
1.39069e-06
3.38807e-07
2.36837e-05
2.32689e-05
6.211e-07
3.45286e-07
1.3773e-06
3.5598e-07
6.24788e-07
3.38809e-07
1.39076e-06
2.75832e-06
2.75867e-06
3.86624e-07
2.80076e-06
2.80011e-06
1.92609e-06
8.66111e-06
1.91801e-06
8.71756e-06
2.24946e-05
2.21235e-05
1.92633e-06
8.66227e-06
1.91833e-06
8.7186e-06
3.11659e-07
3.11658e-07
3.11661e-07
2.94002e-07
2.94004e-07
2.94004e-07
2.94007e-07
6.07694e-07
1.42059e-06
3.20517e-07
3.32669e-07
6.14499e-07
1.43028e-06
3.14764e-07
2.24955e-05
2.21258e-05
6.07662e-07
3.20517e-07
1.42113e-06
3.32669e-07
6.14436e-07
3.14766e-07
1.43017e-06
2.8939e-06
2.89467e-06
3.65163e-07
2.9421e-06
2.94155e-06
1.94396e-06
8.75699e-06
1.93998e-06
8.76877e-06
2.14737e-05
2.1183e-05
1.94391e-06
8.7579e-06
1.94009e-06
8.76945e-06
2.88473e-07
2.88473e-07
2.88475e-07
2.72827e-07
2.72828e-07
2.7283e-07
2.72831e-07
5.90535e-07
1.45608e-06
2.98409e-07
3.11495e-07
5.98346e-07
1.46584e-06
2.93236e-07
2.14745e-05
2.11845e-05
5.90784e-07
2.98409e-07
1.45686e-06
3.11499e-07
5.98324e-07
2.93238e-07
1.46584e-06
3.05003e-06
3.05088e-06
3.44645e-07
3.106e-06
3.10579e-06
1.96225e-06
8.7651e-06
1.95625e-06
8.76036e-06
2.06747e-05
2.04551e-05
1.96151e-06
8.7656e-06
1.95619e-06
8.76085e-06
2.67908e-07
2.6791e-07
2.67911e-07
2.53949e-07
2.5395e-07
2.53953e-07
2.53953e-07
5.74296e-07
1.49532e-06
2.78473e-07
2.92323e-07
5.81174e-07
1.50642e-06
2.73791e-07
2.06754e-05
2.04573e-05
5.74099e-07
2.78476e-07
1.49552e-06
2.92335e-07
5.80875e-07
2.73797e-07
1.50737e-06
3.22925e-06
3.23031e-06
3.25711e-07
3.29115e-06
3.29203e-06
1.99387e-06
8.74492e-06
1.98153e-06
8.73963e-06
2.00745e-05
1.99123e-05
1.9919e-06
8.7454e-06
1.98166e-06
8.7402e-06
2.49549e-07
2.49552e-07
2.49552e-07
2.3704e-07
2.37039e-07
2.37044e-07
2.37043e-07
5.61788e-07
1.54349e-06
2.60418e-07
2.75115e-07
5.66343e-07
1.55921e-06
2.56177e-07
2.0075e-05
1.99151e-05
5.61542e-07
2.60426e-07
1.54354e-06
2.75135e-07
5.66776e-07
2.56188e-07
1.55937e-06
3.42473e-06
3.42742e-06
3.09055e-07
3.49384e-06
3.49372e-06
2.04508e-06
8.7296e-06
2.02438e-06
8.72803e-06
1.96359e-05
1.95178e-05
2.04299e-06
8.73047e-06
2.02579e-06
8.7291e-06
2.33089e-07
2.33094e-07
2.33094e-07
2.21855e-07
2.21852e-07
2.21857e-07
2.21857e-07
5.55561e-07
1.60461e-06
2.44073e-07
2.59875e-07
5.57476e-07
1.62532e-06
2.40241e-07
1.96359e-05
1.95212e-05
5.55619e-07
2.44084e-07
1.60317e-06
2.59897e-07
5.57732e-07
2.40254e-07
1.6272e-06
3.63184e-06
3.63244e-06
2.94676e-07
3.70204e-06
3.70455e-06
2.1195e-06
8.72789e-06
2.09059e-06
8.73107e-06
1.93218e-05
1.92385e-05
2.11774e-06
8.72916e-06
2.09182e-06
8.73269e-06
2.18302e-07
2.18307e-07
2.18307e-07
2.08206e-07
2.082e-07
2.08206e-07
2.08207e-07
5.56822e-07
1.67984e-06
2.29329e-07
2.46606e-07
5.55922e-07
1.7054e-06
2.25883e-07
1.93213e-05
1.92423e-05
5.56858e-07
2.29339e-07
1.67814e-06
2.46627e-07
5.56033e-07
2.25896e-07
1.70745e-06
3.84142e-06
3.84144e-06
2.83055e-07
3.91025e-06
3.913e-06
2.21793e-06
8.7384e-06
2.18351e-06
8.74526e-06
1.91013e-05
1.90432e-05
2.21765e-06
8.73935e-06
2.18307e-06
8.74774e-06
2.0501e-07
2.05017e-07
2.05018e-07
1.95946e-07
1.95938e-07
1.95946e-07
1.95946e-07
5.66102e-07
1.76846e-06
2.16106e-07
2.35298e-07
5.62529e-07
1.79825e-06
2.13032e-07
1.91004e-05
1.90471e-05
5.66098e-07
2.16115e-07
1.76696e-06
2.35325e-07
5.62665e-07
2.13043e-07
1.80052e-06
4.04469e-06
4.04595e-06
2.74312e-07
4.11108e-06
4.11063e-06
2.3425e-06
8.75729e-06
2.30002e-06
8.76593e-06
1.89479e-05
1.89073e-05
2.34219e-06
8.75855e-06
2.30018e-06
8.76849e-06
1.93076e-07
1.93085e-07
1.93085e-07
1.84957e-07
1.84945e-07
1.84956e-07
1.84955e-07
5.85148e-07
1.86868e-06
2.04344e-07
2.25962e-07
5.78413e-07
1.90176e-06
2.01624e-07
1.89465e-05
1.89111e-05
5.8508e-07
2.04352e-07
1.86704e-06
2.25995e-07
5.7847e-07
2.01635e-07
1.90407e-06
4.2359e-06
4.23776e-06
2.68842e-07
4.29728e-06
4.29924e-06
2.48891e-06
8.77911e-06
2.44033e-06
8.78783e-06
1.88401e-05
1.88114e-05
2.4892e-06
8.78046e-06
2.44005e-06
8.7903e-06
1.82386e-07
1.82398e-07
1.82397e-07
1.75143e-07
1.75129e-07
1.75142e-07
1.7514e-07
6.14692e-07
1.9776e-06
1.93988e-07
2.18603e-07
6.03716e-07
2.01281e-06
1.91612e-07
1.88384e-05
1.88152e-05
6.14394e-07
1.93995e-07
1.97764e-06
2.18642e-07
6.04151e-07
1.91623e-07
2.01313e-06
4.41169e-06
4.41147e-06
2.66362e-07
4.46352e-06
4.46688e-06
2.65279e-06
8.80036e-06
2.59912e-06
8.80838e-06
1.87622e-05
1.87412e-05
2.65304e-06
8.80175e-06
2.59919e-06
8.8108e-06
1.72851e-07
1.72865e-07
1.72863e-07
1.66426e-07
1.6641e-07
1.66425e-07
1.66423e-07
6.54195e-07
2.09034e-06
1.84996e-07
2.13228e-07
6.39763e-07
2.12981e-06
1.82953e-07
1.87605e-05
1.87443e-05
6.53647e-07
1.85002e-07
2.09184e-06
2.13269e-07
6.40016e-07
1.82963e-07
2.1281e-06
4.56473e-06
4.56741e-06
2.66952e-07
4.61201e-06
4.61224e-06
2.82688e-06
8.81978e-06
2.77033e-06
8.827e-06
1.87026e-05
1.86866e-05
2.82708e-06
8.82119e-06
2.77046e-06
8.82939e-06
1.64397e-07
1.64412e-07
1.64409e-07
1.58741e-07
1.58725e-07
1.5874e-07
1.58737e-07
7.03722e-07
2.20596e-06
1.77327e-07
2.09842e-07
6.85923e-07
2.24555e-06
1.75609e-07
1.87019e-05
1.8688e-05
7.03245e-07
1.77333e-07
2.20774e-06
2.09885e-07
6.86353e-07
1.75619e-07
2.24395e-06
4.69718e-06
4.70037e-06
2.70732e-07
4.73769e-06
4.73801e-06
3.00393e-06
8.83734e-06
2.94534e-06
8.84402e-06
1.86533e-05
1.86403e-05
3.00449e-06
8.83882e-06
2.94536e-06
8.84639e-06
1.5696e-07
1.56976e-07
1.56972e-07
1.52034e-07
1.52018e-07
1.52033e-07
1.5203e-07
7.63452e-07
2.322e-06
1.70954e-07
2.08457e-07
7.42162e-07
2.35752e-06
1.69556e-07
1.86537e-05
1.86413e-05
7.62448e-07
1.70958e-07
2.32219e-06
2.08502e-07
7.42675e-07
1.69564e-07
2.35747e-06
4.80932e-06
4.81143e-06
2.78053e-07
4.8433e-06
4.8453e-06
3.17309e-06
8.85359e-06
3.11797e-06
8.85981e-06
1.86103e-05
1.85986e-05
3.17322e-06
8.85513e-06
3.11872e-06
8.86223e-06
1.50489e-07
1.50504e-07
1.50499e-07
1.46255e-07
1.46241e-07
1.46254e-07
1.46251e-07
8.31526e-07
2.43239e-06
1.6586e-07
2.09119e-07
8.07518e-07
2.46606e-06
1.64778e-07
1.86111e-05
1.86e-05
8.31392e-07
1.65862e-07
2.43259e-06
2.09164e-07
8.08044e-07
1.64784e-07
2.46603e-06
4.90396e-06
4.90587e-06
2.88554e-07
4.92922e-06
4.9312e-06
3.33002e-06
8.86876e-06
3.27938e-06
8.87469e-06
1.85709e-05
1.85608e-05
3.33017e-06
8.87045e-06
3.27958e-06
8.87716e-06
1.44938e-07
1.44953e-07
1.44947e-07
1.4137e-07
1.41358e-07
1.41369e-07
1.41366e-07
9.06989e-07
2.53656e-06
1.62038e-07
2.11834e-07
8.81295e-07
2.56757e-06
1.6127e-07
1.85722e-05
1.85621e-05
9.07395e-07
1.62038e-07
2.53554e-06
2.11872e-07
8.81046e-07
1.61274e-07
2.56926e-06
4.98083e-06
4.98269e-06
3.02428e-07
5.001e-06
5.00293e-06
3.46733e-06
8.88323e-06
3.42458e-06
8.8888e-06
1.85349e-05
1.85253e-05
3.46759e-06
8.88495e-06
3.42483e-06
8.89124e-06
1.40271e-07
1.40285e-07
1.40279e-07
1.37345e-07
1.37336e-07
1.37346e-07
1.37343e-07
9.88354e-07
2.63281e-06
1.5949e-07
2.16626e-07
9.60729e-07
2.6609e-06
1.59035e-07
1.85361e-05
1.85267e-05
9.88444e-07
1.59491e-07
2.63161e-06
2.16663e-07
9.60579e-07
1.59039e-07
2.66263e-06
5.04364e-06
5.04549e-06
3.19629e-07
5.05961e-06
5.06154e-06
3.58428e-06
8.89677e-06
3.54903e-06
8.9019e-06
1.85009e-05
1.8492e-05
8.89843e-06
3.54923e-06
8.9044e-06
1.36458e-07
1.36473e-07
1.36465e-07
1.07274e-06
2.72052e-06
1.5822e-07
2.23519e-07
1.04421e-06
2.74748e-06
1.58076e-07
1.85023e-05
1.07201e-06
1.58227e-07
2.71935e-06
1.0443e-06
1.58078e-07
5.09493e-06
5.0968e-06
3.39211e-07
5.10708e-06
5.10905e-06
5.35253e-07
5.3548e-07
5.35523e-07
1.08493e-05
5.81018e-07
1.08546e-05
5.81242e-07
5.28222e-07
2.50685e-06
2.50336e-06
5.40238e-07
5.40412e-07
5.3462e-07
5.35515e-07
5.33168e-07
5.35656e-07
5.34618e-07
5.35514e-07
5.3321e-07
5.35656e-07
5.30328e-07
3.46129e-06
5.73165e-07
8.24751e-07
5.3023e-07
3.46038e-06
5.73253e-07
8.24859e-07
5.29369e-07
5.28384e-07
1.18067e-06
5.09596e-07
5.33276e-07
5.2835e-07
5.19494e-07
5.29362e-07
5.28386e-07
1.18278e-06
5.09595e-07
5.3349e-07
5.2835e-07
5.19471e-07
5.35246e-07
5.36534e-07
5.36006e-07
1.0857e-05
5.81351e-07
5.28225e-07
2.48182e-06
2.48178e-06
5.43429e-07
5.42987e-07
1.08518e-05
5.80107e-07
5.3463e-07
5.35515e-07
5.33482e-07
5.35656e-07
5.34602e-07
5.35513e-07
5.35656e-07
5.33442e-07
5.30335e-07
3.46304e-06
5.63495e-07
8.26138e-07
5.29313e-07
5.28385e-07
1.18608e-06
5.09597e-07
5.32384e-07
5.28351e-07
5.19612e-07
5.30237e-07
3.46289e-06
5.63442e-07
8.2385e-07
5.29415e-07
5.28387e-07
5.09595e-07
1.18613e-06
5.2835e-07
5.32439e-07
5.19448e-07
5.35663e-07
5.35602e-07
5.35656e-07
5.35656e-07
5.35663e-07
5.35602e-07
5.35656e-07
5.35656e-07
5.35663e-07
5.35603e-07
5.35656e-07
5.35656e-07
5.28434e-07
5.28375e-07
5.09725e-07
5.09725e-07
5.28408e-07
5.28408e-07
5.09781e-07
5.28434e-07
5.28374e-07
5.09725e-07
5.09725e-07
5.28408e-07
5.28408e-07
5.09781e-07
5.28434e-07
5.28374e-07
5.09725e-07
5.09725e-07
5.28408e-07
5.28408e-07
5.09782e-07
5.28434e-07
5.28373e-07
5.09725e-07
5.09725e-07
5.28408e-07
5.28408e-07
5.09782e-07
5.3461e-07
5.35518e-07
5.35656e-07
5.33328e-07
5.29392e-07
5.28383e-07
1.17981e-06
5.09596e-07
5.33265e-07
5.2835e-07
5.19658e-07
5.30289e-07
3.46138e-06
5.73066e-07
8.26271e-07
5.29391e-07
5.28381e-07
5.09595e-07
1.1758e-06
5.2835e-07
5.33355e-07
5.19483e-07
5.30228e-07
3.46167e-06
5.73296e-07
8.24973e-07
5.35247e-07
5.35557e-07
5.35782e-07
1.08531e-05
5.80341e-07
5.28228e-07
2.50108e-06
2.5069e-06
5.40494e-07
5.40273e-07
1.08561e-05
5.80241e-07
5.34618e-07
5.35518e-07
5.35656e-07
5.33332e-07
5.29413e-07
5.28383e-07
5.09595e-07
1.18543e-06
5.2835e-07
5.3236e-07
5.19476e-07
5.29365e-07
5.2838e-07
5.09596e-07
1.17531e-06
5.2835e-07
5.3328e-07
5.19571e-07
5.30341e-07
3.46337e-06
5.63035e-07
8.24121e-07
5.30238e-07
3.4614e-06
5.73164e-07
8.25117e-07
5.28224e-07
2.50804e-06
2.47738e-06
5.44442e-07
5.42584e-07
1.08459e-05
5.81144e-07
1.08495e-05
5.81408e-07
1.27374e-05
1.66647e-05
1.27287e-05
1.66649e-05
2.54797e-06
2.54637e-06
4.84272e-07
2.38607e-06
2.38585e-06
2.05836e-05
1.77336e-05
2.05857e-05
1.77348e-05
4.79427e-07
2.30347e-06
2.30369e-06
2.35269e-06
2.35236e-06
1.10569e-06
3.86455e-06
9.39452e-07
4.59017e-06
5.43275e-07
1.23475e-06
4.95575e-07
4.85559e-07
5.25926e-07
1.21554e-06
4.82307e-07
5.43299e-07
1.23721e-06
4.95575e-07
4.85582e-07
5.25936e-07
1.21693e-06
4.82307e-07
1.16219e-06
5.39789e-06
4.7933e-06
1.28036e-06
1.16234e-06
5.39715e-06
4.79185e-06
1.28039e-06
5.51339e-07
4.7437e-07
1.19872e-06
4.5778e-07
1.2093e-06
4.69718e-07
5.66827e-07
5.51368e-07
4.74398e-07
1.19929e-06
4.57782e-07
1.21116e-06
4.69719e-07
5.66854e-07
2.5462e-06
2.54356e-06
4.84322e-07
2.38548e-06
2.38369e-06
1.27379e-05
1.66649e-05
2.05781e-05
1.77348e-05
4.79481e-07
2.30162e-06
2.30204e-06
2.34912e-06
2.34854e-06
2.05832e-05
1.77334e-05
5.43623e-07
1.23568e-06
4.95578e-07
4.85568e-07
5.2622e-07
1.21603e-06
4.82313e-07
1.10611e-06
3.86495e-06
9.38878e-07
4.59187e-06
5.4338e-07
4.95576e-07
1.23593e-06
4.85575e-07
5.25944e-07
4.82309e-07
1.21557e-06
1.16318e-06
5.39735e-06
4.79264e-06
1.28099e-06
5.51644e-07
4.74378e-07
1.19895e-06
4.5779e-07
1.21082e-06
4.69726e-07
5.67047e-07
1.16232e-06
5.39901e-06
4.79367e-06
1.28054e-06
5.51384e-07
4.74387e-07
4.57782e-07
1.19902e-06
4.6972e-07
1.2103e-06
5.66858e-07
1.10583e-06
3.8656e-06
9.403e-07
4.59162e-06
5.4326e-07
4.95573e-07
1.23817e-06
4.85569e-07
5.25886e-07
4.82306e-07
1.21871e-06
1.10566e-06
3.86569e-06
9.3896e-07
4.59188e-06
5.51394e-07
4.74383e-07
1.19805e-06
4.5778e-07
1.20886e-06
4.69719e-07
5.66826e-07
1.1623e-06
5.39825e-06
4.79228e-06
1.28048e-06
5.51323e-07
4.74381e-07
4.57781e-07
1.19989e-06
4.69718e-07
1.21223e-06
5.66854e-07
1.16206e-06
5.39899e-06
4.79338e-06
1.28042e-06
2.54694e-06
2.55022e-06
4.8429e-07
2.38691e-06
2.38771e-06
1.27293e-05
1.66659e-05
2.0585e-05
1.77377e-05
4.79448e-07
2.30389e-06
2.3034e-06
2.35343e-06
2.35371e-06
2.05859e-05
1.77365e-05
5.43313e-07
4.95576e-07
1.23865e-06
4.85581e-07
5.25911e-07
4.82307e-07
1.2187e-06
1.10604e-06
3.86526e-06
9.38744e-07
4.59133e-06
1.10596e-06
3.86593e-06
9.38859e-07
4.59192e-06
5.51326e-07
4.74372e-07
4.5778e-07
1.19802e-06
4.69718e-07
1.20987e-06
5.66821e-07
5.51322e-07
4.74392e-07
4.5778e-07
1.19971e-06
4.69718e-07
1.21234e-06
5.66824e-07
1.16194e-06
5.39865e-06
4.79324e-06
1.28051e-06
1.1619e-06
5.39897e-06
4.79324e-06
1.28047e-06
1.27346e-05
1.66677e-05
1.27353e-05
1.66679e-05
4.79462e-07
2.30447e-06
2.30256e-06
2.35109e-06
2.34866e-06
2.05873e-05
1.77375e-05
2.05862e-05
1.77377e-05
2.13234e-05
2.31439e-05
2.13259e-05
2.31464e-05
2.30757e-06
2.30788e-06
4.53668e-07
2.34375e-06
2.34438e-06
2.44876e-05
2.3556e-05
2.449e-05
2.35582e-05
4.51093e-07
2.43019e-06
2.431e-06
2.37139e-06
2.37173e-06
1.42744e-06
5.58094e-06
1.32979e-06
6.13092e-06
5.8726e-07
1.20035e-06
4.46463e-07
4.44429e-07
5.74217e-07
1.20852e-06
4.35727e-07
5.87294e-07
1.20063e-06
4.46466e-07
4.44468e-07
5.74247e-07
1.20994e-06
4.35731e-07
1.47224e-06
6.77735e-06
6.29464e-06
1.55368e-06
1.47214e-06
6.77632e-06
6.29329e-06
1.55356e-06
5.93438e-07
4.35452e-07
1.23551e-06
4.15835e-07
1.2174e-06
4.25531e-07
6.03545e-07
5.9347e-07
4.35491e-07
1.23668e-06
4.15843e-07
1.21679e-06
4.25538e-07
6.03532e-07
2.30583e-06
2.30634e-06
4.53735e-07
2.34215e-06
2.34325e-06
2.1322e-05
2.31426e-05
2.44849e-05
2.35523e-05
4.51158e-07
2.42955e-06
2.42962e-06
2.36992e-06
2.37059e-06
2.44868e-05
2.35546e-05
5.87352e-07
1.20044e-06
4.46472e-07
4.44438e-07
5.74428e-07
1.20981e-06
4.35736e-07
1.42791e-06
5.58273e-06
1.32997e-06
6.13289e-06
5.87248e-07
4.46464e-07
1.20064e-06
4.44447e-07
5.74258e-07
4.35727e-07
1.20877e-06
1.47226e-06
6.77682e-06
6.29398e-06
1.55377e-06
5.93545e-07
4.35462e-07
1.23665e-06
4.15841e-07
1.21667e-06
4.25539e-07
6.03516e-07
1.47218e-06
6.77833e-06
6.29513e-06
1.55378e-06
5.93468e-07
4.35469e-07
4.15835e-07
1.23567e-06
4.25532e-07
1.21769e-06
6.03484e-07
1.42784e-06
5.58172e-06
1.32979e-06
6.13192e-06
5.87277e-07
4.46465e-07
1.20131e-06
4.44452e-07
5.74245e-07
4.3573e-07
1.21051e-06
1.42763e-06
5.58303e-06
1.32982e-06
6.1331e-06
5.93418e-07
4.35461e-07
1.23532e-06
4.15834e-07
1.21709e-06
4.2553e-07
6.036e-07
1.47226e-06
6.77728e-06
6.2941e-06
1.55388e-06
5.93478e-07
4.35476e-07
4.15838e-07
1.23702e-06
4.25535e-07
1.21731e-06
6.03498e-07
1.47222e-06
6.77861e-06
6.29564e-06
1.55396e-06
2.308e-06
2.30731e-06
4.53688e-07
2.34368e-06
2.34369e-06
2.13259e-05
2.31456e-05
2.44905e-05
2.3558e-05
4.51109e-07
2.43036e-06
2.42962e-06
2.37181e-06
2.37063e-06
2.44889e-05
2.35582e-05
5.87286e-07
4.46463e-07
1.20112e-06
4.4446e-07
5.74213e-07
4.35728e-07
1.21037e-06
1.42799e-06
5.58233e-06
1.32994e-06
6.13221e-06
1.42782e-06
5.58263e-06
1.32986e-06
6.1328e-06
5.93412e-07
4.35454e-07
4.15836e-07
1.2365e-06
4.25531e-07
1.21635e-06
6.03622e-07
5.93478e-07
4.35481e-07
4.1584e-07
1.23687e-06
4.25534e-07
1.21718e-06
6.0354e-07
1.47223e-06
6.7775e-06
6.2945e-06
1.55386e-06
1.47221e-06
6.77826e-06
6.29521e-06
1.55374e-06
2.13277e-05
2.3147e-05
2.13269e-05
2.31465e-05
4.51135e-07
2.43064e-06
2.43014e-06
2.37181e-06
2.37112e-06
2.44896e-05
2.35595e-05
2.44898e-05
2.35593e-05
2.46482e-05
2.49404e-05
2.46502e-05
2.49429e-05
2.46235e-06
2.46259e-06
4.30271e-07
2.51974e-06
2.52075e-06
2.48366e-05
2.49397e-05
2.4841e-05
2.49421e-05
4.2857e-07
2.59939e-06
2.60034e-06
2.54929e-06
2.54988e-06
1.65886e-06
6.91335e-06
1.59159e-06
7.32079e-06
6.15253e-07
1.24796e-06
4.06599e-07
4.10766e-07
6.08284e-07
1.26975e-06
3.97785e-07
6.15259e-07
1.24716e-06
4.06608e-07
4.10804e-07
6.08292e-07
1.27103e-06
3.97795e-07
1.69051e-06
7.76115e-06
7.43159e-06
1.7439e-06
1.68952e-06
7.76084e-06
7.43072e-06
1.7432e-06
6.18602e-07
4.03154e-07
1.30618e-06
3.81286e-07
1.28344e-06
3.89358e-07
6.22543e-07
6.18562e-07
4.03191e-07
1.3063e-06
3.81297e-07
1.28256e-06
3.89369e-07
6.22488e-07
2.4615e-06
2.46152e-06
4.30314e-07
2.51994e-06
2.51985e-06
2.4647e-05
2.49402e-05
2.48382e-05
2.4939e-05
4.28614e-07
2.59984e-06
2.59964e-06
2.54924e-06
2.5492e-06
2.48387e-05
2.49396e-05
6.15251e-07
1.24703e-06
4.06603e-07
4.1077e-07
6.08336e-07
1.2711e-06
3.97789e-07
1.6587e-06
6.91521e-06
1.59201e-06
7.32274e-06
6.15185e-07
4.06598e-07
1.24814e-06
4.1078e-07
6.08296e-07
3.97784e-07
1.26992e-06
1.69021e-06
7.76231e-06
7.43182e-06
1.74276e-06
6.18581e-07
4.03156e-07
1.30647e-06
3.81288e-07
1.28255e-06
3.89359e-07
6.22522e-07
1.69036e-06
7.76274e-06
7.43255e-06
1.74263e-06
6.18587e-07
4.03168e-07
3.81285e-07
1.30634e-06
3.89357e-07
1.28362e-06
6.22498e-07
1.65894e-06
6.91409e-06
1.5921e-06
7.32173e-06
6.15223e-07
4.06601e-07
1.24748e-06
4.10788e-07
6.0831e-07
3.97786e-07
1.27122e-06
1.65914e-06
6.9156e-06
1.59202e-06
7.32293e-06
6.18472e-07
4.03155e-07
1.30504e-06
3.81285e-07
1.28337e-06
3.89357e-07
6.22709e-07
1.69034e-06
7.76183e-06
7.43147e-06
1.74284e-06
6.18568e-07
4.03174e-07
3.81286e-07
1.3064e-06
3.89359e-07
1.28272e-06
6.22475e-07
1.69006e-06
7.76293e-06
7.43286e-06
1.74339e-06
2.46266e-06
2.46142e-06
4.30285e-07
2.52003e-06
2.51962e-06
2.46498e-05
2.4942e-05
2.48402e-05
2.49429e-05
4.28584e-07
2.59953e-06
2.59949e-06
2.54976e-06
2.54878e-06
2.4834e-05
2.49413e-05
6.15209e-07
4.06605e-07
1.24736e-06
4.10788e-07
6.08329e-07
3.97792e-07
1.27108e-06
1.6588e-06
6.91454e-06
1.59199e-06
7.32218e-06
1.65852e-06
6.9152e-06
1.59194e-06
7.32252e-06
6.18466e-07
4.03149e-07
3.81287e-07
1.30474e-06
3.89357e-07
1.2825e-06
6.22423e-07
6.18576e-07
4.03171e-07
3.81294e-07
1.30628e-06
3.89367e-07
1.28257e-06
6.22471e-07
1.69021e-06
7.76228e-06
7.4321e-06
1.74265e-06
1.6901e-06
7.76242e-06
7.43245e-06
1.74241e-06
2.46503e-05
2.49423e-05
2.46506e-05
2.49425e-05
4.28591e-07
2.60001e-06
2.59974e-06
2.5492e-06
2.54883e-06
2.48393e-05
2.49415e-05
2.48398e-05
2.49417e-05
2.473e-05
2.44304e-05
2.47317e-05
2.44331e-05
2.62512e-06
2.62576e-06
4.08382e-07
2.66955e-06
2.67035e-06
2.38698e-05
2.42606e-05
2.38724e-05
2.42626e-05
4.06826e-07
2.73596e-06
2.7363e-06
2.693e-06
2.69378e-06
1.80666e-06
7.8442e-06
1.76707e-06
8.10129e-06
6.25765e-07
1.31724e-06
3.73538e-07
3.81772e-07
6.24535e-07
1.339e-06
3.66087e-07
6.2567e-07
1.31731e-06
3.73549e-07
3.81803e-07
6.24479e-07
1.33907e-06
3.66098e-07
1.82596e-06
8.35353e-06
8.16176e-06
1.85636e-06
1.82651e-06
8.3531e-06
8.16107e-06
1.85442e-06
6.26175e-07
3.75063e-07
1.36758e-06
3.51983e-07
1.34861e-06
3.5891e-07
6.24967e-07
6.26117e-07
3.7509e-07
1.36765e-06
3.51993e-07
1.34874e-06
3.5892e-07
6.24835e-07
2.62574e-06
2.62549e-06
4.08414e-07
2.67003e-06
2.67152e-06
2.47297e-05
2.44317e-05
2.38704e-05
2.42616e-05
4.06857e-07
2.73549e-06
2.73719e-06
2.69405e-06
2.69288e-06
2.38717e-05
2.42609e-05
6.25665e-07
1.31738e-06
3.73538e-07
3.81768e-07
6.24521e-07
1.33929e-06
3.66089e-07
1.80715e-06
7.84589e-06
1.76788e-06
8.1031e-06
6.25707e-07
3.73537e-07
1.31743e-06
3.81784e-07
6.24509e-07
3.66086e-07
1.33917e-06
1.82668e-06
8.35517e-06
8.163e-06
1.85452e-06
6.26171e-07
3.75057e-07
1.36789e-06
3.51984e-07
1.34887e-06
3.58909e-07
6.24882e-07
1.82654e-06
8.35486e-06
8.16268e-06
1.85462e-06
6.26152e-07
3.75074e-07
3.51982e-07
1.36773e-06
3.58909e-07
1.34884e-06
6.24861e-07
1.80724e-06
7.84502e-06
1.7681e-06
8.10242e-06
6.25686e-07
3.73539e-07
1.31739e-06
3.81788e-07
6.24488e-07
3.66088e-07
1.33916e-06
1.80683e-06
7.84629e-06
1.76747e-06
8.10338e-06
6.26111e-07
3.75058e-07
1.36621e-06
3.51981e-07
1.34999e-06
3.58907e-07
6.24834e-07
1.82688e-06
8.35429e-06
8.162e-06
1.85477e-06
6.26116e-07
3.75078e-07
3.51984e-07
1.3677e-06
3.58911e-07
1.3488e-06
6.24837e-07
1.82665e-06
8.35513e-06
8.16312e-06
1.85454e-06
2.62556e-06
2.62511e-06
4.08432e-07
2.66935e-06
2.66984e-06
2.47348e-05
2.44322e-05
2.38734e-05
2.42632e-05
4.06786e-07
2.73595e-06
2.73466e-06
2.69346e-06
2.69336e-06
2.3871e-05
2.4263e-05
6.25684e-07
3.73546e-07
1.31725e-06
3.81779e-07
6.24479e-07
3.66094e-07
1.33902e-06
1.80807e-06
7.84569e-06
1.76785e-06
8.10284e-06
1.80809e-06
7.84578e-06
1.76763e-06
8.10286e-06
6.26146e-07
3.75056e-07
3.51983e-07
1.36625e-06
3.58908e-07
1.34995e-06
6.24865e-07
6.26092e-07
3.75067e-07
3.51988e-07
1.36764e-06
3.58916e-07
1.34871e-06
6.24847e-07
1.82578e-06
8.35463e-06
8.16259e-06
1.85596e-06
1.82547e-06
8.3547e-06
8.16261e-06
1.85572e-06
2.47318e-05
2.44326e-05
2.47318e-05
2.44326e-05
4.06838e-07
2.73549e-06
2.73497e-06
2.69346e-06
2.69351e-06
2.38717e-05
2.42632e-05
2.38718e-05
2.42634e-05
2.36817e-05
2.32657e-05
2.36831e-05
2.32678e-05
2.75695e-06
2.75753e-06
3.86589e-07
2.80147e-06
2.80172e-06
2.2674e-05
2.3077e-05
2.26756e-05
2.30778e-05
3.85125e-07
2.86998e-06
2.86782e-06
2.82275e-06
2.82334e-06
1.88777e-06
8.39306e-06
1.86944e-06
8.53012e-06
6.21225e-07
1.37591e-06
3.45289e-07
3.55989e-07
6.24685e-07
1.39208e-06
3.3881e-07
6.21087e-07
1.37594e-06
3.45298e-07
3.56008e-07
6.24776e-07
1.39205e-06
3.38818e-07
1.89813e-06
8.64731e-06
8.55535e-06
1.91189e-06
1.89928e-06
8.64685e-06
8.55471e-06
1.91112e-06
6.20857e-07
3.4995e-07
1.41327e-06
3.26439e-07
1.39916e-06
3.32532e-07