/*--------------------------------*- C++ -*----------------------------------*\
| =========                 |                                                 |
| \\      /  F ield         | OpenFOAM: The Open Source CFD Toolbox           |
|  \\    /   O peration     | Version:  v1906                                 |
|   \\  /    A nd           | Web:      www.OpenFOAM.com                      |
|    \\/     M anipulation  |                                                 |
\*---------------------------------------------------------------------------*/
FoamFile
{
    version     2.0;
    format      ascii;
    class       volScalarField;
    location    "600";
    object      nut;
}
// * * * * * * * * * * * * * * * * * * * * * * * * * * * * * * * * * * * * * //

dimensions      [0 2 -1 0 0 0 0];


internalField   nonuniform List<scalar> 
42616
(
0.000233972
0.000233084
0.000233087
0.000233399
0.000232523
0.000227712
0.000227719
0.000223714
0.000230494
0.000220188
0.000220194
0.000208928
0.000227763
0.000211515
0.000211521
0.000193634
0.000224385
0.000202503
0.000202505
0.000179605
0.000220494
0.000193637
0.000193636
0.000167277
0.000216241
0.000185154
0.000185154
0.000156546
0.000211754
0.000177126
0.000177126
0.000147198
0.000207139
0.000169594
0.000169592
0.000139066
0.000202478
0.000162527
0.000162525
0.000131777
0.000197824
0.000155871
0.00015587
0.000125132
0.000193212
0.00014957
0.000149571
0.00011897
0.000188623
0.000143586
0.000143586
0.000113239
0.000184091
0.000137864
0.000137862
0.000107916
0.000179647
0.000132366
0.00013236
0.000102997
0.000175278
0.00012708
0.000127068
9.83517e-05
0.000170973
0.000122021
0.000122009
9.41336e-05
0.000166719
0.000117223
0.000117212
9.05198e-05
0.000162515
0.00011271
0.000112704
8.75889e-05
0.000158337
0.00010855
0.000108546
8.52728e-05
0.000154179
0.000104791
0.000104788
8.35862e-05
0.000234261
0.000234459
0.00023446
0.000234261
0.000234459
0.000234458
0.000234275
0.000234275
0.000234275
0.000234275
0.000234456
0.000234461
0.000234258
0.000234456
0.000234463
0.000234264
0.000233415
0.000226102
0.000233086
0.000233078
0.000229295
0.000229275
0.000233398
0.00022606
0.000233083
0.000233082
0.000229291
0.000229285
0.000233085
0.000229287
0.000229288
0.000233408
0.000226087
0.000233081
0.000229294
0.000229281
0.000226075
0.000223743
0.000212087
0.000227719
0.000227695
0.000222222
0.000222187
0.000223694
0.000212035
0.000227713
0.000227709
0.000222215
0.00022221
0.000227708
0.000222215
0.000222207
0.000223728
0.000212072
0.000227702
0.00022222
0.000222202
0.000212059
0.000208956
0.000196941
0.000220195
0.000220158
0.000213745
0.000213706
0.000208901
0.0001969
0.000220188
0.000220182
0.000213745
0.000213732
0.000220178
0.000213741
0.000213729
0.000208939
0.000196914
0.000220174
0.000213747
0.000213726
0.000196918
0.000193658
0.00018281
0.000211517
0.000211478
0.000204752
0.000204713
0.000193619
0.000182756
0.000211518
0.000211504
0.000204759
0.000204737
0.0002115
0.000204755
0.000204735
0.000193655
0.000182761
0.000211499
0.000204758
0.000204737
0.000182781
0.000179621
0.000170258
0.000202498
0.000202459
0.000195813
0.000195776
0.000179623
0.000170199
0.000202505
0.000202482
0.000195823
0.000195796
0.00020248
0.000195822
0.000195794
0.000179652
0.000170179
0.000202483
0.000195822
0.000195802
0.000170223
0.000167279
0.000159269
0.000193625
0.00019359
0.000187218
0.000187189
0.000167306
0.000159208
0.000193636
0.000193609
0.000187232
0.000187202
0.000193607
0.000187233
0.000187201
0.000167343
0.000159177
0.000193616
0.000187232
0.000187214
0.000159245
0.000156551
0.000149672
0.000185138
0.000185109
0.000179068
0.000179044
0.000156604
0.000149611
0.000185152
0.000185122
0.000179084
0.000179053
0.000185121
0.000179087
0.000179053
0.000156631
0.000149674
0.000185135
0.000179086
0.000179071
0.000149647
0.000147194
0.000141124
0.000177108
0.000177084
0.000171409
0.000171387
0.000147263
0.000141155
0.000177124
0.000177092
0.000171428
0.000171394
0.000177093
0.000171431
0.000171397
0.000147173
0.000141123
0.000177112
0.000171429
0.000171419
0.000141097
0.000139022
0.000133645
0.000169572
0.000169551
0.000164228
0.000164208
0.000138985
0.000133651
0.000169592
0.000169558
0.00016425
0.000164216
0.000169561
0.000164253
0.00016422
0.000139013
0.000133605
0.000169583
0.000164251
0.000164244
0.00013357
0.000131678
0.000126744
0.000162502
0.000162484
0.000157472
0.000157453
0.000131681
0.000126738
0.000162525
0.000162491
0.000157497
0.000157462
0.000162494
0.000157499
0.000157465
0.000131726
0.00012682
0.000162519
0.000157498
0.000157493
0.000126749
0.000125139
0.000120444
0.000155844
0.000155827
0.000151086
0.000151069
0.000125148
0.000120486
0.00015587
0.000155835
0.000151114
0.000151077
0.000155837
0.000151115
0.000151081
0.000125015
0.000120551
0.000155865
0.000151114
0.00015111
0.00012048
0.000118996
0.000114487
0.000149542
0.000149525
0.000145023
0.000145007
0.000118964
0.000114448
0.000149569
0.000149533
0.000145051
0.000145014
0.000149536
0.000145053
0.000145019
0.000118931
0.000114515
0.000149566
0.000145054
0.000145049
0.000114435
0.000113187
0.00010884
0.000143556
0.000143539
0.000139239
0.000139224
0.000113239
0.000108826
0.000143583
0.000143545
0.000139267
0.000139227
0.000143551
0.000139271
0.000139235
0.000113155
0.000108825
0.000143581
0.00013927
0.000139266
0.000108811
0.000107937
0.000103652
0.000137832
0.000137816
0.000133686
0.000133673
0.000107928
0.000103655
0.000137859
0.000137818
0.000133714
0.000133674
0.000137827
0.000133722
0.000133683
0.000107919
0.000103637
0.000137859
0.000133718
0.000133714
0.000103632
0.000103008
9.90341e-05
0.000132329
0.000132315
0.000128343
0.00012833
0.00010301
9.90514e-05
0.000132355
0.000132314
0.000128369
0.000128329
0.000132326
0.000128383
0.000128341
0.000102994
9.90375e-05
0.000132356
0.000128373
0.000128372
9.90144e-05
9.83515e-05
9.4827e-05
0.000127039
0.000127025
0.000123225
0.000123214
9.83392e-05
9.48806e-05
0.000127063
0.000127024
0.000123251
0.000123213
0.000127037
0.000123269
0.000123226
9.83237e-05
9.48564e-05
0.000127066
0.000123257
0.000123255
9.48051e-05
9.41349e-05
9.12104e-05
0.000121979
0.000121968
0.00011833
0.000118324
9.40954e-05
9.13597e-05
0.000122003
0.000121966
0.000118359
0.000118322
0.000121979
0.000118373
0.000118331
9.40862e-05
9.12031e-05
0.000122006
0.000118364
0.000118362
9.11721e-05
9.05105e-05
8.81666e-05
0.000117186
0.000117169
0.000113754
0.000113744
9.04204e-05
8.82634e-05
0.000117202
0.000117167
0.000113782
0.000113744
0.000117186
0.000113794
0.000113757
9.0515e-05
8.81868e-05
0.00011721
0.000113787
0.000113785
8.80869e-05
8.75585e-05
8.55939e-05
0.000112677
0.00011266
0.000109498
0.000109488
8.74742e-05
8.5818e-05
0.000112693
0.000112659
0.000109528
0.000109489
0.000112675
0.000109535
0.0001095
8.75752e-05
8.57029e-05
0.000112702
0.000109532
0.000109528
8.55815e-05
8.52563e-05
8.37092e-05
0.000108522
0.000108503
0.00010563
0.000105618
8.51124e-05
8.40284e-05
0.000108533
0.000108501
0.000105658
0.000105618
0.000108516
0.000105664
0.000105629
8.51886e-05
8.38573e-05
0.000108543
0.000105662
0.000105657
8.37614e-05
8.35274e-05
0.000104768
0.000104745
8.33371e-05
0.000104772
0.000104742
0.000104758
8.34378e-05
0.000104784
0.00023473
0.000234746
0.000234729
0.000234729
0.000235104
0.000234799
0.000234827
0.000234726
0.000235107
0.000234799
0.000234726
0.000234715
0.000234871
0.000233775
0.000233736
0.00010471
3.84829e-05
0.000128374
3.97801e-05
2.14799e-05
2.28635e-05
0.000104548
3.85132e-05
0.000128137
3.97698e-05
0.000233972
0.000233972
0.000233972
0.00023293
0.000232929
0.000232929
0.000232929
0.000206073
9.30184e-05
0.000233967
0.000231965
0.000222289
8.65859e-05
0.000233607
2.14728e-05
2.28615e-05
0.000206099
0.000233968
9.30398e-05
0.000231968
0.000222394
0.000233608
8.65043e-05
4.71926e-05
4.74835e-05
0.000231283
4.36264e-05
4.36871e-05
7.2624e-05
4.24045e-05
8.13563e-05
4.37529e-05
2.47884e-05
2.54741e-05
7.26019e-05
4.2398e-05
8.13032e-05
4.37457e-05
0.000232522
0.000232523
0.000232523
0.000231066
0.000231063
0.000231065
0.000231064
0.000167337
7.89587e-05
0.000232063
0.000225995
0.000180038
7.40801e-05
0.000231352
2.47874e-05
2.54736e-05
0.000167331
0.000232063
7.89719e-05
0.000226001
0.000180041
0.000231351
7.40141e-05
3.90819e-05
3.90942e-05
0.00021943
3.65319e-05
3.65216e-05
5.63552e-05
4.55396e-05
6.12251e-05
4.64159e-05
2.60151e-05
2.61181e-05
5.63547e-05
4.55336e-05
6.12306e-05
4.641e-05
0.000230491
0.000230493
0.000230492
0.00022851
0.000228505
0.000228509
0.000228506
0.000138543
6.70422e-05
0.000228598
0.00021809
0.00014803
6.31984e-05
0.000227485
2.60136e-05
2.61163e-05
0.000138529
0.000228598
6.70914e-05
0.000218096
0.000148021
0.000227483
6.31326e-05
3.32768e-05
3.32599e-05
0.000204451
3.20496e-05
3.20296e-05
4.70103e-05
4.74962e-05
5.00007e-05
4.80086e-05
2.60501e-05
2.59398e-05
4.70366e-05
4.74923e-05
4.99736e-05
4.80057e-05
0.000227757
0.000227761
0.000227758
0.000225283
0.000225276
0.00022528
0.000225276
0.000117536
5.78959e-05
0.000223653
0.000209268
0.000124641
5.52533e-05
0.000222238
2.60465e-05
2.5938e-05
0.000117518
0.000223651
5.79057e-05
0.000209273
0.000124594
0.000222234
5.52356e-05
3.06987e-05
3.06749e-05
0.000189665
3.0398e-05
3.03868e-05
4.14466e-05
4.85793e-05
4.33192e-05
4.88416e-05
2.56718e-05
2.55204e-05
4.14904e-05
4.85765e-05
4.32686e-05
4.88387e-05
0.000224377
0.000224382
0.000224377
0.000221507
0.000221499
0.000221502
0.000221498
0.000102132
5.16156e-05
0.00021769
0.000200259
0.000107435
4.99004e-05
0.000216098
2.56691e-05
2.5518e-05
0.00010212
0.000217686
5.16354e-05
0.00020026
0.000107402
0.000216091
4.98913e-05
3.02751e-05
3.02545e-05
0.000176301
3.04728e-05
3.04667e-05
3.81765e-05
4.909e-05
3.92808e-05
4.9196e-05
2.5235e-05
2.50952e-05
3.81804e-05
4.90867e-05
3.92469e-05
4.91923e-05
0.000220486
0.00022049
0.000220485
0.00021733
0.000217322
0.000217325
0.00021732
9.05359e-05
4.75038e-05
0.000211181
0.000191474
9.45429e-05
4.64665e-05
0.000209515
2.52323e-05
2.50931e-05
9.05254e-05
0.000211175
4.74814e-05
0.000191473
9.45301e-05
0.000209506
4.64733e-05
3.11053e-05
3.10806e-05
0.000164543
3.15823e-05
3.15833e-05
3.63854e-05
4.92754e-05
3.69738e-05
4.9289e-05
2.48471e-05
2.47344e-05
3.63932e-05
4.92702e-05
3.69392e-05
4.92847e-05
0.000216233
0.000216235
0.00021623
0.000212891
0.000212883
0.000212886
0.000212881
8.16427e-05
4.49773e-05
0.000204491
0.000183101
8.47852e-05
4.44309e-05
0.00020282
2.48448e-05
2.47322e-05
8.16067e-05
0.000204485
4.49484e-05
0.0001831
8.47779e-05
0.000202812
4.44301e-05
3.26732e-05
3.26572e-05
0.000154285
3.33237e-05
3.33275e-05
3.56945e-05
4.92867e-05
3.58336e-05
4.92704e-05
2.45349e-05
2.44489e-05
3.56926e-05
4.92823e-05
3.58147e-05
4.92655e-05
0.000211747
0.000211749
0.000211744
0.0002083
0.000208293
0.000208295
0.000208291
7.46741e-05
4.36125e-05
0.000197854
0.000175196
7.72336e-05
4.34486e-05
0.000196222
2.45339e-05
2.44439e-05
7.47119e-05
0.000197851
4.36059e-05
0.000175195
7.7279e-05
0.000196215
4.34139e-05
3.4692e-05
3.46822e-05
0.000145268
3.54718e-05
3.54622e-05
3.57604e-05
4.92525e-05
3.56787e-05
4.92327e-05
2.4294e-05
2.42318e-05
3.58071e-05
4.9248e-05
3.5636e-05
4.92273e-05
0.000207133
0.000207134
0.000207131
0.000203644
0.000203638
0.000203639
0.000203637
6.92281e-05
4.30836e-05
0.000191406
0.000167785
7.13471e-05
4.3178e-05
0.000189827
2.42954e-05
2.4226e-05
6.92782e-05
0.000191405
4.31108e-05
0.000167783
7.1308e-05
0.000189822
4.31253e-05
3.70237e-05
3.69974e-05
0.000137209
3.78237e-05
3.78344e-05
3.65473e-05
4.92205e-05
3.6265e-05
4.92166e-05
2.41144e-05
2.40716e-05
3.65874e-05
4.92155e-05
3.61909e-05
4.92118e-05
0.000202473
0.000202474
0.000202471
0.000198984
0.000198979
0.00019898
0.000198978
6.49105e-05
4.32455e-05
0.000185172
0.000160827
6.65919e-05
4.35092e-05
0.000183651
2.41152e-05
2.40657e-05
6.49196e-05
0.000185172
4.33166e-05
0.000160824
6.65797e-05
0.000183648
4.34217e-05
3.95002e-05
3.94981e-05
0.000130061
4.0325e-05
4.03093e-05
3.79569e-05
4.9216e-05
3.74764e-05
4.92232e-05
2.39844e-05
2.39566e-05
3.79925e-05
4.92123e-05
3.74108e-05
4.92174e-05
0.000197819
0.00019782
0.000197818
0.000194359
0.000194353
0.000194355
0.000194353
6.15162e-05
4.39428e-05
0.000179193
0.000154264
6.27933e-05
4.43434e-05
0.000177743
2.3988e-05
2.39484e-05
6.15396e-05
0.000179196
4.40208e-05
0.000154263
6.27805e-05
0.000177742
4.42712e-05
4.20158e-05
4.20249e-05
0.000123504
4.28457e-05
4.28255e-05
3.99712e-05
4.92303e-05
3.92489e-05
4.92535e-05
2.38922e-05
2.38758e-05
3.99807e-05
4.92371e-05
3.92289e-05
4.9242e-05
0.000193207
0.000193208
0.000193207
0.00018977
0.000189765
0.000189766
0.000189765
5.90074e-05
4.50829e-05
0.000173493
0.000148045
5.98292e-05
4.56015e-05
0.000172107
2.38973e-05
2.38665e-05
5.90164e-05
0.000173498
4.51531e-05
0.000148045
5.98163e-05
0.000172108
4.55299e-05
4.45054e-05
4.45064e-05
0.000117409
4.53073e-05
4.53177e-05
4.24638e-05
4.92661e-05
4.15738e-05
4.9292e-05
2.38277e-05
2.38191e-05
4.24764e-05
4.92728e-05
4.15415e-05
4.92813e-05
0.000188617
0.000188618
0.000188618
0.000185216
0.00018521
0.000185211
0.000185211
5.7191e-05
4.65794e-05
0.000168041
0.000142132
5.76698e-05
4.721e-05
0.000166713
2.38333e-05
2.38094e-05
5.72011e-05
0.000168047
4.66532e-05
0.000142132
5.76693e-05
0.000166716
4.7155e-05
4.6898e-05
4.68896e-05
0.000111564
4.765e-05
4.76346e-05
4.5392e-05
4.93075e-05
4.43513e-05
4.93326e-05
2.37823e-05
2.3779e-05
4.53957e-05
4.93136e-05
4.43304e-05
4.93231e-05
0.000184086
0.000184086
0.000184087
0.000180751
0.000180747
0.000180746
0.000180746
5.59765e-05
4.83898e-05
0.000162804
0.000136472
5.62766e-05
4.90944e-05
0.000161525
2.37881e-05
2.37689e-05
5.5982e-05
0.00016281
4.84178e-05
0.000136468
5.62391e-05
0.000161527
4.90926e-05
4.91203e-05
4.91361e-05
0.000106159
4.9848e-05
4.98179e-05
4.86323e-05
4.93477e-05
4.74888e-05
4.93709e-05
2.37494e-05
2.37486e-05
4.86366e-05
4.93526e-05
4.74751e-05
4.93618e-05
0.000179644
0.000179642
0.000179643
0.000176363
0.000176362
0.000176359
0.000176359
5.5416e-05
5.04456e-05
0.000157748
0.000131026
5.55264e-05
5.114e-05
0.000156512
2.37552e-05
2.37402e-05
5.54583e-05
0.000157753
5.04445e-05
0.000131018
5.55117e-05
0.000156512
5.11696e-05
5.11945e-05
5.11801e-05
0.000101271
5.18333e-05
5.18414e-05
5.20555e-05
4.93843e-05
5.08704e-05
4.94053e-05
2.37261e-05
2.37228e-05
5.20807e-05
4.93886e-05
5.08546e-05
4.93968e-05
0.000175277
0.000175273
0.000175274
0.000172043
0.000172044
0.000172039
0.000172039
5.55434e-05
5.26119e-05
0.000152846
0.000125796
5.54537e-05
5.33628e-05
0.000151645
2.3728e-05
2.37188e-05
5.5578e-05
0.000152849
5.2612e-05
0.000125785
5.54087e-05
0.000151643
5.33723e-05
5.30764e-05
5.30604e-05
9.68619e-05
5.36512e-05
5.3663e-05
5.55375e-05
4.94174e-05
5.43366e-05
4.94367e-05
2.3707e-05
2.37024e-05
5.55745e-05
4.94214e-05
5.43026e-05
4.94284e-05
0.000170974
0.000170968
0.00017097
0.000167775
0.000167776
0.000167771
0.000167771
5.62373e-05
5.48401e-05
0.00014809
0.000120799
5.59818e-05
5.56561e-05
0.000146923
2.37059e-05
2.36997e-05
5.63311e-05
0.000148093
5.48669e-05
0.000120788
5.59173e-05
0.000146921
5.56421e-05
5.47771e-05
5.47746e-05
9.28745e-05
5.52919e-05
5.52898e-05
5.89624e-05
4.94477e-05
5.77283e-05
4.94662e-05
2.36894e-05
2.36848e-05
5.90031e-05
4.94515e-05
5.76918e-05
4.9458e-05
0.00016672
0.000166714
0.000166716
0.000163558
0.000163558
0.000163554
0.000163554
5.75602e-05
5.71321e-05
0.000143449
0.000116053
5.70974e-05
5.7918e-05
0.000142306
2.36876e-05
2.36824e-05
5.75768e-05
0.000143451
5.71434e-05
0.000116043
5.70456e-05
0.000142306
5.7922e-05
5.6294e-05
5.62951e-05
8.9561e-05
5.67933e-05
5.67896e-05
6.21566e-05
4.94767e-05
6.09762e-05
4.94938e-05
2.36731e-05
2.36682e-05
6.21923e-05
4.94798e-05
6.09579e-05
4.9486e-05
0.000162516
0.00016251
0.000162513
0.000159376
0.000159375
0.000159372
0.000159372
5.93854e-05
5.93914e-05
0.000138904
0.000111618
5.87143e-05
6.01605e-05
0.000137789
2.3671e-05
2.36663e-05
5.93568e-05
0.000138908
5.94263e-05
0.000111613
5.87391e-05
0.00013779
6.0121e-05
5.76776e-05
5.76771e-05
8.67384e-05
5.81309e-05
5.81284e-05
6.50935e-05
4.95033e-05
6.39752e-05
4.95194e-05
2.36575e-05
2.36534e-05
6.51237e-05
4.95064e-05
6.39597e-05
4.95123e-05
0.000158337
0.000158332
0.000158335
0.000155214
0.000155212
0.00015521
0.00015521
6.15977e-05
6.1582e-05
0.000134462
0.000107548
6.08141e-05
6.23312e-05
0.00013338
2.36556e-05
2.36513e-05
6.16e-05
0.000134466
6.16294e-05
0.000107545
6.08478e-05
0.000133382
6.22894e-05
5.8928e-05
5.89283e-05
8.46075e-05
5.93441e-05
5.93412e-05
6.77126e-05
4.9528e-05
6.6692e-05
4.95441e-05
2.36433e-05
2.36396e-05
4.95315e-05
6.66798e-05
4.95365e-05
0.000154179
0.000154172
0.000154177
6.41302e-05
6.36844e-05
0.000130142
0.000103919
6.32999e-05
6.43441e-05
0.0001291
2.36412e-05
6.41919e-05
0.000130143
6.3732e-05
6.32968e-05
0.000129103
6.00648e-05
6.00641e-05
8.33377e-05
6.04488e-05
6.04484e-05
0.000234869
0.000233798
0.000233777
2.34133e-05
0.000214272
2.33966e-05
0.000214184
0.000234427
4.98052e-05
4.98706e-05
0.000230245
0.000230176
0.000235098
0.000234799
0.000234918
0.000234726
0.000235099
0.0002348
0.000234902
0.000234726
0.000234504
4.00889e-05
0.000216765
0.000147258
0.000234549
4.01031e-05
0.000216727
0.000147246
0.000233955
0.000234472
9.8771e-05
0.000234271
0.000233102
0.000234597
0.000228345
0.000233958
0.000234471
9.85831e-05
0.000234271
0.000233006
0.000234597
0.000228358
0.000234872
0.000233341
0.000233569
2.34096e-05
0.000214149
0.000234425
5.02851e-05
5.02768e-05
0.000228873
0.000229064
2.34069e-05
0.000214609
0.000235094
0.000234799
0.000234769
0.000234727
0.000235106
0.0002348
0.000234726
0.000234785
0.0002345
3.99512e-05
0.000220576
0.000146981
0.000233978
0.000234471
9.82998e-05
0.00023427
0.000233517
0.000234597
0.000228289
0.000234545
3.9959e-05
0.000220599
0.00014742
0.000233934
0.00023447
0.000234271
9.8292e-05
0.000234597
0.000233493
0.000228368
0.00023473
0.000234746
0.000234729
0.000234729
0.00023473
0.000234746
0.000234729
0.000234729
0.00023473
0.000234746
0.000234729
0.000234729
0.000234591
0.000234573
0.000234253
0.000234253
0.000234592
0.000234592
0.000234252
0.000234591
0.000234573
0.000234253
0.000234253
0.000234592
0.000234592
0.000234252
0.000234591
0.000234573
0.000234253
0.000234253
0.000234592
0.000234592
0.000234252
0.000234591
0.000234574
0.000234253
0.000234253
0.000234592
0.000234592
0.000234252
0.000235103
0.000234798
0.000234726
0.000234844
0.000233944
0.000234472
9.88166e-05
0.00023427
0.000233106
0.000234597
0.000228273
0.00023452
4.00969e-05
0.000216801
0.000146971
0.000233945
0.000234473
0.000234271
9.92016e-05
0.000234597
0.000233072
0.000228353
0.000234549
4.01079e-05
0.000216713
0.000147222
0.000234872
0.000233759
0.000233663
2.33993e-05
0.000214522
0.000234424
4.98988e-05
4.97775e-05
0.000230144
0.000230234
2.34003e-05
0.000214557
0.000235099
0.000234798
0.000234726
0.000234841
0.000233934
0.000234472
0.000234271
9.83249e-05
0.000234597
0.000233522
0.00022836
0.000233955
0.000234473
0.000234271
9.92399e-05
0.000234597
0.000233107
0.000228317
0.000234499
3.99484e-05
0.000220757
0.000147378
0.000234545
4.00958e-05
0.000216764
0.000147194
0.000234426
4.97408e-05
5.03386e-05
0.000228455
0.000229234
2.34137e-05
0.000214227
2.34066e-05
0.000214126
2.14758e-05
2.2854e-05
2.148e-05
2.28496e-05
4.73253e-05
4.73474e-05
0.000231301
4.3683e-05
4.36773e-05
2.45023e-05
2.3337e-05
2.45001e-05
2.33334e-05
0.000229601
3.99132e-05
3.99113e-05
4.27894e-05
4.27856e-05
0.000104707
3.84699e-05
0.000128264
3.97634e-05
0.000206111
9.24042e-05
0.000233967
0.000231971
0.000222386
8.65182e-05
0.000233608
0.000206097
9.21924e-05
0.000233967
0.000231959
0.000222379
8.63873e-05
0.000233608
9.83263e-05
4.19354e-05
4.03319e-05
8.55152e-05
9.83034e-05
4.19329e-05
4.03398e-05
8.55062e-05
0.000199939
0.000230713
8.02016e-05
0.00023267
8.51522e-05
0.000233182
0.000185426
0.000199924
0.000230697
8.01268e-05
0.000232669
8.49844e-05
0.000233181
0.000185414
4.73356e-05
4.73965e-05
0.000231274
4.36891e-05
4.37173e-05
2.14764e-05
2.2852e-05
2.44993e-05
2.3319e-05
0.00022957
3.9929e-05
3.99498e-05
4.28468e-05
4.28763e-05
2.45025e-05
2.3336e-05
0.000205955
9.23224e-05
0.000233966
0.000231967
0.000222249
8.64731e-05
0.000233604
0.000104666
3.85141e-05
0.000128346
3.97621e-05
0.000206064
0.000233967
9.23024e-05
0.000231963
0.000222375
0.000233607
8.65051e-05
9.81977e-05
4.19292e-05
4.03318e-05
8.54468e-05
0.000199802
0.000230708
8.01714e-05
0.000232664
8.50326e-05
0.000233177
0.000185334
9.82994e-05
4.19319e-05
4.03369e-05
8.5506e-05
0.000199915
0.000230703
0.000232669
8.0177e-05
0.000233181
8.50737e-05
0.000185419
0.0001047
3.84641e-05
0.000128136
3.97648e-05
0.000206121
0.000233968
9.21498e-05
0.000231967
0.000222404
0.000233609
8.62749e-05
0.00010473
3.8473e-05
0.00012834
3.9763e-05
0.000199917
0.000230706
8.02729e-05
0.00023267
8.52025e-05
0.000233181
0.000185436
9.83112e-05
4.19354e-05
4.03434e-05
8.55165e-05
0.000199946
0.000230707
0.00023267
8.00985e-05
0.000233182
8.49125e-05
0.000185415
9.83332e-05
4.19345e-05
4.0343e-05
8.55048e-05
4.7327e-05
4.72497e-05
0.000231292
4.36425e-05
4.36311e-05
2.14805e-05
2.28511e-05
2.44986e-05
2.33161e-05
0.000229589
3.98864e-05
3.99067e-05
4.27607e-05
4.27433e-05
2.45015e-05
2.33352e-05
0.000206099
0.000233967
9.21079e-05
0.000231961
0.000222389
0.000233608
8.62704e-05
0.000104689
3.85113e-05
0.000128371
3.97611e-05
0.0001047
3.84647e-05
0.000128348
3.97641e-05
0.000199944
0.000230712
0.00023267
8.02822e-05
0.000233182
8.51377e-05
0.00018544
0.000199946
0.000230701
0.000232671
8.01038e-05
0.000233182
8.48998e-05
0.000185437
9.83413e-05
4.19339e-05
4.03409e-05
8.55195e-05
9.8345e-05
4.1934e-05
4.03418e-05
8.55189e-05
2.14709e-05
2.28513e-05
2.14758e-05
2.28513e-05
0.000229581
3.99117e-05
3.99246e-05
4.28063e-05
4.2843e-05
2.45024e-05
2.33358e-05
2.45007e-05
2.33354e-05
2.47911e-05
2.54772e-05
2.47888e-05
2.5475e-05
3.90976e-05
3.90875e-05
0.000219462
3.6531e-05
3.65262e-05
2.59603e-05
2.56272e-05
2.59583e-05
2.5625e-05
0.000216624
3.38685e-05
3.38641e-05
3.57506e-05
3.57412e-05
7.26174e-05
4.24019e-05
8.13514e-05
4.37488e-05
0.000167334
7.88898e-05
0.000232062
0.000226003
0.000180033
7.40403e-05
0.00023135
0.000167317
7.88247e-05
0.000232059
0.000225975
0.000180019
7.39096e-05
0.000231347
6.96978e-05
4.52368e-05
4.41358e-05
6.32958e-05
6.96889e-05
4.52329e-05
4.41319e-05
6.32815e-05
0.000162778
0.000224165
6.82734e-05
0.000229615
7.26952e-05
0.000230534
0.0001518
0.000162756
0.000224133
6.81669e-05
0.000229608
7.26806e-05
0.000230529
0.000151782
3.90958e-05
3.91314e-05
0.000219408
3.65299e-05
3.65304e-05
2.47907e-05
2.54769e-05
2.59583e-05
2.56246e-05
0.000216569
3.38628e-05
3.38679e-05
3.57349e-05
3.57661e-05
2.59603e-05
2.56266e-05
0.000167305
7.88654e-05
0.000232055
0.000225996
0.000179941
7.39466e-05
0.000231343
7.26218e-05
4.24001e-05
8.13458e-05
4.37475e-05
0.000167352
0.000232061
7.88647e-05
0.000225992
0.00018002
0.000231351
7.40148e-05
6.96894e-05
4.523e-05
4.41295e-05
6.33062e-05
0.000162743
0.000224157
6.81971e-05
0.00022961
7.2717e-05
0.000230529
0.000151816
6.97065e-05
4.52307e-05
4.41292e-05
6.33126e-05
0.000162782
0.000224153
0.000229617
6.82543e-05
0.000230535
7.26689e-05
0.000151835
7.262e-05
4.24031e-05
8.13679e-05
4.37512e-05
0.000167337
0.00023206
7.87945e-05
0.00022599
0.000180021
0.000231349
7.3892e-05
7.26207e-05
4.24039e-05
8.13511e-05
4.37513e-05
0.000162796
0.000224157
6.83005e-05
0.000229617
7.27351e-05
0.000230536
0.0001518
6.9706e-05
4.5235e-05
4.41332e-05
6.32998e-05
0.000162775
0.00022415
0.000229615
6.81628e-05
0.000230533
7.26666e-05
0.000151827
6.97035e-05
4.52351e-05
4.41345e-05
6.32954e-05
3.90721e-05
3.9076e-05
0.000219446
3.65042e-05
3.65066e-05
2.47907e-05
2.54758e-05
2.59571e-05
2.56234e-05
0.000216609
3.38458e-05
3.38557e-05
3.57187e-05
3.57313e-05
2.59592e-05
2.56261e-05
0.000167334
0.000232062
7.87976e-05
0.000225984
0.000180042
0.000231351
7.38912e-05
7.26221e-05
4.24021e-05
8.136e-05
4.37491e-05
7.26144e-05
4.24024e-05
8.13599e-05
4.37488e-05
0.000162796
0.000224163
0.000229616
6.82348e-05
0.000230536
7.27739e-05
0.000151792
0.000162763
0.000224145
0.000229612
6.81578e-05
0.000230533
7.26653e-05
0.000151787
6.97045e-05
4.52321e-05
4.4132e-05
6.3305e-05
6.96872e-05
4.52325e-05
4.41315e-05
6.32835e-05
2.47914e-05
2.54762e-05
2.47898e-05
2.54747e-05
0.000216595
3.38699e-05
3.38575e-05
3.57407e-05
3.57373e-05
2.59595e-05
2.56266e-05
2.59582e-05
2.5625e-05
2.60169e-05
2.61194e-05
2.60148e-05
2.61174e-05
3.32741e-05
3.32724e-05
0.000204477
3.20417e-05
3.20397e-05
2.60788e-05
2.61193e-05
2.60726e-05
2.61172e-05
0.000201206
3.09539e-05
3.09526e-05
3.16329e-05
3.16335e-05
5.63245e-05
4.5536e-05
6.12217e-05
4.6413e-05
0.000138548
6.70133e-05
0.000228596
0.000218097
0.000148
6.31889e-05
0.000227483
0.000138517
6.70138e-05
0.000228587
0.000218059
0.000147975
6.30849e-05
0.000227472
5.48468e-05
4.73263e-05
4.66473e-05
5.10578e-05
5.48544e-05
4.7325e-05
4.66446e-05
5.10505e-05
0.000135376
0.000215943
5.88043e-05
0.000225003
6.20475e-05
0.000226283
0.000127222
0.000135353
0.000215905
5.87514e-05
0.000224988
6.20645e-05
0.00022627
0.000127199
3.32674e-05
3.32876e-05
0.00020443
3.20419e-05
3.20499e-05
2.60167e-05
2.61195e-05
2.60753e-05
2.61179e-05
0.000201158
3.09566e-05
3.09687e-05
3.16333e-05
3.16465e-05
2.60744e-05
2.61193e-05
0.000138556
6.70502e-05
0.000228593
0.000218092
0.000147994
6.3111e-05
0.00022748
5.63671e-05
4.55328e-05
6.12357e-05
4.64107e-05
0.000138582
0.000228598
6.69931e-05
0.000218084
0.000148015
0.000227485
6.31737e-05
5.48572e-05
4.73221e-05
4.66417e-05
5.10888e-05
0.000135383
0.000215941
5.87788e-05
0.000225001
6.20949e-05
0.000226282
0.000127226
5.48597e-05
4.73219e-05
4.66411e-05
5.1098e-05
0.000135393
0.00021593
0.000225005
5.87821e-05
0.000226285
6.20304e-05
0.000127238
5.63573e-05
4.5537e-05
6.12329e-05
4.6415e-05
0.000138567
0.000228596
6.70102e-05
0.00021808
0.000148009
0.000227484
6.30873e-05
5.6344e-05
4.55379e-05
6.12364e-05
4.64143e-05
0.000135421
0.000215938
5.88683e-05
0.000225005
6.20687e-05
0.000226285
0.000127205
5.48607e-05
4.73268e-05
4.66455e-05
5.11014e-05
0.000135392
0.000215927
0.000225003
5.8763e-05
0.000226284
6.20682e-05
0.000127233
5.48647e-05
4.73257e-05
4.66458e-05
5.10632e-05
3.32533e-05
3.32648e-05
0.00020446
3.20282e-05
3.204e-05
2.60159e-05
2.61183e-05
2.60753e-05
2.61161e-05
0.000201189
3.09415e-05
3.09567e-05
3.16173e-05
3.1634e-05
2.60875e-05
2.61179e-05
0.000138533
0.000228591
6.70027e-05
0.000218077
0.000147971
0.000227476
6.30768e-05
5.63579e-05
4.55349e-05
6.12308e-05
4.64115e-05
5.63391e-05
4.55353e-05
6.12068e-05
4.64122e-05
0.000135408
0.000215945
0.000225002
5.88759e-05
0.000226284
6.2117e-05
0.000127248
0.000135351
0.000215924
0.000224991
5.87518e-05
0.000226273
6.20581e-05
0.000127205
5.48596e-05
4.7324e-05
4.6643e-05
5.10958e-05
5.48351e-05
4.73236e-05
4.66437e-05
5.10774e-05
2.60161e-05
2.61183e-05
2.60149e-05
2.61172e-05
0.000201181
3.09621e-05
3.09395e-05
3.16438e-05
3.16229e-05
2.60768e-05
2.61181e-05
2.60746e-05
2.6117e-05
2.60492e-05
2.59409e-05
2.60496e-05
2.59378e-05
3.06882e-05
3.06858e-05
0.00018969
3.03867e-05
3.03876e-05
2.57407e-05
2.58807e-05
2.57385e-05
2.58793e-05
0.000186439
3.02469e-05
3.02457e-05
3.02861e-05
3.02771e-05
4.70354e-05
4.74942e-05
4.99808e-05
4.80072e-05
0.000117516
5.79232e-05
0.00022365
0.000209269
0.000124586
5.5186e-05
0.000222235
0.0001175
5.79036e-05
0.000223634
0.00020923
0.000124562
5.51398e-05
0.000222218
4.62396e-05
4.85013e-05
4.81274e-05
4.38736e-05
4.62034e-05
4.84997e-05
4.81256e-05
4.38997e-05
0.000115398
0.000207012
5.22325e-05
0.000219246
5.44817e-05
0.000220764
0.00010926
0.000115374
0.000206972
5.21833e-05
0.000219226
5.44595e-05
0.000220745
0.000109251
3.06845e-05
3.07045e-05
0.000189655
3.04015e-05
3.03857e-05
2.60522e-05
2.59391e-05
2.57398e-05
2.58802e-05
0.000186404
3.02697e-05
3.02527e-05
3.02747e-05
3.03141e-05
2.57409e-05
2.58822e-05
0.00011753
5.79273e-05
0.00022365
0.000209272
0.000124585
5.51676e-05
0.000222233
4.70452e-05
4.74905e-05
4.99781e-05
4.80039e-05
0.000117525
0.000223652
5.79049e-05
0.000209255
0.000124596
0.000222236
5.51726e-05
4.62032e-05
4.84987e-05
4.81241e-05
4.39231e-05
0.000115388
0.000207017
5.2204e-05
0.000219243
5.44784e-05
0.000220763
0.000109264
4.62096e-05
4.84959e-05
4.81213e-05
4.39132e-05
0.000115393
0.000206998
0.000219244
5.22093e-05
0.000220764
5.44522e-05
0.000109264
4.70554e-05
4.74951e-05
4.99787e-05
4.80093e-05
0.000117517
0.000223649
5.79085e-05
0.000209252
0.000124592
0.000222233
5.51514e-05
4.70401e-05
4.74949e-05
4.99873e-05
4.80076e-05
0.000115418
0.000207014
5.22996e-05
0.000219249
5.44412e-05
0.000220768
0.000109284
4.62126e-05
4.85018e-05
4.81264e-05
4.39156e-05
0.000115392
0.000206995
0.00021924
5.21997e-05
0.00022076
5.44713e-05
0.000109258
4.62056e-05
4.84999e-05
4.81259e-05
4.38991e-05
3.06714e-05
3.06897e-05
0.000189655
3.03741e-05
3.0396e-05
2.60411e-05
2.5939e-05
2.57373e-05
2.58769e-05
0.000186446
3.02265e-05
3.02673e-05
3.0267e-05
3.02823e-05
2.57391e-05
2.58786e-05
0.000117497
0.000223638
5.78985e-05
0.000209252
0.000124562
0.000222222
5.51383e-05
4.70217e-05
4.74927e-05
4.99768e-05
4.80063e-05
4.6996e-05
4.74927e-05
4.99577e-05
4.80052e-05
0.000115389
0.000207018
0.000219244
5.22789e-05
0.000220765
5.44524e-05
0.000109257
0.000115371
0.000206996
0.000219231
5.21867e-05
0.00022075
5.44612e-05
0.000109238
4.62275e-05
4.84986e-05
4.8124e-05
4.38796e-05
4.62252e-05
4.84974e-05
4.81235e-05
4.38621e-05
2.60485e-05
2.59396e-05
2.60478e-05
2.59384e-05
0.000186417
3.02762e-05
3.02643e-05
3.02907e-05
3.02656e-05
2.57394e-05
2.58795e-05
2.5738e-05
2.58782e-05
2.56729e-05
2.55216e-05
2.56703e-05
2.55193e-05
3.02899e-05
3.02765e-05
0.000176333
3.04442e-05
3.04451e-05
2.53034e-05
2.54526e-05
2.5301e-05
2.54497e-05
0.000173235
3.09026e-05
3.09249e-05
3.05891e-05
3.0569e-05
4.14756e-05
4.85773e-05
4.3278e-05
4.88396e-05
0.000102129
5.16551e-05
0.000217686
0.000200253
0.000107447
4.98386e-05
0.000216094
0.000102122
5.1645e-05
0.000217667
0.000200214
0.0001074
4.97878e-05
0.000216075
4.1042e-05
4.90632e-05
4.88891e-05
3.95867e-05
4.10035e-05
4.90611e-05
4.8887e-05
3.95849e-05
0.000100508
0.000198023
4.78962e-05
0.000212835
4.93754e-05
0.000214475
9.59357e-05