/*--------------------------------*- C++ -*----------------------------------*\
| =========                 |                                                 |
| \\      /  F ield         | OpenFOAM: The Open Source CFD Toolbox           |
|  \\    /   O peration     | Version:  v1906                                 |
|   \\  /    A nd           | Web:      www.OpenFOAM.com                      |
|    \\/     M anipulation  |                                                 |
\*---------------------------------------------------------------------------*/
FoamFile
{
    version     2.0;
    format      ascii;
    class       volScalarField;
    location    "600";
    object      p;
}
// * * * * * * * * * * * * * * * * * * * * * * * * * * * * * * * * * * * * * //

dimensions      [0 2 -2 0 0 0 0];


internalField   nonuniform List<scalar> 
42616
(
0.0035859
0.00358572
0.00358573
0.00358853
0.00353237
0.00353251
0.00353251
0.00353471
0.0034811
0.00348113
0.00348113
0.00348344
0.00342919
0.00342916
0.00342916
0.00343144
0.00337812
0.00337807
0.00337807
0.0033803
0.00332841
0.00332837
0.00332837
0.00333056
0.00328013
0.0032801
0.0032801
0.00328226
0.00323315
0.00323313
0.00323313
0.00323525
0.00318726
0.00318725
0.00318725
0.00318934
0.00314226
0.00314226
0.00314226
0.00314433
0.00309798
0.00309799
0.00309799
0.00310004
0.0030543
0.00305431
0.00305432
0.00305633
0.00301114
0.00301115
0.00301115
0.00301314
0.00296843
0.00296844
0.00296844
0.00297042
0.00292616
0.00292617
0.00292617
0.00292813
0.00288429
0.0028843
0.0028843
0.00288625
0.0028428
0.00284281
0.00284281
0.00284474
0.00280167
0.00280168
0.00280168
0.00280359
0.00276087
0.00276088
0.00276088
0.00276278
0.00272038
0.00272038
0.00272038
0.00272227
0.00268018
0.00268018
0.00268018
0.00268206
0.00359931
0.00359949
0.00359948
0.00359929
0.00359949
0.0035995
0.00360022
0.00360022
0.00360022
0.00360022
0.00359948
0.00359949
0.00359932
0.00359951
0.00359949
0.0035993
0.00358853
0.00354238
0.00358572
0.00358571
0.00354488
0.00354488
0.00358852
0.00354238
0.00358572
0.00358573
0.00354488
0.00354488
0.00358572
0.00354488
0.00354488
0.00358854
0.00354238
0.00358572
0.00354488
0.00354488
0.00354238
0.00353471
0.00349147
0.00353251
0.00353251
0.00349413
0.00349413
0.00353471
0.00349147
0.00353251
0.00353251
0.00349413
0.00349413
0.00353251
0.00349413
0.00349413
0.00353471
0.00349147
0.00353251
0.00349413
0.00349413
0.00349147
0.00348344
0.00343943
0.00348113
0.00348113
0.00344211
0.00344211
0.00348344
0.00343943
0.00348113
0.00348113
0.00344211
0.00344211
0.00348113
0.00344211
0.00344211
0.00348344
0.00343943
0.00348113
0.00344211
0.00344211
0.00343943
0.00343144
0.0033881
0.00342916
0.00342916
0.00339072
0.00339072
0.00343144
0.0033881
0.00342916
0.00342916
0.00339072
0.00339072
0.00342916
0.00339072
0.00339072
0.00343144
0.0033881
0.00342916
0.00339072
0.00339072
0.0033881
0.0033803
0.00333814
0.00337807
0.00337807
0.00334065
0.00334065
0.0033803
0.00333814
0.00337807
0.00337807
0.00334065
0.00334065
0.00337807
0.00334065
0.00334065
0.0033803
0.00333814
0.00337807
0.00334065
0.00334065
0.00333814
0.00333056
0.00328962
0.00332836
0.00332836
0.00329204
0.00329204
0.00333056
0.00328962
0.00332837
0.00332837
0.00329204
0.00329204
0.00332837
0.00329204
0.00329204
0.00333056
0.00328962
0.00332837
0.00329204
0.00329204
0.00328962
0.00328226
0.00324243
0.0032801
0.0032801
0.00324476
0.00324476
0.00328226
0.00324243
0.0032801
0.0032801
0.00324476
0.00324476
0.0032801
0.00324476
0.00324476
0.00328226
0.00324243
0.0032801
0.00324476
0.00324476
0.00324243
0.00323525
0.00319637
0.00323313
0.00323313
0.00319863
0.00319863
0.00323525
0.00319637
0.00323313
0.00323313
0.00319863
0.00319863
0.00323313
0.00319863
0.00319863
0.00323525
0.00319637
0.00323313
0.00319863
0.00319863
0.00319637
0.00318935
0.00315124
0.00318725
0.00318725
0.00315343
0.00315343
0.00318935
0.00315124
0.00318725
0.00318725
0.00315344
0.00315343
0.00318725
0.00315344
0.00315344
0.00318934
0.00315124
0.00318725
0.00315344
0.00315344
0.00315124
0.00314433
0.00310685
0.00314226
0.00314226
0.003109
0.003109
0.00314433
0.00310685
0.00314226
0.00314226
0.003109
0.003109
0.00314226
0.003109
0.003109
0.00314433
0.00310685
0.00314226
0.003109
0.003109
0.00310685
0.00310004
0.00306307
0.00309799
0.00309799
0.00306518
0.00306518
0.00310004
0.00306306
0.00309799
0.00309799
0.00306518
0.00306518
0.00309799
0.00306518
0.00306518
0.00310004
0.00306306
0.00309799
0.00306518
0.00306518
0.00306306
0.00305634
0.0030198
0.00305431
0.00305431
0.00302189
0.00302189
0.00305633
0.00301979
0.00305432
0.00305432
0.0030219
0.00302189
0.00305431
0.00302189
0.00302189
0.00305634
0.0030198
0.00305431
0.0030219
0.00302189
0.00301979
0.00301314
0.00297701
0.00301115
0.00301115
0.00297908
0.00297908
0.00301314
0.00297701
0.00301115
0.00301115
0.00297908
0.00297908
0.00301115
0.00297908
0.00297908
0.00301315
0.00297701
0.00301115
0.00297908
0.00297908
0.00297701
0.00297042
0.00293467
0.00296844
0.00296844
0.0029367
0.0029367
0.00297042
0.00293467
0.00296844
0.00296844
0.0029367
0.0029367
0.00296844
0.0029367
0.0029367
0.00297042
0.00293467
0.00296844
0.0029367
0.0029367
0.00293467
0.00292813
0.00289275
0.00292617
0.00292617
0.00289473
0.00289473
0.00292813
0.00289275
0.00292617
0.00292617
0.00289473
0.00289473
0.00292617
0.00289473
0.00289473
0.00292813
0.00289275
0.00292617
0.00289473
0.00289473
0.00289275
0.00288625
0.0028512
0.0028843
0.0028843
0.00285315
0.00285315
0.00288625
0.0028512
0.0028843
0.0028843
0.00285315
0.00285315
0.0028843
0.00285315
0.00285315
0.00288625
0.0028512
0.0028843
0.00285315
0.00285315
0.0028512
0.00284474
0.00281001
0.00284281
0.00284281
0.00281193
0.00281193
0.00284474
0.00281001
0.00284281
0.00284281
0.00281193
0.00281193
0.00284281
0.00281193
0.00281193
0.00284474
0.00281001
0.00284281
0.00281193
0.00281193
0.00281001
0.00280359
0.00276916
0.00280168
0.00280168
0.00277105
0.00277105
0.00280359
0.00276916
0.00280168
0.00280168
0.00277105
0.00277105
0.00280168
0.00277105
0.00277105
0.00280359
0.00276916
0.00280168
0.00277105
0.00277105
0.00276916
0.00276278
0.00272862
0.00276088
0.00276088
0.00273048
0.00273048
0.00276278
0.00272862
0.00276088
0.00276088
0.00273048
0.00273048
0.00276088
0.00273048
0.00273048
0.00276278
0.00272862
0.00276088
0.00273048
0.00273048
0.00272862
0.00272227
0.00268838
0.00272038
0.00272038
0.0026902
0.0026902
0.00272227
0.00268838
0.00272038
0.00272038
0.0026902
0.00269021
0.00272038
0.0026902
0.0026902
0.00272227
0.00268838
0.00272038
0.00269021
0.00269021
0.00268838
0.00268206
0.00268018
0.00268018
0.00268206
0.00268018
0.00268018
0.00268018
0.00268206
0.00268018
0.00360843
0.0036184
0.00361301
0.00361301
0.00363545
0.00362241
0.00365095
0.00361631
0.00363542
0.00362238
0.00361629
0.00365082
0.00362691
0.003655
0.00365501
0.00356739
0.00356748
0.00358576
0.00356571
0.00354559
0.00356466
0.00356739
0.00356739
0.00358575
0.00356569
0.0035859
0.00358591
0.0035859
0.00354476
0.00354476
0.00354476
0.00354476
0.00356606
0.00358281
0.00358598
0.00357022
0.00358813
0.00356702
0.00357086
0.00354566
0.00356471
0.00356608
0.00358599
0.00358284
0.00357023
0.00358814
0.00357087
0.00356703
0.00357946
0.00357945
0.00356708
0.00356738
0.00356739
0.00351774
0.00353559
0.00353661
0.00351683
0.00353497
0.00351636
0.00351774
0.00353559
0.00353661
0.00351683
0.00353237
0.00353237
0.00353237
0.00349408
0.00349407
0.00349407
0.00349407
0.00351683
0.00353608
0.00353244
0.00351989
0.00353538
0.0035173
0.00351983
0.00353497
0.00351636
0.00351683
0.00353244
0.00353608
0.00351989
0.00353538
0.00351983
0.0035173
0.00353635
0.00353636
0.00351726
0.00351742
0.00351743
0.00346547
0.00348407
0.00348491
0.0034647
0.00348377
0.00346446
0.00346547
0.00348407
0.00348491
0.0034647
0.0034811
0.0034811
0.00348109
0.00344213
0.00344213
0.00344213
0.00344213
0.00346495
0.00348444
0.0034811
0.00346811
0.00348415
0.00346512
0.0034681
0.00348377
0.00346446
0.00346495
0.0034811
0.00348444
0.00346811
0.00348415
0.0034681
0.00346512
0.00348451
0.00348451
0.00346543
0.00346507
0.00346507
0.00341336
0.00343185
0.00343253
0.00341275
0.00343168
0.00341259
0.00341336
0.00343185
0.00343253
0.00341275
0.00342919
0.00342919
0.00342919
0.00339077
0.00339077
0.00339077
0.00339077
0.00341308
0.00343216
0.00342916
0.00341627
0.00343206
0.00341313
0.00341628
0.00343168
0.00341259
0.00341308
0.00342916
0.00343216
0.00341627
0.00343206
0.00341628
0.00341313
0.00343215
0.00343215
0.00341362
0.00341301
0.00341301
0.00336249
0.00338062
0.00338113
0.00336205
0.00338051
0.00336191
0.00336249
0.00338062
0.00338113
0.00336205
0.00337812
0.00337812
0.00337812
0.0033407
0.0033407
0.0033407
0.0033407
0.00336237
0.00338086
0.00337807
0.0033655
0.00338083
0.00336238
0.00336551
0.00338051
0.00336192
0.00336237
0.00337807
0.00338086
0.0033655
0.00338083
0.00336551
0.00336237
0.00338085
0.00338085
0.00336294
0.00336225
0.00336225
0.00331314
0.00333085
0.0033312
0.00331283
0.00333077
0.0033127
0.00331314
0.00333085
0.0033312
0.00331283
0.00332841
0.00332841
0.00332841
0.00329207
0.00329207
0.00329207
0.00329207
0.00331313
0.00333103
0.00332836
0.00331617
0.00333102
0.00331312
0.00331617
0.00333075
0.00331272
0.00331312
0.00332836
0.00333103
0.00331617
0.00333102
0.00331617
0.00331312
0.00333104
0.00333104
0.00331371
0.00331301
0.00331301
0.00326525
0.00328254
0.00328278
0.00326503
0.00328245
0.00326492
0.00326525
0.00328254
0.00328278
0.00326503
0.00328013
0.00328013
0.00328013
0.00324479
0.00324479
0.00324479
0.00324479
0.0032653
0.00328268
0.00328009
0.00326825
0.00328267
0.0032653
0.00326823
0.00328245
0.00326492
0.0032653
0.00328009
0.00328268
0.00326825
0.00328267
0.00326823
0.0032653
0.0032827
0.0032827
0.00326588
0.00326519
0.00326519
0.00321862
0.00323553
0.0032357
0.00321845
0.00323545
0.00321835
0.00321862
0.00323553
0.0032357
0.00321845
0.00323315
0.00323315
0.00323315
0.00319864
0.00319864
0.00319864
0.00319864
0.00321872
0.00323564
0.00323311
0.00322157
0.00323563
0.00321871
0.00322155
0.00323545
0.00321835
0.00321872
0.00323312
0.00323564
0.00322157
0.00323563
0.00322155
0.00321871
0.00323568
0.00323568
0.00321928
0.0032186
0.0032186
0.00317304
0.00318962
0.00318975
0.0031729
0.00318955
0.0031728
0.00317304
0.00318962
0.00318975
0.0031729
0.00318726
0.00318726
0.00318726
0.00315344
0.00315344
0.00315344
0.00315344
0.00317317
0.00318971
0.00318723
0.00317593
0.0031897
0.00317316
0.00317591
0.00318955
0.0031728
0.00317317
0.00318723
0.00318971
0.00317593
0.0031897
0.00317591
0.00317315
0.00318975
0.00318975
0.0031737
0.00317304
0.00317304
0.00312829
0.00314461
0.00314472
0.00312818
0.00314454
0.00312808
0.00312829
0.00314461
0.00314472
0.00312818
0.00314226
0.00314226
0.00314226
0.00310899
0.00310899
0.00310899
0.00310899
0.00312844
0.00314469
0.00314224
0.00313113
0.00314468
0.00312843
0.00313111
0.00314453
0.00312808
0.00312844
0.00314224
0.00314469
0.00313113
0.00314468
0.00313111
0.00312843
0.00314473
0.00314473
0.00312896
0.0031283
0.0031283
0.00308423
0.00310031
0.00310041
0.00308411
0.00310024
0.00308402
0.00308423
0.00310031
0.00310041
0.00308411
0.00309798
0.00309798
0.00309798
0.00306517
0.00306517
0.00306517
0.00306517
0.0030844
0.00310038
0.00309797
0.00308702
0.00310038
0.00308437
0.003087
0.00310024
0.00308402
0.0030844
0.00309797
0.00310038
0.00308702
0.00310038
0.003087
0.00308437
0.00310042
0.00310042
0.00308488
0.00308423
0.00308423
0.00304073
0.00305661
0.00305671
0.00304061
0.00305655
0.00304052
0.00304073
0.00305661
0.00305671
0.00304061
0.0030543
0.0030543
0.0030543
0.00302188
0.00302188
0.00302188
0.00302188
0.00304092
0.00305667
0.00305429
0.00304348
0.00305668
0.00304087
0.00304346
0.00305655
0.00304053
0.00304092
0.00305429
0.00305667
0.00304348
0.00305669
0.00304346
0.00304087
0.00305671
0.00305671
0.00304137
0.00304071
0.00304072
0.00299772
0.00301342
0.00301352
0.0029976
0.00301336
0.00299752
0.00299772
0.00301342
0.00301352
0.0029976
0.00301114
0.00301114
0.00301114
0.00297907
0.00297907
0.00297907
0.00297907
0.00299793
0.00301348
0.00301113
0.00300043
0.0030135
0.00299785
0.00300042
0.00301337
0.00299752
0.00299793
0.00301113
0.00301348
0.00300043
0.0030135
0.00300042
0.00299785
0.00301351
0.00301351
0.00299834
0.00299769
0.00299769
0.00295516
0.0029707
0.0029708
0.00295503
0.00297065
0.00295496
0.00295516
0.0029707
0.0029708
0.00295503
0.00296843
0.00296843
0.00296843
0.00293669
0.00293669
0.00293669
0.00293669
0.00295539
0.00297075
0.00296843
0.00295784
0.00297079
0.00295529
0.00295783
0.00297065
0.00295496
0.00295539
0.00296843
0.00297075
0.00295784
0.00297079
0.00295783
0.00295529
0.00297078
0.00297078
0.00295579
0.00295512
0.00295512
0.00291302
0.0029284
0.00292851
0.00291289
0.00292836
0.00291283
0.00291302
0.0029284
0.00292851
0.00291289
0.00292616
0.00292616
0.00292616
0.00289472
0.00289472
0.00289472
0.00289472
0.00291327
0.00292844
0.00292616
0.00291567
0.0029285
0.00291314
0.00291566
0.00292836
0.00291282
0.00291327
0.00292616
0.00292844
0.00291567
0.0029285
0.00291566
0.00291314
0.00292847
0.00292847
0.00291366
0.00291297
0.00291297
0.00287127
0.00288652
0.00288662
0.00287114
0.00288647
0.00287108
0.00287127
0.00288652
0.00288662
0.00287114
0.00288429
0.00288429
0.00288429
0.00285314
0.00285314
0.00285314
0.00285314
0.00287154
0.00288655
0.0028843
0.00287389
0.00288662
0.00287139
0.00287389
0.00288647
0.00287108
0.00287154
0.0028843
0.00288655
0.00287389
0.00288662
0.00287389
0.00287139
0.00288658
0.00288658
0.00287193
0.00287121
0.00287121
0.0028299
0.00284501
0.00284512
0.00282977
0.00284497
0.00282972
0.0028299
0.00284501
0.00284511
0.00282977
0.00284281
0.0028428
0.00284281
0.00281192
0.00281192
0.00281192
0.00281192
0.00283018
0.00284504
0.00284281
0.0028325
0.00284512
0.00283001
0.0028325
0.00284497
0.00282972
0.00283018
0.00284281
0.00284504
0.0028325
0.00284512
0.0028325
0.00283001
0.00284507
0.00284506
0.00283056
0.00282983
0.00282983
0.00278888
0.00280387
0.00280397
0.00278876
0.00280384
0.00278871
0.00278888
0.00280387
0.00280397
0.00278876
0.00280167
0.00280167
0.00280167
0.00277104
0.00277104
0.00277104
0.00277104
0.00278917
0.00280389
0.00280168
0.00279145
0.00280397
0.00278899
0.00279145
0.00280384
0.00278871
0.00278917
0.00280168
0.00280389
0.00279145
0.00280397
0.00279145
0.00278899
0.00280391
0.00280391
0.00278955
0.00278881
0.00278881
0.00274818
0.00276307
0.00276316
0.00274806
0.00276303
0.00274802
0.00274819
0.00276307
0.00276316
0.00274806
0.00276087
0.00276087
0.00276087
0.00273047
0.00273047
0.00273047
0.00273047
0.00274848
0.00276307
0.00276088
0.00275072
0.00276316
0.00274829
0.00275073
0.00276303
0.00274802
0.00274848
0.00276088
0.00276308
0.00275072
0.00276316
0.00275073
0.00274829
0.0027631
0.0027631
0.00274885
0.00274811
0.00274811
0.00270779
0.00272257
0.00272265
0.00270767
0.00272253
0.00270765
0.00270779
0.00272257
0.00272266
0.00270767
0.00272038
0.00272038
0.00272038
0.0026902
0.0026902
0.0026902
0.0026902
0.00270809
0.00272257
0.00272039
0.00271031
0.00272265
0.00270788
0.00271031
0.00272254
0.00270763
0.00270809
0.00272039
0.00272257
0.00271031
0.00272265
0.00271031
0.00270788
0.0027226
0.0027226
0.00270846
0.00270771
0.00270771
0.00266767
0.00268236
0.00268244
0.00266755
0.00268232
0.00266752
0.00268236
0.00268244
0.00266756
0.00268018
0.00268018
0.00268018
0.00266796
0.00268235
0.00268018
0.00267017
0.00268243
0.00266776
0.00267017
0.00268233
0.00266797
0.00268018
0.00268235
0.00268243
0.00267017
0.00268239
0.00268239
0.00266835
0.0026676
0.0026676
0.0036269
0.00365499
0.00365492
0.00360951
0.00365492
0.00360951
0.00365476
0.00362354
0.00360778
0.00360784
0.00364924
0.00364914
0.00363547
0.0036224
0.00365091
0.0036163
0.00363547
0.00362241
0.00365097
0.00361631
0.00363919
0.00360321
0.00365153
0.00360093
0.00363919
0.0036032
0.00365163
0.00360094
0.00363085
0.00361955
0.00360271
0.00360153
0.00364553
0.0036144
0.00360106
0.00363085
0.00361956
0.00360269
0.00360153
0.00364561
0.0036144
0.00360107
0.00362691
0.00365507
0.00365505
0.00360946
0.00365504
0.00362354
0.00360777
0.0036078
0.00364934
0.00364932
0.00360951
0.00365501
0.00363544
0.0036224
0.00365086
0.0036163
0.00363543
0.00362239
0.0036163
0.00365085
0.00363917
0.00360329
0.00365124
0.00360096
0.00363083
0.00361955
0.0036027
0.00360154
0.00364539
0.0036144
0.00360108
0.00363916
0.00360328
0.00365125
0.00360095
0.00363083
0.00361954
0.00360154
0.0036027
0.0036144
0.00364538
0.00360108
0.00360843
0.00361841
0.00361301
0.00361301
0.00360843
0.00361839
0.00361301
0.00361301
0.00360843
0.00361841
0.00361301
0.00361301
0.00360712
0.00361603
0.0035986
0.0035986
0.00361135
0.00361135
0.00359697
0.00360712
0.00361604
0.0035986
0.0035986
0.00361136
0.00361136
0.00359697
0.00360712
0.00361603
0.0035986
0.0035986
0.00361135
0.00361135
0.00359697
0.00360712
0.00361604
0.0035986
0.0035986
0.00361136
0.00361135
0.00359697
0.00363545
0.00362241
0.00361631
0.00365091
0.00363084
0.00361955
0.00360271
0.00360154
0.00364559
0.0036144
0.00360109
0.00363917
0.00360323
0.00365159
0.00360096
0.00363085
0.00361956
0.00360154
0.00360272
0.0036144
0.00364555
0.00360108
0.00363918
0.00360322
0.00365155
0.00360094
0.00362688
0.00365492
0.00365491
0.00360949
0.00365477
0.00362353
0.00360783
0.00360785
0.00364914
0.00364915
0.0036095
0.00365478
0.00363543
0.00362241
0.0036163
0.00365091
0.00363081
0.00361954
0.00360155
0.00360273
0.0036144
0.00364537
0.00360111
0.00363083
0.00361956
0.00360154
0.0036027
0.0036144
0.00364555
0.00360109
0.00363914
0.00360332
0.00365122
0.00360098
0.00363916
0.00360323
0.00365154
0.00360096
0.00362355
0.00360781
0.00360778
0.00364926
0.00364928
0.00360951
0.00365492
0.0036095
0.00365495
0.00354555
0.00356468
0.00354562
0.00356468
0.00357942
0.00357946
0.0035671
0.00356737
0.00356738
0.00354137
0.0035579
0.00354136
0.00355796
0.00355951
0.00354288
0.00354287
0.00356054
0.00356055
0.00356739
0.00356748
0.00358575
0.00356571
0.00356607
0.0035828
0.00358597
0.00357022
0.00358812
0.00356701
0.00357086
0.00356607
0.0035828
0.00358597
0.00357022
0.00358812
0.00356701
0.00357086
0.00356101
0.00354205
0.00355902
0.00354308
0.00356101
0.00354205
0.00355902
0.00354308
0.00355966
0.00355722
0.00354261
0.00354486
0.00356031
0.0035574
0.00354189
0.00355966
0.00355722
0.00354261
0.00354486
0.00356031
0.0035574
0.00354189
0.00357944
0.00357947
0.00356711
0.00356738
0.00356739
0.00354567
0.00356473
0.00354136
0.00355789
0.00355951
0.00354288
0.00354288
0.00356054
0.00356055
0.00354138
0.00355794
0.00356606
0.00358281
0.00358598
0.00357023
0.00358813
0.00356701
0.00357086
0.00356739
0.00356738
0.00358573
0.00356574
0.00356607
0.00358598
0.00358281
0.00357022
0.00358812
0.00357086
0.00356703
0.00356101
0.00354205
0.00355904
0.00354308
0.00355966
0.00355722
0.00354261
0.00354486
0.00356032
0.0035574
0.00354189
0.00356101
0.00354205
0.00355904
0.00354308
0.00355966
0.00355722
0.00354486
0.00354261
0.0035574
0.00356033
0.00354189
0.00356739
0.00356749
0.00358575
0.00356574
0.00356607
0.00358598
0.00358282
0.00357022
0.00358813
0.00357086
0.00356701
0.00356739
0.00356752
0.00358574
0.00356572
0.00355966
0.00355722
0.00354262
0.00354486
0.00356031
0.0035574
0.00354189
0.00356101
0.00354206
0.00355903
0.00354308
0.00355966
0.00355722
0.00354486
0.00354262
0.0035574
0.00356031
0.00354189
0.00356101
0.00354206
0.00355901
0.00354308
0.00357946
0.00357949
0.00356708
0.0035674
0.00356739
0.00354568
0.00356469
0.00354137
0.00355793
0.00355952
0.00354288
0.00354287
0.00356056
0.00356055
0.00354135
0.00355792
0.00356607
0.00358598
0.0035828
0.00357023
0.00358813
0.00357087
0.00356702
0.00356741
0.00356743
0.00358576
0.00356572
0.0035674
0.00356748
0.00358575
0.00356573
0.00355967
0.00355722
0.00354486
0.00354261
0.0035574
0.00356033
0.00354188
0.00355966
0.00355722
0.00354485
0.00354261
0.0035574
0.00356032
0.00354188
0.00356102
0.00354205
0.00355905
0.00354308
0.00356101
0.00354204
0.00355903
0.00354308
0.0035457
0.00356469
0.00354567
0.00356471
0.00355952
0.00354288
0.00354287
0.00356055
0.00356054
0.00354137
0.00355791
0.00354135
0.00355793
0.00353497
0.00351636
0.00353495
0.00351636
0.00353636
0.00353636
0.00351726
0.00351743
0.00351743
0.00349054
0.0035097
0.00349054
0.0035097
0.00350934
0.00349133
0.00349133
0.0035107
0.0035107
0.00351774
0.00353559
0.00353661
0.00351683
0.00351683
0.00353608
0.00353244
0.00351989
0.00353538
0.0035173
0.00351983
0.00351683
0.00353608
0.00353244
0.00351989
0.00353538
0.0035173
0.00351983
0.00351103
0.00349087
0.00351012
0.00349171
0.00351103
0.00349087
0.00351013
0.00349171
0.00351007
0.00350707
0.00349131
0.00349409
0.00351053
0.00350702
0.00349102
0.00351007
0.00350707
0.00349131
0.00349409
0.00351053
0.00350702
0.00349102
0.00353636
0.00353637
0.00351726
0.00351743
0.00351743
0.00353499
0.00351636
0.00349054
0.0035097
0.00350934
0.00349133
0.00349133
0.0035107
0.0035107
0.00349054
0.0035097
0.00351683
0.00353607
0.00353244
0.00351989
0.00353538
0.0035173
0.00351983
0.00351774
0.00353559
0.00353662
0.00351683
0.00351683
0.00353244
0.00353608
0.00351989
0.00353538
0.00351983
0.0035173
0.00351103
0.00349087
0.00351012
0.00349171
0.00351007
0.00350707
0.00349131
0.00349409
0.00351053
0.00350702
0.00349102
0.00351103
0.00349086
0.00351012
0.00349171
0.00351007
0.00350707
0.00349409
0.00349131
0.00350702
0.00351053
0.00349102
0.00351774
0.0035356
0.00353661
0.00351683
0.00351683
0.00353244
0.00353607
0.00351989
0.00353538
0.00351983
0.0035173
0.00351773
0.00353558
0.00353661
0.00351683
0.00351007
0.00350707
0.00349131
0.00349409
0.00351053
0.00350702
0.00349102
0.00351103
0.00349086
0.00351012
0.00349171
0.00351007
0.00350707
0.00349409
0.00349131
0.00350702
0.00351053
0.00349102
0.00351103
0.00349086
0.00351012
0.00349171
0.00353636
0.00353636
0.00351726
0.00351743
0.00351743
0.00353496
0.00351636
0.00349054
0.0035097
0.00350934
0.00349133
0.00349133
0.0035107
0.0035107
0.00349054
0.0035097
0.00351683
0.00353244
0.00353608
0.00351989
0.00353538
0.00351983
0.0035173
0.00351774
0.00353559
0.00353662
0.00351683
0.00351774
0.00353559
0.00353662
0.00351683
0.00351007
0.00350707
0.00349409
0.00349131
0.00350702
0.00351053
0.00349102
0.00351007
0.00350707
0.00349409
0.00349131
0.00350702
0.00351053
0.00349102
0.00351104
0.00349086
0.00351012
0.00349171
0.00351103
0.00349086
0.00351012
0.00349171
0.00353495
0.00351636
0.00353496
0.00351636
0.00350934
0.00349133
0.00349133
0.00351069
0.0035107
0.00349054
0.0035097
0.00349054
0.0035097
0.00348377
0.00346446
0.00348377
0.00346446
0.00348452
0.00348452
0.00346544
0.00346507
0.00346507
0.00343842
0.00345768
0.00343842
0.00345768
0.00345739
0.00343891
0.00343891
0.00345826
0.00345826
0.00346547
0.00348407
0.00348491
0.0034647
0.00346495
0.00348444
0.0034811
0.00346811
0.00348415
0.00346512
0.0034681
0.00346495
0.00348444
0.0034811
0.00346812
0.00348415
0.00346512
0.0034681
0.00345866
0.00343861
0.0034579
0.0034393
0.00345866
0.00343861
0.00345789
0.0034393
0.00345806
0.0034551
0.00343901
0.00344211
0.00345824
0.00345509
0.00343892
0.00345806
0.0034551
0.00343901
0.00344211
0.00345824
0.00345509
0.00343892
0.00348452
0.00348451
0.00346543
0.00346507
0.00346507
0.00348377
0.00346446
0.00343842
0.00345768
0.00345739
0.00343891
0.00343891
0.00345826
0.00345826
0.00343842
0.00345768
0.00346495
0.00348444
0.0034811
0.00346811
0.00348415
0.00346512
0.0034681
0.00346547
0.00348407
0.00348491
0.0034647
0.00346495
0.0034811
0.00348444
0.00346811
0.00348415
0.0034681
0.00346512
0.00345866
0.00343861
0.00345789
0.0034393
0.00345806
0.0034551
0.00343901
0.00344211
0.00345824
0.00345509
0.00343892
0.00345866
0.00343861
0.00345789
0.0034393
0.00345806
0.0034551
0.00344211
0.00343901
0.00345509
0.00345824
0.00343892
0.00346547
0.00348407
0.00348491
0.0034647
0.00346495
0.0034811
0.00348444
0.00346811
0.00348415
0.0034681
0.00346512
0.00346547
0.00348407
0.00348491
0.0034647
0.00345806
0.0034551
0.00343901
0.00344211
0.00345823
0.00345509
0.00343892
0.00345866
0.00343861
0.00345789
0.0034393
0.00345806
0.0034551
0.00344211
0.00343901
0.00345509
0.00345824
0.00343892
0.00345866
0.00343861
0.00345789
0.0034393
0.00348451
0.00348452
0.00346543
0.00346507
0.00346507
0.00348377
0.00346446
0.00343842
0.00345768
0.00345739
0.00343891
0.00343891
0.00345826
0.00345826
0.00343842
0.00345768
0.00346495
0.0034811
0.00348444
0.00346811
0.00348415
0.0034681
0.00346512
0.00346547
0.00348407
0.00348491
0.0034647
0.00346547
0.00348407
0.00348491
0.0034647
0.00345806
0.0034551
0.00344211
0.00343901
0.00345509
0.00345823
0.00343892
0.00345806
0.0034551
0.00344211
0.00343901
0.00345509
0.00345824
0.00343892
0.00345866
0.0034386
0.00345789
0.0034393
0.00345866
0.00343861
0.00345789
0.0034393
0.00348377
0.00346446
0.00348377
0.00346446
0.00345739
0.00343891
0.00343891
0.00345826
0.00345826
0.00343842
0.00345768
0.00343842
0.00345768
0.00343169
0.00341259
0.00343168
0.00341259
0.00343215
0.00343215
0.00341362
0.00341301
0.00341301
0.00338708
0.00340593
0.00338708
0.00340593
0.00340571
0.00338744
0.00338744
0.00340632
0.00340632
0.00341336
0.00343185
0.00343253
0.00341275
0.00341308
0.00343216
0.00342917
0.00341627
0.00343206
0.00341313
0.00341628
0.00341308
0.00343216
0.00342916
0.00341627
0.00343206
0.00341313
0.00341628
0.00340666
0.00338722
0.00340607
0.00338774
0.00340666
0.00338722
0.00340607
0.00338774
0.00340628
0.00340345
0.00338757
0.00339073
0.00340634
0.00340346
0.00338755
0.00340628
0.00340346
0.00338757
0.00339073
0.00340634
0.00340346
0.00338755
0.00343215
0.00343215
0.00341362
0.00341301
0.00341301
0.00343168
0.00341259
0.00338708
0.00340593
0.00340571
0.00338745
0.00338745
0.00340633
0.00340633
0.00338708
0.00340593
0.00341308
0.00343216
0.00342916
0.00341627
0.00343206
0.00341312
0.00341628
0.00341336
0.00343185
0.00343253
0.00341275
0.00341308
0.00342916
0.00343216
0.00341627
0.00343206
0.00341628
0.00341313
0.00340666
0.00338722
0.00340607
0.00338774
0.00340628
0.00340345
0.00338757
0.00339073
0.00340634
0.00340346
0.00338755
0.00340666
0.00338722
0.00340607
0.00338774
0.00340628
0.00340346
0.00339073
0.00338757
0.00340346
0.00340634
0.00338755
0.00341336
0.00343185
0.00343253
0.00341275
0.00341308
0.00342916
0.00343216
0.00341627
0.00343206
0.00341628
0.00341313
0.00341336
0.00343185
0.00343253
0.00341275
0.00340628
0.00340345
0.00338757
0.00339073
0.00340634
0.00340346
0.00338755
0.00340666
0.00338722
0.00340607
0.00338774
0.00340628
0.00340345
0.00339073
0.00338757
0.00340346
0.00340634
0.00338755
0.00340666
0.00338722
0.00340607
0.00338774
0.00343215
0.00343215
0.00341362
0.00341301
0.00341301
0.00343168
0.00341259
0.00338708
0.00340593
0.00340571
0.00338744
0.00338744
0.00340632
0.00340633
0.00338708
0.00340593
0.00341308
0.00342916
0.00343216
0.00341627
0.00343206
0.00341628
0.00341313
0.00341336
0.00343185
0.00343253
0.00341275
0.00341336
0.00343185
0.00343253
0.00341275
0.00340628
0.00340345
0.00339073
0.00338757
0.00340346
0.00340634
0.00338755
0.00340628
0.00340345
0.00339073
0.00338757
0.00340346
0.00340634
0.00338755
0.00340666
0.00338722
0.00340607
0.00338774
0.00340666
0.00338722
0.00340607
0.00338774
0.00343169
0.00341259
0.00343169
0.00341259
0.00340571
0.00338744
0.00338745
0.00340633
0.00340633
0.00338708
0.00340593
0.00338708
0.00340593
0.00338051
0.00336192
0.00338051
0.00336192
0.00338085
0.00338085
0.00336294
0.00336225
0.00336225
0.00333714
0.00335544
0.00333714
0.00335544
0.00335525
0.00333744
0.00333744
0.00335575
0.00335575
0.00336249
0.00338063
0.00338113
0.00336204
0.00336237
0.00338086
0.00337807
0.0033655
0.00338083
0.00336238
0.00336551
0.00336237
0.00338087
0.00337807
0.0033655
0.00338083
0.00336237
0.00336551
0.00335597
0.00333725
0.00335555
0.00333762
0.00335597
0.00333726
0.00335554
0.00333762
0.00335574
0.00335303
0.00333756
0.00334065
0.00335576
0.00335304
0.00333756
0.00335574
0.00335303
0.00333756
0.00334065
0.00335576
0.00335304
0.00333756
0.00338085
0.00338085
0.00336294
0.00336225
0.00336225
0.00338051
0.00336192
0.00333714
0.00335544
0.00335525
0.00333745
0.00333744
0.00335575
0.00335575
0.00333714
0.00335544
0.00336237
0.00338086
0.00337807
0.0033655
0.00338083
0.00336237
0.00336551
0.00336249
0.00338062
0.00338113
0.00336205
0.00336237
0.00337807
0.00338086
0.0033655
0.00338083
0.00336551
0.00336237
0.00335597
0.00333725
0.00335555
0.00333762
0.00335574
0.00335303
0.00333756
0.00334065
0.00335576
0.00335304
0.00333756
0.00335597
0.00333725
0.00335555
0.00333762
0.00335574
0.00335303
0.00334065
0.00333756
0.00335304
0.00335576
0.00333756
0.00336249
0.00338062
0.00338113
0.00336205
0.00336237
0.00337807
0.00338086
0.0033655
0.00338083
0.00336551
0.00336238
0.00336249
0.00338062
0.00338113
0.00336205
0.00335574
0.00335303
0.00333756
0.00334065
0.00335576
0.00335304
0.00333756
0.00335597
0.00333725
0.00335555
0.00333762
0.00335574
0.00335303
0.00334065
0.00333756
0.00335304
0.00335576
0.00333756
0.00335597
0.00333725
0.00335555
0.00333762
0.00338085
0.00338085
0.00336294
0.00336225
0.00336225
0.00338051
0.00336192
0.00333713
0.00335544
0.00335525
0.00333744
0.00333744
0.00335575
0.00335575
0.00333713
0.00335544
0.00336237
0.00337807
0.00338087
0.0033655
0.00338083
0.00336551
0.00336237
0.00336249
0.00338062
0.00338113
0.00336205
0.00336249
0.00338062
0.00338113
0.00336205
0.00335574
0.00335303
0.00334065
0.00333756
0.00335304
0.00335576
0.00333756
0.00335574
0.00335303
0.00334065
0.00333756
0.00335304
0.00335576
0.00333756
0.00335597
0.00333725
0.00335555
0.00333762
0.00335597
0.00333725
0.00335555
0.00333762
0.00338051
0.00336192
0.00338051
0.00336192
0.00335525
0.00333744
0.00333744
0.00335575
0.00335575
0.00333714
0.00335544
0.00333714
0.00335544
0.00333075
0.00331272
0.00333075
0.00331272
0.00333104
0.00333104
0.00331371
0.00331301
0.00331301
0.00328865
0.00330643
0.00328865
0.00330643
0.00330624
0.00328893
0.00328893
0.0033067
0.0033067
0.00331314
0.00333085
0.0033312
0.00331282
0.00331313
0.00333103
0.00332836
0.00331617
0.00333102
0.00331312
0.00331617
0.00331313
0.00333103
0.00332836
0.00331617
0.00333102
0.00331312
0.00331617
0.00330681
0.00328876
0.00330652
0.00328902
0.00330681
0.00328876
0.00330651
0.00328902
0.00330667
0.00330406
0.00328904
0.00329203
0.00330668
0.00330406
0.00328905
0.00330667
0.00330406
0.00328904
0.00329203
0.00330668
0.00330405