/*--------------------------------*- C++ -*----------------------------------*\
| =========                 |                                                 |
| \\      /  F ield         | OpenFOAM: The Open Source CFD Toolbox           |
|  \\    /   O peration     | Version:  v1906                                 |
|   \\  /    A nd           | Web:      www.OpenFOAM.com                      |
|    \\/     M anipulation  |                                                 |
\*---------------------------------------------------------------------------*/
FoamFile
{
    version     2.0;
    format      ascii;
    class       surfaceScalarField;
    location    "600";
    object      phi;
}
// * * * * * * * * * * * * * * * * * * * * * * * * * * * * * * * * * * * * * //

dimensions      [0 3 -1 0 0 0 0];
oriented        oriented;


internalField   nonuniform List<scalar> 
123728
(
-0.00104218
-1.46309e-05
-1.45277e-05
9.38348e-06
9.21402e-06
0.00105274
-0.00026149
-5.68379e-06
1.45087e-05
6.88851e-06
0.00105925
-4.59293e-06
-1.59753e-06
-2.12091e-06
-2.49051e-06
-6.62361e-06
-7.11453e-06
-2.98582e-06
-0.000263331
-0.000259761
-0.000262856
-0.000261467
-5.68876e-06
1.45386e-05
6.97894e-06
0.00105904
-4.5983e-06
-1.60757e-06
-2.12843e-06
-2.49538e-06
-6.6185e-06
-7.11146e-06
-2.9882e-06
-0.000259733
-0.000263303
-0.00026282
-0.000260564
5.65951e-06
5.69949e-06
-4.95356e-06
-4.94759e-06
0.000259106
-1.65225e-06
-1.65409e-06
-0.0010608
9.34044e-07
9.34592e-07
0.00106223
-0.00106274
-1.6184e-06
1.64869e-06
8.30895e-07
0.00106394
-6.79778e-07
8.3508e-07
-9.89495e-08
4.2301e-07
-8.50345e-07
-1.43181e-06
-2.54917e-07
-0.00106242
-1.61356e-06
1.65882e-06
8.2622e-07
0.00106362
-6.80029e-07
8.29374e-07
-9.92761e-08
4.21035e-07
-8.5251e-07
-1.43087e-06
-2.52149e-07
-0.000261566
1.651e-06
1.61386e-06
-6.98482e-07
-7.01359e-07
0.000259701
-1.37445e-06
-1.37593e-06
-0.00106635
6.96017e-07
6.96629e-07
0.00106771
-0.00106788
-1.57246e-06
1.38082e-06
6.90269e-07
0.00106923
-6.56975e-07
8.78567e-07
-7.30205e-08
4.61742e-07
-8.37237e-07
-1.39888e-06
-2.21411e-07
-0.00106756
-1.56731e-06
1.37571e-06
6.95942e-07
0.0010689
-6.57131e-07
8.7313e-07
-7.31557e-08
4.61635e-07
-8.37101e-07
-1.3934e-06
-2.18906e-07
-0.000262802
1.60231e-06
1.56743e-06
-6.63427e-07
-6.71581e-07
0.000260967
-1.34961e-06
-1.35122e-06
-0.00107181
6.75402e-07
6.76316e-07
0.00107316
-0.00107323
-1.57234e-06
1.35075e-06
6.66311e-07
0.00107454
-6.53337e-07
9.00787e-07
-5.29798e-08
4.75641e-07
-8.28211e-07
-1.40448e-06
-1.94778e-07
-0.00107289
-1.56715e-06
1.35045e-06
6.66845e-07
0.0010742
-6.50883e-07
8.95271e-07
-5.52295e-08
4.75688e-07
-8.30616e-07
-1.4042e-06
-1.92255e-07
-0.000264079
1.59959e-06
1.56725e-06
-6.55662e-07
-6.61212e-07
0.000262229
-1.30309e-06
-1.3045e-06
-0.00107714
6.51045e-07
6.52071e-07
0.00107844
-0.0010784
-1.56403e-06
1.30447e-06
6.35667e-07
0.00107965
-6.38519e-07
9.25031e-07
-3.47219e-08
4.94857e-07
-8.0982e-07
-1.40336e-06
-1.64947e-07
-0.00107806
-1.55874e-06
1.30432e-06
6.35784e-07
0.00107931
-6.35929e-07
9.19577e-07
-3.67381e-08
4.94738e-07
-8.1226e-07
-1.40321e-06
-1.62485e-07
-0.000265298
1.59163e-06
1.55898e-06
-6.40122e-07
-6.45837e-07
0.000263433
-1.25298e-06
-1.25416e-06
-0.00108228
6.26374e-07
6.27421e-07
0.00108353
-0.00108332
-1.55499e-06
1.25393e-06
6.06157e-07
0.00108452
-6.24127e-07
9.47053e-07
-1.38413e-08
5.16147e-07
-7.89078e-07
-1.3969e-06
-1.36921e-07
-0.00108298
-1.54962e-06
1.25396e-06
6.06444e-07
0.00108417
-6.21406e-07
9.41616e-07
-1.65601e-08
5.16068e-07
-7.91531e-07
-1.39674e-06
-1.34478e-07
-0.000266442
1.58269e-06
1.54988e-06
-6.24121e-07
-6.29789e-07
0.000264564
-1.20644e-06
-1.20755e-06
-0.00108722
6.04461e-07
6.05306e-07
0.00108842
-0.001088
-1.54735e-06
1.20731e-06
5.82261e-07
0.00108913
-6.11973e-07
9.66566e-07
3.63484e-09
5.37604e-07
-7.69667e-07
-1.3888e-06
-1.12242e-07
-0.00108766
-1.54215e-06
1.20719e-06
5.83059e-07
0.00108879
-6.09434e-07
9.60924e-07
7.20757e-10
5.3769e-07
-7.72037e-07
-1.38848e-06
-1.0975e-07
-0.000267513
1.57522e-06
1.5423e-06
-6.10024e-07
-6.15625e-07
0.000265621
-1.16588e-06
-1.1666e-06
-0.00109197
5.85834e-07
5.86689e-07
0.00109313
-0.00109245
-1.54174e-06
1.16688e-06
5.63692e-07
0.00109353
-6.02634e-07
9.83705e-07
1.80228e-08
5.5841e-07
-7.52746e-07
-1.38083e-06
-9.10388e-08
-0.00109211
-1.53654e-06
1.1669e-06
5.64587e-07
0.00109318
-6.00113e-07
9.7804e-07
1.50846e-08
5.58454e-07
-7.55154e-07
-1.38053e-06
-8.8637e-08
-0.000268515
1.56977e-06
1.53666e-06
-5.9826e-07
-6.03924e-07
0.000266611
-1.13075e-06
-1.13198e-06
-0.00109655
5.70253e-07
5.71267e-07
0.00109767
-0.00109669
-1.53795e-06
1.13253e-06
5.49183e-07
0.00109772
-5.95922e-07
9.98695e-07
2.98181e-08
5.78492e-07
-7.38163e-07
-1.37343e-06
-7.28616e-08
-0.00109634
-1.53258e-06
1.13297e-06
5.49855e-07
0.00109737
-5.93234e-07
9.93189e-07
2.70184e-08
5.78367e-07
-7.40763e-07
-1.37331e-06
-7.06688e-08
-0.000269455
1.56618e-06
1.53282e-06
-5.88616e-07
-5.94411e-07
0.000267539
-1.10065e-06
-1.10169e-06
-0.00110098
5.56914e-07
5.58155e-07
0.00110207
-0.00110074
-1.53631e-06
1.10215e-06
5.37162e-07
0.00110172
-5.91871e-07
1.01166e-06
4.36895e-08
5.97577e-07
-7.25503e-07
-1.36673e-06
-5.75126e-08
-0.00110039
-1.53069e-06
1.10308e-06
5.37694e-07
0.00110138
-5.88926e-07
1.00637e-06
3.99444e-08
5.97444e-07
-7.28146e-07
-1.36662e-06
-5.54236e-08
-0.000270336
1.56435e-06
1.53083e-06
-5.8103e-07
-5.86787e-07
0.000268409
-1.07453e-06
-1.07521e-06
-0.00110528
5.45587e-07
5.46754e-07
0.00110634
-0.00110462
-1.53552e-06
1.0756e-06
5.28008e-07
0.00110557
-5.86108e-07
1.02394e-06
5.1747e-08
6.15575e-07
-7.13782e-07
-1.36043e-06
-4.45196e-08
-0.00110427
-1.52996e-06
1.07602e-06
5.28203e-07
0.00110522
-5.86003e-07
1.01852e-06
5.17517e-08
6.15518e-07
-7.16418e-07
-1.36025e-06
-4.2446e-08
-0.000271164
1.56375e-06
1.53015e-06
-5.7487e-07
-5.8064e-07
0.000269225
-1.05026e-06
-1.05145e-06
-0.00110947
5.35357e-07
5.3596e-07
0.0011105
-0.00110834
-1.53501e-06
1.05128e-06
5.19017e-07
0.00110925
-5.835e-07
1.03581e-06
6.17662e-08
6.32434e-07
-7.02161e-07
-1.35391e-06
-3.33245e-08
-0.00110799
-1.52966e-06
1.05134e-06
5.19783e-07
0.0011089
-5.83594e-07
1.03016e-06
6.1511e-08
6.32576e-07
-7.04677e-07
-1.35355e-06
-3.12196e-08
-0.000271939
1.56346e-06
1.52976e-06
-5.69222e-07
-5.75036e-07
0.00026999
-1.02653e-06
-1.02834e-06
-0.00111356
5.25121e-07
5.25064e-07
0.00111456
-0.00111192
-1.53463e-06
1.02751e-06
5.09605e-07
0.00111279
-5.80618e-07
1.04745e-06
7.06267e-08
6.47894e-07
-6.9034e-07
-1.34697e-06
-2.09991e-08
-0.00111157
-1.52949e-06
1.02727e-06
5.10671e-07
0.00111244
-5.80918e-07
1.04146e-06
7.01459e-08
6.48047e-07
-6.92817e-07
-1.34659e-06
-1.80299e-08
-0.000272662
1.56335e-06
1.5294e-06
-5.64011e-07
-5.69937e-07
0.000270704
-1.00396e-06
-1.00611e-06
-0.00111754
5.15119e-07
5.14849e-07
0.00111852
-0.00111535
-1.53462e-06
1.00476e-06
4.99503e-07
0.00111618
-5.76757e-07
1.05802e-06
7.91202e-08
6.62164e-07
-6.77536e-07
-1.33912e-06
-8.81782e-09
-0.00111499
-1.52944e-06
1.00452e-06
5.00728e-07
0.00111583
-5.77081e-07
1.05213e-06
7.86373e-08
6.62256e-07
-6.80054e-07
-1.33881e-06
-5.91232e-09
-0.000273333
1.56335e-06
1.5293e-06
-5.5856e-07
-5.64467e-07
0.000271363
-9.82063e-07
-9.83816e-07
-0.00112142
5.04902e-07
5.04897e-07
0.00112238
-0.00111862
-1.53423e-06
9.82491e-07
4.88872e-07
0.00111942
-5.71676e-07
1.06789e-06
8.75232e-08
6.75214e-07
-6.63652e-07
-1.3302e-06
2.46598e-09
-0.00111827
-1.52893e-06
9.8238e-07
4.89832e-07
0.00111906
-5.71888e-07
1.06215e-06
8.72137e-08
6.75223e-07
-6.66294e-07
-1.33001e-06
5.26381e-09
-0.000273948
1.56295e-06
1.52883e-06
-5.5204e-07
-5.57915e-07
0.000271966
-9.6034e-07
-9.61539e-07
-0.00112521
4.94551e-07
4.94935e-07
0.00112614
-0.00112175
-1.53296e-06
9.60525e-07
4.77969e-07
0.0011225
-5.65448e-07
1.0777e-06
9.55647e-08
6.87125e-07
-6.49069e-07
-1.32035e-06
1.27873e-08
-0.00112139
-1.52757e-06
9.60541e-07
4.78545e-07
0.00112215
-5.65528e-07
1.07198e-06
9.54029e-08
6.87045e-07
-6.51749e-07
-1.32022e-06
1.55912e-08
-0.000274505
1.56179e-06
1.52756e-06
-5.44733e-07
-5.50676e-07
0.000272511
-9.39051e-07
-9.39665e-07
-0.0011289
4.84415e-07
4.85215e-07
0.00112981
-0.00112471
-1.53111e-06
9.39327e-07
4.67046e-07
0.00112543
-5.57967e-07
1.08699e-06
1.0326e-07
6.97828e-07
-6.33949e-07
-1.30961e-06
2.22946e-08
-0.00112435
-1.52563e-06
9.39079e-07
4.67297e-07
0.00112507
-5.5796e-07
1.08136e-06
1.03286e-07
6.97832e-07
-6.36608e-07
-1.30943e-06
2.51591e-08
-0.000274999
1.56002e-06
1.52574e-06
-5.3698e-07
-5.42936e-07
0.000272994
-9.17989e-07
-9.17834e-07
-0.00113251
4.74187e-07
4.75511e-07
0.00113339
-0.00112751
-1.52873e-06
9.18603e-07
4.56139e-07
0.00112819
-5.49457e-07
1.09549e-06
1.10676e-07
7.07745e-07
-6.18682e-07
-1.29803e-06
3.21367e-08
-0.00112715
-1.52317e-06
9.17601e-07
4.55604e-07
0.00112783
-5.49395e-07
1.08985e-06
1.1074e-07
7.07565e-07
-6.21411e-07
-1.29787e-06
3.65744e-08
-0.000275429
1.55758e-06
1.52332e-06
-5.28713e-07
-5.34577e-07
0.000273412
-8.97256e-07
-8.96929e-07
-0.00113602
4.64694e-07
4.66232e-07
0.00113688
-0.00113014
-1.52569e-06
8.97999e-07
4.45131e-07
0.00113078
-5.40066e-07
1.10324e-06
1.17729e-07
7.16338e-07
-6.03479e-07
-1.28624e-06
4.40882e-08
-0.00112979
-1.52006e-06
8.96857e-07
4.44356e-07
0.00113042
-5.39924e-07
1.09769e-06
1.17901e-07
7.16319e-07
-6.06065e-07
-1.28594e-06
4.82307e-08
-0.000275791
1.5545e-06
1.52024e-06
-5.19843e-07
-5.25651e-07
0.000273762
-8.77178e-07
-8.76646e-07
-0.00113944
4.56063e-07
4.57373e-07
0.00114028
-0.0011326
-1.52158e-06
8.78029e-07
4.34656e-07
0.00113319
-5.29582e-07
1.11059e-06
1.24808e-07
7.24329e-07
-5.8809e-07
-1.27345e-06
5.45122e-08
-0.00113224
-1.51604e-06
8.7675e-07
4.34236e-07
0.00113283
-5.2958e-07
1.10494e-06
1.24811e-07
7.24407e-07
-5.90629e-07
-1.27312e-06
5.84263e-08
-0.000276084
1.55054e-06
1.51622e-06
-5.1017e-07
-5.15977e-07
0.000274043
-8.63116e-07
-8.57195e-07
-0.00114275
4.48102e-07
4.49176e-07
0.00114357
-0.00113488
-1.51647e-06
8.52854e-07
4.24158e-07
0.00113542
-5.21415e-07
1.11731e-06
1.34531e-07
7.34815e-07
-5.7277e-07
-1.25956e-06
6.4074e-08
-0.00113452
-1.51103e-06
8.57315e-07
4.13148e-07
-5.18591e-07
1.1116e-06
1.31423e-07
7.32076e-07
-5.7526e-07
-1.25922e-06
6.78343e-08
0.00113507
-0.000276305
1.5456e-06
1.5084e-06
-4.99646e-07
-5.0555e-07
0.000274256
5.22571e-06
5.23678e-06
0.000260566
-0.000259153
-5.94502e-06
-5.93072e-06
5.05354e-06
0.000261438
-0.000258684
-5.9632e-06
3.38085e-06
-5.22573e-06
5.04846e-06
0.000261472
-0.000258699
-5.97119e-06
3.37601e-06
5.22644e-06
0.000260579
-0.000259155
-5.91631e-06
-5.95925e-06
5.04642e-06
0.000261502
-0.000258714
-5.96844e-06
3.37089e-06
5.0533e-06
-5.22846e-06
0.000261446
-0.000258684
3.38623e-06
-5.97347e-06
1.06912e-05
1.05981e-05
-0.000252646
-0.000256096
-0.000255126
-0.000255126
-6.419e-06
-4.11042e-06
-6.65436e-06
-6.41911e-06
-4.11117e-06
-6.65959e-06
-5.04135e-06
0.0010422
1.06511e-05
1.06032e-05
-0.000252649
-0.000256094
-0.000255129
-0.000255129
-6.42173e-06
-4.11076e-06
-6.6572e-06
-6.41664e-06
-4.10604e-06
-6.65211e-06
-5.04139e-06
0.00104208
1.07119e-05
1.06636e-05
-0.000252641
-0.000256088
-0.000255126
-0.000255121
-6.42133e-06
-4.11795e-06
-6.65686e-06
-6.42175e-06
-4.10856e-06
-6.65467e-06
-5.05592e-06
-5.04404e-06
0.00104214
1.07071e-05
1.06082e-05
-0.000252644
-0.000256091
-0.000255126
-0.000255126
-6.41641e-06
-4.11312e-06
-6.65207e-06
-6.42182e-06
-4.11125e-06
-6.65738e-06
-0.000258709
-5.96082e-06
3.36571e-06
-5.22577e-06
0.000261433
-0.000258681
3.38101e-06
-5.96315e-06
5.22882e-06
0.000260558
-0.00025914
-5.91883e-06
-5.95717e-06
-0.000258694
3.37323e-06
-5.9586e-06
-5.23669e-06
0.0002615
-0.000258709
3.3683e-06
-5.96624e-06
-0.00025915
-5.94493e-06
-5.93091e-06
5.65972e-06
5.69701e-06
-4.95386e-06
-4.94768e-06
0.000259111
-8.12178e-07
-7.76632e-07
0.000261576
-0.000259443
-2.75818e-07
-2.68645e-07
7.14103e-06
0.00105866
-4.5906e-06
-1.55062e-06
-2.11577e-06
-2.49168e-06
-6.63776e-06
-7.12033e-06
-2.99217e-06
-0.000263293
-0.000259718
-0.00026282
-5.66999e-06
1.4604e-05
7.08032e-06
0.00105902
-4.60922e-06
-1.543e-06
-2.11864e-06
-2.50247e-06
-6.66911e-06
-7.13731e-06
-3.00792e-06
-0.000263367
-0.000259749
-0.000262861
0.00106199
2.12349e-06
-0.00106095
1.04473e-06
-1.7588e-06
-1.32146e-07
-7.46968e-07
-1.54211e-06
-2.91652e-07
-9.12107e-07
3.63825e-07
8.20276e-07
0.00106241
2.12349e-06
-0.00106136
1.03954e-06
-1.76915e-06
-1.24857e-07
-7.52225e-07
-1.54778e-06
-2.91701e-07
-9.12524e-07
3.69465e-07
-4.95181e-06
-4.94412e-06
0.000259121
-7.79584e-07
0.000261602
-0.000259463
-2.72849e-07
-2.65691e-07
6.8641e-06
0.00105949
-4.61508e-06
-1.61053e-06
-2.13214e-06
-2.5013e-06
-6.65172e-06
-7.13284e-06
-3.00311e-06
-0.000263388
-0.000259776
-0.000262873
-5.67022e-06
1.46385e-05
7.17512e-06
0.0010588
-4.60982e-06
-1.55342e-06
-2.12401e-06
-2.50374e-06
-6.66865e-06
-7.13539e-06
-3.00765e-06
-0.000259718
-0.000263344
-0.000262833
0.001063
2.13129e-06
-0.00106195
1.03254e-06
-1.72903e-06
-1.34435e-07
-7.47292e-07
-1.54537e-06
-2.91822e-07
-9.10123e-07
3.66278e-07
8.09796e-07
0.0010621
2.13408e-06
-0.00106108
1.05493e-06
-1.75875e-06
-1.29623e-07
-7.46999e-07
-1.54504e-06
-2.8916e-07
-9.14791e-07
3.63619e-07
1.46361e-05
7.16173e-06
0.00105861
-4.59062e-06
-1.55053e-06
-2.11314e-06
-2.49163e-06
-6.63805e-06
-2.99257e-06
-7.11801e-06
-0.000259713
-0.000263288
-0.000262815
2.13087e-06
-0.0010617
1.03751e-06
-1.72874e-06
-1.31433e-07
-7.4386e-07
-1.54285e-06
-2.94473e-07
3.60591e-07
-9.10187e-07
8.09712e-07
0.00106189
2.1341e-06
-0.00106087
1.05474e-06
-1.75867e-06
-1.29618e-07
-7.46755e-07
-1.5449e-06
-2.91833e-07
-9.12315e-07
3.66329e-07
-4.95664e-06
-4.94462e-06
0.000259101
-7.71249e-07
0.000261553
-0.000259425
-2.76092e-07
-2.70943e-07
1.45374e-05
6.88159e-06
0.00105944
-4.61488e-06
-1.61061e-06
-2.13189e-06
-2.50051e-06
-6.65194e-06
-3.0033e-06
-7.13002e-06
-0.000259766
-0.000263386
-0.000262869
2.13607e-06
-0.0010614
1.05351e-06
-1.72649e-06
-1.34208e-07
-7.46869e-07
-1.53935e-06
-2.8949e-07
3.6122e-07
-9.12606e-07
7.71179e-07
0.00106291
2.13625e-06
-0.00106187
1.04299e-06
-1.72421e-06
-1.34446e-07
-7.44769e-07
-1.54233e-06
-2.91628e-07
-9.12628e-07
3.61347e-07
-0.00025944
-2.73542e-07
-2.71116e-07
1.65111e-06
1.61616e-06
-6.95627e-07
-7.04026e-07
0.000259708
-9.07132e-07
-8.68728e-07
0.000262814
-0.000260648
-1.98584e-07
-1.91358e-07
8.32883e-07
0.00106318
-6.82715e-07
8.67725e-07
-9.49964e-08
4.23673e-07
-8.49624e-07
-1.43356e-06
-2.54307e-07
-1.65627e-06
1.6523e-06
8.27323e-07
0.00106361
-6.85383e-07
8.75809e-07
-9.47787e-08
4.2921e-07
-8.52623e-07
-1.4392e-06
-2.52062e-07
0.00106711
1.38904e-06
-0.00106577
7.00263e-07
-1.60525e-06
-7.01672e-08
-6.63328e-07
-1.39289e-06
-2.25812e-07
-8.34245e-07
4.59936e-07
9.12666e-07
0.00106755
1.38948e-06
-0.00106621
6.95268e-07
-1.61032e-06
-6.99914e-08
-6.63319e-07
-1.3964e-06
-2.26202e-07
-8.34996e-07
4.62322e-07
-6.95853e-07
-7.03346e-07
0.000259726
-8.74166e-07
0.000262841
-0.000260662
-1.98453e-07
-1.93632e-07
8.25822e-07
0.0010642
-6.80431e-07
8.32147e-07
-9.71783e-08
4.26345e-07
-8.52677e-07
-1.43662e-06
-2.51989e-07
-1.65094e-06
1.65773e-06
8.32412e-07
0.00106329
-6.8534e-07
8.68014e-07
-9.47769e-08
4.23313e-07
-8.52329e-07
-1.43405e-06
-2.52035e-07
0.00106814
1.3903e-06
-0.00106681
6.98374e-07
-1.5677e-06
-7.45452e-08
-6.58559e-07
-1.39037e-06
-2.2337e-07
-8.34496e-07
4.62931e-07
9.02069e-07
0.00106723
1.38941e-06
-0.00106589
6.99939e-07
-1.60253e-06
-7.22247e-08
-6.63318e-07
-1.39345e-06
-2.26029e-07
-8.3454e-07
4.62312e-07
1.65284e-06
8.32479e-07
0.00106309
-6.85206e-07
8.65271e-07
-9.70305e-08
4.23581e-07
-8.52579e-07
-2.52073e-07
-1.43382e-06
1.39033e-06
-0.00106655
7.0383e-07
-1.57524e-06
-7.62916e-08
-6.57943e-07
-1.39102e-06
-2.23899e-07
4.62052e-07
-8.3486e-07
9.04666e-07
0.00106702
1.38429e-06
-0.00106568
6.99826e-07
-1.60247e-06
-7.21182e-08
-6.63106e-07
-1.39335e-06
-2.26155e-07
-8.34677e-07
4.59611e-07
-6.98764e-07
-7.00753e-07
0.000259688
-8.66059e-07
0.000262789
-0.000260628
-1.98826e-07
-1.93674e-07
1.65379e-06
8.2079e-07
0.00106412
-6.80526e-07
8.26763e-07
-1.01731e-07
4.20977e-07
-8.50051e-07
-2.56769e-07
-1.43123e-06
1.39031e-06
-0.00106622
6.989e-07
-1.5649e-06
-7.6489e-08
-6.58105e-07
-1.38536e-06
-2.26126e-07
4.54074e-07
-8.34686e-07
8.68734e-07
0.00106805
1.39038e-06
-0.00106671
6.98544e-07
-1.56504e-06
-7.65612e-08
-6.58395e-07
-1.39353e-06
-2.26017e-07
-8.37479e-07
4.59728e-07
-0.000260636
-1.98628e-07
-1.93765e-07
1.60503e-06
1.57264e-06
-6.60779e-07
-6.69166e-07
0.000260967
-9.28082e-07
-8.92136e-07
0.000264094
-0.000261919
-1.7967e-07
-1.74894e-07
6.91681e-07
0.00106846
-6.64951e-07
9.11633e-07
-6.68728e-08
4.62095e-07
-8.34129e-07
-1.39307e-06
-2.23423e-07
-1.61017e-06
1.37527e-06
7.02615e-07
0.00106888
-6.64965e-07
9.17179e-07
-6.67059e-08
4.67221e-07
-8.37484e-07
-1.39924e-06
-2.19042e-07
0.00107246
1.3591e-06
-0.00107114
6.74277e-07
-1.60608e-06
-5.58239e-08
-6.58754e-07
-1.40313e-06
-2.04332e-07
-8.28745e-07
4.71507e-07
9.33571e-07
0.00107288
1.36022e-06
-0.00107156
6.75131e-07
-1.6113e-06
-5.3724e-08
-6.6155e-07
-1.41169e-06
-1.99867e-07
-8.34592e-07
4.79615e-07
-6.63776e-07
-6.65871e-07
0.000260988
-8.94785e-07
0.000264123
-0.000261946
-1.77128e-07
-1.71981e-07
6.89956e-07
0.00106949
-6.62875e-07
8.75786e-07
-7.12607e-08
4.64998e-07
-8.36879e-07
-1.39837e-06
-2.18567e-07
-1.60236e-06
1.37508e-06
6.97019e-07
0.00106857
-6.64994e-07
9.09151e-07
-6.67789e-08
4.64619e-07
-8.36909e-07
-1.39612e-06
-2.18769e-07
0.00107349
1.36077e-06
-0.00107217
6.73212e-07
-1.57093e-06
-5.80209e-08
-6.56646e-07
-1.40606e-06
-1.99536e-07
-8.34115e-07
4.74151e-07
9.28157e-07
0.00107257
1.35987e-06
-0.00107124
6.74987e-07
-1.60609e-06
-5.37956e-08
-6.616e-07
-1.4058e-06
-1.99556e-07
-8.33938e-07
4.74233e-07
1.38014e-06
6.91353e-07
0.00106837
-6.62143e-07
9.06542e-07
-7.09906e-08
4.6444e-07
-8.37135e-07
-2.21348e-07
-1.39617e-06
1.36021e-06
-0.0010719
6.73613e-07
-1.57355e-06
-5.7782e-08
-6.56268e-07
-1.40324e-06
-2.02076e-07
4.7151e-07
-8.31566e-07
9.22916e-07
0.00107236
1.3594e-06
-0.00107104
6.74362e-07
-1.60075e-06
-5.78249e-08
-6.56023e-07
-1.40331e-06
-2.02076e-07
-8.31535e-07
4.71498e-07
-6.6387e-07
-6.68519e-07
0.000260952
-8.89286e-07
0.000264074
-0.000261904
-1.7978e-07
-1.72217e-07
1.37569e-06
6.95401e-07
0.0010694
-6.57486e-07
8.67909e-07
-7.54504e-08
4.6211e-07
-8.34646e-07
-2.21171e-07
-1.39363e-06
1.35995e-06
-0.00107157
6.74172e-07
-1.56834e-06
-6.00536e-08
-6.53807e-07
-1.40295e-06
-1.99587e-07
4.71573e-07
-8.34017e-07
8.89346e-07
0.0010734
1.36006e-06
-0.00107208
6.73561e-07
-1.56847e-06
-6.01122e-08
-6.5409e-07
-1.4006e-06
-2.01835e-07
-8.31547e-07
4.6925e-07
-0.000261917
-1.77276e-07
-1.72148e-07
1.60489e-06
1.56969e-06
-6.5293e-07
-6.58751e-07
0.000262231
-9.52526e-07
-9.16393e-07
0.000265313
-0.000263141
-1.53985e-07
-1.4904e-07
6.66872e-07
0.00107377
-6.55785e-07
9.34141e-07
-5.10259e-08
4.75682e-07
-8.2539e-07
-1.40436e-06
-1.97016e-07
-1.61015e-06
1.35072e-06
6.67781e-07
0.0010742
-6.58621e-07
9.39588e-07
-4.89872e-08
4.83856e-07
-8.31212e-07
-1.41285e-06
-1.92542e-07
0.00107763
1.31553e-06
-0.00107636
6.43872e-07
-1.59913e-06
-3.71745e-08
-6.44895e-07
-1.40406e-06
-1.74495e-07
-8.11963e-07
4.89942e-07
9.57931e-07
0.00107805
1.31641e-06
-0.00107678
6.44702e-07
-1.60448e-06
-3.52305e-08
-6.47765e-07
-1.41244e-06
-1.69991e-07
-8.17723e-07
4.98242e-07
-6.56181e-07
-6.60659e-07
0.000262257
-9.19059e-07
0.000265342
-0.000263168
-1.51307e-07
-1.46349e-07
6.65897e-07
0.0010748
-6.5365e-07
8.98162e-07
-5.31724e-08
4.78287e-07
-8.30805e-07
-1.40735e-06
-1.92268e-07
-1.60491e-06
1.35038e-06
6.67679e-07
0.00107388
-6.58649e-07
9.34196e-07
-4.90408e-08
4.78391e-07
-8.30586e-07
-1.40704e-06
-1.9226e-07
0.00107866
1.31688e-06
-0.00107739
6.4305e-07
-1.56382e-06
-3.91875e-08
-6.42693e-07
-1.407e-06
-1.69803e-07
-8.17434e-07
4.92644e-07
9.52573e-07
0.00107773
1.31603e-06
-0.00107646
6.44583e-07
-1.59918e-06
-3.52406e-08
-6.47718e-07
-1.40676e-06
-1.6978e-07
-8.17196e-07
4.92674e-07
1.34983e-06
6.66957e-07
0.00107368
-6.53082e-07
9.28934e-07
-5.3017e-08
4.75725e-07
-8.28127e-07
-1.94726e-07
-1.40447e-06
1.31678e-06
-0.00107713
6.43462e-07
-1.56643e-06
-3.90404e-08
-6.42422e-07
-1.40435e-06
-1.72372e-07
4.89738e-07
-8.14885e-07
9.472e-07
0.00107753
1.31555e-06
-0.00107626
6.44054e-07
-1.59392e-06
-3.91023e-08
-6.42242e-07
-1.40409e-06
-1.72165e-07
-8.14625e-07
4.90042e-07
-6.53559e-07
-6.60773e-07
0.000262216
-9.13583e-07
0.000265293
-0.000263126
-1.53957e-07
-1.4652e-07
1.35049e-06
6.66188e-07
0.00107472
-6.51123e-07
8.95351e-07
-5.52548e-08
4.73394e-07
-8.28174e-07
-1.94524e-07
-1.40182e-06
1.31653e-06
-0.00107679
6.4356e-07
-1.56118e-06
-4.11095e-08
-6.39882e-07
-1.40408e-06
-1.69893e-07
4.89721e-07
-8.17329e-07
9.13636e-07
0.00107857
1.31644e-06
-0.0010773
6.43109e-07
-1.56134e-06
-4.11302e-08
-6.40119e-07
-1.40169e-06
-1.7214e-07
-8.1487e-07
4.87457e-07
-0.000263139
-1.51536e-07
-1.46501e-07
1.59685e-06
1.56147e-06
-6.37471e-07
-6.43151e-07
0.000263436
-9.75282e-07
-9.38984e-07
0.000266458
-0.00026429
-1.29238e-07
-1.23977e-07
6.36002e-07
0.00107888
-6.41073e-07
9.58494e-07
-3.22054e-08
4.95057e-07
-8.069e-07
-1.40305e-06
-1.6708e-07
-1.60222e-06
1.30375e-06
6.36541e-07
0.00107931
-6.44e-07
9.63877e-07
-2.9589e-08
5.03382e-07
-8.12635e-07
-1.41141e-06
-1.62567e-07
0.00108255
1.26531e-06
-0.00108134
6.13685e-07
-1.59011e-06
-1.62951e-08
-6.30205e-07
-1.39858e-06
-1.45862e-07
-7.91422e-07
5.10833e-07
9.80737e-07
0.00108298
1.26546e-06
-0.00108177
6.13898e-07
-1.59544e-06
-1.3603e-08
-6.33036e-07
-1.40684e-06
-1.41244e-07
-7.96952e-07
5.19251e-07
-6.4059e-07
-6.45246e-07
0.000263462
-9.41786e-07
0.000266487
-0.000264317
-1.26461e-07
-1.21252e-07
6.35375e-07
0.00107992
-6.38806e-07
9.22334e-07
-3.4859e-08
4.97818e-07
-8.12347e-07
-1.40594e-06
-1.62372e-07
-1.59692e-06
1.30331e-06
6.36452e-07
0.00107899
-6.43936e-07
9.58522e-07
-2.9558e-08
4.97826e-07
-8.1212e-07
-1.40573e-06
-1.62356e-07
0.00108359
1.26653e-06
-0.00108238
6.13048e-07
-1.55467e-06
-1.90237e-08
-6.27929e-07
-1.40133e-06
-1.41111e-07
-7.96777e-07
5.13736e-07
9.75397e-07
0.00108265
1.26502e-06
-0.00108145
6.13778e-07
-1.5901e-06
-1.35419e-08
-6.32961e-07
-1.40111e-06
-1.41074e-07
-7.96519e-07
5.13737e-07
1.30315e-06
6.36363e-07
0.00107878
-6.38362e-07
9.53191e-07
-3.47991e-08
4.95176e-07
-8.09526e-07
-1.64726e-07
-1.40307e-06
1.26639e-06
-0.00108211
6.12994e-07
-1.55714e-06
-1.874e-08
-6.2755e-07
-1.39876e-06
-1.4364e-07
5.10759e-07
-7.94209e-07
9.70031e-07
0.00108245
1.26521e-06
-0.00108124
6.13821e-07
-1.58482e-06
-1.88671e-08
-6.27447e-07
-1.39856e-06
-1.4347e-07
-7.93959e-07
5.10956e-07
-6.37936e-07
-6.45306e-07
0.00026342
-9.36379e-07
0.000266437
-0.000264275
-1.29133e-07
-1.21254e-07
1.30413e-06
6.35425e-07
0.00107983
-6.36193e-07
9.19609e-07
-3.67567e-08
4.92561e-07
-8.09818e-07
-1.64739e-07
-1.40071e-06
1.26644e-06
-0.00108177
6.13217e-07
-1.55178e-06
-2.14306e-08
-6.24829e-07
-1.39858e-06
-1.4122e-07
5.10697e-07
-7.96708e-07
9.36377e-07
0.0010835
1.26635e-06
-0.00108229
6.13009e-07
-1.55203e-06
-2.1545e-08
-6.25182e-07
-1.39611e-06
-1.43449e-07
-7.94224e-07
5.08448e-07
-0.000264288
-1.26556e-07
-1.21338e-07
1.58801e-06
1.55254e-06
-6.21599e-07
-6.27151e-07
0.000264566
-9.95426e-07
-9.59016e-07
0.000267529
-0.000265366
-1.06918e-07
-1.01572e-07
6.06989e-07
0.00108374
-6.26801e-07
9.8055e-07
-1.14222e-08
5.16183e-07
-7.86329e-07
-1.39676e-06
-1.39178e-07
-1.59332e-06
1.25312e-06
6.0708e-07
0.00108417
-6.29622e-07
9.86031e-07
-8.70731e-09
5.24616e-07
-7.91846e-07
-1.40503e-06
-1.34562e-07
0.00108723
1.21761e-06
-0.00108608
5.88867e-07
-1.58229e-06
1.93944e-09
-6.17511e-07
-1.39077e-06
-1.20356e-07
-7.71622e-07
5.3229e-07
1.00095e-06
0.00108765
1.21749e-06
-0.00108651
5.88732e-07
-1.58756e-06
4.7063e-09
-6.20248e-07
-1.39901e-06
-1.15651e-07
-7.76998e-07
5.40768e-07
-6.24535e-07
-6.29203e-07
0.000264592
-9.61915e-07
0.000267558
-0.000265392
-1.03983e-07
-9.88423e-08
6.06305e-07
0.00108478
-6.24515e-07
9.44221e-07
-1.41457e-08
5.19109e-07
-7.91663e-07
-1.39948e-06
-1.34425e-07
-1.58797e-06
1.25268e-06
6.06959e-07
0.00108385
-6.29532e-07
9.80692e-07
-8.64511e-09
5.19097e-07
-7.91407e-07
-1.39928e-06
-1.34394e-07
0.00108827
1.2187e-06
-0.00108712
5.88014e-07
-1.5467e-06
-7.69847e-10
-6.15183e-07
-1.39344e-06
-1.15613e-07
-7.76912e-07
5.35281e-07
9.95579e-07
0.00108733
1.21753e-06
-0.00108618
5.88793e-07
-1.58222e-06
4.7101e-09
-6.20224e-07
-1.39334e-06
-1.15676e-07
-7.76755e-07
5.35148e-07
1.25287e-06
6.0704e-07
0.00108364
-6.24019e-07
9.75314e-07
-1.39784e-08
5.16285e-07
-7.8886e-07
-1.36787e-07
-1.39675e-06
1.21842e-06
-0.00108685
5.877e-07
-1.54908e-06
-4.30806e-10
-6.14734e-07
-1.39086e-06
-1.18079e-07
5.32285e-07
-7.74297e-07
9.90214e-07
0.00108713
1.21757e-06
-0.00108598
5.88824e-07
-1.5769e-06
-5.98111e-10
-6.14661e-07
-1.39083e-06
-1.18017e-07
-7.74169e-07
5.32326e-07
-6.21897e-07
-6.29188e-07
0.000264551
-9.56315e-07
0.000267508
-0.000265351
-1.06894e-07
-9.8803e-08
1.25392e-06
6.06229e-07
0.00108469
-6.21763e-07
9.41616e-07
-1.66746e-08
5.13834e-07
-7.89077e-07
-1.36725e-07
-1.39424e-06
1.2183e-06
-0.00108651
5.88381e-07
-1.54384e-06
-3.30693e-09
-6.12153e-07
-1.39051e-06
-1.15609e-07
5.32393e-07
-7.76716e-07
9.56404e-07
0.00108818
1.21837e-06
-0.00108703
5.88045e-07
-1.54402e-06
-3.32646e-09
-6.12427e-07
-1.3882e-06
-1.17847e-07
-7.74262e-07
5.2996e-07
-0.000265363
-1.04217e-07
-9.88605e-08
1.58062e-06
1.54499e-06
-6.07516e-07
-6.13042e-07
0.000265624
-1.01592e-06
-9.76711e-07
0.000268534
-0.000266372
-8.71387e-08
-8.176e-08
5.83514e-07
0.00108835
-6.14776e-07
1.00275e-06
8.6499e-09
5.37629e-07
-7.66985e-07
-1.38871e-06
-1.14502e-07
-1.5859e-06
1.20633e-06
5.83366e-07
0.00108879
-6.17508e-07
1.00561e-06
8.76303e-09
5.46115e-07
-7.72356e-07
-1.39695e-06
-1.09807e-07
0.00109167
1.17539e-06
-0.00109057
5.69105e-07
-1.57898e-06
1.97582e-08
-6.10203e-07
-1.38258e-06
-9.81736e-08
-7.53924e-07
5.53399e-07
1.01872e-06
0.0010921
1.17525e-06
-0.00109101
5.69167e-07
-1.58167e-06
1.97899e-08
-6.10321e-07
-1.38818e-06
-9.356e-08
-7.59348e-07
5.59199e-07
-6.10326e-07
-6.15096e-07
0.00026565
-9.79623e-07
0.00026856
-0.000266399
-8.42313e-08
-7.91428e-08
5.82598e-07
0.0010894
-6.12436e-07
9.63647e-07
3.2799e-09
5.40636e-07
-7.72244e-07
-1.39135e-06
-1.09767e-07
-1.58056e-06
1.20649e-06
5.8349e-07
0.00108846
-6.175e-07
1.00023e-06
8.75507e-09
5.40463e-07
-7.72153e-07
-1.39131e-06
-1.09877e-07
0.00109272
1.17626e-06
-0.00109163
5.68222e-07
-1.54058e-06
1.43414e-08
-6.05167e-07
-1.38516e-06
-9.34771e-08
-7.59161e-07
5.56465e-07
1.01326e-06
0.00109177
1.17552e-06
-0.00109068
5.69475e-07
-1.57637e-06
1.97336e-08
-6.10355e-07
-1.38521e-06
-9.36764e-08
-7.59193e-07
5.56222e-07
1.20648e-06
5.83452e-07
0.00108826
-6.1191e-07
9.94871e-07
3.45691e-09
5.37637e-07
-7.69552e-07
-1.12191e-07
-1.38878e-06
1.17639e-06
-0.00109136
5.6791e-07
-1.54295e-06
1.46801e-08
-6.04715e-07
-1.38277e-06
-9.60375e-08
5.53276e-07
-7.56732e-07
1.00796e-06
0.00109157
1.17551e-06
-0.00109048
5.6916e-07
-1.57094e-06
1.44831e-08
-6.04677e-07
-1.38271e-06
-9.59689e-08
-7.56598e-07
5.53358e-07
-6.07891e-07
-6.15062e-07
0.000265608
-9.73947e-07
0.00026851
-0.000266357
-8.72144e-08
-7.91495e-08
1.20725e-06
5.82642e-07
0.00108931
-6.09667e-07
9.61038e-07
7.2992e-10
5.35278e-07
-7.69618e-07
-1.12012e-07
-1.38615e-06
1.17634e-06
-0.00109101
5.68809e-07
-1.53778e-06
1.17317e-08
-6.02205e-07
-1.38238e-06
-9.36212e-08
5.53406e-07
-7.59143e-07
9.74096e-07
0.00109263
1.17627e-06
-0.00109154
5.68227e-07
-1.53788e-06
1.17949e-08
-6.02384e-07
-1.3801e-06
-9.57908e-08
-7.56659e-07
5.50956e-07
-0.00026637
-8.44945e-08
-7.91058e-08
1.57778e-06
1.53934e-06
-5.95723e-07
-6.01251e-07
0.000266614
-1.03171e-06
-9.92281e-07
0.000269473
-0.000267315
-6.99145e-08
-6.43118e-08
5.6483e-07
0.00109274
-6.08115e-07
1.02006e-06
2.31589e-08
5.58575e-07
-7.49855e-07
-1.38057e-06
-9.08955e-08
-1.58052e-06
1.16567e-06
5.65036e-07
0.00109318
-6.08273e-07
1.02282e-06
2.31355e-08
5.64351e-07
-7.55329e-07
-1.38621e-06
-8.85723e-08
0.0010959
1.13918e-06
-0.00109486
5.53296e-07
-1.57491e-06
3.28006e-08
-6.02899e-07
-1.37496e-06
-7.69826e-08
-7.41368e-07
5.73683e-07
1.03442e-06
0.00109634
1.13908e-06
-0.00109529
5.53791e-07
-1.57771e-06
3.26646e-08
-6.03079e-07
-1.38067e-06
-7.4742e-08
-7.44232e-07
5.79416e-07
-5.98559e-07
-6.03432e-07
0.00026664
-9.95148e-07
0.0002695
-0.000267341
-6.70699e-08
-6.17661e-08
5.63963e-07
0.0010938
-6.03065e-07
9.80809e-07
1.7702e-08
5.61635e-07
-7.55133e-07
-1.38318e-06
-8.84801e-08
-1.57524e-06
1.1659e-06
5.65402e-07
0.00109285
-6.08333e-07
1.01734e-06
2.30469e-08
5.61408e-07
-7.55168e-07
-1.38322e-06
-8.86544e-08
0.00109696
1.14002e-06
-0.00109592
5.528e-07
-1.5363e-06
2.68185e-08
-5.97744e-07
-1.3775e-06
-7.45799e-08
-7.43926e-07
5.76804e-07
1.02886e-06
0.00109601
1.13896e-06
-0.00109497
5.54273e-07
-1.57251e-06
3.23979e-08
-6.03202e-07
-1.37749e-06
-7.47057e-08
-7.43915e-07
5.76641e-07
1.16594e-06
5.64957e-07
0.00109265
-6.02607e-07
1.01206e-06
1.78234e-08
5.58509e-07
-7.52585e-07
-9.09559e-08
-1.38075e-06
1.14054e-06
-0.00109565
5.52509e-07
-1.53874e-06
2.71063e-08
-5.97346e-07
-1.37522e-06
-7.71368e-08
5.73528e-07
-7.41602e-07
1.02368e-06
0.0010958
1.13938e-06
-0.00109476
5.53811e-07
-1.56693e-06
2.69558e-08
-5.97338e-07
-1.3751e-06
-7.70294e-08
-7.41416e-07
5.73653e-07
-5.96136e-07
-6.03461e-07
0.000266598
-9.89586e-07
0.00026945
-0.000267299
-6.98745e-08
-6.19142e-08
1.16674e-06
5.63965e-07
0.00109371
-6.00284e-07
9.78191e-07
1.51489e-08
5.56084e-07
-7.52669e-07
-9.07981e-08
-1.37815e-06
1.14086e-06
-0.0010953
5.53226e-07
-1.53343e-06
2.42579e-08
-5.94713e-07
-1.37499e-06
-7.49123e-08
5.73487e-07
-7.44189e-07
9.89775e-07
0.00109687
1.14033e-06
-0.00109583
5.52637e-07
-1.53364e-06
2.43298e-08
-5.94918e-07
-1.37258e-06
-7.6929e-08
-7.4156e-07
5.71157e-07
-0.000267312
-6.71248e-08
-6.17553e-08
1.57422e-06
1.53551e-06
-5.86155e-07
-5.91607e-07
0.000267541
-1.04522e-06
-1.00567e-06
0.000270355
-0.000268199
-5.55222e-08
-4.94252e-08
5.49507e-07
0.00109693
-6.01598e-07
1.03527e-06
3.71187e-08
5.78563e-07
-7.37993e-07
-1.37321e-06
-7.27568e-08
-1.57702e-06
1.13068e-06
5.50041e-07
0.00109737
-6.01782e-07