/*--------------------------------*- C++ -*----------------------------------*\
| =========                 |                                                 |
| \\      /  F ield         | OpenFOAM: The Open Source CFD Toolbox           |
|  \\    /   O peration     | Version:  v1906                                 |
|   \\  /    A nd           | Web:      www.OpenFOAM.com                      |
|    \\/     M anipulation  |                                                 |
\*---------------------------------------------------------------------------*/
FoamFile
{
    version     2.0;
    format      ascii;
    class       volScalarField;
    location    "350";
    object      epsilon;
}
// * * * * * * * * * * * * * * * * * * * * * * * * * * * * * * * * * * * * * //

dimensions      [0 2 -3 0 0 0 0];


internalField   nonuniform List<scalar> 
43024
(
6.71677e-07
1.2021e-06
1.20219e-06
1.43508e-06
6.77887e-07
1.20618e-06
1.20625e-06
1.43896e-06
6.83449e-07
1.20967e-06
1.20973e-06
1.44239e-06
6.88359e-07
1.21255e-06
1.21261e-06
1.4453e-06
6.9261e-07
1.21484e-06
1.2149e-06
1.44766e-06
6.9621e-07
1.21654e-06
1.2166e-06
1.44953e-06
6.99189e-07
1.21771e-06
1.21777e-06
1.45108e-06
7.01599e-07
1.21842e-06
1.21846e-06
1.45165e-06
7.03512e-07
1.21875e-06
1.21878e-06
1.4522e-06
7.05006e-07
1.21878e-06
1.21882e-06
1.45246e-06
7.0617e-07
1.21866e-06
1.21872e-06
1.45258e-06
7.07076e-07
1.21846e-06
1.21854e-06
1.45262e-06
7.07785e-07
1.21828e-06
1.21835e-06
1.45271e-06
7.08355e-07
1.21821e-06
1.21824e-06
1.45315e-06
7.08829e-07
1.21821e-06
1.21823e-06
1.45327e-06
7.09223e-07
1.21826e-06
1.21832e-06
1.45353e-06
7.09561e-07
1.21835e-06
1.21845e-06
1.45377e-06
7.09846e-07
1.21842e-06
1.21857e-06
1.45394e-06
7.10063e-07
1.21849e-06
1.21866e-06
1.45397e-06
7.09933e-07
1.21817e-06
1.21835e-06
1.4537e-06
6.91957e-07
1.16129e-06
1.16138e-06
1.41421e-06
1.43251e-06
1.20086e-06
1.20094e-06
1.43251e-06
1.20081e-06
1.20092e-06
1.20082e-06
1.20098e-06
1.43256e-06
1.20093e-06
1.20093e-06
1.43263e-06
1.43495e-06
1.43651e-06
1.20207e-06
1.20215e-06
1.20511e-06
1.20516e-06
1.43496e-06
1.43645e-06
1.20203e-06
1.20213e-06
1.20507e-06
1.20516e-06
1.20221e-06
1.20504e-06
1.20525e-06
1.435e-06
1.43651e-06
1.20215e-06
1.20511e-06
1.20517e-06
1.4366e-06
1.43889e-06
1.44008e-06
1.20611e-06
1.20617e-06
1.20875e-06
1.20876e-06
1.43882e-06
1.43996e-06
1.20608e-06
1.20617e-06
1.20871e-06
1.20878e-06
1.20627e-06
1.20868e-06
1.20888e-06
1.43889e-06
1.44005e-06
1.20618e-06
1.20874e-06
1.20877e-06
1.44012e-06
1.44238e-06
1.44316e-06
1.20962e-06
1.20963e-06
1.21183e-06
1.21179e-06
1.44225e-06
1.44298e-06
1.20959e-06
1.20966e-06
1.21179e-06
1.21184e-06
1.20975e-06
1.21172e-06
1.21192e-06
1.44234e-06
1.44309e-06
1.20964e-06
1.21178e-06
1.21178e-06
1.44313e-06
1.44537e-06
1.44571e-06
1.21256e-06
1.21252e-06
1.21432e-06
1.21425e-06
1.44517e-06
1.44549e-06
1.21252e-06
1.21258e-06
1.21427e-06
1.21431e-06
1.21265e-06
1.21417e-06
1.21436e-06
1.44528e-06
1.4456e-06
1.2125e-06
1.21424e-06
1.21419e-06
1.44559e-06
1.44781e-06
1.44773e-06
1.21491e-06
1.21483e-06
1.21624e-06
1.21614e-06
1.44758e-06
1.44746e-06
1.21486e-06
1.2149e-06
1.21618e-06
1.2162e-06
1.21494e-06
1.21605e-06
1.21622e-06
1.44769e-06
1.4476e-06
1.21476e-06
1.21611e-06
1.21602e-06
1.4475e-06
1.44972e-06
1.44935e-06
1.21668e-06
1.21658e-06
1.2176e-06
1.21749e-06
1.44947e-06
1.44879e-06
1.21662e-06
1.21664e-06
1.21753e-06
1.21753e-06
1.21665e-06
1.21738e-06
1.21751e-06
1.44957e-06
1.44917e-06
1.21645e-06
1.21744e-06
1.21731e-06
1.44878e-06
1.45109e-06
1.45031e-06
1.21789e-06
1.21778e-06
1.21846e-06
1.21835e-06
1.45107e-06
1.45006e-06
1.21782e-06
1.21782e-06
1.21839e-06
1.21837e-06
1.21778e-06
1.21822e-06
1.21828e-06
1.4509e-06
1.45014e-06
1.21758e-06
1.21826e-06
1.2181e-06
1.45e-06
1.4522e-06
1.451e-06
1.21863e-06
1.21852e-06
1.21892e-06
1.21882e-06
1.45174e-06
1.45074e-06
1.21855e-06
1.21852e-06
1.21883e-06
1.21879e-06
1.21842e-06
1.21866e-06
1.21865e-06
1.45183e-06
1.45077e-06
1.21825e-06
1.2187e-06
1.21848e-06
1.45056e-06
1.45265e-06
1.45139e-06
1.21899e-06
1.2189e-06
1.21906e-06
1.21898e-06
1.4524e-06
1.45113e-06
1.2189e-06
1.21885e-06
1.21896e-06
1.2189e-06
1.21868e-06
1.21877e-06
1.21868e-06
1.45242e-06
1.45084e-06
1.21854e-06
1.21881e-06
1.21855e-06
1.45085e-06
1.45301e-06
1.45157e-06
1.21907e-06
1.21899e-06
1.219e-06
1.21892e-06
1.45275e-06
1.45128e-06
1.21896e-06
1.2189e-06
1.21888e-06
1.21881e-06
1.21867e-06
1.21868e-06
1.21855e-06
1.45302e-06
1.45104e-06
1.21855e-06
1.21874e-06
1.21845e-06
1.451e-06
1.45317e-06
1.45163e-06
1.21899e-06
1.21892e-06
1.21885e-06
1.21877e-06
1.45289e-06
1.45133e-06
1.21886e-06
1.21879e-06
1.2187e-06
1.21862e-06
1.21852e-06
1.21847e-06
1.21835e-06
1.45318e-06
1.45111e-06
1.21843e-06
1.21856e-06
1.21827e-06
1.45101e-06
1.45322e-06
1.45165e-06
1.21883e-06
1.21875e-06
1.21867e-06
1.21858e-06
1.45293e-06
1.45138e-06
1.21867e-06
1.21859e-06
1.21847e-06
1.2184e-06
1.21833e-06
1.21828e-06
1.21817e-06
1.45325e-06
1.45115e-06
1.21824e-06
1.21835e-06
1.21807e-06
1.451e-06
1.45325e-06
1.45169e-06
1.21865e-06
1.21856e-06
1.2185e-06
1.21843e-06
1.45299e-06
1.45148e-06
1.21844e-06
1.21839e-06
1.21829e-06
1.21824e-06
1.21818e-06
1.21818e-06
1.21809e-06
1.45327e-06
1.45121e-06
1.21806e-06
1.21822e-06
1.21796e-06
1.45092e-06
1.45331e-06
1.45181e-06
1.21852e-06
1.21845e-06
1.21839e-06
1.21833e-06
1.4531e-06
1.45131e-06
1.2183e-06
1.21827e-06
1.2182e-06
1.21819e-06
1.21814e-06
1.21815e-06
1.21809e-06
1.45333e-06
1.45136e-06
1.218e-06
1.21817e-06
1.21796e-06
1.45111e-06
1.45344e-06
1.4519e-06
1.21844e-06
1.21839e-06
1.21833e-06
1.21831e-06
1.4535e-06
1.45152e-06
1.21825e-06
1.21826e-06
1.21818e-06
1.21823e-06
1.21817e-06
1.21817e-06
1.21814e-06
1.4535e-06
1.45183e-06
1.21804e-06
1.21822e-06
1.21804e-06
1.4516e-06
1.45385e-06
1.45183e-06
1.21841e-06
1.2184e-06
1.21833e-06
1.21834e-06
1.45365e-06
1.45199e-06
1.21827e-06
1.21834e-06
1.2182e-06
1.21832e-06
1.21825e-06
1.21822e-06
1.21823e-06
1.45345e-06
1.45204e-06
1.21815e-06
1.21831e-06
1.21814e-06
1.45163e-06
1.45396e-06
1.45194e-06
1.21845e-06
1.21847e-06
1.21836e-06
1.21839e-06
1.45364e-06
1.45209e-06
1.21833e-06
1.21846e-06
1.21825e-06
1.21841e-06
1.21837e-06
1.21826e-06
1.21831e-06
1.45369e-06
1.45219e-06
1.21829e-06
1.21839e-06
1.21824e-06
1.45178e-06
1.45406e-06
1.45199e-06
1.21853e-06
1.21856e-06
1.21839e-06
1.21842e-06
1.45371e-06
1.45184e-06
1.21843e-06
1.21859e-06
1.2183e-06
1.21846e-06
1.2185e-06
1.21828e-06
1.21838e-06
1.45383e-06
1.45227e-06
1.21842e-06
1.21845e-06
1.21831e-06
1.45221e-06
1.45414e-06
1.45177e-06
1.21861e-06
1.21864e-06
1.21804e-06
1.21804e-06
1.45395e-06
1.45182e-06
1.21852e-06
1.21868e-06
1.21795e-06
1.21808e-06
1.21861e-06
1.2179e-06
1.21804e-06
1.45387e-06
1.45203e-06
1.21853e-06
1.21808e-06
1.21795e-06
1.45191e-06
1.45382e-06
1.43388e-06
1.21832e-06
1.21832e-06
1.19839e-06
1.19834e-06
1.45314e-06
1.43367e-06
1.21823e-06
1.21837e-06
1.19837e-06
1.19835e-06
1.21833e-06
1.1982e-06
1.19836e-06
1.45339e-06
1.43381e-06
1.21823e-06
1.19834e-06
1.19833e-06
1.43335e-06
1.41422e-06
1.16129e-06
1.16124e-06
1.41414e-06
1.1613e-06
1.16123e-06
6.91995e-07
6.92094e-07
6.92057e-07
1.16123e-06
1.4142e-06
1.16123e-06
4.25405e-06
9.58303e-06
1.91104e-05
4.2543e-06
9.58526e-06
6.69934e-07
6.69893e-07
6.69999e-07
6.6998e-07
2.31177e-06
1.19851e-06
3.66269e-06
9.455e-07
1.91115e-05
2.31179e-06
1.19864e-06
9.45669e-07
3.66267e-06
1.43045e-06
5.66479e-06
5.66672e-06
4.25828e-06
9.58946e-06
4.25725e-06
9.5939e-06
1.91205e-05
1.91293e-05
4.25852e-06
9.59143e-06
4.25757e-06
9.59613e-06
6.71631e-07
6.71733e-07
6.71717e-07
6.76301e-07
6.76309e-07
6.76403e-07
6.76418e-07
2.3151e-06
3.66589e-06
9.49683e-07
1.20293e-06
2.31445e-06
3.66668e-06
9.50731e-07
1.91213e-05
1.91302e-05
2.31505e-06
9.49819e-07
3.66578e-06
1.20302e-06
2.3144e-06
9.5086e-07
3.66662e-06
5.66871e-06
5.67066e-06
1.43465e-06
5.66995e-06
5.67185e-06
4.26204e-06
9.60003e-06
4.26114e-06
9.60406e-06
1.91385e-05
1.91469e-05
4.26232e-06
9.60176e-06
4.26135e-06
9.60588e-06
6.77828e-07
6.7792e-07
6.77927e-07
6.82041e-07
6.82035e-07
6.82121e-07
6.82152e-07
2.3181e-06
3.66958e-06
9.54524e-07
1.20686e-06
2.31751e-06
3.67026e-06
9.55403e-07
1.91392e-05
1.91475e-05
2.31796e-06
9.54612e-07
3.66949e-06
1.20692e-06
2.3174e-06
9.55483e-07
3.67025e-06
5.67364e-06
5.67546e-06
1.43841e-06
5.67478e-06
5.67659e-06
4.26545e-06
9.60967e-06
4.2647e-06
9.61342e-06
1.91553e-05
1.91632e-05
4.26557e-06
9.61111e-06
4.26479e-06
9.61489e-06
6.83394e-07
6.83479e-07
6.835e-07
6.87134e-07
6.87116e-07
6.87197e-07
6.87233e-07
2.32061e-06
3.67287e-06
9.58694e-07
1.2102e-06
2.32019e-06
3.6734e-06
9.59423e-07
1.91557e-05
1.91635e-05
2.3204e-06
9.58731e-07
3.67287e-06
1.21026e-06
2.32e-06
9.59451e-07
3.67348e-06
5.67816e-06
5.67994e-06
1.44168e-06
5.67915e-06
5.68091e-06
4.26837e-06
9.61815e-06
4.2678e-06
9.62156e-06
1.9171e-05
1.91784e-05
4.2683e-06
9.61954e-06
4.26772e-06
9.62291e-06
6.88307e-07
6.88387e-07
6.8841e-07
6.91567e-07
6.91536e-07
6.91612e-07
6.91643e-07
2.32261e-06
3.67568e-06
9.62197e-07
1.21295e-06
2.32234e-06
3.67606e-06
9.62774e-07
1.91709e-05
1.91783e-05
2.32236e-06
9.62188e-07
3.67575e-06
1.21302e-06
2.32212e-06
9.62758e-07
3.67618e-06
5.68221e-06
5.68392e-06
1.44442e-06
5.683e-06
5.68471e-06
4.2707e-06
9.62598e-06
4.27032e-06
9.6289e-06
1.91854e-05
1.91923e-05
4.27057e-06
9.62735e-06
4.27013e-06
9.63041e-06
6.92562e-07
6.92635e-07
6.92652e-07
6.95345e-07
6.95306e-07
6.9537e-07
6.9539e-07
2.32405e-06
3.67804e-06
9.65035e-07
1.21513e-06
2.32394e-06
3.67824e-06
9.65463e-07
1.91849e-05
1.91918e-05
2.32376e-06
9.64986e-07
3.67813e-06
1.2152e-06
2.32369e-06
9.65408e-07
3.67838e-06
5.68574e-06
5.68743e-06
1.44662e-06
5.68633e-06
5.68804e-06
4.27244e-06
9.63282e-06
4.27224e-06
9.6354e-06
1.91985e-05
1.92049e-05
4.27236e-06
9.63429e-06
4.27208e-06
9.63691e-06
6.96173e-07
6.96235e-07
6.96238e-07
6.98489e-07
6.9845e-07
6.98499e-07
6.98497e-07
2.32493e-06
3.67993e-06
9.67221e-07
1.21674e-06
2.32497e-06
3.67994e-06
9.67509e-07
1.91978e-05
1.92043e-05
2.32464e-06
9.67148e-07
3.68003e-06
1.21681e-06
2.32464e-06
9.67433e-07
3.6801e-06
5.68873e-06
5.69045e-06
1.44815e-06
5.68912e-06
5.69087e-06
4.27375e-06
9.63888e-06
4.2737e-06
9.64128e-06
1.92104e-05
1.92164e-05
4.27374e-06
9.64041e-06
4.27361e-06
9.64286e-06
6.99171e-07
6.99215e-07
6.99195e-07
7.01044e-07
7.01012e-07
7.01041e-07
7.01007e-07
2.32527e-06
3.68135e-06
9.6879e-07
1.21784e-06
2.32562e-06
3.68121e-06
9.68971e-07
1.92096e-05
1.92158e-05
2.32509e-06
9.6871e-07
3.68147e-06
1.2179e-06
2.32546e-06
9.68889e-07
3.68137e-06
5.69121e-06
5.69298e-06
1.44917e-06
5.69144e-06
5.69324e-06
4.27473e-06
9.64436e-06
4.27481e-06
9.64662e-06
1.92212e-05
1.92269e-05
4.27479e-06
9.64571e-06
4.27479e-06
9.64802e-06
7.01602e-07
7.01627e-07
7.01573e-07
7.03077e-07
7.03049e-07
7.03058e-07
7.02983e-07
2.32533e-06
3.68242e-06
9.69818e-07
1.21848e-06
2.3258e-06
3.68216e-06
9.69919e-07
1.92205e-05
1.92263e-05
2.32517e-06
9.69743e-07
3.68253e-06
1.21852e-06
2.32566e-06
9.69841e-07
3.6823e-06
5.69334e-06
5.69517e-06
1.45028e-06
5.69346e-06
5.69532e-06
4.27548e-06
9.64931e-06
4.27564e-06
9.65126e-06
1.92311e-05
1.92366e-05
4.2756e-06
9.65055e-06
4.27568e-06
9.65272e-06
7.0353e-07
7.03536e-07
7.0344e-07
7.04665e-07
7.04637e-07
7.0463e-07
7.0451e-07
2.32519e-06
3.68321e-06
9.70406e-07
1.21876e-06
2.32573e-06
3.68285e-06
9.70451e-07
1.92305e-05
1.92361e-05
2.32509e-06
9.70341e-07
3.68331e-06
1.21879e-06
2.3256e-06
9.70375e-07
3.68301e-06
5.69522e-06
5.69712e-06
1.45067e-06
5.69522e-06
5.69718e-06
4.2761e-06
9.65358e-06
4.2763e-06
9.65529e-06
1.92402e-05
1.92453e-05
4.27626e-06
9.65513e-06
4.27639e-06
9.65687e-06
7.05028e-07
7.0502e-07
7.04881e-07
7.05893e-07
7.05849e-07
7.05837e-07
7.05674e-07
2.32499e-06
3.68377e-06
9.70655e-07
1.21875e-06
2.3253e-06
3.68333e-06
9.70656e-07
1.92397e-05
1.9245e-05
2.32484e-06
9.70602e-07
3.68393e-06
1.21879e-06
2.3252e-06
9.70603e-07
3.68355e-06
5.69684e-06
5.69889e-06
1.45085e-06
5.69672e-06
5.69883e-06
4.27666e-06
9.6575e-06
4.27689e-06
9.65903e-06
1.92482e-05
1.92529e-05
4.2768e-06
9.65877e-06
4.277e-06
9.6605e-06
7.06174e-07
7.06164e-07
7.05988e-07
7.06842e-07
7.06779e-07
7.06772e-07
7.06581e-07
2.32464e-06
3.68421e-06
9.7068e-07
1.21857e-06
2.32507e-06
3.68374e-06
9.70658e-07
1.92478e-05
1.92529e-05
2.32463e-06
9.7064e-07
3.6844e-06
1.21864e-06
2.32516e-06
9.70618e-07
3.68397e-06
5.69823e-06
5.70037e-06
1.45105e-06
5.69801e-06
5.70017e-06
4.27725e-06
9.66089e-06
4.27746e-06
9.66238e-06
1.92548e-05
1.92594e-05
4.27711e-06
9.66228e-06
4.2774e-06
9.66364e-06
7.07047e-07
7.07042e-07
7.06847e-07
7.07581e-07
7.07514e-07
7.07512e-07
7.07319e-07
2.32468e-06
3.68467e-06
9.70627e-07
1.21836e-06
2.32499e-06
3.68418e-06
9.70596e-07
1.92549e-05
1.92597e-05
2.32446e-06
9.70586e-07
3.68483e-06
1.21844e-06
2.32473e-06
9.70551e-07
3.68436e-06
5.69953e-06
5.70166e-06
1.45108e-06
5.6992e-06
5.7013e-06
4.27791e-06
9.66405e-06
4.27813e-06
9.66551e-06
1.92605e-05
1.9265e-05
4.27741e-06
9.66519e-06
4.27765e-06
9.66649e-06
7.07738e-07
7.07739e-07
7.07549e-07
7.08184e-07
7.08116e-07
7.08119e-07
7.0795e-07
2.32477e-06
3.6852e-06
9.70588e-07
1.21823e-06
2.32512e-06
3.68466e-06
9.70567e-07
1.92608e-05
1.92656e-05
2.32442e-06
9.70517e-07
3.68529e-06
1.21828e-06
2.32465e-06
9.70484e-07
3.68475e-06
5.7008e-06
5.70281e-06
1.45116e-06
5.70031e-06
5.70231e-06
4.27826e-06
9.66697e-06
4.27862e-06
9.66815e-06
1.92649e-05
1.92697e-05
4.27796e-06
9.66808e-06
4.27813e-06
9.66964e-06
7.08314e-07
7.08321e-07
7.08162e-07
7.08675e-07
7.08627e-07
7.0865e-07
7.08517e-07
2.32485e-06
3.6858e-06
9.70607e-07
1.21816e-06
2.32506e-06
3.68515e-06
9.70586e-07
1.92656e-05
1.92707e-05
2.32443e-06
9.70504e-07
3.68574e-06
1.21818e-06
2.32466e-06
9.70484e-07
3.6851e-06
5.702e-06
5.70395e-06
1.45134e-06
5.70121e-06
5.70316e-06
4.27835e-06
9.66871e-06
4.2788e-06
9.66988e-06
1.92682e-05
1.92737e-05
4.27839e-06
9.67062e-06
4.27867e-06
9.67191e-06
7.08801e-07
7.08839e-07
7.08711e-07
7.09094e-07
7.09068e-07
7.09135e-07
7.09024e-07
2.32485e-06
3.68637e-06
9.70653e-07
1.21816e-06
2.32509e-06
3.68547e-06
9.70625e-07
1.92693e-05
1.9275e-05
2.32481e-06
9.70592e-07
3.68629e-06
1.21819e-06
2.32495e-06
9.70586e-07
3.68546e-06
5.70308e-06
5.705e-06
1.45152e-06
5.70182e-06
5.70374e-06
4.27844e-06
9.67008e-06
4.27886e-06
9.67149e-06
1.92706e-05
1.92776e-05
4.27862e-06
9.6722e-06
4.27895e-06
9.67364e-06
7.09225e-07
7.09308e-07
7.09198e-07
7.09444e-07
7.09451e-07
7.09563e-07
7.09462e-07
2.32479e-06
3.6869e-06
9.70726e-07
1.2182e-06
2.32512e-06
3.68559e-06
9.70692e-07
1.92716e-05
1.92786e-05
2.32483e-06
9.70744e-07
3.68688e-06
1.21827e-06
2.32508e-06
9.70725e-07
3.68562e-06
5.70404e-06
5.70596e-06
1.45177e-06
5.70206e-06
5.704e-06
4.27879e-06
9.67118e-06
4.2791e-06
9.67313e-06
1.9272e-05
1.92814e-05
4.27898e-06
9.67335e-06
4.27926e-06
9.6753e-06
7.09594e-07
7.09714e-07
7.09618e-07
7.09739e-07
7.09772e-07
7.09918e-07
7.09828e-07
2.3248e-06
3.68743e-06
9.70832e-07
1.21825e-06
2.32505e-06
3.68536e-06
9.70781e-07
1.92727e-05
1.92822e-05
2.32479e-06
9.70899e-07
3.68741e-06
1.21836e-06
2.32502e-06
9.70858e-07
3.68537e-06
5.70495e-06
5.70688e-06
1.45195e-06
5.70192e-06
5.70387e-06
4.27942e-06
9.67194e-06
4.27965e-06
9.67505e-06
1.92724e-05
1.92854e-05
4.27948e-06
9.67402e-06
4.27972e-06
9.67709e-06
7.09896e-07
7.10049e-07
7.09969e-07
7.09981e-07
7.1002e-07
7.10199e-07
7.10125e-07
2.32461e-06
3.68803e-06
9.70959e-07
1.21828e-06
2.32504e-06
3.68449e-06
9.7088e-07
1.92728e-05
1.92859e-05
2.32473e-06
9.71069e-07
3.68801e-06
1.21843e-06
2.32507e-06
9.71001e-07
3.6845e-06
5.70588e-06
5.70782e-06
1.45212e-06
5.70138e-06
5.70333e-06
4.2804e-06
9.67226e-06
4.28043e-06
9.67783e-06
1.9272e-05
1.92899e-05
4.28026e-06
9.6742e-06
4.2803e-06
9.67974e-06
7.10104e-07
7.10288e-07
7.10228e-07
7.09801e-07
7.09821e-07
7.10009e-07
7.09967e-07
2.32444e-06
3.6893e-06
9.71085e-07
1.21826e-06
2.32514e-06
3.68371e-06
9.70933e-07
1.92723e-05
1.92902e-05
2.3245e-06
9.7123e-07
3.68937e-06
1.21843e-06
2.32519e-06
9.71082e-07
3.68382e-06
5.70668e-06
5.70859e-06
1.45207e-06
5.7013e-06
5.7032e-06
4.27756e-06
9.67097e-06
4.28116e-06
9.67817e-06
1.92704e-05
1.92875e-05
4.27743e-06
9.6729e-06
4.28096e-06
9.67997e-06
7.09944e-07
7.10134e-07
7.10094e-07
6.99743e-07
6.99748e-07
6.99872e-07
6.99861e-07
2.32005e-06
3.69411e-06
9.70903e-07
1.21512e-06
2.32499e-06
3.68061e-06
9.69229e-07
1.92708e-05
1.92879e-05
2.32011e-06
9.71097e-07
3.69418e-06
1.21529e-06
2.32506e-06
9.69377e-07
3.68061e-06
5.71018e-06
5.71209e-06
1.44894e-06
5.70676e-06
5.70858e-06
3.49148e-06
8.89756e-06
4.22329e-06
5.88531e-06
1.71035e-05
8.56817e-06
3.49145e-06
8.89893e-06
4.22328e-06
5.88604e-06
3.05402e-07
4.95251e-07
4.95255e-07
7.42047e-07
3.13612e-07
5.18604e-07
5.18622e-07
2.2313e-06
3.58853e-06
9.46255e-07
1.10522e-06
2.29274e-06
3.70398e-06
8.82002e-07
1.71033e-05
8.56632e-06
2.23122e-06
9.46388e-07
3.58856e-06
1.10534e-06
2.2926e-06
8.82106e-07
3.7036e-06
5.6182e-06
5.61992e-06
1.3618e-06
5.29129e-06
5.29474e-06
1.91092e-05
1.91116e-05
1.43029e-06
5.66457e-06
5.66665e-06
1.91191e-05
1.91097e-05
1.91214e-05
1.91121e-05
1.43288e-06
5.6674e-06
5.66945e-06
5.66602e-06
5.66812e-06
4.25408e-06
9.58402e-06
2.31162e-06
1.19861e-06
3.66247e-06
9.45484e-07
2.31168e-06
1.19869e-06
3.66311e-06
9.45537e-07
4.25518e-06
9.58864e-06
9.5837e-06
4.2563e-06
4.25541e-06
9.58955e-06
9.58464e-06
4.25629e-06
2.31258e-06
1.19985e-06
3.66457e-06
9.48134e-07
3.66368e-06
9.46914e-07
2.3135e-06
2.31265e-06
1.19994e-06
3.66519e-06
9.48184e-07
3.66433e-06
9.46969e-07
2.31351e-06
1.43031e-06
5.66651e-06
5.66459e-06
1.91083e-05
1.91201e-05
1.91109e-05
1.43288e-06
5.66924e-06
5.66732e-06
5.66795e-06
5.66614e-06
1.91179e-05
1.91086e-05
2.31187e-06
1.19855e-06
3.66338e-06
9.45554e-07
4.25424e-06
9.5843e-06
2.31178e-06
1.19866e-06
9.45541e-07
3.66318e-06
4.25545e-06
9.59081e-06
9.58589e-06
4.2565e-06
2.31282e-06
1.1998e-06
3.66548e-06
9.48219e-07
3.66465e-06
9.46973e-07
2.31376e-06
4.25541e-06
9.58997e-06
9.58503e-06
4.25654e-06
2.3129e-06
1.19991e-06
9.48202e-07
3.66527e-06
9.46981e-07
3.66446e-06
2.31376e-06
4.2542e-06
9.58401e-06
2.31179e-06
1.19871e-06
9.45561e-07
3.66277e-06
4.25417e-06
9.58375e-06
2.31273e-06
1.19982e-06
3.66478e-06
9.48226e-07
3.66397e-06
9.46997e-07
2.31361e-06
4.25546e-06
9.58952e-06
9.58508e-06
4.25635e-06
2.31294e-06
1.19997e-06
9.48242e-07
3.6648e-06
9.4702e-07
3.66397e-06
2.31376e-06
4.25548e-06
9.58914e-06
9.58437e-06
4.25637e-06
1.43036e-06
5.66648e-06
5.66468e-06
1.91099e-05
1.91211e-05
1.91118e-05
1.43293e-06
5.66923e-06
5.66746e-06
5.66803e-06
5.66611e-06
1.91197e-05
1.91104e-05
2.31188e-06
1.19867e-06
9.45703e-07
3.66341e-06
4.25409e-06
9.58416e-06
4.25422e-06
9.5846e-06
2.31273e-06
1.19993e-06
9.48375e-07
3.66473e-06
9.47156e-07
3.66387e-06
2.31358e-06
2.31282e-06
1.19993e-06
9.48365e-07
3.66542e-06
9.47151e-07
3.6646e-06
2.31366e-06
4.25532e-06
9.58966e-06
9.58479e-06
4.25622e-06
4.25536e-06
9.59003e-06
9.58523e-06
4.25629e-06
1.9109e-05
1.91108e-05
1.43302e-06
5.66744e-06
5.66937e-06
5.6662e-06
5.6681e-06
1.91185e-05
1.91095e-05
1.91203e-05
1.91112e-05
1.91195e-05
1.91285e-05
1.91218e-05
1.91307e-05
5.66868e-06
5.67075e-06
1.43455e-06
5.67e-06
5.67202e-06
1.91376e-05
1.91289e-05
1.91396e-05
1.9131e-05
1.43697e-06
5.67254e-06
5.67452e-06
5.67128e-06
5.67332e-06
4.25829e-06
9.59042e-06
4.2574e-06
9.59481e-06
2.31515e-06
3.66564e-06
9.49527e-07
1.20298e-06
2.31425e-06
3.66651e-06
9.50644e-07
2.31519e-06
3.66627e-06
9.49583e-07
1.20306e-06
2.31429e-06
3.6671e-06
9.50696e-07
4.25922e-06
9.59908e-06
9.59489e-06
4.26018e-06
4.25928e-06
9.60003e-06
9.59542e-06
4.26022e-06
2.31595e-06
1.20418e-06
3.66842e-06
9.53124e-07
3.66759e-06
9.52001e-07
2.31669e-06
2.31599e-06
1.20424e-06
3.66894e-06
9.53176e-07
3.66816e-06
9.5206e-07
2.31674e-06
5.67054e-06
5.66877e-06
1.43453e-06
5.67178e-06
5.66989e-06
1.91183e-05
1.91272e-05
1.91383e-05
1.91296e-05
1.43694e-06
5.67424e-06
5.67238e-06
5.67306e-06
5.67132e-06
1.91361e-05
1.91275e-05
2.31547e-06
3.66659e-06
9.49601e-07
1.20294e-06
2.31464e-06
3.6674e-06
9.50744e-07
4.25853e-06
9.5906e-06
4.25746e-06
9.5951e-06
2.31543e-06
9.4961e-07
3.6664e-06
1.20304e-06
2.31459e-06
9.50728e-07
3.66719e-06
4.25948e-06
9.60122e-06
9.59669e-06
4.26051e-06
2.31619e-06
1.20414e-06
3.66926e-06
9.53242e-07
3.66851e-06
9.52091e-07
2.31698e-06
4.2594e-06
9.60007e-06
9.59603e-06
4.26043e-06
2.31616e-06
1.20424e-06
9.53225e-07
3.66903e-06
9.52101e-07
3.66831e-06
2.31691e-06
4.25828e-06
9.5905e-06
4.25734e-06
9.59499e-06
2.31527e-06
9.49661e-07
3.66586e-06
1.20312e-06
2.31452e-06
9.50778e-07
3.66668e-06
4.25828e-06
9.58972e-06
4.25734e-06
9.59432e-06
2.31594e-06
1.20415e-06
3.66853e-06
9.5322e-07
3.66781e-06
9.5213e-07
2.31673e-06
4.25928e-06
9.5999e-06
9.59554e-06
4.26017e-06
2.316e-06
1.20432e-06
9.53284e-07
3.66851e-06
9.52163e-07
3.66774e-06
2.31673e-06
4.25928e-06
9.59909e-06
9.59485e-06
4.26016e-06
5.67064e-06
5.66869e-06
1.43458e-06
5.67181e-06
5.67e-06
1.91201e-05
1.9129e-05
1.9139e-05
1.91305e-05
1.437e-06
5.67429e-06
5.67247e-06
5.6732e-06
5.67123e-06
1.91379e-05
1.91293e-05
2.31521e-06
9.49774e-07
3.66648e-06
1.20305e-06
2.31445e-06
9.50881e-07
3.66728e-06
4.25815e-06
9.59027e-06
4.25729e-06
9.59498e-06
4.25822e-06
9.59063e-06
4.2573e-06
9.59526e-06
2.31587e-06
1.20424e-06
9.53322e-07
3.66849e-06
9.52244e-07
3.66769e-06
2.31663e-06
2.316e-06
1.20425e-06
9.53363e-07
3.66907e-06
9.52253e-07
3.66832e-06
2.31674e-06
4.25922e-06
9.60002e-06
9.59552e-06
4.26004e-06
4.25923e-06
9.60022e-06
9.59579e-06
4.26012e-06
1.91188e-05
1.91275e-05
1.91207e-05
1.91294e-05
1.43709e-06
5.67242e-06
5.67427e-06
5.67123e-06
5.67309e-06
1.91362e-05
1.91278e-05
1.91382e-05
1.91297e-05
1.91379e-05
1.91464e-05
1.91398e-05
1.91481e-05
5.67379e-06
5.67576e-06
1.43836e-06
5.67498e-06
5.67693e-06
1.91548e-05
1.91466e-05
1.91564e-05
1.91484e-05
1.4407e-06
5.67732e-06
5.67924e-06
5.67617e-06
5.67814e-06
4.26208e-06
9.60057e-06
4.2612e-06
9.60495e-06
2.31813e-06
3.66946e-06
9.54289e-07
1.2069e-06
2.31745e-06
3.67024e-06
9.55256e-07
2.31818e-06
3.66997e-06
9.54343e-07
1.20694e-06
2.3175e-06
3.67069e-06
9.55303e-07
4.263e-06
9.60881e-06
9.60498e-06
4.26381e-06
4.26304e-06
9.6096e-06
9.60541e-06
4.26387e-06
2.31886e-06
1.20796e-06
3.67196e-06
9.57419e-07
3.67125e-06
9.56453e-07
2.31951e-06
2.31891e-06
1.20799e-06
3.67235e-06
9.57463e-07
3.6717e-06
9.56506e-07
2.31955e-06
5.6755e-06
5.67376e-06
1.43827e-06
5.67662e-06
5.67475e-06
1.91363e-05
1.91448e-05
1.91552e-05
1.91471e-05
1.4406e-06
5.6789e-06
5.67702e-06
5.67784e-06
5.6761e-06
1.91531e-05
1.91449e-05
2.31842e-06
3.67034e-06
9.54394e-07
1.20686e-06
2.31772e-06
3.67104e-06
9.55387e-07
4.26225e-06
9.60101e-06
4.26126e-06
9.60488e-06
2.31832e-06
9.54399e-07
3.67012e-06
1.20694e-06
2.31765e-06
9.55365e-07
3.67079e-06
4.26315e-06
9.61062e-06
9.60674e-06
4.26405e-06
2.31913e-06
1.20792e-06
3.67272e-06
9.57562e-07
3.67209e-06
9.56571e-07
2.31977e-06
4.26306e-06
9.60956e-06
9.60575e-06
4.26391e-06
2.31903e-06
1.208e-06
9.57537e-07
3.67244e-06
9.56574e-07
3.67184e-06
2.31967e-06
4.262e-06
9.60072e-06
4.26113e-06
9.60486e-06
2.31813e-06
9.54467e-07
3.66954e-06
1.20704e-06
2.31747e-06
9.55428e-07
3.67026e-06
4.26195e-06
9.59993e-06
4.26112e-06
9.60392e-06
2.31885e-06
1.20794e-06
3.67191e-06
9.57563e-07
3.67132e-06
9.5663e-07
2.3195e-06
4.26293e-06
9.60942e-06
9.6053e-06
4.26371e-06
2.31885e-06
1.2081e-06
9.57607e-07
3.67189e-06
9.56648e-07
3.67125e-06
2.31948e-06
4.26289e-06
9.60835e-06
9.60472e-06
4.26368e-06
5.67565e-06
5.6737e-06
1.43834e-06
5.67667e-06
5.67488e-06
1.91382e-05
1.91466e-05
1.91557e-05
1.91476e-05
1.44067e-06
5.67897e-06
5.67719e-06
5.678e-06
5.67609e-06
1.91549e-05
1.91468e-05
2.31811e-06
9.54535e-07
3.67009e-06
1.20694e-06
2.31748e-06
9.55486e-07
3.67078e-06
4.26185e-06
9.60056e-06
4.26109e-06
9.60475e-06
4.26191e-06
9.60075e-06
4.26109e-06
9.60486e-06
2.31871e-06
1.208e-06
9.57616e-07
3.67193e-06
9.56695e-07
3.67126e-06
2.31932e-06
2.31882e-06
1.208e-06
9.57636e-07
3.67238e-06
9.56691e-07
3.67177e-06
2.31939e-06
4.26285e-06
9.60933e-06
9.60561e-06
4.26355e-06
4.26284e-06
9.60937e-06
9.60571e-06
4.26359e-06
1.91365e-05
1.91446e-05
1.91384e-05
1.91466e-05
1.44076e-06
5.67703e-06
5.67882e-06
5.67598e-06
5.67777e-06
1.91527e-05
1.91448e-05
1.91548e-05
1.91468e-05
1.9155e-05
1.91629e-05
1.91566e-05
1.91644e-05
5.67848e-06
5.6804e-06
1.44169e-06
5.67953e-06
5.68143e-06
1.91706e-05
1.9163e-05
1.9172e-05
1.91645e-05
1.44394e-06
5.6816e-06
5.68347e-06
5.68065e-06
5.68254e-06
4.26552e-06
9.61006e-06
4.26479e-06
9.61408e-06
2.32073e-06
3.67294e-06
9.58433e-07
1.21027e-06
2.32019e-06
3.67357e-06
9.59247e-07
2.32076e-06
3.67332e-06
9.58478e-07
1.21026e-06
2.32023e-06
3.67389e-06
9.59282e-07
4.26635e-06
9.61774e-06
9.61414e-06
4.267e-06
4.26639e-06
9.61826e-06
9.61444e-06
4.26705e-06
2.32139e-06
1.21118e-06
3.67502e-06
9.61089e-07
3.67448e-06
9.60283e-07
2.32187e-06
2.32141e-06
1.21117e-06
3.67531e-06
9.61119e-07
3.67481e-06
9.60324e-07
2.3219e-06
5.68008e-06
5.67832e-06
1.44154e-06
5.68107e-06
5.67916e-06
1.91531e-05
1.91611e-05
1.9171e-05
1.91633e-05
1.44377e-06
5.68311e-06
5.68118e-06
5.6822e-06
5.68042e-06
1.91688e-05
1.91611e-05
2.32096e-06
3.67373e-06
9.58558e-07
1.21023e-06
2.32042e-06
3.67427e-06
9.59393e-07
4.26549e-06
9.61003e-06
4.26473e-06
9.61376e-06
2.32086e-06
9.58556e-07
3.67344e-06
1.21029e-06
2.32033e-06
9.59364e-07
3.67396e-06
4.26635e-06
9.61914e-06
9.61532e-06
4.26701e-06
2.32158e-06
1.21115e-06
3.67569e-06
9.61234e-07
3.67523e-06
9.60409e-07
2.32204e-06
4.26626e-06
9.61778e-06
9.61453e-06
4.26694e-06
2.32149e-06
1.21121e-06
9.61211e-07
3.67534e-06
9.60412e-07
3.67492e-06
2.32195e-06
4.26533e-06
9.60987e-06
4.26463e-06
9.61371e-06
2.32067e-06
9.58632e-07
3.67285e-06
1.21038e-06
2.32014e-06
9.59436e-07
3.67342e-06
4.26528e-06
9.60918e-06
4.26458e-06
9.61275e-06
2.32127e-06
1.21112e-06
3.6748e-06
9.61244e-07
3.67437e-06
9.60474e-07
2.32175e-06
4.26617e-06
9.61796e-06
9.61412e-06
4.26679e-06
2.3213e-06
1.21129e-06
9.61282e-07
3.67483e-06
9.60488e-07
3.67433e-06
2.32176e-06
4.26613e-06
9.61696e-06
9.61316e-06
4.26675e-06
5.68025e-06
5.67835e-06
1.44164e-06
5.68112e-06
5.67937e-06
1.9155e-05
1.91628e-05
1.9171e-05
1.91635e-05
1.44387e-06
5.68313e-06
5.6814e-06
5.68235e-06
5.68048e-06
1.91705e-05
1.9163e-05
2.32053e-06
9.5865e-07
3.67333e-06
1.21025e-06
2.32004e-06
9.59441e-07
3.67387e-06
4.26512e-06
9.6102e-06
4.2645e-06
9.61377e-06
4.26518e-06
9.6102e-06
4.26456e-06
9.6139e-06
2.32106e-06
1.21118e-06
9.61246e-07
3.67491e-06
9.60488e-07
3.67441e-06
2.32152e-06
2.32115e-06
1.21116e-06
9.61258e-07
3.67523e-06
9.60478e-07
3.67477e-06
2.32158e-06
4.26602e-06
9.61805e-06
9.61456e-06
4.26657e-06
4.2661e-06
9.61785e-06
9.61427e-06
4.26664e-06
1.91529e-05
1.91606e-05
1.91549e-05
1.91626e-05
1.44393e-06
5.68115e-06
5.68288e-06
5.68027e-06
5.682e-06
1.91681e-05
1.91607e-05
1.91702e-05
1.91627e-05
1.91706e-05
1.91779e-05
1.91721e-05
1.91793e-05
5.68267e-06
5.68455e-06
1.44451e-06
5.6835e-06
5.68537e-06
1.91848e-05
1.91779e-05
1.91864e-05
1.91793e-05
1.44666e-06
5.68526e-06
5.68714e-06
5.68454e-06
5.68641e-06
4.26843e-06
9.61864e-06
4.26787e-06
9.62214e-06
2.32284e-06
3.67588e-06
9.61944e-07
1.21306e-06
2.32245e-06
3.67631e-06
9.62604e-07
2.32285e-06
3.67619e-06
9.61978e-07
1.213e-06
2.32248e-06
3.6766e-06
9.62628e-07
4.26914e-06
9.62528e-06
9.62229e-06
4.26962e-06
4.2692e-06
9.62603e-06
9.62284e-06
4.26966e-06
2.32337e-06
1.21383e-06
3.67747e-06
9.64119e-07
3.67714e-06
9.63477e-07
2.32367e-06
2.32339e-06
1.21376e-06
3.67777e-06
9.64136e-07
3.67745e-06
9.63506e-07
2.32368e-06
5.6842e-06
5.6824e-06
1.44431e-06
5.68501e-06
5.68309e-06
1.91688e-05
1.91763e-05
1.91855e-05
1.91784e-05
1.44644e-06
5.68678e-06
5.68487e-06
5.68607e-06
5.68425e-06
1.91834e-05
1.91761e-05
2.32292e-06
3.6766e-06
9.62065e-07
1.21301e-06
2.32257e-06
3.67698e-06
9.62741e-07
4.26824e-06
9.61854e-06
4.26766e-06
9.62185e-06
2.32285e-06
9.62069e-07
3.67626e-06
1.21306e-06
2.32249e-06
9.62719e-07
3.6766e-06
4.269e-06
9.62663e-06
9.62364e-06
4.26949e-06
2.32342e-06
1.21378e-06
3.67814e-06
9.64244e-07
3.67785e-06
9.63587e-07
2.32372e-06
4.26892e-06
9.6255e-06
9.62211e-06
4.26942e-06
2.32335e-06
1.21383e-06
9.64223e-07
3.67775e-06
9.63595e-07
3.67749e-06
2.32364e-06
4.2681e-06
9.61834e-06
4.26758e-06
9.62186e-06
2.32268e-06
9.62145e-07
3.67569e-06
1.21313e-06
2.32232e-06
9.62792e-07
3.67609e-06
4.26808e-06
9.61733e-06
4.26755e-06
9.62096e-06
2.32317e-06
1.21371e-06
3.67722e-06
9.64256e-07
3.67694e-06
9.63651e-07
2.32347e-06
4.26885e-06
9.62556e-06
9.62221e-06
4.26929e-06
2.3232e-06
1.21389e-06
9.64298e-07
3.67724e-06
9.63671e-07
3.67693e-06
2.32347e-06
4.26882e-06
9.62465e-06
9.6212e-06
4.26925e-06
5.68431e-06
5.68247e-06
1.44442e-06
5.685e-06
5.68328e-06
1.91705e-05
1.91778e-05
1.91852e-05
1.91781e-05
1.44655e-06
5.68674e-06
5.68504e-06
5.68614e-06
5.68432e-06
1.91848e-05
1.91778e-05
2.32247e-06
9.62109e-07
3.67609e-06
1.21297e-06
2.32215e-06
9.62742e-07
3.67647e-06
4.26789e-06
9.61845e-06
4.26744e-06
9.62194e-06
4.26794e-06
9.61853e-06
4.26751e-06
9.62194e-06
2.32292e-06
1.21378e-06
9.64215e-07
3.67734e-06
9.63623e-07
3.67702e-06
2.3232e-06
2.323e-06
1.21372e-06
9.64218e-07
3.6776e-06
9.63608e-07
3.6773e-06
2.32324e-06
4.2687e-06
9.6256e-06
9.62228e-06
4.26908e-06
4.26876e-06
9.62565e-06
9.62221e-06
4.26911e-06
1.91681e-05
1.91754e-05
1.91702e-05
1.91774e-05
1.44657e-06
5.68473e-06
5.68644e-06
5.68405e-06
5.68575e-06
1.91824e-05
1.91753e-05
1.91845e-05
1.91774e-05
1.91847e-05
1.91915e-05
1.91863e-05
1.91932e-05
5.68626e-06
5.68814e-06
1.44679e-06
5.68689e-06
5.68877e-06
1.91979e-05
1.91913e-05
1.91997e-05
1.91931e-05
1.44883e-06
5.6884e-06
5.69029e-06
5.68786e-06
5.68975e-06
4.27074e-06
9.62636e-06
4.27037e-06
9.62952e-06
2.32431e-06
3.67828e-06
9.64816e-07
1.21527e-06
2.32412e-06
3.67852e-06
9.65319e-07
2.32432e-06
3.67858e-06
9.64837e-07
1.21518e-06
2.32413e-06
3.67881e-06
9.65327e-07
4.27137e-06
9.63217e-06
9.6295e-06
4.27164e-06
4.2714e-06
9.63285e-06
9.63015e-06
4.27167e-06
2.32474e-06
1.21588e-06
3.67945e-06
9.66503e-07
3.6793e-06
9.66025e-07
2.32484e-06
2.32474e-06
1.21579e-06
3.67974e-06
9.66507e-07
3.6796e-06
9.66043e-07
2.32485e-06
5.68781e-06
5.68596e-06
1.44655e-06
5.68843e-06