/*--------------------------------*- C++ -*----------------------------------*\
| =========                 |                                                 |
| \\      /  F ield         | OpenFOAM: The Open Source CFD Toolbox           |
|  \\    /   O peration     | Version:  v1906                                 |
|   \\  /    A nd           | Web:      www.OpenFOAM.com                      |
|    \\/     M anipulation  |                                                 |
\*---------------------------------------------------------------------------*/
FoamFile
{
    version     2.0;
    format      ascii;
    class       volVectorField;
    location    "350";
    object      U;
}
// * * * * * * * * * * * * * * * * * * * * * * * * * * * * * * * * * * * * * //

dimensions      [0 1 -1 0 0 0 0];


internalField   nonuniform List<vector> 
43024
(
(-8.05475e-06 -8.04634e-06 0.112473)
(8.48854e-06 -4.80311e-06 0.107483)
(-4.76183e-06 8.53583e-06 0.107482)
(-2.5927e-05 -2.5742e-05 0.104194)
(-8.03304e-06 -8.04276e-06 0.112446)
(8.24786e-06 -4.70338e-06 0.107478)
(-4.62075e-06 8.32342e-06 0.107477)
(-2.61036e-05 -2.59079e-05 0.104197)
(-7.99797e-06 -8.02437e-06 0.11242)
(8.04446e-06 -4.58989e-06 0.107475)
(-4.47424e-06 8.13179e-06 0.107474)
(-2.6228e-05 -2.6058e-05 0.104202)
(-7.95234e-06 -7.98557e-06 0.112396)
(7.88307e-06 -4.45211e-06 0.107471)
(-4.33092e-06 7.97029e-06 0.107471)
(-2.63093e-05 -2.61812e-05 0.104206)
(-7.8823e-06 -7.90655e-06 0.112373)
(7.73616e-06 -4.30171e-06 0.107469)
(-4.21224e-06 7.81455e-06 0.107469)
(-2.63578e-05 -2.62878e-05 0.104212)
(-7.76811e-06 -7.76817e-06 0.11235)
(7.55392e-06 -4.11525e-06 0.107467)
(-4.08555e-06 7.61921e-06 0.107467)
(-2.64286e-05 -2.63941e-05 0.104217)
(-7.58411e-06 -7.5621e-06 0.112328)
(7.30631e-06 -3.88598e-06 0.107465)
(-3.92671e-06 7.36135e-06 0.107465)
(-2.65584e-05 -2.65485e-05 0.104223)
(-7.29836e-06 -7.25781e-06 0.112308)
(6.97165e-06 -3.59828e-06 0.107463)
(-3.69632e-06 7.01581e-06 0.107464)
(-2.6752e-05 -2.67642e-05 0.104229)
(-6.90074e-06 -6.83951e-06 0.112289)
(6.54978e-06 -3.27256e-06 0.107462)
(-3.40504e-06 6.56961e-06 0.107463)
(-2.70245e-05 -2.70603e-05 0.104234)
(-6.38911e-06 -6.30638e-06 0.112271)
(6.03833e-06 -2.94557e-06 0.107461)
(-3.07128e-06 6.01162e-06 0.107462)
(-2.73799e-05 -2.74461e-05 0.10424)
(-5.77547e-06 -5.67452e-06 0.112256)
(5.40711e-06 -2.61616e-06 0.107461)
(-2.72252e-06 5.33295e-06 0.107461)
(-2.78148e-05 -2.78964e-05 0.104245)
(-5.11217e-06 -4.996e-06 0.112242)
(4.61822e-06 -2.30698e-06 0.107461)
(-2.39417e-06 4.55213e-06 0.107461)
(-2.83463e-05 -2.83892e-05 0.10425)
(-4.44488e-06 -4.33159e-06 0.112232)
(3.72049e-06 -2.01892e-06 0.107462)
(-2.08218e-06 3.73049e-06 0.107462)
(-2.89468e-05 -2.89175e-05 0.104254)
(-3.75769e-06 -3.76297e-06 0.112224)
(2.86098e-06 -1.71482e-06 0.107463)
(-1.75778e-06 2.92923e-06 0.107463)
(-2.95054e-05 -2.95219e-05 0.104257)
(-3.12424e-06 -3.31568e-06 0.112219)
(2.18483e-06 -1.40348e-06 0.107464)
(-1.39976e-06 2.17741e-06 0.107464)
(-2.9937e-05 -3.01351e-05 0.10426)
(-2.73857e-06 -2.95869e-06 0.112217)
(1.69504e-06 -1.10158e-06 0.107466)
(-1.02392e-06 1.61821e-06 0.107466)
(-3.02641e-05 -3.04958e-05 0.104262)
(-2.72395e-06 -2.89063e-06 0.112218)
(1.41574e-06 -7.73067e-07 0.107469)
(-6.64476e-07 1.36804e-06 0.107468)
(-3.03028e-05 -3.04471e-05 0.104263)
(-3.30753e-06 -3.44239e-06 0.112222)
(1.2321e-06 -2.99284e-07 0.107473)
(-1.97001e-07 1.16001e-06 0.107471)
(-2.93245e-05 -2.94526e-05 0.104267)
(-5.20246e-06 -5.26108e-06 0.112229)
(7.38589e-07 9.64566e-07 0.107479)
(1.05359e-06 6.77909e-07 0.107477)
(-2.51606e-05 -2.52115e-05 0.104278)
(-1.46196e-05 -1.46608e-05 0.112237)
(2.5709e-06 2.64396e-06 0.10749)
(2.66119e-06 2.60855e-06 0.107487)
(-1.00422e-05 -1.00132e-05 0.104325)
(-1.64805e-05 -1.65188e-05 0.112371)
(0.000115777 -5.595e-05 0.107763)
(-5.59163e-05 0.000115711 0.10776)
(3.5371e-05 3.53695e-05 0.104688)
(-3.96739e-05 -3.96935e-05 0.104308)
(-4.63876e-06 -8.68023e-06 0.107482)
(4.37742e-06 -8.82587e-06 0.107482)
(3.9465e-05 -3.98849e-05 0.104308)
(-8.69859e-06 -4.65496e-06 0.107484)
(-8.77905e-06 4.46608e-06 0.107481)
(8.54409e-06 -4.81554e-06 0.107485)
(8.59421e-06 4.56218e-06 0.107482)
(-3.97959e-05 3.95559e-05 0.104307)
(-4.78508e-06 8.57949e-06 0.107483)
(4.43673e-06 8.72607e-06 0.107483)
(3.95292e-05 3.96967e-05 0.104307)
(2.57636e-05 2.5731e-05 0.104194)
(-3.93061e-05 -3.93662e-05 0.104311)
(-4.62282e-06 -8.63807e-06 0.107481)
(4.3599e-06 -8.78247e-06 0.107481)
(-4.51369e-06 -8.45779e-06 0.107478)
(4.27996e-06 -8.60517e-06 0.107477)
(-2.59734e-05 2.55134e-05 0.104194)
(3.91315e-05 -3.95275e-05 0.104311)
(-8.64982e-06 -4.64653e-06 0.107483)
(-8.72878e-06 4.45529e-06 0.10748)
(-8.44427e-06 -4.56713e-06 0.107479)
(-8.51396e-06 4.38399e-06 0.107476)
(8.54073e-06 4.54822e-06 0.107481)
(8.28968e-06 -4.71808e-06 0.107479)
(8.3234e-06 4.45437e-06 0.107477)
(2.56062e-05 -2.59025e-05 0.104194)
(-3.93969e-05 3.92466e-05 0.10431)
(4.41308e-06 8.68304e-06 0.107482)
(-4.64479e-06 8.35992e-06 0.107478)
(4.30658e-06 8.48846e-06 0.107478)
(3.91595e-05 3.93455e-05 0.10431)
(2.59422e-05 2.58665e-05 0.104199)
(-3.89814e-05 -3.90816e-05 0.104315)
(-4.49033e-06 -8.40931e-06 0.107477)
(4.26539e-06 -8.55375e-06 0.107476)
(-4.39273e-06 -8.2413e-06 0.107474)
(4.21777e-06 -8.36359e-06 0.107473)
(-2.61111e-05 2.5686e-05 0.104198)
(3.888e-05 -3.91908e-05 0.104315)
(-8.3864e-06 -4.55305e-06 0.107478)
(-8.45334e-06 4.36948e-06 0.107475)
(-8.18956e-06 -4.47773e-06 0.107475)
(-8.24083e-06 4.31029e-06 0.107472)
(8.26492e-06 4.43581e-06 0.107476)
(8.07145e-06 -4.60468e-06 0.107475)
(8.0741e-06 4.35186e-06 0.107472)
(2.58205e-05 -2.60213e-05 0.104198)
(-3.90382e-05 3.89896e-05 0.104314)
(4.28669e-06 8.43492e-06 0.107477)
(-4.49603e-06 8.15972e-06 0.107474)
(4.21024e-06 8.24406e-06 0.107474)
(3.88635e-05 3.90268e-05 0.104313)
(2.60969e-05 2.59835e-05 0.104203)
(-3.87001e-05 -3.88212e-05 0.10432)
(-4.37591e-06 -8.20251e-06 0.107473)
(4.21868e-06 -8.31806e-06 0.107472)
(-4.27673e-06 -8.03909e-06 0.107471)
(4.1773e-06 -8.1285e-06 0.10747)
(-2.61908e-05 2.5857e-05 0.104203)
(3.86875e-05 -3.8884e-05 0.104319)
(-8.14193e-06 -4.46813e-06 0.107475)
(-8.18716e-06 4.3047e-06 0.107472)
(-7.96027e-06 -4.37224e-06 0.107472)
(-7.98949e-06 4.23898e-06 0.107469)
(8.03301e-06 4.34097e-06 0.107472)
(7.89525e-06 -4.46671e-06 0.107472)
(7.86576e-06 4.25886e-06 0.107468)
(2.60125e-05 -2.61123e-05 0.104203)
(-3.87213e-05 3.87599e-05 0.104319)
(4.20462e-06 8.19994e-06 0.107473)
(-4.34254e-06 7.98029e-06 0.107471)
(4.13776e-06 8.01964e-06 0.10747)
(3.86313e-05 3.87576e-05 0.104317)
(2.62289e-05 2.60997e-05 0.104209)
(-3.84903e-05 -3.859e-05 0.104325)
(-4.26661e-06 -8.00996e-06 0.107471)
(4.18263e-06 -8.09017e-06 0.107469)
(-4.18347e-06 -7.84221e-06 0.107468)
(4.14493e-06 -7.89401e-06 0.107467)
(-2.62341e-05 2.60192e-05 0.104208)
(3.85336e-05 -3.86073e-05 0.104324)
(-7.92907e-06 -4.36267e-06 0.107472)
(-7.95666e-06 4.24011e-06 0.107469)
(-7.77049e-06 -4.2668e-06 0.10747)
(-7.7774e-06 4.18756e-06 0.107467)
(7.83964e-06 4.2511e-06 0.107468)
(7.73995e-06 -4.31574e-06 0.107469)
(7.67989e-06 4.17092e-06 0.107465)
(2.61791e-05 -2.61946e-05 0.104208)
(-3.84834e-05 3.85817e-05 0.104324)
(4.14304e-06 7.99041e-06 0.10747)
(-4.21472e-06 7.82044e-06 0.107469)
(4.09664e-06 7.81297e-06 0.107467)
(3.84626e-05 3.85285e-05 0.104322)
(2.63107e-05 2.62097e-05 0.104214)
(-3.83266e-05 -3.83709e-05 0.10433)
(-4.18524e-06 -7.82076e-06 0.107468)
(4.15664e-06 -7.86255e-06 0.107467)
(-4.09141e-06 -7.61551e-06 0.107466)
(4.08391e-06 -7.62801e-06 0.107465)
(-2.62657e-05 2.6173e-05 0.104213)
(3.83855e-05 -3.83444e-05 0.104329)
(-7.75582e-06 -4.26671e-06 0.10747)
(-7.75531e-06 4.19573e-06 0.107467)
(-7.57839e-06 -4.15101e-06 0.107468)
(-7.55536e-06 4.11146e-06 0.107464)
(7.66464e-06 4.17231e-06 0.107465)
(7.56239e-06 -4.1361e-06 0.107467)
(7.48116e-06 4.08193e-06 0.107463)
(2.62905e-05 -2.62517e-05 0.104213)
(-3.82826e-05 3.84089e-05 0.104329)
(4.10822e-06 7.79093e-06 0.107467)
(-4.08798e-06 7.63123e-06 0.107467)
(4.03977e-06 7.58778e-06 0.107465)
(3.83018e-05 3.83311e-05 0.104327)
(2.63857e-05 2.63429e-05 0.10422)
(-3.81372e-05 -3.81245e-05 0.104335)
(-4.10136e-06 -7.59236e-06 0.107467)
(4.08676e-06 -7.59369e-06 0.107465)
(-3.97997e-06 -7.32693e-06 0.107465)
(3.96847e-06 -7.29862e-06 0.107463)
(-2.63291e-05 2.63502e-05 0.104219)
(3.8186e-05 -3.80423e-05 0.104334)
(-7.5643e-06 -4.14828e-06 0.107468)
(-7.53427e-06 4.11638e-06 0.107465)
(-7.33519e-06 -3.99646e-06 0.107466)
(-7.28193e-06 4.00049e-06 0.107462)
(7.46602e-06 4.08693e-06 0.107463)
(7.32351e-06 -3.91255e-06 0.107464)
(7.23655e-06 3.97918e-06 0.107461)
(2.6406e-05 -2.6342e-05 0.104219)
(-3.8049e-05 3.81984e-05 0.104334)
(4.05545e-06 7.5662e-06 0.107465)
(-3.93399e-06 7.3806e-06 0.107465)
(3.96335e-06 7.31514e-06 0.107463)
(3.81139e-05 3.81177e-05 0.104332)
(2.65151e-05 2.65269e-05 0.104226)
(-3.78875e-05 -3.78354e-05 0.10434)
(-3.9841e-06 -7.29756e-06 0.107465)
(3.96852e-06 -7.25556e-06 0.107463)
(-3.80182e-06 -6.9534e-06 0.107463)
(3.80492e-06 -6.8765e-06 0.107461)
(-2.64692e-05 2.65918e-05 0.104224)
(3.79441e-05 -3.76954e-05 0.104339)
(-7.31505e-06 -3.99282e-06 0.107466)
(-7.25428e-06 4.00412e-06 0.107463)
(-6.99476e-06 -3.78281e-06 0.107464)
(-6.91246e-06 3.83919e-06 0.107461)
(7.21614e-06 3.98249e-06 0.107461)
(6.99599e-06 -3.62595e-06 0.107463)
(6.91083e-06 3.82268e-06 0.107459)
(2.65793e-05 -2.64906e-05 0.104225)
(-3.7766e-05 3.79566e-05 0.104339)
(3.97411e-06 7.28936e-06 0.107464)
(-3.71202e-06 7.04409e-06 0.107463)
(3.82993e-06 6.96381e-06 0.107462)
(3.78882e-05 3.78698e-05 0.104337)
(2.67316e-05 2.67815e-05 0.104231)
(-3.75829e-05 -3.74885e-05 0.104345)
(-3.79761e-06 -6.91468e-06 0.107464)
(3.80591e-06 -6.82342e-06 0.107461)
(-3.54656e-06 -6.46114e-06 0.107462)
(3.60404e-06 -6.34009e-06 0.107459)
(-2.66784e-05 2.69064e-05 0.10423)
(3.76747e-05 -3.73039e-05 0.104344)
(-6.96223e-06 -3.76976e-06 0.107465)
(-6.87346e-06 3.84014e-06 0.107461)
(-6.53819e-06 -3.49185e-06 0.107463)
(-6.4305e-06 3.62088e-06 0.107459)
(6.88554e-06 3.82303e-06 0.10746)
(6.57631e-06 -3.29318e-06 0.107461)
(6.49337e-06 3.59858e-06 0.107458)
(2.68288e-05 -2.66981e-05 0.10423)
(-3.74277e-05 3.76623e-05 0.104344)
(3.83693e-06 6.93241e-06 0.107462)
(-3.42075e-06 6.60475e-06 0.107462)
(3.63042e-06 6.51622e-06 0.10746)
(3.76118e-05 3.757e-05 0.104343)
(2.70343e-05 2.7128e-05 0.104237)
(-3.72127e-05 -3.7067e-05 0.10435)
(-3.53994e-06 -6.41315e-06 0.107463)
(3.61475e-06 -6.28051e-06 0.10746)
(-3.21902e-06 -5.84001e-06 0.10746)
(3.37299e-06 -5.69439e-06 0.107457)
(-2.69402e-05 2.72892e-05 0.104235)
(3.73672e-05 -3.68882e-05 0.104348)
(-6.49887e-06 -3.476e-06 0.107464)
(-6.38567e-06 3.62286e-06 0.10746)
(-5.96469e-06 -3.12826e-06 0.107461)
(-5.83708e-06 3.33272e-06 0.107458)
(6.46467e-06 3.59828e-06 0.107459)
(6.06093e-06 -2.94488e-06 0.10746)
(5.96626e-06 3.29922e-06 0.107457)
(2.71555e-05 -2.69836e-05 0.104235)
(-3.70429e-05 3.73007e-05 0.104349)
(3.63322e-06 6.47837e-06 0.107462)
(-3.07457e-06 6.04817e-06 0.10746)
(3.35651e-06 5.95462e-06 0.107459)
(3.7271e-05 3.71992e-05 0.104348)
(2.74221e-05 2.75649e-05 0.104242)
(-3.67707e-05 -3.6596e-05 0.104354)
(-3.21628e-06 -5.79189e-06 0.107462)
(3.39292e-06 -5.64481e-06 0.107459)
(-2.82267e-06 -5.09731e-06 0.107459)
(3.05294e-06 -4.9728e-06 0.107456)
(-2.72669e-05 2.77121e-05 0.104239)
(3.69562e-05 -3.64677e-05 0.104353)
(-5.92687e-06 -3.12054e-06 0.107463)
(-5.79699e-06 3.33542e-06 0.107459)
(-5.26253e-06 -2.71413e-06 0.10746)
(-5.13867e-06 2.9508e-06 0.107457)
(5.94324e-06 3.30133e-06 0.107459)
(5.42202e-06 -2.58694e-06 0.107459)
(5.32584e-06 2.92977e-06 0.107457)
(2.75563e-05 -2.73703e-05 0.10424)
(-3.66232e-05 3.68411e-05 0.104353)
(3.36429e-06 5.92144e-06 0.107461)
(-2.69661e-06 5.35496e-06 0.107459)
(3.00972e-06 5.28082e-06 0.107459)
(3.68636e-05 3.6771e-05 0.104353)
(2.78947e-05 2.80604e-05 0.104246)
(-3.62691e-05 -3.60989e-05 0.104358)
(-2.83858e-06 -5.07232e-06 0.107461)
(3.06946e-06 -4.96085e-06 0.107458)
(-2.38467e-06 -4.27221e-06 0.107458)
(2.55968e-06 -4.22397e-06 0.107455)
(-2.77213e-05 2.81515e-05 0.104244)
(3.63814e-05 -3.60654e-05 0.104357)
(-5.24045e-06 -2.72831e-06 0.107463)
(-5.12618e-06 2.95898e-06 0.107459)
(-4.45392e-06 -2.26829e-06 0.107459)
(-4.37878e-06 2.46065e-06 0.107456)
(5.32063e-06 2.94827e-06 0.107459)
(4.60625e-06 -2.22556e-06 0.107458)
(4.55371e-06 2.49828e-06 0.107456)
(2.79981e-05 -2.78654e-05 0.104245)
(-3.61991e-05 3.62861e-05 0.104357)
(3.03052e-06 5.27098e-06 0.107461)
(-2.32003e-06 4.53328e-06 0.107458)
(2.56276e-06 4.51843e-06 0.107458)
(3.63741e-05 3.63125e-05 0.104358)
(2.84246e-05 2.85812e-05 0.10425)
(-3.57456e-05 -3.56006e-05 0.104362)
(-2.44183e-06 -4.30448e-06 0.107461)
(2.57757e-06 -4.28175e-06 0.107458)
(-1.93103e-06 -3.41249e-06 0.107457)
(1.92797e-06 -3.46839e-06 0.107454)
(-2.83417e-05 2.85725e-05 0.104249)
(3.56965e-05 -3.56814e-05 0.104361)
(-4.48641e-06 -2.32602e-06 0.107462)
(-4.42989e-06 2.49e-06 0.107459)
(-3.59698e-06 -1.82367e-06 0.107459)
(-3.59956e-06 1.8911e-06 0.107455)
(4.58028e-06 2.54818e-06 0.10746)
(3.63267e-06 -1.87569e-06 0.107457)
(3.64834e-06 2.00542e-06 0.107456)
(2.84426e-05 -2.84575e-05 0.104249)
(-3.57823e-05 3.56745e-05 0.104361)
(2.59883e-06 4.56128e-06 0.107462)
(-1.94477e-06 3.61964e-06 0.107457)
(2.00905e-06 3.68964e-06 0.107458)
(3.57913e-05 3.58074e-05 0.104362)
(2.89662e-05 2.90884e-05 0.104254)
(-3.51586e-05 -3.51379e-05 0.104366)
(-2.04227e-06 -3.54604e-06 0.107461)
(1.99133e-06 -3.61931e-06 0.107459)
(-1.41188e-06 -2.5829e-06 0.107456)
(1.2612e-06 -2.67432e-06 0.107454)
(-2.9047e-05 2.89761e-05 0.104253)
(3.50036e-05 -3.52481e-05 0.104364)
(-3.71921e-06 -1.95344e-06 0.107463)
(-3.74479e-06 1.97733e-06 0.107459)
(-2.67497e-06 -1.42738e-06 0.107458)
(-2.76022e-06 1.29814e-06 0.107454)
(3.75623e-06 2.10147e-06 0.10746)
(2.60899e-06 -1.49436e-06 0.107457)
(2.70522e-06 1.41389e-06 0.107455)
(2.8879e-05 -2.9083e-05 0.104253)
(-3.53075e-05 3.50663e-05 0.104364)
(2.09618e-06 3.81605e-06 0.107462)
(-1.54523e-06 2.67471e-06 0.107457)
(1.43656e-06 2.76282e-06 0.107457)
(3.5204e-05 3.52002e-05 0.104365)
(2.95376e-05 2.95186e-05 0.104258)
(-3.45319e-05 -3.47057e-05 0.104369)
(-1.59518e-06 -2.88662e-06 0.107462)
(1.42529e-06 -2.97454e-06 0.10746)
(-8.53395e-07 -1.82117e-06 0.107455)
(6.72875e-07 -1.88392e-06 0.107453)
(-2.97102e-05 2.93959e-05 0.104256)
(3.43836e-05 -3.47607e-05 0.104367)
(-2.93109e-06 -1.66083e-06 0.107464)
(-3.04091e-06 1.46772e-06 0.10746)
(-1.72893e-06 -1.06607e-06 0.107457)
(-1.88543e-06 6.79993e-07 0.107453)
(2.97861e-06 1.5684e-06 0.107461)
(1.67857e-06 -1.07498e-06 0.107456)
(1.84741e-06 7.38401e-07 0.107454)
(2.93407e-05 -2.9667e-05 0.104257)
(-3.47787e-05 3.44297e-05 0.104367)
(1.62356e-06 3.00833e-06 0.107463)
(-1.08822e-06 1.70015e-06 0.107456)
(9.3611e-07 1.7525e-06 0.107456)
(3.46802e-05 3.44964e-05 0.104368)
(3.00645e-05 2.98639e-05 0.104261)
(-3.39552e-05 -3.41658e-05 0.104372)
(-1.15924e-06 -2.35513e-06 0.107464)
(9.78253e-07 -2.4082e-06 0.107462)
(-3.93047e-07 -1.06103e-06 0.107455)
(2.06454e-07 -1.09138e-06 0.107452)
(-3.02144e-05 2.97904e-05 0.104259)
(3.38246e-05 -3.42083e-05 0.10437)
(-2.2272e-06 -1.40358e-06 0.107466)
(-2.39471e-06 9.59138e-07 0.107462)
(-9.07345e-07 -6.51113e-07 0.107456)
(-1.05764e-06 1.24116e-07 0.107451)
(2.36159e-06 1.01103e-06 0.107463)
(8.53848e-07 -6.55002e-07 0.107455)
(1.02553e-06 1.85532e-07 0.107452)
(2.97732e-05 -3.02037e-05 0.104259)
(-3.41797e-05 3.3776e-05 0.104369)
(1.24962e-06 2.2249e-06 0.107464)
(-5.95838e-07 7.83309e-07 0.107454)
(4.54995e-07 8.38706e-07 0.107454)
(3.40711e-05 3.38242e-05 0.104369)
(3.03467e-05 3.01318e-05 0.104264)
(-3.32667e-05 -3.3431e-05 0.104373)
(-8.46556e-07 -1.90723e-06 0.107467)
(6.52406e-07 -1.93142e-06 0.107464)
(-7.51753e-08 -3.25826e-07 0.107453)
(-1.07468e-07 -3.26266e-07 0.10745)
(-3.05083e-05 3.00917e-05 0.104261)
(3.31272e-05 -3.34504e-05 0.104371)
(-1.76323e-06 -1.0925e-06 0.107468)
(-1.89804e-06 5.57538e-07 0.107463)
(-2.1786e-07 -2.74741e-07 0.107454)
(-2.86355e-07 -2.11183e-07 0.107449)
(1.85568e-06 6.25994e-07 0.107464)
(1.24582e-07 -2.87015e-07 0.107453)
(2.38162e-07 -1.56038e-07 0.10745)
(3.0106e-05 -3.0566e-05 0.104261)
(-3.3382e-05 3.30899e-05 0.104369)
(8.81859e-07 1.67615e-06 0.107466)
(-1.74453e-07 6.77967e-08 0.107451)
(4.57599e-08 1.19683e-07 0.107451)
(3.32819e-05 3.31265e-05 0.10437)
(3.02776e-05 3.0104e-05 0.104266)
(-3.18771e-05 -3.20397e-05 0.104372)
(-5.73836e-07 -1.60831e-06 0.10747)
(3.97204e-07 -1.60082e-06 0.107467)
(3.05556e-08 2.8672e-07 0.10745)
(-1.25109e-07 3.22227e-07 0.107447)
(-3.04317e-05 3.009e-05 0.104264)
(3.18005e-05 -3.20268e-05 0.10437)
(-1.50188e-06 -7.70689e-07 0.107471)
(-1.56122e-06 2.99623e-07 0.107466)
(3.90005e-07 -1.50816e-07 0.107451)
(3.91789e-07 -2.40839e-07 0.107446)
(1.51753e-06 3.37469e-07 0.107467)
(-4.5172e-07 -1.61988e-07 0.107449)
(-4.24744e-07 -2.56592e-07 0.107446)
(3.01636e-05 -3.04859e-05 0.104263)
(-3.19471e-05 3.17598e-05 0.104368)
(5.35673e-07 1.40396e-06 0.107468)
(-5.26603e-08 -5.20463e-07 0.107448)
(-6.04255e-08 -5.21432e-07 0.107448)
(3.18811e-05 3.1759e-05 0.104368)
(2.93023e-05 2.91421e-05 0.10427)
(-2.80817e-05 -2.81529e-05 0.104364)
(-9.80951e-08 -1.38584e-06 0.107474)
(2.31597e-08 -1.34423e-06 0.107471)
(-4.63619e-07 6.58743e-07 0.107445)
(4.58721e-07 6.94971e-07 0.107443)
(-2.93747e-05 2.91384e-05 0.104268)
(2.80224e-05 -2.81862e-05 0.104362)
(-1.28927e-06 -2.77064e-07 0.107475)
(-1.28907e-06 -9.8149e-08 0.107469)
(7.02796e-07 -5.73884e-07 0.107447)
(7.39262e-07 3.23456e-07 0.107441)
(1.26388e-06 -1.13045e-07 0.10747)
(-7.83864e-07 -6.73357e-07 0.107445)
(-8.11128e-07 2.97149e-07 0.107441)
(2.92334e-05 -2.9441e-05 0.104266)
(-2.81174e-05 2.79607e-05 0.10436)
(7.5636e-08 1.15721e-06 0.107471)
(-5.57172e-07 -8.50018e-07 0.107443)
(4.15385e-07 -8.54766e-07 0.107442)
(2.79982e-05 2.79578e-05 0.10436)
(2.50956e-05 2.50172e-05 0.104282)
(-1.77988e-05 -1.78956e-05 0.10433)
(1.17946e-06 -8.67464e-07 0.10748)
(-1.18875e-06 -8.06053e-07 0.107477)
(-3.6385e-06 -1.57049e-06 0.107439)
(3.66511e-06 -1.52462e-06 0.107436)
(-2.51357e-05 2.50029e-05 0.10428)
(1.77524e-05 -1.78771e-05 0.104328)
(-8.20745e-07 1.05538e-06 0.107481)
(-7.85969e-07 -1.2944e-06 0.107475)
(-1.5586e-06 -3.69752e-06 0.10744)
(-1.50587e-06 3.63172e-06 0.107434)
(7.13018e-07 -1.3033e-06 0.107475)
(1.46999e-06 -3.74417e-06 0.107439)
(1.39869e-06 3.54955e-06 0.107435)
(2.50793e-05 -2.51985e-05 0.104278)
(-1.78211e-05 1.77484e-05 0.104326)
(-1.1956e-06 6.79039e-07 0.107476)
(-3.68052e-06 1.46501e-06 0.107436)
(3.57713e-06 1.42422e-06 0.107436)
(1.77333e-05 1.7699e-05 0.104325)
(9.93975e-06 9.92453e-06 0.104329)
(-3.6441e-05 -3.64282e-05 0.104279)
(2.73811e-06 -2.6417e-06 0.10749)
(-2.71431e-06 -2.56651e-06 0.107488)
(-3.28804e-05 -4.77315e-05 0.107495)
(3.30806e-05 -4.76895e-05 0.107494)
(-9.94633e-06 9.96415e-06 0.104327)
(3.6544e-05 -3.63823e-05 0.104277)
(-2.67572e-06 2.66309e-06 0.107491)
(-2.60986e-06 -2.71977e-06 0.107486)
(-4.77706e-05 -3.2903e-05 0.107496)
(-4.76697e-05 3.3096e-05 0.107492)
(2.52548e-06 -2.78119e-06 0.107486)
(4.78023e-05 -3.28834e-05 0.107495)
(4.76979e-05 3.28959e-05 0.107491)
(9.98493e-06 -9.941e-06 0.104325)
(-3.63953e-05 3.65538e-05 0.104275)
(-2.74606e-06 2.55231e-06 0.107487)
(-3.28682e-05 4.77711e-05 0.107493)
(3.29135e-05 4.7684e-05 0.107492)
(3.64604e-05 3.64385e-05 0.104275)
(-3.54464e-05 -3.54036e-05 0.104692)
(-5.59932e-05 -0.000115632 0.107763)
(5.62144e-05 -0.000115619 0.107761)
(3.55673e-05 -3.53538e-05 0.104691)
(-0.000115747 -5.59857e-05 0.107764)
(-0.000115575 5.61848e-05 0.107759)
(1.66263e-05 -1.64893e-05 0.112371)
(-1.64701e-05 1.65988e-05 0.112368)
(1.65411e-05 1.64674e-05 0.112368)
(0.000115612 5.5985e-05 0.107759)
(-3.53413e-05 3.55181e-05 0.104689)
(5.59888e-05 0.000115661 0.10776)
(-4.74405e-07 -1.54529e-05 0.0914018)
(-1.38983e-06 -1.14154e-05 0.082276)
(3.16312e-06 -5.79266e-06 0.071602)
(-1.54752e-05 -3.97966e-07 0.0914018)
(-1.13902e-05 -1.41552e-06 0.0822764)
(-8.04354e-06 -8.03083e-06 0.112479)
(7.86788e-06 -8.1398e-06 0.11248)
(-8.1334e-06 7.90161e-06 0.112479)
(7.91572e-06 7.99205e-06 0.112479)
(2.52266e-05 -8.25752e-07 0.0985554)
(8.67564e-06 -4.85196e-06 0.107488)
(1.89496e-05 -7.66004e-06 0.0930493)
(1.12179e-05 -2.17801e-06 0.109916)
(-5.64887e-06 3.30668e-06 0.0716036)
(-8.99777e-07 2.51772e-05 0.0985542)
(-4.83669e-06 8.68928e-06 0.107486)
(-2.20826e-06 1.12147e-05 0.109914)
(-7.6011e-06 1.90404e-05 0.093048)
(3.9748e-05 3.98874e-05 0.104306)
(9.09842e-06 6.694e-06 0.0875937)
(6.45062e-06 9.26345e-06 0.0875914)
(-3.78485e-07 -1.52037e-05 0.0914256)
(5.26529e-07 7.84628e-06 0.0822454)
(-3.72977e-07 6.23312e-06 0.0913758)
(-1.35669e-06 -1.12876e-05 0.0823022)
(-2.66599e-06 4.55553e-06 0.0715667)
(3.28879e-06 -5.66413e-06 0.0716259)
(-1.51969e-05 -3.94132e-07 0.0914252)
(7.93499e-06 3.60342e-07 0.0822443)
(6.292e-06 -3.3832e-07 0.0913766)
(-1.12235e-05 -1.45957e-06 0.0823022)
(7.87497e-06 -8.16307e-06 0.112473)
(-8.14877e-06 7.9151e-06 0.112472)
(7.91647e-06 8.00767e-06 0.112473)
(-8.02911e-06 -8.03331e-06 0.112452)
(7.84177e-06 -8.16966e-06 0.112452)
(-8.12794e-06 7.90197e-06 0.112451)
(7.86824e-06 7.986e-06 0.112451)
(2.48682e-05 -7.83324e-07 0.0985711)
(-1.04044e-05 3.25427e-06 0.0930098)
(1.11172e-05 -2.19851e-06 0.109905)
(8.39984e-06 -4.76307e-06 0.107482)
(-1.03043e-05 -5.53855e-07 0.0985119)
(1.86883e-05 -7.51262e-06 0.0930715)
(1.10386e-05 -2.19147e-06 0.109902)
(4.57063e-06 -2.46994e-06 0.0715642)
(-5.53519e-06 3.40527e-06 0.0716272)
(-8.29743e-07 2.48496e-05 0.0985704)
(-2.22227e-06 1.11489e-05 0.109904)
(3.39874e-06 -1.03891e-05 0.0930097)
(-4.70932e-06 8.45814e-06 0.10748)
(-5.79007e-07 -1.02563e-05 0.0985108)
(-2.21071e-06 1.10827e-05 0.1099)
(-7.40839e-06 1.88026e-05 0.0930705)
(-4.54002e-06 -3.73208e-06 0.0875629)
(-3.97602e-06 -4.36736e-06 0.0875613)
(3.93353e-05 3.95185e-05 0.104308)
(8.89821e-06 6.62468e-06 0.0876174)
(6.46461e-06 9.03256e-06 0.0876155)
(-2.69751e-07 -1.49957e-05 0.0914485)
(5.68446e-07 7.92307e-06 0.0822707)
(-2.64948e-07 6.40107e-06 0.0913992)
(-1.30458e-06 -1.11999e-05 0.0823269)
(-2.52911e-06 4.65028e-06 0.0715897)
(3.41344e-06 -5.55364e-06 0.0716485)
(-1.49606e-05 -3.72863e-07 0.0914476)
(8.03549e-06 3.34776e-07 0.0822693)
(6.48853e-06 -3.24263e-07 0.0913995)
(-1.11057e-05 -1.46606e-06 0.0823266)
(7.83369e-06 -8.17114e-06 0.112446)
(-8.12325e-06 7.90168e-06 0.112445)
(7.85669e-06 7.98451e-06 0.112445)
(-7.99624e-06 -8.01699e-06 0.112426)
(7.81105e-06 -8.15197e-06 0.112426)
(-8.07936e-06 7.88833e-06 0.112425)
(7.81583e-06 7.95845e-06 0.112425)
(2.45817e-05 -7.30455e-07 0.0985867)
(-1.05898e-05 3.36772e-06 0.0930316)
(1.09413e-05 -2.18157e-06 0.109892)
(8.16148e-06 -4.65451e-06 0.107477)
(-1.05452e-05 -5.06387e-07 0.0985277)
(1.84998e-05 -7.37054e-06 0.0930929)
(1.08629e-05 -2.17175e-06 0.109888)
(4.64293e-06 -2.3817e-06 0.0715869)
(-5.45049e-06 3.47473e-06 0.0716494)
(-7.16922e-07 2.45826e-05 0.0985867)
(-2.19341e-06 1.10092e-05 0.109891)
(3.5543e-06 -1.05525e-05 0.0930319)
(-4.56517e-06 8.24549e-06 0.107476)
(-4.82643e-07 -1.04769e-05 0.0985273)
(-2.17836e-06 1.09408e-05 0.109887)
(-7.23399e-06 1.86279e-05 0.0930923)
(-4.67475e-06 -3.80056e-06 0.0875859)
(-3.94341e-06 -4.5611e-06 0.0875847)
(3.90044e-05 3.91784e-05 0.104311)
(8.76584e-06 6.5407e-06 0.08764)
(6.4873e-06 8.82752e-06 0.0876384)
(-1.72633e-07 -1.47991e-05 0.0914707)
(6.13131e-07 7.98755e-06 0.0822947)
(-1.69303e-07 6.5605e-06 0.0914217)
(-1.26036e-06 -1.11169e-05 0.0823504)
(-2.41666e-06 4.72592e-06 0.0716116)
(3.50785e-06 -5.47087e-06 0.0716699)
(-1.47606e-05 -3.30754e-07 0.0914691)
(8.11474e-06 3.34452e-07 0.0822928)
(6.67076e-06 -2.88664e-07 0.0914214)
(-1.1043e-05 -1.45736e-06 0.0823496)
(7.8119e-06 -8.15186e-06 0.11242)
(-8.07377e-06 7.89324e-06 0.112419)
(7.80861e-06 7.96065e-06 0.112419)
(-7.94927e-06 -7.97927e-06 0.112401)
(7.78325e-06 -8.09741e-06 0.112401)
(-8.01833e-06 7.87545e-06 0.1124)
(7.76154e-06 7.92238e-06 0.1124)
(2.43341e-05 -6.66902e-07 0.0986025)
(-1.07297e-05 3.49809e-06 0.0930527)
(1.07872e-05 -2.16755e-06 0.10988)
(7.96705e-06 -4.53359e-06 0.107473)
(-1.07486e-05 -4.54913e-07 0.0985436)
(1.83555e-05 -7.2176e-06 0.0931137)
(1.07091e-05 -2.15665e-06 0.109876)
(4.69011e-06 -2.3276e-06 0.0716083)
(-5.3935e-06 3.50765e-06 0.0716703)
(-6.03232e-07 2.43405e-05 0.098603)
(-2.14932e-06 1.08766e-05 0.109879)
(3.68968e-06 -1.06972e-05 0.0930533)
(-4.41479e-06 8.05305e-06 0.107472)
(-3.61139e-07 -1.06668e-05 0.0985439)
(-2.13104e-06 1.08019e-05 0.109876)
(-7.09089e-06 1.84717e-05 0.0931133)
(-4.76599e-06 -3.88531e-06 0.087608)
(-3.89938e-06 -4.73192e-06 0.0876072)
(3.87382e-05 3.88859e-05 0.104315)
(8.66676e-06 6.44064e-06 0.0876617)
(6.51826e-06 8.6512e-06 0.0876604)
(-1.13672e-07 -1.46416e-05 0.0914924)
(6.21292e-07 8.02642e-06 0.0823175)
(-9.01338e-08 6.69635e-06 0.0914437)
(-1.25204e-06 -1.10591e-05 0.0823728)
(-2.35481e-06 4.77315e-06 0.0716323)
(3.53811e-06 -5.42536e-06 0.0716903)
(-1.45909e-05 -2.71481e-07 0.09149)
(8.15392e-06 3.6808e-07 0.0823152)
(6.81212e-06 -2.41697e-07 0.0914426)
(-1.0983e-05 -1.38676e-06 0.0823716)
(7.78933e-06 -8.09052e-06 0.112396)
(-8.01233e-06 7.88208e-06 0.112395)
(7.75911e-06 7.92091e-06 0.112394)
(-7.88418e-06 -7.90975e-06 0.112378)
(7.74322e-06 -7.99519e-06 0.112377)
(-7.92321e-06 7.83787e-06 0.112376)
(7.70162e-06 7.85276e-06 0.112375)
(2.41227e-05 -5.75933e-07 0.0986184)
(-1.08305e-05 3.62699e-06 0.0930733)
(1.06404e-05 -2.13206e-06 0.109869)
(7.80492e-06 -4.38727e-06 0.10747)
(-1.09267e-05 -3.75528e-07 0.0985597)
(1.82568e-05 -7.06575e-06 0.093134)
(1.05563e-05 -2.11338e-06 0.109865)
(4.71452e-06 -2.32743e-06 0.0716285)
(-5.37167e-06 3.47773e-06 0.0716902)
(-4.96967e-07 2.41319e-05 0.0986193)
(-2.09472e-06 1.07453e-05 0.109868)
(3.78512e-06 -1.08242e-05 0.0930739)
(-4.26848e-06 7.89169e-06 0.10747)
(-2.47848e-07 -1.08525e-05 0.0985604)
(-2.07074e-06 1.06652e-05 0.109865)
(-6.97366e-06 1.83361e-05 0.0931336)
(-4.83206e-06 -3.95976e-06 0.0876293)
(-3.87638e-06 -4.86671e-06 0.0876287)
(3.85409e-05 3.86372e-05 0.10432)
(8.59166e-06 6.36717e-06 0.0876827)
(6.51301e-06 8.5263e-06 0.0876816)
(-1.11216e-07 -1.44917e-05 0.0915135)
(6.29841e-07 8.1108e-06 0.0823392)
(-6.92001e-08 6.8307e-06 0.0914651)
(-1.23888e-06 -1.09642e-05 0.0823941)
(-2.37852e-06 4.78366e-06 0.071652)
(3.48047e-06 -5.41767e-06 0.0717097)
(-1.44647e-05 -2.24632e-07 0.0915107)
(8.18161e-06 4.73682e-07 0.0823367)
(6.93356e-06 -1.85242e-07 0.0914634)
(-1.09727e-05 -1.26224e-06 0.0823928)
(7.74466e-06 -7.97878e-06 0.112372)
(-7.91392e-06 7.84089e-06 0.112371)
(7.69895e-06 7.8494e-06 0.11237)
(-7.7756e-06 -7.78079e-06 0.112355)
(7.65e-06 -7.82476e-06 0.112354)
(-7.78527e-06 7.75064e-06 0.112353)
(7.60342e-06 7.74034e-06 0.112352)
(2.39491e-05 -4.78291e-07 0.0986344)
(-1.09102e-05 3.80403e-06 0.0930933)
(1.04781e-05 -2.06255e-06 0.109858)
(7.64733e-06 -4.22452e-06 0.107468)
(-1.10738e-05 -2.82137e-07 0.0985757)
(1.81706e-05 -6.8495e-06 0.0931537)
(1.03762e-05 -2.03078e-06 0.109855)
(4.70405e-06 -2.40081e-06 0.0716476)
(-5.38112e-06 3.38545e-06 0.0717091)
(-4.23335e-07 2.39577e-05 0.0986355)
(-2.03396e-06 1.05907e-05 0.109858)
(3.89053e-06 -1.09383e-05 0.0930938)
(-4.14852e-06 7.72294e-06 0.107468)
(-1.68083e-07 -1.09974e-05 0.0985768)
(-2.00712e-06 1.04898e-05 0.109855)
(-6.85809e-06 1.82213e-05 0.0931532)
(-4.89424e-06 -4.01135e-06 0.0876499)
(-3.91389e-06 -4.94434e-06 0.0876495)
(3.83834e-05 3.84297e-05 0.104324)
(8.5195e-06 6.31141e-06 0.0877031)
(6.45253e-06 8.45266e-06 0.0877022)
(-1.4133e-07 -1.43408e-05 0.0915342)
(6.2816e-07 8.17507e-06 0.0823599)
(-9.83466e-08 6.95208e-06 0.091486)
(-1.23687e-06 -1.09236e-05 0.0824146)
(-2.46312e-06 4.77166e-06 0.0716706)
(3.39444e-06 -5.42161e-06 0.071728)
(-1.43333e-05 -1.74645e-07 0.0915311)
(8.19159e-06 5.89696e-07 0.0823575)
(7.03038e-06 -1.48304e-07 0.0914839)
(-1.09326e-05 -1.13566e-06 0.0824134)
(7.64465e-06 -7.79776e-06 0.112349)
(-7.77196e-06 7.74671e-06 0.112349)
(7.6015e-06 7.73447e-06 0.112348)
(-7.60496e-06 -7.58616e-06 0.112332)
(7.49166e-06 -7.57399e-06 0.112331)
(-7.58338e-06 7.59498e-06 0.112331)
(7.45665e-06 7.57078e-06 0.11233)
(2.3746e-05 -3.52415e-07 0.0986503)
(-1.09999e-05 4.01336e-06 0.0931127)
(1.02566e-05 -1.95167e-06 0.109848)
(7.44409e-06 -4.0239e-06 0.107465)
(-1.12346e-05 -1.7312e-07 0.0985918)
(1.80712e-05 -6.63072e-06 0.093173)
(1.01248e-05 -1.91212e-06 0.109845)
(4.68846e-06 -2.48738e-06 0.0716658)
(-5.38193e-06 3.31076e-06 0.0717272)
(-3.59602e-07 2.3754e-05 0.0986515)
(-1.95587e-06 1.03684e-05 0.109849)
(3.99956e-06 -1.1056e-05 0.0931131)
(-4.01196e-06 7.50675e-06 0.107466)
(-1.04472e-07 -1.11607e-05 0.098593)
(-1.92703e-06 1.02342e-05 0.109846)
(-6.73799e-06 1.80967e-05 0.0931723)
(-4.95653e-06 -4.06155e-06 0.08767)
(-3.98562e-06 -4.9937e-06 0.0876698)
(3.821e-05 3.82244e-05 0.104329)
(8.44647e-06 6.26126e-06 0.087723)
(6.37164e-06 8.39705e-06 0.0877222)
(-1.36947e-07 -1.41612e-05 0.0915541)
(6.41814e-07 8.24379e-06 0.0823797)
(-1.16995e-07 7.10759e-06 0.0915062)
(-1.20524e-06 -1.08266e-05 0.0824344)
(-2.52354e-06 4.7754e-06 0.071688)
(3.35396e-06 -5.4014e-06 0.0717454)
(-1.41707e-05 -1.03467e-07 0.0915511)
(8.22663e-06 6.78088e-07 0.0823775)
(7.17276e-06 -9.19861e-08 0.0915041)
(-1.09136e-05 -1.05886e-06 0.0824332)
(7.47877e-06 -7.53448e-06 0.112327)
(-7.55709e-06 7.5809e-06 0.112327)
(7.44801e-06 7.55556e-06 0.112326)
(-7.33289e-06 -7.29571e-06 0.112311)
(7.25288e-06 -7.22102e-06 0.11231)
(-7.27572e-06 7.34722e-06 0.11231)
(7.2358e-06 7.31759e-06 0.112308)
(2.34944e-05 -2.19989e-07 0.098666)
(-1.11193e-05 4.20282e-06 0.0931314)
(9.94283e-06 -1.81977e-06 0.109839)
(7.16816e-06 -3.7718e-06 0.107463)
(-1.14498e-05 -3.66851e-08 0.0986077)
(1.79419e-05 -6.45727e-06 0.0931914)
(9.76966e-06 -1.76753e-06 0.109836)
(4.69977e-06 -2.5292e-06 0.0716831)
(-5.35642e-06 3.2857e-06 0.0717445)
(-2.96654e-07 2.34874e-05 0.0986672)
(-1.86515e-06 1.00464e-05 0.10984)
(4.10878e-06 -1.11969e-05 0.0931318)
(-3.82972e-06 7.22161e-06 0.107464)
(-4.23951e-08 -1.13867e-05 0.0986089)
(-1.82397e-06 9.86849e-06 0.109837)
(-6.6292e-06 1.79484e-05 0.0931908)