/*--------------------------------*- C++ -*----------------------------------*\
| =========                 |                                                 |
| \\      /  F ield         | OpenFOAM: The Open Source CFD Toolbox           |
|  \\    /   O peration     | Version:  v1906                                 |
|   \\  /    A nd           | Web:      www.OpenFOAM.com                      |
|    \\/     M anipulation  |                                                 |
\*---------------------------------------------------------------------------*/
FoamFile
{
    version     2.0;
    format      ascii;
    class       volScalarField;
    location    "150";
    object      nut;
}
// * * * * * * * * * * * * * * * * * * * * * * * * * * * * * * * * * * * * * //

dimensions      [0 2 -1 0 0 0 0];


internalField   nonuniform List<scalar> 
42616
(
0.000233972
0.000233031
0.000233082
0.00023341
0.000232522
0.000227693
0.000227702
0.000223737
0.000230491
0.000220105
0.000220175
0.000208885
0.000227758
0.000211346
0.000211494
0.000193594
0.000224378
0.000202321
0.000202476
0.000179607
0.000220485
0.00019348
0.00019361
0.000167305
0.000216229
0.000185019
0.00018513
0.000156518
0.000211741
0.000177023
0.000177106
0.000147163
0.000207127
0.000169527
0.000169575
0.000138949
0.000202467
0.000162485
0.000162508
0.000131639
0.000197814
0.000155841
0.000155852
0.000125122
0.000193203
0.000149547
0.000149553
0.000118976
0.000188615
0.000143564
0.00014357
0.000113263
0.000184084
0.000137839
0.000137849
0.00010794
0.00017964
0.000132335
0.000132346
0.000103002
0.00017527
0.000127044
0.000127054
9.83309e-05
0.000170964
0.000121986
0.000121995
9.40808e-05
0.000166708
0.000117191
0.000117193
9.03996e-05
0.000162503
0.000112684
0.000112683
8.75136e-05
0.000158321
0.00010853
0.000108526
8.52916e-05
0.000154158
0.000104776
0.000104766
8.35699e-05
0.000234263
0.000234457
0.000234458
0.00023426
0.000234459
0.000234458
0.000234275
0.000234276
0.000234275
0.000234275
0.000234475
0.000234456
0.000234265
0.000234458
0.000234455
0.000234274
0.000233401
0.000226058
0.000233081
0.000233077
0.00022928
0.000229267
0.000233402
0.000226048
0.000233078
0.000233078
0.000229278
0.000229269
0.000233082
0.000229258
0.000229291
0.000233401
0.000226035
0.000233084
0.000229278
0.000229291
0.000226097
0.000223699
0.000212038
0.000227704
0.000227689
0.0002222
0.00022219
0.000223687
0.000212034
0.000227701
0.000227689
0.000222205
0.000222188
0.000227716
0.000222159
0.000222195
0.000223672
0.000212014
0.000227717
0.000222204
0.000222219
0.000212024
0.000208908
0.000196885
0.000220171
0.000220163
0.000213719
0.000213704
0.000208895
0.000196838
0.000220178
0.00022016
0.000213733
0.000213703
0.000220151
0.000213589
0.000213679
0.000208879
0.00019685
0.00022019
0.000213723
0.000213741
0.000196867
0.000193604
0.000182719
0.00021149
0.000211472
0.000204723
0.000204695
0.00019355
0.000182671
0.000211506
0.000211472
0.000204742
0.000204702
0.000211448
0.00020457
0.00020468
0.000193574
0.000182717
0.000211514
0.00020473
0.000204751
0.000182731
0.000179623
0.000170163
0.000202469
0.000202439
0.000195784
0.000195755
0.000179557
0.000170102
0.000202488
0.000202448
0.000195802
0.000195764
0.000202425
0.00019566
0.000195751
0.000179564
0.000170155
0.000202497
0.000195795
0.000195812
0.000170175
0.000167275
0.000159155
0.000193598
0.000193571
0.000187192
0.00018717
0.000167293
0.000159128
0.000193616
0.000193579
0.00018721
0.000187175
0.00019357
0.000187091
0.000187182
0.000167286
0.00015913
0.000193626
0.000187208
0.000187221
0.000159238
0.000156623
0.000149608
0.000185113
0.000185094
0.000179045
0.00017903
0.000156572
0.000149608
0.000185131
0.000185096
0.000179063
0.000179029
0.000185107
0.000178973
0.000179049
0.000156628
0.000149523
0.000185143
0.000179064
0.000179077
0.000149643
0.000147267
0.000141082
0.000177086
0.000177072
0.000171391
0.000171379
0.000147152
0.000141072
0.000177103
0.00017707
0.000171409
0.000171375
0.00017709
0.000171356
0.000171395
0.000147269
0.000141132
0.000177117
0.000171411
0.000171421
0.000141154
0.000139028
0.000133615
0.000169554
0.000169543
0.000164214
0.000164203
0.000139034
0.000133575
0.000169573
0.000169538
0.000164235
0.000164198
0.000169557
0.000164207
0.000164213
0.00013897
0.000133613
0.000169584
0.000164234
0.000164243
0.000133615
0.000131769
0.000126817
0.000162488
0.000162476
0.000157462
0.000157447
0.000131625
0.000126804
0.00016251
0.000162471
0.000157486
0.000157446
0.000162486
0.000157469
0.000157457
0.00013164
0.000126725
0.000162516
0.000157482
0.000157491
0.000126739
0.000125025
0.000120436
0.000155832
0.000155815
0.000151079
0.000151059
0.00012499
0.000120529
0.000155856
0.000155815
0.000151106
0.000151064
0.000155826
0.000151093
0.000151073
0.000125122
0.000120429
0.00015586
0.0001511
0.000151108
0.000120477
0.000119027
0.000114447
0.000149533
0.00014951
0.000145019
0.000144995
0.000118853
0.000114524
0.000149559
0.000149517
0.000145048
0.000145006
0.000149524
0.000145036
0.00014501
0.000119011
0.000114441
0.000149559
0.000145042
0.000145048
0.00011444
0.00011327
0.000108828
0.000143549
0.000143522
0.000139239
0.00013921
0.000113154
0.000108819
0.000143576
0.000143533
0.000139267
0.000139224
0.000143537
0.000139253
0.000139227
0.000113263
0.000108808
0.000143574
0.000139261
0.000139265
0.000108808
0.000107937
0.000103647
0.000137827
0.000137796
0.000133688
0.000133656
0.000107925
0.000103643
0.000137854
0.00013781
0.000133716
0.000133671
0.000137813
0.000133698
0.000133675
0.000107941
0.000103637
0.000137852
0.000133711
0.000133714
0.000103644
0.000103012
9.90398e-05
0.000132324
0.000132292
0.000128343
0.000128307
0.000102997
9.90202e-05
0.000132351
0.000132307
0.000128369
0.000128325
0.000132312
0.000128353
0.000128333
0.000102998
9.90163e-05
0.00013235
0.000128366
0.000128372
9.90346e-05
9.83358e-05
9.48209e-05
0.000127033
0.000126998
0.000123223
0.000123188
9.83462e-05
9.48145e-05
0.000127058
0.000127014
0.00012325
0.000123205
0.000127023
0.000123236
0.000123217
9.83353e-05
9.48143e-05
0.00012706
0.000123247
0.000123253
9.48499e-05
9.41407e-05
9.13279e-05
0.000121971
0.000121938
0.000118323
0.000118296
9.41309e-05
9.12877e-05
0.000121995
0.000121953
0.000118353
0.000118308
0.000121966
0.000118343
0.00011832
9.41216e-05
9.12009e-05
0.000122001
0.000118352
0.000118355
9.13743e-05
9.04375e-05
8.83193e-05
0.000117172
0.000117142
0.000113749
0.000113726
9.04455e-05
8.82211e-05
0.000117196
0.000117154
0.000113781
0.000113734
0.000117166
0.000113776
0.000113747
9.04832e-05
8.81333e-05
0.000117201
0.000113776
0.00011378
8.82671e-05
8.74485e-05
8.58705e-05
0.000112664
0.000112634
0.000109492
0.000109475
8.75239e-05
8.56807e-05
0.000112684
0.000112642
0.000109523
0.000109477
0.000112657
0.000109523
0.00010949
8.75766e-05
8.57662e-05
0.00011269
0.000109522
0.000109523
8.56374e-05
8.5146e-05
8.38793e-05
0.000108508
0.000108482
0.000105623
0.000105605
8.52634e-05
8.38459e-05
0.000108522
0.000108485
0.000105652
0.000105606
0.000108502
0.000105656
0.000105621
8.51604e-05
8.3865e-05
0.000108534
0.00010565
0.000105651
8.37844e-05
8.35159e-05
0.000104756
0.000104727
8.34013e-05
0.000104762
0.000104727
0.000104746
8.34694e-05
0.000104776
0.00023473
0.000234747
0.000234729
0.000234729
0.000235098
0.000234802
0.000234835
0.000234727
0.000235101
0.000234801
0.000234727
0.00023496
0.000234866
0.000233338
0.000233774
0.000104694
3.88397e-05
0.000128384
3.97888e-05
2.20331e-05
2.2873e-05
0.000104682
3.88257e-05
0.00012833
3.97856e-05
0.000233971
0.000233972
0.000233972
0.000232928
0.000232926
0.000232928
0.000232929
0.000206008
8.97893e-05
0.000233963
0.000231901
0.000222273
8.49371e-05
0.000233602
2.20446e-05
2.28787e-05
0.000205903
0.000233966
9.25893e-05
0.000231959
0.000222376
0.000233601
8.66281e-05
4.71505e-05
4.72339e-05
0.000231295
4.36078e-05
4.35921e-05
7.26098e-05
4.24105e-05
8.13376e-05
4.37582e-05
2.48051e-05
2.54853e-05
7.26134e-05
4.24048e-05
8.13399e-05
4.37515e-05
0.000232521
0.000232521
0.000232523
0.000231063
0.00023106
0.000231062
0.000231064
0.000167307
7.86848e-05
0.000232058
0.000225975
0.000180014
7.37009e-05
0.000231345
2.48052e-05
2.54852e-05
0.000167262
0.000232055
7.887e-05
0.000225986
0.000179937
0.000231342
7.40311e-05
3.89753e-05
3.90447e-05
0.000219441
3.62404e-05
3.64648e-05
5.63508e-05
4.55443e-05
6.12214e-05
4.64199e-05
2.60217e-05
2.61219e-05
5.63641e-05
4.55382e-05
6.12328e-05
4.64148e-05
0.000230484
0.00023049
0.00023049
0.000228505
0.000228486
0.000228502
0.000228501
0.00013847
6.65931e-05
0.000228572
0.000217982
0.000147932
6.26316e-05
0.000227449
2.60199e-05
2.61198e-05
0.000138511
0.000228583
6.69872e-05
0.000218076
0.000147936
0.000227467
6.3147e-05
3.30135e-05
3.32525e-05
0.000204399
3.18558e-05
3.19974e-05
4.70502e-05
4.75005e-05
4.99808e-05
4.80127e-05
2.60422e-05
2.59392e-05
4.69998e-05
4.7495e-05
4.99872e-05
4.80086e-05
0.000227734
0.000227754
0.000227753
0.000225275
0.000225241
0.000225269
0.000225269
0.00011743
5.75367e-05
0.000223588
0.000209089
0.000124503
5.49176e-05
0.000222163
2.60397e-05
2.59376e-05
0.000117522
0.00022364
5.78902e-05
0.000209246
0.000124611
0.000222223
5.51966e-05
3.06076e-05
3.06505e-05
0.000189626
3.03082e-05
3.03544e-05
4.1451e-05
4.85818e-05
4.32833e-05
4.88438e-05
2.56709e-05
2.55192e-05
4.14348e-05
4.85771e-05
4.3303e-05
4.88401e-05
0.000224341
0.000224371
0.00022437
0.000221496
0.000221459
0.00022149
0.000221489
0.000102014
5.13748e-05
0.000217603
0.000200084
0.000107359
4.96794e-05
0.000216009
2.56685e-05
2.55176e-05
0.000102096
0.00021768
5.16461e-05
0.000200232
0.000107445
0.000216085
4.98006e-05
3.02667e-05
3.024e-05
0.000176255
3.04484e-05
3.04327e-05
3.81713e-05
4.90904e-05
3.92631e-05
4.91973e-05
2.52339e-05
2.50944e-05
3.81619e-05
4.90861e-05
3.92546e-05
4.91935e-05
0.000220447
0.000220479
0.000220479
0.000217318
0.000217279
0.000217312
0.000217316
9.04626e-05
4.73076e-05
0.000211092
0.000191323
9.4523e-05
4.63188e-05
0.000209423
2.52311e-05
2.50921e-05
9.05161e-05
0.000211173
4.7527e-05
0.000191448
9.45857e-05
0.000209502
4.63991e-05
3.1099e-05
3.10893e-05
0.00016449
3.15625e-05
3.15294e-05
3.63793e-05
4.92663e-05
3.69649e-05
4.92933e-05
2.48464e-05
2.47338e-05
3.63779e-05
4.92671e-05
3.69547e-05
4.92853e-05
0.000216191
0.000216224
0.000216229
0.000212877
0.000212841
0.000212873
0.00021288
8.16294e-05
4.48893e-05
0.000204406
0.000182972
8.47548e-05
4.4383e-05
0.000202737
2.4843e-05
2.4731e-05
8.16392e-05
0.000204483
4.49822e-05
0.000183078
8.4777e-05
0.000202808
4.4432e-05
3.26607e-05
3.26717e-05
0.000154268
3.33135e-05
3.32898e-05
3.56916e-05
4.92833e-05
3.58284e-05
4.92751e-05
2.45346e-05
2.44481e-05
3.56879e-05
4.92822e-05
3.58369e-05
4.92662e-05
0.000211707
0.000211737
0.000211745
0.000208286
0.000208261
0.000208282
0.000208291
7.47076e-05
4.35941e-05
0.000197788
0.000175101
7.72244e-05
4.34077e-05
0.00019616
2.45319e-05
2.44432e-05
7.46785e-05
0.000197848
4.36155e-05
0.000175175
7.72884e-05
0.000196211
4.34455e-05
3.46858e-05
3.46879e-05
0.000145252
3.5459e-05
3.54446e-05
3.58014e-05
4.92507e-05
3.56427e-05
4.92303e-05
2.42944e-05
2.42277e-05
3.57701e-05
4.92489e-05
3.56675e-05
4.92293e-05
0.000207105
0.000207123
0.000207132
0.000203632
0.000203618
0.000203627
0.000203635
6.92748e-05
4.31673e-05
0.000191362
0.000167727
7.12761e-05
4.30705e-05
0.000189786
2.4291e-05
2.42292e-05
6.92614e-05
0.000191401
4.30958e-05
0.000167766
7.13499e-05
0.000189816
4.31868e-05
3.70007e-05
3.69914e-05
0.000137286
3.78385e-05
3.78352e-05
3.66105e-05
4.92177e-05
3.61883e-05
4.92148e-05
2.41193e-05
2.40652e-05
3.65593e-05
4.92166e-05
3.62455e-05
4.92131e-05
0.000202455
0.000202461
0.000202469
0.000198975
0.000198966
0.000198968
0.000198973
6.49111e-05
4.33165e-05
0.000185141
0.00016079
6.65555e-05
4.34218e-05
0.000183622
2.41119e-05
2.40693e-05
6.49214e-05
0.000185165
4.32668e-05
0.000160807
6.65941e-05
0.00018364
4.35288e-05
3.94778e-05
3.94775e-05
0.000130114
4.03294e-05
4.0341e-05
3.79931e-05
4.9215e-05
3.74415e-05
4.92198e-05
2.39898e-05
2.39496e-05
3.79944e-05
4.92124e-05
3.74343e-05
4.92195e-05
0.000197806
0.000197807
0.000197812
0.000194351
0.000194341
0.000194343
0.000194345
6.15178e-05
4.39492e-05
0.000179168
0.000154239
6.27575e-05
4.43097e-05
0.00017772
2.3982e-05
2.39547e-05
6.15209e-05
0.000179187
4.39561e-05
0.000154248
6.2799e-05
0.000177734
4.4374e-05
4.20133e-05
4.20219e-05
0.000123523
4.28683e-05
4.28372e-05
3.99754e-05
4.92392e-05
3.92377e-05
4.92441e-05
2.38982e-05
2.38679e-05
3.9928e-05
4.92278e-05
3.92429e-05
4.92502e-05
0.000193193
0.000193196
0.000193196
0.000189765
0.000189751
0.000189756
0.000189755
5.89496e-05
4.51415e-05
0.000173471
0.000148027
5.98671e-05
4.55312e-05
0.000172088
2.38899e-05
2.38741e-05
5.89688e-05
0.000173488
4.51362e-05
0.000148031
5.98786e-05
0.0001721
4.55776e-05
4.44949e-05
4.45048e-05
0.00011745
4.53213e-05
4.53231e-05
4.2436e-05
4.92738e-05
4.15739e-05
4.92837e-05
2.38343e-05
2.38109e-05
4.24704e-05
4.92631e-05
4.15893e-05
4.92889e-05
0.000188601
0.000188606
0.000188605
0.000185212
0.000185193
0.000185203
0.0001852
5.71439e-05
4.66226e-05
0.000168021
0.000142115
5.7698e-05
4.71854e-05
0.000166695
2.38255e-05
2.38175e-05
5.71638e-05
0.000168037
4.66679e-05
0.000142122
5.76992e-05
0.000166707
4.71661e-05
4.6879e-05
4.68767e-05
0.00011155
4.76601e-05
4.76587e-05
4.53632e-05
4.93151e-05
4.43746e-05
4.93253e-05
2.37895e-05
2.37715e-05
4.53617e-05
4.93046e-05
4.43354e-05
4.93298e-05
0.000184065
0.000184076
0.000184073
0.000180748
0.000180723
0.000180739
0.000180736
5.59765e-05
4.84336e-05
0.000162783
0.00013645
5.62718e-05
4.9076e-05
0.000161503
2.37798e-05
2.37773e-05
5.5927e-05
0.0001628
4.84691e-05
0.000136461
5.62819e-05
0.000161518
4.9058e-05
4.91255e-05
4.91322e-05
0.000106159
4.98232e-05
4.98442e-05
4.85888e-05
4.93548e-05
4.75236e-05
4.93641e-05
2.37516e-05
2.3748e-05
4.85979e-05
4.93463e-05
4.75049e-05
4.93625e-05
0.000179616
0.000179632
0.00017963
0.000176361
0.000176333
0.000176352
0.000176351
5.54717e-05
5.04051e-05
0.000157723
0.000130998
5.55069e-05
5.11693e-05
0.000156486
2.37469e-05
2.37461e-05
5.545e-05
0.000157744
5.04721e-05
0.000131012
5.55547e-05
0.000156503
5.11777e-05
5.11784e-05
5.11767e-05
0.000101282
5.18427e-05
5.18234e-05
5.20204e-05
4.93907e-05
5.08993e-05
4.94027e-05
2.37258e-05
2.3723e-05
5.20478e-05
4.93891e-05
5.0867e-05
4.93968e-05
0.000175245
0.000175263
0.000175264
0.000172042
0.000172013
0.000172033
0.000172034
5.56041e-05
5.26091e-05
0.000152818
0.000125764
5.54158e-05
5.33199e-05
0.000151617
2.37241e-05
2.37199e-05
5.55599e-05
0.000152839
5.26134e-05
0.000125777
5.54383e-05
0.000151634
5.33821e-05
5.30631e-05
5.30721e-05
9.68942e-05
5.36443e-05
5.36464e-05
5.55368e-05
4.94173e-05
5.43301e-05
4.94372e-05
2.37067e-05
2.37022e-05
5.5572e-05
4.94217e-05
5.43072e-05
4.94324e-05
0.000170939
0.000170957
0.000170961
0.000167775
0.00016775
0.000167766
0.000167769
5.63007e-05
5.4894e-05
0.000148063
0.000120768
5.59197e-05
5.56142e-05
0.0001469
2.3705e-05
2.36999e-05
5.62561e-05
0.000148082
5.48491e-05
0.000120778
5.59252e-05
0.000146912
5.56291e-05
5.47623e-05
5.47589e-05
9.30757e-05
5.5311e-05
5.53069e-05
5.89697e-05
4.94484e-05
5.77243e-05
4.94663e-05
2.3689e-05
2.36848e-05
5.89976e-05
4.94458e-05
5.77128e-05
4.94641e-05
0.000166687
0.000166701
0.000166706
0.000163561
0.000163539
0.000163551
0.000163554
5.76095e-05
5.71604e-05
0.000143427
0.000116031
5.70223e-05
5.79027e-05
0.00014229
2.36869e-05
2.36824e-05
5.75569e-05
0.00014344
5.71098e-05
0.000116034
5.70598e-05
0.000142299
5.79429e-05
5.6308e-05
5.63074e-05
8.97484e-05
5.67783e-05
5.67755e-05
6.21551e-05
4.94773e-05
6.09692e-05
4.94946e-05
2.36728e-05
2.36682e-05
6.21946e-05
4.94745e-05
6.09542e-05
4.94913e-05
0.000162486
0.000162495
0.000162501
0.000159382
0.000159365
0.000159373
0.000159376
5.93941e-05
5.94131e-05
0.000138885
0.000111604
5.86707e-05
6.01278e-05
0.000137782
2.36704e-05
2.36663e-05
5.93658e-05
0.000138898
5.93959e-05
0.000111605
5.87517e-05
0.000137788
6.01678e-05
5.76931e-05
5.76925e-05
8.68415e-05
5.81394e-05
5.81156e-05
6.50819e-05
4.9504e-05
6.40062e-05
4.95177e-05
2.36573e-05
2.36535e-05
6.51096e-05
4.95068e-05
6.39803e-05
4.95126e-05
0.000158311
0.000158314
0.00015832
0.000155224
0.000155209
0.000155213
0.000155217
6.16237e-05
6.16222e-05
0.000134449
0.000107538
6.08555e-05
6.23513e-05
0.000133385
2.36553e-05
2.36514e-05
6.16663e-05
0.000134453
6.15883e-05
0.000107536
6.08629e-05
0.000133384
6.22967e-05
5.89317e-05
5.8934e-05
8.45697e-05
5.93347e-05
5.93495e-05
6.76934e-05
4.95342e-05
6.67012e-05
4.95391e-05
2.36433e-05
2.36399e-05
4.95318e-05
6.67027e-05
4.95373e-05
0.000154152
0.00015415
0.000154157
6.42379e-05
6.37101e-05
0.000130129
0.000103911
6.33078e-05
6.44165e-05
0.00012911
2.36413e-05
6.42311e-05
0.000130131
6.37355e-05
6.33104e-05
0.000129115
6.00869e-05
6.0084e-05
8.30965e-05
6.04342e-05
6.04324e-05
0.000234871
0.000233556
0.000233788
2.29448e-05
0.000214128
2.30198e-05
0.000213893
0.000234426
5.04273e-05
5.01828e-05
0.000229242
0.000228988
0.000235104
0.000234801
0.000234753
0.000234727
0.000235133
0.000234801
0.000234785
0.000234727
0.000234466
4.03473e-05
0.000218027
0.000147105
0.000234458
4.04184e-05
0.000210153
0.000147038
0.000233949
0.000234469
9.80208e-05
0.000234271
0.000233246
0.000234597
0.000228308
0.000233822
0.000234468
9.90635e-05
0.000234271
0.000233301
0.000234597
0.000228273
0.00023487
0.000233481
0.000233852
2.29044e-05
0.000214127
0.000234426
5.027e-05
5.01456e-05
0.000228746
0.000230109
2.2937e-05
0.000214106
0.000235094
0.000234801
0.000234801
0.000234727
0.000235128
0.000234801
0.000234727
0.000234804
0.000234469
4.04213e-05
0.000210088
0.000146912
0.000233978
0.000234469
9.90696e-05
0.000234271
0.000233312
0.000234597
0.000228334
0.000234486
4.04164e-05
0.00021003
0.000147005
0.000233831
0.000234468
0.000234271
9.90536e-05
0.000234597
0.000233268
0.000228269
0.00023473
0.000234747
0.000234729
0.000234729
0.00023473
0.000234747
0.000234729
0.000234729
0.00023473
0.000234747
0.000234729
0.000234729
0.000234591
0.000234573
0.000234253
0.000234253
0.000234592
0.000234592
0.000234252
0.000234591
0.000234573
0.000234253
0.000234253
0.000234592
0.000234592
0.000234252
0.000234591
0.000234573
0.000234253
0.000234253
0.000234592
0.000234592
0.000234252
0.000234591
0.000234573
0.000234253
0.000234253
0.000234592
0.000234592
0.000234252
0.000235136
0.000234801
0.000234727
0.000234868
0.000233971
0.000234468
9.55619e-05
0.000234271
0.000233288
0.000234596
0.000228262
0.00023447
4.04836e-05
0.000216635
0.000146675
0.000233809
0.000234469
0.00023427
9.80168e-05
0.000234596
0.000233182
0.000228226
0.00023447
4.03452e-05
0.000218502
0.000146736
0.000234869
0.000233427
0.000233578
2.2892e-05
0.00021395
0.000234427
5.02131e-05
5.03348e-05
0.000228938
0.000229156
2.29533e-05
0.000213862
0.000235104
0.000234801
0.000234727
0.000234904
0.000233954
0.000234468
0.000234272
9.90897e-05
0.000234597
0.000232944
0.00022833
0.000233945
0.00023447
0.00023427
9.7966e-05
0.000234596
0.000233259
0.000228276
0.000234489
4.04318e-05
0.000209966
0.000147133
0.000234457
4.03679e-05
0.000218071
0.000146691
0.000234436
4.96128e-05
4.9701e-05
0.000228471
0.000230101
2.29212e-05
0.000214129
2.29499e-05
0.000214145
2.18821e-05
2.28826e-05
2.19351e-05
2.28562e-05
4.75329e-05
4.74081e-05
0.000231272
4.36601e-05
4.35994e-05
2.45175e-05
2.33432e-05
2.45003e-05
2.33272e-05
0.000229563
3.98657e-05
3.98512e-05
4.2749e-05
4.2715e-05
0.000104608
3.88109e-05
0.00012831
3.97903e-05
0.000206056
9.29434e-05
0.000233966
0.00023196
0.000222347
8.65826e-05
0.000233606
0.00020596
9.25657e-05
0.000233966
0.000231953
0.000222327
8.65554e-05
0.000233603
9.83067e-05
4.19411e-05
4.03383e-05
8.54984e-05
9.81975e-05
4.19401e-05
4.03321e-05
8.54364e-05
0.000199896
0.000230699
8.02115e-05
0.000232666
8.51725e-05
0.000233179
0.000185378
0.000199777
0.000230689
8.01676e-05
0.000232659
8.50637e-05
0.000233174
0.000185283
4.72517e-05
4.73746e-05
0.000231268
4.34412e-05
4.36026e-05
2.18699e-05
2.28804e-05
2.45177e-05
2.3352e-05
0.000229556
3.97806e-05
3.98205e-05
4.25639e-05
4.27172e-05
2.45185e-05
2.33416e-05
0.000206056
9.25905e-05
0.000233967
0.000231957
0.000222332
8.65961e-05
0.000233606
0.000104653
3.88077e-05
0.000128301
3.97885e-05
0.000206006
0.000233965
9.25632e-05
0.000231953
0.000222308
0.000233604
8.65195e-05
9.83041e-05
4.19357e-05
4.03305e-05
8.55037e-05
0.000199908
0.000230697
8.01963e-05
0.000232667
8.50947e-05
0.00023318
0.000185399
9.82841e-05
4.19375e-05
4.03294e-05
8.55062e-05
0.000199871
0.00023069
0.000232665
8.01444e-05
0.000233178
8.5116e-05
0.000185392
0.000104657
3.88132e-05
0.000128172
3.98112e-05
0.000205984
0.000233963
9.29517e-05
0.000231966
0.000222235
0.000233603
8.6685e-05
0.00010463
3.88246e-05
0.000128165
3.97896e-05
0.000199895
0.000230659
7.99595e-05
0.000232665
8.4106e-05
0.000233176
0.000185416
9.83073e-05
4.19741e-05
4.03506e-05
8.55115e-05
0.000199879
0.000230707
0.000232667
8.0247e-05
0.000233178
8.52673e-05
0.000185411
9.82946e-05
4.19397e-05
4.03318e-05
8.55116e-05
4.72033e-05
4.72794e-05
0.000231262
4.33795e-05
4.34583e-05
2.19022e-05
2.28891e-05
2.4519e-05
2.33556e-05
0.000229551
3.97132e-05
3.97682e-05
4.25106e-05
4.25698e-05
2.4519e-05
2.33472e-05
0.000205995
0.000233965
9.29596e-05
0.000231966
0.000222271
0.000233605
8.66951e-05
0.000104524
3.88183e-05
0.0001284
3.97921e-05
0.000104601
3.8836e-05
0.000128177
3.97887e-05
0.000199736
0.000230697
0.000232662
8.01806e-05
0.000233173
8.5165e-05
0.00018532
0.000199871
0.000230708
0.000232668
8.02569e-05
0.00023318
8.5274e-05
0.000185371
9.81727e-05
4.19383e-05
4.03307e-05
8.54441e-05
9.82732e-05
4.19363e-05
4.03313e-05
8.54754e-05
2.18727e-05
2.28674e-05
2.19635e-05
2.28572e-05
0.000229599
3.98518e-05
3.985e-05
4.27574e-05
4.26966e-05
2.45063e-05
2.33312e-05
2.45015e-05
2.33249e-05
2.48057e-05
2.54871e-05
2.47906e-05
2.5476e-05
3.90582e-05
3.90445e-05
0.000219415
3.64336e-05
3.64691e-05
2.59663e-05
2.56366e-05
2.59593e-05
2.56263e-05
0.000216578
3.37766e-05
3.38286e-05
3.57002e-05
3.5713e-05
7.25753e-05
4.24115e-05
8.12899e-05
4.37574e-05
0.000167274
7.89048e-05
0.000232056
0.000225986
0.000179975
7.39598e-05
0.000231342
0.000167227
7.88466e-05
0.000232048
0.000225971
0.000179896
7.40159e-05
0.000231335
6.96855e-05
4.52408e-05
4.41417e-05
6.32939e-05
6.96534e-05
4.52411e-05
4.41398e-05
6.32527e-05
0.000162735
0.000224146
6.81814e-05
0.000229604
7.27362e-05
0.000230525
0.000151748
0.000162672
0.000224133
6.82468e-05
0.000229595
7.26631e-05
0.000230517
0.000151696
3.89902e-05
3.90228e-05
0.00021941
3.64454e-05
3.6417e-05
2.48069e-05
2.54886e-05
2.59653e-05
2.56352e-05
0.000216571
3.38102e-05
3.37501e-05
3.57058e-05
3.56703e-05
2.59675e-05
2.56377e-05
0.000167302
7.88698e-05
0.000232057
0.000225985
0.000179991
7.40296e-05
0.000231344
7.2614e-05
4.24086e-05
8.13465e-05
4.37545e-05
0.000167306
0.000232056
7.88449e-05
0.000225971
0.000179995
0.000231344
7.39238e-05
6.96959e-05
4.52346e-05
4.41342e-05
6.33054e-05
0.000162764
0.000224146
6.81999e-05
0.000229609
7.26686e-05
0.000230529
0.000151778
6.96946e-05
4.52369e-05
4.41369e-05
6.3289e-05
0.000162765
0.000224132
0.000229607
6.81719e-05
0.000230527
7.27149e-05
0.000151762
7.26073e-05
4.24436e-05
8.13557e-05
4.37788e-05
0.000167268
0.000232059
7.88947e-05
0.000225997
0.000180008
0.000231345
7.39885e-05
7.25908e-05
4.24105e-05
8.13441e-05
4.37546e-05
0.000162734
0.000224123
6.77591e-05
0.000229599
7.24343e-05
0.000230525
0.000151743
6.96883e-05
4.52527e-05
4.41584e-05
6.32716e-05
0.000162718
0.00022415
0.000229601
6.8152e-05
0.000230525
7.2613e-05
0.000151728
6.96687e-05
4.52368e-05
4.41366e-05
6.32673e-05
3.89407e-05
3.8974e-05
0.000219388
3.63763e-05
3.64241e-05
2.48082e-05
2.54873e-05
2.59639e-05
2.56342e-05
0.000216551
3.3765e-05
3.37832e-05
3.56735e-05
3.56739e-05
2.59661e-05
2.56368e-05
0.000167257
0.000232058
7.89254e-05
0.000226001
0.000179968
0.000231344
7.4067e-05
7.25705e-05
4.24102e-05
8.12964e-05
4.37561e-05
7.25922e-05
4.24068e-05
8.13146e-05
4.37537e-05
0.000162697
0.000224147
0.000229602
6.825e-05
0.000230525
7.26718e-05
0.000151727
0.000162731
0.000224163
0.000229608
6.82816e-05
0.000230528
7.27161e-05
0.000151778
6.96553e-05
4.52396e-05
4.41383e-05
6.32687e-05
6.96737e-05
4.52366e-05
4.41358e-05
6.329e-05
2.47957e-05
2.54784e-05
2.47917e-05
2.54762e-05
0.000216591
3.35701e-05
3.38239e-05
3.54763e-05
3.57295e-05
2.59611e-05
2.56291e-05
2.59596e-05
2.56269e-05
2.60227e-05
2.61228e-05
2.6016e-05
2.61182e-05
3.32151e-05
3.32586e-05
0.000204428
3.19639e-05
3.20187e-05
2.60906e-05
2.61219e-05
2.60874e-05
2.61178e-05
0.000201154
3.08872e-05
3.09316e-05
3.15779e-05
3.16245e-05
5.63332e-05
4.55436e-05
6.1204e-05
4.64207e-05
0.000138493
6.70437e-05
0.000228585
0.000218072
0.000147993
6.30993e-05
0.000227471
0.000138457
6.69838e-05
0.000228574
0.000218063
0.000147943
6.31489e-05
0.000227458
5.48539e-05
4.73311e-05
4.66516e-05
5.10622e-05
5.48291e-05
4.73314e-05
4.66514e-05
5.10776e-05
0.000135398
0.000215918
5.88115e-05
0.00022499
6.20569e-05
0.000226271
0.000127168
0.000135356
0.000215907
5.88064e-05
0.000224975
6.20196e-05
0.000226257
0.000127147
3.32389e-05
3.31866e-05
0.000204405
3.19782e-05
3.19277e-05
2.60234e-05
2.61231e-05
2.60897e-05
2.61211e-05
0.000201117
3.08887e-05
3.0852e-05
3.1587e-05
3.15441e-05
2.60907e-05
2.61223e-05
0.000138566
6.70459e-05
0.000228592
0.000218082
0.000148021
6.31888e-05
0.000227477
5.63149e-05
4.55395e-05
6.12068e-05
4.64159e-05
0.000138514
0.000228586
6.70332e-05
0.000218061
0.000147984
0.00022747
6.31605e-05
5.48579e-05
4.73263e-05
4.6646e-05
5.10929e-05
0.000135385
0.00021593
5.88386e-05
0.000224997
6.20468e-05
0.00022628
0.000127233
5.48504e-05
4.73264e-05
4.66463e-05
5.10582e-05
0.000135342
0.000215904
0.000224984
5.88083e-05
0.000226268
6.20095e-05
0.000127199
5.63309e-05
4.55533e-05
6.12085e-05
4.64275e-05
0.000138471
0.000228579
6.68789e-05
0.000218042
0.000147957
0.000227463
6.30427e-05
5.63508e-05
4.554e-05
6.12097e-05
4.64194e-05
0.000135293
0.000215806
5.83725e-05
0.000224949
6.16379e-05
0.000226239
0.000127136
5.48187e-05
4.73381e-05
4.66577e-05
5.10597e-05
0.000135382
0.000215881
0.00022498
5.87103e-05
0.000226262
6.18984e-05
0.000127161
5.48447e-05
4.73348e-05
4.6651e-05
5.109e-05
3.32085e-05
3.32154e-05
0.000204398
3.19545e-05
3.19721e-05
2.60222e-05
2.61218e-05
2.60874e-05
2.61189e-05
0.000201118
3.08774e-05
3.09065e-05
3.15635e-05
3.15871e-05
2.60781e-05
2.61217e-05
0.000138547
0.00022859
6.70255e-05
0.000218092
0.000147967
0.000227478
6.3186e-05
5.63212e-05
4.55418e-05
6.11917e-05
4.64183e-05
5.63459e-05
4.55387e-05
6.1214e-05
4.64154e-05
0.000135358
0.000215922
0.000224988
5.87538e-05
0.000226269
6.20539e-05
0.000127169
0.000135384
0.000215939
0.000225
5.88492e-05
0.000226279
6.20544e-05
0.000127184
5.48564e-05
4.73285e-05
4.66492e-05
5.10684e-05
5.48652e-05
4.73267e-05
4.6646e-05
5.10768e-05
2.60176e-05
2.61186e-05
2.60164e-05
2.61182e-05
0.000201125
3.08308e-05
3.09086e-05
3.14773e-05
3.16098e-05
2.60876e-05
2.61181e-05
2.60871e-05
2.61178e-05
2.60434e-05
2.59405e-05
2.60404e-05
2.59386e-05
3.06405e-05
3.06832e-05
0.000189629
3.0339e-05
3.03671e-05
2.57403e-05
2.58805e-05
2.57387e-05
2.58778e-05
0.000186419
3.02252e-05
3.02436e-05
3.02348e-05
3.02747e-05
4.69947e-05
4.74994e-05
4.99656e-05
4.80117e-05
0.000117511
5.78567e-05
0.000223638
0.000209241
0.000124604
5.5219e-05
0.000222221
0.000117497
5.78315e-05
0.000223623
0.000209219
0.000124589
5.52107e-05
0.000222206
4.61972e-05
4.85045e-05
4.81309e-05
4.3915e-05
4.6227e-05
4.85025e-05
4.81286e-05
4.38643e-05
0.000115395
0.000206984
5.22648e-05
0.000219231
5.43986e-05
0.000220751
0.000109256
0.000115383
0.000206959
5.22698e-05
0.000219216
5.43717e-05
0.000220736
0.000109243
3.06313e-05
3.061e-05
0.000189572
3.03311e-05
3.03273e-05
2.60433e-05
2.59407e-05
2.57386e-05
2.58791e-05
0.000186339
3.02031e-05
3.02114e-05
3.02269e-05
3.02023e-05
2.57404e-05
2.58795e-05
0.000117515
5.78583e-05
0.000223647
0.000209258
0.000124584
5.52432e-05
0.000222229
4.7041e-05
4.74946e-05
4.99653e-05
4.80073e-05
0.0001175
0.000223631
5.78478e-05
0.000209221
0.000124551
0.000222213
5.51399e-05
4.62397e-05
4.85007e-05
4.81258e-05
4.38673e-05
0.000115384
0.000207002
5.22798e-05
0.000219236
5.44048e-05
0.000220759
0.000109257
4.61919e-05
4.8499e-05
4.81249e-05
4.38768e-05
0.000115368
0.000206963
0.000219222
5.22405e-05
0.000220742
5.4423e-05
0.000109255
4.69802e-05
4.75072e-05
4.99477e-05
4.80214e-05
0.000117496
0.000223627
5.77249e-05
0.000209199
0.0001246
0.000222209
5.51203e-05
4.70047e-05
4.75041e-05
4.99757e-05
4.8019e-05
0.000115319
0.000206828
5.20112e-05
0.000219164
5.41423e-05
0.000220687
0.000109187
4.62011e-05
4.85127e-05
4.81385e-05
4.38408e-05
0.000115379
0.000206941
0.000219214
5.22032e-05
0.000220736
5.43115e-05
0.000109241
4.62374e-05
4.851e-05
4.81363e-05
4.38648e-05
3.06302e-05
3.06448e-05
0.000189601
3.03268e-05
3.03501e-05
2.60504e-05
2.594e-05
2.57369e-05
2.58762e-05
0.000186376
3.02204e-05
3.02116e-05
3.02298e-05
3.02498e-05
2.57387e-05
2.58796e-05
0.000117529
0.000223649
5.78584e-05
0.000209267
0.000124623
0.000222234
5.52316e-05
4.70518e-05
4.74974e-05
4.99849e-05
4.80099e-05
4.70614e-05
4.74951e-05
4.9986e-05
4.80087e-05
0.000115402
0.000206989
0.000219236
5.21859e-05
0.000220756
5.44294e-05
0.000109261
0.000115406
0.000207011
0.000219244
5.22102e-05
0.000220764
5.4429e-05
0.000109278
4.62035e-05
4.8501e-05
4.81276e-05
4.39135e-05
4.62037e-05
4.85004e-05
4.81262e-05
4.39161e-05
2.60409e-05
2.59384e-05
2.60401e-05
2.59376e-05
0.000186409
3.02053e-05
3.02171e-05
3.02536e-05
3.02421e-05
2.57383e-05
2.58789e-05
2.57375e-05
2.58778e-05
2.56723e-05
2.55206e-05
2.56703e-05
2.55192e-05
3.02273e-05
3.02544e-05
0.000176234
3.0436e-05
3.04463e-05
2.5302e-05
2.54512e-05
2.53004e-05
2.54495e-05
0.000173255
3.08841e-05
3.08808e-05
3.05334e-05
3.05457e-05
4.14385e-05
4.85792e-05
4.33008e-05
4.88423e-05
0.000102093
5.15894e-05
0.000217674
0.000200224
0.000107443
4.98757e-05
0.000216081
0.000102082
5.15542e-05
0.000217658
0.000200193
0.000107432
4.98858e-05
0.000216065
4.10272e-05
4.90647e-05
4.88905e-05
3.95783e-05
4.1034e-05
4.9064e-05
4.88885e-05
3.95771e-05
0.000100568
0.000197995
4.79659e-05
0.000212822
4.93053e-05