/*--------------------------------*- C++ -*----------------------------------*\
| =========                 |                                                 |
| \\      /  F ield         | OpenFOAM: The Open Source CFD Toolbox           |
|  \\    /   O peration     | Version:  v1906                                 |
|   \\  /    A nd           | Web:      www.OpenFOAM.com                      |
|    \\/     M anipulation  |                                                 |
\*---------------------------------------------------------------------------*/
FoamFile
{
    version     2.0;
    format      ascii;
    class       volScalarField;
    location    "500";
    object      epsilon;
}
// * * * * * * * * * * * * * * * * * * * * * * * * * * * * * * * * * * * * * //

dimensions      [0 2 -3 0 0 0 0];


internalField   nonuniform List<scalar> 
43248
(
1.15338e-06
8.68306e-07
8.68814e-07
1.154e-06
8.68028e-07
8.688e-07
8.68624e-07
8.68933e-07
1.15424e-06
8.68665e-07
8.68794e-07
1.15463e-06
3.22783e-07
3.22924e-07
3.22944e-07
3.2301e-07
1.84334e-05
1.84348e-05
5.46127e-06
5.46249e-06
4.0908e-06
9.16384e-06
4.09327e-06
4.09092e-06
9.16444e-06
9.15712e-06
4.09346e-06
2.10415e-06
3.47543e-06
5.62306e-07
5.56367e-07
2.10997e-06
2.10427e-06
8.62826e-07
3.47751e-06
5.62418e-07
3.47431e-06
5.56475e-07
2.11013e-06
1.8432e-05
1.84232e-05
1.15001e-06
5.46497e-06
5.4631e-06
5.46244e-06
5.46077e-06
1.84297e-05
1.84203e-05
9.16543e-06
4.09357e-06
3.47579e-06
5.62359e-07
2.11004e-06
9.16367e-06
4.09358e-06
5.62411e-07
3.47767e-06
2.11009e-06
2.10422e-06
8.62629e-07
3.47712e-06
5.62399e-07
3.47395e-06
5.56458e-07
2.11019e-06
4.09086e-06
9.16439e-06
9.15732e-06
4.09361e-06
2.1041e-06
8.62734e-07
5.62445e-07
3.47678e-06
5.56504e-07
3.47287e-06
2.11009e-06
4.09072e-06
9.16446e-06
9.15796e-06
4.09345e-06
1.84309e-05
5.46515e-06
5.46346e-06
1.84299e-05
2.10411e-06
5.62421e-07
3.4773e-06
5.56467e-07
2.11011e-06
2.10416e-06
8.62599e-07
5.62477e-07
3.47727e-06
5.56539e-07
3.4734e-06
2.1101e-06
4.09034e-06
9.16371e-06
4.09368e-06
4.09044e-06
9.16551e-06
9.1591e-06
4.09364e-06
1.1501e-06
5.46321e-06
5.46501e-06
5.45956e-06
5.4614e-06
1.84337e-05
1.84241e-05
1.84355e-05
1.84258e-05
1.84281e-05
1.84299e-05
4.53778e-06
2.81547e-06
5.46012e-06
9.50476e-06
9.50138e-06
2.81157e-06
4.54378e-06
4.54534e-06
2.8143e-06
5.46202e-06
9.50751e-06
9.50556e-06
2.81357e-06
4.54493e-06
9.72837e-06
2.17356e-05
2.17332e-05
2.17341e-05
2.17328e-05
9.73031e-06
1.22034e-05
1.08247e-05
4.74281e-06
4.09145e-06
1.22008e-05
1.0827e-05
4.74338e-06
2.20555e-05
9.16097e-06
7.08587e-06
7.0859e-06
2.20613e-05
1.22043e-05
4.09266e-06
1.08302e-05
4.74494e-06
1.08278e-05
4.74439e-06
1.22069e-05
1.22036e-05
1.08249e-05
4.74305e-06
4.09163e-06
1.22011e-05
1.08271e-05
4.74405e-06
2.20551e-05
9.1613e-06
7.08827e-06
7.08833e-06
2.20603e-05
2.20556e-05
7.08762e-06
9.15992e-06
2.20506e-05
7.08765e-06
1.22044e-05
4.0928e-06
1.08303e-05
4.7455e-06
1.0828e-05
4.74463e-06
1.2207e-05
1.84274e-05
1.84268e-05
9.73633e-06
2.17141e-05
2.17147e-05
9.73671e-06
2.17191e-05
2.17197e-05
4.54524e-06
2.81564e-06
5.46454e-06
9.50836e-06
2.81456e-06
9.50376e-06
4.54524e-06
4.53928e-06
2.81443e-06
5.46284e-06
9.50371e-06
9.49893e-06
2.81336e-06
4.53931e-06
4.5447e-06
9.49918e-06
2.81237e-06
5.46303e-06
2.81366e-06
4.54461e-06
9.50191e-06
4.53875e-06
9.49431e-06
2.8112e-06
5.4612e-06
4.53862e-06
9.49702e-06
2.81247e-06
9.7363e-06
2.1739e-05
2.17398e-05
2.17235e-05
2.17242e-05
9.73481e-06
1.84247e-05
1.8424e-05
2.20555e-05
9.16266e-06
7.08746e-06
7.08719e-06
2.20609e-05
1.22045e-05
4.09241e-06
4.74528e-06
1.08307e-05
4.74424e-06
1.08284e-05
1.22071e-05
2.20548e-05
9.16079e-06
7.08692e-06
7.08705e-06
2.20603e-05
1.22046e-05
4.09243e-06
1.08305e-05
4.74525e-06
1.08282e-05
4.74454e-06
1.22072e-05
1.22037e-05
4.74279e-06
1.08253e-05
4.09161e-06
1.22011e-05
4.74387e-06
1.08276e-05
2.20546e-05
9.16142e-06
7.08771e-06
7.08767e-06
2.20596e-05
2.20553e-05
7.08685e-06
9.16009e-06
2.20504e-05
7.08689e-06
1.22045e-05
4.09288e-06
4.74555e-06
1.08308e-05
4.74452e-06
1.08285e-05
1.2207e-05
1.2204e-05
1.08251e-05
4.74243e-06
4.09143e-06
1.22014e-05
1.08275e-05
4.74351e-06
2.20561e-05
9.16193e-06
7.08651e-06
7.08624e-06
2.2061e-05
2.20567e-05
7.08481e-06
9.16079e-06
2.20515e-05
7.08503e-06
1.22049e-05
4.09273e-06
1.08307e-05
4.74531e-06
1.08284e-05
4.7442e-06
1.22074e-05
1.84267e-05
4.54689e-06
2.81661e-06
5.46475e-06
9.50485e-06
2.81543e-06
9.5011e-06
4.54699e-06
4.541e-06
2.81555e-06
5.46288e-06
9.50047e-06
9.49676e-06
2.81432e-06
4.54108e-06
9.73748e-06
2.17257e-05
2.17261e-05
2.17163e-05
2.17167e-05
9.73708e-06
1.8426e-05
1.22039e-05
4.74237e-06
1.08254e-05
4.09155e-06
1.22014e-05
4.74351e-06
1.08277e-05
2.20554e-05
9.161e-06
7.08655e-06
7.08643e-06
2.20603e-05
2.20562e-05
7.08545e-06
1.22048e-05
4.09246e-06
4.74541e-06
1.08309e-05
4.74423e-06
1.08286e-05
1.22073e-05
1.22039e-05
4.74278e-06
1.08255e-05
4.09155e-06
1.22013e-05
4.74345e-06
1.08278e-05
2.20558e-05
9.163e-06
7.08809e-06
7.08803e-06
2.20609e-05
2.20568e-05
7.08657e-06
9.16188e-06
2.20515e-05
7.08659e-06
1.22047e-05
4.09251e-06
4.74528e-06
1.0831e-05
4.7446e-06
1.08287e-05
1.22072e-05
9.73634e-06
2.17279e-05
2.17272e-05
9.73524e-06
2.1731e-05
2.17303e-05
4.54318e-06
2.81661e-06
5.46236e-06
9.50465e-06
2.81468e-06
9.50188e-06
4.54406e-06
4.54909e-06
2.81779e-06
5.46415e-06
9.50947e-06
2.8158e-06
9.50671e-06
4.55001e-06
4.54088e-06
9.49725e-06
2.81087e-06
5.46035e-06
4.53972e-06
2.81295e-06
9.50066e-06
4.54685e-06
9.50205e-06
2.812e-06
5.46218e-06
4.54566e-06
2.81415e-06
9.50547e-06
9.73931e-06
2.17323e-05
2.17315e-05
2.17296e-05
2.17288e-05
9.74021e-06
1.84295e-05
1.84288e-05
1.84313e-05
1.84306e-05
2.67048e-06
1.15397e-06
1.77296e-06
1.77216e-06
1.77143e-06
1.77209e-06
2.67248e-06
2.67067e-06
1.1548e-06
1.77302e-06
1.77287e-06
1.77302e-06
1.77286e-06
2.67084e-06
2.67225e-06
1.15495e-06
1.77378e-06
1.77369e-06
1.7737e-06
1.77359e-06
2.67246e-06
2.67381e-06
1.1553e-06
1.77438e-06
1.77461e-06
1.77396e-06
1.77421e-06
2.67465e-06
1.68205e-07
1.68185e-07
1.66054e-07
7.99962e-08
8.05543e-08
3.1895e-07
1.68217e-07
1.68178e-07
1.6607e-07
1.66035e-07
7.99963e-08
8.05516e-08
1.68244e-07
1.68215e-07
1.66081e-07
8.00178e-08
8.05704e-08
3.18991e-07
1.68259e-07
1.68232e-07
1.66109e-07
1.66086e-07
8.00164e-08
8.05735e-08
1.41453e-06
2.36314e-06
1.27754e-06
2.10635e-06
1.41509e-06
2.36504e-06
1.27766e-06
1.62098e-06
2.03593e-06
3.47472e-06
2.86126e-06
2.03502e-06
2.86075e-06
1.62067e-06
1.42023e-06
2.10783e-06
2.36831e-06
1.28302e-06
2.36645e-06
1.28291e-06
1.41967e-06
1.41486e-06
2.36363e-06
1.27763e-06
2.1065e-06
1.41539e-06
2.36568e-06
1.27776e-06
1.62181e-06
2.03729e-06
3.47703e-06
2.86283e-06
2.86233e-06
2.03689e-06
1.62147e-06
1.61685e-06
2.8594e-06
2.03308e-06
3.47496e-06
1.61713e-06
2.86006e-06
2.03364e-06
1.42063e-06
2.10799e-06
2.369e-06
1.28314e-06
2.36712e-06
1.28304e-06
1.42006e-06
2.66938e-06
1.14926e-06
1.76971e-06
1.76955e-06
1.76977e-06
2.6692e-06
1.76963e-06
1.62115e-06
2.03594e-06
3.47527e-06
2.86176e-06
2.03545e-06
2.86119e-06
1.62079e-06
1.42037e-06
2.10788e-06
2.3685e-06
1.28309e-06
2.36661e-06
1.28299e-06
1.41979e-06
1.62149e-06
2.03747e-06
3.47706e-06
2.86242e-06
2.86173e-06
2.03691e-06
1.62121e-06
1.4204e-06
2.10788e-06
1.2831e-06
2.3688e-06
1.28298e-06
2.36676e-06
1.41987e-06
1.41478e-06
2.36348e-06
1.27762e-06
2.10647e-06
1.41533e-06
2.36553e-06
1.27776e-06
1.62167e-06
2.03693e-06
3.47668e-06
2.8626e-06
2.0365e-06
2.8621e-06
1.62132e-06
1.61669e-06
2.85912e-06
2.0327e-06
3.47456e-06
1.61698e-06
2.03327e-06
2.85975e-06
1.42057e-06
2.10799e-06
2.36895e-06
1.28316e-06
2.36701e-06
1.28304e-06
1.42e-06
1.41468e-06
1.27758e-06
2.36313e-06
2.10634e-06
1.41522e-06
1.27772e-06
2.36513e-06
1.62145e-06
2.0371e-06
3.47598e-06
2.86203e-06
2.86136e-06
2.03639e-06
1.62116e-06
1.61646e-06
2.8582e-06
2.03214e-06
3.47361e-06
1.61676e-06
2.85884e-06
2.03282e-06
1.42042e-06
2.10786e-06
1.28311e-06
2.36865e-06
1.28298e-06
2.36663e-06
1.41987e-06
1.41459e-06
1.27758e-06
2.36309e-06
2.10631e-06
1.41513e-06
1.27772e-06
2.36517e-06
1.62144e-06
2.0372e-06
3.47662e-06
2.86234e-06
2.03664e-06
2.86155e-06
1.62115e-06
1.61635e-06
2.85913e-06
1.42041e-06
2.10793e-06
1.28314e-06
2.3688e-06
1.28301e-06
2.36673e-06
1.41988e-06
1.41481e-06
1.27764e-06
2.36328e-06
2.10632e-06
1.41536e-06
1.27778e-06
2.36525e-06
1.62164e-06
2.03745e-06
3.47648e-06
2.86247e-06
2.86182e-06
2.03677e-06
1.62134e-06
1.61664e-06
2.85865e-06
2.03253e-06
3.47412e-06
1.61696e-06
2.85926e-06
2.03319e-06
1.42056e-06
2.10793e-06
1.28317e-06
2.36879e-06
1.28304e-06
2.36677e-06
1.42e-06
2.67084e-06
1.14945e-06
1.76938e-06
1.76963e-06
2.6697e-06
1.76987e-06
1.77011e-06
1.33704e-07
2.29056e-07
2.29411e-07
3.64861e-07
3.49361e-07
2.27957e-07
2.2806e-07
3.48787e-07
2.28026e-07
2.27879e-07
2.27979e-07
2.30035e-07
3.48877e-07
2.27896e-07
2.29738e-07
3.58365e-07
3.55315e-07
3.75138e-07
2.30451e-07
2.29281e-07
2.38007e-07
2.38574e-07
3.50474e-07
3.77373e-07
2.30479e-07
2.29374e-07
2.37808e-07
2.37701e-07
2.32383e-07
2.38507e-07
2.37825e-07
3.51879e-07
3.73264e-07
2.32159e-07
2.37731e-07
2.38079e-07
3.75297e-07
1.34356e-07
1.34283e-07
1.34276e-07
1.34596e-07
3.68016e-06
8.8962e-06
3.65011e-06
8.90918e-06
1.84648e-05
1.84573e-05
3.67575e-06
8.92269e-06
3.64664e-06
8.91952e-06
1.33555e-07
1.33527e-07
1.33884e-07
1.31942e-07
1.32103e-07
1.3204e-07
1.3197e-07
1.15727e-06
2.79643e-06
1.5865e-07
2.31507e-07
1.13367e-06
2.8153e-06
1.58748e-07
1.84595e-05
1.84457e-05
1.15663e-06
1.58528e-07
2.79882e-06
2.31392e-07
1.12927e-06
1.58668e-07
2.82085e-06
5.13824e-06
5.1388e-06
3.69556e-07
5.1449e-06
5.14558e-06
1.84707e-05
1.84775e-05
1.84807e-05
1.84843e-05
3.43382e-07
5.12778e-06
5.13078e-06
5.11057e-06
5.11359e-06
3.60104e-06
8.89634e-06
8.90857e-06
3.63821e-06
3.60714e-06
8.91227e-06
8.91686e-06
3.64303e-06
1.08768e-06
2.25679e-07
2.78119e-06
1.58412e-07
2.75667e-06
1.58375e-07
1.11642e-06
1.09223e-06
2.2749e-07
2.78832e-06
1.58632e-07
2.76805e-06
1.58633e-07
1.1204e-06
1.84715e-05
1.84923e-05
3.52519e-07
5.12506e-06
5.12251e-06
5.11104e-06
5.11018e-06
1.84749e-05
1.84889e-05
3.6045e-06
8.9227e-06
8.91468e-06
3.63677e-06
1.09094e-06
2.25935e-07
2.78305e-06
1.58488e-07
2.76124e-06
1.58483e-07
1.11649e-06
3.60118e-06
8.90366e-06
8.92566e-06
3.63723e-06
1.0881e-06
2.26649e-07
1.58397e-07
2.78463e-06
1.58397e-07
2.75891e-06
1.11596e-06
1.09515e-06
2.27463e-07
2.78725e-06
1.58619e-07
2.76901e-06
1.58657e-07
1.12093e-06
3.61176e-06
8.92727e-06
8.89886e-06
3.64242e-06
1.09377e-06
2.27239e-07
1.58688e-07
2.78772e-06
1.58671e-07
2.75627e-06
1.12066e-06
3.61118e-06
8.91054e-06
8.9028e-06
3.64294e-06
1.84724e-05
1.84928e-05
3.48233e-07
5.12981e-06
5.12716e-06
5.11245e-06
5.11e-06
1.84741e-05
1.84906e-05
1.09077e-06
2.26681e-07
1.5848e-07
2.7849e-06
1.58478e-07
2.76082e-06
1.11572e-06
1.09021e-06
2.26963e-07
1.58509e-07
2.78517e-06
1.5848e-07
2.75494e-06
1.11444e-06
3.60295e-06
8.9193e-06
8.91685e-06
3.63528e-06
3.60299e-06
8.91383e-06
8.89797e-06
3.63231e-06
3.46811e-07
5.13308e-06
5.1342e-06
5.11599e-06
5.11851e-06
1.84766e-05
1.84918e-05
1.84756e-05
1.84913e-05
1.84664e-05
1.84523e-05
1.8475e-05
1.84549e-05
5.13575e-06
5.13762e-06
3.63236e-07
5.14831e-06
5.15066e-06
1.84405e-05
1.8443e-05
1.84395e-05
1.84437e-05
3.6908e-07
5.16155e-06
5.16177e-06
5.15276e-06
5.15412e-06
3.67987e-06
8.91237e-06
3.65398e-06
8.92496e-06
1.15735e-06
2.79574e-06
1.58524e-07
2.33088e-07
1.13071e-06
2.82354e-06
1.58746e-07
1.15815e-06
2.79816e-06
1.58676e-07
2.31777e-07
1.13398e-06
2.81723e-06
1.5879e-07
3.6903e-06
8.91373e-06
8.91091e-06
3.71848e-06
3.68885e-06
8.92494e-06
8.92675e-06
3.71534e-06
1.17153e-06
2.35528e-07
2.85649e-06
1.59387e-07
2.83674e-06
1.59027e-07
1.19864e-06
1.17098e-06
2.35009e-07
2.85322e-06
1.59367e-07
2.82878e-06
1.59017e-07
1.19663e-06
5.13047e-06
5.12859e-06
3.55517e-07
5.14575e-06
5.1431e-06
1.84678e-05
1.84541e-05
1.84389e-05
1.84496e-05
3.63222e-07
5.16612e-06
5.16364e-06
5.15204e-06
5.15003e-06
1.84375e-05
1.84448e-05
1.15473e-06
2.79633e-06
1.58536e-07
2.32935e-07
1.12972e-06
2.8229e-06
1.58656e-07
3.67627e-06
8.9e-06
3.64793e-06
8.90575e-06
1.15502e-06
1.58445e-07
2.79888e-06
2.31317e-07
1.12991e-06
1.58572e-07
2.81996e-06
3.68549e-06
8.91429e-06
8.91679e-06
3.71676e-06
1.16842e-06
2.35433e-07
2.85532e-06
1.59297e-07
2.83555e-06
1.58896e-07
1.19622e-06
3.68579e-06
8.91776e-06
8.91175e-06
3.71633e-06
1.16832e-06
2.34051e-07
1.59305e-07
2.84573e-06
1.58841e-07
2.82875e-06
1.19571e-06
3.67764e-06
8.93001e-06
3.65199e-06
8.92835e-06
1.1574e-06
1.58741e-07
2.80245e-06
2.34243e-07
1.13378e-06
1.58848e-07
2.82432e-06
3.67709e-06
8.91535e-06
3.6526e-06
8.92654e-06
1.17015e-06
2.34847e-07
2.85317e-06
1.5939e-07
2.82736e-06
1.58962e-07
1.19688e-06
3.68745e-06
8.91537e-06
8.92292e-06
3.71728e-06
1.17003e-06
2.35892e-07
1.59307e-07
2.85182e-06
1.59003e-07
2.83454e-06
1.19623e-06
3.68661e-06
8.92402e-06
8.92694e-06
3.71592e-06
5.13598e-06
5.13311e-06
3.56377e-07
5.14359e-06
5.14202e-06
1.84614e-05
1.84432e-05
1.84439e-05
1.84424e-05
3.62095e-07
5.15893e-06
5.15905e-06
5.14574e-06
5.14447e-06
1.84413e-05
1.84384e-05
1.15579e-06
1.58593e-07
2.7997e-06
2.34175e-07
1.12763e-06
1.58762e-07
2.82381e-06
3.68037e-06
8.91878e-06
3.64576e-06
8.91477e-06
3.67937e-06
8.91661e-06
3.64301e-06
8.91942e-06
1.17151e-06
2.34133e-07
1.59438e-07
2.84712e-06
1.58974e-07
2.83017e-06
1.19985e-06
1.17178e-06
2.36008e-07
1.59559e-07
2.85643e-06
1.59095e-07
2.83598e-06
1.20262e-06
3.69108e-06
8.91401e-06
8.91312e-06
3.72302e-06
3.69183e-06
8.90631e-06
8.91766e-06
3.72703e-06
1.84683e-05
1.84604e-05
1.84673e-05
1.84608e-05
3.73035e-07
5.15419e-06
5.15744e-06
5.14761e-06
5.14882e-06
1.84401e-05
1.8454e-05
1.84403e-05
1.84539e-05
1.21155e-05
3.67083e-06
1.06705e-05
4.48735e-06
1.06625e-05
4.47945e-06
1.21245e-05
2.24095e-05
7.20823e-06
8.89859e-06
2.2404e-05
7.20852e-06
1.21116e-05
3.66011e-06
1.06559e-05
4.46437e-06
1.21092e-05
1.0659e-05
4.47273e-06
2.24088e-05
7.20908e-06
8.90334e-06
7.20918e-06
2.24146e-05
1.84644e-05
1.8459e-05
1.21292e-05
3.66602e-06
4.48142e-06
1.06688e-05
4.47337e-06
1.06669e-05
1.21289e-05
2.2457e-05
7.20675e-06
8.92253e-06
2.2462e-05
7.20527e-06
1.2132e-05
3.65637e-06
4.46105e-06
1.0666e-05
1.21324e-05
4.46818e-06
1.06667e-05
2.24392e-05
7.20398e-06
8.92075e-06
7.20441e-06
2.24336e-05
1.84558e-05
1.84462e-05
9.78977e-06
2.1973e-05
2.19717e-05
2.18217e-05
2.18211e-05
9.7561e-06
3.99044e-06
1.94968e-06
9.00485e-06
5.14036e-06
3.99695e-06
1.95594e-06
9.01665e-06
3.99634e-06
1.95041e-06
9.01071e-06
5.14084e-06
4.00311e-06
1.95656e-06
9.02291e-06
9.81712e-06
2.16474e-05
2.16478e-05
9.82483e-06
2.16997e-05
2.16996e-05
3.97983e-06
9.05526e-06
5.14371e-06
1.96273e-06
1.96076e-06
9.03304e-06
3.96804e-06
3.98558e-06
9.06113e-06
5.1441e-06
1.96334e-06
1.96131e-06
9.03938e-06
3.97383e-06
1.84703e-05
1.84756e-05
1.84805e-05
1.8484e-05
9.689e-06
2.20581e-05
2.20584e-05
9.68775e-06
2.20058e-05
2.20075e-05
3.92056e-06
1.90519e-06
5.12344e-06
9.02351e-06
9.02684e-06
1.89313e-06
3.93263e-06
3.92803e-06
1.90718e-06
5.1257e-06
9.03074e-06
9.03331e-06
1.89539e-06
3.94024e-06
3.90481e-06
9.03944e-06
1.86783e-06
5.11472e-06
3.89255e-06
9.03392e-06
1.87778e-06
3.9125e-06
9.04381e-06
1.87012e-06
5.11839e-06
3.90008e-06
9.03968e-06
1.87999e-06
9.69607e-06
2.18809e-05
2.1883e-05
2.19277e-05
2.19288e-05
9.70454e-06
1.21183e-05
1.06605e-05
4.42846e-06
3.61351e-06
1.21224e-05
1.06589e-05
4.43834e-06
2.24124e-05
8.89764e-06
7.20696e-06
2.24105e-05
7.20496e-06
2.24403e-05
7.1994e-06
8.9027e-06
2.24558e-05
7.2023e-06
1.21116e-05
3.62698e-06
1.06559e-05
4.45659e-06
1.21103e-05
1.0656e-05
4.44725e-06
1.21336e-05
1.06649e-05
4.44322e-06
3.6195e-06
1.2137e-05
1.06641e-05
4.4531e-06
2.24262e-05
8.91265e-06
7.22006e-06
7.22048e-06
2.24225e-05
2.24547e-05
7.21914e-06
8.91531e-06
2.24673e-05
7.22027e-06
1.21271e-05
3.63266e-06
1.06615e-05
4.46827e-06
1.06617e-05
4.4608e-06
1.21257e-05
1.84738e-05
1.84869e-05
9.66084e-06
2.24584e-05
2.24573e-05
9.72037e-06
2.2479e-05
2.24784e-05
3.85229e-06
1.8768e-06
5.1207e-06
9.11755e-06
1.87659e-06
9.13729e-06
3.84939e-06
3.84561e-06
1.87519e-06
5.11891e-06
9.11259e-06
9.13091e-06
1.87501e-06
3.84276e-06
3.86309e-06
9.15764e-06
1.88196e-06
5.11501e-06
1.87775e-06
3.88306e-06
9.15425e-06
3.85637e-06
9.14955e-06
1.88043e-06
5.11289e-06
3.87615e-06
9.14641e-06
1.87618e-06
9.61007e-06
2.23947e-05
2.23958e-05
2.24594e-05
2.24595e-05
9.57648e-06
1.84764e-05
1.84858e-05
1.21322e-05
4.43877e-06
1.0662e-05
3.61583e-06
1.2129e-05
4.44592e-06
1.06646e-05
2.24734e-05
8.92062e-06
7.20871e-06
2.24736e-05
7.21086e-06
2.24784e-05
7.21568e-06
8.91872e-06
2.24744e-05
7.21348e-06
1.21325e-05
3.62656e-06
4.45673e-06
1.06662e-05
1.21336e-05
4.45019e-06
1.0665e-05
1.21283e-05
1.06628e-05
4.42963e-06
3.61374e-06
1.21324e-05
1.06628e-05
4.43915e-06
2.24189e-05
8.90891e-06
7.2057e-06
7.2045e-06
2.24059e-05
2.2464e-05
7.20011e-06
8.91837e-06
2.24833e-05
7.20189e-06
1.21194e-05
3.6263e-06
1.06611e-05
4.45663e-06
1.06615e-05
4.44866e-06
1.2116e-05
1.21285e-05
4.44461e-06
1.06561e-05
3.62259e-06
1.21196e-05
4.45209e-06
1.06625e-05
2.24464e-05
8.91958e-06
7.21099e-06
7.21488e-06
2.24608e-05
2.24403e-05
7.22341e-06
8.91124e-06
2.24287e-05
7.21974e-06
1.2133e-05
3.63348e-06
4.46236e-06
1.0671e-05
4.45624e-06
1.06656e-05
1.21389e-05
1.21235e-05
1.06564e-05
4.44557e-06
3.62246e-06
1.2121e-05
1.06605e-05
4.4541e-06
2.24502e-05
8.90443e-06
7.22007e-06
7.22212e-06
2.24581e-05
2.2453e-05
7.21975e-06
8.90306e-06
2.24504e-05
7.22229e-06
1.21256e-05
3.6339e-06
1.06679e-05
4.46559e-06
1.06628e-05
4.4597e-06
1.21314e-05
1.84771e-05
1.84891e-05
9.66241e-06
2.2333e-05
2.23313e-05
9.69804e-06
2.23197e-05
2.23182e-05
3.8811e-06
1.89043e-06
5.12532e-06
9.0774e-06
1.88388e-06
9.09244e-06
3.88192e-06
3.87365e-06
1.88833e-06
5.1225e-06
9.0714e-06
9.08573e-06
1.88162e-06
3.87438e-06
3.88238e-06
9.11624e-06
1.87495e-06
5.11735e-06
1.87648e-06
3.88879e-06
9.10857e-06
3.87488e-06
9.10812e-06
1.87292e-06
5.11503e-06
3.88134e-06
9.10094e-06
1.87439e-06
9.63569e-06
2.21487e-05
2.21481e-05
2.22455e-05
2.22447e-05
9.61889e-06
1.84784e-05
1.84881e-05
1.21311e-05
4.43356e-06
1.06588e-05
3.61403e-06
1.21296e-05
4.44218e-06
1.0662e-05
2.24557e-05
8.91879e-06
7.2074e-06
7.20762e-06
2.24536e-05
2.2467e-05
7.20911e-06
8.91863e-06
2.24692e-05
7.20812e-06
1.2131e-05
3.62418e-06
4.45724e-06
1.0667e-05
4.44819e-06
1.06634e-05
1.21321e-05
1.21187e-05
4.43506e-06
1.06536e-05
3.6126e-06
1.2112e-05
4.43967e-06
1.06578e-05
2.24593e-05
8.90772e-06
7.20414e-06
7.20571e-06
2.24718e-05
2.24549e-05
7.20899e-06
8.90308e-06
2.24432e-05
7.20789e-06
1.21224e-05
3.62235e-06
4.45047e-06
1.06655e-05
4.44388e-06
1.06601e-05
1.21301e-05
9.75015e-06
2.18528e-05
2.18541e-05
9.709e-06
2.17434e-05
2.17447e-05
3.98707e-06
1.93911e-06
5.12894e-06
9.0025e-06
3.99521e-06
1.92701e-06
9.00321e-06
3.99376e-06
1.9401e-06
5.13035e-06
9.00822e-06
4.00166e-06
1.92821e-06
9.00886e-06
3.97028e-06
9.01793e-06
1.89171e-06
5.12177e-06
3.94875e-06
1.90976e-06
9.00915e-06
3.97729e-06
9.02359e-06
1.89343e-06
5.12403e-06
3.95594e-06
1.9113e-06
9.01474e-06
9.78784e-06
2.16435e-05
2.16441e-05
9.81435e-06
2.16646e-05
2.16655e-05
1.84793e-05
1.8489e-05
1.84784e-05
1.84884e-05
1.84645e-05
1.84555e-05
1.84715e-05
1.84593e-05
9.73315e-06
2.17673e-05
2.17679e-05
2.17703e-05
2.17709e-05
9.73744e-06
3.95503e-06
1.92054e-06
9.01927e-06
5.13956e-06
3.94603e-06
9.01768e-06
1.93209e-06
3.96238e-06
1.92291e-06
9.02639e-06
5.14221e-06
3.95336e-06
9.02471e-06
1.93383e-06
9.72466e-06
2.18233e-05
2.18244e-05
9.71524e-06
2.17957e-05
2.17971e-05
3.96405e-06
9.01667e-06
5.14594e-06
1.95472e-06
9.01628e-06
3.96898e-06
1.9452e-06
3.97105e-06
9.02303e-06
5.14756e-06
1.95566e-06
9.02287e-06
3.97585e-06
1.94751e-06
1.84385e-05
1.84422e-05
1.84379e-05
1.84423e-05
9.73174e-06
2.1768e-05
2.17685e-05
9.73781e-06
2.179e-05
2.17896e-05
3.97718e-06
1.98593e-06
5.15846e-06
9.04375e-06
9.03136e-06
1.9783e-06
3.98188e-06
3.98477e-06
1.98443e-06
5.15982e-06
9.04722e-06
9.03647e-06
1.98127e-06
3.98365e-06
3.97606e-06
9.01825e-06
1.96414e-06
5.1543e-06
3.97375e-06
9.02419e-06
1.97132e-06
3.98214e-06
9.0241e-06
1.96645e-06
5.1561e-06
3.98032e-06
9.02909e-06
1.97163e-06
9.72282e-06
2.18722e-05
2.18701e-05
2.18266e-05
2.18255e-05
9.71127e-06
1.21291e-05
3.67204e-06
1.06744e-05
4.4868e-06
1.06673e-05
4.48184e-06
1.21364e-05
2.24214e-05
7.21757e-06
8.91503e-06
2.24153e-05
7.21519e-06
1.21261e-05
3.66261e-06
1.06615e-05
4.47316e-06
1.06643e-05
1.21242e-05
4.47852e-06
2.2425e-05
7.20852e-06
8.91955e-06
7.21105e-06
2.24401e-05
1.21296e-05
1.0673e-05
4.49361e-06
3.69944e-06
1.21267e-05
1.06772e-05
4.50147e-06
2.2391e-05
8.91304e-06
7.21107e-06
7.21054e-06
2.23866e-05
2.24066e-05
7.20971e-06
8.91285e-06
2.24087e-05
7.20995e-06
1.21289e-05
3.70933e-06
1.06794e-05
4.51489e-06
1.06778e-05
4.50737e-06
1.21295e-05
1.21401e-05
1.06767e-05
4.49026e-06
3.69696e-06
1.21381e-05
1.06805e-05
4.49606e-06
2.24318e-05
8.92665e-06
7.20373e-06
7.20306e-06
2.2426e-05
2.24418e-05
7.20527e-06
8.92764e-06
2.24395e-05
7.20404e-06
1.2139e-05
3.70638e-06
1.06819e-05
4.50812e-06
1.06809e-05
4.50066e-06
1.21382e-05
9.57874e-06
2.18136e-05
2.18153e-05
2.1953e-05
2.19549e-05
9.61509e-06
3.88318e-06
1.88247e-06
9.09244e-06
5.13509e-06
9.07021e-06
3.85797e-06
1.89573e-06
3.87639e-06
1.88074e-06
9.08824e-06
5.13242e-06
1.89379e-06
3.85123e-06
9.066e-06
9.55928e-06
2.22579e-05
2.22595e-05
2.21253e-05
9.55898e-06
2.21272e-05
3.91453e-06
9.0268e-06
5.14106e-06
1.93253e-06
9.04516e-06
1.91473e-06
3.94432e-06
3.90744e-06
9.02183e-06
5.1389e-06
1.93034e-06
1.91272e-06
9.0407e-06
3.9372e-06
1.84659e-05
1.8457e-05
1.84404e-05
1.84477e-05
9.70911e-06
2.16737e-05
2.1675e-05
9.66014e-06
2.15872e-05
2.15882e-05
4.03378e-06
2.01129e-06
5.16233e-06
8.99593e-06
1.99456e-06
8.99586e-06
4.05474e-06
4.0262e-06
2.00924e-06
5.1604e-06
8.99168e-06
8.9914e-06
1.99245e-06
4.04723e-06
4.00612e-06
9.01042e-06
1.95435e-06
5.15621e-06
1.97381e-06
3.97707e-06
9.00105e-06
3.99871e-06
9.00533e-06
1.95217e-06
5.15363e-06
3.96968e-06
8.99617e-06
1.97157e-06
9.756e-06
2.15236e-05
2.15242e-05
2.15315e-05
2.15323e-05
9.79494e-06
1.8438e-05
1.84434e-05
1.21117e-05
3.66715e-06
1.0666e-05
4.48246e-06
1.06615e-05
4.4762e-06
1.21167e-05
2.23884e-05
7.20641e-06
8.89964e-06
2.23865e-05
7.20529e-06
1.21114e-05
3.65754e-06
1.066e-05
4.46372e-06
1.06606e-05
1.21115e-05
4.47008e-06
2.2387e-05
7.2003e-06
8.90037e-06
7.20307e-06
2.23996e-05
1.21279e-05
4.48734e-06
1.06701e-05
3.69562e-06
1.21274e-05
4.49618e-06
1.06738e-05
2.23921e-05
8.91464e-06
7.2089e-06
7.20643e-06
2.23859e-05
2.24101e-05
7.20419e-06
8.91607e-06
2.24158e-05
7.20515e-06
1.2127e-05
3.70587e-06
4.51221e-06
1.06778e-05
4.50267e-06
1.0675e-05
1.21275e-05
1.21296e-05
1.06688e-05
4.48876e-06
3.69539e-06
1.21219e-05
1.06748e-05
4.49597e-06
2.24107e-05
8.91755e-06
7.20233e-06
7.1989e-06
2.24087e-05
2.2416e-05
7.19865e-06
8.91657e-06
2.24048e-05
7.19796e-06
1.21308e-05
3.70563e-06
1.06794e-05
4.51189e-06
1.06764e-05
4.50328e-06
1.21322e-05
1.21381e-05
3.66938e-06
4.48479e-06
1.06763e-05
4.47729e-06
1.06749e-05
1.21371e-05
2.2459e-05
7.20699e-06
8.9313e-06
7.20465e-06
2.24577e-05
1.21401e-05
3.66012e-06
4.46613e-06
1.06722e-05
4.47258e-06
1.21393e-05
1.06746e-05
2.24488e-05
7.20277e-06
8.93042e-06
7.20292e-06
2.24447e-05
1.21363e-05
3.66937e-06
1.06761e-05
4.48278e-06
1.06736e-05
4.47717e-06
1.21376e-05
2.24614e-05
7.2165e-06
8.92133e-06
2.24569e-05
7.21233e-06
1.21361e-05
3.66037e-06
1.06694e-05
4.4692e-06
1.21328e-05
1.06727e-05
4.47394e-06
2.24543e-05
7.20425e-06
8.92377e-06
7.20827e-06
2.24517e-05
1.21333e-05
4.49049e-06
1.06766e-05
3.69659e-06
1.21337e-05
4.49893e-06
1.06783e-05
2.24091e-05
8.91673e-06
7.21143e-06
7.20786e-06
2.24034e-05
2.24251e-05
7.20334e-06
8.92072e-06
2.24293e-05
7.20591e-06
1.21316e-05
3.70729e-06
4.51421e-06
1.06802e-05
4.50522e-06
1.06786e-05
1.21316e-05
1.21375e-05
1.06769e-05
4.4874e-06
3.69536e-06
1.21371e-05
1.06791e-05
4.49469e-06
2.24108e-05
8.92581e-06
7.19914e-06
7.19818e-06
2.24039e-05
2.24297e-05
7.20113e-06
8.92708e-06
2.24358e-05
7.19904e-06
1.21359e-05
3.706e-06
1.06809e-05
4.50989e-06
1.06795e-05
4.50085e-06
1.2135e-05
9.605e-06
2.18103e-05
2.1809e-05
2.18397e-05
2.1839e-05
9.60801e-06
3.89011e-06
1.90034e-06
9.05674e-06
5.13871e-06
9.03981e-06
3.88672e-06
1.90576e-06
3.88263e-06
1.89816e-06
9.05128e-06
5.13646e-06
1.90383e-06
3.87923e-06
9.03439e-06
9.60545e-06
2.20124e-05
2.20121e-05
2.19188e-05
9.60985e-06
2.19182e-05
3.89839e-06
9.01747e-06
5.14239e-06
1.92293e-06
9.02473e-06
1.91514e-06
3.91301e-06
3.89099e-06
9.01105e-06
5.14015e-06
1.92149e-06
1.91327e-06
9.01896e-06
3.90565e-06
1.84568e-05
1.84451e-05
1.84422e-05
1.84442e-05
9.64325e-06
2.17889e-05
2.17876e-05
9.62131e-06
2.17862e-05
2.17849e-05
4.00157e-06
1.9962e-06
5.15269e-06
9.02388e-06
1.97471e-06
9.01611e-06
4.03321e-06
3.99466e-06
1.99533e-06
5.15282e-06
9.01678e-06
9.00869e-06
1.97369e-06
4.02634e-06
3.96748e-06
9.01389e-06
1.93738e-06
5.1475e-06
1.95278e-06
3.93881e-06
9.01418e-06
3.9604e-06
9.00689e-06
1.93604e-06
5.14705e-06
3.93164e-06
9.00696e-06
1.95179e-06
9.66803e-06
2.17743e-05
2.1773e-05
2.17801e-05
2.17789e-05
9.69777e-06
1.84389e-05
1.84402e-05
1.2129e-05
3.66837e-06
4.4891e-06
1.06716e-05
4.47965e-06
1.06705e-05
1.21283e-05
2.24351e-05
7.20761e-06
8.91812e-06
7.20791e-06
2.24402e-05
1.21312e-05
3.65746e-06
4.46365e-06
1.06679e-05
4.47315e-06
1.21312e-05
1.06703e-05
2.24174e-05
7.20831e-06
8.91573e-06
7.2081e-06
2.24127e-05
1.21348e-05
3.66659e-06
4.48682e-06
1.06732e-05
4.47549e-06
1.06719e-05
1.21339e-05
2.24687e-05
7.20312e-06
8.91913e-06
2.24691e-05
7.203e-06
1.21354e-05
3.65452e-06
4.45718e-06
1.06674e-05
1.21325e-05
4.46654e-06
1.06713e-05
2.24528e-05
7.20697e-06
8.91944e-06
7.20402e-06
2.24414e-05
1.2126e-05
4.49507e-06
1.06715e-05
3.70265e-06
1.21259e-05
4.50382e-06
1.06726e-05
2.23888e-05
8.91298e-06
7.2091e-06
7.20852e-06
2.23911e-05
2.23964e-05
7.20821e-06
8.91312e-06
2.23978e-05
7.2087e-06
1.21253e-05
3.7125e-06
4.51663e-06
1.06756e-05
4.5089e-06
1.06731e-05
1.21267e-05
1.21272e-05
4.4965e-06
1.06728e-05
3.70454e-06
1.21296e-05
4.50784e-06
1.06733e-05
2.23594e-05
8.90802e-06
7.22113e-06
7.21775e-06
2.2354e-05
2.23927e-05
7.21017e-06
8.91335e-06
2.24098e-05
7.21453e-06
1.2123e-05
3.71586e-06
4.52553e-06
1.06746e-05
4.51619e-06
1.06731e-05
1.21229e-05
1.84668e-05
1.8461e-05
1.84662e-05
1.84613e-05
9.68915e-06
2.20752e-05
2.20732e-05
9.72027e-06
2.214e-05
2.21372e-05
3.95332e-06
1.97169e-06
5.15169e-06
9.09406e-06
1.967e-06
9.09327e-06
3.95838e-06
3.95935e-06
1.97354e-06
5.15419e-06
9.09706e-06
1.96813e-06
9.09667e-06
3.96472e-06
3.95354e-06
9.07362e-06
1.96436e-06
5.14882e-06
3.95951e-06
1.96496e-06
9.08792e-06
3.95948e-06
9.07873e-06
1.965e-06
5.15053e-06
3.96529e-06
1.96576e-06
9.09206e-06
9.66522e-06
2.21377e-05
2.21339e-05
2.21503e-05
2.2147e-05
9.65387e-06
1.8442e-05
1.84514e-05
1.84415e-05
1.8451e-05
1.17699e-07
1.17688e-07
1.33087e-07
1.16596e-07
1.16586e-07
1.09939e-07
1.1123e-07
1.76692e-06
7.84803e-07
7.84935e-07
3.65198e-07
1.7657e-06
7.87361e-07
7.87457e-07
1.69217e-06
3.48568e-07
7.4761e-07
7.48013e-07
7.42794e-07
7.43203e-07
1.703e-06
1.65066e-06
3.50336e-07
7.37424e-07
7.37149e-07
7.39034e-07
7.38769e-07
1.64817e-06
1.66476e-06
3.49441e-07
7.4062e-07
7.40256e-07
7.39486e-07
7.39093e-07
1.66743e-06
1.74745e-06
3.56986e-07
7.73561e-07
7.73653e-07
1.75725e-06
7.6814e-07
7.68314e-07
1.73114e-06
7.60719e-07
7.61116e-07
3.56266e-07
1.72228e-06
7.65625e-07
7.66017e-07
1.77571e-06
3.74901e-07
8.0861e-07
8.07681e-07
8.05132e-07
8.05855e-07
1.77928e-06
1.66784e-06
7.40325e-07
7.40048e-07
3.50046e-07
7.42989e-07
1.65307e-06
7.43287e-07
1.80749e-06
3.75049e-07
8.2068e-07
8.20301e-07
8.12381e-07
8.11986e-07
1.82571e-06
1.68316e-06
7.4729e-07
7.46942e-07
3.51675e-07
7.49628e-07
1.67776e-06
7.49928e-07
1.78244e-06
3.7091e-07
8.07988e-07
8.07975e-07
7.97649e-07
7.97558e-07
1.81117e-06
1.75988e-06
3.75699e-07
8.03363e-07
8.03665e-07
8.0181e-07
8.02087e-07
1.76333e-06
1.35063e-07
1.18837e-07
1.18832e-07
1.2001e-07
1.20012e-07
1.13901e-07
1.12551e-07
1.35148e-07
1.1884e-07
1.18834e-07
1.20022e-07
1.20021e-07
1.13902e-07
1.12551e-07
1.35112e-07
1.18819e-07
1.18823e-07
1.20007e-07
1.20009e-07
1.13901e-07
1.12549e-07
1.35274e-07
1.18862e-07
1.18847e-07
1.20047e-07
1.20029e-07
1.13906e-07
1.12553e-07
1.177e-07
1.1769e-07
1.32975e-07
1.16598e-07
1.16589e-07
1.09939e-07
1.1123e-07
1.17677e-07
1.17679e-07
1.32899e-07
1.16581e-07
1.16585e-07
1.09939e-07
1.11228e-07
1.1771e-07
1.17699e-07
1.33174e-07
1.16596e-07
1.16593e-07
1.09938e-07
1.1123e-07
1.3249e-07
1.14496e-07
1.14493e-07
1.15527e-07
1.15517e-07
1.08676e-07
1.07443e-07
1.32514e-07
1.14512e-07
1.14514e-07
1.15537e-07
1.15532e-07
1.08678e-07
1.07445e-07
1.32405e-07
1.14518e-07
1.14522e-07
1.15528e-07
1.15533e-07
1.0868e-07
1.07449e-07
1.32513e-07
1.14502e-07
1.14517e-07
1.15525e-07
1.15532e-07
1.08677e-07
1.07446e-07
4.75994e-07
1.15162e-06
1.47059e-06
3.88497e-07
1.46513e-06
3.87275e-07
4.77011e-07
6.54909e-07
9.92674e-07
2.07383e-06
2.80038e-06
6.53853e-07
9.96157e-07
2.07743e-06
4.6984e-07
1.13922e-06
1.44826e-06
3.81227e-07
4.69034e-07
1.45318e-06
3.82366e-07
6.6246e-07
2.09242e-06
2.81055e-06
1.01195e-06
1.00666e-06
2.08768e-06
6.64147e-07
4.75666e-07
1.14996e-06
3.88149e-07
1.47253e-06
3.86656e-07
1.466e-06
4.7707e-07
6.54048e-07
9.94519e-07
2.07176e-06
2.80442e-06
6.52189e-07
9.98691e-07
2.0776e-06
4.68585e-07
1.13562e-06
3.79895e-07
1.44448e-06
4.67319e-07
3.81244e-07
1.45095e-06
6.63052e-07
2.09731e-06
2.81653e-06
1.01424e-06
1.00974e-06
2.09181e-06
6.65126e-07
1.76715e-06
3.69731e-07
7.94892e-07
7.95003e-07
7.94118e-07
7.94246e-07
1.76221e-06
1.67103e-06
3.43622e-07
7.27769e-07
7.28212e-07
1.66174e-06
7.31452e-07
7.31884e-07
4.50676e-07
1.39728e-06
3.66643e-07
1.09469e-06
4.49254e-07
1.40445e-06
3.6805e-07
6.39567e-07
9.84905e-07
2.77519e-06
2.05315e-06
9.79777e-07
2.04675e-06
6.41829e-07
6.30318e-07
2.0249e-06
9.63502e-07
2.76209e-06
9.67974e-07
6.28188e-07
2.03145e-06
4.57774e-07
1.10984e-06
1.4273e-06
3.74745e-07
1.42042e-06
3.73362e-07
4.59211e-07
4.55533e-07
1.41151e-06
3.68079e-07
1.09921e-06
4.5419e-07
1.41857e-06
3.69485e-07