/*--------------------------------*- C++ -*----------------------------------*\
| =========                 |                                                 |
| \\      /  F ield         | OpenFOAM: The Open Source CFD Toolbox           |
|  \\    /   O peration     | Version:  v1906                                 |
|   \\  /    A nd           | Web:      www.OpenFOAM.com                      |
|    \\/     M anipulation  |                                                 |
\*---------------------------------------------------------------------------*/
FoamFile
{
    version     2.0;
    format      ascii;
    class       volScalarField;
    location    "500";
    object      k;
}
// * * * * * * * * * * * * * * * * * * * * * * * * * * * * * * * * * * * * * //

dimensions      [0 2 -2 0 0 0 0];


internalField   nonuniform List<scalar> 
42840
(
2.19538e-05
3.78343e-05
3.78382e-05
4.28745e-05
2.27601e-05
3.86738e-05
3.86677e-05
4.35475e-05
2.35495e-05
3.95337e-05
3.95758e-05
4.41715e-05
2.43454e-05
4.04134e-05
4.03566e-05
4.49446e-05
2.51514e-05
4.11131e-05
4.11669e-05
4.54913e-05
2.59838e-05
4.19571e-05
4.1909e-05
4.60716e-05
2.67796e-05
4.26844e-05
4.27127e-05
4.67156e-05
2.76143e-05
4.33745e-05
4.34808e-05
4.72077e-05
2.83652e-05
4.40192e-05
4.39024e-05
4.77263e-05
2.92371e-05
4.47752e-05
4.47844e-05
4.83471e-05
2.99806e-05
4.53376e-05
4.527e-05
4.87268e-05
3.07038e-05
4.59909e-05
4.61358e-05
4.94348e-05
3.15136e-05
4.63112e-05
4.62437e-05
4.9368e-05
3.21614e-05
4.73244e-05
4.73431e-05
5.02161e-05
3.29395e-05
4.74208e-05
4.74623e-05
5.07392e-05
3.36959e-05
4.82344e-05
4.76785e-05
5.08756e-05
3.3972e-05
4.83668e-05
4.92291e-05
5.09889e-05
3.52247e-05
4.92146e-05
4.85773e-05
5.07685e-05
3.52583e-05
4.93335e-05
4.87952e-05
5.41414e-05
3.60845e-05
4.892e-05
5.08713e-05
5.10705e-05
3.67551e-05
5.10855e-05
4.85218e-05
4.97887e-05
3.71511e-05
4.99107e-05
5.19642e-05
5.58704e-05
3.77719e-05
5.05171e-05
5.0587e-05
5.22353e-05
3.79926e-05
5.1236e-05
5.01119e-05
5.17176e-05
3.84403e-05
5.11758e-05
5.16219e-05
5.42257e-05
3.91358e-05
5.17099e-05
5.15347e-05
5.41565e-05
4.26219e-05
3.75582e-05
3.76178e-05
4.27353e-05
3.75558e-05
3.76049e-05
3.76157e-05
3.75917e-05
4.2729e-05
3.76039e-05
3.75893e-05
4.27065e-05
4.27778e-05
4.34723e-05
3.7772e-05
3.78363e-05
3.85041e-05
3.84539e-05
4.28938e-05
4.3338e-05
3.77704e-05
3.78389e-05
3.8502e-05
3.84469e-05
3.78224e-05
3.84545e-05
3.84984e-05
4.28963e-05
4.33445e-05
3.78204e-05
3.84494e-05
3.84964e-05
4.34123e-05
4.36496e-05
4.40716e-05
3.87425e-05
3.86724e-05
3.93482e-05
3.93242e-05
4.34977e-05
4.40623e-05
3.87405e-05
3.86651e-05
3.93469e-05
3.93826e-05
3.86986e-05
3.93217e-05
3.93071e-05
4.35068e-05
4.41404e-05
3.86964e-05
3.93813e-05
3.9305e-05
4.40074e-05
4.42e-05
4.47167e-05
3.95442e-05
3.95367e-05
4.0158e-05
4.01952e-05
4.42163e-05
4.47923e-05
3.95443e-05
3.95766e-05
4.01567e-05
4.01308e-05
3.95229e-05
4.01935e-05
4.0171e-05
4.42744e-05
4.46668e-05
3.95223e-05
4.01313e-05
4.01711e-05
4.4778e-05
4.48604e-05
4.53135e-05
4.03661e-05
4.04159e-05
4.09454e-05
4.09528e-05
4.49448e-05
4.52858e-05
4.03625e-05
4.03582e-05
4.0943e-05
4.09885e-05
4.04014e-05
4.09534e-05
4.10204e-05
4.48384e-05
4.53732e-05
4.0399e-05
4.09908e-05
4.10175e-05
4.53932e-05
4.54617e-05
4.60301e-05
4.11368e-05
4.11106e-05
4.17825e-05
4.17314e-05
4.53863e-05
4.59957e-05
4.11368e-05
4.11613e-05
4.17821e-05
4.17086e-05
4.11797e-05
4.1731e-05
4.17008e-05
4.54833e-05
4.59149e-05
4.11786e-05
4.17096e-05
4.17009e-05
4.5901e-05
4.61545e-05
4.64768e-05
4.19722e-05
4.19596e-05
4.24542e-05
4.25228e-05
4.6175e-05
4.65728e-05
4.19714e-05
4.19107e-05
4.24496e-05
4.25136e-05
4.1906e-05
4.25195e-05
4.25239e-05
4.60672e-05
4.66071e-05
4.19056e-05
4.25126e-05
4.25197e-05
4.65974e-05
4.6633e-05
4.71554e-05
4.26499e-05
4.26855e-05
4.32547e-05
4.31955e-05
4.66722e-05
4.70838e-05
4.26447e-05
4.27111e-05
4.32573e-05
4.33142e-05
4.27033e-05
4.31969e-05
4.32039e-05
4.67638e-05
4.72434e-05
4.26983e-05
4.33163e-05
4.32066e-05
4.70812e-05
4.72375e-05
4.74875e-05
4.34105e-05
4.33762e-05
4.38063e-05
4.38788e-05
4.72131e-05
4.75976e-05
4.34159e-05
4.34816e-05
4.38056e-05
4.37724e-05
4.33861e-05
4.38776e-05
4.38847e-05
4.73209e-05
4.73936e-05
4.33905e-05
4.37737e-05
4.38853e-05
4.76172e-05
4.76443e-05
4.83873e-05
4.39789e-05
4.40171e-05
4.46565e-05
4.45549e-05
4.77015e-05
4.82218e-05
4.39755e-05
4.38958e-05
4.46516e-05
4.4569e-05
4.40372e-05
4.4556e-05
4.45607e-05
4.74727e-05
4.82902e-05
4.40348e-05
4.45726e-05
4.45539e-05
4.82024e-05
4.84987e-05
4.86037e-05
4.48508e-05
4.47761e-05
4.51927e-05
4.52448e-05
4.84049e-05
4.86812e-05
4.48465e-05
4.47852e-05
4.51976e-05
4.51398e-05
4.47494e-05
4.52425e-05
4.5236e-05
4.84232e-05
4.85191e-05
4.47436e-05
4.51396e-05
4.52404e-05
4.86608e-05
4.86642e-05
4.90483e-05
4.53007e-05
4.53401e-05
4.57541e-05
4.58001e-05
4.87321e-05
4.91971e-05
4.53052e-05
4.52668e-05
4.57433e-05
4.59624e-05
4.53406e-05
4.57955e-05
4.57776e-05
4.85971e-05
4.95062e-05
4.53437e-05
4.59602e-05
4.57713e-05
4.92178e-05
4.91389e-05
4.97186e-05
4.58669e-05
4.59976e-05
4.63883e-05
4.62471e-05
4.93399e-05
4.92828e-05
4.58605e-05
4.61396e-05
4.63992e-05
4.62126e-05
4.60134e-05
4.62604e-05
4.64201e-05
4.95616e-05
4.90546e-05
4.60084e-05
4.6218e-05
4.64277e-05
4.94058e-05
4.99722e-05
4.98078e-05
4.6637e-05
4.62976e-05
4.69537e-05
4.7066e-05
4.93048e-05
5.05418e-05
4.66445e-05
4.62354e-05
4.69454e-05
4.70873e-05
4.64172e-05
4.70297e-05
4.65616e-05
4.90786e-05
5.06551e-05
4.64248e-05
4.70554e-05
4.65581e-05
4.9757e-05
4.96701e-05
5.03056e-05
4.69261e-05
4.73616e-05
4.71117e-05
4.74363e-05
5.07438e-05
4.99409e-05
4.69165e-05
4.73813e-05
4.71095e-05
4.7469e-05
4.69282e-05
4.74624e-05
4.778e-05
5.08066e-05
5.00476e-05
4.69131e-05
4.74949e-05
4.77819e-05
5.08029e-05
5.10431e-05
5.14095e-05
4.76561e-05
4.73906e-05
4.83474e-05
4.78003e-05
4.98687e-05
5.11918e-05
4.76646e-05
4.74261e-05
4.83547e-05
4.75258e-05
4.78007e-05
4.7753e-05
4.78241e-05
5.0015e-05
5.03282e-05
4.78085e-05
4.75089e-05
4.78345e-05
5.06589e-05
5.07747e-05
4.94399e-05
4.81907e-05
4.83013e-05
4.77035e-05
4.84681e-05
5.15981e-05
5.07047e-05
4.81916e-05
4.777e-05
4.76803e-05
4.88512e-05
4.79251e-05
4.84883e-05
4.84302e-05
5.05171e-05
5.23664e-05
4.79294e-05
4.8899e-05
4.83912e-05
5.10433e-05
5.02803e-05
5.37303e-05
4.7908e-05
4.83103e-05
4.96899e-05
4.85975e-05
5.04734e-05
5.19751e-05
4.78897e-05
4.91487e-05
4.97789e-05
4.90916e-05
4.84235e-05
4.85996e-05
4.83462e-05
5.27065e-05
5.09755e-05
4.83931e-05
4.91174e-05
4.83912e-05
5.05828e-05
5.34497e-05
4.95977e-05
4.9674e-05
4.93006e-05
4.86051e-05
4.97194e-05
5.26987e-05
5.2019e-05
4.97567e-05
4.86277e-05
4.85081e-05
4.82848e-05
4.84303e-05
4.96428e-05
5.01089e-05
5.02693e-05
5.03527e-05
4.85116e-05
4.82401e-05
4.99563e-05
5.38093e-05
4.96352e-05
5.31636e-05
4.85555e-05
4.93314e-05
4.96149e-05
4.861e-05
5.13069e-05
4.98852e-05
4.84506e-05
4.87922e-05
4.97588e-05
5.08875e-05
5.04873e-05
4.87215e-05
5.02256e-05
5.18697e-05
5.51511e-05
5.03197e-05
5.10239e-05
5.02535e-05
5.1843e-05
5.33991e-05
5.23309e-05
5.0075e-05
4.88157e-05
5.02549e-05
5.11659e-05
5.07158e-05
5.5076e-05
5.02824e-05
5.07497e-05
5.029e-05
4.86356e-05
4.94676e-05
5.1025e-05
4.84625e-05
5.4164e-05
4.8448e-05
4.96893e-05
4.85515e-05
4.85003e-05
4.91952e-05
5.22504e-05
5.26692e-05
5.02006e-05
5.1246e-05
5.02715e-05
5.01975e-05
5.50489e-05
5.12294e-05
5.00792e-05
4.86193e-05
5.00895e-05
5.12328e-05
4.85939e-05
5.01722e-05
5.15065e-05
4.85585e-05
5.60255e-05
4.85794e-05
5.12037e-05
5.1321e-05
5.56938e-05
5.29116e-05
5.32149e-05
5.04558e-05
4.98573e-05
5.08061e-05
4.9946e-05
5.10306e-05
5.24984e-05
5.03716e-05
5.19065e-05
5.09823e-05
5.13391e-05
5.19452e-05
5.00603e-05
5.1453e-05
5.63026e-05
5.2037e-05
5.19312e-05
5.14668e-05
5.16779e-05
5.27499e-05
5.31788e-05
5.26737e-05
5.08114e-05
5.03969e-05
5.07515e-05
5.12957e-05
5.30055e-05
5.37818e-05
5.09692e-05
5.05138e-05
5.06881e-05
4.9978e-05
5.0783e-05
5.12397e-05
5.00548e-05
5.13981e-05
5.18006e-05
5.09516e-05
4.99473e-05
4.99855e-05
5.13905e-05
5.26842e-05
5.33083e-05
5.07474e-05
5.13004e-05
5.10297e-05
5.12095e-05
5.37133e-05
5.32187e-05
5.06646e-05
5.01653e-05
5.09348e-05
5.15263e-05
5.00786e-05
5.11596e-05
5.11196e-05
5.24544e-05
5.42672e-05
5.00034e-05
5.15008e-05
5.10974e-05
5.39187e-05
5.35098e-05
5.39655e-05
5.12315e-05
5.12154e-05
5.17126e-05
5.15421e-05
5.32679e-05
5.37693e-05
5.12249e-05
5.16201e-05
5.17578e-05
5.15235e-05
5.15607e-05
5.15976e-05
5.19878e-05
5.42509e-05
5.32952e-05
5.15841e-05
5.15567e-05
5.20166e-05
5.42753e-05
5.40144e-05
5.18112e-05
5.1659e-05
5.38289e-05
5.18261e-05
5.15016e-05
5.19671e-05
5.32981e-05
5.19856e-05
6.48593e-05
7.14029e-05
6.9578e-05
6.48588e-05
7.14092e-05
2.17647e-05
2.17802e-05
2.17755e-05
2.17756e-05
5.36055e-05
3.7132e-05
6.04037e-05
2.95013e-05
6.95761e-05
5.36006e-05
3.71134e-05
2.95024e-05
6.03834e-05
4.23451e-05
6.70172e-05
6.70265e-05
6.50762e-05
7.14534e-05
6.49875e-05
7.14976e-05
6.96029e-05
6.96203e-05
6.50826e-05
7.14596e-05
6.49913e-05
7.15039e-05
2.19743e-05
2.19718e-05
2.19706e-05
2.25524e-05
2.25463e-05
2.25498e-05
2.25614e-05
5.40831e-05
6.05991e-05
3.02474e-05
3.80388e-05
5.38885e-05
6.06745e-05
3.04914e-05
6.96051e-05
6.96201e-05
5.40867e-05
3.02458e-05
6.06105e-05
3.80518e-05
5.38859e-05
3.04946e-05
6.06887e-05
6.71466e-05
6.71584e-05
4.3082e-05
6.72547e-05
6.72662e-05
6.53154e-05
7.15485e-05
6.52134e-05
7.15788e-05
6.96625e-05
6.96928e-05
6.53171e-05
7.15535e-05
6.52135e-05
7.15845e-05
2.27415e-05
2.27437e-05
2.27565e-05
2.33552e-05
2.33354e-05
2.33585e-05
2.33351e-05
5.45204e-05
6.08249e-05
3.12168e-05
3.88937e-05
5.43418e-05
6.09576e-05
3.14583e-05
6.96617e-05
6.96974e-05
5.45155e-05
3.12183e-05
6.07992e-05
3.89078e-05
5.43387e-05
3.14593e-05
6.09871e-05
6.72997e-05
6.73084e-05
4.36857e-05
6.73089e-05
6.73172e-05
6.54974e-05
7.16199e-05
6.5422e-05
7.16617e-05
6.97213e-05
6.9754e-05
6.55085e-05
7.16278e-05
6.54395e-05
7.16669e-05
2.35351e-05
2.35597e-05
2.3534e-05
2.41457e-05
2.41544e-05
2.41381e-05
2.41463e-05
5.4936e-05
6.10927e-05
3.21754e-05
3.9749e-05
5.47661e-05
6.12111e-05
3.24141e-05
6.97165e-05
6.97345e-05
5.49488e-05
3.21947e-05
6.11493e-05
3.9749e-05
5.47817e-05
3.24295e-05
6.11754e-05
6.74461e-05
6.74666e-05
4.43907e-05
6.75057e-05
6.75269e-05
6.5759e-05
7.17197e-05
6.56509e-05
7.17481e-05
6.97877e-05
6.98068e-05
6.57487e-05
7.17222e-05
6.5635e-05
7.17558e-05
2.43639e-05
2.4342e-05
2.4356e-05
2.49487e-05
2.49595e-05
2.49671e-05
2.49848e-05
5.53884e-05
6.14327e-05
3.31346e-05
4.06166e-05
5.51919e-05
6.15357e-05
3.33753e-05
6.97899e-05
6.98169e-05
5.53656e-05
3.31214e-05
6.13628e-05
4.05854e-05
5.51726e-05
3.33615e-05
6.15346e-05
6.77195e-05
6.7721e-05
4.51407e-05
6.78088e-05
6.78167e-05
6.58851e-05
7.17982e-05
6.58241e-05
7.1846e-05
6.98319e-05
6.98813e-05
6.59054e-05
7.1807e-05
6.5848e-05
7.18503e-05
2.5151e-05
2.51677e-05
2.51812e-05
2.57749e-05
2.57548e-05
2.57588e-05
2.57604e-05
5.57305e-05
6.15441e-05
3.4068e-05
4.12945e-05
5.56147e-05
6.16247e-05
3.42855e-05
6.98328e-05
6.98692e-05
5.5754e-05
3.40788e-05
6.1626e-05
4.13396e-05
5.56283e-05
3.43021e-05
6.16503e-05
6.77484e-05
6.77676e-05
4.55838e-05
6.77136e-05
6.77311e-05
6.6148e-05
7.18949e-05
6.6046e-05
7.19243e-05
6.99273e-05
6.99462e-05
6.61372e-05
7.1899e-05
6.60398e-05
7.19296e-05
2.59679e-05
2.59619e-05
2.59633e-05
2.65808e-05
2.66031e-05
2.6594e-05
2.65948e-05
5.61306e-05
6.19016e-05
3.49519e-05
4.21655e-05
5.59358e-05
6.20227e-05
3.5186e-05
6.99252e-05
6.99491e-05
5.6113e-05
3.49523e-05
6.18347e-05
4.2112e-05
5.59306e-05
3.51793e-05
6.19758e-05
6.79521e-05
6.79578e-05
4.62928e-05
6.80804e-05
6.8086e-05
6.62969e-05
7.19821e-05
6.62212e-05
7.20304e-05
6.9967e-05
7.00005e-05
6.63058e-05
7.19881e-05
6.62132e-05
7.20372e-05
2.68023e-05
2.68045e-05
2.68015e-05
2.74102e-05
2.73931e-05
2.74478e-05
2.73981e-05
5.65127e-05
6.20981e-05
3.58676e-05
4.28525e-05
5.63834e-05
6.21608e-05
3.60808e-05
6.99805e-05
7.0011e-05
5.65147e-05
3.5864e-05
6.21064e-05
4.29166e-05
5.63696e-05
3.6086e-05
6.2241e-05
6.81224e-05
6.8129e-05
4.68347e-05
6.81116e-05
6.8124e-05
6.65232e-05
7.20631e-05
6.64556e-05
7.2076e-05
7.00418e-05
7.00727e-05
6.65395e-05
7.20707e-05
6.64969e-05
7.20803e-05
2.75989e-05
2.76575e-05
2.76037e-05
2.81771e-05
2.81949e-05
2.81802e-05
2.82094e-05
5.68504e-05
6.23035e-05
3.67166e-05
4.35538e-05
5.66912e-05
6.24236e-05
3.693e-05
7.00333e-05
7.00431e-05
5.68887e-05
3.67607e-05
6.24287e-05
4.36014e-05
5.67339e-05
3.69708e-05
6.24174e-05
6.82406e-05
6.8268e-05
4.73662e-05
6.83107e-05
6.83299e-05
6.65825e-05
7.21479e-05
6.65198e-05
7.22265e-05
7.01032e-05
7.01451e-05
6.65412e-05
7.21478e-05
6.64929e-05
7.22312e-05
2.83795e-05
2.83455e-05
2.83926e-05
2.90169e-05
2.89831e-05
2.89736e-05
2.89917e-05
5.71346e-05
6.24744e-05
3.75281e-05
4.41694e-05
5.70445e-05
6.24835e-05
3.77185e-05
7.00831e-05
7.01547e-05
5.7074e-05
3.75067e-05
6.23147e-05
4.40923e-05
5.70103e-05
3.76864e-05
6.24591e-05
6.83132e-05
6.83104e-05
4.78709e-05
6.83327e-05
6.83249e-05
6.69337e-05
7.22696e-05
6.68104e-05
7.22743e-05
7.02e-05
7.02184e-05
6.69631e-05
7.22807e-05
6.68561e-05
7.22832e-05
2.92062e-05
2.9198e-05
2.92114e-05
2.98034e-05
2.98079e-05
2.97659e-05
2.9803e-05
5.75406e-05
6.28084e-05
3.83366e-05
4.49744e-05
5.73151e-05
6.29753e-05
3.85523e-05
7.02041e-05
7.02106e-05
5.75891e-05
3.83282e-05
6.28931e-05
4.49417e-05
5.73237e-05
3.85493e-05
6.29308e-05
6.85818e-05
6.86041e-05
4.85019e-05
6.87064e-05
6.87323e-05
6.69245e-05
7.2297e-05
6.69357e-05
7.23516e-05
7.02175e-05
7.02489e-05
6.68631e-05
7.22955e-05
6.68939e-05
7.23545e-05
2.99806e-05
2.99523e-05
2.99743e-05
3.05321e-05
3.05605e-05
3.06179e-05
3.05518e-05
5.77649e-05
6.28986e-05
3.91412e-05
4.54524e-05
5.77704e-05
6.28444e-05
3.9314e-05
7.02125e-05
7.02792e-05
5.76998e-05
3.91292e-05
6.27471e-05
4.54674e-05
5.77304e-05
3.93003e-05
6.28117e-05
6.85186e-05
6.85195e-05
4.87935e-05
6.83911e-05
6.83869e-05
6.72052e-05
7.24144e-05
6.70919e-05
7.24431e-05
7.03269e-05
7.03429e-05
6.72711e-05
7.24296e-05
6.71983e-05
7.24509e-05
3.07686e-05
3.08227e-05
3.07692e-05
3.12823e-05
3.1245e-05
3.12443e-05
3.13286e-05
5.82173e-05
6.32119e-05
3.98281e-05
4.6145e-05
5.78264e-05
6.33636e-05
4.0021e-05
7.03311e-05
7.03073e-05
5.83198e-05
3.98635e-05
6.34507e-05
4.62049e-05
5.79255e-05
4.00654e-05
6.34331e-05
6.90524e-05
6.90962e-05
4.96059e-05
6.92805e-05
6.93257e-05
6.72302e-05
7.25346e-05
6.71799e-05
7.25634e-05
7.03327e-05
7.04013e-05
6.71503e-05
7.25268e-05
6.71016e-05
7.25668e-05
3.13883e-05
3.13881e-05
3.14596e-05
3.2083e-05
3.20577e-05
3.2056e-05
3.19095e-05
5.81455e-05
6.29955e-05
4.05537e-05
4.64259e-05
5.83637e-05
6.29079e-05
4.06879e-05
7.03092e-05
7.04478e-05
5.80574e-05
4.05558e-05
6.27484e-05
4.6347e-05
5.82968e-05
4.06664e-05
6.28057e-05
6.82771e-05
6.82622e-05
4.92087e-05
6.78803e-05
6.78682e-05
6.74463e-05
7.24631e-05
6.75333e-05
7.24527e-05
7.0516e-05
7.04768e-05
6.74546e-05
7.24783e-05
6.75969e-05
7.24554e-05
3.22916e-05
3.22792e-05
3.21352e-05
3.26184e-05
3.27714e-05
3.2804e-05
3.2837e-05
5.89344e-05
6.39101e-05
4.11591e-05
4.74762e-05
5.82338e-05
6.41447e-05
4.13921e-05
7.05229e-05
7.04322e-05
5.89557e-05
4.11585e-05
6.40229e-05
4.74835e-05
5.83414e-05
4.13934e-05
6.40829e-05
6.94027e-05
6.94462e-05
5.08303e-05
7.00259e-05
7.00453e-05
6.76088e-05
7.2837e-05
6.71725e-05
7.29547e-05
7.03791e-05
7.04991e-05
6.7776e-05
7.28398e-05
6.71403e-05
7.29811e-05
3.28682e-05
3.29529e-05
3.30446e-05
3.36248e-05
3.33889e-05
3.32325e-05
3.34769e-05
5.85855e-05
6.30647e-05
4.19734e-05
4.74249e-05
5.90663e-05
6.27619e-05
4.20361e-05
7.04033e-05
7.05523e-05
5.87188e-05
4.20027e-05
6.32429e-05
4.74481e-05
5.90098e-05
4.20806e-05
6.31625e-05
6.88844e-05
6.88814e-05
5.04711e-05
6.83653e-05
6.84184e-05
6.77825e-05
7.24589e-05
6.82493e-05
7.22839e-05
7.07019e-05
7.06322e-05
6.72561e-05
7.24503e-05
6.82457e-05
7.22409e-05
3.36332e-05
3.33864e-05
3.35993e-05
3.38167e-05
3.41288e-05
3.42746e-05
3.40813e-05
5.95003e-05
6.43327e-05
4.23579e-05
4.84963e-05
5.86613e-05
6.48305e-05
4.26063e-05
7.06283e-05
7.06082e-05
5.90181e-05
4.22802e-05
6.35169e-05
4.80076e-05
5.87216e-05
4.24593e-05
6.35593e-05
6.94551e-05
6.94327e-05
5.11534e-05
6.99228e-05
6.97339e-05
6.72362e-05
7.29606e-05
6.68055e-05
7.33556e-05
7.04487e-05
7.06055e-05
6.82981e-05
7.30349e-05
6.66732e-05
7.34955e-05
3.42075e-05
3.45643e-05
3.42334e-05
3.50338e-05
3.47022e-05
3.48807e-05
3.44718e-05
5.88778e-05
6.32356e-05
4.31565e-05
4.83384e-05
5.95488e-05
6.25428e-05
4.31794e-05
7.06891e-05
7.0703e-05
5.97839e-05
4.31796e-05
6.46604e-05
4.93294e-05
5.93677e-05
4.34304e-05
6.53951e-05
6.89583e-05
6.88858e-05
5.06193e-05
6.815e-05
6.84701e-05
6.89465e-05
7.2895e-05
6.89529e-05
7.24252e-05
7.09313e-05
7.0838e-05
6.76623e-05
7.28445e-05
6.94331e-05
7.22451e-05
3.50049e-05
3.48542e-05
3.46434e-05
3.52536e-05
3.54988e-05
3.49082e-05
3.5623e-05
5.98338e-05
6.4538e-05
4.33502e-05
4.96297e-05
5.88114e-05
6.57952e-05
4.36509e-05
7.03418e-05
7.0407e-05
5.88583e-05
4.37038e-05
6.35131e-05
4.81936e-05
5.97891e-05
4.36421e-05
6.13322e-05
6.84914e-05
6.87974e-05
5.19016e-05
6.96156e-05
6.91311e-05
6.69273e-05
7.26615e-05
6.72992e-05
7.31282e-05
7.03729e-05
7.04836e-05
6.75962e-05
7.27236e-05
6.59753e-05
7.33989e-05
3.55091e-05
3.51097e-05
3.59606e-05
3.57718e-05
3.55626e-05
3.64448e-05
3.62688e-05
5.9953e-05
6.4159e-05
4.43738e-05
4.88715e-05
6.04198e-05
6.23385e-05
4.43827e-05
7.10324e-05
7.12618e-05
6.02291e-05
4.36271e-05
6.30775e-05
5.01311e-05
5.84233e-05
4.39224e-05
6.70796e-05
7.2019e-05
7.13047e-05
5.4203e-05
7.19347e-05
7.19523e-05
6.86447e-05
7.33371e-05
6.79174e-05
7.31447e-05
7.10972e-05
7.12822e-05
6.92226e-05
7.34614e-05
7.00572e-05
7.29309e-05
3.56773e-05
3.64887e-05
3.62101e-05
3.66774e-05
3.68297e-05
3.62019e-05
3.59341e-05
5.93538e-05
6.28579e-05
4.43546e-05
4.96628e-05
5.92383e-05
6.51027e-05
4.44097e-05
7.04445e-05
7.01505e-05
6.05658e-05
4.52747e-05
6.74012e-05
5.01591e-05
6.20146e-05
4.52445e-05
6.27837e-05
6.76932e-05
6.86511e-05
4.93103e-05
6.55986e-05
6.58604e-05
6.84466e-05
7.29955e-05
6.88801e-05
7.30872e-05
7.08854e-05
7.06175e-05
6.64475e-05
7.27319e-05
6.6284e-05
7.31567e-05
3.70808e-05
3.61936e-05
3.59492e-05
3.69759e-05
3.71762e-05
3.69852e-05
3.70546e-05
6.02898e-05
6.61835e-05
4.51013e-05
5.101e-05
5.99439e-05
6.49122e-05
4.52763e-05
7.09017e-05
7.14264e-05
5.74022e-05
4.43551e-05
5.98613e-05
4.87442e-05
5.71629e-05
4.43277e-05
6.30831e-05
6.80643e-05
6.67797e-05
5.28356e-05
7.1079e-05
7.03395e-05
6.79688e-05
7.32429e-05
6.79372e-05
7.32758e-05
7.06926e-05
7.09744e-05
6.99589e-05
7.35534e-05
6.94351e-05
7.34142e-05
3.71542e-05
3.75905e-05
3.76295e-05
3.76535e-05
3.7219e-05
3.80385e-05
3.81365e-05
6.05599e-05
6.33343e-05
4.55569e-05
4.98608e-05
6.0535e-05
6.34302e-05
4.55902e-05
7.13289e-05
7.07549e-05
6.29516e-05
4.57371e-05
6.82968e-05
5.20909e-05
6.20806e-05
4.63858e-05
6.79416e-05
7.30929e-05
7.3616e-05
5.53539e-05
7.11574e-05
7.20902e-05
6.86523e-05
7.32284e-05
6.85424e-05
7.31873e-05
7.11744e-05
7.11563e-05
6.75391e-05
7.30168e-05
6.8402e-05
7.29925e-05
3.73764e-05
3.79531e-05
3.8089e-05
3.79637e-05
3.80901e-05
3.77458e-05
3.77886e-05
6.0271e-05
6.48552e-05
4.5849e-05
5.09415e-05
6.03775e-05
6.51244e-05
4.59678e-05
7.04699e-05
7.08108e-05
5.90449e-05
4.65028e-05
6.30649e-05
5.00671e-05
6.05984e-05
4.61497e-05
6.21816e-05
6.8219e-05
6.81498e-05
5.13015e-05
6.77731e-05
6.73789e-05
6.82313e-05
7.31973e-05
6.84044e-05
7.33089e-05
7.10374e-05
7.10517e-05
6.83336e-05
7.32653e-05
6.76057e-05
7.34358e-05
3.82415e-05
3.77637e-05
3.77779e-05
3.82676e-05
3.84761e-05
3.83572e-05
3.80674e-05
6.0137e-05
6.47246e-05
4.61402e-05
5.12013e-05
6.01161e-05
6.44373e-05
4.61585e-05
7.12641e-05
7.13222e-05
6.00108e-05
4.56419e-05
6.39532e-05
5.06268e-05
5.88362e-05
4.56744e-05
6.52004e-05
6.89875e-05
6.88064e-05
5.25657e-05
6.97383e-05
6.98332e-05
6.86361e-05
7.34771e-05
6.83517e-05
7.35175e-05
7.1164e-05
7.12161e-05
6.89138e-05
7.35252e-05
6.89116e-05
7.35026e-05
3.85392e-05
3.85642e-05
3.84147e-05
3.89876e-05
3.89051e-05
3.89652e-05
3.91429e-05
6.08475e-05
6.45496e-05
4.63924e-05
5.12479e-05
6.05021e-05
6.49498e-05
4.65525e-05
7.11544e-05
7.1103e-05
6.12358e-05
4.64827e-05
6.55997e-05
5.16314e-05
6.11467e-05
4.6744e-05
6.50765e-05
7.06696e-05
7.09135e-05
5.45197e-05
7.08533e-05
7.09934e-05
6.88043e-05
7.35002e-05
6.88174e-05
7.34818e-05
7.12081e-05
7.11961e-05
6.85708e-05
7.34693e-05
6.86112e-05
7.34792e-05
3.90452e-05
3.90381e-05
3.92607e-05
6.10068e-05
6.51694e-05
4.70282e-05
5.17646e-05
6.10861e-05
6.50266e-05
4.71213e-05
7.11507e-05
7.12511e-05
6.07002e-05
4.70433e-05
6.45227e-05
5.1538e-05
6.08776e-05
4.70517e-05
6.45507e-05
7.02158e-05
7.01272e-05
5.36231e-05
6.9698e-05
6.96003e-05
6.95678e-05
6.95708e-05
4.2321e-05
6.70324e-05
6.70415e-05
6.95924e-05
6.95686e-05
6.95954e-05
6.95716e-05
4.24647e-05
6.70226e-05
6.70336e-05
6.70261e-05
6.70363e-05
6.48589e-05
7.14174e-05
5.36086e-05
3.71378e-05
6.0415e-05
2.95016e-05
5.36065e-05
3.71338e-05
6.04074e-05
2.95e-05
6.48774e-05
7.14453e-05
7.14088e-05
6.49719e-05
6.48784e-05
7.14547e-05
7.14237e-05
6.49785e-05
5.36502e-05
3.73515e-05
6.04921e-05
2.9993e-05
6.04285e-05
2.97485e-05
5.38453e-05
5.36492e-05
3.73805e-05
6.05854e-05
3e-05
6.04428e-05
2.97496e-05
5.38517e-05
4.23399e-05
6.70744e-05
6.7064e-05
6.95752e-05
6.96028e-05
6.95808e-05
4.25194e-05
6.7186e-05
6.71711e-05
6.7109e-05
6.71009e-05
6.95989e-05
6.95779e-05
5.36077e-05
3.71346e-05
6.04174e-05
2.95041e-05
6.48532e-05
7.14124e-05
5.36007e-05
3.71135e-05
2.95003e-05
6.03817e-05
6.48771e-05
7.14515e-05
7.14151e-05
6.49748e-05
5.3649e-05
3.73486e-05
6.04971e-05
2.99938e-05
6.04314e-05
2.97497e-05
5.38454e-05
6.48728e-05
7.14523e-05
7.14195e-05
6.49778e-05
5.3643e-05
3.73585e-05
2.99954e-05
6.05859e-05
2.97467e-05
6.04211e-05
5.38473e-05
6.48526e-05
7.14147e-05
5.3606e-05
3.71398e-05
2.95054e-05
6.039e-05
6.48509e-05
7.14065e-05
5.36467e-05
3.73786e-05
6.05806e-05
3e-05
6.04401e-05
2.97504e-05
5.38473e-05
6.48712e-05
7.14545e-05
7.14214e-05
6.49761e-05
5.3646e-05
3.73654e-05
2.99977e-05
6.05351e-05
2.9752e-05
6.04109e-05
5.38419e-05
6.48684e-05
7.14542e-05
7.14137e-05
6.49706e-05
4.23094e-05
6.70495e-05
6.70411e-05
6.9576e-05
6.9605e-05
6.95794e-05
4.24959e-05
6.71901e-05
6.71883e-05
6.7091e-05
6.70805e-05
6.96061e-05
6.95796e-05
5.36047e-05
3.71369e-05
2.95076e-05
6.0393e-05
6.48476e-05
7.14121e-05
6.48501e-05
7.14111e-05
5.36414e-05
3.73578e-05
2.99962e-05
6.05858e-05
2.97483e-05
6.04182e-05
5.38432e-05
5.36446e-05
3.73625e-05
2.99983e-05
6.05401e-05
2.97532e-05
6.04141e-05
5.3841e-05
6.48663e-05
7.14551e-05
7.14194e-05
6.49757e-05
6.48677e-05
7.14589e-05
7.14183e-05
6.49725e-05
6.95699e-05
6.95726e-05
4.25069e-05
6.71206e-05
6.71334e-05
6.7031e-05
6.70408e-05
6.95996e-05
6.95723e-05
6.96025e-05
6.9575e-05
6.95971e-05
6.96363e-05
6.96e-05
6.96391e-05
6.70393e-05
6.70501e-05
4.30151e-05
6.7211e-05
6.72207e-05
6.96683e-05
6.96404e-05
6.96709e-05
6.9643e-05
4.32118e-05
6.73856e-05
6.73934e-05
6.72559e-05
6.72648e-05
6.50794e-05
7.14599e-05
6.49942e-05
7.1491e-05
5.40674e-05
6.05111e-05
3.02353e-05
3.80036e-05
5.3884e-05
6.06563e-05
3.04778e-05
5.40741e-05
6.06036e-05
3.02476e-05
3.80405e-05
5.38913e-05
6.06765e-05
3.04907e-05
6.50933e-05
7.15426e-05
7.15052e-05
6.51942e-05
6.50953e-05
7.15368e-05
7.14976e-05
6.5192e-05
5.41057e-05
3.8252e-05
6.08735e-05
3.0972e-05
6.06953e-05
3.07232e-05
5.42954e-05
5.4111e-05
3.82432e-05
6.07936e-05
3.09706e-05
6.06902e-05
3.07309e-05
5.42923e-05
6.71868e-05
6.71715e-05
4.30434e-05
6.71787e-05
6.71634e-05
6.95987e-05
6.96166e-05
6.9658e-05
6.96229e-05
4.31744e-05
6.72668e-05
6.72651e-05
6.71787e-05
6.7165e-05
6.96551e-05
6.96193e-05
5.40724e-05
6.05164e-05
3.02359e-05
3.80018e-05
5.38847e-05
6.06617e-05
3.04794e-05
6.50841e-05
7.14572e-05
6.4995e-05
7.14856e-05
5.40777e-05
3.02452e-05
6.06097e-05
3.80515e-05
5.38883e-05
3.04929e-05
6.06794e-05
6.50991e-05
7.15478e-05
7.15114e-05
6.51951e-05
5.41108e-05
3.82502e-05
6.08773e-05
3.09754e-05
6.07004e-05
3.07257e-05
5.42986e-05
6.50988e-05
7.15343e-05
7.1492e-05
6.51862e-05
5.41145e-05
3.82483e-05
3.09748e-05
6.0757e-05
3.07362e-05
6.06869e-05
5.4291e-05
6.50931e-05
7.14601e-05
6.49948e-05
7.14918e-05
5.40815e-05
3.02438e-05
6.0564e-05
3.80557e-05
5.38831e-05
3.04907e-05
6.07117e-05
6.50928e-05
7.14614e-05
6.49898e-05
7.14963e-05
5.41216e-05
3.82425e-05
6.07974e-05
3.09749e-05
6.06894e-05
3.07333e-05
5.43046e-05
6.51096e-05
7.15364e-05
7.14984e-05
6.52002e-05
5.41212e-05
3.82839e-05
3.09841e-05
6.08406e-05
3.07382e-05
6.07369e-05
5.43076e-05
6.511e-05
7.15322e-05
7.15017e-05
6.52003e-05
6.71924e-05
6.71929e-05
4.30579e-05
6.71701e-05
6.71778e-05
6.96066e-05
6.96215e-05
6.96557e-05
6.96215e-05
4.31886e-05
6.72214e-05
6.72198e-05
6.71626e-05
6.71696e-05
6.96551e-05
6.96229e-05
5.40854e-05
3.02442e-05
6.05692e-05
3.80538e-05
5.38831e-05
3.04919e-05
6.07177e-05
6.5098e-05
7.14605e-05
6.49959e-05
7.14898e-05
6.50983e-05
7.14661e-05
6.49926e-05
7.15012e-05
5.41255e-05
3.82499e-05
3.098e-05
6.0769e-05
3.07396e-05
6.06969e-05
5.4303e-05
5.41257e-05
3.82819e-05
3.0987e-05
6.08449e-05
3.07406e-05
6.07428e-05
5.43096e-05
6.51133e-05
7.15362e-05
7.1496e-05
6.5194e-05
6.51149e-05
7.15357e-05
7.15065e-05
6.51999e-05
6.96027e-05
6.96306e-05
6.96056e-05
6.96335e-05
4.32431e-05
6.73017e-05
6.73109e-05
6.72734e-05
6.72846e-05
6.96525e-05
6.96325e-05
6.96552e-05
6.96354e-05
6.96694e-05
6.96842e-05
6.96721e-05
6.96872e-05
6.74057e-05
6.74139e-05
4.38234e-05
6.74174e-05
6.7428e-05
6.97064e-05
6.96844e-05
6.97095e-05
6.96875e-05
4.39511e-05
6.73964e-05
6.74134e-05
6.74082e-05
6.74209e-05
6.5315e-05
7.15446e-05
6.52111e-05
7.15842e-05
5.45291e-05
6.09011e-05
3.12218e-05
3.8958e-05
5.43357e-05
6.10002e-05
3.14686e-05
5.45238e-05
6.08215e-05
3.12119e-05
3.8893e-05
5.43316e-05
6.09625e-05
3.14547e-05
6.53314e-05
7.16133e-05
7.15838e-05
6.541e-05
6.53316e-05
7.16244e-05
7.15905e-05
6.54126e-05
5.4567e-05
3.91557e-05
6.10666e-05
3.19486e-05
6.10113e-05
3.17106e-05
5.47396e-05
5.45626e-05
3.91104e-05
6.10861e-05
3.1939e-05
6.09856e-05
3.16975e-05
5.474e-05
6.72989e-05
6.72966e-05
4.37092e-05
6.73998e-05
6.73795e-05
6.9659e-05
6.96875e-05
6.97185e-05
6.96949e-05
4.38724e-05
6.74415e-05
6.74136e-05
6.741e-05
6.73868e-05
6.97143e-05
6.96893e-05
5.45289e-05
6.09045e-05
3.12244e-05
3.89557e-05
5.43378e-05
6.1004e-05
3.14705e-05
6.53128e-05
7.15435e-05
6.52043e-05
7.15871e-05
5.45197e-05
3.12129e-05
6.07909e-05
3.89065e-05
5.43287e-05
3.14553e-05
6.09914e-05
6.53353e-05
7.16213e-05
7.159e-05
6.54266e-05
5.45677e-05
3.91539e-05
6.10763e-05
3.1952e-05
6.10158e-05
3.17122e-05
5.47503e-05
6.53329e-05
7.16182e-05
7.15926e-05
6.54299e-05
5.45605e-05
3.91545e-05
3.19534e-05
6.11415e-05
3.17038e-05
6.10333e-05
5.47534e-05
6.53055e-05
7.15436e-05
6.52162e-05
7.15808e-05
5.45194e-05
3.12262e-05
6.08542e-05
3.88937e-05
5.43444e-05
3.1464e-05
6.09269e-05
6.53027e-05
7.15382e-05
6.52156e-05
7.15747e-05
5.45568e-05
3.91095e-05
6.10737e-05
3.1937e-05
6.09787e-05
3.16983e-05
5.47309e-05
6.53211e-05
7.16239e-05
7.15874e-05
6.54069e-05
5.45552e-05
3.90954e-05
3.19367e-05
6.10652e-05
3.16999e-05
6.09462e-05
5.4729e-05
6.53187e-05
7.16201e-05
7.15819e-05
6.54071e-05
6.72872e-05
6.72793e-05
4.37531e-05
6.74566e-05
6.74461e-05
6.96611e-05
6.96967e-05
6.97171e-05
6.96995e-05
4.39389e-05
6.75077e-05
6.75024e-05
6.74879e-05
6.74773e-05
6.9718e-05
6.96993e-05
5.45174e-05
3.12286e-05
6.0858e-05
3.88911e-05
5.43454e-05
3.14653e-05
6.09292e-05
6.53028e-05
7.15446e-05
6.52089e-05
7.15865e-05
6.53026e-05
7.15416e-05
6.52143e-05
7.15784e-05
5.45544e-05
3.91541e-05
3.1952e-05
6.11407e-05
3.17049e-05
6.10261e-05
5.47443e-05
5.45544e-05
3.90927e-05
3.19392e-05
6.10736e-05
3.17009e-05
6.0949e-05
5.47379e-05
6.5322e-05
7.16219e-05
7.15925e-05
6.54244e-05
6.53208e-05
7.16265e-05
7.1586e-05
6.54217e-05
6.96537e-05
6.96805e-05
6.96564e-05
6.96833e-05
4.38216e-05
6.7432e-05
6.74505e-05
6.73269e-05
6.73358e-05
6.97206e-05
6.96853e-05
6.97244e-05
6.96882e-05
6.97106e-05
6.97482e-05
6.97135e-05
6.97501e-05
6.74053e-05
6.74233e-05
4.43751e-05
6.75334e-05
6.75442e-05
6.97818e-05
6.97523e-05
6.97837e-05
6.97541e-05
4.45304e-05
6.76665e-05
6.76678e-05
6.75666e-05
6.7574e-05
6.55001e-05
7.16312e-05
6.54247e-05
7.16737e-05
5.49312e-05
6.10819e-05
3.21842e-05
3.97453e-05
5.47725e-05
6.11946e-05
3.24183e-05
5.49348e-05
6.11036e-05
3.21786e-05
3.97513e-05
5.47738e-05
6.12133e-05
3.24166e-05
6.55148e-05
7.17136e-05
7.16704e-05
6.5628e-05
6.55175e-05
7.17246e-05
7.16824e-05
6.56313e-05
5.49661e-05
3.99502e-05
6.13698e-05
3.28865e-05
6.1223e-05
3.26519e-05
5.51487e-05
5.49698e-05
3.9971e-05
6.14037e-05
3.28937e-05
6.12423e-05
3.26544e-05
5.51532e-05
6.74507e-05
6.74281e-05
4.44185e-05
6.75608e-05
6.75519e-05
6.97177e-05
6.97515e-05
6.97859e-05
6.97578e-05
4.45844e-05
6.77259e-05
6.77108e-05
6.76006e-05
6.75925e-05
6.97825e-05
6.97548e-05
5.49452e-05
6.10923e-05
3.21899e-05
3.97462e-05
5.47851e-05
6.12036e-05
3.2426e-05
6.55066e-05
7.16231e-05
6.54425e-05
7.16563e-05
5.49464e-05
3.2197e-05
6.11486e-05
3.97483e-05
5.47889e-05
3.24307e-05
6.11653e-05
6.55218e-05
7.17156e-05
7.16747e-05
6.56141e-05
5.49773e-05
3.9951e-05
6.13677e-05
3.28905e-05
6.12304e-05
3.2659e-05
5.51418e-05
6.55187e-05
7.1715e-05
7.16649e-05
6.5609e-05
5.49769e-05
3.99263e-05
3.28861e-05
6.13223e-05
3.26581e-05
6.11759e-05
5.51358e-05
6.55042e-05
7.16313e-05
6.54214e-05
7.16733e-05
5.49338e-05
3.21752e-05
6.10881e-05
3.97364e-05
5.47643e-05
3.24137e-05
6.1196e-05
6.55019e-05
7.1627e-05
6.54218e-05
7.1667e-05
5.49716e-05
3.99694e-05
6.13994e-05
3.28935e-05
6.12408e-05
3.26534e-05
5.51521e-05
6.55206e-05
7.17219e-05
7.16814e-05
6.56244e-05
5.49688e-05
3.99501e-05
3.28884e-05
6.13623e-05
3.26509e-05
6.12188e-05
5.51464e-05
6.55174e-05
7.17226e-05
7.16756e-05
6.56184e-05
6.74987e-05
6.74953e-05
4.43843e-05
6.74542e-05
6.74549e-05
6.97177e-05
6.97352e-05
6.97851e-05
6.97388e-05
4.44972e-05
6.7628e-05
6.76165e-05
6.7457e-05
6.74567e-05
6.97845e-05
6.97395e-05
5.49477e-05
3.21804e-05
6.1098e-05
3.97375e-05
5.47755e-05
3.24209e-05
6.12093e-05
6.5512e-05
7.16271e-05
6.54396e-05
7.16592e-05
6.55133e-05
7.16334e-05
6.54375e-05
7.16713e-05
5.49803e-05
3.99278e-05
3.28874e-05
6.13162e-05