/*--------------------------------*- C++ -*----------------------------------*\
| =========                 |                                                 |
| \\      /  F ield         | OpenFOAM: The Open Source CFD Toolbox           |
|  \\    /   O peration     | Version:  v1906                                 |
|   \\  /    A nd           | Web:      www.OpenFOAM.com                      |
|    \\/     M anipulation  |                                                 |
\*---------------------------------------------------------------------------*/
FoamFile
{
    version     2.0;
    format      ascii;
    class       volScalarField;
    location    "500";
    object      k;
}
// * * * * * * * * * * * * * * * * * * * * * * * * * * * * * * * * * * * * * //

dimensions      [0 2 -2 0 0 0 0];


internalField   nonuniform List<scalar> 
43248
(
4.19589e-05
3.66701e-05
3.6662e-05
4.19549e-05
3.66671e-05
3.6669e-05
3.666e-05
3.66678e-05
4.19423e-05
3.66688e-05
3.66664e-05
4.19583e-05
2.10106e-05
2.10084e-05
2.10151e-05
2.1007e-05
6.95462e-05
6.95481e-05
6.69827e-05
6.69871e-05
6.46344e-05
7.13665e-05
6.47343e-05
6.4639e-05
7.13694e-05
7.13314e-05
6.47333e-05
5.31622e-05
6.02615e-05
2.9008e-05
2.87628e-05
5.33624e-05
5.31665e-05
3.64403e-05
6.02287e-05
2.90096e-05
6.01302e-05
2.87654e-05
5.33629e-05
6.95413e-05
6.95194e-05
4.17587e-05
6.69093e-05
6.6889e-05
6.68753e-05
6.6855e-05
6.95381e-05
6.95146e-05
7.13716e-05
6.47407e-05
6.02644e-05
2.90122e-05
5.33688e-05
7.13598e-05
6.4737e-05
2.9016e-05
6.02205e-05
5.33673e-05
5.31643e-05
3.64379e-05
6.02241e-05
2.90088e-05
6.0125e-05
2.87635e-05
5.33676e-05
6.46404e-05
7.13686e-05
7.13319e-05
6.47392e-05
5.31604e-05
3.64243e-05
2.90076e-05
6.02642e-05
2.87589e-05
6.01186e-05
5.33684e-05
6.4638e-05
7.13667e-05
7.13329e-05
6.47411e-05
6.95354e-05
6.68828e-05
6.6889e-05
6.95365e-05
5.31684e-05
2.90162e-05
6.02278e-05
2.87701e-05
5.33722e-05
5.3166e-05
3.64231e-05
2.90114e-05
6.02707e-05
2.87625e-05
6.0125e-05
5.33742e-05
6.46454e-05
7.13624e-05
6.47434e-05
6.46455e-05
7.13711e-05
7.13378e-05
6.47472e-05
4.17299e-05
6.69604e-05
6.69738e-05
6.68783e-05
6.68899e-05
6.95457e-05
6.95215e-05
6.95485e-05
6.95241e-05
6.95334e-05
6.95352e-05
7.01614e-05
5.94696e-05
6.69388e-05
7.11565e-05
7.11429e-05
5.939e-05
7.01854e-05
7.02142e-05
5.94643e-05
6.69427e-05
7.11657e-05
7.11525e-05
5.9404e-05
7.02183e-05
9.25047e-05
7.20481e-05
7.2041e-05
7.20457e-05
7.20391e-05
9.2491e-05
7.01261e-05
6.98238e-05
6.81299e-05
6.46743e-05
7.01161e-05
6.98336e-05
6.81669e-05
7.0188e-05
7.13519e-05
7.74063e-05
7.73818e-05
7.02002e-05
7.01293e-05
6.46925e-05
6.98474e-05
6.82221e-05
6.98374e-05
6.81831e-05
7.01394e-05
7.01283e-05
6.98246e-05
6.81424e-05
6.46769e-05
7.01186e-05
6.98344e-05
6.81733e-05
7.01886e-05
7.13531e-05
7.74117e-05
7.73863e-05
7.01997e-05
7.01897e-05
7.73585e-05
7.1346e-05
7.01791e-05
7.73769e-05
7.01315e-05
6.46939e-05
6.98481e-05
6.82203e-05
6.98381e-05
6.81864e-05
7.01415e-05
6.95301e-05
6.95284e-05
9.21915e-05
7.19979e-05
7.20031e-05
9.21907e-05
7.20087e-05
7.2014e-05
7.00608e-05
5.94044e-05
6.68928e-05
7.11665e-05
5.93437e-05
7.11437e-05
7.01421e-05
7.0008e-05
5.93922e-05
6.68692e-05
7.11548e-05
7.11312e-05
5.93316e-05
7.00893e-05
7.00335e-05
7.11211e-05
5.92684e-05
6.68867e-05
5.93156e-05
7.00236e-05
7.11346e-05
6.9981e-05
7.11084e-05
5.92575e-05
6.68621e-05
6.99712e-05
7.11217e-05
5.93036e-05
9.22203e-05
7.20523e-05
7.20579e-05
7.20182e-05
7.20236e-05
9.2343e-05
6.95257e-05
6.95239e-05
7.019e-05
7.13569e-05
7.74247e-05
7.74012e-05
7.02015e-05
7.01316e-05
6.47003e-05
6.82299e-05
6.98488e-05
6.81927e-05
6.98389e-05
7.01415e-05
7.01856e-05
7.13449e-05
7.73859e-05
7.73646e-05
7.01972e-05
7.01292e-05
6.4699e-05
6.98481e-05
6.82159e-05
6.98382e-05
6.81845e-05
7.01393e-05
7.01293e-05
6.81438e-05
6.98255e-05
6.46818e-05
7.01194e-05
6.81784e-05
6.98357e-05
7.01894e-05
7.13532e-05
7.74148e-05
7.7394e-05
7.02e-05
7.01909e-05
7.73645e-05
7.13463e-05
7.01804e-05
7.73861e-05
7.01325e-05
6.46994e-05
6.82249e-05
6.98494e-05
6.81917e-05
6.98395e-05
7.01422e-05
7.01283e-05
6.9825e-05
6.81388e-05
6.46814e-05
7.01183e-05
6.98351e-05
6.81782e-05
7.01902e-05
7.13536e-05
7.74031e-05
7.73866e-05
7.02006e-05
7.01915e-05
7.7356e-05
7.13476e-05
7.01804e-05
7.73801e-05
7.01315e-05
6.46999e-05
6.98489e-05
6.82286e-05
6.9839e-05
6.81932e-05
7.01413e-05
6.95248e-05
7.00295e-05
5.93639e-05
6.68796e-05
7.11469e-05
5.93272e-05
7.11285e-05
7.00441e-05
6.99794e-05
5.93617e-05
6.68845e-05
7.11395e-05
7.11213e-05
5.93229e-05
6.99946e-05
9.21617e-05
7.20205e-05
7.20269e-05
7.20002e-05
7.20066e-05
9.21776e-05
6.95266e-05
7.01282e-05
6.81445e-05
6.98258e-05
6.46874e-05
7.01183e-05
6.81796e-05
6.98359e-05
7.0189e-05
7.13484e-05
7.73937e-05
7.7377e-05
7.01992e-05
7.01906e-05
7.73712e-05
7.01313e-05
6.47047e-05
6.82234e-05
6.98497e-05
6.81923e-05
6.98397e-05
7.0141e-05
7.01297e-05
6.81485e-05
6.98264e-05
6.46891e-05
7.01198e-05
6.81871e-05
6.98364e-05
7.0191e-05
7.13581e-05
7.74199e-05
7.74056e-05
7.02019e-05
7.01932e-05
7.73783e-05
7.13522e-05
7.01819e-05
7.74001e-05
7.01328e-05
6.47072e-05
6.82348e-05
6.98501e-05
6.82013e-05
6.98402e-05
7.01425e-05
9.23703e-05
7.2032e-05
7.2026e-05
9.23659e-05
7.2039e-05
7.2033e-05
7.0098e-05
5.9445e-05
6.69336e-05
7.11602e-05
5.93761e-05
7.11464e-05
7.01324e-05
7.01511e-05
5.94565e-05
6.69461e-05
7.11717e-05
5.93875e-05
7.11579e-05
7.0185e-05
7.008e-05
7.11231e-05
5.92584e-05
6.69182e-05
7.00273e-05
5.93397e-05
7.11402e-05
7.01331e-05
7.11345e-05
5.92696e-05
6.69307e-05
7.00809e-05
5.93512e-05
7.11517e-05
9.23672e-05
7.20418e-05
7.20356e-05
7.20359e-05
7.20298e-05
9.2356e-05
6.95352e-05
6.95334e-05
6.95379e-05
6.9536e-05
5.96619e-05
4.19391e-05
5.0675e-05
5.06697e-05
5.06296e-05
5.06369e-05
5.97146e-05
5.95713e-05
4.19394e-05
5.06439e-05
5.06419e-05
5.06061e-05
5.06038e-05
5.96489e-05
5.95326e-05
4.19329e-05
5.0613e-05
5.06134e-05
5.05853e-05
5.05852e-05
5.95724e-05
5.96276e-05
4.19358e-05
5.06635e-05
5.06677e-05
5.06225e-05
5.06269e-05
5.96891e-05
1.50252e-05
1.50247e-05
1.49123e-05
1.08488e-05
1.08769e-05
2.08238e-05
1.50249e-05
1.5023e-05
1.49115e-05
1.49097e-05
1.08483e-05
1.08766e-05
1.50277e-05
1.50262e-05
1.49135e-05
1.08497e-05
1.08776e-05
2.08175e-05
1.50245e-05
1.50237e-05
1.49112e-05
1.49107e-05
1.08493e-05
1.08772e-05
4.56377e-05
5.54735e-05
4.36661e-05
5.32412e-05
4.56195e-05
5.55473e-05
4.36981e-05
4.8151e-05
5.26435e-05
6.01967e-05
5.85773e-05
5.25996e-05
5.85092e-05
4.81802e-05
4.57928e-05
5.32828e-05
5.56627e-05
4.38801e-05
5.55865e-05
4.3848e-05
4.58121e-05
4.56478e-05
5.54869e-05
4.3669e-05
5.32448e-05
4.56299e-05
5.55569e-05
4.37011e-05
4.81592e-05
5.26252e-05
6.01881e-05
5.85669e-05
5.85121e-05
5.25916e-05
4.81823e-05
4.80364e-05
5.84287e-05
5.24752e-05
6.01693e-05
4.80119e-05
5.84829e-05
5.25078e-05
4.58009e-05
5.32854e-05
5.56618e-05
4.38823e-05
5.55927e-05
4.38509e-05
4.58177e-05
5.95214e-05
4.17746e-05
5.04721e-05
5.04701e-05
5.05051e-05
5.94819e-05
5.05032e-05
4.81566e-05
5.26449e-05
6.02016e-05
5.85856e-05
5.26054e-05
5.85189e-05
4.81846e-05
4.57994e-05
5.32899e-05
5.56701e-05
4.38858e-05
5.5595e-05
4.3854e-05
4.58181e-05
4.81605e-05
5.26163e-05
6.01899e-05
5.85603e-05
5.85107e-05
5.25886e-05
4.81813e-05
4.58037e-05
5.32904e-05
4.38867e-05
5.56617e-05
4.38555e-05
5.55945e-05
4.58196e-05
4.56452e-05
5.54849e-05
4.36653e-05
5.32458e-05
4.56267e-05
5.55576e-05
4.36983e-05
4.81583e-05
5.26215e-05
6.01831e-05
5.85692e-05
5.25875e-05
5.8514e-05
4.81818e-05
4.80343e-05
5.84277e-05
5.24707e-05
6.01639e-05
4.80094e-05
5.25035e-05
5.84841e-05
4.58e-05
5.32878e-05
5.56654e-05
4.38826e-05
5.55947e-05
4.385e-05
4.58174e-05
4.56355e-05
4.36613e-05
5.54749e-05
5.32435e-05
4.56148e-05
4.3695e-05
5.55538e-05
4.81561e-05
5.26454e-05
6.02093e-05
5.85837e-05
5.85191e-05
5.26046e-05
4.81856e-05
4.80201e-05
5.84141e-05
5.24545e-05
6.01814e-05
4.79896e-05
5.84836e-05
5.24987e-05
4.57949e-05
5.32865e-05
4.38813e-05
5.56706e-05
4.38478e-05
5.5594e-05
4.58154e-05
4.56499e-05
4.36694e-05
5.54884e-05
5.32507e-05
4.56314e-05
4.37027e-05
5.55619e-05
4.8163e-05
5.26191e-05
6.01952e-05
5.85685e-05
5.25906e-05
5.85176e-05
4.81844e-05
4.8041e-05
5.84895e-05
4.58041e-05
5.32929e-05
4.3887e-05
5.56678e-05
4.38546e-05
5.55986e-05
4.5821e-05
4.56407e-05
4.36656e-05
5.5482e-05
5.32497e-05
4.56199e-05
4.36996e-05
5.5561e-05
4.81611e-05
5.2651e-05
6.02159e-05
5.8592e-05
5.8528e-05
5.26104e-05
4.81903e-05
4.80248e-05
5.84233e-05
5.246e-05
6.0188e-05
4.79943e-05
5.84928e-05
5.25041e-05
4.58004e-05
5.32929e-05
4.38862e-05
5.56771e-05
4.38528e-05
5.56013e-05
4.58207e-05
5.95795e-05
4.17542e-05
5.04546e-05
5.04589e-05
5.95056e-05
5.05003e-05
5.05044e-05
1.49644e-05
1.65587e-05
1.64766e-05
1.83724e-05
1.8596e-05
1.63323e-05
1.65272e-05
1.96405e-05
1.63188e-05
1.64856e-05
1.64975e-05
1.63176e-05
1.93105e-05
1.64701e-05
1.63e-05
1.84925e-05
1.85991e-05
1.84113e-05
1.62835e-05
1.65759e-05
1.62164e-05
1.64484e-05
1.98309e-05
1.89627e-05
1.62906e-05
1.6488e-05
1.62409e-05
1.63297e-05
1.62092e-05
1.64631e-05
1.62131e-05
1.93555e-05
1.87764e-05
1.6198e-05
1.63432e-05
1.62034e-05
1.84027e-05
1.50629e-05
1.50951e-05
1.50907e-05
1.50597e-05
5.34541e-05
6.99706e-05
5.27132e-05
7.0038e-05
6.96249e-05
6.96064e-05
5.36114e-05
7.0106e-05
5.3191e-05
7.009e-05
1.50149e-05
1.5002e-05
1.49523e-05
1.46867e-05
1.47324e-05
1.47107e-05
1.4688e-05
2.96196e-05
4.52372e-05
1.49488e-05
1.65677e-05
2.87936e-05
4.60047e-05
1.49102e-05
6.96077e-05
6.95724e-05
2.96376e-05
1.49581e-05
4.54174e-05
1.64677e-05
2.89845e-05
1.49067e-05
4.57434e-05
5.89113e-05
5.8947e-05
1.80334e-05
5.91163e-05
5.92167e-05
6.96404e-05
6.96581e-05
6.96623e-05
6.96717e-05
1.86419e-05
5.89871e-05
5.90613e-05
5.87001e-05
5.86218e-05
5.27475e-05
6.99717e-05
7.00375e-05
5.27152e-05
5.26753e-05
7.00549e-05
7.00794e-05
5.26942e-05
2.84551e-05
1.63464e-05
4.51583e-05
1.50121e-05
4.48408e-05
1.50774e-05
2.88138e-05
2.8345e-05
1.64208e-05
4.50126e-05
1.50218e-05
4.45453e-05
1.50736e-05
2.87747e-05
6.9642e-05
6.96948e-05
1.89177e-05
5.89e-05
5.89152e-05
5.86946e-05
5.85372e-05
6.96518e-05
6.96873e-05
5.23224e-05
7.01059e-05
7.00633e-05
5.30856e-05
2.81283e-05
1.63271e-05
4.51593e-05
1.50023e-05
4.46178e-05
1.50584e-05
2.88108e-05
5.2652e-05
7.00051e-05
7.0121e-05
5.29882e-05
2.83321e-05
1.64583e-05
1.50285e-05
4.53095e-05
1.50807e-05
4.46636e-05
2.89059e-05
2.78161e-05
1.63875e-05
4.48927e-05
1.49928e-05
4.42113e-05
1.50448e-05
2.84098e-05
5.1682e-05
7.01313e-05
6.99809e-05
5.27771e-05
2.8001e-05
1.63928e-05
1.49941e-05
4.5135e-05
1.50608e-05
4.48504e-05
2.85055e-05
5.18896e-05
7.0041e-05
7.0002e-05
5.27429e-05
6.96402e-05
6.96912e-05
1.91523e-05
5.90543e-05
5.90363e-05
5.87432e-05
5.86477e-05
6.96481e-05
6.9689e-05
2.80008e-05
1.64407e-05
1.50081e-05
4.51925e-05
1.50596e-05
4.44724e-05
2.86513e-05
2.79054e-05
1.63843e-05
1.49838e-05
4.51135e-05
1.5049e-05
4.47818e-05
2.85296e-05
5.2083e-05
7.00882e-05
7.00749e-05
5.29541e-05
5.19299e-05
7.00579e-05
6.9975e-05
5.28725e-05
1.89644e-05
5.89186e-05
5.8947e-05
5.88538e-05
5.88702e-05
6.96536e-05
6.9692e-05
6.96494e-05
6.9689e-05
6.96297e-05
6.95944e-05
6.96486e-05
6.95984e-05
5.91146e-05
5.91994e-05
1.84653e-05
5.92595e-05
5.93237e-05
6.95637e-05
6.95709e-05
6.95594e-05
6.957e-05
1.84666e-05
5.94941e-05
5.94777e-05
5.92676e-05
5.93207e-05
5.35418e-05
7.00552e-05
5.27021e-05
7.01206e-05
2.92526e-05
4.52928e-05
1.49413e-05
1.62352e-05
2.89177e-05
4.56017e-05
1.48742e-05
2.93432e-05
4.52365e-05
1.49653e-05
1.65784e-05
2.89164e-05
4.58643e-05
1.49102e-05
5.37883e-05
7.00623e-05
7.00474e-05
5.43809e-05
5.39022e-05
7.01222e-05
7.01305e-05
5.45782e-05
2.95698e-05
1.62159e-05
4.61005e-05
1.47705e-05
4.57513e-05
1.48176e-05
3.03089e-05
2.97051e-05
1.65527e-05
4.65006e-05
1.48129e-05
4.60902e-05
1.48608e-05
3.05126e-05
5.90183e-05
5.90732e-05
1.98267e-05
5.94662e-05
5.9466e-05
6.96341e-05
6.95999e-05
6.95602e-05
6.95872e-05
1.97604e-05
5.9667e-05
5.9679e-05
5.95354e-05
5.95043e-05
6.95579e-05
6.95764e-05
2.95972e-05
4.53991e-05
1.49469e-05
1.62566e-05
2.90946e-05
4.58415e-05
1.48931e-05
5.33539e-05
6.99852e-05
5.30091e-05
7.00132e-05
2.94298e-05
1.49679e-05
4.54386e-05
1.64711e-05
2.90886e-05
1.49026e-05
4.5597e-05
5.37864e-05
7.00624e-05
7.00756e-05
5.44167e-05
2.98484e-05
1.62417e-05
4.61689e-05
1.47925e-05
4.59424e-05
1.48422e-05
3.03867e-05
5.36416e-05
7.0078e-05
7.0045e-05
5.44896e-05
2.96449e-05
1.6401e-05
1.47879e-05
4.63469e-05
1.48416e-05
4.57065e-05
3.03363e-05
5.38309e-05
7.01463e-05
5.30584e-05
7.0139e-05
2.95287e-05
1.49301e-05
4.51701e-05
1.6169e-05
2.88145e-05
1.48736e-05
4.54145e-05
5.37701e-05
7.00665e-05
5.29807e-05
7.01263e-05
2.99516e-05
1.65499e-05
4.65041e-05
1.48247e-05
4.61987e-05
1.48709e-05
3.05859e-05
5.40011e-05
7.00709e-05
7.01108e-05
5.4526e-05
2.98617e-05
1.61715e-05
1.4793e-05
4.63977e-05
1.48292e-05
4.56865e-05
3.05513e-05
5.39744e-05
7.01141e-05
7.01286e-05
5.45603e-05
5.90714e-05
5.90836e-05
1.92292e-05
5.91555e-05
5.9154e-05
6.96161e-05
6.95699e-05
6.9568e-05
6.95638e-05
1.91857e-05
5.98373e-05
5.97422e-05
5.92713e-05
5.92165e-05
6.95648e-05
6.95575e-05
2.96357e-05
1.49247e-05
4.51691e-05
1.61616e-05
2.8882e-05
1.48724e-05
4.54956e-05
5.37944e-05
7.00856e-05
5.3188e-05
7.00648e-05
5.38991e-05
7.00728e-05
5.31829e-05
7.00884e-05
2.98926e-05
1.64172e-05
1.47985e-05
4.63158e-05
1.4854e-05
4.58539e-05
3.0322e-05
2.99012e-05
1.61642e-05
1.47816e-05
4.62735e-05
1.48267e-05
4.57504e-05
3.02955e-05
5.38679e-05
7.00601e-05
7.00559e-05
5.41356e-05
5.3979e-05
7.00195e-05
7.00798e-05
5.40385e-05
6.96327e-05
6.96126e-05
6.96284e-05
6.96119e-05
1.80471e-05
5.97062e-05
5.96616e-05
5.92966e-05
5.93594e-05
6.95618e-05
6.95967e-05
6.95605e-05
6.95949e-05
6.9788e-05
5.29846e-05
6.91586e-05
5.94249e-05
6.91242e-05
5.90557e-05
6.9823e-05
7.09363e-05
7.37633e-05
6.99823e-05
7.0925e-05
7.37949e-05
6.97736e-05
5.27635e-05
6.90965e-05
5.89251e-05
6.97649e-05
6.91092e-05
5.89407e-05
7.09348e-05
7.42019e-05
7.00069e-05
7.39391e-05
7.09474e-05
6.9624e-05
6.96104e-05
6.98436e-05
5.34278e-05
5.98562e-05
6.9151e-05
5.97552e-05
6.91429e-05
6.98421e-05
7.10402e-05
7.4465e-05
7.01054e-05
7.10507e-05
7.45398e-05
6.98541e-05
5.33407e-05
5.95379e-05
6.91392e-05
6.98556e-05
5.96939e-05
6.91424e-05
7.10027e-05
7.45543e-05
7.00964e-05
7.45439e-05
7.09909e-05
6.95983e-05
6.95737e-05
8.30798e-05
7.25602e-05
7.25529e-05
7.22233e-05
7.22176e-05
8.58877e-05
5.45541e-05
3.82554e-05
6.86423e-05
5.89159e-05
5.4561e-05
3.81803e-05
6.86994e-05
5.4641e-05
3.82823e-05
6.86599e-05
5.89606e-05
5.46468e-05
3.82139e-05
6.8719e-05
8.22187e-05
7.18492e-05
7.18456e-05
8.21316e-05
7.19583e-05
7.19536e-05
5.47198e-05
6.88945e-05
5.89542e-05
3.82799e-05
3.81891e-05
6.87818e-05
5.54789e-05
5.48092e-05
6.89123e-05
5.90238e-05
3.83205e-05
3.82248e-05
6.88019e-05
5.55761e-05
6.96393e-05
6.96529e-05
6.96618e-05
6.96706e-05
9.0058e-05
7.2769e-05
7.2763e-05
9.04589e-05
7.26541e-05
7.26512e-05
5.81233e-05
3.95976e-05
5.88327e-05
6.87415e-05
6.87587e-05
3.96145e-05
5.77395e-05
5.81637e-05
3.95904e-05
5.88673e-05
6.87634e-05
6.87766e-05
3.96017e-05
5.77928e-05
5.83574e-05
6.88232e-05
3.95582e-05
5.87407e-05
5.8421e-05
6.8795e-05
3.96121e-05
5.84013e-05
6.88305e-05
3.95304e-05
5.87147e-05
5.84666e-05
6.88093e-05
3.95949e-05
8.91518e-05
7.23768e-05
7.23748e-05
7.24811e-05
7.24768e-05
8.83454e-05
6.98011e-05
6.91168e-05
5.91486e-05
5.2761e-05
6.98171e-05
6.91102e-05
5.91317e-05
7.09439e-05
6.99791e-05
7.37988e-05
7.09392e-05
7.38987e-05
7.10038e-05
7.43692e-05
7.00063e-05
7.10369e-05
7.41418e-05
6.97749e-05
5.27443e-05
6.90966e-05
5.8958e-05
6.97695e-05
6.90973e-05
5.90449e-05
6.9861e-05
6.91355e-05
5.89675e-05
5.27098e-05
6.98741e-05
6.91323e-05
5.89643e-05
7.09744e-05
7.00572e-05
7.37806e-05
7.38371e-05
7.0966e-05
7.10351e-05
7.40502e-05
7.00715e-05
7.10617e-05
7.39868e-05
6.98356e-05
5.27035e-05
6.91208e-05
5.88837e-05
6.91219e-05
5.89205e-05
6.98301e-05
6.9648e-05
6.96812e-05
9.48233e-05
7.36341e-05
7.36353e-05
9.31196e-05
7.36837e-05
7.3686e-05
6.22346e-05
4.20155e-05
5.88064e-05
6.92099e-05
4.17165e-05
6.93093e-05
6.24251e-05
6.21161e-05
4.1951e-05
5.8727e-05
6.91962e-05
6.92883e-05
4.16375e-05
6.2312e-05
6.16451e-05
6.94064e-05
4.05062e-05
5.87648e-05
4.12001e-05
6.06211e-05
6.93913e-05
6.15253e-05
6.93771e-05
4.04373e-05
5.86342e-05
6.05094e-05
6.93632e-05
4.1116e-05
9.57487e-05
7.35106e-05
7.35165e-05
7.36456e-05
7.36493e-05
9.60027e-05
6.96555e-05
6.96793e-05
6.98541e-05
5.85729e-05
6.91217e-05
5.26551e-05
6.98419e-05
5.89123e-05
6.9133e-05
7.10738e-05
7.00946e-05
7.43993e-05
7.10746e-05
7.42073e-05
7.10842e-05
7.38147e-05
7.00844e-05
7.10756e-05
7.40534e-05
6.98556e-05
5.28583e-05
5.94048e-05
6.914e-05
6.98601e-05
5.91407e-05
6.91347e-05
6.98383e-05
6.91253e-05
5.92916e-05
5.28446e-05
6.98543e-05
6.91257e-05
5.9302e-05
7.09583e-05
7.00333e-05
7.39983e-05
7.427e-05
7.09298e-05
7.10538e-05
7.4608e-05
7.00833e-05
7.10944e-05
7.45432e-05
6.9804e-05
5.29372e-05
6.91182e-05
5.91953e-05
6.912e-05
5.92796e-05
6.97909e-05
6.98396e-05
5.79193e-05
6.90959e-05
5.19972e-05
6.9806e-05
5.80988e-05
6.91234e-05
7.10166e-05
7.00901e-05
7.40874e-05
7.36644e-05
7.10478e-05
7.10035e-05
7.31249e-05
7.00459e-05
7.09796e-05
7.32894e-05
6.98576e-05
5.23526e-05
5.90386e-05
6.91605e-05
5.85399e-05
6.91366e-05
6.9881e-05
6.98193e-05
6.90976e-05
5.83134e-05
5.21487e-05
6.98098e-05
6.91149e-05
5.8443e-05
7.10229e-05
7.00098e-05
7.37906e-05
7.35725e-05
7.10396e-05
7.10291e-05
7.3531e-05
7.00032e-05
7.10238e-05
7.35326e-05
6.98273e-05
5.23994e-05
6.9147e-05
5.89496e-05
6.91248e-05
5.86444e-05
6.98494e-05
6.9652e-05
6.96821e-05
9.33878e-05
7.33602e-05
7.3362e-05
9.27074e-05
7.33344e-05
7.33367e-05
6.07016e-05
4.10686e-05
5.89973e-05
6.90037e-05
4.10135e-05
6.90792e-05
6.06798e-05
6.06056e-05
4.10192e-05
5.8937e-05
6.89871e-05
6.90591e-05
4.09625e-05
6.05831e-05
6.05953e-05
6.91973e-05
4.04868e-05
5.89042e-05
4.08219e-05
6.02328e-05
6.91598e-05
6.05017e-05
6.91702e-05
4.04543e-05
5.88166e-05
6.01481e-05
6.9135e-05
4.07748e-05
9.35288e-05
7.29678e-05
7.29721e-05
7.31783e-05
7.31821e-05
9.33595e-05
6.96587e-05
6.96829e-05
6.9849e-05
5.86073e-05
6.91078e-05
5.23843e-05
6.98431e-05
5.88536e-05
6.91216e-05
7.10358e-05
7.00854e-05
7.4216e-05
7.40968e-05
7.10315e-05
7.10598e-05
7.3939e-05
7.00844e-05
7.10643e-05
7.40465e-05
6.98487e-05
5.262e-05
5.92749e-05
6.91431e-05
5.90311e-05
6.91276e-05
6.98529e-05
6.98026e-05
5.82008e-05
6.9085e-05
5.22261e-05
6.9777e-05
5.85002e-05
6.91033e-05
7.1044e-05
7.00255e-05
7.4203e-05
7.38819e-05
7.1071e-05
7.10346e-05
7.34633e-05
7.00011e-05
7.10103e-05
7.36392e-05
6.98167e-05
5.25053e-05
5.91637e-05
6.91367e-05
5.8795e-05
6.91132e-05
6.98467e-05
8.56364e-05
7.23193e-05
7.23177e-05
8.79814e-05
7.20735e-05
7.20718e-05
5.54355e-05
3.84796e-05
5.89201e-05
6.86317e-05
5.48063e-05
3.8839e-05
6.86362e-05
5.55123e-05
3.84983e-05
5.89443e-05
6.86486e-05
5.4888e-05
3.88526e-05
6.86528e-05
5.64018e-05
6.87135e-05
3.96614e-05
5.89123e-05
5.7526e-05
3.92503e-05
6.86678e-05
5.64744e-05
6.87301e-05
3.96769e-05
5.89319e-05
5.75968e-05
3.92639e-05
6.86841e-05
8.36734e-05
7.18429e-05
7.18398e-05
8.25102e-05
7.18935e-05
7.18911e-05
6.96605e-05
6.96851e-05
6.96566e-05
6.96818e-05
6.96252e-05
6.96025e-05
6.964e-05
6.96095e-05
8.65118e-05
7.21201e-05
7.21149e-05
7.21277e-05
7.21225e-05
8.63272e-05
5.7035e-05
3.95544e-05
6.87195e-05
5.92079e-05
5.73596e-05
6.8711e-05
3.94693e-05
5.71086e-05
3.95588e-05
6.87409e-05
5.92915e-05
5.74225e-05
6.87321e-05
3.94904e-05
8.69502e-05
7.2248e-05
7.22439e-05
8.75572e-05
7.21856e-05
7.21821e-05
5.68035e-05
6.87052e-05
5.92454e-05
3.93515e-05
6.87035e-05
5.66973e-05
3.93943e-05
5.68828e-05
6.87229e-05
5.93176e-05
3.93934e-05
6.87223e-05
5.67814e-05
3.94263e-05
6.95591e-05
6.95687e-05
6.95549e-05
6.95662e-05
8.64292e-05
7.2121e-05
7.21153e-05
8.63033e-05
7.21665e-05
7.21606e-05
5.69299e-05
3.97906e-05
5.93411e-05
6.88359e-05
6.8776e-05
3.9459e-05
5.75689e-05
5.70323e-05
3.98256e-05
5.93538e-05
6.88483e-05
6.87905e-05
3.95163e-05
5.76119e-05
5.67216e-05
6.87124e-05
3.93459e-05
5.92872e-05
5.6682e-05
6.8741e-05
3.93618e-05
5.68073e-05
6.87277e-05
3.93905e-05
5.93249e-05
5.67676e-05
6.87525e-05
3.94095e-05
8.70181e-05
7.23481e-05
7.23406e-05
7.22465e-05
7.224e-05
8.80471e-05
6.9842e-05
5.30652e-05
6.91756e-05
5.96323e-05
6.91449e-05
5.91582e-05
6.98704e-05
7.09626e-05
7.37621e-05
7.00682e-05
7.09499e-05
7.3802e-05
6.98307e-05
5.27828e-05
6.91204e-05
5.88806e-05
6.91318e-05
6.98242e-05
5.89315e-05
7.09698e-05
7.43557e-05
7.00917e-05
7.39744e-05
7.10021e-05
6.98429e-05
6.91697e-05
5.97116e-05
5.40922e-05
6.98315e-05
6.91883e-05
5.99223e-05
7.08979e-05
7.00589e-05
7.43568e-05
7.43659e-05
7.08885e-05
7.09305e-05
7.43098e-05
7.00578e-05
7.09353e-05
7.43698e-05
6.98404e-05
5.42424e-05
6.91983e-05
6.00654e-05
6.91911e-05
6.0004e-05
6.98427e-05
6.98854e-05
6.91857e-05
5.99885e-05
5.42389e-05
6.98771e-05
6.92027e-05
6.0288e-05
7.09862e-05
7.01308e-05
7.48209e-05
7.48038e-05
7.09742e-05
7.10069e-05
7.45814e-05
7.01356e-05
7.10015e-05
7.47568e-05
6.98814e-05
5.44254e-05
6.92091e-05
6.05474e-05
6.92044e-05
6.04563e-05
6.98782e-05
9.25566e-05
7.22332e-05
7.22404e-05
7.25435e-05
7.25511e-05
9.01971e-05
6.20806e-05
4.21094e-05
6.90833e-05
5.9205e-05
6.8971e-05
6.23943e-05
4.20948e-05
6.19821e-05
4.20578e-05
6.90736e-05
5.92602e-05
4.20475e-05
6.22845e-05
6.89613e-05
9.48366e-05
7.32141e-05
7.32212e-05
7.29245e-05
9.58431e-05
7.2932e-05
6.09943e-05
6.87488e-05
5.93303e-05
4.15777e-05
6.88432e-05
4.19763e-05
5.96141e-05
6.09206e-05
6.87352e-05
5.93682e-05
4.1569e-05
4.1942e-05
6.88323e-05
5.95493e-05
6.96294e-05
6.96072e-05
6.95638e-05
6.95822e-05
8.54863e-05
7.19195e-05
7.1926e-05
8.77261e-05
7.17232e-05
7.1729e-05
5.6137e-05
3.96958e-05
5.96384e-05
6.85866e-05
4.00822e-05
6.8587e-05
5.5436e-05
5.60846e-05
3.96933e-05
5.96257e-05
6.85764e-05
6.85759e-05
4.00773e-05
5.53846e-05
5.71418e-05
6.86641e-05
4.10337e-05
5.96076e-05
4.05373e-05
5.83212e-05
6.8615e-05
5.70865e-05
6.86498e-05
4.10256e-05
5.95737e-05
5.82615e-05
6.86017e-05
4.05286e-05
8.37284e-05
7.1574e-05
7.15787e-05
7.15947e-05
7.15998e-05
8.27321e-05
6.9559e-05
6.95729e-05
6.9773e-05
5.31291e-05
6.91383e-05
5.9155e-05
6.91195e-05
5.90702e-05
6.97915e-05
7.08912e-05
7.38117e-05
6.99829e-05
7.08876e-05
7.37686e-05
6.97723e-05
5.30468e-05
6.91134e-05
5.9094e-05
6.91157e-05
6.9773e-05
5.9065e-05
7.08878e-05
7.38962e-05
6.99862e-05
7.37742e-05
7.09138e-05
6.98382e-05
5.99095e-05
6.91565e-05
5.40464e-05
6.98363e-05
6.00267e-05
6.91726e-05
7.09033e-05
7.00641e-05
7.45001e-05
7.45235e-05
7.08901e-05
7.09414e-05
7.45435e-05
7.00717e-05
7.09533e-05
7.45422e-05
6.98348e-05
5.42262e-05
6.01839e-05
6.91903e-05
6.01005e-05
6.9178e-05
6.98365e-05
6.98415e-05
6.91504e-05
5.94632e-05
5.39926e-05
6.98113e-05
6.91767e-05
5.989e-05
7.09387e-05
7.00766e-05
7.46285e-05
7.4597e-05
7.09348e-05
7.09496e-05
7.42064e-05
7.0071e-05
7.0925e-05
7.44899e-05
6.98466e-05
5.42592e-05
6.91972e-05
6.0359e-05
6.91839e-05
6.01808e-05
6.98522e-05
6.98784e-05
5.35773e-05
5.99741e-05
6.91839e-05
5.98061e-05
6.91777e-05
6.98747e-05
7.10449e-05
7.4303e-05
7.01536e-05
7.45035e-05
7.10418e-05
6.98859e-05
5.33794e-05
5.93478e-05
6.91657e-05
5.96533e-05
6.98826e-05
6.91765e-05
7.10239e-05
7.46153e-05
7.01494e-05
7.45655e-05
7.10154e-05
6.98686e-05
5.34939e-05
6.91831e-05
5.98803e-05
6.91721e-05
5.96449e-05
6.98738e-05
7.10471e-05
7.40253e-05
7.00983e-05
7.10373e-05
7.43193e-05
6.98679e-05
5.32834e-05
6.91536e-05
5.91704e-05
6.98551e-05
6.91682e-05
5.9447e-05
7.10327e-05
7.46456e-05
7.01114e-05
7.44719e-05
7.10276e-05
6.98601e-05
6.00575e-05
6.91853e-05
5.4225e-05
6.98616e-05
6.01788e-05
6.91924e-05
7.09403e-05
7.0078e-05
7.45534e-05
7.458e-05
7.09284e-05
7.09741e-05
7.46099e-05
7.00991e-05
7.0983e-05
7.46065e-05
6.98535e-05
5.43673e-05
6.03116e-05
6.92006e-05
6.02434e-05
6.9194e-05
6.98534e-05
6.98736e-05
6.91864e-05
6.00484e-05
5.42246e-05
6.9872e-05
6.91961e-05
6.02343e-05
7.09417e-05
7.01232e-05
7.47424e-05
7.47548e-05
7.09272e-05
7.09816e-05
7.47079e-05
7.01295e-05
7.09944e-05
7.47573e-05
6.98677e-05
5.43921e-05
6.92039e-05
6.04304e-05
6.91979e-05
6.03575e-05
6.98642e-05
8.90401e-05
7.22119e-05
7.22147e-05
7.22796e-05
7.22835e-05
8.81692e-05
5.97075e-05
4.10627e-05
6.88992e-05
5.90842e-05
6.88127e-05
6.04563e-05
4.09979e-05
5.96165e-05
4.10148e-05
6.88854e-05
5.9111e-05
4.09559e-05
6.036e-05
6.87991e-05
9.04682e-05
7.26676e-05
7.26725e-05
7.2458e-05
9.22912e-05
7.24623e-05
5.88553e-05
6.86965e-05
5.91039e-05
4.05318e-05
6.87347e-05
4.07887e-05
5.82262e-05
5.87766e-05
6.86778e-05
5.91254e-05
4.05108e-05
4.07615e-05
6.87194e-05
5.81525e-05
6.96046e-05
6.95748e-05
6.95635e-05
6.95684e-05
8.73466e-05
7.21626e-05
7.21654e-05
8.7633e-05
7.2156e-05
7.21587e-05
5.72335e-05
4.00302e-05
5.96417e-05
6.87259e-05
4.0102e-05
6.86873e-05
5.70671e-05
5.7154e-05
3.99961e-05
5.95389e-05
6.87033e-05
6.86634e-05
4.00705e-05
5.69852e-05
5.74607e-05
6.86772e-05
4.03351e-05
5.94464e-05
4.02006e-05
5.77618e-05
6.86783e-05
5.73855e-05
6.86554e-05
4.03119e-05
5.93615e-05
5.76895e-05
6.86554e-05
4.01743e-05
8.71402e-05
7.21294e-05
7.21321e-05
7.21419e-05
7.21447e-05
8.69811e-05
6.95586e-05
6.9562e-05
6.98413e-05
5.36195e-05
5.97397e-05
6.91635e-05
5.9658e-05
6.91587e-05
6.98385e-05
7.09929e-05
7.42552e-05
7.00823e-05
7.42963e-05
7.10035e-05
6.98496e-05
5.34652e-05
5.94232e-05
6.91473e-05
5.95881e-05
6.98496e-05
6.91578e-05
7.09556e-05
7.42874e-05
7.00699e-05
7.4288e-05
7.09455e-05
6.98655e-05
5.37233e-05
5.99939e-05
6.91705e-05
5.99405e-05
6.91646e-05
6.98624e-05
7.10655e-05
7.44048e-05
7.00865e-05
7.10659e-05
7.45787e-05
6.98679e-05
5.35043e-05
5.94898e-05
6.91448e-05
6.9856e-05
5.97858e-05
6.91619e-05
7.10329e-05
7.46355e-05
7.00884e-05
7.46258e-05
7.10091e-05
6.98296e-05
5.97673e-05
6.91632e-05
5.39787e-05
6.98293e-05
5.98194e-05
6.91676e-05
7.08944e-05
7.00549e-05
7.42824e-05
7.42582e-05
7.08992e-05
7.09107e-05
7.42688e-05
7.00558e-05
7.09139e-05
7.42659e-05
6.98268e-05
5.40299e-05
5.99482e-05
6.91804e-05
5.98543e-05
6.91696e-05
6.98322e-05
6.98369e-05
5.99888e-05
6.91689e-05
5.40221e-05
6.98462e-05
5.99526e-05
6.91707e-05
7.08351e-05
7.00291e-05
7.39155e-05
7.41116e-05
7.0823e-05
7.09067e-05
7.45969e-05
7.00576e-05
7.09428e-05
7.44456e-05
6.98204e-05
5.40287e-05
5.97321e-05
6.9176e-05
5.98282e-05
6.917e-05
6.98197e-05
6.96288e-05
6.9614e-05
6.96255e-05
6.9613e-05
9.08441e-05
7.27904e-05
7.27815e-05
8.87616e-05
7.29387e-05
7.2928e-05
5.98083e-05
4.13286e-05
5.95852e-05
6.90972e-05
4.05637e-05
6.90922e-05
6.03738e-05
5.98713e-05
4.13412e-05
5.95688e-05
6.91002e-05
4.05988e-05
6.90973e-05
6.04218e-05
5.87527e-05
6.89888e-05
3.86418e-05
5.94687e-05
5.72149e-05
3.95892e-05
6.90633e-05
5.88313e-05
6.90027e-05
3.86948e-05
5.94953e-05
5.73088e-05
3.96462e-05
6.90723e-05
9.20203e-05
7.29403e-05
7.29277e-05
7.29649e-05
7.29532e-05
9.24505e-05
6.95667e-05
6.95903e-05
6.95638e-05
6.95876e-05
1.50585e-05
1.50592e-05
1.4868e-05
1.49483e-05
1.49501e-05
1.52995e-05
1.54177e-05
3.64042e-05
2.48201e-05
2.4826e-05
1.81637e-05
3.6506e-05
2.46193e-05
2.46262e-05
3.89539e-05
1.86395e-05
2.5664e-05
2.56622e-05
2.5699e-05
2.56964e-05
3.87923e-05
4.25155e-05
1.95051e-05
2.78868e-05
2.78646e-05
2.7605e-05
2.75833e-05
4.28191e-05
4.12406e-05
1.93141e-05
2.70739e-05
2.70618e-05
2.70478e-05
2.7037e-05
4.12476e-05
3.74775e-05
1.87441e-05
2.50552e-05
2.50594e-05
3.68362e-05
2.54631e-05
2.54673e-05
3.83567e-05
2.56496e-05
2.56497e-05
1.8535e-05
3.86013e-05
2.55635e-05
2.55676e-05
3.80877e-05
1.84278e-05
2.5506e-05
2.55097e-05
2.54406e-05
2.5459e-05
3.83035e-05
4.28097e-05
2.8084e-05
2.80644e-05
1.98434e-05
2.80672e-05
4.28822e-05
2.80858e-05
3.85685e-05
1.93205e-05
2.60166e-05
2.60165e-05
2.65082e-05
2.65073e-05
3.78282e-05
4.09809e-05
2.71019e-05
2.70892e-05
1.93272e-05
2.70433e-05
4.12076e-05
2.70559e-05
3.87534e-05
1.89534e-05
2.59795e-05
2.59726e-05
2.61966e-05
2.61899e-05
3.84891e-05
3.98087e-05
1.81999e-05
2.63038e-05
2.63103e-05
2.55931e-05
2.56058e-05
4.07589e-05
1.51597e-05
1.51704e-05
1.51698e-05
1.52834e-05
1.5282e-05
1.56589e-05
1.55375e-05
1.51724e-05
1.5173e-05
1.51708e-05
1.52836e-05
1.52816e-05
1.56588e-05
1.55376e-05
1.51768e-05
1.51736e-05
1.51723e-05
1.52844e-05
1.5283e-05
1.56589e-05
1.55378e-05
1.51672e-05
1.51693e-05
1.51686e-05
1.52834e-05
1.52825e-05
1.56591e-05
1.55375e-05
1.50636e-05
1.50623e-05
1.49285e-05
1.49558e-05
1.49557e-05
1.53003e-05
1.5418e-05
1.50634e-05
1.50627e-05
1.49069e-05
1.49535e-05
1.49539e-05
1.53e-05
1.54182e-05
1.50565e-05
1.50563e-05
1.48517e-05
1.49465e-05
1.49465e-05
1.5299e-05
1.54173e-05
1.47756e-05
1.47358e-05
1.47377e-05
1.48407e-05
1.48428e-05
1.51829e-05
1.5068e-05
1.4834e-05
1.47442e-05
1.47453e-05
1.48495e-05
1.48503e-05
1.51841e-05
1.50694e-05
1.48074e-05
1.47395e-05
1.47405e-05
1.48453e-05
1.48463e-05
1.51833e-05
1.50684e-05
1.47624e-05
1.47377e-05
1.47365e-05
1.48404e-05
1.48401e-05
1.51824e-05
1.50677e-05
1.97807e-05
2.94009e-05
3.40272e-05
1.8116e-05
3.37776e-05
1.80525e-05
1.98654e-05
2.2737e-05
2.88266e-05
3.96916e-05
4.55144e-05
2.26133e-05
2.89974e-05
4.00253e-05
1.95356e-05
2.90341e-05
3.30254e-05
1.78362e-05
1.94471e-05
3.33581e-05
1.78939e-05
2.30452e-05
4.06777e-05
4.58091e-05
2.91819e-05
2.91588e-05
4.04473e-05
2.31403e-05
1.98403e-05
2.94828e-05
1.81476e-05
3.38935e-05
1.81041e-05
3.37723e-05
1.98804e-05
2.28071e-05
2.85616e-05
3.99521e-05
4.55434e-05
2.27419e-05
2.8626e-05
4.0096e-05
1.96773e-05
2.91758e-05
1.79255e-05
3.33214e-05
1.96267e-05
1.79723e-05
3.34976e-05
2.29986e-05
4.04207e-05
4.56737e-05
2.87564e-05
2.87413e-05
4.03347e-05
2.30424e-05
3.64296e-05
1.81087e-05
2.45814e-05
2.45892e-05
2.45873e-05
2.45951e-05
3.658e-05
3.90018e-05
1.86247e-05
2.56848e-05
2.56811e-05
3.90204e-05
2.56822e-05
2.56787e-05
1.94346e-05
3.28374e-05
1.77455e-05
2.86017e-05
1.93971e-05
3.29619e-05
1.77857e-05
2.24962e-05
2.79165e-05
4.50906e-05
3.96246e-05
2.78615e-05
3.96135e-05
2.25161e-05
2.23453e-05
3.94713e-05
2.7585e-05
4.49394e-05
2.76726e-05
2.22961e-05
3.95343e-05
1.95536e-05
2.87584e-05
3.30793e-05
1.7909e-05
3.30587e-05
1.78902e-05
1.956e-05
1.93105e-05
3.25389e-05
1.76953e-05
2.85073e-05
1.92554e-05
3.27026e-05
1.77406e-05
2.24944e-05