/*--------------------------------*- C++ -*----------------------------------*\
| =========                 |                                                 |
| \\      /  F ield         | OpenFOAM: The Open Source CFD Toolbox           |
|  \\    /   O peration     | Version:  v1906                                 |
|   \\  /    A nd           | Web:      www.OpenFOAM.com                      |
|    \\/     M anipulation  |                                                 |
\*---------------------------------------------------------------------------*/
FoamFile
{
    version     2.0;
    format      ascii;
    class       volScalarField;
    location    "500";
    object      p;
}
// * * * * * * * * * * * * * * * * * * * * * * * * * * * * * * * * * * * * * //

dimensions      [0 2 -2 0 0 0 0];


internalField   nonuniform List<scalar> 
42840
(
0.00163778
0.00163765
0.00163765
0.00163974
0.00160186
0.00160177
0.00160179
0.00160379
0.00156601
0.00156593
0.00156588
0.00156799
0.00153022
0.00153009
0.00153014
0.00153216
0.00149452
0.0014944
0.00149437
0.0014964
0.00145883
0.00145872
0.00145874
0.00146079
0.00142324
0.00142307
0.00142312
0.0014251
0.00138756
0.00138749
0.00138739
0.00138952
0.00135215
0.00135197
0.00135205
0.00135399
0.00131656
0.00131646
0.00131639
0.00131848
0.00128105
0.00128093
0.00128107
0.00128297
0.00124561
0.00124542
0.00124523
0.00124743
0.00121019
0.00121018
0.00121029
0.00121201
0.00117468
0.0011745
0.00117446
0.0011769
0.00113966
0.00113932
0.00113917
0.00114095
0.00110334
0.00110368
0.00110408
0.001106
0.00106947
0.0010685
0.00106833
0.00107018
0.00103216
0.00103336
0.00103241
0.00103578
0.000998434
0.000996744
0.000999595
0.000999366
0.000962231
0.000963679
0.000959548
0.000963325
0.000927079
0.000926004
0.000929436
0.000931246
0.000891968
0.000891944
0.000890725
0.000892775
0.000855771
0.000856152
0.000855332
0.000857424
0.000820911
0.000820521
0.000821734
0.000823645
0.000785667
0.00078566
0.000785088
0.000787446
0.000749899
0.000749707
0.000749863
0.000751412
0.0016446
0.00164668
0.00164665
0.00164453
0.00164668
0.00164665
0.00164665
0.00164667
0.00164453
0.00164665
0.00164667
0.00164457
0.00163978
0.00160861
0.00163771
0.00163765
0.00161073
0.00161074
0.00163971
0.00160865
0.00163771
0.00163765
0.00161073
0.00161076
0.00163767
0.00161074
0.00161071
0.00163971
0.00160869
0.00163767
0.00161076
0.00161071
0.00160861
0.00160379
0.00157277
0.00160174
0.00160177
0.00157485
0.00157487
0.00160383
0.00157279
0.00160174
0.00160179
0.00157485
0.00157483
0.00160174
0.00157488
0.00157488
0.00160385
0.00157273
0.00160174
0.00157483
0.00157488
0.0015728
0.00156797
0.00153697
0.00156591
0.00156593
0.00153906
0.00153905
0.00156799
0.00153695
0.00156591
0.00156588
0.00153906
0.0015391
0.00156593
0.00153906
0.00153909
0.00156793
0.00153701
0.00156593
0.0015391
0.00153909
0.00153699
0.00153216
0.00150128
0.00153011
0.00153008
0.00150333
0.00150329
0.00153213
0.00150124
0.00153011
0.00153014
0.00150334
0.00150329
0.00153012
0.00150329
0.00150326
0.00153218
0.00150121
0.00153012
0.00150328
0.00150326
0.00150119
0.00149647
0.0014655
0.00149442
0.00149441
0.00146761
0.00146766
0.00149646
0.00146556
0.00149442
0.00149437
0.0014676
0.00146765
0.00149435
0.00146766
0.00146768
0.00149642
0.00146557
0.00149435
0.00146765
0.00146768
0.0014656
0.00146073
0.00142999
0.00145869
0.00145872
0.00143204
0.00143197
0.00146075
0.00142991
0.00145869
0.00145874
0.00143204
0.00143203
0.00145876
0.00143197
0.00143198
0.00146077
0.00142997
0.00145876
0.00143203
0.00143198
0.0014299
0.00142517
0.00139424
0.00142313
0.00142308
0.00139632
0.0013964
0.00142512
0.00139432
0.00142313
0.00142312
0.00139632
0.0013963
0.00142307
0.0013964
0.00139639
0.00142516
0.00139419
0.00142308
0.0013963
0.00139638
0.00139432
0.00138946
0.00135889
0.00138743
0.00138748
0.0013609
0.00136082
0.00138951
0.00135876
0.00138742
0.00138738
0.0013609
0.00136086
0.00138749
0.00136082
0.00136081
0.0013894
0.00135887
0.00138748
0.00136086
0.00136081
0.00135877
0.0013541
0.00132318
0.00135206
0.00135198
0.00132531
0.0013254
0.001354
0.00132329
0.00135206
0.00135206
0.00132532
0.00132533
0.00135196
0.0013254
0.00132539
0.00135411
0.00132316
0.00135196
0.00132533
0.00132539
0.0013233
0.00131838
0.00128777
0.00131637
0.00131645
0.00128978
0.00128976
0.00131845
0.00128773
0.00131638
0.00131638
0.00128979
0.00128987
0.00131648
0.00128975
0.00128974
0.00131836
0.00128791
0.00131648
0.00128987
0.00128975
0.00128771
0.00128297
0.00125228
0.00128094
0.00128093
0.00125435
0.00125436
0.00128297
0.00125222
0.00128095
0.00128108
0.00125435
0.00125423
0.00128093
0.00125437
0.00125448
0.00128314
0.00125199
0.00128094
0.00125423
0.00125448
0.00125235
0.00124755
0.00121693
0.00124552
0.0012454
0.00121903
0.00121891
0.00124738
0.00121696
0.00124551
0.00124521
0.00121903
0.00121898
0.00124547
0.00121886
0.0012186
0.00124718
0.00121712
0.00124546
0.00121894
0.0012186
0.00121662
0.00121197
0.0011811
0.00121002
0.00121021
0.00118317
0.00118356
0.00121224
0.00118131
0.00121003
0.00121033
0.00118318
0.0011835
0.00120997
0.00118364
0.00118398
0.00121239
0.00118121
0.00120997
0.00118357
0.00118398
0.00118188
0.00117659
0.00114686
0.00117458
0.00117439
0.0011488
0.00114792
0.00117636
0.00114603
0.00117457
0.00117436
0.00114882
0.001148
0.00117493
0.00114782
0.00114764
0.00117635
0.00114602
0.00117492
0.00114789
0.00114765
0.0011456
0.00114164
0.00110929
0.00113965
0.00113943
0.00111158
0.00111293
0.00114144
0.00111065
0.00113965
0.0011393
0.00111154
0.00111274
0.00113894
0.00111303
0.00111295
0.00114127
0.00111074
0.00113895
0.00111285
0.00111291
0.00111089
0.00110493
0.00107717
0.00110297
0.00110355
0.00107856
0.00107687
0.00110551
0.00107498
0.00110296
0.00110394
0.00107867
0.00107775
0.00110399
0.00107676
0.0010769
0.00110604
0.00107549
0.00110397
0.00107766
0.00107701
0.0010749
0.00107213
0.00103794
0.00106985
0.00106869
0.0010408
0.0010428
0.00107062
0.00104066
0.0010699
0.00106849
0.00104051
0.00104059
0.00106812
0.00104286
0.00104238
0.00107029
0.00103859
0.00106821
0.00104066
0.00104213
0.00104041
0.00103321
0.00100545
0.00103159
0.00103318
0.00100685
0.00100503
0.00103527
0.00100301
0.00103129
0.00103225
0.00100716
0.00100857
0.00103378
0.00100513
0.00100667
0.00103435
0.00100725
0.00103355
0.00100863
0.00100699
0.00100452
0.00100092
0.000968917
0.00099855
0.000996832
0.000971522
0.000972683
0.000998761
0.000971076
0.000998954
0.000999635
0.000971262
0.000968843
0.000997241
0.000972375
0.000969733
0.00100185
0.000965805
0.000997682
0.000968585
0.000969413
0.000967689
0.000963891
0.000933587
0.000962186
0.000963923
0.000935399
0.000934936
0.000966102
0.000932505
0.000961709
0.000959732
0.000935427
0.000936957
0.000961482
0.000935194
0.000937216
0.000961343
0.000935929
0.000960971
0.000937156
0.000937181
0.000935861
0.000929017
0.000898833
0.000926849
0.000925708
0.000900813
0.000900382
0.000927575
0.000898714
0.000927155
0.00092923
0.000901128
0.000901005
0.00092884
0.000900423
0.000900502
0.000931683
0.000897931
0.000929067
0.000901091
0.000900893
0.000897946
0.000893885
0.000862466
0.00089187
0.000892029
0.000864738
0.000865531
0.000894091
0.000863296
0.000891886
0.000890712
0.000864361
0.00086351
0.000890846
0.000865342
0.000863851
0.000892575
0.000861923
0.000890927
0.00086333
0.000863456
0.000861938
0.000857648
0.000827637
0.00085578
0.00085628
0.000829487
0.000829124
0.000858224
0.000827078
0.000855499
0.000855441
0.000829665
0.000830527
0.000855437
0.000829215
0.000830094
0.000857547
0.000828646
0.000855172
0.000830614
0.00083026
0.000828371
0.000822933
0.000792379
0.000820806
0.000820407
0.000794475
0.00079445
0.000822413
0.000792501
0.000821013
0.000821626
0.000794487
0.000794121
0.000821443
0.000794486
0.000794629
0.000823725
0.000791876
0.000821663
0.000794142
0.000794649
0.00079241
0.00078752
0.000756637
0.00078557
0.000785651
0.000758729
0.000758741
0.000787698
0.000756606
0.000785503
0.000785084
0.000758684
0.000758675
0.000785519
0.000758687
0.000758331
0.000787009
0.000756712
0.000785464
0.000758615
0.000758282
0.000756189
0.000751793
0.000749789
0.000749757
0.000751734
0.000749781
0.000749915
0.000749441
0.000751931
0.000749435
0.00166227
0.00166226
0.00166223
0.00166227
0.00166226
0.00164676
0.00164674
0.00164675
0.00164676
0.00166238
0.00166466
0.00166231
0.00166472
0.00166223
0.00166239
0.00166468
0.00166472
0.00166232
0.00166256
0.00166226
0.00166226
0.00162632
0.00163975
0.00163976
0.00162629
0.00163977
0.00162634
0.00162632
0.00163975
0.00163976
0.00162629
0.00163775
0.00163775
0.00163777
0.00161084
0.00161083
0.00161084
0.00161081
0.00162642
0.00163974
0.00163773
0.00162867
0.00163975
0.00162637
0.00162874
0.00163976
0.00162634
0.00162642
0.00163773
0.00163973
0.00162867
0.00163975
0.00162874
0.00162635
0.00163975
0.00163975
0.00162657
0.0016263
0.0016263
0.00159043
0.00160383
0.00160385
0.00159041
0.00160384
0.00159042
0.00159043
0.00160383
0.00160384
0.00159042
0.00160186
0.00160187
0.00160185
0.00157495
0.00157497
0.00157495
0.00157497
0.00159054
0.00160383
0.00160182
0.00159279
0.00160384
0.00159047
0.00159285
0.00160381
0.00159038
0.00159054
0.00160182
0.00160383
0.0015928
0.00160384
0.00159285
0.00159046
0.00160389
0.00160389
0.00159071
0.00159045
0.00159045
0.00155461
0.00156801
0.001568
0.0015546
0.00156799
0.00155457
0.00155461
0.001568
0.001568
0.0015546
0.00156603
0.00156599
0.00156602
0.00153917
0.00153918
0.00153919
0.0015392
0.00155471
0.00156797
0.00156598
0.00155698
0.00156799
0.00155464
0.00155703
0.00156803
0.00155463
0.00155471
0.00156596
0.00156798
0.00155695
0.00156798
0.00155702
0.00155465
0.001568
0.001568
0.00155491
0.00155459
0.00155459
0.00151884
0.00153222
0.00153221
0.00151884
0.00153221
0.00151887
0.00151884
0.00153222
0.00153222
0.00151884
0.00153022
0.00153025
0.00153024
0.00150344
0.00150341
0.00150341
0.00150339
0.00151893
0.00153219
0.00153017
0.00152113
0.0015322
0.00151889
0.00152122
0.00153217
0.00151884
0.00151894
0.00153019
0.0015322
0.00152118
0.00153221
0.00152124
0.00151887
0.00153218
0.00153219
0.00151904
0.00151884
0.00151884
0.00148315
0.00149649
0.0014965
0.00148313
0.00149653
0.00148309
0.00148315
0.00149648
0.0014965
0.00148313
0.0014945
0.00149448
0.00149447
0.00146774
0.00146778
0.00146776
0.00146778
0.00148324
0.00149647
0.00149444
0.00148552
0.00149646
0.00148318
0.00148553
0.00149654
0.00148315
0.00148323
0.00149442
0.00149647
0.00148547
0.00149645
0.00148551
0.0014832
0.00149654
0.00149654
0.00148342
0.00148314
0.00148314
0.00144749
0.00146082
0.00146081
0.00144748
0.00146078
0.00144749
0.00144749
0.00146082
0.00146083
0.00144748
0.00145885
0.00145886
0.00145887
0.00143213
0.0014321
0.00143215
0.00143211
0.00144758
0.00146079
0.00145879
0.00144979
0.00146082
0.00144752
0.00144987
0.00146081
0.00144747
0.00144759
0.0014588
0.0014608
0.00144984
0.00146083
0.00144989
0.00144751
0.00146081
0.00146081
0.00144774
0.00144747
0.00144747
0.00141188
0.00142518
0.0014252
0.00141185
0.00142522
0.00141187
0.00141186
0.00142518
0.0014252
0.00141185
0.0014232
0.00142324
0.0014232
0.00139648
0.00139652
0.00139647
0.00139651
0.00141196
0.00142517
0.00142313
0.00141419
0.00142516
0.00141192
0.00141423
0.00142515
0.00141181
0.00141196
0.00142316
0.00142514
0.0014142
0.00142516
0.00141424
0.0014119
0.00142521
0.00142521
0.00141211
0.00141189
0.00141188
0.00137632
0.00138964
0.0013896
0.00137635
0.00138961
0.00137632
0.00137632
0.00138963
0.00138959
0.00137635
0.00138761
0.00138754
0.00138761
0.00136098
0.00136093
0.00136095
0.00136093
0.00137639
0.00138959
0.00138754
0.00137858
0.00138959
0.00137635
0.00137864
0.00138964
0.00137641
0.00137637
0.00138749
0.0013896
0.00137851
0.00138956
0.0013786
0.00137636
0.0013896
0.0013896
0.00137651
0.00137631
0.00137631
0.0013408
0.00135405
0.0013541
0.00134073
0.00135412
0.00134077
0.00134082
0.00135407
0.00135412
0.00134074
0.00135209
0.00135213
0.00135207
0.00132548
0.00132552
0.00132549
0.00132553
0.00134088
0.00135405
0.00135201
0.00134313
0.00135403
0.00134082
0.00134316
0.00135411
0.0013407
0.00134091
0.00135203
0.00135406
0.00134321
0.00135405
0.00134318
0.00134084
0.00135408
0.00135408
0.00134106
0.00134077
0.00134077
0.00130526
0.00131855
0.00131853
0.00130529
0.00131848
0.00130528
0.00130526
0.00131855
0.00131853
0.00130529
0.0013166
0.00131655
0.00131662
0.0012899
0.00128988
0.00128995
0.00128986
0.00130537
0.00131854
0.00131652
0.00130751
0.00131857
0.00130531
0.00130761
0.00131857
0.00130538
0.00130535
0.00131651
0.00131857
0.00130749
0.00131858
0.0013076
0.00130531
0.00131857
0.00131857
0.00130545
0.0013053
0.0013053
0.00126983
0.00128312
0.00128309
0.00126984
0.00128314
0.00126979
0.00126984
0.00128314
0.0012831
0.00126985
0.00128104
0.00128115
0.00128103
0.00125446
0.00125451
0.00125441
0.00125459
0.00126986
0.00128301
0.00128096
0.00127212
0.00128297
0.00126984
0.00127212
0.00128306
0.0012696
0.00126989
0.00128102
0.00128295
0.00127224
0.00128298
0.00127217
0.00126981
0.0012831
0.0012831
0.00127017
0.00126972
0.00126972
0.00123435
0.00124761
0.00124763
0.00123427
0.00124759
0.00123448
0.00123432
0.00124757
0.00124758
0.00123424
0.00124556
0.00124543
0.00124562
0.00121912
0.00121896
0.00121901
0.00121876
0.0012344
0.00124765
0.00124553
0.00123647
0.00124768
0.00123442
0.0012366
0.00124764
0.00123464
0.00123433
0.00124545
0.00124763
0.00123632
0.00124762
0.00123652
0.00123439
0.00124749
0.00124749
0.00123421
0.00123446
0.00123444
0.00119893
0.00121215
0.00121216
0.00119905
0.00121226
0.00119867
0.00119897
0.00121218
0.00121221
0.00119908
0.00121024
0.0012103
0.00121006
0.00118337
0.00118373
0.0011837
0.00118395
0.00119908
0.00121207
0.00121007
0.00120149
0.00121202
0.00119894
0.00120136
0.0012122
0.0011985
0.00119914
0.00121011
0.00121212
0.00120158
0.00121205
0.00120139
0.00119896
0.00121245
0.00121245
0.00119956
0.00119897
0.00119897
0.00116358
0.00117696
0.00117678
0.00116342
0.00117665
0.00116385
0.00116356
0.00117695
0.00117676
0.00116342
0.00117467
0.00117466
0.001175
0.00114867
0.00114802
0.00114808
0.00114791
0.00116348
0.00117681
0.00117476
0.00116539
0.00117697
0.00116359
0.00116573
0.00117667
0.00116391
0.00116345
0.00117476
0.00117671
0.00116544
0.00117689
0.00116576
0.00116352
0.00117648
0.00117648
0.0011634
0.00116343
0.00116343
0.001128
0.00114098
0.00114135
0.00112807
0.00114164
0.00112781
0.00112804
0.00114097
0.0011414
0.00112801
0.00113941
0.00113928
0.00113913
0.00111205
0.00111297
0.00111284
0.00111292
0.00112826
0.0011413
0.00113915
0.00113078
0.00114106
0.00112817
0.0011305
0.00114168
0.00112811
0.00112827
0.0011391
0.00114149
0.00113043
0.00114116
0.00113035
0.0011284
0.00114148
0.00114148
0.00112847
0.00112807
0.00112808
0.00109288
0.00110658
0.00110588
0.00109303
0.00110556
0.00109308
0.00109292
0.00110665
0.00110595
0.00109317
0.00110378
0.00110411
0.00110401
0.00107822
0.0010771
0.00107778
0.00107716
0.00109264
0.00110591
0.00110393
0.0010944
0.0011062
0.00109276
0.00109484
0.00110584
0.00109237
0.00109276
0.00110404
0.00110578
0.00109538
0.00110604
0.00109525
0.00109226
0.00110583
0.00110588
0.00109272
0.00109284
0.00109285
0.00105732
0.00107004
0.00107083
0.00105682
0.00107119
0.00105707
0.00105691
0.00106993
0.00107071
0.00105647
0.0010687
0.00106855
0.00106831
0.00104124
0.00104261
0.00104101
0.00104225
0.00105762
0.00107056
0.00106834
0.00106024
0.00107032
0.00105732
0.00105983
0.00107004
0.00105744
0.0010574
0.00106841
0.0010705
0.00105883
0.00107059
0.00105931
0.00105763
0.0010711
0.00107097
0.00105752
0.00105772
0.00105765
0.00102175
0.00103542
0.00103476
0.00102245
0.00103407
0.00102186
0.00102232
0.00103548
0.00103491
0.00102296
0.00103329
0.00103254
0.0010336
0.00100687
0.00100567
0.00100797
0.00100694
0.0010219
0.00103503
0.00103345
0.00102363
0.00103556
0.00102192
0.00102424
0.00103652
0.00102288
0.00102202
0.00103268
0.00103546
0.00102462
0.00103485
0.00102437
0.00102203
0.00103479
0.00103491
0.00102302
0.0010207
0.0010209
0.000987129
0.00099999
0.00100029
0.000986521
0.00100135
0.000987545
0.000986507
0.00100025
0.00100038
0.00098606
0.000997121
0.000999145
0.00099767
0.000971515
0.000972131
0.000969817
0.0009701
0.00098647
0.000999974
0.000997106
0.000988725
0.000999297
0.000986901
0.000988509
0.000997783
0.000985196
0.000986741
0.000998762
0.000999267
0.000989338
0.00100052
0.000989352
0.000986164
0.000999239
0.000999169
0.000985255
0.000987319
0.000986999
0.000950886
0.000964504
0.000964472
0.000951224
0.00096322
0.000949817
0.000951138
0.000963927
0.000963838
0.000951386
0.000963333
0.000960602
0.000961359
0.000935623
0.000935574
0.000936711
0.000936812
0.000951584
0.000964163
0.000962748
0.000954369
0.000964737
0.000950929
0.000953905
0.000966242
0.000953109
0.000950694
0.000960569
0.000964453
0.000951633
0.000963281
0.000951978
0.000951824
0.000965864
0.000965761
0.000951708
0.00095211
0.00095225
0.000915945
0.000929028
0.000928822
0.000915873
0.000929514
0.000917007
0.000916442
0.000929732
0.000929852
0.000916272
0.000926492
0.000928594
0.00092841
0.000900992
0.000900476
0.000901343
0.00090112
0.000916011
0.000929155
0.000927011
0.000917204
0.000929223
0.000916322
0.000918185
0.000928703
0.000914213
0.00091764
0.000928633
0.000929884
0.000921043
0.000930423
0.00092024
0.000916046
0.000928267
0.000928615
0.000917718
0.000914626
0.000914717
0.000880773
0.000893892
0.000894119
0.000880624
0.000894423
0.000880433
0.000879961
0.000893379
0.000893327
0.000880112
0.000891898
0.000891417
0.000891438
0.000864678
0.000865258
0.000863756
0.000863953
0.00088048
0.000894067
0.000891694
0.000883288
0.000893708
0.000880636
0.000882772
0.000893342
0.000881473
0.000879349
0.000891546
0.000893264
0.000880818
0.000893287
0.000881686
0.000880056
0.000893657
0.000893363
0.000878908
0.000881064
0.000880837
0.000844822
0.000858283
0.000858157
0.000845
0.000857756
0.000844669
0.000845293
0.000858398
0.000858333
0.000845273
0.000856247
0.00085533
0.000855315
0.000829596
0.000829418
0.000830191
0.000829953
0.000844988
0.000857969
0.000855929
0.000847018
0.00085809
0.000844825
0.000847042
0.000858961
0.000845106
0.000845356
0.000854984
0.000858387
0.000847328
0.000857713
0.000846843
0.000845304
0.000858733
0.000858826
0.00084532
0.000845318
0.000845466
0.0008098
0.000822965
0.000822883
0.000809765
0.000823061
0.000809895
0.000809759
0.000823119
0.000823172
0.000809739
0.000820661
0.000821473
0.000821312
0.000794567
0.000794505
0.00079444
0.000794808
0.000809938
0.000822946
0.00082079
0.00081189
0.000822963
0.000809885
0.000812091
0.000822494
0.000809456
0.000810145
0.000821595
0.000823031
0.000812587
0.000823628
0.000812722
0.000809758
0.000822949
0.000822976
0.000810647
0.000809549
0.00080951
0.0007743
0.000787567
0.000787672
0.000774243
0.0007876
0.000774255
0.000774212
0.000787458
0.000787462
0.000774183
0.000785676
0.000785389
0.000785723
0.000758838
0.000758838
0.000758717
0.000758552
0.000774344
0.000787634
0.000785665
0.000776722
0.000787634
0.000774304
0.000776705
0.000787805
0.000774562
0.000774108
0.000785413
0.000787501
0.000776172
0.000787364
0.000776372
0.000774309
0.000787293
0.000787247
0.000774165
0.000774124
0.000774121
0.000738675
0.000751978
0.000751975
0.000738693
0.000752033
0.000738758
0.00073877
0.000752037
0.00075207
0.000738752
0.000749858
0.000749905
0.000749636
0.000738663
0.000751918
0.000749704
0.000740782
0.000751835
0.000738711
0.000740781
0.000752099
0.000738597
0.000738809
0.00074972
0.000752005
0.000741074
0.000751892
0.000740911
0.000738756
0.000752213
0.00075225
0.000738704
0.000738946
0.000738958
0.00166229
0.00166229
0.00166252
0.00166229
0.00166229
0.00164429
0.00165777
0.00164429
0.00165777
0.00165772
0.00164429
0.00164429
0.00165777
0.00165777
0.00166227
0.00166224
0.00166238
0.00166463
0.00166232
0.00166471
0.00166238
0.00166466
0.00166231
0.00166471
0.00165774
0.00164428
0.00165774
0.00164429
0.00165774
0.00164427
0.00165772
0.00164428
0.00165773
0.00165565
0.00164433
0.00164673
0.00165772
0.00165571
0.0016444
0.00165773
0.00165565
0.00164432
0.00164672
0.00165771
0.00165571
0.00164439
0.00166255
0.00166224
0.00166224
0.00166223
0.00164428
0.00165771
0.00165772
0.00164429
0.00164429
0.00165773
0.00165772
0.00164428
0.00165771
0.00166238
0.00166463
0.00166232
0.00166471
0.00166227
0.00166225
0.00166239
0.00166468
0.00166472
0.00166232
0.00165774
0.00164428
0.00165774
0.00164429
0.00165773
0.00165565
0.00164433
0.00164673
0.00165772
0.00165572
0.0016444
0.00165774
0.00164427
0.00165773
0.00164428
0.00165773
0.00165566
0.00164672
0.00164433
0.00165572
0.00165772
0.00164439
0.00166227
0.00166225
0.00166238
0.00166465
0.00166472
0.00166231
0.00166227
0.00166225
0.00165773
0.00165565
0.00164432
0.00164672
0.00165771
0.00165571
0.00164439
0.00165773
0.00164426
0.00165772
0.00164428
0.00165773
0.00165566
0.00164672
0.00164432
0.00165572
0.00165771
0.00164439
0.00165774
0.00164426
0.00165772
0.00164428
0.00166257
0.00166224
0.00166224
0.00166223
0.00164427
0.00165771
0.00165772
0.00164428
0.00164428
0.00165773
0.00165773
0.00164427
0.00165771
0.00166238
0.00166465
0.00166472
0.00166231
0.00166227
0.00166225
0.00166227
0.00166225
0.00165774
0.00165566
0.00164672
0.00164433
0.00165572
0.00165772
0.00164439
0.00165774
0.00165566
0.00164673
0.00164432
0.00165572
0.00165772
0.0016444
0.00165774
0.00164427
0.00165773
0.00164428
0.00165774
0.00164426
0.00165773
0.00164428
0.00166226
0.00166226
0.00165773
0.00164426
0.00164426
0.00165774
0.00165774
0.00164426
0.00165773
0.00164426
0.00165773
0.00163975
0.00162626
0.00163975
0.00162626
0.00163976
0.00163976
0.00162663
0.00162627
0.00162627
0.00160833
0.00162174
0.00160833
0.00162174
0.00162179
0.00160834
0.00160834
0.00162176
0.00162176
0.00162632
0.00163975
0.00163976
0.00162632
0.00162643
0.00163974
0.00163774
0.00162872
0.00163975
0.00162635
0.00162876
0.00162643
0.00163974
0.00163773
0.00162867
0.00163975
0.00162637
0.00162875
0.0016218
0.00160834
0.00162177
0.00160836
0.0016218
0.00160836
0.00162181
0.00160837
0.00162179
0.00161973
0.00160839
0.00161079
0.00162177
0.00161978
0.00160847
0.00162179
0.00161971
0.00160842
0.00161079
0.00162179
0.00161977
0.00160848
0.00163978
0.00163978
0.00162658
0.00162633
0.00162633
0.00163977
0.00162633
0.00160835
0.00162181
0.00162177
0.00160836
0.00160836
0.00162182
0.00162182
0.00160835
0.00162181
0.00162643
0.00163974
0.00163775
0.00162872
0.00163975
0.00162635
0.00162876
0.00162632
0.00163976
0.00163976
0.00162631
0.00162642
0.00163773
0.00163974
0.00162867
0.00163975
0.00162875
0.00162636
0.00162179
0.00160834
0.00162177
0.00160836
0.00162178
0.00161973
0.00160839
0.0016108
0.00162176
0.00161978
0.00160847
0.0016218
0.00160835
0.00162179
0.00160837
0.00162179
0.00161971
0.0016108
0.00160841
0.00161978
0.00162178
0.00160848
0.00162632
0.00163975
0.00163976
0.00162631
0.00162642
0.00163773
0.00163973
0.00162867
0.00163975
0.00162874
0.00162635
0.00162631
0.00163974
0.00163975
0.0016263
0.00162178
0.0016197
0.00160842
0.00161079
0.00162178
0.00161976
0.00160847
0.0016218
0.00160836
0.0016218
0.00160837
0.00162178
0.00161968
0.00161078
0.00160841
0.00161976
0.00162177
0.00160847
0.00162179
0.00160836
0.00162178
0.00160837
0.00163978
0.00163977
0.00162658
0.00162634
0.00162634
0.00163976
0.00162634
0.00160834
0.00162182
0.00162177
0.00160834
0.00160834
0.00162183
0.00162182
0.00160834
0.00162182
0.00162642
0.00163773
0.00163973
0.00162867
0.00163975
0.00162874
0.00162635
0.00162631
0.00163975
0.00163975
0.0016263
0.00162631
0.00163974
0.00163975
0.0016263
0.00162178
0.00161971
0.0016108
0.00160841
0.00161977
0.00162177
0.00160847
0.00162177
0.00161968
0.00161078
0.00160841
0.00161976
0.00162177
0.00160847
0.00162179
0.00160835
0.00162179
0.00160837
0.00162179
0.00160836
0.00162178
0.00160837
0.00163973
0.00162629
0.00163973
0.00162629
0.00162175
0.00160839
0.00160839
0.0016218
0.0016218
0.00160838
0.00162178
0.00160838
0.00162178
0.00160383
0.00159045
0.00160383
0.00159044
0.00160385
0.00160385
0.00159067
0.00159044
0.00159044
0.00157252
0.00158594
0.00157251
0.00158594
0.00158585
0.00157251
0.00157251
0.00158594
0.00158594
0.00159043
0.00160384
0.00160385
0.00159041
0.00159053
0.00160381
0.00160182
0.00159276
0.00160384
0.00159047
0.00159284
0.00159053
0.00160384
0.00160182
0.00159279
0.00160384
0.00159047
0.00159285
0.00158592
0.00157251
0.00158592
0.00157251
0.00158591
0.00157249
0.00158591
0.00157251
0.0015859
0.0015838
0.00157255
0.00157492
0.0015859
0.00158387
0.00157261
0.0015859
0.00158383
0.00157254
0.00157492
0.00158589
0.00158388
0.00157261
0.00160385
0.00160385
0.0015907
0.00159042
0.00159043
0.00160384
0.00159043
0.0015725
0.00158591
0.00158589
0.00157249
0.00157249
0.00158592
0.00158592
0.0015725
0.00158592
0.00159053
0.00160381
0.00160182
0.00159276
0.00160383
0.00159047
0.00159284
0.00159042
0.00160383
0.00160385
0.0015904
0.00159053
0.00160183
0.00160383
0.0015928
0.00160384
0.00159285
0.00159046
0.00158591
0.0015725
0.00158592
0.00157251
0.0015859
0.0015838
0.00157255
0.00157491
0.0015859
0.00158387
0.0015726
0.00158591
0.0015725
0.0015859
0.00157251
0.0015859
0.00158381
0.00157491
0.00157254
0.00158387
0.00158588
0.0015726
0.00159044
0.00160385
0.00160385
0.00159042
0.00159054
0.00160181
0.00160384
0.00159278
0.00160384
0.00159285
0.00159049
0.00159044
0.00160385
0.00160385
0.00159044
0.00158591
0.00158383
0.00157254
0.00157493
0.00158589
0.00158389
0.00157262
0.00158593
0.0015725
0.00158591
0.00157252
0.00158591
0.00158383
0.00157493
0.00157255
0.00158389
0.00158591
0.00157262
0.00158593
0.00157251
0.00158593
0.00157252
0.00160382
0.00160382
0.00159068
0.00159039
0.00159039
0.00160381
0.00159038
0.00157252
0.00158588
0.00158586
0.00157253
0.00157253
0.0015859
0.0015859
0.00157253
0.00158589
0.00159054
0.00160182
0.00160384
0.00159278
0.00160384
0.00159285
0.00159049
0.00159043
0.00160384
0.00160385
0.00159041
0.00159044
0.00160386
0.00160385
0.00159044
0.00158591
0.00158381
0.00157492
0.00157255
0.00158388
0.00158589
0.00157261
0.00158591
0.00158383
0.00157492
0.00157255
0.00158388
0.00158591
0.00157261
0.00158592
0.0015725
0.00158591
0.00157251
0.00158592
0.0015725
0.00158593
0.00157251
0.00160388
0.00159045
0.00160388
0.00159045
0.0015859
0.0015725
0.0015725
0.00158594
0.00158594
0.0015725
0.00158593
0.0015725
0.00158592
0.001568
0.00155459
0.001568
0.00155459
0.00156801
0.00156801
0.00155488
0.0015546
0.0015546
0.00153671
0.00155009
0.00153672
0.0015501
0.00155006
0.00153672
0.00153672
0.00155011
0.00155011
0.00155461
0.00156799
0.001568
0.00155458
0.00155472
0.00156799
0.00156597
0.00155697
0.00156798
0.00155466
0.00155702
0.00155472
0.00156797
0.00156597
0.00155698
0.00156798
0.00155464
0.00155703
0.00155011
0.00153671
0.0015501
0.00153672
0.00155011
0.0015367
0.00155008
0.00153672
0.0015501
0.00154801
0.00153676
0.00153912
0.00155009
0.00154807
0.00153683
0.0015501
0.00154802
0.00153676
0.00153912
0.00155008
0.00154808
0.00153683
0.00156799
0.00156799
0.0015549
0.00155458
0.00155458
0.00156799
0.00155457
0.00153669
0.00155007
0.00155007
0.0015367
0.0015367
0.00155008
0.00155008
0.00153669
0.00155007
0.00155471
0.00156798
0.00156596
0.00155696
0.00156798
0.00155466
0.00155701
0.00155462
0.001568
0.001568
0.0015546
0.00155471
0.00156595
0.00156797
0.00155694
0.00156797
0.00155701
0.00155465
0.00155011
0.00153672
0.0015501
0.00153673
0.00155009
0.00154801
0.00153677
0.00153912
0.00155009
0.00154807
0.00153683
0.00155011
0.0015367
0.00155011
0.00153673
0.00155009
0.00154803
0.00153913
0.00153676
0.00154807
0.00155009
0.00153683
0.00155461
0.00156799
0.00156801
0.00155458
0.00155471
0.00156598
0.00156798
0.00155699
0.00156799
0.00155703
0.00155464
0.00155461
0.001568
0.00156801
0.00155458
0.00155009
0.00154803
0.00153676
0.00153913
0.00155008
0.00154808
0.00153682
0.0015501
0.0015367
0.00155008
0.00153671
0.00155009
0.00154804
0.00153914
0.00153675
0.00154809
0.00155007
0.00153682
0.00155011
0.00153669
0.00155008
0.00153671
0.00156804
0.00156804
0.00155489
0.00155462
0.00155462
0.00156804
0.00155463
0.00153667
0.00155011
0.00155008
0.00153668
0.00153668
0.00155011
0.00155011
0.00153667
0.00155011
0.00155471
0.00156597
0.00156797
0.00155698
0.00156798
0.00155702
0.00155463
0.00155462
0.001568
0.001568
0.00155461
0.00155461
0.00156799
0.001568
0.00155458
0.00155009
0.00154803
0.00153914
0.00153676
0.00154808
0.00155009
0.00153683
0.00155009
0.00154804
0.00153914
0.00153675
0.00154808
0.00155007
0.00153683
0.00155011
0.0015367
0.00155011
0.00153672
0.00155011
0.0015367
0.00155008
0.00153672
0.00156799
0.00155459
0.00156799
0.00155459
0.00155009
0.00153667
0.00153668
0.00155009
0.00155009
0.00153667
0.00155008
0.00153667
0.00155008
0.00153222
0.00151886
0.00153222
0.00151885
0.00153223
0.00153223
0.00151909
0.00151885
0.00151885
0.00150098
0.00151437
0.00150097
0.00151436
0.0015143
0.00150098
0.00150097
0.00151437
0.00151437
0.00151884
0.00153221
0.00153221
0.00151885
0.00151893
0.0015322
0.00153017
0.00152117
0.0015322
0.00151887
0.00152123
0.00151893
0.00153219
0.00153017
0.00152112
0.0015322
0.00151889
0.00152123
0.00151435
0.00150097
0.00151434
0.001501
0.00151434
0.001501
0.00151436
0.001501
0.00151431
0.00151225
0.00150102
0.00150337
0.00151431
0.0015123
0.00150108
0.00151431
0.0015122
0.00150103
0.00150336
0.00151433
0.00151228
0.00150107
0.00153222
0.00153222
0.00151904
0.00151888
0.00151887
0.00153221
0.00151887
0.00150104
0.00151439
0.00151425
0.00150103
0.00150102
0.0015144
0.0015144
0.00150103
0.00151439
0.00151894
0.0015322
0.00153018
0.00152118
0.00153221
0.00151888
0.00152124
0.00151884
0.0015322
0.00153222
0.00151883
0.00151894
0.00153019
0.00153219
0.00152117
0.00153221
0.00152124
0.00151887
0.00151435
0.00150097
0.00151434
0.00150099
0.00151432
0.00151225
0.00150102
0.00150338
0.00151431
0.00151231
0.00150107
0.00151434
0.001501
0.00151434
0.00150099
0.00151432
0.00151222
0.00150336
0.00150103
0.0015123
0.00151432
0.00150107
0.00151883
0.00153221
0.00153221
0.00151885
0.00151893
0.00153018
0.00153218
0.00152115
0.0015322
0.00152122
0.00151887
0.00151883
0.00153219
0.00153221
0.00151882
0.00151431
0.0015122
0.00150103
0.00150335
0.00151432
0.00151227
0.00150106
0.00151433
0.00150099
0.00151436
0.00150099
0.00151431
0.0015122
0.00150334
0.00150102
0.00151228
0.00151431
0.00150106
0.00151433
0.00150099