/*--------------------------------*- C++ -*----------------------------------*\
| =========                 |                                                 |
| \\      /  F ield         | OpenFOAM: The Open Source CFD Toolbox           |
|  \\    /   O peration     | Version:  v1906                                 |
|   \\  /    A nd           | Web:      www.OpenFOAM.com                      |
|    \\/     M anipulation  |                                                 |
\*---------------------------------------------------------------------------*/
FoamFile
{
    version     2.0;
    format      ascii;
    class       volScalarField;
    location    "500";
    object      p;
}
// * * * * * * * * * * * * * * * * * * * * * * * * * * * * * * * * * * * * * //

dimensions      [0 2 -2 0 0 0 0];


internalField   nonuniform List<scalar> 
43248
(
0.00168041
0.00168253
0.00168254
0.00168045
0.00168252
0.00168253
0.00168254
0.00168254
0.00168044
0.00168253
0.00168254
0.00168043
0.00168261
0.00168262
0.00168261
0.00168262
0.00168013
0.00168013
0.00168014
0.00168014
0.00169363
0.00168013
0.00168015
0.00169363
0.00168013
0.00169361
0.00168015
0.00169362
0.0016802
0.00168259
0.00169161
0.00168026
0.00169362
0.00169155
0.00168019
0.0016826
0.0016936
0.00169161
0.00168026
0.00168013
0.00169363
0.00169362
0.00168013
0.00168013
0.00169364
0.00169365
0.00168013
0.00169364
0.00168013
0.00168015
0.0016802
0.00168259
0.00168026
0.00168013
0.00168015
0.00168259
0.00168019
0.00168026
0.00169363
0.00169155
0.00168019
0.0016826
0.00169361
0.00169161
0.00168026
0.00169363
0.00168013
0.00169362
0.00168015
0.00169363
0.00169156
0.0016826
0.00168019
0.00169161
0.00169361
0.00168026
0.00169363
0.00168013
0.00169362
0.00168015
0.00168015
0.00168015
0.00168015
0.00168016
0.00169362
0.0016826
0.00168019
0.00169161
0.00168026
0.00169362
0.00169155
0.0016826
0.00168018
0.00169161
0.00169361
0.00168026
0.00169363
0.00168013
0.00168015
0.00169363
0.00168013
0.00169362
0.00168015
0.00169363
0.00168013
0.00168013
0.00169363
0.00169363
0.00168013
0.00169361
0.00168013
0.00169361
0.0016846
0.0016846
0.00168461
0.00168016
0.00168462
0.00168017
0.00168464
0.00168463
0.00168015
0.00168461
0.00168016
0.00168462
0.00168016
0.00168463
0.00168464
0.00168016
0.00168464
0.00168018
0.00168017
0.00168464
0.00168464
0.00168016
0.00168914
0.00169363
0.00169363
0.00168916
0.00169363
0.00168914
0.00168915
0.00168461
0.00168461
0.00168013
0.00168461
0.00168014
0.00168462
0.00168462
0.00168013
0.00168014
0.00168462
0.00168461
0.00168013
0.00168914
0.00169363
0.00169362
0.00168916
0.00169363
0.00168914
0.00168915
0.00168461
0.0016846
0.00168014
0.00168462
0.00168014
0.00168915
0.00169364
0.00168913
0.00169363
0.00168915
0.00168461
0.00168462
0.00168013
0.00168014
0.00168462
0.00168461
0.00168013
0.00168462
0.00168916
0.00168916
0.00169364
0.00169364
0.00169366
0.00168915
0.00168915
0.00168464
0.0016802
0.00168463
0.00168012
0.00168466
0.00168461
0.00168018
0.00168464
0.0016802
0.00168463
0.00168012
0.00168461
0.00168467
0.00168018
0.00168919
0.00169363
0.00169366
0.00168916
0.0016892
0.00169364
0.00168915
0.00168919
0.00169363
0.00169366
0.00168916
0.00169364
0.00168915
0.0016892
0.00168461
0.00168008
0.00168008
0.00168459
0.00168459
0.0016801
0.00168462
0.00168916
0.00168461
0.00168461
0.00168013
0.00168461
0.00168014
0.00168462
0.00168462
0.00168014
0.00168013
0.00168461
0.00168462
0.00168014
0.00168462
0.00168461
0.00168015
0.00168463
0.00168015
0.00168461
0.00168462
0.00168013
0.00168014
0.00168462
0.00168461
0.00168013
0.00168914
0.00169363
0.00169363
0.00168916
0.00169363
0.00168915
0.00168914
0.00168462
0.0016846
0.00168014
0.00168462
0.00168015
0.00168915
0.00169363
0.00168914
0.00169363
0.00168915
0.00168461
0.00168462
0.00168014
0.00168013
0.00168461
0.00168462
0.00168013
0.00168914
0.00169363
0.00169363
0.00168916
0.00169363
0.00168914
0.00168915
0.00168461
0.00168461
0.00168013
0.00168461
0.00168014
0.00168915
0.00169362
0.00168914
0.00169362
0.00168914
0.00168462
0.00168462
0.00168013
0.00168014
0.00168462
0.00168461
0.00168013
0.00168463
0.00168464
0.0016802
0.00168464
0.00168014
0.00168466
0.00168463
0.00168019
0.00168464
0.0016802
0.00168464
0.00168014
0.00168463
0.00168466
0.00168019
0.00168465
0.00168013
0.00168013
0.00168463
0.00168463
0.00168015
0.00168463
0.00168914
0.00169363
0.00169363
0.00168916
0.00169363
0.00168915
0.00168914
0.00168462
0.00168461
0.00168015
0.00168463
0.00168015
0.00168916
0.00168915
0.00168461
0.00168462
0.00168014
0.00168013
0.00168461
0.00168462
0.00168013
0.00168914
0.00169363
0.00169363
0.00168916
0.00169363
0.00168915
0.00168914
0.00168461
0.00168461
0.00168013
0.00168461
0.00168014
0.00168915
0.00169362
0.00168914
0.00169362
0.00168914
0.00168462
0.00168462
0.00168014
0.00168013
0.00168461
0.00168462
0.00168013
0.00168914
0.00169362
0.00169362
0.00169363
0.00168915
0.00168915
0.0016846
0.00168016
0.00168462
0.00168013
0.00168463
0.00168461
0.00168015
0.0016846
0.00168016
0.00168462
0.00168013
0.00168463
0.00168461
0.00168015
0.00168916
0.00169363
0.00169365
0.00168914
0.00169362
0.00168918
0.00168915
0.00168916
0.00169363
0.00169365
0.00168914
0.00169362
0.00168918
0.00168914
0.00168462
0.00168014
0.00168014
0.00168462
0.00168462
0.00168013
0.0016846
0.00168914
0.0016846
0.00168914
0.00168454
0.0016846
0.00168027
0.00168028
0.00168458
0.0016846
0.00168027
0.0016846
0.00168462
0.00168033
0.00168033
0.00168463
0.00168463
0.00168034
0.00168458
0.00168461
0.00168032
0.00168032
0.00168462
0.00168462
0.00168033
0.00168454
0.00168461
0.00168029
0.00168028
0.0016846
0.0016846
0.00168028
0.00168262
0.00168262
0.00169163
0.00169163
0.00168262
0.00169163
0.00168262
0.00168262
0.00169163
0.00169163
0.00169163
0.00168262
0.00168262
0.00168262
0.00169163
0.00169163
0.00168262
0.00169163
0.00168262
0.00168262
0.00169163
0.00169163
0.00169163
0.00168262
0.00168929
0.00169362
0.00169363
0.00168927
0.0016936
0.00168926
0.0016893
0.00168462
0.00168017
0.00168461
0.00168023
0.00168461
0.00168461
0.00168028
0.00168459
0.00168461
0.00168025
0.00168029
0.00168461
0.00168462
0.00168027
0.00168928
0.00169361
0.00169363
0.00168927
0.0016936
0.00168925
0.0016893
0.00168463
0.00168019
0.0016846
0.00168023
0.00168461
0.00168462
0.00168029
0.00168929
0.00169362
0.00169362
0.0016892
0.00169364
0.00168924
0.00168918
0.00168459
0.00168461
0.00168025
0.00168029
0.0016846
0.00168462
0.00168028
0.00168932
0.00168945
0.00169362
0.00169362
0.00168932
0.00169357
0.00168932
0.00168462
0.00168017
0.0016846
0.00168023
0.00168462
0.00168461
0.00168027
0.00168459
0.00168461
0.00168025
0.00168028
0.00168461
0.00168461
0.00168027
0.00168463
0.00168017
0.0016846
0.00168023
0.00168461
0.00168461
0.00168029
0.00168458
0.00168461
0.00168029
0.00168024
0.00168462
0.0016846
0.00168027
0.00168928
0.00169361
0.00169363
0.00168927
0.0016936
0.00168926
0.0016893
0.00168463
0.00168019
0.0016846
0.00168023
0.00168462
0.00168461
0.00168029
0.00168929
0.00169362
0.00169362
0.0016892
0.00169364
0.00168919
0.00168924
0.00168459
0.00168461
0.00168025
0.00168029
0.0016846
0.00168462
0.00168028
0.00168929
0.00169363
0.00169362
0.00168927
0.00169361
0.0016893
0.00168926
0.00168462
0.00168016
0.00168459
0.00168022
0.0016846
0.00168461
0.00168027
0.00168929
0.00169362
0.00169363
0.0016892
0.00169364
0.00168924
0.00168918
0.00168459
0.00168461
0.00168029
0.00168024
0.00168462
0.0016846
0.00168027
0.00168928
0.00169363
0.00169361
0.00168927
0.0016936
0.00168929
0.00168925
0.00168463
0.00168018
0.0016846
0.00168023
0.00168461
0.00168461
0.00168028
0.00168928
0.00168924
0.00168459
0.00168461
0.00168029
0.00168024
0.00168462
0.0016846
0.00168027
0.00168929
0.00169363
0.00169362
0.00168927
0.00169361
0.0016893
0.00168926
0.00168462
0.00168016
0.00168459
0.00168022
0.0016846
0.00168461
0.00168027
0.00168929
0.00169362
0.00169363
0.0016892
0.00169364
0.00168924
0.00168918
0.00168459
0.00168461
0.00168028
0.00168024
0.00168462
0.0016846
0.00168027
0.00168929
0.00168944
0.00169362
0.00169362
0.00169357
0.0016893
0.0016893
0.00265272
0.00265268
0.00265259
0.00265499
0.00266024
0.0026627
0.00266293
0.00266054
0.00266273
0.0026628
0.00266299
0.0026626
0.00266026
0.00266282
0.00266258
0.00266012
0.00265496
0.00262041
0.0026526
0.00265262
0.00262266
0.00262233
0.00265506
0.00261981
0.00265262
0.00265255
0.00262266
0.0026225
0.00265264
0.00262231
0.00262292
0.00265491
0.00262006
0.00265262
0.00262249
0.00262292
0.00262075
0.00266282
0.00266289
0.00266282
0.00266285
0.00264012
0.00265519
0.0026552
0.00263999
0.00265493
0.00264009
0.00264009
0.00265506
0.00265511
0.00263999
0.0026527
0.00265269
0.00265283
0.00262272
0.00262264
0.00262265
0.00262279
0.00264037
0.0026552
0.00265278
0.00264239
0.00265537
0.00264036
0.00264264
0.00265505
0.0026401
0.0026403
0.0026527
0.00265516
0.00264245
0.00265529
0.00264264
0.00264027
0.00265539
0.00265537
0.00264058
0.00263984
0.00263989
0.00266022
0.0026753
0.00266012
0.00267525
0.00267529
0.00266039
0.00266039
0.00267542
0.00267541
0.00267531
0.00266028
0.00267534
0.00266026
0.00267531
0.00266017
0.00267515
0.00266024
0.00267539
0.00267288
0.00266042
0.00266278
0.0026754
0.00267299
0.00266036
0.00267541
0.00267322
0.0026603
0.00266286
0.00267512
0.0026731
0.00266038
0.00265998
0.00267497
0.00267601
0.00266007
0.00266008
0.00267482
0.00267482
0.0026599
0.00267497
0.00267531
0.00266013
0.00267526
0.00266019
0.00267552
0.0026729
0.00266042
0.00266283
0.00267541
0.00267299
0.00266045
0.00267529
0.0026602
0.00267518
0.0026602
0.00267547
0.00267304
0.0026628
0.00266031
0.00267302
0.00267527
0.00266038
0.00267551
0.00267321
0.00266032
0.00266293
0.00267514
0.00267305
0.00266063
0.00267541
0.00266002
0.00267515
0.0026602
0.00267547
0.00267269
0.00266283
0.00266038
0.00267289
0.00267556
0.00266058
0.00267539
0.00266013
0.00267541
0.00266025
0.00266007
0.00267504
0.00267563
0.0026602
0.00266022
0.00267508
0.00267509
0.00266003
0.00267505
0.00267552
0.00267303
0.00266282
0.00266032
0.00267299
0.00267527
0.00266055
0.0026755
0.00267269
0.0026628
0.00266035
0.00267288
0.00267556
0.00266058
0.00267534
0.0026601
0.00267518
0.00266019
0.00267535
0.00266008
0.00267537
0.00266022
0.00267489
0.00266056
0.00266055
0.00267576
0.00267573
0.00266037
0.00267534
0.00266034
0.00267534
0.00265514
0.00264009
0.00265507
0.00264008
0.00265531
0.00265529
0.00264015
0.0026402
0.00264017
0.00261993
0.00263503
0.00261996
0.00263504
0.00263495
0.00261995
0.00261996
0.00263513
0.00263511
0.00264009
0.0026551
0.00265517
0.00264001
0.00264045
0.00265524
0.00265264
0.00264257
0.00265518
0.00264021
0.00264261
0.00264047
0.0026552
0.00265266
0.00264236
0.0026552
0.00264039
0.00264257
0.00263502
0.00261999
0.00263492
0.00262004
0.002635
0.00262004
0.00263497
0.00262004
0.00263522
0.00263257
0.00262015
0.00262267
0.00263504
0.00263264
0.00262028
0.00263524
0.00263226
0.00262029
0.00262259
0.00263525
0.00263256
0.00262028
0.00265517
0.00265517
0.00263963
0.00264056
0.00264055
0.00265487
0.0026401
0.00262025
0.00263512
0.00263436
0.00262046
0.00262047
0.00263557
0.00263556
0.00262027
0.00263513
0.00264033
0.00265521
0.00265269
0.00264256
0.0026552
0.00264015
0.00264261
0.00264012
0.00265512
0.00265512
0.00264
0.00264037
0.00265263
0.00265515
0.00264242
0.00265515
0.00264256
0.00264028
0.00263505
0.00262006
0.00263495
0.00262012
0.00263515
0.00263255
0.00262021
0.00262267
0.002635
0.00263262
0.00262033
0.00263507
0.00262014
0.00263498
0.00262009
0.00263521
0.00263242
0.00262265
0.00262043
0.0026326
0.00263521
0.00262035
0.00264002
0.00265497
0.00265509
0.00264004
0.00264041
0.0026528
0.00265515
0.00264276
0.00265535
0.00264277
0.00264017
0.00264006
0.00265501
0.00265514
0.00263994
0.00263515
0.00263226
0.00262031
0.00262261
0.00263523
0.00263257
0.00262029
0.00263499
0.0026201
0.00263502
0.0026201
0.00263519
0.00263288
0.00262273
0.00262012
0.00263275
0.00263496
0.00262032
0.00263501
0.00262004
0.0026349
0.00262008
0.00265522
0.00265524
0.00263992
0.00264037
0.00264037
0.00265501
0.00264014
0.00262017
0.00263508
0.00263468
0.0026204
0.00262039
0.00263535
0.00263535
0.0026202
0.00263512
0.0026403
0.00265277
0.00265512
0.00264274
0.00265533
0.00264276
0.0026401
0.00264008
0.00265504
0.0026551
0.00264004
0.00264008
0.00265498
0.00265513
0.00263989
0.0026351
0.00263243
0.00262264
0.00262045
0.00263264
0.00263518
0.00262034
0.00263508
0.00263288
0.00262272
0.00262018
0.00263274
0.00263495
0.0026203
0.00263505
0.0026202
0.00263504
0.00262018
0.00263505
0.00262015
0.00263497
0.00262018
0.00265526
0.00263994
0.00265524
0.00263996
0.00263539
0.00261981
0.00261984
0.00263469
0.00263472
0.00261982
0.00263481
0.00261989
0.00263486
0.00264495
0.00264514
0.00263988
0.00264009
0.00264492
0.00264513
0.00263989
0.00265009
0.00265521
0.00265015
0.00265514
0.00265019
0.00265012
0.00265021
0.00265517
0.00265524
0.0026552
0.00265008
0.00265023
0.00264494
0.00264007
0.00264503
0.0026451
0.00263995
0.00265
0.00264502
0.00264499
0.00264506
0.00264005
0.00263999
0.00264502
0.002645
0.00264
0.00265002
0.00265506
0.00265005
0.00265499
0.00265006
0.00265004
0.00265012
0.00265508
0.00265507
0.00265503
0.00265008
0.00265006
0.00264497
0.00264005
0.00264498
0.00264502
0.00264001
0.0026501
0.00264507
0.00264491
0.00263888
0.00263889
0.00264438
0.00264438
0.00263935
0.00265073
0.00265554
0.0026552
0.00265026
0.00265564
0.0026506
0.00265008
0.00265074
0.00265555
0.00265513
0.00265026
0.00265563
0.00265061
0.00265002
0.00265041
0.0026554
0.00265544
0.00265576
0.00265
0.00264999
0.00264569
0.00263967
0.00264504
0.00264063
0.00264557
0.00264486
0.00264065
0.00264569
0.00263967
0.00264505
0.00264064
0.00264558
0.00264483
0.00264064
0.00266522
0.0026703
0.00266514
0.00267023
0.00267054
0.00267547
0.00267547
0.00267546
0.00267063
0.00267063
0.00266523
0.00266025
0.0026654
0.00266042
0.00266543
0.00266526
0.00266027
0.00266523
0.00266026
0.0026654
0.0026604
0.00266543
0.00266528
0.00266028
0.00267036
0.00267544
0.00267539
0.00267045
0.00267537
0.00267047
0.00267036
0.00267036
0.00267545
0.0026754
0.00267045
0.00267537
0.00267048
0.00267037
0.00266558
0.00266065
0.00266064
0.00266564
0.00266564
0.00266062
0.00267038
0.00267533
0.00267532
0.00267031
0.00267535
0.00267035
0.00267035
0.00266531
0.00266529
0.00266028
0.00266027
0.00266529
0.00267042
0.00267535
0.00267036
0.00267537
0.00267037
0.00266533
0.00266524
0.00266026
0.00266031
0.0026603
0.00266529
0.00266528
0.0026703
0.00267531
0.00267526
0.0026703
0.00267527
0.00267033
0.00267027
0.0026652
0.00266515
0.00266015
0.00266518
0.00266016
0.0026703
0.00267529
0.00267019
0.00267528
0.00267028
0.00266524
0.00266523
0.00266024
0.00266023
0.00266527
0.00266521
0.00266023
0.00266496
0.00266999
0.00266912
0.00267374
0.00267376
0.00267402
0.00266904
0.00266906
0.00266492
0.00266005
0.00266494
0.00266012
0.00266514
0.00266497
0.00265996
0.00266491
0.00266008
0.00266492
0.00266011
0.0026649
0.00266515
0.00265995
0.00267008
0.00267454
0.00267552
0.00266988
0.00267036
0.00267515
0.00266974
0.00267007
0.00267457
0.0026755
0.00266988
0.00267515
0.00266975
0.00267036
0.00266432
0.00265989
0.0026599
0.00266432
0.00266443
0.00265967
0.00266487
0.00266995
0.00267013
0.00267531
0.00267518
0.00267029
0.00267517
0.00267028
0.00267016
0.00266502
0.00266514
0.00266012
0.00266005
0.00266514
0.0026701
0.00267524
0.00267023
0.00267512
0.00267021
0.00266507
0.0026652
0.00266016
0.00266011
0.00266007
0.00266518
0.00266511
0.00267025
0.00267521
0.00267522
0.00267027
0.00267522
0.00267022
0.00267024
0.00266527
0.00266519
0.00266022
0.00266522
0.00266026
0.00267034
0.00267524
0.00267023
0.00267524
0.00267028
0.00266522
0.00266519
0.00266018
0.00266022
0.00266518
0.00266519
0.00266024
0.00267011
0.00267537
0.00267529
0.00267038
0.00267526
0.00267032
0.00267017
0.00266487
0.00266502
0.00265995
0.00266502
0.00265985
0.00267006
0.0026753
0.00267012
0.0026752
0.00267019
0.00266496
0.00266526
0.00266011
0.00265999
0.00266517
0.00266503
0.00265994
0.00267026
0.0026753
0.00267541
0.00267038
0.00267538
0.0026702
0.00267041
0.00266509
0.00266521
0.00266021
0.00266523
0.00266004
0.00267023
0.00267532
0.00267035
0.00267529
0.00267029
0.00266511
0.00266528
0.00266003
0.00266023
0.00266507
0.00266527
0.00266004
0.00266503
0.00267007
0.00266974
0.00267453
0.00267453
0.00267463
0.00266977
0.00266976
0.00266499
0.00266006
0.00266513
0.00266017
0.00266511
0.00266508
0.00265997
0.00266499
0.00266008
0.00266514
0.00266018
0.0026651
0.00266513
0.00265997
0.00267015
0.00267497
0.00267542
0.00267011
0.0026703
0.00267523
0.00267006
0.00267016
0.002675
0.00267541
0.00267012
0.00267524
0.0026701
0.0026703
0.00266489
0.0026603
0.0026603
0.00266497
0.00266498
0.00266014
0.00266499
0.00267005
0.00267015
0.00267527
0.00267522
0.00267032
0.00267519
0.00267025
0.00267016
0.00266504
0.00266511
0.00266008
0.0026651
0.00266005
0.00267014
0.00267521
0.00267018
0.00267516
0.00267018
0.00266507
0.00266522
0.00266015
0.00266004
0.00266516
0.00266507
0.00266007
0.00267017
0.00267539
0.00267523
0.00267034
0.00267527
0.00267034
0.00267015
0.00266497
0.00266515
0.00266016
0.00266516
0.00265999
0.0026701
0.00267527
0.00267029
0.00267518
0.00267023
0.00266504
0.00266524
0.00266017
0.00266003
0.00266522
0.00266505
0.00265999
0.00267157
0.00267668
0.00267667
0.0026765
0.00267159
0.00267158
0.0026655
0.00266052
0.00266564
0.00266044
0.00266065
0.00266536
0.0026656
0.0026655
0.00266052
0.00266563
0.00266041
0.00266064
0.00266536
0.00266559
0.00267039
0.00267591
0.00267522
0.00267074
0.00267527
0.00267031
0.00267082
0.00267039
0.00267591
0.00267522
0.00267073
0.00267527
0.00267031
0.00267081
0.00266639
0.00266085
0.00266084
0.0026611
0.00266624
0.00266623
0.00266537
0.00267043
0.00266534
0.00267039
0.00265014
0.00264508
0.00265009
0.00264504
0.00264544
0.00264021
0.00264016
0.00264529
0.00264527
0.00264036
0.00265026
0.00265518
0.00265532
0.00265029
0.0026552
0.00265027
0.0026502
0.00265027
0.00265518
0.00265529
0.00265026
0.00265521
0.00265024
0.0026502
0.00265054
0.00265554
0.00265553
0.00265558
0.00265047
0.00265045
0.00264522
0.00264011
0.00264522
0.00264023
0.00264515
0.00264027
0.00264517
0.00264522
0.00264009
0.00264518
0.00264023
0.00264512
0.00264028
0.00264516
0.00262494
0.00263004
0.00262498
0.00263006
0.00263008
0.00263504
0.00263502
0.00263521
0.0026299
0.0026299
0.00262524
0.00262034
0.002625
0.00261987
0.00262491
0.0026253
0.00262021
0.00262524
0.00262034
0.00262501
0.00261987
0.0026249
0.00262529
0.00262022
0.00263031
0.00263504
0.00263522
0.00263011
0.00263523
0.00263003
0.00263029
0.00263031
0.00263502
0.00263522
0.0026301
0.00263523
0.00263002
0.00263029
0.00262485
0.00261958
0.00261957
0.00262465
0.00262465
0.00261969
0.00264489
0.00264511
0.00263984
0.00264004
0.00264488
0.00264506
0.00263984
0.00264995
0.00265505
0.00265009
0.00265502
0.00265001
0.00265005
0.00265018
0.00265514
0.00265516
0.00265004
0.00265514
0.00265016
0.00264478
0.00263992
0.00264501
0.00264492
0.00263979
0.00262991
0.00263486
0.00263498
0.00263003
0.00263485
0.00262991
0.00262999
0.00262495
0.00262493
0.00262002
0.00262498
0.00262002
0.00262997
0.00263501
0.00262994
0.00263491
0.00263002
0.00262493
0.00262498
0.00262001
0.00262002
0.00262493
0.00262496
0.00262001
0.00262989
0.00263482
0.00263496
0.00263001
0.00263482
0.00262989
0.00262997
0.00262492
0.00262499
0.00262007
0.00262498
0.00262003
0.00262989
0.0026349
0.00263
0.00263478
0.00262996
0.00262493
0.00262498
0.00262001
0.00262002
0.00262492
0.00262496
0.00262002
0.00264612
0.00264161
0.0026416
0.00264637
0.00264637
0.00264142
0.00264984
0.00265492
0.00265526
0.00265032
0.00265053
0.00265484
0.00264987
0.00264986
0.00265494
0.00265525
0.00265032
0.00264988
0.00265484
0.00265052
0.00265062
0.00265533
0.00265533
0.00265095
0.00265505
0.00265094
0.00264484
0.00264081
0.00264542
0.00263988
0.0026457
0.0026448
0.00264009
0.00264485
0.0026408
0.00264541
0.00263987
0.00264481
0.00264569
0.0026401
0.00264996
0.002645
0.00262519
0.00263021
0.00263146
0.00263657
0.00263656
0.00263646
0.00263145
0.00263144
0.00262545
0.00262035
0.00262551
0.00262049
0.00262519
0.00262559
0.00262061
0.00262544
0.00262036
0.00262551
0.00262048
0.00262558
0.00262519
0.00262061
0.00263034
0.00263576
0.00263499
0.00263058
0.00263014
0.00263516
0.00263073
0.00263033
0.00263575
0.00263499
0.00263057
0.00263516
0.00263071
0.00263014
0.00262629
0.00262086
0.00262086
0.00262616
0.00262615
0.00262108
0.00262521
0.00263022
0.00264505
0.00264509
0.00263996
0.00264013
0.002645
0.00264512
0.00263998
0.00265009
0.00265514
0.00265011
0.00265513
0.00265013
0.00265015
0.00265014
0.00265512
0.00265516
0.00265009
0.00265517
0.00265019
0.00264497
0.00264008
0.00264502
0.00264507
0.00263993
0.00262999
0.00263501
0.00263494
0.00263009
0.00263496
0.00263006
0.00262997
0.00262504
0.00262499
0.00262014
0.00262509
0.00262013
0.00263005
0.00263504
0.00263
0.00263497
0.00263009
0.00262499
0.00262506
0.00262012
0.00262006
0.00262504
0.00262498
0.00262007
0.0026299
0.0026349
0.00263506
0.00263009
0.00263488
0.00262992
0.00263007
0.00262497
0.00262506
0.00262009
0.00262503
0.00262009
0.00262993
0.00263502
0.00263003
0.00263485
0.00263003
0.00262495
0.00262505
0.00262004
0.00262009
0.00262495
0.00262503
0.00262007
0.00264493
0.002645
0.00264
0.00263993
0.00264497
0.0026449
0.00263997
0.00264986
0.00265487
0.00265001
0.00264988
0.0026548
0.00264995
0.00265007
0.00265502
0.00265493
0.00265001
0.00265491
0.00264993
0.00264484
0.00263993
0.00264499
0.00264487
0.00263992
0.00264487
0.00264505
0.00263994
0.00264002
0.00264492
0.002645
0.00263989
0.00264995
0.00265513
0.00264998
0.00265492
0.00265011
0.00264992
0.00265013
0.00265497
0.00265512
0.00265494
0.00264996
0.00265009
0.00264489
0.00264003
0.00264492
0.00264504
0.00263994
0.00263002
0.00263499
0.00263491
0.00263005
0.00263497
0.00263005
0.00262997
0.00262503
0.00262506
0.00262017
0.00262508
0.00262013
0.00263001
0.00263496
0.00263007
0.00263492
0.00263005
0.00262502
0.00262503
0.00262011
0.00262006
0.00262504
0.00262499
0.00262008
0.00262993
0.00263492
0.00263497
0.00263005
0.00263488
0.00262998
0.00263001
0.00262497
0.00262495
0.00262005
0.00262498
0.00262006
0.00262998
0.00263498
0.00262995
0.00263491
0.00263
0.00262497
0.00262503
0.00262005
0.00262007
0.00262498
0.002625
0.00262007
0.00264585
0.00264073
0.00264073
0.00264575
0.00264575
0.00264084
0.00265001
0.00265497
0.00265523
0.0026503
0.00265037
0.00265484
0.00265
0.00265
0.00265499
0.00265523
0.00265031
0.00265002
0.00265484
0.00265036
0.00265077
0.00265561
0.00265561
0.00265083
0.00265546
0.00265083
0.00264517
0.00264046
0.0026453
0.00264017
0.00264539
0.00264503
0.00264038
0.00264517
0.00264046
0.00264531
0.00264017
0.00264504
0.00264538
0.00264039
0.00265008
0.00264508
0.00262511
0.00263012
0.00263075
0.00263564
0.00263564
0.00263578
0.00263065
0.00263066
0.00262546
0.0026203
0.00262537
0.00262054
0.00262528
0.00262552
0.00262046
0.00262546
0.0026203
0.00262537
0.00262056
0.00262553
0.00262528
0.00262046
0.00263052
0.00263547
0.0026352
0.0026304
0.00263031
0.00263542
0.00263054
0.00263052
0.00263547
0.0026352
0.00263039
0.00263542
0.00263055
0.00263031
0.00262567
0.00262062
0.00262063
0.00262561
0.00262562
0.00262061
0.00262514
0.00263016
0.00264502
0.00264505
0.00264008
0.00264004
0.00264504
0.002645
0.00264006
0.00265003
0.00265504
0.00265004
0.00265006
0.00265499
0.00265004
0.00265011
0.00265508
0.00265499
0.00265009
0.00265502
0.00265001
0.00264499
0.00264008
0.002645
0.00264503
0.00264005
0.00264498
0.00264506
0.00264006
0.00264006
0.00264501
0.002645
0.00264006
0.00265006
0.00265513
0.00264996
0.00265495
0.00265015
0.00264996
0.00265013
0.00265507
0.00265498
0.00265493
0.00265006
0.00265
0.00264506
0.00264021
0.00264491
0.00264513
0.00264016
0.0026301
0.00263506
0.00263504
0.00263012
0.00263505
0.00263013
0.00263009
0.00262505
0.00262513
0.00262014
0.0026251
0.0026201
0.00263008
0.00263506
0.00263012
0.00263502
0.00263011
0.0026251
0.0026251
0.00262019
0.00262013
0.00262512
0.0026251
0.00262013
0.00263013
0.00263504
0.00263507
0.00263012
0.00263507
0.00263011
0.00263013
0.00262519
0.00262507
0.00262016
0.00262512
0.0026202
0.00263025
0.00263512
0.00263007
0.00263513
0.00263015
0.00262515
0.0026251
0.0026202
0.00262016
0.0026251
0.00262513
0.00262019
0.00265018
0.00264503
0.00265017
0.00264504
0.00262891
0.00263368
0.00263369
0.00263393
0.00262886
0.00262888
0.00262463
0.00261998
0.00262466
0.00261982
0.00262509
0.00262461
0.00261966
0.00262463
0.00261999
0.00262469
0.00261993
0.00262509
0.00262464
0.00261967
0.00262989
0.00263448
0.00263553
0.00262965
0.00263523
0.00263034
0.00262952
0.00262989
0.00263449
0.00263553
0.00262967
0.00263523
0.00263034
0.00262954
0.00262413
0.0026196
0.0026195
0.00262418
0.00262418
0.00261947
0.00262473
0.00262978
0.00262481
0.00262986
0.00265271
0.00265273
0.00264268
0.00264265
0.00264267
0.00264267
0.00265274
0.0026509
0.0026552
0.0026552
0.00265036
0.00265545
0.00265052
0.00265053
0.00266498
0.0026651
0.00266019
0.00266018
0.00266506
0.00266507
0.00266023
0.00266505
0.0026656
0.00266029
0.00266031
0.00266542
0.00266545
0.00266014
0.00266489
0.00266526
0.00266013
0.00266014
0.00266513
0.00266514
0.00266006
0.00266497
0.00266482
0.00266021
0.00266021
0.00266051
0.00266483
0.00266482
0.00265024
0.00265494
0.00265493
0.00265014
0.00265491
0.00265012
0.00265011
0.0026253
0.00262508
0.00262051
0.00262051
0.0026252
0.00262521
0.00262063
0.00264959
0.00265484
0.00265486
0.00265003
0.00264979
0.00265454
0.00264979
0.00262481
0.00262445
0.00261995
0.00261996
0.00262454
0.00262454
0.00262035
0.00264984
0.0026548
0.00265481
0.00265
0.00264989
0.00265458
0.00264989
0.00262504
0.00262478
0.00262007
0.00262008
0.00262484
0.00262484
0.00262034
0.00262508
0.00262556
0.00262058
0.00262058
0.00262557
0.00262558
0.00261999
0.00267296
0.00266283
0.00266283
0.00267298
0.00267297
0.00267299
0.00266285
0.00267311
0.00266286
0.00266288
0.00267302
0.00267301
0.002673
0.00266287
0.002673
0.00266283
0.00266285
0.00267299
0.00267298
0.00267299
0.00266285
0.0026729
0.00266284
0.00266282
0.00267295
0.00267294
0.00267297
0.00266284
0.00265272
0.00265277
0.0026426
0.00264265
0.00264268
0.00264268
0.00265275
0.00265271
0.00265274
0.00264264
0.00264265
0.00264267
0.00264267
0.00265273
0.00265276
0.00265276
0.00264283
0.00264273
0.00264273
0.00264271
0.00265276
0.00263269
0.00262268
0.00262268
0.00263265
0.00263265
0.00263266
0.00262268
0.00263258
0.00262264
0.00262265
0.00263262
0.00263264
0.00263265
0.00262266
0.00263264
0.00262267
0.00262268
0.00263264
0.00263266
0.00263266
0.00262268
0.00263282
0.00262272
0.00262272
0.00263272
0.00263272
0.00263269
0.0026227
0.00264518
0.00264523
0.00264033
0.00264032
0.00264519
0.00264523
0.00264024
0.00265031
0.00265514
0.00265525
0.00265036
0.00265532
0.00265007
0.00265036
0.00265037
0.00265047
0.00265535
0.00265533
0.00265533
0.00265046
0.00265039
0.00264512
0.00264025
0.00264522
0.00263986
0.00264492
0.00264512
0.00264018
0.00264512
0.00264516
0.00264027
0.00264028
0.00264517
0.00264511
0.00264021
0.00265024
0.00265505
0.00265517
0.00265027
0.0026552
0.00265004
0.00265031
0.00265027
0.00265041
0.00265526
0.00265523
0.00265521
0.00265033
0.00265036
0.00264511
0.00264027
0.00264513
0.00264007
0.00264499
0.0026451
0.00264022
0.00264574
0.00264517
0.00264067
0.00264071
0.00264541
0.00264542
0.00264119
0.00267041
0.00267041
0.00267527
0.00267527
0.0026752
0.00267036
0.00267037
0.00267045
0.00267536
0.00267546
0.00267046
0.00267544
0.00267046
0.00267048
0.00266527
0.00266024
0.00266533
0.00266039
0.00266526
0.00266523
0.0026603
0.00267045
0.00267534
0.00267543
0.0026705
0.00267039
0.00267545
0.00267044
0.00266524
0.00266521
0.00266038
0.00266033
0.00266522
0.00266527
0.0026603
0.00267054
0.00267534
0.00267549
0.00267048
0.00267554
0.00267044
0.0026705
0.00266537
0.00266026
0.00266514
0.00266035
0.0026652
0.00266534
0.00266037
0.0026706
0.00267531
0.00267565
0.00267025
0.00267562
0.00267041
0.00267055
0.00266532
0.00266523
0.00266037
0.00266035
0.00266521
0.0026653
0.00266036
0.00267067
0.00267108
0.00267601
0.00267601
0.00267102
0.0026757
0.00267101
0.00267054
0.00267552
0.00267552
0.00267062
0.0026755
0.00267064
0.00267055
0.00266537
0.00266027
0.00266534
0.00266045
0.00266529
0.00266534
0.00266039
0.00267054
0.00267545
0.00267543
0.00267051
0.0026704
0.0026755
0.00267058
0.00266536
0.00266534
0.00266049
0.00266038
0.00266537
0.00266535
0.0026604
0.0026705
0.00267552
0.00267536
0.00267054
0.00267551
0.00267052
0.00267045
0.00266528
0.00266016
0.0026652
0.00266029
0.00266516
0.00266526
0.00266027
0.00267051
0.00267532
0.00267554
0.00267038
0.00267555
0.0026704
0.00267045
0.00266527
0.00266526
0.00266033
0.00266032
0.00266531
0.00266519
0.00266029
0.00267061
0.00267546
0.00267547
0.0026707
0.00267551
0.00267066
0.00267055
0.00266547
0.0026603
0.00266518
0.00266051
0.00266051
0.00266537
0.0026654
0.00267065
0.0026754
0.00267562
0.00267028
0.00267558
0.00267057
0.00267057
0.00266545
0.00266549
0.00266063
0.00266049
0.0026605
0.00266549
0.00266541
0.00267044
0.00267544
0.00267548
0.00267065
0.00267539
0.00267051
0.00267065
0.00266532
0.00266024
0.00266537
0.00266051
0.00266537
0.00266515
0.00266043
0.00267042
0.00267542
0.00267522
0.0026706
0.00267537
0.00267057
0.0026702
0.0026653
0.00266544
0.00266046
0.00266055
0.00266537
0.00266541
0.00266041
0.00267037
0.00267067
0.00267557
0.00267556
0.00267057
0.00267538
0.00267057
0.00267055
0.00267548
0.00267546
0.00267066
0.00267551
0.00267054
0.0026706
0.00266535
0.00266019
0.00266522
0.00266041
0.00266037
0.00266527
0.00266528
0.00267055
0.00267538
0.00267551
0.00267039
0.00267554
0.00267045
0.00267051
0.00266536
0.00266542
0.00266043
0.00266049
0.0026604
0.00266537
0.00266536
0.00267047
0.00267545
0.00267555
0.00267067
0.00267541
0.00267051
0.00267071
0.00266534
0.00266024
0.00266534
0.00266049
0.00266538
0.00266515
0.00266045
0.00267045
0.00267548
0.00267522
0.00267059
0.00267539
0.00267063
0.0026702
0.00266533
0.00266544
0.00266045
0.00266056
0.00266536
0.00266544
0.00266043
0.00267003
0.00266998
0.0026747
0.00267469
0.00267459
0.00266988
0.00266987
0.002645
0.00264491
0.00264019
0.00264019
0.00264035
0.00264494
0.00264493
0.00263054
0.00263026
0.00263503
0.00263504
0.00263513
0.0026303
0.00263031