/*--------------------------------*- C++ -*----------------------------------*\
| =========                 |                                                 |
| \\      /  F ield         | OpenFOAM: The Open Source CFD Toolbox           |
|  \\    /   O peration     | Version:  v1906                                 |
|   \\  /    A nd           | Web:      www.OpenFOAM.com                      |
|    \\/     M anipulation  |                                                 |
\*---------------------------------------------------------------------------*/
FoamFile
{
    version     2.0;
    format      ascii;
    class       surfaceScalarField;
    location    "500";
    object      phi;
}
// * * * * * * * * * * * * * * * * * * * * * * * * * * * * * * * * * * * * * //

dimensions      [0 3 -1 0 0 0 0];
oriented        oriented;


internalField   nonuniform List<scalar> 
124860
(
-1.24756e-06
-1.23677e-06
-0.00026951
2.59557e-07
1.96736e-07
1.89967e-07
7.7752e-08
-1.28893e-06
2.20139e-07
-2.64e-07
-9.11362e-07
1.65401e-07
-2.61534e-07
8.48764e-07
-0.00113979
1.25556e-06
2.26871e-07
-0.00114023
8.8115e-08
-1.29179e-06
2.26714e-07
-2.65338e-07
-9.06238e-07
2.003e-07
-2.4589e-07
8.60275e-07
-1.21631e-06
-0.000269528
2.23172e-07
2.27255e-07
2.37903e-07
1.12195e-07
-1.23916e-06
2.47353e-07
-2.457e-07
-8.97738e-07
2.25563e-07
-2.34309e-07
8.59996e-07
-0.00114087
1.25508e-06
2.20514e-07
6.23591e-08
-1.28151e-06
2.32232e-07
-2.59269e-07
-9.03305e-07
2.01852e-07
-2.45342e-07
8.58044e-07
-0.00113988
2.2961e-07
-0.00114062
8.4147e-08
-1.25085e-06
2.19305e-07
-2.56233e-07
-9.00995e-07
1.97175e-07
-2.43541e-07
8.54526e-07
1.25018e-06
2.35434e-07
-0.00113968
7.34155e-08
-1.27763e-06
2.30271e-07
-2.53289e-07
-9.04865e-07
1.94988e-07
-2.48869e-07
8.55804e-07
-1.21587e-06
-0.000269492
2.26939e-07
2.31171e-07
2.17798e-07
7.46993e-08
-1.24041e-06
2.24896e-07
-2.50087e-07
-9.00817e-07
2.01472e-07
-2.45813e-07
8.54885e-07
-0.00114026
1.21214e-06
2.27087e-07
-0.0011408
8.51439e-08
-1.24669e-06
2.26901e-07
-2.54186e-07
-9.01926e-07
1.98097e-07
-2.48639e-07
8.53526e-07
-0.000269502
2.26868e-07
2.32665e-07
1.95118e-07
2.30101e-07
-0.00119096
-0.00119098
2.00077e-07
1.97098e-07
1.82257e-07
2.08559e-07
-0.00119057
-0.00119079
1.98145e-07
2.15208e-07
-1.19725e-08
-4.22097e-09
-9.70903e-05
-1.40438e-08
-4.63808e-09
-9.70917e-05
-1.19835e-08
9.16385e-09
-0.000276391
1.98408e-09
-1.64885e-08
-5.27764e-08
-0.000276371
5.33018e-09
-8.33851e-10
4.33733e-08
-1.44602e-08
2.76929e-09
0.000228324
-0.000228355
-2.05114e-08
-0.000192034
-1.52178e-09
-2.93787e-09
-3.80442e-08
-0.000228312
1.74774e-08
5.19795e-09
4.34858e-08
-1.43412e-08
2.88891e-10
0.00022836
-0.00022839
-2.40962e-08
7.27742e-09
-0.00019208
-3.34767e-09
2.79757e-08
-8.74724e-09
-9.71044e-10
0.000192078
-0.000192096
-3.86148e-08
-0.000228349
1.77434e-08
-5.05345e-10
2.01749e-09
9.33738e-11
1.94421e-07
0.000250139
-0.000250292
-7.13008e-08
-0.000244366
-7.59191e-09
-0.00116211
-8.24169e-09
3.21054e-07
-1.01499e-06
7.59979e-07
-8.3748e-07
9.38818e-07
7.03518e-09
3.32887e-07
9.38673e-07
-8.36387e-07
-1.01344e-06
7.59364e-07
-0.00116221
-8.40978e-08
-3.08934e-09
-0.000250112
2.15491e-09
-1.57092e-07
6.65373e-10
1.9449e-07
0.000250169
-0.000250319
7.53572e-08
-1.28828e-06
2.25644e-07
8.59646e-07
-2.47761e-07
-9.08083e-07
2.00235e-07
1.26069e-06
-2.59223e-07
2.32858e-07
-0.00114038
1.32986e-08
-9.03141e-08
-0.000244391
-5.36308e-09
-0.00116226
3.26254e-07
-1.01101e-06
7.60759e-07
-8.34322e-07
9.43645e-07
-1.72084e-08
6.05985e-09
1.07626e-07
0.0002444
-0.000244469
3.31194e-07
9.42465e-07
-8.36356e-07
-1.01342e-06
7.59777e-07
-0.00116236
-0.000250143
-9.67912e-10
-1.60326e-07
-7.62689e-09
-9.70921e-05
4.36799e-09
9.70907e-05
-9.71038e-05
1.2473e-06
0.000269567
-2.34162e-07
-2.39655e-07
-0.000271629
-2.58237e-08
-0.000276353
1.69976e-08
9.45906e-09
-1.10448e-08
-2.52752e-08
-0.000276458
1.72472e-08
-1.40845e-08
2.33569e-08
0.000276362
-0.000276384
-6.71992e-09
1.41221e-08
-1.34022e-08
2.34695e-08
0.000276468
-0.000276485
-7.87226e-09
-9.70951e-05
8.51996e-09
9.70934e-05
-9.71086e-05
-2.29423e-08
-0.00019206
-4.23386e-09
-3.79267e-08
-2.83156e-09
-0.000228338
4.87704e-09
1.53679e-08
-9.32109e-08
-0.000244391
-1.20195e-08
7.31155e-09
3.24054e-07
-1.00659e-06
7.57283e-07
-8.29183e-07
9.39082e-07
-0.00116199
-2.37472e-09
-0.000250125
1.47855e-09
-1.62095e-07
-2.81448e-08
2.83551e-09
-0.000192011
1.09501e-09
-3.83773e-08
-0.0002283
1.56527e-08
-8.22612e-10
3.27756e-07
-1.00854e-06
7.57872e-07
-8.28913e-07
9.40607e-07
-0.00116196
1.01431e-08
-8.68938e-08
-0.000244327
-7.04968e-09
-0.0002501
-1.6003e-07
-1.20542e-10
-4.36567e-08
5.50678e-10
2.10434e-09
1.92173e-07
0.000250166
-0.000250317
7.11151e-08
2.33816e-07
1.2215e-06
-2.49986e-07
2.25606e-07
8.53654e-07
-2.45355e-07
-9.03105e-07
1.97143e-07
-0.00114077
2.60478e-08
-8.99549e-08
-0.000244435
-5.52958e-09
-0.00116204
-1.97454e-09
3.28467e-07
-1.00845e-06
7.57744e-07
-8.31716e-07
9.40485e-07
-3.00608e-08
5.21792e-09
1.07727e-07
0.000244445
-0.000244513
-3.26081e-09
3.392e-07
9.39016e-07
-8.33955e-07
-1.01106e-06
7.56496e-07
-0.00116215
3.8523e-08
-5.30042e-10
-0.000250139
-1.33532e-09
-1.60322e-07
7.62574e-10
8.2065e-10
-1.44079e-08
0.000228357
-0.000228388
-0.000192078
-4.03543e-09
-1.28771e-09
0.000192075
-0.000192096
1.34287e-09
-0.000228346
1.05914e-10
1.75876e-08
-4.35554e-08
1.89517e-07
-4.89714e-10
0.000250142
-0.000250287
8.45156e-08
-1.28102e-06
2.44048e-07
8.549e-07
-2.50492e-07
-9.06622e-07
1.9645e-07
1.24789e-06
-2.56686e-07
2.27751e-07
-0.00113984
-0.00116197
3.28901e-07
-1.00936e-06
7.5739e-07
-8.32025e-07
9.39338e-07
2.26201e-08
1.19958e-08
-8.40003e-08
-0.000244364
-8.23622e-09
3.41051e-07
9.38425e-07
-8.34051e-07
-1.01118e-06
7.5631e-07
-0.00116208
-3.11219e-08
-1.15437e-08
2.99119e-09
1.08865e-07
0.000244375
-0.000244445
3.80542e-08
-0.000250114
-1.57325e-07
2.11329e-09
-1.45425e-08
2.45135e-09
0.000228322
-0.000228352
1.64249e-09
-0.000192022
-2.18554e-10
-4.09503e-09
-6.72347e-09
0.000192021
-0.000192041
-0.00022831
1.73945e-08
3.29382e-09
-1.41488e-08
-9.70732e-05
-2.99442e-08
-0.000276325
8.6302e-09
1.16944e-08
-1.04698e-08
-3.22143e-08
-0.00027642
1.12848e-08
-2.95399e-09
-9.70839e-05
-9.22962e-10
-4.66607e-08
1.95307e-07
3.0672e-09
0.000250126
-0.000250277
-0.00116169
-1.96044e-08
3.2441e-07
-1.00598e-06
7.52001e-07
-8.29149e-07
9.34642e-07
2.57145e-08
-9.14597e-08
-0.000244377
-4.99034e-09
-2.64342e-08
3.31674e-07
9.35162e-07
-8.28873e-07
-1.00619e-06
7.53118e-07
-0.00116179
-6.70445e-08
-1.32794e-09
4.06807e-08
-0.000250099
-1.62506e-07
3.3479e-10
-4.62772e-08
1.94897e-07
-2.06636e-09
0.000250159
-0.000250306
8.9213e-08
-1.24719e-06
2.36553e-07
8.52634e-07
-2.5024e-07
-9.03674e-07
1.96875e-07
1.21271e-06
-2.5468e-07
2.24444e-07
-0.00114096
-0.00116186
3.26366e-07
-1.00376e-06
7.51805e-07
-8.26588e-07
9.33865e-07
2.26169e-08
1.18283e-08
-8.6585e-08
-0.000244378
-7.73768e-09
3.33617e-07
9.32876e-07
-8.28645e-07
-1.00564e-06
7.50617e-07
-0.00116198
-3.09135e-08
-1.20312e-08
3.64986e-09
1.10958e-07
0.00024439
-0.000244461
4.03801e-08
-0.00025013
-1.62278e-07
1.66952e-09
-3.36847e-10
1.8007e-09
-1.26485e-08
0.00022831
-0.000228345
-0.000192028
6.70716e-10
1.19332e-09
-0.000228298
4.13346e-11
1.54838e-08
1.52562e-09
-1.26515e-08
0.000228346
-0.000228382
1.93451e-09
-0.000192062
-6.00541e-10
-4.22569e-09
-6.31333e-09
0.000192061
-0.000192081
-0.000228334
2.99704e-09
1.52659e-08
0.000269545
-2.38571e-07
-2.43453e-07
-0.000271591
1.33112e-08
-2.8511e-08
-0.00027641
1.52467e-09
1.30995e-08
-2.62697e-08
-0.000276357
2.16224e-09
-7.50427e-09
-7.89221e-09
3.07505e-08
0.000276411
-0.000276438
-7.37536e-09
-8.6321e-09
2.8274e-08
0.000276358
-0.000276382
-9.7087e-05
9.70837e-05
-9.70953e-05
-9.70911e-05
9.70877e-05
-9.70993e-05
1.07862e-08
2.4814e-09
-9.71036e-05
8.44437e-09
2.24262e-09
-9.71024e-05
-2.0506e-08
3.49706e-08
0.000220913
-1.88178e-08
4.42701e-08
-0.000220953
-0.000250135
-2.465e-08
6.86501e-08
-1.3339e-08
-1.30399e-08
3.76654e-08
1.2443e-08
-0.000276418
-0.000181688
2.56543e-09
-2.2025e-09
-8.77613e-09
-0.000181713
9.89231e-08
4.35194e-08
-0.000250205
-4.609e-08
8.36664e-09
-1.10983e-08
8.42534e-09
0.000220879
-1.47429e-09
2.06432e-08
-0.000220896
-0.000250082
6.42209e-08
-1.96776e-07
-3.5277e-08
-6.77145e-09
2.09259e-08
8.17528e-09
-0.000276385
-0.000181658
-3.49819e-08
6.18807e-09
-6.79223e-09
-0.000181669
4.02185e-08
3.12534e-08
-0.000250124
7.18606e-08
-8.79277e-08
-4.51006e-09
-4.58567e-09
0.000212366
-0.000212378
-7.99066e-05
-8.6844e-09
-7.9897e-05
-4.95079e-09
-7.99199e-05
-7.99083e-05
-0.00014209
-2.89975e-09
-1.55851e-08
0.000142105
3.12088e-09
4.27058e-09
0.000169657
-2.02736e-09
-0.000169674
-1.61195e-08
0.000222119
4.37569e-08
-0.000222148
3.97733e-09
1.73428e-08
4.19342e-09
0.000228342
-1.8504e-09
-3.77683e-08
-0.000142105
3.20749e-09
0.000169673
-1.91577e-09
0.000222138
-3.73203e-08
6.66398e-09
1.71328e-08
7.84858e-05
-2.90918e-09
-7.85001e-05
-8.99866e-09
3.44504e-08
-0.000192057
-0.000261283
1.49058e-08
-6.9968e-09
-3.73176e-08
-5.12879e-09
4.08397e-08
-0.000261311
-2.04088e-09
-3.91412e-09
1.61329e-08
0.00014209
-1.42404e-08
4.14442e-09
-2.5507e-09
4.2892e-08
-0.000169657
1.69808e-09
-5.70041e-10
-0.000222107
1.56332e-08
-3.9437e-08
-1.42078e-09
4.63576e-08
-0.00014216
1.15183e-09
-1.47591e-08
-7.00179e-10
0.000142174
-5.2871e-11
0.000169691
-0.000169707
-1.3362e-08
0.000222204
-1.97607e-10
4.60061e-08
-0.000222236
1.75739e-08
-1.58507e-10
0.000228379
-3.79872e-08
-9.08138e-10
-0.000142172
0.000169708
1.20647e-09
0.000222229
-4.12034e-08
1.29541e-08
7.85297e-05
-7.8542e-05
-5.89143e-10
-4.49083e-09
-0.0001921
-3.71535e-09
2.79088e-08
-0.000261402
1.30744e-08
-2.14464e-09
-3.97634e-08
-0.000261432
4.63659e-10
3.82513e-08
-1.25322e-09
-7.85278e-05
-1.4956e-08
-1.158e-08
0.000261405
3.89889e-08
-0.000261433
1.5125e-09
1.88739e-09
-2.55096e-08
-7.85403e-05
-3.98784e-08
-9.85903e-10
1.28523e-08
0.000142161
-1.39868e-08
-1.17361e-09
4.25266e-08
-0.000169691
5.4844e-10
-0.000222197
1.49045e-08
-4.20302e-08
4.44194e-08
-9.71048e-05
9.02685e-09
-1.22069e-08
-0.000212352
5.09148e-09
4.79716e-09
-9.98968e-09
-8.41893e-09
0.00021236
4.10917e-09
7.98858e-05
4.84058e-09
-7.98947e-05
4.51302e-09
7.98994e-05
4.43184e-09
-7.99083e-05
1.3492e-08
1.07984e-08
-0.000212367
-8.61138e-09
7.98995e-05
-8.88366e-09
7.9913e-05
3.11468e-08
-1.4384e-08
0.000220854
-0.000220892
-1.40621e-08
3.56385e-08
-0.000250053
1.37297e-08
-6.47902e-08
-1.53962e-08
2.48332e-08
-4.64568e-09
-0.000276378
1.444e-08
-0.000181648
-1.51505e-08
1.18895e-08
-0.000250115
7.02028e-08
4.77466e-08
-0.000181668
1.08649e-09
1.05526e-08
-3.556e-08
-1.46768e-08
3.04988e-08
0.000220925
-0.000220968
-1.15246e-08
3.8329e-08
-0.000250207
1.42583e-08
-6.41364e-08
-1.08821e-08
-4.20473e-09
2.51354e-08
-0.00027648
-1.14409e-08
1.16734e-08
-0.0001817
-1.49053e-08
1.19189e-08
-0.00018172
1.25349e-09
-0.000250264
7.07584e-08
4.20079e-08
8.79628e-09
-3.72607e-08
-1.22271e-08
-0.000220869
1.88837e-08
-3.9584e-08
1.11117e-08
0.000181648
-0.000181668
0.000250072
-2.99771e-08
4.36734e-08
6.88885e-08
-0.000250131
-2.94507e-08
9.53963e-09
-9.02925e-09
-1.72473e-08
-6.76098e-08
3.14708e-08
-0.000220906
-0.000220941
1.85296e-08
-1.29314e-08
-4.11899e-08
1.15093e-08
0.0001817
-0.000181721
-2.9163e-08
0.000250226
6.93238e-08
3.75099e-08
-0.00025028
1.00554e-08
-2.9057e-08
1.41255e-08
-6.97262e-09
3.42573e-08
-0.000220982
-6.70333e-08
-1.31413e-08
-7.26457e-09
-7.44067e-09
0.000212349
-7.98933e-05
-2.99552e-09
-7.99069e-05
-2.94126e-09
-9.71097e-05
3.17402e-09
-2.25667e-09
1.52307e-08
7.85309e-05
-3.27899e-09
-7.85428e-05
-8.94692e-09
3.21099e-08
-0.000192081
-0.000261399
1.24226e-08
-6.76714e-09
-3.47778e-08
-4.67807e-09
3.85671e-08
-0.000261427
-2.30934e-09
1.4207e-08
-4.24651e-09
0.000142158
-0.000142171
3.65946e-09
-1.23854e-08
-1.87162e-09
4.3215e-08
-0.000228371
-0.000222194
1.36459e-08
-3.72447e-08
-0.000169688
2.38312e-09
-1.59316e-09
4.39726e-08
-0.000222224
-2.07304e-09
-0.000169702
1.34183e-08
7.84833e-05
1.09208e-09
-7.84978e-05
-8.80532e-10
-8.03778e-09
2.94363e-08
-0.000192031
-0.000261284
1.7029e-08
-7.652e-10
-3.79675e-08
9.77811e-10
3.59332e-08
-0.000261308
3.36287e-10
1.4644e-10
1.49114e-08
0.000142086
-0.0001421
-1.2133e-08
-7.11668e-10
4.3066e-08
-0.000228332
-0.000169653
-9.89077e-10
-0.000222101
1.7032e-08
-3.92702e-08
-0.000169667
4.28615e-08
-0.000222128
-0.000142161
-1.46101e-08
5.19033e-10
-3.46869e-10
0.000142176
-1.34272e-08
0.000222209
2.69135e-10
4.61787e-08
-0.000222241
5.89482e-10
0.000169688
1.0792e-09
-0.000169704
3.72197e-10
1.74283e-08
0.000228376
1.23738e-09
-3.77801e-08
-5.56759e-10
-0.000142174
1.61684e-09
0.000222234
-4.10385e-08
0.000169706
7.54906e-10
1.34212e-08
7.85334e-05
-7.85459e-05
-9.15012e-10
-5.10671e-09
-0.0001921
3.01004e-08
-0.00026142
1.25887e-08
-2.75358e-09
-3.98361e-08
-0.00026145
-7.14494e-11
3.82245e-08
-1.55758e-09
-7.85317e-05
-1.45448e-08
-1.1853e-08
0.000261422
3.92375e-08
-0.00026145
1.13593e-09
-2.76288e-08
-7.85442e-05
-3.97456e-08
1.31582e-08
-1.6778e-09
0.000142163
-5.28411e-10
-1.41624e-08
1.6387e-09
4.27115e-08
-0.000222202
1.45612e-08
-4.19468e-08
-0.00016969
1.20799e-09
-5.43039e-10
4.4571e-08
1.79287e-10
-0.00014209
-1.17594e-09
-1.38263e-08
1.03535e-09
0.000142104
2.94327e-09
0.000169654
-0.00016967
-1.4013e-08
0.000222115
3.0767e-09
4.65628e-08
-0.000222149
1.72398e-08
3.65476e-09
0.00022834
-3.7594e-08
1.89485e-09
-0.000142103
0.000169671
5.06606e-09
0.00022214
-3.97898e-08
1.32379e-08
7.84903e-05
-7.85026e-05
-8.90105e-10
-4.98387e-09
-0.000192041
-5.92086e-09
3.07331e-08
-0.000261293
1.43051e-08
-4.15476e-09
-3.86194e-08
-0.000261321
-2.74684e-09
3.98671e-08
6.32956e-11
-7.84882e-05
-1.33326e-08
-1.40934e-08
0.000261294
4.02707e-08
-0.000261324
-2.3018e-09
3.41702e-09
-2.19411e-08
-7.85004e-05
-3.81387e-08
-1.99191e-09
1.38454e-08
0.000142091
-1.43806e-08
2.72927e-09
4.30678e-08
-0.000169655
-8.3519e-11
-0.000222107
1.4094e-08
-4.01045e-08
4.63735e-08
6.86673e-09
-9.70881e-05
2.7583e-08
-1.26608e-08
0.000220846
-1.1132e-08
3.41531e-08
-0.000220883
-0.000250025
1.03926e-08
-6.80496e-08
-1.68508e-08
2.23239e-08
-8.49964e-09
1.65929e-08
-0.000276348
-0.000181637
-2.09518e-08
9.82943e-09
6.78148e-08
4.45201e-08
-0.000250088
-3.04297e-09
-0.000181655
8.31061e-09
-4.12366e-08
-1.3094e-08
2.95219e-08
0.000220922
-1.29032e-08
3.00674e-08
-0.000220956
-0.000250176
1.30731e-08
-6.52019e-08
-1.49633e-08
-1.08255e-08
2.49713e-08
-5.03839e-09
1.62872e-08
-0.000276446
-0.000181696
-2.09949e-08
9.8627e-09
-2.93573e-09
-0.000181717
6.59249e-08
4.12842e-08
-0.000250229
1.04656e-08
-3.62951e-08
-4.47353e-09
-4.58166e-09
0.000212337
-0.000212352
-7.98824e-05
-4.80085e-09
-7.99004e-05
-4.74161e-09
-7.98899e-05
-7.99079e-05
7.7641e-09
-9.70967e-05
-0.000142089
-1.4313e-08
9.6646e-10
-1.18044e-09
0.000142104
-1.37806e-08
0.000222109
4.72979e-08
-0.000222142
1.08748e-09
6.73556e-10
0.000169653
8.86389e-10
-0.000169668
1.60697e-09
1.51915e-08
0.000228332
3.03483e-10
-3.97303e-08
-0.000142101
-6.44232e-10
1.92303e-09
0.000222137
-4.23814e-08
0.000169669
9.77975e-10
1.18623e-08
7.84898e-05
-7.85022e-05
5.40821e-10
-1.38967e-09
2.75134e-08
-0.000192046
-0.000261294
1.44294e-08
-1.37839e-09
-3.79417e-08
-0.000261322
4.16384e-10
3.856e-08
1.78389e-10
-1.54375e-08
-7.84879e-05
-3.89642e-08
-0.000261294
-3.00249e-09
1.32387e-08
-5.82787e-10
0.000142091
-3.21535e-10
-1.23267e-08
9.39284e-10
4.57331e-08
-0.000222103
1.47288e-08
-4.16331e-08
-0.000169655
-3.74695e-10
4.70272e-10
4.78913e-08
8.41901e-10
-0.000142158
-1.58271e-08
-1.22205e-09
1.18518e-09
0.000142174
-1.59659e-08
0.0002222
2.38016e-09
4.63933e-08
-0.000222231
2.65652e-09
0.000169687
-0.000169702
2.54765e-09
1.50903e-08
0.000228369
-3.98669e-08
1.47793e-09
-0.000142173
4.39839e-09
0.000222222
-3.98741e-08
0.000169702
1.56113e-08
7.85303e-05
-7.8545e-05
-9.34177e-10
-5.04934e-09
-0.000192081
-5.78187e-09
3.0669e-08
-0.000261401
1.5976e-08
-4.02311e-09
-3.61047e-08
-0.000261425
-2.38489e-09
3.74428e-08
-5.35104e-10
-7.85284e-05
-1.53823e-08
-1.60999e-08
0.000261402
3.76916e-08
-0.000261428
-2.09506e-09
3.42208e-09
-2.21118e-08
-7.8543e-05
-3.57881e-08
1.59102e-08
-2.36823e-09
0.000142159
2.33513e-09
-1.25094e-08
4.58111e-08
-0.000222192
1.59662e-08
-4.0136e-08
-0.000169688
6.18879e-10
4.62397e-08
-0.000212357
6.19868e-09
6.21613e-09
-1.07047e-08
-1.26512e-08
0.000212368
5.04117e-09
7.99031e-05
5.95617e-09
-7.99141e-05
4.97132e-09
7.9892e-05
6.04423e-09
-7.9903e-05
9.39184e-09
1.17172e-08
-0.000212368
-3.26686e-09
7.99126e-05
-3.27799e-09
7.99014e-05
2.24755e-08
-1.58881e-08
0.000220921
-0.000220952
-9.07811e-09
3.32645e-08
-0.000250155
1.57495e-08
-6.09438e-08
-2.08833e-08
2.96381e-08
-1.04068e-08
-0.000276436
-6.06673e-09
1.26585e-08
-0.000181695
-1.96528e-08
2.52561e-09
-0.000250209
6.89372e-08
3.73027e-08
-0.000181714
-7.36139e-09
1.05929e-08
-3.98373e-08
2.27571e-08
-1.38088e-08
0.00022086
-0.000220891
-1.13239e-08
3.3184e-08
-0.000250059
1.55795e-08
-6.6079e-08
-2.04399e-08
2.72694e-08
-1.09368e-08
-0.00027638
-6.14141e-09
1.29755e-08
-0.000181651
-1.78533e-08
2.68872e-09
-0.000250118
7.11041e-08
3.78519e-08
-0.000181668
-7.33379e-09
1.26453e-08
-4.03289e-08
-0.000220926
-1.61137e-08
1.83353e-08
-3.84356e-08
1.6778e-08
0.000181696
-0.000181714
-2.28916e-08
0.00025017
3.88679e-08
7.04626e-08
-0.000250226
-2.70401e-08
3.62917e-09
1.19001e-08
-1.35043e-08
3.46824e-08
-0.000220958
-2.00877e-08
-6.18116e-08
-0.000220865
-1.58487e-08
1.65925e-08
-3.89703e-08
1.46479e-08
0.000181651
-0.000181668
-2.32367e-08
0.000250074
3.94122e-08
7.25719e-08
-0.000250135
-2.4902e-08
4.00638e-09
1.19253e-08
-1.30865e-08
3.45733e-08
-0.000220896
-1.96028e-08
-6.4518e-08
-4.05438e-09
-4.09874e-09
0.000212356
-7.99012e-05
-7.10271e-09
-7.989e-05
-6.97121e-09
-9.7099e-05
-9.7103e-05
1.16771e-07
8.93679e-08
0.000242545
-0.000242686
-2.31948e-07
-2.41842e-07
-0.000271564
-0.000261297
2.86304e-08
-0.000261636
1.81035e-07
-0.000261578
-0.000261994
1.1324e-07
1.0992e-07
0.000242554
-0.000242703
-2.37377e-07
-2.42959e-07
-0.00027159
-0.000261666
9.83516e-08
-0.000261312
9.64831e-08
-0.000261986
-0.000261631
1.05931e-07
1.04958e-07
0.00024254
-0.000242686
-2.33602e-07
-2.39353e-07
-0.000271541
-0.000261639
9.98572e-08
-0.000261282
1.00217e-07
-0.000261958
-0.000261601
1.04455e-07
1.0508e-07
0.000242537
-0.00024268
-2.3607e-07
-2.40909e-07
-0.00027155
-0.00026125
1.04367e-07
-0.000261673
1.04113e-07
-0.000261566
-0.000261992
-0.00121499
2.53824e-07
-4.84192e-09
2.55607e-07
9.55003e-09
-0.00121546
2.6247e-07
-1.01672e-09
-0.00121472
-2.06699e-07
0.00123717
-2.0384e-08
1.66728e-10
-0.00123661
-2.71998e-07
-1.13834e-08
2.63748e-09
1.97404e-07
1.94861e-07
-0.00119091
-0.00121504
2.53347e-07
-0.00121555
2.62309e-07
-1.36504e-09
2.54503e-07
-0.00121476
2.6273e-07
-3.39404e-09
-0.00121528
0.00123722
-4.43617e-10
-0.00123672
5.23953e-10
2.71142e-07
-0.00121462
-0.00121504
2.50447e-07
-3.36723e-08
2.53308e-07
-1.3084e-07
-0.00121453
-3.00165e-07
0.00123649
-1.31884e-07
-0.00123574
-3.64277e-07
-3.07525e-08
2.0467e-07
2.25854e-07
-0.00119074
-0.0012147
2.68701e-07
-0.00121516
2.52616e-07
2.82674e-07
-0.00121444
2.56367e-07
-0.00121499
0.0012366
-0.0012362
-0.000266518
1.7655e-07
3.05899e-09
0.000267282
-5.0379e-09
2.0636e-07
0.000249267
-0.000249429
-1.34237e-09
-3.33218e-09
0.000266963
5.4141e-09
-0.000267607
1.43464e-09
-1.59294e-07
0.000250259
4.22422e-11
-0.000267317
-1.1985e-08
0.000249405
3.52001e-09
0.000267567
-1.60652e-09
-1.65796e-08
-1.89563e-07
0.000264488
1.30575e-08
-0.000265206
-0.00026034
8.48321e-11
1.17637e-07
3.92292e-09
-0.00024444
-0.000250052
-1.61349e-07
-5.16787e-09
-0.000260457
-1.88838e-10
-0.000250197
2.79135e-09
-2.08534e-07
5.70483e-09
0.000266483
-2.40442e-10
1.90775e-07
-6.52171e-10
-0.000249242
-1.73647e-07
-0.000266925
-4.04643e-09
-5.89273e-09
1.87734e-09
-0.000266566
1.77705e-07
3.30726e-09
-5.18779e-09
0.000267332
2.06312e-07
0.000249331
-1.70591e-09
-0.000249489
-2.91639e-09
0.000266989
-0.000267623
9.73362e-10
-1.59524e-07
0.00025029
-1.06031e-08
-0.000267365
1.49893e-09
0.000249467
0.000267591
-1.81212e-07
-1.935e-08
0.000264534
-0.000265253
1.29837e-08
-0.000260358
5.01864e-09
6.76057e-09
1.05384e-07
-0.000244461
-0.000250117
-1.67905e-07
-2.46223e-10
-0.000250257
3.53499e-09
-0.00026047
7.70537e-09
-0.000264563
1.67109e-07
-2.09862e-09
1.8328e-07
0.000250133
-0.000250273
1.54727e-08
0.00026038
-0.000260492
-4.63527e-09
-9.05964e-08
-0.000265283
-2.04027e-07
4.91034e-09
0.000266533
-1.65394e-09
1.90353e-07
-0.000249309
-1.78934e-07
-0.000266954
-5.54293e-09
-1.03477e-07
-0.000242579
-1.01683e-07
2.27479e-07
2.31619e-07
0.000261696
-1.07353e-07
-0.000262014
-1.03998e-07
0.000261342
-0.000261659
-0.000242725
-1.52981e-08
-1.82018e-07
0.000264557
2.19367e-08
-0.00026528
-0.000260384
-7.15645e-09
1.05053e-07
2.21628e-09
-0.000244458
-0.000250121
-1.68872e-07
-4.46911e-09
-0.000260497
6.24534e-10
-0.000250262
-3.79924e-09
-2.05801e-07
8.40882e-09
0.000266529
-0.000267316
-9.71436e-10
1.93522e-07
7.37143e-10
-0.000250275
-0.000249301
-1.79075e-07
-0.000266937
-3.25529e-09
-6.43713e-09
-0.000249463
5.60678e-09
-0.00026757
-1.81867e-07
-1.82855e-08
0.000264467
7.39179e-09
-0.000265178
-0.000260297
1.90405e-10
8.86639e-09
1.01003e-07
-0.000244391
-0.00025003
-1.67925e-07
-9.57684e-10
2.1292e-09
-0.000250169
-0.000260415
7.87192e-09
2.26295e-09
-2.05016e-07
0.000266463
-0.000267262
1.90848e-07
-1.99032e-11
-0.000250247
-0.000266921
-4.04636e-09
-0.000249219
-1.7841e-07
-0.000267551
-0.000249379
-0.00026657
1.79817e-07
-8.0052e-10
6.32659e-09
0.000267324
2.09233e-07
0.00024934
-3.11273e-09
-0.000249497
-2.05913e-09
0.000266977
4.75676e-09
-0.000267621
2.18804e-09
-1.5929e-07
0.000250286
-7.13626e-10
-1.96113e-08
-0.000267354
4.59766e-09
0.000249476
0.000267578
-4.93119e-09
-2.11069e-08
-1.83672e-07
0.00026457
-0.000265289
2.23833e-08
-0.000260421
2.04299e-09
1.05555e-07
6.4083e-09
-0.000244505
-0.000250147
-1.70397e-07
-3.06819e-09
-0.000260538
-0.000250291
5.34489e-09
-3.49016e-09
-0.000264599
1.43449e-09
1.69222e-07
1.86151e-07
0.000250162
-0.000250307
1.67551e-08
0.000260443
-0.00026056
-9.03383e-08
-5.1556e-09
-0.000265319
-2.06698e-07
6.92024e-09
0.000266537
-1.51565e-09
1.9046e-07
7.20714e-10
-0.000249318
-1.81344e-07
-0.000266941
-4.46323e-09
-6.11004e-09
3.18949e-09
-0.00026651
4.98554e-09
1.76502e-07
-7.95807e-09
0.000267275
-4.8102e-09
0.000266962
-0.000267597
2.06622e-07
0.000249261
-1.11486e-09
-0.000249421
-1.56606e-07
1.42988e-09
0.000250259
-9.85755e-09
-0.000267309
0.000267562
3.58757e-09
0.000249396
-1.83427e-07
-1.46316e-08
0.000264481
-0.000265196
8.10852e-09
-0.000260334
-1.3867e-09
2.97158e-09
1.08116e-07
-0.000244432
-0.00025005
-1.65616e-07
-4.0974e-09
-0.000250191
1.68229e-10
-0.000260452
6.22557e-09
-0.000264514
1.65173e-07
-2.7937e-10
1.84267e-07
0.000250069
-0.000250211
1.6478e-08
0.00026036
-0.000260479
-8.69953e-09
-8.32076e-08
-0.00026523
3.94739e-09
-2.05709e-07
0.000266475
1.88215e-07
3.42072e-10
-0.000266926
-3.87055e-09
-0.000249237
-1.76943e-07
-0.000266506
-2.2216e-09
1.78528e-07
1.13293e-08
0.000267253
-4.73241e-10
0.000266946
-7.81268e-11
-0.000267579
2.10405e-07
0.000249256
-0.000249414
-1.64837e-09
-1.58622e-07
3.63289e-09
0.000250243
-1.5521e-09
-0.000267282
-2.02252e-08
0.000267542
-3.76774e-09
6.17793e-09
0.000249389
-1.75054e-08
-1.84657e-07
0.000264497
-0.000265217
2.21164e-08
-0.000260361
-5.39826e-10
1.06092e-07
6.04769e-09
-0.000244445
-0.000250056
-1.70397e-07
-1.59534e-09
-0.000260477
-0.0002502
3.91244e-09
-3.48267e-09
1.6762e-07
-8.52536e-07
-0.000264526
5.07128e-09
-0.000250071
6.32399e-09
4.58305e-09
-2.07667e-07
0.000266472
1.91001e-07
-3.46995e-10
-8.95328e-10
-0.00026691
-2.44615e-09
-5.18921e-09
-0.000249233
-1.80866e-07
-1.33921e-09
-0.000266555
3.5366e-09
1.79072e-07
6.67723e-09
0.000267299
-8.70477e-09
0.000266977
-0.000267602
2.09033e-07
0.000249321
-4.34476e-09
-0.000249481
-1.5889e-07
6.83576e-10
0.000250275
-2.63402e-08
-0.000267334
0.000267568
5.09573e-09
0.000249456
-1.85736e-07
-1.53515e-08
0.000264541
-0.000265267
2.4808e-08
-0.000260371
-5.48666e-10
3.54725e-09
1.10287e-07
-0.000244448
-0.000250108
-1.68186e-07
-5.73297e-09
-0.000250257
3.44973e-09
-0.000260486
-8.2691e-09
-0.000264575
1.67791e-07
-9.39298e-10
1.86509e-07
0.000250127
-0.000250277
1.71211e-08
0.000260396
-0.000260513
-7.98352e-09
-8.58967e-08
-0.000265301
7.89167e-09
-2.0807e-07
0.00026652
1.91012e-07
-9.19113e-10
-0.000266939
-2.81374e-09
-0.000249297
-1.79572e-07
-0.000242552
-1.02665e-07
-1.02401e-07
2.2493e-07
2.3071e-07
-1.06885e-07
0.000261277
-0.000261595
-1.07465e-07
0.000261704
-0.000262022
-0.000242698
-7.50257e-07
-7.63989e-07
-0.00114642
3.79724e-07
3.99384e-07
0.00114716
-0.0011368
-1.46023e-06
8.24615e-07
2.87097e-07
0.00113728
-3.96911e-07
1.198e-06
2.62041e-07
6.74554e-07
-5.80263e-07
-1.28116e-06
-6.60497e-09
-0.00113653
-1.42576e-06
7.64164e-07
2.18414e-07
0.00113699
-3.72675e-07
1.20617e-06
2.55869e-07
7.00303e-07
-5.65901e-07
-1.25962e-06
2.35095e-08
-0.00027638
1.46958e-06
1.44229e-06
-4.49214e-07
-4.49578e-07
0.000274367
-1.20983e-06
-1.17598e-06
0.000276332
-0.000274207
1.30308e-07
1.30352e-07
0.00113628
7.55547e-07
-0.00113574
2.59125e-07
-1.50306e-06
1.98153e-07
-4.40635e-07
-1.23592e-06
3.69823e-08
-5.47211e-07
7.33298e-07
1.12876e-06
0.00113642
8.9815e-07
-0.00113596
5.73418e-07
-1.60477e-06
1.31145e-07
-5.39601e-07
-1.24501e-06
2.25364e-08
-5.53994e-07
7.26447e-07
-1.09987e-06
0.000275961
-0.000273892
8.42614e-08
7.50571e-08
0.0011374
7.74211e-07
-0.00113688
2.96581e-07
-1.45782e-06
1.99106e-07
-4.29852e-07
-1.26585e-06
3.38988e-08
-5.62344e-07
7.07712e-07
1.19251e-06
0.00113619
7.86493e-07
-0.00113571
3.43504e-07
-1.52252e-06
2.02462e-07
-4.5915e-07
-1.23762e-06
3.53003e-08
-5.52997e-07
7.32432e-07
9.5542e-07
-0.00113632
5.59811e-07
-1.55312e-06
1.38157e-07
-5.21479e-07
-1.27254e-06
1.97335e-10
6.8117e-07
-5.66271e-07
1.27099e-06
0.00113612
7.22924e-07
-0.0011356
8.09025e-08
-1.41041e-06
2.55598e-07
-3.37973e-07
-1.27028e-06
3.52227e-08
-5.67649e-07
6.98236e-07
-1.15809e-06
0.000276056
-0.000273956
1.25915e-07
1.2423e-07
8.12804e-07
-0.00113605
3.67649e-07
-1.48007e-06
2.00912e-07
-4.4799e-07
-1.25764e-06
2.33505e-08
7.01735e-07
-5.62202e-07
1.2253e-06
0.00113724
6.96736e-07
-0.00113672
1.45499e-07
-1.3857e-06
2.44659e-07
-3.45451e-07
-1.26856e-06
3.79636e-08
-5.62892e-07
6.91476e-07
-0.000274231
1.67834e-07
1.78806e-07
1.49677e-06
1.45106e-06
-4.46569e-07
-4.61835e-07
0.000274293
-1.13461e-06
-1.11506e-06
-0.000274496
1.0432e-07
4.58149e-08
0.000276595
2.76161e-07
0.00113679
-4.37675e-07
1.21612e-06
1.96789e-07
7.24729e-07
-5.43804e-07
-1.23872e-06
4.12777e-08
-1.52332e-06
7.55502e-07
3.48385e-07
0.0011369
-4.24795e-07
1.22044e-06
2.50436e-07
7.08755e-07
-5.67065e-07
-1.25478e-06
9.45413e-09
8.16858e-07
-0.00113775
5.02282e-07
-1.55729e-06
7.73012e-08
-5.3645e-07
-1.24086e-06
3.27808e-08
-5.3721e-07
7.22655e-07
0.00113834
1.30189e-06
6.27121e-07
-0.00113791
5.33148e-08
-1.40742e-06
2.69233e-07
-3.3789e-07
-1.2594e-06
5.44233e-08
-5.4665e-07
7.16376e-07
0.00113844
-4.51931e-07
-4.74784e-07
0.000273904
-1.26176e-06
-0.000274332
1.8516e-07
1.88526e-07
0.000276522
3.06863e-07
0.00113789
-4.27218e-07
1.17937e-06
1.93945e-07
7.18254e-07
-5.54311e-07
-1.25624e-06
4.49761e-08
-1.47915e-06
7.16085e-07
2.61565e-07
0.00113663
-3.93921e-07
1.2316e-06
2.49113e-07
7.2537e-07
-5.54934e-07
-1.23513e-06
3.33414e-08
8.43395e-07
-0.00113881
5.11139e-07
-1.50728e-06
9.72745e-08
-5.15358e-07
-1.21418e-06
1.01653e-07
-5.01277e-07
7.48268e-07
0.00113913
1.2258e-06
6.93576e-07
-0.00113767
2.15125e-07
-1.47669e-06
1.87414e-07
-4.40988e-07
-1.24566e-06
6.02228e-08
-5.33394e-07
7.24633e-07
0.00113826
8.21068e-07
2.9704e-07
0.00113667
-4.47259e-07
1.19434e-06
1.20145e-07
7.01115e-07
-5.49087e-07
5.62071e-08
-1.27403e-06
6.40431e-07
-0.00113829
2.73793e-09
-1.35961e-06
2.63762e-07
-3.25902e-07
-1.2447e-06
5.15031e-08
-5.4344e-07
7.18374e-07
0.00113882
1.07166e-06
9.57172e-07
-0.0011377
7.02671e-07
-1.64003e-06
6.43515e-08
-5.91909e-07
-1.21061e-06
5.00411e-08
-5.18687e-07
7.40771e-07
0.00113807
-4.29057e-07
-4.44806e-07
0.000274025
-1.1893e-06
-0.000274346
1.34095e-07
1.38681e-07
0.000276488
7.98365e-07
3.43507e-07
0.00113778
-4.52228e-07
1.1522e-06
1.10067e-07
6.99329e-07
-5.45474e-07
6.11611e-08
-1.26794e-06
7.15614e-07
-0.00113801
1.72556e-07
-1.43102e-06
1.83255e-07
-4.27768e-07
-1.23218e-06
5.71403e-08
-5.33565e-07
7.2662e-07
0.00113859
1.03292e-06
9.37258e-07
-0.00113882
6.85987e-07
-1.60969e-06
5.96065e-08
-5.92376e-07
-1.18861e-06
5.64153e-08
-5.10208e-07
7.54374e-07
0.00113919
-0.000274446
3.99721e-08
4.99541e-08
0.000276461
-0.00114566
3.70718e-07
3.97967e-07
0.00114644
-0.00114564
5.38153e-07
5.21177e-07
0.001146
-0.00114527
4.28273e-07
4.44791e-07
0.00114614
-0.00114539
3.03756e-07
3.66624e-07
2.54833e-08
1.09918e-07
0.00023578
-0.000235869
-2.14217e-08
-2.54125e-08
-0.000196867
-1.92436e-08
1.28466e-07
-4.00614e-09
0.000196762
-0.000236263
1.53841e-08
2.15698e-07
0.000236116
-6.73925e-08
-1.69728e-08
-2.33821e-08
2.3375e-08
0.000196599
3.04226e-08
-0.000196629
-9.89049e-05
-3.27312e-08
7.84508e-08
9.88592e-05
2.68961e-08
-2.46549e-08
9.881e-05
-9.88123e-05
1.02089e-07
4.58353e-09
0.000235815
-0.000235881
-1.23174e-08
-2.80399e-08
-0.000196913
-2.76885e-08
1.14206e-07
1.25779e-08
0.000196814
-0.000236224
2.19719e-07
4.16592e-09
0.000236086
-1.31708e-08
-7.28144e-08
-2.00328e-08
2.83423e-08
0.000196647
2.62468e-08
-0.000196681
4.46418e-07
3.93909e-07
0.00114718
3.93663e-07
3.52983e-07
0.00114673
4.00928e-07
4.32549e-07
0.00114692
-0.00114865
4.65862e-07
4.93506e-07
0.00114935
-0.00114861
2.88038e-07
2.48832e-07
0.00114934
-0.00114826
3.45154e-07
3.09384e-07
0.00114901
-0.00114854
5.67581e-07
5.66523e-07
0.0011493
-1.06905e-07
-3.52697e-08
0.000259979
-0.000259886
1.86363e-08
3.08432e-08
-0.000252847
-2.75254e-08
-1.51001e-07
4.01683e-07
2.05179e-08
0.000252603
0.00113923
-0.00113859
3.19772e-08
9.20884e-07
7.47132e-07
-1.2161e-06
-1.39336e-06
5.59601e-07
4.81818e-08
1.27169e-06
0.00113777
7.05018e-07
-1.27617e-06
3.17155e-09
-5.7716e-07
6.8379e-07