/*--------------------------------*- C++ -*----------------------------------*\
| =========                 |                                                 |
| \\      /  F ield         | OpenFOAM: The Open Source CFD Toolbox           |
|  \\    /   O peration     | Version:  v1906                                 |
|   \\  /    A nd           | Web:      www.OpenFOAM.com                      |
|    \\/     M anipulation  |                                                 |
\*---------------------------------------------------------------------------*/
FoamFile
{
    version     2.0;
    format      ascii;
    class       surfaceScalarField;
    location    "500";
    object      phi;
}
// * * * * * * * * * * * * * * * * * * * * * * * * * * * * * * * * * * * * * //

dimensions      [0 3 -1 0 0 0 0];
oriented        oriented;


internalField   nonuniform List<scalar> 
123680
(
-2.03267e-07
-2.0522e-07
-0.00119122
1.87547e-07
1.86363e-07
0.00119126
-0.00113988
-1.23624e-06
1.84132e-07
4.34896e-08
0.00113975
-2.40115e-07
1.22673e-06
2.32147e-07
8.56648e-07
-2.37987e-07
-8.94794e-07
2.01219e-07
-0.00113952
-1.22903e-06
1.83962e-07
3.44923e-08
0.00113938
-2.36159e-07
1.22476e-06
2.38184e-07
8.55647e-07
-2.42559e-07
-8.95439e-07
2.02435e-07
-0.000271357
1.2742e-06
1.23919e-06
-2.33358e-07
-2.39205e-07
0.000269316
-1.69436e-07
-1.71249e-07
-0.00119131
1.68017e-07
1.63477e-07
0.00119132
-0.00113936
-1.23945e-06
1.68492e-07
6.06636e-08
0.00113922
-2.43536e-07
1.22153e-06
2.29881e-07
8.60067e-07
-2.33294e-07
-8.87169e-07
2.02487e-07
-0.00113897
-1.24331e-06
1.83772e-07
9.08087e-08
0.00113883
-2.55629e-07
1.20643e-06
2.19437e-07
8.5948e-07
-2.35907e-07
-8.86409e-07
2.0313e-07
-0.000271235
1.2619e-06
1.22694e-06
-2.23794e-07
-2.29183e-07
0.000269199
-1.42432e-07
-1.37927e-07
-0.00119135
1.36769e-07
1.44137e-07
0.00119134
-0.0011388
-1.23412e-06
1.52494e-07
5.08033e-08
0.00113866
-2.41567e-07
1.22161e-06
2.28227e-07
8.63033e-07
-2.26861e-07
-8.8131e-07
2.06517e-07
-0.00113842
-1.21719e-06
1.33426e-07
1.50265e-08
0.00113829
-2.2957e-07
1.2257e-06
2.35929e-07
8.6218e-07
-2.29142e-07
-8.8323e-07
2.11845e-07
-0.000271109
1.26164e-06
1.22869e-06
-2.24333e-07
-2.28799e-07
0.000269072
-1.21393e-07
-1.2227e-07
-0.00119133
1.28217e-07
1.26811e-07
0.00119132
-0.00113826
-1.22364e-06
1.28185e-07
1.35797e-08
0.00113815
-2.28441e-07
1.23087e-06
2.41406e-07
8.5994e-07
-2.28187e-07
-8.81247e-07
2.03796e-07
-0.00113793
-1.22424e-06
1.36538e-07
3.8519e-08
0.0011378
-2.33406e-07
1.21989e-06
2.37576e-07
8.61245e-07
-2.30133e-07
-8.78669e-07
2.06332e-07
-0.000270968
1.25974e-06
1.22468e-06
-2.23725e-07
-2.29321e-07
0.000268936
-1.18904e-07
-1.18969e-07
-0.00119124
1.35475e-07
1.35218e-07
0.00119121
-0.00113781
-1.23107e-06
9.34476e-08
5.67098e-08
0.00113769
-2.44987e-07
1.21466e-06
2.17486e-07
8.73241e-07
-2.11486e-07
-8.66198e-07
2.17805e-07
-0.00113742
-1.21926e-06
8.75571e-08
3.16818e-08
0.00113731
-2.36611e-07
1.21746e-06
2.28078e-07
8.70849e-07
-2.16533e-07
-8.68399e-07
2.18759e-07
-0.000270884
1.25e-06
1.21572e-06
-2.15996e-07
-2.21327e-07
0.000268856
-6.28915e-08
-6.23722e-08
-0.00119109
8.38583e-08
8.49833e-08
0.00119105
-0.0011373
-1.21508e-06
8.9854e-08
8.11015e-09
0.00113718
-2.1949e-07
1.23305e-06
2.45513e-07
8.64146e-07
-2.19471e-07
-8.71427e-07
2.09111e-07
-0.00113695
-1.21423e-06
9.04673e-08
2.16546e-08
0.00113683
-2.27312e-07
1.22141e-06
2.36372e-07
8.67088e-07
-2.19049e-07
-8.68659e-07
2.14902e-07
-0.000270775
1.25202e-06
1.2177e-06
-2.17219e-07
-2.22513e-07
0.000268745
-7.15621e-08
-8.1488e-08
-0.00119092
1.08731e-07
9.3253e-08
0.00119087
-0.00113686
-1.2174e-06
5.46592e-08
6.83672e-09
0.00113676
-2.29483e-07
1.22562e-06
2.33305e-07
8.72495e-07
-2.09059e-07
-8.61368e-07
2.17097e-07
-0.00113645
-1.21927e-06
7.93151e-08
4.73369e-08
0.00113633
-2.364e-07
1.21214e-06
2.25852e-07
8.70015e-07
-2.13446e-07
-8.6216e-07
2.16573e-07
-0.000270684
1.24323e-06
1.2057e-06
-2.09031e-07
-2.16412e-07
0.00026866
-3.10024e-08
-2.04504e-08
-0.0011907
4.90043e-08
6.43768e-08
0.00119064
-0.00113646
-1.21599e-06
5.62558e-08
2.16298e-08
0.00113635
-2.26843e-07
1.22427e-06
2.33278e-07
8.69488e-07
-2.09546e-07
-8.61411e-07
2.14625e-07
-0.00113604
-1.19058e-06
2.09295e-08
-6.34734e-08
0.00113597
-2.02037e-07
1.24064e-06
2.58995e-07
8.67293e-07
-2.15189e-07
-8.64796e-07
2.17187e-07
-0.000270604
1.24142e-06
1.21125e-06
-2.13791e-07
-2.16097e-07
0.000268582
-5.63191e-08
-5.08297e-08
-0.00119042
8.82497e-08
9.39287e-08
0.00119034
-0.00113605
-1.20772e-06
6.23658e-09
6.33644e-09
0.00113594
-2.21154e-07
1.2267e-06
2.32696e-07
8.81113e-07
-1.96154e-07
-8.49526e-07
2.28688e-07
-0.00113575
-1.22624e-06
2.76492e-08
7.71372e-08
0.00113564
-2.51939e-07
1.1969e-06
2.05017e-07
8.86404e-07
-1.94001e-07
-8.42329e-07
2.32072e-07
-0.000270519
1.24099e-06
1.20729e-06
-2.10816e-07
-2.1514e-07
0.000268496
2.55604e-09
-1.20694e-09
-0.00119013
3.3938e-08
3.69366e-08
0.00119006
-0.00113563
-1.20832e-06
3.73264e-08
-5.25046e-09
0.00113553
-2.1439e-07
1.23295e-06
2.50284e-07
8.64635e-07
-2.11794e-07
-8.59636e-07
2.082e-07
-0.00113529
-1.17938e-06
8.61563e-09
-7.98086e-08
0.0011352
-1.85785e-07
1.25005e-06
2.74962e-07
8.63627e-07
-2.1552e-07
-8.63613e-07
2.14115e-07
-0.000270441
1.24e-06
1.2048e-06
-2.09582e-07
-2.16186e-07
0.000268422
1.42732e-08
7.87811e-09
-0.00118982
3.65563e-08
1.60998e-08
0.00118974
-0.00113529
-1.20717e-06
-3.24213e-08
5.8434e-09
0.00113521
-2.29753e-07
1.21885e-06
2.17418e-07
8.89993e-07
-1.83776e-07
-8.38781e-07
2.38422e-07
-0.00113494
-1.23727e-06
2.20498e-08
1.34616e-07
0.00113482
-2.73291e-07
1.17653e-06
1.7712e-07
8.94446e-07
-1.81661e-07
-8.29899e-07
2.38465e-07
-0.000270405
1.22745e-06
1.1901e-06
-1.96083e-07
-2.02643e-07
0.000268386
3.33802e-08
3.25973e-08
-0.00118955
2.15706e-09
1.30724e-08
0.00118947
-0.00113499
-1.18562e-06
1.89485e-09
-8.8362e-08
0.00113494
-1.8463e-07
1.25405e-06
2.78411e-07
8.5627e-07
-2.1731e-07
-8.6517e-07
2.03051e-07
-0.00113454
-1.14043e-06
-5.18463e-08
-2.30463e-07
0.00113453
-1.34335e-07
1.28981e-06
3.25449e-07
8.51048e-07
-2.2643e-07
-8.75299e-07
2.0532e-07
-0.000270289
1.24086e-06
1.20789e-06
-2.16466e-07
-2.21802e-07
0.000268278
-5.77763e-08
-4.83958e-08
-0.00118909
1.05671e-07
1.04182e-07
0.00118898
-0.00113472
-1.2392e-06
-9.189e-08
1.68353e-07
0.00113458
-2.7788e-07
1.17435e-06
1.59633e-07
9.21722e-07
-1.4839e-07
-8.04158e-07
2.68298e-07
-0.0011344
-1.27175e-06
-5.0356e-08
2.82283e-07
0.00113426
-3.2524e-07
1.13104e-06
1.19287e-07
9.25357e-07
-1.46269e-07
-7.94603e-07
2.66718e-07
-0.000270374
1.20197e-06
1.17016e-06
-1.78174e-07
-1.80016e-07
0.00026836
2.44798e-07
2.44701e-07
-0.00118885
-2.19641e-07
-2.08926e-07
0.00118879
-0.00113421
-1.14638e-06
8.41299e-08
-2.52008e-07
0.00113418
-1.24623e-07
1.30146e-06
3.46498e-07
8.16147e-07
-2.5547e-07
-9.00785e-07
1.62501e-07
-0.00113383
-1.11497e-06
3.70182e-08
-3.21796e-07
0.0011338
-9.83882e-08
1.31438e-06
3.57311e-07
8.26667e-07
-2.47781e-07
-8.96268e-07
1.82597e-07
-0.00027017
1.26424e-06
1.22872e-06
-2.30568e-07
-2.3782e-07
0.000268146
-2.91083e-07
-3.01238e-07
-0.00118837
3.68909e-07
3.52548e-07
0.00118824
-0.00113426
-1.23473e-06
-2.77579e-07
1.3084e-07
0.00113424
-2.93822e-07
1.1619e-06
1.26981e-07
9.62807e-07
-1.03078e-07
-7.63493e-07
3.13508e-07
-0.00113387
-1.23474e-06
-2.04991e-07
1.19326e-07
0.00113389
-2.80096e-07
1.16938e-06
1.68702e-07
9.2163e-07
-1.48351e-07
-7.95259e-07
2.66526e-07
-0.000270196
1.20043e-06
1.16632e-06
-1.79611e-07
-1.84639e-07
0.000268193
5.68481e-07
6.09534e-07
-0.00118803
-5.63616e-07
-5.17907e-07
0.00118794
-0.00113376
-1.17066e-06
2.25523e-07
-9.02346e-08
0.0011336
-1.36734e-07
1.28684e-06
3.48076e-07
7.83893e-07
-2.86241e-07
-9.25149e-07
1.23669e-07
-0.00113364
-1.17852e-06
9.08992e-08
8.07393e-09
0.00113338
-2.00354e-07
1.22384e-06
2.28915e-07
8.79842e-07
-1.90349e-07
-8.43056e-07
2.37124e-07
-0.000270149
1.22726e-06
1.19766e-06
-2.10343e-07
-2.11769e-07
0.000268147
-3.87815e-07
-5.99091e-07
-0.00118763
6.56543e-07
3.89548e-07
0.00118757
-0.00113367
-1.20011e-06
-4.59578e-07
2.77518e-08
0.00113371
-2.75281e-07
1.17702e-06
1.23624e-07
9.99249e-07
-6.3924e-08
-7.30448e-07
3.57175e-07
-0.00113262
-1.25216e-06
2.5557e-08
2.32397e-07
0.00113258
-2.41964e-07
1.18777e-06
2.62107e-07
8.10628e-07
-2.50743e-07
-8.79773e-07
1.4076e-07
-0.000270238
1.21336e-06
1.13231e-06
-1.55475e-07
-1.95423e-07
0.000268243
2.7026e-07
7.41211e-07
-0.00118723
-7.10905e-07
-1.18936e-07
0.00118705
-0.00113324
-1.22474e-06
4.21421e-07
6.1033e-08
0.001133
-1.77482e-07
1.25199e-06
3.41791e-07
7.46566e-07
-3.14986e-07
-9.44629e-07
7.21017e-08
-0.0011336
-9.75786e-07
-6.05754e-07
-9.09722e-07
0.00113385
-3.8768e-08
1.38972e-06
3.23779e-07
1.00771e-06
-7.78805e-08
-7.44865e-07
3.80079e-07
-0.00027015
1.24437e-06
1.3371e-06
-2.98978e-07
-2.04532e-07
0.000268072
3.32905e-07
-3.19733e-07
-0.00118679
3.81001e-07
-4.38352e-07
0.00118683
-0.00113341
-9.96589e-07
-6.45167e-07
-8.90536e-07
0.0011338
-5.69449e-08
1.38133e-06
3.24105e-07
9.86781e-07
-8.95472e-08
-7.59431e-07
3.56899e-07
-0.00113291
-1.48466e-06
8.47384e-07
1.13092e-06
0.0011323
-4.90785e-07
9.68855e-07
3.56826e-08
7.46573e-07
-2.96294e-07
-9.12762e-07
6.65138e-08
-0.000269662
1.29843e-06
1.06962e-06
-1.32709e-07
-2.86416e-07
0.000267713
-3.51702e-07
2.18813e-07
-0.00118665
-1.50283e-07
5.56465e-07
0.00118638
-0.00113342
-1.53548e-06
2.413e-07
1.56019e-06
0.00113274
-5.49157e-07
8.99135e-07
-6.88828e-08
8.88196e-07
-1.66749e-07
-7.9366e-07
2.09808e-07
-0.00113189
-8.74708e-07
-1.16858e-06
-1.07105e-06
0.00113243
1.0011e-07
1.50238e-06
4.78202e-07
9.92099e-07
-9.55949e-08
-7.80549e-07
3.76222e-07
-0.000270512
9.55053e-07
1.11289e-06
-1.43864e-07
-9.10243e-09
0.000268597
2.82356e-07
2.49683e-07
-0.00118557
-2.15755e-07
-2.58547e-07
0.00118552
-0.00113158
-9.24231e-07
-1.34267e-07
-1.19564e-06
0.0011319
9.86304e-08
1.5104e-06
5.48112e-07
8.00845e-07
-2.67744e-07
-9.22798e-07
1.6387e-07
-0.00113347
-1.4548e-06
4.18787e-07
7.32656e-07
0.00113313
-5.21196e-07
9.46261e-07
-4.90984e-08
9.20008e-07
-1.31039e-07
-7.48034e-07
2.26918e-07
-0.000270221
1.47842e-06
1.39994e-06
-3.35809e-07
-3.69259e-07
0.000268048
3.21368e-07
-2.49468e-07
-0.00118578
2.90414e-07
-3.69543e-07
0.00118579
-0.00113358
-1.19612e-06
-2.73985e-07
-1.69709e-07
0.00113376
-2.65997e-07
1.19093e-06
1.55062e-07
9.51518e-07
-1.09327e-07
-7.69019e-07
3.04022e-07
-0.00113149
-9.96905e-07
1.50219e-07
-5.37501e-07
0.00113135
5.84416e-08
1.429e-06
5.05175e-07
7.39558e-07
-3.28539e-07
-9.91615e-07
1.10644e-07
-0.000269599
1.17516e-06
1.00394e-06
-6.67784e-08
-1.8664e-07
0.000267674
-1.69503e-07
4.49931e-07
-0.0011853
-3.63271e-07
2.95974e-07
0.00118508
-0.0011328
-1.31209e-06
3.0336e-08
6.9163e-07
0.00113237
-3.10109e-07
1.12073e-06
1.53758e-07
8.71316e-07
-1.91957e-07
-8.32089e-07
2.09418e-07
-0.00113239
-1.23353e-06
-7.01184e-07
3.2833e-08
0.00113274
-3.29214e-07
1.14797e-06
9.9065e-08
1.01747e-06
-5.14676e-08
-6.94035e-07
3.59668e-07
-0.000270306
1.08262e-06
1.23766e-06
-2.56327e-07
-1.03692e-07
0.000268345
2.49796e-07
2.92688e-08
-0.00118472
-3.46653e-08
-2.05155e-07
0.00118468
-0.00113193
-1.11927e-06
-1.61675e-07
-3.72315e-07
0.00113204
-1.37348e-07
1.29416e-06
3.02813e-07
8.79535e-07
-1.85005e-07
-8.3426e-07
2.28328e-07
-0.00113249
-1.23783e-06
2.33508e-07
2.27538e-07
0.00113216
-2.33673e-07
1.18714e-06
2.32361e-07
8.34201e-07
-2.26576e-07
-8.68019e-07
1.8038e-07
-0.000270248
1.31411e-06
1.19174e-06
-1.8036e-07
-2.62814e-07
0.000268185
1.1369e-07
5.61953e-08
-0.00118452
1.21678e-08
-7.64132e-08
0.00118442
-0.00113238
-1.17799e-06
-7.98122e-08
-1.48676e-07
0.0011324
-1.9816e-07
1.23466e-06
2.45371e-07
8.81865e-07
-1.79486e-07
-8.27472e-07
2.28738e-07
-0.00113169
-1.10112e-06
-1.42287e-07
-3.77372e-07
0.00113175
-1.22313e-07
1.29627e-06
3.09559e-07
8.75036e-07
-1.90108e-07
-8.42295e-07
2.33156e-07
-0.000269896
1.23088e-06
1.1913e-06
-2.02766e-07
-2.10321e-07
0.000267886
8.11823e-08
1.51356e-07
-0.00118401
-8.61725e-08
-1.92916e-08
0.00118388
-0.00113226
-1.19771e-06
-1.71598e-07
5.80692e-08
0.00113221
-2.16078e-07
1.21573e-06
2.26131e-07
8.91779e-07
-1.7168e-07
-8.20036e-07
2.38926e-07
-0.00113198
-1.22236e-06
-2.01018e-07
1.32635e-07
0.00113195
-2.59856e-07
1.17493e-06
1.81628e-07
9.12631e-07
-1.52133e-07
-7.96245e-07
2.59358e-07
-0.000270029
1.16295e-06
1.14627e-06
-1.76009e-07
-1.66222e-07
0.000268062
-1.2515e-06
-1.21506e-06
0.00027139
-0.000269375
2.22e-07
2.29263e-07
0.00113907
1.95773e-07
-0.00113921
7.3617e-08
-1.27962e-06
2.24615e-07
-2.58208e-07
-8.9261e-07
2.03998e-07
-2.34839e-07
8.59705e-07
1.26787e-06
0.00113949
1.94566e-07
-0.00113963
4.79918e-08
-1.27812e-06
2.4416e-07
-2.47426e-07
-9.0284e-07
2.00413e-07
-2.44661e-07
8.60163e-07
-1.22795e-06
0.000271408
-0.000269381
2.32964e-07
2.35457e-07
0.00114019
1.98055e-07
-0.00114033
6.97735e-08
-1.24172e-06
2.22817e-07
-2.54743e-07
-8.95672e-07
2.06488e-07
-2.37927e-07
8.62226e-07
1.26005e-06
0.00113914
2.02848e-07
-0.00113928
5.67028e-08
-1.27601e-06
2.43185e-07
-2.5057e-07
-9.00623e-07
1.98037e-07
-2.46292e-07
8.56137e-07
1.95205e-07
-0.00114003
4.50596e-08
-1.23777e-06
2.36073e-07
-2.38892e-07
-8.97178e-07
1.98062e-07
8.54712e-07
-2.41635e-07
1.24673e-06
0.00113894
2.05682e-07
-0.00113908
7.87972e-08
-1.27575e-06
2.26293e-07
-2.54354e-07
-8.95411e-07
1.98093e-07
-2.39691e-07
8.55825e-07
-1.22021e-06
0.000271352
-0.000269337
2.2904e-07
2.36396e-07
2.0385e-07
-0.00113966
5.38306e-08
-1.23559e-06
2.35175e-07
-2.42006e-07
-8.97693e-07
1.98132e-07
8.53385e-07
-2.46167e-07
1.21306e-06
0.00114005
2.07805e-07
-0.0011402
7.4958e-08
-1.2406e-06
2.2451e-07
-2.50956e-07
-8.95764e-07
2.00572e-07
-2.42772e-07
8.55671e-07
-0.000269353
2.25188e-07
2.29886e-07
1.28559e-06
1.24785e-06
-2.34654e-07
-2.42958e-07
0.000269334
-1.25973e-06
-1.22312e-06
0.000271228
-0.000269212
2.29584e-07
2.37239e-07
9.42308e-08
0.00113892
-2.64549e-07
1.24567e-06
2.20208e-07
8.59723e-07
-2.34847e-07
-8.90907e-07
2.0199e-07
-1.27583e-06
1.85167e-07
3.98396e-08
0.00113935
-2.47849e-07
1.26747e-06
2.41109e-07
8.62041e-07
-2.41196e-07
-9.00498e-07
2.03433e-07
0.00113846
1.83058e-07
-0.00113861
5.82858e-08
-1.272e-06
2.41131e-07
-2.44347e-07
-8.91597e-07
1.98016e-07
-2.38299e-07
8.55913e-07
1.26147e-06
0.00113897
1.79185e-07
-0.0011391
5.20021e-08
-1.28012e-06
2.3681e-07
-2.53848e-07
-8.94423e-07
2.04146e-07
-2.37181e-07
8.64737e-07
-2.26652e-07
-2.28539e-07
0.000269351
-1.2194e-06
0.000271283
-0.000269259
2.26595e-07
2.30339e-07
9.3042e-08
0.00114003
-2.61289e-07
1.209e-06
2.1814e-07
8.62164e-07
-2.37998e-07
-8.94064e-07
2.04444e-07
-1.26878e-06
1.84516e-07
3.07137e-08
0.00113901
-2.43947e-07
1.26537e-06
2.47084e-07
8.58413e-07
-2.42781e-07
-8.98288e-07
2.02198e-07
0.00113958
1.84416e-07
-0.00113973
5.20819e-08
-1.23435e-06
2.39204e-07
-2.41096e-07
-8.94215e-07
2.01015e-07
-2.40938e-07
8.59014e-07
1.24824e-06
0.0011386
1.86523e-07
-0.00113874
7.50628e-08
-1.27943e-06
2.25312e-07
-2.62568e-07
-8.90031e-07
2.06134e-07
-2.34233e-07
8.63452e-07
2.01559e-07
7.39916e-08
0.00113879
-2.51806e-07
1.24815e-06
2.29283e-07
8.5513e-07
-2.40211e-07
1.97023e-07
-8.95058e-07
1.72172e-07
-0.00113949
6.43287e-08
-1.24206e-06
2.2658e-07
-2.47695e-07
-8.87879e-07
2.02504e-07
8.60258e-07
-2.33415e-07
1.25789e-06
0.00113839
1.62283e-07
-0.00113852
3.40568e-08
-1.2611e-06
2.38585e-07
-2.38703e-07
-8.89801e-07
2.03076e-07
-2.34214e-07
8.58905e-07
-2.23008e-07
-2.30302e-07
0.000269307
-1.20598e-06
0.000271224
-0.000269214
2.17389e-07
2.26538e-07
2.03454e-07
7.28776e-08
0.00113991
-2.48587e-07
1.21427e-06
2.27245e-07
8.54879e-07
-2.43361e-07
1.99453e-07
-8.95554e-07
1.78949e-07
-0.00113911
8.71837e-08
-1.24153e-06
2.15053e-07
-2.56473e-07
-8.86077e-07
2.07407e-07
8.61899e-07
-2.32956e-07
1.22395e-06
0.00113951
1.63309e-07
-0.00113963
2.81429e-08
-1.22625e-06
2.36595e-07
-2.35569e-07
-8.89721e-07
2.06121e-07
-2.36812e-07
8.59378e-07
-0.000269226
2.33942e-07
2.39154e-07
1.2661e-06
1.22831e-06
-2.20276e-07
-2.28241e-07
0.000269182
-1.25772e-06
-1.21941e-06
0.000271122
-0.000269105
2.25631e-07
2.34312e-07
4.24568e-08
0.00113832
-2.39572e-07
1.26309e-06
2.42761e-07
8.56559e-07
-2.3609e-07
-8.90828e-07
2.00465e-07
-1.27793e-06
1.74911e-07
5.35019e-08
0.00113883
-2.50325e-07
1.26297e-06
2.39264e-07
8.645e-07
-2.3713e-07
-8.93889e-07
2.04172e-07
0.00113795
1.4624e-07
-0.00113807
3.46194e-08
-1.26779e-06
2.34396e-07
-2.47269e-07
-8.82765e-07
2.06334e-07
-2.27652e-07
8.62677e-07
1.26094e-06
0.0011384
1.52063e-07
-0.00113854
5.62885e-08
-1.27544e-06
2.34883e-07
-2.51167e-07
-8.87674e-07
2.10173e-07
-2.29884e-07
8.6904e-07
-2.29467e-07
-2.30467e-07
0.000269225
-1.22259e-06
0.000271147
-0.000269124
2.30135e-07
2.30872e-07
3.50969e-08
0.00113944
-2.36156e-07
1.22663e-06
2.40958e-07
8.59636e-07
-2.38706e-07
-8.93338e-07
2.0344e-07
-1.28169e-06
1.90802e-07
8.38153e-08
0.00113846
-2.62381e-07
1.24794e-06
2.28796e-07
8.61097e-07
-2.3722e-07
-8.90522e-07
2.01979e-07
0.00113907
1.44562e-07
-0.00113919
4.21895e-08
-1.23153e-06
2.30473e-07
-2.45652e-07
-8.85523e-07
2.09551e-07
-2.30138e-07
8.65594e-07
1.26773e-06
0.00113804
1.39352e-07
-0.00113818
2.06728e-08
-1.25889e-06
2.50642e-07
-2.34981e-07
-8.88249e-07
2.0818e-07
-2.33461e-07
8.62975e-07
1.58581e-07
4.04408e-08
0.00113826
-2.41738e-07
1.25461e-06
2.3358e-07
8.60154e-07
-2.31574e-07
2.04708e-07
-8.8769e-07
1.55548e-07
-0.00113894
4.88019e-08
-1.23403e-06
2.28554e-07
-2.41235e-07
-8.83024e-07
2.06424e-07
8.62413e-07
-2.28027e-07
1.25153e-06
0.00113787
1.53803e-07
-0.00113801
4.61758e-08
-1.26464e-06
2.33185e-07
-2.44083e-07
-8.82454e-07
2.05649e-07
-2.2874e-07
8.62795e-07
-2.3487e-07
-2.40823e-07
0.000269175
-1.22958e-06
0.000271097
-0.00026908
2.37325e-07
2.42976e-07
1.59824e-07
3.32874e-08
0.00113938
-2.38455e-07
1.22081e-06
2.31712e-07
8.60716e-07
-2.34063e-07
2.07798e-07
-8.87421e-07
1.43979e-07
-0.00113855
1.32937e-08
-1.21721e-06
2.44478e-07
-2.24886e-07
-8.86556e-07
2.06843e-07
8.58843e-07
-2.34617e-07
1.2162e-06
0.00113899
1.52831e-07
-0.00113912
5.35203e-08
-1.23096e-06
2.29462e-07
-2.42358e-07
-8.82652e-07
2.08586e-07
-2.31424e-07
8.62874e-07
-0.000269106
2.29291e-07
2.35126e-07
1.26712e-06
1.2317e-06
-2.23824e-07
-2.30407e-07
0.000269077
-1.25922e-06
-1.22194e-06
0.000271006
-0.00026899
2.28905e-07
2.36829e-07
3.40097e-08
0.00113783
-2.44952e-07
1.25851e-06
2.37285e-07
8.63301e-07
-2.27101e-07
-8.80827e-07
2.06043e-07
-1.27605e-06
1.47241e-07
5.9891e-08
0.00113826
-2.51823e-07
1.25963e-06
2.34422e-07
8.69739e-07
-2.28406e-07
-8.85608e-07
2.10361e-07
0.00113745
1.35259e-07
-0.00113758
3.49091e-08
-1.26327e-06
2.37927e-07
-2.41152e-07
-8.80544e-07
2.05562e-07
-2.26785e-07
8.61491e-07
1.26367e-06
0.00113786
1.38831e-07
-0.00113799
4.60901e-08
-1.27095e-06
2.41715e-07
-2.44692e-07
-8.87241e-07
2.05413e-07
-2.31494e-07
8.65098e-07
-2.2521e-07
-2.29271e-07
0.000269091
-1.2251e-06
0.000271021
-0.000268997
2.31758e-07
2.33256e-07
4.54854e-08
0.00113894
-2.44138e-07
1.21944e-06
2.3269e-07
8.66727e-07
-2.29149e-07
-8.83176e-07
2.09708e-07
-1.2593e-06
1.27006e-07
2.41241e-08
0.00113792
-2.39935e-07
1.26363e-06
2.42034e-07
8.66416e-07
-2.27724e-07
-8.84515e-07
2.13222e-07
0.00113857
1.31151e-07
-0.00113869
3.50823e-08
-1.22669e-06
2.35622e-07
-2.38644e-07
-8.82395e-07
2.0876e-07
-2.28942e-07
8.65003e-07
1.25237e-06
0.00113756
1.37737e-07
-0.00113768
6.03399e-08
-1.27188e-06
2.35594e-07
-2.52998e-07
-8.8e-07
2.07636e-07
-2.28127e-07
8.66171e-07
1.48508e-07
4.4275e-08
0.00113773
-2.40872e-07
1.25286e-06
2.34207e-07
8.63886e-07
-2.26758e-07
2.07474e-07
-8.80688e-07
1.43164e-07
-0.00113839
3.54525e-08
-1.22946e-06
2.34983e-07
-2.34941e-07
-8.81761e-07
2.02485e-07
8.5948e-07
-2.28984e-07
1.24734e-06
0.00113731
1.48912e-07
-0.00113745
6.08391e-08
-1.26432e-06
2.29065e-07
-2.46034e-07
-8.7947e-07
2.04028e-07
-2.26532e-07
8.61487e-07
-2.13554e-07
-2.22836e-07
0.000269057
-1.21354e-06
0.00027098
-0.00026897
2.24524e-07
2.31448e-07
1.45004e-07
5.5575e-08
0.00113884
-2.39922e-07
1.21682e-06
2.29778e-07
8.64391e-07
-2.2911e-07
2.10811e-07
-8.80596e-07
1.40379e-07
-0.00113806
4.91477e-08
-1.23063e-06
2.28755e-07
-2.43413e-07
-8.76707e-07
2.07887e-07
8.63839e-07
-2.27835e-07
1.21267e-06
0.00113842
1.44716e-07
-0.00113856
6.14715e-08
-1.23062e-06
2.26597e-07
-2.43738e-07
-8.7863e-07
2.07336e-07
-2.28569e-07
8.624e-07
-0.000268966
2.26321e-07
2.31868e-07
1.26069e-06
1.2227e-06
-2.17148e-07
-2.25368e-07
0.000268965
-1.25129e-06
-1.21516e-06
0.000270894
-0.000268883
2.24066e-07
2.31222e-07
2.60294e-08
0.00113733
-2.38679e-07
1.2618e-06
2.41119e-07
8.63531e-07
-2.24289e-07
-8.78246e-07
2.08057e-07
-1.2649e-06
1.24066e-07
2.31708e-08
0.00113775
-2.37963e-07
1.26966e-06
2.48428e-07
8.65737e-07
-2.30736e-07
-8.86645e-07
2.06697e-07
0.00113694
1.08499e-07
-0.00113708
6.00998e-08
-1.26495e-06
2.27021e-07
-2.47067e-07
-8.69779e-07
2.14219e-07
-2.15408e-07
8.69687e-07
1.26801e-06
0.00113742
8.83753e-08
-0.00113753
7.21753e-09
-1.25923e-06
2.39839e-07
-2.38409e-07
-8.75784e-07
2.19917e-07
-2.17255e-07
8.76147e-07
-2.19183e-07
-2.22191e-07
0.000268974
-1.22591e-06
0.000270943
-0.000268919
2.3282e-07
2.36672e-07
1.8165e-08
0.00113845
-2.34743e-07
1.22598e-06
2.40192e-07
8.6602e-07
-2.27302e-07
-8.81049e-07
2.10426e-07
-1.26535e-06
1.33357e-07
4.83611e-08
0.00113742
-2.42854e-07
1.25877e-06
2.44551e-07
8.64002e-07
-2.30263e-07
-8.8171e-07
2.06387e-07
0.00113806
1.13474e-07
-0.0011382
5.46572e-08
-1.22652e-06
2.25114e-07
-2.43308e-07
-8.73397e-07
2.16718e-07
-2.18758e-07
8.71955e-07
1.26385e-06
0.00113705
9.83825e-08
-0.00113716
8.35336e-09
-1.25418e-06
2.4311e-07
-2.3744e-07
-8.7556e-07
2.16408e-07
-2.20418e-07
8.70306e-07
1.3751e-07
4.73522e-08
0.00113718
-2.39111e-07
1.25255e-06
2.3689e-07
8.60184e-07
-2.27844e-07
2.02847e-07
-8.80134e-07
8.46236e-08
-0.00113793
2.08721e-08
-1.22097e-06
2.2921e-07
-2.3219e-07
-8.69936e-07
2.18136e-07
8.7108e-07
-2.13725e-07
1.26039e-06
0.00113682
9.04222e-08
-0.00113693
8.26866e-09
-1.24616e-06
2.40494e-07
-2.27806e-07
-8.74321e-07
2.12886e-07
-2.19076e-07
8.66157e-07
-2.20306e-07
-2.28254e-07
0.000268939
-1.22197e-06
0.000270878
-0.000268864
2.31603e-07
2.40271e-07
1.37952e-07
3.98846e-08
0.00113829
-2.35426e-07
1.21929e-06
2.3578e-07
8.60186e-07
-2.30709e-07
2.05308e-07
-8.80107e-07
9.59189e-08
-0.00113754
2.25086e-08
-1.21559e-06
2.32551e-07
-2.31093e-07
-8.7282e-07
2.1687e-07
8.67609e-07
-2.20154e-07
1.22697e-06
0.00113794
9.46594e-08
-0.00113805
2.95486e-09
-1.21055e-06
2.38625e-07
-2.24104e-07
-8.7512e-07
2.15418e-07
-2.22346e-07
8.65852e-07
-0.000268876
2.37384e-07
2.42061e-07
1.26941e-06
1.23245e-06
-2.2418e-07
-2.31939e-07
0.000268848
-1.27414e-06
-1.2362e-06
0.000270791
-0.000268771
2.41077e-07
2.49421e-07
6.85575e-08
0.00113681
-2.51569e-07
1.24821e-06
2.25926e-07
8.67761e-07
-2.17549e-07
-8.69765e-07
2.1002e-07
-1.26819e-06
1.01743e-07
3.64041e-08
0.0011373
-2.501e-07
1.2578e-06
2.29017e-07
8.77556e-07
-2.15568e-07
-8.72763e-07
2.19116e-07
0.00113646
8.06481e-08
-0.00113657
-1.97629e-08
-1.24393e-06
2.58442e-07
-2.18226e-07
-8.72507e-07
2.09522e-07
-2.20507e-07
8.64197e-07
1.26466e-06
0.00113691
1.05504e-07
-0.00113704
4.3672e-08
-1.26485e-06
2.45627e-07
-2.38273e-07
-8.76734e-07
2.10171e-07
-2.23298e-07
8.6985e-07
-2.2309e-07
-2.23471e-07
0.000268891
-1.2253e-06
0.000270806
-0.000268786
2.3415e-07
2.36005e-07
7.22598e-08
0.00113793
-2.49339e-07
1.21049e-06
2.22493e-07
8.70998e-07
-2.20022e-07
-8.72434e-07
2.13344e-07
-1.25653e-06
9.56653e-08
1.16459e-08
0.00113694
-2.41714e-07
1.26064e-06
2.39646e-07
8.7248e-07
-2.1783e-07
-8.72084e-07
2.17248e-07
0.00113757
7.69386e-08
-0.00113768
-1.44409e-08
-1.20798e-06
2.55315e-07
-2.16483e-07
-8.74756e-07
2.12587e-07
-2.22798e-07
8.67325e-07
1.25849e-06
0.00113658
9.47641e-08
-0.00113671
3.72956e-08
-1.25776e-06
2.41839e-07
-2.39313e-07
-8.72126e-07
2.13707e-07
-2.20334e-07
8.69547e-07
8.64261e-08
1.20679e-08
0.00113672
-2.35487e-07
1.25488e-06
2.3233e-07
8.69939e-07
-2.14659e-07
2.15995e-07
-8.69992e-07
1.02647e-07
-0.00113743
3.72344e-08
-1.22493e-06
2.38556e-07
-2.29599e-07
-8.7037e-07
2.07573e-07
8.64791e-07
-2.20138e-07
1.251e-06
0.00113639
9.45003e-08
-0.00113651
3.55453e-08
-1.25473e-06
2.3497e-07
-2.36344e-07
-8.66577e-07
2.11645e-07
-2.15704e-07
8.6883e-07
-2.16414e-07
-2.21956e-07
0.000268841
-1.21911e-06
0.00027077
-0.00026876
2.30413e-07
2.37331e-07
8.63593e-08
1.56651e-08
0.00113783
-2.33216e-07
1.22005e-06
2.29033e-07
8.7036e-07
-2.17158e-07
2.19256e-07
-8.7005e-07
9.15178e-08
-0.00113707
3.02818e-08
-1.2179e-06
2.34902e-07
-2.30584e-07
-8.68301e-07
2.13788e-07
8.67316e-07
-2.19764e-07
1.21587e-06
0.00113749
9.13416e-08
-0.00113762
4.08889e-08
-1.22143e-06
2.31864e-07
-2.346e-07
-8.66314e-07
2.14617e-07
-2.181e-07
8.69178e-07
-0.000268774
2.30282e-07
2.36002e-07
1.24052e-06
1.20346e-06
-2.01782e-07
-2.095e-07
0.000268758
-1.2457e-06
-1.21179e-06
0.0002707
-0.00026869
2.2118e-07
2.2667e-07
-2.36351e-08
0.00113635
-2.18092e-07
1.27308e-06
2.52367e-07
8.6809e-07
-2.14539e-07
-8.69305e-07
2.16308e-07
-1.25694e-06
8.66734e-08
2.3476e-08
0.00113678
-2.30102e-07
1.2706e-06
2.50903e-07
8.70406e-07
-2.21531e-07
-8.76595e-07
2.12745e-07
0.00113604
7.33019e-08
-0.00113615
5.90951e-08
-1.26709e-06
2.23515e-07
-2.52963e-07
-8.58726e-07
2.16533e-07
-2.07356e-07
8.7432e-07
1.26625e-06
0.00113646
5.89414e-08
-0.00113655
4.36125e-09
-1.25638e-06
2.41036e-07
-2.36848e-07
-8.6856e-07
2.19567e-07
-2.12517e-07
8.77079e-07
-2.11622e-07
-2.15155e-07
0.000268761
-1.22696e-06
0.000270733
-0.000268709
2.33603e-07
2.35183e-07
-2.46078e-08
0.00113746
-2.15134e-07
1.23634e-06
2.5049e-07
8.70582e-07
-2.17513e-07
-8.72257e-07
2.18747e-07
-1.25617e-06
8.69424e-08
3.72445e-08
0.00113645
-2.38037e-07
1.25884e-06
2.41594e-07
8.70764e-07
-2.18234e-07
-8.70985e-07
2.1606e-07
0.00113716
8.09533e-08
-0.00113726
4.06804e-08
-1.22704e-06
2.24256e-07
-2.4711e-07
-8.62544e-07
2.18148e-07
-2.11398e-07
8.76107e-07
1.25328e-06
0.00113608
7.63014e-08
-0.0011362
4.06666e-08
-1.25819e-06
2.343e-07
-2.43639e-07
-8.63792e-07
2.19476e-07
-2.11494e-07
8.75213e-07
9.49796e-08
3.66818e-08
0.00113626
-2.32688e-07
1.25264e-06
2.37037e-07
8.66286e-07
-2.1725e-07
2.10192e-07
-8.68733e-07
6.3596e-08
-0.00113695
5.24064e-09
-1.21535e-06
2.33039e-07
-2.27871e-07
-8.64414e-07
2.16216e-07
8.70439e-07
-2.10714e-07
1.25822e-06
0.00113591
5.99416e-08
-0.00113602
1.07095e-08
-1.24382e-06
2.40767e-07
-2.26969e-07
-8.64476e-07
2.16194e-07
-2.11221e-07
8.70297e-07
-2.12281e-07
-2.21088e-07
0.000268733
-1.21382e-06
0.000270657
-0.000268649
2.26123e-07
2.33137e-07
9.4531e-08
3.58987e-08
0.00113737
-2.29839e-07
1.21861e-06
2.35079e-07
8.66176e-07
-2.2023e-07
2.1262e-07
-8.6898e-07
8.09161e-08
-0.00113658
4.16438e-08
-1.21718e-06
2.26195e-07
-2.3475e-07
-8.62284e-07
2.18962e-07
8.71463e-07
-2.12329e-07
1.22698e-06
0.00113703
6.71984e-08
-0.00113713
-7.43232e-09
-1.20659e-06
2.41465e-07
-2.2122e-07
-8.6553e-07
2.17837e-07
-2.15179e-07
8.69545e-07
-0.000268678
2.38144e-07
2.41255e-07
1.26238e-06
1.22204e-06
-2.17921e-07
-2.27907e-07
0.000268662
-1.2729e-06
-1.23334e-06
0.000270628
-0.000268609
2.38487e-07
2.4841e-07
5.04439e-08
0.00113593
-2.41802e-07
1.25338e-06
2.37519e-07
8.69915e-07
-2.12464e-07
-8.61145e-07
2.11154e-07
-1.25698e-06
5.44742e-08
2.42751e-10
0.00113637
-2.36888e-07
1.26638e-06
2.42726e-07
8.77815e-07
-2.1192e-07
-8.66669e-07
2.1936e-07
0.0011356
4.17808e-08
-0.0011357
-2.7328e-08
-1.23685e-06
2.53709e-07
-2.15504e-07
-8.65743e-07
2.1485e-07
-2.12297e-07
8.67124e-07
1.26518e-06
0.00113607
5.31707e-08
-0.00113618
2.32193e-08
-1.25503e-06
2.42246e-07
-2.33753e-07
-8.67144e-07
2.18638e-07
-2.11857e-07
8.75638e-07
-2.14859e-07
-2.1722e-07
0.000268691
-1.22555e-06
0.000270654
-0.000268632
2.33477e-07
2.35733e-07
2.90245e-08
0.00113704
-2.35792e-07
1.21958e-06
2.38175e-07
8.71697e-07
-2.16476e-07
-8.65037e-07
2.12839e-07
-1.25864e-06
7.99179e-08
4.04895e-08
0.00113596
-2.4364e-07
1.25318e-06
2.35417e-07
8.72367e-07
-2.1388e-07
-8.64962e-07
2.15854e-07
0.00113672
4.01e-08
-0.00113682
-1.36249e-08
-1.20149e-06
2.48067e-07
-2.15085e-07
-8.68089e-07
2.18688e-07
-2.14292e-07
8.70577e-07
1.27324e-06
0.00113567
4.6501e-08
-0.00113576
-2.44352e-08
-1.23892e-06
2.61001e-07
-2.18369e-07
-8.71417e-07
2.11288e-07
-2.19991e-07
8.65646e-07
4.99202e-08
1.17289e-08
0.00113581
-2.27351e-07
1.25729e-06
2.39196e-07
8.72257e-07
-2.08534e-07
2.18001e-07
-8.61629e-07
5.02506e-08
-0.00113657
1.85583e-08
-1.21526e-06
2.34921e-07
-2.25206e-07
-8.6048e-07
2.16258e-07
8.70782e-07
-2.08429e-07
1.25479e-06
0.00113551
5.15821e-08
-0.00113561
9.58351e-09
-1.24498e-06
2.38133e-07
-2.29354e-07
-8.60887e-07
2.14929e-07
-2.09557e-07
8.70288e-07
-2.17427e-07
-2.2449e-07
0.000268621
-1.23372e-06
0.000270591
-0.000268573
2.40611e-07
2.47732e-07
5.94197e-08
-9.27673e-09
0.00113692
-2.21433e-07
1.22618e-06
2.39826e-07
8.71375e-07
-2.12514e-07
2.19671e-07
-8.62776e-07
4.3724e-08
-0.00113613
-2.91544e-08
-1.19904e-06
2.53782e-07
-2.09764e-07
-8.67476e-07
2.11432e-07
8.63583e-07
-2.19406e-07
1.21802e-06
0.00113662
4.94867e-08
-0.00113672
2.25981e-08
-1.21234e-06
2.3258e-07
-2.28969e-07
-8.60505e-07
2.18906e-07
-2.11421e-07
8.71221e-07
-0.000268601
2.31081e-07
2.38467e-07
1.23713e-06
1.20433e-06
-2.03748e-07
-2.08488e-07
0.000268599
-1.2491e-06
-1.20973e-06
0.000270537
-0.000268532
2.2198e-07
2.31566e-07
-3.72529e-08
0.00113552
-2.20592e-07
1.27112e-06
2.48133e-07
8.72765e-07
-2.06146e-07
-8.60561e-07
2.20807e-07
-1.25737e-06
5.34329e-08
3.47977e-08
0.00113596
-2.3708e-07
1.26222e-06
2.39054e-07
8.75701e-07
-2.11771e-07
-8.66682e-07
2.18164e-07
0.0011352
3.96731e-08
-0.00113533
4.75895e-08
-1.2554e-06
2.26222e-07
-2.41902e-07
-8.4817e-07
2.24696e-07
-1.97672e-07
8.80857e-07
1.27601e-06
0.00113565
1.26439e-08
-0.00113575
-2.58581e-08
-1.24337e-06
2.54207e-07
-2.21119e-07
-8.58302e-07
2.26434e-07
-2.04213e-07
8.83122e-07
-2.13186e-07
-2.16263e-07
0.00026861
-1.23493e-06
0.000270577
-0.000268553
2.42229e-07
2.4551e-07
-7.39887e-09
0.00113663
-2.22723e-07
1.22908e-06
2.40155e-07
8.7718e-07
-2.07087e-07
-8.61927e-07
2.25577e-07
-1.23215e-06
1.80011e-08
-4.99252e-08
0.0011356
-2.12395e-07
1.27845e-06
2.64596e-07
8.70767e-07
-2.14533e-07
-8.6737e-07
2.18161e-07
0.00113631