/*--------------------------------*- C++ -*----------------------------------*\
| =========                 |                                                 |
| \\      /  F ield         | OpenFOAM: The Open Source CFD Toolbox           |
|  \\    /   O peration     | Version:  v1906                                 |
|   \\  /    A nd           | Web:      www.OpenFOAM.com                      |
|    \\/     M anipulation  |                                                 |
\*---------------------------------------------------------------------------*/
FoamFile
{
    version     2.0;
    format      ascii;
    class       volVectorField;
    location    "500";
    object      U;
}
// * * * * * * * * * * * * * * * * * * * * * * * * * * * * * * * * * * * * * //

dimensions      [0 1 -1 0 0 0 0];


internalField   nonuniform List<vector> 
43248
(
(-4.34151e-05 -4.33142e-05 0.104894)
(1.02715e-05 1.78596e-05 0.10828)
(-1.24126e-05 1.75586e-05 0.108279)
(4.13502e-05 -4.16353e-05 0.104893)
(1.77536e-05 1.09005e-05 0.108282)
(1.66036e-05 -1.00843e-05 0.108279)
(-1.77411e-05 1.20545e-05 0.108282)
(-1.7603e-05 -1.02962e-05 0.10828)
(-4.32735e-05 4.29864e-05 0.104895)
(9.69427e-06 -1.67996e-05 0.108282)
(-1.07089e-05 -1.74218e-05 0.108281)
(4.32105e-05 4.34623e-05 0.104892)
(2.45474e-05 2.49784e-05 0.113146)
(-2.49031e-05 2.46286e-05 0.113146)
(2.33484e-05 -2.36469e-05 0.113145)
(-2.51479e-05 -2.47764e-05 0.113146)
(-5.6251e-07 -4.32909e-06 0.0709108)
(-4.2287e-06 -7.68965e-07 0.0709104)
(-3.11125e-06 -3.08248e-06 0.0870177)
(-3.10208e-06 -3.2735e-06 0.0870188)
(-1.00519e-06 5.99598e-06 0.0909838)
(-2.52394e-06 -7.30876e-06 0.0816072)
(-1.6802e-06 -8.51835e-06 0.0910143)
(2.76452e-07 5.98666e-06 0.0909835)
(2.90187e-06 -7.25185e-06 0.08161)
(-1.69899e-06 5.99693e-06 0.0815666)
(-4.21746e-07 -8.7161e-06 0.0910145)
(-9.53678e-08 1.69357e-05 0.0985417)
(-5.13287e-06 -5.72761e-06 0.0926632)
(3.41746e-06 2.58664e-05 0.11084)
(4.14049e-06 2.65018e-05 0.11085)
(-9.12513e-07 -9.63683e-06 0.0985913)
(5.1593e-07 1.69699e-05 0.098541)
(-1.08457e-05 1.74917e-05 0.108293)
(3.44246e-06 -8.56296e-06 0.0926671)
(-4.35167e-06 2.57254e-05 0.11084)
(-4.35714e-06 1.31476e-05 0.0926155)
(-3.54388e-06 2.63328e-05 0.11085)
(-3.49531e-07 -9.85503e-06 0.0985913)
(2.8329e-06 -2.9059e-06 0.0709078)
(-4.89192e-06 2.44875e-06 0.070866)
(-4.77292e-05 4.74037e-05 0.104748)
(4.46019e-06 -3.16225e-06 0.0870191)
(2.9221e-06 -4.5085e-06 0.0870213)
(-6.32412e-06 1.81162e-06 0.0869845)
(-1.78209e-06 6.1056e-06 0.0869857)
(2.82125e-06 -2.9903e-06 0.0709096)
(-2.42171e-06 4.70937e-06 0.0708639)
(-7.16491e-06 -2.59078e-06 0.0816075)
(-8.48261e-06 -1.58636e-06 0.0910131)
(-6.06378e-06 -4.99443e-06 0.0926646)
(2.57581e-05 4.1248e-06 0.11084)
(-9.58893e-06 -5.40481e-07 0.0985904)
(-7.76965e-06 1.17335e-06 0.0816103)
(-8.65813e-06 -3.6797e-07 0.0910131)
(2.55055e-05 -2.92711e-06 0.110839)
(-9.29143e-06 2.6652e-06 0.0926679)
(-9.75438e-06 1.04765e-07 0.0985902)
(-1.70255e-05 -8.05371e-07 0.0985413)
(-1.76525e-05 1.0435e-05 0.108296)
(8.42047e-06 -3.49226e-06 0.092669)
(-2.58873e-05 3.9773e-06 0.11084)
(-1.3123e-05 4.10466e-06 0.0926169)
(-2.65309e-05 3.1749e-06 0.11085)
(9.85399e-06 1.28857e-07 0.0985911)
(-6.04278e-06 -4.38132e-07 0.0909834)
(7.17409e-06 -3.13744e-06 0.0816115)
(-5.91391e-06 1.6238e-06 0.0815663)
(8.6646e-06 2.60703e-08 0.0910145)
(-1.69766e-05 -8.38239e-08 0.0985418)
(-1.84416e-05 -1.15062e-05 0.108295)
(-2.5957e-05 -3.64961e-06 0.11084)
(7.0412e-06 4.15134e-06 0.0926652)
(-2.66996e-05 -4.50021e-06 0.11085)
(-1.48805e-05 -2.42019e-06 0.0926154)
(9.67509e-06 7.32972e-07 0.0985906)
(-6.06451e-06 8.50399e-07 0.0909835)
(7.62014e-06 1.3101e-06 0.0816087)
(-6.5489e-06 4.10718e-07 0.0815663)
(8.50655e-06 1.11257e-06 0.091014)
(-3.29977e-06 8.44573e-07 0.0709087)
(-5.36329e-06 3.1009e-06 0.0870211)
(-3.20732e-06 5.41064e-06 0.0870225)
(-9.52222e-07 3.25446e-06 0.0709085)
(-1.16475e-06 -1.72253e-05 0.0985404)
(2.53127e-06 -2.57006e-05 0.110839)
(-2.78246e-06 9.24866e-06 0.0926686)
(2.15131e-06 -2.65552e-05 0.110849)
(-3.50486e-07 9.72476e-06 0.0985905)
(-4.48652e-07 -1.70733e-05 0.0985406)
(-1.18308e-05 -1.82924e-05 0.108296)
(-4.41475e-06 -2.58769e-05 0.110839)
(4.02785e-06 7.11315e-06 0.092665)
(-5.08284e-06 -2.66508e-05 0.11085)
(-2.65238e-06 -1.47745e-05 0.0926147)
(3.44733e-07 9.61782e-06 0.0985902)
(-8.01616e-07 -6.24389e-06 0.090983)
(-1.25211e-06 7.70406e-06 0.0816105)
(-3.98174e-08 8.58286e-06 0.0910135)
(4.56556e-07 -6.16635e-06 0.090983)
(1.43716e-06 7.54891e-06 0.0816088)
(3.37357e-07 -6.50169e-06 0.0815658)
(1.01423e-06 8.45946e-06 0.0910134)
(-4.95997e-05 -4.94304e-05 0.104749)
(4.50685e-06 2.66395e-06 0.0870212)
(2.68057e-06 4.48423e-06 0.0870191)
(-4.18893e-06 -4.44165e-06 0.0869831)
(-4.54584e-06 -4.14035e-06 0.0869816)
(4.18761e-06 -3.48524e-07 0.0709113)
(-2.31696e-06 -3.24087e-06 0.0708674)
(-2.10491e-07 4.12112e-06 0.0709108)
(-3.27268e-06 -2.29813e-06 0.0708669)
(2.63687e-06 2.21353e-06 0.0708691)
(2.25622e-06 2.52561e-06 0.0708677)
(3.26443e-06 8.10833e-06 0.091265)
(-5.24272e-06 -1.07151e-05 0.0961049)
(4.20107e-06 5.12741e-06 0.0869823)
(-1.06753e-08 -3.30881e-06 0.0809881)
(3.13918e-06 4.24792e-06 0.0809566)
(9.06912e-06 1.43076e-05 0.0960681)
(-4.68959e-06 -9.74315e-06 0.0912947)
(7.8913e-06 3.01195e-06 0.0912516)
(-1.09972e-05 -5.33668e-06 0.0961125)
(4.95736e-06 4.17863e-06 0.0869786)
(-3.14604e-06 -8.3922e-08 0.0809862)
(4.12701e-06 2.9227e-06 0.080949)
(1.40184e-05 9.07109e-06 0.096059)
(-9.70725e-06 -4.74249e-06 0.0912985)
(2.22565e-06 2.17865e-06 0.0830683)
(-7.79471e-07 -1.81854e-06 0.067814)
(-1.75571e-06 -8.30963e-07 0.067809)
(2.69109e-06 1.42611e-06 0.0677809)
(1.45264e-06 2.58947e-06 0.0677743)
(-4.00449e-06 -3.94153e-06 0.0831)
(-1.13387e-06 -3.1128e-06 0.0762509)
(-1.68966e-06 3.56105e-06 0.0780065)
(-1.28102e-06 6.38514e-06 0.0894166)
(-1.34087e-06 -8.48551e-06 0.0910192)
(-2.39639e-06 4.27784e-06 0.0762146)
(-1.39026e-06 -3.64466e-06 0.0780371)
(-1.81997e-06 -7.93684e-06 0.0894573)
(-2.33471e-06 3.36618e-06 0.067756)
(-1.18895e-06 6.80073e-06 0.0815655)
(-2.79687e-06 -7.09823e-06 0.0852582)
(-2.39557e-06 5.14662e-06 0.0852112)
(-2.3499e-07 -2.91498e-06 0.0678075)
(-2.3547e-06 4.20856e-06 0.0762148)
(-1.58832e-06 5.9064e-06 0.0909789)
(-7.68219e-07 -3.71686e-06 0.0780369)
(-2.25515e-06 -7.82278e-06 0.0894535)
(-1.41615e-06 3.49247e-06 0.0780064)
(-1.97979e-06 6.4831e-06 0.0894129)
(-6.60701e-07 -3.23811e-06 0.0762509)
(-1.04049e-06 -3.45239e-06 0.0762502)
(-7.19746e-09 3.46815e-06 0.0780066)
(-1.1472e-07 6.17455e-06 0.0894167)
(-5.32836e-08 -8.59045e-06 0.091019)
(1.09609e-07 4.10424e-06 0.0762162)
(-2.04782e-07 -3.74715e-06 0.0780371)
(-2.87586e-07 -8.48752e-06 0.0894571)
(1.23947e-06 3.31624e-06 0.0677562)
(-9.93648e-08 6.42897e-06 0.081568)
(1.6793e-06 -7.35086e-06 0.0852588)
(6.01166e-07 4.6695e-06 0.0852133)
(3.44604e-07 -2.84746e-06 0.0678032)
(-8.70819e-07 -3.13207e-06 0.0678016)
(3.31538e-07 4.47609e-06 0.0852138)
(8.24412e-07 -7.80574e-06 0.0816094)
(2.51675e-07 3.08806e-06 0.0677546)
(1.04952e-06 -7.69837e-06 0.08526)
(7.30571e-07 4.02513e-06 0.0762172)
(-3.23905e-07 5.75023e-06 0.090979)
(3.13465e-07 -3.75893e-06 0.0780372)
(-1.96795e-07 -8.61339e-06 0.0894541)
(2.4018e-07 3.4227e-06 0.0780069)
(-5.40133e-07 5.82772e-06 0.0894139)
(-3.4626e-08 -3.44676e-06 0.0762511)
(-2.3028e-06 3.23347e-06 0.0708668)
(4.30343e-07 -3.34728e-06 0.0709066)
(2.9437e-06 -3.12158e-06 0.0830907)
(-1.50721e-06 1.47682e-06 0.0677634)
(-1.58745e-06 1.35983e-06 0.0677687)
(-2.07244e-06 1.85374e-06 0.0830609)
(3.50587e-06 -1.15367e-06 0.0678005)
(1.08494e-06 -3.59449e-06 0.0678059)
(-5.20563e-06 7.18977e-06 0.0912516)
(1.29374e-06 -1.24866e-05 0.0961075)
(-4.46343e-06 3.31358e-06 0.0869822)
(5.45034e-06 -2.00052e-06 0.0809837)
(-1.29305e-05 1.18663e-05 0.0960633)
(8.72502e-07 4.30307e-06 0.0809485)
(3.75343e-06 -9.39046e-06 0.0912872)
(-7.362e-06 4.95234e-06 0.0912587)
(1.23075e-05 -1.44036e-06 0.096111)
(-3.43928e-06 4.33229e-06 0.0869834)
(1.90015e-06 -5.48806e-06 0.0809885)
(-4.42479e-06 -9.72339e-07 0.0809531)
(-1.20131e-05 1.27097e-05 0.0960673)
(9.25737e-06 -3.96168e-06 0.0912942)
(2.27932e-06 -1.11536e-05 0.0912938)
(-2.38308e-06 2.39674e-06 0.0809486)
(-1.16188e-05 1.19768e-05 0.0960698)
(2.41545e-06 -5.38823e-06 0.0870224)
(1.56196e-06 -1.32693e-05 0.0961154)
(-5.83152e-06 5.86738e-06 0.0912578)
(3.47419e-06 -3.74838e-06 0.0809838)
(1.09658e-05 -2.52441e-06 0.0913008)
(-2.54865e-06 2.19361e-06 0.0809533)
(-1.21129e-05 1.12582e-05 0.0960739)
(5.27608e-06 -2.53376e-06 0.0870248)
(-6.10485e-06 5.57166e-06 0.0912649)
(3.59753e-06 -3.61668e-06 0.0809887)
(1.30994e-05 -1.82563e-06 0.096119)
(-3.62e-06 3.48625e-06 0.083059)
(4.1934e-06 -8.37735e-07 0.0678079)
(8.55055e-07 -4.18897e-06 0.0678133)
(1.645e-07 2.19665e-06 0.0677689)
(-2.22317e-06 -2.0624e-07 0.0677742)
(1.66489e-06 -1.75e-06 0.0830907)
(-3.15372e-06 2.02727e-06 0.0708649)
(3.23657e-06 -5.63249e-07 0.0709081)
(3.51092e-06 -2.43436e-06 0.0677567)
(6.83673e-06 -1.21632e-06 0.0815652)
(-7.05598e-06 -2.82188e-06 0.0852564)
(5.21699e-06 -2.29258e-06 0.0852112)
(-2.91461e-06 -5.41252e-07 0.0678038)
(4.30481e-06 -2.44763e-06 0.0762171)
(6.02041e-06 -1.32105e-06 0.0909788)
(-7.86698e-06 -2.11642e-06 0.0894525)
(-3.73827e-06 -1.17045e-06 0.0780357)
(6.49887e-06 -1.70951e-06 0.0894131)
(3.58395e-06 -1.64196e-06 0.0780078)
(-3.25534e-06 -8.95576e-07 0.0762502)
(2.94875e-06 2.88318e-07 0.0677553)
(5.96655e-06 -1.53911e-06 0.0815656)
(-7.69243e-06 9.3156e-07 0.08526)
(4.40242e-06 8.39066e-08 0.0852126)
(-3.0384e-06 -8.11551e-07 0.0678067)
(3.91979e-06 7.29221e-08 0.0762148)
(5.92052e-06 -6.3563e-08 0.0909787)
(-3.82476e-06 -1.26883e-07 0.0780359)
(-8.59519e-06 -5.24179e-07 0.0894536)
(3.46509e-06 -7.23814e-08 0.0780075)
(5.97721e-06 -4.37199e-07 0.0894129)
(-3.49139e-06 -9.68094e-07 0.0762512)
(3.37516e-06 8.11874e-07 0.076251)
(-6.20082e-06 -1.14611e-07 0.0894168)
(-3.46738e-06 -3.07686e-07 0.0780069)
(8.50471e-06 -1.54613e-07 0.0910188)
(-4.11406e-06 -3.42738e-07 0.0762168)
(8.46019e-06 8.06986e-08 0.0894573)
(3.71542e-06 -1.76387e-07 0.0780374)
(-3.45971e-06 -1.42094e-06 0.0677573)
(-6.36897e-06 -1.37575e-07 0.0815678)
(7.37367e-06 -1.87492e-06 0.0852598)
(-4.64243e-06 -7.62389e-07 0.0852139)
(2.69892e-06 -5.3434e-07 0.0678043)
(3.01377e-06 7.00593e-07 0.067803)
(-4.50072e-06 -4.6066e-07 0.0852141)
(7.78551e-06 -9.53423e-07 0.081611)
(-3.14333e-06 -4.05073e-07 0.0677558)
(7.6856e-06 -1.17506e-06 0.0852608)
(-4.16455e-06 -9.54784e-07 0.0762181)
(-5.82235e-06 2.45783e-08 0.090979)
(8.56656e-06 -7.30372e-08 0.0894545)
(3.68532e-06 -7.02118e-07 0.0780379)
(-5.85787e-06 3.09425e-07 0.0894141)
(-3.47994e-06 -6.53185e-07 0.0780075)
(3.27559e-06 -1.717e-07 0.076252)
(3.28407e-06 1.52494e-07 0.07625)
(-3.54115e-06 1.18154e-06 0.0780067)
(-6.47646e-06 1.1809e-06 0.0894166)
(8.412e-06 1.07565e-06 0.0910187)
(-4.22682e-06 1.70051e-06 0.0762163)
(3.65194e-06 7.91882e-07 0.0780371)
(7.97023e-06 1.42746e-06 0.0894566)
(-3.30554e-06 1.08781e-06 0.0677598)
(-6.40941e-06 -2.60451e-07 0.0815667)
(7.52458e-06 1.734e-06 0.0852593)
(-4.77152e-06 1.30872e-06 0.0852132)
(3.07523e-06 -7.57458e-07 0.0678067)
(2.94642e-06 -1.03165e-07 0.0678051)
(-4.95885e-06 1.65454e-06 0.0852137)
(7.4936e-06 2.01995e-06 0.0816083)
(-3.40357e-06 1.67895e-06 0.0677579)
(7.34813e-06 2.20792e-06 0.0852596)
(-4.17887e-06 1.20837e-06 0.0762169)
(-5.96651e-06 1.16538e-06 0.0909787)
(3.68787e-06 2.34558e-07 0.0780374)
(8.07249e-06 1.24394e-06 0.0894535)
(-3.5162e-06 7.94424e-07 0.078007)
(-6.42116e-06 1.24111e-06 0.0894133)
(3.36837e-06 -4.54018e-07 0.0762506)
(2.45408e-06 -4.39752e-06 0.0708641)
(5.89299e-06 -5.49292e-06 0.0912551)
(-1.36118e-05 1.50813e-06 0.0961108)
(1.67376e-06 -5.74432e-06 0.0869816)
(-4.01016e-06 4.19576e-06 0.080983)
(1.14001e-05 -1.19346e-05 0.0960655)
(2.40092e-06 -1.39854e-06 0.0809468)
(-1.10181e-05 2.7871e-06 0.0912906)
(5.35695e-06 -6.04595e-06 0.0912624)
(-1.69591e-06 1.35222e-05 0.0961137)
(5.64812e-06 -1.7648e-06 0.086985)
(-4.16405e-06 3.96416e-06 0.0809886)
(1.35692e-06 -2.42963e-06 0.0809529)
(1.16857e-05 -1.15765e-05 0.0960693)
(-2.80348e-06 1.09035e-05 0.0912976)
(2.24037e-06 -2.31048e-06 0.08306)
(-1.25346e-06 3.76954e-06 0.0678023)
(-3.81022e-06 1.24475e-06 0.0678084)
(1.44832e-06 -1.02449e-06 0.0677641)
(9.76904e-07 -1.47079e-06 0.0677703)
(-2.71355e-06 2.66941e-06 0.0830899)
(4.33909e-06 -2.61259e-06 0.0708681)
(1.08252e-06 3.41082e-06 0.0762498)
(-6.951e-07 -6.50965e-06 0.0894164)
(-3.19752e-07 -3.5577e-06 0.0780077)
(-4.9064e-07 8.35042e-06 0.091018)
(-4.27217e-07 -4.11513e-06 0.0762161)
(-3.37302e-07 8.17116e-06 0.0894567)
(-2.72081e-08 3.75592e-06 0.078036)
(-4.68276e-07 -3.18093e-06 0.06776)
(1.4335e-06 -6.07482e-06 0.0815681)
(-1.15935e-06 7.72559e-06 0.08526)
(-2.58676e-07 -4.44777e-06 0.0852148)
(5.84845e-07 2.9773e-06 0.0678064)
(1.30785e-06 3.21774e-06 0.0678049)
(-9.51852e-07 7.73744e-06 0.0852602)
(-3.04554e-07 -4.11317e-06 0.0762174)
(-2.17348e-07 -6.00898e-06 0.0909783)
(2.11902e-07 8.55415e-06 0.0894539)
(-2.57952e-07 3.76381e-06 0.0780367)
(2.01894e-07 -6.0518e-06 0.0894136)
(-3.33626e-07 -3.52874e-06 0.0780083)
(7.55602e-07 3.38259e-06 0.0762511)
(1.20237e-07 3.22356e-06 0.0762518)
(8.51515e-07 -6.40007e-06 0.0894152)
(1.05254e-06 -3.61011e-06 0.0780076)
(6.92258e-07 8.35178e-06 0.0910181)
(1.5516e-06 -4.17894e-06 0.0762151)
(1.08935e-06 7.97682e-06 0.0894571)
(8.31635e-07 3.67696e-06 0.0780363)
(1.27845e-06 -3.29726e-06 0.0677551)
(-2.11299e-07 -6.43201e-06 0.0815661)
(1.78617e-06 7.42775e-06 0.0852593)
(1.27438e-06 -4.75685e-06 0.085211)
(-5.23316e-07 2.90569e-06 0.0678068)
(-1.12924e-07 2.82356e-06 0.0678053)
(1.45738e-06 -4.87087e-06 0.0852117)
(2.02071e-06 7.49542e-06 0.0816084)
(1.62263e-06 -3.34677e-06 0.0677534)
(2.05048e-06 7.33427e-06 0.0852597)
(1.31688e-06 -4.17791e-06 0.0762158)
(9.2144e-07 -6.07151e-06 0.0909781)
(1.10523e-06 8.03477e-06 0.089454)
(6.41267e-07 3.70427e-06 0.0780367)
(1.01758e-06 -6.37363e-06 0.0894118)
(1.02405e-06 -3.59701e-06 0.078008)
(-2.18633e-07 3.26606e-06 0.0762526)
(3.35453e-06 3.39828e-06 0.0830962)
(-1.48846e-06 -2.27688e-06 0.067776)
(-2.29162e-06 -1.48608e-06 0.0677702)
(-2.58858e-06 -2.52646e-06 0.0830651)
(1.78176e-06 1.53955e-06 0.0678104)
(1.54978e-06 1.76562e-06 0.0678044)
(-7.51275e-06 -3.97215e-06 0.0912606)
(1.19134e-05 4.22268e-06 0.0961094)
(-3.60546e-06 -5.0127e-06 0.0869827)
(4.21455e-06 5.98142e-07 0.0809889)
(-1.3282e-05 -9.73895e-06 0.0960648)
(-3.22964e-06 -3.36473e-06 0.0809538)
(1.02458e-05 3.79634e-06 0.0912978)
(-4.04942e-06 -7.41865e-06 0.0912538)
(4.12807e-06 1.19496e-05 0.0961065)
(-5.04368e-06 -3.60385e-06 0.0869811)
(6.65973e-07 4.24508e-06 0.0809836)
(-9.87583e-06 -1.32111e-05 0.0960616)
(-3.36766e-06 -3.22762e-06 0.0809494)
(3.77491e-06 1.03409e-05 0.0912908)
(9.69484e-06 4.08865e-06 0.0913)
(-3.66993e-06 -2.57776e-06 0.0809538)
(-1.36153e-05 -1.01812e-05 0.0960709)
(3.80343e-06 3.29662e-06 0.0870214)
(-7.91841e-06 -3.84448e-06 0.0912628)
(1.14532e-05 4.11172e-06 0.0961152)
(3.59775e-06 1.07373e-06 0.0809891)
(4.0322e-06 9.81419e-06 0.091293)
(-2.62626e-06 -3.64199e-06 0.0809494)
(-1.0334e-05 -1.35048e-05 0.0960677)
(3.22047e-06 3.82648e-06 0.0870193)
(-3.95208e-06 -7.80218e-06 0.0912559)
(3.98814e-06 1.15252e-05 0.0961123)
(1.08095e-06 3.65996e-06 0.0809837)
(-2.1759e-06 -2.14954e-06 0.0830649)
(2.13028e-06 1.38245e-06 0.0678086)
(1.46013e-06 2.05276e-06 0.0678026)
(-1.16418e-06 -2.65324e-06 0.0677744)
(-2.61956e-06 -1.20844e-06 0.0677686)
(3.62015e-06 3.61951e-06 0.0830953)
(-2.12038e-06 -4.07984e-06 0.07087)
(4.05181e-06 4.53861e-07 0.0709091)
(-4.00171e-06 -2.14947e-06 0.0708696)
(4.72519e-07 4.04337e-06 0.0709085)
(1.07199e-05 1.07025e-05 0.0974118)
(4.85234e-05 4.87237e-05 0.104734)
(-4.35896e-05 -1.16781e-05 0.101711)
(-1.17465e-05 -4.33447e-05 0.101716)
(4.50666e-05 1.48412e-05 0.101634)
(1.47032e-05 4.52463e-05 0.101626)
(-1.32306e-05 -1.34732e-05 0.0974704)
(-1.30154e-05 1.27183e-05 0.0974121)
(-4.90374e-05 4.86993e-05 0.104734)
(3.92193e-05 -1.06649e-05 0.101711)
(1.03974e-05 -3.95044e-05 0.101715)
(-4.76267e-05 1.47437e-05 0.101629)
(-1.50338e-05 4.73286e-05 0.101633)
(1.02699e-05 -1.05037e-05 0.0974674)
(1.12121e-05 -1.14934e-05 0.0974171)
(4.7166e-05 -4.75686e-05 0.104735)
(-1.19108e-05 4.10473e-05 0.101715)
(-4.1335e-05 1.17321e-05 0.101718)
(1.34936e-05 -4.5532e-05 0.101632)
(4.5198e-05 -1.38192e-05 0.101636)
(-1.15532e-05 1.14133e-05 0.0974725)
(-1.09383e-05 -1.07933e-05 0.0974113)
(-4.84882e-05 -4.82668e-05 0.104733)
(1.20046e-05 4.3027e-05 0.101713)
(4.27839e-05 1.21401e-05 0.10171)
(-1.43379e-05 -4.52365e-05 0.101631)
(-4.54094e-05 -1.4179e-05 0.101628)
(1.29224e-05 1.30503e-05 0.0974684)
(1.10912e-05 3.35912e-05 0.11503)
(3.32153e-05 1.16449e-05 0.115031)
(1.14664e-05 3.40139e-05 0.115004)
(1.27545e-05 1.304e-05 0.116345)
(1.24896e-05 1.29341e-05 0.116393)
(-2.47026e-05 2.445e-05 0.11314)
(-1.16417e-05 3.35779e-05 0.11503)
(-3.38265e-05 1.13042e-05 0.115031)
(-1.13506e-05 3.38425e-05 0.115004)
(-3.40467e-05 1.10764e-05 0.115005)
(-1.30356e-05 1.28542e-05 0.116345)
(-1.31386e-05 1.2863e-05 0.116393)
(3.30088e-05 -1.07204e-05 0.115029)
(1.03854e-05 -3.3283e-05 0.11503)
(1.05697e-05 -3.37534e-05 0.115004)
(1.25375e-05 -1.27254e-05 0.116345)
(1.23427e-05 -1.26301e-05 0.116392)
(-2.58228e-05 -2.55728e-05 0.113141)
(-3.38477e-05 -1.14334e-05 0.11503)
(-1.19834e-05 -3.34966e-05 0.11503)
(-3.42399e-05 -1.18268e-05 0.115004)
(-1.21755e-05 -3.4031e-05 0.115005)
(-1.32557e-05 -1.29633e-05 0.116345)
(-1.32378e-05 -1.27843e-05 0.116392)
(2.74014e-06 -4.5308e-05 0.103353)
(3.85477e-07 1.7063e-05 0.0974781)
(4.82587e-07 6.03577e-05 0.103947)
(-3.2348e-07 -9.46681e-06 0.0986022)
(2.80944e-06 5.98841e-05 0.103198)
(-4.0701e-07 -9.66227e-06 0.0975479)
(9.43459e-07 -4.36092e-05 0.104074)
(4.07049e-06 5.88331e-05 0.101528)
(-1.59126e-06 -4.30294e-05 0.0996019)
(1.80987e-06 1.56363e-05 0.0926106)
(-2.62244e-06 -1.06557e-05 0.0954425)
(5.90613e-06 5.57369e-05 0.099534)
(-5.58604e-08 1.50659e-05 0.0953732)
(8.37364e-07 -4.74458e-05 0.10166)
(2.37153e-06 5.96167e-05 0.103185)
(-5.63806e-07 1.66729e-05 0.0985309)
(-1.13071e-06 -9.56224e-06 0.097538)
(4.31747e-07 -4.37025e-05 0.10406)
(-2.06136e-07 1.70541e-05 0.0974685)
(2.08508e-07 5.97988e-05 0.103933)
(2.06094e-06 -4.5142e-05 0.103339)
(-2.65858e-06 -4.56837e-05 0.103351)
(-1.94582e-07 1.70076e-05 0.0974763)
(-4.90183e-08 6.03565e-05 0.103946)
(3.31141e-07 -9.53148e-06 0.0986018)
(-2.31251e-06 5.98677e-05 0.103196)
(-8.37916e-09 -1.01086e-05 0.097547)
(-7.14747e-07 -4.36994e-05 0.104074)
(-5.30679e-06 5.75734e-05 0.101526)
(-2.05299e-06 -4.56768e-05 0.0996035)
(-4.2163e-06 1.25721e-05 0.0926125)
(7.62417e-07 -1.2054e-05 0.0954439)
(-1.51053e-06 1.3782e-05 0.095373)
(-8.65382e-06 5.31082e-05 0.0995321)
(-3.15831e-06 -4.89755e-05 0.10166)
(-1.99829e-06 -4.85981e-05 0.101672)
(-8.76092e-07 1.43672e-05 0.0953788)
(-6.95807e-06 5.42006e-05 0.0995402)
(2.51941e-06 -8.95499e-06 0.0926711)
(-4.14326e-06 5.85106e-05 0.101537)
(1.12753e-06 -1.18518e-05 0.0954501)
(-9.04589e-07 -4.55563e-05 0.0996121)
(-2.91333e-06 5.89061e-05 0.103183)
(-3.894e-08 1.65284e-05 0.0985305)
(-6.48834e-07 -1.05773e-05 0.0975383)
(-1.33285e-06 -4.39759e-05 0.10406)
(-9.22434e-07 1.62959e-05 0.0974678)
(-4.35211e-07 5.96123e-05 0.103932)
(-3.38503e-06 -4.61008e-05 0.103339)
(1.16229e-05 -1.18725e-05 0.0974783)
(4.32988e-05 -4.35856e-05 0.104909)
(-4.51131e-05 1.36834e-05 0.10164)
(-1.39174e-05 4.47762e-05 0.101644)
(4.17164e-05 -1.19223e-05 0.101724)
(-1.11322e-05 1.08341e-05 0.0974213)
(1.16976e-05 -4.20553e-05 0.101727)
(5.8713e-05 4.46927e-06 0.101527)
(-4.32524e-05 -1.27564e-06 0.0996042)
(1.53249e-05 2.01452e-06 0.0926098)
(-1.06821e-05 -2.42401e-06 0.0954422)
(5.55094e-05 6.27192e-06 0.0995318)
(1.50385e-05 2.1534e-07 0.0953722)
(-4.75234e-05 1.29545e-06 0.101661)
(5.95637e-05 2.73865e-06 0.103184)
(1.67547e-05 -1.53423e-07 0.09853)
(-9.70281e-06 -7.99812e-07 0.0975374)
(-4.36774e-05 9.80983e-07 0.104059)
(1.69645e-05 1.34466e-07 0.0974676)
(5.98641e-05 7.2453e-07 0.103932)
(-4.5225e-05 2.46143e-06 0.103339)
(5.79257e-05 -4.09265e-06 0.101526)
(-4.60264e-05 -1.11892e-06 0.0996047)
(1.25804e-05 -4.44581e-06 0.092612)
(-1.22011e-05 9.17905e-07 0.095444)
(1.39918e-05 -1.09268e-06 0.0953731)
(5.33516e-05 -7.2271e-06 0.099533)
(-4.89261e-05 -2.06032e-06 0.10166)
(5.92597e-05 -1.98534e-06 0.103183)
(1.67141e-05 4.66526e-07 0.0985299)
(-4.38646e-05 -5.93371e-07 0.104058)
(-1.03983e-05 -2.16073e-07 0.0975377)
(5.98139e-05 2.99985e-07 0.103932)
(1.66844e-05 -2.90101e-07 0.0974676)
(-4.59408e-05 -2.55883e-06 0.103338)
(4.55073e-05 2.16701e-06 0.103353)
(-1.70967e-05 -2.10413e-07 0.0974766)
(-6.05013e-05 -4.24574e-07 0.103947)
(9.47181e-06 -5.52859e-07 0.0986018)
(-6.00754e-05 1.7266e-06 0.103197)
(1.00298e-05 -3.15992e-07 0.0975477)
(4.35893e-05 3.01699e-07 0.104074)
(-5.7635e-05 4.95358e-06 0.101528)
(4.5538e-05 1.86461e-06 0.099606)
(-1.25986e-05 4.11626e-06 0.0926139)
(1.21158e-05 -8.79029e-07 0.0954455)
(-5.32015e-05 8.42056e-06 0.0995352)
(-1.37529e-05 1.32969e-06 0.0953739)
(4.89734e-05 2.87359e-06 0.101662)
(4.84493e-05 1.52945e-06 0.101674)
(-1.44869e-05 4.94653e-07 0.0953796)
(-5.42824e-05 6.56037e-06 0.0995434)
(8.87144e-06 -2.64612e-06 0.0926731)
(-5.87184e-05 3.62802e-06 0.101539)
(4.543e-05 5.44811e-07 0.0996147)
(1.18009e-05 -1.3899e-06 0.0954516)
(-5.90214e-05 2.49847e-06 0.103184)
(-1.6558e-05 -1.637e-07 0.0985306)
(1.05695e-05 4.03896e-07 0.0975391)
(4.3985e-05 1.00005e-06 0.10406)
(-1.63201e-05 6.41925e-07 0.097468)
(-5.96799e-05 7.57311e-08 0.103933)
(4.60559e-05 3.05082e-06 0.10334)
(4.52606e-05 -2.93233e-06 0.103352)
(-6.04735e-05 -9.62067e-07 0.103947)
(-1.71192e-05 -2.90442e-07 0.0974773)
(9.41821e-06 2.17899e-07 0.0986017)
(-6.0055e-05 -3.08893e-06 0.103198)
(4.35366e-05 -1.28931e-06 0.104074)
(9.65588e-06 5.01648e-07 0.0975472)
(-5.83415e-05 -4.17269e-06 0.101527)
(4.42467e-05 9.51107e-07 0.0996027)
(-1.47236e-05 -2.62825e-06 0.092611)
(1.12475e-05 2.17494e-06 0.095443)
(-1.46629e-05 -1.78174e-07 0.0953727)
(-5.48288e-05 -6.20552e-06 0.0995328)
(4.81856e-05 -1.17404e-06 0.10166)
(4.80177e-05 -1.80406e-06 0.101673)
(-1.48186e-05 -4.09781e-07 0.09538)
(-5.5265e-05 -6.90367e-06 0.0995425)
(6.67528e-06 4.5588e-06 0.0926693)
(-5.88419e-05 -4.87804e-06 0.10154)
(1.10647e-05 2.1121e-06 0.0954502)
(4.39923e-05 4.79561e-07 0.0996124)
(-5.94998e-05 -2.51795e-06 0.103185)
(-1.66815e-05 4.60203e-07 0.0985307)
(4.38226e-05 -6.72313e-07 0.104059)
(9.80546e-06 8.71411e-07 0.0975377)
(-5.97907e-05 -4.606e-07 0.103933)
(-1.69707e-05 1.754e-07 0.0974678)
(4.54634e-05 -2.28642e-06 0.103339)
(1.30265e-06 4.50603e-05 0.103352)
(-8.53485e-07 -6.07573e-05 0.103946)
(-7.77311e-07 -1.75501e-05 0.0974763)
(-1.00194e-06 9.24864e-06 0.0986013)
(1.07077e-06 -6.05161e-05 0.103196)
(-2.81061e-07 4.33223e-05 0.104073)
(-9.75922e-07 9.56064e-06 0.0975472)
(3.73192e-06 -5.80617e-05 0.101527)
(8.75931e-07 4.59298e-05 0.0996068)
(4.33569e-06 -1.26804e-05 0.0926137)
(-1.13676e-06 1.21906e-05 0.0954449)
(7.01261e-06 -5.35136e-05 0.0995353)
(8.72707e-07 -1.40807e-05 0.0953739)
(1.74916e-06 4.88884e-05 0.101662)
(4.53103e-07 4.7862e-05 0.101673)
(-1.93134e-06 1.12633e-05 0.0954509)
(1.56269e-06 -5.9385e-05 0.103184)
(-6.59704e-07 -1.67587e-05 0.0985294)
(2.7519e-07 4.38521e-05 0.104059)
(-7.31742e-08 1.0395e-05 0.0975384)
(-5.89313e-07 -5.99018e-05 0.103932)
(1.41908e-08 -1.66941e-05 0.0974675)
(2.18173e-06 4.58961e-05 0.103339)
(-3.29823e-06 4.52463e-05 0.103352)
(-1.33888e-06 -6.05781e-05 0.103947)
(-5.98915e-07 -1.70528e-05 0.0974761)
(-2.08627e-07 9.32159e-06 0.0986014)
(-3.35761e-06 -6.00644e-05 0.103197)
(-1.77683e-06 4.34292e-05 0.104073)
(1.42096e-07 9.68831e-06 0.097547)
(-4.44043e-06 -5.82486e-05 0.101526)
(7.08633e-07 4.43307e-05 0.0996022)
(-2.81074e-06 -1.46482e-05 0.0926101)
(1.94928e-06 1.1242e-05 0.0954427)
(-4.50143e-07 -1.46545e-05 0.0953714)
(-6.46534e-06 -5.47334e-05 0.0995314)
(-1.46665e-06 4.82584e-05 0.10166)
(-2.1179e-06 4.81073e-05 0.101673)
(-6.93861e-07 -1.4779e-05 0.0953789)
(-7.14273e-06 -5.51411e-05 0.0995412)
(4.34891e-06 6.79576e-06 0.0926693)
(-5.10635e-06 -5.87267e-05 0.101539)
(1.81422e-06 1.10797e-05 0.0954499)
(2.11695e-07 4.4105e-05 0.0996119)
(-2.88851e-06 -5.94913e-05 0.103184)
(4.07131e-08 -1.67724e-05 0.0985294)
(-1.20922e-06 4.3762e-05 0.104058)
(5.26927e-07 9.85505e-06 0.0975374)
(-9.81548e-07 -5.98888e-05 0.103932)
(-1.75196e-07 -1.68886e-05 0.0974664)
(-2.70688e-06 4.54743e-05 0.103338)
(1.23938e-05 1.25347e-05 0.0974746)
(4.24572e-05 4.26815e-05 0.104908)
(-1.50992e-05 -4.64326e-05 0.101642)
(-4.65664e-05 -1.49414e-05 0.101639)
(-1.15923e-05 -1.14448e-05 0.0974177)
(1.12835e-05 4.22561e-05 0.101724)
(4.20208e-05 1.14292e-05 0.101721)
(5.2767e-05 5.2724e-05 0.108947)
(-9.47078e-05 3.7259e-05 0.10795)
(3.29265e-05 -9.03289e-05 0.107958)
(-0.000129942 -0.000127327 0.106616)
(-2.30307e-05 -2.60819e-05 0.106733)
(4.17711e-05 8.84066e-05 0.107931)
(-7.37687e-05 9.92505e-05 0.107903)
(-7.67797e-06 2.02795e-06 0.106587)
(9.18446e-05 4.07458e-05 0.107933)
(8.92023e-05 -4.71461e-05 0.107914)
(-0.000104765 6.92776e-05 0.107904)
(-8.99173e-05 -2.11786e-05 0.107924)
(-2.03829e-05 1.7998e-05 0.106637)
(4.51917e-05 -9.2948e-05 0.107914)
(-2.44534e-05 -8.91628e-05 0.107926)
(4.80055e-05 5.07521e-05 0.106752)
(0.000140075 0.000137169 0.106588)
(9.185e-07 2.76487e-06 0.106844)
(4.0858e-05 8.87498e-05 0.107981)
(-4.43174e-05 8.79459e-05 0.107947)
(6.61878e-05 9.82274e-05 0.108117)
(-1.50036e-05 8.25346e-05 0.108092)
(-0.000149565 0.000142089 0.106432)
(5.60887e-05 -5.67712e-05 0.106793)
(9.12454e-05 4.05368e-05 0.107981)
(8.60456e-05 -3.8454e-05 0.107957)
(9.55327e-05 6.6676e-05 0.108116)
(8.49445e-05 -3.42252e-05 0.108105)
(-0.000100284 -4.72446e-05 0.107975)
(-8.25393e-05 1.25792e-05 0.108093)
(-0.000104103 -8.94489e-05 0.108118)
(0.000128854 -0.000133263 0.106492)
(-2.98651e-05 2.87216e-05 0.106804)
(-5.00129e-05 -9.84574e-05 0.107976)
(3.1738e-05 -8.60816e-05 0.108104)
(-8.98999e-05 -0.000100923 0.10812)
(-2.59354e-05 -2.41466e-05 0.106814)
(5.38054e-05 5.39817e-05 0.108876)
(-7.15267e-05 6.79457e-05 0.108876)
(5.70868e-05 -5.91136e-05 0.108873)
(-4.66501e-05 -4.35083e-05 0.108865)
(9.52523e-06 2.46373e-05 0.0940162)
(1.19287e-06 2.111e-05 0.083581)
(7.36564e-06 4.7082e-05 0.0941014)
(9.67421e-06 -5.65237e-06 0.0835612)
(7.24079e-06 1.03533e-06 0.072157)
(-1.88439e-05 -1.99984e-05 0.0721651)
(2.491e-05 2.86861e-06 0.0940141)
(1.64648e-05 6.33075e-06 0.0835901)
(4.72269e-05 3.61557e-06 0.0940756)
(-2.51186e-06 8.49335e-06 0.0835689)
(-6.01119e-05 5.41751e-05 0.108948)
(4.92852e-05 -5.37328e-05 0.108942)
(-5.49944e-05 -5.2506e-05 0.108938)
(6.01146e-05 6.10175e-05 0.109159)
(-3.97669e-05 3.73793e-05 0.109152)
(4.62686e-05 -4.91719e-05 0.109159)
(-7.30816e-05 -7.22534e-05 0.109166)
(-6.7223e-05 -9.55408e-06 0.102446)
(-9.37536e-05 8.65061e-06 0.095716)
(-0.000105426 1.562e-05 0.108641)
(-8.53727e-05 1.14232e-05 0.107996)
(-0.000114525 1.14499e-05 0.102465)
(-6.31954e-05 7.27446e-06 0.0956853)
(-0.00010272 -2.64104e-06 0.1087)
(4.36869e-06 -6.72896e-06 0.072159)
(-9.2904e-06 -3.74647e-06 0.0721572)
(-9.95462e-06 -6.3941e-05 0.10245)
(7.98373e-06 -0.000100831 0.108634)
(1.39953e-05 -8.66293e-05 0.0957124)
(3.17502e-05 -9.04868e-05 0.108001)
(-1.67353e-06 -0.000112442 0.102451)
(-4.43311e-07 -9.96572e-05 0.108694)
(9.92338e-06 -4.09568e-05 0.0957084)
(2.16927e-06 -4.0377e-05 0.0894551)
(-4.41231e-05 5.06345e-06 0.0894518)
(-1.98139e-05 -1.79951e-05 0.106838)
(-1.37309e-05 1.36426e-05 0.0893692)
(1.39146e-05 -1.3728e-05 0.0893627)
(3.01925e-06 -7.97514e-06 0.0722627)
(-3.95809e-07 6.75286e-06 0.0722557)
(-1.08804e-05 7.3909e-06 0.0722625)
(5.90396e-07 6.08177e-06 0.0722582)
(0.000146584 0.000147397 0.106528)
(1.41284e-05 2.94493e-05 0.0895042)
(2.4761e-05 1.70712e-05 0.0895004)
(1.93707e-05 4.16487e-05 0.0895467)
(3.98683e-05 1.99833e-05 0.0895529)
(-4.12152e-06 4.82625e-05 0.0942521)
(-6.03554e-06 4.50452e-06 0.0836795)
(-8.3041e-06 2.47396e-05 0.0837248)
(5.51106e-06 2.53131e-05 0.0942066)
(-9.92413e-06 4.7916e-05 0.0942502)
(2.87649e-05 1.01587e-05 0.0836875)
(1.70322e-05 2.64003e-05 0.0837435)
(6.3548e-07 2.55747e-05 0.0942046)
(-8.26291e-06 0.000109292 0.102571)
(4.65612e-05 9.27103e-05 0.10788)
(1.1487e-05 4.59668e-05 0.0958688)
(6.81058e-06 9.62849e-05 0.10858)
(2.29591e-05 7.60804e-05 0.0958781)
(4.82315e-06 9.93987e-05 0.108514)
(-2.7586e-06 6.22387e-05 0.102606)
(-1.86311e-05 0.000109566 0.102577)
(-9.31362e-05 0.000110041 0.107859)
(-2.01633e-06 5.67077e-05 0.0958691)
(-3.22737e-05 9.95353e-05 0.108581)
(-2.11986e-05 5.76789e-05 0.0959052)
(-3.77803e-05 0.00010431 0.108514)
(-1.31225e-05 6.3211e-05 0.102604)
(2.1241e-05 -9.03291e-07 0.0722388)
(1.83676e-05 2.08109e-05 0.0722658)
(-0.000194182 0.000198693 0.106457)
(3.06829e-06 6.27384e-05 0.0895011)
(-6.14187e-05 -4.39613e-06 0.0895051)
(1.58678e-06 4.52959e-05 0.089582)
(-4.79807e-05 -6.41951e-06 0.0895909)
(4.21659e-06 -1.86543e-05 0.0722425)
(-1.78259e-05 -1.74214e-05 0.0722632)
(5.15125e-05 6.79968e-06 0.0942495)
(-3.65172e-06 1.62011e-06 0.0836849)
(1.77801e-05 4.15688e-07 0.083721)
(2.73118e-05 5.20308e-06 0.0941777)
(0.000113548 3.52089e-06 0.102592)
(9.52561e-05 4.64396e-05 0.107881)
(4.16719e-05 1.41405e-05 0.0958655)
(9.93209e-05 1.53946e-05 0.10858)
(7.51145e-05 1.49041e-05 0.0958857)
(0.000102452 1.27712e-05 0.108514)
(6.86114e-05 1.48599e-05 0.102591)
(4.98752e-05 4.76425e-06 0.0942448)
(1.18531e-05 1.92191e-05 0.0836811)
(2.20372e-05 1.77307e-05 0.0837378)
(2.48213e-05 8.56927e-07 0.0941921)
(0.000112771 -4.53284e-06 0.102574)
(9.93018e-05 -6.25979e-05 0.107864)
(9.63721e-05 -1.63151e-05 0.108579)
(5.80647e-05 -6.7726e-06 0.0958586)
(0.000102408 -2.32672e-05 0.108515)
(7.0672e-05 -2.68297e-05 0.0958892)
(6.44968e-05 6.33642e-06 0.102591)
(-0.000109877 2.21851e-05 0.102621)
(-0.000111009 9.47206e-05 0.107859)
(-5.58294e-05 -5.43405e-06 0.0958759)
(-0.000106698 3.42611e-05 0.108577)
(-6.12843e-05 7.61883e-06 0.0959137)
(-0.000105792 4.47506e-05 0.108509)
(-7.3848e-05 1.79247e-05 0.102617)