/*--------------------------------*- C++ -*----------------------------------*\
| =========                 |                                                 |
| \\      /  F ield         | OpenFOAM: The Open Source CFD Toolbox           |
|  \\    /   O peration     | Version:  v1906                                 |
|   \\  /    A nd           | Web:      www.OpenFOAM.com                      |
|    \\/     M anipulation  |                                                 |
\*---------------------------------------------------------------------------*/
FoamFile
{
    version     2.0;
    format      ascii;
    class       volVectorField;
    location    "500";
    object      U;
}
// * * * * * * * * * * * * * * * * * * * * * * * * * * * * * * * * * * * * * //

dimensions      [0 1 -1 0 0 0 0];


internalField   nonuniform List<vector> 
42840
(
(2.29918e-05 2.28408e-05 0.113168)
(-1.3797e-05 6.89333e-06 0.108213)
(5.30529e-06 -1.35948e-05 0.108213)
(-4.6871e-05 -4.71239e-05 0.104664)
(2.0139e-05 1.98294e-05 0.113176)
(-1.20135e-05 8.24698e-06 0.108163)
(1.18987e-05 -1.32502e-05 0.10816)
(-4.24549e-05 -4.25636e-05 0.104619)
(1.67377e-05 1.72671e-05 0.113178)
(-1.01841e-05 7.19361e-06 0.10811)
(3.40374e-06 -9.10704e-06 0.108108)
(-4.3073e-05 -4.27041e-05 0.104571)
(1.52849e-05 1.51766e-05 0.113177)
(-8.33935e-06 2.50749e-06 0.10806)
(5.23819e-06 -8.79474e-06 0.108062)
(-4.2198e-05 -4.2317e-05 0.104519)
(1.535e-05 1.53191e-05 0.113166)
(-5.29212e-06 8.07553e-06 0.108018)
(4.76556e-06 -4.68821e-06 0.108014)
(-3.86368e-05 -3.87175e-05 0.104489)
(9.27757e-06 9.33773e-06 0.113152)
(-4.60689e-06 1.04953e-06 0.107968)
(3.16545e-06 -4.79626e-06 0.10797)
(-3.92307e-05 -3.91942e-05 0.104447)
(1.18339e-05 1.0653e-05 0.113136)
(-1.88827e-06 1.85647e-06 0.107928)
(5.83436e-06 -3.53514e-06 0.107922)
(-3.53323e-05 -3.63154e-05 0.104415)
(4.82395e-06 6.04751e-06 0.113114)
(-2.13593e-06 3.07272e-06 0.107889)
(-6.67474e-06 5.45437e-07 0.107886)
(-3.73625e-05 -3.61349e-05 0.104385)
(8.75249e-06 9.29257e-06 0.113086)
(2.5325e-06 1.33902e-06 0.10785)
(1.02817e-05 8.37524e-07 0.107856)
(-3.62139e-05 -3.57952e-05 0.104353)
(2.65555e-06 2.61759e-06 0.113059)
(-2.17225e-07 -1.21885e-06 0.107811)
(-1.0225e-05 1.95232e-06 0.107813)
(-3.47431e-05 -3.52947e-05 0.104325)
(2.38752e-06 1.17139e-06 0.11303)
(5.54456e-06 2.17195e-06 0.10778)
(1.67588e-05 2.23917e-06 0.107778)
(-2.96584e-05 -3.03318e-05 0.104313)
(-1.08578e-06 -6.44865e-07 0.113005)
(1.67089e-06 -1.09133e-05 0.107753)
(-2.7798e-05 5.08682e-06 0.107746)
(-3.6941e-05 -3.70198e-05 0.104269)
(8.53424e-06 8.97113e-06 0.112957)
(1.17191e-05 1.93995e-05 0.107724)
(3.3367e-05 8.69529e-06 0.107727)
(-2.20102e-05 -2.05708e-05 0.104304)
(-2.37804e-05 -2.34735e-05 0.11294)
(-5.78381e-06 -2.94203e-05 0.107678)
(-3.65208e-05 -1.94278e-06 0.107676)
(-4.39157e-05 -4.48193e-05 0.104223)
(3.56765e-05 3.47632e-05 0.112887)
(2.62866e-05 1.95034e-05 0.107687)
(1.62969e-05 1.80533e-05 0.107683)
(-2.09536e-05 -2.07778e-05 0.104239)
(-6.17661e-05 -5.82866e-05 0.112861)
(-1.72717e-05 -1.845e-05 0.107628)
(-4.34403e-07 -2.52455e-06 0.107651)
(-3.47103e-05 -3.29019e-05 0.104221)
(6.69925e-05 4.53517e-05 0.112821)
(4.03718e-05 1.07255e-05 0.107634)
(1.4783e-05 -2.58149e-06 0.107556)
(-1.09233e-05 -2.67431e-05 0.104257)
(-7.66016e-05 -2.77615e-05 0.11278)
(-3.15718e-05 -3.48099e-06 0.107575)
(-7.77745e-05 5.12682e-05 0.107676)
(-7.54263e-05 -3.31394e-05 0.104211)
(3.52838e-05 -3.20474e-05 0.112746)
(5.13867e-05 -7.90703e-05 0.107627)
(0.000103206 -5.90492e-05 0.107558)
(2.91382e-06 -5.9443e-05 0.104045)
(-1.69164e-05 4.07829e-05 0.112722)
(-1.06358e-05 0.000140457 0.107575)
(-0.000121412 8.63925e-05 0.107518)
(-1.12235e-06 5.64654e-05 0.104381)
(-2.49608e-05 -2.61436e-05 0.112624)
(7.77412e-06 -0.000118057 0.107439)
(9.90572e-05 -2.54139e-05 0.107635)
(-0.000103607 -0.000108933 0.10422)
(2.53416e-05 -3.36952e-05 0.112653)
(2.22184e-05 -3.15211e-06 0.107638)
(-7.76925e-05 -1.07722e-05 0.107442)
(3.75972e-05 -1.62135e-05 0.104029)
(-4.05756e-05 1.90974e-05 0.112593)
(3.84567e-06 5.17171e-05 0.107524)
(1.29827e-05 5.75784e-05 0.107563)
(-5.2222e-05 1.55761e-05 0.104295)
(-4.38193e-06 -2.13516e-05 0.112547)
(1.30463e-05 -3.42802e-05 0.107468)
(1.87066e-05 -1.64236e-05 0.107535)
(-2.84419e-05 -5.87312e-05 0.104252)
(-2.00676e-06 -1.01912e-05 0.112526)
(7.74463e-06 -1.14069e-05 0.10751)
(-3.80561e-05 1.30879e-05 0.107477)
(-2.8927e-05 -3.19259e-05 0.104128)
(-1.30267e-05 -6.42641e-06 0.112475)
(1.59344e-05 8.47663e-07 0.107493)
(1.24757e-05 1.88813e-05 0.107503)
(-1.70186e-05 -9.95585e-06 0.104188)
(-4.16882e-05 -4.19294e-05 0.104841)
(1.06223e-05 1.45827e-05 0.108227)
(-6.96887e-06 1.46781e-05 0.108223)
(4.58087e-05 -4.57683e-05 0.104835)
(1.47382e-05 1.02954e-05 0.108229)
(1.52876e-05 -7.76295e-06 0.108222)
(-1.45755e-05 6.75833e-06 0.108226)
(-1.5485e-05 -1.0697e-05 0.108224)
(-4.50102e-05 4.4988e-05 0.104833)
(7.57525e-06 -1.52584e-05 0.108226)
(-1.03748e-05 -1.56216e-05 0.108226)
(4.23931e-05 4.21355e-05 0.104834)
(4.8989e-05 4.87431e-05 0.104669)
(-4.5012e-05 -4.51149e-05 0.104776)
(1.28253e-05 1.4995e-05 0.108213)
(-6.66512e-06 1.39388e-05 0.10821)
(7.37239e-06 1.30844e-05 0.10817)
(-7.89148e-06 1.29788e-05 0.108173)
(-4.35959e-05 4.37093e-05 0.104666)
(4.30956e-05 -4.24275e-05 0.104786)
(1.51669e-05 1.26297e-05 0.108215)
(1.36557e-05 -5.05423e-06 0.108209)
(1.30433e-05 6.98676e-06 0.108171)
(1.36048e-05 -1.10035e-05 0.108171)
(-1.51368e-05 -9.97422e-06 0.10821)
(-1.24435e-05 8.82422e-06 0.108176)
(-1.17594e-05 -5.37072e-06 0.108171)
(4.34966e-05 -4.3482e-05 0.104664)
(-3.96573e-05 4.04315e-05 0.104783)
(-9.78367e-06 -1.53016e-05 0.108212)
(1.19247e-05 -1.29993e-05 0.108174)
(-5.01085e-06 -1.16811e-05 0.108173)
(4.60191e-05 4.59403e-05 0.104784)
(4.21178e-05 4.19678e-05 0.10461)
(-4.34365e-05 -4.30524e-05 0.104733)
(5.80452e-06 1.2166e-05 0.108156)
(-7.67777e-06 1.25774e-05 0.10816)
(5.82375e-06 1.00912e-05 0.10812)
(-7.56513e-06 1.02396e-05 0.10812)
(-4.45699e-05 4.51188e-05 0.104619)
(4.30201e-05 -4.36066e-05 0.104732)
(1.21423e-05 5.34658e-06 0.108157)
(1.38714e-05 -1.13295e-05 0.108158)
(9.96901e-06 6.35808e-06 0.108121)
(9.38788e-06 -3.00686e-06 0.108118)
(-1.15621e-05 -6.48357e-06 0.108159)
(-1.0545e-05 6.90721e-06 0.108123)
(-1.0433e-05 -6.64052e-06 0.108123)
(4.85228e-05 -4.79167e-05 0.104616)
(-4.82156e-05 4.75352e-05 0.104731)
(-6.04614e-06 -1.14742e-05 0.108161)
(2.32853e-06 -9.83553e-06 0.108121)
(-7.13585e-06 -1.04082e-05 0.108124)
(4.32188e-05 4.34868e-05 0.104735)
(4.31529e-05 4.36449e-05 0.104571)
(-4.43812e-05 -4.4295e-05 0.104687)
(5.64382e-06 9.60052e-06 0.108109)
(-7.9669e-06 9.75016e-06 0.108107)
(5.38883e-06 9.14261e-06 0.108072)
(-6.19618e-06 9.44188e-06 0.108068)
(-4.38472e-05 4.31381e-05 0.104568)
(4.4167e-05 -4.4559e-05 0.104681)
(9.25682e-06 6.51296e-06 0.10811)
(8.53319e-06 -4.20645e-06 0.108105)
(8.77103e-06 5.40385e-06 0.108074)
(9.19779e-06 -8.0444e-06 0.108072)
(-9.76496e-06 -6.38134e-06 0.10811)
(-9.60127e-06 5.40858e-06 0.108071)
(-9.91775e-06 -8.146e-06 0.108069)
(3.88158e-05 -3.96048e-05 0.10457)
(-4.21725e-05 4.19136e-05 0.104685)
(-7.20437e-06 -9.54853e-06 0.108111)
(7.25597e-06 -9.13777e-06 0.108075)
(-8.19958e-06 -9.53722e-06 0.10807)
(4.21148e-05 4.22558e-05 0.104678)
(4.0812e-05 4.06219e-05 0.104528)
(-4.16276e-05 -4.19493e-05 0.104643)
(3.79426e-06 7.82541e-06 0.108061)
(-3.21299e-06 8.19669e-06 0.108057)
(8.02728e-06 6.39764e-06 0.108025)
(-2.86755e-06 5.0473e-06 0.108025)
(-4.03654e-05 3.99872e-05 0.104522)
(4.51636e-05 -4.44756e-05 0.10465)
(7.8516e-06 3.17158e-06 0.108063)
(8.75698e-06 -5.92839e-06 0.108059)
(6.72723e-06 7.59312e-06 0.108027)
(5.6298e-06 -2.44755e-06 0.108023)
(-8.98727e-06 -5.83896e-06 0.108056)
(-4.77007e-06 3.85962e-06 0.108029)
(-5.42009e-06 -1.83634e-06 0.108021)
(4.19407e-05 -4.2248e-05 0.104526)
(-4.51572e-05 4.57223e-05 0.104644)
(-5.27724e-06 -8.96958e-06 0.108058)
(3.45527e-06 -5.52844e-06 0.108025)
(-1.40623e-06 -5.67802e-06 0.108023)
(4.68692e-05 4.65649e-05 0.104644)
(4.34207e-05 4.33521e-05 0.104485)
(-4.95565e-05 -4.92651e-05 0.1046)
(9.14115e-06 7.20405e-06 0.108012)
(-6.60059e-06 5.88351e-06 0.108015)
(-1.95815e-06 4.01288e-06 0.107977)
(-4.72558e-06 5.87325e-06 0.107978)
(-4.10047e-05 4.18224e-05 0.104493)
(4.46202e-05 -4.47587e-05 0.104596)
(7.14914e-06 9.38428e-06 0.108014)
(5.29858e-06 -3.30655e-06 0.108012)
(3.70734e-06 -1.56253e-06 0.107978)
(5.34042e-06 -4.60054e-06 0.107979)
(-4.95829e-06 -3.2389e-06 0.108011)
(-5.54091e-06 4.37854e-06 0.10798)
(-5.06072e-06 -5.24236e-06 0.107981)
(3.99948e-05 -3.92395e-05 0.104488)
(-4.43055e-05 4.41817e-05 0.104601)
(-3.4578e-06 -4.89111e-06 0.108013)
(4.22694e-06 -4.96417e-06 0.107981)
(-5.62508e-06 -4.81486e-06 0.107982)
(4.31773e-05 4.34238e-05 0.104601)
(3.32579e-05 3.33054e-05 0.104449)
(-3.90395e-05 -4.0053e-05 0.104565)
(-1.88606e-06 2.78387e-06 0.107967)
(-2.17395e-06 4.44475e-06 0.107965)
(7.85424e-06 3.25049e-06 0.107938)
(-1.93093e-06 2.36685e-06 0.107933)
(-3.71299e-05 3.66167e-05 0.104442)
(4.4334e-05 -4.4614e-05 0.104566)
(2.74025e-06 -1.95926e-06 0.107968)
(4.57009e-06 -4.2787e-06 0.107967)
(3.77998e-06 6.38789e-06 0.107939)
(3.17661e-06 -5.54673e-06 0.107931)
(-5.2679e-06 -4.81865e-06 0.107968)
(-2.8483e-06 1.79038e-06 0.107937)
(-2.21514e-06 -1.38322e-06 0.107935)
(3.81725e-05 -3.87324e-05 0.104448)
(-4.2305e-05 4.21102e-05 0.104556)
(-4.75102e-06 -5.2234e-06 0.10797)
(5.41471e-06 -3.63345e-06 0.107934)
(5.83571e-08 -2.70653e-06 0.107936)
(4.66741e-05 4.56939e-05 0.104564)
(4.16943e-05 4.06705e-05 0.104414)
(-4.89678e-05 -4.80981e-05 0.104534)
(5.70069e-06 3.01744e-06 0.107927)
(-1.40231e-06 1.85989e-06 0.107925)
(-2.65963e-06 1.21983e-06 0.107895)
(-3.08774e-06 2.04536e-06 0.107897)
(-3.79193e-05 3.78748e-05 0.104416)
(4.44965e-05 -4.44959e-05 0.104534)
(3.66714e-06 4.06968e-06 0.107929)
(3.61508e-06 -5.38154e-06 0.107919)
(1.0291e-06 -1.6407e-06 0.107897)
(1.65118e-06 2.82178e-06 0.10789)
(-1.43024e-06 -1.70011e-06 0.107925)
(-1.62856e-06 2.77713e-06 0.1079)
(-1.73915e-06 -1.80281e-06 0.107896)
(3.99813e-05 -3.99149e-05 0.104406)
(-4.91299e-05 4.90613e-05 0.104528)
(-9.60598e-08 -2.04221e-06 0.107926)
(-3.10964e-06 -1.28003e-06 0.107893)
(-2.8184e-06 -1.46801e-06 0.107898)
(4.3411e-05 4.42585e-05 0.104532)
(3.26012e-05 3.38667e-05 0.104389)
(-4.0598e-05 -3.97503e-05 0.104501)
(-3.07934e-06 5.30596e-08 0.107887)
(-4.09131e-06 2.03523e-06 0.107886)
(6.13944e-06 -1.56354e-08 0.107859)
(2.47488e-06 -2.14565e-06 0.107857)
(-3.71012e-05 3.6776e-05 0.104386)
(4.7992e-05 -4.75974e-05 0.104503)
(-7.45564e-07 -9.3834e-07 0.107888)
(-6.84797e-07 5.63816e-06 0.107883)
(-1.09332e-06 7.03402e-06 0.10786)
(-2.46672e-06 -3.50067e-06 0.107863)
(-1.42127e-06 -4.63337e-07 0.107887)
(1.95269e-06 -1.94936e-06 0.107861)
(-4.78984e-07 -1.5474e-06 0.107855)
(3.06621e-05 -3.1069e-05 0.104384)
(-4.08723e-05 4.11565e-05 0.104514)
(-2.58483e-06 -5.77565e-07 0.107888)
(3.98234e-06 2.11168e-06 0.107866)
(-2.42109e-06 5.91962e-07 0.107856)
(4.37276e-05 4.45792e-05 0.104498)
(4.04181e-05 4.07371e-05 0.104352)
(-4.87196e-05 -4.9387e-05 0.104457)
(8.95269e-06 1.48384e-06 0.107847)
(6.41532e-07 -1.75057e-06 0.107847)
(-3.30854e-06 -6.85547e-07 0.107813)
(-4.91682e-06 1.254e-06 0.107818)
(-3.24832e-05 3.33811e-05 0.104358)
(4.14313e-05 -4.10966e-05 0.104461)
(9.73702e-07 8.74529e-06 0.107848)
(-9.41552e-08 -8.30319e-06 0.107854)
(3.57589e-08 -3.77451e-06 0.107815)
(9.7384e-07 2.48707e-06 0.10782)
(9.92195e-07 -1.2418e-06 0.107846)
(-4.58549e-07 5.27523e-06 0.10782)
(1.3056e-06 -2.08505e-06 0.107819)
(4.2171e-05 -4.1339e-05 0.104367)
(-4.90934e-05 4.96094e-05 0.104462)
(-1.07013e-06 1.67928e-06 0.107847)
(-1.99684e-06 1.41627e-07 0.107821)
(-1.6637e-06 6.04321e-07 0.107821)
(4.45612e-05 4.3859e-05 0.104466)
(2.83301e-05 2.78799e-05 0.104319)
(-4.17824e-05 -4.19877e-05 0.104454)
(-7.97088e-06 -2.94119e-06 0.107806)
(-3.09406e-07 -2.96523e-07 0.107808)
(1.77717e-06 -4.1203e-06 0.107788)
(4.25216e-06 -5.78114e-06 0.107784)
(-3.55348e-05 3.50307e-05 0.104319)
(4.72415e-05 -4.82708e-05 0.104452)
(-2.37907e-06 -7.86179e-06 0.107807)
(-2.16463e-06 8.66278e-06 0.10781)
(-4.59788e-06 1.05175e-06 0.107788)
(-5.9661e-06 -7.10547e-06 0.107787)
(-1.60341e-07 -1.67992e-06 0.10781)
(4.70499e-06 -5.31592e-06 0.107787)
(5.00346e-06 5.91798e-06 0.107786)
(2.66685e-05 -2.71271e-05 0.104324)
(-3.77669e-05 3.63351e-05 0.104452)
(-1.77833e-06 -8.29254e-07 0.107811)
(5.87835e-06 4.18068e-06 0.10779)
(6.77962e-06 5.4549e-06 0.107787)
(4.95707e-05 4.92146e-05 0.104451)
(3.80384e-05 3.74886e-05 0.104314)
(-5.01428e-05 -5.11175e-05 0.104432)
(4.70869e-06 -3.60292e-06 0.107781)
(-2.15287e-06 -5.54724e-06 0.107777)
(-6.52509e-06 -5.47172e-06 0.107761)
(-1.50529e-06 -6.86675e-07 0.107754)
(-3.38299e-05 3.33238e-05 0.104313)
(4.51844e-05 -4.5648e-05 0.104416)
(-3.70412e-06 2.711e-06 0.107783)
(-2.4903e-06 -1.67681e-05 0.107776)
(-3.76519e-06 -7.4823e-06 0.107764)
(8.63435e-07 9.72255e-06 0.107743)
(7.51548e-06 1.60727e-06 0.107779)
(9.17052e-07 -4.47658e-07 0.107758)
(-1.54913e-06 -1.08952e-05 0.107752)
(4.56619e-05 -4.64149e-05 0.104308)
(-5.64126e-05 5.63314e-05 0.104402)
(3.65556e-06 7.62744e-06 0.10778)
(-1.15111e-05 -1.41828e-08 0.107748)
(-1.00654e-05 -3.08033e-06 0.107755)
(3.63091e-05 3.53678e-05 0.104406)
(2.80463e-05 2.79327e-05 0.104296)
(-3.13782e-05 -2.87656e-05 0.104374)
(-4.41376e-06 -5.34786e-06 0.107754)
(9.24924e-06 -2.3668e-06 0.107747)
(1.69134e-05 2.07678e-06 0.107714)
(7.81994e-06 -1.00406e-05 0.107734)
(-2.82796e-05 2.77064e-05 0.104282)
(4.7191e-05 -4.1311e-05 0.104427)
(-4.70473e-06 -2.89094e-06 0.107756)
(-5.6671e-06 2.61062e-05 0.10774)
(-8.48442e-07 1.93084e-05 0.107714)
(-1.14684e-05 -2.88717e-06 0.107739)
(-3.37465e-06 3.13313e-07 0.107743)
(1.30166e-05 1.9036e-06 0.107735)
(1.51069e-05 2.40421e-05 0.107729)
(1.42097e-05 -1.47398e-05 0.104275)
(-2.99989e-05 3.57873e-05 0.104439)
(-1.25757e-06 -3.70661e-06 0.107745)
(1.25711e-05 1.41243e-05 0.107738)
(2.18033e-05 1.77021e-05 0.107729)
(6.12384e-05 6.35984e-05 0.104435)
(4.07378e-05 4.2325e-05 0.104236)
(-7.80705e-05 -7.99587e-05 0.104437)
(6.80272e-06 2.24343e-06 0.1077)
(-1.04333e-05 -6.32309e-06 0.107726)
(-4.43438e-05 -2.07037e-05 0.107712)
(-1.48903e-05 3.02925e-06 0.107678)
(-3.71662e-05 4.3052e-05 0.104287)
(3.70028e-05 -4.86539e-05 0.104336)
(9.13809e-07 6.7973e-06 0.107701)
(-2.86692e-06 -2.42459e-05 0.10773)
(-1.86134e-05 -4.57839e-05 0.107714)
(1.82392e-06 -3.25972e-06 0.107676)
(1.83958e-05 8.56736e-06 0.107727)
(-8.69285e-06 -1.9086e-06 0.107683)
(-6.1947e-06 -2.43208e-05 0.107706)
(5.70627e-05 -5.08788e-05 0.104293)
(-6.04002e-05 4.85718e-05 0.104334)
(8.65527e-06 1.96409e-05 0.107728)
(-1.35075e-05 -7.40236e-06 0.107682)
(-2.30974e-05 -8.07242e-06 0.107708)
(2.44325e-05 2.26942e-05 0.104362)
(6.94698e-06 5.91284e-06 0.104316)
(1.38079e-05 1.47808e-05 0.1043)
(-2.15093e-05 -2.13525e-05 0.107718)
(1.00617e-05 -4.93788e-06 0.107667)
(6.89472e-05 1.3983e-05 0.107663)
(3.35347e-05 -2.18073e-05 0.107685)
(-2.86066e-05 1.53529e-05 0.104209)
(6.33077e-05 -5.02949e-05 0.104428)
(-2.09589e-05 -2.12422e-05 0.10772)
(-9.3788e-06 1.71305e-05 0.107665)
(1.26208e-05 6.87346e-05 0.107665)
(-1.47069e-05 1.98749e-05 0.107681)
(-9.99365e-06 -9.37984e-06 0.10769)
(2.67063e-05 -1.4948e-05 0.107686)
(1.58988e-05 1.92447e-05 0.107649)
(4.65236e-06 -1.81526e-05 0.104211)
(-3.98033e-05 5.30073e-05 0.104417)
(-9.73801e-06 -1.02643e-05 0.107692)
(-1.11613e-06 1.9321e-05 0.107682)
(1.98177e-05 1.66659e-05 0.107651)
(6.00861e-05 6.07038e-05 0.104363)
(7.41445e-05 7.44339e-05 0.104148)
(-0.000131319 -0.00012935 0.104409)
(3.90696e-05 1.90109e-05 0.10763)
(5.80791e-06 -1.19633e-05 0.107693)
(-0.000107911 -3.07873e-05 0.107639)
(-4.00903e-05 1.36225e-05 0.107643)
(-2.47214e-05 4.11515e-05 0.104298)
(1.89197e-05 -3.21853e-05 0.104303)
(1.98626e-05 3.86725e-05 0.107633)
(-3.5566e-06 9.75243e-06 0.10769)
(-3.21758e-05 -0.000101898 0.107635)
(-6.9619e-06 -1.35168e-05 0.107667)
(2.02367e-05 9.33082e-06 0.107646)
(-1.7424e-05 2.09837e-05 0.107647)
(-1.20802e-06 -2.13439e-06 0.107653)
(4.53677e-05 -2.83103e-05 0.104286)
(-5.22069e-05 3.87352e-05 0.10437)
(9.52199e-06 1.91988e-05 0.107649)
(-6.24999e-06 3.72083e-06 0.107672)
(-8.21072e-06 1.28336e-06 0.10765)
(3.33875e-05 3.60005e-05 0.104348)
(-4.36926e-05 -4.22517e-05 0.104321)
(6.58993e-05 4.85321e-05 0.104344)
(-7.86422e-05 -4.42962e-05 0.107672)
(-1.22278e-05 1.46008e-06 0.107614)
(0.000119601 2.59537e-06 0.10766)
(5.73863e-05 -3.70052e-05 0.107621)
(-4.24723e-05 2.3299e-05 0.10417)
(8.37405e-05 -6.96888e-05 0.1044)
(-4.81758e-05 -7.72982e-05 0.107666)
(-1.39281e-05 -3.02838e-05 0.107637)
(1.54987e-05 9.15762e-05 0.107671)
(1.01716e-05 -2.20604e-05 0.107563)
(-2.65072e-06 6.87314e-06 0.107653)
(3.87593e-05 -3.73761e-05 0.107627)
(2.09576e-05 4.97849e-06 0.107629)
(2.23246e-05 -4.16364e-05 0.10423)
(-5.9682e-06 2.15603e-05 0.104221)
(5.24391e-06 1.08349e-06 0.107648)
(4.26279e-05 -7.12029e-06 0.107569)
(3.30252e-05 1.02063e-05 0.107642)
(6.83693e-05 5.08853e-05 0.104379)
(0.000130688 0.000114959 0.104167)
(-0.000153366 -0.00011434 0.10427)
(0.000102589 2.36085e-05 0.107615)
(2.85816e-05 -2.23671e-05 0.10764)
(-0.000119722 5.05351e-07 0.107547)
(-6.29124e-05 3.05139e-05 0.107608)
(-5.1965e-06 2.72121e-05 0.104282)
(-1.02387e-05 1.26424e-06 0.104254)
(4.02833e-05 8.27443e-05 0.107632)
(2.13799e-05 2.45193e-05 0.107562)
(-2.44829e-05 -6.14055e-05 0.107535)
(-4.75267e-05 0.000108255 0.107652)
(2.64403e-05 7.37167e-06 0.107629)
(-2.41236e-05 5.4068e-05 0.1076)
(-1.84282e-06 9.56507e-06 0.107639)
(5.53621e-05 -3.17716e-05 0.104101)
(-0.000136971 0.000126454 0.104491)
(2.78249e-05 1.16816e-05 0.107647)
(-0.000119201 5.07226e-05 0.107641)
(-4.69506e-05 2.08971e-05 0.107625)
(6.33142e-06 4.6149e-05 0.104355)
(-8.1333e-05 -4.14937e-05 0.104192)
(2.7356e-05 -2.35268e-05 0.104462)
(-0.00012866 -1.92524e-05 0.107571)
(-3.83831e-05 1.55582e-05 0.107571)
(6.42492e-05 -4.16346e-05 0.107649)
(8.12003e-05 -6.11376e-05 0.107562)
(-6.80392e-05 4.51087e-05 0.104116)
(0.000108328 -0.000134949 0.104401)
(-5.52294e-05 -7.15667e-05 0.107546)
(-6.74792e-05 3.50442e-05 0.107676)
(-1.57844e-05 -5.61834e-06 0.107656)
(1.35041e-05 -0.000165393 0.107598)
(-1.88874e-05 -1.21427e-05 0.107616)
(3.06548e-05 -0.000120943 0.107587)
(-3.85103e-06 -5.73748e-05 0.107494)
(-4.81105e-05 2.48296e-05 0.104398)
(7.88066e-05 -0.000103578 0.104237)
(-6.88135e-05 1.72516e-05 0.107591)
(0.000128656 -4.25131e-05 0.10762)
(9.13855e-06 -2.60826e-05 0.107505)
(4.728e-05 -4.19405e-06 0.104154)
(0.000117141 5.48376e-05 0.104311)
(-7.23978e-05 -3.53791e-05 0.104252)
(0.000101206 -3.14482e-05 0.10764)
(7.55101e-05 -6.279e-05 0.10761)
(-1.78566e-05 1.85626e-05 0.107555)
(-5.75921e-05 3.30294e-05 0.107651)
(2.80921e-05 -3.94257e-05 0.104317)
(-1.34314e-05 7.47308e-05 0.104366)
(2.1114e-05 8.5138e-06 0.107667)
(4.86833e-05 -0.000105071 0.107544)
(1.40187e-05 2.4963e-05 0.107565)
(-3.07814e-06 0.000188938 0.107491)
(2.02097e-05 -1.99297e-05 0.107478)
(1.29015e-05 0.000134872 0.107635)
(4.24879e-05 0.000123204 0.107584)
(0.000136403 -0.000145759 0.104058)
(-0.000157623 0.000213837 0.104281)
(7.10747e-05 -3.145e-05 0.107508)
(-0.000114474 4.55862e-05 0.107475)
(8.34867e-05 4.33682e-05 0.107597)
(9.98917e-05 0.000133305 0.104464)
(-2.11837e-05 3.96495e-05 0.104132)
(-5.68916e-05 -3.46028e-05 0.1043)
(-6.50249e-05 2.5808e-05 0.107537)
(-7.23161e-05 5.61435e-05 0.107592)
(-3.08487e-05 -5.14635e-06 0.107523)
(2.91893e-05 -7.5116e-06 0.107417)
(-8.78811e-05 0.000144303 0.104185)
(7.79343e-05 -0.000111752 0.104129)
(-2.15603e-05 3.38108e-05 0.107521)
(-4.504e-05 0.000187517 0.107537)
(-4.66712e-05 1.6256e-06 0.107497)
(-4.14871e-05 -9.9549e-05 0.107648)
(3.33096e-05 0.000123494 0.107647)
(-6.57263e-06 -6.38231e-05 0.107425)
(-1.27349e-05 -6.6963e-05 0.107662)
(-8.08205e-05 0.000132003 0.104232)
(3.73926e-05 -6.66991e-05 0.104498)
(2.64046e-05 7.59606e-05 0.107632)
(6.66985e-05 3.04733e-05 0.107653)
(-0.000101657 3.29589e-05 0.107636)
(-4.42252e-05 -1.68533e-05 0.104403)
(3.44056e-05 2.55248e-05 0.104186)
(-2.75095e-06 -8.19202e-05 0.104319)
(9.09136e-06 -2.57878e-05 0.107525)
(5.70969e-05 -4.11191e-05 0.107423)
(4.38032e-05 -4.10614e-05 0.107539)
(2.60854e-05 -5.43734e-05 0.10759)
(1.71375e-05 -6.10521e-05 0.104047)
(4.24676e-05 -6.58017e-05 0.104478)
(-2.13706e-05 -3.05426e-05 0.107523)
(-4.79807e-06 -0.000158142 0.10762)
(3.15185e-05 -5.18752e-05 0.107575)
(2.50527e-05 8.25124e-07 0.107454)
(-1.69281e-05 -0.00011559 0.107597)
(2.75067e-05 -6.09307e-05 0.107605)
(1.35833e-05 -3.26105e-05 0.107422)
(0.00012409 -0.000163734 0.104312)
(-8.93432e-05 6.63645e-05 0.104116)
(-7.77934e-05 -1.79264e-05 0.107595)
(-3.45312e-05 -5.23196e-05 0.10747)
(6.15205e-05 -5.79355e-05 0.107458)
(0.000102994 2.60279e-05 0.104119)
(5.73229e-05 1.93214e-06 0.104201)
(-8.38444e-05 -9.26634e-06 0.104311)
(2.16096e-05 -2.51636e-05 0.107542)
(-1.77346e-06 -3.09485e-05 0.107632)
(-4.54158e-05 1.58615e-05 0.107534)
(-2.47524e-05 2.50333e-05 0.107581)
(-4.12417e-05 3.10865e-05 0.104366)
(3.4009e-05 5.6689e-06 0.104314)
(2.09554e-05 -2.43383e-05 0.107565)
(1.96677e-06 7.37227e-05 0.107436)
(-3.6703e-05 3.59255e-05 0.107511)
(-3.83396e-05 6.97929e-05 0.107532)
(2.08986e-05 2.85978e-05 0.107415)
(3.87436e-06 7.02124e-05 0.10757)
(1.45277e-05 8.65719e-05 0.107518)
(-4.06733e-05 3.11196e-05 0.104028)
(-3.9866e-05 7.75969e-05 0.104451)
(7.37391e-05 -2.31635e-05 0.107439)
(-2.53584e-05 6.62967e-05 0.107522)
(5.93909e-06 6.48299e-05 0.107495)
(2.6604e-05 9.89563e-05 0.104393)
(-1.12622e-05 5.92299e-05 0.104195)
(-3.32346e-05 -5.62679e-05 0.104326)
(-4.61145e-05 1.29713e-05 0.107529)
(-1.27984e-05 2.32545e-05 0.107533)
(4.24862e-07 -1.91154e-05 0.107516)
(1.73716e-05 -1.56268e-05 0.107456)
(-3.16209e-05 6.69832e-05 0.104169)
(5.24321e-05 -6.37557e-05 0.104246)
(-4.07534e-05 2.97573e-05 0.107504)
(-3.20742e-05 2.5079e-05 0.107572)
(-1.12747e-05 -1.78111e-05 0.107524)
(3.37027e-06 -4.63911e-05 0.107561)
(1.19295e-05 6.50122e-05 0.107558)
(1.21732e-05 -2.4719e-05 0.107462)
(1.51748e-05 -2.33162e-05 0.107585)
(4.8904e-05 -1.55823e-05 0.104347)
(-1.59811e-05 6.31652e-06 0.104321)
(-9.69077e-06 6.39122e-05 0.107534)
(3.95441e-05 -5.87851e-06 0.107567)
(-6.17566e-06 7.84135e-06 0.107592)
(3.91787e-05 1.77241e-05 0.104391)
(4.42464e-05 1.23019e-05 0.104208)
(-3.78995e-05 -4.8004e-05 0.104299)
(1.35679e-05 -2.46875e-05 0.107514)
(1.62719e-05 -2.37327e-05 0.107459)
(6.21317e-06 -1.56825e-05 0.107502)
(2.19188e-06 -2.02556e-05 0.107497)
(-2.05116e-05 4.97602e-06 0.104142)
(3.68728e-05 -4.91756e-05 0.104316)
(-1.16016e-06 -2.46161e-05 0.107529)
(6.83075e-06 -3.61097e-05 0.107526)
(-1.48949e-06 -9.52799e-06 0.107509)
(-1.43133e-05 2.10393e-05 0.107467)
(1.47453e-05 -3.76506e-05 0.107564)
(9.20477e-06 -1.95838e-05 0.107505)
(4.32113e-06 -1.96604e-05 0.107481)
(4.4501e-05 -5.86514e-05 0.104175)
(-7.30179e-05 6.03273e-05 0.104263)
(-9.42587e-07 -7.52217e-06 0.107579)
(-3.79765e-05 3.00602e-06 0.107475)
(-3.65201e-06 -9.49083e-06 0.107489)
(4.19397e-05 3.09672e-05 0.104246)
(2.84411e-05 2.65857e-05 0.104182)
(-4.79121e-05 -3.68598e-05 0.104289)
(-2.59968e-06 -1.04003e-05 0.107496)
(1.45747e-06 -1.48491e-05 0.107504)
(-1.00088e-05 -5.77269e-06 0.10748)
(1.03486e-05 -7.35759e-06 0.107499)
(-3.34614e-05 2.48943e-05 0.104203)
(5.01604e-05 -4.04904e-05 0.104315)
(-7.94333e-06 -1.87499e-06 0.107497)
(-2.02562e-05 2.7798e-05 0.107472)
(-1.6524e-05 2.21325e-06 0.107474)
(-1.71237e-05 9.60908e-06 0.107503)
(2.77968e-06 -1.57662e-06 0.107464)
(1.28106e-05 6.3412e-08 0.107499)
(1.24557e-05 3.06619e-05 0.10746)
(-4.04817e-07 -8.7745e-06 0.104164)
(-3.41379e-05 4.35677e-05 0.104346)
(-1.3665e-06 4.34627e-07 0.107465)
(6.20347e-07 2.20121e-05 0.107503)
(1.84499e-05 2.22902e-05 0.107456)
(5.22237e-05 6.29357e-05 0.104288)
(2.40849e-05 3.13961e-05 0.104177)
(-7.95469e-06 -8.10601e-06 0.107476)
(1.22757e-05 -8.13762e-06 0.107494)
(-1.97427e-05 3.01167e-05 0.104201)
(-1.43003e-05 -2.59906e-06 0.107473)
(-1.14457e-05 6.52298e-07 0.107505)
(1.76639e-05 2.79831e-05 0.107471)
(4.11307e-05 -3.08475e-05 0.104228)
(2.25029e-05 2.30899e-05 0.107469)
(-2.26797e-07 -8.57981e-06 0.0910044)
(1.29692e-06 -8.38345e-06 0.0816093)
(1.40346e-06 -4.11046e-06 0.0709145)
(-8.6767e-06 -6.57798e-07 0.0910038)
(-8.32992e-06 1.10628e-06 0.0816096)
(2.21077e-05 2.18832e-05 0.113165)
(-2.20391e-05 2.1859e-05 0.113164)
(2.27673e-05 -2.29431e-05 0.113164)
(-2.30322e-05 -2.32328e-05 0.113164)
(1.01225e-05 -1.79814e-07 0.0985709)
(-1.68623e-05 1.06324e-05 0.108254)
(5.58601e-06 -6.1676e-06 0.0926572)
(-2.44384e-05 4.13709e-06 0.11082)
(-3.27296e-06 3.0599e-06 0.0709156)
(2.27226e-07 1.03834e-05 0.0985711)
(1.22068e-05 -1.69962e-05 0.108254)
(4.70585e-06 -2.43104e-05 0.110819)
(-5.70676e-06 6.65486e-06 0.0926583)
(4.33923e-05 4.33151e-05 0.104863)
(4.8883e-06 3.05197e-06 0.0870204)
(3.29564e-06 4.7346e-06 0.0870184)
(-3.5332e-07 -9.20808e-06 0.0909913)
(-8.09438e-07 6.04712e-06 0.0815746)
(1.24506e-06 5.11334e-06 0.0909583)
(-4.98808e-06 -6.82006e-06 0.0816158)
(-4.93972e-06 2.27074e-06 0.0708824)
(1.2207e-06 -3.45426e-06 0.0709244)
(-9.15953e-06 -4.90019e-07 0.0909903)
(6.05952e-06 -9.01172e-07 0.0815744)
(5.18683e-06 1.35434e-06 0.0909586)
(-6.82003e-06 -4.96804e-06 0.0816161)
(-2.08096e-05 2.08916e-05 0.113167)
(2.10281e-05 -2.09548e-05 0.113167)
(-2.2678e-05 -2.2818e-05 0.113167)
(2.15946e-05 2.13563e-05 0.113175)
(-1.98409e-05 2.06459e-05 0.113176)
(2.13245e-05 -2.04925e-05 0.113174)
(-1.88698e-05 -1.90889e-05 0.113174)
(1.09129e-05 -5.19201e-08 0.0985315)
(-1.25214e-05 4.09327e-06 0.0925939)
(-2.23006e-05 1.52401e-06 0.110787)
(-1.33065e-05 7.99035e-06 0.108201)
(-1.5524e-05 -1.26757e-06 0.098481)
(9.70817e-06 -2.66389e-06 0.0926481)
(-2.14986e-05 2.06066e-06 0.110776)
(1.06369e-06 -6.69068e-06 0.0708816)
(-3.98072e-06 -1.85087e-06 0.0709272)
(-3.35297e-07 1.07511e-05 0.0985308)
(1.37351e-06 -2.24084e-05 0.110787)
(3.01601e-06 -1.42204e-05 0.0925926)
(5.87339e-06 -1.24631e-05 0.1082)
(-1.1003e-06 -1.56401e-05 0.0984807)
(1.39507e-06 -2.15031e-05 0.110775)
(-1.30158e-06 1.09269e-05 0.0926475)
(-4.94892e-06 -3.46073e-06 0.0869787)
(-3.33086e-06 -5.00296e-06 0.0869774)
(4.41415e-05 4.40279e-05 0.104806)
(3.79311e-06 3.35313e-06 0.0870171)
(3.35672e-06 3.79589e-06 0.0870152)
(-1.12229e-06 -8.99689e-06 0.0909781)
(1.46732e-06 5.71844e-06 0.0815778)
(-1.85049e-06 5.13439e-06 0.0909457)
(6.58123e-08 -7.99626e-06 0.0816237)
(-3.87772e-06 1.52058e-06 0.0708963)
(-5.70793e-07 -4.34561e-06 0.0709423)
(-9.08078e-06 -1.16842e-07 0.0909781)
(5.6269e-06 1.62099e-06 0.0815776)
(5.06212e-06 -2.09014e-06 0.0909469)
(-8.24456e-06 5.30365e-07 0.0816238)
(-1.96189e-05 2.02861e-05 0.113178)
(2.19089e-05 -2.11903e-05 0.113176)
(-1.83955e-05 -1.86658e-05 0.113176)
(1.72824e-05 1.75039e-05 0.113178)
(-1.86843e-05 1.83653e-05 0.11318)
(1.70078e-05 -1.73982e-05 0.113178)
(-1.84561e-05 -1.8264e-05 0.11318)
(1.19423e-05 -3.75355e-07 0.0984985)
(-1.25066e-05 2.35691e-06 0.092584)
(-1.93165e-05 3.28573e-06 0.110743)
(-1.1593e-05 7.57423e-06 0.10815)
(-1.4027e-05 6.14918e-07 0.0984471)
(9.24729e-06 -3.95063e-06 0.0926366)
(-1.88148e-05 2.83143e-06 0.110731)
(3.29e-06 1.08595e-06 0.070892)
(-4.72419e-06 4.91492e-07 0.0709433)
(-4.66461e-07 1.18103e-05 0.0984996)
(5.18233e-06 -1.93136e-05 0.110742)
(1.64071e-06 -1.24985e-05 0.0925865)
(8.65654e-06 -1.25617e-05 0.108147)
(1.47815e-06 -1.36416e-05 0.0984473)
(4.13889e-06 -1.88779e-05 0.110731)
(-7.76231e-06 5.4189e-06 0.0926329)
(-1.1424e-06 -5.67829e-06 0.0869843)
(-5.6884e-06 -1.09771e-06 0.0869832)
(4.31319e-05 4.30399e-05 0.104761)
(5.11885e-06 3.79535e-06 0.0870218)
(3.59238e-06 5.26896e-06 0.0870202)
(-6.5146e-07 -9.89745e-06 0.090973)
(-6.39974e-07 6.04118e-06 0.0815885)
(-7.45464e-07 4.34002e-06 0.0909387)
(-1.97768e-06 -8.01384e-06 0.0816334)
(-2.86814e-06 2.59895e-06 0.0709111)
(2.89292e-06 -3.18031e-06 0.0709562)
(-9.81743e-06 -1.44946e-06 0.0909715)
(5.91513e-06 -3.73212e-07 0.0815878)
(4.64493e-06 -3.60631e-08 0.0909374)
(-7.72432e-06 -2.37403e-06 0.0816335)
(-1.85011e-05 1.79872e-05 0.113179)
(1.55718e-05 -1.61713e-05 0.113177)
(-1.81532e-05 -1.76773e-05 0.113179)
(1.60538e-05 1.648e-05 0.113177)
(-1.75316e-05 1.6914e-05 0.113177)
(1.67922e-05 -1.73167e-05 0.113177)
(-1.82296e-05 -1.77935e-05 0.113176)
(1.31172e-05 -5.49961e-07 0.0984711)
(-1.07557e-05 2.38621e-06 0.0925795)
(-1.69088e-05 2.50643e-06 0.110697)
(-1.00821e-05 7.48723e-06 0.108097)
(-1.27179e-05 -4.11094e-07 0.0984185)
(9.58622e-06 -5.20694e-06 0.0926318)
(-1.63119e-05 2.4887e-06 0.110685)
(1.69022e-06 -7.01426e-06 0.0709092)
(-2.33904e-06 3.34066e-06 0.0709542)
(-7.00493e-07 1.32333e-05 0.0984696)
(-3.8313e-07 -1.70499e-05 0.110694)
(5.14156e-06 -9.67901e-06 0.0925793)
(6.13322e-06 -9.00265e-06 0.108097)
(-2.1944e-06 -1.34553e-05 0.098416)
(1.70044e-07 -1.60407e-05 0.110683)
(-2.39961e-06 1.26725e-05 0.0926353)
(-1.20045e-06 -4.52895e-06 0.0869891)
(-4.94436e-06 -9.76155e-07 0.0869874)
(4.28591e-05 4.35101e-05 0.104706)
(5.34122e-06 3.89349e-06 0.0870293)
(3.95834e-06 5.39131e-06 0.087027)
(7.94698e-07 -9.33006e-06 0.0909653)
(1.81703e-06 5.15592e-06 0.0816004)
(4.2044e-07 4.4627e-06 0.090932)
(1.44925e-06 -8.841e-06 0.0816465)
(-3.62537e-06 1.4898e-06 0.0709297)
(-3.55773e-06 -5.43239e-06 0.0709755)
(-9.54829e-06 1.00226e-06 0.0909656)
(5.31595e-06 1.4558e-06 0.0816001)
(4.18951e-06 -3.98558e-07 0.0909339)
(-9.16111e-06 1.81562e-06 0.081647)
(-1.60009e-05 1.5403e-05 0.113176)
(1.64819e-05 -1.70094e-05 0.113176)
(-1.70947e-05 -1.71652e-05 0.113175)
(1.47463e-05 1.41855e-05 0.11317)
(-1.1387e-05 1.18288e-05 0.113169)
(1.31463e-05 -1.27629e-05 0.113169)
(-1.19091e-05 -1.24186e-05 0.113167)
(1.23298e-05 -1.09995e-06 0.0984435)
(-1.34748e-05 5.31062e-07 0.0925729)
(-1.5082e-05 1.584e-07 0.110652)
(-6.59245e-06 1.52901e-07 0.108049)
(-1.25558e-05 -1.52554e-06 0.0983937)
(9.93083e-06 -2.95267e-06 0.0926276)
(-1.43737e-05 -1.04347e-06 0.11064)
(1.59149e-06 -2.36978e-06 0.0709279)
(-4.54829e-06 -1.46077e-06 0.0709794)
(-4.23746e-07 1.25629e-05 0.0984451)
(2.07183e-06 -1.46976e-05 0.110652)