/*--------------------------------*- C++ -*----------------------------------*\
| =========                 |                                                 |
| \\      /  F ield         | OpenFOAM: The Open Source CFD Toolbox           |
|  \\    /   O peration     | Version:  v1906                                 |
|   \\  /    A nd           | Web:      www.OpenFOAM.com                      |
|    \\/     M anipulation  |                                                 |
\*---------------------------------------------------------------------------*/
FoamFile
{
    version     2.0;
    format      ascii;
    class       volScalarField;
    location    "625";
    object      k;
}
// * * * * * * * * * * * * * * * * * * * * * * * * * * * * * * * * * * * * * //

dimensions      [0 2 -2 0 0 0 0];


internalField   nonuniform List<scalar> 
43248
(
1.49374e-05
1.61532e-05
1.61539e-05
1.81338e-05
1.46145e-05
1.62915e-05
1.62924e-05
1.87288e-05
1.43381e-05
1.652e-05
1.65209e-05
1.94285e-05
1.4108e-05
1.68358e-05
1.68366e-05
2.02215e-05
1.3923e-05
1.7234e-05
1.72356e-05
2.1093e-05
1.37841e-05
1.77141e-05
1.77155e-05
2.20334e-05
1.36906e-05
1.8273e-05
1.8274e-05
2.3031e-05
1.3642e-05
1.89003e-05
1.89021e-05
2.40638e-05
1.36385e-05
1.95976e-05
1.96005e-05
2.51242e-05
1.36824e-05
2.03555e-05
2.03561e-05
2.62041e-05
1.37713e-05
2.11724e-05
2.11743e-05
2.72861e-05
1.39069e-05
2.2033e-05
2.20411e-05
2.83626e-05
1.40878e-05
2.29433e-05
2.29404e-05
2.94324e-05
1.43174e-05
2.38975e-05
2.38979e-05
3.05049e-05
1.45892e-05
2.48454e-05
2.48578e-05
3.15146e-05
1.49017e-05
2.58525e-05
2.58344e-05
3.25125e-05
1.52425e-05
2.68214e-05
2.68373e-05
3.34948e-05
1.56931e-05
2.79055e-05
2.79295e-05
3.45189e-05
1.62124e-05
2.89732e-05
2.89899e-05
3.55288e-05
1.66095e-05
2.99474e-05
2.99099e-05
3.62925e-05
1.71563e-05
3.10189e-05
3.09867e-05
3.72401e-05
1.78087e-05
3.19663e-05
3.21406e-05
3.83535e-05
1.83951e-05
3.29408e-05
3.30057e-05
3.89037e-05
1.84817e-05
3.36569e-05
3.31478e-05
3.84258e-05
1.83498e-05
3.26936e-05
3.27594e-05
3.79432e-05
2.07471e-05
3.40335e-05
3.63907e-05
4.32809e-05
2.48804e-05
4.28009e-05
4.20774e-05
4.72749e-05
1.80246e-05
1.61326e-05
1.61331e-05
1.80245e-05
1.61331e-05
1.61333e-05
1.61327e-05
1.61329e-05
1.80254e-05
1.61331e-05
1.61334e-05
1.80253e-05
1.81332e-05
1.85969e-05
1.61533e-05
1.61537e-05
1.62488e-05
1.62492e-05
1.81329e-05
1.85961e-05
1.61539e-05
1.61541e-05
1.62493e-05
1.62494e-05
1.61534e-05
1.62485e-05
1.62491e-05
1.81337e-05
1.85973e-05
1.61539e-05
1.6249e-05
1.62496e-05
1.85975e-05
1.87282e-05
1.92762e-05
1.62921e-05
1.62922e-05
1.64552e-05
1.64562e-05
1.8727e-05
1.92763e-05
1.62926e-05
1.62928e-05
1.64555e-05
1.64563e-05
1.62923e-05
1.64552e-05
1.64555e-05
1.87282e-05
1.92774e-05
1.62927e-05
1.64557e-05
1.64559e-05
1.92767e-05
1.94278e-05
2.00502e-05
1.65203e-05
1.6521e-05
1.67494e-05
1.67499e-05
1.94281e-05
2.00491e-05
1.65207e-05
1.65215e-05
1.67497e-05
1.67508e-05
1.65208e-05
1.67487e-05
1.67495e-05
1.9429e-05
2.00511e-05
1.65213e-05
1.67496e-05
1.67499e-05
2.00508e-05
2.0221e-05
2.09059e-05
1.68364e-05
1.68369e-05
1.71279e-05
1.71287e-05
2.02204e-05
2.0905e-05
1.68368e-05
1.68377e-05
1.71281e-05
1.71294e-05
1.68367e-05
1.71269e-05
1.71287e-05
2.0222e-05
2.09072e-05
1.68371e-05
1.71284e-05
1.71288e-05
2.0907e-05
2.10921e-05
2.183e-05
1.72347e-05
1.72358e-05
1.75875e-05
1.75878e-05
2.10914e-05
2.1829e-05
1.72349e-05
1.72364e-05
1.75874e-05
1.7589e-05
1.72354e-05
1.7586e-05
1.75883e-05
2.10935e-05
2.18311e-05
1.72357e-05
1.75875e-05
1.75883e-05
2.18317e-05
2.20319e-05
2.28171e-05
1.77157e-05
1.77159e-05
1.81283e-05
1.81285e-05
2.20308e-05
2.28164e-05
1.77157e-05
1.77173e-05
1.81277e-05
1.81302e-05
1.77161e-05
1.81265e-05
1.81284e-05
2.20328e-05
2.28191e-05
1.77164e-05
1.8128e-05
1.81283e-05
2.28186e-05
2.30299e-05
2.38428e-05
1.82745e-05
1.82751e-05
1.87403e-05
1.87395e-05
2.30295e-05
2.38386e-05
1.82738e-05
1.82761e-05
1.87388e-05
1.87406e-05
1.82746e-05
1.87366e-05
1.874e-05
2.30319e-05
2.38416e-05
1.82745e-05
1.87386e-05
1.87393e-05
2.3843e-05
2.40639e-05
2.48925e-05
1.89035e-05
1.89033e-05
1.94173e-05
1.9419e-05
2.40595e-05
2.48944e-05
1.89021e-05
1.8904e-05
1.9417e-05
1.94217e-05
1.89027e-05
1.94164e-05
1.94198e-05
2.40628e-05
2.48973e-05
1.89024e-05
1.94197e-05
1.94185e-05
2.48969e-05
2.512e-05
2.59683e-05
1.95961e-05
1.96002e-05
2.01638e-05
2.01643e-05
2.51223e-05
2.59685e-05
1.95965e-05
1.96028e-05
2.01623e-05
2.01643e-05
1.95993e-05
2.0162e-05
2.01648e-05
2.51257e-05
2.5969e-05
1.95979e-05
2.01623e-05
2.01646e-05
2.5971e-05
2.6202e-05
2.7051e-05
2.03604e-05
2.03574e-05
2.09662e-05
2.09672e-05
2.62001e-05
2.7048e-05
2.03588e-05
2.03577e-05
2.09638e-05
2.09685e-05
2.03596e-05
2.09647e-05
2.09672e-05
2.62004e-05
2.70497e-05
2.03594e-05
2.09657e-05
2.09652e-05
2.70508e-05
2.72854e-05
2.8128e-05
2.11745e-05
2.1175e-05
2.18202e-05
2.18171e-05
2.72841e-05
2.8124e-05
2.11721e-05
2.11774e-05
2.18181e-05
2.18192e-05
2.11755e-05
2.18119e-05
2.182e-05
2.7286e-05
2.81286e-05
2.11724e-05
2.18157e-05
2.18184e-05
2.81285e-05
2.83616e-05
2.9191e-05
2.20376e-05
2.20371e-05
2.27084e-05
2.27137e-05
2.8358e-05
2.9196e-05
2.20364e-05
2.20437e-05
2.27077e-05
2.27114e-05
2.20394e-05
2.27117e-05
2.27114e-05
2.83623e-05
2.91998e-05
2.2039e-05
2.27091e-05
2.27098e-05
2.91979e-05
2.94271e-05
3.02741e-05
2.29451e-05
2.29465e-05
2.36613e-05
2.36597e-05
2.94329e-05
3.02627e-05
2.29441e-05
2.29429e-05
2.36571e-05
2.3661e-05
2.29471e-05
2.36544e-05
2.36596e-05
2.94321e-05
3.02679e-05
2.29464e-05
2.36635e-05
2.36581e-05
3.02732e-05
3.05057e-05
3.12891e-05
2.38976e-05
2.39044e-05
2.46217e-05
2.46009e-05
3.04959e-05
3.12803e-05
2.38925e-05
2.38958e-05
2.46203e-05
2.46227e-05
2.38949e-05
2.45973e-05
2.46191e-05
3.05038e-05
3.12892e-05
2.38931e-05
2.46161e-05
2.4617e-05
3.12889e-05
3.15154e-05
3.22873e-05
2.48564e-05
2.48456e-05
2.5589e-05
2.55963e-05
3.15025e-05
3.23012e-05
2.48562e-05
2.48659e-05
2.55873e-05
2.55924e-05
2.48545e-05
2.56015e-05
2.55954e-05
3.15135e-05
3.22898e-05
2.48522e-05
2.55839e-05
2.55879e-05
3.22902e-05
3.25123e-05
3.32663e-05
2.585e-05
2.58514e-05
2.65747e-05
2.65774e-05
3.25268e-05
3.32641e-05
2.58492e-05
2.5846e-05
2.65709e-05
2.65818e-05
2.5849e-05
2.65728e-05
2.65765e-05
3.25103e-05
3.32735e-05
2.58411e-05
2.65787e-05
2.65731e-05
3.3275e-05
3.34761e-05
3.42724e-05
2.68098e-05
2.68215e-05
2.76319e-05
2.76495e-05
3.34804e-05
3.42861e-05
2.68062e-05
2.68355e-05
2.76224e-05
2.76514e-05
2.68287e-05
2.76309e-05
2.76391e-05
3.34994e-05
3.42998e-05
2.68326e-05
2.76639e-05
2.76446e-05
3.42867e-05
3.45201e-05
3.53484e-05
2.79201e-05
2.79238e-05
2.87719e-05
2.87082e-05
3.45207e-05
3.52829e-05
2.79122e-05
2.7918e-05
2.87735e-05
2.87152e-05
2.79008e-05
2.87151e-05
2.8764e-05
3.45266e-05
3.52849e-05
2.79036e-05
2.8716e-05
2.87601e-05
3.53185e-05
3.55554e-05
3.61132e-05
2.90475e-05
2.89616e-05
2.96821e-05
2.97404e-05
3.54891e-05
3.61678e-05
2.90519e-05
2.89985e-05
2.96812e-05
2.97104e-05
2.9035e-05
2.97356e-05
2.9677e-05
3.54936e-05
3.61435e-05
2.90284e-05
2.96877e-05
2.96727e-05
3.61177e-05
3.62751e-05
3.69909e-05
2.98635e-05
2.99442e-05
3.06743e-05
3.0703e-05
3.63579e-05
3.70289e-05
2.98655e-05
2.99237e-05
3.06697e-05
3.06827e-05
2.98955e-05
3.07166e-05
3.06915e-05
3.63265e-05
3.69952e-05
2.98939e-05
3.06876e-05
3.06707e-05
3.7002e-05
3.72463e-05
3.81085e-05
3.09984e-05
3.10243e-05
3.18696e-05
3.17759e-05
3.72545e-05
3.79453e-05
3.09751e-05
3.09744e-05
3.18327e-05
3.18041e-05
3.09926e-05
3.17435e-05
3.18403e-05
3.72215e-05
3.80912e-05
3.09711e-05
3.18366e-05
3.18797e-05
3.81336e-05
3.83057e-05
3.8789e-05
3.21461e-05
3.19733e-05
3.28387e-05
3.26976e-05
3.81134e-05
3.87106e-05
3.21363e-05
3.21106e-05
3.28982e-05
3.29259e-05
3.21478e-05
3.2743e-05
3.29271e-05
3.83166e-05
3.88087e-05
3.2182e-05
3.29023e-05
3.29592e-05
3.88299e-05
3.88763e-05
3.8616e-05
3.29586e-05
3.29304e-05
3.3104e-05
3.36964e-05
3.88986e-05
3.93029e-05
3.30166e-05
3.30267e-05
3.31303e-05
3.3241e-05
3.30795e-05
3.36263e-05
3.30794e-05
3.88845e-05
3.87011e-05
3.30657e-05
3.3147e-05
3.29891e-05
3.84716e-05
3.86002e-05
3.8064e-05
3.30781e-05
3.37455e-05
3.28569e-05
3.32311e-05
3.93442e-05
3.80807e-05
3.30927e-05
3.32338e-05
3.28083e-05
3.27885e-05
3.29518e-05
3.31215e-05
3.26149e-05
3.87097e-05
3.79569e-05
3.28033e-05
3.28219e-05
3.25139e-05
3.77674e-05
3.81509e-05
4.11789e-05
3.28812e-05
3.27333e-05
3.51683e-05
3.2658e-05
3.78757e-05
3.81764e-05
3.28232e-05
3.26935e-05
3.51501e-05
3.42385e-05
3.27011e-05
3.27851e-05
3.58907e-05
3.79439e-05
4.06566e-05
3.26501e-05
3.4516e-05
3.61527e-05
4.22339e-05
4.22612e-05
4.72305e-05
3.65661e-05
3.36684e-05
4.08311e-05
4.10015e-05
3.95014e-05
4.76822e-05
3.66146e-05
3.61899e-05
4.09103e-05
4.12151e-05
3.72956e-05
4.10439e-05
4.07339e-05
4.19468e-05
4.7573e-05
3.75904e-05
4.1176e-05
4.09288e-05
4.7086e-05
4.78593e-05
4.19208e-05
4.28959e-05
4.88116e-05
4.1931e-05
4.22179e-05
4.1242e-05
4.81347e-05
4.13115e-05
1.50252e-05
1.50253e-05
1.50252e-05
1.50253e-05
5.35393e-05
7.00326e-05
5.29172e-05
7.00585e-05
6.9629e-05
6.9608e-05
5.35426e-05
7.00379e-05
5.29195e-05
7.00645e-05
1.49374e-05
1.49374e-05
1.49374e-05
1.46908e-05
1.46907e-05
1.46907e-05
1.46908e-05
2.93912e-05
4.52096e-05
1.49118e-05
1.61792e-05
2.88269e-05
4.56371e-05
1.48616e-05
6.96294e-05
6.96084e-05
2.93914e-05
1.4912e-05
4.52052e-05
1.61798e-05
2.88274e-05
1.48617e-05
4.56444e-05
5.90088e-05
5.90207e-05
1.82968e-05
5.92951e-05
5.93072e-05
5.48575e-05
7.00916e-05
5.43363e-05
7.01147e-05
6.95567e-05
6.95376e-05
5.48593e-05
7.00968e-05
5.43365e-05
7.01205e-05
1.46145e-05
1.46145e-05
1.46145e-05
1.4403e-05
1.44031e-05
1.4403e-05
1.44031e-05
3.10963e-05
4.64262e-05
1.474e-05
1.63402e-05
3.05319e-05
4.68281e-05
1.47067e-05
6.95569e-05
6.95378e-05
3.1096e-05
1.47403e-05
4.64226e-05
1.63411e-05
3.05331e-05
1.4707e-05
4.68352e-05
5.9669e-05
5.9681e-05
1.89246e-05
5.99222e-05
5.99344e-05
5.59556e-05
7.01434e-05
5.55208e-05
7.01641e-05
6.949e-05
6.94726e-05
5.59569e-05
7.01493e-05
5.55221e-05
7.01699e-05
1.4338e-05
1.43383e-05
1.43383e-05
1.41612e-05
1.41611e-05
1.41613e-05
1.41613e-05
3.27731e-05
4.75434e-05
1.46376e-05
1.65904e-05
3.2213e-05
4.79164e-05
1.46212e-05
6.949e-05
6.94728e-05
3.27724e-05
1.46377e-05
4.75387e-05
1.65914e-05
3.22138e-05
1.46215e-05
4.79238e-05
6.02556e-05
6.02677e-05
1.96525e-05
6.04815e-05
6.04938e-05
5.68727e-05
7.01889e-05
5.65084e-05
7.02065e-05
6.94294e-05
6.94134e-05
5.68722e-05
7.01951e-05
5.6511e-05
7.02127e-05
1.41079e-05
1.41082e-05
1.41082e-05
1.3965e-05
1.3965e-05
1.39654e-05
1.39653e-05
3.43896e-05
4.85675e-05
1.46049e-05
1.69283e-05
3.38406e-05
4.89157e-05
1.46073e-05
6.94291e-05
6.94134e-05
3.43879e-05
1.4605e-05
4.85614e-05
1.69286e-05
3.38405e-05
1.46075e-05
4.89212e-05
6.07809e-05
6.07925e-05
2.04703e-05
6.09849e-05
6.09968e-05
5.76388e-05
7.02279e-05
5.73305e-05
7.02447e-05
6.93737e-05
6.93597e-05
5.76404e-05
7.02342e-05
5.73326e-05
7.02508e-05
1.39229e-05
1.39233e-05
1.39233e-05
1.38142e-05
1.38139e-05
1.38143e-05
1.38144e-05
3.59195e-05
4.95e-05
1.46397e-05
1.73467e-05
3.53902e-05
4.98269e-05
1.46597e-05
6.93735e-05
6.93597e-05
3.59199e-05
1.46403e-05
4.94964e-05
1.73477e-05
3.5392e-05
1.46603e-05
4.98325e-05
6.12507e-05
6.12628e-05
2.136e-05
6.14347e-05
6.14466e-05
5.82945e-05
7.02642e-05
5.80314e-05
7.02787e-05
6.93242e-05
6.9312e-05
5.82976e-05
7.02704e-05
5.80354e-05
7.02847e-05
1.37837e-05
1.37843e-05
1.37843e-05
1.37098e-05
1.37091e-05
1.37099e-05
1.37098e-05
3.73562e-05
5.03578e-05
1.47448e-05
1.78477e-05
3.68494e-05
5.06665e-05
1.47825e-05
6.93239e-05
6.9312e-05
3.73555e-05
1.47454e-05
5.03535e-05
1.78485e-05
3.68501e-05
1.47829e-05
5.06714e-05
6.16794e-05
6.16912e-05
2.23196e-05
6.18484e-05
6.18604e-05
5.88586e-05
7.02962e-05
5.86323e-05
7.03098e-05
6.928e-05
6.92697e-05
5.886e-05
7.03021e-05
5.86316e-05
7.03159e-05
1.36907e-05
1.36911e-05
1.36908e-05
1.36494e-05
1.36493e-05
1.36503e-05
1.36497e-05
3.86916e-05
5.11473e-05
1.49191e-05
1.84239e-05
3.82109e-05
5.14372e-05
1.49736e-05
6.92798e-05
6.92697e-05
3.86896e-05
1.49194e-05
5.11419e-05
1.84241e-05
3.82106e-05
1.49737e-05
5.14402e-05
6.2071e-05
6.20828e-05
2.33267e-05
6.22261e-05
6.22376e-05
5.93526e-05
7.03261e-05
5.91546e-05
7.0339e-05
6.92418e-05
6.92337e-05
5.93548e-05
7.0332e-05
5.91527e-05
7.03459e-05
1.36421e-05
1.36422e-05
1.36422e-05
1.36356e-05
1.36358e-05
1.36367e-05
1.36365e-05
3.99255e-05
5.1872e-05
1.516e-05
1.90686e-05
3.94685e-05
5.21504e-05
1.52311e-05
6.92417e-05
6.92339e-05
3.99256e-05
1.51604e-05
5.18688e-05
1.90694e-05
3.94678e-05
1.52314e-05
5.21538e-05
6.243e-05
6.24417e-05
2.43665e-05
6.25749e-05
6.25867e-05
5.97967e-05
7.03562e-05
5.96136e-05
7.037e-05
6.92096e-05
6.92036e-05
5.97977e-05
7.03625e-05
5.9619e-05
7.03756e-05
1.36389e-05
1.36399e-05
1.36395e-05
1.36666e-05
1.36673e-05
1.36674e-05
1.36677e-05
4.10692e-05
5.25468e-05
1.54688e-05
1.97826e-05
4.0637e-05
5.28137e-05
1.55565e-05
6.92094e-05
6.92035e-05
4.10697e-05
1.547e-05
5.25453e-05
1.97839e-05
4.06368e-05
1.55575e-05
5.28141e-05
6.27629e-05
6.27744e-05
2.54301e-05
6.28984e-05
6.29107e-05
6.01973e-05
7.03868e-05
6.00336e-05
7.04002e-05
6.9183e-05
6.91794e-05
6.01982e-05
7.03925e-05
6.00338e-05
7.04064e-05
1.36818e-05
1.36817e-05
1.36828e-05
1.37448e-05
1.37451e-05
1.37456e-05
1.37455e-05
4.21271e-05
5.31771e-05
1.58439e-05
2.05534e-05
4.1721e-05
5.34291e-05
1.59464e-05
6.91827e-05
6.91793e-05
4.21289e-05
1.58447e-05
5.31763e-05
2.05545e-05
4.17218e-05
1.5948e-05
5.34264e-05
6.30799e-05
6.30921e-05
2.6511e-05
6.32035e-05
6.32149e-05
6.05643e-05
7.04185e-05
6.04112e-05
7.04324e-05
6.91633e-05
6.91613e-05
6.05647e-05
7.04243e-05
6.04119e-05
7.04382e-05
1.37714e-05
1.37726e-05
1.3772e-05
1.38695e-05
1.38673e-05
1.38683e-05
1.38694e-05
4.31003e-05
5.37692e-05
1.62809e-05
2.13822e-05
4.27223e-05
5.40021e-05
1.63982e-05
6.91632e-05
6.91611e-05
4.31037e-05
1.6281e-05
5.377e-05
2.13832e-05
4.27155e-05
1.63987e-05
5.40027e-05
6.33774e-05
6.33884e-05
2.75925e-05
6.34921e-05
6.35057e-05
6.08953e-05
7.04501e-05
6.0758e-05
7.04664e-05
6.91481e-05
6.91489e-05
6.09056e-05
7.04571e-05
6.07603e-05
7.04734e-05
1.39055e-05
1.3909e-05
1.39076e-05
1.40357e-05
1.4037e-05
1.40363e-05
1.40364e-05
4.40245e-05
5.43244e-05
1.67767e-05
2.22581e-05
4.36604e-05
5.4548e-05
1.69127e-05
6.91484e-05
6.91495e-05
4.4022e-05
1.678e-05
5.43247e-05
2.22643e-05
4.36563e-05
1.69156e-05
5.45519e-05
6.36562e-05
6.36667e-05
2.86642e-05
6.37698e-05
6.37824e-05
6.12223e-05
7.04878e-05
6.10913e-05
7.05048e-05
6.91402e-05
6.91425e-05
6.12159e-05
7.04932e-05
6.10912e-05
7.05117e-05
1.40877e-05
1.40863e-05
1.4088e-05
1.42578e-05
1.4255e-05
1.42603e-05
1.42581e-05
4.4879e-05
5.48555e-05
1.7336e-05
2.31768e-05
4.45346e-05
5.50613e-05
1.74828e-05
6.9139e-05
6.91431e-05
4.48822e-05
1.73352e-05
5.4847e-05
2.31789e-05
4.45328e-05
1.74862e-05
5.50669e-05
6.39243e-05
6.39347e-05
2.97353e-05
6.40501e-05
6.4062e-05
6.15182e-05
7.05252e-05
6.14e-05
7.05405e-05
6.91362e-05
6.91386e-05
6.15147e-05
7.05308e-05
6.14006e-05
7.05473e-05
1.43202e-05
1.43191e-05
1.43162e-05
1.45206e-05
1.45076e-05
1.4519e-05
1.45202e-05
4.56826e-05
5.53579e-05
1.79477e-05
2.41336e-05
4.535e-05
5.55477e-05
1.81088e-05
6.91359e-05
6.91385e-05
4.56785e-05
1.79523e-05
5.53623e-05
2.41304e-05
4.53593e-05
1.81095e-05
5.555e-05
6.4194e-05
6.42042e-05
3.07863e-05
6.42861e-05
6.42957e-05
6.18109e-05
7.05665e-05
6.16781e-05
7.05856e-05
6.91375e-05
6.91452e-05
6.18204e-05
7.05742e-05
6.16917e-05
7.05917e-05
1.458e-05
1.45923e-05
1.45865e-05
1.48102e-05
1.48161e-05
1.4811e-05
1.48141e-05
4.64501e-05
5.58127e-05
1.86027e-05
2.50984e-05
4.61257e-05
5.60233e-05
1.87809e-05
6.91365e-05
6.91427e-05
4.64384e-05
1.86081e-05
5.58191e-05
2.50941e-05
4.61303e-05
1.87761e-05
5.60137e-05
6.44379e-05
6.44491e-05
3.17926e-05
6.453e-05
6.45403e-05
6.20583e-05
7.06091e-05
6.19556e-05
7.06286e-05
6.91443e-05
6.9152e-05
6.20705e-05
7.06156e-05
6.19603e-05
7.06364e-05
1.49016e-05
1.49e-05
1.4903e-05
1.51589e-05
1.51618e-05
1.51599e-05
1.51549e-05
4.71512e-05
5.62739e-05
1.93226e-05
2.60994e-05
4.68779e-05
5.64329e-05
1.95035e-05
6.91423e-05
6.91527e-05
4.71412e-05
1.93086e-05
5.62536e-05
2.60818e-05
4.68629e-05
1.94903e-05
5.64286e-05
6.46509e-05
6.46616e-05
3.27847e-05
6.47534e-05
6.47682e-05
6.2339e-05
7.06592e-05
6.22203e-05
7.06889e-05
6.91602e-05
6.91753e-05
6.2325e-05
7.0664e-05
6.22205e-05
7.06934e-05
1.52492e-05
1.52521e-05
1.5247e-05
1.55687e-05
1.55758e-05
1.55909e-05
1.55866e-05
4.78464e-05
5.66763e-05
2.00489e-05
2.70855e-05
4.75557e-05
5.68682e-05
2.02446e-05
6.91593e-05
6.91724e-05
4.78753e-05
2.00573e-05
5.66979e-05
2.71076e-05
4.75684e-05
2.02636e-05
5.68812e-05
6.48721e-05
6.48848e-05
3.37697e-05
6.49731e-05
6.49856e-05
6.2629e-05
7.07283e-05
6.25183e-05
7.07522e-05
6.91864e-05
6.91958e-05
6.26424e-05
7.07372e-05
6.25144e-05
7.07621e-05
1.56951e-05
1.57051e-05
1.56899e-05
1.60738e-05
1.6047e-05
1.60422e-05
1.60703e-05
4.85447e-05
5.7136e-05
2.08652e-05
2.81806e-05
4.82576e-05
5.73203e-05
2.10834e-05
6.91834e-05
6.91948e-05
4.85526e-05
2.08977e-05
5.71473e-05
2.81844e-05
4.82719e-05
2.11046e-05
5.73308e-05
6.51695e-05
6.51856e-05
3.48143e-05
6.52947e-05
6.52962e-05
6.28953e-05
7.07786e-05
6.27916e-05
7.07938e-05
6.92028e-05
6.92144e-05
6.29055e-05
7.07861e-05
6.2794e-05
7.08019e-05
1.61608e-05
1.61799e-05
1.62087e-05
1.65322e-05
1.65555e-05
1.65265e-05
1.65132e-05
4.91966e-05
5.75549e-05
2.17481e-05
2.92363e-05
4.89618e-05
5.76976e-05
2.19733e-05
6.92031e-05
6.92129e-05
4.91768e-05
2.175e-05
5.75462e-05
2.92433e-05
4.89416e-05
2.19679e-05
5.7693e-05
6.54066e-05
6.54187e-05
3.57524e-05
6.54394e-05
6.54547e-05
6.30927e-05
7.08203e-05
6.29703e-05
7.08507e-05
6.92285e-05
6.92505e-05
6.31006e-05
7.08277e-05
6.30101e-05
7.08572e-05
1.66598e-05
1.66251e-05
1.66165e-05
1.69844e-05
1.70026e-05
1.70052e-05
1.69995e-05
4.97855e-05
5.78865e-05
2.25823e-05
3.0164e-05
4.95127e-05
5.80642e-05
2.27753e-05
6.92219e-05
6.92402e-05
4.97815e-05
2.25586e-05
5.78705e-05
3.01456e-05
4.95152e-05
2.276e-05
5.80249e-05
6.549e-05
6.54934e-05
3.65085e-05
6.56276e-05
6.5628e-05
6.34561e-05
7.08978e-05
6.33262e-05
7.09187e-05
6.92625e-05
6.9265e-05
6.33713e-05
7.08969e-05
6.32857e-05
7.09184e-05
1.71828e-05
1.7168e-05
1.71563e-05
1.76411e-05
1.76217e-05
1.76354e-05
1.76565e-05
5.04243e-05
5.83342e-05
2.34715e-05
3.12956e-05
5.01729e-05
5.84871e-05
2.3729e-05
6.92589e-05
6.92759e-05
5.04314e-05
2.34753e-05
5.83151e-05
3.12774e-05
5.01614e-05
2.37374e-05
5.85106e-05
6.58541e-05
6.58668e-05
3.75756e-05
6.60072e-05
6.60341e-05
6.36e-05
7.09334e-05
6.35263e-05
7.09588e-05
6.92536e-05
6.92584e-05
6.371e-05
7.09527e-05
6.35481e-05
7.09722e-05
1.77325e-05
1.78022e-05
1.78322e-05
1.83087e-05
1.81571e-05
1.83119e-05
1.83248e-05
5.10347e-05
5.86697e-05
2.43769e-05
3.22032e-05
5.07737e-05
5.88252e-05
2.46006e-05
6.92768e-05
6.92668e-05
5.11377e-05
2.44288e-05
5.88509e-05
3.24466e-05
5.08573e-05
2.47179e-05
5.90039e-05
6.62954e-05
6.63619e-05
3.85807e-05
6.64576e-05
6.64862e-05
6.39074e-05
7.09699e-05
6.37693e-05
7.09624e-05
6.92765e-05
6.92958e-05
6.39064e-05
7.09751e-05
6.38036e-05
7.09753e-05
1.83133e-05
1.84031e-05
1.8446e-05
1.84914e-05
1.87847e-05
1.85541e-05
1.84785e-05
5.15515e-05
5.90506e-05
2.53916e-05
3.31587e-05
5.13708e-05
5.91954e-05
2.55861e-05
6.92185e-05
6.92192e-05
5.13557e-05
2.54572e-05
5.89566e-05
3.30395e-05
5.13395e-05
2.55411e-05
5.88299e-05
6.62525e-05
6.61647e-05
3.88136e-05
6.59563e-05
6.58833e-05
6.38918e-05
7.09322e-05
6.40175e-05
7.09184e-05
6.92658e-05
6.91739e-05
6.38185e-05
7.09667e-05
6.40334e-05
7.09427e-05
1.88854e-05
1.85624e-05
1.84128e-05
1.83482e-05
1.87596e-05
1.83866e-05
1.81665e-05
5.16691e-05
5.92135e-05
2.62246e-05
3.36263e-05
5.17453e-05
5.87807e-05
2.63021e-05
6.92149e-05
6.91755e-05
5.15427e-05
2.59063e-05
5.88048e-05
3.31188e-05
5.15432e-05
2.60445e-05
5.84918e-05
6.49451e-05
6.49258e-05
3.79276e-05
6.41679e-05
6.41388e-05
6.26541e-05
7.10652e-05
6.28545e-05
7.13647e-05
6.91721e-05
6.94544e-05
6.26991e-05
7.10697e-05
6.27938e-05
7.13684e-05
1.85084e-05
1.83319e-05
1.81926e-05
1.95953e-05
1.83163e-05
1.89338e-05
2.02618e-05
5.07367e-05
5.71327e-05
2.60461e-05
3.25042e-05
5.09023e-05
5.68809e-05
2.58877e-05
6.93444e-05
6.96699e-05
5.092e-05
2.59735e-05
5.73464e-05
3.28058e-05
5.09778e-05
2.59655e-05
5.76371e-05
6.42815e-05
6.43289e-05
3.90971e-05
6.55943e-05
6.57389e-05
6.5631e-05
7.19606e-05
6.41094e-05
7.22882e-05
7.00417e-05
7.04552e-05
6.58318e-05
7.19607e-05
6.43454e-05
7.22662e-05
1.86076e-05
2.02461e-05
2.14031e-05
2.39723e-05
2.36416e-05
2.41266e-05
2.41054e-05
5.407e-05
5.9426e-05
2.63688e-05
3.6485e-05
5.22828e-05
6.16373e-05
2.78161e-05
7.01979e-05
7.04349e-05
5.46715e-05
2.76152e-05
6.0647e-05
3.81492e-05
5.28871e-05
2.91364e-05
6.27193e-05
6.90729e-05
6.94823e-05
4.52846e-05
7.10515e-05
7.13995e-05
7.23115e-05
6.81439e-05
7.06573e-05
7.22408e-05
6.79035e-05
2.52939e-05
2.50889e-05
2.46317e-05
6.54298e-05
3.30312e-05
5.68421e-05
7.01282e-05
3.30048e-05
6.46488e-05
5.67862e-05
7.11344e-05
7.06968e-05
6.96438e-05
6.96457e-05
5.89501e-05
5.89628e-05
7.0028e-05
5.27896e-05
7.0033e-05
5.27908e-05
4.49997e-05
1.49645e-05
2.85391e-05
4.50128e-05
1.49646e-05
2.85398e-05
6.96452e-05
5.89619e-05
5.895e-05
6.96434e-05
7.00335e-05
5.2791e-05
4.50112e-05
1.49646e-05
2.85403e-05
7.00295e-05
5.27899e-05
1.49645e-05
4.50046e-05
2.854e-05
4.50015e-05
1.49647e-05
2.85396e-05
7.00326e-05
5.27899e-05
1.49646e-05
4.50069e-05
2.85391e-05
7.00286e-05
5.27886e-05
6.96457e-05
5.896e-05
5.89511e-05
6.9644e-05
1.49648e-05
4.50081e-05
2.85398e-05
1.49649e-05
4.50122e-05
2.85404e-05
7.00287e-05
5.27907e-05
7.00336e-05
5.2792e-05
5.89514e-05
5.89635e-05
6.96438e-05
6.96459e-05
6.96274e-05
6.96063e-05
6.96294e-05
6.96083e-05
5.90079e-05
5.90204e-05
1.82965e-05
5.92935e-05
5.93065e-05
6.95702e-05
6.95904e-05
6.95723e-05
6.95924e-05
1.84166e-05
5.96161e-05
5.96289e-05
5.93478e-05
5.93604e-05
5.3541e-05
7.00374e-05
5.29185e-05
7.00638e-05
2.93901e-05
4.52133e-05
1.49116e-05
1.61793e-05
2.88264e-05
4.56344e-05
1.48613e-05
2.9391e-05
4.52091e-05
1.49117e-05
1.61797e-05
2.88271e-05
4.56487e-05
1.48614e-05
5.36581e-05
7.00876e-05
7.00628e-05
5.42293e-05
5.36596e-05
7.00927e-05
7.00679e-05
5.42302e-05
2.96792e-05
1.62112e-05
4.62425e-05
1.47755e-05
4.58348e-05
1.48171e-05
3.02443e-05
2.968e-05
1.62117e-05
4.62549e-05
1.47755e-05
4.58327e-05
1.48172e-05
3.02449e-05
5.90193e-05
5.90077e-05
1.82958e-05
5.93065e-05
5.92945e-05
6.96271e-05
6.96061e-05
6.95719e-05
6.95923e-05
1.84159e-05
5.96281e-05
5.96158e-05
5.93606e-05
5.93488e-05
6.95699e-05
6.95902e-05
2.93926e-05
4.52113e-05
1.49118e-05
1.61798e-05
2.8828e-05
4.56462e-05
1.48616e-05
5.35415e-05
7.00341e-05
5.29184e-05
7.00601e-05
2.93921e-05
1.49117e-05
4.52158e-05
1.61801e-05
2.88275e-05
1.48614e-05
4.56406e-05
5.36602e-05
7.00931e-05
7.00685e-05
5.42292e-05
2.96814e-05
1.62118e-05
4.62541e-05
1.47757e-05
4.58334e-05
1.48174e-05
3.02455e-05
5.3659e-05
7.0089e-05
7.00644e-05
5.42281e-05
2.96809e-05
1.6212e-05
1.47755e-05
4.62471e-05
1.48172e-05
4.58385e-05
3.0245e-05
5.35426e-05
7.00371e-05
5.29182e-05
7.00632e-05
2.93908e-05
1.49116e-05
4.52067e-05
1.61794e-05
2.88263e-05
1.48614e-05
4.56415e-05
5.35413e-05
7.0033e-05
5.29171e-05
7.00592e-05
2.96801e-05
1.62111e-05
4.62438e-05
1.47756e-05
4.58326e-05
1.48173e-05
3.02444e-05
5.36603e-05
7.00922e-05
7.00675e-05
5.42291e-05
2.96795e-05
1.62116e-05
1.47755e-05
4.62497e-05
1.48172e-05
4.58292e-05
3.02439e-05
5.3659e-05
7.00882e-05
7.00634e-05
5.42279e-05
5.90182e-05
5.90089e-05
1.8297e-05
5.93052e-05
5.92965e-05
6.96278e-05
6.96067e-05
6.95722e-05
6.95925e-05
1.8417e-05
5.96255e-05
5.9617e-05
5.93592e-05
5.93502e-05
6.95706e-05
6.95909e-05
2.9392e-05
1.4912e-05
4.52107e-05
1.61799e-05
2.8828e-05
1.48618e-05
4.56472e-05
5.35402e-05
7.00331e-05
5.29188e-05
7.00594e-05
5.35413e-05
7.0038e-05
5.29201e-05
7.00643e-05
2.96802e-05
1.62118e-05
1.47758e-05
4.62505e-05
1.48175e-05
4.58279e-05
3.02448e-05
2.96808e-05
1.62121e-05
1.47759e-05
4.62554e-05
1.48176e-05
4.58333e-05
3.02455e-05
5.3658e-05
7.00884e-05
7.00635e-05
5.42296e-05
5.36591e-05
7.00932e-05
7.00684e-05
5.42309e-05
6.96276e-05
6.96065e-05
6.96297e-05
6.96086e-05
1.84168e-05
5.96184e-05
5.96306e-05
5.93494e-05
5.93614e-05
6.95704e-05
6.95908e-05
6.95726e-05
6.95929e-05
6.95549e-05
6.95356e-05
6.95571e-05
6.95378e-05
5.96673e-05
5.96799e-05
1.89243e-05
5.99214e-05
5.9934e-05
6.95023e-05
6.95207e-05
6.95046e-05
6.9523e-05
1.90661e-05
6.02083e-05
6.02207e-05
5.99696e-05
5.99817e-05
5.48592e-05
7.00965e-05
5.43372e-05
7.012e-05
3.1096e-05
4.64306e-05
1.47398e-05
1.63408e-05
3.05319e-05
4.68258e-05
1.47066e-05
3.10969e-05
4.64263e-05
1.47399e-05
1.6341e-05
3.05323e-05
4.6839e-05
1.47067e-05
5.49558e-05
7.01399e-05
7.01183e-05
5.54318e-05
5.49576e-05
7.01453e-05
7.01235e-05
5.54333e-05
3.13767e-05
1.63954e-05
4.73823e-05
1.46551e-05
4.70013e-05
1.468e-05
3.19407e-05
3.13774e-05
1.63961e-05
4.73961e-05
1.46554e-05
4.69997e-05
1.46801e-05
3.1942e-05
5.96786e-05
5.96666e-05
1.89228e-05
5.9934e-05
5.9922e-05
6.95546e-05
6.95355e-05
6.95043e-05
6.9523e-05
1.9065e-05
6.02217e-05
6.02096e-05
5.99824e-05
5.99708e-05
6.95021e-05
6.95208e-05
3.10977e-05
4.64294e-05
1.47401e-05
1.63411e-05
3.05326e-05
4.68362e-05
1.47069e-05
5.48584e-05
7.0093e-05
5.43354e-05
7.01161e-05
3.10974e-05
1.47399e-05
4.64324e-05
1.63417e-05
3.05318e-05
1.47067e-05
4.68313e-05
5.49575e-05
7.01461e-05
7.0124e-05
5.54332e-05
3.13779e-05
1.63957e-05
4.73936e-05
1.46554e-05
4.69993e-05
1.46802e-05
3.19427e-05
5.49565e-05
7.01417e-05
7.01198e-05
5.54321e-05
3.13772e-05
1.63964e-05
1.46553e-05
4.73872e-05
1.46801e-05
4.70049e-05
3.19425e-05
5.48599e-05
7.00962e-05
5.43368e-05
7.01195e-05
3.10966e-05
1.47399e-05
4.64244e-05
1.6341e-05
3.05309e-05
1.47066e-05
4.68321e-05
5.48585e-05
7.00921e-05
5.43356e-05
7.01157e-05
3.13774e-05
1.63952e-05
4.73854e-05
1.46554e-05
4.69996e-05
1.46802e-05
3.19413e-05
5.49579e-05
7.01448e-05
7.01232e-05
5.54333e-05
3.13763e-05
1.63956e-05
1.46552e-05
4.73892e-05
1.468e-05
4.69957e-05
3.19415e-05
5.49566e-05
7.01409e-05
7.01192e-05
5.5432e-05
5.96767e-05
5.96679e-05
1.89243e-05
5.99326e-05
5.99244e-05
6.95554e-05
6.95363e-05
6.95044e-05
6.9523e-05
1.90665e-05
6.02182e-05
6.02099e-05
5.99811e-05
5.99724e-05
6.95028e-05
6.95215e-05
3.10963e-05
1.47403e-05
4.64283e-05
1.63415e-05
3.05339e-05
1.47071e-05
4.6838e-05
5.48581e-05
7.00923e-05
5.43369e-05
7.01159e-05
5.48592e-05
7.00971e-05
5.43382e-05
7.01207e-05
3.1378e-05
1.63959e-05
1.46557e-05
4.73904e-05
1.46804e-05
4.69956e-05
3.19411e-05
3.13792e-05
1.6396e-05
1.46557e-05
4.73951e-05
1.46805e-05
4.69996e-05
3.19413e-05
5.49561e-05
7.01412e-05
7.01193e-05
5.54329e-05
5.49573e-05
7.01459e-05
7.01241e-05
5.54343e-05
6.95552e-05
6.95359e-05
6.95574e-05
6.95381e-05
1.90662e-05
6.02104e-05
6.02227e-05
5.99704e-05
5.99824e-05
6.95027e-05
6.95212e-05
6.95049e-05
6.95234e-05
6.94879e-05
6.94705e-05
6.94903e-05
6.94729e-05
6.02539e-05
6.02662e-05
1.96516e-05
6.04806e-05
6.04933e-05
6.94403e-05
6.94567e-05
6.94427e-05
6.94591e-05
1.98132e-05
6.07388e-05
6.07513e-05
6.05237e-05
6.0536e-05
5.59567e-05
7.01485e-05
5.55222e-05
7.01692e-05
3.27731e-05
4.75464e-05
1.46373e-05
1.65911e-05
3.22117e-05
4.79152e-05
1.4621e-05
3.2774e-05
4.75436e-05
1.46375e-05
1.65916e-05
3.22127e-05
4.79268e-05
1.46213e-05
5.60369e-05
7.01861e-05
7.01672e-05
5.64341e-05
5.6038e-05
7.01915e-05
7.01722e-05
5.6435e-05
3.30337e-05
1.66677e-05
4.84269e-05
1.46045e-05
4.8068e-05
1.46121e-05
3.35896e-05
3.30342e-05
1.66683e-05
4.84394e-05
1.46046e-05
4.80656e-05
1.46123e-05
3.35901e-05
6.02661e-05
6.02542e-05
1.96508e-05
6.04912e-05
6.04791e-05
6.94877e-05
6.94703e-05
6.94426e-05
6.94591e-05
1.98118e-05
6.07528e-05
6.07408e-05
6.05345e-05
6.05227e-05
6.94403e-05
6.94567e-05
3.27752e-05
4.75458e-05
1.46376e-05
1.65914e-05
3.22132e-05
4.79255e-05
1.46213e-05
5.59558e-05
7.0145e-05
5.5521e-05
7.01654e-05
3.27747e-05
1.46375e-05
4.75481e-05
1.65922e-05
3.22125e-05
1.46212e-05
4.79205e-05
5.60385e-05
7.01925e-05
7.01729e-05
5.64371e-05
3.30356e-05
1.66681e-05
4.84381e-05
1.4605e-05
4.80669e-05
1.46125e-05
3.35933e-05
5.60373e-05
7.01876e-05
7.01685e-05
5.64357e-05
3.30348e-05
1.66689e-05
1.46048e-05
4.84317e-05
1.46125e-05
4.80718e-05
3.35926e-05
5.59566e-05
7.01482e-05
5.55223e-05
7.01689e-05
3.27729e-05
1.46374e-05
4.75413e-05
1.65916e-05
3.22118e-05
1.46211e-05
4.79214e-05
5.59548e-05
7.01441e-05
5.5521e-05
7.01648e-05
3.30344e-05
1.6667e-05
4.84299e-05
1.46047e-05
4.80654e-05
1.46123e-05
3.35902e-05
5.60379e-05
7.01911e-05
7.0172e-05
5.64359e-05
3.3033e-05
1.66679e-05
1.46046e-05
4.84316e-05
1.46122e-05
4.80623e-05
3.35901e-05
5.60361e-05
7.01875e-05
7.01678e-05
5.64347e-05
6.02632e-05
6.02546e-05
1.96523e-05
6.04902e-05
6.04819e-05
6.94886e-05
6.94712e-05
6.94426e-05
6.94591e-05
1.98136e-05
6.07502e-05
6.07408e-05
6.0534e-05
6.05252e-05
6.94409e-05
6.94576e-05
3.27723e-05
1.46379e-05
4.75453e-05
1.6592e-05
3.22152e-05
1.46216e-05
4.79275e-05
5.5955e-05
7.01445e-05
5.55218e-05
7.01652e-05
5.5956e-05
7.01491e-05
5.55232e-05
7.01698e-05
3.30346e-05
1.6668e-05
1.46049e-05
4.84335e-05
1.46126e-05
4.80625e-05
3.35894e-05
3.30363e-05
1.66683e-05
1.46051e-05
4.84377e-05
1.46127e-05
4.80662e-05
3.35893e-05
5.60361e-05
7.01874e-05
7.01681e-05
5.64342e-05
5.60371e-05
7.01924e-05
7.01728e-05
5.6436e-05
6.94884e-05
6.94709e-05
6.94907e-05
6.94731e-05
1.98138e-05
6.07401e-05
6.0752e-05
6.05245e-05
6.05365e-05
6.94407e-05
6.94573e-05
6.94429e-05
6.94595e-05
6.94271e-05
6.94113e-05
6.94294e-05
6.94136e-05
6.07801e-05
6.0792e-05
2.04695e-05
6.09838e-05
6.09951e-05
6.93836e-05
6.93984e-05
6.9386e-05
6.94007e-05
2.06483e-05
6.12127e-05
6.12251e-05
6.10219e-05
6.1033e-05
5.68742e-05
7.01941e-05
5.65094e-05
7.02124e-05
3.43894e-05
4.85697e-05
1.46047e-05
1.69288e-05
3.38397e-05
4.89141e-05
1.46071e-05
3.43902e-05
4.85669e-05
1.46048e-05
1.69294e-05
3.38398e-05
4.89252e-05
1.46072e-05
5.69398e-05
7.02255e-05
7.0209e-05
5.72688e-05
5.69414e-05
7.02318e-05
7.02149e-05
5.72715e-05
3.46263e-05
1.70262e-05
4.93785e-05
1.46241e-05
4.90458e-05
1.46131e-05
3.5163e-05
3.4627e-05
1.70269e-05
4.93922e-05
1.46244e-05
4.9043e-05
1.46133e-05
3.51653e-05
6.07932e-05
6.07815e-05
2.04689e-05