/*--------------------------------*- C++ -*----------------------------------*\
| =========                 |                                                 |
| \\      /  F ield         | OpenFOAM: The Open Source CFD Toolbox           |
|  \\    /   O peration     | Version:  v1906                                 |
|   \\  /    A nd           | Web:      www.OpenFOAM.com                      |
|    \\/     M anipulation  |                                                 |
\*---------------------------------------------------------------------------*/
FoamFile
{
    version     2.0;
    format      ascii;
    class       volScalarField;
    location    "625";
    object      nut;
}
// * * * * * * * * * * * * * * * * * * * * * * * * * * * * * * * * * * * * * //

dimensions      [0 2 -1 0 0 0 0];


internalField   nonuniform List<scalar> 
43024
(
0.000208582
0.000202749
0.000201592
0.000183287
0.000210564
0.000203794
0.000203561
0.000184733
0.000214997
0.000203825
0.000205028
0.000183982
0.000216685
0.000205794
0.000205793
0.000184887
0.000216654
0.000207453
0.000206707
0.000187089
0.000219283
0.000207047
0.000206619
0.000186556
0.000220809
0.000207617
0.000207385
0.000185607
0.000223411
0.000210249
0.000211596
0.000188518
0.00022537
0.000210277
0.000211305
0.00018891
0.000224785
0.000209186
0.000207963
0.00018705
0.000226854
0.000211153
0.000209278
0.000187916
0.000229665
0.000213238
0.000213833
0.000191257
0.000230706
0.000212518
0.000214597
0.00019054
0.000229259
0.000210539
0.000211375
0.00018547
0.000230362
0.000212338
0.000210568
0.000190316
0.000233346
0.000215014
0.000212466
0.000194074
0.000232663
0.00021264
0.000215273
0.000189182
0.000236689
0.000210931
0.000213094
0.000179693
0.000234623
0.00021775
0.000212017
0.000194773
0.000230878
0.000214244
0.000225692
0.000212164
0.000239492
0.000213009
0.000208016
0.00017784
0.000182426
0.000201388
0.000202266
0.000183353
0.000201379
0.000201362
0.000202223
0.000201739
0.00018256
0.000201316
0.000201643
0.00018298
0.000182209
0.000183179
0.000201308
0.00020264
0.000202377
0.000203284
0.000183456
0.000184092
0.000201208
0.000201452
0.000202224
0.00020261
0.000202539
0.000203741
0.000204312
0.0001825
0.000183632
0.000202402
0.000203065
0.000204196
0.000184756
0.000183488
0.000185452
0.000203055
0.000203351
0.000205093
0.000203757
0.000183985
0.000184068
0.000202983
0.000203149
0.000205224
0.000204769
0.000204537
0.000203671
0.000204052
0.000183824
0.000184987
0.00020448
0.000204709
0.000204137
0.000184224
0.00018557
0.000185922
0.000205607
0.00020412
0.000206067
0.000205552
0.000184057
0.000185385
0.000205778
0.000205254
0.000206216
0.000206039
0.000203816
0.000205223
0.000204185
0.000185043
0.00018569
0.000203949
0.000205684
0.000204406
0.000184514
0.000185707
0.000185222
0.00020597
0.00020599
0.000205719
0.000206967
0.000185558
0.000186601
0.000206102
0.00020605
0.000205676
0.000206055
0.000205136
0.000207259
0.000207586
0.000185598
0.000185872
0.000205236
0.000206381
0.000207489
0.00018704
0.000185202
0.00018639
0.000205834
0.000207106
0.0002071
0.000206921
0.000186527
0.000186121
0.000205712
0.000206241
0.000207103
0.0002065
0.00020798
0.000207275
0.000208047
0.000185821
0.000185852
0.000207896
0.000206821
0.000207997
0.000186845
0.000186417
0.000186913
0.000207357
0.000206838
0.000207874
0.000207414
0.000185913
0.000186452
0.000207406
0.000206409
0.00020778
0.000206967
0.000207681
0.000207049
0.000206716
0.000185619
0.0001859
0.000207655
0.000206596
0.000206653
0.000185637
0.000186919
0.000188135
0.000208132
0.000208028
0.000209456
0.000209877
0.000186704
0.00018855
0.000208047
0.000207806
0.000209567
0.000210916
0.000206718
0.000209825
0.000209168
0.000186291
0.000189667
0.00020666
0.000210882
0.000209333
0.000188252
0.000188183
0.00018831
0.000209884
0.000210206
0.000210228
0.000210342
0.000188566
0.00018835
0.000210068
0.000211542
0.0002105
0.000211813
0.000210102
0.00021053
0.000211077
0.000189865
0.000189533
0.000210323
0.000212005
0.000211321
0.000189118
0.000188076
0.000187291
0.000210064
0.000210003
0.000209393
0.000209123
0.000188089
0.000187089
0.000210347
0.000211038
0.000209382
0.000208363
0.000211048
0.000209244
0.000209557
0.000189082
0.000186206
0.000211261
0.00020844
0.000209474
0.000187319
0.000187245
0.000189048
0.000209407
0.000209114
0.000210922
0.000210679
0.000186973
0.000188837
0.000209336
0.000207975
0.000210438
0.00020835
0.000209169
0.000210375
0.000209225
0.000185909
0.000187024
0.000209
0.000208113
0.00020892
0.000187542
0.000189224
0.000190115
0.000211532
0.000211424
0.000212524
0.000212816
0.000189107
0.000190517
0.000211176
0.000209553
0.000212551
0.000212835
0.000210006
0.000212943
0.000213353
0.000187542
0.000190535
0.000209655
0.000212972
0.000213407
0.000191025
0.000189963
0.000189515
0.000212678
0.000213019
0.000212576
0.0002128
0.000190439
0.000189747
0.000212744
0.000213545
0.000212863
0.000214476
0.000214061
0.000213266
0.000214381
0.000190728
0.000191377
0.000214201
0.000214862
0.000214595
0.000191158
0.000189307
0.000188506
0.000212249
0.000212256
0.000211137
0.000210962
0.000189401
0.000187827
0.000212535
0.000214296
0.000211439
0.000212147
0.000213252
0.000210673
0.000209074
0.000191031
0.000188796
0.00021349
0.000211855
0.000209306
0.000185797
0.000188304
0.000189063
0.00021101
0.000210878
0.000211652
0.000211604
0.000187671
0.000189505
0.000211274
0.000211668
0.000211636
0.000210725
0.000208797
0.000211503
0.000211083
0.000188556
0.000188359
0.000209039
0.000210624
0.000211156
0.000189323
0.000189324
0.000191365
0.000212749
0.00021239
0.000214475
0.000214299
0.000189737
0.000191174
0.000212436
0.000210642
0.000213877
0.000211234
0.000213348
0.000214651
0.000217336
0.000188232
0.00018847
0.000213197
0.000211546
0.000216725
0.000194081
0.000191267
0.000188007
0.000214484
0.000214495
0.000212033
0.000212836
0.000191053
0.000189298
0.000213881
0.000211995
0.000212378
0.000214058
0.000217711
0.00021415
0.000214404
0.000188519
0.000190326
0.00021708
0.00021491
0.000214546
0.000190385
0.000187719
0.000191922
0.000211662
0.000211954
0.000214368
0.000211921
0.000188667
0.000187733
0.000212391
0.000214967
0.000215396
0.000216156
0.000211397
0.000210641
0.000204335
0.000190649
0.000192573
0.000212431
0.000214706
0.000205255
0.000180354
0.000192884
0.000192059
0.000216277
0.000213404
0.000216803
0.000217245
0.000188428
0.000195209
0.000216222
0.00021589
0.000214884
0.000212161
0.000204047
0.00021701
0.000214548
0.00019219
0.00018762
0.000204631
0.000211231
0.000211415
0.000191316
0.000190454
0.000185752
0.000214641
0.000217109
0.000209232
0.000211169
0.000195184
0.000187699
0.000212463
0.000212231
0.000211061
0.000219357
0.000221968
0.00021631
0.000232849
0.000187581
0.000199116
0.000219331
0.00022405
0.000234619
0.000212354
0.000185986
0.000193297
0.000209499
0.00021048
0.000217791
0.000216268
0.00018676
0.000189868
0.000212194
0.000221164
0.000218455
0.000218651
0.000232752
0.000214698
0.000209613
0.000200089
0.000190127
0.000235291
0.000217603
0.000211341
0.000181544
0.000195088
0.000216863
0.0002159
0.000192533
0.000216036
0.000210513
0.000239325
0.000234505
0.000227101
0.000201403
0.000186225
0.000201311
9.99902e-05
5.07483e-05
2.38982e-05
9.99884e-05
5.07445e-05
0.000208657
0.000208948
0.000208179
0.000207587
0.000144368
0.000201072
0.00010384
0.000210094
2.38924e-05
0.000144298
0.000201082
0.000210329
0.000103711
0.000181756
7.79291e-05
7.79041e-05
9.99898e-05
5.07586e-05
9.99471e-05
5.07712e-05
2.39028e-05
2.39059e-05
9.98825e-05
5.07544e-05
9.98671e-05
5.0768e-05
0.000209806
0.000208524
0.000208848
0.000209694
0.000211686
0.000210402
0.000212397
0.000145127
0.000104015
0.000212508
0.000203201
0.000144841
0.000104065
0.000213259
2.38985e-05
2.39043e-05
0.000144845
0.000211655
0.000103673
0.000202013
0.000144543
0.000212285
0.000103835
7.81501e-05
7.8132e-05
0.00018407
7.8233e-05
7.82285e-05
0.000100202
5.07903e-05
0.000100102
5.07995e-05
2.39088e-05
2.39121e-05
0.000100277
5.0788e-05
0.000100119
5.0797e-05
0.00021199
0.000211175
0.000213162
0.000213926
0.000212626
0.000213576
0.000213447
0.000145208
0.000103994
0.000214682
0.000203744
0.000145224
0.000103909
0.000214762
2.39098e-05
2.39134e-05
0.000145306
0.000214232
0.000104016
0.000203991
0.000145199
0.000214695
0.000104075
7.82137e-05
7.82332e-05
0.000184791
7.8074e-05
7.81025e-05
0.000100292
5.08055e-05
0.000100266
5.08082e-05
2.39183e-05
2.39234e-05
0.00010035
5.08031e-05
0.000100336
5.08057e-05
0.000213027
0.000214383
0.000213177
0.000216702
0.000215045
0.000216199
0.000213867
0.000145045
0.000103801
0.00021457
0.000204174
0.000145017
0.000103996
0.000214721
2.39168e-05
2.39197e-05
0.000145315
0.000215518
0.000104128
0.000205309
0.000145277
0.000215757
0.000104203
7.78357e-05
7.78537e-05
0.000183861
7.78835e-05
7.78647e-05
0.00010029
5.08112e-05
0.000100282
5.08172e-05
2.39281e-05
2.3931e-05
0.000100245
5.08075e-05
0.000100292
5.08125e-05
0.000215858
0.000216473
0.000214784
0.000216383
0.000218065
0.000217061
0.000218157
0.000145989
0.000104316
0.000216451
0.000206357
0.000145572
0.000104443
0.000217242
2.39229e-05
2.39265e-05
0.000145836
0.000216668
0.000104243
0.000205912
0.000145545
0.000217042
0.000104281
7.81886e-05
7.81516e-05
0.000185996
7.83584e-05
7.83314e-05
0.000100302
5.08296e-05
0.000100301
5.08371e-05
2.39328e-05
2.39347e-05
0.000100304
5.08258e-05
0.000100232
5.08343e-05
0.000218593
0.000217463
0.000219132
0.000218623
0.000219207
0.000218381
0.00022072
0.000146239
0.000104419
0.000219267
0.000207487
0.00014619
0.000104302
0.00021961
2.39304e-05
2.39328e-05
0.00014609
0.000218517
0.000104286
0.000206938
0.000146036
0.000218992
0.000104242
7.84337e-05
7.8437e-05
0.000187382
7.83081e-05
7.83331e-05
0.000100203
5.08459e-05
0.000100218
5.08545e-05
2.39393e-05
2.39455e-05
0.000100193
5.08428e-05
0.000100243
5.08508e-05
0.000219171
0.000218373
0.000220495
0.000220471
0.000219647
0.000219069
0.000219227
0.000145587
0.000103952
0.000219419
0.000206935
0.000145832
0.000103938
0.000219114
2.39358e-05
2.3942e-05
0.000145454
0.00021901
0.000103856
0.000206464
0.000145749
0.00021875
0.000103728
7.7975e-05
7.79721e-05
0.000186006
7.78795e-05
7.78626e-05
0.000100486
5.08671e-05
0.000100332
5.0874e-05
2.39523e-05
2.39554e-05
0.00010049
5.08646e-05
0.00010026
5.08724e-05
0.000220253
0.000220017
0.000218953
0.00022261
0.000222939
0.000224144
0.000221596
0.000146328
0.000104359
0.000218987
0.000208401
0.000145709
0.000104653
0.000219642
2.39526e-05
2.39591e-05
0.000146338
0.000218786
0.000104148
0.000208539
0.00014552
0.000219785
0.000104709
7.80895e-05
7.80893e-05
0.00018645
7.82967e-05
7.83282e-05
0.000100662
5.08768e-05
0.000100631
5.0876e-05
2.39558e-05
2.39559e-05
0.000100867
5.08761e-05
0.000100803
5.08746e-05
0.000223833
0.00022549
0.000223136
0.000225257
0.000225319
0.000226994
0.000226305
0.000147116
0.000104813
0.000222604
0.000210458
0.000146942
0.000104748
0.000223235
2.39591e-05
2.39551e-05
0.00014768
0.000223656
0.000105346
0.000211954
0.000147386
0.000224379
0.000105416
7.84584e-05
7.85052e-05
0.000189161
7.84477e-05
7.84543e-05
0.000100124
5.08734e-05
0.000100318
5.08802e-05
2.39562e-05
2.39602e-05
0.000100108
5.08698e-05
0.000100399
5.08743e-05
0.000225227
0.000226914
0.000226539
0.000224925
0.000224527
0.000224412
0.000225735
0.000146327
0.000104254
0.000223703
0.000209834
0.000146712
0.000104011
0.000223522
2.39494e-05
2.39516e-05
0.000146273
0.000224746
0.000104437
0.000210259
0.000146956
0.000224105
0.000103907
7.82118e-05
7.8163e-05
0.000188305
7.80309e-05
7.79812e-05
0.000100297
5.09016e-05
0.00010006
5.09144e-05
2.39689e-05
2.39748e-05
0.000100118
5.08942e-05
9.99081e-05
5.09081e-05
0.00022437
0.000223583
0.000225019
0.000226028
0.000225925
0.00022263
0.000224164
0.000145928
0.000103892
0.000222392
0.000209244
0.000145795
0.000104245
0.000222314
2.39616e-05
2.39696e-05
0.000145319
0.000221431
0.000103468
0.000207772
0.000145309
0.00022105
0.000103739
7.78378e-05
7.78073e-05
0.00018691
7.79582e-05
7.79445e-05
0.000100696
5.09216e-05
0.000100545
5.09216e-05
2.39787e-05
2.398e-05
0.000100622
5.09174e-05
0.000100419
5.09193e-05
0.000226861
0.000223252
0.000224551
0.000229
0.000229512
0.000228719
0.000229484
0.000147169
0.000104696
0.000223663
0.000211876
0.000146657
0.000104914
0.000224643
2.39766e-05
2.39809e-05
0.000147001
0.000221711
0.000104314
0.000210526
0.000146238
0.000223236
0.000104676
7.82229e-05
7.82238e-05
0.000189312
7.84341e-05
7.84706e-05
0.000100631
5.09159e-05
0.000100718
5.09138e-05
2.39783e-05
2.39777e-05
0.000100781
5.09164e-05
0.000100798
5.09138e-05
0.0002302
0.000230359
0.000231023
0.000230665
0.000230884
0.000232817
0.000232429
0.000147966
0.000105024
0.000227169
0.000213452
0.000147773
0.000104912
0.000227553
2.39816e-05
2.39804e-05
0.000148318
0.000227656
0.000105173
0.00021439
0.000147961
0.000228413
0.000105319
7.88834e-05
7.8943e-05
0.000192075
7.89625e-05
7.89804e-05
0.000100066
5.09102e-05
0.000100266
5.09105e-05
2.39762e-05
2.39796e-05
0.000100194
5.09095e-05
0.00010038
5.09096e-05
0.000230771
0.000233041
0.000232108
0.000229666
0.000229392
0.000231651
0.000227892
0.000145908
0.000104156
0.000227306
0.000211705
0.000146936
0.000103687
0.000226225
2.39766e-05
2.39788e-05
0.000146236
0.000228835
0.000104536
0.000213577
0.000147257
0.000227839
0.000104078
7.806e-05
7.80289e-05
0.000187939
7.73188e-05
7.72897e-05
9.99697e-05
5.09212e-05
9.98644e-05
5.09371e-05
2.39885e-05
2.3994e-05
0.000100024
5.09164e-05
9.99944e-05
5.09287e-05
0.00022905
0.000230893
0.000227232
0.000229365
0.000229036
0.000228609
0.000227773
0.000145585
0.000103686
0.000224067
0.00021056
0.00014498
0.000104267
0.000223999
2.39824e-05
2.39845e-05
0.000145749
0.000224937
0.000104074
0.000211
0.000145399
0.000224568
0.000104371
7.70462e-05
7.70151e-05
0.000185992
7.76256e-05
7.76592e-05
0.000100681
5.09585e-05
0.000100283
5.09643e-05
2.39961e-05
2.39976e-05
0.000100432
5.0949e-05
0.000100232
5.09566e-05
0.000229801
0.000228125
0.000229848
0.000233238
0.000233253
0.000228397
0.000236607
0.000147833
0.000104805
0.000226
0.00021321
0.00014706
0.00010484
0.000227564
2.39842e-05
2.39873e-05
0.00014696
0.000224614
0.000104214
0.000210616
0.000146601
0.000225174
0.000103906
7.86016e-05
7.85922e-05
0.000192411
7.90138e-05
7.89005e-05
0.000100379
5.09388e-05
0.000100926
5.09195e-05
2.39923e-05
2.39914e-05
9.98913e-05
5.09339e-05
0.00010031
5.0921e-05
0.000234085
0.000230029
0.000237388
0.000232666
0.000234334
0.000235217
0.000235867
0.000148315
0.000104667
0.000230729
0.000215252
0.000148444
0.000104438
0.000231097
2.39888e-05
2.39951e-05
0.000147462
0.00022837
0.000103845
0.000213413
0.00014728
0.000229305
0.000103995
7.95702e-05
7.94659e-05
0.00019378
7.93118e-05
7.93756e-05
9.89286e-05
5.09247e-05
9.90763e-05
5.09671e-05
2.39912e-05
2.40024e-05
0.000100389
5.09336e-05
9.96452e-05
5.09703e-05
0.000233497
0.000236353
0.000233038
0.000235523
0.000232356
0.000236867
0.000224472
0.000143608
0.000103446
0.000227924
0.000211302
0.000145709
0.000102768
0.000225503
2.40074e-05
2.40116e-05
0.000146306
0.000230252
0.000104615
0.000215428
0.000147032
0.000229714
0.00010484
7.71155e-05
7.7692e-05
0.000184837
7.5349e-05
7.59167e-05
0.000101873
5.09989e-05
0.000100883
5.09793e-05
2.40129e-05
2.4015e-05
0.00010075
5.09775e-05
0.00010119
5.09585e-05
0.000232726
0.000235831
0.00022372
0.000236626
0.000236321
0.000232597
0.000230552
0.000145565
0.000103872
0.000223064
0.000212343
0.000142708
0.000105706
0.000223576
2.39878e-05
2.39843e-05
0.000143306
0.000224771
0.000104169
0.000211674
0.000143832
0.000223964
0.000103312
7.49876e-05
7.48333e-05
0.000180973
7.65185e-05
7.57943e-05
9.92974e-05
5.08968e-05
0.000100821
5.09041e-05
2.39846e-05
2.3979e-05
9.93054e-05
5.09123e-05
9.93203e-05
5.09216e-05
0.000236587
0.000232824
0.000239389
0.000230645
0.000234687
0.000241914
0.000255957
0.000152332
0.000107039
0.000233688
0.000218254
0.000150894
0.00010515
0.000236069
2.39921e-05
2.40178e-05
0.000151275
0.000226372
0.000103831
0.000215098
0.000146344
0.000232335
0.000105711
8.09779e-05
8.06201e-05
0.000205329
8.27954e-05
8.37014e-05
9.95506e-05
5.09273e-05
9.85145e-05
5.09777e-05
2.39828e-05
2.40182e-05
0.000101838
5.09208e-05
0.000101358
5.09545e-05
0.000234125
0.00024391
0.000257171
0.000235518
0.000235011
0.000240035
0.000236041
0.0001462
0.000102797
0.000237375
0.000213871
0.00014997
0.000102268
0.000234336
2.40121e-05
2.39953e-05
0.000153932
0.00024513
0.000108855
0.000226305
0.000157488
0.000245783
0.000107075
8.19025e-05
8.32182e-05
0.000202911
7.79179e-05
7.77765e-05
0.000108059
5.50566e-05
0.000100508
8.58372e-05
2.70345e-05
4.62964e-05
0.000103325
5.50025e-05
9.84161e-05
8.5657e-05
0.000250796
0.000246269
0.000246146
0.000237584
0.000252126
0.000248483
0.000243285
0.000142356
0.000104312
0.000227097
0.000211964
0.00014144
0.000107139
0.000221636
2.6897e-05
4.45125e-05
0.000133864
0.000223963
0.000100621
0.000197534
0.000138703
0.000212603
0.000100102
7.27727e-05
7.15682e-05
0.000173102
7.83268e-05
7.68351e-05
2.38946e-05
2.38931e-05
0.000182881
7.79513e-05
7.79298e-05
2.3899e-05
2.38949e-05
2.38977e-05
2.38933e-05
0.00018266
7.78151e-05
7.77866e-05
7.79016e-05
7.78763e-05
9.99982e-05
5.07575e-05
0.000144532
0.000201675
0.000103779
0.000211438
0.000144533
0.000201387
0.000103817
0.000211212
9.99715e-05
5.07566e-05
5.07491e-05
9.99625e-05
9.9986e-05
5.07673e-05
5.0759e-05
9.99991e-05
0.000144503
0.000201532
0.000103612
0.00021167
0.000103707
0.000211576
0.000144532
0.000144523
0.000201848
0.000103931
0.000211991
0.00010382
0.000211627
0.000144597
0.000182679
7.80286e-05
7.80706e-05
2.38995e-05
2.39026e-05
2.38986e-05
0.000182833
7.8103e-05
7.81522e-05
7.80381e-05
7.80914e-05
2.39033e-05
2.38999e-05
0.000144506
0.000201773
0.000103764
0.000211679
9.99738e-05
5.07419e-05
0.000144482
0.00020142
0.000211477
0.000103691
9.99526e-05
5.07524e-05
5.07453e-05
9.98928e-05
0.000144447
0.000201587
0.000103562
0.000211431
0.000103679
0.000211597
0.000144384
9.99429e-05
5.07517e-05
5.07431e-05
9.98936e-05
0.000144427
0.00020139
0.000211433
0.000103606
0.000211491
0.000103645
0.000144381
9.99518e-05
5.07579e-05
0.000144304
0.000200105
0.000209626
0.000103643
9.99232e-05
5.07536e-05
0.000144423
0.000201659
0.000104007
0.000211703
0.000103857
0.00021089
0.000144795
9.99643e-05
5.07672e-05
5.07595e-05
0.000100104
0.000144366
0.000200907
0.000211416
0.00010396
0.000210495
0.00010368
0.000144774
9.99385e-05
5.07669e-05
5.0756e-05
0.000100097
0.000182536
7.78911e-05
7.79511e-05
2.3895e-05
2.38977e-05
2.38928e-05
0.000182435
7.78327e-05
7.79057e-05
7.78617e-05
7.79282e-05
2.39001e-05
2.38954e-05
0.00014425
0.000200178
0.00020983
0.000103607
9.98992e-05
5.07455e-05
9.9889e-05
5.07525e-05
0.000144308
0.000201175
0.00021113
0.000103679
0.000210711
0.000103684
0.000144514
0.000144277
0.00020089
0.00021115
0.000103915
0.000210463
0.000103635
0.00014456
9.98915e-05
5.07565e-05
5.07469e-05
9.99638e-05
9.98904e-05
5.07668e-05
5.0755e-05
9.9999e-05
2.38979e-05
2.38972e-05
0.000182068
7.81204e-05
7.80996e-05
7.7966e-05
7.7938e-05
2.39035e-05
2.38986e-05
2.39032e-05
2.3898e-05
2.38997e-05
2.39061e-05
2.38985e-05
2.39051e-05
7.779e-05
7.77608e-05
0.000182378
7.78454e-05
7.78365e-05
2.39132e-05
2.3907e-05
2.39123e-05
2.3906e-05
0.000182445
7.80379e-05
7.80505e-05
7.78663e-05
7.78638e-05
0.000100043
5.07685e-05
9.99914e-05
5.07745e-05
0.000144623
0.000103571
0.000211797
0.000201425
0.000144512
0.000103615
0.000212007
0.000144732
0.000103937
0.000212331
0.000202942
0.000144594
0.000104005
0.000212652
9.99909e-05
5.07881e-05
5.0774e-05
0.000100094
0.000100042
5.078e-05
5.07753e-05
0.000100112
0.000144639
0.000201816
0.000103883
0.00021277
0.000103625
0.000212333
0.000144886
0.000144746
0.000203159
0.000103991
0.000213249
0.000103994
0.000212958
0.000144944
7.81085e-05
7.81573e-05
0.000183884
7.81246e-05
7.81645e-05
2.39035e-05
2.39061e-05
2.39086e-05
2.39061e-05
0.000183886
7.80793e-05
7.8071e-05
7.81201e-05
7.81466e-05
2.39084e-05
2.39061e-05
0.000144365
0.000103515
0.000211335
0.000201188
0.000144327
0.000103562
0.000211423
9.98964e-05
5.07538e-05
9.987e-05
5.07666e-05
0.000144394
0.000211447
0.000103582
0.000201708
0.000144332
0.000211619
0.00010371
9.98982e-05
5.07858e-05
5.0771e-05
0.000100091
0.000144392
0.000201555
0.000103889
0.000212306
0.000103577
0.000211756
0.000144802
9.99122e-05
5.07796e-05
5.07689e-05
0.000100094
0.000144425
0.000202114
0.000212497
0.000103954
0.00021198
0.000103729
0.000144826
0.000100202
5.07682e-05
0.000100114
5.07735e-05
0.000145136
0.000212346
0.00010399
0.000203251
0.000144827
0.000213234
0.000104154
0.000100207
5.07683e-05
0.000100109
5.07747e-05
0.000145148
0.000203543
0.000104037
0.000214396
0.000104053
0.000213909
0.000145254
0.000100201
5.0779e-05
5.07743e-05
0.000100218
0.000145163
0.000203862
0.000214653
0.000104197
0.000214025
0.000104158
0.000145286
0.000100208
5.07795e-05
5.07754e-05
0.000100231
7.78329e-05
7.79075e-05
0.000182848
7.7943e-05
7.80115e-05
2.39008e-05
2.3906e-05
2.39095e-05
2.39049e-05
0.00018297
7.80708e-05
7.80868e-05
7.79682e-05
7.80239e-05
2.39105e-05
2.39065e-05
0.00014493
0.000211911
0.000103947
0.000203103
0.000144601
0.000212712
0.000104134
0.000100096
5.07587e-05
9.99669e-05
5.07707e-05
0.000100139
5.07684e-05
0.000100009
5.07753e-05
0.000144889
0.000202531
0.000213644
0.000104014
0.000212974
0.000103853
0.00014518
0.000144974
0.000203713
0.000214189
0.000104193
0.000213498
0.000104143
0.000145243
0.000100106
5.07814e-05
5.07726e-05
0.000100202
0.000100149
5.078e-05
5.07761e-05
0.000100224
2.39039e-05
2.39073e-05
2.39037e-05
2.39072e-05
0.00018425
7.82511e-05
7.8259e-05
7.82399e-05
7.8239e-05
2.39094e-05
2.39074e-05
2.39093e-05
2.39073e-05
2.39139e-05
2.39184e-05
2.39129e-05
2.39173e-05
7.80762e-05
7.80923e-05
0.000184397
7.82284e-05
7.82501e-05
2.39212e-05
2.39187e-05
2.39198e-05
2.39175e-05
0.000184692
7.83277e-05
7.83465e-05
7.82579e-05
7.82806e-05
0.000100172
5.07809e-05
0.000100113
5.0787e-05
0.0001452
0.000103922
0.000213313
0.000203772
0.00014492
0.000104185
0.000213938
0.000145158
0.000103963
0.000213547
0.000203407
0.000144962
0.000103925
0.000213882
0.000100206
5.08051e-05
5.08005e-05
0.000100268
0.000100171
5.07981e-05
5.07885e-05
0.000100224
0.000145231
0.000204464
0.000104345
0.000215315
0.000104213
0.000214623
0.000145464
0.000145173
0.000203526
0.000103918
0.000214766
0.000103897
0.000214288
0.000145359
7.80483e-05
7.803e-05
0.000184058
7.79881e-05
7.79365e-05
2.39085e-05
2.39119e-05
2.39176e-05
2.39126e-05
0.000183916
7.79802e-05
7.79001e-05
7.79664e-05
7.79043e-05
2.39178e-05
2.39123e-05
0.000145342
0.000103935
0.000213032
0.000203768
0.000144881
0.00010421
0.00021387
0.000100261
5.07811e-05
0.000100118
5.0788e-05
0.000145324
0.00021314
0.000103972
0.000203699
0.000144898
0.000213873
0.000104115
0.000100287
5.08027e-05
5.07981e-05
0.000100339
0.000145397
0.000204526
0.000104376
0.000215619
0.000104241
0.000214758
0.000145661
0.00010027
5.07948e-05
5.07891e-05
0.000100323
0.000145373
0.000204247
0.000215446
0.000104207
0.00021466
0.000104122
0.000145625
0.000100182
5.07797e-05
0.000100206
5.07847e-05
0.00014525
0.000215038
0.00010418
0.000204524
0.00014526
0.000215146
0.000104097
0.000100201
5.07799e-05
0.000100221
5.07819e-05
0.000145152
0.000203678
0.000103815
0.000214593
0.00010385
0.0002147
0.000145073
0.000100143
5.07947e-05
5.07859e-05
0.000100073
0.000145193
0.000204339
0.000214819
0.000103816
0.000215029
0.000104002
0.000145082
0.00010016
5.07862e-05
5.0782e-05
0.000100073
7.80873e-05
7.80844e-05
0.000184385
7.81475e-05
7.81032e-05
2.39108e-05
2.39145e-05
2.39167e-05
2.39136e-05
0.000184496
7.81885e-05
7.81497e-05
7.81559e-05
7.80995e-05
2.39187e-05
2.39149e-05
0.000145318
0.000214714
0.000104179
0.000204508
0.000145252
0.000215025
0.000104115
0.000100209
5.07826e-05
0.000100198
5.07892e-05
0.000100221
5.07804e-05
0.000100218
5.07828e-05
0.00014528
0.000204369
0.000215292
0.000104128
0.000215038
0.000104068
0.000145309
0.000145283
0.000204353
0.000215108
0.000103864
0.000215136
0.000104033
0.000145272
0.000100193
5.07968e-05
5.07903e-05
0.00010018
0.000100205
5.07875e-05
5.07831e-05
0.000100165
2.39092e-05
2.39107e-05
2.39091e-05
2.39105e-05
0.000184575
7.78698e-05
7.78921e-05
7.80067e-05
7.80362e-05
2.39141e-05
2.39106e-05
2.39135e-05
2.39104e-05
2.39212e-05
2.39226e-05
2.39196e-05
2.39208e-05
7.83313e-05
7.83487e-05
0.000185989
7.83063e-05
7.82977e-05
2.3924e-05
2.39224e-05
2.39221e-05
2.39205e-05
0.000185925
7.81414e-05
7.81093e-05
7.82598e-05
7.82428e-05
0.000100269
5.08002e-05
0.000100222
5.08113e-05
0.000145639
0.000104344
0.00021596
0.000205938
0.000145483
0.00010437
0.000216487
0.000145557
0.00010392
0.0002153
0.000204575
0.000145375
0.000104087
0.000215838
0.000100284
5.08106e-05
5.08084e-05
0.000100293
0.000100265
5.0821e-05
5.0813e-05
0.000100295
0.00014563
0.000206072
0.00010424
0.000217071
0.000104334
0.000216863
0.000145701
0.000145566
0.000205075
0.000104267
0.000216768
0.000104105
0.00021634
0.00014569
7.79933e-05
7.79277e-05
0.000184528
7.81109e-05
7.80845e-05
2.39187e-05
2.39246e-05
2.39278e-05
2.39239e-05
0.0001847
7.8225e-05
7.82639e-05
7.81313e-05
7.81264e-05
2.39294e-05
2.39252e-05
0.000145771
0.000104373
0.000216389
0.000206111
0.000145672
0.000104393
0.000217005
0.000100336
5.07957e-05
0.000100321
5.08009e-05
0.000145738
0.000216188
0.000104204
0.000205651
0.000145638
0.000216815
0.000104232
0.000100339
5.08071e-05
5.08057e-05
0.000100322
0.000145751
0.000206226
0.000104227
0.00021755
0.000104343
0.000217411
0.000145759
0.000100326
5.08068e-05
5.08017e-05
0.000100317
0.000145719
0.000205916
0.000217447
0.000104223
0.000217256
0.00010422
0.000145743
0.00010005
5.07969e-05
0.000100038
5.081e-05
0.000145004
0.00021462
0.000103747
0.000203695
0.000145013
0.00021452
0.000103734
0.000100022
5.07879e-05
0.000100029
5.08008e-05
0.000145073
0.000204664
0.000104287
0.000215706
0.000104035
0.000215109
0.000145492
0.000100061
5.08216e-05
5.08122e-05
0.000100262
0.000145019
0.000203721
0.000215319
0.000104108
0.000214686
0.000103754
0.000145433
0.000100028
5.08188e-05
5.08039e-05
0.000100239
7.81885e-05
7.81566e-05
0.000185438
7.81934e-05
7.82019e-05
2.3919e-05
2.39224e-05
2.39227e-05
2.39198e-05
0.000185428
7.81611e-05
7.82207e-05
7.81865e-05
7.82042e-05
2.39256e-05
2.39226e-05
0.000145227
0.000215059
0.000103794
0.000203848
0.000145226
0.000215101
0.000103765
0.000100154
5.0798e-05
0.000100159
5.08043e-05
0.000100111
5.07891e-05
0.00010013
5.08011e-05
0.000145312
0.000205534
0.000216336
0.000104247
0.000216035
0.000104202
0.000145508
0.000145218
0.000203905
0.000215754
0.000104079
0.00021533
0.00010377
0.000145442
0.000100146
5.08114e-05
5.08054e-05
0.00010024
0.000100099
5.08187e-05
5.0804e-05
0.000100213
2.39148e-05
2.39214e-05
2.39141e-05
2.39203e-05
0.000183807
7.81368e-05
7.81025e-05
7.79268e-05
7.79016e-05
2.39286e-05
2.39224e-05
2.39277e-05
2.39213e-05
2.39241e-05
2.39277e-05
2.39222e-05
2.39261e-05
7.80949e-05
7.80588e-05
0.000185424
7.80217e-05
7.79847e-05
2.39332e-05
2.39282e-05
2.39322e-05
2.39267e-05
0.000185231
7.80459e-05
7.80385e-05
7.80038e-05
7.79665e-05
0.000100317
5.08219e-05
0.000100289
5.08265e-05
0.000145725
0.000104164
0.000217163
0.000205819
0.000145677
0.000104073
0.000217209
0.000145773
0.000104278
0.000217131
0.00020638
0.000145682
0.000104358
0.00021745
0.000100282
5.0828e-05
5.08187e-05
0.000100308
0.000100314
5.08302e-05
5.0827e-05
0.000100341
0.000145704
0.000205738
0.000104069
0.000217508
0.00010404
0.000217311
0.00014579
0.000145769
0.00020671
0.000104372
0.000218069
0.000104351
0.000217765
0.00014587
7.82377e-05
7.8291e-05
0.000186158
7.82763e-05
7.83431e-05
2.39296e-05
2.39319e-05
2.3933e-05
2.3931e-05
0.000186226
7.82591e-05
7.82868e-05
7.82756e-05
7.83416e-05
2.39332e-05
2.39318e-05
0.000145644
0.000104136
0.000217456
0.000205872
0.000145711
0.000104026
0.000217311
0.000100266
5.08077e-05
0.000100297
5.08134e-05
0.000145674
0.00021743
0.0001042
0.000206025
0.000145701
0.00021735
0.000104193
0.000100223
5.08239e-05
5.0814e-05
0.000100227
0.000145592
0.000205726
0.000104022
0.000217106
0.000103987
0.000217182
0.000145604
0.000100248
5.08203e-05
5.08145e-05
0.000100253
0.000145628
0.000206017
0.000217278
0.000104198
0.000217282
0.000104177
0.000145653
0.000100416
5.08227e-05
0.000100284
5.08275e-05
0.000145981
0.000216164
0.000104167
0.000206053
0.000145521
0.000217072
0.000104451
0.000100415
5.08208e-05
0.000100264
5.08292e-05
0.000146024
0.000206876
0.000104461
0.000218702
0.000104439
0.000218003
0.000146197
0.000100424
5.08307e-05
5.08279e-05
0.000100471
0.000146024
0.000206917
0.000218798
0.000104605
0.00021796
0.000104485
0.00014623
0.000100425
5.08331e-05
5.08301e-05
0.000100488
7.81496e-05
7.82193e-05
0.000185749
7.81467e-05
7.82269e-05
2.39258e-05
2.39289e-05
2.39303e-05
2.39268e-05
0.000185645
7.81515e-05
7.82217e-05
7.81437e-05
7.82254e-05
2.39317e-05
2.3929e-05
0.000145855
0.000216343
0.000104131
0.000206045
0.000145494
0.00021702
0.000104418
0.000100354
5.08124e-05
0.00010025
5.08181e-05
0.000100361
5.08207e-05
0.000100227
5.08287e-05
0.000145866
0.000206105
0.000217986
0.0001043
0.000217484
0.000104274
0.000146042
0.000145895
0.000206841
0.000218396
0.000104587
0.000217716
0.000104454
0.000146107
0.000100359
5.08241e-05
5.0819e-05
0.0001004
0.00010037
5.08322e-05
5.08295e-05
0.000100432
2.39292e-05
2.39332e-05
2.39283e-05
2.39327e-05
0.000186321
7.84418e-05
7.84357e-05
7.83881e-05
7.83669e-05
2.3935e-05
2.39333e-05
2.39348e-05
2.39329e-05
2.39337e-05
2.39379e-05
2.39328e-05
2.39372e-05
7.80527e-05
7.80567e-05
0.000185711
7.81158e-05
7.81397e-05
2.3942e-05
2.39383e-05
2.39409e-05
2.39375e-05
0.000185864
7.81411e-05
7.81551e-05
7.8115e-05
7.81427e-05
0.000100326
5.08304e-05
0.000100332
5.08327e-05
0.000145869
0.000104074
0.000217807
0.000206262
0.00014579
0.00010419
0.000218148
0.000145907
0.000104345
0.000218345
0.000207118
0.000145859
0.000104258
0.000218549
0.000100284
5.08446e-05
5.08382e-05
0.000100247
0.000100298
5.08385e-05
5.08331e-05
0.000100239
0.000145841
0.000206737
0.000104224
0.000218783
0.000104186
0.00021849
0.000145856
0.000145869
0.000207043
0.000104048
0.000218747
0.000104178
0.000218684
0.000145841
7.82188e-05
7.82372e-05
0.000186573
7.81035e-05