/*--------------------------------*- C++ -*----------------------------------*\
| =========                 |                                                 |
| \\      /  F ield         | OpenFOAM: The Open Source CFD Toolbox           |
|  \\    /   O peration     | Version:  v1906                                 |
|   \\  /    A nd           | Web:      www.OpenFOAM.com                      |
|    \\/     M anipulation  |                                                 |
\*---------------------------------------------------------------------------*/
FoamFile
{
    version     2.0;
    format      ascii;
    class       volScalarField;
    location    "625";
    object      p;
}
// * * * * * * * * * * * * * * * * * * * * * * * * * * * * * * * * * * * * * //

dimensions      [0 2 -2 0 0 0 0];


internalField   nonuniform List<scalar> 
43248
(
0.00265302
0.00265298
0.00265298
0.00265543
0.00261313
0.00261308
0.00261309
0.00261553
0.00257348
0.00257343
0.00257343
0.00257586
0.00253406
0.002534
0.002534
0.00253642
0.00249485
0.00249479
0.00249479
0.0024972
0.00245585
0.00245579
0.00245579
0.00245818
0.00241704
0.002417
0.002417
0.00241936
0.00237844
0.0023784
0.0023784
0.00238074
0.00234002
0.00233998
0.00233998
0.00234231
0.00230178
0.00230175
0.00230175
0.00230405
0.00226373
0.00226369
0.00226369
0.00226597
0.00222583
0.0022258
0.0022258
0.00222807
0.0021881
0.00218808
0.00218808
0.00219032
0.00215051
0.0021505
0.0021505
0.00215272
0.00211308
0.00211307
0.00211307
0.00211528
0.0020758
0.00207579
0.00207579
0.00207798
0.00203869
0.00203868
0.00203868
0.00204084
0.00200175
0.0020017
0.0020017
0.00200387
0.00196482
0.00196481
0.00196479
0.00196694
0.00192805
0.00192804
0.00192805
0.00193017
0.00189151
0.00189142
0.00189144
0.00189356
0.00185492
0.00185482
0.00185481
0.00185693
0.00181816
0.00181824
0.00181817
0.00182032
0.00178138
0.00178158
0.00178161
0.00178378
0.0017464
0.00174629
0.00174654
0.00174861
0.00171339
0.00171314
0.00171258
0.00171418
0.00167626
0.00167516
0.00167489
0.00167718
0.00266065
0.00266299
0.00266299
0.00266065
0.00266299
0.00266299
0.00266299
0.00266299
0.00266065
0.00266299
0.00266299
0.00266065
0.00265543
0.00262072
0.00265298
0.00265298
0.00262304
0.00262303
0.00265543
0.00262072
0.00265298
0.00265298
0.00262304
0.00262303
0.00265298
0.00262304
0.00262304
0.00265543
0.00262072
0.00265298
0.00262304
0.00262304
0.00262072
0.00261553
0.00258103
0.00261309
0.00261308
0.00258332
0.00258332
0.00261553
0.00258103
0.00261309
0.00261309
0.00258332
0.00258332
0.00261309
0.00258332
0.00258332
0.00261553
0.00258103
0.00261308
0.00258332
0.00258332
0.00258103
0.00257586
0.00254157
0.00257343
0.00257343
0.00254384
0.00254384
0.00257586
0.00254157
0.00257343
0.00257343
0.00254384
0.00254384
0.00257343
0.00254384
0.00254384
0.00257586
0.00254157
0.00257343
0.00254384
0.00254384
0.00254157
0.00253642
0.00250232
0.002534
0.002534
0.00250457
0.00250457
0.00253642
0.00250232
0.002534
0.002534
0.00250457
0.00250457
0.002534
0.00250457
0.00250457
0.00253642
0.00250232
0.002534
0.00250457
0.00250457
0.00250232
0.0024972
0.00246328
0.00249479
0.00249479
0.00246553
0.00246553
0.0024972
0.00246328
0.00249479
0.00249479
0.00246553
0.00246553
0.00249479
0.00246553
0.00246553
0.0024972
0.00246328
0.00249479
0.00246553
0.00246552
0.00246328
0.00245818
0.00242445
0.0024558
0.00245579
0.00242668
0.00242668
0.00245818
0.00242445
0.00245579
0.00245579
0.00242668
0.00242668
0.00245579
0.00242668
0.00242668
0.00245818
0.00242444
0.00245579
0.00242668
0.00242668
0.00242444
0.00241936
0.0023858
0.002417
0.002417
0.00238803
0.00238803
0.00241936
0.0023858
0.002417
0.002417
0.00238803
0.00238803
0.002417
0.00238803
0.00238803
0.00241936
0.0023858
0.002417
0.00238803
0.00238803
0.0023858
0.00238074
0.00234735
0.00237839
0.0023784
0.00234957
0.00234957
0.00238074
0.00234735
0.00237839
0.0023784
0.00234957
0.00234957
0.0023784
0.00234957
0.00234957
0.00238074
0.00234735
0.0023784
0.00234957
0.00234957
0.00234735
0.00234231
0.00230908
0.00233998
0.00233998
0.00231129
0.00231129
0.00234231
0.00230908
0.00233998
0.00233998
0.00231129
0.00231129
0.00233998
0.00231129
0.00231129
0.00234231
0.00230908
0.00233998
0.00231129
0.00231129
0.00230908
0.00230405
0.00227098
0.00230175
0.00230175
0.00227319
0.00227319
0.00230405
0.00227098
0.00230175
0.00230175
0.00227319
0.00227319
0.00230175
0.00227319
0.00227319
0.00230405
0.00227098
0.00230175
0.00227319
0.00227319
0.00227098
0.00226597
0.00223306
0.00226369
0.00226369
0.00223526
0.00223526
0.00226597
0.00223306
0.00226369
0.00226369
0.00223526
0.00223526
0.00226369
0.00223526
0.00223526
0.00226598
0.00223306
0.00226369
0.00223526
0.00223526
0.00223306
0.00222806
0.0021953
0.0022258
0.0022258
0.0021975
0.0021975
0.00222806
0.0021953
0.0022258
0.0022258
0.0021975
0.00219749
0.00222581
0.0021975
0.0021975
0.00222807
0.00219529
0.00222581
0.0021975
0.0021975
0.0021953
0.00219032
0.00215768
0.00218808
0.00218808
0.00215988
0.00215988
0.00219032
0.00215768
0.00218808
0.00218808
0.00215988
0.00215989
0.00218808
0.00215988
0.00215988
0.00219032
0.00215769
0.00218808
0.00215988
0.00215988
0.00215768
0.00215272
0.00212023
0.0021505
0.0021505
0.00212242
0.00212242
0.00215272
0.00212023
0.0021505
0.0021505
0.00212242
0.00212241
0.0021505
0.00212242
0.00212241
0.00215272
0.00212022
0.0021505
0.00212241
0.00212241
0.00212023
0.00211528
0.00208291
0.00211308
0.00211308
0.00208509
0.0020851
0.00211528
0.00208291
0.00211308
0.00211307
0.0020851
0.0020851
0.00211308
0.0020851
0.00208509
0.00211528
0.00208291
0.00211307
0.0020851
0.0020851
0.00208291
0.00207798
0.00204577
0.00207579
0.00207579
0.00204794
0.00204794
0.00207798
0.00204577
0.00207579
0.00207579
0.00204794
0.00204795
0.00207579
0.00204794
0.00204794
0.00207798
0.00204577
0.00207579
0.00204795
0.00204794
0.00204577
0.00204085
0.00200877
0.00203867
0.00203868
0.00201095
0.00201094
0.00204085
0.00200876
0.00203867
0.00203868
0.00201095
0.00201094
0.00203867
0.00201094
0.00201095
0.00204085
0.00200876
0.00203867
0.00201093
0.00201094
0.00200877
0.00200386
0.00197183
0.00200172
0.00200171
0.001974
0.00197402
0.00200385
0.00197185
0.00200172
0.00200171
0.001974
0.00197402
0.00200172
0.00197402
0.001974
0.00200386
0.00197185
0.00200172
0.00197402
0.001974
0.00197184
0.00196693
0.00193507
0.00196478
0.00196481
0.00193722
0.0019372
0.00196695
0.00193507
0.00196478
0.0019648
0.00193721
0.00193721
0.00196479
0.0019372
0.00193723
0.00196694
0.00193506
0.00196479
0.00193722
0.00193723
0.00193507
0.00193018
0.00189843
0.00192805
0.00192804
0.0019006
0.00190059
0.00193019
0.00189843
0.00192804
0.00192804
0.0019006
0.00190057
0.00192805
0.00190059
0.00190057
0.00193018
0.00189842
0.00192805
0.00190057
0.00190058
0.00189842
0.00189356
0.00186181
0.00189145
0.00189142
0.00186396
0.00186395
0.00189354
0.00186181
0.00189145
0.00189144
0.00186398
0.00186401
0.00189144
0.00186397
0.001864
0.00189356
0.00186184
0.00189145
0.00186402
0.001864
0.00186184
0.00185692
0.00182522
0.0018548
0.00185481
0.00182733
0.0018274
0.00185692
0.00182525
0.00185482
0.00185481
0.00182731
0.00182729
0.00185481
0.00182738
0.00182731
0.00185692
0.00182517
0.00185481
0.00182727
0.00182728
0.0018252
0.00182032
0.00178867
0.00181817
0.00181826
0.00179073
0.00179072
0.00182036
0.00178873
0.00181814
0.00181817
0.00179072
0.00179073
0.00181815
0.00179073
0.00179067
0.00182032
0.00178874
0.00181814
0.00179076
0.0017907
0.00178864
0.00178382
0.00175307
0.00178164
0.00178157
0.00175501
0.00175469
0.00178386
0.00175285
0.00178165
0.0017816
0.00175504
0.00175496
0.00178157
0.00175472
0.00175515
0.00178385
0.00175305
0.0017816
0.00175497
0.0017552
0.00175319
0.00174847
0.00171891
0.00174645
0.00174629
0.00172117
0.00172175
0.00174833
0.00171948
0.0017465
0.00174652
0.00172117
0.00172146
0.00174666
0.00172168
0.00172109
0.00174851
0.001719
0.00174671
0.00172138
0.00172104
0.00171881
0.00171434
0.00168258
0.00171259
0.00171326
0.00168519
0.00168534
0.00171483
0.0016826
0.00171253
0.00171266
0.00168506
0.00168479
0.00171237
0.00168528
0.00168477
0.00171431
0.00168225
0.00171231
0.00168471
0.00168463
0.00168232
0.00167732
0.00167532
0.00167519
0.00167722
0.00167522
0.00167493
0.00167511
0.00167702
0.00167503
0.00266303
0.00266303
0.00266303
0.00266303
0.00264039
0.00265527
0.00265535
0.00264031
0.00265524
0.00264029
0.00264039
0.00265527
0.00265535
0.00264031
0.00265302
0.00265302
0.00265302
0.00262308
0.00262308
0.00262308
0.00262308
0.00264066
0.00265534
0.00265301
0.00264298
0.00265547
0.00264049
0.00264301
0.00265524
0.00264029
0.00264066
0.00265301
0.00265534
0.00264298
0.00265547
0.00264301
0.00264049
0.00265533
0.00265533
0.00264066
0.00264036
0.00264036
0.00260057
0.00261536
0.00261544
0.00260049
0.00261534
0.00260047
0.00260057
0.00261536
0.00261544
0.00260049
0.00261313
0.00261313
0.00261313
0.00258337
0.00258337
0.00258337
0.00258337
0.00260082
0.00261543
0.00261311
0.00260315
0.00261554
0.00260066
0.00260317
0.00261534
0.00260047
0.00260082
0.00261311
0.00261543
0.00260315
0.00261554
0.00260317
0.00260066
0.00261542
0.00261542
0.00260085
0.00260054
0.00260054
0.00256099
0.0025757
0.00257577
0.00256091
0.00257568
0.0025609
0.00256099
0.0025757
0.00257577
0.00256091
0.00257348
0.00257348
0.00257348
0.0025439
0.0025439
0.0025439
0.0025439
0.00256122
0.00257575
0.00257345
0.00256355
0.00257585
0.00256106
0.00256357
0.00257568
0.00256089
0.00256122
0.00257345
0.00257575
0.00256355
0.00257585
0.00256357
0.00256106
0.00257574
0.00257574
0.00256127
0.00256095
0.00256095
0.00252163
0.00253626
0.00253632
0.00252156
0.00253624
0.00252154
0.00252163
0.00253626
0.00253632
0.00252156
0.00253406
0.00253406
0.00253406
0.00250463
0.00250463
0.00250463
0.00250463
0.00252185
0.0025363
0.00253402
0.00252418
0.0025364
0.00252169
0.00252419
0.00253624
0.00252154
0.00252185
0.00253402
0.0025363
0.00252418
0.0025364
0.00252419
0.00252169
0.0025363
0.0025363
0.00252192
0.00252159
0.00252159
0.00248248
0.00249704
0.0024971
0.00248241
0.00249702
0.0024824
0.00248248
0.00249704
0.0024971
0.00248241
0.00249485
0.00249485
0.00249485
0.00246558
0.00246558
0.00246558
0.00246558
0.00248269
0.00249707
0.0024948
0.00248502
0.00249716
0.00248254
0.00248503
0.00249702
0.0024824
0.00248268
0.0024948
0.00249707
0.00248502
0.00249716
0.00248503
0.00248254
0.00249707
0.00249707
0.00248277
0.00248244
0.00248244
0.00244354
0.00245802
0.00245808
0.00244347
0.002458
0.00244346
0.00244354
0.00245802
0.00245808
0.00244347
0.00245585
0.00245585
0.00245585
0.00242673
0.00242673
0.00242673
0.00242673
0.00244373
0.00245805
0.0024558
0.00244608
0.00245813
0.00244359
0.00244608
0.002458
0.00244346
0.00244373
0.0024558
0.00245805
0.00244608
0.00245813
0.00244608
0.00244359
0.00245806
0.00245806
0.00244384
0.0024435
0.0024435
0.0024048
0.00241921
0.00241926
0.00240473
0.00241919
0.00240472
0.0024048
0.00241921
0.00241926
0.00240473
0.00241704
0.00241704
0.00241704
0.00238807
0.00238807
0.00238807
0.00238807
0.00240498
0.00241923
0.002417
0.00240733
0.0024193
0.00240485
0.00240733
0.00241919
0.00240472
0.00240498
0.002417
0.00241923
0.00240733
0.0024193
0.00240733
0.00240485
0.00241924
0.00241924
0.0024051
0.00240476
0.00240476
0.00236624
0.00238059
0.00238064
0.00236618
0.00238057
0.00236617
0.00236624
0.00238059
0.00238064
0.00236618
0.00237844
0.00237844
0.00237844
0.00234961
0.00234961
0.00234961
0.00234961
0.00236642
0.0023806
0.0023784
0.00236878
0.00238067
0.00236629
0.00236878
0.00238057
0.00236617
0.00236642
0.0023784
0.0023806
0.00236877
0.00238067
0.00236878
0.00236629
0.00238062
0.00238062
0.00236655
0.00236621
0.00236621
0.00232788
0.00234215
0.0023422
0.00232782
0.00234214
0.00232781
0.00232788
0.00234215
0.0023422
0.00232782
0.00234002
0.00234002
0.00234002
0.00231133
0.00231133
0.00231133
0.00231133
0.00232805
0.00234217
0.00233999
0.00233041
0.00234223
0.00232793
0.00233041
0.00234214
0.00232781
0.00232805
0.00233999
0.00234217
0.00233041
0.00234223
0.00233041
0.00232793
0.00234218
0.00234218
0.00232819
0.00232784
0.00232784
0.00228969
0.0023039
0.00230395
0.00228964
0.0023039
0.00228963
0.00228969
0.0023039
0.00230395
0.00228964
0.00230178
0.00230178
0.00230178
0.00227323
0.00227322
0.00227323
0.00227323
0.00228985
0.00230392
0.00230176
0.00229222
0.00230397
0.00228974
0.00229223
0.0023039
0.00228963
0.00228985
0.00230176
0.00230392
0.00229222
0.00230397
0.00229223
0.00228974
0.00230394
0.00230394
0.00229001
0.00228966
0.00228966
0.00225168
0.00226583
0.00226588
0.00225163
0.00226582
0.00225163
0.00225168
0.00226583
0.00226588
0.00225163
0.00226373
0.00226373
0.00226373
0.00223529
0.00223529
0.00223529
0.00223529
0.00225184
0.00226585
0.0022637
0.0022542
0.00226589
0.00225173
0.00225421
0.00226582
0.00225163
0.00225184
0.0022637
0.00226585
0.0022542
0.0022659
0.00225421
0.00225173
0.00226586
0.00226586
0.002252
0.00225165
0.00225165
0.00221384
0.00222793
0.00222797
0.00221379
0.00222792
0.00221378
0.00221383
0.00222793
0.00222797
0.00221379
0.00222583
0.00222583
0.00222583
0.00219752
0.00219752
0.00219752
0.00219752
0.00221399
0.00222794
0.00222582
0.00221636
0.00222799
0.00221388
0.00221637
0.00222792
0.00221379
0.00221399
0.00222582
0.00222794
0.00221636
0.00222798
0.00221637
0.00221389
0.00222796
0.00222796
0.00221416
0.00221381
0.00221381
0.00217615
0.00219019
0.00219023
0.0021761
0.00219018
0.0021761
0.00217615
0.00219019
0.00219023
0.0021761
0.0021881
0.0021881
0.0021881
0.0021599
0.0021599
0.0021599
0.0021599
0.00217631
0.0021902
0.0021881
0.00217867
0.00219024
0.0021762
0.00217869
0.00219019
0.0021761
0.00217631
0.0021881
0.0021902
0.00217867
0.00219024
0.00217869
0.0021762
0.00219021
0.00219021
0.00217648
0.00217613
0.00217612
0.00213862
0.0021526
0.00215264
0.00213857
0.0021526
0.00213858
0.00213861
0.0021526
0.00215264
0.00213857
0.00215051
0.00215051
0.00215051
0.00212243
0.00212243
0.00212242
0.00212242
0.00213877
0.00215261
0.00215052
0.00214113
0.00215265
0.00213867
0.00214115
0.0021526
0.00213858
0.00213877
0.00215052
0.00215261
0.00214113
0.00215265
0.00214115
0.00213867
0.00215263
0.00215263
0.00213893
0.00213859
0.0021386
0.00210123
0.00211517
0.0021152
0.0021012
0.00211516
0.00210119
0.00210123
0.00211516
0.00211519
0.0021012
0.00211309
0.00211308
0.00211308
0.00208511
0.00208511
0.00208511
0.00208511
0.00210138
0.00211517
0.0021131
0.00210374
0.00211521
0.00210128
0.00210377
0.00211516
0.0021012
0.00210138
0.00211309
0.00211517
0.00210374
0.00211521
0.00210376
0.00210129
0.0021152
0.0021152
0.00210155
0.00210122
0.00210122
0.00206401
0.00207788
0.00207791
0.00206397
0.00207788
0.00206398
0.00206401
0.00207788
0.00207791
0.00206397
0.0020758
0.0020758
0.0020758
0.00204794
0.00204795
0.00204796
0.00204795
0.00206415
0.00207789
0.00207582
0.00206649
0.00207792
0.00206406
0.00206653
0.00207788
0.00206397
0.00206415
0.00207582
0.00207789
0.0020665
0.00207792
0.00206653
0.00206405
0.00207791
0.00207791
0.00206432
0.00206399
0.00206399
0.00202692
0.00204075
0.00204078
0.00202687
0.00204074
0.00202688
0.00202692
0.00204076
0.00204078
0.00202688
0.00203869
0.0020387
0.00203869
0.00201098
0.00201097
0.00201096
0.00201096
0.00202707
0.00204076
0.00203871
0.00202943
0.00204079
0.00202697
0.00202946
0.00204075
0.00202688
0.00202706
0.00203872
0.00204075
0.00202942
0.00204079
0.00202946
0.00202696
0.00204077
0.00204077
0.00202724
0.00202689
0.00202689
0.00198997
0.00200374
0.00200377
0.00198993
0.00200374
0.00198994
0.00198996
0.00200373
0.00200377
0.00198992
0.00200173
0.00200172
0.00200173
0.00197405
0.00197404
0.00197406
0.00197405
0.00199011
0.00200375
0.00200175
0.00199247
0.00200379
0.00199001
0.00199252
0.00200374
0.00198994
0.00199012
0.00200174
0.00200375
0.00199248
0.00200379
0.00199252
0.00199003
0.00200377
0.00200377
0.0019903
0.00198995
0.00198995
0.00195313
0.00196687
0.00196689
0.00195311
0.00196688
0.00195311
0.00195313
0.00196687
0.00196689
0.00195311
0.00196484
0.00196483
0.00196482
0.00193721
0.00193722
0.00193722
0.00193723
0.00195326
0.00196687
0.00196485
0.0019556
0.00196689
0.00195319
0.00195564
0.00196686
0.00195311
0.00195326
0.00196484
0.00196688
0.00195558
0.0019669
0.00195563
0.00195318
0.0019669
0.0019669
0.00195344
0.00195316
0.00195316
0.00191642
0.00193015
0.00193015
0.00191638
0.00193011
0.00191639
0.00191643
0.00193015
0.00193016
0.00191638
0.00192805
0.00192806
0.00192807
0.00190065
0.00190065
0.00190063
0.00190062
0.00191656
0.00193012
0.00192808
0.00191889
0.00193015
0.00191647
0.00191893
0.00193014
0.00191638
0.00191655
0.00192809
0.00193013
0.00191888
0.00193015
0.00191893
0.00191646
0.00193016
0.00193016
0.00191672
0.00191636
0.00191637
0.00187977
0.0018934
0.00189346
0.00187972
0.00189344
0.00187974
0.00187979
0.00189343
0.00189348
0.00187974
0.00189149
0.0018915
0.00189151
0.00186406
0.00186401
0.0018641
0.00186409
0.00187992
0.00189346
0.00189149
0.00188226
0.00189349
0.00187982
0.00188233
0.00189342
0.00187973
0.00187993
0.0018915
0.00189343
0.00188232
0.00189348
0.00188237
0.00187982
0.00189343
0.00189343
0.00188015
0.00187973
0.00187971
0.0018432
0.00185684
0.00185689
0.00184314
0.00185686
0.00184312
0.00184313
0.0018568
0.00185685
0.00184311
0.00185487
0.00185492
0.00185491
0.00182737
0.00182745
0.00182733
0.00182737
0.0018433
0.00185685
0.00185489
0.00184567
0.00185689
0.0018432
0.00184574
0.00185677
0.00184307
0.00184326
0.0018549
0.00185682
0.00184559
0.00185688
0.00184571
0.00184317
0.00185677
0.00185676
0.00184347
0.00184313
0.00184314
0.00180667
0.00182035
0.00182029
0.0018068
0.00182022
0.00180665
0.00180673
0.00182035
0.0018203
0.00180681
0.0018183
0.00181817
0.00181816
0.00179054
0.00179073
0.00179058
0.00179042
0.00180684
0.00182026
0.00181828
0.0018091
0.00182029
0.00180676
0.00180913
0.00182043
0.00180692
0.00180692
0.0018182
0.00182039
0.00180906
0.00182033
0.00180907
0.00180695
0.00182054
0.00182057
0.00180697
0.00180703
0.00180707
0.00177079
0.00178431
0.00178412
0.00177097
0.00178433
0.00177129
0.00177084
0.00178432
0.00178418
0.00177101
0.00178142
0.00178133
0.00178125
0.00175481
0.00175436
0.00175474
0.001755
0.00177067
0.00178418
0.0017816
0.00177246
0.00178402
0.00177093
0.00177248
0.00178439
0.00177118
0.00177064
0.00178164
0.00178418
0.00177251
0.00178405
0.00177258
0.0017708
0.00178449
0.0017845
0.00177061
0.00177105
0.00177106
0.00173586
0.0017488
0.0017489
0.00173548
0.00174932
0.00173593
0.00173576
0.00174883
0.00174888
0.00173543
0.00174598
0.00174639
0.00174669
0.00172191
0.00172183
0.0017221
0.00172188
0.00173588
0.0017489
0.00174618
0.00173811
0.00174861
0.00173593
0.00173776
0.00174895
0.00173533
0.00173585
0.0017464
0.00174877
0.00173822
0.00174861
0.00173806
0.00173565
0.00174849
0.00174843
0.00173609
0.00173482
0.00173474
0.00169954
0.00171291
0.00171335
0.00169917
0.0017127
0.00169856
0.00169944
0.00171273
0.0017131
0.0016991
0.0017138
0.00171361
0.00171325
0.0016862
0.00168692
0.00168594
0.00168551
0.00170033
0.0017132
0.0017132
0.00170418
0.00171384
0.0016995
0.0017045
0.00171233
0.00169868
0.00170016
0.00171297
0.00171292
0.00170361
0.00171357
0.0017041
0.00169946
0.00171238
0.00171234
0.00170106
0.00169923
0.00169928
0.00167624
0.00167621
0.00167537
0.00167638
0.00167642
0.00167672
0.00167593
0.00167568
0.00167609
0.00167587
0.00167677
0.00167635
0.00167543
0.00167661
0.00167687
0.00167728
0.00167743
0.00266028
0.00266028
0.00266036
0.00266036
0.00266031
0.0026604
0.00266031
0.0026604
0.00266049
0.00266302
0.00266066
0.00266049
0.00266302
0.00266066
0.00266028
0.00266036
0.00266036
0.00266028
0.00266031
0.0026604
0.00266049
0.00266302
0.00266066
0.00266031
0.0026604
0.00266302
0.00266049
0.00266066
0.00266049
0.00266302
0.00266066
0.00266031
0.0026604
0.00266302
0.00266049
0.00266066
0.00266031
0.0026604
0.00266028
0.00266036
0.00266036
0.00266028
0.00266302
0.00266049
0.00266066
0.00266302
0.00266049
0.00266066
0.00266031
0.00266039
0.00266031
0.00266039
0.00266036
0.00266036
0.00266028
0.00266028
0.00265524
0.00264029
0.00265524
0.00264029
0.00265533
0.00265533
0.00264066
0.00264036
0.00264036
0.00262035
0.00263526
0.00262035
0.00263526
0.00263545
0.00262042
0.00262042
0.00263534
0.00263534
0.00264039
0.00265527
0.00265535
0.00264031
0.00264066
0.00265534
0.00265301
0.00264298
0.00265547
0.00264049
0.00264301
0.00264066
0.00265534
0.00265301
0.00264298
0.00265547
0.00264049
0.00264301
0.00263536
0.00262037
0.00263529
0.00262045
0.00263536
0.00262037
0.00263529
0.00262045
0.00263548
0.002633
0.00262054
0.00262306
0.00263536
0.00263303
0.00262071
0.00263548
0.002633
0.00262054
0.00262306
0.00263536
0.00263303
0.00262071
0.00265533
0.00265533
0.00264066
0.00264036
0.00264036
0.00265524
0.00264029
0.00262035
0.00263526
0.00263545
0.00262042
0.00262042
0.00263534
0.00263534
0.00262035
0.00263526
0.00264066
0.00265534
0.00265301
0.00264298
0.00265547
0.00264049
0.00264301
0.00264039
0.00265527
0.00265535
0.00264031
0.00264066
0.00265301
0.00265534
0.00264298
0.00265547
0.00264301
0.00264049
0.00263536
0.00262037
0.00263529
0.00262045
0.00263548
0.002633
0.00262054
0.00262306
0.00263536
0.00263303
0.00262071
0.00263536
0.00262037
0.00263529
0.00262045
0.00263548
0.002633
0.00262306
0.00262054
0.00263303
0.00263536
0.00262071
0.00264039
0.00265527
0.00265535
0.00264031
0.00264066
0.00265301
0.00265534
0.00264298
0.00265547
0.00264301
0.00264049
0.00264039
0.00265527
0.00265535
0.00264031
0.00263548
0.002633
0.00262054
0.00262306
0.00263536
0.00263303
0.00262071
0.00263536
0.00262037
0.00263529
0.00262045
0.00263548
0.002633
0.00262306
0.00262054
0.00263303
0.00263536
0.00262071
0.00263536
0.00262037
0.00263529
0.00262045
0.00265533
0.00265533
0.00264066
0.00264036
0.00264036
0.00265524
0.00264029
0.00262035
0.00263526
0.00263545
0.00262042
0.00262042
0.00263534
0.00263534
0.00262035
0.00263526
0.00264066
0.00265301
0.00265534
0.00264298
0.00265547
0.00264301
0.00264049
0.00264039
0.00265527
0.00265535
0.00264031
0.00264039
0.00265527
0.00265535
0.00264031
0.00263548
0.002633
0.00262306
0.00262054
0.00263303
0.00263536
0.00262071
0.00263548
0.002633
0.00262306
0.00262054
0.00263303
0.00263536
0.00262071
0.00263536
0.00262037
0.00263529
0.00262045
0.00263536
0.00262037
0.00263529
0.00262045
0.00265524
0.00264029
0.00265524
0.00264029
0.00263545
0.00262042
0.00262042
0.00263534
0.00263534
0.00262035
0.00263526
0.00262035
0.00263526
0.00261534
0.00260047
0.00261534
0.00260047
0.00261542
0.00261542
0.00260085
0.00260054
0.00260054
0.00258066
0.00259548
0.00258066
0.00259548
0.00259566
0.00258072
0.00258072
0.00259555
0.00259555
0.00260057
0.00261536
0.00261544
0.00260049
0.00260082
0.00261543
0.00261311
0.00260315
0.00261554
0.00260066
0.00260317
0.00260082
0.00261543
0.00261311
0.00260315
0.00261554
0.00260066
0.00260317
0.00259557
0.00258068
0.0025955
0.00258075
0.00259557
0.00258068
0.0025955
0.00258075
0.00259567
0.00259323
0.00258083
0.00258334
0.00259556
0.00259325
0.00258099
0.00259567
0.00259323
0.00258083
0.00258334
0.00259556
0.00259325
0.00258099
0.00261542
0.00261541
0.00260085
0.00260054
0.00260054
0.00261534
0.00260047
0.00258066
0.00259548
0.00259566
0.00258072
0.00258072
0.00259555
0.00259555
0.00258066
0.00259548
0.00260082
0.00261543
0.00261311
0.00260315
0.00261554
0.00260066
0.00260317
0.00260057
0.00261536
0.00261544
0.00260049
0.00260082
0.00261311
0.00261543
0.00260315
0.00261554
0.00260317
0.00260066
0.00259557
0.00258068
0.0025955
0.00258075
0.00259567
0.00259323
0.00258083
0.00258334
0.00259556
0.00259325
0.00258099
0.00259557
0.00258068
0.0025955
0.00258075
0.00259567
0.00259323
0.00258334
0.00258083
0.00259325
0.00259556
0.00258099
0.00260057
0.00261536
0.00261543
0.00260049
0.00260082
0.00261311
0.00261543
0.00260315
0.00261554
0.00260317
0.00260066
0.00260057
0.00261536
0.00261544
0.00260049
0.00259567
0.00259323
0.00258083
0.00258334
0.00259556
0.00259325
0.00258099
0.00259557
0.00258068
0.0025955
0.00258075
0.00259567
0.00259323
0.00258334
0.00258083
0.00259325
0.00259556
0.00258099
0.00259557
0.00258068
0.0025955
0.00258075
0.00261541
0.00261542
0.00260085
0.00260054
0.00260054
0.00261534
0.00260047
0.00258066
0.00259548
0.00259566
0.00258072
0.00258072
0.00259555
0.00259555
0.00258066
0.00259548
0.00260082
0.00261311
0.00261543
0.00260315
0.00261554
0.00260317
0.00260066
0.00260057
0.00261536
0.00261544
0.00260049
0.00260057
0.00261536
0.00261544
0.00260049
0.00259567
0.00259323
0.00258334
0.00258083
0.00259325
0.00259556
0.00258099
0.00259567
0.00259323
0.00258334
0.00258083
0.00259325
0.00259556
0.00258099
0.00259557
0.00258068
0.0025955
0.00258075
0.00259557
0.00258068
0.0025955
0.00258075
0.00261534
0.00260047
0.00261534
0.00260047
0.00259566
0.00258072
0.00258072
0.00259555
0.00259555
0.00258066
0.00259548
0.00258066
0.00259548
0.00257568
0.0025609
0.00257568
0.0025609
0.00257574
0.00257574
0.00256127
0.00256095
0.00256095
0.00254119
0.00255593
0.00254119
0.00255593
0.00255611
0.00254124
0.00254124
0.00255599
0.00255599
0.00256099
0.0025757
0.00257577
0.00256092
0.00256122
0.00257575
0.00257345
0.00256355
0.00257585
0.00256106
0.00256357
0.00256122
0.00257575
0.00257345
0.00256355
0.00257585
0.00256106
0.00256357
0.00255602
0.00254121
0.00255595
0.00254128
0.00255602
0.00254121
0.00255595
0.00254128
0.0025561
0.00255369
0.00254135
0.00254385
0.00255599
0.0025537
0.00254151
0.0025561
0.00255369
0.00254135
0.00254385
0.00255599
0.0025537
0.00254151
0.00257575
0.00257575
0.00256127
0.00256095
0.00256095
0.00257568
0.0025609
0.00254119
0.00255593
0.00255611
0.00254124
0.00254125
0.00255599
0.00255599
0.00254119
0.00255593
0.00256122
0.00257575
0.00257345
0.00256355
0.00257585
0.00256106
0.00256357
0.00256099
0.0025757
0.00257577
0.00256091
0.00256122
0.00257345
0.00257575
0.00256355
0.00257585
0.00256357
0.00256106
0.00255602
0.00254121
0.00255595
0.00254128
0.0025561
0.00255369
0.00254135
0.00254385
0.002556
0.0025537
0.00254151
0.00255602
0.00254121
0.00255595
0.00254128
0.0025561
0.00255369
0.00254385
0.00254135
0.0025537
0.002556
0.00254151
0.00256099
0.0025757
0.00257577
0.00256092
0.00256122
0.00257345
0.00257575
0.00256355
0.00257585
0.00256357
0.00256106
0.00256099
0.0025757
0.00257577
0.00256091
0.0025561
0.00255369
0.00254135
0.00254385
0.00255599
0.0025537
0.00254151
0.00255602
0.00254121
0.00255595
0.00254128
0.0025561
0.00255369
0.00254385
0.00254135
0.0025537
0.002556
0.00254151
0.00255602
0.00254121
0.00255595
0.00254128
0.00257574
0.00257574
0.00256127
0.00256095
0.00256095
0.00257568
0.0025609
0.00254119
0.00255593
0.00255611
0.00254125
0.00254125
0.00255599
0.00255599
0.00254119
0.00255593
0.00256122
0.00257345
0.00257575
0.00256355
0.00257585
0.00256357
0.00256106
0.00256099
0.0025757
0.00257577
0.00256092
0.00256099
0.0025757
0.00257577
0.00256092
0.0025561
0.00255369
0.00254385
0.00254135
0.0025537
0.002556
0.00254151
0.0025561
0.00255369
0.00254385
0.00254135
0.0025537
0.002556
0.00254151
0.00255602
0.00254121
0.00255595
0.00254128
0.00255602
0.00254121
0.00255595
0.00254128
0.00257568
0.0025609
0.00257568
0.0025609
0.00255611
0.00254124
0.00254124
0.00255599
0.00255599
0.00254119
0.00255593
0.00254119
0.00255593
0.00253624
0.00252154
0.00253624
0.00252154
0.0025363
0.0025363
0.00252192
0.00252159
0.00252159
0.00250194
0.0025166
0.00250194
0.0025166
0.00251678
0.00250199
0.00250199
0.00251666
0.00251666
0.00252163
0.00253626
0.00253632
0.00252156
0.00252185
0.0025363
0.00253402
0.00252418
0.0025364
0.00252169
0.00252419
0.00252185
0.0025363
0.00253402
0.00252418
0.0025364
0.00252169
0.00252419
0.00251668
0.00250196
0.00251662
0.00250203
0.00251668
0.00250196
0.00251662
0.00250203
0.00251675
0.00251437
0.00250209
0.00250459
0.00251666
0.00251438
0.00250224
0.00251675
0.00251437
0.00250209
0.00250459
0.00251666
0.00251438
0.00250224
0.0025363
0.0025363
0.00252191
0.00252159
0.00252159
0.00253624
0.00252154
0.00250194
0.0025166
0.00251678
0.00250199
0.00250199
0.00251666
0.00251666
0.00250194
0.0025166
0.00252185
0.0025363
0.00253402
0.00252418
0.0025364
0.00252169
0.00252419
0.00252163
0.00253626
0.00253632
0.00252156
0.00252185
0.00253402
0.0025363
0.00252418
0.0025364
0.00252419
0.00252169
0.00251668
0.00250196
0.00251662
0.00250203
0.00251675
0.00251437
0.00250209
0.00250459
0.00251666
0.00251438
0.00250224
0.00251668
0.00250196
0.00251662
0.00250203
0.00251675
0.00251437
0.00250459
0.00250209
0.00251438
0.00251666
0.00250224
0.00252163
0.00253626
0.00253632
0.00252156
0.00252185
0.00253402
0.0025363
0.00252418
0.0025364
0.00252419
0.00252169
0.00252163
0.00253626
0.00253632
0.00252156
0.00251675
0.00251437
0.00250209
0.00250459
0.00251666
0.00251438
0.00250224
0.00251668
0.00250196
0.00251662
0.00250203
0.00251675
0.00251437
0.00250459
0.00250209
0.00251438
0.00251666
0.00250224
0.00251668
0.00250196
0.00251662
0.00250203
0.0025363
0.0025363
0.00252192
0.00252159
0.00252159
0.00253624
0.00252154
0.00250194
0.0025166
0.00251678
0.00250199
0.00250199
0.00251666
0.00251666
0.00250194
0.0025166
0.00252185
0.00253402
0.0025363
0.00252418
0.0025364
0.00252419
0.00252169
0.00252163
0.00253626
0.00253632
0.00252156
0.00252163
0.00253626
0.00253632
0.00252156
0.00251675
0.00251437
0.00250459
0.00250209
0.00251438
0.00251666
0.00250224
0.00251675
0.00251437
0.00250459
0.00250209
0.00251438
0.00251666
0.00250224
0.00251668
0.00250196
0.00251662
0.00250203
0.00251668
0.00250196
0.00251662
0.00250203
0.00253624
0.00252154
0.00253624
0.00252154
0.00251678
0.00250199
0.00250199
0.00251666
0.00251666
0.00250194
0.0025166
0.00250194
0.0025166
0.00249702
0.0024824
0.00249702
0.0024824
0.00249707
0.00249707
0.00248277
0.00248245
0.00248244
0.0024629
0.00247749
0.0024629
0.00247749
0.00247766
0.00246295
0.00246295
0.00247754
0.00247754
0.00248248
0.00249704
0.0024971
0.00248241
0.00248269
0.00249707
0.0024948
0.00248502
0.00249716
0.00248254
0.00248503
0.00248269
0.00249707
0.0024948
0.00248502
0.00249716
0.00248254
0.00248503
0.00247756
0.00246292
0.0024775
0.00246298
0.00247756
0.00246292
0.0024775
0.00246298
0.00247762
0.00247527
0.00246304
0.00246553
0.00247753
0.00247528
0.00246318
0.00247762
0.00247527
0.00246304
0.00246553
0.00247753
0.00247528
0.00246318
0.00249707
0.00249707
0.00248277
0.00248244
0.00248244
0.00249702
0.0024824
0.0024629
0.00247749
0.00247766
0.00246295
0.00246295
0.00247754
0.00247754