/*--------------------------------*- C++ -*----------------------------------*\
| =========                 |                                                 |
| \\      /  F ield         | OpenFOAM: The Open Source CFD Toolbox           |
|  \\    /   O peration     | Version:  v1906                                 |
|   \\  /    A nd           | Web:      www.OpenFOAM.com                      |
|    \\/     M anipulation  |                                                 |
\*---------------------------------------------------------------------------*/
FoamFile
{
    version     2.0;
    format      ascii;
    class       surfaceScalarField;
    location    "625";
    object      phi;
}
// * * * * * * * * * * * * * * * * * * * * * * * * * * * * * * * * * * * * * //

dimensions      [0 3 -1 0 0 0 0];
oriented        oriented;


internalField   nonuniform List<scalar> 
124908
(
1.54307e-07
1.47641e-07
-0.00118371
-1.22926e-07
-1.15251e-07
0.00118364
-0.00113208
-1.18623e-06
-1.17093e-07
-6.45425e-08
0.00113207
-2.05803e-07
1.22614e-06
2.36543e-07
8.8637e-07
-1.75378e-07
-8.23885e-07
2.33884e-07
-0.00113179
-1.18164e-06
-1.20278e-07
-4.70902e-08
0.00113177
-2.07079e-07
1.2195e-06
2.35106e-07
8.8855e-07
-1.75993e-07
-8.21291e-07
2.38351e-07
-0.000270053
1.21884e-06
1.17728e-06
-1.91858e-07
-2.03041e-07
0.000268052
1.23398e-07
8.7849e-08
-0.00118335
-1.34229e-08
-7.04264e-08
0.00118322
-0.00113208
-1.1935e-06
-1.91682e-07
-7.9163e-09
0.00113208
-2.1185e-07
1.22023e-06
2.32219e-07
8.93333e-07
-1.69159e-07
-8.1629e-07
2.39127e-07
-0.00113168
-1.19197e-06
-1.63461e-07
2.20049e-08
0.00113165
-2.15e-07
1.21059e-06
2.29012e-07
8.89445e-07
-1.74769e-07
-8.19279e-07
2.38399e-07
-0.000270081
1.21179e-06
1.1717e-06
-1.89191e-07
-1.97679e-07
0.000268084
1.16607e-07
1.36899e-07
-0.00118285
-7.94777e-08
-7.39711e-08
0.00118275
-0.00113205
-1.18118e-06
-1.226e-07
-4.36786e-08
0.00113202
-1.98339e-07
1.23303e-06
2.45797e-07
8.80993e-07
-1.81122e-07
-8.27551e-07
2.26571e-07
-0.0011316
-1.17246e-06
-1.25367e-07
-7.46386e-08
0.0011316
-1.95015e-07
1.23083e-06
2.49211e-07
8.79098e-07
-1.85515e-07
-8.29518e-07
2.27931e-07
-0.00027012
1.20662e-06
1.1831e-06
-1.95694e-07
-1.92433e-07
0.000268118
1.40447e-07
1.73668e-07
-0.00118255
-1.63607e-07
-1.04582e-07
0.0011825
-0.00113191
-1.17691e-06
-7.12728e-08
-9.82957e-08
0.00113188
-1.96283e-07
1.23458e-06
2.45093e-07
8.77986e-07
-1.83302e-07
-8.32032e-07
2.25832e-07
-0.0011316
-1.16852e-06
-9.83244e-08
-1.18797e-07
0.0011316
-1.94141e-07
1.23186e-06
2.47058e-07
8.81807e-07
-1.8224e-07
-8.28079e-07
2.32273e-07
-0.000270108
1.21775e-06
1.18632e-06
-1.97328e-07
-2.01995e-07
0.000268104
1.3194e-07
1.03889e-07
-0.00118231
-5.96951e-08
-7.97001e-08
0.00118222
-0.00113186
-1.1926e-06
-1.64189e-07
-2.38658e-08
0.00113186
-2.12018e-07
1.21925e-06
2.304e-07
8.90865e-07
-1.70585e-07
-8.18574e-07
2.37547e-07
-0.00113156
-1.19094e-06
-1.5382e-07
6.0397e-09
0.00113154
-2.15761e-07
1.21014e-06
2.26967e-07
8.90249e-07
-1.7406e-07
-8.18895e-07
2.3933e-07
-0.000270113
1.21519e-06
1.17061e-06
-1.87953e-07
-2.01174e-07
0.000268116
1.17211e-07
1.09681e-07
-0.00118185
-4.08511e-08
-6.50732e-08
0.00118173
-0.00113187
-1.18926e-06
-1.61119e-07
-9.69098e-09
0.00113185
-2.06462e-07
1.22414e-06
2.37535e-07
8.85782e-07
-1.76806e-07
-8.22654e-07
2.30573e-07
-0.00113149
-1.18225e-06
-1.58326e-07
-9.59694e-09
0.00113146
-2.04937e-07
1.22026e-06
2.39061e-07
8.86331e-07
-1.79021e-07
-8.22177e-07
2.33971e-07
-0.000270165
1.20886e-06
1.17505e-06
-1.91478e-07
-1.95405e-07
0.000268168
1.53553e-07
1.35168e-07
-0.00118145
-9.51027e-08
-1.26085e-07
0.00118139
-0.00113179
-1.17319e-06
-9.76225e-08
-1.04539e-07
0.00113178
-1.91392e-07
1.23904e-06
2.50612e-07
8.78771e-07
-1.82396e-07
-8.30887e-07
2.26358e-07
-0.00113136
-1.17245e-06
-7.71634e-08
-7.51052e-08
0.00113132
-1.95741e-07
1.22776e-06
2.45819e-07
8.76351e-07
-1.86518e-07
-8.32155e-07
2.26881e-07
-0.000270182
1.21589e-06
1.17918e-06
-1.92416e-07
-1.98677e-07
0.000268178
1.36541e-07
1.51212e-07
-0.0011812
-1.04377e-07
-1.05094e-07
0.00118112
-0.00113178
-1.18266e-06
-1.41585e-07
-7.33899e-08
0.0011318
-2.02908e-07
1.22866e-06
2.3873e-07
8.86255e-07
-1.75202e-07
-8.23337e-07
2.32893e-07
-0.00113129
-1.17405e-06
-1.31247e-07
-1.04699e-07
0.00113133
-1.98662e-07
1.22686e-06
2.43352e-07
8.81003e-07
-1.82174e-07
-8.28303e-07
2.31384e-07
-0.000270177
1.21179e-06
1.18714e-06
-2.00265e-07
-1.97837e-07
0.000268177
7.7561e-08
1.51645e-07
-0.00118083
-1.16368e-07
-1.12798e-08
0.00118073
-0.00113179
-1.19426e-06
-1.38035e-07
6.30497e-09
0.00113177
-2.13549e-07
1.21743e-06
2.28884e-07
8.8476e-07
-1.7798e-07
-8.24914e-07
2.30228e-07
-0.00113151
-1.18195e-06
-1.96208e-07
-5.37374e-08
0.00113157
-2.08753e-07
1.21846e-06
2.33256e-07
8.91812e-07
-1.74482e-07
-8.18186e-07
2.39344e-07
-0.000270205
1.2063e-06
1.18641e-06
-2.00052e-07
-1.96667e-07
0.000268209
1.08211e-07
7.92537e-08
-0.00118046
-6.02627e-08
-5.03884e-08
0.00118038
-0.00113168
-1.18873e-06
-9.90444e-08
-2.86942e-08
0.00113166
-2.0461e-07
1.22515e-06
2.39583e-07
8.77278e-07
-1.8456e-07
-8.3164e-07
2.23155e-07
-0.00113155
-1.18533e-06
-1.09425e-07
5.64544e-09
0.00113149
-2.07097e-07
1.21812e-06
2.37673e-07
8.81593e-07
-1.8353e-07
-8.27381e-07
2.29877e-07
-0.000270249
1.22262e-06
1.16811e-06
-1.84196e-07
-2.06308e-07
0.000268249
1.90799e-07
1.17542e-07
-0.00118017
-6.93213e-08
-1.74652e-07
0.0011801
-0.00113162
-1.17253e-06
-1.15096e-07
-1.21387e-07
0.00113164
-1.9176e-07
1.23892e-06
2.49545e-07
8.80646e-07
-1.80258e-07
-8.29532e-07
2.28371e-07
-0.00113127
-1.17391e-06
-6.58605e-08
-5.99816e-08
0.00113121
-1.98074e-07
1.22608e-06
2.42946e-07
8.76167e-07
-1.86735e-07
-8.33266e-07
2.26932e-07
-0.000270254
1.22107e-06
1.17248e-06
-1.88414e-07
-2.01968e-07
0.00026825
1.62233e-07
1.49538e-07
-0.00117994
-9.4685e-08
-1.60833e-07
0.00117988
-0.00113173
-1.18893e-06
-1.48509e-07
-5.23104e-08
0.00113177
-2.10123e-07
1.22164e-06
2.30748e-07
8.85279e-07
-1.77214e-07
-8.24864e-07
2.31077e-07
-0.00113116
-1.18609e-06
-1.09756e-07
-4.50409e-08
0.00113118
-2.10974e-07
1.21348e-06
2.30241e-07
8.78604e-07
-1.8559e-07
-8.3083e-07
2.27812e-07
-0.00027026
1.21366e-06
1.18952e-06
-2.05359e-07
-2.00706e-07
0.000268263
3.2782e-08
9.88618e-08
-0.00117965
-5.4401e-08
1.8739e-08
0.00117955
-0.0011318
-1.20679e-06
-1.75352e-07
7.58928e-08
0.00113179
-2.23934e-07
1.20661e-06
2.20299e-07
8.86311e-07
-1.77106e-07
-8.23519e-07
2.30265e-07
-0.0011313
-1.19484e-06
-2.06697e-07
1.68988e-08
0.00113135
-2.18065e-07
1.20699e-06
2.25941e-07
8.87019e-07
-1.78216e-07
-8.21925e-07
2.34064e-07
-0.000270337
1.19746e-06
1.18051e-06
-1.97302e-07
-1.90162e-07
0.000268347
8.26539e-08
1.31264e-07
-0.00117931
-1.17872e-07
-2.76276e-08
0.00117924
-0.0011317
-1.16643e-06
8.59398e-09
-1.60252e-07
0.00113168
-1.8216e-07
1.24945e-06
2.62358e-07
8.59011e-07
-2.02151e-07
-8.51026e-07
2.06836e-07
-0.00113146
-1.15529e-06
-3.40463e-08
-2.12387e-07
0.0011315
-1.7784e-07
1.25011e-06
2.66406e-07
8.62557e-07
-2.01326e-07
-8.48873e-07
2.14419e-07
-0.000270377
1.23264e-06
1.20198e-06
-2.06051e-07
-2.12121e-07
0.00026836
9.8896e-08
8.7014e-08
-0.00117902
-6.91349e-08
-4.2296e-08
0.00117895
-0.00113165
-1.18602e-06
-1.43203e-07
-7.47214e-08
0.00113167
-2.0779e-07
1.22211e-06
2.30613e-07
8.91986e-07
-1.67236e-07
-8.19314e-07
2.40539e-07
-0.00113154
-1.18774e-06
-1.62211e-07
-2.07093e-08
0.00113152
-2.16413e-07
1.21015e-06
2.23237e-07
9.00025e-07
-1.64074e-07
-8.10595e-07
2.48048e-07
-0.000270272
1.22327e-06
1.17598e-06
-1.91769e-07
-2.07023e-07
0.000268271
2.5879e-07
1.48452e-07
-0.00117884
-1.21521e-07
-2.62922e-07
0.00117881
-0.00113164
-1.209e-06
-1.01728e-07
9.95484e-08
0.00113161
-2.26781e-07
1.20379e-06
2.1599e-07
8.69771e-07
-1.93499e-07
-8.3607e-07
2.08983e-07
-0.0011313
-1.20095e-06
-8.03483e-08
1.41378e-07
0.00113118
-2.21995e-07
1.19935e-06
2.18733e-07
8.71152e-07
-1.92326e-07
-8.34148e-07
2.17065e-07
-0.000270377
1.21304e-06
1.15407e-06
-1.82018e-07
-2.04393e-07
0.000268396
1.19148e-07
-5.95956e-09
-0.0011786
1.27398e-07
-1.08601e-07
0.00117847
-0.00113168
-1.19682e-06
-3.06107e-07
-1.41131e-08
0.00113179
-2.11785e-07
1.21377e-06
2.28767e-07
9.02388e-07
-1.59376e-07
-8.06281e-07
2.45012e-07
-0.00113093
-1.22202e-06
-9.15847e-08
1.10619e-07
0.00113095
-2.39246e-07
1.17826e-06
2.03837e-07
8.6322e-07
-1.9598e-07
-8.42011e-07
2.09585e-07
-0.000270514
1.21077e-06
1.17289e-06
-1.90438e-07
-1.93201e-07
0.000268514
-2.8331e-07
2.55648e-07
-0.00117802
-2.73094e-07
3.63239e-07
0.00117795
-0.00113193
-1.14619e-06
1.8181e-07
-2.29989e-07
0.00113186
-1.58754e-07
1.27163e-06
2.83567e-07
8.11647e-07
-2.21994e-07
-8.79221e-07
1.61499e-07
-0.00113151
-1.06774e-06
-2.01155e-07
-6.81034e-07
0.00113178
-8.91944e-08
1.34336e-06
3.52651e-07
8.7089e-07
-1.8064e-07
-8.27846e-07
2.17154e-07
-0.000270479
1.18322e-06
1.2787e-06
-2.57016e-07
-1.66988e-07
0.000268442
7.47248e-07
1.7341e-07
-0.00117834
-3.69024e-07
-7.94288e-07
0.00117858
-0.00113162
-1.11458e-06
8.88473e-08
-5.30756e-07
0.00113169
-1.51271e-07
1.2717e-06
2.56906e-07
8.7389e-07
-1.64806e-07
-8.30277e-07
2.24726e-07
-0.00113187
-1.1713e-06
2.96343e-07
-2.13974e-08
0.00113159
-2.17971e-07
1.18475e-06
1.77448e-07
8.40766e-07
-1.75049e-07
-8.42085e-07
2.02465e-07
-0.000270211
1.3663e-06
1.13125e-06
-1.48448e-07
-3.11637e-07
0.000268173
6.25721e-07
7.54934e-07
-0.00117865
-3.04953e-07
-6.21308e-07
0.0011782
-0.00113233
-1.35541e-06
-1.69314e-06
9.16826e-07
0.00113273
-3.75261e-07
1.10766e-06
6.01278e-08
1.126e-06
2.78761e-08
-6.04452e-07
3.92066e-07
-0.00113105
-1.32101e-06
-1.44988e-06
6.10804e-07
0.00113153
-3.35766e-07
1.14471e-06
1.14273e-07
1.07818e-06
-2.1155e-08
-6.56771e-07
3.57924e-07
-0.000270532
9.48419e-07
1.0546e-06
-1.0607e-07
2.24164e-08
0.000268612
5.28685e-06
5.49824e-06
-0.00116352
-1.20222e-05
-1.034e-05
0.000283323
0.000285167
0.000285065
0.000285074
4.32649e-06
6.59795e-06
7.00624e-06
4.55106e-06
6.78582e-06
7.20292e-06
-0.000280555
5.45188e-06
-5.34427e-06
5.84808e-06
-3.44378e-06
0.000278043
-0.000280872
-5.58842e-06
5.57103e-06
-3.58527e-06
6.04812e-06
0.000278427
-0.000272038
-5.50516e-06
-5.33263e-06
5.72711e-06
5.82503e-06
0.000271323
-1.26347e-06
-1.23106e-06
0.000270109
-0.000268094
2.38017e-07
2.41171e-07
0.00113137
-1.55197e-07
-0.00113138
-5.54873e-08
-1.21817e-06
2.44689e-07
-2.09201e-07
-8.18787e-07
2.3764e-07
-1.71438e-07
8.91413e-07
1.27038e-06
0.00113171
-1.56697e-07
-0.00113172
-4.12049e-08
-1.22429e-06
2.52084e-07
-2.09228e-07
-8.30699e-07
2.32902e-07
-1.80981e-07
8.8976e-07
-1.23009e-06
0.000270114
-0.00026809
2.34675e-07
2.41517e-07
0.0011325
-1.64432e-07
-0.0011325
-6.41626e-08
-1.17792e-06
2.47568e-07
-2.02174e-07
-8.22414e-07
2.38731e-07
-1.75689e-07
8.93081e-07
1.26528e-06
0.00113145
-1.72769e-07
-0.00113145
-3.76131e-08
-1.21835e-06
2.5198e-07
-2.09245e-07
-8.24089e-07
2.36379e-07
-1.77505e-07
8.90844e-07
-9.56397e-08
-0.0011321
-8.18384e-08
-1.18227e-06
2.40391e-07
-2.01864e-07
-8.26502e-07
2.31303e-07
8.83716e-07
-1.78017e-07
1.25194e-06
0.0011311
-9.57047e-08
-0.00113115
-1.67343e-08
-1.21869e-06
2.37969e-07
-2.10391e-07
-8.27549e-07
2.28732e-07
-1.7974e-07
8.81844e-07
-1.22538e-06
0.000270077
-0.000268064
2.33192e-07
2.4483e-07
-1.09431e-07
-0.00113182
-7.90787e-08
-1.176e-06
2.40632e-07
-2.0159e-07
-8.22863e-07
2.37092e-07
8.87188e-07
-1.77498e-07
1.22255e-06
0.00113222
-1.03131e-07
-0.00113227
-2.65747e-08
-1.1809e-06
2.41057e-07
-2.03222e-07
-8.28728e-07
2.29655e-07
-1.84088e-07
8.8065e-07
-0.000268051
2.36051e-07
2.36576e-07
1.2218e-06
1.17764e-06
-1.86257e-07
-1.99845e-07
0.000268096
-1.25518e-06
-1.22634e-06
0.000270099
-0.000268087
2.33566e-07
2.36612e-07
-2.94451e-08
0.00113135
-2.12322e-07
1.25972e-06
2.4158e-07
8.91528e-07
-1.71108e-07
-8.18344e-07
2.37567e-07
-1.21866e-06
-1.47788e-07
-7.19085e-08
0.00113172
-2.03984e-07
1.2759e-06
2.5705e-07
8.88558e-07
-1.82257e-07
-8.321e-07
2.31883e-07
0.00113122
-1.3225e-07
-0.00113127
1.12508e-08
-1.22686e-06
2.39278e-07
-2.15334e-07
-8.23076e-07
2.31679e-07
-1.75987e-07
8.85698e-07
1.28437e-06
0.00113173
-1.20582e-07
-0.00113173
-1.28862e-07
-1.20884e-06
2.63119e-07
-1.96278e-07
-8.32719e-07
2.32229e-07
-1.82418e-07
8.88469e-07
-1.96356e-07
-1.90567e-07
0.000268096
-1.21967e-06
0.000270143
-0.000268118
2.29247e-07
2.49875e-07
-5.87057e-08
0.00113248
-2.01791e-07
1.23097e-06
2.47551e-07
8.91529e-07
-1.7687e-07
-8.23676e-07
2.3728e-07
-1.21449e-06
-1.53322e-07
-5.40292e-08
0.00113144
-2.0549e-07
1.26892e-06
2.55409e-07
8.88437e-07
-1.79752e-07
-8.26348e-07
2.34065e-07
0.00113233
-9.3528e-08
-0.00113239
-3.78815e-08
-1.18113e-06
2.43512e-07
-2.04974e-07
-8.29819e-07
2.31479e-07
-1.82281e-07
8.84901e-07
1.27456e-06
0.00113135
-9.29023e-08
-0.00113138
-9.28879e-08
-1.20752e-06
2.59541e-07
-1.9982e-07
-8.32022e-07
2.29532e-07
-1.84554e-07
8.82931e-07
-1.10298e-07
-2.4088e-08
0.00113107
-2.10444e-07
1.25185e-06
2.38083e-07
8.82393e-07
-1.79103e-07
2.29418e-07
-8.27061e-07
-1.81233e-07
-0.00113207
-1.68154e-08
-1.19362e-06
2.31072e-07
-2.12504e-07
-8.16983e-07
2.39295e-07
8.92956e-07
-1.69298e-07
1.25696e-06
0.00113107
-1.54154e-07
-0.00113106
-5.81221e-08
-1.2143e-06
2.43056e-07
-2.05958e-07
-8.24146e-07
2.32078e-07
-1.7637e-07
8.85379e-07
-1.93463e-07
-1.93162e-07
0.000268068
-1.20953e-06
0.000270079
-0.000268069
2.23815e-07
2.49819e-07
-1.01577e-07
-5.38859e-08
0.00113219
-1.99916e-07
1.22593e-06
2.44078e-07
8.79552e-07
-1.85079e-07
2.2888e-07
-8.29934e-07
-1.56372e-07
-0.0011317
1.92395e-08
-1.19259e-06
2.27369e-07
-2.16175e-07
-8.18506e-07
2.39599e-07
8.90581e-07
-1.73931e-07
1.23084e-06
0.00113218
-1.17729e-07
-0.00113217
-1.06627e-07
-1.17137e-06
2.47382e-07
-1.95593e-07
-8.28058e-07
2.3198e-07
-1.82539e-07
8.82123e-07
-0.000268073
2.39933e-07
2.40406e-07
1.22526e-06
1.18255e-06
-1.91092e-07
-2.01965e-07
0.000268084
-1.26764e-06
-1.22235e-06
0.000270106
-0.000268089
2.292e-07
2.44477e-07
2.25948e-09
0.00113117
-2.13319e-07
1.25693e-06
2.41342e-07
8.83021e-07
-1.78569e-07
-8.25624e-07
2.29114e-07
-1.20993e-06
-1.13292e-07
-1.2342e-07
0.00113172
-1.98188e-07
1.28253e-06
2.60538e-07
8.89309e-07
-1.8147e-07
-8.31912e-07
2.33235e-07
0.00113111
-1.13578e-07
-0.00113111
-7.36529e-08
-1.21452e-06
2.51284e-07
-2.03106e-07
-8.29803e-07
2.26212e-07
-1.8211e-07
8.79401e-07
1.26337e-06
0.00113163
-1.08497e-07
-0.00113167
-3.37402e-08
-1.22723e-06
2.41658e-07
-2.16076e-07
-8.28849e-07
2.35897e-07
-1.78128e-07
8.91939e-07
-1.99506e-07
-1.85219e-07
0.000268124
-1.22895e-06
0.000270153
-0.000268132
2.38315e-07
2.32765e-07
-3.63565e-08
0.00113228
-2.06236e-07
1.22472e-06
2.42076e-07
8.83706e-07
-1.83239e-07
-8.30944e-07
2.30507e-07
-1.20831e-06
-8.31515e-08
-9.28738e-08
0.00113131
-2.01337e-07
1.27293e-06
2.57281e-07
8.82487e-07
-1.84722e-07
-8.3241e-07
2.29393e-07
0.00113219
-1.17212e-07
-0.0011322
-4.74646e-08
-1.18475e-06
2.39704e-07
-2.08575e-07
-8.29481e-07
2.32853e-07
-1.81235e-07
8.85561e-07
1.25883e-06
0.00113121
-1.00106e-07
-0.00113123
-4.90513e-08
-1.22095e-06
2.4324e-07
-2.14705e-07
-8.293e-07
2.3307e-07
-1.81053e-07
8.85736e-07
-1.62549e-07
-7.04334e-08
0.0011311
-2.03627e-07
1.25968e-06
2.45516e-07
8.86258e-07
-1.75885e-07
2.32676e-07
-8.23472e-07
-1.53164e-07
-0.00113207
-2.26947e-08
-1.18534e-06
2.4191e-07
-2.02447e-07
-8.2324e-07
2.30604e-07
8.85364e-07
-1.76994e-07
1.26518e-06
0.00113115
-1.60497e-07
-0.00113114
-8.54443e-08
-1.20601e-06
2.49869e-07
-1.98798e-07
-8.21147e-07
2.34516e-07
-1.74231e-07
8.88749e-07
-1.99596e-07
-1.90194e-07
0.000268069
-1.2247e-06
0.000270087
-0.000268075
2.36004e-07
2.35221e-07
-1.28733e-07
-1.08897e-07
0.0011322
-1.96395e-07
1.23038e-06
2.46472e-07
8.8444e-07
-1.80442e-07
2.34229e-07
-8.25967e-07
-1.41784e-07
-0.00113161
-3.81075e-08
-1.17874e-06
2.43621e-07
-2.0097e-07
-8.26776e-07
2.2997e-07
8.81552e-07
-1.8303e-07
1.22266e-06
0.00113224
-1.62873e-07
-0.00113223
-6.00494e-08
-1.17886e-06
2.38234e-07
-2.04344e-07
-8.18216e-07
2.41097e-07
-1.73356e-07
8.92182e-07
-0.000268114
2.34509e-07
2.47329e-07
1.211e-06
1.18462e-06
-1.93962e-07
-1.93295e-07
0.000268097
-1.27044e-06
-1.22607e-06
0.000270147
-0.000268129
2.3336e-07
2.44843e-07
-9.78236e-08
0.00113111
-2.00235e-07
1.27089e-06
2.53814e-07
8.80107e-07
-1.81487e-07
-8.29335e-07
2.27052e-07
-1.23412e-06
-1.17162e-07
-3.99232e-11
0.00113159
-2.2218e-07
1.25676e-06
2.36159e-07
8.92515e-07
-1.77483e-07
-8.28022e-07
2.36257e-07
0.00113115
-1.35498e-07
-0.00113114
-1.06852e-07
-1.21016e-06
2.51268e-07
-2.01508e-07
-8.24248e-07
2.32805e-07
-1.76144e-07
8.85808e-07
1.25583e-06
0.0011315
-1.51778e-07
-0.00113152
1.70526e-08
-1.23743e-06
2.38287e-07
-2.22359e-07
-8.28801e-07
2.34452e-07
-1.78653e-07
8.91059e-07
-1.89434e-07
-2.03464e-07
0.000268131
-1.23754e-06
0.000270152
-0.00026813
2.41133e-07
2.29646e-07
-5.18526e-08
0.0011322
-2.08586e-07
1.22257e-06
2.39855e-07
8.87618e-07
-1.7923e-07
-8.27496e-07
2.3484e-07
-1.22555e-06
-1.21428e-07
-3.16841e-08
0.00113119
-2.18825e-07
1.25453e-06
2.39611e-07
8.88078e-07
-1.78742e-07
-8.26983e-07
2.35314e-07
0.00113226
-1.76403e-07
-0.00113224
-5.85598e-08
-1.18181e-06
2.43104e-07
-2.05971e-07
-8.23358e-07
2.37712e-07
-1.76049e-07
8.91784e-07
1.25429e-06
0.00113121
-1.79774e-07
-0.0011312
-1.59936e-08
-1.22777e-06
2.41153e-07
-2.19194e-07
-8.22495e-07
2.38311e-07
-1.75024e-07
8.92112e-07
-1.43065e-07
-7.42542e-08
0.00113114
-1.99591e-07
1.26398e-06
2.48552e-07
8.87497e-07
-1.74979e-07
2.33369e-07
-8.21908e-07
-6.50009e-08
-0.00113194
-9.96977e-08
-1.17469e-06
2.48567e-07
-1.93381e-07
-8.33791e-07
2.23326e-07
8.75784e-07
-1.85572e-07
1.25412e-06
0.00113099
-7.9733e-08
-0.00113105
-2.42284e-08
-1.21543e-06
2.39508e-07
-2.07973e-07
-8.28922e-07
2.26637e-07
-1.81331e-07
8.79887e-07
-1.85576e-07
-2.05015e-07
0.00026808
-1.23619e-06
0.000270116
-0.000268102
2.41333e-07
2.34817e-07
-1.62652e-07
-2.79793e-08
0.00113222
-2.08218e-07
1.21819e-06
2.34376e-07
8.92341e-07
-1.72845e-07
2.40956e-07
-8.17446e-07
-9.55526e-08
-0.0011316
-1.33348e-07
-1.16491e-06
2.51964e-07
-1.8982e-07
-8.30055e-07
2.29955e-07
8.79688e-07
-1.84565e-07
1.21319e-06
0.00113209
-1.22157e-07
-0.00113215
2.34707e-08
-1.18927e-06
2.32215e-07
-2.11699e-07
-8.25387e-07
2.3147e-07
-1.81264e-07
8.83085e-07
-0.000268109
2.29698e-07
2.37964e-07
1.21379e-06
1.18046e-06
-1.89381e-07
-1.95758e-07
0.000268138
-1.25358e-06
-1.22798e-06
0.000270159
-0.000268147
2.35319e-07
2.33675e-07
-8.57499e-08
0.00113116
-2.05486e-07
1.2664e-06
2.47122e-07
8.8762e-07
-1.744e-07
-8.22261e-07
2.34345e-07
-1.2323e-06
-1.54595e-07
-7.15136e-09
0.0011315
-2.1689e-07
1.26154e-06
2.44102e-07
8.89647e-07
-1.8023e-07
-8.30252e-07
2.32914e-07
0.00113111
-1.35558e-07
-0.00113114
-4.51665e-09
-1.22708e-06
2.36288e-07
-2.17285e-07
-8.21698e-07
2.33359e-07
-1.74375e-07
8.87393e-07
1.27959e-06
0.00113151
-1.31577e-07
-0.0011315
-9.85287e-08
-1.21363e-06
2.59758e-07
-2.00002e-07
-8.34076e-07
2.29667e-07
-1.84179e-07
8.86319e-07
-1.8917e-07
-2.01204e-07
0.000268134
-1.22175e-06
0.00027018
-0.000268154
2.28654e-07
2.47518e-07
-5.7887e-08
0.00113228
-2.04617e-07
1.22744e-06
2.44518e-07
8.91438e-07
-1.76762e-07
-8.23478e-07
2.36879e-07
-1.22439e-06
-1.81834e-07
-2.61224e-08
0.00113123
-2.15449e-07
1.25822e-06
2.453e-07
8.91092e-07
-1.76225e-07
-8.23332e-07
2.36909e-07
0.00113224
-1.20802e-07
-0.00113226
-4.5657e-08
-1.17937e-06
2.45112e-07
-2.03272e-07
-8.2897e-07
2.31429e-07
-1.82154e-07
8.85679e-07
1.2717e-06
0.00113123
-1.2955e-07
-0.00113124
-7.57291e-08
-1.21085e-06
2.57304e-07
-2.02679e-07
-8.30618e-07
2.29718e-07
-1.83818e-07
8.83887e-07
-7.66601e-08
-1.79749e-08
0.00113093
-2.0999e-07
1.25167e-06
2.37498e-07
8.79021e-07
-1.81774e-07
2.26267e-07
-8.29922e-07
-1.41743e-07
-0.00113186
-4.38571e-08
-1.18962e-06
2.32463e-07
-2.09439e-07
-8.20899e-07
2.36048e-07
8.88888e-07
-1.72494e-07
1.2526e-06
0.00113084
-1.23617e-07
-0.00113085
-4.04454e-08
-1.21746e-06
2.38821e-07
-2.09356e-07
-8.26448e-07
2.29803e-07
-1.78186e-07
8.82679e-07
-1.844e-07
-2.01841e-07
0.00026811
-1.21337e-06
0.000270138
-0.000268126
2.24283e-07
2.48648e-07
-1.09154e-07
8.66991e-09
0.00113204
-2.08292e-07
1.21631e-06
2.35642e-07
8.7967e-07
-1.8443e-07
2.28463e-07
-8.28856e-07
-1.38957e-07
-0.00113158
-1.9756e-08
-1.18702e-06
2.29415e-07
-2.12566e-07
-8.20271e-07
2.38755e-07
8.89245e-07
-1.75044e-07
1.22876e-06
0.00113197
-1.07707e-07
-0.00113198
-7.94046e-08
-1.17323e-06
2.46471e-07
-1.96473e-07
-8.31109e-07
2.2787e-07
-1.86081e-07
8.78474e-07
-0.000268107
2.39442e-07
2.36164e-07
1.22847e-06
1.17997e-06
-1.88481e-07
-2.05221e-07
0.000268145
-1.26096e-06
-1.22434e-06
0.000270156
-0.000268142
2.31095e-07
2.40226e-07
6.67556e-09
0.00113107
-2.17791e-07
1.25287e-06
2.36426e-07
8.86085e-07
-1.75825e-07
-8.22832e-07
2.31801e-07
-1.21067e-06
-1.22703e-07
-1.14519e-07
0.00113151
-1.98027e-07
1.28186e-06
2.61026e-07
8.86534e-07
-1.8403e-07
-8.34175e-07
2.30129e-07
0.00113097
-1.18665e-07
-0.00113099
-3.00802e-08
-1.22067e-06
2.45107e-07
-2.09092e-07
-8.27451e-07
2.27535e-07
-1.80323e-07
8.81391e-07
1.27309e-06
0.00113148
-1.02619e-07
-0.0011315
-8.37028e-08
-1.21741e-06
2.50983e-07
-2.06608e-07
-8.31535e-07
2.32888e-07
-1.81097e-07
8.89083e-07
-2.00546e-07
-1.85192e-07
0.000268162
-1.22056e-06
0.000270202
-0.000268179
2.31348e-07
2.39537e-07
-4.21924e-08
0.00113219
-2.03999e-07
1.22722e-06
2.44215e-07
8.84228e-07
-1.83592e-07
-8.30574e-07
2.30138e-07
-1.20829e-06
-1.0978e-07
-8.70926e-08
0.00113121
-2.00963e-07
1.27363e-06
2.58399e-07
8.82545e-07
-1.85234e-07
-8.32274e-07
2.2867e-07
0.00113207
-9.89768e-08
-0.0011321
-4.47533e-08
-1.18225e-06
2.41701e-07
-2.06372e-07
-8.30841e-07
2.3094e-07
-1.82924e-07
8.84071e-07
1.26797e-06
0.00113112
-9.48795e-08
-0.00113115
-7.67933e-08
-1.21198e-06
2.51566e-07
-2.06333e-07
-8.29077e-07
2.32957e-07
-1.81436e-07
8.86255e-07
-1.42521e-07
-5.5748e-08
0.00113085
-2.07173e-07
1.25506e-06
2.41144e-07
8.84188e-07
-1.76918e-07
2.31023e-07
-8.24938e-07
-1.7857e-07
-0.00113187
1.74856e-09
-1.19254e-06
2.334e-07
-2.1042e-07
-8.19606e-07
2.33814e-07
8.89094e-07
-1.7357e-07
1.26104e-06
0.00113095
-1.68138e-07
-0.00113091
-8.36662e-08
-1.2093e-06
2.45923e-07
-2.0231e-07
-8.22421e-07
2.33004e-07
-1.75538e-07
8.87364e-07
-2.00257e-07
-1.8936e-07
0.000268128
-1.21588e-06
0.000270143
-0.000268132
2.29955e-07
2.42821e-07
-1.17179e-07
-1.01599e-07
0.00113198
-1.94632e-07
1.23093e-06
2.47874e-07
8.80386e-07
-1.84161e-07
2.29962e-07
-8.29398e-07
-1.70976e-07
-0.00113151
8.0091e-09
-1.18681e-06
2.34559e-07
-2.09694e-07
-8.19978e-07
2.36353e-07
8.8872e-07
-1.76749e-07
1.22813e-06
0.00113205
-1.50068e-07
-0.00113202
-1.00356e-07
-1.17291e-06
2.43724e-07
-1.98605e-07
-8.2286e-07
2.36273e-07
-1.7805e-07
8.87457e-07
-0.000268156
2.37313e-07
2.42999e-07
1.21743e-06
1.18207e-06
-1.91777e-07
-1.97045e-07
0.000268145
-1.26402e-06
-1.22915e-06
0.000270184
-0.000268166
2.34746e-07
2.41044e-07
-5.09587e-08
0.00113095
-2.06172e-07
1.26384e-06
2.47506e-07
8.81128e-07
-1.80576e-07
-8.27982e-07
2.27604e-07
-1.22321e-06
-9.92746e-08
-5.75409e-08
0.00113145
-2.12068e-07
1.267e-06
2.45504e-07
8.89288e-07
-1.80474e-07
-8.3105e-07
2.33195e-07
0.00113094
-1.4136e-07
-0.00113093
-7.05669e-08
-1.21611e-06
2.46567e-07
-2.06171e-07
-8.2405e-07
2.32448e-07
-1.75889e-07
8.85544e-07
1.2583e-06
0.00113136
-1.28834e-07
-0.00113138
-1.5585e-08
-1.23353e-06
2.39728e-07
-2.19523e-07
-8.29087e-07
2.35166e-07
-1.78354e-07
8.91216e-07
-1.95611e-07
-1.96121e-07
0.000268181
-1.23764e-06
0.000270209
-0.000268186
2.42947e-07
2.29974e-07
-5.39175e-08
0.00113205
-2.0594e-07
1.22473e-06
2.42332e-07
8.85474e-07
-1.8146e-07
-8.29477e-07
2.32384e-07
-1.21691e-06
-9.80043e-08
-5.52742e-08
0.00113107
-2.11223e-07
1.26238e-06
2.46357e-07
8.87736e-07
-1.79563e-07
-8.2724e-07
2.34349e-07
0.00113204
-1.32715e-07
-0.00113204
-8.48926e-08
-1.17796e-06
2.46214e-07
-2.01986e-07
-8.27213e-07
2.34248e-07
-1.79226e-07
8.8747e-07
1.24935e-06
0.00113095
-1.18409e-07
-0.00113099
5.35265e-09
-1.23069e-06
2.3669e-07
-2.22103e-07
-8.26317e-07
2.34125e-07
-1.78754e-07
8.87607e-07
-1.65746e-07
-8.10626e-08
0.00113097
-2.0198e-07
1.26131e-06
2.46044e-07
8.88381e-07
-1.74644e-07
2.34034e-07
-8.21472e-07
-1.00779e-07
-0.00113181
-8.59243e-08
-1.17537e-06
2.50093e-07
-1.92701e-07
-8.31257e-07
2.24884e-07
8.78025e-07
-1.83609e-07
1.2555e-06
0.00113094
-1.42101e-07
-0.00113097
-3.3418e-08
-1.21408e-06
2.41136e-07
-2.06487e-07
-8.2137e-07
2.34044e-07
-1.73825e-07
8.87899e-07
-1.91523e-07
-1.97697e-07
0.000268133
-1.22816e-06
0.000270144
-0.000268134
2.3727e-07
2.30121e-07
-1.56036e-07
-8.64857e-08
0.00113207
-2.00558e-07
1.22619e-06
2.42021e-07
8.89316e-07
-1.76212e-07
2.38004e-07
-8.2086e-07
-8.91976e-08
-0.0011314
-6.54056e-08
-1.17283e-06
2.46476e-07
-1.95764e-07
-8.30967e-07
2.26924e-07
8.77427e-07
-1.8642e-07
1.22267e-06
0.00113204
-1.31036e-07
-0.00113207
-4.68932e-08
-1.17908e-06
2.39744e-07
-2.03213e-07
-8.22118e-07
2.3616e-07
-1.7701e-07
8.87082e-07
-0.00026818
2.35721e-07
2.40437e-07
1.21749e-06
1.17701e-06
-1.87886e-07
-1.97835e-07
0.000268175
-1.26395e-06
-1.22194e-06
0.000270212
-0.000268196
2.2823e-07
2.41702e-07
-6.33609e-08
0.00113095
-2.07576e-07
1.26279e-06
2.45433e-07
8.86998e-07
-1.74328e-07
-8.22401e-07
2.33728e-07
-1.23213e-06
-1.47581e-07
-2.16386e-08
0.00113136
-2.17735e-07
1.26016e-06
2.41786e-07
8.92159e-07
-1.77264e-07
-8.2817e-07
2.36149e-07
0.00113097
-1.52221e-07
-0.00113097
-4.96276e-08
-1.21731e-06
2.46921e-07
-2.07007e-07
-8.2409e-07
2.29992e-07
-1.77184e-07
8.84475e-07
1.26946e-06
0.0011314
-1.70862e-07
-0.00113138
-5.73699e-08
-1.22293e-06
2.49622e-07
-2.09695e-07
-8.28262e-07
2.35185e-07
-1.77978e-07
8.91936e-07
-1.85175e-07
-2.01876e-07
0.00026819
-1.23185e-06
0.000270242
-0.000268216
2.35774e-07
2.39004e-07
-8.78811e-08
0.00113205
-2.01551e-07
1.22992e-06
2.46374e-07
8.87594e-07
-1.79109e-07
-8.271e-07
2.34499e-07
-1.2306e-06
-1.261e-07
6.78184e-09
0.00113092
-2.21252e-07
1.2498e-06
2.37759e-07
8.86278e-07
-1.79406e-07
-8.27283e-07
2.33175e-07
0.00113206
-1.44408e-07
-0.00113206
-3.99774e-08
-1.18353e-06
2.37729e-07
-2.09162e-07
-8.25609e-07
2.35864e-07
-1.77651e-07
8.89265e-07
1.26272e-06
0.00113093
-1.44206e-07
-0.00113091
-6.05605e-08
-1.21881e-06
2.49864e-07
-2.09669e-07
-8.3141e-07
2.29528e-07
-1.83351e-07
8.82643e-07
-1.37101e-07
-1.92387e-08
0.0011309
-2.07749e-07
1.25397e-06
2.40049e-07
8.8694e-07
-1.74571e-07
2.3314e-07
-8.22108e-07
-1.30043e-07
-0.00113177
-9.10228e-08
-1.17923e-06
2.41908e-07
-1.99409e-07
-8.24686e-07
2.3207e-07
8.84922e-07
-1.76115e-07
1.25554e-06
0.0011308
-1.21736e-07
-0.00113083
-2.54326e-08
-1.21451e-06
2.418e-07
-2.06233e-07
-8.27626e-07
2.26698e-07
-1.802e-07
8.80633e-07
-1.86085e-07
-2.06993e-07
0.000268135
-1.22552e-06
0.000270165
-0.000268149
2.32331e-07
2.40088e-07
-1.19301e-07
-4.18231e-08
0.001132
-2.03024e-07
1.22267e-06
2.39804e-07
8.85435e-07
-1.78516e-07
2.34786e-07
-8.2373e-07
-1.0322e-07
-0.00113128
-9.38354e-08
-1.17489e-06
2.42741e-07
-1.98997e-07
-8.30571e-07
2.28728e-07
8.78118e-07
-1.84374e-07
1.21641e-06
0.00113188
-1.15369e-07
-0.00113192
-1.60935e-08
-1.18354e-06
2.33076e-07
-2.08164e-07
-8.2608e-07
2.32503e-07
-1.80486e-07
8.82986e-07
-0.000268174
2.29037e-07
2.39657e-07
1.21508e-06
1.18808e-06
-1.96293e-07
-1.95816e-07
0.000268201
-1.26808e-06
-1.2122e-06
0.000270231
-0.000268215
2.22403e-07
2.4207e-07
-5.74453e-08
0.00113097
-2.04768e-07
1.26637e-06
2.49251e-07
8.8179e-07
-1.80086e-07
-8.26757e-07
2.27195e-07
-1.22103e-06
-1.66306e-07
-6.29233e-08
0.00113142
-2.08264e-07
1.27115e-06
2.50824e-07
8.91108e-07
-1.79195e-07
-8.29213e-07
2.34086e-07
0.00113092
-8.52606e-08
-0.00113094
-7.9401e-08
-1.21204e-06
2.49531e-07
-2.03068e-07
-8.33118e-07
2.22985e-07
-1.85598e-07
8.76483e-07
1.27008e-06
0.00113143
-1.25693e-07
-0.00113144
-5.15394e-08
-1.22176e-06
2.49291e-07
-2.097e-07
-8.3389e-07
2.29647e-07
-1.84077e-07
8.86673e-07
-1.93874e-07
-1.93303e-07
0.000268226
-1.22003e-06
0.000270273
-0.000268249
2.2807e-07
2.38339e-07
-1.28634e-08
0.00113205
-2.13442e-07
1.21732e-06
2.33612e-07
8.89934e-07
-1.77327e-07
-8.24911e-07
2.36007e-07
-1.21306e-06
-1.58554e-07
-9.41559e-08
0.00113097
-2.04719e-07
1.26863e-06
2.5471e-07
8.84083e-07
-1.82654e-07
-8.30674e-07
2.30805e-07
0.00113202
-1.61087e-07
-0.00113203
2.43783e-08
-1.1948e-06
2.30735e-07
-2.1822e-07
-8.27011e-07
2.32426e-07
-1.80674e-07
8.87533e-07
1.27334e-06
0.00113117
-1.76788e-07
-0.0011311
-1.25712e-07
-1.2072e-06
2.55985e-07
-2.02356e-07
-8.26269e-07
2.34731e-07
-1.79154e-07
8.89093e-07
-1.10953e-07
-4.37304e-08
0.00113078
-2.03773e-07
1.25831e-06
2.44372e-07
8.77707e-07
-1.83209e-07
2.23732e-07
-8.30476e-07
-1.42672e-07
-0.0011318
-1.01367e-08
-1.19162e-06
2.30817e-07
-2.11437e-07
-8.24117e-07
2.31043e-07
8.85341e-07
-1.77107e-07
1.26429e-06
0.00113076
-8.18055e-08
-0.00113076
-1.01533e-07
-1.20507e-06
2.48727e-07
-1.98507e-07
-8.35763e-07
2.2064e-07
-1.8798e-07
8.73786e-07
-1.90169e-07
-1.95493e-07
0.000268163
-1.22314e-06
0.000270247
-0.000268227
2.30138e-07
2.45781e-07
-1.25773e-07
-2.29426e-10
0.00113186
-2.11839e-07
1.21249e-06
2.29452e-07
8.82993e-07
-1.80782e-07
2.321e-07
-8.26046e-07
-1.96106e-07
-0.00113145
-8.48686e-08
-1.17707e-06
2.37513e-07
-2.04108e-07
-8.18936e-07
2.39302e-07
8.91049e-07
-1.74601e-07
1.21131e-06
0.00113186
-1.6013e-07
-0.00113185
2.12757e-09
-1.19038e-06
2.30205e-07
-2.13419e-07
-8.26739e-07
2.30313e-07
-1.82885e-07
8.82521e-07
-0.000268198
2.25505e-07
2.4256e-07
1.2151e-06
1.1926e-06
-1.99019e-07
-1.98001e-07
0.00026822
-1.25113e-06
-1.23101e-06
0.000270245
-0.000268231
2.37858e-07
2.29867e-07
-7.15825e-08
0.0011309
-2.06372e-07
1.26436e-06
2.45781e-07
8.76969e-07
-1.85071e-07
-8.32926e-07
2.23664e-07
-1.22258e-06
-1.06975e-07
-4.91378e-08
0.00113141
-2.10417e-07
1.26931e-06
2.4862e-07
8.8523e-07
-1.85532e-07
-8.35452e-07
2.28266e-07
0.00113083
-8.77811e-08
-0.00113085
-2.97804e-08
-1.22879e-06
2.34734e-07
-2.18251e-07
-8.29393e-07
2.27996e-07
-1.80529e-07
8.80617e-07
1.26366e-06
0.00113128
-6.20653e-08
-0.00113133
-3.99831e-08
-1.22726e-06
2.43835e-07
-2.14415e-07
-8.38536e-07
2.2619e-07
-1.8765e-07
8.82225e-07
-2.01e-07
-1.9514e-07
0.000268252
-1.21935e-06
0.000270269
-0.000268249
2.29752e-07
2.33064e-07
1.23524e-08
0.00113202
-2.15229e-07
1.21502e-06