/*--------------------------------*- C++ -*----------------------------------*\
| =========                 |                                                 |
| \\      /  F ield         | OpenFOAM: The Open Source CFD Toolbox           |
|  \\    /   O peration     | Version:  v1906                                 |
|   \\  /    A nd           | Web:      www.OpenFOAM.com                      |
|    \\/     M anipulation  |                                                 |
\*---------------------------------------------------------------------------*/
FoamFile
{
    version     2.0;
    format      ascii;
    class       volVectorField;
    location    "625";
    object      U;
}
// * * * * * * * * * * * * * * * * * * * * * * * * * * * * * * * * * * * * * //

dimensions      [0 1 -1 0 0 0 0];


internalField   nonuniform List<vector> 
43248
(
(6.08146e-05 6.08459e-05 0.108928)
(-9.73448e-05 5.98117e-05 0.107975)
(5.98246e-05 -9.73521e-05 0.107974)
(-0.000158381 -0.000158437 0.106621)
(5.93534e-05 5.93779e-05 0.109226)
(-9.49739e-05 5.88743e-05 0.108152)
(5.88169e-05 -9.49776e-05 0.108152)
(-0.000154046 -0.000154112 0.106644)
(5.78848e-05 5.78887e-05 0.109515)
(-9.25404e-05 5.77944e-05 0.108311)
(5.77963e-05 -9.2528e-05 0.108311)
(-0.00014935 -0.000149386 0.106643)
(5.63444e-05 5.63649e-05 0.109794)
(-8.98577e-05 5.66437e-05 0.108451)
(5.66593e-05 -8.9909e-05 0.108451)
(-0.000144312 -0.000144338 0.106619)
(5.49048e-05 5.48942e-05 0.110064)
(-8.70355e-05 5.54742e-05 0.108573)
(5.54474e-05 -8.70324e-05 0.108572)
(-0.000138819 -0.000138842 0.106575)
(5.35419e-05 5.35769e-05 0.110324)
(-8.4135e-05 5.42568e-05 0.108675)
(5.41924e-05 -8.4094e-05 0.108675)
(-0.000133133 -0.000133138 0.106515)
(5.21914e-05 5.22804e-05 0.110574)
(-8.09525e-05 5.25704e-05 0.10876)
(5.24804e-05 -8.09161e-05 0.108759)
(-0.000127271 -0.000127286 0.10644)
(5.09186e-05 5.08735e-05 0.110813)
(-7.77732e-05 5.08732e-05 0.108827)
(5.07453e-05 -7.76992e-05 0.108826)
(-0.00012137 -0.000121387 0.106354)
(4.97786e-05 4.98698e-05 0.111042)
(-7.4349e-05 4.89335e-05 0.108877)
(4.87529e-05 -7.42801e-05 0.108877)
(-0.000115496 -0.000115557 0.106261)
(4.85855e-05 4.86082e-05 0.11126)
(-7.08428e-05 4.68613e-05 0.108912)
(4.70734e-05 -7.09153e-05 0.108911)
(-0.000109711 -0.000109665 0.106162)
(4.75735e-05 4.74439e-05 0.111466)
(-6.69161e-05 4.42108e-05 0.108932)
(4.43795e-05 -6.72312e-05 0.108931)
(-0.00010422 -0.000104321 0.106059)
(4.61643e-05 4.61141e-05 0.11166)
(-6.3598e-05 4.20977e-05 0.108939)
(4.1782e-05 -6.33225e-05 0.108938)
(-9.88622e-05 -9.87811e-05 0.105956)
(4.51778e-05 4.54163e-05 0.111843)
(-6.01991e-05 4.02038e-05 0.108933)
(4.01285e-05 -6.0381e-05 0.108932)
(-9.41664e-05 -9.4182e-05 0.105852)
(4.4224e-05 4.41301e-05 0.112014)
(-5.62999e-05 3.67173e-05 0.108918)
(3.71861e-05 -5.62132e-05 0.108916)
(-8.90722e-05 -8.90279e-05 0.10575)
(4.25602e-05 4.28989e-05 0.112173)
(-5.35401e-05 3.53893e-05 0.108893)
(3.42599e-05 -5.26009e-05 0.108893)
(-8.4569e-05 -8.43337e-05 0.105651)
(4.20377e-05 4.15863e-05 0.112319)
(-4.90298e-05 3.16285e-05 0.10886)
(3.24295e-05 -5.00889e-05 0.108859)
(-8.02233e-05 -8.07221e-05 0.105553)
(4.07355e-05 4.09603e-05 0.112453)
(-4.58384e-05 3.04551e-05 0.10882)
(3.05668e-05 -4.66188e-05 0.108817)
(-7.62431e-05 -7.64734e-05 0.105459)
(4.14193e-05 4.09676e-05 0.112571)
(-4.35263e-05 2.71864e-05 0.108771)
(2.66314e-05 -4.13682e-05 0.10877)
(-7.22442e-05 -7.15368e-05 0.105366)
(3.68958e-05 3.66414e-05 0.112677)
(-3.83407e-05 2.40773e-05 0.108723)
(2.50804e-05 -4.00794e-05 0.108722)
(-6.81475e-05 -6.84803e-05 0.10528)
(3.56135e-05 3.59813e-05 0.11278)
(-3.59876e-05 2.09174e-05 0.108668)
(2.18391e-05 -3.68015e-05 0.108671)
(-6.67893e-05 -6.705e-05 0.105203)
(3.66769e-05 3.7434e-05 0.112865)
(-3.41571e-05 2.1517e-05 0.108614)
(1.95715e-05 -3.1439e-05 0.108612)
(-6.03442e-05 -6.0951e-05 0.10512)
(3.59317e-05 3.16262e-05 0.112935)
(-3.23397e-05 1.81644e-05 0.108568)
(2.03709e-05 -3.61724e-05 0.108554)
(-6.28906e-05 -6.27415e-05 0.105039)
(2.436e-05 3.06968e-05 0.113012)
(-2.83787e-05 2.12292e-05 0.108511)
(1.31079e-05 -2.13671e-05 0.108528)
(-5.92087e-05 -5.30896e-05 0.105004)
(1.79324e-05 2.09539e-05 0.113104)
(-2.50248e-05 3.90675e-06 0.108466)
(9.16613e-06 -2.96713e-05 0.108487)
(-4.76411e-05 -5.92003e-05 0.104952)
(4.96155e-05 3.11331e-05 0.11309)
(6.45933e-06 -3.08725e-06 0.108462)
(1.95235e-05 2.78946e-06 0.108391)
(-5.11161e-05 -5.7117e-05 0.104787)
(4.26093e-05 4.45957e-05 0.112951)
(-3.13038e-06 5.62683e-05 0.108243)
(3.21769e-05 -1.34658e-05 0.108172)
(-4.18425e-05 -2.74276e-05 0.104615)
(-6.91523e-06 4.45539e-05 0.112997)
(-5.84125e-05 3.29643e-05 0.107941)
(-5.92077e-06 -2.14294e-05 0.108088)
(-4.14592e-05 -6.77812e-06 0.104773)
(-5.87037e-06 -5.86217e-06 0.106779)
(6.01441e-05 9.79739e-05 0.107927)
(-6.01553e-05 9.80068e-05 0.107927)
(5.97549e-06 -5.89579e-06 0.106779)
(9.79513e-05 6.01223e-05 0.107927)
(9.80198e-05 -6.01774e-05 0.107926)
(-9.78874e-05 6.00489e-05 0.107927)
(-9.79944e-05 -6.01531e-05 0.107927)
(-5.82713e-06 5.87841e-06 0.106778)
(6.00662e-05 -9.79121e-05 0.107927)
(-6.00509e-05 -9.78836e-05 0.107927)
(5.93085e-06 5.95897e-06 0.106778)
(0.000158533 0.000158413 0.106621)
(-8.46344e-06 -8.29468e-06 0.106817)
(5.98937e-05 9.74107e-05 0.107974)
(-5.99154e-05 9.74655e-05 0.107974)
(5.91752e-05 9.56575e-05 0.108109)
(-5.92081e-05 9.57107e-05 0.108109)
(-0.000158453 0.000158421 0.106621)
(8.49451e-06 -8.43079e-06 0.106817)
(9.73868e-05 5.98624e-05 0.107975)
(9.74665e-05 -5.99258e-05 0.107974)
(9.56028e-05 5.91135e-05 0.108109)
(9.56937e-05 -5.92098e-05 0.108108)
(-9.74274e-05 -5.98883e-05 0.107974)
(-9.55726e-05 5.9108e-05 0.10811)
(-9.56682e-05 -5.91548e-05 0.108109)
(0.000158509 -0.0001586 0.106621)
(-8.37378e-06 8.48591e-06 0.106816)
(-5.97891e-05 -9.73114e-05 0.107974)
(5.9055e-05 -9.55871e-05 0.108109)
(-5.90418e-05 -9.55341e-05 0.108109)
(8.4734e-06 8.48507e-06 0.106817)
(0.000154128 0.000154164 0.106644)
(-1.07082e-05 -1.05921e-05 0.106829)
(5.88896e-05 9.50134e-05 0.108151)
(-5.89779e-05 9.50951e-05 0.108151)
(5.81691e-05 9.32086e-05 0.108272)
(-5.81097e-05 9.32375e-05 0.108272)
(-0.000154157 0.000154111 0.106644)
(1.08463e-05 -1.07794e-05 0.10683)
(9.49676e-05 5.88146e-05 0.108152)
(9.50709e-05 -5.89705e-05 0.108151)
(9.31771e-05 5.80639e-05 0.108273)
(9.32467e-05 -5.81253e-05 0.108272)
(-9.50464e-05 -5.89031e-05 0.108151)
(-9.31226e-05 5.79998e-05 0.108273)
(-9.32038e-05 -5.81048e-05 0.108272)
(0.000154171 -0.000154201 0.106644)
(-1.07164e-05 1.08367e-05 0.106829)
(-5.88014e-05 -9.49432e-05 0.108152)
(5.80043e-05 -9.31294e-05 0.108273)
(-5.80126e-05 -9.3119e-05 0.108273)
(1.06911e-05 1.07299e-05 0.106829)
(0.000149404 0.000149403 0.106643)
(-1.28096e-05 -1.26906e-05 0.106817)
(5.79131e-05 9.25845e-05 0.10831)
(-5.79137e-05 9.26347e-05 0.10831)
(5.71049e-05 9.06542e-05 0.108417)
(-5.71094e-05 9.06632e-05 0.108417)
(-0.000149267 0.000149232 0.106643)
(1.27973e-05 -1.2749e-05 0.106818)
(9.25538e-05 5.78106e-05 0.108311)
(9.26431e-05 -5.79202e-05 0.10831)
(9.05886e-05 5.70087e-05 0.108418)
(9.06451e-05 -5.71041e-05 0.108417)
(-9.25829e-05 -5.78529e-05 0.10831)
(-9.05648e-05 5.69897e-05 0.108418)
(-9.06769e-05 -5.71236e-05 0.108417)
(0.000149336 -0.000149353 0.106643)
(-1.27934e-05 1.28799e-05 0.106817)
(-5.77779e-05 -9.25135e-05 0.108311)
(5.69527e-05 -9.05688e-05 0.108418)
(-5.70364e-05 -9.06126e-05 0.108417)
(1.27098e-05 1.27586e-05 0.106817)
(0.000144235 0.000144245 0.106619)
(-1.48785e-05 -1.48027e-05 0.106784)
(5.67853e-05 8.99473e-05 0.10845)
(-5.67632e-05 8.997e-05 0.10845)
(5.58814e-05 8.78011e-05 0.108543)
(-5.59242e-05 8.7886e-05 0.108543)
(-0.000144201 0.000144156 0.106619)
(1.486e-05 -1.47938e-05 0.106785)
(8.98813e-05 5.66987e-05 0.108451)
(8.99457e-05 -5.68283e-05 0.10845)
(8.77656e-05 5.57586e-05 0.108544)
(8.78458e-05 -5.58483e-05 0.108542)
(-8.99445e-05 -5.67702e-05 0.10845)
(-8.77709e-05 5.58141e-05 0.108544)
(-8.78697e-05 -5.5878e-05 0.108543)
(0.000144175 -0.000144237 0.106619)
(-1.48725e-05 1.49817e-05 0.106783)
(-5.66864e-05 -8.98987e-05 0.108451)
(5.57229e-05 -8.7749e-05 0.108544)
(-5.57845e-05 -8.77973e-05 0.108543)
(1.48801e-05 1.49216e-05 0.106784)
(0.00013879 0.00013876 0.106575)
(-1.68014e-05 -1.6716e-05 0.106732)
(5.56066e-05 8.71352e-05 0.108572)
(-5.55786e-05 8.71522e-05 0.108571)
(5.46567e-05 8.49524e-05 0.10865)
(-5.47179e-05 8.49966e-05 0.10865)
(-0.000138799 0.000138771 0.106576)
(1.68133e-05 -1.67493e-05 0.106732)
(8.70967e-05 5.54739e-05 0.108572)
(8.71745e-05 -5.55396e-05 0.108571)
(8.48914e-05 5.4556e-05 0.108651)
(8.4976e-05 -5.46667e-05 0.10865)
(-8.71518e-05 -5.56325e-05 0.108571)
(-8.49083e-05 5.46105e-05 0.108651)
(-8.49419e-05 -5.46083e-05 0.10865)
(0.000138736 -0.000138733 0.106575)
(-1.67463e-05 1.68862e-05 0.106731)
(-5.55444e-05 -8.71049e-05 0.108572)
(5.45689e-05 -8.48518e-05 0.108651)
(-5.45379e-05 -8.48531e-05 0.108651)
(1.68113e-05 1.68673e-05 0.106731)
(0.000133152 0.000133134 0.106515)
(-1.89043e-05 -1.87769e-05 0.106663)
(5.42463e-05 8.41765e-05 0.108674)
(-5.43541e-05 8.42549e-05 0.108674)
(5.31176e-05 8.18467e-05 0.108739)
(-5.30895e-05 8.18781e-05 0.108739)
(-0.000133159 0.000133145 0.106515)
(1.89359e-05 -1.88626e-05 0.106663)
(8.41036e-05 5.41561e-05 0.108675)
(8.42051e-05 -5.43021e-05 0.108674)
(8.17394e-05 5.30738e-05 0.10874)
(8.1776e-05 -5.30611e-05 0.108738)
(-8.42132e-05 -5.4271e-05 0.108674)
(-8.17594e-05 5.29909e-05 0.10874)
(-8.17949e-05 -5.30059e-05 0.108739)
(0.000133158 -0.00013315 0.106515)
(-1.89117e-05 1.89949e-05 0.106662)
(-5.42055e-05 -8.41326e-05 0.108675)
(5.29179e-05 -8.17111e-05 0.10874)
(-5.29565e-05 -8.17066e-05 0.10874)
(1.88614e-05 1.89202e-05 0.106662)
(0.000127292 0.000127301 0.10644)
(-2.09922e-05 -2.09721e-05 0.106582)
(5.27217e-05 8.10612e-05 0.108758)
(-5.26711e-05 8.10988e-05 0.108758)
(5.13298e-05 7.85054e-05 0.10881)
(-5.14316e-05 7.85829e-05 0.10881)
(-0.000127202 0.000127186 0.10644)
(2.0831e-05 -2.08129e-05 0.106583)
(8.09384e-05 5.26496e-05 0.108759)
(8.09645e-05 -5.26174e-05 0.108758)
(7.85259e-05 5.11767e-05 0.108811)
(7.86169e-05 -5.14128e-05 0.10881)
(-8.10181e-05 -5.2663e-05 0.108758)
(-7.85384e-05 5.12812e-05 0.108812)
(-7.85451e-05 -5.13057e-05 0.10881)
(0.000127157 -0.000127192 0.10644)
(-2.0793e-05 2.08839e-05 0.106581)
(-5.25891e-05 -8.09442e-05 0.108759)
(5.12764e-05 -7.85536e-05 0.108811)
(-5.12311e-05 -7.84904e-05 0.108811)
(2.08905e-05 2.0935e-05 0.106581)
(0.000121305 0.000121204 0.106354)
(-2.28862e-05 -2.27896e-05 0.106492)
(5.08232e-05 7.76375e-05 0.108826)
(-5.1053e-05 7.77973e-05 0.108825)
(4.95239e-05 7.5239e-05 0.108865)
(-4.95331e-05 7.52998e-05 0.108864)
(-0.000121493 0.00012141 0.106355)
(2.29088e-05 -2.28539e-05 0.106492)
(7.76905e-05 5.06485e-05 0.108826)
(7.77525e-05 -5.08837e-05 0.108825)
(7.52012e-05 4.94332e-05 0.108866)
(7.53628e-05 -4.96043e-05 0.108864)
(-7.77292e-05 -5.07955e-05 0.108825)
(-7.51849e-05 4.94204e-05 0.108866)
(-7.52356e-05 -4.9487e-05 0.108865)
(0.000121374 -0.000121406 0.106354)
(-2.27905e-05 2.29048e-05 0.10649)
(-5.07413e-05 -7.76509e-05 0.108826)
(4.94762e-05 -7.52343e-05 0.108865)
(-4.93894e-05 -7.52325e-05 0.108865)
(2.29273e-05 2.29445e-05 0.106491)
(0.000115565 0.000115591 0.106261)
(-2.48826e-05 -2.47975e-05 0.106393)
(4.90035e-05 7.44411e-05 0.108876)
(-4.90239e-05 7.44859e-05 0.108875)
(4.74844e-05 7.17956e-05 0.108903)
(-4.73084e-05 7.17324e-05 0.108903)
(-0.000115548 0.000115525 0.106261)
(2.49456e-05 -2.48887e-05 0.106394)
(7.42983e-05 4.89829e-05 0.108877)
(7.43307e-05 -4.89023e-05 0.108875)
(7.17337e-05 4.7379e-05 0.108904)
(7.18372e-05 -4.74825e-05 0.108902)
(-7.43247e-05 -4.89571e-05 0.108876)
(-7.16762e-05 4.71893e-05 0.108905)
(-7.18331e-05 -4.74291e-05 0.108903)
(0.000115509 -0.000115538 0.106261)
(-2.47849e-05 2.49116e-05 0.106393)
(-4.88777e-05 -7.4365e-05 0.108877)
(4.73967e-05 -7.17741e-05 0.108904)
(-4.73641e-05 -7.17461e-05 0.108904)
(2.4868e-05 2.49607e-05 0.106393)
(0.000109743 0.000109706 0.106161)
(-2.65998e-05 -2.65541e-05 0.106291)
(4.67857e-05 7.07997e-05 0.10891)
(-4.69455e-05 7.09527e-05 0.10891)
(4.54166e-05 6.83069e-05 0.108926)
(-4.50178e-05 6.8141e-05 0.108926)
(-0.000109744 0.000109717 0.106162)
(2.67655e-05 -2.66402e-05 0.106292)
(7.07638e-05 4.67133e-05 0.108911)
(7.10808e-05 -4.71072e-05 0.108909)
(6.82365e-05 4.52234e-05 0.108927)
(6.79876e-05 -4.48952e-05 0.108926)
(-7.09e-05 -4.67741e-05 0.10891)
(-6.78891e-05 4.49764e-05 0.108928)
(-6.81638e-05 -4.52879e-05 0.108926)
(0.000109828 -0.000109797 0.106162)
(-2.67052e-05 2.68244e-05 0.10629)
(-4.67879e-05 -7.07378e-05 0.108911)
(4.48403e-05 -6.78929e-05 0.108928)
(-4.50971e-05 -6.80917e-05 0.108927)
(2.66234e-05 2.66461e-05 0.10629)
(0.000104387 0.000104321 0.106059)
(-2.86521e-05 -2.86274e-05 0.106187)
(4.48434e-05 6.73532e-05 0.10893)
(-4.43409e-05 6.70804e-05 0.10893)
(4.24861e-05 6.42113e-05 0.108937)
(-4.31176e-05 6.46347e-05 0.108936)
(-0.000104097 0.000104108 0.106059)
(2.81773e-05 -2.83412e-05 0.106187)
(6.73627e-05 4.46407e-05 0.108931)
(6.7181e-05 -4.45498e-05 0.108929)
(6.42296e-05 4.2326e-05 0.108938)
(6.45569e-05 -4.28961e-05 0.108935)
(-6.72544e-05 -4.4817e-05 0.10893)
(-6.47536e-05 4.28541e-05 0.108938)
(-6.4414e-05 -4.24757e-05 0.108936)
(0.000104038 -0.00010408 0.106059)
(-2.81369e-05 2.81862e-05 0.106185)
(-4.45784e-05 -6.73483e-05 0.108931)
(4.27428e-05 -6.45128e-05 0.108937)
(-4.24751e-05 -6.4325e-05 0.108937)
(2.84254e-05 2.85455e-05 0.106186)
(9.87557e-05 9.8694e-05 0.105956)
(-2.98386e-05 -2.95646e-05 0.106081)
(4.21375e-05 6.3433e-05 0.108937)
(-4.22241e-05 6.35478e-05 0.108936)
(4.06159e-05 6.12086e-05 0.108934)
(-4.06216e-05 6.11506e-05 0.108933)
(-9.91703e-05 9.89789e-05 0.105956)
(3.01177e-05 -2.99694e-05 0.106082)
(6.34199e-05 4.19678e-05 0.108938)
(6.33704e-05 -4.18586e-05 0.108936)
(6.09608e-05 4.07446e-05 0.108935)
(6.11554e-05 -4.0925e-05 0.108933)
(-6.34483e-05 -4.19829e-05 0.108937)
(-6.08559e-05 4.06052e-05 0.108936)
(-6.10668e-05 -4.06852e-05 0.108933)
(9.90968e-05 -9.90874e-05 0.105955)
(-2.99727e-05 2.9881e-05 0.106081)
(-4.19127e-05 -6.33456e-05 0.108938)
(4.06069e-05 -6.11585e-05 0.108935)
(-4.06553e-05 -6.11262e-05 0.108934)
(2.97476e-05 2.97456e-05 0.10608)
(9.40599e-05 9.42359e-05 0.105852)
(-3.15279e-05 -3.16554e-05 0.105976)
(3.97525e-05 6.01499e-05 0.108932)
(-4.0203e-05 6.04656e-05 0.108931)
(3.8201e-05 5.74993e-05 0.108919)
(-3.76582e-05 5.73866e-05 0.10892)
(-9.39182e-05 9.39548e-05 0.105852)
(3.17465e-05 -3.17187e-05 0.105977)
(5.98812e-05 3.98323e-05 0.108933)
(6.0287e-05 -4.03527e-05 0.10893)
(5.75543e-05 3.79748e-05 0.108921)
(5.73537e-05 -3.75316e-05 0.108919)
(-6.01196e-05 -3.9864e-05 0.108931)
(-5.72222e-05 3.75966e-05 0.108922)
(-5.73982e-05 -3.78664e-05 0.10892)
(9.41206e-05 -9.43062e-05 0.105852)
(-3.17111e-05 3.21304e-05 0.105976)
(-3.98605e-05 -6.01426e-05 0.108932)
(3.77231e-05 -5.68952e-05 0.108921)
(-3.7831e-05 -5.71801e-05 0.108921)
(3.16844e-05 3.17726e-05 0.105976)
(8.9305e-05 8.90771e-05 0.10575)
(-3.33038e-05 -3.31981e-05 0.105875)
(3.75484e-05 5.659e-05 0.108915)
(-3.71047e-05 5.64505e-05 0.108915)
(3.4789e-05 5.34895e-05 0.108898)
(-3.57092e-05 5.37533e-05 0.108898)
(-8.88727e-05 8.87345e-05 0.10575)
(3.25304e-05 -3.26767e-05 0.105875)
(5.67782e-05 3.71853e-05 0.108916)
(5.67709e-05 -3.718e-05 0.108914)
(5.35153e-05 3.47862e-05 0.1089)
(5.39322e-05 -3.51551e-05 0.108897)
(-5.66015e-05 -3.73696e-05 0.108915)
(-5.43275e-05 3.55257e-05 0.1089)
(-5.38187e-05 -3.46826e-05 0.108898)
(8.88937e-05 -8.86169e-05 0.10575)
(-3.28006e-05 3.28056e-05 0.105874)
(-3.73111e-05 -5.65604e-05 0.108916)
(3.52546e-05 -5.39924e-05 0.108899)
(-3.49605e-05 -5.35513e-05 0.108899)
(3.29998e-05 3.31923e-05 0.105874)
(8.43425e-05 8.45032e-05 0.105652)
(-3.4001e-05 -3.40866e-05 0.105773)
(3.44984e-05 5.30042e-05 0.108892)
(-3.52519e-05 5.35342e-05 0.108891)
(3.34792e-05 5.0689e-05 0.108867)
(-3.24632e-05 5.01592e-05 0.108866)
(-8.50667e-05 8.50218e-05 0.105651)
(3.48646e-05 -3.46823e-05 0.105774)
(5.26659e-05 3.48265e-05 0.108893)
(5.26283e-05 -3.41166e-05 0.10889)
(5.07937e-05 3.3124e-05 0.108868)
(5.07067e-05 -3.3701e-05 0.108866)
(-5.28566e-05 -3.41196e-05 0.108891)
(-4.97305e-05 3.23559e-05 0.108869)
(-5.04942e-05 -3.35721e-05 0.108866)
(8.45983e-05 -8.46536e-05 0.105651)
(-3.42399e-05 3.39648e-05 0.105773)
(-3.45551e-05 -5.2452e-05 0.108893)
(3.32884e-05 -5.08134e-05 0.108869)
(-3.3067e-05 -5.07786e-05 0.108868)
(3.42463e-05 3.3827e-05 0.105773)
(8.04242e-05 8.01757e-05 0.105553)
(-3.57442e-05 -3.53885e-05 0.105676)
(3.18297e-05 4.89754e-05 0.108858)
(-3.19048e-05 4.88236e-05 0.108857)
(3.05329e-05 4.71768e-05 0.108829)
(-3.05724e-05 4.73968e-05 0.108827)
(-7.98666e-05 7.97473e-05 0.105554)
(3.5474e-05 -3.49425e-05 0.105676)
(4.92846e-05 3.15793e-05 0.10886)
(4.95612e-05 -3.28808e-05 0.108857)
(4.656e-05 3.06794e-05 0.10883)
(4.66531e-05 -3.09973e-05 0.108827)
(-4.90792e-05 -3.21801e-05 0.108857)
(-4.68068e-05 3.10666e-05 0.10883)
(-4.68825e-05 -3.13178e-05 0.108828)
(8.04346e-05 -8.08825e-05 0.105554)
(-3.58778e-05 3.57316e-05 0.105674)
(-3.16572e-05 -4.94057e-05 0.108859)
(3.0301e-05 -4.67413e-05 0.108829)
(-3.05632e-05 -4.74717e-05 0.108829)
(3.57646e-05 3.54427e-05 0.105674)
(7.64694e-05 7.66953e-05 0.10546)
(-3.66367e-05 -3.72845e-05 0.105577)
(3.05752e-05 4.66846e-05 0.108818)
(-2.99647e-05 4.67631e-05 0.108816)
(2.88952e-05 4.30771e-05 0.108782)
(-2.81006e-05 4.27139e-05 0.108781)
(-7.62519e-05 7.68068e-05 0.105459)
(3.67563e-05 -3.7645e-05 0.105579)
(4.6288e-05 3.05076e-05 0.10882)
(4.66995e-05 -3.11022e-05 0.108815)
(4.39017e-05 2.8386e-05 0.108783)
(4.32695e-05 -2.6087e-05 0.108781)
(-4.63751e-05 -3.08334e-05 0.108817)
(-4.38444e-05 2.74637e-05 0.108784)
(-4.35721e-05 -2.70692e-05 0.108781)
(7.60377e-05 -7.61727e-05 0.105458)
(-3.68705e-05 3.78846e-05 0.105577)
(-3.02598e-05 -4.68225e-05 0.108817)
(2.7284e-05 -4.26727e-05 0.108782)
(-2.79643e-05 -4.24257e-05 0.108783)
(3.67465e-05 3.75622e-05 0.105577)
(7.22106e-05 7.16367e-05 0.105365)
(-3.85135e-05 -3.80543e-05 0.105485)
(2.83776e-05 4.27769e-05 0.108768)
(-2.75407e-05 4.22231e-05 0.108769)
(2.398e-05 4.12988e-05 0.108728)
(-2.41851e-05 4.03126e-05 0.108732)
(-7.22965e-05 7.13824e-05 0.105367)
(3.84856e-05 -3.75693e-05 0.105489)
(4.35019e-05 2.80854e-05 0.108768)
(4.26628e-05 -2.52855e-05 0.108769)
(4.03259e-05 2.38737e-05 0.108729)
(4.09378e-05 -2.63855e-05 0.108731)
(-4.31872e-05 -2.71371e-05 0.108769)
(-3.92809e-05 2.45055e-05 0.108735)
(-4.08443e-05 -2.5212e-05 0.108729)
(7.19566e-05 -7.08983e-05 0.105367)
(-3.73381e-05 3.69838e-05 0.105487)
(-2.8065e-05 -4.23443e-05 0.10877)
(2.61701e-05 -4.08234e-05 0.108734)
(-2.48776e-05 -4.09366e-05 0.108731)
(3.80088e-05 3.77138e-05 0.105485)
(6.78766e-05 6.79876e-05 0.105279)
(-3.77481e-05 -3.74628e-05 0.105407)
(2.22545e-05 3.89415e-05 0.108717)
(-2.42716e-05 3.88968e-05 0.108721)
(2.39966e-05 3.60848e-05 0.108686)
(-2.42332e-05 3.71329e-05 0.108678)
(-6.80757e-05 6.86272e-05 0.105282)
(3.74721e-05 -3.83081e-05 0.105401)
(3.86288e-05 2.18261e-05 0.108719)
(3.97546e-05 -2.54475e-05 0.108718)
(3.65455e-05 2.40708e-05 0.108685)
(3.57872e-05 -2.28123e-05 0.10868)
(-3.89159e-05 -2.27381e-05 0.108717)
(-3.82887e-05 2.31559e-05 0.10868)
(-3.6258e-05 -2.43848e-05 0.108685)
(6.89974e-05 -6.97505e-05 0.105281)
(-3.95658e-05 3.86576e-05 0.105403)
(-2.25634e-05 -3.89454e-05 0.108719)
(2.12383e-05 -3.67048e-05 0.108684)
(-2.39962e-05 -3.69047e-05 0.108686)
(3.80164e-05 3.78201e-05 0.105406)
(6.66695e-05 6.74946e-05 0.105203)
(-3.92319e-05 -3.99177e-05 0.105318)
(2.43822e-05 3.7316e-05 0.108672)
(-2.13192e-05 3.57351e-05 0.108666)
(2.1283e-05 3.4938e-05 0.108627)
(-2.1279e-05 3.68069e-05 0.108626)
(-6.60551e-05 6.56789e-05 0.105198)
(3.9784e-05 -3.85475e-05 0.105322)
(3.6196e-05 2.51987e-05 0.108673)
(3.53633e-05 -2.39759e-05 0.108668)
(3.42254e-05 2.16881e-05 0.10863)
(3.48311e-05 -1.98037e-05 0.108625)
(-3.75121e-05 -2.6495e-05 0.10867)
(-3.46286e-05 2.32342e-05 0.108629)
(-3.33651e-05 -1.85193e-05 0.108625)
(6.47522e-05 -6.57817e-05 0.105201)
(-3.85802e-05 3.98167e-05 0.105318)
(-2.55241e-05 -3.78979e-05 0.108672)
(2.14232e-05 -3.39637e-05 0.108626)
(-1.86619e-05 -3.26124e-05 0.108628)
(4.06284e-05 4.03613e-05 0.105317)
(6.27744e-05 6.1036e-05 0.10512)
(-3.86249e-05 -4.04507e-05 0.105236)
(2.20329e-05 3.27667e-05 0.108611)
(-2.08683e-05 3.53271e-05 0.108611)
(2.02664e-05 3.17472e-05 0.108565)
(-1.92532e-05 2.89781e-05 0.108576)
(-6.27683e-05 6.32177e-05 0.105124)
(3.89538e-05 -4.12143e-05 0.10525)
(3.4328e-05 2.05198e-05 0.108613)
(3.28145e-05 -1.77446e-05 0.108612)
(3.43144e-05 1.64798e-05 0.108566)
(3.48985e-05 -2.46206e-05 0.108565)
(-3.06704e-05 -1.89305e-05 0.108612)
(-3.19423e-05 1.61909e-05 0.10858)
(-3.5452e-05 -2.48192e-05 0.108563)
(6.26789e-05 -6.12516e-05 0.10512)
(-3.73775e-05 3.62294e-05 0.105237)
(-1.83686e-05 -3.13734e-05 0.108614)
(2.24289e-05 -3.61169e-05 0.108568)
(-2.14557e-05 -3.74312e-05 0.108562)
(3.67432e-05 3.55503e-05 0.105232)
(6.03012e-05 5.95819e-05 0.105044)
(-4.29913e-05 -3.83189e-05 0.105188)
(1.6828e-05 3.19819e-05 0.108554)
(-1.9592e-05 3.03145e-05 0.108565)
(1.15347e-05 3.14709e-05 0.10853)
(-1.71686e-05 3.23231e-05 0.108526)
(-6.08992e-05 5.93451e-05 0.105056)
(4.08129e-05 -3.6949e-05 0.105178)
(3.29165e-05 1.4992e-05 0.108555)
(3.59801e-05 -2.05558e-05 0.108551)
(2.85222e-05 1.78604e-05 0.108526)
(2.72524e-05 -3.47518e-06 0.108526)
(-3.61024e-05 -1.79837e-05 0.10855)
(-2.83961e-05 2.0678e-05 0.108527)
(-2.9364e-05 -3.54361e-06 0.108528)
(6.254e-05 -6.33139e-05 0.105043)
(-4.33047e-05 4.83697e-05 0.105191)
(-1.74993e-05 -3.52972e-05 0.108549)
(1.10186e-05 -2.12223e-05 0.108532)
(-1.46186e-05 -2.2227e-05 0.10853)
(4.11317e-05 4.87307e-05 0.105194)
(5.65979e-05 6.1276e-05 0.104996)
(-4.53429e-05 -4.54814e-05 0.105142)
(1.03631e-05 3.07959e-05 0.108523)
(-1.82948e-05 3.25012e-05 0.108508)
(1.07751e-05 2.1935e-05 0.108508)
(-1.17439e-05 3.00192e-05 0.108461)
(-5.79085e-05 6.12375e-05 0.104985)
(4.21505e-05 -4.39657e-05 0.105112)
(2.73643e-05 1.72016e-05 0.108518)
(2.55648e-05 -8.85508e-06 0.108519)
(2.07111e-05 1.16878e-05 0.108509)
(2.61173e-05 -2.52108e-05 0.108494)
(-2.91285e-05 -8.19824e-06 0.108522)
(-2.92654e-05 1.19179e-05 0.108471)
(-2.05567e-05 -1.8142e-05 0.108513)
(5.59422e-05 -5.24275e-05 0.105002)
(-4.2092e-05 3.18778e-05 0.105132)
(-1.69649e-05 -2.32483e-05 0.108527)
(1.66269e-05 -3.60745e-05 0.1085)
(-8.54998e-06 -2.68498e-05 0.108525)
(4.79537e-05 3.74013e-05 0.105147)
(5.46547e-05 5.30039e-05 0.104948)
(-3.63353e-05 -4.82954e-05 0.104991)
(1.80651e-05 1.80348e-05 0.108496)
(-5.54578e-06 2.40663e-05 0.108456)
(4.24072e-05 3.09986e-06 0.108398)
(-4.60951e-06 -1.14312e-05 0.10847)
(-5.51556e-05 5.22076e-05 0.104924)
(5.21072e-05 -6.42976e-05 0.105093)
(1.82315e-05 1.57001e-05 0.1085)
(1.98273e-05 -1.87503e-05 0.108485)
(9.84195e-06 2.60475e-05 0.108408)
(-4.09728e-06 -1.97059e-05 0.108435)
(-1.32501e-05 -1.89117e-05 0.108506)
(-7.37088e-07 -1.10312e-05 0.108468)
(-2.65144e-06 -4.62718e-05 0.108403)
(5.40152e-05 -6.38043e-05 0.104938)
(-5.49422e-05 5.2973e-05 0.105032)
(-5.74245e-06 -2.21868e-05 0.108516)
(8.65162e-06 8.41331e-07 0.108426)
(-3.21915e-05 -1.15557e-05 0.108396)
(4.52242e-05 3.73468e-05 0.104988)
(5.64487e-05 4.42927e-05 0.104792)
(-5.72694e-05 -4.99256e-05 0.104815)
(4.27685e-05 6.76268e-07 0.108345)
(-1.31653e-05 -1.94259e-05 0.10847)
(3.96106e-06 1.59942e-05 0.108189)
(-2.8136e-05 7.54327e-06 0.108335)
(-4.45341e-05 3.3487e-05 0.104904)
(5.55909e-05 -3.48306e-05 0.104894)
(8.94415e-06 2.43962e-05 0.108356)
(-5.01115e-06 -2.90932e-05 0.108399)
(1.48875e-05 7.69834e-06 0.108195)
(2.20401e-05 -2.03592e-05 0.108226)
(-7.10184e-06 -5.2722e-05 0.108337)
(2.48846e-06 4.40982e-05 0.108322)
(-2.31756e-05 -7.55538e-06 0.108148)
(4.21426e-05 -4.36935e-05 0.104838)
(-3.70882e-05 5.17859e-05 0.104825)
(-4.07006e-05 -1.53818e-05 0.108326)
(3.47648e-05 -1.01105e-05 0.108226)
(-1.51749e-05 -2.07246e-05 0.108133)
(4.27565e-05 5.31689e-05 0.104768)
(2.67616e-05 3.92612e-05 0.104659)
(-6.50748e-05 -3.36542e-05 0.104811)
(-1.50118e-05 2.13236e-05 0.10816)
(-2.89293e-05 2.37423e-05 0.10825)
(-4.49722e-05 3.67135e-05 0.108138)
(-3.19583e-05 6.99392e-05 0.107982)
(-3.35614e-05 5.75586e-05 0.104708)
(2.17248e-05 -6.02549e-06 0.104619)
(1.29639e-05 3.39806e-06 0.108161)
(3.08121e-05 -7.92144e-06 0.108168)
(1.2909e-05 3.54151e-06 0.108127)
(4.06587e-05 2.67949e-05 0.108065)
(-2.50807e-05 2.23784e-05 0.108121)
(-5.02795e-05 6.40422e-05 0.107994)
(-2.25208e-05 8.77932e-05 0.108191)
(5.13927e-05 -3.41706e-05 0.104656)
(-3.3411e-05 5.16732e-05 0.104745)
(1.57764e-06 -1.72074e-05 0.108105)
(8.98595e-06 -2.17091e-05 0.108077)
(3.36027e-05 1.22058e-05 0.108179)
(4.93528e-05 8.8381e-05 0.104892)
(2.59045e-05 5.25916e-05 0.104677)
(-3.72503e-05 3.35916e-05 0.108154)
(-1.48659e-05 6.81615e-05 0.107924)
(-6.02041e-05 6.85227e-05 0.10447)
(1.33251e-05 3.39991e-06 0.108141)
(3.20672e-05 3.02107e-05 0.108075)
(-1.68098e-05 7.32488e-05 0.108255)
(4.84657e-05 -3.64409e-05 0.104614)
(2.5765e-05 1.70458e-05 0.108252)
(6.11781e-05 6.12079e-05 0.108853)
(-6.11821e-05 6.11734e-05 0.108853)
(6.1185e-05 -6.11824e-05 0.108853)
(-6.11996e-05 -6.12034e-05 0.108853)
(1.79252e-06 2.13762e-05 0.0940162)
(-1.36292e-06 1.95924e-05 0.0835893)
(1.92933e-06 4.42106e-05 0.0940748)
(-3.62848e-06 -2.42472e-08 0.0835677)
(-1.9764e-06 6.71523e-06 0.0721748)
(3.33698e-06 -1.84715e-06 0.0721783)
(2.13627e-05 1.78986e-06 0.0940153)
(1.96426e-05 -1.35532e-06 0.0835898)
(4.42801e-05 1.94238e-06 0.0940752)
(-4.66952e-08 -3.62467e-06 0.0835672)
(-6.08387e-05 6.08314e-05 0.108928)
(6.0836e-05 -6.08268e-05 0.108928)
(-6.08325e-05 -6.08334e-05 0.108928)
(5.9725e-05 5.9765e-05 0.109153)
(-5.97413e-05 5.97333e-05 0.109153)
(5.9746e-05 -5.97481e-05 0.109153)
(-5.97511e-05 -5.97558e-05 0.109153)
(-6.1506e-05 4.35792e-06 0.102462)
(-6.07041e-05 1.63469e-05 0.0957204)
(-0.000101115 1.86688e-05 0.10862)
(-9.67768e-05 5.95746e-05 0.108021)
(-0.000105373 4.6885e-06 0.102453)
(-2.87921e-05 4.84371e-06 0.0957153)
(-0.000100832 1.85212e-05 0.108686)
(6.63938e-06 -1.92176e-06 0.0721723)
(-1.73701e-06 3.31967e-06 0.0721803)
(4.2941e-06 -6.158e-05 0.102462)
(1.86543e-05 -0.000101075 0.10862)
(1.6376e-05 -6.06992e-05 0.0957212)
(5.95387e-05 -9.67568e-05 0.108021)
(4.70417e-06 -0.000105429 0.102452)
(1.84934e-05 -0.000100753 0.108686)
(4.85729e-06 -2.86682e-05 0.0957136)
(-2.8912e-05 -1.26856e-05 0.0894005)
(-1.26532e-05 -2.89223e-05 0.0893987)
(7.1844e-06 7.218e-06 0.106801)
(-1.81764e-05 -8.34041e-07 0.0893674)
(-7.97597e-07 -1.81816e-05 0.0893647)
(1.50295e-06 1.75087e-05 0.0937162)
(-1.07695e-06 1.80101e-05 0.0833667)
(1.61718e-06 3.95803e-05 0.0937644)
(-3.39912e-06 -1.16715e-06 0.0833525)
(-1.89885e-06 6.51699e-06 0.0720241)
(3.19651e-06 -1.9723e-06 0.0720315)
(1.74335e-05 1.50882e-06 0.0937154)
(1.8061e-05 -1.10346e-06 0.0833671)
(3.96279e-05 1.63013e-06 0.0937648)
(-1.21527e-06 -3.38144e-06 0.0833521)
(-5.94042e-05 5.93837e-05 0.109226)
(5.93922e-05 -5.9402e-05 0.109226)
(-5.93903e-05 -5.93899e-05 0.109226)
(5.82743e-05 5.82736e-05 0.109444)
(-5.8226e-05 5.82275e-05 0.109444)
(5.82752e-05 -5.82496e-05 0.109443)
(-5.82706e-05 -5.82602e-05 0.109444)
(-5.49886e-05 3.50289e-06 0.10219)
(-5.62139e-05 1.48335e-05 0.0954293)
(-9.98787e-05 1.81191e-05 0.108878)
(-9.43725e-05 5.85926e-05 0.108194)
(-9.78953e-05 3.79877e-06 0.102184)
(-2.5074e-05 3.54371e-06 0.0954286)
(-9.96009e-05 1.79894e-05 0.10894)
(6.41278e-06 -1.87727e-06 0.0720216)
(-1.88618e-06 3.14869e-06 0.0720334)
(3.54412e-06 -5.49433e-05 0.10219)
(1.8094e-05 -9.98852e-05 0.108878)
(1.48373e-05 -5.62139e-05 0.09543)
(5.8525e-05 -9.43373e-05 0.108193)
(3.84595e-06 -9.78505e-05 0.102183)
(1.7956e-05 -9.95968e-05 0.10894)
(3.59599e-06 -2.50267e-05 0.095427)
(-2.65428e-05 -1.18336e-05 0.0891483)
(-1.18021e-05 -2.65397e-05 0.0891465)
(9.53514e-06 9.56167e-06 0.106826)
(-1.60019e-05 -2.70464e-07 0.0891223)
(-2.8606e-07 -1.59763e-05 0.0891198)
(1.16737e-06 1.44817e-05 0.0934454)
(-9.8563e-07 1.68364e-05 0.0831659)
(1.3239e-06 3.59883e-05 0.0934839)
(-3.394e-06 -1.82485e-06 0.0831582)
(-2.07163e-06 6.29808e-06 0.0718872)
(3.24089e-06 -1.91413e-06 0.0718979)
(1.44187e-05 1.20407e-06 0.0934445)
(1.68722e-05 -9.73218e-07 0.0831664)
(3.60244e-05 1.33342e-06 0.0934842)
(-1.8681e-06 -3.38051e-06 0.0831578)
(-5.78773e-05 5.78606e-05 0.109515)
(5.79019e-05 -5.7887e-05 0.109515)
(-5.79017e-05 -5.78795e-05 0.109515)
(5.67601e-05 5.67755e-05 0.109725)
(-5.67362e-05 5.67301e-05 0.109725)
(5.67526e-05 -5.67663e-05 0.109725)
(-5.67918e-05 -5.67842e-05 0.109725)
(-4.86149e-05 2.89756e-06 0.101918)
(-5.2019e-05 1.37622e-05 0.0951591)
(-9.87435e-05 1.75844e-05 0.109122)
(-9.19611e-05 5.76135e-05 0.108348)
(-9.03397e-05 3.20338e-06 0.101912)
(-2.16263e-05 2.65262e-06 0.0951627)
(-9.84533e-05 1.75131e-05 0.109181)
(6.19592e-06 -2.03047e-06 0.0718845)
(-1.87073e-06 3.10108e-06 0.0718998)
(2.93581e-06 -4.85748e-05 0.101918)
(1.76076e-05 -9.87427e-05 0.109122)
(1.37162e-05 -5.2062e-05 0.09516)
(5.75576e-05 -9.18908e-05 0.108348)
(3.24741e-06 -9.03079e-05 0.101912)
(1.75029e-05 -9.84245e-05 0.10918)
(2.60134e-06 -2.16057e-05 0.0951612)
(-2.43412e-05 -1.11636e-05 0.088919)
(-1.11568e-05 -2.43361e-05 0.0889172)
(1.16971e-05 1.17539e-05 0.106826)
(-1.40207e-05 9.44178e-08 0.0888994)
(9.94614e-08 -1.40275e-05 0.0888969)
(8.94339e-07 1.20283e-05 0.0932007)
(-9.98515e-07 1.60916e-05 0.0829845)
(9.74216e-07 3.30069e-05 0.0932306)
(-3.3939e-06 -2.1792e-06 0.0829826)
(-2.20522e-06 6.11062e-06 0.071763)
(3.0604e-06 -1.93244e-06 0.0717766)
(1.19949e-05 8.83802e-07 0.0931999)
(1.61624e-05 -1.02587e-06 0.0829851)
(3.30404e-05 9.91899e-07 0.0932311)
(-2.18777e-06 -3.42898e-06 0.0829823)
(-5.63454e-05 5.63412e-05 0.109794)
(5.63569e-05 -5.63964e-05 0.109794)
(-5.63793e-05 -5.63777e-05 0.109794)
(5.52349e-05 5.52367e-05 0.109997)
(-5.52094e-05 5.52103e-05 0.109998)
(5.52192e-05 -5.5217e-05 0.109997)
(-5.52541e-05 -5.52394e-05 0.109997)
(-4.2635e-05 2.40647e-06 0.101651)
(-4.84356e-05 1.25389e-05 0.094909)
(-9.7396e-05 1.71769e-05 0.109352)
(-8.92005e-05 5.63745e-05 0.108483)
(-8.31882e-05 2.70632e-06 0.101645)