/*--------------------------------*- C++ -*----------------------------------*\
| =========                 |                                                 |
| \\      /  F ield         | OpenFOAM: The Open Source CFD Toolbox           |
|  \\    /   O peration     | Version:  v1906                                 |
|   \\  /    A nd           | Web:      www.OpenFOAM.com                      |
|    \\/     M anipulation  |                                                 |
\*---------------------------------------------------------------------------*/
FoamFile
{
    version     2.0;
    format      ascii;
    class       volVectorField;
    location    "625";
    object      U;
}
// * * * * * * * * * * * * * * * * * * * * * * * * * * * * * * * * * * * * * //

dimensions      [0 1 -1 0 0 0 0];


internalField   nonuniform List<vector> 
43024
(
(-1.40182e-05 -1.40464e-05 0.11245)
(1.20984e-05 -6.229e-06 0.107478)
(-5.14074e-06 1.24877e-05 0.107484)
(-2.57048e-05 -2.81905e-05 0.104191)
(-6.24339e-06 -1.09034e-05 0.112413)
(1.63268e-05 -2.23466e-06 0.107479)
(-1.76e-07 1.47073e-05 0.107473)
(-2.42891e-05 -2.61262e-05 0.104203)
(-1.21009e-05 -1.07779e-05 0.112366)
(1.03252e-05 -7.02226e-06 0.107474)
(-9.13065e-06 1.02158e-05 0.107467)
(-2.74831e-05 -2.38768e-05 0.104218)
(-1.77246e-05 -1.30346e-05 0.112341)
(8.06334e-06 -9.9835e-06 0.107461)
(-1.13149e-05 9.60893e-06 0.107467)
(-2.8318e-05 -2.74969e-05 0.104213)
(-9.02891e-06 -1.15784e-05 0.112317)
(1.50728e-05 -3.05223e-06 0.107458)
(-9.12987e-07 1.44251e-05 0.107463)
(-2.37229e-05 -2.72878e-05 0.104217)
(-8.84496e-06 -1.0576e-05 0.112271)
(1.31197e-05 -3.52992e-06 0.107458)
(-3.90518e-06 1.34464e-05 0.107455)
(-2.52208e-05 -2.49552e-05 0.104237)
(-1.26359e-05 -1.48156e-05 0.112236)
(8.79376e-06 -1.1298e-05 0.107451)
(-8.90034e-06 7.68444e-06 0.107443)
(-2.60772e-05 -2.66704e-05 0.104243)
(-1.38186e-05 -1.32175e-05 0.112211)
(1.30705e-05 -7.63764e-06 0.107451)
(-1.00061e-05 1.16579e-05 0.107439)
(-2.8753e-05 -2.56654e-05 0.104242)
(-1.51452e-05 -5.99912e-06 0.112176)
(1.22774e-05 -1.57499e-06 0.107451)
(-5.28195e-06 1.59611e-05 0.107462)
(-2.91463e-05 -2.4438e-05 0.104254)
(-7.7834e-06 -8.99985e-06 0.112142)
(8.69838e-06 -4.63497e-06 0.10744)
(-2.7241e-06 9.68206e-06 0.10746)
(-2.24615e-05 -2.95545e-05 0.10427)
(-9.99674e-06 -1.89766e-05 0.112115)
(1.03141e-05 -1.20741e-05 0.107437)
(-7.97669e-06 7.89283e-06 0.107433)
(-2.37233e-05 -2.81821e-05 0.104272)
(-1.36703e-05 -1.74874e-05 0.112095)
(1.27107e-05 -5.29793e-06 0.107449)
(-4.66654e-06 1.03678e-05 0.107427)
(-3.0421e-05 -2.68095e-05 0.104276)
(-9.46122e-06 -2.19763e-06 0.112066)
(1.42999e-05 3.89209e-06 0.107454)
(-1.19598e-07 1.58782e-05 0.107443)
(-2.76576e-05 -2.16439e-05 0.104307)
(-1.30269e-05 -6.16403e-06 0.112036)
(-5.9766e-07 -1.58697e-05 0.107444)
(-1.91824e-05 1.32896e-06 0.107457)
(-3.22177e-05 -3.17805e-05 0.104317)
(-9.1314e-06 -8.554e-06 0.11201)
(1.48118e-05 -6.04068e-06 0.107442)
(-1.98358e-06 1.68348e-05 0.107464)
(-2.54807e-05 -2.96538e-05 0.10428)
(-1.42219e-05 -2.65929e-05 0.111999)
(8.05874e-06 5.23236e-06 0.10744)
(6.1577e-06 8.72527e-06 0.107437)
(-2.00035e-05 -2.83183e-05 0.104325)
(4.96846e-06 -1.35473e-05 0.111975)
(2.31252e-05 -1.85218e-06 0.107452)
(9.86024e-06 5.36326e-06 0.107409)
(-2.43762e-05 -2.53271e-05 0.104373)
(-2.93603e-05 3.01451e-05 0.111926)
(-1.92523e-05 -2.37399e-05 0.107471)
(-5.86517e-05 1.01804e-05 0.10748)
(-5.59291e-05 -1.18524e-05 0.104356)
(-2.74025e-05 -7.46069e-05 0.111986)
(2.11284e-06 -3.81585e-05 0.107448)
(-2.64753e-07 -1.65841e-05 0.107492)
(-8.48333e-06 -7.54006e-05 0.104262)
(2.5762e-05 7.35513e-06 0.112012)
(6.61125e-05 0.000122057 0.107494)
(9.76266e-05 4.93264e-05 0.107404)
(-9.82897e-06 3.73343e-05 0.104413)
(-6.8691e-05 6.3229e-05 0.111911)
(5.15677e-05 -6.57115e-05 0.107698)
(-0.000113005 0.000123637 0.10783)
(2.28667e-05 8.09465e-05 0.104952)
(-4.39046e-05 -4.56859e-05 0.104319)
(-6.30697e-06 -1.40125e-05 0.10749)
(6.09064e-06 -1.26215e-05 0.107478)
(4.48543e-05 -4.37807e-05 0.104309)
(-1.38968e-05 -7.67455e-06 0.107493)
(-1.38607e-05 5.90158e-06 0.107486)
(1.06434e-05 -7.92785e-06 0.107479)
(1.04609e-05 3.66772e-06 0.107474)
(-4.41666e-05 4.50839e-05 0.104315)
(-7.86864e-06 1.16699e-05 0.107487)
(5.13634e-06 1.01853e-05 0.107477)
(4.39783e-05 4.20945e-05 0.104303)
(2.71215e-05 2.46988e-05 0.104206)
(-4.16208e-05 -4.41123e-05 0.104315)
(-4.38471e-06 -1.40624e-05 0.107488)
(8.67807e-06 -1.1843e-05 0.107478)
(-1.9139e-06 -1.22361e-05 0.107477)
(1.31696e-05 -1.05228e-05 0.10748)
(-2.44541e-05 2.72042e-05 0.104197)
(4.90207e-05 -4.05559e-05 0.10432)
(-1.28949e-05 -7.50958e-06 0.107491)
(-1.24349e-05 7.51863e-06 0.107485)
(-9.74786e-06 -5.95712e-06 0.107479)
(-8.98248e-06 1.07601e-05 0.107477)
(1.12015e-05 3.97182e-06 0.10747)
(1.59342e-05 -2.51213e-06 0.107478)
(1.31634e-05 6.40104e-06 0.107469)
(2.72031e-05 -2.46436e-05 0.104202)
(-3.93002e-05 4.78997e-05 0.104315)
(7.0968e-06 9.82869e-06 0.107473)
(-2.11061e-08 1.46257e-05 0.107475)
(1.04192e-05 1.08284e-05 0.107471)
(4.59245e-05 4.34289e-05 0.104313)
(2.8135e-05 2.63224e-05 0.104202)
(-4.53114e-05 -4.22009e-05 0.104316)
(-2.80518e-06 -1.137e-05 0.107472)
(1.26106e-05 -1.04968e-05 0.10748)
(-8.46404e-06 -1.0168e-05 0.107464)
(4.53984e-06 -1.14594e-05 0.107472)
(-2.15527e-05 2.93589e-05 0.104209)
(4.1767e-05 -4.43546e-05 0.104324)
(-9.50385e-06 -5.6454e-06 0.107473)
(-8.69178e-06 1.04971e-05 0.107474)
(-1.14253e-05 -5.49135e-06 0.107463)
(-1.07611e-05 5.59175e-06 0.107463)
(1.3445e-05 7.43549e-06 0.107471)
(1.25964e-05 -5.06798e-06 0.107477)
(1.33611e-05 9.30167e-06 0.107477)
(3.04784e-05 -2.25963e-05 0.104203)
(-4.46176e-05 4.18784e-05 0.104317)
(1.0354e-05 1.16968e-05 0.107472)
(-6.13826e-06 1.15931e-05 0.107468)
(6.36645e-06 1.45208e-05 0.107477)
(4.32301e-05 4.6328e-05 0.104328)
(2.39696e-05 2.75345e-05 0.104207)
(-4.57667e-05 -4.35681e-05 0.104332)
(-1.01797e-05 -1.03631e-05 0.107464)
(1.6203e-06 -1.21455e-05 0.107468)
(-1.03622e-05 -1.20429e-05 0.107468)
(5.91968e-07 -1.33357e-05 0.107459)
(-2.93826e-05 2.48869e-05 0.104212)
(3.95925e-05 -4.64921e-05 0.104323)
(-1.26621e-05 -5.6337e-06 0.107463)
(-1.22254e-05 3.81918e-06 0.107461)
(-1.44477e-05 -6.42781e-06 0.107468)
(-1.49893e-05 2.70661e-06 0.107462)
(1.24069e-05 8.63775e-06 0.107477)
(7.15832e-06 -1.06995e-05 0.107464)
(8.78192e-06 4.68626e-06 0.107465)
(2.41659e-05 -2.8796e-05 0.104208)
(-4.76282e-05 4.06821e-05 0.104328)
(4.01319e-06 1.46082e-05 0.107477)
(-1.29336e-05 8.99272e-06 0.107467)
(9.30147e-07 1.12648e-05 0.107466)
(4.08099e-05 4.27052e-05 0.104324)
(2.47671e-05 2.59201e-05 0.104223)
(-4.04677e-05 -4.45341e-05 0.104337)
(-8.56711e-06 -1.25863e-05 0.107469)
(2.9066e-06 -1.29512e-05 0.107458)
(-2.28525e-06 -1.26639e-05 0.107465)
(1.07869e-05 -1.06904e-05 0.107458)
(-2.90427e-05 2.38401e-05 0.104213)
(4.75488e-05 -4.07336e-05 0.104333)
(-1.40251e-05 -6.74569e-06 0.107471)
(-1.4583e-05 3.9973e-06 0.107464)
(-1.06417e-05 -6.65868e-06 0.107469)
(-1.04259e-05 9.2133e-06 0.107465)
(8.78592e-06 3.97375e-06 0.107459)
(1.37209e-05 -4.57778e-06 0.107457)
(1.18686e-05 5.04412e-06 0.107448)
(2.29813e-05 -2.83283e-05 0.104219)
(-3.99563e-05 4.69365e-05 0.104337)
(2.42248e-06 1.01029e-05 0.10746)
(-2.8174e-06 1.34095e-05 0.107464)
(9.06955e-06 9.73709e-06 0.107451)
(4.54346e-05 4.17337e-05 0.104324)
(2.93236e-05 2.53101e-05 0.104227)
(-4.3182e-05 -4.29782e-05 0.104335)
(-1.63203e-06 -1.23459e-05 0.107462)
(1.20741e-05 -1.03547e-05 0.107459)
(-5.19929e-06 -1.09148e-05 0.107451)
(9.02834e-06 -1.02745e-05 0.107457)
(-2.17004e-05 2.92023e-05 0.104224)
(4.48163e-05 -4.11467e-05 0.104342)
(-9.77164e-06 -6.4342e-06 0.107465)
(-9.40658e-06 1.0237e-05 0.107464)
(-1.01175e-05 -6.02585e-06 0.107452)
(-1.03342e-05 8.89062e-06 0.107455)
(1.28757e-05 6.14004e-06 0.107448)
(1.47345e-05 -2.10241e-06 0.107459)
(1.36535e-05 8.39181e-06 0.107456)
(3.02439e-05 -2.24918e-05 0.104227)
(-4.16124e-05 4.51064e-05 0.104338)
(1.051e-05 1.05629e-05 0.107451)
(-2.09723e-06 1.47027e-05 0.107457)
(9.53335e-06 1.29319e-05 0.107458)
(4.46795e-05 4.45028e-05 0.104344)
(2.57545e-05 2.64757e-05 0.104227)
(-4.36862e-05 -4.4357e-05 0.104345)
(-6.73218e-06 -1.06686e-05 0.107449)
(6.57655e-06 -1.03703e-05 0.107455)
(-7.48757e-06 -1.23023e-05 0.107447)
(2.6638e-06 -1.23589e-05 0.107445)
(-2.58358e-05 2.7636e-05 0.104233)
(3.99504e-05 -4.6753e-05 0.104344)
(-1.09607e-05 -6.46612e-06 0.10745)
(-1.09302e-05 6.67919e-06 0.107452)
(-1.19066e-05 -8.44133e-06 0.107448)
(-1.19515e-05 1.05498e-06 0.107439)
(1.35783e-05 8.33098e-06 0.10746)
(8.60557e-06 -1.0116e-05 0.107452)
(1.24639e-05 5.20772e-06 0.107459)
(2.70189e-05 -2.54675e-05 0.10423)
(-4.54591e-05 3.89166e-05 0.104338)
(8.43626e-06 1.3525e-05 0.10746)
(-8.46588e-06 8.24301e-06 0.107446)
(6.03697e-06 1.19736e-05 0.107459)
(4.34086e-05 4.30459e-05 0.104351)
(2.58897e-05 2.48596e-05 0.104238)
(-4.38987e-05 -4.18336e-05 0.104356)
(-6.90038e-06 -1.31895e-05 0.107449)
(3.28244e-06 -1.33337e-05 0.107445)
(-6.67706e-06 -1.27314e-05 0.107451)
(6.94273e-06 -1.39199e-05 0.107447)
(-2.90014e-05 2.24001e-05 0.104236)
(4.37642e-05 -4.39676e-05 0.104356)
(-1.1967e-05 -8.78069e-06 0.107449)
(-1.19561e-05 1.11003e-06 0.107437)
(-1.29153e-05 -5.2756e-06 0.10745)
(-1.15665e-05 7.07591e-06 0.107434)
(1.23529e-05 4.36516e-06 0.107456)
(1.2192e-05 -9.0853e-06 0.10745)
(1.11264e-05 5.17701e-06 0.107445)
(2.38387e-05 -3.01131e-05 0.104231)
(-4.36038e-05 4.32115e-05 0.104344)
(5.96894e-06 1.1372e-05 0.107456)
(-9.27977e-06 9.79419e-06 0.107436)
(3.80028e-06 1.14455e-05 0.107444)
(4.11063e-05 4.30983e-05 0.104349)
(2.49769e-05 2.82144e-05 0.104249)
(-4.48749e-05 -3.8824e-05 0.104363)
(-7.73686e-06 -1.16064e-05 0.107451)
(7.65262e-06 -1.34908e-05 0.10745)
(-9.35167e-06 -8.24723e-06 0.107447)
(7.11237e-06 -1.07304e-05 0.107452)
(-2.51661e-05 2.58962e-05 0.10425)
(4.3914e-05 -4.03378e-05 0.104368)
(-1.36035e-05 -3.23044e-06 0.10745)
(-1.24246e-05 9.90405e-06 0.107438)
(-1.35247e-05 -3.85921e-07 0.107447)
(-1.3851e-05 1.19717e-05 0.107456)
(1.01558e-05 6.76107e-06 0.107443)
(1.26381e-05 -2.94831e-06 0.107452)
(7.55825e-06 1.06903e-05 0.10744)
(2.53142e-05 -2.48814e-05 0.104241)
(-4.2567e-05 4.62402e-05 0.104376)
(2.39686e-06 1.21183e-05 0.107442)
(-7.83702e-06 1.59598e-05 0.107456)
(1.8738e-06 1.30345e-05 0.10744)
(3.91704e-05 4.52003e-05 0.104359)
(2.51383e-05 2.98711e-05 0.104257)
(-3.89088e-05 -4.52793e-05 0.104368)
(-8.16956e-06 -7.99279e-06 0.107446)
(6.86299e-06 -9.62817e-06 0.107451)
(-2.87196e-06 -9.12919e-06 0.107438)
(4.96284e-06 -7.14113e-06 0.107439)
(-2.56054e-05 2.93182e-05 0.104261)
(4.1669e-05 -4.0549e-05 0.104367)
(-1.23633e-05 -1.49621e-06 0.107447)
(-1.30912e-05 1.05879e-05 0.107462)
(-6.99641e-06 -8.62164e-06 0.107444)
(-9.18706e-06 4.26184e-06 0.107461)
(8.21018e-06 1.04815e-05 0.107441)
(9.73762e-06 -2.07903e-06 0.107442)
(1.19712e-05 4.76507e-06 0.107445)
(2.75386e-05 -2.37191e-05 0.104272)
(-4.08252e-05 4.20728e-05 0.104384)
(3.87796e-06 1.26739e-05 0.107443)
(-1.16968e-06 1.17045e-05 0.107464)
(1.0237e-05 9.48204e-06 0.107451)
(4.64622e-05 4.02354e-05 0.104376)
(3.03364e-05 2.30041e-05 0.104262)
(-4.13961e-05 -4.66445e-05 0.104376)
(-2.52893e-06 -1.06586e-05 0.107437)
(4.24231e-06 -8.06163e-06 0.107436)
(-3.80076e-06 -1.48288e-05 0.107436)
(4.30963e-06 -1.31151e-05 0.107429)
(-2.80277e-05 2.76097e-05 0.10426)
(4.07667e-05 -4.67335e-05 0.104371)
(-6.65768e-06 -1.09055e-05 0.107444)
(-9.02678e-06 2.36457e-06 0.107456)
(-9.88507e-06 -1.17622e-05 0.107439)
(-1.15907e-05 2.67528e-07 0.107433)
(1.27912e-05 2.82146e-06 0.107446)
(8.98464e-06 -1.14669e-05 0.107435)
(1.431e-05 1.49273e-06 0.10744)
(2.78432e-05 -2.81182e-05 0.104274)
(-4.5506e-05 3.91593e-05 0.10437)
(1.10645e-05 8.5789e-06 0.107453)
(-7.85865e-06 7.13502e-06 0.107438)
(9.95256e-06 9.361e-06 0.107443)
(4.59397e-05 4.04654e-05 0.104377)
(2.72185e-05 2.28992e-05 0.104272)
(-4.39861e-05 -4.20182e-05 0.104394)
(-4.53417e-06 -1.57899e-05 0.107438)
(5.14613e-06 -1.43374e-05 0.107432)
(-7.24974e-06 -1.40073e-05 0.107446)
(7.23259e-06 -1.36481e-05 0.107442)
(-2.77636e-05 2.23735e-05 0.104268)
(4.33735e-05 -4.20937e-05 0.104392)
(-1.12998e-05 -1.14091e-05 0.107441)
(-1.21588e-05 8.48333e-07 0.107429)
(-1.32116e-05 -7.38355e-06 0.107444)
(-1.04017e-05 4.95368e-06 0.107424)
(1.47656e-05 1.83131e-06 0.107439)
(1.21588e-05 -8.35058e-06 0.107443)
(9.55775e-06 3.88473e-06 0.107431)
(2.40496e-05 -2.97133e-05 0.104264)
(-4.01698e-05 4.17895e-05 0.104375)
(8.96294e-06 1.01916e-05 0.107441)
(-5.83682e-06 9.03836e-06 0.107424)
(3.77007e-06 8.84605e-06 0.107429)
(3.89856e-05 4.11755e-05 0.104379)
(2.48779e-05 2.82956e-05 0.10429)
(-4.19469e-05 -3.48009e-05 0.104401)
(-7.99293e-06 -1.20858e-05 0.107451)
(8.59196e-06 -1.2064e-05 0.107449)
(-5.33025e-06 -4.71179e-06 0.107447)
(1.20151e-05 -5.53963e-06 0.107452)
(-2.52525e-05 2.80805e-05 0.104289)
(4.68888e-05 -3.55086e-05 0.104409)
(-1.34265e-05 -4.37193e-06 0.107448)
(-9.52295e-06 8.17875e-06 0.107428)
(-1.02745e-05 3.71706e-06 0.107444)
(-6.43676e-06 1.54047e-05 0.107436)
(8.07597e-06 7.34276e-06 0.107435)
(1.53696e-05 3.51028e-06 0.107451)
(9.96571e-06 1.55219e-05 0.107447)
(2.91703e-05 -2.60865e-05 0.104273)
(-3.66188e-05 4.81467e-05 0.104399)
(3.53117e-06 9.64746e-06 0.107431)
(2.26191e-07 1.6379e-05 0.107435)
(6.34489e-06 1.5754e-05 0.107445)
(4.10104e-05 4.8241e-05 0.104408)
(2.80297e-05 3.4084e-05 0.104295)
(-4.35264e-05 -4.27279e-05 0.104403)
(-4.34364e-06 -3.68033e-06 0.107446)
(9.89114e-06 -4.75216e-06 0.107452)
(-8.4482e-06 -6.80732e-06 0.107436)
(-4.69703e-06 -9.02623e-06 0.107434)
(-2.34126e-05 3.34226e-05 0.104303)
(3.26355e-05 -4.66845e-05 0.104405)
(-8.47844e-06 3.04016e-06 0.107445)
(-6.34194e-06 1.37436e-05 0.107441)
(-8.42228e-06 -5.10538e-06 0.107437)
(-1.02929e-05 -8.50693e-07 0.107441)
(1.20317e-05 1.47439e-05 0.107457)
(1.66126e-06 -9.54366e-06 0.107443)
(8.86933e-06 1.25801e-06 0.107463)
(3.19546e-05 -2.18939e-05 0.104297)
(-4.84268e-05 3.42929e-05 0.104416)
(7.49695e-06 1.66695e-05 0.107457)
(-1.34393e-05 2.68195e-06 0.10745)
(-1.8639e-06 1.02423e-05 0.107465)
(3.85833e-05 3.91041e-05 0.104427)
(2.49552e-05 2.56356e-05 0.104299)
(-3.83766e-05 -4.21185e-05 0.104412)
(-9.75204e-06 -8.78417e-06 0.107439)
(-5.96683e-06 -1.20948e-05 0.107435)
(-2.08935e-06 -9.57767e-06 0.107429)
(7.0818e-06 -1.33209e-05 0.107434)
(-3.70674e-05 2.05386e-05 0.104299)
(4.4591e-05 -4.49027e-05 0.104415)
(-1.08053e-05 -6.52278e-06 0.107441)
(-1.4482e-05 -2.47746e-06 0.107448)
(-9.11009e-06 -5.45396e-06 0.107435)
(-1.56478e-05 4.78228e-06 0.107457)
(5.1427e-06 -3.43229e-06 0.107458)
(9.20805e-06 -1.24044e-05 0.107435)
(2.96837e-06 -1.57303e-06 0.107407)
(1.90793e-05 -3.56653e-05 0.104312)
(-4.37332e-05 4.44116e-05 0.10443)
(-6.63219e-06 6.65632e-06 0.10746)
(-1.00176e-05 1.27572e-05 0.107459)
(1.33897e-06 2.68107e-06 0.107412)
(4.05745e-05 3.74724e-05 0.104384)
(3.19575e-05 2.68746e-05 0.104308)
(-4.10594e-05 -4.93533e-05 0.104427)
(2.7086e-07 -9.22878e-06 0.107433)
(1.10984e-05 -1.16715e-05 0.107444)
(-6.75794e-06 -1.42633e-05 0.107435)
(2.3065e-06 -7.92393e-06 0.107436)
(-2.23942e-05 2.6679e-05 0.104312)
(3.9428e-05 -3.39493e-05 0.104422)
(-6.56726e-06 -6.15935e-06 0.107441)
(-1.29444e-05 7.51363e-06 0.107464)
(-9.08103e-06 -1.74534e-05 0.107441)
(-8.6151e-06 2.5374e-06 0.10744)
(6.35199e-06 3.22096e-06 0.107404)
(1.21031e-05 6.05245e-06 0.107435)
(1.36232e-05 1.07129e-05 0.107415)
(2.87239e-05 -2.33125e-05 0.104325)
(-3.60993e-05 4.14557e-05 0.104421)
(9.28507e-06 5.36138e-06 0.10741)
(6.11911e-06 1.29428e-05 0.10744)
(2.05246e-05 7.10671e-06 0.107421)
(4.84787e-05 3.99328e-05 0.10442)
(2.57075e-05 1.74678e-05 0.104328)
(-3.61408e-05 -4.01183e-05 0.104459)
(-1.01212e-05 -2.075e-05 0.107453)
(-2.88896e-07 -8.5487e-06 0.107441)
(5.20251e-06 -1.90152e-05 0.107461)
(2.22599e-05 -5.27213e-06 0.107433)
(-3.1005e-05 3.39483e-05 0.104317)
(5.27035e-05 -3.75944e-05 0.104434)
(-1.28964e-05 -2.19215e-05 0.107456)
(-8.12264e-06 -2.07449e-07 0.107438)
(-8.9272e-06 -6.1773e-06 0.107455)
(7.81739e-06 7.24448e-06 0.107397)
(1.66555e-05 1.11592e-05 0.107442)
(1.76055e-05 -1.24817e-06 0.107432)
(2.51219e-05 3.9448e-06 0.107482)
(3.19992e-05 -2.89232e-05 0.104315)
(-2.59081e-05 4.03712e-05 0.104401)
(2.19783e-05 9.23186e-06 0.107445)
(1.21259e-05 3.61062e-06 0.107398)
(1.65715e-05 1.34072e-05 0.107477)
(4.6977e-05 4.1879e-05 0.104476)
(3.30819e-05 3.38284e-05 0.104352)
(-5.51757e-05 -1.09239e-05 0.10441)
(9.18644e-06 -8.18142e-06 0.107466)
(2.90278e-05 -3.04005e-06 0.10745)
(-2.40667e-05 2.58589e-05 0.107408)
(-1.09672e-05 -5.21341e-06 0.107436)
(-1.28975e-05 3.05493e-05 0.104336)
(2.16142e-05 -4.92627e-05 0.10446)
(-3.65804e-06 8.33479e-06 0.107457)
(1.15809e-05 1.47845e-05 0.107406)
(-1.09567e-05 3.11e-05 0.107401)
(-2.07824e-05 1.63982e-05 0.107418)
(2.57196e-05 6.71591e-06 0.107507)
(-6.0153e-07 -1.30692e-05 0.10746)
(-6.30788e-06 1.91006e-05 0.107481)
(4.13953e-05 -2.53723e-05 0.1043)
(-6.77402e-05 4.07314e-05 0.104448)
(9.49777e-06 1.78379e-05 0.107498)
(-4.01579e-05 1.47387e-05 0.107439)
(-3.64152e-05 3.10831e-05 0.107472)
(1.35665e-05 5.90352e-05 0.104466)
(8.30272e-06 4.97488e-05 0.104311)
(-2.71871e-05 -8.18378e-05 0.104488)
(-3.50511e-05 2.19406e-05 0.107415)
(-3.64378e-05 -1.13995e-05 0.107442)
(-8.93862e-06 -4.6085e-05 0.107451)
(-2.86122e-05 -4.29069e-05 0.107423)
(-5.47021e-05 1.30008e-05 0.104356)
(1.91646e-05 -6.78301e-05 0.104434)
(-1.76215e-05 1.93304e-05 0.107416)
(-4.09358e-05 1.02273e-06 0.107455)
(-1.62764e-05 -6.10206e-05 0.107478)
(-4.95038e-05 -4.08165e-05 0.107494)
(-1.65137e-05 1.24282e-05 0.107467)
(-1.70383e-05 -5.7321e-05 0.107422)
(-1.26392e-05 -4.75728e-05 0.107322)
(-9.204e-06 -3.05007e-05 0.104361)
(-5.88285e-05 1.00471e-05 0.104505)
(-4.38955e-05 2.39755e-05 0.107466)
(-4.33129e-05 -7.72625e-06 0.107493)
(2.23153e-06 -3.76862e-05 0.107354)
(4.35751e-05 -9.32875e-06 0.104349)
(4.36992e-05 -2.22801e-05 0.104418)
(-2.42309e-05 -4.74326e-06 0.10448)
(1.79386e-05 -5.93498e-05 0.107509)
(-1.29515e-07 -3.79795e-05 0.10747)
(2.06437e-05 -1.20323e-05 0.107523)
(8.60829e-05 2.49214e-05 0.107513)
(-2.80821e-05 2.8462e-06 0.104358)
(9.65373e-05 4.65139e-05 0.104474)
(-1.98487e-06 -6.70628e-05 0.107533)
(-2.11132e-05 -3.97125e-05 0.107514)
(1.09824e-06 1.54342e-05 0.107501)
(6.39247e-05 6.85621e-05 0.107423)
(-2.36957e-06 -5.88788e-05 0.107312)
(7.3038e-05 8.08159e-05 0.107459)
(3.12292e-05 5.02648e-05 0.107362)
(1.97386e-05 -4.73499e-05 0.104415)
(5.65228e-05 8.55804e-05 0.104379)
(2.68956e-05 -5.98472e-05 0.107342)
(9.26161e-05 2.97915e-05 0.107365)
(6.1833e-05 1.12284e-05 0.107339)
(4.59312e-05 6.08313e-05 0.104388)
(1.13631e-05 6.01255e-05 0.104447)
(-7.95697e-05 -8.56787e-06 0.104286)
(3.05226e-06 3.44178e-05 0.10753)
(7.35868e-05 5.87766e-05 0.107531)
(-7.91828e-05 3.45241e-06 0.10738)
(1.75462e-05 -2.0178e-05 0.107388)
(4.56056e-05 9.9084e-05 0.104454)
(1.71206e-05 -5.61233e-05 0.104321)
(-5.08299e-06 7.39411e-05 0.107498)
(7.20029e-05 9.6104e-05 0.107449)
(-8.21773e-05 3.49149e-05 0.107389)
(-9.07804e-05 8.97739e-05 0.107502)
(1.98871e-05 9.28752e-05 0.107485)
(3.81064e-05 -1.24696e-05 0.107452)
(6.83831e-05 0.000117354 0.107686)
(9.51288e-05 4.97464e-05 0.104365)
(-9.78702e-05 6.6374e-05 0.104453)
(2.45227e-05 5.48447e-05 0.107446)
(-7.85525e-05 0.000118042 0.107561)
(-6.63614e-06 0.000164844 0.107691)
(2.63608e-05 0.000108073 0.104585)
(-6.47489e-05 -1.72496e-05 0.104664)
(-8.39613e-05 -4.47184e-05 0.107625)
(1.42274e-05 -7.16497e-05 0.107635)
(4.67338e-07 -6.59289e-05 0.104695)
(-0.000105268 -1.21048e-05 0.10764)
(-0.000135162 6.79703e-05 0.10777)
(1.32321e-05 3.78799e-05 0.111935)
(-6.98611e-05 0.000129329 0.112048)
(1.1641e-05 0.000155162 0.112197)
(9.11408e-05 9.23831e-05 0.107926)
(-0.000100325 4.24357e-05 0.104843)
(9.80113e-06 0.000162195 0.10794)
(2.03454e-06 -1.21189e-05 0.0914229)
(1.94829e-07 -8.231e-06 0.0822856)
(4.26016e-06 -2.51241e-06 0.0716067)
(-1.23265e-05 7.84583e-07 0.0914228)
(-7.8601e-06 -9.89024e-07 0.082286)
(-1.61544e-05 -1.43104e-05 0.112456)
(6.50993e-06 -1.58576e-05 0.112448)
(-1.7674e-05 8.08093e-06 0.112457)
(6.66754e-06 8.33108e-06 0.112456)
(2.08228e-05 -1.15876e-06 0.0985697)
(8.43319e-06 -1.06635e-05 0.107485)
(1.5724e-05 -4.43958e-06 0.0930618)
(1.16414e-05 -8.49654e-06 0.109909)
(-2.26943e-06 4.2838e-06 0.0716032)
(-2.1634e-07 2.14942e-05 0.098572)
(-1.19664e-05 9.94085e-06 0.10749)
(-1.08034e-05 1.31188e-05 0.109911)
(-3.58907e-06 1.66528e-05 0.0930621)
(4.23381e-05 4.33488e-05 0.104307)
(6.36606e-06 5.81581e-06 0.0876026)
(7.12047e-06 5.60385e-06 0.0876005)
(6.28693e-07 -1.2366e-05 0.0914548)
(7.24993e-07 4.25782e-06 0.0822725)
(1.81495e-06 -1.19291e-08 0.0914131)
(-2.16726e-06 -8.12837e-06 0.0823219)
(1.59024e-07 2.99784e-06 0.0715912)
(3.09976e-06 -2.99265e-06 0.0716363)
(-1.26714e-05 5.33396e-07 0.0914541)
(4.21129e-06 2.7557e-08 0.0822714)
(-3.50064e-07 8.04973e-07 0.0914139)
(-8.45466e-06 -1.86905e-06 0.082322)
(8.99754e-06 -1.50621e-05 0.112439)
(-1.55214e-05 9.21878e-06 0.112449)
(8.60756e-06 8.41958e-06 0.112441)
(-7.07161e-06 -1.16818e-05 0.112425)
(1.7067e-05 -1.14962e-05 0.112416)
(-7.85631e-06 1.37035e-05 0.112421)
(1.48487e-05 1.04675e-05 0.112407)
(2.1026e-05 2.31181e-06 0.098592)
(-2.7351e-06 4.13358e-06 0.0930354)
(1.34398e-05 -5.52545e-06 0.109887)
(1.35833e-05 -4.6178e-06 0.107477)
(-1.85824e-06 1.31658e-06 0.0985346)
(1.69081e-05 -1.45466e-06 0.0930922)
(1.45072e-05 -3.82595e-06 0.109882)
(2.82766e-06 7.46927e-07 0.071587)
(-2.97719e-06 3.63212e-06 0.071639)
(3.73283e-06 2.14149e-05 0.0985927)
(-3.44762e-06 1.41216e-05 0.109893)
(3.89476e-06 -2.03438e-06 0.0930368)
(-2.64482e-06 1.33216e-05 0.107481)
(3.32022e-06 -1.01452e-06 0.0985367)
(-3.74018e-07 1.44744e-05 0.109887)
(-2.42509e-06 1.71581e-05 0.0930918)
(-8.47154e-07 -1.83121e-06 0.0875912)
(-5.1761e-07 -1.45914e-06 0.0875903)
(4.55902e-05 4.21082e-05 0.104306)
(6.33286e-06 5.14156e-06 0.0876347)
(5.50472e-06 6.25137e-06 0.0876337)
(-2.89661e-06 -1.13859e-05 0.0914852)
(-1.36244e-06 4.7499e-06 0.082309)
(-2.11583e-06 6.84556e-07 0.091444)
(-2.65509e-06 -7.72126e-06 0.0823561)
(-2.39484e-06 1.93842e-06 0.071618)
(1.00102e-06 -3.9025e-06 0.0716631)
(-1.10999e-05 -8.37713e-07 0.0914839)
(4.17699e-06 2.13383e-07 0.0823078)
(8.35728e-07 -5.42347e-07 0.0914436)
(-8.16485e-06 -9.81194e-07 0.0823563)
(1.86313e-05 -1.01594e-05 0.112411)
(-6.3177e-06 1.49256e-05 0.112411)
(1.62132e-05 1.16799e-05 0.112399)
(-9.67819e-06 -1.03626e-05 0.112376)
(1.52784e-05 -8.11878e-06 0.112389)
(-7.22171e-06 1.41296e-05 0.112378)
(1.60613e-05 1.52139e-05 0.112384)
(2.21514e-05 6.27899e-07 0.0986203)
(-2.74081e-06 2.42362e-06 0.0930674)
(1.75841e-05 8.03776e-07 0.109874)
(1.58929e-05 -2.54837e-06 0.107479)
(-7.07218e-07 2.04282e-06 0.0985621)
(1.58863e-05 -6.09221e-06 0.0931238)
(1.80734e-05 1.68025e-06 0.109872)
(1.96463e-06 -1.69425e-06 0.0716201)
(-3.73087e-06 1.15089e-06 0.0716685)
(-1.41942e-06 2.13274e-05 0.0986177)
(4.37385e-06 1.59215e-05 0.109872)
(1.36402e-06 -3.55806e-06 0.0930671)
(-1.31158e-06 1.4172e-05 0.107471)
(1.31363e-06 -1.16927e-06 0.0985598)
(3.92066e-06 1.61682e-05 0.109868)
(-6.94795e-06 1.4719e-05 0.0931222)
(-5.30197e-07 -1.77584e-06 0.0876228)
(-3.37739e-06 4.95778e-07 0.087622)
(4.51522e-05 4.52874e-05 0.104321)
(6.81469e-06 5.44174e-06 0.0876667)
(3.35084e-06 8.13805e-06 0.087665)
(3.24545e-07 -1.14121e-05 0.0915167)
(1.01348e-06 4.47995e-06 0.0823392)
(-1.59201e-06 1.08979e-06 0.0914749)
(3.61302e-07 -8.18976e-06 0.0823852)
(-1.2946e-06 2.40183e-06 0.0716484)
(3.69357e-06 -2.58077e-06 0.0716953)
(-1.13248e-05 -1.88185e-07 0.0915163)
(4.71712e-06 1.19584e-06 0.0823388)
(1.40704e-06 -4.88725e-07 0.0914749)
(-7.34725e-06 -8.66731e-07 0.0823865)
(1.19394e-05 -8.96987e-06 0.11238)
(-9.66648e-06 1.25372e-05 0.112368)
(1.37471e-05 1.50348e-05 0.11238)
(-1.77762e-05 -1.26742e-05 0.112345)
(4.49053e-06 -1.41686e-05 0.112348)
(-1.78305e-05 8.35451e-06 0.112344)
(5.5392e-06 1.08011e-05 0.112355)
(2.0993e-05 -3.5073e-06 0.0986411)
(-4.77668e-06 -3.06037e-06 0.0930961)
(1.55655e-05 -9.82508e-07 0.109866)
(8.36064e-06 -8.93539e-06 0.107471)
(-7.18981e-07 -2.57291e-06 0.0985873)
(1.42725e-05 -8.51425e-06 0.0931501)
(1.37814e-05 -3.50553e-06 0.109861)
(2.04457e-06 -2.39641e-06 0.0716455)
(-2.96568e-06 2.23507e-06 0.0716932)
(-5.00137e-06 2.08518e-05 0.0986413)
(-4.53674e-06 1.51689e-05 0.109858)
(-2.86192e-06 -5.62845e-06 0.0930965)
(-1.16602e-05 9.25657e-06 0.107467)
(-5.15292e-06 -1.44656e-06 0.0985854)
(-8.18037e-06 1.43707e-05 0.109855)
(-7.56522e-06 1.45158e-05 0.0931508)
(4.1072e-08 -1.2172e-06 0.0876548)
(-2.02366e-06 4.81049e-07 0.0876531)
(4.07567e-05 4.50467e-05 0.104329)
(6.74735e-06 5.86e-06 0.0876984)
(6.68392e-06 6.05243e-06 0.0876959)
(2.42027e-06 -1.18978e-05 0.0915478)
(2.17253e-06 4.19119e-06 0.0823689)
(2.63264e-06 6.20616e-07 0.0915066)
(-7.15937e-07 -8.08958e-06 0.0824166)
(7.79944e-07 3.34558e-06 0.0716793)
(3.86853e-06 -2.6034e-06 0.071724)
(-1.21599e-05 -1.2658e-07 0.0915485)
(5.03386e-06 -1.57127e-07 0.0823687)
(4.87648e-07 -1.37189e-07 0.0915084)
(-7.92475e-06 -1.97966e-06 0.0824171)
(4.70238e-06 -1.5109e-05 0.112338)
(-1.86634e-05 8.22869e-06 0.112338)
(4.92789e-06 9.55673e-06 0.112343)
(-1.13203e-05 -1.1965e-05 0.112325)
(1.19542e-05 -1.3292e-05 0.11231)
(-1.31951e-05 1.17623e-05 0.11232)
(1.04447e-05 9.69192e-06 0.112304)
(1.99111e-05 5.09344e-07 0.0986576)
(-4.14514e-06 1.76521e-06 0.0931224)
(1.0957e-05 -7.98679e-06 0.109842)
(9.72037e-06 -8.38311e-06 0.107459)
(-2.69205e-06 -1.65085e-06 0.098603)
(1.59901e-05 -1.86768e-06 0.093178)
(1.1558e-05 -7.21826e-06 0.109835)
(3.08143e-06 4.13259e-07 0.071672)
(-2.38964e-06 4.29466e-06 0.0717222)
(3.68561e-06 2.05222e-05 0.0986602)
(-1.05178e-05 1.28662e-05 0.109845)
(3.07516e-06 -2.8399e-06 0.0931244)
(-8.63512e-06 1.06757e-05 0.107467)
(2.72737e-07 -1.94439e-06 0.0986058)
(-7.87084e-06 1.299e-05 0.10984)
(-1.07022e-06 1.7038e-05 0.0931778)
(-9.06132e-07 -1.97246e-06 0.0876866)
(5.39942e-07 -2.63027e-06 0.0876846)
(4.31476e-05 4.12126e-05 0.104321)
(6.14895e-06 4.77668e-06 0.0877298)
(6.59288e-06 4.82625e-06 0.0877275)
(-1.8747e-06 -1.14805e-05 0.0915775)
(-9.65286e-07 5.1931e-06 0.0824024)
(-3.451e-07 6.83522e-07 0.0915366)
(-2.89184e-06 -7.17682e-06 0.0824491)
(-1.91827e-06 2.29474e-06 0.0717035)
(1.33404e-06 -3.56926e-06 0.0717467)
(-1.15393e-05 -4.24141e-07 0.0915758)
(4.13096e-06 3.10982e-07 0.0824009)
(6.08821e-07 -2.37255e-07 0.0915366)
(-8.16898e-06 -9.602e-07 0.0824486)
(1.47516e-05 -1.2021e-05 0.112303)
(-1.05755e-05 1.34708e-05 0.112313)
(1.29569e-05 1.06263e-05 0.112295)
(-7.69836e-06 -1.05546e-05 0.112283)
(1.78083e-05 -8.35662e-06 0.112282)
(-6.87126e-06 1.64456e-05 0.112286)
(1.70861e-05 1.44188e-05 0.112273)
(2.12718e-05 2.08523e-06 0.0986852)
(-2.81332e-06 4.45644e-06 0.0931531)
(1.56906e-05 -1.27287e-06 0.10982)
(1.56947e-05 -1.98849e-06 0.107458)
(-1.57841e-06 2.59306e-06 0.0986271)
(1.59926e-05 -3.3874e-06 0.0932092)
(1.69118e-05 5.71085e-07 0.109817)
(2.77647e-06 -5.05652e-07 0.0717021)
(-2.89126e-06 2.10327e-06 0.0717498)
(2.17187e-06 2.11153e-05 0.0986843)
(2.1311e-06 1.52489e-05 0.109826)
(4.03029e-06 -3.07413e-06 0.0931515)
(-2.13933e-07 1.50175e-05 0.10746)
(4.35211e-06 -1.49545e-06 0.0986275)
(3.83599e-06 1.59788e-05 0.109822)
(-4.15833e-06 1.53891e-05 0.0932064)
(-7.39653e-07 -2.37833e-06 0.0877169)
(-3.03113e-06 -3.15369e-07 0.0877155)
(4.57651e-05 4.32716e-05 0.104333)
(6.49295e-06 4.77805e-06 0.0877596)
(3.31116e-06 7.63329e-06 0.0877579)
(-4.65304e-07 -1.16992e-05 0.0916078)
(2.98976e-07 4.48333e-06 0.082433)
(-1.91238e-06 8.0044e-07 0.0915666)
(-7.95192e-07 -8.39993e-06 0.0824811)
(-1.53098e-06 2.19065e-06 0.0717303)
(2.67235e-06 -3.34282e-06 0.071779)
(-1.19306e-05 3.34228e-07 0.0916073)
(4.33686e-06 9.30768e-07 0.0824313)
(7.88348e-07 -4.1941e-07 0.0915662)
(-8.18072e-06 -9.33358e-07 0.0824807)
(1.62324e-05 -7.59657e-06 0.112274)
(-6.77671e-06 1.53617e-05 0.112276)
(1.67968e-05 1.49884e-05 0.112269)
(-1.22263e-05 -1.34575e-05 0.112242)
(9.68393e-06 -1.09403e-05 0.112247)
(-9.37887e-06 7.85708e-06 0.112241)
(1.35925e-05 1.19938e-05 0.112256)
(2.17968e-05 -3.58868e-06 0.0987108)
(-4.3867e-06 -2.091e-06 0.0931822)
(1.76018e-05 1.77389e-06 0.109813)
(1.11633e-05 -5.66693e-06 0.107456)
(-7.01625e-07 -1.12115e-06 0.0986559)
(1.45185e-05 -9.57602e-06 0.0932362)
(1.64407e-05 -8.88438e-08 0.109811)
(2.27309e-06 -1.5905e-06 0.0717269)
(-3.38101e-06 2.88641e-06 0.0717791)
(-4.47756e-06 2.20625e-05 0.0987099)
(2.17851e-06 1.74318e-05 0.109812)
(-2.22301e-06 -4.73759e-06 0.0931828)
(-5.73931e-06 1.15305e-05 0.107453)
(-2.437e-06 -6.86459e-07 0.0986544)
(2.79071e-07 1.65905e-05 0.109808)
(-9.87552e-06 1.47331e-05 0.0932374)
(1.17379e-07 -1.85992e-06 0.0877447)
(-2.7001e-06 9.01177e-07 0.087744)
(4.37465e-05 4.44071e-05 0.104351)
(7.37697e-06 5.72652e-06 0.0877874)
(5.47889e-06 7.73469e-06 0.0877866)
(-3.95651e-08 -1.12691e-05 0.0916402)
(1.75035e-07 4.7141e-06 0.0824673)
(7.35729e-07 8.14124e-07 0.0915984)
(-2.41255e-06 -7.26184e-06 0.0825143)
(-1.07479e-06 2.35317e-06 0.0717648)
(2.6629e-06 -3.0964e-06 0.0718097)
(-1.11205e-05 1.47102e-06 0.0916389)
(4.42864e-06 7.68685e-07 0.0824663)
(8.48906e-07 1.43575e-06 0.0915987)
(-7.74838e-06 -8.87088e-07 0.0825147)
(8.88543e-06 -1.34126e-05 0.112239)
(-1.07937e-05 6.18775e-06 0.11223)
(1.27363e-05 1.0414e-05 0.112251)
(-1.32746e-05 -1.49605e-05 0.112217)
(1.13559e-05 -1.72056e-05 0.112215)
(-1.46204e-05 8.80749e-06 0.112199)
(1.08224e-05 9.27887e-06 0.11222)
(2.0405e-05 -1.40735e-06 0.0987286)
(-4.18726e-06 -1.0455e-06 0.0932099)
(1.29807e-05 -7.87758e-06 0.109801)
(9.70569e-06 -1.13198e-05 0.107449)
(-1.5926e-06 -4.01525e-06 0.0986746)
(1.56546e-05 -4.17002e-06 0.0932656)
(1.30479e-05 -8.93453e-06 0.109795)
(1.9427e-06 -1.27839e-07 0.0717657)
(-3.40731e-06 2.95878e-06 0.071818)
(-2.38367e-06 1.99686e-05 0.0987268)
(-4.8452e-06 1.21337e-05 0.109794)
(-2.28513e-06 -4.22589e-06 0.0932115)
(-8.80926e-06 7.72851e-06 0.107439)
(-4.10411e-06 -1.60755e-06 0.098674)
(-5.74878e-06 1.15281e-05 0.109787)
(-5.99745e-06 1.49269e-05 0.0932642)
(-8.07046e-07 -8.3521e-07 0.0877767)
(-1.52133e-06 -3.25644e-07 0.0877765)