/*--------------------------------*- C++ -*----------------------------------*\
| =========                 |                                                 |
| \\      /  F ield         | OpenFOAM: The Open Source CFD Toolbox           |
|  \\    /   O peration     | Version:  v1906                                 |
|   \\  /    A nd           | Web:      www.OpenFOAM.com                      |
|    \\/     M anipulation  |                                                 |
\*---------------------------------------------------------------------------*/
FoamFile
{
    version     2.0;
    format      ascii;
    class       volScalarField;
    location    "900";
    object      epsilon;
}
// * * * * * * * * * * * * * * * * * * * * * * * * * * * * * * * * * * * * * //

dimensions      [0 2 -3 0 0 0 0];


internalField   nonuniform List<scalar> 
42616
(
4.95569e-07
4.9741e-07
4.97402e-07
4.99627e-07
4.45582e-07
4.53886e-07
4.53859e-07
4.63966e-07
4.03773e-07
4.18675e-07
4.18659e-07
4.39598e-07
3.68389e-07
3.8868e-07
3.88676e-07
4.17648e-07
3.38037e-07
3.62175e-07
3.62178e-07
3.95944e-07
3.11659e-07
3.38288e-07
3.38294e-07
3.74336e-07
2.88473e-07
3.16595e-07
3.16605e-07
3.5343e-07
2.67908e-07
2.96917e-07
2.96938e-07
3.33815e-07
2.49549e-07
2.79203e-07
2.79241e-07
3.15855e-07
2.3309e-07
2.63464e-07
2.63514e-07
3.00481e-07
2.18303e-07
2.4971e-07
2.49757e-07
2.87633e-07
2.05014e-07
2.3793e-07
2.37967e-07
2.77743e-07
1.93081e-07
2.28122e-07
2.28147e-07
2.71114e-07
1.82393e-07
2.20287e-07
2.20304e-07
2.67494e-07
1.7286e-07
2.14425e-07
2.14439e-07
2.66937e-07
1.64407e-07
2.1055e-07
2.10565e-07
2.69733e-07
1.56971e-07
2.0867e-07
2.08691e-07
2.7584e-07
1.505e-07
2.08791e-07
2.08821e-07
2.85223e-07
1.44948e-07
2.10982e-07
2.1101e-07
2.98042e-07
1.40281e-07
2.15242e-07
2.15275e-07
3.14293e-07
1.36468e-07
2.21599e-07
2.21632e-07
3.33918e-07
5.0641e-07
5.05553e-07
5.05552e-07
5.06406e-07
5.05551e-07
5.05555e-07
5.09644e-07
5.09644e-07
5.09644e-07
5.09645e-07
5.05556e-07
5.05549e-07
5.06414e-07
5.05558e-07
5.05546e-07
5.06403e-07
4.99625e-07
4.67475e-07
4.97413e-07
4.9742e-07
4.63845e-07
4.63863e-07
4.99629e-07
4.6749e-07
4.97414e-07
4.97414e-07
4.6385e-07
4.63847e-07
4.97407e-07
4.63843e-07
4.63843e-07
4.99615e-07
4.67411e-07
4.97417e-07
4.63818e-07
4.63861e-07
4.67455e-07
4.63991e-07
4.41633e-07
4.53891e-07
4.53909e-07
4.26903e-07
4.26915e-07
4.64006e-07
4.41624e-07
4.53897e-07
4.53892e-07
4.26907e-07
4.26904e-07
4.5389e-07
4.26894e-07
4.269e-07
4.63924e-07
4.41591e-07
4.53909e-07
4.26876e-07
4.26919e-07
4.41605e-07
4.3963e-07
4.19338e-07
4.18686e-07
4.18695e-07
3.95817e-07
3.95823e-07
4.39623e-07
4.19323e-07
4.1869e-07
4.18687e-07
3.9582e-07
3.95825e-07
4.18683e-07
3.95805e-07
3.95814e-07
4.39594e-07
4.19344e-07
4.18697e-07
3.95798e-07
3.95817e-07
4.19314e-07
4.17719e-07
3.97503e-07
3.88695e-07
3.887e-07
3.68546e-07
3.68553e-07
4.17705e-07
3.9757e-07
3.88697e-07
3.88704e-07
3.68546e-07
3.68559e-07
3.88691e-07
3.68534e-07
3.68545e-07
4.1769e-07
3.97582e-07
3.88691e-07
3.68535e-07
3.68537e-07
3.97491e-07
3.95968e-07
3.75798e-07
3.62189e-07
3.62196e-07
3.44058e-07
3.44062e-07
3.95853e-07
3.75899e-07
3.62188e-07
3.62202e-07
3.44052e-07
3.44069e-07
3.62189e-07
3.44044e-07
3.44058e-07
3.95903e-07
3.75909e-07
3.62178e-07
3.4405e-07
3.44044e-07
3.75801e-07
3.74336e-07
3.54716e-07
3.38303e-07
3.38307e-07
3.21841e-07
3.21844e-07
3.74228e-07
3.54833e-07
3.38296e-07
3.38314e-07
3.21835e-07
3.21854e-07
3.38303e-07
3.21827e-07
3.21845e-07
3.74258e-07
3.54827e-07
3.38289e-07
3.21835e-07
3.2183e-07
3.5471e-07
3.53386e-07
3.34911e-07
3.16611e-07
3.16614e-07
3.01673e-07
3.01676e-07
3.53238e-07
3.35021e-07
3.16606e-07
3.16625e-07
3.01671e-07
3.01692e-07
3.16617e-07
3.01652e-07
3.01686e-07
3.53264e-07
3.34951e-07
3.16601e-07
3.0167e-07
3.01667e-07
3.349e-07
3.33743e-07
3.17107e-07
2.9694e-07
2.96945e-07
2.83481e-07
2.83486e-07
3.33603e-07
3.16947e-07
2.9694e-07
2.96961e-07
2.83482e-07
2.83505e-07
2.96954e-07
2.83447e-07
2.83499e-07
3.33723e-07
3.1713e-07
2.96935e-07
2.83482e-07
2.83477e-07
3.17127e-07
3.15788e-07
3.01282e-07
2.79239e-07
2.79244e-07
2.67257e-07
2.6726e-07
3.15983e-07
3.01261e-07
2.7924e-07
2.79263e-07
2.67256e-07
2.67281e-07
2.79256e-07
2.67212e-07
2.67272e-07
3.15801e-07
3.0149e-07
2.79235e-07
2.6726e-07
2.67252e-07
3.01464e-07
3.00671e-07
2.88434e-07
2.63509e-07
2.63511e-07
2.5301e-07
2.5301e-07
3.00585e-07
2.88417e-07
2.63507e-07
2.63532e-07
2.53002e-07
2.5303e-07
2.63523e-07
2.52963e-07
2.53017e-07
3.0043e-07
2.88279e-07
2.63504e-07
2.53012e-07
2.52999e-07
2.88442e-07
2.87629e-07
2.78238e-07
2.49754e-07
2.49753e-07
2.40732e-07
2.40728e-07
2.87585e-07
2.78227e-07
2.49745e-07
2.49774e-07
2.40716e-07
2.40748e-07
2.49761e-07
2.40691e-07
2.40735e-07
2.87922e-07
2.78026e-07
2.49744e-07
2.40731e-07
2.40717e-07
2.78251e-07
2.77759e-07
2.7116e-07
2.37969e-07
2.37965e-07
2.30423e-07
2.30416e-07
2.77745e-07
2.71172e-07
2.37951e-07
2.37986e-07
2.30398e-07
2.30437e-07
2.37972e-07
2.30388e-07
2.30424e-07
2.7794e-07
2.71059e-07
2.37953e-07
2.30416e-07
2.30402e-07
2.71194e-07
2.71196e-07
2.67157e-07
2.28154e-07
2.28149e-07
2.22089e-07
2.22081e-07
2.71114e-07
2.6718e-07
2.28129e-07
2.28169e-07
2.22057e-07
2.22102e-07
2.28156e-07
2.22058e-07
2.22088e-07
2.71348e-07
2.67187e-07
2.28133e-07
2.22076e-07
2.22063e-07
2.67201e-07
2.67464e-07
2.66268e-07
2.20315e-07
2.20309e-07
2.15729e-07
2.15721e-07
2.67477e-07
2.66265e-07
2.20284e-07
2.20331e-07
2.15691e-07
2.15743e-07
2.20316e-07
2.15699e-07
2.15727e-07
2.67507e-07
2.66311e-07
2.20291e-07
2.15712e-07
2.157e-07
2.66297e-07
2.66922e-07
2.68392e-07
2.14456e-07
2.1445e-07
2.11357e-07
2.1135e-07
2.6692e-07
2.68376e-07
2.14418e-07
2.14472e-07
2.11317e-07
2.11373e-07
2.14452e-07
2.11319e-07
2.11349e-07
2.66963e-07
2.68422e-07
2.14425e-07
2.11334e-07
2.1132e-07
2.68424e-07
2.69735e-07
2.73851e-07
2.10589e-07
2.10585e-07
2.08977e-07
2.08972e-07
2.69725e-07
2.73796e-07
2.10547e-07
2.10605e-07
2.08933e-07
2.08995e-07
2.10579e-07
2.08928e-07
2.08964e-07
2.69769e-07
2.73848e-07
2.10551e-07
2.08948e-07
2.08933e-07
2.73887e-07
2.75864e-07
2.82801e-07
2.0872e-07
2.08716e-07
2.08652e-07
2.08639e-07
2.75863e-07
2.82355e-07
2.08676e-07
2.08737e-07
2.08602e-07
2.08667e-07
2.08706e-07
2.08591e-07
2.08637e-07
2.75914e-07
2.82503e-07
2.08676e-07
2.08611e-07
2.08598e-07
2.82881e-07
2.85274e-07
2.94837e-07
2.08848e-07
2.08855e-07
2.10306e-07
2.10301e-07
2.85576e-07
2.94558e-07
2.08815e-07
2.08876e-07
2.10258e-07
2.10326e-07
2.08833e-07
2.10238e-07
2.10285e-07
2.85517e-07
2.94729e-07
2.08804e-07
2.10265e-07
2.10252e-07
2.95063e-07
2.98178e-07
3.10597e-07
2.11049e-07
2.11052e-07
2.14061e-07
2.14056e-07
2.98365e-07
3.10191e-07
2.11014e-07
2.11078e-07
2.14009e-07
2.1408e-07
2.11033e-07
2.1398e-07
2.14036e-07
2.98213e-07
3.10576e-07
2.10999e-07
2.1401e-07
2.14e-07
3.10556e-07
3.1437e-07
3.29679e-07
2.15316e-07
2.15326e-07
2.19904e-07
2.19907e-07
3.14517e-07
3.29022e-07
2.15291e-07
2.1535e-07
2.19847e-07
2.19926e-07
2.15302e-07
2.19815e-07
2.19877e-07
3.14389e-07
3.29681e-07
2.15266e-07
2.19846e-07
2.19839e-07
3.29522e-07
3.3408e-07
2.21666e-07
2.21696e-07
3.34575e-07
2.21656e-07
2.21719e-07
2.21664e-07
3.34064e-07
2.21621e-07
5.35663e-07
5.35602e-07
5.35656e-07
5.35656e-07
5.34616e-07
5.35515e-07
5.33558e-07
5.35656e-07
5.34612e-07
5.35515e-07
5.35656e-07
5.33352e-07
5.35248e-07
5.35578e-07
5.35804e-07
1.10664e-06
3.86317e-06
9.40303e-07
4.59108e-06
1.27223e-05
1.66509e-05
1.10701e-06
3.86476e-06
9.40538e-07
4.59136e-06
4.95569e-07
4.95569e-07
4.95568e-07
4.57236e-07
4.57236e-07
4.57235e-07
4.57236e-07
5.43426e-07
1.22722e-06
4.95576e-07
4.85583e-07
5.25965e-07
1.21731e-06
4.8231e-07
1.27304e-05
1.66572e-05
5.4344e-07
4.95576e-07
1.22632e-06
4.85569e-07
5.2599e-07
4.82309e-07
1.21476e-06
2.55036e-06
2.53929e-06
4.84305e-07
2.38721e-06
2.38645e-06
1.42781e-06
5.58134e-06
1.33032e-06
6.13111e-06
2.13201e-05
2.31405e-05
1.42831e-06
5.58184e-06
1.33058e-06
6.13155e-06
4.45582e-07
4.45581e-07
4.45582e-07
4.13561e-07
4.1356e-07
4.13559e-07
4.13561e-07
5.87478e-07
1.19999e-06
4.46472e-07
4.4445e-07
5.7442e-07
1.20844e-06
4.35737e-07
2.1323e-05
2.31461e-05
5.87493e-07
4.46472e-07
1.19899e-06
4.44425e-07
5.74436e-07
4.35738e-07
1.2091e-06
2.30792e-06
2.30808e-06
4.53714e-07
2.3437e-06
2.34435e-06
1.65826e-06
6.91374e-06
1.59182e-06
7.32082e-06
2.46462e-05
2.49395e-05
1.65894e-06
6.91417e-06
1.59193e-06
7.32159e-06
4.03772e-07
4.03771e-07
4.03773e-07
3.76715e-07
3.76713e-07
3.76713e-07
3.76715e-07
6.15409e-07
1.24803e-06
4.0661e-07
4.10777e-07
6.08268e-07
1.26987e-06
3.97795e-07
2.46516e-05
2.49442e-05
6.15423e-07
4.06609e-07
1.24668e-06
4.10763e-07
6.08244e-07
3.97796e-07
1.27104e-06
2.46137e-06
2.46178e-06
4.30285e-07
2.51979e-06
2.51937e-06
1.80759e-06
7.84454e-06
1.76687e-06
8.10122e-06
2.47298e-05
2.44313e-05
1.80718e-06
7.84551e-06
1.76774e-06
8.10278e-06
3.68388e-07
3.68388e-07
3.68389e-07
3.45217e-07
3.45215e-07
3.45217e-07
3.45217e-07
6.25696e-07
1.3184e-06
3.73545e-07
3.81773e-07
6.24321e-07
1.33782e-06
3.66093e-07
2.47327e-05
2.44343e-05
6.2574e-07
3.73546e-07
1.31824e-06
3.81771e-07
6.24494e-07
3.66096e-07
1.33795e-06
2.62454e-06
2.62436e-06
4.08436e-07
2.66972e-06
2.66941e-06
1.88944e-06
8.39321e-06
1.86801e-06
8.5299e-06
2.3683e-05
2.32667e-05
1.88832e-06
8.39494e-06
1.8697e-06
8.53212e-06
3.38036e-07
3.38038e-07
3.38038e-07
3.17928e-07
3.17927e-07
3.17929e-07
3.17929e-07
6.21137e-07
1.3774e-06
3.45292e-07
3.55982e-07
6.24717e-07
1.3907e-06
3.38812e-07
2.3684e-05
2.32692e-05
6.21198e-07
3.45294e-07
1.3774e-06
3.55987e-07
6.24853e-07
3.38816e-07
1.39092e-06
2.75751e-06
2.75782e-06
3.86594e-07
2.80011e-06
2.79982e-06
1.92583e-06
8.66029e-06
1.91757e-06
8.71667e-06
2.24949e-05
2.21236e-05
1.92532e-06
8.66265e-06
1.91858e-06
8.7192e-06
3.11658e-07
3.11661e-07
3.1166e-07
2.94005e-07
2.94004e-07
2.94006e-07
2.94006e-07
6.07707e-07
1.42125e-06
3.20521e-07
3.32671e-07
6.14453e-07
1.42996e-06
3.14768e-07
2.24957e-05
2.2126e-05
6.07735e-07
3.20523e-07
1.42121e-06
3.32679e-07
6.14531e-07
3.14772e-07
1.43132e-06
2.89336e-06
2.89427e-06
3.65156e-07
2.94182e-06
2.94205e-06
1.94368e-06
8.75594e-06
1.93965e-06
8.7674e-06
2.14735e-05
2.11825e-05
1.94431e-06
8.75864e-06
1.94039e-06
8.77038e-06
2.88472e-07
2.88475e-07
2.88475e-07
2.72829e-07
2.72827e-07
2.72831e-07
2.72831e-07
5.90512e-07
1.45656e-06
2.98412e-07
3.11493e-07
5.98327e-07
1.46565e-06
2.93237e-07
2.14749e-05
2.1185e-05
5.90757e-07
2.98411e-07
1.4573e-06
3.11504e-07
5.98325e-07
2.93238e-07
1.4659e-06
3.05017e-06
3.05062e-06
3.44616e-07
3.10574e-06
3.10707e-06
1.96204e-06
8.76372e-06
1.95603e-06
8.75904e-06
2.06742e-05
2.0455e-05
1.962e-06
8.76668e-06
1.95668e-06
8.76193e-06
2.67906e-07
2.67911e-07
2.67911e-07
2.5395e-07
2.53946e-07
2.53953e-07
2.53953e-07
5.74221e-07
1.49504e-06
2.78468e-07
2.92305e-07
5.81112e-07
1.50598e-06
2.73784e-07
2.06761e-05
2.04578e-05
5.7401e-07
2.78471e-07
1.4958e-06
2.9233e-07
5.80783e-07
2.73791e-07
1.50658e-06
3.22949e-06
3.2299e-06
3.25681e-07
3.2919e-06
3.2929e-06
1.99323e-06
8.74386e-06
1.98097e-06
8.7388e-06
2.00745e-05
1.99129e-05
1.99244e-06
8.74639e-06
1.98217e-06
8.7411e-06
2.49545e-07
2.49552e-07
2.49552e-07
2.3704e-07
2.37034e-07
2.37044e-07
2.37043e-07
5.61699e-07
1.54295e-06
2.60404e-07
2.75082e-07
5.66242e-07
1.55871e-06
2.5616e-07
2.00758e-05
1.99161e-05
5.61412e-07
2.60418e-07
1.54346e-06
2.75126e-07
5.66691e-07
2.56179e-07
1.55934e-06
3.4262e-06
3.427e-06
3.09068e-07
3.4923e-06
3.4936e-06
2.04496e-06
8.72926e-06
2.02432e-06
8.72788e-06
1.96354e-05
1.95192e-05
2.04335e-06
8.73076e-06
2.02614e-06
8.72953e-06
2.33084e-07
2.33095e-07
2.33093e-07
2.21853e-07
2.21846e-07
2.21858e-07
2.21856e-07
5.55465e-07
1.60423e-06
2.44055e-07
2.5984e-07
5.5738e-07
1.62496e-06
2.40222e-07
1.9636e-05
1.95228e-05
5.5551e-07
2.44076e-07
1.60309e-06
2.5989e-07
5.57527e-07
2.40246e-07
1.6273e-06
3.63343e-06
3.63467e-06
2.94626e-07
3.70057e-06
3.70202e-06
2.11968e-06
8.72794e-06
2.09045e-06
8.73117e-06
1.93219e-05
1.92388e-05
2.11775e-06
8.72937e-06
2.092e-06
8.73272e-06
2.18296e-07
2.18309e-07
2.18306e-07
2.08203e-07
2.08196e-07
2.08209e-07
2.08206e-07
5.56806e-07
1.67989e-06
2.29313e-07
2.4658e-07
5.55886e-07
1.70524e-06
2.25869e-07
1.93216e-05
1.92428e-05
5.56767e-07
2.29333e-07
1.67803e-06
2.46626e-07
5.55954e-07
2.2589e-07
1.70763e-06
3.84234e-06
3.84352e-06
2.83054e-07
3.91034e-06
3.91071e-06
2.2173e-06
8.73848e-06
2.1834e-06
8.7453e-06
1.91014e-05
1.90432e-05
2.21787e-06
8.73913e-06
2.18309e-06
8.74736e-06
2.05007e-07
2.0502e-07
2.05016e-07
1.95942e-07
1.95937e-07
1.95948e-07
1.95945e-07
5.66155e-07
1.7689e-06
2.16099e-07
2.35292e-07
5.62558e-07
1.7983e-06
2.13026e-07
1.91006e-05
1.90472e-05
5.66072e-07
2.16109e-07
1.76699e-06
2.35327e-07
5.62602e-07
2.13037e-07
1.80076e-06
4.04462e-06
4.04737e-06
2.74273e-07
4.11109e-06
4.11072e-06
2.34264e-06
8.75727e-06
2.30018e-06
8.76587e-06
1.89478e-05
1.89072e-05
2.34223e-06
8.75811e-06
2.29973e-06
8.76802e-06
1.93077e-07
1.93087e-07
1.93083e-07
1.84952e-07
1.84949e-07
1.84958e-07
1.84954e-07
5.85268e-07
1.86908e-06
2.04346e-07
2.25976e-07
5.78465e-07
1.90205e-06
2.01627e-07
1.89465e-05
1.8911e-05
5.8525e-07
2.04346e-07
1.8673e-06
2.25999e-07
5.78322e-07
2.0163e-07
1.90426e-06
4.23578e-06
4.23803e-06
2.68842e-07
4.29781e-06
4.29841e-06
2.48919e-06
8.77907e-06
2.44014e-06
8.78777e-06
1.88401e-05
1.88113e-05
2.48954e-06
8.78012e-06
2.44002e-06
8.79003e-06
1.82391e-07
1.824e-07
1.82396e-07
1.75137e-07
1.75136e-07
1.75143e-07
1.75139e-07
6.15044e-07
1.97787e-06
1.93996e-07
2.18632e-07
6.03743e-07
2.01301e-06
1.91621e-07
1.88383e-05
1.88151e-05
6.14312e-07
1.93991e-07
1.97612e-06
2.18648e-07
6.04011e-07
1.91619e-07
2.01543e-06
4.4102e-06
4.41184e-06
2.66365e-07
4.46506e-06
4.46656e-06
2.65351e-06
8.80034e-06
2.59899e-06
8.80841e-06
1.87621e-05
1.8741e-05
2.65356e-06
8.80159e-06
2.59876e-06
8.81077e-06
1.72859e-07
1.72867e-07
1.72862e-07
1.6642e-07
1.6642e-07
1.66427e-07
1.66422e-07
6.54394e-07
2.09054e-06
1.85007e-07
2.13263e-07
6.39552e-07
2.1297e-06
1.82965e-07
1.87603e-05
1.87441e-05
6.53608e-07
1.85e-07
2.09189e-06
2.13275e-07
6.40031e-07
1.82961e-07
2.1283e-06
4.56446e-06
4.56748e-06
2.66953e-07
4.61168e-06
4.61216e-06
2.82737e-06
8.81977e-06
2.77041e-06
8.82706e-06
1.87021e-05
1.86861e-05
2.82715e-06
8.82122e-06
2.77034e-06
8.82948e-06
1.64407e-07
1.64414e-07
1.64408e-07
1.58735e-07
1.58735e-07
1.58742e-07
1.58736e-07
7.03995e-07
2.20596e-06
1.77338e-07
2.09877e-07
6.85758e-07
2.24569e-06
1.7562e-07
1.87017e-05
1.86877e-05
7.03235e-07
1.77332e-07
2.20782e-06
2.09893e-07
6.86317e-07
1.75619e-07
2.24408e-06
4.69728e-06
4.70056e-06
2.70731e-07
4.73761e-06
4.73805e-06
3.00381e-06
8.8374e-06
2.94547e-06
8.84404e-06
1.86528e-05
1.86397e-05
3.00446e-06
8.83891e-06
2.9453e-06
8.84654e-06
1.56971e-07
1.56978e-07
1.56971e-07
1.52029e-07
1.52028e-07
1.52035e-07
1.52029e-07
7.63195e-07
2.32212e-06
1.70963e-07
2.08488e-07
7.42169e-07
2.35729e-06
1.69565e-07
1.86534e-05
1.8641e-05
7.62581e-07
1.70958e-07
2.3223e-06
2.08511e-07
7.42625e-07
1.69564e-07
2.35755e-06
4.80943e-06
4.81156e-06
2.78046e-07
4.84339e-06
4.8453e-06
3.1733e-06
8.85363e-06
3.11797e-06
8.85984e-06
1.86099e-05
1.85983e-05
3.17306e-06
8.85526e-06
3.11865e-06
8.86239e-06
1.50499e-07
1.50507e-07
1.50499e-07
1.46251e-07
1.46249e-07
1.46257e-07
1.46251e-07
8.31731e-07
2.4327e-06
1.65866e-07
2.09145e-07
8.07739e-07
2.46585e-06
1.64784e-07
1.86108e-05
1.85996e-05
8.30738e-07
1.65862e-07
2.43274e-06
2.09171e-07
8.08186e-07
1.64785e-07
2.46612e-06
4.90406e-06
4.90597e-06
2.88552e-07
4.92928e-06
4.93125e-06
3.32949e-06
8.86876e-06
3.27932e-06
8.8747e-06
1.85708e-05
1.85607e-05
3.33027e-06
8.87062e-06
3.27951e-06
8.87734e-06
1.44946e-07
1.44955e-07
1.44947e-07
1.41366e-07
1.41364e-07
1.41372e-07
1.41366e-07
9.07309e-07
2.53686e-06
1.6204e-07
2.11851e-07
8.80952e-07
2.56756e-06
1.61273e-07
1.85718e-05
1.85617e-05
9.0698e-07
1.62037e-07
2.53566e-06
2.11878e-07
8.81081e-07
1.61273e-07
2.56917e-06
4.98088e-06
4.98283e-06
3.02427e-07
5.00103e-06
5.00299e-06
3.46714e-06
8.88322e-06
3.42451e-06
8.88879e-06
1.85349e-05
1.85253e-05
3.46759e-06
8.88508e-06
3.42475e-06
8.89139e-06
1.40277e-07
1.40288e-07
1.40278e-07
1.37342e-07
1.3734e-07
1.37347e-07
1.37342e-07
9.88388e-07
2.633e-06
1.5949e-07
2.16636e-07
9.6074e-07
2.66101e-06
1.59033e-07
1.85357e-05
1.85264e-05
9.8844e-07
1.59487e-07
2.63162e-06
2.16666e-07
9.60506e-07
1.59032e-07
2.6626e-06
5.04367e-06
5.04558e-06
3.196e-07
5.05963e-06
5.06157e-06
3.58448e-06
8.89675e-06
3.54898e-06
8.90191e-06
1.85009e-05
1.8492e-05
8.89849e-06
3.54943e-06
8.90447e-06
1.36462e-07
1.36474e-07
1.36464e-07
1.07299e-06
2.72063e-06
1.58221e-07
2.23523e-07
1.04414e-06
2.74771e-06
1.58077e-07
1.85021e-05
1.07179e-06
1.58216e-07
2.71928e-06
1.04419e-06
1.58071e-07
5.09495e-06
5.09683e-06
3.40353e-07
5.10712e-06
5.10905e-06
5.35247e-07
5.35576e-07
5.35404e-07
1.08575e-05
5.81151e-07
1.08491e-05
5.80944e-07
5.28224e-07
2.49017e-06
2.49113e-06
5.42446e-07
5.40553e-07
5.34619e-07
5.35514e-07
5.33467e-07
5.35656e-07
5.34614e-07
5.35514e-07
5.33487e-07
5.35656e-07
5.30292e-07
3.46225e-06
5.63095e-07
8.25718e-07
5.30225e-07
3.46165e-06
5.62685e-07
8.24577e-07
5.29374e-07
5.28385e-07
1.18642e-06
5.09596e-07
5.32438e-07
5.2835e-07
5.19586e-07
5.29387e-07
5.28387e-07
1.18835e-06
5.09596e-07
5.32443e-07
5.2835e-07
5.19446e-07
5.35247e-07
5.36434e-07
5.36415e-07
1.08555e-05
5.81203e-07
5.28224e-07
2.47739e-06
2.48032e-06
5.4322e-07
5.43306e-07
1.08535e-05
5.8031e-07
5.34556e-07
5.35514e-07
5.33174e-07
5.35656e-07
5.34615e-07
5.35512e-07
5.35656e-07
5.33464e-07
5.30301e-07
3.46218e-06
5.73153e-07
8.26046e-07
5.29624e-07
5.28386e-07
1.18166e-06
5.09596e-07
5.33286e-07
5.28351e-07
5.19652e-07
5.30191e-07
3.46199e-06
5.62871e-07
8.26437e-07
5.29372e-07
5.28388e-07
5.09596e-07
1.18747e-06
5.2835e-07
5.32426e-07
5.19664e-07
5.35663e-07
5.35602e-07
5.35656e-07
5.35656e-07
5.35663e-07
5.35602e-07
5.35656e-07
5.35656e-07
5.35663e-07
5.35603e-07
5.35656e-07
5.35656e-07
5.28434e-07
5.28375e-07
5.09725e-07
5.09725e-07
5.28408e-07
5.28408e-07
5.09781e-07
5.28434e-07
5.28374e-07
5.09725e-07
5.09725e-07
5.28408e-07
5.28408e-07
5.09781e-07
5.28434e-07
5.28374e-07
5.09725e-07
5.09725e-07
5.28408e-07
5.28408e-07
5.09782e-07
5.28434e-07
5.28373e-07
5.09725e-07
5.09725e-07
5.28408e-07
5.28408e-07
5.09782e-07
5.3461e-07
5.35516e-07
5.35656e-07
5.33553e-07
5.29382e-07
5.28384e-07
1.18621e-06
5.09595e-07
5.32654e-07
5.2835e-07
5.19529e-07
5.30332e-07
3.46319e-06
5.63425e-07
8.24559e-07
5.29389e-07
5.28382e-07
5.09596e-07
1.18383e-06
5.2835e-07
5.32472e-07
5.1943e-07
5.30225e-07
3.4625e-06
5.63467e-07
8.2517e-07
5.35246e-07
5.36067e-07
5.36221e-07
1.08569e-05
5.80431e-07
5.28224e-07
2.50487e-06
2.5119e-06
5.40363e-07
5.40477e-07
1.08507e-05
5.80071e-07
5.34614e-07
5.35517e-07
5.35656e-07
5.33528e-07
5.29387e-07
5.28383e-07
5.09597e-07
1.17893e-06
5.28351e-07
5.33179e-07
5.19612e-07
5.29373e-07
5.28381e-07
5.09595e-07
1.18492e-06
5.2835e-07
5.32555e-07
5.19584e-07
5.30328e-07
3.4622e-06
5.73081e-07
8.2579e-07
5.30245e-07
3.46343e-06
5.63471e-07
8.25212e-07
5.28223e-07
2.50327e-06
2.48135e-06
5.40532e-07
5.43073e-07
1.08574e-05
5.81087e-07
1.08577e-05
5.81201e-07
1.27268e-05
1.66615e-05
1.27375e-05
1.66666e-05
2.54463e-06
2.54474e-06
4.84326e-07
2.38324e-06
2.38368e-06
2.0579e-05
1.77306e-05
2.05864e-05
1.77361e-05
4.79485e-07
2.3013e-06
2.30274e-06
2.3486e-06
2.3494e-06
1.10581e-06
3.86336e-06
9.39005e-07
4.58954e-06
5.43583e-07
1.23626e-06
4.95577e-07
4.85574e-07
5.26052e-07
1.21541e-06
4.82312e-07
5.4334e-07
1.238e-06
4.95574e-07
4.85587e-07
5.25939e-07
1.21617e-06
4.82308e-07
1.16302e-06
5.39746e-06
4.79304e-06
1.28093e-06
1.16242e-06
5.39704e-06
4.79165e-06
1.28052e-06
5.51643e-07
4.74391e-07
1.19882e-06
4.57794e-07
1.21036e-06
4.69729e-07
5.67116e-07
5.51396e-07
4.74407e-07
1.19943e-06
4.57785e-07
1.21106e-06
4.69722e-07
5.66875e-07
2.54199e-06
2.54341e-06
4.84334e-07
2.38387e-06
2.38545e-06
1.27233e-05
1.66615e-05
2.05793e-05
1.77312e-05
4.79494e-07
2.30247e-06
2.30295e-06
2.34834e-06
2.3498e-06
2.05837e-05
1.77305e-05
5.43662e-07
1.23569e-06
4.95577e-07
4.85578e-07
5.2605e-07
1.21622e-06
4.82313e-07
1.10669e-06
3.86381e-06
9.3999e-07
4.59072e-06
5.43631e-07
4.95577e-07
1.23662e-06
4.85581e-07
5.26037e-07
4.82312e-07
1.2161e-06
1.16328e-06
5.39808e-06
4.7937e-06
1.28122e-06
5.51682e-07
4.74396e-07
1.1991e-06
4.57795e-07
1.21001e-06
4.69729e-07
5.67168e-07
1.16291e-06
5.398e-06
4.79256e-06
1.28099e-06
5.51629e-07
4.74396e-07
4.57795e-07
1.1993e-06
4.6973e-07
1.21114e-06
5.67137e-07
1.10599e-06
3.86479e-06
9.3902e-07
4.59181e-06
5.43475e-07
4.95578e-07
1.23855e-06
4.85577e-07
5.26095e-07
4.82312e-07
1.21783e-06
1.10642e-06
3.86476e-06
9.40057e-07
4.59137e-06
5.51493e-07
4.7439e-07
1.19829e-06
4.57788e-07
1.21106e-06
4.69723e-07
5.67022e-07
1.16242e-06
5.3983e-06
4.79275e-06
1.28085e-06
5.51501e-07
4.74391e-07
4.57786e-07
1.1996e-06
4.69725e-07
1.21264e-06
5.66899e-07
1.16258e-06
5.39841e-06
4.79331e-06
1.2806e-06
2.54801e-06
2.55088e-06
4.84294e-07
2.38672e-06
2.38745e-06
1.2737e-05
1.66648e-05
2.05831e-05
1.77355e-05
4.79444e-07
2.30312e-06
2.30178e-06
2.35295e-06
2.35402e-06
2.05782e-05
1.77347e-05
5.43531e-07
4.95577e-07
1.23985e-06
4.85591e-07
5.25894e-07
4.82312e-07
1.2184e-06
1.10638e-06
3.86594e-06
9.39383e-07
4.59188e-06
1.10661e-06
3.86507e-06
9.39496e-07
4.59149e-06
5.5148e-07
4.74374e-07
4.57788e-07
1.19755e-06
4.69722e-07
1.20878e-06
5.67046e-07
5.51519e-07
4.74406e-07
4.5779e-07
1.19995e-06
4.69725e-07
1.21313e-06
5.67046e-07
1.16232e-06
5.39832e-06
4.79312e-06
1.28071e-06
1.16236e-06
5.39866e-06
4.79335e-06
1.28077e-06
1.27302e-05
1.66673e-05
1.27304e-05
1.6672e-05
4.79461e-07
2.30372e-06
2.30381e-06
2.34989e-06
2.34999e-06
2.0585e-05
1.77368e-05
2.05898e-05
1.77423e-05
2.1319e-05
2.314e-05
2.13263e-05
2.31464e-05
2.30553e-06
2.30703e-06
4.53733e-07
2.34282e-06
2.34355e-06
2.44853e-05
2.35524e-05
2.44898e-05
2.35581e-05
4.51156e-07
2.4298e-06
2.43116e-06
2.36988e-06
2.37141e-06
1.42776e-06
5.58092e-06
1.32999e-06
6.13107e-06
5.8743e-07
1.20042e-06
4.46478e-07
4.44455e-07
5.74498e-07
1.20841e-06
4.35743e-07
5.87274e-07
1.20073e-06
4.46467e-07
4.44473e-07
5.74282e-07
1.20993e-06
4.35731e-07
1.47244e-06
6.77648e-06
6.29361e-06
1.55363e-06
1.47244e-06
6.77655e-06
6.29346e-06
1.55389e-06
5.93618e-07
4.35478e-07
1.23544e-06
4.15849e-07
1.21735e-06
4.25547e-07
6.03563e-07
5.93472e-07
4.35492e-07
1.23673e-06
4.15837e-07
1.21687e-06
4.25534e-07
6.03515e-07
2.30668e-06
2.30722e-06
4.53738e-07
2.34352e-06
2.34367e-06
2.13229e-05
2.3144e-05
2.44852e-05
2.35534e-05
4.5116e-07
2.42999e-06
2.43002e-06
2.37044e-06
2.37139e-06
2.44877e-05
2.35558e-05
5.87485e-07
1.20053e-06
4.46479e-07
4.4446e-07
5.74544e-07
1.20985e-06
4.35744e-07
1.42823e-06
5.58181e-06
1.33041e-06
6.13219e-06
5.87453e-07
4.46479e-07
1.20092e-06
4.44456e-07
5.7452e-07
4.35742e-07
1.20893e-06
1.47244e-06
6.77683e-06
6.29402e-06
1.55382e-06
5.93622e-07
4.35483e-07
1.2367e-06
4.1585e-07
1.21683e-06
4.25546e-07
6.03597e-07
1.47241e-06
6.77789e-06
6.29448e-06
1.55388e-06
5.93603e-07
4.35477e-07
4.15846e-07
1.2358e-06
4.25545e-07
1.21787e-06
6.03603e-07
1.42812e-06
5.58198e-06
1.33016e-06
6.13234e-06
5.87287e-07
4.46467e-07
1.20106e-06
4.44455e-07
5.74289e-07
4.3573e-07
1.21029e-06
1.42774e-06
5.58244e-06
1.33006e-06
6.13248e-06
5.93543e-07
4.35471e-07
1.23543e-06
4.15846e-07
1.21746e-06
4.25542e-07
6.03698e-07
1.47246e-06
6.77786e-06
6.29446e-06
1.55401e-06
5.9345e-07
4.35476e-07
4.15835e-07
1.23689e-06
4.25533e-07
1.21721e-06
6.03501e-07
1.47228e-06
6.77809e-06
6.29498e-06
1.55377e-06
2.30737e-06
2.30562e-06
4.53682e-07
2.34469e-06
2.34165e-06
2.13188e-05
2.31393e-05
2.44913e-05
2.35582e-05
4.511e-07
2.43114e-06
2.42784e-06
2.37202e-06
2.3687e-06
2.44856e-05
2.35525e-05
5.87425e-07
4.46475e-07
1.20137e-06
4.44477e-07
5.7443e-07
4.3574e-07
1.21055e-06
1.42803e-06
5.58206e-06
1.33005e-06
6.132e-06
1.42801e-06
5.5824e-06
1.33013e-06
6.13249e-06
5.93556e-07
4.35448e-07
4.15847e-07
1.23631e-06
4.25542e-07
1.21615e-06
6.03752e-07
5.93617e-07
4.35495e-07
4.1585e-07
1.23706e-06
4.25546e-07
1.21739e-06
6.036e-07
1.4722e-06
6.77748e-06
6.29429e-06
1.5537e-06
1.47235e-06
6.77803e-06
6.29487e-06
1.55382e-06
2.13257e-05
2.31457e-05
2.13297e-05
2.31476e-05
4.51135e-07
2.43018e-06
2.43024e-06
2.3709e-06
2.37166e-06
2.44893e-05
2.35584e-05
2.44897e-05
2.35601e-05
2.46463e-05
2.49395e-05
2.46502e-05
2.49428e-05
2.46161e-06
2.46244e-06
4.30323e-07
2.51932e-06
2.52115e-06
2.48377e-05
2.4939e-05
2.48395e-05
2.4942e-05
4.28619e-07
2.59906e-06
2.60086e-06
2.54906e-06
2.54998e-06
1.65897e-06
6.91361e-06
1.59197e-06
7.32113e-06
6.15212e-07
1.2479e-06
4.06612e-07
4.10788e-07
6.08348e-07
1.26969e-06
3.97797e-07
6.15196e-07
1.24711e-06
4.066e-07
4.10795e-07
6.08285e-07
1.27099e-06
3.97786e-07
1.69e-06
7.76076e-06
7.43114e-06
1.74295e-06
1.68992e-06
7.76134e-06
7.43109e-06
1.74333e-06
6.18556e-07
4.03175e-07
1.30607e-06
3.81295e-07
1.28335e-06
3.89369e-07
6.22447e-07
6.18566e-07
4.0318e-07
1.3064e-06
3.81287e-07
1.28249e-06
3.89359e-07
6.2248e-07
2.46151e-06
2.46229e-06
4.30305e-07
2.51987e-06
2.51971e-06
2.46478e-05
2.49406e-05
2.48379e-05
2.49389e-05
4.28603e-07
2.60006e-06
2.59947e-06
2.54922e-06
2.54953e-06
2.48371e-05
2.494e-05
6.15251e-07
1.24721e-06
4.06612e-07
4.1079e-07
6.08357e-07
1.27099e-06
3.97798e-07
1.65882e-06
6.91479e-06
1.59201e-06
7.32237e-06
6.15266e-07
4.06608e-07
1.24824e-06
4.10791e-07
6.08337e-07
3.97793e-07
1.27e-06
1.68978e-06
7.76187e-06
7.43166e-06
1.74241e-06
6.1858e-07
4.03177e-07
1.3064e-06
3.81297e-07
1.28266e-06
3.89368e-07
6.22516e-07
1.6901e-06
7.76237e-06
7.43221e-06
1.7427e-06
6.18584e-07
4.03179e-07
3.81292e-07
1.30639e-06
3.89364e-07
1.28367e-06
6.22515e-07
1.65901e-06
6.91464e-06
1.59192e-06
7.32227e-06
6.15183e-07
4.06599e-07
1.24739e-06
4.10784e-07
6.08276e-07
3.97785e-07
1.27108e-06
1.65893e-06
6.91511e-06
1.59197e-06
7.32254e-06
6.18461e-07
4.03162e-07
1.30506e-06
3.81294e-07
1.28358e-06
3.89367e-07
6.22696e-07
1.68987e-06
7.76218e-06
7.43199e-06
1.74263e-06
6.1856e-07
4.0317e-07
3.81286e-07
1.30637e-06
3.89359e-07
1.28262e-06
6.22489e-07
1.6899e-06
7.76256e-06
7.43246e-06
1.7434e-06
2.46309e-06
2.45989e-06
4.30299e-07
2.5211e-06
2.51875e-06
2.46472e-05
2.4941e-05
2.48421e-05
2.49435e-05
4.28598e-07
2.60049e-06
2.59923e-06
2.55044e-06
2.54779e-06
2.48343e-05
2.49404e-05
6.15247e-07
4.06614e-07
1.24738e-06
4.10795e-07
6.08378e-07
3.97799e-07
1.27105e-06
1.65848e-06
6.91458e-06
1.59185e-06
7.32234e-06
1.65852e-06
6.91492e-06
1.59196e-06
7.3222e-06
6.18457e-07
4.0315e-07
3.81296e-07
1.3047e-06
3.89367e-07
1.28248e-06
6.22438e-07
6.186e-07
4.03177e-07
3.81298e-07
1.30629e-06
3.89372e-07
1.28252e-06
6.22511e-07
1.68999e-06
7.76255e-06
7.43227e-06
1.74247e-06
1.69009e-06
7.76196e-06
7.43212e-06
1.74251e-06
2.46501e-05
2.49421e-05
2.46503e-05
2.4942e-05
4.28582e-07
2.59954e-06
2.59897e-06
2.5486e-06
2.54849e-06
2.48395e-05
2.49413e-05
2.48391e-05
2.49411e-05
2.4729e-05
2.44301e-05
2.47325e-05
2.44332e-05
2.62488e-06
2.62608e-06
4.08424e-07
2.66909e-06
2.6706e-06
2.38691e-05
2.426e-05
2.38727e-05
2.4263e-05
4.06848e-07
2.73604e-06
2.73609e-06
2.6926e-06
2.69401e-06
1.80653e-06
7.84478e-06
1.76731e-06
8.10203e-06
6.25648e-07
1.31716e-06
3.73547e-07
3.81786e-07
6.24441e-07
1.33883e-06
3.66094e-07
6.25677e-07
1.31722e-06
3.7354e-07
3.81792e-07
6.24486e-07
1.33912e-06
3.66089e-07
1.82564e-06
8.35293e-06
8.16126e-06
1.85584e-06
1.82658e-06
8.35401e-06
8.16184e-06
1.85438e-06
6.26055e-07
3.75075e-07
1.36749e-06
3.51988e-07
1.34853e-06
3.58916e-07
6.2484e-07
6.26114e-07
3.75081e-07
1.36779e-06
3.51986e-07
1.34874e-06
3.58912e-07
6.24825e-07
2.6257e-06
2.62533e-06
4.0841e-07
2.67029e-06
2.67119e-06
2.47307e-05
2.4431e-05
2.38708e-05
2.42618e-05
4.06841e-07
2.73552e-06
2.73725e-06
2.69406e-06
2.69266e-06
2.38714e-05
2.4261e-05
6.25671e-07
1.31737e-06
3.73547e-07
3.81788e-07
6.24509e-07
1.33917e-06
3.66097e-07
1.80704e-06
7.84552e-06
1.76767e-06
8.10276e-06
6.25634e-07
3.73544e-07
1.31747e-06
3.81797e-07
6.245e-07
3.66093e-07
1.33915e-06
1.82683e-06
8.35494e-06
8.16256e-06
1.85463e-06
6.26178e-07
3.75076e-07
1.3679e-06
3.51992e-07
1.3489e-06
3.58917e-07
6.24912e-07
1.82654e-06
8.35452e-06
8.16232e-06
1.85457e-06
6.26139e-07
3.75087e-07
3.51989e-07
1.36779e-06
3.58915e-07
1.3489e-06
6.24858e-07
1.80677e-06
7.84532e-06
1.76781e-06
8.1026e-06
6.25712e-07
3.73539e-07
1.31726e-06
3.81784e-07
6.24497e-07
3.66088e-07
1.33901e-06
1.8066e-06
7.84594e-06
1.76732e-06
8.10304e-06
6.26078e-07
3.75062e-07
1.36617e-06
3.51987e-07
1.35005e-06
3.58914e-07
6.24805e-07
1.82679e-06
8.35438e-06
8.16217e-06
1.85448e-06
6.26145e-07
3.75073e-07
3.51984e-07
1.36763e-06
3.58911e-07
1.34872e-06
6.24874e-07
1.82673e-06
8.35482e-06
8.16279e-06
1.85449e-06
2.62647e-06
2.6245e-06
4.08454e-07
2.67038e-06
2.66986e-06
2.47345e-05
2.44324e-05
2.38737e-05
2.42631e-05
4.0681e-07
2.73637e-06
2.73508e-06
2.6944e-06
2.69313e-06
2.38712e-05
2.42633e-05
6.25739e-07
3.7355e-07
1.31709e-06
3.8178e-07
6.24523e-07
3.66098e-07
1.33891e-06
1.80795e-06
7.84599e-06
1.7677e-06
8.10318e-06
1.80795e-06
7.84535e-06
1.76776e-06
8.1025e-06
6.26176e-07
3.75061e-07
3.5199e-07
1.36638e-06
3.58916e-07
1.35003e-06
6.24927e-07
6.26164e-07
3.75066e-07
3.51993e-07
1.36757e-06
3.5892e-07
1.34855e-06
6.24944e-07
1.82589e-06
8.35498e-06
8.16294e-06
1.85612e-06
1.82593e-06
8.3545e-06
8.16221e-06
1.85615e-06
2.47314e-05
2.44322e-05
2.47313e-05
2.4432e-05
4.06764e-07
2.735e-06
2.73456e-06
2.69282e-06
2.69275e-06
2.38712e-05
2.42628e-05
2.38711e-05
2.42628e-05
2.3681e-05
2.32649e-05
2.36835e-05
2.3268e-05
2.75622e-06
2.75861e-06
3.86613e-07
2.80141e-06
2.80097e-06
2.26731e-05
2.30761e-05
2.26759e-05
2.30781e-05
3.85122e-07
2.86881e-06
2.86869e-06
2.82212e-06
2.82452e-06
1.88779e-06
8.39396e-06
1.86945e-06
8.53097e-06
6.21085e-07
1.37575e-06
3.45294e-07
3.55995e-07
6.24553e-07
1.39191e-06
3.38813e-07
6.21056e-07
1.37598e-06
3.45292e-07
3.56001e-07
6.24804e-07
1.39219e-06
3.38812e-07
1.89767e-06
8.64655e-06
8.55466e-06
1.91148e-06
1.89916e-06
8.64757e-06
8.55555e-06
1.91002e-06
6.20723e-07
3.49954e-07
1.41309e-06
3.26439e-07
1.399e-06
3.32534e-07
6.15083e-07
6.20726e-07
3.49958e-07
1.41274e-06