/*--------------------------------*- C++ -*----------------------------------*\
| =========                 |                                                 |
| \\      /  F ield         | OpenFOAM: The Open Source CFD Toolbox           |
|  \\    /   O peration     | Version:  v1906                                 |
|   \\  /    A nd           | Web:      www.OpenFOAM.com                      |
|    \\/     M anipulation  |                                                 |
\*---------------------------------------------------------------------------*/
FoamFile
{
    version     2.0;
    format      ascii;
    class       volScalarField;
    location    "900";
    object      k;
}
// * * * * * * * * * * * * * * * * * * * * * * * * * * * * * * * * * * * * * //

dimensions      [0 2 -2 0 0 0 0];


internalField   nonuniform List<scalar> 
42616
(
3.58933e-05
3.58913e-05
3.58914e-05
3.59957e-05
3.39293e-05
3.38875e-05
3.38877e-05
3.396e-05
3.21568e-05
3.20044e-05
3.20044e-05
3.19452e-05
3.05328e-05
3.02233e-05
3.02235e-05
2.99776e-05
2.90302e-05
2.85462e-05
2.85467e-05
2.81095e-05
2.76318e-05
2.69781e-05
2.69785e-05
2.63765e-05
2.63263e-05
2.55208e-05
2.55212e-05
2.47926e-05
2.5106e-05
2.41734e-05
2.41741e-05
2.33628e-05
2.39651e-05
2.29375e-05
2.29388e-05
2.20892e-05
2.28994e-05
2.18127e-05
2.18142e-05
2.09701e-05
2.19051e-05
2.07965e-05
2.07977e-05
1.99966e-05
2.0979e-05
1.98855e-05
1.98863e-05
1.91637e-05
2.01161e-05
1.90776e-05
1.90781e-05
1.84696e-05
1.93152e-05
1.83695e-05
1.83698e-05
1.79093e-05
1.85753e-05
1.77581e-05
1.77583e-05
1.7478e-05
1.78938e-05
1.72417e-05
1.72418e-05
1.71678e-05
1.72684e-05
1.68195e-05
1.68196e-05
1.69854e-05
1.6697e-05
1.64906e-05
1.64907e-05
1.69371e-05
1.61782e-05
1.62548e-05
1.62551e-05
1.70311e-05
1.57097e-05
1.61124e-05
1.61127e-05
1.72573e-05
1.52899e-05
1.60629e-05
1.60633e-05
1.76075e-05
3.63061e-05
3.62907e-05
3.62907e-05
3.63061e-05
3.62907e-05
3.62907e-05
3.6423e-05
3.6423e-05
3.6423e-05
3.6423e-05
3.62907e-05
3.62907e-05
3.63061e-05
3.62907e-05
3.62907e-05
3.63062e-05
3.59957e-05
3.42664e-05
3.58914e-05
3.58914e-05
3.43754e-05
3.43753e-05
3.59957e-05
3.42663e-05
3.58914e-05
3.58914e-05
3.43755e-05
3.43755e-05
3.58914e-05
3.43755e-05
3.43755e-05
3.59958e-05
3.4267e-05
3.58914e-05
3.43757e-05
3.43754e-05
3.42668e-05
3.39595e-05
3.22565e-05
3.38873e-05
3.38872e-05
3.2465e-05
3.2465e-05
3.39594e-05
3.22567e-05
3.38874e-05
3.38875e-05
3.2465e-05
3.24653e-05
3.38875e-05
3.24654e-05
3.24654e-05
3.39601e-05
3.22571e-05
3.38874e-05
3.24654e-05
3.2465e-05
3.22572e-05
3.19446e-05
3.02885e-05
3.20039e-05
3.20039e-05
3.06584e-05
3.06585e-05
3.19448e-05
3.0289e-05
3.20039e-05
3.20042e-05
3.06585e-05
3.06588e-05
3.20043e-05
3.06591e-05
3.06588e-05
3.19453e-05
3.02896e-05
3.2004e-05
3.06592e-05
3.06584e-05
3.02888e-05
2.99773e-05
2.84119e-05
3.02225e-05
3.02226e-05
2.89543e-05
2.89545e-05
2.99778e-05
2.8413e-05
3.02227e-05
3.02229e-05
2.89548e-05
2.89547e-05
3.02229e-05
2.89554e-05
2.89548e-05
2.99785e-05
2.84134e-05
3.02224e-05
2.89558e-05
2.89542e-05
2.84122e-05
2.81091e-05
2.66597e-05
2.8545e-05
2.85452e-05
2.73581e-05
2.73585e-05
2.81102e-05
2.66605e-05
2.85456e-05
2.85454e-05
2.73591e-05
2.73586e-05
2.85455e-05
2.73597e-05
2.73587e-05
2.81108e-05
2.66609e-05
2.8545e-05
2.73602e-05
2.73584e-05
2.666e-05
2.63759e-05
2.50523e-05
2.69764e-05
2.69767e-05
2.5873e-05
2.58733e-05
2.63777e-05
2.50515e-05
2.69775e-05
2.69769e-05
2.58743e-05
2.58736e-05
2.6977e-05
2.58748e-05
2.58735e-05
2.63782e-05
2.50518e-05
2.69768e-05
2.58752e-05
2.58736e-05
2.50518e-05
2.47919e-05
2.35984e-05
2.5519e-05
2.55192e-05
2.44981e-05
2.44983e-05
2.47943e-05
2.35962e-05
2.55204e-05
2.55196e-05
2.44998e-05
2.44989e-05
2.55195e-05
2.44998e-05
2.44986e-05
2.47952e-05
2.35973e-05
2.55197e-05
2.45004e-05
2.4499e-05
2.35981e-05
2.33627e-05
2.22978e-05
2.41718e-05
2.4172e-05
2.32348e-05
2.32349e-05
2.33654e-05
2.22956e-05
2.41736e-05
2.41727e-05
2.32367e-05
2.32357e-05
2.41723e-05
2.3236e-05
2.32353e-05
2.3366e-05
2.22965e-05
2.41728e-05
2.32371e-05
2.32359e-05
2.22973e-05
2.2089e-05
2.11531e-05
2.29365e-05
2.29366e-05
2.20828e-05
2.20827e-05
2.2091e-05
2.11513e-05
2.29384e-05
2.29373e-05
2.20847e-05
2.20835e-05
2.29369e-05
2.20836e-05
2.20831e-05
2.2092e-05
2.11519e-05
2.29376e-05
2.2085e-05
2.20839e-05
2.11522e-05
2.09701e-05
2.01546e-05
2.1812e-05
2.18118e-05
2.10397e-05
2.10393e-05
2.09713e-05
2.01537e-05
2.18138e-05
2.18126e-05
2.10413e-05
2.10401e-05
2.18122e-05
2.10405e-05
2.10398e-05
2.09725e-05
2.01545e-05
2.1813e-05
2.10418e-05
2.10407e-05
2.01541e-05
1.99968e-05
1.92967e-05
2.07957e-05
2.07952e-05
2.01026e-05
2.0102e-05
1.99977e-05
1.92969e-05
2.07972e-05
2.0796e-05
2.01039e-05
2.01028e-05
2.07956e-05
2.01035e-05
2.01024e-05
1.99979e-05
1.92974e-05
2.07966e-05
2.01044e-05
2.01034e-05
1.92964e-05
1.91639e-05
1.85701e-05
1.98846e-05
1.98839e-05
1.92689e-05
1.92683e-05
1.91644e-05
1.85705e-05
1.98858e-05
1.98846e-05
1.92699e-05
1.92689e-05
1.98843e-05
1.92699e-05
1.92685e-05
1.91643e-05
1.85705e-05
1.98853e-05
1.92705e-05
1.92696e-05
1.85697e-05
1.84697e-05
1.79738e-05
1.90766e-05
1.90759e-05
1.85362e-05
1.85355e-05
1.84701e-05
1.7974e-05
1.90775e-05
1.90765e-05
1.85369e-05
1.8536e-05
1.90762e-05
1.85372e-05
1.85357e-05
1.84701e-05
1.79741e-05
1.90772e-05
1.85376e-05
1.85368e-05
1.79735e-05
1.79095e-05
1.75113e-05
1.83685e-05
1.83679e-05
1.79008e-05
1.79002e-05
1.79097e-05
1.75114e-05
1.83692e-05
1.83683e-05
1.79014e-05
1.79007e-05
1.8368e-05
1.79019e-05
1.79004e-05
1.79098e-05
1.75115e-05
1.83691e-05
1.79021e-05
1.79014e-05
1.75108e-05
1.74782e-05
1.71852e-05
1.77571e-05
1.77565e-05
1.73606e-05
1.73601e-05
1.74782e-05
1.71855e-05
1.77576e-05
1.77569e-05
1.73612e-05
1.73605e-05
1.77566e-05
1.73616e-05
1.73602e-05
1.74785e-05
1.71866e-05
1.77576e-05
1.73618e-05
1.73612e-05
1.71848e-05
1.71681e-05
1.69863e-05
1.72408e-05
1.72402e-05
1.69149e-05
1.69144e-05
1.7167e-05
1.69889e-05
1.72412e-05
1.72406e-05
1.69154e-05
1.69148e-05
1.72404e-05
1.69158e-05
1.69145e-05
1.71668e-05
1.69893e-05
1.72413e-05
1.69159e-05
1.69154e-05
1.69856e-05
1.69858e-05
1.69287e-05
1.68188e-05
1.68182e-05
1.65626e-05
1.6562e-05
1.69817e-05
1.69293e-05
1.6819e-05
1.68186e-05
1.65629e-05
1.65626e-05
1.68183e-05
1.65632e-05
1.65622e-05
1.69823e-05
1.693e-05
1.68192e-05
1.65633e-05
1.6563e-05
1.69281e-05
1.69376e-05
1.69946e-05
1.64902e-05
1.64895e-05
1.63036e-05
1.6303e-05
1.69376e-05
1.6996e-05
1.64902e-05
1.649e-05
1.63039e-05
1.63036e-05
1.64896e-05
1.63039e-05
1.63032e-05
1.69383e-05
1.69971e-05
1.64903e-05
1.63041e-05
1.63038e-05
1.69939e-05
1.7032e-05
1.71885e-05
1.62548e-05
1.62541e-05
1.61378e-05
1.61372e-05
1.70287e-05
1.71936e-05
1.62548e-05
1.62546e-05
1.61381e-05
1.61378e-05
1.62542e-05
1.61378e-05
1.61373e-05
1.70306e-05
1.71951e-05
1.62548e-05
1.61381e-05
1.61379e-05
1.71852e-05
1.72548e-05
1.75137e-05
1.61126e-05
1.6112e-05
1.6065e-05
1.60645e-05
1.72501e-05
1.75228e-05
1.61126e-05
1.61125e-05
1.60652e-05
1.6065e-05
1.6112e-05
1.60647e-05
1.60645e-05
1.72514e-05
1.75244e-05
1.61126e-05
1.60651e-05
1.6065e-05
1.75123e-05
1.7608e-05
1.60633e-05
1.60629e-05
1.75971e-05
1.60634e-05
1.60633e-05
1.60628e-05
1.75985e-05
1.60633e-05
3.73774e-05
3.73766e-05
3.7377e-05
3.7377e-05
3.73703e-05
3.73777e-05
3.73046e-05
3.73768e-05
3.73703e-05
3.73777e-05
3.73769e-05
3.73049e-05
3.73741e-05
3.72967e-05
3.72967e-05
3.58594e-05
4.06599e-05
3.65932e-05
4.50434e-05
5.5102e-05
6.50311e-05
3.58578e-05
4.06521e-05
3.65924e-05
4.50457e-05
3.58932e-05
3.58933e-05
3.58933e-05
3.44001e-05
3.44001e-05
3.44001e-05
3.44001e-05
3.52713e-05
3.5606e-05
3.58931e-05
3.53765e-05
3.60487e-05
3.41808e-05
3.53821e-05
5.51168e-05
6.50484e-05
3.52716e-05
3.58931e-05
3.56096e-05
3.53767e-05
3.60487e-05
3.53821e-05
3.41886e-05
3.65982e-05
3.65909e-05
3.52786e-05
3.40301e-05
3.40297e-05
3.39306e-05
5.12802e-05
3.46617e-05
5.45938e-05
7.66295e-05
8.09316e-05
3.3934e-05
5.12809e-05
3.46615e-05
5.45932e-05
3.39292e-05
3.39293e-05
3.39293e-05
3.25847e-05
3.25847e-05
3.25847e-05
3.25847e-05
3.30415e-05
3.24398e-05
3.3929e-05
3.34067e-05
3.38894e-05
3.15342e-05
3.34672e-05
7.6632e-05
8.09393e-05
3.304e-05
3.3929e-05
3.24414e-05
3.34069e-05
3.38878e-05
3.34671e-05
3.15319e-05
3.16544e-05
3.1657e-05
3.32597e-05
3.08432e-05
3.08437e-05
3.22169e-05
5.91448e-05
3.28997e-05
6.14446e-05
8.4405e-05
8.50735e-05
3.22219e-05
5.91443e-05
3.29015e-05
6.14451e-05
3.21569e-05
3.21569e-05
3.21569e-05
3.09266e-05
3.09267e-05
3.09267e-05
3.09267e-05
3.07729e-05
3.04862e-05
3.21361e-05
3.15497e-05
3.16246e-05
2.98614e-05
3.17084e-05
8.44117e-05
8.50788e-05
3.07709e-05
3.2136e-05
3.04825e-05
3.15497e-05
3.16227e-05
3.17082e-05
2.98581e-05
3.01658e-05
3.01625e-05
3.12646e-05
2.99491e-05
2.99419e-05
3.07236e-05
6.4341e-05
3.13227e-05
6.57371e-05
8.46044e-05
8.39143e-05
3.07363e-05
6.43425e-05
3.13275e-05
6.57413e-05
3.05329e-05
3.0533e-05
3.05329e-05
2.93955e-05
2.93956e-05
2.93957e-05
2.93955e-05
2.85831e-05
2.9118e-05
3.04668e-05
2.9794e-05
2.94014e-05
2.86584e-05
3.00658e-05
8.46081e-05
8.39122e-05
2.85827e-05
3.04667e-05
2.91231e-05
2.97942e-05
2.93996e-05
3.00656e-05
2.86554e-05
2.99146e-05
2.99041e-05
2.93364e-05
3.00217e-05
3.00116e-05
2.94901e-05
6.73075e-05
2.99789e-05
6.80363e-05
8.21913e-05
8.12253e-05
2.95074e-05
6.73127e-05
2.99823e-05
6.80437e-05
2.90303e-05
2.90304e-05
2.90302e-05
2.79723e-05
2.79724e-05
2.79725e-05
2.79723e-05
2.6548e-05
2.80997e-05
2.88989e-05
2.81439e-05
2.73066e-05
2.7769e-05
2.85216e-05
8.21887e-05
8.12258e-05
2.65505e-05
2.8899e-05
2.81111e-05
2.81443e-05
2.7308e-05
2.85217e-05
2.77677e-05
3.04531e-05
3.04436e-05
2.75194e-05
3.07834e-05
3.07773e-05
2.85745e-05
6.87281e-05
2.8924e-05
6.90247e-05
7.94189e-05
7.85423e-05
2.85932e-05
6.87365e-05
2.89312e-05
6.90335e-05
2.76319e-05
2.7632e-05
2.76317e-05
2.66444e-05
2.66446e-05
2.66447e-05
2.66444e-05
2.47234e-05
2.73788e-05
2.74238e-05
2.66034e-05
2.54057e-05
2.71733e-05
2.70691e-05
7.94161e-05
7.85432e-05
2.47243e-05
2.74241e-05
2.73826e-05
2.66038e-05
2.5407e-05
2.70693e-05
2.71744e-05
3.16157e-05
3.16171e-05
2.58371e-05
3.21261e-05
3.21238e-05
2.80284e-05
6.92353e-05
2.82233e-05
6.92912e-05
7.69959e-05
7.62988e-05
2.80455e-05
6.9246e-05
2.82261e-05
6.93025e-05
2.63265e-05
2.63266e-05
2.63263e-05
2.54035e-05
2.54036e-05
2.54038e-05
2.54034e-05
2.31427e-05
2.69704e-05
2.60385e-05
2.51736e-05
2.374e-05
2.68949e-05
2.57062e-05
7.6995e-05
7.63001e-05
2.31427e-05
2.60388e-05
2.69725e-05
2.5174e-05
2.3739e-05
2.57063e-05
2.68985e-05
3.32725e-05
3.32717e-05
2.43057e-05
3.39128e-05
3.39136e-05
2.78928e-05
6.92753e-05
2.79039e-05
6.92451e-05
7.50727e-05
7.45429e-05
2.78998e-05
6.92865e-05
2.79126e-05
6.92562e-05
2.51061e-05
2.51063e-05
2.5106e-05
2.42431e-05
2.42431e-05
2.42434e-05
2.42431e-05
2.18253e-05
2.69105e-05
2.47419e-05
2.38539e-05
2.23289e-05
2.69585e-05
2.44316e-05
7.50749e-05
7.4542e-05
2.18281e-05
2.47422e-05
2.69158e-05
2.38548e-05
2.23304e-05
2.44318e-05
2.69645e-05
3.52836e-05
3.52891e-05
2.29278e-05
3.60152e-05
3.60167e-05
2.81459e-05
6.91725e-05
2.80242e-05
6.91387e-05
7.36122e-05
7.32217e-05
2.81564e-05
6.91825e-05
2.80204e-05
6.91468e-05
2.39651e-05
2.39654e-05
2.39651e-05
2.31589e-05
2.31588e-05
2.31592e-05
2.31588e-05
2.07853e-05
2.71733e-05
2.3533e-05
2.2646e-05
2.11857e-05
2.73414e-05
2.3244e-05
7.36166e-05
7.32182e-05
2.07887e-05
2.35336e-05
2.71888e-05
2.26473e-05
2.11891e-05
2.32446e-05
2.7335e-05
3.75339e-05
3.75365e-05
2.17058e-05
3.83252e-05
3.83263e-05
2.88165e-05
6.90931e-05
2.85583e-05
6.90853e-05
7.25337e-05
7.22543e-05
2.88214e-05
6.90987e-05
2.85496e-05
6.90899e-05
2.28992e-05
2.28996e-05
2.28992e-05
2.21471e-05
2.21467e-05
2.21472e-05
2.21469e-05
2.00168e-05
2.77629e-05
2.24083e-05
2.15486e-05
2.03078e-05
2.80279e-05
2.21402e-05
7.25405e-05
7.22484e-05
2.00176e-05
2.24091e-05
2.77739e-05
2.155e-05
2.03104e-05
2.21409e-05
2.80245e-05
3.99212e-05
3.99234e-05
2.06353e-05
4.07303e-05
4.07335e-05
2.98998e-05
6.90856e-05
2.95035e-05
6.91036e-05
7.17579e-05
7.1562e-05
2.99013e-05
6.90892e-05
2.94949e-05
6.91059e-05
2.19047e-05
2.19052e-05
2.19049e-05
2.12042e-05
2.12038e-05
2.12043e-05
2.12039e-05
1.95099e-05
2.86358e-05
2.13676e-05
2.0559e-05
1.96939e-05
2.89917e-05
2.11205e-05
7.17641e-05
7.15568e-05
1.9511e-05
2.13683e-05
2.86488e-05
2.05601e-05
1.96917e-05
2.11211e-05
2.89865e-05
4.2344e-05
4.23486e-05
1.97083e-05
4.31465e-05
4.31502e-05
3.13853e-05
6.91376e-05
3.08571e-05
6.91808e-05
7.12098e-05
7.10768e-05
3.13878e-05
6.91447e-05
3.08428e-05
6.91806e-05
2.09786e-05
2.09791e-05
2.09787e-05
2.03262e-05
2.03258e-05
2.03263e-05
2.03259e-05
1.92667e-05
2.97599e-05
2.04101e-05
1.96738e-05
1.93387e-05
3.01956e-05
2.01833e-05
7.1216e-05
7.10706e-05
1.92644e-05
2.04107e-05
2.97782e-05
1.96746e-05
1.93364e-05
2.01838e-05
3.01895e-05
4.47214e-05
4.4727e-05
1.89169e-05
4.54866e-05
4.5495e-05
3.32469e-05
6.92369e-05
3.25952e-05
6.9289e-05
7.08271e-05
7.07384e-05
3.32473e-05
6.92443e-05
3.25854e-05
6.92896e-05
2.01158e-05
2.01162e-05
2.01158e-05
1.95095e-05
1.95093e-05
1.95096e-05
1.95092e-05
1.9284e-05
3.11059e-05
1.95329e-05
1.88912e-05
1.92532e-05
3.15903e-05
1.93257e-05
7.0833e-05
7.07311e-05
1.92817e-05
1.95332e-05
3.11171e-05
1.88917e-05
1.92507e-05
1.93259e-05
3.15896e-05
4.69796e-05
4.69866e-05
1.82553e-05
4.76941e-05
4.77021e-05
3.5429e-05
6.93521e-05
3.46769e-05
6.94041e-05
7.05581e-05
7.04994e-05
3.54293e-05
6.93598e-05
3.46662e-05
6.94056e-05
1.9315e-05
1.93152e-05
1.93149e-05
1.87546e-05
1.87545e-05
1.87546e-05
1.87543e-05
1.95505e-05
3.26144e-05
1.87328e-05
1.82076e-05
1.94318e-05
3.31406e-05
1.85445e-05
7.05635e-05
7.04914e-05
1.95524e-05
1.8733e-05
3.26221e-05
1.82079e-05
1.94289e-05
1.85446e-05
3.31402e-05
4.90686e-05
4.90763e-05
1.77252e-05
4.97179e-05
4.97265e-05
3.78582e-05
6.94643e-05
3.70355e-05
6.95125e-05
7.03631e-05
7.03225e-05
3.7861e-05
6.94726e-05
3.70264e-05
6.9515e-05
1.85752e-05
1.85753e-05
1.8575e-05
1.80587e-05
1.80586e-05
1.80587e-05
1.80584e-05
2.00704e-05
3.42309e-05
1.80073e-05
1.76199e-05
1.98706e-05
3.47892e-05
1.78373e-05
7.03684e-05
7.03157e-05
2.00695e-05
1.80073e-05
3.42429e-05
1.76201e-05
1.98682e-05
1.78372e-05
3.47876e-05
5.09558e-05
5.09643e-05
1.73315e-05
5.15363e-05
5.15459e-05
4.04359e-05
6.95668e-05
3.95688e-05
6.96103e-05
7.02161e-05
7.01811e-05
4.04465e-05
6.95755e-05
3.95652e-05
6.96138e-05
1.78938e-05
1.78938e-05
1.78936e-05
1.74194e-05
1.74194e-05
1.74194e-05
1.74192e-05
2.08423e-05
3.59132e-05
1.7354e-05
1.7127e-05
2.05567e-05
3.6485e-05
1.72018e-05
7.02182e-05
7.01782e-05
2.08384e-05
1.73539e-05
3.59261e-05
1.71271e-05
2.05554e-05
1.72016e-05
3.64801e-05
5.26326e-05
5.26424e-05
1.70702e-05
5.31438e-05
5.31528e-05
4.30538e-05
6.96596e-05
4.21691e-05
6.96995e-05
7.0095e-05
7.00637e-05
4.30713e-05
6.96686e-05
4.21546e-05
6.97033e-05
1.72684e-05
1.72684e-05
1.72682e-05
1.68347e-05
1.68347e-05
1.68346e-05
1.68345e-05
2.18452e-05
3.76201e-05
1.67721e-05
1.67279e-05
2.14831e-05
3.81834e-05
1.66374e-05
7.00948e-05
7.00622e-05
2.18439e-05
1.6772e-05
3.76254e-05
1.6728e-05
2.14798e-05
1.66372e-05
3.81773e-05
5.41036e-05
5.41139e-05
1.6939e-05
5.45495e-05
5.45592e-05
4.55932e-05
6.9745e-05
4.472e-05
6.97824e-05
6.99882e-05
6.99597e-05
4.56092e-05
6.97542e-05
4.47102e-05
6.97868e-05
1.6697e-05
1.66969e-05
1.66968e-05
1.63028e-05
1.63028e-05
1.63028e-05
1.63026e-05
2.3061e-05
3.92956e-05
1.62593e-05
1.6422e-05
2.26324e-05
3.98395e-05
1.61416e-05
6.99874e-05
6.99588e-05
2.30616e-05
1.62591e-05
3.93012e-05
1.64221e-05
2.26303e-05
1.61414e-05
3.98396e-05
5.53856e-05
5.53959e-05
1.69449e-05
5.57726e-05
5.57829e-05
4.79555e-05
6.98249e-05
4.71358e-05
6.98604e-05
6.98907e-05
6.98647e-05
4.79704e-05
6.98347e-05
4.71296e-05
6.98653e-05
1.61782e-05
1.61782e-05
1.6178e-05
1.5822e-05
1.5822e-05
1.5822e-05
1.58218e-05
2.44638e-05
4.09079e-05
1.58143e-05
1.62092e-05
2.398e-05
4.14286e-05
1.57134e-05
6.98897e-05
6.98636e-05
2.44635e-05
1.5814e-05
4.09193e-05
1.62094e-05
2.39748e-05
1.57131e-05
4.14281e-05
5.64988e-05
5.65099e-05
1.7075e-05
5.68346e-05
5.68446e-05
5.00782e-05
6.99006e-05
4.93389e-05
6.99339e-05
6.98003e-05
6.97763e-05
5.0092e-05
6.99104e-05
4.93348e-05
6.99392e-05
1.57097e-05
1.57096e-05
1.57095e-05
1.53902e-05
1.53901e-05
1.53901e-05
1.539e-05
2.601e-05
4.24405e-05
1.54366e-05
1.60897e-05
2.54821e-05
4.29283e-05
1.53524e-05
6.9799e-05
6.97751e-05
2.60102e-05
1.54363e-05
4.24496e-05
1.609e-05
2.54791e-05
1.53521e-05
4.29293e-05
5.74666e-05
5.74779e-05
1.73349e-05
5.77592e-05
5.77695e-05
5.19295e-05
6.99713e-05
5.12826e-05
7.00029e-05
6.97155e-05
6.96933e-05
6.99811e-05
5.12801e-05
7.00079e-05
1.52898e-05
1.52898e-05
1.52897e-05
2.76494e-05
4.38773e-05
1.5126e-05
1.60653e-05
2.70982e-05
4.43237e-05
1.50584e-05
6.97144e-05
2.76545e-05
1.51258e-05
4.38803e-05
2.70998e-05
1.50582e-05
5.83118e-05
5.83232e-05
1.77251e-05
5.85673e-05
5.85787e-05
3.73742e-05
3.72966e-05
3.72964e-05
5.31267e-05
3.71922e-05
5.31172e-05
3.71925e-05
3.70929e-05
3.72349e-05
3.72298e-05
3.71759e-05
3.71766e-05
3.73703e-05
3.73777e-05
3.73044e-05
3.73768e-05
3.73702e-05
3.73777e-05
3.73041e-05
3.73768e-05
3.71728e-05
3.92074e-05
3.71623e-05
3.67322e-05
3.7173e-05
3.91982e-05
3.71624e-05
3.67359e-05
3.70957e-05
3.71021e-05
3.59912e-05
3.64209e-05
3.71663e-05
3.71108e-05
3.63047e-05
3.70957e-05
3.71021e-05
3.59886e-05
3.64209e-05
3.71668e-05
3.71108e-05
3.63051e-05
3.73742e-05
3.72964e-05
3.72967e-05
5.31159e-05
3.71927e-05
3.70929e-05
3.72197e-05
3.72044e-05
3.71761e-05
3.71756e-05
5.31058e-05
3.71924e-05
3.73703e-05
3.73777e-05
3.7305e-05
3.73769e-05
3.73703e-05
3.73777e-05
3.73768e-05
3.73044e-05
3.71729e-05
3.92708e-05
3.71545e-05
3.67324e-05
3.70956e-05
3.71021e-05
3.59949e-05
3.64209e-05
3.71645e-05
3.71108e-05
3.63048e-05
3.7173e-05
3.9201e-05
3.71624e-05
3.67322e-05
3.70957e-05
3.71021e-05
3.64209e-05
3.59898e-05
3.71108e-05
3.71663e-05
3.63047e-05
3.73774e-05
3.73766e-05
3.7377e-05
3.7377e-05
3.73774e-05
3.73766e-05
3.7377e-05
3.7377e-05
3.73774e-05
3.73766e-05
3.7377e-05
3.7377e-05
3.71133e-05
3.71098e-05
3.64241e-05
3.64241e-05
3.71125e-05
3.71125e-05
3.64261e-05
3.71133e-05
3.71098e-05
3.64241e-05
3.64241e-05
3.71125e-05
3.71125e-05
3.64261e-05
3.71133e-05
3.71098e-05
3.64241e-05
3.64241e-05
3.71125e-05
3.71125e-05
3.64261e-05
3.71133e-05
3.71098e-05
3.64241e-05
3.64241e-05
3.71125e-05
3.71125e-05
3.64261e-05
3.73703e-05
3.73777e-05
3.73768e-05
3.73044e-05
3.70957e-05
3.71021e-05
3.59856e-05
3.64209e-05
3.71657e-05
3.71108e-05
3.63053e-05
3.71728e-05
3.91994e-05
3.71617e-05
3.67352e-05
3.70956e-05
3.71021e-05
3.64209e-05
3.59946e-05
3.71108e-05
3.71661e-05
3.63052e-05
3.71729e-05
3.92068e-05
3.71622e-05
3.67338e-05
3.73741e-05
3.72963e-05
3.72968e-05
5.31285e-05
3.71925e-05
3.70929e-05
3.72445e-05
3.72319e-05
3.71767e-05
3.71757e-05
5.31214e-05
3.71927e-05
3.73703e-05
3.73777e-05
3.73769e-05
3.73044e-05
3.70956e-05
3.71021e-05
3.64209e-05
3.59929e-05
3.71108e-05
3.71645e-05
3.63051e-05
3.70957e-05
3.71021e-05
3.64209e-05
3.59934e-05
3.71108e-05
3.71662e-05
3.63053e-05
3.71729e-05
3.92755e-05
3.71545e-05
3.67336e-05
3.7173e-05
3.92075e-05
3.71621e-05
3.67356e-05
3.70929e-05
3.72425e-05
3.72288e-05
3.71764e-05
3.71753e-05
5.31297e-05
3.71927e-05
5.31326e-05
3.71925e-05
5.51158e-05
6.50441e-05
5.51311e-05
6.50496e-05
3.65918e-05
3.6595e-05
3.52784e-05
3.40274e-05
3.40346e-05
7.48486e-05
6.78035e-05
7.48609e-05
6.78111e-05
3.49721e-05
3.19481e-05
3.19746e-05
3.34418e-05
3.34513e-05
3.58667e-05
4.06601e-05
3.65922e-05
4.50282e-05
3.52703e-05
3.56016e-05
3.58931e-05
3.53766e-05
3.60485e-05
3.4181e-05
3.53821e-05
3.52723e-05
3.55971e-05
3.58931e-05
3.53766e-05
3.6049e-05
3.41763e-05
3.53821e-05
3.56234e-05
5.01489e-05
4.63478e-05
3.48691e-05
3.56327e-05
5.01452e-05
4.63411e-05
3.48817e-05
3.49949e-05
3.48715e-05
3.26783e-05
3.44014e-05
3.38229e-05
3.48854e-05
3.41701e-05
3.49973e-05
3.48714e-05
3.2675e-05
3.44015e-05
3.38167e-05
3.48855e-05
3.41741e-05
3.65802e-05
3.65678e-05
3.52782e-05
3.40159e-05
3.39991e-05
5.51029e-05
6.50364e-05
7.48448e-05
6.7774e-05
3.49719e-05
3.19547e-05
3.195e-05
3.34284e-05
3.34202e-05
7.48572e-05
6.77979e-05
3.527e-05
3.56034e-05
3.58931e-05
3.53766e-05
3.60484e-05
3.41814e-05
3.53821e-05
3.58582e-05
4.06619e-05
3.65868e-05
4.50334e-05
3.527e-05
3.58931e-05
3.56001e-05
3.53766e-05
3.60483e-05
3.53821e-05
3.41782e-05
3.56218e-05
5.01503e-05
4.63463e-05
3.48693e-05
3.49944e-05
3.48715e-05
3.26809e-05
3.44014e-05
3.38227e-05
3.48854e-05
3.41699e-05
3.56231e-05
5.01479e-05
4.63443e-05
3.48726e-05
3.49947e-05
3.48715e-05
3.44014e-05
3.26778e-05
3.48854e-05
3.38203e-05
3.41707e-05
3.58621e-05
4.06674e-05
3.65917e-05
4.50411e-05
3.52711e-05
3.58931e-05
3.56043e-05
3.53767e-05
3.60484e-05
3.53821e-05
3.41799e-05
3.58617e-05
4.06674e-05
3.65893e-05
4.50384e-05
3.49958e-05
3.48715e-05
3.26847e-05
3.44014e-05
3.38232e-05
3.48854e-05
3.41716e-05
3.56267e-05
5.01531e-05
4.63501e-05
3.48731e-05
3.49961e-05
3.48716e-05
3.44015e-05
3.26785e-05
3.48854e-05
3.38185e-05
3.41735e-05
3.56275e-05
5.01527e-05
4.63518e-05
3.48793e-05
3.6601e-05
3.65927e-05
3.52786e-05
3.40224e-05
3.40217e-05
5.5128e-05
6.50496e-05
7.48507e-05
6.77846e-05
3.49724e-05
3.19624e-05
3.19528e-05
3.34397e-05
3.34388e-05
7.48465e-05
6.78127e-05
3.52708e-05
3.58931e-05
3.56022e-05
3.53766e-05
3.60489e-05
3.53821e-05
3.4177e-05
3.58638e-05
4.06514e-05
3.65901e-05
4.50412e-05
3.58609e-05
4.06706e-05
3.659e-05
4.50381e-05
3.49958e-05
3.48717e-05
3.44014e-05
3.26918e-05
3.48855e-05
3.38303e-05
3.41705e-05
3.49952e-05
3.48715e-05
3.44014e-05
3.26748e-05
3.48854e-05
3.38156e-05
3.4171e-05
3.56254e-05
5.01519e-05
4.63532e-05
3.48708e-05
3.56238e-05
5.01538e-05
4.63512e-05
3.48727e-05
5.51207e-05
6.50537e-05
5.51219e-05
6.50634e-05
3.49722e-05
3.19587e-05
3.19602e-05
3.344e-05
3.34406e-05
7.48606e-05
6.78162e-05
7.48703e-05
6.78267e-05
7.66302e-05
8.09329e-05
7.66419e-05
8.09425e-05
3.16488e-05
3.16699e-05
3.32591e-05
3.08319e-05
3.0854e-05
8.40387e-05
8.1891e-05
8.40446e-05
8.18996e-05
3.29493e-05
3.0236e-05
3.0251e-05
3.06805e-05
3.06971e-05
3.39445e-05
5.12767e-05
3.46741e-05
5.45922e-05
3.30399e-05
3.2432e-05
3.3929e-05
3.34065e-05
3.38879e-05
3.15259e-05
3.34671e-05
3.30452e-05
3.24269e-05
3.39291e-05
3.34064e-05
3.38922e-05
3.15231e-05
3.34673e-05
3.37567e-05
5.83597e-05
5.55539e-05
3.30463e-05
3.37707e-05
5.83596e-05
5.55522e-05
3.30602e-05
3.27576e-05
3.29325e-05
3.061e-05
3.25713e-05
3.13525e-05
3.30148e-05
3.19016e-05
3.27631e-05
3.29324e-05
3.06068e-05
3.25717e-05
3.13483e-05
3.30151e-05
3.19075e-05
3.16491e-05
3.16568e-05
3.32592e-05
3.0837e-05
3.08421e-05
7.66371e-05
8.09418e-05
8.40373e-05
8.18913e-05
3.29494e-05
3.02366e-05
3.02443e-05
3.06804e-05
3.0695e-05
8.40447e-05
8.18984e-05
3.30403e-05
3.24333e-05
3.3929e-05
3.34065e-05
3.38874e-05
3.15271e-05
3.34671e-05
3.39388e-05
5.12786e-05
3.46635e-05
5.45949e-05
3.3042e-05
3.3929e-05
3.24314e-05
3.34067e-05
3.38882e-05
3.34671e-05
3.1525e-05
3.3757e-05
5.83585e-05
5.55536e-05
3.30512e-05
3.27577e-05
3.29325e-05
3.06093e-05
3.25713e-05
3.13522e-05
3.30148e-05
3.19027e-05
3.37624e-05
5.83628e-05
5.55535e-05
3.30576e-05
3.27599e-05
3.29327e-05
3.25715e-05
3.06088e-05
3.30149e-05
3.13521e-05
3.19054e-05
3.39347e-05
5.12829e-05
3.46654e-05
5.45993e-05
3.30449e-05
3.39291e-05
3.24301e-05
3.34068e-05
3.38917e-05
3.34673e-05
3.15249e-05
3.39431e-05
5.12848e-05
3.46723e-05
5.45988e-05
3.27591e-05
3.29328e-05
3.0618e-05
3.25715e-05
3.13612e-05
3.3015e-05
3.19031e-05
3.37595e-05
5.83665e-05
5.55571e-05
3.30501e-05
3.27626e-05
3.29328e-05
3.25717e-05
3.06071e-05
3.30152e-05
3.135e-05
3.19068e-05
3.37687e-05
5.83662e-05
5.5559e-05
3.30586e-05
3.16616e-05
3.16352e-05
3.32597e-05
3.08384e-05
3.08014e-05
7.66289e-05
8.09281e-05
8.40453e-05
8.18965e-05
3.295e-05
3.02387e-05
3.02036e-05
3.06886e-05
3.06464e-05
8.40362e-05
8.18883e-05
3.30407e-05
3.3929e-05
3.24262e-05
3.34065e-05
3.38883e-05
3.34671e-05
3.15207e-05
3.39326e-05
5.12824e-05
3.46613e-05
5.45961e-05
3.39344e-05
5.12839e-05
3.46626e-05
5.4598e-05
3.27572e-05
3.29329e-05
3.25714e-05
3.06133e-05
3.30149e-05
3.13564e-05
3.19015e-05
3.27578e-05
3.29325e-05
3.25714e-05
3.06027e-05
3.30149e-05
3.13459e-05
3.19021e-05
3.37544e-05
5.83624e-05
5.55553e-05
3.30488e-05
3.37569e-05
5.83648e-05
5.55574e-05
3.30503e-05
7.66436e-05
8.09422e-05
7.66514e-05
8.09453e-05
3.295e-05
3.02384e-05
3.02371e-05
3.06858e-05
3.06867e-05
8.40452e-05
8.19014e-05
8.40445e-05
8.1904e-05
8.44064e-05
8.50749e-05
8.44109e-05
8.50779e-05
3.01689e-05
3.01799e-05
3.12641e-05
2.99509e-05
2.99628e-05
8.4829e-05
8.50738e-05
8.48351e-05
8.50761e-05
3.09516e-05
2.98986e-05
2.99104e-05
2.9933e-05
2.99436e-05
3.22294e-05
5.9144e-05
3.29136e-05
6.14456e-05
3.07706e-05
3.04784e-05
3.2136e-05
3.15492e-05
3.1623e-05
2.98543e-05
3.17082e-05
3.07764e-05
3.04755e-05
3.21364e-05
3.15492e-05
3.1629e-05
2.98508e-05
3.17087e-05
3.20858e-05
6.3882e-05
6.206e-05
3.14412e-05
3.20983e-05
6.38846e-05
6.20596e-05
3.14518e-05
3.04987e-05
3.11008e-05
2.92087e-05
3.08737e-05
2.97414e-05
3.12876e-05
2.96593e-05
3.05042e-05
3.11008e-05
2.92056e-05
3.08743e-05
2.97427e-05
3.12881e-05
2.96641e-05
3.01665e-05
3.01789e-05
3.12644e-05
2.99549e-05
2.9959e-05
8.44105e-05
8.50779e-05
8.48307e-05
8.5072e-05
3.09519e-05
2.99074e-05
2.99083e-05
2.99363e-05
2.99419e-05
8.48356e-05
8.50766e-05
3.07723e-05
3.04778e-05
3.2136e-05
3.15492e-05
3.16237e-05
2.98528e-05
3.17082e-05
3.22272e-05
5.91459e-05
3.29083e-05
6.14484e-05
3.07749e-05
3.21362e-05
3.04771e-05
3.15495e-05
3.16267e-05
3.17085e-05
2.98535e-05
3.20908e-05
6.38841e-05
6.20597e-05
3.14509e-05
3.05006e-05
3.11008e-05
2.92072e-05
3.08738e-05
2.97443e-05
3.12876e-05
2.96628e-05
3.20956e-05
6.38858e-05
6.20611e-05
3.14505e-05
3.05028e-05
3.11011e-05
3.08741e-05
2.92091e-05
3.1288e-05
2.97406e-05
2.96634e-05
3.2222e-05
5.91491e-05
3.29031e-05
6.14519e-05
3.07761e-05
3.21364e-05
3.04752e-05
3.15496e-05
3.16283e-05
3.17087e-05
2.98499e-05
3.22288e-05
5.91503e-05
3.29117e-05
6.14512e-05
3.05014e-05
3.11013e-05
2.92171e-05
3.0874e-05
2.97488e-05
3.12878e-05
2.9663e-05
3.20914e-05
6.38894e-05
6.20642e-05
3.14501e-05
3.05045e-05
3.11011e-05
3.08743e-05
2.92036e-05
3.12881e-05
2.97408e-05
2.96656e-05
3.20983e-05
6.3889e-05
6.2065e-05
3.14538e-05
3.01723e-05
3.01381e-05
3.12649e-05
2.99545e-05
2.9936e-05
8.44054e-05
8.50751e-05
8.48312e-05
8.50772e-05
3.09525e-05
2.99041e-05
2.98951e-05
2.99371e-05
2.99184e-05
8.48436e-05
8.50734e-05
3.07711e-05
3.2136e-05
3.04709e-05
3.15492e-05
3.16231e-05
3.17082e-05
2.98441e-05
3.22194e-05
5.91469e-05
3.28985e-05
6.14493e-05
3.22195e-05
5.91484e-05
3.29003e-05
6.14487e-05
3.04994e-05
3.11014e-05
3.08739e-05
2.92142e-05
3.12877e-05
2.975e-05
2.96616e-05
3.0499e-05
3.11007e-05
3.08737e-05
2.91977e-05
3.12876e-05
2.9736e-05
2.96605e-05
3.20883e-05
6.38886e-05
6.20631e-05
3.14483e-05
3.20878e-05
6.38852e-05
6.20626e-05
3.1446e-05
8.44125e-05
8.50782e-05
8.44115e-05
8.50758e-05
3.0952e-05
2.98985e-05
2.98888e-05
2.993e-05
2.99228e-05
8.48332e-05
8.50764e-05
8.48309e-05
8.5074e-05
8.46057e-05
8.39126e-05
8.46043e-05
8.39158e-05
2.99167e-05
2.99255e-05
2.93361e-05
3.00166e-05
3.00338e-05
8.26239e-05
8.35255e-05
8.26272e-05
8.35255e-05
2.90281e-05
3.03161e-05
3.03294e-05
3.00997e-05
3.01052e-05
3.07321e-05
6.43419e-05
3.13316e-05
6.57408e-05
2.85787e-05
2.91114e-05
3.04664e-05
2.97931e-05
2.93973e-05
2.86509e-05
3.00653e-05
2.85826e-05
2.91161e-05
3.04669e-05
2.97932e-05
2.94019e-05
2.86478e-05
3.00659e-05
3.06176e-05
6.7092e-05
6.60618e-05
3.00702e-05
3.06236e-05
6.7097e-05
6.60643e-05
3.00774e-05
2.83291e-05
2.93703e-05
2.81696e-05
2.92814e-05
2.85644e-05
2.96704e-05
2.75383e-05
2.83326e-05
2.93705e-05
2.8166e-05
2.92818e-05
2.85728e-05
2.96709e-05
2.75412e-05
2.99244e-05
2.9927e-05
2.9337e-05
3.00356e-05
3.00298e-05
8.46044e-05
8.39158e-05
8.26258e-05
8.35265e-05
2.90289e-05
3.03353e-05
3.03302e-05
3.01097e-05
3.01122e-05
8.26282e-05
8.35253e-05
2.85835e-05
2.91173e-05
3.04666e-05
2.97934e-05
2.94004e-05
2.86489e-05
3.00656e-05
3.0733e-05
6.43414e-05
3.1329e-05
6.57401e-05
2.85822e-05
3.04668e-05
2.91109e-05
2.97935e-05
2.9401e-05
3.00658e-05
2.86518e-05
3.06239e-05
6.70982e-05
6.60645e-05
3.00872e-05
2.83337e-05
2.93708e-05
2.8166e-05
2.92818e-05
2.85742e-05
2.96708e-05
2.75442e-05
3.062e-05
6.70947e-05
6.6062e-05
3.00796e-05
2.8332e-05
2.93708e-05
2.92818e-05
2.81693e-05
2.96708e-05
2.85644e-05
2.75414e-05
3.07327e-05
6.43446e-05
3.13277e-05
6.57441e-05
2.85851e-05
3.04671e-05
2.91139e-05
2.97936e-05
2.94036e-05
3.00661e-05
2.86441e-05
3.07355e-05
6.43459e-05
3.13343e-05
6.57438e-05
2.83333e-05
2.93714e-05
2.81771e-05
2.9282e-05
2.85721e-05
2.96709e-05
2.75425e-05
3.06218e-05
6.7099e-05
6.60655e-05
3.00812e-05
2.83351e-05
2.93709e-05
2.92822e-05
2.81622e-05
2.96711e-05
2.85704e-05
2.75434e-05
3.06279e-05
6.70988e-05
6.6067e-05
3.00798e-05
2.99225e-05
2.99131e-05
2.93375e-05
3.00226e-05
3.00256e-05
8.45977e-05
8.39148e-05
8.26267e-05
8.35266e-05
2.90296e-05
3.03205e-05
3.03273e-05
3.01072e-05
3.01022e-05
8.26254e-05
8.35265e-05
2.85806e-05
3.04664e-05
2.91072e-05
2.9793e-05
2.9398e-05
3.00653e-05
2.86401e-05
3.07339e-05
6.43455e-05
3.13258e-05
6.57443e-05
3.07294e-05
6.43421e-05
3.13235e-05
6.57397e-05
2.8333e-05
2.93717e-05
2.92819e-05
2.8173e-05
2.96708e-05
2.85803e-05
2.75438e-05
2.83308e-05
2.93703e-05
2.92814e-05
2.81571e-05
2.96704e-05
2.8563e-05
2.75418e-05
3.06223e-05
6.70995e-05
6.60672e-05
3.00838e-05
3.06213e-05
6.70956e-05
6.60628e-05
3.00776e-05
8.46056e-05
8.39153e-05
8.46026e-05
8.39126e-05
2.90284e-05
3.03215e-05
3.03128e-05
3.00987e-05
3.00876e-05
8.26254e-05
8.35269e-05
8.26228e-05
8.35245e-05
8.21892e-05
8.12234e-05
8.21895e-05
8.12259e-05
3.0455e-05
3.04578e-05
2.75189e-05
3.0778e-05
3.07892e-05
7.98402e-05
8.07838e-05
7.98417e-05
8.07829e-05
2.72244e-05
3.13838e-05
3.13943e-05
3.09684e-05
3.09679e-05
2.94944e-05
6.73111e-05
2.99824e-05
6.80412e-05
2.65443e-05
2.80954e-05
2.88982e-05
2.81424e-05
2.73028e-05
2.77612e-05
2.85209e-05
2.65466e-05
2.81032e-05
2.88987e-05
2.81428e-05
2.73055e-05
2.77575e-05
2.85213e-05
2.94098e-05
6.86548e-05
6.81679e-05
2.89891e-05
2.9415e-05
6.86599e-05
6.81724e-05
2.89927e-05
2.63249e-05
2.77469e-05
2.74181e-05
2.77833e-05
2.76993e-05
2.81492e-05