/*--------------------------------*- C++ -*----------------------------------*\
| =========                 |                                                 |
| \\      /  F ield         | OpenFOAM: The Open Source CFD Toolbox           |
|  \\    /   O peration     | Version:  v1906                                 |
|   \\  /    A nd           | Web:      www.OpenFOAM.com                      |
|    \\/     M anipulation  |                                                 |
\*---------------------------------------------------------------------------*/
FoamFile
{
    version     2.0;
    format      ascii;
    class       volScalarField;
    location    "900";
    object      nut;
}
// * * * * * * * * * * * * * * * * * * * * * * * * * * * * * * * * * * * * * //

dimensions      [0 2 -1 0 0 0 0];


internalField   nonuniform List<scalar> 
42616
(
0.000233972
0.000233081
0.000233086
0.000233399
0.000232522
0.000227706
0.000227723
0.000223713
0.00023049
0.000220184
0.000220192
0.000208929
0.000227756
0.000211512
0.000211516
0.000193653
0.000224376
0.000202499
0.000202503
0.000179603
0.000220485
0.000193633
0.000193635
0.00016727
0.000216231
0.000185152
0.000185152
0.000156525
0.000211745
0.000177126
0.000177124
0.00014716
0.000207132
0.000169596
0.000169591
0.000139032
0.000202473
0.000162533
0.000162523
0.000131713
0.000197821
0.000155878
0.000155867
0.000125117
0.00019321
0.000149577
0.000149566
0.000119003
0.000188622
0.000143589
0.000143581
0.000113242
0.000184091
0.000137863
0.000137858
0.000107916
0.000179647
0.000132361
0.000132355
0.000102995
0.000175278
0.000127072
0.000127064
9.83411e-05
0.000170973
0.000122013
0.000122003
9.41318e-05
0.000166718
0.00011722
0.000117204
9.05181e-05
0.000162514
0.00011271
0.000112698
8.75893e-05
0.000158336
0.000108552
0.00010854
8.5281e-05
0.000154177
0.000104791
0.00010478
8.35599e-05
0.000234261
0.000234459
0.000234459
0.000234262
0.00023446
0.000234458
0.000234275
0.000234275
0.000234275
0.000234275
0.000234458
0.000234461
0.000234259
0.000234457
0.000234462
0.000234265
0.0002334
0.000226058
0.000233081
0.000233077
0.00022928
0.000229269
0.000233398
0.00022605
0.00023308
0.00023308
0.000229278
0.00022928
0.000233084
0.000229281
0.000229282
0.000233405
0.000226097
0.000233079
0.000229297
0.000229272
0.000226073
0.000223695
0.000212039
0.000227701
0.000227691
0.0002222
0.000222193
0.000223687
0.000212046
0.000227699
0.000227703
0.000222198
0.000222203
0.000227704
0.00022221
0.000222207
0.000223735
0.000212067
0.000227693
0.00022222
0.000222192
0.000212061
0.000208906
0.000196895
0.000220171
0.000220166
0.000213721
0.000213718
0.000208912
0.000196909
0.000220169
0.000220175
0.000213721
0.000213722
0.000220178
0.000213737
0.000213729
0.000208932
0.000196906
0.000220166
0.000213742
0.00021372
0.00019691
0.000193617
0.000182769
0.000211493
0.000211491
0.000204727
0.000204727
0.00019363
0.000182752
0.000211494
0.000211493
0.000204735
0.000204727
0.0002115
0.000204751
0.000204736
0.000193646
0.000182753
0.000211494
0.000204755
0.000204732
0.000182779
0.000179587
0.000170216
0.000202472
0.000202472
0.000195787
0.000195789
0.000179654
0.00017018
0.000202483
0.000202472
0.000195804
0.000195788
0.000202481
0.000195818
0.000195795
0.000179638
0.00017018
0.000202479
0.000195821
0.000195799
0.000170218
0.000167261
0.000159241
0.0001936
0.000193602
0.000187195
0.000187197
0.000167332
0.000159179
0.000193619
0.000193601
0.000187218
0.000187197
0.000193608
0.00018723
0.0001872
0.000167325
0.000159185
0.000193613
0.000187231
0.000187211
0.000159239
0.000156535
0.00014965
0.000185115
0.000185117
0.000179049
0.00017905
0.000156631
0.000149573
0.000185139
0.000185117
0.000179074
0.00017905
0.000185119
0.000179086
0.000179049
0.000156631
0.000149619
0.000185131
0.000179084
0.000179066
0.000149651
0.000147189
0.000141111
0.000177089
0.00017709
0.000171395
0.000171394
0.000147285
0.000141154
0.000177115
0.000177089
0.000171422
0.000171393
0.000177089
0.000171432
0.000171391
0.000147239
0.000141084
0.000177107
0.000171428
0.000171413
0.000141095
0.000139058
0.000133665
0.000169559
0.000169557
0.000164219
0.000164215
0.000138998
0.000133652
0.000169586
0.000169556
0.000164247
0.000164214
0.000169555
0.000164258
0.000164214
0.000139092
0.000133558
0.000169578
0.00016425
0.000164238
0.000133572
0.000131629
0.000126749
0.000162494
0.00016249
0.000157466
0.000157459
0.000131682
0.000126745
0.000162522
0.000162488
0.000157495
0.000157459
0.000162488
0.000157506
0.000157462
0.000131764
0.000126816
0.000162513
0.000157495
0.000157487
0.000126739
0.000125122
0.000120447
0.000155839
0.000155832
0.000151082
0.000151076
0.000125151
0.000120453
0.000155868
0.000155831
0.000151112
0.000151075
0.000155834
0.000151122
0.000151077
0.000125008
0.000120547
0.000155859
0.000151111
0.000151105
0.000120437
0.000118998
0.000114457
0.000149539
0.000149532
0.000145021
0.000145016
0.00011901
0.000114457
0.000149568
0.00014953
0.000145051
0.000145011
0.000149533
0.000145058
0.000145015
0.000118926
0.000114506
0.000149561
0.000145049
0.000145045
0.000114439
0.000113209
0.000108831
0.000143555
0.000143547
0.000139237
0.000139233
0.000113248
0.000108825
0.000143583
0.000143543
0.000139268
0.000139227
0.000143547
0.000139272
0.000139231
0.000113151
0.000108823
0.000143577
0.000139266
0.000139263
0.00010881
0.000107931
0.000103647
0.000137831
0.000137824
0.000133684
0.00013368
0.000107927
0.00010365
0.00013786
0.000137818
0.000133717
0.000133673
0.000137823
0.000133719
0.000133679
0.000107917
0.000103634
0.000137855
0.000133714
0.000133711
0.000103631
0.000103003
9.90328e-05
0.000132328
0.000132321
0.000128339
0.000128335
0.000103005
9.90432e-05
0.000132358
0.000132314
0.000128371
0.000128327
0.000132322
0.000128376
0.000128337
0.000102991
9.90389e-05
0.000132354
0.00012837
0.000128369
9.90173e-05
9.8344e-05
9.48249e-05
0.000127035
0.000127029
0.000123221
0.000123216
9.8335e-05
9.48742e-05
0.000127066
0.000127022
0.000123253
0.000123209
0.000127034
0.000123262
0.000123223
9.8317e-05
9.48599e-05
0.000127064
0.000123252
0.000123254
9.4805e-05
9.41284e-05
9.12024e-05
0.000121975
0.000121968
0.000118325
0.000118325
9.40832e-05
9.13534e-05
0.000122003
0.000121961
0.000118359
0.000118316
0.000121976
0.000118369
0.000118328
9.40727e-05
9.1313e-05
0.000122005
0.000118359
0.000118361
9.11705e-05
9.05077e-05
8.81621e-05
0.000117182
0.000117169
0.000113752
0.000113746
9.04118e-05
8.82606e-05
0.000117201
0.000117164
0.000113782
0.000113741
0.000117183
0.000113793
0.000113757
9.04382e-05
8.82205e-05
0.000117209
0.000113781
0.000113784
8.8087e-05
8.75582e-05
8.56092e-05
0.000112673
0.000112662
0.000109495
0.00010949
8.74696e-05
8.57727e-05
0.000112692
0.000112655
0.000109526
0.000109485
0.000112674
0.000109536
0.000109501
8.75343e-05
8.5681e-05
0.0001127
0.000109525
0.000109528
8.55875e-05
8.52358e-05
8.37349e-05
0.000108517
0.000108504
0.000105626
0.000105618
8.51496e-05
8.39897e-05
0.00010853
0.000108498
0.000105656
0.000105615
0.000108516
0.000105665
0.000105632
8.51972e-05
8.3837e-05
0.000108542
0.000105655
0.000105658
8.37618e-05
8.35243e-05
0.000104764
0.000104745
8.32972e-05
0.00010477
0.000104739
0.000104758
8.34382e-05
0.000104785
0.00023473
0.000234746
0.000234729
0.000234729
0.0002351
0.000234799
0.000234739
0.000234726
0.000235102
0.000234799
0.000234727
0.000234834
0.000234872
0.000233756
0.000233656
0.000104579
3.85151e-05
0.000128167
3.97732e-05
2.14789e-05
2.28584e-05
0.000104534
3.84845e-05
0.000128129
3.97747e-05
0.000233972
0.000233972
0.000233972
0.000232928
0.000232928
0.000232929
0.000232928
0.000206036
9.29748e-05
0.000233967
0.000231958
0.000222364
8.63785e-05
0.000233606
2.14766e-05
2.2862e-05
0.000206035
0.000233967
9.30616e-05
0.000231966
0.000222354
0.000233607
8.65993e-05
4.72672e-05
4.74544e-05
0.000231284
4.36594e-05
4.36721e-05
7.25697e-05
4.24037e-05
8.12804e-05
4.37512e-05
2.47882e-05
2.54745e-05
7.25591e-05
4.2401e-05
8.12639e-05
4.37471e-05
0.000232522
0.000232523
0.000232522
0.000231063
0.000231064
0.000231065
0.000231063
0.000167251
7.8926e-05
0.000232055
0.000225989
0.000179946
7.40599e-05
0.000231343
2.47864e-05
2.54733e-05
0.000167233
0.000232055
7.89994e-05
0.000226004
0.000179924
0.000231342
7.4008e-05
3.90743e-05
3.90778e-05
0.000219431
3.65309e-05
3.6522e-05
5.63324e-05
4.55369e-05
6.11972e-05
4.64141e-05
2.60153e-05
2.61182e-05
5.63267e-05
4.55332e-05
6.12e-05
4.641e-05
0.000230491
0.000230492
0.000230491
0.000228504
0.000228506
0.000228507
0.000228505
0.000138489
6.70227e-05
0.000228587
0.000218086
0.000147978
6.31985e-05
0.000227474
2.60137e-05
2.61165e-05
0.000138468
0.000228586
6.70789e-05
0.000218093
0.000147966
0.000227471
6.31259e-05
3.32732e-05
3.32604e-05
0.000204452
3.20366e-05
3.20265e-05
4.69989e-05
4.74954e-05
4.99755e-05
4.8008e-05
2.605e-05
2.59399e-05
4.70482e-05
4.74917e-05
4.99661e-05
4.80048e-05
0.000227758
0.000227759
0.000227757
0.000225275
0.000225277
0.000225278
0.000225275
0.000117516
5.78789e-05
0.000223642
0.000209264
0.000124615
5.52518e-05
0.000222227
2.60492e-05
2.59354e-05
0.000117504
0.000223639
5.7906e-05
0.000209269
0.000124565
0.000222223
5.52352e-05
3.0687e-05
3.06675e-05
0.000189641
3.03842e-05
3.03672e-05
4.14251e-05
4.85782e-05
4.33008e-05
4.88405e-05
2.56719e-05
2.55206e-05
4.14981e-05
4.85757e-05
4.32714e-05
4.88383e-05
0.000224379
0.00022438
0.000224376
0.000221497
0.0002215
0.000221501
0.000221497
0.000102122
5.15925e-05
0.00021768
0.000200254
0.000107423
4.99034e-05
0.000216089
2.56692e-05
2.55181e-05
0.000102131
0.00021768
5.16345e-05
0.000200258
0.00010741
0.000216087
4.98908e-05
3.02683e-05
3.02461e-05
0.000176305
3.0458e-05
3.0449e-05
3.81576e-05
4.90884e-05
3.92652e-05
4.91927e-05
2.52351e-05
2.50954e-05
3.82179e-05
4.9087e-05
3.92641e-05
4.91911e-05
0.000220488
0.000220488
0.000220484
0.000217321
0.000217324
0.000217324
0.000217319
9.05244e-05
4.74682e-05
0.000211174
0.00019147
9.45401e-05
4.64731e-05
0.000209507
2.52325e-05
2.50932e-05
9.05267e-05
0.000211177
4.74828e-05
0.000191472
9.45377e-05
0.000209509
4.64329e-05
3.10917e-05
3.10846e-05
0.000164532
3.15751e-05
3.15679e-05
3.63759e-05
4.92714e-05
3.69603e-05
4.92865e-05
2.48471e-05
2.47344e-05
3.64085e-05
4.92714e-05
3.69535e-05
4.92858e-05
0.000216234
0.000216234
0.000216229
0.000212882
0.000212885
0.000212885
0.000212879
8.16285e-05
4.49457e-05
0.000204485
0.000183099
8.47747e-05
4.44173e-05
0.000202814
2.48449e-05
2.47323e-05
8.15949e-05
0.000204489
4.49299e-05
0.000183099
8.47679e-05
0.000202815
4.44217e-05
3.26655e-05
3.26591e-05
0.000154285
3.33278e-05
3.33151e-05
3.56875e-05
4.92845e-05
3.58259e-05
4.92679e-05
2.45345e-05
2.44487e-05
3.57064e-05
4.92839e-05
3.58364e-05
4.92674e-05
0.000211748
0.000211748
0.000211742
0.000208292
0.000208295
0.000208294
0.000208288
7.46593e-05
4.35948e-05
0.000197849
0.000175197
7.72181e-05
4.34326e-05
0.000196217
2.45338e-05
2.44447e-05
7.47061e-05
0.000197852
4.35898e-05
0.000175194
7.72715e-05
0.000196216
4.34344e-05
3.46941e-05
3.47003e-05
0.00014527
3.54624e-05
3.54545e-05
3.57698e-05
4.925e-05
3.56806e-05
4.92304e-05
2.42939e-05
2.42319e-05
3.58106e-05
4.925e-05
3.56492e-05
4.9229e-05
0.000207135
0.000207133
0.000207128
0.000203638
0.00020364
0.000203638
0.000203633
6.92234e-05
4.30701e-05
0.000191403
0.000167789
7.13388e-05
4.31637e-05
0.000189825
2.42953e-05
2.42256e-05
6.92812e-05
0.000191403
4.31047e-05
0.000167782
7.1305e-05
0.00018982
4.31261e-05
3.70064e-05
3.70029e-05
0.000137195
3.78529e-05
3.78411e-05
3.6546e-05
4.92192e-05
3.626e-05
4.92158e-05
2.41147e-05
2.40718e-05
3.65874e-05
4.92187e-05
3.62055e-05
4.92132e-05
0.000202474
0.000202472
0.000202467
0.00019898
0.00019898
0.000198978
0.000198974
6.49198e-05
4.32419e-05
0.000185171
0.000160833
6.65914e-05
4.35091e-05
0.000183651
2.41185e-05
2.40634e-05
6.49196e-05
0.000185168
4.33071e-05
0.000160823
6.65905e-05
0.000183644
4.34361e-05
3.94759e-05
3.94669e-05
0.000130074
4.03468e-05
4.03372e-05
3.79587e-05
4.92159e-05
3.74757e-05
4.92234e-05
2.39846e-05
2.39569e-05
3.79968e-05
4.9213e-05
3.74261e-05
4.9218e-05
0.000197821
0.000197818
0.000197814
0.000194356
0.000194355
0.000194353
0.000194349
6.15249e-05
4.39319e-05
0.000179194
0.000154272
6.27944e-05
4.43612e-05
0.000177743
2.39891e-05
2.39484e-05
6.15355e-05
0.000179191
4.40206e-05
0.00015426
6.27725e-05
0.000177738
4.42832e-05
4.19983e-05
4.19944e-05
0.000123502
4.28468e-05
4.28501e-05
3.99825e-05
4.92305e-05
3.92481e-05
4.92537e-05
2.38923e-05
2.38758e-05
3.99788e-05
4.9237e-05
3.92175e-05
4.92418e-05
0.000193209
0.000193206
0.000193202
0.000189769
0.000189767
0.000189765
0.000189761
5.90092e-05
4.50613e-05
0.000173492
0.000148051
5.98312e-05
4.56316e-05
0.000172106
2.38975e-05
2.38666e-05
5.90037e-05
0.000173494
4.51652e-05
0.000148041
5.98127e-05
0.000172104
4.5551e-05
4.45036e-05
4.44846e-05
0.000117425
4.52952e-05
4.53161e-05
4.24657e-05
4.92662e-05
4.15707e-05
4.9292e-05
2.38277e-05
2.38191e-05
4.24743e-05
4.9272e-05
4.15539e-05
4.92807e-05
0.00018862
0.000188617
0.000188614
0.000185216
0.000185214
0.00018521
0.000185207
5.71852e-05
4.65907e-05
0.000168038
0.000142135
5.76727e-05
4.72203e-05
0.000166711
2.38333e-05
2.38094e-05
5.71732e-05
0.000168044
4.66687e-05
0.000142128
5.76723e-05
0.000166712
4.71634e-05
4.6895e-05
4.68843e-05
0.000111563
4.76348e-05
4.76442e-05
4.5384e-05
4.93075e-05
4.43515e-05
4.93327e-05
2.37822e-05
2.3779e-05
4.53782e-05
4.93126e-05
4.43264e-05
4.93221e-05
0.00018409
0.000184085
0.000184083
0.000180751
0.000180749
0.000180744
0.000180743
5.59306e-05
4.8402e-05
0.0001628
0.000136469
5.62879e-05
4.91041e-05
0.000161521
2.37881e-05
2.37689e-05
5.60084e-05
0.000162807
4.84678e-05
0.000136464
5.62464e-05
0.000161524
4.90438e-05
4.91351e-05
4.91323e-05
0.000106157
4.98243e-05
4.98247e-05
4.86118e-05
4.93477e-05
4.7498e-05
4.93708e-05
2.37493e-05
2.37486e-05
4.86179e-05
4.93525e-05
4.74786e-05
4.93612e-05
0.000179646
0.00017964
0.000179639
0.000176364
0.000176363
0.000176356
0.000176356
5.54005e-05
5.04454e-05
0.000157744
0.000131019
5.55632e-05
5.11462e-05
0.000156507
2.37551e-05
2.37401e-05
5.54626e-05
0.00015775
5.0448e-05
0.000131014
5.55086e-05
0.000156509
5.11749e-05
5.11966e-05
5.11796e-05
0.00010127
5.18335e-05
5.18473e-05
5.20469e-05
4.93843e-05
5.08632e-05
4.94053e-05
2.3726e-05
2.37227e-05
5.2078e-05
4.93885e-05
5.08553e-05
4.93967e-05
0.000175278
0.00017527
0.000175272
0.000172043
0.000172043
0.000172035
0.000172037
5.55345e-05
5.26202e-05
0.000152841
0.000125788
5.546e-05
5.33482e-05
0.00015164
2.37279e-05
2.37187e-05
5.55739e-05
0.000152845
5.26138e-05
0.00012578
5.54077e-05
0.000151639
5.33723e-05
5.30769e-05
5.30597e-05
9.68687e-05
5.36524e-05
5.36656e-05
5.55384e-05
4.94174e-05
5.43346e-05
4.94369e-05
2.37068e-05
2.37022e-05
5.55715e-05
4.94217e-05
5.43004e-05
4.94284e-05
0.000170974
0.000170964
0.000170968
0.000167775
0.000167776
0.000167767
0.00016777
5.62755e-05
5.48524e-05
0.000148087
0.000120794
5.59673e-05
5.56644e-05
0.000146919
2.37058e-05
2.36996e-05
5.63142e-05
0.000148089
5.48639e-05
0.000120781
5.59154e-05
0.000146916
5.56407e-05
5.47775e-05
5.47739e-05
9.28753e-05
5.52935e-05
5.52915e-05
5.89566e-05
4.94478e-05
5.77262e-05
4.94662e-05
2.36892e-05
2.36846e-05
5.90023e-05
4.94518e-05
5.76885e-05
4.94581e-05
0.00016672
0.000166709
0.000166715
0.000163558
0.000163559
0.00016355
0.000163554
5.75462e-05
5.7127e-05
0.000143447
0.00011605
5.70734e-05
5.79301e-05
0.000142305
2.36874e-05
2.36822e-05
5.76177e-05
0.000143446
5.71426e-05
0.000116037
5.70311e-05
0.0001423
5.79241e-05
5.62963e-05
5.62953e-05
8.95568e-05
5.67938e-05
5.6792e-05
6.21645e-05
4.94766e-05
6.09761e-05
4.94938e-05
2.36729e-05
2.36681e-05
6.21884e-05
4.94802e-05
6.09566e-05
4.94861e-05
0.000162517
0.000162505
0.000162512
0.000159375
0.000159377
0.000159368
0.000159372
5.93655e-05
5.93691e-05
0.000138905
0.000111618
5.87472e-05
6.01622e-05
0.000137791
2.36708e-05
2.36662e-05
5.93858e-05
0.000138904
5.94304e-05
0.000111607
5.87132e-05
0.000137786
6.01229e-05
5.76786e-05
5.76788e-05
8.67651e-05
5.81311e-05
5.81287e-05
6.50982e-05
4.95032e-05
6.39769e-05
4.95193e-05
2.36574e-05
2.36534e-05
6.51255e-05
4.95068e-05
6.39618e-05
4.95124e-05
0.000158339
0.000158327
0.000158335
0.000155212
0.000155214
0.000155206
0.00015521
6.16023e-05
6.15677e-05
0.000134466
0.00010755
6.08284e-05
6.23281e-05
0.000133385
2.36554e-05
2.36512e-05
6.15998e-05
0.000134464
6.16263e-05
0.000107539
6.08291e-05
0.000133381
6.22938e-05
5.89286e-05
5.89296e-05
8.46208e-05
5.93425e-05
5.93409e-05
6.77088e-05
4.9528e-05
6.66927e-05
4.9544e-05
2.36433e-05
2.36396e-05
4.95321e-05
6.6678e-05
4.95368e-05
0.000154181
0.000154168
0.000154177
6.41237e-05
6.36874e-05
0.000130145
0.00010392
6.3294e-05
6.43493e-05
0.000129101
2.36411e-05
6.42194e-05
0.000130146
6.37277e-05
6.3299e-05
0.000129103
6.00642e-05
6.00655e-05
8.30787e-05
6.04474e-05
6.04479e-05
0.000234872
0.000233755
0.000233828
2.33958e-05
0.000214219
2.34055e-05
0.000214298
0.000234426
5.01089e-05
5.00758e-05
0.000229303
0.000230115
0.000235099
0.000234799
0.000234776
0.000234726
0.000235101
0.0002348
0.000234765
0.000234726
0.000234519
3.99595e-05
0.000220733
0.000147063
0.000234551
3.99478e-05
0.000220894
0.000147296
0.000233952
0.000234471
9.82642e-05
0.00023427
0.000233492
0.000234597
0.000228302
0.000233947
0.00023447
9.80909e-05
0.00023427
0.000233496
0.000234597
0.00022837
0.000234872
0.000233378
0.000233391
2.33907e-05
0.000214205
0.000234426
5.03261e-05
5.02255e-05
0.000228978
0.000228935
2.3386e-05
0.000214531
0.000235127
0.0002348
0.000234914
0.000234727
0.000235101
0.0002348
0.000234726
0.000234778
0.000234516
4.00897e-05
0.000216768
0.000147007
0.000233841
0.000234471
9.8681e-05
0.00023427
0.000233099
0.000234597
0.000228275
0.000234566
3.99495e-05
0.000220821
0.000146936
0.000233953
0.00023447
0.00023427
9.817e-05
0.000234597
0.000233498
0.000228269
0.00023473
0.000234746
0.000234729
0.000234729
0.00023473
0.000234746
0.000234729
0.000234729
0.00023473
0.000234746
0.000234729
0.000234729
0.000234591
0.000234573
0.000234253
0.000234253
0.000234592
0.000234592
0.000234252
0.000234591
0.000234573
0.000234253
0.000234253
0.000234592
0.000234592
0.000234252
0.000234591
0.000234573
0.000234253
0.000234253
0.000234592
0.000234592
0.000234252
0.000234591
0.000234574
0.000234253
0.000234253
0.000234592
0.000234592
0.000234252
0.000235103
0.000234799
0.000234726
0.000234739
0.000233948
0.000234472
9.82512e-05
0.000234271
0.00023339
0.000234597
0.000228335
0.000234502
3.99323e-05
0.000220596
0.000147294
0.000233945
0.000234472
0.00023427
9.84982e-05
0.000234597
0.000233475
0.000228378
0.000234551
3.99554e-05
0.000220585
0.000147174
0.000234872
0.000233537
0.000233475
2.33986e-05
0.000214488
0.000234426
4.98404e-05
4.96672e-05
0.000230197
0.000230136
2.34057e-05
0.000214623
0.000235101
0.000234798
0.000234726
0.00023475
0.000233945
0.000234472
0.00023427
9.88977e-05
0.000234597
0.000233146
0.000228296
0.000233952
0.000234473
0.000234271
9.84008e-05
0.000234597
0.000233439
0.000228311
0.000234504
4.00991e-05
0.000216795
0.000147062
0.000234543
3.9946e-05
0.000220583
0.000147181
0.000234426
4.9867e-05
5.02704e-05
0.00023012
0.000229031
2.33988e-05
0.000214248
2.34006e-05
0.000214203
2.1482e-05
2.2853e-05
2.1476e-05
2.285e-05
4.7357e-05
4.73634e-05
0.000231272
4.37252e-05
4.37358e-05
2.45011e-05
2.33358e-05
2.45004e-05
2.33339e-05
0.000229567
3.9917e-05
3.99582e-05
4.28561e-05
4.28658e-05
0.000104699
3.85136e-05
0.000128337
3.97597e-05
0.000205966
9.22725e-05
0.000233966
0.000231964
0.000222325
8.65146e-05
0.000233605
0.000206081
9.21191e-05
0.000233968
0.000231957
0.000222378
8.64363e-05
0.000233608
9.82038e-05
4.19349e-05
4.03357e-05
8.54277e-05
9.83056e-05
4.1932e-05
4.03358e-05
8.55165e-05
0.000199799
0.0002307
8.01688e-05
0.000232661
8.50647e-05
0.000233175
0.000185294
0.000199916
0.000230691
8.01124e-05
0.000232667
8.49848e-05
0.00023318
0.000185417
4.73764e-05
4.73177e-05
0.000231265
4.3684e-05
4.3612e-05
2.14779e-05
2.28476e-05
2.44982e-05
2.33148e-05
0.00022956
3.99133e-05
3.98933e-05
4.28267e-05
4.2779e-05
2.45012e-05
2.33321e-05
0.000205933
9.2324e-05
0.000233967
0.000231962
0.000222324
8.64588e-05
0.000233605
0.000104567
3.85125e-05
0.000128165
3.97586e-05
0.000205944
0.000233967
9.22377e-05
0.00023196
0.000222329
0.000233605
8.64515e-05
9.81724e-05
4.19324e-05
4.03277e-05
8.54092e-05
0.00019978
0.000230698
8.01634e-05
0.00023266
8.50886e-05
0.000233175
0.000185276
9.82108e-05
4.1929e-05
4.03337e-05
8.5441e-05
0.000199802
0.000230698
0.00023266
8.01347e-05
0.000233175
8.49968e-05
0.000185294
0.000104656
3.85131e-05
0.000128331
3.97628e-05
0.000206016
0.000233966
9.21158e-05
0.000231963
0.000222306
0.000233605
8.63369e-05
0.000104612
3.85135e-05
0.000128173
3.97619e-05
0.000199864
0.0002307
8.02356e-05
0.000232665
8.50171e-05
0.000233178
0.000185342
9.82722e-05
4.19355e-05
4.03422e-05
8.54526e-05
0.000199864
0.000230701
0.000232666
8.01179e-05
0.000233177
8.48827e-05
0.000185402
9.82628e-05
4.19339e-05
4.03404e-05
8.55e-05
4.73181e-05
4.72433e-05
0.000231289
4.36486e-05
4.36334e-05
2.14743e-05
2.28523e-05
2.44976e-05
2.33165e-05
0.000229591
3.99212e-05
3.99206e-05
4.27716e-05
4.275e-05
2.45006e-05
2.33367e-05
0.000205991
0.000233967
9.2008e-05
0.000231955
0.000222397
0.000233605
8.6282e-05
0.000104628
3.84713e-05
0.00012827
3.97622e-05
0.00010459
3.85165e-05
0.000128255
3.97602e-05
0.000199868
0.000230711
0.000232665
8.03206e-05
0.00023318
8.52134e-05
0.000185322
0.000199848
0.000230693
0.000232663
8.00766e-05
0.000233177
8.48337e-05
0.000185327
9.82741e-05
4.19333e-05
4.03444e-05
8.54507e-05
9.82611e-05
4.19339e-05
4.0339e-05
8.54557e-05
2.148e-05
2.28519e-05
2.14807e-05
2.28522e-05
0.000229581
3.99018e-05
3.9904e-05
4.2828e-05
4.28276e-05
2.45019e-05
2.33365e-05
2.45024e-05
2.33364e-05
2.47899e-05
2.54759e-05
2.4789e-05
2.54749e-05
3.91009e-05
3.91274e-05
0.000219413
3.65179e-05
3.65588e-05
2.59594e-05
2.56259e-05
2.59583e-05
2.56251e-05
0.000216575
3.38626e-05
3.38773e-05
3.5747e-05
3.57627e-05
7.26316e-05
4.24011e-05
8.1359e-05
4.37489e-05
0.000167249
7.88602e-05
0.000232051
0.000225983
0.000179905
7.40221e-05
0.000231339
0.000167347
7.88151e-05
0.000232059
0.000225973
0.000180018
7.39164e-05
0.000231348
6.96508e-05
4.52339e-05
4.41338e-05
6.3262e-05
6.97085e-05
4.52334e-05
4.41321e-05
6.33042e-05
0.00016269
0.000224143
6.8257e-05
0.000229603
7.26726e-05
0.000230522
0.000151756
0.000162784
0.000224135
6.81716e-05
0.000229615
7.26815e-05
0.000230533
0.000151824
3.90821e-05
3.90921e-05
0.000219413
3.65188e-05
3.65288e-05
2.47899e-05
2.54771e-05
2.59587e-05
2.5625e-05
0.000216575
3.38615e-05
3.38781e-05
3.57384e-05
3.57581e-05
2.59606e-05
2.56268e-05
0.000167238
7.88591e-05
0.000232051
0.000225982
0.000179885
7.39398e-05
0.000231338
7.25835e-05
4.23975e-05
8.12834e-05
4.37454e-05
0.000167264
0.000232051
7.88241e-05
0.000225985
0.000179901
0.00023134
7.39865e-05
6.96519e-05
4.52297e-05
4.41305e-05
6.32726e-05
0.00016269
0.000224141
6.81844e-05
0.000229602
7.27028e-05
0.000230523
0.000151757
6.96757e-05
4.52294e-05
4.41271e-05
6.32947e-05
0.000162716
0.000224146
0.000229607
6.82319e-05
0.000230525
7.26395e-05
0.000151782
7.25715e-05
4.24033e-05
8.13073e-05
4.37513e-05
0.00016734
0.000232059
7.88088e-05
0.000225987
0.000180011
0.000231349
7.3903e-05
7.26268e-05
4.24029e-05
8.13463e-05
4.37494e-05
0.000162726
0.000224151
6.82935e-05
0.000229607
7.27068e-05
0.000230527
0.000151736
6.96609e-05
4.52353e-05
4.41329e-05
6.32607e-05
0.000162786
0.000224149
0.000229616
6.81642e-05
0.000230535
7.26692e-05
0.000151821
6.97075e-05
4.52332e-05
4.41324e-05
6.33033e-05
3.91014e-05
3.90657e-05
0.000219446
3.65041e-05
3.64637e-05
2.47893e-05
2.54736e-05
2.59572e-05
2.5623e-05
0.00021661
3.385e-05
3.38172e-05
3.57337e-05
3.56853e-05
2.59576e-05
2.56242e-05
0.000167258
0.000232053
7.87695e-05
0.000225973
0.00017993
0.00023134
7.38672e-05
7.2567e-05
4.24018e-05
8.12948e-05
4.37485e-05
7.2576e-05
4.24018e-05
8.1296e-05
4.37481e-05
0.000162703
0.000224164
0.000229605
6.82236e-05
0.000230526
7.27628e-05
0.000151707
0.000162692
0.000224135
0.000229603
6.81352e-05
0.000230524
7.26399e-05
0.000151751
6.96523e-05
4.52316e-05
4.41313e-05
6.32682e-05
6.96555e-05
4.52315e-05
4.41306e-05
6.32694e-05
2.47908e-05
2.54754e-05
2.47912e-05
2.54754e-05
0.000216594
3.38626e-05
3.38589e-05
3.57441e-05
3.57346e-05
2.59592e-05
2.56259e-05
2.59584e-05
2.56257e-05
2.60161e-05
2.61191e-05
2.60148e-05
2.61174e-05
3.32768e-05
3.32899e-05
0.000204428
3.20464e-05
3.20486e-05
2.60747e-05
2.6119e-05
2.60766e-05
2.61172e-05
0.000201158
3.09549e-05
3.09579e-05
3.16348e-05
3.16457e-05
5.63517e-05
4.55364e-05
6.12436e-05
4.64137e-05
0.000138513
6.69957e-05
0.000228583
0.000218073
0.000147944
6.31772e-05
0.00022747
0.000138569
6.70253e-05
0.000228596
0.000218069
0.000148015
6.30975e-05
0.000227483
5.48252e-05
4.73254e-05
4.66456e-05
5.10453e-05
5.48705e-05
4.73258e-05
4.66453e-05
5.10687e-05
0.00013534
0.000215919
5.87897e-05
0.000224988
6.20325e-05
0.000226269
0.000127193
0.000135387
0.000215916
5.87622e-05
0.000225001
6.20796e-05
0.000226282
0.000127227
3.32729e-05
3.32897e-05
0.000204441
3.20479e-05
3.20588e-05
2.6017e-05
2.61197e-05
2.60755e-05
2.61179e-05
0.000201169
3.09611e-05
3.097e-05
3.16395e-05
3.16476e-05
2.60795e-05
2.61196e-05
0.000138519
6.70298e-05
0.000228584
0.000218071
0.000147948
6.31058e-05
0.000227469
5.63492e-05
4.55316e-05
6.12219e-05
4.641e-05
0.00013854
0.000228589
6.69716e-05
0.000218076
0.000147981
0.000227477
6.31583e-05
5.48497e-05
4.73219e-05
4.66419e-05
5.10928e-05
0.000135351
0.000215918
5.87684e-05
0.000224988
6.20782e-05
0.00022627
0.000127209
5.48556e-05
4.73213e-05
4.66405e-05
5.1083e-05
0.00013537
0.000215921
0.000224996
5.87767e-05
0.000226277
6.20137e-05
0.000127213
5.63244e-05
4.55375e-05
6.12059e-05
4.6416e-05
0.000138569
0.000228597
6.70087e-05
0.000218081
0.000148011
0.000227484
6.30895e-05
5.63512e-05
4.55362e-05
6.12361e-05
4.64132e-05
0.000135385
0.000215934
5.88691e-05
0.000224993
6.20526e-05
0.000226274
0.000127174
5.48485e-05
4.73279e-05
4.66465e-05
5.10836e-05
0.000135391
0.000215927
0.000225002
5.87555e-05
0.000226283
6.20651e-05
0.000127238
5.48712e-05
4.73249e-05
4.66448e-05
5.10731e-05
3.32642e-05
3.32322e-05
0.00020445
3.20314e-05
3.20218e-05
2.60145e-05
2.61176e-05
2.60714e-05
2.61163e-05
0.000201179
3.09492e-05
3.09454e-05
3.16262e-05
3.16195e-05
2.60873e-05
2.61172e-05
0.000138509
0.000228583
6.69904e-05
0.000218069
0.000147937
0.000227469
6.30661e-05
5.63337e-05
4.55345e-05
6.11918e-05
4.64116e-05
5.63326e-05
4.55345e-05
6.11944e-05
4.64117e-05
0.000135368
0.000215941
0.000224989
5.88737e-05
0.000226272
6.21105e-05
0.000127214
0.000135333
0.000215917
0.000224986
5.87355e-05
0.000226268
6.20506e-05
0.00012719
5.48341e-05
4.73244e-05
4.66432e-05
5.10825e-05
5.48293e-05
4.73229e-05
4.66434e-05
5.10736e-05
2.60158e-05
2.61183e-05
2.60149e-05
2.61171e-05
0.000201181
3.0949e-05
3.09356e-05
3.1634e-05
3.16203e-05
2.60755e-05
2.61181e-05
2.60744e-05
2.61168e-05
2.60517e-05
2.59401e-05
2.60471e-05
2.59387e-05
3.06873e-05
3.06916e-05
0.000189642
3.03811e-05
3.03987e-05
2.57405e-05
2.58816e-05
2.57387e-05
2.58783e-05
0.0001864
3.02319e-05
3.0258e-05
3.02827e-05
3.02778e-05
4.70525e-05
4.74952e-05
4.99914e-05
4.80085e-05
0.000117489
5.79066e-05
0.000223635
0.000209245
0.000124556
5.51816e-05
0.000222219
0.000117516
5.79227e-05
0.000223647
0.000209243
0.000124587
5.51576e-05
0.00022223
4.62137e-05
4.85004e-05
4.81267e-05
4.38504e-05
4.62079e-05
4.85013e-05
4.81269e-05
4.39061e-05
0.000115371
0.000206987
5.22253e-05
0.000219228
5.44545e-05
0.000220747
0.000109231
0.000115389
0.000206986
5.22004e-05
0.000219237
5.44778e-05
0.000220757
0.000109257
3.06937e-05
3.07033e-05
0.000189661
3.04058e-05
3.03839e-05
2.6049e-05
2.59411e-05
2.57399e-05
2.58802e-05
0.000186414
3.0276e-05
3.02467e-05
3.02864e-05
3.03073e-05
2.57408e-05
2.58804e-05
0.000117524
5.79208e-05
0.000223638
0.000209248
0.000124569
5.51598e-05
0.000222221
4.70418e-05
4.74899e-05
4.99728e-05
4.80032e-05
0.000117521
0.000223643
5.78913e-05
0.000209244
0.000124576
0.000222226
5.51717e-05
4.62024e-05
4.84977e-05
4.8123e-05
4.39287e-05
0.000115385
0.000206992
5.21963e-05
0.000219234
5.44766e-05
0.000220753
0.000109266
4.6198e-05
4.84951e-05
4.81207e-05
4.39077e-05
0.000115379
0.000206987
0.000219234
5.22125e-05
0.000220754
5.44391e-05
0.000109253
4.7048e-05
4.74959e-05
4.99648e-05
4.80099e-05
0.00011753
0.000223649
5.79124e-05
0.000209253
0.000124599
0.000222234
5.51482e-05
4.70607e-05
4.74941e-05
4.99996e-05
4.80069e-05
0.000115401
0.000207009
5.23033e-05
0.000219239
5.44224e-05
0.000220756
0.000109271
4.61972e-05
4.85021e-05
4.81268e-05
4.39146e-05
0.000115403
0.000206995
0.000219243
5.21926e-05
0.000220762
5.44698e-05
0.000109266
4.62172e-05
4.84992e-05
4.81252e-05
4.39103e-05
3.06807e-05
3.06846e-05
0.000189647
3.03783e-05
3.03905e-05
2.60409e-05
2.5939e-05
2.57374e-05
2.58789e-05
0.000186437
3.02372e-05
3.0265e-05
3.02775e-05
3.02818e-05
2.57392e-05
2.58787e-05
0.000117488
0.000223633
5.78934e-05
0.000209247
0.000124546
0.000222217
5.51363e-05
4.7021e-05
4.74932e-05
4.99616e-05
4.80068e-05
4.70071e-05
4.7492e-05
4.99527e-05
4.80042e-05
0.00011538
0.000207013
0.000219235
5.22803e-05
0.000220755
5.44544e-05
0.00010926
0.000115365
0.000206991
0.000219227
5.21758e-05
0.000220745
5.44481e-05
0.000109241
4.62215e-05
4.84992e-05
4.81246e-05
4.38835e-05
4.62174e-05
4.84964e-05
4.81225e-05
4.38646e-05
2.60491e-05
2.59396e-05
2.60474e-05
2.5938e-05
0.000186443
3.02542e-05
3.02419e-05
3.02783e-05
3.02566e-05
2.57392e-05
2.58794e-05
2.57377e-05
2.58779e-05
2.56728e-05
2.55213e-05
2.56702e-05
2.55195e-05
3.02862e-05
3.02656e-05
0.000176291
3.04332e-05
3.046e-05
2.53031e-05
2.54523e-05
2.53011e-05
2.54496e-05
0.000173205
3.08996e-05
3.09214e-05
3.05847e-05
3.05576e-05
4.14733e-05
4.8579e-05
4.32775e-05
4.88414e-05
0.000102102
5.16385e-05
0.000217669
0.000200227
0.00010742
4.98321e-05
0.000216077
0.000102124
5.16587e-05
0.000217677
0.000200228
0.000107399
4.98084e-05
0.000216084
4.1021e-05
4.90616e-05
4.88877e-05
3.9568e-05
4.10031e-05
4.90631e-05
4.88891e-05
3.96078e-05
0.000100479
0.000197997
4.7879e-05
0.000212817
4.93587e-05
0.000214457
9.59128e-05
0.000100496