/*--------------------------------*- C++ -*----------------------------------*\
| =========                 |                                                 |
| \\      /  F ield         | OpenFOAM: The Open Source CFD Toolbox           |
|  \\    /   O peration     | Version:  v1906                                 |
|   \\  /    A nd           | Web:      www.OpenFOAM.com                      |
|    \\/     M anipulation  |                                                 |
\*---------------------------------------------------------------------------*/
FoamFile
{
    version     2.0;
    format      ascii;
    class       volScalarField;
    location    "900";
    object      p;
}
// * * * * * * * * * * * * * * * * * * * * * * * * * * * * * * * * * * * * * //

dimensions      [0 2 -2 0 0 0 0];


internalField   nonuniform List<scalar> 
42616
(
0.0035859
0.00358572
0.00358572
0.00358854
0.00353238
0.00353251
0.00353251
0.00353471
0.0034811
0.00348114
0.00348114
0.00348344
0.0034292
0.00342916
0.00342916
0.00343144
0.00337812
0.00337807
0.00337807
0.00338031
0.00332841
0.00332837
0.00332837
0.00333057
0.00328014
0.0032801
0.0032801
0.00328226
0.00323315
0.00323313
0.00323313
0.00323526
0.00318726
0.00318725
0.00318726
0.00318935
0.00314226
0.00314227
0.00314227
0.00314433
0.00309799
0.003098
0.003098
0.00310004
0.00305431
0.00305432
0.00305432
0.00305634
0.00301114
0.00301115
0.00301115
0.00301315
0.00296844
0.00296845
0.00296845
0.00297043
0.00292617
0.00292618
0.00292618
0.00292814
0.0028843
0.0028843
0.0028843
0.00288625
0.00284281
0.00284281
0.00284281
0.00284474
0.00280167
0.00280168
0.00280168
0.0028036
0.00276087
0.00276088
0.00276088
0.00276278
0.00272038
0.00272039
0.00272039
0.00272228
0.00268018
0.00268018
0.00268018
0.00268206
0.00359929
0.00359948
0.00359948
0.0035993
0.00359948
0.00359949
0.00360021
0.00360021
0.00360022
0.00360022
0.00359949
0.00359949
0.00359931
0.00359949
0.00359949
0.00359931
0.00358853
0.00354239
0.00358572
0.00358572
0.00354488
0.00354489
0.00358853
0.00354239
0.00358572
0.00358572
0.00354488
0.00354488
0.00358572
0.00354489
0.00354488
0.00358853
0.00354239
0.00358572
0.00354488
0.00354488
0.00354239
0.00353472
0.00349147
0.00353251
0.00353251
0.00349414
0.00349414
0.00353472
0.00349147
0.00353251
0.00353251
0.00349414
0.00349414
0.00353251
0.00349414
0.00349414
0.00353471
0.00349147
0.00353251
0.00349414
0.00349413
0.00349147
0.00348344
0.00343943
0.00348114
0.00348114
0.00344211
0.00344211
0.00348344
0.00343943
0.00348114
0.00348114
0.00344211
0.00344211
0.00348114
0.00344211
0.00344211
0.00348344
0.00343943
0.00348114
0.00344211
0.00344211
0.00343943
0.00343144
0.00338811
0.00342916
0.00342916
0.00339072
0.00339072
0.00343144
0.00338811
0.00342916
0.00342916
0.00339072
0.00339072
0.00342916
0.00339072
0.00339072
0.00343144
0.00338811
0.00342916
0.00339072
0.00339072
0.00338811
0.00338031
0.00333814
0.00337807
0.00337807
0.00334066
0.00334066
0.00338031
0.00333814
0.00337807
0.00337807
0.00334066
0.00334066
0.00337807
0.00334066
0.00334066
0.00338031
0.00333814
0.00337807
0.00334066
0.00334066
0.00333814
0.00333057
0.00328963
0.00332837
0.00332837
0.00329204
0.00329204
0.00333057
0.00328963
0.00332837
0.00332837
0.00329204
0.00329204
0.00332837
0.00329204
0.00329204
0.00333057
0.00328963
0.00332837
0.00329204
0.00329204
0.00328963
0.00328226
0.00324244
0.0032801
0.0032801
0.00324476
0.00324476
0.00328226
0.00324243
0.0032801
0.0032801
0.00324477
0.00324477
0.0032801
0.00324476
0.00324476
0.00328226
0.00324244
0.0032801
0.00324477
0.00324477
0.00324244
0.00323526
0.00319637
0.00323313
0.00323313
0.00319863
0.00319863
0.00323525
0.00319637
0.00323313
0.00323313
0.00319863
0.00319863
0.00323313
0.00319863
0.00319863
0.00323526
0.00319637
0.00323313
0.00319863
0.00319863
0.00319637
0.00318935
0.00315124
0.00318725
0.00318725
0.00315344
0.00315344
0.00318935
0.00315124
0.00318725
0.00318725
0.00315344
0.00315344
0.00318725
0.00315344
0.00315344
0.00318935
0.00315124
0.00318725
0.00315344
0.00315344
0.00315124
0.00314433
0.00310685
0.00314226
0.00314226
0.003109
0.003109
0.00314433
0.00310685
0.00314227
0.00314226
0.003109
0.003109
0.00314226
0.003109
0.003109
0.00314433
0.00310685
0.00314227
0.003109
0.003109
0.00310685
0.00310004
0.00306307
0.00309799
0.003098
0.00306519
0.00306519
0.00310004
0.00306307
0.003098
0.003098
0.00306519
0.00306519
0.003098
0.00306519
0.00306519
0.00310004
0.00306307
0.003098
0.00306519
0.00306519
0.00306307
0.00305634
0.0030198
0.00305432
0.00305432
0.0030219
0.0030219
0.00305634
0.0030198
0.00305432
0.00305432
0.0030219
0.0030219
0.00305432
0.0030219
0.0030219
0.00305634
0.0030198
0.00305432
0.0030219
0.0030219
0.0030198
0.00301315
0.00297701
0.00301115
0.00301115
0.00297908
0.00297908
0.00301315
0.00297701
0.00301115
0.00301115
0.00297908
0.00297908
0.00301115
0.00297908
0.00297908
0.00301315
0.00297701
0.00301115
0.00297908
0.00297908
0.00297701
0.00297043
0.00293468
0.00296845
0.00296845
0.0029367
0.0029367
0.00297043
0.00293468
0.00296845
0.00296845
0.0029367
0.0029367
0.00296845
0.00293671
0.0029367
0.00297043
0.00293468
0.00296845
0.00293671
0.00293671
0.00293468
0.00292814
0.00289275
0.00292618
0.00292618
0.00289474
0.00289474
0.00292814
0.00289275
0.00292618
0.00292617
0.00289474
0.00289474
0.00292617
0.00289474
0.00289474
0.00292814
0.00289275
0.00292618
0.00289474
0.00289474
0.00289275
0.00288625
0.0028512
0.0028843
0.0028843
0.00285315
0.00285315
0.00288625
0.0028512
0.0028843
0.0028843
0.00285315
0.00285315
0.0028843
0.00285315
0.00285315
0.00288625
0.0028512
0.0028843
0.00285315
0.00285315
0.0028512
0.00284475
0.00281002
0.00284281
0.00284281
0.00281193
0.00281193
0.00284474
0.00281001
0.00284281
0.00284281
0.00281193
0.00281193
0.00284281
0.00281193
0.00281193
0.00284474
0.00281001
0.00284281
0.00281193
0.00281193
0.00281001
0.00280359
0.00276916
0.00280168
0.00280168
0.00277105
0.00277105
0.0028036
0.00276916
0.00280168
0.00280168
0.00277105
0.00277105
0.00280168
0.00277105
0.00277105
0.0028036
0.00276916
0.00280168
0.00277105
0.00277105
0.00276916
0.00276278
0.00272863
0.00276088
0.00276088
0.00273048
0.00273048
0.00276278
0.00272862
0.00276088
0.00276088
0.00273048
0.00273048
0.00276088
0.00273048
0.00273048
0.00276278
0.00272863
0.00276088
0.00273048
0.00273048
0.00272863
0.00272228
0.00268838
0.00272039
0.00272039
0.00269021
0.00269021
0.00272227
0.00268838
0.00272039
0.00272039
0.00269021
0.00269021
0.00272039
0.00269021
0.00269021
0.00272228
0.00268838
0.00272039
0.00269021
0.00269021
0.00268838
0.00268206
0.00268018
0.00268018
0.00268206
0.00268018
0.00268018
0.00268018
0.00268206
0.00268018
0.00360842
0.00361839
0.00361299
0.003613
0.00363538
0.00362237
0.00365076
0.00361628
0.00363544
0.00362239
0.00361629
0.0036509
0.00362688
0.00365491
0.00365487
0.00356739
0.00356738
0.00358577
0.00356571
0.00354556
0.00356467
0.0035674
0.00356749
0.00358577
0.00356571
0.0035859
0.0035859
0.0035859
0.00354476
0.00354476
0.00354476
0.00354476
0.00356607
0.00358282
0.00358598
0.00357023
0.00358813
0.00356703
0.00357086
0.00354565
0.00356471
0.00356607
0.00358598
0.00358282
0.00357023
0.00358813
0.00357086
0.00356701
0.00357946
0.00357945
0.00356708
0.00356738
0.00356739
0.00351774
0.0035356
0.00353662
0.00351683
0.00353497
0.00351637
0.00351774
0.00353559
0.00353662
0.00351683
0.00353238
0.00353237
0.00353237
0.00349408
0.00349408
0.00349408
0.00349408
0.00351684
0.00353609
0.00353245
0.0035199
0.00353538
0.00351731
0.00351984
0.00353498
0.00351637
0.00351684
0.00353245
0.00353608
0.00351989
0.00353538
0.00351984
0.0035173
0.00353636
0.00353636
0.00351726
0.00351743
0.00351743
0.00346547
0.00348407
0.00348491
0.0034647
0.00348377
0.00346446
0.00346547
0.00348407
0.00348491
0.0034647
0.0034811
0.0034811
0.0034811
0.00344213
0.00344213
0.00344213
0.00344213
0.00346495
0.00348444
0.00348111
0.00346812
0.00348415
0.00346512
0.0034681
0.00348377
0.00346446
0.00346495
0.00348111
0.00348444
0.00346812
0.00348415
0.0034681
0.00346512
0.00348452
0.00348452
0.00346544
0.00346507
0.00346507
0.00341336
0.00343185
0.00343254
0.00341276
0.00343169
0.0034126
0.00341336
0.00343185
0.00343254
0.00341275
0.0034292
0.0034292
0.0034292
0.00339077
0.00339077
0.00339077
0.00339077
0.00341309
0.00343216
0.00342917
0.00341627
0.00343206
0.00341313
0.00341628
0.00343169
0.0034126
0.00341309
0.00342917
0.00343216
0.00341627
0.00343206
0.00341628
0.00341313
0.00343215
0.00343215
0.00341362
0.00341301
0.00341301
0.00336249
0.00338063
0.00338113
0.00336205
0.00338051
0.00336192
0.00336249
0.00338063
0.00338113
0.00336205
0.00337812
0.00337812
0.00337812
0.0033407
0.0033407
0.0033407
0.0033407
0.00336238
0.00338087
0.00337808
0.00336551
0.00338084
0.00336238
0.00336551
0.00338051
0.00336192
0.00336237
0.00337808
0.00338087
0.00336551
0.00338083
0.00336551
0.00336238
0.00338086
0.00338086
0.00336294
0.00336226
0.00336226
0.00331314
0.00333085
0.00333121
0.00331283
0.00333077
0.00331271
0.00331314
0.00333085
0.0033312
0.00331283
0.00332841
0.00332841
0.00332841
0.00329208
0.00329208
0.00329208
0.00329208
0.00331313
0.00333104
0.00332837
0.00331617
0.00333102
0.00331313
0.00331617
0.00333076
0.00331272
0.00331313
0.00332837
0.00333104
0.00331617
0.00333102
0.00331617
0.00331312
0.00333104
0.00333104
0.00331371
0.00331301
0.00331301
0.00326525
0.00328254
0.00328278
0.00326503
0.00328245
0.00326492
0.00326525
0.00328254
0.00328278
0.00326503
0.00328014
0.00328014
0.00328014
0.00324479
0.00324479
0.00324479
0.00324479
0.0032653
0.00328268
0.00328009
0.00326825
0.00328267
0.0032653
0.00326824
0.00328245
0.00326492
0.0032653
0.00328009
0.00328268
0.00326825
0.00328267
0.00326824
0.0032653
0.00328271
0.00328271
0.00326588
0.00326519
0.00326519
0.00321862
0.00323553
0.0032357
0.00321846
0.00323545
0.00321835
0.00321862
0.00323553
0.00323571
0.00321846
0.00323315
0.00323315
0.00323315
0.00319864
0.00319864
0.00319864
0.00319864
0.00321872
0.00323564
0.00323312
0.00322157
0.00323563
0.00321871
0.00322155
0.00323545
0.00321835
0.00321872
0.00323312
0.00323564
0.00322157
0.00323563
0.00322155
0.00321871
0.00323568
0.00323568
0.00321928
0.0032186
0.0032186
0.00317304
0.00318962
0.00318976
0.0031729
0.00318955
0.00317281
0.00317304
0.00318962
0.00318976
0.0031729
0.00318726
0.00318726
0.00318726
0.00315344
0.00315344
0.00315344
0.00315344
0.00317317
0.00318971
0.00318723
0.00317593
0.0031897
0.00317316
0.00317591
0.00318955
0.00317281
0.00317317
0.00318723
0.00318971
0.00317593
0.00318971
0.00317591
0.00317316
0.00318975
0.00318976
0.0031737
0.00317304
0.00317304
0.0031283
0.00314461
0.00314472
0.00312818
0.00314454
0.00312809
0.0031283
0.00314461
0.00314472
0.00312818
0.00314226
0.00314226
0.00314226
0.003109
0.003109
0.003109
0.003109
0.00312845
0.00314469
0.00314224
0.00313114
0.00314468
0.00312843
0.00313111
0.00314454
0.00312808
0.00312845
0.00314224
0.00314469
0.00313114
0.00314468
0.00313111
0.00312843
0.00314473
0.00314473
0.00312896
0.0031283
0.0031283
0.00308423
0.00310031
0.00310041
0.00308412
0.00310025
0.00308403
0.00308423
0.00310032
0.00310042
0.00308412
0.00309799
0.00309799
0.00309799
0.00306518
0.00306518
0.00306518
0.00306518
0.00308441
0.00310039
0.00309797
0.00308703
0.00310039
0.00308438
0.003087
0.00310025
0.00308403
0.0030844
0.00309797
0.00310039
0.00308703
0.00310039
0.003087
0.00308437
0.00310043
0.00310043
0.00308489
0.00308423
0.00308423
0.00304073
0.00305662
0.00305671
0.00304061
0.00305655
0.00304053
0.00304073
0.00305662
0.00305671
0.00304061
0.00305431
0.00305431
0.00305431
0.00302189
0.00302189
0.00302189
0.00302189
0.00304092
0.00305668
0.0030543
0.00304348
0.00305669
0.00304087
0.00304346
0.00305655
0.00304053
0.00304092
0.0030543
0.00305668
0.00304348
0.00305669
0.00304346
0.00304087
0.00305672
0.00305672
0.00304137
0.00304072
0.00304072
0.00299772
0.00301343
0.00301353
0.0029976
0.00301337
0.00299752
0.00299772
0.00301343
0.00301353
0.0029976
0.00301114
0.00301114
0.00301114
0.00297907
0.00297907
0.00297907
0.00297907
0.00299793
0.00301348
0.00301114
0.00300044
0.00301351
0.00299786
0.00300042
0.00301337
0.00299752
0.00299793
0.00301114
0.00301348
0.00300043
0.00301351
0.00300042
0.00299786
0.00301352
0.00301352
0.00299835
0.0029977
0.0029977
0.00295516
0.0029707
0.00297081
0.00295504
0.00297065
0.00295496
0.00295516
0.0029707
0.0029708
0.00295504
0.00296844
0.00296844
0.00296844
0.0029367
0.0029367
0.0029367
0.0029367
0.00295539
0.00297075
0.00296844
0.00295784
0.00297079
0.00295529
0.00295783
0.00297065
0.00295496
0.00295539
0.00296844
0.00297075
0.00295784
0.00297079
0.00295783
0.00295529
0.00297078
0.00297078
0.00295579
0.00295512
0.00295512
0.00291302
0.00292841
0.00292851
0.00291289
0.00292836
0.00291283
0.00291302
0.00292841
0.00292851
0.00291289
0.00292617
0.00292617
0.00292617
0.00289473
0.00289473
0.00289473
0.00289473
0.00291327
0.00292845
0.00292617
0.00291567
0.0029285
0.00291314
0.00291566
0.00292836
0.00291283
0.00291327
0.00292617
0.00292845
0.00291567
0.00292851
0.00291566
0.00291314
0.00292848
0.00292848
0.00291366
0.00291297
0.00291297
0.00287128
0.00288652
0.00288662
0.00287115
0.00288647
0.00287109
0.00287128
0.00288652
0.00288662
0.00287115
0.0028843
0.0028843
0.0028843
0.00285315
0.00285315
0.00285315
0.00285315
0.00287154
0.00288655
0.0028843
0.0028739
0.00288662
0.00287139
0.00287389
0.00288648
0.00287109
0.00287154
0.0028843
0.00288655
0.0028739
0.00288662
0.0028739
0.00287139
0.00288658
0.00288658
0.00287193
0.00287122
0.00287122
0.00282991
0.00284502
0.00284512
0.00282977
0.00284498
0.00282972
0.00282991
0.00284501
0.00284512
0.00282978
0.00284281
0.00284281
0.00284281
0.00281192
0.00281193
0.00281192
0.00281193
0.00283018
0.00284504
0.00284281
0.0028325
0.00284512
0.00283001
0.0028325
0.00284498
0.00282972
0.00283018
0.00284281
0.00284504
0.0028325
0.00284512
0.0028325
0.00283001
0.00284507
0.00284507
0.00283056
0.00282984
0.00282984
0.00278889
0.00280387
0.00280397
0.00278876
0.00280384
0.00278871
0.00278889
0.00280387
0.00280397
0.00278876
0.00280167
0.00280167
0.00280167
0.00277104
0.00277104
0.00277104
0.00277104
0.00278917
0.00280389
0.00280168
0.00279145
0.00280397
0.00278899
0.00279145
0.00280384
0.00278871
0.00278917
0.00280168
0.00280389
0.00279145
0.00280397
0.00279145
0.00278899
0.00280392
0.00280392
0.00278955
0.00278881
0.00278881
0.00274819
0.00276307
0.00276316
0.00274806
0.00276303
0.00274802
0.00274819
0.00276307
0.00276316
0.00274807
0.00276087
0.00276087
0.00276087
0.00273048
0.00273048
0.00273048
0.00273048
0.00274848
0.00276308
0.00276088
0.00275073
0.00276316
0.00274829
0.00275073
0.00276304
0.00274802
0.00274848
0.00276088
0.00276308
0.00275073
0.00276316
0.00275073
0.00274829
0.0027631
0.0027631
0.00274886
0.00274811
0.00274811
0.00270779
0.00272257
0.00272266
0.00270767
0.00272254
0.00270765
0.00270779
0.00272257
0.00272266
0.00270767
0.00272038
0.00272038
0.00272038
0.0026902
0.0026902
0.0026902
0.0026902
0.00270809
0.00272257
0.00272039
0.00271031
0.00272265
0.00270789
0.00271031
0.00272254
0.00270763
0.00270809
0.00272039
0.00272257
0.00271031
0.00272265
0.00271031
0.00270789
0.0027226
0.0027226
0.00270847
0.00270772
0.00270772
0.00266767
0.00268236
0.00268244
0.00266756
0.00268233
0.00266752
0.00268236
0.00268244
0.00266756
0.00268018
0.00268018
0.00268018
0.00266797
0.00268236
0.00268018
0.00267017
0.00268243
0.00266776
0.00267018
0.00268234
0.00266797
0.00268018
0.00268236
0.00268243
0.00267018
0.00268239
0.00268239
0.00266836
0.0026676
0.0026676
0.0036269
0.00365494
0.003655
0.00360951
0.00365477
0.00360948
0.00365494
0.00362353
0.00360781
0.0036078
0.00364916
0.00364928
0.00363539
0.00362239
0.00365086
0.00361628
0.00363539
0.00362237
0.00365088
0.00361628
0.0036391
0.00360326
0.00365124
0.00360095
0.00363911
0.00360326
0.00365132
0.00360095
0.00363079
0.00361954
0.00360267
0.00360153
0.00364539
0.00361438
0.00360108
0.0036308
0.00361953
0.00360267
0.00360153
0.00364543
0.00361438
0.00360108
0.00362686
0.00365498
0.00365487
0.00360946
0.00365486
0.00362351
0.00360781
0.00360785
0.00364922
0.00364912
0.00360954
0.00365471
0.00363541
0.00362239
0.00365092
0.00361629
0.00363539
0.00362238
0.00361628
0.00365078
0.00363912
0.00360322
0.00365155
0.00360097
0.0036308
0.00361954
0.00360271
0.00360153
0.00364556
0.00361439
0.00360109
0.00363911
0.0036033
0.00365117
0.00360098
0.00363079
0.00361953
0.00360153
0.0036027
0.00361438
0.00364532
0.0036011
0.00360842
0.00361838
0.00361299
0.00361299
0.00360842
0.00361839
0.00361299
0.003613
0.00360842
0.00361839
0.00361299
0.003613
0.00360711
0.00361602
0.00359859
0.00359859
0.00361134
0.00361134
0.00359696
0.0036071
0.00361601
0.00359859
0.00359859
0.00361134
0.00361134
0.00359696
0.00360711
0.00361602
0.00359859
0.0035986
0.00361134
0.00361135
0.00359696
0.00360711
0.00361602
0.00359859
0.0035986
0.00361134
0.00361135
0.00359696
0.00363539
0.00362238
0.00361628
0.00365084
0.00363079
0.00361952
0.00360269
0.00360153
0.00364531
0.00361438
0.00360108
0.0036391
0.0036033
0.00365113
0.00360095
0.00363079
0.00361954
0.00360153
0.0036027
0.00361438
0.00364538
0.00360108
0.00363911
0.00360327
0.00365123
0.00360094
0.00362688
0.00365486
0.00365501
0.00360948
0.0036547
0.00362352
0.00360782
0.00360781
0.00364909
0.00364926
0.00360947
0.00365496
0.00363543
0.00362238
0.00361629
0.00365078
0.00363084
0.00361954
0.00360154
0.00360273
0.00361439
0.00364554
0.00360109
0.00363084
0.00361954
0.00360154
0.00360269
0.00361439
0.00364535
0.00360109
0.0036392
0.00360322
0.00365155
0.00360095
0.0036392
0.00360329
0.0036512
0.00360095
0.00362352
0.00360783
0.00360783
0.00364914
0.00364912
0.00360949
0.00365474
0.00360954
0.00365473
0.00354552
0.00356469
0.00354566
0.00356468
0.00357943
0.00357948
0.0035671
0.00356738
0.00356738
0.00354137
0.0035579
0.00354137
0.00355796
0.00355952
0.00354288
0.00354288
0.00356054
0.00356056
0.0035674
0.00356739
0.00358576
0.00356572
0.00356607
0.00358279
0.00358597
0.00357022
0.00358813
0.00356702
0.00357086
0.00356607
0.0035828
0.00358597
0.00357022
0.00358813
0.00356702
0.00357086
0.00356102
0.00354206
0.00355902
0.00354308
0.00356102
0.00354205
0.00355903
0.00354309
0.00355967
0.00355722
0.00354262
0.00354486
0.00356032
0.0035574
0.00354189
0.00355967
0.00355722
0.00354262
0.00354486
0.00356032
0.0035574
0.00354189
0.00357945
0.00357948
0.00356711
0.00356739
0.00356741
0.00354568
0.00356474
0.00354136
0.0035579
0.00355952
0.00354288
0.00354289
0.00356055
0.00356056
0.00354139
0.00355795
0.00356607
0.00358281
0.00358598
0.00357023
0.00358814
0.00356702
0.00357087
0.0035674
0.0035674
0.00358576
0.00356575
0.00356607
0.00358598
0.00358281
0.00357022
0.00358814
0.00357087
0.00356703
0.00356102
0.00354205
0.00355905
0.00354309
0.00355967
0.00355722
0.00354262
0.00354486
0.00356033
0.0035574
0.00354189
0.00356102
0.00354205
0.00355905
0.00354309
0.00355967
0.00355722
0.00354486
0.00354262
0.0035574
0.00356033
0.00354189
0.00356739
0.0035674
0.00358575
0.00356575
0.00356607
0.00358598
0.00358282
0.00357022
0.00358813
0.00357086
0.00356702
0.00356739
0.00356741
0.00358575
0.00356572
0.00355967
0.00355722
0.00354263
0.00354486
0.00356032
0.0035574
0.00354189
0.00356102
0.00354207
0.00355903
0.00354309
0.00355966
0.00355722
0.00354486
0.00354262
0.0035574
0.00356032
0.00354189
0.00356101
0.00354206
0.00355901
0.00354309
0.00357945
0.00357947
0.00356708
0.0035674
0.00356738
0.00354568
0.00356468
0.00354137
0.00355793
0.00355952
0.00354288
0.00354287
0.00356056
0.00356054
0.00354136
0.00355791
0.00356607
0.00358598
0.0035828
0.00357023
0.00358812
0.00357086
0.00356702
0.0035674
0.0035675
0.00358574
0.00356572
0.0035674
0.0035674
0.00358574
0.00356573
0.00355966
0.00355722
0.00354486
0.00354261
0.0035574
0.00356032
0.00354189
0.00355966
0.00355722
0.00354486
0.00354261
0.0035574
0.00356032
0.00354189
0.00356101
0.00354205
0.00355905
0.00354308
0.00356101
0.00354204
0.00355902
0.00354308
0.00354566
0.0035647
0.00354564
0.00356471
0.00355952
0.00354288
0.00354287
0.00356055
0.00356055
0.00354137
0.00355791
0.00354135
0.00355793
0.00353497
0.00351637
0.00353496
0.00351637
0.00353636
0.00353636
0.00351726
0.00351743
0.00351743
0.00349055
0.0035097
0.00349054
0.0035097
0.00350934
0.00349134
0.00349133
0.0035107
0.0035107
0.00351774
0.0035356
0.00353662
0.00351683
0.00351684
0.00353608
0.00353245
0.0035199
0.00353538
0.0035173
0.00351984
0.00351684
0.00353608
0.00353245
0.0035199
0.00353538
0.0035173
0.00351984
0.00351104
0.00349087
0.00351013
0.00349171
0.00351104
0.00349087
0.00351013
0.00349171
0.00351008
0.00350708
0.00349131
0.00349409
0.00351054
0.00350703
0.00349103
0.00351008
0.00350708
0.00349131
0.00349409
0.00351054
0.00350703
0.00349103
0.00353637
0.00353638
0.00351726
0.00351743
0.00351743
0.00353499
0.00351637
0.00349054
0.0035097
0.00350935
0.00349133
0.00349133
0.0035107
0.0035107
0.00349054
0.00350971
0.00351684
0.00353608
0.00353245
0.0035199
0.00353538
0.0035173
0.00351984
0.00351774
0.0035356
0.00353662
0.00351683
0.00351684
0.00353245
0.00353608
0.00351989
0.00353538
0.00351984
0.0035173
0.00351104
0.00349087
0.00351013
0.00349171
0.00351008
0.00350708
0.00349131
0.00349409
0.00351054
0.00350702
0.00349103
0.00351104
0.00349087
0.00351013
0.00349171
0.00351007
0.00350708
0.00349409
0.00349131
0.00350702
0.00351054
0.00349102
0.00351774
0.00353561
0.00353662
0.00351684
0.00351684
0.00353245
0.00353608
0.0035199
0.00353538
0.00351984
0.0035173
0.00351774
0.00353559
0.00353662
0.00351683
0.00351007
0.00350708
0.00349131
0.00349409
0.00351054
0.00350703
0.00349102
0.00351104
0.00349087
0.00351013
0.00349171
0.00351008
0.00350708
0.00349409
0.00349131
0.00350702
0.00351054
0.00349103
0.00351104
0.00349087
0.00351013
0.00349171
0.00353636
0.00353636
0.00351726
0.00351743
0.00351743
0.00353497
0.00351637
0.00349054
0.0035097
0.00350934
0.00349133
0.00349134
0.0035107
0.0035107
0.00349054
0.0035097
0.00351684
0.00353245
0.00353608
0.00351989
0.00353538
0.00351984
0.0035173
0.00351774
0.0035356
0.00353662
0.00351683
0.00351774
0.00353559
0.00353662
0.00351683
0.00351008
0.00350708
0.00349409
0.00349131
0.00350702
0.00351054
0.00349103
0.00351008
0.00350708
0.00349409
0.00349131
0.00350703
0.00351054
0.00349102
0.00351104
0.00349087
0.00351013
0.00349171
0.00351104
0.00349087
0.00351013
0.00349171
0.00353496
0.00351637
0.00353497
0.00351637
0.00350934
0.00349133
0.00349133
0.0035107
0.0035107
0.00349054
0.0035097
0.00349054
0.0035097
0.00348378
0.00346446
0.00348378
0.00346446
0.00348452
0.00348452
0.00346544
0.00346507
0.00346507
0.00343842
0.00345768
0.00343842
0.00345768
0.0034574
0.00343892
0.00343892
0.00345826
0.00345826
0.00346547
0.00348407
0.00348491
0.0034647
0.00346496
0.00348444
0.00348111
0.00346812
0.00348415
0.00346512
0.0034681
0.00346496
0.00348444
0.00348111
0.00346812
0.00348415
0.00346512
0.0034681
0.00345867
0.00343861
0.0034579
0.0034393
0.00345867
0.00343861
0.0034579
0.0034393
0.00345806
0.0034551
0.00343901
0.00344211
0.00345824
0.0034551
0.00343892
0.00345806
0.0034551
0.00343901
0.00344211
0.00345824
0.0034551
0.00343892
0.00348452
0.00348452
0.00346544
0.00346507
0.00346507
0.00348377
0.00346446
0.00343842
0.00345768
0.0034574
0.00343891
0.00343891
0.00345826
0.00345826
0.00343842
0.00345768
0.00346496
0.00348444
0.00348111
0.00346812
0.00348415
0.00346512
0.0034681
0.00346547
0.00348407
0.00348491
0.0034647
0.00346495
0.00348111
0.00348444
0.00346812
0.00348415
0.0034681
0.00346512
0.00345867
0.00343861
0.0034579
0.0034393
0.00345806
0.0034551
0.00343901
0.00344211
0.00345824
0.0034551
0.00343892
0.00345867
0.00343861
0.0034579
0.0034393
0.00345806
0.0034551
0.00344211
0.00343901
0.0034551
0.00345824
0.00343892
0.00346547
0.00348407
0.00348491
0.0034647
0.00346495
0.00348111
0.00348444
0.00346812
0.00348415
0.0034681
0.00346512
0.00346547
0.00348407
0.00348491
0.0034647
0.00345806
0.0034551
0.00343901
0.00344211
0.00345824
0.00345509
0.00343892
0.00345866
0.00343861
0.0034579
0.0034393
0.00345806
0.0034551
0.00344211
0.00343901
0.00345509
0.00345824
0.00343892
0.00345867
0.00343861
0.0034579
0.0034393
0.00348452
0.00348452
0.00346544
0.00346507
0.00346507
0.00348377
0.00346446
0.00343842
0.00345768
0.0034574
0.00343891
0.00343892
0.00345826
0.00345826
0.00343842
0.00345768
0.00346495
0.00348111
0.00348444
0.00346812
0.00348415
0.0034681
0.00346512
0.00346547
0.00348407
0.00348491
0.0034647
0.00346547
0.00348407
0.00348491
0.0034647
0.00345806
0.0034551
0.00344211
0.00343901
0.0034551
0.00345824
0.00343892
0.00345806
0.0034551
0.00344211
0.00343901
0.0034551
0.00345824
0.00343892
0.00345867
0.00343861
0.0034579
0.0034393
0.00345867
0.00343861
0.0034579
0.0034393
0.00348377
0.00346446
0.00348377
0.00346446
0.0034574
0.00343891
0.00343892
0.00345826
0.00345826
0.00343842
0.00345768
0.00343842
0.00345768
0.00343169
0.0034126
0.00343169
0.0034126
0.00343215
0.00343215
0.00341362
0.00341301
0.00341301
0.00338708
0.00340594
0.00338708
0.00340594
0.00340572
0.00338745
0.00338745
0.00340633
0.00340633
0.00341336
0.00343185
0.00343254
0.00341275
0.00341309
0.00343216
0.00342917
0.00341627
0.00343206
0.00341313
0.00341628
0.00341309
0.00343216
0.00342917
0.00341628
0.00343206
0.00341313
0.00341628
0.00340667
0.00338722
0.00340607
0.00338774
0.00340667
0.00338722
0.00340607
0.00338774
0.00340629
0.00340346
0.00338757
0.00339073
0.00340635
0.00340347
0.00338756
0.00340629
0.00340346
0.00338757
0.00339073
0.00340635
0.00340347
0.00338756
0.00343215
0.00343215
0.00341362
0.00341301
0.00341301
0.00343169
0.0034126
0.00338709
0.00340594
0.00340572
0.00338745
0.00338745
0.00340633
0.00340633
0.00338708
0.00340594
0.00341309
0.00343216
0.00342917
0.00341627
0.00343206
0.00341313
0.00341628
0.00341336
0.00343185
0.00343254
0.00341275
0.00341309
0.00342917
0.00343216
0.00341628
0.00343206
0.00341628
0.00341313
0.00340667
0.00338722
0.00340607
0.00338774
0.00340629
0.00340346
0.00338757
0.00339073
0.00340635
0.00340347
0.00338755
0.00340667
0.00338722
0.00340607
0.00338774
0.00340629
0.00340346
0.00339073
0.00338757
0.00340347
0.00340635
0.00338755
0.00341336
0.00343185
0.00343254
0.00341275
0.00341309
0.00342917
0.00343216
0.00341627
0.00343206
0.00341628
0.00341313
0.00341336
0.00343185
0.00343254
0.00341275
0.00340629
0.00340346
0.00338757
0.00339073
0.00340635
0.00340347
0.00338755
0.00340667
0.00338722
0.00340607
0.00338774
0.00340629
0.00340346
0.00339073
0.00338757
0.00340347
0.00340635
0.00338755
0.00340667
0.00338722
0.00340607
0.00338774
0.00343215
0.00343216
0.00341362
0.00341301
0.00341301
0.00343168
0.0034126
0.00338708
0.00340594
0.00340572
0.00338745
0.00338745
0.00340633
0.00340633
0.00338708
0.00340594
0.00341309
0.00342917
0.00343216
0.00341627
0.00343206
0.00341628
0.00341313
0.00341336
0.00343185
0.00343254
0.00341275
0.00341336
0.00343185
0.00343254
0.00341275
0.00340629
0.00340346
0.00339073
0.00338757
0.00340347
0.00340635
0.00338755
0.00340629
0.00340346
0.00339073
0.00338757
0.00340347
0.00340635
0.00338755
0.00340667
0.00338722
0.00340607
0.00338774
0.00340667
0.00338722
0.00340607
0.00338774
0.00343169
0.0034126
0.00343169
0.0034126
0.00340572
0.00338745
0.00338745
0.00340633
0.00340633
0.00338708
0.00340594
0.00338708
0.00340594
0.00338051
0.00336193
0.00338051
0.00336192
0.00338086
0.00338085
0.00336294
0.00336226
0.00336226
0.00333714
0.00335545
0.00333714
0.00335545
0.00335525
0.00333745
0.00333745
0.00335576
0.00335576
0.00336249
0.00338063
0.00338113
0.00336205
0.00336238
0.00338087
0.00337808
0.00336551
0.00338084
0.00336238
0.00336551
0.00336238
0.00338087
0.00337808
0.00336551
0.00338084
0.00336238
0.00336551
0.00335598
0.00333726
0.00335555
0.00333763
0.00335598
0.00333726
0.00335555
0.00333763
0.00335574
0.00335304
0.00333757
0.00334066
0.00335576
0.00335304
0.00333757
0.00335574
0.00335304
0.00333757
0.00334066
0.00335576
0.00335304
0.00333757
0.00338086
0.00338085
0.00336294
0.00336225
0.00336226
0.00338051
0.00336193
0.00333714
0.00335544
0.00335525
0.00333745
0.00333745
0.00335575
0.00335576
0.00333714
0.00335545
0.00336237
0.00338087
0.00337808
0.00336551
0.00338083
0.00336238
0.00336551
0.00336249
0.00338063
0.00338113
0.00336205
0.00336237
0.00337808
0.00338087
0.00336551
0.00338083
0.00336551
0.00336238
0.00335597
0.00333726
0.00335555
0.00333762
0.00335574
0.00335304
0.00333756
0.00334066
0.00335576
0.00335304
0.00333757
0.00335597
0.00333726
0.00335555
0.00333762
0.00335574
0.00335304
0.00334066
0.00333756
0.00335304
0.00335576
0.00333757
0.00336249
0.00338063
0.00338113
0.00336205
0.00336238
0.00337808
0.00338087
0.00336551
0.00338083
0.00336551
0.00336238
0.00336249
0.00338063
0.00338113
0.00336205
0.00335574
0.00335304
0.00333757
0.00334066
0.00335576
0.00335304
0.00333757
0.00335598
0.00333726
0.00335555
0.00333763
0.00335574
0.00335304
0.00334066
0.00333756
0.00335304
0.00335576
0.00333757
0.00335598
0.00333726
0.00335555
0.00333763
0.00338085
0.00338085
0.00336294
0.00336226
0.00336226
0.00338051
0.00336192
0.00333714
0.00335545
0.00335525
0.00333745
0.00333745
0.00335576
0.00335576
0.00333714
0.00335545
0.00336237
0.00337808
0.00338087
0.00336551
0.00338083
0.00336551
0.00336238
0.00336249
0.00338063
0.00338113
0.00336205
0.00336249
0.00338063
0.00338113
0.00336205
0.00335574
0.00335304
0.00334066
0.00333756
0.00335304
0.00335576
0.00333757
0.00335574
0.00335304
0.00334066
0.00333756
0.00335304
0.00335576
0.00333757
0.00335598
0.00333726
0.00335555
0.00333762
0.00335597
0.00333726
0.00335555
0.00333762
0.00338051
0.00336193
0.00338051
0.00336192
0.00335525
0.00333745
0.00333745
0.00335576
0.00335576
0.00333714
0.00335545
0.00333714
0.00335545
0.00333076
0.00331272
0.00333076
0.00331272
0.00333104
0.00333104
0.00331371
0.00331301
0.00331301
0.00328866
0.00330643
0.00328866
0.00330643
0.00330624
0.00328893
0.00328893
0.0033067
0.0033067
0.00331314
0.00333086
0.00333121
0.00331283
0.00331313
0.00333104
0.00332837
0.00331617
0.00333102
0.00331313
0.00331617
0.00331313
0.00333104
0.00332837
0.00331617
0.00333102
0.00331312
0.00331617
0.00330681
0.00328876
0.00330652
0.00328902
0.00330681
0.00328876
0.00330652
0.00328902
0.00330667
0.00330406
0.00328904
0.00329203
0.00330668
0.00330406
0.00328905
0.00330667
0.00330406
0.00328904
0.00329203
0.00330668
0.00330406
0.00328905
0.00333105
0.00333104