/*--------------------------------*- C++ -*----------------------------------*\
| =========                 |                                                 |
| \\      /  F ield         | OpenFOAM: The Open Source CFD Toolbox           |
|  \\    /   O peration     | Version:  v1906                                 |
|   \\  /    A nd           | Web:      www.OpenFOAM.com                      |
|    \\/     M anipulation  |                                                 |
\*---------------------------------------------------------------------------*/
FoamFile
{
    version     2.0;
    format      ascii;
    class       surfaceScalarField;
    location    "900";
    object      phi;
}
// * * * * * * * * * * * * * * * * * * * * * * * * * * * * * * * * * * * * * //

dimensions      [0 3 -1 0 0 0 0];
oriented        oriented;


internalField   nonuniform List<scalar> 
123728
(
-0.00104218
-1.4631e-05
-1.45275e-05
9.38359e-06
9.21404e-06
0.00105274
-0.00026149
-5.6839e-06
1.45086e-05
6.88975e-06
0.00105925
-4.59306e-06
-1.59765e-06
-2.12107e-06
-2.48992e-06
-6.62384e-06
-7.11442e-06
-2.98558e-06
-0.000263332
-0.000259761
-0.000262856
-0.000261466
-5.68878e-06
1.45374e-05
6.97802e-06
0.00105904
-4.59828e-06
-1.60774e-06
-2.12857e-06
-2.49466e-06
-6.61772e-06
-7.11035e-06
-2.98781e-06
-0.000259733
-0.000263303
-0.000262819
-0.000260563
5.65965e-06
5.69954e-06
-4.95362e-06
-4.94779e-06
0.000259106
-1.65194e-06
-1.65392e-06
-0.00106079
9.33638e-07
9.34581e-07
0.00106223
-0.00106274
-1.61842e-06
1.64786e-06
8.3006e-07
0.00106393
-6.79819e-07
8.35082e-07
-9.89451e-08
4.23277e-07
-8.50132e-07
-1.43137e-06
-2.54831e-07
-0.00106242
-1.61359e-06
1.65806e-06
8.26693e-07
0.00106361
-6.80068e-07
8.29346e-07
-9.93045e-08
4.21105e-07
-8.52169e-07
-1.43072e-06
-2.51858e-07
-0.000261565
1.65061e-06
1.61375e-06
-6.98287e-07
-7.01036e-07
0.0002597
-1.37494e-06
-1.37618e-06
-0.00106635
6.96204e-07
6.96933e-07
0.00106771
-0.00106788
-1.57225e-06
1.38154e-06
6.89622e-07
0.00106923
-6.56776e-07
8.7877e-07
-7.28671e-08
4.61433e-07
-8.37698e-07
-1.39927e-06
-2.21762e-07
-0.00106755
-1.5671e-06
1.37566e-06
6.95349e-07
0.0010689
-6.56921e-07
8.73348e-07
-7.29664e-08
4.61472e-07
-8.37198e-07
-1.39357e-06
-2.19002e-07
-0.000262802
1.60219e-06
1.56745e-06
-6.63541e-07
-6.71458e-07
0.000260967
-1.34979e-06
-1.35132e-06
-0.00107181
6.75807e-07
6.76467e-07
0.00107315
-0.00107323
-1.57216e-06
1.35071e-06
6.66035e-07
0.00107454
-6.53223e-07
9.00961e-07
-5.28953e-08
4.75654e-07
-8.28245e-07
-1.40452e-06
-1.94773e-07
-0.00107289
-1.56699e-06
1.35086e-06
6.66679e-07
0.0010742
-6.50704e-07
8.9542e-07
-5.5088e-08
4.75404e-07
-8.30904e-07
-1.40449e-06
-1.92504e-07
-0.000264079
1.59968e-06
1.56725e-06
-6.55719e-07
-6.61226e-07
0.000262229
-1.30314e-06
-1.30526e-06
-0.00107714
6.51698e-07
6.52113e-07
0.00107844
-0.00107839
-1.56388e-06
1.30418e-06
6.35154e-07
0.00107965
-6.38402e-07
9.25166e-07
-3.46054e-08
4.94946e-07
-8.09786e-07
-1.4033e-06
-1.64896e-07
-0.00107806
-1.55869e-06
1.30463e-06
6.35636e-07
0.00107931
-6.35848e-07
9.1963e-07
-3.66752e-08
4.94635e-07
-8.12482e-07
-1.40333e-06
-1.62655e-07
-0.000265298
1.59169e-06
1.55893e-06
-6.40144e-07
-6.45865e-07
0.000263433
-1.25319e-06
-1.25448e-06
-0.00108228
6.26703e-07
6.27495e-07
0.00108353
-0.00108332
-1.55492e-06
1.25386e-06
6.05839e-07
0.00108451
-6.24063e-07
9.47115e-07
-1.37803e-08
5.16186e-07
-7.891e-07
-1.39689e-06
-1.36917e-07
-0.00108298
-1.54957e-06
1.25436e-06
6.0622e-07
0.00108417
-6.21341e-07
9.41684e-07
-1.64781e-08
5.15939e-07
-7.91701e-07
-1.39688e-06
-1.34601e-07
-0.000266442
1.58275e-06
1.54985e-06
-6.24132e-07
-6.29841e-07
0.000264564
-1.20674e-06
-1.20764e-06
-0.00108722
6.0452e-07
6.05507e-07
0.00108842
-0.001088
-1.54736e-06
1.20738e-06
5.82175e-07
0.00108913
-6.11987e-07
9.66552e-07
3.62414e-09
5.37598e-07
-7.69724e-07
-1.38883e-06
-1.12271e-07
-0.00108766
-1.54201e-06
1.20752e-06
5.82542e-07
0.00108879
-6.09288e-07
9.61078e-07
8.74758e-10
5.37545e-07
-7.72196e-07
-1.38866e-06
-1.09862e-07
-0.000267514
1.57537e-06
1.54232e-06
-6.10041e-07
-6.15804e-07
0.000265622
-1.16591e-06
-1.16702e-06
-0.00109197
5.86119e-07
5.86806e-07
0.00109313
-0.00109245
-1.54172e-06
1.16672e-06
5.63419e-07
0.00109353
-6.02604e-07
9.8372e-07
1.80482e-08
5.58485e-07
-7.52686e-07
-1.38075e-06
-9.09917e-08
-0.00109211
-1.53646e-06
1.16657e-06
5.64135e-07
0.00109318
-6.00028e-07
9.78111e-07
1.51528e-08
5.58615e-07
-7.55059e-07
-1.38041e-06
-8.85457e-08
-0.000268516
1.56991e-06
1.53674e-06
-5.98326e-07
-6.04063e-07
0.000266612
-1.13042e-06
-1.13268e-06
-0.00109655
5.70804e-07
5.71167e-07
0.00109767
-0.00109669
-1.53789e-06
1.13192e-06
5.4881e-07
0.00109772
-5.95856e-07
9.98739e-07
2.98606e-08
5.78703e-07
-7.37917e-07
-1.37319e-06
-7.26891e-08
-0.00109634
-1.53265e-06
1.13202e-06
5.49796e-07
0.00109737
-5.9329e-07
9.93106e-07
2.69387e-08
5.78765e-07
-7.40378e-07
-1.37291e-06
-7.03563e-08
-0.000269455
1.56624e-06
1.53288e-06
-5.88666e-07
-5.94451e-07
0.000267539
-1.10012e-06
-1.10234e-06
-0.00110098
5.57435e-07
5.5788e-07
0.00110207
-0.00110074
-1.53629e-06
1.10133e-06
5.36948e-07
0.00110172
-5.91866e-07
1.01166e-06
4.36436e-08
5.97872e-07
-7.25165e-07
-1.3664e-06
-5.7295e-08
-0.00110039
-1.5308e-06
1.10227e-06
5.37961e-07
0.00110138
-5.89035e-07
1.00626e-06
3.97745e-08
5.97752e-07
-7.27812e-07
-1.36631e-06
-5.51747e-08
-0.000270336
1.5644e-06
1.53082e-06
-5.81001e-07
-5.86823e-07
0.000268409
-1.07402e-06
-1.0756e-06
-0.00110528
5.45829e-07
5.46417e-07
0.00110634
-0.00110462
-1.53556e-06
1.07493e-06
5.27932e-07
0.00110557
-5.86194e-07
1.02389e-06
5.15999e-08
6.15826e-07
-7.13417e-07
-1.36014e-06
-4.42903e-08
-0.00110427
-1.53004e-06
1.0758e-06
5.28439e-07
0.00110522
-5.86083e-07
1.01846e-06
5.16669e-08
6.15568e-07
-7.16325e-07
-1.3602e-06
-4.23889e-08
-0.000271164
1.56383e-06
1.53014e-06
-5.74846e-07
-5.80716e-07
0.000269225
-1.04985e-06
-1.05131e-06
-0.00110947
5.35061e-07
5.35642e-07
0.0011105
-0.00110834
-1.53506e-06
1.05112e-06
5.18977e-07
0.00110925
-5.83607e-07
1.03575e-06
6.16156e-08
6.32539e-07
-7.01917e-07
-1.35378e-06
-3.31734e-08
-0.00110799
-1.52961e-06
1.0516e-06
5.1957e-07
0.0011089
-5.83549e-07
1.03022e-06
6.1593e-08
6.32469e-07
-7.04728e-07
-1.35366e-06
-3.13414e-08
-0.000271939
1.56348e-06
1.52987e-06
-5.69324e-07
-5.75072e-07
0.00026999
-1.02632e-06
-1.02753e-06
-0.00111356
5.24244e-07
5.24859e-07
0.00111456
-0.00111192
-1.53466e-06
1.02797e-06
5.0953e-07
0.00111279
-5.80687e-07
1.04742e-06
7.05602e-08
6.47806e-07
-6.90273e-07
-1.34705e-06
-2.09487e-08
-0.00111157
-1.52931e-06
1.02765e-06
5.09948e-07
0.00111244
-5.80739e-07
1.04166e-06
7.03841e-08
6.47947e-07
-6.92915e-07
-1.34671e-06
-1.81357e-08
-0.000272662
1.56328e-06
1.52966e-06
-5.64234e-07
-5.69889e-07
0.000270703
-1.00407e-06
-1.00485e-06
-0.00111754
5.13995e-07
5.14808e-07
0.00111852
-0.00111534
-1.53461e-06
1.00557e-06
4.99419e-07
0.00111618
-5.76775e-07
1.05806e-06
7.91213e-08
6.61981e-07
-6.7763e-07
-1.33931e-06
-8.91284e-09
-0.00111499
-1.52922e-06
1.00492e-06
4.99888e-07
0.00111583
-5.76884e-07
1.05236e-06
7.88813e-08
6.62174e-07
-6.80132e-07
-1.3389e-06
-5.98897e-09
-0.000273332
1.56324e-06
1.52958e-06
-5.58823e-07
-5.64366e-07
0.000271363
-9.82435e-07
-9.82637e-07
-0.00112142
5.03934e-07
5.04998e-07
0.00112238
-0.00111862
-1.53422e-06
9.83296e-07
4.88881e-07
0.00111942
-5.71699e-07
1.06791e-06
8.75193e-08
6.75038e-07
-6.63809e-07
-1.33039e-06
2.29451e-09
-0.00111827
-1.52881e-06
9.82813e-07
4.89342e-07
0.00111906
-5.71781e-07
1.06227e-06
8.73316e-08
6.75135e-07
-6.66383e-07
-1.33008e-06
5.1998e-09
-0.000273948
1.56285e-06
1.52901e-06
-5.52214e-07
-5.5783e-07
0.000271966
-9.60796e-07
-9.60729e-07
-0.00112521
4.93953e-07
4.95071e-07
0.00112614
-0.00112174
-1.53301e-06
9.61093e-07
4.78147e-07
0.0011225
-5.65514e-07
1.07765e-06
9.55051e-08
6.86995e-07
-6.49193e-07
-1.32049e-06
1.26884e-08
-0.00112139
-1.52756e-06
9.60889e-07
4.78445e-07
0.00112215
-5.65521e-07
1.07199e-06
9.5394e-08
6.87012e-07
-6.51844e-07
-1.32026e-06
1.55008e-08
-0.000274505
1.56171e-06
1.52762e-06
-5.44803e-07
-5.50602e-07
0.000272511
-9.39344e-07
-9.39339e-07
-0.00112891
4.84235e-07
4.8526e-07
0.00112982
-0.00112471
-1.53116e-06
9.39433e-07
4.67089e-07
0.00112542
-5.58005e-07
1.08694e-06
1.0324e-07
6.97828e-07
-6.33972e-07
-1.30958e-06
2.22705e-08
-0.00112435
-1.52572e-06
9.39376e-07
4.67538e-07
0.00112507
-5.58058e-07
1.08127e-06
1.03186e-07
6.97737e-07
-6.36688e-07
-1.30944e-06
2.50987e-08
-0.000275
1.55997e-06
1.52573e-06
-5.36998e-07
-5.42876e-07
0.000272994
-9.18029e-07
-9.17984e-07
-0.00113251
4.74452e-07
4.75402e-07
0.00113339
-0.00112751
-1.5287e-06
9.18124e-07
4.55903e-07
0.00112818
-5.4941e-07
1.0955e-06
1.10731e-07
7.07849e-07
-6.18535e-07
-1.29792e-06
3.22928e-08
-0.00112715
-1.5233e-06
9.17914e-07
4.56045e-07
0.00112783
-5.49525e-07
1.08974e-06
1.10648e-07
7.07504e-07
-6.21496e-07
-1.29796e-06
3.64741e-08
-0.00027543
1.55759e-06
1.52325e-06
-5.28661e-07
-5.34573e-07
0.000273412
-8.97139e-07
-8.97381e-07
-0.00113602
4.65279e-07
4.66022e-07
0.00113688
-0.00113014
-1.52562e-06
8.97103e-07
4.44705e-07
0.00113077
-5.39987e-07
1.1033e-06
1.1783e-07
7.16531e-07
-6.03235e-07
-1.28604e-06
4.44123e-08
-0.00112979
-1.5202e-06
8.97126e-07
4.44794e-07
0.00113042
-5.40046e-07
1.09756e-06
1.17799e-07
7.16265e-07
-6.06147e-07
-1.28602e-06
4.81731e-08
-0.000275792
1.55453e-06
1.52013e-06
-5.19769e-07
-5.25648e-07
0.000273763
-8.7703e-07
-8.77208e-07
-0.00113944
4.56748e-07
4.57206e-07
0.00114028
-0.0011326
-1.52156e-06
8.76998e-07
4.34384e-07
0.00113319
-5.2956e-07
1.11059e-06
1.24829e-07
7.24557e-07
-5.87793e-07
-1.27322e-06
5.48884e-08
-0.00113224
-1.51618e-06
8.76885e-07
4.34629e-07
0.00113283
-5.29723e-07
1.10479e-06
1.24676e-07
7.24391e-07
-5.90661e-07
-1.27317e-06
5.84615e-08
-0.000276084
1.55052e-06
1.51612e-06
-5.10093e-07
-5.1592e-07
0.000274043
-8.63057e-07
-8.57675e-07
-0.00114275
4.48682e-07
4.49123e-07
0.00114358
-0.00113488
-1.51653e-06
8.51964e-07
4.24149e-07
0.00113542
-5.21469e-07
1.11726e-06
1.34429e-07
7.35054e-07
-5.72487e-07
-1.25937e-06
6.43191e-08
-0.00113452
-1.51113e-06
8.57295e-07
4.13579e-07
-5.18721e-07
1.11149e-06
1.31322e-07
7.32038e-07
-5.75223e-07
-1.25922e-06
6.78049e-08
0.00113507
-0.000276305
1.54547e-06
1.50833e-06
-4.9961e-07
-5.05396e-07
0.000274256
5.22567e-06
5.23687e-06
0.000260566
-0.000259152
-5.94516e-06
-5.93061e-06
5.05362e-06
0.000261438
-0.000258684
-5.96339e-06
3.38093e-06
-5.2259e-06
5.04854e-06
0.000261472
-0.000258699
-5.97139e-06
3.37617e-06
5.2265e-06
0.000260578
-0.000259155
-5.91641e-06
-5.95953e-06
5.04643e-06
0.000261502
-0.000258714
-5.96843e-06
3.37093e-06
5.05315e-06
-5.22823e-06
0.000261446
-0.000258683
3.38609e-06
-5.97325e-06
1.06912e-05
1.05981e-05
-0.000252646
-0.000256096
-0.000255126
-0.000255126
-6.419e-06
-4.11044e-06
-6.65435e-06
-6.41907e-06
-4.11113e-06
-6.65954e-06
-5.0416e-06
0.0010422
1.06515e-05
1.06034e-05
-0.000252648
-0.000256094
-0.000255128
-0.000255128
-6.42167e-06
-4.11073e-06
-6.65712e-06
-6.41673e-06
-4.10622e-06
-6.65225e-06
-5.04123e-06
0.00104208
1.07116e-05
1.06629e-05
-0.000252641
-0.000256088
-0.000255126
-0.000255121
-6.42105e-06
-4.11783e-06
-6.65653e-06
-6.42158e-06
-4.10837e-06
-6.65454e-06
-5.05605e-06
-5.04411e-06
0.00104214
1.07071e-05
1.06085e-05
-0.000252643
-0.000256091
-0.000255126
-0.000255126
-6.41638e-06
-4.11308e-06
-6.65202e-06
-6.42178e-06
-4.11124e-06
-6.65735e-06
-0.000258709
-5.9612e-06
3.36574e-06
-5.22587e-06
0.000261433
-0.000258681
3.38111e-06
-5.96341e-06
5.22879e-06
0.000260558
-0.000259139
-5.91872e-06
-5.95681e-06
-0.000258694
3.37311e-06
-5.95816e-06
-5.23681e-06
0.0002615
-0.000258709
3.36838e-06
-5.96637e-06
-0.00025915
-5.94511e-06
-5.93109e-06
5.65969e-06
5.69705e-06
-4.954e-06
-4.94762e-06
0.000259111
-8.12286e-07
-7.76644e-07
0.000261576
-0.000259442
-2.75755e-07
-2.68503e-07
7.141e-06
0.00105865
-4.59068e-06
-1.55062e-06
-2.11581e-06
-2.49128e-06
-6.63805e-06
-7.12013e-06
-2.99221e-06
-0.000263293
-0.000259718
-0.00026282
-5.66998e-06
1.46045e-05
7.08046e-06
0.00105902
-4.60918e-06
-1.54294e-06
-2.11852e-06
-2.50252e-06
-6.66952e-06
-7.13743e-06
-3.00813e-06
-0.000263367
-0.000259748
-0.000262861
0.00106199
2.12314e-06
-0.00106095
1.04424e-06
-1.75876e-06
-1.31998e-07
-7.46881e-07
-1.54187e-06
-2.91564e-07
-9.12074e-07
3.64144e-07
8.20634e-07
0.00106241
2.12348e-06
-0.00106136
1.03878e-06
-1.76877e-06
-1.24637e-07
-7.51944e-07
-1.54764e-06
-2.91731e-07
-9.1254e-07
3.6946e-07
-4.95193e-06
-4.9442e-06
0.000259121
-7.79461e-07
0.000261601
-0.000259462
-2.73037e-07
-2.65204e-07
6.86312e-06
0.00105949
-4.61504e-06
-1.6107e-06
-2.13222e-06
-2.50056e-06
-6.65174e-06
-7.13253e-06
-3.00325e-06
-0.000263387
-0.000259776
-0.000262873
-5.6698e-06
1.46383e-05
7.17383e-06
0.0010588
-4.60948e-06
-1.55302e-06
-2.12374e-06
-2.50428e-06
-6.66871e-06
-7.13588e-06
-3.00779e-06
-0.000259717
-0.000263344
-0.000262832
0.001063
2.13106e-06
-0.00106195
1.0325e-06
-1.72908e-06
-1.34386e-07
-7.47291e-07
-1.54492e-06
-2.91663e-07
-9.10058e-07
3.66765e-07
8.09863e-07
0.0010621
2.13405e-06
-0.00106108
1.05441e-06
-1.75866e-06
-1.29562e-07
-7.46918e-07
-1.54471e-06
-2.89046e-07
-9.14727e-07
3.6402e-07
1.4636e-05
7.16243e-06
0.0010586
-4.59083e-06
-1.55068e-06
-2.11331e-06
-2.49108e-06
-6.63823e-06
-2.99252e-06
-7.11762e-06
-0.000259713
-0.000263288
-0.000262815
2.12924e-06
-0.00106169
1.0373e-06
-1.72887e-06
-1.31597e-07
-7.44069e-07
-1.54192e-06
-2.93907e-07
3.61382e-07
-9.09475e-07
8.10005e-07
0.00106188
2.13357e-06
-0.00106087
1.05465e-06
-1.75842e-06
-1.2942e-07
-7.46557e-07
-1.54469e-06
-2.91812e-07
-9.12188e-07
3.66249e-07
-4.95668e-06
-4.94416e-06
0.0002591
-7.7118e-07
0.000261553
-0.000259425
-2.76177e-07
-2.70781e-07
1.45377e-05
6.88236e-06
0.00105944
-4.61509e-06
-1.61058e-06
-2.13197e-06
-2.50057e-06
-6.65222e-06
-3.00337e-06
-7.13016e-06
-0.000259766
-0.000263385
-0.000262869
2.13514e-06
-0.00106139
1.05425e-06
-1.72654e-06
-1.34274e-07
-7.46954e-07
-1.53916e-06
-2.89172e-07
3.61355e-07
-9.12272e-07
7.71291e-07
0.00106291
2.13531e-06
-0.00106187
1.04321e-06
-1.72406e-06
-1.34441e-07
-7.44741e-07
-1.54196e-06
-2.91189e-07
-9.12141e-07
3.61661e-07
-0.000259439
-2.73277e-07
-2.70822e-07
1.65099e-06
1.61615e-06
-6.95584e-07
-7.03892e-07
0.000259708
-9.07288e-07
-8.68883e-07
0.000262814
-0.000260648
-1.98554e-07
-1.91211e-07
8.32211e-07
0.00106318
-6.82562e-07
8.67902e-07
-9.47966e-08
4.23845e-07
-8.49649e-07
-1.43341e-06
-2.54277e-07
-1.65598e-06
1.65225e-06
8.26721e-07
0.0010636
-6.85198e-07
8.76018e-07
-9.46593e-08
4.2901e-07
-8.5261e-07
-1.43924e-06
-2.52077e-07
0.00106711
1.3894e-06
-0.00106577
6.99806e-07
-1.60513e-06
-7.0006e-08
-6.63171e-07
-1.3933e-06
-2.26e-07
-8.34503e-07
4.59589e-07
9.12562e-07
0.00106755
1.38932e-06
-0.00106621
6.94867e-07
-1.6104e-06
-7.00637e-08
-6.63379e-07
-1.39645e-06
-2.26155e-07
-8.34914e-07
4.62285e-07
-6.96002e-07
-7.02963e-07
0.000259725
-8.74368e-07
0.000262841
-0.000260661
-1.98324e-07
-1.93789e-07
8.2578e-07
0.0010642
-6.80395e-07
8.32217e-07
-9.7097e-08
4.26521e-07
-8.52566e-07
-1.43628e-06
-2.51898e-07
-1.65089e-06
1.65773e-06
8.3202e-07
0.00106329
-6.85257e-07
8.68054e-07
-9.47268e-08
4.23577e-07
-8.52273e-07
-1.43377e-06
-2.51971e-07
0.00106814
1.39072e-06
-0.00106681
6.98775e-07
-1.56757e-06
-7.43399e-08
-6.5835e-07
-1.39129e-06
-2.23708e-07
-8.34897e-07
4.62065e-07
9.02117e-07
0.00106723
1.38943e-06
-0.00106589
6.9948e-07
-1.60249e-06
-7.21747e-08
-6.63256e-07
-1.39349e-06
-2.26078e-07
-8.34636e-07
4.62326e-07
1.6528e-06
8.31779e-07
0.00106308
-6.84866e-07
8.65663e-07
-9.67309e-08
4.23054e-07
-8.52675e-07
-2.52229e-07
-1.43414e-06
1.39107e-06
-0.00106655
7.02933e-07
-1.57505e-06
-7.611e-08
-6.5772e-07
-1.39146e-06
-2.24344e-07
4.61666e-07
-8.35403e-07
9.04867e-07
0.00106702
1.38504e-06
-0.00106568
6.99039e-07
-1.60223e-06
-7.19372e-08
-6.62862e-07
-1.39403e-06
-2.26425e-07
-8.35e-07
4.59033e-07
-6.98831e-07
-7.00613e-07
0.000259687
-8.66254e-07
0.000262789
-0.000260628
-1.98749e-07
-1.93552e-07
1.65297e-06
8.21025e-07
0.00106412
-6.80492e-07
8.26833e-07
-1.01716e-07
4.20962e-07
-8.49742e-07
-2.56537e-07
-1.43113e-06
1.39007e-06
-0.00106622
6.98337e-07
-1.56472e-06
-7.63266e-08
-6.57937e-07
-1.3855e-06
-2.26143e-07
4.53926e-07
-8.34683e-07
8.68727e-07
0.00106805
1.39044e-06
-0.00106671
6.98716e-07
-1.56503e-06
-7.6533e-08
-6.58354e-07
-1.394e-06
-2.26167e-07
-8.37671e-07
4.59326e-07
-0.000260636
-1.98732e-07
-1.93604e-07
1.60496e-06
1.57258e-06
-6.60835e-07
-6.69074e-07
0.000260967
-9.27951e-07
-8.91938e-07
0.000264094
-0.000261919
-1.79896e-07
-1.74923e-07
6.91557e-07
0.00106846
-6.64888e-07
9.11731e-07
-6.67939e-08
4.61814e-07
-8.34406e-07
-1.39349e-06
-2.23609e-07
-1.61027e-06
1.3749e-06
7.02252e-07
0.00106888
-6.65042e-07
9.17068e-07
-6.67839e-08
4.67383e-07
-8.37311e-07
-1.39909e-06
-2.18907e-07
0.00107246
1.3594e-06
-0.00107114
6.75053e-07
-1.60622e-06
-5.59582e-08
-6.58965e-07
-1.40312e-06
-2.04355e-07
-8.28847e-07
4.71642e-07
9.33536e-07
0.00107288
1.35933e-06
-0.00107156
6.74877e-07
-1.61133e-06
-5.37577e-08
-6.6158e-07
-1.4112e-06
-1.99528e-07
-8.34165e-07
4.8003e-07
-6.636e-07
-6.66033e-07
0.000260988
-8.94968e-07
0.000264123
-0.000261946
-1.7686e-07
-1.72049e-07
6.90485e-07
0.00106949
-6.62737e-07
8.75849e-07
-7.1128e-08
4.6445e-07
-8.37253e-07
-1.39915e-06
-2.18818e-07
-1.60234e-06
1.37499e-06
6.96656e-07
0.00106857
-6.64959e-07
9.09169e-07
-6.67476e-08
4.6469e-07
-8.36981e-07
-1.39612e-06
-2.18786e-07
0.00107349
1.3607e-06
-0.00107217
6.73797e-07
-1.57115e-06
-5.81501e-08
-6.56851e-07
-1.40582e-06
-1.99413e-07
-8.34058e-07
4.74465e-07
9.28047e-07
0.00107256
1.35953e-06
-0.00107124
6.74989e-07
-1.60619e-06
-5.385e-08
-6.61676e-07
-1.4056e-06
-1.99431e-07
-8.33847e-07
4.74497e-07
1.3808e-06
6.90933e-07
0.00106837
-6.62025e-07
9.0663e-07
-7.09107e-08
4.64088e-07
-8.37381e-07
-2.21538e-07
-1.39663e-06
1.36036e-06
-0.0010719
6.73352e-07
-1.57336e-06
-5.76914e-08
-6.56149e-07
-1.40335e-06
-2.02126e-07
4.71465e-07
-8.31669e-07
9.22827e-07
0.00107236
1.35952e-06
-0.00107104
6.74758e-07
-1.60083e-06
-5.78991e-08
-6.56118e-07
-1.40328e-06
-2.02094e-07
-8.3156e-07
4.71537e-07
-6.6378e-07
-6.68431e-07
0.000260951
-8.8946e-07
0.000264074
-0.000261904
-1.79641e-07
-1.72308e-07
1.37586e-06
6.95571e-07
0.0010694
-6.5747e-07
8.67881e-07
-7.54433e-08
4.61824e-07
-8.34811e-07
-2.21275e-07
-1.39401e-06
1.36033e-06
-0.00107157
6.73944e-07
-1.56817e-06
-5.98913e-08
-6.53608e-07
-1.40324e-06
-1.99823e-07
4.71285e-07
-8.34287e-07
8.89329e-07
0.0010734
1.36042e-06
-0.00107208
6.73599e-07
-1.5685e-06
-6.01073e-08
-6.54086e-07
-1.40075e-06
-2.01855e-07
-8.31582e-07
4.69115e-07
-0.000261917
-1.77347e-07
-1.72151e-07
1.60509e-06
1.56992e-06
-6.53174e-07
-6.58853e-07
0.000262231
-9.52298e-07
-9.16351e-07
0.000265313
-0.000263141
-1.54045e-07
-1.49272e-07
6.67788e-07
0.00107377
-6.56036e-07
9.33952e-07
-5.11882e-08
4.75875e-07
-8.25447e-07
-1.40427e-06
-1.97004e-07
-1.61016e-06
1.34981e-06
6.67497e-07
0.0010742
-6.58628e-07
9.39587e-07
-4.90033e-08
4.84231e-07
-8.30771e-07
-1.41239e-06
-1.92195e-07
0.00107763
1.31556e-06
-0.00107636
6.44818e-07
-1.5994e-06
-3.73172e-08
-6.45142e-07
-1.40401e-06
-1.74503e-07
-8.12031e-07
4.90036e-07
9.57995e-07
0.00107805
1.31568e-06
-0.00107678
6.44274e-07
-1.60442e-06
-3.52186e-08
-6.47723e-07
-1.41216e-06
-1.69725e-07
-8.17369e-07
4.98457e-07
-6.55914e-07
-6.60706e-07
0.000262257
-9.19209e-07
0.000265342
-0.000263167
-1.5113e-07
-1.463e-07
6.6644e-07
0.0010748
-6.53884e-07
8.97967e-07
-5.3315e-08
4.78515e-07
-8.30722e-07
-1.40709e-06
-1.92161e-07
-1.60505e-06
1.35002e-06
6.67695e-07
0.00107388
-6.58753e-07
9.34065e-07
-4.91142e-08
4.78673e-07
-8.30457e-07
-1.40681e-06
-1.92109e-07
0.00107866
1.31758e-06
-0.00107739
6.43399e-07
-1.56392e-06
-3.92163e-08
-6.42789e-07
-1.40725e-06
-1.69967e-07
-8.17616e-07
4.92328e-07
9.52464e-07
0.00107773
1.31586e-06
-0.00107646
6.4448e-07
-1.59931e-06
-3.53204e-08
-6.47843e-07
-1.40658e-06
-1.69659e-07
-8.17074e-07
4.92863e-07
1.34982e-06
6.6746e-07
0.00107368
-6.53185e-07
9.28834e-07
-5.30968e-08
4.75767e-07
-8.28134e-07
-1.94732e-07
-1.40441e-06
1.31648e-06
-0.00107712
6.42997e-07
-1.56628e-06
-3.89518e-08
-6.42304e-07
-1.40429e-06
-1.72315e-07
4.89825e-07
-8.14849e-07
9.47136e-07
0.00107753
1.31551e-06
-0.00107626
6.44558e-07
-1.59399e-06
-3.91477e-08
-6.42313e-07
-1.40416e-06
-1.72238e-07
-8.14702e-07
4.89948e-07
-6.53428e-07
-6.60897e-07
0.000262216
-9.13654e-07
0.000265293
-0.000263126
-1.53891e-07
-1.46647e-07
1.35092e-06
6.66137e-07
0.00107471
-6.51092e-07
8.95359e-07
-5.52306e-08
4.73222e-07
-8.28234e-07
-1.94577e-07
-1.40199e-06
1.31688e-06
-0.00107679
6.43416e-07
-1.5611e-06
-4.10317e-08
-6.39776e-07
-1.40425e-06
-1.70092e-07
4.89578e-07
-8.17584e-07
9.13693e-07
0.00107857
1.31693e-06
-0.0010773
6.42849e-07
-1.56129e-06
-4.1065e-08
-6.40031e-07
-1.40195e-06
-1.72271e-07
-8.15026e-07
4.87209e-07
-0.000263139
-1.51551e-07
-1.46525e-07
1.59709e-06
1.56152e-06
-6.37536e-07
-6.43405e-07
0.000263435
-9.75235e-07
-9.39015e-07
0.000266458
-0.00026429
-1.29234e-07
-1.24039e-07
6.36884e-07
0.00107888
-6.41282e-07
9.58301e-07
-3.23567e-08
4.95079e-07
-8.06991e-07
-1.40308e-06
-1.67112e-07
-1.60215e-06
1.30309e-06
6.36104e-07
0.0010793
-6.43959e-07
9.6394e-07
-2.95564e-08
5.03565e-07
-8.12326e-07
-1.41118e-06
-1.62331e-07
0.00108255
1.26548e-06
-0.00108134
6.14217e-07
-1.59021e-06
-1.63096e-08
-6.30273e-07
-1.39879e-06
-1.45963e-07
-7.91588e-07
5.10664e-07
9.80767e-07
0.00108297
1.26504e-06
-0.00108177
6.136e-07
-1.5954e-06
-1.35893e-08
-6.33015e-07
-1.40671e-06
-1.41113e-07
-7.96765e-07
5.19352e-07
-6.40429e-07
-6.45196e-07
0.000263461
-9.41872e-07
0.000266487
-0.000264316
-1.2638e-07
-1.21232e-07
6.35644e-07
0.00107992
-6.38843e-07
9.22338e-07
-3.48594e-08
4.97422e-07
-8.12605e-07
-1.40631e-06
-1.62598e-07
-1.59703e-06
1.30321e-06
6.36342e-07
0.00107898
-6.44051e-07
9.58431e-07
-2.96538e-08
4.97965e-07
-8.12022e-07
-1.40559e-06
-1.62265e-07
0.00108359
1.26701e-06
-0.00108238
6.13157e-07
-1.55467e-06
-1.89603e-08
-6.27897e-07
-1.40163e-06
-1.41286e-07
-7.97001e-07
5.13457e-07
9.75329e-07
0.00108265
1.26495e-06
-0.00108145
6.13806e-07
-1.59018e-06
-1.36141e-08
-6.33048e-07
-1.40108e-06
-1.41035e-07
-7.96479e-07
5.13781e-07
1.30314e-06
6.36812e-07
0.00107878
-6.38415e-07
9.53147e-07
-3.48156e-08
4.95047e-07
-8.09634e-07
-1.64821e-07
-1.40319e-06
1.26627e-06
-0.00108211
6.12585e-07
-1.55705e-06
-1.86574e-08
-6.27464e-07
-1.39873e-06
-1.43623e-07
5.1081e-07
-7.94219e-07
9.69993e-07
0.00108245
1.26522e-06
-0.00108124
6.14118e-07
-1.58486e-06
-1.88909e-08
-6.2748e-07
-1.39868e-06
-1.43547e-07
-7.94066e-07
5.10869e-07
-6.3788e-07
-6.45434e-07
0.00026342
-9.36429e-07
0.000266437
-0.000264275
-1.29074e-07
-1.21347e-07
1.30458e-06
6.35127e-07
0.00107983
-6.36103e-07
9.19667e-07
-3.66931e-08
4.92334e-07
-8.09967e-07
-1.64856e-07
-1.40096e-06
1.26681e-06
-0.00108177
6.13043e-07
-1.55174e-06
-2.13666e-08
-6.24779e-07
-1.39869e-06
-1.41346e-07
5.10591e-07
-7.96879e-07
9.36424e-07
0.0010835
1.26673e-06
-0.00108229
6.12723e-07
-1.55199e-06
-2.14792e-08
-6.25122e-07
-1.39632e-06
-1.43533e-07
-7.94342e-07
5.08267e-07
-0.000264288
-1.2656e-07
-1.2137e-07
1.58806e-06
1.55255e-06
-6.21626e-07
-6.27214e-07
0.000264566
-9.95452e-07
-9.58987e-07
0.000267529
-0.000265366
-1.06957e-07
-1.01569e-07
6.07379e-07
0.00108374
-6.26824e-07
9.80541e-07
-1.14002e-08
5.15984e-07
-7.86503e-07
-1.39701e-06
-1.39289e-07
-1.5933e-06
1.25283e-06
6.06837e-07
0.00108417
-6.29607e-07
9.8605e-07
-8.69447e-09
5.24674e-07
-7.91719e-07
-1.40494e-06
-1.34479e-07
0.00108723
1.21791e-06
-0.00108608
5.88951e-07
-1.58229e-06
1.98404e-09
-6.17491e-07
-1.39102e-06
-1.20465e-07
-7.718e-07
5.32096e-07
1.00095e-06
0.00108765
1.21749e-06
-0.00108651
5.88606e-07
-1.58756e-06
4.7114e-09
-6.20239e-07
-1.39905e-06
-1.15682e-07
-7.77011e-07
5.40711e-07
-6.24469e-07
-6.29187e-07
0.000264592
-9.6191e-07
0.000267558
-0.000265392
-1.04002e-07
-9.8869e-08
6.06415e-07
0.00108478
-6.2449e-07
9.44237e-07
-1.41007e-08
5.18912e-07
-7.91825e-07
-1.3997e-06
-1.3455e-07
-1.58805e-06
1.25255e-06
6.07038e-07
0.00108385
-6.29607e-07
9.80623e-07
-8.71155e-09
5.19144e-07
-7.91357e-07
-1.39924e-06
-1.34345e-07
0.00108827
1.21876e-06
-0.00108712
5.88238e-07
-1.54675e-06
-7.86195e-10
-6.15213e-07
-1.3935e-06
-1.15659e-07
-7.76964e-07
5.35207e-07
9.95529e-07
0.00108733
1.21712e-06
-0.00108618
5.8885e-07
-1.58228e-06
4.6741e-09
-6.20271e-07
-1.39325e-06
-1.15556e-07
-7.7662e-07
5.35257e-07
1.25286e-06
6.07317e-07
0.00108364
-6.24062e-07
9.75265e-07
-1.40071e-08
5.16241e-07
-7.88943e-07
-1.36838e-07
-1.39684e-06
1.21849e-06
-0.00108685
5.87597e-07
-1.54908e-06
-4.37462e-10
-6.14738e-07
-1.39088e-06
-1.18097e-07
5.32279e-07
-7.74349e-07
9.9009e-07
0.00108713
1.21757e-06
-0.00108598
5.89122e-07
-1.57703e-06
-7.00923e-10
-6.14782e-07
-1.39081e-06
-1.18009e-07
-7.74179e-07
5.32364e-07
-6.21832e-07
-6.29285e-07
0.000264551
-9.5646e-07
0.000267508
-0.000265351
-1.06728e-07
-9.88879e-08
1.25432e-06
6.05981e-07
0.00108469
-6.21709e-07
9.41663e-07
-1.66067e-08
5.13646e-07
-7.89205e-07
-1.36822e-07
-1.39445e-06
1.21872e-06
-0.00108651
5.87925e-07
-1.54371e-06
-3.16248e-09
-6.12024e-07
-1.3907e-06
-1.15737e-07
5.32223e-07
-7.76889e-07
9.56409e-07
0.00108818
1.21893e-06
-0.00108703
5.88006e-07
-1.54403e-06
-3.31727e-09
-6.1243e-07
-1.38843e-06
-1.18005e-07
-7.74459e-07
5.2976e-07
-0.000265364
-1.04218e-07
-9.90167e-08
1.58063e-06
1.54504e-06
-6.07568e-07
-6.13067e-07
0.000265624
-1.01584e-06
-9.76711e-07
0.000268534
-0.000266373
-8.7133e-08
-8.18736e-08
5.8358e-07
0.00108835
-6.14766e-07
1.00276e-06
8.67494e-09
5.37464e-07
-7.67141e-07
-1.38892e-06
-1.14603e-07
-1.5859e-06
1.20637e-06
5.83241e-07
0.00108879
-6.17495e-07
1.00561e-06
8.77465e-09
5.46048e-07
-7.72378e-07
-1.397e-06
-1.09857e-07
0.00109167
1.17551e-06
-0.00109058
5.69336e-07
-1.57907e-06
1.96848e-08
-6.10283e-07
-1.38265e-06
-9.81948e-08
-7.53989e-07
5.53366e-07
1.01874e-06
0.0010921
1.17515e-06
-0.00109101
5.68966e-07
-1.58164e-06
1.98343e-08
-6.1027e-07
-1.38817e-06
-9.35742e-08
-7.59331e-07
5.59188e-07
-6.10342e-07
-6.15118e-07
0.00026565
-9.79622e-07
0.00026856
-0.000266399
-8.42321e-08
-7.91378e-08
5.82856e-07
0.0010894
-6.1247e-07
9.63615e-07
3.25995e-09
5.40552e-07
-7.723e-07
-1.39141e-06
-1.09825e-07
-1.5806e-06
1.20604e-06
5.83467e-07
0.00108846
-6.17524e-07
1.0002e-06
8.7385e-09
5.40576e-07
-7.7198e-07
-1.39119e-06
-1.09738e-07
0.00109272
1.17659e-06
-0.00109163
5.68457e-07
-1.5406e-06
1.4342e-08
-6.05184e-07
-1.3853e-06
-9.3601e-08
-7.59298e-07
5.56304e-07
1.01336e-06
0.00109178
1.17519e-06
-0.00109068
5.69112e-07
-1.5763e-06
1.98245e-08
-6.10277e-07
-1.38514e-06
-9.35744e-08
-7.59052e-07
5.56267e-07
1.2065e-06
5.8377e-07
0.00108826
-6.12045e-07
9.94733e-07
3.33741e-09
5.37682e-07
-7.69564e-07
-1.12181e-07
-1.38877e-06
1.17634e-06
-0.00109136
5.67699e-07
-1.54295e-06
1.46895e-08
-6.04702e-07
-1.38273e-06
-9.60259e-08
5.53322e-07
-7.56729e-07
1.00783e-06
0.00109157
1.1756e-06
-0.00109048
5.69513e-07
-1.57109e-06
1.4361e-08
-6.0482e-07
-1.3827e-06
-9.5955e-08
-7.56598e-07
5.5338e-07
-6.07725e-07
-6.15136e-07
0.000265608
-9.74048e-07
0.00026851
-0.000266357
-8.71058e-08
-7.90628e-08
1.20783e-06
5.82696e-07
0.00108931
-6.09688e-07
9.61025e-07
7.15616e-10
5.35081e-07
-7.69839e-07
-1.12184e-07
-1.38637e-06
1.17621e-06
-0.00109102
5.68298e-07
-1.53766e-06
1.18366e-08
-6.02084e-07
-1.38236e-06
-9.35857e-08
5.5347e-07
-7.59133e-07
9.74026e-07
0.00109263
1.17671e-06
-0.00109154
5.68527e-07
-1.53796e-06
1.17167e-08
-6.02461e-07
-1.38023e-06
-9.59108e-08
-7.56822e-07
5.50852e-07
-0.00026637
-8.45533e-08
-7.92587e-08
1.57791e-06
1.53934e-06
-5.95709e-07
-6.0139e-07
0.000266614
-1.03153e-06
-9.92377e-07
0.000269473
-0.000267315
-6.9784e-08
-6.45162e-08
5.65166e-07
0.00109274
-6.08224e-07
1.01994e-06
2.30489e-08
5.58595e-07
-7.49875e-07
-1.38059e-06
-9.09061e-08
-1.58047e-06
1.16549e-06
5.64779e-07
0.00109318
-6.08202e-07
1.02287e-06
2.3189e-08
5.64383e-07
-7.55273e-07
-1.38616e-06
-8.85594e-08
0.0010959
1.13892e-06
-0.00109486
5.53894e-07
-1.5751e-06
3.25189e-08
-6.03074e-07
-1.37482e-06
-7.68951e-08
-7.41261e-07
5.73834e-07
1.03453e-06
0.00109634
1.13869e-06
-0.0010953
5.53326e-07
-1.57759e-06
3.2836e-08
-6.02968e-07
-1.38052e-06
-7.46563e-08
-7.44087e-07
5.79522e-07
-5.98537e-07
-6.03397e-07
0.00026664
-9.95193e-07
0.0002695
-0.000267342
-6.70303e-08
-6.16314e-08
5.64143e-07
0.0010938
-6.03057e-07
9.8083e-07
1.77211e-08
5.61449e-07
-7.5529e-07
-1.38334e-06
-8.86275e-08
-1.57511e-06
1.1657e-06
5.64916e-07
0.00109285
-6.08201e-07
1.01748e-06
2.31894e-08
5.61403e-07
-7.55077e-07
-1.3832e-06
-8.85956e-08
0.00109696
1.14069e-06
-0.00109592
5.52761e-07
-1.53623e-06
2.69068e-08
-5.97668e-07
-1.37772e-06
-7.4764e-08
-7.44156e-07
5.7657e-07
1.02911e-06
0.00109601
1.13914e-06
-0.00109497
5.53502e-07
-1.57227e-06
3.2811e-08
-6.02978e-07
-1.37762e-06
-7.47723e-08
-7.43975e-07
5.76493e-07
1.16606e-06
5.65318e-07
0.00109265
-6.02737e-07
1.01195e-06
1.77111e-08
5.58521e-07
-7.52597e-07
-9.09573e-08
-1.38074e-06
1.14005e-06
-0.00109565
5.52119e-07
-1.53867e-06
2.71546e-08
-5.9728e-07
-1.37501e-06
-7.69916e-08
5.73706e-07
-7.41397e-07
1.02361e-06
0.00109581
1.1394e-06
-0.00109476
5.54167e-07
-1.567e-06
2.68905e-08
-5.97405e-07
-1.37508e-06
-7.70208e-08
-7.41408e-07
5.73686e-07
-5.96042e-07
-6.03346e-07
0.000266598
-9.89539e-07
0.00026945
-0.000267299
-6.99604e-08
-6.1603e-08
1.1671e-06
5.64309e-07
0.00109371
-6.0037e-07
9.78114e-07
1.50646e-08
5.56018e-07
-7.52788e-07
-9.08845e-08
-1.37825e-06
1.14e-06
-0.0010953
5.53054e-07
-1.53346e-06
2.42151e-08
-5.94744e-07
-1.37463e-06
-7.46351e-08
5.73873e-07
-7.43854e-07
9.89706e-07
0.00109687
1.14041e-06
-0.00109583
5.53006e-07
-1.53371e-06
2.42499e-08
-5.94993e-07
-1.37255e-06
-7.69212e-08
-7.41561e-07
5.71196e-07
-0.000267313
-6.7176e-08
-6.18001e-08
1.57441e-06
1.53541e-06
-5.8603e-07
-5.91806e-07
0.000267542
-1.04505e-06
-1.00582e-06
0.000270355
-0.000268199
-5.5324e-08
-4.96331e-08
5.50118e-07
0.00109693
-6.01774e-07
1.03507e-06
3.68408e-08
5.78754e-07
-7.37845e-07
-1.37305e-06
-7.26249e-08
-1.57689e-06
1.13029e-06
5.49531e-07
0.00109736
-6.01654e-07
1.03809e-06