/*--------------------------------*- C++ -*----------------------------------*\
| =========                 |                                                 |
| \\      /  F ield         | OpenFOAM: The Open Source CFD Toolbox           |
|  \\    /   O peration     | Version:  v1906                                 |
|   \\  /    A nd           | Web:      www.OpenFOAM.com                      |
|    \\/     M anipulation  |                                                 |
\*---------------------------------------------------------------------------*/
FoamFile
{
    version     2.0;
    format      ascii;
    class       volScalarField;
    location    "450";
    object      k;
}
// * * * * * * * * * * * * * * * * * * * * * * * * * * * * * * * * * * * * * //

dimensions      [0 2 -2 0 0 0 0];


internalField   nonuniform List<scalar> 
43024
(
3.91912e-05
5.15782e-05
5.1578e-05
5.36611e-05
3.95538e-05
5.17806e-05
5.17804e-05
5.38217e-05
3.98895e-05
5.19622e-05
5.1962e-05
5.39682e-05
4.01986e-05
5.21234e-05
5.21233e-05
5.4097e-05
4.04815e-05
5.22649e-05
5.22647e-05
5.42084e-05
4.0739e-05
5.23871e-05
5.23868e-05
5.43046e-05
4.09719e-05
5.24906e-05
5.24903e-05
5.43859e-05
4.11808e-05
5.25762e-05
5.25758e-05
5.44522e-05
4.13668e-05
5.26445e-05
5.26441e-05
5.45043e-05
4.15306e-05
5.26959e-05
5.26955e-05
5.45427e-05
4.16732e-05
5.27311e-05
5.27308e-05
5.45681e-05
4.17954e-05
5.27512e-05
5.27509e-05
5.45829e-05
4.18982e-05
5.27567e-05
5.27567e-05
5.45842e-05
4.19825e-05
5.27499e-05
5.27502e-05
5.45725e-05
4.20493e-05
5.27312e-05
5.27318e-05
5.45507e-05
4.21004e-05
5.27015e-05
5.27024e-05
5.45212e-05
4.21372e-05
5.26621e-05
5.26633e-05
5.44834e-05
4.21613e-05
5.26145e-05
5.2616e-05
5.44398e-05
4.21735e-05
5.25603e-05
5.25621e-05
5.4391e-05
4.21658e-05
5.24828e-05
5.24845e-05
5.43286e-05
4.17833e-05
5.13461e-05
5.13516e-05
5.39864e-05
5.36141e-05
5.15208e-05
5.15217e-05
5.36208e-05
5.15207e-05
5.15203e-05
5.15237e-05
5.15231e-05
5.36211e-05
5.15235e-05
5.15229e-05
5.36211e-05
5.36638e-05
5.37811e-05
5.15752e-05
5.15762e-05
5.1728e-05
5.17291e-05
5.36613e-05
5.37816e-05
5.15753e-05
5.15749e-05
5.17281e-05
5.17277e-05
5.15778e-05
5.17311e-05
5.17306e-05
5.36607e-05
5.37807e-05
5.15776e-05
5.17308e-05
5.17305e-05
5.37799e-05
5.38223e-05
5.39287e-05
5.17775e-05
5.17786e-05
5.19146e-05
5.19155e-05
5.3823e-05
5.3929e-05
5.17778e-05
5.17772e-05
5.19147e-05
5.19142e-05
5.17802e-05
5.19175e-05
5.1917e-05
5.38221e-05
5.39282e-05
5.178e-05
5.19172e-05
5.19168e-05
5.39275e-05
5.39677e-05
5.40588e-05
5.19593e-05
5.19602e-05
5.20806e-05
5.20815e-05
5.3968e-05
5.4059e-05
5.19597e-05
5.1959e-05
5.20808e-05
5.20802e-05
5.19617e-05
5.20833e-05
5.20828e-05
5.39672e-05
5.40583e-05
5.19616e-05
5.20831e-05
5.20827e-05
5.40589e-05
5.4096e-05
5.41735e-05
5.21207e-05
5.21215e-05
5.22264e-05
5.22273e-05
5.40963e-05
5.41737e-05
5.21211e-05
5.21203e-05
5.22268e-05
5.22261e-05
5.2123e-05
5.22292e-05
5.22288e-05
5.40955e-05
5.4173e-05
5.2123e-05
5.2229e-05
5.22287e-05
5.41747e-05
5.4208e-05
5.4273e-05
5.22622e-05
5.2263e-05
5.2353e-05
5.23538e-05
5.42084e-05
5.42732e-05
5.22627e-05
5.22618e-05
5.23534e-05
5.23525e-05
5.22646e-05
5.23557e-05
5.23554e-05
5.42076e-05
5.42725e-05
5.22645e-05
5.23554e-05
5.23553e-05
5.42745e-05
5.4304e-05
5.43572e-05
5.23844e-05
5.23851e-05
5.24609e-05
5.24616e-05
5.43045e-05
5.43575e-05
5.23849e-05
5.23839e-05
5.24612e-05
5.24602e-05
5.23868e-05
5.24635e-05
5.24632e-05
5.43037e-05
5.43567e-05
5.23868e-05
5.24631e-05
5.24632e-05
5.43588e-05
5.4385e-05
5.44266e-05
5.2488e-05
5.24887e-05
5.25506e-05
5.25513e-05
5.43855e-05
5.44269e-05
5.24885e-05
5.24874e-05
5.25509e-05
5.25499e-05
5.24904e-05
5.25531e-05
5.25528e-05
5.43846e-05
5.44261e-05
5.24903e-05
5.25527e-05
5.25528e-05
5.44279e-05
5.44515e-05
5.44817e-05
5.25737e-05
5.25743e-05
5.2623e-05
5.26235e-05
5.44519e-05
5.44819e-05
5.25741e-05
5.2573e-05
5.26232e-05
5.26221e-05
5.25759e-05
5.26253e-05
5.26249e-05
5.4451e-05
5.44811e-05
5.25758e-05
5.26249e-05
5.26248e-05
5.44827e-05
5.45038e-05
5.4523e-05
5.26421e-05
5.26426e-05
5.26787e-05
5.26791e-05
5.4504e-05
5.4523e-05
5.26424e-05
5.26412e-05
5.26789e-05
5.26777e-05
5.26439e-05
5.26809e-05
5.26803e-05
5.45032e-05
5.45223e-05
5.26439e-05
5.26805e-05
5.26802e-05
5.45236e-05
5.45424e-05
5.45511e-05
5.26937e-05
5.26941e-05
5.27186e-05
5.27189e-05
5.45425e-05
5.45508e-05
5.2694e-05
5.26927e-05
5.27189e-05
5.27177e-05
5.26952e-05
5.27207e-05
5.272e-05
5.45417e-05
5.45505e-05
5.26952e-05
5.27203e-05
5.272e-05
5.45517e-05
5.45681e-05
5.45654e-05
5.27291e-05
5.27293e-05
5.27436e-05
5.27438e-05
5.45685e-05
5.4565e-05
5.27293e-05
5.27281e-05
5.27439e-05
5.27428e-05
5.27303e-05
5.27456e-05
5.27448e-05
5.45672e-05
5.45683e-05
5.27303e-05
5.27454e-05
5.27448e-05
5.45694e-05
5.45867e-05
5.45694e-05
5.27494e-05
5.27496e-05
5.27543e-05
5.27544e-05
5.45879e-05
5.45689e-05
5.27496e-05
5.27484e-05
5.27546e-05
5.27535e-05
5.27502e-05
5.2756e-05
5.2755e-05
5.45818e-05
5.45727e-05
5.27503e-05
5.2756e-05
5.27551e-05
5.45727e-05
5.4589e-05
5.45578e-05
5.27551e-05
5.27552e-05
5.27501e-05
5.27501e-05
5.45888e-05
5.45574e-05
5.27553e-05
5.27543e-05
5.27503e-05
5.27494e-05
5.27556e-05
5.27515e-05
5.27504e-05
5.45842e-05
5.45628e-05
5.27557e-05
5.27518e-05
5.27507e-05
5.45629e-05
5.45766e-05
5.45379e-05
5.27485e-05
5.27485e-05
5.27332e-05
5.27334e-05
5.45771e-05
5.45377e-05
5.27487e-05
5.27478e-05
5.27334e-05
5.27327e-05
5.27489e-05
5.27346e-05
5.27334e-05
5.45728e-05
5.4542e-05
5.27491e-05
5.27351e-05
5.27339e-05
5.45417e-05
5.45543e-05
5.45096e-05
5.27299e-05
5.273e-05
5.2705e-05
5.27051e-05
5.4554e-05
5.45119e-05
5.27301e-05
5.27294e-05
5.27052e-05
5.27045e-05
5.27302e-05
5.27061e-05
5.27051e-05
5.45508e-05
5.45087e-05
5.27307e-05
5.27071e-05
5.27059e-05
5.45125e-05
5.45227e-05
5.44726e-05
5.27003e-05
5.27005e-05
5.26666e-05
5.26668e-05
5.45211e-05
5.44739e-05
5.27004e-05
5.26998e-05
5.26667e-05
5.26662e-05
5.27006e-05
5.26676e-05
5.2667e-05
5.45228e-05
5.44727e-05
5.27014e-05
5.26689e-05
5.26679e-05
5.44746e-05
5.44841e-05
5.44281e-05
5.26609e-05
5.26613e-05
5.26193e-05
5.26199e-05
5.44836e-05
5.44283e-05
5.2661e-05
5.26605e-05
5.26194e-05
5.26191e-05
5.26615e-05
5.26205e-05
5.26204e-05
5.44843e-05
5.44284e-05
5.26625e-05
5.2622e-05
5.26214e-05
5.44303e-05
5.44388e-05
5.43768e-05
5.26131e-05
5.26139e-05
5.25648e-05
5.25657e-05
5.44394e-05
5.43772e-05
5.26133e-05
5.2613e-05
5.25649e-05
5.25649e-05
5.26145e-05
5.25662e-05
5.25668e-05
5.44395e-05
5.43782e-05
5.26156e-05
5.2568e-05
5.2568e-05
5.43794e-05
5.43882e-05
5.43194e-05
5.25588e-05
5.25598e-05
5.25096e-05
5.2511e-05
5.43887e-05
5.43213e-05
5.25589e-05
5.25589e-05
5.25098e-05
5.251e-05
5.2561e-05
5.25114e-05
5.25129e-05
5.4387e-05
5.43215e-05
5.25622e-05
5.25131e-05
5.2514e-05
5.43233e-05
5.4324e-05
5.4127e-05
5.24803e-05
5.24817e-05
5.23004e-05
5.2303e-05
5.43258e-05
5.41293e-05
5.24805e-05
5.24809e-05
5.23022e-05
5.23007e-05
5.24841e-05
5.23052e-05
5.23054e-05
5.4326e-05
5.41171e-05
5.24852e-05
5.23043e-05
5.23078e-05
5.41162e-05
5.39644e-05
5.13401e-05
5.13426e-05
5.39689e-05
5.13419e-05
5.13457e-05
4.17855e-05
4.17853e-05
4.17871e-05
5.13502e-05
5.39776e-05
5.13528e-05
6.857e-05
7.34383e-05
7.11956e-05
6.85739e-05
7.34438e-05
3.90958e-05
3.90969e-05
3.90994e-05
3.91e-05
6.06271e-05
5.1412e-05
6.47926e-05
4.67101e-05
7.11943e-05
6.06258e-05
5.14117e-05
4.67106e-05
6.4793e-05
5.3533e-05
6.99339e-05
6.99452e-05
6.86234e-05
7.34717e-05
6.86009e-05
7.34942e-05
7.12237e-05
7.12484e-05
6.8627e-05
7.34773e-05
6.86064e-05
7.34997e-05
3.91924e-05
3.91948e-05
3.91953e-05
3.9465e-05
3.94662e-05
3.94686e-05
3.94694e-05
6.07209e-05
6.48298e-05
4.6921e-05
5.16301e-05
6.06855e-05
6.48541e-05
4.69871e-05
7.1222e-05
7.1247e-05
6.07195e-05
4.69215e-05
6.48298e-05
5.16298e-05
6.0681e-05
4.69876e-05
6.48546e-05
6.99679e-05
6.9979e-05
5.37047e-05
6.99831e-05
6.99943e-05
6.86701e-05
7.35261e-05
6.86504e-05
7.35474e-05
7.12754e-05
7.12994e-05
6.86736e-05
7.35308e-05
6.86557e-05
7.35538e-05
3.9555e-05
3.95574e-05
3.95579e-05
3.98071e-05
3.98083e-05
3.98106e-05
3.98115e-05
6.08029e-05
6.48869e-05
4.7179e-05
5.18269e-05
6.07693e-05
6.4908e-05
4.72385e-05
7.12738e-05
7.1298e-05
6.08003e-05
4.71796e-05
6.48872e-05
5.18266e-05
6.07672e-05
4.7239e-05
6.49087e-05
7.00127e-05
7.00239e-05
5.38565e-05
7.00269e-05
7.00382e-05
6.87099e-05
7.35776e-05
6.86931e-05
7.35978e-05
7.13254e-05
7.13486e-05
6.87136e-05
7.3583e-05
6.86985e-05
7.36034e-05
3.98906e-05
3.9893e-05
3.98935e-05
4.01225e-05
4.01236e-05
4.01259e-05
4.01268e-05
6.08724e-05
6.49364e-05
4.74121e-05
5.20029e-05
6.08438e-05
6.49544e-05
4.7465e-05
7.13237e-05
7.13471e-05
6.08693e-05
4.74126e-05
6.49368e-05
5.20027e-05
6.0841e-05
4.74654e-05
6.49552e-05
7.00531e-05
7.00645e-05
5.3995e-05
7.00658e-05
7.00771e-05
6.8743e-05
7.36264e-05
6.8729e-05
7.36454e-05
7.13734e-05
7.13958e-05
6.87467e-05
7.3632e-05
6.87344e-05
7.3651e-05
4.01996e-05
4.0202e-05
4.02025e-05
4.04116e-05
4.04127e-05
4.0415e-05
4.04158e-05
6.09283e-05
6.49785e-05
4.76209e-05
5.21587e-05
6.09072e-05
6.49936e-05
4.76673e-05
7.13717e-05
7.13944e-05
6.09268e-05
4.76212e-05
6.49791e-05
5.21585e-05
6.09032e-05
4.76676e-05
6.49945e-05
7.00889e-05
7.01003e-05
5.41184e-05
7.00999e-05
7.01113e-05
6.87685e-05
7.36712e-05
6.87586e-05
7.3691e-05
7.14195e-05
7.1441e-05
6.87731e-05
7.36779e-05
6.87633e-05
7.36959e-05
4.04825e-05
4.04848e-05
4.04853e-05
4.06751e-05
4.06761e-05
4.06783e-05
4.06792e-05
6.09748e-05
6.50135e-05
4.78061e-05
5.22948e-05
6.09581e-05
6.50257e-05
4.78461e-05
7.14178e-05
7.14396e-05
6.09712e-05
4.78063e-05
6.5014e-05
5.22945e-05
6.09546e-05
4.78463e-05
6.50266e-05
7.012e-05
7.01313e-05
5.42267e-05
7.01294e-05
7.01408e-05
6.87883e-05
7.37151e-05
6.87811e-05
7.37321e-05
7.14635e-05
7.14842e-05
6.87926e-05
7.37198e-05
6.87852e-05
7.37383e-05
4.074e-05
4.07422e-05
4.07428e-05
4.09136e-05
4.09146e-05
4.09167e-05
4.09177e-05
6.10101e-05
6.50416e-05
4.79684e-05
5.24119e-05
6.09973e-05
6.5051e-05
4.80023e-05
7.14618e-05
7.14828e-05
6.10066e-05
4.79686e-05
6.50421e-05
5.24115e-05
6.09939e-05
4.80024e-05
6.50518e-05
7.01464e-05
7.01578e-05
5.43187e-05
7.01535e-05
7.01656e-05
6.88019e-05
7.37556e-05
6.87968e-05
7.37711e-05
7.15055e-05
7.15254e-05
6.88058e-05
7.37602e-05
6.88005e-05
7.37765e-05
4.09727e-05
4.09748e-05
4.09755e-05
4.11279e-05
4.11288e-05
4.11308e-05
4.11318e-05
6.10354e-05
6.50629e-05
4.81089e-05
5.25105e-05
6.1026e-05
6.50695e-05
4.81367e-05
7.15038e-05
7.15239e-05
6.10317e-05
4.8109e-05
6.50633e-05
5.25101e-05
6.10226e-05
4.81368e-05
6.50703e-05
7.01687e-05
7.01796e-05
5.43953e-05
7.01739e-05
7.01857e-05
6.88094e-05
7.37928e-05
6.88065e-05
7.38079e-05
7.15454e-05
7.15645e-05
6.88128e-05
7.37979e-05
6.88097e-05
7.38131e-05
4.11816e-05
4.11836e-05
4.11842e-05
4.13189e-05
4.13197e-05
4.13217e-05
4.13226e-05
6.10502e-05
6.50777e-05
4.82282e-05
5.25913e-05
6.1044e-05
6.50812e-05
4.82506e-05
7.15437e-05
7.1563e-05
6.10465e-05
4.82282e-05
6.5078e-05
5.25909e-05
6.10405e-05
4.82505e-05
6.50822e-05
7.01856e-05
7.01969e-05
5.44571e-05
7.01893e-05
7.02011e-05
6.88108e-05
7.38264e-05
6.88101e-05
7.38416e-05
7.15833e-05
7.16015e-05
6.88143e-05
7.38317e-05
6.88133e-05
7.38465e-05
4.13674e-05
4.13694e-05
4.13699e-05
4.14874e-05
4.14881e-05
4.149e-05
4.14908e-05
6.10551e-05
6.50859e-05
4.83273e-05
5.26551e-05
6.10525e-05
6.50867e-05
4.83445e-05
7.15814e-05
7.16001e-05
6.10514e-05
4.83273e-05
6.50861e-05
5.26547e-05
6.10489e-05
4.83444e-05
6.50876e-05
7.01981e-05
7.02095e-05
5.45049e-05
7.02005e-05
7.02119e-05
6.88067e-05
7.3858e-05
6.8808e-05
7.38721e-05
7.16188e-05
7.16365e-05
6.88103e-05
7.38643e-05
6.88113e-05
7.38765e-05
4.15311e-05
4.1533e-05
4.15334e-05
4.16342e-05
4.16349e-05
4.16368e-05
4.16374e-05
6.10508e-05
6.50874e-05
4.84072e-05
5.27026e-05
6.10516e-05
6.50857e-05
4.84195e-05
7.16171e-05
7.16351e-05
6.10472e-05
4.84071e-05
6.50876e-05
5.27023e-05
6.1048e-05
4.84194e-05
6.50863e-05
7.02063e-05
7.02177e-05
5.45393e-05
7.02069e-05
7.02183e-05
6.87975e-05
7.38875e-05
6.88009e-05
7.38987e-05
7.16522e-05
7.16694e-05
6.8801e-05
7.38921e-05
6.88042e-05
7.39052e-05
4.16735e-05
4.16754e-05
4.16756e-05
4.17606e-05
4.17611e-05
4.1763e-05
4.17634e-05
6.10375e-05
6.50829e-05
4.84684e-05
5.2735e-05
6.10418e-05
6.50783e-05
4.84766e-05
7.16506e-05
7.16681e-05
6.10342e-05
4.84684e-05
6.50831e-05
5.27347e-05
6.10385e-05
4.84766e-05
6.5079e-05
7.02104e-05
7.02218e-05
5.45626e-05
7.02092e-05
7.02205e-05
6.87834e-05
7.39134e-05
6.87886e-05
7.39237e-05
7.16834e-05
7.17003e-05
6.87871e-05
7.39182e-05
6.87919e-05
7.393e-05
4.17955e-05
4.17974e-05
4.17975e-05
4.18677e-05
4.1868e-05
4.18699e-05
4.187e-05
6.10157e-05
6.50725e-05
4.85119e-05
5.27525e-05
6.1024e-05
6.50652e-05
4.85169e-05
7.16819e-05
7.16991e-05
6.10127e-05
4.8512e-05
6.50725e-05
5.27525e-05
6.1021e-05
4.85171e-05
6.5066e-05
7.02109e-05
7.02221e-05
5.45721e-05
7.02075e-05
7.02188e-05
6.87645e-05
7.39363e-05
6.87717e-05
7.39463e-05
7.17124e-05
7.17295e-05
6.87684e-05
7.39422e-05
6.87748e-05
7.39521e-05
4.18982e-05
4.19002e-05
4.19e-05
4.19564e-05
4.19565e-05
4.19586e-05
4.19583e-05
6.09865e-05
6.50564e-05
4.85388e-05
5.27553e-05
6.09976e-05
6.50465e-05
4.85412e-05
7.17109e-05
7.17283e-05
6.09838e-05
4.85391e-05
6.5057e-05
5.27554e-05
6.09948e-05
4.85416e-05
6.50474e-05
7.02079e-05
7.02192e-05
5.45689e-05
7.0202e-05
7.02134e-05
6.87421e-05
7.3957e-05
6.87503e-05
7.39664e-05
7.17392e-05
7.17571e-05
6.87452e-05
7.39629e-05
6.87538e-05
7.39723e-05
4.19824e-05
4.19845e-05
4.1984e-05
4.20284e-05
4.20282e-05
4.20305e-05
4.20299e-05
6.09499e-05
6.50354e-05
4.85504e-05
5.27445e-05
6.09635e-05
6.50226e-05
4.85499e-05
7.17376e-05
7.17559e-05
6.09477e-05
4.8551e-05
6.50363e-05
5.27449e-05
6.09609e-05
4.85506e-05
6.50239e-05
7.0202e-05
7.02135e-05
5.4553e-05
7.01928e-05
7.02045e-05
6.87159e-05
7.3975e-05
6.87254e-05
7.39842e-05
7.17636e-05
7.17834e-05
6.87189e-05
7.39808e-05
6.87286e-05
7.399e-05
4.20491e-05
4.20513e-05
4.20507e-05
4.20846e-05
4.20841e-05
4.20869e-05
4.20858e-05
6.09086e-05
6.50103e-05
4.85477e-05
5.27216e-05
6.09228e-05
6.49936e-05
4.85436e-05
7.1762e-05
7.17821e-05
6.09067e-05
4.85486e-05
6.50116e-05
5.27223e-05
6.09209e-05
4.85447e-05
6.49953e-05
7.01938e-05
7.02054e-05
5.45279e-05
7.01801e-05
7.01919e-05
6.86872e-05
7.39904e-05
6.86977e-05
7.40005e-05
7.17854e-05
7.18089e-05
6.869e-05
7.39962e-05
6.87005e-05
7.40064e-05
4.21004e-05
4.21025e-05
4.2102e-05
4.2126e-05
4.21252e-05
4.21284e-05
4.2127e-05
6.08609e-05
6.49825e-05
4.85336e-05
5.26879e-05
6.08768e-05
6.49596e-05
4.85252e-05
7.17837e-05
7.18074e-05
6.08583e-05
4.8535e-05
6.49842e-05
5.2689e-05
6.08763e-05
4.85267e-05
6.49616e-05
7.0184e-05
7.01959e-05
5.44943e-05
7.01637e-05
7.01758e-05
6.86571e-05
7.40035e-05
6.86669e-05
7.40161e-05
7.18045e-05
7.1834e-05
6.86588e-05
7.40094e-05
6.86701e-05
7.40221e-05
4.21374e-05
4.21394e-05
4.21392e-05
4.21538e-05
4.21532e-05
4.21565e-05
4.21553e-05
6.08096e-05
6.49538e-05
4.85084e-05
5.26449e-05
6.08287e-05
6.49206e-05
4.8496e-05
7.18027e-05
7.18324e-05
6.08084e-05
4.85102e-05
6.49556e-05
5.26463e-05
6.08272e-05
4.84979e-05
6.49226e-05
7.01739e-05
7.0186e-05
5.44532e-05
7.01443e-05
7.01564e-05
6.86237e-05
7.40143e-05
6.86338e-05
7.4033e-05
7.18208e-05
7.18593e-05
6.86264e-05
7.40203e-05
6.86373e-05
7.4039e-05
4.21615e-05
4.21638e-05
4.21637e-05
4.21695e-05
4.21695e-05
4.21725e-05
4.21721e-05
6.07539e-05
6.49284e-05
4.84737e-05
5.25939e-05
6.07795e-05
6.48761e-05
4.84577e-05
7.18189e-05
7.18576e-05
6.07528e-05
4.84759e-05
6.49302e-05
5.25956e-05
6.07789e-05
4.846e-05
6.4878e-05
7.01654e-05
7.01776e-05
5.44053e-05
7.01231e-05
7.01353e-05
6.85846e-05
7.4023e-05
6.85956e-05
7.40544e-05
7.18351e-05
7.18853e-05
6.85875e-05
7.4029e-05
6.85985e-05
7.40604e-05
4.21737e-05
4.21765e-05
4.21763e-05
4.21646e-05
4.21653e-05
4.2168e-05
4.21683e-05
6.06889e-05
6.49148e-05
4.84313e-05
5.25359e-05
6.07233e-05
6.48225e-05
4.84107e-05
7.18332e-05
7.18835e-05
6.06879e-05
4.84338e-05
6.49163e-05
5.25377e-05
6.07224e-05
4.84133e-05
6.48237e-05
7.01617e-05
7.01739e-05
5.43519e-05
7.01035e-05
7.01156e-05
6.85218e-05
7.40266e-05
6.85418e-05
7.4086e-05
7.18492e-05
7.19148e-05
6.85244e-05
7.40324e-05
6.85446e-05
7.40918e-05
4.21665e-05
4.21692e-05
4.21695e-05
4.18126e-05
4.1814e-05
4.18149e-05
4.1816e-05
6.05808e-05
6.4923e-05
4.83763e-05
5.24733e-05
6.06642e-05
6.47267e-05
4.83096e-05
7.18474e-05
7.19132e-05
6.05798e-05
4.83794e-05
6.49236e-05
5.2474e-05
6.06632e-05
4.83121e-05
6.47268e-05
7.01554e-05
7.01674e-05
5.42823e-05
7.00387e-05
7.00507e-05
6.46096e-05
7.37963e-05
6.82929e-05
7.45901e-05
7.17911e-05
6.6161e-05
6.46111e-05
7.38005e-05
6.82947e-05
7.45968e-05
2.99004e-05
3.62647e-05
3.62636e-05
4.31739e-05
3.01862e-05
3.71313e-05
3.71306e-05
6.02902e-05
6.45623e-05
4.81225e-05
5.01402e-05
6.0365e-05
6.63408e-05
4.63127e-05
7.17887e-05
6.61678e-05
6.02888e-05
4.81246e-05
6.45616e-05
5.01061e-05
6.03636e-05
4.63211e-05
6.63448e-05
6.94286e-05
6.944e-05
5.35057e-05
7.07907e-05
7.08003e-05
7.11937e-05
7.11963e-05
5.35238e-05
6.99343e-05
6.99446e-05
7.12203e-05
7.11953e-05
7.12229e-05
7.11978e-05
5.35826e-05
6.99593e-05
6.99695e-05
6.99435e-05
6.99529e-05
6.85719e-05
7.34438e-05
6.06256e-05
5.14091e-05
6.47913e-05
4.67068e-05
6.06269e-05
5.14101e-05
6.47952e-05
4.67082e-05
6.85735e-05
7.34666e-05
7.34435e-05
6.85978e-05
6.85753e-05
7.34716e-05
7.34471e-05
6.85995e-05
6.06325e-05
5.14661e-05
6.48232e-05
4.68485e-05
6.47968e-05
4.67791e-05
6.06737e-05
6.06338e-05
5.14671e-05
6.48268e-05
4.68499e-05
6.4801e-05
4.67805e-05
6.0675e-05
5.3534e-05
6.99435e-05
6.9932e-05
7.11922e-05
7.12222e-05
7.11971e-05
5.3572e-05
6.99689e-05
6.99568e-05
6.99529e-05
6.99401e-05
7.12188e-05
7.11934e-05
6.06286e-05
5.14089e-05
6.47954e-05
4.67087e-05
6.85717e-05
7.34392e-05
6.06267e-05
5.14085e-05
4.67088e-05
6.47894e-05
6.85787e-05
7.34722e-05
7.34491e-05
6.86014e-05
6.06353e-05
5.14662e-05
6.48272e-05
4.68505e-05
6.48009e-05
4.6781e-05
6.0677e-05
6.85767e-05
7.34675e-05
7.34426e-05
6.85991e-05
6.06334e-05
5.14657e-05
4.68505e-05
6.48211e-05
4.67812e-05
6.47955e-05
6.06739e-05
6.85723e-05
7.34432e-05
6.06273e-05
5.14113e-05
4.671e-05
6.47919e-05
6.85715e-05
7.34406e-05
6.06381e-05
5.1469e-05
6.48242e-05
4.68518e-05
6.47984e-05
4.67825e-05
6.06754e-05
6.85779e-05
7.3471e-05
7.34466e-05
6.86e-05
6.06342e-05
5.14684e-05
4.68518e-05
6.48237e-05
4.67824e-05
6.47972e-05
6.06755e-05
6.8575e-05
7.34682e-05
7.34439e-05
6.85992e-05
5.35336e-05
6.99377e-05
6.9935e-05
7.11944e-05
7.12209e-05
7.11955e-05
5.35742e-05
6.99625e-05
6.99598e-05
6.99459e-05
6.99431e-05
7.12209e-05
7.11958e-05
6.06274e-05
5.14112e-05
4.67112e-05
6.47966e-05
6.85698e-05
7.3441e-05
6.85725e-05
7.34436e-05
6.06331e-05
5.14688e-05
4.68523e-05
6.48247e-05
4.67828e-05
6.47983e-05
6.06743e-05
6.06344e-05
5.14683e-05
4.68529e-05
6.48284e-05
4.67835e-05
6.4802e-05
6.06757e-05
6.85737e-05
7.34688e-05
7.34443e-05
6.85974e-05
6.85762e-05
7.34719e-05
7.34488e-05
6.85999e-05
7.11941e-05
7.11967e-05
5.3572e-05
6.99588e-05
6.99702e-05
6.99433e-05
6.99546e-05
7.12207e-05
7.11956e-05
7.12234e-05
7.11984e-05
7.12219e-05
7.12465e-05
7.12244e-05
7.12491e-05
6.9968e-05
6.99776e-05
5.3704e-05
6.9983e-05
6.99927e-05
7.12723e-05
7.1248e-05
7.12749e-05
7.12505e-05
5.37424e-05
7.00055e-05
7.00153e-05
6.99914e-05
7.00013e-05
6.86254e-05
7.34762e-05
6.86026e-05
7.34987e-05
6.0719e-05
6.48283e-05
4.69177e-05
5.1627e-05
6.06802e-05
6.4853e-05
4.69838e-05
6.07203e-05
6.4832e-05
4.6919e-05
5.16281e-05
6.06814e-05
6.48568e-05
4.69851e-05
6.86263e-05
7.35212e-05
7.34992e-05
6.86479e-05
6.86282e-05
7.35257e-05
7.35038e-05
6.86496e-05
6.07249e-05
5.1679e-05
6.4881e-05
4.71126e-05
6.48577e-05
4.70499e-05
6.0761e-05
6.07262e-05
5.168e-05
6.4885e-05
4.71139e-05
6.48616e-05
4.70512e-05
6.07624e-05
6.99769e-05
6.99648e-05
5.37042e-05
6.99927e-05
6.99806e-05
7.122e-05
7.1245e-05
7.12741e-05
7.12498e-05
5.37425e-05
7.00152e-05
7.00031e-05
7.00002e-05
6.99881e-05
7.12707e-05
7.12461e-05
6.07197e-05
6.48325e-05
4.69197e-05
5.1627e-05
6.06834e-05
6.48569e-05
4.69858e-05
6.86248e-05
7.34708e-05
6.86041e-05
7.34951e-05
6.07177e-05
4.69198e-05
6.4827e-05
5.16267e-05
6.06822e-05
4.69858e-05
6.4851e-05
6.86317e-05
7.3527e-05
7.35048e-05
6.86512e-05
6.07291e-05
5.16792e-05
6.48848e-05
4.71147e-05
6.48621e-05
4.70519e-05
6.07619e-05
6.86295e-05
7.3522e-05
7.34982e-05
6.86489e-05
6.07271e-05
5.16787e-05
4.71147e-05
6.4879e-05
4.7052e-05
6.48564e-05
6.07599e-05
6.86259e-05
7.34757e-05
6.86051e-05
7.34981e-05
6.07208e-05
4.69211e-05
6.48288e-05
5.16296e-05
6.06819e-05
4.69872e-05
6.48536e-05
6.8625e-05
7.3473e-05
6.86023e-05
7.34955e-05
6.07279e-05
5.1682e-05
6.4882e-05
4.71159e-05
6.48593e-05
4.70532e-05
6.0764e-05
6.86304e-05
7.35251e-05
7.35032e-05
6.86498e-05
6.07266e-05
5.16816e-05
4.71161e-05
6.48815e-05
4.70533e-05
6.48584e-05
6.07628e-05
6.86279e-05
7.35224e-05
7.35005e-05
6.86491e-05
6.99705e-05
6.99676e-05
5.37034e-05
6.99862e-05
6.99835e-05
7.12224e-05
7.12471e-05
7.12727e-05
7.12481e-05
5.37416e-05
7.00087e-05
7.0006e-05
6.99937e-05
6.9991e-05
7.12728e-05
7.12485e-05
6.0721e-05
4.69222e-05
6.48336e-05
5.16294e-05
6.06822e-05
4.69882e-05
6.48583e-05
6.86229e-05
7.34734e-05
6.86009e-05
7.34959e-05
6.86254e-05
7.34769e-05
6.86033e-05
7.34995e-05
6.07256e-05
5.16818e-05
4.71164e-05
6.48827e-05
4.70537e-05
6.48594e-05
6.07617e-05
6.07269e-05
5.16815e-05
4.7117e-05
6.48863e-05
4.70544e-05
6.48631e-05
6.07629e-05
6.86262e-05
7.35229e-05
7.35009e-05
6.86467e-05
6.86286e-05
7.35264e-05
7.35044e-05
6.86492e-05
7.12222e-05
7.12468e-05
7.12249e-05
7.12495e-05
5.37421e-05
7.00056e-05
7.00169e-05
6.99907e-05
7.00019e-05
7.12725e-05
7.12482e-05
7.12753e-05
7.1251e-05
7.12737e-05
7.12976e-05
7.12762e-05
7.13002e-05
7.00136e-05
7.00235e-05
5.3857e-05
7.00268e-05
7.00367e-05
7.13224e-05
7.12989e-05
7.1325e-05
7.13014e-05
5.38972e-05
7.0047e-05
7.00569e-05
7.00346e-05
7.00445e-05
6.86722e-05
7.35305e-05
6.86521e-05
7.3552e-05
6.08001e-05
6.48854e-05
4.71757e-05
5.18239e-05
6.07664e-05
6.49071e-05
4.72351e-05
6.08016e-05
6.48895e-05
4.71771e-05
5.18249e-05
6.07678e-05
6.49112e-05
4.72365e-05
6.86725e-05
7.3573e-05
7.35521e-05
6.86911e-05
6.86744e-05
7.35776e-05
7.35567e-05
6.86931e-05
6.08049e-05
5.1871e-05
6.49313e-05
4.73515e-05
6.49112e-05
4.72953e-05
6.08362e-05
6.08064e-05
5.1872e-05
6.49355e-05
4.73529e-05
6.49153e-05
4.72967e-05
6.08378e-05
7.00224e-05
7.00102e-05
5.38574e-05
7.00366e-05
7.00243e-05
7.12718e-05
7.1296e-05
7.13242e-05
7.13006e-05
5.38976e-05
7.00566e-05
7.00444e-05
7.00434e-05
7.0031e-05
7.13207e-05
7.1297e-05
6.08013e-05
6.48897e-05
4.71778e-05
5.1824e-05
6.0771e-05
6.4911e-05
4.72373e-05
6.86714e-05
7.3525e-05
6.86534e-05
7.35482e-05
6.07994e-05
4.71779e-05
6.4884e-05
5.18235e-05
6.07691e-05
4.72373e-05
6.49052e-05
6.86776e-05
7.35792e-05
7.35568e-05
6.86946e-05
6.08095e-05
5.18713e-05
6.49354e-05
4.73537e-05
6.49157e-05
4.72975e-05
6.08376e-05
6.86755e-05
7.35738e-05
7.35511e-05
6.86923e-05
6.08076e-05
5.18707e-05
4.73537e-05
6.49295e-05
4.72975e-05
6.49099e-05
6.08356e-05
6.86721e-05
7.35299e-05
6.86541e-05
7.35512e-05
6.08021e-05
4.71792e-05
6.48861e-05
5.18264e-05
6.07681e-05
4.72387e-05
6.49075e-05
6.86715e-05
7.35272e-05
6.86517e-05
7.35486e-05
6.08078e-05
5.18739e-05
6.49321e-05
4.73548e-05
6.49125e-05
4.72986e-05
6.08396e-05
6.86761e-05
7.35767e-05
7.3556e-05
6.86928e-05
6.08067e-05
5.18735e-05
4.7355e-05
6.49317e-05
4.72989e-05
6.49117e-05
6.08381e-05
6.86738e-05
7.35741e-05
7.35533e-05
6.86922e-05
7.00158e-05
7.00132e-05
5.38566e-05
7.00299e-05
7.00274e-05
7.12741e-05
7.12981e-05
7.13228e-05
7.12989e-05
5.38968e-05
7.00501e-05
7.00475e-05
7.00367e-05
7.00341e-05
7.13229e-05
7.12993e-05
6.08018e-05
4.71802e-05
6.48909e-05
5.18262e-05
6.07684e-05
4.72396e-05
6.49125e-05
6.86689e-05
7.35277e-05
6.86497e-05
7.35491e-05
6.86713e-05
7.35312e-05
6.86522e-05
7.35526e-05
6.08054e-05
5.18737e-05
4.73553e-05
6.49329e-05
4.72991e-05
6.49128e-05
6.08366e-05
6.08068e-05
5.18734e-05
4.73559e-05
6.49368e-05
4.72998e-05
6.49167e-05
6.08377e-05
6.86716e-05
7.35747e-05
7.35538e-05
6.86893e-05
6.86741e-05
7.35782e-05
7.35573e-05
6.86917e-05
7.12738e-05
7.12978e-05
7.12766e-05
7.13005e-05
5.38969e-05
7.00469e-05
7.00582e-05
7.00335e-05
7.00449e-05
7.13225e-05
7.1299e-05
7.13253e-05
7.13018e-05
7.13237e-05
7.13468e-05
7.13262e-05
7.13494e-05
7.00543e-05
7.00643e-05
5.3996e-05
7.00661e-05
7.00758e-05
7.13707e-05
7.1348e-05
7.13733e-05
7.13505e-05
5.40337e-05
7.00841e-05
7.00938e-05
7.00725e-05
7.00829e-05
6.87121e-05
7.35822e-05
6.8695e-05
7.36025e-05
6.08693e-05
6.49352e-05
4.74088e-05
5.20001e-05
6.08404e-05
6.49537e-05
4.74617e-05
6.08709e-05
6.49394e-05
4.74102e-05
5.2001e-05
6.0842e-05
6.49579e-05
4.74631e-05
6.87117e-05
7.3622e-05
7.36023e-05
6.87276e-05
6.87138e-05
7.36267e-05
7.3607e-05
6.87295e-05
6.0873e-05
5.20425e-05
6.4974e-05
4.75658e-05
6.49573e-05
4.75161e-05
6.08997e-05
6.08746e-05
5.20434e-05
6.49785e-05
4.75672e-05
6.49615e-05
4.75175e-05
6.09013e-05
7.00632e-05
7.00507e-05
5.39961e-05
7.00749e-05
7.00632e-05
7.13217e-05
7.13451e-05
7.13724e-05
7.13497e-05
5.4034e-05
7.00927e-05
7.00809e-05
7.0082e-05
7.00691e-05
7.13689e-05
7.13459e-05
6.08709e-05
6.49398e-05
4.7411e-05
5.20003e-05
6.08454e-05
6.49579e-05
4.74639e-05
6.87115e-05
7.35766e-05
6.86962e-05
7.35987e-05
6.08689e-05
4.7411e-05
6.49339e-05
5.19997e-05
6.08434e-05
4.74639e-05
6.49519e-05
6.8717e-05
7.36276e-05
7.36079e-05
6.87313e-05
6.08778e-05
5.20429e-05
6.49785e-05
4.75681e-05
6.49619e-05
4.75184e-05
6.09012e-05
6.87148e-05
7.36228e-05
7.36013e-05
6.87289e-05
6.08759e-05
5.20421e-05
4.75681e-05
6.49726e-05
4.75184e-05
6.4956e-05
6.08993e-05
6.87119e-05
7.35813e-05
6.86966e-05
7.36016e-05
6.08712e-05
4.74124e-05
6.49356e-05
5.20024e-05
6.08422e-05
4.74652e-05
6.4954e-05
6.87111e-05
7.35786e-05
6.86942e-05
7.35989e-05
6.08762e-05
5.20453e-05
6.49749e-05
4.75692e-05
6.49582e-05
4.75195e-05
6.09021e-05
6.87152e-05
7.36262e-05
7.3606e-05
6.87292e-05
6.08748e-05
5.20449e-05
4.75694e-05
6.49745e-05
4.75197e-05
6.49576e-05
6.09015e-05
6.87129e-05
7.3623e-05
7.36034e-05
6.87285e-05
7.00565e-05
7.00538e-05
5.39956e-05
7.00689e-05
7.00664e-05
7.13241e-05
7.13472e-05
7.1371e-05
7.13479e-05
5.40331e-05
7.00866e-05
7.0084e-05
7.00749e-05
7.00723e-05
7.13711e-05
7.13483e-05
6.08706e-05
4.74132e-05
6.49406e-05
5.20023e-05
6.08421e-05
4.7466e-05
6.49592e-05
6.8708e-05
7.35792e-05
6.86918e-05
7.35995e-05
6.87102e-05
7.35827e-05
6.86942e-05
7.3603e-05
6.08733e-05
5.20451e-05
4.75695e-05
6.49758e-05
4.75199e-05
6.49588e-05
6.09e-05
6.08745e-05
5.20448e-05
4.75701e-05
6.49797e-05
4.75206e-05
6.49626e-05
6.09008e-05
6.87103e-05
7.36236e-05
7.36039e-05
6.87252e-05
6.87124e-05
7.36271e-05
7.36075e-05
6.8727e-05
7.13237e-05
7.13468e-05
7.13265e-05
7.13496e-05
5.40348e-05
7.00834e-05
7.00948e-05
7.00717e-05
7.00831e-05
7.13706e-05
7.13479e-05
7.13735e-05
7.13507e-05
7.13717e-05
7.1394e-05
7.13743e-05
7.13966e-05
7.00896e-05
7.00998e-05
5.41179e-05
7.01006e-05
7.01106e-05
7.14169e-05
7.1395e-05
7.14195e-05
7.13976e-05
5.41541e-05
7.01159e-05
7.01259e-05
7.01057e-05
7.01157e-05
6.87452e-05
7.3631e-05
6.87309e-05
7.36501e-05
6.0927e-05
6.49777e-05
4.76175e-05
5.21559e-05
6.09028e-05
6.49927e-05
4.7664e-05
6.09286e-05
6.49818e-05
4.76189e-05
5.21568e-05
6.09043e-05
6.49972e-05
4.76654e-05
6.87442e-05
7.36686e-05
7.36496e-05
6.8757e-05
6.87462e-05
7.36728e-05
7.36543e-05
6.87593e-05
6.09296e-05
5.21939e-05
6.50098e-05
4.77563e-05
6.49962e-05
4.7713e-05
6.09514e-05
6.09312e-05
5.21947e-05
6.50142e-05
4.77577e-05
6.50002e-05
4.77144e-05
6.09532e-05
7.00993e-05
7.00865e-05
5.41181e-05
7.01092e-05
7.00973e-05
7.13696e-05
7.13922e-05
7.14186e-05
7.13967e-05
5.41544e-05
7.01245e-05
7.01126e-05
7.01155e-05
7.01025e-05
7.14151e-05
7.13929e-05
6.09286e-05
6.49822e-05
4.76198e-05
5.21563e-05
6.09078e-05
6.49974e-05
4.76663e-05
6.87446e-05
7.36254e-05
6.87321e-05
7.36463e-05
6.09267e-05
4.76198e-05
6.49763e-05
5.21556e-05
6.09059e-05
4.76663e-05
6.49913e-05
6.87495e-05
7.36738e-05
7.36553e-05
6.8761e-05
6.09344e-05
5.21944e-05
6.50143e-05
4.77587e-05
6.50007e-05
4.77153e-05
6.09534e-05
6.87473e-05
7.3669e-05
7.36487e-05
6.87587e-05
6.09325e-05
5.21935e-05
4.77586e-05
6.50082e-05
4.77153e-05
6.49948e-05
6.09514e-05
6.87449e-05
7.36288e-05
6.87323e-05
7.36499e-05
6.09285e-05
4.76211e-05
6.49778e-05
5.21583e-05
6.09045e-05
4.76675e-05
6.49933e-05
6.8744e-05
7.36273e-05
6.87299e-05
7.36464e-05
6.09339e-05
5.21966e-05
6.50106e-05
4.77596e-05
6.49969e-05
4.77164e-05
6.09532e-05
6.87471e-05
7.3672e-05
7.36523e-05
6.87592e-05
6.09312e-05
5.21963e-05
4.77598e-05
6.50102e-05
4.77166e-05
6.49962e-05
6.09529e-05
6.87451e-05
7.36691e-05
7.36506e-05
6.8758e-05
7.00923e-05
7.00896e-05
5.41175e-05
7.01031e-05
7.01005e-05
7.13721e-05
7.13945e-05
7.14172e-05
7.1395e-05
5.41537e-05
7.01185e-05
7.01158e-05
7.01083e-05
7.01057e-05
7.14173e-05
7.13954e-05
6.09277e-05
4.76219e-05
6.4983e-05
5.21582e-05
6.0904e-05
4.76682e-05
6.49984e-05
6.87406e-05
7.36279e-05
6.87271e-05
7.3647e-05
6.87421e-05
7.36314e-05
6.87289e-05
7.36505e-05
6.09298e-05
5.21964e-05
4.77599e-05
6.50115e-05
4.77167e-05
6.49974e-05
6.09501e-05
6.09309e-05
5.21962e-05
4.77605e-05
6.50154e-05
4.77174e-05
6.50014e-05
6.09509e-05
6.87422e-05
7.36697e-05
7.36512e-05
6.87538e-05
6.87438e-05
7.36734e-05
7.36547e-05
6.87556e-05
7.13716e-05
7.1394e-05
7.13745e-05
7.13968e-05
5.41551e-05
7.01152e-05
7.01266e-05
7.01051e-05
7.01164e-05
7.14168e-05
7.13949e-05
7.14197e-05
7.13977e-05
7.14178e-05
7.14393e-05
7.14203e-05
7.14419e-05
7.01207e-05
7.01307e-05
5.42251e-05
7.01301e-05
7.014e-05
7.14612e-05
7.14401e-05
7.14637e-05
7.14426e-05
5.4258e-05
7.01432e-05
7.0153e-05
7.01345e-05
7.01445e-05
6.87714e-05
7.36769e-05
6.876e-05
7.36948e-05
6.09719e-05
6.50129e-05
4.78027e-05
5.22921e-05
6.0954e-05
6.50251e-05
4.78428e-05
6.0974e-05
6.50168e-05
4.78041e-05
5.22929e-05
6.09555e-05
6.50293e-05
4.78442e-05
6.87706e-05
7.37122e-05
7.36932e-05
6.87794e-05
6.87721e-05
7.37161e-05
7.36988e-05
6.87819e-05
6.09758e-05
5.23257e-05
6.50387e-05
4.79238e-05
6.50279e-05
4.78868e-05
6.09907e-05
6.09771e-05
5.23265e-05
6.50428e-05
4.79251e-05
6.50317e-05
4.78881e-05
6.09925e-05
7.01304e-05
7.01175e-05
5.42253e-05
7.01386e-05
7.01267e-05