/*--------------------------------*- C++ -*----------------------------------*\
| =========                 |                                                 |
| \\      /  F ield         | OpenFOAM: The Open Source CFD Toolbox           |
|  \\    /   O peration     | Version:  v1906                                 |
|   \\  /    A nd           | Web:      www.OpenFOAM.com                      |
|    \\/     M anipulation  |                                                 |
\*---------------------------------------------------------------------------*/
FoamFile
{
    version     2.0;
    format      ascii;
    class       surfaceScalarField;
    location    "450";
    object      phi;
}
// * * * * * * * * * * * * * * * * * * * * * * * * * * * * * * * * * * * * * //

dimensions      [0 3 -1 0 0 0 0];
oriented        oriented;


internalField   nonuniform List<scalar> 
124908
(
1.24274e-07
1.2453e-07
-0.00118365
-7.714e-08
-7.72315e-08
0.00118356
-0.00113214
-1.19621e-06
-1.24408e-07
-5.08356e-08
0.00113212
-2.3384e-07
1.24105e-06
2.71937e-07
9.11119e-07
-2.12234e-07
-8.52362e-07
2.66224e-07
-0.00113178
-1.19079e-06
-1.24519e-07
-5.0609e-08
0.00113176
-2.33902e-07
1.23553e-06
2.71906e-07
9.10987e-07
-2.14907e-07
-8.52204e-07
2.68974e-07
-0.000270098
1.2249e-06
1.19091e-06
-1.97948e-07
-2.0328e-07
0.000268084
1.25855e-07
1.26157e-07
-0.00118328
-7.94272e-08
-7.95124e-08
0.00118319
-0.00113206
-1.19599e-06
-1.25982e-07
-5.15476e-08
0.00113204
-2.3374e-07
1.24088e-06
2.71767e-07
9.11005e-07
-2.12156e-07
-8.5221e-07
2.66056e-07
-0.0011317
-1.19059e-06
-1.26108e-07
-5.12827e-08
0.00113168
-2.33809e-07
1.23535e-06
2.71731e-07
9.10879e-07
-2.14831e-07
-8.52071e-07
2.68802e-07
-0.000270109
1.22469e-06
1.1907e-06
-1.97901e-07
-2.03223e-07
0.000268094
1.26962e-07
1.27273e-07
-0.00118291
-8.12539e-08
-8.13293e-08
0.00118282
-0.00113199
-1.19587e-06
-1.27078e-07
-5.20446e-08
0.00113198
-2.3372e-07
1.2407e-06
2.71575e-07
9.10839e-07
-2.12181e-07
-8.52179e-07
2.65826e-07
-0.00113163
-1.19047e-06
-1.27196e-07
-5.17887e-08
0.00113161
-2.33786e-07
1.23516e-06
2.71539e-07
9.10703e-07
-2.14858e-07
-8.52037e-07
2.68577e-07
-0.000270121
1.22457e-06
1.19059e-06
-1.97913e-07
-2.0323e-07
0.000268107
1.27569e-07
1.27912e-07
-0.00118254
-8.26345e-08
-8.27009e-08
0.00118245
-0.00113193
-1.19585e-06
-1.27703e-07
-5.23164e-08
0.00113192
-2.33771e-07
1.24048e-06
2.71336e-07
9.10624e-07
-2.12292e-07
-8.52255e-07
2.65564e-07
-0.00113157
-1.19044e-06
-1.27817e-07
-5.20947e-08
0.00113155
-2.3383e-07
1.23495e-06
2.71311e-07
9.10486e-07
-2.14972e-07
-8.52114e-07
2.68305e-07
-0.000270136
1.22454e-06
1.19056e-06
-1.97983e-07
-2.03302e-07
0.000268122
1.27731e-07
1.28087e-07
-0.00118219
-8.36125e-08
-8.36608e-08
0.0011821
-0.00113188
-1.19591e-06
-1.2791e-07
-5.23745e-08
0.00113187
-2.33898e-07
1.24022e-06
2.71078e-07
9.10367e-07
-2.12485e-07
-8.52427e-07
2.6526e-07
-0.00113151
-1.19049e-06
-1.28024e-07
-5.21797e-08
0.0011315
-2.33949e-07
1.2347e-06
2.71059e-07
9.10231e-07
-2.15174e-07
-8.52288e-07
2.67998e-07
-0.000270152
1.22458e-06
1.19061e-06
-1.98109e-07
-2.0342e-07
0.000268138
1.2747e-07
1.27828e-07
-0.00118183
-8.41778e-08
-8.42161e-08
0.00118175
-0.00113183
-1.19604e-06
-1.27705e-07
-5.2256e-08
0.00113182
-2.3408e-07
1.23995e-06
2.70793e-07
9.10084e-07
-2.1276e-07
-8.52682e-07
2.64914e-07
-0.00113147
-1.19063e-06
-1.27832e-07
-5.20783e-08
0.00113146
-2.34128e-07
1.23443e-06
2.70779e-07
9.09939e-07
-2.15445e-07
-8.52551e-07
2.67654e-07
-0.00027017
1.22469e-06
1.19073e-06
-1.98291e-07
-2.0359e-07
0.000268156
1.26833e-07
1.27216e-07
-0.00118149
-8.4414e-08
-8.44042e-08
0.0011814
-0.00113179
-1.19625e-06
-1.27127e-07
-5.19869e-08
0.00113179
-2.34313e-07
1.23967e-06
2.70499e-07
9.09743e-07
-2.13106e-07
-8.53042e-07
2.64536e-07
-0.00113143
-1.19083e-06
-1.27268e-07
-5.18447e-08
0.00113142
-2.34355e-07
1.23415e-06
2.7049e-07
9.09614e-07
-2.15793e-07
-8.529e-07
2.67275e-07
-0.000270189
1.22488e-06
1.19093e-06
-1.98524e-07
-2.03811e-07
0.000268175
1.2583e-07
1.26276e-07
-0.00118115
-8.4322e-08
-8.42593e-08
0.00118107
-0.00113176
-1.19652e-06
-1.26192e-07
-5.15781e-08
0.00113175
-2.346e-07
1.23936e-06
2.70181e-07
9.09416e-07
-2.13528e-07
-8.53489e-07
2.64116e-07
-0.0011314
-1.19109e-06
-1.26333e-07
-5.14772e-08
0.00113139
-2.34634e-07
1.23386e-06
2.70181e-07
9.09242e-07
-2.16214e-07
-8.53338e-07
2.66857e-07
-0.000270209
1.22513e-06
1.19119e-06
-1.98799e-07
-2.04084e-07
0.000268195
1.24536e-07
1.24996e-07
-0.00118082
-8.39326e-08
-8.38296e-08
0.00118074
-0.00113173
-1.19686e-06
-1.24954e-07
-5.10079e-08
0.00113173
-2.34941e-07
1.23903e-06
2.69837e-07
9.0897e-07
-2.14005e-07
-8.53981e-07
2.63667e-07
-0.00113137
-1.19142e-06
-1.25103e-07
-5.09467e-08
0.00113136
-2.34967e-07
1.23353e-06
2.69844e-07
9.08833e-07
-2.16689e-07
-8.53836e-07
2.66408e-07
-0.00027023
1.22545e-06
1.1915e-06
-1.99114e-07
-2.044e-07
0.000268217
1.23001e-07
1.23414e-07
-0.0011805
-8.32627e-08
-8.31752e-08
0.00118042
-0.00113171
-1.19725e-06
-1.23477e-07
-5.03183e-08
0.00113171
-2.35322e-07
1.23868e-06
2.69469e-07
9.08526e-07
-2.14528e-07
-8.54545e-07
2.63183e-07
-0.00113135
-1.19181e-06
-1.2364e-07
-5.02743e-08
0.00113134
-2.35344e-07
1.23319e-06
2.69481e-07
9.08398e-07
-2.17207e-07
-8.54396e-07
2.65931e-07
-0.000270252
1.22581e-06
1.19187e-06
-1.99458e-07
-2.04749e-07
0.000268239
1.21238e-07
1.21604e-07
-0.00118018
-8.23438e-08
-8.23048e-08
0.0011801
-0.00113169
-1.19769e-06
-1.2179e-07
-4.95339e-08
0.00113169
-2.35738e-07
1.23831e-06
2.69087e-07
9.08046e-07
-2.15094e-07
-8.55158e-07
2.62652e-07
-0.00113133
-1.19224e-06
-1.21946e-07
-4.94751e-08
0.00113133
-2.35755e-07
1.23281e-06
2.69102e-07
9.07918e-07
-2.17773e-07
-8.55009e-07
2.65399e-07
-0.000270275
1.22622e-06
1.19226e-06
-1.99824e-07
-2.0513e-07
0.000268261
1.19274e-07
1.19607e-07
-0.00117987
-8.1225e-08
-8.12356e-08
0.0011798
-0.00113168
-1.19817e-06
-1.19933e-07
-4.86781e-08
0.00113168
-2.36178e-07
1.2379e-06
2.68672e-07
9.07508e-07
-2.15679e-07
-8.558e-07
2.62063e-07
-0.00113131
-1.19272e-06
-1.2003e-07
-4.85854e-08
0.00113131
-2.36184e-07
1.23241e-06
2.68701e-07
9.07368e-07
-2.18375e-07
-8.55665e-07
2.64796e-07
-0.000270298
1.2267e-06
1.19271e-06
-2.00218e-07
-2.05558e-07
0.000268285
1.172e-07
1.17502e-07
-0.00117957
-7.99962e-08
-8.00577e-08
0.0011795
-0.00113167
-1.19868e-06
-1.17969e-07
-4.77906e-08
0.00113167
-2.36634e-07
1.23747e-06
2.68219e-07
9.06872e-07
-2.16251e-07
-8.56444e-07
2.61381e-07
-0.0011313
-1.19322e-06
-1.1797e-07
-4.76988e-08
0.0011313
-2.36598e-07
1.232e-06
2.68259e-07
9.06708e-07
-2.18971e-07
-8.56332e-07
2.64089e-07
-0.000270322
1.22721e-06
1.19317e-06
-2.00611e-07
-2.05998e-07
0.000268309
1.1513e-07
1.15397e-07
-0.00117928
-7.87435e-08
-7.88621e-08
0.00117921
-0.00113166
-1.19919e-06
-1.15965e-07
-4.69202e-08
0.00113166
-2.37062e-07
1.237e-06
2.67716e-07
9.06075e-07
-2.16743e-07
-8.57031e-07
2.60526e-07
-0.0011313
-1.19371e-06
-1.15864e-07
-4.68448e-08
0.0011313
-2.37006e-07
1.23154e-06
2.67777e-07
9.05887e-07
-2.19489e-07
-8.56943e-07
2.63208e-07
-0.000270347
1.22773e-06
1.19365e-06
-2.00988e-07
-2.06419e-07
0.000268333
1.13265e-07
1.13498e-07
-0.001179
-7.76463e-08
-7.78258e-08
0.00117893
-0.00113166
-1.19965e-06
-1.14091e-07
-4.61467e-08
0.00113166
-2.37399e-07
1.23642e-06
2.67128e-07
9.05006e-07
-2.16997e-07
-8.57427e-07
2.59349e-07
-0.00113129
-1.19415e-06
-1.13899e-07
-4.61015e-08
0.0011313
-2.37329e-07
1.23099e-06
2.67202e-07
9.04797e-07
-2.19759e-07
-8.57358e-07
2.62012e-07
-0.000270371
1.22823e-06
1.19411e-06
-2.01306e-07
-2.06768e-07
0.000268357
1.11948e-07
1.12143e-07
-0.00117873
-7.70263e-08
-7.72569e-08
0.00117866
-0.00113166
-1.19995e-06
-1.12695e-07
-4.54414e-08
0.00113166
-2.37539e-07
1.23567e-06
2.66301e-07
9.03373e-07
-2.16641e-07
-8.57384e-07
2.57468e-07
-0.00113129
-1.19445e-06
-1.12419e-07
-4.54066e-08
0.0011313
-2.37466e-07
1.23023e-06
2.66349e-07
9.03153e-07
-2.19413e-07
-8.57319e-07
2.60111e-07
-0.000270396
1.22858e-06
1.19446e-06
-2.01419e-07
-2.06885e-07
0.000268381
1.11769e-07
1.11965e-07
-0.00117846
-7.75599e-08
-7.78237e-08
0.00117839
-0.00113166
-1.1998e-06
-1.12382e-07
-4.46083e-08
0.00113167
-2.37113e-07
1.23429e-06
2.64723e-07
9.00576e-07
-2.14682e-07
-8.56306e-07
2.53793e-07
-0.00113129
-1.1943e-06
-1.12055e-07
-4.45783e-08
0.0011313
-2.37046e-07
1.22887e-06
2.64771e-07
9.00332e-07
-2.17452e-07
-8.56254e-07
2.56427e-07
-0.00027042
1.22848e-06
1.19438e-06
-2.00883e-07
-2.06328e-07
0.000268405
1.13872e-07
1.14099e-07
-0.00117821
-8.0888e-08
-8.11227e-08
0.00117815
-0.00113166
-1.19808e-06
-1.14266e-07
-4.24078e-08
0.00113168
-2.34662e-07
1.2309e-06
2.60566e-07
8.94798e-07
-2.08184e-07
-8.52737e-07
2.45026e-07
-0.00113129
-1.19258e-06
-1.13979e-07
-4.24306e-08
0.00113131
-2.34638e-07
1.22547e-06
2.60641e-07
8.94557e-07
-2.10951e-07
-8.52603e-07
2.47667e-07
-0.000270446
1.22683e-06
1.19275e-06
-1.98118e-07
-2.03524e-07
0.000268428
1.37246e-07
1.3772e-07
-0.00117798
-9.75169e-08
-1.03499e-07
0.0011779
-0.00113166
-1.19075e-06
-1.31917e-07
-4.68585e-08
0.00113171
-2.24346e-07
1.22337e-06
2.52151e-07
8.85052e-07
-1.90937e-07
-8.43879e-07
2.23618e-07
-0.00113131
-1.18257e-06
-1.37377e-07
-4.15572e-08
0.00113135
-2.24286e-07
1.2152e-06
2.49391e-07
8.82222e-07
-1.90982e-07
-8.41072e-07
2.26389e-07
-0.000270479
1.22228e-06
1.18552e-06
-1.84603e-07
-1.89971e-07
0.000268446
1.05513e-06
1.0624e-06
-0.00117764
-9.09762e-07
-8.98926e-07
0.00117734
-0.00113196
-1.08674e-06
-1.05617e-06
-4.43077e-07
0.00113245
-1.17993e-07
1.37681e-06
3.15226e-07
1.00701e-06
-5.2137e-08
-7.20632e-07
2.92806e-07
-0.00113161
-1.07846e-06
-1.06711e-06
-4.54398e-07
0.00113212
-1.17866e-07
1.37142e-06
3.18113e-07
1.00405e-06
-5.84068e-08
-7.17734e-07
2.95653e-07
-0.000270596
1.12091e-06
1.07884e-06
-7.88495e-08
-8.13467e-08
0.000268557
5.51358e-06
5.50643e-06
-0.00116432
-1.16872e-05
-1.15805e-05
0.000283382
0.000285636
0.000285363
0.000285364
4.52827e-06
6.71975e-06
7.16005e-06
4.53216e-06
6.72055e-06
7.16357e-06
-0.000280641
5.41779e-06
-5.5033e-06
5.9657e-06
-3.39022e-06
0.000278152
-0.000280615
-5.50568e-06
5.42311e-06
-3.3985e-06
5.96263e-06
0.000278134
-0.00027153
-5.41421e-06
-5.42569e-06
5.7474e-06
5.73555e-06
0.000270886
-1.27497e-06
-1.23839e-06
0.000270115
-0.000268088
2.38937e-07
2.46804e-07
0.00113131
-1.23733e-07
-0.00113133
-5.03633e-08
-1.23031e-06
2.77302e-07
-2.39454e-07
-8.52401e-07
2.6623e-07
-2.12269e-07
9.11115e-07
1.28042e-06
0.00113175
-1.23749e-07
-0.00113177
-5.01742e-08
-1.23586e-06
2.80083e-07
-2.42355e-07
-8.57873e-07
2.69005e-07
-2.15056e-07
9.16646e-07
-1.24109e-06
0.000270144
-0.000268109
2.41758e-07
2.44016e-07
0.00113241
-1.24016e-07
-0.00113243
-5.04935e-08
-1.19364e-06
2.74824e-07
-2.36791e-07
-8.55084e-07
2.69068e-07
-2.15026e-07
9.13931e-07
1.275e-06
0.00113141
-1.2364e-07
-0.00113143
-5.02378e-08
-1.23039e-06
2.80117e-07
-2.4232e-07
-8.5507e-07
2.68941e-07
-2.15e-07
9.13765e-07
-1.23883e-07
-0.00113216
-5.06024e-08
-1.19627e-06
2.71974e-07
-2.3387e-07
-8.52403e-07
2.66248e-07
9.11143e-07
-2.1227e-07
1.26952e-06
0.0011312
-1.23751e-07
-0.00113122
-5.01661e-08
-1.22496e-06
2.74488e-07
-2.36686e-07
-8.524e-07
2.66228e-07
-2.12231e-07
9.11126e-07
-1.23557e-06
0.000270093
-0.000268068
2.39061e-07
2.46619e-07
-1.24e-07
-0.0011318
-5.03802e-08
-1.19086e-06
2.71944e-07
-2.33927e-07
-8.52199e-07
2.68977e-07
9.11066e-07
-2.14955e-07
1.2357e-06
0.00113231
-1.23985e-07
-0.00113233
-5.05066e-08
-1.19096e-06
2.72072e-07
-2.34008e-07
-8.52455e-07
2.69037e-07
-2.15002e-07
9.11293e-07
-0.000268081
2.41523e-07
2.46787e-07
1.23025e-06
1.19359e-06
-1.9537e-07
-2.03208e-07
0.00026809
-1.27481e-06
-1.23822e-06
0.000270126
-0.000268098
2.38647e-07
2.46523e-07
-5.06099e-08
0.00113129
-2.39415e-07
1.27492e-06
2.77269e-07
9.11091e-07
-2.12216e-07
-8.5235e-07
2.66202e-07
-1.2358e-06
-1.24273e-07
-5.0373e-08
0.00113173
-2.42328e-07
1.28038e-06
2.80044e-07
9.16613e-07
-2.1501e-07
-8.57834e-07
2.68989e-07
0.00113123
-1.25436e-07
-0.00113125
-5.11145e-08
-1.23009e-06
2.7714e-07
-2.39335e-07
-8.52216e-07
2.66077e-07
-2.12158e-07
9.11018e-07
1.28025e-06
0.00113167
-1.25466e-07
-0.00113169
-5.08813e-08
-1.23562e-06
2.79921e-07
-2.42239e-07
-8.57726e-07
2.68866e-07
-2.14956e-07
9.16556e-07
-1.98053e-07
-2.0058e-07
0.000268111
-1.24092e-06
0.000270155
-0.000268119
2.41472e-07
2.43727e-07
-5.07412e-08
0.00113239
-2.36759e-07
1.23834e-06
2.7478e-07
9.13908e-07
-2.14997e-07
-8.55026e-07
2.6904e-07
-1.23033e-06
-1.24165e-07
-5.04416e-08
0.00113139
-2.42294e-07
1.27496e-06
2.80077e-07
9.13734e-07
-2.14966e-07
-8.5502e-07
2.68905e-07
0.00113233
-1.25733e-07
-0.00113235
-5.11944e-08
-1.19343e-06
2.74653e-07
-2.36681e-07
-8.54901e-07
2.68916e-07
-2.14912e-07
9.13836e-07
1.27483e-06
0.00113133
-1.25338e-07
-0.00113135
-5.09589e-08
-1.23016e-06
2.79947e-07
-2.4221e-07
-8.5491e-07
2.68779e-07
-2.14906e-07
9.13659e-07
-1.24271e-07
-5.03873e-08
0.00113118
-2.36658e-07
1.26949e-06
2.74452e-07
9.11104e-07
-2.12206e-07
2.66198e-07
-8.52351e-07
-1.25569e-07
-0.00113208
-5.13352e-08
-1.19604e-06
2.71806e-07
-2.33759e-07
-8.52238e-07
2.66087e-07
9.1103e-07
-2.12171e-07
1.26935e-06
0.00113112
-1.25457e-07
-0.00113114
-5.08899e-08
-1.22473e-06
2.7432e-07
-2.36581e-07
-8.52243e-07
2.66059e-07
-2.12151e-07
9.11013e-07
-1.95465e-07
-2.03115e-07
0.00026807
-1.23539e-06
0.000270103
-0.000268078
2.38764e-07
2.46323e-07
-1.24524e-07
-5.07206e-08
0.00113229
-2.33985e-07
1.23566e-06
2.72031e-07
9.11273e-07
-2.14965e-07
2.69006e-07
-8.52403e-07
-1.25698e-07
-0.00113172
-5.10904e-08
-1.19063e-06
2.71771e-07
-2.33825e-07
-8.52037e-07
2.68821e-07
9.10962e-07
-2.14849e-07
1.23553e-06
0.00113223
-1.25701e-07
-0.00113225
-5.12129e-08
-1.19074e-06
2.71897e-07
-2.33911e-07
-8.52288e-07
2.68869e-07
-2.14916e-07
9.11188e-07
-0.000268091
2.41222e-07
2.46496e-07
1.23004e-06
1.19339e-06
-1.95322e-07
-2.03151e-07
0.000268101
-1.27463e-06
-1.23803e-06
0.000270138
-0.00026811
2.38333e-07
2.46222e-07
-5.13082e-08
0.00113121
-2.39317e-07
1.27477e-06
2.77103e-07
9.10978e-07
-2.12126e-07
-8.52194e-07
2.66037e-07
-1.23558e-06
-1.2591e-07
-5.10542e-08
0.00113166
-2.42225e-07
1.28021e-06
2.79878e-07
9.16531e-07
-2.14927e-07
-8.57702e-07
2.6883e-07
0.00113116
-1.26621e-07
-0.00113117
-5.16428e-08
-1.22994e-06
2.76957e-07
-2.39291e-07
-8.5216e-07
2.65864e-07
-2.12151e-07
9.10858e-07
1.28005e-06
0.0011316
-1.26682e-07
-0.00113162
-5.13779e-08
-1.23549e-06
2.79722e-07
-2.42212e-07
-8.57654e-07
2.6865e-07
-2.14952e-07
9.16407e-07
-1.97986e-07
-2.00516e-07
0.000268122
-1.24074e-06
0.000270168
-0.000268131
2.41162e-07
2.43414e-07
-5.14102e-08
0.00113232
-2.36667e-07
1.23818e-06
2.74612e-07
9.13801e-07
-2.14899e-07
-8.54873e-07
2.68882e-07
-1.23012e-06
-1.25774e-07
-5.11314e-08
0.00113131
-2.42195e-07
1.27478e-06
2.79906e-07
9.13649e-07
-2.14894e-07
-8.54869e-07
2.68734e-07
0.00113227
-1.26953e-07
-0.00113228
-5.16854e-08
-1.19329e-06
2.74452e-07
-2.36654e-07
-8.54861e-07
2.68705e-07
-2.14904e-07
9.13714e-07
1.27464e-06
0.00113126
-1.26527e-07
-0.00113128
-5.14863e-08
-1.23002e-06
2.79755e-07
-2.42175e-07
-8.54843e-07
2.68571e-07
-2.14895e-07
9.13503e-07
-1.25868e-07
-5.10694e-08
0.00113111
-2.36565e-07
1.26931e-06
2.7428e-07
9.10984e-07
-2.1212e-07
2.6602e-07
-8.52222e-07
-1.26759e-07
-0.00113201
-5.18837e-08
-1.19589e-06
2.71617e-07
-2.33719e-07
-8.52182e-07
2.65883e-07
9.10874e-07
-2.12166e-07
1.26916e-06
0.00113105
-1.26621e-07
-0.00113107
-5.14016e-08
-1.22459e-06
2.74123e-07
-2.36545e-07
-8.52184e-07
2.65845e-07
-2.12139e-07
9.10852e-07
-1.9541e-07
-2.0306e-07
0.000268081
-1.2352e-06
0.000270116
-0.000268091
2.38455e-07
2.46013e-07
-1.2614e-07
-5.13754e-08
0.00113221
-2.33898e-07
1.23548e-06
2.71854e-07
9.11162e-07
-2.14889e-07
2.68836e-07
-8.52266e-07
-1.26878e-07
-0.00113164
-5.16347e-08
-1.19049e-06
2.7158e-07
-2.33786e-07
-8.51982e-07
2.68604e-07
9.10802e-07
-2.14856e-07
1.23533e-06
0.00113216
-1.26886e-07
-0.00113218
-5.16983e-08
-1.19061e-06
2.71693e-07
-2.33883e-07
-8.52226e-07
2.68663e-07
-2.14902e-07
9.11029e-07
-0.000268104
2.40905e-07
2.46186e-07
1.22992e-06
1.19328e-06
-1.95336e-07
-2.03153e-07
0.000268114
-1.27443e-06
-1.23782e-06
0.000270153
-0.000268125
2.37998e-07
2.45896e-07
-5.18076e-08
0.00113114
-2.39291e-07
1.27459e-06
2.76916e-07
9.10808e-07
-2.12152e-07
-8.52165e-07
2.65813e-07
-1.23547e-06
-1.27017e-07
-5.15126e-08
0.00113159
-2.42212e-07
1.28001e-06
2.7968e-07
9.1636e-07
-2.14953e-07
-8.57664e-07
2.68601e-07
0.0011311
-1.27318e-07
-0.00113111
-5.19757e-08
-1.22989e-06
2.76739e-07
-2.3932e-07
-8.52221e-07
2.65593e-07
-2.12248e-07
9.10644e-07
1.27985e-06
0.00113154
-1.27391e-07
-0.00113156
-5.17013e-08
-1.23544e-06
2.79507e-07
-2.42238e-07
-8.57718e-07
2.68381e-07
-2.15048e-07
9.16191e-07
-1.97998e-07
-2.00528e-07
0.000268135
-1.24053e-06
0.000270182
-0.000268146
2.40825e-07
2.43091e-07
-5.1865e-08
0.00113225
-2.36658e-07
1.23799e-06
2.74408e-07
9.13635e-07
-2.14917e-07
-8.54842e-07
2.68667e-07
-1.23e-06
-1.26866e-07
-5.16106e-08
0.00113124
-2.42174e-07
1.2746e-06
2.79714e-07
9.13463e-07
-2.14909e-07
-8.54855e-07
2.68519e-07
0.0011322
-1.27663e-07
-0.00113222
-5.19848e-08
-1.19325e-06
2.74224e-07
-2.36692e-07
-8.54888e-07
2.68453e-07
-2.14992e-07
9.13475e-07
1.27444e-06
0.0011312
-1.27235e-07
-0.00113121
-5.18149e-08
-1.22997e-06
2.79542e-07
-2.42203e-07
-8.54901e-07
2.683e-07
-2.14998e-07
9.13292e-07
-1.26941e-07
-5.15321e-08
0.00113104
-2.36545e-07
1.26912e-06
2.7408e-07
9.10806e-07
-2.12155e-07
2.65795e-07
-8.52195e-07
-1.27454e-07
-0.00113195
-5.21912e-08
-1.19584e-06
2.71389e-07
-2.33754e-07
-8.5223e-07
2.6562e-07
9.10668e-07
-2.12257e-07
1.26895e-06
0.00113099
-1.27306e-07
-0.00113101
-5.1706e-08
-1.22454e-06
2.73904e-07
-2.36573e-07
-8.52241e-07
2.65581e-07
-2.12237e-07
9.10642e-07
-1.95416e-07
-2.0307e-07
0.000268094
-1.235e-06
0.00027013
-0.000268105
2.38128e-07
2.45689e-07
-1.27215e-07
-5.18185e-08
0.00113214
-2.33884e-07
1.23529e-06
2.7165e-07
9.10984e-07
-2.14911e-07
2.68617e-07
-8.52238e-07
-1.27568e-07
-0.00113158
-5.19618e-08
-1.19044e-06
2.71362e-07
-2.33817e-07
-8.52039e-07
2.68339e-07
9.10593e-07
-2.14958e-07
1.23512e-06
0.0011321
-1.27567e-07
-0.00113211
-5.19865e-08
-1.19056e-06
2.7147e-07
-2.33916e-07
-8.52281e-07
2.68403e-07
-2.14992e-07
9.10819e-07
-0.000268118
2.40574e-07
2.45855e-07
1.22988e-06
1.19325e-06
-1.95411e-07
-2.03219e-07
0.000268128
-1.27419e-06
-1.23757e-06
0.000270169
-0.000268141
2.37631e-07
2.45537e-07
-5.21066e-08
0.00113108
-2.39331e-07
1.27438e-06
2.76692e-07
9.10585e-07
-2.12284e-07
-8.52253e-07
2.65533e-07
-1.23544e-06
-1.27645e-07
-5.18181e-08
0.00113153
-2.42246e-07
1.27981e-06
2.79461e-07
9.16136e-07
-2.15082e-07
-8.57753e-07
2.68322e-07
0.00113105
-1.27545e-07
-0.00113106
-5.21161e-08
-1.22991e-06
2.76499e-07
-2.39411e-07
-8.5238e-07
2.65278e-07
-2.12437e-07
9.10386e-07
1.27962e-06
0.00113149
-1.27612e-07
-0.0011315
-5.18698e-08
-1.23545e-06
2.79279e-07
-2.42317e-07
-8.57881e-07
2.68063e-07
-2.15242e-07
9.1593e-07
-1.98074e-07
-2.00589e-07
0.000268149
-1.24027e-06
0.000270198
-0.000268162
2.4045e-07
2.42744e-07
-5.21391e-08
0.00113219
-2.36708e-07
1.23777e-06
2.74172e-07
9.13427e-07
-2.15034e-07
-8.54922e-07
2.68392e-07
-1.22997e-06
-1.27491e-07
-5.1935e-08
0.00113118
-2.42213e-07
1.27439e-06
2.79494e-07
9.1324e-07
-2.15035e-07
-8.54938e-07
2.68239e-07
0.00113215
-1.27911e-07
-0.00113216
-5.20793e-08
-1.19328e-06
2.73973e-07
-2.36796e-07
-8.55049e-07
2.68143e-07
-2.15183e-07
9.13218e-07
1.2742e-06
0.00113115
-1.27461e-07
-0.00113116
-5.19908e-08
-1.22998e-06
2.7931e-07
-2.42283e-07
-8.55065e-07
2.6798e-07
-2.15194e-07
9.13028e-07
-1.27547e-07
-5.18096e-08
0.00113098
-2.36588e-07
1.26891e-06
2.73856e-07
9.10587e-07
-2.1227e-07
2.65522e-07
-8.52274e-07
-1.27718e-07
-0.00113189
-5.22772e-08
-1.19588e-06
2.71128e-07
-2.33866e-07
-8.52382e-07
2.65323e-07
9.10419e-07
-2.12431e-07
1.26871e-06
0.00113094
-1.27544e-07
-0.00113095
-5.18564e-08
-1.22456e-06
2.73659e-07
-2.36653e-07
-8.52397e-07
2.65269e-07
-2.12425e-07
9.10383e-07
-1.95487e-07
-2.03135e-07
0.000268109
-1.23475e-06
0.000270147
-0.000268121
2.37754e-07
2.45338e-07
-1.27818e-07
-5.20801e-08
0.00113209
-2.33932e-07
1.23507e-06
2.7142e-07
9.10767e-07
-2.15026e-07
2.68344e-07
-8.52316e-07
-1.27832e-07
-0.00113153
-5.20795e-08
-1.19047e-06
2.71108e-07
-2.33917e-07
-8.52192e-07
2.68035e-07
9.10341e-07
-2.15138e-07
1.23487e-06
0.00113205
-1.27802e-07
-0.00113206
-5.21119e-08
-1.19058e-06
2.71221e-07
-2.34007e-07
-8.52437e-07
2.68092e-07
-2.15182e-07
9.10564e-07
-0.000268134
2.40207e-07
2.45498e-07
1.22993e-06
1.19331e-06
-1.9554e-07
-2.03349e-07
0.000268145
-1.27393e-06
-1.23731e-06
0.000270187
-0.000268158
2.37254e-07
2.45162e-07
-5.22177e-08
0.00113103
-2.39433e-07
1.27414e-06
2.76452e-07
9.10317e-07
-2.12494e-07
-8.52436e-07
2.65213e-07
-1.23547e-06
-1.27793e-07
-5.19647e-08
0.00113148
-2.4234e-07
1.27958e-06
2.79237e-07
9.15866e-07
-2.15299e-07
-8.57942e-07
2.67997e-07
0.001131
-1.27348e-07
-0.00113101
-5.20681e-08
-1.23001e-06
2.76238e-07
-2.39559e-07
-8.52627e-07
2.64932e-07
-2.12703e-07
9.10089e-07
1.27939e-06
0.00113145
-1.27401e-07
-0.00113146
-5.18767e-08
-1.23554e-06
2.79038e-07
-2.42444e-07
-8.58139e-07
2.67707e-07
-2.15516e-07
9.15625e-07
-1.98215e-07
-2.00702e-07
0.000268166
-1.24e-06
0.000270216
-0.000268179
2.40063e-07
2.42386e-07
-5.22095e-08
0.00113214
-2.36828e-07
1.23752e-06
2.73922e-07
9.13163e-07
-2.15244e-07
-8.55106e-07
2.68073e-07
-1.23e-06
-1.27639e-07
-5.20924e-08
0.00113113
-2.42307e-07
1.27416e-06
2.79269e-07
9.1297e-07
-2.15253e-07
-8.5513e-07
2.67911e-07
0.00113211
-1.27721e-07
-0.00113212
-5.2007e-08
-1.19339e-06
2.73707e-07
-2.36947e-07
-8.55303e-07
2.67794e-07
-2.15452e-07
9.12921e-07
1.27397e-06
0.0011311
-1.27239e-07
-0.00113111
-5.20264e-08
-1.23007e-06
2.79072e-07
-2.42409e-07
-8.55328e-07
2.6762e-07
-2.15473e-07
9.1272e-07
-1.27715e-07
-5.19431e-08
0.00113093
-2.36691e-07
1.26867e-06
2.73615e-07
9.10327e-07
-2.12481e-07
2.65206e-07
-8.52455e-07
-1.27573e-07
-0.00113184
-5.21821e-08
-1.196e-06
2.70853e-07
-2.34027e-07
-8.52616e-07
2.64987e-07
9.10122e-07
-2.12685e-07
1.26846e-06
0.0011309
-1.27349e-07
-0.00113091
-5.18583e-08
-1.22465e-06
2.73422e-07
-2.36797e-07
-8.5265e-07
2.64915e-07
-2.12695e-07
9.10086e-07
-1.95624e-07
-2.0325e-07
0.000268125
-1.23448e-06
0.000270164
-0.000268138
2.37367e-07
2.44982e-07
-1.27995e-07
-5.21863e-08
0.00113203
-2.34039e-07
1.23482e-06
2.71173e-07
9.10507e-07
-2.15234e-07
2.68029e-07
-8.52496e-07
-1.277e-07
-0.00113148
-5.20047e-08
-1.19058e-06
2.70835e-07
-2.34077e-07
-8.52432e-07
2.677e-07
9.10058e-07
-2.15391e-07
1.2346e-06
0.001132
-1.27637e-07
-0.00113201
-5.20567e-08
-1.19069e-06
2.70958e-07
-2.34165e-07
-8.52683e-07
2.67749e-07
-2.15441e-07
9.10274e-07
-0.000268151
2.39825e-07
2.45125e-07
1.23006e-06
1.19343e-06
-1.95723e-07
-2.03528e-07
0.000268163
-1.27366e-06
-1.23703e-06
0.000270206
-0.000268177
2.36862e-07
2.44775e-07
-5.21424e-08
0.00113099
-2.39605e-07
1.27388e-06
2.76185e-07
9.10019e-07
-2.12779e-07
-8.52709e-07
2.64858e-07
-1.23558e-06
-1.27513e-07
-5.19449e-08
0.00113144
-2.42488e-07
1.27934e-06
2.78989e-07
9.15556e-07
-2.15594e-07
-8.58225e-07
2.67631e-07
0.00113096
-1.26723e-07
-0.00113097
-5.18499e-08
-1.23018e-06
2.75958e-07
-2.39763e-07
-8.52983e-07
2.64545e-07
-2.1304e-07
9.09749e-07
1.27913e-06
0.00113141
-1.2676e-07
-0.00113142
-5.17078e-08
-1.2357e-06
2.78772e-07
-2.42634e-07
-8.58485e-07
2.67311e-07
-2.15863e-07
9.15284e-07
-1.98407e-07
-2.00865e-07
0.000268184
-1.23972e-06
0.000270235
-0.000268198
2.39663e-07
2.42011e-07
-5.21073e-08
0.0011321
-2.36996e-07
1.23726e-06
2.73652e-07
9.12855e-07
-2.15533e-07
-8.55387e-07
2.67716e-07
-1.23011e-06
-1.27354e-07
-5.21006e-08
0.00113109
-2.42452e-07
1.27392e-06
2.79024e-07
9.12656e-07
-2.15551e-07
-8.55415e-07
2.67545e-07
0.00113207
-1.27112e-07
-0.00113208
-5.17467e-08
-1.19356e-06
2.73418e-07
-2.37157e-07
-8.55644e-07
2.67406e-07
-2.15795e-07
9.12584e-07
1.27371e-06
0.00113106
-1.26607e-07
-0.00113107
-5.18775e-08
-1.23022e-06
2.78808e-07
-2.42596e-07
-8.55673e-07
2.67224e-07
-2.1582e-07
9.12377e-07
-1.2746e-07
-5.19239e-08
0.00113089
-2.36841e-07
1.26843e-06
2.73369e-07
9.10016e-07
-2.12773e-07
2.64839e-07
-8.52735e-07
-1.27011e-07
-0.0011318
-5.19236e-08
-1.19618e-06
2.70556e-07
-2.34246e-07
-8.52946e-07
2.6461e-07
9.09808e-07
-2.13012e-07
1.26821e-06
0.00113086
-1.26735e-07
-0.00113087
-5.17069e-08
-1.22482e-06
2.73146e-07
-2.36991e-07
-8.52993e-07
2.64519e-07
-2.13042e-07
9.09744e-07
-1.95816e-07
-2.03412e-07
0.000268143
-1.2342e-06
0.000270184
-0.000268157
2.36971e-07
2.4461e-07
-1.27772e-07
-5.21101e-08
0.00113199
-2.34214e-07
1.23456e-06
2.70902e-07
9.10208e-07
-2.15516e-07
2.67676e-07
-8.52766e-07
-1.2715e-07
-0.00113144
-5.17686e-08
-1.19076e-06
2.70545e-07
-2.34291e-07
-8.52754e-07
2.67325e-07
9.09734e-07
-2.15717e-07
1.23434e-06
0.00113196
-1.27076e-07
-0.00113197
-5.18535e-08
-1.19087e-06
2.7067e-07
-2.34373e-07
-8.53014e-07
2.67364e-07
-2.15777e-07
9.09942e-07
-0.00026817
2.39438e-07
2.44754e-07
1.23025e-06
1.19363e-06
-1.95953e-07
-2.03755e-07
0.000268182
-1.27337e-06
-1.23672e-06
0.000270226
-0.000268197
2.36448e-07
2.44368e-07
-5.1926e-08
0.00113095
-2.39825e-07
1.27361e-06
2.75904e-07
9.0968e-07
-2.13137e-07
-8.53075e-07
2.64468e-07
-1.23576e-06
-1.26865e-07
-5.17719e-08
0.0011314
-2.42693e-07
1.27908e-06
2.78722e-07
9.15214e-07
-2.15962e-07
-8.58593e-07
2.67234e-07
0.00113093
-1.25693e-07
-0.00113094
-5.14782e-08
-1.23042e-06
2.75652e-07
-2.40019e-07
-8.53384e-07
2.64113e-07
-2.13452e-07
9.09371e-07
1.27885e-06
0.00113137
-1.25731e-07
-0.00113138
-5.13834e-08
-1.23592e-06
2.78485e-07
-2.42873e-07
-8.58909e-07
2.66874e-07
-2.16281e-07
9.14897e-07
-1.98645e-07
-2.01077e-07
0.000268203
-1.23941e-06
0.000270255
-0.000268218
2.39243e-07
2.41619e-07
-5.18395e-08
0.00113206
-2.37225e-07
1.23698e-06
2.73361e-07
9.1252e-07
-2.15896e-07
-8.55748e-07
2.67327e-07
-1.23028e-06
-1.26722e-07
-5.19394e-08
0.00113105
-2.42656e-07
1.27367e-06
2.78757e-07
9.12311e-07
-2.15919e-07
-8.55783e-07
2.67147e-07
0.00113203
-1.26139e-07
-0.00113204
-5.1328e-08
-1.19381e-06
2.73104e-07
-2.37423e-07
-8.56063e-07
2.66985e-07
-2.16205e-07
9.12212e-07
1.27343e-06
0.00113103
-1.25607e-07
-0.00113104
-5.15526e-08
-1.23045e-06
2.78516e-07
-2.4284e-07
-8.56095e-07
2.66792e-07
-2.16235e-07
9.11997e-07
-1.26835e-07
-5.17684e-08
0.00113085
-2.37052e-07
1.26817e-06
2.73096e-07
9.09672e-07
-2.13142e-07
2.64441e-07
-8.53101e-07
-1.26044e-07
-0.00113177
-5.14963e-08
-1.19643e-06
2.70238e-07
-2.34516e-07
-8.53349e-07
2.64192e-07
9.09427e-07
-2.13411e-07
1.26793e-06
0.00113082
-1.25728e-07
-0.00113083
-5.13763e-08
-1.22505e-06
2.72848e-07
-2.37241e-07
-8.53416e-07
2.64086e-07
-2.13457e-07
9.0936e-07
-1.96049e-07
-2.03624e-07
0.000268162
-1.2339e-06
0.000270204
-0.000268177
2.36557e-07
2.44214e-07
-1.27202e-07
-5.19097e-08
0.00113195
-2.34436e-07
1.23429e-06
2.70618e-07
9.09874e-07
-2.15874e-07
2.67288e-07
-8.53122e-07
-1.26188e-07
-0.00113141
-5.13926e-08
-1.191e-06
2.70234e-07
-2.34552e-07
-8.53167e-07
2.66906e-07
9.09365e-07
-2.16118e-07
1.23404e-06
0.00113193
-1.26105e-07
-0.00113194
-5.14805e-08
-1.1911e-06
2.70367e-07
-2.34628e-07
-8.53435e-07
2.66933e-07
-2.16189e-07
9.09562e-07
-0.00026819
2.39029e-07
2.44349e-07
1.23051e-06
1.1939e-06
-1.96233e-07
-2.04029e-07
0.000268202
-1.27305e-06
-1.2364e-06
0.000270247
-0.000268218
2.3602e-07
2.43937e-07
-5.15563e-08
0.00113092
-2.401e-07
1.27332e-06
2.756e-07
9.09301e-07
-2.1357e-07
-8.53516e-07
2.64036e-07
-1.236e-06
-1.25866e-07
-5.14575e-08
0.00113137
-2.42949e-07
1.27881e-06
2.78438e-07
9.14826e-07
-2.16403e-07
-8.59042e-07
2.66796e-07
0.0011309
-1.24296e-07
-0.00113091
-5.08941e-08
-1.23072e-06
2.75319e-07
-2.40329e-07
-8.53877e-07
2.63646e-07
-2.13923e-07
9.08948e-07
1.27855e-06
0.00113135
-1.24325e-07
-0.00113135
-5.08974e-08
-1.2362e-06
2.78179e-07
-2.43156e-07
-8.59413e-07
2.66392e-07
-2.16767e-07
9.14464e-07
-1.98932e-07
-2.01336e-07
0.000268223
-1.23908e-06
0.000270277
-0.000268239
2.38798e-07
2.41209e-07
-5.14351e-08
0.00113203
-2.37505e-07
1.23668e-06
2.73052e-07
9.12144e-07
-2.16327e-07
-8.5619e-07
2.66909e-07
-1.23053e-06
-1.25756e-07
-5.16289e-08
0.00113102
-2.42917e-07
1.27339e-06
2.78468e-07
9.11932e-07
-2.16353e-07
-8.56227e-07
2.66716e-07
0.00113201
-1.24784e-07
-0.00113201
-5.07446e-08
-1.19411e-06
2.72775e-07
-2.37727e-07
-8.56539e-07
2.66522e-07
-2.16684e-07
9.11808e-07
1.27313e-06
0.001131
-1.24236e-07
-0.00113101
-5.10616e-08
-1.23073e-06
2.78206e-07
-2.43127e-07
-8.56588e-07
2.66319e-07
-2.1671e-07
9.11573e-07
-1.25861e-07
-5.14497e-08
0.00113082
-2.37319e-07
1.26788e-06
2.72798e-07
9.09293e-07
-2.13575e-07
2.64011e-07
-8.53546e-07
-1.24721e-07
-0.00113174
-5.0897e-08
-1.19674e-06
2.6989e-07
-2.34838e-07
-8.53832e-07
2.63735e-07
9.0903e-07
-2.13871e-07
1.26762e-06
0.0011308
-1.24359e-07
-0.0011308
-5.08827e-08
-1.22534e-06
2.72527e-07
-2.37538e-07
-8.53906e-07
2.63619e-07
-2.13927e-07
9.08942e-07
-1.96329e-07
-2.03888e-07
0.000268182
-1.23358e-06
0.000270225
-0.000268198
2.36119e-07
2.43803e-07
-1.26255e-07
-5.1542e-08
0.00113192
-2.34707e-07
1.23399e-06
2.70317e-07
9.09495e-07
-2.16307e-07
2.66858e-07
-8.53567e-07
-1.24863e-07
-0.00113138
-5.08328e-08
-1.19131e-06
2.69896e-07
-2.34865e-07
-8.53645e-07
2.66452e-07
9.08955e-07
-2.16576e-07
1.23373e-06
0.0011319
-1.24748e-07
-0.00113191
-5.09525e-08
-1.1914e-06
2.70045e-07
-2.34926e-07
-8.5393e-07
2.66463e-07
-2.16663e-07
9.09139e-07
-0.000268211
2.38604e-07
2.43924e-07
1.23083e-06
1.19422e-06
-1.96548e-07
-2.04353e-07
0.000268223
-1.2727e-06
-1.23607e-06
0.000270269
-0.000268239
2.35578e-07
2.43476e-07
-5.10174e-08
0.00113089
-2.40429e-07
1.27301e-06
2.75267e-07
9.08883e-07
-2.1406e-07
-8.5403e-07
2.63573e-07
-1.23631e-06
-1.2455e-07
-5.10258e-08
0.00113134
-2.43248e-07
1.27852e-06
2.78137e-07
9.14399e-07
-2.16907e-07
-8.5957e-07
2.66317e-07
0.00113088
-1.22592e-07
-0.00113088
-5.01565e-08
-1.23108e-06
2.7495e-07
-2.40686e-07
-8.54423e-07
2.63141e-07
-2.14437e-07
9.08482e-07
1.27823e-06
0.00113132
-1.22559e-07
-0.00113133
-5.02938e-08
-1.23653e-06
2.7785e-07
-2.43475e-07
-8.59972e-07
2.65869e-07
-2.17301e-07
9.13981e-07
-1.99268e-07
-2.01636e-07
0.000268244
-1.23872e-06
0.000270299
-0.000268261
2.38329e-07