/*--------------------------------*- C++ -*----------------------------------*\
| =========                 |                                                 |
| \\      /  F ield         | OpenFOAM: The Open Source CFD Toolbox           |
|  \\    /   O peration     | Version:  v1906                                 |
|   \\  /    A nd           | Web:      www.OpenFOAM.com                      |
|    \\/     M anipulation  |                                                 |
\*---------------------------------------------------------------------------*/
FoamFile
{
    version     2.0;
    format      ascii;
    class       volScalarField;
    location    "1000";
    object      epsilon;
}
// * * * * * * * * * * * * * * * * * * * * * * * * * * * * * * * * * * * * * //

dimensions      [0 2 -3 0 0 0 0];


internalField   nonuniform List<scalar> 
171728
(
1.14868e-06
8.63033e-07
8.63005e-07
1.14836e-06
8.62779e-07
8.63061e-07
8.62831e-07
8.63059e-07
1.14832e-06
8.6294e-07
8.62923e-07
1.14807e-06
3.19686e-07
3.19678e-07
3.19764e-07
3.19766e-07
1.84275e-05
1.84292e-05
5.46249e-06
5.46363e-06
4.09178e-06
9.16119e-06
4.09337e-06
4.09168e-06
9.16229e-06
9.15557e-06
4.09394e-06
2.10227e-06
3.47501e-06
5.58205e-07
5.52306e-07
2.10685e-06
2.10235e-06
8.5693e-07
3.4749e-06
5.58238e-07
3.47219e-06
5.52351e-07
2.1069e-06
1.84288e-05
1.84185e-05
1.14421e-06
5.46369e-06
5.46195e-06
5.46133e-06
5.45938e-06
1.84262e-05
1.84158e-05
9.16288e-06
4.09366e-06
3.47517e-06
5.58277e-07
2.107e-06
9.16251e-06
4.09389e-06
5.583e-07
3.47546e-06
2.10697e-06
2.10238e-06
8.56756e-07
3.47496e-06
5.58213e-07
3.47162e-06
5.52323e-07
2.10701e-06
4.09191e-06
9.16208e-06
9.1554e-06
4.09381e-06
2.10231e-06
8.56974e-07
5.58279e-07
3.4751e-06
5.52387e-07
3.47144e-06
2.10697e-06
4.09182e-06
9.16213e-06
9.15508e-06
4.0938e-06
1.84297e-05
5.46381e-06
5.46217e-06
1.84282e-05
2.10243e-06
5.58337e-07
3.47476e-06
5.52431e-07
2.10703e-06
2.10245e-06
8.56845e-07
5.58334e-07
3.47519e-06
5.52447e-07
3.47234e-06
2.1071e-06
4.09161e-06
9.16237e-06
4.09397e-06
4.09192e-06
9.16308e-06
9.15634e-06
4.09387e-06
1.14444e-06
5.46225e-06
5.46412e-06
5.45941e-06
5.46131e-06
1.84281e-05
1.84178e-05
1.843e-05
1.84197e-05
1.84224e-05
1.84245e-05
4.53794e-06
2.81206e-06
5.46168e-06
9.50099e-06
9.49656e-06
2.81012e-06
4.54086e-06
4.54441e-06
2.81132e-06
5.46351e-06
9.50387e-06
9.50091e-06
2.81218e-06
4.54287e-06
9.73619e-06
2.17309e-05
2.17287e-05
2.17241e-05
2.17229e-05
9.73573e-06
1.22033e-05
1.08244e-05
4.74431e-06
4.09185e-06
1.22007e-05
1.08265e-05
4.7443e-06
2.2054e-05
9.1585e-06
7.08846e-06
7.089e-06
2.20609e-05
1.22041e-05
4.09361e-06
1.08296e-05
4.7459e-06
1.08276e-05
4.74595e-06
1.22066e-05
1.22036e-05
1.08241e-05
4.74447e-06
4.09205e-06
1.22006e-05
1.0827e-05
4.74475e-06
2.20545e-05
9.1593e-06
7.09018e-06
7.09055e-06
2.20611e-05
2.20564e-05
7.08956e-06
9.15819e-06
2.20499e-05
7.08917e-06
1.2204e-05
4.09358e-06
1.08303e-05
4.74636e-06
1.08272e-05
4.746e-06
1.2207e-05
1.84238e-05
1.84234e-05
9.73343e-06
2.17175e-05
2.17182e-05
9.73384e-06
2.17238e-05
2.17245e-05
4.54462e-06
2.81249e-06
5.46367e-06
9.50403e-06
2.81147e-06
9.5011e-06
4.54458e-06
4.53843e-06
2.81131e-06
5.46169e-06
9.49939e-06
9.49645e-06
2.81024e-06
4.53887e-06
4.54207e-06
9.49639e-06
2.80826e-06
5.46136e-06
2.80923e-06
4.54199e-06
9.49938e-06
4.53625e-06
9.49174e-06
2.80704e-06
5.45961e-06
4.53579e-06
9.49474e-06
2.80805e-06
9.73581e-06
2.17288e-05
2.17295e-05
2.17225e-05
2.17232e-05
9.73545e-06
1.84212e-05
1.84208e-05
2.20542e-05
9.16028e-06
7.09005e-06
7.09039e-06
2.20608e-05
1.22044e-05
4.09385e-06
4.74597e-06
1.08302e-05
4.7462e-06
1.08282e-05
1.22072e-05
2.20542e-05
9.15955e-06
7.08863e-06
7.08913e-06
2.20611e-05
1.22043e-05
4.09362e-06
1.083e-05
4.74613e-06
1.0828e-05
4.74593e-06
1.22073e-05
1.22028e-05
4.74437e-06
1.08245e-05
4.09184e-06
1.22003e-05
4.74424e-06
1.08266e-05
2.2053e-05
9.15918e-06
7.08959e-06
7.08996e-06
2.20596e-05
2.2055e-05
7.08897e-06
9.158e-06
2.20484e-05
7.08859e-06
1.22037e-05
4.09378e-06
4.74593e-06
1.08297e-05
4.74601e-06
1.08277e-05
1.22062e-05
1.22034e-05
1.08244e-05
4.74407e-06
4.09178e-06
1.22006e-05
1.08264e-05
4.74446e-06
2.20537e-05
9.15909e-06
7.08823e-06
7.0886e-06
2.20603e-05
2.20557e-05
7.08761e-06
9.15808e-06
2.20491e-05
7.08722e-06
1.2204e-05
4.09367e-06
1.08296e-05
4.74601e-06
1.08276e-05
4.74574e-06
1.22067e-05
1.84246e-05
4.54493e-06
2.81227e-06
5.46353e-06
9.50453e-06
2.81177e-06
9.50083e-06
4.54496e-06
4.53899e-06
2.8112e-06
5.46187e-06
9.49991e-06
9.49623e-06
2.81069e-06
4.53907e-06
9.73671e-06
2.173e-05
2.17304e-05
2.17237e-05
2.17241e-05
9.73632e-06
1.84233e-05
1.22038e-05
4.74415e-06
1.08246e-05
4.09216e-06
1.22008e-05
4.74439e-06
1.08275e-05
2.20543e-05
9.15939e-06
7.08831e-06
7.08865e-06
2.20609e-05
2.20562e-05
7.08728e-06
1.22041e-05
4.09362e-06
4.746e-06
1.08307e-05
4.74577e-06
1.08277e-05
1.22073e-05
1.22034e-05
4.74453e-06
1.08251e-05
4.09211e-06
1.22007e-05
4.74465e-06
1.08271e-05
2.20539e-05
9.16053e-06
7.09001e-06
7.09051e-06
2.20607e-05
2.20562e-05
7.08952e-06
9.15928e-06
2.20493e-05
7.08901e-06
1.22042e-05
4.09371e-06
4.74621e-06
1.08303e-05
4.74621e-06
1.08282e-05
1.22068e-05
9.73404e-06
2.1719e-05
2.17183e-05
9.73443e-06
2.17252e-05
2.17245e-05
4.53887e-06
2.81145e-06
5.46174e-06
9.49999e-06
2.81052e-06
9.49631e-06
4.53882e-06
4.54468e-06
2.81266e-06
5.46366e-06
9.5044e-06
2.8117e-06
9.50146e-06
4.54512e-06
4.5363e-06
9.49164e-06
2.8074e-06
5.4599e-06
4.53624e-06
2.80801e-06
9.49524e-06
4.54249e-06
9.49674e-06
2.80859e-06
5.46179e-06
4.54209e-06
2.80924e-06
9.49975e-06
9.73641e-06
2.17303e-05
2.17296e-05
2.1724e-05
2.17233e-05
9.73604e-06
1.84232e-05
1.84227e-05
1.84251e-05
1.84246e-05
2.66791e-06
1.14913e-06
1.76886e-06
1.76764e-06
1.76726e-06
1.76804e-06
2.66862e-06
2.66788e-06
1.14924e-06
1.76834e-06
1.76814e-06
1.76786e-06
1.76766e-06
2.66854e-06
2.66832e-06
1.14952e-06
1.7676e-06
1.76759e-06
1.76817e-06
1.76801e-06
2.66817e-06
2.66832e-06
1.14938e-06
1.76746e-06
1.76774e-06
1.76786e-06
1.76809e-06
2.66812e-06
1.6659e-07
1.66572e-07
1.64479e-07
7.93904e-08
7.99324e-08
3.15737e-07
1.6659e-07
1.66543e-07
1.64478e-07
1.64433e-07
7.93867e-08
7.99283e-08
1.66635e-07
1.66608e-07
1.64493e-07
7.94066e-08
7.99495e-08
3.15822e-07
1.66623e-07
1.66604e-07
1.64509e-07
1.64492e-07
7.94044e-08
7.99473e-08
1.40972e-06
2.36156e-06
1.27443e-06
2.10321e-06
1.41211e-06
2.36239e-06
1.27306e-06
1.61816e-06
2.03185e-06
3.47468e-06
2.85995e-06
2.03212e-06
2.85969e-06
1.61581e-06
1.41657e-06
2.10592e-06
2.36576e-06
1.27809e-06
2.36495e-06
1.27973e-06
1.41498e-06
1.40995e-06
2.36184e-06
1.27449e-06
2.10327e-06
1.41232e-06
2.36267e-06
1.27312e-06
1.61861e-06
2.03244e-06
3.47511e-06
2.86058e-06
2.86042e-06
2.03242e-06
1.616e-06
1.61195e-06
2.85745e-06
2.028e-06
3.47228e-06
1.61374e-06
2.85766e-06
2.02802e-06
1.41673e-06
2.10601e-06
2.36601e-06
1.27814e-06
2.36521e-06
1.27979e-06
1.41512e-06
2.66531e-06
1.14327e-06
1.76374e-06
1.76344e-06
1.76402e-06
2.66435e-06
1.76383e-06
1.61709e-06
2.03257e-06
3.47532e-06
2.86082e-06
2.03197e-06
2.86007e-06
1.61737e-06
1.41596e-06
2.10609e-06
2.36603e-06
1.27965e-06
2.36514e-06
1.27892e-06
1.41586e-06
1.61698e-06
2.03285e-06
3.47504e-06
2.86004e-06
2.8598e-06
2.03178e-06
1.61729e-06
1.41565e-06
2.106e-06
1.27962e-06
2.36587e-06
1.27888e-06
2.36496e-06
1.41572e-06
1.41057e-06
2.36175e-06
1.27345e-06
2.10331e-06
1.41143e-06
2.36258e-06
1.2741e-06
1.6173e-06
2.03235e-06
3.47443e-06
2.86027e-06
2.03166e-06
2.86006e-06
1.61746e-06
1.61293e-06
2.85705e-06
2.02741e-06
3.47203e-06
1.61271e-06
2.02837e-06
2.85761e-06
1.41653e-06
2.10602e-06
2.36597e-06
1.27951e-06
2.36516e-06
1.27878e-06
1.41592e-06
1.41096e-06
1.2734e-06
2.36167e-06
2.10329e-06
1.41081e-06
1.27422e-06
2.36248e-06
1.61714e-06
2.03237e-06
3.47454e-06
2.8604e-06
2.85966e-06
2.03163e-06
1.61741e-06
1.61283e-06
2.8567e-06
2.02755e-06
3.47222e-06
1.61238e-06
2.85736e-06
2.02835e-06
1.41589e-06
2.10597e-06
1.2795e-06
2.36585e-06
1.27875e-06
2.36501e-06
1.41592e-06
1.41116e-06
1.27348e-06
2.36176e-06
2.10338e-06
1.41105e-06
1.27427e-06
2.36252e-06
1.61702e-06
2.03241e-06
3.47468e-06
2.86036e-06
2.03163e-06
2.85975e-06
1.61733e-06
1.61271e-06
2.85709e-06
1.41603e-06
2.10609e-06
1.27957e-06
2.36592e-06
1.27878e-06
2.36509e-06
1.41619e-06
1.41109e-06
1.27354e-06
2.3619e-06
2.10342e-06
1.41096e-06
1.27438e-06
2.3627e-06
1.61735e-06
2.03272e-06
3.47523e-06
2.86057e-06
2.86042e-06
2.03204e-06
1.6176e-06
1.61303e-06
2.85744e-06
2.02807e-06
3.47254e-06
1.61259e-06
2.85765e-06
2.02868e-06
1.41603e-06
2.10613e-06
1.27963e-06
2.36607e-06
1.27888e-06
2.36525e-06
1.41605e-06
2.66497e-06
1.14329e-06
1.76356e-06
1.7638e-06
2.66487e-06
1.76357e-06
1.76383e-06
6.51836e-07
1.18285e-06
1.1829e-06
1.41519e-06
1.41811e-06
1.41515e-06
1.4159e-06
1.18292e-06
1.18295e-06
1.18524e-06
1.18527e-06
1.4151e-06
1.41586e-06
1.18283e-06
1.18295e-06
1.18515e-06
1.18528e-06
1.18299e-06
1.18518e-06
1.18531e-06
1.41517e-06
1.41589e-06
1.18289e-06
1.18523e-06
1.18522e-06
1.41596e-06
1.18604e-06
1.18594e-06
4.2363e-06
9.5491e-06
9.55426e-06
4.23572e-06
1.90609e-05
1.90714e-05
4.23647e-06
9.55111e-06
9.55626e-06
4.2358e-06
6.51847e-07
6.51928e-07
6.51931e-07
6.56495e-07
6.56506e-07
6.56586e-07
6.56591e-07
2.29401e-06
3.64446e-06
9.29866e-07
1.18365e-06
3.6449e-06
9.30973e-07
2.29375e-06
1.90619e-05
1.90725e-05
2.29398e-06
9.29905e-07
3.64447e-06
1.1837e-06
9.31013e-07
3.64497e-06
2.29372e-06
5.64518e-06
5.64711e-06
1.41451e-06
5.64626e-06
5.64821e-06
5.64953e-06
5.65148e-06
1.90593e-05
1.90698e-05
1.90617e-05
1.90722e-05
5.64507e-06
5.64696e-06
1.41446e-06
5.64619e-06
5.64806e-06
1.90809e-05
1.90705e-05
1.90833e-05
1.90729e-05
1.41665e-06
5.64836e-06
5.65024e-06
5.64728e-06
5.64917e-06
4.23641e-06
9.55046e-06
9.55525e-06
4.23582e-06
2.29394e-06
3.64425e-06
9.29794e-07
1.18372e-06
3.64475e-06
9.30904e-07
2.29362e-06
2.294e-06
3.64478e-06
9.29835e-07
1.18375e-06
3.64526e-06
9.30944e-07
2.29368e-06
4.23705e-06
9.56001e-06
9.55497e-06
4.23759e-06
4.23715e-06
9.56113e-06
9.55631e-06
4.2377e-06
2.29446e-06
1.18451e-06
3.646e-06
9.33015e-07
3.64555e-06
9.31991e-07
2.29472e-06
2.29453e-06
1.18454e-06
3.64652e-06
9.33056e-07
3.64609e-06
9.32031e-07
2.29479e-06
5.64687e-06
5.64523e-06
1.41442e-06
5.64794e-06
5.64617e-06
1.90587e-05
1.90692e-05
1.90824e-05
1.90721e-05
1.41661e-06
5.65012e-06
5.64835e-06
5.6491e-06
5.64745e-06
1.90802e-05
1.90698e-05
2.29409e-06
3.64501e-06
9.29854e-07
1.18363e-06
3.64546e-06
9.30982e-07
2.29376e-06
4.23638e-06
9.55051e-06
9.55567e-06
4.23571e-06
2.29401e-06
9.29874e-07
3.64485e-06
1.18375e-06
9.30983e-07
3.64529e-06
2.29368e-06
4.23715e-06
9.56201e-06
9.55698e-06
4.23777e-06
2.2946e-06
1.18443e-06
3.64672e-06
9.33094e-07
3.64632e-06
9.3205e-07
2.29487e-06
4.23705e-06
9.56145e-06
9.55638e-06
4.23768e-06
2.29452e-06
1.18454e-06
9.33095e-07
3.64655e-06
9.32071e-07
3.64616e-06
2.29479e-06
4.23646e-06
9.55048e-06
9.55525e-06
4.23588e-06
2.29395e-06
9.29887e-07
3.64435e-06
1.18379e-06
9.3099e-07
3.64484e-06
2.29368e-06
4.23636e-06
9.55016e-06
9.55533e-06
4.23578e-06
2.29459e-06
1.18444e-06
3.64616e-06
9.33084e-07
3.64576e-06
9.32061e-07
2.2948e-06
4.23721e-06
9.56111e-06
9.55633e-06
4.23775e-06
2.29452e-06
1.18458e-06
9.33101e-07
3.64609e-06
9.32082e-07
3.64565e-06
2.29473e-06
4.23711e-06
9.5611e-06
9.55602e-06
4.23764e-06
5.64701e-06
5.64522e-06
1.41444e-06
5.64799e-06
5.64633e-06
1.90606e-05
1.90712e-05
1.90835e-05
1.90731e-05
1.4167e-06
5.65017e-06
5.6485e-06
5.64923e-06
5.64744e-06
1.90822e-05
1.90718e-05
2.29403e-06
9.29921e-07
3.64499e-06
1.18369e-06
9.31027e-07
3.64547e-06
2.29376e-06
4.23639e-06
9.55048e-06
9.55565e-06
4.23582e-06
4.23644e-06
9.55119e-06
9.55635e-06
4.23581e-06
2.29456e-06
1.18449e-06
9.33124e-07
3.64623e-06
9.32101e-07
3.64578e-06
2.29477e-06
2.2946e-06
1.18449e-06
9.33139e-07
3.64673e-06
9.32117e-07
3.6463e-06
2.29482e-06
4.23715e-06
9.56144e-06
9.55635e-06
4.23768e-06
4.23714e-06
9.56211e-06
9.55707e-06
4.23773e-06
1.90605e-05
1.90709e-05
1.90623e-05
1.90728e-05
1.4167e-06
5.64843e-06
5.65039e-06
5.64739e-06
5.64933e-06
1.9082e-05
1.90716e-05
1.90838e-05
1.90734e-05
9.34111e-07
3.64688e-06
2.29526e-06
9.56176e-06
4.23838e-06
3.64754e-06
9.563e-06
1.90826e-05
1.90845e-05
1.26403e-05
1.12327e-05
4.8816e-06
4.23639e-06
1.12305e-05
4.88173e-06
1.26428e-05
2.2738e-05
9.55134e-06
7.23777e-06
7.23742e-06
2.27308e-05
2.27373e-05
7.2387e-06
9.55205e-06
7.23906e-06
2.27444e-05
1.2639e-05
4.23563e-06
1.1227e-05
4.88098e-06
1.12293e-05
4.88085e-06
1.26364e-05
1.90658e-05
1.90665e-05
1.26407e-05
4.88192e-06
1.12338e-05
4.23649e-06
4.88197e-06
1.12309e-05
1.26432e-05
2.27379e-05
9.55335e-06
7.23924e-06
7.23906e-06
2.27309e-05
2.27374e-05
7.24034e-06
9.55405e-06
7.24052e-06
2.27443e-05
1.26394e-05
4.23579e-06
4.88122e-06
1.12274e-05
4.88116e-06
1.12303e-05
1.26368e-05
1.90669e-05
1.90675e-05
9.95768e-06
2.23738e-05
2.2373e-05
2.23676e-05
2.23668e-05
9.95735e-06
4.70057e-06
2.97314e-06
5.64514e-06
9.9142e-06
2.97298e-06
9.91613e-06
4.70091e-06
4.70631e-06
2.97434e-06
5.64711e-06
9.91865e-06
2.97418e-06
9.92119e-06
4.70663e-06
4.70163e-06
9.91918e-06
5.64629e-06
2.97339e-06
2.97356e-06
9.91698e-06
4.70128e-06
4.70735e-06
9.92411e-06
5.64822e-06
2.97459e-06
2.97476e-06
9.92161e-06
4.70702e-06
9.95554e-06
2.23618e-05
2.23609e-05
2.2368e-05
2.23672e-05
9.95587e-06
4.7033e-06
2.9747e-06
9.92547e-06
5.6495e-06
4.70367e-06
2.97451e-06
9.92807e-06
4.70903e-06
2.97591e-06
9.93026e-06
5.65146e-06
4.70939e-06
2.97572e-06
9.93284e-06
9.96267e-06
2.23849e-05
2.23841e-05
9.96303e-06
2.23911e-05
2.23903e-05
1.90643e-05
1.9065e-05
1.90667e-05
1.90673e-05
9.95759e-06
2.23739e-05
2.23732e-05
2.23677e-05
2.23669e-05
9.95726e-06
4.70057e-06
2.97313e-06
5.64508e-06
9.91395e-06
9.91649e-06
2.97297e-06
4.70088e-06
4.70627e-06
2.97429e-06
5.64696e-06
9.91881e-06
9.92135e-06
2.97413e-06
4.70658e-06
4.7016e-06
9.91942e-06
5.64618e-06
2.97339e-06
9.91692e-06
4.70127e-06
2.97355e-06
4.70729e-06
9.92428e-06
5.64807e-06
2.97454e-06
9.92178e-06
4.70698e-06
2.97471e-06
9.95545e-06
2.23618e-05
2.23611e-05
2.23681e-05
2.23673e-05
9.95577e-06
1.9076e-05
1.90754e-05
1.90784e-05
1.90778e-05
9.95906e-06
2.23735e-05
2.23727e-05
9.95939e-06
2.23797e-05
2.23789e-05
4.70298e-06
2.97416e-06
5.64837e-06
9.92519e-06
9.92272e-06
2.97433e-06
4.70264e-06
4.70867e-06
2.97531e-06
5.65026e-06
9.9301e-06
9.92759e-06
2.97549e-06
4.70834e-06
4.70196e-06
9.91986e-06
2.97395e-06
5.64728e-06
4.7023e-06
9.92233e-06
2.97378e-06
4.70767e-06
9.92472e-06
2.97511e-06
5.64916e-06
4.70799e-06
9.92718e-06
2.97494e-06
9.96117e-06
2.23855e-05
2.23847e-05
2.23793e-05
2.23785e-05
9.96083e-06
1.26399e-05
1.12332e-05
4.88192e-06
4.23649e-06
1.12303e-05
4.88197e-06
1.26435e-05
2.2738e-05
9.55234e-06
7.23932e-06
7.23913e-06
2.27311e-05
2.27375e-05
7.24041e-06
9.55339e-06
7.2406e-06
2.27445e-05
1.26396e-05
4.23574e-06
1.12268e-05
4.88122e-06
1.12297e-05
4.88118e-06
1.26363e-05
1.26467e-05
1.1234e-05
4.88246e-06
4.23695e-06
1.26441e-05
1.12363e-05
4.88232e-06
2.27501e-05
9.55784e-06
7.24121e-06
2.27572e-05
7.24159e-06
2.27508e-05
7.24033e-06
9.55714e-06
2.27437e-05
7.23996e-06
1.2648e-05
4.23769e-06
1.12397e-05
4.88303e-06
1.26505e-05
1.12375e-05
4.88317e-06
1.26473e-05
1.12338e-05
4.88269e-06
4.23707e-06
1.26437e-05
1.12368e-05
4.88264e-06
2.27503e-05
9.55915e-06
7.24293e-06
7.24314e-06
2.27572e-05
2.27508e-05
7.24188e-06
9.55822e-06
2.27439e-05
7.24167e-06
1.26476e-05
4.23779e-06
1.12403e-05
4.88335e-06
1.12373e-05
4.88341e-06
1.26511e-05
9.9572e-06
2.23724e-05
2.23733e-05
2.23662e-05
2.2367e-05
9.95688e-06
4.7061e-06
2.97419e-06
5.64682e-06
9.91867e-06
9.92057e-06
2.97401e-06
4.70644e-06
4.70039e-06
2.97308e-06
5.64506e-06
9.91415e-06
2.9729e-06
9.91604e-06
4.70071e-06
4.70715e-06
9.9235e-06
5.64799e-06
2.97443e-06
9.92161e-06
2.97461e-06
4.7068e-06
4.70143e-06
9.91897e-06
5.64635e-06
2.97332e-06
2.9735e-06
9.91709e-06
4.70109e-06
9.95507e-06
2.23603e-05
2.23612e-05
2.23666e-05
2.23675e-05
9.95539e-06
1.90636e-05
1.90643e-05
1.90776e-05
1.90769e-05
9.95868e-06
2.2372e-05
2.23729e-05
9.95901e-06
2.23782e-05
2.23791e-05
4.70854e-06
2.9752e-06
5.65018e-06
9.92932e-06
2.9754e-06
9.92749e-06
4.70817e-06
4.70282e-06
2.97409e-06
5.64854e-06
9.92479e-06
9.92296e-06
2.97428e-06
4.70246e-06
4.7075e-06
9.92459e-06
2.97502e-06
5.64904e-06
2.97483e-06
4.70785e-06
9.92648e-06
4.70179e-06
9.92006e-06
2.9739e-06
5.64727e-06
4.70213e-06
9.92195e-06
2.97371e-06
9.9608e-06
2.2384e-05
2.23848e-05
2.23778e-05
2.23786e-05
9.96046e-06
1.90753e-05
1.90747e-05
1.26408e-05
1.12336e-05
4.88173e-06
4.23639e-06
1.12307e-05
4.88186e-06
1.26433e-05
2.27382e-05
9.55275e-06
7.238e-06
7.23765e-06
2.27311e-05
2.27375e-05
7.23893e-06
9.55346e-06
7.23929e-06
2.27447e-05
1.26395e-05
4.23571e-06
1.12272e-05
4.88111e-06
1.12301e-05
4.88099e-06
1.26369e-05
1.26471e-05
4.8827e-06
1.12344e-05
4.23711e-06
1.26445e-05
4.88263e-06
1.12373e-05
2.27502e-05
9.55986e-06
7.24285e-06
2.2757e-05
7.24305e-06
2.27507e-05
7.24179e-06
9.55914e-06
2.27438e-05
7.2416e-06
1.26484e-05
4.23779e-06
4.88336e-06
1.12408e-05
1.26509e-05
4.88341e-06
1.12379e-05
1.26471e-05
1.12342e-05
4.88259e-06
4.23704e-06
1.26446e-05
1.12372e-05
4.88246e-06
2.27503e-05
9.55926e-06
7.24145e-06
7.24182e-06
2.27574e-05
2.27511e-05
7.24056e-06
9.55856e-06
2.2744e-05
7.2402e-06
1.26485e-05
4.2377e-06
1.12406e-05
4.88317e-06
1.12377e-05
4.88331e-06
1.2651e-05
1.26398e-05
4.88179e-06
1.12336e-05
4.23655e-06
4.88186e-06
1.12306e-05
1.26435e-05
2.27372e-05
9.55235e-06
7.23885e-06
7.23867e-06
2.27302e-05
2.27367e-05
7.23995e-06
9.55341e-06
7.24014e-06
2.27436e-05
1.26396e-05
4.23579e-06
4.88111e-06
1.12272e-05
4.88105e-06
1.12301e-05
1.26359e-05
1.26401e-05
1.12334e-05
4.88158e-06
4.23645e-06
1.12305e-05
4.88165e-06
1.26438e-05
2.27377e-05
9.55242e-06
7.23739e-06
7.23721e-06
2.27308e-05
2.27372e-05
7.23848e-06
9.55311e-06
7.23868e-06
2.27441e-05
1.26399e-05
4.23569e-06
1.1227e-05
4.88091e-06
1.12299e-05
4.88084e-06
1.26362e-05
1.26473e-05
4.88259e-06
1.12342e-05
4.23711e-06
1.26437e-05
4.88251e-06
1.12371e-05
2.27495e-05
9.55921e-06
7.24246e-06
7.24266e-06
2.27564e-05
2.275e-05
7.2414e-06
9.55821e-06
2.27431e-05
7.24121e-06
1.26475e-05
4.23785e-06
4.88322e-06
1.12406e-05
4.8833e-06
1.12377e-05
1.26511e-05
1.26476e-05
1.1234e-05
4.88238e-06
4.23701e-06
1.2644e-05
1.1237e-05
4.8823e-06
2.275e-05
9.5589e-06
7.24099e-06
7.2412e-06
2.27569e-05
2.27505e-05
7.23995e-06
9.55822e-06
2.27436e-05
7.23974e-06
1.26478e-05
4.23775e-06
1.12404e-05
4.88301e-06
1.12375e-05
4.88309e-06
1.26513e-05
9.95815e-06
2.23737e-05
2.23741e-05
2.23674e-05
2.23679e-05
9.95781e-06
4.70645e-06
2.97429e-06
5.64687e-06
9.91843e-06
9.92099e-06
2.9741e-06
4.7068e-06
4.70076e-06
2.97323e-06
5.64522e-06
9.91397e-06
2.97307e-06
9.91653e-06
4.7011e-06
4.70752e-06
9.92394e-06
5.64813e-06
2.97451e-06
9.9214e-06
2.97471e-06
4.70716e-06
4.70182e-06
9.91946e-06
5.64633e-06
2.97349e-06
2.97365e-06
9.91694e-06
4.70147e-06
9.956e-06
2.23616e-05
2.2362e-05
2.23679e-05
2.23683e-05
9.95633e-06
1.90656e-05
1.90662e-05
1.90786e-05
1.9078e-05
9.95961e-06
2.23732e-05
2.23737e-05
9.95995e-06
2.23795e-05
2.23799e-05
4.7089e-06
2.97529e-06
5.65031e-06
9.92977e-06
2.97549e-06
9.92722e-06
4.70853e-06
4.7032e-06
2.97426e-06
5.64852e-06
9.92528e-06
9.92275e-06
2.97444e-06
4.70283e-06
4.70785e-06
9.92436e-06
2.97511e-06
5.64908e-06
2.97491e-06
4.70822e-06
9.92684e-06
4.70216e-06
9.91989e-06
2.97405e-06
5.64742e-06
4.70252e-06
9.92236e-06
2.97388e-06
9.96173e-06
2.23852e-05
2.23857e-05
2.2379e-05
2.23795e-05
9.96138e-06
1.90773e-05
1.90767e-05
1.264e-05
4.88166e-06
1.12331e-05
4.2365e-06
4.88176e-06
1.12309e-05
1.26437e-05
2.27381e-05
9.55274e-06
7.23759e-06
7.23742e-06
2.27312e-05
2.27376e-05
7.2387e-06
9.55343e-06
7.23888e-06
2.27446e-05
1.26398e-05
4.23571e-06
4.88102e-06
1.12274e-05
4.8809e-06
1.12296e-05
1.26361e-05
1.26395e-05
4.88185e-06
1.12332e-05
4.23648e-06
4.88199e-06
1.1231e-05
1.26433e-05
2.27373e-05
9.55344e-06
7.23934e-06
7.23896e-06
2.27301e-05
2.27365e-05
7.24024e-06
9.55414e-06
7.24063e-06
2.27437e-05
1.26394e-05
4.23577e-06
4.88124e-06
1.12275e-05
4.88111e-06
1.12297e-05
1.26356e-05
1.26475e-05
4.88249e-06
1.12344e-05
4.23703e-06
1.26438e-05
4.88237e-06
1.12367e-05
2.27504e-05
9.55923e-06
7.24121e-06
7.24141e-06
2.27573e-05
2.2751e-05
7.24015e-06
9.55855e-06
2.27441e-05
7.23996e-06
1.26476e-05
4.2378e-06
4.88309e-06
1.12401e-05
4.8832e-06
1.12379e-05
1.26513e-05
1.26471e-05
4.88272e-06
1.12345e-05
4.23709e-06
1.26434e-05
4.88258e-06
1.12368e-05
2.27493e-05
9.55994e-06
7.24276e-06
7.24316e-06
2.27565e-05
2.27501e-05
7.2419e-06
9.55924e-06
2.2743e-05
7.24151e-06
1.26472e-05
4.23778e-06
4.88329e-06
1.12402e-05
4.88343e-06
1.1238e-05
1.26509e-05
1.90654e-05
1.9066e-05
1.90672e-05
1.90679e-05
9.95914e-06
2.23734e-05
2.23726e-05
9.95948e-06
2.23796e-05
2.23788e-05
4.703e-06
2.97416e-06
5.64846e-06
9.92511e-06
4.70264e-06
2.97434e-06
9.92263e-06
4.70873e-06
2.97537e-06
5.65041e-06
9.92988e-06
4.70838e-06
2.97554e-06
9.92743e-06
4.70197e-06
9.91977e-06
2.97396e-06
5.64735e-06
4.70232e-06
2.97378e-06
9.9222e-06
4.70771e-06
9.92457e-06
2.97516e-06
5.64931e-06
4.70805e-06
2.97499e-06
9.927e-06
9.96126e-06
2.23854e-05
2.23845e-05
9.96091e-06
2.23792e-05
2.23784e-05
1.90771e-05
1.90765e-05
1.9079e-05
1.90783e-05
2.27632e-05
7.24245e-06
9.56397e-06
2.27563e-05
7.24223e-06
1.26552e-05
4.23827e-06
1.1241e-05
4.88379e-06
1.26517e-05
1.12438e-05
4.8837e-06
9.56477e-06
1.90874e-05
1.90893e-05
4.41729e-07
4.41689e-07
6.53421e-07
4.43618e-07
4.43581e-07
2.35587e-07
2.33657e-07
2.82691e-06
1.96718e-06
1.96743e-06
1.41375e-06
1.96651e-06
1.96674e-06
2.82722e-06
2.82821e-06
1.96869e-06
1.96894e-06
1.41665e-06
2.82854e-06
1.968e-06
1.96822e-06
2.82691e-06
1.96717e-06
1.9674e-06
1.4137e-06
1.96648e-06
1.96671e-06
2.82722e-06
2.82824e-06
1.41737e-06
1.96763e-06
1.96786e-06
1.96833e-06
1.96856e-06
2.82791e-06
2.82681e-06
1.96729e-06
1.96718e-06
1.41365e-06
1.96649e-06
1.9666e-06
2.82713e-06
2.82815e-06
1.41733e-06
1.96774e-06
1.96763e-06
1.96846e-06
1.96834e-06
2.82782e-06
2.82695e-06
1.96733e-06
1.96724e-06
1.41368e-06
1.96655e-06
1.96662e-06
2.82726e-06
2.82828e-06
1.41741e-06
1.96777e-06
1.9677e-06
1.96849e-06
1.96841e-06
2.82796e-06
2.82824e-06
1.41742e-06
1.96765e-06
1.96788e-06
2.82791e-06
1.96834e-06
1.96859e-06
4.41738e-07
4.41693e-07
6.53432e-07
4.43626e-07
4.43582e-07
2.35586e-07
2.33656e-07
4.41815e-07
4.41771e-07
6.53512e-07
4.43703e-07
4.43658e-07
2.35651e-07
2.33721e-07
4.41814e-07
4.41768e-07
6.53517e-07
4.43705e-07
4.43655e-07
2.35649e-07
2.33718e-07
6.54988e-07
4.47305e-07
4.47269e-07
4.45488e-07
4.45448e-07
2.37515e-07
2.39418e-07
6.54998e-07
4.47314e-07
4.47269e-07
4.45496e-07
4.45451e-07
2.37514e-07
2.39417e-07
6.55079e-07
4.4739e-07
4.47345e-07
4.45573e-07
4.45528e-07
2.37579e-07
2.39482e-07
6.55082e-07
4.47393e-07
4.47343e-07
4.45571e-07
4.45526e-07
2.37576e-07
2.3948e-07
1.66452e-06
2.53954e-06
1.5415e-06
2.29418e-06
2.53977e-06
1.54247e-06
1.66282e-06
1.84145e-06
2.22237e-06
3.64424e-06
3.02096e-06
2.22188e-06
3.02056e-06
1.84275e-06
1.8433e-06
3.02104e-06
3.64512e-06
2.22224e-06
2.22274e-06
3.02143e-06
1.8419e-06
1.66243e-06
2.29359e-06
2.53937e-06
1.54188e-06
2.53915e-06
1.54092e-06
1.66395e-06
1.66429e-06
1.54155e-06
2.5394e-06
2.29415e-06
1.5424e-06
2.5396e-06
1.66303e-06
1.84148e-06
2.22242e-06
3.64431e-06
3.02058e-06
2.22194e-06
3.02025e-06
1.84258e-06
1.84309e-06
3.02073e-06
3.64514e-06
2.2223e-06
2.22278e-06
3.02105e-06
1.84203e-06
1.66247e-06
2.29354e-06
1.54181e-06
2.5392e-06
1.54097e-06
2.53898e-06
1.66379e-06
2.82758e-06
1.41596e-06
1.96691e-06
1.96714e-06
1.96759e-06
1.96784e-06
2.82726e-06
2.82758e-06
1.41592e-06
1.96689e-06
1.96712e-06
2.82726e-06
1.96758e-06
1.96781e-06
2.8276e-06
1.41519e-06
1.96797e-06
1.9682e-06
2.82792e-06
1.96727e-06
1.9675e-06
1.66419e-06
2.53935e-06
1.54149e-06
2.29405e-06
2.53954e-06
1.54234e-06
1.66304e-06
1.84142e-06
2.22233e-06
3.64409e-06
3.02052e-06
3.02019e-06
2.22187e-06
1.84249e-06
1.84301e-06
3.02067e-06
3.64491e-06
2.22222e-06
3.021e-06
2.2227e-06
1.84196e-06
1.66251e-06
2.29351e-06
2.53914e-06
1.54176e-06
2.53895e-06
1.54092e-06
1.66368e-06
1.66439e-06
2.53961e-06
1.54153e-06
2.29412e-06
2.53981e-06
1.54239e-06
1.66312e-06
1.84164e-06
2.22268e-06
3.6446e-06
3.02113e-06
3.02077e-06
2.2222e-06
1.84274e-06
1.84325e-06
3.02124e-06
3.64544e-06
2.22255e-06
3.0216e-06
1.84218e-06
2.22305e-06
1.66256e-06
2.29358e-06
2.53941e-06
1.54181e-06
2.53921e-06
1.54095e-06
1.66389e-06
1.66349e-06
2.53992e-06
1.54288e-06
2.29434e-06
1.66466e-06
2.53971e-06
1.54203e-06
1.84396e-06
2.22287e-06
3.64618e-06
3.02156e-06
2.22336e-06
3.0219e-06
1.843e-06
1.84249e-06
3.02146e-06
2.22304e-06
3.64539e-06
2.22256e-06
1.84349e-06
3.02112e-06
1.66509e-06
2.29485e-06
2.54008e-06
1.54255e-06
2.54028e-06
1.54341e-06
1.66395e-06
1.66365e-06
2.54019e-06
1.54294e-06
2.29441e-06
1.66485e-06
2.53998e-06
1.54208e-06
1.84421e-06
2.2232e-06
3.64671e-06
3.02214e-06
3.0225e-06
2.22372e-06
1.84323e-06
1.84271e-06
3.02206e-06
2.22339e-06
3.6459e-06
1.84374e-06
3.0217e-06
2.22289e-06
1.66528e-06
2.29492e-06
2.54034e-06
1.5426e-06
2.54056e-06
1.54346e-06
1.66411e-06
2.82749e-06
1.41587e-06
1.967e-06
1.9669e-06
1.96759e-06
1.9677e-06
2.82716e-06
2.8275e-06
1.41515e-06
1.96809e-06
1.96798e-06
1.96738e-06
2.82783e-06
1.96728e-06
1.66441e-06
2.53963e-06
1.5416e-06
2.2942e-06
2.53982e-06
1.54244e-06
1.66315e-06
1.84164e-06
2.22275e-06
3.6448e-06
3.02114e-06
3.02078e-06
2.22227e-06
1.84274e-06
1.84325e-06
3.02125e-06
3.64568e-06
2.22263e-06
3.02161e-06
2.22312e-06
1.84219e-06
1.66258e-06
2.29365e-06
2.53942e-06
1.54186e-06
2.53921e-06
1.54101e-06
1.66391e-06
1.66427e-06
1.54154e-06
2.53941e-06
2.29411e-06
1.54239e-06
2.53961e-06
1.66301e-06
1.84146e-06
2.22263e-06
3.64463e-06
3.02064e-06
3.0203e-06
2.22215e-06
1.84257e-06
1.84308e-06
3.02078e-06
3.64552e-06
2.2225e-06
3.02112e-06
1.84201e-06
2.223e-06
1.66245e-06
2.29358e-06
1.54181e-06
2.53921e-06
1.54096e-06
2.53902e-06
1.66377e-06
1.66367e-06
2.5402e-06
1.54299e-06
2.29447e-06
1.66487e-06
2.53997e-06
1.54214e-06
1.84421e-06
2.22327e-06
3.64694e-06
3.02215e-06
2.22378e-06
3.02252e-06
1.84323e-06
1.84272e-06
3.02207e-06
2.22346e-06
3.64609e-06
2.22296e-06
1.84374e-06
3.0217e-06
1.6653e-06
2.29499e-06
2.54036e-06
1.54267e-06
2.54056e-06
1.54351e-06
1.66413e-06
1.66355e-06
1.54294e-06
2.53999e-06
2.29441e-06
1.66474e-06
1.54209e-06
2.53979e-06
1.84404e-06
2.22315e-06
3.64679e-06
3.02167e-06
3.02203e-06
2.22367e-06
1.84303e-06
1.84254e-06
3.02158e-06
2.22334e-06
3.64593e-06
1.84357e-06
3.02123e-06
2.22284e-06
1.66518e-06
2.29491e-06
1.54261e-06
2.54015e-06
1.54346e-06
2.54036e-06
1.66397e-06
1.66437e-06
1.54147e-06
2.53937e-06
2.29411e-06
1.54242e-06
2.53959e-06
1.66276e-06
1.84136e-06
2.22235e-06
3.64418e-06
3.02057e-06
2.22188e-06
3.02019e-06
1.8426e-06
1.84313e-06
3.02066e-06
3.64501e-06
2.22223e-06
2.22271e-06
3.02104e-06
1.84183e-06
1.66235e-06
2.29352e-06
1.54183e-06
2.53919e-06
1.54089e-06
2.53898e-06
1.66382e-06
1.66317e-06
2.54015e-06
1.54303e-06
2.29442e-06
1.66514e-06
2.53991e-06
1.54204e-06
1.84454e-06
2.22289e-06
3.64639e-06
3.02192e-06
1.84269e-06
2.2234e-06
3.02234e-06
1.84229e-06
3.02189e-06
2.22308e-06
3.64554e-06
1.84389e-06
2.22257e-06
3.02149e-06
1.66583e-06
2.29497e-06
2.54027e-06
1.54256e-06
1.66361e-06
2.54051e-06
1.54355e-06
1.66312e-06
1.54298e-06
2.53997e-06
2.29435e-06
1.66496e-06
1.54201e-06
2.53974e-06
1.84427e-06
2.22287e-06
3.64628e-06
3.02154e-06
3.02194e-06
2.22337e-06
1.84262e-06
1.84224e-06
3.0215e-06
2.22305e-06
3.64547e-06
1.84368e-06
3.02111e-06
2.22256e-06
1.66561e-06
2.2949e-06
1.54252e-06
2.5401e-06
1.5435e-06
2.54033e-06
1.66355e-06
2.82762e-06
1.41595e-06
1.96703e-06
1.96696e-06
1.96765e-06
1.96774e-06
2.82731e-06
2.82764e-06
1.41518e-06
1.96813e-06
1.96805e-06
1.96741e-06
2.82796e-06
1.96734e-06
1.66439e-06
1.54158e-06
2.53959e-06
2.29419e-06
1.54243e-06
2.5398e-06
1.66311e-06
1.84164e-06
2.22278e-06
3.64482e-06
3.02111e-06
2.2223e-06
3.02074e-06
1.84275e-06
1.84326e-06
3.02121e-06
3.64566e-06
2.22266e-06
2.22314e-06
3.02159e-06
1.84218e-06
1.66256e-06
2.2936e-06
1.54185e-06
2.53939e-06
1.541e-06
2.53919e-06
1.66389e-06
1.66356e-06
1.54295e-06
2.53998e-06
2.29437e-06
1.66475e-06
1.54209e-06
2.53975e-06
1.84404e-06
2.22295e-06
3.6464e-06
3.02162e-06
1.84303e-06
2.22345e-06
3.02196e-06
1.84256e-06
3.02151e-06
2.22313e-06
3.64561e-06
1.84357e-06
2.22263e-06
3.02117e-06
1.66519e-06
2.29495e-06
1.54262e-06
2.54013e-06
1.66399e-06
1.54347e-06
2.54034e-06
1.66364e-06
1.54298e-06
2.54018e-06
2.29444e-06
1.66486e-06
1.54212e-06
2.53996e-06
1.84421e-06
2.2233e-06
3.64693e-06
3.02211e-06
3.02249e-06
2.22381e-06
1.84323e-06
1.84271e-06
3.02205e-06
2.22349e-06
3.64611e-06
1.84375e-06
3.02167e-06
2.22299e-06
1.66529e-06
2.29499e-06
1.54265e-06
2.54032e-06
1.5435e-06
2.54054e-06
1.66412e-06
2.8276e-06
1.41525e-06
1.96798e-06
1.96823e-06
2.82792e-06
1.96729e-06
1.96752e-06
1.84303e-06
2.22368e-06
3.02236e-06
3.64669e-06
2.22316e-06
1.84485e-06
3.02195e-06
1.6639e-06
2.29508e-06
1.544e-06
2.54067e-06
1.54298e-06
1.66609e-06
2.54042e-06
2.22411e-06
3.64733e-06
2.22359e-06
3.23654e-07
8.68841e-07
8.68953e-07
1.15452e-06
3.3969e-07
8.92278e-07
8.92386e-07
1.17373e-06
3.5597e-07
9.14721e-07
9.14824e-07
1.19213e-06
3.72414e-07
9.36158e-07
9.36258e-07
1.20964e-06
3.8894e-07
9.5658e-07
9.56683e-07
1.22629e-06
4.0547e-07
9.76007e-07
9.76108e-07
1.2421e-06
4.21923e-07
9.94443e-07
9.94541e-07
1.25707e-06
4.38224e-07
1.0119e-06
1.01199e-06
1.27123e-06
4.543e-07
1.02838e-06
1.02847e-06
1.28464e-06
4.70084e-07
1.04391e-06
1.044e-06
1.2973e-06
4.85518e-07
1.05852e-06
1.0586e-06
1.3092e-06
5.00549e-07
1.07222e-06
1.07229e-06
1.32044e-06
5.1513e-07
1.08503e-06
1.0851e-06
1.33099e-06
5.2922e-07
1.09699e-06
1.09706e-06
1.3409e-06
5.42782e-07
1.10812e-06
1.10818e-06
1.35017e-06
5.55787e-07
1.11845e-06
1.11851e-06
1.35884e-06
5.68207e-07
1.128e-06
1.12806e-06
1.36689e-06
5.80022e-07
1.1368e-06
1.13685e-06
1.37437e-06
5.91219e-07
1.14487e-06
1.14492e-06
1.3813e-06
6.01788e-07
1.15223e-06
1.15228e-06
1.38767e-06
6.11721e-07
1.15891e-06
1.15896e-06
1.39351e-06
6.21014e-07
1.16493e-06
1.16498e-06
1.39883e-06
6.29668e-07
1.17031e-06
1.17036e-06