/*--------------------------------*- C++ -*----------------------------------*\
| =========                 |                                                 |
| \\      /  F ield         | OpenFOAM: The Open Source CFD Toolbox           |
|  \\    /   O peration     | Version:  v1906                                 |
|   \\  /    A nd           | Web:      www.OpenFOAM.com                      |
|    \\/     M anipulation  |                                                 |
\*---------------------------------------------------------------------------*/
FoamFile
{
    version     2.0;
    format      ascii;
    class       volScalarField;
    location    "1000";
    object      k;
}
// * * * * * * * * * * * * * * * * * * * * * * * * * * * * * * * * * * * * * //

dimensions      [0 2 -2 0 0 0 0];


internalField   nonuniform List<scalar> 
171728
(
4.17556e-05
3.64595e-05
3.64589e-05
4.17863e-05
3.6456e-05
3.64602e-05
3.64568e-05
3.64626e-05
4.17889e-05
3.64598e-05
3.64606e-05
4.17891e-05
2.08487e-05
2.08479e-05
2.08515e-05
2.08527e-05
6.95314e-05
6.95339e-05
6.68957e-05
6.69048e-05
6.46115e-05
7.13533e-05
6.47112e-05
6.4615e-05
7.13574e-05
7.13223e-05
6.47109e-05
5.30933e-05
6.01873e-05
2.88273e-05
2.8582e-05
5.32949e-05
5.3095e-05
3.6227e-05
6.01921e-05
2.8828e-05
6.00686e-05
2.85829e-05
5.32962e-05
6.95334e-05
6.95074e-05
4.15748e-05
6.69063e-05
6.68898e-05
6.68419e-05
6.68301e-05
6.95294e-05
6.95033e-05
7.13588e-05
6.4714e-05
6.01906e-05
2.88298e-05
5.32952e-05
7.13533e-05
6.47104e-05
2.88305e-05
6.01845e-05
5.32947e-05
5.30957e-05
3.62249e-05
6.01853e-05
2.88271e-05
6.00668e-05
2.85822e-05
5.32965e-05
6.46126e-05
7.1356e-05
7.13209e-05
6.47126e-05
5.30948e-05
3.62307e-05
2.88304e-05
6.01873e-05
2.85852e-05
6.00655e-05
5.32959e-05
6.46117e-05
7.13532e-05
7.13194e-05
6.47112e-05
6.95322e-05
6.68971e-05
6.68949e-05
6.95322e-05
5.30977e-05
2.88328e-05
6.0189e-05
2.85876e-05
5.32956e-05
5.30979e-05
3.62288e-05
2.88335e-05
6.01931e-05
2.85885e-05
6.00701e-05
5.32984e-05
6.46162e-05
7.13549e-05
6.47117e-05
6.46153e-05
7.13594e-05
7.13245e-05
6.47152e-05
4.15856e-05
6.68943e-05
6.69071e-05
6.68337e-05
6.68437e-05
6.95316e-05
6.95057e-05
6.95347e-05
6.95087e-05
6.95189e-05
6.95214e-05
7.00292e-05
5.93332e-05
6.68784e-05
7.11356e-05
7.11207e-05
5.92685e-05
7.00694e-05
7.00897e-05
5.93263e-05
6.6886e-05
7.11454e-05
7.11311e-05
5.92863e-05
7.00992e-05
9.2342e-05
7.20373e-05
7.20305e-05
7.20232e-05
7.20168e-05
9.23492e-05
7.01262e-05
6.98207e-05
6.81176e-05
6.46523e-05
7.01149e-05
6.98334e-05
6.81544e-05
7.01848e-05
7.1338e-05
7.73868e-05
7.73672e-05
7.01994e-05
7.01275e-05
6.46704e-05
6.98474e-05
6.82043e-05
6.98343e-05
6.81681e-05
7.01401e-05
7.01275e-05
6.98232e-05
6.81278e-05
6.46527e-05
7.01179e-05
6.98319e-05
6.81603e-05
7.01873e-05
7.1344e-05
7.74082e-05
7.73891e-05
7.02013e-05
7.01915e-05
7.73599e-05
7.13376e-05
7.01776e-05
7.7379e-05
7.01308e-05
6.46738e-05
6.98455e-05
6.82104e-05
6.98368e-05
6.81763e-05
7.01405e-05
6.95209e-05
6.95199e-05
9.23148e-05
7.20055e-05
7.20109e-05
9.2303e-05
7.20194e-05
7.20248e-05
7.00851e-05
5.93326e-05
6.68869e-05
7.11472e-05
5.92819e-05
7.11288e-05
7.01061e-05
7.00334e-05
5.93216e-05
6.68752e-05
7.11355e-05
7.11172e-05
5.92729e-05
7.00545e-05
7.00406e-05
7.11055e-05
5.9183e-05
6.68615e-05
5.92344e-05
7.00193e-05
7.11235e-05
6.99891e-05
7.10939e-05
5.91741e-05
6.68446e-05
6.99678e-05
7.11118e-05
5.92236e-05
9.23383e-05
7.20306e-05
7.20359e-05
7.20166e-05
7.2022e-05
9.23473e-05
6.95168e-05
6.95159e-05
7.01873e-05
7.13435e-05
7.74064e-05
7.73872e-05
7.02013e-05
7.01303e-05
6.46738e-05
6.82106e-05
6.98488e-05
6.81746e-05
6.98358e-05
7.0142e-05
7.01843e-05
7.13396e-05
7.73851e-05
7.73661e-05
7.01989e-05
7.01287e-05
6.46726e-05
6.98478e-05
6.82002e-05
6.9835e-05
6.81705e-05
7.01387e-05
7.01273e-05
6.81234e-05
6.98204e-05
6.46541e-05
7.01156e-05
6.81598e-05
6.98332e-05
7.0186e-05
7.13424e-05
7.74055e-05
7.73849e-05
7.02001e-05
7.01902e-05
7.73558e-05
7.1336e-05
7.01763e-05
7.73763e-05
7.01283e-05
6.46718e-05
6.82085e-05
6.98472e-05
6.81742e-05
6.98341e-05
7.01409e-05
7.01255e-05
6.982e-05
6.8122e-05
6.46528e-05
7.01154e-05
6.98327e-05
6.8154e-05
7.0185e-05
7.13403e-05
7.73886e-05
7.73673e-05
7.01991e-05
7.01892e-05
7.73383e-05
7.13328e-05
7.01753e-05
7.73593e-05
7.0128e-05
6.46705e-05
6.98467e-05
6.82046e-05
6.98336e-05
6.81703e-05
7.01394e-05
6.95195e-05
7.00853e-05
5.93299e-05
6.68826e-05
7.11438e-05
5.92818e-05
7.11291e-05
7.0107e-05
7.00362e-05
5.93259e-05
6.68772e-05
7.11351e-05
7.11205e-05
5.92742e-05
7.00573e-05
9.23423e-05
7.20308e-05
7.20372e-05
7.20169e-05
7.20232e-05
9.23551e-05
6.95197e-05
7.01266e-05
6.81217e-05
6.98243e-05
6.46536e-05
7.01171e-05
6.81541e-05
6.9833e-05
7.01865e-05
7.13411e-05
7.73876e-05
7.7369e-05
7.02005e-05
7.01906e-05
7.73583e-05
7.01301e-05
6.46747e-05
6.82036e-05
6.98466e-05
6.81714e-05
6.98379e-05
7.01396e-05
7.01281e-05
6.8125e-05
6.98226e-05
6.46564e-05
7.01174e-05
6.8159e-05
6.98351e-05
7.01869e-05
7.13439e-05
7.74041e-05
7.73854e-05
7.02015e-05
7.01917e-05
7.73566e-05
7.13381e-05
7.01772e-05
7.73753e-05
7.013e-05
6.46742e-05
6.82091e-05
6.98491e-05
6.8174e-05
6.98362e-05
7.01419e-05
9.23169e-05
7.20123e-05
7.20063e-05
9.23084e-05
7.20262e-05
7.20202e-05
7.00349e-05
5.93242e-05
6.6879e-05
7.1135e-05
5.92733e-05
7.11203e-05
7.00563e-05
7.00874e-05
5.93358e-05
6.68889e-05
7.11482e-05
5.92834e-05
7.11298e-05
7.01088e-05
6.99908e-05
7.10967e-05
5.91748e-05
6.68493e-05
6.99692e-05
5.92261e-05
7.11118e-05
7.00432e-05
7.11065e-05
5.91848e-05
6.68621e-05
7.00217e-05
5.92376e-05
7.11245e-05
9.23433e-05
7.20373e-05
7.20313e-05
7.20234e-05
7.20174e-05
9.23515e-05
6.95192e-05
6.9518e-05
6.95222e-05
6.95211e-05
5.95183e-05
4.17702e-05
5.05061e-05
5.05021e-05
5.04659e-05
5.04748e-05
5.95524e-05
5.9518e-05
4.1758e-05
5.05013e-05
5.04986e-05
5.04685e-05
5.04672e-05
5.95491e-05
5.95174e-05
4.17625e-05
5.05143e-05
5.05139e-05
5.04631e-05
5.04627e-05
5.95531e-05
5.95176e-05
4.17581e-05
5.05088e-05
5.05116e-05
5.04634e-05
5.04675e-05
5.95536e-05
1.49194e-05
1.49189e-05
1.4808e-05
1.07942e-05
1.08212e-05
2.0663e-05
1.49191e-05
1.49173e-05
1.48077e-05
1.4806e-05
1.0794e-05
1.08209e-05
1.49216e-05
1.49209e-05
1.48094e-05
1.07952e-05
1.08222e-05
2.06677e-05
1.49213e-05
1.4921e-05
1.48098e-05
1.48096e-05
1.07952e-05
1.08221e-05
4.55506e-05
5.54151e-05
4.35626e-05
5.31731e-05
4.55165e-05
5.54896e-05
4.36135e-05
4.80447e-05
5.25245e-05
6.01391e-05
5.85132e-05
5.2475e-05
5.84545e-05
4.80891e-05
4.56978e-05
5.32157e-05
5.56011e-05
4.37999e-05
5.5527e-05
4.37473e-05
4.57242e-05
4.5559e-05
5.54214e-05
4.35641e-05
5.31745e-05
4.55202e-05
5.54949e-05
4.36143e-05
4.80487e-05
5.2528e-05
6.01432e-05
5.85219e-05
5.84627e-05
5.24801e-05
4.80958e-05
4.79356e-05
5.83694e-05
5.23494e-05
6.01177e-05
4.78961e-05
5.84289e-05
5.23932e-05
4.5702e-05
5.3217e-05
5.56062e-05
4.38011e-05
5.55323e-05
4.37488e-05
4.57288e-05
5.9445e-05
4.15958e-05
5.03199e-05
5.03177e-05
5.03607e-05
5.94116e-05
5.03592e-05
4.80602e-05
5.25187e-05
6.01435e-05
5.85196e-05
5.24858e-05
5.84616e-05
4.80726e-05
4.57097e-05
5.32186e-05
5.56021e-05
4.37777e-05
5.55327e-05
4.3762e-05
4.56974e-05
4.80572e-05
5.25128e-05
6.0142e-05
5.85112e-05
5.84532e-05
5.24858e-05
4.80689e-05
4.57081e-05
5.32157e-05
4.37771e-05
5.55961e-05
4.3761e-05
5.55298e-05
4.56957e-05
4.55353e-05
5.54215e-05
4.35803e-05
5.31743e-05
4.55333e-05
5.54912e-05
4.35982e-05
4.80588e-05
5.25163e-05
6.01414e-05
5.85184e-05
5.24816e-05
5.84605e-05
4.80711e-05
4.7921e-05
5.8367e-05
5.2351e-05
6.01112e-05
4.79059e-05
5.23848e-05
5.84258e-05
4.57082e-05
5.32168e-05
5.56021e-05
4.38005e-05
5.55324e-05
4.37562e-05
4.56995e-05
4.55332e-05
4.35789e-05
5.542e-05
5.31735e-05
4.55402e-05
4.35974e-05
5.54892e-05
4.80587e-05
5.2516e-05
6.014e-05
5.8514e-05
5.84559e-05
5.24818e-05
4.80716e-05
4.79212e-05
5.83625e-05
5.23503e-05
6.01133e-05
4.79059e-05
5.84214e-05
5.23848e-05
4.57164e-05
5.32157e-05
4.38004e-05
5.56004e-05
4.37559e-05
5.55309e-05
4.57121e-05
4.55321e-05
4.35821e-05
5.54202e-05
5.31751e-05
4.55339e-05
4.36001e-05
5.54895e-05
4.8059e-05
5.25204e-05
6.01404e-05
5.85144e-05
5.24831e-05
5.84562e-05
4.80712e-05
4.79201e-05
5.84215e-05
4.57111e-05
5.32202e-05
4.37814e-05
5.56003e-05
4.37644e-05
5.5531e-05
4.56961e-05
4.55314e-05
4.35815e-05
5.54241e-05
5.31767e-05
4.55374e-05
4.35999e-05
5.54923e-05
4.80621e-05
5.25265e-05
6.01447e-05
5.852e-05
5.84627e-05
5.24868e-05
4.8074e-05
4.79237e-05
5.83694e-05
5.23565e-05
6.01187e-05
4.79097e-05
5.84276e-05
5.23881e-05
4.57162e-05
5.3219e-05
4.38013e-05
5.56028e-05
4.37588e-05
5.55349e-05
4.57093e-05
5.94472e-05
4.15869e-05
5.03204e-05
5.03241e-05
5.94128e-05
5.03593e-05
5.03643e-05
3.83841e-05
5.11091e-05
5.11088e-05
5.33007e-05
5.34983e-05
5.32987e-05
5.34308e-05
5.11065e-05
5.11072e-05
5.12927e-05
5.12934e-05
5.3301e-05
5.34317e-05
5.11066e-05
5.11056e-05
5.12926e-05
5.12918e-05
5.1109e-05
5.12953e-05
5.1295e-05
5.32908e-05
5.34412e-05
5.11087e-05
5.1295e-05
5.12948e-05
5.34332e-05
5.13548e-05
5.13547e-05
6.85096e-05
7.3355e-05
7.33795e-05
6.84833e-05
7.11148e-05
7.1141e-05
6.85137e-05
7.33605e-05
7.33849e-05
6.84875e-05
3.8385e-05
3.83872e-05
3.83881e-05
3.86997e-05
3.87006e-05
3.87027e-05
3.87037e-05
6.05241e-05
6.46924e-05
4.63281e-05
5.11723e-05
6.47233e-05
4.64078e-05
6.04753e-05
7.11136e-05
7.11398e-05
6.05206e-05
4.63286e-05
6.46933e-05
5.1172e-05
4.64082e-05
6.47241e-05
6.04754e-05
6.98618e-05
6.98738e-05
5.33348e-05
6.98803e-05
6.98918e-05
6.99172e-05
6.99291e-05
7.1113e-05
7.1139e-05
7.11154e-05
7.11415e-05
6.98628e-05
6.98724e-05
5.33336e-05
6.98808e-05
6.98906e-05
7.11664e-05
7.11408e-05
7.11689e-05
7.11432e-05
5.33982e-05
6.99083e-05
6.99179e-05
6.98911e-05
6.99007e-05
6.85116e-05
7.33587e-05
7.33853e-05
6.84853e-05
6.05197e-05
6.46911e-05
4.63247e-05
5.11697e-05
6.4722e-05
4.64044e-05
6.04746e-05
6.05211e-05
6.46951e-05
4.6326e-05
5.11704e-05
6.47258e-05
4.64057e-05
6.04761e-05
6.85155e-05
7.34095e-05
7.3385e-05
6.85405e-05
6.85176e-05
7.34145e-05
7.33888e-05
6.85426e-05
6.05314e-05
5.12323e-05
6.47575e-05
4.65595e-05
6.47284e-05
4.64833e-05
6.05735e-05
6.05329e-05
5.1233e-05
6.47615e-05
4.65608e-05
6.47324e-05
4.64846e-05
6.0575e-05
6.98715e-05
6.98594e-05
5.33345e-05
6.98908e-05
6.98787e-05
7.11114e-05
7.11378e-05
7.11684e-05
7.11426e-05
5.33991e-05
6.99182e-05
6.99059e-05
6.98998e-05
6.98877e-05
7.11652e-05
7.11392e-05
6.05221e-05
6.46951e-05
4.63265e-05
5.11696e-05
6.47259e-05
4.64063e-05
6.0477e-05
6.85116e-05
7.33553e-05
7.33797e-05
6.84853e-05
6.05201e-05
4.63264e-05
6.46898e-05
5.11688e-05
4.6406e-05
6.47201e-05
6.04751e-05
6.85196e-05
7.3415e-05
7.33905e-05
6.85446e-05
6.05338e-05
5.12323e-05
6.47616e-05
4.65613e-05
6.47323e-05
4.64851e-05
6.0576e-05
6.85176e-05
7.34094e-05
7.33853e-05
6.85426e-05
6.05319e-05
5.12314e-05
4.65611e-05
6.47559e-05
4.6485e-05
6.4727e-05
6.05741e-05
6.85132e-05
7.33582e-05
7.33847e-05
6.8485e-05
6.05225e-05
4.63282e-05
6.46912e-05
5.11721e-05
4.64078e-05
6.47218e-05
6.04737e-05
6.85114e-05
7.33563e-05
7.33808e-05
6.84832e-05
6.05321e-05
5.12349e-05
6.4759e-05
4.65627e-05
6.47297e-05
4.64866e-05
6.05781e-05
6.85172e-05
7.34142e-05
7.33883e-05
6.85441e-05
6.05305e-05
5.12347e-05
4.65628e-05
6.47574e-05
4.64867e-05
6.47285e-05
6.05765e-05
6.85154e-05
7.34104e-05
7.33863e-05
6.85424e-05
6.98661e-05
6.98633e-05
5.33439e-05
6.98837e-05
6.98813e-05
7.11141e-05
7.11401e-05
7.11672e-05
7.11413e-05
5.33879e-05
6.9911e-05
6.99086e-05
6.98944e-05
6.98916e-05
7.11676e-05
7.11419e-05
6.05218e-05
4.6329e-05
6.46968e-05
5.11718e-05
4.64087e-05
6.47273e-05
6.04767e-05
6.85103e-05
7.33575e-05
7.3382e-05
6.84839e-05
6.85127e-05
7.33604e-05
7.33849e-05
6.84864e-05
6.05322e-05
5.12346e-05
4.65632e-05
6.47597e-05
4.64871e-05
6.47306e-05
6.05744e-05
6.05335e-05
5.12345e-05
4.65637e-05
6.47631e-05
4.64876e-05
6.47341e-05
6.05757e-05
6.85161e-05
7.34117e-05
7.33875e-05
6.85411e-05
6.85186e-05
7.34149e-05
7.33904e-05
6.85435e-05
7.11132e-05
7.11393e-05
7.1116e-05
7.11421e-05
5.3399e-05
6.99079e-05
6.99193e-05
6.98903e-05
6.99021e-05
7.11667e-05
7.1141e-05
7.11695e-05
7.11438e-05
4.66385e-05
6.47639e-05
6.0584e-05
7.34158e-05
6.85461e-05
6.47695e-05
7.34187e-05
7.11683e-05
7.11712e-05
7.17877e-05
7.15692e-05
7.15373e-05
6.84997e-05
7.15566e-05
7.15283e-05
7.18018e-05
7.16285e-05
7.33646e-05
7.96984e-05
7.9702e-05
7.16135e-05
7.16271e-05
7.97152e-05
7.337e-05
7.97117e-05
7.16421e-05
7.17871e-05
6.84936e-05
7.1542e-05
7.15134e-05
7.15543e-05
7.15227e-05
7.17729e-05
7.11271e-05
7.11288e-05
7.17907e-05
7.15446e-05
7.15698e-05
6.85038e-05
7.15355e-05
7.15604e-05
7.18044e-05
7.16304e-05
7.33701e-05
7.97154e-05
7.97236e-05
7.16158e-05
7.16294e-05
7.97366e-05
7.33755e-05
7.97286e-05
7.16439e-05
7.17898e-05
6.84977e-05
7.15207e-05
7.15455e-05
7.153e-05
7.1555e-05
7.17758e-05
7.11259e-05
7.11275e-05
9.49277e-05
7.34527e-05
7.34463e-05
7.3439e-05
7.34327e-05
9.49296e-05
7.4074e-05
6.51191e-05
6.98666e-05
7.31883e-05
6.51326e-05
7.32006e-05
7.40698e-05
7.41219e-05
6.51279e-05
6.98776e-05
7.32005e-05
6.51423e-05
7.32098e-05
7.4118e-05
7.40869e-05
7.32146e-05
6.98763e-05
6.51557e-05
6.51424e-05
7.32037e-05
7.40911e-05
7.41351e-05
7.32242e-05
6.98881e-05
6.51654e-05
6.51512e-05
7.3215e-05
7.41391e-05
9.49149e-05
7.34262e-05
7.34199e-05
7.344e-05
7.34336e-05
9.4913e-05
7.41406e-05
6.52089e-05
7.32472e-05
6.9921e-05
7.41358e-05
6.5221e-05
7.3256e-05
7.41887e-05
6.52178e-05
7.32578e-05
6.99324e-05
7.41839e-05
6.52307e-05
7.32665e-05
9.49723e-05
7.34769e-05
7.34706e-05
9.49703e-05
7.34904e-05
7.34841e-05
7.11251e-05
7.11269e-05
7.11276e-05
7.11293e-05
9.49268e-05
7.34528e-05
7.3446e-05
7.34391e-05
7.34324e-05
9.49287e-05
7.4075e-05
6.51189e-05
6.98667e-05
7.31906e-05
7.31999e-05
6.51335e-05
7.40709e-05
7.41208e-05
6.51269e-05
6.98764e-05
7.32e-05
7.32093e-05
6.51411e-05
7.41164e-05
7.4088e-05
7.32144e-05
6.98771e-05
6.51566e-05
7.32051e-05
7.40921e-05
6.51423e-05
7.41335e-05
7.32237e-05
6.98867e-05
6.51642e-05
7.32144e-05
7.41378e-05
6.51502e-05
9.4914e-05
7.34264e-05
7.34196e-05
7.344e-05
7.34333e-05
9.49121e-05
7.11545e-05
7.11528e-05
7.11569e-05
7.11552e-05
9.49431e-05
7.34519e-05
7.34451e-05
9.49412e-05
7.34655e-05
7.34587e-05
7.41212e-05
6.52007e-05
6.99048e-05
7.3243e-05
7.3234e-05
6.51872e-05
7.4125e-05
7.41666e-05
6.52083e-05
6.99144e-05
7.32523e-05
7.32433e-05
6.51951e-05
7.41707e-05
7.41086e-05
7.32197e-05
6.5165e-05
6.98949e-05
7.41048e-05
7.3229e-05
6.51789e-05
7.41544e-05
7.3229e-05
6.51729e-05
6.99044e-05
7.41503e-05
7.32383e-05
6.51866e-05
9.49555e-05
7.34781e-05
7.34713e-05
7.34645e-05
7.34577e-05
9.49574e-05
7.17923e-05
7.15684e-05
7.15449e-05
6.85017e-05
7.15589e-05
7.15359e-05
7.18019e-05
7.16302e-05
7.33703e-05
7.97168e-05
7.97252e-05
7.16156e-05
7.16291e-05
7.97383e-05
7.33738e-05
7.97301e-05
7.16437e-05
7.17879e-05
6.84956e-05
7.1544e-05
7.1521e-05
7.15536e-05
7.15303e-05
7.17772e-05
7.18163e-05
7.15717e-05
7.15428e-05
6.85254e-05
7.18023e-05
7.15843e-05
7.15518e-05
7.1654e-05
7.33997e-05
7.97408e-05
7.16688e-05
7.97374e-05
7.16555e-05
7.97247e-05
7.33946e-05
7.16406e-05
7.9728e-05
7.18169e-05
6.8531e-05
7.15989e-05
7.15658e-05
7.18304e-05
7.15865e-05
7.1557e-05
7.18161e-05
7.15738e-05
7.15504e-05
6.85274e-05
7.18067e-05
7.15834e-05
7.15594e-05
7.1656e-05
7.34038e-05
7.97639e-05
7.97559e-05
7.16704e-05
7.16571e-05
7.97432e-05
7.34e-05
7.16426e-05
7.97512e-05
7.18212e-05
6.85331e-05
7.15982e-05
7.15735e-05
7.15887e-05
7.15647e-05
7.18306e-05
9.4925e-05
7.3446e-05
7.34518e-05
7.34323e-05
7.34381e-05
9.4927e-05
7.41205e-05
6.51263e-05
6.98765e-05
7.3198e-05
7.32106e-05
6.51395e-05
7.41162e-05
7.40742e-05
6.51203e-05
6.98645e-05
7.31877e-05
6.51325e-05
7.32003e-05
7.40697e-05
7.41334e-05
7.3225e-05
6.98859e-05
6.51626e-05
7.32127e-05
6.51496e-05
7.41375e-05
7.40869e-05
7.32147e-05
6.98738e-05
6.51556e-05
6.51437e-05
7.32024e-05
7.40912e-05
9.49123e-05
7.34195e-05
7.34253e-05
7.34333e-05
7.34391e-05
9.49103e-05
7.11239e-05
7.11253e-05
7.11564e-05
7.11548e-05
9.49415e-05
7.3445e-05
7.34508e-05
9.49395e-05
7.34587e-05
7.34645e-05
7.41666e-05
6.52069e-05
6.99134e-05
7.32534e-05
6.51946e-05
7.32412e-05
7.41703e-05
7.41202e-05
6.51998e-05
6.99013e-05
7.32431e-05
7.32309e-05
6.51886e-05
7.41241e-05
7.41541e-05
7.32271e-05
6.51723e-05
6.99045e-05
6.5185e-05
7.41502e-05
7.32393e-05
7.41078e-05
7.32169e-05
6.51664e-05
6.98923e-05
7.41037e-05
7.3229e-05
6.51779e-05
9.49538e-05
7.34713e-05
7.34771e-05
7.34577e-05
7.34635e-05
9.49557e-05
7.11529e-05
7.11515e-05
7.17883e-05
7.15691e-05
7.15371e-05
6.85017e-05
7.15596e-05
7.1528e-05
7.18023e-05
7.16281e-05
7.33648e-05
7.96969e-05
7.97004e-05
7.16131e-05
7.16266e-05
7.97136e-05
7.33703e-05
7.97102e-05
7.16416e-05
7.17878e-05
6.84956e-05
7.15447e-05
7.15131e-05
7.15543e-05
7.15225e-05
7.17736e-05
7.18191e-05
7.15501e-05
7.15753e-05
6.85295e-05
7.18054e-05
7.15591e-05
7.15849e-05
7.16562e-05
7.34052e-05
7.97622e-05
7.16706e-05
7.97545e-05
7.16573e-05
7.97417e-05
7.34001e-05
7.16428e-05
7.97496e-05
7.18197e-05
6.85352e-05
7.15732e-05
7.15995e-05
7.18334e-05
7.15643e-05
7.15902e-05
7.18169e-05
7.15745e-05
7.15426e-05
6.85274e-05
7.1803e-05
7.15841e-05
7.15516e-05
7.16535e-05
7.34001e-05
7.97394e-05
7.97359e-05
7.16684e-05
7.1655e-05
7.97232e-05
7.33948e-05
7.16401e-05
7.97268e-05
7.18174e-05
6.85331e-05
7.15988e-05
7.15656e-05
7.15894e-05
7.15568e-05
7.18309e-05
7.17927e-05
7.1546e-05
7.15691e-05
6.85011e-05
7.15337e-05
7.15597e-05
7.18021e-05
7.16302e-05
7.33698e-05
7.97146e-05
7.97235e-05
7.16156e-05
7.16292e-05
7.97365e-05
7.33733e-05
7.97279e-05
7.16437e-05
7.17877e-05
6.84971e-05
7.15191e-05
7.15447e-05
7.15314e-05
7.15543e-05
7.1778e-05
7.17913e-05
7.15686e-05
7.15404e-05
6.84994e-05
7.15591e-05
7.15282e-05
7.18008e-05
7.16288e-05
7.33659e-05
7.96964e-05
7.9705e-05
7.16143e-05
7.16278e-05
7.97181e-05
7.33713e-05
7.97096e-05
7.16424e-05
7.17863e-05
6.84954e-05
7.15442e-05
7.15136e-05
7.15538e-05
7.15258e-05
7.17766e-05
7.18166e-05
7.15484e-05
7.15745e-05
6.85289e-05
7.18071e-05
7.15604e-05
7.15842e-05
7.1656e-05
7.3403e-05
7.9762e-05
7.97537e-05
7.16705e-05
7.16571e-05
7.97409e-05
7.33995e-05
7.16426e-05
7.97494e-05
7.18218e-05
6.85328e-05
7.15747e-05
7.15988e-05
7.15628e-05
7.15895e-05
7.18311e-05
7.18152e-05
7.1574e-05
7.1543e-05
6.85272e-05
7.18057e-05
7.15836e-05
7.15549e-05
7.16547e-05
7.34011e-05
7.97435e-05
7.97354e-05
7.16691e-05
7.16558e-05
7.97226e-05
7.33958e-05
7.16413e-05
7.97309e-05
7.18204e-05
6.8531e-05
7.15982e-05
7.15692e-05
7.15889e-05
7.15573e-05
7.18297e-05
9.49293e-05
7.34463e-05
7.3453e-05
7.34326e-05
7.34393e-05
9.49319e-05
7.41204e-05
6.51251e-05
6.98694e-05
7.31982e-05
7.32076e-05
6.51366e-05
7.41161e-05
7.40759e-05
6.51203e-05
6.98671e-05
7.31908e-05
6.51347e-05
7.32001e-05
7.40717e-05
7.41333e-05
7.32219e-05
6.98804e-05
6.51597e-05
7.32127e-05
6.51484e-05
7.41374e-05
7.40889e-05
7.32145e-05
6.98776e-05
6.51578e-05
6.51438e-05
7.32052e-05
7.40929e-05
9.49173e-05
7.34198e-05
7.34265e-05
7.34336e-05
7.34402e-05
9.49145e-05
7.11263e-05
7.11281e-05
7.1155e-05
7.11536e-05
9.49463e-05
7.34453e-05
7.3452e-05
9.49439e-05
7.3459e-05
7.34656e-05
7.41664e-05
6.52039e-05
6.99081e-05
7.32506e-05
6.51934e-05
7.32415e-05
7.41703e-05
7.4122e-05
6.5202e-05
6.99053e-05
7.32432e-05
7.32341e-05
6.51887e-05
7.41258e-05
7.4154e-05
7.32272e-05
6.51711e-05
6.98976e-05
6.5182e-05
7.415e-05
7.32366e-05
7.41095e-05
7.32198e-05
6.51665e-05
6.98953e-05
7.41056e-05
7.32291e-05
6.51802e-05
9.49582e-05
7.34716e-05
7.34782e-05
7.3458e-05
7.34646e-05
9.49605e-05
7.11556e-05
7.11539e-05
7.17912e-05
7.15379e-05
7.15702e-05
6.85002e-05
7.15289e-05
7.15575e-05
7.18007e-05
7.163e-05
7.33671e-05
7.96977e-05
7.97062e-05
7.16154e-05
7.16289e-05
7.97192e-05
7.33725e-05
7.97109e-05
7.16435e-05
7.17862e-05
6.84942e-05
7.15141e-05
7.15429e-05
7.15233e-05
7.15553e-05
7.17765e-05
7.17917e-05
7.15419e-05
7.15708e-05
6.85027e-05
7.15329e-05
7.15582e-05
7.18012e-05
7.16294e-05
7.337e-05
7.97147e-05
7.97179e-05
7.16143e-05
7.16279e-05
7.97311e-05
7.33754e-05
7.97279e-05
7.16429e-05
7.17868e-05
6.84967e-05
7.1518e-05
7.15435e-05
7.15273e-05
7.15559e-05
7.1777e-05
7.18152e-05
7.15435e-05
7.15726e-05
6.8526e-05
7.18056e-05
7.15524e-05
7.15853e-05
7.16558e-05
7.34024e-05
7.97447e-05
7.97368e-05
7.16702e-05
7.16569e-05
7.9724e-05
7.33971e-05
7.16424e-05
7.97321e-05
7.18203e-05
6.85316e-05
7.15665e-05
7.15999e-05
7.15577e-05
7.15874e-05
7.18297e-05
7.18157e-05
7.15475e-05
7.15732e-05
6.85284e-05
7.18061e-05
7.15564e-05
7.15859e-05
7.16548e-05
7.34051e-05
7.97566e-05
7.97538e-05
7.16697e-05
7.16564e-05
7.9741e-05
7.34001e-05
7.16414e-05
7.9744e-05
7.18208e-05
6.8534e-05
7.15703e-05
7.16005e-05
7.15618e-05
7.1588e-05
7.18302e-05
7.11254e-05
7.11272e-05
7.11282e-05
7.113e-05
9.4944e-05
7.34517e-05
7.34454e-05
9.49421e-05
7.34654e-05
7.3459e-05
7.41201e-05
6.51998e-05
6.9904e-05
7.32423e-05
7.41241e-05
6.51873e-05
7.3233e-05
7.41682e-05
6.52096e-05
6.99158e-05
7.32528e-05
7.41721e-05
6.51963e-05
7.32437e-05
7.41077e-05
7.32185e-05
6.51651e-05
6.98941e-05
7.41037e-05
6.5178e-05
7.32283e-05
7.41557e-05
7.32295e-05
6.5174e-05
6.99059e-05
7.41518e-05
6.51878e-05
7.32388e-05
9.49563e-05
7.34779e-05
7.34716e-05
9.49583e-05
7.34643e-05
7.3458e-05
7.11547e-05
7.1153e-05
7.11576e-05
7.11559e-05
7.16823e-05
7.9748e-05
7.34247e-05
7.1668e-05
7.97559e-05
7.18441e-05
6.85571e-05
7.16034e-05
7.15711e-05
7.18345e-05
7.16135e-05
7.15829e-05
7.343e-05
7.11802e-05
7.11831e-05
3.12672e-05
3.12657e-05
3.84908e-05
3.13976e-05
3.13962e-05
2.22596e-05
2.21082e-05
6.58135e-05
5.9305e-05
5.93084e-05
5.32849e-05
5.93052e-05
5.93079e-05
6.58083e-05
6.59092e-05
5.94471e-05
5.94464e-05
5.34772e-05
6.5905e-05
5.94424e-05
5.94428e-05
6.58137e-05
5.93061e-05
5.93075e-05
5.32837e-05
5.93062e-05
5.93073e-05
6.58082e-05
6.58818e-05
5.34481e-05
5.94095e-05
5.94105e-05
5.94097e-05
5.9411e-05
6.58863e-05
6.58139e-05
5.93068e-05
5.93085e-05
5.32849e-05
5.93078e-05
5.93063e-05
6.5808e-05
6.58817e-05
5.34491e-05
5.94105e-05
5.94124e-05
5.94109e-05
5.94126e-05
6.58867e-05
6.58139e-05
5.93e-05
5.93022e-05
5.32938e-05
5.93098e-05
5.93073e-05
6.58061e-05
6.588e-05
5.34373e-05
5.94104e-05
5.94133e-05
5.94065e-05
5.9409e-05
6.58868e-05
6.58818e-05
5.3449e-05
5.94094e-05
5.94116e-05
6.58867e-05
5.94105e-05
5.94118e-05
3.12677e-05
3.12665e-05
3.84917e-05
3.1398e-05
3.13968e-05
2.22596e-05
2.21083e-05
3.12707e-05
3.12695e-05
3.84938e-05
3.1401e-05
3.13998e-05
2.22631e-05
2.21118e-05
3.12714e-05
3.12696e-05
3.84948e-05
3.14018e-05
3.13999e-05
2.22631e-05
2.21117e-05
3.85965e-05
3.1654e-05
3.16525e-05
3.15271e-05
3.15255e-05
2.24107e-05
2.25603e-05
3.85975e-05
3.16544e-05
3.16532e-05
3.15275e-05
3.15263e-05
2.24107e-05
2.25604e-05
3.85996e-05
3.16573e-05
3.16561e-05
3.15305e-05
3.15293e-05
2.24142e-05
2.25638e-05
3.86006e-05
3.16581e-05
3.16562e-05
3.15311e-05
3.15294e-05
2.24142e-05
2.25639e-05
5.6141e-05
6.22282e-05
5.48513e-05
6.0504e-05
6.22088e-05
5.48467e-05
5.61358e-05
5.72156e-05
6.02249e-05
6.47047e-05
6.40859e-05
6.0234e-05
6.41005e-05
5.7212e-05
5.72485e-05
6.41228e-05
6.47113e-05
6.02642e-05
6.02557e-05
6.41086e-05
5.72517e-05
5.60937e-05
6.04957e-05
6.21832e-05
5.48002e-05
6.22025e-05
5.48052e-05
5.60989e-05
5.61407e-05
5.48419e-05
6.22215e-05
6.05044e-05
5.48546e-05
6.22072e-05
5.61306e-05
5.72065e-05
6.02284e-05
6.47056e-05
6.40816e-05
6.02296e-05
6.40939e-05
5.7217e-05
5.7253e-05
6.41162e-05
6.47122e-05
6.02601e-05
6.02589e-05
6.41042e-05
5.72429e-05
5.60891e-05
6.04923e-05
5.48075e-05
6.21812e-05
5.47959e-05
6.21958e-05
5.60989e-05
6.58335e-05
5.33505e-05
5.93412e-05
5.93425e-05
5.93412e-05
5.93425e-05
6.58385e-05
6.58334e-05
5.33494e-05
5.93405e-05
5.93416e-05
6.58385e-05
5.93401e-05
5.93414e-05
6.58628e-05
5.33834e-05
5.93751e-05
5.93764e-05
6.5858e-05
5.93759e-05
5.93769e-05
5.6138e-05
6.22197e-05
5.48403e-05
6.05036e-05
6.22054e-05
5.48534e-05
5.61262e-05
5.72037e-05
6.0226e-05
6.47034e-05
6.40787e-05
6.40919e-05
6.02274e-05
5.7214e-05
5.725e-05
6.41141e-05
6.471e-05
6.02579e-05
6.41016e-05
6.02565e-05
5.72401e-05
5.60843e-05
6.04915e-05
6.21794e-05
5.48064e-05
6.21942e-05
5.47945e-05
5.60963e-05
5.61418e-05
6.22251e-05
5.48414e-05
6.05051e-05
6.22108e-05
5.48545e-05
5.61316e-05
5.72069e-05
6.02286e-05
6.47072e-05
6.40872e-05
6.40991e-05
6.02296e-05
5.72174e-05
5.72536e-05
6.41215e-05
6.4714e-05
6.026e-05
6.41097e-05
5.72434e-05
6.02592e-05
5.60901e-05
6.04929e-05
6.21848e-05
5.48077e-05
6.21995e-05
5.47958e-05
5.60999e-05
5.61678e-05
6.22309e-05
5.4896e-05
6.05472e-05
5.61791e-05
6.22451e-05
5.48832e-05
5.73216e-05
6.03159e-05
6.47466e-05
6.4157e-05
6.03154e-05
6.41456e-05
5.73109e-05
5.72753e-05
6.41234e-05
6.02859e-05
6.474e-05
6.02873e-05
5.72862e-05
6.4136e-05
5.62192e-05
6.05585e-05
6.22695e-05
5.49246e-05
6.22557e-05
5.4939e-05
5.62079e-05
5.61725e-05
6.22364e-05
5.48974e-05
6.05487e-05
5.61827e-05
6.22505e-05
5.48845e-05
5.73252e-05
6.03178e-05
6.47505e-05
6.41649e-05
6.41535e-05
6.03184e-05
5.73142e-05
5.72786e-05
6.4132e-05
6.02886e-05
6.47439e-05
5.72898e-05
6.41436e-05
6.02894e-05
5.62227e-05
6.056e-05
6.22749e-05
5.49258e-05
6.22612e-05
5.49402e-05
5.62123e-05
6.58333e-05
5.33505e-05
5.93408e-05
5.93418e-05
5.93424e-05
5.9341e-05
6.58388e-05
6.58632e-05
5.33843e-05
5.93754e-05
5.93783e-05
5.93751e-05
6.58578e-05
5.93778e-05
5.61417e-05
6.22249e-05
5.48421e-05
6.0506e-05
6.22105e-05
5.48549e-05
5.61315e-05
5.72069e-05
6.02294e-05
6.47073e-05
6.40861e-05
6.40991e-05
6.02305e-05
5.72174e-05
5.72535e-05
6.41213e-05
6.4714e-05
6.02608e-05
6.4109e-05
6.02599e-05
5.72433e-05
5.60899e-05
6.04938e-05
6.21845e-05
5.48079e-05
6.21992e-05
5.47962e-05
5.60997e-05
5.61378e-05
5.48404e-05
6.22192e-05
6.0504e-05
5.48533e-05
6.22049e-05
5.61277e-05
5.72015e-05
6.02247e-05
6.47015e-05
6.40772e-05
6.40892e-05
6.02255e-05
5.7212e-05
5.72481e-05
6.41117e-05
6.47086e-05
6.0256e-05
6.40998e-05
5.7238e-05
6.02553e-05
5.60861e-05
6.04919e-05
5.48065e-05
6.21788e-05
5.47948e-05
6.21936e-05
5.60958e-05
5.61724e-05
6.2236e-05
5.48978e-05
6.05496e-05
5.61826e-05
6.22502e-05
5.48852e-05
5.7325e-05
6.03211e-05
6.47503e-05
6.41645e-05
6.0317e-05
6.41531e-05
5.73141e-05
5.72785e-05
6.41309e-05
6.02892e-05
6.4744e-05
6.02909e-05
5.72897e-05
6.41434e-05
5.62226e-05
6.05609e-05
6.22747e-05
5.49266e-05
6.22609e-05
5.49408e-05
5.62122e-05
5.61686e-05
5.48963e-05
6.22304e-05
6.05477e-05
5.61788e-05
5.48836e-05
6.22446e-05
5.73198e-05
6.03161e-05
6.47451e-05
6.41549e-05
6.41439e-05
6.03146e-05
5.73091e-05
5.72733e-05
6.4122e-05
6.02846e-05
6.47382e-05
5.72844e-05
6.41338e-05
6.02857e-05
5.62188e-05
6.0559e-05
5.4925e-05
6.2269e-05
5.49392e-05
6.22553e-05
5.62084e-05
5.61376e-05
5.48502e-05
6.22237e-05
6.05024e-05
5.48456e-05
6.22044e-05
5.61327e-05
5.72114e-05
6.02255e-05
6.47034e-05
6.40793e-05
6.02271e-05
6.40934e-05
5.72078e-05
5.72445e-05
6.41158e-05
6.47101e-05
6.02574e-05
6.0256e-05
6.41017e-05
5.72477e-05
5.60905e-05
6.04942e-05
5.47994e-05
6.21787e-05
5.48043e-05
6.2198e-05
5.60953e-05
5.61762e-05
6.22346e-05
5.489e-05
6.05515e-05
5.61818e-05
6.22534e-05
5.48942e-05
5.73199e-05
6.03212e-05
6.47476e-05
6.41658e-05
5.73229e-05
6.03159e-05
6.41525e-05
5.72878e-05
6.41306e-05
6.02851e-05
6.47413e-05
5.72849e-05
6.02928e-05
6.41444e-05
5.62215e-05
6.05594e-05
6.2278e-05
5.49372e-05
5.62158e-05
6.22595e-05
5.49334e-05
5.61733e-05
5.48888e-05
6.22301e-05
6.055e-05
5.61786e-05
5.48931e-05
6.2249e-05
5.7316e-05
6.03155e-05
6.47464e-05
6.41589e-05
6.41454e-05
6.03151e-05
5.73189e-05
5.72838e-05
6.41239e-05
6.02858e-05
6.47399e-05
5.7281e-05
6.41376e-05
6.0287e-05
5.62184e-05
6.05577e-05
5.4936e-05
6.22736e-05
5.49321e-05
6.22551e-05
5.62128e-05
6.58317e-05
5.33401e-05
5.93428e-05
5.93454e-05
5.93405e-05
5.93362e-05
6.58389e-05
6.58632e-05
5.33918e-05
5.93709e-05
5.93744e-05
5.93763e-05
6.5856e-05
5.93791e-05
5.61419e-05
5.48424e-05
6.22241e-05
6.05056e-05
5.48552e-05
6.22097e-05
5.61318e-05
5.72074e-05
6.02305e-05
6.47087e-05
6.4086e-05
6.02316e-05
6.4098e-05
5.72179e-05
5.7254e-05
6.41205e-05
6.47157e-05
6.02621e-05
6.02611e-05
6.41086e-05
5.72438e-05
5.60903e-05
6.04936e-05
5.48084e-05
6.21837e-05
5.47968e-05
6.21984e-05
5.60999e-05
5.61714e-05
5.48975e-05
6.22327e-05
6.0548e-05
5.61816e-05
5.48849e-05
6.22467e-05
5.73244e-05
6.0318e-05
6.47489e-05
6.41593e-05
5.73137e-05
6.03181e-05
6.41481e-05
5.7278e-05
6.41263e-05
6.02883e-05
6.47422e-05
5.72891e-05
6.02895e-05
6.41382e-05
5.62215e-05
6.05593e-05
5.49264e-05
6.22712e-05
5.62112e-05
5.49406e-05
6.22575e-05
5.61728e-05
5.48983e-05
6.22353e-05
6.05493e-05
5.61829e-05
5.48856e-05
6.22495e-05
5.73257e-05
6.03217e-05
6.47521e-05
6.41637e-05
6.41526e-05
6.03205e-05
5.73148e-05
5.7279e-05
6.41307e-05
6.02905e-05
6.47455e-05
5.72902e-05
6.41426e-05
6.02917e-05
5.62229e-05
6.05606e-05
5.4927e-05
6.22739e-05
5.49411e-05
6.22602e-05
5.62126e-05
6.58628e-05
5.33849e-05
5.9376e-05
5.93774e-05
6.58581e-05
5.93765e-05
5.93779e-05
5.73534e-05
6.03436e-05
6.41665e-05
6.47744e-05
6.03423e-05
5.73509e-05
6.41795e-05
5.6252e-05
6.06028e-05
5.49749e-05
6.2279e-05
5.49783e-05
5.62573e-05
6.22975e-05
6.03469e-05
6.47801e-05
6.0346e-05
2.10351e-05
3.66871e-05
3.66902e-05
4.19407e-05
2.17936e-05
3.75926e-05
3.75957e-05
4.26651e-05
2.25704e-05
3.84728e-05
3.84754e-05
4.33611e-05
2.33616e-05
3.93258e-05
3.93284e-05
4.4035e-05
2.41633e-05
4.01509e-05
4.01534e-05
4.46817e-05
2.49718e-05
4.09476e-05
4.095e-05
4.53103e-05
2.57833e-05
4.17155e-05
4.17177e-05
4.59091e-05
2.65942e-05
4.24546e-05
4.24568e-05
4.64886e-05
2.74011e-05
4.31649e-05
4.3167e-05
4.70453e-05
2.82008e-05
4.38465e-05
4.38485e-05
4.75735e-05
2.89905e-05
4.44995e-05
4.45015e-05
4.80881e-05
2.97676e-05
4.51244e-05
4.5126e-05
4.85778e-05
3.05298e-05
4.57214e-05
4.57228e-05
4.90466e-05
3.12748e-05
4.62908e-05
4.62919e-05
4.94897e-05
3.20008e-05
4.6833e-05
4.68339e-05
4.99117e-05
3.27062e-05
4.73483e-05
4.7349e-05
5.03187e-05
3.33893e-05
4.78371e-05
4.78376e-05
5.07031e-05
3.4049e-05
4.82997e-05
4.83001e-05
5.10715e-05
3.46841e-05
4.87366e-05
4.87368e-05
5.14159e-05
3.52937e-05
4.91482e-05
4.91483e-05
5.17396e-05
3.58771e-05
4.95348e-05
4.95348e-05
5.20448e-05
3.64337e-05
4.98969e-05
4.98968e-05
5.2334e-05
3.69629e-05
5.0235e-05
5.02348e-05
5.2605e-05
3.74645e-05