/*--------------------------------*- C++ -*----------------------------------*\
| =========                 |                                                 |
| \\      /  F ield         | OpenFOAM: The Open Source CFD Toolbox           |
|  \\    /   O peration     | Version:  v1906                                 |
|   \\  /    A nd           | Web:      www.OpenFOAM.com                      |
|    \\/     M anipulation  |                                                 |
\*---------------------------------------------------------------------------*/
FoamFile
{
    version     2.0;
    format      ascii;
    class       volScalarField;
    location    "1000";
    object      p;
}
// * * * * * * * * * * * * * * * * * * * * * * * * * * * * * * * * * * * * * //

dimensions      [0 2 -2 0 0 0 0];


internalField   nonuniform List<scalar> 
171728
(
0.00167306
0.00167471
0.00167471
0.00167306
0.00167471
0.00167471
0.00167471
0.00167471
0.00167306
0.00167471
0.00167471
0.00167306
0.00167479
0.00167479
0.00167479
0.00167479
0.00167237
0.00167237
0.00167238
0.00167238
0.0016857
0.00167237
0.00167239
0.0016857
0.00167237
0.0016857
0.00167239
0.00168564
0.00167244
0.00167476
0.00168373
0.00167253
0.00168564
0.00168368
0.00167244
0.00167476
0.00168566
0.00168373
0.00167253
0.00167237
0.0016857
0.00168526
0.00167238
0.00167238
0.00168571
0.0016857
0.00167237
0.0016857
0.00167237
0.00167239
0.00167244
0.00167476
0.00167253
0.00167237
0.00167239
0.00167476
0.00167244
0.00167253
0.00168564
0.00168368
0.00167244
0.00167476
0.00168566
0.00168373
0.00167254
0.0016857
0.00167237
0.0016857
0.0016724
0.00168564
0.00168368
0.00167476
0.00167244
0.00168373
0.00168566
0.00167254
0.0016857
0.00167237
0.0016857
0.0016724
0.00167237
0.00167238
0.00167238
0.00167237
0.00168564
0.00167476
0.00167244
0.00168373
0.00167254
0.00168564
0.00168368
0.00167476
0.00167244
0.00168373
0.00168566
0.00167254
0.0016857
0.00167237
0.00167239
0.0016857
0.00167237
0.0016857
0.0016724
0.00168526
0.00167238
0.00167238
0.00168571
0.00168571
0.00167237
0.0016857
0.00167237
0.0016857
0.00167673
0.00167673
0.00167672
0.00167246
0.00167674
0.00167238
0.00167673
0.0016767
0.00167241
0.00167671
0.00167247
0.00167674
0.00167238
0.00167673
0.0016767
0.00167242
0.00167675
0.00167236
0.00167236
0.00167674
0.00167674
0.00167236
0.00168133
0.00168571
0.0016857
0.00168136
0.00168571
0.00168133
0.00168135
0.00167674
0.00167673
0.00167237
0.00167674
0.00167236
0.00167674
0.00167673
0.00167237
0.00167239
0.00167674
0.00167673
0.00167236
0.00168133
0.00168571
0.0016857
0.00168136
0.00168571
0.00168133
0.00168135
0.00167674
0.00167673
0.00167237
0.00167674
0.00167237
0.00168133
0.00168571
0.00168134
0.00168571
0.00168133
0.00167674
0.00167673
0.00167237
0.00167239
0.00167674
0.00167673
0.00167236
0.00167673
0.00168133
0.00168133
0.00168571
0.00168571
0.00168572
0.00168133
0.00168133
0.00167672
0.00167247
0.00167674
0.00167238
0.0016767
0.00167673
0.00167242
0.00167672
0.00167247
0.00167674
0.00167238
0.00167673
0.0016767
0.00167242
0.00168138
0.0016857
0.00168567
0.00168135
0.00168143
0.00168569
0.00168134
0.00168138
0.0016857
0.00168567
0.00168135
0.00168569
0.00168134
0.00168143
0.00167675
0.00167236
0.00167236
0.00167674
0.00167674
0.00167236
0.00167673
0.00168133
0.00167674
0.00167673
0.00167237
0.00167674
0.00167237
0.00167674
0.00167673
0.00167239
0.00167237
0.00167673
0.00167674
0.00167236
0.00167674
0.00167673
0.00167237
0.00167674
0.00167237
0.00167674
0.00167673
0.00167237
0.00167239
0.00167674
0.00167673
0.00167236
0.00168133
0.0016857
0.00168571
0.00168136
0.00168571
0.00168135
0.00168133
0.00167674
0.00167673
0.00167237
0.00167674
0.00167237
0.00168133
0.00168571
0.00168134
0.00168571
0.00168134
0.00167674
0.00167673
0.00167239
0.00167237
0.00167673
0.00167674
0.00167236
0.00168133
0.00168571
0.0016857
0.00168136
0.00168571
0.00168133
0.00168135
0.00167674
0.00167673
0.00167237
0.00167674
0.00167237
0.00168133
0.00168571
0.00168134
0.00168571
0.00168133
0.00167674
0.00167673
0.00167237
0.00167239
0.00167674
0.00167673
0.00167236
0.00167673
0.00167672
0.00167247
0.00167674
0.00167238
0.0016767
0.00167673
0.00167241
0.00167672
0.00167247
0.00167674
0.00167238
0.00167673
0.0016767
0.00167241
0.00167675
0.00167236
0.00167236
0.00167674
0.00167674
0.00167236
0.00167673
0.00168133
0.0016857
0.00168571
0.00168136
0.00168571
0.00168135
0.00168133
0.00167674
0.00167673
0.00167237
0.00167674
0.00167237
0.00168133
0.00168133
0.00167674
0.00167673
0.00167239
0.00167237
0.00167673
0.00167674
0.00167236
0.00168133
0.0016857
0.00168571
0.00168136
0.00168571
0.00168135
0.00168133
0.00167674
0.00167673
0.00167237
0.00167674
0.00167237
0.00168133
0.00168571
0.00168134
0.00168571
0.00168134
0.00167674
0.00167673
0.00167239
0.00167237
0.00167673
0.00167674
0.00167236
0.00168133
0.00168571
0.00168571
0.00168572
0.00168133
0.00168133
0.00167672
0.00167247
0.00167674
0.00167238
0.0016767
0.00167673
0.00167241
0.00167672
0.00167247
0.00167674
0.00167238
0.0016767
0.00167673
0.00167241
0.00168138
0.0016857
0.00168567
0.00168135
0.00168569
0.00168143
0.00168134
0.00168138
0.0016857
0.00168567
0.00168135
0.00168569
0.00168143
0.00168134
0.00167675
0.00167236
0.00167236
0.00167674
0.00167674
0.00167236
0.00167673
0.00168133
0.00167673
0.00168133
0.00167663
0.00167629
0.00167274
0.00167277
0.00167649
0.00167649
0.00167257
0.00167662
0.00167629
0.00167276
0.00167276
0.00167649
0.00167649
0.00167257
0.00167663
0.00167629
0.00167276
0.00167276
0.00167649
0.00167649
0.00167257
0.00167663
0.00167629
0.00167276
0.00167276
0.00167649
0.00167649
0.00167257
0.0016748
0.0016748
0.00168377
0.00168377
0.0016748
0.00168376
0.0016748
0.0016748
0.00168377
0.00168377
0.00168377
0.0016748
0.0016748
0.0016748
0.00168377
0.00168377
0.0016748
0.00168376
0.0016748
0.0016748
0.00168377
0.00168377
0.00168377
0.0016748
0.00168175
0.00168564
0.00168546
0.0016815
0.00168544
0.00168149
0.00168176
0.0016765
0.0016726
0.00167669
0.00167249
0.00167656
0.00167668
0.00167274
0.00167647
0.00167667
0.00167252
0.00167279
0.00167667
0.00167649
0.00167278
0.00168175
0.00168564
0.00168546
0.0016815
0.00168544
0.00168149
0.00168176
0.0016765
0.00167261
0.00167669
0.00167249
0.00167668
0.00167656
0.00167274
0.00168171
0.00168565
0.00168553
0.00168141
0.00168547
0.00168146
0.00168158
0.00167647
0.00167667
0.00167252
0.00167279
0.00167667
0.00167649
0.00167278
0.00168154
0.00168203
0.00168546
0.00168546
0.00168173
0.00168559
0.00168173
0.0016765
0.00167261
0.00167669
0.00167249
0.00167656
0.00167668
0.00167274
0.00167647
0.00167667
0.00167252
0.00167279
0.00167667
0.00167649
0.00167278
0.0016765
0.00167261
0.00167669
0.00167249
0.00167668
0.00167656
0.00167274
0.00167647
0.00167667
0.00167279
0.00167252
0.00167649
0.00167667
0.00167278
0.00168175
0.00168564
0.00168546
0.0016815
0.00168544
0.00168149
0.00168176
0.0016765
0.00167261
0.00167669
0.00167249
0.00167656
0.00167668
0.00167274
0.00168171
0.00168565
0.00168553
0.00168141
0.00168547
0.00168158
0.00168146
0.00167647
0.00167667
0.00167252
0.00167279
0.00167667
0.00167649
0.00167278
0.00168175
0.00168546
0.00168564
0.0016815
0.00168544
0.00168176
0.00168149
0.0016765
0.00167261
0.00167669
0.00167249
0.00167668
0.00167656
0.00167274
0.00168171
0.00168565
0.00168553
0.00168141
0.00168547
0.00168146
0.00168158
0.00167647
0.00167667
0.00167279
0.00167252
0.00167649
0.00167667
0.00167278
0.00168175
0.00168546
0.00168564
0.0016815
0.00168544
0.00168176
0.00168149
0.0016765
0.00167261
0.00167669
0.00167249
0.00167656
0.00167668
0.00167274
0.00168171
0.00168146
0.00167647
0.00167667
0.00167279
0.00167252
0.00167649
0.00167667
0.00167278
0.00168175
0.00168546
0.00168564
0.0016815
0.00168544
0.00168176
0.00168149
0.0016765
0.00167261
0.00167669
0.00167249
0.00167668
0.00167656
0.00167274
0.00168171
0.00168565
0.00168553
0.00168141
0.00168547
0.00168146
0.00168158
0.00167647
0.00167667
0.00167279
0.00167252
0.00167649
0.00167667
0.00167278
0.00168154
0.00168203
0.00168546
0.00168546
0.0016856
0.00168173
0.00168173
0.000781424
0.000781367
0.000781367
0.000782938
0.000747632
0.000782938
0.000753276
0.000781367
0.000781367
0.000754887
0.000754887
0.000782938
0.000753276
0.000781367
0.000781367
0.000754887
0.000754887
0.000781367
0.000754887
0.000754887
0.000782938
0.000753276
0.000781367
0.000754887
0.000754887
0.000753276
0.000746058
0.000746058
0.000770377
0.0007835
0.000770378
0.000783487
0.000783507
0.000770377
0.000770376
0.000783499
0.000770378
0.000783488
0.000781424
0.000781424
0.000781424
0.000754943
0.000754943
0.000754943
0.000754943
0.00077046
0.000783452
0.000781389
0.000772542
0.000770414
0.000772563
0.000783405
0.000783507
0.000770377
0.00077046
0.000781389
0.000783453
0.000772542
0.000772563
0.000770414
0.000783405
0.000783499
0.000783499
0.00077093
0.000770372
0.000770372
0.000748196
0.000748196
0.000783507
0.000770377
0.000783507
0.000770377
0.000783499
0.000783499
0.00077093
0.000770372
0.000770372
0.000752724
0.000765858
0.000752724
0.000765858
0.000765287
0.000752718
0.000752718
0.00076585
0.00076585
0.000770377
0.000783499
0.000770378
0.000783487
0.00077046
0.000783453
0.000781389
0.000772542
0.000770414
0.000772563
0.000783405
0.00077046
0.000783452
0.000781389
0.000772542
0.000770414
0.000772563
0.000783405
0.000765838
0.000752725
0.000765851
0.000752723
0.000765838
0.000752725
0.000765851
0.000752723
0.000765755
0.000763715
0.000752761
0.000754908
0.000765804
0.000763736
0.000752806
0.000765755
0.000763715
0.000752761
0.000754908
0.000765803
0.000763736
0.000752806
0.000783499
0.000783499
0.000770931
0.000770372
0.000770372
0.000783507
0.000770377
0.000752724
0.000765858
0.000765287
0.000752719
0.000752719
0.00076585
0.00076585
0.000752724
0.000765858
0.00077046
0.000783452
0.000781389
0.000772542
0.000770414
0.000772563
0.000783405
0.000770376
0.000783499
0.000770378
0.000783488
0.00077046
0.000781389
0.000783452
0.000772542
0.000772563
0.000770414
0.000783405
0.000765839
0.000752725
0.000765851
0.000752723
0.000765756
0.000763715
0.000752761
0.000754908
0.000765803
0.000763736
0.000752806
0.000765839
0.000752725
0.00076585
0.000752723
0.000765756
0.000763715
0.000754908
0.000752761
0.000763736
0.000765803
0.000752806
0.000770377
0.000783499
0.000770378
0.000783487
0.00077046
0.000781389
0.000783453
0.000772542
0.000772563
0.000770414
0.000783405
0.000770377
0.0007835
0.000770378
0.000783487
0.000765756
0.000763715
0.000752761
0.000754908
0.000765803
0.000763736
0.000752806
0.000765838
0.000752725
0.00076585
0.000752723
0.000765756
0.000763715
0.000754908
0.000752761
0.000763736
0.000765804
0.000752806
0.000765838
0.000752725
0.000765851
0.000752723
0.000783499
0.000783499
0.000770931
0.000770372
0.000770372
0.000783507
0.000770377
0.000752724
0.000765858
0.000765287
0.000752719
0.000752719
0.00076585
0.00076585
0.000752724
0.000765858
0.00077046
0.000781389
0.000783453
0.000772542
0.000772563
0.000770414
0.000783405
0.000770377
0.0007835
0.000770378
0.000783487
0.000770377
0.0007835
0.000770378
0.000783488
0.000765755
0.000763715
0.000754908
0.000752761
0.000763736
0.000765804
0.000752806
0.000765756
0.000763715
0.000754908
0.000752761
0.000763736
0.000765803
0.000752806
0.000765838
0.000752725
0.000765851
0.000752724
0.000765839
0.000752725
0.000765851
0.000752723
0.000783507
0.000770377
0.000783507
0.000770377
0.000765287
0.000752718
0.000752718
0.00076585
0.00076585
0.000752724
0.000765858
0.000752724
0.000765858
0.000746079
0.000748149
0.000748101
0.000748196
0.000748184
0.000748149
0.000748196
0.000748203
0.000748204
0.000774686
0.00077037
0.000770375
0.000774663
0.000774684
0.000774667
0.00077037
0.000779198
0.000779202
0.000783503
0.00077919
0.000783511
0.000774687
0.000770366
0.000774676
0.00077468
0.000770374
0.000779195
0.000779201
0.000783507
0.00078349
0.000779194
0.0007792
0.000783509
0.000779201
0.000774683
0.000774686
0.000770375
0.00077037
0.000774664
0.000774667
0.000774684
0.00077037
0.000779199
0.000779203
0.000783504
0.00077919
0.000783511
0.000774687
0.000770365
0.000774676
0.00077468
0.000770374
0.000779195
0.000779201
0.000783491
0.000783508
0.000779199
0.000779195
0.00078351
0.000779201
0.000774683
0.00077469
0.000770373
0.000770373
0.000774693
0.000774693
0.000770363
0.00077922
0.000783443
0.000779196
0.000783502
0.00077925
0.000779204
0.000783476
0.00077922
0.000783443
0.000779196
0.000783503
0.00077925
0.000779204
0.000783476
0.000774652
0.00077038
0.000774676
0.000770426
0.000774619
0.000774679
0.000770395
0.000774652
0.00077038
0.000774676
0.000770426
0.000774619
0.000774679
0.000770395
0.000779188
0.000783517
0.000783517
0.000779197
0.000779197
0.000783513
0.000743913
0.000748139
0.000748199
0.00074389
0.000748172
0.000743943
0.000743898
0.000743913
0.000748139
0.000748199
0.00074389
0.000748172
0.000743943
0.000743898
0.000743882
0.000748213
0.000748213
0.00074821
0.000743891
0.000743891
0.000779201
0.000774683
0.000779201
0.000774683
0.00077469
0.000770372
0.000770373
0.000774693
0.000774693
0.000770363
0.00077922
0.000783443
0.000779196
0.000783503
0.000779204
0.00077925
0.000783476
0.00077922
0.000783443
0.000779196
0.000783503
0.000779204
0.00077925
0.000783476
0.000774652
0.00077038
0.000774676
0.000770425
0.000774679
0.000770395
0.000774619
0.000774652
0.00077038
0.000774676
0.000770426
0.000774679
0.000770395
0.000774619
0.000779188
0.000783517
0.000783517
0.000779197
0.000779197
0.000783513
0.000757031
0.000761551
0.000757031
0.000761551
0.000761537
0.000765868
0.000765868
0.000765864
0.000761547
0.000761547
0.000757
0.000752772
0.000757024
0.000752726
0.000757027
0.000756967
0.000752742
0.000757
0.000752772
0.000757024
0.000752726
0.000757027
0.000756967
0.000752742
0.000761569
0.000765854
0.000765794
0.000761546
0.000765827
0.000761554
0.000761599
0.000761569
0.000765854
0.000765794
0.000761546
0.000765827
0.000761554
0.000761599
0.000757038
0.000752719
0.000752719
0.000757041
0.000757041
0.00075271
0.000774686
0.00077037
0.000770375
0.000774663
0.000774684
0.000774667
0.00077037
0.000779199
0.000779203
0.000783504
0.00077919
0.000783511
0.000774687
0.000770365
0.000774676
0.00077468
0.000770374
0.000779195
0.000779201
0.000783507
0.000783491
0.000779195
0.000779199
0.000783509
0.000761544
0.000765858
0.000765841
0.000761551
0.00076586
0.000761544
0.000761549
0.000757036
0.000757024
0.000752713
0.000752721
0.000757028
0.000761548
0.000765854
0.000761552
0.000765862
0.00076154
0.000757034
0.000757012
0.000752717
0.000752722
0.000752717
0.000757032
0.000757015
0.000761544
0.000765858
0.000765842
0.000761551
0.00076586
0.000761544
0.000761549
0.000757036
0.000757024
0.000752712
0.000757028
0.000752721
0.000761548
0.000765855
0.000761552
0.000765862
0.000761539
0.000757034
0.000757012
0.000752717
0.000752722
0.000757032
0.000757015
0.000752717
0.00077469
0.000770372
0.000770372
0.000774693
0.000774693
0.000770363
0.00077922
0.000783443
0.000779196
0.000783502
0.000779204
0.000779251
0.000783476
0.00077922
0.000783443
0.000779197
0.000783502
0.000779251
0.000779204
0.000783476
0.000774652
0.00077038
0.000774675
0.000770426
0.000774679
0.000774619
0.000770395
0.000774652
0.00077038
0.000774675
0.000770426
0.000774619
0.000774679
0.000770395
0.000779188
0.000783517
0.000783517
0.000779197
0.000779197
0.000783513
0.000779201
0.000774683
0.000757031
0.000761551
0.000761537
0.000765868
0.000765868
0.000765864
0.000761546
0.000761547
0.000757
0.000752772
0.000757023
0.000752727
0.000756967
0.000757027
0.000752742
0.000757
0.000752772
0.000757023
0.000752727
0.000757027
0.000756967
0.000752742
0.000761569
0.000765853
0.000765793
0.000761546
0.0007616
0.000765827
0.000761554
0.000761569
0.000765853
0.000765794
0.000761546
0.000765827
0.000761554
0.0007616
0.000757038
0.000752719
0.00075272
0.000757041
0.000757041
0.00075271
0.000757031
0.000761551
0.000774686
0.00077037
0.000770375
0.000774664
0.000774684
0.000774667
0.00077037
0.000779198
0.000779203
0.000783503
0.00077919
0.000783511
0.000774687
0.000770366
0.000774676
0.00077468
0.000770374
0.000779195
0.000779201
0.000783508
0.00078349
0.000779194
0.0007792
0.000783509
0.000761544
0.000765842
0.000765859
0.000761551
0.000765861
0.000761549
0.000761544
0.000757036
0.000757024
0.000752712
0.000752721
0.000757028
0.000761548
0.000765855
0.000761552
0.000765862
0.00076154
0.000757034
0.000757012
0.000752721
0.000752717
0.000752717
0.000757015
0.000757032
0.000761544
0.000765859
0.000765841
0.00076155
0.00076586
0.000761544
0.000761549
0.000757036
0.000757024
0.000752713
0.000757028
0.000752721
0.000761548
0.000765854
0.000761552
0.000765862
0.00076154
0.000757034
0.000757012
0.000752717
0.000752722
0.000757032
0.000757015
0.000752717
0.000774686
0.000770375
0.00077037
0.000774664
0.000774667
0.000774684
0.00077037
0.000779199
0.000779203
0.000783504
0.00077919
0.000783511
0.000774687
0.000770365
0.000774676
0.00077468
0.000770374
0.000779194
0.000779201
0.000783491
0.000783507
0.000779199
0.000779195
0.000783509
0.000774686
0.00077037
0.000770375
0.000774664
0.000774684
0.000774667
0.00077037
0.000779199
0.000779202
0.000783504
0.00077919
0.000783511
0.000774687
0.000770365
0.000774676
0.00077468
0.000770374
0.000779194
0.000779201
0.000783507
0.000783491
0.000779194
0.000779199
0.000783509
0.000761544
0.000765842
0.000765859
0.000761551
0.000765861
0.000761549
0.000761544
0.000757036
0.000757024
0.000752712
0.000757028
0.000752721
0.000761548
0.000765855
0.000761552
0.000765862
0.000761539
0.000757034
0.000757012
0.000752722
0.000752717
0.000757015
0.000757032
0.000752717
0.000761544
0.000765859
0.000765842
0.000761551
0.000765861
0.000761544
0.000761549
0.000757036
0.000757024
0.000752712
0.000757028
0.000752721
0.000761548
0.000765855
0.000761552
0.000765862
0.000761539
0.000757034
0.000757012
0.000752717
0.000752722
0.000757032
0.000757015
0.000752717
0.00077469
0.000770372
0.000770373
0.000774693
0.000774693
0.000770363
0.00077922
0.000783443
0.000779197
0.000783502
0.000779204
0.000779251
0.000783476
0.00077922
0.000783443
0.000779196
0.000783502
0.00077925
0.000779204
0.000783476
0.000774652
0.00077038
0.000774675
0.000770426
0.000774678
0.000774619
0.000770395
0.000774652
0.00077038
0.000774676
0.000770426
0.000774619
0.000774679
0.000770395
0.000779188
0.000783517
0.000783517
0.000779197
0.000779197
0.000783513
0.000779201
0.000774683
0.000757031
0.000761551
0.000761537
0.000765868
0.000765868
0.000765864
0.000761547
0.000761547
0.000757
0.000752773
0.000757023
0.000752727
0.000756967
0.000757027
0.000752742
0.000757
0.000752772
0.000757024
0.000752727
0.000757027
0.000756967
0.000752742
0.000761569
0.000765853
0.000765793
0.000761546
0.0007616
0.000765827
0.000761554
0.000761569
0.000765854
0.000765794
0.000761546
0.000765827
0.000761554
0.0007616
0.000757038
0.000752719
0.000752719
0.000757041
0.000757041
0.00075271
0.000757032
0.000761551
0.000774686
0.000770375
0.00077037
0.000774663
0.000774667
0.000774684
0.00077037
0.000779199
0.000779203
0.000783504
0.00077919
0.000783511
0.000774687
0.000770365
0.000774676
0.00077468
0.000770374
0.000779195
0.000779202
0.00078349
0.000783507
0.0007792
0.000779195
0.000783509
0.000774686
0.000770375
0.00077037
0.000774664
0.000774666
0.000774684
0.00077037
0.000779199
0.000779203
0.000783503
0.00077919
0.000783511
0.000774687
0.000770366
0.000774676
0.00077468
0.000770374
0.000779195
0.000779201
0.00078349
0.000783507
0.0007792
0.000779194
0.000783509
0.000761544
0.000765841
0.000765858
0.000761551
0.00076586
0.000761549
0.000761544
0.000757036
0.000757024
0.000752712
0.000757029
0.000752721
0.000761548
0.000765855
0.000761552
0.000765862
0.00076154
0.000757034
0.000757012
0.000752722
0.000752717
0.000757015
0.000757032
0.000752717
0.000761544
0.000765841
0.000765859
0.000761551
0.00076586
0.000761549
0.000761544
0.000757036
0.000757024
0.000752713
0.000757028
0.000752721
0.000761548
0.000765854
0.000761552
0.000765862
0.00076154
0.000757034
0.000757012
0.000752722
0.000752717
0.000757015
0.000757032
0.000752717
0.000779201
0.000774683
0.000779201
0.000774683
0.000761537
0.000765868
0.000765868
0.000765864
0.000761547
0.000761547
0.000757
0.000752772
0.000757024
0.000752727
0.000752742
0.000756967
0.000757027
0.000757
0.000752772
0.000757024
0.000752726
0.000752742
0.000756967
0.000757027
0.000761569
0.000765853
0.000765794
0.000761546
0.000765827
0.000761599
0.000761554
0.000761569
0.000765854
0.000765794
0.000761546
0.000765827
0.000761599
0.000761554
0.000757038
0.000752719
0.000752719
0.00075271
0.000757041
0.000757041
0.000757031
0.000761551
0.000757031
0.000761551
0.000743892
0.0007482
0.000743896
0.000748208
0.000743884
0.000743888
0.000743895
0.000748204
0.000748187
0.000748206
0.000743888
0.000743893
0.000743897
0.000743895
0.000743895
0.000781459
0.000781459
0.000772598
0.000772633
0.000772633
0.00077268
0.000781507
0.000779322
0.000783215
0.000783215
0.000779756
0.000779496
0.000779496
0.000783375
0.000744015
0.00074791
0.00074791
0.000744447
0.00074807
0.000744188
0.000744188
0.000779323
0.000783214
0.000783215
0.000779756
0.000779497
0.000779496
0.000783375
0.000756898
0.00075646
0.000753017
0.000753017
0.000756737
0.000756738
0.000752844
0.000779323
0.000783214
0.000783215
0.000779756
0.000779496
0.000779497
0.000783374
0.000756898
0.00075646
0.000753017
0.000753017
0.000756737
0.000756738
0.000752844
0.000779322
0.000783214
0.000783215
0.000779756
0.000779496
0.000779497
0.000783375
0.000756899
0.00075646
0.000753018
0.000753017
0.000756737
0.000756739
0.000752844
0.000756899
0.00075646
0.000753017
0.000753016
0.000752843
0.000756738
0.000756738
0.000781459
0.000781459
0.000772598
0.000772633
0.000772633
0.00077268
0.000781507
0.000781459
0.000781459
0.000772599
0.000772633
0.000772633
0.00077268
0.000781507
0.000781459
0.000781459
0.000772598
0.000772633
0.000772633
0.00077268
0.000781507
0.000763771
0.000754976
0.000754976
0.000763805
0.000763805
0.000763852
0.000755023
0.000763771
0.000754976
0.000754976
0.000763805
0.000763805
0.000763852
0.000755023
0.000763771
0.000754976
0.000754976
0.000763805
0.000763805
0.000763852
0.000755023
0.000763771
0.000754976
0.000754976
0.000763805
0.000763805
0.000763852
0.000755023
0.000774351
0.000770457
0.000770697
0.000774581
0.000774585
0.000774353
0.000770702
0.000779487
0.000783306
0.000779239
0.000783423
0.0007794
0.000779266
0.000783203
0.000774378
0.000770441
0.000774628
0.000770576
0.000774482
0.000774599
0.000770662
0.000779527
0.000779285
0.000783409
0.000783178
0.000779281
0.000779522
0.000783175
0.000774351
0.000770697
0.000770457
0.00077458
0.000774354
0.000774585
0.000770702
0.000779487
0.000783305
0.000779239
0.000783423
0.000779401
0.000779266
0.000783203
0.000774378
0.000770441
0.000774629
0.000770576
0.000774481
0.000774599
0.000770662
0.000779527
0.000779285
0.000783178
0.000783409
0.000779522
0.000779282
0.000783175
0.000774551
0.000774113
0.000770671
0.000770671
0.000774391
0.000774391
0.000770498
0.000774551
0.000774113
0.000770672
0.000770671
0.000770498
0.00077439
0.000774391
0.000761671
0.000762104
0.000765564
0.000765565
0.000765725
0.000761845
0.000761844
0.000774351
0.000770456
0.000770697
0.000774581
0.000774585
0.000774353
0.000770702
0.000779487
0.000783306
0.000779238
0.000783423
0.000779265
0.0007794
0.000783203
0.000774379
0.000770441
0.000774629
0.000770575
0.000774599
0.000774482
0.000770662
0.000779527
0.000779285
0.000783409
0.000783178
0.000779281
0.000779522
0.000783175
0.000774351
0.000770457
0.000770697
0.00077458
0.000774585
0.000774353
0.000770702
0.000779487
0.000783305
0.000779239
0.000783423
0.000779266
0.000779401
0.000783203
0.000774378
0.000770441
0.000774629
0.000770576
0.000774599
0.000770662
0.000774481
0.000779527
0.000779285
0.000783409
0.000783178
0.000779281
0.000779522
0.000783175
0.000761875
0.00076576
0.000765527
0.000761634
0.000765525
0.00076163
0.000761871
0.000756726
0.000752921
0.000756977
0.000752787
0.00075683
0.000756948
0.000753008
0.000761835
0.000765774
0.000765657
0.000761588
0.000761749
0.000765553
0.000761615
0.000756698
0.000756929
0.000752802
0.000753043
0.000756933
0.0007567
0.000753047
0.000761875
0.000765759
0.000765527
0.000761634
0.000765525
0.000761631
0.000761871
0.000756726
0.000752922
0.000756977
0.000752787
0.000756947
0.000756829
0.000753008
0.000761836
0.000765774
0.000765655
0.000761588
0.000765553
0.000761615
0.00076175
0.000756698
0.000756929
0.000752803
0.000753043
0.000756933
0.0007567
0.000753048
0.000774551
0.000774113
0.000770672
0.000770671
0.000774391
0.00077439
0.000770498
0.000761671
0.000762104
0.000765564
0.000765565
0.000761845
0.000765725
0.000761845
0.000774351
0.000770456
0.000770697
0.000774581
0.000774585
0.000774354
0.000770702
0.000779487
0.000783305
0.000779239
0.000783423
0.000779266
0.000779401
0.000783203
0.000774378
0.000770441
0.000774628
0.000770576
0.000774599
0.000774481
0.000770662
0.000779527
0.000779285
0.000783409
0.000783178
0.000779281
0.000779522
0.000783175
0.000774351
0.000770697
0.000770457
0.000774581
0.000774353
0.000774585
0.000770702
0.000779487
0.000783305
0.000779239
0.000783423
0.000779266
0.000779401
0.000783203
0.000774378
0.000770441
0.000774628
0.000770576
0.000774599
0.000770662
0.000774481
0.000779527
0.000779285
0.000783178
0.000783409
0.000779522
0.000779281
0.000783175
0.000761876
0.000765759
0.000765528
0.000761634
0.000765525
0.000761631
0.000761871
0.000756726
0.000752922
0.000756977
0.000752787
0.000756829
0.000756947
0.000753008
0.000761836
0.000765774
0.000765656
0.000761588
0.00076175
0.000765553
0.000761615
0.000756698
0.000756929
0.000752803
0.000753043
0.000756933
0.000756701
0.000753048
0.000761876
0.000765528
0.000765759
0.000761634
0.000765525
0.000761871
0.000761631
0.000756726
0.000752922
0.000756976
0.000752788
0.000756947
0.000756829
0.000753008
0.000761836
0.000765774
0.000765656
0.000761588
0.000765553
0.000761615
0.00076175
0.000756698
0.000756929
0.000753043
0.000752803
0.0007567
0.000756933
0.000753048
0.000774351
0.000770697
0.000770456
0.000774581
0.000774354
0.000774585
0.000770701
0.000779487
0.000783306
0.000779239
0.000783423
0.0007794
0.000779266
0.000783203
0.000774379
0.000770441
0.000774629
0.000770575
0.000774482
0.000774599
0.000770662
0.000779526
0.000779285
0.000783178
0.000783409
0.000779522
0.000779281
0.000783176
0.000761876
0.000765759
0.000765528
0.000761634
0.000765525
0.00076163
0.000761871
0.000756726
0.000752922
0.000756977
0.000752788
0.000753008
0.000756829
0.000756947
0.000761836
0.000765774
0.000765656
0.000761588
0.000765553
0.000761749
0.000761615
0.000756698
0.000756929
0.000752803
0.000753043
0.000753048
0.000756933
0.000756701
0.000761875
0.000765528
0.00076576
0.000761634
0.000765526
0.000761871
0.00076163
0.000756726
0.000752922
0.000756977
0.000752787
0.000756947
0.00075683
0.000753008
0.000761836
0.000765774
0.000765657
0.000761588
0.000765553
0.000761615
0.000761749
0.000756699
0.000756929
0.000753043
0.000752803
0.000756701
0.000756933
0.000753047
0.000774551
0.000774113
0.000770672
0.000770671
0.000774391
0.00077439
0.000770498
0.000761671
0.000762104
0.000765564
0.000765566
0.000761845
0.000765725
0.000761844
0.000774351
0.000770697
0.000770457
0.000774581
0.000774354
0.000774585
0.000770702
0.000779487
0.000783305
0.000779239
0.000783423
0.000779401
0.000779266
0.000783203
0.000774378
0.000770441
0.000774629
0.000770576
0.000774481
0.000774599
0.000770662
0.000779527
0.000779285
0.000783178
0.000783409
0.000779522
0.000779281
0.000783175
0.000761875
0.000765528
0.000765759
0.000761634
0.000765525
0.000761871
0.000761631
0.000756726
0.000752922
0.000756977
0.000752788
0.000753008
0.000756829
0.000756948
0.000761836
0.000765774
0.000765656
0.000761588
0.000765553
0.00076175
0.000761615
0.000756698
0.000756928
0.000753043
0.000752803
0.000753048
0.000756701
0.000756933
0.000761875
0.000765528
0.000765759
0.000761634
0.000765525
0.000761871
0.000761631
0.000756726
0.000752922
0.000756977
0.000752788
0.000756947
0.000756829
0.000753008
0.000761836
0.000765774
0.000765656
0.000761588
0.000765553
0.000761615
0.00076175
0.000756698
0.000756929
0.000753043
0.000752803
0.000756701
0.000756933
0.000753047
0.000761671
0.000762104
0.000765565
0.000765566
0.000765726
0.000761845
0.000761844
0.000744179
0.000748002
0.000748119
0.000743932
0.000744093
0.000747898
0.000743958
0.000744219
0.000743977
0.000747872
0.000748105
0.000744214
0.00074787
0.000743974
0.000748001
0.000743932
0.000744094
0.00166583
0.00166575
0.00166575
0.00166732
0.00163001
0.00162993
0.00162993
0.0016315
0.00159427
0.00159419
0.00159419
0.00159575
0.00155859
0.00155851
0.00155851
0.00156007
0.00152297
0.00152289
0.00152289
0.00152445
0.00148741
0.00148732
0.00148732
0.00148888
0.0014519
0.0014518
0.0014518
0.00145336
0.00141643
0.00141634
0.00141634
0.00141789
0.00138101
0.00138091
0.00138091
0.00138247
0.00134562
0.00134552
0.00134552
0.00134708
0.00131027
0.00131016
0.00131016
0.00131172
0.00127495
0.00127484
0.00127484
0.0012764
0.00123964
0.00123954
0.00123954
0.0012411
0.00120437
0.00120427
0.00120427
0.00120583
0.00116911
0.00116901
0.00116901
0.00117057
0.00113386
0.00113377
0.00113377
0.00113533
0.00109863
0.00109854
0.00109854
0.0011001
0.0010634
0.00106332
0.00106332
0.00106488
0.00102818
0.0010281
0.0010281
0.00102966
0.000992951
0.000992876
0.000992876
0.000994435
0.000957723
0.000957651
0.000957651
0.000959212
0.000922489
0.000922419
0.000922419
0.000923982
0.000887245
0.000887178
0.000887178
0.000888743
0.000851988
0.000851925
0.000851925
0.000853492
0.000816715
0.000816655
0.000816655
0.000818224
0.00166732
0.00163723
0.00166575
0.00166575
0.00163888
0.00163888
0.00166732
0.00163723
0.00166575
0.00166575
0.00163888
0.00163888
0.00166575
0.00163888
0.00163888
0.00166732
0.00163723
0.00166575
0.00163888
0.00163888
0.00163723
0.0016315
0.00160148
0.00162993
0.00162993
0.00160312
0.00160312
0.0016315
0.00160148
0.00162993
0.00162993
0.00160312
0.00160312
0.00162993
0.00160312
0.00160312
0.0016315
0.00160148
0.00162993
0.00160312
0.00160312
0.00160148
0.00159575
0.00156578
0.00159419
0.00159419
0.00156742
0.00156742
0.00159575
0.00156578
0.00159419
0.00159419
0.00156742
0.00156742
0.00159419
0.00156742
0.00156742