/*--------------------------------*- C++ -*----------------------------------*\
| =========                 |                                                 |
| \\      /  F ield         | OpenFOAM: The Open Source CFD Toolbox           |
|  \\    /   O peration     | Version:  v1906                                 |
|   \\  /    A nd           | Web:      www.OpenFOAM.com                      |
|    \\/     M anipulation  |                                                 |
\*---------------------------------------------------------------------------*/
FoamFile
{
    version     2.0;
    format      ascii;
    class       volScalarField;
    location    "0.185";
    object      p;
}
// * * * * * * * * * * * * * * * * * * * * * * * * * * * * * * * * * * * * * //

dimensions      [0 2 -2 0 0 0 0];


internalField   nonuniform List<scalar> 
247104
(
2.31919e-11
3.18378e-10
3.64319e-10
2.22356e-10
3.91263e-11
2.60485e-10
3.66578e-10
2.44301e-10
3.18328e-10
3.7566e-10
4.17557e-10
2.13056e-10
7.91974e-11
2.44391e-10
4.32019e-10
3.49124e-10
3.82302e-10
4.25212e-10
1.20858e-10
-2.71256e-10
-4.29812e-10
-2.29187e-10
1.71885e-10
4.39243e-10
3.68214e-10
2.4371e-10
2.26146e-10
-2.65348e-10
-7.60517e-10
-9.41093e-10
-7.11397e-10
-1.94784e-10
2.62562e-10
2.0841e-10
1.84082e-11
5.76883e-11
9.47209e-11
-4.20276e-10
-9.37125e-10
-1.12291e-09
-8.86256e-10
-3.45874e-10
1.315e-10
7.45609e-12
2.81223e-10
2.61344e-10
-2.17717e-10
-7.0513e-10
-8.83761e-10
-6.56128e-10
-1.47778e-10
2.97822e-10
2.53152e-10
3.89179e-10
4.49484e-10
1.84144e-10
-1.87245e-10
-3.41731e-10
-1.45887e-10
2.32309e-10
4.60352e-10
3.78429e-10
2.64235e-10
3.65692e-10
4.51524e-10
2.70714e-10
1.37044e-10
3.01807e-10
4.62557e-10
3.34667e-10
3.79576e-10
2.16211e-10
1.41777e-11
2.60265e-10
3.83444e-10
-3.38376e-08
-3.59304e-08
-3.59621e-08
-3.71018e-08
-3.72899e-08
-3.73552e-08
-3.73583e-08
-3.58573e-08
-3.54956e-08
-3.59665e-08
-3.80326e-08
-4.10387e-08
-4.11543e-08
-4.11546e-08
-4.10375e-08
-3.76225e-08
-3.74227e-08
-3.71035e-08
-4.10391e-08
-4.11151e-08
-4.10794e-08
-4.10791e-08
-4.11143e-08
-4.10366e-08
-3.71701e-08
-3.62928e-08
-3.38349e-08
-3.72943e-08
-4.11545e-08
-4.1079e-08
-4.09694e-08
-4.09691e-08
-4.10782e-08
-4.11525e-08
-3.73253e-08
-3.56473e-08
-3.59161e-08
-3.7357e-08
-4.1154e-08
-4.10784e-08
-4.09688e-08
-4.09685e-08
-4.10776e-08
-4.11517e-08
-3.71895e-08
-3.7469e-08
-3.73567e-08
-4.10376e-08
-4.11136e-08
-4.10775e-08
-4.10772e-08
-4.11125e-08
-4.10355e-08
-3.73211e-08
-3.65006e-08
-3.58573e-08
-3.76233e-08
-4.10367e-08
-4.11518e-08
-4.11523e-08
-4.10362e-08
-3.75234e-08
-3.72006e-08
-3.58027e-08
-3.54885e-08
-3.74237e-08
-3.71678e-08
-3.73233e-08
-3.71893e-08
-3.73225e-08
-3.72018e-08
-3.48889e-08
-3.62892e-08
-3.56494e-08
-3.74697e-08
-3.65042e-08
-3.58003e-08
-5.39032e-08
-5.41096e-08
-5.42634e-08
-5.64574e-08
-5.65114e-08
-5.65124e-08
-5.64734e-08
-5.41573e-08
-5.39995e-08
-5.42505e-08
-5.71498e-08
-6.02009e-08
-6.03771e-08
-6.03777e-08
-6.02025e-08
-5.63863e-08
-5.59911e-08
-5.64591e-08
-6.02099e-08
-6.06354e-08
-6.06403e-08
-6.06401e-08
-6.06345e-08
-6.02015e-08
-5.55851e-08
-5.36069e-08
-5.39023e-08
-5.65119e-08
-6.0379e-08
-6.06416e-08
-6.06266e-08
-6.06262e-08
-6.06403e-08
-6.03758e-08
-5.55737e-08
-5.39712e-08
-5.41085e-08
-5.65118e-08
-6.03792e-08
-6.06419e-08
-6.06266e-08
-6.06261e-08
-6.06398e-08
-6.03758e-08
-5.56553e-08
-5.60093e-08
-5.6474e-08
-6.02064e-08
-6.06355e-08
-6.06406e-08
-6.06402e-08
-6.06337e-08
-6.02021e-08
-5.55303e-08
-5.35932e-08
-5.4159e-08
-5.63881e-08
-6.02035e-08
-6.03762e-08
-6.03778e-08
-6.02018e-08
-5.58936e-08
-5.57513e-08
-5.36805e-08
-5.39994e-08
-5.59926e-08
-5.55862e-08
-5.55745e-08
-5.56559e-08
-5.55304e-08
-5.57518e-08
-5.36509e-08
-5.36098e-08
-5.39696e-08
-5.60101e-08
-5.35896e-08
-5.36829e-08
-7.349e-08
-7.36654e-08
-7.37583e-08
-7.60705e-08
-7.61075e-08
-7.62139e-08
-7.6018e-08
-7.36909e-08
-7.35071e-08
-7.37617e-08
-7.69586e-08
-7.98819e-08
-7.99469e-08
-7.9948e-08
-7.98832e-08
-7.6081e-08
-7.54243e-08
-7.607e-08
-7.98812e-08
-8.00603e-08
-8.00671e-08
-8.00673e-08
-8.00597e-08
-7.98808e-08
-7.51015e-08
-7.31665e-08
-7.34874e-08
-7.61052e-08
-7.99468e-08
-8.00679e-08
-8.00686e-08
-8.00684e-08
-8.00667e-08
-7.9945e-08
-7.49959e-08
-7.35729e-08
-7.36634e-08
-7.62115e-08
-7.99477e-08
-8.00677e-08
-8.00685e-08
-8.00683e-08
-8.00665e-08
-7.9946e-08
-7.50437e-08
-7.54588e-08
-7.60182e-08
-7.98834e-08
-8.00597e-08
-8.00667e-08
-8.0067e-08
-8.00596e-08
-7.98807e-08
-7.50115e-08
-7.31982e-08
-7.36902e-08
-7.60839e-08
-7.98804e-08
-7.99442e-08
-7.99456e-08
-7.98794e-08
-7.52157e-08
-7.52143e-08
-7.31937e-08
-7.35102e-08
-7.54262e-08
-7.51007e-08
-7.49944e-08
-7.50419e-08
-7.50101e-08
-7.52141e-08
-7.3222e-08
-7.31662e-08
-7.35702e-08
-7.54479e-08
-7.31934e-08
-7.31922e-08
-9.30951e-08
-9.32629e-08
-9.34393e-08
-9.57549e-08
-9.58026e-08
-9.59676e-08
-9.57062e-08
-9.33541e-08
-9.31842e-08
-9.3438e-08
-9.67136e-08
-9.96028e-08
-9.9623e-08
-9.96232e-08
-9.96047e-08
-9.58442e-08
-9.50563e-08
-9.57598e-08
-9.96054e-08
-9.96538e-08
-9.96565e-08
-9.96567e-08
-9.9654e-08
-9.96028e-08
-9.47151e-08
-9.2789e-08
-9.3093e-08
-9.58051e-08
-9.96235e-08
-9.96566e-08
-9.96568e-08
-9.96568e-08
-9.96562e-08
-9.9623e-08
-9.45355e-08
-9.31316e-08
-9.32655e-08
-9.59688e-08
-9.96232e-08
-9.96564e-08
-9.96566e-08
-9.96567e-08
-9.96563e-08
-9.96231e-08
-9.45635e-08
-9.50044e-08
-9.57059e-08
-9.96037e-08
-9.96533e-08
-9.96559e-08
-9.96563e-08
-9.96539e-08
-9.96044e-08
-9.45967e-08
-9.27671e-08
-9.33526e-08
-9.58399e-08
-9.96015e-08
-9.96223e-08
-9.96232e-08
-9.96046e-08
-9.47381e-08
-9.48117e-08
-9.28268e-08
-9.31892e-08
-9.50566e-08
-9.4714e-08
-9.45354e-08
-9.45645e-08
-9.45989e-08
-9.48224e-08
-9.28807e-08
-9.27885e-08
-9.31305e-08
-9.50033e-08
-9.27652e-08
-9.28264e-08
-1.12746e-07
-1.12909e-07
-1.13111e-07
-1.15431e-07
-1.15479e-07
-1.15657e-07
-1.15383e-07
-1.13017e-07
-1.12837e-07
-1.1311e-07
-1.16398e-07
-1.19288e-07
-1.19293e-07
-1.19293e-07
-1.19288e-07
-1.15548e-07
-1.14749e-07
-1.15435e-07
-1.19286e-07
-1.193e-07
-1.193e-07
-1.193e-07
-1.193e-07
-1.19287e-07
-1.14374e-07
-1.12447e-07
-1.12741e-07
-1.1548e-07
-1.19292e-07
-1.193e-07
-1.193e-07
-1.193e-07
-1.193e-07
-1.19293e-07
-1.14171e-07
-1.12761e-07
-1.12908e-07
-1.15658e-07
-1.19291e-07
-1.19299e-07
-1.193e-07
-1.193e-07
-1.193e-07
-1.19292e-07
-1.14184e-07
-1.14632e-07
-1.15381e-07
-1.19284e-07
-1.19298e-07
-1.19299e-07
-1.193e-07
-1.193e-07
-1.19288e-07
-1.14244e-07
-1.12401e-07
-1.13014e-07
-1.15548e-07
-1.19285e-07
-1.19292e-07
-1.19292e-07
-1.19287e-07
-1.14355e-07
-1.14457e-07
-1.12489e-07
-1.12834e-07
-1.14743e-07
-1.14372e-07
-1.14169e-07
-1.14184e-07
-1.14243e-07
-1.14467e-07
-1.12553e-07
-1.12444e-07
-1.12757e-07
-1.14631e-07
-1.124e-07
-1.12489e-07
-1.32401e-07
-1.32563e-07
-1.32768e-07
-1.35093e-07
-1.35143e-07
-1.35324e-07
-1.35048e-07
-1.32681e-07
-1.32502e-07
-1.32763e-07
-1.3606e-07
-1.38953e-07
-1.38954e-07
-1.38955e-07
-1.38954e-07
-1.35221e-07
-1.34402e-07
-1.35097e-07
-1.38953e-07
-1.38956e-07
-1.38956e-07
-1.38956e-07
-1.38956e-07
-1.38953e-07
-1.34035e-07
-1.32105e-07
-1.32396e-07
-1.35143e-07
-1.38954e-07
-1.38956e-07
-1.38956e-07
-1.38956e-07
-1.38957e-07
-1.38955e-07
-1.33823e-07
-1.32412e-07
-1.32563e-07
-1.35324e-07
-1.38954e-07
-1.38956e-07
-1.38956e-07
-1.38956e-07
-1.38957e-07
-1.38955e-07
-1.33833e-07
-1.34282e-07
-1.35049e-07
-1.38953e-07
-1.38956e-07
-1.38956e-07
-1.38956e-07
-1.38956e-07
-1.38953e-07
-1.33903e-07
-1.32053e-07
-1.32678e-07
-1.35227e-07
-1.38953e-07
-1.38954e-07
-1.38954e-07
-1.38953e-07
-1.33999e-07
-1.34109e-07
-1.32145e-07
-1.32471e-07
-1.34404e-07
-1.34032e-07
-1.33824e-07
-1.33833e-07
-1.33904e-07
-1.34122e-07
-1.32214e-07
-1.32104e-07
-1.32409e-07
-1.34282e-07
-1.32056e-07
-1.32147e-07
-1.52061e-07
-1.52223e-07
-1.52429e-07
-1.54753e-07
-1.54805e-07
-1.54985e-07
-1.54709e-07
-1.52341e-07
-1.52164e-07
-1.52425e-07
-1.55721e-07
-1.58614e-07
-1.58615e-07
-1.58615e-07
-1.58615e-07
-1.54883e-07
-1.54062e-07
-1.54759e-07
-1.58615e-07
-1.58616e-07
-1.58615e-07
-1.58615e-07
-1.58616e-07
-1.58615e-07
-1.53697e-07
-1.51767e-07
-1.52056e-07
-1.54806e-07
-1.58615e-07
-1.58615e-07
-1.58615e-07
-1.58615e-07
-1.58616e-07
-1.58615e-07
-1.5348e-07
-1.52072e-07
-1.52223e-07
-1.54987e-07
-1.58615e-07
-1.58615e-07
-1.58615e-07
-1.58615e-07
-1.58615e-07
-1.58616e-07
-1.5349e-07
-1.53941e-07
-1.54712e-07
-1.58615e-07
-1.58616e-07
-1.58616e-07
-1.58615e-07
-1.58616e-07
-1.58615e-07
-1.53562e-07
-1.51713e-07
-1.52342e-07
-1.54891e-07
-1.58615e-07
-1.58616e-07
-1.58615e-07
-1.58615e-07
-1.53659e-07
-1.53771e-07
-1.51807e-07
-1.52134e-07
-1.54065e-07
-1.53695e-07
-1.53481e-07
-1.53492e-07
-1.53562e-07
-1.53781e-07
-1.51874e-07
-1.51765e-07
-1.5207e-07
-1.53941e-07
-1.51715e-07
-1.51807e-07
-1.71719e-07
-1.7188e-07
-1.72087e-07
-1.74412e-07
-1.74462e-07
-1.74644e-07
-1.74368e-07
-1.71999e-07
-1.71822e-07
-1.72083e-07
-1.75378e-07
-1.78273e-07
-1.78274e-07
-1.78274e-07
-1.78273e-07
-1.74543e-07
-1.73719e-07
-1.74417e-07
-1.78273e-07
-1.78274e-07
-1.78274e-07
-1.78274e-07
-1.78274e-07
-1.78273e-07
-1.73352e-07
-1.71424e-07
-1.71714e-07
-1.74463e-07
-1.78273e-07
-1.78274e-07
-1.78274e-07
-1.78274e-07
-1.78274e-07
-1.78274e-07
-1.73138e-07
-1.71729e-07
-1.7188e-07
-1.74646e-07
-1.78273e-07
-1.78274e-07
-1.78274e-07
-1.78274e-07
-1.78274e-07
-1.78274e-07
-1.73148e-07
-1.73598e-07
-1.7437e-07
-1.78273e-07
-1.78274e-07
-1.78274e-07
-1.78274e-07
-1.78274e-07
-1.78273e-07
-1.73219e-07
-1.7137e-07
-1.71999e-07
-1.7455e-07
-1.78273e-07
-1.78273e-07
-1.78273e-07
-1.78273e-07
-1.73313e-07
-1.73426e-07
-1.71464e-07
-1.71792e-07
-1.73723e-07
-1.73355e-07
-1.73139e-07
-1.73149e-07
-1.73221e-07
-1.73438e-07
-1.71532e-07
-1.71423e-07
-1.71728e-07
-1.73598e-07
-1.71372e-07
-1.71465e-07
-1.91375e-07
-1.91537e-07
-1.91745e-07
-1.94071e-07
-1.9412e-07
-1.94303e-07
-1.94027e-07
-1.91657e-07
-1.9148e-07
-1.9174e-07
-1.95037e-07
-1.97935e-07
-1.97935e-07
-1.97935e-07
-1.97935e-07
-1.94204e-07
-1.93378e-07
-1.94076e-07
-1.97934e-07
-1.97936e-07
-1.97936e-07
-1.97936e-07
-1.97936e-07
-1.97935e-07
-1.93011e-07
-1.91082e-07
-1.91371e-07
-1.94123e-07
-1.97935e-07
-1.97936e-07
-1.97936e-07
-1.97936e-07
-1.97936e-07
-1.97936e-07
-1.92798e-07
-1.91386e-07
-1.91538e-07
-1.94306e-07
-1.97935e-07
-1.97936e-07
-1.97936e-07
-1.97936e-07
-1.97936e-07
-1.97936e-07
-1.92807e-07
-1.93257e-07
-1.94029e-07
-1.97935e-07
-1.97936e-07
-1.97936e-07
-1.97936e-07
-1.97936e-07
-1.97935e-07
-1.92878e-07
-1.91028e-07
-1.91657e-07
-1.9421e-07
-1.97935e-07
-1.97935e-07
-1.97935e-07
-1.97935e-07
-1.92974e-07
-1.93085e-07
-1.91121e-07
-1.9145e-07
-1.93382e-07
-1.93013e-07
-1.92798e-07
-1.92808e-07
-1.9288e-07
-1.93097e-07
-1.9119e-07
-1.9108e-07
-1.91384e-07
-1.93255e-07
-1.91029e-07
-1.91122e-07
-2.11047e-07
-2.11208e-07
-2.11416e-07
-2.13744e-07
-2.13793e-07
-2.13975e-07
-2.13699e-07
-2.11326e-07
-2.11151e-07
-2.1141e-07
-2.14708e-07
-2.17608e-07
-2.17608e-07
-2.17608e-07
-2.17607e-07
-2.13876e-07
-2.1305e-07
-2.13748e-07
-2.17607e-07
-2.17608e-07
-2.17608e-07
-2.17608e-07
-2.17608e-07
-2.17608e-07
-2.12683e-07
-2.10753e-07
-2.11041e-07
-2.13794e-07
-2.17608e-07
-2.17608e-07
-2.17608e-07
-2.17608e-07
-2.17608e-07
-2.17608e-07
-2.1247e-07
-2.11057e-07
-2.11209e-07
-2.13977e-07
-2.17608e-07
-2.17608e-07
-2.17608e-07
-2.17608e-07
-2.17608e-07
-2.17608e-07
-2.12479e-07
-2.12929e-07
-2.13701e-07
-2.17608e-07
-2.17608e-07
-2.17608e-07
-2.17608e-07
-2.17608e-07
-2.17608e-07
-2.12551e-07
-2.10699e-07
-2.11328e-07
-2.13882e-07
-2.17608e-07
-2.17608e-07
-2.17608e-07
-2.17608e-07
-2.12646e-07
-2.12757e-07
-2.10793e-07
-2.11121e-07
-2.13054e-07
-2.12685e-07
-2.1247e-07
-2.1248e-07
-2.12551e-07
-2.12769e-07
-2.10861e-07
-2.10752e-07
-2.11056e-07
-2.12928e-07
-2.107e-07
-2.10793e-07
-2.30724e-07
-2.30886e-07
-2.31078e-07
-2.33421e-07
-2.33469e-07
-2.33651e-07
-2.33375e-07
-2.31001e-07
-2.30827e-07
-2.31073e-07
-2.34395e-07
-2.37282e-07
-2.37281e-07
-2.3728e-07
-2.3728e-07
-2.33549e-07
-2.32725e-07
-2.33423e-07
-2.37282e-07
-2.37281e-07
-2.3728e-07
-2.3728e-07
-2.3728e-07
-2.3728e-07
-2.32358e-07
-2.3043e-07
-2.30719e-07
-2.3347e-07
-2.37281e-07
-2.37281e-07
-2.3728e-07
-2.3728e-07
-2.3728e-07
-2.3728e-07
-2.32144e-07
-2.30734e-07
-2.30886e-07
-2.33653e-07
-2.37281e-07
-2.3728e-07
-2.3728e-07
-2.3728e-07
-2.3728e-07
-2.3728e-07
-2.32154e-07
-2.32605e-07
-2.33377e-07
-2.37281e-07
-2.3728e-07
-2.3728e-07
-2.3728e-07
-2.3728e-07
-2.37281e-07
-2.32225e-07
-2.30376e-07
-2.31005e-07
-2.33558e-07
-2.37281e-07
-2.3728e-07
-2.3728e-07
-2.37281e-07
-2.3232e-07
-2.32432e-07
-2.3047e-07
-2.30798e-07
-2.3273e-07
-2.3236e-07
-2.32145e-07
-2.32154e-07
-2.32226e-07
-2.32444e-07
-2.30538e-07
-2.30428e-07
-2.30732e-07
-2.32604e-07
-2.30377e-07
-2.3047e-07
-2.5039e-07
-2.50551e-07
-2.50759e-07
-2.53087e-07
-2.53134e-07
-2.53316e-07
-2.53038e-07
-2.50667e-07
-2.50495e-07
-2.50759e-07
-2.54051e-07
-2.56944e-07
-2.56944e-07
-2.56944e-07
-2.56944e-07
-2.53212e-07
-2.5239e-07
-2.53086e-07
-2.56944e-07
-2.56944e-07
-2.56944e-07
-2.56944e-07
-2.56944e-07
-2.56944e-07
-2.52023e-07
-2.50095e-07
-2.50384e-07
-2.53134e-07
-2.56944e-07
-2.56944e-07
-2.56944e-07
-2.56944e-07
-2.56944e-07
-2.56944e-07
-2.51809e-07
-2.50399e-07
-2.50551e-07
-2.53317e-07
-2.56944e-07
-2.56944e-07
-2.56944e-07
-2.56944e-07
-2.56944e-07
-2.56944e-07
-2.51818e-07
-2.52269e-07
-2.53041e-07
-2.56944e-07
-2.56944e-07
-2.56944e-07
-2.56944e-07
-2.56944e-07
-2.56944e-07
-2.5189e-07
-2.50041e-07
-2.5067e-07
-2.53222e-07
-2.56944e-07
-2.56944e-07
-2.56944e-07
-2.56944e-07
-2.51984e-07
-2.52096e-07
-2.50135e-07
-2.50463e-07
-2.52395e-07
-2.52024e-07
-2.51809e-07
-2.51819e-07
-2.5189e-07
-2.52108e-07
-2.50203e-07
-2.50094e-07
-2.50397e-07
-2.52268e-07
-2.50042e-07
-2.50135e-07
-2.70049e-07
-2.7021e-07
-2.70417e-07
-2.72745e-07
-2.72793e-07
-2.72975e-07
-2.72698e-07
-2.70328e-07
-2.70154e-07
-2.70417e-07
-2.73709e-07
-2.76603e-07
-2.76603e-07
-2.76603e-07
-2.76604e-07
-2.72872e-07
-2.7205e-07
-2.72745e-07
-2.76603e-07
-2.76603e-07
-2.76603e-07
-2.76603e-07
-2.76604e-07
-2.76604e-07
-2.71683e-07
-2.69755e-07
-2.70043e-07
-2.72793e-07
-2.76603e-07
-2.76603e-07
-2.76603e-07
-2.76604e-07
-2.76604e-07
-2.76604e-07
-2.71469e-07
-2.70059e-07
-2.7021e-07
-2.72977e-07
-2.76604e-07
-2.76604e-07
-2.76604e-07
-2.76604e-07
-2.76604e-07
-2.76604e-07
-2.71478e-07
-2.71929e-07
-2.72701e-07
-2.76604e-07
-2.76604e-07
-2.76604e-07
-2.76604e-07
-2.76604e-07
-2.76604e-07
-2.7155e-07
-2.69701e-07
-2.7033e-07
-2.72882e-07
-2.76604e-07
-2.76604e-07
-2.76604e-07
-2.76604e-07
-2.71644e-07
-2.71756e-07
-2.69795e-07
-2.70123e-07
-2.72054e-07
-2.71684e-07
-2.71469e-07
-2.71478e-07
-2.7155e-07
-2.71768e-07
-2.69863e-07
-2.69753e-07
-2.70057e-07
-2.71928e-07
-2.69702e-07
-2.69795e-07
-2.89706e-07
-2.89868e-07
-2.9006e-07
-2.92401e-07
-2.92451e-07
-2.92633e-07
-2.92355e-07
-2.89987e-07
-2.89813e-07
-2.90055e-07
-2.93374e-07
-2.96262e-07
-2.96262e-07
-2.96262e-07
-2.96262e-07
-2.9253e-07
-2.91708e-07
-2.92404e-07
-2.96262e-07
-2.96262e-07
-2.96262e-07
-2.96263e-07
-2.96263e-07
-2.96262e-07
-2.91341e-07
-2.89413e-07
-2.89701e-07
-2.92452e-07
-2.96262e-07
-2.96263e-07
-2.96263e-07
-2.96263e-07
-2.96263e-07
-2.96263e-07
-2.91127e-07
-2.89717e-07
-2.89869e-07
-2.92635e-07
-2.96263e-07
-2.96263e-07
-2.96263e-07
-2.96263e-07
-2.96263e-07
-2.96263e-07
-2.91137e-07
-2.91587e-07
-2.92359e-07
-2.96263e-07
-2.96263e-07
-2.96263e-07
-2.96263e-07
-2.96263e-07
-2.96263e-07
-2.91208e-07
-2.8936e-07
-2.89988e-07
-2.9254e-07
-2.96263e-07
-2.96263e-07
-2.96263e-07
-2.96263e-07
-2.91303e-07
-2.91415e-07
-2.89453e-07
-2.89782e-07
-2.91713e-07
-2.91343e-07
-2.91127e-07
-2.91137e-07
-2.91209e-07
-2.91427e-07
-2.89521e-07
-2.89412e-07
-2.89716e-07
-2.91586e-07
-2.8936e-07
-2.89454e-07
-3.09366e-07
-3.09528e-07
-3.09725e-07
-3.12063e-07
-3.12112e-07
-3.12294e-07
-3.12016e-07
-3.09646e-07
-3.09472e-07
-3.0972e-07
-3.13037e-07
-3.15925e-07
-3.15925e-07
-3.15926e-07
-3.15925e-07
-3.12192e-07
-3.11369e-07
-3.12066e-07
-3.15925e-07
-3.15925e-07
-3.15926e-07
-3.15926e-07
-3.15926e-07
-3.15925e-07
-3.11002e-07
-3.09072e-07
-3.09361e-07
-3.12113e-07
-3.15925e-07
-3.15926e-07
-3.15926e-07
-3.15926e-07
-3.15926e-07
-3.15926e-07
-3.10788e-07
-3.09376e-07
-3.09528e-07
-3.12296e-07
-3.15925e-07
-3.15926e-07
-3.15926e-07
-3.15926e-07
-3.15926e-07
-3.15926e-07
-3.10798e-07
-3.11247e-07
-3.12019e-07
-3.15925e-07
-3.15926e-07
-3.15926e-07
-3.15926e-07
-3.15926e-07
-3.15925e-07
-3.10869e-07
-3.09018e-07
-3.09647e-07
-3.12201e-07
-3.15925e-07
-3.15926e-07
-3.15926e-07
-3.15925e-07
-3.10964e-07
-3.11075e-07
-3.09112e-07
-3.09441e-07
-3.11373e-07
-3.11003e-07
-3.10789e-07
-3.10799e-07
-3.1087e-07
-3.11087e-07
-3.09181e-07
-3.09071e-07
-3.09375e-07
-3.11248e-07
-3.09019e-07
-3.09112e-07
-3.29036e-07
-3.29198e-07
-3.29395e-07
-3.31734e-07
-3.31783e-07
-3.31965e-07
-3.31687e-07
-3.29317e-07
-3.29143e-07
-3.29391e-07
-3.32709e-07
-3.35596e-07
-3.35596e-07
-3.35596e-07
-3.35596e-07
-3.31862e-07
-3.31039e-07
-3.31737e-07
-3.35596e-07
-3.35596e-07
-3.35596e-07
-3.35596e-07
-3.35596e-07
-3.35596e-07
-3.30673e-07
-3.28743e-07
-3.29031e-07
-3.31784e-07
-3.35596e-07
-3.35596e-07
-3.35596e-07
-3.35596e-07
-3.35596e-07
-3.35596e-07
-3.30459e-07
-3.29047e-07
-3.29198e-07
-3.31967e-07
-3.35596e-07
-3.35596e-07
-3.35596e-07
-3.35596e-07
-3.35596e-07
-3.35596e-07
-3.30468e-07
-3.30918e-07
-3.3169e-07
-3.35596e-07
-3.35596e-07
-3.35596e-07
-3.35596e-07
-3.35596e-07
-3.35596e-07
-3.3054e-07
-3.28689e-07
-3.29318e-07
-3.31872e-07
-3.35596e-07
-3.35596e-07
-3.35596e-07
-3.35596e-07
-3.30635e-07
-3.30746e-07
-3.28783e-07
-3.29111e-07
-3.31044e-07
-3.30674e-07
-3.30459e-07
-3.30468e-07
-3.3054e-07
-3.30758e-07
-3.28852e-07
-3.28741e-07
-3.29045e-07
-3.30917e-07
-3.28689e-07
-3.28783e-07
-3.48709e-07
-3.48871e-07
-3.49069e-07
-3.51406e-07
-3.51454e-07
-3.51636e-07
-3.51358e-07
-3.48989e-07
-3.48815e-07
-3.49064e-07
-3.5238e-07
-3.55266e-07
-3.55267e-07
-3.55266e-07
-3.55267e-07
-3.51533e-07
-3.50711e-07
-3.51408e-07
-3.55266e-07
-3.55266e-07
-3.55266e-07
-3.55266e-07
-3.55266e-07
-3.55266e-07
-3.50344e-07
-3.48415e-07
-3.48704e-07
-3.51455e-07
-3.55266e-07
-3.55266e-07
-3.55267e-07
-3.55266e-07
-3.55266e-07
-3.55266e-07
-3.5013e-07
-3.48719e-07
-3.48871e-07
-3.51638e-07
-3.55266e-07
-3.55266e-07
-3.55266e-07
-3.55266e-07
-3.55266e-07
-3.55266e-07
-3.50139e-07
-3.5059e-07
-3.51362e-07
-3.55267e-07
-3.55267e-07
-3.55267e-07
-3.55266e-07
-3.55266e-07
-3.55266e-07
-3.50211e-07
-3.48361e-07
-3.4899e-07
-3.51543e-07
-3.55267e-07
-3.55267e-07
-3.55267e-07
-3.55267e-07
-3.50306e-07
-3.50417e-07
-3.48455e-07
-3.48783e-07
-3.50715e-07
-3.50345e-07
-3.5013e-07
-3.5014e-07
-3.50211e-07
-3.50429e-07
-3.48523e-07
-3.48413e-07
-3.48717e-07
-3.50589e-07
-3.48361e-07
-3.48455e-07
-3.68377e-07
-3.68538e-07
-3.68737e-07
-3.71074e-07
-3.71123e-07
-3.71304e-07
-3.71026e-07
-3.68657e-07
-3.68483e-07
-3.68732e-07
-3.72049e-07
-3.74936e-07
-3.74936e-07
-3.74936e-07
-3.74936e-07
-3.71202e-07
-3.70379e-07
-3.71077e-07
-3.74936e-07
-3.74936e-07
-3.74936e-07
-3.74936e-07
-3.74936e-07
-3.74936e-07
-3.70012e-07
-3.68082e-07
-3.68372e-07
-3.71124e-07
-3.74936e-07
-3.74936e-07
-3.74936e-07
-3.74936e-07
-3.74936e-07
-3.74936e-07
-3.69798e-07
-3.68387e-07
-3.68539e-07
-3.71307e-07
-3.74936e-07
-3.74936e-07
-3.74936e-07
-3.74936e-07
-3.74936e-07
-3.74936e-07
-3.69808e-07
-3.70258e-07
-3.7103e-07
-3.74936e-07
-3.74936e-07
-3.74936e-07
-3.74936e-07
-3.74936e-07
-3.74936e-07
-3.69879e-07
-3.68029e-07
-3.68658e-07
-3.71212e-07
-3.74936e-07
-3.74936e-07
-3.74936e-07
-3.74936e-07
-3.69975e-07
-3.70085e-07
-3.68122e-07
-3.68451e-07
-3.70384e-07
-3.70014e-07
-3.69799e-07
-3.69809e-07
-3.6988e-07
-3.70098e-07
-3.68192e-07
-3.68082e-07
-3.68385e-07
-3.70257e-07
-3.6803e-07
-3.68123e-07
-3.8805e-07
-3.88211e-07
-3.88409e-07
-3.90746e-07
-3.90794e-07
-3.90975e-07
-3.90697e-07
-3.88329e-07
-3.88155e-07
-3.88404e-07
-3.9172e-07
-3.94604e-07
-3.94604e-07
-3.94604e-07
-3.94604e-07
-3.90872e-07
-3.90051e-07
-3.90748e-07
-3.94604e-07
-3.94604e-07
-3.94604e-07
-3.94603e-07
-3.94604e-07
-3.94604e-07
-3.89683e-07
-3.87755e-07
-3.88045e-07
-3.90795e-07
-3.94604e-07
-3.94604e-07
-3.94603e-07
-3.94603e-07
-3.94603e-07
-3.94604e-07
-3.89469e-07
-3.88059e-07
-3.88211e-07
-3.90978e-07
-3.94604e-07
-3.94604e-07
-3.94603e-07
-3.94603e-07
-3.94603e-07
-3.94604e-07
-3.89478e-07
-3.8993e-07
-3.90702e-07
-3.94604e-07
-3.94604e-07
-3.94604e-07
-3.94603e-07
-3.94604e-07
-3.94604e-07
-3.8955e-07
-3.87701e-07
-3.8833e-07
-3.90882e-07
-3.94604e-07
-3.94604e-07
-3.94604e-07
-3.94604e-07
-3.89645e-07
-3.89757e-07
-3.87795e-07
-3.88123e-07
-3.90055e-07
-3.89685e-07
-3.89469e-07
-3.89479e-07
-3.8955e-07
-3.89769e-07
-3.87864e-07
-3.87754e-07
-3.88058e-07
-3.89929e-07
-3.87702e-07
-3.87795e-07
-4.07709e-07
-4.0787e-07
-4.08068e-07
-4.10404e-07
-4.10452e-07
-4.10633e-07
-4.10355e-07
-4.07988e-07
-4.07813e-07
-4.08063e-07
-4.11377e-07
-4.14261e-07
-4.14261e-07
-4.14261e-07
-4.14261e-07
-4.1053e-07
-4.09708e-07
-4.10406e-07
-4.14261e-07
-4.14261e-07
-4.14261e-07
-4.14261e-07
-4.14261e-07
-4.14261e-07
-4.09341e-07
-4.07414e-07
-4.07703e-07
-4.10453e-07
-4.14261e-07
-4.14261e-07
-4.14261e-07
-4.14261e-07
-4.14261e-07
-4.14261e-07
-4.09127e-07
-4.07718e-07
-4.0787e-07
-4.10635e-07
-4.14261e-07
-4.14261e-07
-4.14261e-07
-4.14261e-07
-4.14261e-07
-4.14261e-07
-4.09136e-07
-4.09587e-07
-4.10359e-07
-4.14261e-07
-4.14261e-07
-4.14261e-07
-4.14261e-07
-4.14261e-07
-4.14261e-07
-4.09208e-07
-4.0736e-07
-4.07989e-07
-4.1054e-07
-4.14261e-07
-4.14261e-07
-4.14261e-07
-4.14261e-07
-4.09302e-07
-4.09414e-07
-4.07454e-07
-4.07782e-07
-4.09713e-07
-4.09343e-07
-4.09127e-07
-4.09137e-07
-4.09208e-07
-4.09426e-07
-4.07522e-07
-4.07413e-07
-4.07717e-07
-4.09587e-07
-4.07361e-07
-4.07454e-07
-4.27361e-07
-4.27523e-07
-4.27721e-07
-4.30059e-07
-4.30107e-07
-4.30289e-07
-4.30011e-07
-4.27641e-07
-4.27467e-07
-4.27716e-07
-4.31034e-07
-4.33921e-07
-4.33921e-07
-4.33921e-07
-4.33921e-07
-4.30187e-07
-4.29364e-07
-4.30061e-07
-4.33921e-07
-4.33921e-07
-4.33921e-07
-4.33921e-07
-4.33921e-07
-4.33921e-07
-4.28997e-07
-4.27067e-07
-4.27356e-07
-4.30108e-07
-4.33921e-07
-4.33921e-07
-4.33922e-07
-4.33922e-07
-4.33921e-07
-4.33921e-07
-4.28784e-07
-4.27372e-07
-4.27523e-07
-4.30291e-07
-4.33921e-07
-4.33921e-07
-4.33922e-07
-4.33922e-07
-4.33921e-07
-4.33921e-07
-4.28793e-07
-4.29242e-07
-4.30015e-07
-4.33921e-07
-4.33921e-07
-4.33921e-07
-4.33921e-07
-4.33921e-07
-4.33921e-07
-4.28864e-07
-4.27014e-07
-4.27643e-07
-4.30197e-07
-4.33921e-07
-4.33921e-07
-4.33921e-07
-4.33921e-07
-4.2896e-07
-4.2907e-07
-4.27107e-07
-4.27436e-07
-4.29368e-07
-4.28999e-07
-4.28784e-07
-4.28793e-07
-4.28864e-07
-4.29082e-07
-4.27176e-07
-4.27066e-07
-4.27371e-07
-4.29242e-07
-4.27015e-07
-4.27107e-07
-4.47032e-07
-4.47193e-07
-4.47391e-07
-4.49729e-07
-4.49777e-07
-4.49959e-07
-4.49681e-07
-4.47311e-07
-4.47136e-07
-4.47386e-07
-4.50704e-07
-4.5359e-07
-4.5359e-07
-4.5359e-07
-4.5359e-07
-4.49857e-07
-4.49034e-07
-4.49732e-07
-4.5359e-07
-4.5359e-07
-4.5359e-07
-4.5359e-07
-4.5359e-07
-4.5359e-07
-4.48667e-07
-4.46737e-07
-4.47027e-07
-4.49778e-07
-4.5359e-07
-4.5359e-07
-4.5359e-07
-4.5359e-07
-4.5359e-07
-4.5359e-07
-4.48453e-07
-4.47042e-07
-4.47193e-07
-4.49961e-07
-4.5359e-07
-4.5359e-07
-4.5359e-07
-4.5359e-07
-4.5359e-07
-4.5359e-07
-4.48463e-07
-4.48913e-07
-4.49685e-07
-4.5359e-07
-4.5359e-07
-4.5359e-07
-4.5359e-07
-4.5359e-07
-4.5359e-07
-4.48534e-07
-4.46684e-07
-4.47313e-07
-4.49866e-07
-4.5359e-07
-4.5359e-07
-4.5359e-07
-4.5359e-07
-4.48629e-07
-4.4874e-07
-4.46777e-07
-4.47106e-07
-4.49038e-07
-4.48669e-07
-4.48454e-07
-4.48463e-07
-4.48534e-07
-4.48752e-07
-4.46846e-07
-4.46736e-07
-4.47041e-07
-4.48912e-07
-4.46685e-07
-4.46777e-07
-4.667e-07
-4.66861e-07
-4.6706e-07
-4.69397e-07
-4.69445e-07
-4.69627e-07
-4.69349e-07
-4.66978e-07
-4.66805e-07
-4.67054e-07
-4.70371e-07
-4.73258e-07
-4.73258e-07
-4.73258e-07
-4.73258e-07
-4.69525e-07
-4.68702e-07
-4.69399e-07
-4.73258e-07
-4.73258e-07
-4.73258e-07
-4.73258e-07
-4.73258e-07
-4.73258e-07
-4.68335e-07
-4.66406e-07
-4.66695e-07
-4.69446e-07
-4.73258e-07
-4.73258e-07
-4.73258e-07
-4.73258e-07
-4.73258e-07
-4.73258e-07
-4.68121e-07
-4.6671e-07
-4.66862e-07
-4.69629e-07
-4.73258e-07
-4.73258e-07
-4.73258e-07
-4.73258e-07
-4.73258e-07
-4.73258e-07
-4.6813e-07
-4.6858e-07
-4.69353e-07
-4.73258e-07
-4.73258e-07
-4.73258e-07
-4.73258e-07
-4.73258e-07
-4.73258e-07
-4.68201e-07
-4.66352e-07
-4.66981e-07
-4.69534e-07
-4.73258e-07
-4.73258e-07
-4.73258e-07
-4.73258e-07
-4.68297e-07
-4.68408e-07
-4.66445e-07
-4.66774e-07
-4.68706e-07
-4.68336e-07
-4.68121e-07
-4.68131e-07
-4.68202e-07
-4.6842e-07
-4.66514e-07
-4.66404e-07
-4.66709e-07
-4.6858e-07
-4.66353e-07
-4.66445e-07
-4.86368e-07
-4.8653e-07
-4.86728e-07
-4.89066e-07
-4.89115e-07
-4.89296e-07
-4.89018e-07
-4.86646e-07
-4.86474e-07
-4.86723e-07
-4.90041e-07
-4.92928e-07
-4.92928e-07
-4.92928e-07
-4.92928e-07
-4.89194e-07
-4.88371e-07
-4.89069e-07
-4.92928e-07
-4.92929e-07
-4.92928e-07
-4.92928e-07
-4.92928e-07
-4.92928e-07
-4.88004e-07
-4.86074e-07
-4.86363e-07
-4.89116e-07
-4.92929e-07
-4.92929e-07
-4.92929e-07
-4.92929e-07
-4.92928e-07
-4.92928e-07
-4.8779e-07
-4.86379e-07
-4.8653e-07
-4.89299e-07
-4.92929e-07
-4.92929e-07
-4.92929e-07
-4.92929e-07
-4.92928e-07
-4.92928e-07
-4.878e-07
-4.8825e-07
-4.89022e-07
-4.92929e-07
-4.92929e-07
-4.92929e-07
-4.92929e-07
-4.92928e-07
-4.92928e-07
-4.87871e-07
-4.8602e-07
-4.8665e-07
-4.89204e-07
-4.92929e-07
-4.92929e-07
-4.92929e-07
-4.92928e-07
-4.87967e-07
-4.88078e-07
-4.86114e-07
-4.86443e-07
-4.88375e-07
-4.88006e-07
-4.87791e-07
-4.878e-07
-4.87872e-07
-4.88089e-07
-4.86182e-07
-4.86073e-07
-4.86377e-07
-4.88249e-07
-4.86022e-07
-4.86114e-07
-5.06044e-07
-5.06205e-07
-5.06403e-07
-5.08741e-07
-5.0879e-07
-5.0897e-07
-5.08692e-07
-5.06321e-07
-5.06148e-07
-5.06397e-07
-5.09715e-07
-5.126e-07
-5.126e-07
-5.126e-07
-5.126e-07
-5.08868e-07
-5.08045e-07
-5.08742e-07
-5.126e-07
-5.126e-07
-5.126e-07
-5.126e-07
-5.126e-07
-5.126e-07
-5.07678e-07
-5.05749e-07
-5.06039e-07
-5.0879e-07
-5.126e-07
-5.126e-07
-5.12599e-07
-5.12599e-07
-5.126e-07
-5.126e-07
-5.07464e-07
-5.06054e-07
-5.06205e-07
-5.08973e-07
-5.126e-07
-5.126e-07
-5.12599e-07
-5.12599e-07
-5.126e-07
-5.126e-07
-5.07473e-07
-5.07924e-07
-5.08696e-07
-5.126e-07
-5.126e-07
-5.126e-07
-5.126e-07
-5.126e-07
-5.126e-07
-5.07545e-07
-5.05695e-07
-5.06325e-07
-5.08877e-07
-5.126e-07
-5.126e-07
-5.126e-07
-5.126e-07
-5.0764e-07
-5.07752e-07
-5.05789e-07
-5.06117e-07
-5.0805e-07
-5.0768e-07
-5.07464e-07
-5.07474e-07
-5.07545e-07
-5.07763e-07
-5.05857e-07
-5.05748e-07
-5.06052e-07
-5.07923e-07
-5.05697e-07
-5.05789e-07
-5.25709e-07
-5.25871e-07
-5.26068e-07
-5.28405e-07
-5.28454e-07
-5.28634e-07
-5.28356e-07
-5.25986e-07
-5.25814e-07
-5.26063e-07
-5.29379e-07
-5.32262e-07
-5.32262e-07
-5.32262e-07
-5.32263e-07
-5.28532e-07
-5.2771e-07
-5.28407e-07
-5.32262e-07
-5.32262e-07
-5.32262e-07
-5.32262e-07
-5.32262e-07
-5.32263e-07
-5.27342e-07
-5.25415e-07
-5.25704e-07
-5.28454e-07
-5.32262e-07
-5.32262e-07
-5.32262e-07
-5.32262e-07
-5.32262e-07
-5.32262e-07
-5.27128e-07
-5.25719e-07
-5.25871e-07
-5.28636e-07
-5.32262e-07
-5.32262e-07
-5.32262e-07
-5.32262e-07
-5.32262e-07
-5.32262e-07
-5.27137e-07
-5.27588e-07
-5.2836e-07
-5.32262e-07
-5.32262e-07
-5.32262e-07
-5.32262e-07
-5.32262e-07
-5.32263e-07
-5.27208e-07
-5.25361e-07
-5.2599e-07
-5.28541e-07
-5.32263e-07
-5.32262e-07
-5.32262e-07
-5.32263e-07
-5.27303e-07
-5.27416e-07
-5.25455e-07
-5.25783e-07
-5.27714e-07
-5.27343e-07
-5.27128e-07
-5.27137e-07
-5.27209e-07
-5.27427e-07
-5.25522e-07
-5.25413e-07
-5.25717e-07
-5.27588e-07
-5.25362e-07
-5.25455e-07
-5.45364e-07
-5.45526e-07
-5.45723e-07
-5.4806e-07
-5.4811e-07
-5.48291e-07
-5.48013e-07
-5.45642e-07
-5.45469e-07
-5.45719e-07
-5.49036e-07
-5.51922e-07
-5.51922e-07
-5.51922e-07
-5.51922e-07
-5.48189e-07
-5.47366e-07
-5.48063e-07
-5.51922e-07
-5.51922e-07
-5.51922e-07
-5.51922e-07
-5.51922e-07
-5.51922e-07
-5.46999e-07
-5.4507e-07
-5.45359e-07
-5.48109e-07
-5.51922e-07
-5.51922e-07
-5.51922e-07
-5.51923e-07
-5.51922e-07
-5.51922e-07
-5.46785e-07
-5.45374e-07
-5.45526e-07
-5.48293e-07
-5.51922e-07
-5.51922e-07
-5.51922e-07
-5.51922e-07
-5.51922e-07
-5.51922e-07
-5.46794e-07
-5.47244e-07
-5.48017e-07
-5.51922e-07
-5.51922e-07
-5.51922e-07
-5.51922e-07
-5.51922e-07
-5.51922e-07
-5.46866e-07
-5.45016e-07
-5.45645e-07
-5.48198e-07
-5.51922e-07
-5.51922e-07
-5.51922e-07
-5.51922e-07
-5.46961e-07
-5.47072e-07
-5.45109e-07
-5.45438e-07
-5.4737e-07
-5.47e-07
-5.46785e-07
-5.46795e-07
-5.46866e-07
-5.47084e-07
-5.45177e-07
-5.45068e-07
-5.45373e-07
-5.47243e-07
-5.45017e-07
-5.45109e-07
-5.65032e-07
-5.65193e-07
-5.65391e-07
-5.67729e-07
-5.67778e-07
-5.67959e-07
-5.67681e-07
-5.65309e-07
-5.65136e-07
-5.65386e-07
-5.68703e-07
-5.71589e-07
-5.71589e-07
-5.71589e-07
-5.71589e-07
-5.67857e-07
-5.67034e-07
-5.67731e-07
-5.71589e-07
-5.71589e-07
-5.71589e-07
-5.71589e-07
-5.71589e-07
-5.71589e-07
-5.66666e-07
-5.64737e-07
-5.65026e-07
-5.67778e-07
-5.71589e-07
-5.71589e-07
-5.71589e-07
-5.71589e-07
-5.71589e-07
-5.71589e-07
-5.66452e-07
-5.65042e-07
-5.65193e-07
-5.67961e-07
-5.71589e-07
-5.71589e-07
-5.71589e-07
-5.71589e-07
-5.71589e-07
-5.71589e-07
-5.66462e-07
-5.66912e-07
-5.67685e-07
-5.71589e-07
-5.71589e-07
-5.71589e-07
-5.71589e-07
-5.71589e-07
-5.71589e-07
-5.66533e-07
-5.64683e-07
-5.65313e-07
-5.67866e-07
-5.71589e-07
-5.71589e-07
-5.71589e-07
-5.71589e-07
-5.66628e-07
-5.6674e-07
-5.64777e-07
-5.65105e-07
-5.67038e-07
-5.66668e-07
-5.66453e-07
-5.66462e-07
-5.66533e-07
-5.66751e-07
-5.64844e-07
-5.64736e-07
-5.6504e-07
-5.66911e-07
-5.64684e-07
-5.64777e-07
-5.84698e-07
-5.84859e-07
-5.85057e-07
-5.87393e-07
-5.87442e-07
-5.87623e-07
-5.87345e-07
-5.84975e-07
-5.84802e-07
-5.85052e-07
-5.88367e-07
-5.91252e-07
-5.91252e-07
-5.91252e-07
-5.91252e-07
-5.87521e-07
-5.86698e-07
-5.87396e-07
-5.91252e-07
-5.91252e-07
-5.91252e-07
-5.91252e-07
-5.91252e-07
-5.91252e-07
-5.86331e-07
-5.84403e-07
-5.84693e-07
-5.87442e-07
-5.91252e-07
-5.91252e-07
-5.91252e-07
-5.91252e-07
-5.91252e-07
-5.91252e-07
-5.86116e-07
-5.84707e-07