/*--------------------------------*- C++ -*----------------------------------*\
| =========                 |                                                 |
| \\      /  F ield         | OpenFOAM: The Open Source CFD Toolbox           |
|  \\    /   O peration     | Version:  v1906                                 |
|   \\  /    A nd           | Web:      www.OpenFOAM.com                      |
|    \\/     M anipulation  |                                                 |
\*---------------------------------------------------------------------------*/
FoamFile
{
    version     2.0;
    format      ascii;
    class       volScalarField;
    location    "625";
    object      epsilon;
}
// * * * * * * * * * * * * * * * * * * * * * * * * * * * * * * * * * * * * * //

dimensions      [0 2 -3 0 0 0 0];


internalField   nonuniform List<scalar> 
171728
(
1.20971e-06
9.14524e-07
9.39308e-07
1.237e-06
9.15174e-07
9.31211e-07
9.37012e-07
9.05869e-07
1.22467e-06
9.29215e-07
9.0423e-07
1.19806e-06
3.51603e-07
3.70533e-07
3.65866e-07
3.45586e-07
1.86707e-05
1.86616e-05
5.62633e-06
5.62224e-06
4.16214e-06
9.31999e-06
4.17717e-06
4.16059e-06
9.35757e-06
9.30679e-06
4.17677e-06
2.16763e-06
3.5803e-06
6.04759e-07
5.99379e-07
2.17174e-06
2.16803e-06
9.37826e-07
3.60787e-06
6.14132e-07
3.58613e-06
6.07719e-07
2.17249e-06
1.87988e-05
1.87115e-05
1.24241e-06
5.69601e-06
5.68213e-06
5.65092e-06
5.64195e-06
1.87735e-05
1.86923e-05
9.31627e-06
4.1764e-06
3.57719e-06
6.05138e-07
2.17035e-06
9.36324e-06
4.17852e-06
6.11342e-07
3.60908e-06
2.17165e-06
2.16162e-06
9.35729e-07
3.59965e-06
6.11029e-07
3.58067e-06
6.04904e-07
2.16582e-06
4.15058e-06
9.33549e-06
9.29377e-06
4.16349e-06
2.16066e-06
9.04936e-07
6.00357e-07
3.56283e-06
5.95088e-07
3.56662e-06
2.1645e-06
4.15099e-06
9.29352e-06
9.28175e-06
4.16263e-06
1.87963e-05
5.70024e-06
5.6847e-06
1.87708e-05
2.16225e-06
6.07164e-07
3.59987e-06
6.02967e-07
2.16348e-06
2.16059e-06
9.03843e-07
5.97615e-07
3.55927e-06
5.93523e-07
3.56801e-06
2.16131e-06
4.1549e-06
9.33929e-06
4.16451e-06
4.15368e-06
9.2913e-06
9.28979e-06
4.16124e-06
1.2051e-06
5.5947e-06
5.58943e-06
5.61652e-06
5.6203e-06
1.86176e-05
1.86558e-05
1.86057e-05
1.866e-05
1.8679e-05
1.86717e-05
4.72118e-06
2.92383e-06
5.63132e-06
9.75369e-06
9.75446e-06
2.92563e-06
4.71844e-06
4.72636e-06
2.92098e-06
5.62883e-06
9.75213e-06
9.75564e-06
2.9257e-06
4.71709e-06
1.00995e-05
2.21938e-05
2.21855e-05
2.22112e-05
2.22046e-05
1.00824e-05
1.23056e-05
1.09006e-05
4.83339e-06
4.16877e-06
1.22958e-05
1.09068e-05
4.8414e-06
2.23228e-05
9.31696e-06
7.22628e-06
7.22454e-06
2.23308e-05
1.23101e-05
4.17415e-06
1.09122e-05
4.84944e-06
1.09097e-05
4.84674e-06
1.2314e-05
1.23051e-05
1.09007e-05
4.82538e-06
4.16745e-06
1.22931e-05
1.09075e-05
4.83498e-06
2.23045e-05
9.34366e-06
7.242e-06
7.23462e-06
2.2328e-05
2.22885e-05
7.208e-06
9.32751e-06
2.22513e-05
7.22246e-06
1.23118e-05
4.17327e-06
1.09142e-05
4.84763e-06
1.0911e-05
4.84237e-06
1.23189e-05
1.87782e-05
1.87529e-05
1.0216e-05
2.22831e-05
2.22766e-05
1.01539e-05
2.23959e-05
2.23902e-05
4.78744e-06
2.95822e-06
5.6876e-06
9.88271e-06
2.95632e-06
9.85366e-06
4.79572e-06
4.78065e-06
2.95415e-06
5.67495e-06
9.86359e-06
9.83548e-06
2.9523e-06
4.78919e-06
4.77154e-06
9.77186e-06
2.9412e-06
5.67224e-06
2.95064e-06
4.74895e-06
9.81686e-06
4.76439e-06
9.75703e-06
2.9378e-06
5.66048e-06
4.74175e-06
9.80017e-06
2.94686e-06
1.02613e-05
2.25298e-05
2.25267e-05
2.24739e-05
2.24692e-05
1.02854e-05
1.87537e-05
1.87309e-05
2.23019e-05
9.31345e-06
7.22186e-06
7.21906e-06
2.23118e-05
1.23048e-05
4.17318e-06
4.84557e-06
1.09106e-05
4.84218e-06
1.09085e-05
1.23087e-05
2.23314e-05
9.35285e-06
7.25136e-06
7.24603e-06
2.23497e-05
1.23186e-05
4.17552e-06
1.09151e-05
4.85383e-06
1.09124e-05
4.85006e-06
1.23249e-05
1.22872e-05
4.81407e-06
1.08896e-05
4.15575e-06
1.22788e-05
4.82159e-06
1.08942e-05
2.22634e-05
9.32387e-06
7.21744e-06
7.21164e-06
2.22858e-05
2.22514e-05
7.19134e-06
9.31086e-06
2.22231e-05
7.20218e-06
1.22912e-05
4.16053e-06
4.83234e-06
1.08982e-05
4.82766e-06
1.08961e-05
1.22966e-05
1.22885e-05
1.08893e-05
4.82002e-06
4.15596e-06
1.22804e-05
1.08937e-05
4.82661e-06
2.22756e-05
9.29248e-06
7.20832e-06
7.20643e-06
2.22823e-05
2.2271e-05
7.19267e-06
9.28928e-06
2.22455e-05
7.20138e-06
1.22921e-05
4.16025e-06
1.08973e-05
4.83273e-06
1.08954e-05
4.83057e-06
1.22958e-05
1.87878e-05
4.80081e-06
2.95734e-06
5.69836e-06
9.89122e-06
2.95797e-06
9.87408e-06
4.80263e-06
4.79361e-06
2.95265e-06
5.68292e-06
9.87071e-06
9.85445e-06
2.95327e-06
4.79552e-06
1.02983e-05
2.25476e-05
2.25448e-05
2.252e-05
2.25159e-05
1.03045e-05
1.8763e-05
1.22929e-05
4.82172e-06
1.08912e-05
4.15942e-06
1.2284e-05
4.82874e-06
1.08955e-05
2.22867e-05
9.33063e-06
7.22479e-06
7.21988e-06
2.2304e-05
2.22758e-05
7.21109e-06
1.22971e-05
4.16276e-06
4.83715e-06
1.08982e-05
4.83381e-06
1.0897e-05
1.23015e-05
1.22888e-05
4.82266e-06
1.08906e-05
4.1576e-06
1.22834e-05
4.8267e-06
1.08939e-05
2.22686e-05
9.29346e-06
7.20331e-06
7.20508e-06
2.22677e-05
2.22707e-05
7.19991e-06
9.29353e-06
2.22558e-05
7.20401e-06
1.22899e-05
4.16021e-06
4.82845e-06
1.0895e-05
4.82847e-06
1.08946e-05
1.22906e-05
1.00704e-05
2.22227e-05
2.22108e-05
1.00905e-05
2.22038e-05
2.21906e-05
4.69592e-06
2.9066e-06
5.605e-06
9.71197e-06
2.91146e-06
9.72613e-06
4.68447e-06
4.70022e-06
2.90569e-06
5.60175e-06
9.70816e-06
2.91097e-06
9.72576e-06
4.68858e-06
4.70859e-06
9.73703e-06
2.91598e-06
5.61472e-06
4.71284e-06
2.9156e-06
9.73676e-06
4.71323e-06
9.74392e-06
2.91724e-06
5.61542e-06
4.71775e-06
2.9163e-06
9.74187e-06
1.00343e-05
2.2112e-05
2.2098e-05
2.21482e-05
2.21342e-05
1.00024e-05
1.86329e-05
1.86525e-05
1.86243e-05
1.86519e-05
2.78275e-06
1.21494e-06
1.84269e-06
1.84152e-06
1.84739e-06
1.84738e-06
2.77783e-06
2.8145e-06
1.24339e-06
1.86722e-06
1.86625e-06
1.87275e-06
1.87172e-06
2.81466e-06
2.81463e-06
1.23434e-06
1.85635e-06
1.85543e-06
1.86526e-06
1.8643e-06
2.81209e-06
2.76806e-06
1.20355e-06
1.83036e-06
1.82974e-06
1.8356e-06
1.83528e-06
2.76157e-06
1.85128e-07
1.8504e-07
1.82841e-07
8.52617e-08
8.58745e-08
3.66945e-07
1.9055e-07
1.89562e-07
1.87235e-07
1.8639e-07
8.61257e-08
8.70086e-08
1.8933e-07
1.87914e-07
1.85653e-07
8.59274e-08
8.65987e-08
3.44697e-07
1.83217e-07
1.82197e-07
1.81158e-07
1.80529e-07
8.47208e-08
8.52326e-08
1.4731e-06
2.43344e-06
1.33404e-06
2.17059e-06
1.47351e-06
2.43663e-06
1.33455e-06
1.68478e-06
2.10881e-06
3.58138e-06
2.94779e-06
2.1116e-06
2.94824e-06
1.68201e-06
1.47716e-06
2.17189e-06
2.4375e-06
1.33733e-06
2.43784e-06
1.33866e-06
1.47442e-06
1.48204e-06
2.43509e-06
1.33698e-06
2.17113e-06
1.48229e-06
2.43922e-06
1.33745e-06
1.69781e-06
2.12811e-06
3.60415e-06
2.9617e-06
2.95981e-06
2.12974e-06
1.69516e-06
1.69442e-06
2.94809e-06
2.12466e-06
3.59567e-06
1.69401e-06
2.95459e-06
2.12737e-06
1.48605e-06
2.17257e-06
2.44171e-06
1.33956e-06
2.44138e-06
1.34111e-06
1.48303e-06
2.81005e-06
1.24115e-06
1.87128e-06
1.87029e-06
1.87202e-06
2.80276e-06
1.871e-06
1.68478e-06
2.1073e-06
3.57866e-06
2.94568e-06
2.11083e-06
2.94627e-06
1.68155e-06
1.47736e-06
2.17087e-06
2.43563e-06
1.33663e-06
2.43616e-06
1.33849e-06
1.47416e-06
1.69394e-06
2.12186e-06
3.60817e-06
2.96195e-06
2.96148e-06
2.12612e-06
1.6893e-06
1.48286e-06
2.17234e-06
1.33729e-06
2.44113e-06
1.33964e-06
2.44168e-06
1.47844e-06
1.47638e-06
2.42856e-06
1.33119e-06
2.1644e-06
1.47659e-06
2.43212e-06
1.33169e-06
1.69283e-06
2.12412e-06
3.59658e-06
2.95245e-06
2.12563e-06
2.95098e-06
1.69039e-06
1.68936e-06
2.94106e-06
2.1208e-06
3.58878e-06
1.68911e-06
2.1233e-06
2.94648e-06
1.48082e-06
2.16579e-06
2.43432e-06
1.33476e-06
2.43402e-06
1.33588e-06
1.47831e-06
1.46613e-06
1.32798e-06
2.42534e-06
2.1633e-06
1.46654e-06
1.32851e-06
2.42803e-06
1.67675e-06
2.098e-06
3.56683e-06
2.93689e-06
2.93766e-06
2.10136e-06
1.67421e-06
1.67375e-06
2.93385e-06
2.10113e-06
3.56758e-06
1.67417e-06
2.9364e-06
2.10098e-06
1.47045e-06
2.16454e-06
1.33215e-06
2.42872e-06
1.33303e-06
2.42905e-06
1.46825e-06
1.47421e-06
1.33004e-06
2.42978e-06
2.16395e-06
1.47507e-06
1.32999e-06
2.43224e-06
1.68862e-06
2.11769e-06
3.59903e-06
2.95135e-06
2.12173e-06
2.95094e-06
1.68429e-06
1.68661e-06
2.94777e-06
1.47704e-06
2.16437e-06
1.33083e-06
2.43251e-06
1.33286e-06
2.43311e-06
1.47315e-06
1.46422e-06
1.32667e-06
2.42538e-06
2.16206e-06
1.46511e-06
1.32669e-06
2.4266e-06
1.67412e-06
2.09504e-06
3.56502e-06
2.93314e-06
2.93581e-06
2.09955e-06
1.67047e-06
1.6722e-06
2.93518e-06
2.10061e-06
3.56774e-06
1.67317e-06
2.93606e-06
2.09986e-06
1.4673e-06
2.16233e-06
1.3284e-06
2.42492e-06
1.33004e-06
2.42647e-06
1.46414e-06
2.77312e-06
1.20218e-06
1.83738e-06
1.8375e-06
2.77455e-06
1.83596e-06
1.83583e-06
6.56429e-07
1.18768e-06
1.18755e-06
1.4182e-06
1.42352e-06
1.42084e-06
1.41983e-06
1.1879e-06
1.1881e-06
1.18912e-06
1.19066e-06
1.41954e-06
1.42132e-06
1.18789e-06
1.18796e-06
1.18885e-06
1.18949e-06
1.18682e-06
1.19082e-06
1.19113e-06
1.41987e-06
1.42012e-06
1.18677e-06
1.18969e-06
1.19085e-06
1.42096e-06
1.19223e-06
1.19193e-06
4.23819e-06
9.55966e-06
9.56326e-06
4.23727e-06
1.90676e-05
1.90815e-05
4.23846e-06
9.56191e-06
9.56518e-06
4.23793e-06
6.55659e-07
6.55646e-07
6.54178e-07
6.59661e-07
6.60928e-07
6.59968e-07
6.60703e-07
2.29664e-06
3.64558e-06
9.34059e-07
1.18885e-06
3.64736e-06
9.35639e-07
2.29551e-06
1.90731e-05
1.90819e-05
2.2965e-06
9.34118e-07
3.64702e-06
1.18826e-06
9.3539e-07
3.6476e-06
2.29598e-06
5.64061e-06
5.64278e-06
1.41823e-06
5.64298e-06
5.64488e-06
5.65112e-06
5.65265e-06
1.90776e-05
1.90846e-05
1.90802e-05
1.90868e-05
5.65114e-06
5.65315e-06
1.41941e-06
5.65088e-06
5.65275e-06
1.90894e-05
1.90847e-05
1.90913e-05
1.90868e-05
1.42117e-06
5.64919e-06
5.65083e-06
5.65085e-06
5.65269e-06
4.23806e-06
9.55384e-06
9.56177e-06
4.23676e-06
2.29727e-06
3.64902e-06
9.34791e-07
1.18824e-06
3.64887e-06
9.35591e-07
2.29681e-06
2.2972e-06
3.6462e-06
9.34851e-07
1.18909e-06
3.64788e-06
9.35929e-07
2.29654e-06
4.23867e-06
9.56595e-06
9.56367e-06
4.23892e-06
4.23873e-06
9.56888e-06
9.56302e-06
4.23927e-06
2.29762e-06
1.1886e-06
3.64835e-06
9.37148e-07
3.64907e-06
9.36351e-07
2.29767e-06
2.29763e-06
1.18997e-06
3.64995e-06
9.37819e-07
3.64898e-06
9.36923e-07
2.29788e-06
5.64688e-06
5.64495e-06
1.41939e-06
5.64995e-06
5.64809e-06
1.90651e-05
1.90798e-05
1.90944e-05
1.90829e-05
1.42185e-06
5.65351e-06
5.65236e-06
5.65147e-06
5.64998e-06
1.90942e-05
1.90815e-05
2.29724e-06
3.64988e-06
9.34918e-07
1.18812e-06
3.64955e-06
9.35548e-07
2.29727e-06
4.23811e-06
9.55757e-06
9.56234e-06
4.23746e-06
2.29702e-06
9.34881e-07
3.64765e-06
1.18847e-06
9.35638e-07
3.64794e-06
2.29697e-06
4.23864e-06
9.56785e-06
9.56558e-06
4.23869e-06
2.29749e-06
1.18838e-06
3.64892e-06
9.36792e-07
3.64978e-06
9.36093e-07
2.29726e-06
4.23836e-06
9.56634e-06
9.56299e-06
4.23847e-06
2.29729e-06
1.18893e-06
9.37052e-07
3.64829e-06
9.36313e-07
3.64841e-06
2.29713e-06
4.23646e-06
9.55273e-06
9.56053e-06
4.23491e-06
2.29629e-06
9.33616e-07
3.64322e-06
1.18831e-06
9.35339e-07
3.64453e-06
2.2952e-06
4.2358e-06
9.54951e-06
9.55562e-06
4.23437e-06
2.29732e-06
1.18994e-06
3.64988e-06
9.38529e-07
3.64866e-06
9.37176e-07
2.29825e-06
4.23742e-06
9.5686e-06
9.56189e-06
4.23885e-06
2.29696e-06
1.1898e-06
9.38585e-07
3.64784e-06
9.37049e-07
3.64583e-06
2.29799e-06
4.23677e-06
9.56494e-06
9.55699e-06
4.23834e-06
5.64936e-06
5.64739e-06
1.419e-06
5.64995e-06
5.64851e-06
1.90715e-05
1.90818e-05
1.90899e-05
1.90824e-05
1.42107e-06
5.65042e-06
5.64935e-06
5.65049e-06
5.64906e-06
1.90905e-05
1.90826e-05
2.2963e-06
9.33744e-07
3.64408e-06
1.18819e-06
9.35294e-07
3.64517e-06
2.29566e-06
4.23664e-06
9.55633e-06
9.56144e-06
4.23583e-06
4.23619e-06
9.55124e-06
9.55685e-06
4.2352e-06
2.29704e-06
1.18895e-06
9.37797e-07
3.64829e-06
9.36614e-07
3.64817e-06
2.29751e-06
2.29687e-06
1.18959e-06
9.38227e-07
3.6482e-06
9.36816e-07
3.64637e-06
2.29753e-06
4.23728e-06
9.56619e-06
9.56222e-06
4.23804e-06
4.23685e-06
9.56548e-06
9.55809e-06
4.238e-06
1.906e-05
1.90721e-05
1.90623e-05
1.90737e-05
1.42091e-06
5.64883e-06
5.65039e-06
5.64484e-06
5.64659e-06
1.90893e-05
1.9074e-05
1.90903e-05
1.90754e-05
9.3995e-07
3.6493e-06
2.29858e-06
9.56656e-06
4.23933e-06
3.64964e-06
9.56702e-06
1.90916e-05
1.90926e-05
1.26487e-05
1.124e-05
4.88366e-06
4.23813e-06
1.12374e-05
4.88371e-06
1.26514e-05
2.27534e-05
9.56142e-06
7.24094e-06
7.2408e-06
2.27476e-05
2.27532e-05
7.2414e-06
9.56198e-06
7.24169e-06
2.27585e-05
1.26477e-05
4.23745e-06
1.12333e-05
4.88307e-06
1.12363e-05
4.88315e-06
1.26446e-05
1.90739e-05
1.90757e-05
1.26491e-05
4.88408e-06
1.12406e-05
4.23842e-06
4.88409e-06
1.12383e-05
1.26515e-05
2.27537e-05
9.56348e-06
7.24245e-06
7.24242e-06
2.27484e-05
2.27536e-05
7.24293e-06
9.56399e-06
7.24307e-06
2.27585e-05
1.26483e-05
4.23808e-06
4.88369e-06
1.12348e-05
4.88382e-06
1.12374e-05
1.26455e-05
1.90774e-05
1.9078e-05
9.94619e-06
2.23668e-05
2.23656e-05
2.23608e-05
2.23597e-05
9.9471e-06
4.69716e-06
2.973e-06
5.64097e-06
9.9101e-06
2.97306e-06
9.91226e-06
4.69706e-06
4.70304e-06
2.97433e-06
5.64309e-06
9.91522e-06
2.97438e-06
9.91719e-06
4.70294e-06
4.69829e-06
9.91621e-06
5.64237e-06
2.97408e-06
2.9739e-06
9.91337e-06
4.6986e-06
4.70412e-06
9.92082e-06
5.64434e-06
2.97531e-06
2.97515e-06
9.9182e-06
4.70442e-06
9.94425e-06
2.23552e-05
2.23544e-05
2.23599e-05
2.23589e-05
9.94385e-06
4.7058e-06
2.97801e-06
9.92935e-06
5.65198e-06
4.70515e-06
2.97833e-06
9.93375e-06
4.71143e-06
2.97904e-06
9.93342e-06
5.65352e-06
4.71079e-06
2.97938e-06
9.93776e-06
9.96341e-06
2.23906e-05
2.23892e-05
9.96168e-06
2.24e-05
2.23986e-05
1.90813e-05
1.90816e-05
1.90837e-05
1.9084e-05
9.96607e-06
2.23946e-05
2.23936e-05
2.23918e-05
2.23909e-05
9.96489e-06
4.70687e-06
2.97856e-06
5.65104e-06
9.9288e-06
9.93038e-06
2.97835e-06
4.70717e-06
4.71271e-06
2.97985e-06
5.65301e-06
9.93386e-06
9.9353e-06
2.97958e-06
4.71299e-06
4.70699e-06
9.93134e-06
5.65122e-06
2.97796e-06
9.93064e-06
4.70631e-06
2.97842e-06
4.71279e-06
9.93605e-06
5.65315e-06
2.97915e-06
9.93548e-06
4.71212e-06
2.97965e-06
9.96593e-06
2.23887e-05
2.23878e-05
2.23924e-05
2.23916e-05
9.9663e-06
1.90871e-05
1.90872e-05
1.9089e-05
1.90892e-05
9.96208e-06
2.2393e-05
2.23919e-05
9.96434e-06
2.23947e-05
2.23935e-05
4.70503e-06
2.97686e-06
5.64998e-06
9.9312e-06
9.93117e-06
2.97741e-06
4.70392e-06
4.71074e-06
2.97795e-06
5.65171e-06
9.93567e-06
9.9357e-06
2.97855e-06
4.70962e-06
4.70523e-06
9.93125e-06
2.97798e-06
5.65019e-06
4.70622e-06
9.93151e-06
2.97743e-06
4.71099e-06
9.93591e-06
2.97916e-06
5.65193e-06
4.71198e-06
9.93611e-06
2.97857e-06
9.96122e-06
2.23935e-05
2.23922e-05
2.23922e-05
2.2391e-05
9.95886e-06
1.26466e-05
1.12397e-05
4.88314e-06
4.2379e-06
1.12369e-05
4.88278e-06
1.265e-05
2.2747e-05
9.55723e-06
7.23839e-06
7.23896e-06
2.27393e-05
2.27481e-05
7.24121e-06
9.5587e-06
7.2408e-06
2.27552e-05
1.26453e-05
4.23704e-06
1.12325e-05
4.88135e-06
1.12356e-05
4.88186e-06
1.26416e-05
1.26545e-05
1.1241e-05
4.88401e-06
4.23864e-06
1.26522e-05
1.12433e-05
4.88389e-06
2.27625e-05
9.56503e-06
7.24172e-06
2.27675e-05
7.24215e-06
2.27631e-05
7.24201e-06
9.5647e-06
2.27581e-05
7.24164e-06
1.26552e-05
4.23899e-06
1.12462e-05
4.88402e-06
1.26575e-05
1.12441e-05
4.88415e-06
1.26542e-05
1.12408e-05
4.8839e-06
4.23878e-06
1.26512e-05
1.12433e-05
4.8841e-06
2.27627e-05
9.56666e-06
7.24462e-06
7.24446e-06
2.27685e-05
2.27622e-05
7.2428e-06
9.56563e-06
2.27559e-05
7.24307e-06
1.26552e-05
4.23928e-06
1.12465e-05
4.88482e-06
1.12442e-05
4.88472e-06
1.26579e-05
9.95594e-06
2.23804e-05
2.23821e-05
2.2373e-05
2.23742e-05
9.95715e-06
4.70688e-06
2.97637e-06
5.64762e-06
9.9205e-06
9.92429e-06
2.97659e-06
4.7064e-06
4.70115e-06
2.97512e-06
5.64552e-06
9.91512e-06
2.97537e-06
9.91917e-06
4.70063e-06
4.70849e-06
9.9294e-06
5.64939e-06
2.97779e-06
9.9259e-06
2.97763e-06
4.7089e-06
4.70283e-06
9.92486e-06
5.64759e-06
2.97666e-06
2.97645e-06
9.92096e-06
4.70329e-06
9.95267e-06
2.23638e-05
2.2364e-05
2.23712e-05
2.2372e-05
9.9514e-06
1.90717e-05
1.90736e-05
1.90895e-05
1.90882e-05
9.96135e-06
2.23821e-05
2.23842e-05
9.96026e-06
2.23893e-05
2.23918e-05
4.71189e-06
2.9795e-06
5.65319e-06
9.93783e-06
2.97948e-06
9.9351e-06
4.71207e-06
4.7065e-06
2.97862e-06
5.65206e-06
9.93467e-06
9.93151e-06
2.97855e-06
4.70675e-06
4.71064e-06
9.9308e-06
2.97868e-06
5.65189e-06
2.97875e-06
4.71035e-06
9.93389e-06
4.70519e-06
9.9265e-06
2.97761e-06
5.65038e-06
4.70482e-06
9.93006e-06
2.97775e-06
9.96419e-06
2.23978e-05
2.24008e-05
2.2391e-05
2.23936e-05
9.96509e-06
1.90888e-05
1.90873e-05
1.26479e-05
1.124e-05
4.88303e-06
4.23805e-06
1.12377e-05
4.88307e-06
1.26505e-05
2.27498e-05
9.55973e-06
7.23907e-06
7.23903e-06
2.27437e-05
2.27497e-05
7.24002e-06
9.56055e-06
7.24019e-06
2.27552e-05
1.26469e-05
4.23766e-06
1.12341e-05
4.88248e-06
1.12367e-05
4.88252e-06
1.26439e-05
1.26545e-05
4.88424e-06
1.12414e-05
4.23859e-06
1.26523e-05
4.88414e-06
1.12434e-05
2.27626e-05
9.56694e-06
7.24328e-06
2.27672e-05
7.24356e-06
2.2763e-05
7.24339e-06
9.5666e-06
2.27583e-05
7.24319e-06
1.26552e-05
4.23873e-06
4.88413e-06
1.12462e-05
1.26574e-05
4.88423e-06
1.12442e-05
1.26537e-05
1.12409e-05
4.88341e-06
4.23834e-06
1.26513e-05
1.1243e-05
4.8833e-06
2.27597e-05
9.56501e-06
7.24131e-06
7.24157e-06
2.27648e-05
2.27601e-05
7.24096e-06
9.56445e-06
2.27549e-05
7.2407e-06
1.26545e-05
4.2385e-06
1.12458e-05
4.88348e-06
1.12438e-05
4.88359e-06
1.26568e-05
1.26445e-05
4.88183e-06
1.12378e-05
4.23617e-06
4.88127e-06
1.12346e-05
1.26482e-05
2.27432e-05
9.55594e-06
7.23668e-06
7.23722e-06
2.27353e-05
2.27446e-05
7.23963e-06
9.55741e-06
7.23912e-06
2.27522e-05
1.26431e-05
4.23519e-06
4.8797e-06
1.12301e-05
4.88029e-06
1.12333e-05
1.26394e-05
1.26431e-05
1.12371e-05
4.87996e-06
4.23553e-06
1.1234e-05
4.87957e-06
1.26464e-05
2.27382e-05
9.55179e-06
7.23316e-06
7.23335e-06
2.27321e-05
2.2739e-05
7.23514e-06
9.55295e-06
7.23478e-06
2.27457e-05
1.26419e-05
4.2346e-06
1.12297e-05
4.87845e-06
1.12327e-05
4.87871e-06
1.26387e-05
1.2653e-05
4.88276e-06
1.12392e-05
4.23769e-06
1.26496e-05
4.88326e-06
1.12422e-05
2.27614e-05
9.56599e-06
7.24384e-06
7.24346e-06
2.27684e-05
2.27605e-05
7.2414e-06
9.56476e-06
2.27533e-05
7.24183e-06
1.26543e-05
4.23861e-06
4.88455e-06
1.12464e-05
4.88412e-06
1.12435e-05
1.26576e-05
1.26512e-05
1.12384e-05
4.88093e-06
4.23706e-06
1.26478e-05
1.12415e-05
4.88143e-06
2.27554e-05
9.56158e-06
7.24009e-06
7.23944e-06
2.27633e-05
2.27541e-05
7.2369e-06
9.56005e-06
2.27467e-05
7.23742e-06
1.26526e-05
4.23805e-06
1.12458e-05
4.88303e-06
1.12428e-05
4.88246e-06
1.26562e-05
9.95929e-06
2.23839e-05
2.23854e-05
2.23799e-05
2.23808e-05
9.95919e-06
4.7092e-06
2.97773e-06
5.64933e-06
9.92638e-06
9.92838e-06
2.97764e-06
4.70928e-06
4.70348e-06
2.97654e-06
5.6476e-06
9.9209e-06
2.97652e-06
9.92339e-06
4.70354e-06
4.70963e-06
9.93053e-06
5.65009e-06
2.97776e-06
9.92899e-06
2.97793e-06
4.70944e-06
4.70405e-06
9.92636e-06
5.64844e-06
2.97677e-06
2.97685e-06
9.92428e-06
4.7039e-06
9.95835e-06
2.23751e-05
2.2375e-05
2.23797e-05
2.23803e-05
9.95824e-06
1.90764e-05
1.90774e-05
1.90864e-05
1.9086e-05
9.95953e-06
2.23838e-05
2.23855e-05
9.95981e-06
2.23875e-05
2.23896e-05
4.70967e-06
2.97759e-06
5.6507e-06
9.93349e-06
2.97785e-06
9.93245e-06
4.70936e-06
4.70429e-06
2.97685e-06
5.6494e-06
9.93036e-06
9.92907e-06
2.97706e-06
4.70401e-06
4.70944e-06
9.93094e-06
2.97797e-06
5.65027e-06
2.9777e-06
4.70972e-06
9.93215e-06
4.70402e-06
9.92701e-06
2.97702e-06
5.64903e-06
4.70426e-06
9.92862e-06
2.97686e-06
9.95996e-06
2.23905e-05
2.23931e-05
2.23872e-05
2.23894e-05
9.95948e-06
1.9087e-05
1.90864e-05
1.26459e-05
4.88189e-06
1.1238e-05
4.23656e-06
4.88181e-06
1.12353e-05
1.26489e-05
2.27472e-05
9.55853e-06
7.23757e-06
7.23773e-06
2.27408e-05
2.27478e-05
7.23897e-06
9.55943e-06
7.23887e-06
2.27538e-05
1.26448e-05
4.2359e-06
4.881e-06
1.12314e-05
4.88108e-06
1.12341e-05
1.26416e-05
1.26432e-05
4.88051e-06
1.12374e-05
4.23599e-06
4.8804e-06
1.12347e-05
1.26462e-05
2.27392e-05
9.55336e-06
7.23556e-06
7.23544e-06
2.27332e-05
2.27394e-05
7.23694e-06
9.55441e-06
7.23694e-06
2.27459e-05
1.26421e-05
4.23538e-06
4.87956e-06
1.12309e-05
4.8796e-06
1.12336e-05
1.26392e-05
1.26528e-05
4.88256e-06
1.12391e-05
4.23733e-06
1.26499e-05
4.88257e-06
1.12417e-05
2.27601e-05
9.56466e-06
7.24073e-06
7.24077e-06
2.27654e-05
2.27599e-05
7.23995e-06
9.564e-06
2.27542e-05
7.23996e-06
1.26538e-05
4.23797e-06
4.8832e-06
1.12454e-05
4.88318e-06
1.12428e-05
1.26565e-05
1.26505e-05
4.88143e-06
1.12385e-05
4.23707e-06
1.26473e-05
4.88161e-06
1.12412e-05
2.27542e-05
9.56233e-06
7.2413e-06
7.241e-06
2.27618e-05
2.27534e-05
7.23874e-06
9.56091e-06
2.27464e-05
7.23891e-06
1.26517e-05
4.23776e-06
4.88287e-06
1.12451e-05
4.88264e-06
1.12424e-05
1.2655e-05
1.9065e-05
1.90665e-05
1.9067e-05
1.90683e-05
9.95151e-06
2.23685e-05
2.23672e-05
9.95004e-06
2.23762e-05
2.23748e-05
4.7025e-06
2.9769e-06
5.64789e-06
9.92733e-06
4.70316e-06
2.97654e-06
9.92314e-06
4.7082e-06
2.97798e-06
5.64947e-06
9.93143e-06
4.70884e-06
2.97762e-06
9.92737e-06
4.70065e-06
9.9177e-06
2.97511e-06
5.64569e-06
4.70012e-06
2.9754e-06
9.9213e-06
4.7064e-06
9.92222e-06
2.97628e-06
5.64738e-06
4.70589e-06
2.97656e-06
9.92561e-06
9.95551e-06
2.23877e-05
2.23862e-05
9.95728e-06
2.23787e-05
2.23773e-05
1.90825e-05
1.90804e-05
1.90836e-05
1.90815e-05
2.27728e-05
7.24225e-06
9.57001e-06
2.27648e-05
7.24289e-06
1.26612e-05
4.23959e-06
1.12471e-05
4.8841e-06
1.26576e-05
1.125e-05
4.88463e-06
9.57032e-06
1.90983e-05
1.90994e-05
4.45831e-07
4.45819e-07
6.5751e-07
4.4753e-07
4.47445e-07
2.38425e-07
2.36492e-07
2.82741e-06
1.96966e-06
1.96996e-06
1.41688e-06
1.96917e-06
1.96944e-06
2.82753e-06
2.83217e-06
1.97373e-06
1.9739e-06
1.42217e-06
2.83213e-06
1.97324e-06
1.97339e-06
2.8323e-06
1.97264e-06
1.97293e-06
1.41926e-06
1.97181e-06
1.97205e-06
2.83278e-06
2.83139e-06
1.42134e-06
1.97117e-06
1.97136e-06
1.97201e-06
1.97221e-06
2.83064e-06
2.82953e-06
1.97121e-06
1.97106e-06
1.4182e-06
1.97059e-06
1.97072e-06
2.82951e-06
2.83252e-06
1.42277e-06
1.97291e-06
1.97293e-06
1.97353e-06
1.97353e-06
2.83238e-06
2.83056e-06
1.97179e-06
1.97164e-06
1.41839e-06
1.97099e-06
1.97111e-06
2.8308e-06
2.8309e-06
1.42163e-06
1.9714e-06
1.97152e-06
1.97211e-06
1.9722e-06
2.83055e-06
2.83078e-06
1.42227e-06
1.97228e-06
1.97245e-06
2.83085e-06
1.97273e-06
1.97292e-06
4.45231e-07
4.44167e-07
6.57513e-07
4.47188e-07
4.46356e-07
2.37701e-07
2.35721e-07
4.45323e-07
4.44289e-07
6.57132e-07
4.47105e-07
4.46302e-07
2.37779e-07
2.3586e-07
4.43555e-07
4.4356e-07
6.56353e-07
4.4581e-07
4.45736e-07
2.3708e-07
2.35168e-07
6.58538e-07
4.507e-07
4.50419e-07
4.49136e-07
4.48941e-07
2.40301e-07
2.42119e-07
6.59301e-07
4.50902e-07
4.50694e-07
4.49088e-07
4.48559e-07
2.397e-07
2.41702e-07
6.58543e-07
4.50404e-07
4.5022e-07
4.48773e-07
4.48272e-07
2.3969e-07
2.41598e-07
6.58573e-07
4.50431e-07
4.5016e-07
4.48124e-07
4.47947e-07
2.3906e-07
2.4112e-07
1.66867e-06
2.54213e-06
1.54582e-06
2.29642e-06
2.54186e-06
1.54659e-06
1.66741e-06
1.84526e-06
2.22579e-06
3.64579e-06
3.02222e-06
2.22554e-06
3.02212e-06
1.84629e-06
1.84731e-06
3.02332e-06
3.6472e-06
2.22651e-06
2.22678e-06
3.02342e-06
1.84627e-06
1.66648e-06
2.29572e-06
2.54089e-06
1.54559e-06
2.54117e-06
1.54482e-06
1.66773e-06
1.66847e-06
1.54569e-06
2.54185e-06
2.29652e-06
1.54653e-06
2.54186e-06
1.66711e-06
1.8455e-06
2.22652e-06
3.64698e-06
3.02293e-06
2.22609e-06
3.02268e-06
1.84665e-06
1.84718e-06
3.02317e-06
3.64769e-06
2.22637e-06
2.22682e-06
3.02344e-06
1.84601e-06
1.66658e-06
2.29595e-06
1.54582e-06
2.54139e-06
1.54499e-06
2.5414e-06
1.66792e-06
2.82837e-06
1.41953e-06
1.97016e-06
1.97039e-06
1.97061e-06
1.97088e-06
2.82833e-06
2.83251e-06
1.42112e-06
1.97154e-06
1.97177e-06
2.83185e-06
1.97247e-06
1.97271e-06
2.83125e-06
1.41945e-06
1.97221e-06
1.97244e-06
2.83201e-06
1.97132e-06
1.97152e-06
1.66883e-06
2.54271e-06
1.5459e-06
2.29729e-06
2.5428e-06
1.54681e-06
1.6673e-06
1.84641e-06
2.22744e-06
3.64886e-06
3.02461e-06
3.02435e-06
2.22693e-06
1.84761e-06
1.84789e-06
3.02442e-06
3.64917e-06
2.22685e-06
3.02488e-06
2.22745e-06
1.8465e-06
1.66707e-06
2.29686e-06
2.54248e-06
1.54628e-06
2.54252e-06
1.5454e-06
1.66848e-06
1.66878e-06
2.54259e-06
1.54601e-06
2.29716e-06
2.54249e-06
1.54689e-06
1.66745e-06
1.84566e-06
2.22627e-06
3.64645e-06
3.0229e-06
3.0228e-06
2.22598e-06
1.84672e-06
1.84755e-06
3.02382e-06
3.64773e-06
2.22679e-06
3.02396e-06
1.84647e-06
2.22712e-06
1.66682e-06
2.29665e-06
2.54174e-06
1.54627e-06
2.54194e-06
1.54541e-06
1.66813e-06
1.66734e-06
2.54291e-06
1.54723e-06
2.29751e-06
1.66894e-06
2.54272e-06
1.5463e-06
1.8477e-06
2.22654e-06
3.6488e-06
3.02386e-06
2.22713e-06
3.02442e-06
1.84639e-06
1.84634e-06
3.02475e-06
2.22731e-06
3.64866e-06
2.22668e-06
1.84781e-06
3.02412e-06
1.66896e-06
2.29783e-06
2.5427e-06
1.54667e-06
2.54291e-06
1.54761e-06
1.66743e-06
1.66798e-06
2.54306e-06
1.54742e-06
2.29761e-06
1.66934e-06
2.54309e-06
1.54651e-06
1.84883e-06
2.22787e-06
3.64997e-06
3.02525e-06
3.02551e-06
2.2283e-06
1.84766e-06
1.84714e-06
3.02484e-06
2.2278e-06
3.64904e-06
1.84826e-06
3.02463e-06
2.22742e-06
1.66981e-06
2.29797e-06
2.54343e-06
1.54691e-06
2.54349e-06
1.54784e-06
1.66836e-06
2.83071e-06
1.42075e-06
1.97164e-06
1.97155e-06
1.97205e-06
1.97215e-06
2.83069e-06
2.83165e-06
1.42045e-06
1.97294e-06
1.97288e-06
1.97237e-06
2.83172e-06
1.97234e-06
1.66892e-06
2.54281e-06
1.54592e-06
2.29745e-06
2.54304e-06
1.54695e-06
1.66718e-06
1.84668e-06
2.22796e-06
3.64963e-06
3.02534e-06
3.02493e-06
2.22738e-06
1.84807e-06
1.84799e-06
3.02474e-06
3.64993e-06
2.22718e-06
3.02537e-06
2.22787e-06
1.84642e-06
1.66737e-06
2.29716e-06
2.543e-06
1.54667e-06
2.54286e-06
1.54572e-06
1.66899e-06
1.66869e-06
1.54588e-06
2.54219e-06
2.2972e-06
1.54689e-06
2.54236e-06
1.66705e-06
1.84595e-06
2.22689e-06
3.64752e-06
3.02352e-06
3.02324e-06
2.2264e-06
1.84718e-06
1.84744e-06
3.02344e-06
3.64814e-06
2.22646e-06
3.02382e-06
1.84605e-06
2.22699e-06
1.66704e-06
2.2969e-06
1.54658e-06
2.54218e-06
1.54564e-06
2.54212e-06
1.66854e-06
1.66698e-06
2.54295e-06
1.54703e-06
2.29722e-06
1.66868e-06
2.54267e-06
1.54592e-06
1.84762e-06
2.22677e-06
3.64946e-06
3.0242e-06
2.2274e-06
3.02479e-06
1.84634e-06
1.84619e-06
3.02506e-06
2.22763e-06
3.64927e-06
2.22693e-06
1.84768e-06
3.02442e-06
1.66862e-06
2.29747e-06
2.54263e-06
1.54612e-06
2.54284e-06
1.54707e-06
1.66712e-06
1.66694e-06
1.54702e-06
2.5424e-06
2.29706e-06
1.66861e-06
1.54593e-06
2.54219e-06
1.84741e-06
2.2265e-06
3.64856e-06
3.02343e-06
3.02384e-06
2.22703e-06
1.84614e-06
1.84598e-06
3.0239e-06
2.22702e-06
3.64816e-06
1.84741e-06
3.0234e-06
2.22647e-06
1.66856e-06
2.29733e-06
1.54611e-06
2.54223e-06
1.54708e-06
2.54242e-06
1.66704e-06
1.6681e-06
1.54567e-06
2.54114e-06
2.29606e-06
1.54643e-06
2.54089e-06
1.66687e-06
1.84426e-06
2.22451e-06
3.64327e-06
3.02059e-06
2.2242e-06
3.02038e-06
1.84529e-06
1.84627e-06
3.02133e-06
3.64436e-06
2.22509e-06
2.22535e-06
3.02147e-06
1.84526e-06
1.6659e-06
2.29539e-06
1.54541e-06
2.5401e-06
1.54466e-06
2.54026e-06
1.66714e-06
1.66826e-06
2.54279e-06
1.54756e-06
2.2975e-06
1.66954e-06
2.54299e-06
1.54677e-06
1.84906e-06
2.22795e-06
3.64987e-06
3.0253e-06
1.84796e-06
2.22832e-06
3.0255e-06
1.84719e-06
3.02454e-06
2.22765e-06
3.64874e-06
1.84826e-06
2.22733e-06
3.0244e-06
1.6703e-06
2.29812e-06
2.54372e-06
1.5476e-06
1.66898e-06
2.5436e-06
1.54842e-06
1.66782e-06
1.54743e-06
2.54179e-06
2.29718e-06
1.66905e-06
1.54666e-06
2.54207e-06
1.84834e-06
2.22708e-06
3.64753e-06
3.02369e-06
3.02377e-06
2.22732e-06
1.84733e-06
1.84631e-06
3.02256e-06
2.22632e-06
3.6461e-06
1.84731e-06
3.02247e-06
2.22608e-06
1.66994e-06
2.29781e-06
1.54754e-06
2.54298e-06
1.54834e-06
2.54273e-06
1.66868e-06
2.83096e-06
1.4205e-06
1.97127e-06
1.97121e-06
1.97189e-06
1.97199e-06
2.83068e-06
2.83063e-06
1.41955e-06
1.97208e-06
1.97206e-06
1.97131e-06
2.83099e-06
1.97137e-06
1.66821e-06
1.54567e-06
2.5413e-06
2.29626e-06
1.54649e-06
2.54121e-06
1.66693e-06
1.84456e-06
2.22506e-06
3.64407e-06
3.02131e-06
2.22471e-06
3.02105e-06
1.84563e-06
1.84646e-06
3.02181e-06
3.64506e-06
2.22548e-06
2.22579e-06
3.02202e-06
1.84541e-06
1.66617e-06
2.2957e-06
1.5457e-06
2.54062e-06
1.54489e-06
2.54066e-06
1.66746e-06
1.6676e-06
1.5472e-06
2.5423e-06
2.297e-06
1.66898e-06
1.54635e-06
2.54222e-06
1.84803e-06
2.22672e-06
3.64847e-06
3.02379e-06
1.84681e-06
2.2272e-06
3.02412e-06
1.84643e-06
3.02383e-06
2.22704e-06
3.64802e-06
1.84764e-06
2.22657e-06
3.02353e-06
1.66944e-06
2.29754e-06
1.54698e-06
2.54259e-06
1.66806e-06
1.54784e-06
2.54266e-06
1.66769e-06
1.54725e-06
2.54189e-06
2.29691e-06
1.66897e-06
1.54642e-06
2.542e-06
1.84826e-06
2.22726e-06
3.64794e-06
3.02385e-06
3.02397e-06
2.22754e-06
1.84722e-06
1.84631e-06
3.02291e-06
2.22663e-06
3.64658e-06
1.84735e-06
3.02276e-06
2.22635e-06
1.66971e-06
2.29749e-06
1.54713e-06
2.54274e-06
1.54797e-06
2.54262e-06
1.66842e-06
2.82951e-06
1.41962e-06
1.97167e-06
1.97189e-06
2.82947e-06
1.97123e-06
1.97142e-06
1.84826e-06
2.22827e-06
3.025e-06
3.64958e-06
2.22799e-06
1.84931e-06
3.02491e-06
1.66943e-06
2.29868e-06
1.54912e-06
2.54363e-06
1.54828e-06
1.67073e-06
2.54378e-06
2.22844e-06
3.64989e-06
2.22814e-06
3.51506e-07
9.31593e-07
9.18319e-07
1.19807e-06
3.27657e-07
8.66006e-07
8.56013e-07
1.15344e-06
3.15789e-07
8.62567e-07
8.70987e-07
1.15506e-06
3.6419e-07
9.21822e-07
9.35351e-07
1.21889e-06
4.07102e-07
9.4545e-07
9.57917e-07
1.22628e-06
4.01377e-07
9.54339e-07
9.6687e-07
1.19469e-06
4.01237e-07
1.00997e-06
9.9259e-07
1.2393e-06
4.47365e-07
1.04358e-06
1.02977e-06
1.30767e-06
4.96651e-07
1.06339e-06
1.0475e-06
1.34278e-06
5.13179e-07
1.05242e-06
1.03917e-06
1.31584e-06
4.73673e-07
1.0102e-06
1.05776e-06
1.27295e-06
4.50605e-07
1.05371e-06
1.0848e-06
1.31516e-06
5.02317e-07
1.13548e-06
1.10391e-06
1.36734e-06
5.67494e-07
1.15321e-06
1.10894e-06
1.36824e-06
5.83391e-07
1.1023e-06
1.09539e-06
1.3345e-06
5.53796e-07
1.07938e-06
1.10827e-06
1.33568e-06
5.41901e-07
1.11451e-06
1.13874e-06
1.37726e-06
5.67715e-07
1.15172e-06
1.15128e-06
1.39675e-06
5.96959e-07
1.16055e-06
1.14788e-06
1.38807e-06
6.10217e-07
1.15676e-06
1.14829e-06
1.38056e-06
6.17568e-07
1.16028e-06
1.16175e-06
1.39048e-06
6.24137e-07
1.16963e-06
1.1741e-06
1.40696e-06
6.31569e-07
1.17749e-06
1.17792e-06
1.41493e-06