/*--------------------------------*- C++ -*----------------------------------*\
| =========                 |                                                 |
| \\      /  F ield         | OpenFOAM: The Open Source CFD Toolbox           |
|  \\    /   O peration     | Version:  v1906                                 |
|   \\  /    A nd           | Web:      www.OpenFOAM.com                      |
|    \\/     M anipulation  |                                                 |
\*---------------------------------------------------------------------------*/
FoamFile
{
    version     2.0;
    format      ascii;
    class       volScalarField;
    location    "625";
    object      k;
}
// * * * * * * * * * * * * * * * * * * * * * * * * * * * * * * * * * * * * * //

dimensions      [0 2 -2 0 0 0 0];


internalField   nonuniform List<scalar> 
171728
(
3.58932e-05
3.58912e-05
3.58912e-05
3.59957e-05
3.39296e-05
3.3889e-05
3.3889e-05
3.39622e-05
3.21578e-05
3.20081e-05
3.20081e-05
3.19522e-05
3.05346e-05
3.02293e-05
3.02292e-05
2.99884e-05
2.90329e-05
2.8554e-05
2.85539e-05
2.81226e-05
2.76353e-05
2.69872e-05
2.69871e-05
2.63907e-05
2.63308e-05
2.5531e-05
2.55309e-05
2.48073e-05
2.51112e-05
2.4185e-05
2.41848e-05
2.33782e-05
2.39709e-05
2.29506e-05
2.29504e-05
2.21047e-05
2.29058e-05
2.18269e-05
2.18267e-05
2.0986e-05
2.1912e-05
2.08114e-05
2.08112e-05
2.00133e-05
2.09865e-05
1.99013e-05
1.99011e-05
1.91814e-05
2.01241e-05
1.90947e-05
1.90946e-05
1.84895e-05
1.93239e-05
1.83885e-05
1.83884e-05
1.79329e-05
1.85847e-05
1.77793e-05
1.77792e-05
1.75062e-05
1.79042e-05
1.72656e-05
1.72656e-05
1.72e-05
1.72798e-05
1.68465e-05
1.68466e-05
1.70225e-05
1.67097e-05
1.65212e-05
1.65214e-05
1.69822e-05
1.61923e-05
1.62895e-05
1.62899e-05
1.70791e-05
1.57254e-05
1.61517e-05
1.6152e-05
1.73042e-05
1.53073e-05
1.61072e-05
1.61076e-05
1.76567e-05
1.49374e-05
1.61532e-05
1.61539e-05
1.81338e-05
1.46145e-05
1.62915e-05
1.62924e-05
1.87288e-05
1.43381e-05
1.652e-05
1.65209e-05
1.94285e-05
1.4108e-05
1.68358e-05
1.68366e-05
2.02215e-05
1.3923e-05
1.7234e-05
1.72356e-05
2.1093e-05
1.37841e-05
1.77141e-05
1.77155e-05
2.20334e-05
1.36906e-05
1.8273e-05
1.8274e-05
2.3031e-05
1.3642e-05
1.89003e-05
1.89021e-05
2.40638e-05
1.36385e-05
1.95976e-05
1.96005e-05
2.51242e-05
1.36824e-05
2.03555e-05
2.03561e-05
2.62041e-05
1.37713e-05
2.11724e-05
2.11743e-05
2.72861e-05
1.39069e-05
2.2033e-05
2.20411e-05
2.83626e-05
1.40878e-05
2.29433e-05
2.29404e-05
2.94324e-05
1.43174e-05
2.38975e-05
2.38979e-05
3.05049e-05
1.45892e-05
2.48454e-05
2.48578e-05
3.15146e-05
1.49017e-05
2.58525e-05
2.58344e-05
3.25125e-05
1.52425e-05
2.68214e-05
2.68373e-05
3.34948e-05
1.56931e-05
2.79055e-05
2.79295e-05
3.45189e-05
1.62124e-05
2.89732e-05
2.89899e-05
3.55288e-05
1.66095e-05
2.99474e-05
2.99099e-05
3.62925e-05
1.71563e-05
3.10189e-05
3.09867e-05
3.72401e-05
1.78087e-05
3.19663e-05
3.21406e-05
3.83535e-05
1.83951e-05
3.29408e-05
3.30057e-05
3.89037e-05
1.84817e-05
3.36569e-05
3.31478e-05
3.84258e-05
1.83498e-05
3.26936e-05
3.27594e-05
3.79432e-05
2.07471e-05
3.40335e-05
3.63907e-05
4.32809e-05
2.48804e-05
4.28009e-05
4.20774e-05
4.72749e-05
2.58778e-05
4.3719e-05
4.15538e-05
4.40054e-05
2.16125e-05
3.60091e-05
3.61746e-05
4.07142e-05
1.93099e-05
3.56883e-05
3.59915e-05
4.35629e-05
2.27741e-05
4.03648e-05
4.01563e-05
4.50631e-05
2.6965e-05
3.934e-05
4.25025e-05
4.32161e-05
2.64141e-05
3.91945e-05
4.2892e-05
4.7268e-05
2.50683e-05
4.45574e-05
3.97717e-05
4.68545e-05
2.5296e-05
4.40581e-05
4.0549e-05
4.47657e-05
3.05074e-05
4.59701e-05
4.5725e-05
5.15676e-05
3.38075e-05
4.69649e-05
4.61347e-05
4.97623e-05
3.19809e-05
4.23542e-05
4.69352e-05
4.53799e-05
2.7036e-05
4.22961e-05
4.67662e-05
4.80317e-05
2.67954e-05
4.89109e-05
4.57823e-05
5.15089e-05
3.37068e-05
5.09944e-05
4.59643e-05
5.22854e-05
3.6787e-05
4.82535e-05
4.71708e-05
5.07135e-05
3.57178e-05
4.58789e-05
4.83537e-05
5.03261e-05
3.27603e-05
4.63726e-05
4.88801e-05
5.05867e-05
3.24108e-05
4.88993e-05
4.88835e-05
5.0537e-05
3.46329e-05
4.98106e-05
4.87599e-05
5.16874e-05
3.63741e-05
4.99859e-05
4.92062e-05
5.25191e-05
3.72333e-05
5.02482e-05
5.02867e-05
5.26494e-05
3.75085e-05
5.04702e-05
5.08393e-05
5.28968e-05
3.7475e-05
5.07787e-05
5.09022e-05
5.3228e-05
3.79183e-05
5.10474e-05
5.09175e-05
5.3316e-05
3.8692e-05
5.11722e-05
5.12902e-05
5.32967e-05
3.9115e-05
5.15336e-05
5.15434e-05
5.35012e-05
3.93016e-05
5.18559e-05
5.17043e-05
5.39332e-05
3.97194e-05
5.19875e-05
5.2024e-05
5.4107e-05
4.02086e-05
5.20595e-05
5.21886e-05
5.40034e-05
4.04245e-05
5.23594e-05
5.23303e-05
5.42663e-05
4.05644e-05
5.25103e-05
5.24293e-05
5.45289e-05
4.08591e-05
5.246e-05
5.23951e-05
5.43979e-05
4.11129e-05
5.26115e-05
5.26371e-05
5.43489e-05
4.14145e-05
5.2878e-05
5.30803e-05
5.48067e-05
4.15832e-05
5.28063e-05
5.28799e-05
5.47272e-05
4.15915e-05
5.26791e-05
5.24667e-05
5.44062e-05
4.18344e-05
5.29687e-05
5.27491e-05
5.47517e-05
4.20736e-05
5.31191e-05
5.32726e-05
5.51608e-05
4.21148e-05
5.28864e-05
5.31715e-05
5.46895e-05
4.19896e-05
5.26476e-05
5.26644e-05
5.40527e-05
4.21242e-05
5.2917e-05
5.25938e-05
5.50836e-05
4.23217e-05
5.3087e-05
5.29199e-05
5.53339e-05
4.22786e-05
5.26424e-05
5.30769e-05
5.40608e-05
4.24391e-05
5.25486e-05
5.26917e-05
5.3165e-05
4.21063e-05
5.31798e-05
5.27258e-05
5.62712e-05
4.19559e-05
5.24787e-05
5.36879e-05
5.71077e-05
4.19636e-05
5.10127e-05
4.98008e-05
5.06383e-05
3.63068e-05
3.6291e-05
3.6291e-05
3.63068e-05
3.6291e-05
3.6291e-05
3.6423e-05
3.6423e-05
3.6423e-05
3.6423e-05
3.6291e-05
3.6291e-05
3.63068e-05
3.6291e-05
3.6291e-05
3.63068e-05
3.59957e-05
3.42687e-05
3.58912e-05
3.58912e-05
3.43767e-05
3.43766e-05
3.59957e-05
3.42687e-05
3.58911e-05
3.58912e-05
3.43767e-05
3.43766e-05
3.58912e-05
3.43767e-05
3.43767e-05
3.59957e-05
3.42687e-05
3.58912e-05
3.43767e-05
3.43767e-05
3.42687e-05
3.39623e-05
3.22635e-05
3.38889e-05
3.38889e-05
3.24684e-05
3.24683e-05
3.39623e-05
3.22635e-05
3.38889e-05
3.38889e-05
3.24684e-05
3.24683e-05
3.38889e-05
3.24685e-05
3.24684e-05
3.39623e-05
3.22634e-05
3.38889e-05
3.24685e-05
3.24684e-05
3.22634e-05
3.19522e-05
3.02993e-05
3.20079e-05
3.20078e-05
3.06643e-05
3.06642e-05
3.19522e-05
3.02994e-05
3.2008e-05
3.20078e-05
3.06644e-05
3.06641e-05
3.20079e-05
3.06646e-05
3.06643e-05
3.19522e-05
3.02992e-05
3.2008e-05
3.06645e-05
3.06644e-05
3.02992e-05
2.99885e-05
2.84253e-05
3.0229e-05
3.02288e-05
2.89624e-05
2.89622e-05
2.99886e-05
2.84255e-05
3.02291e-05
3.02287e-05
2.89626e-05
2.89621e-05
3.02289e-05
2.89628e-05
2.89623e-05
2.99884e-05
2.84252e-05
3.02291e-05
2.89627e-05
2.89626e-05
2.84252e-05
2.81227e-05
2.6674e-05
2.85536e-05
2.85534e-05
2.7368e-05
2.73678e-05
2.81228e-05
2.66741e-05
2.85538e-05
2.85533e-05
2.73683e-05
2.73676e-05
2.85535e-05
2.73685e-05
2.73679e-05
2.81226e-05
2.66739e-05
2.85538e-05
2.73684e-05
2.73683e-05
2.66739e-05
2.63908e-05
2.50663e-05
2.69866e-05
2.69864e-05
2.58841e-05
2.58838e-05
2.6391e-05
2.50665e-05
2.6987e-05
2.69862e-05
2.58845e-05
2.58836e-05
2.69865e-05
2.58848e-05
2.5884e-05
2.63907e-05
2.50661e-05
2.69869e-05
2.58846e-05
2.58844e-05
2.50661e-05
2.48075e-05
2.36125e-05
2.55304e-05
2.55301e-05
2.45102e-05
2.45099e-05
2.48077e-05
2.36127e-05
2.55308e-05
2.55299e-05
2.45107e-05
2.45097e-05
2.55302e-05
2.4511e-05
2.45102e-05
2.48073e-05
2.36123e-05
2.55307e-05
2.45108e-05
2.45107e-05
2.36123e-05
2.33784e-05
2.23125e-05
2.41842e-05
2.41838e-05
2.32478e-05
2.32475e-05
2.33785e-05
2.23126e-05
2.41847e-05
2.41836e-05
2.32484e-05
2.32473e-05
2.41841e-05
2.32487e-05
2.32478e-05
2.33782e-05
2.23122e-05
2.41846e-05
2.32485e-05
2.32484e-05
2.23122e-05
2.21049e-05
2.11681e-05
2.29497e-05
2.29494e-05
2.20965e-05
2.20962e-05
2.21051e-05
2.11683e-05
2.29503e-05
2.29491e-05
2.20972e-05
2.2096e-05
2.29496e-05
2.20976e-05
2.20965e-05
2.21047e-05
2.11678e-05
2.29503e-05
2.20973e-05
2.20972e-05
2.11678e-05
2.09863e-05
2.01707e-05
2.18259e-05
2.18255e-05
2.10542e-05
2.10538e-05
2.09865e-05
2.01709e-05
2.18266e-05
2.18253e-05
2.10549e-05
2.10536e-05
2.18258e-05
2.10552e-05
2.10541e-05
2.09861e-05
2.01705e-05
2.18265e-05
2.1055e-05
2.10549e-05
2.01704e-05
2.00137e-05
1.93146e-05
2.08103e-05
2.081e-05
2.0118e-05
2.01176e-05
2.00138e-05
1.93148e-05
2.08111e-05
2.08097e-05
2.01188e-05
2.01174e-05
2.08102e-05
2.01191e-05
2.01179e-05
2.00134e-05
1.93144e-05
2.08111e-05
2.01189e-05
2.01188e-05
1.93142e-05
1.91817e-05
1.85904e-05
1.99002e-05
1.98999e-05
1.92855e-05
1.92852e-05
1.91818e-05
1.85906e-05
1.9901e-05
1.98996e-05
1.92863e-05
1.9285e-05
1.99001e-05
1.92866e-05
1.92855e-05
1.91814e-05
1.85901e-05
1.9901e-05
1.92865e-05
1.92864e-05
1.859e-05
1.84898e-05
1.79977e-05
1.90936e-05
1.90933e-05
1.85545e-05
1.85542e-05
1.84899e-05
1.79979e-05
1.90945e-05
1.90931e-05
1.85553e-05
1.8554e-05
1.90936e-05
1.85555e-05
1.85544e-05
1.84895e-05
1.79976e-05
1.90945e-05
1.85554e-05
1.85553e-05
1.79974e-05
1.79333e-05
1.75391e-05
1.83874e-05
1.83871e-05
1.79213e-05
1.79211e-05
1.79333e-05
1.75392e-05
1.83883e-05
1.8387e-05
1.79221e-05
1.79209e-05
1.83874e-05
1.79223e-05
1.79213e-05
1.79331e-05
1.7539e-05
1.83883e-05
1.79222e-05
1.79222e-05
1.7539e-05
1.75063e-05
1.72176e-05
1.77783e-05
1.77781e-05
1.73838e-05
1.73836e-05
1.75064e-05
1.72176e-05
1.77791e-05
1.77779e-05
1.73845e-05
1.73834e-05
1.77783e-05
1.73846e-05
1.73837e-05
1.75063e-05
1.72174e-05
1.77792e-05
1.73846e-05
1.73845e-05
1.72173e-05
1.72003e-05
1.70261e-05
1.72648e-05
1.72646e-05
1.69411e-05
1.69409e-05
1.72002e-05
1.70259e-05
1.72655e-05
1.72645e-05
1.69418e-05
1.69408e-05
1.72647e-05
1.69418e-05
1.6941e-05
1.72001e-05
1.7026e-05
1.72656e-05
1.69418e-05
1.69418e-05
1.70258e-05
1.70229e-05
1.69729e-05
1.68459e-05
1.68457e-05
1.65922e-05
1.6592e-05
1.70226e-05
1.69726e-05
1.68466e-05
1.68456e-05
1.65928e-05
1.65921e-05
1.68458e-05
1.65927e-05
1.65922e-05
1.70227e-05
1.69729e-05
1.68466e-05
1.65928e-05
1.65929e-05
1.69728e-05
1.69823e-05
1.70439e-05
1.65207e-05
1.65206e-05
1.6337e-05
1.63369e-05
1.6982e-05
1.70437e-05
1.65214e-05
1.65206e-05
1.63376e-05
1.6337e-05
1.65207e-05
1.63374e-05
1.63369e-05
1.69823e-05
1.70441e-05
1.65214e-05
1.63376e-05
1.63376e-05
1.70437e-05
1.70793e-05
1.72436e-05
1.62892e-05
1.62891e-05
1.61754e-05
1.61753e-05
1.70791e-05
1.72432e-05
1.62898e-05
1.62893e-05
1.61759e-05
1.61755e-05
1.62891e-05
1.61754e-05
1.61753e-05
1.70795e-05
1.72438e-05
1.62898e-05
1.61758e-05
1.61759e-05
1.72438e-05
1.7304e-05
1.75721e-05
1.61516e-05
1.61515e-05
1.61071e-05
1.61072e-05
1.73034e-05
1.75717e-05
1.61521e-05
1.61518e-05
1.61076e-05
1.61074e-05
1.61516e-05
1.61071e-05
1.61071e-05
1.7304e-05
1.75722e-05
1.61522e-05
1.61075e-05
1.61077e-05
1.75723e-05
1.76567e-05
1.80246e-05
1.61071e-05
1.61074e-05
1.61326e-05
1.61331e-05
1.76562e-05
1.80245e-05
1.61077e-05
1.61076e-05
1.61331e-05
1.61333e-05
1.61072e-05
1.61327e-05
1.61329e-05
1.76568e-05
1.80254e-05
1.61078e-05
1.61331e-05
1.61334e-05
1.80253e-05
1.81332e-05
1.85969e-05
1.61533e-05
1.61537e-05
1.62488e-05
1.62492e-05
1.81329e-05
1.85961e-05
1.61539e-05
1.61541e-05
1.62493e-05
1.62494e-05
1.61534e-05
1.62485e-05
1.62491e-05
1.81337e-05
1.85973e-05
1.61539e-05
1.6249e-05
1.62496e-05
1.85975e-05
1.87282e-05
1.92762e-05
1.62921e-05
1.62922e-05
1.64552e-05
1.64562e-05
1.8727e-05
1.92763e-05
1.62926e-05
1.62928e-05
1.64555e-05
1.64563e-05
1.62923e-05
1.64552e-05
1.64555e-05
1.87282e-05
1.92774e-05
1.62927e-05
1.64557e-05
1.64559e-05
1.92767e-05
1.94278e-05
2.00502e-05
1.65203e-05
1.6521e-05
1.67494e-05
1.67499e-05
1.94281e-05
2.00491e-05
1.65207e-05
1.65215e-05
1.67497e-05
1.67508e-05
1.65208e-05
1.67487e-05
1.67495e-05
1.9429e-05
2.00511e-05
1.65213e-05
1.67496e-05
1.67499e-05
2.00508e-05
2.0221e-05
2.09059e-05
1.68364e-05
1.68369e-05
1.71279e-05
1.71287e-05
2.02204e-05
2.0905e-05
1.68368e-05
1.68377e-05
1.71281e-05
1.71294e-05
1.68367e-05
1.71269e-05
1.71287e-05
2.0222e-05
2.09072e-05
1.68371e-05
1.71284e-05
1.71288e-05
2.0907e-05
2.10921e-05
2.183e-05
1.72347e-05
1.72358e-05
1.75875e-05
1.75878e-05
2.10914e-05
2.1829e-05
1.72349e-05
1.72364e-05
1.75874e-05
1.7589e-05
1.72354e-05
1.7586e-05
1.75883e-05
2.10935e-05
2.18311e-05
1.72357e-05
1.75875e-05
1.75883e-05
2.18317e-05
2.20319e-05
2.28171e-05
1.77157e-05
1.77159e-05
1.81283e-05
1.81285e-05
2.20308e-05
2.28164e-05
1.77157e-05
1.77173e-05
1.81277e-05
1.81302e-05
1.77161e-05
1.81265e-05
1.81284e-05
2.20328e-05
2.28191e-05
1.77164e-05
1.8128e-05
1.81283e-05
2.28186e-05
2.30299e-05
2.38428e-05
1.82745e-05
1.82751e-05
1.87403e-05
1.87395e-05
2.30295e-05
2.38386e-05
1.82738e-05
1.82761e-05
1.87388e-05
1.87406e-05
1.82746e-05
1.87366e-05
1.874e-05
2.30319e-05
2.38416e-05
1.82745e-05
1.87386e-05
1.87393e-05
2.3843e-05
2.40639e-05
2.48925e-05
1.89035e-05
1.89033e-05
1.94173e-05
1.9419e-05
2.40595e-05
2.48944e-05
1.89021e-05
1.8904e-05
1.9417e-05
1.94217e-05
1.89027e-05
1.94164e-05
1.94198e-05
2.40628e-05
2.48973e-05
1.89024e-05
1.94197e-05
1.94185e-05
2.48969e-05
2.512e-05
2.59683e-05
1.95961e-05
1.96002e-05
2.01638e-05
2.01643e-05
2.51223e-05
2.59685e-05
1.95965e-05
1.96028e-05
2.01623e-05
2.01643e-05
1.95993e-05
2.0162e-05
2.01648e-05
2.51257e-05
2.5969e-05
1.95979e-05
2.01623e-05
2.01646e-05
2.5971e-05
2.6202e-05
2.7051e-05
2.03604e-05
2.03574e-05
2.09662e-05
2.09672e-05
2.62001e-05
2.7048e-05
2.03588e-05
2.03577e-05
2.09638e-05
2.09685e-05
2.03596e-05
2.09647e-05
2.09672e-05
2.62004e-05
2.70497e-05
2.03594e-05
2.09657e-05
2.09652e-05
2.70508e-05
2.72854e-05
2.8128e-05
2.11745e-05
2.1175e-05
2.18202e-05
2.18171e-05
2.72841e-05
2.8124e-05
2.11721e-05
2.11774e-05
2.18181e-05
2.18192e-05
2.11755e-05
2.18119e-05
2.182e-05
2.7286e-05
2.81286e-05
2.11724e-05
2.18157e-05
2.18184e-05
2.81285e-05
2.83616e-05
2.9191e-05
2.20376e-05
2.20371e-05
2.27084e-05
2.27137e-05
2.8358e-05
2.9196e-05
2.20364e-05
2.20437e-05
2.27077e-05
2.27114e-05
2.20394e-05
2.27117e-05
2.27114e-05
2.83623e-05
2.91998e-05
2.2039e-05
2.27091e-05
2.27098e-05
2.91979e-05
2.94271e-05
3.02741e-05
2.29451e-05
2.29465e-05
2.36613e-05
2.36597e-05
2.94329e-05
3.02627e-05
2.29441e-05
2.29429e-05
2.36571e-05
2.3661e-05
2.29471e-05
2.36544e-05
2.36596e-05
2.94321e-05
3.02679e-05
2.29464e-05
2.36635e-05
2.36581e-05
3.02732e-05
3.05057e-05
3.12891e-05
2.38976e-05
2.39044e-05
2.46217e-05
2.46009e-05
3.04959e-05
3.12803e-05
2.38925e-05
2.38958e-05
2.46203e-05
2.46227e-05
2.38949e-05
2.45973e-05
2.46191e-05
3.05038e-05
3.12892e-05
2.38931e-05
2.46161e-05
2.4617e-05
3.12889e-05
3.15154e-05
3.22873e-05
2.48564e-05
2.48456e-05
2.5589e-05
2.55963e-05
3.15025e-05
3.23012e-05
2.48562e-05
2.48659e-05
2.55873e-05
2.55924e-05
2.48545e-05
2.56015e-05
2.55954e-05
3.15135e-05
3.22898e-05
2.48522e-05
2.55839e-05
2.55879e-05
3.22902e-05
3.25123e-05
3.32663e-05
2.585e-05
2.58514e-05
2.65747e-05
2.65774e-05
3.25268e-05
3.32641e-05
2.58492e-05
2.5846e-05
2.65709e-05
2.65818e-05
2.5849e-05
2.65728e-05
2.65765e-05
3.25103e-05
3.32735e-05
2.58411e-05
2.65787e-05
2.65731e-05
3.3275e-05
3.34761e-05
3.42724e-05
2.68098e-05
2.68215e-05
2.76319e-05
2.76495e-05
3.34804e-05
3.42861e-05
2.68062e-05
2.68355e-05
2.76224e-05
2.76514e-05
2.68287e-05
2.76309e-05
2.76391e-05
3.34994e-05
3.42998e-05
2.68326e-05
2.76639e-05
2.76446e-05
3.42867e-05
3.45201e-05
3.53484e-05
2.79201e-05
2.79238e-05
2.87719e-05
2.87082e-05
3.45207e-05
3.52829e-05
2.79122e-05
2.7918e-05
2.87735e-05
2.87152e-05
2.79008e-05
2.87151e-05
2.8764e-05
3.45266e-05
3.52849e-05
2.79036e-05
2.8716e-05
2.87601e-05
3.53185e-05
3.55554e-05
3.61132e-05
2.90475e-05
2.89616e-05
2.96821e-05
2.97404e-05
3.54891e-05
3.61678e-05
2.90519e-05
2.89985e-05
2.96812e-05
2.97104e-05
2.9035e-05
2.97356e-05
2.9677e-05
3.54936e-05
3.61435e-05
2.90284e-05
2.96877e-05
2.96727e-05
3.61177e-05
3.62751e-05
3.69909e-05
2.98635e-05
2.99442e-05
3.06743e-05
3.0703e-05
3.63579e-05
3.70289e-05
2.98655e-05
2.99237e-05
3.06697e-05
3.06827e-05
2.98955e-05
3.07166e-05
3.06915e-05
3.63265e-05
3.69952e-05
2.98939e-05
3.06876e-05
3.06707e-05
3.7002e-05
3.72463e-05
3.81085e-05
3.09984e-05
3.10243e-05
3.18696e-05
3.17759e-05
3.72545e-05
3.79453e-05
3.09751e-05
3.09744e-05
3.18327e-05
3.18041e-05
3.09926e-05
3.17435e-05
3.18403e-05
3.72215e-05
3.80912e-05
3.09711e-05
3.18366e-05
3.18797e-05
3.81336e-05
3.83057e-05
3.8789e-05
3.21461e-05
3.19733e-05
3.28387e-05
3.26976e-05
3.81134e-05
3.87106e-05
3.21363e-05
3.21106e-05
3.28982e-05
3.29259e-05
3.21478e-05
3.2743e-05
3.29271e-05
3.83166e-05
3.88087e-05
3.2182e-05
3.29023e-05
3.29592e-05
3.88299e-05
3.88763e-05
3.8616e-05
3.29586e-05
3.29304e-05
3.3104e-05
3.36964e-05
3.88986e-05
3.93029e-05
3.30166e-05
3.30267e-05
3.31303e-05
3.3241e-05
3.30795e-05
3.36263e-05
3.30794e-05
3.88845e-05
3.87011e-05
3.30657e-05
3.3147e-05
3.29891e-05
3.84716e-05
3.86002e-05
3.8064e-05
3.30781e-05
3.37455e-05
3.28569e-05
3.32311e-05
3.93442e-05
3.80807e-05
3.30927e-05
3.32338e-05
3.28083e-05
3.27885e-05
3.29518e-05
3.31215e-05
3.26149e-05
3.87097e-05
3.79569e-05
3.28033e-05
3.28219e-05
3.25139e-05
3.77674e-05
3.81509e-05
4.11789e-05
3.28812e-05
3.27333e-05
3.51683e-05
3.2658e-05
3.78757e-05
3.81764e-05
3.28232e-05
3.26935e-05
3.51501e-05
3.42385e-05
3.27011e-05
3.27851e-05
3.58907e-05
3.79439e-05
4.06566e-05
3.26501e-05
3.4516e-05
3.61527e-05
4.22339e-05
4.22612e-05
4.72305e-05
3.65661e-05
3.36684e-05
4.08311e-05
4.10015e-05
3.95014e-05
4.76822e-05
3.66146e-05
3.61899e-05
4.09103e-05
4.12151e-05
3.72956e-05
4.10439e-05
4.07339e-05
4.19468e-05
4.7573e-05
3.75904e-05
4.1176e-05
4.09288e-05
4.7086e-05
4.78593e-05
4.71682e-05
4.19208e-05
4.28959e-05
4.25625e-05
4.43771e-05
4.88116e-05
5.00122e-05
4.1931e-05
4.22179e-05
4.24576e-05
4.25619e-05
4.1242e-05
4.411e-05
4.10799e-05
4.81347e-05
4.67811e-05
4.13115e-05
4.22957e-05
4.08528e-05
4.45738e-05
4.644e-05
4.03312e-05
4.20681e-05
4.40024e-05
3.70266e-05
3.76134e-05
4.90711e-05
4.03006e-05
4.19302e-05
4.18863e-05
3.70394e-05
3.7027e-05
4.0168e-05
3.74885e-05
3.69294e-05
4.60068e-05
4.05551e-05
3.97087e-05
3.7001e-05
3.67238e-05
4.07451e-05
3.9947e-05
3.93737e-05
3.57895e-05
3.60262e-05
3.46259e-05
3.50654e-05
3.97109e-05
4.02511e-05
3.5877e-05
3.61045e-05
3.47879e-05
3.54786e-05
3.64699e-05
3.52352e-05
3.66764e-05
4.03164e-05
4.07677e-05
3.63874e-05
3.57119e-05
3.68831e-05
4.26864e-05
3.99023e-05
4.49038e-05
3.47553e-05
3.5403e-05
3.93309e-05
3.96262e-05
4.12119e-05
4.55388e-05
3.49092e-05
3.56578e-05
3.91816e-05
3.89283e-05
3.76672e-05
3.99092e-05
4.00205e-05
4.13453e-05
4.42821e-05
3.80892e-05
3.93104e-05
4.00058e-05
4.51583e-05
4.57307e-05
4.79342e-05
4.09573e-05
4.03092e-05
4.30373e-05
4.03634e-05
4.56974e-05
4.37957e-05
4.06932e-05
3.99844e-05
4.30469e-05
4.2474e-05
4.00696e-05
4.00428e-05
3.96821e-05
4.47281e-05
4.67623e-05
4.00067e-05
4.19508e-05
3.968e-05
4.32025e-05
4.79726e-05
4.5219e-05
4.30399e-05
3.98475e-05
4.15246e-05
3.90912e-05
4.33795e-05
4.19833e-05
4.31299e-05
4.30591e-05
4.21743e-05
4.33527e-05
3.96703e-05
3.8836e-05
4.11606e-05
4.72641e-05
4.79534e-05
3.97101e-05
4.3019e-05
4.19933e-05
4.65883e-05
4.48953e-05
4.37021e-05
4.08975e-05
3.92833e-05
4.03772e-05
4.34493e-05
4.25229e-05
4.85371e-05
4.14202e-05
4.3056e-05
4.01874e-05
4.00453e-05
4.23164e-05
4.39754e-05
4.3266e-05
4.76383e-05
4.29817e-05
4.2869e-05
4.03828e-05
4.31285e-05
4.72493e-05
4.37982e-05
4.50972e-05
4.04008e-05
4.42441e-05
4.13213e-05
4.43194e-05
4.88767e-05
4.77945e-05
4.00546e-05
3.95435e-05
4.03975e-05
3.97319e-05
4.31091e-05
4.42388e-05
4.19855e-05
4.26462e-05
4.39739e-05
4.2653e-05
3.97216e-05
4.15113e-05
4.46605e-05
4.56144e-05
4.9749e-05
4.19974e-05
4.41928e-05
4.52705e-05
4.47224e-05
4.76864e-05
4.92787e-05
4.14825e-05
4.08968e-05
4.56343e-05
4.50564e-05
4.2024e-05
4.47568e-05
4.53277e-05
4.52144e-05
4.9559e-05
4.16156e-05
4.5091e-05
4.57146e-05
5.07893e-05
5.05985e-05
5.38872e-05
4.66214e-05
4.57932e-05
4.94576e-05
4.71845e-05
5.01457e-05
5.15926e-05
4.68791e-05
4.55873e-05
4.92405e-05
4.60711e-05
4.66634e-05
4.71702e-05
4.72675e-05
4.97067e-05
4.89685e-05
4.68896e-05
4.61021e-05
4.71845e-05
5.05667e-05
5.39568e-05
4.91994e-05
4.95381e-05
4.70625e-05
4.70548e-05
4.36971e-05
5.10961e-05
4.51498e-05
4.93113e-05
4.62663e-05
4.71627e-05
4.72012e-05
4.67382e-05
4.33045e-05
4.3301e-05
4.89805e-05
5.03044e-05
4.64641e-05
4.6734e-05
4.35172e-05
4.54363e-05
4.82396e-05
4.38884e-05
4.50541e-05
4.2593e-05
4.14358e-05
4.17572e-05
4.46332e-05
4.46465e-05
4.53936e-05
4.7269e-05
4.18847e-05
4.6969e-05
4.28859e-05
4.183e-05
4.30446e-05
5.05914e-05
5.061e-05
4.32735e-05
4.69501e-05
4.37308e-05
4.72706e-05
4.38048e-05
4.62706e-05
4.11626e-05
4.20492e-05
4.21463e-05
4.69962e-05
4.55717e-05
5.161e-05
4.15191e-05
4.64227e-05
4.20307e-05
4.53984e-05
4.39221e-05
4.75274e-05
4.73787e-05
5.04302e-05
4.89596e-05
4.4757e-05
4.58509e-05
4.72637e-05
5.10642e-05
4.73878e-05
5.18307e-05
4.41816e-05
4.84965e-05
4.86917e-05
5.08599e-05
5.24387e-05
5.47227e-05
4.3586e-05
4.53518e-05
4.81048e-05
4.55377e-05
4.81762e-05
5.09466e-05
4.92384e-05
4.89566e-05
4.88672e-05
4.78404e-05
4.58263e-05
4.86785e-05
5.23128e-05
5.24255e-05
5.44447e-05
4.96657e-05
5.09637e-05
5.11627e-05
4.97638e-05
5.47556e-05
5.16221e-05
4.91468e-05
4.59271e-05
5.09235e-05
4.73196e-05
4.92495e-05
4.9356e-05
4.84485e-05
4.89809e-05
4.98184e-05
4.8696e-05
4.6861e-05
4.81802e-05
5.08042e-05
5.45099e-05
5.19339e-05
5.11881e-05
4.86655e-05
4.95474e-05
4.63439e-05
5.10996e-05
4.83796e-05
5.09959e-05
4.7708e-05
4.98558e-05
4.8444e-05
4.805e-05
4.61583e-05
4.74469e-05
5.00356e-05
5.09633e-05
4.79379e-05
4.80974e-05
4.76253e-05
5.02861e-05
5.14693e-05
4.92636e-05
4.84951e-05
4.59707e-05
4.66886e-05
4.58179e-05
4.82773e-05
4.87306e-05
4.88332e-05
4.85519e-05
4.69722e-05
4.86515e-05
4.73904e-05
4.58892e-05
4.74312e-05
5.11358e-05
5.15391e-05
4.76194e-05
4.88187e-05
4.78735e-05
5.05447e-05
4.92201e-05
4.96961e-05
4.65189e-05
4.60899e-05
4.66891e-05
4.8292e-05
4.91801e-05
5.13926e-05
4.67664e-05
4.86575e-05
4.68085e-05
4.86913e-05
4.75415e-05
4.84589e-05
4.78014e-05
5.16034e-05
5.16278e-05
4.79276e-05
4.88997e-05
4.79237e-05
5.04888e-05
5.00562e-05
5.14338e-05
4.72696e-05
4.8826e-05
4.88738e-05
4.97227e-05
5.17067e-05
5.23586e-05
4.71947e-05
4.87283e-05
4.86931e-05
4.87521e-05
4.79823e-05
4.96748e-05
4.88841e-05
5.16362e-05
5.13547e-05
4.79459e-05
4.87721e-05
4.86789e-05
5.14389e-05
5.16295e-05
5.23775e-05
4.91868e-05
4.98541e-05
4.98865e-05
4.99839e-05
5.24255e-05
5.24657e-05
4.90022e-05
4.87475e-05
4.97643e-05
4.89458e-05
4.92107e-05
4.9973e-05
4.99245e-05
5.1354e-05
5.14775e-05
4.90185e-05
4.89214e-05
4.98195e-05
5.24268e-05
5.25562e-05
5.30493e-05
5.00927e-05
4.99952e-05
5.05473e-05
5.01639e-05
5.24797e-05
5.25755e-05
5.00058e-05
4.92218e-05
5.05437e-05
5.01036e-05
5.00473e-05
5.0145e-05
5.0198e-05
5.16636e-05
5.25362e-05
4.9973e-05
5.00538e-05
5.01866e-05
5.26198e-05
5.30974e-05
5.2921e-05
5.06169e-05
5.02901e-05
5.06325e-05
5.04754e-05
5.26542e-05
5.27762e-05
5.06304e-05
5.03487e-05
5.06678e-05
5.07938e-05
5.02321e-05
5.04361e-05
5.04499e-05
5.27056e-05
5.30989e-05
5.02354e-05
5.07547e-05
5.04966e-05
5.28064e-05
5.29096e-05
5.26465e-05
5.05908e-05
5.04842e-05
5.04434e-05
5.05877e-05
5.28014e-05
5.29249e-05
5.06394e-05
5.08512e-05
5.04834e-05
5.08623e-05
5.05576e-05
5.06759e-05
5.08689e-05
5.31509e-05
5.31412e-05
5.06136e-05
5.09073e-05
5.09117e-05
5.31724e-05
5.26622e-05
5.30296e-05
5.0442e-05
5.06934e-05
5.07635e-05
5.09698e-05
5.30093e-05
5.32138e-05
5.04771e-05
5.08396e-05
5.07303e-05
5.08298e-05
5.09491e-05
5.1013e-05
5.10949e-05
5.31481e-05
5.30758e-05
5.09744e-05
5.08914e-05
5.10703e-05
5.32962e-05
5.31645e-05
5.3545e-05
5.09456e-05
5.10216e-05
5.13458e-05
5.11491e-05
5.32483e-05
5.3289e-05
5.09167e-05
5.08712e-05
5.13451e-05
5.12171e-05
5.11138e-05
5.11199e-05
5.11228e-05
5.31215e-05
5.33986e-05
5.10842e-05
5.11898e-05
5.11196e-05
5.32789e-05
5.36149e-05
5.37089e-05
5.14394e-05
5.1218e-05
5.1594e-05
5.14902e-05
5.33355e-05
5.35923e-05
5.1449e-05
5.13307e-05
5.16142e-05
5.15612e-05
5.11309e-05
5.14362e-05
5.12976e-05
5.34794e-05
5.36383e-05
5.1143e-05
5.15107e-05
5.132e-05
5.342e-05
5.37262e-05
5.36658e-05
5.16062e-05
5.15747e-05
5.16262e-05
5.17778e-05
5.3671e-05
5.38633e-05
5.16196e-05
5.15845e-05
5.16131e-05
5.1622e-05
5.1406e-05
5.17861e-05
5.17623e-05
5.36675e-05
5.36991e-05
5.14176e-05
5.16341e-05
5.1741e-05
5.3851e-05
5.36949e-05
5.39237e-05
5.16572e-05
5.18324e-05
5.18869e-05
5.19296e-05
5.39106e-05
5.39681e-05
5.16257e-05
5.16709e-05
5.1877e-05
5.19119e-05
5.1866e-05
5.19797e-05
5.20725e-05
5.37446e-05
5.39737e-05
5.18424e-05
5.19615e-05
5.20643e-05
5.40851e-05
5.401e-05
5.42424e-05
5.19827e-05
5.19454e-05
5.22281e-05
5.20448e-05
5.39855e-05
5.40074e-05
5.19834e-05
5.1985e-05
5.22471e-05
5.21729e-05
5.20839e-05
5.20137e-05
5.20442e-05
5.40311e-05
5.41475e-05
5.20836e-05
5.21467e-05
5.20578e-05
5.39955e-05
5.42851e-05
5.42723e-05
5.22822e-05
5.21094e-05
5.23246e-05
5.23166e-05
5.40549e-05
5.42752e-05
5.23017e-05
5.22295e-05
5.23362e-05
5.23347e-05
5.2037e-05
5.22856e-05
5.21705e-05
5.41891e-05
5.42722e-05
5.20529e-05
5.23045e-05
5.21858e-05
5.4165e-05
5.42776e-05
5.42096e-05
5.23189e-05
5.23696e-05
5.23146e-05
5.24654e-05
5.43299e-05
5.4405e-05
5.23256e-05
5.23438e-05
5.23049e-05
5.23662e-05
5.23033e-05
5.25036e-05
5.25706e-05
5.42972e-05
5.43036e-05
5.23056e-05
5.24117e-05
5.25576e-05
5.45001e-05
5.42462e-05
5.43709e-05
5.23403e-05
5.24674e-05
5.24702e-05
5.24436e-05
5.44198e-05
5.43141e-05
5.23186e-05
5.23794e-05
5.24669e-05
5.23742e-05
5.25946e-05
5.24724e-05
5.25668e-05
5.43183e-05
5.42427e-05
5.25831e-05
5.24078e-05
5.25588e-05
5.44028e-05
5.44085e-05
5.45076e-05
5.25033e-05
5.24429e-05
5.26095e-05
5.25735e-05
5.43238e-05
5.44625e-05
5.25007e-05
5.23741e-05
5.25989e-05
5.2552e-05
5.25108e-05
5.25137e-05
5.24497e-05
5.42508e-05
5.44256e-05
5.25034e-05
5.24838e-05
5.24412e-05
5.42956e-05
5.45519e-05
5.46693e-05
5.26522e-05
5.26584e-05
5.28042e-05
5.28486e-05
5.45429e-05
5.47289e-05
5.26459e-05
5.26854e-05
5.28269e-05
5.30322e-05
5.2467e-05
5.28495e-05
5.28258e-05
5.45478e-05
5.49712e-05
5.24612e-05
5.3035e-05
5.2853e-05
5.4747e-05
5.4698e-05
5.46061e-05
5.28311e-05
5.2866e-05
5.28208e-05
5.2833e-05
5.47539e-05
5.46098e-05
5.28606e-05
5.30675e-05
5.28544e-05
5.29923e-05
5.29087e-05
5.28604e-05
5.2938e-05
5.50173e-05
5.47426e-05
5.29396e-05
5.3021e-05
5.29653e-05
5.47413e-05
5.46041e-05
5.4514e-05
5.2782e-05
5.27722e-05
5.2723e-05
5.26793e-05
5.46013e-05
5.4455e-05
5.28134e-05
5.2847e-05
5.2707e-05
5.25098e-05
5.29036e-05
5.2679e-05
5.26613e-05
5.46943e-05
5.42249e-05
5.29226e-05
5.25038e-05
5.26367e-05
5.44011e-05
5.45573e-05
5.47991e-05
5.27321e-05
5.26847e-05
5.29368e-05
5.29152e-05
5.44886e-05
5.47835e-05
5.27078e-05
5.24811e-05
5.28744e-05
5.25958e-05
5.26371e-05
5.28756e-05
5.27321e-05
5.42296e-05
5.44964e-05
5.26044e-05
5.25609e-05
5.26794e-05
5.46309e-05
5.48505e-05
5.48663e-05
5.29922e-05
5.29917e-05
5.30456e-05
5.30869e-05
5.48521e-05
5.49387e-05
5.29532e-05
5.27765e-05
5.30589e-05
5.31721e-05
5.28874e-05
5.31138e-05
5.32238e-05
5.46318e-05
5.50401e-05
5.28428e-05
5.32033e-05
5.32412e-05
5.51175e-05
5.48707e-05
5.46951e-05
5.30447e-05
5.30873e-05
5.29505e-05
5.29633e-05
5.49479e-05
5.46879e-05
5.30616e-05
5.32303e-05
5.2992e-05
5.3228e-05
5.32501e-05
5.30105e-05
5.31118e-05
5.50965e-05
5.49905e-05
5.32753e-05
5.32669e-05
5.31465e-05
5.47881e-05
5.46916e-05
5.45214e-05
5.28915e-05
5.28761e-05
5.27306e-05
5.26995e-05
5.46624e-05
5.44246e-05
5.29303e-05
5.3156e-05
5.27591e-05
5.27877e-05
5.28679e-05
5.26514e-05
5.24344e-05
5.49552e-05
5.45001e-05
5.29018e-05
5.27339e-05
5.24572e-05
5.4037e-05
5.45298e-05
5.46406e-05
5.27188e-05
5.26941e-05
5.28157e-05
5.28067e-05
5.44507e-05
5.47197e-05
5.27385e-05
5.27122e-05
5.27774e-05
5.2595e-05
5.24333e-05
5.28132e-05
5.29198e-05
5.45018e-05
5.44242e-05
5.24549e-05
5.25909e-05
5.28964e-05
5.48982e-05
5.47203e-05
5.48907e-05
5.29337e-05
5.28979e-05
5.3041e-05
5.30304e-05
5.47809e-05
5.485e-05
5.2872e-05
5.25935e-05
5.29757e-05
5.27419e-05
5.31716e-05
5.30842e-05
5.34039e-05
5.44346e-05
5.45291e-05
5.31255e-05
5.28016e-05
5.33326e-05
5.53533e-05
5.4894e-05
5.43681e-05
5.30249e-05
5.30277e-05
5.26867e-05
5.27512e-05
5.48565e-05
5.44587e-05
5.29647e-05
5.28582e-05
5.27667e-05
5.30471e-05
5.33826e-05
5.28438e-05
5.25821e-05
5.46049e-05
5.48232e-05
5.33118e-05
5.30731e-05
5.26576e-05
5.42435e-05
5.4373e-05
5.49687e-05
5.26671e-05
5.26575e-05
5.29434e-05
5.26853e-05
5.44101e-05
5.43934e-05
5.27687e-05
5.31132e-05
5.29979e-05
5.31219e-05
5.21952e-05
5.24838e-05
5.17278e-05
5.49026e-05
5.49554e-05
5.23328e-05
5.28732e-05
5.18158e-05
5.31182e-05
5.50876e-05
5.44678e-05
5.3064e-05
5.28688e-05
5.29134e-05
5.30813e-05
5.45647e-05
5.52217e-05
5.30263e-05
5.30478e-05
5.2641e-05
5.25852e-05
5.1785e-05
5.3155e-05
5.36432e-05
5.48946e-05
5.42706e-05
5.18401e-05
5.25936e-05
5.3333e-05
5.57169e-05
5.42546e-05
5.37762e-05
5.25388e-05
5.30128e-05
5.20914e-05
5.22197e-05
5.52094e-05
5.38342e-05
5.23801e-05
5.26044e-05
5.23056e-05
5.318e-05
5.43209e-05
5.27204e-05
5.47162e-05
5.43148e-05
5.5669e-05
5.41399e-05
5.36828e-05
5.48897e-05
5.74318e-05
5.39434e-05
5.44334e-05
5.21518e-05
5.21951e-05
5.25892e-05
5.23838e-05
5.37728e-05
5.39842e-05
5.24938e-05
5.32183e-05
5.25106e-05
5.1812e-05
5.44165e-05
5.20078e-05
5.05222e-05
5.57266e-05
5.28391e-05
5.47059e-05
5.1432e-05
5.04988e-05
5.1298e-05
5.41881e-05
5.15915e-05
5.14774e-05
5.39141e-05
5.13699e-05
5.02231e-05
4.18798e-05
4.09624e-05
4.02264e-05
4.90954e-05
5.20103e-05
4.89071e-05
3.73773e-05
3.73765e-05
3.7377e-05
3.7377e-05
3.73701e-05
3.73777e-05
3.73043e-05
3.73768e-05
3.73702e-05
3.73777e-05
3.73768e-05
3.73043e-05
3.73741e-05
3.72959e-05
3.72959e-05
3.58798e-05
4.08721e-05
3.66033e-05
4.51467e-05
5.51147e-05
6.48951e-05
3.58803e-05
4.08712e-05
3.66034e-05
4.51465e-05
3.58932e-05
3.58933e-05
3.58932e-05
3.44005e-05
3.44005e-05
3.44005e-05
3.44005e-05
3.52758e-05
3.56384e-05
3.58929e-05
3.53771e-05
3.60475e-05
3.42365e-05
3.53822e-05
5.51168e-05
6.48994e-05
3.52758e-05
3.58929e-05
3.5638e-05
3.53771e-05
3.60475e-05
3.53822e-05
3.42375e-05
3.65971e-05
3.65977e-05
3.5279e-05
3.40642e-05
3.40633e-05
3.39657e-05
5.13534e-05
3.46793e-05
5.46248e-05
7.65447e-05
8.08614e-05
3.39682e-05
5.13543e-05
3.46789e-05
5.46254e-05
3.39296e-05
3.39297e-05
3.39297e-05
3.25855e-05
3.25854e-05
3.25855e-05