/*--------------------------------*- C++ -*----------------------------------*\
| =========                 |                                                 |
| \\      /  F ield         | OpenFOAM: The Open Source CFD Toolbox           |
|  \\    /   O peration     | Version:  v1906                                 |
|   \\  /    A nd           | Web:      www.OpenFOAM.com                      |
|    \\/     M anipulation  |                                                 |
\*---------------------------------------------------------------------------*/
FoamFile
{
    version     2.0;
    format      ascii;
    class       volScalarField;
    location    "625";
    object      nut;
}
// * * * * * * * * * * * * * * * * * * * * * * * * * * * * * * * * * * * * * //

dimensions      [0 2 -1 0 0 0 0];


internalField   nonuniform List<scalar> 
171728
(
0.000152202
0.000151167
0.000145801
0.000149301
0.000151104
0.000152271
0.000146724
0.000153434
0.000155223
0.000152435
0.000154741
0.00015503
0.000133625
0.000120095
0.000129116
0.00013815
2.37182e-05
2.37132e-05
7.95204e-05
7.94604e-05
9.20846e-05
5.03059e-05
9.52389e-05
9.18872e-05
5.03697e-05
5.02734e-05
9.50401e-05
0.000119831
0.000100443
0.000136665
0.000126802
0.000126791
0.000119348
0.000131804
9.93219e-05
0.000131355
9.34706e-05
0.000117314
0.000126551
2.37695e-05
2.37296e-05
0.000132315
7.91278e-05
7.883e-05
7.42231e-05
7.42764e-05
2.37605e-05
2.37234e-05
5.02946e-05
9.52959e-05
0.000100332
0.000137398
0.00012729
5.03738e-05
9.54387e-05
0.000136631
0.000101182
0.000127558
0.000120007
0.000133659
9.90403e-05
0.000133847
9.37492e-05
0.000122228
0.000125883
9.20928e-05
5.03298e-05
5.02505e-05
9.44582e-05
0.000120442
0.000146923
0.000138424
0.000100299
0.000130065
9.70835e-05
0.000126061
9.22123e-05
5.02541e-05
5.02289e-05
9.46198e-05
2.37671e-05
8.06431e-05
8.02212e-05
2.37587e-05
0.000121188
0.000138507
0.000100702
0.00012716
0.000127349
0.00012169
0.000148203
0.000141476
0.000100936
0.000133167
9.78532e-05
0.000127501
9.25885e-05
5.03343e-05
9.51627e-05
9.28164e-05
5.02503e-05
5.02433e-05
9.53059e-05
0.000146845
7.93603e-05
7.96565e-05
7.75323e-05
7.80435e-05
2.36954e-05
2.37094e-05
2.36897e-05
2.37105e-05
2.37213e-05
2.37164e-05
0.000105167
0.000123666
7.87129e-05
4.83633e-05
4.83671e-05
0.000121434
0.00010663
0.000105168
0.000123717
7.86998e-05
4.83553e-05
4.8354e-05
0.000121524
0.000106633
8.50755e-05
2.16472e-05
2.16434e-05
2.16524e-05
2.16481e-05
8.57459e-05
3.63682e-05
4.0629e-05
8.86821e-05
9.31099e-05
3.63579e-05
4.06373e-05
8.96825e-05
2.01836e-05
5.02992e-05
7.9195e-05
7.85063e-05
2.01867e-05
3.63732e-05
9.41074e-05
4.06452e-05
9.16793e-05
4.06414e-05
9.06207e-05
3.63779e-05
3.63687e-05
4.06288e-05
8.80749e-05
9.29058e-05
3.63564e-05
4.06379e-05
8.90492e-05
2.01782e-05
5.03425e-05
7.84877e-05
7.76745e-05
2.0186e-05
2.0173e-05
7.62263e-05
5.03118e-05
2.01614e-05
7.69629e-05
3.63759e-05
9.39038e-05
4.06476e-05
9.10683e-05
4.06428e-05
8.99826e-05
3.63837e-05
2.37594e-05
2.37478e-05
8.1293e-05
2.16651e-05
2.16653e-05
7.90672e-05
2.17031e-05
2.17035e-05
0.00010232
0.000121717
7.74181e-05
4.85571e-05
0.000118012
4.85049e-05
0.000105415
0.000102158
0.000121508
7.72413e-05
4.85416e-05
4.84911e-05
0.000117949
0.000105221
9.9245e-05
4.83647e-05
0.000111122
7.57278e-05
0.000114316
9.65063e-05
4.8441e-05
9.91363e-05
4.83566e-05
0.000111325
7.56788e-05
9.64299e-05
4.84298e-05
0.000114399
8.36757e-05
2.17508e-05
2.1752e-05
2.17302e-05
2.1731e-05
8.59578e-05
2.37509e-05
2.37405e-05
2.01785e-05
5.02876e-05
7.89768e-05
7.83212e-05
2.01821e-05
3.63693e-05
9.41707e-05
9.14984e-05
4.06422e-05
9.04705e-05
4.06389e-05
3.6374e-05
2.01852e-05
5.03526e-05
7.91367e-05
7.82654e-05
2.01915e-05
3.63799e-05
9.42721e-05
4.06478e-05
9.17425e-05
4.06436e-05
9.05903e-05
3.63871e-05
3.63524e-05
8.82846e-05
4.06148e-05
9.28612e-05
3.63437e-05
8.90247e-05
4.0621e-05
2.01669e-05
5.0307e-05
7.81086e-05
7.7443e-05
2.01742e-05
2.01631e-05
7.63257e-05
5.02823e-05
2.01543e-05
7.68995e-05
3.63567e-05
9.3582e-05
9.05471e-05
4.06267e-05
8.96983e-05
4.06236e-05
3.63626e-05
3.63514e-05
4.06145e-05
8.86782e-05
9.29974e-05
3.63429e-05
4.06205e-05
8.94812e-05
2.017e-05
5.02511e-05
7.87051e-05
7.81072e-05
2.01726e-05
2.01682e-05
7.69271e-05
5.02439e-05
2.01599e-05
7.75344e-05
3.63554e-05
9.37325e-05
4.06259e-05
9.1085e-05
4.0623e-05
9.02139e-05
3.63597e-05
2.37623e-05
0.000105147
0.000125021
7.89918e-05
4.85729e-05
0.000121272
4.85399e-05
0.000108192
0.000105004
0.000124734
7.87185e-05
4.8559e-05
4.85276e-05
0.000121144
0.000108004
8.58309e-05
2.17569e-05
2.17593e-05
2.17458e-05
2.17477e-05
8.78907e-05
2.37544e-05
3.63558e-05
8.86857e-05
4.06167e-05
9.34497e-05
3.63465e-05
8.95336e-05
4.06225e-05
2.01729e-05
5.03165e-05
7.86083e-05
7.78959e-05
2.01788e-05
2.01693e-05
7.72749e-05
3.63604e-05
9.42379e-05
9.12244e-05
4.06268e-05
9.03002e-05
4.06248e-05
3.63655e-05
3.63543e-05
8.93966e-05
4.06161e-05
9.36644e-05
3.63483e-05
9.02156e-05
4.06208e-05
2.01692e-05
5.02525e-05
7.91e-05
7.86347e-05
2.01694e-05
2.01695e-05
7.75841e-05
5.02516e-05
2.01644e-05
7.81473e-05
3.63558e-05
9.44233e-05
9.17034e-05
4.0623e-05
9.09131e-05
4.06221e-05
3.63571e-05
8.54054e-05
2.16561e-05
2.16497e-05
8.47934e-05
2.16511e-05
2.16442e-05
0.000106533
0.000124376
7.89191e-05
4.83057e-05
0.000122886
4.8327e-05
0.000107298
0.000106636
0.000124855
7.9326e-05
4.82836e-05
0.000123449
4.8311e-05
0.000107366
0.000105411
4.83387e-05
0.00011921
7.82761e-05
0.0001041
0.000121163
4.83398e-05
0.000105531
4.83335e-05
0.000119761
7.87497e-05
0.000104224
0.000121728
4.83323e-05
8.58632e-05
2.16231e-05
2.16158e-05
2.16344e-05
2.16271e-05
8.61003e-05
2.37016e-05
2.37087e-05
2.36972e-05
2.37079e-05
0.000129738
0.000149604
0.00014376
0.000143861
0.000140781
0.000140928
0.000132238
0.000125821
0.000144448
0.000141657
0.000141625
0.000136882
0.000136936
0.000130023
0.000129653
0.000150102
0.00014638
0.000146294
0.000141374
0.000141364
0.000133917
0.000131942
0.000152949
0.000145458
0.000145819
0.000143254
0.000143614
0.000133616
0.000119826
0.000120566
0.000111989
0.000124554
0.000130027
0.000103667
0.000109407
0.000112426
9.90657e-05
0.000101982
0.000119678
0.00012438
0.000116022
0.000118853
0.000108465
0.000122001
0.000128451
0.000130808
0.000122893
0.000125789
0.000115932
0.000118759
0.000128428
0.000132962
0.000132748
0.000117267
0.000129834
0.000122082
0.000130357
0.000119387
0.00013265
0.000135162
0.000132444
9.90221e-05
0.000114433
0.000129999
0.000112572
0.000137608
0.000137045
0.000124435
0.000123735
0.000140062
0.000121536
0.000137228
0.000139502
0.000130492
0.000115943
0.000128555
0.00012167
0.000127518
0.000118196
0.000131649
0.000132879
0.000130777
9.72369e-05
0.000113221
0.000110976
0.000127215
0.000136202
0.000128343
0.000106785
0.00012
9.52623e-05
0.000125173
0.000108778
0.000123168
0.000135504
0.000124119
0.000122987
0.000139687
0.000120575
0.000136586
0.000138551
0.000121497
0.000136881
0.00012729
0.000127528
0.000131495
0.000117802
0.000131661
0.00013534
0.000132556
9.89739e-05
0.000114364
0.000130154
0.000112569
0.000137782
0.000137473
0.000124942
0.000123852
0.000141032
0.000121692
0.000138179
0.000139952
0.000135775
0.000134087
9.90356e-05
0.000114905
0.000112549
0.000130367
0.000139229
0.000137922
0.000125092
0.000141523
0.000124415
0.000138422
0.000121926
0.000141027
0.000131218
0.000116558
0.00013
0.000121917
0.000128729
0.000118453
0.000132528
0.000132994
0.000130551
9.71525e-05
0.000112843
0.000127252
0.000110893
0.00013594
0.000128872
0.000107271
0.000120545
9.53793e-05
0.000126062
0.000123488
0.000109003
0.000135674
0.000123889
0.000122436
0.00013932
0.000120412
0.000136801
0.000138209
0.000133639
0.000131239
0.0001178
0.00012228
0.000131764
0.000133497
0.000119549
0.000135799
0.000132875
9.92815e-05
0.000113883
0.000112418
0.000131088
0.000137649
0.000132966
0.000109496
0.000126945
9.82674e-05
0.000131048
0.000111007
0.000128931
0.000137328
0.000124149
0.000139661
0.000123029
0.000137423
0.000121247
0.000139191
0.000133642
0.000132096
0.000117706
0.000123238
0.000131055
0.000134762
0.00011974
0.00013569
0.000133701
9.87711e-05
0.000114337
0.000130233
0.000112287
0.000138808
0.000131588
0.00011031
0.000138078
0.00012528
0.000141622
0.000123906
0.000139034
0.000121786
0.000140731
0.000135498
0.000133136
0.000119112
0.000123651
0.000133501
0.000135517
0.000120947
0.000137264
0.000133916
0.00010002
0.000114995
0.0001136
0.000132116
0.000139174
0.000134438
0.000110672
0.000127918
9.90357e-05
0.000132419
0.000112225
0.000129969
0.000139154
0.000125557
0.000141723
0.000124381
0.000139441
0.000122634
0.000141069
0.000129975
0.000149038
0.000138193
0.000138521
0.000127789
0.000140663
0.000141022
0.000204829
0.000198351
0.000198938
0.000180279
0.000180969
0.000181757
0.000182984
0.000200118
0.000198621
0.000201597
0.000200313
0.000180335
0.000181798
0.000200162
0.000199258
0.00020177
0.000201033
0.000198342
0.000199873
0.000198793
0.000180975
0.000182299
0.000198318
0.000200608
0.000198995
0.000180789
0.000199376
0.000199533
9.99246e-05
5.07327e-05
5.07393e-05
9.97537e-05
2.38818e-05
2.38877e-05
0.000100004
5.07301e-05
5.07361e-05
9.98639e-05
0.00020334
0.000203731
0.000203523
0.000207968
0.000205325
0.000206372
0.000203854
0.000143564
0.000103207
0.000207427
0.000198762
0.0001034
0.000207666
0.0001434
2.38817e-05
2.38855e-05
0.000143854
0.000207597
0.000103489
0.000199567
0.000208161
0.000103648
0.000143603
7.7723e-05
7.7749e-05
0.000180356
7.76842e-05
7.77045e-05
7.77654e-05
7.77512e-05
2.38875e-05
2.38905e-05
2.38863e-05
2.38891e-05
7.80777e-05
7.80913e-05
0.000182475
7.81411e-05
7.81483e-05
2.38925e-05
2.38906e-05
2.3891e-05
2.38891e-05
0.00018262
7.81157e-05
7.81105e-05
7.81424e-05
7.81488e-05
9.98734e-05
5.07203e-05
5.07345e-05
9.96967e-05
0.000144148
0.000103714
0.000208774
0.000200764
0.00010388
0.000209509
0.000143743
0.000144033
0.000103262
0.000208131
0.00019911
0.000103489
0.000208759
0.000143639
9.99352e-05
5.07441e-05
5.07401e-05
0.000100002
9.98861e-05
5.07473e-05
5.07368e-05
9.99853e-05
0.000144198
0.000201287
0.000103901
0.000210769
0.000103881
0.000210215
0.000144464
0.000144089
0.000199701
0.000103699
0.000210124
0.000103509
0.000209456
0.000144398
7.77263e-05
7.76917e-05
0.000180814
7.78553e-05
7.78094e-05
2.38823e-05
2.38884e-05
2.38931e-05
2.38883e-05
0.000181033
7.79526e-05
7.79471e-05
7.78645e-05
7.78314e-05
2.38945e-05
2.38892e-05
0.000144349
0.000103745
0.000208841
0.000200875
0.000103895
0.000209739
0.000143944
9.99774e-05
5.07193e-05
5.07279e-05
9.98351e-05
0.000144293
0.000208402
0.000103545
0.000199931
0.00020927
0.000103708
0.000143894
0.000100008
5.07409e-05
5.07368e-05
0.00010003
0.000144383
0.000201446
0.000103908
0.000211173
0.000103892
0.000210581
0.000144545
9.99836e-05
5.07351e-05
5.07291e-05
0.000100012
0.000144329
0.000200567
0.000210795
0.000103751
0.000210131
0.000103715
0.000144509
9.96766e-05
5.07176e-05
5.07315e-05
9.95898e-05
0.000143537
0.000207383
0.000103274
0.000198174
0.000207465
0.000103256
0.000143429
9.96566e-05
5.07089e-05
5.07195e-05
9.96059e-05
0.000143594
0.000199275
0.00010364
0.000208668
0.000103417
0.000208074
0.000143941
9.96812e-05
5.07459e-05
5.07339e-05
9.98074e-05
0.000143557
0.00019828
0.00020822
0.000103364
0.000207725
0.00010324
0.000143862
9.96559e-05
5.07358e-05
5.07219e-05
9.97662e-05
7.79359e-05
7.78965e-05
0.000181657
7.79894e-05
7.79806e-05
2.38835e-05
2.38878e-05
2.38888e-05
2.38857e-05
0.000181833
7.79843e-05
7.80033e-05
7.79889e-05
7.79895e-05
2.38915e-05
2.38882e-05
0.000143775
0.000207304
0.000103321
0.000198234
0.000207671
0.000103304
0.000143575
9.97929e-05
5.07204e-05
5.07295e-05
9.97128e-05
9.97567e-05
5.07104e-05
5.07202e-05
9.9703e-05
0.000143872
0.00020015
0.000209372
0.000103736
0.000208772
0.000103656
0.000144094
0.000143784
0.000198496
0.000208655
0.000103376
0.000208111
0.000103284
0.000143992
9.97916e-05
5.0738e-05
5.07309e-05
9.98551e-05
9.97527e-05
5.07353e-05
5.07223e-05
9.98114e-05
2.38785e-05
2.38834e-05
2.38782e-05
2.38829e-05
0.000180343
7.77443e-05
7.77362e-05
7.76703e-05
7.76857e-05
2.38906e-05
2.38842e-05
2.38898e-05
2.38836e-05
0.000208843
0.000103376
0.000143908
5.07387e-05
9.9773e-05
0.00010338
5.0738e-05
2.38915e-05
2.38907e-05
3.67036e-05
4.10474e-05
9.45721e-05
9.98539e-05
4.10441e-05
9.45232e-05
3.67063e-05
2.03124e-05
5.0736e-05
7.9116e-05
7.91517e-05
2.03106e-05
2.03123e-05
7.91727e-05
5.0737e-05
7.91531e-05
2.03139e-05
3.67027e-05
9.98362e-05
4.10391e-05
9.44418e-05
4.10427e-05
9.45119e-05
3.66996e-05
2.38845e-05
2.38853e-05
3.67054e-05
9.46173e-05
4.1047e-05
9.99531e-05
9.45834e-05
4.10442e-05
3.67078e-05
2.03137e-05
5.0733e-05
7.91571e-05
7.91874e-05
2.03121e-05
2.03137e-05
7.91998e-05
5.0734e-05
7.91864e-05
2.03152e-05
3.67046e-05
9.99373e-05
9.45155e-05
4.10399e-05
9.45744e-05
4.1043e-05
3.67019e-05
2.38835e-05
2.38838e-05
8.13016e-05
2.17005e-05
2.16974e-05
2.16986e-05
2.16956e-05
8.12879e-05
0.000104912
0.000128234
7.77114e-05
4.86213e-05
0.000128228
4.86247e-05
0.000104925
0.000104932
0.000128255
7.7736e-05
4.86126e-05
0.000128252
4.86157e-05
0.000104946
0.000104868
4.8631e-05
7.76887e-05
0.000128186
0.000128181
4.86265e-05
0.000104863
0.00010489
4.86214e-05
7.77117e-05
0.000128214
0.000128208
4.86173e-05
0.000104883
8.13277e-05
2.16969e-05
2.16939e-05
2.16983e-05
2.16953e-05
8.13534e-05
0.000105027
0.000128358
4.86522e-05
7.78259e-05
0.000104921
0.000128514
4.86594e-05
0.000105028
0.000128353
4.86416e-05
7.78085e-05
0.000104929
0.000128495
4.86487e-05
8.1379e-05
2.17081e-05
2.17049e-05
8.13385e-05
2.17111e-05
2.1708e-05
2.38891e-05
2.38893e-05
2.38878e-05
2.38879e-05
8.17698e-05
2.17098e-05
2.17064e-05
2.17088e-05
2.17055e-05
8.17834e-05
0.000105539
0.000128944
7.81123e-05
4.86525e-05
4.86552e-05
0.000129097
0.000105457
0.00010555
0.000128957
7.81233e-05
4.86414e-05
4.86439e-05
0.000129109
0.000105468
0.000105566
4.8657e-05
7.81263e-05
0.000129246
4.86557e-05
0.000105612
0.000129146
0.000105577
4.86453e-05
7.81351e-05
0.000129253
4.86443e-05
0.000105621
0.000129156
8.17525e-05
2.17077e-05
2.17044e-05
2.1709e-05
2.17057e-05
8.17236e-05
2.38916e-05
2.38916e-05
2.38901e-05
2.38902e-05
8.17795e-05
2.17093e-05
2.17059e-05
8.17859e-05
2.17098e-05
2.17064e-05
0.000105619
0.000129306
7.8131e-05
4.86569e-05
4.86568e-05
0.000129291
0.000105613
0.000105624
0.000129307
7.81284e-05
4.86448e-05
4.86449e-05
0.000129293
0.000105617
0.000105637
4.86569e-05
0.000129258
7.81486e-05
0.000105616
4.86573e-05
0.000129299
0.000105646
4.86451e-05
0.000129263
7.81533e-05
0.000105626
4.86455e-05
0.000129303
8.1742e-05
2.17095e-05
2.1706e-05
2.1709e-05
2.17056e-05
8.16987e-05
3.67032e-05
4.10469e-05
9.44572e-05
9.97955e-05
4.10434e-05
9.43893e-05
3.67064e-05
2.03113e-05
5.07264e-05
7.89799e-05
7.9027e-05
2.0309e-05
2.03116e-05
7.90742e-05
5.0729e-05
7.90301e-05
2.03138e-05
3.67018e-05
9.97781e-05
4.10381e-05
9.43056e-05
4.10419e-05
9.43743e-05
3.66982e-05
3.67093e-05
4.10486e-05
9.45741e-05
9.99823e-05
3.6707e-05
4.10514e-05
9.45964e-05
2.03152e-05
5.07425e-05
7.91708e-05
2.03166e-05
7.91685e-05
2.03153e-05
7.91682e-05
5.07419e-05
2.03138e-05
7.91757e-05
3.671e-05
9.99821e-05
4.1055e-05
9.45981e-05
3.67122e-05
4.10524e-05
9.45883e-05
3.67105e-05
4.10482e-05
9.44679e-05
9.99454e-05
3.67076e-05
4.10513e-05
9.45218e-05
2.0316e-05
5.07433e-05
7.91286e-05
7.91053e-05
2.03178e-05
2.03159e-05
7.90748e-05
5.07414e-05
2.0314e-05
7.91088e-05
3.67115e-05
9.99495e-05
4.10552e-05
9.45607e-05
4.10525e-05
9.4525e-05
3.67142e-05
8.13826e-05
2.17027e-05
2.17056e-05
2.17004e-05
2.1703e-05
8.14102e-05
0.000104953
0.000128154
7.77876e-05
4.86217e-05
4.86279e-05
0.000128268
0.000104876
0.000104913
0.000128112
7.774e-05
4.86288e-05
0.000128218
4.86354e-05
0.000104831
0.000104969
4.86363e-05
7.77989e-05
0.000128467
4.86305e-05
0.000128306
0.000105064
0.000104929
4.86447e-05
7.77589e-05
0.000128407
0.000128251
4.86383e-05
0.00010503
8.1357e-05
2.16974e-05
2.16997e-05
2.16998e-05
2.17023e-05
8.13325e-05
2.3885e-05
2.38858e-05
2.38911e-05
2.38905e-05
8.14679e-05
2.17033e-05
2.17063e-05
8.1438e-05
2.17056e-05
2.17088e-05
0.000105195
0.00012885
7.79157e-05
4.86503e-05
0.000128712
4.86458e-05
0.000105282
0.000105175
0.000128818
7.7903e-05
4.8661e-05
4.86557e-05
0.000128663
0.000105273
0.000105177
4.86387e-05
0.000128512
7.7911e-05
0.000128671
0.000105083
4.86438e-05
0.000105153
4.86475e-05
0.000128452
7.78802e-05
0.00010505
4.86533e-05
0.000128616
8.14974e-05
2.17084e-05
2.17117e-05
2.17062e-05
2.17093e-05
8.15276e-05
2.38922e-05
2.38916e-05
3.67015e-05
4.10463e-05
9.45522e-05
9.99234e-05
4.10435e-05
9.45077e-05
3.67041e-05
2.03108e-05
5.07232e-05
7.90705e-05
7.9105e-05
2.03089e-05
2.03108e-05
7.91261e-05
5.07247e-05
7.91033e-05
2.03124e-05
3.67005e-05
9.99074e-05
4.10391e-05
9.44383e-05
4.10423e-05
9.44994e-05
3.66976e-05
3.67107e-05
9.46148e-05
4.1048e-05
0.00010003
3.67085e-05
9.4629e-05
4.10505e-05
2.03164e-05
5.07392e-05
7.91967e-05
2.03178e-05
7.91943e-05
2.03165e-05
7.91942e-05
5.07386e-05
2.03151e-05
7.92013e-05
3.67114e-05
0.000100023
9.46286e-05
4.10538e-05
3.67134e-05
9.4621e-05
4.10514e-05
3.67072e-05
4.10474e-05
9.45522e-05
0.00010001
3.67049e-05
4.105e-05
9.4572e-05
2.03137e-05
5.07327e-05
7.9119e-05
7.91157e-05
2.03153e-05
2.03139e-05
7.91192e-05
5.07317e-05
2.03123e-05
7.91272e-05
3.6708e-05
0.000100003
4.10534e-05
9.45712e-05
4.10509e-05
9.45622e-05
3.67102e-05
3.67018e-05
9.43316e-05
4.10437e-05
9.96223e-05
9.42774e-05
4.10398e-05
3.67054e-05
2.03112e-05
5.07233e-05
7.89349e-05
7.89731e-05
2.03088e-05
2.03116e-05
7.90168e-05
5.07259e-05
7.89739e-05
2.03138e-05
3.67004e-05
9.96216e-05
9.42335e-05
4.10343e-05
9.42706e-05
4.10381e-05
3.66969e-05
3.6698e-05
4.10428e-05
9.42769e-05
9.96157e-05
4.10391e-05
9.42589e-05
3.67012e-05
2.03083e-05
5.07128e-05
7.89537e-05
7.89541e-05
2.03065e-05
2.03086e-05
7.89441e-05
5.07148e-05
7.89382e-05
2.03105e-05
3.66968e-05
9.96216e-05
4.10339e-05
9.42686e-05
4.10375e-05
9.42733e-05
3.66938e-05
3.67101e-05
9.43401e-05
4.10453e-05
9.97404e-05
3.67067e-05
9.43957e-05
4.1049e-05
2.03166e-05
5.07412e-05
7.90977e-05
7.90604e-05
2.03187e-05
2.03163e-05
7.90183e-05
5.0739e-05
2.03142e-05
7.90594e-05
3.67114e-05
9.97468e-05
9.4457e-05
4.10542e-05
9.44041e-05
4.10506e-05
3.67145e-05
3.67058e-05
4.10445e-05
9.4272e-05
9.97058e-05
3.67024e-05
4.10482e-05
9.43054e-05
2.03134e-05
5.07299e-05
7.89794e-05
7.89458e-05
2.03157e-05
2.0313e-05
7.8933e-05
5.07272e-05
2.03108e-05
7.89523e-05
3.67071e-05
9.97085e-05
4.10534e-05
9.43512e-05
4.10498e-05
9.43057e-05
3.67105e-05
8.15881e-05
2.17027e-05
2.17064e-05
2.17013e-05
2.17049e-05
8.15963e-05
0.000105301
0.000128637
7.79639e-05
4.8629e-05
4.86324e-05
0.000128759
0.000105237
0.000105263
0.000128585
7.79353e-05
4.86394e-05
0.000128709
4.86435e-05
0.00010519
0.000105315
4.8636e-05
7.79736e-05
0.000128892
4.86334e-05
0.000128794
0.00010536
0.000105277
4.86484e-05
7.79509e-05
0.00012885
0.000128746
4.8645e-05
0.000105333
8.15756e-05
2.16998e-05
2.1703e-05
2.17013e-05
2.17048e-05
8.15585e-05
2.38856e-05
2.3886e-05
2.38873e-05
2.38872e-05
8.16008e-05
2.17026e-05
2.17065e-05
8.15986e-05
2.17038e-05
2.17078e-05
0.000105373
0.000129007
7.79869e-05
4.86409e-05
0.000128985
4.86392e-05
0.000105378
0.000105368
0.000129006
7.80016e-05
4.86551e-05
4.8653e-05
0.000128967
0.000105377
0.000105381
4.86367e-05
0.000128915
7.79936e-05
0.000128984
0.000105363
4.86387e-05
0.000105374
4.86495e-05
0.000128877
7.80035e-05
0.000105342
4.86522e-05
0.000128956
8.15967e-05
2.17048e-05
2.1709e-05
2.17037e-05
2.17078e-05
8.15904e-05
2.389e-05
2.38898e-05
3.6701e-05
9.44411e-05
4.10441e-05
9.97554e-05
9.44029e-05
4.10408e-05
3.67039e-05
2.03111e-05
5.07243e-05
7.90276e-05
7.90566e-05
2.03092e-05
2.03113e-05
7.90824e-05
5.0726e-05
7.90559e-05
2.03131e-05
3.66999e-05
9.97553e-05
9.43598e-05
4.10361e-05
9.44025e-05
4.10394e-05
3.66969e-05
3.67005e-05
9.43454e-05
4.10436e-05
9.97296e-05
9.43292e-05
4.10404e-05
3.67034e-05
2.03095e-05
5.07141e-05
7.89923e-05
7.89955e-05
2.03077e-05
2.03096e-05
7.89837e-05
5.07159e-05
7.8979e-05
2.03115e-05
3.66995e-05
9.97332e-05
9.43244e-05
4.10358e-05
9.43411e-05
4.1039e-05
3.66967e-05
3.67078e-05
9.44399e-05
4.10454e-05
9.98264e-05
3.6705e-05
9.44731e-05
4.10486e-05
2.0315e-05
5.07353e-05
7.91068e-05
7.90974e-05
2.03166e-05
2.0315e-05
7.90809e-05
5.07341e-05
2.03133e-05
7.91021e-05
3.67087e-05
9.98238e-05
9.44938e-05
4.10531e-05
9.44692e-05
4.105e-05
3.67114e-05
3.67075e-05
9.4334e-05
4.1045e-05
9.97816e-05
3.67045e-05
9.43564e-05
4.10483e-05
2.03139e-05
5.07297e-05
7.89934e-05
7.89687e-05
2.03161e-05
2.03137e-05
7.89682e-05
5.07273e-05
2.03116e-05
7.89807e-05
3.67087e-05
9.97787e-05
9.43804e-05
4.1053e-05
9.4348e-05
4.10497e-05
3.67119e-05
2.38805e-05
2.38811e-05
2.38801e-05
2.38807e-05
8.12668e-05
2.1701e-05
2.16979e-05
8.12664e-05
2.17034e-05
2.17003e-05
0.000104844
0.000128327
7.76952e-05
4.86489e-05
0.00010491
0.000128218
4.86421e-05
0.000104859
0.000128327
7.76941e-05
4.86384e-05
0.00010492
0.000128231
4.86319e-05
0.000104853
4.86334e-05
0.000128161
7.76934e-05
0.000104834
0.000128214
4.86391e-05
0.000104869
4.86236e-05
0.000128187
7.76984e-05
0.000104854
0.000128231
4.8629e-05
8.12784e-05
2.17071e-05
2.1704e-05
8.13024e-05
2.17043e-05
2.17011e-05
2.38877e-05
2.38868e-05
2.3887e-05
2.38861e-05
2.03186e-05
7.89792e-05
5.07448e-05
2.03162e-05
7.90266e-05
3.67154e-05
9.98376e-05
4.1055e-05
9.43583e-05
3.67119e-05
4.10586e-05
9.44181e-05
5.07438e-05
2.38943e-05
2.38936e-05
0.000199927
0.000199941
0.000206042
0.000201177
0.000201279
0.000190237
0.000189205
0.000137679
0.000160653
0.000160652
0.000180348
0.000160649
0.000160654
0.000137684
0.000138003
0.0001611
0.000161106
0.000181217
0.000137836
0.000161247
0.000161249
0.000138681
0.000161799
0.000161808
0.000182013
0.000161952
0.000161964
0.000138521
0.000138936
0.000182849
0.000162555
0.000162567
0.000162504
0.000162516
0.000138955
0.000137693
0.000160611
0.000160578
0.000180492
0.000160677
0.000160714
0.000137569
0.000138221
0.000181546
0.000161736
0.000161685
0.000161597
0.000161541
0.000138381
0.000138258
0.000161268
0.000161224
0.000181214
0.000161352
0.000161396
0.000138127
0.000138556
0.000182129
0.000162093
0.000162051
0.000162034
0.000161989
0.000138596
0.000137673
0.000180578
0.000160932
0.000160948
0.000137786
0.000160818
0.000160837
0.000199631
0.000199921
0.000203821
0.000200405
0.000200035
0.000190634
0.000190294
0.000199792
0.000200013
0.000204553
0.000200772
0.000200363
0.000190991
0.000190735
0.00020044
0.000200391
0.000203322
0.000200195
0.000200263
0.000191784
0.000192114
0.000207158
0.000203611
0.000203943
0.000202459
0.000202695
0.000191437
0.000192721
0.000204488
0.000202318
0.000200945
0.000201314
0.000200344
0.000191079
0.000191725
0.000205497
0.000203117
0.000201743
0.000201954
0.000200967
0.000191505
0.000192252
0.000203425
0.00020044
0.000200768
0.000200144
0.000200366
0.000191575
0.000191624
0.000170242
0.000137114
0.000175388
0.000143453
0.000136995
0.000175309
0.000170342
0.000159765
0.000146628
0.000103287
0.000122208
0.000146704
0.000122288
0.000159681
0.000159834
0.000122425
0.000103297
0.00014692
0.000146815
0.000122297
0.000159961
0.000170171
0.000143444
0.000136922
0.000175206
0.000136976
0.000175259
0.000170096
0.000170657
0.000175776
0.000137417
0.000143742
0.000175667
0.000137311
0.000170772
0.000160225
0.000147124
0.000103568
0.000122496
0.000147218
0.000122601
0.000160096
0.000160365
0.00012271
0.00010358
0.000147435
0.000147352
0.000122616
0.000160485
0.000170501
0.000143723
0.000175406
0.000137172
0.000175508
0.000137286
0.000170387
0.000137631
0.000180232
0.000160628
0.000160648
0.000160589
0.000160605
0.000137642
0.000138754
0.000182251
0.000162278
0.000162291
0.000138864
0.000162161
0.000162174
0.000138944
0.000182816
0.000162394
0.000162406
0.000138889
0.000162468
0.000162481
0.000171143
0.000137716
0.000176299
0.000143975
0.000137574
0.000176156
0.000171285
0.00016069
0.000147574
0.000103805
0.000122707
0.000122844
0.000147685
0.000160543
0.000160859
0.000122982
0.000103826
0.000147924
0.000122874
0.000147843
0.000160996
0.000170941
0.000143915
0.000137362
0.000175786
0.00013752
0.000175923
0.000170806
0.000170701
0.000137429
0.000176093
0.000143854
0.000137266
0.000175948
0.000170832
0.000159967
0.000146736
0.000103358
0.000122301
0.000122425
0.000146828
0.000159855
0.000160103
0.000122601
0.000103378
0.000147088
0.000122452
0.000160253
0.000146972
0.000170528
0.000143797
0.000137081
0.000175617
0.000137216
0.000175737
0.000170418
0.000171605
0.000137755
0.00017653
0.000144341
0.000171469
0.000137862
0.000176654
0.000161291
0.000148118
0.000103893
0.000123084
0.000148088
0.00012305
0.000161378
0.000161234
0.000122998
0.000148014
0.000103903
0.000148064
0.000161115
0.000123064
0.000171736
0.000144368
0.000137925
0.000176925
0.000137873
0.000176827
0.000171844
0.000171174
0.000137479
0.000176335
0.000144246
0.00017104
0.000137627
0.000176471
0.000160764
0.000147634
0.000103622
0.000122886
0.000122783
0.000147539
0.000160893
0.000160591
0.00012263
0.000147264
0.000103609
0.000160442
0.000122764
0.000147376
0.000171368
0.000144283
0.000137778
0.000176788
0.000137664
0.000176679
0.000171498
0.000137743
0.000180586
0.00016101
0.00016096
0.000160821
0.000160868
0.000137919
0.000138155
0.00018129
0.000161225
0.000161168
0.000161376
0.000137982
0.000161319
0.000171332
0.000137848
0.00017658
0.000144193
0.000137719
0.000176435
0.000171495
0.000160794
0.00014763
0.00010383
0.000122789
0.000122923
0.000147742
0.00016063
0.000160976
0.000123049
0.000103847
0.000147978
0.00012295
0.000147896
0.000161122
0.000171096
0.000144136
0.000137501
0.000176002
0.000137668
0.000176164
0.000170931
0.000171092
0.000176472
0.000137705
0.000144137
0.000176328
0.000137572
0.000171248
0.000160441
0.000147257
0.000103628
0.000122604
0.000122728
0.000147356
0.000160296
0.000160611
0.000122857
0.000103642
0.000147588
0.000122754
0.000160753
0.000147502
0.000170865
0.00014408
0.000175902
0.000137366
0.000176061
0.000137522
0.000170714
0.000171816
0.000137874
0.000176797
0.000144493
0.00017168
0.00013795
0.00017692
0.000161386
0.000148154
0.000103901
0.000123115
0.000148127
0.000123084
0.000161463
0.000161351
0.000123053
0.00014806
0.000103913
0.00014811
0.000161235
0.000123102
0.000171917
0.000144497
0.000137978
0.000177145
0.000137938
0.000177063
0.000172008
0.000171586
0.000176694
0.000137738
0.000144444
0.000171445
0.000176818
0.000137837
0.000161089
0.000147864
0.000103741
0.000122972
0.00012294
0.000147828
0.000161179
0.000161013
0.000122874
0.000147701
0.000103751
0.00016089
0.000122952
0.000147765
0.000171716
0.000144453
0.00017706
0.000137881
0.000176971
0.000137836
0.00017182
0.000170166
0.000175351
0.00013703
0.000143451
0.000175283
0.000136981
0.00017024
0.000159747
0.000146722
0.000103274
0.000122273
0.000146717
0.000122289
0.000159704
0.000159716
0.000122292
0.000103243
0.000146701
0.000146672
0.000122254
0.000159783
0.000170144
0.000143455
0.000175206
0.000136981
0.000175253
0.000136997
0.000170084
0.000170611
0.000137151
0.000175513
0.000143738
0.000170488
0.000137292
0.000175636
0.000160435
0.000147473
0.000103541
0.000122739
0.000160584
0.000147363
0.000122606
0.000160257
0.000122445
0.000147078
0.000103523
0.000160109
0.000147192
0.000122583
0.00017081
0.000143781
0.000137483
0.000175986
0.000170948
0.000137335
0.00017584
0.000170406
0.000175443
0.000137041
0.000143679
0.00017031
0.000175547
0.000137133
0.00015998
0.000146958
0.000103285
0.000122465
0.000122355
0.000146867
0.000160109
0.000159893
0.000122277
0.000146721
0.000103289
0.000159801
0.000122355
0.000146785
0.000170541
0.000143715
0.000175857
0.000137278
0.000175721
0.000137158
0.00017066
0.000138308
0.000181436
0.000161691
0.000161645
0.000161534
0.000161578
0.000138416
0.000138539
0.000182027
0.000161842
0.000161795
0.000161936
0.000138455
0.000161887
0.000170358
0.000175636
0.000137198
0.000143682
0.000175545
0.000137136
0.000170445
0.000159855
0.000146764
0.000103323
0.000122345
0.000146775
0.000122373
0.000159791
0.00015985
0.000122389
0.000103293
0.000146785
0.000146752
0.000122349
0.000159922
0.000170291
0.000143672
0.000175347
0.000137078
0.000175428
0.000137136
0.000170214
0.000171034
0.000175941
0.000137437
0.000143979
0.000170921
0.000176047
0.000137534
0.000160796
0.000147751
0.000103709
0.000122865
0.000160894
0.000147702
0.000122804
0.000160712
0.000122721
0.000147549
0.000103709
0.000160603
0.000147619
0.000122801
0.000171166
0.000143994
0.000176308
0.000137631
0.000171272
0.000176206
0.000137548
0.000170633
0.000175773
0.0001372
0.000143879
0.000170537
0.000175871
0.000137271
0.00016011
0.000147012
0.000103311
0.000122505
0.00012242
0.000146933
0.000160222
0.00016004
0.000122371
0.000146809
0.000103321
0.000159952
0.00012243
0.000146866
0.000170751
0.000143891
0.000176124
0.000137369
0.00017602
0.000137279
0.000170858
0.000137673
0.000180499
0.000160648
0.000160673
0.000137614
0.000160725
0.000160749
0.000160412
0.000147095
0.00012248
0.000103482
0.00014721
0.00016026
0.000122619
0.000170992
0.000144071
0.000176086
0.000137318
0.000176236
0.000170851
0.000137467
0.000147124
0.000103472
0.000147225
0.000142642
0.000160738
0.000166374
0.00015822
0.000174179
0.000193314
0.000192925
0.000162769
0.000148428
0.000146982
0.000137103
0.00013348
9.7378e-05
0.00012279
0.000118468
0.000123466
0.000103923
0.000152823
0.00015693
0.000161563
0.000163917
0.000157769
0.000160876
0.000162367
0.000156543
0.000139095
0.000151246
0.000131758
0.000124714
0.00016096
0.000154588
0.000138674
0.000124676
0.000171581
0.000168247
0.000157464
0.000167714
0.000186779
0.000181888
0.000184681
0.000209194
0.000197618
0.00016438
0.000173703
0.000192127
0.000148687
0.000157473
0.000140039
0.000129386
0.00013602
0.000176368
0.000153862
0.000118014
0.000187983
0.000189194
0.000178787
0.000182671
0.000218007
0.000193234
0.00018476
0.000215379
0.000195952
0.000172799
0.000159992
0.000198468
0.000164771
0.000165291
0.000153204
0.00016682
0.000164125
0.000187501
0.000174595
0.000160546
0.00019024
0.000197088
0.000182383
0.000185325
0.00019692
0.000193548
0.000176894
0.000193389
0.000193853
0.000186494
0.000170745
0.000195777
0.000190976
0.000187662
0.000172212
0.00019851