/*--------------------------------*- C++ -*----------------------------------*\
| =========                 |                                                 |
| \\      /  F ield         | OpenFOAM: The Open Source CFD Toolbox           |
|  \\    /   O peration     | Version:  v1906                                 |
|   \\  /    A nd           | Web:      www.OpenFOAM.com                      |
|    \\/     M anipulation  |                                                 |
\*---------------------------------------------------------------------------*/
FoamFile
{
    version     2.0;
    format      ascii;
    class       volScalarField;
    location    "625";
    object      p;
}
// * * * * * * * * * * * * * * * * * * * * * * * * * * * * * * * * * * * * * //

dimensions      [0 2 -2 0 0 0 0];


internalField   nonuniform List<scalar> 
171728
(
0.00168251
0.00168491
0.00168503
0.00168251
0.00168488
0.00168488
0.00168499
0.00168473
0.00168242
0.00168485
0.00168468
0.00168239
0.00168557
0.00168617
0.00168597
0.00168532
0.00168089
0.00168088
0.001681
0.00168099
0.00169481
0.00168088
0.00168099
0.00169479
0.00168044
0.00169441
0.00168089
0.00169526
0.00168121
0.00168542
0.0016945
0.00168162
0.00169527
0.00169429
0.00168084
0.00168557
0.00169468
0.00169473
0.00168161
0.00168014
0.00169412
0.00169593
0.00168021
0.00168029
0.00169418
0.00169422
0.00168025
0.0016942
0.00168085
0.00168093
0.00168118
0.00168535
0.00168155
0.00168038
0.00168085
0.00168543
0.00168077
0.00168153
0.00169526
0.00169422
0.00168095
0.00168542
0.00169471
0.00169455
0.0016817
0.00169488
0.00168062
0.00169451
0.00168109
0.00169525
0.00169376
0.00168524
0.00168143
0.00169429
0.00169484
0.00168172
0.0016949
0.00168113
0.00169466
0.00168119
0.00168012
0.00168023
0.0016803
0.00168025
0.00169514
0.0016853
0.00168089
0.00169443
0.00168162
0.00169515
0.00169371
0.00168515
0.00168139
0.00169422
0.00169477
0.00168164
0.00169475
0.00168059
0.00168105
0.00169478
0.00168114
0.00169459
0.00168114
0.00169571
0.00168132
0.00168134
0.00169457
0.00169457
0.00168122
0.00169452
0.00168125
0.0016945
0.00168538
0.00168536
0.00168572
0.00168152
0.00168549
0.00168095
0.00168544
0.00168605
0.00168122
0.00168571
0.00168146
0.00168548
0.00168094
0.00168542
0.00168602
0.00168122
0.00168544
0.00168093
0.00168093
0.0016854
0.00168538
0.00168097
0.00169003
0.00169464
0.00169478
0.00169024
0.00169463
0.00169003
0.00169021
0.00168533
0.00168543
0.00168091
0.00168546
0.00168078
0.00168539
0.00168558
0.00168076
0.00168098
0.00168538
0.00168557
0.00168078
0.00168995
0.00169463
0.00169471
0.00169021
0.00169459
0.00169
0.00169012
0.00168507
0.00168507
0.0016805
0.00168516
0.00168045
0.00168978
0.00169447
0.00168978
0.00169442
0.00168985
0.00168527
0.00168553
0.00168071
0.00168078
0.00168533
0.00168542
0.00168064
0.00168476
0.00168946
0.00168932
0.0016938
0.00169381
0.00169402
0.00168914
0.00168914
0.00168532
0.00168121
0.00168485
0.00168009
0.00168585
0.00168473
0.00168067
0.00168536
0.00168125
0.00168492
0.00168022
0.00168482
0.00168588
0.00168073
0.00169003
0.00169409
0.00169507
0.00168954
0.0016905
0.00169462
0.00168944
0.00169005
0.00169413
0.00169509
0.00168958
0.00169463
0.0016895
0.00169055
0.00168463
0.00167984
0.00167988
0.00168443
0.00168446
0.00167999
0.00168488
0.00168956
0.00168529
0.00168538
0.00168087
0.00168541
0.00168075
0.00168532
0.00168551
0.00168092
0.00168072
0.00168549
0.0016853
0.00168073
0.00168496
0.00168498
0.00168046
0.00168507
0.00168037
0.00168518
0.00168545
0.00168065
0.00168073
0.00168524
0.00168533
0.00168058
0.00169013
0.0016948
0.00169476
0.00169034
0.00169473
0.00169025
0.00169017
0.00168527
0.00168524
0.00168068
0.00168532
0.00168066
0.00168996
0.00169458
0.00168991
0.00169456
0.00168999
0.00168549
0.0016857
0.00168098
0.00168093
0.0016856
0.00168554
0.00168088
0.00169019
0.00169477
0.00169488
0.00169037
0.00169475
0.0016902
0.00169036
0.00168553
0.00168564
0.00168117
0.00168567
0.00168103
0.0016901
0.00169469
0.00169018
0.0016946
0.0016902
0.00168558
0.00168575
0.001681
0.0016812
0.00168558
0.00168575
0.00168101
0.00168467
0.00168521
0.00168112
0.00168477
0.00168012
0.00168576
0.00168467
0.00168062
0.00168525
0.00168117
0.00168485
0.00168018
0.00168473
0.00168578
0.00168065
0.00168456
0.0016799
0.00167992
0.0016844
0.00168442
0.00168001
0.00168479
0.00168999
0.00169466
0.00169461
0.00169023
0.00169456
0.00169013
0.00169004
0.00168517
0.00168516
0.00168066
0.00168524
0.00168061
0.00168981
0.00168985
0.00168538
0.00168562
0.00168093
0.00168088
0.00168551
0.00168545
0.00168081
0.00169011
0.00169477
0.00169464
0.00169028
0.00169464
0.00169026
0.00169009
0.00168553
0.00168561
0.00168117
0.00168564
0.00168106
0.00169006
0.00169462
0.00169013
0.00169452
0.00169016
0.00168553
0.00168568
0.00168116
0.00168097
0.00168569
0.00168552
0.00168099
0.00169015
0.00169448
0.00169448
0.0016945
0.00169014
0.00169014
0.00168587
0.00168161
0.00168574
0.00168129
0.00168611
0.00168571
0.00168143
0.00168586
0.0016816
0.00168574
0.0016813
0.00168608
0.00168571
0.00168144
0.00169037
0.00169454
0.00169507
0.0016902
0.00169476
0.00169062
0.00169016
0.00169036
0.00169452
0.00169507
0.00169019
0.00169473
0.0016906
0.00169014
0.00168575
0.00168136
0.00168137
0.00168573
0.00168574
0.00168136
0.00168565
0.00169012
0.00168566
0.00169011
0.00168604
0.00168681
0.00168206
0.00168202
0.00168645
0.00168643
0.0016817
0.00168588
0.00168678
0.00168181
0.00168178
0.00168625
0.00168622
0.00168143
0.00168577
0.0016867
0.00168174
0.0016817
0.00168618
0.00168613
0.00168134
0.00168605
0.00168668
0.00168205
0.00168202
0.00168642
0.00168638
0.00168178
0.00168589
0.00168585
0.00169488
0.00169483
0.00168587
0.00169531
0.00168614
0.00168605
0.00169506
0.00169501
0.00169482
0.00168593
0.00168602
0.00168592
0.00169498
0.00169485
0.00168589
0.00169439
0.00168573
0.00168566
0.00169472
0.00169468
0.00169471
0.00168576
0.00169124
0.0016952
0.00169571
0.00169083
0.00169562
0.00169078
0.00169133
0.00168643
0.00168163
0.00168569
0.00168143
0.00168616
0.0016859
0.00168194
0.00168647
0.00168609
0.00168157
0.00168211
0.00168604
0.00168656
0.00168202
0.00169125
0.00169516
0.00169575
0.00169082
0.00169567
0.0016907
0.00169133
0.00168627
0.00168151
0.00168541
0.00168121
0.00168572
0.00168609
0.00168178
0.00169105
0.00169495
0.00169531
0.00169015
0.00169549
0.00169047
0.00169079
0.00168642
0.00168607
0.00168147
0.00168206
0.00168594
0.00168652
0.00168198
0.00169074
0.00169172
0.00169541
0.00169538
0.00169105
0.00169509
0.00169103
0.00168635
0.00168161
0.00168566
0.00168139
0.00168616
0.00168584
0.00168191
0.00168638
0.00168601
0.00168151
0.00168205
0.00168596
0.00168649
0.00168195
0.00168619
0.00168142
0.00168531
0.00168114
0.00168563
0.00168599
0.00168172
0.00168634
0.00168598
0.00168198
0.00168139
0.00168643
0.00168586
0.0016819
0.00169123
0.00169516
0.00169568
0.00169085
0.00169561
0.00169073
0.0016913
0.00168632
0.0016816
0.0016855
0.00168129
0.00168617
0.00168579
0.00168185
0.00169107
0.00169498
0.00169533
0.00169021
0.00169549
0.00169084
0.00169051
0.00168646
0.00168613
0.00168155
0.00168212
0.00168601
0.00168655
0.00168204
0.00169121
0.00169564
0.0016952
0.00169086
0.00169556
0.00169128
0.00169085
0.00168638
0.00168172
0.00168585
0.00168158
0.001686
0.0016862
0.00168197
0.00169105
0.00169502
0.00169525
0.00169044
0.00169541
0.00169061
0.0016908
0.00168647
0.00168615
0.00168212
0.00168169
0.00168655
0.00168612
0.00168206
0.00169114
0.00169558
0.00169503
0.00169074
0.00169549
0.00169121
0.00169062
0.00168623
0.0016815
0.00168541
0.00168123
0.00168605
0.0016857
0.00168177
0.00169096
0.00169039
0.00168637
0.00168604
0.00168203
0.00168148
0.00168647
0.00168591
0.00168196
0.00169114
0.00169557
0.00169511
0.00169076
0.00169549
0.00169121
0.00169072
0.00168634
0.00168161
0.00168581
0.00168153
0.00168594
0.00168615
0.00168195
0.00169101
0.00169493
0.00169519
0.00169039
0.00169536
0.00169057
0.00169075
0.0016864
0.00168607
0.00168206
0.00168162
0.00168649
0.00168603
0.001682
0.00169076
0.00169148
0.00169535
0.00169535
0.00169498
0.00169106
0.00169104
0.00078534
0.000785311
0.000785314
0.000787356
0.000751826
0.000787243
0.000756562
0.000785223
0.000785272
0.000758599
0.000758646
0.000787302
0.000756613
0.000785224
0.000785274
0.00075859
0.000758612
0.000785334
0.000758679
0.000758715
0.000787304
0.000756586
0.000785336
0.000758643
0.000758704
0.00075665
0.00074983
0.000749822
0.00077414
0.000787407
0.000774136
0.000787423
0.000787465
0.000774163
0.00077413
0.000787402
0.000774129
0.000787413
0.00078536
0.00078539
0.000785353
0.000758667
0.000758755
0.000758715
0.000758797
0.000774284
0.000787476
0.000785336
0.000776441
0.000774229
0.000776474
0.000787465
0.000787453
0.000774162
0.000774266
0.000785352
0.000787459
0.00077642
0.000776467
0.000774217
0.000787459
0.000787571
0.000787568
0.000774417
0.000774254
0.000774251
0.000751983
0.000751985
0.0007874
0.000774137
0.000787398
0.000774133
0.000787393
0.000787391
0.0007743
0.000774123
0.00077412
0.000756438
0.000769684
0.000756438
0.000769681
0.00076948
0.000756422
0.000756421
0.000769678
0.000769675
0.000774144
0.000787454
0.000774151
0.000787431
0.000774196
0.000787365
0.000785267
0.000776343
0.000774153
0.000776387
0.000787377
0.000774204
0.000787423
0.000785286
0.000776403
0.000774179
0.000776411
0.000787386
0.000769674
0.000756427
0.000769684
0.000756414
0.000769679
0.000756413
0.00076969
0.000756413
0.000769622
0.000767468
0.000756441
0.000758632
0.000769639
0.000767508
0.000756458
0.000769628
0.000767526
0.000756432
0.000758655
0.000769654
0.000767533
0.000756461
0.000787469
0.000787495
0.000774374
0.000774155
0.000774179
0.000787504
0.000774195
0.000756417
0.000769698
0.000769552
0.000756404
0.000756414
0.000769696
0.000769717
0.000756427
0.000769724
0.000774183
0.000787363
0.000785278
0.000776338
0.000774146
0.000776385
0.000787369
0.000774135
0.000787442
0.000774148
0.000787421
0.000774189
0.000785297
0.000787408
0.00077638
0.000776401
0.00077417
0.000787378
0.000769667
0.000756425
0.000769676
0.000756414
0.000769609
0.00076746
0.000756437
0.000758614
0.000769631
0.000767496
0.000756452
0.000769671
0.000756425
0.00076969
0.000756415
0.000769614
0.000767492
0.000758624
0.000756439
0.000767509
0.000769648
0.000756453
0.000774229
0.000787518
0.000774208
0.000787527
0.00077429
0.000785339
0.00078752
0.000776466
0.000776478
0.000774278
0.000787471
0.000774237
0.000787566
0.000774257
0.000787536
0.000769704
0.000767563
0.000756461
0.000758727
0.000769701
0.000767605
0.00075651
0.000769754
0.000756439
0.000769742
0.000756451
0.00076971
0.000767594
0.000758738
0.00075649
0.000767612
0.000769746
0.000756516
0.000769761
0.000756462
0.000769785
0.000756456
0.000787454
0.000787478
0.000774347
0.000774153
0.000774173
0.000787487
0.00077419
0.000756438
0.000769701
0.000769523
0.000756424
0.000756433
0.000769698
0.000769716
0.000756449
0.000769725
0.000774273
0.000785354
0.000787516
0.000776462
0.000776477
0.000774268
0.000787466
0.000774215
0.000787502
0.0007742
0.000787513
0.000774223
0.000787558
0.000774248
0.000787522
0.000769686
0.000767529
0.000758694
0.000756466
0.00076758
0.000769693
0.000756501
0.000769694
0.000767585
0.000758718
0.000756486
0.000767599
0.000769737
0.000756508
0.000769742
0.000756451
0.000769737
0.000756453
0.00076975
0.000756462
0.000769777
0.000756456
0.000787577
0.000774266
0.000787572
0.000774261
0.000769593
0.000756453
0.000756454
0.000769786
0.000769783
0.000756462
0.00076979
0.000756464
0.000769786
0.000749857
0.000751956
0.000751934
0.000751989
0.00075198
0.000751954
0.000751991
0.000751984
0.000751988
0.000778552
0.000774137
0.000774136
0.000778545
0.000778556
0.000778541
0.000774137
0.000783008
0.000782997
0.000787407
0.000782994
0.000787411
0.000778544
0.00077413
0.000778542
0.00077854
0.000774145
0.000783005
0.000783014
0.000787432
0.000787415
0.000783009
0.000783007
0.000787425
0.000783046
0.000778577
0.000778546
0.000774128
0.000774131
0.000778535
0.000778532
0.000778548
0.000774131
0.000783003
0.000782991
0.000787402
0.000782988
0.000787406
0.000778538
0.000774124
0.000778536
0.000778534
0.000774139
0.000782999
0.000783003
0.000787408
0.000787423
0.000782998
0.000783001
0.000787419
0.000783038
0.000778573
0.000778692
0.000774271
0.000774269
0.000778695
0.000778693
0.000774259
0.000783157
0.000787548
0.000783147
0.000787577
0.000783142
0.000783157
0.000787557
0.000783154
0.000787545
0.000783143
0.000787574
0.000783138
0.000783152
0.000787556
0.000778671
0.000774264
0.000778683
0.000774254
0.000778663
0.000778688
0.000774267
0.000778668
0.000774259
0.000778679
0.000774249
0.000778658
0.000778683
0.000774263
0.000783152
0.000787586
0.000787584
0.000783166
0.000783164
0.000787582
0.000747575
0.000751989
0.000751985
0.000747552
0.000751983
0.000747578
0.000747556
0.000747576
0.000751989
0.000751985
0.000747555
0.000751983
0.000747579
0.000747559
0.000747551
0.000751983
0.000751984
0.000751988
0.000747556
0.000747558
0.000782995
0.000778539
0.000782991
0.000778536
0.000778531
0.000774134
0.000774133
0.000778536
0.000778535
0.000774119
0.000782991
0.000787394
0.00078298
0.000787394
0.000782987
0.000782992
0.000787383
0.000782989
0.000787392
0.000782978
0.000787392
0.000782984
0.00078299
0.000787381
0.000778518
0.000774131
0.000778532
0.000774125
0.000778535
0.00077413
0.000778522
0.000778515
0.000774127
0.00077853
0.000774122
0.000778531
0.000774127
0.000778519
0.000782974
0.000787393
0.000787392
0.000782988
0.000782987
0.00078739
0.000760835
0.000765285
0.000760834
0.000765283
0.000765269
0.000769685
0.000769684
0.000769678
0.000765288
0.000765287
0.000760805
0.000756408
0.000760827
0.000756434
0.000760834
0.0007608
0.000756422
0.000760803
0.000756406
0.000760826
0.000756432
0.00076083
0.000760798
0.000756421
0.000765274
0.000769682
0.000769659
0.000765271
0.00076966
0.00076528
0.000765265
0.000765271
0.000769677
0.000769656
0.000765269
0.000769657
0.000765276
0.000765262
0.000760831
0.000756445
0.000756445
0.000760842
0.000760841
0.000756425
0.000778563
0.000774141
0.000774145
0.000778551
0.000778561
0.000778554
0.000774143
0.000783041
0.000783033
0.000787452
0.000783029
0.000787451
0.000778566
0.000774148
0.000778567
0.000778566
0.00077416
0.000783019
0.000783021
0.00078744
0.000787437
0.000783015
0.000783024
0.000787443
0.000765277
0.000769688
0.000769674
0.000765274
0.000769689
0.000765275
0.000765274
0.000760828
0.000760829
0.000756419
0.000756434
0.000760825
0.000765287
0.000769679
0.00076528
0.000769683
0.000765273
0.000760831
0.000760813
0.000756417
0.000756418
0.000756421
0.00076083
0.000760816
0.000765275
0.000769691
0.000769678
0.000765276
0.000769691
0.000765276
0.000765274
0.000760826
0.000760821
0.000756409
0.000760822
0.000756426
0.00076529
0.00076969
0.000765279
0.000769692
0.000765276
0.000760826
0.000760813
0.000756415
0.00075641
0.000760828
0.000760812
0.000756413
0.000778594
0.00077417
0.000774179
0.000778588
0.000778598
0.000774166
0.000783066
0.00078747
0.000783042
0.000787468
0.000783045
0.000783063
0.000787471
0.000783079
0.000787489
0.000783068
0.000787499
0.000783082
0.000783075
0.000787484
0.000778581
0.000774159
0.000778579
0.000774178
0.000778578
0.000778585
0.000774179
0.000778591
0.000774186
0.000778603
0.000774196
0.000778603
0.000778608
0.00077419
0.000783054
0.000787481
0.000787489
0.000783059
0.000783069
0.000787486
0.000783084
0.000778613
0.000760826
0.000765287
0.000765284
0.000769705
0.000769712
0.000769709
0.00076529
0.000765296
0.000760819
0.00075642
0.000760821
0.000756409
0.000760822
0.000760821
0.000756423
0.000760822
0.000756431
0.000760834
0.000756421
0.000760838
0.000760834
0.000756427
0.000765299
0.000769696
0.000769701
0.000765277
0.000765297
0.000769697
0.000765281
0.000765307
0.00076972
0.000769717
0.000765294
0.000769706
0.000765301
0.000765312
0.000760831
0.000756414
0.000756418
0.000760828
0.000760832
0.000756406
0.000760841
0.000765309
0.000778555
0.000774135
0.000774136
0.000778541
0.000778554
0.000778543
0.000774137
0.00078303
0.000783024
0.00078744
0.00078302
0.000787439
0.00077856
0.000774144
0.000778561
0.000778559
0.000774157
0.000783011
0.00078301
0.000787431
0.000787425
0.000783007
0.000783013
0.000787433
0.000765272
0.000769667
0.000769684
0.000765268
0.000769683
0.000765268
0.000765272
0.000760826
0.000760824
0.000756418
0.000756434
0.000760822
0.000765283
0.000769675
0.000765273
0.000769679
0.000765269
0.000760827
0.00076081
0.000756415
0.000756419
0.000756419
0.000760811
0.000760828
0.000765274
0.000769687
0.00076967
0.00076527
0.000769687
0.000765274
0.00076527
0.000760832
0.000760829
0.000756421
0.000760828
0.000756437
0.000765293
0.000769689
0.000765282
0.000769692
0.000765278
0.000760828
0.000760811
0.00075642
0.000756415
0.00076083
0.000760812
0.000756419
0.000778649
0.000774222
0.000774227
0.000778642
0.000778636
0.000778655
0.000774223
0.000783108
0.000783097
0.000787514
0.000783089
0.000787521
0.000778631
0.0007742
0.000778628
0.000778624
0.000774218
0.000783112
0.000783116
0.000787523
0.000787542
0.000783109
0.000783115
0.000787538
0.000778669
0.000774236
0.000774242
0.00077865
0.000778664
0.000778657
0.000774242
0.000783154
0.000783148
0.000787561
0.000783139
0.000787564
0.000778676
0.000774248
0.00077868
0.000778673
0.000774263
0.00078313
0.000783124
0.000787551
0.000787543
0.000783125
0.00078313
0.000787555
0.000765336
0.000769749
0.000769766
0.00076534
0.000769761
0.000765334
0.000765337
0.000760856
0.000760856
0.000756429
0.000760851
0.000756445
0.000765331
0.000769736
0.000765322
0.000769743
0.000765314
0.000760873
0.000760865
0.000756447
0.000756449
0.000760861
0.000760877
0.000756447
0.00076535
0.000769774
0.000769767
0.000765347
0.000769779
0.000765346
0.000765351
0.000760885
0.000760888
0.000756454
0.000760882
0.000756468
0.000765366
0.000769779
0.000765361
0.000769782
0.000765352
0.000760886
0.000760871
0.000756453
0.000756458
0.000760883
0.000760876
0.000756457
0.000778585
0.000774171
0.000774179
0.000778584
0.000778592
0.000774162
0.00078305
0.000787454
0.000783031
0.000787455
0.000783036
0.000783045
0.000787451
0.000783062
0.000787471
0.000783054
0.000787483
0.000783063
0.000783063
0.000787464
0.000778566
0.000774159
0.000778571
0.00077416
0.000778573
0.000778565
0.000774168
0.000778577
0.000774182
0.000778594
0.000774178
0.000778583
0.000778599
0.000774178
0.000783041
0.000787466
0.000787474
0.000783049
0.000783057
0.000787468
0.000783071
0.000778604
0.000760839
0.000765295
0.000765291
0.000769711
0.000769718
0.000769711
0.000765302
0.000765308
0.000760821
0.000756418
0.000760834
0.000756431
0.000760815
0.000760837
0.000756432
0.000760826
0.000756428
0.000760847
0.000756444
0.000760853
0.000760826
0.000756436
0.000765296
0.000769701
0.000769685
0.000765284
0.000765285
0.000769689
0.000765291
0.000765303
0.000769722
0.000769701
0.000765299
0.000769696
0.00076531
0.000765299
0.000760844
0.000756442
0.000756446
0.000760846
0.000760852
0.000756428
0.000760855
0.000765316
0.000778637
0.000774209
0.000774216
0.000778626
0.000778621
0.000778642
0.000774213
0.000783094
0.000783083
0.000787497
0.000783075
0.000787505
0.000778619
0.000774191
0.000778617
0.000778612
0.00077421
0.000783097
0.000783101
0.000787506
0.000787528
0.000783093
0.000783101
0.000787522
0.000778657
0.000774229
0.000774225
0.000778635
0.000778643
0.000778651
0.000774231
0.000783141
0.000783138
0.000787551
0.000783128
0.000787554
0.000778666
0.00077424
0.000778669
0.000778663
0.000774254
0.000783118
0.000783109
0.000787531
0.000787537
0.000783117
0.000783111
0.000787544
0.000765332
0.000769739
0.000769759
0.000765333
0.000769754
0.000765329
0.000765334
0.000760862
0.000760862
0.000756441
0.000760856
0.000756458
0.000765331
0.000769731
0.000765323
0.000769738
0.000765313
0.000760875
0.000760861
0.000756452
0.000756454
0.00076086
0.000760877
0.000756454
0.000765344
0.000769754
0.000769766
0.000765339
0.00076977
0.000765342
0.000765341
0.000760885
0.000760884
0.000756456
0.000760881
0.000756471
0.000765363
0.000769774
0.000765355
0.000769777
0.000765348
0.000760884
0.000760867
0.000756457
0.000756457
0.000760869
0.000760882
0.000756459
0.000783159
0.000778688
0.000783154
0.000778682
0.000765359
0.000769795
0.000769794
0.000769795
0.000765367
0.000765366
0.000760881
0.000756471
0.000760885
0.00075646
0.000756474
0.000760881
0.000760888
0.000760879
0.000756469
0.000760884
0.000756458
0.000756473
0.000760879
0.000760885
0.000765372
0.000769791
0.000769773
0.000765355
0.000769777
0.000765363
0.000765363
0.000765369
0.000769786
0.000769768
0.000765353
0.000769774
0.000765359
0.000765359
0.000760892
0.000756461
0.000756461
0.000756455
0.000760889
0.000760889
0.000760887
0.000765365
0.000760887
0.000765363
0.00074757
0.000751984
0.000747564
0.000751987
0.000747557
0.000747563
0.000747566
0.000751991
0.000751982
0.000751992
0.000747561
0.000747565
0.00074757
0.00074756
0.000747566
0.000785377
0.000785393
0.000776448
0.000776496
0.000776506
0.000776548
0.000785417
0.000783229
0.000787473
0.000787478
0.000783298
0.000783225
0.00078323
0.000787457
0.000747669
0.00075193
0.000751926
0.000747767
0.000751902
0.000747678
0.000747675
0.000783075
0.000787326
0.000787331
0.00078318
0.000783079
0.000783084
0.000787299
0.000760706
0.000760611
0.000756489
0.000756487
0.000760724
0.000760723
0.00075649
0.000783159
0.000787408
0.000787413
0.000783249
0.000783167
0.000783163
0.000787389
0.000760738
0.000760671
0.000756511
0.000756528
0.000760757
0.000760776
0.000756513
0.000783142
0.000787397
0.000787401
0.000783238
0.000783147
0.000783145
0.000787374
0.00076073
0.000760642
0.000756496
0.000756513
0.000760738
0.000760758
0.000756509
0.000760794
0.000760708
0.000756566
0.000756564
0.000756561
0.000760817
0.000760814
0.000785374
0.000785358
0.0007765
0.000776508
0.000776511
0.000776528
0.000785387
0.000785401
0.000785385
0.000776501
0.000776518
0.000776523
0.00077653
0.000785393
0.000785351
0.000785369
0.000776505
0.000776506
0.000776517
0.000776507
0.000785363
0.000767557
0.000758726
0.000758719
0.000767613
0.000767614
0.000767674
0.000758794
0.000767631
0.000758758
0.000758796
0.000767635
0.000767657
0.000767667
0.000758802
0.000767608
0.000758735
0.000758772
0.000767628
0.000767651
0.000767664
0.000758792
0.000767656
0.000758802
0.000758793
0.000767657
0.000767658
0.000767651
0.000758794
0.000778555
0.000774276
0.000774324
0.000778588
0.000778585
0.000778563
0.000774332
0.000783168
0.000787493
0.000783117
0.000787466
0.000783125
0.00078314
0.000787428
0.00077855
0.000774254
0.000778587
0.000774241
0.000778611
0.000778582
0.000774288
0.000783207
0.000783165
0.000787464
0.000787437
0.000783158
0.000783201
0.000787428
0.000778535
0.000774303
0.000774258
0.000778571
0.000778546
0.000778567
0.000774307
0.000783153
0.000787477
0.000783101
0.000787452
0.000783105
0.000783123
0.00078742
0.000778529
0.000774238
0.000778574
0.000774217
0.000778587
0.000778564
0.000774264
0.000783194
0.000783153
0.000787435
0.000787455
0.00078319
0.000783144
0.000787423
0.000778572
0.000778477
0.00077434
0.000774342
0.000778591
0.000778593
0.000774341
0.000778427
0.000778359
0.000774208
0.00077421
0.000774208
0.000778451
0.000778454
0.000765347
0.000765427
0.000769583
0.000769583
0.000769565
0.000765345
0.000765345
0.000778468
0.000774187
0.000774245
0.000778497
0.000778492
0.000778482
0.000774245
0.000783084
0.000787391
0.000783017
0.000787364
0.000783042
0.000783026
0.000787346
0.000778468
0.000774172
0.000778498
0.000774154
0.000778491
0.000778516
0.000774209
0.000783121
0.000783074
0.000787369
0.000787359
0.000783062
0.000783122
0.000787345
0.000778491
0.000774205
0.000774257
0.000778505
0.000778512
0.000778494
0.000774267
0.000783131
0.000787446
0.000783063
0.000787411
0.000783084
0.000783079
0.000787392
0.000778515
0.000774201
0.000778535
0.000774199
0.000778526
0.000774253
0.000778566
0.000783144
0.000783083
0.000787394
0.000787371
0.000783086
0.000783133
0.000787368
0.000765374
0.00076962
0.000769607
0.000765324
0.000769594
0.000765319
0.000765371
0.00076073
0.000756432
0.000760783
0.00075645
0.000760788
0.000760764
0.000756476
0.00076534
0.000769624
0.000769648
0.000765296
0.00076529
0.000769596
0.000765308
0.000760725
0.000760753
0.000756457
0.000756501
0.000760755
0.000760735
0.000756507
0.00076539
0.000769633
0.000769618
0.00076533
0.000769613
0.000765328
0.000765381
0.000760757
0.000756448
0.00076078
0.000756452
0.000760772
0.000760811
0.000756496
0.000765374
0.000769646
0.000769687
0.000765302
0.000769635
0.000765324
0.000765321
0.000760738
0.000760757
0.000756458
0.000756509
0.00076076
0.000760744
0.000756517
0.000778503
0.00077843
0.000774279
0.000774288
0.000778537
0.000778526
0.000774274
0.000765391
0.000765494
0.000769641
0.000769657
0.000765393
0.000769619
0.000765407
0.000778456
0.000774176
0.000774227
0.000778485
0.000778482
0.000778468
0.000774231
0.000783076
0.000787385
0.000783012
0.000787359
0.000783035
0.000783019
0.00078734
0.000778459
0.000774164
0.000778492
0.000774144
0.000778483
0.000778507
0.000774199
0.000783113
0.000783063
0.000787363
0.000787355
0.000783054
0.000783111
0.000787342
0.000778471
0.000774237
0.000774188
0.000778491
0.000778478
0.000778496
0.000774245
0.000783116
0.000787434
0.000783051
0.000787397
0.000783069
0.000783062
0.000787384
0.000778495
0.000774186
0.000778523
0.000774177
0.000778511
0.00077423
0.000778545
0.000783131
0.000783071
0.000787367
0.000787384
0.000783122
0.000783072
0.000787361
0.000765359
0.000769609
0.000769589
0.000765312
0.000769579
0.000765309
0.000765354
0.000760722
0.000756427
0.000760777
0.000756448
0.000760782
0.000760759
0.000756472
0.000765331
0.000769617
0.000769638
0.000765289
0.000765282
0.000769587
0.000765302
0.000760711
0.000760744
0.000756452
0.000756488
0.000760747
0.000760719
0.000756496
0.000765368
0.000769597
0.000769617
0.000765316
0.000769589
0.00076536
0.000765314
0.000760739
0.000756436
0.000760782
0.000756451
0.000760766
0.000760794
0.000756483
0.000765351
0.000769633
0.000769664
0.0007653
0.000769612
0.000765314
0.000765301
0.000760717
0.000760746
0.000756492
0.000756453
0.000760724
0.00076075
0.0007565
0.000778567
0.000774332
0.000774291
0.000778593
0.000778571
0.000778599
0.000774343
0.000783201
0.000787529
0.000783165
0.000787498
0.000783163
0.000783173
0.000787464
0.000778585
0.000774288
0.000778636
0.00077428
0.000778651
0.000778616
0.00077432
0.00078322
0.00078317
0.000787445
0.000787478
0.000783208
0.000783172
0.000787442
0.00076545
0.0007697
0.000769684
0.000765398
0.000769676
0.00076539
0.000765443
0.000760783
0.000756472
0.000760817
0.000756482
0.00075652
0.000760841
0.000760809
0.000765404
0.000769695
0.000769726
0.000765344
0.000769668
0.000765357
0.000765367
0.000760792
0.000760816
0.000756504
0.000756559
0.000756566
0.000760814
0.0007608
0.000765462
0.000769693
0.000769716
0.000765404
0.000769688
0.000765451
0.000765405
0.000760813
0.000756505
0.000760852
0.000756507
0.000760838
0.000760877
0.000756547
0.000765434
0.000769729
0.000769765
0.000765385
0.0007697
0.000765399
0.000765393
0.000760805
0.000760823
0.000756567
0.000756517
0.000760809
0.000760828
0.000756578
0.000778485
0.00077841
0.000774253
0.000774262
0.000778513
0.000778502
0.000774256
0.000765378
0.000765463
0.000769616
0.000769632
0.000765371
0.000769603
0.000765384
0.000778555
0.000774313
0.000774278
0.000778579
0.000778556
0.000778588
0.000774326
0.000783195
0.000787525
0.000783158
0.000787492
0.000783155
0.000783165
0.000787459
0.000778576
0.000774278
0.000778628
0.000774267
0.000778639
0.000778605
0.00077431
0.000783212
0.00078316
0.000787443
0.000787475
0.000783198
0.000783164
0.000787441
0.000765425
0.00076966
0.000769683
0.000765382
0.00076965
0.00076542
0.000765376
0.000760764
0.000756459
0.000760816
0.000756479
0.000756505
0.000760823
0.000760802
0.000765382
0.000769681
0.000769701
0.000765339
0.000769644
0.000765335
0.000765356
0.00076077
0.000760804
0.00075654
0.000756496
0.000756547
0.000760779
0.000760803
0.000765443
0.000769673
0.000769702
0.00076539
0.000769671
0.000765432
0.000765392
0.000760806
0.000756498
0.000760845
0.000756503
0.000760831
0.000760867
0.000756542
0.000765425
0.000769719
0.000769752
0.000765377
0.00076969
0.00076539
0.000765381
0.000760789
0.000760811
0.000756553
0.000756509
0.000760792
0.000760817
0.000756563
0.000765451
0.000765533
0.000769705
0.000769703
0.000769683
0.000765453
0.000765453
0.000747658
0.000751988
0.000751946
0.000747593
0.000747615
0.000751925
0.000747615
0.000747691
0.000747628
0.000751923
0.000751939
0.000747681
0.000751919
0.000747627
0.000751983
0.000747595
0.000747615
0.00167628
0.00167553
0.00167538
0.00167743
0.00163669
0.00163574
0.00163571
0.00163871
0.0015986
0.0016
0.00160033
0.00160202
0.00156515
0.00156597
0.00156595
0.001568
0.00153169
0.00152986
0.00152944
0.00153168
0.00149378
0.00149375
0.0014941
0.00149565
0.00145875
0.00146001
0.00145941
0.00146201
0.00142466
0.00142384
0.00142433
0.00142641
0.00139022
0.00138908
0.00138974
0.001391
0.00135441
0.00135406
0.00135302
0.00135532
0.00131564
0.00131515
0.00131674
0.00131801
0.00127886
0.00128088
0.00128049
0.00128323
0.00124621
0.00124685
0.00124492
0.0012477
0.00121292
0.00121051
0.00121134
0.00121259
0.00117566
0.00117446
0.00117549
0.00117696
0.00113821
0.00113892
0.00113936
0.00114152
0.00110264
0.001104
0.00110355
0.00110602
0.00106859
0.00106859
0.00106752
0.0010697
0.00103398
0.00103272
0.00103286
0.00103462
0.000997967
0.000997697
0.000998117
0.00100001
0.000962487
0.000962571
0.000962842
0.000964866
0.000927096
0.000927234
0.000927197
0.000929246
0.000891745
0.000891694
0.00089146
0.00089351
0.000856422
0.000856221
0.000856169
0.000858144
0.000820905
0.00082075
0.00082083
0.000822802
0.00167751
0.00164369
0.0016756
0.00167553
0.00164618
0.00164554
0.00167744
0.0016433
0.00167559
0.0016754
0.00164617
0.00164559
0.00167549
0.00164577
0.00164647
0.00167736
0.00164323
0.00167544
0.00164566
0.00164643
0.00164403
0.0016383
0.00160684
0.0016362
0.00163559
0.00160842
0.00160846
0.0016379
0.001607
0.00163619
0.0016356
0.00160845
0.00160878
0.00163661
0.00160846
0.0016084
0.00163788
0.00160728
0.00163662
0.00160882
0.00160848
0.00160673
0.00160215
0.00157251
0.00159967
0.00159997
0.00157423
0.00157456
0.00160231
0.00157271
0.00159972
0.00160043
0.00157429