/*--------------------------------*- C++ -*----------------------------------*\
| =========                 |                                                 |
| \\      /  F ield         | OpenFOAM: The Open Source CFD Toolbox           |
|  \\    /   O peration     | Version:  v1906                                 |
|   \\  /    A nd           | Web:      www.OpenFOAM.com                      |
|    \\/     M anipulation  |                                                 |
\*---------------------------------------------------------------------------*/
FoamFile
{
    version     2.0;
    format      ascii;
    class       volScalarField;
    location    "625";
    object      p;
}
// * * * * * * * * * * * * * * * * * * * * * * * * * * * * * * * * * * * * * //

dimensions      [0 2 -2 0 0 0 0];


internalField   nonuniform List<scalar> 
171728
(
0.00360461
0.00360494
0.00360494
0.00360799
0.00354925
0.00354967
0.00354967
0.00355266
0.0034985
0.00349847
0.00349847
0.00350122
0.00344611
0.00344613
0.00344613
0.0034489
0.00339476
0.00339477
0.00339477
0.00339752
0.00334478
0.0033448
0.00334479
0.00334752
0.00329626
0.00329627
0.00329627
0.00329896
0.00324903
0.00324905
0.00324905
0.0032517
0.0032029
0.00320292
0.00320292
0.00320555
0.00315767
0.00315769
0.00315769
0.00316029
0.00311316
0.00311318
0.00311318
0.00311575
0.00306925
0.00306927
0.00306927
0.00307182
0.00302586
0.00302588
0.00302588
0.00302839
0.00298293
0.00298295
0.00298295
0.00298545
0.00294043
0.00294044
0.00294044
0.00294294
0.00289834
0.00289835
0.00289835
0.00290084
0.00285664
0.00285663
0.00285663
0.00285911
0.00281529
0.00281528
0.00281528
0.00281775
0.00277427
0.00277426
0.00277426
0.00277672
0.00273357
0.00273355
0.00273355
0.00273601
0.00269316
0.00269313
0.00269313
0.00269558
0.00265302
0.00265298
0.00265298
0.00265543
0.00261313
0.00261308
0.00261309
0.00261553
0.00257348
0.00257343
0.00257343
0.00257586
0.00253406
0.002534
0.002534
0.00253642
0.00249485
0.00249479
0.00249479
0.0024972
0.00245585
0.00245579
0.00245579
0.00245818
0.00241704
0.002417
0.002417
0.00241936
0.00237844
0.0023784
0.0023784
0.00238074
0.00234002
0.00233998
0.00233998
0.00234231
0.00230178
0.00230175
0.00230175
0.00230405
0.00226373
0.00226369
0.00226369
0.00226597
0.00222583
0.0022258
0.0022258
0.00222807
0.0021881
0.00218808
0.00218808
0.00219032
0.00215051
0.0021505
0.0021505
0.00215272
0.00211308
0.00211307
0.00211307
0.00211528
0.0020758
0.00207579
0.00207579
0.00207798
0.00203869
0.00203868
0.00203868
0.00204084
0.00200175
0.0020017
0.0020017
0.00200387
0.00196482
0.00196481
0.00196479
0.00196694
0.00192805
0.00192804
0.00192805
0.00193017
0.00189151
0.00189142
0.00189144
0.00189356
0.00185492
0.00185482
0.00185481
0.00185693
0.00181816
0.00181824
0.00181817
0.00182032
0.00178138
0.00178158
0.00178161
0.00178378
0.0017464
0.00174629
0.00174654
0.00174861
0.00171339
0.00171314
0.00171258
0.00171418
0.00167626
0.00167516
0.00167489
0.00167718
0.00163525
0.00163465
0.00163573
0.00163846
0.00159867
0.00160053
0.00160024
0.00160228
0.00156524
0.00156579
0.00156502
0.00156706
0.0015311
0.00152887
0.00152961
0.00153102
0.00149408
0.00149456
0.00149474
0.00149729
0.00145874
0.00146052
0.00145794
0.00146096
0.00142365
0.00142184
0.00142418
0.00142458
0.00138973
0.00138906
0.00139005
0.00139213
0.00135513
0.0013548
0.00135305
0.00135551
0.00131628
0.0013156
0.00131705
0.00131825
0.00127888
0.00128125
0.00128014
0.0012835
0.00124576
0.00124638
0.00124491
0.00124748
0.00121232
0.00121005
0.00121129
0.00121222
0.00117599
0.00117454
0.00117608
0.00117714
0.00113867
0.0011395
0.00113943
0.00114175
0.00110245
0.0011039
0.00110281
0.0011056
0.00106786
0.00106785
0.00106725
0.00106949
0.00103307
0.00103219
0.00103256
0.00103442
0.000997811
0.000997476
0.000997934
0.000999609
0.00096278
0.000962668
0.000962805
0.0009646
0.000927349
0.000927371
0.000927236
0.00092935
0.000891774
0.000891822
0.000891658
0.000893808
0.000856328
0.000856219
0.000856172
0.000858177
0.000820846
0.000820654
0.000820747
0.000822692
0.00078527
0.000785241
0.00078523
0.000787268
0.000749761
0.000749769
0.000749741
0.000751803
0.000714377
0.000714244
0.000714302
0.00071626
0.000678893
0.000678745
0.000678746
0.000680733
0.000643233
0.000643244
0.00064319
0.000645256
0.000607623
0.000607589
0.000607602
0.000609634
0.000572036
0.000571909
0.000571939
0.000573922
0.000536364
0.00053632
0.000536312
0.000538328
0.000500765
0.000500726
0.00050075
0.000502804
0.000465013
0.000464945
0.000464892
0.000466949
0.000429147
0.000429117
0.00042907
0.000431113
0.000393441
0.000393416
0.000393492
0.000395483
0.000357715
0.000357628
0.000357698
0.000359687
0.00032181
0.00032173
0.000321657
0.000323745
0.000285729
0.000285711
0.000285645
0.000287712
0.000249819
0.000249909
0.000249899
0.000252032
0.000214047
0.000213894
0.000213957
0.00021587
0.000177796
0.000177755
0.00017785
0.000179848
0.000142036
0.000141756
0.000141718
0.000143746
0.00010563
0.000106254
0.000105759
0.000108205
6.96887e-05
6.925e-05
7.0125e-05
7.1736e-05
3.43966e-05
3.35838e-05
3.2364e-05
3.41173e-05
4.6943e-06
6.47863e-06
6.1479e-06
5.14695e-06
0.00361802
0.00361824
0.00361824
0.00361802
0.00361824
0.00361824
0.00361901
0.003619
0.00361901
0.00361901
0.00361824
0.00361824
0.00361802
0.00361824
0.00361824
0.00361802
0.00360799
0.00355923
0.00360493
0.00360494
0.00356151
0.00356151
0.00360799
0.00355923
0.00360494
0.00360494
0.00356151
0.00356151
0.00360494
0.00356151
0.00356151
0.00360799
0.00355923
0.00360494
0.00356151
0.00356151
0.00355923
0.00355266
0.00350815
0.00354967
0.00354967
0.0035116
0.0035116
0.00355266
0.00350815
0.00354967
0.00354967
0.0035116
0.0035116
0.00354967
0.0035116
0.0035116
0.00355266
0.00350815
0.00354967
0.00351159
0.0035116
0.00350815
0.00350123
0.00345578
0.00349847
0.00349847
0.00345914
0.00345914
0.00350123
0.00345578
0.00349847
0.00349847
0.00345914
0.00345914
0.00349847
0.00345914
0.00345914
0.00350122
0.00345578
0.00349847
0.00345914
0.00345914
0.00345578
0.0034489
0.00340423
0.00344613
0.00344613
0.00340749
0.00340749
0.0034489
0.00340423
0.00344613
0.00344613
0.00340749
0.00340749
0.00344613
0.00340749
0.00340749
0.0034489
0.00340423
0.00344613
0.00340749
0.00340749
0.00340423
0.00339752
0.00335402
0.00339477
0.00339477
0.00335715
0.00335715
0.00339752
0.00335401
0.00339477
0.00339477
0.00335715
0.00335715
0.00339477
0.00335715
0.00335715
0.00339752
0.00335401
0.00339477
0.00335715
0.00335715
0.00335401
0.00334752
0.00330526
0.0033448
0.0033448
0.00330828
0.00330828
0.00334751
0.00330526
0.0033448
0.00334479
0.00330827
0.00330828
0.0033448
0.00330828
0.00330827
0.00334751
0.00330526
0.0033448
0.00330828
0.00330827
0.00330526
0.00329896
0.00325784
0.00329628
0.00329627
0.00326074
0.00326075
0.00329895
0.00325783
0.00329627
0.00329627
0.00326075
0.00326075
0.00329628
0.00326075
0.00326074
0.00329895
0.00325783
0.00329628
0.00326075
0.00326074
0.00325783
0.0032517
0.00321154
0.00324905
0.00324904
0.00321436
0.00321437
0.0032517
0.00321153
0.00324905
0.00324904
0.00321436
0.00321436
0.00324906
0.00321437
0.00321436
0.0032517
0.00321153
0.00324906
0.00321437
0.00321436
0.00321153
0.00320554
0.00316616
0.00320292
0.00320292
0.00316892
0.00316893
0.00320554
0.00316616
0.00320292
0.00320292
0.00316892
0.00316893
0.00320292
0.00316893
0.00316892
0.00320554
0.00316615
0.00320292
0.00316893
0.00316892
0.00316616
0.00316028
0.00312153
0.00315769
0.00315769
0.00312424
0.00312426
0.00316028
0.00312153
0.00315769
0.00315769
0.00312425
0.00312425
0.00315769
0.00312426
0.00312425
0.00316028
0.00312153
0.00315769
0.00312426
0.00312425
0.00312153
0.00311575
0.00307752
0.00311319
0.00311318
0.00308019
0.0030802
0.00311574
0.00307751
0.00311319
0.00311318
0.0030802
0.0030802
0.00311319
0.0030802
0.0030802
0.00311574
0.00307751
0.00311319
0.0030802
0.0030802
0.00307751
0.00307182
0.00303402
0.00306928
0.00306927
0.00303668
0.00303668
0.00307181
0.00303402
0.00306928
0.00306927
0.00303668
0.00303668
0.00306927
0.00303668
0.00303668
0.00307181
0.00303403
0.00306927
0.00303668
0.00303668
0.00303402
0.00302839
0.00299101
0.00302588
0.00302588
0.00299364
0.00299363
0.00302839
0.00299102
0.00302588
0.00302588
0.00299364
0.00299363
0.00302587
0.00299363
0.00299364
0.00302839
0.00299101
0.00302587
0.00299363
0.00299364
0.00299101
0.00298545
0.00294846
0.00298294
0.00298295
0.00295103
0.00295103
0.00298545
0.00294846
0.00298294
0.00298295
0.00295103
0.00295103
0.00298295
0.00295103
0.00295103
0.00298545
0.00294846
0.00298295
0.00295104
0.00295103
0.00294846
0.00294295
0.0029063
0.00294045
0.00294044
0.00290883
0.00290883
0.00294294
0.0029063
0.00294045
0.00294044
0.00290883
0.00290883
0.00294044
0.00290883
0.00290883
0.00294294
0.0029063
0.00294044
0.00290883
0.00290883
0.0029063
0.00290083
0.00286453
0.00289834
0.00289834
0.00286703
0.00286703
0.00290084
0.00286453
0.00289834
0.00289835
0.00286703
0.00286702
0.00289835
0.00286703
0.00286703
0.00290084
0.00286453
0.00289835
0.00286703
0.00286703
0.00286453
0.00285911
0.00282312
0.00285663
0.00285663
0.00282559
0.00282559
0.00285911
0.00282312
0.00285663
0.00285663
0.00282558
0.00282558
0.00285663
0.00282559
0.00282559
0.00285911
0.00282312
0.00285663
0.00282558
0.00282559
0.00282312
0.00281775
0.00278205
0.00281528
0.00281528
0.00278448
0.00278448
0.00281775
0.00278205
0.00281528
0.00281528
0.00278448
0.00278448
0.00281528
0.00278448
0.00278448
0.00281775
0.00278205
0.00281528
0.00278448
0.00278448
0.00278205
0.00277672
0.0027413
0.00277426
0.00277426
0.0027437
0.0027437
0.00277672
0.0027413
0.00277426
0.00277426
0.0027437
0.0027437
0.00277426
0.0027437
0.0027437
0.00277672
0.0027413
0.00277426
0.0027437
0.0027437
0.0027413
0.00273601
0.00270084
0.00273355
0.00273355
0.00270321
0.00270321
0.002736
0.00270084
0.00273355
0.00273355
0.00270321
0.00270321
0.00273355
0.00270321
0.00270321
0.00273601
0.00270084
0.00273355
0.00270321
0.00270321
0.00270084
0.00269558
0.00266065
0.00269313
0.00269313
0.00266299
0.00266299
0.00269558
0.00266065
0.00269313
0.00269313
0.00266299
0.00266299
0.00269313
0.00266299
0.00266299
0.00269558
0.00266065
0.00269313
0.00266299
0.00266299
0.00266065
0.00265543
0.00262072
0.00265298
0.00265298
0.00262304
0.00262303
0.00265543
0.00262072
0.00265298
0.00265298
0.00262304
0.00262303
0.00265298
0.00262304
0.00262304
0.00265543
0.00262072
0.00265298
0.00262304
0.00262304
0.00262072
0.00261553
0.00258103
0.00261309
0.00261308
0.00258332
0.00258332
0.00261553
0.00258103
0.00261309
0.00261309
0.00258332
0.00258332
0.00261309
0.00258332
0.00258332
0.00261553
0.00258103
0.00261308
0.00258332
0.00258332
0.00258103
0.00257586
0.00254157
0.00257343
0.00257343
0.00254384
0.00254384
0.00257586
0.00254157
0.00257343
0.00257343
0.00254384
0.00254384
0.00257343
0.00254384
0.00254384
0.00257586
0.00254157
0.00257343
0.00254384
0.00254384
0.00254157
0.00253642
0.00250232
0.002534
0.002534
0.00250457
0.00250457
0.00253642
0.00250232
0.002534
0.002534
0.00250457
0.00250457
0.002534
0.00250457
0.00250457
0.00253642
0.00250232
0.002534
0.00250457
0.00250457
0.00250232
0.0024972
0.00246328
0.00249479
0.00249479
0.00246553
0.00246553
0.0024972
0.00246328
0.00249479
0.00249479
0.00246553
0.00246553
0.00249479
0.00246553
0.00246553
0.0024972
0.00246328
0.00249479
0.00246553
0.00246552
0.00246328
0.00245818
0.00242445
0.0024558
0.00245579
0.00242668
0.00242668
0.00245818
0.00242445
0.00245579
0.00245579
0.00242668
0.00242668
0.00245579
0.00242668
0.00242668
0.00245818
0.00242444
0.00245579
0.00242668
0.00242668
0.00242444
0.00241936
0.0023858
0.002417
0.002417
0.00238803
0.00238803
0.00241936
0.0023858
0.002417
0.002417
0.00238803
0.00238803
0.002417
0.00238803
0.00238803
0.00241936
0.0023858
0.002417
0.00238803
0.00238803
0.0023858
0.00238074
0.00234735
0.00237839
0.0023784
0.00234957
0.00234957
0.00238074
0.00234735
0.00237839
0.0023784
0.00234957
0.00234957
0.0023784
0.00234957
0.00234957
0.00238074
0.00234735
0.0023784
0.00234957
0.00234957
0.00234735
0.00234231
0.00230908
0.00233998
0.00233998
0.00231129
0.00231129
0.00234231
0.00230908
0.00233998
0.00233998
0.00231129
0.00231129
0.00233998
0.00231129
0.00231129
0.00234231
0.00230908
0.00233998
0.00231129
0.00231129
0.00230908
0.00230405
0.00227098
0.00230175
0.00230175
0.00227319
0.00227319
0.00230405
0.00227098
0.00230175
0.00230175
0.00227319
0.00227319
0.00230175
0.00227319
0.00227319
0.00230405
0.00227098
0.00230175
0.00227319
0.00227319
0.00227098
0.00226597
0.00223306
0.00226369
0.00226369
0.00223526
0.00223526
0.00226597
0.00223306
0.00226369
0.00226369
0.00223526
0.00223526
0.00226369
0.00223526
0.00223526
0.00226598
0.00223306
0.00226369
0.00223526
0.00223526
0.00223306
0.00222806
0.0021953
0.0022258
0.0022258
0.0021975
0.0021975
0.00222806
0.0021953
0.0022258
0.0022258
0.0021975
0.00219749
0.00222581
0.0021975
0.0021975
0.00222807
0.00219529
0.00222581
0.0021975
0.0021975
0.0021953
0.00219032
0.00215768
0.00218808
0.00218808
0.00215988
0.00215988
0.00219032
0.00215768
0.00218808
0.00218808
0.00215988
0.00215989
0.00218808
0.00215988
0.00215988
0.00219032
0.00215769
0.00218808
0.00215988
0.00215988
0.00215768
0.00215272
0.00212023
0.0021505
0.0021505
0.00212242
0.00212242
0.00215272
0.00212023
0.0021505
0.0021505
0.00212242
0.00212241
0.0021505
0.00212242
0.00212241
0.00215272
0.00212022
0.0021505
0.00212241
0.00212241
0.00212023
0.00211528
0.00208291
0.00211308
0.00211308
0.00208509
0.0020851
0.00211528
0.00208291
0.00211308
0.00211307
0.0020851
0.0020851
0.00211308
0.0020851
0.00208509
0.00211528
0.00208291
0.00211307
0.0020851
0.0020851
0.00208291
0.00207798
0.00204577
0.00207579
0.00207579
0.00204794
0.00204794
0.00207798
0.00204577
0.00207579
0.00207579
0.00204794
0.00204795
0.00207579
0.00204794
0.00204794
0.00207798
0.00204577
0.00207579
0.00204795
0.00204794
0.00204577
0.00204085
0.00200877
0.00203867
0.00203868
0.00201095
0.00201094
0.00204085
0.00200876
0.00203867
0.00203868
0.00201095
0.00201094
0.00203867
0.00201094
0.00201095
0.00204085
0.00200876
0.00203867
0.00201093
0.00201094
0.00200877
0.00200386
0.00197183
0.00200172
0.00200171
0.001974
0.00197402
0.00200385
0.00197185
0.00200172
0.00200171
0.001974
0.00197402
0.00200172
0.00197402
0.001974
0.00200386
0.00197185
0.00200172
0.00197402
0.001974
0.00197184
0.00196693
0.00193507
0.00196478
0.00196481
0.00193722
0.0019372
0.00196695
0.00193507
0.00196478
0.0019648
0.00193721
0.00193721
0.00196479
0.0019372
0.00193723
0.00196694
0.00193506
0.00196479
0.00193722
0.00193723
0.00193507
0.00193018
0.00189843
0.00192805
0.00192804
0.0019006
0.00190059
0.00193019
0.00189843
0.00192804
0.00192804
0.0019006
0.00190057
0.00192805
0.00190059
0.00190057
0.00193018
0.00189842
0.00192805
0.00190057
0.00190058
0.00189842
0.00189356
0.00186181
0.00189145
0.00189142
0.00186396
0.00186395
0.00189354
0.00186181
0.00189145
0.00189144
0.00186398
0.00186401
0.00189144
0.00186397
0.001864
0.00189356
0.00186184
0.00189145
0.00186402
0.001864
0.00186184
0.00185692
0.00182522
0.0018548
0.00185481
0.00182733
0.0018274
0.00185692
0.00182525
0.00185482
0.00185481
0.00182731
0.00182729
0.00185481
0.00182738
0.00182731
0.00185692
0.00182517
0.00185481
0.00182727
0.00182728
0.0018252
0.00182032
0.00178867
0.00181817
0.00181826
0.00179073
0.00179072
0.00182036
0.00178873
0.00181814
0.00181817
0.00179072
0.00179073
0.00181815
0.00179073
0.00179067
0.00182032
0.00178874
0.00181814
0.00179076
0.0017907
0.00178864
0.00178382
0.00175307
0.00178164
0.00178157
0.00175501
0.00175469
0.00178386
0.00175285
0.00178165
0.0017816
0.00175504
0.00175496
0.00178157
0.00175472
0.00175515
0.00178385
0.00175305
0.0017816
0.00175497
0.0017552
0.00175319
0.00174847
0.00171891
0.00174645
0.00174629
0.00172117
0.00172175
0.00174833
0.00171948
0.0017465
0.00174652
0.00172117
0.00172146
0.00174666
0.00172168
0.00172109
0.00174851
0.001719
0.00174671
0.00172138
0.00172104
0.00171881
0.00171434
0.00168258
0.00171259
0.00171326
0.00168519
0.00168534
0.00171483
0.0016826
0.00171253
0.00171266
0.00168506
0.00168479
0.00171237
0.00168528
0.00168477
0.00171431
0.00168225
0.00171231
0.00168471
0.00168463
0.00168232
0.00167732
0.00164281
0.00167532
0.00167519
0.0016449
0.0016442
0.00167722
0.00164209
0.00167522
0.00167493
0.00164503
0.00164494
0.00167511
0.00164442
0.0016456
0.00167702
0.00164307
0.00167503
0.00164516
0.00164575
0.00164362
0.00163768
0.0016071
0.00163523
0.00163445
0.00160865
0.00160884
0.00163698
0.00160736
0.00163541
0.00163554
0.00160873
0.00160896
0.00163601
0.00160889
0.00160873
0.00163807
0.00160729
0.00163624
0.001609
0.00160883
0.00160697
0.00160243
0.00157242
0.00160009
0.00160052
0.00157439
0.0015748
0.00160269
0.00157272
0.00160007
0.00160027
0.00157424
0.00157401
0.00160002
0.00157471
0.00157404
0.00160253
0.00157196
0.00160003
0.0015739
0.00157386
0.00157192
0.00156779
0.00153641
0.00156577
0.00156595
0.00153883
0.00153824
0.00156792
0.00153592
0.0015656
0.00156518
0.00153881
0.00153854
0.00156504
0.00153797
0.00153785
0.00156721
0.00153613
0.00156481
0.00153829
0.0015378
0.00153572
0.0015315
0.00150039
0.00152963
0.00152902
0.00150239
0.00150255
0.00153106
0.00150075
0.00152975
0.00152976
0.0015025
0.00150334
0.0015291
0.00150284
0.0015039
0.00153145
0.00150143
0.00152918
0.00150368
0.00150416
0.0015019
0.00149561
0.00146595
0.0014935
0.00149416
0.00146792
0.00146921
0.00149627
0.0014673
0.00149344
0.00149425
0.0014675
0.00146685
0.00149545
0.00146951
0.00146856
0.0014966
0.00146495
0.00149559
0.00146712
0.00146806
0.00146602
0.00146135
0.00143098
0.00145953
0.00146048
0.00143301
0.00143163
0.00146249
0.00142926
0.00145904
0.00145791
0.00143305
0.00143285
0.00145901
0.00143115
0.00143101
0.00146013
0.00143075
0.00145845
0.00143239
0.00143112
0.00142916
0.00142613
0.00139548
0.00142382
0.00142224
0.00139731
0.00139672
0.00142435
0.00139504
0.00142424
0.00142458
0.00139804
0.00139888
0.00142231
0.00139684
0.0013981
0.00142622
0.0013968
0.00142272
0.00139897
0.00139871
0.00139648
0.0013909
0.00136069
0.00138883
0.00138882
0.0013633
0.00136409
0.00139077
0.00136183
0.0013893
0.00138977
0.00136276
0.00136202
0.00139014
0.0013643
0.00136338
0.00139194
0.00135984
0.00139059
0.00136214
0.00136286
0.00136065
0.00135582
0.00132333
0.00135433
0.00135482
0.00132551
0.00132535
0.00135669
0.00132288
0.0013538
0.00135306
0.00132554
0.00132625
0.00135362
0.00132517
0.0013249
0.00135499
0.00132391
0.00135305
0.00132612
0.00132497
0.00132297
0.00131814
0.00128712
0.00131578
0.00131562
0.00128851
0.00128932
0.00131774
0.00128784
0.00131598
0.00131708
0.00128853
0.00128905
0.00131598
0.00128973
0.00129031
0.00131892
0.0012872
0.00131621
0.00128939
0.00129031
0.00128833
0.00128256
0.00125323
0.00128024
0.00128096
0.00125535
0.00125541
0.00128324
0.00125338
0.00128004
0.00127983
0.00125494
0.00125355
0.00128153
0.0012553
0.0012547
0.00128232
0.0012518
0.00128136
0.00125341
0.00125423
0.0012523
0.00124856
0.0012179
0.00124677
0.00124666
0.00122027
0.00121944
0.00124857
0.00121693
0.00124643
0.00124521
0.00122049
0.00122017
0.0012457
0.00121898
0.00121887
0.00124727
0.00121798
0.00124527
0.0012198
0.00121906
0.00121692
0.001213
0.00118171
0.00121108
0.00121038
0.00118371
0.00118333
0.00121208
0.00118126
0.00121149
0.0012116
0.00118422
0.001185
0.00121006
0.00118341
0.00118382
0.00121328
0.0011827
0.00121045
0.00118506
0.00118428
0.00118194
0.00117685
0.00114555
0.00117474
0.00117441
0.00114753
0.00114788
0.00117644
0.00114623
0.00117515
0.00117594
0.00114762
0.00114831
0.00117503
0.00114818
0.00114858
0.00117781
0.00114624
0.00117541
0.00114864
0.00114866
0.00114661
0.00114065
0.00111008
0.00113847
0.00113917
0.00111193
0.00111274
0.00114146
0.00111082
0.00113846
0.00113909
0.0011116
0.00111168
0.00113971
0.00111292
0.00111266
0.00114128
0.00110978
0.00113966
0.00111189
0.00111238
0.00111051
0.00110536
0.00107504
0.00110334
0.00110383
0.00107718
0.00107705
0.00110596
0.00107491
0.00110298
0.00110271
0.00107695
0.00107623
0.00110357
0.00107687
0.00107648
0.00110493
0.00107423
0.00110326
0.00107603
0.00107621
0.00107431
0.00107023
0.0010395
0.0010683
0.00106809
0.00104164
0.00104113
0.00107004
0.00103899
0.00106815
0.00106751
0.00104172
0.00104137
0.00106755
0.00104096
0.00104114
0.00106949
0.00103932
0.00106735
0.0010412
0.00104123
0.00103913
0.00103468
0.00100412
0.0010327
0.00103228
0.00100609
0.00100605
0.00103422
0.00100407
0.00103286
0.00103266
0.00100627
0.00100654
0.00103244
0.00100614
0.00100632
0.0010346
0.00100453
0.00103258
0.00100663
0.0010065
0.00100434
0.000999409
0.000969315
0.000997376
0.000997385
0.000971317
0.00097138
0.000999362
0.000969357
0.000997526
0.00099784
0.000971363
0.000971628
0.000997588
0.000971405
0.000971344
0.000999805
0.000969519
0.000997739
0.000971649
0.000971396
0.000969351
0.00096457
0.00093406
0.000962575
0.000962659
0.000936129
0.000936226
0.000964616
0.000934167
0.000962595
0.000962802
0.000936084
0.000936126
0.000962591
0.000936244
0.000936222
0.000964728
0.000934042
0.000962606
0.000936148
0.000936181
0.000934156
0.000929248
0.000898597
0.000927266
0.000927344
0.000900655
0.000900692
0.000929352
0.000898663
0.000927216
0.000927213
0.000900612
0.000900513
0.000927384
0.00090071
0.000900745
0.00092922
0.000898508
0.000927338
0.000900546
0.000900698
0.000898645
0.000893787
0.000863168
0.000891794
0.000891818
0.000865212
0.000865179
0.000893845
0.000863106
0.000891754
0.000891661
0.000865189
0.000865077
0.00089183
0.000865129
0.000865056
0.000893699
0.00086304
0.000891784
0.000865035
0.00086504
0.000863002
0.000858351
0.000827529
0.000856335
0.000856271
0.000829587
0.00082954
0.000858269
0.00082749
0.000856322
0.000856217
0.000829614
0.000829622
0.00085615
0.000829525
0.00082951
0.000858227
0.000827573
0.000856146
0.000829605
0.000829535
0.000827501
0.000822695
0.00079198
0.000820672
0.000820653
0.000794019
0.000794061
0.000822671
0.000792034
0.0008207
0.000820749
0.000794027
0.00079408
0.000820651
0.00079409
0.000794105
0.000822754
0.00079204
0.000820677
0.000794116
0.000794114
0.000792077
0.000787165
0.000756545
0.000785152
0.000785206
0.000758579
0.000758619
0.000787226
0.000756586
0.000785151
0.000785193
0.000758568
0.000758574
0.00078526
0.000758648
0.000758685
0.000787217
0.000756557
0.000785259
0.000758601
0.000758673
0.000756623
0.000751736
0.00072114
0.000749725
0.000749749
0.000723172
0.00072314
0.000751768
0.000721091
0.000749717
0.000749723
0.000723183
0.00072318
0.000749809
0.000723126
0.000723134
0.000751749
0.000721134
0.000749801
0.000723167
0.000723147
0.000721086
0.000716328
0.000685632
0.000714318
0.000714268
0.000687689
0.000687645
0.00071627
0.000685593
0.000714332
0.000714324
0.000687695
0.000687671
0.00071424
0.000687617
0.000687585
0.000716318
0.000685601
0.000714256
0.000687641
0.000687589
0.000685555
0.000680795
0.00065001
0.000678785
0.000678767
0.000652061
0.000652111
0.000680769
0.000650075
0.000678786
0.000678769
0.000652047
0.00065206
0.000678708
0.000652127
0.000652114
0.000680768
0.000650026
0.000678707
0.000652079
0.000652103
0.000650075
0.000645176
0.00061444
0.000643159
0.000643217
0.000616479
0.000616496
0.000645243
0.000614453
0.000643146
0.000643161
0.000616476
0.000616485
0.000643249
0.000616515
0.000616563
0.000645194
0.000614458
0.000643236
0.000616503
0.000616561
0.00061449
0.00060961
0.000578858
0.00060759
0.000607584
0.000580895
0.000580849
0.000609608
0.000578795
0.000607593
0.000607596
0.000580907
0.000580888
0.000607623
0.000580824
0.000580806
0.000609625
0.000578831
0.000607628
0.000580863
0.000580817
0.000578767
0.000574011
0.000543175
0.000571981
0.000571936
0.000545215
0.000545222
0.00057395
0.000543182
0.000571992
0.00057197
0.000545214
0.000545217
0.000571882
0.000545209
0.000545172
0.000573983
0.000543167
0.000571891
0.000545204
0.000545172
0.000543151
0.000538335
0.000507553
0.000536305
0.000536321
0.000509599
0.000509614
0.000538345
0.000507575
0.000536302
0.000536312
0.000509601
0.000509635
0.000536297
0.000509644
0.000509686
0.000538332
0.000507586
0.000536295
0.000509664
0.000509687
0.000507644
0.000502709
0.000471835
0.000500691
0.000500697
0.000473906
0.000473903
0.000502729
0.000471843
0.000500694
0.000500723
0.000473898
0.000473867
0.000500789
0.000473901
0.000473911
0.000502739
0.000471809
0.000500791
0.000473869
0.000473904
0.000471826
0.000466968
0.000436025
0.000464955
0.000464953
0.000438074
0.000438081
0.000466976
0.000436031
0.000464942
0.000464899
0.000438056
0.000438005
0.000464933
0.000438064
0.000438013
0.000466936
0.00043598
0.000464919
0.000437988
0.000437995
0.000435969
0.000431168
0.000400322
0.000429131
0.000429136
0.000402333
0.000402332
0.000431168
0.000400305
0.000429118
0.000429089
0.000402352
0.000402391
0.000429063
0.000402335
0.000402336
0.000431134
0.000400365
0.000429052
0.000402393
0.000402356
0.000400325
0.000395472
0.000364513
0.000393404
0.000393403
0.000366569
0.000366563
0.000395454
0.000364507
0.00039343
0.000393481
0.000366596
0.00036667
0.000393433
0.000366583
0.000366648
0.000395523
0.000364585
0.000393458
0.000366692
0.000366677
0.000364568
0.000359642
0.000328659
0.00035762
0.000357617
0.000330737
0.000330733
0.000359643
0.000328659
0.000357633
0.000357683
0.000330722
0.000330685
0.000357681
0.000330725
0.000330724
0.000359696
0.000328599
0.0003577
0.000330676
0.000330706
0.000328647
0.000323778
0.000292697
0.000321762
0.000321745
0.000294751
0.000294725
0.000323767
0.00029267
0.00032174
0.000321676
0.00029473
0.000294642
0.000321708
0.000294689
0.000294594
0.000323702
0.000292588
0.000321683
0.000294607
0.000294574
0.000292573
0.000287791
0.000256709
0.000285729
0.000285733
0.000258747
0.000258812
0.000287784
0.000256817
0.000285717
0.000285667
0.000258743
0.00025879
0.000285638
0.000258862
0.000258943
0.000287719
0.000256829
0.000285626
0.000258847
0.000258942
0.000256896
0.000251852
0.000220906
0.000249802
0.00024985
0.000222951
0.000222922
0.000251951
0.000220826
0.000249797
0.000249842
0.000222974
0.000222973
0.000250021
0.000222907
0.00022289
0.000251966
0.000220878
0.000250019
0.000222953
0.000222903
0.000220778
0.000216005
0.000184718
0.000213954
0.00021393
0.000186787
0.00018683
0.000215926
0.000184731
0.000213981
0.000213994
0.000186817
0.000186898
0.00021381
0.000186826
0.00018678
0.000215974
0.000184771
0.000213837
0.000186888
0.000186798
0.000184767
0.000179794
0.000148854
0.00017774
0.000177752
0.000150919
0.00015069
0.000179779
0.00014867
0.000177767
0.000177855
0.000150919
0.000150808
0.000177746
0.000150626
0.00015067
0.000179856
0.000148782
0.000177769
0.00015076
0.000150692
0.000148661
0.000143951
0.00011269
0.000141995
0.000141821
0.000114839
0.000115129
0.000143858
0.000113181
0.000141947
0.000141771
0.000114689
0.000114565
0.000141734
0.000115238
0.000115168
0.000143852
0.000112558
0.000141702
0.000114667
0.000115013
0.000113016
0.000107698
7.65159e-05
0.00010563
0.000106041
7.83964e-05
7.84192e-05
0.000108198
7.62959e-05
0.000105552
0.000105595
7.86178e-05
7.91077e-05
0.000106361
7.8497e-05
7.88577e-05
0.000107674
7.69861e-05
0.000106216
7.92052e-05
7.90812e-05
7.68444e-05
7.1675e-05
4.08289e-05
6.96234e-05
6.93279e-05
4.29841e-05
4.26027e-05
7.1243e-05
4.03818e-05
6.98432e-05
7.01834e-05
4.28566e-05
4.22874e-05
6.95481e-05
4.22255e-05
4.14217e-05
7.19897e-05
3.99178e-05
6.97774e-05
4.1888e-05
4.13546e-05
3.92599e-05
3.57092e-05
7.31643e-06
3.40242e-05
3.37735e-05
1.04872e-05
1.08054e-05
3.54101e-05
7.81874e-06
3.37286e-05
3.28216e-05
1.01374e-05
9.82593e-06
3.2229e-05
1.08118e-05
1.09445e-05
3.46685e-05
7.2895e-06
3.18831e-05
9.82356e-06
1.05487e-05
8.11317e-06
4.1046e-06
5.73258e-06
5.98631e-06
4.5505e-06
5.8785e-06
5.69075e-06
5.00783e-06
5.11748e-06
5.82568e-06
6.5047e-06
4.53639e-06
6.61111e-06
0.00362639
0.00363616
0.00363095
0.00363096
0.00365334
0.00364012
0.00366873
0.00363417
0.00365334
0.00364012
0.00363417
0.00366873
0.00364469
0.00367247
0.00367247
0.00358175
0.0036009
0.00361009
0.00357383
0.00357457
0.00357734
0.00358173
0.00360087
0.00361008
0.00357381
0.00360461
0.00360461
0.00360461
0.00356121
0.00356121
0.0035612
0.0035612
0.00357925
0.00360507
0.00360501
0.00358808
0.0036081
0.00357815
0.00358896
0.00357467
0.00357734
0.00357926
0.00360501
0.00360509
0.00358808
0.0036081
0.00358896
0.00357815
0.00361095
0.00361094
0.00358248
0.00357779
0.00357779
0.00353512
0.0035544
0.00355576
0.00353366
0.0035533
0.00353321
0.00353511
0.00355439
0.00355576
0.00353365
0.00354925
0.00354925
0.00354925
0.00351166
0.00351166
0.00351166
0.00351166
0.0035337
0.00355447
0.00354925
0.00353738
0.00355326
0.00353425
0.00353711
0.0035533
0.00353321
0.0035337
0.00354925
0.00355447
0.00353738
0.00355326
0.00353711
0.00353424
0.00355549
0.00355549
0.00353393
0.00353458
0.00353458
0.00348285
0.00350166
0.00350273
0.00348183
0.00350129
0.00348155
0.00348285
0.00350166
0.00350273
0.00348183
0.0034985
0.0034985
0.0034985
0.00345912
0.00345912
0.00345912
0.00345912
0.00348195
0.00350206
0.00349837
0.00348533
0.0035015
0.00348232
0.00348524
0.00350129
0.00348155
0.00348195
0.00349837
0.00350206
0.00348533
0.0035015
0.00348524
0.00348232
0.0035023
0.0035023
0.00348194
0.00348238
0.00348238
0.00343033
0.00344898
0.00344984
0.00342956
0.00344878
0.00342938
0.00343033
0.00344898
0.00344984
0.00342956
0.00344611
0.00344611
0.00344611
0.00340748
0.00340748
0.00340748
0.00340748
0.00342982
0.00344939
0.00344608
0.00343318
0.0034491
0.00343
0.00343314
0.00344878
0.00342938
0.00342982
0.00344608
0.00344939
0.00343318
0.0034491
0.00343314
0.00343
0.00344943
0.00344943
0.00342986
0.00342994
0.00342994
0.00337913
0.00339748
0.00339812
0.00337857
0.00339734
0.00337844
0.00337913
0.00339748
0.00339812
0.00337857
0.00339476
0.00339476
0.00339476
0.00335714
0.00335714
0.00335714
0.00335714
0.00337886
0.00339783
0.00339474
0.00338214
0.00339766
0.00337897
0.00338211
0.00339734
0.00337844
0.00337886
0.00339474
0.00339783
0.00338214
0.00339766
0.00338211
0.00337897
0.00339782
0.00339782
0.00337894
0.00337888
0.00337888
0.00332948
0.00334743
0.00334789
0.00332909
0.00334733
0.00332897
0.00332948
0.00334743
0.00334789
0.00332909
0.00334478
0.00334478
0.00334478
0.00330826
0.00330826
0.00330826
0.00330826
0.00332937
0.00334773
0.00334477
0.00333253
0.00334762
0.00332944
0.00333251
0.00334732
0.00332898
0.00332937