/*--------------------------------*- C++ -*----------------------------------*\
| =========                 |                                                 |
| \\      /  F ield         | OpenFOAM: The Open Source CFD Toolbox           |
|  \\    /   O peration     | Version:  v1906                                 |
|   \\  /    A nd           | Web:      www.OpenFOAM.com                      |
|    \\/     M anipulation  |                                                 |
\*---------------------------------------------------------------------------*/
FoamFile
{
    version     2.0;
    format      ascii;
    class       volScalarField;
    location    "700";
    object      k;
}
// * * * * * * * * * * * * * * * * * * * * * * * * * * * * * * * * * * * * * //

dimensions      [0 2 -2 0 0 0 0];


internalField   nonuniform List<scalar> 
42840
(
3.83845e-05
5.11092e-05
5.11096e-05
5.32989e-05
5.34879e-05
5.32982e-05
5.34314e-05
5.1107e-05
5.11073e-05
5.12932e-05
5.12933e-05
5.32899e-05
5.34419e-05
5.11073e-05
5.11064e-05
5.12933e-05
5.12925e-05
5.11091e-05
5.12953e-05
5.12951e-05
5.32896e-05
5.34417e-05
5.1109e-05
5.12958e-05
5.1295e-05
5.3443e-05
5.13551e-05
5.1355e-05
6.851e-05
7.33541e-05
7.33805e-05
6.84837e-05
7.11149e-05
7.11411e-05
6.85142e-05
7.33607e-05
7.33852e-05
6.8488e-05
3.83849e-05
3.8388e-05
3.83884e-05
3.87001e-05
3.87005e-05
3.87035e-05
3.87039e-05
6.05227e-05
6.46927e-05
4.63283e-05
5.11724e-05
6.47234e-05
4.6408e-05
6.04776e-05
7.11133e-05
7.11397e-05
6.0521e-05
4.63294e-05
6.46936e-05
5.11729e-05
4.64091e-05
6.47243e-05
6.04759e-05
6.98623e-05
6.98738e-05
5.3342e-05
6.98802e-05
6.98924e-05
6.99175e-05
6.99282e-05
7.1113e-05
7.11391e-05
7.11155e-05
7.11416e-05
6.98624e-05
6.98725e-05
5.33343e-05
6.98814e-05
6.98913e-05
7.11665e-05
7.11407e-05
7.1169e-05
7.11433e-05
5.33988e-05
6.99089e-05
6.99186e-05
6.98907e-05
6.99007e-05
6.8512e-05
7.33589e-05
7.33853e-05
6.84857e-05
6.052e-05
6.46913e-05
4.63252e-05
5.11702e-05
6.47219e-05
4.64049e-05
6.0475e-05
6.05214e-05
6.46948e-05
4.63263e-05
5.11705e-05
6.4726e-05
4.6406e-05
6.04765e-05
6.85158e-05
7.34101e-05
7.33842e-05
6.85408e-05
6.85179e-05
7.34148e-05
7.33889e-05
6.85428e-05
6.05317e-05
5.12328e-05
6.47577e-05
4.65599e-05
6.47285e-05
4.64837e-05
6.05738e-05
6.05332e-05
5.1233e-05
6.47616e-05
4.6561e-05
6.4732e-05
4.64849e-05
6.05753e-05
6.98718e-05
6.98597e-05
5.33442e-05
6.98906e-05
6.98789e-05
7.11115e-05
7.11378e-05
7.11685e-05
7.11427e-05
5.33883e-05
6.99178e-05
6.99061e-05
6.99e-05
6.98879e-05
7.11652e-05
7.11392e-05
6.05229e-05
6.46957e-05
4.63273e-05
5.11703e-05
6.47264e-05
4.64071e-05
6.04778e-05
6.8512e-05
7.33552e-05
7.33796e-05
6.84857e-05
6.05207e-05
4.63272e-05
6.469e-05
5.11696e-05
4.64069e-05
6.47203e-05
6.04757e-05
6.85201e-05
7.34154e-05
7.33907e-05
6.85451e-05
6.05345e-05
5.12331e-05
6.47621e-05
4.65621e-05
6.4733e-05
4.64859e-05
6.05767e-05
6.85179e-05
7.34093e-05
7.33852e-05
6.85429e-05
6.05325e-05
5.12321e-05
4.65619e-05
6.47561e-05
4.64858e-05
6.47273e-05
6.05747e-05
6.85126e-05
7.33594e-05
7.33839e-05
6.84863e-05
6.05212e-05
4.63283e-05
6.46914e-05
5.11723e-05
4.6408e-05
6.47222e-05
6.04762e-05
6.85109e-05
7.33563e-05
7.33808e-05
6.84847e-05
6.05343e-05
5.12349e-05
6.4759e-05
4.65629e-05
6.47298e-05
4.64868e-05
6.05766e-05
6.85185e-05
7.34134e-05
7.33894e-05
6.85436e-05
6.05329e-05
5.12348e-05
4.65629e-05
6.47577e-05
4.64868e-05
6.47286e-05
6.0575e-05
6.85169e-05
7.34104e-05
7.33863e-05
6.85418e-05
6.98654e-05
6.98627e-05
5.3344e-05
6.98846e-05
6.98819e-05
7.1114e-05
7.11401e-05
7.11671e-05
7.11411e-05
5.3388e-05
6.99118e-05
6.99093e-05
6.98937e-05
6.9891e-05
7.11675e-05
7.11417e-05
6.05221e-05
4.63297e-05
6.46966e-05
5.11721e-05
4.64093e-05
6.47274e-05
6.04771e-05
6.85104e-05
7.33564e-05
7.33829e-05
6.84842e-05
6.85128e-05
7.33593e-05
7.33858e-05
6.84866e-05
6.05326e-05
5.12354e-05
4.65641e-05
6.47601e-05
4.64879e-05
6.47308e-05
6.05747e-05
6.05338e-05
5.12347e-05
4.65643e-05
6.47631e-05
4.64882e-05
6.47339e-05
6.0576e-05
6.85164e-05
7.34124e-05
7.33865e-05
6.85412e-05
6.85188e-05
7.34154e-05
7.33894e-05
6.85437e-05
7.11132e-05
7.11392e-05
7.1116e-05
7.11421e-05
5.33938e-05
6.99076e-05
6.99198e-05
6.98905e-05
6.99015e-05
7.11667e-05
7.1141e-05
7.11695e-05
7.11437e-05
4.66385e-05
6.47643e-05
6.05868e-05
7.34159e-05
6.85477e-05
6.47693e-05
7.34188e-05
7.11683e-05
7.11711e-05
7.17901e-05
7.15679e-05
7.15375e-05
6.85001e-05
7.15585e-05
7.15286e-05
7.17996e-05
7.16285e-05
7.33656e-05
7.96986e-05
7.97019e-05
7.16135e-05
7.16271e-05
7.9715e-05
7.33692e-05
7.97119e-05
7.1642e-05
7.17851e-05
6.8494e-05
7.15436e-05
7.15137e-05
7.15531e-05
7.1523e-05
7.17754e-05
7.11272e-05
7.11289e-05
7.1793e-05
7.15452e-05
7.15699e-05
6.85043e-05
7.15362e-05
7.15605e-05
7.18024e-05
7.16305e-05
7.33703e-05
7.97157e-05
7.97241e-05
7.1616e-05
7.16295e-05
7.97371e-05
7.33757e-05
7.97289e-05
7.1644e-05
7.17878e-05
6.84982e-05
7.15214e-05
7.15455e-05
7.15306e-05
7.15551e-05
7.17782e-05
7.11258e-05
7.11273e-05
9.49274e-05
7.34526e-05
7.34463e-05
7.3439e-05
7.34326e-05
9.49297e-05
7.40745e-05
6.51191e-05
6.98661e-05
7.31883e-05
6.51326e-05
7.32009e-05
7.4069e-05
7.4122e-05
6.51278e-05
6.98778e-05
7.32003e-05
6.51422e-05
7.321e-05
7.41178e-05
7.40863e-05
7.32153e-05
6.98765e-05
6.51558e-05
6.51423e-05
7.32029e-05
7.40915e-05
7.41349e-05
7.32251e-05
6.98877e-05
6.51653e-05
6.5151e-05
7.32137e-05
7.41391e-05
9.49151e-05
7.34262e-05
7.34199e-05
7.34399e-05
7.34335e-05
9.49127e-05
7.41404e-05
6.52088e-05
7.32469e-05
6.99207e-05
7.41351e-05
6.52213e-05
7.32566e-05
7.41884e-05
6.52176e-05
7.32559e-05
6.99334e-05
7.41836e-05
6.52308e-05
7.32685e-05
9.49723e-05
7.34768e-05
7.34705e-05
9.497e-05
7.34904e-05
7.3484e-05
7.11252e-05
7.11269e-05
7.11277e-05
7.11294e-05
9.49267e-05
7.34528e-05
7.34461e-05
7.34392e-05
7.34324e-05
9.49292e-05
7.4076e-05
6.51191e-05
6.98674e-05
7.31891e-05
7.32016e-05
6.51337e-05
7.40704e-05
7.41218e-05
6.51273e-05
6.98772e-05
7.31984e-05
7.32109e-05
6.51417e-05
7.41161e-05
7.40876e-05
7.3216e-05
6.98767e-05
6.51569e-05
7.32037e-05
7.40924e-05
6.51425e-05
7.41333e-05
7.32254e-05
6.98867e-05
6.51647e-05
7.3213e-05
7.41387e-05
6.51507e-05
9.49146e-05
7.34264e-05
7.34196e-05
7.34401e-05
7.34333e-05
9.4912e-05
7.11545e-05
7.11528e-05
7.1157e-05
7.11554e-05
9.49436e-05
7.34519e-05
7.34451e-05
9.49412e-05
7.34655e-05
7.34587e-05
7.41212e-05
6.52009e-05
6.99042e-05
7.32446e-05
7.32323e-05
6.51875e-05
7.41252e-05
7.41663e-05
6.52088e-05
6.99142e-05
7.32538e-05
7.32415e-05
6.51956e-05
7.41718e-05
7.41088e-05
7.32182e-05
6.51652e-05
6.98953e-05
7.41046e-05
7.32302e-05
6.51792e-05
7.41556e-05
7.32275e-05
6.51734e-05
6.99052e-05
7.41501e-05
7.32397e-05
6.51871e-05
9.49554e-05
7.34781e-05
7.34713e-05
7.34645e-05
7.34578e-05
9.49578e-05
7.17923e-05
7.15695e-05
7.15451e-05
6.85021e-05
7.15578e-05
7.15362e-05
7.18017e-05
7.16302e-05
7.33704e-05
7.9717e-05
7.97254e-05
7.16157e-05
7.16292e-05
7.97384e-05
7.33739e-05
7.97303e-05
7.16437e-05
7.17872e-05
6.8496e-05
7.15441e-05
7.15214e-05
7.15539e-05
7.15306e-05
7.17776e-05
7.18141e-05
7.15733e-05
7.1543e-05
6.85257e-05
7.18046e-05
7.15829e-05
7.1552e-05
7.1654e-05
7.33989e-05
7.97406e-05
7.16688e-05
7.97376e-05
7.16555e-05
7.97249e-05
7.33953e-05
7.16406e-05
7.97281e-05
7.18192e-05
6.85313e-05
7.15976e-05
7.15659e-05
7.18286e-05
7.15882e-05
7.15573e-05
7.18162e-05
7.15722e-05
7.15507e-05
6.85277e-05
7.18067e-05
7.15848e-05
7.15597e-05
7.16561e-05
7.34036e-05
7.9764e-05
7.9756e-05
7.16705e-05
7.16572e-05
7.97433e-05
7.34e-05
7.16427e-05
7.97513e-05
7.18214e-05
6.85334e-05
7.15995e-05
7.15737e-05
7.15871e-05
7.1565e-05
7.18307e-05
9.49249e-05
7.34461e-05
7.34519e-05
7.34324e-05
7.34381e-05
9.49275e-05
7.41212e-05
6.5126e-05
6.98765e-05
7.31981e-05
7.32104e-05
6.51395e-05
7.41156e-05
7.40749e-05
6.51203e-05
6.98647e-05
7.31878e-05
6.51325e-05
7.32004e-05
7.40693e-05
7.41329e-05
7.3225e-05
6.9886e-05
6.51625e-05
7.32125e-05
6.51494e-05
7.41383e-05
7.40866e-05
7.32148e-05
6.9874e-05
6.51555e-05
6.51437e-05
7.32025e-05
7.4092e-05
9.49128e-05
7.34196e-05
7.34254e-05
7.34333e-05
7.34391e-05
9.49102e-05
7.11239e-05
7.11254e-05
7.11564e-05
7.11548e-05
9.4942e-05
7.34451e-05
7.34509e-05
9.49394e-05
7.34587e-05
7.34645e-05
7.41659e-05
6.52067e-05
6.99135e-05
7.32534e-05
6.51943e-05
7.32412e-05
7.4171e-05
7.41196e-05
6.51998e-05
6.99015e-05
7.32432e-05
7.3231e-05
6.51886e-05
7.41247e-05
7.4155e-05
7.32272e-05
6.51721e-05
6.99044e-05
6.51848e-05
7.41496e-05
7.32393e-05
7.41087e-05
7.3217e-05
6.51664e-05
6.98925e-05
7.41032e-05
7.32291e-05
6.51779e-05
9.49536e-05
7.34713e-05
7.34771e-05
7.34577e-05
7.34635e-05
9.49562e-05
7.1153e-05
7.11515e-05
7.17892e-05
7.1569e-05
7.15373e-05
6.85021e-05
7.15596e-05
7.15283e-05
7.18015e-05
7.16279e-05
7.33648e-05
7.96969e-05
7.97005e-05
7.16129e-05
7.16265e-05
7.97136e-05
7.33702e-05
7.97102e-05
7.16414e-05
7.17864e-05
6.8496e-05
7.15447e-05
7.15134e-05
7.15542e-05
7.15227e-05
7.17756e-05
7.18169e-05
7.15507e-05
7.15753e-05
6.853e-05
7.18074e-05
7.15597e-05
7.15849e-05
7.16564e-05
7.34048e-05
7.97627e-05
7.16708e-05
7.97548e-05
7.16575e-05
7.9742e-05
7.34005e-05
7.1643e-05
7.975e-05
7.18221e-05
6.85357e-05
7.15737e-05
7.15996e-05
7.18315e-05
7.15649e-05
7.15902e-05
7.18163e-05
7.15745e-05
7.15428e-05
6.85278e-05
7.18031e-05
7.15841e-05
7.15519e-05
7.16533e-05
7.34e-05
7.97393e-05
7.97359e-05
7.16682e-05
7.16549e-05
7.97232e-05
7.33947e-05
7.16399e-05
7.97267e-05
7.18172e-05
6.85335e-05
7.15987e-05
7.15658e-05
7.15894e-05
7.15571e-05
7.18307e-05
7.17905e-05
7.15463e-05
7.15691e-05
6.85027e-05
7.15341e-05
7.15597e-05
7.18043e-05
7.16303e-05
7.33691e-05
7.97149e-05
7.97237e-05
7.16157e-05
7.16292e-05
7.97368e-05
7.33745e-05
7.97282e-05
7.16438e-05
7.17898e-05
6.84967e-05
7.15196e-05
7.15448e-05
7.15318e-05
7.15544e-05
7.17757e-05
7.17913e-05
7.15686e-05
7.15393e-05
6.8501e-05
7.15592e-05
7.15304e-05
7.18007e-05
7.16288e-05
7.33659e-05
7.96966e-05
7.9705e-05
7.16143e-05
7.16278e-05
7.97181e-05
7.33713e-05
7.97099e-05
7.16423e-05
7.17862e-05
6.8495e-05
7.15443e-05
7.15156e-05
7.15538e-05
7.15248e-05
7.17767e-05
7.18189e-05
7.15488e-05
7.15746e-05
6.85284e-05
7.18051e-05
7.15607e-05
7.15842e-05
7.16561e-05
7.34042e-05
7.97621e-05
7.97539e-05
7.16705e-05
7.16572e-05
7.97411e-05
7.33989e-05
7.16427e-05
7.97496e-05
7.18195e-05
6.85341e-05
7.15749e-05
7.15989e-05
7.1563e-05
7.15895e-05
7.18332e-05
7.18152e-05
7.15741e-05
7.15449e-05
6.85267e-05
7.18058e-05
7.15837e-05
7.15539e-05
7.16547e-05
7.34012e-05
7.97435e-05
7.97359e-05
7.16691e-05
7.16558e-05
7.97229e-05
7.33959e-05
7.16413e-05
7.9731e-05
7.18204e-05
6.85324e-05
7.15983e-05
7.15679e-05
7.1589e-05
7.15592e-05
7.18298e-05
9.49291e-05
7.34462e-05
7.34528e-05
7.34324e-05
7.34391e-05
9.49317e-05
7.41212e-05
6.51253e-05
6.98704e-05
7.31964e-05
7.32091e-05
6.51368e-05
7.41154e-05
7.40767e-05
6.51206e-05
6.98677e-05
7.3189e-05
6.5135e-05
7.32013e-05
7.40709e-05
7.41326e-05
7.32235e-05
6.98798e-05
6.51599e-05
7.3211e-05
6.51487e-05
7.41382e-05
7.40882e-05
7.32159e-05
6.9877e-05
6.51581e-05
6.51439e-05
7.32034e-05
7.40937e-05
9.4917e-05
7.34197e-05
7.34263e-05
7.34334e-05
7.34401e-05
9.49144e-05
7.11262e-05
7.11279e-05
7.11548e-05
7.11534e-05
9.49462e-05
7.34451e-05
7.34518e-05
9.49436e-05
7.34588e-05
7.34655e-05
7.41657e-05
6.52042e-05
6.99073e-05
7.32518e-05
6.51937e-05
7.32395e-05
7.41712e-05
7.41213e-05
6.52023e-05
6.99046e-05
7.32443e-05
7.3232e-05
6.51889e-05
7.41267e-05
7.4155e-05
7.32255e-05
6.51714e-05
6.98982e-05
6.51822e-05
7.41494e-05
7.32378e-05
7.41105e-05
7.3218e-05
6.51667e-05
6.98956e-05
7.41049e-05
7.32303e-05
6.51804e-05
9.49579e-05
7.34714e-05
7.34781e-05
7.34578e-05
7.34644e-05
9.49605e-05
7.11554e-05
7.11538e-05
7.17888e-05
7.15381e-05
7.15702e-05
6.85005e-05
7.1529e-05
7.15574e-05
7.18028e-05
7.16298e-05
7.3368e-05
7.96976e-05
7.97061e-05
7.16153e-05
7.16288e-05
7.97192e-05
7.33715e-05
7.97109e-05
7.16433e-05
7.17883e-05
6.84944e-05
7.15142e-05
7.15428e-05
7.15235e-05
7.15553e-05
7.1774e-05
7.17893e-05
7.15419e-05
7.15693e-05
6.85029e-05
7.15329e-05
7.15598e-05
7.18034e-05
7.16293e-05
7.33708e-05
7.97141e-05
7.97182e-05
7.16142e-05
7.16278e-05
7.97313e-05
7.33744e-05
7.97274e-05
7.16429e-05
7.17888e-05
6.84969e-05
7.1518e-05
7.15449e-05
7.15273e-05
7.15545e-05
7.17746e-05
7.18174e-05
7.15436e-05
7.15725e-05
6.85261e-05
7.18034e-05
7.15526e-05
7.15852e-05
7.16557e-05
7.34012e-05
7.97447e-05
7.97367e-05
7.16701e-05
7.16568e-05
7.97239e-05
7.33976e-05
7.16423e-05
7.97321e-05
7.18178e-05
6.85318e-05
7.15666e-05
7.15999e-05
7.15578e-05
7.15873e-05
7.18317e-05
7.18179e-05
7.15475e-05
7.15747e-05
6.85286e-05
7.18039e-05
7.15564e-05
7.15844e-05
7.16547e-05
7.34042e-05
7.97569e-05
7.97531e-05
7.16696e-05
7.16563e-05
7.97404e-05
7.34006e-05
7.16413e-05
7.97443e-05
7.18184e-05
6.85342e-05
7.15703e-05
7.15991e-05
7.15617e-05
7.15896e-05
7.18319e-05
7.11254e-05
7.11272e-05
7.11282e-05
7.11299e-05
9.49441e-05
7.34517e-05
7.34453e-05
9.49418e-05
7.34653e-05
7.34589e-05
7.41193e-05
6.51998e-05
6.99042e-05
7.32435e-05
7.41243e-05
6.51873e-05
7.32315e-05
7.41679e-05
6.52095e-05
6.99151e-05
7.3254e-05
7.41719e-05
6.5196e-05
7.32419e-05
7.41081e-05
7.32174e-05
6.51651e-05
6.98942e-05
7.4103e-05
6.5178e-05
7.32295e-05
7.41555e-05
7.32276e-05
6.51738e-05
6.99061e-05
7.41516e-05
6.51876e-05
7.32398e-05
9.4956e-05
7.34779e-05
7.34715e-05
9.49583e-05
7.34643e-05
7.34579e-05
7.11547e-05
7.1153e-05
7.11575e-05
7.11559e-05
7.16823e-05
7.97485e-05
7.34247e-05
7.1668e-05
7.97558e-05
7.18437e-05
6.85565e-05
7.16036e-05
7.15733e-05
7.18347e-05
7.16135e-05
7.15813e-05
7.34301e-05
7.11802e-05
7.11831e-05
3.12672e-05
3.1266e-05
3.84911e-05
3.13976e-05
3.13965e-05
2.22593e-05
2.21079e-05
6.58138e-05
5.9305e-05
5.93054e-05
5.32866e-05
5.93068e-05
5.93065e-05
6.58076e-05
6.59106e-05
5.94426e-05
5.94442e-05
5.34907e-05
6.5904e-05
5.94478e-05
5.94492e-05
6.58142e-05
5.93045e-05
5.93064e-05
5.32839e-05
5.93038e-05
5.93062e-05
6.58084e-05
6.58821e-05
5.34488e-05
5.94102e-05
5.9412e-05
5.94105e-05
5.94124e-05
6.58869e-05
6.58147e-05
5.93026e-05
5.93043e-05
5.32947e-05
5.931e-05
5.93082e-05
6.58073e-05
6.58806e-05
5.3438e-05
5.9412e-05
5.94137e-05
5.94082e-05
5.94094e-05
6.58878e-05
6.58142e-05
5.93019e-05
5.9304e-05
5.32944e-05
5.93097e-05
5.93069e-05
6.58067e-05
6.58801e-05
5.34378e-05
5.94109e-05
5.94138e-05
5.9407e-05
5.94099e-05
6.58876e-05
6.5881e-05
5.34407e-05
5.94131e-05
5.94145e-05
6.58869e-05
5.94089e-05
5.94106e-05
3.12675e-05
3.12662e-05
3.84916e-05
3.13978e-05
3.13966e-05
2.22592e-05
2.21078e-05
3.12712e-05
3.12701e-05
3.84946e-05
3.14015e-05
3.14004e-05
2.22631e-05
2.21118e-05
3.12712e-05
3.12699e-05
3.8495e-05
3.14016e-05
3.14003e-05
2.22629e-05
2.21115e-05
3.85969e-05
3.16539e-05
3.16529e-05
3.1527e-05
3.15259e-05
2.24104e-05
2.25601e-05
3.85974e-05
3.16542e-05
3.16529e-05
3.15273e-05
3.1526e-05
2.24103e-05
2.256e-05
3.86004e-05
3.16579e-05
3.16568e-05
3.1531e-05
3.15299e-05
2.24142e-05
2.25639e-05
3.86008e-05
3.1658e-05
3.16566e-05
3.1531e-05
3.15297e-05
2.2414e-05
2.25637e-05
5.61425e-05
6.2226e-05
5.48431e-05
6.05066e-05
6.22116e-05
5.48557e-05
5.61339e-05
5.72099e-05
6.02279e-05
6.47049e-05
6.40871e-05
6.02293e-05
6.40998e-05
5.72165e-05
5.7255e-05
6.41221e-05
6.47116e-05
6.02599e-05
6.02589e-05
6.41097e-05
5.72463e-05
5.60921e-05
6.04944e-05
6.21854e-05
5.48085e-05
6.22007e-05
5.47979e-05
5.61e-05
5.61414e-05
5.48425e-05
6.22219e-05
6.05049e-05
5.48552e-05
6.22076e-05
5.61313e-05
5.72071e-05
6.02288e-05
6.47057e-05
6.40819e-05
6.02301e-05
6.40943e-05
5.72176e-05
5.72536e-05
6.41165e-05
6.47124e-05
6.02605e-05
6.02594e-05
6.41045e-05
5.72435e-05
5.60898e-05
6.04927e-05
5.48081e-05
6.21816e-05
5.47965e-05
6.21962e-05
5.60996e-05
6.58324e-05
5.33443e-05
5.93447e-05
5.93463e-05
5.93387e-05
5.93405e-05
6.58389e-05
6.58335e-05
5.335e-05
5.93419e-05
5.93414e-05
6.58392e-05
5.93422e-05
5.93422e-05
6.58635e-05
5.3384e-05
5.93765e-05
5.93778e-05
6.58582e-05
5.93769e-05
5.93773e-05
5.61383e-05
6.222e-05
5.48407e-05
6.0504e-05
6.22057e-05
5.48537e-05
5.61265e-05
5.7204e-05
6.02263e-05
6.47034e-05
6.40795e-05
6.40915e-05
6.02277e-05
5.72142e-05
5.72503e-05
6.41139e-05
6.47102e-05
6.02582e-05
6.4102e-05
6.02568e-05
5.72404e-05
5.60846e-05
6.04918e-05
6.21798e-05
5.48067e-05
6.21944e-05
5.47949e-05
5.60966e-05
5.61419e-05
6.22253e-05
5.48416e-05
6.05054e-05
6.2211e-05
5.48547e-05
5.61316e-05
5.72066e-05
6.02246e-05
6.47074e-05
6.40872e-05
6.40992e-05
6.02332e-05
5.7217e-05
5.72532e-05
6.41215e-05
6.47137e-05
6.02634e-05
6.41097e-05
5.72432e-05
6.02554e-05
5.60901e-05
6.04932e-05
6.2185e-05
5.48079e-05
6.21997e-05
5.4796e-05
5.60999e-05
5.61681e-05
6.22312e-05
5.48963e-05
6.05475e-05
5.61794e-05
6.22453e-05
5.48835e-05
5.73218e-05
6.03158e-05
6.47464e-05
6.41572e-05
6.03157e-05
6.41457e-05
5.73113e-05
5.72756e-05
6.41242e-05
6.02861e-05
6.474e-05
6.02876e-05
5.72864e-05
6.41359e-05
5.62195e-05
6.05588e-05
6.22697e-05
5.49249e-05
6.2256e-05
5.49393e-05
5.62082e-05
5.61725e-05
6.22365e-05
5.48976e-05
6.05489e-05
5.61828e-05
6.22507e-05
5.48847e-05
5.73248e-05
6.03209e-05
6.475e-05
6.41648e-05
6.41536e-05
6.03142e-05
5.73141e-05
5.72782e-05
6.41319e-05
6.02846e-05
6.4744e-05
5.72893e-05
6.41435e-05
6.02922e-05
5.62227e-05
6.05603e-05
6.22751e-05
5.4926e-05
6.22614e-05
5.49404e-05
5.62123e-05
6.58325e-05
5.33403e-05
5.93431e-05
5.93448e-05
5.93401e-05
5.93386e-05
6.58399e-05
6.58642e-05
5.33923e-05
5.93718e-05
5.93746e-05
5.93779e-05
6.58566e-05
5.93794e-05
5.61426e-05
6.22257e-05
5.4843e-05
6.05067e-05
6.22113e-05
5.48558e-05
5.61324e-05
5.72078e-05
6.02302e-05
6.47079e-05
6.40871e-05
6.40997e-05
6.02313e-05
5.72183e-05
5.72544e-05
6.41219e-05
6.47146e-05
6.02614e-05
6.41099e-05
6.02605e-05
5.72442e-05
5.60908e-05
6.04945e-05
6.21853e-05
5.48088e-05
6.22e-05
5.47971e-05
5.61006e-05
5.61386e-05
5.48412e-05
6.22198e-05
6.05046e-05
5.48541e-05
6.22054e-05
5.61284e-05
5.72022e-05
6.02252e-05
6.47017e-05
6.40769e-05
6.40901e-05
6.0226e-05
5.72126e-05
5.72488e-05
6.41124e-05
6.47089e-05
6.02564e-05
6.40998e-05
5.72386e-05
6.02557e-05
5.60869e-05
6.04925e-05
5.48073e-05
6.21794e-05
5.47955e-05
6.21942e-05
5.60966e-05
5.61733e-05
6.22368e-05
5.48986e-05
6.05503e-05
5.61835e-05
6.22509e-05
5.4886e-05
5.73258e-05
6.0322e-05
6.47508e-05
6.4165e-05
6.03169e-05
6.4154e-05
5.73151e-05
5.72793e-05
6.41319e-05
6.02898e-05
6.47445e-05
6.02922e-05
5.72905e-05
6.4144e-05
5.62235e-05
6.05616e-05
6.22755e-05
5.49275e-05
6.22617e-05
5.49417e-05
5.62131e-05
5.61693e-05
5.48971e-05
6.22309e-05
6.05483e-05
5.61795e-05
5.48844e-05
6.22452e-05
5.73204e-05
6.03144e-05
6.47453e-05
6.41558e-05
6.41436e-05
6.0315e-05
5.73095e-05
5.72738e-05
6.41217e-05
6.02852e-05
6.47384e-05
5.7285e-05
6.41345e-05
6.02858e-05
5.62195e-05
6.05596e-05
5.49257e-05
6.22696e-05
5.494e-05
6.22558e-05
5.62091e-05
5.61404e-05
5.4842e-05
6.22216e-05
6.05051e-05
5.48549e-05
6.22074e-05
5.61277e-05
5.72052e-05
6.02266e-05
6.47037e-05
6.408e-05
6.02279e-05
6.4093e-05
5.72156e-05
5.72515e-05
6.41152e-05
6.47103e-05
6.02583e-05
6.02571e-05
6.41029e-05
5.72414e-05
5.6086e-05
6.0493e-05
5.48082e-05
6.21815e-05
5.47965e-05
6.2196e-05
5.60989e-05
5.61743e-05
6.2237e-05
5.4899e-05
6.05502e-05
5.61836e-05
6.22512e-05
5.48865e-05
5.73278e-05
6.0318e-05
6.47478e-05
6.41651e-05
5.73166e-05
6.03182e-05
6.41536e-05
5.7281e-05
6.41316e-05
6.02884e-05
6.47414e-05
5.7292e-05
6.02894e-05
6.4144e-05
5.62237e-05
6.05615e-05
6.22756e-05
5.49278e-05
5.6214e-05
6.22619e-05
5.49421e-05
5.61696e-05
5.48978e-05
6.22328e-05
6.05487e-05
5.61813e-05
5.48851e-05
6.2247e-05
5.7323e-05
6.03161e-05
6.47469e-05
6.41583e-05
6.4147e-05
6.0316e-05
5.73122e-05
5.72766e-05
6.41247e-05
6.02865e-05
6.47403e-05
5.72876e-05
6.41372e-05
6.02878e-05
5.62214e-05
6.056e-05
5.49265e-05
6.22713e-05
5.49407e-05
6.22577e-05
5.62098e-05
6.58319e-05
5.33399e-05
5.93433e-05
5.9346e-05
5.9339e-05
5.93362e-05
6.58392e-05
6.58637e-05
5.33921e-05
5.93711e-05
5.93739e-05
5.93767e-05
6.58562e-05
5.93796e-05
5.61422e-05
5.48429e-05
6.22242e-05
6.0506e-05
5.48557e-05
6.22099e-05
5.61322e-05
5.72075e-05
6.02306e-05
6.47089e-05
6.4086e-05
6.02317e-05
6.4098e-05
5.7218e-05
5.72541e-05
6.41204e-05
6.47155e-05
6.02622e-05
6.02612e-05
6.41086e-05
5.72439e-05
5.60906e-05
6.04939e-05
5.48089e-05
6.21839e-05
5.47973e-05
6.21986e-05
5.61003e-05
5.61721e-05
5.48981e-05
6.22331e-05
6.05484e-05
5.61822e-05
5.48855e-05
6.22471e-05
5.7325e-05
6.032e-05
6.47488e-05
6.41597e-05
5.73143e-05
6.03187e-05
6.41484e-05
5.72786e-05
6.41265e-05
6.02888e-05
6.47424e-05
5.72897e-05
6.029e-05
6.41386e-05
5.62221e-05
6.05597e-05
5.4927e-05
6.22716e-05
5.62118e-05
5.49412e-05
6.22579e-05
5.61731e-05
5.48987e-05
6.22354e-05
6.05497e-05
5.61832e-05
5.48861e-05
6.22496e-05
5.73258e-05
6.03202e-05
6.4752e-05
6.41636e-05
6.41527e-05
6.03204e-05
5.7315e-05
5.72792e-05
6.41308e-05
6.02905e-05
6.47455e-05
5.72903e-05
6.41424e-05
6.02917e-05
5.62232e-05
6.05609e-05
5.49275e-05
6.2274e-05
5.49416e-05
6.22603e-05
5.62129e-05
6.5863e-05
5.33944e-05
5.93736e-05
5.93749e-05
6.58569e-05
5.93791e-05
5.93809e-05
5.73452e-05
6.03444e-05
6.41678e-05
6.47747e-05
6.03457e-05
5.73582e-05
6.41785e-05
5.62478e-05
6.06008e-05
5.49848e-05
6.22822e-05
5.49676e-05
5.626e-05
6.22947e-05
6.03485e-05
6.47803e-05
6.03501e-05
2.10348e-05
3.66864e-05
3.66874e-05
4.19402e-05
2.17934e-05
3.75923e-05
3.75931e-05
4.26814e-05
2.25701e-05
3.8472e-05
3.84731e-05
4.33805e-05
2.33612e-05
3.93247e-05
3.93261e-05
4.40475e-05
2.41629e-05
4.01496e-05
4.01515e-05
4.46987e-05
2.49713e-05
4.09462e-05
4.09485e-05
4.53246e-05
2.57826e-05
4.17142e-05
4.17168e-05
4.59223e-05
2.65933e-05
4.24534e-05
4.24561e-05
4.64985e-05
2.74001e-05
4.31637e-05
4.31664e-05
4.70524e-05
2.81998e-05
4.38456e-05
4.3848e-05
4.75853e-05
2.89895e-05
4.44988e-05
4.4501e-05
4.80984e-05
2.97668e-05
4.51238e-05
4.51258e-05
4.85827e-05
3.05291e-05
4.5721e-05
4.57227e-05
4.90491e-05
3.12742e-05
4.62905e-05
4.6292e-05
4.94976e-05
3.20003e-05
4.68328e-05
4.68341e-05
4.99193e-05
3.27057e-05
4.73481e-05
4.73494e-05
5.03236e-05
3.3389e-05
4.7837e-05
4.78381e-05
5.07083e-05
3.40487e-05
4.82996e-05
4.83006e-05
5.10727e-05
3.4684e-05
4.87365e-05
4.87375e-05
5.14143e-05
3.52937e-05
4.91481e-05
4.91491e-05
5.17392e-05
3.58772e-05
4.95348e-05
4.95357e-05
5.20436e-05
3.64339e-05
4.9897e-05
4.98978e-05
5.23283e-05
3.69632e-05
5.02351e-05
5.02358e-05
5.25952e-05
3.74648e-05
5.05496e-05
5.05501e-05
5.2845e-05
3.79386e-05
5.08408e-05
5.08412e-05
5.30763e-05
4.19563e-05
4.24902e-05
3.66889e-05
3.66882e-05
3.73702e-05
3.73701e-05
4.19361e-05
4.25054e-05
3.66878e-05
3.66886e-05
3.73696e-05
3.73702e-05
3.66924e-05
3.73683e-05
3.7374e-05
4.19623e-05
4.25005e-05
3.6691e-05
3.73691e-05
3.73726e-05
4.24945e-05
4.26743e-05
4.31963e-05
3.75943e-05
3.75941e-05
3.82564e-05
3.82564e-05
4.26604e-05
4.32144e-05
3.7594e-05
3.75941e-05
3.82558e-05
3.82566e-05
3.75981e-05
3.82546e-05
3.82604e-05
4.26672e-05
4.31913e-05
3.75967e-05
3.82555e-05
3.82591e-05
4.3197e-05
4.33693e-05
4.38769e-05
3.84739e-05
3.84739e-05
3.91159e-05
3.91159e-05
4.3356e-05
4.38923e-05
3.84736e-05
3.8474e-05
3.91154e-05
3.91162e-05
3.84779e-05
3.91142e-05
3.91198e-05
4.33744e-05
4.38834e-05
3.84766e-05
3.91154e-05
3.91187e-05
4.38787e-05
4.40437e-05
4.45327e-05
3.93266e-05
3.93264e-05
3.99478e-05
3.99476e-05
4.40322e-05
4.4543e-05
3.93263e-05
3.93269e-05
3.99473e-05
3.99483e-05
3.93304e-05
3.9946e-05
3.99515e-05
4.40397e-05
4.45363e-05
3.93292e-05
3.99477e-05
3.99505e-05
4.45294e-05
4.46954e-05
4.51657e-05
4.01514e-05
4.01512e-05
4.07513e-05
4.07511e-05
4.46815e-05
4.51578e-05
4.01512e-05
4.01519e-05
4.07509e-05
4.07522e-05
4.0155e-05
4.07497e-05
4.0755e-05
4.46892e-05
4.51676e-05
4.0154e-05
4.07519e-05
4.07541e-05
4.51597e-05
4.53139e-05
4.5775e-05
4.09478e-05
4.09475e-05
4.15262e-05
4.15261e-05
4.53174e-05
4.5762e-05
4.09475e-05
4.09487e-05
4.15257e-05
4.15273e-05
4.09514e-05
4.15249e-05
4.15298e-05
4.53152e-05
4.57712e-05
4.09506e-05
4.15275e-05
4.15291e-05
4.57692e-05
4.5916e-05
4.63532e-05
4.17155e-05
4.17153e-05
4.22723e-05
4.22722e-05
4.59215e-05
4.6348e-05
4.17151e-05
4.17165e-05
4.22717e-05
4.22734e-05
4.17191e-05
4.22713e-05
4.22759e-05
4.59167e-05
4.63517e-05
4.17184e-05
4.2274e-05
4.22752e-05
4.63586e-05
4.64955e-05
4.69116e-05
4.24543e-05
4.24542e-05
4.29896e-05
4.29895e-05
4.6497e-05
4.69117e-05
4.24539e-05
4.24554e-05
4.2989e-05
4.29905e-05
4.2458e-05
4.29888e-05
4.29931e-05
4.64921e-05
4.69248e-05
4.24572e-05
4.29916e-05
4.29923e-05
4.69201e-05
4.70535e-05
4.74518e-05
4.31644e-05
4.31643e-05
4.3678e-05
4.3678e-05
4.70479e-05
4.74474e-05
4.3164e-05
4.31653e-05
4.36775e-05
4.36789e-05
4.31679e-05
4.36777e-05
4.36815e-05
4.70412e-05
4.74523e-05
4.31671e-05
4.36803e-05
4.36807e-05
4.74598e-05
4.75836e-05
4.79787e-05
4.38457e-05
4.38457e-05
4.43379e-05
4.43381e-05
4.75854e-05
4.7963e-05
4.38453e-05
4.38465e-05
4.43374e-05
4.43387e-05
4.38492e-05
4.43382e-05
4.43413e-05
4.75856e-05
4.79725e-05
4.38484e-05
4.43404e-05
4.43405e-05
4.79658e-05
4.80864e-05
4.84725e-05
4.44985e-05
4.44986e-05
4.49696e-05
4.49698e-05
4.80937e-05
4.84598e-05
4.44981e-05
4.44991e-05
4.49691e-05
4.49702e-05
4.4502e-05
4.49702e-05
4.49728e-05
4.80922e-05
4.84605e-05
4.45011e-05
4.49722e-05
4.4972e-05
4.84636e-05
4.85769e-05
4.89417e-05
4.51232e-05
4.51232e-05
4.55734e-05
4.55735e-05
4.85792e-05
4.89353e-05
4.51228e-05
4.51237e-05
4.55729e-05
4.55738e-05
4.51265e-05
4.55743e-05
4.55765e-05
4.85824e-05
4.89382e-05
4.51256e-05
4.55761e-05
4.55756e-05
4.89363e-05
4.90431e-05
4.93925e-05
4.572e-05
4.572e-05
4.61495e-05
4.61496e-05
4.90469e-05
4.9387e-05
4.57196e-05
4.57204e-05
4.6149e-05
4.61498e-05
4.57231e-05
4.61507e-05
4.61524e-05
4.90482e-05
4.93837e-05
4.57222e-05
4.61522e-05
4.61515e-05
4.93836e-05
4.94883e-05
4.98211e-05
4.62893e-05
4.62893e-05
4.66982e-05
4.66984e-05
4.94923e-05
4.98145e-05
4.62889e-05
4.62895e-05
4.66976e-05
4.66985e-05
4.62922e-05
4.66997e-05
4.67012e-05
4.94976e-05
4.98142e-05
4.62913e-05
4.67011e-05
4.67003e-05
4.9818e-05
4.99126e-05
5.02289e-05
4.68312e-05
4.68314e-05
4.72201e-05
4.72203e-05
4.99172e-05
5.0224e-05
4.68308e-05
4.68315e-05
4.72195e-05
4.72204e-05
4.68342e-05
4.72218e-05
4.7223e-05
4.99207e-05
5.02236e-05
4.68333e-05
4.7223e-05
4.72221e-05
5.0225e-05
5.0318e-05
5.06113e-05
4.73465e-05
4.73466e-05
4.77155e-05
4.77157e-05
5.0321e-05
5.06138e-05
4.7346e-05
4.73466e-05
4.77149e-05
4.77156e-05
4.73493e-05
4.77172e-05
4.77182e-05
5.03204e-05
5.06191e-05
4.73485e-05
4.77183e-05
4.77174e-05
5.06116e-05
5.0708e-05
5.09805e-05
4.78353e-05
4.78354e-05
4.81846e-05
4.81849e-05
5.07052e-05
5.09795e-05
4.78348e-05
4.78353e-05
4.81841e-05
4.81846e-05
4.78379e-05
4.81863e-05
4.81872e-05
5.07039e-05
5.09843e-05
4.78372e-05
4.81874e-05
4.81865e-05
5.09791e-05
5.10694e-05
5.13334e-05
4.82979e-05
4.82981e-05
4.86279e-05
4.86281e-05
5.10709e-05
5.13302e-05
4.82975e-05
4.82977e-05
4.86275e-05
4.86277e-05
4.83005e-05
4.86296e-05
4.86304e-05
5.10663e-05
5.13298e-05
4.82998e-05
4.86307e-05
4.86298e-05
5.13294e-05
5.1412e-05
5.16622e-05
4.87348e-05
4.87349e-05
4.90458e-05
4.9046e-05
5.1413e-05
5.16582e-05
4.87345e-05
4.87345e-05
4.90454e-05
4.90454e-05
4.87373e-05
4.90475e-05
4.90482e-05
5.14141e-05
5.16601e-05
4.87367e-05
4.90485e-05
4.90477e-05
5.16593e-05
5.17377e-05
5.197e-05
4.91463e-05
4.91464e-05
4.94385e-05
4.94388e-05
5.17379e-05
5.19684e-05
4.91461e-05
4.9146e-05
4.94382e-05
4.94382e-05
4.91487e-05
4.94404e-05
4.94409e-05
5.17381e-05
5.19686e-05
4.91482e-05
4.94413e-05
4.94404e-05
5.19715e-05
5.20421e-05
5.22622e-05
4.95329e-05
4.95331e-05
4.98066e-05
4.9807e-05
5.2043e-05
5.22574e-05
4.95328e-05
4.95325e-05
4.98065e-05
4.98063e-05
4.95352e-05
4.98086e-05
4.9809e-05
5.2043e-05
5.22578e-05
4.95348e-05
4.98094e-05
4.98086e-05
5.22641e-05
5.23282e-05
5.25359e-05
4.9895e-05
4.98952e-05
5.01506e-05
5.0151e-05
5.23312e-05
5.25266e-05
4.9895e-05
4.98945e-05
5.01505e-05
5.01502e-05
4.98973e-05
5.01527e-05
5.01529e-05
5.23311e-05
5.25267e-05
4.98969e-05
5.01534e-05
5.01525e-05
5.25374e-05
5.25946e-05
5.27906e-05
5.0233e-05
5.02333e-05
5.04708e-05
5.04712e-05
5.26021e-05
5.27798e-05
5.02331e-05
5.02325e-05
5.04708e-05
5.04703e-05
5.02353e-05
5.04729e-05
5.0473e-05
5.26018e-05
5.27798e-05
5.0235e-05
5.04735e-05
5.04727e-05
5.27914e-05
5.28444e-05
5.30266e-05
5.05474e-05
5.05478e-05
5.07677e-05
5.07681e-05
5.28537e-05
5.30254e-05
5.05476e-05
5.05468e-05
5.07677e-05
5.07671e-05
5.05496e-05
5.07699e-05
5.07699e-05
5.28515e-05
5.30253e-05
5.05494e-05
5.07704e-05
5.07697e-05
5.3026e-05
5.30767e-05
5.3233e-05
5.08386e-05
5.08389e-05
5.10417e-05
5.10419e-05
5.30773e-05
5.32432e-05
5.08388e-05
5.08379e-05
5.10417e-05
5.1041e-05
5.08408e-05
5.10438e-05
5.10438e-05
5.30756e-05
5.32429e-05
5.08406e-05
5.10443e-05
5.10436e-05
5.32336e-05
6.48244e-05
7.13592e-05
7.13932e-05
6.47257e-05
6.95345e-05
6.9561e-05
6.48278e-05
7.13655e-05
7.13996e-05
6.47338e-05
2.10336e-05
2.10361e-05
2.10385e-05
2.16018e-05
2.16005e-05
2.1603e-05
2.16056e-05
5.35348e-05
6.02156e-05
2.90719e-05
3.69153e-05
6.03315e-05
2.93166e-05
5.3336e-05
6.95331e-05
6.95597e-05
5.35339e-05
2.9076e-05
6.02132e-05
3.69162e-05
2.93207e-05
6.03343e-05
5.33394e-05
6.69234e-05
6.69337e-05
4.21424e-05
6.69827e-05
6.69959e-05
6.50519e-05
7.14429e-05
6.49561e-05
7.14775e-05
6.95905e-05
6.96178e-05
6.50553e-05
7.14495e-05
6.49602e-05
7.14841e-05
2.1792e-05
2.17945e-05
2.17971e-05
2.23744e-05
2.2373e-05
2.23756e-05
2.23782e-05
5.39981e-05
6.05042e-05
3.00495e-05
3.78148e-05
5.38078e-05
6.06163e-05
3.02931e-05
6.95891e-05
6.96166e-05
5.39966e-05
3.00535e-05
6.05022e-05
3.78155e-05
5.38102e-05
3.0297e-05
6.06185e-05
6.70998e-05
6.71098e-05
4.28597e-05
6.71575e-05
6.71702e-05
6.52716e-05
7.15281e-05
6.51789e-05
7.1563e-05
6.96486e-05
6.96766e-05
6.52746e-05
7.15346e-05
6.5182e-05
7.15696e-05
2.25687e-05
2.25713e-05
2.2574e-05
2.31623e-05
2.31609e-05
2.31636e-05
2.31663e-05
5.44419e-05
6.07818e-05
3.10205e-05
3.86878e-05
5.42594e-05
6.089e-05
3.12617e-05
6.96472e-05
6.96755e-05
5.44414e-05
3.10246e-05
6.07801e-05
3.86888e-05
5.42611e-05
3.12657e-05
6.08921e-05
6.7271e-05
6.72811e-05
4.35433e-05
6.73267e-05
6.73387e-05
6.54838e-05
7.1614e-05
6.53946e-05
7.16492e-05
6.97085e-05
6.97372e-05
6.54851e-05
7.16205e-05
6.53982e-05