/*--------------------------------*- C++ -*----------------------------------*\
| =========                 |                                                 |
| \\      /  F ield         | OpenFOAM: The Open Source CFD Toolbox           |
|  \\    /   O peration     | Version:  v1906                                 |
|   \\  /    A nd           | Web:      www.OpenFOAM.com                      |
|    \\/     M anipulation  |                                                 |
\*---------------------------------------------------------------------------*/
FoamFile
{
    version     2.0;
    format      ascii;
    class       volScalarField;
    location    "700";
    object      nut;
}
// * * * * * * * * * * * * * * * * * * * * * * * * * * * * * * * * * * * * * //

dimensions      [0 2 -1 0 0 0 0];


internalField   nonuniform List<scalar> 
42840
(
0.000203426
0.000198749
0.000198742
0.00018066
0.000181567
0.000180659
0.000181467
0.00019872
0.000198718
0.000199778
0.000199775
0.000180607
0.000181549
0.000198736
0.000198708
0.000199793
0.000199766
0.000198726
0.000199807
0.000199783
0.000180597
0.000181539
0.00019874
0.0001998
0.000199798
0.000181544
0.000200128
0.000200143
9.97149e-05
5.0713e-05
5.07241e-05
9.96525e-05
2.38792e-05
2.38836e-05
9.97234e-05
5.07124e-05
5.07189e-05
9.96629e-05
0.00020343
0.000203432
0.000203439
0.000205317
0.000205321
0.000205323
0.00020533
0.000143707
0.000103352
0.000207734
0.000199106
0.000103437
0.000208202
0.00014351
2.3877e-05
2.38814e-05
0.0001437
0.000207733
0.000103355
0.000199099
0.0002082
0.000103439
0.000143506
7.78128e-05
7.78118e-05
0.000181043
7.78377e-05
7.78381e-05
7.78755e-05
7.78727e-05
2.38798e-05
2.38843e-05
2.38785e-05
2.38829e-05
7.78143e-05
7.78105e-05
0.000180992
7.78415e-05
7.78373e-05
2.38889e-05
2.38845e-05
2.38875e-05
2.38832e-05
0.000181149
7.78727e-05
7.78682e-05
7.78468e-05
7.78428e-05
9.97184e-05
5.07134e-05
5.07245e-05
9.96559e-05
0.000143699
0.000103353
0.000207721
0.000199077
0.000103437
0.000208188
0.000143506
0.000143702
0.00010335
0.000207723
0.000199075
0.000103436
0.00020819
0.000143508
9.97147e-05
5.07343e-05
5.07235e-05
9.97744e-05
9.9718e-05
5.07342e-05
5.07239e-05
9.9778e-05
0.000143722
0.000199431
0.000103516
0.000209107
0.000103435
0.000208653
0.000143906
0.000143725
0.000199429
0.000103514
0.000209109
0.000103432
0.000208655
0.000143909
7.78103e-05
7.78059e-05
0.000181071
7.78376e-05
7.78357e-05
2.38797e-05
2.38842e-05
2.38882e-05
2.38838e-05
0.000181081
7.78683e-05
7.78663e-05
7.78426e-05
7.78382e-05
2.38888e-05
2.38844e-05
0.000143703
0.000103345
0.000207726
0.000199092
0.000103431
0.000208189
0.00014351
9.97193e-05
5.07082e-05
5.07147e-05
9.96587e-05
0.000143698
0.00020772
0.000103332
0.000199065
0.000208187
0.000103417
0.000143505
9.97249e-05
5.07307e-05
5.07226e-05
9.9783e-05
0.000143727
0.000199447
0.000103509
0.000209108
0.000103427
0.000208658
0.00014391
9.97208e-05
5.07249e-05
5.07185e-05
9.9779e-05
0.000143722
0.000199419
0.000209106
0.000103495
0.000208652
0.000103414
0.000143906
9.97189e-05
5.07152e-05
5.07215e-05
9.96564e-05
0.000143703
0.000207731
0.000103351
0.000199083
0.000208198
0.000103436
0.00014351
9.97163e-05
5.07115e-05
5.07179e-05
9.9654e-05
0.000143727
0.00019946
0.000103516
0.000209121
0.000103433
0.000208666
0.000143914
9.97187e-05
5.07317e-05
5.07254e-05
9.97787e-05
0.000143726
0.000199437
0.000209117
0.000103513
0.000208662
0.000103433
0.00014391
9.97163e-05
5.07282e-05
5.07218e-05
9.9776e-05
7.77942e-05
7.78132e-05
0.00018106
7.78239e-05
7.78409e-05
2.38789e-05
2.38834e-05
2.3886e-05
2.38817e-05
0.00018107
7.78546e-05
7.78718e-05
7.78266e-05
7.78454e-05
2.3888e-05
2.38836e-05
0.000143702
0.000207733
0.00010335
0.000199097
0.0002082
0.000103435
0.000143509
9.97145e-05
5.0709e-05
5.07202e-05
9.96518e-05
9.97206e-05
5.07093e-05
5.07204e-05
9.96594e-05
0.000143723
0.000199453
0.000209119
0.000103517
0.000208664
0.000103436
0.000143906
0.000143726
0.000199451
0.000209119
0.000103513
0.000208664
0.000103432
0.000143909
9.97142e-05
5.07298e-05
5.07196e-05
9.9774e-05
9.97216e-05
5.07306e-05
5.07197e-05
9.97801e-05
2.38787e-05
2.3883e-05
2.38782e-05
2.38827e-05
0.000181109
7.78688e-05
7.78692e-05
7.78451e-05
7.7843e-05
2.38876e-05
2.38834e-05
2.38873e-05
2.38829e-05
0.00020957
0.000103512
0.000143935
5.07322e-05
9.97762e-05
0.00010351
5.07298e-05
2.38879e-05
2.38875e-05
3.66973e-05
4.10373e-05
9.43509e-05
9.96842e-05
4.10373e-05
9.43251e-05
3.66962e-05
2.03078e-05
5.07189e-05
7.89838e-05
7.89944e-05
2.03057e-05
2.03076e-05
7.90064e-05
5.07184e-05
7.8996e-05
2.03097e-05
3.66925e-05
9.96843e-05
4.10329e-05
9.43003e-05
4.10331e-05
9.43268e-05
3.66937e-05
2.38813e-05
2.38815e-05
3.6699e-05
9.43647e-05
4.1037e-05
9.96945e-05
9.43405e-05
4.1037e-05
3.6698e-05
2.0309e-05
5.07137e-05
7.90017e-05
7.90202e-05
2.03069e-05
2.03088e-05
7.90322e-05
5.07174e-05
7.90139e-05
2.03109e-05
3.66943e-05
9.96932e-05
9.4316e-05
4.10325e-05
9.43411e-05
4.10329e-05
3.66954e-05
2.38791e-05
2.38793e-05
8.14456e-05
2.17029e-05
2.16999e-05
2.17009e-05
2.16979e-05
8.14523e-05
0.000105058
0.000128364
7.78216e-05
4.86259e-05
0.000128424
4.86333e-05
0.000105035
0.000105065
0.000128347
7.78209e-05
4.86199e-05
0.00012841
4.8621e-05
0.000105046
0.000105068
4.8638e-05
7.78291e-05
0.000128498
0.000128437
4.86308e-05
0.000105091
0.000105078
4.86275e-05
7.78273e-05
0.000128484
0.00012842
4.8622e-05
0.000105097
8.14419e-05
2.1699e-05
2.1696e-05
2.1701e-05
2.1698e-05
8.14353e-05
0.000105184
0.00012865
4.86481e-05
7.78832e-05
0.000105161
0.000128708
4.86494e-05
0.000105192
0.000128633
4.86352e-05
7.78848e-05
0.00010517
0.000128693
4.86435e-05
8.1482e-05
2.17065e-05
2.17035e-05
8.1475e-05
2.17085e-05
2.17055e-05
2.38819e-05
2.38822e-05
2.38806e-05
2.38809e-05
8.14449e-05
2.17029e-05
2.16996e-05
2.17009e-05
2.16976e-05
8.1452e-05
0.000105062
0.000128364
7.78255e-05
4.86265e-05
4.86338e-05
0.000128428
0.000105039
0.000105064
0.000128346
7.78212e-05
4.86151e-05
4.86224e-05
0.00012841
0.000105041
0.000105072
4.86386e-05
7.78307e-05
0.000128502
4.86315e-05
0.000105093
0.000128438
0.000105074
4.86272e-05
7.78267e-05
0.000128482
4.862e-05
0.000105097
0.00012842
8.14416e-05
2.1699e-05
2.16957e-05
2.1701e-05
2.16977e-05
8.14345e-05
2.38868e-05
2.38866e-05
2.38855e-05
2.38852e-05
8.14621e-05
2.17027e-05
2.16995e-05
8.14551e-05
2.17048e-05
2.17015e-05
0.000105137
0.000128642
7.78619e-05
4.86481e-05
4.86408e-05
0.000128582
0.000105155
0.000105137
0.000128623
7.78579e-05
4.86364e-05
4.86292e-05
0.000128563
0.00010516
0.000105124
4.86362e-05
0.000128511
7.78573e-05
0.000105105
4.8643e-05
0.000128573
0.000105129
4.86248e-05
0.000128492
7.78532e-05
0.000105106
4.86316e-05
0.000128554
8.14649e-05
2.17066e-05
2.17034e-05
2.17046e-05
2.17013e-05
8.14719e-05
3.6699e-05
4.10396e-05
9.43649e-05
9.96874e-05
4.10347e-05
9.43404e-05
3.66981e-05
2.03087e-05
5.07194e-05
7.90034e-05
7.9022e-05
2.03066e-05
2.03086e-05
7.9034e-05
5.07187e-05
7.90157e-05
2.03106e-05
3.66944e-05
9.96877e-05
4.1033e-05
9.43157e-05
4.10337e-05
9.43409e-05
3.66954e-05
3.66999e-05
4.10414e-05
9.43492e-05
9.97454e-05
3.67009e-05
4.10416e-05
9.43752e-05
2.03114e-05
5.07285e-05
7.90296e-05
2.03135e-05
7.90196e-05
2.03116e-05
7.90079e-05
5.0729e-05
2.03095e-05
7.90184e-05
3.67047e-05
9.97447e-05
4.10457e-05
9.43982e-05
3.67038e-05
4.10456e-05
9.4373e-05
3.67017e-05
4.10384e-05
9.43646e-05
9.97489e-05
3.67026e-05
4.10445e-05
9.43894e-05
2.03124e-05
5.07289e-05
7.90573e-05
7.90391e-05
2.03144e-05
2.03125e-05
7.90277e-05
5.07292e-05
2.03105e-05
7.90458e-05
3.67064e-05
9.9748e-05
4.10488e-05
9.44126e-05
4.10427e-05
9.43885e-05
3.67057e-05
8.1445e-05
2.17003e-05
2.17029e-05
2.16983e-05
2.17009e-05
8.14521e-05
0.000105067
0.000128345
7.78214e-05
4.8617e-05
4.86238e-05
0.000128406
0.000105043
0.000105063
0.000128371
7.78195e-05
4.86255e-05
0.000128427
4.86329e-05
0.00010504
0.000105076
4.86291e-05
7.78266e-05
0.000128479
4.86217e-05
0.000128419
0.000105099
0.000105073
4.86377e-05
7.78225e-05
0.0001285
0.000128445
4.86305e-05
0.000105096
8.14417e-05
2.16964e-05
2.1699e-05
2.16984e-05
2.1701e-05
8.14347e-05
2.38818e-05
2.38821e-05
2.38861e-05
2.38859e-05
8.14623e-05
2.17002e-05
2.17027e-05
8.14551e-05
2.17022e-05
2.17048e-05
0.000105139
0.00012862
7.78578e-05
4.86383e-05
0.000128563
4.86311e-05
0.000105162
0.000105136
0.000128641
7.78535e-05
4.86469e-05
4.86396e-05
0.000128588
0.000105158
0.000105131
4.86267e-05
0.000128492
7.78532e-05
0.00012855
0.000105108
4.86336e-05
0.000105128
4.86352e-05
0.000128517
7.78509e-05
0.000105104
4.86421e-05
0.000128571
8.14649e-05
2.1704e-05
2.17066e-05
2.1702e-05
2.17046e-05
8.14721e-05
2.38867e-05
2.38865e-05
3.66934e-05
4.10368e-05
9.43481e-05
9.96902e-05
4.10367e-05
9.43218e-05
3.66982e-05
2.03073e-05
5.07096e-05
7.89783e-05
7.89892e-05
2.03052e-05
2.03071e-05
7.90012e-05
5.07133e-05
7.89906e-05
2.03092e-05
3.66934e-05
9.96888e-05
4.10323e-05
9.4297e-05
4.10327e-05
9.43239e-05
3.66912e-05
3.67017e-05
9.43647e-05
4.1041e-05
9.97543e-05
3.67025e-05
9.43894e-05
4.10414e-05
2.03126e-05
5.07261e-05
7.90553e-05
2.03147e-05
7.90376e-05
2.03128e-05
7.90259e-05
5.07247e-05
2.03107e-05
7.90439e-05
3.67065e-05
9.97551e-05
9.44124e-05
4.10456e-05
3.67055e-05
9.43885e-05
4.10454e-05
3.67025e-05
4.10408e-05
9.43461e-05
9.975e-05
3.66965e-05
4.10412e-05
9.43726e-05
2.03109e-05
5.07238e-05
7.90247e-05
7.9014e-05
2.0313e-05
2.03111e-05
7.90025e-05
5.07202e-05
2.0309e-05
7.90134e-05
3.66997e-05
9.97509e-05
4.10453e-05
9.43957e-05
4.10452e-05
9.43699e-05
3.67062e-05
3.66957e-05
9.43707e-05
4.1037e-05
9.9688e-05
9.43366e-05
4.1037e-05
3.67026e-05
2.03095e-05
5.07166e-05
7.90043e-05
7.90237e-05
2.03074e-05
2.03093e-05
7.90356e-05
5.07203e-05
7.90166e-05
2.03114e-05
3.66989e-05
9.96882e-05
9.43126e-05
4.10325e-05
9.43466e-05
4.10328e-05
3.66918e-05
3.66974e-05
4.10368e-05
9.4356e-05
9.96856e-05
4.10369e-05
9.43315e-05
3.66964e-05
2.03082e-05
5.07128e-05
7.89841e-05
7.90026e-05
2.03062e-05
2.03081e-05
7.90147e-05
5.07166e-05
7.89963e-05
2.03101e-05
3.66928e-05
9.96857e-05
4.10324e-05
9.43068e-05
4.10327e-05
9.4332e-05
3.66938e-05
3.67064e-05
9.43612e-05
4.10411e-05
9.97496e-05
3.66996e-05
9.43948e-05
4.10413e-05
2.03131e-05
5.07306e-05
7.90586e-05
7.90401e-05
2.03152e-05
2.03133e-05
7.90284e-05
5.07269e-05
2.03112e-05
7.90473e-05
3.6703e-05
9.97488e-05
9.44185e-05
4.10455e-05
9.4385e-05
4.10454e-05
3.671e-05
3.67001e-05
4.1041e-05
9.43556e-05
9.9747e-05
3.6701e-05
4.10412e-05
9.43804e-05
2.03119e-05
5.07271e-05
7.90376e-05
7.90202e-05
2.03139e-05
2.0312e-05
7.90082e-05
5.07234e-05
2.031e-05
7.90265e-05
3.67049e-05
9.97463e-05
4.10454e-05
9.44036e-05
4.10454e-05
9.43795e-05
3.67039e-05
8.14451e-05
2.16993e-05
2.17027e-05
2.16972e-05
2.17007e-05
8.14522e-05
0.000105059
0.000128339
7.78076e-05
4.86143e-05
4.86218e-05
0.000128392
0.000105035
0.00010506
0.000128366
7.78245e-05
4.86265e-05
0.00012843
4.86332e-05
0.000105036
0.000105068
4.86266e-05
7.78108e-05
0.000128466
4.86193e-05
0.000128413
0.000105092
0.000105069
4.86386e-05
7.78296e-05
0.000128503
0.00012844
4.86311e-05
0.000105093
8.14419e-05
2.16953e-05
2.16988e-05
2.16974e-05
2.17008e-05
8.14348e-05
2.38811e-05
2.38813e-05
2.3884e-05
2.38837e-05
8.14625e-05
2.16991e-05
2.17026e-05
8.14552e-05
2.17011e-05
2.17046e-05
0.000105131
0.000128607
7.7842e-05
4.86358e-05
0.000128556
4.86284e-05
0.000105155
0.000105132
0.000128644
7.7861e-05
4.86479e-05
4.86405e-05
0.000128583
0.000105156
0.000105124
4.8624e-05
0.000128485
7.78392e-05
0.000128536
0.0001051
4.8631e-05
0.000105125
4.86361e-05
0.000128512
7.78562e-05
0.000105101
4.86431e-05
0.000128574
8.1465e-05
2.1703e-05
2.17065e-05
2.1701e-05
2.17044e-05
8.14724e-05
2.38859e-05
2.38857e-05
3.66935e-05
9.43519e-05
4.10399e-05
9.96835e-05
9.43256e-05
4.10335e-05
3.67006e-05
2.03085e-05
5.0715e-05
7.89841e-05
7.9003e-05
2.03064e-05
2.03083e-05
7.9015e-05
5.07143e-05
7.89964e-05
2.03104e-05
3.66968e-05
9.96841e-05
9.43008e-05
4.10295e-05
9.4328e-05
4.10355e-05
3.66897e-05
3.66952e-05
9.43583e-05
4.10373e-05
9.9691e-05
9.43315e-05
4.10373e-05
3.67023e-05
2.03089e-05
5.07152e-05
7.89978e-05
7.90101e-05
2.03068e-05
2.03087e-05
7.90222e-05
5.07146e-05
7.901e-05
2.03108e-05
3.66985e-05
9.96899e-05
9.43065e-05
4.10328e-05
9.43341e-05
4.10332e-05
3.66915e-05
3.67044e-05
9.43499e-05
4.1038e-05
9.97453e-05
3.66974e-05
9.43765e-05
4.10442e-05
2.03121e-05
5.07246e-05
7.9038e-05
7.902e-05
2.03142e-05
2.03123e-05
7.90084e-05
5.07249e-05
2.03102e-05
7.90266e-05
3.67009e-05
9.9744e-05
9.43993e-05
4.10484e-05
9.43737e-05
4.10421e-05
3.6708e-05
3.67061e-05
9.43558e-05
4.10414e-05
9.97511e-05
3.66992e-05
9.43826e-05
4.10417e-05
2.03125e-05
5.07248e-05
7.90454e-05
7.90334e-05
2.03146e-05
2.03127e-05
7.9022e-05
5.07253e-05
2.03106e-05
7.9034e-05
3.67027e-05
9.97514e-05
9.44056e-05
4.10458e-05
9.43795e-05
4.10456e-05
3.67094e-05
2.38807e-05
2.3881e-05
2.38803e-05
2.38806e-05
8.14624e-05
2.17027e-05
2.16998e-05
8.14557e-05
2.17048e-05
2.17018e-05
0.000105131
0.000128639
7.78605e-05
4.86467e-05
0.000105153
0.000128581
4.86403e-05
0.000105141
0.000128624
7.78581e-05
4.86378e-05
0.00010516
0.000128564
4.86308e-05
0.000105122
4.86356e-05
0.00012851
7.78537e-05
0.0001051
0.000128569
4.86423e-05
0.000105128
4.86261e-05
0.000128493
7.78536e-05
0.00010511
0.000128554
4.86328e-05
8.14655e-05
2.17066e-05
2.17036e-05
8.14723e-05
2.17046e-05
2.17016e-05
2.38857e-05
2.38853e-05
2.38852e-05
2.3885e-05
2.03158e-05
7.90316e-05
5.07327e-05
2.03138e-05
7.90484e-05
3.67071e-05
9.98042e-05
4.10493e-05
9.44032e-05
3.67086e-05
4.10505e-05
9.44255e-05
5.07361e-05
2.38899e-05
2.38895e-05
0.000199187
0.000199187
0.000204062
0.000199996
0.000199996
0.000189285
0.000188262
0.0001379
0.000160909
0.000160891
0.000180764
0.000160975
0.000160954
0.000137859
0.000138243
0.000161533
0.000161521
0.000181783
0.000138199
0.000161619
0.000161608
0.000137901
0.000160906
0.000160898
0.000180748
0.000160959
0.000160953
0.000137861
0.00013812
0.000181397
0.000161443
0.000161433
0.000161386
0.000161377
0.000138157
0.000137908
0.000160886
0.000160904
0.000180833
0.000160993
0.000160974
0.000137861
0.000138119
0.000181327
0.000161444
0.000161462
0.000161364
0.00016138
0.000138166
0.0001379
0.000160879
0.000160897
0.000180822
0.000160985
0.000160964
0.000137853
0.000138111
0.000181317
0.000161435
0.000161456
0.000161354
0.000161377
0.000138158
0.000138117
0.000181335
0.000161458
0.000161447
0.000138158
0.000161378
0.000161366
0.000199187
0.000199192
0.000204066
0.000199997
0.000200002
0.000189286
0.000188263
0.000199195
0.0001992
0.000204068
0.000200004
0.00020001
0.000189295
0.000188272
0.000199201
0.000199201
0.000204075
0.00020001
0.000200011
0.000189296
0.000188274
0.000204694
0.0002016
0.000201599
0.000200802
0.000200803
0.000190307
0.000191324
0.000204699
0.000201601
0.000201605
0.000200803
0.000200808
0.000190308
0.000191326
0.0002047
0.000201607
0.000201613
0.00020081
0.000200815
0.000190316
0.000191334
0.000204707
0.000201613
0.000201614
0.000200817
0.000200817
0.000190318
0.000191335
0.000170437
0.000137223
0.000175599
0.00014362
0.000137148
0.00017558
0.000170526
0.000159956
0.000146899
0.000103397
0.000122359
0.000146937
0.000122423
0.000159891
0.000160063
0.000122489
0.000103393
0.000147063
0.000147026
0.000122426
0.000160115
0.000170325
0.0001436
0.000137054
0.000175344
0.000137133
0.000175375
0.000170229
0.000170441
0.000175595
0.000137213
0.000143616
0.000175581
0.000137139
0.000170509
0.000159945
0.0001469
0.000103398
0.000122355
0.000146938
0.000122416
0.000159908
0.000160066
0.000122481
0.000103396
0.000147063
0.000147025
0.000122422
0.0001601
0.000170314
0.000143593
0.000175346
0.000137046
0.000175367
0.000137122
0.000170238
0.000137946
0.000180869
0.000161148
0.000161138
0.000161058
0.000161048
0.000137989
0.000137949
0.000180912
0.000161132
0.00016111
0.000137988
0.000161077
0.000161058
0.000138074
0.000181236
0.000161231
0.000161219
0.000138036
0.000161291
0.000161274
0.000170432
0.000137207
0.00017559
0.000143616
0.000137134
0.000175578
0.00017048
0.000159933
0.000146894
0.000103397
0.000122348
0.000122407
0.000146931
0.000159897
0.000160054
0.000122474
0.000103395
0.000147056
0.000122415
0.000147018
0.000160089
0.000170277
0.000143592
0.000137041
0.000175343
0.000137116
0.000175363
0.000170231
0.000170435
0.000137217
0.000175592
0.000143619
0.000137142
0.000175579
0.000170504
0.00015993
0.000146862
0.000103395
0.000122353
0.000122413
0.000146937
0.000159892
0.00016005
0.000122479
0.000103391
0.000147061
0.00012242
0.000160089
0.000146989
0.000170308
0.000143595
0.000137049
0.000175345
0.000137125
0.000175366
0.000170231
0.000170688
0.000137226
0.000175788
0.000143805
0.000170633
0.000137299
0.000175803
0.000160371
0.000147295
0.000103475
0.000122603
0.000147262
0.000122545
0.000160399
0.00016024
0.000122481
0.000147139
0.000103477
0.000147178
0.000160214
0.000122539
0.00017083
0.000143826
0.000137387
0.000176009
0.000137316
0.000176004
0.000170885
0.000170698
0.000137235
0.000175791
0.000143808
0.000170636
0.000137308
0.000175806
0.000160368
0.000147299
0.000103471
0.000122608
0.000122551
0.000147232
0.000160395
0.000160239
0.000122486
0.000147108
0.000103475
0.000160209
0.000122545
0.000147179
0.000170834
0.000143829
0.000137397
0.000176012
0.000137325
0.000176006
0.000170894
0.000137949
0.00018085
0.00016113
0.000161148
0.000161065
0.000161047
0.000137997
0.000138082
0.000181303
0.000161196
0.00016122
0.000161288
0.000138034
0.000161305
0.000170436
0.000137217
0.000175593
0.00014362
0.000137143
0.000175578
0.000170503
0.000159934
0.000146884
0.000103391
0.000122351
0.000122414
0.000146921
0.000159897
0.000160055
0.00012248
0.000103387
0.000147045
0.00012242
0.000147008
0.00016009
0.000170308
0.000143596
0.00013705
0.000175344
0.000137126
0.000175365
0.000170232
0.000170425
0.000175588
0.000137203
0.000143615
0.000175574
0.000137128
0.000170493
0.000159918
0.000146868
0.000103376
0.000122333
0.000122397
0.000146904
0.000159881
0.000160039
0.000122463
0.000103374
0.000147029
0.000122401
0.000160075
0.000146993
0.000170298
0.000143591
0.00017534
0.000137035
0.000175361
0.000137111
0.000170222
0.000170698
0.000137235
0.00017579
0.00014381
0.000170636
0.00013731
0.000175807
0.000160371
0.000147299
0.000103467
0.000122608
0.000147239
0.000122551
0.000160399
0.00016024
0.000122485
0.000147128
0.000103471
0.000147173
0.000160214
0.000122546
0.000170835
0.000143831
0.000137397
0.000176012
0.000137325
0.000176006
0.000170894
0.000170687
0.000175786
0.00013722
0.000143804
0.000170626
0.000175802
0.000137294
0.000160357
0.000147269
0.000103454
0.000122593
0.000122532
0.000147238
0.000160381
0.000160225
0.000122466
0.000147114
0.000103456
0.000160199
0.000122529
0.000147151
0.000170825
0.000143826
0.000176008
0.000137383
0.000176001
0.000137311
0.000170882
0.000170441
0.000175594
0.000137212
0.00014362
0.000175582
0.000137138
0.000170482
0.000159937
0.000146894
0.000103395
0.000122349
0.000146931
0.000122413
0.000159901
0.000160058
0.000122478
0.000103392
0.000147056
0.000147019
0.000122417
0.000160092
0.000170282
0.000143596
0.000175349
0.000137046
0.000175368
0.000137121
0.00017024
0.000170717
0.000137239
0.000175796
0.000143813
0.000170639
0.000137314
0.000175814
0.000160389
0.000147304
0.000103473
0.000122617
0.000160417
0.000147272
0.000122558
0.000160263
0.000122492
0.000147147
0.000103477
0.000160228
0.000147186
0.000122555
0.000170839
0.000143832
0.000137403
0.00017602
0.000170905
0.00013733
0.000176012
0.000170691
0.000175795
0.00013723
0.000143808
0.000170642
0.000175809
0.000137304
0.000160375
0.000147295
0.000103473
0.000122607
0.000122549
0.000147262
0.000160399
0.000160242
0.000122481
0.000147139
0.000103475
0.000160217
0.000122544
0.000147178
0.000170841
0.00014383
0.000176015
0.000137392
0.000176009
0.00013732
0.000170888
0.000137941
0.000180839
0.000161128
0.000161149
0.000161054
0.000161032
0.000137987
0.000138073
0.000181292
0.000161189
0.000161211
0.000161278
0.000138026
0.0001613
0.000170437
0.000175595
0.000137214
0.000143619
0.000175581
0.000137139
0.000170506
0.000159934
0.000146886
0.000103394
0.000122349
0.000146923
0.000122411
0.000159897
0.000160054
0.000122477
0.000103391
0.000147048
0.000147011
0.000122417
0.000160091
0.00017031
0.000143595
0.000175347
0.000137046
0.000175368
0.000137122
0.000170233
0.000170703
0.000175793
0.000137231
0.000143806
0.000170642
0.000175809
0.000137305
0.000160382
0.000147311
0.000103476
0.00012261
0.000160409
0.000147271
0.000122553
0.00016025
0.000122488
0.000147146
0.000103479
0.000160225
0.000147185
0.000122547
0.00017084
0.000143827
0.000176015
0.000137393
0.000170899
0.000176009
0.000137321
0.000170701
0.000175794
0.000137231
0.000143808
0.000170638
0.000175809
0.000137305
0.000160373
0.000147288
0.000103472
0.000122606
0.000122548
0.000147255
0.000160399
0.000160242
0.000122482
0.000147131
0.000103474
0.000160215
0.000122543
0.00014717
0.000170836
0.00014383
0.000176015
0.000137394
0.000176009
0.000137321
0.000170897
0.000138073
0.000181305
0.000161216
0.000161203
0.000138032
0.000161303
0.000161294
0.000160547
0.000147381
0.000122611
0.000103551
0.000147421
0.000160535
0.000122667
0.000171076
0.000144009
0.000176235
0.00013741
0.000176221
0.000171031
0.000137478
0.000147373
0.000103551
0.000147416
0.000123039
0.00013942
0.000139415
0.000137114
0.000125837
0.000142545
0.00014254
0.000139697
0.000128794
0.000145631
0.000145627
0.000142093
0.000131889
0.000148675
0.000148671
0.000144383
0.000135102
0.000151669
0.000151667
0.000146667
0.000138411
0.000154608
0.000154607
0.000148882
0.000141799
0.000157487
0.000157488
0.000151012
0.000145246
0.000160303
0.000160305
0.000153097
0.000148736
0.000163056
0.000163058
0.000155128
0.000152255
0.000165743
0.000165745
0.000157111
0.000155787
0.000168363
0.000168363
0.000159052
0.00015932
0.000170913
0.000170913
0.000160887
0.00016284
0.000173393
0.000173393
0.000162687
0.000166335
0.000175801
0.0001758
0.000164449
0.000169796
0.000178137
0.000178134
0.000166112
0.000173214
0.000180397
0.000180394
0.000167737
0.00017658
0.000182581
0.000182578
0.000169305
0.000179886
0.00018469
0.000184686
0.00017081
0.000183125
0.000186721
0.000186717
0.000172235
0.000186289
0.000188674
0.000188671
0.000173617
0.000189374
0.00019055
0.000190546
0.000174928
0.000192373
0.000192347
0.000192343
0.000176174
0.000195281
0.000194066
0.000194061
0.000177363
0.000198095
0.000195706
0.000195701
0.000178502
0.000200811
0.000197267
0.000197261
0.000179579
0.000137278
0.000139095
0.00013941
0.000139405
0.000141757
0.000141754
0.000137134
0.000139239
0.00013942
0.000139401
0.000141766
0.000141749
0.000139427
0.000141768
0.000141773
0.000137318
0.000139174
0.000139435
0.000141762
0.000141781
0.00013914
0.000139674
0.000141509
0.000142536
0.000142532
0.000144854
0.000144851
0.000139582
0.000141665
0.000142545
0.000142526
0.000144862
0.000144846
0.000142552
0.000144864
0.000144871
0.000139632
0.000141485
0.000142559
0.000144859
0.000144879
0.000141514
0.000142033
0.000143858
0.000145622
0.000145619
0.000147908
0.000147905
0.000141948
0.000143988
0.000145632
0.000145614
0.000147918
0.000147902
0.000145639
0.000147919
0.000147924
0.000142066
0.00014391
0.000145647
0.000147915
0.000147933
0.000143864
0.000144363
0.000146152
0.000148665
0.000148662
0.000150915
0.000150912
0.000144292
0.000146241
0.000148676
0.000148658
0.000150925
0.000150909
0.00014868
0.000150925
0.00015093
0.000144335
0.000146182
0.000148689
0.000150923
0.000150939
0.00014612
0.000146648
0.000148409
0.00015166
0.000151655
0.000153868
0.000153864
0.000146564
0.000148355
0.000151671
0.000151653
0.000153878
0.000153863
0.000151673
0.000153878
0.000153881
0.000146604
0.000148412
0.000151682
0.000153878
0.000153891
0.000148343
0.000148811
0.000150596
0.000154597
0.000154593
0.000156761
0.000156757
0.000148853
0.000150505
0.000154608
0.000154592
0.000156771
0.000156757
0.00015461
0.000156773
0.000156774
0.00014882
0.000150558
0.00015462
0.000156774
0.000156784
0.00015053
0.000150966
0.000152673
0.000157475
0.000157471
0.000159592
0.000159589
0.000151024
0.000152635
0.000157485
0.00015747
0.000159602
0.000159588
0.000157487
0.000159605
0.000159605
0.000150973
0.000152656
0.000157497
0.000159607
0.000159615
0.000152682
0.000153072
0.000154713
0.00016029
0.000160287
0.00016236
0.000162357
0.000153103
0.000154713
0.000160301
0.000160286
0.00016237
0.000162355
0.000160303
0.000162374
0.000162372
0.00015305
0.000154797
0.000160313
0.000162376
0.000162382
0.000154746
0.000155128
0.000156727
0.000163041
0.000163038
0.000165061
0.000165059
0.000155114
0.000156696
0.000163053
0.000163037
0.000165072
0.000165057
0.000163053
0.000165078
0.000165074
0.000155046
0.000156719
0.000163064
0.000165079
0.000165084
0.000156757
0.000157094
0.000158744
0.000165727
0.000165724
0.000167696
0.000167695
0.000157127
0.00015864
0.000165738
0.000165722
0.000167707
0.000167691
0.000165739
0.000167714
0.000167708
0.000157111
0.000158689
0.000165749
0.000167716
0.000167718
0.000158638
0.000158965
0.000160623
0.000168344
0.000168342
0.000170262
0.000170261
0.000159033
0.000160543
0.000168355
0.000168339
0.000170273
0.000170257
0.000168356
0.000170282
0.000170274
0.000159011
0.000160534
0.000168366
0.000170283
0.000170284
0.00016055
0.000160843
0.000162427
0.000170893
0.00017089
0.000172759
0.000172757
0.000160876
0.000162388
0.000170904
0.000170887
0.00017277
0.000172753
0.000170904
0.00017278
0.00017277
0.000160884
0.000162394
0.000170914
0.00017278
0.000172779
0.000162378
0.000162644
0.000164189
0.000173372
0.000173369
0.000175184
0.000175182
0.000162684
0.000164157
0.000173383
0.000173365
0.000175195
0.000175177
0.000173382
0.000175206
0.000175194
0.00016268
0.000164122
0.000173392
0.000175205
0.000175204
0.000164119
0.000164385
0.000165884
0.000175778
0.000175776
0.000177535
0.000177534
0.000164426
0.000165844
0.00017579
0.000175772
0.000177546
0.000177529
0.000175788
0.00017756
0.000177546
0.000164448
0.000165829
0.000175799
0.000177558
0.000177556
0.000165853
0.000166067
0.000167515
0.000178112
0.00017811
0.000179813
0.000179812
0.00016611
0.000167488
0.000178123
0.000178106
0.000179824
0.000179807
0.000178122
0.000179839
0.000179824
0.000166122
0.000167475
0.000178133
0.000179836
0.000179834
0.000167481
0.000167702
0.000169051
0.000180371
0.00018037
0.000182017
0.000182016
0.000167731
0.000169076
0.000180383
0.000180365
0.000182028
0.00018201
0.000180382
0.000182042
0.000182027
0.000167715
0.000169103
0.000180392
0.000182039
0.000182038
0.000169049
0.000169307
0.000170577
0.000182556
0.000182554
0.000184144
0.000184143
0.000169296
0.000170577
0.000182568
0.000182549
0.000184156
0.000184137
0.000182565
0.00018417
0.000184154
0.000169273
0.0001706
0.000182576
0.000184166
0.000184165
0.000170562
0.000170792
0.000172065
0.000184664
0.000184663
0.000186194
0.000186193
0.00017081
0.00017205
0.000184676
0.000184656
0.000186206
0.000186186
0.000184673
0.00018622
0.000186203
0.000170767
0.000172035
0.000184685
0.000186217
0.000186215
0.000172032
0.000172222
0.00017346
0.000186695
0.000186693
0.000188167
0.000188166
0.000172238
0.000173439
0.000186707
0.000186686
0.00018818
0.000188158
0.000186703
0.000188193
0.000188176
0.000172235
0.000173442
0.000186715
0.00018819
0.000188188
0.000173434
0.000173609
0.000174783
0.000188648
0.000188646
0.000190062
0.00019006
0.00017362
0.000174779
0.000188661
0.000188639
0.000190075
0.000190053
0.000188656
0.000190088
0.00019007
0.000173611
0.00017477
0.000188669
0.000190084
0.000190082
0.000174789
0.000174922
0.000176068
0.000190523
0.000190522
0.000191878
0.000191877
0.000174937
0.000176041
0.000190537
0.000190514
0.000191892
0.000191869
0.000190531
0.000191905
0.000191886
0.000174928
0.000176034
0.000190544
0.000191901
0.000191899
0.000176077
0.000176178
0.000177294
0.00019232
0.000192319
0.000193615
0.000193615
0.000176207
0.000177235
0.000192335
0.00019231
0.00019363
0.000193606
0.000192328
0.000193643
0.000193623
0.000176197
0.000177226
0.000192341
0.000193638
0.000193636
0.0001773
0.000177366
0.000178455
0.000194038
0.000194037
0.000195274
0.000195274
0.000177426
0.000178385
0.000194053
0.000194028
0.000195289
0.000195264
0.000194045
0.000195303
0.000195282
0.000177415
0.000178377
0.000194059
0.000195297
0.000195295
0.000178455
0.000178504
0.000179551
0.000195677
0.000195677
0.000196855
0.000196854
0.000178577
0.000179551
0.000195693
0.000195667
0.00019687
0.000196844
0.000195685
0.000196883
0.000196862
0.000178554
0.000179542
0.000195698
0.000196877
0.000196876
0.000179541
0.000179586
0.000180504
0.000197238
0.000197237
0.000198356
0.000198354
0.000179599
0.000180585
0.000197254
0.000197227
0.000198371
0.000198344
0.000197245
0.000198385
0.000198363
0.000179578
0.000180574
0.000197259
0.000198378
0.000198377
0.000180504
9.23028e-05
5.00205e-05
5.003e-05
9.20648e-05
2.36122e-05
2.36167e-05
9.23026e-05
5.00193e-05
5.0028e-05
9.20883e-05
0.000123034
0.000123038
0.000123057
0.000125122
0.000125117
0.00012512
0.000125139
0.000122003
9.3842e-05
0.000134849
0.000140205
9.41291e-05
0.000135718
0.000121362
2.36102e-05
2.36148e-05
0.000121999
0.000134866
9.38364e-05
0.0001402
0.000135733
9.41342e-05
0.00012137
7.37692e-05
7.37664e-05
0.000138
7.38662e-05
7.38671e-05
9.2781e-05
5.00503e-05
9.25505e-05
5.006e-05
2.36217e-05
2.36263e-05
9.27819e-05
5.00477e-05
9.25617e-05
5.00571e-05
0.000125832
0.000125836
0.000125855
0.000128041
0.000128036
0.00012804
0.000128059
0.000123316
9.44455e-05
0.000138349
0.000143321
0.0001227
9.47209e-05
0.000139228
2.36197e-05
2.36244e-05
0.000123312
0.000138365
9.44422e-05
0.000143316
0.000122706
0.000139243
9.4729e-05
7.40335e-05
7.40319e-05
0.000140405
7.41282e-05
7.41277e-05
9.32363e-05
5.00801e-05
9.30157e-05
5.00899e-05
2.36316e-05
2.36363e-05
9.32414e-05
5.00772e-05
9.30196e-05
5.0087e-05
0.000128789
0.000128793
0.000128812
0.000131104
0.000131099
0.000131103
0.000131122
0.000124585
9.50299e-05
0.000141879
0.000146397
0.000123988
9.53039e-05
0.000142762
2.36296e-05
2.36344e-05
0.000124584
0.000141895
9.50211e-05
0.000146392
0.000123992
0.000142778
9.52979e-05
7.42879e-05
7.42865e-05
0.000142708
7.43785e-05
7.43768e-05
9.36734e-05
5.01101e-05
9.34623e-05
5.01201e-05
2.36417e-05
2.36466e-05
9.36773e-05
5.01071e-05