/*--------------------------------*- C++ -*----------------------------------*\
| =========                 |                                                 |
| \\      /  F ield         | OpenFOAM: The Open Source CFD Toolbox           |
|  \\    /   O peration     | Version:  v1906                                 |
|   \\  /    A nd           | Web:      www.OpenFOAM.com                      |
|    \\/     M anipulation  |                                                 |
\*---------------------------------------------------------------------------*/
FoamFile
{
    version     2.0;
    format      ascii;
    class       surfaceScalarField;
    location    "700";
    object      phi;
}
// * * * * * * * * * * * * * * * * * * * * * * * * * * * * * * * * * * * * * //

dimensions      [0 3 -1 0 0 0 0];
oriented        oriented;


internalField   nonuniform List<scalar> 
123680
(
1.19324e-07
1.1965e-07
-7.10639e-08
-7.1109e-08
0.00118432
-0.00118442
-1.19697e-06
-1.19653e-07
-4.86136e-08
0.0011323
-2.34315e-07
1.24128e-06
2.72156e-07
9.11215e-07
-2.12651e-07
2.66455e-07
-8.5299e-07
-0.00113233
-1.19151e-06
-1.19651e-07
-4.86076e-08
0.00113194
-2.34325e-07
1.23579e-06
2.72174e-07
9.11057e-07
-2.15366e-07
2.69161e-07
-8.52869e-07
-0.00113196
1.22556e-06
1.19162e-06
-1.98261e-07
-2.03552e-07
0.000268069
-0.000270084
-0.00027009
1.22517e-06
1.19122e-06
-1.98084e-07
-2.03374e-07
0.000268075
1.23097e-06
1.19432e-06
-1.957e-07
-2.0353e-07
0.000268075
-0.000270101
-1.27511e-06
-1.23851e-06
-0.00026808
2.39185e-07
2.47067e-07
0.000270107
-4.85324e-08
0.00113147
-2.39825e-07
1.2752e-06
2.77524e-07
9.11147e-07
-2.127e-07
2.66376e-07
-8.53023e-07
-0.00113149
-1.23646e-06
-1.1929e-07
-4.84982e-08
0.00113191
-2.42687e-07
1.2807e-06
2.80373e-07
9.16676e-07
-2.1552e-07
2.69144e-07
-8.58541e-07
-0.00113194
-1.2137e-07
-0.00113142
-4.9363e-08
-1.23066e-06
2.7744e-07
-2.39643e-07
-8.52705e-07
2.66317e-07
-2.12471e-07
9.11163e-07
0.00113139
1.2806e-06
-1.21344e-07
-0.00113187
-4.93453e-08
-1.23614e-06
2.80277e-07
-2.42486e-07
-8.58232e-07
2.69094e-07
-2.15309e-07
9.16689e-07
0.00113184
-1.98406e-07
-2.00835e-07
0.000268097
-0.000270131
-1.24118e-06
-0.000268101
2.41977e-07
2.44327e-07
0.000270137
-4.86397e-08
0.00113257
-2.37199e-07
1.23861e-06
2.75036e-07
9.13979e-07
-2.15454e-07
2.69227e-07
-8.55693e-07
-0.0011326
-1.23103e-06
-1.19266e-07
-4.84868e-08
0.00113157
-2.42683e-07
1.27524e-06
2.80363e-07
9.13804e-07
-2.15443e-07
2.69086e-07
-8.55701e-07
-0.00113159
-1.21718e-07
-0.00113252
-4.94387e-08
-1.19401e-06
2.74945e-07
-2.36997e-07
-8.55383e-07
2.69179e-07
-2.15217e-07
9.13988e-07
0.0011325
1.27515e-06
-1.21311e-07
-0.00113152
-4.9327e-08
-1.23071e-06
2.80269e-07
-2.4249e-07
-8.55381e-07
2.69031e-07
-2.15228e-07
9.13806e-07
0.00113149
-1.19374e-07
-4.84962e-08
0.00113136
-2.37032e-07
1.26978e-06
2.74747e-07
9.11154e-07
-2.12685e-07
2.66365e-07
-8.53042e-07
-0.00113139
-1.21712e-07
-0.00113225
-4.94458e-08
-1.19665e-06
2.7206e-07
-2.34114e-07
-8.52671e-07
2.66389e-07
9.1123e-07
-2.12438e-07
0.00113223
1.26968e-06
0.00113129
-1.21402e-07
-0.00113131
-4.93496e-08
-1.22526e-06
2.74658e-07
-2.36849e-07
-8.52703e-07
2.66312e-07
-2.12453e-07
9.1382e-07
-1.95775e-07
-2.03419e-07
0.000268056
-0.000270079
-1.23569e-06
-0.00026806
2.39314e-07
2.46886e-07
0.000270085
-1.19722e-07
-4.86114e-08
0.00113247
-2.34411e-07
1.23591e-06
2.72273e-07
9.11349e-07
-2.1542e-07
2.69209e-07
-8.53064e-07
-0.0011325
-1.21713e-07
-0.00113189
-4.94351e-08
-1.19119e-06
2.72077e-07
-2.34121e-07
-8.52499e-07
2.69097e-07
9.11129e-07
-2.15169e-07
0.00113186
1.23581e-06
0.0011324
-1.21753e-07
-0.00113242
-4.94556e-08
-1.19131e-06
2.72193e-07
-2.34218e-07
-8.5275e-07
2.69149e-07
-2.15198e-07
9.11367e-07
-0.000268073
2.41761e-07
2.47067e-07
-4.964e-08
-2.3679e-07
1.26966e-06
2.74622e-07
9.13817e-07
-2.12393e-07
2.66305e-07
-8.55277e-07
-1.22082e-07
-2.34162e-07
1.2358e-06
2.72157e-07
-2.15126e-07
2.69147e-07
-1.22447e-07
-4.97475e-08
9.11358e-07
-8.52665e-07
-1.12636e-10
-7.01764e-08
0.000229293
3.21285e-08
2.16083e-09
-0.000229257
-5.19403e-09
2.24454e-08
0.000193525
-3.58475e-09
-0.000193538
6.82938e-09
-4.36662e-08
0.000193578
3.31121e-09
-0.000193544
1.32404e-10
2.87264e-08
0.000229238
-1.32088e-08
9.01183e-10
-0.000229254
5.14183e-09
1.12034e-08
9.79803e-05
-9.79966e-05
-6.77597e-09
-2.00532e-08
9.80176e-05
-9.79908e-05
-7.02537e-08
-2.13385e-10
0.000229321
2.16446e-09
3.00698e-08
-0.000229283
-5.16503e-09
2.46958e-08
0.000193545
-4.15536e-09
-0.000193561
6.81011e-09
-4.59653e-08
0.0001936
3.914e-09
-0.000193565
2.88174e-08
2.28712e-10
0.000229263
8.85023e-10
-1.11569e-08
-0.000229282
-7.10728e-08
-7.10474e-08
0.00118432
-0.00118442
-7.11041e-08
-7.1077e-08
0.0011839
-0.001184
-7.11566e-08
-7.11674e-08
0.00118413
-0.00118423
-0.00118413
-7.35442e-08
-7.35765e-08
0.00118404
-0.00118413
-7.35524e-08
-7.3531e-08
0.00118403
-0.00118371
-7.35751e-08
-7.35461e-08
0.00118362
-0.00118394
-7.36269e-08
-7.36539e-08
0.00118384
7.01803e-08
-1.64981e-09
0.000250197
4.03356e-09
-1.93116e-07
-0.000250076
-9.74633e-09
-2.46595e-08
6.64174e-08
0.0002454
4.08717e-09
-0.000245436
0.00115244
3.61804e-09
-1.40127e-07
1.00837e-06
-7.57677e-07
8.30713e-07
-9.36846e-07
-0.0011525
-4.88934e-08
1.24125e-06
0.00113228
-1.20369e-07
-8.52865e-07
2.66438e-07
-2.12572e-07
9.11229e-07
-1.19684e-06
2.7212e-07
-2.34225e-07
2.0707e-08
4.59177e-08
0.000245474
-1.66579e-08
-0.000245419
-1.0505e-07
-3.71003e-09
0.00115239
-1.41637e-07
-9.36608e-07
8.308e-07
-7.57431e-07
1.00846e-06
-2.87489e-08
1.61726e-09
0.000250063
1.92182e-09
1.32636e-07
-0.00025017
5.18465e-09
1.34403e-08
9.79615e-05
-9.79801e-05
-6.81773e-09
-2.22873e-08
9.80011e-05
-9.7972e-05
-1.31207e-09
7.00913e-08
0.000250159
-1.93026e-07
4.06399e-09
-0.000250039
0.00115213
3.6207e-09
-1.4017e-07
1.00277e-06
-7.52155e-07
8.25178e-07
-9.31259e-07
-0.00115219
-9.86395e-09
-2.24932e-08
6.65087e-08
0.000245343
4.1528e-09
-0.000245382
-4.88883e-08
1.23576e-06
0.00113191
-1.2037e-07
-8.52698e-07
2.6912e-07
-2.15303e-07
9.11128e-07
-1.19139e-06
2.72144e-07
-2.34238e-07
-3.60349e-09
0.00115208
-1.41683e-07
-9.31019e-07
8.25262e-07
-7.51911e-07
1.00286e-06
2.08372e-08
4.37579e-08
0.00024542
-1.67368e-08
-0.000245362
-1.05147e-07
1.29932e-09
-2.86852e-08
0.000250025
1.32568e-07
1.87871e-09
-0.000250133
1.23032e-08
-1.11481e-08
2.48017e-08
0.000278125
-7.05063e-09
-0.000278144
1.2309e-08
-1.11116e-08
2.25087e-08
0.000278073
-7.53563e-09
-0.000278089
-1.26974e-06
-1.23587e-06
0.000270087
-0.00026807
2.4188e-07
2.47186e-07
-2.31357e-08
2.00251e-08
0.000278195
9.89484e-09
-0.000278151
-5.09977e-08
-2.32524e-08
1.99278e-08
0.00027814
1.05428e-08
-0.000278098
-4.86899e-08
-0.000278246
1.21924e-08
-1.12698e-08
2.48774e-08
-6.91675e-09
0.000278227
-0.00027819
1.21967e-08
-1.12351e-08
2.25835e-08
-7.39641e-09
0.000278174
1.1109e-08
9.79782e-05
-9.79945e-05
-1.99576e-08
9.80155e-05
-9.79887e-05
1.11476e-08
9.79774e-05
-9.79937e-05
-1.99893e-08
9.80147e-05
-9.79879e-05
9.90081e-09
2.25241e-08
0.000278124
-7.51369e-09
-0.000278137
1.23086e-08
2.25322e-08
0.00027808
-7.53978e-09
-0.000278096
0.000270104
-1.27518e-06
-1.23858e-06
-0.000268077
2.39313e-07
2.47198e-07
0.000278188
-2.07976e-08
1.04115e-08
-0.000278149
-4.86835e-08
0.000278147
-2.32284e-08
1.05182e-08
-0.000278105
-4.87395e-08
-1.98512e-08
-6.87119e-09
-9.80097e-05
9.80364e-05
1.11672e-08
5.133e-09
9.79992e-05
-1.98822e-08
-6.85392e-09
-9.80088e-05
9.80356e-05
1.12069e-08
5.1006e-09
9.79984e-05
1.23074e-06
1.19409e-06
0.000268078
-1.95591e-07
-2.0341e-07
-2.08057e-08
-4.85718e-08
-0.0002782
1.04577e-08
0.000278239
-2.32467e-08
-4.86281e-08
-0.000278156
1.05746e-08
0.000278197
9.84555e-09
-7.44557e-09
2.2551e-08
0.000278174
1.22517e-08
-7.46665e-09
2.25546e-08
0.000278131
-7.0198e-08
0.000229329
3.21416e-08
2.22149e-09
-0.000229294
2.25622e-08
0.00019356
-3.72168e-09
-0.000193573
-4.37845e-08
0.000193613
3.44695e-09
-0.000193579
2.87561e-08
0.000229274
-1.32169e-08
8.64439e-10
-0.00022929
-1.42818e-09
0.000250171
3.60139e-09
-1.95703e-07
-0.000250048
6.41004e-08
0.000245344
4.19216e-09
-0.00024538
0.00115252
3.5988e-09
-1.40014e-07
1.00837e-06
-7.57661e-07
8.30682e-07
-9.36846e-07
-0.00115257
-4.88158e-08
0.00113144
-1.20025e-07
-1.23085e-06
2.77498e-07
-2.39771e-07
-8.52899e-07
2.66361e-07
-2.12616e-07
9.11164e-07
0.000245418
-1.67501e-08
-0.000245363
-1.02644e-07
-3.6454e-09
0.00115247
-1.41522e-07
-9.36597e-07
8.30771e-07
-7.57417e-07
1.00844e-06
1.4468e-09
0.000250035
2.31955e-09
1.35212e-07
-0.000250145
0.000250199
4.56216e-09
-1.95728e-07
-0.000250079
-1.22537e-08
6.65842e-08
0.000245357
4.14564e-09
-0.000245393
0.00115267
-1.39983e-07
1.01128e-06
-7.57783e-07
8.30781e-07
-9.39742e-07
-0.00115272
-4.8803e-08
0.00113189
1.28067e-06
-1.19997e-07
-8.5842e-07
2.69128e-07
9.16684e-07
-2.15436e-07
-1.23633e-06
2.80343e-07
-2.42603e-07
0.000245431
2.31128e-08
-1.66726e-08
-0.000245376
-1.05123e-07
0.00115261
-1.41488e-07
-9.39513e-07
8.30871e-07
-7.57535e-07
1.01136e-06
0.000250066
1.37695e-09
1.3526e-07
-0.000250173
1.3187e-10
2.86377e-08
-1.31912e-08
9.14092e-10
0.000229277
-4.35857e-08
-0.000193584
3.24985e-09
0.000193618
2.24564e-08
-3.65202e-09
0.000193564
-1.11558e-10
-7.01537e-08
-0.000229296
3.20932e-08
2.16789e-09
0.000229332
2.86667e-08
-1.32059e-08
8.76898e-10
0.000229313
-4.37192e-08
6.82711e-09
-0.000193619
3.38059e-09
0.000193653
2.25751e-08
-5.08297e-09
-3.79057e-09
0.000193599
-7.01722e-08
-0.000229333
3.21072e-08
2.22992e-09
0.000229368
1.44549e-09
2.3407e-09
1.34954e-07
0.000250061
-4.91337e-08
-1.20773e-07
1.27514e-06
-2.397e-07
2.77475e-07
9.11165e-07
-2.12536e-07
2.66349e-07
-8.528e-07
-1.02552e-07
-0.000245401
-1.67614e-08
0.000245456
-0.00115241
-3.62989e-09
-1.44445e-07
-9.36181e-07
8.30935e-07
-7.56951e-07
1.00857e-06
0.00115236
4.14214e-09
6.40402e-08
0.000245382
3.6156e-09
-1.43068e-07
1.0085e-06
-7.57176e-07
-9.36406e-07
8.30848e-07
-1.42971e-09
-0.000250074
3.60999e-09
-1.95735e-07
0.000250198
1.39588e-09
1.35003e-07
0.000250093
-4.90897e-08
-1.23623e-06
-1.20741e-07
9.16693e-07
-2.15358e-07
-8.58324e-07
2.69117e-07
1.28064e-06
-2.42543e-07
2.80314e-07
2.31245e-08
-1.05038e-07
-0.000245414
-1.66889e-08
0.000245469
-0.00115257
-1.44415e-07
-9.39085e-07
8.31033e-07
-7.57069e-07
1.01149e-06
0.00115251
-1.2201e-08
4.0919e-09
6.65261e-08
0.000245395
-1.43044e-07
1.01143e-06
-7.57297e-07
-9.39304e-07
8.30947e-07
-0.000250106
4.57119e-09
-1.95759e-07
0.000250226
2.26048e-08
0.00027807
-1.01189e-08
-0.000278083
-1.34628e-08
2.24484e-08
0.000278174
-1.00946e-08
-0.000278182
0.000270133
-0.000268098
2.42105e-07
2.44454e-07
0.000278134
1.29826e-08
-0.000278095
-4.87634e-08
2.2258e-08
0.000278233
1.31072e-08
-0.000278199
-4.86049e-08
5.13495e-09
9.79829e-05
-9.80015e-05
9.80225e-05
-6.8224e-09
-9.79935e-05
-1.99409e-08
-9.80117e-05
9.80385e-05
1.1259e-08
9.80013e-05
1.19674e-06
0.000268099
-1.98291e-07
-2.00723e-07
-4.86519e-08
-0.000278146
1.30354e-08
0.000278185
2.21483e-08
-2.0718e-08
-4.84939e-08
-0.00027825
1.31588e-08
0.000278284
-1.00546e-08
2.26256e-08
0.000278121
-1.35233e-08
9.69019e-09
-1.00233e-08
2.24718e-08
0.000278224
-6.8681e-09
-9.80144e-05
9.80434e-05
5.07092e-09
9.80039e-05
-1.78083e-09
0.000250184
4.0346e-09
-1.90549e-07
-0.000250066
6.40899e-08
0.000245359
4.13273e-09
-0.00024539
0.00115239
3.62602e-09
-1.40028e-07
1.00834e-06
-7.54984e-07
8.30734e-07
-9.3413e-07
-0.00115245
-4.8896e-08
0.00113255
-1.20377e-07
-1.1942e-06
2.75007e-07
-2.37115e-07
-8.55574e-07
2.69215e-07
-2.15367e-07
9.13988e-07
0.000245428
-1.66817e-08
-0.000245378
-1.02711e-07
-3.74443e-09
0.00115235
-1.41608e-07
-9.36598e-07
8.28097e-07
-7.57459e-07
1.00573e-06
1.77715e-09
0.000250053
1.88624e-09
1.30076e-07
-0.000250157
-7.02343e-08
0.000229285
3.00457e-08
2.06903e-09
-0.000229247
2.46758e-08
0.000193492
-3.73002e-09
-0.000193508
-4.58957e-08
0.000193548
3.46371e-09
-0.000193512
2.88129e-08
0.000229228
-1.11417e-08
1.01287e-09
-0.000229246
0.000250153
-1.93138e-07
4.25119e-09
-0.000250036
0.00115236
-1.39982e-07
1.00837e-06
-7.57754e-07
8.30744e-07
-9.36866e-07
-0.00115241
-1.22202e-08
6.40771e-08
0.00024529
6.53981e-09
-0.000245324
-4.87895e-08
0.00113154
1.27521e-06
-1.19969e-07
-8.55577e-07
2.69071e-07
9.13814e-07
-2.15359e-07
-1.2309e-06
2.80334e-07
-2.42612e-07
0.00115231
-1.415e-07
-9.36638e-07
8.30831e-07
-7.57507e-07
1.00845e-06
0.000245362
2.30728e-08
-1.90609e-08
-0.000245309
-1.02605e-07
0.000250023
1.32687e-07
1.67328e-09
-0.000250126
2.87281e-08
2.28469e-10
8.97395e-10
-1.11388e-08
0.000229302
-4.5886e-08
-0.000193605
3.85129e-09
0.00019364
2.46998e-08
-4.22352e-09
0.000193585
-7.0229e-08
-2.11267e-10
-0.000229322
2.17361e-09
3.00264e-08
0.00022936
1.77622e-09
1.90404e-09
1.2982e-07
0.000250079
-4.92412e-08
-1.2111e-07
1.23855e-06
-2.3705e-07
2.74976e-07
9.13992e-07
-2.15288e-07
2.69195e-07
-8.55476e-07
-1.02622e-07
-0.000245416
-1.66966e-08
0.000245466
-0.00115229
-3.74663e-09
-1.44535e-07
-9.36166e-07
8.28256e-07
-7.56995e-07
1.00585e-06
0.00115224
4.07989e-09
6.40272e-08
0.000245397
3.62591e-09
-1.43095e-07
1.00849e-06
-7.54502e-07
-9.33691e-07
8.30896e-07
-1.77964e-09
-0.000250092
4.04265e-09
-1.90577e-07
0.00025021
2.87227e-08
-1.11236e-08
1.02497e-09
0.000229267
-4.58168e-08
6.8619e-09
-0.000193552
3.39834e-09
0.000193587
2.4685e-08
-5.12082e-09
-3.80038e-09
0.000193532
-7.02092e-08
-0.000229286
3.00036e-08
2.08124e-09
0.000229324
1.3243e-07
1.68978e-09
0.000250049
-4.90785e-08
-1.2308e-06
-1.20717e-07
9.1382e-07
-2.15279e-07
-8.55481e-07
2.69062e-07
1.27518e-06
-2.42547e-07
2.80307e-07
-0.00115226
-1.44428e-07
-9.36201e-07
8.30989e-07
-7.57043e-07
1.00856e-06
0.0011522
2.30867e-08
-1.02514e-07
-0.000245347
-1.90756e-08
0.0002454
-1.43047e-07
1.00852e-06
-7.5727e-07
-9.36426e-07
8.30907e-07
-1.21641e-08
6.48458e-09
6.40167e-08
0.000245328
-0.000250062
-1.93166e-07
4.26275e-09
0.000250179
-1.58268e-10
0.000229328
2.18103e-09
3.21315e-08
-0.000229292
0.000193557
-3.78005e-09
-0.000193572
0.000193612
3.49127e-09
-0.000193577
1.43501e-10
0.000229272
8.95453e-10
-1.32256e-08
-0.000229289
7.01475e-08
0.000250166
-1.90511e-07
4.28981e-09
-0.000250052
0.00115237
-1.40098e-07
1.00568e-06
-7.57718e-07
8.30733e-07
-9.3412e-07
-0.00115242
-2.24813e-08
6.40871e-08
0.000245337
4.21393e-09
-0.00024537
-4.87987e-08
0.00113134
-1.20064e-07
-1.22545e-06
2.7472e-07
-2.36972e-07
-8.52916e-07
2.66349e-07
-2.12603e-07
9.11168e-07
0.00115231
-1.41592e-07
-9.33895e-07
8.30818e-07
-7.57472e-07
1.00574e-06
4.37234e-08
0.000245408
-1.67212e-08
-0.000245356
-1.02639e-07
-2.87328e-08
0.000250038
1.30059e-07
1.60962e-09
-0.00025014
0.000229292
3.21116e-08
2.20098e-09
-0.000229256
-5.16421e-09
0.000193505
-3.66006e-09
-0.000193519
0.000193559
6.7677e-09
3.44161e-09
-0.000193525
0.000229237
-1.32155e-08
8.42304e-10
-0.000229253
-2.86587e-08
1.61017e-09
1.94471e-09
1.32379e-07
0.000250089
-4.9216e-08
-1.21109e-07
1.24122e-06
-2.3417e-07
2.72097e-07
9.11241e-07
-2.12492e-07
-8.52766e-07
2.66429e-07
4.58371e-08
-1.04954e-07
-0.000245457
-1.66761e-08
0.000245513
-0.00115233
-4.88465e-09
-1.44554e-07
-9.36202e-07
8.30957e-07
1.00859e-06
-7.56973e-07
0.00115229
-2.46698e-08
4.0292e-09
6.63589e-08
0.000245438
3.48092e-09
-1.4318e-07
1.00852e-06
-7.57196e-07
-9.36417e-07
8.30875e-07
7.0155e-08
-1.95951e-09
-0.000250103
4.28416e-09
-1.93144e-07
0.000250223
1.38122e-10
9.11979e-10
-1.32074e-08
0.000229311
-0.000193616
3.42183e-09
0.000193652
-3.85102e-09
0.000193596
-2.22489e-10
-0.000229331
2.19231e-09
3.20884e-08
0.000229367
-2.86455e-08
1.29798e-07
1.63454e-09
0.000250065
-4.90954e-08
-1.22535e-06
-1.20817e-07
9.11177e-07
-2.12517e-07
-8.5281e-07
2.66345e-07
1.26972e-06
-2.36888e-07
2.74696e-07
-0.00115226
0.0011522
-1.44514e-07
-9.33475e-07
8.30976e-07
-7.57006e-07
1.00857e-06
4.36435e-08
2.31472e-08
0.000245446
-1.02548e-07
-0.000245394
-1.67299e-08
-1.43146e-07
1.0058e-06
-7.57231e-07
-9.33686e-07
8.30898e-07
-2.249e-08
-1.22457e-08
4.15905e-09
6.40272e-08
0.000245375
7.0124e-08
0.000250192
-0.000250078
-1.90542e-07
4.54394e-09
-1.31986e-08
8.54115e-10
0.000229276
6.81306e-09
0.000193598
-0.000193565
3.37622e-09
-5.10098e-09
-3.72973e-09
0.000193545
0.00022933
-0.000229295
3.20682e-08
2.2133e-09
2.47748e-08
0.000278033
-7.15461e-09
-0.00027805
-1.11756e-08
2.48001e-08
0.000278132
-6.92194e-09
-0.000278148
0.000270082
-0.000268057
2.39442e-07
2.47015e-07
0.0002781
1.00329e-08
-0.000278059
-5.09461e-08
1.99864e-08
0.000278199
9.95826e-09
-0.000278157
-5.09837e-08
5.14557e-09
9.79717e-05
-9.7988e-05
9.8009e-05
-6.81806e-09
-9.79822e-05
-2.21805e-08
-9.79929e-05
9.8022e-05
1.35003e-08
9.79825e-05
1.19128e-06
0.000268058
-1.95667e-07
-2.03302e-07
-5.08358e-08
-0.000278109
1.00836e-08
0.000278151
1.98728e-08
-2.08546e-08
-5.08727e-08
-0.000278207
1.00152e-08
0.000278249
-7.08458e-09
2.48007e-08
0.000278084
-1.12324e-08
9.80605e-09
-6.85173e-09
2.48225e-08
0.000278182
-6.87116e-09
-9.80032e-05
9.80299e-05
5.08423e-09
9.79927e-05
7.01328e-08
0.000250184
-1.90483e-07
4.76124e-09
-0.00025007
0.00115226
-1.40173e-07
1.00567e-06
-7.55002e-07
8.28021e-07
-9.34128e-07
-0.00115231
-2.24635e-08
6.64848e-08
0.000245352
4.18739e-09
-0.000245387
-4.89145e-08
0.00113244
-1.20418e-07
-1.1915e-06
2.72255e-07
-2.34334e-07
-8.52947e-07
2.69194e-07
-2.15338e-07
9.11359e-07
0.00115221
-1.41672e-07
-9.33901e-07
8.28107e-07
-7.54758e-07
1.00575e-06
4.37468e-08
0.000245426
-1.67458e-08
-0.000245371
-1.05138e-07
-2.87279e-08
0.000250057
1.30031e-07
1.16311e-09
-0.000250158
-1.10238e-10
0.000229284
2.23069e-09
3.20786e-08
-0.000229248
0.000193509
-3.67174e-09
-0.000193523
0.000193563
3.40076e-09
-0.000193529
1.08222e-10
0.000229229
8.44069e-10
-1.31872e-08
-0.000229245
0.00022932
2.13255e-09
2.99702e-08
-0.000229282
-5.22322e-09
0.000193546
-3.54099e-09
-0.000193559
0.000193599
6.88857e-09
3.29322e-09
-0.000193566
0.000229263
9.36389e-10
-1.10793e-08
-0.000229281
1.30238e-09
-2.85804e-08
1.32304e-07
1.88938e-09
0.000250052
-4.9204e-08
-1.21107e-07
1.23573e-06
-2.34179e-07
2.72116e-07
9.11072e-07
-2.152e-07
-8.52647e-07
2.6913e-07
-0.00115203
-3.60576e-09
-1.44608e-07
-9.30584e-07
8.2542e-07
1.00298e-06
-7.51444e-07
0.00115198
4.36924e-08
-1.05068e-07
-0.0002454
-1.67523e-08
0.000245458
3.62862e-09
-1.43233e-07
1.00292e-06
-7.51669e-07
-9.30818e-07
8.25338e-07
-2.25039e-08
4.09918e-09
6.64473e-08
0.000245381
-1.31078e-09
7.00484e-08
-0.000250065
-1.93048e-07
4.07613e-09
0.000250185
-2.86212e-08
1.29764e-07
1.18166e-09
0.000250083
-4.91976e-08
-1.1914e-06
-1.21162e-07
9.11373e-07
-2.15253e-07
-8.52845e-07
2.69189e-07
1.23585e-06
-2.34272e-07
2.72229e-07
-0.00115216
-1.44596e-07
-9.33474e-07
8.28262e-07
-7.54292e-07
1.00588e-06
0.0011521
4.36634e-08
2.3268e-08
0.000245464
-1.05043e-07
-0.000245409
-1.67675e-08
-1.43235e-07
1.00583e-06
-7.54513e-07
-9.33693e-07
8.28183e-07
-2.24753e-08
-1.22516e-08
4.13576e-09
6.64256e-08
0.00024539
7.00885e-08
-0.000250096
-1.90501e-07
4.77286e-09
0.000250211
1.11667e-10
8.38346e-10
-1.3155e-08
0.000229268
-0.000193569
3.33179e-09
0.000193602
-3.73911e-09
0.000193549
-1.10472e-10
-0.000229287
2.2546e-09
3.20275e-08
0.000229323
9.38928e-10
-1.10473e-08
0.000229302
6.93745e-09
0.000193639
-0.000193605
3.21899e-09
-5.16281e-09
-3.607e-09
0.000193585
-0.000229321
2.15777e-09
2.99156e-08
0.000229359
9.7971e-05
-9.79873e-05
9.80083e-05
-9.79815e-05
9.79753e-05
-9.79916e-05
9.80126e-05
-9.79858e-05
0.000268072
-1.98157e-07
-2.03453e-07
1.99178e-08
-5.08871e-08
-0.000278201
9.94916e-09
1.98162e-08
-4.85741e-08
-0.000278149
1.05948e-08
-1.12075e-08
-6.97954e-09
2.48301e-08
0.000278176
-1.11706e-08
-7.46886e-09
2.25406e-08
0.000278123
9.80292e-05
-9.80025e-05
9.7992e-05
9.80335e-05
-9.80067e-05
9.79963e-05
1.00863e-06
-7.56803e-07
8.30999e-07
-9.36027e-07
2.79127e-10
-1.45944e-07
-2.25169e-08
6.3994e-08
4.10375e-09
0.000245413
-2.85752e-08
0.000250088
1.29582e-07
2.85576e-09
-1.66342e-10
-5.04661e-09
-3.79595e-09
0.000193585
0.000229314
-1.31725e-08
8.65416e-10
2.98056e-11
-2.24947e-08
6.63904e-08
0.000245428
4.08237e-09
-5.10371e-09
0.000193625
-3.67278e-09
9.80129e-05
9.80172e-05
-7.5267e-10
1.43982e-08
0.000143282
-3.24179e-10
-0.000143295
-0.000171014
-3.452e-10
1.12768e-11
0.000171047
-0.000223249
3.09301e-08
4.34373e-09
0.000223285
-6.92008e-08
-1.31974e-08
9.05879e-10
-0.000229273
-1.56869e-11
2.86833e-08
-0.000171028
-6.08063e-12
8.16776e-10
-0.000223265
3.05458e-08
1.62098e-09
0.000143311
-2.659e-08
-7.92065e-05
7.92347e-05
-1.60646e-09
3.34468e-09
0.000193558
6.80448e-09
-4.37001e-08
0.000263067
-1.90676e-08
-7.99667e-10
3.06383e-08
-0.000263082
0.000263107
-4.33621e-09
-5.92399e-08
3.47714e-10
-7.92259e-05
1.90859e-08
7.92153e-05
-0.000263093
2.65485e-08
0.000263133
-5.91997e-08
-3.61935e-09
-5.16112e-09
2.2448e-08
3.06391e-08
7.92434e-05
3.5113e-10
-3.0946e-08
-0.000143266
3.21556e-08
2.15812e-09
2.80746e-11
-7.01952e-08
0.000170996
7.44875e-10
3.23178e-12
-0.00017101
0.000223229
-1.44129e-08
3.05929e-08
-0.000223245
2.58853e-11
-6.92204e-08
-0.000143279
9.80071e-05
-6.75137e-09
-2.01038e-08
5.11067e-09
1.123e-08
1.2419e-08
-7.21455e-10
0.000143351
-1.51306e-10
-0.000143363
-0.000223331
2.89458e-08
4.28087e-09
0.00022337
-6.93583e-08
-0.000171047
-3.41341e-10
-3.51101e-11
0.000171077
6.46943e-10
-1.11388e-08
-0.000229304
8.5116e-11
3.1198e-08
8.46521e-10
-0.000223352
3.31211e-08
-0.000171059
5.44746e-11
1.39863e-09
0.000143378
-2.44971e-08
-7.92522e-05
7.92781e-05
-1.38304e-09
3.94809e-09
0.00019358
6.78424e-09
-4.5998e-08
0.000263176
-1.69178e-08
-8.27254e-10
3.31599e-08
-0.000263196
0.000263222
-4.26824e-09
-6.18418e-08
1.7611e-10
-7.92693e-05
1.69339e-08
7.9261e-05
-0.000263202
2.4455e-08
0.000263248
-6.17965e-08
-4.1903e-09
-5.13189e-09
2.46975e-08
3.31554e-08
7.92869e-05
-2.89595e-08
3.46618e-10
-0.000143335
2.40272e-09
3.0091e-08
-6.72553e-11
-7.27022e-08
0.000223311
-1.24396e-08
3.07605e-08
-0.00022333
0.000171028
7.13257e-10
6.22678e-11
-0.00017104
-7.17859e-08
-2.8192e-11
-0.000143347
9.79906e-05
-6.79239e-09
-2.23384e-08
5.15156e-09
1.34703e-08
-6.96991e-09
-7.01429e-09
0.000213708
1.01389e-08
1.22044e-08
-0.000213716
-8.05257e-05
-1.23663e-08
-1.20034e-08
8.05501e-05
-8.05145e-05
-1.22975e-08
-1.2093e-08
8.05389e-05
9.47299e-09
-8.05422e-05
9.44862e-09
-8.0531e-05
-2.50139e-08
-2.72274e-08
0.000213736
-3.60567e-08
3.33789e-08
-0.000221861
0.000221899
2.50446e-08
-5.98918e-08
0.000250636
-1.58111e-08
5.86319e-08
2.95379e-08
-0.000250684
-5.10503e-08
9.86712e-09
0.00027817
2.00798e-08
-2.31286e-08
0.00018299
1.61454e-08
-9.48799e-09
-0.000183004
0.000250699
-9.74938e-08
-5.23313e-08
0.000183021
1.20017e-08
-1.01381e-08
3.10683e-08
-0.000221882
-3.6174e-08
3.13844e-08
-0.000221801
0.000221839
2.72591e-08
-6.00952e-08
0.000250541
-1.58135e-08
6.35264e-08
2.95587e-08
-0.000250596
-4.87405e-08
1.05072e-08
0.000278114
1.9983e-08
-2.32404e-08
0.000182945
1.42078e-08
-9.46185e-09
-0.000182958
0.000250611
-1.02383e-07
-5.24502e-08
0.000182975
1.20791e-08
-1.2201e-08
3.12942e-08
-0.000221822
1.5798e-08
-1.61627e-08
0.000221878
3.10765e-08
-0.000183008
-3.33292e-08
0.000183039
2.4817e-08
-7.01483e-09
-1.11767e-08
1.22744e-08
-0.000250651
3.60447e-08
0.000250714
-9.74314e-08
-5.23383e-08
5.86245e-08
2.95014e-08
0.000221916
-5.98264e-08
1.58001e-08
-1.42274e-08
0.000221818
3.13028e-08
-0.000182963
-3.13462e-08
0.000182993
2.25201e-08
-7.50122e-09
-1.11398e-08
1.22816e-08
-0.000250556
3.61667e-08
0.000250626
-1.02325e-07
-5.24597e-08
6.35119e-08
2.95268e-08
0.000221855
-6.00337e-08
1.23898e-08
1.23316e-08
-0.000213689
8.05178e-05
6.96426e-09
-8.05342e-05
8.05065e-05
7.01029e-09
-8.0523e-05
-0.000213697
-0.000221929
-3.59935e-08
3.31852e-08
2.4921e-08
-5.96261e-08
-1.57827e-08
0.000250697
-0.000250745
5.86188e-08
2.94212e-08
1.62364e-08
0.00018306
-9.44068e-09
-0.000183074
-5.08298e-08
9.9687e-09
1.98656e-08
-2.31544e-08
-1.01638e-08
-0.00022195
3.1127e-08
-9.72518e-08
-5.23391e-08
1.20011e-08
-0.000221869
-3.61255e-08
3.11968e-08
2.71427e-08
-5.98258e-08
-1.57815e-08
0.000250602
-0.000250657
6.35145e-08
2.94435e-08
1.42947e-08
0.000183015
-9.40713e-09
-0.000183028
-4.85213e-08
1.06276e-08
1.97607e-08
-2.32794e-08
-1.22278e-08
-0.000221889
3.13532e-08
-1.02141e-07
-5.2474e-08
1.2094e-08
-0.000213766
1.23019e-08
1.22323e-08
6.98621e-09
8.05495e-05
-8.05659e-05
7.0407e-09
8.05382e-05
-8.05547e-05
-0.000213774
9.8005e-05
-2.00084e-08
1.11396e-08
9.80042e-05
-2.00397e-08
1.11757e-08
-6.99492e-09
-7.00601e-09
0.000213708
1.22088e-08
1.01512e-08
-0.000213717
-8.0526e-05
-1.23771e-08
-1.20036e-08
8.05504e-05
-8.05125e-05
-1.23098e-08
-1.20865e-08
8.05369e-05
9.45541e-09
-8.05425e-05
9.46108e-09
-8.0529e-05
-2.71036e-08
-2.5165e-08
0.000213736
3.14327e-08
-3.60949e-08
-0.000221862
0.0002219
2.71297e-08
-6.00736e-08
0.000250635
-1.58126e-08
6.36622e-08
2.69713e-08
-0.000250687
1.03855e-08
-4.87316e-08
0.000278163
-2.0792e-08
0.000182991
1.42295e-08
-9.46913e-09
-0.000183003
0.000183021
1.20027e-08
0.000250702
-1.02484e-07
-4.98018e-08
-1.22024e-08
3.12948e-08
-0.000221883
3.14194e-08
-3.61891e-08
-0.000221797
0.000221839
2.51874e-08
-6.23025e-08
0.000250544
-1.5828e-08
6.36027e-08
3.20839e-08
-0.000250601
1.04893e-08
-4.87898e-08
0.000278122
-2.32165e-08
0.000182941
1.42253e-08
-9.47646e-09
-0.000182953
0.000182971
1.2084e-08
0.000250616
-1.02487e-07
-5.49791e-08
-1.01498e-08
3.35017e-08
-0.000221822
-1.42491e-08
0.000221879
1.58068e-08
3.12989e-08
-0.000183008
-3.13849e-08
0.000183038
-7.47769e-09
2.25388e-08
9.87284e-09
3.60846e-08
-0.00025065
0.000250717
-1.02432e-07
-4.98038e-08
0.000221917
-6.00147e-08
6.36504e-08
2.69377e-08
-1.42438e-08
0.000221814
1.58109e-08
3.35091e-08
-0.000182959
-3.1371e-08
0.000182988
-7.50121e-09
2.25392e-08
1.22809e-08
3.61804e-08
-0.000250559
0.000250631
-1.02432e-07
-5.49855e-08
0.000221856
-6.22429e-08
6.35786e-08
3.20574e-08
1.23985e-08
1.23328e-08
-0.000213689
8.05181e-05
6.98869e-09
-8.05345e-05
8.05046e-05
6.99851e-09
-8.05211e-05
-0.000213698
-9.8026e-05
1.11967e-08
5.10293e-09
-1.99059e-08
-6.84865e-09
-9.80251e-05
1.12355e-08
5.06955e-09
-1.99379e-08
-6.82559e-09
-0.000213728
1.23583e-08
1.22905e-08
-2.70758e-08
-2.5138e-08
0.000213755
6.99865e-09
8.0534e-05
9.44313e-09
7.01118e-09
8.05205e-05
9.44705e-09
1.22132e-08
1.01529e-08
-1.20008e-08
8.05583e-05
-1.20843e-08
8.05448e-05
-1.42845e-08
1.579e-08
0.000221913
-0.000221934
-1.22213e-08
3.13234e-08
-0.00025068
3.60485e-08
-1.02307e-07
-4.9806e-08
0.000250748
-7.41005e-09
2.25703e-08
-0.000278213
9.82116e-09
-0.000183043
-3.12849e-08
1.2e-08
0.000183073
-0.000183056
-9.42527e-09
-0.000250733
6.36383e-08
2.68867e-08
2.70432e-08
-5.98799e-08
0.000221951
-1.42852e-08
1.5795e-08
0.000221848
-0.000221873
-1.0162e-08
3.35368e-08
-0.00025059
3.61506e-08
-1.02304e-07
-5.49963e-08
0.000250662
-7.43132e-09
2.25766e-08
-0.000278172
1.2223e-08
-0.000182994
-3.12791e-08
1.20926e-08
0.000183023
-0.000183006
-9.43166e-09
-0.000250647
6.35758e-08
3.19991e-08
2.51061e-08
-6.21105e-08
0.00022189
-0.000221896
3.13373e-08
-3.60668e-08
-5.99483e-08
1.42657e-08
0.000183026
-1.57979e-08
0.000250665
6.3639e-08
2.69148e-08
1.04341e-08
-4.86312e-08
-2.0802e-08
3.13074e-08
-1.02371e-07
-4.98066e-08
-0.000221831
3.13238e-08
-3.61623e-08
-6.21781e-08
1.42619e-08
0.000182976
-1.58014e-08
0.000250574
6.35709e-08
3.20284e-08
1.05399e-08
-4.86842e-08
-2.32324e-08
3.3518e-08
-1.02366e-07
-5.49905e-08
-7.00699e-09
-7.0194e-09
0.000213747
-8.05419e-05
-1.23328e-08
8.05662e-05
-8.05284e-05
-1.22607e-08
8.05527e-05
0.000213774
-7.31749e-10
1.24227e-08
0.000143352
-1.37886e-10
-0.000143364
-0.000171049
-3.0513e-10
0.000171081
-0.000223333
2.89475e-08
4.36761e-09
0.000223374
-7.17591e-08
-1.32135e-08
6.47535e-10
-0.00022931
2.87125e-08
-0.000171063
8.09486e-10
-0.000223354
3.30928e-08
1.43128e-09
0.000143379
-2.44696e-08
-7.9251e-05
7.92769e-05
-1.41618e-09
3.47986e-09
0.000193593
-4.38184e-08
0.000263174
-1.69377e-08
-7.90934e-10
3.31776e-08
-0.000263193
0.000263219
-4.35737e-09
-6.17918e-08
1.59926e-10
-7.92681e-05
1.69548e-08
7.92598e-05
-0.0002632
2.44273e-08
0.000263245
-6.17505e-08
-3.75635e-09
2.25638e-08
3.31767e-08
7.92856e-05
3.17904e-10
-2.89679e-08
-0.000143336
3.21444e-08
2.44475e-09
-7.02054e-08
0.00017103
7.25958e-10
-0.000171044
0.000223313
-1.24366e-08
3.31437e-08
-0.000223334
-7.17649e-08
-0.000143348
-0.000143297
3.37479e-10
-3.09053e-08
1.6353e-09
0.000143326
7.63868e-10
0.000171033
2.04749e-12
-1.43914e-08
0.000223269
8.3059e-10
3.05171e-08
3.21109e-08
2.16448e-09
0.000229312
3.39601e-11
-7.01699e-08
-3.02341e-10
0.000171065
2.03475e-11
4.35505e-09
0.000223305
-6.91854e-08
7.92328e-05
1.91244e-08
-7.92522e-05
2.79176e-10
-3.68399e-09
-0.000193598
2.2464e-08
2.64609e-08
-0.000263145
-4.36795e-09
-5.91074e-08
0.000263185
-1.64915e-09
7.92609e-05
-0.000263159
-8.48395e-10
3.06508e-08
-7.9224e-05
-2.65004e-08
-1.91049e-08
0.000263119
3.06413e-08
3.28215e-09
-4.36272e-08
-5.91543e-08
0.000143313
-7.74278e-10
1.43798e-08
-1.31834e-08
9.21762e-10
-1.54265e-11
2.85991e-08
-3.2693e-10
-0.000171051
1.08587e-11
0.000171084
3.0884e-08
-0.000223289
-6.91619e-08
0.000223325
0.000143342
-7.12306e-12
3.04789e-08
-0.000143368
2.98863e-10
-2.89262e-08
1.4475e-09
0.000143395
7.41709e-10
0.000171067
-1.2413e-08
0.000223353
8.2542e-10
3.30627e-08
3.21242e-08
2.44616e-09
0.000229349
-7.0186e-08
-1.15323e-10
0.0001711
4.37885e-09
0.000223394
-7.17388e-08
1.69915e-08
7.92773e-05
-7.92944e-05
9.18615e-11
-3.82193e-09
-0.000193633
-5.05478e-09
2.25879e-08
-0.000263252
2.43364e-08
-4.39415e-09
-6.16603e-08
0.000263297
-0.000263271
-8.43233e-10
3.31871e-08
-1.46185e-09
7.93031e-05
-7.92686e-05
-2.43778e-08
-1.69746e-08
0.000263226
3.31805e-08
3.41546e-09
6.79729e-09
-4.3747e-08
-6.1707e-08
-7.50839e-10
1.23992e-08
0.000143383
-1.32012e-08
6.62642e-10
2.86287e-08
-0.000171086
-2.88644e-10
0.000171118
-0.000223373
2.89056e-08
-7.17242e-08
0.000223414
3.30167e-08
0.000143411
-7.00098e-09
-7.03603e-09
0.000213715
1.22872e-08
1.01241e-08
-0.000213723
-8.0515e-05
-1.2393e-08
-1.20013e-08
8.05394e-05
-8.05287e-05
-1.23313e-08
-1.20619e-08
8.05531e-05
9.45959e-09
-8.05315e-05
9.42156e-09
-8.05451e-05
-2.71988e-08
-2.51294e-08
0.000213742
3.1674e-08
-3.85549e-08
-0.000221802
0.000221842