/*--------------------------------*- C++ -*----------------------------------*\
| =========                 |                                                 |
| \\      /  F ield         | OpenFOAM: The Open Source CFD Toolbox           |
|  \\    /   O peration     | Version:  v1906                                 |
|   \\  /    A nd           | Web:      www.OpenFOAM.com                      |
|    \\/     M anipulation  |                                                 |
\*---------------------------------------------------------------------------*/
FoamFile
{
    version     2.0;
    format      ascii;
    class       volScalarField;
    location    "0.13";
    object      p;
}
// * * * * * * * * * * * * * * * * * * * * * * * * * * * * * * * * * * * * * //

dimensions      [0 2 -2 0 0 0 0];


internalField   nonuniform List<scalar> 
247104
(
3.51452e-12
6.78724e-10
6.30361e-10
4.07786e-10
1.55906e-10
4.55056e-10
6.43605e-10
5.98329e-10
6.65972e-10
7.4073e-10
7.75006e-10
5.36385e-10
3.74136e-10
5.72334e-10
7.90713e-10
7.11967e-10
6.29746e-10
7.73957e-10
4.91185e-10
8.98467e-11
-7.71166e-11
1.3329e-10
5.41556e-10
7.81275e-10
5.96885e-10
4.1097e-10
5.3605e-10
8.93793e-11
-3.96104e-10
-5.76443e-10
-3.47459e-10
1.57112e-10
5.63173e-10
3.47542e-10
5.98707e-12
1.59315e-10
3.73584e-10
-7.84042e-11
-5.77298e-10
-7.60175e-10
-5.27749e-10
-8.65293e-12
3.96433e-10
7.80686e-11
4.52758e-10
5.68903e-10
1.30371e-10
-3.49494e-10
-5.28711e-10
-3.01239e-10
1.96823e-10
5.94695e-10
3.92213e-10
6.34841e-10
7.84178e-10
5.36778e-10
1.53856e-10
-1.04376e-11
1.96183e-10
5.83232e-10
7.86768e-10
6.04817e-10
5.89812e-10
7.04291e-10
7.75062e-10
5.58839e-10
3.94342e-10
5.9407e-10
7.86669e-10
6.70804e-10
5.89133e-10
3.42422e-10
7.69533e-11
3.92788e-10
6.05327e-10
-3.37883e-08
-3.5904e-08
-3.55887e-08
-3.67521e-08
-3.71926e-08
-3.72044e-08
-3.72463e-08
-3.529e-08
-3.50424e-08
-3.56039e-08
-3.77542e-08
-4.10565e-08
-4.12565e-08
-4.12576e-08
-4.10573e-08
-3.73573e-08
-3.7134e-08
-3.67587e-08
-4.10589e-08
-4.11574e-08
-4.11507e-08
-4.11509e-08
-4.11577e-08
-4.10573e-08
-3.68248e-08
-3.58207e-08
-3.37828e-08
-3.72037e-08
-4.12573e-08
-4.11503e-08
-4.1031e-08
-4.10312e-08
-4.11507e-08
-4.12567e-08
-3.71324e-08
-3.51633e-08
-3.58746e-08
-3.72046e-08
-4.12567e-08
-4.11499e-08
-4.10307e-08
-4.10308e-08
-4.11502e-08
-4.12558e-08
-3.70246e-08
-3.74281e-08
-3.72377e-08
-4.10567e-08
-4.11566e-08
-4.11497e-08
-4.115e-08
-4.11569e-08
-4.10562e-08
-3.70676e-08
-3.61944e-08
-3.52968e-08
-3.73566e-08
-4.10568e-08
-4.12555e-08
-4.12573e-08
-4.10589e-08
-3.735e-08
-3.68676e-08
-3.52658e-08
-3.50264e-08
-3.7131e-08
-3.68184e-08
-3.71261e-08
-3.70257e-08
-3.70731e-08
-3.68719e-08
-3.40813e-08
-3.58133e-08
-3.51582e-08
-3.74286e-08
-3.62122e-08
-3.52645e-08
-5.39044e-08
-5.41124e-08
-5.42935e-08
-5.65245e-08
-5.65535e-08
-5.65451e-08
-5.65303e-08
-5.40529e-08
-5.39792e-08
-5.42813e-08
-5.71276e-08
-6.03063e-08
-6.05262e-08
-6.05288e-08
-6.0315e-08
-5.61892e-08
-5.60566e-08
-5.65245e-08
-6.03137e-08
-6.08136e-08
-6.08376e-08
-6.08389e-08
-6.08171e-08
-6.03125e-08
-5.54283e-08
-5.34712e-08
-5.39043e-08
-5.65534e-08
-6.05281e-08
-6.08388e-08
-6.08378e-08
-6.08383e-08
-6.08399e-08
-6.05285e-08
-5.5488e-08
-5.39711e-08
-5.41116e-08
-5.65455e-08
-6.05285e-08
-6.08392e-08
-6.0838e-08
-6.0838e-08
-6.08385e-08
-6.05271e-08
-5.56045e-08
-5.61734e-08
-5.65331e-08
-6.03122e-08
-6.0814e-08
-6.08382e-08
-6.08386e-08
-6.08136e-08
-6.03091e-08
-5.53974e-08
-5.35459e-08
-5.40583e-08
-5.61895e-08
-6.03083e-08
-6.05263e-08
-6.05296e-08
-6.03091e-08
-5.5694e-08
-5.56974e-08
-5.3609e-08
-5.39826e-08
-5.60596e-08
-5.5429e-08
-5.5488e-08
-5.56045e-08
-5.53966e-08
-5.56956e-08
-5.34878e-08
-5.34753e-08
-5.39677e-08
-5.61737e-08
-5.35411e-08
-5.36052e-08
-7.403e-08
-7.41978e-08
-7.42543e-08
-7.66378e-08
-7.66343e-08
-7.67443e-08
-7.65471e-08
-7.40389e-08
-7.39583e-08
-7.42568e-08
-7.75689e-08
-8.05295e-08
-8.0605e-08
-8.06046e-08
-8.05265e-08
-7.63758e-08
-7.5916e-08
-7.66391e-08
-8.05286e-08
-8.07222e-08
-8.07322e-08
-8.07316e-08
-8.07198e-08
-8.05268e-08
-7.53707e-08
-7.3527e-08
-7.4031e-08
-7.66326e-08
-8.06067e-08
-8.0734e-08
-8.07385e-08
-8.07378e-08
-8.07313e-08
-8.06023e-08
-7.52632e-08
-7.41044e-08
-7.42024e-08
-7.6746e-08
-8.06075e-08
-8.07342e-08
-8.07389e-08
-8.07384e-08
-8.07319e-08
-8.06046e-08
-7.53422e-08
-7.61121e-08
-7.65555e-08
-8.05305e-08
-8.07226e-08
-8.07337e-08
-8.07338e-08
-8.07219e-08
-8.05284e-08
-7.52566e-08
-7.36792e-08
-7.40469e-08
-7.63837e-08
-8.05312e-08
-8.0606e-08
-8.06071e-08
-8.05273e-08
-7.54069e-08
-7.55985e-08
-7.35877e-08
-7.3969e-08
-7.59363e-08
-7.5375e-08
-7.52663e-08
-7.53437e-08
-7.52585e-08
-7.55994e-08
-7.3661e-08
-7.35303e-08
-7.41071e-08
-7.61097e-08
-7.36763e-08
-7.35868e-08
-9.40946e-08
-9.42478e-08
-9.44031e-08
-9.68312e-08
-9.68338e-08
-9.70263e-08
-9.67319e-08
-9.41892e-08
-9.40871e-08
-9.44057e-08
-9.7963e-08
-1.00811e-07
-1.00832e-07
-1.00831e-07
-1.0081e-07
-9.66956e-08
-9.60332e-08
-9.68327e-08
-1.00813e-07
-1.00863e-07
-1.00866e-07
-1.00866e-07
-1.00863e-07
-1.0081e-07
-9.54555e-08
-9.36107e-08
-9.40894e-08
-9.6835e-08
-1.00833e-07
-1.00867e-07
-1.00867e-07
-1.00867e-07
-1.00866e-07
-1.00833e-07
-9.52174e-08
-9.41137e-08
-9.42525e-08
-9.70293e-08
-1.00833e-07
-1.00867e-07
-1.00868e-07
-1.00867e-07
-1.00866e-07
-1.00832e-07
-9.52766e-08
-9.60873e-08
-9.67362e-08
-1.00813e-07
-1.00864e-07
-1.00867e-07
-1.00866e-07
-1.00863e-07
-1.00811e-07
-9.52816e-08
-9.36973e-08
-9.41937e-08
-9.67002e-08
-1.00811e-07
-1.00833e-07
-1.00834e-07
-1.00812e-07
-9.53825e-08
-9.56734e-08
-9.36872e-08
-9.40861e-08
-9.60357e-08
-9.54581e-08
-9.5221e-08
-9.52789e-08
-9.52831e-08
-9.5673e-08
-9.37424e-08
-9.36142e-08
-9.41179e-08
-9.60885e-08
-9.36942e-08
-9.36845e-08
-1.14247e-07
-1.14396e-07
-1.14592e-07
-1.17034e-07
-1.17029e-07
-1.17262e-07
-1.16934e-07
-1.1438e-07
-1.1427e-07
-1.14594e-07
-1.18209e-07
-1.21041e-07
-1.21046e-07
-1.21046e-07
-1.21041e-07
-1.1695e-07
-1.16211e-07
-1.17035e-07
-1.21039e-07
-1.21054e-07
-1.21054e-07
-1.21054e-07
-1.21053e-07
-1.21039e-07
-1.15626e-07
-1.1378e-07
-1.14243e-07
-1.17032e-07
-1.21048e-07
-1.21055e-07
-1.21054e-07
-1.21054e-07
-1.21054e-07
-1.21046e-07
-1.1535e-07
-1.14244e-07
-1.14396e-07
-1.17268e-07
-1.21047e-07
-1.21055e-07
-1.21054e-07
-1.21054e-07
-1.21054e-07
-1.21045e-07
-1.15395e-07
-1.16209e-07
-1.16935e-07
-1.21041e-07
-1.21054e-07
-1.21054e-07
-1.21054e-07
-1.21054e-07
-1.21041e-07
-1.15433e-07
-1.13835e-07
-1.1438e-07
-1.16958e-07
-1.21041e-07
-1.21047e-07
-1.21046e-07
-1.21041e-07
-1.15506e-07
-1.15835e-07
-1.13862e-07
-1.14272e-07
-1.16211e-07
-1.15629e-07
-1.15335e-07
-1.15392e-07
-1.15431e-07
-1.15836e-07
-1.1393e-07
-1.1378e-07
-1.14239e-07
-1.16205e-07
-1.13831e-07
-1.1386e-07
-1.34437e-07
-1.34583e-07
-1.34793e-07
-1.37237e-07
-1.37234e-07
-1.37478e-07
-1.3714e-07
-1.34583e-07
-1.34473e-07
-1.34791e-07
-1.38422e-07
-1.41252e-07
-1.41253e-07
-1.41254e-07
-1.41253e-07
-1.37173e-07
-1.36407e-07
-1.3724e-07
-1.41252e-07
-1.41255e-07
-1.41255e-07
-1.41255e-07
-1.41255e-07
-1.41251e-07
-1.35824e-07
-1.33974e-07
-1.34433e-07
-1.37234e-07
-1.41253e-07
-1.41255e-07
-1.41255e-07
-1.41255e-07
-1.41256e-07
-1.41254e-07
-1.35529e-07
-1.34428e-07
-1.34585e-07
-1.37478e-07
-1.41253e-07
-1.41255e-07
-1.41255e-07
-1.41256e-07
-1.41256e-07
-1.41255e-07
-1.35571e-07
-1.36389e-07
-1.37141e-07
-1.41254e-07
-1.41255e-07
-1.41256e-07
-1.41256e-07
-1.41256e-07
-1.41252e-07
-1.35629e-07
-1.34022e-07
-1.34581e-07
-1.37177e-07
-1.41253e-07
-1.41254e-07
-1.41254e-07
-1.41253e-07
-1.35686e-07
-1.36027e-07
-1.34057e-07
-1.34475e-07
-1.36409e-07
-1.35821e-07
-1.3553e-07
-1.35575e-07
-1.35626e-07
-1.3603e-07
-1.3413e-07
-1.33976e-07
-1.34426e-07
-1.36391e-07
-1.34025e-07
-1.34056e-07
-1.54638e-07
-1.54784e-07
-1.54997e-07
-1.57441e-07
-1.57439e-07
-1.57682e-07
-1.57344e-07
-1.54787e-07
-1.54678e-07
-1.54994e-07
-1.58631e-07
-1.61458e-07
-1.6146e-07
-1.61459e-07
-1.61459e-07
-1.5738e-07
-1.56608e-07
-1.57445e-07
-1.6146e-07
-1.6146e-07
-1.6146e-07
-1.6146e-07
-1.6146e-07
-1.6146e-07
-1.56029e-07
-1.54178e-07
-1.54633e-07
-1.57439e-07
-1.6146e-07
-1.6146e-07
-1.6146e-07
-1.6146e-07
-1.6146e-07
-1.6146e-07
-1.55727e-07
-1.5463e-07
-1.54785e-07
-1.57685e-07
-1.6146e-07
-1.6146e-07
-1.6146e-07
-1.6146e-07
-1.6146e-07
-1.6146e-07
-1.5577e-07
-1.56589e-07
-1.57347e-07
-1.61459e-07
-1.61461e-07
-1.61461e-07
-1.6146e-07
-1.6146e-07
-1.6146e-07
-1.55831e-07
-1.54224e-07
-1.54788e-07
-1.57383e-07
-1.61459e-07
-1.61461e-07
-1.6146e-07
-1.61459e-07
-1.55887e-07
-1.56233e-07
-1.54261e-07
-1.5468e-07
-1.56611e-07
-1.56027e-07
-1.55728e-07
-1.55771e-07
-1.55831e-07
-1.56231e-07
-1.54333e-07
-1.54178e-07
-1.54626e-07
-1.56589e-07
-1.54225e-07
-1.54257e-07
-1.74841e-07
-1.74987e-07
-1.75202e-07
-1.77647e-07
-1.77642e-07
-1.77887e-07
-1.77552e-07
-1.74992e-07
-1.74882e-07
-1.75199e-07
-1.78835e-07
-1.81665e-07
-1.81665e-07
-1.81665e-07
-1.81664e-07
-1.77588e-07
-1.76813e-07
-1.77651e-07
-1.81664e-07
-1.81665e-07
-1.81664e-07
-1.81664e-07
-1.81664e-07
-1.81664e-07
-1.7623e-07
-1.74381e-07
-1.74836e-07
-1.77642e-07
-1.81664e-07
-1.81664e-07
-1.81664e-07
-1.81664e-07
-1.81665e-07
-1.81665e-07
-1.75931e-07
-1.74833e-07
-1.74988e-07
-1.77889e-07
-1.81664e-07
-1.81664e-07
-1.81664e-07
-1.81664e-07
-1.81665e-07
-1.81665e-07
-1.75973e-07
-1.76794e-07
-1.77551e-07
-1.81664e-07
-1.81664e-07
-1.81664e-07
-1.81664e-07
-1.81665e-07
-1.81665e-07
-1.76034e-07
-1.74428e-07
-1.74991e-07
-1.77591e-07
-1.81664e-07
-1.81663e-07
-1.81663e-07
-1.81665e-07
-1.76087e-07
-1.76433e-07
-1.74465e-07
-1.74884e-07
-1.76816e-07
-1.76232e-07
-1.75931e-07
-1.7597e-07
-1.76044e-07
-1.76436e-07
-1.74537e-07
-1.74383e-07
-1.7483e-07
-1.76791e-07
-1.74429e-07
-1.74462e-07
-1.95046e-07
-1.95192e-07
-1.95407e-07
-1.9785e-07
-1.97846e-07
-1.98092e-07
-1.97754e-07
-1.95195e-07
-1.95086e-07
-1.95403e-07
-1.99039e-07
-2.01868e-07
-2.01869e-07
-2.01869e-07
-2.01868e-07
-1.97794e-07
-1.97016e-07
-1.97855e-07
-2.01868e-07
-2.01869e-07
-2.01869e-07
-2.01869e-07
-2.01869e-07
-2.01869e-07
-1.96433e-07
-1.94585e-07
-1.9504e-07
-1.97847e-07
-2.01868e-07
-2.01869e-07
-2.01869e-07
-2.01869e-07
-2.01869e-07
-2.01869e-07
-1.96135e-07
-1.95037e-07
-1.95192e-07
-1.98096e-07
-2.01868e-07
-2.01869e-07
-2.01869e-07
-2.01869e-07
-2.01869e-07
-2.01869e-07
-1.96177e-07
-1.96997e-07
-1.97755e-07
-2.01869e-07
-2.01869e-07
-2.01869e-07
-2.01869e-07
-2.01869e-07
-2.01869e-07
-1.96237e-07
-1.94631e-07
-1.95195e-07
-1.97795e-07
-2.01869e-07
-2.01869e-07
-2.01869e-07
-2.01869e-07
-1.9629e-07
-1.96636e-07
-1.94668e-07
-1.95088e-07
-1.97021e-07
-1.96434e-07
-1.96134e-07
-1.96175e-07
-1.96238e-07
-1.96639e-07
-1.9474e-07
-1.94586e-07
-1.95033e-07
-1.96993e-07
-1.94631e-07
-1.94665e-07
-2.15251e-07
-2.15396e-07
-2.15612e-07
-2.18059e-07
-2.18051e-07
-2.18297e-07
-2.1796e-07
-2.15398e-07
-2.15291e-07
-2.15608e-07
-2.19243e-07
-2.22074e-07
-2.22073e-07
-2.22073e-07
-2.22074e-07
-2.17999e-07
-2.17221e-07
-2.1806e-07
-2.22074e-07
-2.22074e-07
-2.22074e-07
-2.22074e-07
-2.22074e-07
-2.22074e-07
-2.16639e-07
-2.1479e-07
-2.15244e-07
-2.18052e-07
-2.22074e-07
-2.22074e-07
-2.22074e-07
-2.22074e-07
-2.22074e-07
-2.22074e-07
-2.1634e-07
-2.15241e-07
-2.15396e-07
-2.18301e-07
-2.22074e-07
-2.22074e-07
-2.22074e-07
-2.22074e-07
-2.22074e-07
-2.22074e-07
-2.16382e-07
-2.17202e-07
-2.1796e-07
-2.22074e-07
-2.22074e-07
-2.22074e-07
-2.22074e-07
-2.22074e-07
-2.22074e-07
-2.16442e-07
-2.14836e-07
-2.154e-07
-2.18e-07
-2.22074e-07
-2.22074e-07
-2.22074e-07
-2.22074e-07
-2.16495e-07
-2.16841e-07
-2.14873e-07
-2.15293e-07
-2.17226e-07
-2.1664e-07
-2.16338e-07
-2.16381e-07
-2.1644e-07
-2.16842e-07
-2.14944e-07
-2.14791e-07
-2.15238e-07
-2.17198e-07
-2.14835e-07
-2.14869e-07
-2.35455e-07
-2.35601e-07
-2.35824e-07
-2.38261e-07
-2.38256e-07
-2.38503e-07
-2.38165e-07
-2.35602e-07
-2.35495e-07
-2.35815e-07
-2.39453e-07
-2.42279e-07
-2.42279e-07
-2.42278e-07
-2.42279e-07
-2.38202e-07
-2.37427e-07
-2.38265e-07
-2.42279e-07
-2.42279e-07
-2.42279e-07
-2.42279e-07
-2.42279e-07
-2.42279e-07
-2.36844e-07
-2.34995e-07
-2.3545e-07
-2.38257e-07
-2.42279e-07
-2.42279e-07
-2.42279e-07
-2.42279e-07
-2.42279e-07
-2.42279e-07
-2.36546e-07
-2.35447e-07
-2.35601e-07
-2.38506e-07
-2.42279e-07
-2.42279e-07
-2.42279e-07
-2.42279e-07
-2.42279e-07
-2.42279e-07
-2.36587e-07
-2.37408e-07
-2.38165e-07
-2.42279e-07
-2.42279e-07
-2.42279e-07
-2.42279e-07
-2.42279e-07
-2.42279e-07
-2.36647e-07
-2.35041e-07
-2.35605e-07
-2.38207e-07
-2.42279e-07
-2.42279e-07
-2.42279e-07
-2.42279e-07
-2.367e-07
-2.37046e-07
-2.35078e-07
-2.35498e-07
-2.37431e-07
-2.36845e-07
-2.36544e-07
-2.36586e-07
-2.36645e-07
-2.37048e-07
-2.3515e-07
-2.34997e-07
-2.35443e-07
-2.37404e-07
-2.35041e-07
-2.35074e-07
-2.55661e-07
-2.55806e-07
-2.56029e-07
-2.58467e-07
-2.58462e-07
-2.58708e-07
-2.58369e-07
-2.55806e-07
-2.55704e-07
-2.56019e-07
-2.59656e-07
-2.62484e-07
-2.62484e-07
-2.62484e-07
-2.62484e-07
-2.58406e-07
-2.57632e-07
-2.5847e-07
-2.62484e-07
-2.62484e-07
-2.62483e-07
-2.62483e-07
-2.62484e-07
-2.62484e-07
-2.57049e-07
-2.552e-07
-2.55655e-07
-2.58462e-07
-2.62484e-07
-2.62484e-07
-2.62484e-07
-2.62484e-07
-2.62484e-07
-2.62484e-07
-2.56751e-07
-2.55652e-07
-2.55806e-07
-2.58711e-07
-2.62484e-07
-2.62484e-07
-2.62484e-07
-2.62484e-07
-2.62484e-07
-2.62484e-07
-2.56792e-07
-2.57612e-07
-2.5837e-07
-2.62484e-07
-2.62484e-07
-2.62484e-07
-2.62484e-07
-2.62484e-07
-2.62484e-07
-2.56852e-07
-2.55246e-07
-2.5581e-07
-2.58411e-07
-2.62484e-07
-2.62484e-07
-2.62484e-07
-2.62484e-07
-2.56905e-07
-2.57251e-07
-2.55283e-07
-2.55703e-07
-2.57636e-07
-2.5705e-07
-2.56748e-07
-2.5679e-07
-2.56849e-07
-2.57252e-07
-2.55355e-07
-2.55201e-07
-2.55648e-07
-2.57608e-07
-2.55245e-07
-2.55279e-07
-2.75865e-07
-2.76011e-07
-2.76233e-07
-2.78671e-07
-2.78666e-07
-2.78912e-07
-2.78573e-07
-2.76012e-07
-2.75909e-07
-2.76224e-07
-2.79861e-07
-2.82688e-07
-2.82688e-07
-2.82688e-07
-2.82688e-07
-2.7861e-07
-2.77837e-07
-2.78675e-07
-2.82688e-07
-2.82688e-07
-2.82688e-07
-2.82688e-07
-2.82688e-07
-2.82688e-07
-2.77253e-07
-2.75405e-07
-2.75859e-07
-2.78667e-07
-2.82688e-07
-2.82688e-07
-2.82688e-07
-2.82688e-07
-2.82688e-07
-2.82688e-07
-2.76955e-07
-2.75856e-07
-2.76011e-07
-2.78915e-07
-2.82688e-07
-2.82688e-07
-2.82688e-07
-2.82688e-07
-2.82688e-07
-2.82688e-07
-2.76997e-07
-2.77817e-07
-2.78575e-07
-2.82688e-07
-2.82688e-07
-2.82688e-07
-2.82688e-07
-2.82688e-07
-2.82688e-07
-2.77057e-07
-2.75451e-07
-2.76015e-07
-2.78616e-07
-2.82688e-07
-2.82688e-07
-2.82688e-07
-2.82688e-07
-2.77109e-07
-2.77456e-07
-2.75488e-07
-2.75908e-07
-2.7784e-07
-2.77254e-07
-2.76953e-07
-2.76995e-07
-2.77054e-07
-2.77457e-07
-2.75559e-07
-2.75406e-07
-2.75853e-07
-2.77813e-07
-2.7545e-07
-2.75484e-07
-2.9607e-07
-2.96215e-07
-2.96438e-07
-2.98876e-07
-2.98871e-07
-2.99117e-07
-2.98776e-07
-2.96218e-07
-2.96114e-07
-2.96429e-07
-3.00066e-07
-3.02893e-07
-3.02893e-07
-3.02893e-07
-3.02893e-07
-2.98814e-07
-2.98041e-07
-2.98879e-07
-3.02893e-07
-3.02893e-07
-3.02893e-07
-3.02893e-07
-3.02893e-07
-3.02893e-07
-2.97458e-07
-2.9561e-07
-2.96064e-07
-2.98871e-07
-3.02893e-07
-3.02893e-07
-3.02893e-07
-3.02893e-07
-3.02893e-07
-3.02893e-07
-2.9716e-07
-2.96061e-07
-2.96215e-07
-2.9912e-07
-3.02893e-07
-3.02893e-07
-3.02893e-07
-3.02893e-07
-3.02893e-07
-3.02893e-07
-2.97201e-07
-2.98022e-07
-2.98779e-07
-3.02893e-07
-3.02893e-07
-3.02893e-07
-3.02893e-07
-3.02893e-07
-3.02893e-07
-2.97262e-07
-2.95655e-07
-2.96219e-07
-2.98821e-07
-3.02893e-07
-3.02893e-07
-3.02893e-07
-3.02893e-07
-2.97314e-07
-2.97661e-07
-2.95693e-07
-2.96112e-07
-2.98045e-07
-2.97459e-07
-2.97157e-07
-2.97199e-07
-2.97258e-07
-2.97662e-07
-2.95764e-07
-2.9561e-07
-2.96057e-07
-2.98017e-07
-2.95653e-07
-2.95688e-07
-3.16275e-07
-3.1642e-07
-3.16643e-07
-3.1908e-07
-3.19076e-07
-3.19323e-07
-3.18982e-07
-3.16422e-07
-3.16319e-07
-3.16634e-07
-3.20271e-07
-3.23099e-07
-3.23098e-07
-3.23098e-07
-3.23098e-07
-3.1902e-07
-3.18247e-07
-3.19084e-07
-3.23098e-07
-3.23098e-07
-3.23098e-07
-3.23098e-07
-3.23098e-07
-3.23098e-07
-3.17663e-07
-3.15815e-07
-3.16269e-07
-3.19077e-07
-3.23098e-07
-3.23098e-07
-3.23098e-07
-3.23098e-07
-3.23098e-07
-3.23098e-07
-3.17365e-07
-3.16266e-07
-3.1642e-07
-3.19325e-07
-3.23098e-07
-3.23098e-07
-3.23098e-07
-3.23098e-07
-3.23098e-07
-3.23098e-07
-3.17406e-07
-3.18227e-07
-3.18984e-07
-3.23098e-07
-3.23098e-07
-3.23098e-07
-3.23098e-07
-3.23098e-07
-3.23098e-07
-3.17467e-07
-3.15861e-07
-3.16424e-07
-3.19026e-07
-3.23098e-07
-3.23098e-07
-3.23098e-07
-3.23099e-07
-3.1752e-07
-3.17866e-07
-3.15898e-07
-3.16317e-07
-3.1825e-07
-3.17664e-07
-3.17363e-07
-3.17404e-07
-3.17467e-07
-3.17868e-07
-3.15969e-07
-3.15815e-07
-3.16262e-07
-3.18226e-07
-3.15859e-07
-3.15894e-07
-3.3648e-07
-3.36626e-07
-3.36847e-07
-3.39284e-07
-3.39281e-07
-3.39528e-07
-3.39187e-07
-3.36628e-07
-3.36524e-07
-3.36839e-07
-3.40476e-07
-3.43303e-07
-3.43303e-07
-3.43303e-07
-3.43303e-07
-3.39225e-07
-3.38452e-07
-3.39289e-07
-3.43303e-07
-3.43303e-07
-3.43303e-07
-3.43303e-07
-3.43303e-07
-3.43303e-07
-3.37868e-07
-3.3602e-07
-3.36474e-07
-3.39282e-07
-3.43303e-07
-3.43303e-07
-3.43303e-07
-3.43303e-07
-3.43303e-07
-3.43303e-07
-3.3757e-07
-3.36471e-07
-3.36626e-07
-3.3953e-07
-3.43303e-07
-3.43303e-07
-3.43303e-07
-3.43303e-07
-3.43303e-07
-3.43303e-07
-3.37611e-07
-3.38432e-07
-3.39189e-07
-3.43303e-07
-3.43303e-07
-3.43303e-07
-3.43303e-07
-3.43303e-07
-3.43303e-07
-3.37672e-07
-3.36066e-07
-3.36629e-07
-3.39231e-07
-3.43303e-07
-3.43303e-07
-3.43303e-07
-3.43303e-07
-3.37725e-07
-3.38071e-07
-3.36103e-07
-3.36522e-07
-3.38455e-07
-3.37869e-07
-3.37568e-07
-3.37609e-07
-3.37668e-07
-3.38072e-07
-3.36174e-07
-3.36021e-07
-3.36467e-07
-3.38428e-07
-3.36064e-07
-3.36099e-07
-3.56685e-07
-3.56831e-07
-3.57053e-07
-3.59489e-07
-3.59486e-07
-3.59732e-07
-3.59391e-07
-3.56833e-07
-3.56729e-07
-3.57043e-07
-3.60681e-07
-3.63508e-07
-3.63508e-07
-3.63508e-07
-3.63508e-07
-3.59429e-07
-3.58656e-07
-3.59494e-07
-3.63507e-07
-3.63507e-07
-3.63507e-07
-3.63507e-07
-3.63508e-07
-3.63508e-07
-3.58073e-07
-3.56224e-07
-3.56679e-07
-3.59486e-07
-3.63508e-07
-3.63508e-07
-3.63508e-07
-3.63508e-07
-3.63508e-07
-3.63508e-07
-3.57774e-07
-3.56675e-07
-3.5683e-07
-3.59735e-07
-3.63508e-07
-3.63508e-07
-3.63508e-07
-3.63508e-07
-3.63508e-07
-3.63508e-07
-3.57816e-07
-3.58636e-07
-3.59394e-07
-3.63508e-07
-3.63508e-07
-3.63508e-07
-3.63508e-07
-3.63508e-07
-3.63508e-07
-3.57876e-07
-3.5627e-07
-3.56834e-07
-3.59435e-07
-3.63508e-07
-3.63508e-07
-3.63508e-07
-3.63508e-07
-3.57929e-07
-3.58275e-07
-3.56307e-07
-3.56727e-07
-3.5866e-07
-3.58074e-07
-3.57773e-07
-3.57815e-07
-3.57874e-07
-3.58276e-07
-3.56379e-07
-3.56225e-07
-3.56672e-07
-3.58633e-07
-3.56269e-07
-3.56303e-07
-3.7689e-07
-3.77035e-07
-3.77257e-07
-3.79693e-07
-3.7969e-07
-3.79936e-07
-3.79595e-07
-3.77037e-07
-3.76933e-07
-3.77248e-07
-3.80885e-07
-3.83712e-07
-3.83712e-07
-3.83712e-07
-3.83712e-07
-3.79633e-07
-3.7886e-07
-3.79698e-07
-3.83713e-07
-3.83712e-07
-3.83712e-07
-3.83712e-07
-3.83712e-07
-3.83712e-07
-3.78277e-07
-3.76429e-07
-3.76883e-07
-3.79691e-07
-3.83712e-07
-3.83712e-07
-3.83712e-07
-3.83712e-07
-3.83712e-07
-3.83712e-07
-3.77979e-07
-3.7688e-07
-3.77034e-07
-3.79939e-07
-3.83712e-07
-3.83712e-07
-3.83712e-07
-3.83712e-07
-3.83712e-07
-3.83712e-07
-3.7802e-07
-3.78841e-07
-3.79598e-07
-3.83712e-07
-3.83712e-07
-3.83712e-07
-3.83712e-07
-3.83712e-07
-3.83712e-07
-3.78081e-07
-3.76475e-07
-3.77038e-07
-3.7964e-07
-3.83712e-07
-3.83712e-07
-3.83712e-07
-3.83712e-07
-3.78134e-07
-3.7848e-07
-3.76512e-07
-3.76931e-07
-3.78864e-07
-3.78278e-07
-3.77977e-07
-3.78018e-07
-3.78083e-07
-3.78482e-07
-3.76584e-07
-3.7643e-07
-3.76876e-07
-3.78837e-07
-3.76474e-07
-3.76508e-07
-3.97095e-07
-3.9724e-07
-3.97461e-07
-3.99899e-07
-3.99895e-07
-4.00141e-07
-3.998e-07
-3.97242e-07
-3.97138e-07
-3.97452e-07
-4.01089e-07
-4.03917e-07
-4.03917e-07
-4.03917e-07
-4.03917e-07
-3.99838e-07
-3.99065e-07
-3.99903e-07
-4.03917e-07
-4.03917e-07
-4.03917e-07
-4.03917e-07
-4.03917e-07
-4.03917e-07
-3.98482e-07
-3.96633e-07
-3.97088e-07
-3.99895e-07
-4.03917e-07
-4.03917e-07
-4.03917e-07
-4.03917e-07
-4.03917e-07
-4.03917e-07
-3.98183e-07
-3.97084e-07
-3.97239e-07
-4.00144e-07
-4.03917e-07
-4.03917e-07
-4.03917e-07
-4.03917e-07
-4.03917e-07
-4.03917e-07
-3.98225e-07
-3.99045e-07
-3.99803e-07
-4.03917e-07
-4.03917e-07
-4.03917e-07
-4.03917e-07
-4.03917e-07
-4.03917e-07
-3.98285e-07
-3.96679e-07
-3.97243e-07
-3.99844e-07
-4.03917e-07
-4.03917e-07
-4.03917e-07
-4.03917e-07
-3.98339e-07
-3.98685e-07
-3.96716e-07
-3.97136e-07
-3.99069e-07
-3.98483e-07
-3.98182e-07
-3.98224e-07
-3.98282e-07
-3.98685e-07
-3.96788e-07
-3.96634e-07
-3.97082e-07
-3.99043e-07
-3.96678e-07
-3.96712e-07
-4.17299e-07
-4.17444e-07
-4.17666e-07
-4.20103e-07
-4.20099e-07
-4.20345e-07
-4.20004e-07
-4.17446e-07
-4.17341e-07
-4.17657e-07
-4.21293e-07
-4.2412e-07
-4.24121e-07
-4.24121e-07
-4.24121e-07
-4.20043e-07
-4.19269e-07
-4.20107e-07
-4.2412e-07
-4.24121e-07
-4.24121e-07
-4.24121e-07
-4.24121e-07
-4.24121e-07
-4.18686e-07
-4.16837e-07
-4.17292e-07
-4.20099e-07
-4.24121e-07
-4.24121e-07
-4.24121e-07
-4.24121e-07
-4.24121e-07
-4.24121e-07
-4.18388e-07
-4.1729e-07
-4.17444e-07
-4.20348e-07
-4.24121e-07
-4.24121e-07
-4.24121e-07
-4.24121e-07
-4.24121e-07
-4.24121e-07
-4.18429e-07
-4.1925e-07
-4.20007e-07
-4.24121e-07
-4.24121e-07
-4.24121e-07
-4.24121e-07
-4.24121e-07
-4.24121e-07
-4.1849e-07
-4.16884e-07
-4.17447e-07
-4.20049e-07
-4.24121e-07
-4.24121e-07
-4.24121e-07
-4.24121e-07
-4.18543e-07
-4.18889e-07
-4.16921e-07
-4.1734e-07
-4.19273e-07
-4.18687e-07
-4.18386e-07
-4.18428e-07
-4.18486e-07
-4.1889e-07
-4.16992e-07
-4.16839e-07
-4.17286e-07
-4.19246e-07
-4.16882e-07
-4.16918e-07
-4.37503e-07
-4.37648e-07
-4.3787e-07
-4.40308e-07
-4.40304e-07
-4.40549e-07
-4.40208e-07
-4.3765e-07
-4.37545e-07
-4.37861e-07
-4.41498e-07
-4.44325e-07
-4.44325e-07
-4.44325e-07
-4.44325e-07
-4.40247e-07
-4.39474e-07
-4.40311e-07
-4.44325e-07
-4.44325e-07
-4.44325e-07
-4.44325e-07
-4.44325e-07
-4.44325e-07
-4.3889e-07
-4.37042e-07
-4.37496e-07
-4.40304e-07
-4.44325e-07
-4.44325e-07
-4.44325e-07
-4.44325e-07
-4.44325e-07
-4.44325e-07
-4.38592e-07
-4.37494e-07
-4.37648e-07
-4.40552e-07
-4.44325e-07
-4.44325e-07
-4.44325e-07
-4.44325e-07
-4.44325e-07
-4.44325e-07
-4.38634e-07
-4.39454e-07
-4.40212e-07
-4.44325e-07
-4.44325e-07
-4.44325e-07
-4.44325e-07
-4.44325e-07
-4.44325e-07
-4.38694e-07
-4.37088e-07
-4.37652e-07
-4.40253e-07
-4.44325e-07
-4.44325e-07
-4.44325e-07
-4.44325e-07
-4.38747e-07
-4.39093e-07
-4.37125e-07
-4.37545e-07
-4.39477e-07
-4.38892e-07
-4.38591e-07
-4.38633e-07
-4.3869e-07
-4.39094e-07
-4.37196e-07
-4.37043e-07
-4.3749e-07
-4.39451e-07
-4.37086e-07
-4.37122e-07
-4.57708e-07
-4.57853e-07
-4.58075e-07
-4.60512e-07
-4.60508e-07
-4.60754e-07
-4.60413e-07
-4.57855e-07
-4.5775e-07
-4.58066e-07
-4.61703e-07
-4.6453e-07
-4.6453e-07
-4.6453e-07
-4.6453e-07
-4.60452e-07
-4.59678e-07
-4.60516e-07
-4.6453e-07
-4.6453e-07
-4.6453e-07
-4.6453e-07
-4.6453e-07
-4.6453e-07
-4.59095e-07
-4.57246e-07
-4.57701e-07
-4.60508e-07
-4.6453e-07
-4.6453e-07
-4.6453e-07
-4.6453e-07
-4.6453e-07
-4.6453e-07
-4.58797e-07
-4.57699e-07
-4.57853e-07
-4.60757e-07
-4.6453e-07
-4.6453e-07
-4.6453e-07
-4.6453e-07
-4.6453e-07
-4.6453e-07
-4.58838e-07
-4.59659e-07
-4.60417e-07
-4.6453e-07
-4.6453e-07
-4.6453e-07
-4.6453e-07
-4.6453e-07
-4.6453e-07
-4.58899e-07
-4.57293e-07
-4.57856e-07
-4.60458e-07
-4.6453e-07
-4.6453e-07
-4.6453e-07
-4.6453e-07
-4.58952e-07
-4.59298e-07
-4.5733e-07
-4.57749e-07
-4.59682e-07
-4.59096e-07
-4.58795e-07
-4.58837e-07
-4.58895e-07
-4.59299e-07
-4.57401e-07
-4.57248e-07
-4.57695e-07
-4.59655e-07
-4.57291e-07
-4.57327e-07
-4.77913e-07
-4.78058e-07
-4.78279e-07
-4.80717e-07
-4.80713e-07
-4.80959e-07
-4.80618e-07
-4.78058e-07
-4.77954e-07
-4.7827e-07
-4.81908e-07
-4.84735e-07
-4.84735e-07
-4.84735e-07
-4.84735e-07
-4.80657e-07
-4.79883e-07
-4.80721e-07
-4.84735e-07
-4.84735e-07
-4.84735e-07
-4.84735e-07
-4.84735e-07
-4.84735e-07
-4.793e-07
-4.77451e-07
-4.77906e-07
-4.80713e-07
-4.84735e-07
-4.84735e-07
-4.84735e-07
-4.84735e-07
-4.84735e-07
-4.84735e-07
-4.79001e-07
-4.77903e-07
-4.78057e-07
-4.80962e-07
-4.84735e-07
-4.84735e-07
-4.84735e-07
-4.84735e-07
-4.84735e-07
-4.84735e-07
-4.79043e-07
-4.79863e-07
-4.80621e-07
-4.84735e-07
-4.84735e-07
-4.84735e-07
-4.84735e-07
-4.84735e-07
-4.84735e-07
-4.79103e-07
-4.77497e-07
-4.78061e-07
-4.80663e-07
-4.84735e-07
-4.84735e-07
-4.84735e-07
-4.84735e-07
-4.79157e-07
-4.79503e-07
-4.77534e-07
-4.77954e-07
-4.79887e-07
-4.79301e-07
-4.79e-07
-4.79042e-07
-4.791e-07
-4.79504e-07
-4.77606e-07
-4.77453e-07
-4.779e-07
-4.7986e-07
-4.77496e-07
-4.77531e-07
-4.98118e-07
-4.98262e-07
-4.98484e-07
-5.00922e-07
-5.00918e-07
-5.01164e-07
-5.00823e-07
-4.98263e-07
-4.9816e-07
-4.98475e-07
-5.02113e-07
-5.0494e-07
-5.0494e-07
-5.0494e-07
-5.04939e-07
-5.00862e-07
-5.00088e-07
-5.00926e-07
-5.0494e-07
-5.0494e-07
-5.0494e-07
-5.0494e-07
-5.0494e-07
-5.04939e-07
-4.99504e-07
-4.97656e-07
-4.98111e-07
-5.00918e-07
-5.0494e-07
-5.0494e-07
-5.0494e-07
-5.0494e-07
-5.0494e-07
-5.0494e-07
-4.99206e-07
-4.98108e-07
-4.98262e-07
-5.01167e-07
-5.0494e-07
-5.0494e-07
-5.0494e-07
-5.0494e-07
-5.0494e-07
-5.0494e-07
-4.99248e-07
-5.00068e-07
-5.00826e-07
-5.0494e-07
-5.0494e-07
-5.0494e-07
-5.0494e-07
-5.0494e-07
-5.0494e-07
-4.99308e-07
-4.97702e-07
-4.98266e-07
-5.00867e-07
-5.0494e-07
-5.0494e-07
-5.0494e-07
-5.0494e-07
-4.99361e-07
-4.99707e-07
-4.97739e-07
-4.98159e-07
-5.00092e-07
-4.99506e-07
-4.99205e-07
-4.99247e-07
-4.99305e-07
-4.99709e-07
-4.97811e-07
-4.97657e-07
-4.98105e-07
-5.00065e-07
-4.977e-07
-4.97736e-07
-5.18322e-07
-5.18468e-07
-5.18689e-07
-5.21126e-07
-5.21125e-07
-5.21369e-07
-5.21028e-07
-5.18467e-07
-5.18364e-07
-5.18679e-07
-5.22318e-07
-5.25144e-07
-5.25145e-07
-5.25145e-07
-5.25145e-07
-5.21067e-07
-5.20293e-07
-5.2113e-07
-5.25144e-07
-5.25145e-07
-5.25145e-07
-5.25145e-07
-5.25145e-07
-5.25145e-07
-5.19709e-07
-5.17861e-07
-5.18316e-07
-5.21123e-07
-5.25145e-07
-5.25145e-07
-5.25145e-07
-5.25145e-07
-5.25145e-07
-5.25145e-07
-5.19411e-07
-5.18313e-07
-5.18467e-07
-5.21372e-07
-5.25145e-07
-5.25145e-07
-5.25145e-07
-5.25145e-07
-5.25145e-07
-5.25145e-07
-5.19452e-07
-5.20273e-07
-5.21031e-07
-5.25145e-07
-5.25145e-07
-5.25145e-07
-5.25145e-07
-5.25145e-07
-5.25145e-07
-5.19513e-07
-5.17907e-07
-5.18471e-07
-5.21072e-07
-5.25145e-07
-5.25145e-07
-5.25145e-07
-5.25145e-07
-5.19566e-07
-5.19912e-07
-5.17944e-07
-5.18364e-07
-5.20296e-07
-5.19711e-07
-5.1941e-07
-5.19452e-07
-5.19509e-07
-5.19913e-07
-5.18015e-07
-5.17862e-07
-5.18309e-07
-5.2027e-07
-5.17905e-07
-5.17941e-07
-5.38528e-07
-5.38672e-07
-5.38893e-07
-5.41332e-07
-5.4133e-07
-5.41573e-07
-5.41233e-07
-5.38672e-07
-5.38569e-07
-5.38885e-07
-5.42522e-07
-5.45349e-07
-5.45349e-07
-5.45349e-07
-5.45349e-07
-5.41272e-07
-5.40498e-07
-5.41336e-07
-5.45349e-07
-5.45349e-07
-5.45349e-07
-5.45349e-07
-5.45349e-07
-5.45349e-07
-5.39914e-07
-5.38066e-07
-5.38521e-07
-5.41328e-07
-5.45349e-07
-5.45349e-07
-5.45349e-07
-5.45349e-07
-5.45349e-07
-5.45349e-07
-5.39616e-07
-5.38518e-07
-5.38672e-07
-5.41576e-07
-5.45349e-07
-5.45349e-07
-5.45349e-07
-5.45349e-07
-5.45349e-07
-5.45349e-07
-5.39657e-07
-5.40478e-07
-5.41236e-07
-5.45349e-07
-5.45349e-07
-5.45349e-07
-5.45349e-07
-5.45349e-07
-5.45349e-07
-5.39718e-07
-5.38112e-07
-5.38676e-07
-5.41277e-07
-5.45349e-07
-5.45349e-07
-5.45349e-07
-5.45349e-07
-5.39771e-07
-5.40117e-07
-5.38149e-07
-5.38569e-07
-5.40501e-07
-5.39915e-07
-5.39615e-07
-5.39656e-07
-5.39714e-07
-5.40118e-07
-5.3822e-07
-5.38067e-07
-5.38514e-07
-5.40475e-07
-5.3811e-07
-5.38146e-07
-5.58732e-07
-5.58877e-07
-5.59097e-07
-5.61536e-07
-5.61534e-07
-5.61778e-07
-5.61437e-07
-5.58878e-07
-5.58774e-07
-5.59089e-07
-5.62727e-07
-5.65554e-07
-5.65554e-07
-5.65555e-07
-5.65554e-07
-5.61476e-07
-5.60703e-07
-5.6154e-07
-5.65554e-07
-5.65554e-07
-5.65554e-07
-5.65554e-07
-5.65554e-07
-5.65554e-07
-5.60119e-07
-5.5827e-07
-5.58725e-07
-5.61532e-07
-5.65554e-07
-5.65554e-07
-5.65554e-07
-5.65554e-07
-5.65554e-07
-5.65554e-07
-5.59821e-07
-5.58723e-07
-5.58877e-07
-5.61781e-07
-5.65554e-07
-5.65554e-07
-5.65554e-07
-5.65554e-07
-5.65554e-07
-5.65554e-07
-5.59862e-07
-5.60683e-07
-5.61441e-07
-5.65554e-07
-5.65554e-07
-5.65554e-07
-5.65554e-07
-5.65554e-07
-5.65554e-07
-5.59922e-07
-5.58316e-07
-5.5888e-07
-5.61482e-07
-5.65554e-07
-5.65554e-07
-5.65554e-07
-5.65554e-07
-5.59976e-07
-5.60322e-07
-5.58353e-07
-5.58774e-07
-5.60706e-07
-5.6012e-07
-5.59819e-07
-5.59861e-07
-5.59919e-07
-5.60323e-07
-5.58425e-07
-5.58272e-07
-5.58719e-07
-5.6068e-07
-5.58315e-07
-5.58351e-07
-5.78937e-07
-5.79082e-07
-5.79303e-07
-5.81741e-07
-5.81739e-07
-5.81984e-07
-5.81643e-07
-5.79081e-07
-5.78979e-07
-5.79295e-07
-5.82933e-07
-5.8576e-07
-5.8576e-07
-5.8576e-07
-5.8576e-07
-5.81683e-07
-5.80908e-07
-5.81746e-07
-5.8576e-07
-5.85759e-07
-5.8576e-07
-5.85759e-07
-5.8576e-07
-5.8576e-07
-5.80324e-07
-5.78476e-07
-5.78931e-07
-5.81738e-07
-5.8576e-07
-5.8576e-07
-5.8576e-07
-5.8576e-07
-5.8576e-07
-5.8576e-07
-5.80026e-07
-5.78928e-07
-5.79082e-07
-5.81987e-07
-5.8576e-07
-5.8576e-07
-5.8576e-07
-5.8576e-07
-5.8576e-07
-5.8576e-07
-5.80068e-07
-5.80888e-07
-5.81646e-07
-5.8576e-07
-5.8576e-07
-5.8576e-07
-5.8576e-07
-5.8576e-07
-5.8576e-07
-5.80128e-07
-5.78522e-07
-5.79086e-07
-5.81687e-07
-5.8576e-07
-5.8576e-07
-5.8576e-07
-5.8576e-07
-5.80181e-07
-5.80527e-07
-5.78559e-07
-5.78979e-07
-5.80911e-07
-5.80326e-07
-5.80025e-07
-5.80066e-07
-5.80124e-07
-5.80528e-07
-5.7863e-07
-5.78477e-07
-5.78924e-07
-5.80885e-07
-5.7852e-07
-5.78556e-07
-5.99143e-07
-5.99288e-07
-5.99508e-07
-6.01947e-07
-6.01945e-07
-6.02189e-07
-6.01848e-07
-5.99287e-07
-5.99184e-07
-5.995e-07
-6.03137e-07
-6.05964e-07
-6.05964e-07
-6.05965e-07
-6.05965e-07
-6.01888e-07
-6.01113e-07
-6.01951e-07
-6.05965e-07
-6.05964e-07
-6.05965e-07
-6.05965e-07
-6.05965e-07
-6.05965e-07
-6.0053e-07
-5.9868e-07
-5.99136e-07
-6.01943e-07
-6.05965e-07
-6.05965e-07
-6.05965e-07
-6.05965e-07
-6.05965e-07
-6.05965e-07
-6.00231e-07
-5.99133e-07
-5.99287e-07