/*--------------------------------*- C++ -*----------------------------------*\
| =========                 |                                                 |
| \\      /  F ield         | OpenFOAM: The Open Source CFD Toolbox           |
|  \\    /   O peration     | Version:  v1906                                 |
|   \\  /    A nd           | Web:      www.OpenFOAM.com                      |
|    \\/     M anipulation  |                                                 |
\*---------------------------------------------------------------------------*/
FoamFile
{
    version     2.0;
    format      ascii;
    class       volScalarField;
    location    "0.22";
    object      p;
}
// * * * * * * * * * * * * * * * * * * * * * * * * * * * * * * * * * * * * * //

dimensions      [0 2 -2 0 0 0 0];


internalField   nonuniform List<scalar> 
247104
(
-9.81905e-11
2.65957e-13
8.70109e-11
-1.52047e-11
-1.68093e-10
1.78124e-11
8.09736e-11
-7.5909e-11
9.76469e-12
5.87122e-11
1.05401e-10
-8.07877e-11
-2.01048e-10
-5.36117e-11
1.15814e-10
2.93855e-11
1.22239e-10
1.23924e-10
-1.86503e-10
-5.69385e-10
-7.22445e-10
-5.30204e-10
-1.38531e-10
1.38081e-10
1.1451e-10
3.61044e-11
-4.35221e-11
-5.49708e-10
-1.04159e-09
-1.21953e-09
-9.94812e-10
-4.81494e-10
-5.52537e-12
1.39238e-11
-9.6663e-11
-1.05482e-10
-1.47155e-10
-6.84354e-10
-1.20038e-09
-1.3843e-09
-1.15191e-09
-6.12363e-10
-1.08533e-10
-1.47311e-10
9.28538e-11
1.38725e-11
-4.76895e-10
-9.59283e-10
-1.13488e-09
-9.13311e-10
-4.10793e-10
4.88985e-11
7.15929e-11
1.64539e-10
1.92165e-10
-7.47726e-11
-4.33907e-10
-5.81904e-10
-3.9655e-10
-3.17414e-11
1.99555e-10
1.53238e-10
8.52442e-12
1.088e-10
2.06727e-10
4.88904e-11
-6.87484e-11
7.43921e-11
2.11426e-10
7.16019e-11
1.82067e-10
6.91678e-11
-1.02062e-10
1.06375e-10
1.74665e-10
-3.3854e-08
-3.59182e-08
-3.61202e-08
-3.72838e-08
-3.73721e-08
-3.74528e-08
-3.74447e-08
-3.60736e-08
-3.57129e-08
-3.61269e-08
-3.81843e-08
-4.10798e-08
-4.11629e-08
-4.11635e-08
-4.10796e-08
-3.77816e-08
-3.75742e-08
-3.72798e-08
-4.10776e-08
-4.11459e-08
-4.10994e-08
-4.10995e-08
-4.11461e-08
-4.10767e-08
-3.73582e-08
-3.64054e-08
-3.38412e-08
-3.73659e-08
-4.11584e-08
-4.10965e-08
-4.09918e-08
-4.09918e-08
-4.10966e-08
-4.11577e-08
-3.74591e-08
-3.58111e-08
-3.58927e-08
-3.74417e-08
-4.11556e-08
-4.10937e-08
-4.09889e-08
-4.09889e-08
-4.10937e-08
-4.11548e-08
-3.72986e-08
-3.74802e-08
-3.74286e-08
-4.10701e-08
-4.1138e-08
-4.10909e-08
-4.10909e-08
-4.11376e-08
-4.10694e-08
-3.74769e-08
-3.65675e-08
-3.60537e-08
-3.77675e-08
-4.10674e-08
-4.11499e-08
-4.11505e-08
-4.10671e-08
-3.76316e-08
-3.73616e-08
-3.59662e-08
-3.56797e-08
-3.75612e-08
-3.73424e-08
-3.7446e-08
-3.72894e-08
-3.74716e-08
-3.73593e-08
-3.51778e-08
-3.63823e-08
-3.57988e-08
-3.74701e-08
-3.65601e-08
-3.59586e-08
-5.39589e-08
-5.41585e-08
-5.43068e-08
-5.64874e-08
-5.65538e-08
-5.65654e-08
-5.65063e-08
-5.42635e-08
-5.40788e-08
-5.43029e-08
-5.71961e-08
-6.01786e-08
-6.03415e-08
-6.03425e-08
-6.01841e-08
-5.65112e-08
-5.60273e-08
-5.64863e-08
-6.01944e-08
-6.05791e-08
-6.05766e-08
-6.05768e-08
-6.05797e-08
-6.0187e-08
-5.57032e-08
-5.37244e-08
-5.3952e-08
-5.65493e-08
-6.03421e-08
-6.05768e-08
-6.0557e-08
-6.05569e-08
-6.05762e-08
-6.03398e-08
-5.56685e-08
-5.4038e-08
-5.41505e-08
-5.65586e-08
-6.03412e-08
-6.05764e-08
-6.05563e-08
-6.05559e-08
-6.05746e-08
-6.03386e-08
-5.57377e-08
-5.59891e-08
-5.64993e-08
-6.0187e-08
-6.05777e-08
-6.05747e-08
-6.0574e-08
-6.05753e-08
-6.01828e-08
-5.56392e-08
-5.36767e-08
-5.42552e-08
-5.65051e-08
-6.01828e-08
-6.03377e-08
-6.03383e-08
-6.01779e-08
-5.60122e-08
-5.58228e-08
-5.37686e-08
-5.40696e-08
-5.60179e-08
-5.56963e-08
-5.5666e-08
-5.57366e-08
-5.56381e-08
-5.5824e-08
-5.3807e-08
-5.37185e-08
-5.40326e-08
-5.5988e-08
-5.36722e-08
-5.37727e-08
-7.33617e-08
-7.35352e-08
-7.36486e-08
-7.59158e-08
-7.59703e-08
-7.60723e-08
-7.58774e-08
-7.36309e-08
-7.34137e-08
-7.36475e-08
-7.67578e-08
-7.96751e-08
-7.97314e-08
-7.97326e-08
-7.96782e-08
-7.60143e-08
-7.53104e-08
-7.59084e-08
-7.96719e-08
-7.98376e-08
-7.98411e-08
-7.98418e-08
-7.98392e-08
-7.96756e-08
-7.50598e-08
-7.3112e-08
-7.33502e-08
-7.59614e-08
-7.97279e-08
-7.98403e-08
-7.98386e-08
-7.9839e-08
-7.9841e-08
-7.97294e-08
-7.49599e-08
-7.34517e-08
-7.35254e-08
-7.60641e-08
-7.97281e-08
-7.98394e-08
-7.98377e-08
-7.9838e-08
-7.98398e-08
-7.97294e-08
-7.49979e-08
-7.52796e-08
-7.58715e-08
-7.96723e-08
-7.98349e-08
-7.98385e-08
-7.98391e-08
-7.9836e-08
-7.96726e-08
-7.49803e-08
-7.30979e-08
-7.36231e-08
-7.60082e-08
-7.96698e-08
-7.97254e-08
-7.97266e-08
-7.96695e-08
-7.51964e-08
-7.51298e-08
-7.31233e-08
-7.34083e-08
-7.53039e-08
-7.50531e-08
-7.49559e-08
-7.49942e-08
-7.4977e-08
-7.51284e-08
-7.31344e-08
-7.3104e-08
-7.34475e-08
-7.52698e-08
-7.30923e-08
-7.31202e-08
-9.27463e-08
-9.29147e-08
-9.30929e-08
-9.53617e-08
-9.5429e-08
-9.55728e-08
-9.53293e-08
-9.30523e-08
-9.28395e-08
-9.30969e-08
-9.62354e-08
-9.91557e-08
-9.91736e-08
-9.91735e-08
-9.91566e-08
-9.55247e-08
-9.47165e-08
-9.53569e-08
-9.91548e-08
-9.92025e-08
-9.92051e-08
-9.92054e-08
-9.92037e-08
-9.91564e-08
-9.44529e-08
-9.25073e-08
-9.27373e-08
-9.54253e-08
-9.91715e-08
-9.92041e-08
-9.92045e-08
-9.92047e-08
-9.92047e-08
-9.91731e-08
-9.43008e-08
-9.27997e-08
-9.2912e-08
-9.55697e-08
-9.91713e-08
-9.92038e-08
-9.92039e-08
-9.9204e-08
-9.92039e-08
-9.9172e-08
-9.43207e-08
-9.46215e-08
-9.53257e-08
-9.91537e-08
-9.92014e-08
-9.92033e-08
-9.92031e-08
-9.92008e-08
-9.91534e-08
-9.43544e-08
-9.24533e-08
-9.30466e-08
-9.55181e-08
-9.91531e-08
-9.91707e-08
-9.91704e-08
-9.91523e-08
-9.45119e-08
-9.45065e-08
-9.25278e-08
-9.28327e-08
-9.47113e-08
-9.44483e-08
-9.42973e-08
-9.43179e-08
-9.43511e-08
-9.4502e-08
-9.25907e-08
-9.25027e-08
-9.27944e-08
-9.46158e-08
-9.24462e-08
-9.25223e-08
-1.12179e-07
-1.12345e-07
-1.1254e-07
-1.14815e-07
-1.14885e-07
-1.15035e-07
-1.14787e-07
-1.12498e-07
-1.12289e-07
-1.12547e-07
-1.15691e-07
-1.1862e-07
-1.18625e-07
-1.18624e-07
-1.18619e-07
-1.15001e-07
-1.14161e-07
-1.14814e-07
-1.18619e-07
-1.18632e-07
-1.18632e-07
-1.18632e-07
-1.18631e-07
-1.18617e-07
-1.13891e-07
-1.11946e-07
-1.12172e-07
-1.14884e-07
-1.18625e-07
-1.18632e-07
-1.18632e-07
-1.18632e-07
-1.18631e-07
-1.18623e-07
-1.13725e-07
-1.12215e-07
-1.12343e-07
-1.15035e-07
-1.18625e-07
-1.18632e-07
-1.18632e-07
-1.18632e-07
-1.18632e-07
-1.18623e-07
-1.13735e-07
-1.1404e-07
-1.14787e-07
-1.1862e-07
-1.18632e-07
-1.18632e-07
-1.18632e-07
-1.18631e-07
-1.18619e-07
-1.13791e-07
-1.11872e-07
-1.12496e-07
-1.15005e-07
-1.18619e-07
-1.18624e-07
-1.18624e-07
-1.18619e-07
-1.13928e-07
-1.13939e-07
-1.11969e-07
-1.12289e-07
-1.14161e-07
-1.13891e-07
-1.13726e-07
-1.13736e-07
-1.1379e-07
-1.13945e-07
-1.11999e-07
-1.11945e-07
-1.12212e-07
-1.14039e-07
-1.11871e-07
-1.11969e-07
-1.31635e-07
-1.318e-07
-1.31998e-07
-1.34275e-07
-1.34346e-07
-1.34497e-07
-1.34249e-07
-1.31958e-07
-1.31738e-07
-1.32002e-07
-1.35151e-07
-1.38078e-07
-1.38079e-07
-1.38079e-07
-1.38079e-07
-1.34471e-07
-1.33647e-07
-1.34275e-07
-1.38078e-07
-1.38081e-07
-1.38081e-07
-1.38081e-07
-1.38081e-07
-1.38078e-07
-1.33354e-07
-1.31405e-07
-1.3163e-07
-1.34345e-07
-1.38079e-07
-1.38081e-07
-1.3808e-07
-1.3808e-07
-1.38081e-07
-1.38079e-07
-1.33179e-07
-1.31668e-07
-1.31801e-07
-1.34497e-07
-1.38079e-07
-1.38081e-07
-1.3808e-07
-1.3808e-07
-1.38081e-07
-1.3808e-07
-1.33186e-07
-1.33493e-07
-1.3425e-07
-1.38079e-07
-1.38081e-07
-1.38081e-07
-1.38081e-07
-1.38081e-07
-1.38078e-07
-1.33248e-07
-1.31326e-07
-1.31958e-07
-1.34467e-07
-1.38079e-07
-1.38079e-07
-1.38079e-07
-1.38079e-07
-1.33373e-07
-1.33392e-07
-1.31427e-07
-1.31759e-07
-1.3362e-07
-1.33349e-07
-1.3318e-07
-1.33186e-07
-1.3325e-07
-1.334e-07
-1.3146e-07
-1.31406e-07
-1.31666e-07
-1.33493e-07
-1.31328e-07
-1.31429e-07
-1.51082e-07
-1.51246e-07
-1.51446e-07
-1.5372e-07
-1.53792e-07
-1.53943e-07
-1.53695e-07
-1.51404e-07
-1.51186e-07
-1.5145e-07
-1.54595e-07
-1.57523e-07
-1.57524e-07
-1.57523e-07
-1.57523e-07
-1.53918e-07
-1.53093e-07
-1.53721e-07
-1.57523e-07
-1.57524e-07
-1.57524e-07
-1.57524e-07
-1.57524e-07
-1.57524e-07
-1.52801e-07
-1.50854e-07
-1.51076e-07
-1.53792e-07
-1.57524e-07
-1.57524e-07
-1.57523e-07
-1.57523e-07
-1.57524e-07
-1.57523e-07
-1.52622e-07
-1.51115e-07
-1.51247e-07
-1.53944e-07
-1.57524e-07
-1.57524e-07
-1.57523e-07
-1.57523e-07
-1.57524e-07
-1.57524e-07
-1.52628e-07
-1.52937e-07
-1.53697e-07
-1.57523e-07
-1.57524e-07
-1.57524e-07
-1.57524e-07
-1.57524e-07
-1.57523e-07
-1.52692e-07
-1.50772e-07
-1.51407e-07
-1.53914e-07
-1.57523e-07
-1.57524e-07
-1.57524e-07
-1.57523e-07
-1.52818e-07
-1.52837e-07
-1.50875e-07
-1.51207e-07
-1.53065e-07
-1.52797e-07
-1.52623e-07
-1.5263e-07
-1.52693e-07
-1.52843e-07
-1.50906e-07
-1.50852e-07
-1.51112e-07
-1.52937e-07
-1.50774e-07
-1.50876e-07
-1.70518e-07
-1.70683e-07
-1.70882e-07
-1.73159e-07
-1.7323e-07
-1.73382e-07
-1.73135e-07
-1.70841e-07
-1.70622e-07
-1.70887e-07
-1.74033e-07
-1.76965e-07
-1.76966e-07
-1.76966e-07
-1.76965e-07
-1.73359e-07
-1.72531e-07
-1.7316e-07
-1.76965e-07
-1.76966e-07
-1.76966e-07
-1.76966e-07
-1.76966e-07
-1.76965e-07
-1.72238e-07
-1.7029e-07
-1.70512e-07
-1.7323e-07
-1.76965e-07
-1.76966e-07
-1.76966e-07
-1.76966e-07
-1.76966e-07
-1.76966e-07
-1.72062e-07
-1.70551e-07
-1.70683e-07
-1.73383e-07
-1.76965e-07
-1.76966e-07
-1.76966e-07
-1.76966e-07
-1.76966e-07
-1.76966e-07
-1.72068e-07
-1.72375e-07
-1.73135e-07
-1.76965e-07
-1.76966e-07
-1.76966e-07
-1.76966e-07
-1.76966e-07
-1.76965e-07
-1.72131e-07
-1.70209e-07
-1.70843e-07
-1.73354e-07
-1.76965e-07
-1.76965e-07
-1.76965e-07
-1.76965e-07
-1.72255e-07
-1.72274e-07
-1.70311e-07
-1.70644e-07
-1.72504e-07
-1.72237e-07
-1.72062e-07
-1.72069e-07
-1.72133e-07
-1.72281e-07
-1.70343e-07
-1.70289e-07
-1.7055e-07
-1.72374e-07
-1.7021e-07
-1.70312e-07
-1.89967e-07
-1.90132e-07
-1.90332e-07
-1.9261e-07
-1.92681e-07
-1.92833e-07
-1.92585e-07
-1.90291e-07
-1.90072e-07
-1.90336e-07
-1.93485e-07
-1.96418e-07
-1.96418e-07
-1.96418e-07
-1.96418e-07
-1.92812e-07
-1.91982e-07
-1.92611e-07
-1.96417e-07
-1.96418e-07
-1.96418e-07
-1.96418e-07
-1.96418e-07
-1.96418e-07
-1.9169e-07
-1.8974e-07
-1.89961e-07
-1.92682e-07
-1.96418e-07
-1.96418e-07
-1.96418e-07
-1.96418e-07
-1.96418e-07
-1.96418e-07
-1.91513e-07
-1.90001e-07
-1.90132e-07
-1.92834e-07
-1.96418e-07
-1.96418e-07
-1.96418e-07
-1.96418e-07
-1.96418e-07
-1.96418e-07
-1.91519e-07
-1.91825e-07
-1.92586e-07
-1.96418e-07
-1.96418e-07
-1.96418e-07
-1.96418e-07
-1.96418e-07
-1.96418e-07
-1.91582e-07
-1.89658e-07
-1.90293e-07
-1.92805e-07
-1.96418e-07
-1.96418e-07
-1.96418e-07
-1.96418e-07
-1.91706e-07
-1.91725e-07
-1.89761e-07
-1.90093e-07
-1.91955e-07
-1.91687e-07
-1.91513e-07
-1.9152e-07
-1.91584e-07
-1.91732e-07
-1.89793e-07
-1.89738e-07
-1.89999e-07
-1.91824e-07
-1.89659e-07
-1.89762e-07
-2.09427e-07
-2.09591e-07
-2.09793e-07
-2.1207e-07
-2.12139e-07
-2.12291e-07
-2.12044e-07
-2.09748e-07
-2.09531e-07
-2.09797e-07
-2.12941e-07
-2.15874e-07
-2.15874e-07
-2.15874e-07
-2.15874e-07
-2.12269e-07
-2.1144e-07
-2.12069e-07
-2.15874e-07
-2.15874e-07
-2.15874e-07
-2.15874e-07
-2.15874e-07
-2.15874e-07
-2.11147e-07
-2.09199e-07
-2.0942e-07
-2.1214e-07
-2.15874e-07
-2.15874e-07
-2.15874e-07
-2.15874e-07
-2.15874e-07
-2.15874e-07
-2.10971e-07
-2.09459e-07
-2.09591e-07
-2.12292e-07
-2.15874e-07
-2.15874e-07
-2.15874e-07
-2.15874e-07
-2.15874e-07
-2.15874e-07
-2.10976e-07
-2.11284e-07
-2.12044e-07
-2.15874e-07
-2.15874e-07
-2.15874e-07
-2.15874e-07
-2.15874e-07
-2.15874e-07
-2.11039e-07
-2.09117e-07
-2.09751e-07
-2.12263e-07
-2.15874e-07
-2.15874e-07
-2.15874e-07
-2.15874e-07
-2.11164e-07
-2.11183e-07
-2.0922e-07
-2.09552e-07
-2.11413e-07
-2.11145e-07
-2.10971e-07
-2.10977e-07
-2.11041e-07
-2.1119e-07
-2.09251e-07
-2.09197e-07
-2.09457e-07
-2.11283e-07
-2.09118e-07
-2.0922e-07
-2.28881e-07
-2.29046e-07
-2.29259e-07
-2.31521e-07
-2.31592e-07
-2.31745e-07
-2.31497e-07
-2.29201e-07
-2.28984e-07
-2.29255e-07
-2.32394e-07
-2.35326e-07
-2.35326e-07
-2.35326e-07
-2.35326e-07
-2.3172e-07
-2.30893e-07
-2.31523e-07
-2.35325e-07
-2.35325e-07
-2.35325e-07
-2.35325e-07
-2.35325e-07
-2.35326e-07
-2.306e-07
-2.28653e-07
-2.28875e-07
-2.31593e-07
-2.35325e-07
-2.35325e-07
-2.35325e-07
-2.35325e-07
-2.35325e-07
-2.35325e-07
-2.30423e-07
-2.28913e-07
-2.29045e-07
-2.31745e-07
-2.35325e-07
-2.35325e-07
-2.35325e-07
-2.35325e-07
-2.35325e-07
-2.35325e-07
-2.30429e-07
-2.30737e-07
-2.31497e-07
-2.35326e-07
-2.35325e-07
-2.35325e-07
-2.35325e-07
-2.35325e-07
-2.35326e-07
-2.30492e-07
-2.28571e-07
-2.29205e-07
-2.31716e-07
-2.35326e-07
-2.35325e-07
-2.35325e-07
-2.35326e-07
-2.30616e-07
-2.30636e-07
-2.28674e-07
-2.29006e-07
-2.30866e-07
-2.30598e-07
-2.30423e-07
-2.3043e-07
-2.30493e-07
-2.30643e-07
-2.28705e-07
-2.28651e-07
-2.28911e-07
-2.30736e-07
-2.28572e-07
-2.28674e-07
-2.48328e-07
-2.48492e-07
-2.48701e-07
-2.50967e-07
-2.51039e-07
-2.51191e-07
-2.50942e-07
-2.48649e-07
-2.48433e-07
-2.48693e-07
-2.51842e-07
-2.54771e-07
-2.5477e-07
-2.54771e-07
-2.5477e-07
-2.51165e-07
-2.50339e-07
-2.5097e-07
-2.5477e-07
-2.5477e-07
-2.5477e-07
-2.5477e-07
-2.5477e-07
-2.5477e-07
-2.50046e-07
-2.48099e-07
-2.48322e-07
-2.51039e-07
-2.5477e-07
-2.5477e-07
-2.5477e-07
-2.5477e-07
-2.5477e-07
-2.5477e-07
-2.49869e-07
-2.4836e-07
-2.48492e-07
-2.51191e-07
-2.5477e-07
-2.5477e-07
-2.5477e-07
-2.5477e-07
-2.5477e-07
-2.5477e-07
-2.49875e-07
-2.50183e-07
-2.50943e-07
-2.5477e-07
-2.5477e-07
-2.5477e-07
-2.5477e-07
-2.5477e-07
-2.5477e-07
-2.49938e-07
-2.48018e-07
-2.48652e-07
-2.51162e-07
-2.5477e-07
-2.5477e-07
-2.5477e-07
-2.5477e-07
-2.50061e-07
-2.50082e-07
-2.48121e-07
-2.48453e-07
-2.50312e-07
-2.50044e-07
-2.49869e-07
-2.49876e-07
-2.49939e-07
-2.50089e-07
-2.48152e-07
-2.48098e-07
-2.48358e-07
-2.50182e-07
-2.48019e-07
-2.48121e-07
-2.67765e-07
-2.67929e-07
-2.68138e-07
-2.70404e-07
-2.70476e-07
-2.70628e-07
-2.7038e-07
-2.68087e-07
-2.6787e-07
-2.68131e-07
-2.7128e-07
-2.74209e-07
-2.74209e-07
-2.74209e-07
-2.74209e-07
-2.70603e-07
-2.69776e-07
-2.70407e-07
-2.74209e-07
-2.74209e-07
-2.74209e-07
-2.74209e-07
-2.74209e-07
-2.74209e-07
-2.69484e-07
-2.67537e-07
-2.67759e-07
-2.70476e-07
-2.74209e-07
-2.74209e-07
-2.7421e-07
-2.7421e-07
-2.74209e-07
-2.74209e-07
-2.69307e-07
-2.67797e-07
-2.67929e-07
-2.70629e-07
-2.74209e-07
-2.74209e-07
-2.7421e-07
-2.7421e-07
-2.74209e-07
-2.74209e-07
-2.69313e-07
-2.6962e-07
-2.70381e-07
-2.74209e-07
-2.74209e-07
-2.74209e-07
-2.74209e-07
-2.74209e-07
-2.74209e-07
-2.69376e-07
-2.67455e-07
-2.68089e-07
-2.706e-07
-2.74209e-07
-2.74209e-07
-2.74209e-07
-2.74209e-07
-2.69499e-07
-2.69519e-07
-2.67558e-07
-2.6789e-07
-2.6975e-07
-2.69481e-07
-2.69307e-07
-2.69314e-07
-2.69377e-07
-2.69526e-07
-2.67589e-07
-2.67535e-07
-2.67795e-07
-2.69619e-07
-2.67456e-07
-2.67559e-07
-2.87205e-07
-2.8737e-07
-2.87584e-07
-2.89847e-07
-2.89919e-07
-2.90071e-07
-2.89821e-07
-2.87528e-07
-2.87311e-07
-2.87581e-07
-2.9072e-07
-2.93656e-07
-2.93656e-07
-2.93656e-07
-2.93655e-07
-2.90047e-07
-2.89219e-07
-2.89849e-07
-2.93656e-07
-2.93656e-07
-2.93656e-07
-2.93656e-07
-2.93656e-07
-2.93655e-07
-2.88927e-07
-2.86977e-07
-2.87199e-07
-2.89919e-07
-2.93656e-07
-2.93656e-07
-2.93656e-07
-2.93656e-07
-2.93656e-07
-2.93656e-07
-2.88751e-07
-2.87238e-07
-2.8737e-07
-2.90072e-07
-2.93656e-07
-2.93656e-07
-2.93656e-07
-2.93656e-07
-2.93656e-07
-2.93656e-07
-2.88757e-07
-2.89062e-07
-2.89824e-07
-2.93656e-07
-2.93656e-07
-2.93656e-07
-2.93656e-07
-2.93656e-07
-2.93655e-07
-2.88819e-07
-2.86896e-07
-2.8753e-07
-2.90044e-07
-2.93656e-07
-2.93656e-07
-2.93656e-07
-2.93655e-07
-2.88944e-07
-2.88962e-07
-2.86998e-07
-2.87331e-07
-2.89192e-07
-2.88925e-07
-2.88751e-07
-2.88757e-07
-2.8882e-07
-2.88969e-07
-2.8703e-07
-2.86976e-07
-2.87236e-07
-2.89061e-07
-2.86896e-07
-2.86999e-07
-3.06664e-07
-3.06829e-07
-3.07041e-07
-3.09306e-07
-3.09378e-07
-3.0953e-07
-3.09281e-07
-3.06987e-07
-3.0677e-07
-3.07038e-07
-3.10179e-07
-3.13114e-07
-3.13113e-07
-3.13113e-07
-3.13113e-07
-3.09506e-07
-3.08679e-07
-3.09308e-07
-3.13113e-07
-3.13113e-07
-3.13113e-07
-3.13113e-07
-3.13113e-07
-3.13113e-07
-3.08386e-07
-3.06437e-07
-3.06658e-07
-3.09378e-07
-3.13113e-07
-3.13113e-07
-3.13113e-07
-3.13113e-07
-3.13113e-07
-3.13113e-07
-3.08209e-07
-3.06697e-07
-3.06829e-07
-3.09531e-07
-3.13113e-07
-3.13113e-07
-3.13113e-07
-3.13113e-07
-3.13113e-07
-3.13113e-07
-3.08215e-07
-3.08522e-07
-3.09283e-07
-3.13113e-07
-3.13113e-07
-3.13113e-07
-3.13113e-07
-3.13113e-07
-3.13113e-07
-3.08278e-07
-3.06355e-07
-3.0699e-07
-3.09502e-07
-3.13113e-07
-3.13113e-07
-3.13113e-07
-3.13113e-07
-3.08402e-07
-3.08421e-07
-3.06458e-07
-3.0679e-07
-3.08652e-07
-3.08384e-07
-3.0821e-07
-3.08217e-07
-3.08279e-07
-3.08429e-07
-3.0649e-07
-3.06435e-07
-3.06695e-07
-3.08523e-07
-3.06356e-07
-3.06458e-07
-3.2612e-07
-3.26285e-07
-3.26497e-07
-3.2876e-07
-3.28831e-07
-3.28984e-07
-3.28735e-07
-3.26444e-07
-3.26226e-07
-3.26494e-07
-3.29633e-07
-3.32564e-07
-3.32564e-07
-3.32564e-07
-3.32564e-07
-3.28959e-07
-3.28133e-07
-3.28762e-07
-3.32564e-07
-3.32564e-07
-3.32564e-07
-3.32564e-07
-3.32564e-07
-3.32564e-07
-3.2784e-07
-3.25893e-07
-3.26115e-07
-3.28833e-07
-3.32564e-07
-3.32564e-07
-3.32564e-07
-3.32564e-07
-3.32564e-07
-3.32564e-07
-3.27663e-07
-3.26153e-07
-3.26285e-07
-3.28985e-07
-3.32564e-07
-3.32564e-07
-3.32564e-07
-3.32564e-07
-3.32564e-07
-3.32564e-07
-3.27669e-07
-3.27977e-07
-3.28737e-07
-3.32564e-07
-3.32564e-07
-3.32564e-07
-3.32564e-07
-3.32564e-07
-3.32564e-07
-3.27732e-07
-3.25811e-07
-3.26446e-07
-3.28955e-07
-3.32564e-07
-3.32564e-07
-3.32564e-07
-3.32564e-07
-3.27856e-07
-3.27875e-07
-3.25914e-07
-3.26246e-07
-3.28106e-07
-3.27837e-07
-3.27663e-07
-3.27669e-07
-3.27732e-07
-3.27882e-07
-3.25945e-07
-3.25891e-07
-3.26151e-07
-3.27976e-07
-3.25812e-07
-3.25915e-07
-3.45562e-07
-3.45727e-07
-3.45939e-07
-3.48202e-07
-3.48273e-07
-3.48426e-07
-3.48177e-07
-3.45885e-07
-3.45668e-07
-3.45935e-07
-3.49075e-07
-3.52008e-07
-3.52008e-07
-3.52008e-07
-3.52008e-07
-3.48401e-07
-3.47575e-07
-3.48204e-07
-3.52008e-07
-3.52008e-07
-3.52008e-07
-3.52008e-07
-3.52008e-07
-3.52008e-07
-3.47282e-07
-3.45334e-07
-3.45556e-07
-3.48274e-07
-3.52008e-07
-3.52008e-07
-3.52008e-07
-3.52008e-07
-3.52008e-07
-3.52008e-07
-3.47105e-07
-3.45595e-07
-3.45726e-07
-3.48427e-07
-3.52008e-07
-3.52008e-07
-3.52008e-07
-3.52008e-07
-3.52008e-07
-3.52008e-07
-3.47111e-07
-3.47418e-07
-3.48179e-07
-3.52008e-07
-3.52008e-07
-3.52008e-07
-3.52008e-07
-3.52008e-07
-3.52008e-07
-3.47174e-07
-3.45252e-07
-3.45887e-07
-3.48398e-07
-3.52008e-07
-3.52008e-07
-3.52008e-07
-3.52008e-07
-3.47298e-07
-3.47317e-07
-3.45356e-07
-3.45688e-07
-3.47548e-07
-3.4728e-07
-3.47105e-07
-3.47111e-07
-3.47175e-07
-3.47324e-07
-3.45386e-07
-3.45333e-07
-3.45593e-07
-3.47417e-07
-3.45253e-07
-3.45356e-07
-3.65008e-07
-3.65173e-07
-3.65385e-07
-3.67649e-07
-3.6772e-07
-3.67872e-07
-3.67624e-07
-3.65331e-07
-3.65114e-07
-3.65381e-07
-3.68523e-07
-3.71456e-07
-3.71456e-07
-3.71456e-07
-3.71456e-07
-3.67848e-07
-3.67021e-07
-3.67651e-07
-3.71456e-07
-3.71456e-07
-3.71456e-07
-3.71456e-07
-3.71456e-07
-3.71456e-07
-3.66729e-07
-3.6478e-07
-3.65002e-07
-3.67721e-07
-3.71456e-07
-3.71456e-07
-3.71456e-07
-3.71456e-07
-3.71456e-07
-3.71456e-07
-3.66553e-07
-3.65041e-07
-3.65172e-07
-3.67874e-07
-3.71456e-07
-3.71456e-07
-3.71456e-07
-3.71456e-07
-3.71456e-07
-3.71456e-07
-3.66558e-07
-3.66865e-07
-3.67626e-07
-3.71456e-07
-3.71456e-07
-3.71456e-07
-3.71456e-07
-3.71456e-07
-3.71456e-07
-3.66621e-07
-3.64699e-07
-3.65333e-07
-3.67845e-07
-3.71456e-07
-3.71456e-07
-3.71456e-07
-3.71456e-07
-3.66746e-07
-3.66764e-07
-3.64802e-07
-3.65134e-07
-3.66995e-07
-3.66727e-07
-3.66553e-07
-3.66559e-07
-3.66622e-07
-3.66772e-07
-3.64833e-07
-3.64779e-07
-3.65039e-07
-3.66864e-07
-3.647e-07
-3.64802e-07
-3.84459e-07
-3.84624e-07
-3.84837e-07
-3.871e-07
-3.87171e-07
-3.87324e-07
-3.87075e-07
-3.84782e-07
-3.84565e-07
-3.84833e-07
-3.87974e-07
-3.90906e-07
-3.90906e-07
-3.90906e-07
-3.90906e-07
-3.87299e-07
-3.86473e-07
-3.87102e-07
-3.90906e-07
-3.90906e-07
-3.90906e-07
-3.90906e-07
-3.90906e-07
-3.90906e-07
-3.8618e-07
-3.84232e-07
-3.84454e-07
-3.87172e-07
-3.90906e-07
-3.90906e-07
-3.90906e-07
-3.90906e-07
-3.90906e-07
-3.90906e-07
-3.86003e-07
-3.84492e-07
-3.84624e-07
-3.87325e-07
-3.90906e-07
-3.90906e-07
-3.90906e-07
-3.90906e-07
-3.90906e-07
-3.90906e-07
-3.86009e-07
-3.86316e-07
-3.87077e-07
-3.90906e-07
-3.90906e-07
-3.90906e-07
-3.90906e-07
-3.90906e-07
-3.90906e-07
-3.86072e-07
-3.8415e-07
-3.84785e-07
-3.87296e-07
-3.90906e-07
-3.90906e-07
-3.90906e-07
-3.90906e-07
-3.86197e-07
-3.86215e-07
-3.84253e-07
-3.84585e-07
-3.86446e-07
-3.86178e-07
-3.86004e-07
-3.8601e-07
-3.86073e-07
-3.86223e-07
-3.84285e-07
-3.8423e-07
-3.84491e-07
-3.86316e-07
-3.84151e-07
-3.84254e-07
-4.0391e-07
-4.04074e-07
-4.04287e-07
-4.0655e-07
-4.06621e-07
-4.06773e-07
-4.06524e-07
-4.04232e-07
-4.04015e-07
-4.04283e-07
-4.07423e-07
-4.10354e-07
-4.10354e-07
-4.10354e-07
-4.10354e-07
-4.06748e-07
-4.05922e-07
-4.06551e-07
-4.10354e-07
-4.10354e-07
-4.10354e-07
-4.10354e-07
-4.10354e-07
-4.10354e-07
-4.05629e-07
-4.03682e-07
-4.03904e-07
-4.06622e-07
-4.10354e-07
-4.10354e-07
-4.10354e-07
-4.10354e-07
-4.10354e-07
-4.10354e-07
-4.05452e-07
-4.03943e-07
-4.04074e-07
-4.06774e-07
-4.10354e-07
-4.10354e-07
-4.10354e-07
-4.10354e-07
-4.10354e-07
-4.10354e-07
-4.05458e-07
-4.05766e-07
-4.06526e-07
-4.10354e-07
-4.10354e-07
-4.10354e-07
-4.10354e-07
-4.10354e-07
-4.10354e-07
-4.05521e-07
-4.036e-07
-4.04235e-07
-4.06745e-07
-4.10354e-07
-4.10354e-07
-4.10354e-07
-4.10354e-07
-4.05645e-07
-4.05665e-07
-4.03703e-07
-4.04035e-07
-4.05895e-07
-4.05627e-07
-4.05452e-07
-4.05459e-07
-4.05522e-07
-4.05672e-07
-4.03734e-07
-4.0368e-07
-4.03941e-07
-4.05765e-07
-4.03602e-07
-4.03703e-07
-4.23352e-07
-4.23517e-07
-4.23729e-07
-4.25992e-07
-4.26063e-07
-4.26215e-07
-4.25966e-07
-4.23674e-07
-4.23457e-07
-4.23725e-07
-4.26865e-07
-4.29796e-07
-4.29796e-07
-4.29796e-07
-4.29796e-07
-4.26191e-07
-4.25364e-07
-4.25993e-07
-4.29796e-07
-4.29796e-07
-4.29796e-07
-4.29796e-07
-4.29796e-07
-4.29796e-07
-4.25071e-07
-4.23125e-07
-4.23347e-07
-4.26064e-07
-4.29796e-07
-4.29796e-07
-4.29796e-07
-4.29796e-07
-4.29796e-07
-4.29796e-07
-4.24894e-07
-4.23385e-07
-4.23517e-07
-4.26216e-07
-4.29796e-07
-4.29796e-07
-4.29796e-07
-4.29796e-07
-4.29796e-07
-4.29796e-07
-4.249e-07
-4.25208e-07
-4.25968e-07
-4.29796e-07
-4.29796e-07
-4.29796e-07
-4.29796e-07
-4.29796e-07
-4.29796e-07
-4.24963e-07
-4.23043e-07
-4.23677e-07
-4.26187e-07
-4.29796e-07
-4.29796e-07
-4.29796e-07
-4.29796e-07
-4.25087e-07
-4.25107e-07
-4.23146e-07
-4.23478e-07
-4.25337e-07
-4.25069e-07
-4.24895e-07
-4.24901e-07
-4.24964e-07
-4.25114e-07
-4.23177e-07
-4.23123e-07
-4.23384e-07
-4.25208e-07
-4.23044e-07
-4.23146e-07
-4.4279e-07
-4.42954e-07
-4.43167e-07
-4.45431e-07
-4.45503e-07
-4.45655e-07
-4.45406e-07
-4.43112e-07
-4.42895e-07
-4.43163e-07
-4.46305e-07
-4.4924e-07
-4.4924e-07
-4.4924e-07
-4.4924e-07
-4.45632e-07
-4.44804e-07
-4.45433e-07
-4.4924e-07
-4.4924e-07
-4.49241e-07
-4.49241e-07
-4.4924e-07
-4.4924e-07
-4.44512e-07
-4.42563e-07
-4.42784e-07
-4.45503e-07
-4.4924e-07
-4.49241e-07
-4.49241e-07
-4.49241e-07
-4.49241e-07
-4.4924e-07
-4.44335e-07
-4.42823e-07
-4.42954e-07
-4.45656e-07
-4.4924e-07
-4.49241e-07
-4.49241e-07
-4.49241e-07
-4.49241e-07
-4.4924e-07
-4.44341e-07
-4.44647e-07
-4.45408e-07
-4.4924e-07
-4.4924e-07
-4.49241e-07
-4.49241e-07
-4.4924e-07
-4.4924e-07
-4.44404e-07
-4.42481e-07
-4.43115e-07
-4.45628e-07
-4.4924e-07
-4.4924e-07
-4.4924e-07
-4.4924e-07
-4.44529e-07
-4.44547e-07
-4.42583e-07
-4.42916e-07
-4.44777e-07
-4.44509e-07
-4.44335e-07
-4.44342e-07
-4.44405e-07
-4.44554e-07
-4.42615e-07
-4.42561e-07
-4.42822e-07
-4.44646e-07
-4.42482e-07
-4.42584e-07
-4.62247e-07
-4.62412e-07
-4.62624e-07
-4.6489e-07
-4.64962e-07
-4.65113e-07
-4.64865e-07
-4.62569e-07
-4.62352e-07
-4.6262e-07
-4.65764e-07
-4.687e-07
-4.687e-07
-4.687e-07
-4.687e-07
-4.65091e-07
-4.64263e-07
-4.64892e-07
-4.687e-07
-4.687e-07
-4.687e-07
-4.68699e-07
-4.687e-07
-4.687e-07
-4.63971e-07
-4.6202e-07
-4.62241e-07
-4.64962e-07
-4.687e-07
-4.687e-07
-4.68699e-07
-4.68699e-07
-4.687e-07
-4.687e-07
-4.63794e-07
-4.62281e-07
-4.62412e-07
-4.65115e-07
-4.687e-07
-4.687e-07
-4.68699e-07
-4.68699e-07
-4.687e-07
-4.687e-07
-4.638e-07
-4.64106e-07
-4.64867e-07
-4.687e-07
-4.687e-07
-4.687e-07
-4.687e-07
-4.687e-07
-4.687e-07
-4.63863e-07
-4.61938e-07
-4.62573e-07
-4.65087e-07
-4.687e-07
-4.687e-07
-4.687e-07
-4.687e-07
-4.63988e-07
-4.64006e-07
-4.62041e-07
-4.62373e-07
-4.64236e-07
-4.63968e-07
-4.63794e-07
-4.638e-07
-4.63864e-07
-4.64013e-07
-4.62073e-07
-4.62018e-07
-4.62279e-07
-4.64105e-07
-4.6194e-07
-4.62041e-07
-4.81714e-07
-4.81879e-07
-4.8209e-07
-4.84354e-07
-4.84425e-07
-4.84577e-07
-4.84328e-07
-4.82034e-07
-4.81818e-07
-4.82087e-07
-4.85227e-07
-4.88158e-07
-4.88157e-07
-4.88157e-07
-4.88157e-07
-4.84552e-07
-4.83727e-07
-4.84356e-07
-4.88158e-07
-4.88157e-07
-4.88157e-07
-4.88156e-07
-4.88157e-07
-4.88157e-07
-4.83433e-07
-4.81486e-07
-4.81708e-07
-4.84426e-07
-4.88157e-07
-4.88157e-07
-4.88156e-07
-4.88156e-07
-4.88156e-07
-4.88157e-07
-4.83256e-07
-4.81747e-07
-4.81879e-07
-4.84578e-07
-4.88157e-07
-4.88157e-07
-4.88156e-07
-4.88156e-07
-4.88156e-07
-4.88157e-07
-4.83262e-07
-4.83571e-07
-4.84331e-07
-4.88158e-07
-4.88157e-07
-4.88156e-07
-4.88156e-07
-4.88157e-07
-4.88158e-07
-4.83325e-07
-4.81404e-07
-4.82039e-07
-4.84549e-07
-4.88158e-07
-4.88157e-07
-4.88157e-07
-4.88158e-07
-4.83449e-07
-4.83469e-07
-4.81508e-07
-4.81839e-07
-4.837e-07
-4.83431e-07
-4.83256e-07
-4.83262e-07
-4.83326e-07
-4.83476e-07
-4.81538e-07
-4.81484e-07
-4.81745e-07
-4.8357e-07
-4.81406e-07
-4.81508e-07
-5.01157e-07
-5.01321e-07
-5.01533e-07
-5.03795e-07
-5.03867e-07
-5.04018e-07
-5.0377e-07
-5.01477e-07
-5.01261e-07
-5.01529e-07
-5.04668e-07
-5.07597e-07
-5.07597e-07
-5.07597e-07
-5.07597e-07
-5.03993e-07
-5.03167e-07
-5.03796e-07
-5.07597e-07
-5.07597e-07
-5.07597e-07
-5.07597e-07
-5.07597e-07
-5.07597e-07
-5.02874e-07
-5.00929e-07
-5.01151e-07
-5.03867e-07
-5.07597e-07
-5.07597e-07
-5.07597e-07
-5.07597e-07
-5.07597e-07
-5.07597e-07
-5.02697e-07
-5.01189e-07
-5.01321e-07
-5.0402e-07
-5.07597e-07
-5.07597e-07
-5.07597e-07
-5.07597e-07
-5.07597e-07
-5.07597e-07
-5.02703e-07
-5.03011e-07
-5.03772e-07
-5.07597e-07
-5.07597e-07
-5.07597e-07
-5.07597e-07
-5.07597e-07
-5.07597e-07
-5.02766e-07
-5.00847e-07
-5.01481e-07
-5.0399e-07
-5.07597e-07
-5.07597e-07
-5.07597e-07
-5.07597e-07
-5.02889e-07
-5.0291e-07
-5.0095e-07
-5.01282e-07
-5.03141e-07
-5.02872e-07
-5.02697e-07
-5.02703e-07
-5.02767e-07
-5.02917e-07
-5.0098e-07
-5.00927e-07
-5.01187e-07
-5.03011e-07
-5.00848e-07
-5.0095e-07
-5.20589e-07
-5.20754e-07
-5.20965e-07
-5.23229e-07
-5.23302e-07
-5.23453e-07
-5.23204e-07
-5.2091e-07
-5.20694e-07
-5.20962e-07
-5.24103e-07
-5.27036e-07
-5.27036e-07
-5.27036e-07
-5.27036e-07
-5.23429e-07
-5.22602e-07
-5.23231e-07
-5.27036e-07
-5.27036e-07
-5.27037e-07
-5.27037e-07
-5.27036e-07
-5.27036e-07
-5.22309e-07
-5.20361e-07
-5.20583e-07
-5.23301e-07
-5.27036e-07
-5.27037e-07
-5.27037e-07
-5.27037e-07
-5.27037e-07
-5.27036e-07
-5.22133e-07
-5.20622e-07
-5.20754e-07
-5.23454e-07
-5.27036e-07
-5.27037e-07
-5.27037e-07
-5.27037e-07
-5.27037e-07
-5.27036e-07
-5.22139e-07
-5.22445e-07
-5.23206e-07
-5.27036e-07
-5.27036e-07
-5.27037e-07
-5.27037e-07
-5.27036e-07
-5.27036e-07
-5.22201e-07
-5.20279e-07
-5.20914e-07
-5.23426e-07
-5.27036e-07
-5.27036e-07
-5.27036e-07
-5.27036e-07
-5.22326e-07
-5.22345e-07
-5.20382e-07
-5.20715e-07
-5.22575e-07
-5.22307e-07
-5.22133e-07
-5.22139e-07
-5.22202e-07
-5.22351e-07
-5.20413e-07
-5.2036e-07
-5.2062e-07
-5.22445e-07
-5.20281e-07
-5.20383e-07
-5.40036e-07
-5.40201e-07
-5.40412e-07
-5.42677e-07
-5.4275e-07
-5.42901e-07
-5.42652e-07
-5.40357e-07
-5.40141e-07
-5.40409e-07
-5.43551e-07
-5.46485e-07
-5.46486e-07
-5.46486e-07
-5.46486e-07
-5.42878e-07
-5.4205e-07
-5.42679e-07
-5.46485e-07
-5.46486e-07
-5.46486e-07
-5.46486e-07
-5.46486e-07
-5.46485e-07
-5.41758e-07
-5.39809e-07
-5.4003e-07
-5.42749e-07
-5.46485e-07
-5.46486e-07
-5.46486e-07
-5.46486e-07
-5.46486e-07
-5.46486e-07
-5.41582e-07
-5.4007e-07
-5.402e-07
-5.42902e-07
-5.46485e-07
-5.46486e-07
-5.46486e-07
-5.46486e-07
-5.46486e-07
-5.46486e-07
-5.41587e-07
-5.41894e-07
-5.42655e-07
-5.46486e-07
-5.46486e-07
-5.46486e-07
-5.46486e-07
-5.46486e-07
-5.46486e-07
-5.4165e-07
-5.39727e-07
-5.40362e-07
-5.42874e-07
-5.46486e-07
-5.46486e-07
-5.46486e-07
-5.46486e-07
-5.41775e-07
-5.41793e-07
-5.3983e-07
-5.40162e-07
-5.42023e-07
-5.41756e-07
-5.41582e-07
-5.41588e-07
-5.41651e-07
-5.418e-07
-5.39861e-07
-5.39807e-07
-5.40068e-07
-5.41893e-07
-5.39728e-07
-5.3983e-07
-5.59491e-07
-5.59656e-07
-5.59868e-07
-5.62132e-07
-5.62205e-07
-5.62356e-07
-5.62108e-07
-5.59813e-07
-5.59597e-07
-5.59865e-07
-5.63006e-07
-5.6594e-07
-5.6594e-07
-5.6594e-07
-5.6594e-07
-5.62333e-07
-5.61505e-07
-5.62135e-07
-5.6594e-07
-5.65939e-07
-5.65939e-07
-5.65939e-07
-5.65939e-07
-5.6594e-07
-5.61212e-07
-5.59264e-07
-5.59485e-07
-5.62205e-07
-5.6594e-07
-5.6594e-07
-5.65939e-07
-5.6594e-07
-5.65939e-07
-5.6594e-07
-5.61036e-07
-5.59525e-07
-5.59656e-07
-5.62358e-07
-5.6594e-07
-5.65939e-07
-5.65939e-07
-5.65939e-07
-5.65939e-07
-5.6594e-07
-5.61042e-07
-5.61349e-07
-5.6211e-07
-5.6594e-07
-5.6594e-07
-5.65939e-07
-5.65939e-07
-5.65939e-07
-5.6594e-07
-5.61104e-07
-5.59182e-07
-5.59817e-07
-5.62329e-07
-5.6594e-07
-5.6594e-07
-5.6594e-07
-5.6594e-07
-5.61229e-07
-5.61248e-07
-5.59285e-07
-5.59617e-07
-5.61478e-07
-5.6121e-07
-5.61036e-07
-5.61042e-07
-5.61105e-07
-5.61255e-07
-5.59316e-07
-5.59262e-07
-5.59523e-07
-5.61348e-07
-5.59184e-07
-5.59285e-07
-5.78947e-07
-5.79112e-07
-5.79323e-07
-5.81587e-07
-5.81659e-07
-5.8181e-07
-5.81561e-07
-5.79267e-07
-5.79051e-07
-5.7932e-07
-5.8246e-07
-5.85391e-07
-5.85391e-07
-5.85391e-07
-5.85391e-07
-5.81786e-07
-5.80959e-07
-5.81589e-07
-5.85392e-07
-5.85391e-07
-5.85391e-07
-5.85391e-07
-5.85391e-07
-5.85391e-07
-5.80666e-07
-5.78718e-07
-5.78941e-07
-5.81659e-07
-5.85391e-07
-5.85391e-07
-5.85391e-07
-5.85391e-07
-5.85391e-07
-5.85391e-07
-5.80489e-07