/*--------------------------------*- C++ -*----------------------------------*\
| =========                 |                                                 |
| \\      /  F ield         | OpenFOAM: The Open Source CFD Toolbox           |
|  \\    /   O peration     | Version:  v1912                                 |
|   \\  /    A nd           | Website:  www.openfoam.com                      |
|    \\/     M anipulation  |                                                 |
\*---------------------------------------------------------------------------*/
FoamFile
{
    version     2.0;
    format      ascii;
    class       volScalarField;
    location    "0.5";
    object      nut;
}
// * * * * * * * * * * * * * * * * * * * * * * * * * * * * * * * * * * * * * //

dimensions      [0 2 -1 0 0 0 0];


internalField   nonuniform List<scalar> 
171728
(
4.40573e-07
5.1618e-07
5.16208e-07
2.03108e-07
2.83459e-08
3.59299e-08
3.61063e-08
5.02185e-08
2.00022e-09
3.06777e-09
3.0611e-09
4.87813e-08
4.27486e-10
1.90169e-09
1.89176e-09
4.88131e-08
3.88442e-10
1.80806e-09
1.81414e-09
4.88172e-08
3.86854e-10
1.81171e-09
1.81104e-09
4.88172e-08
3.76677e-10
1.81515e-09
1.80919e-09
4.88177e-08
3.85715e-10
1.81275e-09
1.81196e-09
4.88177e-08
3.89342e-10
1.812e-09
1.80608e-09
4.88187e-08
3.8067e-10
1.80977e-09
1.81014e-09
4.8818e-08
3.94473e-10
1.8084e-09
1.81104e-09
4.88185e-08
3.95074e-10
1.80632e-09
1.81052e-09
4.88189e-08
4.0266e-10
1.82385e-09
1.81218e-09
4.88189e-08
4.04015e-10
1.82776e-09
1.81114e-09
4.88189e-08
3.82098e-10
1.80146e-09
1.8122e-09
4.88189e-08
3.87708e-10
1.815e-09
1.81045e-09
4.88193e-08
3.93478e-10
1.81135e-09
1.81146e-09
4.88194e-08
3.86154e-10
1.80444e-09
1.81118e-09
4.88191e-08
4.03872e-10
1.79969e-09
1.80935e-09
4.88187e-08
3.77085e-10
1.82245e-09
1.80597e-09
4.88168e-08
4.61346e-10
1.81824e-09
1.81048e-09
4.88208e-08
3.89616e-10
1.81422e-09
1.81192e-09
4.8821e-08
3.92235e-10
1.81294e-09
1.81217e-09
4.88215e-08
3.92198e-10
1.813e-09
1.81244e-09
4.88212e-08
3.93562e-10
1.81298e-09
1.81271e-09
4.88214e-08
3.92996e-10
1.81291e-09
1.81214e-09
4.88214e-08
3.9303e-10
1.81323e-09
1.81252e-09
4.88214e-08
3.93456e-10
1.81271e-09
1.812e-09
4.88213e-08
3.92989e-10
1.81294e-09
1.81223e-09
4.88211e-08
3.93203e-10
1.8134e-09
1.81279e-09
4.88213e-08
3.92461e-10
1.81308e-09
1.81224e-09
4.88213e-08
3.93129e-10
1.81042e-09
1.81218e-09
4.88213e-08
3.93718e-10
1.81385e-09
1.81261e-09
4.88212e-08
3.93124e-10
1.8134e-09
1.81328e-09
4.88214e-08
3.92727e-10
1.81336e-09
1.813e-09
4.88213e-08
3.93295e-10
1.81368e-09
1.81392e-09
4.88212e-08
3.9347e-10
1.81365e-09
1.81389e-09
4.88215e-08
3.93432e-10
1.81314e-09
1.81339e-09
4.88217e-08
3.93912e-10
1.81372e-09
1.81831e-09
4.88217e-08
4.06633e-10
1.81849e-09
1.81752e-09
4.88101e-08
5.09323e-10
1.79456e-09
1.81405e-09
4.88213e-08
3.8874e-10
1.81825e-09
1.8083e-09
4.88213e-08
3.92697e-10
1.81435e-09
1.80891e-09
4.88216e-08
3.94045e-10
1.81216e-09
1.80899e-09
4.8822e-08
3.95003e-10
1.81198e-09
1.81178e-09
4.88222e-08
3.94353e-10
1.81165e-09
1.80985e-09
4.88221e-08
3.94185e-10
1.81191e-09
1.8129e-09
4.88222e-08
3.94242e-10
1.81155e-09
1.81395e-09
4.88224e-08
3.94119e-10
1.81197e-09
1.81441e-09
4.88223e-08
3.94402e-10
1.81163e-09
1.8141e-09
4.88222e-08
3.9472e-10
1.81152e-09
1.815e-09
4.88224e-08
3.94836e-10
1.81166e-09
1.81317e-09
4.88222e-08
3.95524e-10
1.81248e-09
1.81402e-09
4.8822e-08
3.96162e-10
1.81937e-09
1.81403e-09
4.88221e-08
3.98062e-10
1.80772e-09
1.81537e-09
4.88223e-08
3.95456e-10
1.81035e-09
1.81085e-09
4.88201e-08
3.95585e-10
1.81244e-09
1.81115e-09
4.8816e-08
3.95119e-10
1.81207e-09
1.81055e-09
4.88158e-08
3.95094e-10
1.81242e-09
1.81103e-09
4.8816e-08
3.94979e-10
1.81258e-09
1.81048e-09
4.8816e-08
3.95103e-10
1.81263e-09
1.81148e-09
4.88159e-08
3.95224e-10
1.81273e-09
1.81111e-09
4.88164e-08
3.95203e-10
1.81255e-09
1.81096e-09
4.8816e-08
3.95541e-10
1.81248e-09
1.81105e-09
4.8816e-08
3.95173e-10
1.8129e-09
1.81131e-09
4.88159e-08
3.94949e-10
1.81275e-09
1.81116e-09
4.88156e-08
3.94418e-10
1.8121e-09
1.81053e-09
4.88157e-08
3.93549e-10
1.81166e-09
1.81041e-09
4.88157e-08
3.87834e-10
1.81079e-09
1.81142e-09
4.88167e-08
3.81564e-10
1.81208e-09
1.79283e-09
4.88186e-08
3.88824e-10
1.81368e-09
1.80493e-09
4.88146e-08
3.94195e-10
1.81318e-09
1.81127e-09
4.88153e-08
3.94853e-10
1.81231e-09
1.81082e-09
4.88158e-08
3.95017e-10
1.81223e-09
1.81024e-09
4.8815e-08
3.95531e-10
1.81243e-09
1.80996e-09
4.88149e-08
3.95369e-10
1.81251e-09
1.81016e-09
4.88148e-08
3.95065e-10
1.81234e-09
1.80986e-09
4.88151e-08
3.95149e-10
1.81251e-09
1.81038e-09
4.88148e-08
3.95235e-10
1.81261e-09
1.81102e-09
4.88146e-08
3.95398e-10
1.81268e-09
1.8111e-09
4.88151e-08
3.95407e-10
1.81246e-09
1.81088e-09
4.8815e-08
3.95014e-10
1.81238e-09
1.8108e-09
4.88149e-08
3.94783e-10
1.81272e-09
1.81115e-09
4.88149e-08
3.96071e-10
1.81232e-09
1.81075e-09
4.8815e-08
3.95912e-10
1.81245e-09
1.81087e-09
4.88148e-08
3.96086e-10
1.81239e-09
1.81122e-09
4.88148e-08
3.96423e-10
1.81256e-09
1.81097e-09
4.88149e-08
3.95607e-10
1.81214e-09
1.8106e-09
4.88148e-08
3.95556e-10
1.81246e-09
1.81075e-09
4.88148e-08
3.96531e-10
1.81266e-09
1.81122e-09
4.88147e-08
4.00715e-10
1.81244e-09
1.8106e-09
4.88157e-08
4.83608e-10
1.84795e-09
1.85429e-09
4.88155e-08
2.36719e-09
2.90678e-09
2.95824e-09
4.8834e-08
3.47469e-08
3.40762e-08
3.40816e-08
4.92966e-08
2.36206e-07
1.30745e-07
1.30798e-07
1.77472e-07
1.55817e-07
3.1302e-07
3.13082e-07
1.5575e-07
3.13028e-07
3.13129e-07
7.47958e-07
7.47964e-07
7.47964e-07
7.47977e-07
3.12935e-07
3.13031e-07
1.55686e-07
3.12969e-07
3.13013e-07
1.55651e-07
2.03173e-07
1.30612e-07
5.16063e-07
5.16048e-07
7.96147e-08
7.94993e-08
2.03098e-07
1.30424e-07
5.16256e-07
5.16272e-07
7.97405e-08
7.96569e-08
5.16235e-07
7.96691e-08
7.96213e-08
2.03153e-07
1.30531e-07
5.16232e-07
7.97902e-08
7.97729e-08
1.30569e-07
5.02492e-08
1.26835e-07
3.59879e-08
3.60037e-08
4.62691e-09
4.69039e-09
5.01723e-08
1.26907e-07
3.60072e-08
3.60198e-08
4.60557e-09
4.66594e-09
3.60396e-08
4.56301e-09
4.62956e-09
5.0286e-08
1.26892e-07
3.61777e-08
4.62809e-09
4.61972e-09
1.26887e-07
4.87125e-08
1.26743e-07
3.07212e-09
3.07375e-09
1.98324e-09
1.98462e-09
4.87104e-08
1.26733e-07
3.09319e-09
3.07967e-09
1.9729e-09
1.98892e-09
3.11336e-09
1.96987e-09
1.99231e-09
4.87482e-08
1.26752e-07
3.11823e-09
1.95218e-09
1.95593e-09
1.26727e-07
4.87895e-08
1.26735e-07
1.91017e-09
1.92771e-09
1.8431e-09
1.82779e-09
4.87792e-08
1.26714e-07
1.88522e-09
1.91767e-09
1.81723e-09
1.84478e-09
1.91782e-09
1.81281e-09
1.83789e-09
4.88016e-08
1.26737e-07
1.89369e-09
1.80893e-09
1.81039e-09
1.26708e-07
4.87976e-08
1.26732e-07
1.83807e-09
1.81842e-09
1.83732e-09
1.82215e-09
4.87877e-08
1.26708e-07
1.80376e-09
1.84118e-09
1.818e-09
1.83781e-09
1.83373e-09
1.80242e-09
1.8314e-09
4.8804e-08
1.26736e-07
1.80682e-09
1.80135e-09
1.80167e-09
1.26707e-07
4.87987e-08
1.26732e-07
1.83731e-09
1.83507e-09
1.82373e-09
1.86327e-09
4.87919e-08
1.26717e-07
1.79761e-09
1.8384e-09
1.81428e-09
1.83708e-09
1.83096e-09
1.8186e-09
1.8283e-09
4.8804e-08
1.26738e-07
1.80327e-09
1.79944e-09
1.80099e-09
1.26709e-07
4.8802e-08
1.26732e-07
1.7895e-09
1.85582e-09
1.85592e-09
1.84623e-09
4.87844e-08
1.2672e-07
1.79261e-09
1.83829e-09
1.82401e-09
1.83754e-09
1.82775e-09
1.81261e-09
1.82817e-09
4.88043e-08
1.26739e-07
1.80291e-09
1.8002e-09
1.80293e-09
1.2671e-07
4.88024e-08
1.26737e-07
1.8336e-09
1.84683e-09
1.83779e-09
1.8457e-09
4.87829e-08
1.26718e-07
1.80527e-09
1.83869e-09
1.8232e-09
1.83896e-09
1.82843e-09
1.81283e-09
1.82906e-09
4.88046e-08
1.26737e-07
1.80584e-09
1.79946e-09
1.80405e-09
1.26707e-07
4.87885e-08
1.2673e-07
1.83651e-09
1.84525e-09
1.82083e-09
1.83375e-09
4.87836e-08
1.26726e-07
1.80139e-09
1.83966e-09
1.81006e-09
1.83784e-09
1.82848e-09
1.80921e-09
1.82689e-09
4.88056e-08
1.2674e-07
1.80365e-09
1.79943e-09
1.80205e-09
1.26712e-07
4.87915e-08
1.26714e-07
1.81736e-09
1.81083e-09
1.85486e-09
1.8055e-09
4.87789e-08
1.26724e-07
1.80309e-09
1.83966e-09
1.82075e-09
1.84007e-09
1.82725e-09
1.80743e-09
1.82883e-09
4.8805e-08
1.26739e-07
1.80442e-09
1.80086e-09
1.80394e-09
1.26709e-07
4.88015e-08
1.26727e-07
1.87568e-09
1.82147e-09
1.83715e-09
1.81343e-09
4.87824e-08
1.2672e-07
1.81932e-09
1.84011e-09
1.81486e-09
1.83705e-09
1.82849e-09
1.80859e-09
1.82697e-09
4.88053e-08
1.2674e-07
1.80563e-09
1.80011e-09
1.80225e-09
1.26711e-07
4.8792e-08
1.26727e-07
1.83434e-09
1.80281e-09
1.83247e-09
1.80688e-09
4.87826e-08
1.26738e-07
1.81094e-09
1.83749e-09
1.81157e-09
1.83708e-09
1.82684e-09
1.81499e-09
1.82933e-09
4.8806e-08
1.2674e-07
1.80407e-09
1.80163e-09
1.80426e-09
1.26711e-07
4.87915e-08
1.26734e-07
1.83338e-09
1.8094e-09
1.82903e-09
1.84807e-09
4.87834e-08
1.26739e-07
1.80927e-09
1.83823e-09
1.80402e-09
1.83677e-09
1.8297e-09
1.8219e-09
1.82891e-09
4.88059e-08
1.2674e-07
1.80663e-09
1.80097e-09
1.80352e-09
1.26712e-07
4.878e-08
1.26721e-07
1.82853e-09
1.85354e-09
1.86046e-09
1.83673e-09
4.87879e-08
1.26728e-07
1.79793e-09
1.83765e-09
1.79618e-09
1.83788e-09
1.82869e-09
1.80775e-09
1.83088e-09
4.88057e-08
1.2674e-07
1.80499e-09
1.80201e-09
1.80386e-09
1.26711e-07
4.87981e-08
1.26723e-07
1.83476e-09
1.82014e-09
1.84047e-09
1.88695e-09
4.87932e-08
1.26721e-07
1.80957e-09
1.8387e-09
1.81283e-09
1.83631e-09
1.83107e-09
1.82195e-09
1.82892e-09
4.88058e-08
1.26741e-07
1.80528e-09
1.80024e-09
1.80107e-09
1.26713e-07
4.87972e-08
1.26723e-07
1.83861e-09
1.86743e-09
1.84172e-09
1.84476e-09
4.88067e-08
1.26704e-07
1.81094e-09
1.83716e-09
1.81218e-09
1.8372e-09
1.82798e-09
1.80836e-09
1.82899e-09
4.8806e-08
1.26741e-07
1.80279e-09
1.80116e-09
1.80273e-09
1.26712e-07
4.87989e-08
1.26721e-07
1.83223e-09
1.84476e-09
1.84621e-09
1.83733e-09
4.88032e-08
1.26742e-07
1.81134e-09
1.83829e-09
1.81245e-09
1.83807e-09
1.8291e-09
1.81025e-09
1.82966e-09
4.88061e-08
1.26743e-07
1.80494e-09
1.80063e-09
1.80259e-09
1.26714e-07
4.87967e-08
1.2674e-07
1.82509e-09
1.82769e-09
1.79222e-09
1.80796e-09
4.88094e-08
1.26745e-07
1.80865e-09
1.83979e-09
1.79844e-09
1.84067e-09
1.83068e-09
1.79231e-09
1.8312e-09
4.8806e-08
1.26743e-07
1.80481e-09
1.79986e-09
1.80098e-09
1.26714e-07
4.87976e-08
1.26713e-07
1.78957e-09
1.81893e-09
1.87745e-09
1.93075e-09
4.88352e-08
1.26781e-07
1.80106e-09
1.84124e-09
1.8342e-09
1.83776e-09
1.82887e-09
1.84783e-09
1.83179e-09
4.88061e-08
1.26746e-07
1.80037e-09
1.79599e-09
1.80373e-09
1.26724e-07
4.8832e-08
1.26768e-07
1.82997e-09
1.8705e-09
1.8218e-09
1.88584e-09
4.87885e-08
1.26721e-07
1.83163e-09
1.83799e-09
1.72936e-09
1.84094e-09
1.83919e-09
1.79751e-09
1.82857e-09
4.88073e-08
1.26746e-07
1.81328e-09
1.79862e-09
1.80381e-09
1.26717e-07
4.87899e-08
1.26741e-07
1.85466e-09
1.86266e-09
1.85278e-09
1.84191e-09
4.88068e-08
1.26736e-07
1.78264e-09
1.83912e-09
1.82176e-09
1.83749e-09
1.82772e-09
1.81738e-09
1.82793e-09
4.88076e-08
1.26745e-07
1.80531e-09
1.80141e-09
1.80378e-09
1.26716e-07
4.88168e-08
1.2674e-07
1.84488e-09
1.84706e-09
1.83512e-09
1.84477e-09
4.87987e-08
1.26736e-07
1.81492e-09
1.83826e-09
1.81524e-09
1.83765e-09
1.82812e-09
1.81352e-09
1.82795e-09
4.88081e-08
1.26746e-07
1.80591e-09
1.80193e-09
1.80375e-09
1.26717e-07
4.88164e-08
1.26741e-07
1.83802e-09
1.84722e-09
1.83609e-09
1.84426e-09
4.8799e-08
1.26735e-07
1.81025e-09
1.83782e-09
1.81428e-09
1.83704e-09
1.82807e-09
1.81375e-09
1.82769e-09
4.88084e-08
1.26745e-07
1.80553e-09
1.80228e-09
1.81404e-09
1.26715e-07
4.88162e-08
1.26743e-07
1.83732e-09
1.84659e-09
1.83535e-09
1.84415e-09
4.87989e-08
1.26736e-07
1.81008e-09
1.83711e-09
1.81359e-09
1.83696e-09
1.8274e-09
1.81346e-09
1.82822e-09
4.88083e-08
1.26746e-07
1.81206e-09
1.80219e-09
1.80737e-09
1.26716e-07
4.88159e-08
1.26742e-07
1.83777e-09
1.84711e-09
1.83532e-09
1.84413e-09
4.87987e-08
1.26736e-07
1.81057e-09
1.83767e-09
1.81353e-09
1.83704e-09
1.82792e-09
1.8134e-09
1.82823e-09
4.88081e-08
1.26746e-07
1.80948e-09
1.80162e-09
1.80598e-09
1.26716e-07
4.8816e-08
1.26741e-07
1.83715e-09
1.84677e-09
1.83685e-09
1.84519e-09
4.87989e-08
1.26735e-07
1.80994e-09
1.83739e-09
1.81509e-09
1.83804e-09
1.82844e-09
1.81402e-09
1.82835e-09
4.88083e-08
1.26745e-07
1.80854e-09
1.80244e-09
1.80666e-09
1.26716e-07
4.88161e-08
1.26743e-07
1.8381e-09
1.84739e-09
1.83525e-09
1.84399e-09
4.87989e-08
1.26737e-07
1.81088e-09
1.83798e-09
1.81349e-09
1.83684e-09
1.82821e-09
1.81306e-09
1.82761e-09
4.88083e-08
1.26746e-07
1.80848e-09
1.80149e-09
1.80594e-09
1.26717e-07
4.88157e-08
1.26742e-07
1.83762e-09
1.847e-09
1.83592e-09
1.84432e-09
4.87987e-08
1.26736e-07
1.81041e-09
1.8376e-09
1.81413e-09
1.83717e-09
1.82786e-09
1.81359e-09
1.82818e-09
4.88081e-08
1.26746e-07
1.80813e-09
1.80202e-09
1.8065e-09
1.26717e-07
4.88158e-08
1.26742e-07
1.83752e-09
1.84678e-09
1.83619e-09
1.84474e-09
4.87987e-08
1.26736e-07
1.81029e-09
1.83736e-09
1.81439e-09
1.83753e-09
1.82813e-09
1.81407e-09
1.8286e-09
4.88081e-08
1.26745e-07
1.8084e-09
1.80252e-09
1.80691e-09
1.26716e-07
4.8816e-08
1.26743e-07
1.83795e-09
1.8474e-09
1.83562e-09
1.84203e-09
4.87988e-08
1.26736e-07
1.81069e-09
1.83776e-09
1.81352e-09
1.83684e-09
1.82837e-09
1.81342e-09
1.82813e-09
4.88082e-08
1.26746e-07
1.80862e-09
1.80188e-09
1.80648e-09
1.26716e-07
4.8816e-08
1.26742e-07
1.83709e-09
1.82659e-09
1.83603e-09
1.85369e-09
4.87995e-08
1.26735e-07
1.80985e-09
1.83721e-09
1.81414e-09
1.83732e-09
1.82801e-09
1.8161e-09
1.82772e-09
4.88082e-08
1.26746e-07
1.80831e-09
1.80192e-09
1.80595e-09
1.26717e-07
4.88158e-08
1.26742e-07
1.8382e-09
1.84034e-09
1.83594e-09
1.84747e-09
4.88003e-08
1.26741e-07
1.81079e-09
1.83753e-09
1.81416e-09
1.83751e-09
1.82763e-09
1.81423e-09
1.82848e-09
4.88081e-08
1.26746e-07
1.80795e-09
1.80216e-09
1.80674e-09
1.26716e-07
4.88157e-08
1.26742e-07
1.83804e-09
1.85015e-09
1.8358e-09
1.84706e-09
4.87951e-08
1.26741e-07
1.81081e-09
1.83802e-09
1.81402e-09
1.83706e-09
1.82827e-09
1.8138e-09
1.8276e-09
4.8808e-08
1.26746e-07
1.8086e-09
1.80225e-09
1.80643e-09
1.26717e-07
4.88161e-08
1.26742e-07
1.83727e-09
1.84951e-09
1.83582e-09
1.84712e-09
4.87954e-08
1.26741e-07
1.81005e-09
1.83721e-09
1.81403e-09
1.83786e-09
1.82768e-09
1.8139e-09
1.82864e-09
4.88083e-08
1.26746e-07
1.80928e-09
1.7984e-09
1.80272e-09
1.26717e-07
4.88159e-08
1.26742e-07
1.83754e-09
1.84963e-09
1.83585e-09
1.84708e-09
4.87952e-08
1.26741e-07
1.81031e-09
1.83757e-09
1.81407e-09
1.83736e-09
1.82795e-09
1.81393e-09
1.82846e-09
4.88083e-08
1.26746e-07
1.80902e-09
1.80046e-09
1.80509e-09
1.26717e-07
4.88157e-08
1.26742e-07
1.83787e-09
1.84988e-09
1.83578e-09
1.84716e-09
4.8795e-08
1.26741e-07
1.81065e-09
1.83759e-09
1.81401e-09
1.83743e-09
1.82836e-09
1.81397e-09
1.82816e-09
4.88082e-08
1.26746e-07
1.81029e-09
1.80051e-09
1.80483e-09
1.26717e-07
4.88157e-08
1.26742e-07
1.83781e-09
1.84984e-09
1.83568e-09
1.84719e-09
4.87951e-08
1.26741e-07
1.81059e-09
1.83754e-09
1.81389e-09
1.83745e-09
1.82763e-09
1.81396e-09
1.82858e-09
4.88083e-08
1.26746e-07
1.80958e-09
1.80051e-09
1.80525e-09
1.26717e-07
4.88158e-08
1.26743e-07
1.83767e-09
1.84953e-09
1.83605e-09
1.84691e-09
4.87953e-08
1.26741e-07
1.81045e-09
1.8372e-09
1.81421e-09
1.83695e-09
1.82715e-09
1.81438e-09
1.82823e-09
4.88085e-08
1.26746e-07
1.80911e-09
1.80157e-09
1.80526e-09
1.26717e-07
4.88158e-08
1.26743e-07
1.83789e-09
1.84896e-09
1.84701e-09
1.83986e-09
4.87954e-08
1.26741e-07
1.81038e-09
1.83653e-09
1.81159e-09
1.8373e-09
1.82696e-09
1.81573e-09
1.80755e-09
4.88083e-08
1.26747e-07
1.80992e-09
1.79824e-09
1.78722e-09
1.26719e-07
4.88136e-08
1.26752e-07
1.84222e-09
1.85019e-09
1.78521e-09
1.84901e-09
4.87948e-08
1.26761e-07
1.79947e-09
1.83744e-09
1.78455e-09
1.84192e-09
1.80787e-09
1.7975e-09
1.85742e-09
4.88077e-08
1.26748e-07
1.73862e-09
1.80087e-09
1.81281e-09
1.26721e-07
4.8804e-08
1.26743e-07
1.83838e-09
1.81599e-09
1.83524e-09
1.82422e-09
4.88053e-08
1.26771e-07
1.7464e-09
1.84269e-09
1.82755e-09
1.83783e-09
1.83898e-09
1.80351e-09
1.83067e-09
4.88077e-08
1.26748e-07
1.82406e-09
1.80502e-09
1.8046e-09
1.26718e-07
4.88056e-08
1.26736e-07
1.83923e-09
1.8581e-09
1.83072e-09
1.8567e-09
4.88344e-08
1.2676e-07
1.80015e-09
1.83763e-09
1.82073e-09
1.83726e-09
1.82982e-09
1.81668e-09
1.82872e-09
4.88076e-08
1.26748e-07
1.80809e-09
1.80442e-09
1.80345e-09
1.26717e-07
4.88013e-08
1.26736e-07
1.83749e-09
1.85016e-09
1.82967e-09
1.84511e-09
4.88107e-08
1.26761e-07
1.79977e-09
1.83754e-09
1.82203e-09
1.83753e-09
1.82826e-09
1.81251e-09
1.82878e-09
4.88077e-08
1.26748e-07
1.80845e-09
1.80486e-09
1.80469e-09
1.26717e-07
4.88016e-08
1.26735e-07
1.83608e-09
1.84473e-09
1.82978e-09
1.84473e-09
4.88095e-08
1.2676e-07
1.80009e-09
1.8377e-09
1.82131e-09
1.83775e-09
1.82847e-09
1.81231e-09
1.82846e-09
4.88081e-08
1.26747e-07
1.80953e-09
1.80288e-09
1.80467e-09
1.26717e-07
4.88018e-08
1.26735e-07
1.83622e-09
1.8445e-09
1.82915e-09
1.84443e-09
4.88096e-08
1.26761e-07
1.80033e-09
1.83773e-09
1.82329e-09
1.83762e-09
1.828e-09
1.81193e-09
1.82807e-09
4.88083e-08
1.26749e-07
1.80924e-09
1.80568e-09
1.80696e-09
1.26718e-07
4.88016e-08
1.26736e-07
1.836e-09
1.84424e-09
1.82892e-09
1.84406e-09
4.88094e-08
1.26761e-07
1.80046e-09
1.83775e-09
1.82422e-09
1.83797e-09
1.82737e-09
1.81165e-09
1.82864e-09
4.88081e-08
1.26749e-07
1.81015e-09
1.80382e-09
1.80242e-09
1.26718e-07
4.88015e-08
1.26735e-07
1.83601e-09
1.84418e-09
1.82924e-09
1.84432e-09
4.88093e-08
1.26761e-07
1.80106e-09
1.83817e-09
1.82329e-09
1.83778e-09
1.82821e-09
1.81192e-09
1.82842e-09
4.88081e-08
1.26748e-07
1.81054e-09
1.8002e-09
1.80427e-09
1.26718e-07
4.88019e-08
1.26735e-07
1.83542e-09
1.84367e-09
1.82948e-09
1.8446e-09
4.88096e-08
1.26761e-07
1.7999e-09
1.83724e-09
1.82345e-09
1.83793e-09
1.82726e-09
1.81262e-09
1.82933e-09
4.88084e-08
1.26748e-07
1.80904e-09
1.80104e-09
1.80571e-09
1.26718e-07
4.88017e-08
1.26736e-07
1.83572e-09
1.84401e-09
1.82905e-09
1.84411e-09
4.88094e-08
1.26762e-07
1.80016e-09
1.83753e-09
1.82301e-09
1.8374e-09
1.8276e-09
1.81184e-09
1.82834e-09
4.88083e-08
1.26749e-07
1.8095e-09
1.80028e-09
1.80476e-09
1.26718e-07
4.88016e-08
1.26736e-07
1.83563e-09
1.84393e-09
1.82919e-09
1.8443e-09
4.88094e-08
1.26761e-07
1.80009e-09
1.83741e-09
1.82322e-09
1.83751e-09
1.82751e-09
1.81199e-09
1.8283e-09
4.88082e-08
1.26749e-07
1.80952e-09
1.8012e-09
1.8064e-09
1.26718e-07
4.88016e-08
1.26735e-07
1.83576e-09
1.84408e-09
1.82921e-09
1.84452e-09
4.88095e-08
1.26761e-07
1.80029e-09
1.83753e-09
1.82337e-09
1.83791e-09
1.82768e-09
1.81221e-09
1.82872e-09
4.88084e-08
1.26748e-07
1.81366e-09
1.80105e-09
1.80535e-09
1.26718e-07
4.88016e-08
1.26735e-07
1.83569e-09
1.84413e-09
1.82905e-09
1.84472e-09
4.88094e-08
1.26761e-07
1.8004e-09
1.83773e-09
1.82383e-09
1.8378e-09
1.82764e-09
1.81241e-09
1.82789e-09
4.88083e-08
1.26748e-07
1.8082e-09
1.80159e-09
1.80629e-09
1.26718e-07
4.88016e-08
1.26735e-07
1.83564e-09
1.84453e-09
1.82707e-09
1.84867e-09
4.88092e-08
1.26764e-07
1.8012e-09
1.8378e-09
1.81718e-09
1.8373e-09
1.8272e-09
1.81588e-09
1.82651e-09
4.88083e-08
1.26748e-07
1.80964e-09
1.80176e-09
1.80707e-09
1.26718e-07
4.8802e-08
1.26733e-07
1.83286e-09
1.85694e-09
1.82403e-09
1.82069e-09
4.88078e-08
1.26778e-07
1.81276e-09
1.83768e-09
1.81666e-09
1.83813e-09
1.82596e-09
1.80894e-09
1.82663e-09
4.88085e-08
1.26747e-07
1.81021e-09
1.80274e-09
1.80867e-09
1.26716e-07
4.88024e-08
1.26734e-07
1.83161e-09
1.80215e-09
1.82683e-09
1.83767e-09
4.87972e-08
1.26761e-07
1.81271e-09
1.83844e-09
1.81432e-09
1.83807e-09
1.82721e-09
1.80946e-09
1.82538e-09
4.88085e-08
1.26747e-07
1.8118e-09
1.80134e-09
1.80363e-09
1.26717e-07
4.88012e-08
1.26734e-07
1.83404e-09
1.84065e-09
1.82837e-09
1.84439e-09
4.88078e-08
1.26761e-07
1.81041e-09
1.83893e-09
1.8136e-09
1.8365e-09
1.82018e-09
1.81285e-09
1.83635e-09
4.88077e-08
1.26746e-07
1.79742e-09
1.80201e-09
1.80889e-09
1.26724e-07
4.8801e-08
1.26734e-07
1.83514e-09
1.84451e-09
1.82895e-09
1.84522e-09
4.88086e-08
1.26761e-07
1.80987e-09
1.83683e-09
1.81373e-09
1.83656e-09
1.83695e-09
1.81283e-09
1.83657e-09
4.88077e-08
1.26745e-07
1.80852e-09
1.80152e-09
1.80882e-09
1.26724e-07
4.88013e-08
1.26733e-07
1.83521e-09
1.84457e-09
1.82907e-09
1.84532e-09
4.88089e-08
1.2676e-07
1.80964e-09
1.83654e-09
1.81376e-09
1.83658e-09
1.83671e-09
1.81297e-09
1.83646e-09
4.88079e-08
1.26745e-07
1.8082e-09
1.80164e-09
1.80869e-09
1.26724e-07
4.88013e-08
1.26734e-07
1.83532e-09
1.84475e-09
1.82917e-09
1.84531e-09
4.88089e-08
1.26761e-07
1.80967e-09
1.83662e-09
1.81385e-09
1.83664e-09
1.8364e-09
1.81303e-09
1.83668e-09
4.88078e-08
1.26745e-07
1.80796e-09
1.80148e-09
1.8091e-09
1.26725e-07
4.88013e-08
1.26734e-07
1.83564e-09
1.84488e-09
1.82903e-09
1.84514e-09
4.88089e-08
1.2676e-07
1.80999e-09
1.83692e-09
1.81371e-09
1.83647e-09
1.83666e-09
1.81308e-09
1.83696e-09
4.88078e-08
1.26745e-07
1.80812e-09
1.80131e-09
1.80811e-09
1.26724e-07
4.88013e-08
1.26733e-07
1.83561e-09
1.84488e-09
1.82872e-09
1.84509e-09
4.88089e-08
1.2676e-07
1.80997e-09
1.83681e-09
1.81339e-09
1.83639e-09
1.83688e-09
1.81317e-09
1.83738e-09
4.88078e-08
1.26745e-07
1.80991e-09
1.80164e-09
1.80943e-09
1.26723e-07
4.88014e-08
1.26733e-07
1.83546e-09
1.84489e-09
1.82885e-09
1.84505e-09
4.8809e-08
1.2676e-07
1.80979e-09
1.83681e-09
1.81353e-09
1.83634e-09
1.83675e-09
1.81274e-09
1.83694e-09
4.8808e-08
1.26745e-07
1.80816e-09
1.80131e-09
1.80923e-09
1.26724e-07
4.88012e-08
1.26734e-07
1.8354e-09
1.84487e-09
1.8286e-09
1.84487e-09
4.88088e-08
1.26761e-07
1.80975e-09
1.8368e-09
1.81332e-09
1.8361e-09
1.83668e-09
1.81252e-09
1.83645e-09
4.88077e-08
1.26746e-07
1.80816e-09
1.80105e-09
1.80798e-09
1.26725e-07
4.88012e-08
1.26733e-07
1.83571e-09
1.84493e-09
1.82901e-09
1.84495e-09
4.88089e-08
1.2676e-07
1.81012e-09
1.83678e-09
1.81324e-09
1.83626e-09
1.83669e-09
1.81289e-09
1.83692e-09
4.88078e-08
1.26745e-07
1.80905e-09
1.80148e-09
1.80971e-09
1.26723e-07
4.88009e-08
1.26735e-07
1.83554e-09
1.84494e-09
1.8284e-09
1.84464e-09
4.88088e-08
1.2676e-07
1.80959e-09
1.83685e-09
1.81348e-09
1.83588e-09
1.83724e-09
1.81277e-09
1.83652e-09
4.88078e-08
1.26745e-07
1.80918e-09
1.80134e-09
1.80922e-09
1.26724e-07
4.88011e-08
1.26735e-07
1.83534e-09
1.84473e-09
1.82847e-09
1.84454e-09
4.88089e-08
1.2676e-07
1.80931e-09
1.83663e-09
1.81345e-09
1.83579e-09
1.8375e-09
1.81265e-09
1.83623e-09
4.88078e-08
1.26745e-07
1.80945e-09
1.80123e-09
1.80886e-09
1.26724e-07
4.88011e-08
1.26735e-07
1.8352e-09
1.84439e-09
1.82869e-09
1.84503e-09
4.88089e-08
1.2676e-07
1.80902e-09
1.83629e-09
1.81317e-09
1.83649e-09
1.83709e-09
1.81182e-09
1.83627e-09
4.88078e-08
1.26746e-07
1.8089e-09
1.80031e-09
1.80871e-09
1.26725e-07
4.88012e-08
1.26733e-07
1.83571e-09
1.84517e-09
1.83021e-09
1.84493e-09
4.88089e-08
1.2676e-07
1.80884e-09
1.83754e-09
1.81316e-09
1.83964e-09
1.83763e-09
1.81145e-09
1.83848e-09
4.88075e-08
1.26746e-07
1.8093e-09
1.80165e-09
1.81014e-09
1.26725e-07
4.88013e-08
1.26732e-07
1.83791e-09
1.84455e-09
1.83123e-09
1.84523e-09
4.88091e-08
1.26758e-07
1.80922e-09
1.84178e-09
1.81287e-09
1.84181e-09
1.83893e-09
1.8126e-09
1.84262e-09
4.88079e-08
1.26739e-07
1.80788e-09
1.77411e-09
1.79851e-09
1.26719e-07
4.88018e-08
1.26731e-07
1.83801e-09
1.84463e-09
1.83147e-09
1.84594e-09
4.88093e-08
1.26758e-07
1.80887e-09
1.84057e-09
1.81447e-09
1.83943e-09
1.84096e-09
1.81388e-09
1.83978e-09
4.88101e-08
1.26741e-07
1.79624e-09
1.7929e-09
1.801e-09
1.2672e-07
4.8801e-08
1.26732e-07
1.8375e-09
1.84568e-09
1.82951e-09
1.84544e-09
4.88084e-08
1.26758e-07
1.80985e-09
1.83852e-09
1.81377e-09
1.83643e-09
1.8387e-09
1.81303e-09
1.83612e-09
4.88065e-08
1.26743e-07
1.80503e-09
1.79818e-09
1.7955e-09
1.26722e-07
4.87998e-08
1.26732e-07
1.83689e-09
1.84577e-09
1.82828e-09
1.84494e-09
4.88077e-08
1.26757e-07
1.81027e-09
1.83719e-09
1.81313e-09
1.83598e-09
1.83651e-09
1.81291e-09
1.83647e-09
4.88062e-08
1.26742e-07
1.81539e-09
1.80163e-09
1.80309e-09
1.26721e-07
4.87998e-08
1.26732e-07
1.83533e-09
1.8446e-09
1.82873e-09
1.84498e-09
4.88079e-08
1.26758e-07
1.80916e-09
1.83631e-09
1.81378e-09
1.83622e-09
1.83651e-09
1.81257e-09
1.83674e-09
4.88066e-08
1.26743e-07
1.82192e-09
1.8021e-09
1.80893e-09
1.26721e-07
4.87999e-08
1.26732e-07
1.83526e-09
1.84449e-09
1.82869e-09
1.84524e-09
4.88077e-08
1.26757e-07
1.80923e-09
1.83639e-09
1.81382e-09
1.8365e-09
1.83678e-09
1.81265e-09
1.83647e-09
4.88066e-08
1.26742e-07
1.80852e-09
1.80189e-09
1.80898e-09
1.26721e-07
4.87995e-08
1.26732e-07
1.83595e-09
1.84521e-09
1.82879e-09
1.84528e-09
4.88076e-08
1.26758e-07
1.80999e-09
1.83713e-09
1.81391e-09
1.83649e-09
1.83678e-09
1.8127e-09
1.83633e-09
4.88065e-08
1.26742e-07
1.80809e-09
1.80214e-09
1.80922e-09
1.26721e-07
4.87999e-08
1.26731e-07
1.83547e-09
1.84483e-09
1.82857e-09
1.845e-09
4.88078e-08
1.26757e-07
1.80948e-09
1.83673e-09
1.81368e-09
1.83619e-09
1.83728e-09
1.81267e-09
1.83666e-09
4.88067e-08
1.26742e-07
1.80891e-09
1.80223e-09
1.80919e-09
1.2672e-07
4.87999e-08
1.26732e-07
1.83563e-09
1.84458e-09
1.82817e-09
1.84473e-09
4.88078e-08
1.26758e-07
1.80961e-09
1.8365e-09
1.81329e-09
1.83589e-09
1.83656e-09
1.81279e-09
1.83655e-09
4.88067e-08
1.26743e-07
1.80742e-09
1.80321e-09
1.80974e-09
1.26721e-07
4.87997e-08
1.26733e-07
1.8352e-09
1.84466e-09
1.82846e-09
1.84466e-09
4.88076e-08
1.26758e-07
1.80922e-09
1.83659e-09
1.81357e-09
1.83589e-09
1.8368e-09
1.81264e-09
1.83631e-09
4.88065e-08
1.26743e-07
1.80845e-09
1.8012e-09
1.80879e-09
1.26721e-07
4.87997e-08
1.26732e-07
1.83559e-09
1.84465e-09
1.82864e-09
1.84524e-09
4.88076e-08
1.26757e-07
1.80961e-09
1.83654e-09
1.81379e-09
1.83647e-09
1.83711e-09
1.81319e-09
1.83664e-09
4.88065e-08
1.26742e-07
1.80887e-09
1.80181e-09
1.80923e-09
1.2672e-07
4.87997e-08
1.26732e-07
1.83576e-09
1.84488e-09
1.82872e-09
1.84506e-09
4.88078e-08
1.26757e-07
1.80981e-09
1.83677e-09
1.81384e-09
1.83628e-09
1.83651e-09
1.81275e-09
1.83659e-09
4.88067e-08
1.26742e-07
1.8083e-09
1.80135e-09
1.80912e-09
1.2672e-07
4.87998e-08
1.26733e-07
1.83541e-09
1.8448e-09
1.82873e-09
1.84495e-09
4.88078e-08
1.26758e-07
1.80943e-09
1.83667e-09
1.81384e-09
1.83618e-09
1.83682e-09
1.8127e-09
1.8361e-09
4.88067e-08
1.26743e-07
1.80859e-09
1.80132e-09
1.80865e-09
1.26722e-07
4.87997e-08
1.26731e-07
1.83526e-09
1.84452e-09
1.82884e-09
1.84498e-09
4.88076e-08
1.26757e-07
1.80927e-09
1.83642e-09
1.81433e-09
1.83621e-09
1.83605e-09
1.81287e-09
1.83679e-09
4.88065e-08
1.26742e-07
1.80781e-09
1.80148e-09
1.80935e-09
1.2672e-07
4.87999e-08
1.26732e-07
1.83561e-09
1.84488e-09
1.82843e-09
1.84483e-09
4.88078e-08
1.26757e-07
1.81029e-09
1.83684e-09
1.8231e-09
1.83603e-09
1.83727e-09
1.81278e-09
1.83664e-09
4.88067e-08
1.26742e-07
1.80905e-09
1.8014e-09
1.80923e-09
1.2672e-07
4.87996e-08
1.26732e-07
1.83536e-09
1.84464e-09
1.82797e-09
1.84474e-09
4.88077e-08
1.26758e-07
1.79984e-09
1.83647e-09
1.82283e-09
1.83599e-09
1.83658e-09
1.81245e-09
1.83611e-09
4.88066e-08
1.26743e-07
1.8084e-09
1.80106e-09
1.80863e-09
1.26721e-07
4.87994e-08
1.26732e-07
1.83529e-09
1.84483e-09
1.82888e-09
1.84522e-09
4.88076e-08
1.26758e-07
1.79984e-09
1.83668e-09
1.82372e-09
1.83688e-09
1.83638e-09
1.81282e-09
1.83678e-09
4.88065e-08
1.26742e-07
1.80809e-09
1.80145e-09
1.80928e-09
1.26721e-07
4.87995e-08
1.26731e-07
1.83589e-09
1.84507e-09
1.82896e-09
1.84503e-09
4.88076e-08
1.26758e-07
1.80046e-09
1.83943e-09
1.82377e-09
1.84155e-09
1.83719e-09
1.81299e-09
1.8366e-09
4.88061e-08
1.26775e-07
1.80893e-09
1.80161e-09
1.80919e-09
1.26721e-07
4.87996e-08
1.26731e-07
1.8359e-09
1.84473e-09
1.82863e-09
1.84484e-09
4.88077e-08
1.26757e-07
1.80046e-09
1.83113e-09
1.82342e-09
1.8414e-09
1.83667e-09
1.8126e-09
1.83603e-09
4.88012e-08
1.26774e-07
1.80848e-09
1.80126e-09
1.80856e-09
1.2672e-07
4.87997e-08
1.26733e-07
1.83545e-09
1.84471e-09
1.82843e-09
1.84494e-09
4.88077e-08
1.26758e-07
1.80006e-09
1.8311e-09
1.82319e-09
1.84153e-09
1.83664e-09
1.81283e-09
1.83662e-09
4.88013e-08
1.26775e-07
1.80837e-09
1.80135e-09
1.80923e-09
1.26721e-07
4.87996e-08
1.26733e-07
1.83542e-09
1.84449e-09
1.82818e-09
1.84482e-09
4.88076e-08
1.26758e-07
1.79999e-09
1.83101e-09
1.82286e-09
1.84398e-09
1.83663e-09
1.81323e-09
1.83702e-09
4.88011e-08
1.26772e-07
1.80831e-09
1.802e-09
1.80939e-09
1.26721e-07
4.87992e-08
1.26732e-07
1.83559e-09
1.84439e-09
1.82851e-09
1.84467e-09
4.88076e-08
1.26758e-07
1.79998e-09
1.83281e-09
1.82294e-09
1.83558e-09
1.83726e-09
1.81238e-09
1.83796e-09
4.88055e-08
1.26753e-07
1.8089e-09
1.80089e-09
1.81117e-09
1.26721e-07
4.87991e-08
1.26732e-07
1.8362e-09
1.8448e-09
1.84029e-09
1.85578e-09
4.88073e-08
1.26756e-07
1.80038e-09
1.83596e-09
1.83025e-09
1.85706e-09
1.8444e-09
1.82597e-09
1.84392e-09
4.88064e-08
1.2674e-07
1.81773e-09
1.81724e-09
1.81948e-09
1.26713e-07
4.87979e-08
1.26711e-07
1.86478e-09
1.85585e-09
2.31739e-09
2.31906e-09
4.88059e-08
1.26709e-07
1.80737e-09
1.8755e-09
2.35248e-09
2.34805e-09
1.84919e-09
2.27471e-09
2.25938e-09
4.88055e-08
1.26696e-07
1.82066e-09
2.3045e-09
2.24402e-09
1.26651e-07
4.88717e-08
1.25803e-07
2.93873e-09
2.98183e-09
1.61753e-08
1.61263e-08
4.88604e-08
1.258e-07
2.97083e-09
2.92519e-09
1.62002e-08
1.62442e-08
2.92413e-09
1.60977e-08
1.61476e-08
4.88616e-08
1.25819e-07
2.93853e-09
1.61718e-08
1.6103e-08
1.25766e-07
4.92917e-08
1.43889e-07
3.40551e-08
3.40451e-08
1.48169e-07
1.48299e-07
4.93129e-08
1.43881e-07
3.40508e-08
3.42093e-08
1.48598e-07
1.48385e-07
3.41053e-08
1.4859e-07
1.48382e-07
4.93578e-08
1.43893e-07
3.41475e-08
1.48565e-07
1.48671e-07
1.43855e-07
1.77506e-07
1.30684e-07
1.30645e-07
1.77442e-07
1.30752e-07
1.30694e-07
2.36199e-07
2.36304e-07
2.36315e-07
1.30708e-07
1.77472e-07
1.30775e-07
9.30631e-08
2.72404e-07
1.82802e-07
1.82862e-07
4.29319e-07
3.42568e-07
2.36461e-07
2.30392e-07
4.29269e-07
3.42595e-07
2.30388e-07
2.36361e-07
4.22666e-07
2.51909e-07
2.5192e-07
1.06138e-06
0.000118439
1.13495e-06
0.000121783
0.000246333
0.000254532
1.06192e-06
0.000118457
1.13393e-06
0.000121802
4.40628e-07
4.40494e-07
4.40601e-07
6.01347e-08
6.00649e-08
6.0105e-08
6.01702e-08
1.2339e-07
1.23586e-06
4.50454e-07
2.679e-07
9.60204e-08
1.42344e-06
2.51749e-07
0.000246325
0.000254516
1.23728e-07
4.50277e-07
1.23552e-06
2.6761e-07
9.60945e-08
2.51601e-07
1.42334e-06
3.31812e-06
3.31772e-06
1.28538e-07
3.01918e-06
3.02022e-06
1.04034e-06
0.000121706
1.03773e-06
0.000121707
0.000254551
0.000254547
1.04049e-06
0.000121724
1.03789e-06
0.000121725
2.83266e-08
2.83142e-08
2.83427e-08