/*--------------------------------*- C++ -*----------------------------------*\
| =========                 |                                                 |
| \\      /  F ield         | OpenFOAM: The Open Source CFD Toolbox           |
|  \\    /   O peration     | Version:  v1906                                 |
|   \\  /    A nd           | Web:      www.OpenFOAM.com                      |
|    \\/     M anipulation  |                                                 |
\*---------------------------------------------------------------------------*/
FoamFile
{
    version     2.0;
    format      ascii;
    class       volScalarField;
    location    "375";
    object      k;
}
// * * * * * * * * * * * * * * * * * * * * * * * * * * * * * * * * * * * * * //

dimensions      [0 2 -2 0 0 0 0];


internalField   nonuniform List<scalar> 
42840
(
3.85957e-05
5.12807e-05
5.12796e-05
5.34417e-05
5.36766e-05
5.3433e-05
5.35811e-05
5.12725e-05
5.12777e-05
5.14256e-05
5.14167e-05
5.34371e-05
5.35728e-05
5.12724e-05
5.12728e-05
5.14254e-05
5.14237e-05
5.12843e-05
5.14148e-05
5.14116e-05
5.34346e-05
5.35777e-05
5.12842e-05
5.14194e-05
5.14123e-05
5.35703e-05
5.15576e-05
5.15581e-05
6.85108e-05
7.33716e-05
7.34176e-05
6.85077e-05
7.11338e-05
7.1175e-05
6.85147e-05
7.3377e-05
7.34213e-05
6.85114e-05
3.86013e-05
3.86017e-05
3.86087e-05
3.88079e-05
3.8803e-05
3.88088e-05
3.88044e-05
6.05674e-05
6.47148e-05
4.65248e-05
5.12922e-05
6.47349e-05
4.65434e-05
6.05671e-05
7.11332e-05
7.11742e-05
6.05656e-05
4.65251e-05
6.47159e-05
5.12917e-05
4.65441e-05
6.47365e-05
6.05653e-05
6.98444e-05
6.98558e-05
5.34346e-05
6.99083e-05
6.99201e-05
7.00395e-05
7.00507e-05
7.11327e-05
7.11736e-05
7.11351e-05
7.11759e-05
6.98448e-05
6.98548e-05
5.34309e-05
6.9918e-05
6.99275e-05
7.11999e-05
7.11778e-05
7.12025e-05
7.11802e-05
5.34727e-05
7.00301e-05
7.00395e-05
6.99526e-05
6.9962e-05
6.85122e-05
7.33757e-05
7.34198e-05
6.851e-05
6.05645e-05
6.47127e-05
4.65151e-05
5.12863e-05
6.47393e-05
4.65362e-05
6.05619e-05
6.05658e-05
6.47177e-05
4.65184e-05
5.12897e-05
6.47384e-05
4.65387e-05
6.05637e-05
6.85223e-05
7.34581e-05
7.34269e-05
6.86257e-05
6.85232e-05
7.34635e-05
7.34297e-05
6.86269e-05
6.05717e-05
5.13224e-05
6.48901e-05
4.66834e-05
6.47707e-05
4.65804e-05
6.06761e-05
6.05726e-05
5.13214e-05
6.48916e-05
4.66809e-05
6.47676e-05
4.65806e-05
6.06763e-05
6.9854e-05
6.98417e-05
5.34317e-05
6.99216e-05
6.99095e-05
7.11304e-05
7.11717e-05
7.12027e-05
7.11794e-05
5.34707e-05
7.00392e-05
7.00266e-05
6.9957e-05
6.99466e-05
7.1199e-05
7.11759e-05
6.05666e-05
6.47171e-05
4.65156e-05
5.12861e-05
6.47428e-05
4.65371e-05
6.05637e-05
6.85129e-05
7.33716e-05
7.34178e-05
6.8509e-05
6.05648e-05
4.6516e-05
6.47105e-05
5.12863e-05
4.65374e-05
6.47389e-05
6.05616e-05
6.85259e-05
7.34635e-05
7.34309e-05
6.86291e-05
6.05738e-05
5.13222e-05
6.48933e-05
4.66867e-05
6.4774e-05
4.65823e-05
6.06788e-05
6.85244e-05
7.34582e-05
7.3427e-05
6.86276e-05
6.05722e-05
5.13217e-05
4.66867e-05
6.48887e-05
4.65825e-05
6.47719e-05
6.06776e-05
6.85111e-05
7.33749e-05
7.34186e-05
6.8512e-05
6.05659e-05
4.65267e-05
6.4715e-05
5.12952e-05
4.6545e-05
6.47321e-05
6.05658e-05
6.85092e-05
7.33716e-05
7.34154e-05
6.85103e-05
6.05727e-05
5.13225e-05
6.48879e-05
4.66745e-05
6.47654e-05
4.65811e-05
6.06718e-05
6.85206e-05
7.34628e-05
7.34285e-05
6.86249e-05
6.05712e-05
5.13235e-05
4.66735e-05
6.48859e-05
4.65818e-05
6.47604e-05
6.06701e-05
6.85187e-05
7.34602e-05
7.34255e-05
6.86231e-05
6.98475e-05
6.98448e-05
5.34311e-05
6.99223e-05
6.99138e-05
7.11328e-05
7.11739e-05
7.12e-05
7.11781e-05
5.34717e-05
7.00325e-05
7.00301e-05
6.99581e-05
6.99491e-05
7.12013e-05
7.11783e-05
6.0567e-05
4.65277e-05
6.47198e-05
5.12951e-05
4.65462e-05
6.47383e-05
6.05666e-05
6.85088e-05
7.33728e-05
7.34168e-05
6.85096e-05
6.85114e-05
7.33758e-05
7.34212e-05
6.8512e-05
6.05713e-05
5.13237e-05
4.66781e-05
6.48888e-05
4.65828e-05
6.47653e-05
6.06719e-05
6.05727e-05
5.13237e-05
4.66765e-05
6.48918e-05
4.65836e-05
6.47671e-05
6.06729e-05
6.8519e-05
7.34606e-05
7.34267e-05
6.86236e-05
6.85216e-05
7.34644e-05
7.3431e-05
6.86259e-05
7.11316e-05
7.11728e-05
7.11346e-05
7.11758e-05
5.3472e-05
7.00286e-05
7.004e-05
6.99446e-05
6.99561e-05
7.12011e-05
7.11774e-05
7.12039e-05
7.11804e-05
4.68148e-05
6.49063e-05
6.07024e-05
7.34627e-05
6.86397e-05
6.49117e-05
7.34667e-05
7.12011e-05
7.12039e-05
7.18098e-05
7.15911e-05
7.15408e-05
6.85048e-05
7.1577e-05
7.15275e-05
7.18246e-05
7.16478e-05
7.33877e-05
7.96836e-05
7.96909e-05
7.16301e-05
7.16511e-05
7.97409e-05
7.33972e-05
7.97057e-05
7.16696e-05
7.18043e-05
6.85068e-05
7.15598e-05
7.1526e-05
7.15713e-05
7.15269e-05
7.17918e-05
7.11507e-05
7.1157e-05
7.18119e-05
7.1546e-05
7.15928e-05
6.85086e-05
7.15343e-05
7.15788e-05
7.18265e-05
7.16485e-05
7.33921e-05
7.9709e-05
7.97137e-05
7.16323e-05
7.1652e-05
7.97516e-05
7.34012e-05
7.97225e-05
7.16699e-05
7.18063e-05
6.85107e-05
7.15339e-05
7.15616e-05
7.15348e-05
7.1573e-05
7.17942e-05
7.11506e-05
7.11566e-05
9.49412e-05
7.3489e-05
7.34827e-05
7.34706e-05
7.34643e-05
9.49864e-05
7.40604e-05
6.51594e-05
6.98481e-05
7.32013e-05
6.51573e-05
7.32201e-05
7.40588e-05
7.41083e-05
6.51685e-05
6.98595e-05
7.32118e-05
6.51663e-05
7.32306e-05
7.41068e-05
7.40687e-05
7.32558e-05
6.98656e-05
6.51679e-05
6.51572e-05
7.32314e-05
7.41048e-05
7.41167e-05
7.32663e-05
6.98769e-05
6.51772e-05
6.51662e-05
7.32421e-05
7.41526e-05
9.48904e-05
7.34438e-05
7.34375e-05
7.34644e-05
7.34581e-05
9.48654e-05
7.43033e-05
6.53843e-05
7.32971e-05
7.00444e-05
7.42908e-05
6.54155e-05
7.32988e-05
7.4351e-05
6.53931e-05
7.33076e-05
7.00557e-05
7.43386e-05
6.54244e-05
7.33092e-05
9.51102e-05
7.35067e-05
7.35004e-05
9.51117e-05
7.35111e-05
7.35047e-05
7.11498e-05
7.1156e-05
7.11521e-05
7.11583e-05
9.49506e-05
7.34899e-05
7.34831e-05
7.34724e-05
7.34656e-05
9.49947e-05
7.40621e-05
6.51568e-05
6.98508e-05
7.32037e-05
7.32233e-05
6.51558e-05
7.40593e-05
7.41081e-05
6.51648e-05
6.98607e-05
7.32131e-05
7.32327e-05
6.51638e-05
7.41052e-05
7.4074e-05
7.32587e-05
6.98743e-05
6.5174e-05
7.32351e-05
7.4117e-05
6.51575e-05
7.41197e-05
7.3268e-05
6.98839e-05
6.51817e-05
7.32444e-05
7.41627e-05
6.51656e-05
9.49001e-05
7.34458e-05
7.34391e-05
7.34665e-05
7.34598e-05
9.4868e-05
7.1192e-05
7.11904e-05
7.11945e-05
7.11929e-05
9.50686e-05
7.34923e-05
7.34855e-05
9.50377e-05
7.3503e-05
7.34962e-05
7.42448e-05
6.53624e-05
7.00113e-05
7.3296e-05
7.32886e-05
6.53106e-05
7.42779e-05
7.429e-05
6.53696e-05
7.00207e-05
7.33053e-05
7.32979e-05
6.5318e-05
7.43235e-05
7.42125e-05
7.32683e-05
6.52064e-05
6.99874e-05
7.41595e-05
7.32842e-05
6.52705e-05
7.42582e-05
7.32775e-05
6.52141e-05
6.99969e-05
7.42046e-05
7.32935e-05
6.52777e-05
9.50933e-05
7.35088e-05
7.3502e-05
7.35023e-05
7.34955e-05
9.51045e-05
7.18111e-05
7.15915e-05
7.15453e-05
6.85066e-05
7.15775e-05
7.15345e-05
7.18258e-05
7.16478e-05
7.33906e-05
7.97097e-05
7.97139e-05
7.16317e-05
7.16514e-05
7.97509e-05
7.33996e-05
7.97224e-05
7.16694e-05
7.18056e-05
6.8509e-05
7.15603e-05
7.15347e-05
7.15717e-05
7.15353e-05
7.17935e-05
7.18456e-05
7.15978e-05
7.15555e-05
6.85591e-05
7.18307e-05
7.1613e-05
7.15956e-05
7.16861e-05
7.34485e-05
7.98294e-05
7.16971e-05
7.98116e-05
7.16862e-05
7.97634e-05
7.34429e-05
7.16716e-05
7.97946e-05
7.18502e-05
6.85833e-05
7.16309e-05
7.16528e-05
7.18615e-05
7.16187e-05
7.16159e-05
7.1847e-05
7.15982e-05
7.15587e-05
6.85594e-05
7.1832e-05
7.16134e-05
7.15978e-05
7.16883e-05
7.3453e-05
7.98486e-05
7.98258e-05
7.16992e-05
7.16877e-05
7.97716e-05
7.34469e-05
7.16724e-05
7.98101e-05
7.1852e-05
6.85836e-05
7.16315e-05
7.16581e-05
7.16192e-05
7.16179e-05
7.18636e-05
9.49409e-05
7.34828e-05
7.34886e-05
7.34646e-05
7.34703e-05
9.49868e-05
7.41059e-05
6.51644e-05
6.98584e-05
7.32115e-05
7.32307e-05
6.51626e-05
7.4104e-05
7.40594e-05
6.51577e-05
6.98463e-05
7.32013e-05
6.51561e-05
7.32205e-05
7.40575e-05
7.41157e-05
7.32665e-05
6.98777e-05
6.51759e-05
7.32423e-05
6.51633e-05
7.41544e-05
7.40689e-05
7.32562e-05
6.9868e-05
6.5169e-05
6.51568e-05
7.32321e-05
7.41075e-05
9.48899e-05
7.34377e-05
7.34434e-05
7.34585e-05
7.34642e-05
9.48626e-05
7.11475e-05
7.11536e-05
7.11944e-05
7.11926e-05
9.50645e-05
7.34855e-05
7.34913e-05
9.50312e-05
7.34968e-05
7.35026e-05
7.42867e-05
6.5365e-05
7.00187e-05
7.33062e-05
6.53116e-05
7.32982e-05
7.43219e-05
7.42401e-05
6.53578e-05
7.00076e-05
7.32958e-05
7.32878e-05
6.53046e-05
7.42757e-05
7.42523e-05
7.32765e-05
6.52062e-05
6.99935e-05
6.52695e-05
7.41978e-05
7.32933e-05
7.42057e-05
7.32662e-05
6.51994e-05
6.99809e-05
7.41507e-05
7.3283e-05
6.52622e-05
9.50913e-05
7.3503e-05
7.35088e-05
7.34963e-05
7.35021e-05
9.51045e-05
7.11907e-05
7.11891e-05
7.181e-05
7.15922e-05
7.15405e-05
6.85064e-05
7.15782e-05
7.15269e-05
7.18249e-05
7.16471e-05
7.33878e-05
7.96825e-05
7.969e-05
7.16295e-05
7.16504e-05
7.97391e-05
7.33973e-05
7.9704e-05
7.16689e-05
7.18045e-05
6.85085e-05
7.15609e-05
7.15253e-05
7.15724e-05
7.15263e-05
7.1792e-05
7.18476e-05
7.15598e-05
7.15994e-05
6.85622e-05
7.18327e-05
7.15991e-05
7.16145e-05
7.16883e-05
7.34534e-05
7.98465e-05
7.1699e-05
7.98246e-05
7.16877e-05
7.97719e-05
7.34476e-05
7.16727e-05
7.98098e-05
7.18525e-05
6.85855e-05
7.16579e-05
7.16325e-05
7.18639e-05
7.16187e-05
7.16203e-05
7.18458e-05
7.15989e-05
7.15553e-05
6.85612e-05
7.1831e-05
7.16139e-05
7.15955e-05
7.16853e-05
7.34486e-05
7.98278e-05
7.98096e-05
7.16964e-05
7.16855e-05
7.97614e-05
7.34431e-05
7.16709e-05
7.97933e-05
7.18505e-05
6.85846e-05
7.16318e-05
7.16524e-05
7.16197e-05
7.16156e-05
7.18617e-05
7.18109e-05
7.1543e-05
7.15915e-05
6.85071e-05
7.15339e-05
7.15776e-05
7.18254e-05
7.16473e-05
7.33896e-05
7.97081e-05
7.97116e-05
7.16313e-05
7.16508e-05
7.9746e-05
7.33985e-05
7.9719e-05
7.16689e-05
7.18054e-05
6.85105e-05
7.1535e-05
7.15607e-05
7.15355e-05
7.15719e-05
7.17935e-05
7.18097e-05
7.1591e-05
7.15374e-05
6.85053e-05
7.15771e-05
7.15285e-05
7.18242e-05
7.16459e-05
7.33863e-05
7.9689e-05
7.96925e-05
7.16298e-05
7.16494e-05
7.97274e-05
7.33952e-05
7.97002e-05
7.16676e-05
7.18042e-05
6.85088e-05
7.15602e-05
7.15297e-05
7.15714e-05
7.15301e-05
7.17923e-05
7.18469e-05
7.15553e-05
7.15982e-05
6.85547e-05
7.18317e-05
7.15934e-05
7.16136e-05
7.16883e-05
7.34522e-05
7.98463e-05
7.98221e-05
7.16994e-05
7.16876e-05
7.97661e-05
7.3446e-05
7.1672e-05
7.9806e-05
7.18521e-05
6.85796e-05
7.16559e-05
7.16324e-05
7.1614e-05
7.16197e-05
7.18641e-05
7.18458e-05
7.15977e-05
7.15498e-05
6.85529e-05
7.18305e-05
7.16132e-05
7.15879e-05
7.16871e-05
7.34493e-05
7.98282e-05
7.98042e-05
7.16981e-05
7.16863e-05
7.97483e-05
7.3443e-05
7.16707e-05
7.97876e-05
7.18509e-05
6.85779e-05
7.1632e-05
7.16506e-05
7.16192e-05
7.16086e-05
7.18629e-05
9.49511e-05
7.34831e-05
7.34898e-05
7.34654e-05
7.34719e-05
9.49958e-05
7.41066e-05
6.51608e-05
6.98545e-05
7.32111e-05
7.32309e-05
6.51599e-05
7.41038e-05
7.40618e-05
6.51587e-05
6.98496e-05
7.32028e-05
6.51573e-05
7.32222e-05
7.40594e-05
7.41183e-05
7.32662e-05
6.98815e-05
6.51784e-05
7.32425e-05
6.51621e-05
7.41614e-05
7.40729e-05
7.32578e-05
6.987e-05
6.51724e-05
6.51583e-05
7.32338e-05
7.41144e-05
9.49003e-05
7.34388e-05
7.34452e-05
7.34596e-05
7.3466e-05
9.48689e-05
7.11497e-05
7.1156e-05
7.1192e-05
7.11907e-05
9.5071e-05
7.34855e-05
7.34922e-05
9.50393e-05
7.34963e-05
7.35032e-05
7.42897e-05
6.53664e-05
7.00154e-05
7.33032e-05
6.53158e-05
7.32959e-05
7.43231e-05
7.42443e-05
6.53609e-05
7.00101e-05
7.32964e-05
7.32887e-05
6.5308e-05
7.42781e-05
7.42571e-05
7.32756e-05
6.52124e-05
6.99907e-05
6.52746e-05
7.42038e-05
7.32916e-05
7.42109e-05
7.32676e-05
6.52032e-05
6.99851e-05
7.41575e-05
7.32841e-05
6.52669e-05
9.50963e-05
7.35022e-05
7.35091e-05
7.34956e-05
7.35025e-05
9.5108e-05
7.11931e-05
7.11914e-05
7.18094e-05
7.15365e-05
7.15912e-05
6.85047e-05
7.1527e-05
7.15772e-05
7.18241e-05
7.16468e-05
7.33877e-05
7.96895e-05
7.96933e-05
7.16307e-05
7.16504e-05
7.97294e-05
7.33967e-05
7.97013e-05
7.16686e-05
7.1804e-05
6.85079e-05
7.15278e-05
7.15602e-05
7.15282e-05
7.15716e-05
7.17919e-05
7.18106e-05
7.15418e-05
7.15919e-05
6.85073e-05
7.15314e-05
7.15779e-05
7.18254e-05
7.16476e-05
7.33913e-05
7.96999e-05
7.97047e-05
7.16302e-05
7.1651e-05
7.97507e-05
7.34006e-05
7.97172e-05
7.16698e-05
7.18051e-05
6.85105e-05
7.15313e-05
7.1561e-05
7.15317e-05
7.15723e-05
7.17929e-05
7.18457e-05
7.15495e-05
7.15979e-05
6.85542e-05
7.18303e-05
7.15884e-05
7.16134e-05
7.16878e-05
7.34501e-05
7.98289e-05
7.98055e-05
7.16988e-05
7.16871e-05
7.97504e-05
7.3444e-05
7.16717e-05
7.97892e-05
7.18507e-05
6.85802e-05
7.16502e-05
7.1632e-05
7.16096e-05
7.16193e-05
7.18626e-05
7.18468e-05
7.15556e-05
7.15986e-05
6.85568e-05
7.18316e-05
7.15947e-05
7.16141e-05
7.16873e-05
7.3454e-05
7.98453e-05
7.98254e-05
7.16987e-05
7.16873e-05
7.97742e-05
7.3448e-05
7.16721e-05
7.98072e-05
7.18517e-05
6.85822e-05
7.16553e-05
7.16327e-05
7.16164e-05
7.162e-05
7.18635e-05
7.11484e-05
7.11547e-05
7.11514e-05
7.11577e-05
9.50647e-05
7.34918e-05
7.34855e-05
9.50314e-05
7.35033e-05
7.34969e-05
7.42378e-05
6.53556e-05
7.00076e-05
7.32966e-05
7.42741e-05
6.53011e-05
7.32882e-05
7.42856e-05
6.53647e-05
7.00189e-05
7.3307e-05
7.43218e-05
6.531e-05
7.32987e-05
7.42031e-05
7.3266e-05
6.51958e-05
6.99813e-05
7.41476e-05
6.52585e-05
7.32832e-05
7.42509e-05
7.32765e-05
6.52049e-05
6.9993e-05
7.41955e-05
6.52677e-05
7.32936e-05
9.50922e-05
7.35096e-05
7.35032e-05
9.51056e-05
7.35028e-05
7.34965e-05
7.11927e-05
7.11908e-05
7.11955e-05
7.11937e-05
7.17063e-05
7.98351e-05
7.34674e-05
7.16972e-05
7.98428e-05
7.18741e-05
6.86659e-05
7.16359e-05
7.16624e-05
7.18659e-05
7.16447e-05
7.16832e-05
7.3471e-05
7.12068e-05
7.12096e-05
3.15134e-05
3.15112e-05
3.86381e-05
3.1593e-05
3.15909e-05
2.24992e-05
2.23529e-05
6.58461e-05
5.94107e-05
5.94123e-05
5.34267e-05
5.9396e-05
5.93975e-05
6.58499e-05
6.61152e-05
5.96353e-05
5.96368e-05
5.36967e-05
6.60843e-05
5.96627e-05
5.96637e-05
6.58443e-05
5.94041e-05
5.94054e-05
5.34187e-05
5.93911e-05
5.93923e-05
6.58468e-05
6.6005e-05
5.35587e-05
5.95706e-05
5.95712e-05
5.95332e-05
5.9534e-05
6.60545e-05
6.58441e-05
5.94072e-05
5.94089e-05
5.34222e-05
5.93947e-05
5.93928e-05
6.58476e-05
6.59983e-05
5.35508e-05
5.95629e-05
5.95641e-05
5.95243e-05
5.95253e-05
6.60496e-05
6.58433e-05
5.94031e-05
5.9407e-05
5.342e-05
5.93933e-05
5.93897e-05
6.5846e-05
6.60023e-05
5.35554e-05
5.95669e-05
5.9568e-05
5.95295e-05
5.95299e-05
6.60523e-05
6.5995e-05
5.35487e-05
5.95601e-05
5.95611e-05
6.60472e-05
5.95206e-05
5.9522e-05
3.15156e-05
3.15169e-05
3.86408e-05
3.15946e-05
3.1595e-05
2.25009e-05
2.23543e-05
3.15171e-05
3.15193e-05
3.86427e-05
3.15966e-05
3.15978e-05
2.25038e-05
2.23573e-05
3.15234e-05
3.15216e-05
3.86465e-05
3.16012e-05
3.15996e-05
2.25057e-05
2.23588e-05
3.8702e-05
3.17605e-05
3.17597e-05
3.16649e-05
3.16634e-05
2.26083e-05
2.27083e-05
3.87001e-05
3.17594e-05
3.17558e-05
3.1665e-05
3.16632e-05
2.26094e-05
2.27082e-05
3.87044e-05
3.17644e-05
3.17606e-05
3.16687e-05
3.16671e-05
2.26126e-05
2.2712e-05
3.87033e-05
3.17605e-05
3.17597e-05
3.16687e-05
3.16675e-05
2.26139e-05
2.2712e-05
5.62531e-05
6.22636e-05
5.49591e-05
6.05647e-05
6.22583e-05
5.49686e-05
5.62389e-05
5.73232e-05
6.03131e-05
6.47147e-05
6.41371e-05
6.03031e-05
6.41366e-05
5.73338e-05
5.73371e-05
6.41448e-05
6.47173e-05
6.03064e-05
6.03056e-05
6.41368e-05
5.73298e-05
5.62281e-05
6.05684e-05
6.22592e-05
5.49591e-05
6.22617e-05
5.49487e-05
5.62437e-05
5.62507e-05
5.49583e-05
6.22593e-05
6.05629e-05
5.49676e-05
6.22539e-05
5.62367e-05
5.73207e-05
6.03128e-05
6.4716e-05
6.41314e-05
6.03028e-05
6.41312e-05
5.73314e-05
5.73347e-05
6.41395e-05
6.47184e-05
6.03065e-05
6.03055e-05
6.41313e-05
5.73276e-05
5.62258e-05
6.05665e-05
5.49581e-05
6.22548e-05
5.49478e-05
6.22571e-05
5.62413e-05
6.58469e-05
5.3446e-05
5.93956e-05
5.93971e-05
5.9399e-05
5.94005e-05
6.58546e-05
6.58468e-05
5.3441e-05
5.93945e-05
5.93957e-05
6.58588e-05
5.93955e-05
5.93968e-05
6.59558e-05
5.34767e-05
5.94273e-05
5.94287e-05
6.58971e-05
5.94535e-05
5.94544e-05
5.62477e-05
6.22592e-05
5.49554e-05
6.05608e-05
6.22521e-05
5.49643e-05
5.62344e-05
5.73163e-05
6.0308e-05
6.47133e-05
6.4127e-05
6.41273e-05
6.02991e-05
5.73263e-05
5.73319e-05
6.41411e-05
6.47171e-05
6.0305e-05
6.41295e-05
6.03024e-05
5.73257e-05
5.62214e-05
6.05636e-05
6.22512e-05
5.49534e-05
6.22542e-05
5.49431e-05
5.62367e-05
5.6251e-05
6.22632e-05
5.49565e-05
6.05623e-05
6.22572e-05
5.49655e-05
5.62372e-05
5.73211e-05
6.03131e-05
6.47178e-05
6.41367e-05
6.41364e-05
6.0303e-05
5.73317e-05
5.73353e-05
6.41456e-05
6.47203e-05
6.03065e-05
6.4137e-05
5.73283e-05
6.03057e-05
5.62254e-05
6.05653e-05
6.22573e-05
5.49549e-05
6.226e-05
5.49446e-05
5.62409e-05
5.62668e-05
6.22692e-05
5.4986e-05
6.0597e-05
5.6273e-05
6.23013e-05
5.49833e-05
5.74305e-05
6.04693e-05
6.48526e-05
6.42855e-05
6.04351e-05
6.4235e-05
5.745e-05
5.73648e-05
6.41594e-05
6.0336e-05
6.48217e-05
6.03641e-05
5.73575e-05
6.42036e-05
5.63278e-05
6.06213e-05
6.23797e-05
5.50478e-05
6.23259e-05
5.50352e-05
5.63328e-05
5.62679e-05
6.22721e-05
5.49865e-05
6.05972e-05
5.62746e-05
6.23022e-05
5.49837e-05
5.74274e-05
6.04651e-05
6.48517e-05
6.4289e-05
6.42361e-05
6.04297e-05
5.7447e-05
5.73637e-05
6.41622e-05
6.03335e-05
6.48198e-05
5.7358e-05
6.42042e-05
6.03595e-05
5.63278e-05
6.06213e-05
6.23813e-05
5.50475e-05
6.23268e-05
5.5035e-05
5.63327e-05
6.58455e-05
5.34427e-05
5.93938e-05
5.93955e-05
5.93982e-05
5.93964e-05
6.58546e-05
6.59472e-05
5.34727e-05
5.94225e-05
5.94238e-05
5.94464e-05
6.58884e-05
5.94476e-05
5.62505e-05
6.22634e-05
5.49568e-05
6.05627e-05
6.22566e-05
5.49655e-05
5.62371e-05
5.73195e-05
6.03117e-05
6.47176e-05
6.41354e-05
6.41354e-05
6.03026e-05
5.73297e-05
5.73351e-05
6.41471e-05
6.47213e-05
6.03084e-05
6.41369e-05
6.03059e-05
5.73286e-05
5.62242e-05
6.05654e-05
6.22561e-05
5.49545e-05
6.22589e-05
5.49443e-05
5.62396e-05
5.62469e-05
5.49553e-05
6.22583e-05
6.05607e-05
5.4964e-05
6.22511e-05
5.62336e-05
5.73141e-05
6.03064e-05
6.47111e-05
6.41247e-05
6.4125e-05
6.02974e-05
5.73243e-05
5.73299e-05
6.41394e-05
6.47156e-05
6.03039e-05
6.41274e-05
5.73237e-05
6.0301e-05
5.62206e-05
6.05634e-05
5.4953e-05
6.22501e-05
5.49428e-05
6.2253e-05
5.62359e-05
5.62694e-05
6.2273e-05
5.49874e-05
6.05994e-05
5.62757e-05
6.23043e-05
5.4985e-05
5.74323e-05
6.04709e-05
6.48558e-05
6.42906e-05
6.04371e-05
6.42393e-05
5.74516e-05
5.73669e-05
6.41647e-05
6.03394e-05
6.48246e-05
6.03664e-05
5.73601e-05
6.42079e-05
5.63304e-05
6.06237e-05
6.23832e-05
5.50504e-05
6.2329e-05
5.50373e-05
5.63355e-05
5.62665e-05
5.49862e-05
6.22686e-05
6.05983e-05
5.62726e-05
5.49838e-05
6.23011e-05
5.74286e-05
6.04667e-05
6.48526e-05
6.42839e-05
6.42339e-05
6.04332e-05
5.74478e-05
5.73629e-05
6.4158e-05
6.03361e-05
6.4821e-05
5.73558e-05
6.42025e-05
6.03629e-05
5.63278e-05
6.06225e-05
5.50492e-05
6.23798e-05
5.50363e-05
6.23259e-05
5.63329e-05
5.62511e-05
5.49582e-05
6.22598e-05
6.05633e-05
5.49677e-05
6.22547e-05
5.62369e-05
5.73219e-05
6.03138e-05
6.47147e-05
6.41317e-05
6.03032e-05
6.4131e-05
5.73327e-05
5.73349e-05
6.41381e-05
6.47165e-05
6.03052e-05
6.03052e-05
6.41307e-05
5.73273e-05
5.62267e-05
6.05671e-05
5.49584e-05
6.2256e-05
5.4948e-05
6.22583e-05
5.62422e-05
5.62675e-05
6.22715e-05
5.49874e-05
6.05943e-05
5.62749e-05
6.22993e-05
5.49837e-05
5.74262e-05
6.04631e-05
6.48489e-05
6.42866e-05
5.74456e-05
6.04276e-05
6.42333e-05
5.73638e-05
6.41608e-05
6.03326e-05
6.48159e-05
5.73588e-05
6.03583e-05
6.42015e-05
5.63259e-05
6.06175e-05
6.23778e-05
5.50442e-05
5.63301e-05
6.23235e-05
5.50324e-05
5.62648e-05
5.49862e-05
6.22674e-05
6.05926e-05
5.62722e-05
5.49825e-05
6.22948e-05
5.74215e-05
6.04596e-05
6.48452e-05
6.42796e-05
6.42255e-05
6.04232e-05
5.7441e-05
5.73599e-05
6.41534e-05
6.03289e-05
6.48125e-05
5.73552e-05
6.41935e-05
6.03542e-05
5.63226e-05
6.06157e-05
5.50427e-05
6.23734e-05
5.50309e-05
6.2319e-05
5.6327e-05
6.58454e-05
5.34414e-05
5.93928e-05
5.93956e-05
5.93973e-05
5.93941e-05
6.58567e-05
6.59525e-05
5.3475e-05
5.94251e-05
5.94262e-05
5.94504e-05
6.58938e-05
5.94512e-05
5.6253e-05
5.49592e-05
6.22626e-05
6.05643e-05
5.49686e-05
6.22572e-05
5.6239e-05
5.7324e-05
6.03176e-05
6.47197e-05
6.41361e-05
6.03069e-05
6.41354e-05
5.73347e-05
5.73373e-05
6.41447e-05
6.47217e-05
6.03092e-05
6.03091e-05
6.41363e-05
5.73299e-05
5.62284e-05
6.05679e-05
5.49592e-05
6.22581e-05
5.49488e-05
6.22603e-05
5.62439e-05
5.62657e-05
5.49867e-05
6.22673e-05
6.05933e-05
5.62729e-05
5.49832e-05
6.22957e-05
5.74255e-05
6.04653e-05
6.48491e-05
6.42815e-05
5.74449e-05
6.043e-05
6.42274e-05
5.73623e-05
6.41553e-05
6.03336e-05
6.48174e-05
5.73569e-05
6.036e-05
6.41962e-05
5.63244e-05
6.06171e-05
5.50446e-05
6.23747e-05
5.6329e-05
5.50325e-05
6.23202e-05
5.62675e-05
5.49874e-05
6.22709e-05
6.05949e-05
5.62748e-05
5.49839e-05
6.22996e-05
5.74254e-05
6.04639e-05
6.48515e-05
6.42872e-05
6.42353e-05
6.04279e-05
5.74448e-05
5.73634e-05
6.41614e-05
6.03336e-05
6.48191e-05
5.73585e-05
6.42028e-05
6.03588e-05
5.63258e-05
6.06183e-05
5.50449e-05
6.23782e-05
5.50328e-05
6.23241e-05
5.63303e-05
6.59439e-05
5.34729e-05
5.94213e-05
5.94231e-05
6.58851e-05
5.94442e-05
5.94457e-05
5.75372e-05
6.05228e-05
6.43041e-05
6.49267e-05
6.05464e-05
5.75219e-05
6.43374e-05
5.64189e-05
6.07558e-05
5.51227e-05
6.24001e-05
5.51409e-05
5.64103e-05
6.24496e-05
6.0527e-05
6.49318e-05
6.05501e-05
2.1201e-05
3.69028e-05
3.68996e-05
4.21304e-05
2.19644e-05
3.78067e-05
3.78138e-05
4.28463e-05
2.27452e-05
3.86908e-05
3.86933e-05
4.3554e-05
2.35406e-05
3.95423e-05
3.95439e-05
4.42216e-05
2.43484e-05
4.03679e-05
4.0371e-05
4.48708e-05
2.51611e-05
4.11668e-05
4.11686e-05
4.54988e-05
2.5975e-05
4.19343e-05
4.19363e-05
4.60999e-05
2.67909e-05
4.26733e-05
4.26757e-05
4.66783e-05
2.75989e-05
4.33858e-05
4.33864e-05
4.72353e-05
2.84025e-05
4.40633e-05
4.40671e-05
4.77662e-05
2.91933e-05
4.47216e-05
4.47207e-05
4.82804e-05
2.99747e-05
4.5341e-05
4.53453e-05
4.87649e-05
3.07345e-05
4.5941e-05
4.59398e-05
4.92357e-05
3.14855e-05
4.65078e-05
4.65121e-05
4.96784e-05
3.22094e-05
4.70497e-05
4.70476e-05
5.01048e-05
3.29158e-05
4.75642e-05
4.75694e-05
5.05068e-05
3.35988e-05
4.80493e-05
4.80459e-05
5.08907e-05
3.42663e-05
4.85195e-05
4.85252e-05
5.12583e-05
3.48772e-05
4.89359e-05
4.89322e-05
5.15865e-05
3.55286e-05
4.9375e-05
4.93797e-05
5.19381e-05
3.60577e-05
4.97269e-05
4.97257e-05
5.22027e-05
3.66618e-05
5.01089e-05
5.0109e-05
5.2524e-05
3.71637e-05
5.04549e-05
5.04582e-05
5.27703e-05
3.76618e-05
5.07137e-05
5.07114e-05
5.30088e-05
3.81469e-05
5.10871e-05
5.10891e-05
5.32835e-05
4.21282e-05
4.26875e-05
3.69043e-05
3.69042e-05
3.75857e-05
3.75835e-05
4.21278e-05
4.26837e-05
3.69017e-05
3.68995e-05
3.75841e-05
3.75877e-05
3.69073e-05
3.75817e-05
3.75837e-05
4.21235e-05
4.26893e-05
3.69049e-05
3.75874e-05
3.75819e-05
4.26842e-05
4.28491e-05
4.33901e-05
3.781e-05
3.78085e-05
3.84723e-05
3.84744e-05
4.28455e-05
4.33914e-05
3.78088e-05
3.7814e-05
3.84707e-05
3.84764e-05
3.78089e-05
3.84734e-05
3.84798e-05
4.28527e-05
4.33936e-05
3.78073e-05
3.8477e-05
3.84782e-05
4.3397e-05
4.35457e-05
4.40687e-05
3.86896e-05
3.86917e-05
3.93323e-05
3.93325e-05
4.35474e-05
4.40672e-05
3.86881e-05
3.86926e-05
3.93305e-05
3.93323e-05
3.86986e-05
3.93315e-05
3.93376e-05
4.35483e-05
4.40677e-05
3.86969e-05
3.9333e-05
3.93358e-05
4.40724e-05
4.42198e-05
4.47252e-05
3.95437e-05
3.95434e-05
4.01664e-05
4.01656e-05
4.42178e-05
4.47233e-05
3.95421e-05
3.95434e-05
4.01648e-05
4.01666e-05
3.95471e-05
4.01642e-05
4.01673e-05
4.42185e-05
4.47252e-05
3.95453e-05
4.0167e-05
4.01659e-05
4.47252e-05
4.48704e-05
4.53556e-05
4.03698e-05
4.03692e-05
4.09706e-05
4.0971e-05
4.48687e-05
4.53549e-05
4.03686e-05
4.03705e-05
4.09689e-05
4.09712e-05
4.03715e-05
4.09702e-05
4.09742e-05
4.48705e-05
4.53563e-05
4.03702e-05
4.09721e-05
4.09727e-05
4.53586e-05
4.54958e-05
4.59626e-05
4.11673e-05
4.11677e-05
4.17452e-05
4.17453e-05
4.54953e-05
4.59615e-05
4.11659e-05
4.11678e-05
4.17438e-05
4.1746e-05
4.11708e-05
4.17445e-05
4.17486e-05
4.54963e-05
4.59629e-05
4.11693e-05
4.1747e-05
4.17475e-05
4.59649e-05
4.60975e-05
4.65473e-05
4.19345e-05
4.19349e-05
4.2493e-05
4.24928e-05
4.60964e-05
4.65463e-05
4.19332e-05
4.19352e-05
4.24915e-05
4.24927e-05
4.19386e-05
4.2492e-05
4.24952e-05
4.60977e-05
4.65469e-05
4.19374e-05
4.24937e-05
4.24939e-05
4.65489e-05
4.66772e-05
4.71072e-05
4.26749e-05
4.26742e-05
4.32091e-05
4.32101e-05
4.66761e-05
4.71067e-05
4.26737e-05
4.26749e-05
4.32077e-05
4.32098e-05
4.26762e-05
4.32097e-05
4.3213e-05
4.66767e-05
4.71077e-05
4.26751e-05
4.32112e-05
4.32118e-05
4.71097e-05
4.7232e-05
4.76462e-05
4.33845e-05
4.3386e-05
4.38989e-05
4.38978e-05
4.72322e-05
4.76445e-05
4.33831e-05
4.33848e-05
4.38978e-05
4.38986e-05
4.33895e-05
4.38971e-05
4.39002e-05
4.72325e-05
4.76457e-05
4.33883e-05
4.38996e-05
4.38993e-05
4.76474e-05
4.7766e-05
4.816e-05
4.40659e-05
4.40641e-05
4.45572e-05
4.45595e-05
4.77637e-05
4.8161e-05
4.4065e-05
4.40662e-05
4.45559e-05
4.45583e-05
4.40661e-05
4.45594e-05
4.45625e-05
4.77655e-05
4.81613e-05
4.40654e-05
4.45601e-05
4.45616e-05
4.81637e-05
4.82755e-05
4.86565e-05
4.47187e-05
4.47214e-05
4.51917e-05
4.51895e-05
4.82775e-05
4.86536e-05
4.47174e-05
4.47187e-05
4.51906e-05
4.51906e-05
4.4725e-05
4.5189e-05
4.51914e-05
4.82765e-05
4.86548e-05
4.47238e-05
4.51917e-05
4.51905e-05
4.86561e-05
4.87667e-05
4.91231e-05
4.53443e-05
4.53417e-05
4.57902e-05
4.57934e-05
4.87628e-05
4.91254e-05
4.53436e-05
4.53443e-05
4.5789e-05
4.57915e-05
4.53433e-05
4.57935e-05
4.57964e-05
4.87654e-05
4.91253e-05
4.53427e-05
4.57936e-05
4.57958e-05
4.91284e-05
4.9229e-05
4.95791e-05
4.5937e-05
4.59406e-05
4.63708e-05
4.63683e-05
4.92326e-05
4.95756e-05
4.59358e-05
4.59374e-05
4.637e-05
4.63703e-05
4.59442e-05
4.63682e-05
4.63706e-05
4.92307e-05
4.95777e-05
4.59433e-05
4.63717e-05
4.63698e-05
4.95779e-05
4.96812e-05
5.00032e-05
4.65112e-05
4.65082e-05
4.69156e-05
4.69185e-05
4.96765e-05
5.00057e-05
4.65107e-05
4.6511e-05
4.69142e-05
4.69147e-05
4.65099e-05
4.69187e-05
4.69206e-05
4.96799e-05
5.00034e-05
4.65093e-05
4.6917e-05
4.69199e-05
5.00079e-05
5.00986e-05
5.04125e-05
4.70455e-05
4.70492e-05
4.74357e-05
4.74341e-05
5.01024e-05
5.04099e-05
4.70443e-05
4.7045e-05
4.74356e-05
4.74377e-05
4.7052e-05
4.74344e-05
4.74375e-05
5.00988e-05
5.0414e-05
4.70512e-05
4.74394e-05
4.74372e-05
5.04131e-05
5.05077e-05
5.08022e-05
4.75664e-05
4.7564e-05
4.79325e-05
4.79348e-05
5.0504e-05
5.08039e-05
4.75664e-05
4.75679e-05
4.79306e-05
4.79297e-05
4.75669e-05
4.7935e-05
4.79353e-05
5.0509e-05
5.08001e-05
4.75666e-05
4.79319e-05
4.7934e-05
5.08044e-05
5.08875e-05
5.11685e-05
4.80462e-05
4.8049e-05
4.84024e-05
4.8401e-05
5.08902e-05
5.11663e-05
4.80445e-05
4.80436e-05
4.84028e-05
4.84046e-05
4.80498e-05
4.84015e-05
4.84055e-05
5.08852e-05
5.11706e-05
4.80487e-05
4.8407e-05
4.84063e-05
5.1171e-05
5.12563e-05
5.15078e-05
4.85204e-05
4.85188e-05
4.88279e-05
4.88308e-05
5.12533e-05
5.15104e-05
4.85209e-05
4.85228e-05
4.88263e-05
4.88266e-05
4.85234e-05
4.88315e-05
4.88311e-05
5.12586e-05
5.15068e-05
4.85242e-05
4.88282e-05
4.88291e-05
5.15097e-05
5.15848e-05
5.18593e-05
4.89328e-05
4.89353e-05
4.92803e-05
4.92784e-05
5.1588e-05
5.1856e-05
4.89312e-05
4.89308e-05
4.92802e-05
4.92796e-05
4.89352e-05
4.92787e-05
4.92815e-05
5.15832e-05
5.1859e-05
4.89329e-05
4.92826e-05
4.92824e-05
5.186e-05
5.19366e-05
5.21274e-05
4.93759e-05
4.93746e-05
4.96177e-05
4.96202e-05
5.19332e-05
5.21299e-05
4.93763e-05
4.93761e-05
4.96172e-05
4.96194e-05
4.93783e-05
4.96212e-05
4.96222e-05
5.1937e-05
5.21291e-05
4.938e-05
4.96215e-05
4.96219e-05
5.21316e-05
5.21988e-05
5.24635e-05
4.97233e-05
4.97256e-05
5.00431e-05
5.00429e-05
5.22023e-05
5.24617e-05
4.97225e-05
4.97243e-05
5.0042e-05
5.00397e-05
4.97276e-05
5.00439e-05
5.00451e-05
5.22002e-05
5.24609e-05
4.97261e-05
5.00423e-05
5.00436e-05
5.24633e-05
5.25245e-05
5.269e-05
5.01094e-05
5.01084e-05
5.03374e-05
5.03373e-05
5.25222e-05
5.26895e-05
5.01089e-05
5.01063e-05
5.03381e-05
5.03403e-05
5.01098e-05
5.03378e-05
5.03386e-05
5.2522e-05
5.26922e-05
5.01095e-05
5.03421e-05
5.03402e-05
5.26914e-05
5.27672e-05
5.29665e-05
5.04527e-05
5.04539e-05
5.06789e-05
5.06815e-05
5.27679e-05
5.29683e-05
5.04531e-05
5.04556e-05
5.06775e-05
5.06764e-05
5.04568e-05
5.06835e-05
5.06858e-05
5.27705e-05
5.29652e-05
5.04578e-05
5.06808e-05
5.06844e-05
5.29707e-05
5.30063e-05
5.31942e-05
5.07111e-05
5.07122e-05
5.09676e-05
5.09651e-05
5.30072e-05
5.31912e-05
5.071e-05
5.07085e-05
5.09678e-05
5.09677e-05
5.07145e-05
5.0965e-05
5.09638e-05
5.30042e-05
5.31941e-05
5.07132e-05
5.09674e-05
5.0964e-05
5.31905e-05
5.32849e-05
5.34135e-05
5.10876e-05
5.10867e-05
5.12632e-05
5.12686e-05
5.32831e-05
5.34177e-05
5.10878e-05
5.1088e-05
5.12631e-05
5.12637e-05
5.10871e-05
5.12716e-05
5.12753e-05
5.32854e-05
5.34153e-05
5.10874e-05
5.12705e-05
5.12752e-05
5.34223e-05
6.48536e-05
7.13702e-05
7.14059e-05
6.47558e-05
6.95459e-05
6.95715e-05
6.48577e-05
7.13761e-05
7.14118e-05
6.47593e-05
2.1201e-05
2.11998e-05
2.12063e-05
2.17717e-05
2.17693e-05
2.17738e-05
2.17713e-05
5.36081e-05
6.02737e-05
2.926e-05
3.71302e-05
6.03941e-05
2.95047e-05
5.3411e-05
6.95444e-05
6.95707e-05
5.36078e-05
2.92603e-05
6.02721e-05
3.71295e-05
2.95059e-05
6.03958e-05
5.34104e-05
6.69542e-05
6.69657e-05
4.23263e-05
6.70278e-05
6.70394e-05
6.50822e-05
7.1455e-05
6.49858e-05
7.14911e-05
6.96029e-05
6.96294e-05
6.50865e-05
7.1461e-05
6.49906e-05
7.1497e-05
2.19621e-05
2.19684e-05
2.19637e-05
2.25484e-05
2.25493e-05
2.25552e-05
2.2554e-05
5.40744e-05
6.05625e-05
3.02381e-05
3.80308e-05
5.38821e-05
6.06828e-05
3.04836e-05
6.96012e-05
6.96276e-05
5.40758e-05
3.02444e-05
6.05674e-05
3.80374e-05
5.38841e-05
3.04902e-05
6.06851e-05
6.7133e-05
6.71446e-05
4.30429e-05
6.72083e-05
6.72198e-05
6.53031e-05
7.15408e-05
6.52103e-05
7.15776e-05
6.96612e-05
6.96885e-05
6.53069e-05
7.15468e-05
6.5214e-05
7.15835e-05
2.27465e-05
2.27515e-05
2.27529e-05
2.33402e-05
2.33407e-05
2.33441e-05
2.33477e-05
5.45219e-05
6.08437e-05
3.12179e-05
3.89059e-05
5.43396e-05
6.09563e-05
3.146e-05
6.96593e-05
6.96869e-05
5.45215e-05
3.12224e-05
6.08438e-05
3.89078e-05
5.43395e-05
3.14639e-05
6.0957e-05
6.73084e-05
6.73197e-05
4.37402e-05
6.73766e-05
6.73881e-05
6.55179e-05
7.1628e-05
6.54276e-05
7.16648e-05
6.97218e-05