/*--------------------------------*- C++ -*----------------------------------*\
| =========                 |                                                 |
| \\      /  F ield         | OpenFOAM: The Open Source CFD Toolbox           |
|  \\    /   O peration     | Version:  v1906                                 |
|   \\  /    A nd           | Web:      www.OpenFOAM.com                      |
|    \\/     M anipulation  |                                                 |
\*---------------------------------------------------------------------------*/
FoamFile
{
    version     2.0;
    format      ascii;
    class       volScalarField;
    location    "375";
    object      p;
}
// * * * * * * * * * * * * * * * * * * * * * * * * * * * * * * * * * * * * * //

dimensions      [0 2 -2 0 0 0 0];


internalField   nonuniform List<scalar> 
43024
(
0.00359985
0.00360018
0.00360018
0.00360323
0.00354449
0.00354491
0.00354491
0.0035479
0.00349374
0.00349371
0.00349371
0.00349647
0.00344136
0.00344137
0.00344137
0.00344414
0.00339001
0.00339002
0.00339002
0.00339277
0.00334003
0.00334004
0.00334004
0.00334276
0.00329151
0.00329152
0.00329152
0.0032942
0.00324428
0.0032443
0.0032443
0.00324694
0.00319815
0.00319817
0.00319817
0.00320079
0.00315291
0.00315294
0.00315294
0.00315553
0.00310841
0.00310844
0.00310843
0.00311099
0.0030645
0.00306452
0.00306452
0.00306706
0.0030211
0.00302112
0.00302112
0.00302363
0.00297818
0.0029782
0.0029782
0.0029807
0.00293568
0.00293568
0.00293568
0.00293819
0.00289359
0.0028936
0.0028936
0.00289609
0.00285189
0.00285188
0.00285187
0.00285436
0.00281054
0.00281054
0.00281054
0.00281301
0.00276953
0.00276951
0.00276951
0.00277197
0.00272883
0.0027288
0.0027288
0.00273126
0.00268842
0.00268839
0.00268839
0.00269084
0.00361326
0.00361348
0.00361348
0.00361326
0.00361348
0.00361348
0.00361425
0.00361424
0.00361425
0.00361425
0.00361348
0.00361348
0.00361326
0.00361348
0.00361348
0.00361326
0.00360323
0.00355447
0.00360018
0.00360018
0.00355675
0.00355675
0.00360323
0.00355447
0.00360018
0.00360018
0.00355675
0.00355675
0.00360018
0.00355675
0.00355675
0.00360323
0.00355447
0.00360018
0.00355675
0.00355675
0.00355447
0.0035479
0.00350339
0.00354491
0.00354492
0.00350684
0.00350684
0.00354791
0.0035034
0.00354491
0.00354491
0.00350684
0.00350684
0.00354491
0.00350684
0.00350684
0.0035479
0.00350339
0.00354491
0.00350684
0.00350684
0.00350339
0.00349647
0.00345103
0.00349371
0.00349372
0.00345438
0.00345439
0.00349647
0.00345103
0.00349371
0.00349371
0.00345438
0.00345439
0.00349371
0.00345438
0.00345438
0.00349647
0.00345103
0.00349371
0.00345438
0.00345438
0.00345102
0.00344414
0.00339947
0.00344137
0.00344137
0.00340274
0.00340274
0.00344414
0.00339947
0.00344137
0.00344137
0.00340274
0.00340274
0.00344137
0.00340274
0.00340274
0.00344414
0.00339947
0.00344137
0.00340274
0.00340274
0.00339947
0.00339277
0.00334926
0.00339001
0.00339002
0.0033524
0.00335239
0.00339277
0.00334926
0.00339001
0.00339002
0.0033524
0.00335239
0.00339002
0.00335239
0.0033524
0.00339277
0.00334926
0.00339001
0.00335239
0.0033524
0.00334926
0.00334276
0.0033005
0.00334004
0.00334004
0.00330352
0.00330352
0.00334276
0.00330051
0.00334004
0.00334005
0.00330352
0.00330352
0.00334004
0.00330352
0.00330353
0.00334276
0.00330051
0.00334004
0.00330352
0.00330352
0.0033005
0.0032942
0.00325308
0.00329152
0.00329152
0.003256
0.00325599
0.0032942
0.00325308
0.00329152
0.00329153
0.003256
0.00325599
0.00329152
0.00325599
0.003256
0.0032942
0.00325308
0.00329152
0.00325599
0.003256
0.00325308
0.00324694
0.00320678
0.00324429
0.0032443
0.00320961
0.0032096
0.00324695
0.00320678
0.00324431
0.0032443
0.00320961
0.00320961
0.0032443
0.0032096
0.00320961
0.00324695
0.00320678
0.0032443
0.00320961
0.00320961
0.00320678
0.00320079
0.0031614
0.00319816
0.00319817
0.00316418
0.00316417
0.00320079
0.0031614
0.00319816
0.00319817
0.00316418
0.00316417
0.00319816
0.00316417
0.00316417
0.00320079
0.0031614
0.00319816
0.00316417
0.00316417
0.0031614
0.00315552
0.00311677
0.00315293
0.00315294
0.0031195
0.00311949
0.00315553
0.00311678
0.00315293
0.00315294
0.0031195
0.0031195
0.00315294
0.00311949
0.0031195
0.00315553
0.00311677
0.00315294
0.0031195
0.0031195
0.00311677
0.00311099
0.00307277
0.00310842
0.00310844
0.00307544
0.00307544
0.003111
0.00307276
0.00310842
0.00310843
0.00307544
0.00307544
0.00310842
0.00307544
0.00307545
0.00311099
0.00307276
0.00310842
0.00307544
0.00307545
0.00307276
0.00306706
0.00302927
0.00306452
0.00306452
0.00303193
0.00303193
0.00306706
0.00302927
0.00306452
0.00306452
0.00303193
0.00303193
0.00306451
0.00303193
0.00303192
0.00306706
0.00302927
0.00306451
0.00303193
0.00303192
0.00302927
0.00302364
0.00298626
0.00302112
0.00302112
0.00298888
0.00298888
0.00302363
0.00298626
0.00302112
0.00302112
0.00298888
0.00298887
0.00302113
0.00298888
0.00298888
0.00302363
0.00298626
0.00302113
0.00298887
0.00298888
0.00298626
0.0029807
0.0029437
0.0029782
0.0029782
0.00294627
0.00294628
0.0029807
0.0029437
0.0029782
0.0029782
0.00294627
0.00294628
0.00297819
0.00294628
0.00294628
0.0029807
0.0029437
0.00297819
0.00294628
0.00294628
0.0029437
0.00293819
0.00290155
0.00293569
0.00293568
0.00290409
0.00290408
0.00293819
0.00290155
0.00293569
0.00293568
0.00290409
0.00290408
0.00293569
0.00290408
0.00290408
0.00293819
0.00290155
0.00293569
0.00290408
0.00290408
0.00290155
0.00289608
0.00285978
0.00289359
0.0028936
0.00286227
0.00286228
0.00289609
0.00285978
0.00289359
0.0028936
0.00286227
0.00286228
0.0028936
0.00286228
0.00286228
0.00289609
0.00285978
0.0028936
0.00286228
0.00286228
0.00285978
0.00285436
0.00281838
0.00285188
0.00285188
0.00282084
0.00282084
0.00285436
0.00281838
0.00285188
0.00285187
0.00282084
0.00282083
0.00285188
0.00282084
0.00282084
0.00285436
0.00281838
0.00285188
0.00282083
0.00282084
0.00281838
0.00281301
0.00277731
0.00281054
0.00281054
0.00277975
0.00277975
0.00281301
0.00277731
0.00281054
0.00281054
0.00277975
0.00277975
0.00281054
0.00277974
0.00277974
0.00281301
0.00277731
0.00281054
0.00277975
0.00277974
0.00277731
0.00277197
0.00273655
0.00276951
0.00276951
0.00273895
0.00273895
0.00277197
0.00273655
0.00276951
0.00276951
0.00273895
0.00273895
0.00276951
0.00273895
0.00273895
0.00277197
0.00273655
0.00276951
0.00273895
0.00273895
0.00273655
0.00273126
0.0026961
0.00272881
0.0027288
0.00269846
0.00269846
0.00273126
0.0026961
0.00272881
0.0027288
0.00269846
0.00269846
0.00272881
0.00269846
0.00269846
0.00273126
0.0026961
0.00272881
0.00269846
0.00269846
0.0026961
0.00269084
0.00268839
0.00268839
0.00269084
0.00268839
0.00268839
0.00268839
0.00269084
0.00268839
0.00362163
0.0036314
0.00362619
0.0036262
0.00364858
0.00363536
0.00366397
0.0036294
0.00364858
0.00363536
0.00362941
0.00366397
0.00363993
0.00366771
0.00366771
0.00357699
0.00359614
0.00360533
0.00356907
0.00356981
0.00357258
0.00357697
0.00359611
0.00360532
0.00356905
0.00359985
0.00359985
0.00359985
0.00355645
0.00355645
0.00355644
0.00355644
0.00357449
0.00360031
0.00360025
0.00358332
0.00360334
0.00357339
0.0035842
0.00356991
0.00357258
0.0035745
0.00360025
0.00360033
0.00358332
0.00360334
0.0035842
0.00357339
0.00360619
0.00360618
0.00357772
0.00357303
0.00357303
0.00353036
0.00354964
0.003551
0.0035289
0.00354855
0.00352846
0.00353036
0.00354963
0.003551
0.00352889
0.00354449
0.00354449
0.00354449
0.0035069
0.0035069
0.0035069
0.0035069
0.00352895
0.00354971
0.00354449
0.00353262
0.0035485
0.00352949
0.00353235
0.00354854
0.00352845
0.00352895
0.00354449
0.00354971
0.00353262
0.0035485
0.00353235
0.00352948
0.00355073
0.00355073
0.00352917
0.00352982
0.00352982
0.0034781
0.0034969
0.00349797
0.00347707
0.00349654
0.00347679
0.0034781
0.0034969
0.00349797
0.00347707
0.00349374
0.00349374
0.00349374
0.00345436
0.00345436
0.00345436
0.00345436
0.0034772
0.0034973
0.00349362
0.00348057
0.00349674
0.00347756
0.00348048
0.00349654
0.00347679
0.0034772
0.00349362
0.0034973
0.00348057
0.00349674
0.00348048
0.00347756
0.00349754
0.00349754
0.00347719
0.00347762
0.00347762
0.00342557
0.00344423
0.00344509
0.0034248
0.00344402
0.00342462
0.00342557
0.00344423
0.00344509
0.0034248
0.00344136
0.00344136
0.00344136
0.00340273
0.00340273
0.00340273
0.00340273
0.00342506
0.00344463
0.00344132
0.00342842
0.00344435
0.00342525
0.00342838
0.00344402
0.00342462
0.00342506
0.00344132
0.00344463
0.00342842
0.00344435
0.00342838
0.00342525
0.00344467
0.00344467
0.00342511
0.00342518
0.00342518
0.00337438
0.00339273
0.00339336
0.00337382
0.00339259
0.00337368
0.00337438
0.00339273
0.00339336
0.00337382
0.00339001
0.00339001
0.00339001
0.00335238
0.00335238
0.00335238
0.00335238
0.0033741
0.00339308
0.00338999
0.00337738
0.00339291
0.00337421
0.00337735
0.00339258
0.00337368
0.0033741
0.00338999
0.00339308
0.00337738
0.00339291
0.00337735
0.00337421
0.00339307
0.00339307
0.00337418
0.00337412
0.00337412
0.00332473
0.00334268
0.00334314
0.00332434
0.00334257
0.00332421
0.00332473
0.00334268
0.00334314
0.00332434
0.00334003
0.00334003
0.00334003
0.00330351
0.00330351
0.00330351
0.00330351
0.00332461
0.00334298
0.00334002
0.00332778
0.00334286
0.00332468
0.00332775
0.00334256
0.00332422
0.00332461
0.00334002
0.00334298
0.00332778
0.00334286
0.00332775
0.00332468
0.00334297
0.00334297
0.00332471
0.0033246
0.0033246
0.00327656
0.00329411
0.00329443
0.00327628
0.00329401
0.00327618
0.00327656
0.00329411
0.00329443
0.00327628
0.00329151
0.00329151
0.00329151
0.00325598
0.00325597
0.00325597
0.00325598
0.00327654
0.00329437
0.00329149
0.0032796
0.00329427
0.0032766
0.00327957
0.00329401
0.00327618
0.00327654
0.00329149
0.00329437
0.0032796
0.00329428
0.00327957
0.0032766
0.00329436
0.00329436
0.00327664
0.00327651
0.00327651
0.00322967
0.00324685
0.00324708
0.00322946
0.00324676
0.00322937
0.00322967
0.00324685
0.00324708
0.00322946
0.00324428
0.00324428
0.00324428
0.00320959
0.00320959
0.00320959
0.00320959
0.00322971
0.00324709
0.00324426
0.00323267
0.003247
0.00322976
0.00323264
0.00324676
0.00322937
0.00322971
0.00324426
0.00324709
0.00323267
0.003247
0.00323264
0.00322976
0.00324708
0.00324708
0.0032298
0.00322968
0.00322968
0.00318383
0.0032007
0.00320088
0.00318367
0.00320061
0.00318358
0.00318383
0.0032007
0.00320088
0.00318367
0.00319815
0.00319815
0.00319815
0.00316415
0.00316415
0.00316415
0.00316415
0.00318391
0.00320091
0.00319814
0.00318678
0.00320084
0.00318395
0.00318675
0.00320061
0.00318358
0.00318391
0.00319814
0.00320091
0.00318678
0.00320084
0.00318675
0.00318395
0.00320091
0.00320091
0.00318399
0.00318386
0.00318386
0.00313884
0.00315544
0.00315559
0.00313871
0.00315536
0.00313862
0.00313884
0.00315544
0.00315559
0.00313871
0.00315292
0.00315292
0.00315292
0.00311947
0.00311947
0.00311947
0.00311947
0.00313894
0.00315565
0.00315291
0.00314175
0.00315558
0.00313899
0.00314172
0.00315536
0.00313862
0.00313894
0.00315291
0.00315565
0.00314175
0.00315558
0.00314172
0.00313898
0.00315564
0.00315564
0.003139
0.00313889
0.00313889
0.00309454
0.00311091
0.00311105
0.00309441
0.00311083
0.00309433
0.00309454
0.00311091
0.00311105
0.00309441
0.00310841
0.00310841
0.0031084
0.00307542
0.00307542
0.00307542
0.00307542
0.00309466
0.00311111
0.0031084
0.00309739
0.00311106
0.00309468
0.00309737
0.00311083
0.00309433
0.00309466
0.0031084
0.00311111
0.0030974
0.00311106
0.00309737
0.00309469
0.00311109
0.00311109
0.0030947
0.00309457
0.00309457
0.0030508
0.00306698
0.0030671
0.00305067
0.0030669
0.00305059
0.0030508
0.00306698
0.0030671
0.00305067
0.0030645
0.0030645
0.0030645
0.00303191
0.00303191
0.00303191
0.00303191
0.00305094
0.00306717
0.0030645
0.00305363
0.00306714
0.00305095
0.0030536
0.0030669
0.00305059
0.00305094
0.0030645
0.00306717
0.00305363
0.00306714
0.0030536
0.00305095
0.00306714
0.00306714
0.00305095
0.00305082
0.00305082
0.00300755
0.00302355
0.00302368
0.00300743
0.00302348
0.00300736
0.00300755
0.00302355
0.00302368
0.00300743
0.0030211
0.0030211
0.00302111
0.00298887
0.00298887
0.00298886
0.00298887
0.00300772
0.00302374
0.00302111
0.00301035
0.00302373
0.0030077
0.00301033
0.00302348
0.00300736
0.00300772
0.00302111
0.00302374
0.00301035
0.00302373
0.00301034
0.0030077
0.0030237
0.0030237
0.0030077
0.00300756
0.00300756
0.00296476
0.00298059
0.00298072
0.00296463
0.00298053
0.00296457
0.00296476
0.00298059
0.00298072
0.00296463
0.00297818
0.00297818
0.00297818
0.00294626
0.00294627
0.00294627
0.00294627
0.00296495
0.00298077
0.00297818
0.00296753
0.00298079
0.0029649
0.00296752
0.00298053
0.00296457
0.00296495
0.00297818
0.00298077
0.00296752
0.00298079
0.00296752
0.0029649
0.00298073
0.00298073
0.00296493
0.00296476
0.00296476
0.00292239
0.00293807
0.0029382
0.00292227
0.00293802
0.00292222
0.00292239
0.00293807
0.0029382
0.00292227
0.00293568
0.00293568
0.00293568
0.00290408
0.00290407
0.00290407
0.00290407
0.0029226
0.00293824
0.00293569
0.00292513
0.00293828
0.00292253
0.00292513
0.00293801
0.00292221
0.0029226
0.00293569
0.00293824
0.00292514
0.00293828
0.00292513
0.00292253
0.00293819
0.00293819
0.00292258
0.00292238
0.00292238
0.00288042
0.00289596
0.00289608
0.0028803
0.0028959
0.00288025
0.00288042
0.00289596
0.00289608
0.0028803
0.00289359
0.00289359
0.00289359
0.00286228
0.00286228
0.00286228
0.00286228
0.00288066
0.00289611
0.0028936
0.00288313
0.00289619
0.00288055
0.00288314
0.0028959
0.00288025
0.00288066
0.0028936
0.00289611
0.00288312
0.00289619
0.00288314
0.00288055
0.00289607
0.00289607
0.00288061
0.0028804
0.0028804
0.00283883
0.00285423
0.00285434
0.00283871
0.00285418
0.00283867
0.00283883
0.00285423
0.00285434
0.00283871
0.00285189
0.00285188
0.00285189
0.00282084
0.00282084
0.00282084
0.00282084
0.00283908
0.00285437
0.0028519
0.00284152
0.00285447
0.00283895
0.00284153
0.00285418
0.00283867
0.00283908
0.0028519
0.00285437
0.00284152
0.00285447
0.00284154
0.00283895
0.00285433
0.00285433
0.00283903
0.0028388
0.0028388
0.00279758
0.00281286
0.00281297
0.00279747
0.00281282
0.00279744
0.00279758
0.00281286
0.00281297
0.00279747
0.00281054
0.00281054
0.00281054
0.00277975
0.00277975
0.00277975
0.00277975
0.00279785
0.00281299
0.00281056
0.00280024
0.00281311
0.0027977
0.00280027
0.00281282
0.00279744
0.00279785
0.00281056
0.00281299
0.00280025
0.00281311
0.00280027
0.0027977
0.00281295
0.00281295
0.0027978
0.00279756
0.00279756
0.00275666
0.00277183
0.00277193
0.00275656
0.0027718
0.00275653
0.00275666
0.00277183
0.00277193
0.00275656
0.00276953
0.00276953
0.00276953
0.00273897
0.00273897
0.00273898
0.00273897
0.00275694
0.00277195
0.00276954
0.00275931
0.00277207
0.00275678
0.00275934
0.00277179
0.00275653
0.00275694
0.00276954
0.00277195
0.0027593
0.00277207
0.00275934
0.00275677
0.00277191
0.00277191
0.0027569
0.00275663
0.00275663
0.00271605
0.00273111
0.0027312
0.00271596
0.00273108
0.00271593
0.00271605
0.00273111
0.0027312
0.00271596
0.00272883
0.00272883
0.00272883
0.0026985
0.0026985
0.0026985
0.0026985
0.00271632
0.00273121
0.00272884
0.00271868
0.00273134
0.00271616
0.00271871
0.00273109
0.00271592
0.00271633
0.00272884
0.00273121
0.00271868
0.00273134
0.00271871
0.00271616
0.00273119
0.00273119
0.00271629
0.00271601
0.00271601
0.00267572
0.00269069
0.00269077
0.00267563
0.00269065
0.00267561
0.00267572
0.00269069
0.00269077
0.00267563
0.00268842
0.00268842
0.00268842
0.00267599
0.00269077
0.00268842
0.00267832
0.0026909
0.00267582
0.00267835
0.00269066
0.0026756
0.00267599
0.00268842
0.00269077
0.00267833
0.0026909
0.00267835
0.00267582
0.00269075
0.00269075
0.00267597
0.00267569
0.00267569
0.00363993
0.00366769
0.00366771
0.00363206
0.00366723
0.00363203
0.00366725
0.00363678
0.00362384
0.00362385
0.00366251
0.00366252
0.00364856
0.00363536
0.00366395
0.0036294
0.00364856
0.00363536
0.00366396
0.0036294
0.00365308
0.00362413
0.00366436
0.00361893
0.00365308
0.00362411
0.00366436
0.00361894
0.00364416
0.00363288
0.0036153
0.00361571
0.00365923
0.00362784
0.00361593
0.00364416
0.00363288
0.0036153
0.00361571
0.00365923
0.00362784
0.00361593
0.00363992
0.0036677
0.00366771
0.00363202
0.00366723
0.00363678
0.00362383
0.00362385
0.00366251
0.00366251
0.00363205
0.00366724
0.00364858
0.00363536
0.00366397
0.00362941
0.00364858
0.00363536
0.00362941
0.00366397
0.0036531
0.00362412
0.00366438
0.00361895
0.00364418
0.00363288
0.0036153
0.00361571
0.00365924
0.00362785
0.00361594
0.0036531
0.00362413
0.00366437
0.00361894
0.00364418
0.00363289
0.00361571
0.00361531
0.00362785
0.00365924
0.00361594
0.00362163
0.00363139
0.00362619
0.0036262
0.00362163
0.0036314
0.0036262
0.0036262
0.00362163
0.0036314
0.0036262
0.0036262
0.0036204
0.00362948
0.00361236
0.00361237
0.00362476
0.00362476
0.00361054
0.0036204
0.00362948
0.00361236
0.00361236
0.00362476
0.00362476
0.00361054
0.0036204
0.00362948
0.00361237
0.00361237
0.00362476
0.00362476
0.00361054
0.0036204
0.00362948
0.00361237
0.00361237
0.00362476
0.00362476
0.00361054
0.00364858
0.00363536
0.00362941
0.00366396
0.00364418
0.00363288
0.0036153
0.00361571
0.00365924
0.00362784
0.00361594
0.0036531
0.00362412
0.00366437
0.00361894
0.00364418
0.00363289
0.00361571
0.00361531
0.00362785
0.00365924
0.00361593
0.0036531
0.00362412
0.00366437
0.00361893
0.00363993
0.00366771
0.00366771
0.003632
0.00366724
0.00363678
0.00362384
0.00362384
0.00366252
0.00366252
0.003632
0.00366724
0.00364858
0.00363536
0.00362941
0.00366397
0.00364418
0.00363289
0.00361571
0.00361531
0.00362785
0.00365924
0.00361594
0.00364418
0.00363289
0.00361571
0.00361531
0.00362785
0.00365924
0.00361594
0.0036531
0.00362412
0.00366437
0.00361894
0.0036531
0.00362414
0.00366438
0.00361895
0.00363678
0.00362384
0.00362385
0.00366252
0.00366252
0.00363201
0.00366724
0.00363203
0.00366725
0.0035698
0.00357257
0.00356991
0.00357255
0.00360615
0.00360619
0.00357773
0.00357303
0.00357303
0.00355532
0.00357222
0.00355532
0.00357223
0.00357107
0.00355792
0.00355792
0.00357118
0.00357118
0.00357699
0.00359612
0.00360533
0.00356907
0.00357451
0.00360032
0.00360025
0.00358331
0.00360334
0.0035734
0.0035842
0.00357451
0.00360032
0.00360025
0.00358331
0.00360334
0.0035734
0.0035842
0.00357244
0.00355705
0.00356997
0.0035578
0.00357244
0.00355705
0.00356997
0.0035578
0.00356949
0.00356901
0.00355674
0.00355649
0.00357056
0.00356942
0.00355508
0.00356948
0.00356901
0.00355674
0.00355649
0.00357056
0.00356942
0.00355508
0.00360614
0.00360619
0.00357774
0.00357303
0.00357303
0.00356996
0.00357256
0.00355532
0.00357223
0.00357107
0.00355792
0.00355792
0.00357118
0.00357118
0.00355531
0.00357223
0.00357449
0.00360032
0.00360025
0.00358332
0.00360334
0.00357339
0.0035842
0.00357697
0.00359613
0.00360531
0.00356907
0.0035745
0.00360025
0.00360032
0.00358331
0.00360334
0.0035842
0.0035734
0.00357243
0.00355705
0.00356997
0.0035578
0.00356947
0.00356901
0.00355674
0.00355649
0.00357055
0.00356942
0.00355508
0.00357244
0.00355704
0.00356998
0.0035578
0.00356948
0.00356901
0.00355649
0.00355673
0.00356942
0.00357056
0.00355508
0.00357697
0.00359612
0.00360532
0.00356906
0.0035745
0.00360025
0.00360033
0.00358331
0.00360334
0.0035842
0.00357339
0.00357697
0.00359614
0.00360531
0.00356906
0.00356947
0.00356901
0.00355673
0.00355649
0.00357055
0.00356942
0.00355508
0.00357243
0.00355705
0.00356996
0.0035578
0.00356948
0.00356901
0.00355649
0.00355674
0.00356942
0.00357055
0.00355508
0.00357244
0.00355705
0.00356996
0.0035578
0.00360618
0.00360619
0.00357772
0.00357303
0.00357303
0.00356992
0.00357256
0.00355531
0.00357224
0.00357107
0.00355792
0.00355793
0.00357118
0.00357117
0.00355532
0.0035722
0.00357449
0.00360025
0.00360032
0.00358332
0.00360334
0.0035842
0.00357339
0.00357697
0.00359614
0.00360531
0.00356905
0.00357697
0.00359613
0.00360531
0.00356906
0.00356948
0.00356901
0.00355648
0.00355673
0.00356942
0.00357055
0.00355508
0.00356947
0.00356901
0.00355648
0.00355673
0.00356942
0.00357055
0.00355507
0.00357244
0.00355705
0.00356997
0.0035578
0.00357243
0.00355705
0.00356996
0.00355779
0.00356994
0.00357256
0.00356994
0.00357256
0.00357107
0.00355793
0.00355792
0.00357118
0.00357118
0.00355533
0.00357221
0.00355531
0.00357222
0.00354855
0.00352845
0.00354854
0.00352845
0.00355073
0.00355073
0.00352917
0.00352982
0.00352982
0.00350307
0.00352203
0.00350307
0.00352202
0.00352238
0.00350414
0.00350414
0.00352336
0.00352336
0.00353036
0.00354964
0.003551
0.0035289
0.00352895
0.00354972
0.00354449
0.00353262
0.0035485
0.00352949
0.00353235
0.00352895
0.00354972
0.00354449
0.00353263
0.0035485
0.00352949
0.00353235
0.00352383
0.00350347
0.00352252
0.00350457
0.00352383
0.00350347
0.00352252
0.00350457
0.00352241
0.00351986
0.00350394
0.00350674
0.00352304
0.00351973
0.00350341
0.00352241
0.00351986
0.00350394
0.00350674
0.00352304
0.00351973
0.00350341
0.00355073
0.00355073
0.00352917
0.00352982
0.00352982
0.00354855
0.00352846
0.00350307
0.00352203
0.00352238
0.00350414
0.00350414
0.00352336
0.00352336
0.00350307
0.00352203
0.00352894
0.00354971
0.00354449
0.00353262
0.0035485
0.00352948
0.00353235
0.00353036
0.00354963
0.003551
0.00352889
0.00352894
0.00354449
0.00354971
0.00353262
0.0035485
0.00353235
0.00352948
0.00352383
0.00350347
0.00352252
0.00350457
0.00352241
0.00351986
0.00350394
0.00350674
0.00352304
0.00351972
0.00350341
0.00352383
0.00350347
0.00352252
0.00350457
0.00352241
0.00351986
0.00350674
0.00350394
0.00351972
0.00352303
0.00350341
0.00353036
0.00354964
0.003551
0.0035289
0.00352895
0.00354449
0.00354971
0.00353262
0.0035485
0.00353235
0.00352948
0.00353036
0.00354964
0.003551
0.00352889
0.00352241
0.00351986
0.00350394
0.00350674
0.00352304
0.00351973
0.00350341
0.00352383
0.00350347
0.00352252
0.00350457
0.00352241
0.00351986
0.00350674
0.00350394
0.00351973
0.00352304
0.00350341
0.00352383
0.00350347
0.00352252
0.00350457
0.00355073
0.00355073
0.00352917
0.00352982
0.00352982
0.00354855
0.00352845
0.00350307
0.00352202
0.00352238
0.00350414
0.00350414
0.00352336
0.00352336
0.00350307
0.00352203
0.00352895
0.00354449
0.00354971
0.00353262
0.0035485
0.00353235
0.00352949
0.00353036
0.00354963
0.003551
0.0035289
0.00353036
0.00354963
0.003551
0.0035289
0.00352241
0.00351986
0.00350674
0.00350394
0.00351973
0.00352304
0.00350341
0.00352241
0.00351986
0.00350674
0.00350394
0.00351973
0.00352304
0.00350341
0.00352383
0.00350347
0.00352252
0.00350457
0.00352383
0.00350347
0.00352252
0.00350457
0.00354855
0.00352845
0.00354854
0.00352846
0.00352238
0.00350414
0.00350414
0.00352336
0.00352336
0.00350307
0.00352202
0.00350307
0.00352203
0.00349654
0.00347679
0.00349654
0.00347679
0.00349754
0.00349754
0.00347719
0.00347762
0.00347762
0.00345056
0.00347016
0.00345056
0.00347016
0.00347024
0.00345124
0.00345124
0.00347096
0.00347096
0.0034781
0.0034969
0.00349797
0.00347707
0.0034772
0.0034973
0.00349362
0.00348057
0.00349674
0.00347756
0.00348048
0.0034772
0.0034973
0.00349362
0.00348057
0.00349674
0.00347756
0.00348048
0.00347142
0.00345078
0.00347043
0.00345168
0.00347142
0.00345078
0.00347043
0.00345168
0.00347048
0.00346746
0.00345126
0.00345432
0.00347086
0.00346738
0.003451
0.00347048
0.00346746
0.00345126
0.00345432
0.00347086
0.00346738
0.003451
0.00349754
0.00349754
0.00347719
0.00347762
0.00347763
0.00349654
0.00347679
0.00345056
0.00347016
0.00347024
0.00345124
0.00345124
0.00347096
0.00347096
0.00345056
0.00347017
0.0034772
0.0034973
0.00349362
0.00348057
0.00349674
0.00347756
0.00348048
0.0034781
0.0034969
0.00349797
0.00347707
0.0034772
0.00349362
0.0034973
0.00348057
0.00349674
0.00348048
0.00347756
0.00347142
0.00345078
0.00347043
0.00345168
0.00347048
0.00346746
0.00345126
0.00345432
0.00347086
0.00346738
0.003451
0.00347142
0.00345078
0.00347043
0.00345168
0.00347048
0.00346746
0.00345432
0.00345126
0.00346738
0.00347086
0.003451
0.0034781
0.0034969
0.00349797
0.00347707
0.0034772
0.00349362
0.0034973
0.00348057
0.00349674
0.00348048
0.00347756
0.0034781
0.0034969
0.00349797
0.00347707
0.00347048
0.00346746
0.00345126
0.00345432
0.00347086
0.00346738
0.003451
0.00347142
0.00345078
0.00347043
0.00345168
0.00347048
0.00346746
0.00345432
0.00345126
0.00346738
0.00347086
0.003451
0.00347142
0.00345078
0.00347043
0.00345168
0.00349754
0.00349754
0.00347719
0.00347762
0.00347762
0.00349654
0.00347679
0.00345056
0.00347016
0.00347024
0.00345124
0.00345124
0.00347096
0.00347096
0.00345056
0.00347016
0.0034772
0.00349362
0.0034973
0.00348057
0.00349674
0.00348048
0.00347756
0.0034781
0.0034969
0.00349797
0.00347707
0.0034781
0.0034969
0.00349797
0.00347707
0.00347048
0.00346746
0.00345432
0.00345126
0.00346738
0.00347086
0.003451
0.00347048
0.00346746
0.00345432
0.00345126
0.00346738
0.00347086
0.003451
0.00347142
0.00345078
0.00347043
0.00345168
0.00347142
0.00345078
0.00347043
0.00345168
0.00349654
0.00347679
0.00349654
0.00347679
0.00347024
0.00345124
0.00345124
0.00347096
0.00347096
0.00345056
0.00347016
0.00345056
0.00347016
0.00344402
0.00342462
0.00344402
0.00342462
0.00344467
0.00344467
0.00342511
0.00342518
0.00342518
0.00339898
0.00341814
0.00339897
0.00341815
0.0034183
0.00339946
0.00339946
0.0034187
0.0034187
0.00342557
0.00344423
0.00344509
0.0034248
0.00342506
0.00344463
0.00344132
0.00342842
0.00344435
0.00342525
0.00342838
0.00342506
0.00344463
0.00344132
0.00342842
0.00344435
0.00342525
0.00342838
0.00341906
0.00339913
0.00341832
0.00339978
0.00341906
0.00339913
0.00341832
0.00339978
0.00341848
0.00341554
0.00339955
0.00340271
0.00341869
0.00341551
0.00339941
0.00341848
0.00341554
0.00339955
0.00340271
0.00341869
0.00341551
0.00339941
0.00344467
0.00344467
0.00342511
0.00342519
0.00342519
0.00344402
0.00342462
0.00339898
0.00341815
0.0034183
0.00339946
0.00339946
0.0034187
0.0034187
0.00339897
0.00341815
0.00342506
0.00344463
0.00344132
0.00342842
0.00344435
0.00342525
0.00342838
0.00342557
0.00344423
0.00344509
0.0034248
0.00342506
0.00344132
0.00344463
0.00342842
0.00344435
0.00342838
0.00342525
0.00341906
0.00339913
0.00341831
0.00339978
0.00341848
0.00341554
0.00339955
0.00340271
0.00341869
0.00341551
0.00339941
0.00341906
0.00339913
0.00341831
0.00339978
0.00341848
0.00341554
0.00340271
0.00339955
0.00341551
0.00341869
0.00339941
0.00342557
0.00344423
0.00344509
0.0034248
0.00342506
0.00344132
0.00344463
0.00342842
0.00344435
0.00342838
0.00342525
0.00342557
0.00344423
0.00344509
0.0034248
0.00341848
0.00341554
0.00339955
0.00340271
0.00341869
0.00341551
0.00339941
0.00341906
0.00339913
0.00341832
0.00339978
0.00341848
0.00341554
0.00340271
0.00339955
0.00341551
0.00341869
0.00339941
0.00341906
0.00339913
0.00341832
0.00339978
0.00344467
0.00344467
0.00342511
0.00342518
0.00342518
0.00344402
0.00342462
0.00339897
0.00341815
0.0034183
0.00339946
0.00339946
0.0034187
0.0034187
0.00339897
0.00341815
0.00342506
0.00344132
0.00344463
0.00342842
0.00344435
0.00342838
0.00342525
0.00342557
0.00344423
0.00344509
0.0034248
0.00342557
0.00344423
0.00344509
0.0034248
0.00341848
0.00341554
0.00340271
0.00339955
0.00341551
0.00341869
0.00339941
0.00341848
0.00341554
0.00340271
0.00339955
0.00341551
0.00341869
0.00339941
0.00341906
0.00339913
0.00341831
0.00339978
0.00341906
0.00339913
0.00341831
0.00339978
0.00344402
0.00342462
0.00344402
0.00342462
0.0034183
0.00339946
0.00339946
0.0034187
0.0034187
0.00339898
0.00341815
0.00339898
0.00341815
0.00339258
0.00337368
0.00339258
0.00337368
0.00339307
0.00339307
0.00337418
0.00337412
0.00337412
0.00334877
0.00336739
0.00334877
0.00336739
0.00336758
0.00334917
0.00334917
0.00336782
0.00336782
0.00337438
0.00339273
0.00339336
0.00337382
0.0033741
0.00339308
0.00338999
0.00337738
0.00339291
0.00337421
0.00337735
0.0033741
0.00339308
0.00338999
0.00337738
0.00339291
0.00337421
0.00337735
0.00336805
0.00334889
0.00336751
0.00334936
0.00336805
0.00334889
0.00336751
0.00334936
0.0033677
0.00336484
0.00334926
0.00335237
0.00336784
0.00336482
0.00334918
0.0033677
0.00336484
0.00334926
0.00335237
0.00336784
0.00336482
0.00334918
0.00339307
0.00339307
0.00337418
0.00337412
0.00337412
0.00339258
0.00337369
0.00334877
0.00336738
0.00336758
0.00334917
0.00334917
0.00336782
0.00336782
0.00334877
0.00336739
0.0033741
0.00339308
0.00338999
0.00337738
0.00339291
0.00337421
0.00337735
0.00337438
0.00339273
0.00339336
0.00337382
0.0033741
0.00338999
0.00339308
0.00337738
0.00339291
0.00337735
0.00337421
0.00336805
0.00334889
0.00336751
0.00334936
0.0033677
0.00336484
0.00334926
0.00335237
0.00336784
0.00336482
0.00334917
0.00336805
0.00334889
0.00336751
0.00334936
0.0033677
0.00336485
0.00335237
0.00334926
0.00336482
0.00336784
0.00334918
0.00337438
0.00339273
0.00339336
0.00337382
0.0033741
0.00338999
0.00339308
0.00337738
0.00339291
0.00337735
0.00337421
0.00337438
0.00339273
0.00339336
0.00337382
0.0033677
0.00336484
0.00334926
0.00335237
0.00336784
0.00336482
0.00334918
0.00336805
0.00334889
0.00336751
0.00334936
0.0033677
0.00336484
0.00335237
0.00334926
0.00336481
0.00336784
0.00334918
0.00336805
0.00334889
0.00336751
0.00334936
0.00339307
0.00339307
0.00337418
0.00337412
0.00337412
0.00339258
0.00337368
0.00334877
0.00336739
0.00336758
0.00334917
0.00334917
0.00336782
0.00336782
0.00334877
0.00336739
0.0033741
0.00338999
0.00339308
0.00337738
0.00339291
0.00337735
0.00337421
0.00337437
0.00339273
0.00339336
0.00337382
0.00337438
0.00339273
0.00339336
0.00337382
0.0033677
0.00336484
0.00335237
0.00334926
0.00336482
0.00336784
0.00334917
0.0033677
0.00336484
0.00335237
0.00334926
0.00336482
0.00336784
0.00334917
0.00336805
0.00334889
0.00336751
0.00334936
0.00336805
0.00334889
0.00336751
0.00334936
0.00339258
0.00337369
0.00339258
0.00337369
0.00336758
0.00334917
0.00334917
0.00336782
0.00336782
0.00334877
0.00336739
0.00334877
0.00336739
0.00334256
0.00332422
0.00334256
0.00332422
0.00334297
0.00334297
0.0033247
0.0033246
0.0033246
0.00330003
0.00331811
0.00330003
0.00331811
0.00331831
0.00330039
0.00330039
0.00331849
0.00331849
0.00332473
0.00334268
0.00334314
0.00332433
0.00332461
0.00334298
0.00334002
0.00332778
0.00334286
0.00332468
0.00332775
0.00332461
0.00334298
0.00334002
0.00332778
0.00334286
0.00332468
0.00332775
0.0033186
0.00330014
0.00331822
0.00330047
0.0033186
0.00330014
0.00331821
0.00330047
0.00331839
0.00331561
0.00330047
0.00330349
0.00331849
0.00331558
0.00330041
0.00331839
0.00331561
0.00330047
0.00330349
0.00331849
0.00331558
0.00330041