/*--------------------------------*- C++ -*----------------------------------*\
| =========                 |                                                 |
| \\      /  F ield         | OpenFOAM: The Open Source CFD Toolbox           |
|  \\    /   O peration     | Version:  v1906                                 |
|   \\  /    A nd           | Web:      www.OpenFOAM.com                      |
|    \\/     M anipulation  |                                                 |
\*---------------------------------------------------------------------------*/
FoamFile
{
    version     2.0;
    format      ascii;
    class       volScalarField;
    location    "375";
    object      p;
}
// * * * * * * * * * * * * * * * * * * * * * * * * * * * * * * * * * * * * * //

dimensions      [0 2 -2 0 0 0 0];


internalField   nonuniform List<scalar> 
42840
(
0.000780586
0.000780541
0.000780541
0.000782554
0.000747077
0.000782557
0.000751907
0.000780542
0.000780541
0.000753966
0.000753968
0.000782555
0.000751911
0.000780542
0.000780542
0.000753966
0.000753966
0.00078054
0.00075397
0.000753971
0.000782556
0.000751908
0.00078054
0.000753968
0.00075397
0.000751912
0.000745074
0.000745074
0.000769499
0.00078277
0.00076949
0.000782754
0.000782772
0.000769489
0.000769498
0.00078277
0.00076949
0.000782755
0.000780584
0.000780585
0.000780582
0.000754057
0.000754057
0.000754057
0.000754057
0.000769547
0.000782722
0.000780556
0.000771692
0.000769521
0.000771709
0.000782683
0.000782771
0.000769486
0.000769547
0.000780556
0.000782722
0.000771693
0.000771709
0.00076952
0.000782684
0.000782764
0.000782764
0.000769665
0.000769485
0.000769485
0.000747236
0.000747236
0.000782771
0.000769486
0.000782772
0.000769486
0.000782765
0.000782765
0.000769665
0.00076948
0.00076948
0.000751706
0.000765014
0.000751706
0.000765015
0.000764856
0.000751694
0.000751694
0.000765013
0.000765013
0.000769499
0.00078277
0.000769492
0.000782754
0.000769546
0.000782723
0.000780558
0.000771693
0.000769518
0.000771711
0.000782686
0.000769546
0.000782723
0.000780557
0.000771692
0.00076952
0.000771711
0.000782685
0.000765028
0.000751705
0.00076502
0.000751711
0.000765028
0.000751705
0.000765022
0.000751711
0.000764977
0.000762841
0.00075173
0.000754
0.000764988
0.000762863
0.00075178
0.000764977
0.000762841
0.000751731
0.000754
0.000764991
0.000762863
0.00075178
0.000782764
0.000782764
0.000769666
0.000769483
0.000769483
0.000782771
0.00076949
0.000751707
0.000765017
0.000764857
0.000751695
0.000751696
0.000765016
0.000765016
0.000751708
0.000765019
0.000769546
0.000782723
0.000780558
0.000771693
0.000769518
0.000771711
0.000782686
0.000769498
0.00078277
0.000769489
0.000782755
0.000769546
0.000780558
0.000782724
0.000771693
0.000771711
0.000769518
0.000782686
0.000765027
0.000751705
0.000765019
0.00075171
0.000764976
0.00076284
0.000751729
0.000753999
0.000764988
0.000762863
0.000751779
0.000765027
0.000751705
0.000765019
0.00075171
0.000764976
0.00076284
0.000753999
0.00075173
0.000762863
0.000764988
0.000751778
0.000769501
0.000782769
0.000769494
0.000782753
0.000769547
0.000780555
0.000782721
0.000771692
0.000771709
0.000769522
0.000782683
0.000769501
0.000782769
0.000769495
0.000782753
0.000764979
0.000762841
0.000751733
0.000754002
0.000764993
0.000762862
0.000751784
0.000765032
0.000751707
0.000765024
0.000751714
0.000764979
0.000762841
0.000754002
0.000751733
0.000762862
0.000764994
0.000751784
0.000765032
0.000751707
0.000765025
0.000751714
0.000782764
0.000782764
0.000769666
0.00076948
0.000769482
0.000782771
0.000769489
0.000751707
0.000765015
0.000764857
0.000751695
0.000751695
0.000765013
0.000765016
0.000751707
0.000765017
0.000769547
0.000780556
0.000782722
0.000771692
0.000771709
0.000769522
0.000782684
0.000769501
0.00078277
0.000769493
0.000782753
0.000769501
0.000782769
0.000769494
0.000782754
0.000764978
0.000762841
0.000754001
0.000751732
0.000762862
0.000764992
0.000751783
0.000764979
0.000762841
0.000754001
0.000751733
0.000762862
0.000764994
0.000751783
0.000765031
0.000751706
0.000765023
0.000751714
0.000765031
0.000751707
0.000765024
0.000751714
0.000782771
0.000769491
0.000782771
0.000769491
0.000764858
0.000751697
0.000751697
0.000765019
0.000765018
0.000751708
0.00076502
0.000751709
0.000765019
0.000745117
0.000747202
0.000747195
0.000747241
0.000747234
0.000747201
0.000747241
0.000747241
0.000747241
0.000773915
0.000769495
0.000769498
0.000773902
0.000773916
0.000773904
0.000769495
0.000778371
0.000778366
0.000782763
0.000778357
0.000782768
0.000773904
0.000769486
0.000773907
0.000773904
0.000769496
0.000778365
0.000778361
0.000782772
0.000782757
0.000778363
0.000778362
0.000782772
0.000778368
0.000773904
0.000773915
0.000769497
0.000769494
0.000773902
0.000773904
0.000773916
0.000769495
0.000778373
0.000778366
0.000782763
0.000778357
0.000782769
0.000773906
0.000769486
0.000773908
0.000773904
0.000769498
0.000778365
0.000778361
0.000782758
0.000782772
0.000778361
0.000778363
0.000782773
0.000778366
0.000773902
0.000773909
0.000769487
0.000769487
0.000773904
0.000773904
0.000769481
0.000778375
0.000782746
0.000778356
0.000782768
0.000778361
0.000778364
0.000782755
0.000778375
0.000782747
0.000778356
0.000782769
0.000778361
0.000778364
0.000782755
0.000773905
0.000769486
0.000773906
0.000769507
0.000773902
0.000773905
0.000769508
0.000773905
0.000769486
0.000773906
0.000769507
0.000773902
0.000773905
0.000769508
0.00077836
0.000782772
0.000782772
0.000778365
0.000778365
0.000782773
0.000742822
0.000747228
0.000747239
0.000742815
0.000747222
0.000742819
0.000742823
0.000742822
0.000747229
0.000747239
0.000742815
0.000747222
0.000742819
0.000742823
0.000742812
0.000747241
0.000747241
0.000747237
0.000742828
0.000742828
0.000778367
0.000773902
0.000778367
0.000773902
0.000773905
0.000769482
0.000769482
0.000773901
0.000773901
0.000769475
0.000778375
0.000782749
0.000778356
0.000782769
0.000778362
0.000778362
0.000782757
0.000778375
0.000782749
0.000778356
0.000782769
0.000778362
0.000778362
0.000782757
0.000773902
0.000769481
0.000773903
0.000769504
0.000773901
0.000769503
0.000773901
0.000773902
0.000769481
0.000773903
0.000769504
0.000773901
0.000769502
0.000773901
0.000778359
0.000782772
0.000782772
0.000778363
0.000778363
0.000782774
0.000756123
0.000760594
0.000756123
0.000760594
0.000760579
0.000765012
0.000765012
0.000765012
0.00076059
0.00076059
0.000756112
0.000751709
0.000756119
0.0007517
0.00075612
0.000756124
0.000751706
0.000756111
0.000751709
0.000756119
0.0007517
0.00075612
0.000756124
0.000751706
0.000760603
0.000765011
0.000765026
0.000760584
0.000765012
0.000760588
0.000760611
0.000760602
0.000765011
0.000765026
0.000760584
0.000765011
0.000760588
0.000760611
0.000756119
0.000751704
0.000751704
0.000756122
0.000756122
0.000751691
0.000773916
0.000769495
0.000769499
0.000773902
0.000773916
0.000773904
0.000769496
0.000778373
0.000778366
0.000782763
0.000778357
0.000782769
0.000773907
0.000769488
0.000773909
0.000773905
0.000769499
0.000778365
0.000778361
0.000782772
0.000782757
0.000778363
0.000778361
0.000782772
0.000760601
0.000765033
0.000765026
0.000760612
0.000765031
0.000760601
0.000760608
0.000756127
0.000756126
0.0007517
0.000751714
0.000756124
0.000760605
0.00076502
0.000760596
0.000765021
0.000760593
0.000756135
0.00075613
0.000751706
0.000751708
0.000751706
0.000756136
0.000756128
0.000760602
0.000765033
0.000765028
0.000760613
0.000765032
0.000760601
0.000760609
0.000756128
0.000756127
0.0007517
0.000756125
0.000751714
0.000760606
0.000765023
0.000760598
0.000765022
0.000760595
0.000756135
0.00075613
0.000751706
0.000751709
0.000756136
0.000756129
0.000751706
0.000773908
0.000769485
0.000769485
0.000773903
0.000773903
0.000769479
0.000778375
0.000782748
0.000778356
0.000782769
0.000778363
0.000778362
0.000782756
0.000778375
0.000782747
0.000778356
0.000782769
0.000778362
0.000778363
0.000782756
0.000773904
0.000769484
0.000773904
0.000769506
0.000773903
0.000773902
0.000769506
0.000773904
0.000769485
0.000773904
0.000769506
0.000773902
0.000773904
0.000769506
0.00077836
0.000782772
0.000782772
0.000778365
0.000778365
0.000782773
0.000778367
0.000773905
0.000756125
0.000760597
0.000760582
0.000765015
0.000765015
0.000765016
0.000760593
0.000760593
0.000756114
0.000751712
0.000756121
0.000751701
0.000756127
0.000756122
0.000751708
0.000756115
0.000751712
0.000756122
0.000751702
0.000756123
0.000756128
0.000751709
0.000760606
0.000765014
0.00076503
0.000760587
0.000760616
0.000765016
0.00076059
0.000760607
0.000765015
0.00076503
0.000760588
0.000765016
0.000760591
0.000760616
0.000756122
0.000751705
0.000751706
0.000756124
0.000756124
0.000751692
0.000756126
0.000760598
0.000773915
0.000769494
0.000769498
0.000773902
0.000773915
0.000773903
0.000769494
0.000778371
0.000778365
0.000782763
0.000778357
0.000782768
0.000773904
0.000769486
0.000773907
0.000773903
0.000769496
0.000778365
0.000778361
0.000782772
0.000782758
0.000778363
0.000778362
0.000782773
0.0007606
0.000765026
0.000765032
0.000760611
0.000765031
0.000760607
0.0007606
0.000756126
0.000756125
0.000751699
0.000751714
0.000756124
0.000760604
0.00076502
0.000760596
0.00076502
0.000760593
0.000756134
0.000756129
0.000751708
0.000751705
0.000751705
0.000756128
0.000756135
0.0007606
0.000765032
0.000765025
0.000760611
0.00076503
0.0007606
0.000760607
0.000756127
0.000756125
0.0007517
0.000756124
0.000751714
0.000760605
0.000765019
0.000760596
0.00076502
0.000760593
0.000756134
0.000756129
0.000751705
0.000751708
0.000756135
0.000756127
0.000751706
0.000773917
0.0007695
0.000769498
0.000773903
0.000773905
0.000773917
0.000769498
0.000778373
0.000778366
0.000782762
0.000778357
0.000782768
0.000773908
0.00076949
0.00077391
0.000773906
0.000769501
0.000778364
0.00077836
0.000782756
0.000782771
0.000778361
0.000778363
0.000782771
0.000773917
0.000769498
0.000769501
0.000773903
0.000773917
0.000773905
0.000769499
0.000778373
0.000778366
0.000782762
0.000778357
0.000782768
0.000773909
0.00076949
0.000773911
0.000773906
0.000769502
0.000778364
0.00077836
0.000782771
0.000782755
0.000778362
0.000778361
0.000782771
0.000760605
0.00076503
0.000765037
0.000760616
0.000765036
0.000760613
0.000760605
0.00075613
0.000756129
0.000751702
0.000756128
0.000751716
0.000760608
0.000765025
0.0007606
0.000765024
0.000760597
0.000756138
0.000756134
0.000751711
0.000751707
0.000756132
0.000756139
0.000751708
0.000760606
0.000765037
0.000765031
0.000760617
0.000765036
0.000760605
0.000760613
0.00075613
0.000756129
0.000751702
0.000756128
0.000751716
0.000760609
0.000765026
0.000760601
0.000765025
0.000760598
0.000756138
0.000756134
0.000751708
0.000751712
0.000756139
0.000756133
0.000751708
0.000773906
0.000769483
0.000769483
0.000773901
0.000773902
0.000769476
0.000778375
0.000782749
0.000778356
0.000782769
0.000778362
0.000778363
0.000782756
0.000778375
0.000782748
0.000778356
0.000782769
0.000778362
0.000778363
0.000782757
0.000773902
0.000769481
0.000773902
0.000769504
0.000773901
0.000773901
0.000769503
0.000773903
0.000769483
0.000773904
0.000769505
0.000773901
0.000773902
0.000769504
0.000778359
0.000782771
0.000782771
0.000778363
0.000778364
0.000782773
0.000778368
0.000773904
0.000756124
0.000760595
0.000760581
0.000765013
0.000765013
0.000765014
0.000760591
0.000760592
0.000756112
0.00075171
0.000756119
0.000751701
0.000756124
0.000756121
0.000751707
0.000756113
0.000751711
0.000756121
0.000751702
0.000756122
0.000756126
0.000751708
0.000760604
0.000765012
0.000765026
0.000760585
0.000760612
0.000765012
0.000760588
0.000760605
0.000765013
0.000765028
0.000760586
0.000765014
0.00076059
0.000760614
0.000756121
0.000751705
0.000751705
0.000756123
0.000756123
0.000751691
0.000756125
0.000760597
0.000773917
0.0007695
0.000769497
0.000773903
0.000773905
0.000773917
0.000769498
0.000778373
0.000778367
0.000782763
0.000778357
0.000782768
0.000773908
0.000769489
0.00077391
0.000773906
0.000769501
0.000778365
0.000778361
0.000782756
0.000782771
0.000778361
0.000778363
0.000782772
0.000773917
0.000769501
0.000769497
0.000773903
0.000773905
0.000773917
0.000769498
0.000778372
0.000778366
0.000782762
0.000778358
0.000782768
0.000773907
0.00076949
0.00077391
0.000773906
0.0007695
0.000778365
0.00077836
0.000782756
0.000782771
0.000778362
0.000778363
0.000782771
0.000760604
0.00076503
0.000765036
0.000760616
0.000765035
0.000760612
0.000760604
0.000756129
0.000756128
0.000751701
0.000756127
0.000751715
0.000760607
0.000765024
0.000760599
0.000765024
0.000760596
0.000756137
0.000756133
0.000751711
0.000751707
0.000756131
0.000756138
0.000751708
0.000760605
0.00076503
0.000765036
0.000760616
0.000765035
0.000760613
0.000760604
0.00075613
0.000756129
0.000751703
0.000756128
0.000751716
0.000760609
0.000765024
0.000760601
0.000765025
0.000760597
0.000756138
0.000756134
0.000751711
0.000751707
0.000756132
0.000756138
0.000751708
0.000778368
0.000773906
0.000778369
0.000773906
0.000760585
0.000765017
0.000765017
0.000765018
0.000760595
0.000760595
0.000756117
0.000751714
0.000756123
0.000751703
0.00075171
0.00075613
0.000756124
0.000756117
0.000751714
0.000756123
0.000751703
0.00075171
0.00075613
0.000756124
0.000760609
0.000765016
0.000765032
0.000760589
0.000765018
0.000760618
0.000760593
0.000760609
0.000765016
0.000765032
0.000760589
0.000765018
0.000760618
0.000760592
0.000756123
0.000751707
0.000751707
0.000751693
0.000756125
0.000756125
0.000756127
0.000760599
0.000756127
0.000760599
0.000742834
0.000747238
0.000742825
0.000747242
0.000742819
0.000742824
0.000742821
0.000747247
0.000747234
0.000747247
0.000742823
0.00074282
0.000742825
0.000742828
0.000742828
0.000780608
0.000780608
0.000771737
0.000771748
0.000771748
0.000771791
0.000780672
0.000778444
0.000782667
0.000782668
0.000778512
0.000778438
0.000778438
0.000782653
0.000742908
0.000747171
0.000747171
0.000743008
0.00074714
0.000742914
0.000742914
0.000778446
0.000782669
0.00078267
0.000778514
0.000778439
0.000778439
0.000782655
0.000756033
0.000755975
0.000751811
0.00075181
0.00075607
0.000756071
0.000751798
0.000778445
0.000782668
0.000782668
0.000778513
0.000778439
0.000778439
0.000782654
0.000756037
0.000755979
0.000751815
0.000751815
0.000756074
0.000756076
0.0007518
0.000778446
0.000782669
0.000782669
0.000778513
0.000778438
0.00077844
0.000782655
0.000756035
0.000755977
0.000751812
0.000751812
0.000756071
0.000756074
0.000751799
0.00075604
0.000755981
0.000751817
0.000751816
0.000751802
0.000756078
0.000756078
0.000780607
0.000780606
0.000771735
0.000771747
0.000771745
0.00077179
0.000780672
0.000780608
0.000780606
0.000771736
0.000771748
0.000771745
0.00077179
0.000780672
0.000780605
0.000780606
0.000771733
0.000771744
0.000771744
0.000771789
0.000780672
0.000762902
0.000754071
0.000754071
0.000762908
0.000762909
0.000762927
0.000754078
0.000762899
0.000754071
0.00075407
0.000762907
0.000762905
0.000762926
0.000754077
0.0007629
0.000754071
0.00075407
0.000762908
0.000762905
0.000762927
0.000754078
0.000762898
0.00075407
0.00075407
0.000762904
0.000762905
0.000762925
0.000754077
0.00077381
0.000769547
0.000769584
0.000773836
0.000773842
0.000773812
0.000769597
0.000778421
0.000782734
0.000778383
0.0007827
0.000778384
0.000778393
0.000782667
0.000773817
0.000769539
0.00077387
0.000769532
0.000773886
0.000773854
0.000769568
0.000778452
0.000778399
0.000782688
0.000782665
0.000778399
0.000778439
0.000782661
0.00077381
0.000769584
0.000769547
0.000773837
0.000773812
0.000773842
0.000769597
0.000778421
0.000782735
0.000778383
0.000782701
0.000778384
0.000778394
0.000782667
0.000773817
0.000769539
0.00077387
0.000769531
0.000773886
0.000773854
0.000769568
0.000778452
0.000778399
0.000782666
0.000782689
0.00077844
0.0007784
0.000782662
0.000773808
0.000773709
0.000769589
0.000769589
0.000773822
0.000773822
0.000769592
0.000773808
0.000773709
0.000769588
0.000769588
0.000769589
0.000773822
0.000773822
0.000760698
0.000760801
0.000764964
0.000764964
0.000764935
0.000760713
0.000760713
0.00077381
0.000769546
0.000769583
0.000773837
0.000773843
0.000773812
0.000769597
0.000778421
0.000782736
0.000778384
0.000782703
0.000778395
0.000778384
0.000782669
0.000773818
0.000769538
0.000773869
0.00076953
0.000773855
0.000773887
0.000769567
0.000778453
0.0007784
0.000782691
0.000782666
0.000778401
0.000778441
0.000782663
0.00077381
0.000769546
0.000769583
0.000773837
0.000773842
0.000773812
0.000769597
0.000778421
0.000782734
0.000778384
0.000782701
0.000778394
0.000778384
0.000782667
0.000773817
0.000769539
0.00077387
0.000769531
0.000773854
0.000769568
0.000773886
0.000778453
0.0007784
0.00078269
0.000782666
0.0007784
0.00077844
0.000782663
0.000760725
0.00076498
0.000764949
0.000760675
0.000764947
0.00076067
0.000760714
0.000756071
0.000751746
0.00075609
0.000751755
0.000756125
0.000756089
0.000751799
0.000760695
0.000764985
0.000765022
0.000760625
0.000760648
0.000764956
0.000760654
0.000756066
0.000756093
0.000751773
0.000751829
0.000756091
0.000756071
0.000751835
0.000760726
0.00076498
0.000764949
0.000760676
0.000764947
0.000760672
0.000760714
0.000756073
0.000751749
0.000756092
0.000751756
0.000756092
0.000756128
0.000751802
0.000760697
0.000764987
0.000765023
0.000760628
0.000764957
0.000760657
0.000760652
0.000756067
0.000756093
0.000751774
0.000751829
0.000756093
0.000756072
0.000751837
0.000773809
0.000773709
0.000769589
0.000769589
0.000773822
0.000773822
0.000769591
0.000760703
0.000760804
0.000764966
0.000764967
0.000760717
0.000764939
0.000760717
0.00077381
0.000769546
0.000769583
0.000773837
0.000773843
0.000773812
0.000769596
0.000778422
0.000782736
0.000778384
0.000782702
0.000778395
0.000778385
0.000782669
0.000773818
0.000769538
0.000773869
0.00076953
0.000773854
0.000773886
0.000769568
0.000778453
0.0007784
0.000782691
0.000782668
0.000778401
0.000778441
0.000782663
0.00077381
0.000769583
0.000769546
0.000773837
0.000773812
0.000773843
0.000769597
0.000778421
0.000782736
0.000778384
0.000782703
0.000778395
0.000778385
0.000782668
0.000773817
0.000769538
0.000773869
0.000769531
0.000773855
0.000769567
0.000773886
0.000778454
0.0007784
0.000782667
0.000782691
0.00077844
0.000778401
0.000782664
0.000760724
0.000764979
0.000764949
0.000760674
0.000764946
0.00076067
0.000760713
0.00075607
0.000751746
0.000756089
0.000751755
0.000756125
0.00075609
0.000751801
0.000760695
0.000764985
0.000765021
0.000760625
0.000760648
0.000764956
0.000760654
0.000756064
0.000756092
0.000751773
0.000751827
0.000756091
0.000756071
0.000751834
0.000760725
0.000764949
0.000764979
0.000760674
0.000764947
0.000760713
0.00076067
0.00075607
0.000751747
0.000756089
0.000751754
0.00075609
0.000756126
0.000751799
0.000760694
0.000764984
0.000765022
0.000760625
0.000764956
0.000760654
0.000760649
0.000756065
0.000756092
0.000751828
0.000751772
0.000756071
0.00075609
0.000751835
0.00077381
0.000769583
0.000769547
0.000773836
0.000773812
0.000773842
0.000769598
0.00077842
0.000782733
0.000778383
0.0007827
0.000778383
0.000778393
0.000782666
0.000773817
0.00076954
0.00077387
0.000769531
0.000773886
0.000773854
0.000769568
0.000778452
0.000778398
0.000782665
0.000782688
0.000778439
0.000778399
0.000782662
0.000760728
0.000764982
0.000764951
0.000760678
0.000764948
0.000760674
0.000760717
0.000756074
0.000751751
0.000756094
0.000751759
0.000751804
0.000756131
0.000756094
0.000760699
0.000764988
0.000765027
0.00076063
0.000764957
0.000760654
0.000760659
0.000756069
0.000756097
0.000751777
0.000751832
0.000751839
0.000756096
0.000756075
0.000760729
0.000764951
0.000764982
0.000760678
0.00076495
0.000760716
0.000760675
0.000756077
0.000751752
0.000756095
0.000751759
0.000756095
0.000756132
0.000751805
0.000760699
0.000764989
0.000765027
0.000760631
0.000764959
0.00076066
0.000760655
0.000756071
0.000756097
0.000751832
0.000751778
0.000756075
0.000756096
0.00075184
0.000773809
0.000773709
0.000769589
0.000769588
0.000773822
0.000773822
0.00076959
0.0007607
0.000760802
0.000764964
0.000764966
0.000760714
0.000764937
0.000760715
0.00077381
0.000769584
0.000769548
0.000773837
0.000773812
0.000773842
0.000769597
0.000778421
0.000782733
0.000778383
0.000782701
0.000778383
0.000778394
0.000782666
0.000773818
0.000769541
0.00077387
0.000769532
0.000773886
0.000773855
0.000769569
0.000778452
0.000778399
0.000782666
0.000782689
0.000778439
0.0007784
0.000782662
0.000760727
0.000764951
0.000764982
0.000760678
0.000764948
0.000760716
0.000760674
0.000756073
0.000751749
0.000756093
0.000751758
0.000751803
0.000756129
0.000756093
0.000760698
0.000764988
0.000765023
0.000760629
0.000764958
0.000760652
0.000760658
0.000756068
0.000756096
0.000751831
0.000751776
0.000751838
0.000756075
0.000756095
0.000760728
0.000764951
0.000764982
0.000760678
0.00076495
0.000760716
0.000760674
0.000756076
0.000751752
0.000756095
0.000751759
0.000756094
0.000756131
0.000751805
0.0007607
0.000764989
0.000765026
0.000760631
0.000764959
0.000760659
0.000760655
0.00075607
0.000756096
0.000751831
0.000751777
0.000756075
0.000756095
0.000751838
0.000760705
0.000760805
0.000764968
0.000764968
0.000764941
0.000760719
0.000760719
0.000742904
0.000747228
0.000747194
0.000742845
0.000742852
0.000747175
0.000742864
0.00074294
0.000742883
0.000747183
0.000747194
0.000742935
0.000747174
0.000742878
0.000747227
0.000742845
0.000742852
0.00166909
0.00166901
0.00166901
0.00167108
0.00163311
0.00163302
0.00163302
0.00163509
0.0015972
0.00159711
0.00159711
0.00159917
0.00156136
0.00156126
0.00156126
0.00156331
0.00152558
0.00152547
0.00152547
0.00152752
0.00148985
0.00148973
0.00148974
0.00149178
0.00145417
0.00145405
0.00145405
0.00145609
0.00141854
0.00141842
0.00141842
0.00142045
0.00138296
0.00138283
0.00138283
0.00138486
0.0013474
0.00134728
0.00134728
0.0013493
0.00131189
0.00131176
0.00131176
0.00131378
0.0012764
0.00127627
0.00127627
0.00127829
0.00124093
0.00124081
0.00124081
0.00124283
0.00120549
0.00120537
0.00120537
0.00120738
0.00117007
0.00116995
0.00116995
0.00117196
0.00113466
0.00113455
0.00113455
0.00113655
0.00109926
0.00109915
0.00109916
0.00110116
0.00106388
0.00106377
0.00106377
0.00106577
0.00102849
0.00102839
0.00102839
0.0010304
0.000993096
0.000993003
0.000993002
0.000995009
0.000957735
0.00095763
0.00095763
0.000959631
0.000922308
0.00092223
0.000922231
0.000924239
0.000886942
0.000886836
0.000886835
0.000888837
0.000851484
0.00085142
0.000851422
0.000853431
0.000816094
0.000815984
0.000815983
0.000817987
0.00167108
0.00163991
0.00166901
0.00166901
0.00164201
0.00164201
0.00167108
0.00163991
0.00166901
0.00166901
0.00164201
0.00164201
0.00166901
0.00164201
0.00164201
0.00167108
0.00163991
0.00166901
0.00164201
0.00164201
0.00163991
0.00163509
0.00160398
0.00163302
0.00163302
0.00160608
0.00160608
0.00163509
0.00160398
0.00163302
0.00163302
0.00160608
0.00160608
0.00163302
0.00160608
0.00160608
0.00163509
0.00160398
0.00163302
0.00160608
0.00160608
0.00160398
0.00159917
0.00156812
0.00159711
0.00159711
0.00157021
0.00157021
0.00159917
0.00156812
0.00159711
0.00159711
0.00157021
0.00157021
0.00159711
0.00157021
0.00157021
0.00159917
0.00156812
0.0015971
0.00157021
0.00157021
0.00156812
0.00156331
0.00153232
0.00156126
0.00156126
0.00153441
0.00153441
0.00156331
0.00153232
0.00156126
0.00156126
0.00153441
0.00153441
0.00156126
0.00153441
0.00153441
0.00156331
0.00153232
0.00156126
0.00153441
0.00153441
0.00153232
0.00152752
0.00149658
0.00152547
0.00152547
0.00149866
0.00149866
0.00152752
0.00149658
0.00152547
0.00152547
0.00149866
0.00149866
0.00152547
0.00149866
0.00149866
0.00152752
0.00149658
0.00152547
0.00149866
0.00149866
0.00149658
0.00149178
0.00146089
0.00148974
0.00148973
0.00146297
0.00146297
0.00149178
0.00146089
0.00148974
0.00148974
0.00146297
0.00146297
0.00148973
0.00146297
0.00146297
0.00149178
0.00146089
0.00148974
0.00146297
0.00146297
0.00146089
0.00145609
0.00142525
0.00145405
0.00145405
0.00142732
0.00142732
0.00145609
0.00142525
0.00145405
0.00145405
0.00142732
0.00142733
0.00145405
0.00142732
0.00142733
0.00145609
0.00142525
0.00145405
0.00142733
0.00142733
0.00142525
0.00142045
0.00138966
0.00141842
0.00141842
0.00139172
0.00139172
0.00142045
0.00138966
0.00141842
0.00141842
0.00139172
0.00139172
0.00141842
0.00139172
0.00139172
0.00142045
0.00138966
0.00141842
0.00139172
0.00139172
0.00138966
0.00138486
0.0013541
0.00138283
0.00138283
0.00135616
0.00135616
0.00138486
0.0013541
0.00138283
0.00138283
0.00135616
0.00135616
0.00138283
0.00135616
0.00135616
0.00138486
0.0013541
0.00138283
0.00135616
0.00135616
0.0013541
0.0013493
0.00131857
0.00134728
0.00134728
0.00132064
0.00132064
0.0013493
0.00131857
0.00134728
0.00134728
0.00132064
0.00132064
0.00134728
0.00132064
0.00132064
0.0013493
0.00131857
0.00134728
0.00132064
0.00132064
0.00131857
0.00131378
0.00128308
0.00131176
0.00131176
0.00128514
0.00128514
0.00131378
0.00128308
0.00131176
0.00131176
0.00128514
0.00128514
0.00131176
0.00128514
0.00128514
0.00131378
0.00128308
0.00131176
0.00128514
0.00128514
0.00128308
0.00127829
0.00124762
0.00127627
0.00127627
0.00124968
0.00124968
0.00127829
0.00124762
0.00127627
0.00127627
0.00124968
0.00124968
0.00127627
0.00124968
0.00124968
0.00127829
0.00124762
0.00127627
0.00124968
0.00124968
0.00124762
0.00124283
0.00121217
0.00124081
0.00124081
0.00121423
0.00121423
0.00124283
0.00121217
0.00124081
0.00124081
0.00121423
0.00121423
0.00124081
0.00121423
0.00121423
0.00124283
0.00121217
0.00124081
0.00121423
0.00121423
0.00121217
0.00120738
0.00117675
0.00120537
0.00120537
0.0011788
0.00117881
0.00120738
0.00117675
0.00120537
0.00120537
0.00117881
0.00117881
0.00120537
0.00117881
0.00117881
0.00120738
0.00117675
0.00120537
0.00117881
0.00117881
0.00117675
0.00117196
0.00114135
0.00116995
0.00116995
0.0011434
0.0011434
0.00117196
0.00114135
0.00116995
0.00116995
0.0011434
0.0011434
0.00116995
0.0011434
0.0011434
0.00117196
0.00114134
0.00116995
0.0011434
0.0011434
0.00114134
0.00113655
0.00110595
0.00113455
0.00113455
0.001108
0.001108
0.00113655
0.00110595
0.00113455
0.00113455
0.001108
0.001108
0.00113455
0.001108
0.001108
0.00113655
0.00110595
0.00113455
0.001108
0.001108
0.00110595
0.00110116
0.00107056
0.00109915
0.00109915
0.00107262
0.00107262
0.00110116
0.00107057
0.00109915
0.00109916
0.00107261
0.00107261
0.00109915
0.00107262
0.00107261
0.00110116
0.00107056
0.00109915
0.00107261
0.00107261
0.00107056
0.00106577
0.00103519
0.00106377
0.00106377
0.00103724
0.00103723
0.00106577
0.00103519
0.00106377
0.00106377
0.00103724
0.00103724
0.00106377
0.00103723
0.00103724
0.00106577
0.00103519
0.00106377
0.00103724
0.00103724
0.00103519
0.0010304
0.000999803
0.00102839
0.00102839
0.00100185
0.00100185
0.00103039
0.000999804
0.00102839
0.00102839
0.00100185
0.00100185
0.00102839
0.00100185
0.00100185
0.0010304
0.000999803
0.00102839
0.00100185
0.00100185
0.000999803
0.000995008
0.00096443
0.000993002
0.000993003
0.000966476
0.000966476
0.000995009
0.00096443
0.000993002
0.000993002
0.000966476
0.000966475
0.000993002
0.000966476
0.000966476
0.000995008
0.000964429
0.000993002
0.000966475
0.000966475
0.000964429
0.000959632
0.000929037
0.000957631
0.000957631
0.000931077
0.000931077
0.000959631
0.000929037
0.000957631
0.00095763
0.000931077
0.000931078
0.00095763
0.000931077
0.000931077
0.000959631
0.000929037
0.00095763
0.000931078
0.000931077
0.000929037
0.000924239
0.000893642
0.00092223
0.00092223
0.000895691
0.000895691
0.000924239
0.000893643
0.00092223
0.000922231
0.00089569
0.00089569
0.00092223
0.000895692
0.000895692
0.000924239
0.000893641
0.000922231
0.00089569
0.000895691
0.000893642
0.000888837
0.000858233
0.000886836
0.000886836
0.000860268
0.000860267
0.000888837
0.000858233
0.000886835
0.000886835
0.000860268
0.000860268
0.000886836
0.000860266
0.000860266
0.000888836
0.000858234
0.000886835
0.000860268
0.000860267
0.000858232
0.000853431
0.000822804
0.000851421
0.00085142
0.00082486
0.000824861
0.000853431
0.000822805
0.000851421
0.000851422
0.000824859
0.000824859
0.00085142
0.000824861
0.000824863
0.000853432
0.000822804
0.000851421
0.000824861
0.000824863
0.000822806
0.000817985
0.000787361
0.000815983
0.000815983
0.000789392
0.000789391
0.000817986
0.00078736
0.000815982
0.000815982
0.000789393
0.000789392
0.000815985
0.00078939
0.000789389
0.000817985
0.00078736
0.000815985
0.000789391
0.00078939
0.000787358
0.00165762
0.00167108
0.00165761
0.00167109
0.00167108
0.00165761
0.00165762
0.00167108
0.0016576
0.00167109
0.00166909
0.00166909
0.00166909
0.0016421
0.0016421
0.0016421
0.0016421
0.00165773
0.00167107
0.00166907
0.00166
0.00165767
0.00166006
0.00167108
0.00167108
0.00165761
0.00165773
0.00166907
0.00167107
0.00166
0.00166007
0.00165767
0.00167108
0.0016711
0.0016711
0.0016579
0.00165762
0.00165762
0.00162167
0.0016351
0.00163511
0.00162165
0.0016351
0.00162165
0.00162167
0.0016351
0.00163511
0.00162165
0.00163311
0.00163311
0.00163311
0.00160618
0.00160618
0.00160618
0.00160618
0.00162177
0.00163509
0.00163308
0.00162404
0.0016351
0.00162171
0.0016241
0.0016351
0.00162165
0.00162177
0.00163308
0.00163509
0.00162404
0.0016351
0.0016241
0.00162171
0.00163511
0.00163511
0.00162194
0.00162166
0.00162166
0.00158578
0.00159919
0.0015992
0.00158577
0.00159919
0.00158577
0.00158578
0.00159919
0.0015992
0.00158577
0.0015972
0.0015972
0.0015972
0.00157032
0.00157032
0.00157032
0.00157032
0.00158588
0.00159917
0.00159717
0.00158814
0.00159918
0.00158582
0.0015882
0.00159919
0.00158577
0.00158588
0.00159717
0.00159918
0.00158814
0.00159918
0.0015882
0.00158582
0.0015992
0.0015992
0.00158604
0.00158577
0.00158577
0.00154996
0.00156334
0.00156335
0.00154994
0.00156335
0.00154995
0.00154996
0.00156334
0.00156335
0.00154994
0.00156136
0.00156136
0.00156136
0.00153452
0.00153452
0.00153452
0.00153452
0.00155006
0.00156333
0.00156131
0.0015523
0.00156333
0.00154999
0.00155236
0.00156335
0.00154995
0.00155006
0.00156132
0.00156333
0.0015523
0.00156333
0.00155236
0.00154999
0.00156336
0.00156336
0.00155022
0.00154995
0.00154995
0.00151419
0.00152756
0.00152757
0.00151418
0.00152756
0.00151418
0.00151419
0.00152756
0.00152757
0.00151418
0.00152558
0.00152558
0.00152558
0.00149878
0.00149878
0.00149878
0.00149878
0.00151429
0.00152754
0.00152553
0.00151653
0.00152755
0.00151423