/*--------------------------------*- C++ -*----------------------------------*\
| =========                 |                                                 |
| \\      /  F ield         | OpenFOAM: The Open Source CFD Toolbox           |
|  \\    /   O peration     | Version:  v1906                                 |
|   \\  /    A nd           | Web:      www.OpenFOAM.com                      |
|    \\/     M anipulation  |                                                 |
\*---------------------------------------------------------------------------*/
FoamFile
{
    version     2.0;
    format      ascii;
    class       surfaceScalarField;
    location    "375";
    object      phi;
}
// * * * * * * * * * * * * * * * * * * * * * * * * * * * * * * * * * * * * * //

dimensions      [0 3 -1 0 0 0 0];
oriented        oriented;


internalField   nonuniform List<scalar> 
124908
(
-0.00104221
-1.45815e-05
-1.44777e-05
9.34771e-06
9.17762e-06
0.00105274
-0.00026146
-5.64183e-06
1.44583e-05
6.83957e-06
0.00105941
-4.53274e-06
-1.62486e-06
-2.21805e-06
-2.57554e-06
-6.59143e-06
-7.04427e-06
-3.16375e-06
-0.000263303
-0.000259727
-0.000262829
-0.000261437
-5.64682e-06
1.44873e-05
6.92911e-06
0.0010592
-4.53785e-06
-1.63504e-06
-2.22565e-06
-2.57985e-06
-6.58553e-06
-7.04034e-06
-3.16594e-06
-0.000259699
-0.000263274
-0.000262793
-0.000260564
5.61732e-06
5.65742e-06
-4.87815e-06
-4.87221e-06
0.00025904
-1.63187e-06
-1.63376e-06
-0.00106073
8.98537e-07
8.99307e-07
0.0010622
-0.00106267
-1.60665e-06
1.62783e-06
8.28416e-07
0.00106395
-6.53883e-07
7.84505e-07
-1.48152e-07
3.78012e-07
-8.00667e-07
-1.39484e-06
-2.90552e-07
-0.00106235
-1.60156e-06
1.63834e-06
8.23605e-07
0.00106363
-6.53861e-07
7.79016e-07
-1.482e-07
3.75395e-07
-8.03195e-07
-1.39453e-06
-2.88006e-07
-0.000261533
1.63927e-06
1.60171e-06
-7.13267e-07
-7.16417e-07
0.000259722
-1.36113e-06
-1.36255e-06
-0.0010664
6.82252e-07
6.83062e-07
0.00106775
-0.0010679
-1.55714e-06
1.3673e-06
6.90355e-07
0.00106925
-6.21808e-07
8.3862e-07
-1.06579e-07
4.24393e-07
-7.80409e-07
-1.35997e-06
-2.45167e-07
-0.00106758
-1.55189e-06
1.36211e-06
6.95678e-07
0.00106892
-6.21808e-07
8.33208e-07
-1.06553e-07
4.24339e-07
-7.80331e-07
-1.35442e-06
-2.42614e-07
-0.000262766
1.58732e-06
1.55204e-06
-6.74949e-07
-6.83125e-07
0.000260984
-1.34097e-06
-1.34228e-06
-0.00107186
6.64407e-07
6.65259e-07
0.00107322
-0.00107326
-1.55556e-06
1.34198e-06
6.67285e-07
0.00107457
-6.19923e-07
8.63769e-07
-8.16602e-08
4.38219e-07
-7.79453e-07
-1.36935e-06
-2.20248e-07
-0.00107292
-1.55023e-06
1.34187e-06
6.67361e-07
0.00107424
-6.17217e-07
8.58344e-07
-8.41114e-08
4.38163e-07
-7.81917e-07
-1.36912e-06
-2.17687e-07
-0.000264044
1.58327e-06
1.55045e-06
-6.64648e-07
-6.70303e-07
0.000262245
-1.29596e-06
-1.29714e-06
-0.00107721
6.42272e-07
6.43164e-07
0.00107852
-0.00107844
-1.54748e-06
1.29689e-06
6.34138e-07
0.00107969
-6.07569e-07
8.91702e-07
-5.61625e-08
4.60174e-07
-7.68212e-07
-1.37186e-06
-1.88972e-07
-0.0010781
-1.5421e-06
1.29672e-06
6.34148e-07
0.00107936
-6.04833e-07
8.86275e-07
-5.8599e-08
4.60105e-07
-7.70679e-07
-1.37163e-06
-1.86395e-07
-0.000265263
1.5752e-06
1.5422e-06
-6.47556e-07
-6.53224e-07
0.000263446
-1.24846e-06
-1.24955e-06
-0.00108237
6.20393e-07
6.2131e-07
0.00108362
-0.00108337
-1.53911e-06
1.24923e-06
6.04442e-07
0.00108457
-5.95336e-07
9.17472e-07
-3.35437e-08
4.84359e-07
-7.53954e-07
-1.3693e-06
-1.58491e-07
-0.00108303
-1.53371e-06
1.24903e-06
6.04413e-07
0.00108423
-5.92637e-07
9.12048e-07
-3.59361e-08
4.84297e-07
-7.56405e-07
-1.36908e-06
-1.55916e-07
-0.000266409
1.56686e-06
1.5337e-06
-6.3044e-07
-6.36112e-07
0.000264575
-1.20442e-06
-1.20531e-06
-0.00108732
6.0088e-07
6.01774e-07
0.00108852
-0.00108806
-1.53245e-06
1.20488e-06
5.80479e-07
0.00108919
-5.85649e-07
9.40448e-07
-1.47447e-08
5.09041e-07
-7.40144e-07
-1.36505e-06
-1.30606e-07
-0.00108772
-1.52711e-06
1.20468e-06
5.80536e-07
0.00108885
-5.83081e-07
9.34937e-07
-1.71214e-08
5.09012e-07
-7.42596e-07
-1.36483e-06
-1.28009e-07
-0.00026748
1.56035e-06
1.52703e-06
-6.15699e-07
-6.21394e-07
0.00026563
-1.16568e-06
-1.16689e-06
-0.00109208
5.84422e-07
5.85375e-07
0.00109324
-0.00109251
-1.52799e-06
1.16654e-06
5.62408e-07
0.00109359
-5.79107e-07
9.60473e-07
-3.0033e-10
5.33104e-07
-7.27953e-07
-1.36099e-06
-1.05786e-07
-0.00109217
-1.52259e-06
1.16638e-06
5.62602e-07
0.00109325
-5.76437e-07
9.54921e-07
-2.57715e-09
5.33092e-07
-7.30438e-07
-1.36075e-06
-1.03154e-07
-0.000268483
1.55613e-06
1.52262e-06
-6.03813e-07
-6.09572e-07
0.000266618
-1.13203e-06
-1.13329e-06
-0.00109667
5.7038e-07
5.71058e-07
0.00109779
-0.00109676
-1.52687e-06
1.13283e-06
5.48633e-07
0.00109779
-5.76211e-07
9.77129e-07
1.76988e-08
5.55857e-07
-7.17402e-07
-1.35769e-06
-8.4033e-08
-0.00109641
-1.52109e-06
1.13272e-06
5.48631e-07
0.00109744
-5.72616e-07
9.7167e-07
1.47796e-08
5.55644e-07
-7.20031e-07
-1.35751e-06
-8.15552e-08
-0.000269423
1.55458e-06
1.52096e-06
-5.95068e-07
-6.00735e-07
0.000267543
-1.10309e-06
-1.1042e-06
-0.00110111
5.58529e-07
5.59191e-07
0.0011022
-0.00110081
-1.52694e-06
1.10419e-06
5.38013e-07
0.0011018
-5.73659e-07
9.92044e-07
3.16339e-08
5.77103e-07
-7.08262e-07
-1.35531e-06
-6.51863e-08
-0.00110047
-1.52156e-06
1.10417e-06
5.38127e-07
0.00110145
-5.71248e-07
9.86478e-07
2.81037e-08
5.77246e-07
-7.10559e-07
-1.3549e-06
-6.24694e-08
-0.000270304
1.55547e-06
1.52171e-06
-5.89635e-07
-5.95364e-07
0.000268412
-1.07856e-06
-1.07953e-06
-0.00110542
5.48782e-07
5.49465e-07
0.00110648
-0.0011047
-1.52846e-06
1.07926e-06
5.28832e-07
0.00110564
-5.71698e-07
1.00658e-06
4.14269e-08
5.97553e-07
-6.98563e-07
-1.35217e-06
-4.87917e-08
-0.00110435
-1.52258e-06
1.07907e-06
5.28745e-07
0.0011053
-5.702e-07
1.00085e-06
4.11612e-08
5.97182e-07
-7.01396e-07
-1.35216e-06
-4.64039e-08
-0.000271132
1.55652e-06
1.52263e-06
-5.83562e-07
-5.89336e-07
0.000269226
-1.05564e-06
-1.05663e-06
-0.00110962
5.39612e-07
5.40283e-07
0.00111065
-0.00110843
-1.52993e-06
1.05684e-06
5.20215e-07
0.00110934
-5.70265e-07
1.01962e-06
5.08759e-08
6.16037e-07
-6.89076e-07
-1.34915e-06
-3.47093e-08
-0.00110808
-1.52441e-06
1.05664e-06
5.20179e-07
0.00110899
-5.70392e-07
1.01416e-06
5.10313e-08
6.16079e-07
-6.91485e-07
-1.34874e-06
-3.21655e-08
-0.000271907
1.55832e-06
1.5243e-06
-5.79088e-07
-5.84904e-07
0.000269989
-1.03429e-06
-1.03522e-06
-0.00111371
5.30955e-07
5.3163e-07
0.00111472
-0.00111201
-1.53117e-06
1.03483e-06
5.10476e-07
0.00111288
-5.68788e-07
1.03334e-06
6.2793e-08
6.32923e-07
-6.77759e-07
-1.34419e-06
-2.27312e-08
-0.00111166
-1.52544e-06
1.03451e-06
5.10303e-07
0.00111252
-5.68139e-07
1.02787e-06
6.33914e-08
6.32748e-07
-6.8032e-07
-1.34393e-06
-2.03819e-08
-0.00027263
1.56009e-06
1.52595e-06
-5.75181e-07
-5.81062e-07
0.000270701
-1.01297e-06
-1.01387e-06
-0.0011177
5.22126e-07
5.22854e-07
0.00111868
-0.00111543
-1.53314e-06
1.01426e-06
5.0079e-07
0.00111627
-5.67494e-07
1.04593e-06
7.06826e-08
6.49046e-07
-6.65069e-07
-1.33807e-06
-1.16603e-08
-0.00111508
-1.52752e-06
1.01412e-06
5.00929e-07
0.00111592
-5.67914e-07
1.04046e-06
7.04644e-08
6.49211e-07
-6.67519e-07
-1.33774e-06
-9.15504e-09
-0.000273299
1.56168e-06
1.52751e-06
-5.69771e-07
-5.75397e-07
0.000271355
-9.92782e-07
-9.93537e-07
-0.00112159
5.13474e-07
5.14205e-07
0.00112255
-0.00111871
-1.53298e-06
9.93003e-07
4.90084e-07
0.00111951
-5.61527e-07
1.05882e-06
8.039e-08
6.62203e-07
-6.51267e-07
-1.33044e-06
-3.39151e-09
-0.00111836
-1.52746e-06
9.92939e-07
4.90153e-07
0.00111916
-5.61467e-07
1.05307e-06
7.99746e-08
6.62234e-07
-6.53843e-07
-1.33024e-06
-1.30099e-09
-0.000273915
1.56191e-06
1.52767e-06
-5.62289e-07
-5.67992e-07
0.000271956
-9.71014e-07
-9.71778e-07
-0.00112539
5.04022e-07
5.04754e-07
0.00112633
-0.00112184
-1.53338e-06
9.71919e-07
4.77907e-07
0.00112259
-5.58033e-07
1.07128e-06
8.78586e-08
6.75083e-07
-6.35648e-07
-1.32098e-06
7.69941e-09
-0.00112148
-1.52789e-06
9.71623e-07
4.77288e-07
0.00112224
-5.58329e-07
1.06574e-06
8.80397e-08
6.75155e-07
-6.38053e-07
-1.3206e-06
1.12237e-08
-0.000274471
1.56209e-06
1.52775e-06
-5.54989e-07
-5.60718e-07
0.000272497
-9.50497e-07
-9.51246e-07
-0.00112909
4.94869e-07
4.9554e-07
0.00113
-0.0011248
-1.53189e-06
9.50749e-07
4.66193e-07
0.00112552
-5.48826e-07
1.08234e-06
9.45368e-08
6.84835e-07
-6.20356e-07
-1.31124e-06
1.7119e-08
-0.00112445
-1.52614e-06
9.50464e-07
4.65717e-07
0.00112516
-5.48067e-07
1.07672e-06
9.51582e-08
6.84481e-07
-6.23074e-07
-1.31107e-06
1.99929e-08
-0.000274965
1.56111e-06
1.52669e-06
-5.46478e-07
-5.52202e-07
0.000272976
-9.27816e-07
-9.28577e-07
-0.0011327
4.84269e-07
4.84925e-07
0.00113359
-0.0011276
-1.53045e-06
9.28649e-07
4.55357e-07
0.00112828
-5.41596e-07
1.09312e-06
1.01784e-07
6.94732e-07
-6.02872e-07
-1.29893e-06
2.62427e-08
-0.00112725
-1.52518e-06
9.28944e-07
4.55356e-07
0.00112792
-5.42238e-07
1.08709e-06
1.00563e-07
6.94895e-07
-6.05453e-07
-1.29884e-06
2.97592e-08
-0.000275394
1.55944e-06
1.52491e-06
-5.37831e-07
-5.43579e-07
0.000273392
-9.06788e-07
-9.07348e-07
-0.00113622
4.74465e-07
4.75209e-07
0.00113708
-0.00113024
-1.52682e-06
9.07154e-07
4.44491e-07
0.00113087
-5.28771e-07
1.10289e-06
1.0881e-07
7.02113e-07
-5.86581e-07
-1.28598e-06
3.29214e-08
-0.00112988
-1.52151e-06
9.06717e-07
4.43903e-07
0.00113051
-5.2937e-07
1.09743e-06
1.09633e-07
7.02346e-07
-5.88681e-07
-1.28528e-06
3.61095e-08
-0.000275757
1.55594e-06
1.52137e-06
-5.26724e-07
-5.3246e-07
0.000273738
-8.8636e-07
-8.86988e-07
-0.00113964
4.65325e-07
4.66028e-07
0.00114048
-0.00113269
-1.52288e-06
8.86781e-07
4.34854e-07
0.00113328
-5.18692e-07
1.11079e-06
1.12203e-07
7.10126e-07
-5.69396e-07
-1.27184e-06
4.07326e-08
-0.00113233
-1.5171e-06
8.86361e-07
4.34342e-07
0.00113292
-5.17839e-07
1.10533e-06
1.13026e-07
7.09701e-07
-5.72158e-07
-1.27168e-06
4.34613e-08
-0.000276047
1.55225e-06
1.51761e-06
-5.16389e-07
-5.22099e-07
0.000274015
-8.65422e-07
-8.65981e-07
-0.00114296
4.56039e-07
4.56722e-07
0.00114378
-0.00113497
-1.51803e-06
8.65948e-07
4.25336e-07
0.00113551
-5.10565e-07
1.11844e-06
1.21055e-07
7.17802e-07
-5.51769e-07
-1.25524e-06
4.7204e-08
-0.00113461
-1.51234e-06
8.65807e-07
4.25218e-07
0.00113515
-5.0743e-07
1.11256e-06
1.17817e-07
7.17511e-07
-5.54446e-07
-1.25536e-06
5.03233e-08
-0.000276267
1.54724e-06
1.51255e-06
-5.05457e-07
-5.11178e-07
0.000274224
5.22146e-06
5.23231e-06
0.000260567
-0.000259171
-5.93189e-06
-5.91777e-06
5.08158e-06
0.000261409
-0.000258686
-5.96204e-06
3.37916e-06
-5.22153e-06
5.07656e-06
0.000261442
-0.000258702
-5.97005e-06
3.37432e-06
5.22214e-06
0.000260579
-0.000259173
-5.90328e-06
-5.94651e-06
5.07467e-06
0.000261473
-0.000258717
-5.96755e-06
3.369e-06
5.0814e-06
-5.22378e-06
0.000261417
-0.000258686
3.38421e-06
-5.97225e-06
1.07111e-05
1.06174e-05
-0.000252649
-0.000256079
-0.000255118
-0.000255118
-6.41734e-06
-4.12515e-06
-6.6623e-06
-6.41771e-06
-4.12609e-06
-6.66784e-06
-5.06963e-06
0.00104223
1.06707e-05
1.06227e-05
-0.000252651
-0.000256076
-0.000255121
-0.000255121
-6.41996e-06
-4.12544e-06
-6.66504e-06
-6.41517e-06
-4.12087e-06
-6.66025e-06
-5.06927e-06
0.00104211
1.0731e-05
1.06833e-05
-0.000252643
-0.000256071
-0.000255118
-0.000255113
-6.41981e-06
-4.13282e-06
-6.66497e-06
-6.42001e-06
-4.12309e-06
-6.66258e-06
-5.08397e-06
-5.07209e-06
0.00104217
1.07263e-05
1.06276e-05
-0.000252646
-0.000256074
-0.000255118
-0.000255118
-6.4147e-06
-4.12777e-06
-6.65997e-06
-6.42014e-06
-4.12593e-06
-6.6653e-06
-0.000258712
-5.95991e-06
3.36394e-06
-5.22138e-06
0.000261404
-0.000258684
3.37919e-06
-5.96198e-06
5.22453e-06
0.000260559
-0.000259158
-5.9056e-06
-5.94373e-06
-0.000258697
3.37148e-06
-5.95704e-06
-5.23228e-06
0.000261471
-0.000258712
3.36649e-06
-5.96502e-06
-0.000259168
-5.93177e-06
-5.9178e-06
5.61757e-06
5.65479e-06
-4.87838e-06
-4.87223e-06
0.000259045
-7.8048e-07
-7.44602e-07
0.000261544
-0.000259462
-2.82247e-07
-2.74854e-07
7.09202e-06
0.00105882
-4.53008e-06
-1.57833e-06
-2.21273e-06
-2.57666e-06
-6.60588e-06
-7.05009e-06
-3.17074e-06
-0.000263264
-0.000259684
-0.000262793
-5.62803e-06
1.4555e-05
7.03143e-06
0.00105919
-4.5492e-06
-1.57072e-06
-2.21587e-06
-2.58757e-06
-6.6374e-06
-7.067e-06
-3.18641e-06
-0.000263338
-0.000259715
-0.000262834
0.00106192
2.02401e-06
-0.00106086
9.73753e-07
-1.71809e-06
-1.6911e-07
-6.92238e-07
-1.46543e-06
-3.07557e-07
-8.28052e-07
3.43223e-07
7.88561e-07
0.00106234
2.02437e-06
-0.00106128
9.68688e-07
-1.7285e-06
-1.61616e-07
-6.97736e-07
-1.47114e-06
-3.07707e-07
-8.28418e-07
3.48638e-07
-4.87646e-06
-4.86912e-06
0.000259055
-7.47275e-07
0.000261569
-0.000259482
-2.79602e-07
-2.71987e-07
6.81326e-06
0.00105966
-4.55437e-06
-1.63766e-06
-2.22893e-06
-2.58587e-06
-6.61991e-06
-7.06238e-06
-3.18164e-06
-0.000263359
-0.000259742
-0.000262847
-5.62773e-06
1.45894e-05
7.12547e-06
0.00105896
-4.54903e-06
-1.58079e-06
-2.2209e-06
-2.58953e-06
-6.6367e-06
-7.06587e-06
-3.18603e-06
-0.000259684
-0.000263315
-0.000262806
0.00106294
2.03159e-06
-0.00106187
9.6225e-07
-1.68817e-06
-1.71619e-07
-6.92516e-07
-1.46847e-06
-3.07668e-07
-8.25819e-07
3.45597e-07
7.77941e-07
0.00106203
2.0346e-06
-0.00106099
9.84064e-07
-1.71815e-06
-1.66661e-07
-6.92434e-07
-1.46825e-06
-3.0509e-07
-8.30807e-07
3.43166e-07
1.45864e-05
7.11279e-06
0.00105877
-4.53002e-06
-1.57822e-06
-2.2101e-06
-2.57669e-06
-6.60589e-06
-3.17079e-06
-7.04777e-06
-0.000259679
-0.000263259
-0.000262788
2.03091e-06
-0.00106161
9.67484e-07
-1.68807e-06
-1.68947e-07
-6.89595e-07
-1.46576e-06
-3.10041e-07
3.40406e-07
-8.25541e-07
7.77916e-07
0.00106182
2.03422e-06
-0.00106078
9.84099e-07
-1.71806e-06
-1.66544e-07
-6.92193e-07
-1.46811e-06
-3.07529e-07
-8.28007e-07
3.45757e-07
-4.88128e-06
-4.8689e-06
0.000259035
-7.39133e-07
0.000261521
-0.000259444
-2.82648e-07
-2.77214e-07
1.44875e-05
6.83175e-06
0.00105961
-4.55451e-06
-1.63767e-06
-2.22898e-06
-2.58569e-06
-6.61978e-06
-3.18154e-06
-7.05965e-06
-0.000259732
-0.000263356
-0.000262842
2.03595e-06
-0.00106131
9.83007e-07
-1.68558e-06
-1.71495e-07
-6.92266e-07
-1.46262e-06
-3.05022e-07
3.40449e-07
-8.28068e-07
7.39228e-07
0.00106284
2.03659e-06
-0.00106179
9.72565e-07
-1.68313e-06
-1.71647e-07
-6.89937e-07
-1.4657e-06
-3.07508e-07
-8.28235e-07
3.40607e-07
-0.000259459
-2.79779e-07
-2.77428e-07
1.63935e-06
1.60415e-06
-7.10558e-07
-7.19028e-07
0.00025973
-8.66327e-07
-8.27634e-07
0.000262778
-0.000260667
-2.12632e-07
-2.0506e-07
8.29639e-07
0.00106319
-6.56437e-07
8.17756e-07
-1.43307e-07
3.78169e-07
-8.00557e-07
-1.39714e-06
-2.90469e-07
-1.64463e-06
1.63226e-06
8.24415e-07
0.00106362
-6.59292e-07
8.2583e-07
-1.43311e-07
3.83593e-07
-8.0353e-07
-1.40283e-06
-2.88163e-07
0.00106713
1.38301e-06
-0.0010658
7.02153e-07
-1.59181e-06
-1.03507e-07
-6.28646e-07
-1.35465e-06
-2.49025e-07
-7.76786e-07
4.22399e-07
8.71694e-07
0.00106757
1.38328e-06
-0.00106623
6.97078e-07
-1.59715e-06
-1.03624e-07
-6.28887e-07
-1.35764e-06
-2.49138e-07
-7.77135e-07
4.25207e-07
-7.1105e-07
-7.18359e-07
0.000259748
-8.32892e-07
0.000262804
-0.000260679
-2.12671e-07
-2.07558e-07
8.23145e-07
0.00106421
-6.54075e-07
7.81855e-07
-1.45762e-07
3.80615e-07
-8.03599e-07
-1.40028e-06
-2.88113e-07
-1.63935e-06
1.63748e-06
8.29699e-07
0.0010633
-6.59278e-07
8.1786e-07
-1.43347e-07
3.78183e-07
-8.03265e-07
-1.39733e-06
-2.87988e-07
0.00106816
1.38438e-06
-0.00106684
7.01113e-07
-1.5539e-06
-1.0844e-07
-6.23644e-07
-1.35235e-06
-2.466e-07
-7.77127e-07
4.25054e-07
8.61111e-07
0.00106725
1.38304e-06
-0.00106591
7.02236e-07
-1.58922e-06
-1.06088e-07
-6.288e-07
-1.35478e-06
-2.48991e-07
-7.7684e-07
4.25178e-07
1.63205e-06
8.29733e-07
0.0010631
-6.59064e-07
8.15184e-07
-1.45744e-07
3.78104e-07
-8.03182e-07
-2.88027e-07
-1.39723e-06
1.38399e-06
-0.00106657
7.06472e-07
-1.56169e-06
-1.10859e-07
-6.235e-07
-1.35226e-06
-2.46619e-07
4.24923e-07
-7.76931e-07
8.6371e-07
0.00106704
1.37773e-06
-0.0010657
7.02253e-07
-1.58914e-06
-1.05957e-07
-6.28628e-07
-1.35472e-06
-2.49057e-07
-7.76779e-07
4.22415e-07
-7.13819e-07
-7.15801e-07
0.000259709
-8.24827e-07
0.000262753
-0.000260646
-2.12858e-07
-2.07512e-07
1.63355e-06
8.18033e-07
0.00106413
-6.54134e-07
7.76437e-07
-1.50873e-07
3.75478e-07
-8.00812e-07
-2.92947e-07
-1.39476e-06
1.38398e-06
-0.00106625
7.01388e-07
-1.55117e-06
-1.10859e-07
-6.23457e-07
-1.34669e-06
-2.49032e-07
4.16864e-07
-7.76854e-07
8.27504e-07
0.00106807
1.38438e-06
-0.00106674
7.01192e-07
-1.55136e-06
-1.11003e-07
-6.23726e-07
-1.35492e-06
-2.49052e-07
-7.7971e-07
4.22389e-07
-0.000260654
-2.12727e-07
-2.07642e-07
1.58996e-06
1.55722e-06
-6.72243e-07
-6.80579e-07
0.000260984
-8.90463e-07
-8.54252e-07
0.00026406
-0.000261937
-1.91669e-07
-1.86609e-07
6.91218e-07
0.00106848
-6.29698e-07
8.72077e-07
-9.92429e-08
4.24537e-07
-7.77652e-07
-1.35445e-06
-2.47568e-07
-1.59532e-06
1.36146e-06
7.01847e-07
0.00106891
-6.29893e-07
8.77477e-07
-9.93202e-08
4.30068e-07
-7.8062e-07
-1.36007e-06
-2.42708e-07
0.00107249
1.34953e-06
-0.00107117
6.75832e-07
-1.58991e-06
-8.56009e-08
-6.24926e-07
-1.367e-06
-2.29923e-07
-7.78111e-07
4.3386e-07
8.95955e-07
0.00107292
1.34981e-06
-0.00107159
6.76034e-07
-1.59526e-06
-8.30568e-08
-6.27792e-07
-1.37529e-06
-2.25043e-07
-7.83674e-07
4.42088e-07
-6.75272e-07
-6.77484e-07
0.000261005
-8.56968e-07
0.000264088
-0.000261963
-1.8896e-07
-1.83761e-07
6.90229e-07
0.00106952
-6.27356e-07
8.35996e-07
-1.04169e-07
4.27151e-07
-7.80585e-07
-1.36003e-06
-2.42665e-07
-1.58734e-06
1.36128e-06
6.96572e-07
0.00106859
-6.29842e-07
8.69495e-07
-9.92946e-08
4.27292e-07
-7.80301e-07
-1.35721e-06
-2.4254e-07
0.00107352
1.35085e-06
-0.0010722
6.74842e-07
-1.55439e-06
-8.80373e-08
-6.2253e-07
-1.36993e-06
-2.24987e-07
-7.83676e-07
4.36521e-07
8.90587e-07
0.0010726
1.34961e-06
-0.00107127
6.75978e-07
-1.58993e-06
-8.30228e-08
-6.27724e-07
-1.36968e-06
-2.24883e-07
-7.8337e-07
4.36602e-07
1.36626e-06
6.91332e-07
0.00106839
-6.27005e-07
8.66802e-07
-1.0417e-07
4.27183e-07
-7.8025e-07
-2.45101e-07
-1.35716e-06
1.3505e-06
-0.00107193
6.74948e-07
-1.55696e-06
-8.78048e-08
-6.22368e-07
-1.36723e-06
-2.27529e-07
4.33716e-07
-7.80918e-07
8.85152e-07
0.0010724
1.34943e-06
-0.00107107
6.75938e-07
-1.58461e-06
-8.79925e-08
-6.22148e-07
-1.36707e-06
-2.27451e-07
-7.80715e-07
4.33839e-07
-6.75363e-07
-6.80003e-07
0.000260969
-8.5154e-07
0.000264039
-0.000261921
-1.91658e-07
-1.83773e-07
1.36252e-06
6.95527e-07
0.00106942
-6.22099e-07
8.27949e-07
-1.0918e-07
4.24572e-07
-7.77911e-07
-2.45114e-07
-1.35476e-06
1.35041e-06
-0.0010716
6.75027e-07
-1.55164e-06
-9.02693e-08
-6.19663e-07
-1.36693e-06
-2.24983e-07
4.33714e-07
-7.83406e-07
8.51491e-07
0.00107344
1.35086e-06
-0.00107211
6.74881e-07
-1.55184e-06
-9.05041e-08
-6.19892e-07
-1.36469e-06
-2.27462e-07
-7.81003e-07
4.31217e-07
-0.000261934
-1.8917e-07
-1.83975e-07
1.58852e-06
1.55296e-06
-6.6187e-07
-6.676e-07
0.000262248
-9.18502e-07
-8.82144e-07
0.000265279
-0.000263155
-1.6392e-07
-1.5879e-07
6.68133e-07
0.00107381
-6.22438e-07
8.97394e-07
-7.91953e-08
4.38285e-07
-7.76662e-07
-1.36912e-06
-2.22715e-07
-1.59391e-06
1.3413e-06
6.68363e-07
0.00107423
-6.25352e-07
9.02799e-07
-7.69189e-08
4.46598e-07
-7.82209e-07
-1.37744e-06
-2.1775e-07
0.00107767
1.30797e-06
-0.0010764
6.43185e-07
-1.5828e-06
-6.0082e-08
-6.13424e-07
-1.37166e-06
-1.99334e-07
-7.68751e-07
4.54437e-07
9.2393e-07
0.00107809
1.30827e-06
-0.00107682
6.43407e-07
-1.58807e-06
-5.77081e-08
-6.15947e-07
-1.38008e-06
-1.94408e-07
-7.74404e-07
4.62644e-07
-6.6503e-07
-6.6973e-07
0.000262274
-8.84764e-07
0.000265307
-0.000263181
-1.61357e-07
-1.56087e-07
6.67148e-07
0.00107484
-6.20033e-07
8.61141e-07
-8.16292e-08
4.40974e-07
-7.82224e-07
-1.37205e-06
-2.17763e-07
-1.58857e-06
1.34109e-06
6.68305e-07
0.00107391
-6.25288e-07
8.97432e-07
-7.68717e-08
4.41097e-07
-7.81909e-07
-1.3718e-06
-2.17606e-07
0.0010787
1.30919e-06
-0.00107743
6.42213e-07
-1.54711e-06
-6.24879e-08
-6.11006e-07
-1.37461e-06
-1.94354e-07
-7.74332e-07
4.57127e-07
9.18541e-07
0.00107777
1.30803e-06
-0.0010765
6.43305e-07
-1.58271e-06
-5.7661e-08
-6.15883e-07
-1.37438e-06
-1.94262e-07
-7.74095e-07
4.57171e-07
1.3409e-06
6.68229e-07
0.00107371
-6.19789e-07
8.92076e-07
-8.16094e-08
4.38307e-07
-7.79229e-07
-2.2022e-07
-1.36917e-06
1.30888e-06
-0.00107716
6.42317e-07
-1.54959e-06
-6.24346e-08
-6.10507e-07
-1.37194e-06
-1.96905e-07
4.54284e-07
-7.71646e-07
9.13062e-07
0.00107757
1.30791e-06
-0.0010763
6.43296e-07
-1.57747e-06
-6.26694e-08
-6.10553e-07
-1.37178e-06
-1.96798e-07
-7.71389e-07
4.54433e-07
-6.62454e-07
-6.69676e-07
0.000262232
-8.79352e-07
0.000265258
-0.00026314
-1.64001e-07
-1.56099e-07
1.34229e-06
6.67188e-07
0.00107475
-6.17522e-07
8.58389e-07
-8.41084e-08
4.35681e-07
-7.7952e-07
-2.20229e-07
-1.36678e-06
1.30872e-06
-0.00107683
6.4233e-07
-1.54421e-06
-6.48468e-08
-6.07781e-07
-1.37167e-06
-1.94355e-07
4.54273e-07
-7.74138e-07
8.79291e-07
0.00107861
1.30918e-06
-0.00107734
6.42252e-07
-1.54451e-06
-6.51376e-08
-6.08256e-07
-1.36938e-06
-1.96795e-07
-7.71672e-07
4.51814e-07
-0.000263153
-1.61602e-07
-1.56351e-07
1.58046e-06
1.54473e-06
-6.44771e-07
-6.50486e-07
0.000263449
-9.45108e-07
-9.08608e-07
0.000266424
-0.000264302
-1.36601e-07
-1.31396e-07
6.34952e-07
0.00107892
-6.09711e-07
9.25333e-07
-5.40269e-08
4.60214e-07
-7.65505e-07
-1.37178e-06
-1.91387e-07
-1.58601e-06
1.29631e-06
6.35208e-07
0.00107935
-6.1301e-07
9.30897e-07
-5.14596e-08
4.68583e-07
-7.70967e-07
-1.38e-06
-1.86463e-07
0.0010826
1.26009e-06
-0.00108139
6.12103e-07
-1.57429e-06
-3.65741e-08
-6.00774e-07
-1.36985e-06
-1.68378e-07
-7.54672e-07
4.7833e-07
9.50284e-07
0.00108302
1.26054e-06
-0.00108181
6.12472e-07
-1.57957e-06
-3.48298e-08
-6.03213e-07
-1.37844e-06
-1.63312e-07
-7.60402e-07
4.86715e-07
-6.48252e-07
-6.52938e-07
0.000263475
-9.10958e-07
0.000266453
-0.000264328
-1.34589e-07
-1.29286e-07
6.33982e-07
0.00107996
-6.07299e-07
8.88915e-07
-5.64448e-08
4.62949e-07
-7.71062e-07
-1.37463e-06
-1.86422e-07
-1.58063e-06
1.29605e-06
6.35108e-07
0.00107903
-6.12929e-07
9.25513e-07
-5.14228e-08
4.63085e-07
-7.70678e-07
-1.37436e-06
-1.86296e-07
0.00108364
1.26119e-06
-0.00108243
6.11164e-07
-1.53844e-06
-3.89474e-08
-5.98341e-07
-1.37282e-06
-1.63368e-07
-7.6024e-07
4.81127e-07
9.44887e-07
0.0010827
1.26023e-06
-0.00108149
6.12324e-07
-1.57417e-06
-3.47555e-08
-6.03104e-07
-1.37267e-06
-1.63185e-07
-7.60072e-07
4.81164e-07
1.29585e-06
6.34984e-07
0.00107883
-6.07059e-07
9.20062e-07
-5.61732e-08
4.60207e-07
-7.68057e-07
-1.88961e-07
-1.37173e-06
1.26101e-06
-0.00108216
6.11407e-07
-1.54093e-06
-3.95059e-08
-5.97781e-07
-1.37023e-06
-1.65825e-07
4.78338e-07
-7.57598e-07
9.39546e-07
0.0010825
1.26009e-06
-0.00108129
6.12279e-07
-1.56906e-06
-3.93652e-08
-5.98156e-07
-1.37001e-06
-1.65753e-07
-7.57273e-07
4.78484e-07
-6.45635e-07
-6.52879e-07
0.000263434
-9.05546e-07
0.000266403
-0.000264286
-1.37216e-07
-1.29265e-07
1.29708e-06
6.33962e-07
0.00107987
-6.04754e-07
8.86266e-07
-5.86268e-08
4.57579e-07
-7.68344e-07
-1.88951e-07
-1.36933e-06
1.26078e-06
-0.00108182
6.11338e-07
-1.53548e-06
-4.18507e-08
-5.94964e-07
-1.36997e-06
-1.63276e-07
4.7832e-07
-7.60122e-07
9.05663e-07
0.00108355
1.26121e-06
-0.00108234
6.1126e-07
-1.53593e-06
-4.17844e-08
-5.95828e-07
-1.36759e-06
-1.65733e-07
-7.57547e-07
4.75886e-07
-0.0002643
-1.3449e-07
-1.29178e-07
1.57224e-06
1.53636e-06
-6.27896e-07
-6.33607e-07
0.000264577
-9.68892e-07
-9.32253e-07
0.000267496
-0.000265376
-1.11978e-07
-1.06702e-07
6.053e-07
0.00108379
-5.975e-07
9.50983e-07
-3.20074e-08
4.84554e-07
-7.51236e-07
-1.36933e-06
-1.608e-07
-1.57781e-06
1.24878e-06
6.05492e-07
0.00108422
-6.00787e-07
9.56825e-07
-2.89135e-08
4.92781e-07
-7.56705e-07
-1.37748e-06
-1.55994e-07
0.00108728
1.21473e-06
-0.00108613
5.86762e-07
-1.56731e-06
-1.68946e-08
-5.90408e-07
-1.36594e-06
-1.39686e-07
-7.40585e-07
5.03083e-07
9.73899e-07
0.00108771
1.21519e-06
-0.00108656
5.87082e-07
-1.57265e-06
-1.56538e-08
-5.92954e-07
-1.37454e-06
-1.34483e-07
-7.46281e-07
5.11638e-07
-6.31378e-07
-6.36086e-07
0.000264603
-9.3444e-07
0.000267525
-0.000265401
-1.10347e-07
-1.05049e-07
6.04366e-07
0.00108483
-5.95074e-07
9.14444e-07
-3.43687e-08
4.87245e-07
-7.56837e-07
-1.37217e-06
-1.55818e-07
-1.57241e-06
1.24849e-06
6.05374e-07
0.0010839
-6.00752e-07
9.51411e-07
-2.88919e-08
4.87349e-07
-7.56396e-07
-1.3718e-06
-1.55801e-07
0.00108833
1.21569e-06
-0.00108718
5.85755e-07
-1.53132e-06
-1.91942e-08
-5.87963e-07
-1.36887e-06
-1.3469e-07
-7.46162e-07
5.05871e-07
9.68462e-07
0.00108739
1.21497e-06
-0.00108624
5.87016e-07
-1.56722e-06
-1.55907e-08
-5.92773e-07
-1.36886e-06
-1.34394e-07
-7.46029e-07
5.06048e-07
1.2483e-06
6.05268e-07
0.00108369
-5.94535e-07
9.45732e-07
-3.3925e-08
4.84387e-07
-7.53866e-07
-1.58451e-07
-1.36927e-06
1.21558e-06
-0.00108691
5.86047e-07
-1.53385e-06
-2.01834e-08
-5.87514e-07
-1.36634e-06
-1.37058e-07
5.03165e-07
-7.43521e-07
9.63219e-07
0.00108718
1.21474e-06
-0.00108603
5.86931e-07
-1.56218e-06
-1.9776e-08
-5.88072e-07
-1.36604e-06
-1.3703e-07
-7.43163e-07
5.03297e-07
-6.28794e-07
-6.36057e-07
0.000264562
-9.28978e-07
0.000267475
-0.000265359
-1.1301e-07
-1.05044e-07
1.24941e-06
6.04272e-07
0.00108474
-5.92204e-07
9.1183e-07
-3.6321e-08
4.81727e-07
-7.5415e-07
-1.58433e-07
-1.36686e-06
1.21533e-06
-0.00108657
5.86007e-07
-1.52836e-06
-2.24776e-08
-5.84621e-07
-1.36609e-06
-1.34544e-07
5.03106e-07
-7.46096e-07
9.29231e-07
0.00108824
1.21574e-06
-0.00108709
5.85893e-07
-1.5289e-06
-2.21142e-08
-5.85712e-07
-1.36361e-06
-1.3701e-07
-7.43431e-07
5.00715e-07
-0.000265373
-1.10021e-07
-1.04654e-07
1.56581e-06
1.52978e-06
-6.13284e-07
-6.19042e-07
0.000265632
-9.92536e-07
-9.53121e-07
0.000268501
-0.00026638
-9.03647e-08
-8.50628e-08
5.81665e-07
0.00108841
-5.87896e-07
9.76543e-07
-1.14561e-08
5.09278e-07
-7.3745e-07
-1.36511e-06
-1.32826e-07
-1.57134e-06
1.20451e-06
5.81532e-07
0.00108884
-5.91117e-07
9.79917e-07
-1.0337e-08
5.17554e-07
-7.42841e-07
-1.3732e-06
-1.28011e-07
0.00109173
1.17483e-06
-0.00109064
5.67319e-07
-1.56528e-06
7.67787e-10
-5.86021e-07
-1.36167e-06
-1.14093e-07
-7.27965e-07
5.27383e-07
9.94798e-07
0.00109216
1.17521e-06
-0.00109107
5.67522e-07
-1.56788e-06
-6.30501e-10
-5.85582e-07
-1.3677e-06
-1.08929e-07
-7.3376e-07
5.33097e-07
-6.16682e-07
-6.21464e-07
0.000265659
-9.55215e-07
0.000268528
-0.000266406
-8.89112e-08
-8.35301e-08
5.8058e-07
0.00108946
-5.8547e-07
9.37175e-07
-1.60121e-08
5.12024e-07
-7.43079e-07
-1.368e-06
-1.27856e-07
-1.56599e-06
1.20436e-06
5.81551e-07
0.00108852
-5.91227e-07
9.74467e-07
-1.03595e-08
5.12009e-07
-7.42569e-07
-1.36747e-06
-1.27888e-07
0.00109278
1.17584e-06
-0.00109169
5.66457e-07
-1.52636e-06
-3.66868e-09
-5.80829e-07
-1.3646e-06
-1.09099e-07
-7.33584e-07
5.30067e-07
9.89316e-07
0.00109184
1.17496e-06
-0.00109074
5.67496e-07
-1.56241e-06
-5.84471e-10
-5.85339e-07
-1.3647e-06
-1.08815e-07
-7.33518e-07
5.30345e-07
1.20411e-06
5.81446e-07
0.00108832
-5.84719e-07
9.6859e-07
-1.54135e-08
5.09077e-07
-7.40119e-07
-1.3054e-07
-1.36511e-06
1.17571e-06
-0.00109142
5.66655e-07
-1.52881e-06
-4.68438e-09
-5.80076e-07
-1.36214e-06
-1.11489e-07
5.27351e-07
-7.31011e-07
9.84139e-07
0.00109163
1.17488e-06
-0.00109054
5.67651e-07
-1.55745e-06
-4.16472e-09
-5.80845e-07
-1.36179e-06
-1.11474e-07
-7.30623e-07
5.27476e-07
-6.14192e-07
-6.21543e-07
0.000265618
-9.49745e-07
0.000268478
-0.000266364
-9.15257e-08
-8.35665e-08
1.2051e-06
5.80436e-07
0.00108937
-5.82358e-07
9.34591e-07
-1.77043e-08
5.06376e-07
-7.40413e-07
-1.30516e-07
-1.36273e-06
1.17546e-06
-0.00109108
5.66656e-07
-1.52332e-06
-6.77057e-09
-5.77146e-07
-1.36191e-06
-1.09023e-07
5.27258e-07
-7.33587e-07
9.50043e-07
0.00109269
1.1758e-06
-0.0010916
5.66583e-07
-1.52401e-06
-6.26399e-09
-5.78458e-07
-1.35932e-06
-1.11466e-07
-7.30888e-07
5.24889e-07
-0.000266378
-8.8412e-08
-8.2996e-08
1.56426e-06
1.52523e-06
-6.01361e-07
-6.07025e-07
0.00026662
-1.01004e-06
-9.70474e-07
0.000269441
-0.000267321
-7.25381e-08
-6.70793e-08
5.63209e-07
0.0010928
-5.84056e-07
9.96721e-07
4.59628e-09
5.33215e-07
-7.25327e-07
-1.3611e-06
-1.05558e-07
-1.5672e-06
1.16562e-06
5.62973e-07
0.00109324
-5.84766e-07
1.00003e-06
6.40802e-09
5.38871e-07
-7.30739e-07
-1.3665e-06
-1.03256e-07
0.00109596
1.1396e-06
-0.00109492
5.52474e-07
-1.56321e-06
1.97129e-08
-5.81969e-07
-1.35835e-06
-8.93527e-08
-7.19974e-07
5.50171e-07
1.0122e-06
0.0010964
1.14013e-06
-0.00109536
5.52868e-07
-1.56597e-06
1.77322e-08
-5.81571e-07
-1.36447e-06
-8.66743e-08
-7.23151e-07
5.55833e-07
-6.04886e-07
-6.0954e-07
0.000266647
-9.72485e-07
0.000269468
-0.000267346
-7.12793e-08
-6.57546e-08
5.6251e-07
0.00109386
-5.78758e-07
9.57272e-07
-1.79834e-09
5.36121e-07
-7.30912e-07
-1.36398e-06
-1.03047e-07
-1.56189e-06
1.16547e-06
5.63033e-07
0.00109292
-5.8485e-07
9.94548e-07
6.36711e-09
5.35883e-07
-7.30467e-07
-1.36347e-06
-1.03149e-07
0.00109702
1.141e-06
-0.00109598
5.51619e-07
-1.5242e-06
1.36267e-08
-5.76637e-07
-1.36116e-06
-8.67677e-08
-7.22856e-07
5.52948e-07
1.00693e-06
0.00109608
1.13985e-06
-0.00109504
5.52753e-07
-1.56059e-06
1.79196e-08
-5.82037e-07
-1.36135e-06
-8.65358e-08
-7.22767e-07
5.53239e-07
1.16564e-06
5.63372e-07
0.00109271
-5.7814e-07
9.88673e-07
-1.35512e-09
5.33214e-07
-7.27912e-07
-1.05641e-07
-1.36107e-06
1.14107e-06
-0.00109571
5.51979e-07
-1.52678e-06
1.17264e-08
-5.75909e-07
-1.35877e-06
-8.91068e-08
5.50216e-07
-7.20299e-07
1.00198e-06
0.00109587
1.1399e-06
-0.00109483
5.52603e-07
-1.55526e-06
1.29598e-08
-5.77156e-07
-1.3582e-06
-8.90881e-08
-7.19728e-07
5.50432e-07
-6.023e-07
-6.09652e-07
0.000266605
-9.67175e-07
0.000269418
-0.000267305
-7.38238e-08
-6.55221e-08
1.16667e-06
5.62448e-07
0.00109377
-5.75735e-07
9.54596e-07
-3.24596e-09
5.30496e-07
-7.28203e-07
-1.05612e-07
-1.3587e-06
1.14105e-06
-0.00109537
5.52085e-07
-1.52142e-06
8.70102e-09
-5.73632e-07
-1.35831e-06
-8.64682e-08
5.50405e-07
-7.22605e-07
9.67784e-07
0.00109693
1.14112e-06
-0.00109589
5.51691e-07
-1.52168e-06
9.84819e-09
-5.74662e-07
-1.35568e-06
-8.89872e-08
-7.19925e-07
5.47887e-07
-0.000267319
-7.02116e-08
-6.46404e-08
1.56309e-06
1.52401e-06
-5.93106e-07
-5.98762e-07
0.000267546
-1.02552e-06
-9.85847e-07
0.000270324
-0.000268203
-5.73497e-08
-5.18623e-08
5.49799e-07
0.001097
-5.80826e-07
1.01343e-06
2.18816e-08
5.55669e-07
-7.17701e-07
-1.35805e-06
-8.40134e-08
-1.56607e-06