/*--------------------------------*- C++ -*----------------------------------*\
| =========                 |                                                 |
| \\      /  F ield         | OpenFOAM: The Open Source CFD Toolbox           |
|  \\    /   O peration     | Version:  v1906                                 |
|   \\  /    A nd           | Web:      www.OpenFOAM.com                      |
|    \\/     M anipulation  |                                                 |
\*---------------------------------------------------------------------------*/
FoamFile
{
    version     2.0;
    format      ascii;
    class       volVectorField;
    location    "375";
    object      U;
}
// * * * * * * * * * * * * * * * * * * * * * * * * * * * * * * * * * * * * * //

dimensions      [0 1 -1 0 0 0 0];


internalField   nonuniform List<vector> 
43024
(
(0.000107958 0.000107892 0.100299)
(-0.000190195 0.00011927 0.100385)
(0.000119341 -0.000190187 0.100385)
(-0.000239593 -0.000239612 0.100397)
(9.42792e-05 9.42318e-05 0.10086)
(-0.000158939 9.68065e-05 0.100942)
(9.68112e-05 -0.000158935 0.100942)
(-0.000201046 -0.000201099 0.100968)
(9.54246e-05 9.54125e-05 0.10137)
(-0.000155796 9.34672e-05 0.101449)
(9.34566e-05 -0.000155804 0.101449)
(-0.000201988 -0.00020204 0.101471)
(9.38825e-05 9.38731e-05 0.101892)
(-0.000152046 9.00879e-05 0.101957)
(9.01e-05 -0.000152051 0.101957)
(-0.000198944 -0.000198989 0.101964)
(9.11289e-05 9.11276e-05 0.102398)
(-0.000146287 8.55679e-05 0.102446)
(8.55811e-05 -0.000146291 0.102446)
(-0.000193526 -0.000193574 0.102432)
(8.81546e-05 8.81594e-05 0.102885)
(-0.000140619 8.15907e-05 0.102912)
(8.16055e-05 -0.000140624 0.102912)
(-0.00018809 -0.000188137 0.102871)
(8.53249e-05 8.53404e-05 0.103353)
(-0.000135485 7.83777e-05 0.103354)
(7.84097e-05 -0.000135494 0.103354)
(-0.000183535 -0.000183588 0.103281)
(8.28459e-05 8.28618e-05 0.103803)
(-0.000131056 7.59258e-05 0.103774)
(7.59701e-05 -0.000131064 0.103774)
(-0.000180026 -0.000180109 0.103664)
(8.06434e-05 8.06076e-05 0.104237)
(-0.000127311 7.42181e-05 0.104174)
(7.42324e-05 -0.000127318 0.104174)
(-0.000177847 -0.000177886 0.104023)
(7.87047e-05 7.86805e-05 0.104658)
(-0.000124106 7.29129e-05 0.104557)
(7.28982e-05 -0.000124087 0.104557)
(-0.000176939 -0.000176993 0.104358)
(7.7094e-05 7.70762e-05 0.105066)
(-0.000121243 7.1716e-05 0.104924)
(7.17511e-05 -0.000121262 0.104924)
(-0.000176065 -0.000176128 0.104673)
(7.55795e-05 7.55646e-05 0.105464)
(-0.000118704 7.06331e-05 0.105277)
(7.0636e-05 -0.000118691 0.105277)
(-0.000175711 -0.000175787 0.104967)
(7.41531e-05 7.41424e-05 0.105851)
(-0.000116283 6.94649e-05 0.105615)
(6.94935e-05 -0.000116287 0.105615)
(-0.000175563 -0.000175668 0.10524)
(7.27067e-05 7.27015e-05 0.106229)
(-0.000113868 6.82123e-05 0.105938)
(6.82099e-05 -0.000113849 0.105938)
(-0.000175282 -0.000175299 0.105491)
(7.13624e-05 7.13556e-05 0.106597)
(-0.000111598 6.71894e-05 0.106248)
(6.71581e-05 -0.000111564 0.106248)
(-0.000174271 -0.000174291 0.10572)
(6.98626e-05 6.98669e-05 0.106957)
(-0.000109422 6.61343e-05 0.106543)
(6.61059e-05 -0.000109454 0.106543)
(-0.000173414 -0.000173445 0.105926)
(6.83954e-05 6.84001e-05 0.107308)
(-0.000107414 6.51018e-05 0.106822)
(6.50938e-05 -0.000107462 0.106822)
(-0.000172059 -0.000172092 0.106108)
(6.68079e-05 6.68171e-05 0.107649)
(-0.000105385 6.39877e-05 0.107086)
(6.39612e-05 -0.000105379 0.107086)
(-0.000170478 -0.000170531 0.106264)
(6.53344e-05 6.53511e-05 0.107982)
(-0.000103551 6.29754e-05 0.107334)
(6.29067e-05 -0.000103531 0.107334)
(-0.000168 -0.000168046 0.106394)
(6.38603e-05 6.3872e-05 0.108306)
(-0.000101584 6.1918e-05 0.107565)
(6.19055e-05 -0.000101591 0.107565)
(-0.00016559 -0.000165637 0.106496)
(6.23132e-05 6.23352e-05 0.108622)
(-9.95511e-05 6.08775e-05 0.107779)
(6.0875e-05 -9.9548e-05 0.107779)
(-0.000162588 -0.000162638 0.106572)
(0.000134959 0.000134949 0.100282)
(0.000124248 0.000152867 0.100229)
(-0.00012424 0.000152848 0.100229)
(-0.000134956 0.000134917 0.100282)
(0.000152896 0.0001242 0.100229)
(0.000152868 -0.000124217 0.100229)
(9.08046e-05 9.07529e-05 0.100151)
(-9.07948e-05 9.07503e-05 0.100151)
(9.0779e-05 -9.07988e-05 0.100151)
(-9.07765e-05 -9.07968e-05 0.100151)
(-0.000152892 0.000124196 0.100229)
(-0.000152878 -0.000124213 0.100229)
(0.000134949 -0.000134968 0.100282)
(0.000124201 -0.000152897 0.100229)
(-0.000124198 -0.00015288 0.100229)
(-0.000134957 -0.000134941 0.100282)
(0.000239636 0.000239615 0.100397)
(0.000111305 0.000111178 0.100892)
(0.000119392 0.000190088 0.100385)
(-0.000119343 0.000190129 0.100385)
(8.91024e-05 0.000147213 0.100823)
(-8.90639e-05 0.00014721 0.100823)
(-0.000239645 0.000239563 0.100397)
(-0.000111266 0.000111147 0.100892)
(0.000190231 0.000119289 0.100385)
(0.000190169 -0.000119349 0.100385)
(0.000147189 8.90738e-05 0.100823)
(0.000147222 -8.90949e-05 0.100823)
(-0.000190151 -0.000119353 0.100385)
(-0.000147158 8.9075e-05 0.100823)
(-0.000147179 -8.9089e-05 0.100823)
(0.000239567 -0.000239657 0.100397)
(0.000111257 -0.00011127 0.100892)
(-0.000119321 -0.000190216 0.100385)
(8.90759e-05 -0.000147148 0.100823)
(-8.90553e-05 -0.000147173 0.100823)
(-0.000111254 -0.000111273 0.100892)
(0.000201135 0.000200968 0.100968)
(0.000105726 0.000105646 0.101395)
(9.68198e-05 0.000158993 0.100941)
(-9.67928e-05 0.000158989 0.100941)
(9.41999e-05 0.000156671 0.10132)
(-9.41999e-05 0.000156672 0.10132)
(-0.000201097 0.000200935 0.100967)
(-0.000105715 0.000105639 0.101395)
(0.000158972 9.68003e-05 0.100942)
(0.00015899 -9.68129e-05 0.100942)
(0.000156627 9.42042e-05 0.10132)
(0.000156667 -9.42071e-05 0.10132)
(-0.000158967 -9.68078e-05 0.100942)
(-0.000156623 9.42127e-05 0.10132)
(-0.000156645 -9.41975e-05 0.10132)
(0.000201043 -0.000201107 0.100968)
(0.000105689 -0.000105702 0.101395)
(-9.67931e-05 -0.000158961 0.100942)
(9.42008e-05 -0.000156624 0.10132)
(-9.4207e-05 -0.000156644 0.10132)
(-0.000105703 -0.00010571 0.101395)
(0.000202057 0.000201929 0.101471)
(9.66262e-05 9.65659e-05 0.101893)
(9.3449e-05 0.000155854 0.101449)
(-9.34544e-05 0.000155851 0.101449)
(9.11466e-05 0.000153335 0.101832)
(-9.11342e-05 0.000153325 0.101832)
(-0.000202042 0.000201909 0.101471)
(-9.65858e-05 9.65374e-05 0.101893)
(0.000155804 9.34627e-05 0.101449)
(0.000155845 -9.34584e-05 0.101449)
(0.000153277 9.11493e-05 0.101832)
(0.00015331 -9.11335e-05 0.101832)
(-0.000155827 -9.34518e-05 0.101449)
(-0.000153272 9.11406e-05 0.101832)
(-0.00015331 -9.11387e-05 0.101832)
(0.000201966 -0.000202042 0.101471)
(9.65587e-05 -9.65929e-05 0.101893)
(-9.34643e-05 -0.000155826 0.101449)
(9.11485e-05 -0.000153275 0.101832)
(-9.11391e-05 -0.000153284 0.101832)
(-9.66371e-05 -9.66387e-05 0.101893)
(0.000198959 0.000198856 0.101964)
(8.60568e-05 8.601e-05 0.102366)
(9.00954e-05 0.00015211 0.101957)
(-9.00837e-05 0.000152099 0.101957)
(8.66906e-05 0.000147832 0.102326)
(-8.66826e-05 0.000147827 0.102326)
(-0.000198958 0.000198851 0.101964)
(-8.60563e-05 8.60301e-05 0.102366)
(0.000152053 9.00969e-05 0.101957)
(0.000152084 -9.00811e-05 0.101957)
(0.000147775 8.66902e-05 0.102326)
(0.000147809 -8.66743e-05 0.102326)
(-0.000152085 -9.00846e-05 0.101957)
(-0.000147772 8.66868e-05 0.102326)
(-0.000147814 -8.66829e-05 0.102326)
(0.000198878 -0.000198976 0.101964)
(8.60273e-05 -8.60653e-05 0.102366)
(-9.00841e-05 -0.000152055 0.101957)
(8.66989e-05 -0.000147775 0.102326)
(-8.6679e-05 -0.000147774 0.102326)
(-8.61248e-05 -8.61273e-05 0.102366)
(0.00019353 0.000193445 0.102432)
(7.59753e-05 7.59397e-05 0.102812)
(8.55803e-05 0.000146352 0.102446)
(-8.55654e-05 0.000146345 0.102446)
(8.25178e-05 0.000142059 0.102797)
(-8.25214e-05 0.000142068 0.102797)
(-0.000193609 0.000193517 0.102432)
(-7.61213e-05 7.61063e-05 0.102812)
(0.000146296 8.55806e-05 0.102446)
(0.000146322 -8.55536e-05 0.102446)
(0.000142001 8.25193e-05 0.102798)
(0.000142039 -8.25058e-05 0.102798)
(-0.000146333 -8.55658e-05 0.102446)
(-0.000142003 8.25293e-05 0.102798)
(-0.000142045 -8.25115e-05 0.102798)
(0.00019353 -0.000193625 0.102432)
(7.60898e-05 -7.61245e-05 0.102812)
(-8.5563e-05 -0.00014629 0.102446)
(8.25407e-05 -0.000142007 0.102798)
(-8.25077e-05 -0.000141995 0.102798)
(-7.61071e-05 -7.61086e-05 0.102812)
(0.000188149 0.000188073 0.10287)
(6.69389e-05 6.69105e-05 0.103229)
(8.16087e-05 0.000140688 0.102912)
(-8.15867e-05 0.000140688 0.102912)
(7.91169e-05 0.000136768 0.103245)
(-7.91134e-05 0.000136774 0.103245)
(-0.000188229 0.000188142 0.102871)
(-6.71989e-05 6.71792e-05 0.103229)
(0.000140633 8.16086e-05 0.102912)
(0.000140654 -8.15681e-05 0.102912)
(0.000136715 7.91209e-05 0.103245)
(0.000136754 -7.9104e-05 0.103245)
(-0.000140675 -8.15948e-05 0.102912)
(-0.000136716 7.91289e-05 0.103245)
(-0.000136758 -7.91122e-05 0.103245)
(0.000188162 -0.000188253 0.102871)
(6.71695e-05 -6.72085e-05 0.103229)
(-8.15929e-05 -0.000140624 0.102912)
(7.91536e-05 -0.000136723 0.103245)
(-7.91082e-05 -0.000136705 0.103245)
(-6.71277e-05 -6.71301e-05 0.10323)
(0.000183632 0.000183554 0.10328)
(5.89764e-05 5.89289e-05 0.103621)
(7.84102e-05 0.000135557 0.103354)
(-7.83659e-05 0.000135543 0.103354)
(7.64616e-05 0.000132152 0.103671)
(-7.6461e-05 0.000132157 0.103671)
(-0.000183693 0.000183591 0.103281)
(-5.92726e-05 5.9256e-05 0.10362)
(0.000135507 7.84153e-05 0.103354)
(0.000135521 -7.83546e-05 0.103354)
(0.000132103 7.64911e-05 0.103671)
(0.000132136 -7.64542e-05 0.103671)
(-0.00013555 -7.84014e-05 0.103354)
(-0.000132103 7.64942e-05 0.103671)
(-0.000132144 -7.64781e-05 0.103671)
(0.000183643 -0.000183753 0.103281)
(5.92345e-05 -5.92944e-05 0.10362)
(-7.84016e-05 -0.000135496 0.103354)
(7.65279e-05 -0.000132113 0.103671)
(-7.64786e-05 -0.00013209 0.103671)
(-5.91707e-05 -5.91755e-05 0.103621)
(0.000180104 0.000179975 0.103664)
(5.24452e-05 5.24657e-05 0.103988)
(7.59565e-05 0.000131122 0.103774)
(-7.59362e-05 0.000131119 0.103774)
(7.4701e-05 0.00012827 0.104076)
(-7.47067e-05 0.000128284 0.104076)
(-0.000180201 0.000180071 0.103664)
(-5.27912e-05 5.28453e-05 0.103987)
(0.000131073 7.59633e-05 0.103774)
(0.000131096 -7.59254e-05 0.103774)
(0.000128216 7.4633e-05 0.104076)
(0.000128251 -7.46874e-05 0.104076)
(-0.000131107 -7.59382e-05 0.103774)
(-0.000128215 7.46293e-05 0.104076)
(-0.000128235 -7.46205e-05 0.104076)
(0.000180102 -0.000180295 0.103664)
(5.27731e-05 -5.27012e-05 0.103988)
(-7.59486e-05 -0.000131053 0.103774)
(7.46123e-05 -0.000128197 0.104076)
(-7.45741e-05 -0.000128168 0.104076)
(-5.25154e-05 -5.24816e-05 0.103988)
(0.000178093 0.000178032 0.104022)
(4.68047e-05 4.68128e-05 0.104333)
(7.43353e-05 0.000127393 0.104174)
(-7.42943e-05 0.000127382 0.104174)
(7.32664e-05 0.000124901 0.104463)
(-7.32716e-05 0.000124926 0.104463)
(-0.000178228 0.000178183 0.104023)
(-4.68406e-05 4.68849e-05 0.104333)
(0.000127341 7.42716e-05 0.104174)
(0.000127371 -7.43043e-05 0.104174)
(0.000124844 7.32055e-05 0.104463)
(0.00012492 -7.32885e-05 0.104463)
(-0.000127381 -7.4282e-05 0.104174)
(-0.000124853 7.31984e-05 0.104463)
(-0.00012492 -7.32505e-05 0.104463)
(0.000178011 -0.000178076 0.104023)
(4.6899e-05 -4.68491e-05 0.104332)
(-7.42319e-05 -0.000127315 0.104174)
(7.32159e-05 -0.00012486 0.104463)
(-7.31999e-05 -0.00012485 0.104463)
(-4.68817e-05 -4.68674e-05 0.104332)
(0.000176671 0.000176596 0.104359)
(4.14207e-05 4.14346e-05 0.104657)
(7.30008e-05 0.000124175 0.104557)
(-7.29843e-05 0.000124181 0.104557)
(7.21174e-05 0.00012202 0.104834)
(-7.21092e-05 0.000122019 0.104834)
(-0.000176884 0.000176824 0.104358)
(-4.16972e-05 4.17503e-05 0.104657)
(0.000124118 7.29463e-05 0.104557)
(0.000124147 -7.29659e-05 0.104557)
(0.00012195 7.20635e-05 0.104834)
(0.000121984 -7.20789e-05 0.104834)
(-0.000124139 -7.29185e-05 0.104557)
(-0.00012194 7.20348e-05 0.104834)
(-0.000121986 -7.20378e-05 0.104834)
(0.000176913 -0.000176987 0.104358)
(4.15293e-05 -4.14955e-05 0.104657)
(-7.28681e-05 -0.000124068 0.104557)
(7.20119e-05 -0.000121919 0.104834)
(-7.19896e-05 -0.000121913 0.104834)
(-4.12822e-05 -4.12781e-05 0.104657)
(0.000176181 0.000176113 0.104673)
(3.65804e-05 3.65639e-05 0.104961)
(7.187e-05 0.000121359 0.104924)
(-7.1791e-05 0.000121319 0.104924)
(7.10152e-05 0.000119398 0.10519)
(-7.09799e-05 0.000119403 0.10519)
(-0.000176406 0.000176348 0.104673)
(-3.62493e-05 3.62911e-05 0.104961)
(0.000121292 7.18163e-05 0.104924)
(0.000121328 -7.18165e-05 0.104924)
(0.000119338 7.09611e-05 0.10519)
(0.0001194 -7.09881e-05 0.10519)
(-0.00012134 -7.1808e-05 0.104924)
(-0.000119332 7.09081e-05 0.10519)
(-0.00011939 -7.09486e-05 0.10519)
(0.000176124 -0.000176209 0.104673)
(3.6322e-05 -3.63057e-05 0.104961)
(-7.17555e-05 -0.000121265 0.104924)
(7.0928e-05 -0.000119331 0.10519)
(-7.08989e-05 -0.000119314 0.10519)
(-3.63615e-05 -3.63695e-05 0.104961)
(0.000175949 0.000175852 0.104967)
(3.12966e-05 3.12668e-05 0.105246)
(7.06955e-05 0.000118758 0.105277)
(-7.07105e-05 0.000118774 0.105276)
(6.9856e-05 0.000116951 0.105531)
(-6.98155e-05 0.000116929 0.105531)
(-0.000175899 0.000175832 0.104966)
(-3.14264e-05 3.14492e-05 0.105247)
(0.0001187 7.06501e-05 0.105277)
(0.00011876 -7.07005e-05 0.105276)
(0.000116889 6.98111e-05 0.105531)
(0.000116913 -6.98024e-05 0.105531)
(-0.000118782 -7.06823e-05 0.105276)
(-0.000116861 6.97502e-05 0.105531)
(-0.000116931 -6.97966e-05 0.105531)
(0.000175851 -0.000175951 0.104966)
(3.13773e-05 -3.139e-05 0.105247)
(-7.06325e-05 -0.000118704 0.105277)
(6.97499e-05 -0.000116842 0.105531)
(-6.97531e-05 -0.000116852 0.105531)
(-3.16237e-05 -3.16478e-05 0.105246)
(0.000175548 0.000175433 0.105239)
(2.6658e-05 2.66351e-05 0.105511)
(6.95463e-05 0.000116336 0.105614)
(-6.95245e-05 0.000116351 0.105614)
(6.85722e-05 0.000114536 0.105859)
(-6.86061e-05 0.000114562 0.105858)
(-0.000175487 0.000175393 0.10524)
(-2.65252e-05 2.66377e-05 0.105511)
(0.000116277 6.95089e-05 0.105615)
(0.000116356 -6.9537e-05 0.105614)
(0.000114463 6.85337e-05 0.105859)
(0.000114568 -6.86253e-05 0.105858)
(-0.00011633 -6.9465e-05 0.105614)
(-0.000114488 6.85214e-05 0.105859)
(-0.000114572 -6.85733e-05 0.105859)
(0.000175276 -0.000175419 0.10524)
(2.66189e-05 -2.65501e-05 0.105511)
(-6.9424e-05 -0.00011625 0.105615)
(6.85596e-05 -0.000114483 0.105859)
(-6.85055e-05 -0.000114481 0.105859)
(-2.63396e-05 -2.62834e-05 0.105511)
(0.000175188 0.000175122 0.105491)
(2.10687e-05 2.11288e-05 0.105756)
(6.83252e-05 0.000113981 0.105938)
(-6.83163e-05 0.000113945 0.105938)
(6.75395e-05 0.000112241 0.106172)
(-6.75267e-05 0.000112214 0.106172)
(-0.000175378 0.000175381 0.105491)
(-2.11504e-05 2.12886e-05 0.105756)
(0.000113908 6.82613e-05 0.105938)
(0.000113937 -6.83107e-05 0.105938)
(0.000112172 6.74618e-05 0.106172)
(0.000112216 -6.75239e-05 0.106172)
(-0.000113958 -6.83015e-05 0.105938)
(-0.000112146 6.74207e-05 0.106172)
(-0.000112216 -6.75041e-05 0.106172)
(0.000175426 -0.000175485 0.105491)
(2.12338e-05 -2.11058e-05 0.105755)
(-6.82159e-05 -0.000113862 0.105938)
(6.74039e-05 -0.000112126 0.106172)
(-6.741e-05 -0.000112119 0.106172)
(-2.15366e-05 -2.14685e-05 0.105755)
(0.000174422 0.000174389 0.10572)
(1.64278e-05 1.64972e-05 0.105978)
(6.72911e-05 0.000111653 0.106247)
(-6.72877e-05 0.000111673 0.106247)
(6.64886e-05 0.000110043 0.10647)
(-6.6535e-05 0.000110077 0.10647)
(-0.000174159 0.000174158 0.10572)
(-1.65175e-05 1.66296e-05 0.105977)
(0.00011159 6.72181e-05 0.106248)
(0.000111655 -6.72744e-05 0.106247)
(0.000109993 6.64239e-05 0.10647)
(0.000110062 -6.65165e-05 0.10647)
(-0.000111667 -6.72388e-05 0.106248)
(-0.000109938 6.64099e-05 0.10647)
(-0.000110014 -6.64716e-05 0.10647)
(0.00017423 -0.000174243 0.10572)
(1.67471e-05 -1.66459e-05 0.105977)
(-6.71432e-05 -0.000111564 0.106248)
(6.63936e-05 -0.000109968 0.10647)
(-6.63774e-05 -0.000109913 0.10647)
(-1.63916e-05 -1.63314e-05 0.105977)
(0.000173238 0.000173217 0.105926)
(1.15679e-05 1.163e-05 0.106176)
(6.62741e-05 0.00010957 0.106542)
(-6.62586e-05 0.00010956 0.106542)
(6.54749e-05 0.000108052 0.106753)
(-6.54598e-05 0.000108033 0.106753)
(-0.000173496 0.00017349 0.105926)
(-1.1546e-05 1.16178e-05 0.106177)
(0.000109527 6.62101e-05 0.106543)
(0.000109546 -6.6226e-05 0.106542)
(0.000108013 6.54093e-05 0.106754)
(0.000108044 -6.54432e-05 0.106753)
(-0.000109508 -6.62175e-05 0.106542)
(-0.000107924 6.53434e-05 0.106754)
(-0.00010801 -6.54412e-05 0.106753)
(0.000173577 -0.000173611 0.105926)
(1.16011e-05 -1.15107e-05 0.106176)
(-6.61238e-05 -0.000109402 0.106543)
(6.53213e-05 -0.000107948 0.106754)
(-6.53456e-05 -0.000107904 0.106754)
(-1.17486e-05 -1.17033e-05 0.106176)
(0.000172195 0.00017217 0.106107)
(7.8609e-06 7.92906e-06 0.10635)
(6.51887e-05 0.000107494 0.106822)
(-6.52098e-05 0.00010753 0.106822)
(6.43657e-05 0.000105948 0.107021)
(-6.43909e-05 0.000105984 0.107021)
(-0.000171922 0.000171872 0.106108)
(-7.65979e-06 7.71519e-06 0.10635)
(0.000107459 6.51235e-05 0.106822)
(0.000107561 -6.52173e-05 0.106822)
(0.000105919 6.43011e-05 0.107022)
(0.000106022 -6.44098e-05 0.107021)
(-0.000107488 -6.51547e-05 0.106822)
(-0.000105872 6.42795e-05 0.107022)
(-0.000105958 -6.43568e-05 0.107021)
(0.000171796 -0.000171849 0.106108)
(7.72269e-06 -7.62376e-06 0.10635)
(-6.50558e-05 -0.000107372 0.106822)
(6.42823e-05 -0.000105919 0.107022)
(-6.42528e-05 -0.000105839 0.107022)
(-7.77148e-06 -7.72507e-06 0.10635)
(0.000170599 0.000170566 0.106264)
(3.53318e-06 3.58946e-06 0.106499)
(6.40525e-05 0.000105472 0.107086)
(-6.40964e-05 0.000105482 0.107086)
(6.32669e-05 0.000104091 0.107273)
(-6.32845e-05 0.000104088 0.107273)
(-0.000170544 0.0001705 0.106264)
(-3.54592e-06 3.63304e-06 0.106499)
(0.000105425 6.39919e-05 0.107086)
(0.000105479 -6.40861e-05 0.107086)
(0.000104029 6.32161e-05 0.107274)
(0.000104082 -6.32963e-05 0.107273)
(-0.000105463 -6.40556e-05 0.107086)
(-0.000103991 6.31906e-05 0.107274)
(-0.000104071 -6.3264e-05 0.107273)
(0.000170712 -0.000170757 0.106264)
(3.92745e-06 -3.83869e-06 0.106498)
(-6.3953e-05 -0.000105359 0.107086)
(6.31745e-05 -0.000103978 0.107274)
(-6.31655e-05 -0.000103969 0.107274)
(-3.56956e-06 -3.53387e-06 0.106498)
(0.000167955 0.000167921 0.106394)
(-1.12317e-07 -4.35915e-08 0.106619)
(6.30553e-05 0.000103656 0.107334)
(-6.30612e-05 0.000103652 0.107333)
(6.2262e-05 0.000102168 0.107508)
(-6.22599e-05 0.000102185 0.107508)
(-0.000167976 0.00016795 0.106394)
(1.93453e-07 -1.07812e-07 0.10662)
(0.000103588 6.30092e-05 0.107334)
(0.000103635 -6.30265e-05 0.107333)
(0.000102117 6.22031e-05 0.107509)
(0.000102181 -6.22403e-05 0.107508)
(-0.000103619 -6.30314e-05 0.107334)
(-0.000102086 6.2159e-05 0.107509)
(-0.000102161 -6.22437e-05 0.107508)
(0.000168167 -0.000168223 0.106394)
(-5.45777e-08 1.27982e-07 0.106619)
(-6.29351e-05 -0.000103514 0.107334)
(6.21196e-05 -0.000102073 0.107509)
(-6.21382e-05 -0.000102056 0.107509)
(1.89163e-08 5.71302e-08 0.106619)
(0.000165624 0.000165588 0.106496)
(-2.83615e-06 -2.77365e-06 0.106713)
(6.20013e-05 0.000101646 0.107565)
(-6.20216e-05 0.000101671 0.107565)
(6.12508e-05 0.000100148 0.107726)
(-6.12443e-05 0.000100185 0.107726)
(-0.000165463 0.000165435 0.106496)
(2.97652e-06 -2.92866e-06 0.106713)
(0.000101607 6.19414e-05 0.107565)
(0.000101698 -6.20251e-05 0.107564)
(0.00010011 6.11967e-05 0.107727)
(0.000100195 -6.12569e-05 0.107726)
(-0.000101649 -6.19823e-05 0.107565)
(-0.000100082 6.11552e-05 0.107727)
(-0.000100143 -6.12123e-05 0.107726)
(0.000165359 -0.000165418 0.106497)
(-3.03393e-06 3.10126e-06 0.106712)
(-6.18752e-05 -0.000101548 0.107565)
(6.11369e-05 -0.000100088 0.107727)
(-6.11106e-05 -0.000100039 0.107727)
(2.8193e-06 2.86094e-06 0.106712)
(0.000162683 0.000162641 0.106572)
(6.09249e-05 9.9593e-05 0.107778)
(-6.0962e-05 9.96491e-05 0.107778)
(-0.0001626 0.000162541 0.106572)
(9.95609e-05 6.08796e-05 0.107779)
(9.96553e-05 -6.09897e-05 0.107778)
(-9.96201e-05 -6.09191e-05 0.107778)
(0.000162516 -0.000162578 0.106572)
(-6.08165e-05 -9.95138e-05 0.107779)
(-3.34132e-07 -3.36787e-07 0.0999988)
(1.68283e-05 1.68229e-05 0.100003)
(-4.50614e-07 1.39328e-05 0.1)
(1.39404e-05 -4.53158e-07 0.1)
(-4.66041e-05 5.72833e-06 0.100009)
(-1.5271e-05 1.55876e-05 0.0999999)
(-0.000127914 6.04505e-05 0.100058)
(-1.31109e-05 -8.63778e-07 0.0999958)
(5.72261e-06 -4.6588e-05 0.100009)
(1.55911e-05 -1.52709e-05 0.0999999)
(-8.61904e-07 -1.31088e-05 0.0999958)
(6.04608e-05 -0.000127844 0.100058)
(-1.87248e-05 -1.8728e-05 0.100003)
(-0.000134955 -8.10569e-05 0.100054)
(-8.10646e-05 -0.000134935 0.100055)
(-3.47637e-05 0.00013605 0.100724)
(0.000177041 0.000388502 0.0994165)
(2.38601e-06 0.000305452 0.100516)
(-8.40122e-05 0.000243385 0.0991476)
(-0.000303488 0.000837902 0.0977722)
(-0.000129194 0.000304519 0.0957183)
(0.00013578 -3.49088e-05 0.100724)
(0.000389119 0.000176003 0.0994172)
(0.000306204 2.24711e-06 0.100517)
(0.00024351 -8.39096e-05 0.099148)
(-0.000107942 0.000107894 0.100299)
(0.000107929 -0.000107939 0.100299)
(-0.00010792 -0.000107948 0.100299)
(9.17524e-05 9.16833e-05 0.100739)
(-9.17083e-05 9.17007e-05 0.100739)
(9.17375e-05 -9.1751e-05 0.100739)
(-9.17168e-05 -9.17613e-05 0.100739)
(-0.000280711 6.40021e-06 0.100754)
(-0.000399056 0.000229238 0.100526)
(-0.000175286 3.73829e-05 0.100332)
(-0.000153241 9.45079e-05 0.100558)
(-0.000358992 1.56361e-05 0.100479)
(-0.000148844 0.000198779 0.100739)
(-0.000152721 3.32782e-05 0.100497)
(0.000836863 -0.000301612 0.0977703)
(0.000304529 -0.000128801 0.0957195)
(6.35204e-06 -0.000280625 0.100754)
(3.74181e-05 -0.000175261 0.100332)
(0.000229337 -0.000399038 0.100526)
(9.44673e-05 -0.00015323 0.100558)
(1.56327e-05 -0.000358868 0.100479)
(3.33271e-05 -0.000152706 0.100497)
(0.000198817 -0.000148838 0.100739)
(-0.000372642 -0.000141969 0.100361)
(-0.000142173 -0.000372889 0.100361)
(-0.000111979 -0.000112054 0.100655)
(1.10747e-05 -7.89049e-05 0.10059)
(-7.91629e-05 1.10943e-05 0.10059)
(-1.65346e-05 0.000198348 0.100868)
(-5.49122e-05 0.000288098 0.0983199)
(-2.02838e-05 0.00020874 0.100777)
(-4.48012e-05 0.000271125 0.0979454)
(-0.00015038 0.000313465 0.0926213)
(-0.000137206 0.000273095 0.0909996)
(0.00019827 -1.66925e-05 0.100867)
(0.000288349 -5.47977e-05 0.0983202)
(0.000208787 -2.04236e-05 0.100778)
(0.000271257 -4.47343e-05 0.0979456)
(-9.42335e-05 9.42494e-05 0.10086)
(9.42898e-05 -9.42834e-05 0.10086)
(-9.42674e-05 -9.4282e-05 0.10086)
(9.61986e-05 9.61822e-05 0.101239)
(-9.61704e-05 9.61985e-05 0.101239)
(9.62121e-05 -9.62079e-05 0.101239)
(-9.62058e-05 -9.62021e-05 0.101239)
(-0.000263626 1.32867e-05 0.101153)
(-0.000219018 0.000214166 0.100818)
(-0.000164512 3.10415e-05 0.100897)
(-0.000160205 9.74313e-05 0.101064)
(-0.000297969 1.41211e-05 0.100977)
(-0.00018331 0.000197898 0.100945)
(-0.000168725 3.24797e-05 0.101019)
(0.000313435 -0.000150093 0.0926194)
(0.000273202 -0.000137052 0.0910013)
(1.33591e-05 -0.000263604 0.101153)
(3.11141e-05 -0.000164509 0.100897)
(0.00021424 -0.000219093 0.100819)
(9.74274e-05 -0.000160204 0.101064)
(1.42136e-05 -0.000297939 0.100977)
(3.25464e-05 -0.000168722 0.101019)
(0.000197859 -0.000183249 0.100945)
(-8.38789e-05 -9.71655e-05 0.100438)
(-9.7274e-05 -8.38975e-05 0.100438)
(-0.000112481 -0.000112481 0.101144)
(-8.66531e-05 -8.26156e-05 0.10043)
(-8.27483e-05 -8.67051e-05 0.10043)
(-9.36789e-06 0.000210796 0.100957)
(-2.19385e-05 0.000281521 0.0971363)
(-1.16095e-05 0.000230431 0.100902)
(-1.22616e-05 0.000256968 0.0967129)
(-0.000117396 0.000225941 0.0883852)
(-9.6915e-05 0.000187293 0.0870651)
(0.000210722 -9.48574e-06 0.100956)
(0.000281659 -2.18736e-05 0.0971363)
(0.000230485 -1.17269e-05 0.100903)
(0.000257076 -1.21806e-05 0.0967131)
(-9.5397e-05 9.54289e-05 0.10137)
(9.5438e-05 -9.5434e-05 0.10137)
(-9.54305e-05 -9.54291e-05 0.10137)
(9.43491e-05 9.43391e-05 0.101763)
(-9.43265e-05 9.43611e-05 0.101763)
(9.43738e-05 -9.43534e-05 0.101763)
(-9.4356e-05 -9.43564e-05 0.101763)
(-0.000251009 1.22055e-05 0.10158)
(-0.000222529 0.000190505 0.101028)
(-0.000167313 3.27723e-05 0.101407)
(-0.000155159 9.28657e-05 0.101577)
(-0.00029018 1.20926e-05 0.101414)
(-0.000182288 0.000169373 0.101124)
(-0.000167151 3.27081e-05 0.101537)
(0.000225787 -0.000117145 0.0883823)
(0.000187371 -9.68352e-05 0.0870667)
(1.22556e-05 -0.000250994 0.10158)
(3.28136e-05 -0.000167324 0.101407)
(0.000190536 -0.000222578 0.101028)
(9.28615e-05 -0.000155165 0.101577)
(1.21469e-05 -0.000290183 0.101414)
(3.27441e-05 -0.000167149 0.101537)
(0.000169322 -0.000182231 0.101123)
(-0.000116087 -9.15128e-05 0.100182)
(-9.16157e-05 -0.00011616 0.100182)
(-0.00010149 -0.000101495 0.101646)
(-0.000111957 -7.23176e-05 0.100086)
(-7.24016e-05 -0.000112031 0.100086)
(-6.96856e-06 0.000210206 0.100953)
(5.49714e-06 0.000258164 0.0958568)
(-7.87465e-06 0.000236272 0.100926)
(1.02242e-05 0.000229591 0.0954234)
(-7.73593e-05 0.000150042 0.084977)
(-5.91683e-05 0.000118919 0.083966)
(0.000210129 -7.04649e-06 0.100952)
(0.000258237 5.55382e-06 0.0958567)
(0.00023635 -7.9563e-06 0.100928)
(0.000229695 1.03055e-05 0.0954237)
(-9.38646e-05 9.38994e-05 0.101892)
(9.39129e-05 -9.38882e-05 0.101892)
(-9.38914e-05 -9.38919e-05 0.101892)
(9.18704e-05 9.18669e-05 0.102273)
(-9.18555e-05 9.18946e-05 0.102273)
(9.19059e-05 -9.18706e-05 0.102273)
(-9.18844e-05 -9.18829e-05 0.102273)
(-0.000238539 1.11482e-05 0.101978)
(-0.000219854 0.000162771 0.101141)
(-0.000165096 3.2094e-05 0.101923)
(-0.000150696 8.89753e-05 0.102081)
(-0.000282652 1.10159e-05 0.101822)
(-0.000175024 0.000141251 0.101214)
(-0.000163802 3.17576e-05 0.10205)
(0.000149878 -7.71671e-05 0.0849738)
(0.000119008 -5.914e-05 0.0839675)
(1.11891e-05 -0.00023853 0.101978)
(3.2114e-05 -0.000165095 0.101923)
(0.000162821 -0.000219917 0.101142)
(8.89874e-05 -0.000150699 0.102081)
(1.10542e-05 -0.000282668 0.101822)
(3.17731e-05 -0.000163787 0.10205)
(0.0001412 -0.000174968 0.101213)
(-0.000133083 -7.94475e-05 0.0997189)
(-7.95111e-05 -0.00013315 0.0997187)
(-9.14152e-05 -9.14179e-05 0.102133)
(-0.000123676 -6.02176e-05 0.0995709)
(-6.02717e-05 -0.000123744 0.09957)
(-6.43173e-06 0.000202304 0.100852)
(1.89472e-05 0.000226949 0.0945602)
(-6.82913e-06 0.000231218 0.100852)
(1.86614e-05 0.000197471 0.0941434)
(-4.54654e-05 9.54013e-05 0.0823424)
(-3.13439e-05 7.20744e-05 0.0815917)
(0.000202224 -6.49115e-06 0.100851)
(0.000226911 1.90152e-05 0.0945595)
(0.00023132 -6.91232e-06 0.100853)
(0.000197494 1.87694e-05 0.0941441)
(-9.11168e-05 9.11571e-05 0.102398)
(9.1168e-05 -9.11296e-05 0.102398)
(-9.11409e-05 -9.11379e-05 0.102398)
(8.88892e-05 8.8894e-05 0.102765)
(-8.88864e-05 8.89324e-05 0.102765)
(8.89402e-05 -8.88905e-05 0.102765)
(-8.89121e-05 -8.89054e-05 0.102765)
(-0.000223541 1.02664e-05 0.102335)
(-0.000210889 0.000137442 0.101161)
(-0.000159035 3.06784e-05 0.102424)
(-0.000144835 8.45116e-05 0.102565)
(-0.000271034 9.93391e-06 0.102189)
(-0.000164167 0.000117109 0.101213)
(-0.000157341 3.03248e-05 0.102546)
(9.52205e-05 -4.52993e-05 0.0823391)
(7.20534e-05 -3.12432e-05 0.0815936)
(1.02968e-05 -0.000223532 0.102335)
(3.06837e-05 -0.000159025 0.102424)
(0.000137506 -0.000210958 0.101162)
(8.45214e-05 -0.000144838 0.102565)
(9.96066e-06 -0.00027105 0.102189)
(3.0326e-05 -0.00015732 0.102546)
(0.000117069 -0.00016412 0.101212)
(-0.000138101 -6.86953e-05 0.0991145)
(-6.87429e-05 -0.00013816 0.0991141)
(-8.09921e-05 -8.09938e-05 0.102593)
(-0.000125612 -5.09324e-05 0.0989321)
(-5.09712e-05 -0.000125665 0.0989309)
(-6.10114e-06 0.00019062 0.100665)
(2.05699e-05 0.000194514 0.0933111)
(-6.62663e-06 0.000220953 0.100688)
(1.7219e-05 0.000165635 0.0929273)
(-2.42435e-05 6.0052e-05 0.0803358)
(-1.35438e-05 4.24337e-05 0.0797849)
(0.000190551 -6.18127e-06 0.100664)
(0.000194512 2.0587e-05 0.0933099)
(0.000221065 -6.68692e-06 0.100689)
(0.000165644 1.73279e-05 0.0929281)
(-8.81411e-05 8.81869e-05 0.102885)
(8.81967e-05 -8.81447e-05 0.102885)
(-8.81673e-05 -8.81599e-05 0.102885)
(8.5989e-05 8.60011e-05 0.103238)
(-8.59913e-05 8.60412e-05 0.103238)
(8.60565e-05 -8.59903e-05 0.103238)
(-8.60178e-05 -8.60074e-05 0.103238)
(-0.00020781 9.72635e-06 0.10265)
(-0.000199413 0.000116624 0.101096)
(-0.000152215 2.93354e-05 0.102904)
(-0.000139284 8.07356e-05 0.103024)
(-0.000257486 9.2133e-06 0.102513)
(-0.000152025 9.76161e-05 0.101132)
(-0.000150516 2.9038e-05 0.10302)
(5.98504e-05 -2.40582e-05 0.0803325)
(4.24036e-05 -1.34506e-05 0.0797872)
(9.75663e-06 -0.000207802 0.102649)
(2.93311e-05 -0.000152203 0.102904)
(0.000116649 -0.000199457 0.101097)
(8.07487e-05 -0.000139288 0.103024)
(9.23819e-06 -0.000257504 0.102513)
(2.90318e-05 -0.000150495 0.103021)
(9.75499e-05 -0.000151984 0.101131)
(-0.000135579 -6.08368e-05 0.0984173)
(-6.08695e-05 -0.00013562 0.0984167)
(-7.1479e-05 -7.14815e-05 0.103024)
(-0.000121632 -4.45505e-05 0.0982133)
(-4.45798e-05 -0.000121676 0.0982118)
(-4.98422e-06 0.000176937 0.100405)
(1.56624e-05 0.000164665 0.0921466)
(-5.85499e-06 0.000207968 0.100448)
(1.08832e-05 0.000137021 0.0918035)
(-1.14237e-05 3.8477e-05 0.0788054)
(-2.94529e-06 2.45674e-05 0.0784011)
(0.000176858 -5.02234e-06 0.100404)
(0.000164625 1.5662e-05 0.0921453)
(0.000208082 -5.90017e-06 0.100449)
(0.000137051 1.09273e-05 0.0918043)
(-8.53019e-05 8.53531e-05 0.103353)
(8.5374e-05 -8.53021e-05 0.103353)
(-8.53359e-05 -8.53247e-05 0.103353)
(8.3423e-05 8.34485e-05 0.103692)
(-8.3423e-05 8.34771e-05 0.103692)
(8.3495e-05 -8.34172e-05 0.103692)
(-8.34532e-05 -8.34374e-05 0.103692)
(-0.000192464 9.55955e-06 0.102924)
(-0.00018718 9.98842e-05 0.100958)
(-0.000145576 2.82337e-05 0.103363)
(-0.000134321 7.77251e-05 0.103461)
(-0.000243649 8.83666e-06 0.102795)
(-0.000139939 8.18766e-05 0.10098)
(-0.000144011 2.80197e-05 0.103474)
(3.83419e-05 -1.13019e-05 0.0788018)
(2.46889e-05 -2.99771e-06 0.0784037)
(9.6005e-06 -0.000192456 0.102923)
(2.82291e-05 -0.000145564 0.103363)
(9.9922e-05 -0.000187196 0.100959)
(7.77554e-05 -0.000134331 0.103461)
(8.86238e-06 -0.000243668 0.102795)
(2.80131e-05 -0.00014399 0.103474)
(8.18529e-05 -0.000139923 0.100979)
(-0.000128702 -5.51509e-05 0.0976627)
(-5.51729e-05 -0.000128746 0.097662)
(-6.3053e-05 -6.30525e-05 0.103428)
(-0.000114278 -3.98237e-05 0.097448)
(-3.98336e-05 -0.000114315 0.0974463)
(-3.19644e-06 0.00016262 0.100087)
(8.0453e-06 0.000139045 0.0910831)
(-4.25648e-06 0.000193613 0.100145)
(2.9606e-06 0.000112869 0.0907812)