/*--------------------------------*- C++ -*----------------------------------*\
| =========                 |                                                 |
| \\      /  F ield         | OpenFOAM: The Open Source CFD Toolbox           |
|  \\    /   O peration     | Version:  v1906                                 |
|   \\  /    A nd           | Web:      www.OpenFOAM.com                      |
|    \\/     M anipulation  |                                                 |
\*---------------------------------------------------------------------------*/
FoamFile
{
    version     2.0;
    format      ascii;
    class       volScalarField;
    location    "500";
    object      epsilon;
}
// * * * * * * * * * * * * * * * * * * * * * * * * * * * * * * * * * * * * * //

dimensions      [0 2 -3 0 0 0 0];


internalField   nonuniform List<scalar> 
171728
(
4.95567e-07
4.9733e-07
4.9733e-07
4.99575e-07
4.45573e-07
4.53735e-07
4.53737e-07
4.6371e-07
4.03752e-07
4.18513e-07
4.18517e-07
4.39411e-07
3.68363e-07
3.88552e-07
3.88558e-07
4.17667e-07
3.38015e-07
3.62102e-07
3.6211e-07
3.96081e-07
3.11646e-07
3.38273e-07
3.38281e-07
3.7458e-07
2.88473e-07
3.16637e-07
3.16646e-07
3.5371e-07
2.67923e-07
2.97021e-07
2.97031e-07
3.34148e-07
2.4958e-07
2.7937e-07
2.79379e-07
3.16484e-07
2.33137e-07
2.6368e-07
2.63688e-07
3.01163e-07
2.18366e-07
2.49955e-07
2.49965e-07
2.885e-07
2.05091e-07
2.38202e-07
2.38212e-07
2.78706e-07
1.93173e-07
2.28419e-07
2.28431e-07
2.71907e-07
1.82502e-07
2.20624e-07
2.20636e-07
2.6828e-07
1.72984e-07
2.14818e-07
2.14856e-07
2.67939e-07
1.64554e-07
2.11115e-07
2.11084e-07
2.71343e-07
1.57189e-07
2.09648e-07
2.09629e-07
2.78891e-07
1.50756e-07
2.10296e-07
2.10596e-07
2.92754e-07
1.4546e-07
2.14028e-07
2.13481e-07
3.09276e-07
1.40806e-07
2.20117e-07
2.20069e-07
3.33086e-07
1.36704e-07
2.25704e-07
2.24485e-07
3.33741e-07
1.33716e-07
2.29598e-07
2.29944e-07
3.64649e-07
1.31491e-07
2.42549e-07
2.42525e-07
3.80825e-07
1.30065e-07
2.5231e-07
2.54986e-07
4.18139e-07
1.29619e-07
2.66583e-07
2.65982e-07
4.21417e-07
1.2936e-07
2.79188e-07
2.83124e-07
4.75975e-07
1.30638e-07
3.04589e-07
3.05008e-07
5.21596e-07
1.32744e-07
3.25132e-07
3.18139e-07
5.22138e-07
1.35085e-07
3.45466e-07
3.51083e-07
5.96542e-07
1.38996e-07
3.7389e-07
3.66444e-07
6.17262e-07
1.42e-07
3.88154e-07
3.92657e-07
6.42213e-07
1.46081e-07
4.23714e-07
4.33651e-07
7.22128e-07
1.53392e-07
4.52443e-07
4.50893e-07
7.54781e-07
1.59705e-07
4.85131e-07
4.79323e-07
7.7638e-07
1.67358e-07
5.0736e-07
5.02286e-07
7.96512e-07
1.75267e-07
5.33058e-07
5.33995e-07
8.47464e-07
1.83186e-07
5.64036e-07
5.68939e-07
8.84517e-07
1.93153e-07
5.95024e-07
5.966e-07
9.01763e-07
2.02933e-07
6.25318e-07
6.25235e-07
9.3468e-07
2.14251e-07
6.55283e-07
6.54594e-07
9.66711e-07
2.26605e-07
6.85184e-07
6.84673e-07
9.92793e-07
2.38816e-07
7.14263e-07
7.14494e-07
1.0226e-06
2.52004e-07
7.43096e-07
7.43033e-07
1.0483e-06
2.658e-07
7.70717e-07
7.70802e-07
1.0721e-06
2.80469e-07
7.97824e-07
7.98254e-07
1.09502e-06
2.95518e-07
8.24605e-07
8.24687e-07
1.11725e-06
3.10947e-07
8.50217e-07
8.49916e-07
1.1396e-06
3.26841e-07
8.74241e-07
8.74575e-07
1.16029e-06
3.4324e-07
8.97909e-07
8.98375e-07
1.17811e-06
3.59425e-07
9.2069e-07
9.20299e-07
1.19753e-06
3.75894e-07
9.41935e-07
9.42137e-07
1.21649e-06
3.92695e-07
9.61876e-07
9.62125e-07
1.23044e-06
4.09282e-07
9.82441e-07
9.82203e-07
1.24796e-06
4.25758e-07
1.00025e-06
1.00156e-06
1.26274e-06
4.42136e-07
1.01751e-06
1.01719e-06
1.27591e-06
4.58264e-07
1.0337e-06
1.0331e-06
1.29002e-06
4.74618e-07
1.0511e-06
1.05019e-06
1.30408e-06
4.89514e-07
1.06381e-06
1.06524e-06
1.31413e-06
5.04353e-07
1.07775e-06
1.07807e-06
1.32785e-06
5.20131e-07
1.08976e-06
1.08914e-06
1.32643e-06
5.31371e-07
1.10569e-06
1.10603e-06
1.35729e-06
5.49645e-07
1.10803e-06
1.10791e-06
1.35209e-06
5.56977e-07
1.1282e-06
1.12717e-06
1.36431e-06
5.74911e-07
1.12781e-06
1.14151e-06
1.3593e-06
5.8431e-07
1.15022e-06
1.12568e-06
1.3944e-06
5.91943e-07
1.13616e-06
1.16805e-06
1.41861e-06
6.08487e-07
1.16719e-06
1.14545e-06
1.32926e-06
6.15398e-07
1.17224e-06
1.15339e-06
1.42222e-06
6.25741e-07
1.15495e-06
1.1949e-06
1.44603e-06
6.33611e-07
1.18015e-06
1.15572e-06
1.36577e-06
6.3912e-07
1.18104e-06
1.18e-06
1.40714e-06
6.49352e-07
1.18352e-06
1.18894e-06
1.4382e-06
6.57715e-07
1.18952e-06
1.18617e-06
1.41733e-06
6.61653e-07
1.18885e-06
1.19365e-06
1.41739e-06
6.65873e-07
1.19302e-06
1.19263e-06
1.43296e-06
6.71983e-07
1.19433e-06
1.19167e-06
1.42263e-06
6.76678e-07
1.19535e-06
1.19583e-06
1.4244e-06
6.80321e-07
1.19825e-06
1.19843e-06
1.4327e-06
6.83664e-07
1.1983e-06
1.19819e-06
1.43172e-06
6.86312e-07
1.19784e-06
1.19786e-06
1.42995e-06
6.88576e-07
1.19782e-06
1.19775e-06
1.43223e-06
6.89993e-07
1.19608e-06
1.19657e-06
1.42916e-06
6.9177e-07
1.19645e-06
1.19599e-06
1.43234e-06
6.92567e-07
1.19384e-06
1.19434e-06
1.42755e-06
6.92578e-07
1.19213e-06
1.1921e-06
1.42836e-06
6.93689e-07
1.1917e-06
1.19173e-06
1.42717e-06
6.92653e-07
1.1869e-06
1.18707e-06
1.42327e-06
6.92589e-07
1.18575e-06
1.18647e-06
1.42271e-06
6.92318e-07
1.18394e-06
1.18325e-06
1.4218e-06
6.90263e-07
1.17827e-06
1.17885e-06
1.41511e-06
6.89812e-07
1.17787e-06
1.177e-06
1.41724e-06
6.88566e-07
1.17339e-06
1.17521e-06
1.4133e-06
6.8579e-07
1.16862e-06
1.1679e-06
1.40634e-06
6.84808e-07
1.16724e-06
1.16707e-06
1.40633e-06
6.66496e-07
1.1126e-06
1.11324e-06
1.37262e-06
5.06417e-07
5.05584e-07
5.05582e-07
5.06417e-07
5.05583e-07
5.05582e-07
5.09649e-07
5.09649e-07
5.09649e-07
5.09649e-07
5.05584e-07
5.05584e-07
5.06418e-07
5.05584e-07
5.05583e-07
5.06418e-07
4.99575e-07
4.67237e-07
4.97331e-07
4.97335e-07
4.63713e-07
4.63721e-07
4.99575e-07
4.67235e-07
4.97335e-07
4.97336e-07
4.63718e-07
4.63724e-07
4.97332e-07
4.63709e-07
4.63714e-07
4.99575e-07
4.67241e-07
4.97334e-07
4.6371e-07
4.63719e-07
4.6724e-07
4.63709e-07
4.41426e-07
4.5374e-07
4.53748e-07
4.26738e-07
4.26747e-07
4.63708e-07
4.4142e-07
4.53744e-07
4.53751e-07
4.26739e-07
4.26751e-07
4.53741e-07
4.26729e-07
4.26741e-07
4.63711e-07
4.41431e-07
4.53744e-07
4.26734e-07
4.26741e-07
4.41429e-07
4.39407e-07
4.19283e-07
4.18522e-07
4.1853e-07
3.95676e-07
3.95682e-07
4.39405e-07
4.19275e-07
4.18522e-07
4.18535e-07
3.95672e-07
3.95689e-07
4.18525e-07
3.95663e-07
3.95679e-07
4.39413e-07
4.19289e-07
4.18523e-07
3.95669e-07
3.95673e-07
4.19287e-07
4.17662e-07
3.97645e-07
3.88566e-07
3.88571e-07
3.68461e-07
3.68466e-07
4.17656e-07
3.97636e-07
3.8856e-07
3.88578e-07
3.68452e-07
3.68473e-07
3.88569e-07
3.68444e-07
3.68464e-07
4.17669e-07
3.97651e-07
3.88562e-07
3.68452e-07
3.68454e-07
3.97649e-07
3.96076e-07
3.76085e-07
3.6212e-07
3.62124e-07
3.44033e-07
3.44036e-07
3.96069e-07
3.76075e-07
3.62109e-07
3.62131e-07
3.4402e-07
3.44043e-07
3.62123e-07
3.44013e-07
3.44036e-07
3.96082e-07
3.76091e-07
3.62111e-07
3.44021e-07
3.44021e-07
3.7609e-07
3.74575e-07
3.55111e-07
3.38292e-07
3.38295e-07
3.21875e-07
3.21876e-07
3.74568e-07
3.55101e-07
3.38279e-07
3.38303e-07
3.21858e-07
3.21884e-07
3.38296e-07
3.21853e-07
3.21877e-07
3.74582e-07
3.55117e-07
3.3828e-07
3.21862e-07
3.2186e-07
3.55116e-07
3.53704e-07
3.35396e-07
3.16659e-07
3.16661e-07
3.01763e-07
3.01764e-07
3.53696e-07
3.35384e-07
3.16642e-07
3.16668e-07
3.01745e-07
3.01771e-07
3.16662e-07
3.0174e-07
3.01766e-07
3.5371e-07
3.354e-07
3.16644e-07
3.0175e-07
3.01746e-07
3.35401e-07
3.34141e-07
3.17534e-07
2.97044e-07
2.97045e-07
2.83623e-07
2.83624e-07
3.34133e-07
3.17525e-07
2.97026e-07
2.97053e-07
2.83603e-07
2.83631e-07
2.97047e-07
2.836e-07
2.83625e-07
3.34147e-07
3.1754e-07
2.97027e-07
2.83609e-07
2.83604e-07
3.17538e-07
3.1648e-07
3.01975e-07
2.79395e-07
2.79394e-07
2.67442e-07
2.67443e-07
3.16471e-07
3.01966e-07
2.79374e-07
2.79402e-07
2.6742e-07
2.6745e-07
2.79396e-07
2.67418e-07
2.67443e-07
3.16484e-07
3.01985e-07
2.79375e-07
2.67427e-07
2.67422e-07
3.01984e-07
3.01154e-07
2.8905e-07
2.63705e-07
2.63704e-07
2.53229e-07
2.53228e-07
3.01149e-07
2.89034e-07
2.63683e-07
2.63712e-07
2.53206e-07
2.53235e-07
2.63705e-07
2.53201e-07
2.53229e-07
3.01166e-07
2.89051e-07
2.63684e-07
2.53211e-07
2.53206e-07
2.89052e-07
2.88496e-07
2.7896e-07
2.49983e-07
2.49982e-07
2.40985e-07
2.40985e-07
2.88481e-07
2.78955e-07
2.4996e-07
2.4999e-07
2.40961e-07
2.40991e-07
2.49984e-07
2.40957e-07
2.40984e-07
2.88498e-07
2.78964e-07
2.49961e-07
2.40964e-07
2.4096e-07
2.78964e-07
2.78702e-07
2.71854e-07
2.38233e-07
2.3823e-07
2.30707e-07
2.30707e-07
2.78695e-07
2.71859e-07
2.38209e-07
2.38239e-07
2.30682e-07
2.30717e-07
2.38231e-07
2.30678e-07
2.30705e-07
2.78704e-07
2.71872e-07
2.38208e-07
2.30689e-07
2.30682e-07
2.71864e-07
2.71898e-07
2.6797e-07
2.28451e-07
2.28447e-07
2.22422e-07
2.22426e-07
2.71902e-07
2.67972e-07
2.28425e-07
2.28459e-07
2.22394e-07
2.22429e-07
2.28449e-07
2.22385e-07
2.2242e-07
2.71913e-07
2.67978e-07
2.28422e-07
2.22388e-07
2.22388e-07
2.67974e-07
2.68276e-07
2.67229e-07
2.20668e-07
2.20669e-07
2.16121e-07
2.16128e-07
2.68273e-07
2.67249e-07
2.20641e-07
2.20678e-07
2.16098e-07
2.16139e-07
2.20668e-07
2.16088e-07
2.16114e-07
2.68276e-07
2.6731e-07
2.20641e-07
2.1611e-07
2.16086e-07
2.67255e-07
2.67934e-07
2.69855e-07
2.14865e-07
2.14859e-07
2.1187e-07
2.11875e-07
2.67962e-07
2.69928e-07
2.14849e-07
2.14895e-07
2.11825e-07
2.11917e-07
2.14878e-07
2.11828e-07
2.11861e-07
2.68006e-07
2.69916e-07
2.14855e-07
2.11848e-07
2.11834e-07
2.69897e-07
2.71388e-07
2.76496e-07
2.11165e-07
2.11164e-07
2.09793e-07
2.09886e-07
2.71448e-07
2.76863e-07
2.11124e-07
2.11152e-07
2.09779e-07
2.0975e-07
2.11115e-07
2.09814e-07
2.09691e-07
2.71412e-07
2.76605e-07
2.11079e-07
2.09666e-07
2.09665e-07
2.76522e-07
2.78911e-07
2.88295e-07
2.09665e-07
2.09716e-07
2.09988e-07
2.10039e-07
2.79479e-07
2.88602e-07
2.09591e-07
2.09671e-07
2.09875e-07
2.10201e-07
2.09614e-07
2.09989e-07
2.10106e-07
2.79049e-07
2.89495e-07
2.09615e-07
2.10202e-07
2.1014e-07
2.89513e-07
2.9126e-07
3.05491e-07
2.10297e-07
2.10333e-07
2.12738e-07
2.12836e-07
2.91638e-07
3.06916e-07
2.10192e-07
2.10617e-07
2.12709e-07
2.12456e-07
2.10492e-07
2.12981e-07
2.12307e-07
2.92928e-07
3.05076e-07
2.10543e-07
2.12353e-07
2.12485e-07
3.0414e-07
3.11358e-07
3.2562e-07
2.14171e-07
2.13905e-07
2.17829e-07
2.18398e-07
3.12194e-07
3.2958e-07
2.1411e-07
2.13581e-07
2.17587e-07
2.18668e-07
2.13775e-07
2.18102e-07
2.18519e-07
3.09657e-07
3.30733e-07
2.13945e-07
2.18392e-07
2.18396e-07
3.30125e-07
3.2843e-07
3.34233e-07
2.18807e-07
2.20528e-07
2.2142e-07
2.25115e-07
3.35947e-07
3.51002e-07
2.1859e-07
2.20374e-07
2.21648e-07
2.23699e-07
2.19457e-07
2.24946e-07
2.21002e-07
3.35977e-07
3.44528e-07
2.19262e-07
2.23691e-07
2.2077e-07
3.31839e-07
3.36894e-07
3.49855e-07
2.22452e-07
2.2578e-07
2.28061e-07
2.2792e-07
3.5234e-07
3.48233e-07
2.22767e-07
2.24438e-07
2.28152e-07
2.28113e-07
2.22049e-07
2.27716e-07
2.29887e-07
3.46078e-07
3.49974e-07
2.21865e-07
2.28121e-07
2.29598e-07
3.5811e-07
3.56041e-07
3.75306e-07
2.30624e-07
2.29827e-07
2.37992e-07
2.39196e-07
3.51279e-07
3.81093e-07
2.30598e-07
2.29899e-07
2.37868e-07
2.38444e-07
2.32215e-07
2.39164e-07
2.37965e-07
3.53792e-07
3.76916e-07
2.32005e-07
2.38471e-07
2.38213e-07
3.76179e-07
3.80223e-07
4.00625e-07
2.40626e-07
2.42521e-07
2.49864e-07
2.50423e-07
3.89148e-07
4.02563e-07
2.40565e-07
2.42617e-07
2.49898e-07
2.53153e-07
2.41017e-07
2.50297e-07
2.52537e-07
3.86511e-07
4.14594e-07
2.41293e-07
2.52816e-07
2.52533e-07
4.12443e-07
4.07091e-07
4.30288e-07
2.52923e-07
2.52508e-07
2.63906e-07
2.62367e-07
4.05242e-07
4.21376e-07
2.52933e-07
2.55294e-07
2.63863e-07
2.62401e-07
2.55597e-07
2.62228e-07
2.61475e-07
4.17567e-07
4.21978e-07
2.55525e-07
2.62309e-07
2.61447e-07
4.19433e-07
4.39132e-07
4.57063e-07
2.68208e-07
2.66705e-07
2.79105e-07
2.76926e-07
4.30755e-07
4.49262e-07
2.68158e-07
2.66059e-07
2.78972e-07
2.78277e-07
2.63626e-07
2.76673e-07
2.78737e-07
4.27919e-07
4.5641e-07
2.63619e-07
2.78034e-07
2.7862e-07
4.58714e-07
4.60047e-07
4.86269e-07
2.81571e-07
2.79445e-07
2.95144e-07
2.96576e-07
4.52274e-07
4.92026e-07
2.81443e-07
2.8339e-07
2.95187e-07
3.00425e-07
2.86045e-07
2.96517e-07
3.03301e-07
4.65398e-07
5.07308e-07
2.85913e-07
3.00342e-07
3.03326e-07
5.19332e-07
5.01647e-07
5.49679e-07
3.02338e-07
3.04628e-07
3.21833e-07
3.225e-07
5.10911e-07
5.50098e-07
3.02413e-07
3.05052e-07
3.21785e-07
3.14207e-07
3.06402e-07
3.22347e-07
3.14225e-07
5.13753e-07
5.17991e-07
3.06463e-07
3.14096e-07
3.1418e-07
5.16136e-07
5.55632e-07
5.72051e-07
3.26115e-07
3.25332e-07
3.39434e-07
3.3769e-07
5.52281e-07
5.63896e-07
3.26005e-07
3.18287e-07
3.39254e-07
3.42494e-07
3.18378e-07
3.37362e-07
3.40591e-07
5.23017e-07
5.85206e-07
3.18267e-07
3.42157e-07
3.40398e-07
5.78596e-07
5.83206e-07
6.27945e-07
3.46155e-07
3.45765e-07
3.68229e-07
3.695e-07
5.78876e-07
6.3175e-07
3.46058e-07
3.51399e-07
3.68366e-07
3.65163e-07
3.49355e-07
3.6942e-07
3.6677e-07
6.03597e-07
6.08524e-07
3.49251e-07
3.65136e-07
3.66933e-07
6.17287e-07
6.34894e-07
6.45556e-07
3.74162e-07
3.73934e-07
3.87934e-07
3.82372e-07
6.3493e-07
6.24753e-07
3.74255e-07
3.66436e-07
3.87706e-07
3.79577e-07
3.69091e-07
3.82133e-07
3.81597e-07
6.06653e-07
6.19813e-07
3.6923e-07
3.79338e-07
3.81363e-07
6.23835e-07
6.50455e-07
6.61427e-07
3.92865e-07
3.885e-07
4.07049e-07
4.16091e-07
6.32986e-07
6.98846e-07
3.92604e-07
3.9305e-07
4.06949e-07
4.28004e-07
3.90469e-07
4.15703e-07
4.19146e-07
6.47859e-07
7.39835e-07
3.90206e-07
4.27627e-07
4.19075e-07
7.11629e-07
6.68898e-07
7.3766e-07
4.13208e-07
4.23994e-07
4.43022e-07
4.44119e-07
7.10779e-07
7.37731e-07
4.13196e-07
4.33893e-07
4.43034e-07
4.45014e-07
4.27085e-07
4.44092e-07
4.48185e-07
7.441e-07
7.32794e-07
4.27081e-07
4.44999e-07
4.48201e-07
7.47431e-07
7.53856e-07
7.70153e-07
4.53427e-07
4.5253e-07
4.72961e-07
4.78595e-07
7.49415e-07
7.89515e-07
4.53399e-07
4.50967e-07
4.72832e-07
4.73104e-07
4.54783e-07
4.78222e-07
4.73106e-07
7.39587e-07
7.70839e-07
4.54762e-07
4.72789e-07
4.72998e-07
7.70679e-07
7.73583e-07
8.11004e-07
4.77778e-07
4.85473e-07
5.01548e-07
5.01981e-07
7.9659e-07
8.04664e-07
4.77651e-07
4.79608e-07
5.01434e-07
4.96372e-07
4.79217e-07
5.01877e-07
4.96745e-07
7.77621e-07
7.88623e-07
4.79094e-07
4.96295e-07
4.96627e-07
7.89875e-07
8.24827e-07
8.46373e-07
5.11119e-07
5.07481e-07
5.33565e-07
5.26518e-07
8.09462e-07
8.26241e-07
5.11006e-07
5.02376e-07
5.33386e-07
5.25205e-07
5.02684e-07
5.26124e-07
5.27018e-07
7.94757e-07
8.26726e-07
5.02572e-07
5.24865e-07
5.2684e-07
8.33574e-07
8.50042e-07
8.62586e-07
5.38926e-07
5.33497e-07
5.56878e-07
5.56238e-07
8.34177e-07
8.61737e-07
5.38741e-07
5.34372e-07
5.56735e-07
5.61451e-07
5.36746e-07
5.5598e-07
5.62554e-07
8.39364e-07
8.77315e-07
5.36555e-07
5.61207e-07
5.62438e-07
8.78826e-07
8.71603e-07
9.02744e-07
5.64557e-07
5.64214e-07
5.89525e-07
5.87639e-07
8.71095e-07
8.97369e-07
5.64462e-07
5.69105e-07
5.89458e-07
5.89734e-07
5.69261e-07
5.87461e-07
5.87573e-07
8.85223e-07
9.02102e-07
5.69172e-07
5.89579e-07
5.87471e-07
8.95129e-07
9.104e-07
9.25603e-07
5.97204e-07
5.95253e-07
6.17173e-07
6.18058e-07
9.0548e-07
9.28695e-07
5.97122e-07
5.96794e-07
6.1702e-07
6.18343e-07
5.94298e-07
6.17745e-07
6.16845e-07
9.08822e-07
9.285e-07
5.94188e-07
6.18082e-07
6.16723e-07
9.2605e-07
9.32121e-07
9.5826e-07
6.23864e-07
6.25621e-07
6.47154e-07
6.47989e-07
9.36644e-07
9.58543e-07
6.23706e-07
6.25483e-07
6.47011e-07
6.47284e-07
6.24659e-07
6.47782e-07
6.48147e-07
9.3577e-07
9.56355e-07
6.24538e-07
6.47123e-07
6.48009e-07
9.59119e-07
9.68146e-07
9.92101e-07
6.55688e-07
6.55471e-07
6.79835e-07
6.78034e-07
9.66161e-07
9.87515e-07
6.55556e-07
6.54732e-07
6.79685e-07
6.7734e-07
6.55745e-07
6.77802e-07
6.77334e-07
9.63974e-07
9.85984e-07
6.55609e-07
6.77156e-07
6.77191e-07
9.85721e-07
9.98282e-07
1.01299e-06
6.86803e-07
6.85442e-07
7.06796e-07
7.07266e-07
9.94847e-07
1.01449e-06
6.86668e-07
6.84884e-07
7.06659e-07
7.07302e-07
6.84526e-07
7.06999e-07
7.07133e-07
9.9362e-07
1.01484e-06
6.84381e-07
7.07081e-07
7.06984e-07
1.01483e-06
1.01997e-06
1.03969e-06
7.13936e-07
7.14514e-07
7.3577e-07
7.36177e-07
1.02158e-06
1.04077e-06
7.13805e-07
7.14698e-07
7.35643e-07
7.36256e-07
7.1478e-07
7.35965e-07
7.36666e-07
1.02213e-06
1.04071e-06
7.14639e-07
7.36097e-07
7.36542e-07
1.04189e-06
1.04623e-06
1.06339e-06
7.42698e-07
7.43308e-07
7.63267e-07
7.64147e-07
1.04761e-06
1.06497e-06
7.4258e-07
7.43191e-07
7.63139e-07
7.63979e-07
7.43596e-07
7.6393e-07
7.64241e-07
1.0472e-06
1.06477e-06
7.43466e-07
7.63811e-07
7.64095e-07
1.06541e-06
1.0703e-06
1.08943e-06
7.7031e-07
7.70928e-07
7.91532e-07
7.91246e-07
1.07134e-06
1.08827e-06
7.70186e-07
7.70966e-07
7.91406e-07
7.91616e-07
7.71215e-07
7.91051e-07
7.91653e-07
1.07152e-06
1.08926e-06
7.71067e-07
7.91477e-07
7.91516e-07
1.08898e-06
1.09593e-06
1.11162e-06
7.98404e-07
7.98024e-07
8.18125e-07
8.18218e-07
1.09475e-06
1.11191e-06
7.98287e-07
7.98396e-07
8.18011e-07
8.18415e-07
7.98188e-07
8.18004e-07
8.17792e-07
1.09567e-06
1.11201e-06
7.98057e-07
8.18251e-07
8.17667e-07
1.1109e-06
1.11765e-06
1.13301e-06
8.24579e-07
8.24815e-07
8.43764e-07
8.44101e-07
1.11817e-06
1.13379e-06
8.24476e-07
8.24845e-07
8.43631e-07
8.43683e-07
8.2442e-07
8.43903e-07
8.43944e-07
1.11798e-06
1.13289e-06
8.24301e-07
8.43546e-07
8.43809e-07
1.13362e-06
1.13876e-06
1.15345e-06
8.49954e-07
8.50419e-07
8.68251e-07
8.68569e-07
1.1397e-06
1.15349e-06
8.49815e-07
8.50061e-07
8.68134e-07
8.68788e-07
8.50266e-07
8.68381e-07
8.68949e-07
1.13899e-06
1.15418e-06
8.50118e-07
8.68657e-07
8.68823e-07
1.15462e-06
1.15967e-06
1.17516e-06
8.74505e-07
8.74411e-07
8.93104e-07
8.92167e-07
1.15895e-06
1.17312e-06
8.74399e-07
8.74687e-07
8.92975e-07
8.92443e-07
8.75019e-07
8.92012e-07
8.92288e-07
1.15966e-06
1.17385e-06
8.74901e-07
8.92338e-07
8.92152e-07
1.17291e-06
1.18039e-06
1.19156e-06
8.98824e-07
8.98077e-07
9.14909e-07
9.15289e-07
1.17884e-06
1.19257e-06
8.98709e-07
8.985e-07
9.14816e-07
9.15295e-07
8.9787e-07
9.15092e-07
9.14859e-07
1.17972e-06
1.19211e-06
8.97739e-07
9.15167e-07
9.14766e-07
1.19186e-06
1.19668e-06
1.20939e-06
9.20302e-07
9.20881e-07
9.36585e-07
9.37074e-07
1.19793e-06
1.20991e-06
9.20206e-07
9.20415e-07
9.36427e-07
9.36716e-07
9.20576e-07
9.36892e-07
9.37531e-07
1.19687e-06
1.20962e-06
9.20485e-07
9.36578e-07
9.37388e-07
1.21145e-06
1.21452e-06
1.22703e-06
9.41864e-07
9.42106e-07
9.57487e-07
9.56809e-07
1.21462e-06
1.22533e-06
9.41713e-07
9.4227e-07
9.57401e-07
9.57342e-07
9.42949e-07
9.56701e-07
9.57447e-07
1.21502e-06
1.22629e-06
9.42799e-07
9.57306e-07
9.5735e-07
1.22597e-06
1.23233e-06
1.24277e-06
9.62734e-07
9.61996e-07
9.77453e-07
9.77782e-07
1.23069e-06
1.24396e-06
9.62654e-07
9.62175e-07
9.7732e-07
9.77301e-07
9.62038e-07
9.77575e-07
9.7696e-07
1.23102e-06
1.24316e-06
9.61948e-07
9.7714e-07
9.7684e-07
1.2427e-06
1.24694e-06
1.25771e-06
9.81859e-07
9.82646e-07
9.95664e-07
9.96013e-07
1.24866e-06
1.25768e-06
9.81724e-07
9.82355e-07
9.95521e-07
9.96944e-07
9.82122e-07
9.95885e-07
9.96434e-07
1.24829e-06
1.26006e-06
9.81994e-07
9.96875e-07
9.96298e-07
1.25854e-06
1.26271e-06
1.27149e-06
1.00056e-06
1.00037e-06
1.01362e-06
1.01347e-06
1.26203e-06
1.27144e-06
1.00044e-06
1.00162e-06
1.01359e-06
1.01399e-06
1.00076e-06
1.0133e-06
1.01352e-06
1.2647e-06
1.27144e-06
1.00065e-06
1.01387e-06
1.01348e-06
1.27154e-06
1.27528e-06
1.286e-06
1.01734e-06
1.01769e-06
1.02981e-06
1.02961e-06
1.2758e-06
1.28492e-06
1.01728e-06
1.01731e-06
1.02962e-06
1.02834e-06
1.01776e-06
1.02952e-06
1.02998e-06
1.27451e-06
1.28259e-06
1.0177e-06
1.02832e-06
1.02982e-06
1.28552e-06
1.29152e-06
1.30159e-06
1.03465e-06
1.03379e-06
1.04786e-06
1.04726e-06
1.28947e-06
1.30106e-06
1.03448e-06
1.03311e-06
1.04777e-06
1.047e-06
1.03409e-06
1.04709e-06
1.04675e-06
1.28827e-06
1.30024e-06
1.03392e-06
1.04683e-06
1.04666e-06
1.29995e-06
1.30454e-06
1.30858e-06
1.05112e-06
1.05128e-06
1.06009e-06
1.06074e-06
1.30517e-06
1.30955e-06
1.05105e-06
1.05035e-06
1.05995e-06
1.06068e-06
1.05075e-06
1.0606e-06
1.0608e-06
1.30337e-06
1.31088e-06
1.05067e-06
1.06065e-06
1.06067e-06
1.31026e-06
1.31254e-06
1.32068e-06
1.06349e-06
1.064e-06
1.07377e-06
1.0749e-06
1.31331e-06
1.32195e-06
1.06332e-06
1.06531e-06
1.07372e-06
1.07664e-06
1.06417e-06
1.07475e-06
1.07619e-06
1.31685e-06
1.32382e-06
1.06401e-06
1.07651e-06
1.07615e-06
1.32465e-06
1.32496e-06
1.3376e-06
1.0774e-06
1.07781e-06
1.09017e-06
1.08535e-06
1.32481e-06
1.32883e-06
1.07742e-06
1.07813e-06
1.09003e-06
1.08348e-06
1.0795e-06
1.08541e-06
1.08397e-06
1.32483e-06
1.32596e-06
1.07949e-06
1.08376e-06
1.08389e-06
1.32305e-06
1.34086e-06
1.33022e-06
1.09298e-06
1.09e-06
1.09573e-06
1.10418e-06
1.33513e-06
1.35147e-06
1.09279e-06
1.08933e-06
1.09554e-06
1.10461e-06
1.08572e-06
1.10379e-06
1.10247e-06
1.33485e-06
1.35183e-06
1.0856e-06
1.10422e-06
1.10236e-06
1.35181e-06
1.33244e-06
1.37258e-06
1.09706e-06
1.10578e-06
1.1175e-06
1.1064e-06
1.35266e-06
1.33831e-06
1.09691e-06
1.1061e-06
1.11746e-06
1.10655e-06
1.10776e-06
1.10677e-06
1.11344e-06
1.35263e-06
1.33966e-06
1.10766e-06
1.10701e-06
1.11339e-06
1.35069e-06
1.37855e-06
1.33224e-06
1.12168e-06
1.10787e-06
1.11763e-06
1.12659e-06
1.34345e-06
1.37401e-06
1.12171e-06
1.10763e-06
1.11751e-06
1.12136e-06
1.11377e-06
1.12582e-06
1.1208e-06
1.3438e-06
1.36368e-06
1.11378e-06
1.12031e-06
1.12058e-06
1.36085e-06
1.33143e-06
1.38871e-06
1.11505e-06
1.12858e-06
1.13056e-06
1.1266e-06
1.37625e-06
1.35129e-06
1.11469e-06
1.1276e-06
1.13033e-06
1.14033e-06
1.12408e-06
1.12743e-06
1.12769e-06
1.3713e-06
1.39217e-06
1.12346e-06
1.14129e-06
1.12717e-06
1.35771e-06
1.40478e-06
1.36665e-06
1.14252e-06
1.12706e-06
1.14803e-06
1.14884e-06
1.35445e-06
1.40247e-06
1.14312e-06
1.1406e-06
1.14887e-06
1.12809e-06
1.12802e-06
1.14743e-06
1.13848e-06
1.39301e-06
1.33017e-06
1.12795e-06
1.12718e-06
1.14025e-06
1.38109e-06
1.35934e-06
1.35299e-06
1.14e-06
1.15162e-06
1.13194e-06
1.13882e-06
1.40605e-06
1.34325e-06
1.13972e-06
1.12669e-06
1.13033e-06
1.15474e-06
1.14899e-06
1.13967e-06
1.16532e-06
1.33034e-06
1.42512e-06
1.1486e-06
1.15578e-06
1.16313e-06
1.42056e-06
1.37265e-06
1.4129e-06
1.13785e-06
1.13474e-06
1.16421e-06
1.152e-06
1.34205e-06
1.4055e-06
1.13729e-06
1.16648e-06
1.1668e-06
1.16185e-06
1.16487e-06
1.15246e-06
1.13782e-06
1.43955e-06
1.35658e-06
1.16307e-06
1.16268e-06
1.1402e-06
1.33112e-06
1.4132e-06
1.38872e-06
1.166e-06
1.1682e-06
1.16287e-06
1.18075e-06
1.42603e-06
1.41674e-06
1.16802e-06
1.14591e-06
1.15997e-06
1.13825e-06
1.13276e-06
1.17836e-06
1.14774e-06
1.34375e-06
1.36597e-06
1.13442e-06
1.13632e-06
1.14341e-06
1.39495e-06
1.39128e-06
1.40532e-06
1.16258e-06
1.17413e-06
1.16947e-06
1.15341e-06
1.40865e-06
1.35983e-06
1.15935e-06
1.15525e-06
1.1708e-06
1.19416e-06
1.16906e-06
1.15475e-06
1.19559e-06
1.40076e-06
1.45689e-06
1.16478e-06
1.19543e-06
1.1961e-06
1.45232e-06
1.40906e-06
1.40176e-06
1.17192e-06
1.1534e-06
1.17376e-06
1.17519e-06
1.36631e-06
1.41644e-06
1.17438e-06
1.19338e-06
1.17512e-06
1.16001e-06
1.19417e-06
1.17538e-06
1.16349e-06
1.44655e-06
1.35403e-06
1.19566e-06
1.16007e-06
1.1642e-06
1.36572e-06
1.40272e-06
1.40168e-06
1.17341e-06
1.18074e-06
1.17358e-06
1.18381e-06
1.42338e-06
1.41452e-06
1.17299e-06
1.15625e-06
1.17162e-06
1.17181e-06
1.15891e-06
1.18247e-06
1.16332e-06
1.35535e-06
1.41346e-06
1.15841e-06
1.17043e-06
1.16118e-06
1.39424e-06
1.40611e-06
1.41886e-06
1.17539e-06
1.18211e-06
1.18421e-06
1.18111e-06
1.41504e-06
1.41189e-06
1.17344e-06
1.18088e-06
1.18498e-06
1.18946e-06
1.17241e-06
1.18096e-06
1.19216e-06
1.42511e-06
1.42152e-06
1.17125e-06
1.18956e-06
1.19278e-06
1.43548e-06
1.42297e-06
1.42491e-06
1.18702e-06
1.18295e-06
1.19146e-06
1.18886e-06
1.41594e-06
1.42057e-06
1.18786e-06
1.18857e-06
1.19129e-06
1.18543e-06
1.19447e-06
1.18918e-06
1.19151e-06
1.42148e-06
1.41216e-06
1.19512e-06
1.18581e-06
1.19122e-06
1.41718e-06
1.42622e-06
1.41757e-06
1.19164e-06
1.1894e-06
1.18974e-06
1.18931e-06
1.42219e-06
1.41772e-06
1.19131e-06
1.18593e-06
1.18957e-06
1.19302e-06
1.18848e-06
1.18886e-06
1.18556e-06
1.41662e-06
1.42741e-06
1.1881e-06
1.19258e-06
1.18534e-06
1.4122e-06
1.41878e-06
1.41714e-06
1.18898e-06
1.18934e-06
1.18868e-06
1.19184e-06
1.4198e-06
1.4225e-06
1.18905e-06
1.19408e-06
1.18897e-06
1.19339e-06
1.18634e-06
1.19185e-06
1.19517e-06
1.43002e-06
1.42197e-06
1.18641e-06
1.19351e-06
1.19542e-06
1.43049e-06
1.42028e-06
1.4256e-06
1.18973e-06
1.19276e-06
1.19452e-06
1.19406e-06
1.4249e-06
1.42353e-06
1.18996e-06
1.19229e-06
1.19419e-06
1.19122e-06
1.19637e-06
1.19433e-06
1.1949e-06
1.42303e-06
1.41857e-06
1.19647e-06
1.19156e-06
1.19455e-06
1.42168e-06
1.42825e-06
1.42799e-06
1.1956e-06
1.19421e-06
1.19678e-06
1.19525e-06
1.42507e-06
1.42542e-06
1.19524e-06
1.19147e-06
1.19664e-06
1.19512e-06
1.19347e-06
1.1946e-06
1.19239e-06
1.42125e-06
1.42589e-06
1.19313e-06
1.19464e-06
1.19214e-06
1.42101e-06
1.42969e-06
1.42808e-06
1.19691e-06
1.19592e-06
1.19735e-06
1.19795e-06
1.42793e-06
1.42941e-06
1.19683e-06
1.19632e-06
1.1973e-06
1.19835e-06
1.19305e-06
1.19775e-06
1.19786e-06
1.4289e-06
1.43018e-06
1.19293e-06
1.1982e-06
1.19782e-06
1.4301e-06
1.42988e-06
1.42901e-06
1.19752e-06
1.19834e-06
1.19801e-06
1.19845e-06
1.43145e-06
1.42938e-06
1.19746e-06
1.19846e-06
1.1979e-06
1.1982e-06
1.19882e-06
1.1985e-06
1.19935e-06
1.43194e-06
1.42881e-06
1.19875e-06
1.19831e-06
1.19924e-06
1.43035e-06
1.43099e-06
1.42963e-06
1.19818e-06
1.19824e-06
1.19822e-06
1.19795e-06
1.43091e-06
1.4288e-06
1.19808e-06
1.19811e-06
1.19813e-06
1.19807e-06
1.1989e-06
1.1978e-06
1.19756e-06
1.43047e-06
1.42938e-06
1.19877e-06
1.19793e-06
1.19747e-06
1.42768e-06
1.43119e-06
1.42948e-06
1.19808e-06
1.19806e-06
1.19781e-06
1.19815e-06
1.43102e-06
1.43001e-06
1.19801e-06
1.19804e-06
1.19768e-06
1.19782e-06
1.19755e-06
1.198e-06
1.19815e-06
1.43115e-06
1.4294e-06
1.19746e-06
1.19777e-06
1.19804e-06
1.43068e-06
1.43142e-06
1.42782e-06
1.19776e-06
1.19788e-06
1.19668e-06
1.19634e-06
1.43137e-06
1.42695e-06
1.19763e-06
1.19777e-06
1.19666e-06
1.19715e-06
1.1981e-06
1.19621e-06
1.19653e-06
1.43123e-06
1.42879e-06
1.19799e-06
1.19704e-06
1.1965e-06
1.42728e-06
1.42927e-06
1.42907e-06
1.19615e-06
1.19623e-06
1.19592e-06
1.19651e-06
1.42898e-06
1.43023e-06
1.19614e-06
1.19671e-06
1.19584e-06
1.19597e-06
1.19635e-06
1.19645e-06
1.19669e-06
1.43029e-06
1.42851e-06
1.19633e-06
1.19597e-06
1.1966e-06
1.4306e-06
1.43167e-06
1.42755e-06
1.19631e-06
1.1965e-06
1.19582e-06
1.1948e-06
1.43204e-06
1.42647e-06
1.19617e-06
1.19597e-06
1.19573e-06
1.1956e-06
1.19667e-06
1.19461e-06
1.19452e-06
1.4307e-06
1.4278e-06
1.19657e-06
1.19546e-06
1.19444e-06
1.42608e-06
1.42852e-06
1.42277e-06
1.19421e-06
1.19409e-06
1.19144e-06
1.19235e-06
1.42791e-06
1.4252e-06
1.19418e-06
1.19461e-06
1.19137e-06
1.19212e-06
1.19386e-06
1.19229e-06
1.19279e-06
1.42903e-06
1.42424e-06
1.19383e-06
1.19215e-06
1.19272e-06
1.42647e-06
1.42609e-06
1.42965e-06
1.1915e-06
1.19213e-06
1.1928e-06
1.19193e-06
1.42718e-06
1.42693e-06
1.19141e-06
1.19203e-06
1.19272e-06
1.19221e-06
1.19264e-06
1.19191e-06
1.19172e-06
1.42688e-06
1.42746e-06
1.19255e-06
1.19218e-06
1.19164e-06
1.42567e-06
1.43081e-06
1.41789e-06
1.19261e-06
1.1918e-06
1.18717e-06
1.18811e-06
1.42865e-06
1.42045e-06
1.19252e-06
1.19186e-06
1.18706e-06
1.1876e-06
1.19133e-06
1.18795e-06
1.1885e-06
1.42859e-06
1.41941e-06
1.19125e-06
1.18754e-06
1.18836e-06
1.42184e-06
1.41932e-06
1.42269e-06
1.18624e-06
1.18695e-06
1.18615e-06
1.18578e-06
1.42173e-06
1.42104e-06
1.18616e-06
1.18707e-06
1.18617e-06
1.18677e-06
1.18779e-06
1.18576e-06
1.18595e-06
1.42121e-06
1.42331e-06
1.18765e-06
1.18673e-06
1.18591e-06
1.42087e-06
1.42501e-06
1.41994e-06
1.1863e-06
1.1858e-06
1.18467e-06
1.18484e-06
1.4234e-06
1.42024e-06
1.1863e-06
1.18656e-06
1.18444e-06
1.18369e-06
1.18563e-06
1.18458e-06
1.18431e-06
1.42482e-06
1.41824e-06
1.18555e-06
1.18358e-06
1.18415e-06
1.41984e-06
1.42135e-06
1.4129e-06
1.18406e-06
1.18416e-06
1.17934e-06
1.17946e-06
1.42161e-06
1.41309e-06
1.18384e-06
1.18332e-06
1.17939e-06
1.18053e-06
1.18407e-06
1.17939e-06
1.18024e-06
1.41995e-06
1.41492e-06
1.18395e-06
1.18062e-06
1.18039e-06
1.41427e-06
1.41396e-06
1.41527e-06
1.178e-06
1.17831e-06
1.1771e-06
1.17744e-06
1.41429e-06
1.41572e-06
1.17803e-06
1.17886e-06
1.17696e-06
1.17678e-06
1.17852e-06
1.17737e-06
1.17664e-06
1.41582e-06
1.41339e-06
1.17852e-06
1.17656e-06
1.17632e-06
1.41321e-06
1.4194e-06
1.41145e-06
1.17807e-06
1.178e-06
1.17695e-06
1.17616e-06
1.41916e-06
1.41024e-06
1.17782e-06
1.17724e-06
1.17688e-06
1.17694e-06
1.17724e-06
1.17589e-06
1.17683e-06
1.41726e-06
1.41282e-06
1.17689e-06
1.17692e-06
1.17685e-06
1.41269e-06
1.41166e-06
1.40274e-06
1.17392e-06
1.17364e-06
1.16805e-06
1.16875e-06
1.41077e-06
1.40489e-06
1.17401e-06
1.17504e-06
1.16798e-06
1.16844e-06
1.17476e-06
1.16875e-06
1.16893e-06
1.41341e-06
1.40337e-06
1.1751e-06
1.16841e-06
1.16887e-06
1.40438e-06
1.40573e-06
1.40694e-06
1.16798e-06
1.16859e-06
1.16766e-06
1.16709e-06
1.40745e-06
1.40444e-06
1.16786e-06
1.16798e-06
1.16749e-06
1.1668e-06
1.16851e-06
1.16693e-06
1.16649e-06
1.40516e-06
1.40448e-06
1.16831e-06
1.16653e-06
1.16612e-06
1.40302e-06
1.40959e-06
1.39374e-06
1.16808e-06
1.16743e-06
1.14901e-06
1.14907e-06
1.40703e-06
1.39495e-06
1.16792e-06
1.16736e-06
1.1491e-06
1.14996e-06
1.16691e-06
1.14898e-06
1.14967e-06
1.40814e-06
1.39647e-06
1.16658e-06
1.15001e-06
1.15e-06
1.39718e-06
1.36833e-06
1.11206e-06
1.11256e-06
1.37019e-06
1.11217e-06
1.11301e-06
6.66663e-07
6.66826e-07
6.6706e-07
1.11343e-06
1.37083e-06
1.11372e-06
5.35663e-07
5.35601e-07
5.35655e-07
5.35655e-07
5.34573e-07
5.35516e-07
5.33634e-07
5.35654e-07
5.34573e-07
5.35517e-07
5.35654e-07
5.33634e-07
5.35256e-07
5.35986e-07
5.35987e-07
1.10713e-06
3.88088e-06
9.33894e-07
4.60607e-06
1.26081e-05
1.66009e-05
1.10724e-06
3.88111e-06
9.33927e-07
4.60645e-06
4.95567e-07
4.95567e-07
4.95567e-07
4.57231e-07
4.57231e-07
4.57232e-07
4.57232e-07
5.43143e-07
1.22027e-06
4.95565e-07
4.85522e-07
5.25341e-07
1.20946e-06
4.82301e-07
1.26097e-05
1.66035e-05
5.43162e-07
4.95565e-07
1.22025e-06
4.85523e-07
5.2532e-07
4.82302e-07
1.20945e-06
2.52172e-06
2.52242e-06
4.8419e-07
2.37249e-06
2.37288e-06
1.4308e-06
5.59344e-06
1.32967e-06
6.13626e-06
2.12846e-05
2.31103e-05
1.4312e-06
5.59406e-06
1.32973e-06
6.13689e-06
4.45572e-07
4.45573e-07
4.45573e-07
4.13542e-07
4.13542e-07