/*--------------------------------*- C++ -*----------------------------------*\
| =========                 |                                                 |
| \\      /  F ield         | OpenFOAM: The Open Source CFD Toolbox           |
|  \\    /   O peration     | Version:  v1906                                 |
|   \\  /    A nd           | Web:      www.OpenFOAM.com                      |
|    \\/     M anipulation  |                                                 |
\*---------------------------------------------------------------------------*/
FoamFile
{
    version     2.0;
    format      ascii;
    class       volScalarField;
    location    "500";
    object      k;
}
// * * * * * * * * * * * * * * * * * * * * * * * * * * * * * * * * * * * * * //

dimensions      [0 2 -2 0 0 0 0];


internalField   nonuniform List<scalar> 
171728
(
3.58932e-05
3.58912e-05
3.58912e-05
3.59957e-05
3.39296e-05
3.3889e-05
3.3889e-05
3.39622e-05
3.21578e-05
3.20081e-05
3.20081e-05
3.19522e-05
3.05346e-05
3.02293e-05
3.02292e-05
2.99885e-05
2.90329e-05
2.8554e-05
2.85539e-05
2.81226e-05
2.76353e-05
2.69872e-05
2.69871e-05
2.63907e-05
2.63308e-05
2.5531e-05
2.55309e-05
2.48073e-05
2.51112e-05
2.4185e-05
2.41848e-05
2.33782e-05
2.39709e-05
2.29506e-05
2.29504e-05
2.21046e-05
2.29057e-05
2.18269e-05
2.18267e-05
2.09859e-05
2.1912e-05
2.08114e-05
2.08112e-05
2.00136e-05
2.09865e-05
1.99013e-05
1.99011e-05
1.91811e-05
2.0124e-05
1.90949e-05
1.90946e-05
1.84897e-05
1.93238e-05
1.83888e-05
1.83883e-05
1.79339e-05
1.85848e-05
1.77801e-05
1.77801e-05
1.75072e-05
1.7905e-05
1.7269e-05
1.72696e-05
1.72107e-05
1.72811e-05
1.68544e-05
1.68514e-05
1.70419e-05
1.67108e-05
1.65262e-05
1.65271e-05
1.70141e-05
1.62039e-05
1.63399e-05
1.63544e-05
1.72911e-05
1.57403e-05
1.62514e-05
1.62171e-05
1.74682e-05
1.5351e-05
1.62901e-05
1.63222e-05
1.88662e-05
1.4964e-05
1.65364e-05
1.64575e-05
1.85386e-05
1.46052e-05
1.63136e-05
1.63065e-05
1.87447e-05
1.43343e-05
1.6467e-05
1.63865e-05
1.9467e-05
1.40982e-05
1.69199e-05
1.7083e-05
2.07445e-05
1.38929e-05
1.69851e-05
1.7114e-05
2.0802e-05
1.37856e-05
1.75747e-05
1.74197e-05
2.02244e-05
1.35901e-05
1.76894e-05
1.83802e-05
2.45278e-05
1.36622e-05
1.92447e-05
1.86992e-05
2.30128e-05
1.36124e-05
1.92557e-05
1.92441e-05
2.4291e-05
1.37221e-05
2.08271e-05
2.07405e-05
2.75395e-05
1.37962e-05
2.09265e-05
2.03606e-05
2.50612e-05
1.38212e-05
2.1869e-05
2.27911e-05
2.91118e-05
1.39378e-05
2.28511e-05
2.32628e-05
3.02516e-05
1.44236e-05
2.43849e-05
2.40699e-05
3.10114e-05
1.45588e-05
2.51532e-05
2.47816e-05
3.12028e-05
1.50433e-05
2.57593e-05
2.54927e-05
3.19376e-05
1.52758e-05
2.67027e-05
2.70337e-05
3.42508e-05
1.56914e-05
2.78537e-05
2.79992e-05
3.44361e-05
1.61542e-05
2.88994e-05
2.89538e-05
3.52232e-05
1.6587e-05
2.99404e-05
2.99082e-05
3.63665e-05
1.72174e-05
3.10003e-05
3.09481e-05
3.71971e-05
1.77816e-05
3.20145e-05
3.20047e-05
3.80845e-05
1.83927e-05
3.3039e-05
3.30594e-05
3.9077e-05
1.90289e-05
3.40399e-05
3.40137e-05
3.97911e-05
1.97241e-05
3.49908e-05
3.50081e-05
4.06394e-05
2.04561e-05
3.59641e-05
3.59873e-05
4.13151e-05
2.11992e-05
3.69081e-05
3.68808e-05
4.21353e-05
2.19535e-05
3.782e-05
3.78331e-05
4.2881e-05
2.27593e-05
3.86763e-05
3.86705e-05
4.35527e-05
2.3551e-05
3.95448e-05
3.95814e-05
4.41672e-05
2.4342e-05
4.04e-05
4.03462e-05
4.49394e-05
2.51524e-05
4.11143e-05
4.11709e-05
4.5501e-05
2.59873e-05
4.1959e-05
4.19104e-05
4.60506e-05
2.67765e-05
4.26851e-05
4.27129e-05
4.67397e-05
2.76143e-05
4.33814e-05
4.34779e-05
4.72011e-05
2.83673e-05
4.40157e-05
4.39078e-05
4.77177e-05
2.92335e-05
4.4769e-05
4.47846e-05
4.83438e-05
2.99829e-05
4.53422e-05
4.52612e-05
4.87411e-05
3.07042e-05
4.59919e-05
4.61454e-05
4.94247e-05
3.15121e-05
4.63127e-05
4.6243e-05
4.93706e-05
3.21639e-05
4.73261e-05
4.73432e-05
5.02148e-05
3.29337e-05
4.74226e-05
4.74696e-05
5.0731e-05
3.36957e-05
4.82289e-05
4.76746e-05
5.08875e-05
3.39712e-05
4.83697e-05
4.92322e-05
5.10159e-05
3.52319e-05
4.92003e-05
4.86025e-05
5.06917e-05
3.52574e-05
4.93629e-05
4.87607e-05
5.4199e-05
3.60793e-05
4.88972e-05
5.08841e-05
5.1162e-05
3.67646e-05
5.10954e-05
4.85153e-05
4.9627e-05
3.71487e-05
4.99275e-05
5.19673e-05
5.59401e-05
3.77688e-05
5.0478e-05
5.0614e-05
5.22708e-05
3.79988e-05
5.12445e-05
5.00962e-05
5.16707e-05
3.84352e-05
5.11759e-05
5.16181e-05
5.42043e-05
3.9134e-05
5.17166e-05
5.15538e-05
5.42118e-05
3.95017e-05
5.17695e-05
5.18477e-05
5.33172e-05
3.96682e-05
5.18778e-05
5.20891e-05
5.42617e-05
4.0006e-05
5.21709e-05
5.20352e-05
5.42614e-05
4.03868e-05
5.22125e-05
5.21579e-05
5.39174e-05
4.06703e-05
5.24444e-05
5.24716e-05
5.43774e-05
4.09304e-05
5.26241e-05
5.26094e-05
5.46045e-05
4.11638e-05
5.26574e-05
5.26737e-05
5.4481e-05
4.13615e-05
5.2787e-05
5.27475e-05
5.4677e-05
4.15413e-05
5.27771e-05
5.28224e-05
5.45861e-05
4.1672e-05
5.2875e-05
5.28304e-05
5.47758e-05
4.18687e-05
5.2923e-05
5.29393e-05
5.47112e-05
4.19145e-05
5.2866e-05
5.28567e-05
5.46897e-05
4.2065e-05
5.29515e-05
5.29712e-05
5.47733e-05
4.21361e-05
5.2926e-05
5.28596e-05
5.47136e-05
4.21504e-05
5.28234e-05
5.28823e-05
5.464e-05
4.2254e-05
5.28914e-05
5.2846e-05
5.46798e-05
4.22785e-05
5.28152e-05
5.28448e-05
5.47451e-05
4.22361e-05
5.2672e-05
5.2644e-05
5.42891e-05
4.23321e-05
5.28144e-05
5.28185e-05
5.48284e-05
4.22361e-05
5.24943e-05
5.25083e-05
5.42702e-05
4.18251e-05
5.13983e-05
5.13448e-05
5.38648e-05
3.63068e-05
3.6291e-05
3.6291e-05
3.63068e-05
3.6291e-05
3.6291e-05
3.6423e-05
3.6423e-05
3.6423e-05
3.6423e-05
3.6291e-05
3.6291e-05
3.63068e-05
3.6291e-05
3.6291e-05
3.63068e-05
3.59957e-05
3.42687e-05
3.58912e-05
3.58912e-05
3.43767e-05
3.43766e-05
3.59957e-05
3.42687e-05
3.58911e-05
3.58912e-05
3.43767e-05
3.43766e-05
3.58912e-05
3.43767e-05
3.43767e-05
3.59957e-05
3.42687e-05
3.58912e-05
3.43767e-05
3.43767e-05
3.42687e-05
3.39623e-05
3.22635e-05
3.38889e-05
3.38889e-05
3.24684e-05
3.24683e-05
3.39623e-05
3.22635e-05
3.38889e-05
3.38889e-05
3.24684e-05
3.24683e-05
3.38889e-05
3.24685e-05
3.24684e-05
3.39623e-05
3.22634e-05
3.38889e-05
3.24685e-05
3.24684e-05
3.22634e-05
3.19522e-05
3.02993e-05
3.20079e-05
3.20078e-05
3.06643e-05
3.06642e-05
3.19522e-05
3.02994e-05
3.2008e-05
3.20078e-05
3.06644e-05
3.06641e-05
3.20079e-05
3.06646e-05
3.06643e-05
3.19522e-05
3.02992e-05
3.2008e-05
3.06645e-05
3.06644e-05
3.02992e-05
2.99885e-05
2.84253e-05
3.0229e-05
3.02288e-05
2.89624e-05
2.89622e-05
2.99886e-05
2.84255e-05
3.02291e-05
3.02287e-05
2.89626e-05
2.89621e-05
3.02289e-05
2.89628e-05
2.89623e-05
2.99885e-05
2.84252e-05
3.02291e-05
2.89627e-05
2.89626e-05
2.84252e-05
2.81227e-05
2.6674e-05
2.85536e-05
2.85534e-05
2.7368e-05
2.73678e-05
2.81228e-05
2.66742e-05
2.85538e-05
2.85533e-05
2.73683e-05
2.73676e-05
2.85535e-05
2.73685e-05
2.73679e-05
2.81226e-05
2.66739e-05
2.85538e-05
2.73684e-05
2.73683e-05
2.66738e-05
2.63909e-05
2.50663e-05
2.69866e-05
2.69864e-05
2.58841e-05
2.58838e-05
2.63909e-05
2.50665e-05
2.6987e-05
2.69862e-05
2.58845e-05
2.58836e-05
2.69865e-05
2.58848e-05
2.5884e-05
2.63907e-05
2.50661e-05
2.69869e-05
2.58846e-05
2.58845e-05
2.50661e-05
2.48075e-05
2.36125e-05
2.55304e-05
2.553e-05
2.45102e-05
2.45099e-05
2.48077e-05
2.36126e-05
2.55308e-05
2.55299e-05
2.45107e-05
2.45097e-05
2.55302e-05
2.45111e-05
2.45102e-05
2.48073e-05
2.36123e-05
2.55307e-05
2.45109e-05
2.45107e-05
2.36123e-05
2.33783e-05
2.23124e-05
2.41842e-05
2.41839e-05
2.32479e-05
2.32475e-05
2.33786e-05
2.23127e-05
2.41847e-05
2.41836e-05
2.32484e-05
2.32473e-05
2.41841e-05
2.32488e-05
2.32478e-05
2.33782e-05
2.23123e-05
2.41846e-05
2.32485e-05
2.32484e-05
2.23121e-05
2.2105e-05
2.1168e-05
2.29497e-05
2.29494e-05
2.20966e-05
2.20962e-05
2.2105e-05
2.11683e-05
2.29503e-05
2.29491e-05
2.20972e-05
2.2096e-05
2.29496e-05
2.20976e-05
2.20965e-05
2.21046e-05
2.11679e-05
2.29503e-05
2.20974e-05
2.20972e-05
2.11678e-05
2.09863e-05
2.01709e-05
2.18259e-05
2.18255e-05
2.10542e-05
2.10538e-05
2.09866e-05
2.01709e-05
2.18266e-05
2.18253e-05
2.1055e-05
2.10536e-05
2.18258e-05
2.10553e-05
2.10542e-05
2.09862e-05
2.01704e-05
2.18265e-05
2.10551e-05
2.1055e-05
2.01704e-05
2.00139e-05
1.93145e-05
2.08103e-05
2.08099e-05
2.0118e-05
2.01177e-05
2.00137e-05
1.93151e-05
2.08111e-05
2.08097e-05
2.01188e-05
2.01175e-05
2.08102e-05
2.01192e-05
2.0118e-05
2.00133e-05
1.93148e-05
2.0811e-05
2.0119e-05
2.01189e-05
1.93144e-05
1.91815e-05
1.85909e-05
1.99002e-05
1.98999e-05
1.92857e-05
1.92855e-05
1.91824e-05
1.85909e-05
1.99011e-05
1.98996e-05
1.92866e-05
1.92853e-05
1.99001e-05
1.92868e-05
1.92857e-05
1.91819e-05
1.85914e-05
1.9901e-05
1.92868e-05
1.92866e-05
1.85906e-05
1.84896e-05
1.7999e-05
1.90935e-05
1.90935e-05
1.8555e-05
1.85547e-05
1.84909e-05
1.79979e-05
1.90943e-05
1.90931e-05
1.85558e-05
1.85546e-05
1.90937e-05
1.85559e-05
1.85549e-05
1.84906e-05
1.79992e-05
1.90945e-05
1.8556e-05
1.85558e-05
1.79993e-05
1.79333e-05
1.75407e-05
1.83875e-05
1.83876e-05
1.79222e-05
1.79215e-05
1.79345e-05
1.75402e-05
1.83884e-05
1.8387e-05
1.79228e-05
1.79218e-05
1.83872e-05
1.79232e-05
1.79221e-05
1.79352e-05
1.75421e-05
1.83883e-05
1.79234e-05
1.79227e-05
1.75407e-05
1.75072e-05
1.7225e-05
1.7779e-05
1.77788e-05
1.73858e-05
1.73865e-05
1.75078e-05
1.72223e-05
1.77795e-05
1.77788e-05
1.73863e-05
1.73864e-05
1.77789e-05
1.73871e-05
1.73867e-05
1.75088e-05
1.72242e-05
1.7779e-05
1.73869e-05
1.73875e-05
1.72279e-05
1.72071e-05
1.70313e-05
1.72678e-05
1.72681e-05
1.69414e-05
1.69424e-05
1.72061e-05
1.70293e-05
1.72683e-05
1.72681e-05
1.69432e-05
1.69449e-05
1.72665e-05
1.69436e-05
1.69463e-05
1.72088e-05
1.70319e-05
1.72673e-05
1.69456e-05
1.69475e-05
1.70425e-05
1.70279e-05
1.7013e-05
1.68492e-05
1.68527e-05
1.66018e-05
1.65973e-05
1.70293e-05
1.69968e-05
1.68501e-05
1.68524e-05
1.66023e-05
1.66022e-05
1.68492e-05
1.65964e-05
1.66045e-05
1.70319e-05
1.6999e-05
1.68509e-05
1.66023e-05
1.66027e-05
1.70029e-05
1.70201e-05
1.71873e-05
1.6524e-05
1.65278e-05
1.63943e-05
1.63945e-05
1.70104e-05
1.72174e-05
1.65273e-05
1.65287e-05
1.63904e-05
1.63752e-05
1.65278e-05
1.63948e-05
1.63755e-05
1.70081e-05
1.71702e-05
1.65262e-05
1.63767e-05
1.63787e-05
1.71807e-05
1.72689e-05
1.73498e-05
1.63564e-05
1.63425e-05
1.6211e-05
1.62348e-05
1.72767e-05
1.74142e-05
1.6349e-05
1.63476e-05
1.62112e-05
1.62426e-05
1.63554e-05
1.62407e-05
1.62159e-05
1.72669e-05
1.75256e-05
1.6358e-05
1.62419e-05
1.62237e-05
1.74503e-05
1.74379e-05
1.84985e-05
1.62163e-05
1.62409e-05
1.63343e-05
1.62692e-05
1.75518e-05
1.823e-05
1.62173e-05
1.62191e-05
1.63293e-05
1.62572e-05
1.62038e-05
1.62807e-05
1.63253e-05
1.7571e-05
1.82218e-05
1.62161e-05
1.62582e-05
1.63418e-05
1.85767e-05
1.85997e-05
1.85917e-05
1.63499e-05
1.62842e-05
1.63304e-05
1.65271e-05
1.83059e-05
1.96169e-05
1.63368e-05
1.63253e-05
1.63162e-05
1.64697e-05
1.63966e-05
1.65016e-05
1.6367e-05
1.84838e-05
1.92388e-05
1.64006e-05
1.64556e-05
1.6351e-05
1.86786e-05
1.85954e-05
1.84189e-05
1.62805e-05
1.65546e-05
1.6218e-05
1.63921e-05
1.97361e-05
1.8813e-05
1.62872e-05
1.64687e-05
1.62443e-05
1.63196e-05
1.62489e-05
1.64025e-05
1.62093e-05
1.92673e-05
1.87683e-05
1.62341e-05
1.63299e-05
1.61985e-05
1.8314e-05
1.84784e-05
1.93369e-05
1.62296e-05
1.63135e-05
1.6468e-05
1.63359e-05
1.87012e-05
1.88527e-05
1.62534e-05
1.62994e-05
1.64591e-05
1.63273e-05
1.63211e-05
1.63269e-05
1.65285e-05
1.87493e-05
1.87953e-05
1.63024e-05
1.63346e-05
1.65206e-05
1.94719e-05
1.94749e-05
1.97461e-05
1.65206e-05
1.64753e-05
1.66759e-05
1.68679e-05
1.93183e-05
2.04983e-05
1.65071e-05
1.6376e-05
1.66816e-05
1.69657e-05
1.65317e-05
1.68803e-05
1.67114e-05
1.89413e-05
2.10095e-05
1.65305e-05
1.69575e-05
1.67491e-05
2.01939e-05
1.99303e-05
2.04892e-05
1.67915e-05
1.69134e-05
1.69794e-05
1.69474e-05
2.05083e-05
2.01177e-05
1.68011e-05
1.70965e-05
1.69821e-05
1.71218e-05
1.69554e-05
1.6945e-05
1.71922e-05
2.11854e-05
2.05411e-05
1.69748e-05
1.71149e-05
1.71901e-05
2.09303e-05
2.06606e-05
2.19171e-05
1.70891e-05
1.69891e-05
1.76448e-05
1.75256e-05
2.01811e-05
2.15234e-05
1.70885e-05
1.71189e-05
1.76386e-05
1.73475e-05
1.71651e-05
1.75189e-05
1.71065e-05
2.05295e-05
2.09969e-05
1.71632e-05
1.73484e-05
1.71057e-05
1.99222e-05
2.19358e-05
2.1212e-05
1.77234e-05
1.75827e-05
1.77265e-05
1.75928e-05
2.15187e-05
2.08331e-05
1.77164e-05
1.74229e-05
1.77221e-05
1.80575e-05
1.71956e-05
1.75873e-05
1.84329e-05
2.12158e-05
2.29005e-05
1.71936e-05
1.80528e-05
1.84326e-05
2.43042e-05
2.12806e-05
2.4486e-05
1.7769e-05
1.76906e-05
1.88341e-05
1.90494e-05
2.10114e-05
2.5068e-05
1.77675e-05
1.83783e-05
1.88422e-05
1.87187e-05
1.86905e-05
1.9058e-05
1.87404e-05
2.34698e-05
2.33105e-05
1.86955e-05
1.87261e-05
1.87475e-05
2.31274e-05
2.4775e-05
2.45144e-05
1.91226e-05
1.92425e-05
1.93254e-05
1.9248e-05
2.51342e-05
2.38539e-05
1.91246e-05
1.86933e-05
1.93162e-05
1.88313e-05
1.86851e-05
1.92408e-05
1.88193e-05
2.31944e-05
2.35107e-05
1.86881e-05
1.88267e-05
1.88098e-05
2.35263e-05
2.45446e-05
2.6546e-05
1.93746e-05
1.92635e-05
2.0261e-05
2.03644e-05
2.38848e-05
2.7326e-05
1.93649e-05
1.92614e-05
2.02686e-05
2.07326e-05
1.91889e-05
2.03626e-05
2.06559e-05
2.45202e-05
2.78162e-05
1.91677e-05
2.07348e-05
2.06678e-05
2.75291e-05
2.70102e-05
2.73341e-05
2.06353e-05
2.08215e-05
2.11261e-05
2.09755e-05
2.7736e-05
2.61042e-05
2.06467e-05
2.07358e-05
2.11328e-05
2.03451e-05
2.07779e-05
2.09821e-05
2.06262e-05
2.77001e-05
2.40384e-05
2.07904e-05
2.0352e-05
2.06276e-05
2.50418e-05
2.73752e-05
2.70787e-05
2.11791e-05
2.09247e-05
2.16048e-05
2.12679e-05
2.59606e-05
2.75212e-05
2.11782e-05
2.03555e-05
2.15902e-05
2.21009e-05
2.06254e-05
2.12484e-05
2.16359e-05
2.40752e-05
3.04902e-05
2.06249e-05
2.2074e-05
2.16202e-05
2.84908e-05
2.70817e-05
2.80066e-05
2.16454e-05
2.18945e-05
2.20019e-05
2.26957e-05
2.83561e-05
2.93783e-05
2.1636e-05
2.28118e-05
2.20086e-05
2.32535e-05
2.21243e-05
2.26992e-05
2.30209e-05
3.10444e-05
2.97446e-05
2.2117e-05
2.32575e-05
2.30285e-05
3.00094e-05
2.90537e-05
3.10853e-05
2.26324e-05
2.28375e-05
2.4101e-05
2.40146e-05
2.94716e-05
3.13055e-05
2.26455e-05
2.32569e-05
2.40995e-05
2.37134e-05
2.33043e-05
2.40086e-05
2.39469e-05
2.97078e-05
3.06407e-05
2.33108e-05
2.37135e-05
2.39466e-05
3.08886e-05
3.10454e-05
3.08272e-05
2.41961e-05
2.43976e-05
2.43876e-05
2.50318e-05
3.17434e-05
3.19919e-05
2.41924e-05
2.40775e-05
2.43839e-05
2.46658e-05
2.41175e-05
2.5033e-05
2.47045e-05
3.10152e-05
3.11999e-05
2.41155e-05
2.46672e-05
2.47004e-05
3.11569e-05
3.13556e-05
3.33427e-05
2.47328e-05
2.51455e-05
2.60734e-05
2.55773e-05
3.20265e-05
3.20921e-05
2.47306e-05
2.47743e-05
2.60688e-05
2.52313e-05
2.48177e-05
2.55755e-05
2.52203e-05
3.12258e-05
3.14523e-05
2.48147e-05
2.52297e-05
2.52163e-05
3.15039e-05
3.34124e-05
3.31142e-05
2.62952e-05
2.57698e-05
2.66011e-05
2.64362e-05
3.22367e-05
3.29498e-05
2.62899e-05
2.55018e-05
2.65931e-05
2.66656e-05
2.55754e-05
2.64226e-05
2.68482e-05
3.17744e-05
3.36396e-05
2.5569e-05
2.66534e-05
2.68417e-05
3.40302e-05
3.3205e-05
3.44117e-05
2.67559e-05
2.67089e-05
2.76327e-05
2.75794e-05
3.32078e-05
3.42097e-05
2.67497e-05
2.70402e-05
2.76349e-05
2.77874e-05
2.71764e-05
2.75853e-05
2.77571e-05
3.39931e-05
3.45677e-05
2.71728e-05
2.77927e-05
2.77577e-05
3.43705e-05
3.47429e-05
3.52658e-05
2.7977e-05
2.78495e-05
2.87458e-05
2.86377e-05
3.44398e-05
3.51617e-05
2.79796e-05
2.79953e-05
2.87443e-05
2.87223e-05
2.79028e-05
2.86314e-05
2.85649e-05
3.46955e-05
3.52551e-05
2.79025e-05
2.8717e-05
2.85624e-05
3.49645e-05
3.53507e-05
3.58074e-05
2.8914e-05
2.89075e-05
2.95281e-05
2.969e-05
3.53854e-05
3.61315e-05
2.89111e-05
2.89603e-05
2.9524e-05
2.96591e-05
2.88306e-05
2.96868e-05
2.9659e-05
3.54571e-05
3.60357e-05
2.88286e-05
2.96571e-05
2.96568e-05
3.61278e-05
3.6104e-05
3.73532e-05
2.98195e-05
2.99411e-05
3.08361e-05
3.07316e-05
3.63311e-05
3.70548e-05
2.98165e-05
2.99078e-05
3.08332e-05
3.06822e-05
2.99527e-05
3.07327e-05
3.07437e-05
3.62332e-05
3.69624e-05
2.995e-05
3.06842e-05
3.07408e-05
3.70434e-05
3.75745e-05
3.7924e-05
3.11418e-05
3.10007e-05
3.17891e-05
3.17681e-05
3.72686e-05
3.79325e-05
3.11388e-05
3.09475e-05
3.17863e-05
3.17449e-05
3.09698e-05
3.17625e-05
3.17093e-05
3.71715e-05
3.79163e-05
3.0967e-05
3.17404e-05
3.17053e-05
3.78429e-05
3.80536e-05
3.88022e-05
3.1994e-05
3.20201e-05
3.27862e-05
3.27848e-05
3.81219e-05
3.88033e-05
3.19916e-05
3.20094e-05
3.27836e-05
3.28088e-05
3.19894e-05
3.27831e-05
3.28284e-05
3.81277e-05
3.88397e-05
3.19856e-05
3.28081e-05
3.28266e-05
3.88947e-05
3.90126e-05
3.95059e-05
3.30475e-05
3.30401e-05
3.37371e-05
3.38021e-05
3.89996e-05
3.96404e-05
3.30451e-05
3.30593e-05
3.37354e-05
3.37686e-05
3.3084e-05
3.38e-05
3.37903e-05
3.90235e-05
3.95734e-05
3.30823e-05
3.37679e-05
3.37879e-05
3.96086e-05
3.96758e-05
4.04149e-05
3.39742e-05
3.40419e-05
3.47403e-05
3.4751e-05
3.98172e-05
4.03804e-05
3.39723e-05
3.40148e-05
3.47376e-05
3.4765e-05
3.40316e-05
3.47501e-05
3.47938e-05
3.9757e-05
4.04295e-05
3.40287e-05
3.47653e-05
3.47907e-05
4.04652e-05
4.06167e-05
4.12232e-05
3.50029e-05
3.49913e-05
3.5742e-05
3.57181e-05
4.05588e-05
4.11924e-05
3.5001e-05
3.50072e-05
3.57398e-05
3.57418e-05
3.50335e-05
3.57159e-05
3.57059e-05
4.06092e-05
4.12281e-05
3.50309e-05
3.57412e-05
3.57036e-05
4.11443e-05
4.13823e-05
4.19623e-05
3.59708e-05
3.59668e-05
3.66711e-05
3.66766e-05
4.13743e-05
4.19824e-05
3.59693e-05
3.59889e-05
3.667e-05
3.66623e-05
3.59395e-05
3.6675e-05
3.66691e-05
4.14068e-05
4.19295e-05
3.59376e-05
3.66625e-05
3.66681e-05
4.19622e-05
4.2134e-05
4.262e-05
3.69085e-05
3.69097e-05
3.75589e-05
3.76119e-05
4.215e-05
4.27166e-05
3.69064e-05
3.68804e-05
3.75559e-05
3.76006e-05
3.6905e-05
3.76094e-05
3.75912e-05
4.20846e-05
4.27186e-05
3.6903e-05
3.75993e-05
3.75882e-05
4.27085e-05
4.27745e-05
4.34735e-05
3.77701e-05
3.78225e-05
3.85006e-05
3.84505e-05
4.28663e-05
4.33424e-05
3.7768e-05
3.7834e-05
3.84988e-05
3.84446e-05
3.7825e-05
3.84516e-05
3.85029e-05
4.28874e-05
4.33473e-05
3.78225e-05
3.84476e-05
3.85012e-05
4.34199e-05
4.36557e-05
4.40761e-05
3.87446e-05
3.86745e-05
3.93533e-05
3.93347e-05
4.35109e-05
4.40802e-05
3.87428e-05
3.86676e-05
3.93524e-05
3.93931e-05
3.87018e-05
3.93318e-05
3.93059e-05
4.35151e-05
4.41513e-05
3.86999e-05
3.93914e-05
3.9304e-05
4.40034e-05
4.41959e-05
4.47031e-05
3.95434e-05
3.95482e-05
4.015e-05
4.01922e-05
4.42323e-05
4.47737e-05
3.95438e-05
3.95827e-05
4.0148e-05
4.01192e-05
3.95216e-05
4.01905e-05
4.01683e-05
4.42763e-05
4.46452e-05
3.95213e-05
4.01199e-05
4.01678e-05
4.47721e-05
4.48514e-05
4.53244e-05
4.03601e-05
4.04024e-05
4.09478e-05
4.09398e-05
4.49175e-05
4.52736e-05
4.03557e-05
4.03474e-05
4.09461e-05
4.09913e-05
4.03975e-05
4.09405e-05
4.10241e-05
4.48204e-05
4.53817e-05
4.03946e-05
4.09935e-05
4.10218e-05
4.54026e-05
4.54753e-05
4.60364e-05
4.11422e-05
4.11116e-05
4.17898e-05
4.17423e-05
4.53897e-05
4.60021e-05
4.11431e-05
4.11654e-05
4.17892e-05
4.17095e-05
4.11858e-05
4.17421e-05
4.16941e-05
4.54923e-05
4.59147e-05
4.11856e-05
4.17107e-05
4.16939e-05
4.58823e-05
4.61552e-05
4.64631e-05
4.19765e-05
4.19617e-05
4.2447e-05
4.25154e-05
4.6169e-05
4.65675e-05
4.19749e-05
4.19122e-05
4.24425e-05
4.25153e-05
4.18962e-05
4.25114e-05
4.25274e-05
4.60682e-05
4.66098e-05
4.18951e-05
4.25138e-05
4.25233e-05
4.66147e-05
4.66185e-05
4.71629e-05
4.26415e-05
4.26864e-05
4.32545e-05
4.32088e-05
4.66778e-05
4.71007e-05
4.2637e-05
4.27116e-05
4.32571e-05
4.33118e-05
4.2713e-05
4.3211e-05
4.32112e-05
4.67644e-05
4.72384e-05
4.27087e-05
4.33149e-05
4.32139e-05
4.7083e-05
4.72488e-05
4.74938e-05
4.34152e-05
4.33823e-05
4.38128e-05
4.38723e-05
4.72196e-05
4.75856e-05
4.34202e-05
4.34779e-05
4.38118e-05
4.37734e-05
4.33873e-05
4.38708e-05
4.38761e-05
4.73163e-05
4.73984e-05
4.33912e-05
4.37745e-05
4.38764e-05
4.76043e-05
4.76426e-05
4.83712e-05
4.39809e-05
4.40142e-05
4.46472e-05
4.45511e-05
4.7695e-05
4.82123e-05
4.39774e-05
4.39021e-05
4.46428e-05
4.45751e-05
4.40313e-05
4.45516e-05
4.45588e-05
4.74827e-05
4.82926e-05
4.4029e-05
4.45785e-05
4.45526e-05
4.8201e-05
4.84868e-05
4.86195e-05
4.48409e-05
4.477e-05
4.51975e-05
4.52455e-05
4.83929e-05
4.86872e-05
4.48371e-05
4.47853e-05
4.52024e-05
4.51262e-05
4.47463e-05
4.52441e-05
4.52396e-05
4.84162e-05
4.85006e-05
4.47408e-05
4.51267e-05
4.52438e-05
4.86704e-05
4.86851e-05
4.90407e-05
4.53125e-05
4.53441e-05
4.57569e-05
4.58025e-05
4.87416e-05
4.91971e-05
4.53166e-05
4.52581e-05
4.57459e-05
4.59734e-05
4.53502e-05
4.57972e-05
4.57784e-05
4.85825e-05
4.95248e-05
4.53528e-05
4.59705e-05
4.57719e-05
4.92157e-05
4.91227e-05
4.97179e-05
4.58605e-05
4.59992e-05
4.63814e-05
4.6249e-05
4.93383e-05
4.92852e-05
4.58543e-05
4.61492e-05
4.63924e-05
4.62146e-05
4.60096e-05
4.62626e-05
4.64152e-05
4.95777e-05
4.90484e-05
4.60047e-05
4.62203e-05
4.64232e-05
4.9403e-05
4.99831e-05
4.98083e-05
4.66397e-05
4.6299e-05
4.69566e-05
4.70625e-05
4.93077e-05
5.05404e-05
4.6647e-05
4.62347e-05
4.69482e-05
4.70791e-05
4.64143e-05
4.70256e-05
4.6567e-05
4.90721e-05
5.06521e-05
4.64222e-05
4.70473e-05
4.65629e-05
4.97626e-05
4.96646e-05
5.02841e-05
4.69268e-05
4.73636e-05
4.71051e-05
4.74382e-05
5.07445e-05
4.99434e-05
4.69172e-05
4.73818e-05
4.71023e-05
4.74762e-05
4.69332e-05
4.74651e-05
4.77755e-05
5.08075e-05
5.00638e-05
4.69176e-05
4.75025e-05
4.77771e-05
5.07906e-05
5.10259e-05
5.14263e-05
4.76391e-05
4.73916e-05
4.83481e-05
4.77882e-05
4.98687e-05
5.118e-05
4.7647e-05
4.74327e-05
4.83561e-05
4.753e-05
4.7797e-05
4.77406e-05
4.78235e-05
5.00309e-05
5.03232e-05
4.78045e-05
4.75127e-05
4.78344e-05
5.06661e-05
5.07943e-05
4.94349e-05
4.81932e-05
4.82981e-05
4.77044e-05
4.8474e-05
5.15961e-05
5.07179e-05
4.81951e-05
4.77666e-05
4.76806e-05
4.88393e-05
4.79277e-05
4.84936e-05
4.84452e-05
5.05074e-05
5.23566e-05
4.79342e-05
4.88878e-05
4.84057e-05
5.1074e-05
5.02559e-05
5.37619e-05
4.79062e-05
4.83117e-05
4.97036e-05
4.85835e-05
5.04757e-05
5.19363e-05
4.78869e-05
4.915e-05
4.97938e-05
4.91101e-05
4.84377e-05
4.85884e-05
4.83433e-05
5.27119e-05
5.10393e-05
4.84067e-05
4.9138e-05
4.83895e-05
5.05438e-05
5.34927e-05
4.9565e-05
4.96884e-05
4.92868e-05
4.85955e-05
4.97434e-05
5.26817e-05
5.2106e-05
4.97726e-05
4.86536e-05
4.84985e-05
4.82815e-05
4.84132e-05
4.96631e-05
5.00919e-05
5.03233e-05
5.02684e-05
4.84881e-05
4.82345e-05
4.9941e-05
5.38309e-05
4.95978e-05
5.31635e-05
4.85396e-05
4.93657e-05
4.95955e-05
4.85991e-05
5.13825e-05
4.98239e-05
4.84336e-05
4.87615e-05
4.97353e-05
5.08886e-05
5.05101e-05
4.87137e-05
5.02922e-05
5.17764e-05
5.51846e-05
5.03397e-05
5.10293e-05
5.03093e-05
5.19708e-05
5.34198e-05
5.23535e-05
5.00774e-05
4.87892e-05
5.02718e-05
5.11637e-05
5.05925e-05
5.50929e-05
5.02864e-05
5.07575e-05
5.03142e-05
4.8639e-05
4.95322e-05
5.10218e-05
4.84314e-05
5.42511e-05
4.84494e-05
4.9754e-05
4.85541e-05
4.84676e-05
4.90937e-05
5.2262e-05
5.26572e-05
5.02113e-05
5.12604e-05
5.02711e-05
5.02351e-05
5.50759e-05
5.12789e-05
5.00923e-05
4.86153e-05
5.00871e-05
5.12068e-05
4.85512e-05
5.02029e-05
5.14938e-05
4.85479e-05
5.60251e-05
4.85393e-05
5.11719e-05
5.13002e-05
5.57375e-05
5.29025e-05
5.31955e-05
5.04485e-05
4.98763e-05
5.07994e-05
4.99318e-05
5.10618e-05
5.24235e-05
5.03579e-05
5.19112e-05
5.09791e-05
5.13799e-05
5.19721e-05
5.00462e-05
5.15133e-05
5.63267e-05
5.20899e-05
5.19536e-05
5.15113e-05
5.17333e-05
5.28119e-05
5.31627e-05
5.27125e-05
5.08058e-05
5.03522e-05
5.07588e-05
5.13012e-05
5.29364e-05
5.38141e-05
5.09669e-05
5.0536e-05
5.07002e-05
4.99684e-05
5.08174e-05
5.12453e-05
5.00386e-05
5.14287e-05
5.17542e-05
5.09929e-05
4.99381e-05
4.99695e-05
5.1345e-05
5.27245e-05
5.32677e-05
5.07576e-05
5.13113e-05
5.1031e-05
5.12145e-05
5.37548e-05
5.32085e-05
5.0678e-05
5.01494e-05
5.09263e-05
5.15164e-05
5.00613e-05
5.11639e-05
5.10938e-05
5.24141e-05
5.42477e-05
4.99859e-05
5.14875e-05
5.10688e-05
5.38863e-05
5.3457e-05
5.39819e-05
5.12123e-05
5.12174e-05
5.17069e-05
5.15288e-05
5.3242e-05
5.37792e-05
5.1203e-05
5.16174e-05
5.17514e-05
5.15372e-05
5.15443e-05
5.15889e-05
5.20024e-05
5.42347e-05
5.33409e-05
5.15655e-05
5.15715e-05
5.20304e-05
5.4328e-05
5.4043e-05
5.39341e-05
5.18194e-05
5.16617e-05
5.1899e-05
5.17773e-05
5.38543e-05
5.37659e-05
5.18355e-05
5.15192e-05
5.18763e-05
5.16769e-05
5.19846e-05
5.17862e-05
5.16337e-05
5.3345e-05
5.38985e-05
5.20039e-05
5.16841e-05
5.16155e-05
5.33112e-05
5.39203e-05
5.36767e-05
5.18853e-05
5.17759e-05
5.17863e-05
5.1832e-05
5.37715e-05
5.38636e-05
5.18626e-05
5.18671e-05
5.18042e-05
5.20987e-05
5.15939e-05
5.17912e-05
5.17625e-05
5.40705e-05
5.41981e-05
5.15828e-05
5.2087e-05
5.17976e-05
5.40591e-05
5.36894e-05
5.39952e-05
5.17836e-05
5.19077e-05
5.19672e-05
5.20926e-05
5.39477e-05
5.40943e-05
5.18046e-05
5.20956e-05
5.19797e-05
5.20133e-05
5.20048e-05
5.21322e-05
5.22724e-05
5.41803e-05
5.38766e-05
5.20436e-05
5.20465e-05
5.22768e-05
5.43043e-05
5.40942e-05
5.4276e-05
5.20807e-05
5.21297e-05
5.22976e-05
5.21971e-05
5.41139e-05
5.4109e-05
5.20755e-05
5.20013e-05
5.22821e-05
5.20717e-05
5.22633e-05
5.21964e-05
5.21283e-05
5.38826e-05
5.40204e-05
5.22631e-05
5.20772e-05
5.21136e-05
5.38993e-05
5.43108e-05
5.436e-05
5.23368e-05
5.22331e-05
5.24248e-05
5.23981e-05
5.415e-05
5.43508e-05
5.2326e-05
5.21737e-05
5.24268e-05
5.24256e-05
5.21202e-05
5.23777e-05
5.2266e-05
5.41163e-05
5.44002e-05
5.21068e-05
5.24047e-05
5.22696e-05
5.42685e-05
5.43857e-05
5.44329e-05
5.24559e-05
5.24575e-05
5.25419e-05
5.25887e-05
5.44069e-05
5.45033e-05
5.2459e-05
5.2485e-05
5.2542e-05
5.25795e-05
5.23906e-05
5.25951e-05
5.26377e-05
5.44453e-05
5.44827e-05
5.23942e-05
5.25879e-05
5.2638e-05
5.45838e-05
5.44668e-05
5.45404e-05
5.25734e-05
5.26137e-05
5.26611e-05
5.26396e-05
5.45242e-05
5.44928e-05
5.25726e-05
5.25965e-05
5.26607e-05
5.26493e-05
5.26666e-05
5.26485e-05
5.26579e-05
5.44988e-05
5.45196e-05
5.26659e-05
5.26583e-05
5.2657e-05
5.44723e-05
5.45628e-05
5.4584e-05
5.26823e-05
5.26551e-05
5.2726e-05
5.27595e-05
5.45123e-05
5.46407e-05
5.26827e-05
5.26705e-05
5.27258e-05
5.27255e-05
5.26534e-05
5.27557e-05
5.27272e-05
5.45438e-05
5.45813e-05
5.26529e-05
5.27225e-05
5.27275e-05
5.46281e-05
5.46167e-05
5.46546e-05
5.27526e-05
5.27864e-05
5.28123e-05
5.27832e-05
5.46715e-05
5.45647e-05
5.275e-05
5.27461e-05
5.28124e-05
5.28125e-05
5.27821e-05
5.27879e-05
5.28014e-05
5.46098e-05
5.46522e-05
5.27808e-05
5.28181e-05
5.28003e-05
5.45828e-05
5.46593e-05
5.45678e-05
5.28102e-05
5.27746e-05
5.27914e-05
5.28164e-05
5.45703e-05
5.46927e-05
5.28113e-05
5.28208e-05
5.27959e-05
5.28192e-05
5.2788e-05
5.28127e-05
5.28181e-05
5.46673e-05
5.46236e-05
5.27892e-05
5.28198e-05
5.28253e-05
5.47052e-05
5.4618e-05
5.48807e-05
5.28056e-05
5.28727e-05
5.29643e-05
5.29217e-05
5.47562e-05
5.47344e-05
5.2809e-05
5.28266e-05
5.29621e-05
5.29326e-05
5.28824e-05
5.2928e-05
5.29262e-05
5.46549e-05
5.47937e-05
5.28867e-05
5.29369e-05
5.29237e-05
5.47132e-05
5.48894e-05
5.44775e-05
5.29655e-05
5.2919e-05
5.28335e-05
5.28752e-05
5.47364e-05
5.46408e-05
5.29637e-05
5.2938e-05
5.28362e-05
5.28712e-05
5.29137e-05
5.28712e-05
5.28747e-05
5.48103e-05
5.45862e-05
5.29114e-05
5.28698e-05
5.28769e-05
5.46567e-05
5.44804e-05
5.48925e-05
5.28093e-05
5.28669e-05
5.29186e-05
5.28939e-05
5.46521e-05
5.47441e-05
5.28113e-05
5.28527e-05
5.29183e-05
5.2918e-05
5.28753e-05
5.29078e-05
5.29214e-05
5.45923e-05
5.48341e-05
5.28774e-05
5.29323e-05
5.29222e-05
5.47483e-05
5.49799e-05
5.46263e-05
5.29994e-05
5.29439e-05
5.29741e-05
5.29654e-05
5.47988e-05
5.47486e-05
5.29995e-05
5.29653e-05
5.29725e-05
5.29247e-05
5.29406e-05
5.29622e-05
5.29399e-05
5.48873e-05
5.45844e-05
5.29413e-05
5.29199e-05
5.29396e-05
5.47138e-05
5.4564e-05
5.45601e-05
5.28752e-05
5.29323e-05
5.27899e-05
5.28098e-05
5.47238e-05
5.45396e-05
5.28722e-05
5.28597e-05
5.27915e-05
5.28404e-05
5.29201e-05
5.28186e-05
5.28487e-05
5.45631e-05
5.46913e-05
5.2918e-05
5.28486e-05
5.28488e-05
5.462e-05
5.46718e-05
5.47466e-05
5.28209e-05
5.28142e-05
5.28959e-05
5.28835e-05
5.45975e-05
5.47467e-05
5.28265e-05
5.28763e-05
5.2897e-05
5.28637e-05
5.28466e-05
5.28836e-05
5.28472e-05
5.47598e-05
5.46249e-05
5.28474e-05
5.28626e-05
5.28468e-05
5.46526e-05
5.47518e-05
5.4655e-05
5.28978e-05
5.28932e-05
5.28689e-05
5.28653e-05
5.47644e-05
5.46275e-05
5.28964e-05
5.28461e-05
5.28641e-05
5.28452e-05
5.28579e-05
5.28638e-05
5.28776e-05
5.46288e-05
5.46999e-05
5.28549e-05
5.28499e-05
5.2879e-05
5.47494e-05
5.46397e-05
5.4276e-05
5.28257e-05
5.2814e-05
5.26265e-05
5.26543e-05
5.46055e-05
5.43464e-05
5.28278e-05
5.28385e-05
5.26305e-05
5.2648e-05
5.28629e-05
5.26612e-05
5.26374e-05
5.47091e-05
5.42981e-05
5.28671e-05
5.26498e-05
5.2634e-05
5.42658e-05
5.43227e-05
5.49152e-05
5.26366e-05
5.26651e-05
5.28492e-05
5.28202e-05
5.44105e-05
5.483e-05
5.26387e-05
5.26451e-05
5.28421e-05
5.28041e-05
5.26375e-05
5.28183e-05
5.28049e-05
5.43172e-05
5.48204e-05
5.26303e-05
5.2801e-05
5.27969e-05
5.48185e-05
5.49132e-05
5.41051e-05
5.28505e-05
5.28174e-05
5.25201e-05
5.25424e-05
5.48153e-05
5.4189e-05
5.28449e-05
5.2818e-05
5.25305e-05
5.25965e-05
5.28144e-05
5.25431e-05
5.25944e-05
5.48339e-05
5.42464e-05
5.28125e-05
5.26116e-05
5.26162e-05
5.42705e-05
5.41055e-05
5.41053e-05
5.24497e-05
5.24885e-05
5.23029e-05
5.23209e-05
5.42035e-05
5.40983e-05
5.24556e-05
5.24968e-05
5.23004e-05
5.22666e-05
5.2514e-05
5.23301e-05
5.22951e-05
5.42377e-05
5.39847e-05
5.25254e-05
5.22672e-05
5.22817e-05
5.40067e-05
5.40005e-05
5.13986e-05
5.13914e-05
5.39542e-05
5.13952e-05
5.13459e-05
4.18286e-05
4.18079e-05
4.18113e-05
5.13577e-05
5.38722e-05
5.13452e-05
3.73773e-05
3.73765e-05
3.7377e-05
3.7377e-05
3.73701e-05
3.73777e-05
3.73043e-05
3.73768e-05
3.73701e-05
3.73777e-05
3.73768e-05
3.73043e-05
3.73741e-05
3.72959e-05
3.72959e-05
3.58797e-05
4.08725e-05
3.66033e-05
4.51461e-05
5.51147e-05
6.48947e-05
3.58803e-05
4.08716e-05
3.66034e-05
4.5146e-05
3.58932e-05
3.58933e-05
3.58932e-05
3.44005e-05
3.44005e-05
3.44005e-05
3.44005e-05
3.52757e-05
3.56385e-05
3.58929e-05
3.53771e-05
3.60476e-05
3.42364e-05
3.53822e-05
5.51168e-05
6.48989e-05
3.52758e-05
3.58929e-05
3.56381e-05
3.53771e-05
3.60475e-05
3.53822e-05
3.42374e-05
3.65969e-05
3.65975e-05
3.5279e-05
3.40645e-05
3.40636e-05
3.39657e-05
5.13543e-05
3.46793e-05
5.46242e-05
7.65452e-05
8.0861e-05
3.39681e-05
5.1355e-05
3.46788e-05
5.46246e-05
3.39296e-05
3.39297e-05
3.39297e-05
3.25854e-05
3.25854e-05