/*--------------------------------*- C++ -*----------------------------------*\
| =========                 |                                                 |
| \\      /  F ield         | OpenFOAM: The Open Source CFD Toolbox           |
|  \\    /   O peration     | Version:  v1912                                 |
|   \\  /    A nd           | Website:  www.openfoam.com                      |
|    \\/     M anipulation  |                                                 |
\*---------------------------------------------------------------------------*/
FoamFile
{
    version     2.0;
    format      ascii;
    class       volScalarField;
    location    "1.25";
    object      nut;
}
// * * * * * * * * * * * * * * * * * * * * * * * * * * * * * * * * * * * * * //

dimensions      [0 2 -1 0 0 0 0];


internalField   nonuniform List<scalar> 
171728
(
9.18832e-07
9.41765e-07
9.42237e-07
3.79866e-07
6.12856e-08
7.11654e-08
7.13465e-08
9.02583e-08
4.84276e-09
6.06392e-09
6.06013e-09
8.81396e-08
1.38174e-09
3.5447e-09
3.5182e-09
8.82576e-08
1.44223e-09
3.34458e-09
3.34902e-09
8.82618e-08
1.44282e-09
3.33772e-09
3.34309e-09
8.82621e-08
1.4334e-09
3.34523e-09
3.33867e-09
8.82624e-08
1.4454e-09
3.34789e-09
3.34492e-09
8.82616e-08
1.4483e-09
3.34548e-09
3.33824e-09
8.8264e-08
1.44554e-09
3.34477e-09
3.34036e-09
8.82627e-08
1.44484e-09
3.34451e-09
3.34399e-09
8.82633e-08
1.4524e-09
3.34116e-09
3.34257e-09
8.82634e-08
1.45649e-09
3.36992e-09
3.34411e-09
8.82632e-08
1.46111e-09
3.36978e-09
3.34073e-09
8.82629e-08
1.4394e-09
3.33489e-09
3.34489e-09
8.82632e-08
1.44198e-09
3.33476e-09
3.34031e-09
8.82639e-08
1.45101e-09
3.34617e-09
3.34278e-09
8.82648e-08
1.4443e-09
3.33733e-09
3.34266e-09
8.82637e-08
1.44293e-09
3.32839e-09
3.34285e-09
8.82626e-08
1.4331e-09
3.35983e-09
3.3377e-09
8.82561e-08
1.53985e-09
3.34347e-09
3.34299e-09
8.82658e-08
1.44435e-09
3.34723e-09
3.34253e-09
8.82657e-08
1.44829e-09
3.34579e-09
3.34335e-09
8.82662e-08
1.44743e-09
3.34569e-09
3.34366e-09
8.8266e-08
1.44927e-09
3.34455e-09
3.34283e-09
8.82665e-08
1.44775e-09
3.34536e-09
3.34291e-09
8.8266e-08
1.44867e-09
3.34624e-09
3.34397e-09
8.82664e-08
1.44844e-09
3.34535e-09
3.34308e-09
8.82665e-08
1.44792e-09
3.34434e-09
3.34207e-09
8.82659e-08
1.44887e-09
3.34621e-09
3.34409e-09
8.82656e-08
1.44788e-09
3.34552e-09
3.34304e-09
8.82662e-08
1.44871e-09
3.34336e-09
3.34297e-09
8.82664e-08
1.44873e-09
3.34715e-09
3.34362e-09
8.82663e-08
1.4476e-09
3.34686e-09
3.34391e-09
8.8266e-08
1.44846e-09
3.34688e-09
3.34394e-09
8.82666e-08
1.44828e-09
3.34515e-09
3.34301e-09
8.82659e-08
1.44923e-09
3.34707e-09
3.34496e-09
8.82662e-08
1.44892e-09
3.34623e-09
3.34411e-09
8.82668e-08
1.44858e-09
3.34741e-09
3.35089e-09
8.82669e-08
1.46597e-09
3.35353e-09
3.3494e-09
8.82516e-08
1.60909e-09
3.32897e-09
3.34498e-09
8.82652e-08
1.44756e-09
3.33771e-09
3.33837e-09
8.82664e-08
1.44987e-09
3.34504e-09
3.33732e-09
8.82671e-08
1.45097e-09
3.34326e-09
3.33782e-09
8.82669e-08
1.45328e-09
3.34381e-09
3.34202e-09
8.82667e-08
1.45163e-09
3.34265e-09
3.33832e-09
8.82672e-08
1.45083e-09
3.34206e-09
3.34161e-09
8.82682e-08
1.45134e-09
3.34314e-09
3.34548e-09
8.82675e-08
1.45158e-09
3.34405e-09
3.34661e-09
8.8267e-08
1.45149e-09
3.34289e-09
3.34547e-09
8.82673e-08
1.45109e-09
3.3422e-09
3.34524e-09
8.82671e-08
1.4521e-09
3.343e-09
3.34448e-09
8.82669e-08
1.45283e-09
3.34426e-09
3.34579e-09
8.82672e-08
1.45332e-09
3.35124e-09
3.34465e-09
8.82671e-08
1.45484e-09
3.34502e-09
3.34609e-09
8.82664e-08
1.45034e-09
3.34212e-09
3.34469e-09
8.82626e-08
1.44886e-09
3.34711e-09
3.34476e-09
8.82537e-08
1.44877e-09
3.34633e-09
3.34339e-09
8.82537e-08
1.44922e-09
3.34763e-09
3.34484e-09
8.82532e-08
1.44968e-09
3.3469e-09
3.34325e-09
8.82532e-08
1.44964e-09
3.34758e-09
3.34515e-09
8.8253e-08
1.4485e-09
3.3464e-09
3.34334e-09
8.82536e-08
1.44838e-09
3.34782e-09
3.34483e-09
8.82525e-08
1.44973e-09
3.34766e-09
3.34495e-09
8.82527e-08
1.4491e-09
3.34782e-09
3.34492e-09
8.82532e-08
1.44857e-09
3.34744e-09
3.3445e-09
8.82527e-08
1.44867e-09
3.346e-09
3.34308e-09
8.82527e-08
1.44809e-09
3.34654e-09
3.34405e-09
8.8253e-08
1.44406e-09
3.34553e-09
3.34398e-09
8.82533e-08
1.44076e-09
3.34705e-09
3.3262e-09
8.82548e-08
1.44519e-09
3.349e-09
3.34091e-09
8.82507e-08
1.44946e-09
3.34749e-09
3.34478e-09
8.82526e-08
1.44832e-09
3.34658e-09
3.3432e-09
8.82528e-08
1.44814e-09
3.34693e-09
3.3433e-09
8.82516e-08
1.44975e-09
3.34727e-09
3.34347e-09
8.82513e-08
1.4483e-09
3.34686e-09
3.3432e-09
8.82515e-08
1.44881e-09
3.34708e-09
3.34323e-09
8.82517e-08
1.44927e-09
3.34711e-09
3.34351e-09
8.82516e-08
1.44934e-09
3.34651e-09
3.3435e-09
8.82512e-08
1.44888e-09
3.34804e-09
3.34508e-09
8.82519e-08
1.44826e-09
3.34693e-09
3.34402e-09
8.82514e-08
1.44886e-09
3.34709e-09
3.34409e-09
8.82517e-08
1.44914e-09
3.34734e-09
3.34437e-09
8.82516e-08
1.45106e-09
3.34726e-09
3.34435e-09
8.82518e-08
1.45105e-09
3.34716e-09
3.3442e-09
8.82516e-08
1.45121e-09
3.34714e-09
3.34468e-09
8.82509e-08
1.45112e-09
3.34825e-09
3.34557e-09
8.82518e-08
1.44982e-09
3.34618e-09
3.34368e-09
8.82513e-08
1.45059e-09
3.34627e-09
3.34314e-09
8.82512e-08
1.45172e-09
3.34747e-09
3.34424e-09
8.82516e-08
1.45402e-09
3.34582e-09
3.34081e-09
8.8254e-08
1.52312e-09
3.36855e-09
3.37425e-09
8.82528e-08
3.79587e-09
4.35111e-09
4.40787e-09
8.81794e-08
4.71108e-08
4.24372e-08
4.23892e-08
8.73272e-08
3.97418e-07
2.15358e-07
2.15389e-07
4.31411e-07
3.13097e-07
6.01139e-07
6.01444e-07
3.1317e-07
6.0121e-07
6.01299e-07
1.69937e-06
1.69942e-06
1.69936e-06
1.6994e-06
6.01025e-07
6.01051e-07
3.12923e-07
6.00911e-07
6.01217e-07
3.12875e-07
3.79937e-07
2.31237e-07
9.42296e-07
9.42348e-07
1.56237e-07
1.5621e-07
3.79877e-07
2.31131e-07
9.42189e-07
9.42855e-07
1.56402e-07
1.56291e-07
9.42574e-07
1.56264e-07
1.56155e-07
3.79862e-07
2.31229e-07
9.42367e-07
1.56314e-07
1.5629e-07
2.31237e-07
9.03123e-08
2.25412e-07
7.12433e-08
7.12642e-08
9.28884e-09
9.37173e-09
9.02865e-08
2.25485e-07
7.12683e-08
7.1248e-08
9.24639e-09
9.30174e-09
7.12381e-08
9.18757e-09
9.27842e-09
9.03276e-08
2.25439e-07
7.13841e-08
9.26755e-09
9.21846e-09
2.25437e-07
8.80573e-08
2.25036e-07
6.10321e-09
6.08964e-09
3.73223e-09
3.72646e-09
8.80617e-08
2.25043e-07
6.11908e-09
6.09896e-09
3.70558e-09
3.73582e-09
6.11259e-09
3.70892e-09
3.74858e-09
8.81127e-08
2.25059e-07
6.12392e-09
3.6777e-09
3.66888e-09
2.25021e-07
8.82378e-08
2.25014e-07
3.55544e-09
3.59226e-09
3.3953e-09
3.39625e-09
8.82157e-08
2.2501e-07
3.50545e-09
3.55981e-09
3.35335e-09
3.40134e-09
3.57487e-09
3.35049e-09
3.38946e-09
8.82571e-08
2.25035e-07
3.52597e-09
3.33883e-09
3.34332e-09
2.24986e-07
8.82408e-08
2.25012e-07
3.39283e-09
3.39341e-09
3.38673e-09
3.3966e-09
8.82232e-08
2.25003e-07
3.33677e-09
3.3959e-09
3.35795e-09
3.38968e-09
3.38173e-09
3.3369e-09
3.37685e-09
8.82551e-08
2.25031e-07
3.33745e-09
3.32733e-09
3.33071e-09
2.24983e-07
8.82408e-08
2.25015e-07
3.39016e-09
3.40515e-09
3.37129e-09
3.42308e-09
8.8227e-08
2.25012e-07
3.325e-09
3.38962e-09
3.3513e-09
3.38588e-09
3.37625e-09
3.34922e-09
3.37207e-09
8.82557e-08
2.25037e-07
3.33179e-09
3.32287e-09
3.32672e-09
2.24988e-07
8.82447e-08
2.25018e-07
3.34446e-09
3.4143e-09
3.40671e-09
3.40253e-09
8.82196e-08
2.25013e-07
3.31694e-09
3.38647e-09
3.3559e-09
3.38753e-09
3.37134e-09
3.34742e-09
3.37422e-09
8.82556e-08
2.25036e-07
3.32792e-09
3.32543e-09
3.32959e-09
2.24986e-07
8.82454e-08
2.25018e-07
3.3913e-09
3.40593e-09
3.38856e-09
3.40448e-09
8.82163e-08
2.25009e-07
3.33091e-09
3.39065e-09
3.36085e-09
3.38947e-09
3.37597e-09
3.34815e-09
3.37594e-09
8.82548e-08
2.25032e-07
3.33372e-09
3.32747e-09
3.33148e-09
2.24981e-07
8.82242e-08
2.25019e-07
3.38826e-09
3.4034e-09
3.36249e-09
3.38522e-09
8.82184e-08
2.25027e-07
3.32763e-09
3.38991e-09
3.34292e-09
3.38601e-09
3.37445e-09
3.34188e-09
3.37101e-09
8.82569e-08
2.25041e-07
3.32968e-09
3.32223e-09
3.32645e-09
2.24991e-07
8.82329e-08
2.25002e-07
3.37213e-09
3.35093e-09
3.40194e-09
3.33801e-09
8.82112e-08
2.25011e-07
3.33281e-09
3.3883e-09
3.34024e-09
3.38992e-09
3.37163e-09
3.34513e-09
3.37534e-09
8.82558e-08
2.25035e-07
3.32931e-09
3.32685e-09
3.33122e-09
2.24983e-07
8.82452e-08
2.25014e-07
3.43648e-09
3.36124e-09
3.38785e-09
3.34313e-09
8.82171e-08
2.25011e-07
3.34092e-09
3.39061e-09
3.34739e-09
3.38796e-09
3.37459e-09
3.34437e-09
3.37279e-09
8.82559e-08
2.25037e-07
3.33247e-09
3.32525e-09
3.32802e-09
2.24988e-07
8.82328e-08
2.25009e-07
3.3878e-09
3.33253e-09
3.38571e-09
3.33454e-09
8.82179e-08
2.25038e-07
3.34175e-09
3.38891e-09
3.34187e-09
3.38742e-09
3.37324e-09
3.35738e-09
3.37843e-09
8.82569e-08
2.25036e-07
3.32948e-09
3.32696e-09
3.32856e-09
2.24987e-07
8.82348e-08
2.25012e-07
3.38849e-09
3.34808e-09
3.37541e-09
3.40767e-09
8.82132e-08
2.25038e-07
3.337e-09
3.38888e-09
3.33069e-09
3.38465e-09
3.37919e-09
3.36247e-09
3.37587e-09
8.82573e-08
2.25039e-07
3.33143e-09
3.32379e-09
3.32737e-09
2.24992e-07
8.82314e-08
2.25002e-07
3.37825e-09
3.41613e-09
3.404e-09
3.39746e-09
8.82193e-08
2.25018e-07
3.32772e-09
3.386e-09
3.32614e-09
3.38947e-09
3.37512e-09
3.34229e-09
3.37766e-09
8.82571e-08
2.25035e-07
3.32976e-09
3.32737e-09
3.3323e-09
2.24985e-07
8.82377e-08
2.2501e-07
3.40022e-09
3.38696e-09
3.39027e-09
3.45116e-09
8.82292e-08
2.25006e-07
3.34458e-09
3.39126e-09
3.34642e-09
3.38556e-09
3.3781e-09
3.34241e-09
3.37197e-09
8.82568e-08
2.25041e-07
3.33436e-09
3.32346e-09
3.32668e-09
2.24992e-07
8.8235e-08
2.25004e-07
3.38985e-09
3.41969e-09
3.39666e-09
3.40376e-09
8.82462e-08
2.24989e-07
3.34299e-09
3.3868e-09
3.34677e-09
3.38864e-09
3.37106e-09
3.34298e-09
3.37606e-09
8.82572e-08
2.25037e-07
3.32807e-09
3.3261e-09
3.33079e-09
2.24986e-07
8.82368e-08
2.25007e-07
3.38054e-09
3.40218e-09
3.39737e-09
3.39041e-09
8.82395e-08
2.25034e-07
3.34458e-09
3.38951e-09
3.34601e-09
3.38712e-09
3.37521e-09
3.34498e-09
3.37465e-09
8.82577e-08
2.25041e-07
3.33195e-09
3.32431e-09
3.32901e-09
2.2499e-07
8.82336e-08
2.25024e-07
3.37441e-09
3.38098e-09
3.3676e-09
3.37561e-09
8.82498e-08
2.25035e-07
3.34303e-09
3.39028e-09
3.33953e-09
3.38993e-09
3.37634e-09
3.32217e-09
3.37395e-09
8.82568e-08
2.2504e-07
3.33217e-09
3.32562e-09
3.32581e-09
2.24992e-07
8.82375e-08
2.24995e-07
3.36825e-09
3.4034e-09
3.43026e-09
3.48375e-09
8.82814e-08
2.25074e-07
3.33414e-09
3.39077e-09
3.35807e-09
3.38493e-09
3.37227e-09
3.36815e-09
3.38454e-09
8.82576e-08
2.2504e-07
3.32361e-09
3.32276e-09
3.32333e-09
2.25005e-07
8.82759e-08
2.25064e-07
3.39436e-09
3.42066e-09
3.3785e-09
3.45143e-09
8.82214e-08
2.25033e-07
3.359e-09
3.38497e-09
3.19493e-09
3.39001e-09
3.39822e-09
3.33157e-09
3.37634e-09
8.82596e-08
2.25044e-07
3.34171e-09
3.32223e-09
3.32961e-09
2.24994e-07
8.82296e-08
2.2503e-07
3.43315e-09
3.44044e-09
3.40656e-09
3.39852e-09
8.82327e-08
2.25025e-07
3.27515e-09
3.38782e-09
3.35813e-09
3.38677e-09
3.37501e-09
3.35208e-09
3.37341e-09
8.82585e-08
2.25043e-07
3.33036e-09
3.32529e-09
3.32976e-09
2.24993e-07
8.82574e-08
2.25028e-07
3.39945e-09
3.40409e-09
3.388e-09
3.40468e-09
8.82353e-08
2.25025e-07
3.34373e-09
3.388e-09
3.3489e-09
3.38855e-09
3.37359e-09
3.34762e-09
3.37477e-09
8.82591e-08
2.25043e-07
3.33133e-09
3.3263e-09
3.33042e-09
2.24992e-07
8.82571e-08
2.25027e-07
3.39371e-09
3.40736e-09
3.38595e-09
3.40414e-09
8.82353e-08
2.25024e-07
3.34228e-09
3.38917e-09
3.34699e-09
3.38791e-09
3.37486e-09
3.34743e-09
3.37362e-09
8.82592e-08
2.25042e-07
3.33237e-09
3.32636e-09
3.33858e-09
2.24992e-07
8.82573e-08
2.25028e-07
3.39169e-09
3.40656e-09
3.38462e-09
3.4034e-09
8.82355e-08
2.25025e-07
3.34041e-09
3.38829e-09
3.34568e-09
3.38711e-09
3.37433e-09
3.34636e-09
3.3735e-09
8.82593e-08
2.25043e-07
3.33979e-09
3.32555e-09
3.33418e-09
2.24992e-07
8.82565e-08
2.2503e-07
3.393e-09
3.40663e-09
3.38415e-09
3.40328e-09
8.82353e-08
2.25025e-07
3.34173e-09
3.38834e-09
3.3452e-09
3.38719e-09
3.3726e-09
3.34713e-09
3.37483e-09
8.82592e-08
2.25043e-07
3.33614e-09
3.3254e-09
3.33318e-09
2.24992e-07
8.8257e-08
2.25025e-07
3.39083e-09
3.40585e-09
3.3873e-09
3.40546e-09
8.82354e-08
2.25023e-07
3.3396e-09
3.38771e-09
3.34833e-09
3.38924e-09
3.3749e-09
3.34815e-09
3.37418e-09
8.82592e-08
2.25041e-07
3.33594e-09
3.32692e-09
3.33372e-09
2.24991e-07
8.82571e-08
2.25029e-07
3.39376e-09
3.40767e-09
3.38416e-09
3.40314e-09
8.82355e-08
2.25025e-07
3.34248e-09
3.38948e-09
3.34522e-09
3.38692e-09
3.37382e-09
3.34674e-09
3.37425e-09
8.82594e-08
2.25043e-07
3.33531e-09
3.32554e-09
3.33381e-09
2.24992e-07
8.82568e-08
2.25029e-07
3.39213e-09
3.40668e-09
3.38486e-09
3.40337e-09
8.82355e-08
2.25026e-07
3.34087e-09
3.38848e-09
3.3459e-09
3.38717e-09
3.37418e-09
3.34644e-09
3.37339e-09
8.82593e-08
2.25044e-07
3.33566e-09
3.32525e-09
3.33296e-09
2.24994e-07
8.82568e-08
2.25029e-07
3.39131e-09
3.40543e-09
3.38578e-09
3.40446e-09
8.82354e-08
2.25025e-07
3.34006e-09
3.38722e-09
3.34681e-09
3.38821e-09
3.37374e-09
3.34751e-09
3.37434e-09
8.82592e-08
2.25043e-07
3.33523e-09
3.32635e-09
3.33391e-09
2.24992e-07
8.82565e-08
2.25029e-07
3.39302e-09
3.40769e-09
3.38553e-09
3.40296e-09
8.82349e-08
2.25025e-07
3.34175e-09
3.38917e-09
3.34617e-09
3.38775e-09
3.37511e-09
3.34741e-09
3.37439e-09
8.82588e-08
2.25043e-07
3.33658e-09
3.32608e-09
3.334e-09
2.24992e-07
8.82571e-08
2.25027e-07
3.39193e-09
3.38883e-09
3.38555e-09
3.40658e-09
8.82364e-08
2.25017e-07
3.34052e-09
3.38823e-09
3.3466e-09
3.38764e-09
3.37404e-09
3.35042e-09
3.37372e-09
8.82594e-08
2.25042e-07
3.33546e-09
3.32587e-09
3.33329e-09
2.24992e-07
8.82569e-08
2.25029e-07
3.39357e-09
3.40867e-09
3.38419e-09
3.40964e-09
8.82377e-08
2.25031e-07
3.34202e-09
3.38823e-09
3.34527e-09
3.38756e-09
3.37351e-09
3.34858e-09
3.37455e-09
8.82594e-08
2.25042e-07
3.33498e-09
3.32623e-09
3.33413e-09
2.24991e-07
8.82564e-08
2.25029e-07
3.39242e-09
3.41202e-09
3.38547e-09
3.40894e-09
8.82314e-08
2.25033e-07
3.34117e-09
3.38881e-09
3.34649e-09
3.38744e-09
3.37378e-09
3.34807e-09
3.37333e-09
8.8259e-08
2.25043e-07
3.33522e-09
3.32631e-09
3.3334e-09
2.24993e-07
8.82573e-08
2.25028e-07
3.3913e-09
3.41139e-09
3.38603e-09
3.40934e-09
8.82317e-08
2.25032e-07
3.34006e-09
3.38786e-09
3.34708e-09
3.38874e-09
3.37394e-09
3.34785e-09
3.37403e-09
8.82593e-08
2.25043e-07
3.33591e-09
3.32234e-09
3.32943e-09
2.24994e-07
8.8257e-08
2.25028e-07
3.39306e-09
3.41258e-09
3.38498e-09
3.40828e-09
8.82316e-08
2.25034e-07
3.3418e-09
3.38917e-09
3.34602e-09
3.38728e-09
3.37373e-09
3.34633e-09
3.37212e-09
8.82597e-08
2.25044e-07
3.33579e-09
3.32304e-09
3.33013e-09
2.24996e-07
8.82568e-08
2.25029e-07
3.39192e-09
3.41084e-09
3.38485e-09
3.40902e-09
8.82314e-08
2.25032e-07
3.34066e-09
3.38716e-09
3.34592e-09
3.38796e-09
3.37293e-09
3.34771e-09
3.37334e-09
8.82595e-08
2.25043e-07
3.33598e-09
3.32446e-09
3.33143e-09
2.24994e-07
8.82562e-08
2.25028e-07
3.39307e-09
3.41256e-09
3.38541e-09
3.40929e-09
8.8231e-08
2.25032e-07
3.34182e-09
3.38884e-09
3.34643e-09
3.38822e-09
3.37365e-09
3.34801e-09
3.3756e-09
8.82591e-08
2.25043e-07
3.33673e-09
3.32478e-09
3.33372e-09
2.24992e-07
8.82568e-08
2.25029e-07
3.39254e-09
3.41144e-09
3.38503e-09
3.40878e-09
8.82316e-08
2.25032e-07
3.34127e-09
3.38768e-09
3.346e-09
3.38741e-09
3.37357e-09
3.34866e-09
3.37469e-09
8.82597e-08
2.25043e-07
3.33672e-09
3.32584e-09
3.33356e-09
2.24992e-07
8.82568e-08
2.25028e-07
3.39317e-09
3.41142e-09
3.39624e-09
3.40176e-09
8.82317e-08
2.25031e-07
3.34149e-09
3.38731e-09
3.34182e-09
3.38613e-09
3.37187e-09
3.34937e-09
3.34656e-09
8.82593e-08
2.25044e-07
3.33724e-09
3.3214e-09
3.31479e-09
2.24994e-07
8.82521e-08
2.25029e-07
3.38818e-09
3.41067e-09
3.33624e-09
3.40481e-09
8.8234e-08
2.25052e-07
3.32431e-09
3.38576e-09
3.31457e-09
3.3943e-09
3.34908e-09
3.33744e-09
3.41709e-09
8.82587e-08
2.25046e-07
3.23999e-09
3.32397e-09
3.32351e-09
2.24999e-07
8.82494e-08
2.25022e-07
3.37166e-09
3.36846e-09
3.39046e-09
3.40649e-09
8.82404e-08
2.25058e-07
3.22477e-09
3.39602e-09
3.36326e-09
3.38966e-09
3.39019e-09
3.34155e-09
3.37664e-09
8.82585e-08
2.25044e-07
3.35574e-09
3.33212e-09
3.33454e-09
2.24994e-07
8.82463e-08
2.25017e-07
3.38503e-09
3.41059e-09
3.37922e-09
3.41606e-09
8.82823e-08
2.25051e-07
3.32447e-09
3.389e-09
3.35829e-09
3.38804e-09
3.37554e-09
3.34785e-09
3.37474e-09
8.82591e-08
2.25044e-07
3.33726e-09
3.33102e-09
3.33208e-09
2.24994e-07
8.82428e-08
2.25015e-07
3.38279e-09
3.40886e-09
3.37923e-09
3.40412e-09
8.82514e-08
2.25052e-07
3.32461e-09
3.38794e-09
3.35994e-09
3.38875e-09
3.3732e-09
3.34459e-09
3.37503e-09
8.82591e-08
2.25044e-07
3.33529e-09
3.33172e-09
3.33272e-09
2.24994e-07
8.82433e-08
2.25015e-07
3.38224e-09
3.40373e-09
3.37926e-09
3.40329e-09
8.825e-08
2.25051e-07
3.32521e-09
3.38861e-09
3.35735e-09
3.38865e-09
3.37406e-09
3.34496e-09
3.37449e-09
8.82592e-08
2.25043e-07
3.33635e-09
3.32972e-09
3.33246e-09
2.24994e-07
8.82429e-08
2.25014e-07
3.38311e-09
3.40382e-09
3.37871e-09
3.40345e-09
8.82499e-08
2.25051e-07
3.32526e-09
3.38912e-09
3.36092e-09
3.38884e-09
3.37439e-09
3.34462e-09
3.3752e-09
8.8259e-08
2.25043e-07
3.33703e-09
3.33276e-09
3.33568e-09
2.24992e-07
8.82433e-08
2.25015e-07
3.38268e-09
3.40287e-09
3.37834e-09
3.40241e-09
8.82505e-08
2.25052e-07
3.32589e-09
3.38853e-09
3.36093e-09
3.38853e-09
3.37413e-09
3.34401e-09
3.37434e-09
8.82594e-08
2.25044e-07
3.33531e-09
3.33189e-09
3.33333e-09
2.24995e-07
8.82433e-08
2.25015e-07
3.38225e-09
3.40222e-09
3.37912e-09
3.40351e-09
8.82504e-08
2.25052e-07
3.3255e-09
3.3884e-09
3.3611e-09
3.38946e-09
3.37169e-09
3.34425e-09
3.37505e-09
8.82597e-08
2.25045e-07
3.33873e-09
3.3243e-09
3.33224e-09
2.24995e-07
8.82434e-08
2.25015e-07
3.38271e-09
3.40307e-09
3.37885e-09
3.40368e-09
8.82501e-08
2.25052e-07
3.32588e-09
3.38879e-09
3.36072e-09
3.38937e-09
3.37323e-09
3.34471e-09
3.37551e-09
8.82597e-08
2.25044e-07
3.33586e-09
3.32506e-09
3.33365e-09
2.24994e-07
8.82429e-08
2.25016e-07
3.38293e-09
3.40399e-09
3.37777e-09
3.40252e-09
8.82497e-08
2.25053e-07
3.32601e-09
3.38956e-09
3.35963e-09
3.38815e-09
3.37446e-09
3.34364e-09
3.37437e-09
8.82592e-08
2.25045e-07
3.33737e-09
3.324e-09
3.33255e-09
2.24995e-07
8.82429e-08
2.25017e-07
3.38244e-09
3.40309e-09
3.37767e-09
3.40267e-09
8.82499e-08
2.25053e-07
3.3255e-09
3.38861e-09
3.35959e-09
3.38823e-09
3.3727e-09
3.34382e-09
3.374e-09
8.82594e-08
2.25045e-07
3.3357e-09
3.32469e-09
3.33276e-09
2.24996e-07
8.82431e-08
2.25015e-07
3.38149e-09
3.40265e-09
3.37905e-09
3.40355e-09
8.82501e-08
2.25052e-07
3.32462e-09
3.38811e-09
3.36104e-09
3.38924e-09
3.37353e-09
3.34485e-09
3.37464e-09
8.82596e-08
2.25044e-07
3.3397e-09
3.32537e-09
3.33311e-09
2.24994e-07
8.82429e-08
2.25014e-07
3.38284e-09
3.40346e-09
3.37865e-09
3.40411e-09
8.825e-08
2.25051e-07
3.32607e-09
3.38916e-09
3.36091e-09
3.38933e-09
3.37452e-09
3.3452e-09
3.37507e-09
8.82594e-08
2.25043e-07
3.33572e-09
3.32605e-09
3.33507e-09
2.24993e-07
8.8243e-08
2.25015e-07
3.38281e-09
3.40452e-09
3.37653e-09
3.40799e-09
8.82499e-08
2.25055e-07
3.3264e-09
3.3897e-09
3.35084e-09
3.38773e-09
3.37434e-09
3.34773e-09
3.3722e-09
8.82594e-08
2.25044e-07
3.33689e-09
3.32475e-09
3.33361e-09
2.24995e-07
8.82438e-08
2.25014e-07
3.38109e-09
3.41728e-09
3.3737e-09
3.38855e-09
8.82483e-08
2.25068e-07
3.34299e-09
3.38897e-09
3.34627e-09
3.38828e-09
3.37159e-09
3.34985e-09
3.37283e-09
8.82595e-08
2.25044e-07
3.33504e-09
3.32528e-09
3.33433e-09
2.24995e-07
8.82443e-08
2.25016e-07
3.37961e-09
3.36094e-09
3.37684e-09
3.39469e-09
8.82359e-08
2.25054e-07
3.34134e-09
3.38936e-09
3.34585e-09
3.38948e-09
3.37421e-09
3.34161e-09
3.37074e-09
8.82591e-08
2.25043e-07
3.33697e-09
3.32699e-09
3.32661e-09
2.24997e-07
8.82433e-08
2.25015e-07
3.3814e-09
3.39725e-09
3.37841e-09
3.40086e-09
8.8248e-08
2.25054e-07
3.33957e-09
3.39101e-09
3.34418e-09
3.38498e-09
3.36381e-09
3.34879e-09
3.39191e-09
8.82588e-08
2.25039e-07
3.31357e-09
3.32857e-09
3.33345e-09
2.25005e-07
8.82435e-08
2.25014e-07
3.38186e-09
3.40098e-09
3.379e-09
3.40169e-09
8.82483e-08
2.25054e-07
3.33759e-09
3.38479e-09
3.34421e-09
3.38356e-09
3.39304e-09
3.34875e-09
3.39288e-09
8.82607e-08
2.25039e-07
3.33167e-09
3.32726e-09
3.33394e-09
2.25007e-07
8.82436e-08
2.25013e-07
3.38262e-09
3.40104e-09
3.37923e-09
3.4021e-09
8.82487e-08
2.25054e-07
3.33802e-09
3.38374e-09
3.34437e-09
3.38382e-09
3.39237e-09
3.34888e-09
3.39248e-09
8.82612e-08
2.25039e-07
3.33077e-09
3.32738e-09
3.33358e-09
2.25009e-07
8.82431e-08
2.25014e-07
3.38343e-09
3.40236e-09
3.379e-09
3.40168e-09
8.82481e-08
2.25055e-07
3.3388e-09
3.38495e-09
3.34415e-09
3.38345e-09
3.39279e-09
3.34771e-09
3.39099e-09
8.82606e-08
2.2504e-07
3.33134e-09
3.32572e-09
3.33246e-09
2.25011e-07
8.82431e-08
2.25012e-07
3.3838e-09
3.40224e-09
3.37903e-09
3.40183e-09
8.82482e-08
2.25053e-07
3.33919e-09
3.38496e-09
3.34418e-09
3.38369e-09
3.39178e-09
3.34807e-09
3.39176e-09
8.82607e-08
2.25038e-07
3.33029e-09
3.32584e-09
3.33084e-09
2.25009e-07
8.82432e-08
2.25013e-07
3.38413e-09
3.40245e-09
3.37878e-09
3.40197e-09
8.82481e-08
2.25053e-07
3.33947e-09
3.38512e-09
3.3439e-09
3.3838e-09
3.39305e-09
3.34861e-09
3.39324e-09
8.82607e-08
2.25038e-07
3.33366e-09
3.32687e-09
3.33375e-09
2.25007e-07
8.82437e-08
2.25015e-07
3.38265e-09
3.40138e-09
3.37844e-09
3.40107e-09
8.82486e-08
2.25055e-07
3.33798e-09
3.38408e-09
3.34358e-09
3.38282e-09
3.39247e-09
3.34817e-09
3.39221e-09
8.82612e-08
2.2504e-07
3.33071e-09
3.3266e-09
3.33316e-09
2.25009e-07
8.82431e-08
2.25015e-07
3.38297e-09
3.40186e-09
3.3785e-09
3.40075e-09
8.82478e-08
2.25056e-07
3.33832e-09
3.38451e-09
3.34367e-09
3.38253e-09
3.39413e-09
3.34805e-09
3.39207e-09
8.82603e-08
2.25041e-07
3.33244e-09
3.32641e-09
3.33232e-09
2.25009e-07
8.82428e-08
2.25014e-07
3.38403e-09
3.40225e-09
3.37887e-09
3.4021e-09
8.82478e-08
2.25053e-07
3.33939e-09
3.38485e-09
3.34372e-09
3.38385e-09
3.39315e-09
3.34923e-09
3.39395e-09
8.82603e-08
2.25038e-07
3.33297e-09
3.32778e-09
3.33595e-09
2.25005e-07
8.8243e-08
2.25015e-07
3.38353e-09
3.40232e-09
3.37753e-09
3.40113e-09
8.82482e-08
2.25055e-07
3.33958e-09
3.38502e-09
3.34114e-09
3.38283e-09
3.39417e-09
3.34827e-09
3.39128e-09
8.82607e-08
2.2504e-07
3.33351e-09
3.32673e-09
3.33321e-09
2.2501e-07
8.82431e-08
2.25014e-07
3.38245e-09
3.40141e-09
3.37881e-09
3.4019e-09
8.82482e-08
2.25055e-07
3.33825e-09
3.38406e-09
3.34234e-09
3.38359e-09
3.39349e-09
3.34842e-09
3.3912e-09
8.82608e-08
2.2504e-07
3.33276e-09
3.32689e-09
3.33309e-09
2.25011e-07
8.82431e-08
2.25013e-07
3.38288e-09
3.40106e-09
3.37888e-09
3.40197e-09
8.82484e-08
2.25054e-07
3.33858e-09
3.38372e-09
3.34214e-09
3.38389e-09
3.39239e-09
3.34804e-09
3.39224e-09
8.82609e-08
2.2504e-07
3.33158e-09
3.32642e-09
3.33378e-09
2.2501e-07
8.82432e-08
2.25013e-07
3.38309e-09
3.40223e-09
3.37936e-09
3.40185e-09
8.82483e-08
2.25054e-07
3.3384e-09
3.38535e-09
3.34173e-09
3.38587e-09
3.39298e-09
3.348e-09
3.39314e-09
8.82606e-08
2.2504e-07
3.33173e-09
3.32825e-09
3.33192e-09
2.25011e-07
8.82435e-08
2.25015e-07
3.38377e-09
3.40123e-09
3.37862e-09
3.40255e-09
8.82486e-08
2.25053e-07
3.33813e-09
3.38728e-09
3.34049e-09
3.388e-09
3.39309e-09
3.3483e-09
3.39831e-09
8.82612e-08
2.25033e-07
3.32693e-09
3.29022e-09
3.31554e-09
2.25002e-07
8.8243e-08
2.25009e-07
3.38391e-09
3.40328e-09
3.38207e-09
3.40407e-09
8.8248e-08
2.25052e-07
3.33824e-09
3.38723e-09
3.34455e-09
3.38346e-09
3.39745e-09
3.35008e-09
3.39243e-09
8.82633e-08
2.25036e-07
3.3134e-09
3.32308e-09
3.33002e-09
2.25005e-07
8.82425e-08
2.25012e-07
3.38573e-09
3.40374e-09
3.3792e-09
3.40255e-09
8.82474e-08
2.25053e-07
3.34068e-09
3.38389e-09
3.34234e-09
3.38323e-09
3.39363e-09
3.3481e-09
3.39152e-09
8.82594e-08
2.25038e-07
3.32761e-09
3.32341e-09
3.31694e-09
2.25011e-07
8.82414e-08
2.25012e-07
3.38511e-09
3.40326e-09
3.37751e-09
3.40134e-09
8.82468e-08
2.25052e-07
3.34059e-09
3.38497e-09
3.34097e-09
3.38273e-09
3.39099e-09
3.34821e-09
3.39246e-09
8.8259e-08
2.25037e-07
3.33999e-09
3.32657e-09
3.3235e-09
2.25007e-07
8.82419e-08
2.25011e-07
3.38166e-09
3.4007e-09
3.37919e-09
3.40216e-09
8.8247e-08
2.25052e-07
3.33737e-09
3.38308e-09
3.34274e-09
3.38375e-09
3.39109e-09
3.34823e-09
3.39141e-09
8.82593e-08
2.25037e-07
3.34598e-09
3.32752e-09
3.33292e-09
2.25007e-07
8.82422e-08
2.25011e-07
3.38209e-09
3.40174e-09
3.37882e-09
3.40217e-09
8.82469e-08
2.25052e-07
3.33783e-09
3.38445e-09
3.34244e-09
3.38379e-09
3.39303e-09
3.34813e-09
3.39239e-09
8.82592e-08
2.25037e-07
3.33152e-09
3.32737e-09
3.33414e-09
2.25006e-07
8.82413e-08
2.25012e-07
3.38403e-09
3.40255e-09
3.3782e-09
3.40128e-09
8.82467e-08
2.25053e-07
3.33981e-09
3.38529e-09
3.34178e-09
3.3828e-09
3.39428e-09
3.34816e-09
3.39132e-09
8.8259e-08
2.25037e-07
3.33273e-09
3.3276e-09
3.33351e-09
2.25007e-07
8.82419e-08
2.25012e-07
3.38168e-09
3.40096e-09
3.37898e-09
3.40239e-09
8.8247e-08
2.25052e-07
3.33747e-09
3.38363e-09
3.3426e-09
3.38392e-09
3.39319e-09
3.3483e-09
3.39232e-09
8.82593e-08
2.25037e-07
3.332e-09
3.3279e-09
3.33384e-09
2.25005e-07
8.82414e-08
2.25013e-07
3.38365e-09
3.4017e-09
3.37755e-09
3.40091e-09
8.82467e-08
2.25053e-07
3.33944e-09
3.38441e-09
3.34118e-09
3.38241e-09
3.39294e-09
3.34802e-09
3.39236e-09
8.82591e-08
2.25038e-07
3.33104e-09
3.32918e-09
3.33481e-09
2.25006e-07
8.82413e-08
2.25011e-07
3.38265e-09
3.40216e-09
3.37887e-09
3.40086e-09
8.82465e-08
2.25054e-07
3.33847e-09
3.38482e-09
3.34247e-09
3.38258e-09
3.39375e-09
3.34723e-09
3.39097e-09
8.8259e-08
2.25039e-07
3.33263e-09
3.32562e-09
3.33254e-09
2.25008e-07
8.82418e-08
2.25011e-07
3.38289e-09
3.40133e-09
3.3791e-09
3.403e-09
8.82467e-08
2.2505e-07
3.33868e-09
3.38392e-09
3.34268e-09
3.38465e-09
3.39329e-09
3.34994e-09
3.39317e-09
8.82592e-08
2.25035e-07
3.33231e-09
3.32845e-09
3.3348e-09
2.25004e-07
8.82417e-08
2.25012e-07
3.38338e-09
3.40232e-09
3.37812e-09
3.40093e-09
8.8247e-08
2.25052e-07
3.33915e-09
3.38491e-09
3.34168e-09
3.38257e-09
3.39331e-09
3.34802e-09
3.39156e-09
8.82596e-08
2.25037e-07
3.33237e-09
3.32657e-09
3.33326e-09
2.25006e-07
8.82417e-08
2.25014e-07
3.38221e-09
3.40144e-09
3.37803e-09
3.40069e-09
8.82468e-08
2.25054e-07
3.33795e-09
3.38401e-09
3.34165e-09
3.38232e-09
3.39319e-09
3.34845e-09
3.3913e-09
8.82594e-08
2.25038e-07
3.33225e-09
3.32697e-09
3.33298e-09
2.25008e-07
8.82414e-08
2.25011e-07
3.38264e-09
3.40089e-09
3.37846e-09
3.40136e-09
8.82466e-08
2.25052e-07
3.33846e-09
3.38343e-09
3.34259e-09
3.38303e-09
3.39167e-09
3.34875e-09
3.39201e-09
8.82592e-08
2.25037e-07
3.33074e-09
3.32723e-09
3.33366e-09
2.25005e-07
8.82415e-08
2.25011e-07
3.38308e-09
3.40189e-09
3.37815e-09
3.40146e-09
8.82469e-08
2.25053e-07
3.34179e-09
3.38462e-09
3.35618e-09
3.38308e-09
3.39309e-09
3.34819e-09
3.39266e-09
8.82594e-08
2.25037e-07
3.33215e-09
3.32676e-09
3.33433e-09
2.25006e-07
8.82404e-08
2.25011e-07
3.38333e-09
3.40262e-09
3.37843e-09
3.40166e-09
8.82464e-08
2.25053e-07
3.32455e-09
3.3851e-09
3.35672e-09
3.38336e-09
3.39268e-09
3.3484e-09
3.39122e-09
8.8259e-08
2.25037e-07
3.33176e-09
3.32692e-09
3.3329e-09
2.25008e-07
8.82404e-08
2.25011e-07
3.38392e-09
3.40176e-09
3.37913e-09
3.40164e-09
8.82467e-08
2.25053e-07
3.32527e-09
3.3843e-09
3.35739e-09
3.38347e-09
3.39135e-09
3.34808e-09
3.39173e-09
8.82592e-08
2.25037e-07
3.33043e-09
3.32663e-09
3.3334e-09
2.25008e-07
8.82407e-08
2.25009e-07
3.38396e-09
3.40145e-09
3.37976e-09
3.40232e-09
8.82465e-08
2.25051e-07
3.32537e-09
3.38664e-09
3.35798e-09
3.39002e-09
3.39393e-09
3.34922e-09
3.39271e-09
8.82589e-08
2.25071e-07
3.33298e-09
3.32702e-09
3.33435e-09
2.25004e-07
8.82409e-08
2.25012e-07
3.38447e-09
3.40268e-09
3.37783e-09
3.40162e-09
8.82468e-08
2.25053e-07
3.3259e-09
3.37891e-09
3.35604e-09
3.38959e-09
3.39384e-09
3.34817e-09
3.39117e-09
8.82605e-08
2.25072e-07
3.33288e-09
3.32623e-09
3.33289e-09
2.25007e-07
8.82409e-08
2.25015e-07
3.3821e-09
3.40113e-09
3.37725e-09
3.40113e-09
8.82467e-08
2.25055e-07
3.32357e-09
3.37749e-09
3.35546e-09
3.38908e-09
3.39277e-09
3.34782e-09
3.39105e-09
8.82605e-08
2.25074e-07
3.33187e-09
3.32579e-09
3.3329e-09
2.25009e-07
8.82403e-08
2.25012e-07
3.38298e-09
3.40115e-09
3.37877e-09
3.40249e-09
8.82465e-08
2.25052e-07
3.32439e-09
3.37768e-09
3.35702e-09
3.39312e-09
3.39265e-09
3.34952e-09
3.39324e-09
8.82603e-08
2.25073e-07
3.33166e-09
3.32764e-09
3.33471e-09
2.25006e-07
8.82406e-08
2.25011e-07
3.38385e-09
3.40215e-09
3.378e-09
3.4027e-09
8.8247e-08
2.25052e-07
3.32532e-09
3.3788e-09
3.35684e-09
3.38274e-09
3.39406e-09
3.34746e-09
3.39343e-09
8.82618e-08
2.25048e-07
3.33317e-09
3.32467e-09
3.33904e-09
2.25005e-07
8.82401e-08
2.25015e-07
3.3836e-09
3.40387e-09
3.38271e-09
3.40908e-09
8.82465e-08
2.25051e-07
3.32634e-09
3.38394e-09
3.35973e-09
3.40637e-09
3.40303e-09
3.35563e-09
3.38816e-09
8.82593e-08
2.25042e-07
3.34882e-09
3.34039e-09
3.34425e-09
2.24995e-07
8.82343e-08
2.25026e-07
3.39548e-09
3.39334e-09
3.81335e-09
3.79846e-09
8.82418e-08
2.25032e-07
3.32462e-09
3.41493e-09
3.82725e-09
3.83268e-09
3.37474e-09
3.69569e-09
3.73626e-09
8.82535e-08
2.25041e-07
3.32269e-09
3.7229e-09
3.69881e-09
2.24985e-07
8.82328e-08
2.24926e-07
4.44164e-09
4.48009e-09
2.09511e-08
2.10161e-08
8.81965e-08
2.24927e-07
4.43028e-09
4.39901e-09
2.10304e-08
2.10588e-08
4.39211e-09
2.08844e-08
2.09782e-08
8.82305e-08
2.2492e-07
4.36396e-09
2.09219e-08
2.08666e-08
2.24922e-07
8.73513e-08
1.4447e-07
4.25151e-08
4.25561e-08
1.47229e-07
1.46959e-07
8.73624e-08
1.44489e-07
4.24292e-08
4.26056e-08
1.47097e-07
1.4691e-07
4.25861e-08
1.47434e-07
1.47209e-07
8.74204e-08
1.44412e-07
4.24275e-08
1.47196e-07
1.47039e-07
1.44406e-07
4.31432e-07
2.15103e-07
2.14925e-07
4.31371e-07
2.15233e-07
2.14982e-07
3.97407e-07
3.97498e-07
3.97479e-07
2.15122e-07
4.31347e-07
2.1524e-07
6.5285e-08
2.78344e-07
1.80839e-07
1.80862e-07
4.99188e-07
3.6794e-07
4.13812e-07
2.40428e-07
4.99122e-07
3.67923e-07
2.40411e-07
4.13716e-07
4.8946e-07
4.21921e-07
4.21863e-07
2.70089e-06
0.000119914
2.78003e-06
0.00012148
0.000242124
0.000249552
2.70136e-06
0.000119931
2.77945e-06
0.000121499
9.19009e-07
9.18563e-07
9.18812e-07
1.26721e-07
1.26638e-07
1.26681e-07
1.26741e-07
2.03592e-07
4.2174e-06
7.69057e-07
5.44102e-07
1.49691e-07
3.28865e-06
4.84479e-07
0.000242116
0.000249538
2.03407e-07
7.68348e-07
4.21699e-06
5.43985e-07
1.49303e-07
4.84125e-07
3.28793e-06
6.99543e-06
6.99594e-06
2.21728e-07
7.05611e-06
7.05782e-06
2.58391e-06
0.000121095
2.57782e-06
0.000121092
0.000250021
0.000250015
2.58427e-06
0.000121112
2.57818e-06
0.000121108
6.12737e-08
6.12592e-08