/*--------------------------------*- C++ -*----------------------------------*\
| =========                 |                                                 |
| \\      /  F ield         | OpenFOAM: The Open Source CFD Toolbox           |
|  \\    /   O peration     | Version:  v1906                                 |
|   \\  /    A nd           | Web:      www.OpenFOAM.com                      |
|    \\/     M anipulation  |                                                 |
\*---------------------------------------------------------------------------*/
FoamFile
{
    version     2.0;
    format      ascii;
    class       volScalarField;
    location    "200";
    object      k;
}
// * * * * * * * * * * * * * * * * * * * * * * * * * * * * * * * * * * * * * //

dimensions      [0 2 -2 0 0 0 0];


internalField   nonuniform List<scalar> 
43248
(
3.86014e-05
3.29889e-05
3.3015e-05
3.86213e-05
3.2996e-05
3.30366e-05
3.30531e-05
3.30673e-05
3.8636e-05
3.30207e-05
3.30485e-05
3.86694e-05
1.83574e-05
1.8383e-05
1.83728e-05
1.84005e-05
6.89455e-05
6.89417e-05
6.59297e-05
6.59167e-05
6.35427e-05
7.06698e-05
6.35916e-05
6.35352e-05
7.06826e-05
7.06613e-05
6.35923e-05
5.0703e-05
5.86275e-05
2.53141e-05
2.52141e-05
5.08106e-05
5.06947e-05
3.29199e-05
5.86417e-05
2.53407e-05
5.85783e-05
2.52399e-05
5.08139e-05
6.89483e-05
6.89293e-05
3.85618e-05
6.593e-05
6.59329e-05
6.58897e-05
6.59016e-05
6.89437e-05
6.89262e-05
7.06777e-05
6.36268e-05
5.86264e-05
2.53593e-05
5.0836e-05
7.06825e-05
6.36245e-05
2.53634e-05
5.865e-05
5.08319e-05
5.07355e-05
3.29775e-05
5.8625e-05
2.53769e-05
5.85673e-05
2.52971e-05
5.08272e-05
6.3559e-05
7.06707e-05
7.06522e-05
6.36019e-05
5.07324e-05
3.29751e-05
2.53785e-05
5.86521e-05
2.52811e-05
5.85885e-05
5.08401e-05
6.35535e-05
7.06804e-05
7.0658e-05
6.36091e-05
6.89485e-05
6.59353e-05
6.59207e-05
6.89385e-05
5.07149e-05
2.53462e-05
5.86134e-05
2.5267e-05
5.08176e-05
5.07037e-05
3.29563e-05
2.53622e-05
5.86526e-05
2.52659e-05
5.85869e-05
5.0808e-05
6.35395e-05
7.06619e-05
6.35898e-05
6.35367e-05
7.06777e-05
7.0656e-05
6.3587e-05
3.86117e-05
6.59419e-05
6.59268e-05
6.59081e-05
6.58949e-05
6.89484e-05
6.8931e-05
6.89437e-05
6.89267e-05
6.89353e-05
6.89317e-05
6.86625e-05
5.73275e-05
6.59212e-05
7.04049e-05
7.03929e-05
5.72909e-05
6.87045e-05
6.87059e-05
5.72936e-05
6.59082e-05
7.0404e-05
7.03935e-05
5.72735e-05
6.87117e-05
9.15478e-05
7.15414e-05
7.1532e-05
7.15283e-05
7.15193e-05
9.15528e-05
6.95716e-05
6.92362e-05
6.72386e-05
6.35649e-05
6.95637e-05
6.92432e-05
6.72554e-05
6.97005e-05
7.06624e-05
7.67974e-05
7.6787e-05
6.9715e-05
6.95724e-05
6.35728e-05
6.92513e-05
6.72825e-05
6.92445e-05
6.72699e-05
6.958e-05
6.95763e-05
6.92369e-05
6.72488e-05
6.35627e-05
6.95688e-05
6.92439e-05
6.72668e-05
6.97076e-05
7.06749e-05
7.6828e-05
7.68148e-05
6.97218e-05
6.97139e-05
7.67953e-05
7.06695e-05
6.96998e-05
7.68086e-05
6.95769e-05
6.35751e-05
6.9252e-05
6.72945e-05
6.92453e-05
6.72773e-05
6.95844e-05
6.89379e-05
6.89398e-05
9.15298e-05
7.15124e-05
7.1519e-05
9.15222e-05
7.15254e-05
7.1532e-05
6.86904e-05
5.73117e-05
6.59193e-05
7.04065e-05
5.72871e-05
7.03986e-05
6.87152e-05
6.86745e-05
5.74267e-05
6.59282e-05
7.04027e-05
7.03918e-05
5.74139e-05
6.86978e-05
6.8677e-05
7.03854e-05
5.72268e-05
6.59037e-05
5.72599e-05
6.86659e-05
7.03934e-05
6.86611e-05
7.03787e-05
5.73459e-05
6.59101e-05
6.86484e-05
7.03913e-05
5.73885e-05
9.15416e-05
7.15323e-05
7.15386e-05
7.15191e-05
7.15255e-05
9.15489e-05
6.89335e-05
6.89363e-05
6.97068e-05
7.06685e-05
7.68294e-05
7.68164e-05
6.97207e-05
6.95821e-05
6.36148e-05
6.73179e-05
6.92591e-05
6.73019e-05
6.92528e-05
6.95893e-05
6.97067e-05
7.06733e-05
7.68145e-05
7.68036e-05
6.97209e-05
6.95816e-05
6.36082e-05
6.92588e-05
6.73154e-05
6.92523e-05
6.72965e-05
6.95892e-05
6.95751e-05
6.72662e-05
6.92363e-05
6.35766e-05
6.95676e-05
6.72832e-05
6.92428e-05
6.97023e-05
7.06641e-05
7.68206e-05
7.68107e-05
6.97161e-05
6.97091e-05
7.67909e-05
7.06591e-05
6.96953e-05
7.68041e-05
6.95756e-05
6.35846e-05
6.73039e-05
6.92504e-05
6.72898e-05
6.9244e-05
6.95827e-05
6.95787e-05
6.92382e-05
6.72669e-05
6.35809e-05
6.95709e-05
6.9245e-05
6.72835e-05
6.97077e-05
7.06713e-05
7.6819e-05
7.68055e-05
6.97219e-05
6.97141e-05
7.67861e-05
7.06687e-05
6.96999e-05
7.6799e-05
6.95796e-05
6.3591e-05
6.92529e-05
6.731e-05
6.92463e-05
6.72985e-05
6.9587e-05
6.89386e-05
6.87393e-05
5.73544e-05
6.59309e-05
7.04168e-05
5.7341e-05
7.04075e-05
6.87538e-05
6.86811e-05
5.7365e-05
6.59139e-05
7.04008e-05
7.03946e-05
5.7341e-05
6.87055e-05
9.1562e-05
7.15345e-05
7.15405e-05
7.15225e-05
7.15284e-05
9.15654e-05
6.89289e-05
6.95688e-05
6.72453e-05
6.92334e-05
6.35649e-05
6.95613e-05
6.72653e-05
6.92403e-05
6.96976e-05
7.06555e-05
7.6795e-05
7.6786e-05
6.97112e-05
6.97045e-05
7.67783e-05
6.95693e-05
6.35751e-05
6.72881e-05
6.92484e-05
6.72737e-05
6.92417e-05
6.95767e-05
6.95732e-05
6.7239e-05
6.92351e-05
6.35591e-05
6.95655e-05
6.72574e-05
6.92421e-05
6.97024e-05
7.06687e-05
7.6807e-05
7.67976e-05
6.9717e-05
6.97096e-05
7.67804e-05
7.06666e-05
6.9695e-05
7.67911e-05
6.95737e-05
6.3577e-05
6.72781e-05
6.92503e-05
6.72627e-05
6.92436e-05
6.9581e-05
9.15566e-05
7.15257e-05
7.15177e-05
9.15487e-05
7.15386e-05
7.15305e-05
6.86934e-05
5.73762e-05
6.59338e-05
7.04119e-05
5.73513e-05
7.04012e-05
6.87201e-05
6.87388e-05
5.737e-05
6.59189e-05
7.04137e-05
5.73436e-05
7.04047e-05
6.8764e-05
6.86799e-05
7.03885e-05
5.72896e-05
6.59171e-05
6.86641e-05
5.7322e-05
7.04001e-05
6.8726e-05
7.03925e-05
5.72838e-05
6.59042e-05
6.87135e-05
5.73157e-05
7.04e-05
9.15697e-05
7.15447e-05
7.15369e-05
7.15319e-05
7.15241e-05
9.15754e-05
6.89385e-05
6.89409e-05
6.89339e-05
6.89364e-05
5.7439e-05
3.86172e-05
4.77611e-05
4.77803e-05
4.77538e-05
4.77699e-05
5.74719e-05
5.7379e-05
3.86403e-05
4.77685e-05
4.77901e-05
4.77587e-05
4.77942e-05
5.74034e-05
5.74094e-05
3.86526e-05
4.78238e-05
4.77976e-05
4.7814e-05
4.77815e-05
5.74414e-05
5.74505e-05
3.86872e-05
4.78498e-05
4.78229e-05
4.78351e-05
4.78102e-05
5.74782e-05
1.33882e-05
1.33963e-05
1.33645e-05
1.02643e-05
1.02612e-05
1.83211e-05
1.33963e-05
1.3404e-05
1.33661e-05
1.33755e-05
1.02649e-05
1.02615e-05
1.33999e-05
1.33945e-05
1.33663e-05
1.02644e-05
1.02614e-05
1.8338e-05
1.34103e-05
1.34042e-05
1.33806e-05
1.33746e-05
1.02676e-05
1.02642e-05
4.23845e-05
5.32695e-05
4.0149e-05
5.07526e-05
4.23915e-05
5.3316e-05
4.01568e-05
4.51172e-05
4.99325e-05
5.86085e-05
5.65952e-05
4.98904e-05
5.6577e-05
4.51221e-05
4.24998e-05
5.07773e-05
5.33681e-05
4.02172e-05
5.33404e-05
4.02418e-05
4.24934e-05
4.25229e-05
5.3303e-05
4.01549e-05
5.075e-05
4.25298e-05
5.33451e-05
4.01662e-05
4.51819e-05
4.99388e-05
5.86284e-05
5.66367e-05
5.66161e-05
4.9905e-05
4.51843e-05
4.50704e-05
5.65537e-05
4.98498e-05
5.86051e-05
4.50929e-05
5.65865e-05
4.9854e-05
4.26284e-05
5.07744e-05
5.34015e-05
4.02932e-05
5.33777e-05
4.02819e-05
4.2596e-05
5.7355e-05
3.85461e-05
4.76929e-05
4.77266e-05
4.77054e-05
5.73335e-05
4.77324e-05
4.51809e-05
4.99562e-05
5.86152e-05
5.6634e-05
4.993e-05
5.66164e-05
4.51819e-05
4.26275e-05
5.08116e-05
5.34296e-05
4.03342e-05
5.34059e-05
4.03259e-05
4.26259e-05
4.51914e-05
4.99793e-05
5.86326e-05
5.66335e-05
5.66152e-05
4.99757e-05
4.51998e-05
4.26207e-05
5.08051e-05
4.03225e-05
5.34157e-05
4.03112e-05
5.3392e-05
4.26165e-05
4.25662e-05
5.3353e-05
4.0236e-05
5.0781e-05
4.25636e-05
5.33839e-05
4.02446e-05
4.52398e-05
5.00743e-05
5.86108e-05
5.66091e-05
5.00421e-05
5.65928e-05
4.52152e-05
4.5179e-05
5.65419e-05
4.99955e-05
5.85895e-05
4.51721e-05
5.00141e-05
5.65693e-05
4.26445e-05
5.08014e-05
5.34382e-05
4.0288e-05
5.33942e-05
4.03141e-05
4.26439e-05
4.25242e-05
4.022e-05
5.33332e-05
5.07778e-05
4.25376e-05
4.02302e-05
5.33786e-05
4.52048e-05
4.99588e-05
5.86387e-05
5.66534e-05
5.66294e-05
4.99529e-05
4.52094e-05
4.50914e-05
5.65714e-05
4.98806e-05
5.86145e-05
4.51169e-05
5.6601e-05
4.98928e-05
4.2638e-05
5.08041e-05
4.03203e-05
5.3433e-05
4.02938e-05
5.34026e-05
4.26296e-05
4.25126e-05
4.01833e-05
5.33247e-05
5.07655e-05
4.25133e-05
4.01591e-05
5.33555e-05
4.51599e-05
4.99992e-05
5.85952e-05
5.65874e-05
4.99589e-05
5.65692e-05
4.51642e-05
4.50908e-05
5.65447e-05
4.25898e-05
5.07854e-05
4.02929e-05
5.33951e-05
4.02852e-05
5.33689e-05
4.25881e-05
4.25425e-05
4.01786e-05
5.33035e-05
5.07506e-05
4.25542e-05
4.01554e-05
5.33403e-05
4.51672e-05
4.99864e-05
5.86349e-05
5.66056e-05
5.65913e-05
4.99831e-05
4.51772e-05
4.50926e-05
5.65355e-05
4.99183e-05
5.86152e-05
4.51076e-05
5.6565e-05
4.99285e-05
4.26437e-05
5.0777e-05
4.03044e-05
5.33904e-05
4.02954e-05
5.33682e-05
4.26073e-05
5.74239e-05
3.85939e-05
4.7746e-05
4.77338e-05
5.74115e-05
4.77717e-05
4.77193e-05
1.49171e-05
1.61021e-05
1.61048e-05
1.80735e-05
1.79681e-05
1.60865e-05
1.60854e-05
1.79604e-05
1.60874e-05
1.60872e-05
1.60841e-05
1.6086e-05
1.79811e-05
1.60866e-05
1.60875e-05
1.79799e-05
1.80876e-05
1.85375e-05
1.61033e-05
1.61027e-05
1.61976e-05
1.61962e-05
1.80829e-05
1.8534e-05
1.61048e-05
1.61044e-05
1.61975e-05
1.61979e-05
1.6103e-05
1.61946e-05
1.61965e-05
1.80753e-05
1.85541e-05
1.61045e-05
1.6197e-05
1.61979e-05
1.85546e-05
1.50068e-05
1.50055e-05
1.50067e-05
1.50067e-05
5.3508e-05
7.0038e-05
5.29547e-05
7.00653e-05
6.9636e-05
6.9616e-05
5.35166e-05
7.00434e-05
5.29525e-05
7.00719e-05
1.4916e-05
1.49172e-05
1.49169e-05
1.46701e-05
1.46688e-05
1.467e-05
1.467e-05
2.93483e-05
4.5205e-05
1.48815e-05
1.6128e-05
2.87878e-05
4.56215e-05
1.48308e-05
6.96357e-05
6.96158e-05
2.93536e-05
1.48832e-05
4.52035e-05
1.61305e-05
2.87874e-05
1.48324e-05
4.56236e-05
5.90554e-05
5.90648e-05
1.82536e-05
5.92802e-05
5.92911e-05
6.9652e-05
6.9673e-05
6.96545e-05
6.96754e-05
1.78342e-05
5.89328e-05
5.89468e-05
5.86935e-05
5.87072e-05
5.21532e-05
7.00333e-05
7.00072e-05
5.27525e-05
5.2156e-05
7.00405e-05
7.00116e-05
5.27562e-05
2.79333e-05
1.60726e-05
4.49843e-05
1.4936e-05
4.45558e-05
1.49951e-05
2.84964e-05
2.79408e-05
1.60707e-05
4.50004e-05
1.49356e-05
4.45654e-05
1.49947e-05
2.84989e-05
6.96537e-05
6.96746e-05
1.7821e-05
5.89504e-05
5.89337e-05
5.87094e-05
5.86936e-05
6.96508e-05
6.96718e-05
5.21504e-05
7.00413e-05
7.00134e-05
5.27619e-05
2.79372e-05
1.60729e-05
4.499e-05
1.49368e-05
4.45642e-05
1.49959e-05
2.85023e-05
5.215e-05
7.00344e-05
7.00087e-05
5.27602e-05
2.79409e-05
1.60724e-05
1.49366e-05
4.49874e-05
1.49957e-05
4.45623e-05
2.85e-05
2.79417e-05
1.60698e-05
4.49884e-05
1.49354e-05
4.4557e-05
1.49945e-05
2.84969e-05
5.21559e-05
7.0038e-05
7.00122e-05
5.27563e-05
2.79408e-05
1.60712e-05
1.49357e-05
4.49912e-05
1.49947e-05
4.45553e-05
2.84981e-05
5.21555e-05
7.00373e-05
7.00077e-05
5.27531e-05
6.96536e-05
6.96744e-05
1.78223e-05
5.89431e-05
5.89363e-05
5.8704e-05
5.86964e-05
6.96524e-05
6.96734e-05
2.79433e-05
1.60726e-05
1.49372e-05
4.49914e-05
1.49964e-05
4.45551e-05
2.85012e-05
2.79422e-05
1.60727e-05
1.49374e-05
4.4994e-05
1.49966e-05
4.45616e-05
2.84978e-05
5.21495e-05
7.0036e-05
7.00062e-05
5.27655e-05
5.21501e-05
7.00416e-05
7.00122e-05
5.27666e-05
1.78213e-05
5.89364e-05
5.89474e-05
5.8697e-05
5.87063e-05
6.96534e-05
6.96744e-05
6.96545e-05
6.96753e-05
6.96342e-05
6.96141e-05
6.96366e-05
6.96165e-05
5.90516e-05
5.90647e-05
1.82389e-05
5.92753e-05
5.92907e-05
6.95777e-05
6.95967e-05
6.95799e-05
6.95991e-05
1.83711e-05
5.96024e-05
5.96114e-05
5.93894e-05
5.94017e-05
5.35119e-05
7.00425e-05
5.29574e-05
7.00712e-05
2.93468e-05
4.52076e-05
1.48818e-05
1.61307e-05
2.87824e-05
4.56217e-05
1.48311e-05
2.93503e-05
4.5211e-05
1.48815e-05
1.61294e-05
2.87845e-05
4.56322e-05
1.48307e-05
5.36909e-05
7.00942e-05
7.0067e-05
5.41998e-05
5.36936e-05
7.00999e-05
7.00729e-05
5.42035e-05
2.96362e-05
1.61583e-05
4.62284e-05
1.47432e-05
4.58258e-05
1.47856e-05
3.02042e-05
2.96375e-05
1.61579e-05
4.62346e-05
1.47429e-05
4.58345e-05
1.47853e-05
3.0204e-05
5.90669e-05
5.90516e-05
1.8234e-05
5.92941e-05
5.92777e-05
6.9633e-05
6.9613e-05
6.95797e-05
6.95988e-05
1.83667e-05
5.96176e-05
5.96018e-05
5.94045e-05
5.93891e-05
6.95767e-05
6.95956e-05
2.93486e-05
4.52131e-05
1.48828e-05
1.61311e-05
2.87832e-05
4.56235e-05
1.4832e-05
5.3515e-05
7.00404e-05
5.29515e-05
7.00648e-05
2.93516e-05
1.48825e-05
4.52116e-05
1.61312e-05
2.87839e-05
1.48317e-05
4.56202e-05
5.36889e-05
7.01005e-05
7.00736e-05
5.42079e-05
2.96389e-05
1.61601e-05
4.62281e-05
1.47442e-05
4.58348e-05
1.47866e-05
3.02033e-05
5.36881e-05
7.00937e-05
7.00705e-05
5.42066e-05
2.96364e-05
1.61595e-05
1.47439e-05
4.62277e-05
1.47863e-05
4.58342e-05
3.02045e-05
5.3511e-05
7.00425e-05
5.29574e-05
7.007e-05
2.93468e-05
1.48817e-05
4.52052e-05
1.61299e-05
2.87838e-05
1.4831e-05
4.562e-05
5.35083e-05
7.00393e-05
5.29565e-05
7.00677e-05
2.96402e-05
1.61574e-05
4.62283e-05
1.47431e-05
4.58262e-05
1.47854e-05
3.02011e-05
5.36938e-05
7.00989e-05
7.00719e-05
5.42032e-05
2.96381e-05
1.61581e-05
1.47432e-05
4.62251e-05
1.47856e-05
4.58301e-05
3.02012e-05
5.36927e-05
7.0096e-05
7.00693e-05
5.42005e-05
5.90619e-05
5.90538e-05
1.82536e-05
5.92875e-05
5.92806e-05
6.96345e-05
6.96144e-05
6.95794e-05
6.95984e-05
1.83574e-05
5.96114e-05
5.96039e-05
5.93997e-05
5.93908e-05
6.95779e-05
6.9597e-05
2.93491e-05
1.48834e-05
4.52103e-05
1.61314e-05
2.87913e-05
1.48326e-05
4.56266e-05
5.35198e-05
7.00379e-05
5.29514e-05
7.00664e-05
5.3521e-05
7.00436e-05
5.29521e-05
7.00718e-05
2.96389e-05
1.616e-05
1.47445e-05
4.62267e-05
1.47871e-05
4.58254e-05
3.02067e-05
2.96432e-05
1.61595e-05
1.47448e-05
4.62313e-05
1.47872e-05
4.58329e-05
3.02017e-05
5.36884e-05
7.00949e-05
7.0068e-05
5.42105e-05
5.36891e-05
7.01004e-05
7.00735e-05
5.4212e-05
6.96356e-05
6.96155e-05
6.96366e-05
6.96166e-05
1.83569e-05
5.96045e-05
5.96154e-05
5.93925e-05
5.94026e-05
6.95789e-05
6.95981e-05
6.95802e-05
6.95993e-05
6.98489e-05
5.33308e-05
6.9184e-05
5.95595e-05
6.91627e-05
5.93948e-05
6.98605e-05
7.09924e-05
7.40077e-05
7.00496e-05
7.09889e-05
7.40802e-05
6.98479e-05
5.31386e-05
6.91401e-05
5.91228e-05
6.9836e-05
6.9161e-05
5.92927e-05
7.09687e-05
7.41779e-05
7.00518e-05
7.41084e-05
7.0972e-05
6.96346e-05
6.96172e-05
6.98513e-05
5.33288e-05
5.95706e-05
6.91853e-05
5.93978e-05
6.9164e-05
6.9863e-05
7.09956e-05
7.40317e-05
7.00569e-05
7.09926e-05
7.41014e-05
6.98503e-05
5.31474e-05
5.91254e-05
6.91414e-05
6.98384e-05
5.93041e-05
6.91623e-05
7.09723e-05
7.41976e-05
7.00587e-05
7.41345e-05
7.09751e-05
6.96345e-05
6.96169e-05
8.75178e-05
7.24408e-05
7.24348e-05
7.24401e-05
7.24341e-05
8.75908e-05
5.70444e-05
3.89761e-05
6.88082e-05
5.91107e-05
5.6946e-05
3.91001e-05
6.88365e-05
5.71082e-05
3.89926e-05
6.88198e-05
5.91218e-05
5.70117e-05
3.91231e-05
6.88481e-05
8.74849e-05
7.24623e-05
7.24563e-05
8.74097e-05
7.24629e-05
7.24569e-05
5.72292e-05
6.88731e-05
5.92265e-05
3.94873e-05
3.93649e-05
6.88457e-05
5.73243e-05
5.72963e-05
6.88848e-05
5.92363e-05
3.95083e-05
3.93812e-05
6.88574e-05
5.73889e-05
6.96534e-05
6.96715e-05
6.96559e-05
6.9674e-05
8.72582e-05
7.25069e-05
7.25006e-05
8.71781e-05
7.25075e-05
7.25014e-05
5.6658e-05
3.87066e-05
5.88757e-05
6.87957e-05
6.87705e-05
3.85818e-05
5.67491e-05
5.67256e-05
3.87296e-05
5.88889e-05
6.881e-05
6.87819e-05
3.86004e-05
5.68167e-05
5.64511e-05
6.87303e-05
3.81809e-05
5.87525e-05
5.63593e-05
6.87564e-05
3.83081e-05
5.65199e-05
6.87432e-05
3.82009e-05
5.87667e-05
5.64268e-05
6.87699e-05
3.83292e-05
8.72962e-05
7.24851e-05
7.2479e-05
7.24845e-05
7.24782e-05
8.73718e-05
6.98215e-05
6.90976e-05
5.85414e-05
5.23502e-05
6.98092e-05
6.91164e-05
5.8721e-05
7.10091e-05
7.00233e-05
7.39768e-05
7.10127e-05
7.39011e-05
7.10329e-05
7.37883e-05
7.00174e-05
7.10292e-05
7.38678e-05
6.98227e-05
5.25623e-05
6.91385e-05
5.90132e-05
6.98348e-05
6.91176e-05
5.88384e-05
6.98238e-05
6.90985e-05
5.85467e-05
5.23538e-05
6.98116e-05
6.91173e-05
5.87353e-05
7.10122e-05
7.00265e-05
7.40016e-05
7.39289e-05
7.10152e-05
7.10355e-05
7.38171e-05
7.00242e-05
7.10323e-05
7.38924e-05
6.98251e-05
5.25652e-05
6.91393e-05
5.90274e-05
6.91185e-05
5.88442e-05
6.98373e-05
6.96551e-05
6.96731e-05
8.7257e-05
7.25008e-05
7.25059e-05
8.71767e-05
7.25015e-05
7.25066e-05
5.6724e-05
3.87286e-05
5.88908e-05
6.88104e-05
3.85985e-05
6.87815e-05
5.6818e-05
5.66551e-05
3.87085e-05
5.88752e-05
6.87956e-05
6.87707e-05
3.85787e-05
5.67516e-05
5.65191e-05
6.87411e-05
3.81988e-05
5.87703e-05
3.8331e-05
5.64257e-05
6.87709e-05
5.64545e-05
6.87304e-05
3.81792e-05
5.87543e-05
5.63547e-05
6.87565e-05
3.83081e-05
8.72959e-05
7.24791e-05
7.24841e-05
7.24784e-05
7.24835e-05
8.73701e-05
6.96522e-05
6.96702e-05
6.98239e-05
5.85429e-05
6.90993e-05
5.236e-05
6.98116e-05
5.87334e-05
6.91178e-05
7.10129e-05
7.00279e-05
7.40012e-05
7.1016e-05
7.39225e-05
7.10362e-05
7.3809e-05
7.00248e-05
7.1033e-05
7.38926e-05
6.98251e-05
5.25598e-05
5.90252e-05
6.91399e-05
6.98373e-05
5.88404e-05
6.91191e-05
6.9822e-05
6.91009e-05
5.85416e-05
5.23581e-05
6.98099e-05
6.91152e-05
5.87213e-05
7.10086e-05
7.00248e-05
7.39735e-05
7.39024e-05
7.10123e-05
7.10326e-05
7.37867e-05
7.00186e-05
7.10287e-05
7.38678e-05
6.98233e-05
5.25592e-05
6.91363e-05
5.90139e-05
6.91221e-05
5.88386e-05
6.98353e-05
6.98227e-05
5.85445e-05
6.91001e-05
5.23542e-05
6.98105e-05
5.87334e-05
6.9115e-05
7.10111e-05
7.00281e-05
7.39962e-05
7.39258e-05
7.10143e-05
7.10345e-05
7.38132e-05
7.00221e-05
7.10313e-05
7.38877e-05
6.9824e-05
5.2565e-05
5.90252e-05
6.9136e-05
5.88418e-05
6.91215e-05
6.98361e-05
6.98228e-05
6.90982e-05
5.85412e-05
5.23512e-05
6.98105e-05
6.91167e-05
5.87273e-05
7.10117e-05
7.00236e-05
7.39816e-05
7.39025e-05
7.10149e-05
7.10352e-05
7.379e-05
7.00216e-05
7.1032e-05
7.38726e-05
6.98239e-05
5.25644e-05
6.91386e-05
5.90195e-05
6.9118e-05
5.88384e-05
6.98361e-05
6.96549e-05
6.9673e-05
8.72606e-05
7.25011e-05
7.25068e-05
8.71825e-05
7.25017e-05
7.25074e-05
5.67251e-05
3.87271e-05
5.88858e-05
6.8809e-05
3.86002e-05
6.87805e-05
5.68169e-05
5.66604e-05
3.87108e-05
5.88779e-05
6.8798e-05
6.87691e-05
3.85818e-05
5.67513e-05
5.65202e-05
6.87421e-05
3.81995e-05
5.87628e-05
3.83299e-05
5.64259e-05
6.87688e-05
5.64547e-05
6.8729e-05
3.81813e-05
5.87564e-05
5.63605e-05
6.87587e-05
3.8312e-05
8.73002e-05
7.24793e-05
7.2485e-05
7.24786e-05
7.24843e-05
8.73744e-05
6.96538e-05
6.96719e-05
6.9822e-05
5.85385e-05
6.91009e-05
5.23635e-05
6.98099e-05
5.8729e-05
6.91156e-05
7.10098e-05
7.00222e-05
7.39789e-05
7.39001e-05
7.1013e-05
7.10333e-05
7.37874e-05
7.00202e-05
7.10301e-05
7.387e-05
6.98233e-05
5.25587e-05
5.90207e-05
6.91366e-05
5.8836e-05
6.91221e-05
6.98353e-05
6.98239e-05
5.85428e-05
6.90997e-05
5.23646e-05
6.98116e-05
5.8735e-05
6.91179e-05
7.10123e-05
7.0028e-05
7.39953e-05
7.39251e-05
7.10153e-05
7.10356e-05
7.38119e-05
7.00259e-05
7.10325e-05
7.38869e-05
6.98251e-05
5.25595e-05
5.90267e-05
6.91399e-05
5.88404e-05
6.91195e-05
6.98373e-05
8.72611e-05
7.2507e-05
7.2501e-05
8.71785e-05
7.25077e-05
7.25017e-05
5.66549e-05
3.87082e-05
5.8879e-05
6.87984e-05
5.67549e-05
3.85814e-05
6.87694e-05
5.67199e-05
3.87297e-05
5.88883e-05
6.88099e-05
5.68202e-05
3.85984e-05
6.87809e-05
5.64578e-05
6.87294e-05
3.81812e-05
5.87567e-05
5.63555e-05
3.83107e-05
6.8759e-05
5.65236e-05
6.87424e-05
3.81989e-05
5.87672e-05
5.64198e-05
3.83304e-05
6.87697e-05
8.72972e-05
7.24852e-05
7.24792e-05
8.73751e-05
7.24846e-05
7.24786e-05
6.96548e-05
6.96728e-05
6.96558e-05
6.96739e-05
6.96329e-05
6.96152e-05
6.96353e-05
6.96177e-05
8.75175e-05
7.24406e-05
7.24345e-05
7.244e-05
7.24336e-05
8.75867e-05
5.70373e-05
3.89761e-05
6.88092e-05
5.91074e-05
5.69489e-05
6.88335e-05
3.90993e-05
5.71057e-05
3.89932e-05
6.88199e-05
5.91213e-05
5.7017e-05
6.88484e-05
3.91225e-05
8.74808e-05
7.24622e-05
7.24558e-05
8.74096e-05
7.24627e-05
7.24566e-05
5.72326e-05
6.88701e-05
5.92227e-05
3.94878e-05
6.88468e-05
5.73191e-05
3.93642e-05
5.72999e-05
6.88851e-05
5.92357e-05
3.95083e-05
6.88576e-05
5.73864e-05
3.93817e-05
6.95784e-05
6.95957e-05
6.9581e-05
6.95981e-05
8.7689e-05
7.2418e-05
7.24116e-05
8.76218e-05
7.24187e-05
7.24126e-05
5.77639e-05
4.02534e-05
5.95503e-05
6.89409e-05
6.89181e-05
4.01179e-05
5.78805e-05
5.78418e-05
4.02499e-05
5.95626e-05
6.89542e-05
6.8929e-05
4.01458e-05
5.79181e-05
5.75989e-05
6.88829e-05
3.97443e-05
5.94415e-05
5.75026e-05
6.89059e-05
3.98703e-05
5.76641e-05
6.88939e-05
3.97646e-05
5.94552e-05
5.75739e-05
6.89204e-05
3.98866e-05
8.77212e-05
7.2397e-05
7.23906e-05
7.23963e-05
7.23898e-05
8.77848e-05
6.98514e-05
5.33337e-05
6.9185e-05
5.95733e-05
6.91636e-05
5.94011e-05
6.9863e-05
7.09949e-05
7.40307e-05
7.00561e-05
7.09919e-05
7.41067e-05
6.98503e-05
5.31423e-05
6.91408e-05
5.91287e-05
6.91619e-05
6.98384e-05
5.93066e-05
7.09716e-05
7.42046e-05
7.00579e-05
7.41328e-05
7.09745e-05
6.98727e-05
6.9186e-05
5.96549e-05
5.3862e-05
6.98614e-05
6.92075e-05
5.98146e-05
7.09278e-05
7.00814e-05
7.43587e-05
7.42943e-05
7.0931e-05
7.09515e-05
7.42038e-05
7.008e-05
7.09483e-05
7.42708e-05
6.98733e-05
5.40356e-05
6.92308e-05
6.00585e-05
6.92095e-05
5.9904e-05
6.98842e-05
6.98751e-05
6.91869e-05
5.96615e-05
5.38656e-05
6.98638e-05
6.92084e-05
5.98279e-05
7.09309e-05
7.00873e-05
7.43847e-05
7.43197e-05
7.09336e-05
7.09541e-05
7.42288e-05
7.00859e-05
7.09513e-05
7.42972e-05
6.98758e-05
5.40382e-05
6.92317e-05
6.00712e-05
6.92104e-05
5.9911e-05
6.98866e-05
8.7517e-05
7.24348e-05
7.24398e-05
7.24341e-05
7.24391e-05
8.7586e-05
5.71068e-05
3.89938e-05
6.88204e-05
5.91246e-05
6.88485e-05
5.70136e-05
3.91208e-05
5.7041e-05
3.8972e-05
6.88094e-05
5.91077e-05
3.91013e-05
5.69466e-05
6.88335e-05
8.74799e-05
7.24561e-05
7.24612e-05
7.24569e-05
8.74083e-05
7.24619e-05
5.72971e-05
6.88852e-05
5.92384e-05
3.95078e-05
6.8858e-05
3.9383e-05
5.73878e-05
5.72299e-05
6.88702e-05
5.92232e-05
3.94877e-05
3.93601e-05
6.88469e-05
5.73226e-05
6.96317e-05
6.96141e-05
6.95807e-05
6.95977e-05
8.76876e-05
7.24122e-05
7.24172e-05
8.76221e-05
7.2413e-05
7.2418e-05
5.78409e-05
4.02627e-05
5.95657e-05
6.89553e-05
4.01423e-05
6.89293e-05
5.79278e-05
5.77767e-05
4.02427e-05
5.95497e-05
6.89401e-05
6.89183e-05
4.01199e-05
5.78575e-05
5.76612e-05
6.88942e-05
3.97656e-05
5.94582e-05
3.98881e-05
5.75726e-05
6.89208e-05
5.75909e-05
6.88831e-05
3.9743e-05
5.94423e-05
5.75058e-05
6.89057e-05
3.9868e-05
8.77227e-05
7.23914e-05
7.23964e-05
7.23905e-05
7.23955e-05
8.7786e-05
6.95775e-05
6.95946e-05
6.98493e-05
5.33279e-05
6.91816e-05
5.95607e-05
6.91668e-05
5.93949e-05
6.98608e-05
7.09919e-05
7.40093e-05
7.00498e-05
7.09884e-05
7.40764e-05
6.98482e-05
5.31456e-05
6.91441e-05
5.91227e-05
6.91587e-05
6.98365e-05
5.92933e-05
7.09681e-05
7.41738e-05
7.00557e-05
7.41115e-05
7.09715e-05
6.98751e-05
5.96584e-05
6.91873e-05
5.38703e-05
6.98638e-05
5.98253e-05
6.92088e-05
7.09314e-05
7.0088e-05
7.43772e-05
7.43213e-05
7.0934e-05
7.09545e-05
7.42304e-05
7.00864e-05
7.09519e-05
7.42898e-05
6.98757e-05
5.40335e-05
6.00683e-05
6.92321e-05
5.99077e-05
6.92107e-05
6.98865e-05
6.98728e-05
6.91899e-05
5.96551e-05
5.38685e-05
6.98617e-05
6.92051e-05
5.98159e-05
7.09273e-05
7.0085e-05
7.4354e-05
7.42986e-05
7.09305e-05
7.0951e-05
7.42072e-05
7.00795e-05
7.09477e-05
7.42664e-05
6.98736e-05
5.40327e-05
6.92284e-05
6.006e-05
6.92134e-05
5.99041e-05
6.98843e-05
6.98502e-05
5.33339e-05
5.95707e-05
6.91811e-05
5.93987e-05
6.91664e-05
6.98618e-05
7.09939e-05
7.40322e-05
7.00544e-05
7.4099e-05
7.09909e-05
6.98491e-05
5.31418e-05
5.91261e-05
6.91435e-05
5.93041e-05
6.98373e-05
6.91581e-05
7.09706e-05
7.41965e-05
7.00568e-05
7.41336e-05
7.09736e-05
6.985e-05
5.33327e-05
6.91842e-05
5.95654e-05
6.91629e-05
5.9395e-05
6.98616e-05
7.09944e-05
7.40093e-05
7.00528e-05
7.09914e-05
7.40847e-05
6.98491e-05
5.3139e-05
6.91402e-05
5.91228e-05
6.98371e-05
6.91612e-05
5.92987e-05
7.0971e-05
7.41824e-05
7.00545e-05
7.41108e-05
7.09739e-05
6.98739e-05
5.96595e-05
6.91895e-05
5.38646e-05
6.98627e-05
5.98253e-05
6.92046e-05
7.09299e-05
7.00862e-05
7.43764e-05
7.43205e-05
7.09326e-05
7.09531e-05
7.42296e-05
7.00848e-05
7.09503e-05
7.42889e-05
6.98747e-05
5.40386e-05
6.00687e-05
6.92279e-05
5.99089e-05
6.9213e-05
6.98854e-05
6.98737e-05
6.91862e-05
5.96555e-05
5.38621e-05
6.98624e-05
6.92076e-05
5.98205e-05
7.093e-05
7.00837e-05
7.43624e-05
7.42976e-05
7.09327e-05
7.09533e-05
7.42065e-05
7.00822e-05
7.09505e-05
7.42749e-05
6.98743e-05
5.40374e-05
6.92308e-05
6.0064e-05
6.92096e-05
5.99048e-05
6.98851e-05
8.75217e-05
7.24349e-05
7.24406e-05
7.24342e-05
7.24399e-05
8.759e-05
5.71051e-05
3.89946e-05
6.88191e-05
5.91179e-05
6.88474e-05
5.70169e-05
3.91199e-05
5.70418e-05
3.89765e-05
6.88079e-05
5.9111e-05
3.91031e-05
5.69515e-05
6.88361e-05
8.74842e-05
7.24563e-05
7.2462e-05
7.2457e-05
8.7413e-05
7.24627e-05
5.73005e-05
6.88842e-05
5.92334e-05
3.95065e-05
6.88568e-05
3.93835e-05
5.73863e-05
5.72326e-05
6.88729e-05
5.92248e-05
3.94901e-05
3.93655e-05
6.88452e-05
5.7325e-05
6.96333e-05
6.96156e-05
6.95803e-05
6.95974e-05
8.7692e-05
7.24122e-05
7.24179e-05
8.7626e-05
7.2413e-05
7.24187e-05
5.78445e-05
4.02614e-05
5.95608e-05
6.89542e-05
4.01433e-05
6.89282e-05
5.79291e-05
5.7775e-05
4.02459e-05
5.95516e-05
6.89414e-05
6.89175e-05
4.01256e-05
5.78645e-05
5.76602e-05
6.88931e-05
3.97661e-05
5.94523e-05
3.98873e-05
5.75763e-05
6.89197e-05
5.75987e-05
6.88815e-05
3.97483e-05
5.9445e-05
5.75068e-05
6.89082e-05
3.98696e-05
8.77264e-05
7.23914e-05
7.2397e-05
7.23905e-05
7.23962e-05
8.77908e-05
6.95788e-05
6.9596e-05
6.98493e-05
5.33277e-05
5.95659e-05
6.91818e-05
5.93933e-05
6.91669e-05
6.98608e-05
7.09925e-05
7.40069e-05
7.00515e-05
7.40819e-05
7.09895e-05
6.98483e-05
5.31507e-05
5.91208e-05
6.91441e-05
5.92994e-05
6.98365e-05
6.91588e-05
7.09691e-05
7.41793e-05
7.00531e-05
7.41077e-05
7.0972e-05
6.98513e-05
5.33286e-05
5.95719e-05
6.91856e-05
5.93979e-05
6.91642e-05
6.98629e-05
7.0995e-05
7.40316e-05
7.0057e-05
7.0992e-05
7.40989e-05
6.98503e-05
5.3152e-05
5.91253e-05
6.91414e-05
6.98384e-05
5.93055e-05
6.91626e-05
7.09716e-05
7.41982e-05
7.00588e-05
7.41285e-05
7.09745e-05
6.98728e-05
5.9654e-05
6.919e-05
5.38728e-05
6.98617e-05
5.98204e-05
6.92052e-05
7.09281e-05
7.00822e-05
7.43594e-05
7.42944e-05
7.09309e-05
7.09514e-05
7.42038e-05
7.00809e-05
7.09486e-05
7.42719e-05
6.98736e-05
5.40331e-05
6.00635e-05
6.92285e-05
5.99035e-05
6.92135e-05
6.98843e-05
6.9875e-05
5.96588e-05
6.91875e-05
5.38742e-05
6.98637e-05
5.98262e-05
6.92091e-05
7.09307e-05
7.00879e-05
7.43795e-05
7.43145e-05
7.09334e-05
7.0954e-05
7.42233e-05
7.00863e-05
7.09512e-05
7.42918e-05
6.98756e-05
5.40338e-05
6.00692e-05
6.92323e-05
5.99084e-05
6.92109e-05
6.98864e-05
6.96342e-05
6.96166e-05
6.96354e-05
6.96178e-05
8.76929e-05
7.24182e-05
7.24122e-05
8.76224e-05
7.24189e-05
7.24129e-05
5.77741e-05
4.02434e-05
5.95535e-05
6.8943e-05
4.01237e-05
6.8917e-05
5.78638e-05
5.78405e-05
4.0265e-05
5.95634e-05
6.89548e-05
4.01408e-05
6.89288e-05
5.79296e-05
5.7598e-05
6.8882e-05
3.97475e-05
5.94452e-05
5.75055e-05
3.98678e-05
6.89086e-05
5.76632e-05
6.88938e-05
3.97646e-05
5.9456e-05
5.75723e-05
3.98894e-05
6.89204e-05
8.77225e-05
7.23972e-05
7.23912e-05
7.23964e-05
7.23904e-05
8.77917e-05
6.95799e-05
6.9597e-05
6.95811e-05
6.95982e-05
1.50395e-05
1.504e-05
1.48326e-05
1.49322e-05
1.49327e-05
1.52913e-05
1.54088e-05
3.78637e-05
2.48692e-05
2.48727e-05
1.81132e-05
3.7729e-05
2.49703e-05
2.49875e-05
3.73226e-05
1.79578e-05
2.46483e-05
2.46723e-05
2.45745e-05
2.45716e-05
3.74422e-05
3.73109e-05
1.79464e-05
2.46483e-05
2.46588e-05
2.45731e-05
2.45607e-05
3.74504e-05
3.73194e-05
1.79449e-05
2.4653e-05
2.46592e-05
2.45798e-05
2.45666e-05
3.74458e-05
3.73158e-05
1.79433e-05
2.46594e-05
2.46738e-05
3.74485e-05
2.45591e-05
2.45652e-05
3.78561e-05
2.48826e-05
2.48749e-05
1.80993e-05
3.77353e-05
2.49603e-05
2.49836e-05
3.89401e-05
1.85241e-05
2.59246e-05
2.59326e-05
2.58348e-05
2.58338e-05
3.90558e-05
3.78572e-05
2.48846e-05
2.48744e-05
1.80939e-05
2.49568e-05
3.77275e-05
2.49642e-05
3.89407e-05
1.85196e-05
2.59242e-05
2.59185e-05
2.58386e-05
2.58353e-05
3.90537e-05
3.78562e-05
2.48825e-05
2.48743e-05
1.81145e-05
2.4973e-05
3.77339e-05
2.49784e-05
3.89399e-05
1.85086e-05
2.59416e-05
2.59329e-05
2.58239e-05
2.58265e-05
3.90649e-05
3.89326e-05
1.85083e-05
2.59138e-05
2.59451e-05
2.58263e-05
2.58264e-05
3.90675e-05
1.50972e-05
1.51501e-05
1.51505e-05
1.5262e-05
1.52624e-05
1.56498e-05
1.55288e-05
1.50961e-05
1.51497e-05
1.51498e-05
1.52616e-05
1.52617e-05
1.56496e-05
1.55285e-05
1.50973e-05
1.51502e-05
1.51506e-05
1.52621e-05
1.52626e-05
1.56498e-05
1.55287e-05
1.5097e-05
1.51498e-05
1.51507e-05
1.52617e-05
1.52626e-05
1.56497e-05
1.55286e-05
1.50392e-05
1.50393e-05
1.48313e-05
1.49319e-05
1.4932e-05
1.52911e-05
1.54086e-05
1.50397e-05
1.50401e-05
1.48325e-05
1.49324e-05
1.49328e-05
1.52912e-05
1.54088e-05
1.50393e-05
1.50401e-05
1.48325e-05
1.4932e-05
1.49328e-05
1.52912e-05
1.54087e-05
1.47487e-05
1.47235e-05
1.47239e-05
1.48261e-05
1.48266e-05
1.51747e-05
1.50605e-05
1.47476e-05
1.47231e-05
1.47232e-05
1.48258e-05
1.4826e-05
1.51745e-05
1.50603e-05
1.47488e-05
1.47236e-05
1.4724e-05
1.48263e-05
1.48268e-05
1.51747e-05
1.50605e-05
1.47485e-05
1.47233e-05
1.4724e-05
1.4826e-05
1.48268e-05
1.51746e-05
1.50604e-05
1.96055e-05
2.92139e-05
3.35547e-05
1.80006e-05
3.34227e-05
1.79675e-05
1.96694e-05
2.23962e-05
2.75702e-05
3.95883e-05
4.53081e-05
2.23113e-05
2.76919e-05
3.97124e-05
1.94741e-05
2.89237e-05
3.29989e-05
1.78138e-05
1.9413e-05
3.31333e-05
1.78453e-05
2.25695e-05
4.0087e-05
4.55192e-05
2.80386e-05
2.79137e-05
3.99638e-05
2.26567e-05
1.96054e-05
2.92113e-05
1.80119e-05
3.35556e-05
1.79609e-05
3.34174e-05
1.96676e-05
2.23928e-05
2.75769e-05
3.95828e-05
4.53104e-05
2.23141e-05
2.76883e-05
3.97078e-05
1.94735e-05
2.89285e-05
1.78072e-05
3.29975e-05
1.94125e-05
1.78564e-05
3.31349e-05
2.25721e-05
4.00837e-05
4.5518e-05
2.80361e-05
2.79219e-05
3.99581e-05
2.26536e-05
3.81347e-05
1.82119e-05
2.52901e-05
2.52996e-05
2.51846e-05
2.51872e-05
3.82702e-05
3.70266e-05
1.7844e-05
2.42695e-05
2.42753e-05
3.69039e-05
2.43417e-05
2.43552e-05
1.91046e-05
3.21396e-05
1.75229e-05
2.80741e-05
1.90476e-05
3.2283e-05
1.75677e-05
2.20627e-05
2.73338e-05
4.4885e-05
3.93188e-05
2.72358e-05
3.9198e-05
2.21403e-05
2.18953e-05
3.88095e-05
2.68949e-05
4.46614e-05
2.70029e-05
2.18174e-05
3.89323e-05
1.92256e-05
2.83568e-05
3.27081e-05
1.77083e-05
3.25662e-05
1.76592e-05
1.92843e-05
1.91069e-05
3.21509e-05
1.75252e-05
2.80725e-05
1.90505e-05
3.22834e-05
1.75598e-05
2.20637e-05