/*--------------------------------*- C++ -*----------------------------------*\
| =========                 |                                                 |
| \\      /  F ield         | OpenFOAM: The Open Source CFD Toolbox           |
|  \\    /   O peration     | Version:  v1906                                 |
|   \\  /    A nd           | Web:      www.OpenFOAM.com                      |
|    \\/     M anipulation  |                                                 |
\*---------------------------------------------------------------------------*/
FoamFile
{
    version     2.0;
    format      ascii;
    class       volScalarField;
    location    "350";
    object      k;
}
// * * * * * * * * * * * * * * * * * * * * * * * * * * * * * * * * * * * * * //

dimensions      [0 2 -2 0 0 0 0];


internalField   nonuniform List<scalar> 
43024
(
3.94897e-05
5.1985e-05
5.19862e-05
5.40735e-05
3.98919e-05
5.22409e-05
5.22412e-05
5.42793e-05
4.02629e-05
5.24724e-05
5.24722e-05
5.44641e-05
4.0601e-05
5.26778e-05
5.26773e-05
5.46271e-05
4.0905e-05
5.28574e-05
5.28563e-05
5.47695e-05
4.11748e-05
5.30115e-05
5.30096e-05
5.48905e-05
4.14109e-05
5.31404e-05
5.3138e-05
5.49902e-05
4.16147e-05
5.32461e-05
5.32431e-05
5.50732e-05
4.17883e-05
5.33311e-05
5.33277e-05
5.5139e-05
4.19348e-05
5.33976e-05
5.33943e-05
5.51905e-05
4.20572e-05
5.34486e-05
5.34463e-05
5.52305e-05
4.21585e-05
5.34883e-05
5.34869e-05
5.52641e-05
4.22414e-05
5.35209e-05
5.35193e-05
5.5292e-05
4.23087e-05
5.35489e-05
5.35465e-05
5.53197e-05
4.23627e-05
5.3573e-05
5.35709e-05
5.53386e-05
4.24049e-05
5.35931e-05
5.35929e-05
5.53549e-05
4.24365e-05
5.36086e-05
5.36105e-05
5.5375e-05
4.24583e-05
5.36192e-05
5.36226e-05
5.53803e-05
4.24712e-05
5.36269e-05
5.36316e-05
5.53877e-05
4.24668e-05
5.36139e-05
5.36192e-05
5.53762e-05
4.20618e-05
5.24662e-05
5.24785e-05
5.50937e-05
5.40182e-05
5.19154e-05
5.19172e-05
5.40224e-05
5.19166e-05
5.19151e-05
5.19162e-05
5.19178e-05
5.40209e-05
5.19177e-05
5.19189e-05
5.4019e-05
5.40738e-05
5.42285e-05
5.19843e-05
5.1986e-05
5.21757e-05
5.21762e-05
5.40778e-05
5.42277e-05
5.19858e-05
5.19841e-05
5.21772e-05
5.21746e-05
5.1987e-05
5.21777e-05
5.21782e-05
5.40755e-05
5.42278e-05
5.1988e-05
5.21782e-05
5.21786e-05
5.42277e-05
5.4281e-05
5.44198e-05
5.22402e-05
5.22403e-05
5.24135e-05
5.24123e-05
5.42795e-05
5.44164e-05
5.22418e-05
5.22389e-05
5.24148e-05
5.2411e-05
5.22428e-05
5.24148e-05
5.2415e-05
5.42784e-05
5.44161e-05
5.22429e-05
5.24147e-05
5.24145e-05
5.44165e-05
5.44674e-05
5.45901e-05
5.24723e-05
5.24707e-05
5.26258e-05
5.26229e-05
5.44643e-05
5.45844e-05
5.24737e-05
5.24696e-05
5.26267e-05
5.26218e-05
5.24737e-05
5.26259e-05
5.26259e-05
5.44642e-05
5.45842e-05
5.24729e-05
5.26255e-05
5.2624e-05
5.45847e-05
5.46324e-05
5.4738e-05
5.26786e-05
5.26755e-05
5.28119e-05
5.28079e-05
5.46288e-05
5.47327e-05
5.26796e-05
5.26744e-05
5.28123e-05
5.28063e-05
5.26787e-05
5.2811e-05
5.28106e-05
5.46286e-05
5.47324e-05
5.26765e-05
5.281e-05
5.28073e-05
5.47307e-05
5.47771e-05
5.48645e-05
5.28588e-05
5.28547e-05
5.29721e-05
5.29673e-05
5.47736e-05
5.48596e-05
5.28593e-05
5.2853e-05
5.29721e-05
5.2965e-05
5.28575e-05
5.29704e-05
5.2969e-05
5.47713e-05
5.48591e-05
5.2854e-05
5.29687e-05
5.29651e-05
5.48562e-05
5.49011e-05
5.49699e-05
5.30134e-05
5.30085e-05
5.31071e-05
5.31017e-05
5.48965e-05
5.49644e-05
5.30134e-05
5.30062e-05
5.31067e-05
5.30987e-05
5.301e-05
5.31048e-05
5.31015e-05
5.48922e-05
5.4963e-05
5.3006e-05
5.31024e-05
5.30975e-05
5.49594e-05
5.50027e-05
5.50567e-05
5.31428e-05
5.31374e-05
5.32183e-05
5.32126e-05
5.49968e-05
5.50513e-05
5.31424e-05
5.31343e-05
5.32177e-05
5.32087e-05
5.31368e-05
5.32155e-05
5.321e-05
5.49928e-05
5.50479e-05
5.31329e-05
5.32126e-05
5.32064e-05
5.50438e-05
5.50867e-05
5.5127e-05
5.32489e-05
5.32432e-05
5.33086e-05
5.33027e-05
5.50798e-05
5.51232e-05
5.32483e-05
5.32391e-05
5.33077e-05
5.32979e-05
5.32399e-05
5.33052e-05
5.32971e-05
5.50766e-05
5.51197e-05
5.32365e-05
5.33019e-05
5.32943e-05
5.5112e-05
5.51542e-05
5.51827e-05
5.33343e-05
5.33285e-05
5.33808e-05
5.3375e-05
5.51464e-05
5.51794e-05
5.33335e-05
5.33234e-05
5.33799e-05
5.33692e-05
5.33219e-05
5.33768e-05
5.33662e-05
5.51429e-05
5.5176e-05
5.33194e-05
5.33734e-05
5.33643e-05
5.51659e-05
5.52076e-05
5.52266e-05
5.34016e-05
5.33958e-05
5.3438e-05
5.34322e-05
5.51995e-05
5.52227e-05
5.34006e-05
5.33897e-05
5.34368e-05
5.34255e-05
5.3386e-05
5.34327e-05
5.34205e-05
5.5196e-05
5.52199e-05
5.33843e-05
5.343e-05
5.34194e-05
5.52097e-05
5.52495e-05
5.52606e-05
5.34546e-05
5.34485e-05
5.34829e-05
5.34768e-05
5.52407e-05
5.52566e-05
5.3453e-05
5.34415e-05
5.34809e-05
5.34694e-05
5.3436e-05
5.34758e-05
5.34632e-05
5.52379e-05
5.52544e-05
5.34351e-05
5.34741e-05
5.34629e-05
5.52443e-05
5.52826e-05
5.52872e-05
5.34964e-05
5.34894e-05
5.35184e-05
5.35113e-05
5.5273e-05
5.5285e-05
5.34939e-05
5.34818e-05
5.35152e-05
5.35035e-05
5.34759e-05
5.35103e-05
5.34982e-05
5.52708e-05
5.52824e-05
5.34753e-05
5.3509e-05
5.34975e-05
5.52734e-05
5.53109e-05
5.53097e-05
5.35298e-05
5.35221e-05
5.35468e-05
5.3539e-05
5.53e-05
5.53081e-05
5.35263e-05
5.35139e-05
5.3543e-05
5.35312e-05
5.35095e-05
5.35396e-05
5.35286e-05
5.52974e-05
5.53015e-05
5.35083e-05
5.35374e-05
5.35265e-05
5.52954e-05
5.53333e-05
5.53353e-05
5.35567e-05
5.35486e-05
5.357e-05
5.35622e-05
5.53231e-05
5.53252e-05
5.35527e-05
5.35411e-05
5.35668e-05
5.3556e-05
5.35387e-05
5.35646e-05
5.35551e-05
5.53222e-05
5.53267e-05
5.35369e-05
5.35622e-05
5.35529e-05
5.53177e-05
5.53485e-05
5.53516e-05
5.3578e-05
5.35704e-05
5.35885e-05
5.35813e-05
5.53467e-05
5.53471e-05
5.35752e-05
5.35653e-05
5.3587e-05
5.35783e-05
5.3564e-05
5.35854e-05
5.35772e-05
5.53412e-05
5.534e-05
5.35625e-05
5.35845e-05
5.35762e-05
5.53384e-05
5.53666e-05
5.53623e-05
5.35955e-05
5.35887e-05
5.36034e-05
5.35974e-05
5.53612e-05
5.53623e-05
5.35945e-05
5.35867e-05
5.36031e-05
5.35966e-05
5.35853e-05
5.3602e-05
5.35951e-05
5.53655e-05
5.53587e-05
5.35848e-05
5.36031e-05
5.35952e-05
5.53512e-05
5.53797e-05
5.5373e-05
5.36097e-05
5.36042e-05
5.36138e-05
5.36088e-05
5.53762e-05
5.53636e-05
5.36097e-05
5.3604e-05
5.36141e-05
5.36094e-05
5.36025e-05
5.36124e-05
5.36081e-05
5.53757e-05
5.53651e-05
5.36028e-05
5.36154e-05
5.36088e-05
5.53668e-05
5.53891e-05
5.53773e-05
5.36207e-05
5.36159e-05
5.36211e-05
5.36166e-05
5.53886e-05
5.53664e-05
5.3621e-05
5.36167e-05
5.36217e-05
5.36178e-05
5.36154e-05
5.36192e-05
5.36174e-05
5.53871e-05
5.53685e-05
5.36162e-05
5.36237e-05
5.36182e-05
5.53662e-05
5.53898e-05
5.53734e-05
5.36288e-05
5.36245e-05
5.3622e-05
5.3618e-05
5.53871e-05
5.53687e-05
5.36294e-05
5.36257e-05
5.36226e-05
5.36193e-05
5.36256e-05
5.362e-05
5.362e-05
5.53896e-05
5.53667e-05
5.36264e-05
5.36252e-05
5.36206e-05
5.53712e-05
5.53784e-05
5.52275e-05
5.36159e-05
5.3612e-05
5.34981e-05
5.34945e-05
5.5374e-05
5.52204e-05
5.36167e-05
5.36133e-05
5.35004e-05
5.34947e-05
5.36145e-05
5.34974e-05
5.34967e-05
5.53759e-05
5.52122e-05
5.36151e-05
5.35018e-05
5.34988e-05
5.52133e-05
5.50741e-05
5.24662e-05
5.2462e-05
5.50727e-05
5.24687e-05
5.24712e-05
4.20567e-05
4.20617e-05
4.20618e-05
5.24737e-05
5.50925e-05
5.24761e-05
6.88513e-05
7.35271e-05
7.12398e-05
6.88554e-05
7.35337e-05
3.93802e-05
3.93796e-05
3.93827e-05
3.93827e-05
6.10142e-05
5.17763e-05
6.50894e-05
4.70526e-05
7.12386e-05
6.10166e-05
5.17786e-05
4.70576e-05
6.50882e-05
5.39124e-05
7.01456e-05
7.01575e-05
6.89351e-05
7.35605e-05
6.88996e-05
7.35851e-05
7.12652e-05
7.12874e-05
6.89402e-05
7.35677e-05
6.89022e-05
7.359e-05
3.94889e-05
3.94919e-05
3.94921e-05
3.97893e-05
3.97878e-05
3.97904e-05
3.97912e-05
6.1149e-05
6.51416e-05
4.73056e-05
5.20502e-05
6.10922e-05
6.51775e-05
4.73841e-05
7.12636e-05
7.12859e-05
6.11485e-05
4.73098e-05
6.51394e-05
5.20511e-05
6.10938e-05
4.73877e-05
6.51762e-05
7.01897e-05
7.02011e-05
5.41257e-05
7.02117e-05
7.0223e-05
6.90127e-05
7.36149e-05
6.89815e-05
7.36377e-05
7.13106e-05
7.13315e-05
6.9015e-05
7.36211e-05
6.89836e-05
7.36423e-05
3.98909e-05
3.98934e-05
3.98942e-05
4.01675e-05
4.01655e-05
4.01676e-05
4.01689e-05
6.12731e-05
6.52279e-05
4.76162e-05
5.22996e-05
6.12233e-05
6.52599e-05
4.76871e-05
7.13086e-05
7.13294e-05
6.12731e-05
4.76187e-05
6.52264e-05
5.22996e-05
6.12217e-05
4.76891e-05
6.52598e-05
7.02536e-05
7.02639e-05
5.43246e-05
7.02733e-05
7.0283e-05
6.90793e-05
7.3665e-05
6.90509e-05
7.36852e-05
7.13529e-05
7.13726e-05
6.9081e-05
7.36697e-05
6.90549e-05
7.36884e-05
4.02611e-05
4.02631e-05
4.02643e-05
4.0513e-05
4.05103e-05
4.05118e-05
4.05132e-05
6.13785e-05
6.53034e-05
4.78986e-05
5.25238e-05
6.13366e-05
6.53307e-05
4.79613e-05
7.13502e-05
7.13697e-05
6.13756e-05
4.78992e-05
6.53036e-05
5.25235e-05
6.13327e-05
4.79613e-05
6.53323e-05
7.0311e-05
7.03204e-05
5.45033e-05
7.03275e-05
7.03365e-05
6.91349e-05
7.37109e-05
6.91119e-05
7.37285e-05
7.13923e-05
7.14107e-05
6.9134e-05
7.37134e-05
6.9111e-05
7.37307e-05
4.0598e-05
4.05995e-05
4.06007e-05
4.08248e-05
4.0821e-05
4.08219e-05
4.08231e-05
6.14689e-05
6.53677e-05
4.81509e-05
5.27218e-05
6.14328e-05
6.53911e-05
4.8205e-05
7.13883e-05
7.14067e-05
6.14642e-05
4.81493e-05
6.53685e-05
5.27211e-05
6.14273e-05
4.82029e-05
6.53923e-05
7.0361e-05
7.03682e-05
5.46604e-05
7.03749e-05
7.03827e-05
6.91788e-05
7.37497e-05
6.91615e-05
7.37656e-05
7.14284e-05
7.14457e-05
6.91773e-05
7.37519e-05
6.91583e-05
7.37677e-05
4.09007e-05
4.09015e-05
4.09025e-05
4.11024e-05
4.10975e-05
4.10975e-05
4.10984e-05
6.15428e-05
6.54222e-05
4.83722e-05
5.28939e-05
6.15153e-05
6.54416e-05
4.84178e-05
7.14236e-05
7.14409e-05
6.15342e-05
4.83688e-05
6.54225e-05
5.28926e-05
6.15054e-05
4.84139e-05
6.54424e-05
7.0402e-05
7.04096e-05
5.47961e-05
7.04143e-05
7.04219e-05
6.92122e-05
7.37848e-05
6.91994e-05
7.37996e-05
7.14614e-05
7.14775e-05
6.92112e-05
7.37881e-05
6.91975e-05
7.38022e-05
4.11692e-05
4.1169e-05
4.11696e-05
4.13463e-05
4.13404e-05
4.13394e-05
4.13396e-05
6.15995e-05
6.54666e-05
4.85632e-05
5.30408e-05
6.15786e-05
6.54819e-05
4.86004e-05
7.14559e-05
7.14722e-05
6.15918e-05
4.85582e-05
6.54671e-05
5.30387e-05
6.15677e-05
4.85951e-05
6.54829e-05
7.04361e-05
7.04443e-05
5.49105e-05
7.04457e-05
7.04533e-05
6.92383e-05
7.38172e-05
6.92268e-05
7.38301e-05
7.14912e-05
7.15063e-05
6.92376e-05
7.38194e-05
6.9227e-05
7.38327e-05
4.14041e-05
4.14029e-05
4.14026e-05
4.15575e-05
4.15508e-05
4.15488e-05
4.15478e-05
6.16424e-05
6.55011e-05
4.87247e-05
5.3163e-05
6.16265e-05
6.55129e-05
4.8754e-05
7.14855e-05
7.15009e-05
6.1635e-05
4.87189e-05
6.55018e-05
5.31603e-05
6.16172e-05
4.8748e-05
6.55139e-05
7.04634e-05
7.04722e-05
5.50039e-05
7.04697e-05
7.04789e-05
6.92567e-05
7.38448e-05
6.92489e-05
7.38579e-05
7.15184e-05
7.15327e-05
6.92578e-05
7.38488e-05
6.92497e-05
7.38597e-05
4.16066e-05
4.16044e-05
4.16029e-05
4.17383e-05
4.17305e-05
4.17277e-05
4.17251e-05
6.16754e-05
6.55284e-05
4.88585e-05
5.32628e-05
6.1663e-05
6.55373e-05
4.88806e-05
7.15128e-05
7.15274e-05
6.16677e-05
4.88524e-05
6.55287e-05
5.32596e-05
6.16551e-05
4.88744e-05
6.55381e-05
7.04852e-05
7.04952e-05
5.508e-05
7.04913e-05
7.05007e-05
6.92712e-05
7.38704e-05
6.92651e-05
7.38819e-05
7.15433e-05
7.15569e-05
6.9273e-05
7.38739e-05
6.92666e-05
7.38838e-05
4.17789e-05
4.1776e-05
4.17727e-05
4.18914e-05
4.18823e-05
4.1879e-05
4.18744e-05
6.16997e-05
6.55498e-05
4.8967e-05
5.3343e-05
6.16902e-05
6.55555e-05
4.89832e-05
7.15379e-05
7.15519e-05
6.16922e-05
4.8961e-05
6.555e-05
5.33395e-05
6.16829e-05
4.89772e-05
6.55574e-05
7.05038e-05
7.0515e-05
5.51408e-05
7.05086e-05
7.05203e-05
6.92824e-05
7.38932e-05
6.92775e-05
7.39025e-05
7.15661e-05
7.1579e-05
6.9285e-05
7.38965e-05
6.92797e-05
7.39053e-05
4.19238e-05
4.19204e-05
4.19151e-05
4.20199e-05
4.2009e-05
4.20056e-05
4.1999e-05
6.17173e-05
6.5565e-05
4.90534e-05
5.34066e-05
6.17096e-05
6.5569e-05
4.90653e-05
7.15609e-05
7.15742e-05
6.17106e-05
4.90477e-05
6.55666e-05
5.34035e-05
6.17029e-05
4.90597e-05
6.55717e-05
7.05194e-05
7.05321e-05
5.51885e-05
7.05228e-05
7.05363e-05
6.9292e-05
7.39129e-05
6.92877e-05
7.39216e-05
7.15862e-05
7.15982e-05
6.92947e-05
7.39163e-05
6.92904e-05
7.3924e-05
4.20441e-05
4.20408e-05
4.20336e-05
4.21269e-05
4.21139e-05
4.21107e-05
4.21026e-05
6.17318e-05
6.5577e-05
4.91214e-05
5.34556e-05
6.17244e-05
6.55804e-05
4.91308e-05
7.15815e-05
7.15942e-05
6.17244e-05
4.91165e-05
6.55792e-05
5.34535e-05
6.1718e-05
4.9126e-05
6.55824e-05
7.05321e-05
7.05459e-05
5.52287e-05
7.05351e-05
7.0549e-05
6.9302e-05
7.39313e-05
6.92971e-05
7.39387e-05
7.16031e-05
7.16146e-05
6.92991e-05
7.39334e-05
6.92968e-05
7.39405e-05
4.21431e-05
4.21402e-05
4.21317e-05
4.22151e-05
4.22001e-05
4.21976e-05
4.21888e-05
6.17465e-05
6.55887e-05
4.91755e-05
5.3494e-05
6.17388e-05
6.55913e-05
4.91833e-05
7.15994e-05
7.16115e-05
6.17352e-05
4.91712e-05
6.55899e-05
5.34926e-05
6.17296e-05
4.91789e-05
6.55924e-05
7.05445e-05
7.05578e-05
5.52589e-05
7.05465e-05
7.05592e-05
6.9312e-05
7.39473e-05
6.93081e-05
7.39547e-05
7.16175e-05
7.1629e-05
6.93026e-05
7.39484e-05
6.92997e-05
7.39551e-05
4.22243e-05
4.22217e-05
4.22131e-05
4.22869e-05
4.22711e-05
4.22688e-05
4.22607e-05
6.17614e-05
6.55996e-05
4.92206e-05
5.35256e-05
6.17544e-05
6.56017e-05
4.92273e-05
7.16144e-05
7.16264e-05
6.17465e-05
4.92155e-05
6.56e-05
5.35239e-05
6.17399e-05
4.92219e-05
6.5602e-05
7.05567e-05
7.05682e-05
5.52845e-05
7.05573e-05
7.05685e-05
6.93163e-05
7.39628e-05
6.93144e-05
7.39691e-05
7.16291e-05
7.16411e-05
6.93107e-05
7.39626e-05
6.93065e-05
7.39712e-05
4.22908e-05
4.22892e-05
4.22811e-05
4.23449e-05
4.23287e-05
4.2328e-05
4.23207e-05
6.17723e-05
6.56101e-05
4.92592e-05
5.35528e-05
6.1767e-05
6.56107e-05
4.92649e-05
7.16267e-05
7.16394e-05
6.17612e-05
4.9253e-05
6.56094e-05
5.35502e-05
6.17537e-05
4.92587e-05
6.561e-05
7.05685e-05
7.05792e-05
5.53062e-05
7.05667e-05
7.05772e-05
6.93159e-05
7.39723e-05
6.93156e-05
7.39783e-05
7.16376e-05
7.16513e-05
6.93165e-05
7.39766e-05
6.93138e-05
7.39833e-05
4.23455e-05
4.2345e-05
4.23384e-05
4.2391e-05
4.23755e-05
4.23769e-05
4.23706e-05
6.17784e-05
6.56204e-05
4.92911e-05
5.35756e-05
6.17746e-05
6.5618e-05
4.92952e-05
7.16362e-05
7.16505e-05
6.17731e-05
4.92865e-05
6.56195e-05
5.35737e-05
6.17673e-05
4.92913e-05
6.56176e-05
7.05797e-05
7.05899e-05
5.53265e-05
7.05739e-05
7.05841e-05
6.93147e-05
7.39794e-05
6.93141e-05
7.39866e-05
7.16437e-05
7.16611e-05
6.93189e-05
7.3985e-05
6.9317e-05
7.39925e-05
4.23885e-05
4.2391e-05
4.23845e-05
4.24261e-05
4.24119e-05
4.24155e-05
4.24098e-05
6.17838e-05
6.56306e-05
4.93164e-05
5.35942e-05
6.17802e-05
6.56227e-05
4.93188e-05
7.16424e-05
7.166e-05
6.178e-05
4.93154e-05
6.56305e-05
5.35945e-05
6.17765e-05
4.93186e-05
6.56232e-05
7.05902e-05
7.06008e-05
5.53473e-05
7.0578e-05
7.05889e-05
6.93175e-05
7.39851e-05
6.93146e-05
7.39951e-05
7.16474e-05
7.16709e-05
6.9323e-05
7.39911e-05
6.93199e-05
7.40011e-05
4.24215e-05
4.24265e-05
4.24201e-05
4.24509e-05
4.24384e-05
4.24436e-05
4.24389e-05
6.17866e-05
6.56415e-05
4.93365e-05
5.36078e-05
6.17845e-05
6.56238e-05
4.93372e-05
7.16455e-05
7.1669e-05
6.1784e-05
4.93379e-05
6.56421e-05
5.361e-05
6.17809e-05
4.9339e-05
6.56248e-05
7.0601e-05
7.06122e-05
5.53587e-05
7.05796e-05
7.05911e-05
6.93235e-05
7.39892e-05
6.93193e-05
7.40052e-05
7.16486e-05
7.16811e-05
6.93263e-05
7.3995e-05
6.93235e-05
7.40108e-05
4.24453e-05
4.24518e-05
4.24465e-05
4.24666e-05
4.24558e-05
4.24628e-05
4.2459e-05
6.179e-05
6.56566e-05
4.93512e-05
5.36162e-05
6.17905e-05
6.56199e-05
4.93499e-05
7.1646e-05
7.16784e-05
6.17904e-05
4.93546e-05
6.56579e-05
5.362e-05
6.1789e-05
4.93538e-05
6.56215e-05
7.06139e-05
7.06255e-05
5.53678e-05
7.05798e-05
7.05914e-05
6.93236e-05
7.39911e-05
6.93199e-05
7.40196e-05
7.16479e-05
7.16923e-05
6.93227e-05
7.39965e-05
6.93201e-05
7.40248e-05
4.24611e-05
4.24684e-05
4.24649e-05
4.24646e-05
4.24565e-05
4.24641e-05
4.24618e-05
6.17893e-05
6.56843e-05
4.93624e-05
5.36211e-05
6.1798e-05
6.56068e-05
4.9358e-05
7.16449e-05
7.16892e-05
6.17904e-05
4.93673e-05
6.5686e-05
5.36261e-05
6.17986e-05
4.93632e-05
6.56083e-05
7.06319e-05
7.06436e-05
5.5374e-05
7.05812e-05
7.05931e-05
6.92973e-05
7.39883e-05
6.93041e-05
7.40449e-05
7.16475e-05
7.17072e-05
6.92963e-05
7.39932e-05
6.93028e-05
7.40498e-05
4.24589e-05
4.24666e-05
4.24644e-05
4.20804e-05
4.20745e-05
4.20804e-05
4.20795e-05
6.17409e-05
6.57334e-05
4.93592e-05
5.36143e-05
6.18022e-05
6.555e-05
4.93108e-05
7.16445e-05
7.17044e-05
6.1743e-05
4.93655e-05
6.57343e-05
5.36196e-05
6.18043e-05
4.93165e-05
6.55504e-05
7.06468e-05
7.06588e-05
5.53516e-05
7.05367e-05
7.05487e-05
6.55015e-05
7.38089e-05
6.91155e-05
7.46833e-05
7.16469e-05
6.62993e-05
6.55017e-05
7.38119e-05
6.91148e-05
7.46895e-05
2.8063e-05
3.57846e-05
3.57857e-05
4.35426e-05
2.8512e-05
3.66862e-05
3.66886e-05
6.15391e-05
6.54357e-05
4.91616e-05
5.11747e-05
6.15653e-05
6.71401e-05
4.71929e-05
7.16438e-05
6.63017e-05
6.15392e-05
4.91665e-05
6.54368e-05
5.11452e-05
6.15662e-05
4.7204e-05
6.71429e-05
6.99326e-05
6.99441e-05
5.46431e-05
7.14041e-05
7.14142e-05
7.12386e-05
7.12412e-05
5.39102e-05
7.01464e-05
7.01586e-05
7.12634e-05
7.12399e-05
7.12658e-05
7.12425e-05
5.39652e-05
7.01796e-05
7.01916e-05
7.01585e-05
7.01707e-05
6.88539e-05
7.3531e-05
6.10097e-05
5.17764e-05
6.50868e-05
4.70528e-05
6.10139e-05
5.17779e-05
6.5093e-05
4.70542e-05
6.88583e-05
7.35564e-05
7.35327e-05
6.88925e-05
6.88582e-05
7.35602e-05
7.35366e-05
6.88948e-05
6.10215e-05
5.18481e-05
6.51313e-05
4.72212e-05
6.50944e-05
4.71398e-05
6.10769e-05
6.1023e-05
5.185e-05
6.51373e-05
4.72226e-05
6.51004e-05
4.71413e-05
6.10779e-05
5.39118e-05
7.01591e-05
7.01432e-05
7.12366e-05
7.12642e-05
7.1241e-05
5.39773e-05
7.01915e-05
7.01766e-05
7.0171e-05
7.01548e-05
7.1261e-05
7.12376e-05
6.10168e-05
5.17772e-05
6.50947e-05
4.7055e-05
6.88546e-05
7.35282e-05
6.10162e-05
5.17759e-05
4.70541e-05
6.5089e-05
6.88596e-05
7.35624e-05
7.35393e-05
6.88972e-05
6.1026e-05
5.18494e-05
6.51391e-05
4.72237e-05
6.51023e-05
4.71422e-05
6.10846e-05
6.8859e-05
7.35563e-05
7.35329e-05
6.88966e-05
6.10266e-05
5.1848e-05
4.72229e-05
6.51331e-05
4.71415e-05
6.50979e-05
6.10818e-05
6.88541e-05
7.35323e-05
6.10153e-05
5.17783e-05
4.70548e-05
6.50888e-05
6.88541e-05
7.35271e-05
6.10255e-05
5.18486e-05
6.51336e-05
4.72217e-05
6.50979e-05
4.71404e-05
6.10803e-05
6.88585e-05
7.35608e-05
7.35356e-05
6.88945e-05
6.10244e-05
5.18506e-05
4.7224e-05
6.51323e-05
4.71426e-05
6.50961e-05
6.10833e-05
6.88583e-05
7.35549e-05
7.35324e-05
6.88952e-05
5.39123e-05
7.01514e-05
7.01467e-05
7.12384e-05
7.12628e-05
7.12396e-05
5.39713e-05
7.01835e-05
7.01794e-05
7.01635e-05
7.01588e-05
7.12629e-05
7.12397e-05
6.1017e-05
5.17795e-05
4.7059e-05
6.50949e-05
6.88525e-05
7.35284e-05
6.8854e-05
7.35302e-05
6.1029e-05
5.18505e-05
4.72261e-05
6.51319e-05
4.71452e-05
6.50956e-05
6.10824e-05
6.10286e-05
5.18518e-05
4.72277e-05
6.51382e-05
4.71466e-05
6.51022e-05
6.10821e-05
6.8859e-05
7.35568e-05
7.35338e-05
6.88912e-05
6.88599e-05
7.35583e-05
7.35356e-05
6.88925e-05
7.12361e-05
7.12386e-05
5.39645e-05
7.01785e-05
7.01903e-05
7.01578e-05
7.01694e-05
7.12599e-05
7.12373e-05
7.12626e-05
7.12398e-05
7.12645e-05
7.12871e-05
7.12668e-05
7.12892e-05
7.01917e-05
7.02035e-05
5.41255e-05
7.02137e-05
7.02251e-05
7.131e-05
7.12881e-05
7.13116e-05
7.129e-05
5.41796e-05
7.02466e-05
7.02574e-05
7.02258e-05
7.02369e-05
6.8937e-05
7.35637e-05
6.89011e-05
7.35881e-05
6.11468e-05
6.51398e-05
4.73044e-05
5.20488e-05
6.10904e-05
6.51765e-05
4.73823e-05
6.11476e-05
6.51451e-05
4.73059e-05
5.20502e-05
6.10909e-05
6.5181e-05
4.73836e-05
6.89421e-05
7.3612e-05
7.35882e-05
6.89751e-05
6.89426e-05
7.3614e-05
7.35926e-05
6.89754e-05
6.11599e-05
5.21153e-05
6.52215e-05
4.75357e-05
6.51858e-05
4.74626e-05
6.12116e-05
6.11596e-05
5.21163e-05
6.52239e-05
4.75367e-05
6.51894e-05
4.74638e-05
6.12123e-05
7.02033e-05
7.01885e-05
5.41273e-05
7.02241e-05
7.02101e-05
7.12618e-05
7.12844e-05
7.13099e-05
7.12883e-05
5.41799e-05
7.02552e-05
7.02421e-05
7.02356e-05
7.02214e-05
7.13068e-05
7.1285e-05
6.11543e-05
6.51472e-05
4.73072e-05
5.20502e-05
6.10958e-05
6.51833e-05
4.73852e-05
6.89385e-05
7.35613e-05
6.89027e-05
7.35844e-05
6.11518e-05
4.73065e-05
6.51422e-05
5.20482e-05
6.10936e-05
4.73843e-05
6.51766e-05
6.8945e-05
7.36163e-05
7.35951e-05
6.89787e-05
6.11637e-05
5.21169e-05
6.52271e-05
4.75391e-05
6.51923e-05
4.74658e-05
6.1219e-05
6.89435e-05
7.36104e-05
7.35874e-05
6.89757e-05
6.11615e-05
5.21147e-05
4.75378e-05
6.52198e-05
4.74648e-05
6.51869e-05
6.12166e-05
6.89362e-05
7.3564e-05
6.89011e-05
7.35874e-05
6.11508e-05
4.7308e-05
6.51401e-05
5.20514e-05
6.10944e-05
4.73859e-05
6.51762e-05
6.89367e-05
7.356e-05
6.89016e-05
7.35818e-05
6.11601e-05
5.21166e-05
6.52207e-05
4.75389e-05
6.51873e-05
4.74651e-05
6.12121e-05
6.89414e-05
7.36139e-05
7.35922e-05
6.89736e-05
6.11599e-05
5.21181e-05
4.75398e-05
6.52195e-05
4.74668e-05
6.51847e-05
6.12109e-05
6.89418e-05
7.36081e-05
7.35865e-05
6.89747e-05
7.01966e-05
7.01915e-05
5.41264e-05
7.02165e-05
7.02127e-05
7.1264e-05
7.12863e-05
7.13081e-05
7.12865e-05
5.41788e-05
7.02483e-05
7.02449e-05
7.02297e-05
7.02247e-05
7.13089e-05
7.12873e-05
6.11492e-05
4.73115e-05
6.51459e-05
5.20522e-05
6.10949e-05
4.7389e-05
6.51814e-05
6.89317e-05
7.35621e-05
6.88984e-05
7.35844e-05
6.8934e-05
7.35634e-05
6.88996e-05
7.35854e-05
6.11585e-05
5.21174e-05
4.75417e-05
6.52198e-05
4.74684e-05
6.51845e-05
6.12132e-05
6.11598e-05
5.21187e-05
4.75421e-05
6.52237e-05
4.74696e-05
6.51896e-05
6.12138e-05
6.89378e-05
7.36105e-05
7.35894e-05
6.89708e-05
6.894e-05
7.36111e-05
7.35903e-05
6.89735e-05
7.12609e-05
7.12827e-05
7.12636e-05
7.12856e-05
5.41792e-05
7.02434e-05
7.02539e-05
7.02231e-05
7.02343e-05
7.13046e-05
7.12834e-05
7.13076e-05
7.12864e-05
7.13108e-05
7.13321e-05
7.13124e-05
7.13332e-05
7.02577e-05
7.02681e-05
5.43265e-05
7.02775e-05
7.02876e-05
7.13533e-05
7.13328e-05
7.1354e-05
7.13338e-05
5.43771e-05
7.0307e-05
7.0316e-05
7.02885e-05
7.0298e-05
6.90132e-05
7.36187e-05
6.89814e-05
7.36394e-05
6.12711e-05
6.5229e-05
4.76135e-05
5.22984e-05
6.12226e-05
6.52618e-05
4.76839e-05
6.12724e-05
6.52312e-05
4.76145e-05
5.2298e-05
6.12234e-05
6.52631e-05
4.76847e-05
6.9019e-05
7.36625e-05
7.36404e-05
6.90463e-05
6.90195e-05
7.36635e-05
7.36441e-05
6.90485e-05
6.12822e-05
5.23595e-05
6.53014e-05
4.78234e-05
6.52699e-05
4.77578e-05
6.13276e-05
6.12835e-05
5.23588e-05
6.53015e-05
4.78239e-05
6.52708e-05
4.77585e-05
6.13286e-05
7.0266e-05
7.02525e-05
5.43245e-05
7.02848e-05
7.0272e-05
7.13073e-05
7.13285e-05
7.13524e-05
7.13321e-05
5.43748e-05
7.03132e-05
7.03004e-05
7.02956e-05
7.02819e-05
7.13493e-05
7.13288e-05
6.12788e-05
6.52343e-05
4.76172e-05
5.22999e-05
6.12281e-05
6.52666e-05
4.76877e-05
6.90129e-05
7.36132e-05
6.89817e-05
7.36353e-05
6.12727e-05
4.76159e-05
6.52279e-05
5.22967e-05
6.12255e-05
4.7686e-05
6.52584e-05
6.90207e-05
7.36656e-05
7.36449e-05
6.90494e-05
6.12863e-05
5.23611e-05
6.53048e-05
4.78274e-05
6.52744e-05
4.77618e-05
6.13335e-05
6.90191e-05
7.3658e-05
7.36378e-05
6.90475e-05
6.12821e-05
5.23576e-05
4.78253e-05
6.5296e-05
4.77601e-05
6.52675e-05
6.13278e-05
6.90113e-05
7.3617e-05
6.89798e-05
7.36385e-05
6.12699e-05
4.76182e-05
6.52265e-05
5.23005e-05
6.12209e-05
4.76884e-05
6.52583e-05
6.901e-05
7.36109e-05
6.89798e-05
7.36323e-05
6.12835e-05
5.23606e-05
6.52973e-05
4.78277e-05
6.52684e-05
4.77618e-05
6.13272e-05
6.90166e-05
7.36621e-05
7.3643e-05
6.90456e-05
6.12794e-05
5.23616e-05
4.78281e-05
6.52961e-05
4.77628e-05
6.52657e-05
6.13251e-05
6.90148e-05
7.36563e-05
7.36349e-05
6.90452e-05
7.02598e-05
7.0256e-05
5.43239e-05
7.02774e-05
7.02755e-05
7.13096e-05
7.13306e-05
7.135e-05
7.13297e-05
5.43738e-05
7.03064e-05
7.03045e-05
7.02893e-05
7.0286e-05
7.13515e-05
7.13312e-05
6.12717e-05
4.76202e-05
6.52305e-05
5.23004e-05
6.12232e-05
4.76899e-05
6.52622e-05
6.9007e-05
7.36152e-05
6.89767e-05
7.36367e-05
6.90087e-05
7.36157e-05
6.89793e-05
7.36368e-05
6.12809e-05
5.23605e-05
4.78288e-05
6.5298e-05
4.77634e-05
6.52668e-05
6.13259e-05
6.12798e-05
5.23614e-05
4.78288e-05
6.52989e-05
4.7764e-05
6.52692e-05
6.13244e-05
6.90118e-05
7.36606e-05
7.36392e-05
6.90394e-05
6.90137e-05
7.36603e-05
7.36391e-05
6.90406e-05
7.13052e-05
7.13257e-05
7.13083e-05
7.13288e-05
5.43746e-05
7.03011e-05
7.03107e-05
7.02836e-05
7.02937e-05
7.13461e-05
7.13262e-05
7.13493e-05
7.13294e-05
7.13538e-05
7.13737e-05
7.13544e-05
7.1374e-05
7.03171e-05
7.03258e-05
5.45076e-05
7.03343e-05
7.03426e-05
7.13931e-05
7.1374e-05
7.13932e-05
7.13743e-05
5.45525e-05
7.03596e-05
7.03677e-05
7.03434e-05
7.03525e-05
6.90804e-05
7.3668e-05
6.90538e-05
7.36867e-05
6.13797e-05
6.53079e-05
4.78946e-05
5.25236e-05
6.13369e-05
6.53359e-05
4.79572e-05
6.13801e-05
6.53079e-05
4.78951e-05
5.25215e-05
6.13381e-05
6.53352e-05
4.79574e-05
6.90833e-05
7.3707e-05
7.36877e-05
6.91089e-05
6.90854e-05
7.37084e-05
7.3691e-05
6.91096e-05
6.13873e-05
5.25789e-05
6.53684e-05
4.80822e-05
6.53423e-05
4.80245e-05
6.14295e-05
6.13877e-05
5.25764e-05
6.53673e-05
4.8082e-05
6.53413e-05
4.80246e-05
6.14299e-05
7.03232e-05
7.03095e-05
5.45028e-05
7.03394e-05
7.03267e-05
7.13496e-05
7.13695e-05
7.1392e-05
7.1373e-05
5.45489e-05
7.03641e-05
7.03514e-05
7.03491e-05
7.03352e-05
7.13889e-05
7.13696e-05
6.13845e-05
6.53109e-05
4.78987e-05
5.25247e-05
6.13408e-05
6.53385e-05
4.79611e-05
6.90788e-05
7.36621e-05
6.9053e-05
7.36813e-05
6.13793e-05
4.78967e-05
6.53031e-05
5.25204e-05
6.13379e-05
4.79588e-05
6.53289e-05
6.90857e-05
7.37095e-05
7.36923e-05
6.91082e-05
6.13904e-05
5.25801e-05
6.53702e-05
4.80857e-05
6.53449e-05
4.80283e-05
6.14297e-05
6.9084e-05
7.37023e-05
7.36832e-05
6.91064e-05
6.13888e-05
5.25754e-05
4.80832e-05
6.536e-05
4.80261e-05
6.53363e-05
6.14253e-05
6.90778e-05
7.36665e-05
6.90504e-05
7.36853e-05
6.13777e-05
4.78998e-05
6.53025e-05
5.25243e-05
6.13347e-05
4.7962e-05
6.53298e-05
6.90757e-05
7.36585e-05
6.90497e-05
7.36784e-05
6.13869e-05
5.25789e-05
6.53625e-05
4.80869e-05
6.53378e-05
4.80291e-05
6.14247e-05
6.90814e-05
7.37064e-05
7.36892e-05
6.91048e-05
6.13873e-05
5.25796e-05
4.8087e-05
6.53619e-05
4.80297e-05
6.53361e-05
6.14255e-05
6.90804e-05
7.36991e-05
7.3682e-05
6.91042e-05
7.03175e-05
7.03138e-05
5.45027e-05
7.03325e-05
7.03311e-05
7.1352e-05
7.13716e-05
7.13886e-05
7.13697e-05
5.45489e-05
7.03565e-05
7.03559e-05
7.03424e-05
7.03399e-05
7.13909e-05
7.13719e-05
6.13754e-05
4.79001e-05
6.53048e-05
5.25232e-05
6.13326e-05
4.79616e-05
6.53317e-05
6.90698e-05
7.3663e-05
6.90443e-05
7.36837e-05
6.9071e-05
7.36626e-05
6.90457e-05
7.36821e-05
6.13821e-05
5.25786e-05
4.80858e-05
6.53638e-05
4.80287e-05
6.5338e-05
6.14218e-05
6.13823e-05
5.25781e-05
4.80855e-05
6.53624e-05
4.80289e-05
6.53375e-05
6.14222e-05
6.90738e-05
7.37043e-05
7.36856e-05
6.90981e-05
6.90753e-05
7.37038e-05
7.3686e-05
6.90993e-05
7.13465e-05
7.13658e-05
7.13497e-05
7.13691e-05
5.45482e-05
7.03521e-05
7.03605e-05
7.03374e-05
7.03455e-05
7.13847e-05
7.13661e-05
7.1388e-05
7.13693e-05
7.13933e-05
7.14115e-05
7.13934e-05
7.14117e-05
7.03676e-05
7.03766e-05
5.46671e-05
7.03823e-05
7.03903e-05
7.1429e-05
7.14115e-05
7.14294e-05
7.14117e-05
5.47073e-05
7.04029e-05
7.04116e-05
7.03894e-05
7.03989e-05
6.91361e-05
7.37124e-05
6.91143e-05
7.37302e-05
6.14737e-05
6.53735e-05
4.81466e-05
5.27227e-05
6.14361e-05
6.53968e-05
4.82009e-05
6.14718e-05
6.53727e-05
4.81463e-05
5.27192e-05
6.14365e-05
6.53959e-05
4.82003e-05
6.91384e-05
7.3748e-05
7.373e-05
6.91577e-05
6.91404e-05
7.37494e-05
7.37318e-05
6.91591e-05
6.14788e-05
5.27721e-05
6.54232e-05
4.83109e-05
6.54017e-05
4.82614e-05
6.15122e-05
6.1479e-05
5.27684e-05
6.54229e-05
4.831e-05
6.54012e-05
4.82607e-05
6.15106e-05
7.03731e-05
7.03593e-05
5.46611e-05
7.03868e-05
7.03742e-05
7.13888e-05
7.14076e-05
7.14286e-05
7.14107e-05
5.47038e-05
7.04084e-05
7.03941e-05
7.03955e-05
7.03818e-05
7.14256e-05
7.14074e-05
6.14691e-05
6.53754e-05
4.81499e-05
5.27234e-05
6.14357e-05
6.53986e-05
4.82037e-05
6.91314e-05
7.37042e-05
6.91109e-05
7.37216e-05
6.14672e-05
4.81475e-05
6.53659e-05
5.27178e-05
6.14339e-05
4.82011e-05
6.53877e-05
6.91361e-05
7.37502e-05
7.37322e-05
6.91567e-05
6.14762e-05
5.27729e-05
6.54252e-05
4.83129e-05
6.54037e-05
4.82638e-05
6.15071e-05
6.91357e-05
7.37404e-05
7.37252e-05
6.91539e-05
6.14754e-05
5.2767e-05
4.83103e-05
6.54141e-05
4.82614e-05
6.53939e-05
6.15051e-05
6.91306e-05
7.37103e-05
6.91091e-05
7.37275e-05
6.14689e-05
4.81517e-05
6.53674e-05
5.27221e-05
6.14343e-05
4.82056e-05
6.53906e-05
6.91302e-05
7.3703e-05
6.91089e-05
7.37197e-05
6.1477e-05
5.27713e-05
6.54178e-05
4.83152e-05
6.53968e-05
4.82658e-05
6.15079e-05
6.91338e-05
7.37474e-05
7.37309e-05
6.91545e-05
6.14771e-05
5.27715e-05
4.83152e-05
6.54171e-05
4.82663e-05
6.53959e-05
6.15071e-05
6.91345e-05
7.37388e-05
7.37235e-05
6.91528e-05
7.03663e-05
7.03636e-05
5.46607e-05
7.03796e-05
7.0378e-05
7.1391e-05
7.14092e-05
7.14242e-05
7.14063e-05
5.47031e-05
7.04005e-05
7.0399e-05
7.03871e-05
7.03855e-05
7.14269e-05
7.14092e-05
6.14642e-05
4.81497e-05
6.53673e-05
5.27194e-05
6.14283e-05
4.82028e-05
6.53902e-05
6.91226e-05
7.37079e-05
6.91019e-05
7.37252e-05
6.91238e-05
7.37059e-05
6.91031e-05
7.37237e-05
6.14689e-05
5.27705e-05
4.83121e-05
6.54186e-05
4.82632e-05
6.5397e-05
6.15012e-05
6.1469e-05
5.27685e-05
4.83114e-05
6.54164e-05
4.8263e-05
6.5395e-05
6.14997e-05
6.91263e-05
7.37448e-05
7.37285e-05
6.91451e-05
6.91268e-05
7.37428e-05
7.37273e-05
6.91457e-05
7.13849e-05
7.1403e-05
7.13881e-05
7.14063e-05
5.47008e-05
7.03956e-05
7.04032e-05
7.03823e-05
7.03898e-05
7.14205e-05
7.14029e-05
7.14239e-05
7.14063e-05
7.14288e-05
7.14458e-05
7.14292e-05
7.14465e-05
7.04093e-05
7.04189e-05
5.48035e-05
7.04217e-05
7.04312e-05
7.14619e-05
7.14454e-05
7.14629e-05
7.14462e-05
5.48419e-05
7.04385e-05
7.04487e-05
7.04276e-05
7.04373e-05
6.91798e-05
7.37524e-05
6.91629e-05
7.37685e-05
6.15453e-05
6.54273e-05
4.83683e-05
5.28956e-05
6.15178e-05
6.54467e-05
4.84142e-05
6.15459e-05
6.54274e-05
4.83673e-05
5.28911e-05
6.15181e-05
6.54469e-05
4.8413e-05
6.91822e-05
7.37836e-05
7.37672e-05
6.91965e-05
6.91832e-05
7.37858e-05
7.37695e-05
6.91975e-05
6.15516e-05
5.29394e-05
6.54686e-05
4.85092e-05
6.54508e-05
4.84678e-05
6.1576e-05
6.15517e-05
5.29349e-05
6.5469e-05
4.85079e-05
6.5451e-05
4.84667e-05
6.15767e-05
7.04153e-05
7.04029e-05
5.4799e-05