/*--------------------------------*- C++ -*----------------------------------*\
| =========                 |                                                 |
| \\      /  F ield         | OpenFOAM: The Open Source CFD Toolbox           |
|  \\    /   O peration     | Version:  v1906                                 |
|   \\  /    A nd           | Web:      www.OpenFOAM.com                      |
|    \\/     M anipulation  |                                                 |
\*---------------------------------------------------------------------------*/
FoamFile
{
    version     2.0;
    format      ascii;
    class       volScalarField;
    location    "350";
    object      nut;
}
// * * * * * * * * * * * * * * * * * * * * * * * * * * * * * * * * * * * * * //

dimensions      [0 2 -1 0 0 0 0];


internalField   nonuniform List<scalar> 
43024
(
0.000208953
0.000202329
0.000202323
0.000183374
0.000211278
0.000203634
0.000203625
0.000184273
0.000213475
0.000204851
0.00020484
0.000185089
0.000215526
0.000205968
0.000205953
0.000185824
0.000217424
0.000206983
0.000206964
0.000186489
0.000219162
0.0002079
0.000207875
0.000187072
0.000220738
0.000208712
0.000208683
0.000187552
0.00022215
0.000209422
0.00020939
0.000188044
0.000223399
0.000210034
0.000210001
0.000188423
0.000224491
0.000210553
0.00021052
0.000188741
0.000225432
0.000210975
0.000210948
0.000189
0.000226228
0.000211325
0.000211299
0.000189224
0.000226891
0.000211612
0.000211589
0.000189404
0.000227432
0.000211847
0.000211822
0.000189535
0.00022786
0.000212038
0.000212017
0.00018965
0.000228188
0.000212187
0.000212175
0.000189728
0.000228419
0.000212295
0.000212293
0.000189834
0.000228562
0.000212365
0.000212368
0.000189848
0.00022863
0.000212416
0.000212423
0.000189895
0.000228625
0.000212369
0.000212378
0.000189851
0.000230112
0.000213335
0.000213418
0.000193167
0.000183327
0.000201996
0.000201996
0.000183355
0.000202014
0.000201984
0.000202008
0.000201994
0.000183339
0.000202002
0.000202011
0.000183316
0.000183391
0.000184243
0.000202329
0.000202328
0.000203308
0.000203302
0.000183418
0.000184245
0.000202348
0.000202316
0.000203325
0.00020329
0.000202326
0.000203334
0.000203303
0.000183397
0.000184238
0.000202344
0.000203326
0.000203319
0.000184225
0.000184293
0.000185084
0.00020364
0.000203632
0.000204547
0.000204535
0.000184292
0.000185076
0.000203658
0.000203621
0.000204563
0.000204522
0.000203635
0.000204569
0.000204537
0.000184276
0.000185063
0.00020365
0.000204558
0.000204551
0.000185056
0.000185112
0.000185847
0.000204858
0.000204844
0.000205684
0.000205667
0.000185109
0.000185831
0.000204874
0.000204831
0.000205698
0.00020565
0.000204847
0.000205703
0.000205669
0.000185097
0.000185816
0.00020486
0.000205689
0.000205678
0.000185815
0.000185851
0.000186525
0.000205972
0.000205954
0.000206715
0.000206696
0.000185852
0.000186518
0.000205987
0.000205936
0.000206727
0.000206672
0.000205957
0.000206733
0.000206698
0.000185836
0.000186502
0.000205965
0.000206715
0.000206702
0.000186492
0.000186521
0.000187128
0.000206982
0.000206963
0.000207644
0.000207623
0.000186527
0.000187129
0.000206994
0.000206939
0.000207653
0.000207595
0.000206966
0.000207662
0.000207622
0.000186497
0.000187107
0.000206969
0.000207638
0.000207625
0.000187101
0.000187121
0.000187637
0.000207892
0.000207871
0.00020847
0.000208446
0.000187121
0.000187672
0.000207902
0.000207843
0.000208478
0.000208415
0.000207871
0.000208489
0.000208441
0.000187079
0.000187614
0.000207873
0.000208461
0.000208444
0.00018764
0.000187636
0.000188106
0.000208701
0.000208677
0.000209196
0.00020917
0.000187599
0.000188101
0.000208709
0.000208646
0.000209204
0.000209137
0.000208673
0.000209216
0.000209161
0.000187593
0.000188067
0.000208675
0.000209184
0.000209164
0.000188057
0.000188066
0.000188496
0.000209408
0.000209381
0.000209827
0.000209798
0.000188078
0.000188504
0.000209416
0.000209349
0.000209835
0.000209765
0.000209372
0.000209845
0.000209784
0.000188045
0.000188476
0.000209376
0.000209812
0.00020979
0.000188452
0.000188469
0.000188828
0.000210018
0.000209988
0.000210372
0.00021034
0.000188447
0.000188839
0.000210027
0.000209955
0.000210382
0.000210309
0.000209973
0.00021039
0.000210323
0.000188422
0.000188852
0.000209978
0.000210357
0.000210329
0.000188782
0.000188787
0.000189105
0.000210535
0.000210503
0.000210834
0.000210801
0.000188765
0.000189115
0.000210545
0.00021047
0.000210845
0.000210768
0.000210479
0.000210846
0.000210773
0.000188706
0.000189128
0.000210488
0.000210816
0.000210782
0.000189062
0.000189052
0.00018933
0.000210966
0.000210931
0.000211213
0.000211179
0.000189029
0.000189341
0.000210977
0.000210898
0.000211225
0.000211146
0.000210899
0.000211223
0.000211145
0.000188972
0.000189354
0.000210909
0.000211194
0.000211157
0.000189299
0.000189272
0.00018951
0.000211324
0.000211283
0.000211526
0.000211485
0.000189245
0.00018953
0.000211332
0.000211249
0.000211535
0.000211455
0.000211249
0.000211529
0.000211452
0.000189189
0.000189542
0.00021126
0.000211506
0.000211464
0.000189499
0.000189463
0.000189657
0.000211619
0.000211573
0.000211779
0.000211731
0.000189422
0.000189675
0.000211627
0.00021154
0.000211786
0.0002117
0.000211541
0.000211778
0.000211707
0.000189367
0.000189664
0.000211552
0.000211755
0.000211713
0.000189661
0.000189608
0.000189818
0.000211854
0.000211803
0.000211982
0.00021193
0.000189565
0.000189814
0.00021186
0.000211774
0.00021199
0.000211906
0.000211779
0.000211982
0.000211917
0.000189529
0.000189818
0.000211788
0.000211959
0.000211922
0.000189789
0.000189696
0.000189919
0.000212038
0.000211986
0.000212139
0.000212087
0.000189675
0.000189936
0.000212048
0.000211967
0.000212154
0.000212075
0.000211974
0.000212142
0.000212082
0.000189638
0.000189847
0.000211984
0.000212127
0.000212093
0.000189867
0.000189766
0.000190001
0.00021218
0.000212129
0.000212257
0.000212208
0.000189756
0.00018998
0.000212197
0.000212123
0.000212277
0.000212205
0.000212127
0.000212265
0.00021221
0.00018981
0.000189948
0.000212141
0.000212258
0.000212225
0.00018995
0.000189842
0.000190059
0.000212286
0.000212239
0.000212334
0.00021229
0.00018986
0.000189975
0.000212306
0.000212239
0.000212355
0.000212292
0.000212243
0.00021234
0.000212297
0.00018985
0.000189973
0.00021226
0.000212341
0.000212316
0.000190038
0.000189892
0.000190083
0.000212359
0.000212315
0.000212386
0.000212346
0.000189935
0.000190028
0.000212379
0.000212317
0.000212407
0.000212349
0.000212323
0.000212391
0.000212358
0.000189909
0.000189986
0.000212342
0.000212397
0.000212378
0.000189977
0.000189888
0.000190085
0.000212409
0.00021237
0.000212455
0.000212423
0.000189894
0.000190045
0.000212429
0.000212373
0.000212476
0.000212426
0.000212384
0.000212464
0.000212439
0.000189921
0.000190005
0.000212404
0.000212474
0.00021246
0.000190051
0.000189851
0.000191444
0.000212358
0.000212327
0.000214942
0.000214922
0.000189909
0.000191422
0.00021238
0.000212329
0.000214964
0.000214922
0.000212346
0.00021497
0.000214936
0.00018989
0.000191346
0.000212368
0.000214981
0.000214958
0.000191416
0.000193028
0.000213334
0.000213309
0.000193029
0.000213353
0.000213386
0.000230044
0.000230066
0.000230079
0.000213406
0.00019316
0.000213425
0.000100292
5.07732e-05
2.39011e-05
0.000100298
5.07704e-05
0.000208337
0.000208343
0.000208343
0.000208349
0.000144931
0.000201309
0.000104103
0.00021074
2.3899e-05
0.000144941
0.000201306
0.000210748
0.0001041
0.000182872
7.81736e-05
7.81735e-05
0.000100436
5.07853e-05
0.000100357
5.07957e-05
2.39055e-05
2.39094e-05
0.000100445
5.07848e-05
0.000100357
5.07907e-05
0.000208959
0.000208959
0.000208966
0.000210686
0.000210668
0.000210666
0.000210669
0.000145362
0.000104179
0.000212075
0.000202697
0.000145133
0.000104271
0.000212545
2.39034e-05
2.39072e-05
0.000145363
0.000212082
0.000104175
0.000202689
0.000145144
0.000212548
0.000104269
7.82177e-05
7.82163e-05
0.000183783
7.82496e-05
7.82487e-05
0.000100573
5.08045e-05
0.000100504
5.08146e-05
2.39135e-05
2.3917e-05
0.000100574
5.08038e-05
0.000100505
5.08113e-05
0.000211286
0.000211283
0.00021129
0.000212903
0.000212884
0.000212879
0.000212883
0.000145764
0.00010435
0.000213779
0.000203977
0.000145564
0.000104433
0.000214219
2.39112e-05
2.39148e-05
0.000145773
0.000213782
0.000104348
0.000203967
0.000145563
0.000214219
0.000104433
7.82921e-05
7.829e-05
0.000184651
7.83204e-05
7.83169e-05
0.000100687
5.08226e-05
0.000100622
5.08306e-05
2.39208e-05
2.39242e-05
0.000100689
5.08214e-05
0.000100631
5.08272e-05
0.000213473
0.000213468
0.000213474
0.000214976
0.000214952
0.000214944
0.000214947
0.000146107
0.000104498
0.000215381
0.000205162
0.000145935
0.00010457
0.000215781
2.39185e-05
2.39219e-05
0.000146107
0.000215379
0.000104499
0.000205149
0.000145928
0.000215775
0.000104573
7.83576e-05
7.8354e-05
0.000185447
7.83808e-05
7.83766e-05
0.00010078
5.0841e-05
0.000100726
5.08473e-05
2.39276e-05
2.39308e-05
0.000100779
5.08371e-05
0.000100726
5.08432e-05
0.000215511
0.000215502
0.000215508
0.000216898
0.000216867
0.000216853
0.000216857
0.000146412
0.000104624
0.000216863
0.000206243
0.000146257
0.000104688
0.000217221
2.39251e-05
2.39283e-05
0.000146405
0.000216852
0.000104625
0.000206226
0.000146245
0.000217206
0.000104688
7.84131e-05
7.84056e-05
0.000186164
7.84333e-05
7.84271e-05
0.000100853
5.08532e-05
0.000100812
5.08597e-05
2.39339e-05
2.39369e-05
0.000100852
5.08489e-05
0.000100807
5.08547e-05
0.000217393
0.000217378
0.000217384
0.000218664
0.000218624
0.000218604
0.000218607
0.000146673
0.000104731
0.000218219
0.00020722
0.000146549
0.000104788
0.000218533
2.39312e-05
2.39342e-05
0.000146651
0.000218199
0.00010473
0.000207198
0.000146518
0.00021851
0.000104786
7.8456e-05
7.84494e-05
0.000186805
7.84753e-05
7.84686e-05
0.00010091
5.08655e-05
0.000100877
5.08722e-05
2.39397e-05
2.39424e-05
0.000100908
5.08622e-05
0.000100875
5.08679e-05
0.000219114
0.000219093
0.000219098
0.00022027
0.00022022
0.000220194
0.000220197
0.000146888
0.00010482
0.000219448
0.000208096
0.000146787
0.000104868
0.000219719
2.39369e-05
2.39397e-05
0.00014687
0.00021942
0.000104818
0.000208068
0.000146755
0.000219689
0.000104867
7.84906e-05
7.84851e-05
0.000187387
7.85068e-05
7.84995e-05
0.000100955
5.08781e-05
0.000100922
5.08833e-05
2.39449e-05
2.39474e-05
0.000100953
5.08731e-05
0.000100925
5.08785e-05
0.000220671
0.000220644
0.000220648
0.000221716
0.000221654
0.000221624
0.000221624
0.000147071
0.00010489
0.000220552
0.000208868
0.000146973
0.000104931
0.000220776
2.3942e-05
2.39446e-05
0.000147048
0.000220518
0.000104889
0.000208837
0.000146939
0.00022074
0.00010493
7.85172e-05
7.85123e-05
0.000187892
7.85281e-05
7.85237e-05
0.000100985
5.08873e-05
0.000100961
5.08934e-05
2.39496e-05
2.3952e-05
0.000100987
5.08856e-05
0.000100963
5.08885e-05
0.000222063
0.000222032
0.000222033
0.000223002
0.000222928
0.000222895
0.000222891
0.000147225
0.000104947
0.00022153
0.000209542
0.000147136
0.000104982
0.000221707
2.39467e-05
2.39492e-05
0.000147199
0.000221492
0.000104944
0.00020951
0.000147107
0.000221669
0.000104981
7.85365e-05
7.85335e-05
0.000188269
7.85484e-05
7.85437e-05
0.00010101
5.08965e-05
0.000100988
5.0902e-05
2.39539e-05
2.39562e-05
0.000101012
5.08948e-05
0.000100991
5.08969e-05
0.000223293
0.000223259
0.000223255
0.000224135
0.000224047
0.000224013
0.000224003
0.00014735
0.000104993
0.00022238
0.000210126
0.000147271
0.000105021
0.000222517
2.39511e-05
2.39535e-05
0.000147321
0.00022234
0.00010499
0.000210093
0.000147244
0.00022248
0.000105023
7.8552e-05
7.85506e-05
0.000188634
7.85627e-05
7.85617e-05
0.000101028
5.09054e-05
0.000101009
5.09091e-05
2.39578e-05
2.396e-05
0.000101031
5.09016e-05
0.000101013
5.09047e-05
0.000224366
0.000224332
0.00022432
0.00022512
0.000225017
0.000224985
0.000224966
0.000147447
0.000105026
0.000223108
0.000210629
0.00014739
0.000105051
0.000223216
2.3955e-05
2.39573e-05
0.000147424
0.000223069
0.000105026
0.000210598
0.000147365
0.000223178
0.000105053
7.85643e-05
7.85644e-05
0.000188938
7.85735e-05
7.85746e-05
0.000101042
5.09118e-05
0.000101025
5.09157e-05
2.39614e-05
2.39635e-05
0.000101047
5.09098e-05
0.00010103
5.09112e-05
0.00022529
0.000225257
0.000225236
0.000225964
0.000225844
0.000225813
0.000225787
0.000147538
0.000105051
0.000223722
0.000211048
0.000147476
0.000105076
0.000223812
2.39587e-05
2.39609e-05
0.000147504
0.000223686
0.000105053
0.000211018
0.00014744
0.000223778
0.000105075
7.85736e-05
7.85748e-05
0.000189187
7.85831e-05
7.85843e-05
0.000101058
5.09193e-05
0.000101038
5.09216e-05
2.39644e-05
2.39664e-05
0.000101053
5.09148e-05
0.000101039
5.09174e-05
0.000226072
0.000226042
0.000226013
0.000226674
0.000226535
0.000226508
0.000226476
0.000147606
0.000105076
0.000224227
0.000211387
0.000147549
0.000105098
0.000224305
2.39619e-05
2.3964e-05
0.000147566
0.000224197
0.000105075
0.000211361
0.000147522
0.000224276
0.000105096
7.85832e-05
7.85835e-05
0.00018939
7.85922e-05
7.85916e-05
0.000101071
5.09247e-05
0.000101055
5.09272e-05
2.3967e-05
2.3969e-05
0.000101056
5.09202e-05
0.000101041
5.09226e-05
0.000226722
0.000226695
0.000226663
0.000227252
0.000227104
0.000227079
0.000227046
0.000147672
0.000105095
0.000224647
0.00021166
0.000147616
0.000105118
0.000224713
2.39646e-05
2.39666e-05
0.000147622
0.000224617
0.000105094
0.000211638
0.000147576
0.000224684
0.000105116
7.85929e-05
7.85908e-05
0.000189554
7.86011e-05
7.85985e-05
0.000101076
5.09306e-05
0.000101062
5.09331e-05
2.39692e-05
2.39713e-05
0.000101066
5.09246e-05
0.00010105
5.0928e-05
0.000227253
0.000227233
0.000227197
0.000227718
0.00022756
0.000227545
0.000227509
0.000147718
0.000105112
0.000224996
0.000211886
0.00014768
0.000105133
0.000225052
2.39668e-05
2.3969e-05
0.000147692
0.000224963
0.000105111
0.000211861
0.000147641
0.000225019
0.000105131
7.86026e-05
7.85995e-05
0.00018968
7.86094e-05
7.86061e-05
0.000101072
5.09344e-05
0.000101061
5.09366e-05
2.39708e-05
2.39732e-05
0.000101073
5.09303e-05
0.000101059
5.09329e-05
0.000227684
0.000227666
0.000227637
0.000228079
0.000227921
0.000227914
0.000227882
0.000147748
0.000105129
0.000225276
0.000212067
0.000147714
0.000105146
0.00022532
2.39686e-05
2.39711e-05
0.000147725
0.000225248
0.000105128
0.000212046
0.000147688
0.000225294
0.000105146
7.86127e-05
7.8609e-05
0.000189796
7.86171e-05
7.86134e-05
0.000101067
5.09371e-05
0.000101055
5.09396e-05
2.3972e-05
2.39749e-05
0.000101075
5.09337e-05
0.000101061
5.09363e-05
0.00022801
0.000228011
0.000227976
0.000228345
0.00022819
0.000228192
0.000228163
0.000147777
0.000105146
0.000225491
0.000212207
0.000147739
0.000105158
0.000225521
2.39698e-05
2.39728e-05
0.000147757
0.000225477
0.000105146
0.000212197
0.000147724
0.000225511
0.000105159
7.8623e-05
7.862e-05
0.000189905
7.8623e-05
7.86206e-05
0.000101067
5.09392e-05
0.000101051
5.09427e-05
2.39727e-05
2.39767e-05
0.000101078
5.09359e-05
0.000101062
5.09395e-05
0.000228247
0.000228262
0.000228224
0.000228517
0.000228371
0.000228381
0.000228359
0.00014779
0.000105166
0.00022565
0.000212305
0.000147764
0.000105168
0.000225668
2.39705e-05
2.39745e-05
0.000147779
0.000225647
0.000105169
0.000212304
0.000147749
0.000225667
0.000105171
7.86343e-05
7.86328e-05
0.00018996
7.86284e-05
7.86271e-05
0.000101069
5.09408e-05
0.000101052
5.09464e-05
2.3973e-05
2.39785e-05
0.000101076
5.09378e-05
0.000101062
5.09434e-05
0.000228405
0.000228427
0.000228395
0.000228608
0.000228478
0.000228497
0.00022848
0.000147819
0.000105197
0.000225755
0.000212367
0.000147793
0.000105181
0.000225761
2.39707e-05
2.39762e-05
0.000147813
0.000225761
0.000105202
0.00021237
0.000147784
0.000225769
0.000105185
7.86502e-05
7.86493e-05
0.000190001
7.86363e-05
7.86354e-05
0.000101046
5.09417e-05
0.000101035
5.09516e-05
2.3973e-05
2.39805e-05
0.000101047
5.09389e-05
0.000101038
5.09487e-05
0.000228509
0.000228529
0.00022851
0.000228644
0.00022855
0.000228571
0.00022856
0.000147826
0.00010525
0.000225828
0.00021241
0.000147823
0.000105161
0.000225823
2.39706e-05
2.3978e-05
0.000147828
0.000225839
0.000105253
0.000212419
0.000147823
0.000225836
0.000105163
7.86793e-05
7.86792e-05
0.000190049
7.86406e-05
7.86408e-05
0.000101037
5.09447e-05
0.000100972
5.09847e-05
2.39748e-05
2.39934e-05
0.000101037
5.09412e-05
0.000100972
5.0982e-05
0.000228537
0.000228558
0.000228548
0.000227752
0.000227687
0.000227711
0.000227705
0.000147874
0.00010527
0.000225841
0.000212904
0.000147853
0.000105067
0.000225788
2.39722e-05
2.39911e-05
0.00014788
0.000225854
0.000105271
0.000212917
0.000147858
0.000225805
0.000105069
7.86644e-05
7.86648e-05
0.000190305
7.84661e-05
7.84678e-05
0.000110595
5.51047e-05
0.000101799
8.52943e-05
2.70117e-05
4.61714e-05
0.000110597
5.51008e-05
0.000101797
8.52979e-05
0.00023208
0.000232707
0.000232719
0.000229953
0.000233295
0.000233568
0.00023359
0.000152752
0.000107388
0.000229872
0.000213257
0.000148785
0.000109531
0.000227261
2.70097e-05
4.61846e-05
0.000152758
0.000229886
0.000107391
0.000212988
0.000148799
0.000227342
0.000109551
7.83438e-05
7.83456e-05
0.000197333
8.67217e-05
8.66896e-05
2.39018e-05
2.39005e-05
0.000182877
7.81782e-05
7.81768e-05
2.39061e-05
2.39021e-05
2.39048e-05
2.39008e-05
0.000182919
7.82133e-05
7.82117e-05
7.81853e-05
7.81835e-05
0.000100299
5.07734e-05
0.000144918
0.000201292
0.000104101
0.000210746
0.000144934
0.000201292
0.000104102
0.000210747
0.000100285
5.07839e-05
5.07773e-05
0.000100359
0.00010028
5.07844e-05
5.07777e-05
0.000100366
0.000144915
0.000201642
0.000104183
0.000211664
0.000104091
0.000211206
0.00014512
0.000144917
0.000201642
0.000104185
0.000211665
0.000104091
0.000211208
0.000145124
0.000182886
7.818e-05
7.8171e-05
2.39017e-05
2.39053e-05
2.39014e-05
0.000183001
7.82146e-05
7.82078e-05
7.81865e-05
7.81753e-05
2.39059e-05
2.39018e-05
0.000144936
0.000201309
0.0001041
0.00021075
0.000100297
5.0768e-05
0.00014494
0.00020128
0.000210745
0.000104088
0.000100283
5.07807e-05
5.07749e-05
0.000100367
0.000144921
0.00020166
0.000104183
0.000211667
0.000104089
0.000211215
0.00014514
0.000100282
5.07767e-05
5.07707e-05
0.000100365
0.000144919
0.000201631
0.000211664
0.000104169
0.000211207
0.00010408
0.000145127
0.000100296
5.07752e-05
0.000144935
0.000201291
0.000210746
0.000104099
0.000100297
5.07693e-05
0.000144924
0.000201652
0.000104185
0.000211648
0.000104094
0.000211193
0.000145129
0.000100279
5.07854e-05
5.07741e-05
0.000100363
0.000144906
0.00020164
0.000211665
0.00010418
0.000211208
0.000104088
0.000145134
0.000100278
5.07792e-05
5.07734e-05
0.000100365
0.000182883
7.81631e-05
7.81774e-05
2.39007e-05
2.39032e-05
2.38992e-05
0.000182954
7.81969e-05
7.82121e-05
7.81687e-05
7.81847e-05
2.3905e-05
2.3901e-05
0.000144937
0.000201307
0.000210753
0.0001041
0.000100294
5.0769e-05
0.000100295
5.07692e-05
0.00014494
0.000201647
0.000211654
0.000104181
0.000211201
0.000104089
0.000145141
0.000144933
0.000201658
0.000211671
0.000104181
0.000211215
0.00010409
0.000145135
0.000100284
5.07791e-05
5.07731e-05
0.000100357
0.000100286
5.07792e-05
5.07732e-05
0.000100359
2.39003e-05
2.38998e-05
0.000182898
7.82102e-05
7.82099e-05
7.81813e-05
7.81809e-05
2.39045e-05
2.39006e-05
2.3904e-05
2.39001e-05
2.39063e-05
2.39103e-05
2.3905e-05
2.39089e-05
7.82225e-05
7.82204e-05
0.000183794
7.82534e-05
7.82509e-05
2.39143e-05
2.39104e-05
2.39128e-05
2.39091e-05
0.000183851
7.82918e-05
7.82883e-05
7.82626e-05
7.82593e-05
0.000100441
5.07845e-05
0.000100358
5.0795e-05
0.000145348
0.00010418
0.000212099
0.000202677
0.000145137
0.000104273
0.000212548
0.00014535
0.000104179
0.000212099
0.000202675
0.000145137
0.000104271
0.000212548
0.000100434
5.08054e-05
5.07948e-05
0.000100508
0.000100434
5.08031e-05
5.0798e-05
0.000100508
0.000145361
0.000202994
0.000104363
0.00021337
0.000104272
0.000212965
0.00014556
0.000145357
0.00020299
0.000104356
0.000213367
0.000104267
0.000212963
0.00014556
7.82227e-05
7.82142e-05
0.000183809
7.8252e-05
7.8247e-05
2.3906e-05
2.391e-05
2.39133e-05
2.39096e-05
0.000183857
7.82874e-05
7.82838e-05
7.826e-05
7.82523e-05
2.39139e-05
2.39101e-05
0.000145364
0.000104177
0.000212107
0.000202696
0.000145138
0.000104269
0.000212552
0.00010044
5.07802e-05
0.000100361
5.07884e-05
0.000145355
0.000212099
0.000104166
0.000202663
0.000145131
0.000212547
0.000104254
0.000100436
5.08001e-05
5.07947e-05
0.00010051
0.000145364
0.000203013
0.000104357
0.000213374
0.000104267
0.000212973
0.000145577
0.000100434
5.0798e-05
5.07876e-05
0.000100504
0.000145355
0.000202979
0.000213366
0.00010434
0.000212963
0.000104255
0.00014557
0.000100439
5.07846e-05
0.000100359
5.07932e-05
0.00014536
0.000212101
0.000104175
0.000202675
0.000145139
0.000212551
0.000104267
0.000100441
5.07832e-05
0.000100361
5.07889e-05
0.000145362
0.000203008
0.000104357
0.000213377
0.000104271
0.000212959
0.00014556
0.000100431
5.08038e-05
5.07968e-05
0.000100504
0.000145358
0.000202991
0.000213371
0.000104354
0.000212967
0.000104264
0.000145554
0.000100432
5.08e-05
5.07927e-05
0.000100507
7.82064e-05
7.8222e-05
0.000183796
7.82348e-05
7.82511e-05
2.39053e-05
2.39091e-05
2.39111e-05
2.39074e-05
0.000183843
7.82714e-05
7.82889e-05
7.82448e-05
7.8261e-05
2.3913e-05
2.39093e-05
0.000145356
0.000212107
0.000104176
0.000202691
0.000145146
0.000212555
0.000104267
0.000100429
5.07832e-05
0.000100352
5.0789e-05
0.000100434
5.07831e-05
0.000100356
5.07889e-05
0.000145359
0.000203
0.000213379
0.000104355
0.000212963
0.000104265
0.000145572
0.000145357
0.000203007
0.000213374
0.000104351
0.000212971
0.000104263
0.000145567
0.000100422
5.07984e-05
5.0793e-05
0.000100498
0.000100428
5.07981e-05
5.07928e-05
0.000100504
2.39047e-05
2.39085e-05
2.39042e-05
2.3908e-05
0.000183834
7.82863e-05
7.82841e-05
7.82574e-05
7.82566e-05
2.39123e-05
2.39086e-05
2.39119e-05
2.39082e-05
2.39144e-05
2.39181e-05
2.3913e-05
2.39166e-05
7.82991e-05
7.82951e-05
0.000184671
7.8327e-05
7.83224e-05
2.39218e-05
2.39182e-05
2.39202e-05
2.39167e-05
0.000184715
7.83603e-05
7.83539e-05
7.83349e-05
7.83289e-05
0.000100574
5.08068e-05
0.000100502
5.08121e-05
0.000145753
0.000104357
0.000213807
0.000203962
0.000145565
0.00010444
0.000214223
0.000145756
0.000104349
0.000213804
0.000203953
0.000145565
0.000104431
0.000214219
0.000100569
5.08236e-05
5.08134e-05
0.00010063
0.00010057
5.08209e-05
5.08162e-05
0.000100634
0.00014576
0.00020426
0.000104517
0.000214991
0.000104437
0.000214618
0.000145935
0.000145763
0.000204249
0.000104507
0.000214986
0.000104427
0.000214613
0.000145937
7.82942e-05
7.82879e-05
0.000184668
7.83205e-05
7.83178e-05
2.3914e-05
2.39177e-05
2.39207e-05
2.39172e-05
0.000184712
7.83522e-05
7.83497e-05
7.83278e-05
7.83213e-05
2.39213e-05
2.39177e-05
0.000145771
0.000104349
0.000213817
0.000203979
0.000145573
0.000104433
0.000214228
0.000100569
5.07969e-05
0.000100501
5.08069e-05
0.000145748
0.000213805
0.000104335
0.000203941
0.000145566
0.000214218
0.000104413
0.000100571
5.08183e-05
5.08103e-05
0.000100633
0.000145762
0.000204277
0.000104507
0.000214995
0.000104428
0.000214628
0.000145946
0.000100568
5.08135e-05
5.08057e-05
0.000100631
0.000145748
0.000204237
0.000214982
0.000104487
0.000214612
0.000104412
0.000145926
0.00010057
5.08037e-05
0.000100499
5.08115e-05
0.000145747
0.00021381
0.000104347
0.000203955
0.000145556
0.000214225
0.000104428
0.000100568
5.07994e-05
0.000100499
5.08079e-05
0.000145766
0.000204271
0.000104506
0.000214998
0.00010443
0.000214614
0.000145933
0.000100564
5.08199e-05
5.08153e-05
0.00010063
0.000145747
0.000204252
0.000214992
0.000104502
0.00021462
0.000104424
0.000145925
0.00010056
5.08175e-05
5.08072e-05
0.000100629
7.82782e-05
7.82965e-05
0.000184655
7.83033e-05
7.83237e-05
2.39132e-05
2.39168e-05
2.39184e-05
2.39149e-05
0.000184696
7.83362e-05
7.83565e-05
7.83116e-05
7.83306e-05
2.39205e-05
2.39169e-05
0.000145757
0.000213813
0.000104344
0.00020397
0.000145566
0.000214225
0.000104426
0.000100561
5.0802e-05
0.000100491
5.08096e-05
0.000100565
5.08017e-05
0.000100498
5.0809e-05
0.000145763
0.000204261
0.000214996
0.000104507
0.000214615
0.000104427
0.000145939
0.000145751
0.000204267
0.000214991
0.000104498
0.000214621
0.00010442
0.000145927
0.000100552
5.08183e-05
5.08084e-05
0.000100616
0.000100557
5.08176e-05
5.08078e-05
0.000100618
2.39124e-05
2.3916e-05
2.3912e-05
2.39156e-05
0.00018469
7.83511e-05
7.83479e-05
7.83268e-05
7.83244e-05
2.39195e-05
2.3916e-05
2.39191e-05
2.39157e-05
2.39219e-05
2.39253e-05
2.39203e-05
2.39237e-05
7.83668e-05
7.83598e-05
0.000185475
7.83907e-05
7.8383e-05
2.39287e-05
2.39254e-05
2.3927e-05
2.39238e-05
0.000185491
7.84186e-05
7.84108e-05
7.83955e-05
7.83897e-05
0.000100688
5.08246e-05
0.000100628
5.08292e-05
0.000146105
0.000104511
0.000215404
0.000205149
0.000145936
0.000104582
0.000215784
0.000146105
0.0001045
0.000215398
0.000205134
0.000145939
0.000104571
0.000215778
0.000100678
5.08378e-05
5.08303e-05
0.000100737
0.000100682
5.08371e-05
5.08332e-05
0.000100737
0.000146101
0.000205426
0.000104645
0.000216495
0.000104577
0.000216157
0.000146271
0.000146101
0.00020541
0.000104633
0.000216486
0.000104564
0.000216149
0.000146271
7.83585e-05
7.83521e-05
0.000185461
7.83808e-05
7.83788e-05
2.39213e-05
2.39248e-05
2.39276e-05
2.39243e-05
0.000185488
7.84078e-05
7.8406e-05
7.83869e-05
7.83806e-05
2.39281e-05
2.39248e-05
0.000146114
0.000104498
0.000215413
0.000205164
0.00014594
0.000104571
0.000215787
0.000100685
5.08166e-05
0.000100627
5.08234e-05
0.000146096
0.000215395
0.000104481
0.00020512
0.000145932
0.000215772
0.000104549
0.000100684
5.08338e-05
5.08303e-05
0.000100734
0.000146103
0.000205442
0.000104632
0.000216494
0.000104564
0.000216163
0.000146261
0.000100682
5.08311e-05
5.0822e-05
0.000100731
0.000146102
0.000205395
0.000216477
0.000104609
0.000216143
0.000104545
0.000146246
0.000100686
5.08235e-05
0.000100622
5.08292e-05
0.0001461
0.000215406
0.000104496
0.000205136
0.000145929
0.000215785
0.000104567
0.000100681
5.08162e-05
0.000100621
5.08248e-05
0.000146106
0.000205436
0.000104632
0.000216502
0.000104566
0.000216156
0.000146256
0.000100676
5.08358e-05
5.08324e-05
0.00010073
0.000146106
0.000205413
0.000216495
0.00010463
0.000216158
0.000104561
0.000146258
0.000100674
5.08311e-05
5.08275e-05
0.000100729
7.83433e-05
7.83613e-05
0.000185448
7.83647e-05
7.83858e-05
2.39205e-05
2.3924e-05
2.39251e-05
2.39219e-05
0.000185475
7.83905e-05
7.8413e-05
7.83699e-05
7.839e-05
2.39273e-05
2.3924e-05
0.000146098
0.000215404
0.000104489
0.000205148
0.000145925
0.00021578
0.00010456
0.000100667
5.0817e-05
0.000100607
5.08266e-05
0.000100669
5.08165e-05
0.00010061
5.08238e-05
0.000146096
0.000205424
0.000216492
0.000104633
0.000216149
0.000104565
0.000146257
0.000146091
0.000205424
0.000216487
0.00010462
0.000216153
0.000104553
0.000146254
0.000100658
5.08325e-05
5.08251e-05
0.000100715
0.00010066
5.08329e-05
5.08272e-05
0.000100717
2.39196e-05
2.39229e-05
2.39192e-05
2.39225e-05
0.000185464
7.84081e-05
7.8403e-05
7.83875e-05
7.83816e-05
2.39262e-05
2.3923e-05
2.39259e-05
2.39226e-05
2.39288e-05
2.3932e-05
2.39271e-05
2.39303e-05
7.84215e-05
7.84158e-05
0.000186198
7.84428e-05
7.8435e-05
2.3935e-05
2.3932e-05
2.39333e-05
2.39303e-05
0.000186195
7.84646e-05
7.84579e-05
7.84445e-05
7.84397e-05
0.000100782
5.08405e-05
0.000100732
5.08466e-05
0.000146421
0.000104637
0.000216882
0.000206232
0.000146266
0.000104699
0.000217223
0.000146411
0.000104625
0.000216872
0.000206214
0.000146266
0.000104688
0.000217212
0.000100772
5.08546e-05
5.08456e-05
0.000100817
0.000100777
5.08525e-05
5.0845e-05
0.00010082
0.000146411
0.000206488
0.000104751
0.000217872
0.000104691
0.000217571
0.000146551
0.000146411
0.00020647
0.000104741
0.00021786
0.000104681
0.000217558
0.000146543
7.84127e-05
7.84068e-05
0.000186183
7.84321e-05
7.84306e-05
2.39281e-05
2.39314e-05
2.39339e-05
2.39309e-05
0.000186199
7.84557e-05
7.84503e-05
7.84368e-05
7.84314e-05
2.39345e-05
2.39314e-05
0.000146393
0.000104622
0.000216884
0.000206245
0.000146257
0.000104686
0.000217217
0.000100773
5.08297e-05
0.000100727
5.08363e-05
0.000146389
0.000216862
0.000104602
0.000206193
0.000146253
0.000217199
0.000104662
0.000100769
5.08503e-05
5.08414e-05
0.000100817
0.000146396
0.000206502
0.000104738
0.000217862
0.000104677
0.000217567
0.000146524
0.00010077
5.08429e-05
5.08399e-05
0.000100811
0.000146396
0.000206448
0.000217843
0.000104714
0.000217544
0.000104656
0.00014652
0.000100774
5.08391e-05
0.000100724
5.08444e-05
0.000146408
0.000216883
0.000104623
0.000206216
0.000146266
0.000217222
0.000104685
0.000100773
5.08345e-05
0.000100724
5.08383e-05
0.000146415
0.000206501
0.000104741
0.00021788
0.000104681
0.000217571
0.000146543
0.000100766
5.08522e-05
5.08471e-05
0.000100816
0.000146414
0.000206473
0.000217871
0.000104738
0.000217571
0.000104679
0.00014654
0.000100768
5.08452e-05
5.08423e-05
0.000100811
7.83961e-05
7.84155e-05
0.000186165
7.84162e-05
7.84365e-05
2.39274e-05
2.39305e-05
2.39313e-05
2.39283e-05
0.000186179
7.84387e-05
7.84589e-05
7.84172e-05
7.84387e-05
2.39336e-05
2.39306e-05
0.000146399
0.000216873
0.000104611
0.000206221
0.000146248
0.000217209
0.000104673
0.000100756
5.08354e-05
0.000100706
5.08407e-05
0.000100758
5.08321e-05
0.000100708
5.08386e-05
0.000146392
0.000206484
0.000217861
0.00010474
0.000217554
0.00010468
0.000146529
0.000146388
0.000206478
0.000217854
0.000104725
0.000217556
0.000104665
0.000146519
0.000100747
5.08484e-05
5.08434e-05
0.000100793
0.000100747
5.08453e-05
5.08421e-05
0.000100794
2.39263e-05
2.39294e-05
2.39259e-05
2.3929e-05
0.000186163
7.84556e-05
7.84489e-05
7.84354e-05
7.84287e-05
2.39324e-05
2.39294e-05
2.3932e-05
2.3929e-05
2.3935e-05
2.39379e-05
2.39333e-05
2.39363e-05
7.8465e-05
7.84604e-05
0.000186833
7.84838e-05
7.8479e-05
2.39407e-05
2.39379e-05
2.39391e-05
2.39362e-05
0.000186831
7.85004e-05
7.84972e-05
7.84836e-05
7.84792e-05
0.000100855
5.08549e-05
0.000100815
5.08604e-05
0.000146669
0.000104741
0.000218232
0.000207209
0.00014655
0.000104796
0.000218533
0.000146671
0.000104732
0.000218219
0.000207189
0.00014655
0.000104788
0.000218521
0.000100847
5.08671e-05
5.08587e-05
0.000100883
0.000100849
5.08667e-05
5.08584e-05
0.000100885
0.000146672
0.000207448
0.00010484
0.000219123
0.000104787
0.000218857
0.000146782
0.000146672
0.000207427
0.000104833
0.00021911
0.000104779
0.000218843
0.000146785
7.84569e-05
7.84547e-05