/*--------------------------------*- C++ -*----------------------------------*\
| =========                 |                                                 |
| \\      /  F ield         | OpenFOAM: The Open Source CFD Toolbox           |
|  \\    /   O peration     | Version:  v1906                                 |
|   \\  /    A nd           | Web:      www.OpenFOAM.com                      |
|    \\/     M anipulation  |                                                 |
\*---------------------------------------------------------------------------*/
FoamFile
{
    version     2.0;
    format      ascii;
    class       volScalarField;
    location    "900";
    object      nut;
}
// * * * * * * * * * * * * * * * * * * * * * * * * * * * * * * * * * * * * * //

dimensions      [0 2 -1 0 0 0 0];


internalField   nonuniform List<scalar> 
43024
(
0.00020834
0.000201475
0.000201466
0.000182508
0.000210637
0.000202718
0.000202709
0.000183307
0.000212826
0.000203883
0.000203874
0.000184075
0.000214905
0.000204971
0.000204962
0.000184786
0.000216875
0.000205984
0.000205975
0.000185436
0.000218735
0.000206922
0.000206913
0.000185995
0.000220486
0.000207781
0.000207771
0.000186535
0.00022213
0.000208567
0.000208557
0.000187023
0.000223669
0.000209282
0.000209271
0.000187459
0.000225105
0.000209925
0.000209914
0.000187844
0.000226441
0.000210498
0.000210487
0.000188179
0.000227678
0.000211005
0.000210994
0.000188478
0.000228813
0.000211448
0.000211435
0.000188721
0.00022984
0.000211837
0.000211822
0.000188909
0.000230773
0.000212169
0.000212153
0.000189064
0.000231617
0.000212444
0.000212425
0.000189178
0.000232374
0.000212665
0.000212641
0.000189252
0.000233046
0.000212834
0.000212805
0.000189287
0.000233624
0.000212952
0.000212928
0.000189285
0.000234126
0.000212917
0.000212899
0.000189245
0.000236317
0.000214335
0.000214285
0.000192699
0.000182434
0.000201117
0.000201118
0.000182386
0.000201131
0.000201106
0.00020115
0.000201125
0.000182373
0.000201141
0.000201139
0.000182369
0.000182434
0.000183259
0.000201442
0.000201443
0.000202378
0.000202379
0.000182488
0.000183261
0.000201458
0.000201432
0.000202393
0.000202367
0.000201451
0.000202411
0.000202386
0.000182476
0.000183248
0.000201465
0.000202402
0.000202401
0.000183241
0.000183285
0.000184042
0.000202685
0.000202686
0.000203561
0.000203561
0.000183305
0.000184046
0.000202701
0.000202674
0.000203576
0.000203549
0.000202693
0.000203593
0.000203569
0.000183293
0.000184033
0.000202708
0.000203585
0.000203584
0.000184038
0.000184059
0.00018478
0.000203851
0.000203851
0.000204666
0.000204666
0.000184074
0.000184761
0.000203867
0.000203839
0.000204681
0.000204654
0.000203858
0.000204698
0.000204673
0.000184061
0.000184748
0.000203874
0.000204689
0.000204689
0.000184753
0.000184751
0.000185457
0.000204939
0.000204939
0.000205692
0.000205692
0.000184788
0.000185425
0.000204956
0.000204927
0.000205708
0.00020568
0.000204947
0.000205725
0.000205699
0.000184775
0.000185412
0.000204963
0.000205716
0.000205716
0.00018542
0.000185394
0.00018607
0.000205952
0.000205952
0.000206642
0.000206642
0.000185443
0.000186039
0.000205968
0.000205939
0.000206658
0.000206629
0.000205959
0.000206674
0.000206649
0.00018543
0.000186026
0.000205975
0.000206665
0.000206665
0.000186077
0.000185993
0.000186627
0.000206891
0.00020689
0.000207522
0.000207521
0.00018604
0.000186597
0.000206908
0.000206877
0.000207538
0.000207509
0.000206898
0.000207554
0.000207529
0.000186027
0.000186584
0.000206914
0.000207545
0.000207546
0.000186632
0.000186537
0.000187131
0.000207748
0.000207748
0.000208329
0.000208328
0.000186582
0.0001871
0.000207765
0.000207735
0.000208345
0.000208315
0.000207756
0.00020836
0.000208335
0.000186569
0.000187087
0.000207772
0.000208352
0.000208352
0.000187134
0.000187026
0.00018758
0.000208534
0.000208533
0.000209064
0.000209063
0.000187071
0.00018755
0.000208551
0.000208521
0.00020908
0.000209049
0.000208542
0.000209095
0.00020907
0.000187057
0.000187537
0.000208558
0.000209086
0.000209087
0.000187583
0.000187461
0.000187978
0.000209249
0.000209248
0.000209729
0.000209728
0.000187506
0.000187948
0.000209266
0.000209235
0.000209746
0.000209715
0.000209256
0.000209761
0.000209735
0.000187493
0.000187934
0.000209272
0.000209752
0.000209752
0.000187981
0.000187846
0.000188326
0.000209892
0.000209891
0.000210329
0.000210328
0.00018789
0.000188296
0.000209909
0.000209877
0.000210346
0.000210314
0.000209899
0.000210361
0.000210336
0.000187877
0.000188325
0.000209916
0.000210352
0.000210353
0.00018833
0.00018818
0.000188611
0.000210465
0.000210463
0.000210865
0.000210865
0.000188224
0.000188622
0.000210482
0.00021045
0.000210882
0.000210852
0.000210472
0.000210899
0.000210873
0.000188172
0.000188636
0.000210488
0.000210889
0.00021089
0.000188645
0.000188497
0.000188875
0.000210973
0.00021097
0.000211338
0.000211337
0.000188479
0.000188905
0.00021099
0.000210956
0.000211356
0.000211324
0.000210979
0.000211371
0.000211346
0.000188472
0.000188885
0.000210995
0.000211362
0.000211363
0.000188892
0.000188745
0.000189023
0.000211413
0.00021141
0.00021174
0.000211738
0.00018873
0.000189079
0.00021143
0.000211397
0.000211757
0.000211724
0.00021142
0.000211771
0.000211746
0.000188721
0.000189066
0.000211436
0.000211763
0.000211763
0.000189082
0.000188968
0.000189184
0.000211799
0.000211797
0.000212082
0.000212079
0.000188932
0.000189224
0.000211817
0.000211784
0.000212099
0.000212065
0.000211807
0.000212111
0.000212088
0.000188921
0.00018921
0.000211823
0.000212104
0.000212105
0.000189216
0.000189093
0.000189306
0.000212129
0.000212127
0.000212365
0.000212362
0.000189077
0.000189335
0.000212147
0.000212114
0.000212383
0.000212348
0.000212136
0.000212392
0.000212371
0.000189065
0.000189321
0.000212153
0.000212388
0.000212388
0.000189323
0.000189187
0.000189387
0.000212401
0.000212398
0.000212593
0.00021259
0.000189193
0.0001894
0.000212419
0.000212385
0.000212611
0.000212577
0.000212407
0.000212617
0.000212599
0.00018918
0.000189386
0.000212424
0.000212617
0.000212616
0.00018939
0.000189257
0.000189424
0.000212617
0.000212614
0.00021277
0.000212767
0.000189264
0.000189433
0.000212635
0.000212601
0.000212788
0.000212754
0.000212623
0.00021279
0.000212776
0.00018925
0.000189419
0.00021264
0.000212795
0.000212793
0.000189425
0.000189289
0.000189425
0.00021278
0.000212776
0.000212898
0.000212894
0.000189297
0.000189433
0.000212799
0.000212764
0.000212916
0.000212881
0.000212786
0.000212916
0.000212903
0.000189283
0.000189418
0.000212802
0.000212921
0.00021292
0.000189424
0.000189287
0.000189418
0.000212902
0.000212898
0.0002131
0.000213097
0.000189295
0.000189426
0.00021292
0.000212885
0.000213119
0.000213086
0.000212907
0.000213124
0.000213107
0.000189281
0.000189412
0.000212924
0.000213125
0.000213124
0.000189419
0.000189248
0.000190669
0.000212874
0.000212871
0.000215483
0.000215487
0.000189256
0.000190669
0.000212893
0.000212856
0.000215502
0.000215476
0.000212878
0.000215498
0.000215495
0.000189239
0.00019075
0.000212896
0.000215503
0.000215512
0.000190764
0.000192779
0.000214315
0.000214312
0.000192785
0.000214331
0.000214262
0.000236319
0.000236314
0.000236326
0.00021427
0.000192708
0.000214285
9.98295e-05
5.07442e-05
2.38927e-05
9.98423e-05
5.07412e-05
0.000207746
0.000207755
0.000207752
0.000207761
0.000144122
0.000200489
0.000103591
0.000210017
2.38905e-05
0.000144111
0.00020048
0.000210014
0.000103592
0.000181932
7.78985e-05
7.78974e-05
9.99325e-05
5.07532e-05
9.9882e-05
5.07636e-05
2.38974e-05
2.39016e-05
9.99447e-05
5.07501e-05
9.9889e-05
5.07605e-05
0.000208348
0.000208346
0.000208355
0.000210069
0.000210078
0.000210075
0.000210084
0.000144494
0.000103656
0.00021132
0.00020179
0.000144313
0.000103727
0.000211738
2.38953e-05
2.38994e-05
0.000144476
0.000211316
0.000103658
0.000201781
0.000144315
0.000211735
0.000103729
7.79316e-05
7.79302e-05
0.000182797
7.79515e-05
7.79507e-05
0.000100022
5.0772e-05
9.99777e-05
5.07819e-05
2.39061e-05
2.39101e-05
0.000100034
5.07688e-05
9.99844e-05
5.07788e-05
0.000210645
0.000210643
0.000210652
0.000212284
0.000212292
0.000212289
0.000212298
0.00014483
0.000103784
0.000212972
0.000203012
0.000144666
0.000103848
0.000213366
2.39039e-05
2.39079e-05
0.000144811
0.00021297
0.000103786
0.000203003
0.00014467
0.000213363
0.000103849
7.79791e-05
7.79791e-05
0.000183645
7.79997e-05
7.79971e-05
0.000100098
5.07897e-05
0.00010006
5.07993e-05
2.39145e-05
2.39183e-05
0.00010011
5.07866e-05
0.000100066
5.07962e-05
0.000212834
0.000212831
0.00021284
0.000214389
0.000214397
0.000214394
0.000214403
0.000145136
0.000103896
0.000214532
0.000204155
0.00014498
0.000103954
0.0002149
2.39123e-05
2.39161e-05
0.000145114
0.00021453
0.000103898
0.000204146
0.000144989
0.000214898
0.000103955
7.80208e-05
7.8021e-05
0.000184404
7.80394e-05
7.80368e-05
0.000100162
5.08065e-05
0.000100129
5.08156e-05
2.39225e-05
2.39262e-05
0.000100173
5.08033e-05
0.000100135
5.08125e-05
0.000214913
0.00021491
0.000214919
0.000216385
0.000216392
0.000216389
0.000216398
0.000145409
0.000103993
0.000216
0.000205221
0.000145266
0.000104045
0.000216343
2.39203e-05
2.3924e-05
0.000145386
0.000215998
0.000103996
0.000205212
0.000145274
0.00021634
0.000104046
7.80559e-05
7.80562e-05
0.000185091
7.80725e-05
7.80699e-05
0.000100214
5.08223e-05
0.000100185
5.0831e-05
2.39302e-05
2.39338e-05
0.000100223
5.08191e-05
0.000100191
5.08279e-05
0.000216882
0.000216879
0.000216888
0.000218271
0.000218278
0.000218275
0.000218284
0.000145646
0.000104076
0.000217379
0.000206209
0.00014552
0.000104121
0.000217694
2.3928e-05
2.39316e-05
0.000145625
0.000217376
0.000104079
0.0002062
0.000145526
0.000217691
0.000104123
7.80846e-05
7.80847e-05
0.000185741
7.80993e-05
7.80978e-05
0.000100253
5.08371e-05
0.000100229
5.08454e-05
2.39376e-05
2.3941e-05
0.00010026
5.08339e-05
0.000100235
5.08423e-05
0.000218742
0.000218738
0.000218748
0.000220049
0.000220056
0.000220052
0.000220061
0.00014585
0.000104145
0.000218668
0.000207123
0.000145741
0.000104185
0.000218955
2.39353e-05
2.39388e-05
0.000145832
0.000218665
0.000104148
0.000207114
0.000145743
0.000218952
0.000104186
7.81072e-05
7.81061e-05
0.000186369
7.81198e-05
7.81187e-05
0.00010028
5.08509e-05
0.00010026
5.08589e-05
2.39446e-05
2.39478e-05
0.000100287
5.08478e-05
0.000100267
5.08557e-05
0.000220493
0.000220489
0.000220498
0.000221718
0.000221725
0.00022172
0.00022173
0.000146023
0.0001042
0.00021987
0.000207966
0.000145932
0.000104234
0.000220126
2.39423e-05
2.39456e-05
0.000146012
0.000219867
0.000104203
0.000207958
0.000145928
0.000220122
0.000104236
7.81241e-05
7.81228e-05
0.000186898
7.81324e-05
7.81334e-05
0.000100296
5.08638e-05
0.00010028
5.08714e-05
2.39512e-05
2.39543e-05
0.000100303
5.08606e-05
0.000100287
5.08682e-05
0.000222137
0.000222132
0.000222142
0.00022328
0.000223286
0.000223281
0.000223291
0.000146174
0.000104243
0.000220984
0.000208736
0.000146089
0.00010427
0.000221215
2.39489e-05
2.39521e-05
0.000146161
0.000220979
0.000104245
0.000208728
0.000146081
0.000221212
0.000104273
7.81353e-05
7.81336e-05
0.000187373
7.81421e-05
7.81415e-05
0.000100302
5.08756e-05
0.000100289
5.08829e-05
2.39575e-05
2.39605e-05
0.000100309
5.08724e-05
0.000100297
5.08795e-05
0.000223676
0.000223671
0.00022368
0.000224734
0.00022474
0.000224735
0.000224745
0.000146295
0.000104273
0.000222006
0.000209437
0.000146219
0.000104295
0.000222221
2.39552e-05
2.39583e-05
0.000146281
0.000222
0.000104274
0.000209428
0.000146211
0.000222218
0.000104297
7.81395e-05
7.81382e-05
0.000187796
7.81452e-05
7.81441e-05
0.000100298
5.08864e-05
0.000100289
5.08934e-05
2.39633e-05
2.39663e-05
0.000100305
5.0883e-05
0.000100297
5.08901e-05
0.000225111
0.000225106
0.000225115
0.000226082
0.000226088
0.000226083
0.000226094
0.000146389
0.000104289
0.000222944
0.000210069
0.000146321
0.000104307
0.000223145
2.39611e-05
2.39641e-05
0.000146374
0.000222938
0.00010429
0.00021006
0.000146314
0.000223141
0.000104308
7.81384e-05
7.81373e-05
0.000188168
7.81425e-05
7.81413e-05
0.000100286
5.08962e-05
0.00010028
5.09031e-05
2.39688e-05
2.39717e-05
0.000100293
5.08929e-05
0.000100287
5.08998e-05
0.000226447
0.000226441
0.00022645
0.000227326
0.000227333
0.000227326
0.000227338
0.000146457
0.000104294
0.000223799
0.000210638
0.000146398
0.000104307
0.000223989
2.39666e-05
2.39695e-05
0.000146442
0.000223793
0.000104296
0.000210629
0.000146391
0.000223984
0.000104308
7.81325e-05
7.81314e-05
0.000188503
7.81346e-05
7.81334e-05
0.000100265
5.09053e-05
0.000100262
5.09112e-05
2.3974e-05
2.39768e-05
0.000100272
5.0902e-05
0.00010027
5.09079e-05
0.000227684
0.000227677
0.000227686
0.000228478
0.000228484
0.000228477
0.000228489
0.000146499
0.000104287
0.000224571
0.000211143
0.000146452
0.000104296
0.000224758
2.39717e-05
2.39746e-05
0.000146484
0.000224564
0.00010429
0.000211133
0.000146445
0.000224752
0.000104297
7.8122e-05
7.81209e-05
0.00018878
7.81219e-05
7.81207e-05
0.000100235
5.09141e-05
0.000100236
5.09182e-05
2.39787e-05
2.39815e-05
0.000100243
5.09109e-05
0.000100244
5.0915e-05
0.000228819
0.000228812
0.000228821
0.000229539
0.000229545
0.000229538
0.000229549
0.000146518
0.00010427
0.000225264
0.000211578
0.00014648
0.000104274
0.000225449
2.39765e-05
2.39793e-05
0.000146502
0.000225258
0.000104272
0.000211569
0.000146473
0.000225442
0.000104275
7.81073e-05
7.81061e-05
0.000188996
7.81047e-05
7.81034e-05
0.000100196
5.09216e-05
0.000100201
5.09249e-05
2.39831e-05
2.3986e-05
0.000100207
5.09184e-05
0.000100208
5.09216e-05
0.000229847
0.000229839
0.00022985
0.000230512
0.000230519
0.00023051
0.000230522
0.000146513
0.000104242
0.000225882
0.000211949
0.000146481
0.000104242
0.000226059
2.39808e-05
2.39838e-05
0.000146495
0.000225873
0.000104244
0.000211941
0.000146474
0.000226056
0.000104243
7.80885e-05
7.80873e-05
0.000189151
7.80829e-05
7.80817e-05
0.00010015
5.09277e-05
0.000100157
5.09308e-05
2.3987e-05
2.39902e-05
0.00010016
5.09245e-05
0.000100164
5.09276e-05
0.000230778
0.000230772
0.000230781
0.000231395
0.000231406
0.000231394
0.000231408
0.000146485
0.000104206
0.000226427
0.000212259
0.000146457
0.000104201
0.000226589
2.39847e-05
2.3988e-05
0.000146463
0.000226415
0.000104208
0.000212253
0.000146453
0.000226586
0.000104202
7.80663e-05
7.8065e-05
0.000189272
7.80571e-05
7.80558e-05
0.000100095
5.09328e-05
0.000100104
5.09362e-05
2.39904e-05
2.39942e-05
0.000100104
5.09296e-05
0.000100111
5.0933e-05
0.000231619
0.000231615
0.000231622
0.000232191
0.000232204
0.000232189
0.000232206
0.00014643
0.000104164
0.000226908
0.000212512
0.000146409
0.000104151
0.000227053
2.39882e-05
2.39921e-05
0.000146412
0.000226898
0.000104166
0.000212509
0.000146409
0.000227048
0.000104152
7.80417e-05
7.80404e-05
0.00018936
7.80275e-05
7.80262e-05
0.000100029
5.0937e-05
0.000100042
5.09412e-05
2.39933e-05
2.39982e-05
0.00010004
5.09338e-05
0.000100048
5.0938e-05
0.000232373
0.000232372
0.000232376
0.000232906
0.000232915
0.000232903
0.000232918
0.000146354
0.000104118
0.00022732
0.00021271
0.000146346
0.000104093
0.000227452
2.39911e-05
2.3996e-05
0.000146343
0.000227313
0.00010412
0.000212711
0.000146344
0.000227444
0.000104094
7.80161e-05
7.80148e-05
0.000189412
7.7995e-05
7.79936e-05
9.99515e-05
5.09402e-05
9.99678e-05
5.09464e-05
2.39958e-05
2.40021e-05
9.9962e-05
5.09372e-05
9.99734e-05
5.09434e-05
0.000233047
0.000233043
0.00023305
0.000233532
0.000233537
0.000233529
0.000233538
0.000146246
0.000104078
0.000227671
0.000212857
0.000146281
0.000104032
0.000227786
2.39936e-05
2.39999e-05
0.000146236
0.000227663
0.00010408
0.000212863
0.000146274
0.000227778
0.000104033
7.79928e-05
7.79915e-05
0.000189429
7.79631e-05
7.79617e-05
9.98485e-05
5.09424e-05
9.9868e-05
5.09529e-05
2.39978e-05
2.4006e-05
9.98557e-05
5.09397e-05
9.98761e-05
5.09501e-05
0.000233629
0.000233621
0.000233631
0.000234096
0.000234101
0.000234095
0.000234104
0.000146129
0.000104052
0.000227959
0.00021297
0.000146175
0.000103934
0.000228066
2.39956e-05
2.40038e-05
0.000146121
0.00022795
0.000104051
0.000212973
0.000146167
0.000228059
0.000103931
7.79798e-05
7.79788e-05
0.000189413
7.79263e-05
7.79253e-05
9.97604e-05
5.09464e-05
9.97248e-05
5.09869e-05
2.40015e-05
2.40209e-05
9.97659e-05
5.09432e-05
9.97321e-05
5.09844e-05
0.00023413
0.00023412
0.000234129
0.000233723
0.000233731
0.000233724
0.000233733
0.000146058
0.000103991
0.000228261
0.000213598
0.000146081
0.000103759
0.00022805
2.39992e-05
2.40188e-05
0.00014605
0.000228254
0.000103987
0.000213602
0.000146073
0.000228043
0.000103756
7.79231e-05
7.79221e-05
0.000189689
7.77111e-05
7.77114e-05
0.000108435
5.50866e-05
0.000100115
8.49377e-05
2.70396e-05
4.59521e-05
0.000108436
5.50834e-05
0.000100118
8.50811e-05
0.00025113
0.000243695
0.000243696
0.000235601
0.000250959
0.000244518
0.00024452
0.000149967
0.000105573
0.000232584
0.000213902
0.00014704
0.000108552
0.00023102
2.70376e-05
4.59658e-05
0.000149955
0.000232578
0.00010578
0.000214172
0.000147043
0.000230964
0.000108572
7.71832e-05
7.71756e-05
0.000196813
8.55941e-05
8.57892e-05
2.38934e-05
2.3892e-05
0.000182002
7.79024e-05
7.78964e-05
2.38979e-05
2.38936e-05
2.38965e-05
2.38923e-05
0.000181981
7.79298e-05
7.79241e-05
7.79054e-05
7.79029e-05
9.98327e-05
5.07425e-05
0.000144103
0.000200457
0.000103591
0.000210001
0.000144106
0.000200458
0.000103589
0.000210004
9.98293e-05
5.0754e-05
5.07436e-05
9.98829e-05
9.98325e-05
5.07523e-05
5.07464e-05
9.98859e-05
0.000144128
0.000200791
0.000103661
0.000210874
0.000103587
0.000210444
0.000144295
0.00014413
0.000200793
0.00010366
0.000210877
0.000103585
0.000210447
0.000144297
0.000181944
7.78981e-05
7.7894e-05
2.38933e-05
2.38972e-05
2.3893e-05
0.000182077
7.79256e-05
7.79213e-05
7.7902e-05
7.78996e-05
2.38977e-05
2.38936e-05
0.000144109
0.000200471
0.000103583
0.000210001
9.98383e-05
5.07349e-05
0.000144105
0.000200447
0.000210001
0.00010357
9.98362e-05
5.0751e-05
5.07404e-05
9.9896e-05
0.000144134
0.000200806
0.000103654
0.000210874
0.000103578
0.000210448
0.000144301
9.9832e-05
5.07447e-05
5.07388e-05
9.98913e-05
0.00014413
0.000200781
0.000210873
0.00010364
0.000210443
0.000103566
0.000144297
9.98373e-05
5.07418e-05
0.00014411
0.000200466
0.000210014
0.000103589
9.98317e-05
5.07382e-05
0.000144123
0.000200824
0.000103661
0.000210889
0.000103586
0.000210458
0.000144313
9.98301e-05
5.07515e-05
5.07455e-05
9.98904e-05
0.000144131
0.0002008
0.000210886
0.000103659
0.000210455
0.000103586
0.000144301
9.98306e-05
5.0748e-05
5.07421e-05
9.98847e-05
0.000181931
7.78817e-05
7.79001e-05
2.38924e-05
2.3895e-05
2.38908e-05
0.000182063
7.79092e-05
7.79277e-05
7.78875e-05
7.79061e-05
2.38969e-05
2.38928e-05
0.000144108
0.00020048
0.000210014
0.000103588
9.983e-05
5.07381e-05
9.98351e-05
5.07406e-05
0.000144122
0.000200815
0.000210886
0.000103663
0.000210455
0.000103588
0.000144296
0.000144132
0.000200815
0.000210887
0.000103658
0.000210456
0.000103584
0.000144299
9.98264e-05
5.0748e-05
5.0742e-05
9.98808e-05
9.9834e-05
5.07503e-05
5.07399e-05
9.98867e-05
2.38921e-05
2.38918e-05
0.000182064
7.79259e-05
7.79249e-05
7.79047e-05
7.79033e-05
2.38966e-05
2.38925e-05
2.38962e-05
2.3892e-05
2.38981e-05
2.39023e-05
2.38968e-05
2.39009e-05
7.79327e-05
7.79297e-05
0.000182845
7.79556e-05
7.795e-05
2.39066e-05
2.39024e-05
2.39052e-05
2.39011e-05
0.000182871
7.79796e-05
7.79741e-05
7.79581e-05
7.7955e-05
9.99359e-05
5.07559e-05
9.9885e-05
5.07618e-05
0.000144478
0.000103657
0.000211305
0.000201758
0.000144316
0.000103728
0.000211724
0.000144481
0.000103655
0.000211308
0.000201758
0.000144319
0.000103726
0.000211726
9.9931e-05
5.07728e-05
5.07628e-05
9.99792e-05
9.99344e-05
5.07711e-05
5.07655e-05
9.99823e-05
0.000144497
0.000202073
0.000103791
0.00021255
0.000103723
0.000212144
0.00014465
0.0001445
0.000202075
0.000103788
0.000212552
0.000103721
0.000212146
0.000144654
7.79291e-05
7.79264e-05
0.000182839
7.79517e-05
7.7947e-05
2.3898e-05
2.39021e-05
2.39059e-05
2.39018e-05
0.000182905
7.79743e-05
7.7971e-05
7.79545e-05
7.79516e-05
2.39064e-05
2.39024e-05
0.000144484
0.000103649
0.000211309
0.000201772
0.000144322
0.00010372
0.000211724
9.99409e-05
5.07483e-05
9.98846e-05
5.07542e-05
0.00014448
0.000211304
0.000103636
0.000201747
0.000144318
0.000211722
0.000103706
9.99378e-05
5.07698e-05
5.07596e-05
9.99919e-05
0.000144503
0.000202089
0.000103783
0.00021255
0.000103714
0.000212148
0.000144655
9.99339e-05
5.07635e-05
5.07579e-05
9.99871e-05
0.000144499
0.000202063
0.000212548
0.000103769
0.000212143
0.000103702
0.000144651
9.99399e-05
5.07551e-05
9.98832e-05
5.07609e-05
0.000144483
0.000211316
0.000103655
0.000201766
0.000144319
0.000211735
0.000103725
9.99345e-05
5.07516e-05
9.98833e-05
5.07574e-05
0.000144494
0.000202106
0.00010379
0.000212564
0.000103722
0.000212158
0.000144668
9.99325e-05
5.07703e-05
5.07647e-05
9.99862e-05
0.000144501
0.000202082
0.000212561
0.000103788
0.000212155
0.000103722
0.000144655
9.99325e-05
5.07668e-05
5.07611e-05
9.99807e-05
7.79145e-05
7.7933e-05
0.000182827
7.7935e-05
7.79535e-05
2.38972e-05
2.39013e-05
2.39037e-05
2.38996e-05
0.000182892
7.79592e-05
7.79775e-05
7.79398e-05
7.79584e-05
2.39056e-05
2.39016e-05
0.000144481
0.000211318
0.000103654
0.000201781
0.00014432
0.000211736
0.000103725
9.9929e-05
5.07515e-05
9.98777e-05
5.07574e-05
9.99352e-05
5.07497e-05
9.9885e-05
5.07599e-05
0.000144495
0.000202097
0.000212561
0.000103791
0.000212154
0.000103723
0.00014465
0.0001445
0.000202097
0.000212562
0.000103787
0.000212156
0.00010372
0.000144653
9.99257e-05
5.07668e-05
5.07611e-05
9.99742e-05
9.9933e-05
5.07692e-05
5.07591e-05
9.99803e-05
2.38969e-05
2.3901e-05
2.38965e-05
2.39006e-05
0.000182923
7.79771e-05
7.79746e-05
7.79568e-05
7.79556e-05
2.39053e-05
2.39013e-05
2.39049e-05
2.39009e-05
2.39067e-05
2.39108e-05
2.39054e-05
2.39094e-05
7.79817e-05
7.79785e-05
0.000183658
7.8002e-05
7.79965e-05
2.39149e-05
2.39109e-05
2.39136e-05
2.39096e-05
0.000183679
7.80227e-05
7.80172e-05
7.80034e-05
7.80003e-05
0.000100026
5.07746e-05
9.99809e-05
5.07801e-05
0.000144811
0.000103785
0.000212959
0.00020298
0.00014467
0.000103849
0.000213352
0.000144815
0.000103783
0.000212962
0.00020298
0.000144674
0.000103847
0.000213355
0.00010002
5.07907e-05
5.0781e-05
0.000100062
0.000100023
5.0789e-05
5.07837e-05
0.000100065
0.000144831
0.000203278
0.000103904
0.000214132
0.000103843
0.000213751
0.000144967
0.000144835
0.000203278
0.000103902
0.000214135
0.000103841
0.000213754
0.00014497
7.79787e-05
7.79751e-05
0.00018366
7.7997e-05
7.79931e-05
2.39067e-05
2.39106e-05
2.39143e-05
2.39104e-05
0.000183697
7.80176e-05
7.80138e-05
7.80007e-05
7.79969e-05
2.39148e-05
2.39109e-05
0.000144815
0.000103776
0.000212963
0.000202995
0.000144675
0.000103841
0.000213352
0.00010003
5.0767e-05
9.998e-05
5.07725e-05
0.000144812
0.000212958
0.000103764
0.000202968
0.000144671
0.000213351
0.000103828
0.000100026
5.07876e-05
5.07779e-05
0.000100074
0.000144835
0.000203294
0.000103896
0.000214132
0.000103835
0.000213754
0.00014497
0.000100022
5.07814e-05
5.07761e-05
0.000100069
0.000144832
0.000203266
0.00021413
0.000103882
0.000213749
0.000103822
0.000144966
0.000100029
5.07739e-05
9.99784e-05
5.07793e-05
0.000144818
0.00021297
0.000103783
0.000202987
0.000144675
0.000213364
0.000103846
0.000100024
5.07703e-05
9.99787e-05
5.07758e-05
0.000144822
0.00020331
0.000103903
0.000214145
0.000103841
0.000213763
0.000144992
0.000100021
5.07881e-05
5.07829e-05
0.000100069
0.000144837
0.000203286
0.000214143
0.000103902
0.000213762
0.000103841
0.000144971
0.000100021
5.07846e-05
5.07794e-05
0.000100063
7.79634e-05
7.79818e-05
0.000183647
7.79813e-05
7.79998e-05
2.39059e-05
2.39098e-05
2.39121e-05
2.39082e-05
0.000183684
7.8002e-05
7.80204e-05
7.79852e-05
7.80035e-05
2.3914e-05
2.39101e-05
0.000144814
0.000212971
0.000103782
0.000203003
0.000144673
0.000213364
0.000103845
0.000100017
5.07702e-05
9.9971e-05
5.07757e-05
0.000100023
5.07684e-05
9.99782e-05
5.07783e-05
0.000144831
0.000203301
0.000214142
0.000103904
0.000213761
0.000103844
0.000144968
0.000144834
0.000203301
0.000214143
0.0001039
0.000213762
0.00010384
0.000144969
0.000100013
5.07846e-05
5.07793e-05
0.000100056
0.00010002
5.0787e-05
5.07773e-05
0.000100061
2.39056e-05
2.39096e-05
2.39051e-05
2.39092e-05
0.000183701
7.80203e-05
7.80177e-05
7.80009e-05
7.8001e-05
2.39137e-05
2.39098e-05
2.39133e-05
2.39094e-05
2.39151e-05
2.3919e-05
2.39138e-05
2.39177e-05
7.80235e-05
7.80204e-05
0.000184415
7.80417e-05
7.80362e-05
2.3923e-05
2.39191e-05
2.39216e-05
2.39178e-05
0.000184417
7.80591e-05
7.80536e-05
7.80419e-05
7.80388e-05
0.000100102
5.07924e-05
0.000100063
5.07975e-05
0.000145114
0.000103898
0.00021452
0.000204123
0.000144988
0.000103955
0.000214888
0.000145118
0.000103896
0.000214523
0.000204123
0.000144992
0.000103953
0.000214891
0.000100095
5.08075e-05
5.07983e-05
0.000100132
0.000100099
5.08058e-05
5.0801e-05
0.000100135
0.000145133
0.000204404
0.000104002
0.000215622
0.000103948
0.000215266
0.000145255
0.000145137
0.000204405
0.000104
0.000215624
0.000103947
0.000215268
0.000145259
7.80207e-05
7.8017e-05
0.000184413
7.80366e-05
7.80325e-05
2.3915e-05
2.39189e-05
2.39223e-05
2.39186e-05
0.000184438
7.80541e-05
7.80499e-05
7.80392e-05
7.80353e-05
2.39228e-05
2.39191e-05
0.000145118
0.000103889
0.000214523
0.000204139
0.000144992
0.000103947
0.000214887
0.000100106
5.07848e-05
0.000100062
5.07899e-05
0.000145114
0.000214518
0.000103876
0.000204111
0.000144988
0.000214886
0.000103933
0.000100102
5.08045e-05
5.07952e-05
0.000100144
0.000145137
0.000204421
0.000103995
0.000215621
0.00010394
0.000215268
0.000145258
0.000100098
5.07982e-05
5.07934e-05
0.000100139
0.000145133
0.000204393
0.000215619
0.000103981
0.000215263
0.000103927
0.000145255
0.000100105
5.07916e-05
0.00010006
5.07966e-05
0.000145119
0.00021453
0.000103895
0.000204131
0.000144993
0.000214898
0.000103953
0.0001001
5.0788e-05
0.000100061
5.07931e-05
0.000145126
0.000204437
0.000104001
0.000215633
0.000103946
0.000215278
0.000145282
0.000100096
5.0805e-05
5.08002e-05
0.000100138
0.000145138
0.000204412
0.000215632
0.000104
0.000215276
0.000103946
0.00014526
0.000100097
5.08015e-05
5.07966e-05
0.000100133
7.80053e-05
7.80235e-05
0.0001844
7.80208e-05
7.80393e-05
2.39143e-05
2.39181e-05
2.39201e-05
2.39163e-05
0.000184425
7.80383e-05
7.80567e-05
7.80238e-05
7.80419e-05
2.39221e-05
2.39183e-05
0.000145116
0.000214531
0.000103894
0.000204146
0.00014499
0.000214899
0.000103951
0.000100091
5.0788e-05
0.000100052
5.07931e-05
0.000100096
5.07861e-05
0.000100057
5.07956e-05
0.000145134
0.000204428
0.000215631
0.000104003
0.000215275
0.000103948
0.000145257
0.000145134
0.000204428
0.000215632
0.000103999
0.000215276
0.000103945
0.000145256
0.000100087
5.08014e-05
5.07966e-05
0.000100124
0.000100091
5.08039e-05
5.07946e-05
0.000100127
2.39139e-05
2.39178e-05
2.39135e-05
2.39174e-05
0.000184438
7.80567e-05
7.80541e-05
7.80393e-05
7.80395e-05
2.39218e-05
2.3918e-05
2.39214e-05
2.39176e-05
2.39231e-05
2.39269e-05
2.39218e-05
2.39255e-05
7.80587e-05
7.80556e-05
0.000185134
7.80749e-05
7.80693e-05
2.39307e-05
2.3927e-05
2.39294e-05
2.39257e-05
0.000185071
7.8089e-05
7.80835e-05
7.80738e-05
7.80708e-05
0.000100165
5.08092e-05
0.000100132
5.08139e-05
0.000145386
0.000103995
0.000215989
0.000205189
0.000145274
0.000104046
0.000216331
0.000145389
0.000103993
0.000215992
0.000205189
0.000145277
0.000104044
0.000216334
0.000100158
5.08234e-05
5.08146e-05
0.00010019
0.000100162
5.08217e-05
5.08173e-05
0.000100193
0.000145402
0.000205455
0.000104086
0.000217019
0.000104039
0.000216689
0.000145511
0.000145405
0.000205455
0.000104084
0.000217021
0.000104037
0.000216692
0.000145514
7.8056e-05
7.80522e-05
0.000185097
7.80698e-05
7.80654e-05
2.3923e-05
2.39267e-05
2.393e-05
2.39264e-05
0.000185126
7.8084e-05
7.80797e-05
7.80712e-05
7.80673e-05
2.39306e-05
2.39269e-05
0.000145389
0.000103987
0.000215991
0.000205205
0.000145277
0.000104038
0.00021633
0.000100169
5.08016e-05
0.000100131
5.08062e-05
0.000145385
0.000215986
0.000103973
0.000205177
0.000145273
0.000216328
0.000104025
0.000100164
5.08203e-05
5.08114e-05
0.0001002
0.000145404
0.000205471
0.000104079
0.000217018
0.00010403
0.000216691
0.000145513
0.00010016
5.08141e-05
5.08097e-05
0.000100196
0.000145401
0.000205443
0.000217015
0.000104065
0.000216686
0.000104017
0.000145509
0.000100168
5.08084e-05
0.00010013
5.0813e-05
0.000145391
0.000215999
0.000103993
0.000205196
0.000145278
0.000216341
0.000104044
0.000100164
5.08048e-05
0.00010013
5.08095e-05
0.000145395
0.000205487
0.000104085
0.00021703
0.000104036
0.000216701
0.000145536
0.000100159
5.08208e-05
5.08165e-05
0.000100196
0.000145406
0.000205462
0.000217028
0.000104084
0.000216699
0.000104036
0.000145515
0.000100159
5.08174e-05
5.08129e-05
0.000100191
7.80406e-05
7.80586e-05
0.000185083
7.80539e-05
7.80724e-05
2.39223e-05
2.3926e-05
2.39278e-05
2.39242e-05
0.000185113
7.80683e-05
7.80865e-05
7.80558e-05
7.80738e-05
2.39298e-05
2.39262e-05
0.000145386
0.000215999
0.000103992
0.000205212
0.000145273
0.000216341
0.000104043
0.000100154
5.08047e-05
0.00010012
5.08095e-05
0.000100156
5.08029e-05
0.000100122
5.0812e-05
0.000145403
0.000205478
0.000217027
0.000104087
0.000216698
0.000104039
0.000145512
0.000145401
0.000205479
0.000217028
0.000104083
0.000216699
0.000104036
0.00014551
0.000100149
5.08173e-05
5.08128e-05
0.000100181
0.000100151
5.08198e-05
5.08109e-05
0.000100182
2.3922e-05
2.39257e-05
2.39215e-05
2.39253e-05
0.000185124
7.80866e-05
7.80842e-05
7.80711e-05
7.80714e-05
2.39295e-05
2.39258e-05
2.39291e-05
2.39254e-05
2.39308e-05
2.39345e-05
2.39295e-05
2.39331e-05
7.80874e-05
7.80844e-05
0.000185773
7.81017e-05
7.80961e-05
2.39381e-05
2.39345e-05
2.39367e-05
2.39332e-05
0.0001857
7.81128e-05
7.81072e-05
7.80994e-05
7.80965e-05
0.000100217
5.0825e-05
0.000100188
5.08292e-05
0.000145625
0.000104079
0.000217368
0.000206177
0.000145525
0.000104123
0.000217683
0.000145628
0.000104077
0.00021737
0.000206177
0.000145528
0.000104121
0.000217685
0.000100208
5.08383e-05
5.08299e-05
0.000100235
0.000100212
5.08366e-05
5.08326e-05
0.000100238
0.000145635
0.00020643
0.000104156
0.000218325
0.000104115
0.000218023
0.000145733
0.000145638
0.00020643
0.000104154
0.000218327
0.000104113
0.000218025
0.000145736
7.80848e-05
7.8081e-05
0.000185741