/*--------------------------------*- C++ -*----------------------------------*\
| =========                 |                                                 |
| \\      /  F ield         | OpenFOAM: The Open Source CFD Toolbox           |
|  \\    /   O peration     | Version:  v1906                                 |
|   \\  /    A nd           | Web:      www.OpenFOAM.com                      |
|    \\/     M anipulation  |                                                 |
\*---------------------------------------------------------------------------*/
FoamFile
{
    version     2.0;
    format      ascii;
    class       surfaceScalarField;
    location    "900";
    object      phi;
}
// * * * * * * * * * * * * * * * * * * * * * * * * * * * * * * * * * * * * * //

dimensions      [0 3 -1 0 0 0 0];
oriented        oriented;


internalField   nonuniform List<scalar> 
124908
(
1.24144e-07
1.24533e-07
-0.00118366
-7.71237e-08
-7.71094e-08
0.00118356
-0.00113214
-1.19625e-06
-1.24493e-07
-5.0692e-08
0.00113212
-2.33901e-07
1.241e-06
2.71878e-07
9.1115e-07
-2.12204e-07
-8.52339e-07
2.66252e-07
-0.00113178
-1.19083e-06
-1.24579e-07
-5.04908e-08
0.00113176
-2.33951e-07
1.23549e-06
2.71859e-07
9.11008e-07
-2.14905e-07
-8.52205e-07
2.68989e-07
-0.000270098
1.2249e-06
1.19092e-06
-1.97963e-07
-2.03283e-07
0.000268083
1.2573e-07
1.26112e-07
-0.00118328
-7.93858e-08
-7.93818e-08
0.00118319
-0.00113206
-1.19605e-06
-1.26082e-07
-5.13432e-08
0.00113204
-2.3381e-07
1.24083e-06
2.71703e-07
9.11021e-07
-2.12143e-07
-8.52202e-07
2.66076e-07
-0.0011317
-1.19064e-06
-1.26182e-07
-5.11705e-08
0.00113168
-2.33865e-07
1.2353e-06
2.71681e-07
9.10877e-07
-2.14826e-07
-8.5206e-07
2.68812e-07
-0.000270108
1.2247e-06
1.19072e-06
-1.97918e-07
-2.03233e-07
0.000268094
1.26779e-07
1.27167e-07
-0.00118291
-8.11779e-08
-8.11687e-08
0.00118282
-0.00113199
-1.19595e-06
-1.2715e-07
-5.18087e-08
0.00113198
-2.33801e-07
1.24063e-06
2.71497e-07
9.10843e-07
-2.12177e-07
-8.52184e-07
2.65841e-07
-0.00113163
-1.19053e-06
-1.27243e-07
-5.16328e-08
0.00113161
-2.33849e-07
1.23511e-06
2.7148e-07
9.10698e-07
-2.14868e-07
-8.52048e-07
2.68567e-07
-0.000270121
1.22459e-06
1.19061e-06
-1.97943e-07
-2.03253e-07
0.000268107
1.27326e-07
1.27733e-07
-0.00118255
-8.25234e-08
-8.25076e-08
0.00118246
-0.00113193
-1.19593e-06
-1.27707e-07
-5.20698e-08
0.00113192
-2.33858e-07
1.24041e-06
2.71265e-07
9.10612e-07
-2.12319e-07
-8.52285e-07
2.6555e-07
-0.00113157
-1.19051e-06
-1.27806e-07
-5.19101e-08
0.00113156
-2.33903e-07
1.23489e-06
2.71251e-07
9.10459e-07
-2.15008e-07
-8.52148e-07
2.68281e-07
-0.000270136
1.22457e-06
1.1906e-06
-1.98031e-07
-2.03336e-07
0.000268122
1.27402e-07
1.27827e-07
-0.00118219
-8.34454e-08
-8.34226e-08
0.0011821
-0.00113188
-1.196e-06
-1.27786e-07
-5.214e-08
0.00113187
-2.33981e-07
1.24015e-06
2.71008e-07
9.10324e-07
-2.12556e-07
-8.52498e-07
2.65208e-07
-0.00113152
-1.19057e-06
-1.27883e-07
-5.20001e-08
0.00113151
-2.34024e-07
1.23464e-06
2.70998e-07
9.10177e-07
-2.15246e-07
-8.52365e-07
2.6794e-07
-0.000270152
1.22463e-06
1.19067e-06
-1.98181e-07
-2.03479e-07
0.000268138
1.27029e-07
1.2747e-07
-0.00118184
-8.39674e-08
-8.39331e-08
0.00118175
-0.00113184
-1.19614e-06
-1.27407e-07
-5.20226e-08
0.00113183
-2.34169e-07
1.23988e-06
2.70728e-07
9.09983e-07
-2.12883e-07
-8.52812e-07
2.64818e-07
-0.00113147
-1.19072e-06
-1.27511e-07
-5.18872e-08
0.00113146
-2.3421e-07
1.23437e-06
2.70718e-07
9.0984e-07
-2.15575e-07
-8.52678e-07
2.67548e-07
-0.00027017
1.22478e-06
1.19083e-06
-1.98389e-07
-2.03686e-07
0.000268156
1.26265e-07
1.26721e-07
-0.00118149
-8.41329e-08
-8.40857e-08
0.00118141
-0.0011318
-1.19637e-06
-1.26632e-07
-5.17479e-08
0.00113179
-2.34419e-07
1.23958e-06
2.70423e-07
9.09605e-07
-2.13292e-07
-8.53224e-07
2.64385e-07
-0.00113143
-1.19094e-06
-1.26744e-07
-5.16241e-08
0.00113143
-2.34461e-07
1.23407e-06
2.70413e-07
9.09465e-07
-2.15985e-07
-8.53089e-07
2.67116e-07
-0.000270189
1.22501e-06
1.19106e-06
-1.98654e-07
-2.03949e-07
0.000268175
1.25122e-07
1.25584e-07
-0.00118116
-8.39549e-08
-8.38953e-08
0.00118108
-0.00113177
-1.19667e-06
-1.25475e-07
-5.1309e-08
0.00113176
-2.34731e-07
1.23926e-06
2.70088e-07
9.09178e-07
-2.13779e-07
-8.53726e-07
2.6391e-07
-0.0011314
-1.19124e-06
-1.25592e-07
-5.11924e-08
0.0011314
-2.34772e-07
1.23375e-06
2.70079e-07
9.09036e-07
-2.1647e-07
-8.53592e-07
2.66643e-07
-0.000270209
1.22531e-06
1.19136e-06
-1.98972e-07
-2.04269e-07
0.000268196
1.23639e-07
1.24097e-07
-0.00118083
-8.3463e-08
-8.33993e-08
0.00118075
-0.00113174
-1.19704e-06
-1.23977e-07
-5.07184e-08
0.00113173
-2.35098e-07
1.23891e-06
2.69727e-07
9.08704e-07
-2.14334e-07
-8.54305e-07
2.63392e-07
-0.00113138
-1.19161e-06
-1.24099e-07
-5.06046e-08
0.00113137
-2.3514e-07
1.2334e-06
2.69718e-07
9.08564e-07
-2.17023e-07
-8.54171e-07
2.66127e-07
-0.000270231
1.22569e-06
1.19173e-06
-1.99338e-07
-2.04639e-07
0.000268217
1.21849e-07
1.22308e-07
-0.00118051
-8.26944e-08
-8.26271e-08
0.00118043
-0.00113172
-1.19747e-06
-1.22179e-07
-4.99936e-08
0.00113172
-2.35514e-07
1.23853e-06
2.69337e-07
9.08182e-07
-2.14943e-07
-8.54954e-07
2.62834e-07
-0.00113136
-1.19204e-06
-1.22306e-07
-4.98798e-08
0.00113135
-2.35555e-07
1.23302e-06
2.69326e-07
9.08046e-07
-2.17631e-07
-8.54824e-07
2.65571e-07
-0.000270253
1.22612e-06
1.19216e-06
-1.99745e-07
-2.0505e-07
0.000268239
1.19807e-07
1.20262e-07
-0.0011802
-8.16865e-08
-8.16141e-08
0.00118012
-0.0011317
-1.19795e-06
-1.20131e-07
-4.91517e-08
0.0011317
-2.3597e-07
1.23812e-06
2.68922e-07
9.07622e-07
-2.15598e-07
-8.55662e-07
2.62224e-07
-0.00113134
-1.19252e-06
-1.2027e-07
-4.9038e-08
0.00113134
-2.36013e-07
1.23261e-06
2.68912e-07
9.07487e-07
-2.18283e-07
-8.55527e-07
2.64966e-07
-0.000270276
1.2266e-06
1.19264e-06
-2.00185e-07
-2.05493e-07
0.000268262
1.17566e-07
1.1802e-07
-0.0011799
-8.04783e-08
-8.03989e-08
0.00117982
-0.00113169
-1.19849e-06
-1.17883e-07
-4.8227e-08
0.00113169
-2.36452e-07
1.23768e-06
2.68477e-07
9.07e-07
-2.16277e-07
-8.56401e-07
2.61553e-07
-0.00113133
-1.19306e-06
-1.18038e-07
-4.8111e-08
0.00113133
-2.36496e-07
1.23217e-06
2.68468e-07
9.06868e-07
-2.1896e-07
-8.56266e-07
2.64298e-07
-0.000270299
1.22714e-06
1.19317e-06
-2.00664e-07
-2.05975e-07
0.000268286
1.15233e-07
1.15684e-07
-0.00117961
-7.91593e-08
-7.90759e-08
0.00117953
-0.00113168
-1.19904e-06
-1.1554e-07
-4.72667e-08
0.00113169
-2.36959e-07
1.23722e-06
2.67982e-07
9.06278e-07
-2.16941e-07
-8.57142e-07
2.60788e-07
-0.00113132
-1.19363e-06
-1.15702e-07
-4.71526e-08
0.00113132
-2.36969e-07
1.23171e-06
2.67973e-07
9.06151e-07
-2.1962e-07
-8.57003e-07
2.63539e-07
-0.000270323
1.2277e-06
1.19373e-06
-2.01148e-07
-2.06462e-07
0.000268309
1.12894e-07
1.13339e-07
-0.00117932
-7.78014e-08
-7.77171e-08
0.00117925
-0.00113168
-1.19962e-06
-1.13198e-07
-4.6271e-08
0.00113168
-2.37448e-07
1.23669e-06
2.67427e-07
9.05406e-07
-2.17514e-07
-8.57815e-07
2.59864e-07
-0.00113132
-1.1942e-06
-1.13366e-07
-4.61512e-08
0.00113132
-2.3746e-07
1.23119e-06
2.67418e-07
9.05282e-07
-2.2019e-07
-8.57675e-07
2.62617e-07
-0.000270347
1.22827e-06
1.19429e-06
-2.01614e-07
-2.06933e-07
0.000268333
1.10777e-07
1.11212e-07
-0.00117905
-7.65883e-08
-7.65068e-08
0.00117898
-0.00113168
-1.20015e-06
-1.1108e-07
-4.52994e-08
0.00113169
-2.37869e-07
1.23607e-06
2.66765e-07
9.04277e-07
-2.17828e-07
-8.58281e-07
2.58638e-07
-0.00113132
-1.19473e-06
-1.1125e-07
-4.51752e-08
0.00113132
-2.37881e-07
1.23056e-06
2.66757e-07
9.04152e-07
-2.205e-07
-8.5814e-07
2.61391e-07
-0.000270372
1.22881e-06
1.19482e-06
-2.01999e-07
-2.07326e-07
0.000268358
1.09232e-07
1.09656e-07
-0.00117879
-7.58419e-08
-7.57674e-08
0.00117872
-0.00113168
-1.20054e-06
-1.09539e-07
-4.4338e-08
0.00113169
-2.38104e-07
1.23522e-06
2.65848e-07
9.02622e-07
-2.17512e-07
-8.58278e-07
2.56725e-07
-0.00113132
-1.19512e-06
-1.09716e-07
-4.4215e-08
0.00113133
-2.3812e-07
1.22972e-06
2.6581e-07
9.02501e-07
-2.20177e-07
-8.58129e-07
2.59475e-07
-0.000270397
1.2292e-06
1.19521e-06
-2.02152e-07
-2.0749e-07
0.000268382
1.08898e-07
1.09311e-07
-0.00117853
-7.62546e-08
-7.61884e-08
0.00117847
-0.00113169
-1.20048e-06
-1.09213e-07
-4.32072e-08
0.0011317
-2.37773e-07
1.23377e-06
2.64181e-07
8.99812e-07
-2.15555e-07
-8.57225e-07
2.53054e-07
-0.00113133
-1.19506e-06
-1.09388e-07
-4.30804e-08
0.00113134
-2.3779e-07
1.22828e-06
2.64147e-07
8.99683e-07
-2.18215e-07
-8.5707e-07
2.55798e-07
-0.000270422
1.22914e-06
1.19513e-06
-2.01626e-07
-2.06978e-07
0.000268406
1.10952e-07
1.11363e-07
-0.00117829
-7.94839e-08
-7.94142e-08
0.00117823
-0.0011317
-1.19884e-06
-1.11273e-07
-4.06922e-08
0.00113172
-2.35414e-07
1.2303e-06
2.59925e-07
8.94065e-07
-2.09022e-07
-8.53619e-07
2.44316e-07
-0.00113134
-1.19341e-06
-1.11464e-07
-4.05928e-08
0.00113136
-2.35456e-07
1.22481e-06
2.59937e-07
8.93921e-07
-2.11692e-07
-8.53399e-07
2.47055e-07
-0.000270448
1.2275e-06
1.19348e-06
-1.98835e-07
-2.04204e-07
0.00026843
1.34332e-07
1.35013e-07
-0.00117807
-9.60875e-08
-1.0177e-07
0.001178
-0.00113171
-1.19157e-06
-1.29203e-07
-4.49175e-08
0.00113175
-2.25162e-07
1.22272e-06
2.51418e-07
8.8437e-07
-1.91689e-07
-8.44687e-07
2.22957e-07
-0.00113136
-1.18343e-06
-1.35082e-07
-3.95243e-08
0.0011314
-2.25132e-07
1.21452e-06
2.48634e-07
8.81616e-07
-1.91664e-07
-8.41809e-07
2.258e-07
-0.000270482
1.22294e-06
1.18618e-06
-1.85256e-07
-1.90645e-07
0.000268448
1.05239e-06
1.05992e-06
-0.00117774
-9.08478e-07
-8.97317e-07
0.00117744
-0.00113201
-1.0876e-06
-1.05392e-06
-4.40922e-07
0.0011325
-1.18884e-07
1.37611e-06
3.14392e-07
1.00639e-06
-5.29131e-08
-7.21343e-07
2.92213e-07
-0.00113167
-1.07932e-06
-1.06522e-06
-4.52211e-07
0.00113217
-1.18737e-07
1.37073e-06
3.1731e-07
1.00348e-06
-5.91186e-08
-7.18409e-07
2.95087e-07
-0.0002706
1.12155e-06
1.07943e-06
-7.94348e-08
-8.20118e-08
0.00026856
5.51306e-06
5.50598e-06
-0.00116443
-1.16869e-05
-1.15798e-05
0.000283408
0.000285664
0.000285391
0.000285391
4.52782e-06
6.71957e-06
7.15991e-06
4.5318e-06
6.72047e-06
7.16352e-06
-0.000280655
5.41706e-06
-5.50299e-06
5.96529e-06
-3.38957e-06
0.000278166
-0.000280631
-5.50558e-06
5.42244e-06
-3.39794e-06
5.96243e-06
0.000278149
-0.000271535
-5.41377e-06
-5.42536e-06
5.7468e-06
5.73484e-06
0.000270892
-1.27498e-06
-1.23836e-06
0.000270115
-0.000268088
2.38914e-07
2.46813e-07
0.00113131
-1.23619e-07
-0.00113133
-5.03335e-08
-1.23033e-06
2.77299e-07
-2.39456e-07
-8.52417e-07
2.66218e-07
-2.12274e-07
9.11102e-07
1.28045e-06
0.00113175
-1.23633e-07
-0.00113177
-5.02865e-08
-1.23583e-06
2.80123e-07
-2.42315e-07
-8.57933e-07
2.6898e-07
-2.15099e-07
9.16628e-07
-1.24104e-06
0.000270145
-0.000268109
2.41705e-07
2.4405e-07
0.00113241
-1.24016e-07
-0.00113243
-5.02865e-08
-1.1937e-06
2.74778e-07
-2.36836e-07
-8.55071e-07
2.69076e-07
-2.15029e-07
9.13942e-07
1.27503e-06
0.00113141
-1.2351e-07
-0.00113143
-5.04124e-08
-1.23036e-06
2.80158e-07
-2.42279e-07
-8.55111e-07
2.689e-07
-2.15048e-07
9.1373e-07
-1.2396e-07
-0.00113216
-5.04639e-08
-1.19632e-06
2.71915e-07
-2.33929e-07
-8.52387e-07
2.66285e-07
9.11165e-07
-2.12239e-07
1.26952e-06
0.0011312
-1.23721e-07
-0.00113122
-5.01928e-08
-1.22496e-06
2.7449e-07
-2.36686e-07
-8.52412e-07
2.66213e-07
-2.12246e-07
9.1111e-07
-1.23552e-06
0.000270093
-0.000268068
2.39012e-07
2.46646e-07
-1.24056e-07
-0.0011318
-5.02678e-08
-1.1909e-06
2.71896e-07
-2.33979e-07
-8.52197e-07
2.68987e-07
9.1108e-07
-2.14938e-07
1.23569e-06
0.00113231
-1.23957e-07
-0.00113233
-5.0479e-08
-1.19098e-06
2.7206e-07
-2.34022e-07
-8.52465e-07
2.69027e-07
-2.1501e-07
9.11291e-07
-0.000268081
2.41505e-07
2.46781e-07
1.23026e-06
1.19364e-06
-1.95414e-07
-2.03219e-07
0.00026809
-1.27479e-06
-1.23818e-06
0.000270126
-0.000268098
2.38607e-07
2.46508e-07
-5.05623e-08
0.00113129
-2.3943e-07
1.27493e-06
2.77263e-07
9.11079e-07
-2.12245e-07
-8.52374e-07
2.6617e-07
-1.23575e-06
-1.24162e-07
-5.05048e-08
0.00113173
-2.42286e-07
1.28041e-06
2.80087e-07
9.16601e-07
-2.15053e-07
-8.57878e-07
2.68946e-07
0.00113123
-1.25309e-07
-0.00113125
-5.10388e-08
-1.2301e-06
2.77125e-07
-2.39355e-07
-8.52255e-07
2.6605e-07
-2.12179e-07
9.10981e-07
1.28028e-06
0.00113167
-1.25323e-07
-0.00113169
-5.10116e-08
-1.2356e-06
2.79953e-07
-2.42212e-07
-8.57765e-07
2.68819e-07
-2.14996e-07
9.16515e-07
-1.98097e-07
-2.00534e-07
0.000268111
-1.24086e-06
0.000270155
-0.000268119
2.41409e-07
2.43754e-07
-5.0553e-08
0.00113239
-2.36813e-07
1.23832e-06
2.74739e-07
9.13913e-07
-2.14975e-07
-8.55031e-07
2.69045e-07
-1.23028e-06
-1.24048e-07
-5.06321e-08
0.00113139
-2.4225e-07
1.27499e-06
2.80121e-07
9.13715e-07
-2.15011e-07
-8.55071e-07
2.68869e-07
0.00113234
-1.25698e-07
-0.00113235
-5.09705e-08
-1.19348e-06
2.74603e-07
-2.36736e-07
-8.54925e-07
2.68909e-07
-2.1493e-07
9.13818e-07
1.27486e-06
0.00113133
-1.25197e-07
-0.00113135
-5.11287e-08
-1.23013e-06
2.79983e-07
-2.4218e-07
-8.54953e-07
2.68735e-07
-2.14955e-07
9.13612e-07
-1.24246e-07
-5.04131e-08
0.00113118
-2.36657e-07
1.26948e-06
2.74451e-07
9.11095e-07
-2.1221e-07
2.66188e-07
-8.52371e-07
-1.25666e-07
-0.00113208
-5.11599e-08
-1.1961e-06
2.71743e-07
-2.33827e-07
-8.52222e-07
2.66116e-07
9.11048e-07
-2.12142e-07
1.26935e-06
0.00113112
-1.25414e-07
-0.00113114
-5.09129e-08
-1.22473e-06
2.74316e-07
-2.36589e-07
-8.52258e-07
2.66041e-07
-2.12163e-07
9.10998e-07
-1.95505e-07
-2.03078e-07
0.00026807
-1.23534e-06
0.000270103
-0.000268078
2.38711e-07
2.46346e-07
-1.24494e-07
-5.06916e-08
0.00113229
-2.33996e-07
1.23565e-06
2.72019e-07
9.11273e-07
-2.14974e-07
2.69002e-07
-8.52423e-07
-1.25763e-07
-0.00113172
-5.09879e-08
-1.19068e-06
2.7172e-07
-2.3388e-07
-8.52032e-07
2.6883e-07
9.10967e-07
-2.14846e-07
1.23551e-06
0.00113223
-1.25652e-07
-0.00113225
-5.11835e-08
-1.19075e-06
2.7188e-07
-2.33933e-07
-8.52304e-07
2.68859e-07
-2.14919e-07
9.11168e-07
-0.000268091
2.41206e-07
2.46487e-07
1.23006e-06
1.19344e-06
-1.95368e-07
-2.03172e-07
0.000268101
-1.2746e-06
-1.23798e-06
0.000270138
-0.00026811
2.38285e-07
2.46193e-07
-5.12308e-08
0.00113121
-2.39341e-07
1.27475e-06
2.77083e-07
9.10948e-07
-2.12171e-07
-8.52236e-07
2.66006e-07
-1.23556e-06
-1.25748e-07
-5.11802e-08
0.00113166
-2.42196e-07
1.28024e-06
2.79912e-07
9.16482e-07
-2.14995e-07
-8.57747e-07
2.68778e-07
0.00113116
-1.26457e-07
-0.00113118
-5.15421e-08
-1.22997e-06
2.76927e-07
-2.39323e-07
-8.52214e-07
2.65823e-07
-2.12196e-07
9.10811e-07
1.28008e-06
0.00113161
-1.26483e-07
-0.00113162
-5.15128e-08
-1.23547e-06
2.79747e-07
-2.42189e-07
-8.57722e-07
2.68599e-07
-2.15009e-07
9.1635e-07
-1.98052e-07
-2.00491e-07
0.000268122
-1.24067e-06
0.000270168
-0.000268132
2.41093e-07
2.43434e-07
-5.1195e-08
0.00113232
-2.36725e-07
1.23814e-06
2.74559e-07
9.13788e-07
-2.14924e-07
-8.54901e-07
2.68867e-07
-1.23009e-06
-1.25619e-07
-5.12978e-08
0.00113131
-2.42165e-07
1.27482e-06
2.79943e-07
9.13583e-07
-2.14946e-07
-8.54937e-07
2.68683e-07
0.00113227
-1.26857e-07
-0.00113228
-5.14631e-08
-1.19335e-06
2.74396e-07
-2.36713e-07
-8.54882e-07
2.68684e-07
-2.14939e-07
9.13648e-07
1.27466e-06
0.00113126
-1.26354e-07
-0.00113128
-5.16347e-08
-1.23e-06
2.79779e-07
-2.42155e-07
-8.54911e-07
2.68514e-07
-2.14966e-07
9.13446e-07
-1.25832e-07
-5.10905e-08
0.00113111
-2.3657e-07
1.2693e-06
2.74275e-07
9.10974e-07
-2.12148e-07
2.66006e-07
-8.52246e-07
-1.2683e-07
-0.00113201
-5.166e-08
-1.19597e-06
2.71541e-07
-2.33799e-07
-8.52178e-07
2.65893e-07
9.10882e-07
-2.12164e-07
1.26915e-06
0.00113105
-1.26565e-07
-0.00113107
-5.14232e-08
-1.22461e-06
2.74119e-07
-2.36555e-07
-8.52219e-07
2.6582e-07
-2.12171e-07
9.10824e-07
-1.95465e-07
-2.0304e-07
0.000268081
-1.23515e-06
0.000270116
-0.000268091
2.38397e-07
2.46027e-07
-1.26084e-07
-5.13507e-08
0.00113221
-2.33915e-07
1.23547e-06
2.71836e-07
9.1114e-07
-2.14902e-07
2.68828e-07
-8.52286e-07
-1.26929e-07
-0.00113165
-5.14821e-08
-1.19055e-06
2.71523e-07
-2.33848e-07
-8.51992e-07
2.68605e-07
9.10796e-07
-2.14867e-07
1.23531e-06
0.00113216
-1.26816e-07
-0.00113218
-5.16641e-08
-1.19063e-06
2.71676e-07
-2.33905e-07
-8.52259e-07
2.68641e-07
-2.14927e-07
9.11001e-07
-0.000268104
2.4088e-07
2.46168e-07
1.22995e-06
1.19333e-06
-1.9539e-07
-2.03188e-07
0.000268114
-1.27439e-06
-1.23775e-06
0.000270153
-0.000268125
2.37936e-07
2.45853e-07
-5.16968e-08
0.00113114
-2.39325e-07
1.27456e-06
2.76882e-07
9.10766e-07
-2.12212e-07
-8.52224e-07
2.65767e-07
-1.23545e-06
-1.26808e-07
-5.16367e-08
0.00113159
-2.42192e-07
1.28004e-06
2.79701e-07
9.16306e-07
-2.15023e-07
-8.5773e-07
2.68542e-07
0.0011311
-1.27089e-07
-0.00113111
-5.18451e-08
-1.22993e-06
2.76703e-07
-2.39365e-07
-8.52291e-07
2.65538e-07
-2.12316e-07
9.10585e-07
1.27986e-06
0.00113155
-1.2713e-07
-0.00113156
-5.17914e-08
-1.23544e-06
2.79511e-07
-2.42238e-07
-8.57791e-07
2.6832e-07
-2.15122e-07
9.16132e-07
-1.98071e-07
-2.00515e-07
0.000268135
-1.24045e-06
0.000270182
-0.000268146
2.40754e-07
2.43088e-07
-5.16429e-08
0.00113225
-2.36719e-07
1.23793e-06
2.74348e-07
9.13608e-07
-2.1496e-07
-8.54889e-07
2.68626e-07
-1.22999e-06
-1.26682e-07
-5.17642e-08
0.00113124
-2.42159e-07
1.27462e-06
2.79733e-07
9.13407e-07
-2.14979e-07
-8.5492e-07
2.68456e-07
0.00113221
-1.27507e-07
-0.00113222
-5.17457e-08
-1.19332e-06
2.74162e-07
-2.36764e-07
-8.54954e-07
2.68409e-07
-2.15056e-07
9.13428e-07
1.27444e-06
0.0011312
-1.27008e-07
-0.00113121
-5.19261e-08
-1.22997e-06
2.79544e-07
-2.42204e-07
-8.5498e-07
2.6824e-07
-2.15074e-07
9.13229e-07
-1.26875e-07
-5.15627e-08
0.00113104
-2.36557e-07
1.26911e-06
2.74072e-07
9.10783e-07
-2.12187e-07
2.65772e-07
-8.52232e-07
-1.27476e-07
-0.00113195
-5.1953e-08
-1.19593e-06
2.71312e-07
-2.3384e-07
-8.52251e-07
2.65613e-07
9.1066e-07
-2.12279e-07
1.26894e-06
0.00113099
-1.27201e-07
-0.00113101
-5.17344e-08
-1.22457e-06
2.73893e-07
-2.36596e-07
-8.52294e-07
2.65541e-07
-2.12289e-07
9.106e-07
-1.95481e-07
-2.03063e-07
0.000268094
-1.23494e-06
0.000270131
-0.000268105
2.38062e-07
2.45681e-07
-1.27149e-07
-5.17943e-08
0.00113214
-2.33909e-07
1.23526e-06
2.71627e-07
9.10964e-07
-2.14941e-07
2.68591e-07
-8.5227e-07
-1.27575e-07
-0.00113158
-5.17889e-08
-1.19051e-06
2.71298e-07
-2.33886e-07
-8.52069e-07
2.68324e-07
9.10575e-07
-2.14984e-07
1.23509e-06
0.0011321
-1.27474e-07
-0.00113211
-5.19434e-08
-1.1906e-06
2.7144e-07
-2.33955e-07
-8.52331e-07
2.68365e-07
-2.15041e-07
9.10781e-07
-0.000268118
2.40537e-07
2.45831e-07
1.22993e-06
1.19332e-06
-1.95479e-07
-2.03269e-07
0.000268128
-1.27414e-06
-1.2375e-06
0.000270169
-0.000268141
2.37557e-07
2.45482e-07
-5.19678e-08
0.00113108
-2.39383e-07
1.27434e-06
2.76653e-07
9.10528e-07
-2.12357e-07
-8.52329e-07
2.65473e-07
-1.23544e-06
-1.27372e-07
-5.18782e-08
0.00113153
-2.42259e-07
1.27981e-06
2.7946e-07
9.16074e-07
-2.1516e-07
-8.5783e-07
2.68261e-07
0.00113105
-1.27241e-07
-0.00113106
-5.19491e-08
-1.22997e-06
2.76453e-07
-2.3947e-07
-8.52477e-07
2.65204e-07
-2.12532e-07
9.10302e-07
1.2796e-06
0.00113149
-1.27305e-07
-0.00113151
-5.18552e-08
-1.23549e-06
2.79248e-07
-2.42352e-07
-8.57972e-07
2.67994e-07
-2.1533e-07
9.15857e-07
-1.98153e-07
-2.00605e-07
0.00026815
-1.2402e-06
0.000270199
-0.000268162
2.4038e-07
2.42704e-07
-5.18926e-08
0.00113219
-2.36786e-07
1.2377e-06
2.7411e-07
9.13376e-07
-2.15099e-07
-8.5499e-07
2.68342e-07
-1.22998e-06
-1.27252e-07
-5.20173e-08
0.00113119
-2.42224e-07
1.27439e-06
2.79494e-07
9.1318e-07
-2.15114e-07
-8.55017e-07
2.68176e-07
0.00113215
-1.27677e-07
-0.00113217
-5.18282e-08
-1.19336e-06
2.73903e-07
-2.36878e-07
-8.55135e-07
2.6808e-07
-2.15265e-07
9.1315e-07
1.27418e-06
0.00113115
-1.27189e-07
-0.00113116
-5.20017e-08
-1.23002e-06
2.79283e-07
-2.42316e-07
-8.55156e-07
2.67915e-07
-2.1528e-07
9.12956e-07
-1.27428e-07
-5.18322e-08
0.00113098
-2.36615e-07
1.26889e-06
2.7384e-07
9.10549e-07
-2.1233e-07
2.65477e-07
-8.52334e-07
-1.27634e-07
-0.00113189
-5.2046e-08
-1.19597e-06
2.71061e-07
-2.33942e-07
-8.52437e-07
2.65281e-07
9.10381e-07
-2.12491e-07
1.26869e-06
0.00113094
-1.27354e-07
-0.00113096
-5.18354e-08
-1.2246e-06
2.73637e-07
-2.36702e-07
-8.52476e-07
2.65209e-07
-2.12503e-07
9.10321e-07
-1.95559e-07
-2.03154e-07
0.000268109
-1.23469e-06
0.000270147
-0.000268121
2.37691e-07
2.45298e-07
-1.27718e-07
-5.20322e-08
0.00113209
-2.33977e-07
1.23504e-06
2.71385e-07
9.10732e-07
-2.15082e-07
2.68302e-07
-8.5237e-07
-1.27731e-07
-0.00113153
-5.18911e-08
-1.19054e-06
2.7105e-07
-2.33985e-07
-8.52255e-07
2.67988e-07
9.10292e-07
-2.152e-07
1.23483e-06
0.00113205
-1.27647e-07
-0.00113206
-5.20163e-08
-1.19064e-06
2.71176e-07
-2.34069e-07
-8.52513e-07
2.68037e-07
-2.15251e-07
9.10502e-07
-0.000268134
2.40155e-07
2.45456e-07
1.23e-06
1.1934e-06
-1.95633e-07
-2.03417e-07
0.000268145
-1.27387e-06
-1.23722e-06
0.000270187
-0.000268158
2.37157e-07
2.45089e-07
-5.20481e-08
0.00113103
-2.39506e-07
1.27409e-06
2.76398e-07
9.10238e-07
-2.12597e-07
-8.52544e-07
2.65129e-07
-1.23552e-06
-1.27468e-07
-5.19146e-08
0.00113148
-2.42395e-07
1.27955e-06
2.79192e-07
9.15791e-07
-2.15391e-07
-8.58038e-07
2.67925e-07
0.001131
-1.26937e-07
-0.00113101
-5.18765e-08
-1.2301e-06
2.76176e-07
-2.39642e-07
-8.52766e-07
2.64824e-07
-2.12836e-07
9.09978e-07
1.27932e-06
0.00113145
-1.27025e-07
-0.00113146
-5.17363e-08
-1.23563e-06
2.78961e-07
-2.42541e-07
-8.58254e-07
2.67625e-07
-2.15624e-07
9.15539e-07
-1.98298e-07
-2.00761e-07
0.000268166
-1.23993e-06
0.000270217
-0.00026818
2.3999e-07
2.42303e-07
-5.19513e-08
0.00113214
-2.36918e-07
1.23744e-06
2.73846e-07
9.13091e-07
-2.15333e-07
-8.55202e-07
2.68005e-07
-1.23005e-06
-1.27357e-07
-5.20677e-08
0.00113114
-2.42359e-07
1.27413e-06
2.79226e-07
9.129e-07
-2.15342e-07
-8.55224e-07
2.67844e-07
0.00113211
-1.2739e-07
-0.00113212
-5.17335e-08
-1.1935e-06
2.73618e-07
-2.37057e-07
-8.55422e-07
2.67707e-07
-2.15565e-07
9.1283e-07
1.2739e-06
0.0011311
-1.2691e-07
-0.00113111
-5.18926e-08
-1.23016e-06
2.78997e-07
-2.42504e-07
-8.55439e-07
2.67545e-07
-2.15575e-07
9.1264e-07
-1.27506e-07
-5.19098e-08
0.00113093
-2.36738e-07
1.26863e-06
2.73583e-07
9.10263e-07
-2.12566e-07
2.65138e-07
-8.52545e-07
-1.27324e-07
-0.00113185
-5.19618e-08
-1.19609e-06
2.70786e-07
-2.34116e-07
-8.52726e-07
2.64902e-07
9.10057e-07
-2.12794e-07
1.26842e-06
0.0011309
-1.2705e-07
-0.00113091
-5.17505e-08
-1.22473e-06
2.7336e-07
-2.36877e-07
-8.52762e-07
2.64832e-07
-2.12803e-07
9.1e-07
-1.957e-07
-2.03309e-07
0.000268125
-1.23442e-06
0.000270165
-0.000268139
2.37302e-07
2.44898e-07
-1.27815e-07
-5.20805e-08
0.00113204
-2.34107e-07
1.23477e-06
2.71121e-07
9.10447e-07
-2.15314e-07
2.67966e-07
-8.52582e-07
-1.27429e-07
-0.00113148
-5.18161e-08
-1.19067e-06
2.70778e-07
-2.34157e-07
-8.52547e-07
2.67608e-07
9.09967e-07
-2.15504e-07
1.23455e-06
0.001132
-1.27361e-07
-0.00113201
-5.19105e-08
-1.19077e-06
2.70893e-07
-2.3425e-07
-8.52796e-07
2.67663e-07
-2.15549e-07
9.10185e-07
-0.000268152
2.39759e-07
2.45063e-07
1.23015e-06
1.19355e-06
-1.95843e-07
-2.03623e-07
0.000268163
-1.27357e-06
-1.23692e-06
0.000270206
-0.000268177
2.36736e-07
2.44673e-07
-5.19417e-08
0.00113099
-2.39696e-07
1.27381e-06
2.76116e-07
9.09903e-07
-2.12923e-07
-8.52858e-07
2.64739e-07
-1.23568e-06
-1.27123e-07
-5.17642e-08
0.00113144
-2.42597e-07
1.27926e-06
2.78899e-07
9.15466e-07
-2.15709e-07
-8.58345e-07
2.67544e-07
0.00113096
-1.26189e-07
-0.00113097
-5.16198e-08
-1.2303e-06
2.75872e-07
-2.39875e-07
-8.53149e-07
2.64397e-07
-2.13221e-07
9.09604e-07
1.27902e-06
0.00113141
-1.26301e-07
-0.00113142
-5.14322e-08
-1.23584e-06
2.78649e-07
-2.42784e-07
-8.58631e-07
2.67207e-07
-2.16001e-07
9.15163e-07
-1.985e-07
-2.00974e-07
0.000268184
-1.23964e-06
0.000270236
-0.000268199
2.39576e-07
2.4188e-07
-5.1823e-08
0.0011321
-2.37114e-07
1.23716e-06
2.73557e-07
9.12761e-07
-2.15656e-07
-8.55511e-07
2.67621e-07
-1.23021e-06
-1.27012e-07
-5.19256e-08
0.00113109
-2.42561e-07
1.27385e-06
2.78934e-07
9.12572e-07
-2.1566e-07
-8.55531e-07
2.67463e-07
0.00113207
-1.26659e-07
-0.00113208
-5.14547e-08
-1.1937e-06
2.73308e-07
-2.37295e-07
-8.55803e-07
2.67285e-07
-2.15948e-07
9.12461e-07
1.2736e-06
0.00113107
-1.2619e-07
-0.00113107
-5.15996e-08
-1.23037e-06
2.78683e-07
-2.42747e-07
-8.55815e-07
2.67126e-07
-2.15952e-07
9.12273e-07
-1.27132e-07
-5.17903e-08
0.00113089
-2.36929e-07
1.26836e-06
2.733e-07
9.09929e-07
-2.12891e-07
2.64749e-07
-8.52857e-07
-1.26567e-07
-0.00113181
-5.16947e-08
-1.19629e-06
2.70483e-07
-2.34348e-07
-8.53109e-07
2.64473e-07
9.09679e-07
-2.13181e-07
1.26812e-06
0.00113086
-1.26299e-07
-0.00113087
-5.14791e-08
-1.22494e-06
2.7305e-07
-2.37113e-07
-8.53146e-07
2.64406e-07
-2.13188e-07
9.09626e-07
-1.95901e-07
-2.03522e-07
0.000268143
-1.23413e-06
0.000270184
-0.000268158
2.36887e-07
2.44474e-07
-1.27459e-07
-5.19357e-08
0.00113199
-2.34305e-07
1.23449e-06
2.70831e-07
9.10115e-07
-2.15637e-07
2.6758e-07
-8.52892e-07
-1.26678e-07
-0.00113144
-5.15632e-08
-1.19087e-06
2.70474e-07
-2.34388e-07
-8.52933e-07
2.6718e-07
9.09593e-07
-2.15892e-07
1.23425e-06
0.00113197
-1.26626e-07
-0.00113197
-5.16182e-08
-1.19099e-06
2.7058e-07
-2.3449e-07
-8.53178e-07
2.67238e-07
-2.15933e-07
9.09812e-07
-0.000268171
2.39337e-07
2.44644e-07
1.23037e-06
1.19378e-06
-1.96107e-07
-2.03885e-07
0.000268182
-1.27325e-06
-1.23659e-06
0.000270227
-0.000268197
2.3629e-07
2.4423e-07
-5.16748e-08
0.00113095
-2.39947e-07
1.27352e-06
2.75811e-07
9.09524e-07
-2.13331e-07
-8.53268e-07
2.64308e-07
-1.23591e-06
-1.26383e-07
-5.14511e-08
0.0011314
-2.42857e-07
1.27896e-06
2.78585e-07
9.1513e-07
-2.16111e-07
-8.58776e-07
2.67116e-07
0.00113093
-1.25023e-07
-0.00113094
-5.11807e-08
-1.23058e-06
2.75538e-07
-2.40169e-07
-8.53621e-07
2.63924e-07
-2.13684e-07
9.09181e-07
1.27869e-06
0.00113138
-1.2515e-07
-0.00113139
-5.09453e-08
-1.23612e-06
2.78309e-07
-2.43084e-07
-8.59107e-07
2.66735e-07
-2.16463e-07
9.14748e-07
-1.98758e-07
-2.01241e-07
0.000268203
-1.23931e-06
0.000270256
-0.000268219
2.39132e-07
2.41433e-07
-5.15381e-08
0.00113206
-2.3737e-07
1.23686e-06
2.73247e-07
9.12385e-07
-2.16063e-07
-8.55922e-07
2.67195e-07
-1.23044e-06
-1.26274e-07
-5.16249e-08
0.00113106
-2.42821e-07
1.27354e-06
2.7862e-07
9.122e-07
-2.16061e-07
-8.55935e-07
2.6704e-07
0.00113204
-1.25504e-07
-0.00113205
-5.10013e-08
-1.19398e-06
2.72972e-07
-2.37591e-07
-8.56278e-07
2.66817e-07
-2.16414e-07
9.12042e-07
1.27327e-06
0.00113103
-1.25046e-07
-0.00113104
-5.11285e-08
-1.23065e-06
2.78344e-07
-2.43046e-07
-8.56285e-07
2.66657e-07
-2.16411e-07
9.11854e-07
-1.26365e-07
-5.15101e-08
0.00113085
-2.37185e-07
1.26806e-06
2.7299e-07
9.0955e-07
-2.13298e-07
2.64318e-07
-8.53268e-07
-1.25388e-07
-0.00113177
-5.1245e-08
-1.19657e-06
2.70149e-07
-2.3464e-07
-8.53586e-07
2.63998e-07
9.09254e-07
-2.13645e-07
1.26779e-06
0.00113083
-1.25131e-07
-0.00113084
-5.10234e-08
-1.22522e-06
2.72713e-07
-2.37409e-07
-8.53619e-07
2.63933e-07
-2.13651e-07
9.09202e-07
-1.9616e-07
-2.03791e-07
0.000268163
-1.2338e-06
0.000270204
-0.000268178
2.36445e-07
2.44028e-07
-1.26708e-07
-5.16379e-08
0.00113196
-2.34563e-07
1.23419e-06
2.70518e-07
9.09737e-07
-2.16044e-07
2.6715e-07
-8.53301e-07
-1.25506e-07
-0.00113141
-5.11225e-08
-1.19114e-06
2.7014e-07
-2.3468e-07
-8.53407e-07
2.66707e-07
9.09171e-07
-2.16356e-07
1.23392e-06
0.00113193
-1.25467e-07
-0.00113194
-5.11519e-08
-1.19127e-06
2.70242e-07
-2.34786e-07
-8.53652e-07
2.66765e-07
-2.16397e-07
9.09389e-07
-0.000268191
2.3889e-07
2.44198e-07
1.23068e-06
1.19408e-06
-1.96424e-07
-2.04203e-07
0.000268202
-1.2729e-06
-1.23624e-06
0.000270248
-0.000268218
2.35821e-07
2.43759e-07
-5.12446e-08
0.00113092
-2.4026e-07
1.27319e-06
2.75477e-07
9.091e-07
-2.13816e-07
-8.53766e-07
2.63835e-07
-1.23622e-06
-1.25249e-07
-5.09814e-08
0.00113137
-2.43175e-07
1.27863e-06
2.78247e-07
9.14671e-07
-2.16595e-07
-8.59253e-07
2.66647e-07
0.00113091
-1.23458e-07
-0.00113091
-5.05538e-08
-1.23093e-06
2.75174e-07
-2.40518e-07
-8.54173e-07
2.63405e-07
-2.14216e-07
9.08708e-07
1.27833e-06
0.00113135
-1.23591e-07
-0.00113136
-5.02949e-08
-1.23647e-06
2.77945e-07
-2.43434e-07
-8.5966e-07
2.66216e-07
-2.16995e-07
9.14274e-07
-1.99075e-07
-2.01561e-07
0.000268224
-1.23896e-06
0.000270277
-0.00026824
2.38662e-07
2.40962e-07
-5.10989e-08
0.00113203
-2.37683e-07
1.23653e-06
2.72911e-07
9.11966e-07
-2.16553e-07
-8.56423e-07
2.66727e-07
-1.23075e-06
-1.25149e-07
-5.11647e-08
0.00113103
-2.43138e-07
1.27321e-06
2.78282e-07
9.11779e-07
-2.16543e-07
-8.56431e-07
2.6657e-07
0.00113201
-1.23942e-07
-0.00113202
-5.03743e-08
-1.19433e-06
2.72609e-07
-2.37938e-07
-8.56836e-07
2.66305e-07
-2.16954e-07
9.11574e-07
1.27292e-06
0.00113101
-1.23491e-07
-0.00113101
-5.04826e-08
-1.231e-06
2.7798e-07
-2.43396e-07
-8.56837e-07
2.66139e-07
-2.16943e-07
9.11382e-07
-1.25217e-07
-5.10639e-08
0.00113082
-2.375e-07
1.26774e-06
2.72653e-07
9.09126e-07
-2.13783e-07
2.63844e-07
-8.53766e-07
-1.23808e-07
-0.00113175
-5.0615e-08
-1.19691e-06
2.69785e-07
-2.34988e-07
-8.5414e-07
2.63478e-07
9.0878e-07
-2.14179e-07
1.26744e-06
0.0011308
-1.23562e-07
-0.00113081
-5.03842e-08
-1.22557e-06
2.72348e-07
-2.37759e-07
-8.54171e-07
2.63415e-07
-2.14181e-07
9.0873e-07
-1.96475e-07
-2.04111e-07
0.000268183
-1.23345e-06
0.000270226
-0.000268199
2.35974e-07
2.43559e-07
-1.25567e-07
-5.11863e-08
0.00113193
-2.34877e-07
1.23386e-06
2.70182e-07
9.09312e-07
-2.1653e-07
2.66676e-07
-8.538e-07
-1.2393e-07
-0.00113138
-5.04967e-08
-1.19149e-06
2.69777e-07
-2.35028e-07
-8.53958e-07
2.66189e-07
9.08697e-07
-2.16888e-07
1.23356e-06
0.00113191
-1.23899e-07
-0.00113191
-5.05163e-08
-1.19161e-06
2.6988e-07
-2.35133e-07
-8.54206e-07
2.66245e-07
-2.16931e-07
9.08915e-07
-0.000268212
2.38422e-07
2.43727e-07
1.23105e-06
1.19445e-06
-1.96791e-07
-2.04573e-07
0.000268224
-1.27251e-06
-1.23585e-06
0.00027027
-0.00026824
2.35324e-07
2.4326e-07
-5.06582e-08
0.0011309
-2.40628e-07
1.27284e-06
2.75116e-07
9.0863e-07
-2.14369e-07
-8.54345e-07
2.63318e-07
-1.2366e-06
-1.2377e-07
-5.03768e-08
0.00113135
-2.43544e-07
1.27828e-06
2.77886e-07
9.14201e-07
-2.17148e-07
-8.59833e-07
2.6613e-07
0.00113088
-1.21509e-07
-0.00113089
-4.97613e-08
-1.23134e-06
2.74777e-07
-2.40913e-07
-8.54795e-07
2.62839e-07
-2.14803e-07
9.08181e-07
1.27795e-06
0.00113133
-1.21641e-07
-0.00113134
-4.9495e-08
-1.23688e-06
2.77552e-07
-2.43827e-07
-8.60284e-07
2.65648e-07
-2.17585e-07
9.13746e-07
-1.99443e-07
-2.01929e-07
0.000268245
-1.23857e-06
0.0002703
-0.000268262
2.38162e-07
2.40467e-07
-5.05136e-08