/*--------------------------------*- C++ -*----------------------------------*\
| =========                 |                                                 |
| \\      /  F ield         | OpenFOAM: The Open Source CFD Toolbox           |
|  \\    /   O peration     | Version:  v1906                                 |
|   \\  /    A nd           | Web:      www.OpenFOAM.com                      |
|    \\/     M anipulation  |                                                 |
\*---------------------------------------------------------------------------*/
FoamFile
{
    version     2.0;
    format      ascii;
    class       volVectorField;
    location    "900";
    object      U;
}
// * * * * * * * * * * * * * * * * * * * * * * * * * * * * * * * * * * * * * //

dimensions      [0 1 -1 0 0 0 0];


internalField   nonuniform List<vector> 
43024
(
(-1.02776e-05 -1.02652e-05 0.112444)
(1.13959e-05 -6.20125e-06 0.107483)
(-6.18673e-06 1.14093e-05 0.107483)
(-2.37711e-05 -2.37822e-05 0.104205)
(-1.05288e-05 -1.05177e-05 0.112408)
(1.14667e-05 -6.27569e-06 0.107476)
(-6.26259e-06 1.14809e-05 0.107475)
(-2.37109e-05 -2.37204e-05 0.10421)
(-1.0724e-05 -1.07119e-05 0.112373)
(1.14949e-05 -6.32316e-06 0.10747)
(-6.31029e-06 1.15091e-05 0.107469)
(-2.36814e-05 -2.36894e-05 0.104215)
(-1.08674e-05 -1.0854e-05 0.112338)
(1.14838e-05 -6.34721e-06 0.107464)
(-6.33532e-06 1.14978e-05 0.107463)
(-2.36817e-05 -2.36864e-05 0.104221)
(-1.09615e-05 -1.09469e-05 0.112305)
(1.14337e-05 -6.34871e-06 0.107459)
(-6.33733e-06 1.14483e-05 0.107459)
(-2.37086e-05 -2.37104e-05 0.104228)
(-1.10094e-05 -1.09932e-05 0.112272)
(1.13465e-05 -6.32785e-06 0.107455)
(-6.31688e-06 1.13607e-05 0.107455)
(-2.37631e-05 -2.37639e-05 0.104235)
(-1.10139e-05 -1.09963e-05 0.112239)
(1.12303e-05 -6.2878e-06 0.107452)
(-6.27716e-06 1.12445e-05 0.107451)
(-2.38428e-05 -2.38424e-05 0.104243)
(-1.09781e-05 -1.09594e-05 0.112208)
(1.10832e-05 -6.2275e-06 0.107449)
(-6.2172e-06 1.10978e-05 0.107448)
(-2.39478e-05 -2.39474e-05 0.104251)
(-1.09057e-05 -1.08866e-05 0.112177)
(1.09093e-05 -6.14892e-06 0.107447)
(-6.13879e-06 1.09244e-05 0.107446)
(-2.40751e-05 -2.40758e-05 0.10426)
(-1.08003e-05 -1.0781e-05 0.112147)
(1.07135e-05 -6.05453e-06 0.107445)
(-6.0445e-06 1.07287e-05 0.107444)
(-2.42231e-05 -2.42248e-05 0.104268)
(-1.06658e-05 -1.06464e-05 0.112118)
(1.04989e-05 -5.94738e-06 0.107444)
(-5.93726e-06 1.05151e-05 0.107443)
(-2.43871e-05 -2.43895e-05 0.104278)
(-1.0508e-05 -1.04883e-05 0.11209)
(1.02713e-05 -5.83225e-06 0.107443)
(-5.8217e-06 1.02884e-05 0.107443)
(-2.45741e-05 -2.4577e-05 0.104287)
(-1.03364e-05 -1.03165e-05 0.112063)
(1.00415e-05 -5.71099e-06 0.107443)
(-5.70149e-06 1.00596e-05 0.107443)
(-2.47694e-05 -2.47733e-05 0.104296)
(-1.01662e-05 -1.01464e-05 0.112038)
(9.81209e-06 -5.58732e-06 0.107444)
(-5.57769e-06 9.8308e-06 0.107443)
(-2.49674e-05 -2.49726e-05 0.104306)
(-1.00227e-05 -1.00032e-05 0.112014)
(9.60268e-06 -5.46744e-06 0.107445)
(-5.45767e-06 9.62208e-06 0.107444)
(-2.51495e-05 -2.51573e-05 0.104315)
(-9.958e-06 -9.93938e-06 0.111992)
(9.43108e-06 -5.34321e-06 0.107447)
(-5.33386e-06 9.4513e-06 0.107446)
(-2.52611e-05 -2.52721e-05 0.104325)
(-1.00922e-05 -1.00744e-05 0.111973)
(9.30672e-06 -5.16924e-06 0.10745)
(-5.16051e-06 9.32693e-06 0.10745)
(-2.51287e-05 -2.51442e-05 0.104335)
(-1.07177e-05 -1.06995e-05 0.111956)
(9.16649e-06 -4.78736e-06 0.107454)
(-4.78165e-06 9.18727e-06 0.107454)
(-2.41234e-05 -2.41462e-05 0.104348)
(-1.2509e-05 -1.2487e-05 0.111943)
(8.65162e-06 -3.5878e-06 0.107461)
(-3.59416e-06 8.67854e-06 0.10746)
(-1.99714e-05 -2.00065e-05 0.104368)
(-2.16724e-05 -2.16087e-05 0.111931)
(1.05636e-05 -2.07182e-06 0.107472)
(-2.14037e-06 1.06552e-05 0.107471)
(-4.92184e-06 -4.90545e-06 0.104422)
(-2.50162e-05 -2.48658e-05 0.112034)
(0.000121414 -5.98304e-05 0.10773)
(-5.99346e-05 0.000121476 0.10773)
(4.08818e-05 4.08876e-05 0.10478)
(-4.15703e-05 -4.15599e-05 0.104319)
(-6.15412e-06 -1.13396e-05 0.107484)
(6.14825e-06 -1.13408e-05 0.107483)
(4.15613e-05 -4.15531e-05 0.104319)
(-1.13714e-05 -6.16471e-06 0.107485)
(-1.13327e-05 6.16572e-06 0.107482)
(1.13659e-05 -6.17523e-06 0.107485)
(1.13487e-05 6.143e-06 0.107483)
(-4.15324e-05 4.15801e-05 0.104318)
(-6.16158e-06 1.13801e-05 0.107485)
(6.18226e-06 1.13705e-05 0.107484)
(4.15692e-05 4.15464e-05 0.104318)
(2.37651e-05 2.3768e-05 0.104205)
(-4.14354e-05 -4.14249e-05 0.104323)
(-6.18094e-06 -1.13699e-05 0.107482)
(6.17464e-06 -1.13716e-05 0.107481)
(-6.23382e-06 -1.14172e-05 0.107476)
(6.22955e-06 -1.1419e-05 0.107475)
(-2.37658e-05 2.37343e-05 0.104205)
(4.14324e-05 -4.14236e-05 0.104323)
(-1.14012e-05 -6.19168e-06 0.107483)
(-1.13632e-05 6.19271e-06 0.10748)
(-1.14483e-05 -6.24296e-06 0.107477)
(-1.14087e-05 6.24535e-06 0.107475)
(1.1379e-05 6.16977e-06 0.107481)
(1.14439e-05 -6.25291e-06 0.107478)
(1.14245e-05 6.22148e-06 0.107475)
(2.37519e-05 -2.37717e-05 0.104205)
(-4.14016e-05 4.14496e-05 0.104322)
(6.20814e-06 1.14012e-05 0.107482)
(-6.23933e-06 1.14585e-05 0.107477)
(6.26002e-06 1.14475e-05 0.107477)
(4.14402e-05 4.14189e-05 0.104322)
(2.37046e-05 2.37076e-05 0.10421)
(-4.13011e-05 -4.12876e-05 0.104327)
(-6.25638e-06 -1.14403e-05 0.107474)
(6.25186e-06 -1.14426e-05 0.107474)
(-6.2863e-06 -1.14519e-05 0.107469)
(6.28108e-06 -1.14544e-05 0.107469)
(-2.37083e-05 2.3677e-05 0.10421)
(4.12962e-05 -4.12891e-05 0.104327)
(-1.14707e-05 -6.26597e-06 0.107476)
(-1.14322e-05 6.26782e-06 0.107473)
(-1.14831e-05 -6.29365e-06 0.107471)
(-1.14442e-05 6.29752e-06 0.107468)
(1.14475e-05 6.24407e-06 0.107474)
(1.14788e-05 -6.30401e-06 0.107471)
(1.1459e-05 6.27618e-06 0.107469)
(2.36965e-05 -2.37159e-05 0.10421)
(-4.1268e-05 4.1314e-05 0.104327)
(6.28181e-06 1.14711e-05 0.107475)
(-6.2909e-06 1.1494e-05 0.10747)
(6.31169e-06 1.14833e-05 0.10747)
(4.13014e-05 4.12818e-05 0.104326)
(2.36721e-05 2.36783e-05 0.104215)
(-4.11586e-05 -4.11421e-05 0.104332)
(-6.30499e-06 -1.14678e-05 0.107468)
(6.29909e-06 -1.14711e-05 0.107467)
(-6.31383e-06 -1.14442e-05 0.107464)
(6.30599e-06 -1.1449e-05 0.107463)
(-2.36791e-05 2.36461e-05 0.104215)
(4.11527e-05 -4.11479e-05 0.104332)
(-1.14989e-05 -6.3125e-06 0.107469)
(-1.14612e-05 6.31581e-06 0.107467)
(-1.14774e-05 -6.31859e-06 0.107465)
(-1.14397e-05 6.32332e-06 0.107462)
(1.14755e-05 6.29432e-06 0.107467)
(1.14729e-05 -6.33077e-06 0.107465)
(1.14525e-05 6.30389e-06 0.107463)
(2.36641e-05 -2.36859e-05 0.104215)
(-4.11286e-05 4.11705e-05 0.104332)
(6.32913e-06 1.15e-05 0.107469)
(-6.31839e-06 1.14877e-05 0.107465)
(6.3362e-06 1.14773e-05 0.107464)
(4.11585e-05 4.11421e-05 0.104332)
(2.36686e-05 2.36777e-05 0.104221)
(-4.10038e-05 -4.09846e-05 0.104338)
(-6.32941e-06 -1.14553e-05 0.107462)
(6.32056e-06 -1.14608e-05 0.107462)
(-6.31705e-06 -1.13981e-05 0.107458)
(6.30495e-06 -1.14051e-05 0.107458)
(-2.36802e-05 2.36447e-05 0.104221)
(4.09921e-05 -4.09913e-05 0.104338)
(-1.14883e-05 -6.33432e-06 0.107464)
(-1.14518e-05 6.33823e-06 0.107461)
(-1.1433e-05 -6.31926e-06 0.10746)
(-1.13968e-05 6.32338e-06 0.107457)
(1.14638e-05 6.31823e-06 0.107462)
(1.14272e-05 -6.33326e-06 0.10746)
(1.14068e-05 6.30724e-06 0.107458)
(2.36612e-05 -2.36868e-05 0.104221)
(-4.09729e-05 4.10103e-05 0.104338)
(6.34963e-06 1.14891e-05 0.107463)
(-6.32126e-06 1.14419e-05 0.107459)
(6.3366e-06 1.14331e-05 0.107459)
(4.09997e-05 4.09864e-05 0.104337)
(2.36957e-05 2.37074e-05 0.104228)
(-4.08423e-05 -4.08205e-05 0.104345)
(-6.33159e-06 -1.14049e-05 0.107458)
(6.31823e-06 -1.14126e-05 0.107457)
(-6.29901e-06 -1.1317e-05 0.107454)
(6.28242e-06 -1.13267e-05 0.107453)
(-2.37096e-05 2.367e-05 0.104228)
(4.0827e-05 -4.08308e-05 0.104345)
(-1.14396e-05 -6.33398e-06 0.107459)
(-1.14046e-05 6.33695e-06 0.107456)
(-1.13537e-05 -6.29885e-06 0.107455)
(-1.13184e-05 6.30137e-06 0.107453)
(1.1414e-05 6.321e-06 0.107457)
(1.13459e-05 -6.3151e-06 0.107456)
(1.13265e-05 6.28744e-06 0.107453)
(2.36855e-05 -2.37156e-05 0.104228)
(-4.0813e-05 4.08456e-05 0.104344)
(6.34982e-06 1.14409e-05 0.107458)
(-6.30481e-06 1.13609e-05 0.107455)
(6.31423e-06 1.1354e-05 0.107455)
(4.08361e-05 4.08241e-05 0.104344)
(2.37484e-05 2.37625e-05 0.104235)
(-4.06731e-05 -4.06494e-05 0.104352)
(-6.31088e-06 -1.13179e-05 0.107453)
(6.29324e-06 -1.13285e-05 0.107453)
(-6.25761e-06 -1.12004e-05 0.10745)
(6.23742e-06 -1.12134e-05 0.10745)
(-2.37656e-05 2.37216e-05 0.104235)
(4.06549e-05 -4.06623e-05 0.104352)
(-1.1354e-05 -6.31082e-06 0.107455)
(-1.13204e-05 6.31241e-06 0.107452)
(-1.12386e-05 -6.25535e-06 0.107452)
(-1.12045e-05 6.25648e-06 0.107449)
(1.13273e-05 6.29856e-06 0.107453)
(1.12288e-05 -6.27375e-06 0.107452)
(1.12099e-05 6.2446e-06 0.10745)
(2.37367e-05 -2.37714e-05 0.104235)
(-4.06442e-05 4.06732e-05 0.104351)
(6.32478e-06 1.13554e-05 0.107454)
(-6.2641e-06 1.12438e-05 0.107451)
(6.26943e-06 1.12385e-05 0.107451)
(4.06646e-05 4.0654e-05 0.104351)
(2.38267e-05 2.38422e-05 0.104243)
(-4.04944e-05 -4.04699e-05 0.104359)
(-6.27086e-06 -1.12023e-05 0.10745)
(6.24908e-06 -1.12147e-05 0.107449)
(-6.19278e-06 -1.10493e-05 0.107447)
(6.16912e-06 -1.10628e-05 0.107446)
(-2.38461e-05 2.37993e-05 0.104243)
(4.04744e-05 -4.04838e-05 0.104359)
(-1.12397e-05 -6.26887e-06 0.107451)
(-1.12073e-05 6.269e-06 0.107449)
(-1.10886e-05 -6.18955e-06 0.107448)
(-1.10552e-05 6.18912e-06 0.107446)
(1.12117e-05 6.25705e-06 0.107449)
(1.10767e-05 -6.20909e-06 0.107449)
(1.10586e-05 6.17886e-06 0.107446)
(2.38145e-05 -2.38525e-05 0.104243)
(-4.04662e-05 4.04928e-05 0.104359)
(6.28152e-06 1.12407e-05 0.107451)
(-6.19951e-06 1.10922e-05 0.107448)
(6.20291e-06 1.10877e-05 0.107448)
(4.04844e-05 4.04742e-05 0.104359)
(2.39309e-05 2.39467e-05 0.104251)
(-4.03063e-05 -4.02821e-05 0.104367)
(-6.21057e-06 -1.10562e-05 0.107447)
(6.18543e-06 -1.10699e-05 0.107446)
(-6.10574e-06 -1.08659e-05 0.107444)
(6.08026e-06 -1.08796e-05 0.107444)
(-2.39517e-05 2.39029e-05 0.104251)
(4.02859e-05 -4.0296e-05 0.104367)
(-1.10939e-05 -6.20772e-06 0.107448)
(-1.10627e-05 6.20616e-06 0.107446)
(-1.09053e-05 -6.10264e-06 0.107446)
(-1.08722e-05 6.10055e-06 0.107443)
(1.10652e-05 6.1957e-06 0.107446)
(1.08921e-05 -6.12229e-06 0.107446)
(1.08748e-05 6.09101e-06 0.107444)
(2.39178e-05 -2.39579e-05 0.104251)
(-4.02784e-05 4.03048e-05 0.104367)
(6.21983e-06 1.10946e-05 0.107448)
(-6.11276e-06 1.09078e-05 0.107446)
(6.1155e-06 1.09037e-05 0.107445)
(4.02969e-05 4.02858e-05 0.104366)
(2.40591e-05 2.40744e-05 0.10426)
(-4.01091e-05 -4.00858e-05 0.104375)
(-6.13197e-06 -1.08833e-05 0.107445)
(6.10542e-06 -1.08971e-05 0.107444)
(-5.99716e-06 -1.06511e-05 0.107442)
(5.97159e-06 -1.06647e-05 0.107441)
(-2.408e-05 2.40308e-05 0.10426)
(4.00894e-05 -4.00986e-05 0.104376)
(-1.09205e-05 -6.12937e-06 0.107446)
(-1.08901e-05 6.12629e-06 0.107444)
(-1.06903e-05 -5.9947e-06 0.107444)
(-1.06572e-05 5.99207e-06 0.107441)
(1.08921e-05 6.11613e-06 0.107444)
(1.06772e-05 -6.01364e-06 0.107444)
(1.06603e-05 5.98208e-06 0.107442)
(2.40456e-05 -2.40857e-05 0.10426)
(-4.00806e-05 4.01083e-05 0.104375)
(6.141e-06 1.0921e-05 0.107446)
(-6.00389e-06 1.0693e-05 0.107443)
(6.00774e-06 1.06886e-05 0.107443)
(4.01006e-05 4.00887e-05 0.104375)
(2.42085e-05 2.42228e-05 0.104269)
(-3.99012e-05 -3.98784e-05 0.104384)
(-6.03773e-06 -1.06871e-05 0.107443)
(6.0114e-06 -1.07009e-05 0.107442)
(-5.86622e-06 -1.04022e-05 0.10744)
(5.84142e-06 -1.04149e-05 0.10744)
(-2.42286e-05 2.41803e-05 0.104269)
(3.98821e-05 -3.98899e-05 0.104384)
(-1.07236e-05 -6.03564e-06 0.107444)
(-1.06937e-05 6.03271e-06 0.107442)
(-1.04407e-05 -5.86411e-06 0.107442)
(-1.04075e-05 5.86308e-06 0.107439)
(1.06965e-05 6.02181e-06 0.107443)
(1.04285e-05 -5.88257e-06 0.107442)
(1.04122e-05 5.85184e-06 0.10744)
(2.41956e-05 -2.42341e-05 0.104269)
(-3.98708e-05 3.99013e-05 0.104384)
(6.04778e-06 1.07248e-05 0.107444)
(-5.87342e-06 1.04452e-05 0.107442)
(5.87797e-06 1.044e-05 0.107441)
(3.9893e-05 3.98805e-05 0.104383)
(2.43748e-05 2.43883e-05 0.104278)
(-3.96786e-05 -3.96563e-05 0.104393)
(-5.93051e-06 -1.04722e-05 0.107442)
(5.90516e-06 -1.0485e-05 0.107441)
(-5.71272e-06 -1.01168e-05 0.107439)
(5.68968e-06 -1.01286e-05 0.107438)
(-2.43932e-05 2.43467e-05 0.104278)
(3.96582e-05 -3.96642e-05 0.104393)
(-1.05082e-05 -5.92893e-06 0.107443)
(-1.0478e-05 5.92677e-06 0.107441)
(-1.0155e-05 -5.71123e-06 0.10744)
(-1.01216e-05 5.71152e-06 0.107438)
(1.04823e-05 5.91563e-06 0.107441)
(1.01432e-05 -5.72931e-06 0.107441)
(1.01273e-05 5.69978e-06 0.107438)
(2.43601e-05 -2.43965e-05 0.104278)
(-3.96504e-05 3.96841e-05 0.104392)
(5.94186e-06 1.05102e-05 0.107443)
(-5.71925e-06 1.01605e-05 0.10744)
(5.72613e-06 1.01548e-05 0.10744)
(3.9673e-05 3.96604e-05 0.104392)
(2.45622e-05 2.45752e-05 0.104287)
(-3.94473e-05 -3.94254e-05 0.104402)
(-5.81582e-06 -1.02449e-05 0.107441)
(5.79169e-06 -1.02567e-05 0.107441)
(-5.53459e-06 -9.79306e-06 0.107438)
(5.51118e-06 -9.80372e-06 0.107437)
(-2.45795e-05 2.45346e-05 0.104287)
(3.94299e-05 -3.9434e-05 0.104402)
(-1.02807e-05 -5.81454e-06 0.107443)
(-1.02502e-05 5.81333e-06 0.10744)
(-9.83092e-06 -5.53351e-06 0.107439)
(-9.79727e-06 5.534e-06 0.107437)
(1.0255e-05 5.80159e-06 0.107441)
(9.81874e-06 -5.54895e-06 0.10744)
(9.8028e-06 5.5204e-06 0.107437)
(2.45477e-05 -2.4582e-05 0.104287)
(-3.94191e-05 3.94549e-05 0.104402)
(5.82807e-06 1.02827e-05 0.107442)
(-5.53977e-06 9.83708e-06 0.107439)
(5.54739e-06 9.83016e-06 0.107438)
(3.94416e-05 3.94287e-05 0.104401)
(2.47568e-05 2.4769e-05 0.104297)
(-3.91828e-05 -3.91615e-05 0.104411)
(-5.69613e-06 -1.00159e-05 0.107441)
(5.67212e-06 -1.00264e-05 0.107441)
(-5.32974e-06 -9.42686e-06 0.107437)
(5.30642e-06 -9.43583e-06 0.107436)
(-2.47704e-05 2.47273e-05 0.104297)
(3.91753e-05 -3.91772e-05 0.104411)
(-1.00514e-05 -5.69514e-06 0.107443)
(-1.00209e-05 5.69466e-06 0.10744)
(-9.46436e-06 -5.32979e-06 0.107438)
(-9.43007e-06 5.32945e-06 0.107435)
(1.00253e-05 5.68162e-06 0.107441)
(9.45129e-06 -5.34266e-06 0.107438)
(9.43538e-06 5.31426e-06 0.107436)
(2.47439e-05 -2.47756e-05 0.104296)
(-3.91611e-05 3.91988e-05 0.104411)
(5.7088e-06 1.00527e-05 0.107442)
(-5.3335e-06 9.47019e-06 0.107438)
(5.34247e-06 9.46206e-06 0.107437)
(3.91831e-05 3.91694e-05 0.10441)
(2.49564e-05 2.49676e-05 0.104306)
(-3.88826e-05 -3.8863e-05 0.10442)
(-5.57334e-06 -9.78755e-06 0.107442)
(5.54968e-06 -9.79639e-06 0.107441)
(-5.09913e-06 -9.0112e-06 0.107436)
(5.08016e-06 -9.01959e-06 0.107435)
(-2.49714e-05 2.49306e-05 0.104306)
(3.887e-05 -3.88706e-05 0.104421)
(-9.82239e-06 -5.57312e-06 0.107443)
(-9.7914e-06 5.57186e-06 0.107441)
(-9.0479e-06 -5.1006e-06 0.107437)
(-9.01373e-06 5.10254e-06 0.107435)
(9.79564e-06 5.55736e-06 0.107441)
(9.0358e-06 -5.11427e-06 0.107437)
(9.01968e-06 5.08509e-06 0.107435)
(2.49435e-05 -2.49725e-05 0.104306)
(-3.88543e-05 3.88933e-05 0.10442)
(5.58575e-06 9.82204e-06 0.107443)
(-5.10421e-06 9.05498e-06 0.107437)
(5.11482e-06 9.04492e-06 0.107436)
(3.88791e-05 3.88642e-05 0.10442)
(2.51378e-05 2.51466e-05 0.104316)
(-3.84858e-05 -3.84681e-05 0.10443)
(-5.45208e-06 -9.57797e-06 0.107443)
(5.43157e-06 -9.58596e-06 0.107442)
(-4.85459e-06 -8.53824e-06 0.107435)
(4.8394e-06 -8.54603e-06 0.107434)
(-2.51513e-05 2.51122e-05 0.104316)
(3.84789e-05 -3.84777e-05 0.10443)
(-9.61206e-06 -5.45316e-06 0.107444)
(-9.58152e-06 5.45333e-06 0.107442)
(-8.57305e-06 -4.85823e-06 0.107436)
(-8.53988e-06 4.86074e-06 0.107433)
(9.58628e-06 5.4367e-06 0.107442)
(8.56298e-06 -4.8706e-06 0.107436)
(8.54799e-06 4.84227e-06 0.107434)
(2.51254e-05 -2.51526e-05 0.104316)
(-3.84617e-05 3.85013e-05 0.104429)
(5.4671e-06 9.61117e-06 0.107444)
(-4.85977e-06 8.58208e-06 0.107436)
(4.8737e-06 8.57147e-06 0.107435)
(3.84858e-05 3.84696e-05 0.104429)
(2.52523e-05 2.52585e-05 0.104326)
(-3.78631e-05 -3.78474e-05 0.104438)
(-5.32682e-06 -9.40617e-06 0.107445)
(5.30891e-06 -9.41292e-06 0.107444)
(-4.63117e-06 -8.00841e-06 0.107433)
(4.61942e-06 -8.01559e-06 0.107432)
(-2.52634e-05 2.52264e-05 0.104325)
(3.78564e-05 -3.78547e-05 0.104439)
(-9.43804e-06 -5.32979e-06 0.107446)
(-9.40913e-06 5.33024e-06 0.107444)
(-8.04134e-06 -4.6366e-06 0.107434)
(-8.00861e-06 4.63972e-06 0.107432)
(9.4158e-06 5.31325e-06 0.107445)
(8.03293e-06 -4.6477e-06 0.107435)
(8.01852e-06 4.62036e-06 0.107433)
(2.52403e-05 -2.52644e-05 0.104325)
(-3.78412e-05 3.78762e-05 0.104438)
(5.34582e-06 9.43867e-06 0.107446)
(-4.63634e-06 8.05155e-06 0.107434)
(4.6535e-06 8.04089e-06 0.107434)
(3.78643e-05 3.78484e-05 0.104438)
(2.51248e-05 2.51292e-05 0.104336)
(-3.64969e-05 -3.64828e-05 0.104446)
(-5.15221e-06 -9.28095e-06 0.107448)
(5.13513e-06 -9.28566e-06 0.107448)
(-4.57034e-06 -7.47048e-06 0.107431)
(4.5619e-06 -7.47668e-06 0.10743)
(-2.51344e-05 2.51001e-05 0.104336)
(3.64912e-05 -3.64927e-05 0.104446)
(-9.31149e-06 -5.15736e-06 0.10745)
(-9.28287e-06 5.15606e-06 0.107447)
(-7.50236e-06 -4.57553e-06 0.107432)
(-7.46955e-06 4.58111e-06 0.10743)
(9.29148e-06 5.14021e-06 0.107448)
(7.4947e-06 -4.58679e-06 0.107433)
(7.48016e-06 4.56062e-06 0.107431)
(2.51146e-05 -2.51332e-05 0.104336)
(-3.6484e-05 3.6508e-05 0.104445)
(5.17515e-06 9.31326e-06 0.107449)
(-4.5753e-06 7.51319e-06 0.107432)
(4.59317e-06 7.50149e-06 0.107432)
(3.64985e-05 3.64879e-05 0.104445)
(2.41226e-05 2.41282e-05 0.104348)
(-3.26046e-05 -3.25802e-05 0.104446)
(-4.77082e-06 -9.13822e-06 0.107453)
(4.75218e-06 -9.14198e-06 0.107452)
(-5.07818e-06 -7.09199e-06 0.107428)
(5.07502e-06 -7.10139e-06 0.107427)
(-2.41314e-05 2.41031e-05 0.104348)
(3.25825e-05 -3.26011e-05 0.104447)
(-9.1737e-06 -4.77769e-06 0.107454)
(-9.14255e-06 4.77475e-06 0.107452)
(-7.12832e-06 -5.07526e-06 0.107429)
(-7.10084e-06 5.09376e-06 0.107427)
(9.15383e-06 4.76118e-06 0.107452)
(7.11522e-06 -5.09145e-06 0.10743)
(7.10662e-06 5.06897e-06 0.107428)
(2.41197e-05 -2.41267e-05 0.104348)
(-3.25964e-05 3.25982e-05 0.104446)
(4.79712e-06 9.17642e-06 0.107453)
(-5.08033e-06 7.13788e-06 0.107429)
(5.09127e-06 7.12433e-06 0.107429)
(3.25923e-05 3.25855e-05 0.104446)
(1.99758e-05 1.99906e-05 0.104368)
(-2.2194e-05 -2.22072e-05 0.104422)
(-3.57569e-06 -8.62526e-06 0.107459)
(3.54884e-06 -8.62558e-06 0.107458)
(-8.10643e-06 -9.15025e-06 0.107424)
(8.08172e-06 -9.14603e-06 0.107423)
(-1.99767e-05 1.99738e-05 0.104368)
(2.21326e-05 -2.22158e-05 0.104423)
(-8.65967e-06 -3.58833e-06 0.10746)
(-8.63817e-06 3.57848e-06 0.107458)
(-9.17166e-06 -8.05426e-06 0.107425)
(-9.17719e-06 8.11714e-06 0.107423)
(8.64798e-06 3.57191e-06 0.107458)
(9.12642e-06 -8.05179e-06 0.107426)
(9.17474e-06 8.07992e-06 0.107423)
(1.99948e-05 -1.99671e-05 0.104368)
(-2.2232e-05 2.2174e-05 0.104422)
(3.60157e-06 8.65764e-06 0.10746)
(-8.07278e-06 9.17104e-06 0.107425)
(8.06932e-06 9.13939e-06 0.107425)
(2.22059e-05 2.21578e-05 0.104422)
(4.88048e-06 4.95276e-06 0.104423)
(-4.13342e-05 -4.11896e-05 0.104382)
(-2.13304e-06 -1.05577e-05 0.10747)
(2.06704e-06 -1.05349e-05 0.107469)
(-3.76283e-05 -5.54924e-05 0.107479)
(3.76088e-05 -5.55119e-05 0.107479)
(-4.91795e-06 4.95996e-06 0.104423)
(4.12664e-05 -4.11958e-05 0.104381)
(-1.0649e-05 -2.0944e-06 0.107471)
(-1.06346e-05 2.1261e-06 0.107469)
(-5.56453e-05 -3.7478e-05 0.107481)
(-5.55961e-05 3.76373e-05 0.107479)
(1.06221e-05 2.12938e-06 0.107469)
(5.55926e-05 -3.74798e-05 0.107481)
(5.56044e-05 3.76184e-05 0.107479)
(4.91607e-06 -4.8822e-06 0.104423)
(-4.12821e-05 4.1272e-05 0.104382)
(2.12442e-06 1.06193e-05 0.107471)
(-3.75646e-05 5.55998e-05 0.107481)
(3.75808e-05 5.56148e-05 0.10748)
(4.12715e-05 4.12691e-05 0.104381)
(-4.08924e-05 -4.07256e-05 0.104781)
(-6.00071e-05 -0.000121258 0.107729)
(5.99905e-05 -0.000121309 0.107728)
(4.08633e-05 -4.07552e-05 0.10478)
(-0.000121491 -5.98387e-05 0.10773)
(-0.000121438 6.0022e-05 0.107728)
(2.49983e-05 -2.48486e-05 0.112034)
(-2.49757e-05 2.50625e-05 0.112035)
(2.50046e-05 2.50418e-05 0.112034)
(0.00012145 6.00132e-05 0.107729)
(-4.08812e-05 4.08882e-05 0.10478)
(5.99727e-05 0.000121506 0.10773)
(-2.9631e-07 -1.65706e-05 0.0914274)
(-1.25447e-06 -1.20118e-05 0.0822863)
(3.33944e-06 -5.88793e-06 0.0716037)
(-1.66003e-05 -2.81006e-07 0.0914268)
(-1.20436e-05 -1.19271e-06 0.0822867)
(-1.02014e-05 -1.01882e-05 0.112452)
(1.01989e-05 -1.01905e-05 0.112452)
(-1.01818e-05 1.02099e-05 0.112451)
(1.02012e-05 1.01978e-05 0.112451)
(2.72661e-05 -6.94146e-07 0.098581)
(1.13093e-05 -6.12442e-06 0.107489)
(2.03763e-05 -7.77157e-06 0.0930684)
(1.44006e-05 -2.61273e-06 0.109908)
(-5.82082e-06 3.32559e-06 0.071605)
(-6.90789e-07 2.72276e-05 0.098581)
(-6.11162e-06 1.13231e-05 0.107489)
(-2.5938e-06 1.44101e-05 0.109907)
(-7.78176e-06 2.04298e-05 0.093068)
(4.16321e-05 4.16076e-05 0.104317)
(9.88693e-06 6.91731e-06 0.0876076)
(6.97331e-06 9.86395e-06 0.0876057)
(-2.94703e-07 -1.65089e-05 0.0914585)
(6.33563e-07 7.17091e-06 0.0822603)
(-2.47357e-07 4.97671e-06 0.091406)
(-1.28302e-06 -1.19471e-05 0.0823196)
(-2.52771e-06 4.3756e-06 0.0715725)
(3.37897e-06 -5.83844e-06 0.0716337)
(-1.65389e-05 -2.77084e-07 0.091458)
(7.1717e-06 6.0005e-07 0.0822595)
(5.00887e-06 -2.17641e-07 0.0914064)
(-1.19782e-05 -1.22112e-06 0.08232)
(1.0276e-05 -1.02676e-05 0.112443)
(-1.02588e-05 1.02865e-05 0.112442)
(1.02771e-05 1.02753e-05 0.112443)
(-1.04663e-05 -1.04533e-05 0.112417)
(1.04659e-05 -1.04549e-05 0.112417)
(-1.04475e-05 1.04761e-05 0.112416)
(1.04672e-05 1.04629e-05 0.112416)
(2.7236e-05 -6.88161e-07 0.0986025)
(-8.76657e-06 3.05831e-06 0.0930329)
(1.46331e-05 -2.66738e-06 0.109894)
(1.14091e-05 -6.21496e-06 0.107481)
(-7.99113e-06 -4.45466e-07 0.098541)
(2.03105e-05 -7.76558e-06 0.0930973)
(1.46909e-05 -2.68014e-06 0.109889)
(4.32117e-06 -2.47354e-06 0.0715698)
(-5.77015e-06 3.3678e-06 0.071635)
(-6.88231e-07 2.7198e-05 0.0986025)
(-2.64706e-06 1.46421e-05 0.109893)
(3.10437e-06 -8.80048e-06 0.0930335)
(-6.19993e-06 1.14234e-05 0.107481)
(-4.11161e-07 -7.9528e-06 0.0985408)
(-2.66055e-06 1.47018e-05 0.109889)
(-7.77897e-06 2.03641e-05 0.0930969)
(-3.61902e-06 -3.4571e-06 0.0875818)
(-3.44803e-06 -3.62185e-06 0.0875804)
(4.1508e-05 4.14857e-05 0.10432)
(9.80811e-06 6.93232e-06 0.0876392)
(6.98445e-06 9.7868e-06 0.0876373)
(-2.98195e-07 -1.64387e-05 0.0914897)
(5.9442e-07 7.21004e-06 0.0822935)
(-2.49162e-07 4.99051e-06 0.0914373)
(-1.31628e-06 -1.18761e-05 0.0823525)
(-2.4826e-06 4.39954e-06 0.0716023)
(3.41731e-06 -5.78872e-06 0.0716632)
(-1.6469e-05 -2.78055e-07 0.0914891)
(7.2112e-06 5.63115e-07 0.0822926)
(5.02373e-06 -2.19434e-07 0.0914378)
(-1.19095e-05 -1.25077e-06 0.0823529)
(1.05294e-05 -1.05189e-05 0.112408)
(-1.05111e-05 1.05404e-05 0.112407)
(1.05289e-05 1.05275e-05 0.112407)
(-1.06732e-05 -1.06595e-05 0.112381)
(1.06737e-05 -1.06619e-05 0.112381)
(-1.06538e-05 1.06844e-05 0.11238)
(1.06746e-05 1.06713e-05 0.11238)
(2.71821e-05 -6.85936e-07 0.0986244)
(-8.8113e-06 3.04216e-06 0.093062)
(1.48713e-05 -2.72344e-06 0.109876)
(1.14661e-05 -6.28033e-06 0.107474)
(-7.963e-06 -4.46259e-07 0.098563)
(2.02321e-05 -7.75085e-06 0.0931261)
(1.4908e-05 -2.73264e-06 0.109872)
(4.34529e-06 -2.42702e-06 0.0715996)
(-5.72052e-06 3.40536e-06 0.0716645)
(-6.92094e-07 2.71429e-05 0.0986245)
(-2.70613e-06 1.48812e-05 0.109875)
(3.08652e-06 -8.8452e-06 0.0930626)
(-6.26745e-06 1.14813e-05 0.107474)
(-4.10416e-07 -7.92748e-06 0.0985629)
(-2.71543e-06 1.49186e-05 0.109871)
(-7.76491e-06 2.02843e-05 0.0931258)
(-3.67792e-06 -3.43083e-06 0.0876134)
(-3.4267e-06 -3.6772e-06 0.087612)
(4.13707e-05 4.13502e-05 0.104324)
(9.7237e-06 6.94083e-06 0.0876706)
(6.98858e-06 9.70506e-06 0.0876687)
(-3.03019e-07 -1.63556e-05 0.0915207)
(5.56701e-07 7.2587e-06 0.0823262)
(-2.572e-07 5.02501e-06 0.0914685)
(-1.34634e-06 -1.1802e-05 0.0823849)
(-2.44045e-06 4.42564e-06 0.0716315)
(3.4516e-06 -5.73989e-06 0.0716922)
(-1.63856e-05 -2.77648e-07 0.0915202)
(7.25766e-06 5.29148e-07 0.0823253)
(5.0583e-06 -2.22449e-07 0.091469)
(-1.1838e-05 -1.27631e-06 0.0823853)
(1.07258e-05 -1.07145e-05 0.112373)
(-1.07063e-05 1.07367e-05 0.112372)
(1.07245e-05 1.07236e-05 0.112372)
(-1.08265e-05 -1.08117e-05 0.112347)
(1.08271e-05 -1.08151e-05 0.112347)
(-1.08074e-05 1.08379e-05 0.112346)
(1.08269e-05 1.08254e-05 0.112346)
(2.71003e-05 -6.81865e-07 0.0986466)
(-8.87299e-06 3.03639e-06 0.093091)
(1.50398e-05 -2.76778e-06 0.109859)
(1.14801e-05 -6.31912e-06 0.107468)
(-7.96984e-06 -4.47043e-07 0.0985854)
(2.01415e-05 -7.7314e-06 0.093155)
(1.50548e-05 -2.77319e-06 0.109855)
(4.37128e-06 -2.38568e-06 0.0716288)
(-5.67201e-06 3.43852e-06 0.0716935)
(-6.92253e-07 2.70624e-05 0.0986467)
(-2.75089e-06 1.50498e-05 0.109858)
(3.07834e-06 -8.90887e-06 0.0930916)
(-6.30652e-06 1.14951e-05 0.107467)
(-4.10058e-07 -7.93212e-06 0.0985853)
(-2.75623e-06 1.50656e-05 0.109854)
(-7.74802e-06 2.0193e-05 0.0931546)
(-3.74203e-06 -3.41322e-06 0.0876447)
(-3.4132e-06 -3.73946e-06 0.0876434)
(4.12311e-05 4.12133e-05 0.104329)
(9.63618e-06 6.93976e-06 0.0877017)
(6.98595e-06 9.61966e-06 0.0876998)
(-3.04395e-07 -1.62589e-05 0.0915516)
(5.21523e-07 7.31336e-06 0.0823583)
(-2.6204e-07 5.07739e-06 0.0914996)
(-1.3726e-06 -1.17265e-05 0.0824169)
(-2.40339e-06 4.45337e-06 0.0716601)
(3.48117e-06 -5.69203e-06 0.0717206)
(-1.62894e-05 -2.76297e-07 0.091551)
(7.31077e-06 4.96929e-07 0.0823574)
(5.11031e-06 -2.2295e-07 0.0915)
(-1.17635e-05 -1.30043e-06 0.0824172)
(1.08687e-05 -1.08579e-05 0.112338)
(-1.08499e-05 1.088e-05 0.112337)
(1.0866e-05 1.08673e-05 0.112338)
(-1.09287e-05 -1.09127e-05 0.112313)
(1.09282e-05 -1.09175e-05 0.112313)
(-1.091e-05 1.09395e-05 0.112312)
(1.0928e-05 1.09286e-05 0.112312)
(2.6996e-05 -6.75706e-07 0.0986691)
(-8.95167e-06 3.03831e-06 0.0931198)
(1.51427e-05 -2.79991e-06 0.109842)
(1.14541e-05 -6.3338e-06 0.107463)
(-8.0074e-06 -4.44011e-07 0.098608)
(2.00392e-05 -7.70783e-06 0.0931836)
(1.5135e-05 -2.80132e-06 0.109838)
(4.39849e-06 -2.34985e-06 0.0716574)
(-5.62454e-06 3.46758e-06 0.0717219)
(-6.88089e-07 2.69589e-05 0.0986692)
(-2.78394e-06 1.51534e-05 0.109842)
(3.07693e-06 -8.98846e-06 0.0931204)
(-6.32201e-06 1.14688e-05 0.107462)
(-4.08728e-07 -7.97054e-06 0.0986081)
(-2.78596e-06 1.51461e-05 0.109837)
(-7.72797e-06 2.00897e-05 0.0931832)
(-3.81055e-06 -3.40683e-06 0.0876756)
(-3.40823e-06 -3.80685e-06 0.0876743)
(4.10779e-05 4.10629e-05 0.104334)
(9.54664e-06 6.93274e-06 0.0877324)
(6.97786e-06 9.5302e-06 0.0877306)
(-3.04603e-07 -1.61519e-05 0.0915822)
(4.90178e-07 7.37287e-06 0.0823899)
(-2.65392e-07 5.1454e-06 0.0915303)
(-1.39448e-06 -1.16499e-05 0.0824482)
(-2.37178e-06 4.48174e-06 0.0716881)
(3.50628e-06 -5.64586e-06 0.0717483)
(-1.61831e-05 -2.7536e-07 0.0915816)
(7.37002e-06 4.66697e-07 0.082389)
(5.17785e-06 -2.24521e-07 0.0915308)
(-1.16876e-05 -1.32108e-06 0.0824486)
(1.09615e-05 -1.0952e-05 0.112305)
(-1.09446e-05 1.09732e-05 0.112304)
(1.09591e-05 1.09625e-05 0.112304)
(-1.09824e-05 -1.0965e-05 0.112279)
(1.09799e-05 -1.09716e-05 0.112279)
(-1.09642e-05 1.09917e-05 0.112278)
(1.0979e-05 1.09817e-05 0.112278)
(2.687e-05 -6.67784e-07 0.0986917)
(-9.04522e-06 3.04756e-06 0.0931484)
(1.51822e-05 -2.82119e-06 0.109827)
(1.139e-05 -6.32614e-06 0.107458)
(-8.07433e-06 -4.39972e-07 0.0986308)
(1.99265e-05 -7.67869e-06 0.093212)
(1.5151e-05 -2.8183e-06 0.109823)
(4.42626e-06 -2.31881e-06 0.0716854)
(-5.57877e-06 3.49222e-06 0.0717496)
(-6.8494e-07 2.68338e-05 0.0986919)
(-2.80695e-06 1.51939e-05 0.109826)
(3.08515e-06 -9.08301e-06 0.0931491)
(-6.31616e-06 1.14053e-05 0.107457)
(-4.06342e-07 -8.03767e-06 0.0986309)
(-2.80409e-06 1.51631e-05 0.109822)
(-7.69812e-06 1.99757e-05 0.0932117)
(-3.88404e-06 -3.40933e-06 0.0877062)
(-3.40989e-06 -3.87946e-06 0.0877049)
(4.09163e-05 4.09038e-05 0.104341)
(9.4527e-06 6.91978e-06 0.0877627)
(6.9657e-06 9.43644e-06 0.0877609)
(-3.01847e-07 -1.60353e-05 0.0916124)
(4.61484e-07 7.43635e-06 0.0824208)
(-2.67206e-07 5.22706e-06 0.0915608)
(-1.41146e-06 -1.15727e-05 0.082479)
(-2.34397e-06 4.51073e-06 0.0717152)
(3.52798e-06 -5.60097e-06 0.0717754)
(-1.6067e-05 -2.7327e-07 0.0916119)
(7.4338e-06 4.38629e-07 0.08242)
(5.25991e-06 -2.25503e-07 0.0915613)
(-1.16111e-05 -1.33726e-06 0.0824793)
(1.10073e-05 -1.10006e-05 0.112272)
(-1.09932e-05 1.10198e-05 0.112271)
(1.10048e-05 1.10099e-05 0.112271)
(-1.09893e-05 -1.09703e-05 0.112246)
(1.09843e-05 -1.09785e-05 0.112246)
(-1.0972e-05 1.0997e-05 0.112245)
(1.09837e-05 1.09881e-05 0.112246)
(2.67227e-05 -6.58626e-07 0.0987144)
(-9.15238e-06 3.06368e-06 0.0931767)
(1.51634e-05 -2.83121e-06 0.109812)
(1.12917e-05 -6.29689e-06 0.107454)
(-8.17002e-06 -4.34992e-07 0.0986537)
(1.98037e-05 -7.64398e-06 0.0932402)
(1.51084e-05 -2.82429e-06 0.109808)
(4.45641e-06 -2.29089e-06 0.0717126)
(-5.53294e-06 3.51428e-06 0.0717768)
(-6.75912e-07 2.66855e-05 0.0987146)
(-2.8183e-06 1.51752e-05 0.109811)
(3.10063e-06 -9.19039e-06 0.0931774)
(-6.28715e-06 1.13067e-05 0.107453)
(-4.02604e-07 -8.13388e-06 0.0986538)
(-2.81179e-06 1.5121e-05 0.109807)
(-7.66353e-06 1.98529e-05 0.0932399)
(-3.96131e-06 -3.41795e-06 0.0877362)
(-3.41795e-06 -3.95836e-06 0.0877349)
(4.07486e-05 4.07374e-05 0.104347)
(9.35796e-06 6.90045e-06 0.0877926)
(6.94656e-06 9.34012e-06 0.0877907)
(-2.95382e-07 -1.5908e-05 0.0916422)
(4.35957e-07 7.50285e-06 0.082451)
(-2.65843e-07 5.32412e-06 0.0915908)
(-1.42184e-06 -1.14947e-05 0.0825091)
(-2.31903e-06 4.54098e-06 0.0717416)
(3.5461e-06 -5.55627e-06 0.0718019)
(-1.59398e-05 -2.68354e-07 0.0916417)
(7.50158e-06 4.11998e-07 0.0824502)
(5.35655e-06 -2.24014e-07 0.0915913)
(-1.15333e-05 -1.34809e-06 0.0825094)
(1.10094e-05 -1.10051e-05 0.112239)
(-1.09985e-05 1.10229e-05 0.112238)
(1.10073e-05 1.10142e-05 0.112238)
(-1.09522e-05 -1.0932e-05 0.112214)
(1.09446e-05 -1.09418e-05 0.112214)
(-1.09356e-05 1.09583e-05 0.112213)
(1.0945e-05 1.09508e-05 0.112213)
(2.65543e-05 -6.47257e-07 0.0987371)
(-9.27179e-06 3.08835e-06 0.0932047)
(1.50883e-05 -2.83042e-06 0.109797)
(1.11565e-05 -6.24363e-06 0.10745)
(-8.29535e-06 -4.27647e-07 0.0986765)
(1.96699e-05 -7.60154e-06 0.093268)
(1.501e-05 -2.81948e-06 0.109793)
(4.48603e-06 -2.26713e-06 0.071739)
(-5.48841e-06 3.53183e-06 0.0718032)
(-6.64228e-07 2.65195e-05 0.0987373)
(-2.81938e-06 1.51006e-05 0.109796)
(3.12327e-06 -9.30944e-06 0.0932054)
(-6.23412e-06 1.1172e-05 0.10745)
(-3.95687e-07 -8.2603e-06 0.0986767)
(-2.80875e-06 1.50233e-05 0.109792)
(-7.62239e-06 1.97201e-05 0.0932677)
(-4.04095e-06 -3.43577e-06 0.0877656)