0 	0 	0 	0
0.010101 	-1.39555e-05 	4.37261e-06 	0.0193713
0.020202 	-2.7917e-05 	8.75209e-06 	0.0387427
0.030303 	-4.18785e-05 	1.31316e-05 	0.0581141
0.040404 	-5.584e-05 	1.75111e-05 	0.0774855
0.0505051 	-6.6978e-05 	1.74004e-05 	0.0858325
0.0606061 	-7.65181e-05 	1.47488e-05 	0.0879407
0.0707071 	-8.60582e-05 	1.20971e-05 	0.0900489
0.0808081 	-9.55983e-05 	9.44544e-06 	0.0921571
0.0909091 	-0.000105138 	6.79378e-06 	0.0942653
0.10101 	-0.000103249 	4.0032e-06 	0.0958005
0.111111 	-9.72552e-05 	1.17146e-06 	0.0971283
0.121212 	-9.12618e-05 	-1.66029e-06 	0.0984562
0.131313 	-8.52684e-05 	-4.49204e-06 	0.099784
0.141414 	-7.92751e-05 	-7.32378e-06 	0.101112
0.151515 	-6.35307e-05 	-4.34925e-06 	0.102187
0.161616 	-4.58732e-05 	-2.35545e-07 	0.103212
0.171717 	-2.82157e-05 	3.87816e-06 	0.104237
0.181818 	-1.05582e-05 	7.99186e-06 	0.105262
0.191919 	7.09923e-06 	1.21056e-05 	0.106287
0.20202 	2.05403e-05 	2.09378e-05 	0.106988
0.212121 	3.34572e-05 	3.03752e-05 	0.107648
0.222222 	4.63741e-05 	3.98125e-05 	0.108308
0.232323 	5.92911e-05 	4.92499e-05 	0.108968
0.242424 	7.2208e-05 	5.86872e-05 	0.109628
0.252525 	8.51249e-05 	6.81246e-05 	0.110288
0.262626 	9.80418e-05 	7.75619e-05 	0.110948
0.272727 	0.000110959 	8.69993e-05 	0.111608
0.282828 	0.000123876 	9.64366e-05 	0.112268
0.292929 	0.000136793 	0.000105874 	0.112928
0.30303 	0.000136786 	0.000109238 	0.113239
0.313131 	0.000134428 	0.000111491 	0.113487
0.323232 	0.00013207 	0.000113744 	0.113734
0.333333 	0.000129712 	0.000115996 	0.113982
0.343434 	0.000127354 	0.000118249 	0.114229
0.353535 	0.000124996 	0.000120502 	0.114476
0.363636 	0.000122638 	0.000122755 	0.114724
0.373737 	0.00012028 	0.000125008 	0.114971
0.383838 	0.000117922 	0.000127261 	0.115218
0.393939 	0.000115564 	0.000129513 	0.115466
0.40404 	0.0001085 	0.000125201 	0.115573
0.414141 	9.94765e-05 	0.000118154 	0.115622
0.424242 	9.04527e-05 	0.000111108 	0.11567
0.434343 	8.14289e-05 	0.000104061 	0.115719
0.444444 	7.24051e-05 	9.70145e-05 	0.115768
0.454545 	6.33813e-05 	8.99679e-05 	0.115816
0.464646 	5.43575e-05 	8.29213e-05 	0.115865
0.474747 	4.53338e-05 	7.58747e-05 	0.115914
0.484848 	3.631e-05 	6.88281e-05 	0.115962
0.494949 	2.72862e-05 	6.17815e-05 	0.116011
0.505051 	1.71775e-05 	5.50297e-05 	0.116004
0.515152 	5.9665e-06 	4.85844e-05 	0.115942
0.525253 	-5.24448e-06 	4.21391e-05 	0.11588
0.535354 	-1.64555e-05 	3.56939e-05 	0.115818
0.545455 	-2.76664e-05 	2.92486e-05 	0.115756
0.555556 	-3.88774e-05 	2.28033e-05 	0.115694
0.565657 	-5.00884e-05 	1.63581e-05 	0.115632
0.575758 	-6.12994e-05 	9.91278e-06 	0.11557
0.585859 	-7.25104e-05 	3.46751e-06 	0.115508
0.59596 	-8.37213e-05 	-2.97776e-06 	0.115446
0.606061 	-9.51559e-05 	-7.36573e-06 	0.115328
0.616162 	-0.000107131 	-6.78242e-06 	0.115074
0.626263 	-0.000119105 	-6.19911e-06 	0.11482
0.636364 	-0.00013108 	-5.61579e-06 	0.114566
0.646465 	-0.000143055 	-5.03248e-06 	0.114312
0.656566 	-0.000155029 	-4.44917e-06 	0.114058
0.666667 	-0.000167004 	-3.86586e-06 	0.113804
0.676768 	-0.000178979 	-3.28255e-06 	0.11355
0.686869 	-0.000190953 	-2.69923e-06 	0.113296
0.69697 	-0.000202928 	-2.11592e-06 	0.113042
0.707071 	-0.000212398 	-8.30607e-07 	0.112728
0.717172 	-0.000208212 	4.23813e-06 	0.112082
0.727273 	-0.000204027 	9.30687e-06 	0.111436
0.737374 	-0.000199841 	1.43756e-05 	0.11079
0.747475 	-0.000195656 	1.94443e-05 	0.110145
0.757576 	-0.00019147 	2.45131e-05 	0.109499
0.767677 	-0.000187285 	2.95818e-05 	0.108853
0.777778 	-0.000183099 	3.46506e-05 	0.108208
0.787879 	-0.000178914 	3.97193e-05 	0.107562
0.79798 	-0.000174728 	4.4788e-05 	0.106916
0.808081 	-0.000168445 	4.94214e-05 	0.106229
0.818182 	-0.000145769 	5.06699e-05 	0.105222
0.828283 	-0.000123093 	5.19184e-05 	0.104214
0.838384 	-0.000100417 	5.31669e-05 	0.103206
0.848485 	-7.77416e-05 	5.44154e-05 	0.102198
0.858586 	-5.53501e-05 	5.47128e-05 	0.101137
0.868687 	-3.44047e-05 	5.01732e-05 	0.0998091
0.878788 	-1.34593e-05 	4.56336e-05 	0.098481
0.888889 	7.48601e-06 	4.1094e-05 	0.0971529
0.89899 	2.84314e-05 	3.65544e-05 	0.0958247
0.909091 	4.54606e-05 	3.16273e-05 	0.0942877
0.919192 	5.17079e-05 	2.56193e-05 	0.0921743
0.929293 	5.79553e-05 	1.96112e-05 	0.0900609
0.939394 	6.42026e-05 	1.36032e-05 	0.0879475
0.949495 	7.04499e-05 	7.59512e-06 	0.0858341
0.959596 	6.82611e-05 	3.4483e-06 	0.0774752
0.969697 	5.11974e-05 	2.58332e-06 	0.058104
0.979798 	3.41336e-05 	1.71833e-06 	0.0387328
0.989899 	1.70699e-05 	8.53344e-07 	0.0193616
0.999994 	0 	0 	0
