/*--------------------------------*- C++ -*----------------------------------*\
| =========                 |                                                 |
| \\      /  F ield         | OpenFOAM: The Open Source CFD Toolbox           |
|  \\    /   O peration     | Version:  v1906                                 |
|   \\  /    A nd           | Web:      www.OpenFOAM.com                      |
|    \\/     M anipulation  |                                                 |
\*---------------------------------------------------------------------------*/
FoamFile
{
    version     2.0;
    format      ascii;
    class       volScalarField;
    location    "0.245";
    object      p;
}
// * * * * * * * * * * * * * * * * * * * * * * * * * * * * * * * * * * * * * //

dimensions      [0 2 -2 0 0 0 0];


internalField   nonuniform List<scalar> 
247104
(
8.65353e-11
3.63491e-10
5.03158e-10
4.20359e-10
2.73969e-10
4.53546e-10
5.00851e-10
2.95921e-10
2.30648e-10
3.57925e-10
4.34068e-10
2.30591e-10
1.00233e-10
2.64859e-10
4.54341e-10
3.37296e-10
2.34357e-10
2.867e-10
-5.31113e-11
-5.23145e-10
-7.16826e-10
-4.67504e-10
1.60885e-11
3.17083e-10
2.42635e-10
3.54327e-11
-4.46394e-11
-6.54912e-10
-1.30739e-09
-1.55378e-09
-1.23426e-09
-5.5203e-10
2.05237e-11
3.68421e-11
-1.87702e-10
-1.80232e-10
-2.53994e-10
-9.29088e-10
-1.63354e-09
-1.89526e-09
-1.55386e-09
-8.15583e-10
-1.81536e-10
-1.91676e-10
-1.88598e-11
-9.96121e-11
-6.85637e-10
-1.31614e-09
-1.55394e-09
-1.24311e-09
-5.84659e-10
-3.7906e-11
-1.35123e-11
8.09696e-11
1.52365e-10
-1.3261e-10
-5.59242e-10
-7.38229e-10
-5.06361e-10
-7.13632e-11
1.71109e-10
8.13859e-11
-1.64588e-11
1.48325e-10
2.8587e-10
1.33326e-10
1.63565e-11
1.60866e-10
2.92183e-10
1.08111e-10
3.28254e-10
2.62494e-10
1.13603e-10
2.90375e-10
3.10641e-10
-3.37828e-08
-3.58125e-08
-3.61496e-08
-3.72846e-08
-3.73172e-08
-3.73922e-08
-3.73828e-08
-3.60855e-08
-3.57441e-08
-3.61734e-08
-3.81749e-08
-4.09572e-08
-4.10218e-08
-4.10201e-08
-4.09511e-08
-3.77527e-08
-3.75622e-08
-3.73155e-08
-4.0968e-08
-4.10321e-08
-4.09786e-08
-4.09769e-08
-4.10272e-08
-4.09595e-08
-3.73694e-08
-3.64014e-08
-3.3838e-08
-3.73615e-08
-4.10417e-08
-4.09874e-08
-4.08847e-08
-4.08833e-08
-4.09831e-08
-4.1034e-08
-3.74511e-08
-3.58555e-08
-3.58783e-08
-3.74498e-08
-4.10463e-08
-4.09921e-08
-4.08894e-08
-4.08882e-08
-4.09882e-08
-4.10392e-08
-3.72903e-08
-3.74377e-08
-3.74459e-08
-4.09815e-08
-4.10455e-08
-4.09922e-08
-4.0991e-08
-4.10417e-08
-4.0975e-08
-3.75028e-08
-3.65826e-08
-3.616e-08
-3.77958e-08
-4.09787e-08
-4.10434e-08
-4.10427e-08
-4.09751e-08
-3.76206e-08
-3.74044e-08
-3.60537e-08
-3.58108e-08
-3.76024e-08
-3.73911e-08
-3.74594e-08
-3.72877e-08
-3.74955e-08
-3.74006e-08
-3.53826e-08
-3.64193e-08
-3.58661e-08
-3.74307e-08
-3.65628e-08
-3.60354e-08
-5.35942e-08
-5.37868e-08
-5.39547e-08
-5.61163e-08
-5.6199e-08
-5.62192e-08
-5.61404e-08
-5.39296e-08
-5.37194e-08
-5.3961e-08
-5.68534e-08
-5.98681e-08
-6.00053e-08
-6.00065e-08
-5.98737e-08
-5.62237e-08
-5.56731e-08
-5.6132e-08
-5.98557e-08
-6.02404e-08
-6.02379e-08
-6.02389e-08
-6.02438e-08
-5.98526e-08
-5.54082e-08
-5.34125e-08
-5.36135e-08
-5.62134e-08
-6.00035e-08
-6.02378e-08
-6.02232e-08
-6.0224e-08
-6.02398e-08
-6.0003e-08
-5.53773e-08
-5.37093e-08
-5.38098e-08
-5.6236e-08
-6.00047e-08
-6.02385e-08
-6.02243e-08
-6.02254e-08
-6.02408e-08
-6.0004e-08
-5.5445e-08
-5.56064e-08
-5.61605e-08
-5.98523e-08
-6.02399e-08
-6.02412e-08
-6.02436e-08
-6.02475e-08
-5.98538e-08
-5.53567e-08
-5.33617e-08
-5.39532e-08
-5.62327e-08
-5.98583e-08
-6.00093e-08
-6.00149e-08
-5.9882e-08
-5.57524e-08
-5.55095e-08
-5.34532e-08
-5.37406e-08
-5.56871e-08
-5.5418e-08
-5.53871e-08
-5.54532e-08
-5.53638e-08
-5.55119e-08
-5.35215e-08
-5.34264e-08
-5.37197e-08
-5.56142e-08
-5.3364e-08
-5.34591e-08
-7.29947e-08
-7.31723e-08
-7.33026e-08
-7.55758e-08
-7.56458e-08
-7.57454e-08
-7.55485e-08
-7.33107e-08
-7.30739e-08
-7.33126e-08
-7.64077e-08
-7.93731e-08
-7.94215e-08
-7.94218e-08
-7.93735e-08
-7.57408e-08
-7.50018e-08
-7.55862e-08
-7.93738e-08
-7.95265e-08
-7.95253e-08
-7.95253e-08
-7.95257e-08
-7.93735e-08
-7.48041e-08
-7.28086e-08
-7.30075e-08
-7.56549e-08
-7.94248e-08
-7.95275e-08
-7.95223e-08
-7.95221e-08
-7.95264e-08
-7.94234e-08
-7.47183e-08
-7.31266e-08
-7.31877e-08
-7.57579e-08
-7.94269e-08
-7.95286e-08
-7.95234e-08
-7.95232e-08
-7.95275e-08
-7.94257e-08
-7.47545e-08
-7.49454e-08
-7.5567e-08
-7.93805e-08
-7.95296e-08
-7.95287e-08
-7.95289e-08
-7.95294e-08
-7.93786e-08
-7.47421e-08
-7.27834e-08
-7.33342e-08
-7.57545e-08
-7.93778e-08
-7.94259e-08
-7.94265e-08
-7.93766e-08
-7.49795e-08
-7.48558e-08
-7.28149e-08
-7.30945e-08
-7.50133e-08
-7.48106e-08
-7.47225e-08
-7.47543e-08
-7.47374e-08
-7.48516e-08
-7.28341e-08
-7.28144e-08
-7.31324e-08
-7.49414e-08
-7.27776e-08
-7.28073e-08
-9.25327e-08
-9.26995e-08
-9.28677e-08
-9.51002e-08
-9.51711e-08
-9.53002e-08
-9.50714e-08
-9.28506e-08
-9.26185e-08
-9.28734e-08
-9.59221e-08
-9.8809e-08
-9.88206e-08
-9.88198e-08
-9.88084e-08
-9.52733e-08
-9.44807e-08
-9.51011e-08
-9.88108e-08
-9.8846e-08
-9.88421e-08
-9.88416e-08
-9.88444e-08
-9.88084e-08
-9.42463e-08
-9.23275e-08
-9.25314e-08
-9.5174e-08
-9.8822e-08
-9.88427e-08
-9.88371e-08
-9.88366e-08
-9.88413e-08
-9.8821e-08
-9.41057e-08
-9.25937e-08
-9.27057e-08
-9.53047e-08
-9.88222e-08
-9.8843e-08
-9.88374e-08
-9.88371e-08
-9.8842e-08
-9.88216e-08
-9.41244e-08
-9.43811e-08
-9.50767e-08
-9.88114e-08
-9.88465e-08
-9.88427e-08
-9.88427e-08
-9.88461e-08
-9.88113e-08
-9.41621e-08
-9.22618e-08
-9.2856e-08
-9.52768e-08
-9.88106e-08
-9.88227e-08
-9.88228e-08
-9.88121e-08
-9.4324e-08
-9.42951e-08
-9.23486e-08
-9.2627e-08
-9.44868e-08
-9.42503e-08
-9.41089e-08
-9.41268e-08
-9.4163e-08
-9.42943e-08
-9.23784e-08
-9.23338e-08
-9.2597e-08
-9.43821e-08
-9.22609e-08
-9.23481e-08
-1.11635e-07
-1.11799e-07
-1.11985e-07
-1.14214e-07
-1.14297e-07
-1.14433e-07
-1.14199e-07
-1.11969e-07
-1.11745e-07
-1.11992e-07
-1.15049e-07
-1.17979e-07
-1.17988e-07
-1.17988e-07
-1.1798e-07
-1.14438e-07
-1.13598e-07
-1.14215e-07
-1.17979e-07
-1.17999e-07
-1.18004e-07
-1.18004e-07
-1.18e-07
-1.1798e-07
-1.1337e-07
-1.11439e-07
-1.11631e-07
-1.14298e-07
-1.17989e-07
-1.18004e-07
-1.18008e-07
-1.18008e-07
-1.18005e-07
-1.17989e-07
-1.13223e-07
-1.11684e-07
-1.11801e-07
-1.14435e-07
-1.1799e-07
-1.18005e-07
-1.18009e-07
-1.18009e-07
-1.18005e-07
-1.17989e-07
-1.13233e-07
-1.13462e-07
-1.14201e-07
-1.17982e-07
-1.18002e-07
-1.18006e-07
-1.18006e-07
-1.18001e-07
-1.17981e-07
-1.13282e-07
-1.11351e-07
-1.11972e-07
-1.14443e-07
-1.17982e-07
-1.17991e-07
-1.17991e-07
-1.17982e-07
-1.13434e-07
-1.13396e-07
-1.11454e-07
-1.11748e-07
-1.13601e-07
-1.13372e-07
-1.13227e-07
-1.13236e-07
-1.13281e-07
-1.13397e-07
-1.11481e-07
-1.1144e-07
-1.11685e-07
-1.13463e-07
-1.11353e-07
-1.11455e-07
-1.30857e-07
-1.31028e-07
-1.31221e-07
-1.33502e-07
-1.33592e-07
-1.33729e-07
-1.33494e-07
-1.31219e-07
-1.30984e-07
-1.31224e-07
-1.3435e-07
-1.37347e-07
-1.37351e-07
-1.37351e-07
-1.37348e-07
-1.33761e-07
-1.32905e-07
-1.33503e-07
-1.37347e-07
-1.37354e-07
-1.37357e-07
-1.37358e-07
-1.37356e-07
-1.37348e-07
-1.32677e-07
-1.30677e-07
-1.30854e-07
-1.33592e-07
-1.37351e-07
-1.37358e-07
-1.3736e-07
-1.3736e-07
-1.37359e-07
-1.37352e-07
-1.32531e-07
-1.30927e-07
-1.31029e-07
-1.33729e-07
-1.37351e-07
-1.37358e-07
-1.37361e-07
-1.37361e-07
-1.37359e-07
-1.37352e-07
-1.32538e-07
-1.32738e-07
-1.33496e-07
-1.37349e-07
-1.37356e-07
-1.37359e-07
-1.37359e-07
-1.37357e-07
-1.37348e-07
-1.32588e-07
-1.30588e-07
-1.3122e-07
-1.33761e-07
-1.37349e-07
-1.37352e-07
-1.37352e-07
-1.37349e-07
-1.32747e-07
-1.32686e-07
-1.30683e-07
-1.3099e-07
-1.32889e-07
-1.32676e-07
-1.32532e-07
-1.32538e-07
-1.3259e-07
-1.32687e-07
-1.30737e-07
-1.30679e-07
-1.30925e-07
-1.32738e-07
-1.30592e-07
-1.30684e-07
-1.50468e-07
-1.50636e-07
-1.50823e-07
-1.53083e-07
-1.53161e-07
-1.53294e-07
-1.53065e-07
-1.50813e-07
-1.50581e-07
-1.50826e-07
-1.53908e-07
-1.56837e-07
-1.56833e-07
-1.56832e-07
-1.56837e-07
-1.53302e-07
-1.5248e-07
-1.53084e-07
-1.56837e-07
-1.56829e-07
-1.56824e-07
-1.56823e-07
-1.56828e-07
-1.56836e-07
-1.52231e-07
-1.5028e-07
-1.50464e-07
-1.53162e-07
-1.56833e-07
-1.56824e-07
-1.56818e-07
-1.56818e-07
-1.56823e-07
-1.56832e-07
-1.5207e-07
-1.50521e-07
-1.50636e-07
-1.53295e-07
-1.56832e-07
-1.56823e-07
-1.56818e-07
-1.56818e-07
-1.56823e-07
-1.56833e-07
-1.52076e-07
-1.52324e-07
-1.53067e-07
-1.56836e-07
-1.56828e-07
-1.56823e-07
-1.56823e-07
-1.56828e-07
-1.56838e-07
-1.52135e-07
-1.50188e-07
-1.50814e-07
-1.53302e-07
-1.56836e-07
-1.56833e-07
-1.56833e-07
-1.56838e-07
-1.52274e-07
-1.52252e-07
-1.50295e-07
-1.50585e-07
-1.52462e-07
-1.52229e-07
-1.52071e-07
-1.52078e-07
-1.52136e-07
-1.52252e-07
-1.50328e-07
-1.50279e-07
-1.50519e-07
-1.52323e-07
-1.50189e-07
-1.50295e-07
-1.69752e-07
-1.69916e-07
-1.70105e-07
-1.72333e-07
-1.72414e-07
-1.72549e-07
-1.72318e-07
-1.70089e-07
-1.69862e-07
-1.70108e-07
-1.73159e-07
-1.7608e-07
-1.76082e-07
-1.76082e-07
-1.7608e-07
-1.72557e-07
-1.7173e-07
-1.72334e-07
-1.7608e-07
-1.76083e-07
-1.76084e-07
-1.76084e-07
-1.76083e-07
-1.7608e-07
-1.71481e-07
-1.69557e-07
-1.69747e-07
-1.72414e-07
-1.76081e-07
-1.76084e-07
-1.76086e-07
-1.76086e-07
-1.76085e-07
-1.76082e-07
-1.71325e-07
-1.69794e-07
-1.69915e-07
-1.7255e-07
-1.76081e-07
-1.76084e-07
-1.76086e-07
-1.76086e-07
-1.76085e-07
-1.76081e-07
-1.71332e-07
-1.71572e-07
-1.72318e-07
-1.7608e-07
-1.76083e-07
-1.76085e-07
-1.76084e-07
-1.76083e-07
-1.7608e-07
-1.71386e-07
-1.69462e-07
-1.70088e-07
-1.72554e-07
-1.7608e-07
-1.76081e-07
-1.76081e-07
-1.7608e-07
-1.71522e-07
-1.715e-07
-1.69572e-07
-1.69866e-07
-1.71713e-07
-1.71482e-07
-1.71326e-07
-1.71332e-07
-1.71388e-07
-1.715e-07
-1.69595e-07
-1.69555e-07
-1.69793e-07
-1.71571e-07
-1.69463e-07
-1.69572e-07
-1.88935e-07
-1.89103e-07
-1.89297e-07
-1.9157e-07
-1.91659e-07
-1.91796e-07
-1.91562e-07
-1.89292e-07
-1.89059e-07
-1.893e-07
-1.92414e-07
-1.95403e-07
-1.95406e-07
-1.95406e-07
-1.95404e-07
-1.91828e-07
-1.90972e-07
-1.91571e-07
-1.95403e-07
-1.95408e-07
-1.9541e-07
-1.95411e-07
-1.95409e-07
-1.95404e-07
-1.90741e-07
-1.88751e-07
-1.88929e-07
-1.9166e-07
-1.95406e-07
-1.9541e-07
-1.95413e-07
-1.95413e-07
-1.95411e-07
-1.95406e-07
-1.90591e-07
-1.88997e-07
-1.89102e-07
-1.91797e-07
-1.95406e-07
-1.95411e-07
-1.95413e-07
-1.95413e-07
-1.95411e-07
-1.95406e-07
-1.90598e-07
-1.90802e-07
-1.91563e-07
-1.95404e-07
-1.95409e-07
-1.95411e-07
-1.95411e-07
-1.95408e-07
-1.95403e-07
-1.90648e-07
-1.88658e-07
-1.89292e-07
-1.91825e-07
-1.95404e-07
-1.95406e-07
-1.95406e-07
-1.95403e-07
-1.90803e-07
-1.90746e-07
-1.88755e-07
-1.89063e-07
-1.90954e-07
-1.9074e-07
-1.90591e-07
-1.90599e-07
-1.90649e-07
-1.90747e-07
-1.88804e-07
-1.88749e-07
-1.88994e-07
-1.908e-07
-1.88659e-07
-1.88755e-07
-2.0851e-07
-2.08679e-07
-2.08866e-07
-2.11123e-07
-2.11197e-07
-2.11331e-07
-2.11102e-07
-2.08852e-07
-2.08622e-07
-2.08869e-07
-2.11941e-07
-2.14857e-07
-2.1485e-07
-2.14849e-07
-2.14855e-07
-2.11335e-07
-2.10516e-07
-2.11123e-07
-2.14857e-07
-2.14845e-07
-2.14838e-07
-2.14837e-07
-2.14842e-07
-2.14855e-07
-2.10262e-07
-2.08321e-07
-2.08507e-07
-2.11198e-07
-2.1485e-07
-2.14838e-07
-2.14831e-07
-2.1483e-07
-2.14836e-07
-2.14849e-07
-2.10101e-07
-2.0856e-07
-2.08679e-07
-2.11332e-07
-2.1485e-07
-2.14837e-07
-2.1483e-07
-2.1483e-07
-2.14836e-07
-2.14849e-07
-2.10106e-07
-2.10361e-07
-2.11103e-07
-2.14855e-07
-2.14842e-07
-2.14836e-07
-2.14836e-07
-2.14843e-07
-2.14857e-07
-2.10165e-07
-2.08226e-07
-2.08854e-07
-2.11332e-07
-2.14855e-07
-2.14849e-07
-2.14849e-07
-2.14857e-07
-2.10299e-07
-2.10285e-07
-2.08335e-07
-2.08627e-07
-2.10499e-07
-2.10262e-07
-2.10101e-07
-2.10107e-07
-2.10166e-07
-2.10285e-07
-2.08366e-07
-2.08319e-07
-2.08558e-07
-2.1036e-07
-2.08227e-07
-2.08335e-07
-2.27717e-07
-2.27879e-07
-2.28075e-07
-2.30274e-07
-2.30352e-07
-2.30487e-07
-2.30256e-07
-2.28043e-07
-2.27822e-07
-2.28071e-07
-2.31095e-07
-2.33983e-07
-2.33985e-07
-2.33985e-07
-2.33983e-07
-2.30485e-07
-2.2967e-07
-2.30275e-07
-2.33983e-07
-2.33987e-07
-2.3399e-07
-2.3399e-07
-2.33988e-07
-2.33983e-07
-2.29414e-07
-2.27517e-07
-2.27713e-07
-2.30352e-07
-2.33985e-07
-2.3399e-07
-2.33992e-07
-2.33992e-07
-2.3399e-07
-2.33985e-07
-2.29255e-07
-2.27751e-07
-2.27879e-07
-2.30487e-07
-2.33985e-07
-2.3399e-07
-2.33992e-07
-2.33992e-07
-2.3399e-07
-2.33985e-07
-2.29261e-07
-2.29516e-07
-2.30257e-07
-2.33983e-07
-2.33988e-07
-2.3399e-07
-2.3399e-07
-2.33988e-07
-2.33983e-07
-2.29317e-07
-2.2742e-07
-2.28045e-07
-2.30484e-07
-2.33983e-07
-2.33985e-07
-2.33985e-07
-2.33982e-07
-2.29445e-07
-2.29437e-07
-2.27536e-07
-2.27827e-07
-2.29652e-07
-2.29414e-07
-2.29256e-07
-2.29262e-07
-2.29318e-07
-2.29437e-07
-2.27549e-07
-2.27515e-07
-2.27749e-07
-2.29515e-07
-2.27422e-07
-2.27536e-07
-2.4669e-07
-2.4686e-07
-2.47065e-07
-2.49334e-07
-2.49429e-07
-2.49568e-07
-2.4933e-07
-2.47054e-07
-2.46823e-07
-2.4706e-07
-2.50189e-07
-2.53207e-07
-2.53216e-07
-2.53216e-07
-2.53208e-07
-2.49608e-07
-2.48738e-07
-2.49335e-07
-2.53207e-07
-2.53222e-07
-2.53231e-07
-2.53232e-07
-2.53225e-07
-2.53209e-07
-2.48518e-07
-2.46511e-07
-2.46687e-07
-2.49429e-07
-2.53215e-07
-2.53231e-07
-2.5324e-07
-2.5324e-07
-2.53233e-07
-2.53216e-07
-2.48374e-07
-2.4676e-07
-2.4686e-07
-2.49568e-07
-2.53216e-07
-2.53232e-07
-2.5324e-07
-2.5324e-07
-2.53233e-07
-2.53216e-07
-2.48381e-07
-2.48563e-07
-2.49331e-07
-2.53208e-07
-2.53225e-07
-2.53233e-07
-2.53233e-07
-2.53225e-07
-2.53207e-07
-2.48427e-07
-2.4642e-07
-2.47055e-07
-2.49608e-07
-2.53209e-07
-2.53217e-07
-2.53216e-07
-2.53207e-07
-2.48592e-07
-2.48517e-07
-2.46513e-07
-2.46827e-07
-2.48721e-07
-2.48518e-07
-2.48375e-07
-2.48382e-07
-2.48428e-07
-2.48517e-07
-2.46568e-07
-2.4651e-07
-2.46758e-07
-2.48562e-07
-2.46421e-07
-2.46513e-07
-2.6637e-07
-2.66542e-07
-2.66738e-07
-2.69025e-07
-2.69105e-07
-2.69239e-07
-2.69008e-07
-2.66728e-07
-2.66492e-07
-2.66733e-07
-2.69856e-07
-2.72827e-07
-2.72821e-07
-2.7282e-07
-2.72825e-07
-2.69258e-07
-2.68421e-07
-2.69026e-07
-2.72827e-07
-2.72816e-07
-2.72809e-07
-2.72809e-07
-2.72814e-07
-2.72825e-07
-2.6818e-07
-2.6619e-07
-2.66367e-07
-2.69106e-07
-2.72821e-07
-2.72809e-07
-2.72803e-07
-2.72803e-07
-2.72808e-07
-2.7282e-07
-2.68024e-07
-2.66436e-07
-2.66542e-07
-2.6924e-07
-2.72821e-07
-2.72809e-07
-2.72803e-07
-2.72803e-07
-2.72808e-07
-2.7282e-07
-2.6803e-07
-2.68259e-07
-2.6901e-07
-2.72826e-07
-2.72814e-07
-2.72808e-07
-2.72808e-07
-2.72814e-07
-2.72827e-07
-2.68086e-07
-2.66099e-07
-2.66729e-07
-2.69259e-07
-2.72825e-07
-2.7282e-07
-2.7282e-07
-2.72827e-07
-2.68235e-07
-2.68195e-07
-2.66199e-07
-2.66496e-07
-2.68404e-07
-2.68181e-07
-2.68024e-07
-2.68031e-07
-2.68088e-07
-2.68196e-07
-2.66248e-07
-2.66189e-07
-2.66434e-07
-2.68258e-07
-2.661e-07
-2.66199e-07
-2.85892e-07
-2.86056e-07
-2.86249e-07
-2.88457e-07
-2.8853e-07
-2.88663e-07
-2.88433e-07
-2.86219e-07
-2.85996e-07
-2.86246e-07
-2.8927e-07
-2.92149e-07
-2.92145e-07
-2.92145e-07
-2.92148e-07
-2.88654e-07
-2.87849e-07
-2.88458e-07
-2.92149e-07
-2.92143e-07
-2.92139e-07
-2.92139e-07
-2.92141e-07
-2.92147e-07
-2.87588e-07
-2.85693e-07
-2.85889e-07
-2.88531e-07
-2.92146e-07
-2.92139e-07
-2.92136e-07
-2.92136e-07
-2.92138e-07
-2.92144e-07
-2.87425e-07
-2.85925e-07
-2.86056e-07
-2.88664e-07
-2.92146e-07
-2.92138e-07
-2.92135e-07
-2.92135e-07
-2.92138e-07
-2.92144e-07
-2.8743e-07
-2.87699e-07
-2.88436e-07
-2.92148e-07
-2.92141e-07
-2.92138e-07
-2.92138e-07
-2.92141e-07
-2.92148e-07
-2.8749e-07
-2.85597e-07
-2.8622e-07
-2.88654e-07
-2.92147e-07
-2.92144e-07
-2.92144e-07
-2.92148e-07
-2.87613e-07
-2.87614e-07
-2.85714e-07
-2.85999e-07
-2.87832e-07
-2.87588e-07
-2.87425e-07
-2.87431e-07
-2.8749e-07
-2.87615e-07
-2.85725e-07
-2.85691e-07
-2.85924e-07
-2.87698e-07
-2.85597e-07
-2.85714e-07
-3.0488e-07
-3.05049e-07
-3.05252e-07
-3.07496e-07
-3.07587e-07
-3.07724e-07
-3.07488e-07
-3.05234e-07
-3.05007e-07
-3.05249e-07
-3.08341e-07
-3.11321e-07
-3.11327e-07
-3.11327e-07
-3.11322e-07
-3.07752e-07
-3.06898e-07
-3.07497e-07
-3.11321e-07
-3.11332e-07
-3.11339e-07
-3.11339e-07
-3.11334e-07
-3.11322e-07
-3.06667e-07
-3.04695e-07
-3.04877e-07
-3.07588e-07
-3.11327e-07
-3.11339e-07
-3.11345e-07
-3.11346e-07
-3.1134e-07
-3.11327e-07
-3.06519e-07
-3.04938e-07
-3.05049e-07
-3.07725e-07
-3.11327e-07
-3.11339e-07
-3.11345e-07
-3.11346e-07
-3.1134e-07
-3.11327e-07
-3.06526e-07
-3.06728e-07
-3.0749e-07
-3.11322e-07
-3.11334e-07
-3.1134e-07
-3.1134e-07
-3.11333e-07
-3.1132e-07
-3.06574e-07
-3.04601e-07
-3.05235e-07
-3.07752e-07
-3.11322e-07
-3.11328e-07
-3.11327e-07
-3.1132e-07
-3.06728e-07
-3.06672e-07
-3.047e-07
-3.0501e-07
-3.06881e-07
-3.06667e-07
-3.0652e-07
-3.06528e-07
-3.06575e-07
-3.06673e-07
-3.04742e-07
-3.04693e-07
-3.04937e-07
-3.06729e-07
-3.04601e-07
-3.047e-07
-3.24364e-07
-3.24533e-07
-3.2473e-07
-3.27008e-07
-3.2709e-07
-3.27225e-07
-3.26993e-07
-3.24719e-07
-3.24485e-07
-3.24727e-07
-3.27842e-07
-3.30814e-07
-3.30811e-07
-3.3081e-07
-3.30813e-07
-3.27247e-07
-3.26406e-07
-3.27009e-07
-3.30814e-07
-3.30808e-07
-3.30805e-07
-3.30805e-07
-3.30807e-07
-3.30813e-07
-3.26167e-07
-3.24181e-07
-3.24358e-07
-3.27091e-07
-3.30811e-07
-3.30805e-07
-3.30802e-07
-3.30802e-07
-3.30805e-07
-3.30811e-07
-3.26013e-07
-3.24426e-07
-3.24533e-07
-3.27226e-07
-3.3081e-07
-3.30805e-07
-3.30802e-07
-3.30802e-07
-3.30805e-07
-3.30811e-07
-3.26019e-07
-3.26243e-07
-3.26995e-07
-3.30813e-07
-3.30807e-07
-3.30805e-07
-3.30805e-07
-3.30808e-07
-3.30815e-07
-3.26074e-07
-3.2409e-07
-3.2472e-07
-3.27247e-07
-3.30813e-07
-3.30811e-07
-3.30811e-07
-3.30815e-07
-3.26223e-07
-3.26181e-07
-3.24189e-07
-3.24489e-07
-3.26389e-07
-3.26167e-07
-3.26013e-07
-3.2602e-07
-3.26074e-07
-3.26181e-07
-3.24236e-07
-3.2418e-07
-3.24424e-07
-3.26242e-07
-3.2409e-07
-3.24189e-07
-3.43856e-07
-3.44021e-07
-3.44215e-07
-3.46436e-07
-3.46512e-07
-3.46645e-07
-3.46415e-07
-3.44189e-07
-3.43964e-07
-3.44212e-07
-3.47255e-07
-3.50151e-07
-3.50148e-07
-3.50147e-07
-3.5015e-07
-3.46642e-07
-3.4583e-07
-3.46437e-07
-3.5015e-07
-3.50145e-07
-3.50141e-07
-3.50141e-07
-3.50143e-07
-3.50149e-07
-3.45573e-07
-3.4366e-07
-3.43853e-07
-3.46512e-07
-3.50147e-07
-3.50141e-07
-3.50138e-07
-3.50137e-07
-3.5014e-07
-3.50146e-07
-3.45412e-07
-3.43895e-07
-3.44021e-07
-3.46646e-07
-3.50147e-07
-3.50141e-07
-3.50137e-07
-3.50137e-07
-3.5014e-07
-3.50146e-07
-3.45418e-07
-3.45677e-07
-3.46417e-07
-3.5015e-07
-3.50143e-07
-3.5014e-07
-3.5014e-07
-3.50143e-07
-3.5015e-07
-3.45476e-07
-3.43565e-07
-3.4419e-07
-3.46643e-07
-3.5015e-07
-3.50147e-07
-3.50147e-07
-3.5015e-07
-3.45605e-07
-3.45597e-07
-3.43679e-07
-3.43967e-07
-3.45813e-07
-3.45574e-07
-3.45412e-07
-3.45418e-07
-3.45477e-07
-3.45598e-07
-3.43697e-07
-3.43658e-07
-3.43894e-07
-3.45676e-07
-3.43566e-07
-3.43679e-07
-3.6295e-07
-3.63117e-07
-3.63317e-07
-3.65551e-07
-3.65636e-07
-3.65772e-07
-3.65538e-07
-3.63297e-07
-3.6307e-07
-3.63314e-07
-3.66387e-07
-3.69329e-07
-3.69331e-07
-3.69332e-07
-3.69329e-07
-3.65788e-07
-3.6495e-07
-3.65552e-07
-3.69329e-07
-3.69334e-07
-3.69337e-07
-3.69337e-07
-3.69335e-07
-3.69328e-07
-3.64709e-07
-3.6276e-07
-3.62947e-07
-3.65637e-07
-3.6933e-07
-3.69337e-07
-3.69339e-07
-3.69339e-07
-3.69337e-07
-3.69331e-07
-3.64556e-07
-3.63001e-07
-3.63117e-07
-3.65773e-07
-3.69331e-07
-3.69337e-07
-3.69339e-07
-3.69339e-07
-3.69337e-07
-3.69331e-07
-3.64562e-07
-3.64786e-07
-3.6554e-07
-3.69329e-07
-3.69334e-07
-3.69337e-07
-3.69337e-07
-3.69334e-07
-3.69328e-07
-3.64614e-07
-3.62665e-07
-3.63297e-07
-3.65788e-07
-3.69329e-07
-3.69332e-07
-3.69331e-07
-3.69328e-07
-3.64758e-07
-3.64721e-07
-3.62769e-07
-3.63074e-07
-3.64933e-07
-3.6471e-07
-3.64557e-07
-3.64564e-07
-3.64615e-07
-3.64722e-07
-3.62804e-07
-3.62758e-07
-3.62999e-07
-3.64786e-07
-3.62667e-07
-3.62769e-07
-3.82246e-07
-3.82414e-07
-3.82612e-07
-3.84862e-07
-3.84944e-07
-3.8508e-07
-3.84847e-07
-3.82595e-07
-3.82365e-07
-3.82608e-07
-3.85694e-07
-3.88642e-07
-3.88643e-07
-3.88643e-07
-3.88642e-07
-3.85096e-07
-3.84261e-07
-3.84863e-07
-3.88642e-07
-3.88643e-07
-3.88644e-07
-3.88644e-07
-3.88644e-07
-3.88643e-07
-3.84019e-07
-3.8206e-07
-3.82242e-07
-3.84945e-07
-3.88642e-07
-3.88644e-07
-3.88645e-07
-3.88645e-07
-3.88645e-07
-3.88643e-07
-3.83864e-07
-3.82302e-07
-3.82413e-07
-3.8508e-07
-3.88642e-07
-3.88644e-07
-3.88645e-07
-3.88645e-07
-3.88645e-07
-3.88644e-07
-3.83871e-07
-3.84099e-07
-3.84849e-07
-3.88642e-07
-3.88644e-07
-3.88644e-07
-3.88645e-07
-3.88644e-07
-3.88643e-07
-3.83925e-07
-3.81967e-07
-3.82595e-07
-3.85095e-07
-3.88642e-07
-3.88643e-07
-3.88644e-07
-3.88643e-07
-3.84069e-07
-3.84034e-07
-3.82071e-07
-3.82369e-07
-3.84243e-07
-3.84019e-07
-3.83864e-07
-3.83871e-07
-3.83925e-07
-3.84034e-07
-3.82109e-07
-3.82058e-07
-3.823e-07
-3.84099e-07
-3.81968e-07
-3.82071e-07
-4.01558e-07
-4.01725e-07
-4.01924e-07
-4.04171e-07
-4.04256e-07
-4.04392e-07
-4.04158e-07
-4.01906e-07
-4.01677e-07
-4.01921e-07
-4.05007e-07
-4.07971e-07
-4.07974e-07
-4.07974e-07
-4.07972e-07
-4.04413e-07
-4.03571e-07
-4.04172e-07
-4.07971e-07
-4.07976e-07
-4.0798e-07
-4.0798e-07
-4.07978e-07
-4.07972e-07
-4.03333e-07
-4.01371e-07
-4.01553e-07
-4.04256e-07
-4.07974e-07
-4.0798e-07
-4.07983e-07
-4.07983e-07
-4.0798e-07
-4.07975e-07
-4.03181e-07
-4.01614e-07
-4.01724e-07
-4.04393e-07
-4.07974e-07
-4.0798e-07
-4.07983e-07
-4.07983e-07
-4.0798e-07
-4.07975e-07
-4.03188e-07
-4.03407e-07
-4.0416e-07
-4.07972e-07
-4.07978e-07
-4.0798e-07
-4.0798e-07
-4.07978e-07
-4.07972e-07
-4.0324e-07
-4.01279e-07
-4.01906e-07
-4.04412e-07
-4.07972e-07
-4.07975e-07
-4.07975e-07
-4.07972e-07
-4.03388e-07
-4.03345e-07
-4.01383e-07
-4.0168e-07
-4.03553e-07
-4.03333e-07
-4.03181e-07
-4.03188e-07
-4.0324e-07
-4.03345e-07
-4.01419e-07
-4.01369e-07
-4.01611e-07
-4.03406e-07
-4.0128e-07
-4.01382e-07
-4.20975e-07
-4.21143e-07
-4.21343e-07
-4.23617e-07
-4.23702e-07
-4.23837e-07
-4.23604e-07
-4.21329e-07
-4.21097e-07
-4.2134e-07
-4.24456e-07
-4.27441e-07
-4.2744e-07
-4.27439e-07
-4.2744e-07
-4.23864e-07
-4.23016e-07
-4.23619e-07
-4.27441e-07
-4.27439e-07
-4.27438e-07
-4.27437e-07
-4.27438e-07
-4.2744e-07
-4.22781e-07
-4.20791e-07
-4.2097e-07
-4.23704e-07
-4.2744e-07
-4.27438e-07
-4.27437e-07
-4.27437e-07
-4.27437e-07
-4.27439e-07
-4.22629e-07
-4.21037e-07
-4.21144e-07
-4.2384e-07
-4.2744e-07
-4.27438e-07
-4.27437e-07
-4.27437e-07
-4.27437e-07
-4.2744e-07
-4.22636e-07
-4.22849e-07
-4.23608e-07
-4.27442e-07
-4.27439e-07
-4.27438e-07
-4.27438e-07
-4.27439e-07
-4.27441e-07
-4.22689e-07
-4.207e-07
-4.21333e-07
-4.23865e-07
-4.27441e-07
-4.2744e-07
-4.2744e-07
-4.27441e-07
-4.22842e-07
-4.22791e-07
-4.20798e-07
-4.21103e-07
-4.23e-07
-4.22783e-07
-4.22631e-07
-4.22638e-07
-4.2269e-07
-4.22792e-07
-4.20847e-07
-4.20791e-07
-4.21037e-07
-4.2285e-07
-4.20702e-07
-4.20799e-07
-4.40556e-07
-4.40723e-07
-4.40917e-07
-4.43154e-07
-4.43227e-07
-4.43359e-07
-4.4313e-07
-4.40891e-07
-4.40663e-07
-4.40914e-07
-4.43971e-07
-4.46872e-07
-4.46866e-07
-4.46865e-07
-4.4687e-07
-4.43357e-07
-4.42545e-07
-4.43155e-07
-4.46872e-07
-4.46861e-07
-4.46854e-07
-4.46853e-07
-4.46858e-07
-4.46869e-07
-4.42287e-07
-4.40361e-07
-4.40554e-07
-4.43229e-07
-4.46866e-07
-4.46854e-07
-4.46847e-07
-4.46847e-07
-4.46852e-07
-4.46863e-07
-4.42125e-07
-4.40598e-07
-4.40725e-07
-4.43362e-07
-4.46865e-07
-4.46853e-07
-4.46847e-07
-4.46846e-07
-4.46852e-07
-4.46863e-07
-4.4213e-07
-4.42391e-07
-4.43134e-07
-4.4687e-07
-4.46858e-07
-4.46852e-07
-4.46852e-07
-4.46857e-07
-4.46869e-07
-4.4219e-07
-4.40266e-07
-4.40896e-07
-4.43358e-07
-4.46869e-07
-4.46863e-07
-4.46863e-07
-4.46869e-07
-4.4232e-07
-4.42311e-07
-4.40378e-07
-4.4067e-07
-4.4253e-07
-4.42289e-07
-4.42126e-07
-4.42132e-07
-4.42191e-07
-4.42312e-07
-4.40402e-07
-4.40362e-07
-4.40598e-07
-4.42391e-07
-4.40269e-07
-4.40379e-07
-4.59693e-07
-4.59857e-07
-4.60053e-07
-4.62265e-07
-4.62347e-07
-4.62483e-07
-4.6225e-07
-4.60026e-07
-4.59804e-07
-4.60048e-07
-4.63092e-07
-4.66006e-07
-4.6601e-07
-4.66011e-07
-4.66008e-07
-4.6249e-07
-4.61663e-07
-4.62263e-07
-4.66005e-07
-4.66012e-07
-4.66016e-07
-4.66017e-07
-4.66015e-07
-4.66008e-07
-4.61414e-07
-4.59494e-07
-4.59685e-07
-4.62344e-07
-4.66008e-07
-4.66015e-07
-4.66019e-07
-4.6602e-07
-4.66017e-07
-4.6601e-07
-4.61257e-07
-4.59731e-07
-4.59851e-07
-4.62479e-07
-4.66007e-07
-4.66015e-07
-4.66019e-07
-4.6602e-07
-4.66017e-07
-4.66009e-07
-4.61263e-07
-4.61501e-07
-4.62246e-07
-4.66004e-07
-4.66011e-07
-4.66015e-07
-4.66016e-07
-4.66012e-07
-4.66005e-07
-4.61315e-07
-4.59395e-07
-4.60021e-07
-4.62483e-07
-4.66004e-07
-4.66007e-07
-4.66008e-07
-4.66004e-07
-4.6145e-07
-4.61427e-07
-4.59505e-07
-4.59801e-07
-4.61638e-07
-4.61408e-07
-4.61253e-07
-4.61259e-07
-4.61313e-07
-4.61426e-07
-4.59525e-07
-4.59486e-07
-4.59722e-07
-4.61495e-07
-4.59393e-07
-4.59502e-07
-4.78813e-07
-4.78985e-07
-4.79185e-07
-4.81458e-07
-4.8155e-07
-4.81688e-07
-4.81454e-07
-4.79179e-07
-4.78952e-07
-4.79181e-07
-4.82305e-07
-4.8531e-07
-4.85314e-07
-4.85316e-07
-4.85313e-07
-4.81727e-07
-4.80865e-07
-4.81457e-07
-4.8531e-07
-4.85318e-07
-4.85323e-07
-4.85324e-07
-4.85322e-07
-4.85316e-07
-4.80642e-07
-4.78643e-07
-4.78805e-07
-4.81548e-07
-4.85315e-07
-4.85324e-07
-4.85328e-07
-4.85329e-07
-4.85327e-07
-4.8532e-07
-4.80495e-07
-4.78891e-07
-4.7898e-07
-4.81687e-07
-4.85317e-07
-4.85325e-07
-4.8533e-07
-4.85331e-07
-4.85328e-07
-4.85322e-07
-4.80503e-07
-4.807e-07
-4.81453e-07
-4.85315e-07
-4.85323e-07
-4.85328e-07
-4.85329e-07
-4.85326e-07
-4.85319e-07
-4.80553e-07
-4.78552e-07
-4.79175e-07
-4.81725e-07
-4.85318e-07
-4.85322e-07
-4.85323e-07
-4.85319e-07
-4.80713e-07
-4.80649e-07
-4.78647e-07
-4.78947e-07
-4.80847e-07
-4.8064e-07
-4.80494e-07
-4.80503e-07
-4.80553e-07
-4.80649e-07
-4.787e-07
-4.78635e-07
-4.78884e-07
-4.80696e-07
-4.78551e-07
-4.78644e-07
-4.98435e-07
-4.98603e-07
-4.98802e-07
-5.01057e-07
-5.01132e-07
-5.01264e-07
-5.01033e-07
-4.98778e-07
-4.9855e-07
-4.98802e-07
-5.01883e-07
-5.04809e-07
-5.04802e-07
-5.048e-07
-5.04804e-07
-5.01271e-07
-5.00451e-07
-5.01066e-07
-5.04812e-07
-5.048e-07
-5.04792e-07
-5.0479e-07
-5.04794e-07
-5.04803e-07
-5.00201e-07
-4.98254e-07
-4.98445e-07
-5.01144e-07
-5.04808e-07
-5.04795e-07
-5.04788e-07
-5.04786e-07
-5.0479e-07
-5.048e-07
-5.00043e-07
-4.98497e-07
-4.98621e-07
-5.0128e-07
-5.04809e-07
-5.04796e-07
-5.04789e-07
-5.04787e-07
-5.04791e-07
-5.04802e-07
-5.00051e-07
-5.00303e-07
-5.01054e-07
-5.04816e-07
-5.04802e-07
-5.04795e-07
-5.04794e-07
-5.04799e-07
-5.0481e-07
-5.00113e-07
-4.9817e-07
-4.98803e-07
-5.01289e-07
-5.04815e-07
-5.04809e-07
-5.04808e-07
-5.04813e-07
-5.00252e-07
-5.00235e-07
-4.98282e-07
-4.98577e-07
-5.00455e-07
-5.0022e-07
-5.00058e-07
-5.00063e-07
-5.00122e-07
-5.00239e-07
-4.98317e-07
-4.98275e-07
-4.98514e-07
-5.00318e-07
-4.98184e-07
-4.9829e-07
-5.17708e-07
-5.17869e-07
-5.18072e-07
-5.20283e-07
-5.20362e-07
-5.20493e-07
-5.20258e-07
-5.18029e-07
-5.17803e-07
-5.18071e-07
-5.2111e-07
-5.24015e-07
-5.24015e-07
-5.24013e-07
-5.2401e-07
-5.20488e-07
-5.1966e-07
-5.20286e-07
-5.24014e-07
-5.24015e-07
-5.24016e-07
-5.24014e-07
-5.2401e-07
-5.24003e-07
-5.19407e-07
-5.17486e-07
-5.1771e-07
-5.20363e-07
-5.24012e-07
-5.24014e-07
-5.24014e-07
-5.24012e-07
-5.24008e-07
-5.24002e-07
-5.19247e-07
-5.1772e-07
-5.17876e-07
-5.20496e-07
-5.24009e-07
-5.24011e-07
-5.24011e-07
-5.24009e-07
-5.24005e-07
-5.23998e-07
-5.1925e-07
-5.19489e-07
-5.20261e-07
-5.24004e-07
-5.24006e-07
-5.24006e-07
-5.24004e-07
-5.23999e-07
-5.23992e-07
-5.19301e-07
-5.17383e-07
-5.18038e-07
-5.20487e-07
-5.23998e-07
-5.23998e-07
-5.23995e-07
-5.2399e-07
-5.19436e-07
-5.19413e-07
-5.17493e-07
-5.17815e-07
-5.19645e-07
-5.19408e-07
-5.19248e-07
-5.19251e-07
-5.19302e-07
-5.19414e-07
-5.17514e-07
-5.17492e-07
-5.17724e-07
-5.1949e-07
-5.17388e-07
-5.17496e-07
-5.36847e-07
-5.37019e-07
-5.3721e-07
-5.39477e-07
-5.3957e-07
-5.39709e-07
-5.39476e-07
-5.37206e-07
-5.36975e-07
-5.372e-07
-5.40315e-07
-5.43307e-07
-5.43314e-07
-5.43317e-07
-5.43317e-07
-5.39741e-07
-5.38886e-07
-5.39463e-07
-5.43302e-07
-5.43312e-07
-5.43319e-07
-5.43323e-07
-5.43323e-07
-5.4332e-07
-5.38653e-07
-5.36659e-07
-5.36816e-07
-5.39548e-07
-5.43304e-07
-5.43315e-07
-5.43322e-07
-5.43325e-07
-5.43325e-07
-5.43321e-07
-5.38502e-07
-5.36903e-07
-5.36985e-07
-5.39682e-07
-5.43303e-07
-5.43313e-07
-5.4332e-07
-5.43324e-07
-5.43324e-07
-5.4332e-07
-5.38506e-07
-5.38706e-07
-5.39444e-07
-5.43298e-07
-5.43309e-07
-5.43316e-07
-5.43319e-07
-5.43319e-07
-5.43315e-07
-5.38552e-07
-5.36553e-07
-5.37168e-07
-5.39709e-07
-5.433e-07
-5.43307e-07
-5.4331e-07
-5.43309e-07
-5.38704e-07
-5.38643e-07
-5.36643e-07
-5.36936e-07
-5.3883e-07
-5.38622e-07
-5.38476e-07
-5.38486e-07
-5.38538e-07
-5.38636e-07
-5.3669e-07
-5.36617e-07
-5.36864e-07
-5.38677e-07
-5.36532e-07
-5.36627e-07
-5.56376e-07
-5.5655e-07
-5.56734e-07
-5.58994e-07
-5.59078e-07
-5.59216e-07
-5.5899e-07
-5.56741e-07
-5.56519e-07
-5.5673e-07
-5.59822e-07
-5.62773e-07
-5.62773e-07
-5.62776e-07
-5.62782e-07
-5.59244e-07
-5.58424e-07
-5.58996e-07
-5.62776e-07
-5.62773e-07
-5.62772e-07
-5.62775e-07
-5.62781e-07
-5.62791e-07
-5.58182e-07
-5.56237e-07
-5.5637e-07
-5.59079e-07
-5.62778e-07
-5.62775e-07
-5.62774e-07
-5.62777e-07
-5.62783e-07
-5.62793e-07
-5.5803e-07
-5.56483e-07
-5.56546e-07
-5.59219e-07
-5.62782e-07
-5.62779e-07
-5.62779e-07
-5.62782e-07
-5.62788e-07
-5.62799e-07
-5.58042e-07
-5.58291e-07
-5.58995e-07
-5.62791e-07
-5.62788e-07
-5.62787e-07
-5.6279e-07
-5.62797e-07
-5.62808e-07
-5.58105e-07
-5.56161e-07
-5.56741e-07
-5.59249e-07
-5.628e-07
-5.628e-07
-5.62803e-07
-5.62811e-07
-5.58244e-07
-5.58225e-07
-5.56273e-07
-5.56519e-07
-5.5841e-07
-5.58187e-07
-5.58034e-07
-5.58045e-07
-5.58107e-07
-5.58226e-07
-5.56304e-07
-5.56233e-07
-5.56479e-07
-5.58292e-07
-5.56161e-07
-5.56271e-07
-5.75708e-07
-5.75872e-07
-5.76083e-07
-5.78322e-07
-5.78402e-07
-5.78533e-07
-5.78297e-07
-5.76046e-07
-5.7582e-07
-5.76089e-07
-5.79163e-07
-5.82104e-07
-5.821e-07
-5.82096e-07
-5.82092e-07
-5.78544e-07
-5.77706e-07
-5.78339e-07
-5.8211e-07
-5.82104e-07
-5.821e-07
-5.82096e-07
-5.82092e-07
-5.82089e-07
-5.77465e-07
-5.75515e-07
-5.75733e-07
-5.78425e-07
-5.8211e-07
-5.82105e-07
-5.82101e-07
-5.82097e-07
-5.82093e-07
-5.82089e-07
-5.77312e-07