/*--------------------------------*- C++ -*----------------------------------*\
| =========                 |                                                 |
| \\      /  F ield         | OpenFOAM: The Open Source CFD Toolbox           |
|  \\    /   O peration     | Version:  v1906                                 |
|   \\  /    A nd           | Web:      www.OpenFOAM.com                      |
|    \\/     M anipulation  |                                                 |
\*---------------------------------------------------------------------------*/
FoamFile
{
    version     2.0;
    format      ascii;
    class       volScalarField;
    location    "750";
    object      epsilon;
}
// * * * * * * * * * * * * * * * * * * * * * * * * * * * * * * * * * * * * * //

dimensions      [0 2 -3 0 0 0 0];


internalField   nonuniform List<scalar> 
42616
(
6.77151e-07
1.21607e-06
1.22878e-06
1.48059e-06
7.29625e-07
1.29056e-06
1.28387e-06
1.54676e-06
6.91594e-07
1.20538e-06
1.20078e-06
1.42715e-06
6.14214e-07
1.09779e-06
1.0971e-06
1.31069e-06
6.16243e-07
1.12322e-06
1.11043e-06
1.35158e-06
6.94414e-07
1.19774e-06
1.21256e-06
1.43034e-06
7.2333e-07
1.2239e-06
1.25059e-06
1.47966e-06
7.07335e-07
1.22698e-06
1.21387e-06
1.48285e-06
6.79434e-07
1.19596e-06
1.17093e-06
1.41703e-06
6.82801e-07
1.20178e-06
1.18852e-06
1.42373e-06
7.22569e-07
1.23049e-06
1.22827e-06
1.47716e-06
7.18181e-07
1.19192e-06
1.21724e-06
1.4436e-06
6.61347e-07
1.12789e-06
1.16085e-06
1.36226e-06
6.44346e-07
1.13685e-06
1.14352e-06
1.36701e-06
6.86275e-07
1.20999e-06
1.1729e-06
1.44547e-06
7.25101e-07
1.22599e-06
1.19318e-06
1.46756e-06
7.07783e-07
1.17398e-06
1.18064e-06
1.41942e-06
6.67145e-07
1.13098e-06
1.15944e-06
1.37397e-06
6.57547e-07
1.13701e-06
1.15692e-06
1.37025e-06
6.74209e-07
1.16895e-06
1.16448e-06
1.39943e-06
6.753e-07
1.12497e-06
1.11411e-06
1.38129e-06
1.44022e-06
1.19592e-06
1.18361e-06
1.41699e-06
1.1976e-06
1.19893e-06
1.18487e-06
1.2042e-06
1.44258e-06
1.20082e-06
1.2072e-06
1.45449e-06
1.46899e-06
1.5552e-06
1.22586e-06
1.21548e-06
1.28573e-06
1.28806e-06
1.44757e-06
1.56078e-06
1.22709e-06
1.22767e-06
1.28483e-06
1.28375e-06
1.23151e-06
1.28678e-06
1.279e-06
1.47048e-06
1.55216e-06
1.23377e-06
1.28221e-06
1.27795e-06
1.54461e-06
1.55986e-06
1.46627e-06
1.28766e-06
1.29207e-06
1.23499e-06
1.2437e-06
1.56873e-06
1.48359e-06
1.28658e-06
1.28565e-06
1.23421e-06
1.23644e-06
1.27943e-06
1.24226e-06
1.22351e-06
1.5568e-06
1.46596e-06
1.27811e-06
1.23475e-06
1.22153e-06
1.44287e-06
1.4484e-06
1.29297e-06
1.19891e-06
1.20623e-06
1.10346e-06
1.10862e-06
1.4643e-06
1.3006e-06
1.19847e-06
1.20194e-06
1.10326e-06
1.10894e-06
1.19067e-06
1.11031e-06
1.115e-06
1.449e-06
1.30194e-06
1.18894e-06
1.11078e-06
1.11434e-06
1.31192e-06
1.28683e-06
1.29927e-06
1.09017e-06
1.09553e-06
1.09521e-06
1.10131e-06
1.2946e-06
1.31106e-06
1.0895e-06
1.0944e-06
1.0926e-06
1.09235e-06
1.10678e-06
1.1035e-06
1.11588e-06
1.29654e-06
1.29963e-06
1.10613e-06
1.0954e-06
1.1142e-06
1.33542e-06
1.32085e-06
1.44459e-06
1.11798e-06
1.1222e-06
1.20006e-06
1.18742e-06
1.33144e-06
1.42147e-06
1.11447e-06
1.10839e-06
1.20114e-06
1.19135e-06
1.13229e-06
1.18442e-06
1.18329e-06
1.31618e-06
1.42718e-06
1.13029e-06
1.18842e-06
1.1843e-06
1.41808e-06
1.46535e-06
1.50304e-06
1.21898e-06
1.20115e-06
1.24144e-06
1.22141e-06
1.43479e-06
1.46055e-06
1.22211e-06
1.21581e-06
1.24608e-06
1.25005e-06
1.19646e-06
1.21961e-06
1.22593e-06
1.45102e-06
1.51094e-06
1.19965e-06
1.24906e-06
1.23126e-06
1.47073e-06
1.50597e-06
1.46847e-06
1.24203e-06
1.22489e-06
1.22778e-06
1.22817e-06
1.46594e-06
1.47325e-06
1.24621e-06
1.25103e-06
1.22592e-06
1.2284e-06
1.23184e-06
1.22838e-06
1.23429e-06
1.51622e-06
1.47506e-06
1.23587e-06
1.22948e-06
1.23365e-06
1.48406e-06
1.46378e-06
1.39382e-06
1.21601e-06
1.22656e-06
1.17825e-06
1.20148e-06
1.47478e-06
1.44297e-06
1.21272e-06
1.21319e-06
1.1748e-06
1.17511e-06
1.22844e-06
1.20277e-06
1.19145e-06
1.46837e-06
1.39185e-06
1.22351e-06
1.17522e-06
1.18615e-06
1.41866e-06
1.39249e-06
1.39404e-06
1.17146e-06
1.19461e-06
1.17198e-06
1.19245e-06
1.44212e-06
1.43313e-06
1.16848e-06
1.17031e-06
1.16947e-06
1.17412e-06
1.18397e-06
1.19444e-06
1.1845e-06
1.39135e-06
1.40168e-06
1.17978e-06
1.17711e-06
1.18173e-06
1.41331e-06
1.40735e-06
1.48904e-06
1.18362e-06
1.199e-06
1.23636e-06
1.22907e-06
1.43955e-06
1.47335e-06
1.18114e-06
1.18547e-06
1.23479e-06
1.22393e-06
1.19478e-06
1.22825e-06
1.22678e-06
1.41439e-06
1.46619e-06
1.19211e-06
1.22273e-06
1.22463e-06
1.47126e-06
1.50252e-06
1.4953e-06
1.24575e-06
1.23246e-06
1.24144e-06
1.21506e-06
1.47823e-06
1.4405e-06
1.24526e-06
1.23095e-06
1.24498e-06
1.23114e-06
1.23014e-06
1.21026e-06
1.21554e-06
1.47417e-06
1.47084e-06
1.22884e-06
1.22677e-06
1.21953e-06
1.44888e-06
1.48964e-06
1.36727e-06
1.22286e-06
1.1957e-06
1.15043e-06
1.13721e-06
1.43379e-06
1.34093e-06
1.22953e-06
1.2215e-06
1.15776e-06
1.17369e-06
1.19921e-06
1.13749e-06
1.14923e-06
1.4693e-06
1.40396e-06
1.20485e-06
1.17414e-06
1.15623e-06
1.36424e-06
1.35878e-06
1.31002e-06
1.13108e-06
1.12628e-06
1.11032e-06
1.12257e-06
1.33849e-06
1.33952e-06
1.13726e-06
1.15894e-06
1.11314e-06
1.13941e-06
1.13954e-06
1.12601e-06
1.13502e-06
1.40025e-06
1.36575e-06
1.14553e-06
1.14343e-06
1.13835e-06
1.35708e-06
1.31326e-06
1.38407e-06
1.11179e-06
1.13225e-06
1.15938e-06
1.19051e-06
1.35342e-06
1.44283e-06
1.1139e-06
1.13936e-06
1.1551e-06
1.15795e-06
1.14174e-06
1.19415e-06
1.18817e-06
1.36713e-06
1.38747e-06
1.14274e-06
1.16258e-06
1.18419e-06
1.43134e-06
1.40757e-06
1.48358e-06
1.18265e-06
1.20768e-06
1.22687e-06
1.22769e-06
1.46079e-06
1.49017e-06
1.17717e-06
1.169e-06
1.222e-06
1.19287e-06
1.20191e-06
1.22699e-06
1.21754e-06
1.39776e-06
1.42607e-06
1.19735e-06
1.19207e-06
1.2122e-06
1.46644e-06
1.49236e-06
1.47576e-06
1.23068e-06
1.22715e-06
1.21739e-06
1.19429e-06
1.49135e-06
1.42817e-06
1.22635e-06
1.19525e-06
1.21616e-06
1.19073e-06
1.21697e-06
1.19046e-06
1.18966e-06
1.43095e-06
1.42852e-06
1.21163e-06
1.18551e-06
1.18725e-06
1.42271e-06
1.47146e-06
1.38623e-06
1.2028e-06
1.178e-06
1.1536e-06
1.13803e-06
1.42184e-06
1.35315e-06
1.20295e-06
1.18536e-06
1.15741e-06
1.16517e-06
1.17691e-06
1.13588e-06
1.14468e-06
1.42926e-06
1.40567e-06
1.1764e-06
1.16285e-06
1.14847e-06
1.37393e-06
1.38237e-06
1.34873e-06
1.14265e-06
1.13248e-06
1.12859e-06
1.13052e-06
1.35278e-06
1.35402e-06
1.14708e-06
1.16088e-06
1.13362e-06
1.15613e-06
1.13938e-06
1.13042e-06
1.13498e-06
1.40602e-06
1.39451e-06
1.14391e-06
1.15608e-06
1.13998e-06
1.36615e-06
1.35024e-06
1.37177e-06
1.12877e-06
1.13594e-06
1.14323e-06
1.15954e-06
1.36262e-06
1.40116e-06
1.13369e-06
1.1566e-06
1.14459e-06
1.16048e-06
1.13688e-06
1.16139e-06
1.15503e-06
1.39605e-06
1.39704e-06
1.14149e-06
1.16236e-06
1.15632e-06
1.39179e-06
1.38143e-06
1.39407e-06
1.15253e-06
1.16718e-06
1.15233e-06
1.15661e-06
1.4094e-06
1.40604e-06
1.15245e-06
1.16225e-06
1.15017e-06
1.14655e-06
1.16343e-06
1.1581e-06
1.15648e-06
1.39953e-06
1.38454e-06
1.16374e-06
1.14834e-06
1.15493e-06
1.40017e-06
1.37755e-06
1.12117e-06
1.12378e-06
1.38568e-06
1.11928e-06
1.11281e-06
6.77405e-07
6.69939e-07
6.76227e-07
1.12406e-06
1.36445e-06
1.12243e-06
6.60262e-07
6.55154e-07
6.62769e-07
6.64709e-07
4.4409e-06
9.85167e-06
4.33966e-06
9.95779e-06
1.9528e-05
1.96675e-05
4.44258e-06
9.85124e-06
4.35164e-06
9.95102e-06
6.72869e-07
6.78819e-07
6.80197e-07
7.24697e-07
7.26138e-07
7.23185e-07
7.2053e-07
2.43273e-06
3.72947e-06
9.60704e-07
1.24782e-06
2.36254e-06
3.83214e-06
9.85006e-07
1.95318e-05
1.9612e-05
2.4373e-06
9.6764e-07
3.76126e-06
1.25473e-06
2.37891e-06
9.88631e-07
3.84037e-06
5.83868e-06
5.83863e-06
1.51871e-06
5.92206e-06
5.92181e-06
4.46568e-06
9.92974e-06
4.51648e-06
9.76229e-06
1.95826e-05
1.93341e-05
4.44212e-06
9.91979e-06
4.50215e-06
9.75422e-06
7.3261e-07
7.278e-07
7.24054e-07
7.13103e-07
7.17273e-07
7.1356e-07
7.07261e-07
2.44829e-06
3.91847e-06
1.01847e-06
1.28847e-06
2.4814e-06
3.88254e-06
1.01666e-06
1.94609e-05
1.92225e-05
2.42454e-06
1.01343e-06
3.88745e-06
1.28073e-06
2.46847e-06
1.01118e-06
3.83049e-06
5.932e-06
5.93089e-06
1.52001e-06
5.80322e-06
5.80125e-06
4.08856e-06
9.4034e-06
4.22598e-06
9.26252e-06
1.88222e-05
1.86748e-05
4.08702e-06
9.40123e-06
4.21418e-06
9.26582e-06
6.94986e-07
6.93691e-07
6.88335e-07
6.27125e-07
6.30074e-07
6.32118e-07
6.3402e-07
2.19999e-06
3.65717e-06
9.50784e-07
1.16739e-06
2.29179e-06
3.52338e-06
9.21113e-07
1.88098e-05
1.86952e-05
2.19296e-06
9.48968e-07
3.62964e-06
1.16527e-06
2.27591e-06
9.21067e-07
3.51526e-06
5.55058e-06
5.54771e-06
1.35829e-06
5.44961e-06
5.45128e-06
3.99631e-06
9.21998e-06
3.98391e-06
9.31446e-06
1.87108e-05
1.88783e-05
3.99166e-06
9.22282e-06
3.98658e-06
9.30694e-06
6.17192e-07
6.18628e-07
6.23643e-07
6.08085e-07
6.10549e-07
6.08618e-07
6.17915e-07
2.13433e-06
3.42369e-06
8.65509e-07
1.09415e-06
2.12879e-06
3.43234e-06
8.63214e-07
1.87147e-05
1.88486e-05
2.13279e-06
8.66841e-07
3.42824e-06
1.09164e-06
2.129e-06
8.63477e-07
3.43048e-06
5.42088e-06
5.4221e-06
1.30769e-06
5.47594e-06
5.47439e-06
4.21654e-06
9.55242e-06
4.13121e-06
9.68921e-06
1.91541e-05
1.92759e-05
4.20186e-06
9.54067e-06
4.11017e-06
9.69154e-06
6.17323e-07
6.12687e-07
6.22787e-07
6.74971e-07
6.63878e-07
6.66317e-07
6.62187e-07
2.25524e-06
3.54314e-06
8.9176e-07
1.14471e-06
2.21011e-06
3.60618e-06
9.10126e-07
1.91204e-05
1.93032e-05
2.2464e-06
8.84543e-07
3.51616e-06
1.13381e-06
2.19933e-06
9.03402e-07
3.58511e-06
5.5855e-06
5.5859e-06
1.3797e-06
5.63448e-06
5.63715e-06
4.34697e-06
9.83015e-06
4.31828e-06
9.85839e-06
1.93579e-05
1.9384e-05
4.39234e-06
9.86778e-06
4.34002e-06
9.90579e-06
6.79584e-07
6.87975e-07
6.77936e-07
7.22214e-07
7.09787e-07
7.25053e-07
7.1366e-07
2.3265e-06
3.67802e-06
9.58504e-07
1.20721e-06
2.30841e-06
3.69687e-06
9.67147e-07
1.95276e-05
1.96052e-05
2.36493e-06
9.66211e-07
3.71319e-06
1.2309e-06
2.32609e-06
9.80405e-07
3.77397e-06
5.68481e-06
5.69906e-06
1.4462e-06
5.71921e-06
5.73608e-06
4.35046e-06
9.83171e-06
4.35909e-06
9.78245e-06
1.9414e-05
1.94308e-05
4.38163e-06
9.85418e-06
4.4163e-06
9.77569e-06
7.14739e-07
7.26933e-07
7.18957e-07
7.14262e-07
7.18808e-07
7.1473e-07
7.19754e-07
2.36495e-06
3.72009e-06
9.78531e-07
1.22689e-06
2.3524e-06
3.73217e-06
9.79304e-07
1.95619e-05
1.94414e-05
2.4003e-06
9.92979e-07
3.82432e-06
1.24957e-06
2.40143e-06
9.91262e-07
3.80905e-06
5.79658e-06
5.8053e-06
1.48597e-06
5.8246e-06
5.82381e-06
4.26587e-06
9.65122e-06
4.30931e-06
9.57865e-06
1.93906e-05
1.9333e-05
4.2172e-06
9.61994e-06
4.28104e-06
9.54669e-06
7.17691e-07
7.05778e-07
7.14231e-07
6.84241e-07
6.98948e-07
6.81623e-07
6.90241e-07
2.33846e-06
3.73968e-06
9.73215e-07
1.22126e-06
2.36541e-06
3.71574e-06
9.65308e-07
1.91818e-05
1.90998e-05
2.2949e-06
9.6128e-07
3.69893e-06
1.19776e-06
2.34192e-06
9.49219e-07
3.62751e-06
5.78876e-06
5.7689e-06
1.45463e-06
5.70751e-06
5.69584e-06
4.18778e-06
9.52229e-06
4.20225e-06
9.54539e-06
1.92553e-05
1.92608e-05
4.15168e-06
9.50186e-06
4.15442e-06
9.53651e-06
6.92356e-07
6.77868e-07
6.84182e-07
6.77916e-07
6.86026e-07
6.78518e-07
6.81036e-07
2.28136e-06
3.6688e-06
9.41206e-07
1.19286e-06
2.29149e-06
3.65614e-06
9.38237e-07
1.90964e-05
1.91846e-05
2.24271e-06
9.28189e-07
3.57155e-06
1.1701e-06
2.2462e-06
9.27859e-07
3.57492e-06
5.61638e-06
5.61813e-06
1.4055e-06
5.60717e-06
5.61278e-06
4.30936e-06
9.7014e-06
4.24281e-06
9.81283e-06
1.93583e-05
1.94229e-05
4.29285e-06
9.6893e-06
4.22776e-06
9.79891e-06
6.87635e-07
6.84351e-07
6.84766e-07
7.14478e-07
7.06506e-07
7.09554e-07
7.06084e-07
2.34042e-06
3.68454e-06
9.47399e-07
1.21237e-06
2.30737e-06
3.72011e-06
9.57779e-07
1.93534e-05
1.94393e-05
2.32412e-06
9.4572e-07
3.65006e-06
1.20097e-06
2.28917e-06
9.56106e-07
3.69469e-06
5.70022e-06
5.69557e-06
1.44454e-06
5.76198e-06
5.75079e-06
4.39573e-06
9.9007e-06
4.3901e-06
9.86963e-06
1.94017e-05
1.93079e-05
4.40069e-06
9.90515e-06
4.38229e-06
9.89994e-06
7.10587e-07
7.16446e-07
7.11004e-07
7.25534e-07
7.09001e-07
7.21213e-07
7.12252e-07
2.35454e-06
3.75179e-06
9.78134e-07
1.2299e-06
2.36647e-06
3.73644e-06
9.78451e-07
1.94753e-05
1.94438e-05
2.36197e-06
9.79935e-07
3.74402e-06
1.23017e-06
2.36046e-06
9.81373e-07
3.7479e-06
5.80936e-06
5.80195e-06
1.47499e-06
5.78173e-06
5.78643e-06
4.1944e-06
9.65576e-06
4.28818e-06
9.51486e-06
1.90605e-05
1.89717e-05
4.26193e-06
9.71675e-06
4.34222e-06
9.57146e-06
7.00614e-07
7.18219e-07
7.07092e-07
6.74912e-07
6.68591e-07
6.87358e-07
6.78487e-07
2.22933e-06
3.63756e-06
9.53427e-07
1.172e-06
2.28072e-06
3.56559e-06
9.38362e-07
1.92953e-05
1.92131e-05
2.28547e-06
9.67834e-07
3.71404e-06
1.20422e-06
2.32309e-06
9.56041e-07
3.67135e-06
5.65268e-06
5.67424e-06
1.40299e-06
5.57547e-06
5.59854e-06
4.05776e-06
9.37639e-06
4.08066e-06
9.36917e-06
1.8959e-05
1.90595e-05
4.10122e-06
9.40858e-06
4.14046e-06
9.38942e-06
6.6111e-07
6.76023e-07
6.70331e-07
6.44009e-07
6.5608e-07
6.56641e-07
6.61505e-07
2.17038e-06
3.49559e-06
9.02377e-07
1.12371e-06
2.17569e-06
3.49043e-06
8.98536e-07
1.91101e-05
1.91057e-05
2.2154e-06
9.1759e-07
3.60593e-06
1.15109e-06
2.23155e-06
9.09434e-07
3.57867e-06
5.51615e-06
5.52955e-06
1.35018e-06
5.52178e-06
5.52655e-06
4.16962e-06
9.48324e-06
4.10362e-06
9.60414e-06
1.9308e-05
1.94815e-05
4.14266e-06
9.47378e-06
4.1016e-06
9.57687e-06
6.59162e-07
6.55786e-07
6.62266e-07
6.713e-07
6.9069e-07
6.66895e-07
6.8428e-07
2.26823e-06
3.56853e-06
9.06288e-07
1.15471e-06
2.21923e-06
3.63714e-06
9.18901e-07
1.91668e-05
1.92441e-05
2.24853e-06
9.05218e-07
3.57211e-06
1.14576e-06
2.22399e-06
9.09539e-07
3.59003e-06
5.61342e-06
5.61058e-06
1.38934e-06
5.6761e-06
5.67535e-06
4.36165e-06
9.81221e-06
4.29906e-06
9.90853e-06
1.96414e-05
1.96576e-05
4.29024e-06
9.76125e-06
4.23596e-06
9.85544e-06
7.02315e-07
6.75611e-07
6.94042e-07
7.21637e-07
7.18742e-07
7.00382e-07
7.11102e-07
2.37248e-06
3.75294e-06
9.59603e-07
1.22035e-06
2.3464e-06
3.78829e-06
9.67397e-07
1.93435e-05
1.93977e-05
2.31153e-06
9.38938e-07
3.64174e-06
1.18199e-06
2.29435e-06
9.47627e-07
3.66259e-06
5.77879e-06
5.77643e-06
1.45902e-06
5.80719e-06
5.8014e-06
4.3921e-06
9.95115e-06
4.40945e-06
9.8992e-06
1.95082e-05
1.9383e-05
4.35687e-06
9.91716e-06
4.34993e-06
9.89397e-06
7.18844e-07
7.04346e-07
7.11894e-07
7.17567e-07
7.02011e-07
7.03932e-07
7.0209e-07
2.34095e-06
3.7893e-06
9.70894e-07
1.21981e-06
2.37378e-06
3.73604e-06
9.65445e-07
1.94276e-05
1.94308e-05
2.308e-06
9.56196e-07
3.68341e-06
1.19283e-06
2.3187e-06
9.54908e-07
3.68198e-06
5.79945e-06
5.78704e-06
1.45277e-06
5.74903e-06
5.73671e-06
4.22318e-06
9.71265e-06
4.29179e-06
9.61703e-06
1.91717e-05
1.91274e-05
4.26754e-06
9.745e-06
4.31206e-06
9.662e-06
6.92572e-07
6.9935e-07
6.95006e-07
6.75456e-07
6.6694e-07
6.82646e-07
6.73235e-07
2.23177e-06
3.63682e-06
9.30931e-07
1.1576e-06
2.27075e-06
3.57455e-06
9.18407e-07
1.93877e-05
1.93651e-05
2.26504e-06
9.36564e-07
3.66849e-06
1.17419e-06
2.28191e-06
9.28798e-07
3.65233e-06
5.6694e-06
5.66754e-06
1.39309e-06
5.62425e-06
5.62972e-06
4.12733e-06
9.50882e-06
4.1444e-06
9.50545e-06
1.91242e-05
1.9191e-05
4.1835e-06
9.55561e-06
4.20469e-06
9.5475e-06
6.6293e-07
6.77998e-07
6.68586e-07
6.57345e-07
6.61201e-07
6.71449e-07
6.63436e-07
2.1941e-06
3.53716e-06
8.98485e-07
1.12877e-06
2.1976e-06
3.53577e-06
8.96972e-07
1.93194e-05
1.9322e-05
2.24377e-06
9.11928e-07
3.63665e-06
1.15689e-06
2.24841e-06
9.09521e-07
3.6276e-06
5.59837e-06
5.6091e-06
1.36566e-06
5.59347e-06
5.60575e-06
4.17745e-06
9.54882e-06
4.14364e-06
9.61263e-06
1.93043e-05
1.93939e-05
4.1892e-06
9.57123e-06
4.17611e-06
9.61727e-06
6.64199e-07
6.71462e-07
6.63846e-07
6.67905e-07
6.79742e-07
6.75942e-07
6.74242e-07
2.2375e-06
3.58343e-06
9.03245e-07
1.1444e-06
2.21835e-06
3.61034e-06
9.08468e-07
1.93151e-05
1.93425e-05
2.25317e-06
9.10617e-07
3.63021e-06
1.15809e-06
2.24767e-06
9.12967e-07
3.62683e-06
5.61732e-06
5.62911e-06
1.37534e-06
5.63624e-06
5.64609e-06
4.25546e-06
9.69186e-06
4.22801e-06
9.73656e-06
1.94423e-05
1.94755e-05
4.23187e-06
9.67536e-06
4.21576e-06
9.71358e-06
6.85466e-07
6.79111e-07
6.80037e-07
6.80371e-07
6.84303e-07
6.76131e-07
6.8209e-07
2.28467e-06
3.66733e-06
9.27275e-07
1.17104e-06
2.27555e-06
3.66606e-06
9.2986e-07
1.9343e-05
1.93752e-05
2.26705e-06
9.23625e-07
3.64425e-06
1.16367e-06
2.267e-06
9.25257e-07
3.63186e-06
5.6887e-06
5.69344e-06
1.40614e-06
5.70771e-06
5.70706e-06
3.50176e-06
8.9717e-06
4.22621e-06
5.90104e-06
1.7248e-05
8.58813e-06
3.48008e-06
8.94885e-06
4.19886e-06
5.88636e-06
3.2813e-07
4.96438e-07
4.93526e-07
7.25799e-07
3.30657e-07
5.20335e-07
5.17889e-07
2.20924e-06
3.58965e-06
9.11719e-07
1.07285e-06
2.26515e-06
3.69278e-06
8.48414e-07
1.71626e-05
8.54767e-06
2.1886e-06
9.06183e-07
3.54981e-06
1.06232e-06
2.24255e-06
8.44718e-07
3.65223e-06
5.64254e-06
5.64171e-06
1.33238e-06
5.28521e-06
5.28164e-06
1.94973e-05
1.93009e-05
1.94893e-05
1.92975e-05
1.39671e-06
5.77769e-06
5.77485e-06
5.64808e-06
5.64957e-06
4.19426e-06
9.80358e-06
9.63845e-06
4.30132e-06
4.18649e-06
9.77203e-06
9.59077e-06
4.29496e-06
2.2569e-06
1.16924e-06
3.72241e-06
9.38234e-07
3.62303e-06
9.18076e-07
2.33366e-06
2.25166e-06
1.15861e-06
3.68768e-06
9.34713e-07
3.58218e-06
9.15237e-07
2.32866e-06
1.94675e-05
1.92287e-05
1.37641e-06
5.72822e-06
5.72506e-06
5.58502e-06
5.58733e-06
1.94545e-05
1.92247e-05
4.21565e-06
9.80595e-06
9.64914e-06
4.31657e-06
2.27234e-06
1.17114e-06
3.72394e-06
9.42306e-07
3.62807e-06
9.22293e-07
2.34578e-06
4.21584e-06
9.80351e-06
9.64771e-06
4.31697e-06
2.27246e-06
1.17309e-06
9.43107e-07
3.72458e-06
9.23264e-07
3.62925e-06
2.34585e-06
2.26321e-06
1.1599e-06
3.68967e-06
9.37352e-07
3.58847e-06
9.17987e-07
2.33565e-06
4.20304e-06
9.77377e-06
9.60141e-06
4.30336e-06
2.27059e-06
1.17908e-06
9.42733e-07
3.73924e-06
9.23311e-07
3.64861e-06
2.34229e-06
4.21328e-06
9.81148e-06
9.6675e-06
4.31252e-06
1.94899e-05
1.92995e-05
1.39962e-06
5.77664e-06
5.77497e-06
5.65139e-06
5.65413e-06
1.94762e-05
1.9297e-05
2.28743e-06
1.17555e-06
9.4627e-07
3.72796e-06
9.27485e-07
3.63669e-06
2.35504e-06
2.28992e-06
1.18249e-06
9.47945e-07
3.74431e-06
9.29355e-07
3.65717e-06
2.35719e-06
4.23646e-06
9.80658e-06
9.66104e-06
4.32863e-06
4.2393e-06
9.81904e-06
9.68479e-06
4.33177e-06
1.41196e-06
5.80083e-06
5.80133e-06
5.68329e-06
5.688e-06
1.9495e-05
1.93324e-05
1.94903e-05
1.93342e-05
1.95413e-05
1.96221e-05
1.95329e-05
1.96188e-05
5.8216e-06
5.8185e-06
1.51674e-06
5.92708e-06
5.92491e-06
1.95373e-05
1.96225e-05
1.95468e-05
1.96209e-05
1.53801e-06
5.98184e-06
5.98196e-06
5.95318e-06
5.9515e-06
4.4396e-06
9.8285e-06
4.33423e-06
9.96683e-06
2.43659e-06
3.75872e-06
9.62115e-07
1.2546e-06
2.36231e-06
3.8465e-06
9.86723e-07
2.4346e-06
3.72864e-06
9.59207e-07
1.24791e-06
2.35786e-06
3.83514e-06
9.84739e-07
4.46884e-06
9.96683e-06
9.97354e-06
4.51387e-06
4.46918e-06
1.00136e-05
9.99384e-06
4.5189e-06
2.45625e-06
1.27537e-06
3.90198e-06
1.01708e-06
3.86993e-06
1.00646e-06
2.48694e-06
2.4553e-06
1.27367e-06
3.9194e-06
1.01792e-06
3.86642e-06
1.00599e-06
2.48889e-06
5.78044e-06
5.77761e-06
1.50632e-06
5.91881e-06
5.91428e-06
1.95122e-05
1.96486e-05
1.96485e-05
1.96824e-05
1.53294e-06
6.01995e-06
6.01267e-06
5.95757e-06
5.95282e-06
1.96313e-05
1.96632e-05
2.43879e-06
3.75948e-06
9.65196e-07
1.25503e-06
2.37215e-06
3.84493e-06
9.88314e-07
4.44268e-06
9.84854e-06
4.3521e-06
9.94738e-06
2.43865e-06
9.65761e-07
3.75969e-06
1.25469e-06
2.37217e-06
9.88542e-07
3.84335e-06
4.46651e-06
9.95711e-06
9.96559e-06
4.50161e-06
2.45578e-06
1.27497e-06
3.8998e-06
1.01525e-06
3.86835e-06
1.00602e-06
2.48001e-06
4.46639e-06
9.95205e-06
9.96157e-06
4.50053e-06
2.45555e-06
1.27401e-06
1.01492e-06
3.89533e-06
1.0059e-06
3.86591e-06
2.47952e-06
4.43553e-06
9.82687e-06
4.33957e-06
9.9558e-06
2.43498e-06
9.64959e-07
3.77102e-06
1.25582e-06
2.36838e-06
9.87337e-07
3.84378e-06
4.43859e-06
9.85144e-06
4.34773e-06
9.9324e-06
2.45137e-06
1.27287e-06
3.91326e-06
1.01569e-06
3.86286e-06
1.00479e-06
2.48003e-06
4.46208e-06
9.99477e-06
9.98011e-06
4.50366e-06
2.4521e-06
1.272e-06
1.01305e-06
3.87942e-06
1.00438e-06
3.86157e-06
2.47653e-06
4.46293e-06
9.91056e-06
9.94086e-06
4.49784e-06
5.81991e-06
5.81719e-06
1.51536e-06
5.92183e-06
5.91721e-06
1.95158e-05
1.95906e-05
1.95321e-05
1.96125e-05
1.5358e-06
5.97448e-06
5.96584e-06
5.94756e-06
5.94137e-06
1.95115e-05
1.95909e-05
2.43806e-06
9.6896e-07
3.77492e-06
1.25677e-06
2.38076e-06
9.89136e-07
3.84417e-06
4.43921e-06
9.84746e-06
4.36086e-06
9.93349e-06
4.44149e-06
9.85531e-06
4.36367e-06
9.92555e-06
2.45161e-06
1.27308e-06
1.0119e-06
3.8875e-06
1.00409e-06
3.86148e-06
2.469e-06
2.45185e-06
1.27173e-06
1.01051e-06
3.87624e-06
1.00357e-06
3.86106e-06
2.46791e-06
4.45936e-06
9.9253e-06
9.94417e-06
4.48245e-06
4.46103e-06
9.89109e-06
9.93132e-06
4.48284e-06
1.95271e-05
1.95718e-05
1.95214e-05
1.95674e-05
1.53515e-06
5.94748e-06
5.94668e-06
5.93979e-06
5.9394e-06
1.94422e-05
1.9563e-05
1.94447e-05
1.95601e-05
1.94658e-05
1.92214e-05
1.94777e-05
1.92365e-05
5.97818e-06
5.97906e-06
1.54186e-06
5.87733e-06
5.88086e-06
1.88646e-05
1.91169e-05
1.88725e-05
1.91303e-05
1.53405e-06
5.65168e-06
5.65256e-06
5.82669e-06
5.82917e-06
4.47571e-06
9.99488e-06
4.52251e-06
9.82874e-06
2.45762e-06
3.9029e-06
1.0196e-06
1.28427e-06
2.48869e-06
3.85088e-06
1.01752e-06
2.46283e-06
3.92526e-06
1.02109e-06
1.29006e-06
2.49126e-06
3.89212e-06
1.01933e-06
4.42606e-06
9.46926e-06
9.68736e-06
4.27674e-06
4.43563e-06
9.50343e-06
9.74855e-06
4.28331e-06
2.43373e-06
1.26765e-06
3.68388e-06
9.78771e-07
3.81824e-06
1.00563e-06
2.33459e-06
2.43893e-06
1.27669e-06
3.71409e-06
9.81142e-07
3.85939e-06
1.00815e-06
2.33905e-06
6.02333e-06
6.01561e-06
1.55877e-06
5.95077e-06
5.94029e-06
1.95659e-05
1.93219e-05
1.89097e-05
1.92142e-05
1.55173e-06
5.69306e-06
5.68412e-06
5.8952e-06
5.88478e-06
1.89049e-05
1.9203e-05
2.44421e-06
3.90079e-06
1.01728e-06
1.28313e-06
2.48061e-06
3.84823e-06
1.01512e-06
4.43937e-06
9.91409e-06
4.50084e-06
9.74956e-06
2.44339e-06
1.0169e-06
3.89597e-06
1.28262e-06
2.48007e-06
1.0148e-06
3.84162e-06
4.40235e-06
9.46524e-06
9.6798e-06
4.26181e-06
2.42007e-06
1.2665e-06
3.68124e-06
9.77736e-07
3.81556e-06
1.00343e-06
2.32437e-06
4.39952e-06
9.47113e-06
9.67679e-06
4.25978e-06
2.41925e-06
1.26743e-06
9.78344e-07
3.67905e-06
1.00341e-06
3.80956e-06
2.32402e-06
4.44973e-06
9.97249e-06
4.5055e-06
9.80527e-06
2.43953e-06
1.01475e-06
3.87703e-06
1.27428e-06
2.4771e-06
1.01231e-06
3.80535e-06
4.43461e-06
9.86663e-06
4.4983e-06
9.69208e-06
2.42397e-06
1.275e-06
3.70524e-06
9.7954e-07
3.84967e-06
1.00562e-06
2.32599e-06
4.40889e-06
9.48901e-06
9.72616e-06
4.26191e-06
2.41469e-06
1.25429e-06
9.74468e-07
3.64369e-06
9.99807e-07
3.7704e-06
2.31793e-06
4.39342e-06
9.43366e-06
9.62055e-06
4.24959e-06
5.97079e-06
5.96109e-06
1.53949e-06
5.86787e-06
5.85882e-06
1.94434e-05
1.92126e-05
1.88801e-05
1.91197e-05
1.53199e-06
5.64862e-06
5.6427e-06
5.81857e-06
5.80939e-06
1.88797e-05
1.91138e-05
2.42087e-06
1.01158e-06
3.87273e-06
1.27253e-06
2.46704e-06
1.00883e-06
3.79664e-06
4.40563e-06
9.88537e-06
4.48078e-06
9.72401e-06
4.40194e-06
9.84691e-06
4.48054e-06
9.67179e-06
2.39969e-06
1.26538e-06
9.75509e-07
3.67054e-06
9.99665e-07
3.7979e-06
2.30703e-06
2.39545e-06
1.25199e-06
9.71767e-07
3.63571e-06
9.95947e-07
3.76116e-06
2.30276e-06
4.36656e-06
9.45867e-06
9.65404e-06
4.23285e-06
4.36207e-06
9.4222e-06
9.60186e-06
4.22771e-06
1.93648e-05
1.91191e-05
1.93691e-05
1.91252e-05
1.51113e-06
5.59492e-06
5.59175e-06
5.75286e-06
5.7499e-06
1.88345e-05
1.90279e-05
1.88383e-05
1.90337e-05
1.87902e-05
1.86644e-05
1.87967e-05
1.86677e-05
5.59505e-06
5.5963e-06
1.36559e-06
5.44694e-06
5.45243e-06
1.86678e-05
1.86453e-05
1.86635e-05
1.86472e-05
1.34865e-06
5.35147e-06
5.35424e-06
5.41194e-06
5.41779e-06
4.09123e-06
9.42947e-06
4.23137e-06
9.27398e-06
2.19826e-06
3.63909e-06
9.49241e-07
1.16112e-06
2.2987e-06
3.50981e-06
9.18398e-07
2.20111e-06
3.66478e-06
9.51111e-07
1.1675e-06
2.3027e-06
3.52474e-06
9.20005e-07
4.05397e-06
9.21221e-06
9.23504e-06
3.99102e-06
4.0559e-06
9.22215e-06
9.24472e-06
3.99181e-06
2.171e-06
1.12753e-06
3.41217e-06
8.69324e-07
3.4774e-06
8.89964e-07
2.1166e-06
2.17354e-06
1.13301e-06
3.42318e-06
8.70532e-07
3.49006e-06
8.91335e-07
2.11867e-06
5.628e-06
5.62127e-06
1.37628e-06
5.46228e-06
5.46366e-06
1.88195e-05
1.868e-05
1.86822e-05
1.86542e-05
1.35788e-06
5.36435e-06
5.37024e-06
5.42431e-06
5.42797e-06
1.86913e-05
1.86611e-05
2.19584e-06
3.637e-06
9.4928e-07
1.16096e-06
2.2904e-06
3.51e-06
9.19185e-07
4.08708e-06
9.40999e-06
4.2126e-06
9.2817e-06
2.19654e-06
9.50548e-07
3.63735e-06
1.16565e-06
2.29029e-06
9.21035e-07
3.51657e-06
4.05469e-06
9.21663e-06
9.23952e-06
3.99451e-06
2.17008e-06
1.1275e-06
3.41287e-06
8.7039e-07
3.47817e-06
8.91154e-07
2.11751e-06
4.05529e-06
9.23365e-06
9.25639e-06
3.9964e-06
2.17103e-06
1.13308e-06
8.72667e-07
3.42688e-06
8.93407e-07
3.4874e-06
2.11899e-06
4.09066e-06
9.41935e-06
4.21379e-06
9.27794e-06
2.19677e-06
9.47251e-07
3.60576e-06
1.15829e-06
2.28469e-06
9.19328e-07
3.5065e-06
4.08626e-06
9.38313e-06
4.20325e-06
9.29286e-06
2.17653e-06
1.13385e-06
3.43014e-06
8.7517e-07
3.49084e-06
8.94225e-07
2.13374e-06
4.06178e-06
9.23962e-06
9.25343e-06
4.01553e-06
2.17473e-06
1.13208e-06
8.77522e-07
3.45364e-06
8.9461e-07
3.48596e-06
2.13566e-06
4.05958e-06
9.29129e-06
9.28103e-06
4.01897e-06
5.59643e-06
5.59077e-06
1.36994e-06
5.46043e-06
5.46166e-06
1.88116e-05
1.87012e-05
1.86952e-05
1.86773e-05
1.35453e-06
5.37665e-06
5.38343e-06
5.42972e-06
5.43244e-06
1.87071e-05
1.86852e-05
2.19123e-06
9.45632e-07
3.59851e-06
1.15695e-06
2.27193e-06
9.18689e-07
3.50324e-06
4.08343e-06
9.4017e-06
4.19079e-06
9.28663e-06
4.08104e-06
9.3747e-06
4.18597e-06
9.29244e-06
2.17208e-06
1.13382e-06
8.77145e-07
3.43463e-06
8.95654e-07
3.48787e-06
2.13356e-06
2.17128e-06
1.13118e-06
8.78287e-07
3.45315e-06
8.94919e-07
3.48354e-06
2.13573e-06
4.05902e-06
9.25408e-06
9.26617e-06
4.01984e-06
4.05775e-06
9.29724e-06
9.28263e-06
4.02201e-06
1.87863e-05
1.87323e-05
1.87897e-05
1.87347e-05
1.34721e-06
5.41559e-06
5.41761e-06
5.43162e-06
5.43388e-06
1.88022e-05
1.87317e-05
1.88025e-05
1.87339e-05
1.86934e-05
1.88554e-05
1.86866e-05
1.88409e-05
5.3464e-06
5.34747e-06
1.27344e-06
5.37085e-06
5.36354e-06
1.91225e-05
1.89097e-05
1.91137e-05
1.88941e-05
1.27653e-06
5.49837e-06
5.48885e-06
5.39875e-06
5.38942e-06
3.99726e-06
9.23169e-06
3.9846e-06
9.33044e-06
2.1071e-06
3.4037e-06
8.58509e-07
1.08601e-06
2.10841e-06
3.40648e-06
8.55751e-07
2.10922e-06
3.41541e-06
8.59702e-07
1.09167e-06
2.11044e-06
3.42251e-06
8.56997e-07
4.01876e-06
9.5044e-06
9.35603e-06
4.10127e-06
4.0199e-06
9.50931e-06
9.37162e-06
4.1021e-06
2.1184e-06
1.08693e-06
3.498e-06
8.66914e-07
3.42426e-06
8.57294e-07
2.17326e-06
2.12063e-06
1.09276e-06
3.51464e-06
8.68431e-07
3.44312e-06
8.58607e-07
2.17504e-06
5.36137e-06
5.36736e-06
1.28308e-06
5.40042e-06
5.40118e-06
1.87173e-05
1.88766e-05
1.9114e-05
1.893e-05
1.28734e-06
5.5277e-06
5.51833e-06
5.43168e-06
5.43053e-06
1.91002e-05
1.89229e-05
2.10457e-06
3.40368e-06
8.58874e-07
1.08484e-06
2.10889e-06
3.40266e-06
8.55342e-07
3.99407e-06
9.23842e-06
3.98874e-06
9.31155e-06
2.10604e-06
8.60831e-07
3.41878e-06
1.08849e-06
2.11045e-06
8.56859e-07
3.41764e-06
4.00883e-06
9.49082e-06
9.34513e-06
4.08161e-06
2.11214e-06
1.0854e-06
3.4882e-06
8.6342e-07
3.41748e-06
8.56173e-07
2.1598e-06
4.01085e-06
9.46902e-06
9.34396e-06
4.08118e-06
2.11331e-06
1.08816e-06
8.63332e-07
3.48467e-06
8.57338e-07
3.42999e-06
2.15925e-06
4.03693e-06
9.25336e-06
4.01255e-06
9.34982e-06
2.13952e-06
8.6906e-07
3.45305e-06
1.10506e-06
2.13164e-06
8.672e-07
3.47736e-06
4.0454e-06
9.3117e-06
4.01716e-06
9.40251e-06
2.1471e-06
1.09523e-06
3.51759e-06
8.73857e-07
3.45232e-06
8.64776e-07
2.193e-06
4.05757e-06
9.51183e-06
9.38707e-06
4.12513e-06
2.15225e-06
1.10681e-06
8.77653e-07
3.5471e-06
8.68819e-07
3.49594e-06
2.19696e-06
4.06579e-06
9.53416e-06
9.43414e-06
4.13132e-06
5.37232e-06
5.37969e-06
1.28238e-06
5.38916e-06
5.39651e-06
1.87266e-05
1.88537e-05
1.90725e-05
1.88889e-05
1.28456e-06
5.48177e-06
5.47848e-06
5.40973e-06
5.41467e-06
1.90598e-05
1.88907e-05
2.13849e-06
8.69596e-07
3.45261e-06
1.1043e-06
2.13201e-06
8.67237e-07
3.47573e-06
4.03817e-06
9.26442e-06
4.01754e-06
9.34128e-06
4.04523e-06
9.31718e-06
4.02057e-06
9.4053e-06
2.14362e-06
1.09138e-06
8.69286e-07
3.49335e-06
8.63952e-07
3.44358e-06
2.18308e-06
2.14988e-06
1.10584e-06
8.74776e-07
3.54515e-06
8.68202e-07
3.4939e-06
2.18981e-06
4.05568e-06
9.4808e-06
9.37112e-06
4.11307e-06
4.06362e-06
9.53411e-06
9.43578e-06
4.12159e-06
1.88278e-05
1.89712e-05
1.88271e-05
1.89683e-05
1.31504e-06
5.56354e-06
5.56361e-06
5.49904e-06
5.49682e-06
1.91335e-05
1.9004e-05
1.91351e-05
1.90009e-05
1.91784e-05
1.93595e-05
1.91743e-05
1.93716e-05
5.53681e-06
5.52902e-06
1.3708e-06
5.64698e-06
5.64721e-06
1.95106e-05
1.93999e-05
1.95368e-05
1.94174e-05
1.39994e-06
5.76941e-06
5.78276e-06
5.68334e-06
5.68744e-06
4.21419e-06
9.54998e-06
4.13154e-06
9.65683e-06
2.25845e-06
3.52908e-06
8.88451e-07
1.1455e-06
2.19587e-06
3.61597e-06
9.11425e-07
2.25736e-06
3.54218e-06
8.89442e-07
1.14517e-06
2.19712e-06
3.61007e-06
9.11302e-07
4.24243e-06
9.81255e-06
9.72615e-06
4.30305e-06
4.2388e-06
9.73741e-06
9.68209e-06
4.29546e-06
2.27844e-06
1.17442e-06
3.71504e-06
9.56421e-07
3.64575e-06
9.35157e-07
2.32484e-06
2.27631e-06
1.16822e-06
3.67372e-06
9.52987e-07
3.63154e-06
9.33511e-07
2.31954e-06
5.56033e-06
5.55132e-06
1.3715e-06
5.63856e-06
5.62966e-06
1.91387e-05
1.92675e-05
1.93519e-05
1.92951e-05
1.39333e-06
5.70121e-06
5.69736e-06
5.66085e-06
5.65451e-06
1.93576e-05
1.92887e-05
2.24853e-06
3.5199e-06
8.8332e-07
1.14287e-06
2.18163e-06
3.61178e-06
9.07159e-07
4.19809e-06
9.5119e-06
4.10884e-06
9.64906e-06
2.24545e-06
8.81314e-07
3.51052e-06
1.1337e-06
2.18035e-06
9.04123e-07
3.58671e-06
4.23283e-06
9.84385e-06
9.73527e-06
4.31622e-06
2.2723e-06
1.17329e-06
3.72375e-06
9.57917e-07
3.64472e-06
9.32925e-07
2.33439e-06
4.22857e-06
9.80982e-06
9.69135e-06
4.31215e-06
2.26886e-06
1.1623e-06
9.54227e-07
3.69549e-06
9.29136e-07
3.61688e-06
2.33091e-06
4.20929e-06
9.54763e-06
4.14794e-06
9.64439e-06
2.25638e-06
8.94136e-07
3.56673e-06
1.1498e-06
2.21335e-06
9.11098e-07
3.61253e-06
4.21111e-06
9.56086e-06
4.15309e-06
9.63533e-06
2.26901e-06