/*--------------------------------*- C++ -*----------------------------------*\
| =========                 |                                                 |
| \\      /  F ield         | OpenFOAM: The Open Source CFD Toolbox           |
|  \\    /   O peration     | Version:  v1906                                 |
|   \\  /    A nd           | Web:      www.OpenFOAM.com                      |
|    \\/     M anipulation  |                                                 |
\*---------------------------------------------------------------------------*/
FoamFile
{
    version     2.0;
    format      ascii;
    class       volScalarField;
    location    "750";
    object      nut;
}
// * * * * * * * * * * * * * * * * * * * * * * * * * * * * * * * * * * * * * //

dimensions      [0 2 -1 0 0 0 0];


internalField   nonuniform List<scalar> 
42616
(
0.000183427
0.000179377
0.000183337
0.000173194
0.000230822
0.00022796
0.000228517
0.000206573
0.000272208
0.000254402
0.000249021
0.000213514
0.00023297
0.00019646
0.000196048
0.000170952
0.00017219
0.000170547
0.000171622
0.000160698
0.000172136
0.000193933
0.000188944
0.000178907
0.000238212
0.00021542
0.000226064
0.000192442
0.000258903
0.000222892
0.000237145
0.000201897
0.000237691
0.000220131
0.000207145
0.000191389
0.000213514
0.000207224
0.000195859
0.000178978
0.0002204
0.000215914
0.000214186
0.000193289
0.000255104
0.0002286
0.0002281
0.000203515
0.0002575
0.000205627
0.00022121
0.000185476
0.000204499
0.00018958
0.000199978
0.000173259
0.000187774
0.000205333
0.000195514
0.00018442
0.000238391
0.000231139
0.000215232
0.000200286
0.000268286
0.00023559
0.000222399
0.000199617
0.000255049
0.000205771
0.000216245
0.000186259
0.00021857
0.000196938
0.000208446
0.000180772
0.000209387
0.00020715
0.000207228
0.000183472
0.000231735
0.000220129
0.00021397
0.000194773
0.000166097
0.0001814
0.000181318
0.000162671
0.000181448
0.000181457
0.000181521
0.000182282
0.000166957
0.000181863
0.000182575
0.000169525
0.000168769
0.000202245
0.000181125
0.000178931
0.000218898
0.000215626
0.00016364
0.000199702
0.000181734
0.000182286
0.000219244
0.000219242
0.000184644
0.000215817
0.000220542
0.000170016
0.000201916
0.000186273
0.000219462
0.000221102
0.000203266
0.000206477
0.000224157
0.000229348
0.000228182
0.000248176
0.0002497
0.000204964
0.00022741
0.000229257
0.000228803
0.00024752
0.00024592
0.000228895
0.000248854
0.000244653
0.000205838
0.000222002
0.000228885
0.000244945
0.000244044
0.000218039
0.000220912
0.000179778
0.000253032
0.000255474
0.000211452
0.000214146
0.000225814
0.000181116
0.000252233
0.000250291
0.000211284
0.000211417
0.000247226
0.000213404
0.000205681
0.0002185
0.000180232
0.000246244
0.000210478
0.000205061
0.000175631
0.000172881
0.000152523
0.00019479
0.000196481
0.00017106
0.000172586
0.000173795
0.000154362
0.000194918
0.000196206
0.000171109
0.000173386
0.000193266
0.000173717
0.000177382
0.000174021
0.000156189
0.00019305
0.000174665
0.000177497
0.000160265
0.000150705
0.000173608
0.00016731
0.000169231
0.000181868
0.000184064
0.000153544
0.00017537
0.000167363
0.00017014
0.000180158
0.000176336
0.000174915
0.000184347
0.000186892
0.000154554
0.000169304
0.000175022
0.000176886
0.000185704
0.000175988
0.00017892
0.000201554
0.00019499
0.000194588
0.000221797
0.000213949
0.000179431
0.000192286
0.000194128
0.000189599
0.000223494
0.000221343
0.000193926
0.00021203
0.000210587
0.00017408
0.0001999
0.000193137
0.000219514
0.000212526
0.000190687
0.000203142
0.000206411
0.000226137
0.000217186
0.000231565
0.000222381
0.000193171
0.000196578
0.000228209
0.000227632
0.000234403
0.000236502
0.000215312
0.000221872
0.000224747
0.000202526
0.000211498
0.000217754
0.000235522
0.000226667
0.000201336
0.00020447
0.000188456
0.000232319
0.000223099
0.000215975
0.000223696
0.000196985
0.000196382
0.00023449
0.000237536
0.000214174
0.000213802
0.000226431
0.000225028
0.000225303
0.00020908
0.00018658
0.000228715
0.000214643
0.000222018
0.000194832
0.000185504
0.000175779
0.00020974
0.000218495
0.000199617
0.000208312
0.000194223
0.000185755
0.000207763
0.000206554
0.000197972
0.000197166
0.000217333
0.000208911
0.000204326
0.000183303
0.000175169
0.000214393
0.00019754
0.000202602
0.00018017
0.000174312
0.000188609
0.000197555
0.000206745
0.000205601
0.000209486
0.000184891
0.000191738
0.000195972
0.000195435
0.000205276
0.000206779
0.000202323
0.00021046
0.000208586
0.000175031
0.000189668
0.000200692
0.000207548
0.000208009
0.00019061
0.000192501
0.000210505
0.000215244
0.000215777
0.000232578
0.000226806
0.000194111
0.000204855
0.000214842
0.000214069
0.000232842
0.000227434
0.000214902
0.000225644
0.000225022
0.000192354
0.000202527
0.000214481
0.000225789
0.000224809
0.000203577
0.000211606
0.000200816
0.000236617
0.000230135
0.000232219
0.000216546
0.000204765
0.000186625
0.000236636
0.000230005
0.000235962
0.000231342
0.000227758
0.000214202
0.000216233
0.00020298
0.000198516
0.000227442
0.000228508
0.000219193
0.000189009
0.00019457
0.000169426
0.000218932
0.000206851
0.000191138
0.000190719
0.000182333
0.000168762
0.000222543
0.000222882
0.000192924
0.00020201
0.000208661
0.000191761
0.000195979
0.000195202
0.000180286
0.000211635
0.000203112
0.000197748
0.000174421
0.000167589
0.000166449
0.000187343
0.000188467
0.000181009
0.000192121
0.000167231
0.000180448
0.000188561
0.000198363
0.000181509
0.000193133
0.000194326
0.00019533
0.000196683
0.000179064
0.000176434
0.000196118
0.000195266
0.000195436
0.000181319
0.000169941
0.000196048
0.000186451
0.000202775
0.000218543
0.000227316
0.00018452
0.000204551
0.000184265
0.000193007
0.000215634
0.000210165
0.000204755
0.000227593
0.000222973
0.000177434
0.000189573
0.000202783
0.000211092
0.000220469
0.000199278
0.000199271
0.000211321
0.000226351
0.000231522
0.000238037
0.000238984
0.000206026
0.000208535
0.000223699
0.000215249
0.000236017
0.000223125
0.000225897
0.000237909
0.000231239
0.000191155
0.000196177
0.000223383
0.000221458
0.000228538
0.000201584
0.000211731
0.000197276
0.000240644
0.000238098
0.000226633
0.000213266
0.000205276
0.000184996
0.000238569
0.00022435
0.000228193
0.000221824
0.000229874
0.000211513
0.000213857
0.000196263
0.000192687
0.000227902
0.000219266
0.000214878
0.000187817
0.000193416
0.000178811
0.000217966
0.000206849
0.000200734
0.000197833
0.000182321
0.00017566
0.000219837
0.000217751
0.000202682
0.00020908
0.000209707
0.000198076
0.000202618
0.000191552
0.000186513
0.000211258
0.000209442
0.000204578
0.000181298
0.000177823
0.000176995
0.000198473
0.000196772
0.000195908
0.000201777
0.0001752
0.000183812
0.000200251
0.000207825
0.000197408
0.000206298
0.000201857
0.000202932
0.000201702
0.000186214
0.000185684
0.000203777
0.000207041
0.000202487
0.000182376
0.000178226
0.000189915
0.000197655
0.000206158
0.000213514
0.000219473
0.000185555
0.000195031
0.000197946
0.000206392
0.000212366
0.000213676
0.000204533
0.000219913
0.000216728
0.000185873
0.000190249
0.000204447
0.000214321
0.000215756
0.000192108
0.000193026
0.000215104
0.000219823
0.000197763
0.000214066
0.000213598
0.000240922
0.000230572
0.000235917
0.000217141
0.000192595
0.000216213
0.000187237
0.000187771
0.000186825
0.000187513
0.00010361
5.12279e-05
9.92211e-05
5.14202e-05
2.40676e-05
2.4128e-05
0.000104094
5.12214e-05
0.000100015
5.14024e-05
0.000183169
0.000183607
0.000184872
0.000213426
0.000207945
0.000215447
0.000217455
0.000147872
0.000101323
0.000187839
0.000185121
0.000139376
0.000106403
0.000191087
2.40682e-05
2.41042e-05
0.000149966
0.000190109
0.000103478
0.000194669
0.000142021
0.000198748
0.000107966
7.93006e-05
7.92918e-05
0.000186377
8.17017e-05
8.16496e-05
0.000111095
5.13955e-05
0.000109299
5.11149e-05
2.41008e-05
2.40023e-05
0.000110595
5.13715e-05
0.00010906
5.1094e-05
0.000227779
0.000231355
0.000232118
0.000263675
0.000265139
0.000260781
0.000259086
0.000166487
0.000113912
0.000237779
0.000236216
0.000161416
0.000116542
0.000247706
2.40483e-05
2.39524e-05
0.000165609
0.000238861
0.000113548
0.00023442
0.000161279
0.000246528
0.000115507
8.39414e-05
8.40307e-05
0.000213996
8.32945e-05
8.35159e-05
9.86912e-05
5.04785e-05
0.000104554
5.02147e-05
2.3786e-05
2.37196e-05
9.84345e-05
5.04673e-05
0.00010383
5.02135e-05
0.00027434
0.000268491
0.000266054
0.000258096
0.000262362
0.000254815
0.000246794
0.00014898
0.000111266
0.000269468
0.000252673
0.000160692
0.000104248
0.000271308
2.37768e-05
2.37252e-05
0.000147311
0.000264791
0.000109148
0.000244849
0.000157858
0.000265028
0.000103342
7.81724e-05
7.83005e-05
0.000199423
7.54115e-05
7.54454e-05
9.05373e-05
5.01196e-05
9.17643e-05
5.02805e-05
2.37287e-05
2.37975e-05
9.08669e-05
5.01191e-05
9.20632e-05
5.02616e-05
0.000236225
0.000232429
0.000226978
0.000180349
0.000182819
0.000183375
0.000186172
0.00012869
9.56714e-05
0.00021359
0.00018447
0.000132244
9.41584e-05
0.000198417
2.37288e-05
2.37834e-05
0.000129398
0.000212342
9.62101e-05
0.000185299
0.000132641
0.000198647
9.48225e-05
7.33631e-05
7.33851e-05
0.000163682
7.36606e-05
7.36196e-05
9.69825e-05
5.07017e-05
9.36459e-05
5.09458e-05
2.39139e-05
2.39661e-05
9.59485e-05
5.06734e-05
9.29396e-05
5.0941e-05
0.000174931
0.000175626
0.000180072
0.000160951
0.000165056
0.000161854
0.000170792
0.000136855
9.69325e-05
0.000178304
0.00016898
0.000131441
0.000100237
0.000175371
2.38963e-05
2.39726e-05
0.000135162
0.00017943
9.60126e-05
0.000168659
0.000130939
0.000175884
9.8377e-05
7.56878e-05
7.56211e-05
0.00016516
7.69603e-05
7.68813e-05
0.000103251
5.12004e-05
0.000101629
5.12543e-05
2.40017e-05
2.40128e-05
0.000104087
5.1257e-05
0.000101378
5.13293e-05
0.000173175
0.000166741
0.000175144
0.000225881
0.000213832
0.000221844
0.000212526
0.000147556
0.000104371
0.000197149
0.000201677
0.000144696
0.000105613
0.00020684
2.40669e-05
2.41007e-05
0.000148024
0.000192744
0.000103382
0.000200395
0.000143109
0.000205524
0.000106581
7.7813e-05
7.78628e-05
0.0001841
7.81859e-05
7.83356e-05
0.000103872
5.12144e-05
0.000103963
5.1132e-05
2.40254e-05
2.40328e-05
0.000106302
5.125e-05
0.000106213
5.11167e-05
0.000224219
0.000236244
0.000224308
0.000256402
0.000244164
0.000259129
0.000247366
0.000150933
0.000106038
0.000227677
0.000218127
0.00014948
0.000106442
0.000232426
2.40869e-05
2.40392e-05
0.000156809
0.000236671
0.000110505
0.000230183
0.00015452
0.000242512
0.000111685
7.9467e-05
7.94403e-05
0.000196909
8.04404e-05
8.02707e-05
0.000101933
5.09044e-05
0.000102958
5.07743e-05
2.40177e-05
2.39943e-05
0.000100617
5.08435e-05
0.000102962
5.07109e-05
0.000247187
0.000262518
0.000251513
0.00024766
0.000253928
0.000248958
0.000256885
0.000154223
0.000107207
0.000241056
0.000224074
0.000153246
0.000107575
0.000243211
2.39307e-05
2.38947e-05
0.000151665
0.000252969
0.000108803
0.000234093
0.000156326
0.000253208
0.00010538
8.12746e-05
8.0822e-05
0.000204321
7.98293e-05
7.94166e-05
9.80008e-05
5.06672e-05
9.92921e-05
5.07005e-05
2.39606e-05
2.39618e-05
9.6423e-05
5.06236e-05
9.72973e-05
5.06776e-05
0.00025235
0.000236945
0.000249261
0.00021687
0.000230084
0.00021448
0.000223929
0.000144603
0.000105049
0.000238738
0.000214777
0.00014789
0.000103884
0.000231165
2.38902e-05
2.39253e-05
0.00014001
0.000225895
0.000100851
0.000202033
0.000142796
0.000218798
9.99894e-05
7.71513e-05
7.70694e-05
0.000184585
7.63386e-05
7.64144e-05
0.00010003
5.09685e-05
9.74217e-05
5.11654e-05
2.40008e-05
2.40286e-05
9.96123e-05
5.09408e-05
9.73391e-05
5.11337e-05
0.000226169
0.000211046
0.000219869
0.000209817
0.00022047
0.000209756
0.000215307
0.000145243
0.000102975
0.000219034
0.000205693
0.000141882
0.000104993
0.000216736
2.39955e-05
2.4032e-05
0.000144283
0.000208776
0.000101687
0.000195625
0.000140084
0.000207305
0.000104053
7.71173e-05
7.71974e-05
0.000180441
7.87337e-05
7.85601e-05
0.000105823
5.13286e-05
0.000104234
5.12857e-05
2.40229e-05
2.3986e-05
0.000105414
5.13274e-05
0.000103629
5.1326e-05
0.00022391
0.00021907
0.000220904
0.000249301
0.000239855
0.000243823
0.000239252
0.000155219
0.000108089
0.000226066
0.000219838
0.000152402
0.000109237
0.000231446
2.40488e-05
2.40372e-05
0.000153821
0.000224713
0.000107242
0.000219541
0.000151215
0.000231507
0.00010828
8.07007e-05
8.03058e-05
0.000198706
8.12441e-05
8.08053e-05
0.000101703
5.0921e-05
0.000104875
5.06695e-05
2.38828e-05
2.3844e-05
0.000103707
5.10204e-05
0.000106087
5.0764e-05
0.000243677
0.000248491
0.000242642
0.000266838
0.000244733
0.000259219
0.000246837
0.000149024
0.000107358
0.000241634
0.000229536
0.000154003
0.000104329
0.000244042
2.39771e-05
2.39427e-05
0.000152165
0.000243129
0.000108219
0.000230364
0.000154762
0.000246007
0.000107116
7.9275e-05
7.93616e-05
0.000200718
7.75628e-05
7.78322e-05
9.41318e-05
5.04109e-05
9.60996e-05
5.03919e-05
2.38352e-05
2.38751e-05
9.62116e-05
5.04636e-05
9.85482e-05
5.04231e-05
0.000233929
0.000257131
0.000238732
0.000213362
0.000208724
0.000225916
0.000215918
0.000136148
9.92432e-05
0.000223043
0.000198807
0.000139505
9.7657e-05
0.000215042
2.3898e-05
2.38951e-05
0.000141637
0.00023769
0.000103934
0.000214088
0.000145187
0.000229185
0.000102256
7.53656e-05
7.56522e-05
0.000178837
7.48814e-05
7.50905e-05
9.54309e-05
5.05842e-05
9.35024e-05
5.07956e-05
2.3977e-05
2.40493e-05
9.53023e-05
5.05626e-05
9.46063e-05
5.07426e-05
0.00020465
0.000217843
0.000211963
0.000189928
0.000197671
0.000204971
0.000204736
0.000138472
9.78775e-05
0.0002035
0.000187272
0.00013468
0.000100416
0.000200863
2.39191e-05
2.39509e-05
0.000139319
0.000211965
0.000100755
0.000198114
0.000138649
0.000209369
0.000100752
7.56864e-05
7.56268e-05
0.000173492
7.68518e-05
7.67941e-05
0.000102526
5.11617e-05
9.97165e-05
5.13336e-05
2.41177e-05
2.41262e-05
0.000100266
5.10669e-05
9.80998e-05
5.12343e-05
0.000204418
0.000202472
0.000206552
0.000224097
0.000241263
0.000215135
0.000233617
0.000152402
0.000105793
0.000214585
0.000214345
0.000147303
0.000108564
0.000224752
2.39925e-05
2.40155e-05
0.000147618
0.000205677
0.000102787
0.000200047
0.000144264
0.000211476
0.000104059
7.88635e-05
7.90159e-05
0.000192206
7.97375e-05
7.99685e-05
0.000106228
5.14177e-05
0.000105531
5.13365e-05
2.40685e-05
2.40172e-05
0.00010397
5.13499e-05
0.000103081
5.13167e-05
0.000249888
0.000225462
0.000240987
0.000263587
0.000264153
0.000245448
0.000252727
0.000157817
0.000110836
0.000245207
0.00023351
0.00015697
0.000110399
0.000248513
2.40287e-05
2.40304e-05
0.000151491
0.000230869
0.000105514
0.000218028
0.000150729
0.000234581
0.000105727
8.0346e-05
8.05257e-05
0.000202769
7.98461e-05
7.98007e-05
0.000101181
5.10158e-05
0.000103534
5.08457e-05
2.39279e-05
2.3908e-05
0.0001021
5.10633e-05
0.00010345
5.09168e-05
0.000266763
0.000248932
0.000254941
0.000267724
0.00024536
0.000253379
0.000245158
0.000146971
0.0001064
0.000253787
0.000227147
0.000151545
0.000103241
0.000246803
2.40133e-05
2.40039e-05
0.000147746
0.000241312
0.000105396
0.000223175
0.000149454
0.000242302
0.000104777
7.85291e-05
7.82507e-05
0.000194747
7.75015e-05
7.7254e-05
9.63821e-05
5.06459e-05
9.75139e-05
5.06366e-05
2.39048e-05
2.39315e-05
9.8407e-05
5.07228e-05
9.94334e-05
5.07051e-05
0.000235248
0.000249775
0.000238904
0.000224205
0.000216593
0.000232858
0.000224308
0.000139214
0.000100143
0.000222939
0.000201606
0.000140868
9.94807e-05
0.000217751
2.39845e-05
2.39853e-05
0.000143815
0.000232563
0.000103807
0.000213332
0.000144871
0.000228623
0.000103332
7.65475e-05
7.64938e-05
0.000183306
7.63432e-05
7.63548e-05
9.70774e-05
5.0708e-05
9.60427e-05
5.08191e-05
2.39781e-05
2.40157e-05
9.78023e-05
5.07431e-05
9.76464e-05
5.0823e-05
0.000213972
0.000229128
0.000221849
0.000210629
0.000211904
0.000223277
0.000217429
0.000140782
0.000100296
0.000211177
0.000196418
0.000139144
0.000101431
0.000210179
2.39821e-05
2.39933e-05
0.000143386
0.00022145
0.000103199
0.000207749
0.0001431
0.000220251
0.000103185
7.64543e-05
7.6515e-05
0.000180529
7.66798e-05
7.67428e-05
9.99985e-05
5.09646e-05
9.8809e-05
5.10724e-05
2.40389e-05
2.40647e-05
9.93896e-05
5.093e-05
9.86843e-05
5.10266e-05
0.000217284
0.000222258
0.000217259
0.000223205
0.000234532
0.000225586
0.000229666
0.000146846
0.00010419
0.0002191
0.000211832
0.00014488
0.000104857
0.000223444
2.39956e-05
2.40207e-05
0.000145969
0.000218879
0.000103649
0.000208967
0.000144927
0.000220608
0.000103713
7.73105e-05
7.74709e-05
0.000186928
7.74998e-05
7.76427e-05
0.000110564
5.52441e-05
0.000101714
8.59215e-05
2.70864e-05
4.65924e-05
0.000109412
5.51902e-05
0.000100764
8.58506e-05
0.00023425
0.000235559
0.000230337
0.000237525
0.000225963
0.000244979
0.000239528
0.000154156
0.000107688
0.000237521
0.00022173
0.000149907
0.000110225
0.000238206
2.70389e-05
4.62286e-05
0.000151706
0.000231517
0.000106034
0.000215022
0.000147832
0.000232074
0.000108717
7.79524e-05
7.79986e-05
0.000200817
8.64798e-05
8.63927e-05
2.40571e-05
2.39745e-05
2.40515e-05
2.3971e-05
0.000165734
7.77038e-05
7.76602e-05
7.53945e-05
7.54783e-05
9.45987e-05
5.11426e-05
5.08523e-05
9.79866e-05
9.43587e-05
5.10832e-05
5.07657e-05
9.77429e-05
0.000132422
0.000184795
0.000101473
0.000190238
9.79526e-05
0.000194296
0.000136219
0.000132376
0.000185041
9.96978e-05
0.000190348
9.65739e-05
0.000194421
0.000135721
2.40421e-05
2.39424e-05
0.00016576
7.63851e-05
7.63853e-05
7.40134e-05
7.41752e-05
2.40384e-05
2.39425e-05
9.56338e-05
5.1141e-05
5.08653e-05
9.8835e-05
0.000133049
0.00018466
0.000101716
0.000190087
9.83143e-05
0.000193863
0.000138069
9.56357e-05
5.11339e-05
5.08599e-05
9.88369e-05
0.00013305
0.000184432
0.000189962
0.000101829
0.000193665
9.84177e-05
0.000138092
0.00013304
0.000185191
0.000100003
0.000190675
9.68398e-05
0.000194605
0.0001372
9.52529e-05
5.10866e-05
5.07845e-05
9.83761e-05
0.000133276
0.000184656
0.000190708
0.000102768
0.000194367
9.93482e-05
0.000137945
9.56141e-05
5.11534e-05
5.08995e-05
9.87194e-05
2.40503e-05
2.39703e-05
0.000165678
7.7774e-05
7.78099e-05
7.55215e-05
7.56862e-05
2.40473e-05
2.3972e-05
0.000134718
0.000184575
0.000190692
0.000102206
0.000193934
9.8904e-05
0.000139862
0.000134988
0.000184478
0.000190899
0.000103176
0.000193948
9.98114e-05
0.000140141
9.66006e-05
5.1144e-05
5.08875e-05
9.96375e-05
9.67183e-05
5.11662e-05
5.09292e-05
9.97551e-05
0.000166228
7.84943e-05
7.85272e-05
7.62276e-05
7.637e-05
2.40555e-05
2.39867e-05
2.40525e-05
2.39865e-05
2.40759e-05
2.41123e-05
2.40701e-05
2.41084e-05
7.85691e-05
7.84765e-05
0.000182242
8.12752e-05
8.11352e-05
2.40828e-05
2.41131e-05
2.40842e-05
2.411e-05
0.00018793
8.38604e-05
8.38794e-05
8.2038e-05
8.19185e-05
0.000103423
5.11827e-05
9.89789e-05
5.14301e-05
0.000147604
0.000102857
0.000187436
0.000190733
0.000138553
0.00010777
0.000191018
0.000147129
0.000101089
0.000186972
0.000184195
0.000138047
0.000106363
0.000189122
0.000104929
5.14514e-05
5.1451e-05
0.000108502
0.000104777
5.15247e-05
5.14803e-05
0.000108485
0.000150779
0.000205612
0.00011317
0.000224481
0.000109262
0.000207358
0.000159726
0.000150353
0.000200269
0.000112914
0.000222807
0.000108077
0.000204665
0.000159531
7.72898e-05
7.72202e-05
0.000176407
8.0419e-05
8.02387e-05
2.40627e-05
2.41217e-05
2.41262e-05
2.41352e-05
0.000182766
8.40219e-05
8.38875e-05
8.13951e-05
8.12104e-05
2.41205e-05
2.41288e-05
0.000148922
0.000103047
0.000188284
0.000192122
0.000140341
0.000107815
0.000194541
0.000104091
5.12138e-05
0.000100019
5.13932e-05
0.000148929
0.000188324
0.000103161
0.000193192
0.000140364
0.000194949
0.00010786
0.000105284
5.14284e-05
5.1431e-05
0.000108418
0.000151829
0.000206484
0.000113111
0.000226353
0.000109252
0.000210806
0.000159847
0.000105279
5.14168e-05
5.14212e-05
0.000108398
0.000151827
0.000207017
0.000226504
0.000113009
0.000211146
0.000109277
0.000159818
0.000103625
5.11803e-05
9.95221e-05
5.14112e-05
0.000148555
0.000188981
0.000104083
0.000196556
0.000140141
0.000195077
0.000108516
0.000103894
5.12247e-05
9.9867e-05
5.13735e-05
0.000150846
0.000200907
0.000112734
0.000223698
0.000108043
0.000206914
0.000159253
0.000104857
5.14923e-05
5.14568e-05
0.000108212
0.000151442
0.000209352
0.000226166
0.000113021
0.000210958
0.000109809
0.00015948
0.00010508
5.13539e-05
5.13913e-05
0.00010824
7.86083e-05
7.85829e-05
0.000183248
8.12546e-05
8.11032e-05
2.40643e-05
2.4098e-05
2.40766e-05
2.41051e-05
0.000188573
8.37912e-05
8.36311e-05
8.20001e-05
8.18391e-05
2.40705e-05
2.40988e-05
0.000150222
0.000190878
0.000104451
0.000198413
0.00014231
0.000200457
0.000108742
0.000104425
5.12167e-05
0.000100726
5.1374e-05
0.000104534
5.12311e-05
0.000100851
5.13613e-05
0.00015258
0.000207823
0.000227664
0.000112811
0.000213831
0.000109297
0.000159638
0.000152811
0.000210551
0.00022848
0.000113079
0.000215148
0.000109982
0.000159756
0.000105465
5.13763e-05
5.13956e-05
0.000108131
0.000105572
5.13194e-05
5.13742e-05
0.00010819
2.40695e-05
2.40907e-05
2.4066e-05
2.40876e-05
0.000191386
8.36723e-05
8.37338e-05
8.23391e-05
8.23036e-05
2.40426e-05
2.40884e-05
2.40423e-05
2.40858e-05
2.40544e-05
2.39561e-05
2.40568e-05
2.39601e-05
8.41832e-05
8.42532e-05
0.000215437
8.46872e-05
8.50055e-05
2.38052e-05
2.39125e-05
2.38063e-05
2.39159e-05
0.000217331
8.10014e-05
8.12022e-05
8.38507e-05
8.41719e-05
0.000111199
5.15016e-05
0.000109334
5.12297e-05
0.00016739
0.000114026
0.00023883
0.000236268
0.000162047
0.000116145
0.000248957
0.000167458
0.000114127
0.000238093
0.000236746
0.00016195
0.000116765
0.000248983
0.000111057
5.05985e-05
5.09857e-05
0.00010651
0.000111334
5.06606e-05
5.10933e-05
0.00010677
0.000168889
0.000241802
0.000112136
0.000264555
0.000116227
0.000256587
0.000165907
0.000169016
0.000242856
0.000113944
0.000265243
0.000117493
0.000256988
0.00016643
8.4628e-05
8.45167e-05
0.000215927
8.59622e-05
8.59134e-05
2.40954e-05
2.39986e-05
2.38241e-05
2.39531e-05
0.000218547
8.22349e-05
8.21469e-05
8.57356e-05
8.56979e-05
2.38233e-05
2.39498e-05
0.00016661
0.000113967
0.000239187
0.000235885
0.000161836
0.000116123
0.000248143
0.000110565
5.13586e-05
0.000109034
5.10823e-05
0.000166548
0.000239132
0.000113807
0.00023506
0.000161793
0.000247915
0.000115835
0.000110028
5.05841e-05
5.09656e-05
0.000105661
0.000167921
0.000241265
0.000112071
0.000262375
0.000116211
0.000255007
0.000163873
0.000109955
5.05904e-05
5.09565e-05
0.000105595
0.000167846
0.000239996
0.000261771
0.00011154
0.000254608
0.000115723
0.000163747
0.000110667
5.14639e-05
0.000108945
5.1188e-05
0.000166324
0.000238617
0.000113623
0.000234254
0.000161483
0.00024719
0.000115279
0.000110503
5.12809e-05
0.000108894
5.09859e-05
0.000167929
0.000242143
0.00011355
0.0002627
0.000117242
0.000255017
0.000164157
0.000110422
5.06328e-05
5.10528e-05
0.000105696
0.000167652
0.000239205
0.000260875
0.00010957
0.000253844
0.000114245
0.000163082
0.000109903
5.0524e-05
5.08605e-05
0.000105197
8.41013e-05
8.39572e-05
0.000214143
8.45535e-05
8.44473e-05
2.40435e-05
2.39505e-05
2.38074e-05
2.39095e-05
0.000215873
8.0769e-05
8.07995e-05
8.36627e-05
8.36132e-05
2.38096e-05
2.39093e-05
0.000165648
0.000239134
0.000113665
0.000233909
0.00016135
0.000246355
0.000115214
0.000109759
5.13117e-05
0.00010861
5.10402e-05
0.000109714
5.12457e-05
0.000108655
5.09486e-05
0.000166523
0.000239172
0.000259088
0.000111109
0.000252493
0.000115251
0.000161073
0.000166444
0.00023876
0.000258656
0.00010927
0.000252236
0.000113985
0.000160582
0.000108578
5.05701e-05
5.09188e-05
0.000104322
0.000108441
5.05011e-05
5.08255e-05
0.0001041
2.40117e-05
2.3911e-05
2.40122e-05
2.39124e-05
0.000215393
7.92851e-05
7.94429e-05
8.23502e-05
8.25758e-05
2.37888e-05
2.38725e-05
2.37893e-05
2.38737e-05
2.37728e-05
2.37162e-05
2.37734e-05
2.37154e-05
7.98119e-05
7.9966e-05
0.000208827
7.63409e-05
7.63995e-05
2.37129e-05
2.37069e-05
2.3709e-05
2.37055e-05
0.000199897
7.29411e-05
7.30225e-05
7.52816e-05
7.53431e-05
9.88034e-05
5.0526e-05
0.000104774
5.02347e-05
0.000150629
0.000110085
0.000271625
0.000249981
0.000162512
0.000103759
0.000273967
0.000150936
0.000111645
0.000272601
0.000254169
0.000162979
0.00010453
0.00027544
9.68122e-05
5.01104e-05
5.01609e-05
9.266e-05
9.68943e-05
5.01265e-05
5.01773e-05
9.26955e-05
0.000146052
0.000231211
9.65425e-05
0.000235476
0.000101564
0.000260044
0.000134633
0.000146298
0.000235621
9.66754e-05
0.000237024
0.000102096
0.000262186
0.000134738
8.08134e-05
8.07193e-05
0.000212914
7.66914e-05
7.66403e-05
2.37861e-05
2.37231e-05
2.37174e-05
2.37095e-05
0.000203291
7.29705e-05
7.31122e-05
7.5482e-05
7.54779e-05
2.37228e-05
2.37137e-05
0.000149623
0.000110008
0.000268971
0.000249004
0.000160663
0.000103715
0.000270767
9.84312e-05
5.04789e-05
0.000103773
5.02387e-05
0.000149588
0.000268165
0.000109528
0.000246792
0.000160549
0.000269825
0.0001036
9.67157e-05
5.01119e-05
5.01621e-05
9.29124e-05
0.000145411
0.000230541
9.66316e-05
0.000233864
0.000101554
0.000256746
0.000134946
9.67318e-05
5.014e-05
5.01893e-05
9.29749e-05
0.000145416
0.000229267
0.000233748
9.71058e-05
0.000256011
0.000101579
0.000135066
9.81625e-05
5.05055e-05
0.000103746
5.02394e-05
0.000148112
0.00026678
0.000107494
0.000239003
0.000159631
0.000266838
0.000101851
9.78821e-05
5.04305e-05
0.000103283
5.02576e-05
0.000144699
0.000234116
9.67917e-05
0.000233782
0.000101908
0.000257009
0.000134631
9.64793e-05
5.01562e-05
5.01907e-05
9.30453e-05
0.000143981
0.000221488
0.00022969
9.68338e-05
0.000250846
0.000100142
0.000134431
9.62773e-05
5.02414e-05
5.02328e-05
9.30574e-05
7.95979e-05
7.96425e-05
0.000206679
7.63532e-05
7.63757e-05
2.37799e-05
2.37301e-05
2.37211e-05
2.37165e-05
0.000198372
7.33757e-05
7.34969e-05
7.54003e-05
7.54346e-05
2.37285e-05
2.37222e-05
0.000146698
0.000263895
0.0001072
0.000237346
0.000157302
0.00026275
0.000101625
9.76607e-05
5.04657e-05
0.000102555
5.02491e-05
9.74537e-05
5.04128e-05
0.000102319
5.02545e-05
0.000143536
0.000227577
0.000229958
9.71801e-05
0.000249992
0.000101404
0.000134758
0.000142981
0.000220316
0.0002273
9.67748e-05
0.000246447
9.99697e-05
0.000134492
9.62015e-05
5.01789e-05
5.02085e-05
9.3243e-05
9.60324e-05
5.02502e-05
5.02336e-05
9.32084e-05
2.37674e-05
2.37415e-05
2.37676e-05
2.37413e-05
0.000191583
7.35144e-05
7.35341e-05
7.47094e-05
7.47362e-05
2.37676e-05
2.37406e-05
2.37666e-05
2.37404e-05
2.3723e-05
2.37892e-05
2.37181e-05
2.37809e-05
7.24496e-05
7.25151e-05
0.000160204
7.17088e-05
7.17387e-05
2.39005e-05
2.38115e-05
2.38942e-05
2.38026e-05
0.000157357
7.32057e-05
7.2916e-05
7.1652e-05
7.15621e-05
9.05828e-05
5.01383e-05
9.17967e-05
5.03076e-05
0.000126789
9.53273e-05
0.00021357
0.000182618
0.000131697
9.34469e-05
0.000196763
0.00012689
9.54458e-05
0.000214606
0.000183922
0.000131781
9.37361e-05
0.000197501
9.02809e-05
5.06163e-05
5.03533e-05
9.2703e-05
9.03401e-05
5.06257e-05
5.038e-05
9.28233e-05
0.000125824
0.000175246
9.44168e-05
0.000179116
9.29686e-05
0.000185956
0.000126228
0.000125939
0.000176592
9.55468e-05
0.000179685
9.32885e-05
0.000186571
0.000126526
7.25122e-05
7.26838e-05
0.000160995
7.19013e-05
7.21291e-05
2.37332e-05
2.37986e-05
2.38968e-05
2.38191e-05
0.00015835
7.40956e-05
7.40397e-05
7.22006e-05
7.2364e-05
2.38927e-05
2.38179e-05
0.000127379
9.54282e-05
0.000213284
0.000182809
0.000132199
9.35119e-05
0.000197123
9.09589e-05
5.01453e-05
9.21365e-05
5.02688e-05
0.000127597
0.000213695
9.60306e-05
0.000184786
0.000132351
0.000197834
9.43747e-05
9.05728e-05
5.05851e-05
5.0328e-05
9.21959e-05
0.00012647
0.00017533
9.40537e-05
0.000179653
9.3067e-05
0.000186394
0.000125726
9.06735e-05
5.05458e-05
5.03252e-05
9.22561e-05
0.000126708
0.000177453
0.000180542
9.47668e-05
0.000187172
9.40031e-05
0.000125964
9.15895e-05
5.01748e-05
9.24051e-05
5.03426e-05
0.000128952
0.000211535
9.62256e-05
0.000184875
0.000132207
0.000198035
9.54189e-05
9.17452e-05
5.02763e-05
9.24796e-05
5.04352e-05
0.000127922
0.000177518
9.60264e-05
0.000182793
9.37692e-05
0.00018885
0.000129962
9.18178e-05
5.0631e-05
5.04082e-05
9.42769e-05
0.000128235
0.00018021
0.000184141
9.79071e-05
0.000189574
9.56418e-05
0.000130541
9.21031e-05
5.06704e-05
5.04913e-05
9.4509e-05
7.2965e-05
7.31202e-05
0.000162813
7.2379e-05
7.26078e-05
2.37363e-05
2.37883e-05
2.38764e-05
2.37999e-05
0.0001603
7.33255e-05
7.3425e-05
7.23145e-05
7.25865e-05
2.38739e-05
2.38035e-05
0.000129507
0.00021072
9.61897e-05
0.000184867
0.000132491
0.000198148
9.54216e-05
9.19518e-05
5.01928e-05
9.26798e-05
5.0326e-05
9.20391e-05
5.02847e-05
9.26951e-05
5.0439e-05
0.000128693
0.000178454
0.000183924
9.54966e-05
0.00018957
9.44817e-05
0.000129867
0.000128836
0.000180265
0.0001849
9.77964e-05
0.000190042
9.56192e-05
0.000130493
9.21013e-05
5.05723e-05
5.03784e-05
9.40303e-05
9.23215e-05
5.06688e-05
5.0493e-05
9.43377e-05
2.3778e-05
2.38375e-05
2.37766e-05
2.38351e-05
0.000162061
7.52996e-05
7.5224e-05
7.40009e-05
7.39307e-05
2.3906e-05
2.38513e-05
2.39054e-05
2.38488e-05
2.39239e-05
2.40002e-05
2.39195e-05
2.40024e-05
7.3795e-05
7.34897e-05
0.000155042
7.59282e-05
7.56987e-05
2.40646e-05
2.40173e-05
2.4073e-05
2.40218e-05
0.000159611
7.86811e-05
7.86915e-05
7.66194e-05
7.64339e-05
9.70789e-05
5.06987e-05
9.37725e-05
5.08914e-05
0.000134695
9.53783e-05
0.000173768
0.000164812
0.000128048
9.91031e-05
0.000170119
0.000135016
9.65622e-05
0.000174458
0.000167525
0.000128365
0.000100151
0.000171019
9.80065e-05
5.11681e-05
5.1012e-05
0.000100922
9.80739e-05
5.10386e-05
5.09372e-05
0.000100863
0.000137005
0.000168342
0.000104214
0.000182617
0.000100363
0.000170655
0.000144015
0.000137288
0.000172177
0.000104053
0.000183667
0.000101183
0.000171836
0.000144069
7.47128e-05
7.45654e-05
0.000159627
7.66327e-05
7.6394e-05
2.3909e-05
2.39638e-05
2.39991e-05
2.39744e-05
0.000164111
7.82637e-05
7.81726e-05
7.7112e-05
7.68698e-05
2.40026e-05
2.3973e-05
0.000132716
9.49309e-05
0.000174216
0.000164477
0.000127118
9.8549e-05
0.000170047
9.58773e-05
5.06217e-05
9.29713e-05
5.08642e-05
0.00013266
0.000175286
9.53627e-05
0.000166966
0.000127293
0.000171121
9.80697e-05
9.69782e-05
5.12134e-05
5.10188e-05
0.000100389
0.000134874
0.000166913
0.000103998
0.000178256
9.98347e-05
0.000168954
0.00014237
9.68729e-05
5.11491e-05
5.0939e-05
0.000100211
0.000134731
0.000166986
0.00017704
0.000102586
0.000169489
9.90417e-05
0.000142016
9.76714e-05
5.06952e-05
9.50293e-05
5.08698e-05
0.000137187
0.000180101
9.85703e-05
0.000174118
0.000131971
0.000177456
0.000101092
9.7778e-05
5.07184e-05
9.5237e-05
5.08527e-05