/*--------------------------------*- C++ -*----------------------------------*\
| =========                 |                                                 |
| \\      /  F ield         | OpenFOAM: The Open Source CFD Toolbox           |
|  \\    /   O peration     | Version:  v1906                                 |
|   \\  /    A nd           | Web:      www.OpenFOAM.com                      |
|    \\/     M anipulation  |                                                 |
\*---------------------------------------------------------------------------*/
FoamFile
{
    version     2.0;
    format      ascii;
    class       volScalarField;
    location    "750";
    object      p;
}
// * * * * * * * * * * * * * * * * * * * * * * * * * * * * * * * * * * * * * //

dimensions      [0 2 -2 0 0 0 0];


internalField   nonuniform List<scalar> 
42616
(
0.00360319
0.00360352
0.00360352
0.00360657
0.00354783
0.00354825
0.00354825
0.00355124
0.00349708
0.00349705
0.00349705
0.0034998
0.00344469
0.00344471
0.0034447
0.00344748
0.00339334
0.00339335
0.00339335
0.0033961
0.00334337
0.00334338
0.00334338
0.0033461
0.00329484
0.00329486
0.00329486
0.00329754
0.00324761
0.00324763
0.00324764
0.00325028
0.00320148
0.0032015
0.00320151
0.00320413
0.00315625
0.00315627
0.00315627
0.00315887
0.00311174
0.00311176
0.00311176
0.00311433
0.00306783
0.00306786
0.00306785
0.00307039
0.00302444
0.00302446
0.00302446
0.00302697
0.00298151
0.00298152
0.00298152
0.00298403
0.00293901
0.00293902
0.00293902
0.00294152
0.00289691
0.00289692
0.00289692
0.00289941
0.00285521
0.0028552
0.0028552
0.00285768
0.00281386
0.00281385
0.00281385
0.00281632
0.00277284
0.00277283
0.00277283
0.00277529
0.00273214
0.00273212
0.00273212
0.00273458
0.00269174
0.0026917
0.0026917
0.00269415
0.00361659
0.00361682
0.00361682
0.00361659
0.00361682
0.00361682
0.00361758
0.00361758
0.00361759
0.00361759
0.00361682
0.00361682
0.00361659
0.00361682
0.00361682
0.0036166
0.00360657
0.00355781
0.00360351
0.00360351
0.00356009
0.00356009
0.00360657
0.00355781
0.00360352
0.00360351
0.00356009
0.00356009
0.00360351
0.00356008
0.00356009
0.00360657
0.00355781
0.00360352
0.00356008
0.00356008
0.00355781
0.00355124
0.00350673
0.00354825
0.00354825
0.00351017
0.00351017
0.00355124
0.00350673
0.00354825
0.00354825
0.00351017
0.00351017
0.00354825
0.00351017
0.00351017
0.00355124
0.00350673
0.00354824
0.00351017
0.00351017
0.00350673
0.0034998
0.00345436
0.00349705
0.00349705
0.00345772
0.00345772
0.0034998
0.00345436
0.00349705
0.00349705
0.00345772
0.00345772
0.00349705
0.00345772
0.00345772
0.0034998
0.00345436
0.00349705
0.00345772
0.00345772
0.00345436
0.00344748
0.00340281
0.0034447
0.00344471
0.00340607
0.00340607
0.00344748
0.00340281
0.0034447
0.00344471
0.00340607
0.00340607
0.00344471
0.00340607
0.00340607
0.00344748
0.00340281
0.00344471
0.00340607
0.00340607
0.00340281
0.0033961
0.0033526
0.00339335
0.00339335
0.00335573
0.00335573
0.0033961
0.0033526
0.00339335
0.00339335
0.00335573
0.00335573
0.00339335
0.00335573
0.00335573
0.0033961
0.0033526
0.00339335
0.00335573
0.00335573
0.0033526
0.0033461
0.00330384
0.00334338
0.00334338
0.00330686
0.00330686
0.0033461
0.00330384
0.00334338
0.00334338
0.00330686
0.00330686
0.00334338
0.00330686
0.00330686
0.0033461
0.00330384
0.00334338
0.00330686
0.00330686
0.00330384
0.00329754
0.00325642
0.00329486
0.00329486
0.00325933
0.00325933
0.00329754
0.00325641
0.00329486
0.00329486
0.00325933
0.00325933
0.00329486
0.00325933
0.00325933
0.00329754
0.00325641
0.00329486
0.00325933
0.00325933
0.00325641
0.00325028
0.00321012
0.00324763
0.00324763
0.00321295
0.00321294
0.00325028
0.00321011
0.00324763
0.00324763
0.00321295
0.00321294
0.00324764
0.00321295
0.00321294
0.00325029
0.00321012
0.00324764
0.00321295
0.00321295
0.00321012
0.00320412
0.00316474
0.0032015
0.0032015
0.00316751
0.00316751
0.00320413
0.00316474
0.0032015
0.0032015
0.00316751
0.00316751
0.00320151
0.00316751
0.00316751
0.00320413
0.00316474
0.00320151
0.00316751
0.00316751
0.00316474
0.00315886
0.00312012
0.00315627
0.00315627
0.00312283
0.00312284
0.00315887
0.00312011
0.00315627
0.00315627
0.00312283
0.00312284
0.00315628
0.00312284
0.00312283
0.00315887
0.00312011
0.00315628
0.00312284
0.00312283
0.00312011
0.00311433
0.0030761
0.00311177
0.00311176
0.00307878
0.00307878
0.00311433
0.0030761
0.00311177
0.00311176
0.00307878
0.00307878
0.00311177
0.00307878
0.00307878
0.00311433
0.0030761
0.00311177
0.00307878
0.00307878
0.00307609
0.0030704
0.0030326
0.00306786
0.00306786
0.00303526
0.00303526
0.00307039
0.0030326
0.00306786
0.00306785
0.00303526
0.00303526
0.00306785
0.00303526
0.00303526
0.00307039
0.0030326
0.00306785
0.00303526
0.00303526
0.0030326
0.00302697
0.00298959
0.00302445
0.00302446
0.00299221
0.00299221
0.00302697
0.00298959
0.00302445
0.00302446
0.00299221
0.00299221
0.00302445
0.00299221
0.00299221
0.00302697
0.00298959
0.00302445
0.00299221
0.00299221
0.00298959
0.00298403
0.00294703
0.00298152
0.00298152
0.0029496
0.0029496
0.00298403
0.00294703
0.00298152
0.00298152
0.0029496
0.00294961
0.00298152
0.0029496
0.0029496
0.00298402
0.00294703
0.00298152
0.00294961
0.0029496
0.00294703
0.00294152
0.00290487
0.00293902
0.00293902
0.00290741
0.0029074
0.00294152
0.00290487
0.00293902
0.00293902
0.00290741
0.0029074
0.00293902
0.00290741
0.00290741
0.00294152
0.00290487
0.00293902
0.0029074
0.00290741
0.00290487
0.00289941
0.0028631
0.00289692
0.00289692
0.0028656
0.0028656
0.00289941
0.0028631
0.00289692
0.00289692
0.0028656
0.0028656
0.00289692
0.0028656
0.0028656
0.00289941
0.0028631
0.00289692
0.0028656
0.0028656
0.0028631
0.00285768
0.00282169
0.0028552
0.0028552
0.00282416
0.00282416
0.00285768
0.00282169
0.0028552
0.0028552
0.00282416
0.00282416
0.0028552
0.00282416
0.00282416
0.00285768
0.00282169
0.0028552
0.00282416
0.00282416
0.00282169
0.00281632
0.00278062
0.00281385
0.00281385
0.00278306
0.00278306
0.00281632
0.00278062
0.00281385
0.00281385
0.00278306
0.00278306
0.00281385
0.00278306
0.00278306
0.00281632
0.00278062
0.00281385
0.00278306
0.00278306
0.00278062
0.00277529
0.00273987
0.00277283
0.00277283
0.00274227
0.00274227
0.00277529
0.00273987
0.00277283
0.00277283
0.00274227
0.00274227
0.00277283
0.00274227
0.00274227
0.00277529
0.00273987
0.00277283
0.00274227
0.00274227
0.00273987
0.00273458
0.00269941
0.00273212
0.00273212
0.00270178
0.00270178
0.00273458
0.00269941
0.00273212
0.00273212
0.00270178
0.00270178
0.00273212
0.00270178
0.00270178
0.00273458
0.00269941
0.00273212
0.00270178
0.00270178
0.00269941
0.00269415
0.0026917
0.0026917
0.00269415
0.0026917
0.0026917
0.0026917
0.00269415
0.0026917
0.00362497
0.00363473
0.00362953
0.00362954
0.00365192
0.0036387
0.00366731
0.00363274
0.00365192
0.0036387
0.00363275
0.00366731
0.00364327
0.00367105
0.00367105
0.00358033
0.00359948
0.00360866
0.00357241
0.00357315
0.00357592
0.00358031
0.00359945
0.00360866
0.00357239
0.00360319
0.00360319
0.00360319
0.00355978
0.00355978
0.00355978
0.00355978
0.00357783
0.00360365
0.00360359
0.00358665
0.00360668
0.00357673
0.00358754
0.00357325
0.00357591
0.00357783
0.00360359
0.00360367
0.00358666
0.00360667
0.00358754
0.00357673
0.00360953
0.00360951
0.00358106
0.00357637
0.00357636
0.00353369
0.00355297
0.00355433
0.00353223
0.00355188
0.00353179
0.00353369
0.00355297
0.00355433
0.00353222
0.00354783
0.00354783
0.00354783
0.00351024
0.00351024
0.00351024
0.00351024
0.00353228
0.00355305
0.00354783
0.00353596
0.00355184
0.00353282
0.00353569
0.00355188
0.00353178
0.00353228
0.00354782
0.00355305
0.00353596
0.00355184
0.00353569
0.00353282
0.00355407
0.00355406
0.00353251
0.00353315
0.00353315
0.00348143
0.00350023
0.00350131
0.00348041
0.00349987
0.00348012
0.00348143
0.00350023
0.00350131
0.00348041
0.00349708
0.00349708
0.00349708
0.0034577
0.0034577
0.0034577
0.0034577
0.00348053
0.00350063
0.00349695
0.00348391
0.00350007
0.00348089
0.00348381
0.00349987
0.00348012
0.00348053
0.00349695
0.00350063
0.00348391
0.00350007
0.00348381
0.00348089
0.00350088
0.00350088
0.00348052
0.00348096
0.00348096
0.00342891
0.00344756
0.00344842
0.00342814
0.00344735
0.00342796
0.00342891
0.00344756
0.00344842
0.00342814
0.00344469
0.00344469
0.00344469
0.00340606
0.00340606
0.00340606
0.00340606
0.0034284
0.00344797
0.00344466
0.00343176
0.00344768
0.00342858
0.00343172
0.00344735
0.00342796
0.0034284
0.00344466
0.00344797
0.00343176
0.00344768
0.00343172
0.00342858
0.00344801
0.00344801
0.00342844
0.00342852
0.00342852
0.00337771
0.00339607
0.0033967
0.00337716
0.00339592
0.00337702
0.00337771
0.00339607
0.0033967
0.00337716
0.00339334
0.00339334
0.00339334
0.00335572
0.00335572
0.00335572
0.00335572
0.00337744
0.00339642
0.00339332
0.00338072
0.00339625
0.00337755
0.00338069
0.00339592
0.00337702
0.00337744
0.00339332
0.00339642
0.00338072
0.00339625
0.00338069
0.00337755
0.0033964
0.0033964
0.00337752
0.00337746
0.00337746
0.00332807
0.00334602
0.00334647
0.00332767
0.00334591
0.00332755
0.00332807
0.00334601
0.00334647
0.00332767
0.00334337
0.00334337
0.00334337
0.00330685
0.00330685
0.00330685
0.00330685
0.00332795
0.00334632
0.00334335
0.00333112
0.0033462
0.00332802
0.00333109
0.0033459
0.00332756
0.00332795
0.00334335
0.00334632
0.00333112
0.0033462
0.00333109
0.00332802
0.0033463
0.0033463
0.00332804
0.00332793
0.00332793
0.0032799
0.00329745
0.00329777
0.00327962
0.00329734
0.00327952
0.0032799
0.00329745
0.00329777
0.00327962
0.00329484
0.00329484
0.00329484
0.00325931
0.00325931
0.00325931
0.00325931
0.00327987
0.00329771
0.00329483
0.00328294
0.00329761
0.00327993
0.00328291
0.00329734
0.00327952
0.00327987
0.00329483
0.00329771
0.00328294
0.00329761
0.00328291
0.00327993
0.0032977
0.0032977
0.00327997
0.00327985
0.00327985
0.003233
0.00325019
0.00325042
0.0032328
0.0032501
0.00323271
0.003233
0.00325019
0.00325042
0.0032328
0.00324761
0.00324761
0.00324762
0.00321293
0.00321293
0.00321293
0.00321292
0.00323304
0.00325042
0.0032476
0.00323601
0.00325034
0.0032331
0.00323597
0.0032501
0.00323271
0.00323304
0.0032476
0.00325042
0.00323601
0.00325034
0.00323597
0.00323309
0.00325042
0.00325042
0.00323314
0.00323301
0.00323301
0.00318717
0.00320403
0.00320421
0.00318701
0.00320395
0.00318692
0.00318717
0.00320403
0.00320421
0.00318701
0.00320148
0.00320149
0.00320149
0.00316749
0.00316749
0.00316749
0.00316749
0.00318724
0.00320425
0.00320147
0.00319012
0.00320418
0.00318729
0.00319009
0.00320395
0.00318692
0.00318724
0.00320147
0.00320425
0.00319012
0.00320418
0.00319009
0.00318729
0.00320425
0.00320425
0.00318733
0.0031872
0.0031872
0.00314218
0.00315878
0.00315893
0.00314204
0.0031587
0.00314196
0.00314218
0.00315878
0.00315893
0.00314204
0.00315625
0.00315625
0.00315625
0.00312281
0.00312281
0.00312281
0.00312281
0.00314228
0.00315898
0.00315625
0.00314509
0.00315892
0.00314232
0.00314506
0.0031587
0.00314196
0.00314228
0.00315625
0.00315898
0.00314509
0.00315892
0.00314506
0.00314232
0.00315898
0.00315898
0.00314235
0.00314222
0.00314222
0.00309787
0.00311425
0.00311438
0.00309774
0.00311417
0.00309766
0.00309787
0.00311425
0.00311438
0.00309774
0.00311174
0.00311174
0.00311174
0.00307876
0.00307876
0.00307876
0.00307876
0.00309799
0.00311444
0.00311174
0.00310074
0.00311439
0.00309802
0.00310071
0.00311417
0.00309766
0.00309799
0.00311174
0.00311444
0.00310074
0.00311439
0.00310071
0.00309802
0.00311443
0.00311443
0.00309803
0.00309791
0.00309791
0.00305413
0.00307031
0.00307044
0.00305401
0.00307023
0.00305393
0.00305413
0.00307031
0.00307044
0.00305401
0.00306783
0.00306783
0.00306783
0.00303524
0.00303524
0.00303524
0.00303524
0.00305428
0.0030705
0.00306783
0.00305695
0.00307047
0.00305428
0.00305694
0.00307023
0.00305393
0.00305428
0.00306783
0.0030705
0.00305696
0.00307047
0.00305694
0.00305428
0.00307047
0.00307047
0.00305429
0.00305416
0.00305416
0.00301088
0.00302689
0.00302701
0.00301076
0.00302681
0.00301069
0.00301088
0.00302689
0.00302701
0.00301076
0.00302444
0.00302444
0.00302444
0.0029922
0.0029922
0.0029922
0.0029922
0.00301105
0.00302707
0.00302444
0.00301368
0.00302706
0.00301103
0.00301367
0.00302681
0.00301069
0.00301105
0.00302444
0.00302707
0.00301368
0.00302706
0.00301367
0.00301103
0.00302703
0.00302703
0.00301103
0.00301089
0.00301089
0.00296809
0.00298392
0.00298405
0.00296796
0.00298386
0.0029679
0.00296809
0.00298392
0.00298405
0.00296796
0.00298151
0.00298151
0.00298151
0.00294959
0.00294959
0.00294959
0.00294959
0.00296828
0.0029841
0.00298151
0.00297086
0.00298412
0.00296823
0.00297085
0.00298386
0.0029679
0.00296828
0.00298151
0.0029841
0.00297086
0.00298412
0.00297085
0.00296823
0.00298406
0.00298406
0.00296826
0.00296809
0.00296809
0.00292572
0.0029414
0.00294152
0.00292559
0.00294134
0.00292554
0.00292572
0.0029414
0.00294152
0.00292559
0.00293901
0.00293901
0.00293901
0.0029074
0.0029074
0.0029074
0.0029074
0.00292593
0.00294156
0.00293902
0.00292845
0.00294161
0.00292586
0.00292846
0.00294134
0.00292554
0.00292593
0.00293902
0.00294156
0.00292846
0.00294161
0.00292846
0.00292586
0.00294152
0.00294152
0.0029259
0.0029257
0.0029257
0.00288374
0.00289928
0.0028994
0.00288362
0.00289922
0.00288357
0.00288374
0.00289928
0.0028994
0.00288362
0.00289691
0.00289691
0.00289691
0.0028656
0.0028656
0.0028656
0.0028656
0.00288398
0.00289944
0.00289693
0.00288645
0.00289951
0.00288388
0.00288646
0.00289923
0.00288357
0.00288398
0.00289693
0.00289944
0.00288645
0.00289951
0.00288647
0.00288388
0.00289939
0.00289939
0.00288394
0.00288372
0.00288372
0.00284214
0.00285755
0.00285766
0.00284203
0.0028575
0.00284199
0.00284214
0.00285755
0.00285766
0.00284203
0.00285521
0.00285521
0.00285521
0.00282416
0.00282416
0.00282416
0.00282416
0.0028424
0.00285769
0.00285522
0.00284483
0.00285779
0.00284227
0.00284485
0.0028575
0.00284199
0.0028424
0.00285522
0.00285769
0.00284483
0.00285779
0.00284485
0.00284227
0.00285765
0.00285765
0.00284235
0.00284212
0.00284212
0.0028009
0.00281618
0.00281629
0.00280079
0.00281614
0.00280075
0.0028009
0.00281618
0.00281629
0.00280079
0.00281386
0.00281386
0.00281386
0.00278307
0.00278307
0.00278307
0.00278307
0.00280117
0.00281631
0.00281388
0.00280357
0.00281642
0.00280102
0.00280359
0.00281614
0.00280075
0.00280117
0.00281388
0.00281631
0.00280357
0.00281642
0.00280359
0.00280102
0.00281627
0.00281627
0.00280112
0.00280087
0.00280087
0.00275998
0.00277515
0.00277525
0.00275987
0.00277511
0.00275985
0.00275998
0.00277515
0.00277525
0.00275988
0.00277284
0.00277284
0.00277284
0.00274229
0.00274229
0.00274229
0.00274229
0.00276025
0.00277526
0.00277286
0.00276262
0.00277539
0.00276009
0.00276265
0.00277511
0.00275984
0.00276025
0.00277286
0.00277526
0.00276262
0.00277539
0.00276265
0.00276009
0.00277523
0.00277523
0.00276021
0.00275995
0.00275995
0.00271936
0.00273443
0.00273452
0.00271927
0.00273439
0.00271925
0.00271937
0.00273443
0.00273452
0.00271927
0.00273214
0.00273214
0.00273214
0.00270181
0.00270181
0.00270181
0.00270181
0.00271964
0.00273453
0.00273215
0.00272199
0.00273466
0.00271947
0.00272202
0.0027344
0.00271924
0.00271964
0.00273215
0.00273453
0.00272199
0.00273466
0.00272202
0.00271947
0.0027345
0.0027345
0.00271961
0.00271933
0.00271933
0.00267904
0.002694
0.00269409
0.00267894
0.00269396
0.00267893
0.002694
0.00269409
0.00267895
0.00269174
0.00269174
0.00269174
0.00267931
0.00269409
0.00269173
0.00268164
0.00269422
0.00267913
0.00268167
0.00269397
0.00267931
0.00269173
0.00269409
0.00269422
0.00268167
0.00269407
0.00269407
0.00267929
0.002679
0.002679
0.00364327
0.00367103
0.00367105
0.0036354
0.00367057
0.00363537
0.00367059
0.00364012
0.00362718
0.00362718
0.00366585
0.00366586
0.0036519
0.0036387
0.00366729
0.00363274
0.0036519
0.0036387
0.0036673
0.00363274
0.00365642
0.00362747
0.0036677
0.00362227
0.00365642
0.00362745
0.0036677
0.00362228
0.0036475
0.00363622
0.00361864
0.00361904
0.00366257
0.00363118
0.00361927
0.0036475
0.00363622
0.00361864
0.00361904
0.00366257
0.00363118
0.00361927
0.00364326
0.00367104
0.00367105
0.00363536
0.00367057
0.00364012
0.00362716
0.00362719
0.00366585
0.00366585
0.00363539
0.00367058
0.00365192
0.0036387
0.00366731
0.00363274
0.00365192
0.0036387
0.00363274
0.00366731
0.00365644
0.00362745
0.00366772
0.00362229
0.00364752
0.00363622
0.00361864
0.00361905
0.00366258
0.00363118
0.00361928
0.00365644
0.00362747
0.00366771
0.00362228
0.00364752
0.00363623
0.00361905
0.00361864
0.00363118
0.00366258
0.00361928
0.00362497
0.00363473
0.00362953
0.00362953
0.00362497
0.00363474
0.00362954
0.00362954
0.00362497
0.00363474
0.00362954
0.00362954
0.00362373
0.00363282
0.0036157
0.0036157
0.0036281
0.0036281
0.00361388
0.00362373
0.00363282
0.0036157
0.0036157
0.0036281
0.0036281
0.00361388
0.00362374
0.00363282
0.0036157
0.0036157
0.0036281
0.0036281
0.00361388
0.00362374
0.00363282
0.0036157
0.0036157
0.0036281
0.0036281
0.00361388
0.00365192
0.0036387
0.00363274
0.0036673
0.00364752
0.00363622
0.00361864
0.00361905
0.00366258
0.00363118
0.00361928
0.00365644
0.00362746
0.00366771
0.00362228
0.00364752
0.00363623
0.00361905
0.00361865
0.00363118
0.00366258
0.00361927
0.00365644
0.00362746
0.00366771
0.00362227
0.00364327
0.00367105
0.00367105
0.00363534
0.00367058
0.00364012
0.00362718
0.00362718
0.00366586
0.00366586
0.00363534
0.00367058
0.00365192
0.0036387
0.00363275
0.00366731
0.00364752
0.00363623
0.00361905
0.00361865
0.00363119
0.00366258
0.00361928
0.00364752
0.00363623
0.00361905
0.00361864
0.00363119
0.00366258
0.00361928
0.00365644
0.00362746
0.00366771
0.00362227
0.00365644
0.00362747
0.00366772
0.00362228
0.00364012
0.00362718
0.00362718
0.00366586
0.00366586
0.00363534
0.00367058
0.00363537
0.00367059
0.00357314
0.00357591
0.00357324
0.00357589
0.00360949
0.00360952
0.00358107
0.00357636
0.00357637
0.00355865
0.00357555
0.00355865
0.00357556
0.0035744
0.00356126
0.00356126
0.00357452
0.00357452
0.00358032
0.00359946
0.00360867
0.00357241
0.00357785
0.00360365
0.00360359
0.00358665
0.00360668
0.00357674
0.00358754
0.00357784
0.00360365
0.00360359
0.00358665
0.00360668
0.00357674
0.00358754
0.00357578
0.00356039
0.0035733
0.00356113
0.00357578
0.00356039
0.00357331
0.00356113
0.00357282
0.00357235
0.00356007
0.00355982
0.00357389
0.00357276
0.00355841
0.00357282
0.00357235
0.00356007
0.00355982
0.0035739
0.00357276
0.00355841
0.00360948
0.00360953
0.00358108
0.00357637
0.00357637
0.00357329
0.00357589
0.00355865
0.00357556
0.00357441
0.00356126
0.00356126
0.00357452
0.00357451
0.00355864
0.00357557
0.00357783
0.00360366
0.00360359
0.00358666
0.00360668
0.00357673
0.00358754
0.00358031
0.00359946
0.00360865
0.00357241
0.00357784
0.00360359
0.00360366
0.00358665
0.00360668
0.00358754
0.00357673
0.00357577
0.00356039
0.0035733
0.00356113
0.00357281
0.00357235
0.00356007
0.00355982
0.00357389
0.00357276
0.00355841
0.00357577
0.00356038
0.00357331
0.00356113
0.00357281
0.00357235
0.00355982
0.00356007
0.00357276
0.00357389
0.00355841
0.00358031
0.00359946
0.00360865
0.0035724
0.00357784
0.00360359
0.00360366
0.00358665
0.00360668
0.00358754
0.00357673
0.00358031
0.00359948
0.00360865
0.0035724
0.00357281
0.00357235
0.00356007
0.00355982
0.00357389
0.00357276
0.00355841
0.00357577
0.00356038
0.0035733
0.00356113
0.00357281
0.00357235
0.00355982
0.00356007
0.00357276
0.00357389
0.00355841
0.00357577
0.00356039
0.00357329
0.00356113
0.00360952
0.00360953
0.00358105
0.00357637
0.00357636
0.00357326
0.00357589
0.00355865
0.00357557
0.0035744
0.00356126
0.00356126
0.00357452
0.00357451
0.00355865
0.00357553
0.00357783
0.00360359
0.00360366
0.00358666
0.00360668
0.00358754
0.00357673
0.00358031
0.00359947
0.00360864
0.00357239
0.0035803
0.00359947
0.00360865
0.0035724
0.00357281
0.00357235
0.00355982
0.00356007
0.00357275
0.00357389
0.00355841
0.00357281
0.00357235
0.00355982
0.00356007
0.00357276
0.00357389
0.00355841
0.00357577
0.00356038
0.0035733
0.00356113
0.00357577
0.00356038
0.0035733
0.00356113
0.00357328
0.00357589
0.00357327
0.00357589
0.0035744
0.00356126
0.00356126
0.00357451
0.00357451
0.00355866
0.00357554
0.00355864
0.00357555
0.00355188
0.00353179
0.00355187
0.00353178
0.00355407
0.00355407
0.00353251
0.00353315
0.00353315
0.0035064
0.00352536
0.0035064
0.00352536
0.00352571
0.00350747
0.00350747
0.00352669
0.00352669
0.00353369
0.00355297
0.00355433
0.00353223
0.00353228
0.00355305
0.00354783
0.00353596
0.00355184
0.00353282
0.00353569
0.00353228
0.00355305
0.00354783
0.00353596
0.00355184
0.00353282
0.00353569
0.00352717
0.00350681
0.00352585
0.00350791
0.00352717
0.00350681
0.00352585
0.00350791
0.00352575
0.0035232
0.00350728
0.00351007
0.00352637
0.00352306
0.00350674
0.00352575
0.0035232
0.00350728
0.00351008
0.00352637
0.00352306
0.00350674
0.00355407
0.00355407
0.00353251
0.00353316
0.00353316
0.00355189
0.00353179
0.0035064
0.00352536
0.00352571
0.00350747
0.00350747
0.00352669
0.00352669
0.0035064
0.00352536
0.00353228
0.00355305
0.00354783
0.00353596
0.00355184
0.00353282
0.00353569
0.00353369
0.00355296
0.00355433
0.00353222
0.00353228
0.00354783
0.00355304
0.00353596
0.00355184
0.00353569
0.00353282
0.00352716
0.00350681
0.00352585
0.00350791
0.00352574
0.00352319
0.00350728
0.00351007
0.00352637
0.00352306
0.00350674
0.00352716
0.00350681
0.00352585
0.00350791
0.00352574
0.00352319
0.00351007
0.00350727
0.00352306
0.00352637
0.00350674
0.00353369
0.00355297
0.00355433
0.00353223
0.00353228
0.00354783
0.00355305
0.00353596
0.00355184
0.00353569
0.00353282
0.00353369
0.00355297
0.00355433
0.00353223
0.00352575
0.0035232
0.00350728
0.00351008
0.00352637
0.00352306
0.00350674
0.00352717
0.0035068
0.00352585
0.00350791
0.00352574
0.0035232
0.00351007
0.00350728
0.00352306
0.00352637
0.00350674
0.00352716
0.00350681
0.00352585
0.00350791
0.00355406
0.00355407
0.00353251
0.00353315
0.00353315
0.00355188
0.00353179
0.0035064
0.00352536
0.00352571
0.00350747
0.00350747
0.00352669
0.00352669
0.0035064
0.00352536
0.00353228
0.00354782
0.00355305
0.00353596
0.00355184
0.00353569
0.00353282
0.0035337
0.00355297
0.00355433
0.00353223
0.0035337
0.00355296
0.00355433
0.00353223
0.00352575
0.00352319
0.00351008
0.00350728
0.00352306
0.00352637
0.00350674
0.00352575
0.00352319
0.00351008
0.00350728
0.00352306
0.00352637
0.00350674
0.00352717
0.00350681
0.00352585
0.00350791
0.00352717
0.00350681
0.00352585
0.00350791
0.00355188
0.00353178
0.00355187
0.00353179
0.00352571
0.00350747
0.00350747
0.00352669
0.00352669
0.0035064
0.00352536
0.0035064
0.00352536
0.00349987
0.00348012
0.00349987
0.00348012
0.00350087
0.00350088
0.00348052
0.00348096
0.00348096
0.0034539
0.0034735
0.0034539
0.0034735
0.00347357
0.00345457
0.00345457
0.0034743
0.0034743
0.00348143
0.00350023
0.00350131
0.00348041
0.00348053
0.00350063
0.00349695
0.00348391
0.00350007
0.00348089
0.00348381
0.00348053
0.00350063
0.00349695
0.00348391
0.00350007
0.00348089
0.00348381
0.00347476
0.00345412
0.00347376
0.00345501
0.00347476
0.00345411
0.00347376
0.00345501
0.00347381
0.00347079
0.00345459
0.00345766
0.00347419
0.00347071
0.00345434
0.00347381
0.00347079
0.00345459
0.00345766
0.00347419
0.00347071
0.00345434
0.00350088
0.00350088
0.00348052
0.00348096
0.00348096
0.00349987
0.00348012
0.0034539
0.0034735
0.00347357
0.00345457
0.00345457
0.0034743
0.0034743
0.0034539
0.0034735
0.00348053
0.00350063
0.00349695
0.00348391
0.00350007
0.00348089
0.00348381
0.00348143
0.00350023
0.00350131
0.00348041
0.00348053
0.00349695
0.00350063
0.00348391
0.00350007
0.00348381
0.00348089
0.00347476
0.00345411
0.00347376
0.00345501
0.00347381
0.00347079
0.00345459
0.00345766
0.00347419
0.00347071
0.00345434
0.00347476
0.00345411
0.00347376
0.00345501
0.00347381
0.00347079
0.00345766
0.00345459
0.00347071
0.00347419
0.00345434
0.00348143
0.00350023
0.00350131
0.00348041
0.00348053
0.00349695
0.00350063
0.00348391
0.00350007
0.00348381
0.00348089
0.00348143
0.00350023
0.00350131
0.00348041
0.00347381
0.00347079
0.00345459
0.00345766
0.00347419
0.00347071
0.00345434
0.00347476
0.00345412
0.00347376
0.00345501
0.00347381
0.00347079
0.00345766
0.00345459
0.00347071
0.00347419
0.00345434
0.00347476
0.00345412
0.00347376
0.00345501
0.00350087
0.00350088
0.00348052
0.00348096
0.00348096
0.00349987
0.00348012
0.0034539
0.0034735
0.00347357
0.00345457
0.00345457
0.0034743
0.0034743
0.0034539
0.0034735
0.00348053
0.00349695
0.00350063
0.00348391
0.00350007
0.00348381
0.00348089
0.00348143
0.00350023
0.00350131
0.00348041
0.00348143
0.00350023
0.00350131
0.00348041
0.00347381
0.00347079
0.00345766
0.00345459
0.00347071
0.00347419
0.00345434
0.00347381
0.00347079
0.00345766
0.00345459
0.00347071
0.00347419
0.00345434
0.00347476
0.00345411
0.00347376
0.00345501
0.00347476
0.00345411
0.00347376
0.00345501
0.00349987
0.00348012
0.00349987
0.00348012
0.00347357
0.00345457
0.00345457
0.0034743
0.0034743
0.0034539
0.0034735
0.0034539
0.0034735
0.00344735
0.00342796
0.00344735
0.00342796
0.00344801
0.00344801
0.00342844
0.00342852
0.00342852
0.00340231
0.00342148
0.00340231
0.00342148
0.00342164
0.0034028
0.0034028
0.00342203
0.00342203
0.00342891
0.00344756
0.00344842
0.00342814
0.0034284
0.00344797
0.00344466
0.00343176
0.00344768
0.00342858
0.00343172
0.0034284
0.00344797
0.00344466
0.00343176
0.00344768
0.00342858
0.00343172
0.00342239
0.00340246
0.00342165
0.00340312
0.00342239
0.00340247
0.00342165
0.00340312
0.00342181
0.00341888
0.00340288
0.00340604
0.00342203
0.00341884
0.00340275
0.00342181
0.00341888
0.00340288
0.00340604
0.00342203
0.00341884
0.00340275
0.00344801
0.00344801
0.00342844
0.00342852
0.00342852
0.00344735
0.00342796
0.00340231
0.00342148
0.00342164
0.0034028
0.0034028
0.00342203
0.00342203
0.00340231
0.00342148
0.0034284
0.00344797
0.00344466
0.00343176
0.00344768
0.00342858
0.00343172
0.00342891
0.00344756
0.00344842
0.00342814
0.0034284
0.00344466
0.00344797
0.00343176
0.00344768
0.00343172
0.00342858
0.00342239
0.00340246
0.00342165
0.00340312
0.00342181
0.00341888
0.00340288
0.00340604
0.00342203
0.00341884
0.00340274
0.00342239
0.00340246
0.00342165
0.00340312
0.00342181
0.00341888
0.00340604
0.00340288
0.00341884
0.00342203
0.00340274
0.00342891
0.00344756
0.00344842
0.00342814
0.0034284
0.00344466
0.00344797
0.00343176
0.00344768
0.00343172
0.00342858
0.00342891
0.00344756
0.00344842
0.00342814
0.00342181
0.00341888
0.00340288
0.00340604
0.00342203
0.00341884
0.00340275
0.00342239
0.00340246
0.00342165
0.00340312
0.00342181
0.00341888
0.00340604
0.00340288
0.00341884
0.00342203
0.00340275
0.00342239
0.00340246
0.00342165
0.00340312
0.003448
0.00344801
0.00342844
0.00342852
0.00342852
0.00344735
0.00342796
0.00340231
0.00342148
0.00342164
0.0034028
0.0034028
0.00342203
0.00342203
0.00340231
0.00342148
0.0034284
0.00344466
0.00344797
0.00343176
0.00344768
0.00343172
0.00342858
0.00342891
0.00344756
0.00344842
0.00342814
0.00342891
0.00344756
0.00344842
0.00342814
0.00342181
0.00341888
0.00340604
0.00340288
0.00341884
0.00342203
0.00340274
0.00342181
0.00341888
0.00340604
0.00340288
0.00341884
0.00342203
0.00340274
0.00342239
0.00340246
0.00342165
0.00340312
0.00342239
0.00340246
0.00342165
0.00340312
0.00344735
0.00342796
0.00344735
0.00342796
0.00342164
0.0034028
0.0034028
0.00342203
0.00342203
0.00340231
0.00342148
0.00340231
0.00342148
0.00339592
0.00337702
0.00339592
0.00337702
0.0033964
0.0033964
0.00337752
0.00337746
0.00337746
0.0033521
0.00337072
0.0033521
0.00337072
0.00337092
0.00335251
0.00335251
0.00337116
0.00337116
0.00337771
0.00339607
0.0033967
0.00337716
0.00337744
0.00339642
0.00339332
0.00338072
0.00339625
0.00337755
0.00338069
0.00337744
0.00339642
0.00339332
0.00338072
0.00339625
0.00337755
0.00338069
0.00337139
0.00335223
0.00337085
0.0033527
0.00337139
0.00335223
0.00337085
0.0033527
0.00337104
0.00336818
0.00335259
0.00335571
0.00337117
0.00336815
0.00335251
0.00337104
0.00336818
0.00335259
0.00335571
0.00337118
0.00336815
0.00335251
0.0033964
0.0033964
0.00337752
0.00337746
0.00337746
0.00339592
0.00337702
0.00335211
0.00337072
0.00337092
0.00335251
0.0033525
0.00337116
0.00337116
0.0033521
0.00337072
0.00337744
0.00339642
0.00339332
0.00338072
0.00339625
0.00337755
0.00338069
0.00337771
0.00339607
0.0033967
0.00337716
0.00337744
0.00339332
0.00339642
0.00338072
0.00339625
0.00338069
0.00337755
0.00337139
0.00335223
0.00337085
0.0033527
0.00337104
0.00336818
0.00335259
0.00335571
0.00337117
0.00336815
0.00335251
0.00337139
0.00335223
0.00337085
0.0033527
0.00337104
0.00336818
0.00335571
0.00335259
0.00336815
0.00337118
0.00335251
0.00337771
0.00339607
0.0033967
0.00337716
0.00337744
0.00339332
0.00339642
0.00338072
0.00339625
0.00338069
0.00337755
0.00337771
0.00339607
0.0033967
0.00337716
0.00337104
0.00336818
0.00335259
0.00335571
0.00337118
0.00336815
0.00335251
0.00337139
0.00335223
0.00337085
0.0033527
0.00337104
0.00336818
0.00335571
0.00335259
0.00336815
0.00337117
0.00335251
0.00337139
0.00335223
0.00337085
0.0033527
0.0033964
0.0033964
0.00337752
0.00337746
0.00337746
0.00339592
0.00337702
0.0033521
0.00337072
0.00337091
0.0033525
0.0033525
0.00337116
0.00337116
0.0033521
0.00337072
0.00337744
0.00339332
0.00339642
0.00338072
0.00339625
0.00338069
0.00337755
0.00337771
0.00339607
0.0033967
0.00337716
0.00337771
0.00339607
0.0033967
0.00337716
0.00337104
0.00336818
0.00335571
0.00335259
0.00336815
0.00337118
0.00335251
0.00337104
0.00336818
0.00335571
0.00335259
0.00336815
0.00337117
0.00335251
0.00337139
0.00335223
0.00337085
0.0033527
0.00337139
0.00335223
0.00337085
0.0033527
0.00339592
0.00337702
0.00339592
0.00337702
0.00337091
0.00335251
0.00335251
0.00337116
0.00337116
0.0033521
0.00337072
0.0033521
0.00337072
0.0033459
0.00332756
0.0033459
0.00332756
0.0033463
0.0033463
0.00332804
0.00332793
0.00332793
0.00330337
0.00332145
0.00330337
0.00332145
0.00332165
0.00330372
0.00330372
0.00332182
0.00332182
0.00332807
0.00334602
0.00334647
0.00332767
0.00332795
0.00334632
0.00334335
0.00333112
0.0033462
0.00332802
0.00333109
0.00332795
0.00334632
0.00334335
0.00333112
0.0033462
0.00332802
0.00333109
0.00332194
0.00330348
0.00332155
0.00330381
0.00332194
0.00330348
0.00332155
0.00330381
0.00332173
0.00331895
0.00330381
0.00330683
0.00332183
0.00331892
0.00330374
0.00332173
0.00331894
0.00330381
0.00330683
0.00332183
0.00331892
0.00330374
0.0033463