/*--------------------------------*- C++ -*----------------------------------*\
| =========                 |                                                 |
| \\      /  F ield         | OpenFOAM: The Open Source CFD Toolbox           |
|  \\    /   O peration     | Version:  v1906                                 |
|   \\  /    A nd           | Web:      www.OpenFOAM.com                      |
|    \\/     M anipulation  |                                                 |
\*---------------------------------------------------------------------------*/
FoamFile
{
    version     2.0;
    format      ascii;
    class       volScalarField;
    location    "650";
    object      k;
}
// * * * * * * * * * * * * * * * * * * * * * * * * * * * * * * * * * * * * * //

dimensions      [0 2 -2 0 0 0 0];


internalField   nonuniform List<scalar> 
43024
(
3.91919e-05
5.15789e-05
5.15792e-05
5.36718e-05
3.95545e-05
5.17814e-05
5.17815e-05
5.38278e-05
3.98899e-05
5.19629e-05
5.19628e-05
5.39711e-05
4.01987e-05
5.2124e-05
5.21238e-05
5.40984e-05
4.04813e-05
5.22651e-05
5.22651e-05
5.4209e-05
4.07384e-05
5.2387e-05
5.23871e-05
5.43049e-05
4.09707e-05
5.24903e-05
5.24904e-05
5.43861e-05
4.11791e-05
5.25757e-05
5.25758e-05
5.44528e-05
4.13643e-05
5.26439e-05
5.2644e-05
5.45054e-05
4.15272e-05
5.26955e-05
5.26956e-05
5.45446e-05
4.16688e-05
5.27311e-05
5.27311e-05
5.45712e-05
4.179e-05
5.27517e-05
5.27517e-05
5.4591e-05
4.18916e-05
5.2758e-05
5.2758e-05
5.45962e-05
4.19744e-05
5.27519e-05
5.27518e-05
5.45822e-05
4.20392e-05
5.27335e-05
5.27334e-05
5.45606e-05
4.20873e-05
5.27033e-05
5.27032e-05
5.45284e-05
4.212e-05
5.26622e-05
5.26621e-05
5.44889e-05
4.21386e-05
5.26112e-05
5.26112e-05
5.44412e-05
4.21425e-05
5.25514e-05
5.25514e-05
5.43854e-05
4.21258e-05
5.24642e-05
5.24641e-05
5.43148e-05
4.17283e-05
5.13108e-05
5.13147e-05
5.39539e-05
5.36125e-05
5.15215e-05
5.15222e-05
5.36159e-05
5.15217e-05
5.15214e-05
5.15244e-05
5.15239e-05
5.36128e-05
5.15246e-05
5.15238e-05
5.36124e-05
5.36667e-05
5.37806e-05
5.15761e-05
5.15768e-05
5.17289e-05
5.17297e-05
5.3665e-05
5.37834e-05
5.15764e-05
5.1576e-05
5.17291e-05
5.17287e-05
5.15786e-05
5.17318e-05
5.17313e-05
5.3667e-05
5.37812e-05
5.15785e-05
5.1732e-05
5.17313e-05
5.37803e-05
5.38252e-05
5.39277e-05
5.17784e-05
5.17793e-05
5.19151e-05
5.19162e-05
5.38246e-05
5.39305e-05
5.17788e-05
5.17783e-05
5.19153e-05
5.19149e-05
5.17809e-05
5.19182e-05
5.19176e-05
5.3825e-05
5.39286e-05
5.17809e-05
5.19181e-05
5.19176e-05
5.39291e-05
5.39685e-05
5.40586e-05
5.19598e-05
5.19609e-05
5.20808e-05
5.20819e-05
5.39694e-05
5.4061e-05
5.19602e-05
5.19596e-05
5.2081e-05
5.20805e-05
5.19623e-05
5.20839e-05
5.20832e-05
5.39679e-05
5.40597e-05
5.19624e-05
5.20837e-05
5.20833e-05
5.40603e-05
5.40962e-05
5.41736e-05
5.21209e-05
5.2122e-05
5.22265e-05
5.22275e-05
5.40968e-05
5.41753e-05
5.21213e-05
5.21207e-05
5.22267e-05
5.22263e-05
5.21234e-05
5.22294e-05
5.22289e-05
5.40956e-05
5.41746e-05
5.21235e-05
5.22294e-05
5.2229e-05
5.41755e-05
5.42078e-05
5.42729e-05
5.22622e-05
5.22632e-05
5.23528e-05
5.23537e-05
5.42082e-05
5.42742e-05
5.22625e-05
5.2262e-05
5.2353e-05
5.23526e-05
5.22647e-05
5.23556e-05
5.23552e-05
5.42075e-05
5.42736e-05
5.22648e-05
5.23557e-05
5.23553e-05
5.42749e-05
5.43039e-05
5.43571e-05
5.23842e-05
5.23851e-05
5.24605e-05
5.24613e-05
5.43043e-05
5.43581e-05
5.23846e-05
5.2384e-05
5.24607e-05
5.24602e-05
5.23867e-05
5.24632e-05
5.24628e-05
5.43037e-05
5.43576e-05
5.23868e-05
5.24633e-05
5.2463e-05
5.4359e-05
5.4385e-05
5.44266e-05
5.24876e-05
5.24884e-05
5.255e-05
5.25508e-05
5.43854e-05
5.44274e-05
5.2488e-05
5.24874e-05
5.25503e-05
5.25497e-05
5.249e-05
5.25527e-05
5.25524e-05
5.43848e-05
5.44269e-05
5.24903e-05
5.25528e-05
5.25526e-05
5.44284e-05
5.44516e-05
5.4482e-05
5.25731e-05
5.25739e-05
5.26223e-05
5.2623e-05
5.44519e-05
5.44826e-05
5.25735e-05
5.25728e-05
5.26225e-05
5.26218e-05
5.25755e-05
5.26248e-05
5.26246e-05
5.44514e-05
5.44821e-05
5.25758e-05
5.26249e-05
5.26248e-05
5.44837e-05
5.45042e-05
5.45236e-05
5.26414e-05
5.26421e-05
5.26779e-05
5.26786e-05
5.45045e-05
5.45242e-05
5.26417e-05
5.2641e-05
5.26782e-05
5.26775e-05
5.26438e-05
5.26804e-05
5.26803e-05
5.45039e-05
5.45236e-05
5.2644e-05
5.26805e-05
5.26806e-05
5.45253e-05
5.45432e-05
5.45521e-05
5.2693e-05
5.26937e-05
5.2718e-05
5.27187e-05
5.45435e-05
5.4553e-05
5.26933e-05
5.26925e-05
5.27183e-05
5.27175e-05
5.26954e-05
5.27206e-05
5.27204e-05
5.45429e-05
5.45524e-05
5.26957e-05
5.27207e-05
5.27207e-05
5.45538e-05
5.45698e-05
5.45684e-05
5.27286e-05
5.27292e-05
5.27434e-05
5.27441e-05
5.45696e-05
5.45717e-05
5.27289e-05
5.2728e-05
5.27436e-05
5.27429e-05
5.2731e-05
5.2746e-05
5.27457e-05
5.4569e-05
5.45711e-05
5.27313e-05
5.27461e-05
5.2746e-05
5.45699e-05
5.45886e-05
5.45741e-05
5.27494e-05
5.27498e-05
5.27545e-05
5.27552e-05
5.45855e-05
5.45767e-05
5.27496e-05
5.27486e-05
5.27547e-05
5.27539e-05
5.27518e-05
5.27571e-05
5.27569e-05
5.45849e-05
5.45753e-05
5.27521e-05
5.27571e-05
5.27572e-05
5.4571e-05
5.45903e-05
5.45644e-05
5.27555e-05
5.2756e-05
5.27508e-05
5.27513e-05
5.45883e-05
5.45681e-05
5.27557e-05
5.27547e-05
5.2751e-05
5.275e-05
5.27579e-05
5.27533e-05
5.27531e-05
5.45878e-05
5.45667e-05
5.27582e-05
5.27533e-05
5.27534e-05
5.45655e-05
5.45808e-05
5.45428e-05
5.27493e-05
5.27498e-05
5.27342e-05
5.27347e-05
5.45779e-05
5.45475e-05
5.27495e-05
5.27485e-05
5.27344e-05
5.27333e-05
5.27516e-05
5.27368e-05
5.27365e-05
5.45772e-05
5.45468e-05
5.27519e-05
5.27367e-05
5.27368e-05
5.45436e-05
5.45593e-05
5.45146e-05
5.27309e-05
5.27314e-05
5.27055e-05
5.2706e-05
5.45563e-05
5.45175e-05
5.27311e-05
5.27301e-05
5.27058e-05
5.27046e-05
5.27332e-05
5.27081e-05
5.27078e-05
5.45557e-05
5.45172e-05
5.27334e-05
5.2708e-05
5.2708e-05
5.45153e-05
5.45272e-05
5.44773e-05
5.27007e-05
5.27013e-05
5.26657e-05
5.26661e-05
5.45269e-05
5.44781e-05
5.2701e-05
5.26999e-05
5.2666e-05
5.26648e-05
5.2703e-05
5.26681e-05
5.26678e-05
5.45266e-05
5.44775e-05
5.27032e-05
5.26682e-05
5.2668e-05
5.44775e-05
5.4488e-05
5.44304e-05
5.26596e-05
5.26602e-05
5.26154e-05
5.26158e-05
5.44883e-05
5.44308e-05
5.26599e-05
5.26588e-05
5.26157e-05
5.26146e-05
5.26619e-05
5.26179e-05
5.26176e-05
5.44876e-05
5.44302e-05
5.26621e-05
5.26179e-05
5.26177e-05
5.44312e-05
5.44404e-05
5.43753e-05
5.26087e-05
5.26092e-05
5.25559e-05
5.25563e-05
5.44407e-05
5.43755e-05
5.2609e-05
5.26078e-05
5.25561e-05
5.25551e-05
5.26109e-05
5.25584e-05
5.2558e-05
5.44401e-05
5.4375e-05
5.2611e-05
5.25584e-05
5.25582e-05
5.43764e-05
5.43846e-05
5.43103e-05
5.25489e-05
5.25493e-05
5.24938e-05
5.24943e-05
5.43848e-05
5.43106e-05
5.25492e-05
5.25481e-05
5.2494e-05
5.24929e-05
5.25511e-05
5.24963e-05
5.24959e-05
5.43842e-05
5.43101e-05
5.25512e-05
5.24962e-05
5.2496e-05
5.43117e-05
5.43133e-05
5.4103e-05
5.24616e-05
5.2462e-05
5.22726e-05
5.22736e-05
5.43136e-05
5.4104e-05
5.24618e-05
5.24608e-05
5.22741e-05
5.22708e-05
5.24638e-05
5.22775e-05
5.22745e-05
5.43133e-05
5.40908e-05
5.24639e-05
5.22749e-05
5.2276e-05
5.40871e-05
5.39378e-05
5.13061e-05
5.13071e-05
5.39405e-05
5.13079e-05
5.13098e-05
4.173e-05
4.17283e-05
4.17301e-05
5.13131e-05
5.39488e-05
5.13148e-05
6.85704e-05
7.34379e-05
7.11954e-05
6.85734e-05
7.34433e-05
3.90963e-05
3.90972e-05
3.91e-05
3.91004e-05
6.06298e-05
5.14126e-05
6.47931e-05
4.67111e-05
7.11941e-05
6.06251e-05
5.14129e-05
4.6712e-05
6.47933e-05
5.35254e-05
6.99338e-05
6.9946e-05
6.86237e-05
7.34713e-05
6.86013e-05
7.34937e-05
7.12234e-05
7.12481e-05
6.86268e-05
7.34768e-05
6.86062e-05
7.34991e-05
3.91928e-05
3.91956e-05
3.91958e-05
3.94656e-05
3.94665e-05
3.94692e-05
3.94697e-05
6.07227e-05
6.48301e-05
4.69219e-05
5.16308e-05
6.06841e-05
6.48544e-05
4.6988e-05
7.12218e-05
7.12468e-05
6.07183e-05
4.69227e-05
6.48304e-05
5.1631e-05
6.06833e-05
4.69887e-05
6.48549e-05
6.99678e-05
6.99787e-05
5.36963e-05
6.99825e-05
6.99947e-05
6.86701e-05
7.35255e-05
6.86506e-05
7.35468e-05
7.12751e-05
7.12991e-05
6.86733e-05
7.3531e-05
6.86556e-05
7.35522e-05
3.95554e-05
3.95581e-05
3.95583e-05
3.98075e-05
3.98085e-05
3.98111e-05
3.98116e-05
6.08012e-05
6.48871e-05
4.71797e-05
5.18277e-05
6.0771e-05
6.49082e-05
4.72391e-05
7.12735e-05
7.12977e-05
6.07987e-05
4.71805e-05
6.48876e-05
5.18276e-05
6.0769e-05
4.72398e-05
6.49089e-05
7.00128e-05
7.00242e-05
5.38565e-05
7.0027e-05
7.00385e-05
6.87097e-05
7.3577e-05
6.8693e-05
7.35971e-05
7.13249e-05
7.13481e-05
6.8713e-05
7.35825e-05
6.8698e-05
7.36025e-05
3.9891e-05
3.98935e-05
3.98937e-05
4.01226e-05
4.01237e-05
4.01261e-05
4.01267e-05
6.08702e-05
6.49366e-05
4.74124e-05
5.20036e-05
6.08449e-05
6.49547e-05
4.74652e-05
7.13233e-05
7.13467e-05
6.08674e-05
4.74131e-05
6.49372e-05
5.20034e-05
6.08423e-05
4.74659e-05
6.49554e-05
7.00534e-05
7.00649e-05
5.39965e-05
7.0066e-05
7.00769e-05
6.87427e-05
7.36256e-05
6.87287e-05
7.36446e-05
7.13728e-05
7.13952e-05
6.87461e-05
7.36311e-05
6.87337e-05
7.365e-05
4.01998e-05
4.02022e-05
4.02025e-05
4.04114e-05
4.04125e-05
4.04148e-05
4.04155e-05
6.09281e-05
6.49788e-05
4.76208e-05
5.21591e-05
6.09074e-05
6.4994e-05
4.76672e-05
7.13712e-05
7.13938e-05
6.09249e-05
4.76214e-05
6.49796e-05
5.2159e-05
6.09043e-05
4.76677e-05
6.49946e-05
7.00892e-05
7.01012e-05
5.41196e-05
7.01003e-05
7.01111e-05
6.87693e-05
7.36714e-05
6.87579e-05
7.36892e-05
7.14187e-05
7.14403e-05
6.87725e-05
7.36769e-05
6.87627e-05
7.36946e-05
4.04824e-05
4.04847e-05
4.0485e-05
4.06745e-05
4.06756e-05
4.06779e-05
4.06786e-05
6.09746e-05
6.50139e-05
4.78056e-05
5.22949e-05
6.09566e-05
6.50261e-05
4.78457e-05
7.14171e-05
7.14389e-05
6.09713e-05
4.78061e-05
6.50148e-05
5.22949e-05
6.0955e-05
4.78461e-05
6.50269e-05
7.01204e-05
7.01325e-05
5.42271e-05
7.01299e-05
7.01408e-05
6.87892e-05
7.37144e-05
6.87807e-05
7.3731e-05
7.14626e-05
7.14833e-05
6.87925e-05
7.37198e-05
6.87849e-05
7.37364e-05
4.07394e-05
4.07418e-05
4.07421e-05
4.09126e-05
4.09137e-05
4.0916e-05
4.09166e-05
6.10097e-05
6.50421e-05
4.79676e-05
5.24117e-05
6.09963e-05
6.50516e-05
4.80014e-05
7.1461e-05
7.14819e-05
6.10067e-05
4.79681e-05
6.50431e-05
5.24118e-05
6.09941e-05
4.80019e-05
6.50525e-05
7.01471e-05
7.01593e-05
5.43189e-05
7.0155e-05
7.0166e-05
6.88028e-05
7.37545e-05
6.87972e-05
7.377e-05
7.15044e-05
7.15243e-05
6.88064e-05
7.37599e-05
6.88009e-05
7.37753e-05
4.09718e-05
4.09741e-05
4.09744e-05
4.11264e-05
4.11275e-05
4.11297e-05
4.11304e-05
6.10352e-05
6.50637e-05
4.81076e-05
5.25102e-05
6.10257e-05
6.50704e-05
4.81355e-05
7.15028e-05
7.15228e-05
6.10321e-05
4.81081e-05
6.50644e-05
5.25103e-05
6.10228e-05
4.8136e-05
6.50716e-05
7.01694e-05
7.01817e-05
5.43955e-05
7.01757e-05
7.01867e-05
6.88109e-05
7.37918e-05
6.88077e-05
7.38061e-05
7.15442e-05
7.15632e-05
6.88144e-05
7.37971e-05
6.8811e-05
7.38114e-05
4.11801e-05
4.11823e-05
4.11828e-05
4.13168e-05
4.13178e-05
4.13199e-05
4.13208e-05
6.10506e-05
6.50791e-05
4.82265e-05
5.25909e-05
6.10442e-05
6.50828e-05
4.82489e-05
7.15423e-05
7.15615e-05
6.10475e-05
4.8227e-05
6.50796e-05
5.2591e-05
6.10413e-05
4.82494e-05
6.50842e-05
7.01873e-05
7.01996e-05
5.44578e-05
7.01917e-05
7.02033e-05
6.88134e-05
7.38262e-05
6.88122e-05
7.38394e-05
7.15817e-05
7.15998e-05
6.8817e-05
7.38315e-05
6.88155e-05
7.38448e-05
4.13653e-05
4.13675e-05
4.13679e-05
4.14845e-05
4.14855e-05
4.14876e-05
4.14885e-05
6.10565e-05
6.50881e-05
4.83252e-05
5.26546e-05
6.10535e-05
6.50893e-05
4.83424e-05
7.15797e-05
7.15982e-05
6.10533e-05
4.83258e-05
6.50886e-05
5.26547e-05
6.10505e-05
4.8343e-05
6.50904e-05
7.02009e-05
7.02127e-05
5.45062e-05
7.02037e-05
7.02154e-05
6.88108e-05
7.38578e-05
6.88116e-05
7.38699e-05
7.16168e-05
7.16343e-05
6.88145e-05
7.38632e-05
6.88149e-05
7.38753e-05
4.15282e-05
4.15303e-05
4.15308e-05
4.16306e-05
4.16315e-05
4.16336e-05
4.16345e-05
6.10536e-05
6.50908e-05
4.84047e-05
5.27024e-05
6.10538e-05
6.50896e-05
4.84171e-05
7.16149e-05
7.16327e-05
6.10503e-05
4.84053e-05
6.50912e-05
5.27025e-05
6.10507e-05
4.84176e-05
6.50905e-05
7.02103e-05
7.0222e-05
5.45412e-05
7.02114e-05
7.02231e-05
6.88036e-05
7.38865e-05
6.88062e-05
7.38976e-05
7.16498e-05
7.16668e-05
6.88071e-05
7.38921e-05
6.88094e-05
7.39032e-05
4.16698e-05
4.16718e-05
4.16724e-05
4.1756e-05
4.17569e-05
4.17589e-05
4.17599e-05
6.10423e-05
6.50877e-05
4.84658e-05
5.27351e-05
6.10456e-05
6.5084e-05
4.8474e-05
7.16479e-05
7.16652e-05
6.1039e-05
4.84664e-05
6.50884e-05
5.27352e-05
6.10425e-05
4.84746e-05
6.50848e-05
7.02157e-05
7.02274e-05
5.45617e-05
7.0215e-05
7.02267e-05
6.8792e-05
7.39124e-05
6.87962e-05
7.39226e-05
7.16805e-05
7.16972e-05
6.87955e-05
7.3918e-05
6.87995e-05
7.39283e-05
4.17909e-05
4.17929e-05
4.17936e-05
4.18618e-05
4.18627e-05
4.18647e-05
4.18657e-05
6.10229e-05
6.50792e-05
4.85092e-05
5.27533e-05
6.103e-05
6.5073e-05
4.85145e-05
7.16786e-05
7.16956e-05
6.10195e-05
4.85098e-05
6.50799e-05
5.27534e-05
6.10269e-05
4.85148e-05
6.50738e-05
7.02177e-05
7.02294e-05
5.45713e-05
7.02149e-05
7.02266e-05
6.87762e-05
7.39354e-05
6.87815e-05
7.39451e-05
7.17088e-05
7.17257e-05
6.87794e-05
7.39411e-05
6.87851e-05
7.39509e-05
4.18925e-05
4.18944e-05
4.18952e-05
4.1949e-05
4.19499e-05
4.19518e-05
4.19528e-05
6.09961e-05
6.50655e-05
4.85363e-05
5.27568e-05
6.10061e-05
6.50566e-05
4.85388e-05
7.1707e-05
7.17242e-05
6.09926e-05
4.85369e-05
6.50661e-05
5.27568e-05
6.10029e-05
4.85389e-05
6.50573e-05
7.02164e-05
7.0228e-05
5.45679e-05
7.0211e-05
7.02227e-05
6.87551e-05
7.39559e-05
6.87625e-05
7.39652e-05
7.17348e-05
7.17524e-05
6.87586e-05
7.39617e-05
6.87663e-05
7.3971e-05
4.19753e-05
4.19772e-05
4.1978e-05
4.2019e-05
4.20199e-05
4.20217e-05
4.20226e-05
6.09615e-05
6.50467e-05
4.85478e-05
5.27466e-05
6.09742e-05
6.50349e-05
4.85473e-05
7.1733e-05
7.17509e-05
6.0958e-05
4.85482e-05
6.50473e-05
5.27466e-05
6.0971e-05
4.85475e-05
6.50357e-05
7.0212e-05
7.02236e-05
5.45539e-05
7.02033e-05
7.0215e-05
6.87299e-05
7.39735e-05
6.87393e-05
7.39825e-05
7.17582e-05
7.17776e-05
6.87335e-05
7.39794e-05
6.87429e-05
7.39884e-05
4.20402e-05
4.20418e-05
4.20429e-05
4.20727e-05
4.20732e-05
4.20753e-05
4.20759e-05
6.0919e-05
6.50239e-05
4.85447e-05
5.27239e-05
6.09352e-05
6.5008e-05
4.85404e-05
7.17564e-05
7.17762e-05
6.09172e-05
4.85449e-05
6.50244e-05
5.27238e-05
6.09316e-05
4.85406e-05
6.50088e-05
7.02051e-05
7.02166e-05
5.453e-05
7.01917e-05
7.02034e-05
6.87005e-05
7.39883e-05
6.87114e-05
7.39981e-05
7.17788e-05
7.18017e-05
6.87041e-05
7.39942e-05
6.8715e-05
7.4004e-05
4.20886e-05
4.20899e-05
4.20912e-05
4.21104e-05
4.21107e-05
4.2113e-05
4.21133e-05
6.08701e-05
6.49979e-05
4.85293e-05
5.26894e-05
6.08891e-05
6.49754e-05
4.85203e-05
7.17771e-05
7.18003e-05
6.08683e-05
4.85295e-05
6.49986e-05
5.26894e-05
6.08849e-05
4.85205e-05
6.49764e-05
7.01962e-05
7.02078e-05
5.44977e-05
7.01762e-05
7.01878e-05
6.8667e-05
7.40004e-05
6.86792e-05
7.40126e-05
7.17963e-05
7.18252e-05
6.86705e-05
7.40063e-05
6.86829e-05
7.40185e-05
4.21216e-05
4.21226e-05
4.21242e-05
4.2133e-05
4.21336e-05
4.21356e-05
4.21362e-05
6.08157e-05
6.497e-05
4.85013e-05
5.26442e-05
6.08366e-05
6.49368e-05
4.84877e-05
7.17946e-05
7.18237e-05
6.08127e-05
4.85015e-05
6.49709e-05
5.26443e-05
6.0833e-05
4.8488e-05
6.49379e-05
7.01865e-05
7.0198e-05
5.44555e-05
7.01568e-05
7.01684e-05
6.86298e-05
7.40097e-05
6.86427e-05
7.40277e-05
7.18108e-05
7.18486e-05
6.86335e-05
7.40156e-05
6.86463e-05
7.40335e-05
4.21398e-05
4.21411e-05
4.21424e-05
4.21409e-05
4.21418e-05
4.21434e-05
4.21443e-05
6.07531e-05
6.49441e-05
4.84618e-05
5.25893e-05
6.0781e-05
6.48912e-05
4.84438e-05
7.18091e-05
7.18471e-05
6.07503e-05
4.8462e-05
6.49451e-05
5.25893e-05
6.07781e-05
4.84441e-05
6.48923e-05
7.01774e-05
7.0189e-05
5.44048e-05
7.01346e-05
7.01462e-05
6.85866e-05
7.40161e-05
6.8599e-05
7.40465e-05
7.1823e-05
7.18723e-05
6.85901e-05
7.40219e-05
6.86025e-05
7.40522e-05
4.21434e-05
4.21449e-05
4.21458e-05
4.21263e-05
4.21273e-05
4.21287e-05
4.21296e-05
6.06813e-05
6.49283e-05
4.84119e-05
5.25247e-05
6.07177e-05
6.48346e-05
4.83884e-05
7.18214e-05
7.18708e-05
6.06787e-05
4.84122e-05
6.49291e-05
5.25247e-05
6.07149e-05
4.83887e-05
6.48351e-05
7.0172e-05
7.01835e-05
5.43457e-05
7.01127e-05
7.01242e-05
6.85201e-05
7.40167e-05
6.85415e-05
7.40747e-05
7.18345e-05
7.18989e-05
6.8523e-05
7.40222e-05
6.85447e-05
7.40802e-05
4.21268e-05
4.21281e-05
4.2129e-05
4.17628e-05
4.1764e-05
4.17634e-05
4.17646e-05
6.0566e-05
6.49322e-05
4.83463e-05
5.2453e-05
6.06526e-05
6.47335e-05
4.82757e-05
7.18331e-05
7.18977e-05
6.05636e-05
4.83469e-05
6.49321e-05
5.24519e-05
6.06501e-05
4.82757e-05
6.47331e-05
7.01623e-05
7.01739e-05
5.4263e-05
7.0044e-05
7.00555e-05
6.45948e-05
7.37843e-05
6.82876e-05
7.45548e-05
7.17769e-05
6.61544e-05
6.45964e-05
7.37887e-05
6.82895e-05
7.45925e-05
2.98279e-05
3.62021e-05
3.62006e-05
4.31108e-05
3.01213e-05
3.70589e-05
3.70579e-05
6.02622e-05
6.45638e-05
4.80779e-05
5.00929e-05
6.03445e-05
6.63336e-05
4.62566e-05
7.17749e-05
6.61606e-05
6.02603e-05
4.80775e-05
6.45643e-05
5.00585e-05
6.03406e-05
4.62623e-05
6.63373e-05
6.94293e-05
6.94402e-05
5.34659e-05
7.07825e-05
7.07972e-05
7.11933e-05
7.11959e-05
5.35249e-05
6.99343e-05
6.99444e-05
7.12199e-05
7.11949e-05
7.12225e-05
7.11974e-05
5.35838e-05
6.99593e-05
6.99694e-05
6.99435e-05
6.9953e-05
6.85726e-05
7.34436e-05
6.06262e-05
5.14097e-05
6.47913e-05
4.67075e-05
6.06278e-05
5.14105e-05
6.47951e-05
4.67088e-05
6.85738e-05
7.34662e-05
7.34431e-05
6.85982e-05
6.85759e-05
7.34719e-05
7.34469e-05
6.86001e-05
6.06331e-05
5.14669e-05
6.48231e-05
4.68492e-05
6.47967e-05
4.67798e-05
6.06743e-05
6.06347e-05
5.14677e-05
6.4827e-05
4.68505e-05
6.4801e-05
4.67811e-05
6.06758e-05
5.35253e-05
6.99436e-05
6.99326e-05
7.11921e-05
7.12219e-05
7.11969e-05
5.35842e-05
6.99687e-05
6.99573e-05
6.99531e-05
6.99407e-05
7.12187e-05
7.11934e-05
6.06268e-05
5.14099e-05
6.47951e-05
4.67098e-05
6.85717e-05
7.34389e-05
6.06253e-05
5.14097e-05
4.67097e-05
6.47898e-05
6.8579e-05
7.34717e-05
7.34487e-05
6.86012e-05
6.0638e-05
5.14672e-05
6.48271e-05
4.68515e-05
6.48012e-05
4.67821e-05
6.0675e-05
6.85769e-05
7.34672e-05
7.34423e-05
6.85989e-05
6.0636e-05
5.14668e-05
4.68515e-05
6.48216e-05
4.67822e-05
6.47959e-05
6.0673e-05
6.85728e-05
7.34431e-05
6.06281e-05
5.14122e-05
4.6711e-05
6.47918e-05
6.85719e-05
7.34402e-05
6.06366e-05
5.14698e-05
6.48247e-05
4.68528e-05
6.47987e-05
4.67834e-05
6.06778e-05
6.85782e-05
7.34714e-05
7.34465e-05
6.86003e-05
6.06349e-05
5.14694e-05
4.68527e-05
6.48235e-05
4.67833e-05
6.47972e-05
6.06761e-05
6.85753e-05
7.34684e-05
7.34435e-05
6.85994e-05
5.35251e-05
6.99382e-05
6.99354e-05
7.11944e-05
7.12207e-05
7.11953e-05
5.35841e-05
6.9963e-05
6.99603e-05
6.99464e-05
6.99435e-05
7.1221e-05
7.11959e-05
6.06265e-05
5.14121e-05
4.67122e-05
6.4797e-05
6.85706e-05
7.34411e-05
6.85731e-05
7.34433e-05
6.06363e-05
5.147e-05
4.68536e-05
6.48251e-05
4.67843e-05
6.47989e-05
6.06731e-05
6.06375e-05
5.14693e-05
4.68538e-05
6.48287e-05
4.67846e-05
6.48023e-05
6.06746e-05
6.85745e-05
7.34694e-05
7.34444e-05
6.85977e-05
6.85768e-05
7.34716e-05
7.34486e-05
6.86003e-05
7.11937e-05
7.11965e-05
5.35842e-05
6.99588e-05
6.99709e-05
6.99433e-05
6.99541e-05
7.12203e-05
7.11952e-05
7.12231e-05
7.1198e-05
7.12214e-05
7.12461e-05
7.12239e-05
7.12486e-05
6.99681e-05
6.99776e-05
5.36999e-05
6.99831e-05
6.99933e-05
7.12718e-05
7.12476e-05
7.12743e-05
7.125e-05
5.37481e-05
7.00056e-05
7.00159e-05
6.99915e-05
7.00009e-05
6.86258e-05
7.34751e-05
6.86032e-05
7.34994e-05
6.07195e-05
6.48282e-05
4.69184e-05
5.16279e-05
6.06807e-05
6.4853e-05
4.69845e-05
6.07209e-05
6.48325e-05
4.69198e-05
5.16286e-05
6.06822e-05
6.48569e-05
4.69858e-05
6.86266e-05
7.35207e-05
7.34987e-05
6.8648e-05
6.86286e-05
7.35263e-05
7.35025e-05
6.86499e-05
6.07254e-05
5.16799e-05
6.4881e-05
4.71133e-05
6.48578e-05
4.70507e-05
6.07613e-05
6.07268e-05
5.16807e-05
6.48849e-05
4.71146e-05
6.48621e-05
4.7052e-05
6.07629e-05
6.99776e-05
6.99653e-05
5.37058e-05
6.99925e-05
6.99811e-05
7.12199e-05
7.12449e-05
7.12738e-05
7.12495e-05
5.37444e-05
7.00155e-05
7.00035e-05
7.00011e-05
6.99885e-05
7.12706e-05
7.1246e-05
6.07203e-05
6.48326e-05
4.69207e-05
5.1628e-05
6.06851e-05
6.48569e-05
4.69868e-05
6.86247e-05
7.34705e-05
6.8604e-05
7.34948e-05
6.07183e-05
4.69207e-05
6.48273e-05
5.16277e-05
6.06832e-05
4.69867e-05
6.48514e-05
6.86315e-05
7.35261e-05
7.35042e-05
6.86511e-05
6.07296e-05
5.16802e-05
6.4885e-05
4.71155e-05
6.48621e-05
4.70529e-05
6.07622e-05
6.86294e-05
7.35217e-05
7.34979e-05
6.86488e-05
6.07276e-05
5.16798e-05
4.71155e-05
6.48793e-05
4.70529e-05
6.48568e-05
6.07602e-05
6.8626e-05
7.34746e-05
6.86052e-05
7.34989e-05
6.07212e-05
4.69219e-05
6.48287e-05
5.16303e-05
6.06825e-05
4.69879e-05
6.48534e-05
6.86251e-05
7.34717e-05
6.86026e-05
7.3496e-05
6.07282e-05
5.16828e-05
6.48822e-05
4.71167e-05
6.48595e-05
4.70541e-05
6.07627e-05
6.86306e-05
7.35258e-05
7.3502e-05
6.86499e-05
6.0727e-05
5.16824e-05
4.71167e-05
6.48813e-05
4.70541e-05
6.48582e-05
6.07629e-05
6.8628e-05
7.35228e-05
7.34991e-05
6.86491e-05
6.9971e-05
6.99681e-05
5.37003e-05
6.99868e-05
6.99841e-05
7.12224e-05
7.12471e-05
7.12725e-05
7.12479e-05
5.37483e-05
7.00093e-05
7.00065e-05
6.99943e-05
6.99914e-05
7.12728e-05
7.12485e-05
6.07197e-05
4.69231e-05
6.48338e-05
5.16302e-05
6.06846e-05
4.69891e-05
6.48586e-05
6.86231e-05
7.34726e-05
6.86013e-05
7.34969e-05
6.86256e-05
7.34766e-05
6.86037e-05
7.34991e-05
6.07277e-05
5.1683e-05
4.71175e-05
6.48829e-05
4.70548e-05
6.486e-05
6.07601e-05
6.07289e-05
5.16824e-05
4.71178e-05
6.48866e-05
4.70553e-05
6.48633e-05
6.07614e-05
6.86264e-05
7.35238e-05
7.35e-05
6.86467e-05
6.86288e-05
7.3526e-05
7.35041e-05
6.86492e-05
7.12217e-05
7.12464e-05
7.12245e-05
7.12492e-05
5.3753e-05
7.00055e-05
7.00172e-05
6.99913e-05
7.00022e-05
7.12721e-05
7.12478e-05
7.12749e-05
7.12506e-05
7.12732e-05
7.1297e-05
7.12756e-05
7.12996e-05
7.00137e-05
7.0023e-05
5.38562e-05
7.00269e-05
7.00372e-05
7.13218e-05
7.12984e-05
7.13243e-05
7.13008e-05
5.38988e-05
7.0047e-05
7.00573e-05
7.00346e-05
7.00439e-05
6.86723e-05
7.35293e-05
6.86524e-05
7.35525e-05
6.08002e-05
6.48854e-05
4.71764e-05
5.18246e-05
6.07667e-05
6.49071e-05
4.72358e-05
6.08018e-05
6.48895e-05
4.71778e-05
5.18256e-05
6.07682e-05
6.49111e-05
4.72372e-05
6.86725e-05
7.35724e-05
7.35515e-05
6.86911e-05
6.86745e-05
7.3578e-05
7.35554e-05
6.8693e-05
6.0805e-05
5.18717e-05
6.49313e-05
4.73521e-05
6.49111e-05
4.7296e-05
6.08362e-05
6.08066e-05
5.18727e-05
6.49355e-05
4.73534e-05
6.49153e-05
4.72973e-05
6.08377e-05
7.00228e-05
7.00106e-05
5.38592e-05
7.00369e-05
7.00248e-05
7.12716e-05
7.12958e-05
7.13238e-05
7.13002e-05
5.38993e-05
7.0057e-05
7.00448e-05
7.00437e-05
7.00315e-05
7.13205e-05
7.12967e-05
6.08012e-05
6.48899e-05
4.71786e-05
5.18248e-05
6.07711e-05
6.49109e-05
4.7238e-05
6.86712e-05
7.35247e-05
6.86532e-05
7.35479e-05
6.07992e-05
4.71786e-05
6.48843e-05
5.18244e-05
6.07691e-05
4.72379e-05
6.49053e-05
6.86774e-05
7.35778e-05
7.35571e-05
6.86942e-05
6.08093e-05
5.18721e-05
6.49352e-05
4.73542e-05
6.49155e-05
4.72981e-05
6.08371e-05
6.86752e-05
7.35733e-05
7.35508e-05
6.86919e-05
6.08073e-05
5.18715e-05
4.73541e-05
6.49294e-05
4.72981e-05
6.491e-05
6.08351e-05
6.86721e-05
7.35288e-05
6.86543e-05
7.3552e-05
6.08019e-05
4.71798e-05
6.48859e-05
5.18271e-05
6.07682e-05
4.72392e-05
6.49074e-05
6.86714e-05
7.35258e-05
6.86517e-05
7.3549e-05
6.08092e-05
5.18747e-05
6.49324e-05
4.73552e-05
6.49127e-05
4.72991e-05
6.08373e-05
6.86761e-05
7.35774e-05
7.35548e-05
6.86927e-05
6.08065e-05
5.18742e-05
4.73553e-05
6.49316e-05
4.72993e-05
6.49116e-05
6.08377e-05
6.86737e-05
7.35745e-05
7.35519e-05
6.8692e-05
7.00164e-05
7.00136e-05
5.38571e-05
7.00305e-05
7.00278e-05
7.12741e-05
7.1298e-05
7.13225e-05
7.12987e-05
5.38982e-05
7.00506e-05
7.00479e-05
7.00372e-05
7.00345e-05
7.13228e-05
7.12992e-05
6.08002e-05
4.7181e-05
6.4891e-05
5.18271e-05
6.07702e-05
4.72403e-05
6.49127e-05
6.86687e-05
7.35268e-05
6.86498e-05
7.355e-05
6.86711e-05
7.35308e-05
6.86522e-05
7.35522e-05
6.08069e-05
5.18747e-05
4.73559e-05
6.49331e-05
4.72999e-05
6.49133e-05
6.08346e-05
6.08082e-05
5.18742e-05
4.73564e-05
6.49368e-05
4.73005e-05
6.49167e-05
6.08358e-05
6.86715e-05
7.35755e-05
7.35528e-05
6.8689e-05
6.86739e-05
7.35777e-05
7.35569e-05
6.86914e-05
7.12734e-05
7.12974e-05
7.12762e-05
7.13002e-05
5.39019e-05
7.0047e-05
7.00586e-05
7.00337e-05
7.00452e-05
7.13221e-05
7.12985e-05
7.13249e-05
7.13014e-05
7.1323e-05
7.13461e-05
7.13255e-05
7.13486e-05
7.00543e-05
7.00636e-05
5.3995e-05
7.00658e-05
7.00762e-05
7.13699e-05
7.13473e-05
7.13724e-05
7.13497e-05
5.40344e-05
7.00836e-05
7.00939e-05
7.00729e-05
7.00821e-05
6.87119e-05
7.35808e-05
6.86949e-05
7.36028e-05
6.08691e-05
6.4935e-05
4.74093e-05
5.20005e-05
6.08404e-05
6.49536e-05
4.74621e-05
6.08707e-05
6.49392e-05
4.74107e-05
5.20016e-05
6.08419e-05
6.49578e-05
4.74635e-05
6.87115e-05
7.36213e-05
7.36016e-05
6.87274e-05
6.87135e-05
7.36269e-05
7.36054e-05
6.87292e-05
6.08727e-05
5.20429e-05
6.49742e-05
4.75661e-05
6.49571e-05
4.75165e-05
6.08993e-05
6.08743e-05
5.2044e-05
6.49784e-05
4.75675e-05
6.49613e-05
4.75179e-05
6.09009e-05
7.00634e-05
7.00512e-05
5.39978e-05
7.00759e-05
7.00636e-05
7.13214e-05
7.13448e-05
7.13719e-05
7.13491e-05
5.40351e-05
7.00936e-05
7.00814e-05
7.00819e-05
7.00696e-05
7.13685e-05
7.13456e-05
6.08701e-05
6.49392e-05
4.74114e-05
5.20007e-05
6.08448e-05
6.49576e-05
4.74642e-05
6.87109e-05
7.35761e-05
6.86957e-05
7.35981e-05
6.08682e-05
4.74114e-05
6.49338e-05
5.20002e-05
6.08429e-05
4.74642e-05
6.49518e-05
6.87165e-05
7.36267e-05
7.36071e-05
6.87306e-05
6.08771e-05
5.20432e-05
6.49781e-05
4.75682e-05
6.49613e-05
4.75185e-05
6.09003e-05
6.87143e-05
7.36222e-05
7.36008e-05
6.87283e-05
6.08752e-05
5.20426e-05
4.75681e-05
6.49724e-05
4.75186e-05
6.49559e-05
6.08985e-05
6.87116e-05
7.35802e-05
6.86965e-05
7.36022e-05
6.08706e-05
4.74126e-05
6.49353e-05
5.20029e-05
6.08418e-05
4.74654e-05
6.49539e-05
6.87109e-05
7.35772e-05
6.8694e-05
7.35993e-05
6.08773e-05
5.2046e-05
6.49753e-05
4.75692e-05
6.49586e-05
4.75196e-05
6.09009e-05
6.8715e-05
7.36262e-05
7.36048e-05
6.8729e-05
6.08742e-05
5.20454e-05
4.75693e-05
6.49744e-05
4.75198e-05
6.49574e-05
6.09009e-05
6.87126e-05
7.36233e-05
7.36019e-05
6.87282e-05
7.00569e-05
7.00543e-05
5.39962e-05
7.00694e-05
7.00668e-05
7.13239e-05
7.13471e-05
7.13705e-05
7.13475e-05
5.40336e-05
7.00872e-05
7.00845e-05
7.00754e-05
7.00728e-05
7.13709e-05
7.13481e-05
6.08686e-05
4.74137e-05
6.49407e-05
5.2003e-05
6.08435e-05
4.74664e-05
6.49589e-05
6.87077e-05
7.35782e-05
6.86915e-05
7.36003e-05
6.87098e-05
7.35823e-05
6.86939e-05
7.36025e-05
6.08745e-05
5.20458e-05
4.75698e-05
6.49759e-05
4.75202e-05
6.49593e-05
6.08978e-05
6.08756e-05
5.20455e-05
4.75703e-05
6.49796e-05
4.75208e-05
6.49629e-05
6.08987e-05
6.87099e-05
7.36243e-05
7.36029e-05
6.87248e-05
6.87121e-05
7.36266e-05
7.3607e-05
6.87266e-05
7.13232e-05
7.13464e-05
7.13261e-05
7.13492e-05
5.4037e-05
7.00837e-05
7.00945e-05
7.00719e-05
7.00838e-05
7.13702e-05
7.13474e-05
7.13729e-05
7.13503e-05
7.13709e-05
7.13932e-05
7.13734e-05
7.13957e-05
7.00902e-05
7.00995e-05
5.41178e-05
7.01001e-05
7.01105e-05
7.1416e-05
7.13942e-05
7.14185e-05
7.13966e-05
5.41542e-05
7.01155e-05
7.01259e-05
7.01064e-05
7.01157e-05
6.87448e-05
7.36294e-05
6.87306e-05
7.36503e-05
6.09266e-05
6.49774e-05
4.76177e-05
5.21561e-05
6.09024e-05
6.4993e-05
4.76641e-05
6.09281e-05
6.49816e-05
4.76191e-05
5.21571e-05
6.09039e-05
6.49972e-05
4.76655e-05
6.87439e-05
7.36673e-05
7.36488e-05
6.87571e-05
6.87459e-05
7.36729e-05
7.36526e-05
6.87589e-05
6.09291e-05
5.2194e-05
6.50101e-05
4.77562e-05
6.49959e-05
4.7713e-05
6.09511e-05
6.09307e-05
5.2195e-05
6.50142e-05
4.77576e-05
6.50001e-05
4.77144e-05
6.09526e-05
7.00992e-05
7.0087e-05
5.41203e-05
7.01102e-05
7.00978e-05
7.13692e-05
7.13918e-05
7.1418e-05
7.1396e-05
5.41543e-05
7.01256e-05
7.01132e-05
7.01154e-05
7.0103e-05
7.14146e-05
7.13924e-05
6.09276e-05
6.49817e-05
4.76197e-05
5.21563e-05
6.09069e-05
6.49969e-05
4.76662e-05
6.8744e-05
7.36247e-05
6.87315e-05
7.36456e-05
6.09258e-05
4.76198e-05
6.49762e-05
5.21559e-05
6.0905e-05
4.76661e-05
6.49912e-05
6.87488e-05
7.36728e-05
7.36543e-05
6.87604e-05
6.09334e-05
5.21944e-05
6.50139e-05
4.77583e-05
6.50002e-05
4.7715e-05
6.09523e-05
6.87467e-05
7.36682e-05
7.3648e-05
6.87581e-05
6.09316e-05
5.21938e-05
4.77583e-05
6.50082e-05
4.77151e-05
6.49947e-05
6.09505e-05
6.87447e-05
7.36287e-05
6.87322e-05
7.36496e-05
6.09281e-05
4.7621e-05
6.49777e-05
5.21585e-05
6.09039e-05
4.76673e-05
6.49932e-05
6.87438e-05
7.36258e-05
6.87297e-05
7.36467e-05
6.09339e-05
5.2197e-05
6.50109e-05
4.77593e-05
6.49972e-05
4.77161e-05
6.0953e-05
6.87475e-05
7.36722e-05
7.3652e-05
6.87588e-05
6.09307e-05
5.21965e-05
4.77594e-05
6.50103e-05
4.77163e-05
6.49962e-05
6.09526e-05
6.8745e-05
7.36693e-05
7.36491e-05
6.87579e-05
7.00928e-05
7.00901e-05
5.41193e-05
7.01037e-05
7.01011e-05
7.13718e-05
7.13942e-05
7.14166e-05
7.13944e-05
5.41534e-05
7.01191e-05
7.01165e-05
7.01089e-05
7.01063e-05
7.1417e-05
7.1395e-05
6.09259e-05
4.7622e-05
6.49832e-05
5.21586e-05
6.09052e-05
4.76682e-05
6.49983e-05
6.87402e-05
7.36268e-05
6.87267e-05
7.36477e-05
6.87418e-05
7.36309e-05
6.87286e-05
7.36499e-05
6.09308e-05
5.21969e-05
4.77598e-05
6.50117e-05
4.77166e-05
6.49981e-05
6.09497e-05
6.09317e-05
5.21966e-05
4.77603e-05
6.50154e-05
4.77173e-05
6.50018e-05
6.09504e-05
6.87419e-05
7.36703e-05
7.36501e-05
6.87542e-05
6.87435e-05
7.36726e-05
7.36542e-05
6.87555e-05
7.13711e-05
7.13935e-05
7.1374e-05
7.13962e-05
5.41559e-05
7.01156e-05
7.01265e-05
7.01054e-05
7.01175e-05
7.14162e-05
7.13943e-05
7.1419e-05
7.13972e-05
7.14169e-05
7.14383e-05
7.14193e-05
7.14408e-05
7.01215e-05
7.01308e-05
5.42251e-05
7.01298e-05
7.01402e-05
7.14601e-05
7.14391e-05
7.14626e-05
7.14415e-05
5.42578e-05
7.0143e-05
7.01534e-05
7.01354e-05
7.01447e-05
6.87713e-05
7.36752e-05
6.87597e-05
7.36949e-05
6.09721e-05
6.50127e-05
4.78025e-05
5.2292e-05
6.09533e-05
6.50254e-05
4.78426e-05
6.09736e-05
6.50169e-05
4.78039e-05
5.22929e-05
6.09549e-05
6.50295e-05
4.78439e-05
6.87699e-05
7.37106e-05
7.36932e-05
6.87803e-05
6.87718e-05
7.37161e-05
7.3697e-05
6.87821e-05
6.09747e-05
5.23256e-05
6.5039e-05
4.79233e-05
6.50278e-05
4.78864e-05
6.09909e-05
6.09762e-05
5.23265e-05
6.50432e-05
4.79246e-05
6.50319e-05
4.78877e-05
6.09923e-05
7.01305e-05