/*--------------------------------*- C++ -*----------------------------------*\
| =========                 |                                                 |
| \\      /  F ield         | OpenFOAM: The Open Source CFD Toolbox           |
|  \\    /   O peration     | Version:  v1906                                 |
|   \\  /    A nd           | Web:      www.OpenFOAM.com                      |
|    \\/     M anipulation  |                                                 |
\*---------------------------------------------------------------------------*/
FoamFile
{
    version     2.0;
    format      ascii;
    class       surfaceScalarField;
    location    "650";
    object      phi;
}
// * * * * * * * * * * * * * * * * * * * * * * * * * * * * * * * * * * * * * //

dimensions      [0 3 -1 0 0 0 0];
oriented        oriented;


internalField   nonuniform List<scalar> 
124908
(
1.24156e-07
1.24561e-07
-0.00118365
-7.71636e-08
-7.71333e-08
0.00118356
-0.00113214
-1.19622e-06
-1.24474e-07
-5.06287e-08
0.00113212
-2.33859e-07
1.24098e-06
2.71851e-07
9.11095e-07
-2.12168e-07
-8.52317e-07
2.66223e-07
-0.00113178
-1.19078e-06
-1.24539e-07
-5.0632e-08
0.00113176
-2.33882e-07
1.2355e-06
2.71863e-07
9.10952e-07
-2.14875e-07
-8.52179e-07
2.68928e-07
-0.000270098
1.22486e-06
1.19091e-06
-1.97955e-07
-2.03238e-07
0.000268083
1.2574e-07
1.26151e-07
-0.00118328
-7.94329e-08
-7.94147e-08
0.00118319
-0.00113206
-1.19603e-06
-1.26067e-07
-5.13082e-08
0.00113204
-2.33773e-07
1.2408e-06
2.71671e-07
9.10979e-07
-2.12098e-07
-8.52166e-07
2.66047e-07
-0.0011317
-1.19058e-06
-1.26127e-07
-5.12899e-08
0.00113168
-2.33798e-07
1.23531e-06
2.7168e-07
9.10825e-07
-2.14808e-07
-8.52035e-07
2.68759e-07
-0.000270109
1.22466e-06
1.19071e-06
-1.97905e-07
-2.03192e-07
0.000268094
1.26803e-07
1.27206e-07
-0.00118291
-8.12363e-08
-8.12144e-08
0.00118282
-0.00113199
-1.19592e-06
-1.27129e-07
-5.1807e-08
0.00113198
-2.33762e-07
1.24061e-06
2.71467e-07
9.1081e-07
-2.12142e-07
-8.52141e-07
2.65808e-07
-0.00113163
-1.19048e-06
-1.27191e-07
-5.17505e-08
0.00113161
-2.33785e-07
1.23511e-06
2.71475e-07
9.10651e-07
-2.14846e-07
-8.52023e-07
2.68527e-07
-0.000270121
1.22455e-06
1.19061e-06
-1.97926e-07
-2.03217e-07
0.000268107
1.27368e-07
1.27772e-07
-0.00118255
-8.25861e-08
-8.25712e-08
0.00118246
-0.00113193
-1.1959e-06
-1.27695e-07
-5.20741e-08
0.00113192
-2.33824e-07
1.24038e-06
2.71232e-07
9.10573e-07
-2.12283e-07
-8.52245e-07
2.65516e-07
-0.00113157
-1.19046e-06
-1.27755e-07
-5.20158e-08
0.00113156
-2.33845e-07
1.23489e-06
2.71244e-07
9.1042e-07
-2.14983e-07
-8.52119e-07
2.68239e-07
-0.000270136
1.22454e-06
1.19059e-06
-1.98012e-07
-2.03303e-07
0.000268122
1.27466e-07
1.27865e-07
-0.00118219
-8.35108e-08
-8.35026e-08
0.0011821
-0.00113188
-1.19597e-06
-1.27773e-07
-5.21421e-08
0.00113187
-2.33951e-07
1.24013e-06
2.70974e-07
9.10284e-07
-2.12521e-07
-8.52459e-07
2.65174e-07
-0.00113152
-1.19053e-06
-1.27842e-07
-5.20925e-08
0.00113151
-2.3397e-07
1.23464e-06
2.70988e-07
9.10133e-07
-2.15218e-07
-8.5233e-07
2.679e-07
-0.000270152
1.2246e-06
1.19066e-06
-1.98159e-07
-2.0345e-07
0.000268138
1.27106e-07
1.27499e-07
-0.00118184
-8.40272e-08
-8.40227e-08
0.00118175
-0.00113184
-1.19612e-06
-1.27393e-07
-5.20168e-08
0.00113183
-2.34143e-07
1.23985e-06
2.70688e-07
9.09943e-07
-2.12848e-07
-8.52777e-07
2.64782e-07
-0.00113147
-1.19068e-06
-1.27467e-07
-5.19712e-08
0.00113146
-2.34163e-07
1.23436e-06
2.70701e-07
9.09796e-07
-2.15545e-07
-8.52648e-07
2.67509e-07
-0.00027017
1.22476e-06
1.19081e-06
-1.98368e-07
-2.03659e-07
0.000268156
1.26348e-07
1.26737e-07
-0.00118149
-8.418e-08
-8.41797e-08
0.00118141
-0.0011318
-1.19635e-06
-1.26628e-07
-5.17384e-08
0.00113179
-2.34397e-07
1.23955e-06
2.70381e-07
9.09565e-07
-2.13257e-07
-8.53187e-07
2.64353e-07
-0.00113143
-1.19091e-06
-1.26699e-07
-5.16927e-08
0.00113143
-2.34417e-07
1.23406e-06
2.70394e-07
9.09417e-07
-2.15955e-07
-8.53059e-07
2.67079e-07
-0.000270189
1.22499e-06
1.19104e-06
-1.98632e-07
-2.03926e-07
0.000268176
1.25207e-07
1.25594e-07
-0.00118116
-8.39872e-08
-8.39901e-08
0.00118108
-0.00113177
-1.19665e-06
-1.25488e-07
-5.1304e-08
0.00113176
-2.34709e-07
1.23923e-06
2.70047e-07
9.09145e-07
-2.13739e-07
-8.53683e-07
2.63882e-07
-0.0011314
-1.19121e-06
-1.25549e-07
-5.12487e-08
0.0011314
-2.34729e-07
1.23374e-06
2.70059e-07
9.08991e-07
-2.1644e-07
-8.53559e-07
2.66606e-07
-0.000270209
1.2253e-06
1.19134e-06
-1.98948e-07
-2.04246e-07
0.000268196
1.23721e-07
1.24097e-07
-0.00118083
-8.34781e-08
-8.34907e-08
0.00118075
-0.00113174
-1.19703e-06
-1.24e-07
-5.07048e-08
0.00113173
-2.35079e-07
1.23887e-06
2.69683e-07
9.08673e-07
-2.14291e-07
-8.54264e-07
2.63366e-07
-0.00113138
-1.19158e-06
-1.24052e-07
-5.06526e-08
0.00113137
-2.35098e-07
1.23338e-06
2.69697e-07
9.08519e-07
-2.16995e-07
-8.5414e-07
2.66088e-07
-0.000270231
1.22567e-06
1.19171e-06
-1.99314e-07
-2.04615e-07
0.000268217
1.21929e-07
1.22307e-07
-0.00118051
-8.26968e-08
-8.27191e-08
0.00118043
-0.00113172
-1.19746e-06
-1.22218e-07
-4.99851e-08
0.00113172
-2.35493e-07
1.2385e-06
2.69292e-07
9.08147e-07
-2.14902e-07
-8.54889e-07
2.62808e-07
-0.00113136
-1.19201e-06
-1.22252e-07
-4.99241e-08
0.00113135
-2.3551e-07
1.23301e-06
2.69307e-07
9.07999e-07
-2.17605e-07
-8.54794e-07
2.65529e-07
-0.000270253
1.2261e-06
1.19214e-06
-1.99723e-07
-2.05027e-07
0.00026824
1.19881e-07
1.20256e-07
-0.0011802
-8.16784e-08
-8.16982e-08
0.00118012
-0.0011317
-1.19794e-06
-1.20171e-07
-4.91418e-08
0.0011317
-2.3595e-07
1.23809e-06
2.68878e-07
9.07597e-07
-2.15552e-07
-8.55615e-07
2.62203e-07
-0.00113134
-1.19249e-06
-1.20201e-07
-4.90814e-08
0.00113134
-2.35966e-07
1.2326e-06
2.68894e-07
9.07436e-07
-2.18261e-07
-8.55502e-07
2.64919e-07
-0.000270276
1.22659e-06
1.19263e-06
-2.00171e-07
-2.05478e-07
0.000268262
1.17631e-07
1.1801e-07
-0.0011799
-8.04615e-08
-8.04773e-08
0.00117982
-0.00113169
-1.19847e-06
-1.17935e-07
-4.82164e-08
0.00113169
-2.36432e-07
1.23765e-06
2.68434e-07
9.06973e-07
-2.16227e-07
-8.56354e-07
2.61534e-07
-0.00113133
-1.19303e-06
-1.17956e-07
-4.81581e-08
0.00113133
-2.3645e-07
1.23216e-06
2.68449e-07
9.06813e-07
-2.18943e-07
-8.56245e-07
2.64247e-07
-0.000270299
1.22712e-06
1.19316e-06
-2.00647e-07
-2.05954e-07
0.000268286
1.15285e-07
1.15673e-07
-0.00117961
-7.91371e-08
-7.91461e-08
0.00117953
-0.00113168
-1.19904e-06
-1.15595e-07
-4.72435e-08
0.00113169
-2.36936e-07
1.23719e-06
2.6794e-07
9.06256e-07
-2.16889e-07
-8.57092e-07
2.60773e-07
-0.00113132
-1.1936e-06
-1.15617e-07
-4.71987e-08
0.00113132
-2.36924e-07
1.2317e-06
2.67955e-07
9.06096e-07
-2.19605e-07
-8.56984e-07
2.63487e-07
-0.000270323
1.22768e-06
1.19371e-06
-2.01131e-07
-2.06435e-07
0.000268309
1.12943e-07
1.13327e-07
-0.00117932
-7.77815e-08
-7.77825e-08
0.00117925
-0.00113168
-1.1996e-06
-1.13252e-07
-4.62352e-08
0.00113168
-2.37428e-07
1.23666e-06
2.67384e-07
9.05384e-07
-2.17464e-07
-8.57764e-07
2.59845e-07
-0.00113132
-1.19417e-06
-1.13281e-07
-4.61969e-08
0.00113132
-2.37415e-07
1.23117e-06
2.67399e-07
9.05226e-07
-2.20175e-07
-8.57655e-07
2.62564e-07
-0.000270348
1.22824e-06
1.19428e-06
-2.01601e-07
-2.06904e-07
0.000268334
1.10818e-07
1.11197e-07
-0.00117905
-7.65664e-08
-7.65635e-08
0.00117898
-0.00113168
-1.20014e-06
-1.11131e-07
-4.5265e-08
0.00113169
-2.37851e-07
1.23603e-06
2.66716e-07
9.04274e-07
-2.17786e-07
-8.58237e-07
2.58609e-07
-0.00113132
-1.1947e-06
-1.11164e-07
-4.52238e-08
0.00113132
-2.37839e-07
1.23054e-06
2.66734e-07
9.04097e-07
-2.20486e-07
-8.58118e-07
2.61336e-07
-0.000270372
1.22878e-06
1.19482e-06
-2.01989e-07
-2.07292e-07
0.000268358
1.09271e-07
1.09641e-07
-0.00117879
-7.58202e-08
-7.58195e-08
0.00117872
-0.00113168
-1.20054e-06
-1.09574e-07
-4.42891e-08
0.00113169
-2.38089e-07
1.23518e-06
2.65797e-07
9.02591e-07
-2.17469e-07
-8.58235e-07
2.56697e-07
-0.00113132
-1.19509e-06
-1.09633e-07
-4.42628e-08
0.00113133
-2.38078e-07
1.22971e-06
2.65788e-07
9.02444e-07
-2.20161e-07
-8.58109e-07
2.59422e-07
-0.000270397
1.22917e-06
1.1952e-06
-2.02147e-07
-2.07453e-07
0.000268382
1.08927e-07
1.09287e-07
-0.00117853
-7.62268e-08
-7.62301e-08
0.00117847
-0.00113169
-1.20047e-06
-1.09241e-07
-4.31446e-08
0.0011317
-2.37755e-07
1.23373e-06
2.6413e-07
8.99775e-07
-2.15508e-07
-8.57183e-07
2.53024e-07
-0.00113133
-1.19503e-06
-1.09312e-07
-4.31255e-08
0.00113134
-2.3775e-07
1.22826e-06
2.6412e-07
8.99624e-07
-2.18195e-07
-8.57049e-07
2.55743e-07
-0.000270422
1.2291e-06
1.19513e-06
-2.01624e-07
-2.06939e-07
0.000268406
1.10967e-07
1.11326e-07
-0.00117829
-7.9451e-08
-7.94443e-08
0.00117823
-0.0011317
-1.19883e-06
-1.11296e-07
-4.06202e-08
0.00113172
-2.354e-07
1.23025e-06
2.59868e-07
8.94029e-07
-2.08973e-07
-8.53575e-07
2.44281e-07
-0.00113134
-1.19339e-06
-1.11393e-07
-4.06296e-08
0.00113136
-2.35421e-07
1.22478e-06
2.59903e-07
8.93864e-07
-2.11669e-07
-8.53378e-07
2.46997e-07
-0.000270448
1.22747e-06
1.19348e-06
-1.98836e-07
-2.04166e-07
0.00026843
1.34344e-07
1.34965e-07
-0.00117807
-9.60503e-08
-1.01796e-07
0.001178
-0.00113171
-1.19156e-06
-1.29229e-07
-4.4843e-08
0.00113175
-2.25152e-07
1.22267e-06
2.51359e-07
8.84345e-07
-1.91639e-07
-8.44655e-07
2.22918e-07
-0.00113136
-1.18341e-06
-1.35021e-07
-3.95539e-08
0.0011314
-2.25102e-07
1.21449e-06
2.48596e-07
8.81572e-07
-1.91637e-07
-8.41798e-07
2.25736e-07
-0.000270482
1.2229e-06
1.18618e-06
-1.85261e-07
-1.9061e-07
0.000268449
1.05232e-06
1.0598e-06
-0.00117775
-9.08338e-07
-8.97234e-07
0.00117744
-0.00113201
-1.0876e-06
-1.05387e-06
-4.40807e-07
0.0011325
-1.18876e-07
1.37603e-06
3.14292e-07
1.00642e-06
-5.28297e-08
-7.21379e-07
2.92105e-07
-0.00113167
-1.07931e-06
-1.06509e-06
-4.522e-07
0.00113217
-1.18706e-07
1.37068e-06
3.17228e-07
1.00349e-06
-5.90537e-08
-7.18457e-07
2.94953e-07
-0.0002706
1.12152e-06
1.07944e-06
-7.94613e-08
-8.19929e-08
0.00026856
5.5137e-06
5.50658e-06
-0.00116443
-1.16872e-05
-1.15802e-05
0.000283408
0.000285664
0.000285391
0.000285391
4.52813e-06
6.71924e-06
7.16042e-06
4.53208e-06
6.72012e-06
7.16401e-06
-0.000280655
5.41755e-06
-5.5036e-06
5.96625e-06
-3.39007e-06
0.000278165
-0.000280631
-5.50604e-06
5.42296e-06
-3.39842e-06
5.96326e-06
0.000278149
-0.000271534
-5.41427e-06
-5.42581e-06
5.74712e-06
5.7352e-06
0.000270892
-1.27496e-06
-1.23833e-06
0.000270115
-0.000268088
2.38878e-07
2.46789e-07
0.00113131
-1.23618e-07
-0.00113133
-5.04063e-08
-1.23029e-06
2.77278e-07
-2.39413e-07
-8.52384e-07
2.66176e-07
-2.12241e-07
9.1106e-07
1.28041e-06
0.00113175
-1.23666e-07
-0.00113177
-5.02097e-08
-1.2358e-06
2.80068e-07
-2.42297e-07
-8.57868e-07
2.68959e-07
-2.15056e-07
9.166e-07
-1.24102e-06
0.000270145
-0.000268109
2.41686e-07
2.44018e-07
0.00113241
-1.24048e-07
-0.00113243
-5.03424e-08
-1.19368e-06
2.74748e-07
-2.36801e-07
-8.55027e-07
2.6904e-07
-2.14986e-07
9.13905e-07
1.27498e-06
0.00113141
-1.23618e-07
-0.00113143
-5.03011e-08
-1.23037e-06
2.80086e-07
-2.42286e-07
-8.55049e-07
2.68893e-07
-2.14986e-07
9.13721e-07
-1.23954e-07
-0.00113216
-5.04122e-08
-1.19628e-06
2.71879e-07
-2.33894e-07
-8.5235e-07
2.6625e-07
9.11115e-07
-2.12205e-07
1.26952e-06
0.0011312
-1.23686e-07
-0.00113122
-5.02883e-08
-1.22492e-06
2.74482e-07
-2.36628e-07
-8.52382e-07
2.66172e-07
-2.12224e-07
9.1107e-07
-1.23553e-06
0.000270093
-0.000268068
2.39019e-07
2.46589e-07
-1.24012e-07
-0.0011318
-5.04042e-08
-1.19085e-06
2.719e-07
-2.3391e-07
-8.52163e-07
2.68935e-07
9.1103e-07
-2.1493e-07
1.23565e-06
0.00113231
-1.24054e-07
-0.00113233
-5.03774e-08
-1.19098e-06
2.72006e-07
-2.34013e-07
-8.52411e-07
2.69016e-07
-2.14956e-07
9.1127e-07
-0.000268081
2.41464e-07
2.46779e-07
1.23022e-06
1.19361e-06
-1.95386e-07
-2.03182e-07
0.00026809
-1.27478e-06
-1.23816e-06
0.000270126
-0.000268098
2.38584e-07
2.4649e-07
-5.06341e-08
0.00113129
-2.39385e-07
1.27492e-06
2.77242e-07
9.11034e-07
-2.12211e-07
-8.52331e-07
2.66141e-07
-1.23574e-06
-1.24182e-07
-5.04102e-08
0.00113173
-2.42271e-07
1.28037e-06
2.8004e-07
9.16579e-07
-2.15011e-07
-8.57834e-07
2.68922e-07
0.00113123
-1.25313e-07
-0.00113125
-5.11163e-08
-1.23007e-06
2.77106e-07
-2.39311e-07
-8.52217e-07
2.66012e-07
-2.12159e-07
9.10948e-07
1.28025e-06
0.00113167
-1.25343e-07
-0.00113169
-5.09408e-08
-1.23559e-06
2.79911e-07
-2.42184e-07
-8.57715e-07
2.68794e-07
-2.1495e-07
9.16489e-07
-1.98062e-07
-2.00511e-07
0.000268111
-1.24084e-06
0.000270155
-0.000268119
2.41391e-07
2.43722e-07
-5.06071e-08
0.00113239
-2.36774e-07
1.2383e-06
2.74713e-07
9.13874e-07
-2.14952e-07
-8.54989e-07
2.69009e-07
-1.2303e-06
-1.24152e-07
-5.05155e-08
0.00113139
-2.42258e-07
1.27494e-06
2.80048e-07
9.13692e-07
-2.14938e-07
-8.54998e-07
2.68861e-07
0.00113233
-1.25737e-07
-0.00113235
-5.1043e-08
-1.19345e-06
2.74579e-07
-2.36697e-07
-8.54881e-07
2.68881e-07
-2.14895e-07
9.13783e-07
1.2748e-06
0.00113133
-1.25305e-07
-0.00113135
-5.10234e-08
-1.23014e-06
2.79914e-07
-2.42178e-07
-8.5489e-07
2.68726e-07
-2.14889e-07
9.13604e-07
-1.24212e-07
-5.05083e-08
0.00113118
-2.366e-07
1.26948e-06
2.74443e-07
9.1105e-07
-2.1219e-07
2.66145e-07
-8.52334e-07
-1.25663e-07
-0.00113208
-5.11197e-08
-1.19607e-06
2.71711e-07
-2.33788e-07
-8.52189e-07
2.66076e-07
9.11041e-07
-2.12109e-07
1.26935e-06
0.00113112
-1.25391e-07
-0.00113114
-5.10113e-08
-1.22469e-06
2.74304e-07
-2.36535e-07
-8.52223e-07
2.66011e-07
-2.12123e-07
9.1096e-07
-1.9545e-07
-2.03087e-07
0.00026807
-1.23535e-06
0.000270103
-0.000268078
2.38719e-07
2.46293e-07
-1.24589e-07
-5.05915e-08
0.00113229
-2.33985e-07
1.23561e-06
2.71966e-07
9.11242e-07
-2.14924e-07
2.68985e-07
-8.52357e-07
-1.2571e-07
-0.00113172
-5.10946e-08
-1.19062e-06
2.71722e-07
-2.33811e-07
-8.5201e-07
2.6877e-07
9.10912e-07
-2.14838e-07
1.23548e-06
0.00113223
-1.2574e-07
-0.00113225
-5.10903e-08
-1.19074e-06
2.71832e-07
-2.33916e-07
-8.52248e-07
2.68843e-07
-2.14862e-07
9.11149e-07
-0.000268091
2.41169e-07
2.46481e-07
1.23003e-06
1.19341e-06
-1.95342e-07
-2.03142e-07
0.000268101
-1.27459e-06
-1.23797e-06
0.000270138
-0.00026811
2.38266e-07
2.4617e-07
-5.13058e-08
0.00113121
-2.39297e-07
1.27474e-06
2.77065e-07
9.10906e-07
-2.1213e-07
-8.52196e-07
2.6597e-07
-1.23554e-06
-1.25776e-07
-5.11133e-08
0.00113166
-2.4217e-07
1.28021e-06
2.79868e-07
9.16458e-07
-2.14936e-07
-8.57696e-07
2.68756e-07
0.00113116
-1.26476e-07
-0.00113118
-5.16061e-08
-1.22994e-06
2.76901e-07
-2.39288e-07
-8.52173e-07
2.65789e-07
-2.12165e-07
9.10778e-07
1.28005e-06
0.00113161
-1.26508e-07
-0.00113162
-5.14315e-08
-1.23545e-06
2.79707e-07
-2.42162e-07
-8.57675e-07
2.68568e-07
-2.14969e-07
9.16318e-07
-1.98023e-07
-2.00474e-07
0.000268122
-1.24065e-06
0.000270168
-0.000268132
2.41073e-07
2.43405e-07
-5.12744e-08
0.00113232
-2.36684e-07
1.23812e-06
2.74537e-07
9.1375e-07
-2.14884e-07
-8.54859e-07
2.68832e-07
-1.2301e-06
-1.25729e-07
-5.11941e-08
0.00113131
-2.42167e-07
1.27476e-06
2.79873e-07
9.1357e-07
-2.14882e-07
-8.54869e-07
2.68687e-07
0.00113227
-1.26892e-07
-0.00113228
-5.15455e-08
-1.19332e-06
2.74377e-07
-2.36671e-07
-8.54842e-07
2.68648e-07
-2.14906e-07
9.13615e-07
1.27461e-06
0.00113126
-1.26468e-07
-0.00113128
-5.15206e-08
-1.23001e-06
2.79714e-07
-2.42151e-07
-8.54844e-07
2.68505e-07
-2.149e-07
9.13435e-07
-1.25806e-07
-5.11724e-08
0.00113111
-2.36518e-07
1.2693e-06
2.74262e-07
9.1093e-07
-2.12116e-07
2.65968e-07
-8.52207e-07
-1.2681e-07
-0.00113201
-5.16474e-08
-1.19594e-06
2.71512e-07
-2.33759e-07
-8.52137e-07
2.65861e-07
9.10846e-07
-2.12122e-07
1.26915e-06
0.00113106
-1.26543e-07
-0.00113107
-5.14978e-08
-1.22457e-06
2.74102e-07
-2.36507e-07
-8.52179e-07
2.65787e-07
-2.12137e-07
9.10792e-07
-1.95407e-07
-2.03043e-07
0.000268081
-1.23516e-06
0.000270116
-0.000268091
2.38401e-07
2.45975e-07
-1.26168e-07
-5.12542e-08
0.00113221
-2.33897e-07
1.23543e-06
2.7179e-07
9.11115e-07
-2.14865e-07
2.68805e-07
-8.5223e-07
-1.26874e-07
-0.00113165
-5.15931e-08
-1.1905e-06
2.7152e-07
-2.33782e-07
-8.51972e-07
2.68551e-07
9.10747e-07
-2.14846e-07
1.23528e-06
0.00113216
-1.26895e-07
-0.00113218
-5.1582e-08
-1.19062e-06
2.71632e-07
-2.33885e-07
-8.52207e-07
2.68619e-07
-2.14886e-07
9.1098e-07
-0.000268104
2.40849e-07
2.46156e-07
1.22992e-06
1.1933e-06
-1.95361e-07
-2.03165e-07
0.000268114
-1.27437e-06
-1.23775e-06
0.000270153
-0.000268125
2.37925e-07
2.45828e-07
-5.17576e-08
0.00113114
-2.3929e-07
1.27454e-06
2.76857e-07
9.10726e-07
-2.12174e-07
-8.52183e-07
2.65737e-07
-1.23544e-06
-1.26834e-07
-5.1569e-08
0.00113159
-2.42166e-07
1.28001e-06
2.79659e-07
9.16274e-07
-2.14983e-07
-8.5769e-07
2.68515e-07
0.0011311
-1.27125e-07
-0.00113111
-5.18905e-08
-1.22991e-06
2.76669e-07
-2.39333e-07
-8.52246e-07
2.6551e-07
-2.12279e-07
9.10556e-07
1.27983e-06
0.00113155
-1.27153e-07
-0.00113156
-5.17258e-08
-1.23542e-06
2.79475e-07
-2.42211e-07
-8.57753e-07
2.68286e-07
-2.15091e-07
9.16092e-07
-1.98042e-07
-2.00493e-07
0.000268135
-1.24043e-06
0.000270182
-0.000268146
2.40727e-07
2.43059e-07
-5.17348e-08
0.00113225
-2.36675e-07
1.23792e-06
2.74332e-07
9.13572e-07
-2.1493e-07
-8.54849e-07
2.68595e-07
-1.22999e-06
-1.2679e-07
-5.16493e-08
0.00113124
-2.42154e-07
1.27456e-06
2.7967e-07
9.13389e-07
-2.1492e-07
-8.54855e-07
2.68452e-07
0.00113221
-1.27545e-07
-0.00113222
-5.18438e-08
-1.19328e-06
2.74146e-07
-2.36714e-07
-8.54911e-07
2.68373e-07
-2.15023e-07
9.13393e-07
1.27439e-06
0.0011312
-1.27113e-07
-0.00113121
-5.18092e-08
-1.22997e-06
2.79486e-07
-2.42198e-07
-8.54917e-07
2.68228e-07
-2.15015e-07
9.13217e-07
-1.26853e-07
-5.16331e-08
0.00113104
-2.36509e-07
1.2691e-06
2.74056e-07
9.10744e-07
-2.12157e-07
2.65736e-07
-8.52192e-07
-1.27464e-07
-0.00113195
-5.1946e-08
-1.1959e-06
2.71282e-07
-2.33806e-07
-8.52213e-07
2.65577e-07
9.1062e-07
-2.1224e-07
1.26893e-06
0.001131
-1.27188e-07
-0.00113101
-5.17973e-08
-1.22453e-06
2.73872e-07
-2.36551e-07
-8.5225e-07
2.65509e-07
-2.12253e-07
9.1057e-07
-1.95428e-07
-2.03064e-07
0.000268094
-1.23494e-06
0.000270131
-0.000268105
2.38058e-07
2.45633e-07
-1.27229e-07
-5.17184e-08
0.00113215
-2.33888e-07
1.23523e-06
2.71584e-07
9.10933e-07
-2.14895e-07
2.6857e-07
-8.52218e-07
-1.27524e-07
-0.00113158
-5.18888e-08
-1.19046e-06
2.71293e-07
-2.33827e-07
-8.52041e-07
2.68277e-07
9.1053e-07
-2.14961e-07
1.23506e-06
0.0011321
-1.27542e-07
-0.00113212
-5.18789e-08
-1.19058e-06
2.71399e-07
-2.3393e-07
-8.52281e-07
2.6834e-07
-2.14999e-07
9.10757e-07
-0.000268118
2.40508e-07
2.45816e-07
1.22991e-06
1.19329e-06
-1.95446e-07
-2.03251e-07
0.000268128
-1.27411e-06
-1.23749e-06
0.000270169
-0.000268141
2.37549e-07
2.45451e-07
-5.2011e-08
0.00113108
-2.39351e-07
1.27432e-06
2.76621e-07
9.10495e-07
-2.12313e-07
-8.52281e-07
2.65449e-07
-1.23542e-06
-1.27397e-07
-5.18295e-08
0.00113153
-2.4223e-07
1.27978e-06
2.79423e-07
9.1604e-07
-2.15125e-07
-8.57792e-07
2.68225e-07
0.00113105
-1.27302e-07
-0.00113106
-5.19852e-08
-1.22995e-06
2.76415e-07
-2.39439e-07
-8.52426e-07
2.65183e-07
-2.12484e-07
9.10283e-07
1.27958e-06
0.00113149
-1.27329e-07
-0.00113151
-5.18142e-08
-1.23547e-06
2.79219e-07
-2.42324e-07
-8.57935e-07
2.6796e-07
-2.15296e-07
9.15817e-07
-1.98127e-07
-2.0058e-07
0.00026815
-1.24018e-06
0.000270199
-0.000268162
2.40355e-07
2.42682e-07
-5.19997e-08
0.00113219
-2.36734e-07
1.2377e-06
2.74097e-07
9.1334e-07
-2.15064e-07
-8.5495e-07
2.68309e-07
-1.22997e-06
-1.27356e-07
-5.19057e-08
0.00113119
-2.42217e-07
1.27434e-06
2.79436e-07
9.13163e-07
-2.15054e-07
-8.54952e-07
2.68167e-07
0.00113215
-1.27715e-07
-0.00113217
-5.19404e-08
-1.19332e-06
2.73893e-07
-2.36819e-07
-8.55095e-07
2.68045e-07
-2.15232e-07
9.13118e-07
1.27414e-06
0.00113115
-1.27287e-07
-0.00113116
-5.18944e-08
-1.23002e-06
2.79232e-07
-2.42309e-07
-8.55097e-07
2.67899e-07
-2.15225e-07
9.12942e-07
-1.27418e-07
-5.18937e-08
0.00113098
-2.36572e-07
1.26888e-06
2.73821e-07
9.10512e-07
-2.12291e-07
2.65446e-07
-8.52289e-07
-1.2762e-07
-0.00113189
-5.20417e-08
-1.19594e-06
2.71029e-07
-2.33915e-07
-8.52399e-07
2.65246e-07
9.10344e-07
-2.12455e-07
1.26868e-06
0.00113094
-1.27344e-07
-0.00113096
-5.18807e-08
-1.22457e-06
2.73612e-07
-2.36663e-07
-8.52433e-07
2.65179e-07
-2.12464e-07
9.10294e-07
-1.95511e-07
-2.03148e-07
0.000268109
-1.23469e-06
0.000270147
-0.000268121
2.37686e-07
2.45259e-07
-1.27786e-07
-5.19734e-08
0.00113209
-2.33953e-07
1.23501e-06
2.71347e-07
9.10701e-07
-2.15037e-07
2.68279e-07
-8.5232e-07
-1.27687e-07
-0.00113153
-5.19878e-08
-1.1905e-06
2.71042e-07
-2.33934e-07
-8.52224e-07
2.67948e-07
9.10252e-07
-2.15172e-07
1.2348e-06
0.00113205
-1.27701e-07
-0.00113206
-5.19678e-08
-1.19063e-06
2.71138e-07
-2.34043e-07
-8.52463e-07
2.68012e-07
-2.15207e-07
9.10482e-07
-0.000268134
2.40129e-07
2.45438e-07
1.22998e-06
1.19336e-06
-1.95592e-07
-2.034e-07
0.000268145
-1.27384e-06
-1.23722e-06
0.000270187
-0.000268158
2.37154e-07
2.45056e-07
-5.20791e-08
0.00113103
-2.39478e-07
1.27406e-06
2.76361e-07
9.10212e-07
-2.12546e-07
-8.5249e-07
2.65113e-07
-1.2355e-06
-1.27493e-07
-5.18887e-08
0.00113148
-2.42362e-07
1.27952e-06
2.79162e-07
9.15758e-07
-2.15357e-07
-8.58001e-07
2.6789e-07
0.001131
-1.27012e-07
-0.00113101
-5.1893e-08
-1.23008e-06
2.76135e-07
-2.39618e-07
-8.5271e-07
2.64808e-07
-2.12782e-07
9.09961e-07
1.2793e-06
0.00113145
-1.27035e-07
-0.00113146
-5.1719e-08
-1.2356e-06
2.78934e-07
-2.42503e-07
-8.58217e-07
2.67587e-07
-2.15592e-07
9.1548e-07
-1.98276e-07
-2.00735e-07
0.000268166
-1.23991e-06
0.000270216
-0.000268179
2.39961e-07
2.42282e-07
-5.20688e-08
0.00113214
-2.3686e-07
1.23744e-06
2.73839e-07
9.13056e-07
-2.15298e-07
-8.55161e-07
2.67972e-07
-1.23005e-06
-1.27452e-07
-5.19661e-08
0.00113114
-2.42347e-07
1.27409e-06
2.79176e-07
9.12877e-07
-2.15288e-07
-8.55163e-07
2.67828e-07
0.00113211
-1.2742e-07
-0.00113212
-5.18493e-08
-1.19345e-06
2.73612e-07
-2.36998e-07
-8.5538e-07
2.6767e-07
-2.15532e-07
9.12794e-07
1.27386e-06
0.0011311
-1.26996e-07
-0.00113111
-5.17963e-08
-1.23015e-06
2.78946e-07
-2.42489e-07
-8.55383e-07
2.67522e-07
-2.15526e-07
9.12618e-07
-1.27497e-07
-5.19495e-08
0.00113093
-2.36699e-07
1.26862e-06
2.7356e-07
9.10225e-07
-2.12528e-07
2.65107e-07
-8.525e-07
-1.27311e-07
-0.00113185
-5.19491e-08
-1.19607e-06
2.70748e-07
-2.34088e-07
-8.5269e-07
2.64866e-07
9.10015e-07
-2.12759e-07
1.2684e-06
0.0011309
-1.27039e-07
-0.00113091
-5.17719e-08
-1.22471e-06
2.73331e-07
-2.36839e-07
-8.52722e-07
2.64797e-07
-2.12768e-07
9.09965e-07
-1.95658e-07
-2.033e-07
0.000268125
-1.23442e-06
0.000270165
-0.000268139
2.37291e-07
2.44861e-07
-1.27868e-07
-5.20365e-08
0.00113204
-2.34081e-07
1.23475e-06
2.71085e-07
9.10416e-07
-2.1527e-07
2.67942e-07
-8.5253e-07
-1.27382e-07
-0.00113148
-5.19032e-08
-1.19063e-06
2.70761e-07
-2.34108e-07
-8.52514e-07
2.67568e-07
9.09928e-07
-2.15476e-07
1.23453e-06
0.001132
-1.27398e-07
-0.00113201
-5.18717e-08
-1.19076e-06
2.70857e-07
-2.3422e-07
-8.5275e-07
2.67634e-07
-2.15508e-07
9.10156e-07
-0.000268152
2.39731e-07
2.45042e-07
1.23013e-06
1.19351e-06
-1.95799e-07
-2.03609e-07
0.000268163
-1.27354e-06
-1.23692e-06
0.000270206
-0.000268177
2.36733e-07
2.44637e-07
-5.19548e-08
0.00113099
-2.39672e-07
1.27379e-06
2.76075e-07
9.09879e-07
-2.12869e-07
-8.52801e-07
2.64726e-07
-1.23566e-06
-1.27134e-07
-5.17684e-08
0.00113144
-2.42559e-07
1.27924e-06
2.78872e-07
9.15425e-07
-2.15681e-07
-8.58288e-07
2.67504e-07
0.00113096
-1.26271e-07
-0.00113097
-5.16127e-08
-1.23029e-06
2.75826e-07
-2.39857e-07
-8.53092e-07
2.64382e-07
-2.13167e-07
9.09588e-07
1.279e-06
0.00113141
-1.26295e-07
-0.00113142
-5.14327e-08
-1.23581e-06
2.78625e-07
-2.42744e-07
-8.58605e-07
2.67161e-07
-2.15977e-07
9.15127e-07
-1.98482e-07
-2.00947e-07
0.000268184
-1.23961e-06
0.000270236
-0.000268198
2.39541e-07
2.41861e-07
-5.19443e-08
0.0011321
-2.37054e-07
1.23717e-06
2.73552e-07
9.12722e-07
-2.15623e-07
-8.55474e-07
2.67585e-07
-1.2302e-06
-1.27088e-07
-5.18324e-08
0.00113109
-2.42545e-07
1.27381e-06
2.78885e-07
9.12538e-07
-2.15613e-07
-8.55476e-07
2.67441e-07
0.00113207
-1.26676e-07
-0.00113208
-5.15717e-08
-1.19366e-06
2.73303e-07
-2.37238e-07
-8.55765e-07
2.67247e-07
-2.15919e-07
9.12423e-07
1.27356e-06
0.00113107
-1.2626e-07
-0.00113107
-5.15174e-08
-1.23036e-06
2.78634e-07
-2.42731e-07
-8.55779e-07
2.67096e-07
-2.1591e-07
9.12282e-07
-1.27121e-07
-5.18069e-08
0.00113089
-2.36894e-07
1.26834e-06
2.7327e-07
9.09887e-07
-2.12856e-07
2.64715e-07
-8.52818e-07
-1.26559e-07
-0.00113181
-5.16775e-08
-1.19628e-06
2.70441e-07
-2.34326e-07
-8.53074e-07
2.64439e-07
9.09639e-07
-2.13146e-07
1.2681e-06
0.00113086
-1.26291e-07
-0.00113087
-5.14838e-08
-1.22492e-06
2.73019e-07
-2.3708e-07
-8.53108e-07
2.6437e-07
-2.13155e-07
9.0959e-07
-1.95865e-07
-2.03511e-07
0.000268143
-1.23412e-06
0.000270184
-0.000268158
2.36872e-07
2.44439e-07
-1.27492e-07
-5.19069e-08
0.00113199
-2.34275e-07
1.23447e-06
2.70797e-07
9.1008e-07
-2.15596e-07
2.67552e-07
-8.52845e-07
-1.26631e-07
-0.00113144
-5.16322e-08
-1.19083e-06
2.70453e-07
-2.34345e-07
-8.52898e-07
2.67141e-07
9.09553e-07
-2.15863e-07
1.23422e-06
0.00113197
-1.26645e-07
-0.00113197
-5.15938e-08
-1.19097e-06
2.70546e-07
-2.34459e-07
-8.53136e-07
2.67206e-07
-2.15896e-07
9.09781e-07
-0.000268171
2.39311e-07
2.4462e-07
1.23036e-06
1.19374e-06
-1.96062e-07
-2.03873e-07
0.000268182
-1.27322e-06
-1.23659e-06
0.000270227
-0.000268197
2.36287e-07
2.44193e-07
-5.16644e-08
0.00113096
-2.39928e-07
1.27349e-06
2.75767e-07
9.09504e-07
-2.13277e-07
-8.5321e-07
2.64297e-07
-1.23589e-06
-1.26373e-07
-5.14682e-08
0.0011314
-2.42816e-07
1.27894e-06
2.78564e-07
9.15048e-07
-2.16086e-07
-8.58722e-07
2.67077e-07
0.00113093
-1.25109e-07
-0.00113094
-5.11518e-08
-1.23057e-06
2.75492e-07
-2.40152e-07
-8.53564e-07
2.6391e-07
-2.13629e-07
9.09166e-07
1.27868e-06
0.00113138
-1.25139e-07
-0.00113139
-5.09845e-08
-1.23609e-06
2.78291e-07
-2.43037e-07
-8.59074e-07
2.66692e-07
-2.16438e-07
9.14706e-07
-1.98746e-07
-2.01211e-07
0.000268203
-1.23928e-06
0.000270256
-0.000268219
2.39097e-07
2.41418e-07
-5.16595e-08
0.00113206
-2.37311e-07
1.23686e-06
2.73242e-07
9.12348e-07
-2.16032e-07
-8.55883e-07
2.67159e-07
-1.23044e-06
-1.26335e-07
-5.15411e-08
0.00113106
-2.42804e-07
1.27351e-06
2.78575e-07
9.12162e-07
-2.16017e-07
-8.55896e-07
2.67015e-07
0.00113204
-1.25514e-07
-0.00113205
-5.1112e-08
-1.19394e-06
2.72966e-07
-2.37533e-07
-8.56242e-07
2.6678e-07
-2.16384e-07
9.12006e-07
1.27323e-06
0.00113103
-1.25103e-07
-0.00113104
-5.10465e-08
-1.23064e-06
2.78297e-07
-2.43029e-07
-8.56239e-07
2.6663e-07
-2.16369e-07
9.11825e-07
-1.26358e-07
-5.15108e-08
0.00113085
-2.37153e-07
1.26804e-06
2.72958e-07
9.0951e-07
-2.13265e-07
2.64285e-07
-8.53228e-07
-1.25397e-07
-0.00113177
-5.12306e-08
-1.19656e-06
2.70108e-07
-2.34618e-07
-8.53546e-07
2.63969e-07
9.09217e-07
-2.13607e-07
1.26777e-06
0.00113083
-1.25131e-07
-0.00113084
-5.1018e-08
-1.2252e-06
2.72682e-07
-2.37377e-07
-8.5358e-07
2.639e-07
-2.13616e-07
9.09169e-07
-1.96127e-07
-2.03777e-07
0.000268163
-1.23379e-06
0.000270204
-0.000268178
2.36429e-07
2.43994e-07
-1.2672e-07
-5.16216e-08
0.00113196
-2.34532e-07
1.23417e-06
2.70486e-07
9.09701e-07
-2.16007e-07
2.6712e-07
-8.53257e-07
-1.25462e-07
-0.00113141
-5.11797e-08
-1.19111e-06
2.70119e-07
-2.34638e-07
-8.53372e-07
2.6667e-07
9.0913e-07
-2.16326e-07
1.2339e-06
0.00113193
-1.25472e-07
-0.00113194
-5.11385e-08
-1.19125e-06
2.70211e-07
-2.34754e-07
-8.53609e-07
2.66734e-07
-2.1636e-07
9.09356e-07
-0.000268191
2.38866e-07
2.44174e-07
1.23067e-06
1.19404e-06
-1.96381e-07
-2.04192e-07
0.000268203
-1.27286e-06
-1.23624e-06
0.000270248
-0.000268219
2.35816e-07
2.43723e-07
-5.12139e-08
0.00113093
-2.40242e-07
1.27316e-06
2.75432e-07
9.0908e-07
-2.13762e-07
-8.53708e-07
2.63822e-07
-1.23619e-06
-1.25237e-07
-5.10298e-08
0.00113137
-2.43128e-07
1.27862e-06
2.78231e-07
9.14625e-07
-2.1657e-07
-8.5922e-07
2.66605e-07
0.00113091
-1.23542e-07
-0.00113091
-5.05098e-08
-1.23092e-06
2.75128e-07
-2.40501e-07
-8.54118e-07
2.6339e-07
-2.14163e-07
9.08692e-07
1.27832e-06
0.00113135
-1.23574e-07
-0.00113136
-5.03534e-08
-1.23644e-06
2.77929e-07
-2.43385e-07
-8.5963e-07
2.66172e-07
-2.16971e-07
9.14232e-07
-1.99063e-07
-2.01527e-07
0.000268224
-1.23893e-06
0.000270277
-0.00026824
2.38626e-07
2.4095e-07
-5.12101e-08
0.00113203
-2.37626e-07
1.23654e-06
2.72904e-07
9.11927e-07
-2.16522e-07
-8.56387e-07
2.6669e-07
-1.23074e-06
-1.25203e-07
-5.10885e-08
0.00113103
-2.43121e-07
1.27318e-06
2.78236e-07
9.11748e-07
-2.16502e-07
-8.56385e-07
2.66543e-07
0.00113201
-1.23943e-07
-0.00113202
-5.04744e-08
-1.19429e-06
2.72601e-07
-2.37883e-07
-8.568e-07
2.66269e-07
-2.16923e-07
9.11534e-07
1.27288e-06
0.00113101
-1.23538e-07
-0.00113101
-5.04077e-08
-1.23099e-06
2.77933e-07
-2.43379e-07
-8.56792e-07
2.66111e-07
-2.16902e-07
9.11352e-07
-1.25219e-07
-5.10594e-08
0.00113082
-2.37468e-07
1.26771e-06
2.72622e-07
9.09088e-07
-2.13747e-07
2.63814e-07
-8.53724e-07
-1.23829e-07
-0.00113175
-5.05948e-08
-1.1969e-06
2.69742e-07
-2.34967e-07
-8.54098e-07
2.63451e-07
9.08746e-07
-2.14137e-07
1.26742e-06
0.0011308
-1.23567e-07
-0.00113081
-5.03755e-08
-1.22555e-06
2.72316e-07
-2.37727e-07
-8.54131e-07
2.63382e-07
-2.14146e-07
9.08697e-07
-1.96443e-07
-2.04098e-07
0.000268183
-1.23344e-06
0.000270226
-0.000268199
2.35958e-07
2.43524e-07
-1.25569e-07
-5.11774e-08
0.00113193
-2.34845e-07
1.23384e-06
2.70151e-07
9.09276e-07
-2.16493e-07
2.66647e-07
-8.53756e-07
-1.23884e-07
-0.00113138
-5.05412e-08
-1.19146e-06
2.69755e-07
-2.34986e-07
-8.53925e-07
2.66149e-07
9.08654e-07
-2.1686e-07
1.23354e-06
0.00113191
-1.23893e-07
-0.00113191
-5.05067e-08
-1.19159e-06
2.69848e-07
-2.35101e-07
-8.54162e-07
2.66214e-07
-2.16893e-07
9.08883e-07
-0.000268212
2.38398e-07
2.43703e-07
1.23104e-06
1.19441e-06
-1.9675e-07
-2.04561e-07
0.000268224
-1.27248e-06
-1.23585e-06
0.00027027
-0.000268241
2.35317e-07
2.43226e-07
-5.06127e-08
0.0011309
-2.40611e-07
1.27281e-06
2.7507e-07
9.08608e-07
-2.14317e-07
-8.54288e-07
2.63304e-07
-1.23656e-06
-1.23753e-07
-5.04409e-08
0.00113135
-2.43495e-07
1.27827e-06
2.77872e-07
9.14153e-07
-2.17125e-07
-8.59801e-07
2.66087e-07
0.00113089
-1.2159e-07
-0.00113089
-4.97109e-08
-1.23133e-06
2.74734e-07
-2.40895e-07
-8.54737e-07
2.62822e-07
-2.14751e-07
9.0816e-07
1.27794e-06
0.00113133
-1.21626e-07
-0.00113134
-4.95678e-08
-1.23685e-06
2.77539e-07
-2.43776e-07
-8.6025e-07
2.65604e-07
-2.17561e-07
9.13701e-07
-1.99432e-07
-2.01893e-07
0.000268245
-1.23854e-06
0.0002703
-0.000268262
2.38127e-07