/*--------------------------------*- C++ -*----------------------------------*\
| =========                 |                                                 |
| \\      /  F ield         | OpenFOAM: The Open Source CFD Toolbox           |
|  \\    /   O peration     | Version:  v1906                                 |
|   \\  /    A nd           | Web:      www.OpenFOAM.com                      |
|    \\/     M anipulation  |                                                 |
\*---------------------------------------------------------------------------*/
FoamFile
{
    version     2.0;
    format      ascii;
    class       volScalarField;
    location    "600";
    object      epsilon;
}
// * * * * * * * * * * * * * * * * * * * * * * * * * * * * * * * * * * * * * //

dimensions      [0 2 -3 0 0 0 0];


internalField   nonuniform List<scalar> 
171728
(
1.14869e-06
8.63017e-07
8.63004e-07
1.14857e-06
8.62774e-07
8.63057e-07
8.62814e-07
8.63063e-07
1.14866e-06
8.62936e-07
8.62919e-07
1.14839e-06
3.19679e-07
3.19674e-07
3.1976e-07
3.19763e-07
1.84272e-05
1.8429e-05
5.46241e-06
5.46359e-06
4.09144e-06
9.16096e-06
4.09373e-06
4.09163e-06
9.16227e-06
9.1553e-06
4.09386e-06
2.10214e-06
3.47452e-06
5.58155e-07
5.52251e-07
2.10688e-06
2.10226e-06
8.56927e-07
3.47541e-06
5.58205e-07
3.47171e-06
5.52312e-07
2.10686e-06
1.84288e-05
1.84185e-05
1.14422e-06
5.46393e-06
5.46185e-06
5.46114e-06
5.45946e-06
1.84262e-05
1.84158e-05
9.16279e-06
4.09388e-06
3.47543e-06
5.58273e-07
2.10702e-06
9.16239e-06
4.09355e-06
5.58298e-07
3.47483e-06
2.10695e-06
2.10237e-06
8.56739e-07
3.47502e-06
5.58197e-07
3.47153e-06
5.52309e-07
2.10697e-06
4.09154e-06
9.1621e-06
9.15518e-06
4.09401e-06
2.1023e-06
8.56978e-07
5.58274e-07
3.47461e-06
5.52381e-07
3.47164e-06
2.10693e-06
4.09155e-06
9.16213e-06
9.15519e-06
4.09385e-06
1.84296e-05
5.46366e-06
5.46216e-06
1.8428e-05
2.1024e-06
5.58315e-07
3.47508e-06
5.52409e-07
2.10689e-06
2.1024e-06
8.56843e-07
5.58312e-07
3.47562e-06
5.52422e-07
3.47196e-06
2.10696e-06
4.0917e-06
9.16204e-06
4.09342e-06
4.09159e-06
9.16318e-06
9.15622e-06
4.0939e-06
1.14445e-06
5.46216e-06
5.46408e-06
5.45956e-06
5.46121e-06
1.84281e-05
1.84178e-05
1.84299e-05
1.84196e-05
1.8422e-05
1.84243e-05
4.53788e-06
2.81204e-06
5.46164e-06
9.50082e-06
9.4964e-06
2.81009e-06
4.54081e-06
4.54435e-06
2.81128e-06
5.46347e-06
9.50373e-06
9.50077e-06
2.81215e-06
4.54287e-06
9.73608e-06
2.17306e-05
2.17284e-05
2.17238e-05
2.17226e-05
9.73562e-06
1.2203e-05
1.08236e-05
4.74405e-06
4.09189e-06
1.22002e-05
1.08266e-05
4.74429e-06
2.20534e-05
9.15826e-06
7.08831e-06
7.08885e-06
2.20603e-05
1.22036e-05
4.09343e-06
1.08299e-05
4.74588e-06
1.08268e-05
4.74577e-06
1.22064e-05
1.22034e-05
1.08238e-05
4.74435e-06
4.09195e-06
1.22004e-05
1.08268e-05
4.74469e-06
2.20543e-05
9.15925e-06
7.09011e-06
7.09049e-06
2.20609e-05
2.20562e-05
7.0895e-06
9.15825e-06
2.20497e-05
7.0891e-06
1.22037e-05
4.09348e-06
1.08301e-05
4.74626e-06
1.0827e-05
4.74602e-06
1.22069e-05
1.84238e-05
1.84234e-05
9.73349e-06
2.17176e-05
2.17182e-05
9.73389e-06
2.17238e-05
2.17245e-05
4.54449e-06
2.81254e-06
5.46356e-06
9.50442e-06
2.81146e-06
9.50074e-06
4.54489e-06
4.53846e-06
2.81132e-06
5.46177e-06
9.4994e-06
9.49646e-06
2.81024e-06
4.5388e-06
4.54223e-06
9.49609e-06
2.80827e-06
5.46162e-06
2.80925e-06
4.54192e-06
9.49968e-06
4.53623e-06
9.49175e-06
2.80705e-06
5.45955e-06
4.53583e-06
9.49475e-06
2.80806e-06
9.73586e-06
2.17289e-05
2.17296e-05
2.17226e-05
2.17233e-05
9.7355e-06
1.84212e-05
1.84208e-05
2.2054e-05
9.1602e-06
7.08998e-06
7.09032e-06
2.20606e-05
1.22042e-05
4.09374e-06
4.74609e-06
1.08301e-05
4.74606e-06
1.08281e-05
1.22068e-05
2.2054e-05
9.15946e-06
7.08856e-06
7.08906e-06
2.20609e-05
1.22041e-05
4.0937e-06
1.08299e-05
4.74608e-06
1.08279e-05
4.74584e-06
1.22071e-05
1.22031e-05
4.7442e-06
1.08241e-05
4.09211e-06
1.22001e-05
4.74455e-06
1.0827e-05
2.2053e-05
9.15912e-06
7.08958e-06
7.08994e-06
2.20596e-05
2.2055e-05
7.08895e-06
9.15809e-06
2.20484e-05
7.08858e-06
1.22034e-05
4.09353e-06
4.74611e-06
1.08303e-05
4.74588e-06
1.08273e-05
1.22067e-05
1.22036e-05
1.0824e-05
4.74407e-06
4.09192e-06
1.22005e-05
1.08269e-05
4.74436e-06
2.20537e-05
9.15915e-06
7.08819e-06
7.08856e-06
2.20603e-05
2.20557e-05
7.08757e-06
9.15811e-06
2.20491e-05
7.08718e-06
1.22037e-05
4.09337e-06
1.08302e-05
4.74602e-06
1.08271e-05
4.74561e-06
1.22072e-05
1.84245e-05
4.54494e-06
2.81218e-06
5.46361e-06
9.50412e-06
2.81164e-06
9.50116e-06
4.54494e-06
4.53897e-06
2.81113e-06
5.4617e-06
9.49985e-06
9.49617e-06
2.81056e-06
4.53908e-06
9.73669e-06
2.17299e-05
2.17303e-05
2.17236e-05
2.1724e-05
9.73629e-06
1.84231e-05
1.22033e-05
4.74419e-06
1.08244e-05
4.09182e-06
1.22007e-05
4.7442e-06
1.08271e-05
2.20539e-05
9.15952e-06
7.08822e-06
7.08858e-06
2.20605e-05
2.20558e-05
7.08719e-06
1.22041e-05
4.09355e-06
4.74561e-06
1.08301e-05
4.74574e-06
1.08279e-05
1.22068e-05
1.22033e-05
4.74434e-06
1.08244e-05
4.09203e-06
1.22004e-05
4.74457e-06
1.08273e-05
2.20535e-05
9.16016e-06
7.08988e-06
7.09038e-06
2.20604e-05
2.20558e-05
7.08939e-06
9.15917e-06
2.2049e-05
7.08887e-06
1.22037e-05
4.09349e-06
4.74615e-06
1.08306e-05
4.74604e-06
1.08276e-05
1.22067e-05
9.73402e-06
2.17189e-05
2.17182e-05
9.73443e-06
2.17252e-05
2.17245e-05
4.53887e-06
2.81147e-06
5.4619e-06
9.4996e-06
2.81054e-06
9.49666e-06
4.53901e-06
4.54469e-06
2.81264e-06
5.4636e-06
9.50472e-06
2.81157e-06
9.50105e-06
4.54513e-06
4.53634e-06
9.49193e-06
2.8074e-06
5.45973e-06
4.53625e-06
2.80798e-06
9.49495e-06
4.5425e-06
9.49638e-06
2.80839e-06
5.46179e-06
4.54209e-06
2.80938e-06
9.49998e-06
9.73641e-06
2.17302e-05
2.17295e-05
2.17239e-05
2.17232e-05
9.73605e-06
1.84232e-05
1.84227e-05
1.84249e-05
1.84245e-05
2.66789e-06
1.14914e-06
1.76883e-06
1.76744e-06
1.76727e-06
1.76785e-06
2.66859e-06
2.66789e-06
1.14923e-06
1.76835e-06
1.7682e-06
1.76786e-06
1.76769e-06
2.66858e-06
2.66835e-06
1.14922e-06
1.76788e-06
1.7677e-06
1.76805e-06
1.76814e-06
2.66819e-06
2.66773e-06
1.14938e-06
1.76805e-06
1.76842e-06
1.76773e-06
1.76801e-06
2.66862e-06
1.66576e-07
1.66574e-07
1.64466e-07
7.93905e-08
7.99323e-08
3.15733e-07
1.66581e-07
1.66541e-07
1.6447e-07
1.64431e-07
7.93865e-08
7.99278e-08
1.66636e-07
1.66604e-07
1.64489e-07
7.94079e-08
7.99507e-08
3.15818e-07
1.66624e-07
1.66602e-07
1.6451e-07
1.6449e-07
7.9406e-08
7.99486e-08
1.41081e-06
2.36148e-06
1.27327e-06
2.10319e-06
1.41065e-06
2.36235e-06
1.27397e-06
1.61808e-06
2.03204e-06
3.47474e-06
2.85985e-06
2.03186e-06
2.85963e-06
1.61578e-06
1.4157e-06
2.10581e-06
2.36574e-06
1.27935e-06
2.36485e-06
1.27862e-06
1.41583e-06
1.41098e-06
2.36177e-06
1.27333e-06
2.10321e-06
1.41083e-06
2.36262e-06
1.27407e-06
1.61727e-06
2.0328e-06
3.47487e-06
2.86053e-06
2.86038e-06
2.03186e-06
1.61753e-06
1.61295e-06
2.8574e-06
2.0278e-06
3.47265e-06
1.61251e-06
2.85761e-06
2.02869e-06
1.41592e-06
2.10593e-06
2.36598e-06
1.2794e-06
2.36512e-06
1.27867e-06
1.41596e-06
2.66533e-06
1.14332e-06
1.76371e-06
1.76357e-06
1.76401e-06
2.66436e-06
1.7639e-06
1.61706e-06
2.03258e-06
3.47497e-06
2.86081e-06
2.03206e-06
2.8602e-06
1.61734e-06
1.4157e-06
2.10601e-06
2.366e-06
1.2796e-06
2.36509e-06
1.27887e-06
1.41574e-06
1.61816e-06
2.03253e-06
3.47523e-06
2.86004e-06
2.85989e-06
2.03211e-06
1.61588e-06
1.41651e-06
2.10594e-06
1.27963e-06
2.36582e-06
1.27902e-06
2.36493e-06
1.41537e-06
1.40972e-06
2.36179e-06
1.27415e-06
2.10331e-06
1.41229e-06
2.36258e-06
1.27318e-06
1.61718e-06
2.03225e-06
3.47422e-06
2.86026e-06
2.03167e-06
2.86004e-06
1.6174e-06
1.61284e-06
2.85702e-06
2.0273e-06
3.47207e-06
1.61244e-06
2.02839e-06
2.85761e-06
1.41735e-06
2.10604e-06
2.36595e-06
1.27816e-06
2.36519e-06
1.27975e-06
1.41472e-06
1.41093e-06
1.27388e-06
2.36163e-06
2.10326e-06
1.41076e-06
1.27343e-06
2.36246e-06
1.6171e-06
2.03209e-06
3.47484e-06
2.86036e-06
2.85978e-06
2.03189e-06
1.61738e-06
1.61279e-06
2.85688e-06
2.02767e-06
3.47177e-06
1.61235e-06
2.85712e-06
2.02804e-06
1.41583e-06
2.10597e-06
1.27831e-06
2.36582e-06
1.27955e-06
2.36498e-06
1.41598e-06
1.40972e-06
1.27451e-06
2.3617e-06
2.10328e-06
1.41241e-06
1.27316e-06
2.36245e-06
1.61822e-06
2.03239e-06
3.47451e-06
2.86032e-06
2.03178e-06
2.8597e-06
1.61591e-06
1.61149e-06
2.85705e-06
1.41739e-06
2.10607e-06
1.27822e-06
2.36583e-06
1.27983e-06
2.36506e-06
1.4148e-06
1.4097e-06
1.27423e-06
2.36184e-06
2.10331e-06
1.41234e-06
1.27312e-06
2.36257e-06
1.61861e-06
2.03241e-06
3.47506e-06
2.86039e-06
2.86019e-06
2.03245e-06
1.61608e-06
1.6119e-06
2.85714e-06
2.02831e-06
3.47273e-06
1.6137e-06
2.85773e-06
2.02824e-06
1.41733e-06
2.10607e-06
1.27821e-06
2.36591e-06
1.27981e-06
2.36522e-06
1.41474e-06
2.6654e-06
1.14343e-06
1.76356e-06
1.76377e-06
2.66446e-06
1.76354e-06
1.76409e-06
6.51814e-07
1.18282e-06
1.18289e-06
1.4152e-06
1.41811e-06
1.41515e-06
1.41585e-06
1.18289e-06
1.18292e-06
1.18521e-06
1.18524e-06
1.41507e-06
1.41583e-06
1.18281e-06
1.18294e-06
1.18513e-06
1.18526e-06
1.18296e-06
1.18515e-06
1.18528e-06
1.41517e-06
1.41591e-06
1.18286e-06
1.18522e-06
1.18519e-06
1.4159e-06
1.186e-06
1.18591e-06
4.23628e-06
9.54926e-06
9.55406e-06
4.23569e-06
1.90609e-05
1.90714e-05
4.23644e-06
9.55107e-06
9.55612e-06
4.23581e-06
6.51826e-07
6.51922e-07
6.5191e-07
6.56472e-07
6.56484e-07
6.5658e-07
6.5657e-07
2.29399e-06
3.64444e-06
9.29831e-07
1.18362e-06
3.64488e-06
9.30937e-07
2.29372e-06
1.90618e-05
1.90724e-05
2.29396e-06
9.29891e-07
3.64446e-06
1.1837e-06
9.30998e-07
3.64495e-06
2.29369e-06
5.64515e-06
5.64708e-06
1.41445e-06
5.64624e-06
5.64819e-06
5.64951e-06
5.65145e-06
1.90593e-05
1.90698e-05
1.90618e-05
1.90723e-05
5.64504e-06
5.64695e-06
1.4144e-06
5.64617e-06
5.64806e-06
1.90808e-05
1.90705e-05
1.90833e-05
1.90729e-05
1.41666e-06
5.64833e-06
5.65024e-06
5.64726e-06
5.64917e-06
4.23638e-06
9.55023e-06
9.55541e-06
4.23579e-06
2.2939e-06
3.64422e-06
9.29761e-07
1.18369e-06
3.64472e-06
9.3087e-07
2.29358e-06
2.29396e-06
3.64475e-06
9.29801e-07
1.18372e-06
3.64524e-06
9.30908e-07
2.29364e-06
4.23702e-06
9.55985e-06
9.55512e-06
4.23757e-06
4.23712e-06
9.56119e-06
9.5561e-06
4.23768e-06
2.29443e-06
1.18448e-06
3.64597e-06
9.32981e-07
3.64553e-06
9.31957e-07
2.29469e-06
2.29448e-06
1.18451e-06
3.6465e-06
9.3302e-07
3.64606e-06
9.31996e-07
2.29475e-06
5.64685e-06
5.64521e-06
1.41439e-06
5.64793e-06
5.64616e-06
1.90586e-05
1.90692e-05
1.90824e-05
1.9072e-05
1.41658e-06
5.65011e-06
5.64834e-06
5.64907e-06
5.64742e-06
1.90802e-05
1.90698e-05
2.29404e-06
3.645e-06
9.29827e-07
1.1836e-06
3.64544e-06
9.30954e-07
2.29376e-06
4.23635e-06
9.55065e-06
9.55542e-06
4.2357e-06
2.29395e-06
9.29853e-07
3.64484e-06
1.18374e-06
9.3096e-07
3.64526e-06
2.29368e-06
4.23715e-06
9.56188e-06
9.55716e-06
4.23774e-06
2.2946e-06
1.1844e-06
3.6467e-06
9.33067e-07
3.64631e-06
9.32022e-07
2.29483e-06
4.23704e-06
9.56128e-06
9.5565e-06
4.23764e-06
2.29452e-06
1.18453e-06
9.33071e-07
3.64652e-06
9.32048e-07
3.64614e-06
2.29474e-06
4.23644e-06
9.55045e-06
9.55521e-06
4.23588e-06
2.29395e-06
9.2985e-07
3.64433e-06
1.18375e-06
9.30954e-07
3.64482e-06
2.29362e-06
4.23635e-06
9.55013e-06
9.5553e-06
4.23577e-06
2.29456e-06
1.18441e-06
3.64614e-06
9.33047e-07
3.64575e-06
9.32025e-07
2.29477e-06
4.23721e-06
9.56108e-06
9.5563e-06
4.23773e-06
2.29446e-06
1.18455e-06
9.33064e-07
3.64607e-06
9.32045e-07
3.64563e-06
2.29473e-06
4.2371e-06
9.56108e-06
9.55599e-06
4.23763e-06
5.647e-06
5.64519e-06
1.41446e-06
5.64794e-06
5.6463e-06
1.90606e-05
1.9071e-05
1.90834e-05
1.9073e-05
1.41667e-06
5.65012e-06
5.64848e-06
5.64922e-06
5.64741e-06
1.90821e-05
1.90717e-05
2.29399e-06
9.29898e-07
3.64496e-06
1.18367e-06
9.31003e-07
3.64543e-06
2.29372e-06
4.23636e-06
9.55063e-06
9.55542e-06
4.2358e-06
4.2364e-06
9.55132e-06
9.55611e-06
4.23578e-06
2.29454e-06
1.18448e-06
9.33109e-07
3.64621e-06
9.32086e-07
3.64576e-06
2.29474e-06
2.29457e-06
1.18446e-06
9.33114e-07
3.64669e-06
9.32093e-07
3.64627e-06
2.29478e-06
4.23713e-06
9.56128e-06
9.55648e-06
4.23765e-06
4.23711e-06
9.5619e-06
9.55718e-06
4.23768e-06
1.90604e-05
1.90709e-05
1.90622e-05
1.90727e-05
1.41671e-06
5.64842e-06
5.65037e-06
5.64736e-06
5.64929e-06
1.90819e-05
1.90715e-05
1.90837e-05
1.90734e-05
9.34075e-07
3.64686e-06
2.29521e-06
9.56174e-06
4.23836e-06
3.6475e-06
9.56295e-06
1.90825e-05
1.90844e-05
1.26397e-05
1.12331e-05
4.88159e-06
4.23636e-06
1.12301e-05
4.8817e-06
1.26434e-05
2.27379e-05
9.55115e-06
7.23777e-06
7.23741e-06
2.27308e-05
2.27373e-05
7.23869e-06
9.55219e-06
7.23906e-06
2.27444e-05
1.26395e-05
4.23561e-06
1.12266e-05
4.88095e-06
1.12296e-05
4.88085e-06
1.26357e-05
1.90658e-05
1.90665e-05
1.26407e-05
4.8819e-06
1.12334e-05
4.23649e-06
4.88197e-06
1.12312e-05
1.26432e-05
2.27379e-05
9.55334e-06
7.23924e-06
7.23906e-06
2.2731e-05
2.27374e-05
7.24034e-06
9.55421e-06
7.24053e-06
2.27444e-05
1.26393e-05
4.23575e-06
4.88122e-06
1.12277e-05
4.88113e-06
1.12299e-05
1.26368e-05
1.90668e-05
1.90674e-05
9.95767e-06
2.23738e-05
2.2373e-05
2.23675e-05
2.23667e-05
9.95733e-06
4.70055e-06
2.97312e-06
5.64512e-06
9.91412e-06
2.97295e-06
9.91613e-06
4.70089e-06
4.70629e-06
2.97431e-06
5.64708e-06
9.91859e-06
2.97415e-06
9.92114e-06
4.70661e-06
4.7016e-06
9.91919e-06
5.64626e-06
2.97337e-06
2.97354e-06
9.91686e-06
4.70126e-06
4.70733e-06
9.92406e-06
5.64819e-06
2.97457e-06
2.97473e-06
9.92156e-06
4.707e-06
9.95553e-06
2.23617e-05
2.23609e-05
2.23679e-05
2.23671e-05
9.95585e-06
4.70328e-06
2.97468e-06
9.92543e-06
5.64948e-06
4.70365e-06
2.9745e-06
9.92804e-06
4.70901e-06
2.97588e-06
9.93021e-06
5.65143e-06
4.70937e-06
2.9757e-06
9.93279e-06
9.96266e-06
2.23848e-05
2.2384e-05
9.96302e-06
2.2391e-05
2.23902e-05
1.90642e-05
1.90649e-05
1.90667e-05
1.90674e-05
9.95759e-06
2.23739e-05
2.23732e-05
2.23677e-05
2.23669e-05
9.95726e-06
4.70053e-06
2.9731e-06
5.64506e-06
9.91392e-06
9.91645e-06
2.97295e-06
4.70085e-06
4.70626e-06
2.97427e-06
5.64695e-06
9.91879e-06
9.92134e-06
2.97411e-06
4.70657e-06
4.70157e-06
9.91939e-06
5.64616e-06
2.97336e-06
9.91689e-06
4.70124e-06
2.97352e-06
4.70729e-06
9.92427e-06
5.64806e-06
2.97453e-06
9.92177e-06
4.70697e-06
2.97469e-06
9.95545e-06
2.23618e-05
2.23611e-05
2.23681e-05
2.23673e-05
9.95577e-06
1.9076e-05
1.90753e-05
1.90785e-05
1.90778e-05
9.95905e-06
2.23735e-05
2.23727e-05
9.95939e-06
2.23797e-05
2.2379e-05
4.70296e-06
2.97413e-06
5.64835e-06
9.92504e-06
9.92289e-06
2.9743e-06
4.70261e-06
4.70867e-06
2.9753e-06
5.65026e-06
9.9301e-06
9.92758e-06
2.97548e-06
4.70833e-06
4.70193e-06
9.91984e-06
2.97392e-06
5.64726e-06
4.70227e-06
9.92224e-06
2.97376e-06
4.70766e-06
9.92472e-06
2.9751e-06
5.64916e-06
4.70799e-06
9.92717e-06
2.97492e-06
9.96118e-06
2.23854e-05
2.23847e-05
2.23792e-05
2.23785e-05
9.96083e-06
1.26399e-05
1.12332e-05
4.88188e-06
4.23646e-06
1.12302e-05
4.88195e-06
1.26435e-05
2.2738e-05
9.55249e-06
7.2393e-06
7.23911e-06
2.2731e-05
2.27375e-05
7.24039e-06
9.55318e-06
7.24059e-06
2.27444e-05
1.26397e-05
4.23571e-06
1.12268e-05
4.8812e-06
1.12297e-05
4.88113e-06
1.26359e-05
1.26473e-05
1.12336e-05
4.88243e-06
4.23693e-06
1.26435e-05
1.12366e-05
4.88231e-06
2.27501e-05
9.55802e-06
7.24121e-06
2.27571e-05
7.24159e-06
2.27508e-05
7.24033e-06
9.557e-06
2.27437e-05
7.23996e-06
1.26473e-05
4.23766e-06
1.12401e-05
4.88302e-06
1.26511e-05
1.12372e-05
4.88314e-06
1.26473e-05
1.12338e-05
4.88268e-06
4.23704e-06
1.26437e-05
1.12367e-05
4.8826e-06
2.27503e-05
9.55899e-06
7.24292e-06
7.24313e-06
2.27572e-05
2.27508e-05
7.24186e-06
9.5583e-06
2.27439e-05
7.24166e-06
1.26476e-05
4.23777e-06
1.12402e-05
4.88331e-06
1.12373e-05
4.8834e-06
1.2651e-05
9.9572e-06
2.23724e-05
2.23733e-05
2.23661e-05
2.2367e-05
9.95688e-06
4.70609e-06
2.97417e-06
5.64682e-06
9.91831e-06
9.92086e-06
2.97399e-06
4.70642e-06
4.70037e-06
2.97306e-06
5.64505e-06
9.91412e-06
2.97289e-06
9.91602e-06
4.7007e-06
4.70714e-06
9.92379e-06
5.64797e-06
2.97441e-06
9.92128e-06
2.97459e-06
4.70679e-06
4.70142e-06
9.91896e-06
5.64632e-06
2.9733e-06
2.97348e-06
9.91706e-06
4.70108e-06
9.95507e-06
2.23603e-05
2.23612e-05
2.23666e-05
2.23674e-05
9.95539e-06
1.90636e-05
1.90642e-05
1.90776e-05
1.90769e-05
9.95867e-06
2.2372e-05
2.23728e-05
9.95901e-06
2.23782e-05
2.23791e-05
4.70852e-06
2.97518e-06
5.65016e-06
9.92962e-06
2.97538e-06
9.92709e-06
4.70816e-06
4.7028e-06
2.97407e-06
5.64851e-06
9.92496e-06
9.92276e-06
2.97426e-06
4.70245e-06
4.70748e-06
9.92423e-06
2.97499e-06
5.64903e-06
2.9748e-06
4.70784e-06
9.92669e-06
4.70177e-06
9.92002e-06
2.97388e-06
5.64726e-06
4.70212e-06
9.92195e-06
2.9737e-06
9.96079e-06
2.2384e-05
2.23848e-05
2.23777e-05
2.23786e-05
9.96045e-06
1.90753e-05
1.90747e-05
1.26401e-05
1.12336e-05
4.88171e-06
4.23638e-06
1.12306e-05
4.88182e-06
1.26439e-05
2.27381e-05
9.55251e-06
7.23797e-06
7.23761e-06
2.2731e-05
2.27374e-05
7.23889e-06
9.55358e-06
7.23926e-06
2.27446e-05
1.264e-05
4.23567e-06
1.12272e-05
4.88108e-06
1.123e-05
4.88097e-06
1.26362e-05
1.2647e-05
4.88271e-06
1.12347e-05
4.23708e-06
1.26445e-05
4.88261e-06
1.1237e-05
2.27503e-05
9.56007e-06
7.24286e-06
2.27571e-05
7.24306e-06
2.27508e-05
7.2418e-06
9.55903e-06
2.27439e-05
7.24161e-06
1.26484e-05
4.23779e-06
4.88335e-06
1.12405e-05
1.26509e-05
4.88343e-06
1.12382e-05
1.26477e-05
1.12342e-05
4.88255e-06
4.237e-06
1.2644e-05
1.12371e-05
4.88244e-06
2.27502e-05
9.55938e-06
7.24142e-06
7.24179e-06
2.27573e-05
2.2751e-05
7.24053e-06
9.55838e-06
2.27439e-05
7.24016e-06
1.26478e-05
4.23768e-06
1.12406e-05
4.88315e-06
1.12377e-05
4.88326e-06
1.26515e-05
1.26403e-05
4.88177e-06
1.12332e-05
4.23655e-06
4.88186e-06
1.1231e-05
1.26428e-05
2.27371e-05
9.55231e-06
7.23885e-06
7.23866e-06
2.27302e-05
2.27366e-05
7.23994e-06
9.55337e-06
7.24013e-06
2.27435e-05
1.2639e-05
4.23577e-06
4.88112e-06
1.12275e-05
4.88103e-06
1.12297e-05
1.26364e-05
1.26401e-05
1.12331e-05
4.88158e-06
4.23644e-06
1.12308e-05
4.88163e-06
1.26437e-05
2.27377e-05
9.55239e-06
7.23739e-06
7.2372e-06
2.27307e-05
2.27372e-05
7.23848e-06
9.55308e-06
7.23868e-06
2.27441e-05
1.26399e-05
4.23568e-06
1.12273e-05
4.88089e-06
1.12296e-05
4.88085e-06
1.26362e-05
1.26466e-05
4.88259e-06
1.12345e-05
4.23709e-06
1.26441e-05
4.88249e-06
1.12367e-05
2.27494e-05
9.55917e-06
7.24246e-06
7.24266e-06
2.27563e-05
2.27499e-05
7.2414e-06
9.55817e-06
2.2743e-05
7.24121e-06
1.2648e-05
4.23785e-06
4.8832e-06
1.12402e-05
4.8833e-06
1.1238e-05
1.26505e-05
1.26476e-05
1.12343e-05
4.88236e-06
4.237e-06
1.26439e-05
1.12366e-05
4.8823e-06
2.275e-05
9.55887e-06
7.24099e-06
7.2412e-06
2.27568e-05
2.27505e-05
7.23995e-06
9.55819e-06
2.27436e-05
7.23974e-06
1.26477e-05
4.23774e-06
1.12401e-05
4.88301e-06
1.12378e-05
4.88307e-06
1.26514e-05
9.9581e-06
2.23736e-05
2.2374e-05
2.23673e-05
2.23678e-05
9.95776e-06
4.70643e-06
2.97428e-06
5.64683e-06
9.91873e-06
9.92063e-06
2.97408e-06
4.70679e-06
4.70073e-06
2.97322e-06
5.64519e-06
9.9139e-06
2.97306e-06
9.91646e-06
4.70108e-06
4.7075e-06
9.92356e-06
5.64811e-06
2.9745e-06
9.92168e-06
2.9747e-06
4.70714e-06
4.7018e-06
9.9194e-06
5.6463e-06
2.97347e-06
2.97364e-06
9.91688e-06
4.70144e-06
9.95595e-06
2.23615e-05
2.23619e-05
2.23677e-05
2.23682e-05
9.95628e-06
1.90655e-05
1.90662e-05
1.90785e-05
1.90779e-05
9.95956e-06
2.23731e-05
2.23736e-05
9.9599e-06
2.23794e-05
2.23798e-05
4.70888e-06
2.97527e-06
5.6503e-06
9.92937e-06
2.97548e-06
9.92754e-06
4.7085e-06
4.70318e-06
2.97424e-06
5.64849e-06
9.92523e-06
9.92269e-06
2.97442e-06
4.70281e-06
4.70783e-06
9.92464e-06
2.9751e-06
5.64904e-06
2.97489e-06
4.7082e-06
9.92654e-06
4.70213e-06
9.91982e-06
2.97404e-06
5.64739e-06
4.7025e-06
9.9223e-06
2.97387e-06
9.96168e-06
2.23851e-05
2.23856e-05
2.23789e-05
2.23794e-05
9.96133e-06
1.90773e-05
1.90766e-05
1.26405e-05
4.88161e-06
1.12331e-05
4.23648e-06
4.88176e-06
1.12309e-05
1.2643e-05
2.2738e-05
9.55252e-06
7.23757e-06
7.23739e-06
2.27311e-05
2.27376e-05
7.23867e-06
9.55356e-06
7.23885e-06
2.27445e-05
1.26392e-05
4.23567e-06
4.88102e-06
1.12274e-05
4.88085e-06
1.12296e-05
1.26367e-05
1.26395e-05
4.88182e-06
1.12332e-05
4.23645e-06
4.88195e-06
1.12309e-05
1.26432e-05
2.27372e-05
9.5532e-06
7.23931e-06
7.23891e-06
2.273e-05
2.27365e-05
7.24019e-06
9.55425e-06
7.24059e-06
2.27436e-05
1.26394e-05
4.23573e-06
4.88121e-06
1.12274e-05
4.88108e-06
1.12297e-05
1.26356e-05
1.26469e-05
4.88249e-06
1.12344e-05
4.237e-06
1.26443e-05
4.88232e-06
1.12366e-05
2.27503e-05
9.55937e-06
7.24119e-06
7.24139e-06
2.27572e-05
2.27509e-05
7.24013e-06
9.55838e-06
2.2744e-05
7.23994e-06
1.26482e-05
4.23778e-06
4.88305e-06
1.12401e-05
4.88321e-06
1.12379e-05
1.2651e-05
1.26471e-05
4.88268e-06
1.12344e-05
4.23705e-06
1.26433e-05
4.88254e-06
1.12367e-05
2.27492e-05
9.56008e-06
7.24271e-06
7.24312e-06
2.27564e-05
2.275e-05
7.24186e-06
9.55905e-06
2.27429e-05
7.24146e-06
1.26472e-05
4.23775e-06
4.88325e-06
1.12402e-05
4.88339e-06
1.12379e-05
1.26508e-05
1.90653e-05
1.9066e-05
1.90671e-05
1.90678e-05
9.95912e-06
2.23733e-05
2.23725e-05
9.95947e-06
2.23796e-05
2.23787e-05
4.70299e-06
2.97414e-06
5.64845e-06
9.92508e-06
4.70262e-06
2.97432e-06
9.9226e-06
4.70871e-06
2.97534e-06
5.65038e-06
9.92983e-06
4.70836e-06
2.97551e-06
9.92738e-06
4.70195e-06
9.91969e-06
2.97394e-06
5.64733e-06
4.7023e-06
2.97376e-06
9.92218e-06
4.70769e-06
9.92452e-06
2.97513e-06
5.64928e-06
4.70803e-06
2.97496e-06
9.92695e-06
9.96125e-06
2.23853e-05
2.23845e-05
9.9609e-06
2.23791e-05
2.23783e-05
1.90771e-05
1.90764e-05
1.90789e-05
1.90782e-05
2.27631e-05
7.24245e-06
9.56395e-06
2.27563e-05
7.24223e-06
1.26552e-05
4.23825e-06
1.12414e-05
4.88377e-06
1.26515e-05
1.12435e-05
4.88371e-06
9.5647e-06
1.90874e-05
1.90892e-05
4.41712e-07
4.41674e-07
6.53399e-07
4.436e-07
4.43566e-07
2.35582e-07
2.33652e-07
2.82688e-06
1.96715e-06
1.96741e-06
1.41368e-06
1.96647e-06
1.9667e-06
2.82719e-06
2.82819e-06
1.96867e-06
1.96891e-06
1.41656e-06
2.82852e-06
1.96796e-06
1.96818e-06
2.82688e-06
1.96715e-06
1.96738e-06
1.41364e-06
1.96645e-06
1.96668e-06
2.8272e-06
2.82822e-06
1.41738e-06
1.9676e-06
1.96783e-06
1.96832e-06
1.96855e-06
2.82789e-06
2.82679e-06
1.96726e-06
1.96715e-06
1.41362e-06
1.96646e-06
1.96657e-06
2.82711e-06
2.82813e-06
1.4173e-06
1.96772e-06
1.96761e-06
1.96843e-06
1.96832e-06
2.8278e-06
2.82694e-06
1.96732e-06
1.96723e-06
1.41369e-06
1.96655e-06
1.96662e-06
2.82725e-06
2.82827e-06
1.41738e-06
1.96777e-06
1.9677e-06
1.96848e-06
1.96839e-06
2.82795e-06
2.82822e-06
1.41743e-06
1.96762e-06
1.96785e-06
2.82789e-06
1.96832e-06
1.96857e-06
4.41722e-07
4.41676e-07
6.53411e-07
4.43609e-07
4.43564e-07
2.35582e-07
2.33652e-07
4.41804e-07
4.41767e-07
6.53507e-07
4.43692e-07
4.43654e-07
2.3565e-07
2.3372e-07
4.41797e-07
4.41759e-07
6.53496e-07
4.43688e-07
4.43646e-07
2.35647e-07
2.33716e-07
6.54965e-07
4.47287e-07
4.47253e-07
4.4547e-07
4.45432e-07
2.37509e-07
2.39412e-07
6.54977e-07
4.47296e-07
4.47251e-07
4.4548e-07
4.45434e-07
2.3751e-07
2.39412e-07
6.55073e-07
4.47379e-07
4.47341e-07
4.45562e-07
4.45524e-07
2.37578e-07
2.39481e-07
6.5506e-07
4.47375e-07
4.47333e-07
4.45554e-07
4.45516e-07
2.37574e-07
2.39478e-07
1.66437e-06
2.53952e-06
1.54148e-06
2.29415e-06
2.53974e-06
1.5424e-06
1.66291e-06
1.84144e-06
2.22235e-06
3.64422e-06
3.02093e-06
2.22186e-06
3.02055e-06
1.84269e-06
1.84323e-06
3.02102e-06
3.6451e-06
2.22222e-06
2.22271e-06
3.02141e-06
1.84191e-06
1.66246e-06
2.29356e-06
2.53935e-06
1.54181e-06
2.53912e-06
1.54091e-06
1.66386e-06
1.66441e-06
1.54146e-06
2.53937e-06
2.29413e-06
1.54242e-06
2.53959e-06
1.66273e-06
1.84134e-06
2.22241e-06
3.64429e-06
3.02058e-06
2.22192e-06
3.02021e-06
1.84265e-06
1.84322e-06
3.02068e-06
3.64512e-06
2.22228e-06
2.22278e-06
3.02106e-06
1.8418e-06
1.66234e-06
2.29351e-06
1.54184e-06
2.53918e-06
1.54089e-06
2.53895e-06
1.66384e-06
2.82755e-06
1.41597e-06
1.96688e-06
1.96711e-06
1.96757e-06
1.96782e-06
2.82724e-06
2.82756e-06
1.41592e-06
1.96686e-06
1.96709e-06
2.82724e-06
1.96756e-06
1.9678e-06
2.82758e-06
1.41514e-06
1.96795e-06
1.96819e-06
2.8279e-06
1.96724e-06
1.96747e-06
1.66415e-06
2.53932e-06
1.54145e-06
2.29402e-06
2.53951e-06
1.54229e-06
1.663e-06
1.84139e-06
2.2223e-06
3.64406e-06
3.0205e-06
3.02016e-06
2.22184e-06
1.84246e-06
1.84297e-06
3.02064e-06
3.64488e-06
2.22219e-06
3.02097e-06
2.22266e-06
1.84193e-06
1.66248e-06
2.29348e-06
2.53911e-06
1.54171e-06
2.53892e-06
1.54087e-06
1.66365e-06
1.66437e-06
2.53956e-06
1.54147e-06
2.29407e-06
2.53978e-06
1.54234e-06
1.66292e-06
1.84152e-06
2.22266e-06
3.64458e-06
3.0211e-06
3.02073e-06
2.22216e-06
1.84277e-06
1.8433e-06
3.0212e-06
3.64542e-06
2.22252e-06
3.02158e-06
1.842e-06
2.22302e-06
1.66245e-06
2.29353e-06
2.53938e-06
1.54176e-06
2.53917e-06
1.5409e-06
1.66386e-06
1.66345e-06
2.53989e-06
1.54284e-06
2.29431e-06
1.66462e-06
2.53968e-06
1.54199e-06
1.84392e-06
2.22284e-06
3.64615e-06
3.02153e-06
2.22333e-06
3.02187e-06
1.84297e-06
1.84246e-06
3.02143e-06
2.22301e-06
3.64536e-06
2.22253e-06
1.84346e-06
3.02109e-06
1.66505e-06
2.29482e-06
2.54005e-06
1.54251e-06
2.54025e-06
1.54337e-06
1.66391e-06
1.66329e-06
2.54016e-06
1.54289e-06
2.29436e-06
1.6649e-06
2.53994e-06
1.54201e-06
1.84441e-06
2.22316e-06
3.64669e-06
3.0221e-06
3.02249e-06
2.22368e-06
1.8428e-06
1.84242e-06
3.02204e-06
2.22336e-06
3.64587e-06
1.84384e-06
3.02166e-06
2.22285e-06
1.6655e-06
2.29488e-06
2.5403e-06
1.54253e-06
2.54052e-06
1.54342e-06
1.66362e-06
2.82747e-06
1.41584e-06
1.96698e-06
1.96687e-06
1.96756e-06
1.96768e-06
2.82714e-06
2.82748e-06
1.41512e-06
1.96807e-06
1.96795e-06
1.96736e-06
2.82781e-06
1.96725e-06
1.66447e-06
2.5396e-06
1.54151e-06
2.2942e-06
2.5398e-06
1.54245e-06
1.66288e-06
1.84151e-06
2.22274e-06
3.64478e-06
3.02112e-06
3.02074e-06
2.22224e-06
1.8428e-06
1.84335e-06
3.02122e-06
3.64567e-06
2.22261e-06
3.02161e-06
2.2231e-06
1.84198e-06
1.66246e-06
2.29359e-06
2.53939e-06
1.54187e-06
2.53917e-06
1.54092e-06
1.66392e-06
1.66425e-06
1.54146e-06
2.53939e-06
2.29411e-06
1.54239e-06
2.53959e-06
1.66295e-06
1.84145e-06
2.22261e-06
3.64461e-06
3.02063e-06
3.02028e-06
2.22213e-06
1.84255e-06
1.84306e-06
3.02075e-06
3.6455e-06
2.22249e-06
3.02111e-06
1.84199e-06
2.22298e-06
1.66241e-06
2.29352e-06
1.54181e-06
2.53919e-06
1.54088e-06
2.53899e-06
1.66375e-06
1.66322e-06
2.54018e-06
1.54301e-06
2.29442e-06
1.66508e-06
2.53995e-06
1.54204e-06
1.84452e-06
2.22325e-06
3.64694e-06
3.02211e-06
2.22376e-06
3.02251e-06
1.84284e-06
1.84239e-06
3.02207e-06
2.22344e-06
3.64608e-06
2.22294e-06
1.84392e-06
3.02167e-06
1.66574e-06
2.29499e-06
2.54034e-06
1.54257e-06
2.54055e-06
1.54354e-06
1.66368e-06
1.66348e-06
1.54295e-06
2.53997e-06
2.29436e-06
1.66471e-06
1.54201e-06
2.53976e-06
1.84401e-06
2.22312e-06
3.64677e-06
3.02165e-06
3.02201e-06
2.22364e-06
1.84302e-06
1.84252e-06
3.02156e-06
2.22332e-06
3.6459e-06
1.84355e-06
3.02121e-06
2.22281e-06
1.66514e-06
2.29491e-06
1.54253e-06
2.54012e-06
1.54347e-06
2.54033e-06
1.66395e-06
1.66421e-06
1.5415e-06
2.53936e-06
2.29405e-06
1.54234e-06
2.53957e-06
1.66305e-06
1.84143e-06
2.22232e-06
3.64416e-06
3.02053e-06
2.22186e-06
3.02018e-06
1.8425e-06
1.84302e-06
3.02065e-06
3.64499e-06
2.22221e-06
2.22269e-06
3.02101e-06
1.84198e-06
1.66254e-06
2.29352e-06
1.54176e-06
2.53917e-06
1.54092e-06
2.53897e-06
1.6637e-06
1.66327e-06
2.54012e-06
1.54296e-06
2.29439e-06
1.6649e-06
2.53989e-06
1.54202e-06
1.84438e-06
2.22286e-06
3.64637e-06
3.0219e-06
1.84271e-06
2.22338e-06
3.02231e-06
1.84232e-06
3.02187e-06
2.22305e-06
3.64552e-06
1.84378e-06
2.22255e-06
3.02147e-06
1.66552e-06
2.29495e-06
2.54024e-06
1.54253e-06
1.66359e-06
2.54048e-06
1.54349e-06
1.66348e-06
1.54288e-06
2.53995e-06
2.29435e-06
1.66468e-06
1.54203e-06
2.53973e-06
1.84397e-06
2.22286e-06
3.64626e-06
3.02154e-06
3.02191e-06
2.22336e-06
1.84297e-06
1.84251e-06
3.02147e-06
2.22303e-06
3.64545e-06
1.8435e-06
3.0211e-06
2.22255e-06
1.66513e-06
2.29485e-06
1.54255e-06
2.54009e-06
1.54341e-06
2.54031e-06
1.66393e-06
2.82761e-06
1.41594e-06
1.96703e-06
1.96695e-06
1.96764e-06
1.96772e-06
2.8273e-06
2.82763e-06
1.4152e-06
1.96811e-06
1.96803e-06
1.96741e-06
2.82795e-06
1.96734e-06
1.66436e-06
1.5415e-06
2.53955e-06
2.29416e-06
1.54243e-06
2.53976e-06
1.66304e-06
1.84161e-06
2.22274e-06
3.64478e-06
3.02107e-06
2.22226e-06
3.02069e-06
1.84271e-06
1.84322e-06
3.02117e-06
3.64562e-06
2.22262e-06
2.22311e-06
3.02155e-06
1.84215e-06
1.66251e-06
2.29357e-06
1.54185e-06
2.53936e-06
1.54092e-06
2.53915e-06
1.66386e-06
1.66308e-06
1.54298e-06
2.53997e-06
2.29434e-06
1.66504e-06
1.54201e-06
2.53972e-06
1.84445e-06
2.22293e-06
3.64639e-06
3.02158e-06
1.8426e-06
2.22344e-06
3.02196e-06
1.84219e-06
3.02152e-06
2.22312e-06
3.64559e-06
1.8438e-06
2.22262e-06
3.02114e-06
1.66571e-06
2.29492e-06
1.54253e-06
2.5401e-06
1.66351e-06
1.54351e-06
2.54033e-06
1.66357e-06
1.54299e-06
2.54014e-06
2.2944e-06
1.66483e-06
1.54205e-06
2.53992e-06
1.84417e-06
2.22327e-06
3.64689e-06
3.02207e-06
3.02245e-06
2.22378e-06
1.84319e-06
1.84267e-06
3.02201e-06
2.22345e-06
3.64607e-06
1.84371e-06
3.02162e-06
2.22295e-06
1.66525e-06
2.29495e-06
1.54257e-06
2.54028e-06
1.54351e-06
2.5405e-06
1.66407e-06
2.82757e-06
1.41519e-06
1.96796e-06
1.96821e-06
2.82789e-06
1.96726e-06
1.96749e-06
1.84337e-06
2.22366e-06
3.02233e-06
3.64667e-06
2.22315e-06
1.84444e-06
3.02196e-06
1.66432e-06
2.29509e-06
1.54391e-06
2.54065e-06
1.54305e-06
1.66559e-06
2.54041e-06
2.22408e-06
3.64729e-06
2.22356e-06
3.23646e-07
8.68825e-07
8.68952e-07
1.15438e-06
3.39681e-07
8.92258e-07
8.92384e-07
1.17355e-06
3.55959e-07
9.14704e-07
9.14827e-07
1.19188e-06
3.72402e-07
9.36149e-07
9.3626e-07
1.20938e-06
3.88928e-07
9.56575e-07
9.56684e-07
1.22602e-06
4.05456e-07
9.76005e-07
9.76108e-07
1.24183e-06
4.21909e-07
9.94445e-07
9.94546e-07
1.25682e-06
4.38211e-07
1.0119e-06
1.012e-06
1.27102e-06
4.54289e-07
1.02838e-06
1.02849e-06
1.28444e-06
4.70077e-07
1.04391e-06
1.04402e-06
1.29711e-06
4.85513e-07
1.05851e-06
1.05862e-06
1.30905e-06
5.00545e-07
1.07221e-06
1.07231e-06
1.32031e-06
5.15127e-07
1.08502e-06
1.08512e-06
1.3309e-06
5.29216e-07
1.09698e-06
1.09707e-06
1.34082e-06
5.42777e-07
1.10811e-06
1.1082e-06
1.35012e-06
5.55781e-07
1.11844e-06
1.11852e-06
1.35879e-06
5.682e-07
1.12799e-06
1.12807e-06
1.36688e-06
5.80014e-07
1.13679e-06
1.13686e-06
1.37438e-06
5.91209e-07
1.14485e-06
1.14492e-06
1.3813e-06
6.01776e-07
1.15221e-06
1.15228e-06
1.38767e-06
6.11707e-07
1.15889e-06
1.15896e-06
1.39349e-06
6.20999e-07
1.16491e-06
1.16498e-06
1.39881e-06
6.29652e-07
1.17029e-06