/*--------------------------------*- C++ -*----------------------------------*\
| =========                 |                                                 |
| \\      /  F ield         | OpenFOAM: The Open Source CFD Toolbox           |
|  \\    /   O peration     | Version:  v1906                                 |
|   \\  /    A nd           | Web:      www.OpenFOAM.com                      |
|    \\/     M anipulation  |                                                 |
\*---------------------------------------------------------------------------*/
FoamFile
{
    version     2.0;
    format      ascii;
    class       volScalarField;
    location    "600";
    object      k;
}
// * * * * * * * * * * * * * * * * * * * * * * * * * * * * * * * * * * * * * //

dimensions      [0 2 -2 0 0 0 0];


internalField   nonuniform List<scalar> 
171728
(
4.17688e-05
3.6458e-05
3.64584e-05
4.17582e-05
3.64555e-05
3.64597e-05
3.64561e-05
3.64627e-05
4.17647e-05
3.6459e-05
3.64602e-05
4.17687e-05
2.08481e-05
2.08478e-05
2.08511e-05
2.08525e-05
6.95306e-05
6.95334e-05
6.68946e-05
6.69044e-05
6.46105e-05
7.13521e-05
6.47072e-05
6.46125e-05
7.13568e-05
7.13232e-05
6.47094e-05
5.3089e-05
6.01853e-05
2.88242e-05
2.8579e-05
5.3292e-05
5.30911e-05
3.62266e-05
6.01909e-05
2.88258e-05
6.00674e-05
2.85807e-05
5.32934e-05
6.95334e-05
6.95074e-05
4.15652e-05
6.69059e-05
6.68895e-05
6.68414e-05
6.68297e-05
6.95294e-05
6.95033e-05
7.13584e-05
6.47127e-05
6.01901e-05
2.88293e-05
5.32932e-05
7.1353e-05
6.47094e-05
2.883e-05
6.01839e-05
5.32934e-05
5.30941e-05
3.62242e-05
6.01842e-05
2.8826e-05
6.0066e-05
2.85812e-05
5.32945e-05
6.46143e-05
7.13555e-05
7.13219e-05
6.47096e-05
5.30934e-05
3.62307e-05
2.88297e-05
6.01872e-05
2.85847e-05
6.00655e-05
5.32942e-05
6.46128e-05
7.13534e-05
7.13195e-05
6.47085e-05
6.9532e-05
6.68971e-05
6.68943e-05
6.95317e-05
5.30936e-05
2.88313e-05
6.01882e-05
2.85862e-05
5.32937e-05
5.30941e-05
3.62283e-05
2.8832e-05
6.01917e-05
2.85871e-05
6.00687e-05
5.32951e-05
6.4612e-05
7.13549e-05
6.47121e-05
6.46149e-05
7.13575e-05
7.1324e-05
6.47117e-05
4.15708e-05
6.6894e-05
6.69065e-05
6.68335e-05
6.68432e-05
6.95316e-05
6.95057e-05
6.95343e-05
6.95084e-05
6.95181e-05
6.95209e-05
7.00283e-05
5.93319e-05
6.68774e-05
7.11348e-05
7.11199e-05
5.92674e-05
7.00685e-05
7.00887e-05
5.93256e-05
6.68855e-05
7.11447e-05
7.11304e-05
5.92857e-05
7.00985e-05
9.2341e-05
7.20366e-05
7.20299e-05
7.20225e-05
7.20161e-05
9.23483e-05
7.01242e-05
6.98214e-05
6.8118e-05
6.46485e-05
7.01142e-05
6.98301e-05
6.81503e-05
7.01836e-05
7.13367e-05
7.73849e-05
7.73657e-05
7.01981e-05
7.0127e-05
6.46691e-05
6.98437e-05
6.82008e-05
6.9835e-05
6.81663e-05
7.01374e-05
7.01267e-05
6.98222e-05
6.8126e-05
6.46506e-05
7.0117e-05
6.98309e-05
6.81579e-05
7.01869e-05
7.13439e-05
7.7408e-05
7.73874e-05
7.02009e-05
7.01911e-05
7.73583e-05
7.13363e-05
7.01771e-05
7.73787e-05
7.01301e-05
6.46708e-05
6.98445e-05
6.8207e-05
6.98358e-05
6.81761e-05
7.01396e-05
6.95209e-05
6.95198e-05
9.23151e-05
7.20057e-05
7.2011e-05
9.23034e-05
7.20196e-05
7.20249e-05
7.00852e-05
5.93318e-05
6.68866e-05
7.11453e-05
5.92812e-05
7.11307e-05
7.0106e-05
7.00336e-05
5.93214e-05
6.6875e-05
7.11355e-05
7.11173e-05
5.92725e-05
7.00548e-05
7.00406e-05
7.11072e-05
5.91825e-05
6.68612e-05
5.92336e-05
7.00195e-05
7.11221e-05
6.99894e-05
7.1094e-05
5.91736e-05
6.68446e-05
6.9968e-05
7.11119e-05
5.92232e-05
9.23387e-05
7.20307e-05
7.2036e-05
7.20167e-05
7.20221e-05
9.23476e-05
6.95168e-05
6.95159e-05
7.01868e-05
7.1343e-05
7.74065e-05
7.73854e-05
7.02009e-05
7.01293e-05
6.46719e-05
6.82077e-05
6.98484e-05
6.81749e-05
6.98353e-05
7.0142e-05
7.01839e-05
7.13389e-05
7.73844e-05
7.73652e-05
7.01985e-05
7.01281e-05
6.46705e-05
6.98475e-05
6.82006e-05
6.98344e-05
6.81674e-05
7.01383e-05
7.01263e-05
6.81254e-05
6.98226e-05
6.46516e-05
7.01166e-05
6.81574e-05
6.98312e-05
7.0186e-05
7.13426e-05
7.74043e-05
7.73855e-05
7.02e-05
7.01902e-05
7.73563e-05
7.1335e-05
7.01763e-05
7.73752e-05
7.01296e-05
6.46729e-05
6.82079e-05
6.98448e-05
6.81735e-05
6.98361e-05
7.01403e-05
7.01254e-05
6.98221e-05
6.81205e-05
6.46503e-05
7.01157e-05
6.98308e-05
6.81533e-05
7.01851e-05
7.13402e-05
7.7387e-05
7.7368e-05
7.01991e-05
7.01892e-05
7.73387e-05
7.13328e-05
7.01753e-05
7.73579e-05
7.01288e-05
6.46711e-05
6.98444e-05
6.82027e-05
6.98357e-05
6.81704e-05
7.01395e-05
6.95193e-05
7.00855e-05
5.93295e-05
6.6882e-05
7.11455e-05
5.92817e-05
7.11269e-05
7.01068e-05
7.00362e-05
5.93255e-05
6.68768e-05
7.11348e-05
7.11202e-05
5.92742e-05
7.00571e-05
9.23422e-05
7.20307e-05
7.20369e-05
7.20167e-05
7.2023e-05
9.2355e-05
6.95193e-05
7.01264e-05
6.81183e-05
6.9823e-05
6.46535e-05
7.01154e-05
6.81542e-05
6.98324e-05
7.01857e-05
7.13391e-05
7.73877e-05
7.73672e-05
7.01997e-05
7.01898e-05
7.73584e-05
7.01282e-05
6.4671e-05
6.82041e-05
6.98471e-05
6.81683e-05
6.98356e-05
7.01397e-05
7.01267e-05
6.81245e-05
6.98236e-05
6.4653e-05
7.01169e-05
6.81563e-05
6.98323e-05
7.01862e-05
7.13446e-05
7.74029e-05
7.73838e-05
7.02008e-05
7.0191e-05
7.73551e-05
7.13371e-05
7.01765e-05
7.73738e-05
7.01298e-05
6.46727e-05
6.82056e-05
6.98459e-05
6.81741e-05
6.98371e-05
7.01397e-05
9.23186e-05
7.20122e-05
7.20062e-05
9.23068e-05
7.20261e-05
7.202e-05
7.00351e-05
5.93244e-05
6.68787e-05
7.11368e-05
5.9274e-05
7.11184e-05
7.00563e-05
7.00875e-05
5.93354e-05
6.68882e-05
7.11461e-05
5.92835e-05
7.11314e-05
7.01086e-05
6.99909e-05
7.10951e-05
5.91751e-05
6.6849e-05
6.99693e-05
5.92263e-05
7.1113e-05
7.00432e-05
7.11078e-05
5.91847e-05
6.68618e-05
7.00219e-05
5.92374e-05
7.11229e-05
9.23422e-05
7.20372e-05
7.20311e-05
7.20233e-05
7.20173e-05
9.2351e-05
6.95192e-05
6.9518e-05
6.95219e-05
6.95208e-05
5.95187e-05
4.17731e-05
5.051e-05
5.05062e-05
5.04659e-05
5.04732e-05
5.95503e-05
5.9518e-05
4.17537e-05
5.04992e-05
5.04963e-05
5.0468e-05
5.04669e-05
5.9549e-05
5.9519e-05
4.17696e-05
5.04992e-05
5.05087e-05
5.04735e-05
5.04689e-05
5.95507e-05
5.95201e-05
4.1762e-05
5.05003e-05
5.05032e-05
5.04687e-05
5.04726e-05
5.95519e-05
1.49184e-05
1.49189e-05
1.48071e-05
1.07942e-05
1.08211e-05
2.06629e-05
1.49185e-05
1.49172e-05
1.48072e-05
1.48059e-05
1.07939e-05
1.08208e-05
1.49216e-05
1.49206e-05
1.48091e-05
1.07953e-05
1.08223e-05
2.06675e-05
1.49213e-05
1.49208e-05
1.48099e-05
1.48094e-05
1.07953e-05
1.08222e-05
4.55334e-05
5.54144e-05
4.35593e-05
5.317e-05
4.55352e-05
5.54858e-05
4.36063e-05
4.80424e-05
5.25108e-05
6.01377e-05
5.85109e-05
5.24759e-05
5.84522e-05
4.80853e-05
4.57083e-05
5.32116e-05
5.55977e-05
4.37944e-05
5.55242e-05
4.37417e-05
4.57265e-05
4.55409e-05
5.5421e-05
4.35632e-05
5.31717e-05
4.55408e-05
5.5491e-05
4.36075e-05
4.80597e-05
5.25238e-05
6.01419e-05
5.85195e-05
5.84614e-05
5.2483e-05
4.80716e-05
4.79218e-05
5.8368e-05
5.23533e-05
6.01164e-05
4.79066e-05
5.84269e-05
5.23854e-05
4.57123e-05
5.32135e-05
5.56005e-05
4.37942e-05
5.55333e-05
4.37433e-05
4.56993e-05
5.94452e-05
4.15903e-05
5.03194e-05
5.03173e-05
5.03609e-05
5.94119e-05
5.03591e-05
4.80604e-05
5.2514e-05
6.01433e-05
5.85186e-05
5.2488e-05
5.84617e-05
4.80718e-05
4.57156e-05
5.32186e-05
5.55997e-05
4.37767e-05
5.55355e-05
4.37612e-05
4.57027e-05
4.80564e-05
5.25145e-05
6.01414e-05
5.85105e-05
5.84522e-05
5.24829e-05
4.80689e-05
4.5711e-05
5.32142e-05
4.37762e-05
5.55978e-05
4.37603e-05
5.55264e-05
4.56987e-05
4.55348e-05
5.54201e-05
4.35772e-05
5.31729e-05
4.55272e-05
5.54904e-05
4.36031e-05
4.8053e-05
5.25228e-05
6.01407e-05
5.85177e-05
5.24746e-05
5.84592e-05
4.80856e-05
4.79193e-05
5.83657e-05
5.23441e-05
6.011e-05
4.79044e-05
5.23875e-05
5.8425e-05
4.56929e-05
5.32164e-05
5.56024e-05
4.37953e-05
5.55292e-05
4.3745e-05
4.57222e-05
4.55336e-05
4.35773e-05
5.54181e-05
5.31723e-05
4.55315e-05
4.35992e-05
5.54889e-05
4.8059e-05
5.25135e-05
6.01403e-05
5.85136e-05
5.84556e-05
5.24843e-05
4.80706e-05
4.79204e-05
5.83621e-05
5.23518e-05
6.01131e-05
4.79061e-05
5.8421e-05
5.23829e-05
4.57067e-05
5.32145e-05
4.37947e-05
5.55999e-05
4.37472e-05
5.55295e-05
4.57e-05
4.55464e-05
4.35656e-05
5.54161e-05
5.31738e-05
4.55203e-05
4.36105e-05
5.54901e-05
4.80504e-05
5.25109e-05
6.01396e-05
5.85134e-05
5.24813e-05
5.84547e-05
4.80662e-05
4.79298e-05
5.84207e-05
4.56912e-05
5.32173e-05
4.37737e-05
5.56009e-05
4.3753e-05
5.55273e-05
4.57046e-05
4.55438e-05
4.35706e-05
5.54201e-05
5.31736e-05
4.5544e-05
4.36091e-05
5.54919e-05
4.80613e-05
5.2522e-05
6.01434e-05
5.85183e-05
5.84608e-05
5.24865e-05
4.80719e-05
4.79227e-05
5.83673e-05
5.2355e-05
6.01175e-05
4.79081e-05
5.84258e-05
5.23876e-05
4.57127e-05
5.32163e-05
4.37951e-05
5.56017e-05
4.3745e-05
5.55323e-05
4.56988e-05
5.94473e-05
4.15978e-05
5.03198e-05
5.03241e-05
5.94134e-05
5.0361e-05
5.03648e-05
3.83832e-05
5.1108e-05
5.11087e-05
5.32894e-05
5.34862e-05
5.32887e-05
5.34407e-05
5.11054e-05
5.11062e-05
5.12916e-05
5.12922e-05
5.32985e-05
5.34303e-05
5.11056e-05
5.11052e-05
5.12916e-05
5.12913e-05
5.11079e-05
5.12941e-05
5.12939e-05
5.32884e-05
5.34305e-05
5.11078e-05
5.12948e-05
5.12938e-05
5.34416e-05
5.13539e-05
5.13538e-05
6.85089e-05
7.33539e-05
7.33803e-05
6.84826e-05
7.11149e-05
7.11409e-05
6.85143e-05
7.33605e-05
7.33855e-05
6.84857e-05
3.83842e-05
3.8387e-05
3.83874e-05
3.86987e-05
3.86997e-05
3.87025e-05
3.8703e-05
6.05228e-05
6.46918e-05
4.63268e-05
5.11712e-05
6.47227e-05
4.64065e-05
6.04742e-05
7.11132e-05
7.11396e-05
6.05215e-05
4.63282e-05
6.46927e-05
5.11719e-05
4.64079e-05
6.47241e-05
6.04728e-05
6.98616e-05
6.98732e-05
5.3344e-05
6.988e-05
6.98916e-05
6.9917e-05
6.99284e-05
7.11129e-05
7.11389e-05
7.11155e-05
7.11416e-05
6.98623e-05
6.98722e-05
5.33431e-05
6.98805e-05
6.98904e-05
7.11664e-05
7.11407e-05
7.1169e-05
7.11432e-05
5.33872e-05
6.99083e-05
6.99179e-05
6.98906e-05
6.99006e-05
6.85108e-05
7.33596e-05
7.33841e-05
6.84844e-05
6.05184e-05
6.46904e-05
4.63235e-05
5.11686e-05
6.47212e-05
4.64032e-05
6.04733e-05
6.05195e-05
6.46943e-05
4.63247e-05
5.11694e-05
6.47252e-05
4.64044e-05
6.04743e-05
6.85148e-05
7.34099e-05
7.33839e-05
6.85398e-05
6.85167e-05
7.34138e-05
7.33896e-05
6.85418e-05
6.05301e-05
5.12311e-05
6.47568e-05
4.65582e-05
6.47276e-05
4.6482e-05
6.05722e-05
6.05312e-05
5.12319e-05
6.4761e-05
4.65594e-05
6.47317e-05
4.64832e-05
6.05736e-05
6.98717e-05
6.98594e-05
5.3333e-05
6.98901e-05
6.98773e-05
7.11113e-05
7.11376e-05
7.11683e-05
7.11426e-05
5.33977e-05
6.99174e-05
6.99048e-05
6.99e-05
6.9888e-05
7.1165e-05
7.11391e-05
6.0523e-05
6.46947e-05
4.63255e-05
5.11687e-05
6.47257e-05
4.64053e-05
6.0474e-05
6.85119e-05
7.3354e-05
7.33804e-05
6.84831e-05
6.05207e-05
4.63256e-05
6.46893e-05
5.11684e-05
4.64052e-05
6.47195e-05
6.04719e-05
6.8518e-05
7.34156e-05
7.33894e-05
6.85455e-05
6.05309e-05
5.12314e-05
6.47612e-05
4.65603e-05
6.4732e-05
4.64841e-05
6.05771e-05
6.85156e-05
7.34098e-05
7.3384e-05
6.8543e-05
6.05287e-05
5.1231e-05
4.65602e-05
6.47552e-05
4.64841e-05
6.47265e-05
6.05749e-05
6.85127e-05
7.33581e-05
7.33845e-05
6.84846e-05
6.05199e-05
4.6327e-05
6.46908e-05
5.11711e-05
4.64066e-05
6.47214e-05
6.04749e-05
6.85102e-05
7.33561e-05
7.33806e-05
6.8484e-05
6.05309e-05
5.12338e-05
6.47585e-05
4.65614e-05
6.47291e-05
4.64853e-05
6.05769e-05
6.85167e-05
7.3414e-05
7.33881e-05
6.85437e-05
6.05314e-05
5.12336e-05
4.65615e-05
6.47571e-05
4.64854e-05
6.47281e-05
6.05736e-05
6.85161e-05
7.34102e-05
7.33861e-05
6.8541e-05
6.9865e-05
6.98627e-05
5.33365e-05
6.98842e-05
6.98812e-05
7.11139e-05
7.11399e-05
7.1167e-05
7.1141e-05
5.33955e-05
6.99114e-05
6.99087e-05
6.98932e-05
6.98911e-05
7.11674e-05
7.11416e-05
6.05223e-05
4.63283e-05
6.4696e-05
5.11709e-05
4.64079e-05
6.47266e-05
6.04736e-05
6.85105e-05
7.33563e-05
7.33827e-05
6.84825e-05
6.85128e-05
7.33591e-05
7.33855e-05
6.84847e-05
6.05297e-05
5.12344e-05
4.65628e-05
6.47599e-05
4.64867e-05
6.47301e-05
6.05754e-05
6.05304e-05
5.12335e-05
4.65628e-05
6.47623e-05
4.64868e-05
6.47332e-05
6.05763e-05
6.85148e-05
7.34122e-05
7.33863e-05
6.85413e-05
6.85169e-05
7.34151e-05
7.33892e-05
6.85437e-05
7.11131e-05
7.11391e-05
7.11159e-05
7.1142e-05
5.3388e-05
6.99075e-05
6.99191e-05
6.989e-05
6.99015e-05
7.11666e-05
7.11409e-05
7.11694e-05
7.11436e-05
4.66371e-05
6.47636e-05
6.05853e-05
7.34156e-05
6.85468e-05
6.47687e-05
7.34186e-05
7.11682e-05
7.1171e-05
7.17899e-05
7.15676e-05
7.15367e-05
6.8499e-05
7.15582e-05
7.15278e-05
7.17994e-05
7.16284e-05
7.33654e-05
7.96981e-05
7.97016e-05
7.16134e-05
7.1627e-05
7.97148e-05
7.3369e-05
7.97114e-05
7.16419e-05
7.17849e-05
6.84929e-05
7.15433e-05
7.15129e-05
7.15529e-05
7.15222e-05
7.17752e-05
7.1127e-05
7.11288e-05
7.17905e-05
7.1546e-05
7.15711e-05
6.85019e-05
7.15335e-05
7.15586e-05
7.18044e-05
7.16305e-05
7.33702e-05
7.97151e-05
7.97238e-05
7.16159e-05
7.16295e-05
7.97369e-05
7.33747e-05
7.97284e-05
7.1644e-05
7.17897e-05
6.84982e-05
7.15189e-05
7.15439e-05
7.15312e-05
7.15561e-05
7.17756e-05
7.11257e-05
7.11272e-05
9.49269e-05
7.34525e-05
7.34462e-05
7.34389e-05
7.34325e-05
9.49298e-05
7.40745e-05
6.51184e-05
6.98657e-05
7.31879e-05
6.51321e-05
7.32005e-05
7.40685e-05
7.41217e-05
6.51271e-05
6.98774e-05
7.32002e-05
6.51417e-05
7.32095e-05
7.41173e-05
7.40857e-05
7.3214e-05
6.9876e-05
6.51553e-05
6.51418e-05
7.32038e-05
7.40914e-05
7.41345e-05
7.32239e-05
6.98875e-05
6.51648e-05
6.51505e-05
7.32147e-05
7.41387e-05
9.49152e-05
7.34261e-05
7.34197e-05
7.34398e-05
7.34334e-05
9.49122e-05
7.41404e-05
6.52083e-05
7.32471e-05
6.99206e-05
7.41348e-05
6.52207e-05
7.32558e-05
7.41883e-05
6.52171e-05
7.32576e-05
6.99323e-05
7.41834e-05
6.52302e-05
7.32662e-05
9.49724e-05
7.34768e-05
7.34704e-05
9.49698e-05
7.34903e-05
7.34839e-05
7.11251e-05
7.11268e-05
7.11277e-05
7.11294e-05
9.49262e-05
7.34528e-05
7.34461e-05
7.34391e-05
7.34324e-05
9.49289e-05
7.40749e-05
6.5118e-05
6.98663e-05
7.31905e-05
7.31998e-05
6.51328e-05
7.40701e-05
7.41207e-05
6.51263e-05
6.98762e-05
7.31999e-05
7.32092e-05
6.51408e-05
7.4116e-05
7.40869e-05
7.32142e-05
6.98766e-05
6.51559e-05
7.32049e-05
7.40922e-05
6.51414e-05
7.41332e-05
7.32236e-05
6.98866e-05
6.51638e-05
7.32144e-05
7.41376e-05
6.51497e-05
9.49143e-05
7.34263e-05
7.34196e-05
7.344e-05
7.34333e-05
9.49114e-05
7.11544e-05
7.11527e-05
7.1157e-05
7.11553e-05
9.49434e-05
7.34518e-05
7.34451e-05
9.49407e-05
7.34654e-05
7.34587e-05
7.41198e-05
6.52001e-05
6.9904e-05
7.32437e-05
7.32332e-05
6.51864e-05
7.41252e-05
7.41661e-05
6.52078e-05
6.99142e-05
7.32523e-05
7.32432e-05
6.51946e-05
7.4171e-05
7.41091e-05
7.32195e-05
6.51642e-05
6.98945e-05
7.41036e-05
7.32289e-05
6.51783e-05
7.41545e-05
7.3229e-05
6.51725e-05
6.99044e-05
7.415e-05
7.32383e-05
6.51862e-05
9.4955e-05
7.3478e-05
7.34713e-05
7.34645e-05
7.34578e-05
9.49576e-05
7.17921e-05
7.15682e-05
7.15456e-05
6.85008e-05
7.15588e-05
7.15333e-05
7.18015e-05
7.16301e-05
7.33692e-05
7.97163e-05
7.9725e-05
7.16155e-05
7.16291e-05
7.97382e-05
7.33746e-05
7.97297e-05
7.16436e-05
7.1787e-05
6.84948e-05
7.15439e-05
7.15186e-05
7.15534e-05
7.15309e-05
7.17774e-05
7.18139e-05
7.15731e-05
7.15423e-05
6.85247e-05
7.18044e-05
7.15827e-05
7.15513e-05
7.16539e-05
7.33987e-05
7.97406e-05
7.16687e-05
7.97371e-05
7.16554e-05
7.97244e-05
7.33951e-05
7.16405e-05
7.97277e-05
7.18191e-05
6.85304e-05
7.15974e-05
7.15652e-05
7.18285e-05
7.1588e-05
7.15565e-05
7.1816e-05
7.15736e-05
7.15481e-05
6.85266e-05
7.18064e-05
7.15832e-05
7.15601e-05
7.1656e-05
7.34045e-05
7.97638e-05
7.97556e-05
7.16704e-05
7.16571e-05
7.97427e-05
7.33992e-05
7.16426e-05
7.97511e-05
7.18211e-05
6.85323e-05
7.1598e-05
7.15742e-05
7.15885e-05
7.15624e-05
7.18306e-05
9.49244e-05
7.3446e-05
7.34517e-05
7.34323e-05
7.3438e-05
9.49273e-05
7.41199e-05
6.51255e-05
6.98758e-05
7.31996e-05
7.32089e-05
6.51388e-05
7.4116e-05
7.40743e-05
6.51196e-05
6.98633e-05
7.31876e-05
6.51318e-05
7.32002e-05
7.40688e-05
7.41331e-05
7.32233e-05
6.9886e-05
6.51618e-05
7.32141e-05
6.51489e-05
7.4137e-05
7.40861e-05
7.32146e-05
6.9874e-05
6.51548e-05
6.51429e-05
7.32023e-05
7.40907e-05
9.49126e-05
7.34195e-05
7.34252e-05
7.34332e-05
7.3439e-05
9.49096e-05
7.11238e-05
7.11252e-05
7.11563e-05
7.11547e-05
9.49416e-05
7.3445e-05
7.34507e-05
9.4939e-05
7.34586e-05
7.34644e-05
7.41662e-05
6.5206e-05
6.99136e-05
7.3252e-05
6.51938e-05
7.32429e-05
7.41699e-05
7.41197e-05
6.51991e-05
6.99018e-05
7.32424e-05
7.32318e-05
6.51879e-05
7.41236e-05
7.41536e-05
7.32286e-05
6.51715e-05
6.99038e-05
6.51842e-05
7.41499e-05
7.32379e-05
7.41072e-05
7.32168e-05
6.51657e-05
6.98912e-05
7.41032e-05
7.32286e-05
6.51772e-05
9.49533e-05
7.34712e-05
7.3477e-05
7.34576e-05
7.34634e-05
9.49558e-05
7.11528e-05
7.11513e-05
7.17904e-05
7.15689e-05
7.15365e-05
6.84995e-05
7.15594e-05
7.15275e-05
7.17999e-05
7.16279e-05
7.33655e-05
7.96961e-05
7.97005e-05
7.16128e-05
7.16264e-05
7.97137e-05
7.33691e-05
7.97094e-05
7.16414e-05
7.17854e-05
6.84957e-05
7.15444e-05
7.15126e-05
7.1554e-05
7.15219e-05
7.17758e-05
7.18189e-05
7.15484e-05
7.15737e-05
6.85301e-05
7.18052e-05
7.15605e-05
7.1586e-05
7.16564e-05
7.34043e-05
7.97625e-05
7.16709e-05
7.97543e-05
7.16575e-05
7.97415e-05
7.34007e-05
7.1643e-05
7.97499e-05
7.18198e-05
6.85336e-05
7.15748e-05
7.1601e-05
7.18332e-05
7.15627e-05
7.15887e-05
7.18144e-05
7.15743e-05
7.1542e-05
6.85277e-05
7.18049e-05
7.15839e-05
7.15511e-05
7.16533e-05
7.33987e-05
7.97392e-05
7.97352e-05
7.16681e-05
7.16548e-05
7.97224e-05
7.33951e-05
7.16399e-05
7.97264e-05
7.18195e-05
6.85312e-05
7.15986e-05
7.1565e-05
7.15892e-05
7.15563e-05
7.18289e-05
7.17901e-05
7.15457e-05
7.15704e-05
6.85007e-05
7.15333e-05
7.15578e-05
7.18039e-05
7.16301e-05
7.33696e-05
7.97145e-05
7.97232e-05
7.16155e-05
7.1629e-05
7.97362e-05
7.33731e-05
7.97278e-05
7.16436e-05
7.17893e-05
6.84967e-05
7.15188e-05
7.15431e-05
7.15311e-05
7.15555e-05
7.17754e-05
7.17912e-05
7.15698e-05
7.15387e-05
6.85002e-05
7.1557e-05
7.15298e-05
7.18007e-05
7.16287e-05
7.33657e-05
7.96962e-05
7.97047e-05
7.16142e-05
7.16277e-05
7.97177e-05
7.33711e-05
7.97096e-05
7.16422e-05
7.17862e-05
6.84943e-05
7.15428e-05
7.1515e-05
7.15545e-05
7.15243e-05
7.17766e-05
7.18184e-05
7.15481e-05
7.15729e-05
6.85284e-05
7.18047e-05
7.15601e-05
7.15853e-05
7.16559e-05
7.34028e-05
7.97619e-05
7.97535e-05
7.16703e-05
7.1657e-05
7.97408e-05
7.33992e-05
7.16425e-05
7.97491e-05
7.18193e-05
6.85323e-05
7.15743e-05
7.16003e-05
7.15624e-05
7.15878e-05
7.18327e-05
7.18151e-05
7.15723e-05
7.15443e-05
6.85259e-05
7.18056e-05
7.15848e-05
7.15533e-05
7.16546e-05
7.3401e-05
7.97432e-05
7.97354e-05
7.1669e-05
7.16557e-05
7.97226e-05
7.33957e-05
7.16412e-05
7.97306e-05
7.18203e-05
6.85315e-05
7.15998e-05
7.15672e-05
7.15873e-05
7.15585e-05
7.18296e-05
9.49287e-05
7.34461e-05
7.34527e-05
7.34324e-05
7.3439e-05
9.49318e-05
7.41209e-05
6.51247e-05
6.987e-05
7.31962e-05
7.32089e-05
6.51361e-05
7.41151e-05
7.40763e-05
6.51201e-05
6.98669e-05
7.31904e-05
6.51344e-05
7.31998e-05
7.40707e-05
7.41323e-05
7.32233e-05
6.98793e-05
6.51591e-05
7.32108e-05
6.5148e-05
7.41378e-05
7.40879e-05
7.32142e-05
6.98771e-05
6.51575e-05
6.51434e-05
7.32049e-05
7.40933e-05
9.49172e-05
7.34196e-05
7.34262e-05
7.34334e-05
7.344e-05
9.4914e-05
7.11261e-05
7.11278e-05
7.11547e-05
7.11534e-05
9.49462e-05
7.34451e-05
7.34517e-05
9.49433e-05
7.34588e-05
7.34654e-05
7.41653e-05
6.52033e-05
6.99068e-05
7.32516e-05
6.51929e-05
7.32393e-05
7.41707e-05
7.41209e-05
6.52017e-05
6.99047e-05
7.32429e-05
7.32338e-05
6.51884e-05
7.41262e-05
7.41546e-05
7.32253e-05
6.51707e-05
6.98978e-05
6.51815e-05
7.4149e-05
7.32376e-05
7.41101e-05
7.32195e-05
6.51662e-05
6.9895e-05
7.41046e-05
7.32288e-05
6.51798e-05
9.49575e-05
7.34714e-05
7.3478e-05
7.34577e-05
7.34644e-05
9.49604e-05
7.11554e-05
7.11537e-05
7.17887e-05
7.15388e-05
7.15701e-05
6.84988e-05
7.15269e-05
7.15573e-05
7.18027e-05
7.16298e-05
7.33678e-05
7.96972e-05
7.9706e-05
7.16152e-05
7.16287e-05
7.97191e-05
7.33714e-05
7.97105e-05
7.16433e-05
7.17882e-05
6.84944e-05
7.15123e-05
7.15427e-05
7.15241e-05
7.15552e-05
7.17738e-05
7.17915e-05
7.15411e-05
7.15706e-05
6.85009e-05
7.15322e-05
7.1558e-05
7.1801e-05
7.16292e-05
7.33706e-05
7.97137e-05
7.97178e-05
7.16142e-05
7.16277e-05
7.97309e-05
7.33742e-05
7.97269e-05
7.16427e-05
7.17866e-05
6.84968e-05
7.15173e-05
7.15433e-05
7.15265e-05
7.15557e-05
7.17769e-05
7.18173e-05
7.15417e-05
7.15724e-05
6.85261e-05
7.18033e-05
7.15532e-05
7.15851e-05
7.16556e-05
7.34011e-05
7.97446e-05
7.97364e-05
7.167e-05
7.16567e-05
7.97236e-05
7.33975e-05
7.16422e-05
7.97319e-05
7.18177e-05
6.85303e-05
7.15675e-05
7.15998e-05
7.1556e-05
7.15872e-05
7.18316e-05
7.18155e-05
7.15467e-05
7.1573e-05
6.85285e-05
7.18059e-05
7.15556e-05
7.15857e-05
7.16546e-05
7.34039e-05
7.97565e-05
7.97526e-05
7.16695e-05
7.16562e-05
7.974e-05
7.34004e-05
7.16412e-05
7.97439e-05
7.18206e-05
6.85325e-05
7.15696e-05
7.16003e-05
7.1561e-05
7.15878e-05
7.18299e-05
7.11253e-05
7.1127e-05
7.11281e-05
7.11298e-05
9.49442e-05
7.34516e-05
7.34453e-05
9.49415e-05
7.34652e-05
7.34588e-05
7.41188e-05
6.51994e-05
6.99037e-05
7.32421e-05
7.41244e-05
6.51868e-05
7.32329e-05
7.41677e-05
6.5209e-05
6.99152e-05
7.32526e-05
7.41716e-05
6.51955e-05
7.32435e-05
7.41083e-05
7.32185e-05
6.51645e-05
6.98938e-05
7.41026e-05
6.51776e-05
7.3228e-05
7.41553e-05
7.32292e-05
6.51732e-05
6.99054e-05
7.41513e-05
6.51871e-05
7.32386e-05
9.49557e-05
7.34778e-05
7.34714e-05
9.49583e-05
7.34642e-05
7.34579e-05
7.11546e-05
7.11529e-05
7.11574e-05
7.11557e-05
7.16822e-05
7.97479e-05
7.34245e-05
7.16679e-05
7.97555e-05
7.18436e-05
6.85557e-05
7.16019e-05
7.15726e-05
7.18345e-05
7.16146e-05
7.15806e-05
7.34298e-05
7.11801e-05
7.11829e-05
3.12665e-05
3.12651e-05
3.84899e-05
3.13969e-05
3.13955e-05
2.22594e-05
2.21081e-05
6.58141e-05
5.93012e-05
5.93037e-05
5.32943e-05
5.9309e-05
5.93094e-05
6.58064e-05
6.59107e-05
5.94417e-05
5.94437e-05
5.34896e-05
6.59033e-05
5.94477e-05
5.94484e-05
6.58145e-05
5.93016e-05
5.93027e-05
5.32935e-05
5.93074e-05
5.93085e-05
6.58064e-05
6.58801e-05
5.34368e-05
5.94115e-05
5.94123e-05
5.94071e-05
5.94082e-05
6.58873e-05
6.58128e-05
5.93038e-05
5.93071e-05
5.3283e-05
5.9307e-05
5.93036e-05
6.58075e-05
6.58811e-05
5.34477e-05
5.94088e-05
5.94103e-05
5.94091e-05
5.94107e-05
6.58856e-05
6.58121e-05
5.93006e-05
5.93034e-05
5.329e-05
5.93054e-05
5.93024e-05
6.58066e-05
6.58806e-05
5.34467e-05
5.94086e-05
5.94116e-05
5.94086e-05
5.94121e-05
6.58858e-05
6.58803e-05
5.34378e-05
5.94125e-05
5.94142e-05
6.58869e-05
5.94081e-05
5.94077e-05
3.1267e-05
3.12658e-05
3.84909e-05
3.13974e-05
3.13962e-05
2.22596e-05
2.21082e-05
3.12703e-05
3.12695e-05
3.84937e-05
3.14006e-05
3.13998e-05
2.22632e-05
2.21118e-05
3.12708e-05
3.12693e-05
3.84941e-05
3.14012e-05
3.13997e-05
2.22632e-05
2.21118e-05
3.85956e-05
3.16532e-05
3.16519e-05
3.15263e-05
3.15249e-05
2.24105e-05
2.25602e-05
3.85966e-05
3.16537e-05
3.16525e-05
3.15268e-05
3.15256e-05
2.24107e-05
2.25603e-05
3.85994e-05
3.16569e-05
3.16561e-05
3.15301e-05
3.15292e-05
2.24143e-05
2.25639e-05
3.85998e-05
3.16575e-05
3.1656e-05
3.15305e-05
3.15291e-05
2.24143e-05
2.2564e-05
5.61401e-05
6.2227e-05
5.48495e-05
6.05028e-05
6.22078e-05
5.48473e-05
5.61336e-05
5.72146e-05
6.02239e-05
6.47041e-05
6.40855e-05
6.0233e-05
6.40994e-05
5.72111e-05
5.72476e-05
6.41217e-05
6.47107e-05
6.02632e-05
6.02547e-05
6.41079e-05
5.72508e-05
5.60917e-05
6.04945e-05
6.21821e-05
5.48026e-05
6.22013e-05
5.48033e-05
5.60985e-05
5.61382e-05
5.48496e-05
6.22233e-05
6.05016e-05
5.48449e-05
6.2204e-05
5.61332e-05
5.72131e-05
6.02246e-05
6.47055e-05
6.40799e-05
6.02336e-05
6.40947e-05
5.72094e-05
5.7246e-05
6.4117e-05
6.47115e-05
6.02638e-05
6.02553e-05
6.41026e-05
5.72492e-05
5.60911e-05
6.0493e-05
5.47986e-05
6.21783e-05
5.48035e-05
6.21975e-05
5.60961e-05
6.58318e-05
5.334e-05
5.93447e-05
5.93442e-05
5.93376e-05
5.93395e-05
6.58389e-05
6.58318e-05
5.33391e-05
5.93427e-05
5.9344e-05
6.58392e-05
5.93377e-05
5.93388e-05
6.58637e-05
5.33912e-05
5.93723e-05
5.93733e-05
6.58563e-05
5.93768e-05
5.93781e-05
5.61365e-05
6.22187e-05
5.48386e-05
6.05023e-05
6.22044e-05
5.48516e-05
5.61247e-05
5.72026e-05
6.0225e-05
6.47026e-05
6.40779e-05
6.4091e-05
6.02264e-05
5.72128e-05
5.72489e-05
6.41132e-05
6.47093e-05
6.02569e-05
6.41007e-05
6.02555e-05
5.7239e-05
5.60829e-05
6.04901e-05
6.21784e-05
5.48045e-05
6.21931e-05
5.47927e-05
5.60948e-05
5.6138e-05
6.22259e-05
5.48389e-05
6.05032e-05
6.22064e-05
5.48518e-05
5.61308e-05
5.72123e-05
6.02242e-05
6.47069e-05
6.40849e-05
6.40993e-05
6.02322e-05
5.72087e-05
5.72453e-05
6.41218e-05
6.47133e-05
6.02584e-05
6.41075e-05
5.72484e-05
6.02554e-05
5.60888e-05
6.04912e-05
6.21806e-05
5.48047e-05
6.22e-05
5.47935e-05
5.60957e-05
5.61664e-05
6.22298e-05
5.48943e-05
6.05459e-05
5.61777e-05
6.2244e-05
5.48815e-05
5.73205e-05
6.03149e-05
6.47458e-05
6.41562e-05
6.03144e-05
6.41448e-05
5.73098e-05
5.72741e-05
6.41226e-05
6.02849e-05
6.47393e-05
6.02864e-05
5.7285e-05
6.41352e-05
5.62178e-05
6.05572e-05
6.22685e-05
5.4923e-05
6.22547e-05
5.49374e-05
5.62066e-05
5.61716e-05
6.22323e-05
5.48952e-05
6.05471e-05
5.61791e-05
6.22511e-05
5.48825e-05
5.73167e-05
6.03184e-05
6.47496e-05
6.41648e-05
6.41516e-05
6.03158e-05
5.73183e-05
5.72842e-05
6.41298e-05
6.02857e-05
6.47433e-05
5.72817e-05
6.41437e-05
6.02879e-05
5.6219e-05
6.05584e-05
6.22754e-05
5.49239e-05
6.22578e-05
5.49382e-05
5.62112e-05
6.58326e-05
5.33489e-05
5.93394e-05
5.93413e-05
5.93411e-05
5.934e-05
6.58377e-05
6.58619e-05
5.33829e-05
5.93749e-05
5.93762e-05
5.93751e-05
6.58572e-05
5.93767e-05
5.61384e-05
6.22267e-05
5.48492e-05
6.05027e-05
6.2207e-05
5.48446e-05
5.61332e-05
5.72131e-05
6.02253e-05
6.47072e-05
6.40849e-05
6.40994e-05
6.02341e-05
5.72094e-05
5.72461e-05
6.41219e-05
6.47135e-05
6.02635e-05
6.41076e-05
6.02561e-05
5.72493e-05
5.60908e-05
6.04944e-05
6.21812e-05
5.47985e-05
6.22007e-05
5.4803e-05
5.60961e-05
5.61358e-05
5.48473e-05
6.22184e-05
6.05006e-05
5.48431e-05
6.2204e-05
5.61274e-05
5.72009e-05
6.02242e-05
6.4701e-05
6.40761e-05
6.4089e-05
6.02251e-05
5.72113e-05
5.72474e-05
6.41114e-05
6.47081e-05
6.02552e-05
6.40989e-05
5.72373e-05
6.02545e-05
5.60857e-05
6.04923e-05
5.47974e-05
6.21779e-05
5.48013e-05
6.21928e-05
5.6094e-05
5.61738e-05
6.22329e-05
5.4888e-05
6.05504e-05
5.61794e-05
6.22518e-05
5.48922e-05
5.73176e-05
6.03176e-05
6.475e-05
6.41652e-05
6.03158e-05
6.41514e-05
5.73204e-05
5.72854e-05
6.41297e-05
6.02858e-05
6.47438e-05
6.02902e-05
5.72826e-05
6.41437e-05
5.62193e-05
6.05582e-05
6.22767e-05
5.49352e-05
6.22579e-05
5.49314e-05
5.62136e-05
5.61683e-05
5.48863e-05
6.22294e-05
6.05483e-05
5.61766e-05
5.48905e-05
6.22438e-05
5.73185e-05
6.03159e-05
6.47444e-05
6.41547e-05
6.41429e-05
6.03109e-05
5.73088e-05
5.72724e-05
6.41208e-05
6.02838e-05
6.47377e-05
5.72835e-05
6.41334e-05
6.0286e-05
5.62166e-05
6.0556e-05
5.49333e-05
6.22681e-05
5.49296e-05
6.22543e-05
5.62081e-05
5.6139e-05
5.48404e-05
6.22204e-05
6.05038e-05
5.48531e-05
6.22063e-05
5.61262e-05
5.7204e-05
6.02256e-05
6.47029e-05
6.40798e-05
6.02269e-05
6.40917e-05
5.72144e-05
5.72503e-05
6.4114e-05
6.47097e-05
6.02573e-05
6.02561e-05
6.41023e-05
5.72403e-05
5.60847e-05
6.04918e-05
5.48065e-05
6.21805e-05
5.47949e-05
6.21949e-05
5.60975e-05
5.61744e-05
6.22335e-05
5.48899e-05
6.05503e-05
5.61808e-05
6.22522e-05
5.48927e-05
5.7319e-05
6.03203e-05
6.47471e-05
6.41649e-05
5.7322e-05
6.03151e-05
6.41519e-05
5.72869e-05
6.41303e-05
6.02842e-05
6.47408e-05
5.7284e-05
6.02919e-05
6.41435e-05
5.62204e-05
6.05582e-05
6.22769e-05
5.49354e-05
5.6214e-05
6.22584e-05
5.49325e-05
5.61682e-05
5.48959e-05
6.22317e-05
6.05474e-05
5.61799e-05
5.48835e-05
6.22458e-05
5.73218e-05
6.03154e-05
6.47461e-05
6.41573e-05
6.41461e-05
6.0315e-05
5.73111e-05
5.72754e-05
6.41245e-05
6.02855e-05
6.47395e-05
5.72864e-05
6.4136e-05
6.02868e-05
5.62199e-05
6.05585e-05
5.49252e-05
6.22702e-05
5.49387e-05
6.22566e-05
5.62084e-05
6.58321e-05
5.33409e-05
5.93381e-05
5.93413e-05
5.93416e-05
5.93387e-05
6.58373e-05
6.58616e-05
5.33842e-05
5.93745e-05
5.93773e-05
5.93744e-05
6.58568e-05
5.93771e-05
5.61396e-05
5.48495e-05
6.2223e-05
6.05023e-05
5.48451e-05
6.22085e-05
5.61314e-05
5.72062e-05
6.02295e-05
6.47079e-05
6.40845e-05
6.02306e-05
6.40973e-05
5.72166e-05
5.72528e-05
6.41198e-05
6.47148e-05
6.02611e-05
6.02601e-05
6.41072e-05
5.72427e-05
5.60896e-05
6.0494e-05
5.47992e-05
6.21824e-05
5.48035e-05
6.21974e-05
5.60977e-05
5.61736e-05
5.48882e-05
6.22298e-05
6.05488e-05
5.6179e-05
5.48925e-05
6.22484e-05
5.73174e-05
6.03208e-05
6.4748e-05
6.41602e-05
5.73204e-05
6.03156e-05
6.41464e-05
5.72853e-05
6.41247e-05
6.02848e-05
6.47421e-05
5.72824e-05
6.02924e-05
6.41388e-05
5.62186e-05
6.0557e-05
5.49354e-05
6.22731e-05
5.62131e-05
5.49316e-05
6.22546e-05
5.61722e-05
5.48883e-05
6.2234e-05
6.05498e-05
5.61804e-05
5.48926e-05
6.22483e-05
5.73245e-05
6.03207e-05
6.47513e-05
6.4163e-05
6.4151e-05
6.03195e-05
5.73136e-05
5.72778e-05
6.41291e-05
6.02895e-05
6.47447e-05
5.7289e-05
6.41417e-05
6.02907e-05
5.62204e-05
6.05577e-05
5.49354e-05
6.22726e-05
5.49316e-05
6.22589e-05
5.6212e-05
6.58632e-05
5.33919e-05
5.93723e-05
5.9374e-05
6.58562e-05
5.93781e-05
5.93788e-05
5.73442e-05
6.03433e-05
6.41671e-05
6.4774e-05
6.03421e-05
5.73569e-05
6.41774e-05
5.62463e-05
6.05994e-05
5.49824e-05
6.2281e-05
5.49662e-05
5.62584e-05
6.22934e-05
6.03459e-05
6.47793e-05
6.0345e-05
2.10345e-05
3.66864e-05
3.66895e-05
4.19518e-05
2.17929e-05
3.75923e-05
3.75954e-05
4.26758e-05
2.25696e-05
3.84723e-05
3.84754e-05
4.33745e-05
2.33607e-05
3.93253e-05
3.93281e-05
4.40447e-05
2.41624e-05
4.01504e-05
4.01532e-05
4.47007e-05
2.49708e-05
4.09472e-05
4.095e-05
4.53193e-05
2.57823e-05
4.17152e-05
4.17181e-05
4.59214e-05
2.65932e-05
4.24544e-05
4.24573e-05
4.64957e-05
2.74002e-05
4.31647e-05
4.31676e-05
4.70571e-05
2.82001e-05
4.38461e-05
4.3849e-05
4.75884e-05
2.89899e-05
4.44991e-05
4.45019e-05
4.80932e-05
2.97672e-05
4.51239e-05
4.51263e-05
4.85874e-05
3.05294e-05
4.57208e-05
4.57231e-05
4.90528e-05
3.12744e-05
4.62902e-05
4.62922e-05
4.9494e-05
3.20004e-05
4.68324e-05
4.68342e-05
4.99181e-05
3.27058e-05
4.73477e-05
4.73492e-05
5.03239e-05
3.33889e-05
4.78365e-05
4.78378e-05
5.07052e-05
3.40485e-05
4.82991e-05
4.83002e-05
5.10677e-05
3.46836e-05
4.87359e-05
4.87369e-05
5.14125e-05
3.52932e-05
4.91474e-05
4.91484e-05
5.1736e-05
3.58766e-05
4.9534e-05
4.95349e-05
5.20427e-05
3.64331e-05
4.9896e-05
4.98968e-05
5.23294e-05
3.69622e-05
5.0234e-05
5.02347e-05