/*--------------------------------*- C++ -*----------------------------------*\
| =========                 |                                                 |
| \\      /  F ield         | OpenFOAM: The Open Source CFD Toolbox           |
|  \\    /   O peration     | Version:  v1906                                 |
|   \\  /    A nd           | Web:      www.OpenFOAM.com                      |
|    \\/     M anipulation  |                                                 |
\*---------------------------------------------------------------------------*/
FoamFile
{
    version     2.0;
    format      ascii;
    class       volScalarField;
    location    "600";
    object      nut;
}
// * * * * * * * * * * * * * * * * * * * * * * * * * * * * * * * * * * * * * //

dimensions      [0 2 -1 0 0 0 0];


internalField   nonuniform List<scalar> 
171728
(
0.000136692
0.000138614
0.00013862
0.000136637
0.000138634
0.000138621
0.000138633
0.000138643
0.000136669
0.000138635
0.000138647
0.000136728
0.000122366
0.000122364
0.000122371
0.000122385
2.36121e-05
2.36117e-05
7.37294e-05
7.3735e-05
9.18276e-05
5.00167e-05
9.2051e-05
9.18289e-05
5.00162e-05
5.0007e-05
9.20544e-05
0.000120667
9.3827e-05
0.000133969
0.000133106
0.000121318
0.00012067
0.000137833
9.38206e-05
0.000133971
9.35355e-05
0.000133108
0.000121326
2.3612e-05
2.36076e-05
0.000135891
7.37338e-05
7.37257e-05
7.36293e-05
7.36262e-05
2.36126e-05
2.36082e-05
5.00155e-05
9.20634e-05
9.38177e-05
0.000133987
0.000121316
5.00101e-05
9.20614e-05
0.000133988
9.38143e-05
0.000121321
0.000120678
0.000137845
9.38104e-05
0.000133975
9.35361e-05
0.000133114
0.000121325
9.18361e-05
5.00152e-05
5.00059e-05
9.20515e-05
0.000120678
0.000137856
0.000133991
9.38306e-05
0.000133129
9.35315e-05
0.000121326
9.18316e-05
5.00121e-05
5.00024e-05
9.20521e-05
2.361e-05
7.3718e-05
7.3732e-05
2.36118e-05
0.000120673
0.000133996
9.38211e-05
0.000133136
0.000121325
0.000120676
0.00013786
0.000134003
9.38172e-05
0.000133141
9.3533e-05
0.000121328
9.1826e-05
5.00148e-05
9.20719e-05
9.18366e-05
5.00122e-05
5.00032e-05
9.206e-05
0.000135901
7.37313e-05
7.37329e-05
7.36331e-05
7.36323e-05
2.36116e-05
2.36073e-05
2.36112e-05
2.36068e-05
2.36103e-05
2.36093e-05
9.72606e-05
0.000112667
7.37017e-05
4.79342e-05
4.79365e-05
0.0001125
9.73095e-05
9.72896e-05
0.000112674
7.3695e-05
4.79329e-05
4.79285e-05
0.000112488
9.73487e-05
7.8822e-05
2.1492e-05
2.14902e-05
2.14903e-05
2.14878e-05
7.88383e-05
3.62669e-05
4.05365e-05
8.80272e-05
9.19252e-05
3.6265e-05
4.05355e-05
8.81062e-05
2.01019e-05
5.00099e-05
7.60347e-05
7.59912e-05
2.0104e-05
3.62682e-05
9.19495e-05
4.05391e-05
8.82073e-05
4.05404e-05
8.812e-05
3.62704e-05
3.62684e-05
4.05367e-05
8.80423e-05
9.19302e-05
3.62673e-05
4.05357e-05
8.81184e-05
2.0103e-05
5.00145e-05
7.60609e-05
7.60163e-05
2.01051e-05
2.01036e-05
7.59697e-05
5.00093e-05
2.01016e-05
7.60141e-05
3.6271e-05
9.1953e-05
4.05393e-05
8.82165e-05
4.05406e-05
8.81407e-05
3.62713e-05
2.36099e-05
2.36097e-05
7.87988e-05
2.14865e-05
2.1489e-05
7.87755e-05
2.14885e-05
2.14911e-05
9.72769e-05
0.000112647
7.36962e-05
4.79302e-05
0.000112498
4.79291e-05
9.7326e-05
9.7263e-05
0.000112656
7.36948e-05
4.79424e-05
4.79326e-05
0.000112514
9.73144e-05
9.72016e-05
4.79209e-05
0.000112251
7.36664e-05
0.000112406
9.71495e-05
4.79229e-05
9.71878e-05
4.7925e-05
0.000112266
7.36578e-05
9.7137e-05
4.7934e-05
0.000112414
7.88198e-05
2.14902e-05
2.14927e-05
2.14881e-05
2.14906e-05
7.8838e-05
2.36105e-05
2.36103e-05
2.01033e-05
5.00081e-05
7.60593e-05
7.60143e-05
2.01053e-05
3.62687e-05
9.19502e-05
8.82214e-05
4.05437e-05
8.8137e-05
4.0536e-05
3.62743e-05
2.01015e-05
5.00064e-05
7.6031e-05
7.5988e-05
2.01036e-05
3.62676e-05
9.19472e-05
4.05434e-05
8.82031e-05
4.05357e-05
8.81216e-05
3.62693e-05
3.62688e-05
8.80436e-05
4.05362e-05
9.19292e-05
3.62679e-05
8.81198e-05
4.05351e-05
2.01037e-05
5.00133e-05
7.60592e-05
7.60185e-05
2.01057e-05
2.01043e-05
7.59718e-05
5.00084e-05
2.01023e-05
7.60128e-05
3.62715e-05
9.1958e-05
8.82214e-05
4.05387e-05
8.81367e-05
4.05401e-05
3.62727e-05
3.62666e-05
4.05361e-05
8.80333e-05
9.19298e-05
3.62658e-05
4.05351e-05
8.81127e-05
2.01025e-05
5.001e-05
7.60402e-05
7.59988e-05
2.01045e-05
2.01031e-05
7.59519e-05
5.00053e-05
2.01011e-05
7.59938e-05
3.62696e-05
9.19563e-05
4.05387e-05
8.82096e-05
4.054e-05
8.81338e-05
3.62703e-05
2.36079e-05
9.72682e-05
0.000112653
7.36853e-05
4.79319e-05
0.000112493
4.79218e-05
9.73273e-05
9.72592e-05
0.000112679
7.36997e-05
4.79392e-05
4.7938e-05
0.000112507
9.7315e-05
7.88192e-05
2.14891e-05
2.14925e-05
2.1487e-05
2.14905e-05
7.88441e-05
2.36097e-05
3.62683e-05
8.80255e-05
4.05354e-05
9.19411e-05
3.62646e-05
8.81182e-05
4.05362e-05
2.01027e-05
5.00064e-05
7.60413e-05
7.59971e-05
2.01047e-05
2.01033e-05
7.59946e-05
3.62678e-05
9.19519e-05
8.82209e-05
4.05422e-05
8.81258e-05
4.05371e-05
3.62719e-05
3.62688e-05
8.80386e-05
4.05362e-05
9.19351e-05
3.62673e-05
8.81165e-05
4.05353e-05
2.01033e-05
5.00106e-05
7.60533e-05
7.60105e-05
2.01054e-05
2.0104e-05
7.59647e-05
5.00054e-05
2.01019e-05
7.60069e-05
3.62706e-05
9.19581e-05
8.82146e-05
4.05389e-05
8.81353e-05
4.05401e-05
3.62721e-05
7.88004e-05
2.1489e-05
2.14861e-05
7.8777e-05
2.14911e-05
2.14882e-05
9.72583e-05
0.000112662
7.37011e-05
4.7943e-05
0.000112507
4.79331e-05
9.73142e-05
9.72793e-05
0.000112656
7.36993e-05
4.79297e-05
0.000112502
4.79285e-05
9.73282e-05
9.71896e-05
4.79256e-05
0.000112258
7.36651e-05
9.71316e-05
0.000112429
4.79345e-05
9.7203e-05
4.79203e-05
0.000112254
7.36655e-05
9.71525e-05
0.000112415
4.79224e-05
7.88214e-05
2.14928e-05
2.14898e-05
2.14907e-05
2.14878e-05
7.88394e-05
2.36095e-05
2.36093e-05
2.36091e-05
2.36089e-05
0.000119504
0.000136667
0.000129811
0.000129893
0.000129699
0.000129693
0.000119599
0.000119501
0.000136529
0.000129791
0.000129787
0.000129666
0.000129673
0.000119595
0.000119484
0.000136634
0.000129825
0.000129887
0.000129681
0.000129651
0.000119619
0.000119516
0.000136565
0.000129818
0.000129806
0.000129679
0.000129679
0.000119604
0.000120247
0.000120256
0.000119979
0.000132086
0.000131845
0.000121704
0.000120246
0.000120253
0.000119978
0.000119986
0.000132086
0.000131846
0.000120255
0.000120262
0.000119995
0.000132083
0.000131843
0.000121725
0.000120259
0.000120267
0.000119992
0.00012
0.000132086
0.000131845
0.000132261
0.000117032
0.000134117
0.000120975
0.000132288
0.00011729
0.000134333
0.000128378
0.000122125
9.36728e-05
0.000107739
0.000121975
0.000107531
0.000128791
0.000132819
0.000121015
0.000117595
0.000134924
0.000117329
0.000134677
0.000132913
0.000132289
0.000117045
0.000134134
0.000120982
0.000132303
0.000117299
0.000134329
0.000128535
0.000122141
9.36826e-05
0.000107745
0.000107537
0.000122007
0.000128578
0.00012814
0.000107305
0.000121648
9.36629e-05
0.000128094
0.000107514
0.000121744
0.000132822
0.000121016
0.000117595
0.000134918
0.000117354
0.000134681
0.000132743
0.000119324
0.000136163
0.000129207
0.000129206
0.000129398
0.000119233
0.000129397
0.000128556
0.000122108
9.36842e-05
0.000107731
0.000122018
0.000107545
0.000128594
0.000132862
0.000121034
0.00011759
0.000134789
0.000117364
0.00013477
0.000132783
0.000128447
0.000122114
9.36713e-05
0.00010773
0.000107521
0.000121992
0.000128695
0.000132759
0.000121018
0.000134783
0.000117592
0.000134749
0.000117334
0.000132795
0.000132372
0.00011704
0.000134134
0.000120982
0.000132088
0.000117298
0.000134396
0.000128506
0.000122169
9.36962e-05
0.000107748
0.00012198
0.000107541
0.000128664
0.000128137
0.000107311
0.000121635
9.36587e-05
0.000128088
0.000121772
0.000107507
0.000132575
0.000121023
0.000117605
0.000135056
0.000117333
0.000134578
0.000132992
0.000132252
0.000134163
0.00011704
0.000120982
0.000132255
0.000134347
0.000117298
0.000128544
0.000122136
9.36782e-05
0.00010773
0.000107538
0.000122012
0.000128584
0.000128146
0.000107303
0.000121649
9.36762e-05
0.000128104
0.000107511
0.000121771
0.000132798
0.000121018
0.000135036
0.0001176
0.000134613
0.000117344
0.000132745
0.00013244
0.000134026
0.000117028
0.000120988
0.000132035
0.000134445
0.000117303
0.00012841
0.000122105
9.36851e-05
0.000107731
0.000122004
0.000107538
0.000128678
0.0001283
0.000107512
0.000132562
0.000121025
0.000134916
0.000117604
0.000134619
0.000117331
0.000132882
0.000132426
0.000134085
0.000117038
0.000120985
0.00013218
0.000134439
0.000117305
0.000128437
0.000122155
9.3682e-05
0.000107746
0.000107542
0.000121988
0.000128695
0.000128229
0.000107312
0.000121626
9.36642e-05
0.000128008
0.000107506
0.000121781
0.000132692
0.000121021
0.000135049
0.000117604
0.000134572
0.000117344
0.000132855
0.000119328
0.000136199
0.00012922
0.000129227
0.000119235
0.000129433
0.000129413
0.000203423
0.000198747
0.00019874
0.000180596
0.000181558
0.000180598
0.000181539
0.000198716
0.000198717
0.000199774
0.000199774
0.000180673
0.000181471
0.000198731
0.000198705
0.000199788
0.000199763
0.000198724
0.000199805
0.000199781
0.000180592
0.000181462
0.000198738
0.000199798
0.000199795
0.000181539
0.000200126
0.00020014
9.9713e-05
5.0713e-05
5.0724e-05
9.96505e-05
2.38792e-05
2.38835e-05
9.97251e-05
5.07125e-05
5.07203e-05
9.96566e-05
0.00020343
0.00020343
0.000203439
0.000205315
0.000205322
0.000205321
0.000205329
0.000143711
0.00010335
0.000207732
0.000199104
0.000103436
0.000208199
0.000143497
2.38769e-05
2.38814e-05
0.000143706
0.000207731
0.000103352
0.000199097
0.000208198
0.000103439
0.000143492
7.78114e-05
7.78108e-05
0.000181061
7.78374e-05
7.78365e-05
7.78747e-05
7.78736e-05
2.38798e-05
2.38842e-05
2.38786e-05
2.38829e-05
7.78145e-05
7.78105e-05
0.000181061
7.78397e-05
7.78356e-05
2.38888e-05
2.38845e-05
2.38875e-05
2.38832e-05
0.000181071
7.78716e-05
7.78669e-05
7.7847e-05
7.78429e-05
9.9716e-05
5.07157e-05
5.07222e-05
9.96534e-05
0.000143695
0.000103352
0.000207718
0.000199073
0.000103436
0.000208185
0.000143501
0.000143697
0.000103349
0.00020772
0.000199073
0.000103434
0.000208187
0.000143502
9.97128e-05
5.07342e-05
5.07234e-05
9.97727e-05
9.97159e-05
5.07324e-05
5.07261e-05
9.97759e-05
0.000143718
0.000199427
0.000103514
0.000209104
0.000103434
0.000208649
0.000143902
0.00014372
0.000199427
0.000103513
0.000209106
0.000103431
0.000208651
0.000143905
7.78106e-05
7.78058e-05
0.000180995
7.78366e-05
7.78326e-05
2.38797e-05
2.38841e-05
2.38881e-05
2.38839e-05
0.000181154
7.78675e-05
7.78638e-05
7.7843e-05
7.78391e-05
2.38887e-05
2.38844e-05
0.000143708
0.000103343
0.000207722
0.000199087
0.00010343
0.000208185
0.000143493
9.97202e-05
5.07057e-05
5.07169e-05
9.96516e-05
0.000143703
0.000207716
0.000103331
0.000199062
0.000208183
0.000103415
0.000143489
9.9719e-05
5.07312e-05
5.07201e-05
9.97852e-05
0.000143711
0.000199442
0.000103508
0.000209103
0.000103425
0.000208653
0.000143916
9.97146e-05
5.07265e-05
5.07162e-05
9.97803e-05
0.000143705
0.000199416
0.000209102
0.000103494
0.000208647
0.000103413
0.000143911
9.97204e-05
5.07124e-05
5.07237e-05
9.96518e-05
0.0001437
0.000207729
0.00010335
0.000199081
0.000208196
0.000103434
0.000143506
9.97152e-05
5.07115e-05
5.07178e-05
9.96525e-05
0.000143713
0.000199458
0.000103515
0.000209118
0.000103432
0.000208663
0.000143919
9.97139e-05
5.07333e-05
5.0723e-05
9.97802e-05
0.000143722
0.000199434
0.000209115
0.000103512
0.00020866
0.000103432
0.000143906
9.97146e-05
5.07281e-05
5.07218e-05
9.97747e-05
7.77936e-05
7.78136e-05
0.000181009
7.78233e-05
7.78394e-05
2.3879e-05
2.38833e-05
2.3886e-05
2.38816e-05
0.000181127
7.78539e-05
7.78705e-05
7.7826e-05
7.78462e-05
2.38879e-05
2.38836e-05
0.000143708
0.00020773
0.000103349
0.000199095
0.000208197
0.000103433
0.000143494
9.97157e-05
5.0709e-05
5.07202e-05
9.96476e-05
9.97216e-05
5.07092e-05
5.07204e-05
9.96544e-05
0.000143709
0.000199451
0.000209117
0.000103517
0.000208662
0.000103435
0.000143914
0.000143711
0.000199449
0.000209116
0.000103511
0.000208661
0.00010343
0.000143916
9.97101e-05
5.07298e-05
5.07195e-05
9.97753e-05
9.97168e-05
5.07306e-05
5.07197e-05
9.97811e-05
2.38787e-05
2.3883e-05
2.38782e-05
2.38826e-05
0.000181071
7.78687e-05
7.78677e-05
7.78443e-05
7.78434e-05
2.38876e-05
2.38834e-05
2.38872e-05
2.38829e-05
0.000209567
0.000103511
0.000143931
5.07321e-05
9.97743e-05
0.000103509
5.07297e-05
2.38879e-05
2.38875e-05
3.66973e-05
4.10372e-05
9.43495e-05
9.96823e-05
4.10373e-05
9.43238e-05
3.66961e-05
2.03078e-05
5.07188e-05
7.8983e-05
7.89938e-05
2.03056e-05
2.03076e-05
7.90061e-05
5.07183e-05
7.89952e-05
2.03097e-05
3.66925e-05
9.96823e-05
4.10328e-05
9.42989e-05
4.1033e-05
9.43254e-05
3.66936e-05
2.38812e-05
2.38815e-05
3.66949e-05
9.43678e-05
4.10398e-05
9.96876e-05
9.43336e-05
4.10336e-05
3.67018e-05
2.0309e-05
5.07138e-05
7.90007e-05
7.90198e-05
2.03069e-05
2.03088e-05
7.90319e-05
5.07154e-05
7.9013e-05
2.03109e-05
3.6698e-05
9.96944e-05
9.43095e-05
4.10296e-05
9.43438e-05
4.10354e-05
3.66909e-05
2.38791e-05
2.38793e-05
8.14449e-05
2.17029e-05
2.16999e-05
2.17008e-05
2.16979e-05
8.14525e-05
0.000105059
0.000128363
7.78211e-05
4.86258e-05
0.000128424
4.86327e-05
0.000105034
0.000105064
0.000128345
7.782e-05
4.86203e-05
0.00012841
4.86202e-05
0.000105045
0.000105067
4.86357e-05
7.78283e-05
0.000128497
0.000128437
4.86335e-05
0.000105091
0.000105077
4.8625e-05
7.78274e-05
0.000128483
0.000128419
4.8625e-05
0.000105097
8.14422e-05
2.1699e-05
2.1696e-05
2.1701e-05
2.1698e-05
8.14344e-05
0.000105184
0.00012865
4.86489e-05
7.78832e-05
0.00010516
0.000128706
4.86478e-05
0.000105192
0.000128632
4.86395e-05
7.78824e-05
0.00010517
0.000128692
4.86384e-05
8.14821e-05
2.17064e-05
2.17035e-05
8.14746e-05
2.17084e-05
2.17055e-05
2.38819e-05
2.38822e-05
2.38806e-05
2.38809e-05
8.14442e-05
2.17029e-05
2.16996e-05
2.17009e-05
2.16976e-05
8.14516e-05
0.00010506
0.000128362
7.78232e-05
4.86302e-05
4.86302e-05
0.000128427
0.000105039
0.000105062
0.000128343
7.78193e-05
4.86188e-05
4.86188e-05
0.000128408
0.000105042
0.000105071
4.8635e-05
7.78309e-05
0.0001285
4.86349e-05
0.000105093
0.000128436
0.000105074
4.86235e-05
7.7827e-05
0.000128481
4.86235e-05
0.000105094
0.000128418
8.14413e-05
2.1699e-05
2.16957e-05
2.1701e-05
2.16977e-05
8.14338e-05
2.38868e-05
2.38865e-05
2.38855e-05
2.38852e-05
8.14618e-05
2.17027e-05
2.16995e-05
8.14544e-05
2.17047e-05
2.17015e-05
0.000105133
0.000128641
7.78619e-05
4.86465e-05
4.86429e-05
0.000128579
0.000105156
0.000105137
0.000128621
7.78583e-05
4.86331e-05
4.86333e-05
0.000128561
0.000105158
0.000105126
4.86398e-05
0.000128508
7.78557e-05
0.000105103
4.86405e-05
0.000128571
0.000105126
4.86284e-05
0.00012849
7.78517e-05
0.000105106
4.86288e-05
0.000128552
8.14643e-05
2.17066e-05
2.17033e-05
2.17046e-05
2.17013e-05
8.14717e-05
3.66989e-05
4.10373e-05
9.43673e-05
9.96851e-05
4.10374e-05
9.43335e-05
3.66981e-05
2.03087e-05
5.07171e-05
7.90025e-05
7.90217e-05
2.03066e-05
2.03085e-05
7.90338e-05
5.07208e-05
7.90148e-05
2.03106e-05
3.66944e-05
9.96853e-05
4.10329e-05
9.43092e-05
4.10332e-05
9.43428e-05
3.66953e-05
3.66998e-05
4.10413e-05
9.43479e-05
9.97436e-05
3.67008e-05
4.10416e-05
9.43738e-05
2.03114e-05
5.07284e-05
7.90296e-05
2.03135e-05
7.90185e-05
2.03116e-05
7.90071e-05
5.07289e-05
2.03095e-05
7.90179e-05
3.67048e-05
9.97429e-05
4.10456e-05
9.43969e-05
3.67036e-05
4.10456e-05
9.43717e-05
3.67018e-05
4.10414e-05
9.43584e-05
9.97467e-05
3.67023e-05
4.10417e-05
9.43916e-05
2.03123e-05
5.07313e-05
7.9057e-05
7.90386e-05
2.03144e-05
2.03125e-05
7.90268e-05
5.07276e-05
2.03104e-05
7.90456e-05
3.67063e-05
9.9746e-05
4.10458e-05
9.4415e-05
4.10457e-05
9.43823e-05
3.6706e-05
8.14444e-05
2.17003e-05
2.17029e-05
2.16983e-05
2.17009e-05
8.1452e-05
0.000105064
0.000128345
7.78202e-05
4.86208e-05
4.86206e-05
0.000128405
0.000105045
0.000105062
0.00012837
7.78167e-05
4.86255e-05
0.000128425
4.86328e-05
0.000105039
0.000105078
4.86254e-05
7.7827e-05
0.000128478
4.86255e-05
0.000128419
0.000105096
0.000105072
4.86376e-05
7.7823e-05
0.000128498
0.000128444
4.86305e-05
0.000105093
8.14416e-05
2.16964e-05
2.1699e-05
2.16984e-05
2.1701e-05
8.14338e-05
2.38818e-05
2.3882e-05
2.38862e-05
2.38858e-05
8.14619e-05
2.17002e-05
2.17027e-05
8.14546e-05
2.17022e-05
2.17048e-05
0.000105141
0.000128619
7.78585e-05
4.86349e-05
0.000128562
4.86353e-05
0.000105159
0.000105137
0.000128639
7.78548e-05
4.8645e-05
4.86418e-05
0.000128587
0.000105155
0.000105128
4.86304e-05
0.000128491
7.78521e-05
0.000128549
0.000105109
4.86306e-05
0.000105124
4.86353e-05
0.000128516
7.78485e-05
0.000105105
4.86415e-05
0.000128569
8.14646e-05
2.1704e-05
2.17066e-05
2.1702e-05
2.17046e-05
8.14716e-05
2.38867e-05
2.38864e-05
3.66964e-05
4.10368e-05
9.43465e-05
9.96832e-05
4.10366e-05
9.43206e-05
3.66953e-05
2.03073e-05
5.07117e-05
7.89769e-05
7.89894e-05
2.03052e-05
2.03071e-05
7.90016e-05
5.0711e-05
7.89892e-05
2.03092e-05
3.66917e-05
9.96889e-05
4.10321e-05
9.42956e-05
4.10326e-05
9.43223e-05
3.66928e-05
3.67055e-05
9.43586e-05
4.10382e-05
9.97557e-05
3.66988e-05
9.43923e-05
4.1044e-05
2.03126e-05
5.07253e-05
7.90551e-05
2.03147e-05
7.90366e-05
2.03128e-05
7.9025e-05
5.07259e-05
2.03107e-05
7.90437e-05
3.67024e-05
9.97493e-05
9.44159e-05
4.10484e-05
3.67089e-05
9.43825e-05
4.10425e-05
3.6699e-05
4.10407e-05
9.43448e-05
9.97507e-05
3.67e-05
4.10411e-05
9.43709e-05
2.03109e-05
5.07213e-05
7.90247e-05
7.90127e-05
2.0313e-05
2.03111e-05
7.9001e-05
5.07216e-05
2.0309e-05
7.90129e-05
3.67039e-05
9.9745e-05
4.10453e-05
9.4394e-05
4.10451e-05
9.43688e-05
3.67028e-05
3.66956e-05
9.43696e-05
4.10398e-05
9.96828e-05
9.43353e-05
4.10335e-05
3.67025e-05
2.03094e-05
5.07185e-05
7.90037e-05
7.9023e-05
2.03074e-05
2.03093e-05
7.90349e-05
5.07178e-05
7.90161e-05
2.03114e-05
3.66986e-05
9.96895e-05
9.43113e-05
4.10295e-05
9.43453e-05
4.10355e-05
3.66918e-05
3.66974e-05
4.10396e-05
9.43549e-05
9.9684e-05
4.10332e-05
9.43304e-05
3.66964e-05
2.03082e-05
5.07127e-05
7.89835e-05
7.90022e-05
2.03061e-05
2.03081e-05
7.90141e-05
5.07165e-05
7.89958e-05
2.03101e-05
3.66928e-05
9.96845e-05
4.10298e-05
9.43058e-05
4.10346e-05
9.43309e-05
3.66938e-05
3.67062e-05
9.43601e-05
4.1038e-05
9.97507e-05
3.66994e-05
9.43938e-05
4.10441e-05
2.03131e-05
5.0728e-05
7.90582e-05
7.90396e-05
2.03152e-05
2.03133e-05
7.90281e-05
5.07284e-05
2.03112e-05
7.90467e-05
3.67031e-05
9.97442e-05
9.44175e-05
4.10485e-05
9.4384e-05
4.10423e-05
3.67096e-05
3.67001e-05
4.1038e-05
9.43545e-05
9.97457e-05
3.67009e-05
4.10439e-05
9.43792e-05
2.03119e-05
5.0727e-05
7.90372e-05
7.90195e-05
2.03139e-05
2.0312e-05
7.90078e-05
5.07233e-05
2.031e-05
7.90259e-05
3.67049e-05
9.97445e-05
4.10484e-05
9.44024e-05
4.10423e-05
9.43783e-05
3.67039e-05
8.14444e-05
2.16993e-05
2.17027e-05
2.16972e-05
2.17007e-05
8.14525e-05
0.000105059
0.000128337
7.78071e-05
4.86142e-05
4.86218e-05
0.00012839
0.000105034
0.00010506
0.000128365
7.78228e-05
4.86302e-05
0.000128428
4.86301e-05
0.000105036
0.000105067
4.86265e-05
7.78103e-05
0.000128463
4.86192e-05
0.000128411
0.000105091
0.000105068
4.86349e-05
7.78302e-05
0.000128501
0.000128438
4.86349e-05
0.000105092
8.14422e-05
2.16953e-05
2.16988e-05
2.16974e-05
2.17008e-05
8.1434e-05
2.3881e-05
2.38813e-05
2.38839e-05
2.38837e-05
8.14625e-05
2.16991e-05
2.17026e-05
8.14546e-05
2.17011e-05
2.17046e-05
0.00010513
0.000128604
7.78413e-05
4.86357e-05
0.000128554
4.86283e-05
0.000105154
0.000105131
0.000128642
7.78615e-05
4.86444e-05
4.86447e-05
0.000128582
0.000105155
0.000105123
4.86239e-05
0.000128483
7.78386e-05
0.000128535
0.000105099
4.86309e-05
0.000105124
4.86399e-05
0.000128511
7.7855e-05
0.0001051
4.86401e-05
0.000128572
8.14645e-05
2.1703e-05
2.17064e-05
2.1701e-05
2.17044e-05
8.14724e-05
2.38859e-05
2.38856e-05
3.66935e-05
9.43545e-05
4.10399e-05
9.96789e-05
9.43203e-05
4.10334e-05
3.67006e-05
2.03084e-05
5.0715e-05
7.89835e-05
7.90027e-05
2.03064e-05
2.03083e-05
7.90147e-05
5.07143e-05
7.89958e-05
2.03104e-05
3.66968e-05
9.9685e-05
9.4296e-05
4.10294e-05
9.43304e-05
4.10355e-05
3.66895e-05
3.66994e-05
9.43567e-05
4.10403e-05
9.96857e-05
9.43305e-05
4.10339e-05
3.66983e-05
2.03089e-05
5.07152e-05
7.89972e-05
7.90096e-05
2.03068e-05
2.03087e-05
7.90216e-05
5.07146e-05
7.90093e-05
2.03108e-05
3.66947e-05
9.96907e-05
9.43055e-05
4.10299e-05
9.43325e-05
4.10358e-05
3.66957e-05
3.67044e-05
9.43452e-05
4.10379e-05
9.97462e-05
3.66974e-05
9.43789e-05
4.10442e-05
2.03121e-05
5.07246e-05
7.90379e-05
7.90195e-05
2.03142e-05
2.03123e-05
7.90077e-05
5.07248e-05
2.03102e-05
7.90264e-05
3.67009e-05
9.97402e-05
9.44023e-05
4.10484e-05
9.43691e-05
4.1042e-05
3.6707e-05
3.6702e-05
9.43546e-05
4.10383e-05
9.97519e-05
3.6703e-05
9.4381e-05
4.10445e-05
2.03125e-05
5.07247e-05
7.90448e-05
7.90327e-05
2.03146e-05
2.03127e-05
7.90213e-05
5.07252e-05
2.03106e-05
7.90334e-05
3.67068e-05
9.97469e-05
9.44041e-05
4.10488e-05
9.43785e-05
4.10425e-05
3.67059e-05
2.38807e-05
2.3881e-05
2.38803e-05
2.38806e-05
8.14625e-05
2.17027e-05
2.16998e-05
8.14551e-05
2.17047e-05
2.17018e-05
0.00010513
0.000128638
7.78598e-05
4.86441e-05
0.000105154
0.00012858
4.8644e-05
0.000105141
0.000128624
7.78587e-05
4.86347e-05
0.000105159
0.000128563
4.86346e-05
0.000105123
4.86391e-05
0.000128509
7.78531e-05
0.000105099
0.000128568
4.86396e-05
0.000105128
4.86298e-05
0.000128492
7.78522e-05
0.000105109
0.000128554
4.86303e-05
8.1465e-05
2.17066e-05
2.17036e-05
8.14723e-05
2.17046e-05
2.17016e-05
2.38856e-05
2.38853e-05
2.38852e-05
2.38849e-05
2.03158e-05
7.90306e-05
5.07326e-05
2.03138e-05
7.90481e-05
3.67071e-05
9.98027e-05
4.10461e-05
9.4402e-05
3.67085e-05
4.1053e-05
9.44243e-05
5.0736e-05
2.38898e-05
2.38895e-05
0.000199188
0.000199187
0.00020406
0.000199997
0.000199996
0.00018929
0.000188267
0.000137903
0.000160891
0.000160884
0.000180822
0.000160989
0.000160972
0.000137856
0.000138244
0.00016153
0.000161521
0.00018178
0.000138197
0.000161621
0.000161606
0.000137904
0.000160893
0.000160881
0.000180823
0.000160982
0.00016097
0.000137855
0.000138114
0.000181317
0.000161453
0.000161439
0.00016137
0.000161358
0.00013816
0.000137902
0.000160896
0.000160923
0.000180754
0.000160978
0.000160952
0.000137864
0.000138122
0.000181401
0.000161429
0.000161446
0.000161372
0.00016139
0.000138158
0.000137892
0.000160874
0.000160896
0.000180793
0.000160963
0.000160941
0.000137853
0.000138114
0.000181383
0.000161424
0.000161446
0.000161365
0.000161391
0.000138151
0.000138115
0.000181318
0.000161457
0.000161447
0.000138159
0.000161376
0.000161353
0.00019919
0.000199195
0.000204067
0.000199999
0.000200004
0.000189293
0.00018827
0.000199194
0.0001992
0.000204066
0.000200003
0.00020001
0.000189299
0.000188276
0.000199203
0.000199202
0.000204074
0.000200012
0.000200012
0.000189302
0.000188279
0.000204692
0.0002016
0.000201599
0.000200803
0.000200802
0.000190311
0.000191329
0.000204699
0.000201602
0.000201608
0.000200805
0.00020081
0.000190314
0.000191332
0.000204698
0.000201606
0.000201613
0.000200809
0.000200816
0.000190321
0.000191338
0.000204707
0.000201615
0.000201615
0.000200819
0.000200818
0.000190324
0.000191341
0.000170427
0.00013723
0.000175651
0.000143606
0.000137133
0.000175531
0.000170537
0.000159992
0.000146882
0.000103395
0.000122355
0.000146958
0.000122424
0.000159864
0.000160021
0.00012249
0.000103392
0.000147082
0.000147008
0.000122421
0.000160153
0.000170329
0.000143603
0.000137041
0.000175313
0.000137138
0.00017542
0.000170227
0.000170411
0.000175653
0.000137222
0.000143601
0.000175514
0.000137125
0.000170553
0.000159992
0.000146881
0.000103398
0.000122348
0.000146958
0.000122419
0.000159858
0.000160014
0.000122485
0.000103394
0.000147081
0.000147007
0.000122415
0.000160155
0.000170338
0.000143599
0.000175284
0.000137033
0.000175424
0.00013713
0.000170214
0.000137944
0.00018084
0.000161149
0.000161128
0.000161055
0.000161044
0.00013799
0.000137944
0.00018084
0.00016114
0.000161129
0.00013799
0.000161055
0.000161042
0.000138077
0.000181293
0.000161211
0.000161198
0.00013803
0.000161294
0.000161282
0.000170428
0.000137204
0.000175584
0.000143612
0.000137131
0.000175571
0.000170474
0.000159929
0.00014689
0.000103395
0.000122343
0.000122407
0.000146928
0.000159894
0.000160051
0.000122473
0.000103393
0.000147053
0.000122411
0.000147015
0.000160086
0.000170273
0.000143587
0.000137038
0.000175336
0.000137113
0.000175356
0.000170226
0.000170414
0.000137223
0.000175584
0.000143612
0.000137125
0.000175567
0.00017052
0.000159973
0.000146863
0.000103394
0.000122346
0.000122416
0.000146935
0.000159844
0.000160002
0.000122482
0.000103391
0.000147039
0.000122413
0.000160133
0.000146991
0.000170312
0.000143589
0.000137033
0.000175332
0.00013713
0.000175359
0.00017021
0.000170682
0.000137222
0.000175783
0.000143801
0.00017063
0.000137296
0.000175798
0.000160368
0.000147294
0.000103474
0.000122601
0.000147259
0.000122543
0.000160392
0.000160236
0.000122476
0.000147136
0.000103476
0.000147175
0.000160211
0.000122538
0.000170829
0.000143822
0.000137384
0.000176004
0.000137313
0.000175998
0.000170878
0.000170729
0.000137219
0.000175783
0.000143803
0.00017061
0.000137313
0.000175801
0.000160305
0.000147289
0.000103471
0.000122611
0.000122544
0.000147242
0.000160454
0.000160297
0.000122479
0.000147117
0.000103474
0.000160159
0.000122548
0.000147161
0.000170791
0.000143824
0.000137401
0.000176008
0.000137311
0.000175998
0.000170936
0.000137952
0.000180917
0.000161113
0.000161132
0.000161074
0.000161058
0.000137989
0.000138074
0.00018124
0.000161216
0.000161233
0.000161275
0.000138038
0.000161293
0.000170407
0.000137224
0.000175646
0.000143602
0.000137126
0.000175509
0.000170538
0.000159977
0.000146863
0.000103389
0.000122345
0.000122416
0.000146939
0.000159845
0.000160002
0.000122482
0.000103385
0.000147058
0.000122412
0.000146989
0.000160139
0.000170324
0.000143601
0.000137035
0.00017528
0.000137132
0.000175417
0.000170206
0.000170413
0.000175639
0.000137199
0.000143597
0.000175506
0.000137124
0.000170495
0.000159915
0.000146866
0.000103375
0.000122331
0.000122395
0.000146902
0.000159877
0.000160035
0.000122461
0.000103372
0.000147025
0.000122399
0.000160072
0.000146989
0.000170298
0.000143595
0.00017528
0.000137031
0.00017541
0.000137108
0.000170211
0.00017075
0.00013722
0.000175722
0.000143814
0.000170594
0.000137316
0.00017586
0.0001603
0.00014728
0.000103465
0.000122611
0.000147237
0.000122543
0.000160463
0.000160306
0.000122478
0.000147112
0.000103469
0.000147167
0.000160157
0.000122547
0.000170767
0.000143816
0.000137405
0.000176076
0.00013731
0.00017594
0.000170944
0.000170689
0.000175719
0.000137216
0.000143809
0.000170614
0.000175853
0.000137291
0.00016035
0.00014728
0.000103452
0.00012259
0.000122531
0.000147221
0.000160382
0.000160222
0.000122464
0.00014711
0.000103455
0.000160195
0.000122527
0.000147154
0.000170812
0.000143811
0.000176068
0.000137379
0.000175937
0.000137307
0.000170883
0.000170437
0.000175591
0.00013721
0.000143616
0.000175576
0.000137136
0.000170479
0.000159934
0.000146892
0.000103393
0.000122349
0.000146929
0.000122409
0.000159899
0.000160055
0.000122475
0.000103392
0.000147054
0.000147017
0.000122416
0.000160089
0.000170279
0.000143592
0.000175344
0.000137044
0.000175365
0.000137118
0.000170237
0.000170748
0.000137226
0.000175741
0.000143816
0.00017062
0.000137321
0.000175866
0.00016032
0.000147319
0.000103472
0.000122619
0.000160483
0.000147259
0.000122553
0.00016032
0.000122488
0.000147129
0.000103476
0.000160177
0.000147201
0.000122555
0.000170797
0.000143819
0.000137411
0.000176082
0.000170956
0.000137316
0.000175953
0.000170689
0.000175788
0.000137228
0.000143805
0.000170637
0.000175805
0.000137302
0.000160372
0.000147295
0.000103472
0.000122604
0.000122547
0.00014726
0.000160399
0.00016024
0.000122482
0.000147137
0.000103474
0.000160215
0.000122541
0.000147176
0.000170834
0.000143826
0.000176013
0.000137389
0.000176002
0.000137318
0.000170887
0.000137943
0.00018085
0.000161102
0.000161125
0.00016107
0.000161048
0.00013798
0.000138065
0.000181238
0.00016121
0.000161233
0.000161267
0.00013803
0.000161288
0.000170425
0.000175648
0.000137211
0.000143603
0.000175514
0.000137135
0.00017051
0.000159931
0.000146883
0.000103392
0.000122345
0.00014692
0.00012241
0.000159893
0.000160051
0.000122476
0.00010339
0.000147045
0.000147008
0.000122413
0.000160088
0.000170311
0.0001436
0.000175287
0.000137042
0.00017542
0.000137119
0.000170223
0.000170762
0.000175728
0.000137218
0.000143812
0.000170595
0.000175866
0.000137313
0.000160306
0.000147317
0.000103474
0.000122614
0.000160483
0.000147257
0.000122546
0.000160322
0.000122481
0.000147128
0.000103478
0.000160166
0.000147199
0.00012255
0.000170767
0.000143814
0.000176082
0.000137402
0.000170958
0.000175945
0.000137308
0.000170704
0.000175728
0.000137227
0.000143813
0.000170625
0.000175862
0.000137302
0.000160369
0.000147293
0.00010347
0.000122605
0.000122543
0.000147254
0.000160394
0.000160239
0.000122478
0.000147129
0.000103473
0.000160211
0.000122541
0.000147168
0.000170824
0.000143816
0.000176077
0.00013739
0.000175946
0.000137318
0.000170895
0.000138075
0.000181292
0.000161211
0.0001612
0.00013803
0.0001613
0.000161284
0.000160549
0.000147378
0.00012261
0.000103549
0.000147406
0.000160527
0.000122664
0.000171078
0.000144006
0.000176226
0.000137407
0.000176219
0.000171021
0.000137475
0.000147363
0.000103549
0.000147393
0.000123038
0.000139418
0.000139422
0.000137212
0.000125835
0.000142544
0.000142548
0.00013967
0.000128792
0.000145633
0.000145637
0.000142063
0.000131887
0.000148676
0.00014868
0.000144367
0.000135099
0.000151671
0.000151675
0.00014668
0.000138409
0.000154611
0.000154615
0.000148849
0.000141797
0.000157489
0.000157495
0.000151008
0.000145245
0.000160306
0.000160312
0.00015308
0.000148736
0.000163059
0.000163064
0.000155159
0.000152256
0.000165745
0.00016575
0.000157133
0.000155789
0.000168364
0.000168368
0.000159021
0.000159322
0.000170914
0.000170916
0.000160921
0.000162842
0.000173393
0.000173395
0.000162714
0.000166337
0.000175801
0.000175801
0.000164428
0.000169798
0.000178136
0.000178136
0.000166107
0.000173216
0.000180396
0.000180395
0.000167741
0.000176582
0.000182581
0.000182579
0.000169285
0.000179887
0.000184689
0.000184686
0.000170777
0.000183126
0.00018672
0.000186716
0.000172223
0.00018629
0.000188674
0.000188669
0.000173597
0.000189374
0.000190549
0.000190544
0.000174927
0.000192372
0.000192346
0.000192341
0.000176187
0.00019528
0.000194065
0.000194058