/*--------------------------------*- C++ -*----------------------------------*\
| =========                 |                                                 |
| \\      /  F ield         | OpenFOAM: The Open Source CFD Toolbox           |
|  \\    /   O peration     | Version:  v1906                                 |
|   \\  /    A nd           | Web:      www.OpenFOAM.com                      |
|    \\/     M anipulation  |                                                 |
\*---------------------------------------------------------------------------*/
FoamFile
{
    version     2.0;
    format      ascii;
    class       volScalarField;
    location    "0.005";
    object      p;
}
// * * * * * * * * * * * * * * * * * * * * * * * * * * * * * * * * * * * * * //

dimensions      [0 2 -2 0 0 0 0];


internalField   nonuniform List<scalar> 
247104
(
4.61503e-14
-1.24998e-06
-1.00209e-06
-6.37242e-07
-6.11868e-07
-6.63922e-07
-1.04728e-06
-1.26891e-06
-1.25967e-06
-1.3714e-06
-1.41436e-06
-1.38798e-06
-1.38151e-06
-1.39087e-06
-1.41459e-06
-1.35729e-06
-1.01428e-06
-1.41824e-06
-1.68795e-06
-1.81584e-06
-1.85004e-06
-1.80571e-06
-1.66265e-06
-1.37084e-06
-9.56713e-07
-6.49763e-07
-1.39334e-06
-1.81761e-06
-2.02344e-06
-2.07969e-06
-2.00684e-06
-1.77809e-06
-1.31784e-06
-5.25056e-07
-1.56707e-08
-6.21369e-07
-1.38677e-06
-1.85257e-06
-2.08065e-06
-2.14319e-06
-2.06224e-06
-1.80917e-06
-1.30609e-06
-5.11007e-07
-6.72098e-07
-1.39587e-06
-1.80855e-06
-2.00833e-06
-2.06285e-06
-1.9923e-06
-1.77056e-06
-1.32424e-06
-5.56865e-07
-1.05437e-06
-1.41912e-06
-1.66552e-06
-1.77987e-06
-1.81017e-06
-1.77099e-06
-1.64314e-06
-1.37801e-06
-1.01125e-06
-1.27341e-06
-1.36078e-06
-1.37345e-06
-1.3198e-06
-1.30745e-06
-1.32501e-06
-1.3783e-06
-1.35253e-06
-9.58773e-07
-5.27363e-07
-5.13082e-07
-5.5796e-07
-1.01136e-06
-1.07457e-05
-1.02315e-05
-8.02944e-06
-8.96014e-06
-9.25665e-06
-9.28679e-06
-9.15321e-06
-8.52678e-06
-7.95893e-06
-8.02965e-06
-8.49432e-06
-9.15275e-06
-9.1694e-06
-9.16932e-06
-9.1525e-06
-8.61881e-06
-8.43237e-06
-8.95957e-06
-9.15268e-06
-9.07888e-06
-9.05498e-06
-9.05489e-06
-9.07859e-06
-9.15212e-06
-8.83741e-06
-9.11775e-06
-1.07414e-05
-9.25575e-06
-9.16917e-06
-9.05486e-06
-9.01045e-06
-9.01036e-06
-9.0546e-06
-9.16867e-06
-9.08029e-06
-9.9951e-06
-1.02265e-05
-9.28562e-06
-9.16892e-06
-9.05462e-06
-9.01021e-06
-9.01015e-06
-9.0544e-06
-9.16847e-06
-9.11657e-06
-9.61269e-06
-9.15212e-06
-9.15192e-06
-9.07813e-06
-9.05427e-06
-9.05424e-06
-9.07799e-06
-9.15156e-06
-8.99103e-06
-9.95503e-06
-8.52605e-06
-8.61777e-06
-9.1514e-06
-9.16812e-06
-9.16814e-06
-9.15144e-06
-8.70913e-06
-8.59008e-06
-8.72319e-06
-7.95347e-06
-8.43104e-06
-8.83593e-06
-9.07883e-06
-9.11551e-06
-8.9905e-06
-8.58999e-06
-8.0564e-06
-9.11504e-06
-9.9915e-06
-9.61084e-06
-9.95314e-06
-8.72275e-06
-1.14992e-05
-1.1532e-05
-1.14866e-05
-1.18181e-05
-1.18504e-05
-1.18541e-05
-1.18392e-05
-1.15605e-05
-1.14864e-05
-1.14892e-05
-1.18626e-05
-1.24019e-05
-1.24002e-05
-1.24002e-05
-1.24018e-05
-1.19498e-05
-1.17999e-05
-1.18192e-05
-1.2402e-05
-1.23922e-05
-1.23875e-05
-1.23875e-05
-1.23921e-05
-1.24018e-05
-1.19101e-05
-1.15356e-05
-1.14998e-05
-1.18511e-05
-1.24003e-05
-1.23875e-05
-1.23812e-05
-1.23812e-05
-1.23874e-05
-1.24e-05
-1.19484e-05
-1.15952e-05
-1.15325e-05
-1.18544e-05
-1.24002e-05
-1.23875e-05
-1.23812e-05
-1.23811e-05
-1.23873e-05
-1.23999e-05
-1.19527e-05
-1.1797e-05
-1.18392e-05
-1.24017e-05
-1.23919e-05
-1.23873e-05
-1.23873e-05
-1.23918e-05
-1.24015e-05
-1.19364e-05
-1.15759e-05
-1.15604e-05
-1.19495e-05
-1.24016e-05
-1.23999e-05
-1.23998e-05
-1.24014e-05
-1.20387e-05
-1.18492e-05
-1.15041e-05
-1.14858e-05
-1.17998e-05
-1.19101e-05
-1.19483e-05
-1.19526e-05
-1.19364e-05
-1.18493e-05
-1.15949e-05
-1.1536e-05
-1.15951e-05
-1.17969e-05
-1.15757e-05
-1.15046e-05
-1.45443e-05
-1.45718e-05
-1.45823e-05
-1.49047e-05
-1.49283e-05
-1.49287e-05
-1.49208e-05
-1.46443e-05
-1.45816e-05
-1.45823e-05
-1.49684e-05
-1.55192e-05
-1.55189e-05
-1.55189e-05
-1.55192e-05
-1.50583e-05
-1.49021e-05
-1.49047e-05
-1.55192e-05
-1.55184e-05
-1.5518e-05
-1.5518e-05
-1.55184e-05
-1.55192e-05
-1.50067e-05
-1.46102e-05
-1.45444e-05
-1.49284e-05
-1.5519e-05
-1.5518e-05
-1.55175e-05
-1.55175e-05
-1.5518e-05
-1.5519e-05
-1.50382e-05
-1.46539e-05
-1.4572e-05
-1.49289e-05
-1.5519e-05
-1.5518e-05
-1.55175e-05
-1.55175e-05
-1.5518e-05
-1.5519e-05
-1.50405e-05
-1.48607e-05
-1.49211e-05
-1.55192e-05
-1.55184e-05
-1.5518e-05
-1.5518e-05
-1.55184e-05
-1.55192e-05
-1.50292e-05
-1.46371e-05
-1.46456e-05
-1.50584e-05
-1.55192e-05
-1.55189e-05
-1.55189e-05
-1.55192e-05
-1.51518e-05
-1.49506e-05
-1.45842e-05
-1.45825e-05
-1.4902e-05
-1.50065e-05
-1.5038e-05
-1.50404e-05
-1.50292e-05
-1.49505e-05
-1.46964e-05
-1.46097e-05
-1.46536e-05
-1.48606e-05
-1.4637e-05
-1.45841e-05
-1.76502e-05
-1.76776e-05
-1.76898e-05
-1.80125e-05
-1.80361e-05
-1.80364e-05
-1.80289e-05
-1.77529e-05
-1.769e-05
-1.76898e-05
-1.8077e-05
-1.86295e-05
-1.86295e-05
-1.86295e-05
-1.86295e-05
-1.81674e-05
-1.80103e-05
-1.80126e-05
-1.86295e-05
-1.86295e-05
-1.86295e-05
-1.86295e-05
-1.86295e-05
-1.86295e-05
-1.81149e-05
-1.77166e-05
-1.76502e-05
-1.80361e-05
-1.86295e-05
-1.86295e-05
-1.86295e-05
-1.86295e-05
-1.86295e-05
-1.86295e-05
-1.81465e-05
-1.77602e-05
-1.76777e-05
-1.80365e-05
-1.86295e-05
-1.86295e-05
-1.86295e-05
-1.86295e-05
-1.86295e-05
-1.86295e-05
-1.81488e-05
-1.79676e-05
-1.80289e-05
-1.86295e-05
-1.86295e-05
-1.86295e-05
-1.86295e-05
-1.86295e-05
-1.86295e-05
-1.81377e-05
-1.77437e-05
-1.7753e-05
-1.81674e-05
-1.86295e-05
-1.86295e-05
-1.86295e-05
-1.86295e-05
-1.82612e-05
-1.8059e-05
-1.76912e-05
-1.76901e-05
-1.80103e-05
-1.81149e-05
-1.81464e-05
-1.81488e-05
-1.81377e-05
-1.8059e-05
-1.78044e-05
-1.77166e-05
-1.77602e-05
-1.79676e-05
-1.77437e-05
-1.76912e-05
-2.07595e-05
-2.07869e-05
-2.07991e-05
-2.1122e-05
-2.11455e-05
-2.11459e-05
-2.11383e-05
-2.08623e-05
-2.07994e-05
-2.07992e-05
-2.11865e-05
-2.17391e-05
-2.17391e-05
-2.17391e-05
-2.17391e-05
-2.12769e-05
-2.11198e-05
-2.1122e-05
-2.17391e-05
-2.17391e-05
-2.17391e-05
-2.17391e-05
-2.17391e-05
-2.17391e-05
-2.12244e-05
-2.08259e-05
-2.07595e-05
-2.11455e-05
-2.17391e-05
-2.17391e-05
-2.17392e-05
-2.17392e-05
-2.17391e-05
-2.17391e-05
-2.12559e-05
-2.08695e-05
-2.0787e-05
-2.11459e-05
-2.17391e-05
-2.17391e-05
-2.17392e-05
-2.17392e-05
-2.17391e-05
-2.17391e-05
-2.12583e-05
-2.1077e-05
-2.11384e-05
-2.17391e-05
-2.17391e-05
-2.17391e-05
-2.17391e-05
-2.17391e-05
-2.17391e-05
-2.12471e-05
-2.0853e-05
-2.08624e-05
-2.12769e-05
-2.17391e-05
-2.17391e-05
-2.17391e-05
-2.17391e-05
-2.13707e-05
-2.11685e-05
-2.08006e-05
-2.07994e-05
-2.11198e-05
-2.12244e-05
-2.12559e-05
-2.12583e-05
-2.12471e-05
-2.11685e-05
-2.09138e-05
-2.0826e-05
-2.08695e-05
-2.1077e-05
-2.08531e-05
-2.08006e-05
-2.38689e-05
-2.38964e-05
-2.39086e-05
-2.42314e-05
-2.4255e-05
-2.42553e-05
-2.42478e-05
-2.39718e-05
-2.39089e-05
-2.39086e-05
-2.42959e-05
-2.48485e-05
-2.48485e-05
-2.48486e-05
-2.48486e-05
-2.43863e-05
-2.42292e-05
-2.42315e-05
-2.48486e-05
-2.48486e-05
-2.48486e-05
-2.48486e-05
-2.48486e-05
-2.48486e-05
-2.43339e-05
-2.39354e-05
-2.3869e-05
-2.4255e-05
-2.48486e-05
-2.48486e-05
-2.48486e-05
-2.48486e-05
-2.48486e-05
-2.48486e-05
-2.43654e-05
-2.3979e-05
-2.38964e-05
-2.42554e-05
-2.48486e-05
-2.48486e-05
-2.48486e-05
-2.48486e-05
-2.48486e-05
-2.48486e-05
-2.43678e-05
-2.41865e-05
-2.42479e-05
-2.48486e-05
-2.48486e-05
-2.48486e-05
-2.48486e-05
-2.48486e-05
-2.48486e-05
-2.43566e-05
-2.39625e-05
-2.39719e-05
-2.43864e-05
-2.48486e-05
-2.48486e-05
-2.48486e-05
-2.48486e-05
-2.44802e-05
-2.4278e-05
-2.39101e-05
-2.39089e-05
-2.42293e-05
-2.43339e-05
-2.43654e-05
-2.43678e-05
-2.43566e-05
-2.4278e-05
-2.40233e-05
-2.39355e-05
-2.3979e-05
-2.41865e-05
-2.39625e-05
-2.39101e-05
-2.69782e-05
-2.70057e-05
-2.70178e-05
-2.73407e-05
-2.73642e-05
-2.73646e-05
-2.73571e-05
-2.70811e-05
-2.70182e-05
-2.7018e-05
-2.74053e-05
-2.79579e-05
-2.79579e-05
-2.79579e-05
-2.79579e-05
-2.74957e-05
-2.73386e-05
-2.73409e-05
-2.7958e-05
-2.7958e-05
-2.7958e-05
-2.7958e-05
-2.7958e-05
-2.7958e-05
-2.74433e-05
-2.70448e-05
-2.69784e-05
-2.73644e-05
-2.79581e-05
-2.79581e-05
-2.79581e-05
-2.79581e-05
-2.79581e-05
-2.79581e-05
-2.74748e-05
-2.70884e-05
-2.70059e-05
-2.73649e-05
-2.79581e-05
-2.79581e-05
-2.79581e-05
-2.79581e-05
-2.79581e-05
-2.79581e-05
-2.74773e-05
-2.7296e-05
-2.73573e-05
-2.79581e-05
-2.79581e-05
-2.79581e-05
-2.79581e-05
-2.79581e-05
-2.79581e-05
-2.74661e-05
-2.7072e-05
-2.70814e-05
-2.74959e-05
-2.79582e-05
-2.79582e-05
-2.79582e-05
-2.79582e-05
-2.75897e-05
-2.73875e-05
-2.70196e-05
-2.70184e-05
-2.73388e-05
-2.74434e-05
-2.74749e-05
-2.74773e-05
-2.74662e-05
-2.73875e-05
-2.71328e-05
-2.7045e-05
-2.70885e-05
-2.7296e-05
-2.70721e-05
-2.70196e-05
-3.00877e-05
-3.01152e-05
-3.01274e-05
-3.04503e-05
-3.04738e-05
-3.04742e-05
-3.04667e-05
-3.01905e-05
-3.01276e-05
-3.01275e-05
-3.05149e-05
-3.10676e-05
-3.10676e-05
-3.10676e-05
-3.10676e-05
-3.06053e-05
-3.04482e-05
-3.04505e-05
-3.10676e-05
-3.10676e-05
-3.10677e-05
-3.10677e-05
-3.10677e-05
-3.10677e-05
-3.05529e-05
-3.01544e-05
-3.0088e-05
-3.0474e-05
-3.10677e-05
-3.10677e-05
-3.10677e-05
-3.10677e-05
-3.10677e-05
-3.10677e-05
-3.05845e-05
-3.0198e-05
-3.01155e-05
-3.04745e-05
-3.10677e-05
-3.10677e-05
-3.10677e-05
-3.10677e-05
-3.10678e-05
-3.10678e-05
-3.05869e-05
-3.04056e-05
-3.04669e-05
-3.10678e-05
-3.10678e-05
-3.10678e-05
-3.10678e-05
-3.10678e-05
-3.10678e-05
-3.05757e-05
-3.01816e-05
-3.01909e-05
-3.06055e-05
-3.10678e-05
-3.10678e-05
-3.10678e-05
-3.10678e-05
-3.06993e-05
-3.04971e-05
-3.01292e-05
-3.0128e-05
-3.04484e-05
-3.0553e-05
-3.05846e-05
-3.05869e-05
-3.05758e-05
-3.04971e-05
-3.02424e-05
-3.01546e-05
-3.01981e-05
-3.04057e-05
-3.01817e-05
-3.01292e-05
-3.31973e-05
-3.32249e-05
-3.32366e-05
-3.35596e-05
-3.35834e-05
-3.3584e-05
-3.35765e-05
-3.33005e-05
-3.32376e-05
-3.32371e-05
-3.36244e-05
-3.41773e-05
-3.41774e-05
-3.41774e-05
-3.41774e-05
-3.37152e-05
-3.3558e-05
-3.35602e-05
-3.41774e-05
-3.41774e-05
-3.41774e-05
-3.41775e-05
-3.41775e-05
-3.41775e-05
-3.36627e-05
-3.32642e-05
-3.31977e-05
-3.35838e-05
-3.41775e-05
-3.41775e-05
-3.41775e-05
-3.41775e-05
-3.41775e-05
-3.41775e-05
-3.36942e-05
-3.33078e-05
-3.32252e-05
-3.35842e-05
-3.41775e-05
-3.41775e-05
-3.41775e-05
-3.41775e-05
-3.41775e-05
-3.41775e-05
-3.36966e-05
-3.35153e-05
-3.35767e-05
-3.41775e-05
-3.41775e-05
-3.41775e-05
-3.41775e-05
-3.41775e-05
-3.41775e-05
-3.36855e-05
-3.32914e-05
-3.33007e-05
-3.37153e-05
-3.41775e-05
-3.41775e-05
-3.41775e-05
-3.41775e-05
-3.38091e-05
-3.36069e-05
-3.32389e-05
-3.32377e-05
-3.35581e-05
-3.36628e-05
-3.36943e-05
-3.36967e-05
-3.36855e-05
-3.36069e-05
-3.33522e-05
-3.32643e-05
-3.33079e-05
-3.35154e-05
-3.32914e-05
-3.32389e-05
-3.63077e-05
-3.63351e-05
-3.63478e-05
-3.66704e-05
-3.66938e-05
-3.66941e-05
-3.66865e-05
-3.64105e-05
-3.63475e-05
-3.63475e-05
-3.6735e-05
-3.72875e-05
-3.72874e-05
-3.72874e-05
-3.72874e-05
-3.68251e-05
-3.66679e-05
-3.66703e-05
-3.72875e-05
-3.72874e-05
-3.72874e-05
-3.72874e-05
-3.72874e-05
-3.72874e-05
-3.67726e-05
-3.63741e-05
-3.63077e-05
-3.66938e-05
-3.72874e-05
-3.72874e-05
-3.72874e-05
-3.72874e-05
-3.72874e-05
-3.72874e-05
-3.68041e-05
-3.64176e-05
-3.63351e-05
-3.66941e-05
-3.72874e-05
-3.72874e-05
-3.72874e-05
-3.72874e-05
-3.72874e-05
-3.72874e-05
-3.68065e-05
-3.66252e-05
-3.66865e-05
-3.72874e-05
-3.72874e-05
-3.72874e-05
-3.72874e-05
-3.72874e-05
-3.72874e-05
-3.67953e-05
-3.64012e-05
-3.64105e-05
-3.68251e-05
-3.72874e-05
-3.72874e-05
-3.72874e-05
-3.72874e-05
-3.69189e-05
-3.67167e-05
-3.63487e-05
-3.63476e-05
-3.66679e-05
-3.67726e-05
-3.68041e-05
-3.68065e-05
-3.67953e-05
-3.67167e-05
-3.6462e-05
-3.63741e-05
-3.64177e-05
-3.66252e-05
-3.64012e-05
-3.63487e-05
-3.94176e-05
-3.9445e-05
-3.9457e-05
-3.97801e-05
-3.98036e-05
-3.9804e-05
-3.97964e-05
-3.95204e-05
-3.94574e-05
-3.94571e-05
-3.98445e-05
-4.03973e-05
-4.03973e-05
-4.03972e-05
-4.03972e-05
-3.99349e-05
-3.97778e-05
-3.978e-05
-4.03972e-05
-4.03972e-05
-4.03972e-05
-4.03972e-05
-4.03972e-05
-4.03972e-05
-3.98824e-05
-3.94839e-05
-3.94175e-05
-3.98035e-05
-4.03972e-05
-4.03972e-05
-4.03972e-05
-4.03972e-05
-4.03972e-05
-4.03972e-05
-3.99139e-05
-3.95275e-05
-3.94449e-05
-3.98039e-05
-4.03972e-05
-4.03972e-05
-4.03972e-05
-4.03972e-05
-4.03972e-05
-4.03972e-05
-3.99163e-05
-3.9735e-05
-3.97964e-05
-4.03972e-05
-4.03972e-05
-4.03972e-05
-4.03972e-05
-4.03972e-05
-4.03972e-05
-3.99051e-05
-3.9511e-05
-3.95203e-05
-3.99349e-05
-4.03972e-05
-4.03972e-05
-4.03972e-05
-4.03972e-05
-4.00287e-05
-3.98265e-05
-3.94585e-05
-3.94574e-05
-3.97778e-05
-3.98824e-05
-3.99139e-05
-3.99163e-05
-3.99051e-05
-3.98265e-05
-3.95718e-05
-3.94839e-05
-3.95275e-05
-3.9735e-05
-3.9511e-05
-3.94586e-05
-4.25274e-05
-4.25548e-05
-4.25671e-05
-4.28899e-05
-4.29134e-05
-4.29137e-05
-4.29062e-05
-4.26301e-05
-4.25672e-05
-4.2567e-05
-4.29544e-05
-4.3507e-05
-4.3507e-05
-4.3507e-05
-4.3507e-05
-4.30447e-05
-4.28875e-05
-4.28898e-05
-4.3507e-05
-4.3507e-05
-4.3507e-05
-4.3507e-05
-4.3507e-05
-4.3507e-05
-4.29922e-05
-4.25937e-05
-4.25273e-05
-4.29133e-05
-4.3507e-05
-4.3507e-05
-4.3507e-05
-4.3507e-05
-4.3507e-05
-4.3507e-05
-4.30237e-05
-4.26372e-05
-4.25547e-05
-4.29137e-05
-4.3507e-05
-4.3507e-05
-4.3507e-05
-4.3507e-05
-4.3507e-05
-4.3507e-05
-4.30261e-05
-4.28448e-05
-4.29062e-05
-4.3507e-05
-4.3507e-05
-4.3507e-05
-4.3507e-05
-4.3507e-05
-4.3507e-05
-4.30149e-05
-4.26208e-05
-4.26301e-05
-4.30447e-05
-4.3507e-05
-4.3507e-05
-4.3507e-05
-4.3507e-05
-4.31385e-05
-4.29363e-05
-4.25683e-05
-4.25672e-05
-4.28875e-05
-4.29922e-05
-4.30237e-05
-4.30261e-05
-4.30149e-05
-4.29363e-05
-4.26816e-05
-4.25937e-05
-4.26373e-05
-4.28448e-05
-4.26208e-05
-4.25683e-05
-4.5637e-05
-4.56644e-05
-4.56766e-05
-4.59995e-05
-4.6023e-05
-4.60234e-05
-4.60158e-05
-4.57398e-05
-4.56769e-05
-4.56767e-05
-4.6064e-05
-4.66167e-05
-4.66167e-05
-4.66166e-05
-4.66166e-05
-4.61544e-05
-4.59972e-05
-4.59995e-05
-4.66167e-05
-4.66167e-05
-4.66167e-05
-4.66167e-05
-4.66167e-05
-4.66166e-05
-4.61019e-05
-4.57034e-05
-4.5637e-05
-4.60231e-05
-4.66167e-05
-4.66167e-05
-4.66167e-05
-4.66167e-05
-4.66167e-05
-4.66167e-05
-4.61334e-05
-4.5747e-05
-4.56645e-05
-4.60234e-05
-4.66167e-05
-4.66167e-05
-4.66167e-05
-4.66167e-05
-4.66167e-05
-4.66167e-05
-4.61358e-05
-4.59545e-05
-4.60159e-05
-4.66167e-05
-4.66167e-05
-4.66167e-05
-4.66167e-05
-4.66167e-05
-4.66167e-05
-4.61246e-05
-4.57305e-05
-4.57399e-05
-4.61545e-05
-4.66168e-05
-4.66167e-05
-4.66167e-05
-4.66167e-05
-4.62482e-05
-4.6046e-05
-4.56781e-05
-4.5677e-05
-4.59973e-05
-4.6102e-05
-4.61335e-05
-4.61359e-05
-4.61247e-05
-4.60461e-05
-4.57913e-05
-4.57035e-05
-4.57471e-05
-4.59546e-05
-4.57306e-05
-4.56781e-05
-4.87466e-05
-4.87739e-05
-4.87863e-05
-4.91091e-05
-4.91326e-05
-4.91329e-05
-4.91252e-05
-4.88492e-05
-4.87863e-05
-4.87864e-05
-4.91737e-05
-4.97264e-05
-4.97263e-05
-4.97263e-05
-4.97262e-05
-4.92639e-05
-4.91067e-05
-4.91093e-05
-4.97264e-05
-4.97264e-05
-4.97264e-05
-4.97263e-05
-4.97263e-05
-4.97263e-05
-4.92115e-05
-4.8813e-05
-4.87467e-05
-4.91328e-05
-4.97265e-05
-4.97265e-05
-4.97264e-05
-4.97264e-05
-4.97264e-05
-4.97264e-05
-4.92431e-05
-4.88566e-05
-4.87742e-05
-4.91332e-05
-4.97265e-05
-4.97265e-05
-4.97265e-05
-4.97265e-05
-4.97265e-05
-4.97264e-05
-4.92455e-05
-4.90642e-05
-4.91257e-05
-4.97265e-05
-4.97265e-05
-4.97265e-05
-4.97265e-05
-4.97265e-05
-4.97265e-05
-4.92344e-05
-4.88403e-05
-4.88497e-05
-4.92643e-05
-4.97266e-05
-4.97266e-05
-4.97266e-05
-4.97266e-05
-4.93581e-05
-4.91558e-05
-4.87879e-05
-4.87868e-05
-4.91072e-05
-4.92118e-05
-4.92434e-05
-4.92457e-05
-4.92346e-05
-4.91559e-05
-4.89012e-05
-4.88134e-05
-4.88569e-05
-4.90645e-05
-4.88404e-05
-4.8788e-05
-5.18563e-05
-5.18837e-05
-5.1896e-05
-5.22189e-05
-5.22424e-05
-5.22427e-05
-5.22351e-05
-5.1959e-05
-5.18961e-05
-5.18961e-05
-5.22835e-05
-5.28361e-05
-5.28361e-05
-5.28361e-05
-5.28361e-05
-5.23737e-05
-5.22166e-05
-5.2219e-05
-5.28362e-05
-5.28362e-05
-5.28362e-05
-5.28362e-05
-5.28362e-05
-5.28362e-05
-5.23213e-05
-5.19228e-05
-5.18565e-05
-5.22426e-05
-5.28363e-05
-5.28363e-05
-5.28363e-05
-5.28363e-05
-5.28363e-05
-5.28362e-05
-5.23529e-05
-5.19665e-05
-5.1884e-05
-5.2243e-05
-5.28363e-05
-5.28363e-05
-5.28363e-05
-5.28363e-05
-5.28363e-05
-5.28363e-05
-5.23554e-05
-5.21741e-05
-5.22355e-05
-5.28364e-05
-5.28364e-05
-5.28364e-05
-5.28364e-05
-5.28364e-05
-5.28364e-05
-5.23443e-05
-5.19501e-05
-5.19595e-05
-5.23742e-05
-5.28365e-05
-5.28365e-05
-5.28365e-05
-5.28365e-05
-5.2468e-05
-5.22657e-05
-5.18977e-05
-5.18966e-05
-5.22171e-05
-5.23218e-05
-5.23534e-05
-5.23559e-05
-5.23446e-05
-5.22659e-05
-5.20111e-05
-5.19234e-05
-5.19672e-05
-5.2175e-05
-5.19508e-05
-5.18981e-05
-5.49659e-05
-5.49935e-05
-5.50049e-05
-5.53284e-05
-5.53521e-05
-5.53525e-05
-5.53449e-05
-5.50689e-05
-5.5006e-05
-5.50058e-05
-5.53931e-05
-5.59459e-05
-5.5946e-05
-5.59459e-05
-5.59459e-05
-5.54836e-05
-5.53265e-05
-5.53288e-05
-5.59461e-05
-5.5946e-05
-5.5946e-05
-5.5946e-05
-5.5946e-05
-5.5946e-05
-5.54312e-05
-5.50327e-05
-5.49664e-05
-5.53524e-05
-5.59461e-05
-5.59461e-05
-5.59461e-05
-5.59461e-05
-5.59461e-05
-5.59461e-05
-5.54628e-05
-5.50763e-05
-5.49939e-05
-5.53529e-05
-5.59462e-05
-5.59462e-05
-5.59462e-05
-5.59462e-05
-5.59462e-05
-5.59462e-05
-5.54652e-05
-5.52839e-05
-5.53454e-05
-5.59462e-05
-5.59463e-05
-5.59463e-05
-5.59463e-05
-5.59462e-05
-5.59462e-05
-5.54541e-05
-5.506e-05
-5.50694e-05
-5.5484e-05
-5.59463e-05
-5.59463e-05
-5.59463e-05
-5.59463e-05
-5.55778e-05
-5.53756e-05
-5.50076e-05
-5.50065e-05
-5.53269e-05
-5.54316e-05
-5.54631e-05
-5.54655e-05
-5.54543e-05
-5.53756e-05
-5.51209e-05
-5.50331e-05
-5.50767e-05
-5.52842e-05
-5.50602e-05
-5.50077e-05
-5.80761e-05
-5.81035e-05
-5.81158e-05
-5.84387e-05
-5.84622e-05
-5.84626e-05
-5.8455e-05
-5.81789e-05
-5.8116e-05
-5.81159e-05
-5.85033e-05
-5.9056e-05
-5.9056e-05
-5.9056e-05
-5.9056e-05
-5.85936e-05
-5.84365e-05
-5.84388e-05
-5.90561e-05
-5.90561e-05
-5.90561e-05
-5.9056e-05
-5.9056e-05
-5.9056e-05
-5.85412e-05
-5.81427e-05
-5.80763e-05
-5.84624e-05
-5.90561e-05
-5.90561e-05
-5.90561e-05
-5.90561e-05
-5.90561e-05
-5.90561e-05
-5.85728e-05
-5.81863e-05
-5.81038e-05
-5.84628e-05
-5.90562e-05
-5.90562e-05
-5.90562e-05
-5.90562e-05
-5.90562e-05
-5.90561e-05
-5.85752e-05
-5.83939e-05
-5.84553e-05
-5.90562e-05
-5.90563e-05
-5.90563e-05
-5.90563e-05
-5.90562e-05
-5.90562e-05
-5.85641e-05
-5.81699e-05
-5.81793e-05
-5.8594e-05
-5.90564e-05
-5.90564e-05
-5.90564e-05
-5.90563e-05
-5.86878e-05
-5.84855e-05
-5.81175e-05
-5.81165e-05
-5.84369e-05
-5.85416e-05
-5.85732e-05
-5.85756e-05
-5.85643e-05
-5.84856e-05
-5.82308e-05
-5.81431e-05
-5.81868e-05
-5.83943e-05
-5.81702e-05
-5.81177e-05
-6.11861e-05
-6.12135e-05
-6.12258e-05
-6.15487e-05
-6.15722e-05
-6.15725e-05
-6.1565e-05
-6.1289e-05
-6.12261e-05
-6.12258e-05
-6.16132e-05
-6.21659e-05
-6.21659e-05
-6.21659e-05
-6.21659e-05
-6.17036e-05
-6.15464e-05
-6.15487e-05
-6.21659e-05
-6.21659e-05
-6.21659e-05
-6.21659e-05
-6.21659e-05
-6.21659e-05
-6.16511e-05
-6.12526e-05
-6.11862e-05
-6.15723e-05
-6.2166e-05
-6.2166e-05
-6.2166e-05
-6.2166e-05
-6.2166e-05
-6.2166e-05
-6.16827e-05
-6.12962e-05
-6.12137e-05
-6.15727e-05
-6.2166e-05
-6.2166e-05
-6.2166e-05
-6.2166e-05
-6.2166e-05
-6.2166e-05
-6.16851e-05
-6.15038e-05
-6.15652e-05
-6.21661e-05
-6.21661e-05
-6.21661e-05
-6.21661e-05
-6.21661e-05
-6.21661e-05
-6.1674e-05
-6.12798e-05
-6.12892e-05
-6.17039e-05
-6.21662e-05
-6.21662e-05
-6.21662e-05
-6.21662e-05
-6.17977e-05
-6.15954e-05
-6.12274e-05
-6.12264e-05
-6.15469e-05
-6.16517e-05
-6.16833e-05
-6.16857e-05
-6.16743e-05
-6.15956e-05
-6.13408e-05
-6.12534e-05
-6.12975e-05
-6.15048e-05
-6.12805e-05
-6.12278e-05
-6.42959e-05
-6.43233e-05
-6.43355e-05
-6.46584e-05
-6.46819e-05
-6.46823e-05
-6.46748e-05
-6.43988e-05
-6.43359e-05
-6.43356e-05
-6.47229e-05
-6.52756e-05
-6.52756e-05
-6.52756e-05
-6.52756e-05
-6.48134e-05
-6.46562e-05
-6.46585e-05
-6.52756e-05
-6.52756e-05
-6.52756e-05
-6.52757e-05
-6.52757e-05
-6.52757e-05
-6.47609e-05
-6.43624e-05
-6.4296e-05
-6.4682e-05
-6.52757e-05
-6.52757e-05
-6.52757e-05
-6.52757e-05
-6.52757e-05
-6.52757e-05
-6.47924e-05
-6.4406e-05
-6.43234e-05
-6.46824e-05
-6.52757e-05
-6.52757e-05
-6.52757e-05
-6.52757e-05
-6.52757e-05
-6.52757e-05
-6.47948e-05
-6.46135e-05
-6.46749e-05
-6.52757e-05
-6.52757e-05
-6.52757e-05
-6.52757e-05
-6.52757e-05
-6.52757e-05
-6.47837e-05
-6.43896e-05
-6.43989e-05
-6.48135e-05
-6.52758e-05
-6.52758e-05
-6.52758e-05
-6.52758e-05
-6.49073e-05
-6.47051e-05
-6.43371e-05
-6.4336e-05
-6.46564e-05
-6.4761e-05
-6.47926e-05
-6.4795e-05
-6.47838e-05
-6.47051e-05
-6.44504e-05
-6.43626e-05
-6.44062e-05
-6.46137e-05
-6.43897e-05
-6.43372e-05
-6.74055e-05
-6.7433e-05
-6.74451e-05
-6.77679e-05
-6.77915e-05
-6.77919e-05
-6.77845e-05
-6.75085e-05
-6.74456e-05
-6.74452e-05
-6.78325e-05
-6.83852e-05
-6.83852e-05
-6.83853e-05
-6.83853e-05
-6.79231e-05
-6.7766e-05
-6.77681e-05
-6.83852e-05
-6.83853e-05
-6.83853e-05
-6.83853e-05
-6.83854e-05
-6.83854e-05
-6.78706e-05
-6.74721e-05
-6.74056e-05
-6.77917e-05
-6.83853e-05
-6.83853e-05
-6.83853e-05
-6.83854e-05
-6.83854e-05
-6.83854e-05
-6.79021e-05
-6.75157e-05
-6.74331e-05
-6.77921e-05
-6.83854e-05
-6.83854e-05
-6.83854e-05
-6.83854e-05
-6.83854e-05
-6.83854e-05
-6.79045e-05
-6.77233e-05
-6.77846e-05
-6.83854e-05
-6.83854e-05
-6.83854e-05
-6.83854e-05
-6.83854e-05
-6.83854e-05
-6.78934e-05
-6.74993e-05
-6.75086e-05
-6.79232e-05
-6.83854e-05
-6.83854e-05
-6.83855e-05
-6.83855e-05
-6.8017e-05
-6.78148e-05
-6.74468e-05
-6.74457e-05
-6.7766e-05
-6.78707e-05
-6.79022e-05
-6.79046e-05
-6.78934e-05
-6.78148e-05
-6.75601e-05
-6.74722e-05
-6.75158e-05
-6.77233e-05
-6.74993e-05
-6.74469e-05
-7.05151e-05
-7.05427e-05
-7.05545e-05
-7.08776e-05
-7.09013e-05
-7.09017e-05
-7.08943e-05
-7.06182e-05
-7.05554e-05
-7.05548e-05
-7.09422e-05
-7.14951e-05
-7.14951e-05
-7.14951e-05
-7.14952e-05
-7.10329e-05
-7.08757e-05
-7.08779e-05
-7.14951e-05
-7.14951e-05
-7.14951e-05
-7.14952e-05
-7.14952e-05
-7.14952e-05
-7.09804e-05
-7.05819e-05
-7.05154e-05
-7.09015e-05
-7.14952e-05
-7.14952e-05
-7.14952e-05
-7.14952e-05
-7.14952e-05
-7.14952e-05
-7.10119e-05
-7.06255e-05
-7.05429e-05
-7.09019e-05
-7.14952e-05
-7.14952e-05
-7.14952e-05
-7.14952e-05
-7.14952e-05
-7.14952e-05
-7.10143e-05
-7.0833e-05
-7.08944e-05
-7.14952e-05
-7.14952e-05
-7.14952e-05
-7.14952e-05
-7.14952e-05
-7.14952e-05
-7.10032e-05
-7.06091e-05
-7.06183e-05
-7.1033e-05
-7.14952e-05
-7.14952e-05
-7.14953e-05
-7.14953e-05
-7.11268e-05
-7.09246e-05
-7.05566e-05
-7.05554e-05
-7.08758e-05
-7.09805e-05
-7.1012e-05
-7.10144e-05
-7.10032e-05
-7.09246e-05
-7.06698e-05
-7.0582e-05
-7.06256e-05
-7.08331e-05
-7.06091e-05
-7.05566e-05
-7.36253e-05
-7.36527e-05
-7.36649e-05
-7.39878e-05
-7.40113e-05
-7.40117e-05
-7.40042e-05
-7.37282e-05
-7.36652e-05
-7.36649e-05
-7.40523e-05
-7.46051e-05
-7.46051e-05
-7.46051e-05
-7.46051e-05
-7.41428e-05
-7.39856e-05
-7.39879e-05
-7.46051e-05
-7.46051e-05
-7.46051e-05
-7.46051e-05
-7.46051e-05
-7.46051e-05
-7.40903e-05
-7.36918e-05
-7.36253e-05
-7.40114e-05
-7.46051e-05
-7.46051e-05
-7.46051e-05
-7.46051e-05
-7.46051e-05
-7.46051e-05
-7.41218e-05
-7.37353e-05
-7.36528e-05
-7.40118e-05
-7.46051e-05
-7.46051e-05
-7.46051e-05
-7.46051e-05
-7.46051e-05
-7.46051e-05
-7.41242e-05
-7.39429e-05
-7.40043e-05
-7.46051e-05
-7.46051e-05
-7.46051e-05
-7.46051e-05
-7.46051e-05
-7.46051e-05
-7.4113e-05
-7.37189e-05
-7.37282e-05
-7.41428e-05
-7.46051e-05
-7.46051e-05
-7.46051e-05
-7.46051e-05
-7.42366e-05
-7.40344e-05
-7.36665e-05
-7.36653e-05
-7.39857e-05
-7.40903e-05
-7.41219e-05
-7.41242e-05
-7.41131e-05
-7.40344e-05
-7.37797e-05
-7.36918e-05
-7.37354e-05
-7.39429e-05
-7.37189e-05
-7.36665e-05
-7.67352e-05
-7.67626e-05
-7.67749e-05
-7.70977e-05
-7.71212e-05
-7.71216e-05
-7.7114e-05
-7.6838e-05
-7.67751e-05
-7.67749e-05
-7.71623e-05
-7.7715e-05
-7.7715e-05
-7.77149e-05
-7.77149e-05
-7.72526e-05
-7.70955e-05
-7.70978e-05
-7.7715e-05
-7.7715e-05
-7.7715e-05
-7.7715e-05
-7.7715e-05
-7.77149e-05
-7.72001e-05
-7.68016e-05
-7.67353e-05
-7.71213e-05
-7.7715e-05
-7.7715e-05
-7.7715e-05
-7.7715e-05
-7.7715e-05
-7.7715e-05
-7.72317e-05
-7.68452e-05
-7.67627e-05
-7.71217e-05
-7.7715e-05
-7.7715e-05
-7.7715e-05
-7.7715e-05
-7.7715e-05
-7.7715e-05
-7.72341e-05
-7.70528e-05
-7.71142e-05
-7.77151e-05
-7.77151e-05
-7.77151e-05
-7.77151e-05
-7.77151e-05
-7.7715e-05
-7.72229e-05
-7.68288e-05
-7.68382e-05
-7.72528e-05
-7.77151e-05
-7.77151e-05
-7.77151e-05
-7.77151e-05
-7.73466e-05
-7.71443e-05
-7.67764e-05
-7.67752e-05
-7.70956e-05
-7.72003e-05
-7.72318e-05
-7.72342e-05
-7.7223e-05
-7.71444e-05
-7.68896e-05
-7.68018e-05
-7.68453e-05
-7.70529e-05
-7.68289e-05
-7.67764e-05
-7.9845e-05
-7.98724e-05
-7.98848e-05
-8.02077e-05
-8.02311e-05
-8.02314e-05
-8.02236e-05
-7.99464e-05
-7.98838e-05
-7.98848e-05
-8.02722e-05
-8.0825e-05
-8.08249e-05
-8.08249e-05
-8.08248e-05
-8.03623e-05
-8.02052e-05
-8.02078e-05
-8.0825e-05
-8.0825e-05
-8.0825e-05
-8.0825e-05
-8.08249e-05
-8.08249e-05
-8.031e-05
-7.99115e-05
-7.98452e-05
-8.02313e-05
-8.0825e-05
-8.0825e-05
-8.0825e-05
-8.0825e-05
-8.0825e-05
-8.0825e-05
-8.03417e-05
-7.99552e-05
-7.98727e-05
-8.02317e-05
-8.08251e-05
-8.08251e-05
-8.08251e-05
-8.08251e-05
-8.0825e-05
-8.0825e-05
-8.03441e-05
-8.01628e-05
-8.02242e-05
-8.08251e-05
-8.08251e-05
-8.08251e-05
-8.08251e-05
-8.08251e-05
-8.08251e-05
-8.0333e-05
-7.99388e-05
-7.99482e-05
-8.03628e-05
-8.08251e-05
-8.08251e-05
-8.08251e-05
-8.08251e-05
-8.04566e-05
-8.02544e-05
-7.98864e-05
-7.98852e-05
-8.02056e-05
-8.03103e-05
-8.03418e-05
-8.03442e-05
-8.0333e-05
-8.02544e-05
-7.99996e-05
-7.99118e-05
-7.99553e-05
-8.01629e-05
-7.99389e-05
-7.98864e-05
-8.29553e-05
-8.29827e-05
-8.29948e-05
-8.33178e-05
-8.33414e-05
-8.33418e-05
-8.33342e-05
-8.30581e-05
-8.29952e-05
-8.29945e-05
-8.33823e-05
-8.39351e-05
-8.39352e-05
-8.39352e-05
-8.39352e-05
-8.34728e-05
-8.33157e-05
-8.33176e-05
-8.39351e-05
-8.39352e-05
-8.39352e-05
-8.39352e-05
-8.39352e-05
-8.39352e-05
-8.34203e-05
-8.30218e-05
-8.29551e-05
-8.33413e-05
-8.39352e-05
-8.39352e-05
-8.39352e-05
-8.39352e-05
-8.39352e-05
-8.39352e-05
-8.34519e-05
-8.30654e-05
-8.29827e-05
-8.33418e-05
-8.39352e-05
-8.39352e-05
-8.39352e-05
-8.39352e-05
-8.39352e-05
-8.39353e-05
-8.34543e-05
-8.3273e-05
-8.33343e-05
-8.39352e-05
-8.39352e-05
-8.39352e-05
-8.39353e-05
-8.39353e-05
-8.39353e-05
-8.34431e-05
-8.3049e-05
-8.30582e-05
-8.34729e-05
-8.39353e-05
-8.39353e-05
-8.39353e-05
-8.39353e-05
-8.35667e-05
-8.33645e-05
-8.29965e-05
-8.29953e-05
-8.33157e-05
-8.34204e-05
-8.34519e-05
-8.34543e-05
-8.34432e-05
-8.33645e-05
-8.31098e-05
-8.30219e-05
-8.30655e-05
-8.3273e-05
-8.3049e-05
-8.29965e-05
-8.60656e-05
-8.6093e-05
-8.61052e-05
-8.64281e-05
-8.64517e-05
-8.64521e-05
-8.64446e-05
-8.61685e-05
-8.61056e-05
-8.61052e-05
-8.64926e-05
-8.70454e-05
-8.70455e-05
-8.70455e-05
-8.70455e-05
-8.65832e-05
-8.6426e-05
-8.64281e-05
-8.70454e-05
-8.70454e-05
-8.70455e-05
-8.70455e-05
-8.70455e-05
-8.70455e-05
-8.65307e-05
-8.61321e-05
-8.60655e-05
-8.64516e-05
-8.70454e-05
-8.70454e-05
-8.70455e-05
-8.70455e-05
-8.70455e-05
-8.70455e-05
-8.65622e-05
-8.61757e-05
-8.6093e-05
-8.6452e-05
-8.70454e-05
-8.70455e-05
-8.70455e-05
-8.70455e-05
-8.70455e-05
-8.70455e-05
-8.65646e-05
-8.63833e-05
-8.64445e-05
-8.70455e-05
-8.70455e-05
-8.70455e-05
-8.70455e-05
-8.70455e-05
-8.70455e-05
-8.65534e-05
-8.61592e-05
-8.61684e-05
-8.65831e-05
-8.70455e-05
-8.70455e-05
-8.70455e-05
-8.70455e-05
-8.6677e-05
-8.64748e-05
-8.61068e-05
-8.61055e-05
-8.6426e-05
-8.65306e-05
-8.65622e-05
-8.65646e-05
-8.65534e-05
-8.64748e-05
-8.622e-05
-8.61321e-05
-8.61757e-05
-8.63833e-05
-8.61592e-05
-8.61068e-05
-8.91759e-05
-8.92034e-05
-8.92154e-05
-8.95384e-05
-8.9562e-05
-8.95624e-05
-8.95549e-05
-8.92788e-05
-8.92159e-05
-8.92153e-05
-8.96029e-05
-9.01558e-05
-9.01558e-05
-9.01558e-05
-9.01559e-05
-8.96935e-05
-8.95363e-05
-8.9538e-05
-9.01557e-05
-9.01557e-05
-9.01558e-05
-9.01558e-05
-9.01559e-05
-9.01559e-05
-8.9641e-05
-8.92425e-05
-8.9175e-05
-8.95615e-05
-9.01557e-05
-9.01558e-05
-9.01558e-05
-9.01558e-05
-9.01559e-05
-9.01559e-05
-8.96725e-05
-8.9286e-05
-8.92028e-05
-8.9562e-05
-9.01557e-05
-9.01558e-05
-9.01558e-05
-9.01559e-05
-9.01559e-05
-9.01559e-05
-8.96749e-05
-8.94936e-05
-8.95547e-05
-9.01558e-05
-9.01558e-05
-9.01558e-05
-9.01559e-05
-9.01559e-05
-9.01559e-05
-8.96638e-05
-8.92696e-05
-8.92787e-05
-8.96934e-05
-9.01558e-05
-9.01559e-05
-9.01559e-05
-9.01559e-05
-8.97874e-05
-8.95851e-05
-8.92171e-05
-8.92158e-05
-8.95363e-05
-8.9641e-05
-8.96725e-05
-8.96749e-05
-8.96638e-05
-8.95851e-05
-8.93304e-05
-8.92424e-05
-8.9286e-05
-8.94936e-05
-8.92696e-05
-8.92171e-05
-9.22863e-05
-9.23138e-05
-9.23259e-05
-9.26489e-05
-9.26725e-05
-9.26729e-05
-9.26653e-05
-9.23893e-05
-9.23263e-05
-9.23259e-05
-9.27134e-05
-9.32663e-05
-9.32663e-05
-9.32663e-05
-9.32663e-05
-9.28039e-05
-9.26468e-05
-9.26488e-05
-9.32662e-05
-9.32663e-05
-9.32663e-05
-9.32663e-05
-9.32663e-05
-9.32663e-05
-9.27514e-05
-9.23529e-05
-9.22862e-05
-9.26724e-05
-9.32663e-05
-9.32663e-05
-9.32663e-05
-9.32663e-05
-9.32663e-05
-9.32664e-05
-9.2783e-05
-9.23965e-05
-9.23137e-05
-9.26728e-05
-9.32663e-05
-9.32663e-05
-9.32663e-05
-9.32663e-05
-9.32664e-05
-9.32664e-05
-9.27854e-05
-9.2604e-05
-9.26653e-05
-9.32663e-05
-9.32663e-05
-9.32663e-05
-9.32664e-05
-9.32664e-05
-9.32664e-05
-9.27742e-05
-9.238e-05
-9.23892e-05
-9.28039e-05
-9.32663e-05
-9.32664e-05
-9.32664e-05
-9.32664e-05
-9.28978e-05
-9.26956e-05
-9.23275e-05
-9.23263e-05
-9.26468e-05
-9.27514e-05
-9.2783e-05
-9.27854e-05
-9.27742e-05
-9.26956e-05
-9.24408e-05
-9.23529e-05
-9.23965e-05
-9.2604e-05
-9.238e-05
-9.23276e-05
-9.53967e-05
-9.54242e-05
-9.54363e-05
-9.57593e-05
-9.57828e-05
-9.57833e-05
-9.57758e-05
-9.54997e-05
-9.54368e-05
-9.54364e-05
-9.58238e-05
-9.63767e-05
-9.63767e-05
-9.63767e-05
-9.63768e-05
-9.59144e-05
-9.57572e-05
-9.57594e-05
-9.63767e-05
-9.63767e-05
-9.63768e-05
-9.63768e-05
-9.63768e-05
-9.63768e-05
-9.58619e-05
-9.54634e-05
-9.53968e-05
-9.5783e-05
-9.63768e-05
-9.63768e-05