/*--------------------------------*- C++ -*----------------------------------*\
| =========                 |                                                 |
| \\      /  F ield         | OpenFOAM: The Open Source CFD Toolbox           |
|  \\    /   O peration     | Version:  v1912                                 |
|   \\  /    A nd           | Website:  www.openfoam.com                      |
|    \\/     M anipulation  |                                                 |
\*---------------------------------------------------------------------------*/
FoamFile
{
    version     2.0;
    format      ascii;
    class       volScalarField;
    location    "1.1";
    object      nut;
}
// * * * * * * * * * * * * * * * * * * * * * * * * * * * * * * * * * * * * * //

dimensions      [0 2 -1 0 0 0 0];


internalField   nonuniform List<scalar> 
171728
(
7.92946e-07
8.21852e-07
8.22324e-07
3.26739e-07
5.28906e-08
6.22406e-08
6.24158e-08
8.23517e-08
4.15255e-09
5.3645e-09
5.35906e-09
8.03602e-08
1.13961e-09
3.20468e-09
3.17957e-09
8.04582e-08
1.17905e-09
3.0267e-09
3.03116e-09
8.04623e-08
1.17919e-09
3.0207e-09
3.02548e-09
8.04623e-08
1.17005e-09
3.02904e-09
3.02293e-09
8.04627e-08
1.18103e-09
3.02972e-09
3.02716e-09
8.04624e-08
1.18518e-09
3.02811e-09
3.02118e-09
8.04642e-08
1.18166e-09
3.02703e-09
3.02349e-09
8.04631e-08
1.18181e-09
3.02658e-09
3.02693e-09
8.04634e-08
1.18999e-09
3.02358e-09
3.02573e-09
8.04641e-08
1.19461e-09
3.04969e-09
3.02639e-09
8.04637e-08
1.19937e-09
3.05202e-09
3.02444e-09
8.04634e-08
1.17601e-09
3.01801e-09
3.0274e-09
8.04639e-08
1.17898e-09
3.01867e-09
3.02318e-09
8.04643e-08
1.18789e-09
3.02865e-09
3.026e-09
8.04648e-08
1.18082e-09
3.0203e-09
3.0255e-09
8.04643e-08
1.17765e-09
3.01169e-09
3.0258e-09
8.04632e-08
1.16745e-09
3.04123e-09
3.02012e-09
8.04575e-08
1.27092e-09
3.02794e-09
3.0261e-09
8.04662e-08
1.18156e-09
3.02995e-09
3.02569e-09
8.04663e-08
1.18509e-09
3.02867e-09
3.02662e-09
8.04666e-08
1.18454e-09
3.02813e-09
3.02644e-09
8.04664e-08
1.18634e-09
3.02803e-09
3.02666e-09
8.04668e-08
1.18516e-09
3.02815e-09
3.02607e-09
8.04667e-08
1.18535e-09
3.02862e-09
3.02669e-09
8.04668e-08
1.1856e-09
3.02801e-09
3.02608e-09
8.04668e-08
1.1851e-09
3.02744e-09
3.02551e-09
8.04664e-08
1.18579e-09
3.02867e-09
3.02688e-09
8.04664e-08
1.18471e-09
3.02821e-09
3.02613e-09
8.04667e-08
1.18575e-09
3.02594e-09
3.02612e-09
8.04668e-08
1.18595e-09
3.03002e-09
3.02701e-09
8.04667e-08
1.18468e-09
3.02908e-09
3.02674e-09
8.04666e-08
1.18518e-09
3.02936e-09
3.02707e-09
8.04669e-08
1.18539e-09
3.02834e-09
3.02684e-09
8.04664e-08
1.18606e-09
3.02985e-09
3.02837e-09
8.04667e-08
1.1859e-09
3.02901e-09
3.02753e-09
8.04672e-08
1.18566e-09
3.02969e-09
3.03377e-09
8.04672e-08
1.20292e-09
3.03638e-09
3.03289e-09
8.04523e-08
1.34264e-09
3.01073e-09
3.02825e-09
8.04659e-08
1.18462e-09
3.02202e-09
3.02094e-09
8.04668e-08
1.18713e-09
3.02795e-09
3.02049e-09
8.04673e-08
1.1884e-09
3.02656e-09
3.02131e-09
8.04673e-08
1.19034e-09
3.02654e-09
3.02492e-09
8.04672e-08
1.18883e-09
3.02599e-09
3.02189e-09
8.04676e-08
1.18825e-09
3.02547e-09
3.02521e-09
8.04683e-08
1.18827e-09
3.02586e-09
3.02824e-09
8.0468e-08
1.18862e-09
3.02672e-09
3.0292e-09
8.04675e-08
1.18868e-09
3.026e-09
3.0285e-09
8.04675e-08
1.18878e-09
3.02579e-09
3.02882e-09
8.04675e-08
1.18933e-09
3.02625e-09
3.02766e-09
8.04674e-08
1.18981e-09
3.02723e-09
3.02867e-09
8.04674e-08
1.19026e-09
3.03429e-09
3.02787e-09
8.04674e-08
1.19213e-09
3.02698e-09
3.02918e-09
8.04669e-08
1.18801e-09
3.0248e-09
3.02697e-09
8.04633e-08
1.18703e-09
3.02926e-09
3.02675e-09
8.0455e-08
1.18697e-09
3.02907e-09
3.026e-09
8.04547e-08
1.18719e-09
3.02996e-09
3.02704e-09
8.04547e-08
1.18723e-09
3.02944e-09
3.02571e-09
8.04547e-08
1.18726e-09
3.0296e-09
3.02707e-09
8.04544e-08
1.18667e-09
3.02912e-09
3.02597e-09
8.04548e-08
1.18649e-09
3.0297e-09
3.02659e-09
8.04541e-08
1.18759e-09
3.02962e-09
3.02678e-09
8.04542e-08
1.18718e-09
3.03024e-09
3.02719e-09
8.04544e-08
1.18652e-09
3.0299e-09
3.02684e-09
8.0454e-08
1.18656e-09
3.02851e-09
3.02546e-09
8.04541e-08
1.18575e-09
3.02864e-09
3.02599e-09
8.04542e-08
1.18209e-09
3.0281e-09
3.02649e-09
8.04544e-08
1.17846e-09
3.02985e-09
3.00867e-09
8.04559e-08
1.18283e-09
3.03063e-09
3.02218e-09
8.04519e-08
1.18714e-09
3.0298e-09
3.02695e-09
8.04538e-08
1.1864e-09
3.02946e-09
3.02598e-09
8.04539e-08
1.18635e-09
3.02903e-09
3.02525e-09
8.0453e-08
1.18749e-09
3.02953e-09
3.02549e-09
8.04526e-08
1.18664e-09
3.02912e-09
3.02523e-09
8.04525e-08
1.18707e-09
3.02974e-09
3.02568e-09
8.04529e-08
1.18712e-09
3.02965e-09
3.02587e-09
8.04528e-08
1.18732e-09
3.02888e-09
3.02575e-09
8.04526e-08
1.1871e-09
3.03041e-09
3.02734e-09
8.04529e-08
1.18661e-09
3.02962e-09
3.02657e-09
8.04528e-08
1.18671e-09
3.02912e-09
3.02601e-09
8.04528e-08
1.18693e-09
3.02959e-09
3.02651e-09
8.04525e-08
1.18888e-09
3.02971e-09
3.02665e-09
8.04528e-08
1.1887e-09
3.02941e-09
3.02633e-09
8.04526e-08
1.18893e-09
3.0296e-09
3.02701e-09
8.04522e-08
1.18896e-09
3.03005e-09
3.02721e-09
8.04529e-08
1.18809e-09
3.02866e-09
3.02596e-09
8.04524e-08
1.18856e-09
3.02895e-09
3.02572e-09
8.04522e-08
1.18943e-09
3.02989e-09
3.0266e-09
8.04525e-08
1.19175e-09
3.02892e-09
3.024e-09
8.04547e-08
1.26281e-09
3.05192e-09
3.05785e-09
8.04535e-08
3.45085e-09
4.04101e-09
4.09913e-09
8.03937e-08
4.43136e-08
4.04044e-08
4.03652e-08
7.96332e-08
3.54459e-07
1.99056e-07
1.99092e-07
3.79067e-07
2.59667e-07
5.35515e-07
5.35771e-07
2.59705e-07
5.35565e-07
5.35701e-07
1.49934e-06
1.49936e-06
1.49937e-06
1.49938e-06
5.35378e-07
5.35466e-07
2.5951e-07
5.35327e-07
5.35575e-07
2.59466e-07
3.26805e-07
2.11349e-07
8.22373e-07
8.22288e-07
1.36512e-07
1.36486e-07
3.26727e-07
2.11226e-07
8.22243e-07
8.22877e-07
1.36683e-07
1.36587e-07
8.22616e-07
1.36564e-07
1.36458e-07
3.26754e-07
2.11329e-07
8.22329e-07
1.36598e-07
1.36583e-07
2.11341e-07
8.24056e-08
2.06156e-07
6.23105e-08
6.23319e-08
8.15306e-09
8.23228e-09
8.23716e-08
2.06232e-07
6.2339e-08
6.23256e-08
8.11344e-09
8.17093e-09
6.23193e-08
8.05705e-09
8.14225e-09
8.2417e-08
2.06188e-07
6.24574e-08
8.13664e-09
8.09226e-09
2.06188e-07
8.02799e-08
2.05861e-07
5.39808e-09
5.38536e-09
3.36555e-09
3.36054e-09
8.02824e-08
2.05866e-07
5.41549e-09
5.39395e-09
3.34263e-09
3.36912e-09
5.40964e-09
3.34429e-09
3.38079e-09
8.03319e-08
2.05882e-07
5.42306e-09
3.31538e-09
3.30883e-09
2.05845e-07
8.04371e-08
2.05843e-07
3.21268e-09
3.24811e-09
3.07389e-09
3.07199e-09
8.04166e-08
2.05836e-07
3.16732e-09
3.21868e-09
3.0349e-09
3.07892e-09
3.23204e-09
3.03175e-09
3.06799e-09
8.04548e-08
2.0586e-07
3.18784e-09
3.02164e-09
3.02556e-09
2.05813e-07
8.04416e-08
2.05843e-07
3.07078e-09
3.06953e-09
3.06617e-09
3.07374e-09
8.04246e-08
2.0583e-07
3.01861e-09
3.07424e-09
3.0394e-09
3.068e-09
3.06121e-09
3.01936e-09
3.05653e-09
8.04537e-08
2.05858e-07
3.02057e-09
3.01083e-09
3.01381e-09
2.05812e-07
8.04413e-08
2.05844e-07
3.06855e-09
3.08316e-09
3.05185e-09
3.10096e-09
8.04286e-08
2.05839e-07
3.00761e-09
3.06848e-09
3.03438e-09
3.06595e-09
3.05596e-09
3.03228e-09
3.05322e-09
8.04537e-08
2.05863e-07
3.01504e-09
3.00807e-09
3.01151e-09
2.05816e-07
8.04451e-08
2.05847e-07
3.02398e-09
3.09271e-09
3.08654e-09
3.08018e-09
8.04205e-08
2.05839e-07
3.00164e-09
3.06707e-09
3.03891e-09
3.06687e-09
3.05276e-09
3.02967e-09
3.05434e-09
8.04539e-08
2.05862e-07
3.01311e-09
3.00964e-09
3.0136e-09
2.05814e-07
8.0446e-08
2.05848e-07
3.06869e-09
3.08292e-09
3.06732e-09
3.08189e-09
8.04176e-08
2.05837e-07
3.01361e-09
3.06948e-09
3.04295e-09
3.06869e-09
3.05539e-09
3.03032e-09
3.05573e-09
8.04535e-08
2.05859e-07
3.01714e-09
3.01122e-09
3.01516e-09
2.05811e-07
8.04245e-08
2.05847e-07
3.06743e-09
3.0812e-09
3.04292e-09
3.06296e-09
8.04193e-08
2.05852e-07
3.01115e-09
3.06962e-09
3.02641e-09
3.06577e-09
3.05472e-09
3.02465e-09
3.0516e-09
8.04552e-08
2.05866e-07
3.01394e-09
3.00719e-09
3.01095e-09
2.05819e-07
8.04329e-08
2.0583e-07
3.05061e-09
3.02758e-09
3.08447e-09
3.01746e-09
8.04125e-08
2.05838e-07
3.01625e-09
3.06786e-09
3.02529e-09
3.06914e-09
3.05198e-09
3.02676e-09
3.05521e-09
8.04543e-08
2.05861e-07
3.0136e-09
3.01098e-09
3.01491e-09
2.05812e-07
8.04448e-08
2.05841e-07
3.11403e-09
3.03913e-09
3.06695e-09
3.02277e-09
8.04178e-08
2.05837e-07
3.02486e-09
3.07025e-09
3.03089e-09
3.06754e-09
3.05515e-09
3.02691e-09
3.05349e-09
8.04542e-08
2.05863e-07
3.01691e-09
3.01001e-09
3.01272e-09
2.05816e-07
8.04331e-08
2.05838e-07
3.06621e-09
3.01165e-09
3.06359e-09
3.01576e-09
8.04187e-08
2.05864e-07
3.025e-09
3.06873e-09
3.02499e-09
3.06644e-09
3.05358e-09
3.03765e-09
3.05743e-09
8.04555e-08
2.05862e-07
3.01409e-09
3.01087e-09
3.0126e-09
2.05816e-07
8.04345e-08
2.05843e-07
3.06561e-09
3.02717e-09
3.05518e-09
3.08727e-09
8.04152e-08
2.05865e-07
3.01963e-09
3.06784e-09
3.01478e-09
3.06464e-09
3.05812e-09
3.04426e-09
3.05621e-09
8.04557e-08
2.05865e-07
3.01542e-09
3.00866e-09
3.01234e-09
2.0582e-07
8.04289e-08
2.05831e-07
3.05745e-09
3.09562e-09
3.08573e-09
3.07505e-09
8.04211e-08
2.05845e-07
3.01137e-09
3.06635e-09
3.00977e-09
3.06874e-09
3.05599e-09
3.02535e-09
3.05764e-09
8.04553e-08
2.05861e-07
3.01502e-09
3.01176e-09
3.016e-09
2.05813e-07
8.04384e-08
2.05838e-07
3.07569e-09
3.06423e-09
3.06975e-09
3.12943e-09
8.04309e-08
2.05835e-07
3.02648e-09
3.07016e-09
3.02921e-09
3.06482e-09
3.05781e-09
3.02658e-09
3.05234e-09
8.04555e-08
2.05867e-07
3.01781e-09
3.00791e-09
3.01061e-09
2.0582e-07
8.04358e-08
2.05834e-07
3.06854e-09
3.0983e-09
3.0751e-09
3.08093e-09
8.04472e-08
2.05817e-07
3.02541e-09
3.0661e-09
3.02929e-09
3.06777e-09
3.05161e-09
3.02539e-09
3.05561e-09
8.04556e-08
2.05864e-07
3.01229e-09
3.01051e-09
3.01421e-09
2.05816e-07
8.04374e-08
2.05834e-07
3.06019e-09
3.07985e-09
3.07745e-09
3.06942e-09
8.04405e-08
2.05861e-07
3.02704e-09
3.06906e-09
3.02947e-09
3.06709e-09
3.05568e-09
3.02808e-09
3.05521e-09
8.0456e-08
2.05866e-07
3.01636e-09
3.00929e-09
3.01335e-09
2.05818e-07
8.04348e-08
2.05853e-07
3.05357e-09
3.06004e-09
3.04556e-09
3.05646e-09
8.04507e-08
2.05862e-07
3.02551e-09
3.06962e-09
3.02205e-09
3.06946e-09
3.05631e-09
3.0062e-09
3.05488e-09
8.04556e-08
2.05865e-07
3.01594e-09
3.01016e-09
3.01043e-09
2.05819e-07
8.04388e-08
2.05822e-07
3.04567e-09
3.08023e-09
3.11126e-09
3.16117e-09
8.04819e-08
2.05902e-07
3.01695e-09
3.07063e-09
3.04359e-09
3.06464e-09
3.05287e-09
3.0521e-09
3.06362e-09
8.0456e-08
2.05866e-07
3.0084e-09
3.0066e-09
3.00952e-09
2.05833e-07
8.04776e-08
2.05891e-07
3.07059e-09
3.09784e-09
3.05891e-09
3.12725e-09
8.04232e-08
2.05858e-07
3.0426e-09
3.06458e-09
2.8847e-09
3.0697e-09
3.07678e-09
3.01403e-09
3.05625e-09
8.0458e-08
2.0587e-07
3.02708e-09
3.00693e-09
3.01389e-09
2.05823e-07
8.0431e-08
2.05857e-07
3.10946e-09
3.11532e-09
3.08563e-09
3.07612e-09
8.04362e-08
2.05852e-07
2.96542e-09
3.06787e-09
3.04066e-09
3.06641e-09
3.05538e-09
3.0347e-09
3.05384e-09
8.04569e-08
2.05868e-07
3.01516e-09
3.01001e-09
3.01406e-09
2.05821e-07
8.04591e-08
2.05856e-07
3.07788e-09
3.08192e-09
3.06663e-09
3.08186e-09
8.04367e-08
2.05853e-07
3.02713e-09
3.06755e-09
3.03163e-09
3.06791e-09
3.05368e-09
3.03011e-09
3.05468e-09
8.04577e-08
2.05868e-07
3.01546e-09
3.01083e-09
3.01435e-09
2.05821e-07
8.04587e-08
2.05856e-07
3.07221e-09
3.0849e-09
3.06485e-09
3.08078e-09
8.04366e-08
2.05853e-07
3.02487e-09
3.06868e-09
3.02967e-09
3.06675e-09
3.05503e-09
3.02949e-09
3.05327e-09
8.04577e-08
2.05868e-07
3.01655e-09
3.01043e-09
3.02274e-09
2.05821e-07
8.04587e-08
2.05856e-07
3.07013e-09
3.08367e-09
3.06429e-09
3.08106e-09
8.04367e-08
2.05853e-07
3.02332e-09
3.06738e-09
3.02913e-09
3.06697e-09
3.05397e-09
3.02951e-09
3.05414e-09
8.04578e-08
2.05868e-07
3.02345e-09
3.0107e-09
3.01861e-09
2.0582e-07
8.04581e-08
2.05857e-07
3.07151e-09
3.0844e-09
3.06387e-09
3.08072e-09
8.04366e-08
2.05853e-07
3.0247e-09
3.06808e-09
3.0287e-09
3.06682e-09
3.05353e-09
3.02967e-09
3.05487e-09
8.04577e-08
2.05868e-07
3.02091e-09
3.01001e-09
3.01716e-09
2.0582e-07
8.04587e-08
2.05854e-07
3.0697e-09
3.08372e-09
3.06602e-09
3.08216e-09
8.04369e-08
2.05851e-07
3.02292e-09
3.06754e-09
3.03082e-09
3.06815e-09
3.05489e-09
3.03045e-09
3.05402e-09
8.04579e-08
2.05866e-07
3.01986e-09
3.01124e-09
3.01738e-09
2.0582e-07
8.04588e-08
2.05857e-07
3.07145e-09
3.08456e-09
3.06378e-09
3.08044e-09
8.0437e-08
2.05853e-07
3.02462e-09
3.06834e-09
3.02862e-09
3.06642e-09
3.05401e-09
3.02916e-09
3.05382e-09
8.0458e-08
2.05869e-07
3.01937e-09
3.00997e-09
3.0172e-09
2.05821e-07
8.04583e-08
2.05857e-07
3.07068e-09
3.08409e-09
3.06429e-09
3.08073e-09
8.04367e-08
2.05853e-07
3.02388e-09
3.06785e-09
3.02912e-09
3.06671e-09
3.05389e-09
3.02937e-09
3.05388e-09
8.04578e-08
2.05869e-07
3.01925e-09
3.01018e-09
3.01726e-09
2.05822e-07
8.04583e-08
2.05856e-07
3.06996e-09
3.08324e-09
3.06512e-09
3.08162e-09
8.04367e-08
2.05853e-07
3.02315e-09
3.067e-09
3.02992e-09
3.06757e-09
3.05407e-09
3.03012e-09
3.05455e-09
8.04577e-08
2.05868e-07
3.01943e-09
3.01096e-09
3.01794e-09
2.0582e-07
8.04583e-08
2.05857e-07
3.07118e-09
3.08488e-09
3.06461e-09
3.07984e-09
8.04365e-08
2.05853e-07
3.02436e-09
3.06836e-09
3.02905e-09
3.06705e-09
3.05473e-09
3.03004e-09
3.05474e-09
8.04575e-08
2.05869e-07
3.0201e-09
3.0107e-09
3.01818e-09
2.0582e-07
8.04586e-08
2.05855e-07
3.07004e-09
3.06528e-09
3.06493e-09
3.08533e-09
8.04378e-08
2.05846e-07
3.02311e-09
3.06758e-09
3.02971e-09
3.06703e-09
3.05434e-09
3.03294e-09
3.05381e-09
8.04578e-08
2.05868e-07
3.01963e-09
3.01042e-09
3.01719e-09
2.05821e-07
8.04584e-08
2.05856e-07
3.07168e-09
3.08412e-09
3.06433e-09
3.08662e-09
8.04392e-08
2.05859e-07
3.0246e-09
3.06771e-09
3.02919e-09
3.06742e-09
3.05383e-09
3.03124e-09
3.05484e-09
8.04579e-08
2.05867e-07
3.01919e-09
3.01102e-09
3.01824e-09
2.05819e-07
8.04581e-08
2.05857e-07
3.07139e-09
3.08934e-09
3.06468e-09
3.08557e-09
8.04328e-08
2.0586e-07
3.02458e-09
3.0686e-09
3.02948e-09
3.0668e-09
3.05463e-09
3.03052e-09
3.0535e-09
8.04576e-08
2.05868e-07
3.01994e-09
3.01089e-09
3.01741e-09
2.05821e-07
8.04589e-08
2.05856e-07
3.06964e-09
3.08814e-09
3.0651e-09
3.08585e-09
8.04331e-08
2.0586e-07
3.02284e-09
3.06712e-09
3.02992e-09
3.06797e-09
3.05398e-09
3.03035e-09
3.05438e-09
8.0458e-08
2.05869e-07
3.01998e-09
3.00683e-09
3.01345e-09
2.05822e-07
8.04585e-08
2.05857e-07
3.07099e-09
3.08911e-09
3.06442e-09
3.08519e-09
8.04329e-08
2.05861e-07
3.02418e-09
3.06823e-09
3.02924e-09
3.06688e-09
3.05414e-09
3.02939e-09
3.05318e-09
8.04582e-08
2.0587e-07
3.02018e-09
3.00806e-09
3.01486e-09
2.05823e-07
8.04582e-08
2.05857e-07
3.07042e-09
3.08814e-09
3.06439e-09
3.08578e-09
8.04326e-08
2.0586e-07
3.02361e-09
3.06698e-09
3.02923e-09
3.06742e-09
3.05377e-09
3.0304e-09
3.05387e-09
8.04579e-08
2.05869e-07
3.02081e-09
3.00911e-09
3.01563e-09
2.05822e-07
8.04579e-08
2.05856e-07
3.07131e-09
3.08939e-09
3.06482e-09
3.08593e-09
8.04324e-08
2.0586e-07
3.02451e-09
3.0682e-09
3.02963e-09
3.06754e-09
3.05418e-09
3.03055e-09
3.05548e-09
8.04577e-08
2.05869e-07
3.02125e-09
3.00927e-09
3.01726e-09
2.05821e-07
8.04583e-08
2.05857e-07
3.071e-09
3.08861e-09
3.06452e-09
3.08531e-09
8.04329e-08
2.0586e-07
3.02419e-09
3.06738e-09
3.02928e-09
3.06663e-09
3.05362e-09
3.03084e-09
3.05427e-09
8.04582e-08
2.05869e-07
3.02076e-09
3.01005e-09
3.01677e-09
2.05821e-07
8.04584e-08
2.05856e-07
3.07128e-09
3.0881e-09
3.0764e-09
3.0787e-09
8.0433e-08
2.05859e-07
3.02406e-09
3.06655e-09
3.0254e-09
3.06614e-09
3.05209e-09
3.03227e-09
3.02741e-09
8.04578e-08
2.05869e-07
3.02127e-09
3.00636e-09
2.99876e-09
2.05822e-07
8.04541e-08
2.05858e-07
3.06818e-09
3.08867e-09
3.01581e-09
3.08197e-09
8.04346e-08
2.0588e-07
3.00779e-09
3.06596e-09
2.99788e-09
3.07377e-09
3.03181e-09
3.0181e-09
3.09578e-09
8.04573e-08
2.05871e-07
2.92508e-09
3.00867e-09
3.01035e-09
2.05827e-07
8.04489e-08
2.05852e-07
3.05478e-09
3.04651e-09
3.06885e-09
3.0824e-09
8.04423e-08
2.05887e-07
2.91065e-09
3.07506e-09
3.04573e-09
3.06845e-09
3.06933e-09
3.02368e-09
3.05639e-09
8.04572e-08
2.0587e-07
3.03941e-09
3.01594e-09
3.0176e-09
2.05822e-07
8.04472e-08
2.05846e-07
3.06391e-09
3.0919e-09
3.05936e-09
3.09285e-09
8.04831e-08
2.0588e-07
3.00766e-09
3.06796e-09
3.04072e-09
3.06721e-09
3.05513e-09
3.03053e-09
3.05474e-09
8.04575e-08
2.05871e-07
3.02048e-09
3.01515e-09
3.01556e-09
2.05823e-07
8.04432e-08
2.05844e-07
3.06208e-09
3.08607e-09
3.05929e-09
3.08136e-09
8.04521e-08
2.0588e-07
3.00802e-09
3.06722e-09
3.04238e-09
3.0679e-09
3.05348e-09
3.0277e-09
3.05528e-09
8.04575e-08
2.0587e-07
3.01944e-09
3.01608e-09
3.01659e-09
2.05822e-07
8.04437e-08
2.05843e-07
3.06175e-09
3.08133e-09
3.05954e-09
3.08079e-09
8.04508e-08
2.05879e-07
3.00893e-09
3.0681e-09
3.03996e-09
3.06804e-09
3.05458e-09
3.02763e-09
3.05439e-09
8.04577e-08
2.05869e-07
3.02084e-09
3.01365e-09
3.01596e-09
2.05822e-07
8.04436e-08
2.05843e-07
3.0622e-09
3.08114e-09
3.05894e-09
3.08077e-09
8.04508e-08
2.0588e-07
3.00863e-09
3.06829e-09
3.04354e-09
3.06807e-09
3.05425e-09
3.02746e-09
3.05513e-09
8.04576e-08
2.05869e-07
3.02085e-09
3.01697e-09
3.01927e-09
2.05821e-07
8.04438e-08
2.05844e-07
3.06195e-09
3.08061e-09
3.05851e-09
3.07985e-09
8.04511e-08
2.0588e-07
3.00937e-09
3.06811e-09
3.04362e-09
3.06788e-09
3.05427e-09
3.02673e-09
3.05462e-09
8.04578e-08
2.0587e-07
3.01981e-09
3.01579e-09
3.0166e-09
2.05823e-07
8.04437e-08
2.05844e-07
3.06157e-09
3.07998e-09
3.05913e-09
3.08073e-09
8.0451e-08
2.05881e-07
3.00915e-09
3.06802e-09
3.0435e-09
3.06854e-09
3.05267e-09
3.02709e-09
3.0554e-09
8.0458e-08
2.05871e-07
3.02315e-09
3.00869e-09
3.01613e-09
2.05823e-07
8.04441e-08
2.05844e-07
3.06133e-09
3.08024e-09
3.05905e-09
3.08089e-09
8.0451e-08
2.0588e-07
3.00871e-09
3.06782e-09
3.04332e-09
3.06848e-09
3.05343e-09
3.02756e-09
3.05556e-09
8.04583e-08
2.0587e-07
3.02026e-09
3.00939e-09
3.0172e-09
2.05822e-07
8.04435e-08
2.05845e-07
3.06183e-09
3.08108e-09
3.058e-09
3.07988e-09
8.04505e-08
2.05881e-07
3.00913e-09
3.06854e-09
3.04229e-09
3.06742e-09
3.05409e-09
3.02666e-09
3.05462e-09
8.04577e-08
2.05871e-07
3.02121e-09
3.00845e-09
3.01631e-09
2.05824e-07
8.04433e-08
2.05846e-07
3.06156e-09
3.08052e-09
3.05835e-09
3.08031e-09
8.04505e-08
2.05881e-07
3.00885e-09
3.06794e-09
3.04269e-09
3.06778e-09
3.0532e-09
3.0271e-09
3.05444e-09
8.04577e-08
2.05871e-07
3.02041e-09
3.00942e-09
3.0169e-09
2.05824e-07
8.04435e-08
2.05844e-07
3.06135e-09
3.08059e-09
3.05908e-09
3.08074e-09
8.04507e-08
2.05881e-07
3.00872e-09
3.06793e-09
3.04348e-09
3.06834e-09
3.0538e-09
3.02773e-09
3.05492e-09
8.04579e-08
2.0587e-07
3.02425e-09
3.00968e-09
3.01698e-09
2.05823e-07
8.04435e-08
2.05844e-07
3.06196e-09
3.08086e-09
3.05889e-09
3.08115e-09
8.04507e-08
2.0588e-07
3.00942e-09
3.06844e-09
3.04361e-09
3.0683e-09
3.05438e-09
3.02792e-09
3.05475e-09
8.04578e-08
2.0587e-07
3.01966e-09
3.01024e-09
3.01842e-09
2.05822e-07
8.04436e-08
2.05844e-07
3.06182e-09
3.0816e-09
3.05662e-09
3.08535e-09
8.04506e-08
2.05883e-07
3.0097e-09
3.06867e-09
3.03378e-09
3.06717e-09
3.05414e-09
3.03083e-09
3.05266e-09
8.04578e-08
2.0587e-07
3.02085e-09
3.00941e-09
3.01783e-09
2.05824e-07
8.04442e-08
2.05843e-07
3.05985e-09
3.09468e-09
3.054e-09
3.06404e-09
8.0449e-08
2.05897e-07
3.02563e-09
3.06829e-09
3.03e-09
3.06803e-09
3.05197e-09
3.03124e-09
3.05313e-09
8.04578e-08
2.0587e-07
3.01973e-09
3.01017e-09
3.01871e-09
2.05823e-07
8.04447e-08
2.05845e-07
3.05856e-09
3.03896e-09
3.05702e-09
3.07243e-09
8.04368e-08
2.05882e-07
3.0245e-09
3.06896e-09
3.02933e-09
3.06879e-09
3.0539e-09
3.02454e-09
3.05082e-09
8.04576e-08
2.0587e-07
3.02123e-09
3.01123e-09
3.01122e-09
2.05825e-07
8.04436e-08
2.05844e-07
3.06032e-09
3.07513e-09
3.05845e-09
3.0789e-09
8.04488e-08
2.05882e-07
3.02258e-09
3.07022e-09
3.02783e-09
3.06474e-09
3.0436e-09
3.03082e-09
3.07006e-09
8.04572e-08
2.05866e-07
2.99896e-09
3.01219e-09
3.01946e-09
2.05834e-07
8.04435e-08
2.05843e-07
3.06093e-09
3.07901e-09
3.05895e-09
3.07969e-09
8.04491e-08
2.05883e-07
3.02103e-09
3.06453e-09
3.0278e-09
3.06352e-09
3.07121e-09
3.03079e-09
3.07084e-09
8.04587e-08
2.05866e-07
3.01815e-09
3.01098e-09
3.01965e-09
2.05836e-07
8.04436e-08
2.05842e-07
3.06165e-09
3.07942e-09
3.05924e-09
3.08008e-09
8.04493e-08
2.05882e-07
3.02145e-09
3.06396e-09
3.02802e-09
3.06377e-09
3.07115e-09
3.03108e-09
3.07097e-09
8.04589e-08
2.05865e-07
3.01777e-09
3.01128e-09
3.0198e-09
2.05837e-07
8.04434e-08
2.05843e-07
3.06237e-09
3.08035e-09
3.05885e-09
3.0796e-09
8.04491e-08
2.05883e-07
3.02211e-09
3.0648e-09
3.02764e-09
3.06335e-09
3.07118e-09
3.0302e-09
3.07034e-09
8.04587e-08
2.05866e-07
3.01796e-09
3.01001e-09
3.0195e-09
2.05837e-07
8.04434e-08
2.05842e-07
3.06261e-09
3.08025e-09
3.05849e-09
3.07946e-09
8.04491e-08
2.05882e-07
3.02235e-09
3.06484e-09
3.02728e-09
3.06328e-09
3.071e-09
3.03017e-09
3.07054e-09
8.04587e-08
2.05865e-07
3.01773e-09
3.00968e-09
3.01743e-09
2.05836e-07
8.04434e-08
2.05843e-07
3.06229e-09
3.08015e-09
3.05869e-09
3.0797e-09
8.04489e-08
2.05882e-07
3.02202e-09
3.06467e-09
3.02745e-09
3.06349e-09
3.07151e-09
3.03081e-09
3.0716e-09
8.04586e-08
2.05865e-07
3.02036e-09
3.0108e-09
3.01991e-09
2.05835e-07
8.04437e-08
2.05844e-07
3.06149e-09
3.07958e-09
3.05868e-09
3.07908e-09
8.04493e-08
2.05883e-07
3.0212e-09
3.06413e-09
3.02747e-09
3.06279e-09
3.07136e-09
3.03029e-09
3.07053e-09
8.04589e-08
2.05867e-07
3.01784e-09
3.01042e-09
3.01927e-09
2.05837e-07
8.04433e-08
2.05844e-07
3.06175e-09
3.07962e-09
3.05861e-09
3.07902e-09
8.04487e-08
2.05884e-07
3.02149e-09
3.06412e-09
3.02742e-09
3.06276e-09
3.07184e-09
3.03018e-09
3.07038e-09
8.04583e-08
2.05867e-07
3.01843e-09
3.01023e-09
3.01846e-09
2.05838e-07
8.0443e-08
2.05843e-07
3.0627e-09
3.08018e-09
3.059e-09
3.08001e-09
8.04487e-08
2.05882e-07
3.02246e-09
3.06462e-09
3.02739e-09
3.06374e-09
3.07096e-09
3.0314e-09
3.07222e-09
8.04582e-08
2.05865e-07
3.01908e-09
3.01163e-09
3.02185e-09
2.05834e-07
8.04431e-08
2.05844e-07
3.06244e-09
3.08033e-09
3.05832e-09
3.0795e-09
8.04488e-08
2.05883e-07
3.02296e-09
3.06488e-09
3.02601e-09
3.06318e-09
3.07259e-09
3.03077e-09
3.07011e-09
8.04585e-08
2.05866e-07
3.02005e-09
3.01091e-09
3.01966e-09
2.05837e-07
8.04434e-08
2.05844e-07
3.06167e-09
3.07976e-09
3.0585e-09
3.07955e-09
8.0449e-08
2.05883e-07
3.02173e-09
3.06425e-09
3.02612e-09
3.06323e-09
3.07217e-09
3.03037e-09
3.06981e-09
8.04587e-08
2.05867e-07
3.01955e-09
3.01053e-09
3.01932e-09
2.05838e-07
8.04432e-08
2.05843e-07
3.06191e-09
3.07926e-09
3.0584e-09
3.07957e-09
8.04491e-08
2.05883e-07
3.02188e-09
3.06378e-09
3.0257e-09
3.06346e-09
3.07063e-09
3.03001e-09
3.07044e-09
8.04587e-08
2.05867e-07
3.01794e-09
3.01006e-09
3.01957e-09
2.05838e-07
8.04433e-08
2.05843e-07
3.0617e-09
3.07986e-09
3.05936e-09
3.08001e-09
8.0449e-08
2.05883e-07
3.02124e-09
3.06479e-09
3.02572e-09
3.06593e-09
3.07113e-09
3.03003e-09
3.0722e-09
8.04584e-08
2.05867e-07
3.01791e-09
3.01187e-09
3.01825e-09
2.05839e-07
8.04432e-08
2.05843e-07
3.06301e-09
3.07982e-09
3.05949e-09
3.08123e-09
8.04491e-08
2.05881e-07
3.02151e-09
3.06763e-09
3.02525e-09
3.06872e-09
3.07249e-09
3.03069e-09
3.07725e-09
8.04587e-08
2.0586e-07
3.01393e-09
2.97536e-09
3.00149e-09
2.0583e-07
8.04432e-08
2.0584e-07
3.06342e-09
3.08194e-09
3.06148e-09
3.08185e-09
8.04488e-08
2.05881e-07
3.02179e-09
3.06785e-09
3.02794e-09
3.06349e-09
3.0769e-09
3.03176e-09
3.07065e-09
8.0461e-08
2.05863e-07
2.99983e-09
3.00572e-09
3.01356e-09
2.05834e-07
8.04426e-08
2.05842e-07
3.0641e-09
3.08164e-09
3.059e-09
3.08044e-09
8.04481e-08
2.05881e-07
3.0232e-09
3.06388e-09
3.02617e-09
3.06319e-09
3.07137e-09
3.03059e-09
3.0709e-09
8.0457e-08
2.05865e-07
3.01263e-09
3.00757e-09
3.00403e-09
2.05838e-07
8.04414e-08
2.05842e-07
3.0636e-09
3.08101e-09
3.05795e-09
3.07965e-09
8.04475e-08
2.0588e-07
3.02329e-09
3.06463e-09
3.02548e-09
3.06304e-09
3.07013e-09
3.03082e-09
3.07115e-09
8.04567e-08
2.05864e-07
3.02672e-09
3.01098e-09
3.01046e-09
2.05835e-07
8.04419e-08
2.05841e-07
3.0612e-09
3.0794e-09
3.05875e-09
3.07976e-09
8.04476e-08
2.05881e-07
3.02116e-09
3.06364e-09
3.02639e-09
3.06336e-09
3.0704e-09
3.03027e-09
3.07004e-09
8.0457e-08
2.05864e-07
3.03299e-09
3.01134e-09
3.01915e-09
2.05835e-07
8.0442e-08
2.05842e-07
3.06115e-09
3.0796e-09
3.05831e-09
3.07974e-09
8.04476e-08
2.05881e-07
3.02117e-09
3.06415e-09
3.02602e-09
3.06337e-09
3.07117e-09
3.03025e-09
3.07042e-09
8.0457e-08
2.05864e-07
3.01788e-09
3.01122e-09
3.01987e-09
2.05835e-07
8.04412e-08
2.05842e-07
3.06247e-09
3.08027e-09
3.05847e-09
3.07943e-09
8.04473e-08
2.05881e-07
3.02253e-09
3.06485e-09
3.02614e-09
3.06296e-09
3.07216e-09
3.03016e-09
3.06977e-09
8.04567e-08
2.05865e-07
3.0188e-09
3.01135e-09
3.01965e-09
2.05836e-07
8.04416e-08
2.05841e-07
3.06122e-09
3.07924e-09
3.0588e-09
3.08007e-09
8.04474e-08
2.05881e-07
3.02129e-09
3.06375e-09
3.0265e-09
3.06362e-09
3.07166e-09
3.03059e-09
3.071e-09
8.04569e-08
2.05864e-07
3.01863e-09
3.01194e-09
3.02031e-09
2.05833e-07
8.04412e-08
2.05843e-07
3.06261e-09
3.08028e-09
3.05767e-09
3.07882e-09
8.04472e-08
2.05882e-07
3.02267e-09
3.06484e-09
3.02538e-09
3.06232e-09
3.07169e-09
3.03036e-09
3.0707e-09
8.04566e-08
2.05865e-07
3.01797e-09
3.01318e-09
3.02084e-09
2.05835e-07
8.04412e-08
2.05842e-07
3.06164e-09
3.08004e-09
3.05835e-09
3.07885e-09
8.0447e-08
2.05883e-07
3.02172e-09
3.06456e-09
3.02605e-09
3.06255e-09
3.07188e-09
3.02985e-09
3.06999e-09
8.04566e-08
2.05866e-07
3.01891e-09
3.00993e-09
3.01925e-09
2.05836e-07
8.04416e-08
2.05841e-07
3.06172e-09
3.07916e-09
3.05916e-09
3.08073e-09
8.04473e-08
2.05879e-07
3.02179e-09
3.06362e-09
3.02684e-09
3.06438e-09
3.07148e-09
3.03187e-09
3.07147e-09
8.04569e-08
2.05863e-07
3.01867e-09
3.01206e-09
3.02079e-09
2.05833e-07
8.04415e-08
2.05841e-07
3.0626e-09
3.08058e-09
3.05831e-09
3.0791e-09
8.04474e-08
2.05881e-07
3.02264e-09
3.06503e-09
3.02597e-09
3.06273e-09
3.07187e-09
3.03049e-09
3.07019e-09
8.0457e-08
2.05864e-07
3.01909e-09
3.01069e-09
3.01956e-09
2.05835e-07
8.04415e-08
2.05843e-07
3.06162e-09
3.07962e-09
3.05805e-09
3.07879e-09
8.04474e-08
2.05883e-07
3.02165e-09
3.06407e-09
3.02576e-09
3.06241e-09
3.07142e-09
3.03034e-09
3.06971e-09
8.0457e-08
2.05866e-07
3.01863e-09
3.01054e-09
3.01908e-09
2.05836e-07
8.04413e-08
2.05841e-07
3.06144e-09
3.07896e-09
3.05845e-09
3.07943e-09
8.04471e-08
2.05881e-07
3.02153e-09
3.06338e-09
3.02676e-09
3.0631e-09
3.07026e-09
3.03067e-09
3.0705e-09
8.04568e-08
2.05864e-07
3.0175e-09
3.01084e-09
3.01986e-09
2.05834e-07
8.04412e-08
2.05842e-07
3.0619e-09
3.08e-09
3.05821e-09
3.07959e-09
8.04472e-08
2.05881e-07
3.02462e-09
3.06457e-09
3.03976e-09
3.06321e-09
3.07157e-09
3.03076e-09
3.07127e-09
8.04568e-08
2.05865e-07
3.01878e-09
3.01099e-09
3.02062e-09
2.05835e-07
8.04404e-08
2.05842e-07
3.0621e-09
3.08033e-09
3.05834e-09
3.0795e-09
8.04469e-08
2.05882e-07
3.00813e-09
3.06469e-09
3.04013e-09
3.06318e-09
3.07109e-09
3.03045e-09
3.07001e-09
8.04565e-08
2.05865e-07
3.01832e-09
3.01063e-09
3.01937e-09
2.05836e-07
8.04405e-08
2.05841e-07
3.06222e-09
3.07968e-09
3.05906e-09
3.07978e-09
8.04471e-08
2.05882e-07
3.00837e-09
3.06408e-09
3.04084e-09
3.06368e-09
3.0704e-09
3.03051e-09
3.07071e-09
8.04567e-08
2.05864e-07
3.01764e-09
3.01072e-09
3.02005e-09
2.05836e-07
8.04407e-08
2.0584e-07
3.0626e-09
3.07985e-09
3.0593e-09
3.08015e-09
8.0447e-08
2.0588e-07
3.00881e-09
3.0669e-09
3.04102e-09
3.06974e-09
3.07223e-09
3.03129e-09
3.07094e-09
8.04565e-08
2.05899e-07
3.01943e-09
3.01089e-09
3.02026e-09
2.05834e-07
8.04407e-08
2.05842e-07
3.06287e-09
3.08023e-09
3.05802e-09
3.07947e-09
8.04473e-08
2.05882e-07
3.00909e-09
3.0584e-09
3.03975e-09
3.06929e-09
3.07162e-09
3.03025e-09
3.06982e-09
8.04566e-08
2.05901e-07
3.01883e-09
3.01008e-09
3.01925e-09
2.05835e-07
8.04406e-08
2.05845e-07
3.06148e-09
3.07915e-09
3.05756e-09
3.07932e-09
8.0447e-08
2.05884e-07
3.00775e-09
3.05742e-09
3.0393e-09
3.06912e-09
3.07096e-09
3.03005e-09
3.06987e-09
8.04564e-08
2.05903e-07
3.01826e-09
3.00976e-09
3.01941e-09
2.05837e-07
8.04401e-08
2.05842e-07
3.062e-09
3.0795e-09
3.05866e-09
3.08004e-09
8.04468e-08
2.05882e-07
3.00821e-09
3.0579e-09
3.04038e-09
3.07257e-09
3.07106e-09
3.03148e-09
3.07151e-09
8.04562e-08
2.05901e-07
3.01821e-09
3.01137e-09
3.02061e-09
2.05835e-07
8.04405e-08
2.05841e-07
3.06241e-09
3.08006e-09
3.05824e-09
3.08038e-09
8.04472e-08
2.05881e-07
3.00859e-09
3.05891e-09
3.04035e-09
3.06261e-09
3.07248e-09
3.03013e-09
3.07258e-09
8.04583e-08
2.05875e-07
3.01963e-09
3.00922e-09
3.02497e-09
2.05834e-07
8.04402e-08
2.05845e-07
3.06233e-09
3.08144e-09
3.06296e-09
3.08656e-09
8.0447e-08
2.05881e-07
3.00948e-09
3.06358e-09
3.04322e-09
3.08556e-09
3.08227e-09
3.03826e-09
3.06818e-09
8.04568e-08
2.05869e-07
3.03459e-09
3.02463e-09
3.02812e-09
2.05824e-07
8.04348e-08
2.05856e-07
3.07519e-09
3.0715e-09
3.49304e-09
3.48597e-09
8.04423e-08
2.0586e-07
3.00764e-09
3.095e-09
3.51852e-09
3.51605e-09
3.05598e-09
3.39443e-09
3.42497e-09
8.04515e-08
2.05865e-07
3.00875e-09
3.4183e-09
3.38376e-09
2.0581e-07
8.0446e-08
2.05752e-07
4.11558e-09
4.16233e-09
1.97456e-08
1.97807e-08
8.04146e-08
2.05746e-07
4.12112e-09
4.08668e-09
1.98083e-08
1.98453e-08
4.07996e-09
1.9675e-08
1.97602e-08
8.04415e-08
2.0575e-07
4.06176e-09
1.97114e-08
1.96562e-08
2.05738e-07
7.96628e-08
1.47057e-07
4.04883e-08
4.05177e-08
1.28593e-07
1.28442e-07
7.96687e-08
1.47069e-07
4.0401e-08
4.05809e-08
1.28631e-07
1.28416e-07
4.05542e-08
1.28878e-07
1.28645e-07
7.97367e-08
1.47012e-07
4.03963e-08
1.28676e-07
1.2859e-07
1.46998e-07
3.79092e-07
1.98836e-07
1.98683e-07
3.79031e-07
1.98957e-07
1.98736e-07
3.54452e-07
3.54543e-07
3.54536e-07
1.98855e-07
3.7901e-07
1.98966e-07
7.17017e-08
2.89019e-07
1.87455e-07
1.87483e-07
4.96452e-07
3.79128e-07
4.01431e-07
2.47383e-07
4.96413e-07
3.79141e-07
2.47378e-07
4.01329e-07
5.0215e-07
3.96102e-07
3.96073e-07
2.37947e-06
0.000119758
2.48775e-06
0.000121517
0.000242762
0.00025052
2.37982e-06
0.000119774
2.48755e-06
0.000121536
7.93052e-07
7.92725e-07
7.92911e-07
1.09647e-07
1.09573e-07
1.09612e-07
1.09673e-07
1.76486e-07
3.62416e-06
7.05068e-07
4.66952e-07
1.32409e-07
2.94239e-06
4.30813e-07
0.000242756
0.000250504
1.7669e-07
7.04444e-07
3.62349e-06
4.66858e-07
1.32011e-07
4.30483e-07
2.94192e-06
6.44096e-06
6.44117e-06
2.03254e-07
6.29349e-06
6.29508e-06
2.27738e-06
0.000121224
2.27215e-06
0.000121221
0.000250877
0.000250871
2.27771e-06
0.00012124
2.27247e-06
0.000121238
5.28804e-08
5.28624e-08
5.28992e-08
7.31398e-09
7.31097e-09