/*--------------------------------*- C++ -*----------------------------------*\
| =========                 |                                                 |
| \\      /  F ield         | OpenFOAM: The Open Source CFD Toolbox           |
|  \\    /   O peration     | Version:  v1906                                 |
|   \\  /    A nd           | Web:      www.OpenFOAM.com                      |
|    \\/     M anipulation  |                                                 |
\*---------------------------------------------------------------------------*/
FoamFile
{
    version     2.0;
    format      ascii;
    class       volScalarField;
    location    "500";
    object      epsilon;
}
// * * * * * * * * * * * * * * * * * * * * * * * * * * * * * * * * * * * * * //

dimensions      [0 2 -3 0 0 0 0];


internalField   nonuniform List<scalar> 
171728
(
1.15338e-06
8.68306e-07
8.68814e-07
1.154e-06
8.68028e-07
8.688e-07
8.68624e-07
8.68933e-07
1.15424e-06
8.68665e-07
8.68794e-07
1.15463e-06
3.22783e-07
3.22924e-07
3.22944e-07
3.2301e-07
1.84334e-05
1.84348e-05
5.46127e-06
5.46249e-06
4.0908e-06
9.16384e-06
4.09327e-06
4.09092e-06
9.16444e-06
9.15712e-06
4.09346e-06
2.10415e-06
3.47543e-06
5.62306e-07
5.56367e-07
2.10997e-06
2.10427e-06
8.62826e-07
3.47751e-06
5.62418e-07
3.47431e-06
5.56475e-07
2.11013e-06
1.8432e-05
1.84232e-05
1.15001e-06
5.46497e-06
5.4631e-06
5.46244e-06
5.46077e-06
1.84297e-05
1.84203e-05
9.16543e-06
4.09357e-06
3.47579e-06
5.62359e-07
2.11004e-06
9.16367e-06
4.09358e-06
5.62411e-07
3.47767e-06
2.11009e-06
2.10422e-06
8.62629e-07
3.47712e-06
5.62399e-07
3.47395e-06
5.56458e-07
2.11019e-06
4.09086e-06
9.16439e-06
9.15732e-06
4.09361e-06
2.1041e-06
8.62734e-07
5.62445e-07
3.47678e-06
5.56504e-07
3.47287e-06
2.11009e-06
4.09072e-06
9.16446e-06
9.15796e-06
4.09345e-06
1.84309e-05
5.46515e-06
5.46346e-06
1.84299e-05
2.10411e-06
5.62421e-07
3.4773e-06
5.56467e-07
2.11011e-06
2.10416e-06
8.62599e-07
5.62477e-07
3.47727e-06
5.56539e-07
3.4734e-06
2.1101e-06
4.09034e-06
9.16371e-06
4.09368e-06
4.09044e-06
9.16551e-06
9.1591e-06
4.09364e-06
1.1501e-06
5.46321e-06
5.46501e-06
5.45956e-06
5.4614e-06
1.84337e-05
1.84241e-05
1.84355e-05
1.84258e-05
1.84281e-05
1.84299e-05
4.53778e-06
2.81547e-06
5.46012e-06
9.50476e-06
9.50138e-06
2.81157e-06
4.54378e-06
4.54534e-06
2.8143e-06
5.46202e-06
9.50751e-06
9.50556e-06
2.81357e-06
4.54493e-06
9.72837e-06
2.17356e-05
2.17332e-05
2.17341e-05
2.17328e-05
9.73031e-06
1.22034e-05
1.08247e-05
4.74281e-06
4.09145e-06
1.22008e-05
1.0827e-05
4.74338e-06
2.20555e-05
9.16097e-06
7.08587e-06
7.0859e-06
2.20613e-05
1.22043e-05
4.09266e-06
1.08302e-05
4.74494e-06
1.08278e-05
4.74439e-06
1.22069e-05
1.22036e-05
1.08249e-05
4.74305e-06
4.09163e-06
1.22011e-05
1.08271e-05
4.74405e-06
2.20551e-05
9.1613e-06
7.08827e-06
7.08833e-06
2.20603e-05
2.20556e-05
7.08762e-06
9.15992e-06
2.20506e-05
7.08765e-06
1.22044e-05
4.0928e-06
1.08303e-05
4.7455e-06
1.0828e-05
4.74463e-06
1.2207e-05
1.84274e-05
1.84268e-05
9.73633e-06
2.17141e-05
2.17147e-05
9.73671e-06
2.17191e-05
2.17197e-05
4.54524e-06
2.81564e-06
5.46454e-06
9.50836e-06
2.81456e-06
9.50376e-06
4.54524e-06
4.53928e-06
2.81443e-06
5.46284e-06
9.50371e-06
9.49893e-06
2.81336e-06
4.53931e-06
4.5447e-06
9.49918e-06
2.81237e-06
5.46303e-06
2.81366e-06
4.54461e-06
9.50191e-06
4.53875e-06
9.49431e-06
2.8112e-06
5.4612e-06
4.53862e-06
9.49702e-06
2.81247e-06
9.7363e-06
2.1739e-05
2.17398e-05
2.17235e-05
2.17242e-05
9.73481e-06
1.84247e-05
1.8424e-05
2.20555e-05
9.16266e-06
7.08746e-06
7.08719e-06
2.20609e-05
1.22045e-05
4.09241e-06
4.74528e-06
1.08307e-05
4.74424e-06
1.08284e-05
1.22071e-05
2.20548e-05
9.16079e-06
7.08692e-06
7.08705e-06
2.20603e-05
1.22046e-05
4.09243e-06
1.08305e-05
4.74525e-06
1.08282e-05
4.74454e-06
1.22072e-05
1.22037e-05
4.74279e-06
1.08253e-05
4.09161e-06
1.22011e-05
4.74387e-06
1.08276e-05
2.20546e-05
9.16142e-06
7.08771e-06
7.08767e-06
2.20596e-05
2.20553e-05
7.08685e-06
9.16009e-06
2.20504e-05
7.08689e-06
1.22045e-05
4.09288e-06
4.74555e-06
1.08308e-05
4.74452e-06
1.08285e-05
1.2207e-05
1.2204e-05
1.08251e-05
4.74243e-06
4.09143e-06
1.22014e-05
1.08275e-05
4.74351e-06
2.20561e-05
9.16193e-06
7.08651e-06
7.08624e-06
2.2061e-05
2.20567e-05
7.08481e-06
9.16079e-06
2.20515e-05
7.08503e-06
1.22049e-05
4.09273e-06
1.08307e-05
4.74531e-06
1.08284e-05
4.7442e-06
1.22074e-05
1.84267e-05
4.54689e-06
2.81661e-06
5.46475e-06
9.50485e-06
2.81543e-06
9.5011e-06
4.54699e-06
4.541e-06
2.81555e-06
5.46288e-06
9.50047e-06
9.49676e-06
2.81432e-06
4.54108e-06
9.73748e-06
2.17257e-05
2.17261e-05
2.17163e-05
2.17167e-05
9.73708e-06
1.8426e-05
1.22039e-05
4.74237e-06
1.08254e-05
4.09155e-06
1.22014e-05
4.74351e-06
1.08277e-05
2.20554e-05
9.161e-06
7.08655e-06
7.08643e-06
2.20603e-05
2.20562e-05
7.08545e-06
1.22048e-05
4.09246e-06
4.74541e-06
1.08309e-05
4.74423e-06
1.08286e-05
1.22073e-05
1.22039e-05
4.74278e-06
1.08255e-05
4.09155e-06
1.22013e-05
4.74345e-06
1.08278e-05
2.20558e-05
9.163e-06
7.08809e-06
7.08803e-06
2.20609e-05
2.20568e-05
7.08657e-06
9.16188e-06
2.20515e-05
7.08659e-06
1.22047e-05
4.09251e-06
4.74528e-06
1.0831e-05
4.7446e-06
1.08287e-05
1.22072e-05
9.73634e-06
2.17279e-05
2.17272e-05
9.73524e-06
2.1731e-05
2.17303e-05
4.54318e-06
2.81661e-06
5.46236e-06
9.50465e-06
2.81468e-06
9.50188e-06
4.54406e-06
4.54909e-06
2.81779e-06
5.46415e-06
9.50947e-06
2.8158e-06
9.50671e-06
4.55001e-06
4.54088e-06
9.49725e-06
2.81087e-06
5.46035e-06
4.53972e-06
2.81295e-06
9.50066e-06
4.54685e-06
9.50205e-06
2.812e-06
5.46218e-06
4.54566e-06
2.81415e-06
9.50547e-06
9.73931e-06
2.17323e-05
2.17315e-05
2.17296e-05
2.17288e-05
9.74021e-06
1.84295e-05
1.84288e-05
1.84313e-05
1.84306e-05
2.67048e-06
1.15397e-06
1.77296e-06
1.77216e-06
1.77143e-06
1.77209e-06
2.67248e-06
2.67067e-06
1.1548e-06
1.77302e-06
1.77287e-06
1.77302e-06
1.77286e-06
2.67084e-06
2.67225e-06
1.15495e-06
1.77378e-06
1.77369e-06
1.7737e-06
1.77359e-06
2.67246e-06
2.67381e-06
1.1553e-06
1.77438e-06
1.77461e-06
1.77396e-06
1.77421e-06
2.67465e-06
1.68205e-07
1.68185e-07
1.66054e-07
7.99962e-08
8.05543e-08
3.1895e-07
1.68217e-07
1.68178e-07
1.6607e-07
1.66035e-07
7.99963e-08
8.05516e-08
1.68244e-07
1.68215e-07
1.66081e-07
8.00178e-08
8.05704e-08
3.18991e-07
1.68259e-07
1.68232e-07
1.66109e-07
1.66086e-07
8.00164e-08
8.05735e-08
1.41453e-06
2.36314e-06
1.27754e-06
2.10635e-06
1.41509e-06
2.36504e-06
1.27766e-06
1.62098e-06
2.03593e-06
3.47472e-06
2.86126e-06
2.03502e-06
2.86075e-06
1.62067e-06
1.42023e-06
2.10783e-06
2.36831e-06
1.28302e-06
2.36645e-06
1.28291e-06
1.41967e-06
1.41486e-06
2.36363e-06
1.27763e-06
2.1065e-06
1.41539e-06
2.36568e-06
1.27776e-06
1.62181e-06
2.03729e-06
3.47703e-06
2.86283e-06
2.86233e-06
2.03689e-06
1.62147e-06
1.61685e-06
2.8594e-06
2.03308e-06
3.47496e-06
1.61713e-06
2.86006e-06
2.03364e-06
1.42063e-06
2.10799e-06
2.369e-06
1.28314e-06
2.36712e-06
1.28304e-06
1.42006e-06
2.66938e-06
1.14926e-06
1.76971e-06
1.76955e-06
1.76977e-06
2.6692e-06
1.76963e-06
1.62115e-06
2.03594e-06
3.47527e-06
2.86176e-06
2.03545e-06
2.86119e-06
1.62079e-06
1.42037e-06
2.10788e-06
2.3685e-06
1.28309e-06
2.36661e-06
1.28299e-06
1.41979e-06
1.62149e-06
2.03747e-06
3.47706e-06
2.86242e-06
2.86173e-06
2.03691e-06
1.62121e-06
1.4204e-06
2.10788e-06
1.2831e-06
2.3688e-06
1.28298e-06
2.36676e-06
1.41987e-06
1.41478e-06
2.36348e-06
1.27762e-06
2.10647e-06
1.41533e-06
2.36553e-06
1.27776e-06
1.62167e-06
2.03693e-06
3.47668e-06
2.8626e-06
2.0365e-06
2.8621e-06
1.62132e-06
1.61669e-06
2.85912e-06
2.0327e-06
3.47456e-06
1.61698e-06
2.03327e-06
2.85975e-06
1.42057e-06
2.10799e-06
2.36895e-06
1.28316e-06
2.36701e-06
1.28304e-06
1.42e-06
1.41468e-06
1.27758e-06
2.36313e-06
2.10634e-06
1.41522e-06
1.27772e-06
2.36513e-06
1.62145e-06
2.0371e-06
3.47598e-06
2.86203e-06
2.86136e-06
2.03639e-06
1.62116e-06
1.61646e-06
2.8582e-06
2.03214e-06
3.47361e-06
1.61676e-06
2.85884e-06
2.03282e-06
1.42042e-06
2.10786e-06
1.28311e-06
2.36865e-06
1.28298e-06
2.36663e-06
1.41987e-06
1.41459e-06
1.27758e-06
2.36309e-06
2.10631e-06
1.41513e-06
1.27772e-06
2.36517e-06
1.62144e-06
2.0372e-06
3.47662e-06
2.86234e-06
2.03664e-06
2.86155e-06
1.62115e-06
1.61635e-06
2.85913e-06
1.42041e-06
2.10793e-06
1.28314e-06
2.3688e-06
1.28301e-06
2.36673e-06
1.41988e-06
1.41481e-06
1.27764e-06
2.36328e-06
2.10632e-06
1.41536e-06
1.27778e-06
2.36525e-06
1.62164e-06
2.03745e-06
3.47648e-06
2.86247e-06
2.86182e-06
2.03677e-06
1.62134e-06
1.61664e-06
2.85865e-06
2.03253e-06
3.47412e-06
1.61696e-06
2.85926e-06
2.03319e-06
1.42056e-06
2.10793e-06
1.28317e-06
2.36879e-06
1.28304e-06
2.36677e-06
1.42e-06
2.67084e-06
1.14945e-06
1.76938e-06
1.76963e-06
2.6697e-06
1.76987e-06
1.77011e-06
6.57749e-07
1.1897e-06
1.18613e-06
1.41815e-06
1.41631e-06
1.42578e-06
1.41809e-06
1.19169e-06
1.18951e-06
1.18976e-06
1.18923e-06
1.42232e-06
1.41761e-06
1.19147e-06
1.18582e-06
1.18951e-06
1.19261e-06
1.18908e-06
1.18883e-06
1.18534e-06
1.41497e-06
1.42714e-06
1.18874e-06
1.19215e-06
1.18509e-06
1.41104e-06
1.1859e-06
1.18585e-06
4.24162e-06
9.57103e-06
9.58369e-06
4.24572e-06
1.90773e-05
1.91046e-05
4.23742e-06
9.5813e-06
9.58232e-06
4.23883e-06
6.56533e-07
6.55845e-07
6.57759e-07
6.60873e-07
6.60302e-07
6.61241e-07
6.59361e-07
2.29773e-06
3.65541e-06
9.36986e-07
1.18962e-06
3.64704e-06
9.37351e-07
2.30448e-06
1.90814e-05
1.90641e-05
2.29412e-06
9.36234e-07
3.63973e-06
1.18714e-06
9.36347e-07
3.64333e-06
2.29779e-06
5.64771e-06
5.64649e-06
1.4091e-06
5.63049e-06
5.62925e-06
5.63307e-06
5.63582e-06
1.90982e-05
1.91095e-05
1.91062e-05
1.91096e-05
5.65905e-06
5.65793e-06
1.42123e-06
5.65269e-06
5.65177e-06
1.9107e-05
1.9109e-05
1.91018e-05
1.91074e-05
1.42242e-06
5.64553e-06
5.64778e-06
5.65139e-06
5.65109e-06
4.24129e-06
9.55915e-06
9.58122e-06
4.24555e-06
2.30034e-06
3.65627e-06
9.36952e-07
1.19148e-06
3.6511e-06
9.37703e-07
2.30341e-06
2.30007e-06
3.65529e-06
9.36388e-07
1.18958e-06
3.64868e-06
9.37272e-07
2.3033e-06
4.24054e-06
9.58414e-06
9.58498e-06
4.23632e-06
4.24016e-06
9.58494e-06
9.58431e-06
4.23614e-06
2.29933e-06
1.19064e-06
3.64577e-06
9.38163e-07
3.65037e-06
9.38042e-07
2.29591e-06
2.29902e-06
1.1894e-06
3.64403e-06
9.379e-07
3.64785e-06
9.37697e-07
2.29568e-06
5.65807e-06
5.65712e-06
1.4185e-06
5.64999e-06
5.64765e-06
1.90805e-05
1.91044e-05
1.91064e-05
1.91057e-05
1.4199e-06
5.64415e-06
5.64048e-06
5.64821e-06
5.64565e-06
1.91034e-05
1.91049e-05
2.29697e-06
3.65381e-06
9.36885e-07
1.19093e-06
3.6497e-06
9.37302e-07
2.29858e-06
4.23683e-06
9.57608e-06
9.55834e-06
4.23707e-06
2.29611e-06
9.35461e-07
3.63932e-06
1.18716e-06
9.36094e-07
3.64471e-06
2.29678e-06
4.23754e-06
9.57672e-06
9.58114e-06
4.239e-06
2.29702e-06
1.19013e-06
3.64745e-06
9.38092e-07
3.64956e-06
9.37657e-07
2.29762e-06
4.23762e-06
9.5526e-06
9.5545e-06
4.2401e-06
2.29678e-06
1.19019e-06
9.38188e-07
3.65513e-06
9.37068e-07
3.64878e-06
2.29857e-06
4.23821e-06
9.56468e-06
9.58421e-06
4.24702e-06
2.29651e-06
9.37711e-07
3.65124e-06
1.18674e-06
9.37548e-07
3.63738e-06
2.30382e-06
4.23699e-06
9.60224e-06
9.60579e-06
4.24636e-06
2.29581e-06
1.18914e-06
3.64135e-06
9.37395e-07
3.64589e-06
9.37416e-07
2.29122e-06
4.2358e-06
9.58548e-06
9.58677e-06
4.22989e-06
2.29447e-06
1.18556e-06
9.36697e-07
3.63219e-06
9.37018e-07
3.63514e-06
2.29003e-06
4.23448e-06
9.57681e-06
9.60159e-06
4.22884e-06
5.63589e-06
5.63557e-06
1.4188e-06
5.64598e-06
5.64408e-06
1.90847e-05
1.90647e-05
1.90709e-05
1.90603e-05
1.42401e-06
5.66251e-06
5.65946e-06
5.65185e-06
5.64932e-06
1.90683e-05
1.90601e-05
2.29321e-06
9.37836e-07
3.64881e-06
1.18637e-06
9.37226e-07
3.63571e-06
2.29888e-06
4.23386e-06
9.58236e-06
9.56187e-06
4.23861e-06
4.23256e-06
9.61294e-06
9.60327e-06
4.23929e-06
2.2937e-06
1.18982e-06
9.37486e-07
3.65258e-06
9.36673e-07
3.64667e-06
2.29371e-06
2.29221e-06
1.18524e-06
9.36595e-07
3.63328e-06
9.36736e-07
3.63411e-06
2.29122e-06
4.23324e-06
9.55327e-06
9.55714e-06
4.23354e-06
4.23137e-06
9.56774e-06
9.59417e-06
4.23102e-06
1.91355e-05
1.9124e-05
1.91455e-05
1.91232e-05
1.41034e-06
5.62762e-06
5.6297e-06
5.62765e-06
5.62698e-06
1.908e-05
1.91106e-05
1.9076e-05
1.91065e-05
9.36673e-07
3.63471e-06
2.28975e-06
9.56545e-06
4.22862e-06
3.63735e-06
9.55881e-06
1.90678e-05
1.90658e-05
1.26602e-05
1.12501e-05
4.88711e-06
4.24364e-06
1.12463e-05
4.8894e-06
1.26644e-05
2.27738e-05
9.57694e-06
7.25264e-06
7.24973e-06
2.27582e-05
2.27777e-05
7.24497e-06
9.58025e-06
7.24874e-06
2.27893e-05
1.26581e-05
4.24456e-06
1.12383e-05
4.89224e-06
1.12441e-05
4.89049e-06
1.26513e-05
1.90919e-05
1.9096e-05
1.26633e-05
4.88277e-06
1.125e-05
4.23767e-06
4.88334e-06
1.12503e-05
1.26633e-05
2.27815e-05
9.58244e-06
7.24585e-06
7.24387e-06
2.27791e-05
2.2778e-05
7.24234e-06
9.58244e-06
7.24362e-06
2.27789e-05
1.26639e-05
4.23803e-06
4.88513e-06
1.12508e-05
4.88394e-06
1.12509e-05
1.26633e-05
1.90761e-05
1.90658e-05
9.88381e-06
2.24825e-05
2.24811e-05
2.25163e-05
2.25179e-05
9.87717e-06
4.66414e-06
2.96298e-06
5.64057e-06
1.00055e-05
2.95798e-06
9.99922e-06
4.67095e-06
4.66847e-06
2.96284e-06
5.639e-06
1.00184e-05
2.95777e-06
1.00102e-05
4.67547e-06
4.66124e-06
9.97157e-06
5.63549e-06
2.95297e-06
2.95495e-06
9.98493e-06
4.66039e-06
4.66535e-06
9.9782e-06
5.63391e-06
2.95282e-06
2.9547e-06
9.99377e-06
4.6645e-06
9.89491e-06
2.25737e-05
2.25782e-05
2.25584e-05
2.25621e-05
9.91266e-06
4.70854e-06
2.96972e-06
9.89193e-06
5.63631e-06
4.70078e-06
2.97452e-06
9.88403e-06
4.71459e-06
2.97131e-06
9.89303e-06
5.63965e-06
4.70642e-06
2.97644e-06
9.88516e-06
9.94813e-06
2.22713e-05
2.22627e-05
9.93219e-06
2.22539e-05
2.22459e-05
1.91048e-05
1.9106e-05
1.91092e-05
1.91085e-05
9.97325e-06
2.24397e-05
2.24396e-05
2.24411e-05
2.2443e-05
9.96798e-06
4.71062e-06
2.98457e-06
5.65669e-06
9.9523e-06
9.95575e-06
2.98233e-06
4.71412e-06
4.71485e-06
2.98427e-06
5.65522e-06
9.96406e-06
9.96598e-06
2.98189e-06
4.71869e-06
4.70917e-06
9.95731e-06
5.65555e-06
2.9786e-06
9.95673e-06
4.70562e-06
2.98091e-06
4.71329e-06
9.96505e-06
5.65428e-06
2.97837e-06
9.96585e-06
4.70978e-06
2.9805e-06
9.97559e-06
2.24388e-05
2.24446e-05
2.24438e-05
2.24479e-05
9.98119e-06
1.91077e-05
1.91101e-05
1.91028e-05
1.91069e-05
9.96077e-06
2.24306e-05
2.2427e-05
9.96581e-06
2.24273e-05
2.24221e-05
4.69891e-06
2.97181e-06
5.64759e-06
9.94881e-06
9.95098e-06
2.97357e-06
4.69584e-06
4.70404e-06
2.97299e-06
5.64892e-06
9.94908e-06
9.9521e-06
2.97437e-06
4.70127e-06
4.70049e-06
9.95633e-06
2.97709e-06
5.64868e-06
4.70405e-06
9.95494e-06
2.97494e-06
4.70523e-06
9.96113e-06
2.97713e-06
5.64924e-06
4.7084e-06
9.95834e-06
2.97535e-06
9.95863e-06
2.24152e-05
2.24079e-05
2.2417e-05
2.24101e-05
9.95379e-06
1.26578e-05
1.12497e-05
4.88586e-06
4.2433e-06
1.12456e-05
4.88797e-06
1.26631e-05
2.27648e-05
9.56857e-06
7.25365e-06
7.24983e-06
2.27442e-05
2.27712e-05
7.24347e-06
9.57504e-06
7.24773e-06
2.27865e-05
1.26548e-05
4.2443e-06
1.1237e-05
4.89146e-06
1.1243e-05
4.88952e-06
1.26468e-05
1.26672e-05
1.12512e-05
4.88578e-06
4.23867e-06
1.26653e-05
1.12533e-05
4.88364e-06
2.27929e-05
9.58532e-06
7.23734e-06
2.27944e-05
7.23962e-06
2.27955e-05
7.24384e-06
9.58579e-06
2.27901e-05
7.24036e-06
1.26671e-05
4.23766e-06
1.12541e-05
4.88094e-06
1.26675e-05
1.12535e-05
4.88246e-06
1.2667e-05
1.1251e-05
4.88421e-06
4.23835e-06
1.26645e-05
1.12532e-05
4.88244e-06
2.27949e-05
9.58604e-06
7.23538e-06
7.23667e-06
2.27963e-05
2.27968e-05
7.24118e-06
9.58614e-06
2.27895e-05
7.23798e-06
1.26669e-05
4.23736e-06
1.1254e-05
4.88031e-06
1.12535e-05
4.88126e-06
1.26672e-05
9.94999e-06
2.24544e-05
2.24624e-05
2.2453e-05
2.24605e-05
9.94391e-06
4.70417e-06
2.97995e-06
5.65492e-06
9.93613e-06
9.94596e-06
2.97745e-06
4.70791e-06
4.69904e-06
2.97929e-06
5.65349e-06
9.93492e-06
2.97649e-06
9.94469e-06
4.70293e-06
4.70267e-06
9.95501e-06
5.65325e-06
2.97425e-06
9.95139e-06
2.97599e-06
4.7008e-06
4.6971e-06
9.9535e-06
5.65156e-06
2.97279e-06
2.97482e-06
9.95001e-06
4.69495e-06
9.95602e-06
2.24285e-05
2.24344e-05
2.24487e-05
2.24563e-05
9.96495e-06
1.90937e-05
1.90971e-05
1.91068e-05
1.91084e-05
9.93995e-06
2.24454e-05
2.24531e-05
9.94141e-06
2.24352e-05
2.24422e-05
4.7033e-06
2.97318e-06
5.64493e-06
9.94543e-06
2.97297e-06
9.95031e-06
4.70464e-06
4.69631e-06
2.97098e-06
5.64169e-06
9.9427e-06
9.948e-06
2.97093e-06
4.69754e-06
4.70088e-06
9.95543e-06
2.97353e-06
5.64585e-06
2.97282e-06
4.70079e-06
9.95482e-06
4.69442e-06
9.95381e-06
2.97187e-06
5.64262e-06
4.69459e-06
9.95303e-06
2.97093e-06
9.94204e-06
2.23944e-05
2.23975e-05
2.24082e-05
2.24132e-05
9.94425e-06
1.91045e-05
1.91068e-05
1.26562e-05
1.12475e-05
4.88181e-06
4.23665e-06
1.1248e-05
4.88102e-06
1.26555e-05
2.2772e-05
9.56944e-06
7.23096e-06
7.2313e-06
2.27748e-05
2.27626e-05
7.23548e-06
9.56237e-06
7.23417e-06
2.27621e-05
1.26596e-05
4.23667e-06
1.12501e-05
4.87995e-06
1.12496e-05
4.87994e-06
1.2661e-05
1.2662e-05
4.8827e-06
1.12491e-05
4.23778e-06
1.26622e-05
4.88266e-06
1.1249e-05
2.27698e-05
9.57779e-06
7.2424e-06
2.27704e-05
7.24257e-06
2.27746e-05
7.24248e-06
9.58018e-06
2.27745e-05
7.24192e-06
1.2661e-05
4.23853e-06
4.88362e-06
1.12487e-05
1.26611e-05
4.88324e-06
1.12485e-05
1.2654e-05
1.12463e-05
4.88352e-06
4.23833e-06
1.26538e-05
1.12463e-05
4.88456e-06
2.27524e-05
9.55211e-06
7.24789e-06
7.2463e-06
2.27557e-05
2.27565e-05
7.23978e-06
9.55296e-06
2.27557e-05
7.24154e-06
1.26537e-05
4.23932e-06
1.12465e-05
4.8874e-06
1.1246e-05
4.88636e-06
1.26548e-05
1.26628e-05
4.88298e-06
1.12539e-05
4.24152e-06
4.88656e-06
1.1252e-05
1.26663e-05
2.27772e-05
9.57309e-06
7.25387e-06
7.24894e-06
2.27597e-05
2.27824e-05
7.2401e-06
9.57878e-06
7.24557e-06
2.2796e-05
1.2661e-05
4.24383e-06
4.89294e-06
1.12474e-05
4.88966e-06
1.1251e-05
1.26554e-05
1.26708e-05
1.12554e-05
4.87899e-06
4.24043e-06
1.12542e-05
4.88281e-06
1.26719e-05
2.27986e-05
9.60547e-06
7.24873e-06
7.24102e-06
2.27837e-05
2.28025e-05
7.22838e-06
9.60614e-06
7.23513e-06
2.2811e-05
1.26703e-05
4.24293e-06
1.12509e-05
4.89041e-06
1.12537e-05
4.88643e-06
1.26674e-05
1.26681e-05
4.8799e-06
1.12541e-05
4.23308e-06
1.2667e-05
4.87698e-06
1.12546e-05
2.27992e-05
9.58756e-06
7.22889e-06
7.23059e-06
2.27981e-05
2.28025e-05
7.23668e-06
9.58803e-06
2.27975e-05
7.2324e-06
1.26674e-05
4.23134e-06
4.87353e-06
1.12532e-05
4.87491e-06
1.12539e-05
1.26668e-05
1.26702e-05
1.12553e-05
4.87582e-06
4.2318e-06
1.26711e-05
1.12551e-05
4.87318e-06
2.28015e-05
9.5853e-06
7.21816e-06
7.21847e-06
2.27957e-05
2.281e-05
7.22374e-06
9.59531e-06
2.28095e-05
7.21986e-06
1.26665e-05
4.23011e-06
1.12524e-05
4.8708e-06
1.12535e-05
4.87152e-06
1.26644e-05
9.95004e-06
2.22656e-05
2.22738e-05
2.22697e-05
2.22782e-05
9.9639e-06
4.70612e-06
2.96899e-06
5.63792e-06
9.91852e-06
9.9065e-06
2.97308e-06
4.69886e-06
4.70114e-06
2.96848e-06
5.63726e-06
9.91674e-06
2.9724e-06
9.90474e-06
4.6942e-06
4.71565e-06
9.89188e-06
5.64306e-06
2.98267e-06
9.89663e-06
2.97862e-06
4.72225e-06
4.7102e-06
9.89011e-06
5.64153e-06
2.9814e-06
2.97754e-06
9.89487e-06
4.71646e-06
9.93231e-06
2.23145e-05
2.23232e-05
2.22914e-05
2.23007e-05
9.92e-06
1.90785e-05
1.90671e-05
1.90629e-05
1.90618e-05
9.9916e-06
2.2265e-05
2.22724e-05
9.98051e-06
2.2279e-05
2.22846e-05
4.73811e-06
2.99422e-06
5.66025e-06
9.90652e-06
2.99298e-06
9.89521e-06
4.73927e-06
4.73121e-06
2.9921e-06
5.65719e-06
9.90399e-06
9.89305e-06
2.99095e-06
4.73218e-06
4.73406e-06
9.88976e-06
2.98728e-06
5.65496e-06
2.99017e-06
4.72972e-06
9.89073e-06
4.72751e-06
9.88795e-06
2.98566e-06
5.65222e-06
4.72346e-06
9.88883e-06
2.98838e-06
1.00031e-05
2.2327e-05
2.23289e-05
2.22933e-05
2.22973e-05
1.0009e-05
1.90616e-05
1.9061e-05
1.26612e-05
4.87908e-06
1.12521e-05
4.23521e-06
4.87977e-06
1.12535e-05
1.26596e-05
2.27879e-05
9.57495e-06
7.23183e-06
7.23128e-06
2.2792e-05
2.27757e-05
7.2326e-06
9.56675e-06
7.23197e-06
2.27737e-05
1.2666e-05
4.2365e-06
4.88204e-06
1.12585e-05
4.88062e-06
1.1257e-05
1.2668e-05
1.2673e-05
4.87381e-06
1.12555e-05
4.23446e-06
4.8766e-06
1.12571e-05
1.26709e-05
2.281e-05
9.61246e-06
7.24203e-06
7.23378e-06
2.2809e-05
2.28035e-05
7.22438e-06
9.6083e-06
7.22997e-06
2.28012e-05
1.26771e-05
4.23652e-06
4.88348e-06
1.12616e-05
4.87933e-06
1.12605e-05
1.26782e-05
1.26553e-05
4.87901e-06
1.12488e-05
4.23277e-06
1.26559e-05
4.87901e-06
1.12477e-05
2.27572e-05
9.55333e-06
7.24168e-06
7.24015e-06
2.27574e-05
2.27639e-05
7.23515e-06
9.55497e-06
2.2765e-05
7.23643e-06
1.26539e-05
4.23303e-06
4.88087e-06
1.12449e-05
4.88013e-06
1.12453e-05
1.26542e-05
1.26632e-05
4.87243e-06
1.12518e-05
4.23065e-06
1.26656e-05
4.87151e-06
1.12502e-05
2.27707e-05
9.57556e-06
7.22297e-06
7.22172e-06
2.27672e-05
2.27855e-05
7.22264e-06
9.58652e-06
2.27901e-05
7.22072e-06
1.26573e-05
4.23062e-06
4.87281e-06
1.12454e-05
4.87181e-06
1.12465e-05
1.26553e-05
1.91354e-05
1.91288e-05
1.91419e-05
1.91299e-05
9.88198e-06
2.24275e-05
2.24232e-05
9.87718e-06
2.23932e-05
2.23862e-05
4.68046e-06
2.96275e-06
5.62615e-06
9.90495e-06
4.68879e-06
2.95801e-06
9.91844e-06
4.68531e-06
2.96408e-06
5.62702e-06
9.90601e-06
4.69411e-06
2.95893e-06
9.91984e-06
4.67005e-06
9.95271e-06
2.95276e-06
5.62588e-06
4.6635e-06
2.95352e-06
9.93656e-06
4.67463e-06
9.957e-06
2.95273e-06
5.62596e-06
4.66768e-06
2.95382e-06
9.93881e-06
9.89619e-06
2.23098e-05
2.23006e-05
9.90963e-06
2.23425e-05
2.23342e-05
1.90863e-05
1.91034e-05
1.9081e-05
1.90979e-05
2.27704e-05
7.22123e-06
9.55829e-06
2.27767e-05
7.22391e-06
1.26567e-05
4.22888e-06
1.12494e-05
4.87124e-06
1.2659e-05
1.12482e-05
4.87282e-06
9.55357e-06
1.90649e-05
1.90636e-05
4.45884e-07
4.45946e-07
6.59014e-07
4.47805e-07
4.47854e-07
2.38245e-07
2.36218e-07
2.80038e-06
1.961e-06
1.96084e-06
1.4125e-06
1.95535e-06
1.95512e-06
2.80527e-06
2.83545e-06
1.96647e-06
1.96684e-06
1.41607e-06
2.82985e-06
1.96886e-06
1.96928e-06
2.8345e-06
1.97835e-06
1.97812e-06
1.42292e-06
1.97539e-06
1.97505e-06
2.8378e-06
2.82571e-06
1.42077e-06
1.96705e-06
1.96721e-06
1.96953e-06
1.96951e-06
2.82316e-06
2.82665e-06
1.97379e-06
1.97388e-06
1.41967e-06
1.97084e-06
1.97089e-06
2.82972e-06
2.82564e-06
1.41932e-06
1.96809e-06
1.96765e-06
1.96862e-06
1.96821e-06
2.82635e-06
2.82971e-06
1.96447e-06
1.96462e-06
1.41429e-06
1.96631e-06
1.9662e-06
2.82452e-06
2.85223e-06
1.42801e-06
1.98456e-06
1.98411e-06
1.98464e-06
1.98421e-06
2.85261e-06
2.81362e-06
1.41171e-06
1.95908e-06
1.95922e-06
2.81991e-06
1.95707e-06
1.95714e-06
4.45554e-07
4.45606e-07
6.57981e-07
4.47521e-07
4.4749e-07
2.38151e-07
2.36139e-07
4.45788e-07
4.458e-07
6.57481e-07
4.47649e-07
4.4761e-07
2.38307e-07
2.36261e-07
4.46371e-07
4.46354e-07
6.58195e-07
4.48078e-07
4.48084e-07
2.38411e-07
2.36325e-07
6.60025e-07
4.51126e-07
4.51216e-07
4.49549e-07
4.49604e-07
2.40228e-07
2.42147e-07
6.59196e-07
4.50969e-07
4.50835e-07
4.49325e-07
4.49224e-07
2.40146e-07
2.42088e-07
6.59366e-07
4.51209e-07
4.51089e-07
4.49461e-07
4.49368e-07
2.40294e-07
2.42216e-07
6.58626e-07
4.50995e-07
4.51066e-07
4.49581e-07
4.49621e-07
2.40419e-07
2.42331e-07
1.67209e-06
2.5426e-06
1.54758e-06
2.30016e-06
2.5452e-06
1.5503e-06
1.66865e-06
1.84985e-06
2.2321e-06
3.65197e-06
3.032e-06
2.22926e-06
3.02814e-06
1.85288e-06
1.85044e-06
3.02294e-06
3.65064e-06
2.22567e-06
2.22868e-06
3.02654e-06
1.84707e-06
1.67127e-06
2.30215e-06
2.55007e-06
1.5521e-06
2.54748e-06
1.54983e-06
1.67423e-06
1.66691e-06
1.54488e-06
2.53873e-06
2.29516e-06
1.54697e-06
2.53909e-06
1.66493e-06
1.84208e-06
2.2201e-06
3.63995e-06
3.01803e-06
2.22036e-06
3.01737e-06
1.84382e-06
1.844e-06
3.01861e-06
3.64212e-06
2.2245e-06
2.22359e-06
3.01826e-06
1.84325e-06
1.66573e-06
2.29615e-06
1.549e-06
2.54047e-06
1.54643e-06
2.53944e-06
1.66841e-06
2.79864e-06
1.41298e-06
1.952e-06
1.95176e-06
1.95455e-06
1.95432e-06
2.79781e-06
2.83348e-06
1.42415e-06
1.97233e-06
1.97207e-06
2.83037e-06
1.97529e-06
1.97497e-06
2.82652e-06
1.41954e-06
1.97228e-06
1.97207e-06
2.82943e-06
1.96949e-06
1.96941e-06
1.6731e-06
2.54551e-06
1.54902e-06
2.30181e-06
2.54707e-06
1.55087e-06
1.67031e-06
1.85106e-06
2.23391e-06
3.65426e-06
3.03203e-06
3.02964e-06
2.23178e-06
1.85355e-06
1.85183e-06
3.02636e-06
3.65355e-06
2.22896e-06
3.02903e-06
2.23149e-06
1.84908e-06
1.67204e-06
2.30267e-06
2.54956e-06
1.55083e-06
2.54825e-06
1.54985e-06
1.67391e-06
1.67267e-06
2.54464e-06
1.5489e-06
2.30159e-06
2.54642e-06
1.55075e-06
1.66979e-06
1.8502e-06
2.23187e-06
3.65269e-06
3.03204e-06
3.02903e-06
2.22956e-06
1.85246e-06
1.85091e-06
3.02492e-06
3.65168e-06
2.2266e-06
3.02795e-06
1.84796e-06
2.22922e-06
1.67152e-06
2.30254e-06
2.54939e-06
1.55065e-06
2.54784e-06
1.54969e-06
1.67319e-06
1.66862e-06
2.54426e-06
1.54967e-06
2.2979e-06
1.67134e-06
2.54277e-06
1.54762e-06
1.8479e-06
2.22401e-06
3.64753e-06
3.02137e-06
2.22606e-06
3.02307e-06
1.84542e-06
1.84712e-06
3.02578e-06
2.22865e-06
3.64808e-06
2.22622e-06
1.84983e-06
3.02345e-06
1.66967e-06
2.29704e-06
2.54062e-06
1.54639e-06
2.54175e-06
1.54831e-06
1.66711e-06
1.66802e-06
2.54328e-06
1.54955e-06
2.29759e-06
1.6708e-06
2.54175e-06
1.54747e-06
1.84682e-06
2.22371e-06
3.64515e-06
3.01987e-06
3.02117e-06
2.22479e-06
1.84457e-06
1.84598e-06
3.02398e-06
2.22651e-06
3.64555e-06
1.8487e-06
3.02165e-06
2.22462e-06
1.66909e-06
2.29674e-06
2.53984e-06
1.54625e-06
2.54082e-06
1.54815e-06
1.66662e-06
2.82587e-06
1.42099e-06
1.96877e-06
1.96858e-06
1.97089e-06
1.97099e-06
2.82428e-06
2.82407e-06
1.41775e-06
1.96912e-06
1.96888e-06
1.96776e-06
2.82436e-06
1.96743e-06
1.67071e-06
2.54279e-06
1.54655e-06
2.29743e-06
2.54353e-06
1.54807e-06
1.66843e-06
1.84939e-06
2.23269e-06
3.65178e-06
3.0286e-06
3.0267e-06
2.23028e-06
1.85185e-06
1.85026e-06
3.02513e-06
3.65144e-06
2.2279e-06
3.02666e-06
2.23011e-06
1.84789e-06
1.66954e-06
2.29772e-06
2.54515e-06
1.54904e-06
2.54407e-06
1.54728e-06
1.67199e-06
1.66672e-06
1.54552e-06
2.54071e-06
2.29621e-06
1.54677e-06
2.53994e-06
1.66548e-06
1.84177e-06
2.21968e-06
3.64002e-06
3.01758e-06
3.01748e-06
2.22025e-06
1.84303e-06
1.84451e-06
3.02045e-06
3.64322e-06
2.22516e-06
3.01959e-06
1.84391e-06
2.22403e-06
1.66514e-06
2.29622e-06
1.54754e-06
2.5395e-06
1.54589e-06
2.53925e-06
1.66718e-06
1.6676e-06
2.5426e-06
1.54744e-06
2.29691e-06
1.66967e-06
2.54218e-06
1.54619e-06
1.8477e-06
2.22456e-06
3.64829e-06
3.02354e-06
2.22607e-06
3.02427e-06
1.84583e-06
1.84668e-06
3.02519e-06
2.22786e-06
3.64826e-06
2.22598e-06
1.84882e-06
3.02408e-06
1.66893e-06
2.29747e-06
2.54228e-06
1.54643e-06
2.54239e-06
1.54731e-06
1.66709e-06
1.66719e-06
1.54679e-06
2.54204e-06
2.29719e-06
1.66822e-06
1.54602e-06
2.54312e-06
1.85027e-06
2.23417e-06
3.65405e-06
3.0285e-06
3.02766e-06
2.23388e-06
1.84969e-06
1.84683e-06
3.02366e-06
2.22947e-06
3.65028e-06
1.84735e-06
3.02469e-06
2.23038e-06
1.67001e-06
2.29809e-06
1.54706e-06
2.54547e-06
1.54782e-06
2.54451e-06
1.66897e-06
1.67037e-06
1.54677e-06
2.53864e-06
2.2991e-06
1.54975e-06
2.54171e-06
1.66612e-06
1.84626e-06
2.22634e-06
3.64518e-06
3.02878e-06
2.22032e-06
3.02324e-06
1.85181e-06
1.84616e-06
3.01546e-06
3.64193e-06
2.21488e-06
2.21889e-06
3.01997e-06
1.84149e-06
1.66991e-06
2.30132e-06
1.55212e-06
2.54808e-06
1.54938e-06
2.54473e-06
1.67414e-06
1.66622e-06
2.54052e-06
1.54799e-06
2.29378e-06
1.66948e-06
2.53841e-06
1.54532e-06
1.84531e-06
2.22209e-06
3.64262e-06
3.01668e-06
1.84288e-06
2.2233e-06
3.01806e-06
1.84457e-06
3.02151e-06
2.22538e-06
3.64319e-06
1.84766e-06
2.2232e-06
3.0188e-06
1.66714e-06
2.29244e-06
2.53588e-06
1.54358e-06
1.66439e-06
2.53706e-06
1.54581e-06
1.663e-06
1.54709e-06
2.53623e-06
2.29243e-06
1.66667e-06
1.54428e-06
2.53411e-06
1.83905e-06
2.21367e-06
3.63231e-06
3.00902e-06
3.00971e-06
2.2136e-06
1.83715e-06
1.83828e-06
3.01315e-06
2.21455e-06
3.63278e-06
1.84176e-06
3.01043e-06
2.21284e-06
1.66384e-06
2.29112e-06
1.54254e-06
2.5321e-06
1.54474e-06
2.53289e-06
1.6612e-06
2.83733e-06
1.41925e-06
1.97436e-06
1.97425e-06
1.97264e-06
1.9727e-06
2.84168e-06
2.84956e-06
1.42349e-06
1.98015e-06
1.97987e-06
1.98095e-06
2.84712e-06
1.98063e-06
1.66842e-06
1.54469e-06
2.53577e-06
2.29487e-06
1.54748e-06
2.53807e-06
1.66435e-06
1.8447e-06
2.22517e-06
3.64278e-06
3.02537e-06
2.21906e-06
3.02015e-06
1.85028e-06
1.84468e-06
3.01377e-06
3.63982e-06
2.21396e-06
2.21774e-06
3.01747e-06
1.8403e-06
1.66801e-06
2.29659e-06
1.55039e-06
2.5438e-06
1.5472e-06
2.54058e-06
1.67265e-06
1.66534e-06
1.54561e-06
2.53921e-06
2.29325e-06
1.66656e-06
1.54412e-06
2.53956e-06
1.84885e-06
2.23266e-06
3.65147e-06
3.02549e-06
1.84821e-06
2.23242e-06
3.0247e-06
1.84566e-06
3.02106e-06
2.22839e-06
3.64803e-06
1.84631e-06
2.22916e-06
3.02178e-06
1.66799e-06
2.2935e-06
1.54429e-06
2.54158e-06
1.66692e-06
1.54517e-06
2.54073e-06
1.66199e-06
1.54518e-06
2.53432e-06
2.29138e-06
1.66505e-06
1.54308e-06
2.53324e-06
1.8388e-06
2.21402e-06
3.63266e-06
3.01081e-06
3.01074e-06
2.21353e-06
1.83749e-06
1.83772e-06
3.01233e-06
2.21378e-06
3.63247e-06
1.8407e-06
3.01061e-06
2.21239e-06
1.66312e-06
2.29126e-06
1.5426e-06
2.53321e-06
1.54387e-06
2.53313e-06
1.66126e-06
2.80436e-06
1.40847e-06
1.95271e-06
1.95252e-06
2.79986e-06
1.95268e-06
1.95254e-06
1.83881e-06
2.21704e-06
3.01065e-06
3.6369e-06
2.21853e-06
1.83931e-06
3.0122e-06
1.66119e-06
2.28965e-06
1.54329e-06
2.53237e-06
1.54197e-06
1.66259e-06
2.53303e-06
2.21821e-06
3.63977e-06
2.21993e-06
3.26831e-07
8.74455e-07
8.74633e-07
1.16037e-06
3.43241e-07
8.97737e-07
8.9831e-07
1.17804e-06
3.59434e-07
9.20604e-07
9.20296e-07
1.19762e-06
3.75906e-07
9.42338e-07
9.42216e-07
1.2168e-06
3.9268e-07
9.61612e-07
9.62127e-07
1.23e-06
4.09269e-07
9.82532e-07
9.82046e-07
1.24824e-06
4.25786e-07
1.00016e-06
1.0017e-06
1.26224e-06
4.42137e-07
1.01749e-06
1.01711e-06
1.27634e-06
4.58234e-07
1.03376e-06
1.03293e-06
1.29049e-06
4.74662e-07
1.0511e-06
1.05058e-06
1.30343e-06
4.89493e-07
1.0638e-06
1.06486e-06
1.31408e-06
5.04343e-07
1.07783e-06
1.07843e-06
1.32826e-06
5.2013e-07
1.08943e-06
1.08875e-06
1.32642e-06
5.31391e-07
1.10602e-06
1.10626e-06
1.35658e-06
5.49625e-07
1.1082e-06
1.108e-06
1.35279e-06
5.57181e-07
1.12817e-06
1.1266e-06
1.3646e-06
5.74587e-07
1.12824e-06
1.1418e-06
1.35915e-06
5.84757e-07
1.15021e-06
1.12616e-06
1.39256e-06
5.91604e-07
1.13658e-06
1.16712e-06
1.4205e-06
6.08344e-07
1.16576e-06
1.14772e-06
1.33109e-06
6.15623e-07
1.17401e-06
1.15007e-06
1.4169e-06
6.25665e-07
1.15505e-06
1.19527e-06
1.44922e-06
6.33703e-07
1.1798e-06
1.15653e-06
1.36775e-06