/*--------------------------------*- C++ -*----------------------------------*\
| =========                 |                                                 |
| \\      /  F ield         | OpenFOAM: The Open Source CFD Toolbox           |
|  \\    /   O peration     | Version:  v1906                                 |
|   \\  /    A nd           | Web:      www.OpenFOAM.com                      |
|    \\/     M anipulation  |                                                 |
\*---------------------------------------------------------------------------*/
FoamFile
{
    version     2.0;
    format      ascii;
    class       volScalarField;
    location    "500";
    object      k;
}
// * * * * * * * * * * * * * * * * * * * * * * * * * * * * * * * * * * * * * //

dimensions      [0 2 -2 0 0 0 0];


internalField   nonuniform List<scalar> 
171728
(
4.19589e-05
3.66701e-05
3.6662e-05
4.19549e-05
3.66671e-05
3.6669e-05
3.666e-05
3.66678e-05
4.19423e-05
3.66688e-05
3.66664e-05
4.19583e-05
2.10106e-05
2.10084e-05
2.10151e-05
2.1007e-05
6.95462e-05
6.95481e-05
6.69827e-05
6.69871e-05
6.46344e-05
7.13665e-05
6.47343e-05
6.4639e-05
7.13694e-05
7.13314e-05
6.47333e-05
5.31622e-05
6.02615e-05
2.9008e-05
2.87628e-05
5.33624e-05
5.31665e-05
3.64403e-05
6.02287e-05
2.90096e-05
6.01302e-05
2.87654e-05
5.33629e-05
6.95413e-05
6.95194e-05
4.17587e-05
6.69093e-05
6.6889e-05
6.68753e-05
6.6855e-05
6.95381e-05
6.95146e-05
7.13716e-05
6.47407e-05
6.02644e-05
2.90122e-05
5.33688e-05
7.13598e-05
6.4737e-05
2.9016e-05
6.02205e-05
5.33673e-05
5.31643e-05
3.64379e-05
6.02241e-05
2.90088e-05
6.0125e-05
2.87635e-05
5.33676e-05
6.46404e-05
7.13686e-05
7.13319e-05
6.47392e-05
5.31604e-05
3.64243e-05
2.90076e-05
6.02642e-05
2.87589e-05
6.01186e-05
5.33684e-05
6.4638e-05
7.13667e-05
7.13329e-05
6.47411e-05
6.95354e-05
6.68828e-05
6.6889e-05
6.95365e-05
5.31684e-05
2.90162e-05
6.02278e-05
2.87701e-05
5.33722e-05
5.3166e-05
3.64231e-05
2.90114e-05
6.02707e-05
2.87625e-05
6.0125e-05
5.33742e-05
6.46454e-05
7.13624e-05
6.47434e-05
6.46455e-05
7.13711e-05
7.13378e-05
6.47472e-05
4.17299e-05
6.69604e-05
6.69738e-05
6.68783e-05
6.68899e-05
6.95457e-05
6.95215e-05
6.95485e-05
6.95241e-05
6.95334e-05
6.95352e-05
7.01614e-05
5.94696e-05
6.69388e-05
7.11565e-05
7.11429e-05
5.939e-05
7.01854e-05
7.02142e-05
5.94643e-05
6.69427e-05
7.11657e-05
7.11525e-05
5.9404e-05
7.02183e-05
9.25047e-05
7.20481e-05
7.2041e-05
7.20457e-05
7.20391e-05
9.2491e-05
7.01261e-05
6.98238e-05
6.81299e-05
6.46743e-05
7.01161e-05
6.98336e-05
6.81669e-05
7.0188e-05
7.13519e-05
7.74063e-05
7.73818e-05
7.02002e-05
7.01293e-05
6.46925e-05
6.98474e-05
6.82221e-05
6.98374e-05
6.81831e-05
7.01394e-05
7.01283e-05
6.98246e-05
6.81424e-05
6.46769e-05
7.01186e-05
6.98344e-05
6.81733e-05
7.01886e-05
7.13531e-05
7.74117e-05
7.73863e-05
7.01997e-05
7.01897e-05
7.73585e-05
7.1346e-05
7.01791e-05
7.73769e-05
7.01315e-05
6.46939e-05
6.98481e-05
6.82203e-05
6.98381e-05
6.81864e-05
7.01415e-05
6.95301e-05
6.95284e-05
9.21915e-05
7.19979e-05
7.20031e-05
9.21907e-05
7.20087e-05
7.2014e-05
7.00608e-05
5.94044e-05
6.68928e-05
7.11665e-05
5.93437e-05
7.11437e-05
7.01421e-05
7.0008e-05
5.93922e-05
6.68692e-05
7.11548e-05
7.11312e-05
5.93316e-05
7.00893e-05
7.00335e-05
7.11211e-05
5.92684e-05
6.68867e-05
5.93156e-05
7.00236e-05
7.11346e-05
6.9981e-05
7.11084e-05
5.92575e-05
6.68621e-05
6.99712e-05
7.11217e-05
5.93036e-05
9.22203e-05
7.20523e-05
7.20579e-05
7.20182e-05
7.20236e-05
9.2343e-05
6.95257e-05
6.95239e-05
7.019e-05
7.13569e-05
7.74247e-05
7.74012e-05
7.02015e-05
7.01316e-05
6.47003e-05
6.82299e-05
6.98488e-05
6.81927e-05
6.98389e-05
7.01415e-05
7.01856e-05
7.13449e-05
7.73859e-05
7.73646e-05
7.01972e-05
7.01292e-05
6.4699e-05
6.98481e-05
6.82159e-05
6.98382e-05
6.81845e-05
7.01393e-05
7.01293e-05
6.81438e-05
6.98255e-05
6.46818e-05
7.01194e-05
6.81784e-05
6.98357e-05
7.01894e-05
7.13532e-05
7.74148e-05
7.7394e-05
7.02e-05
7.01909e-05
7.73645e-05
7.13463e-05
7.01804e-05
7.73861e-05
7.01325e-05
6.46994e-05
6.82249e-05
6.98494e-05
6.81917e-05
6.98395e-05
7.01422e-05
7.01283e-05
6.9825e-05
6.81388e-05
6.46814e-05
7.01183e-05
6.98351e-05
6.81782e-05
7.01902e-05
7.13536e-05
7.74031e-05
7.73866e-05
7.02006e-05
7.01915e-05
7.7356e-05
7.13476e-05
7.01804e-05
7.73801e-05
7.01315e-05
6.46999e-05
6.98489e-05
6.82286e-05
6.9839e-05
6.81932e-05
7.01413e-05
6.95248e-05
7.00295e-05
5.93639e-05
6.68796e-05
7.11469e-05
5.93272e-05
7.11285e-05
7.00441e-05
6.99794e-05
5.93617e-05
6.68845e-05
7.11395e-05
7.11213e-05
5.93229e-05
6.99946e-05
9.21617e-05
7.20205e-05
7.20269e-05
7.20002e-05
7.20066e-05
9.21776e-05
6.95266e-05
7.01282e-05
6.81445e-05
6.98258e-05
6.46874e-05
7.01183e-05
6.81796e-05
6.98359e-05
7.0189e-05
7.13484e-05
7.73937e-05
7.7377e-05
7.01992e-05
7.01906e-05
7.73712e-05
7.01313e-05
6.47047e-05
6.82234e-05
6.98497e-05
6.81923e-05
6.98397e-05
7.0141e-05
7.01297e-05
6.81485e-05
6.98264e-05
6.46891e-05
7.01198e-05
6.81871e-05
6.98364e-05
7.0191e-05
7.13581e-05
7.74199e-05
7.74056e-05
7.02019e-05
7.01932e-05
7.73783e-05
7.13522e-05
7.01819e-05
7.74001e-05
7.01328e-05
6.47072e-05
6.82348e-05
6.98501e-05
6.82013e-05
6.98402e-05
7.01425e-05
9.23703e-05
7.2032e-05
7.2026e-05
9.23659e-05
7.2039e-05
7.2033e-05
7.0098e-05
5.9445e-05
6.69336e-05
7.11602e-05
5.93761e-05
7.11464e-05
7.01324e-05
7.01511e-05
5.94565e-05
6.69461e-05
7.11717e-05
5.93875e-05
7.11579e-05
7.0185e-05
7.008e-05
7.11231e-05
5.92584e-05
6.69182e-05
7.00273e-05
5.93397e-05
7.11402e-05
7.01331e-05
7.11345e-05
5.92696e-05
6.69307e-05
7.00809e-05
5.93512e-05
7.11517e-05
9.23672e-05
7.20418e-05
7.20356e-05
7.20359e-05
7.20298e-05
9.2356e-05
6.95352e-05
6.95334e-05
6.95379e-05
6.9536e-05
5.96619e-05
4.19391e-05
5.0675e-05
5.06697e-05
5.06296e-05
5.06369e-05
5.97146e-05
5.95713e-05
4.19394e-05
5.06439e-05
5.06419e-05
5.06061e-05
5.06038e-05
5.96489e-05
5.95326e-05
4.19329e-05
5.0613e-05
5.06134e-05
5.05853e-05
5.05852e-05
5.95724e-05
5.96276e-05
4.19358e-05
5.06635e-05
5.06677e-05
5.06225e-05
5.06269e-05
5.96891e-05
1.50252e-05
1.50247e-05
1.49123e-05
1.08488e-05
1.08769e-05
2.08238e-05
1.50249e-05
1.5023e-05
1.49115e-05
1.49097e-05
1.08483e-05
1.08766e-05
1.50277e-05
1.50262e-05
1.49135e-05
1.08497e-05
1.08776e-05
2.08175e-05
1.50245e-05
1.50237e-05
1.49112e-05
1.49107e-05
1.08493e-05
1.08772e-05
4.56377e-05
5.54735e-05
4.36661e-05
5.32412e-05
4.56195e-05
5.55473e-05
4.36981e-05
4.8151e-05
5.26435e-05
6.01967e-05
5.85773e-05
5.25996e-05
5.85092e-05
4.81802e-05
4.57928e-05
5.32828e-05
5.56627e-05
4.38801e-05
5.55865e-05
4.3848e-05
4.58121e-05
4.56478e-05
5.54869e-05
4.3669e-05
5.32448e-05
4.56299e-05
5.55569e-05
4.37011e-05
4.81592e-05
5.26252e-05
6.01881e-05
5.85669e-05
5.85121e-05
5.25916e-05
4.81823e-05
4.80364e-05
5.84287e-05
5.24752e-05
6.01693e-05
4.80119e-05
5.84829e-05
5.25078e-05
4.58009e-05
5.32854e-05
5.56618e-05
4.38823e-05
5.55927e-05
4.38509e-05
4.58177e-05
5.95214e-05
4.17746e-05
5.04721e-05
5.04701e-05
5.05051e-05
5.94819e-05
5.05032e-05
4.81566e-05
5.26449e-05
6.02016e-05
5.85856e-05
5.26054e-05
5.85189e-05
4.81846e-05
4.57994e-05
5.32899e-05
5.56701e-05
4.38858e-05
5.5595e-05
4.3854e-05
4.58181e-05
4.81605e-05
5.26163e-05
6.01899e-05
5.85603e-05
5.85107e-05
5.25886e-05
4.81813e-05
4.58037e-05
5.32904e-05
4.38867e-05
5.56617e-05
4.38555e-05
5.55945e-05
4.58196e-05
4.56452e-05
5.54849e-05
4.36653e-05
5.32458e-05
4.56267e-05
5.55576e-05
4.36983e-05
4.81583e-05
5.26215e-05
6.01831e-05
5.85692e-05
5.25875e-05
5.8514e-05
4.81818e-05
4.80343e-05
5.84277e-05
5.24707e-05
6.01639e-05
4.80094e-05
5.25035e-05
5.84841e-05
4.58e-05
5.32878e-05
5.56654e-05
4.38826e-05
5.55947e-05
4.385e-05
4.58174e-05
4.56355e-05
4.36613e-05
5.54749e-05
5.32435e-05
4.56148e-05
4.3695e-05
5.55538e-05
4.81561e-05
5.26454e-05
6.02093e-05
5.85837e-05
5.85191e-05
5.26046e-05
4.81856e-05
4.80201e-05
5.84141e-05
5.24545e-05
6.01814e-05
4.79896e-05
5.84836e-05
5.24987e-05
4.57949e-05
5.32865e-05
4.38813e-05
5.56706e-05
4.38478e-05
5.5594e-05
4.58154e-05
4.56499e-05
4.36694e-05
5.54884e-05
5.32507e-05
4.56314e-05
4.37027e-05
5.55619e-05
4.8163e-05
5.26191e-05
6.01952e-05
5.85685e-05
5.25906e-05
5.85176e-05
4.81844e-05
4.8041e-05
5.84895e-05
4.58041e-05
5.32929e-05
4.3887e-05
5.56678e-05
4.38546e-05
5.55986e-05
4.5821e-05
4.56407e-05
4.36656e-05
5.5482e-05
5.32497e-05
4.56199e-05
4.36996e-05
5.5561e-05
4.81611e-05
5.2651e-05
6.02159e-05
5.8592e-05
5.8528e-05
5.26104e-05
4.81903e-05
4.80248e-05
5.84233e-05
5.246e-05
6.0188e-05
4.79943e-05
5.84928e-05
5.25041e-05
4.58004e-05
5.32929e-05
4.38862e-05
5.56771e-05
4.38528e-05
5.56013e-05
4.58207e-05
5.95795e-05
4.17542e-05
5.04546e-05
5.04589e-05
5.95056e-05
5.05003e-05
5.05044e-05
3.84381e-05
5.11656e-05
5.16204e-05
5.41948e-05
5.42292e-05
5.34768e-05
5.40088e-05
5.1215e-05
5.12044e-05
5.17317e-05
5.15476e-05
5.32166e-05
5.38146e-05
5.12036e-05
5.16208e-05
5.17803e-05
5.15591e-05
5.15404e-05
5.16062e-05
5.20167e-05
5.42266e-05
5.33601e-05
5.1559e-05
5.1594e-05
5.20476e-05
5.43752e-05
5.19986e-05
5.20213e-05
6.85838e-05
7.34651e-05
7.35308e-05
6.82602e-05
7.11543e-05
7.12235e-05
6.88673e-05
7.3514e-05
7.35197e-05
6.88357e-05
3.85361e-05
3.8562e-05
3.84035e-05
3.89892e-05
3.89028e-05
3.89769e-05
3.91485e-05
6.07924e-05
6.44415e-05
4.63847e-05
5.12278e-05
6.49037e-05
4.65337e-05
6.04471e-05
7.11638e-05
7.11198e-05
6.11959e-05
4.64642e-05
6.55282e-05
5.16438e-05
4.6726e-05
6.51193e-05
6.10769e-05
7.05992e-05
7.08449e-05
5.45581e-05
7.08856e-05
7.10171e-05
7.03033e-05
7.02228e-05
7.12091e-05
7.12379e-05
7.12259e-05
7.12349e-05
6.99274e-05
7.01487e-05
5.37781e-05
7.01948e-05
7.03144e-05
7.12321e-05
7.12368e-05
7.12157e-05
7.12294e-05
5.39141e-05
7.03512e-05
7.02902e-05
7.02602e-05
7.03296e-05
6.85647e-05
7.34023e-05
7.35164e-05
6.82337e-05
6.05756e-05
6.46839e-05
4.64072e-05
5.14084e-05
6.49705e-05
4.65296e-05
6.03183e-05
6.05361e-05
6.43755e-05
4.64357e-05
5.12386e-05
6.48098e-05
4.64942e-05
6.03009e-05
6.86622e-05
7.35343e-05
7.35377e-05
6.88617e-05
6.86518e-05
7.35373e-05
7.35328e-05
6.88651e-05
6.06635e-05
5.15871e-05
6.51736e-05
4.68326e-05
6.5037e-05
4.66806e-05
6.0924e-05
6.06341e-05
5.13639e-05
6.51663e-05
4.67797e-05
6.49357e-05
4.66268e-05
6.09184e-05
6.95855e-05
6.96604e-05
5.34416e-05
7.01013e-05
7.01663e-05
7.11647e-05
7.12252e-05
7.12286e-05
7.12265e-05
5.36132e-05
7.0372e-05
7.04268e-05
7.02249e-05
7.02905e-05
7.12237e-05
7.12266e-05
6.09752e-05
6.49558e-05
4.63588e-05
5.14544e-05
6.51186e-05
4.66062e-05
6.08598e-05
6.88704e-05
7.34876e-05
7.33959e-05
6.88875e-05
6.09969e-05
4.65104e-05
6.54701e-05
5.16305e-05
4.67185e-05
6.50276e-05
6.09515e-05
6.88474e-05
7.34914e-05
7.35139e-05
6.87441e-05
6.0973e-05
5.165e-05
6.51356e-05
4.69529e-05
6.51358e-05
4.68091e-05
6.09212e-05
6.88151e-05
7.3365e-05
7.33758e-05
6.86839e-05
6.09749e-05
5.1613e-05
4.69434e-05
6.46026e-05
4.68621e-05
6.48843e-05
6.08589e-05
6.87762e-05
7.34302e-05
7.35314e-05
6.84546e-05
6.09018e-05
4.63818e-05
6.51831e-05
5.18511e-05
4.66462e-05
6.55394e-05
6.05581e-05
6.88458e-05
7.36211e-05
7.36407e-05
6.85305e-05
6.08834e-05
5.1412e-05
6.52339e-05
4.68884e-05
6.50257e-05
4.67149e-05
6.11082e-05
6.88631e-05
7.35398e-05
7.3545e-05
6.90367e-05
6.09859e-05
5.19946e-05
4.70547e-05
6.55324e-05
4.68759e-05
6.55827e-05
6.11659e-05
6.89294e-05
7.34949e-05
7.36206e-05
6.90715e-05
7.0541e-05
7.0592e-05
5.37645e-05
6.99451e-05
7.00043e-05
7.11759e-05
7.11251e-05
7.11352e-05
7.111e-05
5.36677e-05
6.94826e-05
6.95409e-05
6.97771e-05
6.98385e-05
7.11326e-05
7.11131e-05
6.12537e-05
4.6351e-05
6.54352e-05
5.18909e-05
4.6707e-05
6.56881e-05
6.10372e-05
6.9063e-05
7.35223e-05
7.34166e-05
6.90239e-05
6.91177e-05
7.36756e-05
7.36282e-05
6.901e-05
6.11893e-05
5.1634e-05
4.7019e-05
6.46784e-05
4.69121e-05
6.497e-05
6.10604e-05
6.12608e-05
5.20324e-05
4.71369e-05
6.544e-05
4.69755e-05
6.56919e-05
6.11866e-05
6.90329e-05
7.33712e-05
7.33919e-05
6.88553e-05
6.91131e-05
7.34469e-05
7.3582e-05
6.89523e-05
7.13003e-05
7.12729e-05
7.13238e-05
7.12695e-05
5.46052e-05
7.05199e-05
7.044e-05
7.08882e-05
7.09891e-05
7.11639e-05
7.124e-05
7.11518e-05
7.12283e-05
4.71665e-05
6.53675e-05
6.11696e-05
7.34365e-05
6.90679e-05
6.52383e-05
7.34008e-05
7.1133e-05
7.11259e-05
7.18647e-05
7.16413e-05
7.16746e-05
6.84669e-05
7.16248e-05
7.15535e-05
7.18809e-05
7.17031e-05
7.34956e-05
7.95942e-05
7.97274e-05
7.16701e-05
7.17115e-05
7.99603e-05
7.35128e-05
7.98385e-05
7.17361e-05
7.18568e-05
6.83738e-05
7.15906e-05
7.1326e-05
7.16153e-05
7.14625e-05
7.1831e-05
7.11911e-05
7.12017e-05
7.18787e-05
7.18936e-05
7.16406e-05
6.88681e-05
7.18908e-05
7.16416e-05
7.18788e-05
7.17224e-05
7.35201e-05
8.00286e-05
8.00597e-05
7.17173e-05
7.17151e-05
8.00708e-05
7.35202e-05
8.00679e-05
7.17172e-05
7.18808e-05
6.88647e-05
7.1848e-05
7.16438e-05
7.18844e-05
7.16443e-05
7.18788e-05
7.11503e-05
7.11242e-05
9.79877e-05
7.36973e-05
7.36901e-05
7.3771e-05
7.377e-05
9.77376e-05
7.60597e-05
6.63512e-05
7.07461e-05
7.364e-05
6.65052e-05
7.36111e-05
7.59513e-05
7.6197e-05
6.64881e-05
7.09584e-05
7.36907e-05
6.664e-05
7.36528e-05
7.60925e-05
7.60705e-05
7.3477e-05
7.08412e-05
6.65858e-05
6.65735e-05
7.3542e-05
7.60231e-05
7.62052e-05
7.34971e-05
7.10096e-05
6.67038e-05
6.66988e-05
7.35728e-05
7.61496e-05
9.80144e-05
7.3893e-05
7.38983e-05
7.38612e-05
7.38647e-05
9.79132e-05
7.37145e-05
6.56048e-05
7.30834e-05
7.01329e-05
7.40853e-05
6.53634e-05
7.30436e-05
7.37237e-05
6.55786e-05
7.30759e-05
7.00452e-05
7.41031e-05
6.53243e-05
7.30362e-05
9.37457e-05
7.32309e-05
7.32072e-05
9.43888e-05
7.31912e-05
7.31689e-05
7.12258e-05
7.12288e-05
7.12337e-05
7.12321e-05
9.56988e-05
7.35978e-05
7.35926e-05
7.36005e-05
7.35997e-05
9.57342e-05
7.45497e-05
6.53271e-05
7.00254e-05
7.33769e-05
7.33943e-05
6.54533e-05
7.44229e-05
7.46884e-05
6.54708e-05
7.02241e-05
7.34204e-05
7.34304e-05
6.55949e-05
7.45672e-05
7.4629e-05
7.34026e-05
7.01099e-05
6.56284e-05
7.33995e-05
7.46908e-05
6.55402e-05
7.47613e-05
7.34264e-05
7.02766e-05
6.57412e-05
7.343e-05
7.48057e-05
6.56744e-05
9.56134e-05
7.35947e-05
7.36024e-05
7.3606e-05
7.361e-05
9.5465e-05
7.12339e-05
7.12397e-05
7.12183e-05
7.12285e-05
9.57099e-05
7.35783e-05
7.35655e-05
9.57353e-05
7.3571e-05
7.35548e-05
7.47212e-05
6.57509e-05
7.03404e-05
7.33618e-05
7.33724e-05
6.57419e-05
7.47064e-05
7.47829e-05
6.5771e-05
7.03233e-05
7.33488e-05
7.33637e-05
6.57829e-05
7.47425e-05
7.47263e-05
7.33981e-05
6.56796e-05
7.03126e-05
7.47154e-05
7.33916e-05
6.57254e-05
7.48147e-05
7.34078e-05
6.57702e-05
7.03324e-05
7.48162e-05
7.33942e-05
6.57852e-05
9.56362e-05
7.35444e-05
7.35233e-05
7.35484e-05
7.35283e-05
9.5585e-05
7.18571e-05
7.16395e-05
7.16396e-05
6.84376e-05
7.16217e-05
7.14921e-05
7.18775e-05
7.16854e-05
7.34508e-05
7.94561e-05
7.96418e-05
7.16418e-05
7.1699e-05
7.99588e-05
7.34843e-05
7.97931e-05
7.17317e-05
7.18457e-05
6.83331e-05
7.1585e-05
7.1225e-05
7.16109e-05
7.13736e-05
7.18154e-05
7.18922e-05
7.16461e-05
7.17543e-05
6.8754e-05
7.18845e-05
7.1655e-05
7.18453e-05
7.17444e-05
7.354e-05
8.01847e-05
7.17476e-05
8.01687e-05
7.17496e-05
8.00518e-05
7.35422e-05
7.17381e-05
8.01293e-05
7.18919e-05
6.88097e-05
7.16587e-05
7.19362e-05
7.18935e-05
7.16561e-05
7.18949e-05
7.18928e-05
7.1645e-05
7.17409e-05
6.87506e-05
7.18831e-05
7.16546e-05
7.18497e-05
7.17503e-05
7.35424e-05
8.0247e-05
8.02319e-05
7.17533e-05
7.17539e-05
8.00828e-05
7.35427e-05
7.17382e-05
8.01848e-05
7.18928e-05
6.88111e-05
7.16585e-05
7.19523e-05
7.16559e-05
7.19086e-05
7.18939e-05
9.59256e-05
7.36266e-05
7.36481e-05
7.36228e-05
7.36431e-05
9.60586e-05
7.43788e-05
6.48862e-05
6.97784e-05
7.32834e-05
7.33325e-05
6.5096e-05
7.41151e-05
7.43682e-05
6.49172e-05
6.98461e-05
7.32895e-05
6.51351e-05
7.33383e-05
7.40986e-05
7.45783e-05
7.33784e-05
6.99453e-05
6.54438e-05
7.33599e-05
6.52743e-05
7.47193e-05
7.45744e-05
7.33831e-05
7.0013e-05
6.54914e-05
6.53191e-05
7.33652e-05
7.47179e-05
9.5661e-05
7.35671e-05
7.35838e-05
7.36126e-05
7.36331e-05
9.52808e-05
7.1198e-05
7.12066e-05
7.12296e-05
7.12335e-05
9.60561e-05
7.36078e-05
7.36285e-05
9.60871e-05
7.35859e-05
7.36054e-05
7.47782e-05
6.56775e-05
7.03603e-05
7.33333e-05
6.56737e-05
7.33572e-05
7.47078e-05
7.47798e-05
6.57235e-05
7.04193e-05
7.33321e-05
7.3358e-05
6.57207e-05
7.47081e-05
7.47944e-05
7.33809e-05
6.55614e-05
7.03151e-05
6.56445e-05
7.47814e-05
7.33784e-05
7.47957e-05
7.3385e-05
6.56104e-05
7.03775e-05
7.47828e-05
7.33817e-05
6.56929e-05
9.58818e-05
7.34967e-05
7.35077e-05
7.35273e-05
7.35422e-05
9.5566e-05
7.12263e-05
7.12318e-05
7.18497e-05
7.16301e-05
7.18559e-05
6.88888e-05
7.16321e-05
7.19104e-05
7.18469e-05
7.17003e-05
7.34535e-05
8.02359e-05
8.013e-05
7.17062e-05
7.16802e-05
7.99285e-05
7.34168e-05
8.00155e-05
7.1679e-05
7.18627e-05
6.88961e-05
7.16412e-05
7.19948e-05
7.1639e-05
7.19784e-05
7.18678e-05
7.18741e-05
7.18814e-05
7.16365e-05
6.88245e-05
7.18748e-05
7.18638e-05
7.16361e-05
7.16981e-05
7.34969e-05
7.99582e-05
7.16993e-05
7.99897e-05
7.17081e-05
8.00611e-05
7.35091e-05
7.17079e-05
8.00419e-05
7.187e-05
6.87701e-05
7.17889e-05
7.16348e-05
7.18703e-05
7.1815e-05
7.16339e-05
7.18411e-05
7.16249e-05
7.17672e-05
6.87791e-05
7.18404e-05
7.16248e-05
7.17187e-05
7.1658e-05
7.33629e-05
7.96038e-05
7.9661e-05
7.16648e-05
7.16669e-05
7.98266e-05
7.33676e-05
7.16653e-05
7.97452e-05
7.18397e-05
6.87141e-05
7.16256e-05
7.16038e-05
7.16234e-05
7.16447e-05
7.18438e-05
7.18771e-05
7.18239e-05
7.16571e-05
6.86609e-05
7.16814e-05
7.16485e-05
7.18908e-05
7.17136e-05
7.34736e-05
7.96039e-05
7.9782e-05
7.16765e-05
7.17246e-05
8.01073e-05
7.35031e-05
7.99371e-05
7.17536e-05
7.18704e-05
6.85741e-05
7.14228e-05
7.1629e-05
7.15724e-05
7.16443e-05
7.18487e-05
7.19054e-05
7.16636e-05
7.20232e-05
6.87331e-05
7.16584e-05
7.18882e-05
7.19097e-05
7.17563e-05
7.36382e-05
7.99428e-05
8.01336e-05
7.17249e-05
7.17648e-05
8.04467e-05
7.3642e-05
8.02955e-05
7.17833e-05
7.19034e-05
6.86462e-05
7.16441e-05
7.16339e-05
7.16558e-05
7.17772e-05
7.18922e-05
7.18981e-05
7.19274e-05
7.16581e-05
6.89548e-05
7.18934e-05
7.20317e-05
7.16602e-05
7.17613e-05
7.35498e-05
8.03849e-05
8.03783e-05
7.17593e-05
7.17682e-05
8.02375e-05
7.35519e-05
7.17572e-05
8.03379e-05
7.18956e-05
6.90062e-05
7.21087e-05
7.16547e-05
7.20829e-05
7.16574e-05
7.18933e-05
7.19037e-05
7.1663e-05
7.21124e-05
6.90117e-05
7.19068e-05
7.16627e-05
7.2185e-05
7.17646e-05
7.3538e-05
8.05224e-05
8.05671e-05
7.17526e-05
7.17819e-05
8.05334e-05
7.35889e-05
7.17804e-05
8.05707e-05
7.18902e-05
6.90526e-05
7.16513e-05
7.22067e-05
7.16561e-05
7.22054e-05
7.18823e-05
9.40899e-05
7.32094e-05
7.32331e-05
7.32195e-05
7.32438e-05
9.36806e-05
7.4272e-05
6.60019e-05
7.03249e-05
7.32011e-05
7.3141e-05
6.571e-05
7.46665e-05
7.42554e-05
6.60294e-05
7.03785e-05
7.3207e-05
6.57438e-05
7.31469e-05
7.46454e-05
7.39017e-05
7.30669e-05
7.01232e-05
6.51887e-05
7.30913e-05
6.54206e-05
7.36104e-05
7.38956e-05
7.30728e-05
7.01765e-05
6.52302e-05
6.5458e-05
7.30973e-05
7.36068e-05
9.46275e-05
7.33206e-05
7.33452e-05
7.32688e-05
7.32947e-05
9.52379e-05
7.11601e-05
7.11312e-05
7.11157e-05
7.11134e-05
9.32933e-05
7.32073e-05
7.32292e-05
9.34127e-05
7.32364e-05
7.32546e-05
7.32034e-05
6.469e-05
6.95376e-05
7.31351e-05
6.47291e-05
7.30804e-05
7.32053e-05
7.32077e-05
6.47344e-05
6.96006e-05
7.31373e-05
7.30845e-05
6.47742e-05
7.32086e-05
7.32544e-05
7.30557e-05
6.49786e-05
6.96402e-05
6.48325e-05
7.3383e-05
7.30597e-05
7.32577e-05
7.30614e-05
6.50216e-05
6.97059e-05
7.33862e-05
7.30651e-05
6.48778e-05
9.32789e-05
7.33403e-05
7.33503e-05
7.32671e-05
7.32819e-05
9.33427e-05
7.11163e-05
7.11152e-05
7.18703e-05
7.20505e-05
7.16502e-05
6.90653e-05
7.20898e-05
7.16562e-05
7.18642e-05
7.1736e-05
7.34843e-05
8.03692e-05
8.02782e-05
7.17447e-05
7.17101e-05
8.00767e-05
7.34419e-05
8.01559e-05
7.17057e-05
7.18884e-05
6.90598e-05
7.21145e-05
7.16772e-05
7.2116e-05
7.16712e-05
7.1896e-05
7.1917e-05
7.22442e-05
7.1665e-05
6.91047e-05
7.22237e-05
7.16718e-05
7.19091e-05
7.1783e-05
7.36737e-05
8.0425e-05
8.05135e-05
7.17808e-05
7.17697e-05
8.05672e-05
7.36535e-05
8.05539e-05
7.17652e-05
7.19322e-05
6.90768e-05
7.21016e-05
7.16904e-05
7.21856e-05
7.16859e-05
7.19362e-05
7.18478e-05
7.19569e-05
7.16361e-05
6.89936e-05
7.18501e-05
7.19064e-05
7.16314e-05
7.16705e-05
7.33717e-05
7.97422e-05
7.98072e-05
7.16709e-05
7.16849e-05
7.99722e-05
7.33805e-05
7.16872e-05
7.99012e-05
7.18421e-05
6.89053e-05
7.17641e-05
7.16195e-05
7.1811e-05
7.1621e-05
7.18433e-05
7.18803e-05
7.2241e-05
7.16491e-05
6.90929e-05
7.18894e-05
7.22194e-05
7.16424e-05
7.17014e-05
7.34871e-05
8.02122e-05
8.03399e-05
7.16938e-05
7.17325e-05
8.05555e-05
7.35432e-05
7.17421e-05
8.04968e-05
7.18578e-05
6.9017e-05
7.20367e-05
7.1622e-05
7.21259e-05
7.16268e-05
7.18501e-05
7.13003e-05
7.12847e-05
7.13153e-05
7.12859e-05
9.65141e-05
7.35765e-05
7.35628e-05
9.71272e-05
7.3501e-05
7.34813e-05
7.49324e-05
6.59166e-05
7.07097e-05
7.31485e-05
7.4521e-05
6.61832e-05
7.32155e-05
7.49822e-05
6.59085e-05
7.06309e-05
7.31408e-05
7.4555e-05
6.6198e-05
7.32096e-05
7.53754e-05
7.33846e-05
6.65619e-05
7.08562e-05
7.57895e-05
6.64583e-05
7.33052e-05
7.54487e-05
7.33933e-05
6.66671e-05
7.08615e-05
7.58891e-05
6.65221e-05
7.33037e-05
9.58411e-05
7.33166e-05
7.32919e-05
9.51282e-05
7.33894e-05
7.33667e-05
7.11796e-05
7.12223e-05
7.11645e-05
7.12069e-05
7.16992e-05
8.03441e-05
7.33995e-05
7.17127e-05
8.01727e-05
7.18533e-05
6.90478e-05
7.16388e-05
7.21751e-05
7.18619e-05
7.16335e-05
7.20962e-05
7.33736e-05
7.11256e-05
7.11203e-05
3.13745e-05
3.13101e-05
3.86246e-05
3.15208e-05
3.14847e-05
2.23856e-05
2.22404e-05
6.76097e-05
6.05001e-05
6.0541e-05
5.43376e-05
6.06556e-05
6.06994e-05
6.74768e-05
6.58094e-05
5.99915e-05
5.99876e-05
5.39968e-05
6.61264e-05
5.97385e-05
5.97284e-05
6.63055e-05
5.95525e-05
5.95894e-05
5.3546e-05
5.96556e-05
5.9699e-05
6.61749e-05
6.65277e-05
5.40111e-05
6.00101e-05
6.00236e-05
6.00072e-05
6.00261e-05
6.65187e-05
6.59065e-05
5.91205e-05
5.91232e-05
5.32469e-05
5.92586e-05
5.9249e-05
6.56779e-05
6.64189e-05
5.37993e-05
5.98537e-05
5.98787e-05
5.98413e-05
5.98667e-05
6.64077e-05
6.62897e-05
6.03267e-05
6.03354e-05
5.41047e-05
6.00505e-05
6.00361e-05
6.66528e-05
6.52172e-05
5.34487e-05
5.90664e-05
5.90876e-05
5.9124e-05
5.91453e-05
6.51986e-05
6.6887e-05
5.45472e-05
6.02562e-05
6.02599e-05
6.65155e-05
6.05369e-05
6.05505e-05
3.14341e-05
3.13943e-05
3.86257e-05
3.15521e-05
3.15313e-05
2.24148e-05
2.2273e-05
3.13266e-05
3.12859e-05
3.87349e-05
3.15117e-05
3.14813e-05
2.23542e-05
2.22111e-05
3.12884e-05
3.12105e-05
3.87161e-05
3.1489e-05
3.14379e-05
2.23457e-05
2.22008e-05
3.88153e-05
3.18431e-05
3.18537e-05
3.16798e-05
3.16713e-05
2.25407e-05
2.27034e-05
3.87564e-05
3.18303e-05
3.18427e-05
3.16854e-05
3.16838e-05
2.25607e-05
2.27124e-05
3.88725e-05
3.18686e-05
3.18639e-05
3.16976e-05
3.16805e-05
2.25158e-05
2.26881e-05
3.89691e-05
3.18944e-05
3.18824e-05
3.16981e-05
3.16704e-05
2.25093e-05
2.26852e-05
5.62198e-05
6.24441e-05
5.50681e-05
6.06658e-05
6.22928e-05
5.50156e-05
5.62721e-05
5.7123e-05
6.00142e-05
6.46001e-05
6.38574e-05
6.01111e-05
6.40074e-05
5.70857e-05
5.72598e-05
6.4319e-05
6.47491e-05
6.04136e-05
6.02827e-05
6.41511e-05
5.73437e-05
5.608e-05
6.05735e-05
6.20467e-05
5.48296e-05
6.21842e-05
5.4874e-05
5.60511e-05
5.68026e-05
5.55005e-05
6.28794e-05
6.11847e-05
5.54846e-05
6.29014e-05
5.67875e-05
5.79807e-05
6.11254e-05
6.54387e-05
6.49031e-05
6.10411e-05
6.4887e-05
5.79893e-05
5.79765e-05
6.47023e-05
6.52578e-05
6.07144e-05
6.08931e-05
6.48082e-05
5.78928e-05
5.67363e-05
6.11556e-05
5.52835e-05
6.28833e-05
5.5359e-05
6.29065e-05
5.67129e-05
6.7647e-05
5.4523e-05
6.07773e-05
6.08179e-05
6.07598e-05
6.08027e-05
6.76362e-05
6.63995e-05
5.37327e-05
5.9855e-05
5.98989e-05
6.64705e-05
5.97859e-05
5.98314e-05
6.65265e-05
5.39318e-05
5.99383e-05
5.99754e-05
6.65084e-05
5.997e-05
5.99998e-05
5.6205e-05
6.23514e-05
5.48971e-05
6.04484e-05
6.22189e-05
5.48605e-05
5.6243e-05
5.72598e-05
6.03044e-05
6.47936e-05
6.3986e-05
6.41145e-05
6.03869e-05
5.72092e-05
5.74013e-05
6.43297e-05
6.48755e-05
6.05785e-05
6.42095e-05
6.05065e-05
5.74531e-05
5.60854e-05
6.03722e-05
6.20297e-05
5.47707e-05
6.21349e-05
5.47792e-05
5.60649e-05
5.60815e-05
6.2246e-05
5.48555e-05
6.04022e-05
6.2087e-05
5.48219e-05
5.61168e-05
5.70735e-05
5.99999e-05
6.44916e-05
6.37758e-05
6.38613e-05
6.00559e-05
5.70666e-05
5.71614e-05
6.41797e-05
6.46469e-05
6.03317e-05
6.40044e-05
5.72272e-05
6.02068e-05
5.60115e-05
6.03312e-05
6.19481e-05
5.47684e-05
6.19948e-05
5.47628e-05
5.6023e-05
5.64224e-05
6.24327e-05
5.50262e-05
6.07762e-05
5.63868e-05
6.25411e-05
5.50716e-05
5.77353e-05
6.08058e-05
6.51439e-05
6.45993e-05
6.07837e-05
6.45558e-05
5.77529e-05
5.76303e-05
6.44133e-05
6.06733e-05
6.51051e-05
6.07234e-05
5.75895e-05
6.45037e-05
5.65527e-05
6.08467e-05
6.26651e-05
5.52393e-05
6.25992e-05
5.5206e-05
5.65705e-05
5.63214e-05
6.2359e-05
5.49843e-05
6.07563e-05
5.62699e-05
6.24954e-05
5.5034e-05
5.7634e-05
6.07264e-05
6.51223e-05
6.46019e-05
6.45405e-05
6.06838e-05
5.76791e-05
5.7487e-05
6.43178e-05
6.04852e-05
6.50512e-05
5.74045e-05
6.44539e-05
6.05843e-05
5.64842e-05
6.08354e-05
6.26579e-05
5.52167e-05
6.25777e-05
5.51783e-05
5.6516e-05
6.61034e-05
5.33855e-05
5.95539e-05
5.95739e-05
5.9446e-05
5.94308e-05
6.62613e-05
6.64112e-05
5.36607e-05
5.96973e-05
5.97209e-05
5.97726e-05
6.63623e-05
5.97982e-05
5.65473e-05
6.26637e-05
5.52974e-05
6.09579e-05
6.26311e-05
5.52826e-05
5.6561e-05
5.75234e-05
6.04937e-05
6.50313e-05
6.43833e-05
6.44639e-05
6.05846e-05
5.74625e-05
5.76561e-05
6.45446e-05
6.50772e-05
6.07425e-05
6.45057e-05
6.06899e-05
5.7685e-05
5.64038e-05
6.09307e-05
6.25146e-05
5.51063e-05
6.25983e-05
5.5158e-05
5.63569e-05
5.66987e-05
5.53423e-05
6.27218e-05
6.0999e-05
5.53416e-05
6.27593e-05
5.66729e-05
5.79216e-05
6.11031e-05
6.53455e-05
6.48233e-05
6.47912e-05
6.09853e-05
5.79394e-05
5.79036e-05
6.45692e-05
6.51653e-05
6.06426e-05
6.46811e-05
5.77972e-05
6.08255e-05
5.66566e-05
6.09933e-05
5.52146e-05
6.27773e-05
5.52531e-05
6.27804e-05
5.66532e-05
5.66341e-05
6.26657e-05
5.5359e-05
6.09664e-05
5.66393e-05
6.26669e-05
5.53543e-05
5.78034e-05
6.08294e-05
6.51438e-05
6.45456e-05
6.08329e-05
6.45569e-05
5.77961e-05
5.77673e-05
6.45562e-05
6.07998e-05
6.51453e-05
6.08168e-05
5.77636e-05
6.45613e-05
5.66769e-05
6.0942e-05
6.26429e-05
5.53664e-05
6.26562e-05
5.538e-05
5.66633e-05
5.66039e-05
5.53742e-05
6.2632e-05
6.0949e-05
5.66767e-05
5.53581e-05
6.25766e-05
5.75492e-05
6.02002e-05
6.46717e-05
6.41578e-05
6.42269e-05
6.02807e-05
5.74443e-05
5.75976e-05
6.44302e-05
6.05093e-05
6.47771e-05
5.77391e-05
6.43369e-05
6.03702e-05
5.6593e-05
6.08904e-05
5.53218e-05
6.24363e-05
5.53638e-05
6.24814e-05
5.65075e-05
5.65991e-05
5.5194e-05
6.27711e-05
6.0781e-05
5.51396e-05
6.26422e-05
5.66471e-05
5.77625e-05
6.09348e-05
6.53329e-05
6.44432e-05
6.10795e-05
6.46073e-05
5.76482e-05
5.79369e-05
6.4866e-05
6.54468e-05
6.12705e-05
6.12086e-05
6.47389e-05
5.80086e-05
5.64045e-05
6.06881e-05
5.49097e-05
6.23866e-05
5.4972e-05
6.25367e-05
5.63342e-05
5.64927e-05
6.25505e-05
5.5219e-05
6.09891e-05
5.64452e-05
6.26737e-05
5.52638e-05
5.77398e-05
6.07949e-05
6.51996e-05
6.47042e-05
5.77766e-05
6.07583e-05
6.46561e-05
5.76063e-05
6.44505e-05
6.05674e-05
6.51346e-05
5.75275e-05
6.06656e-05
6.45785e-05
5.66413e-05
6.10536e-05
6.28037e-05
5.54134e-05
5.66603e-05
6.27448e-05
5.53907e-05
5.68122e-05
5.53416e-05
6.28532e-05
6.10786e-05
5.6794e-05
5.53787e-05
6.29314e-05
5.8149e-05
6.1168e-05
6.55833e-05
6.49883e-05
6.49995e-05
6.12678e-05
5.81312e-05
5.81236e-05
6.49459e-05
6.12996e-05
6.55944e-05
5.81074e-05
6.49928e-05
6.12932e-05
5.68949e-05
6.11294e-05
5.54993e-05
6.29697e-05
5.54865e-05
6.29595e-05
5.68894e-05
6.59499e-05
5.39963e-05
5.95498e-05
5.95682e-05
5.98123e-05
5.97954e-05
6.56727e-05
6.52971e-05
5.34995e-05
5.93727e-05
5.93925e-05
5.92121e-05
6.54466e-05
5.92328e-05
5.68698e-05
5.55317e-05
6.3055e-05
6.12119e-05
5.54914e-05
6.29989e-05
5.69067e-05
5.79829e-05
6.10987e-05
6.55671e-05
6.47897e-05
6.1252e-05
6.493e-05
5.78506e-05
5.81441e-05
6.50747e-05
6.56459e-05
6.14141e-05
6.13707e-05
6.50188e-05
5.81978e-05
5.66801e-05
6.11519e-05
5.5224e-05
6.27913e-05
5.53242e-05
6.29249e-05
5.65836e-05
5.67436e-05
5.55477e-05
6.28089e-05
6.11685e-05
5.68019e-05
5.55366e-05
6.27552e-05
5.76485e-05
6.02655e-05
6.47514e-05
6.4269e-05
5.7533e-05
6.03498e-05
6.43413e-05
5.76995e-05
6.45547e-05
6.05813e-05
6.48622e-05
5.78413e-05
6.04415e-05
6.44618e-05
5.67315e-05
6.11079e-05
5.55006e-05
6.25926e-05
5.66368e-05
5.55455e-05
6.26463e-05
5.69954e-05
5.56123e-05
6.30673e-05
6.12585e-05
5.6999e-05
5.56124e-05
6.30668e-05
5.82524e-05
6.1163e-05
6.55888e-05
6.49373e-05
6.50405e-05
6.13415e-05
5.81849e-05
5.82513e-05
6.50877e-05
6.14259e-05
6.56765e-05
5.82555e-05
6.50822e-05
6.14068e-05
5.70225e-05
6.12316e-05
5.56106e-05
6.29828e-05
5.56353e-05
6.30406e-05
5.69841e-05
6.72936e-05
5.4578e-05
6.07754e-05
6.08141e-05
6.75563e-05
6.07115e-05
6.07423e-05
5.80087e-05
6.10093e-05
6.49213e-05
6.52232e-05
6.08383e-05
5.81124e-05
6.48026e-05
5.68847e-05
6.11643e-05
5.55487e-05
6.29582e-05
5.55415e-05
5.69169e-05
6.29203e-05
6.09721e-05
6.51006e-05
6.07798e-05
2.11983e-05
3.68895e-05
3.68851e-05
4.21341e-05
2.19531e-05
3.78345e-05
3.78314e-05
4.28785e-05
2.27593e-05
3.86761e-05
3.86726e-05
4.35619e-05
2.35513e-05
3.95295e-05
3.9577e-05
4.41435e-05
2.43417e-05
4.04168e-05
4.03463e-05
4.49849e-05
2.51543e-05
4.11142e-05
4.11808e-05
4.54629e-05
2.59832e-05
4.19529e-05
4.18972e-05
4.60824e-05
2.67797e-05
4.2691e-05
4.2724e-05
4.67242e-05
2.76143e-05
4.33689e-05
4.34736e-05
4.71744e-05
2.83663e-05
4.40206e-05
4.38917e-05
4.77832e-05
2.92365e-05
4.47761e-05
4.48039e-05
4.8311e-05
2.99803e-05
4.53346e-05
4.52613e-05
4.87341e-05
3.07047e-05
4.59942e-05
4.61358e-05
4.94176e-05
3.15108e-05
4.63096e-05
4.62491e-05
4.93958e-05
3.21632e-05
4.73228e-05
4.73398e-05
5.01973e-05
3.29392e-05
4.74287e-05
4.74655e-05
5.07211e-05
3.36952e-05
4.82162e-05
4.76783e-05
5.09054e-05
3.39712e-05
4.83729e-05
4.92202e-05
5.1002e-05
3.52324e-05
4.92246e-05
4.85835e-05
5.07112e-05
3.52591e-05
4.93317e-05
4.88024e-05
5.41775e-05
3.60735e-05
4.89122e-05
5.0859e-05
5.1103e-05
3.67623e-05
5.10853e-05
4.85307e-05
4.97341e-05
3.71582e-05
4.99305e-05
5.1956e-05