/*--------------------------------*- C++ -*----------------------------------*\
| =========                 |                                                 |
| \\      /  F ield         | OpenFOAM: The Open Source CFD Toolbox           |
|  \\    /   O peration     | Version:  v1906                                 |
|   \\  /    A nd           | Web:      www.OpenFOAM.com                      |
|    \\/     M anipulation  |                                                 |
\*---------------------------------------------------------------------------*/
FoamFile
{
    version     2.0;
    format      ascii;
    class       volScalarField;
    location    "500";
    object      k;
}
// * * * * * * * * * * * * * * * * * * * * * * * * * * * * * * * * * * * * * //

dimensions      [0 2 -2 0 0 0 0];


internalField   nonuniform List<scalar> 
171728
(
3.58932e-05
3.58912e-05
3.58912e-05
3.59957e-05
3.39296e-05
3.3889e-05
3.3889e-05
3.39622e-05
3.21578e-05
3.20081e-05
3.20081e-05
3.19522e-05
3.05346e-05
3.02293e-05
3.02292e-05
2.99885e-05
2.90329e-05
2.8554e-05
2.85539e-05
2.81226e-05
2.76353e-05
2.69872e-05
2.69871e-05
2.63907e-05
2.63308e-05
2.5531e-05
2.55309e-05
2.48073e-05
2.51112e-05
2.4185e-05
2.41848e-05
2.33782e-05
2.39709e-05
2.29506e-05
2.29504e-05
2.21046e-05
2.29058e-05
2.18269e-05
2.18267e-05
2.09859e-05
2.1912e-05
2.08114e-05
2.08112e-05
2.00136e-05
2.09865e-05
1.99014e-05
1.99011e-05
1.91811e-05
2.0124e-05
1.9095e-05
1.90945e-05
1.84896e-05
1.93238e-05
1.83887e-05
1.83884e-05
1.79338e-05
1.85848e-05
1.77803e-05
1.778e-05
1.75075e-05
1.7905e-05
1.7269e-05
1.72697e-05
1.72115e-05
1.7281e-05
1.68554e-05
1.68523e-05
1.7044e-05
1.67113e-05
1.6527e-05
1.65268e-05
1.70172e-05
1.62034e-05
1.63416e-05
1.63562e-05
1.73099e-05
1.57431e-05
1.62584e-05
1.62187e-05
1.74364e-05
1.53505e-05
1.62967e-05
1.63637e-05
1.89354e-05
1.49652e-05
1.65369e-05
1.63594e-05
1.82692e-05
1.46007e-05
1.63129e-05
1.62893e-05
1.88248e-05
1.43354e-05
1.64567e-05
1.64963e-05
1.95431e-05
1.40937e-05
1.68863e-05
1.69874e-05
2.04576e-05
1.3895e-05
1.69984e-05
1.70169e-05
2.06107e-05
1.37896e-05
1.74263e-05
1.78493e-05
2.07727e-05
1.35867e-05
1.79948e-05
1.80441e-05
2.38934e-05
1.36368e-05
1.91996e-05
1.82517e-05
2.29284e-05
1.36083e-05
1.91362e-05
1.96793e-05
2.45902e-05
1.37288e-05
2.08853e-05
2.03178e-05
2.77689e-05
1.38069e-05
2.08668e-05
2.06482e-05
2.49268e-05
1.38415e-05
2.17799e-05
2.28655e-05
2.92518e-05
1.39372e-05
2.29459e-05
2.28681e-05
2.93932e-05
1.43786e-05
2.44627e-05
2.39631e-05
3.1596e-05
1.45924e-05
2.51019e-05
2.47736e-05
3.12249e-05
1.50955e-05
2.567e-05
2.57662e-05
3.29084e-05
1.52379e-05
2.6721e-05
2.69696e-05
3.36895e-05
1.56761e-05
2.78775e-05
2.7953e-05
3.42574e-05
1.61515e-05
2.89024e-05
2.89197e-05
3.53264e-05
1.66111e-05
2.99368e-05
2.9912e-05
3.63949e-05
1.72223e-05
3.10058e-05
3.09599e-05
3.72111e-05
1.77694e-05
3.20153e-05
3.20145e-05
3.80883e-05
1.83844e-05
3.30311e-05
3.30535e-05
3.90379e-05
1.90298e-05
3.40385e-05
3.40169e-05
3.98101e-05
1.973e-05
3.49997e-05
3.5007e-05
4.06348e-05
2.04547e-05
3.59676e-05
3.59868e-05
4.1313e-05
2.11987e-05
3.68907e-05
3.68797e-05
4.2144e-05
2.19538e-05
3.78343e-05
3.78382e-05
4.28745e-05
2.27601e-05
3.86738e-05
3.86677e-05
4.35475e-05
2.35495e-05
3.95337e-05
3.95758e-05
4.41715e-05
2.43454e-05
4.04134e-05
4.03566e-05
4.49446e-05
2.51514e-05
4.11131e-05
4.11669e-05
4.54913e-05
2.59838e-05
4.19571e-05
4.1909e-05
4.60716e-05
2.67796e-05
4.26844e-05
4.27127e-05
4.67156e-05
2.76143e-05
4.33745e-05
4.34808e-05
4.72077e-05
2.83652e-05
4.40192e-05
4.39024e-05
4.77263e-05
2.92371e-05
4.47752e-05
4.47844e-05
4.83471e-05
2.99806e-05
4.53376e-05
4.527e-05
4.87268e-05
3.07038e-05
4.59909e-05
4.61358e-05
4.94348e-05
3.15136e-05
4.63112e-05
4.62437e-05
4.9368e-05
3.21614e-05
4.73244e-05
4.73431e-05
5.02161e-05
3.29395e-05
4.74208e-05
4.74623e-05
5.07392e-05
3.36959e-05
4.82344e-05
4.76785e-05
5.08756e-05
3.3972e-05
4.83668e-05
4.92291e-05
5.09889e-05
3.52247e-05
4.92146e-05
4.85773e-05
5.07685e-05
3.52583e-05
4.93335e-05
4.87952e-05
5.41414e-05
3.60845e-05
4.892e-05
5.08713e-05
5.10705e-05
3.67551e-05
5.10855e-05
4.85218e-05
4.97887e-05
3.71511e-05
4.99107e-05
5.19642e-05
5.58704e-05
3.77719e-05
5.05171e-05
5.0587e-05
5.22353e-05
3.79926e-05
5.1236e-05
5.01119e-05
5.17176e-05
3.84403e-05
5.11758e-05
5.16219e-05
5.42257e-05
3.91358e-05
5.17099e-05
5.15347e-05
5.41565e-05
3.94925e-05
5.1757e-05
5.18607e-05
5.33337e-05
3.96734e-05
5.19055e-05
5.20946e-05
5.42687e-05
4.00038e-05
5.21608e-05
5.20238e-05
5.42442e-05
4.03888e-05
5.22203e-05
5.21715e-05
5.39255e-05
4.06702e-05
5.24422e-05
5.24684e-05
5.43756e-05
4.09304e-05
5.26257e-05
5.26088e-05
5.46075e-05
4.11624e-05
5.26517e-05
5.26709e-05
5.44742e-05
4.13632e-05
5.27925e-05
5.27497e-05
5.46849e-05
4.15402e-05
5.27713e-05
5.28226e-05
5.45774e-05
4.1674e-05
5.28873e-05
5.28331e-05
5.47889e-05
4.18677e-05
5.29129e-05
5.29357e-05
5.46949e-05
4.19125e-05
5.28655e-05
5.2859e-05
5.46976e-05
4.2069e-05
5.29572e-05
5.29738e-05
5.47797e-05
4.21339e-05
5.29173e-05
5.28544e-05
5.47012e-05
4.21499e-05
5.28254e-05
5.28873e-05
5.46517e-05
4.22563e-05
5.2896e-05
5.2846e-05
5.46818e-05
4.22765e-05
5.28066e-05
5.28388e-05
5.47366e-05
4.22363e-05
5.26709e-05
5.26496e-05
5.42928e-05
4.23329e-05
5.28205e-05
5.28194e-05
5.48362e-05
4.22319e-05
5.24853e-05
5.24976e-05
5.42483e-05
4.18284e-05
5.14079e-05
5.13569e-05
5.38853e-05
3.63068e-05
3.6291e-05
3.6291e-05
3.63068e-05
3.6291e-05
3.6291e-05
3.6423e-05
3.6423e-05
3.6423e-05
3.6423e-05
3.6291e-05
3.6291e-05
3.63068e-05
3.6291e-05
3.6291e-05
3.63068e-05
3.59957e-05
3.42687e-05
3.58912e-05
3.58912e-05
3.43767e-05
3.43766e-05
3.59957e-05
3.42687e-05
3.58911e-05
3.58912e-05
3.43767e-05
3.43766e-05
3.58912e-05
3.43767e-05
3.43767e-05
3.59957e-05
3.42687e-05
3.58912e-05
3.43767e-05
3.43767e-05
3.42687e-05
3.39623e-05
3.22635e-05
3.38889e-05
3.38889e-05
3.24684e-05
3.24683e-05
3.39623e-05
3.22635e-05
3.38889e-05
3.38889e-05
3.24684e-05
3.24683e-05
3.38889e-05
3.24685e-05
3.24684e-05
3.39623e-05
3.22634e-05
3.38889e-05
3.24685e-05
3.24684e-05
3.22634e-05
3.19522e-05
3.02993e-05
3.20079e-05
3.20078e-05
3.06643e-05
3.06642e-05
3.19522e-05
3.02994e-05
3.2008e-05
3.20078e-05
3.06644e-05
3.06641e-05
3.20079e-05
3.06646e-05
3.06643e-05
3.19522e-05
3.02992e-05
3.2008e-05
3.06645e-05
3.06644e-05
3.02992e-05
2.99885e-05
2.84253e-05
3.0229e-05
3.02288e-05
2.89624e-05
2.89622e-05
2.99886e-05
2.84255e-05
3.02291e-05
3.02287e-05
2.89626e-05
2.89621e-05
3.02289e-05
2.89628e-05
2.89623e-05
2.99885e-05
2.84252e-05
3.02291e-05
2.89627e-05
2.89626e-05
2.84251e-05
2.81227e-05
2.6674e-05
2.85536e-05
2.85534e-05
2.7368e-05
2.73678e-05
2.81228e-05
2.66742e-05
2.85538e-05
2.85533e-05
2.73683e-05
2.73676e-05
2.85535e-05
2.73685e-05
2.73679e-05
2.81226e-05
2.66739e-05
2.85538e-05
2.73684e-05
2.73683e-05
2.66738e-05
2.63909e-05
2.50663e-05
2.69866e-05
2.69864e-05
2.58841e-05
2.58838e-05
2.63909e-05
2.50665e-05
2.6987e-05
2.69862e-05
2.58845e-05
2.58836e-05
2.69865e-05
2.58848e-05
2.5884e-05
2.63907e-05
2.50661e-05
2.69869e-05
2.58846e-05
2.58845e-05
2.50661e-05
2.48075e-05
2.36125e-05
2.55304e-05
2.553e-05
2.45102e-05
2.45099e-05
2.48077e-05
2.36126e-05
2.55308e-05
2.55299e-05
2.45107e-05
2.45097e-05
2.55302e-05
2.45111e-05
2.45102e-05
2.48073e-05
2.36123e-05
2.55307e-05
2.45109e-05
2.45107e-05
2.36123e-05
2.33783e-05
2.23124e-05
2.41842e-05
2.41839e-05
2.32479e-05
2.32475e-05
2.33786e-05
2.23127e-05
2.41847e-05
2.41836e-05
2.32484e-05
2.32473e-05
2.41841e-05
2.32488e-05
2.32478e-05
2.33782e-05
2.23123e-05
2.41846e-05
2.32485e-05
2.32484e-05
2.23121e-05
2.2105e-05
2.1168e-05
2.29497e-05
2.29494e-05
2.20966e-05
2.20962e-05
2.2105e-05
2.11683e-05
2.29503e-05
2.29491e-05
2.20972e-05
2.2096e-05
2.29496e-05
2.20976e-05
2.20965e-05
2.21046e-05
2.11679e-05
2.29503e-05
2.20974e-05
2.20972e-05
2.11678e-05
2.09863e-05
2.01709e-05
2.18259e-05
2.18255e-05
2.10542e-05
2.10538e-05
2.09866e-05
2.01709e-05
2.18266e-05
2.18253e-05
2.1055e-05
2.10536e-05
2.18258e-05
2.10553e-05
2.10542e-05
2.09862e-05
2.01704e-05
2.18265e-05
2.10551e-05
2.1055e-05
2.01704e-05
2.00139e-05
1.93145e-05
2.08103e-05
2.081e-05
2.0118e-05
2.01177e-05
2.00137e-05
1.93151e-05
2.08111e-05
2.08098e-05
2.01188e-05
2.01175e-05
2.08102e-05
2.01192e-05
2.0118e-05
2.00133e-05
1.93148e-05
2.08111e-05
2.0119e-05
2.01189e-05
1.93144e-05
1.91815e-05
1.85909e-05
1.99002e-05
1.98999e-05
1.92857e-05
1.92855e-05
1.91824e-05
1.8591e-05
1.99011e-05
1.98996e-05
1.92866e-05
1.92854e-05
1.99001e-05
1.92868e-05
1.92858e-05
1.91819e-05
1.85914e-05
1.9901e-05
1.92869e-05
1.92867e-05
1.85905e-05
1.84896e-05
1.7999e-05
1.90935e-05
1.90935e-05
1.85551e-05
1.85547e-05
1.8491e-05
1.79981e-05
1.90943e-05
1.90931e-05
1.85559e-05
1.85544e-05
1.90937e-05
1.85559e-05
1.85548e-05
1.84906e-05
1.79993e-05
1.90945e-05
1.85559e-05
1.85557e-05
1.79992e-05
1.79334e-05
1.75408e-05
1.83875e-05
1.83877e-05
1.79222e-05
1.79216e-05
1.79348e-05
1.75406e-05
1.83884e-05
1.83872e-05
1.79228e-05
1.79221e-05
1.83873e-05
1.79235e-05
1.7922e-05
1.79352e-05
1.75426e-05
1.83884e-05
1.79238e-05
1.79226e-05
1.75411e-05
1.75073e-05
1.72257e-05
1.7779e-05
1.77788e-05
1.73859e-05
1.73868e-05
1.75082e-05
1.72231e-05
1.77794e-05
1.77787e-05
1.73865e-05
1.73863e-05
1.77787e-05
1.7387e-05
1.73869e-05
1.75093e-05
1.72245e-05
1.77789e-05
1.73867e-05
1.73876e-05
1.72286e-05
1.72079e-05
1.70325e-05
1.72679e-05
1.72684e-05
1.69421e-05
1.69426e-05
1.72071e-05
1.70313e-05
1.72685e-05
1.72684e-05
1.69437e-05
1.69447e-05
1.72669e-05
1.69441e-05
1.69461e-05
1.72092e-05
1.70338e-05
1.72676e-05
1.69454e-05
1.69478e-05
1.70449e-05
1.70296e-05
1.7019e-05
1.68497e-05
1.68535e-05
1.66036e-05
1.65983e-05
1.70315e-05
1.70009e-05
1.68501e-05
1.68533e-05
1.66044e-05
1.66017e-05
1.68491e-05
1.65975e-05
1.66057e-05
1.70339e-05
1.70022e-05
1.68513e-05
1.66018e-05
1.66034e-05
1.70064e-05
1.70269e-05
1.71728e-05
1.65264e-05
1.65283e-05
1.63884e-05
1.63972e-05
1.70146e-05
1.72302e-05
1.65305e-05
1.6528e-05
1.63838e-05
1.6381e-05
1.65279e-05
1.63969e-05
1.63828e-05
1.70119e-05
1.7193e-05
1.65256e-05
1.63833e-05
1.63865e-05
1.72022e-05
1.72584e-05
1.74293e-05
1.63535e-05
1.63449e-05
1.62274e-05
1.62392e-05
1.72916e-05
1.74329e-05
1.63461e-05
1.63494e-05
1.62277e-05
1.62406e-05
1.6363e-05
1.62468e-05
1.62104e-05
1.72915e-05
1.75139e-05
1.63664e-05
1.6239e-05
1.62193e-05
1.74193e-05
1.75255e-05
1.84613e-05
1.62318e-05
1.62458e-05
1.63246e-05
1.62772e-05
1.75752e-05
1.82653e-05
1.62329e-05
1.62211e-05
1.63201e-05
1.62754e-05
1.62055e-05
1.62872e-05
1.63607e-05
1.75635e-05
1.83452e-05
1.62167e-05
1.62799e-05
1.63715e-05
1.87307e-05
1.8584e-05
1.86451e-05
1.63455e-05
1.62934e-05
1.63491e-05
1.65302e-05
1.83422e-05
1.96202e-05
1.63329e-05
1.63639e-05
1.63358e-05
1.64369e-05
1.64064e-05
1.65045e-05
1.62975e-05
1.86587e-05
1.90167e-05
1.64078e-05
1.64206e-05
1.62796e-05
1.83922e-05
1.86394e-05
1.83183e-05
1.62966e-05
1.65541e-05
1.61946e-05
1.63914e-05
1.9732e-05
1.88178e-05
1.6302e-05
1.63759e-05
1.62196e-05
1.62547e-05
1.61853e-05
1.64039e-05
1.61881e-05
1.89478e-05
1.85034e-05
1.61738e-05
1.6264e-05
1.6177e-05
1.83102e-05
1.83768e-05
1.9344e-05
1.62065e-05
1.63115e-05
1.64674e-05
1.6327e-05
1.87151e-05
1.87771e-05
1.6229e-05
1.62801e-05
1.64593e-05
1.64513e-05
1.63335e-05
1.63194e-05
1.65434e-05
1.86544e-05
1.93072e-05
1.63134e-05
1.64616e-05
1.65387e-05
1.95413e-05
1.94938e-05
1.97128e-05
1.65285e-05
1.64633e-05
1.66676e-05
1.68378e-05
1.92471e-05
2.0374e-05
1.65156e-05
1.6485e-05
1.66744e-05
1.68939e-05
1.65474e-05
1.68474e-05
1.67227e-05
1.93899e-05
2.06373e-05
1.65494e-05
1.68853e-05
1.67578e-05
2.00794e-05
1.9863e-05
2.04687e-05
1.67669e-05
1.68809e-05
1.6976e-05
1.69364e-05
2.03817e-05
2.01674e-05
1.67781e-05
1.7002e-05
1.69785e-05
1.70194e-05
1.68808e-05
1.69345e-05
1.71146e-05
2.07691e-05
2.01831e-05
1.68958e-05
1.70107e-05
1.71111e-05
2.06495e-05
2.06765e-05
2.20321e-05
1.70963e-05
1.7003e-05
1.76698e-05
1.74218e-05
2.03335e-05
2.09932e-05
1.70933e-05
1.7024e-05
1.76597e-05
1.75511e-05
1.71151e-05
1.74169e-05
1.71578e-05
2.01839e-05
2.21794e-05
1.71117e-05
1.75547e-05
1.71539e-05
2.03299e-05
2.20533e-05
2.12201e-05
1.77536e-05
1.74314e-05
1.7749e-05
1.75801e-05
2.09462e-05
2.12351e-05
1.77481e-05
1.78544e-05
1.77509e-05
1.80785e-05
1.73304e-05
1.75773e-05
1.83747e-05
2.26651e-05
2.21773e-05
1.73259e-05
1.80738e-05
1.83854e-05
2.38133e-05
2.12708e-05
2.40945e-05
1.77774e-05
1.7992e-05
1.87086e-05
1.91668e-05
2.23186e-05
2.51417e-05
1.77813e-05
1.80456e-05
1.87082e-05
1.80652e-05
1.8531e-05
1.91709e-05
1.86052e-05
2.20378e-05
2.17457e-05
1.85421e-05
1.80693e-05
1.86052e-05
2.29635e-05
2.44511e-05
2.44331e-05
1.90048e-05
1.91987e-05
1.92685e-05
1.91164e-05
2.50622e-05
2.34748e-05
1.89971e-05
1.82431e-05
1.92556e-05
1.92809e-05
1.8592e-05
1.91106e-05
1.89155e-05
2.21859e-05
2.50225e-05
1.85877e-05
1.92711e-05
1.88947e-05
2.37994e-05
2.44781e-05
2.66716e-05
1.93432e-05
1.91427e-05
2.02947e-05
2.04525e-05
2.35287e-05
2.75411e-05
1.93353e-05
1.96905e-05
2.03142e-05
2.03383e-05
1.9344e-05
2.04487e-05
2.07173e-05
2.57386e-05
2.60368e-05
1.93345e-05
2.03391e-05
2.07348e-05
2.77237e-05
2.71255e-05
2.74204e-05
2.067e-05
2.08804e-05
2.11643e-05
2.09372e-05
2.78995e-05
2.58804e-05
2.06834e-05
2.03151e-05
2.11491e-05
2.03182e-05
2.08604e-05
2.09463e-05
2.06595e-05
2.57964e-05
2.50986e-05
2.08657e-05
2.03237e-05
2.06464e-05
2.49769e-05
2.74724e-05
2.72056e-05
2.12185e-05
2.08638e-05
2.1666e-05
2.11804e-05
2.57018e-05
2.72595e-05
2.12012e-05
2.06457e-05
2.16689e-05
2.27309e-05
2.06308e-05
2.11601e-05
2.14702e-05
2.61879e-05
3.06434e-05
2.06173e-05
2.27082e-05
2.14733e-05
2.85491e-05
2.71959e-05
2.79913e-05
2.17097e-05
2.18077e-05
2.20227e-05
2.27174e-05
2.81576e-05
2.95597e-05
2.17185e-05
2.28804e-05
2.20306e-05
2.28584e-05
2.21532e-05
2.27294e-05
2.28257e-05
3.06049e-05
2.89566e-05
2.21627e-05
2.28572e-05
2.28346e-05
2.93581e-05
2.90145e-05
3.0673e-05
2.26053e-05
2.29321e-05
2.39484e-05
2.41361e-05
2.96972e-05
3.15465e-05
2.26056e-05
2.28677e-05
2.39438e-05
2.35952e-05
2.28987e-05
2.41211e-05
2.3983e-05
2.89982e-05
3.03514e-05
2.29051e-05
2.35906e-05
2.39781e-05
3.12692e-05
3.06369e-05
3.12076e-05
2.40147e-05
2.44779e-05
2.4404e-05
2.50034e-05
3.18821e-05
3.18625e-05
2.40097e-05
2.39717e-05
2.43989e-05
2.46331e-05
2.43816e-05
2.50142e-05
2.47143e-05
3.07393e-05
3.12379e-05
2.43772e-05
2.46431e-05
2.47097e-05
3.12036e-05
3.20265e-05
3.35384e-05
2.4985e-05
2.50907e-05
2.62644e-05
2.54807e-05
3.18853e-05
3.18706e-05
2.49797e-05
2.4763e-05
2.62587e-05
2.54676e-05
2.47609e-05
2.54708e-05
2.56096e-05
3.13156e-05
3.20146e-05
2.47558e-05
2.54596e-05
2.56037e-05
3.24724e-05
3.3503e-05
3.27753e-05
2.63664e-05
2.56844e-05
2.64618e-05
2.64298e-05
3.20293e-05
3.29782e-05
2.63618e-05
2.57786e-05
2.64586e-05
2.66907e-05
2.59883e-05
2.64229e-05
2.67688e-05
3.23686e-05
3.35341e-05
2.59836e-05
2.66835e-05
2.67673e-05
3.35824e-05
3.28813e-05
3.43989e-05
2.6608e-05
2.67225e-05
2.75969e-05
2.76091e-05
3.32679e-05
3.42752e-05
2.66054e-05
2.69721e-05
2.7598e-05
2.77125e-05
2.69619e-05
2.76122e-05
2.75728e-05
3.37741e-05
3.44227e-05
2.69611e-05
2.77161e-05
2.75714e-05
3.40613e-05
3.47442e-05
3.52819e-05
2.79594e-05
2.78763e-05
2.87432e-05
2.86461e-05
3.4495e-05
3.51695e-05
2.79598e-05
2.79508e-05
2.87401e-05
2.86866e-05
2.78032e-05
2.86399e-05
2.85913e-05
3.4599e-05
3.52094e-05
2.78013e-05
2.86813e-05
2.85885e-05
3.50839e-05
3.53759e-05
3.59533e-05
2.89086e-05
2.89099e-05
2.95933e-05
2.96873e-05
3.53865e-05
3.61169e-05
2.89055e-05
2.89259e-05
2.9589e-05
2.96588e-05
2.88637e-05
2.96853e-05
2.96951e-05
3.54009e-05
3.60447e-05
2.88615e-05
2.96577e-05
2.96925e-05
3.61716e-05
3.62639e-05
3.73155e-05
2.98988e-05
2.99366e-05
3.08454e-05
3.07269e-05
3.63141e-05
3.70615e-05
2.98955e-05
2.99109e-05
3.08435e-05
3.06918e-05
2.99736e-05
3.07258e-05
3.07363e-05
3.62501e-05
3.69785e-05
2.99706e-05
3.06917e-05
3.07341e-05
3.70378e-05
3.75044e-05
3.78733e-05
3.11239e-05
3.10084e-05
3.17543e-05
3.17863e-05
3.72897e-05
3.79533e-05
3.11216e-05
3.09615e-05
3.17512e-05
3.17554e-05
3.09796e-05
3.17823e-05
3.17362e-05
3.71928e-05
3.79337e-05
3.09774e-05
3.17525e-05
3.17317e-05
3.78766e-05
3.80166e-05
3.87725e-05
3.19729e-05
3.20189e-05
3.27749e-05
3.27624e-05
3.81159e-05
3.8766e-05
3.19702e-05
3.20171e-05
3.27724e-05
3.28032e-05
3.19979e-05
3.27604e-05
3.2801e-05
3.81373e-05
3.8829e-05
3.19934e-05
3.28022e-05
3.27995e-05
3.88417e-05
3.8971e-05
3.9524e-05
3.30236e-05
3.30332e-05
3.37349e-05
3.38083e-05
3.89855e-05
3.96573e-05
3.30215e-05
3.30543e-05
3.37331e-05
3.37752e-05
3.30624e-05
3.38065e-05
3.37958e-05
3.90146e-05
3.95875e-05
3.30612e-05
3.37749e-05
3.37934e-05
3.9629e-05
3.97238e-05
4.04394e-05
3.39928e-05
3.404e-05
3.47584e-05
3.47565e-05
3.98212e-05
4.03907e-05
3.39907e-05
3.40171e-05
3.47559e-05
3.47589e-05
3.40389e-05
3.47554e-05
3.47934e-05
3.97659e-05
4.04185e-05
3.40359e-05
3.47588e-05
3.47903e-05
4.04616e-05
4.06189e-05
4.12041e-05
3.50087e-05
3.50007e-05
3.57353e-05
3.57215e-05
4.05772e-05
4.1194e-05
3.5007e-05
3.50068e-05
3.57332e-05
3.57466e-05
3.50327e-05
3.57195e-05
3.57058e-05
4.06061e-05
4.12341e-05
3.50302e-05
3.57462e-05
3.57036e-05
4.11428e-05
4.13692e-05
4.19654e-05
3.5964e-05
3.59702e-05
3.66709e-05
3.6665e-05
4.13714e-05
4.19593e-05
3.59625e-05
3.5988e-05
3.66695e-05
3.66577e-05
3.59378e-05
3.66632e-05
3.66705e-05
4.14046e-05
4.19222e-05
3.59359e-05
3.66577e-05
3.66692e-05
4.1968e-05
4.21383e-05
4.26219e-05
3.691e-05
3.68925e-05
3.75582e-05
3.76178e-05
4.21244e-05
4.27353e-05
3.69077e-05
3.68794e-05
3.75558e-05
3.76049e-05
3.69092e-05
3.76157e-05
3.75917e-05
4.20847e-05
4.2729e-05
3.6907e-05
3.76039e-05
3.75893e-05
4.27065e-05
4.27778e-05
4.34723e-05
3.7772e-05
3.78363e-05
3.85041e-05
3.84539e-05
4.28938e-05
4.3338e-05
3.77704e-05
3.78389e-05
3.8502e-05
3.84469e-05
3.78224e-05
3.84545e-05
3.84984e-05
4.28963e-05
4.33445e-05
3.78204e-05
3.84494e-05
3.84964e-05
4.34123e-05
4.36496e-05
4.40716e-05
3.87425e-05
3.86724e-05
3.93482e-05
3.93242e-05
4.34977e-05
4.40623e-05
3.87405e-05
3.86651e-05
3.93469e-05
3.93826e-05
3.86986e-05
3.93217e-05
3.93071e-05
4.35068e-05
4.41404e-05
3.86964e-05
3.93813e-05
3.9305e-05
4.40074e-05
4.42e-05
4.47167e-05
3.95442e-05
3.95367e-05
4.0158e-05
4.01952e-05
4.42163e-05
4.47923e-05
3.95443e-05
3.95766e-05
4.01567e-05
4.01308e-05
3.95229e-05
4.01935e-05
4.0171e-05
4.42744e-05
4.46668e-05
3.95223e-05
4.01313e-05
4.01711e-05
4.4778e-05
4.48604e-05
4.53135e-05
4.03661e-05
4.04159e-05
4.09454e-05
4.09528e-05
4.49448e-05
4.52858e-05
4.03625e-05
4.03582e-05
4.0943e-05
4.09885e-05
4.04014e-05
4.09534e-05
4.10204e-05
4.48384e-05
4.53732e-05
4.0399e-05
4.09908e-05
4.10175e-05
4.53932e-05
4.54617e-05
4.60301e-05
4.11368e-05
4.11106e-05
4.17825e-05
4.17314e-05
4.53863e-05
4.59957e-05
4.11368e-05
4.11613e-05
4.17821e-05
4.17086e-05
4.11797e-05
4.1731e-05
4.17008e-05
4.54833e-05
4.59149e-05
4.11786e-05
4.17096e-05
4.17009e-05
4.5901e-05
4.61545e-05
4.64768e-05
4.19722e-05
4.19596e-05
4.24542e-05
4.25228e-05
4.6175e-05
4.65728e-05
4.19714e-05
4.19107e-05
4.24496e-05
4.25136e-05
4.1906e-05
4.25195e-05
4.25239e-05
4.60672e-05
4.66071e-05
4.19056e-05
4.25126e-05
4.25197e-05
4.65974e-05
4.6633e-05
4.71554e-05
4.26499e-05
4.26855e-05
4.32547e-05
4.31955e-05
4.66722e-05
4.70838e-05
4.26447e-05
4.27111e-05
4.32573e-05
4.33142e-05
4.27033e-05
4.31969e-05
4.32039e-05
4.67638e-05
4.72434e-05
4.26983e-05
4.33163e-05
4.32066e-05
4.70812e-05
4.72375e-05
4.74875e-05
4.34105e-05
4.33762e-05
4.38063e-05
4.38788e-05
4.72131e-05
4.75976e-05
4.34159e-05
4.34816e-05
4.38056e-05
4.37724e-05
4.33861e-05
4.38776e-05
4.38847e-05
4.73209e-05
4.73936e-05
4.33905e-05
4.37737e-05
4.38853e-05
4.76172e-05
4.76443e-05
4.83873e-05
4.39789e-05
4.40171e-05
4.46565e-05
4.45549e-05
4.77015e-05
4.82218e-05
4.39755e-05
4.38958e-05
4.46516e-05
4.4569e-05
4.40372e-05
4.4556e-05
4.45607e-05
4.74727e-05
4.82902e-05
4.40348e-05
4.45726e-05
4.45539e-05
4.82024e-05
4.84987e-05
4.86037e-05
4.48508e-05
4.47761e-05
4.51927e-05
4.52448e-05
4.84049e-05
4.86812e-05
4.48465e-05
4.47852e-05
4.51976e-05
4.51398e-05
4.47494e-05
4.52425e-05
4.5236e-05
4.84232e-05
4.85191e-05
4.47436e-05
4.51396e-05
4.52404e-05
4.86608e-05
4.86642e-05
4.90483e-05
4.53007e-05
4.53401e-05
4.57541e-05
4.58001e-05
4.87321e-05
4.91971e-05
4.53052e-05
4.52668e-05
4.57433e-05
4.59624e-05
4.53406e-05
4.57955e-05
4.57776e-05
4.85971e-05
4.95062e-05
4.53437e-05
4.59602e-05
4.57713e-05
4.92178e-05
4.91389e-05
4.97186e-05
4.58669e-05
4.59976e-05
4.63883e-05
4.62471e-05
4.93399e-05
4.92828e-05
4.58605e-05
4.61396e-05
4.63992e-05
4.62126e-05
4.60134e-05
4.62604e-05
4.64201e-05
4.95616e-05
4.90546e-05
4.60084e-05
4.6218e-05
4.64277e-05
4.94058e-05
4.99722e-05
4.98078e-05
4.6637e-05
4.62976e-05
4.69537e-05
4.7066e-05
4.93048e-05
5.05418e-05
4.66445e-05
4.62354e-05
4.69454e-05
4.70873e-05
4.64172e-05
4.70297e-05
4.65616e-05
4.90786e-05
5.06551e-05
4.64248e-05
4.70554e-05
4.65581e-05
4.9757e-05
4.96701e-05
5.03056e-05
4.69261e-05
4.73616e-05
4.71117e-05
4.74363e-05
5.07438e-05
4.99409e-05
4.69165e-05
4.73813e-05
4.71095e-05
4.7469e-05
4.69282e-05
4.74624e-05
4.778e-05
5.08066e-05
5.00476e-05
4.69131e-05
4.74949e-05
4.77819e-05
5.08029e-05
5.10431e-05
5.14095e-05
4.76561e-05
4.73906e-05
4.83474e-05
4.78003e-05
4.98687e-05
5.11918e-05
4.76646e-05
4.74261e-05
4.83547e-05
4.75258e-05
4.78007e-05
4.7753e-05
4.78241e-05
5.0015e-05
5.03282e-05
4.78085e-05
4.75089e-05
4.78345e-05
5.06589e-05
5.07747e-05
4.94399e-05
4.81907e-05
4.83013e-05
4.77035e-05
4.84681e-05
5.15981e-05
5.07047e-05
4.81916e-05
4.777e-05
4.76803e-05
4.88512e-05
4.79251e-05
4.84883e-05
4.84302e-05
5.05171e-05
5.23664e-05
4.79294e-05
4.8899e-05
4.83912e-05
5.10433e-05
5.02803e-05
5.37303e-05
4.7908e-05
4.83103e-05
4.96899e-05
4.85975e-05
5.04734e-05
5.19751e-05
4.78897e-05
4.91487e-05
4.97789e-05
4.90916e-05
4.84235e-05
4.85996e-05
4.83462e-05
5.27065e-05
5.09755e-05
4.83931e-05
4.91174e-05
4.83912e-05
5.05828e-05
5.34497e-05
4.95977e-05
4.9674e-05
4.93006e-05
4.86051e-05
4.97194e-05
5.26987e-05
5.2019e-05
4.97567e-05
4.86277e-05
4.85081e-05
4.82848e-05
4.84303e-05
4.96428e-05
5.01089e-05
5.02693e-05
5.03527e-05
4.85116e-05
4.82401e-05
4.99563e-05
5.38093e-05
4.96352e-05
5.31636e-05
4.85555e-05
4.93314e-05
4.96149e-05
4.861e-05
5.13069e-05
4.98852e-05
4.84506e-05
4.87922e-05
4.97588e-05
5.08875e-05
5.04873e-05
4.87215e-05
5.02256e-05
5.18697e-05
5.51511e-05
5.03197e-05
5.10239e-05
5.02535e-05
5.1843e-05
5.33991e-05
5.23309e-05
5.0075e-05
4.88157e-05
5.02549e-05
5.11659e-05
5.07158e-05
5.5076e-05
5.02824e-05
5.07497e-05
5.029e-05
4.86356e-05
4.94676e-05
5.1025e-05
4.84625e-05
5.4164e-05
4.8448e-05
4.96893e-05
4.85515e-05
4.85003e-05
4.91952e-05
5.22504e-05
5.26692e-05
5.02006e-05
5.1246e-05
5.02715e-05
5.01975e-05
5.50489e-05
5.12294e-05
5.00792e-05
4.86193e-05
5.00895e-05
5.12328e-05
4.85939e-05
5.01722e-05
5.15065e-05
4.85585e-05
5.60255e-05
4.85794e-05
5.12037e-05
5.1321e-05
5.56938e-05
5.29116e-05
5.32149e-05
5.04558e-05
4.98573e-05
5.08061e-05
4.9946e-05
5.10306e-05
5.24984e-05
5.03716e-05
5.19065e-05
5.09823e-05
5.13391e-05
5.19452e-05
5.00603e-05
5.1453e-05
5.63026e-05
5.2037e-05
5.19312e-05
5.14668e-05
5.16779e-05
5.27499e-05
5.31788e-05
5.26737e-05
5.08114e-05
5.03969e-05
5.07515e-05
5.12957e-05
5.30055e-05
5.37818e-05
5.09692e-05
5.05138e-05
5.06881e-05
4.9978e-05
5.0783e-05
5.12397e-05
5.00548e-05
5.13981e-05
5.18006e-05
5.09516e-05
4.99473e-05
4.99855e-05
5.13905e-05
5.26842e-05
5.33083e-05
5.07474e-05
5.13004e-05
5.10297e-05
5.12095e-05
5.37133e-05
5.32187e-05
5.06646e-05
5.01653e-05
5.09348e-05
5.15263e-05
5.00786e-05
5.11596e-05
5.11196e-05
5.24544e-05
5.42672e-05
5.00034e-05
5.15008e-05
5.10974e-05
5.39187e-05
5.35098e-05
5.39655e-05
5.12315e-05
5.12154e-05
5.17126e-05
5.15421e-05
5.32679e-05
5.37693e-05
5.12249e-05
5.16201e-05
5.17578e-05
5.15235e-05
5.15607e-05
5.15976e-05
5.19878e-05
5.42509e-05
5.32952e-05
5.15841e-05
5.15567e-05
5.20166e-05
5.42753e-05
5.40144e-05
5.39267e-05
5.18112e-05
5.1659e-05
5.18827e-05
5.17584e-05
5.38289e-05
5.37553e-05
5.18261e-05
5.15016e-05
5.18571e-05
5.16704e-05
5.19671e-05
5.17676e-05
5.16263e-05
5.32981e-05
5.39258e-05
5.19856e-05
5.16747e-05
5.16081e-05
5.33233e-05
5.39194e-05
5.36897e-05
5.18727e-05
5.17612e-05
5.17935e-05
5.186e-05
5.37647e-05
5.38873e-05
5.18479e-05
5.188e-05
5.1813e-05
5.21085e-05
5.15952e-05
5.18084e-05
5.1786e-05
5.4113e-05
5.42e-05
5.15837e-05
5.20961e-05
5.18244e-05
5.40791e-05
5.37001e-05
5.39824e-05
5.17906e-05
5.19261e-05
5.19626e-05
5.20837e-05
5.39615e-05
5.40803e-05
5.18138e-05
5.21022e-05
5.1973e-05
5.19998e-05
5.20207e-05
5.21242e-05
5.22643e-05
5.41726e-05
5.38541e-05
5.20593e-05
5.20336e-05
5.22677e-05
5.42834e-05
5.40871e-05
5.42847e-05
5.2075e-05
5.21181e-05
5.23026e-05
5.22013e-05
5.41017e-05
5.41198e-05
5.20665e-05
5.19897e-05
5.2287e-05
5.20828e-05
5.22551e-05
5.21976e-05
5.21292e-05
5.38626e-05
5.40443e-05
5.22532e-05
5.20847e-05
5.21143e-05
5.39078e-05
5.43183e-05
5.43568e-05
5.23438e-05
5.22406e-05
5.2423e-05
5.23969e-05
5.41612e-05
5.43449e-05
5.23337e-05
5.21884e-05
5.24262e-05
5.24259e-05
5.21218e-05
5.23769e-05
5.22681e-05
5.41391e-05
5.43935e-05
5.21085e-05
5.24058e-05
5.22731e-05
5.42657e-05
5.43821e-05
5.44358e-05
5.24518e-05
5.24546e-05
5.25434e-05
5.259e-05
5.44021e-05
5.45067e-05
5.2456e-05
5.24811e-05
5.25432e-05
5.25773e-05
5.23912e-05
5.25969e-05
5.26392e-05
5.44373e-05
5.44817e-05
5.23954e-05
5.25855e-05
5.26393e-05
5.4588e-05
5.44691e-05
5.45353e-05
5.25757e-05
5.26151e-05
5.26576e-05
5.26351e-05
5.45267e-05
5.44833e-05
5.25743e-05
5.25963e-05
5.26571e-05
5.2647e-05
5.26665e-05
5.26441e-05
5.26544e-05
5.44986e-05
5.4517e-05
5.26655e-05
5.26562e-05
5.26536e-05
5.44651e-05
5.45587e-05
5.45919e-05
5.26785e-05
5.26481e-05
5.27303e-05
5.27672e-05
5.45041e-05
5.4654e-05
5.26795e-05
5.26681e-05
5.27304e-05
5.27273e-05
5.26501e-05
5.27639e-05
5.27321e-05
5.45416e-05
5.45833e-05
5.26498e-05
5.27239e-05
5.27325e-05
5.46374e-05
5.46234e-05
5.4648e-05
5.27585e-05
5.27916e-05
5.28098e-05
5.27788e-05
5.46832e-05
5.45489e-05
5.27548e-05
5.27485e-05
5.28098e-05
5.2812e-05
5.27867e-05
5.27829e-05
5.27991e-05
5.46117e-05
5.46517e-05
5.27849e-05
5.28178e-05
5.27979e-05
5.45737e-05
5.46527e-05
5.45745e-05
5.28069e-05
5.27692e-05
5.27905e-05
5.28249e-05
5.45548e-05
5.47158e-05
5.28084e-05
5.28211e-05
5.27963e-05
5.28214e-05
5.27846e-05
5.28221e-05
5.2823e-05
5.46673e-05
5.4629e-05
5.27864e-05
5.28216e-05
5.28317e-05
5.4719e-05
5.46293e-05
5.4872e-05
5.28087e-05
5.28846e-05
5.29619e-05
5.29185e-05
5.4779e-05
5.47103e-05
5.28123e-05
5.28293e-05
5.29589e-05
5.29289e-05
5.28897e-05
5.29252e-05
5.29249e-05
5.46588e-05
5.4785e-05
5.28934e-05
5.29336e-05
5.29214e-05
5.4698e-05
5.48791e-05
5.44813e-05
5.29616e-05
5.29099e-05
5.28304e-05
5.28693e-05
5.47108e-05
5.46404e-05
5.29594e-05
5.29342e-05
5.28351e-05
5.28725e-05
5.29062e-05
5.2866e-05
5.28702e-05
5.48021e-05
5.45925e-05
5.29037e-05
5.28707e-05
5.28739e-05
5.46604e-05
5.44851e-05
5.49033e-05
5.28104e-05
5.28672e-05
5.29297e-05
5.29132e-05
5.46662e-05
5.47572e-05
5.28135e-05
5.28554e-05
5.29262e-05
5.29218e-05
5.28727e-05
5.29236e-05
5.29295e-05
5.45986e-05
5.4838e-05
5.28762e-05
5.29366e-05
5.29293e-05
5.47579e-05
5.49872e-05
5.46103e-05
5.30059e-05
5.29527e-05
5.29696e-05
5.29612e-05
5.48019e-05
5.47331e-05
5.30039e-05
5.29676e-05
5.29683e-05
5.29215e-05
5.29445e-05
5.29579e-05
5.29368e-05
5.48906e-05
5.45739e-05
5.29445e-05
5.29165e-05
5.29368e-05
5.47013e-05
5.45468e-05
5.4566e-05
5.28657e-05
5.29234e-05
5.27867e-05
5.28097e-05
5.47096e-05
5.4544e-05
5.28641e-05
5.28546e-05
5.27888e-05
5.28389e-05
5.29112e-05
5.28189e-05
5.28492e-05
5.4551e-05
5.47003e-05
5.29103e-05
5.28473e-05
5.28492e-05
5.46241e-05
5.46877e-05
5.47492e-05
5.28248e-05
5.28156e-05
5.29022e-05
5.28902e-05
5.46067e-05
5.47563e-05
5.28306e-05
5.28812e-05
5.29035e-05
5.28708e-05
5.28499e-05
5.28904e-05
5.2854e-05
5.47753e-05
5.46234e-05
5.28506e-05
5.28695e-05
5.28529e-05
5.46619e-05
5.47515e-05
5.46416e-05
5.29018e-05
5.28976e-05
5.28629e-05
5.28615e-05
5.47711e-05
5.46175e-05
5.29003e-05
5.28463e-05
5.28578e-05
5.28387e-05
5.28619e-05
5.28598e-05
5.28745e-05
5.46243e-05
5.46862e-05
5.28584e-05
5.28436e-05
5.28751e-05
5.47389e-05
5.46281e-05
5.42826e-05
5.28175e-05
5.28049e-05
5.26285e-05
5.26523e-05
5.45953e-05
5.43436e-05
5.28202e-05
5.28323e-05
5.26333e-05
5.2653e-05
5.28597e-05
5.26593e-05
5.2638e-05
5.46971e-05
5.43104e-05
5.28633e-05
5.26548e-05
5.26357e-05
5.42694e-05
5.43294e-05
5.49231e-05
5.26389e-05
5.2664e-05
5.28532e-05
5.28271e-05
5.44099e-05
5.4846e-05
5.26418e-05
5.26507e-05
5.2846e-05
5.28075e-05
5.26385e-05
5.28251e-05
5.28094e-05
5.43298e-05
5.4825e-05
5.26324e-05
5.28044e-05
5.28012e-05
5.48275e-05
5.49197e-05
5.40815e-05
5.28538e-05
5.28236e-05
5.25077e-05
5.25278e-05
5.4829e-05
5.41611e-05
5.28479e-05
5.28191e-05
5.25171e-05
5.25801e-05
5.28179e-05
5.25287e-05
5.25815e-05
5.48366e-05
5.42225e-05
5.28153e-05
5.25954e-05
5.26028e-05
5.42477e-05
5.40836e-05
5.41257e-05
5.24412e-05
5.2479e-05
5.23085e-05
5.23273e-05
5.41775e-05
5.41204e-05
5.2447e-05
5.24864e-05
5.23062e-05
5.2276e-05
5.25047e-05
5.23367e-05
5.23033e-05
5.42161e-05
5.40094e-05
5.25162e-05
5.22766e-05
5.229e-05
5.40292e-05
5.40208e-05
5.14092e-05
5.14011e-05
5.39747e-05
5.14059e-05
5.13579e-05
4.18318e-05
4.1812e-05
4.18149e-05
5.13681e-05
5.38947e-05
5.1356e-05
3.73773e-05
3.73765e-05
3.7377e-05
3.7377e-05
3.73701e-05
3.73777e-05
3.73043e-05
3.73768e-05
3.73701e-05
3.73777e-05
3.73768e-05
3.73043e-05
3.73741e-05
3.72959e-05
3.72959e-05
3.58797e-05
4.08724e-05
3.66033e-05
4.51461e-05
5.51147e-05
6.48947e-05
3.58803e-05
4.08716e-05
3.66034e-05
4.5146e-05
3.58932e-05
3.58933e-05
3.58932e-05
3.44005e-05
3.44005e-05
3.44005e-05
3.44005e-05
3.52757e-05
3.56385e-05
3.58929e-05
3.53771e-05
3.60476e-05
3.42364e-05
3.53822e-05
5.51168e-05
6.48989e-05
3.52758e-05
3.58929e-05
3.56381e-05
3.53771e-05
3.60475e-05
3.53822e-05
3.42374e-05
3.65969e-05
3.65975e-05
3.5279e-05
3.40644e-05
3.40635e-05
3.39657e-05
5.13543e-05
3.46793e-05
5.46241e-05
7.65452e-05
8.08611e-05
3.39681e-05
5.13551e-05
3.46789e-05
5.46246e-05
3.39296e-05
3.39297e-05
3.39297e-05
3.25854e-05