/*--------------------------------*- C++ -*----------------------------------*\
| =========                 |                                                 |
| \\      /  F ield         | OpenFOAM: The Open Source CFD Toolbox           |
|  \\    /   O peration     | Version:  v1906                                 |
|   \\  /    A nd           | Web:      www.OpenFOAM.com                      |
|    \\/     M anipulation  |                                                 |
\*---------------------------------------------------------------------------*/
FoamFile
{
    version     2.0;
    format      ascii;
    class       volScalarField;
    location    "500";
    object      nut;
}
// * * * * * * * * * * * * * * * * * * * * * * * * * * * * * * * * * * * * * //

dimensions      [0 2 -1 0 0 0 0];


internalField   nonuniform List<scalar> 
171728
(
0.000137379
0.000139378
0.000139235
0.000137279
0.0001394
0.00013929
0.00013925
0.00013926
0.000137168
0.000139311
0.000139271
0.000137225
0.000123086
0.000123007
0.000123077
0.000122957
2.36148e-05
2.36142e-05
7.39392e-05
7.39323e-05
9.19096e-05
5.00212e-05
9.21384e-05
9.19202e-05
5.00219e-05
5.00087e-05
9.21312e-05
0.000120885
9.40404e-05
0.000134681
0.000133827
0.000121461
0.000120897
0.000138511
9.38818e-05
0.000134669
9.36611e-05
0.000133825
0.000121454
2.36133e-05
2.36097e-05
0.000136469
7.37273e-05
7.37078e-05
7.36863e-05
7.36643e-05
2.3614e-05
2.36101e-05
5.00196e-05
9.215e-05
9.40397e-05
0.000134707
0.000121486
5.00127e-05
9.2139e-05
0.00013473
9.38518e-05
0.000121477
0.000120891
0.000138524
9.38779e-05
0.000134666
9.36546e-05
0.000133812
0.000121472
9.19255e-05
5.00211e-05
5.00083e-05
9.21448e-05
0.000120879
0.000138404
0.000134643
9.40123e-05
0.000133757
9.36637e-05
0.000121481
9.1922e-05
5.00181e-05
5.00061e-05
9.21539e-05
2.36106e-05
7.36664e-05
7.37029e-05
2.36126e-05
0.000120915
0.00013473
9.38846e-05
0.000133871
0.000121497
0.000120901
0.000138416
0.000134672
9.40191e-05
0.000133783
9.36694e-05
0.000121507
9.19512e-05
5.00161e-05
9.2155e-05
9.19496e-05
5.00185e-05
5.00067e-05
9.21669e-05
0.00013627
7.38637e-05
7.38688e-05
7.37319e-05
7.37326e-05
2.36141e-05
2.36099e-05
2.36136e-05
2.36095e-05
2.36129e-05
2.36117e-05
9.76327e-05
0.000113053
7.38577e-05
4.79436e-05
4.79423e-05
0.000112907
9.75705e-05
9.76173e-05
0.00011308
7.38408e-05
4.79421e-05
4.79341e-05
0.00011288
9.76374e-05
7.91645e-05
2.1494e-05
2.1492e-05
2.14939e-05
2.14913e-05
7.91253e-05
3.62677e-05
4.05354e-05
8.8081e-05
9.20086e-05
3.62651e-05
4.05382e-05
8.81661e-05
2.01025e-05
5.00164e-05
7.6103e-05
7.60545e-05
2.01043e-05
3.62686e-05
9.20333e-05
4.05422e-05
8.828e-05
4.05393e-05
8.81893e-05
3.62712e-05
3.62695e-05
4.05356e-05
8.81087e-05
9.2012e-05
3.6267e-05
4.05384e-05
8.81702e-05
2.01033e-05
5.00163e-05
7.60878e-05
7.60373e-05
2.01049e-05
2.01034e-05
7.59903e-05
5.00138e-05
2.01019e-05
7.60262e-05
3.62704e-05
9.2034e-05
4.05424e-05
8.82648e-05
4.05395e-05
8.81933e-05
3.62729e-05
2.36114e-05
2.36112e-05
7.85651e-05
2.14853e-05
2.14878e-05
7.85605e-05
2.14868e-05
2.14893e-05
9.71933e-05
0.000112798
7.36967e-05
4.79389e-05
0.000112611
4.79314e-05
9.74189e-05
9.71742e-05
0.000112801
7.36676e-05
4.79466e-05
4.79389e-05
0.000112613
9.73994e-05
9.71289e-05
4.79241e-05
0.000112413
7.37035e-05
0.000112541
9.71035e-05
4.79285e-05
9.71107e-05
4.79315e-05
0.000112418
7.36741e-05
9.70861e-05
4.79358e-05
0.000112543
7.86143e-05
2.1493e-05
2.14956e-05
2.14881e-05
2.14906e-05
7.88357e-05
2.3612e-05
2.36117e-05
2.01037e-05
5.00142e-05
7.61221e-05
7.60788e-05
2.01054e-05
3.62702e-05
9.20611e-05
8.82939e-05
4.05418e-05
8.82168e-05
4.05389e-05
3.62727e-05
2.01018e-05
5.00076e-05
7.60517e-05
7.60084e-05
2.01034e-05
3.62676e-05
9.20569e-05
4.05416e-05
8.82583e-05
4.05387e-05
8.81899e-05
3.62702e-05
3.62704e-05
8.81174e-05
4.05352e-05
9.20263e-05
3.62678e-05
8.81866e-05
4.05382e-05
2.01042e-05
5.00157e-05
7.61e-05
7.60594e-05
2.01057e-05
2.01044e-05
7.60104e-05
5.00133e-05
2.01029e-05
7.60524e-05
3.62712e-05
9.2048e-05
8.8276e-05
4.05422e-05
8.82091e-05
4.05393e-05
3.62737e-05
3.62682e-05
4.05351e-05
8.81111e-05
9.20295e-05
3.62656e-05
4.05381e-05
8.81928e-05
2.01032e-05
5.00135e-05
7.60898e-05
7.60604e-05
2.01047e-05
2.01034e-05
7.60156e-05
5.00114e-05
2.01018e-05
7.60606e-05
3.6269e-05
9.20528e-05
4.05421e-05
8.82898e-05
4.05392e-05
8.82188e-05
3.62716e-05
2.36088e-05
9.70711e-05
0.000112605
7.36646e-05
4.79302e-05
0.000112513
4.79243e-05
9.71094e-05
9.7058e-05
0.00011264
7.37007e-05
4.79423e-05
4.79364e-05
0.000112542
9.70986e-05
7.85049e-05
2.14873e-05
2.14907e-05
2.14845e-05
2.14879e-05
7.85352e-05
2.3611e-05
3.62683e-05
8.81271e-05
4.05352e-05
9.20437e-05
3.62658e-05
8.81964e-05
4.05381e-05
2.01032e-05
5.00112e-05
7.6071e-05
7.60395e-05
2.01047e-05
2.01034e-05
7.60386e-05
3.62692e-05
9.20725e-05
8.82744e-05
4.05421e-05
8.82159e-05
4.05392e-05
3.62717e-05
3.62701e-05
8.81298e-05
4.05353e-05
9.20486e-05
3.62675e-05
8.82171e-05
4.05382e-05
2.0104e-05
5.00139e-05
7.6106e-05
7.60786e-05
2.01056e-05
2.01043e-05
7.60404e-05
5.00118e-05
2.01027e-05
7.60831e-05
3.62709e-05
9.20785e-05
8.83066e-05
4.05422e-05
8.82324e-05
4.05393e-05
3.62734e-05
7.887e-05
2.1492e-05
2.14891e-05
7.88713e-05
2.14931e-05
2.14902e-05
9.73406e-05
0.000112913
7.38159e-05
4.79492e-05
0.000112729
4.79444e-05
9.74172e-05
9.73615e-05
0.00011291
7.38193e-05
4.79403e-05
0.000112728
4.79356e-05
9.74358e-05
9.73398e-05
4.79365e-05
0.000112435
7.38093e-05
9.72183e-05
0.00011266
4.79423e-05
9.73592e-05
4.79276e-05
0.000112432
7.3812e-05
9.724e-05
0.000112656
4.79335e-05
7.88405e-05
2.14935e-05
2.14906e-05
2.14926e-05
2.14897e-05
7.88142e-05
2.36123e-05
2.36119e-05
2.36118e-05
2.36115e-05
0.000119963
0.000137179
0.000130356
0.000130387
0.000130235
0.000130224
0.000120085
0.00011959
0.000137082
0.000130192
0.000130192
0.000129997
0.000129997
0.000119894
0.000119364
0.000137022
0.000129977
0.000129986
0.00012984
0.000129848
0.000119515
0.000119676
0.000136999
0.000130193
0.000130197
0.000130013
0.000130017
0.000119886
0.000120793
0.0001208
0.000120527
0.000132416
0.000132179
0.00012236
0.000120781
0.000120778
0.000120502
0.000120498
0.000132402
0.000132175
0.000120806
0.000120802
0.000120526
0.000132402
0.00013217
0.000122271
0.000120743
0.000120751
0.000120469
0.000120477
0.000132393
0.000132154
0.000132519
0.000117199
0.000134325
0.000121118
0.000132361
0.000117417
0.000134509
0.000128729
0.00012251
9.38574e-05
0.00010793
0.000122359
0.000107699
0.000128909
0.000132886
0.000121222
0.000117742
0.000135066
0.000117512
0.000134879
0.000133051
0.000132546
0.000117231
0.000134334
0.000121126
0.000132393
0.000117425
0.000134517
0.000128707
0.000122342
9.37684e-05
0.000107833
0.00010765
0.00012221
0.000128857
0.000128444
0.000107453
0.000121898
9.37654e-05
0.000128291
0.000107628
0.000122016
0.000132896
0.000121225
0.000117704
0.000135066
0.000117505
0.000134884
0.000133046
0.000119448
0.000136662
0.000129552
0.000129553
0.000129717
0.000119297
0.000129717
0.000128745
0.000122515
9.38578e-05
0.000107942
0.000122361
0.000107718
0.000128924
0.000132911
0.000121251
0.000117764
0.000135094
0.00011754
0.000134908
0.000133074
0.000128738
0.00012229
9.37729e-05
0.000107824
0.000107667
0.000122195
0.000128873
0.000132933
0.000121254
0.000135097
0.000117714
0.000134918
0.000117531
0.000133076
0.000132539
0.000117231
0.000134311
0.000121132
0.000132381
0.000117436
0.0001345
0.000128713
0.000122347
9.37619e-05
0.00010785
0.000122214
0.000107666
0.000128866
0.000128446
0.00010746
0.0001219
9.37592e-05
0.00012829
0.000122018
0.000107644
0.000132896
0.000121235
0.000117722
0.000135066
0.000117519
0.000134878
0.00013305
0.000132492
0.000134292
0.000117206
0.000121129
0.000132321
0.000134484
0.00011744
0.000128719
0.000122448
9.38626e-05
0.000107925
0.000107712
0.000122301
0.0001289
0.000128388
0.000107445
0.000121858
9.38396e-05
0.000128201
0.000107677
0.000122022
0.00013288
0.000121237
0.000135063
0.000117759
0.000134871
0.000117535
0.000133051
0.000132583
0.000134341
0.000117265
0.000121163
0.000132426
0.000134531
0.000117472
0.000128756
0.000122319
9.38015e-05
0.000107857
0.000122221
0.000107699
0.000128894
0.000128508
0.000107688
0.000132934
0.000121262
0.000135095
0.00011774
0.00013491
0.00011755
0.000133082
0.00013251
0.000134312
0.000117228
0.000121158
0.000132338
0.000134506
0.000117464
0.00012873
0.000122453
9.38696e-05
0.000107939
0.000107728
0.000122305
0.00012891
0.000128398
0.000107462
0.00012186
9.38465e-05
0.00012821
0.000107694
0.000122026
0.000132899
0.000121262
0.000135087
0.00011778
0.000134895
0.000117559
0.000133069
0.000119616
0.000136507
0.000129486
0.00012949
0.00011937
0.000129684
0.000129688
0.000202165
0.000198044
0.000202187
0.000186396
0.000186875
0.000180518
0.000185126
0.000198095
0.000198376
0.00020244
0.000201092
0.000179201
0.00018386
0.000198043
0.000202243
0.000202863
0.00020061
0.000201061
0.000201616
0.000205441
0.000187033
0.000179561
0.000201263
0.00020096
0.000205728
0.000188583
0.000205201
0.000205388
9.98053e-05
5.07511e-05
5.07749e-05
9.87703e-05
2.38852e-05
2.38974e-05
0.000100732
5.07643e-05
5.07668e-05
0.000100606
0.000203574
0.000204061
0.000201798
0.00020702
0.000206282
0.000206775
0.000209194
0.000144758
0.000102244
0.000206662
0.000198539
0.000103954
0.00020791
0.000142699
2.38864e-05
2.38785e-05
0.000146917
0.000207536
0.000106177
0.000202198
0.000209857
0.000104752
0.000146112
7.94273e-05
7.99983e-05
0.000190116
8.03178e-05
8.06339e-05
7.89676e-05
7.87485e-05
2.38958e-05
2.39009e-05
2.38971e-05
2.38988e-05
7.77666e-05
7.82752e-05
0.000183142
7.84509e-05
7.87312e-05
2.39002e-05
2.39008e-05
2.38957e-05
2.38979e-05
0.000183916
7.89007e-05
7.87325e-05
7.86151e-05
7.87746e-05
9.97576e-05
5.07274e-05
5.07681e-05
9.86977e-05
0.000143564
0.00010299
0.000206869
0.000199629
0.000104052
0.000207795
0.000142157
0.000143394
0.000102038
0.000207248
0.00019863
0.000103607
0.000207575
0.000142082
0.000100059
5.07773e-05
5.07775e-05
0.000100742
0.000100038
5.07771e-05
5.07743e-05
0.000100756
0.000144044
0.00020116
0.000104857
0.000210408
0.000104286
0.000209071
0.000145501
0.000143924
0.000199633
0.000104883
0.000209991
0.000104033
0.000208666
0.000145489
7.70214e-05
7.72002e-05
0.000181205
7.82793e-05
7.8457e-05
2.38881e-05
2.38988e-05
2.38987e-05
2.3898e-05
0.000182191
7.89667e-05
7.91412e-05
7.85802e-05
7.87629e-05
2.3899e-05
2.38992e-05
0.000145677
0.000103928
0.000206453
0.000200079
0.000104567
0.000208569
0.000145025
0.000100755
5.07555e-05
5.07228e-05
0.000100799
0.000145836
0.000208122
0.000106
0.00020209
0.000209846
0.000104418
0.000145577
0.000100671
5.07574e-05
5.0765e-05
0.000100334
0.000145664
0.000201739
0.000104686
0.000211506
0.000104627
0.00021031
0.000145378
0.000100575
5.07107e-05
5.07154e-05
0.000100133
0.000145689
0.000201439
0.000211398
0.000102764
0.000210918
0.000103842
0.000145021
0.000100447
5.07366e-05
5.07729e-05
9.93034e-05
0.000145356
0.000206475
0.00010473
0.000203894
0.000208873
0.000106282
0.000143265
0.000100679
5.08012e-05
5.08095e-05
9.95391e-05
0.000145313
0.00020005
0.000105179
0.000211082
0.000104378
0.000209518
0.000146681
0.000100758
5.07778e-05
5.07781e-05
0.000101408
0.000145888
0.000205227
0.00021274
0.000106411
0.000211054
0.000106488
0.000147035
0.000100984
5.07617e-05
5.08039e-05
0.000101536
7.94626e-05
7.95823e-05
0.000183363
7.79863e-05
7.81445e-05
2.38904e-05
2.38813e-05
2.38803e-05
2.38766e-05
0.000182035
7.67336e-05
7.6904e-05
7.75315e-05
7.77027e-05
2.38818e-05
2.38791e-05
0.000147253
0.000206174
0.000105612
0.000204271
0.00020949
0.000106814
0.000145853
0.000101391
5.07701e-05
5.07327e-05
0.000101162
0.000101582
5.08199e-05
5.08056e-05
0.000101105
0.000146912
0.000201666
0.000212238
0.000103077
0.000211458
0.000104177
0.000146293
0.000147351
0.000205582
0.000213507
0.000106079
0.000212016
0.000106873
0.000147058
0.000101317
5.07156e-05
5.07237e-05
0.000100789
0.000101597
5.07435e-05
5.079e-05
0.000101133
2.39103e-05
2.39063e-05
2.39136e-05
2.39051e-05
0.000190277
7.95318e-05
7.93224e-05
8.03643e-05
8.06029e-05
2.38881e-05
2.3901e-05
2.38851e-05
2.38983e-05
0.000213758
0.000105803
0.00014707
5.07412e-05
0.00010153
0.000105308
5.07271e-05
2.38827e-05
2.38805e-05
3.67143e-05
4.10594e-05
9.46064e-05
9.9418e-05
4.10545e-05
9.4243e-05
3.67186e-05
2.03181e-05
5.0762e-05
7.86157e-05
7.89108e-05
2.03133e-05
2.03193e-05
7.94245e-05
5.07682e-05
7.91416e-05
2.0323e-05
3.67121e-05
9.91264e-05
4.10444e-05
9.35902e-05
4.10517e-05
9.39824e-05
3.67053e-05
2.38916e-05
2.38935e-05
3.67195e-05
9.52701e-05
4.1059e-05
0.000100728
9.52516e-05
4.10592e-05
3.67195e-05
2.03222e-05
5.07667e-05
7.95506e-05
7.96341e-05
2.03214e-05
2.03212e-05
7.96731e-05
5.07668e-05
7.96532e-05
2.03215e-05
3.672e-05
0.00010071
9.51033e-05
4.10597e-05
9.52229e-05
4.10599e-05
3.67194e-05
2.3884e-05
2.38794e-05
8.74301e-05
2.17421e-05
2.17392e-05
2.17528e-05
2.17507e-05
8.70429e-05
0.00011163
0.000133725
7.98591e-05
4.87789e-05
0.000134573
4.87712e-05
0.00011115
0.000111929
0.000134283
8.03615e-05
4.87831e-05
0.000135129
4.87728e-05
0.000111456
0.000111731
4.87283e-05
8.01461e-05
0.000135128
0.000134988
4.87493e-05
0.000111612
0.000112028
4.87227e-05
8.05501e-05
0.000135615
0.000135508
4.8747e-05
0.000111885
8.73797e-05
2.17694e-05
2.17682e-05
2.17654e-05
2.1764e-05
8.70432e-05
0.000103863
0.000130436
4.85958e-05
7.85401e-05
0.000105084
0.000129269
4.85817e-05
0.000103756
0.000130262
4.85804e-05
7.82974e-05
0.000105009
0.000129031
4.85663e-05
7.95067e-05
2.16713e-05
2.16657e-05
8.07307e-05
2.16647e-05
2.16594e-05
2.38987e-05
2.38993e-05
2.38985e-05
2.38983e-05
8.26454e-05
2.17247e-05
2.17218e-05
2.1725e-05
2.17227e-05
8.27503e-05
0.000106183
0.000128691
7.80174e-05
4.86898e-05
4.8696e-05
0.000129286
0.000105744
0.000106483
0.000129271
7.84812e-05
4.869e-05
4.86938e-05
0.000129865
0.000106051
0.000106442
4.86994e-05
7.82215e-05
0.000130141
4.8698e-05
0.000106699
0.000129691
0.000106726
4.86932e-05
7.86116e-05
0.000130599
4.86939e-05
0.000106933
0.00013024
8.24786e-05
2.17238e-05
2.17227e-05
2.17257e-05
2.17241e-05
8.21767e-05
2.39005e-05
2.39014e-05
2.38962e-05
2.38978e-05
8.27682e-05
2.1722e-05
2.1718e-05
8.27702e-05
2.1721e-05
2.17164e-05
0.000106938
0.000130926
7.88477e-05
4.86868e-05
4.86903e-05
0.000130812
0.000106966
0.000106998
0.000130953
7.87908e-05
4.86682e-05
4.86732e-05
0.00013094
0.000106946
0.000106917
4.86983e-05
0.00013041
7.87703e-05
0.000106805
4.86964e-05
0.000130686
0.000107062
4.86876e-05
0.000130768
7.88067e-05
0.000106994
4.86831e-05
0.000130906
8.26585e-05
2.1717e-05
2.17116e-05
2.17176e-05
2.17124e-05
8.26102e-05
3.67134e-05
4.10588e-05
9.45383e-05
9.93411e-05
4.10535e-05
9.41087e-05
3.67189e-05
2.03161e-05
5.07444e-05
7.83321e-05
7.87402e-05
2.03097e-05
2.03181e-05
7.9438e-05
5.07564e-05
7.90626e-05
2.03229e-05
3.67104e-05
9.90145e-05
4.10428e-05
9.33402e-05
4.10503e-05
9.37674e-05
3.67025e-05
3.67218e-05
4.10609e-05
9.48429e-05
0.000100371
3.67196e-05
4.10636e-05
9.51252e-05
2.03244e-05
5.07789e-05
7.99551e-05
2.0325e-05
7.98981e-05
2.03251e-05
7.96188e-05
5.07794e-05
2.03234e-05
7.98115e-05
3.67218e-05
0.000100558
4.10649e-05
9.54188e-05
3.67223e-05
4.1064e-05
9.52796e-05
3.67232e-05
4.10606e-05
9.4838e-05
0.000100369
3.67205e-05
4.10635e-05
9.51603e-05
2.0326e-05
5.07784e-05
8.01012e-05
8.00568e-05
2.03265e-05
2.03264e-05
7.97098e-05
5.07782e-05
2.0324e-05
7.99482e-05
3.67233e-05
0.000100569
4.10648e-05
9.54737e-05
4.10639e-05
9.53395e-05
3.67237e-05
8.32317e-05
2.17275e-05
2.17324e-05
2.17267e-05
2.17314e-05
8.35137e-05
0.000105842
0.000127157
7.74921e-05
4.86448e-05
4.86618e-05
0.000128088
0.000105009
0.000105927
0.000127306
7.76623e-05
4.86588e-05
0.000128283
4.86758e-05
0.000105073
0.000106444
4.86786e-05
7.78865e-05
0.000129599
4.86716e-05
0.000128853
0.00010689
0.00010656
4.86922e-05
7.80606e-05
0.000129851
0.000129081
4.86854e-05
0.000107019
8.2723e-05
2.17175e-05
2.17217e-05
2.17248e-05
2.17295e-05
8.19933e-05
2.3894e-05
2.38955e-05
2.38987e-05
2.38993e-05
8.35427e-05
2.17252e-05
2.173e-05
8.35844e-05
2.17221e-05
2.17268e-05
0.000107001
0.000130574
7.89294e-05
4.86656e-05
0.000130567
4.86734e-05
0.00010677
0.000107165
0.000130853
7.91073e-05
4.86773e-05
4.86858e-05
0.000130844
0.000106932
0.000107103
4.86798e-05
0.000130097
7.88152e-05
0.000130458
0.000107068
4.86794e-05
0.000107254
4.86932e-05
0.000130364
7.90004e-05
0.000107213
4.86926e-05
0.000130734
8.32222e-05
2.1709e-05
2.17124e-05
2.17136e-05
2.17177e-05
8.26566e-05
2.38994e-05
2.39002e-05
3.67104e-05
4.1056e-05
9.5189e-05
0.000100813
4.10566e-05
9.53488e-05
3.67096e-05
2.03181e-05
5.07435e-05
8.0128e-05
7.99128e-05
2.0319e-05
2.03151e-05
7.94655e-05
5.07304e-05
7.9653e-05
2.03149e-05
3.67138e-05
0.000100834
4.10592e-05
9.55938e-05
4.10586e-05
9.55503e-05
3.67151e-05
3.67184e-05
9.52392e-05
4.10578e-05
0.000100598
3.67186e-05
9.51932e-05
4.10577e-05
2.03188e-05
5.07593e-05
7.94486e-05
2.03189e-05
7.95094e-05
2.03202e-05
7.96522e-05
5.07634e-05
2.03202e-05
7.96201e-05
3.67173e-05
0.000100422
9.49762e-05
4.10572e-05
3.67174e-05
9.50526e-05
4.1057e-05
3.67079e-05
4.10545e-05
9.49206e-05
0.000100453
3.67078e-05
4.10544e-05
9.47723e-05
2.03117e-05
5.07102e-05
7.86862e-05
7.88166e-05
2.03126e-05
2.0313e-05
7.92158e-05
5.07122e-05
2.03128e-05
7.90352e-05
3.67074e-05
0.000100239
4.10545e-05
9.44141e-05
4.10539e-05
9.4542e-05
3.67084e-05
3.67194e-05
9.50813e-05
4.10636e-05
0.000100032
9.46352e-05
4.10609e-05
3.67231e-05
2.0321e-05
5.0752e-05
7.86215e-05
7.90275e-05
2.03156e-05
2.03226e-05
7.97704e-05
5.07625e-05
7.93717e-05
2.03269e-05
3.67176e-05
9.97251e-05
9.38311e-05
4.10551e-05
9.42878e-05
4.10596e-05
3.67118e-05
3.6725e-05
4.10656e-05
9.56879e-05
0.000100268
4.10639e-05
9.52552e-05
3.67263e-05
2.03262e-05
5.08077e-05
7.93486e-05
7.98127e-05
2.03216e-05
2.03275e-05
8.05783e-05
5.08095e-05
8.02008e-05
2.03304e-05
3.67244e-05
9.9956e-05
4.10596e-05
9.44352e-05
4.10631e-05
9.48907e-05
3.67213e-05
3.67253e-05
9.54159e-05
4.1064e-05
0.000101092
3.67239e-05
9.575e-05
4.10647e-05
2.03284e-05
5.07806e-05
8.04488e-05
8.04168e-05
2.03283e-05
2.03293e-05
8.00678e-05
5.0781e-05
2.03276e-05
8.03158e-05
3.67248e-05
0.000101284
9.60228e-05
4.10634e-05
9.59269e-05
4.1064e-05
3.67243e-05
3.67251e-05
4.10655e-05
9.59876e-05
0.000101289
3.67257e-05
4.10655e-05
9.62329e-05
2.03282e-05
5.07763e-05
8.08442e-05
8.09306e-05
2.03266e-05
2.03304e-05
8.08039e-05
5.07935e-05
2.03301e-05
8.09222e-05
3.67219e-05
0.00010145
4.10626e-05
9.63378e-05
4.10639e-05
9.63202e-05
3.67199e-05
8.00762e-05
2.16642e-05
2.16702e-05
2.16662e-05
2.16723e-05
7.92707e-05
0.000105495
0.000132052
7.89481e-05
4.86218e-05
4.86009e-05
0.000130707
0.000106783
0.000105559
0.000132185
7.90778e-05
4.86383e-05
0.000130871
4.86174e-05
0.000106828
0.000104234
4.85742e-05
7.84245e-05
0.000128228
4.85832e-05
0.000129317
0.000103269
0.000104337
4.85907e-05
7.85649e-05
0.000128446
0.000129512
4.85998e-05
0.000103386
8.11385e-05
2.16824e-05
2.16885e-05
2.16742e-05
2.16805e-05
8.22906e-05
2.38876e-05
2.38825e-05
2.38773e-05
2.38771e-05
7.83987e-05
2.16635e-05
2.16692e-05
7.86867e-05
2.16671e-05
2.16724e-05
0.000101789
0.000125786
7.68859e-05
4.85929e-05
0.000125991
4.85757e-05
0.000101769
0.000101949
0.000126048
7.7067e-05
4.86083e-05
4.85917e-05
0.000126252
0.000101931
0.000102018
4.85696e-05
0.000127206
7.71851e-05
0.000126512
0.00010247
4.85703e-05
0.000102168
4.85861e-05
0.000127444
7.73682e-05
0.000102615
4.85866e-05
0.000126765
7.82842e-05
2.16819e-05
2.16859e-05
2.16714e-05
2.16762e-05
7.83449e-05
2.38793e-05
2.38793e-05
3.6717e-05
9.57586e-05
4.10624e-05
0.000101365
9.58497e-05
4.10641e-05
3.67153e-05
2.03241e-05
5.07568e-05
8.03847e-05
8.02089e-05
2.03254e-05
2.03204e-05
7.97921e-05
5.07418e-05
7.99571e-05
2.03197e-05
3.67216e-05
0.000101318
9.58707e-05
4.107e-05
9.59027e-05
4.10683e-05
3.67235e-05
3.67305e-05
9.63783e-05
4.10668e-05
0.000101499
9.62685e-05
4.10688e-05
3.67285e-05
2.03311e-05
5.08197e-05
8.03829e-05
8.06519e-05
2.03307e-05
2.03294e-05
8.08646e-05
5.08139e-05
8.07755e-05
2.03288e-05
3.67342e-05
0.000101367
9.58083e-05
4.10738e-05
9.61133e-05
4.10726e-05
3.6735e-05
3.67109e-05
9.55115e-05
4.10583e-05
0.000101213
3.67116e-05
9.53774e-05
4.10569e-05
2.03145e-05
5.0716e-05
7.90279e-05
7.91733e-05
2.03145e-05
2.03166e-05
7.95561e-05
5.07194e-05
2.0317e-05
7.94008e-05
3.67093e-05
0.000100947
9.49642e-05
4.10533e-05
9.51029e-05
4.10538e-05
3.67096e-05
3.67213e-05
9.63971e-05
4.10623e-05
0.000101555
3.67236e-05
9.63579e-05
4.10604e-05
2.03198e-05
5.07576e-05
8.01691e-05
8.04387e-05
2.03187e-05
2.03243e-05
8.08606e-05
5.0777e-05
2.03256e-05
8.07643e-05
3.67155e-05
0.000101333
9.58452e-05
4.10544e-05
9.61025e-05
4.10559e-05
3.67135e-05
2.39105e-05
2.39082e-05
2.39124e-05
2.39077e-05
8.4836e-05
2.1724e-05
2.17201e-05
8.59589e-05
2.17127e-05
2.17078e-05
0.000107968
0.000131989
7.99816e-05
4.86184e-05
0.000106596
0.000133272
4.86413e-05
0.000107999
0.000131897
7.9791e-05
4.8603e-05
0.000106572
0.00013329
4.86266e-05
0.000109491
4.8698e-05
0.000135041
8.03172e-05
0.000110853
0.000134587
4.86716e-05
0.000109597
4.86886e-05
0.00013547
8.03279e-05
0.000111045
0.000134831
4.86586e-05
8.3537e-05
2.16847e-05
2.1679e-05
8.2187e-05
2.16958e-05
2.16905e-05
2.38909e-05
2.38981e-05
2.38874e-05
2.38947e-05
2.0319e-05
8.04525e-05
5.07281e-05
2.0321e-05
8.00799e-05
3.67125e-05
0.000101465
4.10591e-05
9.62448e-05
3.67148e-05
4.10575e-05
9.60034e-05
5.07174e-05
2.38814e-05
2.38795e-05
0.00019869
0.000197847
0.00020374
0.000199686
0.000199206
0.000189303
0.000188458
0.000146907
0.000167988
0.000168228
0.000188129
0.00016934
0.000169605
0.000146075
0.000137467
0.000164715
0.000164663
0.000185308
0.000139069
0.000163131
0.000163041
0.000139593
0.000161339
0.000161558
0.000181349
0.000162141
0.000162404
0.000138883
0.000140968
0.000184792
0.000164769
0.00016483
0.000164546
0.000164651
0.000141057
0.000138302
0.000159374
0.000159381
0.00017974
0.000160359
0.000160303
0.000137195
0.00014051
0.000183533
0.000163825
0.000163999
0.000163713
0.000163886
0.000140428
0.000139763
0.000166731
0.000166767
0.000186284
0.000165053
0.000164983
0.000141558
0.00013421
0.000180047
0.00015822
0.000158369
0.000158521
0.00015867
0.000134115
0.000143107
0.000189688
0.000166799
0.000166808
0.000141206
0.00016853
0.0001686
0.000199593
0.000199064
0.000204072
0.000200209
0.00019996
0.000189871
0.000189075
0.000198126
0.000197605
0.000205383
0.00019964
0.000199272
0.000188723
0.000187928
0.000197385
0.00019641
0.000204961
0.000199162
0.000198514
0.000188497
0.000187703
0.000205441
0.00020229
0.000202385
0.000200923
0.000200791
0.00019035
0.000191578
0.000205075
0.000202198
0.000202416
0.000201094
0.000201119
0.000190752
0.000191777
0.000206253
0.000202578
0.000202571
0.000201189
0.000201013
0.000189878
0.000191265
0.000207512
0.000203001
0.000202817
0.000201141
0.000200772
0.00018967
0.000191125
0.000170123
0.000138022
0.000176356
0.000144003
0.000137214
0.00017571
0.00017079
0.000158755
0.000145224
0.000102845
0.000121042
0.000145879
0.000121767
0.000158289
0.000159466
0.000123166
0.000103357
0.000147588
0.000146751
0.000122378
0.000160224
0.00016936
0.000143441
0.000135872
0.000174322
0.000136613
0.00017486
0.000168887
0.000174208
0.000179449
0.000140166
0.000146796
0.000179104
0.000140244
0.000174322
0.000164248
0.000151465
0.000105881
0.000125618
0.00015103
0.000125582
0.000164142
0.000164053
0.000124817
0.000105233
0.000149139
0.000150081
0.000125241
0.000163647
0.000173925
0.000146594
0.000177574
0.000140088
0.000178356
0.000140248
0.000173502
0.000147161
0.00018935
0.000170312
0.000170561
0.000169991
0.000170252
0.000147158
0.00014004
0.000182459
0.000163479
0.000163742
0.000140494
0.000162858
0.000163133
0.000140923
0.00018441
0.000163939
0.00016416
0.000140701
0.000164345
0.000164515
0.00016993
0.000137455
0.0001751
0.000142871
0.000136787
0.000174658
0.000170444
0.000159412
0.000146512
0.000103397
0.000121529
0.000122113
0.000147054
0.000158917
0.000160134
0.000123068
0.000103679
0.000148176
0.000122501
0.000147656
0.000160662
0.000169315
0.000142457
0.000135824
0.00017409
0.000136355
0.000174255
0.000169003
0.000169228
0.000137037
0.000174847
0.000142665
0.000136243
0.000174425
0.000169733
0.000158451
0.000145169
0.00010248
0.000120731
0.000121175
0.000145591
0.000158219
0.000158878
0.000122553
0.000103002
0.000147127
0.000121763
0.000159498
0.000146346
0.000168921
0.000142272
0.000135476
0.000174096
0.000135763
0.000174168
0.000168822
0.000171707
0.000137881
0.00017585
0.00014467
0.000171211
0.000138442
0.000176374
0.000162348
0.000149622
0.000104711
0.000124307
0.000149376
0.000124069
0.000162665
0.000161827
0.000123412
0.00014866
0.00010457
0.000149069
0.000161361
0.000123854
0.000172392
0.00014506
0.000139109
0.000177591
0.000138754
0.000177157
0.000172766
0.000171154
0.000137609
0.000175596
0.000144595
0.000170558
0.000138295
0.00017615
0.000161874
0.000149251
0.00010471
0.000124378
0.000124089
0.00014897
0.000162324
0.000161122
0.000123119
0.000147882
0.00010447
0.000160424
0.000123736
0.000148493
0.000172035
0.000145025
0.000139119
0.000177462
0.00013871
0.000176997
0.000172485
0.000139167
0.000180508
0.000162132
0.000162256
0.000161371
0.00016128
0.000139912
0.000140556
0.000182791
0.000162884
0.000163033
0.000163408
0.000140335
0.000163576
0.000172252
0.000138984
0.000177945
0.000145566
0.000138799
0.000177676
0.000172571
0.000161029
0.000147515
0.000104228
0.000123182
0.000123568
0.000148118
0.000160475
0.000161696
0.000123942
0.000104384
0.00014905
0.00012373
0.000148645
0.000162066
0.000171499
0.000145418
0.000138195
0.000176434
0.000138624
0.000176967
0.000170963
0.00017359
0.000178353
0.000139355
0.00014584
0.000178205
0.000139565
0.000173562
0.000163942
0.000151383
0.000105577
0.000125327
0.000125207
0.000150762
0.000163929
0.000163596
0.000124229
0.000104903
0.000148743
0.000124695
0.000163048
0.000149718
0.000173498
0.000145812
0.0001773
0.000139669
0.000177737
0.000139696
0.000173264
0.000173104
0.000139003
0.00017824
0.000145639
0.000172921
0.000139031
0.000178354
0.000162749
0.000149701
0.000104689
0.000124011
0.000149617
0.000124024
0.000162873
0.000162636
0.000123984
0.000149334
0.000104694
0.000149544
0.000162426
0.000124049
0.000173227
0.000145488
0.00013892
0.000178404
0.000138972
0.00017839
0.000173335
0.000172961
0.000178413
0.000138884
0.000145538
0.0001733
0.000178398
0.000138579
0.000161096
0.00014599
0.000103014
0.000122324
0.000122622
0.000146399
0.00016056
0.000161668
0.000123563
0.000147804
0.000103457
0.000162418
0.000123164
0.000147065
0.000172603
0.000145202
0.000178044
0.000137832
0.000178227
0.000138083
0.00017219
0.000172603
0.000177256
0.000139688
0.000144618
0.000176567
0.000138948
0.000173337
0.000162645
0.0001501
0.000105387
0.000123404
0.000151223
0.00012426
0.000161517
0.000163638
0.000125581
0.000105849
0.000152544
0.000151961
0.000124902
0.000164459
0.000171465
0.000144036
0.00017483
0.000137472
0.000175536
0.000138315
0.000170607
0.000172383
0.000138606
0.000177276
0.000145947
0.000171757
0.000139268
0.000177871
0.000162601
0.000149698
0.000105031
0.000124905
0.000163023
0.000149436
0.000124662
0.000161915
0.000123729
0.00014836
0.000104806
0.000161202
0.000148987
0.000124332
0.000173196
0.000146341
0.000139986
0.000179037
0.000173599
0.000139659
0.000178633
0.000174676
0.000178168
0.000140187
0.000146462
0.00017418
0.000178731
0.000140654
0.000165476
0.000152117
0.000106573
0.000126325
0.000126339
0.000152619
0.000165545
0.0001654
0.000125987
0.000152712
0.000106595
0.000164996
0.000126283
0.000152798
0.000175097
0.00014679
0.000179714
0.000140937
0.000179375
0.000140848
0.00017534
0.000137962
0.00018489
0.00016165
0.00016176
0.000163221
0.000163124
0.000136596
0.000134664
0.000180962
0.000160221
0.00016035
0.000159291
0.000135398
0.000159428
0.000174462
0.000179673
0.000141115
0.000146945
0.000179089
0.000140736
0.000175116
0.000164028
0.000150988
0.000106214
0.000124875
0.000152165
0.000125633
0.000162788
0.000164942
0.000126461
0.000106556
0.000153324
0.000152846
0.000126089
0.000165641
0.000173342
0.000146548
0.000177034
0.000139495
0.000178044
0.000140267
0.000172274
0.00017401
0.000179669
0.000139826
0.000146841
0.00017424
0.000179771
0.000139567
0.000161777
0.000146406
0.000103341
0.000122871
0.000161185
0.000146832
0.00012318
0.000162343
0.000124148
0.000148227
0.000103793
0.000163085
0.000147493
0.000123761
0.00017366
0.000146534
0.000179518
0.000138735
0.000173191
0.000179706
0.000139019
0.000175911
0.000180139
0.00014125
0.000147394
0.000175611
0.000180384
0.000141309
0.000166087
0.000152068
0.00010658
0.000126051
0.000126455
0.000152991
0.000165821
0.000166178
0.000126572
0.000153395
0.000106871
0.000165933
0.000126623
0.000153396
0.000175958
0.000147272
0.000180428
0.000140934
0.00018044
0.000141197
0.000175918
0.00014533
0.000190339
0.00017024
0.000170473
0.000146703
0.000169884
0.000170069
0.000164699
0.000151099
0.000125996
0.000105273
0.000150152
0.000165244
0.000125471
0.000175313
0.000147052
0.000179946
0.000140871
0.000180053
0.000175363
0.000140664
0.000150835
0.000104795
0.000149769
0.000123744
0.000140059
0.000139997
0.000137694
0.000126368
0.000143505
0.000143391
0.000140462
0.000129701
0.000146236
0.000146259
0.000142606
0.000132798
0.000149237
0.000149616
0.000144131
0.000135801
0.000152885
0.000152271
0.000148071
0.000139142
0.000154839
0.000155417
0.000149025
0.000142704
0.000158378
0.000157715
0.000151416
0.000145981
0.000161208
0.000161517
0.000153943
0.000149769
0.00016375
0.000164673
0.000155203
0.000152568
0.000165924
0.000165036
0.000157654
0.000157162
0.00016962
0.000169661
0.00015985
0.000160394
0.000171614
0.000170964
0.000160925
0.000163132
0.000174764
0.000175951
0.000165702
0.00016817
0.000174511
0.000174016
0.000161874
0.000169393
0.000181872
0.000182036
0.000167638
0.000175256
0.000179453
0.000179981
0.000169674
0.000177837
0.00018545
0.000179181
0.000171594
0.000177619
0.000183093
0.00019361
0.000168113
0.000188841
0.00019187
0.000182014
0.000162933
0.000183923
0.000187881
0.000186762
0.00019846
0.000190241
0.000183402
0.000202421
0.000165881
0.000194404
0.000203346
0.000177342
0.000153609
0.000196095
0.00019018
0.000210066
0.00020548