/*--------------------------------*- C++ -*----------------------------------*\
| =========                 |                                                 |
| \\      /  F ield         | OpenFOAM: The Open Source CFD Toolbox           |
|  \\    /   O peration     | Version:  v1906                                 |
|   \\  /    A nd           | Web:      www.OpenFOAM.com                      |
|    \\/     M anipulation  |                                                 |
\*---------------------------------------------------------------------------*/
FoamFile
{
    version     2.0;
    format      ascii;
    class       volScalarField;
    location    "500";
    object      nut;
}
// * * * * * * * * * * * * * * * * * * * * * * * * * * * * * * * * * * * * * //

dimensions      [0 2 -1 0 0 0 0];


internalField   nonuniform List<scalar> 
171728
(
0.000233973
0.000233116
0.000233116
0.000233423
0.000232532
0.000227802
0.000227801
0.000223867
0.000230516
0.00022032
0.000220318
0.000209109
0.000227799
0.000211665
0.000211661
0.000193785
0.000224433
0.00020265
0.000202644
0.000179709
0.000220552
0.000193772
0.000193765
0.00016734
0.000216304
0.000185275
0.000185268
0.000156587
0.00021182
0.000177234
0.000177225
0.000147206
0.000207207
0.000169688
0.00016968
0.00013895
0.000202545
0.00016261
0.000162603
0.000131613
0.000197889
0.000155949
0.00015594
0.000124954
0.000193275
0.000149645
0.000149635
0.000118808
0.000188681
0.000143664
0.000143649
0.000113156
0.000184146
0.000137942
0.000137931
0.000107896
0.000179702
0.000132447
0.000132419
0.000102954
0.00017534
0.000127132
0.000127163
9.82563e-05
0.000170993
0.000121964
0.000121926
9.37571e-05
0.0001667
0.000116873
0.000116726
8.90638e-05
0.000162462
0.000112262
0.000112771
8.71193e-05
0.000158372
0.000108058
0.000107583
8.24042e-05
0.000155156
0.000105755
0.000107967
9.73887e-05
0.000150751
0.000107292
0.000104188
8.21745e-05
0.000145916
9.88388e-05
9.85847e-05
8.35427e-05
0.00014224
9.66e-05
9.64293e-05
8.32797e-05
0.000137882
9.64231e-05
9.74058e-05
8.86856e-05
0.000134281
9.32522e-05
9.11112e-05
7.99545e-05
0.000131239
8.87949e-05
9.67292e-05
7.55754e-05
0.000125275
9.0004e-05
9.16218e-05
9.81671e-05
0.000123867
9.61834e-05
8.57043e-05
7.90465e-05
0.000119851
8.80535e-05
9.59117e-05
8.71013e-05
0.000119279
0.000101577
9.204e-05
0.000110622
0.000117384
9.25334e-05
8.94485e-05
7.77543e-05
0.000112662
9.40481e-05
0.000105178
0.000103553
0.000109564
9.75847e-05
9.82868e-05
9.86709e-05
0.000110824
0.000106394
0.000102479
0.000111851
0.000109322
0.000106498
0.000103024
0.000103083
0.000112138
0.000105077
0.00010531
0.000111485
0.000108218
0.000107953
0.000109816
0.000113215
0.000108922
0.000111862
0.000112509
0.000112815
0.000109504
0.000114748
0.000114971
0.000116154
0.000109627
0.000117675
0.000117581
0.00012
0.000111818
0.000121181
0.000120736
0.000121971
0.000112791
0.00012413
0.000124138
0.000124558
0.000114417
0.000127401
0.000127577
0.000127912
0.000116202
0.000130687
0.000130456
0.000130257
0.000118558
0.000133712
0.000133749
0.000133018
0.000121099
0.00013696
0.000137133
0.000134781
0.000123743
0.00014007
0.000139952
0.000137786
0.000126379
0.000143501
0.000143458
0.000140424
0.000129705
0.000146215
0.000146199
0.000142522
0.000132775
0.000149279
0.000149616
0.000144344
0.000135851
0.000152856
0.000152356
0.000147746
0.000139104
0.000154829
0.000155301
0.00014925
0.000142714
0.000158419
0.000157823
0.000151315
0.000145982
0.000161143
0.000161386
0.000153905
0.00014977
0.000163805
0.000164748
0.000155484
0.000152552
0.000165901
0.000165141
0.000157202
0.00015717
0.000169622
0.000169487
0.000160116
0.000160398
0.000171633
0.000171041
0.000160854
0.000163113
0.000174739
0.000175956
0.000165905
0.000168219
0.000174525
0.000173967
0.000161581
0.000169352
0.000181907
0.000182077
0.000167786
0.000175271
0.000179355
0.000179958
0.000169868
0.000177849
0.000185642
0.00017914
0.000171357
0.000177643
0.000183015
0.00019377
0.000167959
0.000188719
0.000191813
0.00018189
0.000163358
0.000183902
0.000187847
0.000186738
0.000198279
0.000190411
0.000183499
0.00020258
0.000165556
0.000194305
0.000203402
0.000177189
0.000153927
0.000196008
0.000189987
0.000210217
0.000205559
0.000200943
0.000194445
0.000195335
0.000174773
0.000200081
0.000199634
0.000190036
0.000167353
0.000202199
0.000198168
0.000202248
0.000186645
0.000208303
0.000202405
0.000200188
0.000186258
0.000210804
0.000202091
0.000202956
0.000178663
0.00021083
0.000203028
0.000204979
0.000186255
0.000212836
0.000204849
0.000203696
0.000185972
0.000215803
0.00020483
0.000204418
0.000182687
0.00021775
0.000206548
0.000206775
0.00018584
0.000219689
0.000208091
0.00020795
0.000187699
0.000221452
0.00020828
0.000208455
0.000186452
0.000223164
0.000209725
0.000209279
0.00018834
0.000224509
0.000209466
0.000209981
0.000187144
0.000225683
0.000210895
0.000210322
0.000189281
0.000227797
0.000211345
0.000211563
0.000188474
0.000227901
0.000211069
0.000210996
0.000188673
0.000229968
0.000212658
0.000212782
0.00018977
0.000230688
0.00021254
0.000211893
0.000189257
0.000230958
0.000212118
0.000212779
0.000189104
0.000232811
0.000213727
0.000213175
0.000190114
0.000233204
0.000213086
0.000213516
0.000190328
0.000233139
0.000212738
0.000212244
0.000187648
0.000235197
0.00021491
0.000215009
0.000192469
0.000234408
0.000212401
0.000212542
0.000188418
0.000236162
0.000213682
0.000213125
0.000190137
0.000234266
0.000234448
0.000234449
0.000234267
0.000234448
0.000234449
0.000234274
0.000234274
0.000234274
0.000234274
0.000234448
0.000234448
0.000234266
0.000234448
0.000234448
0.000234266
0.000233423
0.000226204
0.000233116
0.000233114
0.000229361
0.000229357
0.000233423
0.000226205
0.000233114
0.000233114
0.000229359
0.000229356
0.000233116
0.000229364
0.000229361
0.000233423
0.000226202
0.000233114
0.000229363
0.000229359
0.000226202
0.000223867
0.00021223
0.000227799
0.000227794
0.000222332
0.000222326
0.000223868
0.000212234
0.000227797
0.000227792
0.000222332
0.000222323
0.000227798
0.000222339
0.000222331
0.000223866
0.000212227
0.000227797
0.000222336
0.000222331
0.000212228
0.000209111
0.00019706
0.000220313
0.000220307
0.000213879
0.000213874
0.000209112
0.000197066
0.000220314
0.000220304
0.000213883
0.000213869
0.000220311
0.00021389
0.000213877
0.000209108
0.000197056
0.000220313
0.000213886
0.000213882
0.000197057
0.000193788
0.000182876
0.000211654
0.000211648
0.00020489
0.000204884
0.000193792
0.000182882
0.000211658
0.000211643
0.000204898
0.000204879
0.000211651
0.000204905
0.000204887
0.000193785
0.000182872
0.000211657
0.000204899
0.000204896
0.000182872
0.000179713
0.000170268
0.000202634
0.000202628
0.000195942
0.000195938
0.000179717
0.000170274
0.000202643
0.000202623
0.000195954
0.000195931
0.000202631
0.000195962
0.00019594
0.000179708
0.000170264
0.000202641
0.000195955
0.000195953
0.000170264
0.000167344
0.000159242
0.000193753
0.000193747
0.000187336
0.000187331
0.000167349
0.00015925
0.000193765
0.000193741
0.000187351
0.000187324
0.00019375
0.000187359
0.000187334
0.000167339
0.000159238
0.000193764
0.000187351
0.00018735
0.000159238
0.000156592
0.000149613
0.000185253
0.000185247
0.000179172
0.000179168
0.000156597
0.00014962
0.000185268
0.00018524
0.000179191
0.00017916
0.000185249
0.000179198
0.00017917
0.000156587
0.000149608
0.000185267
0.00017919
0.00017919
0.000149608
0.00014721
0.000141106
0.000177208
0.000177203
0.000171501
0.000171496
0.000147217
0.000141113
0.000177227
0.000177195
0.000171521
0.000171488
0.000177205
0.000171529
0.000171498
0.000147207
0.000141101
0.000177225
0.00017152
0.000171521
0.0001411
0.000138957
0.000133546
0.000169659
0.000169655
0.000164309
0.000164304
0.00013896
0.000133554
0.000169681
0.000169647
0.000164333
0.000164297
0.000169657
0.000164339
0.000164308
0.000138949
0.00013354
0.00016968
0.000164331
0.000164332
0.00013354
0.000131621
0.000126684
0.00016258
0.000162575
0.000157546
0.000157541
0.000131627
0.00012669
0.000162604
0.000162567
0.000157571
0.000157533
0.000162578
0.000157579
0.000157545
0.000131615
0.000126677
0.000162603
0.00015757
0.000157572
0.000126676
0.000124959
0.000120357
0.000155915
0.000155911
0.000151155
0.000151151
0.000124962
0.000120366
0.000155941
0.000155903
0.000151182
0.000151144
0.000155913
0.00015119
0.000151155
0.00012495
0.000120358
0.00015594
0.000151183
0.000151184
0.000120353
0.000118815
0.000114422
0.000149609
0.000149606
0.000145096
0.000145091
0.000118827
0.00011442
0.000149636
0.000149595
0.000145124
0.000145084
0.000149608
0.000145131
0.000145097
0.000118818
0.00011442
0.000149636
0.000145124
0.000145125
0.000114413
0.00011316
0.000108808
0.000143623
0.000143625
0.000139313
0.000139304
0.000113174
0.000108795
0.000143651
0.00014361
0.000139344
0.000139299
0.000143626
0.000139348
0.00013931
0.000113166
0.000108807
0.000143654
0.000139345
0.000139345
0.000108808
0.000107893
0.000103622
0.000137895
0.000137896
0.000133761
0.000133746
0.000107909
0.000103611
0.000137927
0.000137885
0.000133783
0.000133749
0.000137893
0.000133798
0.00013376
0.000107914
0.000103613
0.000137927
0.000133792
0.000133786
0.000103614
0.000102956
9.89649e-05
0.000132398
0.000132401
0.0001284
0.000128409
0.000102954
9.89079e-05
0.000132414
0.000132376
0.000128439
0.000128378
0.000132393
0.000128442
0.000128422
0.00010295
9.89267e-05
0.000132409
0.000128428
0.000128447
9.89791e-05
9.82019e-05
9.44314e-05
0.00012709
0.000127093
0.000123158
0.0001231
9.81678e-05
9.43061e-05
0.000127124
0.000127101
0.000123188
0.000123195
0.000127097
0.000123167
0.000123255
9.82033e-05
9.44077e-05
0.00012713
0.000123254
0.000123298
9.45657e-05
9.35945e-05
9.03395e-05
0.000121892
0.000121895
0.000118123
0.000118035
9.34236e-05
9.00776e-05
0.000121937
0.000121915
0.000118202
0.000118007
0.000121895
0.00011805
0.000118132
9.35756e-05
8.9879e-05
0.000121925
0.000118013
0.000118075
8.99349e-05
8.94233e-05
8.68578e-05
0.000116825
0.000116872
0.000113628
0.00011369
8.92794e-05
8.70631e-05
0.00011695
0.000116735
0.000113582
0.000113685
0.000116821
0.000113605
0.000113764
8.89342e-05
8.72023e-05
0.000116758
0.000113774
0.000113722
8.76181e-05
8.61817e-05
8.37603e-05
0.000112428
0.000112375
0.000108699
0.000108657
8.61594e-05
8.29129e-05
0.000112357
0.000112628
0.000108824
0.000108465
0.000112652
0.000108915
0.000108255
8.68932e-05
8.33019e-05
0.000112619
0.000108564
0.000108436
8.28559e-05
8.38546e-05
9.17132e-05
0.000108209
0.000107681
0.000108289
0.000105809
8.27103e-05
8.52662e-05
0.000108336
0.000107473
0.000108124
0.000107123
0.000107804
0.000106017
0.000109238
8.26672e-05
8.93794e-05
0.000108046
0.000107284
0.00010949
9.58686e-05
9.23545e-05
8.97559e-05
0.000108138
0.000105689
0.000105622
0.00010789
8.56195e-05
9.94237e-05
0.000107821
0.000107982
0.0001054
0.000106251
0.000109337
0.000107623
0.000103947
9.21041e-05
9.19477e-05
0.000109448
0.000106015
0.000103852
8.49041e-05
8.80776e-05
8.0363e-05
0.00010373
0.000107417
9.91222e-05
0.000101197
9.98334e-05
8.40498e-05
0.000103804
0.000104427
9.94795e-05
9.95426e-05
0.000101443
0.00010138
9.89562e-05
8.97754e-05
8.126e-05
0.000101393
9.96481e-05
9.87109e-05
7.99476e-05
7.98327e-05
8.42837e-05
9.82226e-05
9.88212e-05
9.77446e-05
9.59023e-05
8.13125e-05
7.89651e-05
9.85206e-05
9.84376e-05
9.76293e-05
9.66295e-05
9.96151e-05
9.58583e-05
9.79967e-05
8.10845e-05
8.20274e-05
9.92521e-05
9.68832e-05
9.79467e-05
8.44503e-05
8.41843e-05
8.11852e-05
9.72719e-05
9.66055e-05
9.46948e-05
9.72643e-05
8.23933e-05
8.85163e-05
9.71039e-05
9.61747e-05
9.47949e-05
9.80088e-05
9.68502e-05
9.74294e-05
9.61548e-05
8.20287e-05
9.09355e-05
9.68994e-05
9.79413e-05
9.6577e-05
8.61296e-05
8.07111e-05
8.21449e-05
9.42519e-05
9.63123e-05
9.27266e-05
9.37276e-05
8.69489e-05
8.24582e-05
9.44206e-05
9.75474e-05
9.27968e-05
9.23112e-05
9.70156e-05
9.37861e-05
9.42414e-05
9.03308e-05
7.76606e-05
9.72172e-05
9.22887e-05
9.42356e-05
8.2914e-05
8.33871e-05
9.08993e-05
9.32309e-05
9.32254e-05
9.55742e-05
9.09705e-05
8.29983e-05
7.78069e-05
9.32128e-05
9.11104e-05
9.54355e-05
9.45033e-05
9.20564e-05
9.09434e-05
8.78541e-05
7.67791e-05
9.32631e-05
9.20267e-05
9.45808e-05
8.77944e-05
7.2769e-05
8.85485e-05
7.43519e-05
9.43442e-05
8.88309e-05
8.8464e-05
8.64067e-05
7.48453e-05
7.43407e-05
9.42714e-05
9.67598e-05
8.85241e-05
9.40214e-05
8.87001e-05
8.64207e-05
9.68011e-05
9.68511e-05
8.58189e-05
8.86477e-05
9.40074e-05
9.69585e-05
9.88361e-05
7.37261e-05
9.13291e-05
8.74334e-05
8.99194e-05
9.28306e-05
9.82237e-05
8.19706e-05
0.000101638
8.75251e-05
9.15893e-05
9.28561e-05
8.55099e-05
9.70006e-05
9.83546e-05
9.13337e-05
8.24544e-05
7.22645e-05
9.71755e-05
8.56219e-05
9.13608e-05
8.17037e-05
9.22287e-05
8.50791e-05
9.39017e-05
9.60902e-05
9.06075e-05
8.88884e-05
9.81154e-05
7.82234e-05
9.38125e-05
8.55563e-05
9.04572e-05
9.2827e-05
8.88955e-05
8.88605e-05
8.73653e-05
7.39429e-05
9.44929e-05
8.88417e-05
9.27615e-05
8.71567e-05
8.15536e-05
8.44432e-05
9.85973e-05
8.98154e-05
8.81055e-05
9.52756e-05
9.87597e-05
7.82245e-05
0.000110163
8.97609e-05
9.60136e-05
9.55388e-05
9.49932e-05
9.07733e-05
9.87613e-05
0.000101872
9.97134e-05
9.09814e-05
9.07084e-05
9.50467e-05
0.000102162
0.000112966
0.000101193
0.00010218
9.76065e-05
0.000101441
9.88678e-05
9.50419e-05
0.00011189
8.65266e-05
9.77829e-05
9.19331e-05
9.86991e-05
8.71788e-05
0.000101078
9.52232e-05
9.17455e-05
8.59492e-05
7.83625e-05
0.000101193
8.73114e-05
9.16072e-05
7.91361e-05
0.00010166
9.09406e-05
9.8039e-05
9.2449e-05
9.56696e-05
9.06027e-05
8.36054e-05
8.99153e-05
9.78521e-05
8.93752e-05
9.57055e-05
0.000105495
8.98589e-05
9.04398e-05
9.35474e-05
8.52311e-05
0.000117201
8.97219e-05
0.000105294
9.35813e-05
0.000100063
8.89108e-05
9.19997e-05
9.38824e-05
9.42518e-05
9.26257e-05
9.68871e-05
9.44651e-05
9.93964e-05
9.39779e-05
0.000105279
9.27216e-05
9.96874e-05
9.78855e-05
9.70635e-05
9.83671e-05
0.000115441
9.82092e-05
9.7984e-05
9.97395e-05
9.84706e-05
9.91091e-05
9.82148e-05
0.000102971
9.64277e-05
9.74156e-05
0.000102294
0.000104614
9.95505e-05
0.000111731
9.6459e-05
9.82421e-05
0.000102285
0.000100676
9.77365e-05
0.000104504
0.000103957
9.74284e-05
0.000104342
9.78187e-05
0.000100649
0.000103947
0.000110679
0.00010106
0.000103779
0.000100876
0.000106489
0.000100352
0.000107052
0.000113517
0.000110986
0.000100865
0.000102527
0.000100339
0.000103384
0.000105926
0.000107227
0.000103545
0.000106052
0.000105272
0.000105922
0.000103539
0.000103533
0.00010402
0.000109073
0.000118073
0.00010439
0.000106322
0.000111843
0.000105006
0.000109971
0.000105928
0.000104372
0.000102866
0.000111816
0.000104214
0.000102408
0.000104967
0.000105574
0.000104492
0.000105712
0.00010239
0.000104188
0.000105542
0.000109314
0.000116425
0.00010703
0.000111098
0.000105162
0.00010693
0.000106921
0.000105814
0.000108958
0.000111075
0.000105383
0.000106922
0.000108842
0.000107457
0.000106902
0.000109924
0.000107099
0.000112388
0.000107435
0.000108813
0.000109934
0.000113532
0.000106771
0.000114847
0.000106675
0.00010792
0.000110977
0.000111002
0.000109917
0.000113864
0.000106676
0.0001098
0.000111013
0.000111834
0.000110107
0.000111082
0.000110817
0.000113097
0.000114926
0.000110123
0.000111911
0.000110829
0.000112537
0.000116329
0.000116719
0.000112673
0.000111799
0.000114759
0.000113989
0.00011436
0.000116165
0.000112704
0.000112447
0.000114761
0.000114405
0.000111275
0.000113976
0.000113476
0.000115185
0.000116629
0.000111281
0.000114391
0.000113479
0.000115452
0.000116227
0.00011741
0.000114616
0.000114773
0.000116004
0.000116957
0.000116672
0.000118824
0.000114614
0.000114994
0.000115994
0.00011685
0.000114331
0.000116984
0.000117123
0.000116964
0.000118542
0.000114337
0.000116876
0.000117126
0.000119388
0.000118714
0.00012379
0.000117223
0.000117629
0.0001212
0.000120163
0.000119229
0.000121914
0.00011722
0.000117536
0.000121209
0.000119855
0.000118063
0.000120196
0.000120257
0.000118977
0.000121259
0.000118064
0.000119888
0.000120266
0.00012173
0.000124183
0.00012423
0.000122153
0.000121161
0.000123383
0.000123533
0.000122593
0.000124566
0.000122158
0.000120716
0.000123381
0.000123267
0.000120895
0.000123539
0.000123089
0.000121806
0.000124436
0.000120902
0.000123273
0.000123073
0.000123969
0.000124369
0.000127128
0.000123913
0.000124122
0.000126615
0.000126412
0.000124785
0.00012698
0.000123912
0.000124131
0.000126617
0.000126767
0.000123935
0.000126431
0.000126687
0.000124986
0.000127444
0.000123921
0.000126785
0.000126699
0.000127415
0.000127599
0.000129067
0.000127358
0.000127383
0.000129396
0.000129994
0.000127666
0.000130039
0.000127362
0.000127557
0.000129402
0.000129694
0.000127556
0.000130013
0.000129844
0.000127866
0.000129486
0.000127571
0.000129715
0.000129848
0.000129791
0.000129623
0.000132426
0.000130268
0.000130664
0.000132918
0.000132883
0.000130344
0.000132072
0.00013027
0.000130433
0.000132919
0.000132867
0.000130639
0.000132909
0.000133233
0.000129883
0.000132228
0.000130638
0.000132892
0.000133229
0.000132642
0.000132872
0.000134848
0.00013378
0.000133686
0.00013621
0.000136083
0.000132558
0.000134735
0.000133784
0.000133722
0.000136214
0.000136311
0.000133987
0.000136099
0.000135951
0.000132751
0.000135068
0.000133988
0.000136331
0.000135956
0.000134376
0.000135245
0.000137418
0.000136951
0.000136947
0.00013939
0.000139261
0.000135176
0.000137315
0.000136961
0.00013712
0.000139398
0.000139193
0.0001367
0.000139277
0.000139289
0.000135453
0.000137025
0.000136709
0.000139214
0.000139299
0.000137309
0.000137814
0.000139134
0.000140209
0.000140055
0.000142158
0.000142769
0.000137754
0.000140153
0.000140208
0.000139931
0.000142161
0.00014263
0.000140129
0.000142778
0.000142533
0.00013744
0.000140021
0.000140131
0.00014264
0.000142537
0.000139945
0.000139527
0.000142712
0.000142865
0.00014349
0.000145826
0.000145421
0.000140516
0.000141755
0.000142871
0.000143444
0.000145825
0.000145336
0.00014339
0.000145456
0.000145806
0.000140419
0.000141811
0.000143396
0.000145376
0.000145806
0.000142313
0.000143261
0.000144539
0.000146769
0.000146175
0.000148771
0.000148475
0.000142146
0.000144347
0.000146768
0.000146162
0.000148786
0.000149009
0.000146412
0.000148485
0.000148318
0.000142295
0.000144954
0.00014641
0.000149021
0.000148324
0.000143871
0.000144778
0.000146708
0.000149422
0.000149274
0.000151607
0.000151988
0.000144794
0.000147412
0.000149448
0.0001496
0.000151613
0.000151406
0.000149087
0.000151992
0.000151682
0.000145197
0.000146438
0.000149107
0.000151415
0.0001517
0.000147188
0.000147012
0.000148674
0.00015235
0.000152856
0.000154361
0.000154377
0.000147791
0.000148362
0.000152335
0.000152361
0.000154363
0.00015473
0.000152696
0.000154414
0.000155007
0.000147
0.000149064
0.000152693
0.000154773
0.000155003
0.000149226
0.00014914
0.000151609
0.000155098
0.000154779
0.000157794
0.000157369
0.000148444
0.000151418
0.000155118
0.000155235
0.000157816
0.000157046
0.000155398
0.000157387
0.000157087
0.00014917
0.000150569
0.000155409
0.000157064
0.000157111
0.000150702
0.000151829
0.000152912
0.000158458
0.000158417
0.000160036
0.00016058
0.000152088
0.000153532
0.000158473
0.000157825
0.000160005
0.000160389
0.000157951
0.000160582
0.000160567
0.000151005
0.000153718
0.000157968
0.000160402
0.00016054
0.00015366
0.000153489
0.000155638
0.000160931
0.000161123
0.000163532
0.000163089
0.000153647
0.000155271
0.000160897
0.000161354
0.00016358
0.000164232
0.000161239
0.000163114
0.00016309
0.000154391
0.000156687
0.000161208
0.00016425
0.000163136
0.000155183
0.000155501
0.000155883
0.000163932
0.000163804
0.000164792
0.000165458
0.000155585
0.000156705
0.000164001
0.000164755
0.000164802
0.000164689
0.000163827
0.000165478
0.000165593
0.000156517
0.000155431
0.000163888
0.000164726
0.000165614
0.000156985
0.000156566
0.000161074
0.000165577
0.000165856
0.000169328
0.000168429
0.000156884
0.000159823
0.000165564
0.000165064
0.000169311
0.000168557
0.000166104
0.000168461
0.000168475
0.000155555
0.000160147
0.0001661
0.000168588
0.000168442
0.000159619
0.000161325
0.000160958
0.000170262
0.0001696
0.00017117
0.000171401
0.000160592
0.000161323
0.000170255
0.000169484
0.000171218
0.000170309
0.000169379
0.000171407
0.000171119
0.000160322
0.000159953
0.000169359
0.000170331
0.00017116
0.000160839
0.000160846
0.000161883
0.000171416
0.000171639
0.000172835
0.000173968
0.000161295
0.000163993
0.000171449
0.000171006
0.000172774
0.000175513
0.000171355
0.000173917
0.000173947
0.000160336
0.000166473
0.000171382
0.000175446
0.000173909
0.000164788
0.000162052
0.000167194
0.00017321
0.00017476
0.000176699
0.000174308
0.000164209
0.000161658
0.00017319
0.000175968
0.000176812
0.000173978
0.000175507
0.000174478
0.000175993
0.000165784
0.00016009
0.000175487
0.000174088
0.000176068
0.000162555
0.000168674
0.000162726
0.000178413
0.000174401
0.000177612
0.000180142
0.000161618
0.000171804
0.000178496
0.000173887
0.000177558
0.000180296
0.000175066
0.000179803
0.000175153
0.000160131
0.000172438
0.00017514
0.000179976
0.000175136
0.000164882
0.000161008
0.000170778
0.000176653
0.000182233
0.000178569
0.000179776
0.00017264
0.000163348
0.000176577
0.000182428
0.000178565
0.00018093
0.000177881
0.000180107
0.000183386
0.000173002
0.000165387
0.000177768
0.000181309
0.000183426
0.000170756
0.000176018
0.000171756
0.000183249
0.000179054
0.00018644
0.000182483
0.000162542
0.000174533
0.000183371
0.000179594
0.00018655
0.000178213
0.000182982
0.000181988
0.000182516
0.00016426
0.000163649
0.000183137
0.000177935
0.000182688
0.000170092
0.000165411
0.000160411
0.000183116
0.000186289
0.000178216
0.00018409
0.000176995
0.000165016
0.000183038
0.000179979
0.000177897
0.000190314
0.000183232
0.000184468
0.000185526
0.000164712
0.00018553
0.000183287
0.000190834
0.0001849
0.000169913
0.000166889
0.000192515
0.000180906
0.00018236
0.000196308
0.00018649
0.000163002
0.000180848
0.000180783
0.000192963
0.000197307
0.00018812
0.000183782
0.000186381
0.000180494
0.000187988
0.000164357
0.000183578
0.000188161
0.000181184
0.000162024
0.000187841
0.000156645
0.000195382
0.000192719
0.000182687
0.000193492
0.000186161
0.000173729
0.000196179
0.000182507
0.000181536
0.000180176
0.000181158
0.000192787
0.000198426
0.000158007
0.000167537
0.000182073
0.000179688
0.000196784
0.000195516
0.000156811
0.000183153
0.000181982
0.000187695
0.000190475
0.000179997
0.000166407
0.000157631
0.00018086
0.000186663
0.000192051
0.000204991
0.000202419
0.000181193
0.000198215
0.000179677
0.000201701
0.000200753
0.000206435
0.0001991
0.000174063
0.000184478
0.00017538
0.000194086
0.000182401
0.000194375
0.000204269
0.000163888
0.000200913
0.000196253
0.000201267
0.000194465
0.000178217
0.000188732
0.00020292
0.000176783
0.000189511
0.000144535
0.000191198
0.000177421
0.000177002
0.000149691
0.000174338
0.000178039
0.000193518
0.000204954
0.000193722
0.000193061
0.000199897
0.000166808
0.000192189
0.000178121
0.000192057
0.000203464
0.000177873
0.000192817
0.000205015
0.000146094
0.000208609
0.000177576
0.000203206
0.000203378
0.000204224
0.000179575
0.000181979
0.000195216
0.000189499
0.000197996
0.000189621
0.000164657
0.000175313
0.000194612
0.000209664
0.000199699
0.000202707
0.00020943
0.000190704
0.000204982
0.000210585
0.000172682
0.000209384
0.000203968
0.000207157
0.0001799
0.000181139
0.000175953
0.000197809
0.00019334
0.000195757
0.000200488
0.000178655
0.000184361
0.000199356
0.000194615
0.000195142
0.000188951
0.000198156
0.000200084
0.000189197
0.000166957
0.000169745
0.000199713
0.000188708
0.000188571
0.000165589
0.000175513
0.000179532
0.000195251
0.000200222
0.000196711
0.000198544
0.000183378
0.000179476
0.000194467
0.000190492
0.000196002
0.000201608
0.000188969
0.000198101
0.000197319
0.000174095
0.000187851
0.000188293
0.000201343
0.00019719
0.000184552
0.000180722
0.000184798
0.000198241
0.000198499
0.000202247
0.000201027
0.000179598
0.000183498
0.000198241
0.00020228
0.000202641
0.000200239
0.000201267
0.000201531
0.000205153
0.000187133
0.000178995
0.000201516
0.000200571
0.000205423
0.000187745
0.000184975
0.000184741
0.00020314
0.000201924
0.000203785
0.000202276
0.00018362
0.000182832
0.000203249
0.000199858
0.000203529
0.000201299
0.000204872
0.000202355
0.000200718
0.000178659
0.000184058
0.000205014
0.000201317
0.000200531
0.000178917
0.000184298
0.00018201
0.000203587
0.000202164
0.000202154
0.000202733
0.000182601
0.000183592
0.000203346
0.000203159
0.000202367
0.000205174
0.000200264
0.000202275
0.00020195
0.000185212
0.000186391
0.000200155
0.000205014
0.000202313
0.000185077
0.000181718
0.000183637
0.000201927
0.000203211
0.000203027
0.000204255
0.000183891
0.000184666
0.000202173
0.000205077
0.000203136
0.000203621
0.000204035
0.000204674
0.000206169
0.000185841
0.000183065
0.000204399
0.000203967
0.000206239
0.000186672
0.00018414
0.000185732
0.000203896
0.000204421
0.000205634
0.00020474
0.000184497
0.000184432
0.000203841
0.000203346
0.000205517
0.000203741
0.000206012
0.000204747
0.000204206
0.000182746
0.000183823
0.000206021
0.000203785
0.000204096
0.000182917
0.000185721
0.000186092
0.000205922
0.000204972
0.000206452
0.000206164
0.000184443
0.000185945
0.000205852
0.000204543
0.000206501
0.00020644
0.000203968
0.000206001
0.000204996
0.000184234
0.000186352
0.000203875
0.000206261
0.000205053
0.000185263
0.000186015
0.000186544
0.000206654
0.000206654
0.000207373
0.000207793
0.000186142
0.000187157
0.000206707
0.000206893
0.000207383
0.000207667
0.000206032
0.000207871
0.000208244
0.000186439
0.000186908
0.000206087
0.000207754
0.00020826
0.00018786
0.000186561
0.000187247
0.000207646
0.000207973
0.00020833
0.000208091
0.000186992
0.000186802
0.000207644
0.000207819
0.00020835
0.000208252
0.000208464
0.000208188
0.00020825
0.000186784
0.000187128
0.000208471
0.000208335
0.000208264
0.000186594
0.000187159
0.000187853
0.000208505
0.000208237
0.000209121
0.00020948
0.000186771
0.000188428
0.000208538
0.000208428
0.000209121
0.000209002
0.000208223
0.000209476
0.000209163
0.000187061
0.000187651
0.000208241
0.000208993
0.000209169
0.000188257
0.000187879
0.000188098
0.000209437
0.000209692
0.000209885
0.000209515
0.000188348
0.00018721
0.000209403
0.000209246
0.000209901
0.000209896
0.00020963
0.000209557
0.000209654
0.000187649
0.000188209
0.000209616
0.000209942
0.000209661
0.00018735
0.000187789
0.00018774
0.000209793
0.000209442
0.000209738
0.000210234
0.000187021
0.000188944
0.000209836
0.000209974
0.000209798
0.00021003
0.00020954
0.000210242
0.000210243
0.000188028
0.000188085
0.000209575
0.00021005
0.000210327
0.000188991
0.000187989
0.000190492
0.000210157
0.000210829
0.000211888
0.000211352
0.00018919
0.000188945
0.00021018
0.000210241
0.000211877
0.000211499
0.0002109
0.000211421
0.000211345
0.000188126
0.000189678
0.00021093
0.000211532
0.000211326
0.000188749
0.00019011
0.00018682
0.000211879
0.000211316
0.000210587
0.000211043
0.000188695
0.000188322
0.000211878
0.000211563
0.000210646
0.000211038
0.000211215
0.000211023
0.000211094
0.000189466
0.000187872
0.00021121
0.000211024
0.000211141
0.000188613
0.000186684
0.000191363
0.000210455
0.00021106
0.000212389
0.000212089
0.000188285
0.00018997
0.000210498
0.00021095
0.000212377
0.000212256
0.00021119
0.000212198
0.000212156
0.00018776
0.000190711
0.000211233
0.000212387
0.000212176
0.00018981
0.000191765
0.000188657
0.000213187
0.000212615
0.0002129
0.000212896
0.000190112
0.000189736
0.000213184
0.00021273
0.000212888
0.000212399
0.000212406
0.000212869
0.000212651
0.000190849
0.000188296
0.000212431
0.000212364
0.000212659
0.000189506
0.00018789
0.000188729
0.000212023
0.000212581
0.000211681
0.000211825
0.000189248
0.000188514
0.000212011
0.000211881
0.000211741
0.000212294
0.000212494
0.000211944
0.000212265
0.000187915
0.000189914
0.0002125
0.000212381
0.000212295
0.000189155
0.00018939
0.000190903
0.000212106
0.000211999
0.000213559
0.000213454
0.000188769
0.000190956
0.000212195
0.000212717
0.000213559
0.000213078
0.000212316
0.000213467
0.000212991
0.000190218
0.000189729
0.000212346
0.000213051
0.000212949
0.000190086
0.000190777
0.000189943
0.000213808
0.000213733
0.000213698
0.000213623
0.0001909
0.000189693
0.000213786
0.00021318
0.000213676
0.00021354
0.000213376
0.00021362
0.00021387
0.000189612
0.000190489
0.00021334
0.000213619
0.000213929
0.000190903
0.000189274
0.00018779
0.000213156
0.00021305
0.000211744
0.000212061
0.000189048
0.000188394
0.000213221
0.000213417
0.000211804
0.000211982
0.00021365
0.000212166
0.000211867
0.000190039
0.000187845
0.000213744
0.000212007
0.000211857
0.000187559
0.000188099
0.000193634
0.000212358
0.000212636
0.000215278
0.00021494
0.0001888
0.000192794
0.00021237
0.000212282
0.000215228
0.000214818
0.000212218
0.000214926
0.00021475
0.000187906
0.00019281
0.000212115
0.000214795
0.000214687
0.000192697
0.000193175
0.000187096
0.000215293
0.000214939
0.000212515
0.000212767
0.000192287
0.000187968
0.000215263
0.000214994
0.000212623
0.000213255
0.000214891
0.0002128
0.000213325
0.000192628
0.000188416
0.000214898
0.000213428
0.000213569
0.000188786
0.000186782
0.000189042
0.000211901
0.000212318
0.000214284
0.000214447
0.000187795
0.000188868
0.000211976
0.000212399
0.00021425
0.000213856
0.000212633
0.000214545
0.000214157
0.000187931
0.000187867
0.000212789
0.000213859
0.000213989
0.000187941
0.000191683
0.000213781
0.000213628
0.000191109
0.000213733
0.000213169
0.000236146
0.00023586
0.000235814
0.000213193
0.000190422
0.000213034
0.00023473
0.000234746
0.000234729
0.000234729
0.000235117
0.000234798
0.000234701
0.000234727
0.000235118
0.000234798
0.000234727
0.000234701
0.000234867
0.000233566
0.000233566
0.000104651
3.87413e-05
0.000129118
3.98246e-05
2.16834e-05
2.28312e-05
0.000104643
3.87373e-05
0.000129114
3.98212e-05
0.000233973
0.000233973
0.000233973
0.000232935
0.000232935
0.000232935
0.000232935
0.000206196
9.36755e-05
0.000233969
0.000231994
0.000222614
8.72225e-05
0.000233611
2.16823e-05
2.28306e-05
0.00020619
0.000233969
9.36751e-05
0.000231994
0.000222622
0.000233611
8.72281e-05
4.78008e-05
4.77891e-05
0.000231345
4.4019e-05
4.40094e-05
7.25679e-05
4.24344e-05
8.14026e-05
4.37631e-05
2.4775e-05
2.54634e-05
7.2558e-05
4.24308e-05
8.13973e-05
4.37593e-05
0.000232532
0.000232532
0.000232532
0.000231084