/*--------------------------------*- C++ -*----------------------------------*\
| =========                 |                                                 |
| \\      /  F ield         | OpenFOAM: The Open Source CFD Toolbox           |
|  \\    /   O peration     | Version:  v1906                                 |
|   \\  /    A nd           | Web:      www.OpenFOAM.com                      |
|    \\/     M anipulation  |                                                 |
\*---------------------------------------------------------------------------*/
FoamFile
{
    version     2.0;
    format      ascii;
    class       volScalarField;
    location    "500";
    object      p;
}
// * * * * * * * * * * * * * * * * * * * * * * * * * * * * * * * * * * * * * //

dimensions      [0 2 -2 0 0 0 0];


internalField   nonuniform List<scalar> 
171728
(
0.00360466
0.00360499
0.00360499
0.00360804
0.00354931
0.00354972
0.00354972
0.00355272
0.00349856
0.00349853
0.00349853
0.00350128
0.00344617
0.00344618
0.00344618
0.00344896
0.00339482
0.00339483
0.00339483
0.00339758
0.00334484
0.00334486
0.00334486
0.00334757
0.00329632
0.00329633
0.00329633
0.00329901
0.00324909
0.00324911
0.0032491
0.00325177
0.00320296
0.00320299
0.003203
0.0032056
0.00315773
0.00315775
0.00315776
0.00316035
0.00311322
0.00311323
0.00311324
0.00311581
0.00306931
0.00306933
0.00306933
0.00307187
0.00302593
0.00302594
0.00302592
0.00302846
0.00298301
0.002983
0.00298298
0.00298555
0.00294053
0.00294056
0.00294055
0.00294302
0.00289848
0.00289848
0.0028985
0.00290092
0.00285684
0.00285688
0.00285685
0.00285925
0.00281558
0.00281556
0.00281554
0.00281799
0.00277463
0.00277456
0.00277465
0.00277713
0.00273399
0.00273402
0.00273394
0.00273656
0.0026933
0.00269342
0.00269339
0.00269564
0.0026527
0.00265258
0.00265257
0.00265496
0.00261284
0.00261258
0.00261283
0.00261548
0.00257313
0.00257327
0.00257315
0.00257543
0.00253357
0.00253334
0.00253324
0.00253592
0.0024945
0.00249438
0.0024945
0.00249632
0.00245534
0.00245526
0.00245531
0.0024587
0.00241693
0.00241728
0.00241647
0.00241861
0.00237815
0.00237761
0.00237842
0.00238037
0.00234009
0.00234046
0.00234005
0.00234326
0.00230158
0.00230099
0.00230089
0.00230258
0.00226351
0.00226373
0.00226453
0.00226654
0.00222591
0.002226
0.00222537
0.00222786
0.00218831
0.00218839
0.00218827
0.00219067
0.00215058
0.00215045
0.00215053
0.00215241
0.0021132
0.00211291
0.00211302
0.00211537
0.00207557
0.00207575
0.00207582
0.00207793
0.00203865
0.00203863
0.00203856
0.00204066
0.00200161
0.00200157
0.00200156
0.00200376
0.00196469
0.00196471
0.00196469
0.00196689
0.00192806
0.00192798
0.00192798
0.00193009
0.00189135
0.00189134
0.00189135
0.00189346
0.00185486
0.0018548
0.00185482
0.00185695
0.00181844
0.0018184
0.00181838
0.00182048
0.00178215
0.00178206
0.00178208
0.00178418
0.00174592
0.00174585
0.00174585
0.00174791
0.00170979
0.00170971
0.00170969
0.00171181
0.00167373
0.00167367
0.00167368
0.00167573
0.00163778
0.00163765
0.00163765
0.00163974
0.00160186
0.00160177
0.00160179
0.00160379
0.00156601
0.00156593
0.00156588
0.00156799
0.00153022
0.00153009
0.00153014
0.00153216
0.00149452
0.0014944
0.00149437
0.0014964
0.00145883
0.00145872
0.00145874
0.00146079
0.00142324
0.00142307
0.00142312
0.0014251
0.00138756
0.00138749
0.00138739
0.00138952
0.00135215
0.00135197
0.00135205
0.00135399
0.00131656
0.00131646
0.00131639
0.00131848
0.00128105
0.00128093
0.00128107
0.00128297
0.00124561
0.00124542
0.00124523
0.00124743
0.00121019
0.00121018
0.00121029
0.00121201
0.00117468
0.0011745
0.00117446
0.0011769
0.00113966
0.00113932
0.00113917
0.00114095
0.00110334
0.00110368
0.00110408
0.001106
0.00106947
0.0010685
0.00106833
0.00107018
0.00103216
0.00103336
0.00103241
0.00103578
0.000998434
0.000996744
0.000999595
0.000999366
0.000962231
0.000963679
0.000959548
0.000963325
0.000927079
0.000926004
0.000929436
0.000931246
0.000891968
0.000891944
0.000890725
0.000892775
0.000855771
0.000856152
0.000855332
0.000857424
0.000820911
0.000820521
0.000821734
0.000823645
0.000785667
0.00078566
0.000785088
0.000787446
0.000749899
0.000749707
0.000749863
0.000751412
0.000714264
0.000714289
0.000714349
0.000716542
0.00067881
0.00067881
0.000678624
0.000680773
0.000643307
0.000643112
0.000643182
0.000645
0.000607691
0.000607667
0.000607709
0.000609768
0.000572119
0.000572098
0.00057206
0.000574139
0.000536464
0.000536355
0.000536377
0.000538335
0.000500754
0.000500737
0.000500702
0.000502774
0.000465041
0.000464934
0.000464993
0.000466971
0.000429223
0.000429241
0.000429185
0.000431274
0.000393563
0.000393439
0.00039349
0.000395461
0.000357532
0.000357548
0.000357508
0.000359599
0.000321845
0.000321757
0.000321796
0.000323795
0.00028586
0.000285844
0.00028578
0.00028787
0.000249836
0.000249772
0.000249865
0.000251867
0.000214017
0.000214004
0.000213915
0.000215981
0.000177938
0.000177878
0.000177948
0.000179994
0.000141716
0.000141691
0.000141655
0.000143654
0.000106016
0.000106011
0.000106012
0.000108075
6.94661e-05
6.93785e-05
6.94254e-05
7.14213e-05
3.42425e-05
3.36992e-05
3.36212e-05
3.54172e-05
6.14816e-06
7.01283e-06
7.07058e-06
5.37896e-06
0.00361807
0.00361829
0.00361829
0.00361807
0.00361829
0.00361829
0.00361906
0.00361906
0.00361906
0.00361906
0.00361829
0.00361829
0.00361807
0.0036183
0.0036183
0.00361807
0.00360804
0.00355929
0.00360499
0.00360499
0.00356157
0.00356157
0.00360804
0.00355929
0.00360499
0.00360499
0.00356156
0.00356157
0.00360499
0.00356156
0.00356157
0.00360804
0.00355929
0.00360499
0.00356156
0.00356156
0.00355929
0.00355272
0.00350821
0.00354973
0.00354973
0.00351165
0.00351165
0.00355272
0.00350821
0.00354972
0.00354973
0.00351165
0.00351165
0.00354973
0.00351165
0.00351165
0.00355272
0.00350821
0.00354972
0.00351165
0.00351165
0.00350821
0.00350128
0.00345584
0.00349853
0.00349853
0.0034592
0.0034592
0.00350128
0.00345584
0.00349853
0.00349853
0.0034592
0.0034592
0.00349853
0.0034592
0.0034592
0.00350128
0.00345584
0.00349853
0.0034592
0.0034592
0.00345584
0.00344896
0.00340429
0.00344619
0.00344618
0.00340755
0.00340755
0.00344896
0.00340429
0.00344618
0.00344618
0.00340755
0.00340755
0.00344618
0.00340755
0.00340755
0.00344896
0.00340429
0.00344618
0.00340755
0.00340755
0.00340429
0.00339758
0.00335407
0.00339483
0.00339483
0.0033572
0.00335721
0.00339758
0.00335407
0.00339483
0.00339483
0.00335721
0.0033572
0.00339483
0.00335721
0.00335721
0.00339758
0.00335408
0.00339483
0.00335721
0.00335721
0.00335407
0.00334757
0.00330532
0.00334486
0.00334486
0.00330834
0.00330834
0.00334758
0.00330531
0.00334485
0.00334486
0.00330835
0.00330833
0.00334485
0.00330833
0.00330834
0.00334758
0.00330532
0.00334485
0.00330834
0.00330834
0.00330532
0.00329901
0.00325791
0.00329633
0.00329633
0.00326078
0.00326082
0.00329902
0.00325789
0.00329632
0.00329634
0.0032608
0.00326081
0.00329633
0.00326081
0.0032608
0.00329902
0.00325789
0.00329633
0.00326083
0.0032608
0.00325789
0.00325177
0.00321159
0.00324912
0.0032491
0.00321442
0.00321441
0.00325175
0.0032116
0.00324913
0.0032491
0.0032144
0.00321442
0.00324913
0.00321442
0.00321441
0.00325175
0.0032116
0.00324913
0.00321441
0.00321442
0.00321158
0.00320561
0.00316622
0.00320297
0.003203
0.003169
0.00316898
0.0032056
0.00316621
0.00320299
0.00320299
0.00316901
0.00316899
0.00320298
0.00316898
0.00316898
0.0032056
0.00316621
0.00320298
0.00316897
0.00316897
0.00316622
0.00316033
0.00312159
0.00315775
0.00315775
0.00312429
0.00312432
0.00316034
0.00312159
0.00315774
0.00315773
0.0031243
0.00312432
0.00315777
0.00312434
0.00312432
0.00316035
0.00312159
0.00315778
0.00312433
0.00312432
0.00312158
0.00311582
0.00307757
0.00311326
0.00311325
0.00308026
0.00308027
0.0031158
0.00307758
0.00311325
0.00311326
0.00308026
0.00308024
0.00311322
0.00308026
0.00308026
0.0031158
0.00307757
0.00311323
0.00308026
0.00308027
0.00307757
0.00307188
0.00303408
0.00306932
0.00306935
0.00303673
0.00303675
0.00307187
0.00303408
0.00306934
0.00306935
0.00303672
0.00303676
0.00306934
0.00303673
0.00303674
0.00307187
0.00303407
0.00306931
0.00303674
0.00303672
0.00303408
0.00302847
0.00299111
0.00302595
0.00302594
0.00299371
0.00299375
0.00302845
0.00299107
0.00302595
0.00302593
0.00299371
0.00299372
0.00302593
0.00299373
0.00299368
0.00302845
0.00299106
0.00302594
0.00299371
0.00299368
0.0029911
0.00298554
0.00294855
0.00298303
0.002983
0.00295109
0.0029511
0.0029855
0.00294855
0.00298304
0.00298299
0.0029511
0.00295109
0.00298304
0.00295112
0.00295114
0.0029855
0.00294854
0.00298305
0.00295108
0.00295112
0.00294855
0.00294304
0.00290643
0.00294053
0.00294054
0.0029089
0.00290896
0.00294304
0.00290643
0.00294053
0.00294055
0.00290891
0.00290898
0.00294052
0.00290897
0.00290895
0.00294304
0.00290643
0.00294051
0.00290897
0.00290893
0.00290638
0.00290099
0.00286474
0.00289851
0.00289848
0.00286717
0.0028672
0.00290096
0.00286474
0.00289849
0.00289849
0.00286718
0.00286724
0.00289841
0.0028672
0.0028672
0.00290097
0.00286473
0.00289842
0.00286722
0.00286721
0.00286468
0.00285934
0.00282334
0.00285685
0.00285687
0.0028258
0.00282583
0.00285935
0.0028234
0.00285685
0.00285685
0.00282583
0.00282583
0.00285677
0.00282582
0.00282583
0.00285933
0.00282335
0.00285679
0.00282582
0.00282583
0.00282333
0.00281799
0.00278244
0.00281552
0.00281555
0.0027849
0.00278489
0.00281804
0.00278233
0.00281555
0.00281557
0.0027849
0.00278491
0.00281553
0.00278487
0.00278487
0.00281801
0.00278246
0.00281554
0.00278493
0.00278486
0.00278248
0.00277709
0.00274185
0.00277463
0.00277456
0.00274414
0.00274414
0.00277699
0.00274185
0.00277466
0.00277465
0.00274415
0.00274408
0.00277463
0.00274416
0.00274399
0.0027771
0.00274162
0.00277465
0.00274406
0.00274399
0.00274177
0.00273661
0.00270116
0.00273407
0.00273402
0.00270345
0.00270344
0.00273657
0.00270124
0.00273406
0.00273394
0.00270345
0.00270364
0.002734
0.00270344
0.00270353
0.00273639
0.00270138
0.00273403
0.00270362
0.0027035
0.00270115
0.00269582
0.00266014
0.00269332
0.00269344
0.00266262
0.00266282
0.00269601
0.00266037
0.00269331
0.00269341
0.00266265
0.00266256
0.00269316
0.00266288
0.00266255
0.00269598
0.00266003
0.00269315
0.00266258
0.00266253
0.00266007
0.00265488
0.0026205
0.00265254
0.00265253
0.00262272
0.00262245
0.00265493
0.00261996
0.00265256
0.00265252
0.00262273
0.00262278
0.0026526
0.00262244
0.00262298
0.00265482
0.00262052
0.00265259
0.00262278
0.00262299
0.00262082
0.00261534
0.00258065
0.00261285
0.00261258
0.00258296
0.00258325
0.00261488
0.00258121
0.00261286
0.00261283
0.00258296
0.00258296
0.00261283
0.00258325
0.00258284
0.00261532
0.00258084
0.00261284
0.00258295
0.00258284
0.00258052
0.00257549
0.00254108
0.00257305
0.00257326
0.00254337
0.00254321
0.00257593
0.00254071
0.00257307
0.00257317
0.00254338
0.00254332
0.00257303
0.00254319
0.0025435
0.0025757
0.00254079
0.00257302
0.00254331
0.0025435
0.00254127
0.00253593
0.00250224
0.00253351
0.00253335
0.00250418
0.0025042
0.00253566
0.00250204
0.00253351
0.00253323
0.00250417
0.00250406
0.00253347
0.00250419
0.00250382
0.00253554
0.0025019
0.00253347
0.00250406
0.00250381
0.00250128
0.00249714
0.00246212
0.00249452
0.0024944
0.00246475
0.00246471
0.00249683
0.00246245
0.00249453
0.00249448
0.00246478
0.00246533
0.0024941
0.00246479
0.00246554
0.00249691
0.00246297
0.00249409
0.00246537
0.00246557
0.00246367
0.00245711
0.00242453
0.00245493
0.00245521
0.00242659
0.00242711
0.00245763
0.0024255
0.00245493
0.00245525
0.0024265
0.00242597
0.00245596
0.0024271
0.00242621
0.00245757
0.0024236
0.00245595
0.00242596
0.00242613
0.00242376
0.00241963
0.00238544
0.00241713
0.00241732
0.00238778
0.00238728
0.0024202
0.00238466
0.00241705
0.0024165
0.00238781
0.002388
0.00241642
0.00238725
0.00238748
0.00241866
0.00238593
0.00241636
0.00238798
0.00238751
0.00238531
0.00238028
0.00234737
0.002378
0.00237762
0.00234946
0.00234962
0.00237963
0.00234783
0.00237804
0.00237843
0.00234948
0.00234978
0.00237806
0.00234965
0.00235
0.00238101
0.00234786
0.00237811
0.00234989
0.00235002
0.00234831
0.00234247
0.00230887
0.00234011
0.00234043
0.00231128
0.00231118
0.00234306
0.00230837
0.00234011
0.00234001
0.00231123
0.00231042
0.00234047
0.00231116
0.00231074
0.00234238
0.00230788
0.00234045
0.00231035
0.00231067
0.00230773
0.0023038
0.00227079
0.00230152
0.00230102
0.00227293
0.00227275
0.00230301
0.00227076
0.0023015
0.00230119
0.00227301
0.00227396
0.00230066
0.00227271
0.00227313
0.00230326
0.00227249
0.0023007
0.00227396
0.0022732
0.00227139
0.00226564
0.00223278
0.00226342
0.00226369
0.00223501
0.00223562
0.00226597
0.0022334
0.00226349
0.00226449
0.00223495
0.00223484
0.00226408
0.00223568
0.00223555
0.00226725
0.00223229
0.00226415
0.00223491
0.00223551
0.00223302
0.0022281
0.00219606
0.00222579
0.00222598
0.00219819
0.0021977
0.0022283
0.00219561
0.00222574
0.00222534
0.00219816
0.00219755
0.00222574
0.00219766
0.00219759
0.0022273
0.00219548
0.00222568
0.00219752
0.00219757
0.00219559
0.00219076
0.00215744
0.00218848
0.00218842
0.00215966
0.00215999
0.00219068
0.00215764
0.00218845
0.0021883
0.00215967
0.00216004
0.00218837
0.00216
0.00215994
0.0021906
0.00215776
0.00218835
0.00216005
0.00215994
0.00215743
0.0021527
0.00212081
0.00215047
0.00215045
0.00212288
0.00212226
0.00215259
0.00212002
0.00215049
0.00215052
0.00212289
0.00212235
0.0021503
0.00212222
0.00212232
0.00215271
0.00212015
0.00215031
0.00212232
0.00212233
0.00212028
0.00211562
0.00208232
0.00211333
0.00211293
0.00208467
0.00208501
0.00211509
0.00208288
0.00211335
0.00211304
0.00208469
0.00208513
0.0021131
0.00208504
0.00208516
0.00211524
0.00208298
0.00211312
0.00208516
0.00208517
0.00208292
0.00207747
0.00204585
0.00207541
0.00207572
0.00204789
0.00204791
0.00207795
0.00204575
0.00207541
0.00207579
0.00204789
0.00204785
0.00207576
0.00204791
0.00204777
0.00207802
0.00204565
0.00207577
0.00204785
0.00204777
0.00204558
0.00204098
0.00200866
0.00203874
0.00203864
0.0020109
0.00201083
0.00204082
0.00200863
0.00203873
0.00203857
0.00201089
0.00201081
0.00203851
0.00201082
0.00201081
0.00204072
0.00200862
0.0020385
0.00201079
0.00201081
0.00200866
0.00200369
0.00197166
0.00200157
0.00200158
0.00197381
0.00197391
0.00200372
0.00197175
0.00200156
0.00200157
0.00197381
0.00197389
0.00200159
0.00197392
0.00197394
0.00200372
0.00197173
0.00200159
0.0019739
0.00197394
0.00197178
0.00196679
0.00193512
0.00196465
0.0019647
0.00193724
0.00193714
0.00196685
0.00193499
0.00196465
0.00196469
0.00193724
0.00193715
0.00196474
0.00193714
0.00193715
0.00196683
0.001935
0.00196473
0.00193715
0.00193715
0.00193498
0.00193022
0.00189826
0.00192806
0.00192799
0.00190045
0.00190051
0.00193012
0.00189835
0.00192806
0.00192799
0.00190045
0.0019005
0.00192796
0.00190051
0.00190047
0.00193012
0.00189835
0.00192796
0.0019005
0.00190047
0.00189833
0.00189338
0.00186182
0.00189127
0.00189134
0.00186392
0.0018639
0.00189346
0.00186177
0.00189127
0.00189135
0.00186392
0.00186394
0.00189133
0.0018639
0.00186395
0.00189347
0.0018618
0.00189133
0.00186394
0.00186395
0.00186182
0.00185695
0.00182533
0.00185483
0.0018548
0.00182748
0.00182751
0.00185692
0.00182538
0.00185483
0.00185482
0.00182748
0.00182748
0.00185483
0.00182751
0.00182749
0.00185693
0.00182534
0.00185484
0.00182748
0.00182749
0.00182534
0.00182048
0.00178905
0.00181838
0.0018184
0.00179116
0.00179112
0.00182051
0.001789
0.00181837
0.00181838
0.00179116
0.00179114
0.00181838
0.00179112
0.00179114
0.00182048
0.00178902
0.00181838
0.00179114
0.00179114
0.00178903
0.00178419
0.00175277
0.00178209
0.00178206
0.0017549
0.0017549
0.00178415
0.00175278
0.00178209
0.00178208
0.0017549
0.00175491
0.00178208
0.0017549
0.00175488
0.00178418
0.00175279
0.00178208
0.0017549
0.00175488
0.00175275
0.00174793
0.00171662
0.00174584
0.00174585
0.00171873
0.00171873
0.00174794
0.00171663
0.00174585
0.00174586
0.00171873
0.00171872
0.00174583
0.00171874
0.00171874
0.00174794
0.0017166
0.00174583
0.00171872
0.00171874
0.00171664
0.0017118
0.00168053
0.00170971
0.00170971
0.00168265
0.00168267
0.00171179
0.00168058
0.00170971
0.00170969
0.00168265
0.00168267
0.00170972
0.00168267
0.00168266
0.00171177
0.00168058
0.00170972
0.00168267
0.00168266
0.00168055
0.0016757
0.0016446
0.00167363
0.00167367
0.00164668
0.00164665
0.00167574
0.00164453
0.00167363
0.00167368
0.00164668
0.00164665
0.00167365
0.00164665
0.00164667
0.00167576
0.00164453
0.00167365
0.00164665
0.00164667
0.00164457
0.00163978
0.00160861
0.00163771
0.00163765
0.00161073
0.00161074
0.00163971
0.00160865
0.00163771
0.00163765
0.00161073
0.00161076
0.00163767
0.00161074
0.00161071
0.00163971
0.00160869
0.00163767
0.00161076
0.00161071
0.00160861
0.00160379
0.00157277
0.00160174
0.00160177
0.00157485
0.00157487
0.00160383
0.00157279
0.00160174
0.00160179
0.00157485
0.00157483
0.00160174
0.00157488
0.00157488
0.00160385
0.00157273
0.00160174
0.00157483
0.00157488
0.0015728
0.00156797
0.00153697
0.00156591
0.00156593
0.00153906
0.00153905
0.00156799
0.00153695
0.00156591
0.00156588
0.00153906
0.0015391
0.00156593
0.00153906
0.00153909
0.00156793
0.00153701
0.00156593
0.0015391
0.00153909
0.00153699
0.00153216
0.00150128
0.00153011
0.00153008
0.00150333
0.00150329
0.00153213
0.00150124
0.00153011
0.00153014
0.00150334
0.00150329
0.00153012
0.00150329
0.00150326
0.00153218
0.00150121
0.00153012
0.00150328
0.00150326
0.00150119
0.00149647
0.0014655
0.00149442
0.00149441
0.00146761
0.00146766
0.00149646
0.00146556
0.00149442
0.00149437
0.0014676
0.00146765
0.00149435
0.00146766
0.00146768
0.00149642
0.00146557
0.00149435
0.00146765
0.00146768
0.0014656
0.00146073
0.00142999
0.00145869
0.00145872
0.00143204
0.00143197
0.00146075
0.00142991
0.00145869
0.00145874
0.00143204
0.00143203
0.00145876
0.00143197
0.00143198
0.00146077
0.00142997
0.00145876
0.00143203
0.00143198
0.0014299
0.00142517
0.00139424
0.00142313
0.00142308
0.00139632
0.0013964
0.00142512
0.00139432
0.00142313
0.00142312
0.00139632
0.0013963
0.00142307
0.0013964
0.00139639
0.00142516
0.00139419
0.00142308
0.0013963
0.00139638
0.00139432
0.00138946
0.00135889
0.00138743
0.00138748
0.0013609
0.00136082
0.00138951
0.00135876
0.00138742
0.00138738
0.0013609
0.00136086
0.00138749
0.00136082
0.00136081
0.0013894
0.00135887
0.00138748
0.00136086
0.00136081
0.00135877
0.0013541
0.00132318
0.00135206
0.00135198
0.00132531
0.0013254
0.001354
0.00132329
0.00135206
0.00135206
0.00132532
0.00132533
0.00135196
0.0013254
0.00132539
0.00135411
0.00132316
0.00135196
0.00132533
0.00132539
0.0013233
0.00131838
0.00128777
0.00131637
0.00131645
0.00128978
0.00128976
0.00131845
0.00128773
0.00131638
0.00131638
0.00128979
0.00128987
0.00131648
0.00128975
0.00128974
0.00131836
0.00128791
0.00131648
0.00128987
0.00128975
0.00128771
0.00128297
0.00125228
0.00128094
0.00128093
0.00125435
0.00125436
0.00128297
0.00125222
0.00128095
0.00128108
0.00125435
0.00125423
0.00128093
0.00125437
0.00125448
0.00128314
0.00125199
0.00128094
0.00125423
0.00125448
0.00125235
0.00124755
0.00121693
0.00124552
0.0012454
0.00121903
0.00121891
0.00124738
0.00121696
0.00124551
0.00124521
0.00121903
0.00121898
0.00124547
0.00121886
0.0012186
0.00124718
0.00121712
0.00124546
0.00121894
0.0012186
0.00121662
0.00121197
0.0011811
0.00121002
0.00121021
0.00118317
0.00118356
0.00121224
0.00118131
0.00121003
0.00121033
0.00118318
0.0011835
0.00120997
0.00118364
0.00118398
0.00121239
0.00118121
0.00120997
0.00118357
0.00118398
0.00118188
0.00117659
0.00114686
0.00117458
0.00117439
0.0011488
0.00114792
0.00117636
0.00114603
0.00117457
0.00117436
0.00114882
0.001148
0.00117493
0.00114782
0.00114764
0.00117635
0.00114602
0.00117492
0.00114789
0.00114765
0.0011456
0.00114164
0.00110929
0.00113965
0.00113943
0.00111158
0.00111293
0.00114144
0.00111065
0.00113965
0.0011393
0.00111154
0.00111274
0.00113894
0.00111303
0.00111295
0.00114127
0.00111074
0.00113895
0.00111285
0.00111291
0.00111089
0.00110493
0.00107717
0.00110297
0.00110355
0.00107856
0.00107687
0.00110551
0.00107498
0.00110296
0.00110394
0.00107867
0.00107775
0.00110399
0.00107676
0.0010769
0.00110604
0.00107549
0.00110397
0.00107766
0.00107701
0.0010749
0.00107213
0.00103794
0.00106985
0.00106869
0.0010408
0.0010428
0.00107062
0.00104066
0.0010699
0.00106849
0.00104051
0.00104059
0.00106812
0.00104286
0.00104238
0.00107029
0.00103859
0.00106821
0.00104066
0.00104213
0.00104041
0.00103321
0.00100545
0.00103159
0.00103318
0.00100685
0.00100503
0.00103527
0.00100301
0.00103129
0.00103225
0.00100716
0.00100857
0.00103378
0.00100513
0.00100667
0.00103435
0.00100725
0.00103355
0.00100863
0.00100699
0.00100452
0.00100092
0.000968917
0.00099855
0.000996832
0.000971522
0.000972683
0.000998761
0.000971076
0.000998954
0.000999635
0.000971262
0.000968843
0.000997241
0.000972375
0.000969733
0.00100185
0.000965805
0.000997682
0.000968585
0.000969413
0.000967689
0.000963891
0.000933587
0.000962186
0.000963923
0.000935399
0.000934936
0.000966102
0.000932505
0.000961709
0.000959732
0.000935427
0.000936957
0.000961482
0.000935194
0.000937216
0.000961343
0.000935929
0.000960971
0.000937156
0.000937181
0.000935861
0.000929017
0.000898833
0.000926849
0.000925708
0.000900813
0.000900382
0.000927575
0.000898714
0.000927155
0.00092923
0.000901128
0.000901005
0.00092884
0.000900423
0.000900502
0.000931683
0.000897931
0.000929067
0.000901091
0.000900893
0.000897946
0.000893885
0.000862466
0.00089187
0.000892029
0.000864738
0.000865531
0.000894091
0.000863296
0.000891886
0.000890712
0.000864361
0.00086351
0.000890846
0.000865342
0.000863851
0.000892575
0.000861923
0.000890927
0.00086333
0.000863456
0.000861938
0.000857648
0.000827637
0.00085578
0.00085628
0.000829487
0.000829124
0.000858224
0.000827078
0.000855499
0.000855441
0.000829665
0.000830527
0.000855437
0.000829215
0.000830094
0.000857547
0.000828646
0.000855172
0.000830614
0.00083026
0.000828371
0.000822933
0.000792379
0.000820806
0.000820407
0.000794475
0.00079445
0.000822413
0.000792501
0.000821013
0.000821626
0.000794487
0.000794121
0.000821443
0.000794486
0.000794629
0.000823725
0.000791876
0.000821663
0.000794142
0.000794649
0.00079241
0.00078752
0.000756637
0.00078557
0.000785651
0.000758729
0.000758741
0.000787698
0.000756606
0.000785503
0.000785084
0.000758684
0.000758675
0.000785519
0.000758687
0.000758331
0.000787009
0.000756712
0.000785464
0.000758615
0.000758282
0.000756189
0.000751793
0.000721018
0.000749789
0.000749757
0.000723051
0.000723091
0.000751734
0.000721085
0.000749781
0.000749915
0.000723092
0.000723302
0.000749441
0.000723097
0.000723209
0.000751931
0.000721204
0.000749435
0.000723308
0.000723251
0.000721304
0.000716201
0.000685618
0.000714177
0.000714259
0.000687638
0.000687695
0.000716293
0.000685659
0.000714201
0.000714316
0.000687607
0.000687475
0.000714476
0.000687737
0.000687831
0.000716322
0.000685427
0.0007145
0.000687514
0.000687793
0.000685688
0.000680809
0.000650092
0.000678795
0.000678794
0.000652154
0.000652055
0.000680814
0.000649986
0.000678762
0.000678608
0.000652153
0.000652083
0.000678801
0.00065201
0.000651854
0.000680619
0.000650057
0.000678763
0.000652037
0.000651853
0.000649794
0.000645245
0.000614459
0.000643228
0.000643155
0.000616497
0.000616519
0.000645153
0.000614498
0.000643241
0.000643225
0.000616511
0.000616589
0.00064299
0.000616524
0.000616556
0.000645239
0.000614548
0.000643001
0.000616593
0.000616569
0.000614572
0.000609632
0.000578908
0.000607612
0.00060765
0.000580956
0.000580995
0.000609679
0.000578953
0.000607621
0.00060769
0.000580951
0.000580962
0.000607726
0.000581016
0.000581068
0.000609714
0.000578908
0.000607735
0.000580983
0.000581063
0.000578999
0.000574073
0.000543284
0.000572059
0.000572084
0.000545327
0.000545295
0.000574108
0.000543232
0.000572052
0.000572046
0.000545326
0.000545303
0.000572129
0.000545288
0.000545266
0.000574064
0.000543253
0.000572123
0.000545296
0.000545265
0.000543191
0.000538434
0.000507571
0.000536407
0.000536367
0.000509623
0.000509641
0.00053838
0.000507615
0.000536409
0.000536389
0.000509624
0.000509628
0.000536322
0.000509633
0.000509618
0.000538407
0.00050758
0.000536323
0.00050962
0.000509619
0.000507605
0.000502724
0.000471891
0.0005007
0.000500738
0.000473933
0.000473906
0.000502772
0.000471831
0.000500697
0.000500702
0.000473932
0.000473928
0.000500738
0.000473913
0.000473938
0.00050273
0.000471885
0.000500736
0.000473936
0.000473938
0.000471852
0.000467023
0.000436041
0.000464988
0.000464934
0.000438101
0.000438133
0.000466959
0.000436118
0.000464993
0.000464993
0.000438106
0.000438127
0.000464946
0.000438128
0.000438116
0.000467025
0.000436072
0.00046495
0.000438123
0.000438121
0.000436103
0.000431193
0.000400457
0.000429171
0.00042924
0.000402472
0.00040244
0.000431281
0.000400357
0.000429168
0.000429182
0.000402462
0.000402423
0.000429236
0.000402446
0.00040245
0.000431214
0.000400393
0.000429234
0.000402429
0.00040244
0.000400359
0.000395589
0.00036437
0.000393537
0.000393443
0.000366469
0.000366496
0.000395466
0.000364452
0.000393535
0.000393495
0.000366479
0.000366516
0.000393435
0.000366487
0.000366482
0.000395532
0.000364433
0.000393434
0.000366508
0.000366492
0.000364452
0.000359468
0.000328711
0.000357449
0.000357546
0.000330699
0.000330697
0.000359587
0.000328658
0.000357451
0.000357503
0.000330688
0.000330679
0.000357557
0.000330708
0.000330722
0.000359539
0.000328683
0.00035756
0.000330695
0.000330713
0.000328668
0.000323888
0.000292785
0.000321833
0.000321756
0.000294909
0.000294881
0.0003238
0.000292809
0.000321831
0.000321796
0.000294929
0.000294872
0.000321752
0.000294863
0.000294833
0.000323846
0.000292748
0.00032175
0.000294852
0.000294836
0.000292769
0.000287827
0.000256663
0.000285796
0.000285851
0.000258666
0.00025871
0.000287892
0.000256656
0.000285796
0.000285785
0.000258665
0.000258737
0.00028583
0.000258728
0.000258783
0.000287817
0.000256752
0.000285828
0.000258757
0.000258781
0.000256735
0.00025185
0.000220984
0.000249793
0.000249757
0.000223054
0.000223016
0.000251802
0.000220975
0.0002498
0.000249854
0.000223057
0.000222997
0.000249816
0.000223002
0.000222943
0.000251917
0.000220886
0.000249822
0.000222981
0.000222945
0.00022088
0.000216049
0.000184825
0.000214007
0.000214019
0.00018687
0.000186886
0.00021607
0.000184829
0.000213997
0.000213928
0.000186863
0.00018688
0.000213942
0.000186893
0.000186936
0.000215959
0.000184879
0.000213934
0.00018689
0.000186932
0.000184904
0.000179925
0.000148603
0.000177878
0.000177869
0.00015071
0.000150715
0.000179913
0.000148618
0.000177884
0.000177936
0.000150721
0.000150746
0.000177942
0.000150716
0.000150709
0.000179992
0.000148622
0.00017795
0.000150747
0.000150715
0.00014858
0.000143693
0.000113035
0.000141668
0.000141693
0.000114983
0.000114968
0.000143723
0.000113004
0.000141667
0.000141664
0.000114965
0.000114912
0.00014164
0.000114961
0.000114939
0.000143691
0.000112958
0.00014163
0.0001149
0.000114921
0.000112986
0.000108114
7.631e-05
0.000106062
0.000106014
7.84738e-05
7.84782e-05
0.000108066
7.63304e-05
0.000106049
0.000106014
7.84891e-05
7.85585e-05
0.000106028
7.84849e-05
7.85399e-05
0.000108052
7.64223e-05
0.000106027
7.85742e-05
7.85658e-05
7.64071e-05
7.13147e-05
4.05182e-05
6.93293e-05
6.93664e-05
4.2507e-05
4.25206e-05
7.13556e-05
4.05234e-05
6.93375e-05
6.94136e-05
4.24924e-05
4.24301e-05
6.94136e-05
4.25246e-05
4.2474e-05
7.14255e-05
4.0419e-05
6.94277e-05
4.24217e-05
4.24456e-05
4.04515e-05
3.55272e-05
8.44563e-06
3.3733e-05
3.3708e-05
1.14209e-05
1.13713e-05
3.54988e-05
8.38567e-06
3.37206e-05
3.36368e-05
1.14272e-05
1.14289e-05
3.36405e-05
1.13522e-05
1.1345e-05
3.54094e-05
8.4734e-06
3.36218e-05
1.14121e-05
1.13601e-05
8.38564e-06
5.38599e-06
7.0552e-06
7.0117e-06
5.36132e-06
7.05733e-06
7.06499e-06
6.13043e-06
6.1711e-06
6.15006e-06
7.01281e-06
5.44131e-06
7.01911e-06
0.00362645
0.00363621
0.00363101
0.00363101
0.00365339
0.00364017
0.00366878
0.00363422
0.00365339
0.00364017
0.00363422
0.00366878
0.00364474
0.00367252
0.00367252
0.0035818
0.00360095
0.00361014
0.00357388
0.00357462
0.00357739
0.00358178
0.00360093
0.00361013
0.00357386
0.00360466
0.00360466
0.00360466
0.00356126
0.00356126
0.00356126
0.00356126
0.0035793
0.00360513
0.00360506
0.00358813
0.00360815
0.00357821
0.00358901
0.00357472
0.00357739
0.00357931
0.00360506
0.00360514
0.00358813
0.00360815
0.00358901
0.0035782
0.003611
0.00361099
0.00358253
0.00357784
0.00357784
0.00353517
0.00355445
0.00355581
0.00353371
0.00355336
0.00353327
0.00353517
0.00355444
0.00355581
0.0035337
0.00354931
0.0035493
0.0035493
0.00351172
0.00351172
0.00351172
0.00351172
0.00353376
0.00355453
0.0035493
0.00353744
0.00355332
0.0035343
0.00353717
0.00355336
0.00353326
0.00353376
0.0035493
0.00355453
0.00353743
0.00355331
0.00353717
0.0035343
0.00355555
0.00355554
0.00353399
0.00353463
0.00353463
0.00348291
0.00350171
0.00350279
0.00348189
0.00350135
0.0034816
0.00348291
0.00350171
0.00350279
0.00348188
0.00349856
0.00349856
0.00349856
0.00345918
0.00345918
0.00345918
0.00345918
0.00348201
0.00350211
0.00349843
0.00348539
0.00350155
0.00348237
0.00348529
0.00350135
0.0034816
0.00348201
0.00349843
0.00350211
0.00348539
0.00350155
0.00348529
0.00348237
0.00350236
0.00350236
0.003482
0.00348244
0.00348244
0.00343038
0.00344904
0.0034499
0.00342962
0.00344883
0.00342944
0.00343038
0.00344904
0.0034499
0.00342962
0.00344617
0.00344617
0.00344617
0.00340754
0.00340754
0.00340754
0.00340754
0.00342988
0.00344945
0.00344613
0.00343324
0.00344916
0.00343006
0.0034332
0.00344883
0.00342944
0.00342988
0.00344613
0.00344945
0.00343323
0.00344916
0.0034332
0.00343006
0.00344948
0.00344948
0.00342992
0.00343
0.00343
0.00337919
0.00339754
0.00339818
0.00337863
0.0033974
0.0033785
0.00337919
0.00339754
0.00339817
0.00337863
0.00339482
0.00339482
0.00339482
0.0033572
0.0033572
0.0033572
0.0033572
0.00337892
0.00339789
0.0033948
0.0033822
0.00339772
0.00337902
0.00338217
0.0033974
0.0033785
0.00337892
0.0033948
0.00339789
0.00338219
0.00339772
0.00338217
0.00337902
0.00339788
0.00339788
0.003379
0.00337894
0.00337894
0.00332954
0.00334749
0.00334795
0.00332915
0.00334738
0.00332903
0.00332954
0.00334749
0.00334795
0.00332915
0.00334484
0.00334484
0.00334484
0.00330832
0.00330832
0.00330832
0.00330832
0.00332942
0.0033478
0.00334483
0.00333259
0.00334768
0.00332949