/*--------------------------------*- C++ -*----------------------------------*\
| =========                 |                                                 |
| \\      /  F ield         | OpenFOAM: The Open Source CFD Toolbox           |
|  \\    /   O peration     | Version:  v1906                                 |
|   \\  /    A nd           | Web:      www.OpenFOAM.com                      |
|    \\/     M anipulation  |                                                 |
\*---------------------------------------------------------------------------*/
FoamFile
{
    version     2.0;
    format      ascii;
    class       volScalarField;
    location    "500";
    object      p;
}
// * * * * * * * * * * * * * * * * * * * * * * * * * * * * * * * * * * * * * //

dimensions      [0 2 -2 0 0 0 0];


internalField   nonuniform List<scalar> 
171728
(
0.00168041
0.00168253
0.00168254
0.00168045
0.00168252
0.00168253
0.00168254
0.00168254
0.00168044
0.00168253
0.00168254
0.00168043
0.00168261
0.00168262
0.00168261
0.00168262
0.00168013
0.00168013
0.00168014
0.00168014
0.00169363
0.00168013
0.00168015
0.00169363
0.00168013
0.00169361
0.00168015
0.00169362
0.0016802
0.00168259
0.00169161
0.00168026
0.00169362
0.00169155
0.00168019
0.0016826
0.0016936
0.00169161
0.00168026
0.00168013
0.00169363
0.00169362
0.00168013
0.00168013
0.00169364
0.00169365
0.00168013
0.00169364
0.00168013
0.00168015
0.0016802
0.00168259
0.00168026
0.00168013
0.00168015
0.00168259
0.00168019
0.00168026
0.00169363
0.00169155
0.00168019
0.0016826
0.00169361
0.00169161
0.00168026
0.00169363
0.00168013
0.00169362
0.00168015
0.00169363
0.00169156
0.0016826
0.00168019
0.00169161
0.00169361
0.00168026
0.00169363
0.00168013
0.00169362
0.00168015
0.00168015
0.00168015
0.00168015
0.00168016
0.00169362
0.0016826
0.00168019
0.00169161
0.00168026
0.00169362
0.00169155
0.0016826
0.00168018
0.00169161
0.00169361
0.00168026
0.00169363
0.00168013
0.00168015
0.00169363
0.00168013
0.00169362
0.00168015
0.00169363
0.00168013
0.00168013
0.00169363
0.00169363
0.00168013
0.00169361
0.00168013
0.00169361
0.0016846
0.0016846
0.00168461
0.00168016
0.00168462
0.00168017
0.00168464
0.00168463
0.00168015
0.00168461
0.00168016
0.00168462
0.00168016
0.00168463
0.00168464
0.00168016
0.00168464
0.00168018
0.00168017
0.00168464
0.00168464
0.00168016
0.00168914
0.00169363
0.00169363
0.00168916
0.00169363
0.00168914
0.00168915
0.00168461
0.00168461
0.00168013
0.00168461
0.00168014
0.00168462
0.00168462
0.00168013
0.00168014
0.00168462
0.00168461
0.00168013
0.00168914
0.00169363
0.00169362
0.00168916
0.00169363
0.00168914
0.00168915
0.00168461
0.0016846
0.00168014
0.00168462
0.00168014
0.00168915
0.00169364
0.00168913
0.00169363
0.00168915
0.00168461
0.00168462
0.00168013
0.00168014
0.00168462
0.00168461
0.00168013
0.00168462
0.00168916
0.00168916
0.00169364
0.00169364
0.00169366
0.00168915
0.00168915
0.00168464
0.0016802
0.00168463
0.00168012
0.00168466
0.00168461
0.00168018
0.00168464
0.0016802
0.00168463
0.00168012
0.00168461
0.00168467
0.00168018
0.00168919
0.00169363
0.00169366
0.00168916
0.0016892
0.00169364
0.00168915
0.00168919
0.00169363
0.00169366
0.00168916
0.00169364
0.00168915
0.0016892
0.00168461
0.00168008
0.00168008
0.00168459
0.00168459
0.0016801
0.00168462
0.00168916
0.00168461
0.00168461
0.00168013
0.00168461
0.00168014
0.00168462
0.00168462
0.00168014
0.00168013
0.00168461
0.00168462
0.00168014
0.00168462
0.00168461
0.00168015
0.00168463
0.00168015
0.00168461
0.00168462
0.00168013
0.00168014
0.00168462
0.00168461
0.00168013
0.00168914
0.00169363
0.00169363
0.00168916
0.00169363
0.00168915
0.00168914
0.00168462
0.0016846
0.00168014
0.00168462
0.00168015
0.00168915
0.00169363
0.00168914
0.00169363
0.00168915
0.00168461
0.00168462
0.00168014
0.00168013
0.00168461
0.00168462
0.00168013
0.00168914
0.00169363
0.00169363
0.00168916
0.00169363
0.00168914
0.00168915
0.00168461
0.00168461
0.00168013
0.00168461
0.00168014
0.00168915
0.00169362
0.00168914
0.00169362
0.00168914
0.00168462
0.00168462
0.00168013
0.00168014
0.00168462
0.00168461
0.00168013
0.00168463
0.00168464
0.0016802
0.00168464
0.00168014
0.00168466
0.00168463
0.00168019
0.00168464
0.0016802
0.00168464
0.00168014
0.00168463
0.00168466
0.00168019
0.00168465
0.00168013
0.00168013
0.00168463
0.00168463
0.00168015
0.00168463
0.00168914
0.00169363
0.00169363
0.00168916
0.00169363
0.00168915
0.00168914
0.00168462
0.00168461
0.00168015
0.00168463
0.00168015
0.00168916
0.00168915
0.00168461
0.00168462
0.00168014
0.00168013
0.00168461
0.00168462
0.00168013
0.00168914
0.00169363
0.00169363
0.00168916
0.00169363
0.00168915
0.00168914
0.00168461
0.00168461
0.00168013
0.00168461
0.00168014
0.00168915
0.00169362
0.00168914
0.00169362
0.00168914
0.00168462
0.00168462
0.00168014
0.00168013
0.00168461
0.00168462
0.00168013
0.00168914
0.00169362
0.00169362
0.00169363
0.00168915
0.00168915
0.0016846
0.00168016
0.00168462
0.00168013
0.00168463
0.00168461
0.00168015
0.0016846
0.00168016
0.00168462
0.00168013
0.00168463
0.00168461
0.00168015
0.00168916
0.00169363
0.00169365
0.00168914
0.00169362
0.00168918
0.00168915
0.00168916
0.00169363
0.00169365
0.00168914
0.00169362
0.00168918
0.00168914
0.00168462
0.00168014
0.00168014
0.00168462
0.00168462
0.00168013
0.0016846
0.00168914
0.0016846
0.00168914
0.00168454
0.0016846
0.00168027
0.00168028
0.00168458
0.0016846
0.00168027
0.0016846
0.00168462
0.00168033
0.00168033
0.00168463
0.00168463
0.00168034
0.00168458
0.00168461
0.00168032
0.00168032
0.00168462
0.00168462
0.00168033
0.00168454
0.00168461
0.00168029
0.00168028
0.0016846
0.0016846
0.00168028
0.00168262
0.00168262
0.00169163
0.00169163
0.00168262
0.00169163
0.00168262
0.00168262
0.00169163
0.00169163
0.00169163
0.00168262
0.00168262
0.00168262
0.00169163
0.00169163
0.00168262
0.00169163
0.00168262
0.00168262
0.00169163
0.00169163
0.00169163
0.00168262
0.00168929
0.00169362
0.00169363
0.00168927
0.0016936
0.00168926
0.0016893
0.00168462
0.00168017
0.00168461
0.00168023
0.00168461
0.00168461
0.00168028
0.00168459
0.00168461
0.00168025
0.00168029
0.00168461
0.00168462
0.00168027
0.00168928
0.00169361
0.00169363
0.00168927
0.0016936
0.00168925
0.0016893
0.00168463
0.00168019
0.0016846
0.00168023
0.00168461
0.00168462
0.00168029
0.00168929
0.00169362
0.00169362
0.0016892
0.00169364
0.00168924
0.00168918
0.00168459
0.00168461
0.00168025
0.00168029
0.0016846
0.00168462
0.00168028
0.00168932
0.00168945
0.00169362
0.00169362
0.00168932
0.00169357
0.00168932
0.00168462
0.00168017
0.0016846
0.00168023
0.00168462
0.00168461
0.00168027
0.00168459
0.00168461
0.00168025
0.00168028
0.00168461
0.00168461
0.00168027
0.00168463
0.00168017
0.0016846
0.00168023
0.00168461
0.00168461
0.00168029
0.00168458
0.00168461
0.00168029
0.00168024
0.00168462
0.0016846
0.00168027
0.00168928
0.00169361
0.00169363
0.00168927
0.0016936
0.00168926
0.0016893
0.00168463
0.00168019
0.0016846
0.00168023
0.00168462
0.00168461
0.00168029
0.00168929
0.00169362
0.00169362
0.0016892
0.00169364
0.00168919
0.00168924
0.00168459
0.00168461
0.00168025
0.00168029
0.0016846
0.00168462
0.00168028
0.00168929
0.00169363
0.00169362
0.00168927
0.00169361
0.0016893
0.00168926
0.00168462
0.00168016
0.00168459
0.00168022
0.0016846
0.00168461
0.00168027
0.00168929
0.00169362
0.00169363
0.0016892
0.00169364
0.00168924
0.00168918
0.00168459
0.00168461
0.00168029
0.00168024
0.00168462
0.0016846
0.00168027
0.00168928
0.00169363
0.00169361
0.00168927
0.0016936
0.00168929
0.00168925
0.00168463
0.00168018
0.0016846
0.00168023
0.00168461
0.00168461
0.00168028
0.00168928
0.00168924
0.00168459
0.00168461
0.00168029
0.00168024
0.00168462
0.0016846
0.00168027
0.00168929
0.00169363
0.00169362
0.00168927
0.00169361
0.0016893
0.00168926
0.00168462
0.00168016
0.00168459
0.00168022
0.0016846
0.00168461
0.00168027
0.00168929
0.00169362
0.00169363
0.0016892
0.00169364
0.00168924
0.00168918
0.00168459
0.00168461
0.00168028
0.00168024
0.00168462
0.0016846
0.00168027
0.00168929
0.00168944
0.00169362
0.00169362
0.00169357
0.0016893
0.0016893
0.000785601
0.000785594
0.000785042
0.0007874
0.000751264
0.000787472
0.000756514
0.000785512
0.000785585
0.000758629
0.000758658
0.000787638
0.0007565
0.000785455
0.000785045
0.000758578
0.000758547
0.000785468
0.000758603
0.00075823
0.000786969
0.000756565
0.000785419
0.000758492
0.000758176
0.000756052
0.000749305
0.000749292
0.000774216
0.000787477
0.000774142
0.000787599
0.000787509
0.00077413
0.000774122
0.000787368
0.000774085
0.000787385
0.000785603
0.000785343
0.000785669
0.000758746
0.000758759
0.000758606
0.000758457
0.000774286
0.000787555
0.000785588
0.000776675
0.000774214
0.000776646
0.000787556
0.000787661
0.000774431
0.000774043
0.000785355
0.000787399
0.000776112
0.000776316
0.000774215
0.000787293
0.000787164
0.000787115
0.000774102
0.000774008
0.000773995
0.000752137
0.000752177
0.000787422
0.000774095
0.00078735
0.000774089
0.000787423
0.000787363
0.000774411
0.000774106
0.000774091
0.000756343
0.000769622
0.000756398
0.000769638
0.000769545
0.000756342
0.000756371
0.000769644
0.000769642
0.000774227
0.000787569
0.000774174
0.000787621
0.000774386
0.000787485
0.00078554
0.000776576
0.000774216
0.000776659
0.000787615
0.000774409
0.000787603
0.000785542
0.000776698
0.000774288
0.000776677
0.000787634
0.000769715
0.000756348
0.000769666
0.000756353
0.000769722
0.000756379
0.000769693
0.000756353
0.000769762
0.000767607
0.000756382
0.000758725
0.000769671
0.000767712
0.000756441
0.000769779
0.000767699
0.000756414
0.000758736
0.000769728
0.000767736
0.000756443
0.000787526
0.000787469
0.0007746
0.000774162
0.000774116
0.000787441
0.000774067
0.000756381
0.000769657
0.000769682
0.000756396
0.000756381
0.000769696
0.000769657
0.000756358
0.0007696
0.000774153
0.000787369
0.000785449
0.000776483
0.000774123
0.00077647
0.000787365
0.000774142
0.00078752
0.000774324
0.000787388
0.000774144
0.000785322
0.000787433
0.000776135
0.000776356
0.000774276
0.000787344
0.000769663
0.000756384
0.000769633
0.000756412
0.000769575
0.000767519
0.00075638
0.000758599
0.0007696
0.00076752
0.000756413
0.000769687
0.000756504
0.000769856
0.000756434
0.000769572
0.000767324
0.000758568
0.000756492
0.000767441
0.000769753
0.000756427
0.000774102
0.000787499
0.000774092
0.000787483
0.000774252
0.000785589
0.000787296
0.000776353
0.000776565
0.000774098
0.000787519
0.000774074
0.000787239
0.00077401
0.000787437
0.000769661
0.000767652
0.000756358
0.000758606
0.000769655
0.000767639
0.000756344
0.000769607
0.00075632
0.00076961
0.000756287
0.000769627
0.000767263
0.000758482
0.000756394
0.000767512
0.000769577
0.000756319
0.000769585
0.000756428
0.000769586
0.000756282
0.000787671
0.00078762
0.000774072
0.000774409
0.000774366
0.000787599
0.00077437
0.000756548
0.000769947
0.000769305
0.000756501
0.00075648
0.000769923
0.000769884
0.00075651
0.000769891
0.000774037
0.000785485
0.000787198
0.000776268
0.000776369
0.000774004
0.000787311
0.000774017
0.000787464
0.000774248
0.000787284
0.00077398
0.000787141
0.000773953
0.000787266
0.000769462
0.000767281
0.000758444
0.000756433
0.000767352
0.000769689
0.000756316
0.000769448
0.000767185
0.000758364
0.000756408
0.000767329
0.0007695
0.000756279
0.000769564
0.000756448
0.000769782
0.000756365
0.000769527
0.000756481
0.000769543
0.000756339
0.000787142
0.00077397
0.000787078
0.000773961
0.000769191
0.000756552
0.000756592
0.00076962
0.000769617
0.000756536
0.000769572
0.000756587
0.000769588
0.000749505
0.000751905
0.000751715
0.000752023
0.000751821
0.000751935
0.000752077
0.000752125
0.000752173
0.000778598
0.000774145
0.000774201
0.000778662
0.000778603
0.000778636
0.000774165
0.000783023
0.00078305
0.000787471
0.00078303
0.000787456
0.00077853
0.000774117
0.000778572
0.000778552
0.000774107
0.00078308
0.000783167
0.000787554
0.000787562
0.000783094
0.000783131
0.000787527
0.000783059
0.000778561
0.000778521
0.000774102
0.000774143
0.000778521
0.000778504
0.000778547
0.000774116
0.000782983
0.000782951
0.000787392
0.000782978
0.000787379
0.000778524
0.000774116
0.000778492
0.000778526
0.000774133
0.000782964
0.000782982
0.000787379
0.00078739
0.000782969
0.000782987
0.000787373
0.000783295
0.000778843
0.000778328
0.000774189
0.000774189
0.000778429
0.000778421
0.000774064
0.000782798
0.000787327
0.000782776
0.000787159
0.000782886
0.000782815
0.00078721
0.000782764
0.000787281
0.000782737
0.000787086
0.000782829
0.000782745
0.000787178
0.000778312
0.000774101
0.000778371
0.000773933
0.000778371
0.00077843
0.000773917
0.000778275
0.00077406
0.000778344
0.000773872
0.000778314
0.000778367
0.000773875
0.000782686
0.000787048
0.00078702
0.000782754
0.000782733
0.00078703
0.000747597
0.000751775
0.000752245
0.000747742
0.000751942
0.000747413
0.000747826
0.000747604
0.00075178
0.000752273
0.000747779
0.000751944
0.000747423
0.000747867
0.000747935
0.000752448
0.000752469
0.000752362
0.00074801
0.00074803
0.000782995
0.000778517
0.000782941
0.000778487
0.000778491
0.0007741
0.000774087
0.0007785
0.000778482
0.000774078
0.00078304
0.000787531
0.000782996
0.000787414
0.000783001
0.000783105
0.000787453
0.000783004
0.000787474
0.00078295
0.000787332
0.000782921
0.000783042
0.000787419
0.000778545
0.000774121
0.000778531
0.000774183
0.000778539
0.000774135
0.000778608
0.000778508
0.000774065
0.0007785
0.000774124
0.000778469
0.000774101
0.000778544
0.000782931
0.000787347
0.000787315
0.000782947
0.000782921
0.000787349
0.000760752
0.000765213
0.000760795
0.000765241
0.000765223
0.000769644
0.000769641
0.000769636
0.000765237
0.000765246
0.00076075
0.000756349
0.000760763
0.000756352
0.000760769
0.000760762
0.000756356
0.000760738
0.000756334
0.000760782
0.000756374
0.00076077
0.000760743
0.000756352
0.000765238
0.000769655
0.000769685
0.000765222
0.000769646
0.000765234
0.000765261
0.000765218
0.000769617
0.000769636
0.000765231
0.000769617
0.000765216
0.000765225
0.000760781
0.000756367
0.000756386
0.000760779
0.000760795
0.000756365
0.000778609
0.000774158
0.000774217
0.000778678
0.000778612
0.000778666
0.000774159
0.000783077
0.000783113
0.000787578
0.000783113
0.000787528
0.000778567
0.000774151
0.000778613
0.000778606
0.000774128
0.000783101
0.000783189
0.000787572
0.00078762
0.000783109
0.000783179
0.000787561
0.000765235
0.000769676
0.000769706
0.000765278
0.000769685
0.000765236
0.000765269
0.000760748
0.000760767
0.00075634
0.000756345
0.000760757
0.000765214
0.000769644
0.000765239
0.000769616
0.00076522
0.000760766
0.000760781
0.000756338
0.000756351
0.000756338
0.000760768
0.000760777
0.000765245
0.00076968
0.000769716
0.000765281
0.000769682
0.000765238
0.000765276
0.000760757
0.000760794
0.000756344
0.000760762
0.000756358
0.000765226
0.000769667
0.000765264
0.00076964
0.000765229
0.00076078
0.000760782
0.00075634
0.000756357
0.00076077
0.000760783
0.000756354
0.000778523
0.000774153
0.000774131
0.00077853
0.000778509
0.000774122
0.000783179
0.000787735
0.000783076
0.00078747
0.000783048
0.000783288
0.000787623
0.000783167
0.000787716
0.000783025
0.00078744
0.000783258
0.000783014
0.000787617
0.000778655
0.000774175
0.000778594
0.000774298
0.000778587
0.00077876
0.000774216
0.00077864
0.000774131
0.000778544
0.000774264
0.000778727
0.000778543
0.000774196
0.000782967
0.000787363
0.000787342
0.000782964
0.000782941
0.000787395
0.000782987
0.000778497
0.000760784
0.000765243
0.000765291
0.000769721
0.000769702
0.000769691
0.000765345
0.000765327
0.000760761
0.000756336
0.000760815
0.000756452
0.000760783
0.000760855
0.000756345
0.000760733
0.000756311
0.000760791
0.000756408
0.000760807
0.000760754
0.000756323
0.000765275
0.00076972
0.000769755
0.000765274
0.000765305
0.000769702
0.00076531
0.000765251
0.000769672
0.000769727
0.00076524
0.00076968
0.00076526
0.000765272
0.000760865
0.000756537
0.000756528
0.000760925
0.000760911
0.000756476
0.000760746
0.000765195
0.000778617
0.000774172
0.000774189
0.000778535
0.00077857
0.000778574
0.000774218
0.000783107
0.00078316
0.000787451
0.000783083
0.000787468
0.000778672
0.000774272
0.000778727
0.000778665
0.000774288
0.000783045
0.000782991
0.000787405
0.000787409
0.000783
0.000783022
0.000787436
0.000765277
0.000769645
0.000769706
0.000765266
0.000769679
0.000765242
0.000765302
0.000760831
0.000760782
0.000756397
0.000756433
0.000760807
0.000765289
0.000769666
0.000765231
0.000769678
0.000765259
0.000760835
0.000760809
0.000756392
0.000756443
0.000756428
0.000760788
0.000760858
0.00076536
0.000769736
0.000769738
0.000765293
0.000769775
0.000765327
0.000765338
0.000760953
0.000760948
0.000756508
0.00076094
0.000756531
0.000765429
0.000769824
0.000765431
0.00076983
0.000765405
0.000760904
0.000760835
0.000756459
0.000756464
0.00076088
0.000760875
0.000756477
0.000778476
0.000774108
0.00077403
0.000778539
0.000778551
0.000778472
0.000774034
0.000782959
0.00078303
0.000787471
0.000783006
0.000787412
0.000778454
0.000774068
0.000778531
0.000778512
0.000774023
0.000782967
0.000783039
0.000787507
0.000787409
0.000783054
0.000782955
0.000787426
0.000778426
0.000774008
0.000774046
0.000778506
0.000778445
0.000778466
0.000774003
0.000782784
0.000782837
0.000787245
0.000782811
0.000787215
0.000778311
0.000773937
0.000778397
0.000778348
0.000773915
0.000782892
0.000783001
0.000787375
0.000787366
0.000782923
0.000782943
0.000787329
0.000765139
0.000769612
0.000769564
0.00076518
0.000769563
0.000765182
0.000765139
0.000760703
0.000760726
0.000756321
0.000760721
0.000756328
0.000765152
0.000769593
0.000765189
0.000769551
0.000765174
0.000760691
0.000760697
0.000756286
0.000756293
0.000760699
0.000760694
0.000756286
0.000765153
0.000769548
0.000769577
0.000765163
0.000769557
0.000765129
0.000765167
0.000760704
0.000760787
0.000756337
0.000760699
0.000756374
0.000765117
0.000769506
0.00076521
0.000769482
0.000765115
0.000760729
0.000760685
0.000756292
0.000756307
0.000760683
0.000760705
0.00075633
0.000779004
0.000774576
0.000774554
0.00077906
0.000779041
0.000774526
0.000783167
0.000787325
0.000783292
0.00078779
0.000783396
0.000782973
0.000787518
0.000783156
0.000787303
0.000783244
0.000787771
0.000782945
0.000783368
0.000787504
0.00077871
0.000774475
0.000778844
0.000774171
0.000778926
0.000778541
0.000774332
0.000778697
0.000774435
0.000778802
0.000774142
0.000778504
0.000778893
0.000774313
0.000783474
0.000787976
0.000787959
0.000783564
0.000783544
0.000787893
0.000783232
0.000778782
0.000760999
0.000765503
0.000765514
0.000770024
0.000770003
0.000770011
0.000765514
0.000765496
0.00076096
0.000756497
0.000760967
0.000756492
0.000760883
0.000760968
0.000756556
0.000760938
0.000756471
0.00076094
0.000756447
0.000760921
0.000760854
0.000756531
0.000765453
0.000769967
0.000769717
0.000765463
0.000765345
0.00076985
0.000765491
0.000765429
0.000769922
0.00076969
0.000765431
0.000769835
0.000765443
0.000765312
0.000760989
0.000756437
0.000756429
0.000760957
0.000760941
0.000756488
0.000760959
0.000765454
0.000778487
0.000774081
0.000774033
0.000778411
0.000778473
0.000778429
0.00077409
0.000782996
0.000783093
0.000787367
0.000782987
0.00078736
0.000778561
0.000774187
0.000778654
0.000778569
0.000774187
0.000782924
0.000782867
0.000787331
0.000787276
0.000782929
0.000782863
0.000787332
0.000778355
0.000773951
0.000773994
0.000778379
0.000778344
0.000778391
0.000773968
0.000782759
0.000782746
0.000787178
0.000782765
0.00078715
0.000778318
0.000773938
0.000778321
0.000778326
0.000773949
0.000782786
0.000782855
0.000787222
0.000787241
0.000782807
0.000782828
0.000787194
0.000765255
0.000769631
0.000769609
0.00076518
0.000769654
0.000765239
0.000765225
0.000760902
0.00076088
0.000756487
0.000760901
0.000756506
0.000765356
0.000769752
0.000765356
0.000769741
0.000765348
0.000760817
0.00076074
0.000756392
0.000756419
0.000760788
0.000760806
0.000756415
0.000765191
0.000769506
0.000769571
0.000765141
0.000769553
0.000765129
0.000765194
0.000760804
0.000760818
0.000756417
0.00076076
0.000756472
0.000765198
0.000769516
0.000765196
0.000769532
0.000765152
0.000760793
0.000760705
0.000756358
0.00075641
0.000760708
0.000760783
0.000756438
0.000782752
0.000778327
0.000782709
0.0007783
0.000765514
0.000769898
0.000769908
0.000769787
0.000765623
0.000765633
0.000760745
0.000756193
0.000760904
0.000756693
0.000756392
0.000760563
0.000761063
0.000760722
0.000756192
0.000760937
0.000756706
0.000756384
0.000760542
0.000761061
0.000765151
0.00076975
0.000769429
0.00076529
0.000769471
0.000765007
0.000765453
0.000765131
0.000769726
0.000769375
0.000765304
0.000769441
0.000764967
0.000765438
0.000761156
0.000756897
0.000756916
0.00075678
0.000761255
0.000761269
0.000760866
0.000765244
0.000760922
0.000765285
0.000747652
0.000751944
0.000747657
0.000751986
0.000747598
0.000747559
0.000747435
0.000751873
0.000751859
0.000751919
0.000747504
0.000747489
0.000747709
0.000747762
0.000747811
0.000785607
0.000785575
0.000776671
0.000776713
0.000776642
0.000776697
0.000785608
0.000782924
0.000787353
0.000787339
0.000783216
0.000782998
0.000782994
0.000787223
0.000747475
0.000751494
0.000751488
0.000747258
0.000751635
0.000747311
0.000747308
0.000783166
0.00078752
0.0007875
0.000783376
0.000783234
0.000783223
0.000787421
0.00076066
0.000760594
0.000756429
0.000756416
0.000760695
0.000760678
0.000756426
0.000783369
0.000787747
0.00078776
0.000783593
0.000783484
0.000783478
0.000787657
0.000760642
0.000760625
0.000756397
0.000756386
0.000760699
0.000760683
0.000756374
0.000783041
0.000787066
0.00078708
0.00078288
0.000782866
0.000782861
0.00078718
0.000760835
0.000760548
0.000756586
0.000756578
0.000760783
0.000760771
0.000756628
0.000760385
0.000760136
0.000756059
0.000756052
0.000756227
0.00076029
0.000760267
0.000785603
0.000785642
0.000776717
0.000776725
0.000776723
0.000776722
0.000785636
0.000785497
0.00078552
0.000776373
0.000776541
0.000776533
0.000776625
0.000785568
0.000785685
0.000785632
0.000776574
0.000776694
0.000776612
0.000776675
0.00078563
0.000767713
0.000758812
0.000758761
0.000767778
0.0007677
0.000767763
0.00075882
0.000767763
0.00075881
0.000758746
0.000767787
0.00076775
0.00076777
0.000758806
0.000767468
0.000758701
0.000758638
0.000767609
0.000767567
0.000767687
0.000758763
0.000767479
0.000758657
0.0007586
0.000767689
0.000767586
0.000767688
0.00075874
0.000778709
0.000774302
0.000774396
0.000778625
0.000778652
0.000778676
0.000774441
0.00078339
0.000787743
0.000783167
0.000787603
0.000783351
0.000783251
0.00078765
0.000778735
0.000774287
0.0007786
0.00077435
0.000778784
0.000778656
0.000774418
0.0007834
0.000783235
0.000787593
0.000787608
0.000783262
0.000783356
0.00078763
0.000778302
0.00077406
0.000774065
0.000778356
0.000778337
0.000778379
0.000774051
0.000782936
0.000787235
0.000783079
0.000787279
0.000782863
0.000782936
0.000787236
0.000778309
0.000774098
0.000778565
0.000774034
0.000778369
0.000778402
0.000774045
0.000782992
0.000782955
0.000787345
0.000787294
0.00078303
0.000782965
0.000787276
0.000778209
0.000778273
0.000773956
0.00077394
0.000778289
0.000778263
0.000773911
0.000778484
0.000778511
0.000774287
0.000774268
0.000774236
0.000778575
0.000778542
0.000765326
0.000765452
0.000769629
0.000769598
0.000769564
0.000765349
0.000765333
0.000778713
0.000774352
0.000774487
0.000778723
0.000778689
0.000778743
0.000774467
0.000783302
0.000787596
0.000783125
0.000787553
0.000783216
0.000783214
0.000787562
0.00077866
0.000774286
0.000778586
0.000774285
0.000778636
0.000778674
0.000774375
0.000783385
0.000783319
0.000787596
0.000787596
0.000783285
0.000783388
0.000787607
0.000778787
0.000774407
0.000774515
0.00077875
0.000778758
0.000778773
0.000774539
0.000783432
0.00078775
0.000783232
0.00078767
0.000783338
0.00078339
0.00078767
0.000778803
0.000774375
0.000778672
0.00077442
0.000778751
0.000774499
0.000778839
0.000783445
0.000783344
0.000787652
0.000787623
0.000783353
0.000783413
0.00078764
0.000765498
0.000769739
0.000769796
0.000765414
0.000769762
0.000765391
0.000765513
0.000760754
0.000756398
0.000760755
0.000756399
0.000760797
0.000760752
0.000756456
0.000765417
0.000769696
0.000769732
0.000765298
0.000765341
0.000769713
0.00076534
0.000760783
0.000760787
0.000756429
0.000756518
0.000760774
0.000760807
0.000756514
0.000765539
0.000769777
0.00076982
0.000765426
0.000769821
0.000765417
0.000765531
0.000760781
0.00075639
0.000760788
0.000756406
0.000760772
0.000760805
0.000756461
0.000765479
0.000769758
0.000769834
0.000765343
0.000769807
0.00076538
0.000765395
0.000760803
0.000760793
0.000756433
0.000756523
0.000760787
0.000760818
0.00075652
0.000778642
0.000778721
0.000774454
0.000774451
0.000778775
0.000778778
0.000774345
0.000765345
0.000765538
0.000769729
0.000769717
0.0007654
0.00076962
0.000765392
0.000778467
0.000774152
0.000774185
0.000778459
0.000778465
0.000778449
0.000774212
0.000783146
0.000787491
0.000783007
0.000787384
0.000783049
0.000783083
0.000787449
0.0007785
0.000774157
0.000778478
0.000774148
0.000778485
0.000778543
0.000774209
0.000783156
0.000783047
0.000787374
0.000787408
0.00078305
0.000783121
0.000787429
0.000778361
0.000774158
0.000774153
0.000778446
0.000778414
0.00077845
0.00077413
0.000782976
0.000787252
0.000783117
0.000787331
0.000783015
0.000782894
0.000787261
0.000778356
0.000774177
0.000778621
0.000774087
0.000778477
0.000774105
0.000778413
0.00078303
0.000783029
0.000787361
0.000787333
0.000783078
0.000783022
0.000787287
0.000765308
0.000769576
0.000769537
0.000765276
0.000769545
0.000765268
0.000765292
0.000760675
0.000756354
0.000760729
0.000756397
0.000760725
0.000760717
0.000756408
0.000765298
0.000769598
0.000769621
0.00076525
0.000765243
0.000769576
0.000765272
0.000760653
0.000760706
0.000756401
0.000756423
0.0007607
0.000760657
0.00075643
0.000765282
0.000769518
0.000769595
0.000765279
0.00076949
0.000765282
0.000765304
0.000760695
0.000756485
0.000760857
0.000756472
0.000760784
0.00076082
0.00075647
0.000765284
0.000769639
0.000769615
0.000765392
0.000769517
0.000765331
0.000765292
0.000760657
0.000760715
0.000756432
0.000756453
0.000760656
0.000760745
0.00075646
0.000778555
0.000774337
0.000774214
0.000778587
0.000778619
0.000778545
0.000774287
0.000783158
0.000787442
0.000782946
0.000787407
0.00078302
0.000783069
0.000787458
0.00077848
0.000774143
0.000778433
0.000774045
0.000778449
0.000778486
0.000774172
0.000783268
0.000783196
0.000787574
0.000787464
0.000783306
0.000783143
0.000787526
0.000765426
0.000769676
0.000769688
0.000765313
0.000769712
0.000765318
0.000765394
0.000760716
0.00075633
0.000760728
0.000756353
0.000756401
0.000760745
0.000760709
0.000765406
0.000769679
0.000769757
0.000765274
0.000769731
0.000765325
0.000765307
0.000760694
0.000760686
0.000756346
0.000756389
0.000756411
0.000760694
0.000760681
0.00076529
0.000769628
0.000769599
0.000765282
0.000769562
0.000765338
0.000765255
0.000760524
0.000756158
0.000760721
0.000756273
0.00076062
0.000760536
0.000756229
0.000765187
0.00076955
0.000769484
0.000765237
0.000769493
0.000765198
0.00076508
0.000760573
0.000760658
0.000756344
0.000756311
0.00076063
0.000760647
0.000756311
0.000778443
0.000778088
0.000774111
0.000774114
0.000778304
0.000778301
0.000774265
0.000765461
0.000765315
0.000769547
0.000769541
0.00076536
0.000769654
0.000765356
0.000778339
0.00077406
0.000774022
0.000778357
0.00077835
0.000778344
0.000774058
0.000783028
0.000787354
0.000782846
0.000787272
0.000782911
0.000782923
0.000787369
0.000778342
0.000774009
0.000778335
0.000773924
0.000778339
0.000778344
0.000774025
0.00078307
0.000782969
0.000787387
0.000787293
0.000783061
0.000782949
0.000787384
0.00076518
0.000769407
0.000769498
0.000765161
0.000769397
0.000765156
0.000765204
0.000760635
0.000756426
0.000760796
0.000756413
0.000756403
0.000760757
0.000760718
0.000765223
0.000769562
0.00076956
0.000765327
0.000769452
0.000765222
0.000765259
0.000760547
0.000760596
0.000756292
0.000756359
0.000756346
0.000760522
0.000760646
0.000765113
0.00076939
0.000769438
0.000765138
0.000769365
0.000765128
0.000765122
0.000760432
0.000756113
0.000760704
0.00075628
0.000760571
0.000760464
0.000756163
0.000765071
0.000769446
0.000769384
0.000765179
0.000769369
0.000765116
0.000764978
0.000760445
0.000760565
0.000756243
0.000756271
0.000760484
0.000760556
0.000756212
0.000764981
0.00076502
0.000769264
0.00076923
0.000769193
0.000764927
0.000764908
0.00074733
0.000751655
0.000751712
0.000747573
0.000747322
0.000751591
0.00074741
0.000747376
0.000747395
0.000751661
0.000751715
0.000747396
0.00075162
0.000747399
0.000751647
0.000747614
0.000747341
0.0016736
0.00167354
0.00167354
0.0016756
0.00163765
0.00163752
0.00163752
0.00163961
0.00160172
0.00160162
0.00160165
0.00160364
0.00156586
0.00156579
0.00156573
0.00156787
0.00153009
0.00152994
0.00153001
0.001532
0.00149437
0.00149425
0.00149421
0.00149626
0.00145868
0.00145858
0.0014586
0.00146065
0.00142308
0.00142292
0.00142296
0.00142494
0.00138741
0.00138733
0.00138722
0.00138938
0.00135199
0.00135181
0.00135191
0.00135381
0.00131639
0.00131629
0.00131621
0.00131833
0.00128089
0.00128077
0.00128091
0.00128281
0.00124545
0.00124524
0.00124508
0.00124728
0.00121003
0.00121002
0.00121013
0.00121185
0.00117453
0.00117436
0.00117432
0.00117674
0.00113951
0.00113917
0.00113902
0.00114082
0.0011032
0.00110357
0.00110394
0.00110587
0.00106933
0.00106838
0.00106821
0.00107002
0.00103204
0.00103323
0.00103231
0.00103566
0.000998283
0.000996622
0.000999447
0.000999256
0.000962127
0.000963542
0.000959469
0.000963183
0.000926965
0.000925924
0.000929297
0.000931143
0.000891855
0.00089179
0.000890607
0.000892666
0.000855699
0.000856085
0.000855239
0.000857325
0.000820788
0.000820384
0.000821599
0.000823504
0.00167558
0.00164447
0.00167351
0.00167354
0.00164654
0.00164651
0.00167562
0.0016444
0.00167351
0.00167354
0.00164654
0.00164652
0.00167353
0.00164652
0.00164654
0.00167562
0.00164441
0.00167352
0.00164652
0.00164655
0.00164445
0.00163965
0.00160848
0.00163757
0.00163752
0.0016106
0.0016106
0.00163958
0.00160851
0.00163757
0.00163752
0.0016106
0.00161062
0.00163755
0.0016106
0.00161056
0.00163959
0.00160855
0.00163755
0.00161062
0.00161056
0.00160845
0.00160366
0.00157263
0.00160161
0.00160163
0.0015747
0.00157473
0.00160369
0.00157266
0.00160161
0.00160165
0.0015747
0.00157468
0.00160159
0.00157474