/*--------------------------------*- C++ -*----------------------------------*\
| =========                 |                                                 |
| \\      /  F ield         | OpenFOAM: The Open Source CFD Toolbox           |
|  \\    /   O peration     | Version:  v1906                                 |
|   \\  /    A nd           | Web:      www.OpenFOAM.com                      |
|    \\/     M anipulation  |                                                 |
\*---------------------------------------------------------------------------*/
FoamFile
{
    version     2.0;
    format      ascii;
    class       volScalarField;
    location    "125";
    object      epsilon;
}
// * * * * * * * * * * * * * * * * * * * * * * * * * * * * * * * * * * * * * //

dimensions      [0 2 -3 0 0 0 0];


internalField   nonuniform List<scalar> 
171728
(
4.95567e-07
4.9733e-07
4.9733e-07
4.99575e-07
4.45573e-07
4.53735e-07
4.53737e-07
4.6371e-07
4.03752e-07
4.18513e-07
4.18517e-07
4.39411e-07
3.68363e-07
3.88552e-07
3.88558e-07
4.17667e-07
3.38015e-07
3.62102e-07
3.6211e-07
3.96081e-07
3.11646e-07
3.38273e-07
3.38281e-07
3.74581e-07
2.88473e-07
3.16638e-07
3.16646e-07
3.5371e-07
2.67923e-07
2.97021e-07
2.97031e-07
3.34148e-07
2.49579e-07
2.7937e-07
2.79379e-07
3.16484e-07
2.33137e-07
2.63679e-07
2.63688e-07
3.01161e-07
2.18365e-07
2.49955e-07
2.49964e-07
2.88493e-07
2.05089e-07
2.38198e-07
2.38208e-07
2.78695e-07
1.9317e-07
2.2841e-07
2.2842e-07
2.71876e-07
1.82498e-07
2.206e-07
2.20612e-07
2.68162e-07
1.7298e-07
2.14773e-07
2.14785e-07
2.67642e-07
1.64541e-07
2.10937e-07
2.10952e-07
2.70494e-07
1.57123e-07
2.09107e-07
2.09126e-07
2.76699e-07
1.50668e-07
2.09297e-07
2.09319e-07
2.86285e-07
1.45138e-07
2.11551e-07
2.11578e-07
2.99236e-07
1.40491e-07
2.15886e-07
2.15917e-07
3.15618e-07
1.36708e-07
2.22333e-07
2.22367e-07
3.35372e-07
1.33741e-07
2.30871e-07
2.30907e-07
3.58383e-07
1.31612e-07
2.41537e-07
2.41577e-07
3.84493e-07
1.30219e-07
2.54182e-07
2.54226e-07
4.13233e-07
1.2962e-07
2.68556e-07
2.68603e-07
4.43835e-07
1.2938e-07
2.8371e-07
2.83761e-07
4.74503e-07
1.29506e-07
2.98258e-07
2.98308e-07
5.01461e-07
1.29068e-07
3.08607e-07
3.08665e-07
5.19589e-07
1.26689e-07
3.11691e-07
3.11764e-07
5.26193e-07
1.24288e-07
3.11681e-07
3.11761e-07
5.27023e-07
1.23302e-07
3.11924e-07
3.12006e-07
5.26918e-07
1.23214e-07
3.12531e-07
3.12611e-07
5.27465e-07
1.23307e-07
3.12894e-07
3.12973e-07
5.2784e-07
1.23367e-07
3.1303e-07
3.13109e-07
5.28022e-07
1.23387e-07
3.13066e-07
3.13146e-07
5.28018e-07
1.23393e-07
3.13073e-07
3.13153e-07
5.28027e-07
1.23396e-07
3.13081e-07
3.13161e-07
5.2804e-07
1.23398e-07
3.13086e-07
3.13166e-07
5.28044e-07
1.234e-07
3.13089e-07
3.13169e-07
5.28061e-07
1.23401e-07
3.13091e-07
3.1317e-07
5.28035e-07
1.23403e-07
3.13093e-07
3.13171e-07
5.28045e-07
1.23403e-07
3.13091e-07
3.13171e-07
5.28044e-07
1.23404e-07
3.1309e-07
3.13172e-07
5.28052e-07
1.23405e-07
3.13088e-07
3.13172e-07
5.28034e-07
1.23406e-07
3.13087e-07
3.13171e-07
5.28021e-07
1.23405e-07
3.13086e-07
3.1317e-07
5.28127e-07
1.23405e-07
3.13084e-07
3.13169e-07
5.28114e-07
1.23406e-07
3.13088e-07
3.13173e-07
5.2794e-07
1.23393e-07
3.12978e-07
3.13062e-07
5.27675e-07
1.23398e-07
3.13013e-07
3.13098e-07
5.27817e-07
1.23395e-07
3.13023e-07
3.13106e-07
5.27995e-07
1.23382e-07
3.13017e-07
3.13098e-07
5.28084e-07
1.23379e-07
3.13013e-07
3.13092e-07
5.28076e-07
1.23379e-07
3.13015e-07
3.13094e-07
5.27985e-07
1.23382e-07
3.13023e-07
3.13105e-07
5.2784e-07
1.23385e-07
3.13037e-07
3.1312e-07
5.27822e-07
1.23388e-07
3.13049e-07
3.13131e-07
5.27954e-07
1.23391e-07
3.13055e-07
3.13137e-07
5.27968e-07
1.23393e-07
3.13062e-07
3.13143e-07
5.28033e-07
1.23395e-07
3.13067e-07
3.13148e-07
5.2816e-07
1.23397e-07
3.13071e-07
3.13152e-07
5.28177e-07
1.23398e-07
3.13075e-07
3.13155e-07
5.28065e-07
1.234e-07
3.13079e-07
3.13159e-07
5.27939e-07
1.23402e-07
3.13083e-07
3.13163e-07
5.2789e-07
1.23404e-07
3.13086e-07
3.13166e-07
5.27959e-07
1.23405e-07
3.13088e-07
3.13168e-07
5.28083e-07
1.23406e-07
3.1309e-07
3.1317e-07
5.28151e-07
1.23407e-07
3.13091e-07
3.13171e-07
5.28102e-07
1.23407e-07
3.13089e-07
3.1317e-07
5.28028e-07
1.23408e-07
3.13088e-07
3.13169e-07
5.28054e-07
1.23408e-07
3.13088e-07
3.13169e-07
5.28115e-07
1.23407e-07
3.13086e-07
3.13167e-07
5.28072e-07
1.23407e-07
3.13084e-07
3.13165e-07
5.28006e-07
1.23408e-07
3.13085e-07
3.13166e-07
5.28062e-07
1.23393e-07
3.12966e-07
3.13046e-07
5.27958e-07
1.23398e-07
3.13005e-07
3.13086e-07
5.28072e-07
1.234e-07
3.13027e-07
3.13106e-07
5.28005e-07
1.2339e-07
3.13025e-07
3.13103e-07
5.27824e-07
1.23381e-07
3.13018e-07
3.13097e-07
5.27752e-07
1.2338e-07
3.13015e-07
3.13095e-07
5.27794e-07
1.23381e-07
3.13022e-07
3.13102e-07
5.27885e-07
1.23385e-07
3.13036e-07
3.13114e-07
5.27979e-07
1.23388e-07
3.13047e-07
3.13126e-07
5.28092e-07
1.23391e-07
3.13054e-07
3.13133e-07
5.28069e-07
1.23393e-07
3.13061e-07
3.13139e-07
5.28066e-07
1.23394e-07
3.13065e-07
3.13143e-07
5.281e-07
1.23395e-07
3.13067e-07
3.13146e-07
5.28007e-07
1.23397e-07
3.1307e-07
3.13149e-07
5.27971e-07
1.23398e-07
3.1307e-07
3.13149e-07
5.28009e-07
1.23399e-07
3.13066e-07
3.13146e-07
5.28088e-07
1.23401e-07
3.13054e-07
3.13133e-07
5.28162e-07
1.23402e-07
3.13028e-07
3.13106e-07
5.2814e-07
1.23397e-07
3.12969e-07
3.13045e-07
5.2801e-07
1.23294e-07
3.12885e-07
3.12958e-07
5.27685e-07
1.18482e-07
2.88952e-07
2.88973e-07
4.94041e-07
5.06417e-07
5.05584e-07
5.05582e-07
5.06417e-07
5.05583e-07
5.05582e-07
5.09649e-07
5.09649e-07
5.09649e-07
5.09649e-07
5.05584e-07
5.05584e-07
5.06418e-07
5.05584e-07
5.05583e-07
5.06418e-07
4.99575e-07
4.67237e-07
4.97331e-07
4.97335e-07
4.63713e-07
4.63721e-07
4.99575e-07
4.67235e-07
4.97335e-07
4.97336e-07
4.63718e-07
4.63724e-07
4.97332e-07
4.63709e-07
4.63714e-07
4.99575e-07
4.67241e-07
4.97334e-07
4.63711e-07
4.63719e-07
4.6724e-07
4.63709e-07
4.41426e-07
4.5374e-07
4.53748e-07
4.26739e-07
4.26747e-07
4.63708e-07
4.4142e-07
4.53744e-07
4.53751e-07
4.26739e-07
4.26751e-07
4.53741e-07
4.26729e-07
4.26741e-07
4.63711e-07
4.41431e-07
4.53744e-07
4.26734e-07
4.26741e-07
4.41429e-07
4.39407e-07
4.19283e-07
4.18522e-07
4.1853e-07
3.95676e-07
3.95682e-07
4.39405e-07
4.19275e-07
4.18522e-07
4.18535e-07
3.95672e-07
3.95689e-07
4.18525e-07
3.95663e-07
3.95679e-07
4.39413e-07
4.19289e-07
4.18523e-07
3.95669e-07
3.95673e-07
4.19287e-07
4.17662e-07
3.97645e-07
3.88566e-07
3.88571e-07
3.68461e-07
3.68466e-07
4.17656e-07
3.97636e-07
3.8856e-07
3.88578e-07
3.68452e-07
3.68473e-07
3.88569e-07
3.68444e-07
3.68464e-07
4.17669e-07
3.97651e-07
3.88562e-07
3.68452e-07
3.68454e-07
3.97649e-07
3.96076e-07
3.76086e-07
3.6212e-07
3.62124e-07
3.44033e-07
3.44036e-07
3.96069e-07
3.76076e-07
3.62109e-07
3.62131e-07
3.4402e-07
3.44043e-07
3.62123e-07
3.44013e-07
3.44036e-07
3.96082e-07
3.76091e-07
3.62111e-07
3.44022e-07
3.44021e-07
3.7609e-07
3.74575e-07
3.55112e-07
3.38293e-07
3.38295e-07
3.21875e-07
3.21876e-07
3.74568e-07
3.55101e-07
3.38279e-07
3.38303e-07
3.21858e-07
3.21884e-07
3.38296e-07
3.21853e-07
3.21877e-07
3.74582e-07
3.55117e-07
3.3828e-07
3.21862e-07
3.2186e-07
3.55116e-07
3.53705e-07
3.35395e-07
3.16659e-07
3.16661e-07
3.01763e-07
3.01764e-07
3.53697e-07
3.35385e-07
3.16642e-07
3.16668e-07
3.01745e-07
3.01772e-07
3.16662e-07
3.0174e-07
3.01766e-07
3.5371e-07
3.35401e-07
3.16644e-07
3.0175e-07
3.01746e-07
3.35401e-07
3.34142e-07
3.17533e-07
2.97044e-07
2.97045e-07
2.83623e-07
2.83624e-07
3.34134e-07
3.17523e-07
2.97025e-07
2.97052e-07
2.83603e-07
2.83631e-07
2.97047e-07
2.836e-07
2.83625e-07
3.34148e-07
3.1754e-07
2.97027e-07
2.83609e-07
2.83604e-07
3.17539e-07
3.16478e-07
3.01975e-07
2.79394e-07
2.79394e-07
2.67443e-07
2.67443e-07
3.1647e-07
3.01965e-07
2.79374e-07
2.79402e-07
2.67421e-07
2.6745e-07
2.79396e-07
2.67417e-07
2.67444e-07
3.16485e-07
3.01982e-07
2.79375e-07
2.67427e-07
2.67422e-07
3.01981e-07
3.01155e-07
2.8904e-07
2.63704e-07
2.63704e-07
2.53227e-07
2.53227e-07
3.01147e-07
2.8903e-07
2.63682e-07
2.63711e-07
2.53205e-07
2.53234e-07
2.63705e-07
2.53201e-07
2.53228e-07
3.01162e-07
2.89048e-07
2.63683e-07
2.5321e-07
2.53205e-07
2.89046e-07
2.88486e-07
2.7895e-07
2.49981e-07
2.49981e-07
2.40981e-07
2.40981e-07
2.88477e-07
2.78938e-07
2.49958e-07
2.49989e-07
2.40957e-07
2.40988e-07
2.49982e-07
2.40952e-07
2.40981e-07
2.88493e-07
2.78957e-07
2.49959e-07
2.40962e-07
2.40957e-07
2.78956e-07
2.78688e-07
2.71829e-07
2.38226e-07
2.38227e-07
2.30703e-07
2.30704e-07
2.78678e-07
2.71817e-07
2.38202e-07
2.38234e-07
2.30678e-07
2.30711e-07
2.38227e-07
2.30672e-07
2.30702e-07
2.78696e-07
2.71838e-07
2.38203e-07
2.30682e-07
2.30678e-07
2.71836e-07
2.71868e-07
2.67862e-07
2.2844e-07
2.28442e-07
2.22399e-07
2.224e-07
2.71858e-07
2.67848e-07
2.28416e-07
2.2845e-07
2.22372e-07
2.22408e-07
2.28441e-07
2.22364e-07
2.22397e-07
2.71877e-07
2.67872e-07
2.28416e-07
2.22375e-07
2.22372e-07
2.6787e-07
2.68154e-07
2.66979e-07
2.20633e-07
2.20637e-07
2.16076e-07
2.1608e-07
2.68142e-07
2.66964e-07
2.20608e-07
2.20646e-07
2.16049e-07
2.16089e-07
2.20634e-07
2.16038e-07
2.16075e-07
2.68164e-07
2.66991e-07
2.20608e-07
2.1605e-07
2.16048e-07
2.66989e-07
2.67633e-07
2.69154e-07
2.1481e-07
2.14816e-07
2.11745e-07
2.11753e-07
2.67619e-07
2.69137e-07
2.14784e-07
2.14825e-07
2.11718e-07
2.11762e-07
2.1481e-07
2.11702e-07
2.11743e-07
2.67644e-07
2.69167e-07
2.14783e-07
2.11717e-07
2.11715e-07
2.69165e-07
2.70484e-07
2.74664e-07
2.10981e-07
2.10989e-07
2.09414e-07
2.09423e-07
2.70467e-07
2.74642e-07
2.10954e-07
2.10998e-07
2.09386e-07
2.09435e-07
2.10978e-07
2.09363e-07
2.09409e-07
2.70495e-07
2.74678e-07
2.1095e-07
2.09382e-07
2.0938e-07
2.74676e-07
2.76688e-07
2.83549e-07
2.09158e-07
2.09167e-07
2.09129e-07
2.09137e-07
2.76666e-07
2.83524e-07
2.09131e-07
2.0918e-07
2.09101e-07
2.09154e-07
2.09153e-07
2.09071e-07
2.09122e-07
2.76701e-07
2.83567e-07
2.09124e-07
2.09093e-07
2.09092e-07
2.83563e-07
2.86275e-07
2.95817e-07
2.09356e-07
2.09365e-07
2.10853e-07
2.10859e-07
2.86247e-07
2.95787e-07
2.09328e-07
2.09383e-07
2.10823e-07
2.10882e-07
2.09348e-07
2.10786e-07
2.10843e-07
2.86288e-07
2.95836e-07
2.09319e-07
2.10812e-07
2.10813e-07
2.95832e-07
2.99223e-07
3.11507e-07
2.11618e-07
2.11627e-07
2.14674e-07
2.14683e-07
2.99192e-07
3.11473e-07
2.11589e-07
2.1165e-07
2.14643e-07
2.14709e-07
2.11609e-07
2.14598e-07
2.14662e-07
2.99239e-07
3.11529e-07
2.11579e-07
2.14628e-07
2.14631e-07
3.11524e-07
3.15602e-07
3.30568e-07
2.15962e-07
2.15975e-07
2.20599e-07
2.2062e-07
3.15568e-07
3.30531e-07
2.15933e-07
2.16e-07
2.20569e-07
2.20645e-07
2.15951e-07
2.2052e-07
2.20591e-07
3.15622e-07
3.30595e-07
2.1592e-07
2.20553e-07
2.20558e-07
3.30588e-07
3.35352e-07
3.5291e-07
2.2241e-07
2.22435e-07
2.28613e-07
2.28646e-07
3.35315e-07
3.5287e-07
2.22383e-07
2.22461e-07
2.28586e-07
2.28672e-07
2.22404e-07
2.28533e-07
2.2861e-07
3.35377e-07
3.52943e-07
2.22371e-07
2.28568e-07
2.28576e-07
3.52936e-07
3.58361e-07
3.78374e-07
2.30951e-07
2.30987e-07
2.38779e-07
2.38822e-07
3.58322e-07
3.78332e-07
2.30924e-07
2.31013e-07
2.38752e-07
2.3885e-07
2.30948e-07
2.38695e-07
2.3878e-07
3.58389e-07
3.78412e-07
2.30914e-07
2.38734e-07
2.38744e-07
3.78404e-07
3.84466e-07
4.06549e-07
2.41622e-07
2.41667e-07
2.50905e-07
2.50956e-07
3.84425e-07
4.06503e-07
2.41595e-07
2.41695e-07
2.50876e-07
2.50985e-07
2.41623e-07
2.50815e-07
2.50908e-07
3.84498e-07
4.06592e-07
2.41586e-07
2.50857e-07
2.5087e-07
4.06585e-07
4.13202e-07
4.36826e-07
2.54273e-07
2.54326e-07
2.64961e-07
2.65018e-07
4.13157e-07
4.36778e-07
2.54244e-07
2.54356e-07
2.64928e-07
2.65049e-07
2.54277e-07
2.64863e-07
2.64966e-07
4.13239e-07
4.36874e-07
2.54239e-07
2.64909e-07
2.64929e-07
4.3687e-07
4.43796e-07
4.67443e-07
2.68655e-07
2.68713e-07
2.80003e-07
2.80067e-07
4.43749e-07
4.67392e-07
2.68622e-07
2.68745e-07
2.79968e-07
2.80098e-07
2.6866e-07
2.79899e-07
2.80012e-07
4.43838e-07
4.67493e-07
2.68623e-07
2.79948e-07
2.79974e-07
4.67491e-07
4.74459e-07
4.95389e-07
2.83815e-07
2.83881e-07
2.94924e-07
2.9499e-07
4.7441e-07
4.95337e-07
2.83779e-07
2.83911e-07
2.9488e-07
2.95025e-07
2.83824e-07
2.94814e-07
2.94933e-07
4.74502e-07
4.95454e-07
2.83786e-07
2.94864e-07
2.94891e-07
4.95448e-07
5.01406e-07
5.15419e-07
2.98366e-07
2.98431e-07
3.06815e-07
3.06882e-07
5.01358e-07
5.15371e-07
2.9832e-07
2.9847e-07
3.06766e-07
3.06926e-07
2.98375e-07
3.06705e-07
3.06831e-07
5.01466e-07
5.15493e-07
2.98331e-07
3.06759e-07
3.06781e-07
5.15482e-07
5.19525e-07
5.23931e-07
3.08719e-07
3.08786e-07
3.11554e-07
3.11624e-07
5.19476e-07
5.2387e-07
3.0867e-07
3.08828e-07
3.11509e-07
3.11654e-07
3.08737e-07
3.11432e-07
3.11577e-07
5.19593e-07
5.23993e-07
3.08686e-07
3.11503e-07
3.11526e-07
5.23997e-07
5.26125e-07
5.25342e-07
3.11813e-07
3.11884e-07
3.11845e-07
3.11917e-07
5.26064e-07
5.25271e-07
3.1177e-07
3.11912e-07
3.11806e-07
3.11938e-07
3.11838e-07
3.11718e-07
3.11872e-07
5.26177e-07
5.25388e-07
3.11787e-07
3.11796e-07
3.11825e-07
5.25404e-07
5.26958e-07
5.24993e-07
3.11808e-07
3.11881e-07
3.11902e-07
3.11979e-07
5.26887e-07
5.24922e-07
3.1177e-07
3.119e-07
3.11866e-07
3.11993e-07
3.11837e-07
3.11773e-07
3.11933e-07
5.26995e-07
5.25041e-07
3.1179e-07
3.11854e-07
3.11887e-07
5.25061e-07
5.26848e-07
5.25648e-07
3.12049e-07
3.12119e-07
3.12516e-07
3.12592e-07
5.26777e-07
5.25575e-07
3.12014e-07
3.12139e-07
3.12479e-07
3.12605e-07
3.1208e-07
3.12387e-07
3.12545e-07
5.26884e-07
5.2569e-07
3.12034e-07
3.12466e-07
3.12499e-07
5.25709e-07
5.27404e-07
5.2605e-07
3.12656e-07
3.12731e-07
3.12959e-07
3.13035e-07
5.27334e-07
5.25972e-07
3.1262e-07
3.12746e-07
3.12921e-07
3.13047e-07
3.12685e-07
3.12829e-07
3.12987e-07
5.27439e-07
5.26089e-07
3.12639e-07
3.12907e-07
3.1294e-07
5.2611e-07
5.2778e-07
5.26248e-07
3.13022e-07
3.13097e-07
3.1314e-07
3.13216e-07
5.27704e-07
5.26161e-07
3.12985e-07
3.1311e-07
3.13104e-07
3.13226e-07
3.1305e-07
3.13008e-07
3.13168e-07
5.27811e-07
5.26278e-07
3.13003e-07
3.13087e-07
3.13121e-07
5.26303e-07
5.27968e-07
5.26267e-07
3.1316e-07
3.13236e-07
3.13193e-07
3.13272e-07
5.27883e-07
5.26176e-07
3.13125e-07
3.13246e-07
3.1316e-07
3.13282e-07
3.13188e-07
3.13063e-07
3.1322e-07
5.2799e-07
5.26297e-07
3.13141e-07
3.13142e-07
3.13173e-07
5.26317e-07
5.27968e-07
5.26267e-07
3.13194e-07
3.13277e-07
3.132e-07
3.13283e-07
5.27881e-07
5.26183e-07
3.13162e-07
3.13286e-07
3.13167e-07
3.13292e-07
3.13221e-07
3.13071e-07
3.13227e-07
5.27992e-07
5.26305e-07
3.13174e-07
3.1315e-07
3.1318e-07
5.26317e-07
5.27976e-07
5.2628e-07
3.132e-07
3.13283e-07
3.13208e-07
3.13291e-07
5.27896e-07
5.26199e-07
3.13167e-07
3.13292e-07
3.13174e-07
3.133e-07
3.13227e-07
3.13079e-07
3.13235e-07
5.28008e-07
5.26321e-07
3.1318e-07
3.13159e-07
3.13188e-07
5.26334e-07
5.27985e-07
5.26283e-07
3.13208e-07
3.13291e-07
3.13212e-07
3.13296e-07
5.27907e-07
5.26204e-07
3.13174e-07
3.133e-07
3.13179e-07
3.13306e-07
3.13235e-07
3.13085e-07
3.13241e-07
5.28019e-07
5.26325e-07
3.13188e-07
3.13164e-07
3.13194e-07
5.26341e-07
5.27985e-07
5.2629e-07
3.13212e-07
3.13296e-07
3.13214e-07
3.133e-07
5.27909e-07
5.26212e-07
3.13179e-07
3.13306e-07
3.13182e-07
3.13309e-07
3.13241e-07
3.13088e-07
3.13245e-07
5.28021e-07
5.26333e-07
3.13194e-07
3.13167e-07
3.13198e-07
5.26351e-07
5.27999e-07
5.2626e-07
3.13213e-07
3.13299e-07
3.13214e-07
3.13301e-07
5.27925e-07
5.26184e-07
3.13182e-07
3.13309e-07
3.13184e-07
3.1331e-07
3.13245e-07
3.1309e-07
3.13248e-07
5.28035e-07
5.26304e-07
3.13198e-07
3.13169e-07
3.13201e-07
5.26326e-07
5.27969e-07
5.26287e-07
3.13213e-07
3.13301e-07
3.13213e-07
3.13303e-07
5.27896e-07
5.26211e-07
3.13183e-07
3.13309e-07
3.13185e-07
3.1331e-07
3.13247e-07
3.13092e-07
3.1325e-07
5.28006e-07
5.26326e-07
3.13201e-07
3.1317e-07
3.13203e-07
5.26348e-07
5.27977e-07
5.2628e-07
3.13213e-07
3.13299e-07
3.13215e-07
3.133e-07
5.27911e-07
5.26206e-07
3.13185e-07
3.13309e-07
3.13186e-07
3.1331e-07
3.13249e-07
3.13091e-07
3.1325e-07
5.28016e-07
5.26318e-07
3.13203e-07
3.1317e-07
3.13204e-07
5.26341e-07
5.27979e-07
5.26283e-07
3.13212e-07
3.13297e-07
3.13213e-07
3.13298e-07
5.27907e-07
5.26213e-07
3.13185e-07
3.13309e-07
3.13187e-07
3.13311e-07
3.13249e-07
3.13089e-07
3.1325e-07
5.28015e-07
5.26325e-07
3.13203e-07
3.13171e-07
3.13204e-07
5.26348e-07
5.27981e-07
5.26266e-07
3.13211e-07
3.13295e-07
3.13212e-07
3.13296e-07
5.27912e-07
5.26191e-07
3.13186e-07
3.13309e-07
3.13187e-07
3.13311e-07
3.13249e-07
3.13087e-07
3.1325e-07
5.2802e-07
5.26304e-07
3.13203e-07
3.13171e-07
3.13204e-07
5.26323e-07
5.27967e-07
5.26289e-07
3.1321e-07
3.13294e-07
3.13212e-07
3.13295e-07
5.27898e-07
5.2621e-07
3.13186e-07
3.13309e-07
3.13188e-07
3.13311e-07
3.13249e-07
3.13087e-07
3.13251e-07
5.28006e-07
5.26325e-07
3.13203e-07
3.13171e-07
3.13205e-07
5.26341e-07
5.27968e-07
5.26339e-07
3.1321e-07
3.13292e-07
3.13211e-07
3.13293e-07
5.27893e-07
5.2627e-07
3.13186e-07
3.13309e-07
3.13187e-07
3.1331e-07
3.13249e-07
3.13085e-07
3.1325e-07
5.28003e-07
5.26381e-07
3.13203e-07
3.1317e-07
3.13204e-07
5.26418e-07
5.28053e-07
5.26241e-07
3.1321e-07
3.13291e-07
3.13211e-07
3.13292e-07
5.27986e-07
5.26176e-07
3.13186e-07
3.13308e-07
3.13186e-07
3.13309e-07
3.13248e-07
3.13083e-07
3.13249e-07
5.28093e-07
5.26285e-07
3.13202e-07
3.13168e-07
3.13202e-07
5.26323e-07
5.28027e-07
5.26102e-07
3.13211e-07
3.1329e-07
3.13214e-07
3.13293e-07
5.27971e-07
5.26025e-07
3.13186e-07
3.13308e-07
3.13188e-07
3.13311e-07
3.13248e-07
3.13085e-07
3.13251e-07
5.28074e-07
5.26138e-07
3.13202e-07
3.1317e-07
3.13204e-07
5.26168e-07
5.27861e-07
5.25955e-07
3.13216e-07
3.13294e-07
3.13097e-07
3.13174e-07
5.27795e-07
5.25874e-07
3.1319e-07
3.13313e-07
3.1307e-07
3.13193e-07
3.13252e-07
3.12968e-07
3.13132e-07
5.279e-07
5.25987e-07
3.13206e-07
3.13053e-07
3.13086e-07
5.26e-07
5.27614e-07
5.262e-07
3.13107e-07
3.13183e-07
3.13139e-07
3.13213e-07
5.2754e-07
5.26122e-07
3.1308e-07
3.13202e-07
3.1311e-07
3.13232e-07
3.13141e-07
3.13007e-07
3.13172e-07
5.27647e-07
5.26235e-07
3.13095e-07
3.13092e-07
3.13125e-07
5.26232e-07
5.27779e-07
5.26338e-07
3.13146e-07
3.13219e-07
3.13156e-07
3.13229e-07
5.27704e-07
5.2626e-07
3.13117e-07
3.13238e-07
3.13125e-07
3.13248e-07
3.13178e-07
3.13021e-07
3.13187e-07
5.27813e-07
5.26369e-07
3.13131e-07
3.13105e-07
3.13141e-07
5.26381e-07
5.27958e-07
5.26311e-07
3.13153e-07
3.13226e-07
3.13152e-07
3.13225e-07
5.27886e-07
5.26235e-07
3.13123e-07
3.13245e-07
3.1312e-07
3.13245e-07
3.13184e-07
3.13019e-07
3.13183e-07
5.27989e-07
5.26345e-07
3.13137e-07
3.131e-07
3.13136e-07
5.26379e-07
5.2803e-07
5.26199e-07
3.13149e-07
3.13222e-07
3.13148e-07
3.1322e-07
5.27956e-07
5.26132e-07
3.13117e-07
3.13241e-07
3.13115e-07
3.13239e-07
3.1318e-07
3.13013e-07
3.13178e-07
5.28063e-07
5.26238e-07
3.13132e-07
3.13092e-07
3.13131e-07
5.26281e-07
5.27999e-07
5.26083e-07
3.13146e-07
3.13218e-07
3.13149e-07
3.1322e-07
5.27932e-07
5.26019e-07
3.13113e-07
3.13237e-07
3.13114e-07
3.13238e-07
3.13176e-07
3.13013e-07
3.13179e-07
5.28034e-07
5.26128e-07
3.13129e-07
3.13092e-07
3.13131e-07
5.26153e-07
5.27906e-07
5.26026e-07
3.13149e-07
3.1322e-07
3.13157e-07
3.13227e-07
5.27848e-07
5.25948e-07
3.13114e-07
3.13238e-07
3.1312e-07
3.13245e-07
3.13179e-07
3.13019e-07
3.13186e-07
5.27951e-07
5.2606e-07
3.13131e-07
3.13101e-07
3.13138e-07
5.26069e-07
5.27805e-07
5.26069e-07
3.13158e-07
3.13228e-07
3.1317e-07
3.13241e-07
5.27736e-07
5.25995e-07
3.1312e-07
3.13246e-07
3.13131e-07
3.1326e-07
3.13186e-07
3.13033e-07
3.13197e-07
5.27847e-07
5.26101e-07
3.13138e-07
3.13116e-07
3.13148e-07
5.26152e-07
5.27782e-07
5.26137e-07
3.13171e-07
3.13242e-07
3.13185e-07
3.13253e-07
5.27708e-07
5.26079e-07
3.13133e-07
3.13261e-07
3.13144e-07
3.13272e-07
3.13198e-07
3.13047e-07
3.13213e-07
5.27808e-07
5.26208e-07
3.13149e-07
3.13129e-07
3.13164e-07
5.26308e-07
5.27812e-07
5.2616e-07
3.13185e-07
3.13253e-07
3.13192e-07
3.13259e-07
5.27744e-07
5.26104e-07
3.13144e-07
3.13272e-07
3.13151e-07
3.13278e-07
3.13213e-07
3.13053e-07
3.13218e-07
5.27863e-07
5.26217e-07
3.13164e-07
3.13135e-07
3.13169e-07
5.26312e-07
5.27788e-07
5.26317e-07
3.13192e-07
3.13259e-07
3.13199e-07
3.13266e-07
5.27728e-07
5.26257e-07
3.13151e-07
3.13278e-07
3.13158e-07
3.13285e-07
3.13218e-07
3.1306e-07
3.13225e-07
5.27853e-07
5.26305e-07
3.13169e-07
3.13141e-07
3.13175e-07
5.26391e-07
5.27906e-07
5.26415e-07
3.13199e-07
3.13266e-07
3.13206e-07
3.13272e-07
5.2785e-07
5.26323e-07
3.13158e-07
3.13285e-07
3.13164e-07
3.13291e-07
3.13225e-07
3.13066e-07
3.1323e-07
5.2789e-07
5.26462e-07
3.13175e-07
3.13147e-07
3.13181e-07
5.26469e-07
5.2809e-07
5.26282e-07
3.13206e-07
3.13272e-07
3.1321e-07
3.13276e-07
5.28013e-07
5.26176e-07
3.13163e-07
3.1329e-07
3.13167e-07
3.13294e-07
3.1323e-07
3.1307e-07
3.13233e-07
5.28083e-07
5.26433e-07
3.1318e-07
3.13151e-07
3.13184e-07
5.26397e-07
5.28048e-07
5.26159e-07
3.1321e-07
3.13276e-07
3.13214e-07
3.1328e-07
5.27951e-07
5.26063e-07
3.13167e-07
3.13294e-07
3.13169e-07
3.13297e-07
3.13233e-07
3.13073e-07
3.13236e-07
5.28172e-07
5.26276e-07
3.13184e-07
3.13154e-07
3.13187e-07
5.26253e-07
5.27902e-07
5.26189e-07
3.13214e-07
3.1328e-07
3.13218e-07
3.13284e-07
5.27809e-07
5.261e-07
3.13169e-07
3.13297e-07
3.13172e-07
3.13302e-07
3.13236e-07
3.13078e-07
3.1324e-07
5.28085e-07
5.26164e-07
3.13187e-07
3.13157e-07
3.13191e-07
5.26182e-07
5.27856e-07
5.26298e-07
3.13218e-07
3.13284e-07
3.13223e-07
3.13288e-07
5.27761e-07
5.26216e-07
3.13172e-07
3.13302e-07
3.13177e-07
3.13307e-07
3.1324e-07
3.13082e-07
3.13245e-07
5.2794e-07
5.26178e-07
3.13191e-07
3.13161e-07
3.13196e-07
5.26225e-07
5.27917e-07
5.26389e-07
3.13223e-07
3.13288e-07
3.13228e-07
3.13291e-07
5.27823e-07
5.26316e-07
3.13177e-07
3.13307e-07
3.13182e-07
3.13311e-07
3.13245e-07
3.13085e-07
3.13249e-07
5.27858e-07
5.26315e-07
3.13196e-07
3.13165e-07
3.132e-07
5.26354e-07
5.28018e-07
5.2642e-07
3.13227e-07
3.1329e-07
3.13231e-07
3.13293e-07
5.27933e-07
5.26347e-07
3.13182e-07
3.13311e-07
3.13185e-07
3.13314e-07
3.13249e-07
3.13088e-07
3.13252e-07
5.27928e-07
5.26416e-07
3.132e-07
3.13168e-07
3.13203e-07
5.26461e-07
5.28094e-07
5.264e-07
3.1323e-07
3.13292e-07
3.13233e-07
3.13295e-07
5.28014e-07
5.26318e-07
3.13184e-07
3.13312e-07
3.13187e-07
3.13315e-07
3.1325e-07
3.1309e-07
3.13253e-07
5.28057e-07
5.26384e-07
3.13201e-07
3.13169e-07
3.13204e-07
5.26463e-07
5.28144e-07
5.26276e-07
3.13231e-07
3.13294e-07
3.13233e-07
3.13295e-07
5.28055e-07
5.26196e-07
3.13186e-07
3.13313e-07
3.13187e-07
3.13314e-07
3.13252e-07
3.1309e-07
3.13253e-07
5.28101e-07
5.26279e-07
3.13202e-07
3.1317e-07
3.13203e-07
5.26374e-07
5.28083e-07
5.26145e-07
3.13232e-07
3.13294e-07
3.13232e-07
3.13295e-07
5.27986e-07
5.26093e-07
3.13186e-07
3.13313e-07
3.13187e-07
3.13314e-07
3.13252e-07
3.13088e-07
3.13253e-07
5.28036e-07
5.26197e-07
3.13202e-07
3.13169e-07
3.13202e-07
5.26328e-07
5.27908e-07
5.26236e-07
3.13231e-07
3.13293e-07
3.13232e-07
3.13295e-07
5.27835e-07
5.26191e-07
3.13185e-07
3.13313e-07
3.13186e-07
3.13314e-07
3.13251e-07
3.13088e-07
3.13253e-07
5.2792e-07
5.26271e-07
3.13201e-07
3.13169e-07
3.13202e-07
5.26384e-07
5.27904e-07
5.26325e-07
3.1323e-07
3.13292e-07
3.13231e-07
3.13293e-07
5.27861e-07
5.26243e-07
3.13184e-07
3.13311e-07
3.13185e-07
3.13313e-07
3.1325e-07
3.13087e-07
3.13252e-07
5.27927e-07
5.26349e-07
3.132e-07
3.13168e-07
3.13202e-07
5.26405e-07
5.28015e-07
5.26259e-07
3.13229e-07
3.13292e-07
3.13229e-07
3.13292e-07
5.27947e-07
5.26184e-07
3.13183e-07
3.13311e-07
3.13183e-07
3.13311e-07
3.1325e-07
3.13085e-07
3.1325e-07
5.28031e-07
5.263e-07
3.132e-07
3.13166e-07
3.132e-07
5.26317e-07
5.27971e-07
5.26275e-07
3.13227e-07
3.1329e-07
3.13228e-07
3.1329e-07
5.27902e-07
5.26198e-07
3.13181e-07
3.13309e-07
3.13181e-07
3.13309e-07
3.13249e-07
3.13084e-07
3.13249e-07
5.28009e-07
5.26307e-07
3.13198e-07
3.13164e-07
3.13198e-07
5.26303e-07
5.27966e-07
5.26307e-07
3.13227e-07
3.13289e-07
3.13229e-07
3.13291e-07
5.27904e-07
5.26222e-07
3.13181e-07
3.13308e-07
3.13182e-07
3.1331e-07
3.13248e-07
3.13084e-07
3.13249e-07
5.28005e-07
5.26334e-07
3.13197e-07
3.13165e-07
3.13198e-07
5.26384e-07
5.28013e-07
5.26096e-07
3.13229e-07
3.13291e-07
3.13101e-07
3.13162e-07
5.2796e-07
5.26002e-07
3.13182e-07
3.1331e-07
3.13054e-07
3.13181e-07
3.13249e-07
3.12956e-07
3.13121e-07
5.28054e-07
5.26128e-07
3.13198e-07
3.13036e-07
3.13069e-07
5.2627e-07
5.27858e-07
5.26033e-07
3.13109e-07
3.1317e-07
3.13139e-07
3.132e-07
5.27803e-07
5.25949e-07
3.13062e-07
3.13189e-07
3.13093e-07
3.13219e-07
3.13129e-07
3.12995e-07
3.1316e-07
5.27909e-07
5.26074e-07
3.13077e-07
3.13075e-07
3.13108e-07
5.26289e-07
5.27839e-07
5.26001e-07
3.13149e-07
3.1321e-07
3.13168e-07
3.13229e-07
5.27773e-07
5.25916e-07
3.13103e-07
3.13229e-07
3.13121e-07
3.13248e-07
3.13169e-07
3.13023e-07
3.13188e-07
5.27894e-07
5.26029e-07
3.13117e-07
3.13103e-07
3.13136e-07
5.26182e-07
5.27761e-07
5.26018e-07
3.13169e-07
3.13229e-07
3.13167e-07
3.13229e-07
5.27679e-07
5.25943e-07
3.13122e-07
3.13248e-07
3.13121e-07
3.13249e-07
3.13189e-07
3.13023e-07
3.13187e-07
5.27798e-07
5.26043e-07
3.13137e-07
3.13102e-07
3.13134e-07
5.26061e-07
5.27695e-07
5.26103e-07
3.13167e-07
3.13229e-07
3.13158e-07
3.13223e-07
5.27614e-07
5.2604e-07
3.1312e-07
3.13249e-07
3.13114e-07
3.13242e-07
3.13187e-07
3.13017e-07
3.13181e-07
5.27723e-07
5.26135e-07
3.13134e-07
3.13096e-07
3.13128e-07
5.26078e-07
5.27713e-07
5.26202e-07
3.13157e-07
3.13222e-07
3.13154e-07
3.1322e-07
5.27644e-07
5.2615e-07
3.13114e-07
3.13242e-07
3.13111e-07
3.13239e-07
3.13181e-07
3.13014e-07
3.13178e-07
5.27741e-07
5.2625e-07
3.13128e-07
3.13093e-07
3.13125e-07
5.2618e-07
5.2779e-07
5.26306e-07
3.13154e-07
3.1322e-07
3.13158e-07
3.13223e-07
5.27742e-07
5.26251e-07
3.13111e-07
3.13239e-07
3.13113e-07
3.13241e-07
3.13178e-07
3.13019e-07
3.13182e-07
5.27839e-07
5.26344e-07
3.13125e-07
3.13098e-07
3.13129e-07
5.26283e-07
5.27909e-07
5.26355e-07
3.13158e-07
3.13223e-07
3.1317e-07
3.13235e-07
5.27882e-07
5.26246e-07
3.13113e-07
3.13241e-07
3.13124e-07
3.13255e-07
3.13182e-07
3.1303e-07
3.13192e-07
5.27955e-07
5.26398e-07
3.13129e-07
3.13108e-07
3.13138e-07
5.26365e-07
5.28026e-07
5.26321e-07
3.13174e-07
3.1324e-07
3.13184e-07
3.13248e-07
5.27962e-07
5.26187e-07
3.13127e-07
3.1326e-07
3.13137e-07
3.13268e-07
3.13195e-07
3.13041e-07
3.13206e-07
5.28084e-07
5.26329e-07
3.13141e-07
3.1312e-07
3.13153e-07
5.26424e-07
5.28041e-07
5.26328e-07
3.13188e-07
3.13252e-07
3.13193e-07
3.13256e-07
5.27925e-07
5.26205e-07
3.13141e-07
3.13271e-07
3.13145e-07
3.13274e-07
3.1321e-07
3.13048e-07
3.13214e-07
5.28075e-07
5.26297e-07
3.13157e-07
3.13127e-07
3.1316e-07
5.2637e-07
5.28058e-07
5.26297e-07
3.13196e-07
3.13259e-07
3.13197e-07
3.13259e-07
5.27931e-07
5.26191e-07
3.13148e-07
3.13277e-07
3.13149e-07
3.13279e-07
3.13217e-07
3.13052e-07
3.13217e-07
5.28019e-07
5.26363e-07
3.13164e-07
3.13131e-07
3.13164e-07
5.26368e-07
5.28087e-07
5.26148e-07
3.13201e-07
3.13264e-07
3.13198e-07
3.13261e-07
5.27974e-07
5.26039e-07
3.13154e-07
3.13283e-07
3.13151e-07
3.1328e-07
3.13222e-07
3.13054e-07
3.1322e-07
5.28103e-07
5.26265e-07
3.13168e-07
3.13133e-07
3.13166e-07
5.26361e-07
5.27931e-07
5.26205e-07
3.13205e-07
3.13267e-07
3.13198e-07
3.13261e-07
5.27823e-07
5.26109e-07
3.13158e-07
3.13287e-07
3.13151e-07
3.1328e-07
3.13226e-07
3.13055e-07
3.13218e-07
5.28078e-07
5.26136e-07
3.13173e-07
3.13133e-07
3.13165e-07
5.26269e-07
5.27875e-07
5.26355e-07
3.13207e-07
3.1327e-07
3.13195e-07
3.13259e-07
5.2778e-07
5.26278e-07
3.1316e-07
3.1329e-07
3.13147e-07
3.13278e-07
3.13228e-07
3.13052e-07
3.13215e-07
5.27894e-07
5.26233e-07
3.13175e-07
3.13131e-07
3.13163e-07
5.263e-07
5.2799e-07
5.26423e-07
3.13208e-07
3.13272e-07
3.1319e-07
3.13254e-07
5.27926e-07
5.2633e-07
3.1316e-07
3.13292e-07
3.13141e-07
3.13274e-07
3.13229e-07
3.13047e-07
3.1321e-07
5.27868e-07
5.264e-07
3.13177e-07
3.13127e-07
3.13158e-07
5.26376e-07
5.28093e-07
5.2641e-07
3.13209e-07
3.13272e-07
3.1318e-07
3.13243e-07
5.28032e-07
5.26296e-07
3.1316e-07
3.13293e-07
3.1313e-07
3.13264e-07
3.13229e-07
3.13037e-07
3.132e-07
5.28009e-07
5.26461e-07
3.13177e-07
3.13116e-07
3.13148e-07
5.26464e-07
5.2814e-07
5.26315e-07
3.13206e-07
3.13269e-07
3.1316e-07
3.13222e-07
5.28059e-07
5.26199e-07
3.13156e-07
3.13289e-07
3.13111e-07
3.13244e-07
3.13226e-07
3.13017e-07
3.1318e-07
5.28124e-07
5.26413e-07
3.13174e-07
3.13096e-07
3.13129e-07
5.26491e-07
5.28098e-07
5.26196e-07
3.13194e-07
3.13256e-07
3.13125e-07
3.13187e-07
5.27998e-07
5.26094e-07
3.13145e-07
3.13277e-07
3.13077e-07
3.13207e-07
3.13214e-07
3.12981e-07
3.13145e-07
5.28141e-07
5.26315e-07
3.13162e-07
3.13059e-07
3.13093e-07
5.26416e-07
5.27982e-07
5.26116e-07
3.13169e-07
3.1323e-07
3.1306e-07
3.13119e-07
5.27883e-07
5.26011e-07
3.1312e-07
3.13251e-07
3.13014e-07
3.13142e-07
3.13188e-07
3.12914e-07
3.13079e-07
5.28077e-07
5.26219e-07
3.13136e-07
3.12993e-07
3.13023e-07
5.26304e-07
5.27824e-07
5.26039e-07
3.13112e-07
3.13167e-07
3.12737e-07
3.12789e-07
5.27726e-07
5.25926e-07
3.13064e-07
3.13189e-07
3.12684e-07
3.12807e-07
3.13128e-07
3.12593e-07
3.12756e-07
5.27935e-07
5.26084e-07
3.13071e-07
3.12662e-07
3.12687e-07
5.2611e-07
5.27582e-07
5.11569e-07
3.13031e-07
3.13083e-07
3.00615e-07
3.00667e-07
5.27473e-07
5.11522e-07
3.12978e-07
3.13107e-07
3.00599e-07
3.00651e-07
3.13055e-07
3.00533e-07
3.00625e-07
5.27639e-07
5.1158e-07
3.12981e-07
3.00562e-07
3.00593e-07
5.11587e-07
4.94011e-07
2.8901e-07
2.89055e-07
4.93981e-07
2.89004e-07
2.89038e-07
1.18482e-07
1.18478e-07
1.18482e-07
2.89018e-07
4.94018e-07
2.89e-07
5.35663e-07
5.35601e-07
5.35655e-07
5.35655e-07
5.34573e-07
5.35516e-07
5.33634e-07
5.35654e-07
5.34573e-07
5.35517e-07
5.35654e-07
5.33634e-07
5.35256e-07
5.35986e-07
5.35987e-07
1.10713e-06
3.88088e-06
9.33893e-07
4.6061e-06
1.26081e-05
1.66008e-05
1.10725e-06
3.88112e-06
9.33926e-07
4.60647e-06
4.95567e-07
4.95567e-07
4.95567e-07
4.57231e-07
4.57231e-07
4.57232e-07
4.57232e-07
5.43144e-07
1.22027e-06
4.95565e-07
4.85522e-07
5.25341e-07
1.20946e-06
4.82301e-07
1.26097e-05
1.66034e-05
5.43163e-07
4.95565e-07
1.22025e-06
4.85523e-07
5.25319e-07
4.82302e-07
1.20945e-06
2.52172e-06
2.52242e-06
4.8419e-07
2.37249e-06
2.37288e-06
1.43081e-06
5.59335e-06
1.32966e-06
6.1363e-06
2.12847e-05
2.31102e-05
1.43121e-06
5.59401e-06
1.32972e-06
6.13696e-06
4.45572e-07
4.45573e-07
4.45573e-07
4.13542e-07
4.13542e-07
4.13543e-07
4.13543e-07