/*--------------------------------*- C++ -*----------------------------------*\
| =========                 |                                                 |
| \\      /  F ield         | OpenFOAM: The Open Source CFD Toolbox           |
|  \\    /   O peration     | Version:  v1906                                 |
|   \\  /    A nd           | Web:      www.OpenFOAM.com                      |
|    \\/     M anipulation  |                                                 |
\*---------------------------------------------------------------------------*/
FoamFile
{
    version     2.0;
    format      ascii;
    class       volScalarField;
    location    "125";
    object      epsilon;
}
// * * * * * * * * * * * * * * * * * * * * * * * * * * * * * * * * * * * * * //

dimensions      [0 2 -3 0 0 0 0];


internalField   nonuniform List<scalar> 
171728
(
5.26126e-07
3.13278e-07
3.13296e-07
5.26066e-07
3.13159e-07
3.13311e-07
3.13088e-07
3.13257e-07
5.26175e-07
3.13171e-07
3.13207e-07
5.26202e-07
1.23406e-07
1.23401e-07
1.23417e-07
1.23416e-07
1.82736e-05
1.82752e-05
5.2143e-06
5.21545e-06
3.8442e-06
8.89324e-06
3.84415e-06
3.84429e-06
8.89426e-06
8.89402e-06
3.84419e-06
1.50803e-06
3.04416e-06
1.78685e-07
1.78679e-07
1.50772e-06
1.50809e-06
3.13293e-07
3.04447e-06
1.78704e-07
3.04492e-06
1.78703e-07
1.50778e-06
1.8275e-05
1.82729e-05
5.27912e-07
5.21579e-06
5.21382e-06
5.21595e-06
5.21408e-06
1.82724e-05
1.82702e-05
8.89486e-06
3.84423e-06
3.04442e-06
1.7871e-07
1.50789e-06
8.89433e-06
3.84417e-06
1.78711e-07
3.04452e-06
1.50785e-06
1.50812e-06
3.13086e-07
3.04398e-06
1.78681e-07
3.04447e-06
1.7868e-07
1.50779e-06
3.84433e-06
8.89405e-06
8.89381e-06
3.84426e-06
1.50809e-06
3.13252e-07
1.78693e-07
3.04412e-06
1.78692e-07
3.04458e-06
1.50777e-06
3.84426e-06
8.89402e-06
8.89378e-06
3.84425e-06
1.82756e-05
5.21567e-06
5.21403e-06
1.82742e-05
1.5082e-06
1.78702e-07
3.04415e-06
1.78697e-07
1.50786e-06
1.50824e-06
3.13202e-07
1.78709e-07
3.0446e-06
1.78707e-07
3.04505e-06
1.50789e-06
3.8442e-06
8.89415e-06
3.84416e-06
3.84428e-06
8.89512e-06
8.89488e-06
3.84423e-06
5.28031e-07
5.21403e-06
5.21593e-06
5.21422e-06
5.2161e-06
1.82742e-05
1.82722e-05
1.82759e-05
1.82738e-05
1.82714e-05
1.82734e-05
4.13488e-06
2.25025e-06
5.21437e-06
9.11196e-06
9.11089e-06
2.24932e-06
4.13724e-06
4.14226e-06
2.24958e-06
5.21605e-06
9.11488e-06
9.11535e-06
2.25087e-06
4.13967e-06
9.63357e-06
2.16921e-05
2.16901e-05
2.16888e-05
2.16877e-05
9.63317e-06
1.20985e-05
1.06998e-05
4.56552e-06
3.84406e-06
1.20978e-05
1.07002e-05
4.56555e-06
2.21094e-05
8.89294e-06
7.09926e-06
7.09959e-06
2.21135e-05
1.20978e-05
3.84419e-06
1.07002e-05
4.56556e-06
1.06998e-05
4.56554e-06
1.20985e-05
1.20987e-05
1.07e-05
4.56571e-06
3.84414e-06
1.20981e-05
1.07004e-05
4.5658e-06
2.21099e-05
8.89402e-06
7.10103e-06
7.10109e-06
2.21138e-05
2.21138e-05
7.10108e-06
8.89426e-06
2.211e-05
7.10101e-06
1.20981e-05
3.8443e-06
1.07004e-05
4.56581e-06
1.07e-05
4.56572e-06
1.20987e-05
1.82729e-05
1.8275e-05
9.63302e-06
2.16876e-05
2.1688e-05
9.63324e-06
2.16905e-05
2.16909e-05
4.14175e-06
2.2506e-06
5.21596e-06
9.11555e-06
2.25074e-06
9.11525e-06
4.14165e-06
4.13515e-06
2.24906e-06
5.21409e-06
9.11073e-06
9.11043e-06
2.2492e-06
4.13498e-06
4.14156e-06
9.11525e-06
2.25073e-06
5.21577e-06
2.25051e-06
4.14173e-06
9.11555e-06
4.13498e-06
9.11043e-06
2.2492e-06
5.21381e-06
4.13514e-06
9.11073e-06
2.24898e-06
9.63324e-06
2.16904e-05
2.16909e-05
2.16876e-05
2.1688e-05
9.63302e-06
1.82702e-05
1.82724e-05
2.21096e-05
8.89467e-06
7.10092e-06
7.10091e-06
2.21135e-05
1.20982e-05
3.84425e-06
4.56576e-06
1.07009e-05
4.56564e-06
1.07005e-05
1.20988e-05
2.21096e-05
8.89409e-06
7.09938e-06
7.09967e-06
2.21137e-05
1.20982e-05
3.84422e-06
1.07007e-05
4.56564e-06
1.07003e-05
4.56561e-06
1.20989e-05
1.20984e-05
4.56558e-06
1.07002e-05
3.84419e-06
1.20978e-05
4.56568e-06
1.07006e-05
2.21088e-05
8.89381e-06
7.10058e-06
7.10058e-06
2.21127e-05
2.21127e-05
7.10056e-06
8.89404e-06
2.21088e-05
7.10057e-06
1.20978e-05
3.84433e-06
4.56569e-06
1.07006e-05
4.56559e-06
1.07002e-05
1.20984e-05
1.20987e-05
1.07001e-05
4.56542e-06
3.84411e-06
1.20981e-05
1.07004e-05
4.56551e-06
2.21091e-05
8.89378e-06
7.09896e-06
7.09904e-06
2.2113e-05
2.2113e-05
7.09903e-06
8.89401e-06
2.21092e-05
7.09894e-06
1.20981e-05
3.84424e-06
1.07004e-05
4.56552e-06
1.07001e-05
4.56543e-06
1.20987e-05
1.82734e-05
4.14211e-06
2.2507e-06
5.21592e-06
9.11558e-06
2.25085e-06
9.11527e-06
4.14193e-06
4.13554e-06
2.24932e-06
5.21423e-06
9.11078e-06
9.11049e-06
2.24948e-06
4.1354e-06
9.63409e-06
2.16915e-05
2.16916e-05
2.16886e-05
2.16887e-05
9.63386e-06
1.82721e-05
1.20987e-05
4.56537e-06
1.07004e-05
3.84411e-06
1.20981e-05
4.56546e-06
1.07008e-05
2.21093e-05
8.89391e-06
7.09905e-06
7.09904e-06
2.21132e-05
2.21132e-05
7.09901e-06
1.20981e-05
3.8442e-06
4.56549e-06
1.07008e-05
4.56538e-06
1.07004e-05
1.20987e-05
1.20986e-05
4.56571e-06
1.07005e-05
3.84419e-06
1.20979e-05
4.56574e-06
1.07009e-05
2.21092e-05
8.89488e-06
7.10074e-06
7.10106e-06
2.21134e-05
2.21135e-05
7.10105e-06
8.89512e-06
2.21093e-05
7.10076e-06
1.20979e-05
3.84429e-06
4.56575e-06
1.07009e-05
4.56571e-06
1.07005e-05
1.20986e-05
9.6334e-06
2.16884e-05
2.1688e-05
9.63364e-06
2.16913e-05
2.16908e-05
4.13534e-06
2.24927e-06
5.21423e-06
9.11082e-06
2.24941e-06
9.11051e-06
4.13515e-06
4.1419e-06
2.25072e-06
5.2161e-06
9.11578e-06
2.25083e-06
9.11548e-06
4.14183e-06
4.13516e-06
9.11051e-06
2.2494e-06
5.21402e-06
4.13532e-06
2.24918e-06
9.11082e-06
4.14173e-06
9.11548e-06
2.25084e-06
5.21592e-06
4.14189e-06
2.25063e-06
9.11578e-06
9.63364e-06
2.16913e-05
2.16908e-05
2.16884e-05
2.1688e-05
9.6334e-06
1.82722e-05
1.82743e-05
1.82738e-05
1.82759e-05
2.06839e-06
5.27834e-07
1.07794e-06
1.07717e-06
1.07861e-06
1.07879e-06
2.06795e-06
2.06832e-06
5.27764e-07
1.0777e-06
1.07738e-06
1.07876e-06
1.07844e-06
2.06786e-06
2.06851e-06
5.27868e-07
1.07779e-06
1.07755e-06
1.07885e-06
1.0786e-06
2.06806e-06
2.06844e-06
5.2789e-07
1.07751e-06
1.07785e-06
1.07856e-06
1.07891e-06
2.068e-06
9.12014e-08
9.11973e-08
9.12017e-08
7.72333e-08
7.72335e-08
1.23401e-07
9.12026e-08
9.11926e-08
9.12027e-08
9.11927e-08
7.72326e-08
7.72328e-08
9.12076e-08
9.1202e-08
9.12019e-08
7.72359e-08
7.72363e-08
1.23415e-07
9.12046e-08
9.12001e-08
9.12047e-08
9.12002e-08
7.72349e-08
7.7235e-08
6.95392e-07
1.80529e-06
5.79076e-07
1.50761e-06
6.96991e-07
1.80476e-06
5.78086e-07
9.27078e-07
1.34349e-06
3.04458e-06
2.37748e-06
1.34432e-06
2.37804e-06
9.25504e-07
6.96999e-07
1.50805e-06
1.80488e-06
5.78086e-07
1.80532e-06
5.79072e-07
6.95401e-07
6.9553e-07
1.80559e-06
5.79122e-07
1.50767e-06
6.97134e-07
1.80504e-06
5.78133e-07
9.27351e-07
1.34368e-06
3.04492e-06
2.37805e-06
2.37865e-06
1.34468e-06
9.2574e-07
9.25732e-07
2.37865e-06
1.34468e-06
3.04445e-06
9.27333e-07
2.378e-06
1.34367e-06
6.97131e-07
1.50812e-06
1.80513e-06
5.78124e-07
1.80559e-06
5.79117e-07
6.95524e-07
2.06786e-06
5.2611e-07
1.07877e-06
1.07844e-06
1.07768e-06
2.06831e-06
1.07736e-06
9.27296e-07
1.34343e-06
3.04494e-06
2.37793e-06
1.34457e-06
2.37854e-06
9.25643e-07
6.97193e-07
1.50824e-06
1.80512e-06
5.78195e-07
1.80557e-06
5.79188e-07
6.95565e-07
9.27239e-07
1.34368e-06
3.04502e-06
2.37759e-06
2.37816e-06
1.34467e-06
9.25631e-07
6.97122e-07
1.5082e-06
5.78175e-07
1.805e-06
5.79163e-07
1.80544e-06
6.95504e-07
6.95457e-07
1.80548e-06
5.79093e-07
1.50769e-06
6.97068e-07
1.80492e-06
5.78106e-07
9.2711e-07
1.3431e-06
3.04447e-06
2.37774e-06
1.34408e-06
2.37836e-06
9.25483e-07
9.25479e-07
2.37837e-06
1.34408e-06
3.04396e-06
9.27096e-07
1.34308e-06
2.3777e-06
6.97065e-07
1.50814e-06
1.80502e-06
5.78105e-07
1.80549e-06
5.79091e-07
6.95452e-07
6.95469e-07
5.79082e-07
1.80541e-06
1.50768e-06
6.97069e-07
5.78103e-07
1.80486e-06
9.27149e-07
1.34332e-06
3.04458e-06
2.37748e-06
2.37808e-06
1.3443e-06
9.25542e-07
9.25537e-07
2.37809e-06
1.3443e-06
3.04411e-06
9.27133e-07
2.37744e-06
1.34331e-06
6.97065e-07
1.50811e-06
5.78101e-07
1.80495e-06
5.7908e-07
1.80541e-06
6.95462e-07
6.95527e-07
5.79198e-07
1.80541e-06
1.50776e-06
6.97136e-07
5.78212e-07
1.80483e-06
9.27149e-07
1.34328e-06
3.0446e-06
2.37747e-06
1.34427e-06
2.37803e-06
9.25524e-07
9.25517e-07
2.37737e-06
6.97132e-07
1.50823e-06
5.78206e-07
1.80498e-06
5.79194e-07
1.80543e-06
6.95526e-07
6.95641e-07
5.79229e-07
1.80562e-06
1.5078e-06
6.97248e-07
5.78246e-07
1.80506e-06
9.27364e-07
1.34371e-06
3.04505e-06
2.37794e-06
2.37854e-06
1.3447e-06
9.25738e-07
9.25735e-07
2.37856e-06
1.3447e-06
3.04458e-06
9.27353e-07
2.37792e-06
1.3437e-06
6.97245e-07
1.50827e-06
5.78236e-07
1.80513e-06
5.79227e-07
1.80562e-06
6.95635e-07
2.068e-06
5.26241e-07
1.07856e-06
1.07891e-06
2.06843e-06
1.07749e-06
1.07783e-06
1.23408e-07
3.13086e-07
3.13167e-07
5.2806e-07
5.2796e-07
5.27948e-07
5.26244e-07
3.13229e-07
3.13292e-07
3.1323e-07
3.13293e-07
5.27904e-07
5.26172e-07
3.13183e-07
3.13311e-07
3.13184e-07
3.13312e-07
3.1325e-07
3.13087e-07
3.13251e-07
5.28013e-07
5.26306e-07
3.132e-07
3.13167e-07
3.132e-07
5.26255e-07
3.13252e-07
3.13201e-07
3.84402e-06
8.89282e-06
8.89306e-06
3.84415e-06
1.82727e-05
1.82748e-05
3.84417e-06
8.89461e-06
8.89486e-06
3.84424e-06
1.23403e-07
1.23421e-07
1.23417e-07
1.23408e-07
1.23402e-07
1.2342e-07
1.23416e-07
1.50767e-06
3.04445e-06
1.78682e-07
3.13085e-07
3.04396e-06
1.78681e-07
1.50809e-06
1.82734e-05
1.82756e-05
1.50769e-06
1.78691e-07
3.04459e-06
3.13166e-07
1.7869e-07
3.04413e-06
1.50811e-06
5.21419e-06
5.2161e-06
5.26404e-07
5.214e-06
5.21593e-06
5.21422e-06
5.21613e-06
1.82712e-05
1.82733e-05
1.82733e-05
1.82754e-05
5.21403e-06
5.21594e-06
5.26332e-07
5.21386e-06
5.21577e-06
1.82733e-05
1.82712e-05
1.82754e-05
1.82733e-05
5.28052e-07
5.21388e-06
5.21578e-06
5.21404e-06
5.21594e-06
3.84411e-06
8.894e-06
8.89424e-06
3.84424e-06
1.50758e-06
3.04443e-06
1.78681e-07
3.13229e-07
3.04397e-06
1.78681e-07
1.50799e-06
1.50764e-06
3.04489e-06
1.78702e-07
3.13291e-07
3.04442e-06
1.78702e-07
1.50806e-06
3.84417e-06
8.89306e-06
8.89282e-06
3.84404e-06
3.84426e-06
8.89425e-06
8.894e-06
3.84413e-06
1.50801e-06
3.13229e-07
3.04398e-06
1.78681e-07
3.04441e-06
1.78681e-07
1.50759e-06
1.50808e-06
3.13292e-07
3.04443e-06
1.78703e-07
3.04487e-06
1.78702e-07
1.50766e-06
5.21583e-06
5.21406e-06
5.26239e-07
5.21566e-06
5.2138e-06
1.82702e-05
1.82724e-05
1.82748e-05
1.82727e-05
5.27938e-07
5.21567e-06
5.21381e-06
5.21583e-06
5.21406e-06
1.82724e-05
1.82702e-05
1.50779e-06
3.04503e-06
1.78707e-07
3.13182e-07
3.04455e-06
1.78708e-07
1.5082e-06
3.8441e-06
8.89407e-06
8.89432e-06
3.84417e-06
1.50773e-06
1.78716e-07
3.045e-06
3.1331e-07
1.78715e-07
3.0445e-06
1.50814e-06
3.84426e-06
8.89486e-06
8.89462e-06
3.8442e-06
1.50822e-06
3.13183e-07
3.04454e-06
1.78709e-07
3.04503e-06
1.78707e-07
1.5078e-06
3.84419e-06
8.89432e-06
8.89408e-06
3.84413e-06
1.50816e-06
3.13311e-07
1.78716e-07
3.0445e-06
1.78715e-07
3.045e-06
1.50774e-06
3.84415e-06
8.89379e-06
8.89403e-06
3.84429e-06
1.50764e-06
1.78693e-07
3.04456e-06
3.13249e-07
1.78692e-07
3.0441e-06
1.50806e-06
3.84407e-06
8.89376e-06
8.894e-06
3.84421e-06
1.50809e-06
3.13086e-07
3.04396e-06
1.78681e-07
3.04446e-06
1.78681e-07
1.50768e-06
3.84431e-06
8.89404e-06
8.8938e-06
3.84418e-06
1.50807e-06
3.1325e-07
1.78692e-07
3.0441e-06
1.78692e-07
3.04455e-06
1.50766e-06
3.84423e-06
8.89401e-06
8.89376e-06
3.8441e-06
5.21591e-06
5.21419e-06
5.26324e-07
5.21565e-06
5.21401e-06
1.82722e-05
1.82742e-05
1.82756e-05
1.82734e-05
5.28023e-07
5.21566e-06
5.21403e-06
5.21592e-06
5.21419e-06
1.82742e-05
1.82722e-05
1.50775e-06
1.78709e-07
3.04506e-06
3.13198e-07
1.78708e-07
3.04459e-06
1.50816e-06
3.84408e-06
8.89391e-06
8.89414e-06
3.84423e-06
3.84414e-06
8.89473e-06
8.89498e-06
3.84422e-06
1.50812e-06
3.13166e-07
1.7869e-07
3.04414e-06
1.7869e-07
3.04457e-06
1.50771e-06
1.50817e-06
3.13199e-07
1.78708e-07
3.0446e-06
1.78708e-07
3.04505e-06
1.50776e-06
3.84425e-06
8.89416e-06
8.89391e-06
3.8441e-06
3.84424e-06
8.89498e-06
8.89474e-06
3.84416e-06
1.82722e-05
1.82743e-05
1.82738e-05
1.82759e-05
5.28069e-07
5.21402e-06
5.21594e-06
5.2142e-06
5.2161e-06
1.82742e-05
1.82722e-05
1.82758e-05
1.82738e-05
1.78693e-07
3.04456e-06
1.50808e-06
8.89377e-06
3.84423e-06
3.04506e-06
8.89474e-06
1.82722e-05
1.82738e-05
1.20978e-05
1.07002e-05
4.5655e-06
3.84416e-06
1.06998e-05
4.56547e-06
1.20985e-05
2.21135e-05
8.89305e-06
7.09944e-06
7.09914e-06
2.21094e-05
2.21094e-05
7.09915e-06
8.89282e-06
7.09945e-06
2.21135e-05
1.20985e-05
3.84401e-06
1.06998e-05
4.56546e-06
1.07002e-05
4.56549e-06
1.20978e-05
1.82748e-05
1.82727e-05
1.20982e-05
4.56575e-06
1.07009e-05
3.84424e-06
4.56563e-06
1.07005e-05
1.20988e-05
2.21135e-05
8.89485e-06
7.10087e-06
7.10086e-06
2.21096e-05
2.21096e-05
7.10087e-06
8.89462e-06
7.10088e-06
2.21135e-05
1.20988e-05
3.84414e-06
4.56563e-06
1.07005e-05
4.56572e-06
1.07009e-05
1.20982e-05
1.82756e-05
1.82734e-05
9.63366e-06
2.16913e-05
2.16909e-05
2.16885e-05
2.1688e-05
9.63342e-06
4.13513e-06
2.24938e-06
5.214e-06
9.1105e-06
2.24916e-06
9.1108e-06
4.1353e-06
4.14171e-06
2.25082e-06
5.21592e-06
9.11548e-06
2.25061e-06
9.11578e-06
4.14187e-06
4.13529e-06
9.11081e-06
5.2142e-06
2.24916e-06
2.24938e-06
9.1105e-06
4.13513e-06
4.14187e-06
9.11579e-06
5.2161e-06
2.25061e-06
2.25082e-06
9.11548e-06
4.14171e-06
9.63342e-06
2.16885e-05
2.1688e-05
2.16914e-05
2.16909e-05
9.63366e-06
4.13516e-06
2.2494e-06
9.11051e-06
5.21402e-06
4.13532e-06
2.24926e-06
9.11081e-06
4.14183e-06
2.25083e-06
9.11549e-06
5.21595e-06
4.1419e-06
2.25071e-06
9.11579e-06
9.63341e-06
2.16884e-05
2.1688e-05
9.63365e-06
2.16913e-05
2.16908e-05
1.82733e-05
1.82712e-05
1.82754e-05
1.82733e-05
9.63354e-06
2.16915e-05
2.1691e-05
2.16886e-05
2.16881e-05
9.6333e-06
4.13511e-06
2.24933e-06
5.21385e-06
9.11058e-06
9.11088e-06
2.24913e-06
4.13527e-06
4.14164e-06
2.25073e-06
5.21576e-06
9.11564e-06
9.11594e-06
2.25051e-06
4.14177e-06
4.13527e-06
9.11088e-06
5.21403e-06
2.24914e-06
9.11058e-06
4.13512e-06
2.24933e-06
4.14177e-06
9.11595e-06
5.21594e-06
2.25052e-06
9.11564e-06
4.14164e-06
2.25073e-06
9.6333e-06
2.16886e-05
2.16881e-05
2.16915e-05
2.1691e-05
9.63354e-06
1.82712e-05
1.82733e-05
1.82733e-05
1.82754e-05
9.6333e-06
2.16886e-05
2.16881e-05
9.63354e-06
2.16915e-05
2.1691e-05
4.1353e-06
2.24915e-06
5.21405e-06
9.11089e-06
9.11059e-06
2.24935e-06
4.13514e-06
4.1418e-06
2.25054e-06
5.21595e-06
9.11595e-06
9.11565e-06
2.25075e-06
4.14165e-06
4.13513e-06
9.11058e-06
2.24934e-06
5.21387e-06
4.13528e-06
9.11088e-06
2.24914e-06
4.14165e-06
9.11564e-06
2.25074e-06
5.21577e-06
4.14178e-06
9.11595e-06
2.25053e-06
9.63354e-06
2.16914e-05
2.1691e-05
2.16886e-05
2.16881e-05
9.6333e-06
1.20981e-05
1.07004e-05
4.56579e-06
3.84426e-06
1.07e-05
4.56569e-06
1.20987e-05
2.21138e-05
8.89424e-06
7.10106e-06
7.10099e-06
2.21099e-05
2.21099e-05
7.101e-06
8.894e-06
7.10106e-06
2.21138e-05
1.20987e-05
3.8441e-06
1.07e-05
4.56568e-06
1.07004e-05
4.56577e-06
1.20981e-05
1.20985e-05
1.06998e-05
4.56547e-06
3.84402e-06
1.20978e-05
1.07002e-05
4.56551e-06
2.21094e-05
8.89282e-06
7.09917e-06
2.21135e-05
7.09947e-06
2.21135e-05
7.09946e-06
8.89306e-06
2.21094e-05
7.09916e-06
1.20978e-05
3.84418e-06
1.07002e-05
4.56552e-06
1.20985e-05
1.06998e-05
4.56549e-06
1.20987e-05
1.07e-05
4.56569e-06
3.84412e-06
1.20981e-05
1.07004e-05
4.56579e-06
2.21099e-05
8.894e-06
7.10102e-06
7.10109e-06
2.21138e-05
2.21138e-05
7.10108e-06
8.89424e-06
2.21099e-05
7.10101e-06
1.20981e-05
3.84427e-06
1.07004e-05
4.56581e-06
1.07e-05
4.56571e-06
1.20987e-05
9.63325e-06
2.16905e-05
2.16909e-05
2.16876e-05
2.16881e-05
9.63303e-06
4.14151e-06
2.25067e-06
5.21565e-06
9.11522e-06
9.11552e-06
2.25044e-06
4.14168e-06
4.13495e-06
2.24917e-06
5.21379e-06
9.11041e-06
2.24895e-06
9.11071e-06
4.1351e-06
4.14169e-06
9.11553e-06
5.21583e-06
2.25045e-06
9.11522e-06
2.25068e-06
4.14151e-06
4.1351e-06
9.11071e-06
5.21406e-06
2.24895e-06
2.24917e-06
9.11041e-06
4.13495e-06
9.63303e-06
2.16876e-05
2.16881e-05
2.16905e-05
2.1691e-05
9.63325e-06
1.82724e-05
1.82702e-05
1.82727e-05
1.82748e-05
9.63303e-06
2.16876e-05
2.16881e-05
9.63325e-06
2.16905e-05
2.16909e-05
4.14171e-06
2.25046e-06
5.21584e-06
9.11553e-06
2.25069e-06
9.11523e-06
4.14153e-06
4.13513e-06
2.24897e-06
5.21407e-06
9.11072e-06
9.11041e-06
2.24918e-06
4.13497e-06
4.14152e-06
9.11522e-06
2.25068e-06
5.21566e-06
2.25045e-06
4.14169e-06
9.11553e-06
4.13496e-06
9.11041e-06
2.24917e-06
5.2138e-06
4.13511e-06
9.11071e-06
2.24896e-06
9.63324e-06
2.16904e-05
2.16909e-05
2.16876e-05
2.1688e-05
9.63302e-06
1.82702e-05
1.82724e-05
1.20982e-05
1.07007e-05
4.5656e-06
3.84418e-06
1.07003e-05
4.56557e-06
1.20989e-05
2.21137e-05
8.89431e-06
7.09963e-06
7.09934e-06
2.21096e-05
2.21096e-05
7.09935e-06
8.89407e-06
7.09964e-06
2.21137e-05
1.20989e-05
3.84409e-06
1.07003e-05
4.56556e-06
1.07007e-05
4.56559e-06
1.20982e-05
1.20988e-05
4.56564e-06
1.07005e-05
3.84416e-06
1.20982e-05
4.56574e-06
1.07009e-05
2.21096e-05
8.89462e-06
7.10089e-06
2.21135e-05
7.1009e-06
2.21135e-05
7.10089e-06
8.89486e-06
2.21096e-05
7.10087e-06
1.20982e-05
3.84426e-06
4.56577e-06
1.07009e-05
1.20988e-05
4.56565e-06
1.07005e-05
1.20989e-05
1.07003e-05
4.56557e-06
3.84411e-06
1.20982e-05
1.07007e-05
4.56561e-06
2.21096e-05
8.89408e-06
7.09936e-06
7.09965e-06
2.21137e-05
2.21137e-05
7.09965e-06
8.89432e-06
2.21096e-05
7.09935e-06
1.20982e-05
3.8442e-06
1.07007e-05
4.56563e-06
1.07003e-05
4.56559e-06
1.20989e-05
1.20978e-05
4.56565e-06
1.07006e-05
3.8443e-06
4.56554e-06
1.07002e-05
1.20984e-05
2.21127e-05
8.89403e-06
7.10053e-06
7.10054e-06
2.21088e-05
2.21088e-05
7.10054e-06
8.89379e-06
7.10054e-06
2.21127e-05
1.20984e-05
3.84414e-06
4.56553e-06
1.07002e-05
4.56563e-06
1.07006e-05
1.20978e-05
1.20981e-05
1.07004e-05
4.56548e-06
3.84422e-06
1.07e-05
4.56538e-06
1.20987e-05
2.2113e-05
8.894e-06
7.09899e-06
7.0989e-06
2.21091e-05
2.21091e-05
7.09891e-06
8.89376e-06
7.099e-06
2.2113e-05
1.20987e-05
3.84406e-06
1.07001e-05
4.56537e-06
1.07004e-05
4.56546e-06
1.20981e-05
1.20984e-05
4.56555e-06
1.07002e-05
3.84416e-06
1.20978e-05
4.56566e-06
1.07006e-05
2.21088e-05
8.8938e-06
7.10056e-06
7.10055e-06
2.21127e-05
2.21127e-05
7.10055e-06
8.89404e-06
2.21088e-05
7.10055e-06
1.20978e-05
3.84432e-06
4.56567e-06
1.07006e-05
4.56556e-06
1.07002e-05
1.20984e-05
1.20987e-05
1.07e-05
4.56539e-06
3.84408e-06
1.20981e-05
1.07004e-05
4.56548e-06
2.21091e-05
8.89377e-06
7.09892e-06
7.09902e-06
2.2113e-05
2.2113e-05
7.09901e-06
8.894e-06
2.21091e-05
7.09891e-06
1.20981e-05
3.84424e-06
1.07004e-05
4.5655e-06
1.07e-05
4.5654e-06
1.20987e-05
9.6341e-06
2.16915e-05
2.16916e-05
2.16886e-05
2.16887e-05
9.63387e-06
4.1419e-06
2.25083e-06
5.21564e-06
9.11526e-06
9.11557e-06
2.25059e-06
4.14207e-06
4.13531e-06
2.24943e-06
5.214e-06
9.11053e-06
2.24922e-06
9.11083e-06
4.13549e-06
4.14207e-06
9.11558e-06
5.21591e-06
2.25059e-06
9.11526e-06
2.25083e-06
4.1419e-06
4.1355e-06
9.11084e-06
5.21419e-06
2.24922e-06
2.24943e-06
9.11053e-06
4.13531e-06
9.63387e-06
2.16886e-05
2.16887e-05
2.16915e-05
2.16916e-05
9.6341e-06
1.82742e-05
1.82722e-05
1.82734e-05
1.82756e-05
9.63387e-06
2.16886e-05
2.16887e-05
9.6341e-06
2.16915e-05
2.16916e-05
4.1421e-06
2.25061e-06
5.21593e-06
9.11558e-06
2.25085e-06
9.11527e-06
4.14192e-06
4.13552e-06
2.24924e-06
5.2142e-06
9.11084e-06
9.11053e-06
2.24945e-06
4.13533e-06
4.14191e-06
9.11526e-06
2.25083e-06
5.21565e-06
2.2506e-06
4.14209e-06
9.11558e-06
4.13533e-06
9.11053e-06
2.24944e-06
5.21401e-06
4.13551e-06
9.11083e-06
2.24923e-06
9.6341e-06
2.16915e-05
2.16916e-05
2.16886e-05
2.16887e-05
9.63387e-06
1.82722e-05
1.82742e-05
1.20977e-05
4.56547e-06
1.07004e-05
3.84422e-06
4.56541e-06
1.07e-05
1.20984e-05
2.21132e-05
8.89414e-06
7.09908e-06
7.09907e-06
2.21093e-05
2.21093e-05
7.09908e-06
8.89391e-06
7.09908e-06
2.21132e-05
1.20984e-05
3.84405e-06
4.56541e-06
1.07e-05
4.56544e-06
1.07004e-05
1.20977e-05
1.20975e-05
4.56566e-06
1.07006e-05
3.84423e-06
4.56565e-06
1.07002e-05
1.20982e-05
2.21128e-05
8.89498e-06
7.10098e-06
7.10065e-06
2.21086e-05
2.21086e-05
7.10066e-06
8.89473e-06
7.10099e-06
2.21128e-05
1.20982e-05
3.84413e-06
4.56564e-06
1.07002e-05
4.56565e-06
1.07006e-05
1.20975e-05
1.20984e-05
4.56542e-06
1.07e-05
3.84407e-06
1.20977e-05
4.56546e-06
1.07004e-05
2.21093e-05
8.89391e-06
7.0991e-06
7.0991e-06
2.21132e-05
2.21132e-05
7.09909e-06
8.89415e-06
2.21093e-05
7.09909e-06
1.20977e-05
3.84424e-06
4.56549e-06
1.07004e-05
4.56543e-06
1.07e-05
1.20984e-05
1.20982e-05
4.56566e-06
1.07002e-05
3.84415e-06
1.20975e-05
4.56566e-06
1.07006e-05
2.21086e-05
8.89474e-06
7.10067e-06
7.101e-06
2.21128e-05
2.21128e-05
7.101e-06
8.89498e-06
2.21086e-05
7.10066e-06
1.20975e-05
3.84425e-06
4.56568e-06
1.07006e-05
4.56567e-06
1.07002e-05
1.20982e-05
1.82743e-05
1.82722e-05
1.82759e-05
1.82738e-05
9.63341e-06
2.16885e-05
2.1688e-05
9.63365e-06
2.16913e-05
2.16908e-05
4.13532e-06
2.24918e-06
5.21421e-06
9.11081e-06
4.13514e-06
2.24939e-06
9.1105e-06
4.14189e-06
2.25063e-06
5.21611e-06
9.11579e-06
4.14173e-06
2.25083e-06
9.11549e-06
4.13514e-06
9.1105e-06
2.24938e-06
5.21401e-06
4.13531e-06
2.24917e-06
9.11081e-06
4.14172e-06
9.11548e-06
2.25082e-06
5.21593e-06
4.14188e-06
2.25062e-06
9.11578e-06
9.63365e-06
2.16913e-05
2.16908e-05
9.63341e-06
2.16885e-05
2.1688e-05
1.82722e-05
1.82743e-05
1.82738e-05
1.82758e-05
2.2113e-05
7.09903e-06
8.89401e-06
2.21091e-05
7.09894e-06
1.20987e-05
3.84423e-06
1.07001e-05
4.56541e-06
1.20981e-05
1.07004e-05
4.5655e-06
8.89499e-06
1.82742e-05
1.82758e-05
9.12035e-08
9.11991e-08
1.23408e-07
9.12034e-08
9.1199e-08
7.72351e-08
7.72354e-08
2.06797e-06
1.07856e-06
1.07892e-06
5.26398e-07
1.0775e-06
1.07784e-06
2.06841e-06
2.068e-06
1.07857e-06
1.07893e-06
5.26295e-07
2.06843e-06
1.0775e-06
1.07785e-06
2.06794e-06
1.07851e-06
1.07885e-06
5.2626e-07
1.07744e-06
1.07777e-06
2.06837e-06
2.0684e-06
5.28002e-07
1.07746e-06
1.07779e-06
1.07851e-06
1.07885e-06
2.06795e-06
2.06783e-06
1.07876e-06
1.07844e-06
5.26214e-07
1.07736e-06
1.07767e-06
2.06828e-06
2.0683e-06
5.27899e-07
1.07768e-06
1.07738e-06
1.07875e-06
1.07843e-06
2.06784e-06
2.06804e-06
1.07885e-06
1.0786e-06
5.26313e-07
1.07753e-06
1.07777e-06
2.06848e-06
2.06851e-06
5.28014e-07
1.07779e-06
1.07755e-06
1.07886e-06
1.0786e-06
2.06806e-06
2.06843e-06
5.27982e-07
1.0775e-06
1.07785e-06
2.06798e-06
1.07854e-06
1.0789e-06
9.12047e-08
9.11952e-08
1.23402e-07
9.12045e-08
9.11949e-08
7.72346e-08
7.72349e-08
9.12109e-08
9.12018e-08
1.2342e-07
9.12107e-08
9.12015e-08
7.72374e-08
7.72378e-08
9.12072e-08
9.1202e-08
1.23417e-07
9.12069e-08
9.12017e-08
7.72369e-08
7.72372e-08
1.23408e-07
9.12029e-08
9.11986e-08
9.12032e-08
9.11988e-08
7.7235e-08
7.72345e-08
1.23402e-07
9.1204e-08
9.11942e-08
9.12043e-08
9.11947e-08
7.72344e-08
7.72339e-08
1.2342e-07
9.12101e-08
9.12008e-08
9.12105e-08
9.12012e-08
7.72372e-08
7.72367e-08
1.23417e-07
9.12063e-08
9.1201e-08
9.12067e-08
9.12014e-08
7.72367e-08
7.72361e-08
6.97064e-07
1.80489e-06
5.78071e-07
1.50809e-06
1.80545e-06
5.7906e-07
6.95437e-07
9.25454e-07
1.34407e-06
3.04395e-06
2.37832e-06
1.34307e-06
2.37765e-06
9.27078e-07
9.27075e-07
2.37766e-06
3.04446e-06
1.34308e-06
1.34406e-06
2.37832e-06
9.2545e-07
6.95443e-07
1.50766e-06
1.80545e-06
5.79082e-07
1.80489e-06
5.78082e-07
6.97056e-07
6.97101e-07
5.78133e-07
1.8048e-06
1.50812e-06
5.79113e-07
1.80533e-06
6.95482e-07
9.25482e-07
1.34425e-06
3.04413e-06
2.37797e-06
1.34325e-06
2.37733e-06
9.27106e-07
9.27098e-07
2.37735e-06
3.04458e-06
1.34326e-06
1.34424e-06
2.37796e-06
9.25474e-07
6.95486e-07
1.50766e-06
5.79135e-07
1.80534e-06
5.78139e-07
1.80477e-06
6.97094e-07
2.06841e-06
5.28119e-07
1.0775e-06
1.07785e-06
1.07855e-06
1.07891e-06
2.06797e-06
2.06837e-06
5.27998e-07
1.07745e-06
1.07778e-06
2.06793e-06
1.07851e-06
1.07884e-06
2.06795e-06
5.26338e-07
1.07851e-06
1.07884e-06
2.06839e-06
1.07745e-06
1.07778e-06
6.97001e-07
1.80475e-06
5.78068e-07
1.508e-06
1.80527e-06
5.79064e-07
6.95385e-07
9.25457e-07
1.34425e-06
3.04396e-06
2.37795e-06
2.37734e-06
1.34326e-06
9.27052e-07
9.27039e-07
2.37735e-06
3.04442e-06
1.34327e-06
2.37795e-06
1.34424e-06
9.25443e-07
6.95389e-07
1.50756e-06
1.80526e-06
5.79061e-07
1.80473e-06
5.78071e-07
6.96992e-07
6.9713e-07
1.80502e-06
5.78108e-07
1.50807e-06
1.80556e-06
5.79105e-07
6.95509e-07
9.2571e-07
1.34465e-06
3.04442e-06
2.37861e-06
2.37797e-06
1.34364e-06
9.27317e-07
9.27316e-07
2.37798e-06
3.04488e-06
1.34365e-06
2.37862e-06
9.25702e-07
1.34464e-06
6.95515e-07
1.50762e-06
1.80555e-06
5.79103e-07
1.805e-06
5.78113e-07
6.97121e-07
6.95395e-07
1.80528e-06
5.79045e-07
1.50758e-06
6.96996e-07
1.80475e-06
5.78046e-07
9.27057e-07
1.34328e-06
3.04442e-06
2.37736e-06
1.34425e-06
2.37797e-06
9.2547e-07
9.25451e-07
2.37796e-06
1.34423e-06
3.04396e-06
1.34327e-06
9.27036e-07
2.37736e-06
6.96992e-07
1.50802e-06
1.80476e-06
5.78066e-07
1.80529e-06
5.79043e-07
6.95393e-07
6.95521e-07
1.80557e-06
5.79086e-07
1.50765e-06
6.97125e-07
1.80503e-06
5.78088e-07
9.27325e-07
1.34366e-06
3.04488e-06
2.378e-06
2.37864e-06
1.34465e-06
9.25716e-07
9.25705e-07
2.37863e-06
1.34464e-06
3.04442e-06
9.27313e-07
2.37799e-06
1.34365e-06
6.97122e-07
1.50809e-06
1.80504e-06
5.78107e-07
1.80559e-06
5.79085e-07
6.95518e-07
2.06827e-06
5.27937e-07
1.07768e-06
1.07737e-06
1.07843e-06
1.07874e-06
2.06783e-06
2.06784e-06
5.26215e-07
1.07873e-06
1.07842e-06
1.07767e-06
2.06829e-06
1.07736e-06
6.97187e-07
1.80503e-06
5.78169e-07
1.5082e-06
1.80554e-06
5.79146e-07
6.95566e-07
9.25662e-07
1.34461e-06
3.04453e-06
2.37855e-06
2.37788e-06
1.34361e-06
9.27285e-07
9.27271e-07
2.37791e-06
3.04503e-06
1.34362e-06
2.37854e-06
1.34461e-06
9.25648e-07
6.95564e-07
1.50775e-06
1.80556e-06
5.79169e-07
1.80499e-06
5.78171e-07
6.97179e-07
6.9712e-07
5.78146e-07
1.80488e-06
1.50815e-06
5.79134e-07
1.8054e-06
6.95498e-07
9.2562e-07
1.34466e-06
3.04448e-06
2.37813e-06
2.3775e-06
1.34365e-06
9.27228e-07
9.27219e-07
2.37751e-06
3.045e-06
1.34366e-06
2.37812e-06
9.25599e-07
1.34466e-06
6.95505e-07
1.50771e-06
5.79158e-07
1.8054e-06
5.78159e-07
1.80486e-06
6.97111e-07
6.95571e-07
1.80558e-06
5.79146e-07
1.50777e-06
6.97184e-07
1.80503e-06
5.78169e-07
9.27281e-07
1.34363e-06
3.04503e-06
2.37796e-06
1.34461e-06
2.37862e-06
9.25666e-07
9.25652e-07
2.37858e-06
1.3446e-06
3.04453e-06
1.34361e-06
9.27268e-07
2.37795e-06
6.9718e-07
1.50822e-06
1.80506e-06
5.78199e-07
1.80559e-06
5.79168e-07
6.95576e-07
6.9551e-07
5.79128e-07
1.80542e-06
1.50773e-06
6.97115e-07
5.78153e-07
1.80489e-06
9.27216e-07
1.34367e-06
3.04501e-06
2.37754e-06
2.37816e-06
1.34466e-06
9.25611e-07
9.25596e-07
2.37814e-06
1.34465e-06
3.0445e-06
9.27204e-07
2.37753e-06
1.34366e-06
6.97112e-07
1.50816e-06
5.78179e-07
1.80489e-06
5.79154e-07
1.80543e-06
6.95507e-07
6.97075e-07
5.78072e-07
1.80483e-06
1.50806e-06
5.7905e-07
1.80537e-06
6.9546e-07
9.25537e-07
1.3443e-06
3.04409e-06
2.37805e-06
1.3433e-06
2.37739e-06
9.27135e-07
9.27129e-07
2.3774e-06
3.04456e-06
1.34332e-06
1.34429e-06
2.37804e-06
9.25519e-07
6.95467e-07
1.50763e-06
5.79071e-07
1.80537e-06
5.78079e-07
1.80482e-06
6.97066e-07
6.95448e-07
1.80545e-06
5.79054e-07
1.50766e-06
6.97059e-07
1.8049e-06
5.78078e-07
9.27093e-07
1.34309e-06
3.04446e-06
2.3777e-06
9.25465e-07
1.34407e-06
2.37837e-06
9.25461e-07
2.37834e-06
1.34405e-06
3.04396e-06
9.2708e-07
1.34307e-06
2.37769e-06
6.97056e-07
1.5081e-06
1.80493e-06
5.78104e-07
6.95446e-07
1.80547e-06
5.79079e-07
6.95472e-07
5.79049e-07
1.80538e-06
1.50764e-06
6.97069e-07
5.7808e-07
1.80484e-06
9.27132e-07
1.34332e-06
3.04456e-06
2.37744e-06
2.37808e-06
1.3443e-06
9.2553e-07
9.25518e-07
2.37805e-06
1.34428e-06
3.04409e-06
9.27116e-07
2.37742e-06
1.34331e-06
6.97066e-07
1.50807e-06
5.781e-07
1.80485e-06
5.7907e-07
1.80539e-06
6.95464e-07
2.06847e-06
5.2802e-07
1.07778e-06
1.07754e-06
1.07859e-06
1.07885e-06
2.06804e-06
2.06806e-06
5.26317e-07
1.07884e-06
1.07858e-06
1.07778e-06
2.06849e-06
1.07754e-06
6.97168e-07
5.78148e-07
1.80501e-06
1.50816e-06
5.79123e-07
1.80554e-06
6.95552e-07
9.25702e-07
1.34468e-06
3.04459e-06
2.37853e-06
1.34368e-06
2.37786e-06
9.27311e-07
9.27304e-07
2.37789e-06
3.04506e-06
1.34369e-06
1.34467e-06
2.37853e-06
9.25687e-07
6.95559e-07
1.50773e-06
5.79144e-07
1.80553e-06
5.78153e-07
1.80498e-06
6.97161e-07
6.95492e-07
5.79113e-07
1.80534e-06
1.50768e-06
6.97097e-07
5.78142e-07
1.80479e-06
9.27109e-07
1.34327e-06
3.04459e-06
2.37738e-06
9.25489e-07
1.34425e-06
2.37801e-06
9.25477e-07
2.37799e-06
1.34424e-06
3.04413e-06
9.27095e-07
1.34326e-06
2.37738e-06
6.97093e-07
1.50813e-06
5.78164e-07
1.80483e-06
6.9549e-07
5.79137e-07
1.80536e-06
6.95563e-07
5.79125e-07
1.80556e-06
1.50775e-06
6.97163e-07
5.78159e-07
1.80503e-06
9.27306e-07
1.3437e-06
3.04505e-06
2.37793e-06
2.37859e-06
1.34468e-06
9.25695e-07
9.25688e-07
2.37856e-06
1.34467e-06
3.04458e-06
9.27296e-07
2.37793e-06
1.34368e-06
6.97158e-07
1.50818e-06
5.78177e-07
1.80503e-06
5.79147e-07
1.80558e-06
6.95558e-07
2.06798e-06
5.26321e-07
1.07853e-06
1.07889e-06
2.06842e-06
1.07748e-06
1.07783e-06
9.25548e-07
1.34429e-06
2.37808e-06
3.0441e-06
1.34332e-06
9.27143e-07
2.37746e-06
6.95465e-07
1.50773e-06
5.79075e-07
1.8054e-06
5.78088e-07
6.97074e-07
1.80491e-06
1.34468e-06
3.0446e-06
1.34369e-06
1.23391e-07
3.12951e-07
3.13034e-07
5.2786e-07
1.23395e-07
3.12988e-07
3.13071e-07
5.27696e-07
1.23398e-07
3.13018e-07
3.13101e-07
5.27823e-07
1.23392e-07
3.13021e-07
3.13104e-07
5.27975e-07
1.23382e-07
3.13016e-07
3.13099e-07
5.28082e-07
1.2338e-07
3.13014e-07
3.13097e-07
5.28082e-07
1.23382e-07
3.13017e-07
3.13099e-07
5.27984e-07
1.23383e-07
3.13025e-07
3.13108e-07
5.27855e-07
1.23385e-07
3.13041e-07
3.13124e-07
5.27817e-07
1.23387e-07
3.13052e-07
3.13134e-07
5.27925e-07
1.23389e-07
3.13058e-07
3.1314e-07
5.2804e-07
1.23391e-07
3.13064e-07
3.13145e-07
5.28042e-07
1.23394e-07
3.1307e-07
3.13151e-07
5.28033e-07
1.23395e-07
3.13074e-07
3.13156e-07
5.28021e-07
1.23397e-07
3.13077e-07
3.13159e-07
5.28025e-07
1.23399e-07
3.13079e-07
3.13163e-07
5.28052e-07
1.234e-07
3.13082e-07
3.13165e-07
5.28051e-07
1.23402e-07
3.13085e-07
3.13168e-07
5.2807e-07
1.23404e-07
3.13088e-07
3.1317e-07
5.28093e-07
1.23405e-07
3.1309e-07
3.1317e-07
5.28127e-07
1.23406e-07
3.13091e-07
3.13172e-07
5.28141e-07
1.23407e-07
3.13091e-07
3.13172e-07
5.28061e-07
1.23408e-07
3.1309e-07
3.13171e-07
5.27981e-07
1.23408e-07