/*--------------------------------*- C++ -*----------------------------------*\
| =========                 |                                                 |
| \\      /  F ield         | OpenFOAM: The Open Source CFD Toolbox           |
|  \\    /   O peration     | Version:  v1906                                 |
|   \\  /    A nd           | Web:      www.OpenFOAM.com                      |
|    \\/     M anipulation  |                                                 |
\*---------------------------------------------------------------------------*/
FoamFile
{
    version     2.0;
    format      ascii;
    class       volScalarField;
    location    "125";
    object      k;
}
// * * * * * * * * * * * * * * * * * * * * * * * * * * * * * * * * * * * * * //

dimensions      [0 2 -2 0 0 0 0];


internalField   nonuniform List<scalar> 
171728
(
3.58932e-05
3.58912e-05
3.58912e-05
3.59957e-05
3.39296e-05
3.3889e-05
3.3889e-05
3.39622e-05
3.21578e-05
3.20081e-05
3.20081e-05
3.19522e-05
3.05346e-05
3.02293e-05
3.02292e-05
2.99884e-05
2.90329e-05
2.8554e-05
2.85539e-05
2.81226e-05
2.76353e-05
2.69872e-05
2.69871e-05
2.63907e-05
2.63308e-05
2.5531e-05
2.55309e-05
2.48073e-05
2.51112e-05
2.4185e-05
2.41848e-05
2.33782e-05
2.39709e-05
2.29506e-05
2.29504e-05
2.21047e-05
2.29057e-05
2.18268e-05
2.18267e-05
2.0986e-05
2.19119e-05
2.08113e-05
2.08111e-05
2.00134e-05
2.09864e-05
1.99012e-05
1.9901e-05
1.91814e-05
2.0124e-05
1.90946e-05
1.90945e-05
1.84895e-05
1.93239e-05
1.83885e-05
1.83884e-05
1.7933e-05
1.85846e-05
1.77791e-05
1.77791e-05
1.75062e-05
1.79041e-05
1.72655e-05
1.72655e-05
1.72002e-05
1.72798e-05
1.68465e-05
1.68466e-05
1.70226e-05
1.67096e-05
1.65212e-05
1.65213e-05
1.69819e-05
1.61925e-05
1.62896e-05
1.62898e-05
1.7079e-05
1.57251e-05
1.61517e-05
1.6152e-05
1.7304e-05
1.53077e-05
1.61077e-05
1.61081e-05
1.76572e-05
1.49369e-05
1.61534e-05
1.6154e-05
1.81344e-05
1.46153e-05
1.62925e-05
1.62932e-05
1.87286e-05
1.43372e-05
1.65192e-05
1.652e-05
1.94265e-05
1.4107e-05
1.68308e-05
1.68318e-05
2.02106e-05
1.39208e-05
1.72166e-05
1.72177e-05
2.10539e-05
1.37558e-05
1.76305e-05
1.76317e-05
2.18932e-05
1.36527e-05
1.80577e-05
1.80587e-05
2.26168e-05
1.34885e-05
1.82515e-05
1.82532e-05
2.29706e-05
1.32395e-05
1.82134e-05
1.82155e-05
2.30274e-05
1.3088e-05
1.81855e-05
1.81877e-05
2.30061e-05
1.30566e-05
1.82067e-05
1.82089e-05
2.30366e-05
1.30638e-05
1.82407e-05
1.82429e-05
2.30639e-05
1.30734e-05
1.82558e-05
1.8258e-05
2.30803e-05
1.30769e-05
1.826e-05
1.82622e-05
2.30824e-05
1.30779e-05
1.82612e-05
1.82635e-05
2.30818e-05
1.30784e-05
1.82621e-05
1.82643e-05
2.30833e-05
1.30786e-05
1.82621e-05
1.82643e-05
2.30837e-05
1.30787e-05
1.82621e-05
1.82643e-05
2.3082e-05
1.30788e-05
1.82621e-05
1.82643e-05
2.30821e-05
1.30789e-05
1.82622e-05
1.82644e-05
2.30859e-05
1.30789e-05
1.82622e-05
1.82644e-05
2.30844e-05
1.3079e-05
1.82623e-05
1.82645e-05
2.30842e-05
1.30791e-05
1.82623e-05
1.82645e-05
2.30843e-05
1.30792e-05
1.82624e-05
1.82646e-05
2.30887e-05
1.30792e-05
1.82623e-05
1.82645e-05
2.30811e-05
1.30791e-05
1.82621e-05
1.82642e-05
2.30759e-05
1.3079e-05
1.82622e-05
1.82644e-05
2.30865e-05
1.30792e-05
1.82592e-05
1.82613e-05
2.30865e-05
1.30794e-05
1.82604e-05
1.82625e-05
2.30835e-05
1.30795e-05
1.82609e-05
1.82629e-05
2.30771e-05
1.30786e-05
1.82605e-05
1.82624e-05
2.30723e-05
1.3078e-05
1.82598e-05
1.82616e-05
2.30732e-05
1.3078e-05
1.82597e-05
1.82616e-05
2.30785e-05
1.3078e-05
1.82601e-05
1.8262e-05
2.30859e-05
1.30782e-05
1.82607e-05
1.82626e-05
2.30878e-05
1.30784e-05
1.82613e-05
1.82632e-05
2.30849e-05
1.30785e-05
1.82615e-05
1.82634e-05
2.30812e-05
1.30787e-05
1.82619e-05
1.82637e-05
2.30812e-05
1.30788e-05
1.82619e-05
1.82638e-05
2.30762e-05
1.30788e-05
1.8262e-05
1.82638e-05
2.30766e-05
1.30789e-05
1.82621e-05
1.82639e-05
2.3083e-05
1.30789e-05
1.82623e-05
1.8264e-05
2.30895e-05
1.30791e-05
1.82625e-05
1.82643e-05
2.30901e-05
1.30792e-05
1.82626e-05
1.82644e-05
2.30874e-05
1.30792e-05
1.82626e-05
1.82644e-05
2.30815e-05
1.30793e-05
1.82626e-05
1.82644e-05
2.30768e-05
1.30793e-05
1.82625e-05
1.82644e-05
2.30775e-05
1.30793e-05
1.82625e-05
1.82643e-05
2.30824e-05
1.30794e-05
1.82627e-05
1.82645e-05
2.30852e-05
1.30794e-05
1.82626e-05
1.82645e-05
2.30796e-05
1.30794e-05
1.82625e-05
1.82644e-05
2.30782e-05
1.30793e-05
1.82624e-05
1.82643e-05
2.30863e-05
1.30792e-05
1.82623e-05
1.82642e-05
2.3087e-05
1.30793e-05
1.82587e-05
1.82606e-05
2.30728e-05
1.30794e-05
1.82599e-05
1.82617e-05
2.30725e-05
1.30795e-05
1.82609e-05
1.82627e-05
2.30779e-05
1.30793e-05
1.8261e-05
1.82628e-05
2.30851e-05
1.30783e-05
1.82604e-05
1.82622e-05
2.30864e-05
1.3078e-05
1.826e-05
1.82618e-05
2.30839e-05
1.30781e-05
1.82601e-05
1.82619e-05
2.30807e-05
1.30782e-05
1.82606e-05
1.82624e-05
2.30777e-05
1.30784e-05
1.82611e-05
1.82628e-05
2.30753e-05
1.30785e-05
1.82614e-05
1.82631e-05
2.3076e-05
1.30787e-05
1.82616e-05
1.82634e-05
2.3078e-05
1.30788e-05
1.82618e-05
1.82636e-05
2.30772e-05
1.30789e-05
1.82622e-05
1.82638e-05
2.30805e-05
1.30789e-05
1.82624e-05
1.82642e-05
2.30903e-05
1.3079e-05
1.82627e-05
1.82645e-05
2.30872e-05
1.30791e-05
1.82631e-05
1.82649e-05
2.30809e-05
1.30793e-05
1.82636e-05
1.82654e-05
2.30762e-05
1.30795e-05
1.82644e-05
1.82661e-05
2.3077e-05
1.30796e-05
1.82652e-05
1.82669e-05
2.30812e-05
1.3076e-05
1.82625e-05
1.8264e-05
2.30809e-05
1.29575e-05
1.76052e-05
1.76054e-05
2.23362e-05
3.63068e-05
3.6291e-05
3.6291e-05
3.63068e-05
3.6291e-05
3.6291e-05
3.6423e-05
3.6423e-05
3.6423e-05
3.6423e-05
3.6291e-05
3.6291e-05
3.63068e-05
3.6291e-05
3.6291e-05
3.63068e-05
3.59957e-05
3.42687e-05
3.58912e-05
3.58912e-05
3.43767e-05
3.43766e-05
3.59957e-05
3.42687e-05
3.58911e-05
3.58912e-05
3.43767e-05
3.43766e-05
3.58912e-05
3.43767e-05
3.43767e-05
3.59957e-05
3.42687e-05
3.58912e-05
3.43767e-05
3.43767e-05
3.42687e-05
3.39622e-05
3.22635e-05
3.38889e-05
3.38889e-05
3.24684e-05
3.24683e-05
3.39623e-05
3.22635e-05
3.38889e-05
3.38889e-05
3.24684e-05
3.24683e-05
3.38889e-05
3.24685e-05
3.24684e-05
3.39622e-05
3.22634e-05
3.38889e-05
3.24685e-05
3.24684e-05
3.22635e-05
3.19522e-05
3.02993e-05
3.20079e-05
3.20078e-05
3.06643e-05
3.06642e-05
3.19522e-05
3.02994e-05
3.2008e-05
3.20078e-05
3.06644e-05
3.06641e-05
3.20079e-05
3.06646e-05
3.06643e-05
3.19521e-05
3.02992e-05
3.2008e-05
3.06645e-05
3.06644e-05
3.02992e-05
2.99885e-05
2.84253e-05
3.0229e-05
3.02288e-05
2.89624e-05
2.89622e-05
2.99885e-05
2.84255e-05
3.02291e-05
3.02287e-05
2.89626e-05
2.89621e-05
3.02289e-05
2.89628e-05
2.89623e-05
2.99884e-05
2.84252e-05
3.02291e-05
2.89627e-05
2.89626e-05
2.84252e-05
2.81227e-05
2.6674e-05
2.85536e-05
2.85534e-05
2.7368e-05
2.73678e-05
2.81228e-05
2.66742e-05
2.85538e-05
2.85533e-05
2.73683e-05
2.73676e-05
2.85535e-05
2.73685e-05
2.73679e-05
2.81226e-05
2.66739e-05
2.85538e-05
2.73684e-05
2.73683e-05
2.66738e-05
2.63908e-05
2.50663e-05
2.69866e-05
2.69864e-05
2.58841e-05
2.58838e-05
2.6391e-05
2.50665e-05
2.69869e-05
2.69862e-05
2.58845e-05
2.58836e-05
2.69865e-05
2.58848e-05
2.5884e-05
2.63907e-05
2.50661e-05
2.69869e-05
2.58846e-05
2.58844e-05
2.50661e-05
2.48075e-05
2.36125e-05
2.55303e-05
2.553e-05
2.45103e-05
2.45099e-05
2.48077e-05
2.36127e-05
2.55308e-05
2.55299e-05
2.45107e-05
2.45097e-05
2.55302e-05
2.45111e-05
2.45102e-05
2.48073e-05
2.36123e-05
2.55307e-05
2.45108e-05
2.45107e-05
2.36123e-05
2.33784e-05
2.23125e-05
2.41842e-05
2.41838e-05
2.32479e-05
2.32475e-05
2.33785e-05
2.23126e-05
2.41847e-05
2.41836e-05
2.32484e-05
2.32473e-05
2.41841e-05
2.32488e-05
2.32478e-05
2.33782e-05
2.23122e-05
2.41846e-05
2.32485e-05
2.32484e-05
2.23122e-05
2.21049e-05
2.11681e-05
2.29497e-05
2.29494e-05
2.20966e-05
2.20962e-05
2.21051e-05
2.11683e-05
2.29503e-05
2.29491e-05
2.20972e-05
2.2096e-05
2.29496e-05
2.20976e-05
2.20965e-05
2.21047e-05
2.11679e-05
2.29503e-05
2.20974e-05
2.20972e-05
2.11678e-05
2.09863e-05
2.01708e-05
2.18258e-05
2.18255e-05
2.10542e-05
2.10539e-05
2.09865e-05
2.01709e-05
2.18265e-05
2.18252e-05
2.1055e-05
2.10536e-05
2.18257e-05
2.10553e-05
2.10542e-05
2.09861e-05
2.01705e-05
2.18265e-05
2.10551e-05
2.1055e-05
2.01704e-05
2.00137e-05
1.93146e-05
2.08102e-05
2.08099e-05
2.01181e-05
2.01177e-05
2.00138e-05
1.93148e-05
2.0811e-05
2.08097e-05
2.01189e-05
2.01175e-05
2.08102e-05
2.01192e-05
2.0118e-05
2.00134e-05
1.93144e-05
2.0811e-05
2.0119e-05
2.01189e-05
1.93143e-05
1.91817e-05
1.85904e-05
1.99001e-05
1.98998e-05
1.92857e-05
1.92853e-05
1.91818e-05
1.85906e-05
1.99009e-05
1.98995e-05
1.92865e-05
1.92851e-05
1.99e-05
1.92868e-05
1.92856e-05
1.91815e-05
1.85902e-05
1.99009e-05
1.92866e-05
1.92865e-05
1.859e-05
1.84898e-05
1.79978e-05
1.90935e-05
1.90932e-05
1.85545e-05
1.85542e-05
1.84899e-05
1.7998e-05
1.90944e-05
1.9093e-05
1.85553e-05
1.8554e-05
1.90935e-05
1.85556e-05
1.85545e-05
1.84896e-05
1.79976e-05
1.90944e-05
1.85554e-05
1.85553e-05
1.79975e-05
1.79333e-05
1.75393e-05
1.83874e-05
1.83872e-05
1.79215e-05
1.79213e-05
1.79333e-05
1.75393e-05
1.83883e-05
1.8387e-05
1.79223e-05
1.79211e-05
1.83874e-05
1.79225e-05
1.79215e-05
1.79331e-05
1.75392e-05
1.83883e-05
1.79224e-05
1.79223e-05
1.7539e-05
1.75065e-05
1.72177e-05
1.77782e-05
1.77779e-05
1.73841e-05
1.73839e-05
1.75065e-05
1.72177e-05
1.7779e-05
1.77778e-05
1.73849e-05
1.73838e-05
1.77781e-05
1.7385e-05
1.73841e-05
1.75063e-05
1.72176e-05
1.7779e-05
1.7385e-05
1.73849e-05
1.72175e-05
1.72004e-05
1.70261e-05
1.72647e-05
1.72645e-05
1.6941e-05
1.69408e-05
1.72004e-05
1.70259e-05
1.72654e-05
1.72644e-05
1.69417e-05
1.69408e-05
1.72646e-05
1.69417e-05
1.6941e-05
1.72003e-05
1.7026e-05
1.72654e-05
1.69418e-05
1.69417e-05
1.70259e-05
1.70228e-05
1.69727e-05
1.68458e-05
1.68457e-05
1.65923e-05
1.65922e-05
1.70226e-05
1.69724e-05
1.68465e-05
1.68456e-05
1.6593e-05
1.65922e-05
1.68458e-05
1.65929e-05
1.65923e-05
1.70227e-05
1.69727e-05
1.68465e-05
1.6593e-05
1.6593e-05
1.69725e-05
1.6982e-05
1.70435e-05
1.65207e-05
1.65206e-05
1.63371e-05
1.6337e-05
1.69817e-05
1.70432e-05
1.65213e-05
1.65206e-05
1.63377e-05
1.63371e-05
1.65206e-05
1.63374e-05
1.63371e-05
1.6982e-05
1.70436e-05
1.65213e-05
1.63377e-05
1.63377e-05
1.70435e-05
1.70791e-05
1.72437e-05
1.62893e-05
1.62892e-05
1.61753e-05
1.61753e-05
1.70787e-05
1.72433e-05
1.62899e-05
1.62893e-05
1.61759e-05
1.61755e-05
1.62892e-05
1.61755e-05
1.61753e-05
1.70792e-05
1.72439e-05
1.62899e-05
1.61758e-05
1.61759e-05
1.72437e-05
1.7304e-05
1.75723e-05
1.61515e-05
1.61515e-05
1.61075e-05
1.61077e-05
1.73036e-05
1.75718e-05
1.61521e-05
1.61517e-05
1.6108e-05
1.61079e-05
1.61515e-05
1.61075e-05
1.61076e-05
1.73042e-05
1.75726e-05
1.61521e-05
1.6108e-05
1.61081e-05
1.75724e-05
1.7657e-05
1.80256e-05
1.61076e-05
1.61079e-05
1.61332e-05
1.61335e-05
1.76566e-05
1.80251e-05
1.61082e-05
1.61081e-05
1.61337e-05
1.61338e-05
1.61077e-05
1.61331e-05
1.61333e-05
1.76573e-05
1.80261e-05
1.61083e-05
1.61336e-05
1.61338e-05
1.8026e-05
1.81341e-05
1.8597e-05
1.61535e-05
1.61538e-05
1.62491e-05
1.62495e-05
1.81336e-05
1.85964e-05
1.6154e-05
1.61541e-05
1.62495e-05
1.62499e-05
1.61536e-05
1.62489e-05
1.62493e-05
1.81345e-05
1.85976e-05
1.61541e-05
1.62495e-05
1.62498e-05
1.85975e-05
1.87282e-05
1.92749e-05
1.62927e-05
1.62932e-05
1.64553e-05
1.64559e-05
1.87276e-05
1.92743e-05
1.62932e-05
1.62936e-05
1.64557e-05
1.64564e-05
1.62929e-05
1.64549e-05
1.64556e-05
1.87287e-05
1.92757e-05
1.62934e-05
1.64557e-05
1.6456e-05
1.92756e-05
1.94259e-05
2.00413e-05
1.65196e-05
1.65202e-05
1.67448e-05
1.67455e-05
1.94252e-05
2.00405e-05
1.652e-05
1.65207e-05
1.6745e-05
1.6746e-05
1.65199e-05
1.67442e-05
1.67452e-05
1.94266e-05
2.00422e-05
1.65204e-05
1.67451e-05
1.67456e-05
2.00421e-05
2.02098e-05
2.08741e-05
1.68315e-05
1.68321e-05
1.71179e-05
1.71185e-05
2.0209e-05
2.08732e-05
1.68317e-05
1.68327e-05
1.71179e-05
1.71192e-05
1.68319e-05
1.7117e-05
1.71183e-05
2.02106e-05
2.08751e-05
1.68322e-05
1.7118e-05
1.71186e-05
2.08751e-05
2.1053e-05
2.17159e-05
1.72175e-05
1.72182e-05
1.75245e-05
1.75252e-05
2.10522e-05
2.1715e-05
1.72176e-05
1.72188e-05
1.75243e-05
1.75258e-05
1.7218e-05
1.75233e-05
1.7525e-05
2.10539e-05
2.17169e-05
1.72182e-05
1.75245e-05
1.75251e-05
2.1717e-05
2.18923e-05
2.24705e-05
1.76317e-05
1.76324e-05
1.79614e-05
1.7962e-05
2.18913e-05
2.24696e-05
1.76315e-05
1.7633e-05
1.7961e-05
1.79631e-05
1.76322e-05
1.79603e-05
1.7962e-05
2.18931e-05
2.2472e-05
1.76322e-05
1.79613e-05
1.79619e-05
2.24719e-05
2.26155e-05
2.28999e-05
1.80588e-05
1.80594e-05
1.82348e-05
1.82355e-05
2.26146e-05
2.28988e-05
1.80583e-05
1.80605e-05
1.82343e-05
1.82363e-05
1.80594e-05
1.82334e-05
1.82358e-05
2.2617e-05
2.29014e-05
1.80592e-05
1.82349e-05
1.82353e-05
2.29015e-05
2.29689e-05
2.29919e-05
1.8253e-05
1.82537e-05
1.82403e-05
1.82409e-05
2.29678e-05
2.29905e-05
1.82526e-05
1.82545e-05
1.82399e-05
1.82415e-05
1.82541e-05
1.82386e-05
1.82414e-05
2.29702e-05
2.29929e-05
1.82535e-05
1.82405e-05
1.82409e-05
2.29934e-05
2.30259e-05
2.29684e-05
1.82152e-05
1.82158e-05
1.81882e-05
1.81888e-05
2.30244e-05
2.29668e-05
1.82149e-05
1.82163e-05
1.8188e-05
1.81891e-05
1.82163e-05
1.81862e-05
1.81895e-05
2.30266e-05
2.29692e-05
1.82158e-05
1.81884e-05
1.8189e-05
2.29701e-05
2.30043e-05
2.29946e-05
1.81874e-05
1.81881e-05
1.81968e-05
1.81975e-05
2.30027e-05
2.29928e-05
1.81873e-05
1.81884e-05
1.81966e-05
1.81976e-05
1.81888e-05
1.81948e-05
1.81981e-05
2.3005e-05
2.29951e-05
1.81883e-05
1.8197e-05
1.81977e-05
2.29961e-05
2.30349e-05
2.30243e-05
1.82086e-05
1.82092e-05
1.82362e-05
1.82368e-05
2.30332e-05
2.30224e-05
1.82084e-05
1.82094e-05
1.8236e-05
1.8237e-05
1.82099e-05
1.82341e-05
1.82375e-05
2.30353e-05
2.30247e-05
1.82094e-05
1.82363e-05
1.8237e-05
2.30257e-05
2.30624e-05
2.30424e-05
1.82426e-05
1.82433e-05
1.82554e-05
1.8256e-05
2.30606e-05
2.30404e-05
1.82425e-05
1.82434e-05
1.82552e-05
1.82561e-05
1.82439e-05
1.82533e-05
1.82567e-05
2.30627e-05
2.30427e-05
1.82434e-05
1.82554e-05
1.82562e-05
2.30438e-05
2.3079e-05
2.30461e-05
1.82578e-05
1.82584e-05
1.82616e-05
1.82621e-05
2.3077e-05
2.30439e-05
1.82577e-05
1.82585e-05
1.82614e-05
1.82622e-05
1.82591e-05
1.82594e-05
1.82628e-05
2.30791e-05
2.30463e-05
1.82586e-05
1.82616e-05
1.82623e-05
2.30473e-05
2.30812e-05
2.30452e-05
1.82621e-05
1.82626e-05
1.82631e-05
1.82636e-05
2.30791e-05
2.3043e-05
1.8262e-05
1.82627e-05
1.82631e-05
1.82638e-05
1.82633e-05
1.8261e-05
1.82643e-05
2.30812e-05
2.30454e-05
1.82628e-05
1.82632e-05
1.82638e-05
2.30463e-05
2.30806e-05
2.30469e-05
1.82633e-05
1.82639e-05
1.8264e-05
1.82646e-05
2.30785e-05
2.30449e-05
1.82633e-05
1.82641e-05
1.82639e-05
1.82648e-05
1.82645e-05
1.82619e-05
1.82651e-05
2.30807e-05
2.30474e-05
1.8264e-05
1.82641e-05
1.82646e-05
2.30481e-05
2.30822e-05
2.30467e-05
1.8264e-05
1.82647e-05
1.82641e-05
1.82648e-05
2.30803e-05
2.30449e-05
1.8264e-05
1.82649e-05
1.82641e-05
1.82651e-05
1.82653e-05
1.82621e-05
1.82654e-05
2.30825e-05
2.30472e-05
1.82647e-05
1.82643e-05
1.82649e-05
2.3048e-05
2.30823e-05
2.30451e-05
1.8264e-05
1.82648e-05
1.82641e-05
1.82648e-05
2.30805e-05
2.30433e-05
1.82641e-05
1.8265e-05
1.82641e-05
1.82651e-05
1.82654e-05
1.82621e-05
1.82654e-05
2.30827e-05
2.30457e-05
1.82649e-05
1.82643e-05
1.82649e-05
2.30465e-05
2.30806e-05
2.30468e-05
1.8264e-05
1.82648e-05
1.82641e-05
1.82648e-05
2.30789e-05
2.30449e-05
1.82641e-05
1.82651e-05
1.82641e-05
1.82651e-05
1.82654e-05
1.82621e-05
1.82654e-05
2.3081e-05
2.30474e-05
1.82649e-05
1.82643e-05
1.82649e-05
2.30483e-05
2.30806e-05
2.30492e-05
1.8264e-05
1.82648e-05
1.8264e-05
1.82649e-05
2.30788e-05
2.30473e-05
1.82641e-05
1.8265e-05
1.82642e-05
1.82651e-05
1.82654e-05
1.82622e-05
1.82655e-05
2.3081e-05
2.30496e-05
1.82649e-05
1.82644e-05
1.8265e-05
2.30508e-05
2.30842e-05
2.30466e-05
1.8264e-05
1.82648e-05
1.82641e-05
1.82649e-05
2.30824e-05
2.30455e-05
1.82641e-05
1.82651e-05
1.82642e-05
1.82651e-05
1.82655e-05
1.82622e-05
1.82656e-05
2.30845e-05
2.30474e-05
1.8265e-05
1.82644e-05
1.82651e-05
2.30483e-05
2.30824e-05
2.30473e-05
1.8264e-05
1.82648e-05
1.8264e-05
1.82649e-05
2.30812e-05
2.30456e-05
1.82642e-05
1.82651e-05
1.82643e-05
1.82652e-05
1.82656e-05
1.82623e-05
1.82656e-05
2.30831e-05
2.30476e-05
1.82651e-05
1.82645e-05
1.82651e-05
2.3048e-05
2.3083e-05
2.30474e-05
1.8264e-05
1.82648e-05
1.82641e-05
1.82649e-05
2.30821e-05
2.30442e-05
1.82643e-05
1.82651e-05
1.82643e-05
1.82652e-05
1.82656e-05
1.82623e-05
1.82657e-05
2.30837e-05
2.3047e-05
1.82651e-05
1.82645e-05
1.82652e-05
2.30484e-05
2.30836e-05
2.30476e-05
1.8264e-05
1.82648e-05
1.82641e-05
1.8265e-05
2.30809e-05
2.30447e-05
1.82643e-05
1.82651e-05
1.82645e-05
1.82653e-05
1.82656e-05
1.82624e-05
1.82658e-05
2.30833e-05
2.30474e-05
1.82651e-05
1.82645e-05
1.82653e-05
2.30502e-05
2.30864e-05
2.3039e-05
1.82641e-05
1.82649e-05
1.8264e-05
1.82648e-05
2.30837e-05
2.30371e-05
1.82645e-05
1.82653e-05
1.82643e-05
1.82651e-05
1.82658e-05
1.82622e-05
1.82656e-05
2.30863e-05
2.30393e-05
1.82653e-05
1.82644e-05
1.82651e-05
2.3041e-05
2.30774e-05
2.30431e-05
1.82641e-05
1.82649e-05
1.8264e-05
1.82647e-05
2.30756e-05
2.3041e-05
1.82643e-05
1.82652e-05
1.82642e-05
1.8265e-05
1.82657e-05
1.82621e-05
1.82655e-05
2.30777e-05
2.30432e-05
1.82652e-05
1.82642e-05
1.8265e-05
2.30433e-05
2.30753e-05
2.30536e-05
1.82639e-05
1.82647e-05
1.82641e-05
1.82648e-05
2.30733e-05
2.30517e-05
1.82641e-05
1.8265e-05
1.82643e-05
1.82652e-05
1.82654e-05
1.82622e-05
1.82656e-05
2.30754e-05
2.30539e-05
1.82649e-05
1.82644e-05
1.82651e-05
2.30546e-05
2.30859e-05
2.30473e-05
1.82641e-05
1.82648e-05
1.82608e-05
1.82614e-05
2.30837e-05
2.30457e-05
1.82643e-05
1.82651e-05
1.82609e-05
1.82618e-05
1.82656e-05
1.82589e-05
1.82622e-05
2.30859e-05
2.30478e-05
1.82651e-05
1.8261e-05
1.82617e-05
2.30491e-05
2.3085e-05
2.30402e-05
1.82611e-05
1.82617e-05
1.8262e-05
1.82625e-05
2.30833e-05
2.30383e-05
1.82612e-05
1.8262e-05
1.82621e-05
1.82629e-05
1.82625e-05
1.82599e-05
1.82633e-05
2.30853e-05
2.30404e-05
1.82619e-05
1.8262e-05
1.82628e-05
2.30425e-05
2.30814e-05
2.30363e-05
1.82624e-05
1.82629e-05
1.82628e-05
1.82633e-05
2.30796e-05
2.30344e-05
1.82625e-05
1.82632e-05
1.82628e-05
1.82636e-05
1.82637e-05
1.82607e-05
1.82641e-05
2.30816e-05
2.30365e-05
1.82632e-05
1.82627e-05
1.82635e-05
2.30378e-05
2.30745e-05
2.30373e-05
1.8263e-05
1.82635e-05
1.82625e-05
1.82631e-05
2.30726e-05
2.30357e-05
1.8263e-05
1.82638e-05
1.82625e-05
1.82634e-05
1.82643e-05
1.82606e-05
1.82638e-05
2.30745e-05
2.30376e-05
1.82637e-05
1.82625e-05
1.82632e-05
2.30381e-05
2.30709e-05
2.30407e-05
1.82624e-05
1.82629e-05
1.82619e-05
1.82625e-05
2.30693e-05
2.30388e-05
1.82623e-05
1.82633e-05
1.82618e-05
1.82627e-05
1.82637e-05
1.82599e-05
1.82632e-05
2.30711e-05
2.30409e-05
1.82631e-05
1.82617e-05
1.82626e-05
2.30411e-05
2.30724e-05
2.30469e-05
1.82618e-05
1.82624e-05
1.82619e-05
1.82624e-05
2.30706e-05
2.30445e-05
1.82617e-05
1.82626e-05
1.82617e-05
1.82626e-05
1.82631e-05
1.82598e-05
1.82631e-05
2.30726e-05
2.30467e-05
1.82625e-05
1.82616e-05
1.82626e-05
2.30477e-05
2.30776e-05
2.30503e-05
1.82618e-05
1.82623e-05
1.82622e-05
1.82627e-05
2.30752e-05
2.30485e-05
1.82616e-05
1.82625e-05
1.8262e-05
1.82629e-05
1.82631e-05
1.82601e-05
1.82635e-05
2.30773e-05
2.30505e-05
1.82625e-05
1.8262e-05
1.82629e-05
2.30521e-05
2.30838e-05
2.30496e-05
1.82622e-05
1.82626e-05
1.82628e-05
1.82633e-05
2.30817e-05
2.30481e-05
1.8262e-05
1.82628e-05
1.82625e-05
1.82635e-05
1.82634e-05
1.82607e-05
1.8264e-05
2.30835e-05
2.30504e-05
1.82628e-05
1.82626e-05
1.82634e-05
2.30501e-05
2.30862e-05
2.30468e-05
1.82627e-05
1.82633e-05
1.82632e-05
1.82637e-05
2.30847e-05
2.30448e-05
1.82625e-05
1.82635e-05
1.82629e-05
1.82639e-05
1.8264e-05
1.82611e-05
1.82643e-05
2.30868e-05
2.30467e-05
1.82633e-05
1.8263e-05
1.82637e-05
2.3044e-05
2.30855e-05
2.30459e-05
1.82633e-05
1.82638e-05
1.82636e-05
1.8264e-05
2.30839e-05
2.30429e-05
1.8263e-05
1.8264e-05
1.82632e-05
1.82641e-05
1.82646e-05
1.82614e-05
1.82646e-05
2.30858e-05
2.30441e-05
1.82639e-05
1.82633e-05
1.8264e-05
2.30417e-05
2.30858e-05
2.30426e-05
1.82637e-05
1.8264e-05
1.82639e-05
1.82642e-05
2.30833e-05
2.30402e-05
1.82632e-05
1.82642e-05
1.82634e-05
1.82645e-05
1.82647e-05
1.82617e-05
1.82649e-05
2.30844e-05
2.30433e-05
1.8264e-05
1.82635e-05
1.82642e-05
2.30416e-05
2.30841e-05
2.30384e-05
1.8264e-05
1.82644e-05
1.8264e-05
1.82643e-05
2.30819e-05
2.30365e-05
1.82636e-05
1.82646e-05
1.82635e-05
1.82646e-05
1.8265e-05
1.82618e-05
1.8265e-05
2.30847e-05
2.30389e-05
1.82643e-05
1.82637e-05
1.82644e-05
2.30402e-05
2.30751e-05
2.30441e-05
1.82641e-05
1.82644e-05
1.82642e-05
1.82645e-05
2.30727e-05
2.30434e-05
1.82636e-05
1.82647e-05
1.82637e-05
1.82647e-05
1.82651e-05
1.8262e-05
1.82652e-05
2.30779e-05
2.30413e-05
1.82644e-05
1.82638e-05
1.82645e-05
2.30442e-05
2.30761e-05
2.30535e-05
1.82642e-05
1.82645e-05
1.82644e-05
1.82648e-05
2.30751e-05
2.3052e-05
1.82636e-05
1.82646e-05
1.82639e-05
1.82648e-05
1.82651e-05
1.82622e-05
1.82653e-05
2.30743e-05
2.30491e-05
1.82645e-05
1.82639e-05
1.82646e-05
2.30522e-05
2.30855e-05
2.30521e-05
1.82643e-05
1.82646e-05
1.82645e-05
1.82649e-05
2.30849e-05
2.30499e-05
1.82637e-05
1.82647e-05
1.82639e-05
1.8265e-05
1.82651e-05
1.82623e-05
1.82654e-05
2.30799e-05
2.30541e-05
1.82645e-05
1.82641e-05
1.82648e-05
2.30549e-05
2.30889e-05
2.30462e-05
1.82644e-05
1.82648e-05
1.82646e-05
1.82649e-05
2.30872e-05
2.30439e-05
1.82638e-05
1.82649e-05
1.8264e-05
1.82653e-05
1.82654e-05
1.82624e-05
1.82657e-05
2.30872e-05
2.30525e-05
1.82647e-05
1.82642e-05
1.8265e-05
2.30522e-05
2.30864e-05
2.30408e-05
1.82647e-05
1.8265e-05
1.82648e-05
1.8265e-05
2.30844e-05
2.30388e-05
1.82641e-05
1.82652e-05
1.82641e-05
1.82653e-05
1.82657e-05
1.82624e-05
1.82658e-05
2.30894e-05
2.30468e-05
1.8265e-05
1.82643e-05
1.82651e-05
2.30465e-05
2.30809e-05
2.30404e-05
1.82648e-05
1.8265e-05
1.82648e-05
1.8265e-05
2.3079e-05
2.30385e-05
1.82642e-05
1.82653e-05
1.82642e-05
1.82653e-05
1.82658e-05
1.82625e-05
1.82657e-05
2.30869e-05
2.30408e-05
1.82651e-05
1.82643e-05
1.82651e-05
2.30416e-05
2.30759e-05
2.30427e-05
1.82648e-05
1.8265e-05
1.82649e-05
1.82651e-05
2.30742e-05
2.30405e-05
1.82642e-05
1.82653e-05
1.82643e-05
1.82653e-05
1.82657e-05
1.82625e-05
1.82657e-05
2.30808e-05
2.30408e-05
1.82651e-05
1.82643e-05
1.82651e-05
2.30417e-05
2.30755e-05
2.30476e-05
1.82648e-05
1.8265e-05
1.82649e-05
1.82651e-05
2.30736e-05
2.3045e-05
1.82642e-05
1.82653e-05
1.82643e-05
1.82653e-05
1.82657e-05
1.82625e-05
1.82658e-05
2.30749e-05
2.30473e-05
1.82651e-05
1.82644e-05
1.82651e-05
2.30448e-05
2.30786e-05
2.30539e-05
1.82648e-05
1.8265e-05
1.8265e-05
1.82652e-05
2.30763e-05
2.30517e-05
1.82642e-05
1.82652e-05
1.82644e-05
1.82654e-05
1.82657e-05
1.82626e-05
1.82658e-05
2.30786e-05
2.3054e-05
1.8265e-05
1.82645e-05
1.82651e-05
2.3051e-05
2.30859e-05
2.30524e-05
1.82648e-05
1.8265e-05
1.8265e-05
1.82652e-05
2.30837e-05
2.30501e-05
1.82642e-05
1.82653e-05
1.82644e-05
1.82654e-05
1.82658e-05
1.82627e-05
1.82659e-05
2.30865e-05
2.30522e-05
1.82651e-05
1.82645e-05
1.82652e-05
2.30521e-05
2.30894e-05
2.30422e-05
1.8265e-05
1.82652e-05
1.82649e-05
1.82651e-05
2.30874e-05
2.30394e-05
1.82643e-05
1.82654e-05
1.82642e-05
1.82653e-05
1.82658e-05
1.82625e-05
1.82658e-05
2.30893e-05
2.30434e-05
1.82651e-05
1.82644e-05
1.82651e-05
2.30478e-05
2.30828e-05
2.30412e-05
1.82649e-05
1.82651e-05
1.82648e-05
1.8265e-05
2.30797e-05
2.30396e-05
1.82643e-05
1.82654e-05
1.82642e-05
1.82653e-05
1.82658e-05
1.82625e-05
1.82657e-05
2.30839e-05
2.30406e-05
1.8265e-05
1.82643e-05
1.8265e-05
2.30465e-05
2.30752e-05
2.30477e-05
1.82648e-05
1.8265e-05
1.82649e-05
1.8265e-05
2.30733e-05
2.30446e-05
1.82642e-05
1.82653e-05
1.82642e-05
1.82653e-05
1.82657e-05
1.82624e-05
1.82658e-05
2.30758e-05
2.30447e-05
1.82649e-05
1.82643e-05
1.82651e-05
2.30541e-05
2.30795e-05
2.30493e-05
1.82648e-05
1.8265e-05
1.82648e-05
1.82649e-05
2.30764e-05
2.30462e-05
1.82642e-05
1.82652e-05
1.82642e-05
1.82652e-05
1.82656e-05
1.82624e-05
1.82657e-05
2.30771e-05
2.30477e-05
1.82649e-05
1.82642e-05
1.82649e-05
2.30498e-05
2.30806e-05
2.30437e-05
1.82648e-05
1.82649e-05
1.8261e-05
1.82611e-05
2.30774e-05
2.30412e-05
1.82641e-05
1.82651e-05
1.82603e-05
1.82614e-05
1.82657e-05
1.82586e-05
1.82618e-05
2.3079e-05
2.30429e-05
1.82649e-05
1.82604e-05
1.8261e-05
2.30389e-05
2.30746e-05
2.30484e-05
1.82612e-05
1.82613e-05
1.82621e-05
1.82622e-05
2.30721e-05
2.30464e-05
1.82605e-05
1.82615e-05
1.82615e-05
1.82624e-05
1.8262e-05
1.82597e-05
1.82629e-05
2.30739e-05
2.30479e-05
1.82613e-05
1.82615e-05
1.82621e-05
2.30399e-05
2.30796e-05
2.3051e-05
1.82623e-05
1.82624e-05
1.82633e-05
1.82634e-05
2.30775e-05
2.30489e-05
1.82616e-05
1.82626e-05
1.82627e-05
1.82636e-05
1.82632e-05
1.82608e-05
1.8264e-05
2.30787e-05
2.3051e-05
1.82624e-05
1.82626e-05
1.82632e-05
2.3047e-05
2.30851e-05
2.30487e-05
1.82633e-05
1.82635e-05
1.82635e-05
1.82636e-05
2.30833e-05
2.30466e-05
1.82627e-05
1.82636e-05
1.82629e-05
1.82639e-05
1.8264e-05
1.8261e-05
1.82643e-05
2.30847e-05
2.30489e-05
1.82633e-05
1.82628e-05
1.82635e-05
2.30521e-05
2.30858e-05
2.30433e-05
1.82634e-05
1.82635e-05
1.82628e-05
1.8263e-05
2.30839e-05
2.30406e-05
1.82627e-05
1.82638e-05
1.82622e-05
1.82633e-05
1.82641e-05
1.82605e-05
1.82637e-05
2.30858e-05
2.30435e-05
1.82633e-05
1.82622e-05
1.82629e-05
2.30492e-05
2.30831e-05
2.30381e-05
1.82626e-05
1.82629e-05
1.82622e-05
1.82625e-05
2.30809e-05
2.30352e-05
1.8262e-05
1.82631e-05
1.82616e-05
1.82627e-05
1.82635e-05
1.82599e-05
1.82632e-05
2.30833e-05
2.30378e-05
1.82626e-05
1.82617e-05
1.82624e-05
2.30438e-05
2.30792e-05
2.30363e-05
1.82622e-05
1.82625e-05
1.82622e-05
1.82625e-05
2.30762e-05
2.30341e-05
1.82617e-05
1.82627e-05
1.82616e-05
1.82626e-05
1.82632e-05
1.82599e-05
1.82632e-05
2.30788e-05
2.30363e-05
1.82624e-05
1.82617e-05
1.82624e-05
2.30394e-05
2.30752e-05
2.30375e-05
1.82623e-05
1.82626e-05
1.82626e-05
1.82628e-05
2.30715e-05
2.30365e-05
1.82618e-05
1.82627e-05
1.82619e-05
1.8263e-05
1.82634e-05
1.82603e-05
1.82636e-05
2.30743e-05
2.30379e-05
1.82626e-05
1.82621e-05
1.82627e-05
2.30386e-05
2.30723e-05
2.30413e-05
1.82629e-05
1.8263e-05
1.82631e-05
1.82635e-05
2.30701e-05
2.30427e-05
1.82622e-05
1.82633e-05
1.82624e-05
1.82636e-05
1.82638e-05
1.82609e-05
1.8264e-05
2.30722e-05
2.30427e-05
1.8263e-05
1.82626e-05
1.82631e-05
2.30392e-05
2.3074e-05
2.30455e-05
1.82632e-05
1.82636e-05
1.82636e-05
1.82638e-05
2.30744e-05
2.30469e-05
1.82626e-05
1.82637e-05
1.82629e-05
1.8264e-05
1.82643e-05
1.82612e-05
1.82645e-05
2.30748e-05
2.30488e-05
1.82635e-05
1.82629e-05
1.82637e-05
2.30426e-05
2.30771e-05
2.30463e-05
1.82637e-05
1.82639e-05
1.82637e-05
1.8264e-05
2.30782e-05
2.3047e-05
1.8263e-05
1.82641e-05
1.8263e-05
1.82642e-05
1.82647e-05
1.82614e-05
1.82647e-05
2.30799e-05
2.30497e-05
1.82638e-05
1.82631e-05
1.82638e-05
2.30454e-05
2.30775e-05
2.30517e-05
1.82639e-05
1.82641e-05
1.82639e-05
1.82641e-05
2.3078e-05
2.30507e-05
1.82632e-05
1.82644e-05
1.82632e-05
1.82643e-05
1.82649e-05
1.82615e-05
1.82647e-05
2.30811e-05
2.30499e-05
1.8264e-05
1.82632e-05
1.82639e-05
2.30449e-05
2.30824e-05
2.3053e-05
1.82641e-05
1.82643e-05
1.8264e-05
1.82643e-05
2.3082e-05
2.30509e-05
1.82634e-05
1.82645e-05
1.82634e-05
1.82644e-05
1.8265e-05
1.82617e-05
1.82648e-05
2.30805e-05
2.30544e-05
1.82642e-05
1.82634e-05
1.8264e-05
2.30494e-05
2.30895e-05
2.30424e-05
1.82644e-05
1.82647e-05
1.8264e-05
1.82642e-05
2.30878e-05
2.30399e-05
1.82638e-05
1.82648e-05
1.82633e-05
1.82645e-05
1.82652e-05
1.82616e-05
1.82649e-05
2.30873e-05
2.3051e-05
1.82644e-05
1.82634e-05
1.82642e-05
2.30549e-05
2.30835e-05
2.30394e-05
1.82647e-05
1.82649e-05
1.8264e-05
1.82642e-05
2.30811e-05
2.30379e-05
1.8264e-05
1.82651e-05
1.82633e-05
1.82645e-05
1.82655e-05
1.82617e-05
1.82649e-05
2.30889e-05
2.30415e-05
1.82647e-05
1.82635e-05
1.82642e-05
2.30468e-05
2.30751e-05
2.30424e-05
1.82649e-05
1.82652e-05
1.82641e-05
1.82644e-05
2.30727e-05
2.30422e-05
1.82642e-05
1.82655e-05
1.82634e-05
1.82646e-05
1.82658e-05
1.82618e-05
1.8265e-05
2.30826e-05
2.30401e-05
1.82651e-05
1.82635e-05
1.82642e-05
2.30411e-05
2.30752e-05
2.30477e-05
1.82653e-05
1.82656e-05
1.82643e-05
1.82645e-05
2.30744e-05
2.30479e-05
1.82646e-05
1.82659e-05
1.82636e-05
1.82648e-05
1.82663e-05
1.8262e-05
1.82651e-05
2.30754e-05
2.30435e-05
1.82655e-05
1.82637e-05
1.82644e-05
2.30415e-05
2.30785e-05
2.30538e-05
1.82659e-05
1.82661e-05
1.82645e-05
1.82648e-05
2.30785e-05
2.30529e-05
1.82651e-05
1.82664e-05
1.82638e-05
1.8265e-05
1.82668e-05
1.82622e-05
1.82653e-05
2.30758e-05
2.30493e-05
1.8266e-05
1.82639e-05
1.82646e-05
2.30452e-05
2.3084e-05
2.30569e-05
1.82667e-05
1.82669e-05
1.82648e-05
1.82649e-05
2.30839e-05
2.30548e-05
1.82659e-05
1.82671e-05
1.82641e-05
1.82652e-05
1.82675e-05
1.82624e-05
1.82656e-05
2.30796e-05
2.30551e-05
1.82667e-05
1.82641e-05
1.82647e-05
2.30521e-05
2.30896e-05
2.30527e-05
1.82675e-05
1.82676e-05
1.82596e-05
1.82597e-05
2.30885e-05
2.30502e-05
1.82668e-05
1.82679e-05
1.82589e-05
1.82599e-05
1.82683e-05
1.82573e-05
1.82604e-05
2.30843e-05
2.30553e-05
1.82674e-05
1.82588e-05
1.82594e-05
2.30537e-05
2.30881e-05
2.27279e-05
1.82649e-05
1.8265e-05
1.79639e-05
1.79641e-05
2.30863e-05
2.27272e-05
1.82641e-05
1.82652e-05
1.79642e-05
1.79635e-05
1.82656e-05
1.79632e-05
1.79645e-05
2.30843e-05
2.27285e-05
1.82645e-05
1.79637e-05
1.79645e-05
2.27291e-05
2.23379e-05
1.76054e-05
1.76055e-05
2.23375e-05
1.76059e-05
1.76047e-05
1.29574e-05
1.29573e-05
1.29577e-05
1.76057e-05
2.23361e-05
1.76061e-05
3.73773e-05
3.73765e-05
3.7377e-05
3.7377e-05
3.73701e-05
3.73777e-05
3.73043e-05
3.73768e-05
3.73702e-05
3.73777e-05
3.73768e-05
3.73043e-05
3.73741e-05
3.72959e-05
3.72959e-05
3.58799e-05
4.08724e-05
3.66033e-05
4.51463e-05
5.51147e-05
6.48944e-05
3.58804e-05
4.08716e-05
3.66033e-05
4.51461e-05
3.58932e-05
3.58933e-05
3.58932e-05
3.44005e-05
3.44005e-05
3.44005e-05
3.44005e-05
3.52758e-05
3.56383e-05
3.58929e-05
3.53771e-05
3.60475e-05
3.42366e-05
3.53822e-05
5.51168e-05
6.48987e-05
3.52759e-05
3.58929e-05
3.56379e-05
3.53771e-05
3.60474e-05
3.53822e-05
3.42376e-05
3.65969e-05
3.65974e-05
3.52791e-05
3.40645e-05
3.40636e-05
3.39658e-05
5.13538e-05
3.46791e-05
5.46244e-05
7.65455e-05
8.08609e-05
3.39683e-05
5.13547e-05
3.46787e-05
5.4625e-05
3.39296e-05
3.39297e-05
3.39297e-05
3.25855e-05
3.25854e-05