/*--------------------------------*- C++ -*----------------------------------*\
| =========                 |                                                 |
| \\      /  F ield         | OpenFOAM: The Open Source CFD Toolbox           |
|  \\    /   O peration     | Version:  v1906                                 |
|   \\  /    A nd           | Web:      www.OpenFOAM.com                      |
|    \\/     M anipulation  |                                                 |
\*---------------------------------------------------------------------------*/
FoamFile
{
    version     2.0;
    format      ascii;
    class       volScalarField;
    location    "125";
    object      k;
}
// * * * * * * * * * * * * * * * * * * * * * * * * * * * * * * * * * * * * * //

dimensions      [0 2 -2 0 0 0 0];


internalField   nonuniform List<scalar> 
171728
(
2.30531e-05
1.82654e-05
1.82649e-05
2.30513e-05
1.82636e-05
1.82651e-05
1.82623e-05
1.82657e-05
2.30533e-05
1.82643e-05
1.82651e-05
2.30542e-05
1.3079e-05
1.30787e-05
1.30791e-05
1.30795e-05
6.91436e-05
6.91458e-05
6.16034e-05
6.16112e-05
5.77326e-05
6.99549e-05
5.77359e-05
5.77343e-05
6.99601e-05
6.99588e-05
5.77377e-05
3.77743e-05
5.06324e-05
1.46496e-05
1.46495e-05
3.7775e-05
3.77758e-05
1.82649e-05
5.06356e-05
1.46499e-05
5.06356e-05
1.46499e-05
3.77764e-05
6.91458e-05
6.91406e-05
2.30842e-05
6.16127e-05
6.15973e-05
6.16111e-05
6.15963e-05
6.91417e-05
6.91362e-05
6.99603e-05
5.77396e-05
5.06343e-05
1.46509e-05
3.77786e-05
6.9955e-05
5.7738e-05
1.46504e-05
5.06307e-05
3.77776e-05
3.77768e-05
1.82623e-05
5.06292e-05
1.46499e-05
5.06305e-05
1.46499e-05
3.77766e-05
5.77347e-05
6.99584e-05
6.99572e-05
5.7738e-05
3.77758e-05
1.82656e-05
1.46504e-05
5.0632e-05
1.46504e-05
5.0632e-05
3.77761e-05
5.77334e-05
6.9956e-05
6.99547e-05
5.77366e-05
6.91439e-05
6.16056e-05
6.16021e-05
6.9144e-05
3.77778e-05
1.46511e-05
5.06325e-05
1.4651e-05
3.77775e-05
3.77786e-05
1.8265e-05
1.46514e-05
5.06361e-05
1.46513e-05
5.0636e-05
3.77783e-05
5.7735e-05
6.99563e-05
5.77386e-05
5.77362e-05
6.99607e-05
6.99594e-05
5.77398e-05
2.30872e-05
6.16022e-05
6.16137e-05
6.16008e-05
6.16121e-05
6.91438e-05
6.91387e-05
6.91462e-05
6.9141e-05
6.91384e-05
6.91406e-05
6.13793e-05
4.62136e-05
6.16017e-05
6.91828e-05
6.91806e-05
4.62053e-05
6.13949e-05
6.14401e-05
4.62148e-05
6.161e-05
6.91931e-05
6.91923e-05
4.62161e-05
6.14299e-05
8.86357e-05
7.19514e-05
7.19449e-05
7.19449e-05
7.19388e-05
8.86354e-05
6.97236e-05
6.9286e-05
6.24642e-05
5.77358e-05
6.9721e-05
6.92877e-05
6.24687e-05
7.03018e-05
6.99537e-05
7.47374e-05
7.47323e-05
7.03106e-05
6.9721e-05
5.77327e-05
6.92877e-05
6.24688e-05
6.9286e-05
6.24643e-05
6.97235e-05
6.9726e-05
6.92867e-05
6.2471e-05
5.77376e-05
6.97235e-05
6.92884e-05
6.24758e-05
7.03046e-05
6.99589e-05
7.47588e-05
7.47526e-05
7.03129e-05
7.03129e-05
7.47526e-05
6.99601e-05
7.03046e-05
7.47587e-05
6.97235e-05
5.77344e-05
6.92884e-05
6.2476e-05
6.92867e-05
6.24711e-05
6.9726e-05
6.91406e-05
6.91458e-05
8.86374e-05
7.19391e-05
7.1944e-05
8.86343e-05
7.19455e-05
7.19503e-05
6.14388e-05
4.62186e-05
6.16112e-05
6.91938e-05
4.62168e-05
6.91922e-05
6.14408e-05
6.13776e-05
4.62025e-05
6.15963e-05
6.91806e-05
6.91791e-05
4.62007e-05
6.13797e-05
6.14411e-05
6.91922e-05
4.62169e-05
6.16126e-05
4.62186e-05
6.14386e-05
6.91937e-05
6.13799e-05
6.91791e-05
4.62008e-05
6.15973e-05
6.13774e-05
6.91806e-05
4.62025e-05
8.86343e-05
7.19454e-05
7.19503e-05
7.19391e-05
7.19439e-05
8.86373e-05
6.91362e-05
6.91417e-05
7.03045e-05
6.99591e-05
7.47574e-05
7.47512e-05
7.03127e-05
6.97236e-05
5.7736e-05
6.24751e-05
6.92896e-05
6.247e-05
6.9288e-05
6.9726e-05
7.03013e-05
6.99537e-05
7.47364e-05
7.47308e-05
7.03102e-05
6.97213e-05
5.77345e-05
6.92889e-05
6.24687e-05
6.92872e-05
6.24641e-05
6.97238e-05
6.97255e-05
6.24701e-05
6.92868e-05
5.77379e-05
6.97231e-05
6.2475e-05
6.92885e-05
7.0304e-05
6.99572e-05
7.47566e-05
7.47503e-05
7.03123e-05
7.03123e-05
7.47503e-05
6.99584e-05
7.0304e-05
7.47565e-05
6.97231e-05
5.77348e-05
6.24752e-05
6.92885e-05
6.24701e-05
6.92868e-05
6.97255e-05
6.97243e-05
6.92863e-05
6.24655e-05
5.77366e-05
6.97218e-05
6.9288e-05
6.24703e-05
7.03023e-05
6.99548e-05
7.47375e-05
7.47314e-05
7.03105e-05
7.03105e-05
7.47313e-05
6.9956e-05
7.03023e-05
7.47374e-05
6.97218e-05
5.77335e-05
6.9288e-05
6.24705e-05
6.92863e-05
6.24656e-05
6.97242e-05
6.91383e-05
6.144e-05
4.62182e-05
6.16045e-05
6.91919e-05
4.62166e-05
6.91903e-05
6.14421e-05
6.13805e-05
4.62063e-05
6.16007e-05
6.91816e-05
6.91801e-05
4.62046e-05
6.13824e-05
8.86389e-05
7.19453e-05
7.19511e-05
7.19389e-05
7.19447e-05
8.86418e-05
6.91389e-05
6.97245e-05
6.24653e-05
6.92875e-05
5.77385e-05
6.97221e-05
6.24701e-05
6.92892e-05
7.03029e-05
6.99551e-05
7.47379e-05
7.47316e-05
7.03111e-05
7.03111e-05
7.47377e-05
6.97221e-05
5.77351e-05
6.24704e-05
6.92892e-05
6.24653e-05
6.92875e-05
6.97245e-05
6.97258e-05
6.24698e-05
6.9288e-05
5.77397e-05
6.97232e-05
6.24743e-05
6.92897e-05
7.03039e-05
6.99594e-05
7.47553e-05
7.47498e-05
7.03128e-05
7.03129e-05
7.475e-05
6.99607e-05
7.0304e-05
7.47555e-05
6.97232e-05
5.77363e-05
6.24743e-05
6.92897e-05
6.24697e-05
6.9288e-05
6.97258e-05
8.86395e-05
7.19446e-05
7.1939e-05
8.86366e-05
7.19509e-05
7.19454e-05
6.13783e-05
4.62053e-05
6.16008e-05
6.91813e-05
4.62035e-05
6.91797e-05
6.13804e-05
6.14405e-05
4.62208e-05
6.16122e-05
6.91941e-05
4.62189e-05
6.91926e-05
6.14425e-05
6.13806e-05
6.91797e-05
4.62036e-05
6.16021e-05
6.13781e-05
4.62053e-05
6.91813e-05
6.14428e-05
6.91926e-05
4.6219e-05
6.16136e-05
6.14403e-05
4.62209e-05
6.91941e-05
8.86365e-05
7.19509e-05
7.19453e-05
7.19445e-05
7.1939e-05
8.86394e-05
6.91387e-05
6.91439e-05
6.9141e-05
6.91462e-05
4.53599e-05
2.30893e-05
3.26429e-05
3.26363e-05
3.26539e-05
3.26594e-05
4.53595e-05
4.53593e-05
2.30878e-05
3.26413e-05
3.2636e-05
3.2657e-05
3.26516e-05
4.53581e-05
4.53605e-05
2.30898e-05
3.2642e-05
3.26388e-05
3.26577e-05
3.26543e-05
4.53598e-05
4.53607e-05
2.30907e-05
3.26382e-05
3.26446e-05
3.26536e-05
3.26601e-05
4.536e-05
1.22141e-05
1.22142e-05
1.22141e-05
1.19887e-05
1.19887e-05
1.30787e-05
1.22141e-05
1.22141e-05
1.22141e-05
1.22141e-05
1.19887e-05
1.19887e-05
1.22143e-05
1.22144e-05
1.22144e-05
1.19887e-05
1.19887e-05
1.30795e-05
1.22144e-05
1.22144e-05
1.22144e-05
1.22144e-05
1.19887e-05
1.19887e-05
2.57117e-05
4.12792e-05
2.35497e-05
3.77691e-05
2.57424e-05
4.12733e-05
2.35291e-05
2.95552e-05
3.57173e-05
5.0632e-05
4.64366e-05
3.57276e-05
4.644e-05
2.95288e-05
2.57424e-05
3.77746e-05
4.12788e-05
2.35295e-05
4.12777e-05
2.35497e-05
2.57117e-05
2.5715e-05
4.1285e-05
2.35509e-05
3.77707e-05
2.57458e-05
4.12791e-05
2.35302e-05
2.95601e-05
3.57199e-05
5.06354e-05
4.64458e-05
4.64498e-05
3.57322e-05
2.95332e-05
2.95333e-05
4.64503e-05
3.57323e-05
5.06356e-05
2.95595e-05
4.64445e-05
3.57199e-05
2.57456e-05
3.77762e-05
4.12842e-05
2.35305e-05
4.12833e-05
2.35508e-05
2.57147e-05
4.5356e-05
2.30511e-05
3.26573e-05
3.26519e-05
3.26414e-05
4.53603e-05
3.26362e-05
2.95598e-05
3.57172e-05
5.06348e-05
4.6444e-05
3.57312e-05
4.6448e-05
2.95321e-05
2.57471e-05
3.7779e-05
4.12842e-05
2.35328e-05
4.12831e-05
2.35531e-05
2.57157e-05
2.95568e-05
3.57179e-05
5.06307e-05
4.64361e-05
4.64398e-05
3.57301e-05
2.95297e-05
2.57446e-05
3.77775e-05
2.35319e-05
4.12801e-05
2.35522e-05
4.1279e-05
2.57134e-05
2.57132e-05
4.12842e-05
2.35508e-05
3.77714e-05
2.57442e-05
4.12774e-05
2.35302e-05
2.95561e-05
3.57117e-05
5.06293e-05
4.64426e-05
3.57238e-05
4.64467e-05
2.9529e-05
2.9529e-05
4.64474e-05
3.5724e-05
5.06293e-05
2.95553e-05
3.57117e-05
4.64411e-05
2.5744e-05
3.77766e-05
4.1283e-05
2.35305e-05
4.12815e-05
2.35507e-05
2.5713e-05
2.57137e-05
2.35509e-05
4.12816e-05
3.77709e-05
2.57445e-05
2.35304e-05
4.12759e-05
2.95571e-05
3.57156e-05
5.06318e-05
4.64383e-05
4.64425e-05
3.57276e-05
2.95301e-05
2.95304e-05
4.64428e-05
3.57277e-05
5.0632e-05
2.95565e-05
4.6437e-05
3.57155e-05
2.57443e-05
3.77762e-05
2.35306e-05
4.12807e-05
2.35508e-05
4.12799e-05
2.57134e-05
2.57146e-05
2.35531e-05
4.1282e-05
3.7772e-05
2.57455e-05
2.35324e-05
4.12748e-05
2.95569e-05
3.57152e-05
5.06322e-05
4.64394e-05
3.57274e-05
4.64412e-05
2.95301e-05
2.95298e-05
4.64352e-05
2.57453e-05
3.77774e-05
2.35327e-05
4.12813e-05
2.3553e-05
4.12793e-05
2.57145e-05
2.57171e-05
2.35538e-05
4.1286e-05
3.77731e-05
2.5748e-05
2.35332e-05
4.12798e-05
2.95608e-05
3.57207e-05
5.06359e-05
4.64436e-05
4.64485e-05
3.57329e-05
2.95335e-05
2.95339e-05
4.64495e-05
3.5733e-05
5.0636e-05
2.95601e-05
4.64436e-05
3.57207e-05
2.57478e-05
3.77788e-05
2.35335e-05
4.12841e-05
2.35537e-05
4.1284e-05
2.57168e-05
4.53578e-05
2.30542e-05
3.26539e-05
3.26603e-05
4.53619e-05
3.26383e-05
3.26446e-05
1.30794e-05
1.82625e-05
1.82644e-05
2.30775e-05
2.30892e-05
2.30798e-05
2.30425e-05
1.82649e-05
1.82651e-05
1.82648e-05
1.82651e-05
2.3073e-05
2.30476e-05
1.82643e-05
1.82654e-05
1.82642e-05
1.82653e-05
1.82656e-05
1.82625e-05
1.82658e-05
2.30781e-05
2.30422e-05
1.82649e-05
1.82643e-05
1.8265e-05
2.30554e-05
1.82658e-05
1.8265e-05
5.77355e-05
6.99537e-05
6.9955e-05
5.77321e-05
6.91404e-05
6.91456e-05
5.77393e-05
6.99585e-05
6.99598e-05
5.77357e-05
1.30792e-05
1.30798e-05
1.308e-05
1.30793e-05
1.30791e-05
1.30796e-05
1.30798e-05
3.77727e-05
5.063e-05
1.46504e-05
1.82625e-05
5.06297e-05
1.46503e-05
3.77763e-05
6.91384e-05
6.91439e-05
3.77717e-05
1.46512e-05
5.06327e-05
1.82644e-05
1.46511e-05
5.06326e-05
3.77764e-05
6.16006e-05
6.16123e-05
2.3043e-05
6.1602e-05
6.16138e-05
6.16008e-05
6.16124e-05
6.91386e-05
6.91437e-05
6.91405e-05
6.91457e-05
6.16002e-05
6.16109e-05
2.3051e-05
6.16017e-05
6.16125e-05
6.91437e-05
6.91386e-05
6.91457e-05
6.91405e-05
2.30837e-05
6.16018e-05
6.16125e-05
6.16001e-05
6.16109e-05
5.77374e-05
6.99587e-05
6.996e-05
5.77339e-05
3.77694e-05
5.06315e-05
1.465e-05
1.82648e-05
5.06316e-05
1.465e-05
3.77753e-05
3.77708e-05
5.06356e-05
1.46504e-05
1.82651e-05
5.06357e-05
1.46503e-05
3.77768e-05
5.77322e-05
6.9955e-05
6.99537e-05
5.77357e-05
5.7734e-05
6.996e-05
6.99587e-05
5.77376e-05
3.77753e-05
1.82648e-05
5.06313e-05
1.46499e-05
5.06312e-05
1.465e-05
3.77711e-05
3.77768e-05
1.82651e-05
5.06354e-05
1.46503e-05
5.06352e-05
1.46503e-05
3.77726e-05
6.16102e-05
6.15962e-05
2.30458e-05
6.16117e-05
6.15973e-05
6.91363e-05
6.91417e-05
6.91456e-05
6.91404e-05
2.3084e-05
6.16118e-05
6.15973e-05
6.16101e-05
6.15961e-05
6.91417e-05
6.91363e-05
3.77742e-05
5.06347e-05
1.46511e-05
1.82642e-05
5.06348e-05
1.46511e-05
3.77785e-05
5.77376e-05
6.99536e-05
6.99549e-05
5.7734e-05
3.77729e-05
1.46509e-05
5.06313e-05
1.82653e-05
1.46508e-05
5.06306e-05
3.7777e-05
5.77357e-05
6.99598e-05
6.99586e-05
5.77396e-05
3.77797e-05
1.82642e-05
5.06341e-05
1.4651e-05
5.0635e-05
1.4651e-05
3.77741e-05
5.77341e-05
6.9955e-05
6.99537e-05
5.77378e-05
3.77785e-05
1.82654e-05
1.46508e-05
5.06305e-05
1.46508e-05
5.0632e-05
3.77727e-05
5.77377e-05
6.99571e-05
6.99584e-05
5.77343e-05
3.77718e-05
1.46508e-05
5.06319e-05
1.82656e-05
1.46507e-05
5.06323e-05
3.77757e-05
5.77363e-05
6.99546e-05
6.99559e-05
5.7733e-05
3.77778e-05
1.82626e-05
5.06291e-05
1.46502e-05
5.06308e-05
1.46503e-05
3.77717e-05
5.77343e-05
6.99584e-05
6.99571e-05
5.77379e-05
3.7777e-05
1.82658e-05
1.46506e-05
5.06319e-05
1.46507e-05
5.06319e-05
3.77711e-05
5.7733e-05
6.9956e-05
6.99547e-05
5.77366e-05
6.16044e-05
6.16011e-05
2.30518e-05
6.16055e-05
6.16025e-05
6.91389e-05
6.91441e-05
6.91439e-05
6.91384e-05
2.30864e-05
6.16056e-05
6.16026e-05
6.16044e-05
6.1601e-05
6.91441e-05
6.91389e-05
3.77733e-05
1.46516e-05
5.06367e-05
1.82649e-05
1.46515e-05
5.06368e-05
3.77777e-05
5.7736e-05
6.9955e-05
6.99563e-05
5.77328e-05
5.77384e-05
6.99587e-05
6.996e-05
5.77351e-05
3.77771e-05
1.82644e-05
1.4651e-05
5.06325e-05
1.46511e-05
5.06321e-05
3.77718e-05
3.77787e-05
1.8265e-05
1.46514e-05
5.06363e-05
1.46515e-05
5.06363e-05
3.77733e-05
5.77329e-05
6.99563e-05
6.9955e-05
5.77362e-05
5.77351e-05
6.996e-05
6.99587e-05
5.77386e-05
6.91387e-05
6.91439e-05
6.9141e-05
6.91462e-05
2.30838e-05
6.16021e-05
6.16138e-05
6.16006e-05
6.16122e-05
6.91438e-05
6.91387e-05
6.91461e-05
6.9141e-05
1.46506e-05
5.06315e-05
3.77751e-05
6.99547e-05
5.77333e-05
5.0636e-05
6.99587e-05
6.91386e-05
6.9141e-05
6.9721e-05
6.92877e-05
6.24683e-05
5.77321e-05
6.92859e-05
6.24637e-05
6.97235e-05
7.03106e-05
6.99549e-05
7.47316e-05
7.47369e-05
7.03019e-05
7.03019e-05
7.4737e-05
6.99537e-05
7.47316e-05
7.03107e-05
6.97235e-05
5.77353e-05
6.9286e-05
6.24637e-05
6.92877e-05
6.24681e-05
6.9721e-05
6.91456e-05
6.91404e-05
6.97236e-05
6.24749e-05
6.92896e-05
5.77357e-05
6.24698e-05
6.9288e-05
6.9726e-05
7.03126e-05
6.99598e-05
7.47504e-05
7.47566e-05
7.03043e-05
7.03044e-05
7.47567e-05
6.99586e-05
7.47505e-05
7.03126e-05
6.9726e-05
5.7739e-05
6.24698e-05
6.9288e-05
6.24746e-05
6.92896e-05
6.97236e-05
6.91439e-05
6.91384e-05
8.86367e-05
7.1951e-05
7.19454e-05
7.19446e-05
7.19391e-05
8.86396e-05
6.13804e-05
4.62035e-05
6.16019e-05
6.91797e-05
4.62052e-05
6.91812e-05
6.13779e-05
6.14427e-05
4.62189e-05
6.16137e-05
6.91926e-05
4.62208e-05
6.91942e-05
6.14402e-05
6.13779e-05
6.91812e-05
6.16006e-05
4.62054e-05
4.62033e-05
6.91796e-05
6.13803e-05
6.14402e-05
6.91942e-05
6.16123e-05
4.6221e-05
4.62188e-05
6.91926e-05
6.14426e-05
8.86396e-05
7.19446e-05
7.19391e-05
7.1951e-05
7.19454e-05
8.86367e-05
6.13805e-05
4.62036e-05
6.91797e-05
6.1602e-05
6.13781e-05
4.62051e-05
6.91812e-05
6.14426e-05
4.62191e-05
6.91927e-05
6.16138e-05
6.14404e-05
4.62206e-05
6.91942e-05
8.86395e-05
7.19446e-05
7.1939e-05
8.86366e-05
7.19509e-05
7.19454e-05
6.91437e-05
6.91386e-05
6.91457e-05
6.91405e-05
8.86356e-05
7.19512e-05
7.19452e-05
7.19448e-05
7.19388e-05
8.86385e-05
6.13813e-05
4.62034e-05
6.16016e-05
6.91804e-05
6.91819e-05
4.62052e-05
6.13789e-05
6.1441e-05
4.62177e-05
6.16123e-05
6.91922e-05
6.91937e-05
4.62194e-05
6.14384e-05
6.13788e-05
6.91819e-05
6.16002e-05
4.62054e-05
6.91804e-05
6.13812e-05
4.62032e-05
6.14383e-05
6.91937e-05
6.16109e-05
4.62196e-05
6.91922e-05
6.14409e-05
4.62175e-05
8.86385e-05
7.19449e-05
7.19388e-05
7.19512e-05
7.19452e-05
8.86355e-05
6.91386e-05
6.91437e-05
6.91405e-05
6.91457e-05
8.86385e-05
7.19448e-05
7.19388e-05
8.86356e-05
7.19512e-05
7.19451e-05
6.13791e-05
4.62055e-05
6.16002e-05
6.91819e-05
6.91804e-05
4.62033e-05
6.13813e-05
6.14386e-05
4.62197e-05
6.16109e-05
6.91938e-05
6.91922e-05
4.62176e-05
6.1441e-05
6.13814e-05
6.91804e-05
4.62031e-05
6.16016e-05
6.1379e-05
6.91819e-05
4.62053e-05
6.14411e-05
6.91922e-05
4.62174e-05
6.16124e-05
6.14384e-05
6.91937e-05
4.62195e-05
8.86355e-05
7.19511e-05
7.19451e-05
7.19448e-05
7.19388e-05
8.86385e-05
6.97235e-05
6.92884e-05
6.24757e-05
5.77339e-05
6.92867e-05
6.24707e-05
6.97259e-05
7.03128e-05
6.996e-05
7.47524e-05
7.47585e-05
7.03046e-05
7.03046e-05
7.47586e-05
6.99587e-05
7.47524e-05
7.03128e-05
6.97259e-05
5.77371e-05
6.92867e-05
6.24707e-05
6.92884e-05
6.24755e-05
6.97235e-05
6.97235e-05
6.92859e-05
6.24637e-05
5.77355e-05
6.9721e-05
6.92877e-05
6.24683e-05
7.03019e-05
6.99537e-05
7.47371e-05
7.03107e-05
7.47318e-05
7.03107e-05
7.47317e-05
6.9955e-05
7.03019e-05
7.4737e-05
6.9721e-05
5.77324e-05
6.92877e-05
6.24685e-05
6.97235e-05
6.92859e-05
6.24639e-05
6.97259e-05
6.92867e-05
6.24708e-05
5.77374e-05
6.97235e-05
6.92884e-05
6.24757e-05
7.03046e-05
6.99588e-05
7.47588e-05
7.47526e-05
7.03129e-05
7.03129e-05
7.47525e-05
6.996e-05
7.03046e-05
7.47587e-05
6.97235e-05
5.77342e-05
6.92884e-05
6.24759e-05
6.92867e-05
6.2471e-05
6.97259e-05
8.86344e-05
7.19455e-05
7.19504e-05
7.19391e-05
7.1944e-05
8.86374e-05
6.14406e-05
4.62164e-05
6.16116e-05
6.9192e-05
6.91935e-05
4.62181e-05
6.14382e-05
6.13796e-05
4.62007e-05
6.15972e-05
6.9179e-05
4.62023e-05
6.91805e-05
6.13772e-05
6.14382e-05
6.91936e-05
6.16102e-05
4.62183e-05
6.9192e-05
4.62163e-05
6.14406e-05
6.13771e-05
6.91805e-05
6.15961e-05
4.62025e-05
4.62005e-05
6.9179e-05
6.13796e-05
8.86374e-05
7.19391e-05
7.1944e-05
7.19455e-05
7.19504e-05
8.86343e-05
6.91418e-05
6.91363e-05
6.91404e-05
6.91456e-05
8.86374e-05
7.19391e-05
7.1944e-05
8.86343e-05
7.19455e-05
7.19504e-05
6.14385e-05
4.62184e-05
6.16102e-05
6.91936e-05
4.62164e-05
6.9192e-05
6.14406e-05
6.13774e-05
4.62026e-05
6.15962e-05
6.91806e-05
6.9179e-05
4.62006e-05
6.13796e-05
6.14407e-05
6.9192e-05
4.62162e-05
6.16117e-05
4.62182e-05
6.14383e-05
6.91935e-05
6.13797e-05
6.9179e-05
4.62004e-05
6.15972e-05
6.13773e-05
6.91805e-05
4.62024e-05
8.86343e-05
7.19454e-05
7.19503e-05
7.19391e-05
7.1944e-05
8.86373e-05
6.91362e-05
6.91417e-05
6.97213e-05
6.92889e-05
6.24683e-05
5.7734e-05
6.92872e-05
6.24637e-05
6.97239e-05
7.03102e-05
6.99549e-05
7.47305e-05
7.4736e-05
7.03013e-05
7.03014e-05
7.47361e-05
6.99536e-05
7.47305e-05
7.03102e-05
6.97239e-05
5.77374e-05
6.92873e-05
6.24636e-05
6.92889e-05
6.24681e-05
6.97213e-05
6.9726e-05
6.24699e-05
6.9288e-05
5.77392e-05
6.97236e-05
6.24749e-05
6.92896e-05
7.03044e-05
6.99586e-05
7.4757e-05
7.03127e-05
7.47507e-05
7.03126e-05
7.47506e-05
6.99598e-05
7.03044e-05
7.47568e-05
6.97236e-05
5.77359e-05
6.24752e-05
6.92896e-05
6.9726e-05
6.24701e-05
6.9288e-05
6.97239e-05
6.92872e-05
6.24637e-05
5.77376e-05
6.97213e-05
6.92889e-05
6.24684e-05
7.03013e-05
6.99537e-05
7.47363e-05
7.47307e-05
7.03102e-05
7.03102e-05
7.47306e-05
6.99549e-05
7.03014e-05
7.47362e-05
6.97213e-05
5.77343e-05
6.92889e-05
6.24685e-05
6.92873e-05
6.24639e-05
6.97239e-05
6.9723e-05
6.24747e-05
6.92885e-05
5.77343e-05
6.24697e-05
6.92868e-05
6.97255e-05
7.03122e-05
6.99583e-05
7.47499e-05
7.47561e-05
7.0304e-05
7.0304e-05
7.47563e-05
6.99571e-05
7.47499e-05
7.03123e-05
6.97255e-05
5.77375e-05
6.24697e-05
6.92868e-05
6.24746e-05
6.92885e-05
6.9723e-05
6.97218e-05
6.9288e-05
6.247e-05
5.7733e-05
6.92863e-05
6.24651e-05
6.97242e-05
7.03105e-05
6.99559e-05
7.47309e-05
7.4737e-05
7.03022e-05
7.03022e-05
7.47371e-05
6.99547e-05
7.47309e-05
7.03105e-05
6.97242e-05
5.77361e-05
6.92863e-05
6.24651e-05
6.9288e-05
6.24698e-05
6.97218e-05
6.97255e-05
6.24697e-05
6.92868e-05
5.77377e-05
6.9723e-05
6.24747e-05
6.92885e-05
7.0304e-05
6.99571e-05
7.47565e-05
7.47502e-05
7.03123e-05
7.03123e-05
7.475e-05
6.99584e-05
7.0304e-05
7.47563e-05
6.97231e-05
5.77345e-05
6.2475e-05
6.92885e-05
6.24699e-05
6.92868e-05
6.97255e-05
6.97242e-05
6.92863e-05
6.24651e-05
5.77363e-05
6.97218e-05
6.9288e-05
6.24701e-05
7.03023e-05
6.99547e-05
7.47373e-05
7.47312e-05
7.03105e-05
7.03105e-05
7.4731e-05
6.99559e-05
7.03022e-05
7.47372e-05
6.97218e-05
5.77332e-05
6.9288e-05
6.24702e-05
6.92863e-05
6.24653e-05
6.97242e-05
8.86391e-05
7.19454e-05
7.19512e-05
7.1939e-05
7.19448e-05
8.8642e-05
6.14421e-05
4.62166e-05
6.16054e-05
6.91902e-05
6.91918e-05
4.62182e-05
6.14397e-05
6.13825e-05
4.62046e-05
6.16024e-05
6.91801e-05
4.62064e-05
6.91816e-05
6.13802e-05
6.14396e-05
6.91918e-05
6.16044e-05
4.62184e-05
6.91902e-05
4.62165e-05
6.14421e-05
6.13801e-05
6.91817e-05
6.1601e-05
4.62066e-05
4.62044e-05
6.91801e-05
6.13824e-05
8.8642e-05
7.1939e-05
7.19448e-05
7.19454e-05
7.19512e-05
8.8639e-05
6.91441e-05
6.91389e-05
6.91384e-05
6.91439e-05
8.8642e-05
7.1939e-05
7.19448e-05
8.8639e-05
7.19454e-05
7.19512e-05
6.14399e-05
4.62185e-05
6.16045e-05
6.91919e-05
4.62166e-05
6.91903e-05
6.14422e-05
6.13804e-05
4.62066e-05
6.16011e-05
6.91817e-05
6.91801e-05
4.62045e-05
6.13825e-05
6.14422e-05
6.91902e-05
4.62164e-05
6.16055e-05
4.62182e-05
6.14398e-05
6.91918e-05
6.13826e-05
6.91801e-05
4.62043e-05
6.16025e-05
6.13802e-05
6.91817e-05
4.62064e-05
8.8639e-05
7.19454e-05
7.19511e-05
7.1939e-05
7.19448e-05
8.8642e-05
6.91389e-05
6.91441e-05
6.97209e-05
6.24682e-05
6.92879e-05
5.77328e-05
6.24634e-05
6.92861e-05
6.97235e-05
7.0311e-05
6.99563e-05
7.47318e-05
7.47379e-05
7.03027e-05
7.03028e-05
7.4738e-05
6.9955e-05
7.47318e-05
7.0311e-05
6.97235e-05
5.77357e-05
6.24634e-05
6.92861e-05
6.2468e-05
6.92879e-05
6.97209e-05
6.9722e-05
6.24721e-05
6.92889e-05
5.77351e-05
6.24677e-05
6.92871e-05
6.97247e-05
7.03114e-05
6.996e-05
7.47475e-05
7.47528e-05
7.03025e-05
7.03025e-05
7.4753e-05
6.99587e-05
7.47475e-05
7.03114e-05
6.97247e-05
5.77382e-05
6.24676e-05
6.92871e-05
6.24719e-05
6.92889e-05
6.9722e-05
6.97235e-05
6.24635e-05
6.92861e-05
5.77359e-05
6.97209e-05
6.24682e-05
6.92879e-05
7.03028e-05
6.99551e-05
7.47382e-05
7.47321e-05
7.0311e-05
7.0311e-05
7.47319e-05
6.99563e-05
7.03028e-05
7.47381e-05
6.97209e-05
5.77331e-05
6.24685e-05
6.92879e-05
6.24637e-05
6.92861e-05
6.97235e-05
6.97247e-05
6.24677e-05
6.92871e-05
5.77384e-05
6.9722e-05
6.24722e-05
6.92889e-05
7.03025e-05
6.99587e-05
7.47531e-05
7.47477e-05
7.03114e-05
7.03114e-05
7.47476e-05
6.996e-05
7.03025e-05
7.4753e-05
6.9722e-05
5.77354e-05
6.24723e-05
6.92889e-05
6.24679e-05
6.92871e-05
6.97247e-05
6.91439e-05
6.91387e-05
6.91462e-05
6.9141e-05
8.86396e-05
7.19446e-05
7.19391e-05
8.86367e-05
7.1951e-05
7.19454e-05
6.13781e-05
4.62055e-05
6.16007e-05
6.91812e-05
6.13804e-05
4.62034e-05
6.91797e-05
6.14404e-05
4.6221e-05
6.16123e-05
6.91942e-05
6.14427e-05
4.62189e-05
6.91927e-05
6.13804e-05
6.91796e-05
4.62032e-05
6.1602e-05
6.1378e-05
4.62053e-05
6.91812e-05
6.14428e-05
6.91926e-05
4.62187e-05
6.16137e-05
6.14403e-05
4.62208e-05
6.91942e-05
8.86366e-05
7.19509e-05
7.19454e-05
8.86395e-05
7.19446e-05
7.1939e-05
6.91387e-05
6.91439e-05
6.9141e-05
6.91462e-05
7.03105e-05
7.47312e-05
6.9956e-05
7.03023e-05
7.47374e-05
6.97242e-05
5.77364e-05
6.92863e-05
6.24653e-05
6.97218e-05
6.9288e-05
6.24702e-05
6.996e-05
6.91438e-05
6.91461e-05
1.22146e-05
1.22147e-05
1.30794e-05
1.22145e-05
1.22146e-05
1.19891e-05
1.19892e-05
4.5357e-05
3.26533e-05
3.26598e-05
2.304e-05
3.26378e-05
3.26442e-05
4.53606e-05
4.536e-05
3.26536e-05
3.26602e-05
2.30488e-05
4.536e-05
3.26378e-05
3.26443e-05
4.53568e-05
3.26528e-05
3.26591e-05
2.3048e-05
3.26372e-05
3.26435e-05
4.53609e-05
4.53611e-05
2.30774e-05
3.26373e-05
3.26436e-05
3.26525e-05
3.26589e-05
4.53572e-05
4.53556e-05
3.26567e-05
3.26514e-05
2.30385e-05
3.26358e-05
3.26409e-05
4.53596e-05
4.53597e-05
2.3085e-05
3.26413e-05
3.26362e-05
3.26569e-05
3.26516e-05
4.53555e-05
4.53575e-05
3.26577e-05
3.26543e-05
2.30465e-05
3.26388e-05
3.2642e-05
4.53613e-05
4.53612e-05
2.30796e-05
3.26421e-05
3.26389e-05
3.26575e-05
3.26541e-05
4.53573e-05
4.53616e-05
2.30897e-05
3.26384e-05
3.26448e-05
4.53571e-05
3.26537e-05
3.26602e-05
1.22146e-05
1.22146e-05
1.30792e-05
1.22146e-05
1.22146e-05
1.19892e-05
1.19892e-05
1.22148e-05
1.2215e-05
1.30797e-05
1.22148e-05
1.22149e-05
1.19892e-05
1.19893e-05
1.22149e-05
1.22151e-05
1.30799e-05
1.22148e-05
1.2215e-05
1.19892e-05
1.19893e-05
1.30793e-05
1.22145e-05
1.22145e-05
1.22145e-05
1.22146e-05
1.19891e-05
1.19891e-05
1.30792e-05
1.22145e-05
1.22145e-05
1.22145e-05
1.22145e-05
1.19891e-05
1.19891e-05
1.30797e-05
1.22147e-05
1.22148e-05
1.22147e-05
1.22148e-05
1.19892e-05
1.19891e-05
1.30799e-05
1.22147e-05
1.22148e-05
1.22148e-05
1.22149e-05
1.19892e-05
1.19891e-05
2.57444e-05
4.12781e-05
2.35306e-05
3.77773e-05
4.12842e-05
2.35509e-05
2.5713e-05
2.9528e-05
3.5724e-05
5.0629e-05
4.64457e-05
3.57117e-05
4.64395e-05
2.95555e-05
2.9554e-05
4.64391e-05
5.06304e-05
3.57119e-05
3.57238e-05
4.64452e-05
2.95269e-05
2.57133e-05
3.77715e-05
4.12829e-05
2.3551e-05
4.12776e-05
2.35304e-05
2.57443e-05
2.57448e-05
2.35318e-05
4.12741e-05
3.77766e-05
2.3552e-05
4.12804e-05
2.57136e-05
2.95289e-05
3.57274e-05
5.06328e-05
4.64409e-05
3.57151e-05
4.64345e-05
2.95561e-05
2.95548e-05
4.64334e-05
5.06325e-05
3.57153e-05
3.57272e-05
4.64394e-05
2.95276e-05
2.57138e-05
3.7771e-05
2.35522e-05
4.12806e-05
2.35316e-05
4.12746e-05
2.57447e-05
4.53613e-05
2.30753e-05
3.26383e-05
3.26447e-05
3.26533e-05
3.26599e-05
4.53577e-05
4.53604e-05
2.30859e-05
3.26373e-05
3.26437e-05
4.53564e-05
3.26527e-05
3.2659e-05
4.53569e-05
2.30444e-05
3.26524e-05
3.26588e-05
4.53605e-05
3.26371e-05
3.26434e-05
2.57431e-05
4.12733e-05
2.35296e-05
3.77743e-05
4.12787e-05
2.35499e-05
2.5712e-05
2.95283e-05
3.57275e-05
5.06316e-05
4.6439e-05
4.64333e-05
3.57153e-05
2.9555e-05
2.95541e-05
4.64336e-05
5.06315e-05
3.57155e-05
4.64388e-05
3.57273e-05
2.95277e-05
2.57122e-05
3.77693e-05
4.12791e-05
2.35502e-05
4.1273e-05
2.35294e-05
2.5743e-05
2.57459e-05
4.12786e-05
2.35306e-05
3.77758e-05
4.12843e-05
2.35509e-05
2.57147e-05
2.95322e-05
3.57321e-05
5.06356e-05
4.64486e-05
4.64427e-05
3.57196e-05
2.95591e-05
2.95583e-05
4.6443e-05
5.06355e-05
3.57198e-05
4.64485e-05
2.95315e-05
3.57318e-05
2.57149e-05
3.77708e-05
4.12847e-05
2.35512e-05
4.12785e-05
2.35304e-05
2.57458e-05
2.57122e-05
4.12794e-05
2.35498e-05
3.77708e-05
2.5743e-05
4.12742e-05
2.35295e-05
2.95556e-05
3.57155e-05
5.06311e-05
4.64346e-05
3.57273e-05
4.64403e-05
2.95294e-05
2.95286e-05
4.64395e-05
3.57271e-05
5.06313e-05
3.57153e-05
2.95543e-05
4.64345e-05
2.57428e-05
3.77765e-05
4.12745e-05
2.35296e-05
4.12802e-05
2.355e-05
2.57121e-05
2.5715e-05
4.12848e-05
2.35508e-05
3.77722e-05
2.57458e-05
4.12795e-05
2.35305e-05
2.95596e-05
3.57198e-05
5.06351e-05
4.64445e-05
4.64502e-05
3.57319e-05
2.95333e-05
2.95322e-05
4.64492e-05
3.57316e-05
5.06354e-05
2.95582e-05
4.64439e-05
3.57196e-05
2.57457e-05
3.7778e-05
4.12803e-05
2.35306e-05
4.12858e-05
2.3551e-05
2.57149e-05
4.53596e-05
2.30776e-05
3.26414e-05
3.26363e-05
3.26515e-05
3.26568e-05
4.53555e-05
4.53556e-05
2.30501e-05
3.26568e-05
3.26515e-05
3.26413e-05
4.53597e-05
3.26362e-05
2.57471e-05
4.12785e-05
2.35329e-05
3.77786e-05
4.12842e-05
2.35531e-05
2.57159e-05
2.95317e-05
3.57317e-05
5.06341e-05
4.64483e-05
4.64413e-05
3.57192e-05
2.95592e-05
2.95576e-05
4.64401e-05
5.06349e-05
3.57194e-05
4.64461e-05
3.57314e-05
2.95305e-05
2.5716e-05
3.7773e-05
4.12852e-05
2.35532e-05
4.12786e-05
2.35326e-05
2.5747e-05
2.57447e-05
2.35321e-05
4.12745e-05
3.77773e-05
2.35524e-05
4.12801e-05
2.57135e-05
2.95295e-05
3.57304e-05
5.063e-05
4.64395e-05
4.64332e-05
3.57179e-05
2.95563e-05
2.95553e-05
4.64328e-05
5.06314e-05
3.5718e-05
4.64384e-05
2.95283e-05
3.57301e-05
2.57137e-05
3.77718e-05
2.35525e-05
4.12804e-05
2.35318e-05
4.12743e-05
2.57446e-05
2.57161e-05
4.12846e-05
2.35529e-05
3.77745e-05
2.5747e-05
4.12792e-05
2.35326e-05
2.95594e-05
3.57195e-05
5.06346e-05
4.64448e-05
3.57315e-05
4.64498e-05
2.9533e-05
2.95315e-05
4.64467e-05
3.57313e-05
5.06347e-05
3.57193e-05
2.95574e-05
4.64424e-05
2.57469e-05
3.77796e-05
4.12811e-05
2.35328e-05
4.12858e-05
2.3553e-05
2.57161e-05
2.57138e-05
2.35522e-05
4.12807e-05
3.77735e-05
2.57446e-05
2.35318e-05
4.12754e-05
2.95565e-05
3.57181e-05
5.06319e-05
4.64355e-05
4.64408e-05
3.57302e-05
2.95302e-05
2.95289e-05
4.64389e-05
3.573e-05
5.0631e-05
2.95549e-05
4.64343e-05
3.57179e-05
2.57444e-05
3.77784e-05
2.35319e-05
4.12758e-05
2.35522e-05
4.12815e-05
2.57136e-05
2.57448e-05
2.35308e-05
4.12753e-05
3.77763e-05
2.3551e-05
4.12811e-05
2.57137e-05
2.953e-05
3.57278e-05
5.0632e-05
4.64417e-05
3.57156e-05
4.64355e-05
2.95566e-05
2.95559e-05
4.64351e-05
5.06321e-05
3.57158e-05
3.57276e-05
4.6441e-05
2.9529e-05
2.5714e-05
3.77708e-05
2.35511e-05
4.12812e-05
2.35306e-05
4.12752e-05
2.57447e-05
2.57133e-05
4.12837e-05
2.35507e-05
3.77724e-05
2.57442e-05
4.12772e-05
2.35303e-05
2.95557e-05
3.57119e-05
5.06303e-05
4.64418e-05
2.95292e-05
3.57238e-05
4.64469e-05
2.95278e-05
4.64452e-05
3.57236e-05
5.06297e-05
2.95538e-05
3.57117e-05
4.64399e-05
2.57441e-05
3.77772e-05
4.12786e-05
2.35304e-05
2.57132e-05
4.12832e-05
2.35508e-05
2.5714e-05
2.35508e-05
4.12814e-05
3.77718e-05
2.57446e-05
2.35305e-05
4.12758e-05
2.95566e-05
3.57158e-05
5.06318e-05
4.64372e-05
4.64425e-05
3.57276e-05
2.95304e-05
2.95293e-05
4.64411e-05
3.57274e-05
5.0632e-05
2.95553e-05
4.64359e-05
3.57156e-05
2.57445e-05
3.77766e-05
2.35306e-05
4.12763e-05
2.35509e-05
4.12819e-05
2.57137e-05
4.53613e-05
2.30855e-05
3.26423e-05
3.26391e-05
3.26543e-05
3.26577e-05
4.53574e-05
4.53573e-05
2.30478e-05
3.26575e-05
3.2654e-05
3.2642e-05
4.53612e-05
3.26387e-05
2.57467e-05
2.35325e-05
4.12773e-05
3.77779e-05
2.35527e-05
4.1283e-05
2.57156e-05
2.95324e-05
3.57329e-05
5.06367e-05
4.64476e-05
3.57205e-05
4.64408e-05
2.95593e-05
2.95582e-05
4.644e-05
5.06366e-05
3.57207e-05
3.57327e-05
4.6446e-05
2.95312e-05
2.57158e-05
3.77725e-05
2.35529e-05
4.12839e-05
2.35323e-05
4.12775e-05
2.57466e-05
2.57138e-05
2.35518e-05
4.12797e-05
3.77718e-05
2.57446e-05
2.35315e-05
4.1274e-05
2.95562e-05
3.57153e-05
5.06322e-05
4.64371e-05
2.95298e-05
3.57272e-05
4.64418e-05
2.95283e-05
4.64394e-05
3.5727e-05
5.06323e-05
2.95543e-05
3.57151e-05
4.64348e-05
2.57445e-05
3.77772e-05
2.35316e-05
4.12768e-05
2.57137e-05
2.35519e-05
4.12808e-05
2.57159e-05
2.35525e-05
4.12836e-05
3.77737e-05
2.57466e-05
2.35322e-05
4.12785e-05
2.95595e-05
3.57207e-05
5.06362e-05
4.64438e-05
4.64491e-05
3.57327e-05
2.95332e-05
2.95318e-05
4.64465e-05
3.57325e-05
5.06364e-05
2.95577e-05
4.64419e-05
3.57205e-05
2.57465e-05
3.77787e-05
2.35324e-05
4.12797e-05
2.35526e-05
4.1285e-05
2.57158e-05
4.53579e-05
2.30519e-05
3.26534e-05
3.266e-05
4.53619e-05
3.26383e-05
3.26448e-05
2.95302e-05
3.57274e-05
4.64427e-05
5.06317e-05
3.57154e-05
2.9557e-05
4.6438e-05
2.57136e-05
3.77748e-05
2.35507e-05
4.12795e-05
2.35304e-05
2.57446e-05
4.12798e-05
3.57325e-05
5.06362e-05
3.57203e-05
1.30791e-05
1.82582e-05
1.82602e-05
2.30822e-05
1.30791e-05
1.82594e-05
1.82614e-05
2.30867e-05
1.30793e-05
1.82605e-05
1.82625e-05
2.30841e-05
1.30793e-05
1.82608e-05
1.82628e-05
2.30773e-05
1.30784e-05
1.82603e-05
1.82623e-05
2.30722e-05
1.3078e-05
1.82598e-05
1.82618e-05
2.3073e-05
1.3078e-05
1.82599e-05
1.82618e-05
2.30786e-05
1.30781e-05
1.82602e-05
1.82621e-05
2.30858e-05
1.30782e-05
1.82608e-05
1.82627e-05
2.30878e-05
1.30783e-05
1.82614e-05
1.82634e-05
2.30863e-05
1.30784e-05
1.82617e-05
1.82636e-05
2.30808e-05
1.30785e-05
1.82619e-05
1.82637e-05
2.30765e-05
1.30787e-05
1.82621e-05
1.82639e-05
2.30774e-05
1.30788e-05
1.82621e-05
1.8264e-05
2.30812e-05
1.30788e-05
1.82621e-05
1.8264e-05
2.30868e-05
1.30789e-05
1.82622e-05
1.82641e-05
2.30888e-05
1.3079e-05
1.82623e-05
1.82643e-05
2.30891e-05
1.30791e-05
1.82624e-05
1.82643e-05
2.30879e-05
1.30792e-05
1.82626e-05
1.82644e-05
2.3081e-05
1.30792e-05
1.82627e-05
1.82644e-05
2.30768e-05
1.30793e-05
1.82626e-05
1.82645e-05
2.30776e-05
1.30794e-05
1.82626e-05
1.82644e-05
2.30813e-05
1.30794e-05
1.82626e-05
1.82644e-05
2.30889e-05
1.30795e-05
1.82627e-05