/*--------------------------------*- C++ -*----------------------------------*\
| =========                 |                                                 |
| \\      /  F ield         | OpenFOAM: The Open Source CFD Toolbox           |
|  \\    /   O peration     | Version:  v1906                                 |
|   \\  /    A nd           | Web:      www.OpenFOAM.com                      |
|    \\/     M anipulation  |                                                 |
\*---------------------------------------------------------------------------*/
FoamFile
{
    version     2.0;
    format      ascii;
    class       volScalarField;
    location    "950";
    object      epsilon;
}
// * * * * * * * * * * * * * * * * * * * * * * * * * * * * * * * * * * * * * //

dimensions      [0 2 -3 0 0 0 0];


internalField   nonuniform List<scalar> 
42616
(
4.95569e-07
4.97403e-07
4.97396e-07
4.99621e-07
4.45583e-07
4.5388e-07
4.53864e-07
4.63955e-07
4.03773e-07
4.18667e-07
4.18659e-07
4.39598e-07
3.68388e-07
3.88668e-07
3.88669e-07
4.17683e-07
3.38037e-07
3.62153e-07
3.62168e-07
3.95865e-07
3.11659e-07
3.38253e-07
3.38284e-07
3.74269e-07
2.88473e-07
3.16564e-07
3.16596e-07
3.53261e-07
2.67909e-07
2.96906e-07
2.96932e-07
3.33639e-07
2.4955e-07
2.79217e-07
2.79237e-07
3.16019e-07
2.33091e-07
2.63493e-07
2.63507e-07
3.00581e-07
2.18304e-07
2.49738e-07
2.4975e-07
2.87874e-07
2.05013e-07
2.37951e-07
2.37962e-07
2.77941e-07
1.9308e-07
2.28132e-07
2.28144e-07
2.71301e-07
1.82392e-07
2.20288e-07
2.20304e-07
2.67469e-07
1.72859e-07
2.14417e-07
2.14439e-07
2.66927e-07
1.64406e-07
2.10535e-07
2.10566e-07
2.69725e-07
1.5697e-07
2.08654e-07
2.08689e-07
2.75872e-07
1.50499e-07
2.08779e-07
2.08819e-07
2.85675e-07
1.44947e-07
2.10968e-07
2.11013e-07
2.98572e-07
1.40279e-07
2.15229e-07
2.15279e-07
3.1469e-07
1.36465e-07
2.2158e-07
2.21638e-07
3.34412e-07
5.0641e-07
5.05556e-07
5.05554e-07
5.06407e-07
5.05553e-07
5.05557e-07
5.09644e-07
5.09644e-07
5.09644e-07
5.09645e-07
5.05552e-07
5.05553e-07
5.06407e-07
5.05556e-07
5.05549e-07
5.06402e-07
4.99638e-07
4.67498e-07
4.97403e-07
4.97409e-07
4.63842e-07
4.63857e-07
4.99635e-07
4.67482e-07
4.97406e-07
4.97405e-07
4.63867e-07
4.63844e-07
4.97394e-07
4.63839e-07
4.63834e-07
4.99625e-07
4.67432e-07
4.97402e-07
4.63824e-07
4.63851e-07
4.67444e-07
4.64007e-07
4.41637e-07
4.53888e-07
4.53904e-07
4.269e-07
4.26913e-07
4.63995e-07
4.41618e-07
4.53915e-07
4.5389e-07
4.26921e-07
4.26905e-07
4.53886e-07
4.26888e-07
4.26905e-07
4.63942e-07
4.41601e-07
4.539e-07
4.26877e-07
4.26914e-07
4.4161e-07
4.39632e-07
4.19358e-07
4.18681e-07
4.18693e-07
3.95811e-07
3.95816e-07
4.39614e-07
4.19303e-07
4.18699e-07
4.18687e-07
3.95817e-07
3.9581e-07
4.18686e-07
3.95794e-07
3.95811e-07
4.39594e-07
4.19288e-07
4.18692e-07
3.95793e-07
3.95813e-07
4.19304e-07
4.17684e-07
3.97584e-07
3.8869e-07
3.88691e-07
3.68548e-07
3.68543e-07
4.17647e-07
3.97494e-07
3.88692e-07
3.88686e-07
3.68543e-07
3.68536e-07
3.88688e-07
3.68515e-07
3.68545e-07
4.17675e-07
3.97483e-07
3.88688e-07
3.68525e-07
3.68538e-07
3.97554e-07
3.95904e-07
3.75908e-07
3.62192e-07
3.62187e-07
3.44064e-07
3.44055e-07
3.95854e-07
3.75756e-07
3.62186e-07
3.62181e-07
3.44049e-07
3.44051e-07
3.62189e-07
3.44011e-07
3.4406e-07
3.95931e-07
3.75785e-07
3.6218e-07
3.4404e-07
3.44046e-07
3.75846e-07
3.74253e-07
3.54863e-07
3.38309e-07
3.383e-07
3.21852e-07
3.21841e-07
3.74284e-07
3.5468e-07
3.38293e-07
3.38297e-07
3.21829e-07
3.21839e-07
3.38304e-07
3.21792e-07
3.21842e-07
3.74349e-07
3.54705e-07
3.3829e-07
3.21827e-07
3.21828e-07
3.54827e-07
3.5324e-07
3.35074e-07
3.16624e-07
3.16612e-07
3.01691e-07
3.01679e-07
3.53352e-07
3.34887e-07
3.16599e-07
3.16611e-07
3.01665e-07
3.01681e-07
3.16612e-07
3.01635e-07
3.01677e-07
3.53386e-07
3.35073e-07
3.16598e-07
3.01663e-07
3.0166e-07
3.35012e-07
3.33596e-07
3.16954e-07
2.96958e-07
2.96948e-07
2.835e-07
2.83493e-07
3.33721e-07
3.171e-07
2.96933e-07
2.96951e-07
2.83476e-07
2.83499e-07
2.96945e-07
2.83456e-07
2.8349e-07
3.33551e-07
3.16975e-07
2.96929e-07
2.83477e-07
2.83471e-07
3.16972e-07
3.16089e-07
3.0146e-07
2.79259e-07
2.79252e-07
2.67272e-07
2.6727e-07
3.15767e-07
3.01474e-07
2.79235e-07
2.79259e-07
2.67249e-07
2.67277e-07
2.7925e-07
2.67239e-07
2.67269e-07
3.16112e-07
3.01293e-07
2.79229e-07
2.67255e-07
2.67245e-07
3.01302e-07
3.00462e-07
2.8828e-07
2.63522e-07
2.63521e-07
2.53017e-07
2.53022e-07
3.00362e-07
2.88247e-07
2.63499e-07
2.63528e-07
2.52994e-07
2.53027e-07
2.63521e-07
2.52993e-07
2.53021e-07
3.00647e-07
2.88461e-07
2.63496e-07
2.53005e-07
2.52992e-07
2.88251e-07
2.87878e-07
2.78002e-07
2.49761e-07
2.49766e-07
2.40733e-07
2.40743e-07
2.87895e-07
2.77997e-07
2.49738e-07
2.4977e-07
2.4071e-07
2.40746e-07
2.49766e-07
2.40714e-07
2.40742e-07
2.87638e-07
2.78176e-07
2.49736e-07
2.40724e-07
2.40708e-07
2.78009e-07
2.77907e-07
2.71123e-07
2.37968e-07
2.37979e-07
2.30417e-07
2.30431e-07
2.77907e-07
2.71077e-07
2.37947e-07
2.37983e-07
2.30397e-07
2.30436e-07
2.37979e-07
2.304e-07
2.30429e-07
2.77853e-07
2.71254e-07
2.37944e-07
2.30412e-07
2.30393e-07
2.71057e-07
2.71167e-07
2.67201e-07
2.28148e-07
2.28162e-07
2.22079e-07
2.22093e-07
2.7126e-07
2.67196e-07
2.28129e-07
2.28169e-07
2.22061e-07
2.22102e-07
2.28161e-07
2.22061e-07
2.22091e-07
2.71133e-07
2.67287e-07
2.28124e-07
2.22075e-07
2.22055e-07
2.67184e-07
2.67473e-07
2.66287e-07
2.20305e-07
2.20321e-07
2.15714e-07
2.15731e-07
2.67477e-07
2.66286e-07
2.2029e-07
2.20331e-07
2.15701e-07
2.15744e-07
2.20319e-07
2.15692e-07
2.15727e-07
2.67537e-07
2.66329e-07
2.20283e-07
2.15712e-07
2.15691e-07
2.66283e-07
2.66924e-07
2.68421e-07
2.14442e-07
2.14458e-07
2.11339e-07
2.11356e-07
2.66918e-07
2.68412e-07
2.14429e-07
2.14472e-07
2.11328e-07
2.11373e-07
2.14454e-07
2.11307e-07
2.11348e-07
2.66959e-07
2.68457e-07
2.14418e-07
2.11335e-07
2.11316e-07
2.68406e-07
2.69715e-07
2.7387e-07
2.10573e-07
2.10588e-07
2.08958e-07
2.08974e-07
2.69698e-07
2.73857e-07
2.10561e-07
2.10606e-07
2.08946e-07
2.08994e-07
2.1058e-07
2.08913e-07
2.08961e-07
2.69741e-07
2.73908e-07
2.10546e-07
2.08948e-07
2.08932e-07
2.73816e-07
2.75844e-07
2.82508e-07
2.08702e-07
2.08715e-07
2.08622e-07
2.08643e-07
2.75809e-07
2.82853e-07
2.08689e-07
2.08736e-07
2.08617e-07
2.08669e-07
2.08704e-07
2.08571e-07
2.08623e-07
2.7586e-07
2.82905e-07
2.08673e-07
2.08617e-07
2.086e-07
2.82331e-07
2.85422e-07
2.94717e-07
2.0884e-07
2.08845e-07
2.1029e-07
2.10293e-07
2.85196e-07
2.94989e-07
2.08825e-07
2.08875e-07
2.10266e-07
2.10327e-07
2.08839e-07
2.10224e-07
2.10285e-07
2.85251e-07
2.9493e-07
2.08805e-07
2.10265e-07
2.10257e-07
2.94469e-07
2.98228e-07
3.10125e-07
2.11031e-07
2.11045e-07
2.14044e-07
2.14047e-07
2.98059e-07
3.10568e-07
2.11023e-07
2.11077e-07
2.14012e-07
2.14082e-07
2.11031e-07
2.13966e-07
2.14036e-07
2.98114e-07
3.1059e-07
2.11002e-07
2.14009e-07
2.14008e-07
3.10112e-07
3.14757e-07
3.28804e-07
2.15298e-07
2.15319e-07
2.19887e-07
2.19898e-07
3.14276e-07
3.29537e-07
2.15294e-07
2.15353e-07
2.19848e-07
2.1993e-07
2.153e-07
2.198e-07
2.19878e-07
3.14467e-07
3.29667e-07
2.1527e-07
2.19849e-07
2.19849e-07
3.29124e-07
3.34568e-07
2.21649e-07
2.21687e-07
3.3407e-07
2.21656e-07
2.21722e-07
2.2166e-07
3.33865e-07
2.2163e-07
5.35663e-07
5.35602e-07
5.35656e-07
5.35656e-07
5.34552e-07
5.35515e-07
5.33414e-07
5.35656e-07
5.34548e-07
5.35515e-07
5.35656e-07
5.329e-07
5.35245e-07
5.35666e-07
5.36262e-07
1.10629e-06
3.84982e-06
9.38906e-07
4.59092e-06
1.2615e-05
1.66582e-05
1.10683e-06
3.85179e-06
9.4009e-07
4.59032e-06
4.95569e-07
4.95569e-07
4.95569e-07
4.57236e-07
4.57236e-07
4.57235e-07
4.57235e-07
5.43289e-07
1.22093e-06
4.95575e-07
4.85581e-07
5.25928e-07
1.21516e-06
4.82308e-07
1.26139e-05
1.66628e-05
5.43481e-07
4.95577e-07
1.22426e-06
4.8557e-07
5.25989e-07
4.82311e-07
1.21382e-06
2.52888e-06
2.52867e-06
4.84294e-07
2.38151e-06
2.38338e-06
1.42794e-06
5.58175e-06
1.33027e-06
6.13161e-06
2.13202e-05
2.31409e-05
1.42809e-06
5.58116e-06
1.33039e-06
6.13081e-06
4.45582e-07
4.45581e-07
4.45582e-07
4.13562e-07
4.1356e-07
4.13559e-07
4.13562e-07
5.87231e-07
1.19975e-06
4.46461e-07
4.44445e-07
5.74187e-07
1.20944e-06
4.35725e-07
2.13244e-05
2.31462e-05
5.87332e-07
4.46465e-07
1.19962e-06
4.44429e-07
5.7429e-07
4.35729e-07
1.20825e-06
2.30446e-06
2.30601e-06
4.53716e-07
2.34399e-06
2.34529e-06
1.65942e-06
6.91424e-06
1.59207e-06
7.32141e-06
2.46463e-05
2.49392e-05
1.65832e-06
6.91348e-06
1.59169e-06
7.32084e-06
4.03772e-07
4.03771e-07
4.03773e-07
3.76714e-07
3.76712e-07
3.76712e-07
3.76714e-07
6.15192e-07
1.2468e-06
4.06599e-07
4.10768e-07
6.0824e-07
1.271e-06
3.97785e-07
2.46493e-05
2.49421e-05
6.15262e-07
4.066e-07
1.24781e-06
4.10762e-07
6.08326e-07
3.97788e-07
1.26985e-06
2.46077e-06
2.46112e-06
4.30286e-07
2.5205e-06
2.52096e-06
1.80699e-06
7.84521e-06
1.76805e-06
8.102e-06
2.47326e-05
2.44307e-05
1.80826e-06
7.84467e-06
1.7667e-06
8.10183e-06
3.68386e-07
3.68386e-07
3.68388e-07
3.45216e-07
3.45213e-07
3.45214e-07
3.45216e-07
6.25719e-07
1.31696e-06
3.73538e-07
3.8176e-07
6.24484e-07
1.33897e-06
3.66087e-07
2.47343e-05
2.44323e-05
6.25717e-07
3.7354e-07
1.31733e-06
3.81764e-07
6.24342e-07
3.6609e-07
1.3393e-06
2.62444e-06
2.62446e-06
4.08393e-07
2.6711e-06
2.67155e-06
1.88793e-06
8.3942e-06
1.86956e-06
8.53094e-06
2.36822e-05
2.32662e-05
1.88937e-06
8.39413e-06
1.86813e-06
8.53138e-06
3.38034e-07
3.38035e-07
3.38037e-07
3.17928e-07
3.17923e-07
3.17927e-07
3.17928e-07
6.2136e-07
1.37554e-06
3.45285e-07
3.55957e-07
6.24619e-07
1.3918e-06
3.38805e-07
2.36828e-05
2.32679e-05
6.21374e-07
3.45288e-07
1.37592e-06
3.55977e-07
6.24627e-07
3.3881e-07
1.39233e-06
2.7567e-06
2.7571e-06
3.86687e-07
2.80248e-06
2.80284e-06
1.92558e-06
8.6614e-06
1.91838e-06
8.7177e-06
2.24946e-05
2.21234e-05
1.92611e-06
8.66217e-06
1.91792e-06
8.71859e-06
3.11654e-07
3.11658e-07
3.1166e-07
2.94005e-07
2.93999e-07
2.94004e-07
2.94005e-07
6.07822e-07
1.41918e-06
3.20509e-07
3.32635e-07
6.14009e-07
1.43059e-06
3.14754e-07
2.24946e-05
2.21248e-05
6.07942e-07
3.20517e-07
1.41947e-06
3.32669e-07
6.14145e-07
3.14766e-07
1.43148e-06
2.89232e-06
2.89297e-06
3.65216e-07
2.94352e-06
2.94466e-06
1.94383e-06
8.75773e-06
1.94005e-06
8.76837e-06
2.14735e-05
2.11826e-05
1.94388e-06
8.75856e-06
1.93974e-06
8.76928e-06
2.88468e-07
2.88473e-07
2.88473e-07
2.72829e-07
2.72824e-07
2.72829e-07
2.72829e-07
5.90665e-07
1.45453e-06
2.98396e-07
3.11464e-07
5.97801e-07
1.46658e-06
2.93221e-07
2.14739e-05
2.11841e-05
5.90477e-07
2.98406e-07
1.45565e-06
3.11496e-07
5.97981e-07
2.93233e-07
1.46715e-06
3.04911e-06
3.04918e-06
3.44735e-07
3.10753e-06
3.10903e-06
1.96176e-06
8.76532e-06
1.95634e-06
8.75961e-06
2.06744e-05
2.04557e-05
1.96234e-06
8.7662e-06
1.95605e-06
8.76045e-06
2.67904e-07
2.67909e-07
2.67908e-07
2.53951e-07
2.53947e-07
2.53952e-07
2.5395e-07
5.73974e-07
1.49295e-06
2.78459e-07
2.923e-07
5.80709e-07
1.5085e-06
2.73778e-07
2.06759e-05
2.04569e-05
5.7423e-07
2.78467e-07
1.49455e-06
2.92325e-07
5.81084e-07
2.73787e-07
1.50867e-06
3.22807e-06
3.22844e-06
3.25806e-07
3.2936e-06
3.29406e-06
1.99253e-06
8.74553e-06
1.9822e-06
8.73886e-06
2.00744e-05
1.99142e-05
1.99386e-06
8.74648e-06
1.98092e-06
8.73977e-06
2.49546e-07
2.49551e-07
2.4955e-07
2.37041e-07
2.37038e-07
2.37043e-07
2.37041e-07
5.61394e-07
1.54146e-06
2.60409e-07
2.75102e-07
5.6664e-07
1.56119e-06
2.56168e-07
2.00767e-05
1.99147e-05
5.61739e-07
2.60413e-07
1.54168e-06
2.7512e-07
5.66263e-07
2.56174e-07
1.56124e-06
3.42399e-06
3.4255e-06
3.08864e-07
3.49461e-06
3.49521e-06
2.04297e-06
8.72958e-06
2.02587e-06
8.72785e-06
1.96352e-05
1.95207e-05
2.04504e-06
8.73073e-06
2.02424e-06
8.72915e-06
2.33089e-07
2.33093e-07
2.33091e-07
2.21853e-07
2.21853e-07
2.21857e-07
2.21855e-07
5.55447e-07
1.60276e-06
2.44069e-07
2.5987e-07
5.5753e-07
1.62747e-06
2.40237e-07
1.96374e-05
1.95205e-05
5.55535e-07
2.4407e-07
1.60395e-06
2.59883e-07
5.57433e-07
2.4024e-07
1.62524e-06
3.63107e-06
3.63221e-06
2.94481e-07
3.70289e-06
3.70389e-06
2.11741e-06
8.72758e-06
2.09191e-06
8.73091e-06
1.93205e-05
1.92414e-05
2.11925e-06
8.72919e-06
2.09031e-06
8.73248e-06
2.18303e-07
2.18308e-07
2.18305e-07
2.08202e-07
2.08204e-07
2.08207e-07
2.08205e-07
5.56738e-07
1.67809e-06
2.29326e-07
2.46608e-07
5.55903e-07
1.70767e-06
2.25881e-07
1.93236e-05
1.92403e-05
5.56787e-07
2.29326e-07
1.67992e-06
2.46618e-07
5.55894e-07
2.25883e-07
1.70567e-06
3.84024e-06
3.84212e-06
2.82828e-07
3.91061e-06
3.91171e-06
2.21925e-06
8.73729e-06
2.18183e-06
8.74555e-06
1.90995e-05
1.90459e-05
2.21968e-06
8.74004e-06
2.1817e-06
8.74698e-06
2.05014e-07
2.05018e-07
2.05016e-07
1.95941e-07
1.95943e-07
1.95947e-07
1.95944e-07
5.6656e-07
1.76695e-06
2.16106e-07
2.35311e-07
5.62265e-07
1.80069e-06
2.13032e-07
1.91029e-05
1.90445e-05
5.66525e-07
2.16104e-07
1.76879e-06
2.35321e-07
5.62189e-07
2.13033e-07
1.79875e-06
4.04469e-06
4.04601e-06
2.74164e-07
4.11091e-06
4.11237e-06
2.34402e-06
8.75622e-06
2.2982e-06
8.76614e-06
1.89454e-05
1.89097e-05
2.34453e-06
8.75921e-06
2.29823e-06
8.76783e-06
1.93082e-07
1.93086e-07
1.93083e-07
1.8495e-07
1.84953e-07
1.84957e-07
1.84953e-07
5.85732e-07
1.86721e-06
2.04347e-07
2.25986e-07
5.77966e-07
1.90418e-06
2.01627e-07
1.89491e-05
1.89083e-05
5.85756e-07
2.04346e-07
1.869e-06
2.25997e-07
5.77944e-07
2.0163e-07
1.90216e-06
4.23727e-06
4.23884e-06
2.68761e-07
4.29561e-06
4.2972e-06
2.49046e-06
8.77814e-06
2.43842e-06
8.78807e-06
1.88373e-05
1.88138e-05
2.49036e-06
8.78115e-06
2.43891e-06
8.78978e-06
1.82395e-07
1.82399e-07
1.82395e-07
1.75136e-07
1.75138e-07
1.75143e-07
1.75138e-07
6.14111e-07
1.97595e-06
1.93992e-07
2.18632e-07
6.04038e-07
2.01513e-06
1.91617e-07
1.88412e-05
1.88124e-05
6.14549e-07
1.93993e-07
1.9779e-06
2.18647e-07
6.03711e-07
1.91621e-07
2.01292e-06
4.41156e-06
4.41328e-06
2.66374e-07
4.46364e-06
4.46517e-06
2.6544e-06
8.79957e-06
2.59793e-06
8.80878e-06
1.87592e-05
1.87429e-05
2.65394e-06
8.80238e-06
2.59821e-06
8.81036e-06
1.72861e-07
1.72867e-07
1.72861e-07
1.66419e-07
1.6642e-07
1.66427e-07
1.66421e-07
6.53327e-07
2.09168e-06
1.84999e-07
2.13252e-07
6.40034e-07
2.12802e-06
1.82956e-07
1.87632e-05
1.87421e-05
6.54316e-07
1.85002e-07
2.0905e-06
2.13276e-07
6.39669e-07
1.82963e-07
2.13019e-06
4.56568e-06
4.5663e-06
2.66939e-07
4.61056e-06
4.61399e-06
2.82853e-06
8.81915e-06
2.76942e-06
8.8275e-06
1.87006e-05
1.86867e-05
2.82838e-06
8.82176e-06
2.76973e-06
8.82897e-06
1.64406e-07
1.64414e-07
1.64408e-07
1.58734e-07
1.58733e-07
1.58742e-07
1.58736e-07
7.02963e-07
2.20768e-06
1.77328e-07
2.09862e-07
6.86373e-07
2.24366e-06
1.75609e-07
1.87032e-05
1.86872e-05
7.03602e-07
1.77334e-07
2.20606e-06
2.09893e-07
6.86042e-07
1.75621e-07
2.24588e-06
4.69854e-06
4.69898e-06
2.70711e-07
4.73626e-06
4.73958e-06
3.00308e-06
8.83687e-06
2.94639e-06
8.84452e-06
1.86523e-05
1.86399e-05
3.00338e-06
8.83937e-06
2.94622e-06
8.84596e-06
1.56968e-07
1.56978e-07
1.56971e-07
1.52028e-07
1.52025e-07
1.52035e-07
1.52029e-07
7.62772e-07
2.32095e-06
1.70951e-07
2.08473e-07
7.42558e-07
2.35891e-06
1.69553e-07
1.86539e-05
1.86409e-05
7.62974e-07
1.7096e-07
2.32065e-06
2.08511e-07
7.42315e-07
1.69566e-07
2.35924e-06
4.81079e-06
4.81261e-06
2.77606e-07
4.84179e-06
4.84376e-06
3.17274e-06
8.85321e-06
3.11868e-06
8.86034e-06
1.86098e-05
1.85982e-05
3.17396e-06
8.85564e-06
3.11801e-06
8.86182e-06
1.50495e-07
1.50507e-07
1.50499e-07
1.46249e-07
1.46245e-07
1.46257e-07
1.46251e-07
8.30935e-07
2.43113e-06
1.65855e-07
2.0913e-07
8.08175e-07
2.46741e-06
1.64772e-07
1.8611e-05
1.85996e-05
8.31638e-07
1.65864e-07
2.43121e-06
2.09173e-07
8.07829e-07
1.64787e-07
2.46761e-06
4.9029e-06
4.90486e-06
2.87946e-07
4.93088e-06
4.9328e-06
3.32917e-06
8.86848e-06
3.27998e-06
8.87518e-06
1.85707e-05
1.85606e-05
3.32954e-06
8.87092e-06
3.28015e-06
8.87678e-06
1.44942e-07
1.44955e-07
1.44946e-07
1.41364e-07
1.41359e-07
1.41372e-07
1.41366e-07
9.0644e-07
2.53503e-06
1.6203e-07
2.11837e-07
8.81462e-07
2.56904e-06
1.61263e-07
1.85721e-05
1.85617e-05
9.06732e-07
1.62041e-07
2.53667e-06
2.11881e-07
8.8158e-07
1.61277e-07
2.56775e-06
4.97943e-06
4.9814e-06
3.01821e-07
5.00251e-06
5.00448e-06
3.46781e-06
8.88297e-06
3.42398e-06
8.88933e-06
1.85348e-05
1.85251e-05
3.46833e-06
8.88535e-06
3.42421e-06
8.89086e-06
1.40273e-07
1.40288e-07
1.40278e-07
1.3734e-07
1.37335e-07
1.37348e-07
1.37342e-07
9.87508e-07
2.63122e-06
1.59482e-07
2.16621e-07
9.61061e-07
2.66242e-06
1.59026e-07
1.85359e-05
1.85264e-05
9.87852e-07
1.59491e-07
2.6329e-06
2.16669e-07
9.61129e-07
1.59039e-07
2.66115e-06
5.04219e-06
5.04418e-06
3.19132e-07
5.06104e-06
5.06304e-06
3.58506e-06
8.8965e-06
3.54824e-06
8.90253e-06
1.85008e-05
1.84918e-05
8.89877e-06
3.54851e-06
8.90395e-06
1.36458e-07
1.36475e-07
1.36464e-07
1.07186e-06
2.71903e-06
1.58214e-07
2.23507e-07
1.04472e-06
2.74497e-06
1.5807e-07
1.85022e-05
1.0719e-06
1.58224e-07
2.72057e-06
1.0447e-06
1.58079e-07
5.09349e-06
5.09547e-06
3.39638e-07
5.10899e-06
5.111e-06
5.35247e-07
5.36333e-07
5.35573e-07
1.09228e-05
5.80703e-07
1.09227e-05
5.80114e-07
5.28223e-07
2.45563e-06
2.45392e-06
5.44353e-07
5.41113e-07
5.34553e-07
5.35514e-07
5.33206e-07
5.35656e-07
5.34546e-07
5.35514e-07
5.33139e-07
5.35656e-07
5.30718e-07
3.45363e-06
5.68978e-07
8.24292e-07
5.30712e-07
3.45405e-06
5.69566e-07
8.2564e-07
5.29649e-07
5.28386e-07
1.18814e-06
5.09595e-07
5.32988e-07
5.2835e-07
5.19582e-07
5.29665e-07
5.28387e-07
1.19029e-06
5.09597e-07
5.32757e-07
5.2835e-07
5.19695e-07
5.35248e-07
5.36099e-07
5.35595e-07
1.09249e-05
5.80647e-07
5.28222e-07
2.45257e-06
2.44342e-06
5.40173e-07
5.40192e-07
1.09225e-05
5.8134e-07
5.34552e-07
5.35514e-07
5.3226e-07
5.35656e-07
5.3455e-07
5.35514e-07
5.35656e-07
5.33162e-07
5.30706e-07
3.4451e-06
5.81877e-07
8.25563e-07
5.29657e-07
5.28387e-07
1.17303e-06
5.09596e-07
5.34538e-07
5.2835e-07
5.19742e-07
5.30675e-07
3.45367e-06
5.69435e-07
8.25766e-07
5.29655e-07
5.28386e-07
5.09596e-07
1.18965e-06
5.2835e-07
5.32881e-07
5.19675e-07
5.35663e-07
5.35602e-07
5.35656e-07
5.35656e-07
5.35663e-07
5.35602e-07
5.35656e-07
5.35656e-07
5.35663e-07
5.35603e-07
5.35656e-07
5.35656e-07
5.28434e-07
5.28374e-07
5.09725e-07
5.09725e-07
5.28408e-07
5.28408e-07
5.09781e-07
5.28434e-07
5.28374e-07
5.09725e-07
5.09725e-07
5.28408e-07
5.28408e-07
5.09781e-07
5.28434e-07
5.28374e-07
5.09725e-07
5.09725e-07
5.28408e-07
5.28408e-07
5.09782e-07
5.28434e-07
5.28373e-07
5.09725e-07
5.09725e-07
5.28408e-07
5.28408e-07
5.09782e-07
5.3455e-07
5.35517e-07
5.35656e-07
5.3335e-07
5.29652e-07
5.28384e-07
1.18712e-06
5.09595e-07
5.32698e-07
5.2835e-07
5.19547e-07
5.30721e-07
3.45397e-06
5.68964e-07
8.2417e-07
5.29655e-07
5.28381e-07
5.09596e-07
1.18773e-06
5.2835e-07
5.32801e-07
5.19556e-07
5.3072e-07
3.45546e-06
5.68961e-07
8.24223e-07
5.3525e-07
5.36277e-07
5.36151e-07
1.09224e-05
5.81653e-07
5.28218e-07
2.45078e-06
2.44833e-06
5.42364e-07
5.42161e-07
1.09195e-05
5.80424e-07
5.34549e-07
5.35517e-07
5.35656e-07
5.33385e-07
5.2966e-07
5.28384e-07
5.09595e-07
1.16973e-06
5.2835e-07
5.33108e-07
5.19579e-07
5.29658e-07
5.28381e-07
5.09595e-07
1.18774e-06
5.2835e-07
5.32818e-07
5.19572e-07
5.30727e-07
3.44592e-06
5.81998e-07
8.25062e-07
5.30679e-07
3.45376e-06
5.68807e-07
8.25147e-07
5.28226e-07
2.44666e-06
2.45302e-06
5.42366e-07
5.40746e-07
1.09175e-05
5.80616e-07
1.09219e-05
5.80729e-07
1.26155e-05
1.66588e-05
1.26124e-05
1.66637e-05
2.52845e-06
2.52717e-06
4.84341e-07
2.38358e-06
2.38414e-06
2.05819e-05
1.77383e-05
2.05865e-05
1.77434e-05
4.79507e-07
2.30232e-06
2.30283e-06
2.34956e-06
2.34982e-06
1.10596e-06
3.84889e-06
9.40566e-07
4.58895e-06
5.4344e-07
1.22586e-06
4.95575e-07
4.8558e-07
5.25924e-07
1.21493e-06
4.8231e-07
5.43359e-07
1.22709e-06
4.95576e-07
4.85593e-07
5.26145e-07
1.21598e-06
4.8231e-07
1.1626e-06
5.39782e-06
4.79343e-06
1.28087e-06
1.16254e-06
5.39707e-06
4.79307e-06
1.2805e-06
5.515e-07
4.7439e-07
1.19879e-06
4.57788e-07
1.21147e-06
4.69723e-07
5.6702e-07
5.51437e-07
4.74405e-07
1.19942e-06
4.57782e-07
1.21219e-06
4.69721e-07
5.66847e-07
2.52804e-06
2.52619e-06
4.84327e-07
2.38465e-06
2.38477e-06
1.26161e-05
1.6664e-05
2.05794e-05
1.77303e-05
4.7949e-07
2.30263e-06
2.30314e-06
2.35003e-06
2.34984e-06
2.05864e-05
1.77429e-05
5.43603e-07
1.23059e-06
4.95577e-07
4.85593e-07
5.26123e-07
1.21587e-06
4.82313e-07
1.1067e-06
3.84906e-06
9.39851e-07
4.58975e-06
5.43575e-07
4.95577e-07
1.22713e-06
4.85582e-07
5.26058e-07
4.82312e-07
1.21572e-06
1.16303e-06
5.39734e-06
4.79377e-06
1.28104e-06
5.51646e-07
4.74411e-07
1.19945e-06
4.57793e-07
1.21179e-06
4.69727e-07
5.67127e-07
1.16287e-06
5.39828e-06
4.79381e-06
1.28087e-06
5.51611e-07
4.74392e-07
4.5779e-07
1.19932e-06
4.69726e-07
1.21164e-06
5.67073e-07
1.10566e-06
3.85078e-06
9.3898e-07
4.59097e-06
5.43291e-07
4.95574e-07
1.22841e-06
4.85573e-07
5.25914e-07
4.82307e-07
1.21787e-06
1.1057e-06
3.85107e-06
9.38726e-07
4.58997e-06
5.51313e-07
4.74386e-07
1.19832e-06
4.57779e-07
1.209e-06
4.69718e-07
5.66779e-07
1.16199e-06
5.39846e-06
4.79433e-06
1.28033e-06
5.51329e-07
4.7438e-07
4.57781e-07
1.19977e-06
4.69718e-07
1.21297e-06
5.66806e-07
1.16186e-06
5.39813e-06
4.79403e-06
1.28027e-06
2.53447e-06
2.53153e-06
4.84291e-07
2.38751e-06
2.38577e-06
1.26077e-05
1.66603e-05
2.05851e-05
1.77333e-05
4.79437e-07
2.30399e-06
2.3029e-06
2.35004e-06
2.34876e-06
2.05862e-05
1.77413e-05
5.4351e-07
4.95575e-07
1.22816e-06
4.8559e-07
5.25954e-07
4.8231e-07
1.21811e-06
1.10647e-06
3.85188e-06
9.39375e-07
4.59021e-06
1.10669e-06
3.8493e-06
9.39342e-07
4.59032e-06
5.51493e-07
4.74374e-07
4.57784e-07
1.19797e-06
4.69722e-07
1.21052e-06
5.66913e-07
5.51543e-07
4.74398e-07
4.57788e-07
1.19986e-06
4.69723e-07
1.21347e-06
5.67045e-07
1.16227e-06
5.39883e-06
4.79468e-06
1.28066e-06
1.16249e-06
5.39882e-06
4.7944e-06
1.28095e-06
1.2606e-05
1.66499e-05
1.26151e-05
1.66605e-05
4.79443e-07
2.30065e-06
2.30238e-06
2.34795e-06
2.34958e-06
2.05786e-05
1.77312e-05
2.05846e-05
1.77412e-05
2.13214e-05
2.31419e-05
2.13261e-05
2.3146e-05
2.30601e-06
2.30645e-06
4.53748e-07
2.34458e-06
2.34536e-06
2.44864e-05
2.35541e-05
2.4489e-05
2.35578e-05
4.51167e-07
2.43126e-06
2.43102e-06
2.37009e-06
2.3698e-06
1.42769e-06
5.58099e-06
1.32991e-06
6.13106e-06
5.8745e-07
1.20029e-06
4.46472e-07
4.44454e-07
5.74401e-07
1.20977e-06
4.35737e-07
5.87294e-07
1.20099e-06
4.46464e-07
4.44469e-07
5.74235e-07
1.20888e-06
4.35728e-07
1.47263e-06
6.77704e-06
6.29412e-06
1.55424e-06
1.47241e-06
6.77657e-06
6.29348e-06
1.55375e-06
5.93503e-07
4.35475e-07
1.23673e-06
4.15842e-07
1.2166e-06
4.25541e-07
6.03716e-07
5.934e-07
4.3549e-07
1.23559e-06
4.15835e-07
1.21768e-06
4.25532e-07
6.03579e-07
2.30627e-06
2.30682e-06
4.53735e-07
2.344e-06
2.34448e-06
2.13245e-05
2.3144e-05
2.44855e-05
2.35537e-05
4.51157e-07
2.43016e-06
2.43103e-06
2.37013e-06
2.37078e-06
2.44871e-05
2.35557e-05
5.87535e-07
1.201e-06
4.46478e-07
4.4448e-07
5.74511e-07
1.20891e-06
4.35745e-07
1.428e-06
5.58209e-06
1.33028e-06
6.13239e-06
5.87474e-07
4.46474e-07
1.20072e-06
4.44456e-07
5.7445e-07
4.35738e-07
1.21017e-06
1.47222e-06
6.77614e-06
6.29333e-06
1.55353e-06
5.93583e-07
4.35501e-07
1.23556e-06
4.15854e-07
1.21756e-06
4.2555e-07
6.03695e-07
1.47219e-06
6.77779e-06
6.29467e-06
1.55373e-06
5.93516e-07
4.3548e-07
4.15844e-07
1.23691e-06
4.25542e-07
1.21703e-06
6.03657e-07
1.4276e-06
5.582e-06
1.32971e-06
6.13213e-06
5.87281e-07
4.46464e-07
1.20142e-06
4.44457e-07
5.74201e-07
4.35728e-07
1.20937e-06
1.42755e-06
5.58225e-06
1.32976e-06
6.13251e-06
5.93406e-07
4.35465e-07
1.23651e-06
4.15835e-07
1.21649e-06
4.2553e-07
6.03461e-07
1.47203e-06
6.77763e-06
6.29431e-06
1.5534e-06
5.93369e-07
4.35481e-07
4.15835e-07
1.23603e-06
4.25532e-07
1.21795e-06
6.03581e-07
1.47214e-06
6.77823e-06
6.29505e-06
1.55356e-06
2.30771e-06
2.3063e-06
4.53698e-07
2.34582e-06
2.34528e-06
2.13261e-05
2.31463e-05
2.44898e-05
2.35582e-05
4.51119e-07
2.43145e-06
2.43095e-06
2.37171e-06
2.36978e-06
2.4489e-05
2.35588e-05
5.87481e-07
4.46472e-07
1.2015e-06
4.44469e-07
5.74417e-07
4.35738e-07
1.2094e-06
1.42801e-06
5.58257e-06
1.33006e-06
6.13264e-06
1.42804e-06
5.58254e-06
1.33027e-06
6.13282e-06
5.93496e-07
4.3545e-07
4.15837e-07
1.23533e-06
4.25532e-07
1.21711e-06
6.03563e-07
5.93538e-07
4.35489e-07
4.15847e-07
1.23602e-06
4.25543e-07
1.21797e-06
6.03709e-07
1.47224e-06
6.77781e-06
6.29502e-06
1.55393e-06
1.47242e-06
6.77841e-06
6.29526e-06
1.55409e-06
2.13199e-05
2.31431e-05
2.13252e-05
2.31455e-05
4.51133e-07
2.43056e-06
2.43136e-06
2.36868e-06
2.36994e-06
2.44879e-05
2.35558e-05
2.44894e-05
2.35583e-05
2.46471e-05
2.494e-05
2.46491e-05
2.49414e-05
2.46165e-06
2.46117e-06
4.30322e-07
2.52127e-06
2.52107e-06
2.48335e-05
2.49395e-05
2.48329e-05
2.49406e-05
4.28613e-07
2.60113e-06
2.60093e-06
2.54893e-06
2.54865e-06
1.65877e-06
6.91361e-06
1.5921e-06
7.32105e-06
6.15462e-07
1.24708e-06
4.06604e-07
4.10782e-07
6.08218e-07
1.27094e-06
3.97788e-07
6.15345e-07
1.24791e-06
4.06598e-07
4.1079e-07
6.08203e-07
1.26975e-06
3.97784e-07
1.69009e-06
7.76134e-06
7.43168e-06
1.74247e-06
1.69033e-06
7.76117e-06
7.43106e-06
1.74256e-06
6.18436e-07
4.03167e-07
1.30466e-06
3.81285e-07
1.28264e-06
3.89359e-07
6.22713e-07
6.18432e-07
4.03174e-07
1.3049e-06
3.81284e-07
1.28327e-06
3.89356e-07
6.22681e-07
2.4608e-06
2.46146e-06
4.30285e-07
2.51982e-06
2.52088e-06
2.4647e-05
2.49398e-05
2.48324e-05
2.49385e-05
4.2858e-07
2.59983e-06
2.59973e-06
2.54769e-06
2.54856e-06
2.48314e-05
2.49392e-05
6.15364e-07
1.2477e-06
4.06616e-07
4.10795e-07
6.08274e-07
1.26965e-06
3.97802e-07
1.65898e-06
6.9145e-06
1.59173e-06
7.3218e-06
6.15387e-07
4.06607e-07
1.24727e-06
4.10786e-07
6.08237e-07
3.97791e-07
1.27094e-06
1.68979e-06
7.76102e-06
7.43101e-06
1.74317e-06
6.1843e-07
4.03176e-07
1.3049e-06
3.81299e-07
1.28316e-06
3.89372e-07
6.22682e-07
1.68966e-06
7.7616e-06
7.43161e-06
1.74351e-06
6.18437e-07
4.03169e-07
3.81289e-07
1.30444e-06
3.89363e-07
1.28259e-06
6.22728e-07
1.65833e-06
6.91432e-06
1.5918e-06
7.32181e-06
6.15354e-07
4.06598e-07
1.24809e-06
4.10784e-07
6.08138e-07
3.97783e-07
1.27008e-06
1.65831e-06
6.91526e-06
1.59199e-06
7.32256e-06
6.18527e-07
4.0315e-07
1.30612e-06
3.81286e-07
1.2824e-06
3.89358e-07
6.22442e-07
1.69002e-06
7.76148e-06
7.43147e-06
1.74327e-06
6.1837e-07
4.03168e-07
3.81283e-07
1.30521e-06
3.89355e-07
1.28344e-06
6.22657e-07
1.69019e-06
7.76245e-06
7.43256e-06
1.7423e-06
2.46203e-06
2.46103e-06
4.30275e-07
2.51992e-06
2.52045e-06
2.46498e-05
2.49418e-05
2.48352e-05
2.49414e-05
4.28572e-07
2.59898e-06
2.60046e-06
2.54809e-06
2.54848e-06
2.48392e-05
2.49409e-05
6.15481e-07
4.0661e-07
1.24807e-06
4.1079e-07
6.08299e-07
3.97795e-07
1.27004e-06
1.65925e-06
6.91481e-06
1.59187e-06
7.32206e-06
1.65948e-06
6.91542e-06
1.59208e-06
7.32273e-06
6.18594e-07
4.03148e-07
3.81289e-07
1.30642e-06
3.8936e-07
1.28346e-06
6.2271e-07
6.18482e-07
4.03172e-07
3.81293e-07
1.30514e-06
3.89367e-07
1.28341e-06
6.22764e-07
1.68978e-06
7.76211e-06
7.43202e-06
1.74334e-06
1.68999e-06
7.76266e-06
7.43274e-06
1.74361e-06
2.46489e-05
2.49419e-05
2.46503e-05
2.49426e-05
4.28583e-07
2.60048e-06
2.60032e-06
2.54831e-06
2.54833e-06
2.48348e-05
2.49412e-05
2.48347e-05
2.49418e-05
2.47326e-05
2.44312e-05
2.47346e-05
2.44315e-05
2.625e-06
2.62491e-06
4.08483e-07
2.67126e-06
2.6717e-06
2.38703e-05
2.42613e-05
2.38721e-05
2.42628e-05
4.0679e-07
2.73494e-06
2.73676e-06
2.69303e-06
2.69277e-06
1.8084e-06
7.84465e-06
1.76798e-06
8.10183e-06
6.25701e-07
1.31818e-06
3.73536e-07
3.81784e-07
6.24346e-07
1.33766e-06
3.66085e-07
6.25693e-07
1.31807e-06
3.73537e-07
3.81782e-07
6.24321e-07
1.33755e-06
3.66086e-07
1.82687e-06
8.35391e-06
8.16206e-06
1.85428e-06
1.82573e-06
8.35383e-06
8.16168e-06
1.85605e-06
6.26104e-07
3.75074e-07
1.36616e-06
3.51981e-07
1.34979e-06
3.58908e-07
6.24857e-07
6.26081e-07
3.75071e-07
1.36612e-06
3.51983e-07
1.34973e-06
3.58909e-07
6.24905e-07
2.62362e-06
2.62445e-06
4.084e-07
2.67087e-06
2.66884e-06
2.47337e-05
2.44296e-05
2.38702e-05
2.42615e-05
4.06753e-07
2.73674e-06
2.73391e-06
2.69186e-06
2.69243e-06
2.387e-05
2.42613e-05
6.2565e-07
1.31797e-06
3.73549e-07
3.81783e-07
6.24268e-07
1.33755e-06
3.66098e-07
1.80846e-06
7.84482e-06
1.76695e-06
8.10209e-06
6.25692e-07
3.73542e-07
1.31794e-06
3.81776e-07
6.24306e-07
3.6609e-07
1.33731e-06
1.8253e-06
8.35397e-06
8.16161e-06
1.85577e-06
6.26033e-07
3.75071e-07
1.36612e-06
3.51992e-07
1.34969e-06
3.58918e-07
6.24865e-07
1.82547e-06
8.35403e-06
8.16168e-06
1.85581e-06
6.26072e-07
3.75064e-07
3.51985e-07
1.36582e-06
3.58912e-07
1.34958e-06
6.24798e-07
1.80838e-06
7.84454e-06
1.76728e-06
8.10168e-06
6.25666e-07
3.73536e-07
1.31823e-06
3.81781e-07
6.24283e-07
3.66085e-07
1.33779e-06
1.80813e-06
7.84587e-06
1.76777e-06
8.10287e-06
6.26147e-07
3.75044e-07
1.36734e-06
3.51981e-07
1.34855e-06
3.58908e-07
6.24836e-07
1.82585e-06
8.35338e-06
8.1612e-06
1.85608e-06
6.26056e-07
3.75071e-07
3.51982e-07
1.36627e-06
3.58908e-07
1.34986e-06
6.24873e-07
1.82555e-06
8.35466e-06
8.16269e-06
1.8558e-06
2.62348e-06
2.62436e-06
4.0837e-07
2.66946e-06
2.67066e-06
2.47312e-05
2.44321e-05
2.38724e-05
2.42622e-05
4.06804e-07
2.73393e-06
2.73608e-06
2.69167e-06
2.6924e-06
2.38711e-05
2.42627e-05
6.25747e-07
3.73543e-07
1.31817e-06
3.81779e-07
6.24381e-07
3.66092e-07
1.3377e-06
1.80703e-06
7.84548e-06
1.76735e-06
8.10263e-06
1.80719e-06
7.84605e-06
1.76755e-06
8.10305e-06
6.26091e-07
3.75051e-07
3.51985e-07
1.36775e-06
3.5891e-07
1.34882e-06
6.24897e-07
6.26143e-07
3.75066e-07
3.51985e-07
1.36621e-06
3.58913e-07
1.3498e-06
6.24929e-07
1.82652e-06
8.35443e-06
8.16238e-06
1.85461e-06
1.8267e-06
8.35486e-06
8.16288e-06
1.85471e-06
2.47349e-05
2.4433e-05
2.47354e-05
2.44331e-05
4.06828e-07
2.73712e-06
2.73751e-06
2.69257e-06
2.69251e-06
2.3872e-05
2.42636e-05
2.38721e-05
2.42638e-05
2.36821e-05
2.3266e-05
2.36827e-05
2.32675e-05
2.75875e-06
2.75749e-06
3.86705e-07
2.80046e-06
2.80109e-06
2.26741e-05
2.30773e-05
2.26754e-05
2.30775e-05
3.85035e-07
2.8681e-06
2.86953e-06
2.82473e-06
2.82362e-06
1.88953e-06
8.39385e-06
1.86841e-06
8.53085e-06
6.21337e-07
1.37716e-06
3.45287e-07
3.55999e-07
6.24785e-07
1.39056e-06
3.38808e-07
6.21372e-07
1.3771e-06
3.45289e-07
3.55992e-07
6.2459e-07
1.39048e-06
3.3881e-07
1.89941e-06
8.64756e-06
8.55575e-06
1.91114e-06
1.89811e-06
8.64748e-06
8.55553e-06
1.91153e-06
6.20475e-07
3.49958e-07
1.4115e-06
3.26438e-07
1.40046e-06
3.3253e-07