/*--------------------------------*- C++ -*----------------------------------*\
| =========                 |                                                 |
| \\      /  F ield         | OpenFOAM: The Open Source CFD Toolbox           |
|  \\    /   O peration     | Version:  v1906                                 |
|   \\  /    A nd           | Web:      www.OpenFOAM.com                      |
|    \\/     M anipulation  |                                                 |
\*---------------------------------------------------------------------------*/
FoamFile
{
    version     2.0;
    format      ascii;
    class       volScalarField;
    location    "950";
    object      nut;
}
// * * * * * * * * * * * * * * * * * * * * * * * * * * * * * * * * * * * * * //

dimensions      [0 2 -1 0 0 0 0];


internalField   nonuniform List<scalar> 
42616
(
0.000233972
0.000233085
0.000233089
0.0002334
0.000232521
0.00022771
0.000227721
0.000223708
0.00023049
0.000220189
0.000220197
0.000208926
0.000227756
0.000211519
0.000211522
0.000193642
0.000224376
0.000202506
0.000202504
0.000179648
0.000220486
0.000193637
0.000193633
0.000167312
0.000216232
0.00018515
0.000185149
0.00015662
0.000211746
0.000177121
0.000177122
0.000147273
0.000207132
0.00016959
0.00016959
0.000138981
0.000202471
0.000162524
0.000162523
0.000131683
0.000197818
0.00015587
0.000155867
0.00012502
0.000193206
0.000149571
0.000149567
0.000118917
0.000188617
0.000143586
0.000143582
0.000113159
0.000184086
0.000137863
0.000137856
0.000107921
0.000179642
0.000132362
0.000132354
0.000102994
0.000175273
0.000127074
0.000127063
9.83325e-05
0.000170968
0.000122015
0.000122004
9.4071e-05
0.000166715
0.000117219
0.000117206
9.03799e-05
0.000162512
0.000112711
0.000112697
8.74202e-05
0.000158334
0.000108553
0.00010854
8.50871e-05
0.000154177
0.000104794
0.000104781
8.33316e-05
0.000234261
0.000234458
0.000234459
0.000234263
0.000234459
0.000234457
0.000234275
0.000234275
0.000234275
0.000234275
0.000234459
0.000234459
0.000234262
0.000234458
0.000234461
0.000234266
0.000233394
0.000226046
0.000233086
0.000233083
0.000229282
0.000229273
0.000233395
0.000226056
0.000233083
0.000233085
0.000229267
0.000229282
0.000233091
0.000229285
0.000229285
0.000233401
0.000226089
0.000233086
0.000229295
0.000229277
0.000226068
0.000223685
0.000212034
0.000227704
0.000227694
0.000222205
0.000222195
0.000223695
0.000212052
0.000227686
0.000227705
0.000222185
0.000222205
0.000227702
0.000222215
0.0002222
0.00022373
0.000212072
0.000227697
0.000222224
0.000222195
0.000212053
0.000208901
0.000196881
0.000220178
0.000220168
0.000213731
0.000213721
0.000208918
0.000196914
0.000220158
0.000220177
0.000213714
0.000213729
0.000220174
0.000213745
0.000213732
0.00020894
0.000196929
0.00022017
0.000213749
0.000213728
0.000196919
0.00019363
0.000182735
0.000211502
0.000211493
0.000204736
0.000204726
0.000193651
0.000182776
0.000211488
0.0002115
0.000204728
0.00020473
0.000211504
0.000204758
0.000204737
0.000193647
0.000182787
0.000211501
0.000204757
0.00020474
0.000182758
0.000179621
0.000170165
0.000202481
0.000202472
0.000195797
0.000195788
0.00017964
0.000170235
0.000202475
0.000202474
0.000195798
0.000195787
0.000202483
0.000195823
0.000195797
0.000179614
0.000170234
0.000202487
0.000195819
0.000195805
0.000170203
0.000167311
0.000159167
0.00019361
0.000193602
0.000187204
0.000187197
0.000167286
0.000159256
0.000193613
0.000193599
0.000187213
0.000187194
0.000193609
0.00018723
0.000187203
0.000167269
0.00015925
0.00019362
0.000187228
0.000187216
0.000159179
0.000156618
0.000149561
0.000185124
0.000185117
0.000179055
0.000179049
0.000156552
0.00014966
0.000185134
0.000185114
0.000179069
0.000179046
0.000185122
0.000179082
0.000179052
0.000156554
0.000149591
0.000185137
0.000179082
0.000179071
0.000149569
0.000147277
0.000141166
0.000177095
0.000177089
0.000171398
0.000171393
0.0001472
0.00014112
0.000177109
0.000177085
0.000171414
0.000171387
0.000177091
0.000171426
0.000171393
0.000147282
0.000141181
0.00017711
0.000171427
0.000171414
0.000141142
0.000138942
0.000133572
0.000169561
0.000169557
0.000164219
0.000164215
0.000139067
0.000133577
0.000169578
0.00016955
0.000164238
0.000164209
0.000169556
0.00016425
0.000164215
0.00013892
0.000133665
0.000169578
0.000164248
0.000164238
0.000133631
0.000131729
0.000126802
0.000162494
0.00016249
0.000157465
0.00015746
0.00013177
0.000126836
0.000162514
0.000162484
0.000157487
0.000157455
0.000162489
0.000157498
0.000157461
0.000131644
0.000126741
0.000162512
0.000157495
0.000157486
0.000126813
0.000125017
0.000120544
0.000155836
0.000155832
0.000151079
0.000151075
0.000125009
0.000120559
0.00015586
0.000155828
0.000151105
0.000151071
0.000155833
0.000151115
0.000151076
0.000125122
0.000120478
0.000155858
0.000151112
0.000151104
0.000120539
0.00011893
0.000114467
0.000149535
0.000149531
0.000145017
0.000145013
0.00011894
0.000114499
0.000149561
0.000149527
0.000145045
0.000145009
0.000149532
0.000145055
0.000145016
0.000118962
0.000114422
0.00014956
0.00014505
0.000145045
0.000114495
0.000113214
0.000108807
0.000143549
0.000143545
0.000139233
0.000139229
0.000113187
0.000108819
0.000143577
0.00014354
0.000139261
0.000139224
0.000143548
0.000139271
0.000139233
0.000113239
0.000108782
0.000143577
0.000139265
0.000139263
0.000108813
0.00010792
0.000103637
0.000137826
0.00013782
0.000133681
0.000133676
0.000107926
0.00010364
0.000137852
0.000137815
0.000133709
0.000133671
0.000137825
0.00013372
0.000133683
0.000107903
0.000103626
0.000137855
0.000133712
0.000133712
0.000103635
0.000102999
9.90328e-05
0.000132324
0.000132318
0.000128337
0.000128332
0.000103004
9.90212e-05
0.00013235
0.000132312
0.000128365
0.000128326
0.000132325
0.000128378
0.000128341
0.000102992
9.9009e-05
0.000132355
0.000128368
0.000128369
9.90238e-05
9.83341e-05
9.48481e-05
0.000127033
0.000127027
0.00012322
0.000123214
9.83556e-05
9.48178e-05
0.000127058
0.000127021
0.000123247
0.000123209
0.000127036
0.000123263
0.000123226
9.83477e-05
9.48072e-05
0.000127065
0.000123251
0.000123252
9.48608e-05
9.40911e-05
9.13092e-05
0.000121974
0.000121968
0.000118331
0.00011832
9.41426e-05
9.11787e-05
0.000121997
0.000121961
0.000118353
0.000118314
0.000121978
0.000118372
0.000118337
9.41339e-05
9.11707e-05
0.000122005
0.000118355
0.000118358
9.13627e-05
9.04664e-05
8.82259e-05
0.000117176
0.000117172
0.00011375
0.000113747
9.05231e-05
8.81087e-05
0.000117199
0.000117164
0.00011378
0.00011374
0.00011718
0.000113793
0.000113757
9.05141e-05
8.8132e-05
0.000117208
0.000113781
0.00011378
8.82931e-05
8.75274e-05
8.58001e-05
0.000112673
0.000112662
0.000109493
0.000109491
8.75762e-05
8.55792e-05
0.000112689
0.000112655
0.000109525
0.000109484
0.000112675
0.000109538
0.000109501
8.75722e-05
8.55926e-05
0.000112698
0.000109527
0.000109523
8.5824e-05
8.50937e-05
8.40763e-05
0.000108517
0.000108504
0.000105624
0.000105619
8.52666e-05
8.3773e-05
0.00010853
0.000108497
0.000105655
0.000105614
0.000108518
0.000105667
0.000105631
8.52374e-05
8.37477e-05
0.00010854
0.000105657
0.000105653
8.39868e-05
8.33156e-05
0.000104762
0.000104745
8.35141e-05
0.00010477
0.000104738
0.000104759
8.35845e-05
0.000104782
0.00023473
0.000234746
0.000234729
0.000234729
0.000235128
0.000234799
0.000234807
0.000234726
0.000235131
0.000234799
0.000234726
0.000235029
0.000234873
0.000233717
0.000233456
0.000104635
3.88322e-05
0.000128464
3.97856e-05
2.19693e-05
2.28522e-05
0.000104569
3.88136e-05
0.000128277
3.97811e-05
0.000233972
0.000233972
0.000233972
0.000232928
0.000232929
0.000232929
0.000232929
0.000206107
9.34931e-05
0.000233967
0.00023196
0.000222385
8.65633e-05
0.000233607
2.19655e-05
2.2851e-05
0.000206021
0.000233967
9.32381e-05
0.000231966
0.000222353
0.000233606
8.66777e-05
4.75893e-05
4.76557e-05
0.000231285
4.35926e-05
4.36959e-05
7.2595e-05
4.24044e-05
8.13053e-05
4.37519e-05
2.47888e-05
2.54746e-05
7.25643e-05
4.23993e-05
8.12781e-05
4.37455e-05
0.000232522
0.000232523
0.000232522
0.000231062
0.000231064
0.000231065
0.000231063
0.000167354
7.89514e-05
0.000232063
0.000225993
0.000180055
7.39996e-05
0.000231352
2.47877e-05
2.54738e-05
0.000167317
0.000232061
7.89715e-05
0.000226004
0.000180009
0.00023135
7.40882e-05
3.89611e-05
3.90912e-05
0.000219419
3.64301e-05
3.64988e-05
5.63414e-05
4.55385e-05
6.12373e-05
4.64148e-05
2.60156e-05
2.61182e-05
5.63264e-05
4.55316e-05
6.11912e-05
4.64089e-05
0.000230491
0.000230493
0.00023049
0.000228504
0.000228507
0.000228508
0.000228506
0.00013856
6.70947e-05
0.000228596
0.000218092
0.000148007
6.31368e-05
0.000227482
2.60137e-05
2.61161e-05
0.000138536
0.000228595
6.70396e-05
0.0002181
0.000147976
0.00022748
6.32013e-05
3.32773e-05
3.32839e-05
0.000204452
3.20389e-05
3.20253e-05
4.70495e-05
4.74967e-05
4.99733e-05
4.80093e-05
2.60409e-05
2.5939e-05
4.69817e-05
4.74898e-05
4.9977e-05
4.80036e-05
0.000227759
0.00022776
0.000227758
0.000225275
0.000225278
0.000225279
0.000225277
0.000117521
5.79567e-05
0.000223649
0.000209272
0.000124596
5.51657e-05
0.000222233
2.60385e-05
2.59372e-05
0.000117519
0.000223647
5.79319e-05
0.000209274
0.000124616
0.00022223
5.51862e-05
3.07066e-05
3.0691e-05
0.000189667
3.03812e-05
3.03621e-05
4.14891e-05
4.85799e-05
4.32666e-05
4.88425e-05
2.56717e-05
2.55202e-05
4.14315e-05
4.85732e-05
4.32936e-05
4.88372e-05
0.000224379
0.00022438
0.000224378
0.000221498
0.0002215
0.000221499
0.000221499
0.000102068
5.167e-05
0.000217685
0.000200261
0.000107433
4.97915e-05
0.000216092
2.56685e-05
2.5518e-05
0.000102086
0.000217684
5.16528e-05
0.000200258
0.00010744
0.00021609
4.98148e-05
3.03021e-05
3.02903e-05
0.000176272
3.04438e-05
3.04309e-05
3.81989e-05
4.90902e-05
3.9252e-05
4.91972e-05
2.52351e-05
2.50952e-05
3.81588e-05
4.9085e-05
3.92649e-05
4.91928e-05
0.000220488
0.000220487
0.000220486
0.000217322
0.000217323
0.000217321
0.000217321
9.04721e-05
4.75407e-05
0.000211174
0.000191473
9.45772e-05
4.63903e-05
0.000209507
2.52319e-05
2.5093e-05
9.04793e-05
0.000211176
4.75663e-05
0.000191469
9.45785e-05
0.000209506
4.63937e-05
3.11277e-05
3.11195e-05
0.000164505
3.15571e-05
3.15456e-05
3.64006e-05
4.92675e-05
3.69482e-05
4.92949e-05
2.48471e-05
2.47344e-05
3.63742e-05
4.92634e-05
3.69604e-05
4.92912e-05
0.000216233
0.000216232
0.000216231
0.000212883
0.000212882
0.000212882
0.000212881
8.15893e-05
4.50252e-05
0.00020448
0.000183097
8.48226e-05
4.43698e-05
0.00020281
2.48442e-05
2.47321e-05
8.16261e-05
0.000204485
4.50135e-05
0.000183096
8.48069e-05
0.000202811
4.43712e-05
3.26879e-05
3.26835e-05
0.000154218
3.33038e-05
3.32862e-05
3.56963e-05
4.92841e-05
3.58239e-05
4.92812e-05
2.45348e-05
2.44479e-05
3.56753e-05
4.92801e-05
3.58278e-05
4.92772e-05
0.000211745
0.000211744
0.000211743
0.000208292
0.000208292
0.00020829
0.000208288
7.46995e-05
4.36653e-05
0.000197843
0.000175192
7.72741e-05
4.33526e-05
0.000196211
2.45321e-05
2.44468e-05
7.46668e-05
0.000197848
4.36267e-05
0.000175192
7.7223e-05
0.000196213
4.33635e-05
3.47189e-05
3.47119e-05
0.000145186
3.54427e-05
3.54369e-05
3.57952e-05
4.92439e-05
3.56361e-05
4.92412e-05
2.42956e-05
2.42291e-05
3.57532e-05
4.92393e-05
3.56682e-05
4.92375e-05
0.000207132
0.00020713
0.000207128
0.000203637
0.000203638
0.000203635
0.000203632
6.92715e-05
4.31705e-05
0.000191397
0.000167781
7.13008e-05
4.30738e-05
0.000189818
2.42916e-05
2.423e-05
6.92236e-05
0.0001914
4.31264e-05
0.000167781
7.13442e-05
0.000189818
4.31108e-05
3.70414e-05
3.7027e-05
0.000137268
3.78164e-05
3.7817e-05
3.65875e-05
4.92177e-05
3.62064e-05
4.92154e-05
2.41178e-05
2.40679e-05
3.65371e-05
4.92119e-05
3.62401e-05
4.92123e-05
0.000202472
0.000202469
0.000202466
0.000198978
0.000198979
0.000198976
0.000198973
6.49273e-05
4.33299e-05
0.000185165
0.000160824
6.65725e-05
4.34257e-05
0.000183645
2.41126e-05
2.40701e-05
6.49138e-05
0.000185166
4.32606e-05
0.000160822
6.65812e-05
0.000183642
4.35151e-05
3.95086e-05
3.95007e-05
0.000130125
4.03147e-05
4.03113e-05
3.80021e-05
4.92158e-05
3.74263e-05
4.92206e-05
2.39904e-05
2.3951e-05
3.79521e-05
4.92121e-05
3.74643e-05
4.92197e-05
0.00019782
0.000197816
0.000197813
0.000194352
0.000194355
0.000194351
0.000194348
6.1542e-05
4.40188e-05
0.00017919
0.000154263
6.2773e-05
4.42775e-05
0.00017774
2.39824e-05
2.3955e-05
6.15181e-05
0.00017919
4.39437e-05
0.00015426
6.27918e-05
0.000177736
4.43583e-05
4.20264e-05
4.20143e-05
0.000123589
4.28365e-05
4.28386e-05
3.99467e-05
4.92395e-05
3.92464e-05
4.92444e-05
2.38992e-05
2.38691e-05
3.99316e-05
4.92267e-05
3.92666e-05
4.92506e-05
0.000193209
0.000193204
0.000193202
0.000189765
0.000189768
0.000189763
0.000189761
5.89412e-05
4.51641e-05
0.000173492
0.000148046
5.98783e-05
4.55385e-05
0.000172107
2.389e-05
2.3874e-05
5.89482e-05
0.000173492
4.50798e-05
0.000148041
5.98787e-05
0.000172103
4.56147e-05
4.45062e-05
4.45042e-05
0.000117468
4.53007e-05
4.52989e-05
4.24359e-05
4.92744e-05
4.15858e-05
4.92834e-05
2.38352e-05
2.38119e-05
4.2422e-05
4.92633e-05
4.1602e-05
4.92895e-05
0.00018862
0.000188615
0.000188614
0.000185211
0.000185214
0.000185208
0.000185208
5.7097e-05
4.66669e-05
0.000168041
0.000142132
5.77137e-05
4.71606e-05
0.000166714
2.38253e-05
2.38172e-05
5.70967e-05
0.000168041
4.65849e-05
0.000142128
5.77182e-05
0.00016671
4.72277e-05
4.6883e-05
4.68792e-05
0.000111594
4.76662e-05
4.76613e-05
4.53627e-05
4.93151e-05
4.43467e-05
4.93248e-05
2.37901e-05
2.37713e-05
4.53658e-05
4.93051e-05
4.43688e-05
4.93304e-05
0.000184089
0.000184083
0.000184084
0.000180745
0.000180749
0.000180742
0.000180744
5.59848e-05
4.84633e-05
0.000162804
0.000136469
5.62661e-05
4.90414e-05
0.000161525
2.37798e-05
2.3777e-05
5.59481e-05
0.000162803
4.83764e-05
0.000136462
5.63015e-05
0.00016152
4.9127e-05
4.91238e-05
4.91171e-05
0.00010615
4.98416e-05
4.9842e-05
4.86037e-05
4.93549e-05
4.7491e-05
4.93636e-05
2.37572e-05
2.37422e-05
4.86114e-05
4.93455e-05
4.75068e-05
4.93683e-05
0.000179645
0.000179638
0.00017964
0.000176359
0.000176363
0.000176355
0.000176358
5.54525e-05
5.04391e-05
0.000157748
0.000131021
5.55206e-05
5.11738e-05
0.00015651
2.3747e-05
2.37463e-05
5.53902e-05
0.000157746
5.04422e-05
0.000131012
5.55565e-05
0.000156505
5.1148e-05
5.11844e-05
5.11956e-05
0.000101273
5.18428e-05
5.18252e-05
5.20274e-05
4.93914e-05
5.08777e-05
4.93987e-05
2.373e-05
2.37207e-05
5.20549e-05
4.9382e-05
5.08674e-05
4.94028e-05
0.000175277
0.000175269
0.000175272
0.000172038
0.000172043
0.000172034
0.000172037
5.55623e-05
5.26157e-05
0.000152844
0.00012579
5.54181e-05
5.33729e-05
0.000151642
2.3724e-05
2.37206e-05
5.55248e-05
0.000152842
5.26289e-05
0.000125779
5.54539e-05
0.000151636
5.33549e-05
5.30632e-05
5.30777e-05
9.68889e-05
5.3664e-05
5.36468e-05
5.55536e-05
4.9424e-05
5.43178e-05
4.94309e-05
2.37078e-05
2.37017e-05
5.55909e-05
4.94149e-05
5.42841e-05
4.94344e-05
0.000170973
0.000170964
0.000170968
0.000167771
0.000167775
0.000167767
0.00016777
5.62775e-05
5.48998e-05
0.000148089
0.000120794
5.59522e-05
5.55986e-05
0.000146921
2.37048e-05
2.37003e-05
5.62579e-05
0.000148087
5.48957e-05
0.000120781
5.59734e-05
0.000146915
5.56254e-05
5.4762e-05
5.47627e-05
9.30568e-05
5.53081e-05
5.53084e-05
5.89699e-05
4.9454e-05
5.77166e-05
4.94606e-05
2.36893e-05
2.36847e-05
5.89879e-05
4.94453e-05
5.77024e-05
4.94636e-05
0.000166719
0.000166709
0.000166714
0.000163555
0.000163559
0.00016355
0.000163553
5.75816e-05
5.71779e-05
0.000143449
0.00011605
5.70655e-05
5.78748e-05
0.000142307
2.3687e-05
2.36826e-05
5.75363e-05
0.000143447
5.71593e-05
0.000116036
5.70906e-05
0.000142301
5.79077e-05
5.63092e-05
5.63097e-05
8.97552e-05
5.67726e-05
5.67754e-05
6.21735e-05
4.94823e-05
6.0967e-05
4.9489e-05
2.36728e-05
2.36682e-05
6.22028e-05
4.94739e-05
6.09461e-05
4.94914e-05
0.000162516
0.000162506
0.000162512
0.000159374
0.000159377
0.000159369
0.000159371
5.94048e-05
5.94282e-05
0.000138907
0.000111619
5.87165e-05
6.01112e-05
0.000137792
2.36706e-05
2.36665e-05
5.93726e-05
0.000138903
5.93874e-05
0.000111607
5.87188e-05
0.000137786
6.01808e-05
5.76947e-05
5.76947e-05
8.69777e-05
5.81104e-05
5.81139e-05
6.50861e-05
4.95088e-05
6.39874e-05
4.95145e-05
2.36573e-05
2.36534e-05
6.5111e-05
4.95009e-05
6.39726e-05
4.95174e-05
0.00015834
0.000158328
0.000158335
0.000155212
0.000155215
0.000155206
0.000155209
6.16373e-05
6.16243e-05
0.000134466
0.000107551
6.0815e-05
6.22879e-05
0.000133384
2.36552e-05
2.36514e-05
6.16118e-05
0.000134464
6.15857e-05
0.000107539
6.08203e-05
0.000133379
6.23465e-05
5.89445e-05
5.89443e-05
8.48307e-05
5.93233e-05
5.93275e-05
6.76977e-05
4.95336e-05
6.67071e-05
4.95379e-05
2.36431e-05
2.36397e-05
4.95264e-05
6.66963e-05
4.95421e-05
0.000154182
0.000154169
0.000154176
6.42209e-05
6.37311e-05
0.000130143
0.00010392
6.32748e-05
6.44238e-05
0.000129099
2.36409e-05
6.41889e-05
0.000130143
6.36918e-05
6.32828e-05
0.000129101
6.00802e-05
6.00805e-05
8.34112e-05
6.04272e-05
6.04279e-05
0.000234872
0.000233429
0.000233751
2.30744e-05
0.00021439
2.30589e-05
0.000214613
0.000234426
5.08199e-05
5.08263e-05
0.000228489
0.00022988
0.000235127
0.0002348
0.0002349
0.000234726
0.000235131
0.0002348
0.000234928
0.000234726
0.000234324
4.03396e-05
0.000218374
0.000147231
0.000234325
4.03262e-05
0.000218141
0.000146967
0.000233832
0.000234471
9.8152e-05
0.000234271
0.000233234
0.000234597
0.000228307
0.000233823
0.00023447
9.79596e-05
0.00023427
0.000233336
0.000234597
0.000228255
0.000234872
0.000233529
0.000233746
2.30818e-05
0.000214414
0.000234427
5.08783e-05
5.10786e-05
0.000230267
0.000230264
2.30751e-05
0.000214156
0.000235128
0.0002348
0.000235316
0.000234726
0.000235129
0.0002348
0.000234726
0.000234919
0.00023433
4.04103e-05
0.000213545
0.000146979
0.000233826
0.00023447
9.94223e-05
0.00023427
0.000232559
0.000234597
0.000228235
0.000234342
4.03186e-05
0.000218198
0.000146941
0.000233828
0.000234471
0.000234271
9.80233e-05
0.000234597
0.000233282
0.000228265
0.00023473
0.000234746
0.000234729
0.000234729
0.00023473
0.000234746
0.000234729
0.000234729
0.00023473
0.000234746
0.000234729
0.000234729
0.000234591
0.000234573
0.000234253
0.000234253
0.000234592
0.000234592
0.000234252
0.000234591
0.000234573
0.000234253
0.000234253
0.000234592
0.000234592
0.000234252
0.000234591
0.000234573
0.000234253
0.000234253
0.000234592
0.000234592
0.000234252
0.000234591
0.000234574
0.000234253
0.000234253
0.000234592
0.000234592
0.000234252
0.000235129
0.000234798
0.000234726
0.000234834
0.00023383
0.000234472
9.82311e-05
0.000234271
0.000233359
0.000234597
0.000228325
0.000234322
4.03303e-05
0.000218373
0.000147253
0.000233828
0.000234473
0.000234271
9.81967e-05
0.000234597
0.000233316
0.000228321
0.000234321
4.03271e-05
0.000218376
0.000147238
0.00023487
0.000233444
0.0002335
2.30727e-05
0.00021404
0.000234429
5.09413e-05
5.09857e-05
0.000229345
0.000229427
2.30583e-05
0.000214498
0.00023513
0.000234798
0.000234726
0.000234818
0.000233825
0.000234472
0.000234271
9.97177e-05
0.000234597
0.000233187
0.00022831
0.000233826
0.000234473
0.000234271
9.81866e-05
0.000234597
0.000233309
0.000228313
0.00023432
4.04166e-05
0.000213502
0.000147078
0.00023434
4.03222e-05
0.00021844
0.000147068
0.000234425
5.09772e-05
5.0858e-05
0.000229341
0.000230024
2.30978e-05
0.000214426
2.30757e-05
0.000214382
2.19609e-05
2.28694e-05
2.19785e-05
2.28685e-05
4.77039e-05
4.76954e-05
0.000231263
4.37317e-05
4.36868e-05
2.45016e-05
2.33198e-05
2.45004e-05
2.33184e-05
0.000229554
3.99476e-05
3.99111e-05
4.28494e-05
4.28058e-05
0.000104682
3.8838e-05
0.000128215
3.97853e-05
0.000206034
9.30984e-05
0.000233967
0.00023196
0.00022239
8.65549e-05
0.000233606
0.000206073
9.29822e-05
0.000233967
0.000231954
0.000222286
8.64522e-05
0.000233606
9.82681e-05
4.19352e-05
4.03301e-05
8.54572e-05
9.8287e-05
4.19318e-05
4.0317e-05
8.55159e-05
0.000199865
0.000230701
8.01846e-05
0.000232665
8.49844e-05
0.000233179
0.000185345
0.000199897
0.000230693
8.01134e-05
0.000232669
8.48964e-05
0.00023318
0.000185426
4.76875e-05
4.77508e-05
0.000231271
4.3681e-05
4.36974e-05
2.1955e-05
2.28699e-05
2.44995e-05
2.3332e-05
0.000229565
3.99091e-05
3.99276e-05
4.27953e-05
4.2848e-05
2.45034e-05
2.33203e-05
0.000205963
9.27247e-05
0.000233967
0.000231953
0.000222297
8.64656e-05
0.000233605
0.000104581
3.88298e-05
0.000128313
3.97832e-05
0.000205975
0.000233967
9.29904e-05
0.00023196
0.000222325
0.000233605
8.64891e-05
9.82105e-05
4.19313e-05
4.03215e-05
8.5432e-05
0.000199799
0.000230689
8.01038e-05
0.000232662
8.49327e-05
0.000233177
0.000185293
9.82228e-05
4.19293e-05
4.03133e-05
8.54501e-05
0.000199814
0.000230701
0.000232664
8.01378e-05
0.000233177
8.49611e-05
0.00018532
0.000104727
3.88283e-05
0.000128459
3.97928e-05
0.000206104
0.000233968
9.28938e-05
0.000231965
0.000222392
0.000233608
8.63006e-05
0.000104718
3.88332e-05
0.000128494
3.97891e-05
0.00019995
0.000230704
8.02475e-05
0.000232671
8.51913e-05
0.000233182
0.000185457
9.83485e-05
4.19361e-05
4.03174e-05
8.55315e-05
0.000199943
0.000230706
0.00023267
8.00409e-05
0.000233182
8.4815e-05
0.000185442
9.83525e-05
4.19317e-05
4.03181e-05
8.55323e-05
4.75985e-05
4.7644e-05
0.000231292
4.36829e-05
4.36988e-05
2.19817e-05
2.28672e-05
2.4499e-05
2.33305e-05
0.000229596
3.99215e-05
3.99446e-05
4.28629e-05
4.287e-05
2.45007e-05
2.33171e-05
0.000206007
0.000233967
9.29151e-05
0.000231956
0.000222372
0.000233606
8.63038e-05
0.000104624
3.88293e-05
0.00012839
3.97952e-05
0.000104598
3.88365e-05
0.000128403
3.97884e-05
0.000199868
0.000230711
0.000232668
8.02961e-05
0.00023318
8.50898e-05
0.000185399
0.000199844
0.000230697
0.000232665
8.00729e-05
0.000233179
8.48033e-05
0.000185336
9.82929e-05
4.19326e-05
4.03125e-05
8.54993e-05
9.82599e-05
4.19325e-05
4.03149e-05
8.54502e-05
2.19607e-05
2.28637e-05
2.1955e-05
2.28671e-05
0.000229586
3.97498e-05
3.98998e-05
4.26771e-05
4.28015e-05
2.44979e-05
2.33142e-05
2.44996e-05
2.33178e-05
2.47908e-05
2.54766e-05
2.47896e-05
2.54748e-05
3.91393e-05
3.9093e-05
0.000219405
3.65365e-05
3.64916e-05
2.59599e-05
2.56268e-05
2.59582e-05
2.56251e-05
0.000216569
3.38766e-05
3.38448e-05
3.57896e-05
3.57519e-05
7.26334e-05
4.24011e-05
8.13607e-05
4.37493e-05
0.000167271
7.88838e-05
0.000232055
0.000225986
0.000179955
7.39578e-05
0.000231344
0.000167342
7.88003e-05
0.000232061
0.000225976
0.000180033
7.39828e-05
0.00023135
6.96781e-05
4.52348e-05
4.41351e-05
6.32809e-05
6.97095e-05
4.52335e-05
4.41318e-05
6.33109e-05
0.000162756
0.000224147
6.82097e-05
0.00022961
7.27387e-05
0.000230528
0.000151767
0.000162807
0.000224137
6.82388e-05
0.000229616
7.26367e-05
0.000230535
0.000151813
3.90941e-05
3.91262e-05
0.000219416
3.65163e-05
3.65339e-05
2.47921e-05
2.54775e-05
2.59588e-05
2.56252e-05
0.000216579
3.38556e-05
3.38783e-05
3.57499e-05
3.57799e-05
2.59606e-05
2.56274e-05
0.000167214
7.87916e-05
0.000232051
0.000225967
0.000179898
7.39631e-05
0.000231337
7.25888e-05
4.23983e-05
8.12946e-05
4.37462e-05
0.000167256
0.000232054
7.88468e-05
0.000225987
0.00017993
0.000231343
7.39167e-05
6.9652e-05
4.52285e-05
4.41281e-05
6.32673e-05
0.000162688
0.000224126
6.8221e-05
0.000229598
7.26242e-05
0.000230519
0.00015171
6.96796e-05
4.52299e-05
4.41286e-05
6.32927e-05
0.000162737
0.000224147
0.000229609
6.81766e-05
0.000230527
7.27028e-05
0.000151761
7.26292e-05
4.24042e-05
8.13788e-05
4.37515e-05
0.000167348
0.000232061
7.87293e-05
0.00022598
0.000180048
0.00023135
7.39273e-05
7.26403e-05
4.24016e-05
8.1373e-05
4.37492e-05
0.000162793
0.000224156
6.82336e-05
0.000229616
7.27672e-05
0.000230536
0.000151821
6.97102e-05
4.52352e-05
4.41335e-05
6.33064e-05
0.000162815
0.00022414
0.000229617
6.82124e-05
0.000230535
7.25949e-05
0.000151809
6.97196e-05
4.52337e-05
4.41316e-05
6.33165e-05
3.91245e-05
3.91222e-05
0.000219445
3.65119e-05
3.65086e-05
2.47908e-05
2.54757e-05
2.59573e-05
2.56237e-05
0.000216609
3.38543e-05
3.38547e-05
3.5764e-05
3.57678e-05
2.59594e-05
2.56264e-05
0.000167252
0.000232055
7.87548e-05
0.000225976
0.000179946
0.000231343
7.39419e-05
7.26088e-05
4.2402e-05
8.13421e-05
4.37503e-05
7.25793e-05
4.24014e-05
8.12986e-05
4.37491e-05
0.000162758
0.000224167
0.000229614
6.83041e-05
0.000230535
7.27348e-05
0.000151788
0.000162728
0.000224138
0.000229606
6.82124e-05
0.000230526
7.26108e-05
0.000151748
6.96893e-05
4.5234e-05
4.41327e-05
6.32849e-05
6.9663e-05
4.5233e-05
4.41312e-05
6.32766e-05
2.47879e-05
2.54738e-05
2.47893e-05
2.5474e-05
0.000216584
3.38392e-05
3.38542e-05
3.56886e-05
3.57549e-05
2.59584e-05
2.56246e-05
2.59579e-05
2.56247e-05
2.60166e-05
2.61193e-05
2.60147e-05
2.6117e-05
3.33086e-05
3.32765e-05
0.000204423
3.20504e-05
3.20278e-05
2.6089e-05
2.6119e-05
2.60861e-05
2.61166e-05
0.000201155
3.09604e-05
3.09416e-05
3.16652e-05
3.16412e-05
5.63616e-05
4.55362e-05
6.12401e-05
4.64141e-05
0.000138519
6.70653e-05
0.000228593
0.000218081
0.000148028
6.31323e-05
0.000227482
0.000138545
6.69827e-05
0.000228598
0.000218072
0.000148042
6.31616e-05
0.000227485
5.48715e-05
4.73271e-05
4.66472e-05
5.11051e-05
5.48583e-05
4.73261e-05
4.6645e-05
5.10964e-05
0.000135429
0.000215929
5.8864e-05
0.000225004
6.21037e-05
0.000226283
0.000127195
0.000135426
0.000215919
5.88364e-05
0.000225004
6.20228e-05
0.000226285
0.000127194
3.32709e-05
3.33162e-05
0.00020445
3.20214e-05
3.20564e-05
2.6017e-05
2.61195e-05
2.60877e-05
2.6118e-05
0.00020118
3.09312e-05
3.09666e-05
3.16311e-05
3.16713e-05
2.60887e-05
2.61192e-05
0.000138464
6.6978e-05
0.000228578
0.000218062
0.000147946
6.31566e-05
0.000227463
5.63396e-05
4.55324e-05
6.1225e-05
4.6409e-05
0.000138505
0.00022859
6.70311e-05
0.00021808
0.000147998
0.000227478
6.30913e-05
5.48277e-05
4.73211e-05
4.66401e-05
5.1038e-05
0.000135353
0.000215911
5.88317e-05
0.000224981
6.20246e-05
0.000226263
0.000127136
5.4866e-05
4.73206e-05
4.66404e-05
5.10569e-05
0.000135397
0.000215928
0.000224997
5.88236e-05
0.000226278
6.20654e-05
0.000127163
5.63632e-05
4.55376e-05
6.12303e-05
4.64155e-05
0.000138537
0.000228598
6.69751e-05
0.00021808
0.000148054
0.000227486
6.31575e-05
5.63743e-05
4.55362e-05
6.12418e-05
4.64141e-05
0.000135389
0.000215941
5.87982e-05
0.000225001
6.21229e-05
0.000226281
0.000127242
5.48592e-05
4.73268e-05
4.66465e-05
5.10712e-05
0.000135436
0.000215929
0.000225005
5.88241e-05
0.000226286
6.20321e-05
0.000127197
5.48613e-05
4.73255e-05
4.66449e-05
5.10998e-05
3.32676e-05
3.3286e-05
0.000204465
3.20043e-05
3.20383e-05
2.60161e-05
2.61183e-05
2.60856e-05
2.61159e-05
0.000201195
3.09125e-05
3.09482e-05
3.16115e-05
3.16461e-05
2.60755e-05
2.61182e-05
0.000138496
0.000228587
6.69726e-05
0.000218075
0.000147982
0.000227475
6.31474e-05
5.63281e-05
4.55359e-05
6.12178e-05
4.64125e-05
5.63296e-05
4.55355e-05
6.12086e-05
4.64132e-05
0.000135365
0.000215947
0.000224998
5.88035e-05
0.00022628
6.20637e-05
0.00012718
0.000135401
0.000215924
0.000224996
5.88129e-05
0.000226276
6.2021e-05
0.000127185
5.48609e-05
4.73234e-05
4.66432e-05
5.10657e-05
5.48635e-05
4.73247e-05
4.66439e-05
5.10713e-05
2.60153e-05
2.6118e-05
2.60147e-05
2.61171e-05
0.000201183
3.09519e-05
3.09387e-05
3.16505e-05
3.16413e-05
2.60875e-05
2.61177e-05
2.60863e-05
2.61168e-05
2.60427e-05
2.59404e-05
2.60395e-05
2.5938e-05
3.07134e-05
3.06954e-05
0.000189616
3.04e-05
3.03663e-05
2.5741e-05
2.58803e-05
2.57381e-05
2.58765e-05
0.000186428
3.02895e-05
3.02335e-05
3.03018e-05
3.02923e-05
4.70063e-05
4.74948e-05
4.99681e-05
4.80087e-05
0.000117524
5.79012e-05
0.000223652
0.000209254
0.000124632
5.52333e-05
0.000222237
0.000117519
5.78511e-05
0.00022365
0.000209244
0.000124629
5.52332e-05
0.000222233
4.61983e-05
4.8502e-05
4.81278e-05
4.3925e-05
4.62241e-05
4.85013e-05
4.8126e-05
4.38785e-05
0.000115402
0.000206997
5.2276e-05
0.000219245
5.44531e-05
0.000220764
0.000109262
0.0001154
0.000206987
5.22806e-05
0.000219239
5.44007e-05
0.00022076
0.00010925
3.06884e-05
3.0706e-05
0.000189656
3.03611e-05
3.03947e-05
2.60421e-05
2.5941e-05
2.57392e-05
2.58786e-05
0.000186445
3.02337e-05
3.02477e-05
3.02899e-05
3.02789e-05
2.57409e-05
2.58789e-05
0.000117483
5.78595e-05
0.000223629
0.000209241
0.00012458
5.52297e-05
0.000222212
4.69944e-05
4.74886e-05
4.99941e-05
4.80019e-05
0.000117499
0.000223643
5.78635e-05
0.000209251
0.000124608
0.000222227
5.51956e-05
4.62204e-05
4.84962e-05
4.8121e-05
4.38556e-05
0.000115366
0.000206986
5.22787e-05
0.000219222
5.44091e-05
0.000220743
0.000109223
4.62282e-05
4.8494e-05
4.81191e-05
4.38588e-05
0.000115377
0.000206992
0.000219233
5.22393e-05
0.000220754
5.44114e-05
0.000109241
4.70079e-05
4.74953e-05
4.99966e-05
4.8008e-05
0.000117523
0.000223652
5.78688e-05
0.000209256
0.000124635
0.000222235
5.5221e-05
4.70125e-05
4.7494e-05
4.99747e-05
4.80072e-05
0.000115393
0.000207017
5.21996e-05
0.000219244
5.44897e-05
0.000220762
0.000109261
4.62347e-05
4.84999e-05
4.81256e-05
4.3865e-05
0.000115402
0.000206998
0.000219242
5.22644e-05
0.000220762
5.44156e-05
0.000109244
4.62268e-05
4.84993e-05
4.81245e-05
4.38759e-05
3.06568e-05
3.07027e-05
0.000189676
3.03437e-05
3.03799e-05
2.60492e-05
2.59395e-05
2.57369e-05
2.58754e-05
0.000186429
3.02346e-05
3.02468e-05
3.02496e-05
3.02974e-05
2.57391e-05
2.58797e-05
0.000117527
0.000223645
5.78573e-05
0.000209255
0.000124622
0.000222231
5.52135e-05
4.70425e-05
4.74925e-05
4.99881e-05
4.80058e-05
4.70476e-05
4.74931e-05
4.99939e-05
4.80063e-05
0.000115401
0.000207018
0.000219241
5.22361e-05
0.000220761
5.44769e-05
0.000109259
0.000115403
0.000206999
0.000219242
5.22636e-05
0.00022076
5.44054e-05
0.000109259
4.62145e-05
4.8498e-05
4.81236e-05
4.39058e-05
4.62191e-05
4.84984e-05
4.81237e-05
4.39161e-05
2.60411e-05
2.59388e-05
2.60399e-05
2.59375e-05
0.000186421
3.02443e-05
3.02296e-05
3.03025e-05
3.02905e-05
2.5739e-05
2.58788e-05
2.57377e-05
2.58775e-05
2.56732e-05
2.5522e-05
2.567e-05
2.55191e-05
3.02809e-05
3.02806e-05
0.000176255
3.04824e-05
3.044e-05
2.53037e-05
2.54527e-05
2.53008e-05
2.54496e-05
0.000173251
3.09498e-05
3.08939e-05
3.0576e-05
3.05695e-05
4.14518e-05
4.85783e-05
4.32915e-05
4.88419e-05
0.000102093
5.16347e-05
0.000217684
0.000200236
0.000107412
4.98743e-05
0.000216091
0.000102086
5.15864e-05
0.000217679
0.000200227
0.000107443
4.98883e-05
0.000216086
4.09911e-05
4.90646e-05
4.88897e-05
3.961e-05
4.10216e-05
4.90635e-05
4.88883e-05
3.96069e-05
0.000100555
0.000198007
4.79819e-05
0.00021283
4.93572e-05
0.000214471
9.58924e-05
0.000100563