/*--------------------------------*- C++ -*----------------------------------*\
| =========                 |                                                 |
| \\      /  F ield         | OpenFOAM: The Open Source CFD Toolbox           |
|  \\    /   O peration     | Version:  v1906                                 |
|   \\  /    A nd           | Web:      www.OpenFOAM.com                      |
|    \\/     M anipulation  |                                                 |
\*---------------------------------------------------------------------------*/
FoamFile
{
    version     2.0;
    format      ascii;
    class       volScalarField;
    location    "950";
    object      p;
}
// * * * * * * * * * * * * * * * * * * * * * * * * * * * * * * * * * * * * * //

dimensions      [0 2 -2 0 0 0 0];


internalField   nonuniform List<scalar> 
42616
(
0.00358591
0.00358572
0.00358572
0.00358851
0.00353237
0.00353251
0.00353251
0.00353471
0.0034811
0.00348113
0.00348113
0.00348344
0.0034292
0.00342916
0.00342916
0.00343144
0.00337812
0.00337807
0.00337807
0.0033803
0.00332841
0.00332837
0.00332837
0.00333056
0.00328014
0.0032801
0.0032801
0.00328226
0.00323315
0.00323313
0.00323313
0.00323526
0.00318726
0.00318725
0.00318725
0.00318934
0.00314226
0.00314226
0.00314226
0.00314433
0.00309798
0.00309799
0.00309799
0.00310004
0.0030543
0.00305432
0.00305432
0.00305634
0.00301114
0.00301115
0.00301115
0.00301314
0.00296843
0.00296844
0.00296844
0.00297042
0.00292616
0.00292617
0.00292617
0.00292813
0.00288429
0.0028843
0.0028843
0.00288625
0.0028428
0.00284281
0.00284281
0.00284474
0.00280167
0.00280168
0.00280168
0.00280359
0.00276087
0.00276088
0.00276087
0.00276278
0.00272038
0.00272038
0.00272038
0.00272227
0.00268018
0.00268018
0.00268018
0.00268206
0.00359929
0.00359948
0.00359948
0.00359928
0.00359949
0.00359948
0.00360022
0.00360022
0.00360022
0.00360022
0.00359948
0.00359948
0.00359928
0.00359948
0.00359948
0.00359928
0.00358851
0.00354238
0.00358572
0.00358572
0.00354488
0.00354488
0.00358851
0.00354238
0.00358572
0.00358572
0.00354488
0.00354488
0.00358572
0.00354488
0.00354488
0.00358851
0.00354238
0.00358572
0.00354488
0.00354488
0.00354238
0.00353471
0.00349147
0.00353251
0.00353251
0.00349413
0.00349413
0.00353471
0.00349147
0.00353251
0.00353251
0.00349413
0.00349413
0.00353251
0.00349413
0.00349413
0.00353471
0.00349147
0.0035325
0.00349413
0.00349413
0.00349147
0.00348344
0.00343943
0.00348113
0.00348113
0.00344211
0.00344211
0.00348344
0.00343943
0.00348113
0.00348113
0.00344211
0.00344211
0.00348113
0.00344211
0.00344211
0.00348344
0.00343943
0.00348113
0.00344211
0.00344211
0.00343943
0.00343144
0.00338811
0.00342916
0.00342916
0.00339072
0.00339072
0.00343144
0.00338811
0.00342916
0.00342916
0.00339072
0.00339072
0.00342916
0.00339072
0.00339072
0.00343144
0.0033881
0.00342916
0.00339072
0.00339072
0.00338811
0.0033803
0.00333814
0.00337807
0.00337807
0.00334065
0.00334066
0.0033803
0.00333814
0.00337807
0.00337807
0.00334066
0.00334065
0.00337807
0.00334065
0.00334065
0.0033803
0.00333814
0.00337807
0.00334066
0.00334066
0.00333814
0.00333056
0.00328963
0.00332837
0.00332837
0.00329204
0.00329204
0.00333056
0.00328963
0.00332837
0.00332837
0.00329204
0.00329204
0.00332837
0.00329204
0.00329204
0.00333056
0.00328963
0.00332837
0.00329204
0.00329204
0.00328963
0.00328226
0.00324244
0.0032801
0.0032801
0.00324477
0.00324477
0.00328226
0.00324244
0.00328011
0.0032801
0.00324477
0.00324477
0.0032801
0.00324477
0.00324477
0.00328226
0.00324244
0.0032801
0.00324477
0.00324477
0.00324244
0.00323526
0.00319637
0.00323313
0.00323313
0.00319863
0.00319863
0.00323526
0.00319637
0.00323313
0.00323313
0.00319863
0.00319863
0.00323313
0.00319863
0.00319863
0.00323526
0.00319637
0.00323313
0.00319863
0.00319863
0.00319637
0.00318935
0.00315124
0.00318725
0.00318725
0.00315343
0.00315343
0.00318935
0.00315124
0.00318725
0.00318725
0.00315344
0.00315343
0.00318725
0.00315344
0.00315344
0.00318935
0.00315124
0.00318725
0.00315344
0.00315344
0.00315124
0.00314433
0.00310685
0.00314226
0.00314226
0.003109
0.003109
0.00314433
0.00310685
0.00314226
0.00314226
0.003109
0.003109
0.00314226
0.003109
0.003109
0.00314433
0.00310685
0.00314226
0.003109
0.003109
0.00310685
0.00310004
0.00306307
0.00309799
0.00309799
0.00306518
0.00306518
0.00310004
0.00306306
0.00309799
0.00309799
0.00306518
0.00306518
0.00309799
0.00306518
0.00306518
0.00310004
0.00306306
0.00309799
0.00306518
0.00306518
0.00306306
0.00305634
0.0030198
0.00305431
0.00305431
0.00302189
0.00302189
0.00305633
0.00301979
0.00305432
0.00305431
0.0030219
0.00302189
0.00305432
0.0030219
0.0030219
0.00305634
0.0030198
0.00305432
0.0030219
0.0030219
0.00301979
0.00301315
0.00297701
0.00301115
0.00301115
0.00297908
0.00297908
0.00301314
0.00297701
0.00301115
0.00301115
0.00297908
0.00297908
0.00301115
0.00297908
0.00297908
0.00301315
0.00297701
0.00301115
0.00297908
0.00297908
0.00297701
0.00297042
0.00293467
0.00296844
0.00296844
0.0029367
0.0029367
0.00297042
0.00293467
0.00296844
0.00296844
0.0029367
0.0029367
0.00296844
0.0029367
0.0029367
0.00297042
0.00293467
0.00296844
0.0029367
0.0029367
0.00293467
0.00292813
0.00289274
0.00292617
0.00292617
0.00289473
0.00289473
0.00292813
0.00289274
0.00292617
0.00292617
0.00289473
0.00289473
0.00292617
0.00289473
0.00289473
0.00292813
0.00289274
0.00292617
0.00289473
0.00289473
0.00289274
0.00288625
0.0028512
0.0028843
0.0028843
0.00285315
0.00285315
0.00288625
0.0028512
0.0028843
0.0028843
0.00285315
0.00285315
0.0028843
0.00285315
0.00285315
0.00288625
0.0028512
0.0028843
0.00285315
0.00285315
0.0028512
0.00284474
0.00281001
0.00284281
0.00284281
0.00281193
0.00281193
0.00284474
0.00281001
0.00284281
0.00284281
0.00281193
0.00281193
0.00284281
0.00281193
0.00281193
0.00284474
0.00281001
0.00284281
0.00281193
0.00281193
0.00281001
0.00280359
0.00276916
0.00280168
0.00280168
0.00277105
0.00277105
0.00280359
0.00276916
0.00280168
0.00280168
0.00277105
0.00277104
0.00280168
0.00277105
0.00277105
0.00280359
0.00276916
0.00280168
0.00277104
0.00277105
0.00276916
0.00276278
0.00272862
0.00276088
0.00276088
0.00273048
0.00273048
0.00276278
0.00272862
0.00276088
0.00276087
0.00273048
0.00273048
0.00276087
0.00273048
0.00273048
0.00276278
0.00272862
0.00276087
0.00273048
0.00273048
0.00272862
0.00272227
0.00268838
0.00272038
0.00272038
0.0026902
0.00269021
0.00272227
0.00268838
0.00272038
0.00272038
0.0026902
0.0026902
0.00272038
0.00269021
0.00269021
0.00272227
0.00268838
0.00272038
0.00269021
0.00269021
0.00268838
0.00268206
0.00268018
0.00268018
0.00268206
0.00268018
0.00268018
0.00268018
0.00268206
0.00268018
0.00360843
0.00361838
0.00361301
0.00361301
0.00363549
0.00362238
0.00365082
0.0036163
0.00363549
0.00362239
0.00361631
0.00365083
0.00362687
0.00365487
0.00365483
0.0035674
0.00356748
0.00358578
0.0035657
0.00354554
0.00356467
0.0035674
0.00356743
0.00358576
0.00356569
0.0035859
0.00358591
0.00358591
0.00354476
0.00354476
0.00354476
0.00354476
0.00356607
0.00358289
0.00358598
0.00357022
0.00358814
0.00356703
0.00357086
0.00354569
0.00356472
0.00356607
0.00358598
0.0035829
0.00357023
0.00358813
0.00357086
0.00356702
0.00357941
0.00357937
0.00356707
0.00356737
0.00356737
0.00351774
0.00353559
0.00353661
0.00351683
0.00353496
0.00351636
0.00351773
0.00353558
0.00353661
0.00351683
0.00353237
0.00353237
0.00353237
0.00349407
0.00349407
0.00349407
0.00349407
0.00351683
0.00353608
0.00353244
0.00351989
0.00353538
0.0035173
0.00351983
0.00353497
0.00351636
0.00351683
0.00353244
0.00353608
0.00351989
0.00353537
0.00351983
0.0035173
0.00353636
0.00353636
0.00351726
0.00351743
0.00351743
0.00346547
0.00348407
0.00348491
0.0034647
0.00348377
0.00346446
0.00346547
0.00348407
0.00348491
0.0034647
0.0034811
0.0034811
0.0034811
0.00344213
0.00344213
0.00344213
0.00344213
0.00346495
0.00348444
0.0034811
0.00346811
0.00348415
0.00346512
0.0034681
0.00348377
0.00346446
0.00346495
0.0034811
0.00348444
0.00346811
0.00348415
0.0034681
0.00346512
0.00348452
0.00348452
0.00346544
0.00346507
0.00346507
0.00341336
0.00343185
0.00343254
0.00341275
0.00343168
0.0034126
0.00341336
0.00343185
0.00343254
0.00341275
0.0034292
0.0034292
0.0034292
0.00339077
0.00339077
0.00339077
0.00339077
0.00341309
0.00343216
0.00342917
0.00341627
0.00343206
0.00341313
0.00341628
0.00343168
0.00341259
0.00341308
0.00342917
0.00343216
0.00341627
0.00343206
0.00341628
0.00341313
0.00343215
0.00343215
0.00341362
0.00341301
0.00341301
0.00336249
0.00338063
0.00338113
0.00336205
0.00338051
0.00336192
0.00336249
0.00338063
0.00338113
0.00336205
0.00337812
0.00337812
0.00337812
0.0033407
0.0033407
0.0033407
0.0033407
0.00336237
0.00338087
0.00337808
0.00336551
0.00338083
0.00336238
0.00336551
0.00338051
0.00336192
0.00336237
0.00337808
0.00338087
0.00336551
0.00338083
0.00336551
0.00336238
0.00338085
0.00338085
0.00336294
0.00336225
0.00336225
0.00331314
0.00333085
0.0033312
0.00331283
0.00333077
0.00331271
0.00331314
0.00333085
0.0033312
0.00331283
0.00332841
0.00332841
0.00332841
0.00329208
0.00329208
0.00329208
0.00329208
0.00331313
0.00333103
0.00332837
0.00331617
0.00333102
0.00331312
0.00331617
0.00333076
0.00331272
0.00331313
0.00332837
0.00333103
0.00331617
0.00333102
0.00331617
0.00331312
0.00333104
0.00333104
0.00331371
0.00331301
0.00331301
0.00326525
0.00328254
0.00328278
0.00326503
0.00328246
0.00326492
0.00326525
0.00328254
0.00328278
0.00326503
0.00328014
0.00328014
0.00328014
0.00324479
0.00324479
0.00324479
0.00324479
0.0032653
0.00328268
0.00328009
0.00326825
0.00328267
0.0032653
0.00326824
0.00328246
0.00326493
0.0032653
0.00328009
0.00328268
0.00326825
0.00328267
0.00326824
0.0032653
0.00328271
0.00328271
0.00326588
0.00326519
0.00326519
0.00321862
0.00323553
0.0032357
0.00321846
0.00323545
0.00321835
0.00321862
0.00323553
0.00323571
0.00321846
0.00323315
0.00323315
0.00323315
0.00319864
0.00319864
0.00319864
0.00319864
0.00321872
0.00323564
0.00323312
0.00322157
0.00323563
0.00321871
0.00322155
0.00323545
0.00321835
0.00321872
0.00323312
0.00323564
0.00322157
0.00323563
0.00322155
0.00321871
0.00323568
0.00323568
0.00321928
0.0032186
0.0032186
0.00317304
0.00318962
0.00318975
0.0031729
0.00318955
0.0031728
0.00317304
0.00318962
0.00318975
0.0031729
0.00318726
0.00318726
0.00318726
0.00315343
0.00315344
0.00315344
0.00315344
0.00317317
0.00318971
0.00318723
0.00317593
0.00318971
0.00317316
0.00317591
0.00318954
0.0031728
0.00317317
0.00318723
0.00318971
0.00317593
0.0031897
0.00317591
0.00317316
0.00318975
0.00318975
0.0031737
0.00317304
0.00317304
0.00312829
0.00314461
0.00314472
0.00312818
0.00314454
0.00312808
0.00312829
0.0031446
0.00314471
0.00312818
0.00314226
0.00314226
0.00314226
0.00310899
0.00310899
0.00310899
0.00310899
0.00312844
0.00314469
0.00314224
0.00313113
0.00314468
0.00312843
0.00313111
0.00314454
0.00312808
0.00312844
0.00314224
0.00314469
0.00313113
0.00314468
0.00313111
0.00312843
0.00314473
0.00314473
0.00312896
0.0031283
0.0031283
0.00308423
0.00310031
0.00310041
0.00308411
0.00310024
0.00308402
0.00308423
0.00310031
0.00310041
0.00308411
0.00309798
0.00309798
0.00309798
0.00306517
0.00306517
0.00306517
0.00306517
0.0030844
0.00310038
0.00309797
0.00308702
0.00310038
0.00308437
0.003087
0.00310024
0.00308402
0.0030844
0.00309797
0.00310038
0.00308702
0.00310038
0.003087
0.00308437
0.00310042
0.00310042
0.00308488
0.00308423
0.00308423
0.00304073
0.00305661
0.00305671
0.00304061
0.00305655
0.00304052
0.00304073
0.00305661
0.00305671
0.00304061
0.0030543
0.0030543
0.00305431
0.00302188
0.00302188
0.00302188
0.00302188
0.00304092
0.00305667
0.00305429
0.00304348
0.00305669
0.00304087
0.00304346
0.00305655
0.00304052
0.00304092
0.00305429
0.00305667
0.00304348
0.00305669
0.00304346
0.00304087
0.00305671
0.00305671
0.00304137
0.00304072
0.00304072
0.00299772
0.00301342
0.00301352
0.0029976
0.00301337
0.00299752
0.00299772
0.00301343
0.00301352
0.0029976
0.00301114
0.00301114
0.00301114
0.00297907
0.00297907
0.00297907
0.00297907
0.00299793
0.00301348
0.00301113
0.00300043
0.0030135
0.00299785
0.00300042
0.00301337
0.00299752
0.00299793
0.00301113
0.00301348
0.00300043
0.00301351
0.00300042
0.00299785
0.00301351
0.00301351
0.00299834
0.00299769
0.00299769
0.00295516
0.0029707
0.0029708
0.00295503
0.00297064
0.00295496
0.00295516
0.0029707
0.0029708
0.00295503
0.00296843
0.00296843
0.00296843
0.00293669
0.00293669
0.00293669
0.00293669
0.00295539
0.00297075
0.00296843
0.00295784
0.00297079
0.00295529
0.00295783
0.00297065
0.00295496
0.00295539
0.00296843
0.00297075
0.00295784
0.00297079
0.00295783
0.00295529
0.00297078
0.00297078
0.00295579
0.00295512
0.00295512
0.00291302
0.0029284
0.00292851
0.00291289
0.00292836
0.00291283
0.00291302
0.0029284
0.00292851
0.00291289
0.00292616
0.00292616
0.00292616
0.00289472
0.00289472
0.00289472
0.00289472
0.00291327
0.00292844
0.00292616
0.00291567
0.0029285
0.00291314
0.00291566
0.00292836
0.00291282
0.00291327
0.00292616
0.00292844
0.00291567
0.0029285
0.00291566
0.00291314
0.00292847
0.00292847
0.00291366
0.00291297
0.00291297
0.00287127
0.00288651
0.00288662
0.00287114
0.00288647
0.00287108
0.00287127
0.00288651
0.00288662
0.00287114
0.00288429
0.00288429
0.00288429
0.00285314
0.00285314
0.00285314
0.00285314
0.00287154
0.00288655
0.0028843
0.00287389
0.00288662
0.00287139
0.00287389
0.00288647
0.00287108
0.00287154
0.0028843
0.00288655
0.00287389
0.00288662
0.00287389
0.00287139
0.00288657
0.00288658
0.00287192
0.00287121
0.00287121
0.0028299
0.00284501
0.00284511
0.00282977
0.00284497
0.00282972
0.0028299
0.00284501
0.00284511
0.00282977
0.0028428
0.0028428
0.0028428
0.00281192
0.00281192
0.00281192
0.00281192
0.00283018
0.00284503
0.00284281
0.00283249
0.00284511
0.00283001
0.00283249
0.00284497
0.00282972
0.00283018
0.00284281
0.00284503
0.00283249
0.00284511
0.00283249
0.00283001
0.00284506
0.00284506
0.00283056
0.00282983
0.00282983
0.00278888
0.00280387
0.00280397
0.00278876
0.00280383
0.0027887
0.00278888
0.00280387
0.00280397
0.00278876
0.00280167
0.00280167
0.00280167
0.00277104
0.00277104
0.00277104
0.00277104
0.00278917
0.00280389
0.00280168
0.00279145
0.00280397
0.00278899
0.00279145
0.00280384
0.0027887
0.00278917
0.00280168
0.00280389
0.00279144
0.00280397
0.00279145
0.00278899
0.00280391
0.00280391
0.00278954
0.00278881
0.00278881
0.00274818
0.00276307
0.00276316
0.00274806
0.00276303
0.00274802
0.00274818
0.00276306
0.00276316
0.00274806
0.00276087
0.00276087
0.00276087
0.00273047
0.00273047
0.00273047
0.00273047
0.00274848
0.00276307
0.00276088
0.00275072
0.00276316
0.00274828
0.00275073
0.00276303
0.00274802
0.00274848
0.00276088
0.00276308
0.00275072
0.00276316
0.00275073
0.00274829
0.0027631
0.0027631
0.00274885
0.00274811
0.00274811
0.00270779
0.00272257
0.00272266
0.00270767
0.00272254
0.00270765
0.00270779
0.00272257
0.00272266
0.00270767
0.00272038
0.00272038
0.00272038
0.0026902
0.0026902
0.0026902
0.0026902
0.00270809
0.00272257
0.00272039
0.00271031
0.00272265
0.00270789
0.00271031
0.00272254
0.00270763
0.00270809
0.00272039
0.00272257
0.00271031
0.00272265
0.00271031
0.00270788
0.0027226
0.0027226
0.00270846
0.00270771
0.00270771
0.00266767
0.00268236
0.00268244
0.00266755
0.00268232
0.00266752
0.00268236
0.00268244
0.00266756
0.00268018
0.00268018
0.00268018
0.00266797
0.00268235
0.00268018
0.00267017
0.00268243
0.00266776
0.00267017
0.00268233
0.00266797
0.00268018
0.00268235
0.00268243
0.00267017
0.00268239
0.00268239
0.00266835
0.0026676
0.0026676
0.00362685
0.0036548
0.00365483
0.00360897
0.00365442
0.00360889
0.00365441
0.0036235
0.00360776
0.00360778
0.003649
0.00364899
0.00363548
0.00362237
0.00365075
0.0036163
0.00363549
0.00362238
0.00365079
0.0036163
0.00363927
0.00360328
0.00365114
0.003601
0.00363927
0.00360325
0.00365119
0.00360099
0.00363088
0.00361953
0.00360291
0.00360155
0.00364531
0.0036144
0.0036011
0.00363089
0.00361953
0.0036029
0.00360155
0.00364535
0.0036144
0.00360109
0.00362686
0.00365484
0.00365487
0.00360889
0.00365445
0.00362351
0.00360775
0.00360778
0.00364904
0.00364905
0.00360895
0.00365449
0.0036355
0.00362237
0.00365077
0.0036163
0.0036355
0.00362238
0.00361631
0.00365078
0.00363929
0.00360325
0.00365117
0.00360101
0.0036309
0.00361953
0.00360289
0.00360155
0.00364532
0.00361441
0.0036011
0.00363929
0.0036033
0.00365118
0.003601
0.00363089
0.00361954
0.00360155
0.00360291
0.00361441
0.00364535
0.00360111
0.00360843
0.00361839
0.00361301
0.00361301
0.00360843
0.00361839
0.00361301
0.00361301
0.00360843
0.00361839
0.00361301
0.00361301
0.00360712
0.00361602
0.0035986
0.0035986
0.00361135
0.00361136
0.00359697
0.00360712
0.00361602
0.0035986
0.0035986
0.00361135
0.00361135
0.00359697
0.00360712
0.00361602
0.0035986
0.0035986
0.00361136
0.00361136
0.00359697
0.00360712
0.00361602
0.0035986
0.0035986
0.00361135
0.00361136
0.00359697
0.00363549
0.00362238
0.0036163
0.0036508
0.00363089
0.00361953
0.00360291
0.00360155
0.00364538
0.00361441
0.00360109
0.00363926
0.00360329
0.00365122
0.00360098
0.00363089
0.00361954
0.00360155
0.0036029
0.00361441
0.00364537
0.00360109
0.00363926
0.00360328
0.00365121
0.00360098
0.00362688
0.00365485
0.00365488
0.00360894
0.00365445
0.00362352
0.0036078
0.00360779
0.00364906
0.00364908
0.00360886
0.00365452
0.00363549
0.00362238
0.00361631
0.00365078
0.00363089
0.00361954
0.00360155
0.00360288
0.00361441
0.00364539
0.00360109
0.00363089
0.00361954
0.00360155
0.00360291
0.00361441
0.00364535
0.00360109
0.00363927
0.00360327
0.00365125
0.00360097
0.00363927
0.00360329
0.00365119
0.00360098
0.00362351
0.00360782
0.0036078
0.00364908
0.00364904
0.00360898
0.0036545
0.00360898
0.00365446
0.00354554
0.00356464
0.00354561
0.00356463
0.00357933
0.00357936
0.00356709
0.00356738
0.00356738
0.00354137
0.00355788
0.00354136
0.00355794
0.00355951
0.00354288
0.00354287
0.00356054
0.00356055
0.0035674
0.00356749
0.00358578
0.00356571
0.00356608
0.00358289
0.00358598
0.00357022
0.00358815
0.00356702
0.00357087
0.00356608
0.00358289
0.00358598
0.00357022
0.00358815
0.00356703
0.00357087
0.00356102
0.00354205
0.00355902
0.00354308
0.00356102
0.00354205
0.00355902
0.00354308
0.00355967
0.00355722
0.00354261
0.00354486
0.00356032
0.0035574
0.00354189
0.00355967
0.00355722
0.00354261
0.00354486
0.00356032
0.0035574
0.00354189
0.00357934
0.00357936
0.0035671
0.00356737
0.00356739
0.00354565
0.00356467
0.00354136
0.0035579
0.00355951
0.00354288
0.00354288
0.00356053
0.00356054
0.00354138
0.00355792
0.00356607
0.0035829
0.00358598
0.00357023
0.00358814
0.00356702
0.00357087
0.00356741
0.00356751
0.00358576
0.00356573
0.00356608
0.00358599
0.00358291
0.00357022
0.00358814
0.00357087
0.00356704
0.00356102
0.00354204
0.00355904
0.00354308
0.00355966
0.00355722
0.00354261
0.00354485
0.00356032
0.0035574
0.00354188
0.00356101
0.00354205
0.00355904
0.00354309
0.00355967
0.00355722
0.00354486
0.00354261
0.0035574
0.00356032
0.00354188
0.00356739
0.00356747
0.00358575
0.00356572
0.00356607
0.00358598
0.0035829
0.00357022
0.00358814
0.00357086
0.00356702
0.00356739
0.00356751
0.00358575
0.0035657
0.00355966
0.00355722
0.00354262
0.00354485
0.00356032
0.0035574
0.00354189
0.00356101
0.00354206
0.00355902
0.00354308
0.00355966
0.00355722
0.00354485
0.00354262
0.0035574
0.00356032
0.00354189
0.00356101
0.00354206
0.00355901
0.00354308
0.00357941
0.00357939
0.00356708
0.00356739
0.00356737
0.00354564
0.00356462
0.00354137
0.00355794
0.00355951
0.00354287
0.00354287
0.00356055
0.00356054
0.00354135
0.00355788
0.00356607
0.00358598
0.00358289
0.00357022
0.00358813
0.00357086
0.00356702
0.0035674
0.00356744
0.00358574
0.00356569
0.0035674
0.0035675
0.00358574
0.00356571
0.00355966
0.00355722
0.00354485
0.00354261
0.0035574
0.00356032
0.00354188
0.00355966
0.00355722
0.00354485
0.00354261
0.0035574
0.00356031
0.00354188
0.00356101
0.00354204
0.00355903
0.00354308
0.003561
0.00354204
0.00355901
0.00354308
0.00354572
0.00356464
0.00354567
0.00356464
0.00355951
0.00354288
0.00354287
0.00356054
0.00356054
0.00354137
0.00355788
0.00354135
0.0035579
0.00353497
0.00351636
0.00353495
0.00351636
0.00353636
0.00353636
0.00351726
0.00351743
0.00351743
0.00349054
0.0035097
0.00349054
0.0035097
0.00350934
0.00349133
0.00349133
0.0035107
0.0035107
0.00351774
0.00353559
0.00353661
0.00351683
0.00351683
0.00353608
0.00353244
0.00351989
0.00353538
0.0035173
0.00351983
0.00351683
0.00353608
0.00353244
0.00351989
0.00353538
0.0035173
0.00351983
0.00351103
0.00349087
0.00351012
0.00349171
0.00351104
0.00349087
0.00351012
0.00349171
0.00351007
0.00350707
0.00349131
0.00349409
0.00351053
0.00350702
0.00349102
0.00351007
0.00350707
0.00349131
0.00349409
0.00351053
0.00350702
0.00349102
0.00353636
0.00353637
0.00351726
0.00351743
0.00351743
0.00353498
0.00351636
0.00349054
0.0035097
0.00350934
0.00349133
0.00349133
0.0035107
0.00351069
0.00349054
0.0035097
0.00351683
0.00353607
0.00353244
0.00351989
0.00353537
0.0035173
0.00351983
0.00351773
0.00353559
0.00353661
0.00351683
0.00351683
0.00353244
0.00353607
0.00351989
0.00353538
0.00351983
0.0035173
0.00351103
0.00349087
0.00351012
0.00349171
0.00351007
0.00350707
0.00349131
0.00349409
0.00351053
0.00350702
0.00349102
0.00351103
0.00349086
0.00351012
0.00349171
0.00351007
0.00350707
0.00349409
0.00349131
0.00350702
0.00351053
0.00349102
0.00351773
0.0035356
0.00353661
0.00351683
0.00351683
0.00353244
0.00353607
0.00351989
0.00353538
0.00351983
0.0035173
0.00351774
0.00353559
0.00353661
0.00351683
0.00351007
0.00350707
0.00349131
0.00349409
0.00351053
0.00350702
0.00349102
0.00351103
0.00349086
0.00351012
0.00349171
0.00351007
0.00350707
0.00349409
0.00349131
0.00350702
0.00351053
0.00349102
0.00351103
0.00349086
0.00351012
0.00349171
0.00353636
0.00353636
0.00351726
0.00351742
0.00351743
0.00353496
0.00351636
0.00349054
0.0035097
0.00350934
0.00349133
0.00349133
0.00351069
0.00351069
0.00349054
0.0035097
0.00351683
0.00353244
0.00353607
0.00351989
0.00353537
0.00351983
0.0035173
0.00351774
0.00353559
0.00353662
0.00351683
0.00351774
0.00353559
0.00353662
0.00351683
0.00351007
0.00350707
0.00349409
0.00349131
0.00350702
0.00351053
0.00349102
0.00351007
0.00350707
0.00349409
0.00349131
0.00350702
0.00351053
0.00349102
0.00351103
0.00349086
0.00351012
0.00349171
0.00351103
0.00349087
0.00351012
0.00349171
0.00353495
0.00351636
0.00353496
0.00351636
0.00350934
0.00349133
0.00349133
0.0035107
0.0035107
0.00349054
0.0035097
0.00349054
0.0035097
0.00348377
0.00346446
0.00348377
0.00346446
0.00348451
0.00348452
0.00346544
0.00346507
0.00346507
0.00343842
0.00345768
0.00343842
0.00345768
0.0034574
0.00343891
0.00343891
0.00345826
0.00345826
0.00346547
0.00348407
0.00348491
0.0034647
0.00346495
0.00348444
0.0034811
0.00346811
0.00348415
0.00346512
0.0034681
0.00346495
0.00348444
0.0034811
0.00346812
0.00348415
0.00346512
0.0034681
0.00345866
0.00343861
0.0034579
0.0034393
0.00345866
0.00343861
0.00345789
0.0034393
0.00345806
0.0034551
0.00343901
0.00344211
0.00345824
0.00345509
0.00343892
0.00345806
0.0034551
0.00343901
0.00344211
0.00345824
0.00345509
0.00343892
0.00348451
0.00348451
0.00346543
0.00346507
0.00346507
0.00348377
0.00346446
0.00343842
0.00345768
0.00345739
0.00343891
0.00343891
0.00345826
0.00345826
0.00343842
0.00345768
0.00346495
0.00348444
0.0034811
0.00346811
0.00348415
0.00346512
0.0034681
0.00346547
0.00348407
0.00348491
0.0034647
0.00346495
0.0034811
0.00348444
0.00346811
0.00348415
0.0034681
0.00346512
0.00345867
0.00343861
0.0034579
0.0034393
0.00345806
0.0034551
0.00343901
0.00344211
0.00345824
0.00345509
0.00343892
0.00345866
0.00343861
0.0034579
0.0034393
0.00345806
0.0034551
0.00344211
0.00343901
0.00345509
0.00345824
0.00343892
0.00346547
0.00348407
0.00348491
0.0034647
0.00346495
0.0034811
0.00348444
0.00346812
0.00348415
0.0034681
0.00346512
0.00346547
0.00348407
0.00348491
0.0034647
0.00345806
0.0034551
0.00343901
0.00344211
0.00345824
0.00345509
0.00343892
0.00345867
0.00343861
0.0034579
0.0034393
0.00345806
0.0034551
0.00344211
0.00343901
0.00345509
0.00345824
0.00343892
0.00345867
0.00343861
0.0034579
0.0034393
0.00348451
0.00348451
0.00346543
0.00346507
0.00346507
0.00348377
0.00346446
0.00343842
0.00345768
0.00345739
0.00343891
0.00343891
0.00345826
0.00345826
0.00343842
0.00345768
0.00346495
0.0034811
0.00348444
0.00346811
0.00348415
0.0034681
0.00346512
0.00346547
0.00348407
0.00348491
0.0034647
0.00346547
0.00348407
0.00348491
0.0034647
0.00345806
0.0034551
0.00344211
0.00343901
0.00345509
0.00345824
0.00343892
0.00345806
0.0034551
0.00344211
0.00343901
0.00345509
0.00345824
0.00343892
0.00345866
0.00343861
0.00345789
0.0034393
0.00345866
0.00343861
0.0034579
0.0034393
0.00348377
0.00346446
0.00348377
0.00346446
0.0034574
0.00343891
0.00343891
0.00345826
0.00345826
0.00343842
0.00345768
0.00343842
0.00345768
0.00343168
0.0034126
0.00343168
0.0034126
0.00343215
0.00343215
0.00341362
0.00341301
0.00341301
0.00338708
0.00340593
0.00338708
0.00340593
0.00340571
0.00338745
0.00338745
0.00340633
0.00340633
0.00341336
0.00343185
0.00343254
0.00341275
0.00341309
0.00343216
0.00342917
0.00341627
0.00343206
0.00341313
0.00341628
0.00341309
0.00343216
0.00342917
0.00341627
0.00343206
0.00341313
0.00341628
0.00340666
0.00338722
0.00340607
0.00338774
0.00340666
0.00338722
0.00340607
0.00338774
0.00340629
0.00340346
0.00338757
0.00339073
0.00340634
0.00340347
0.00338755
0.00340629
0.00340346
0.00338757
0.00339073
0.00340634
0.00340347
0.00338755
0.00343215
0.00343215
0.00341362
0.00341301
0.00341301
0.00343168
0.0034126
0.00338708
0.00340593
0.00340571
0.00338745
0.00338745
0.00340633
0.00340633
0.00338708
0.00340593
0.00341309
0.00343216
0.00342917
0.00341627
0.00343206
0.00341313
0.00341628
0.00341336
0.00343185
0.00343254
0.00341275
0.00341309
0.00342917
0.00343216
0.00341627
0.00343206
0.00341628
0.00341313
0.00340667
0.00338722
0.00340607
0.00338774
0.00340629
0.00340346
0.00338757
0.00339073
0.00340634
0.00340347
0.00338755
0.00340666
0.00338722
0.00340607
0.00338774
0.00340629
0.00340346
0.00339073
0.00338757
0.00340347
0.00340634
0.00338755
0.00341336
0.00343185
0.00343254
0.00341275
0.00341309
0.00342917
0.00343216
0.00341627
0.00343206
0.00341628
0.00341313
0.00341336
0.00343185
0.00343254
0.00341275
0.00340629
0.00340346
0.00338757
0.00339073
0.00340635
0.00340347
0.00338755
0.00340667
0.00338722
0.00340607
0.00338774
0.00340629
0.00340346
0.00339073
0.00338757
0.00340347
0.00340634
0.00338755
0.00340666
0.00338722
0.00340607
0.00338774
0.00343215
0.00343215
0.00341362
0.00341301
0.00341301
0.00343169
0.00341259
0.00338708
0.00340593
0.00340571
0.00338745
0.00338745
0.00340633
0.00340633
0.00338708
0.00340593
0.00341308
0.00342917
0.00343216
0.00341627
0.00343206
0.00341628
0.00341313
0.00341336
0.00343185
0.00343253
0.00341275
0.00341336
0.00343185
0.00343253
0.00341275
0.00340629
0.00340346
0.00339073
0.00338757
0.00340347
0.00340634
0.00338755
0.00340629
0.00340346
0.00339073
0.00338757
0.00340347
0.00340634
0.00338755
0.00340666
0.00338722
0.00340607
0.00338774
0.00340666
0.00338722
0.00340607
0.00338774
0.00343168
0.0034126
0.00343168
0.0034126
0.00340571
0.00338745
0.00338745
0.00340633
0.00340633
0.00338708
0.00340593
0.00338708
0.00340594
0.00338051
0.00336192
0.00338051
0.00336192
0.00338085
0.00338085
0.00336294
0.00336225
0.00336225
0.00333714
0.00335545
0.00333714
0.00335545
0.00335525
0.00333745
0.00333744
0.00335576
0.00335576
0.00336249
0.00338063
0.00338113
0.00336205
0.00336237
0.00338087
0.00337808
0.00336551
0.00338083
0.00336238
0.00336551
0.00336237
0.00338087
0.00337808
0.00336551
0.00338083
0.00336238
0.00336551
0.00335597
0.00333726
0.00335555
0.00333762
0.00335597
0.00333726
0.00335555
0.00333762
0.00335574
0.00335303
0.00333756
0.00334066
0.00335576
0.00335304
0.00333757
0.00335574
0.00335303
0.00333757
0.00334066
0.00335576
0.00335304
0.00333757
0.00338086
0.00338085
0.00336294
0.00336225
0.00336225
0.00338051
0.00336192
0.00333714
0.00335544
0.00335525
0.00333745
0.00333745
0.00335575
0.00335575
0.00333714
0.00335545
0.00336237
0.00338087
0.00337808
0.00336551
0.00338083
0.00336238
0.00336551
0.00336249
0.00338063
0.00338113
0.00336205
0.00336237
0.00337808
0.00338087
0.00336551
0.00338083
0.00336551
0.00336238
0.00335597
0.00333725
0.00335555
0.00333762
0.00335574
0.00335303
0.00333756
0.00334066
0.00335576
0.00335304
0.00333756
0.00335597
0.00333726
0.00335555
0.00333762
0.00335574
0.00335303
0.00334066
0.00333756
0.00335304
0.00335576
0.00333756
0.00336249
0.00338063
0.00338113
0.00336205
0.00336237
0.00337808
0.00338087
0.00336551
0.00338083
0.00336551
0.00336238
0.00336249
0.00338063
0.00338113
0.00336205
0.00335574
0.00335303
0.00333756
0.00334066
0.00335576
0.00335304
0.00333756
0.00335597
0.00333725
0.00335555
0.00333762
0.00335574
0.00335303
0.00334066
0.00333756
0.00335304
0.00335576
0.00333756
0.00335597
0.00333726
0.00335555
0.00333762
0.00338085
0.00338085
0.00336294
0.00336225
0.00336225
0.00338051
0.00336192
0.00333714
0.00335545
0.00335525
0.00333745
0.00333744
0.00335575
0.00335576
0.00333714
0.00335545
0.00336237
0.00337808
0.00338087
0.00336551
0.00338083
0.00336551
0.00336238
0.00336249
0.00338063
0.00338113
0.00336205
0.00336249
0.00338063
0.00338113
0.00336205
0.00335574
0.00335303
0.00334066
0.00333756
0.00335304
0.00335576
0.00333757
0.00335574
0.00335303
0.00334066
0.00333756
0.00335304
0.00335576
0.00333757
0.00335597
0.00333725
0.00335555
0.00333762
0.00335597
0.00333726
0.00335555
0.00333762
0.00338051
0.00336192
0.00338051
0.00336192
0.00335525
0.00333745
0.00333745
0.00335576
0.00335576
0.00333714
0.00335545
0.00333714
0.00335545
0.00333076
0.00331272
0.00333076
0.00331272
0.00333104
0.00333104
0.00331371
0.00331301
0.00331301
0.00328866
0.00330643
0.00328866
0.00330643
0.00330624
0.00328894
0.00328893
0.0033067
0.0033067
0.00331314
0.00333086
0.0033312
0.00331283
0.00331313
0.00333104
0.00332837
0.00331617
0.00333102
0.00331313
0.00331617
0.00331313
0.00333104
0.00332837
0.00331617
0.00333102
0.00331312
0.00331617
0.00330681
0.00328877
0.00330652
0.00328903
0.00330681
0.00328876
0.00330652
0.00328902
0.00330667
0.00330406
0.00328905
0.00329203
0.00330668
0.00330406
0.00328905
0.00330667
0.00330406
0.00328904
0.00329203
0.00330668
0.00330406