/*--------------------------------*- C++ -*----------------------------------*\
| =========                 |                                                 |
| \\      /  F ield         | OpenFOAM: The Open Source CFD Toolbox           |
|  \\    /   O peration     | Version:  v1906                                 |
|   \\  /    A nd           | Web:      www.OpenFOAM.com                      |
|    \\/     M anipulation  |                                                 |
\*---------------------------------------------------------------------------*/
FoamFile
{
    version     2.0;
    format      ascii;
    class       surfaceScalarField;
    location    "950";
    object      phi;
}
// * * * * * * * * * * * * * * * * * * * * * * * * * * * * * * * * * * * * * //

dimensions      [0 3 -1 0 0 0 0];
oriented        oriented;


internalField   nonuniform List<scalar> 
123728
(
-0.00104218
-1.4631e-05
-1.45281e-05
9.38376e-06
9.21394e-06
0.00105274
-0.00026149
-5.68356e-06
1.45085e-05
6.88867e-06
0.00105925
-4.59271e-06
-1.5974e-06
-2.1207e-06
-2.49041e-06
-6.62401e-06
-7.11471e-06
-2.98577e-06
-0.000263332
-0.000259761
-0.000262856
-0.000261467
-5.6887e-06
1.45379e-05
6.97851e-06
0.00105904
-4.59802e-06
-1.60778e-06
-2.12853e-06
-2.495e-06
-6.61819e-06
-7.11082e-06
-2.98802e-06
-0.000259733
-0.000263303
-0.00026282
-0.000260564
5.65935e-06
5.69939e-06
-4.95353e-06
-4.94735e-06
0.000259106
-1.65233e-06
-1.65332e-06
-0.00106079
9.3368e-07
9.3439e-07
0.00106223
-0.00106274
-1.6186e-06
1.64789e-06
8.30794e-07
0.00106394
-6.79934e-07
8.34851e-07
-9.90969e-08
4.2347e-07
-8.49993e-07
-1.4314e-06
-2.54613e-07
-0.00106242
-1.61349e-06
1.6592e-06
8.265e-07
0.00106362
-6.79956e-07
8.29444e-07
-9.9211e-08
4.20634e-07
-8.5271e-07
-1.43124e-06
-2.52364e-07
-0.000261565
1.65066e-06
1.61377e-06
-6.98306e-07
-7.01034e-07
0.0002597
-1.37516e-06
-1.37507e-06
-0.00106635
6.95726e-07
6.96683e-07
0.00106771
-0.00106788
-1.57245e-06
1.37994e-06
6.89798e-07
0.00106923
-6.5701e-07
8.78568e-07
-7.30812e-08
4.62292e-07
-8.36928e-07
-1.39839e-06
-2.21115e-07
-0.00106756
-1.56733e-06
1.37562e-06
6.95537e-07
0.0010689
-6.57124e-07
8.73107e-07
-7.31663e-08
4.61919e-07
-8.36945e-07
-1.39311e-06
-2.1875e-07
-0.000262802
1.6024e-06
1.56772e-06
-6.63887e-07
-6.71571e-07
0.000260967
-1.34955e-06
-1.35047e-06
-0.00107181
6.75306e-07
6.7606e-07
0.00107315
-0.00107323
-1.57208e-06
1.3503e-06
6.65434e-07
0.00107454
-6.53139e-07
9.01065e-07
-5.28339e-08
4.75795e-07
-8.28001e-07
-1.40428e-06
-1.94598e-07
-0.00107289
-1.56696e-06
1.35063e-06
6.66132e-07
0.0010742
-6.50667e-07
8.95474e-07
-5.50614e-08
4.75492e-07
-8.30625e-07
-1.4044e-06
-1.92271e-07
-0.000264079
1.59977e-06
1.56744e-06
-6.5594e-07
-6.61295e-07
0.000262229
-1.30267e-06
-1.30525e-06
-0.00107714
6.51552e-07
6.51859e-07
0.00107844
-0.00107839
-1.56369e-06
1.30424e-06
6.34634e-07
0.00107965
-6.3818e-07
9.25346e-07
-3.44081e-08
4.94735e-07
-8.09837e-07
-1.40354e-06
-1.6494e-07
-0.00107806
-1.55861e-06
1.30423e-06
6.35441e-07
0.00107931
-6.35785e-07
9.19697e-07
-3.66469e-08
4.94809e-07
-8.12332e-07
-1.40317e-06
-1.62527e-07
-0.000265298
1.59168e-06
1.55907e-06
-6.40273e-07
-6.45831e-07
0.000263433
-1.25245e-06
-1.25491e-06
-0.00108228
6.2688e-07
6.27275e-07
0.00108353
-0.00108332
-1.5549e-06
1.25322e-06
6.05512e-07
0.00108451
-6.23981e-07
9.47114e-07
-1.37268e-08
5.16417e-07
-7.8888e-07
-1.3967e-06
-1.36713e-07
-0.00108298
-1.54959e-06
1.25406e-06
6.06251e-07
0.00108417
-6.2139e-07
9.41661e-07
-1.65333e-08
5.16182e-07
-7.91576e-07
-1.39665e-06
-1.34498e-07
-0.000266442
1.58277e-06
1.5499e-06
-6.24167e-07
-6.29844e-07
0.000264564
-1.20645e-06
-1.20807e-06
-0.00108722
6.04841e-07
6.05489e-07
0.00108842
-0.001088
-1.54749e-06
1.2062e-06
5.82192e-07
0.00108913
-6.12092e-07
9.66411e-07
3.50165e-09
5.38094e-07
-7.69246e-07
-1.38833e-06
-1.11881e-07
-0.00108766
-1.54205e-06
1.20703e-06
5.82663e-07
0.00108879
-6.09343e-07
9.61039e-07
8.28853e-10
5.37801e-07
-7.71993e-07
-1.38839e-06
-1.09705e-07
-0.000267513
1.57538e-06
1.54231e-06
-6.10029e-07
-6.15789e-07
0.000265621
-1.16618e-06
-1.16746e-06
-0.00109197
5.86375e-07
5.8706e-07
0.00109313
-0.00109245
-1.54192e-06
1.16591e-06
5.63924e-07
0.00109353
-6.02849e-07
9.83537e-07
1.78272e-08
5.58794e-07
-7.52349e-07
-1.38042e-06
-9.07296e-08
-0.0010921
-1.53643e-06
1.16604e-06
5.64058e-07
0.00109318
-5.9998e-07
9.7816e-07
1.5221e-08
5.58715e-07
-7.54925e-07
-1.38029e-06
-8.84451e-08
-0.000268515
1.56987e-06
1.53672e-06
-5.98301e-07
-6.04028e-07
0.000266611
-1.13074e-06
-1.13294e-06
-0.00109655
5.70789e-07
5.71431e-07
0.00109767
-0.00109669
-1.53795e-06
1.13226e-06
5.49204e-07
0.00109772
-5.95958e-07
9.98724e-07
2.98218e-08
5.78516e-07
-7.38053e-07
-1.37337e-06
-7.28004e-08
-0.00109634
-1.53253e-06
1.13175e-06
5.49351e-07
0.00109737
-5.9316e-07
9.93234e-07
2.70855e-08
5.78711e-07
-7.40374e-07
-1.37296e-06
-7.03674e-08
-0.000269455
1.56619e-06
1.53295e-06
-5.88729e-07
-5.94429e-07
0.000267539
-1.10032e-06
-1.10237e-06
-0.00110098
5.57216e-07
5.58061e-07
0.00110207
-0.00110074
-1.53618e-06
1.10254e-06
5.36988e-07
0.00110172
-5.91743e-07
1.0118e-06
4.3867e-08
5.97322e-07
-7.25662e-07
-1.36696e-06
-5.76531e-08
-0.00110039
-1.53066e-06
1.1021e-06
5.37331e-07
0.00110138
-5.88885e-07
1.0064e-06
3.99998e-08
5.97672e-07
-7.27837e-07
-1.36638e-06
-5.51972e-08
-0.000270336
1.56432e-06
1.53096e-06
-5.81153e-07
-5.86758e-07
0.000268409
-1.07418e-06
-1.07549e-06
-0.00110528
5.45573e-07
5.46619e-07
0.00110634
-0.00110462
-1.53546e-06
1.07624e-06
5.28041e-07
0.00110556
-5.86053e-07
1.02399e-06
5.1792e-08
6.15311e-07
-7.13988e-07
-1.36069e-06
-4.46897e-08
-0.00110427
-1.52995e-06
1.07553e-06
5.28055e-07
0.00110522
-5.85995e-07
1.01854e-06
5.17687e-08
6.15603e-07
-7.16274e-07
-1.36016e-06
-4.23584e-08
-0.000271164
1.5637e-06
1.53023e-06
-5.74931e-07
-5.80601e-07
0.000269225
-1.05005e-06
-1.05122e-06
-0.00110947
5.3493e-07
5.35885e-07
0.0011105
-0.00110834
-1.53509e-06
1.05204e-06
5.19399e-07
0.00110925
-5.83598e-07
1.03573e-06
6.16367e-08
6.3225e-07
-7.023e-07
-1.35409e-06
-3.35887e-08
-0.00110799
-1.52962e-06
1.05123e-06
5.19601e-07
0.0011089
-5.83561e-07
1.0302e-06
6.15575e-08
6.3257e-07
-7.04606e-07
-1.35355e-06
-3.12171e-08
-0.000271939
1.56339e-06
1.5298e-06
-5.69272e-07
-5.74967e-07
0.00026999
-1.02646e-06
-1.02765e-06
-0.00111356
5.24382e-07
5.25027e-07
0.00111456
-0.00111192
-1.53476e-06
1.02831e-06
5.10017e-07
0.00111279
-5.80768e-07
1.04732e-06
7.04612e-08
6.47736e-07
-6.9049e-07
-1.34714e-06
-2.11562e-08
-0.00111157
-1.52939e-06
1.02749e-06
5.10279e-07
0.00111244
-5.80827e-07
1.04159e-06
7.02855e-08
6.47961e-07
-6.9286e-07
-1.34668e-06
-1.80787e-08
-0.000272662
1.56328e-06
1.52945e-06
-5.64054e-07
-5.69869e-07
0.000270703
-1.00396e-06
-1.00533e-06
-0.00111754
5.14415e-07
5.14773e-07
0.00111852
-0.00111534
-1.5347e-06
1.00551e-06
4.99734e-07
0.00111618
-5.76856e-07
1.05798e-06
7.90341e-08
6.62011e-07
-6.77692e-07
-1.33929e-06
-8.99106e-09
-0.00111499
-1.52929e-06
1.00502e-06
5.00261e-07
0.00111583
-5.76953e-07
1.0523e-06
7.88178e-08
6.62104e-07
-6.80214e-07
-1.33898e-06
-6.04901e-09
-0.000273332
1.5633e-06
1.52934e-06
-5.58606e-07
-5.64427e-07
0.000271363
-9.8201e-07
-9.83318e-07
-0.00112142
5.04473e-07
5.04754e-07
0.00112238
-0.00111862
-1.53426e-06
9.83186e-07
4.89019e-07
0.00111942
-5.71741e-07
1.06788e-06
8.74856e-08
6.75054e-07
-6.63838e-07
-1.33037e-06
2.27181e-09
-0.00111827
-1.52884e-06
9.83034e-07
4.89558e-07
0.00111906
-5.71801e-07
1.06225e-06
8.73187e-08
6.75036e-07
-6.66504e-07
-1.33021e-06
5.10444e-09
-0.000273948
1.56293e-06
1.52883e-06
-5.52048e-07
-5.57908e-07
0.000271966
-9.60254e-07
-9.61373e-07
-0.00112521
4.94421e-07
4.94749e-07
0.00112614
-0.00112174
-1.53302e-06
9.61093e-07
4.78133e-07
0.0011225
-5.65529e-07
1.07766e-06
9.55152e-08
6.86992e-07
-6.49218e-07
-1.32053e-06
1.26515e-08
-0.00112139
-1.52757e-06
9.61136e-07
4.78495e-07
0.00112215
-5.65526e-07
1.072e-06
9.54089e-08
6.86916e-07
-6.51906e-07
-1.32043e-06
1.54078e-08
-0.000274505
1.56178e-06
1.52755e-06
-5.44743e-07
-5.50669e-07
0.000272511
-9.38853e-07
-9.39782e-07
-0.00112891
4.84536e-07
4.84955e-07
0.00112982
-0.00112471
-1.53114e-06
9.39534e-07
4.67018e-07
0.00112543
-5.57983e-07
1.08699e-06
1.03281e-07
6.9777e-07
-6.33995e-07
-1.30969e-06
2.22497e-08
-0.00112435
-1.52571e-06
9.39551e-07
4.67447e-07
0.00112507
-5.58036e-07
1.0813e-06
1.03213e-07
6.97769e-07
-6.36738e-07
-1.30954e-06
2.50294e-08
-0.000275
1.56003e-06
1.52572e-06
-5.36988e-07
-5.42941e-07
0.000272994
-9.1764e-07
-9.1819e-07
-0.00113251
4.74569e-07
4.75127e-07
0.00113339
-0.00112751
-1.52866e-06
9.18233e-07
4.5576e-07
0.00112819
-5.49377e-07
1.09556e-06
1.10784e-07
7.07826e-07
-6.18579e-07
-1.29794e-06
3.23008e-08
-0.00112715
-1.52329e-06
9.17968e-07
4.55939e-07
0.00112783
-5.49524e-07
1.08974e-06
1.10636e-07
7.07523e-07
-6.21463e-07
-1.29795e-06
3.64843e-08
-0.00027543
1.55763e-06
1.52328e-06
-5.2869e-07
-5.3461e-07
0.000273412
-8.9686e-07
-8.97383e-07
-0.00113602
4.65251e-07
4.65798e-07
0.00113688
-0.00113014
-1.52558e-06
8.97153e-07
4.44565e-07
0.00113077
-5.39988e-07
1.10335e-06
1.17857e-07
7.16538e-07
-6.03271e-07
-1.28604e-06
4.44562e-08
-0.00112979
-1.52021e-06
8.97121e-07
4.44724e-07
0.00113042
-5.40055e-07
1.09756e-06
1.17768e-07
7.16323e-07
-6.06083e-07
-1.28598e-06
4.81735e-08
-0.000275792
1.55458e-06
1.52017e-06
-5.19791e-07
-5.25697e-07
0.000273763
-8.76873e-07
-8.77012e-07
-0.00113944
4.56591e-07
4.57028e-07
0.00114028
-0.0011326
-1.52153e-06
8.76975e-07
4.34238e-07
0.00113319
-5.29583e-07
1.11064e-06
1.24819e-07
7.24582e-07
-5.87794e-07
-1.27319e-06
5.4923e-08
-0.00113224
-1.51616e-06
8.76892e-07
4.34485e-07
0.00113283
-5.29731e-07
1.10482e-06
1.24691e-07
7.24438e-07
-5.90594e-07
-1.27314e-06
5.84826e-08
-0.000276084
1.55059e-06
1.51615e-06
-5.10131e-07
-5.15981e-07
0.000274043
-8.62995e-07
-8.57396e-07
-0.00114275
4.48463e-07
4.48986e-07
0.00114357
-0.00113488
-1.51648e-06
8.51868e-07
4.23916e-07
0.00113542
-5.21419e-07
1.11729e-06
1.34405e-07
7.35017e-07
-5.72451e-07
-1.25934e-06
6.43928e-08
-0.00113452
-1.51106e-06
8.57352e-07
4.13305e-07
-5.18651e-07
1.11154e-06
1.31362e-07
7.32132e-07
-5.75226e-07
-1.25923e-06
6.78426e-08
0.00113507
-0.000276305
1.54555e-06
1.50836e-06
-4.99667e-07
-5.05479e-07
0.000274256
5.22566e-06
5.23656e-06
0.000260566
-0.000259152
-5.9449e-06
-5.93082e-06
5.05348e-06
0.000261438
-0.000258684
-5.96339e-06
3.38088e-06
-5.22566e-06
5.04814e-06
0.000261472
-0.000258699
-5.97094e-06
3.3759e-06
5.22606e-06
0.000260579
-0.000259155
-5.91588e-06
-5.9593e-06
5.0466e-06
0.000261502
-0.000258714
-5.96899e-06
3.37073e-06
5.0531e-06
-5.22787e-06
0.000261446
-0.000258684
3.38577e-06
-5.97327e-06
1.06916e-05
1.05979e-05
-0.000252646
-0.000256096
-0.000255126
-0.000255126
-6.41893e-06
-4.11038e-06
-6.65438e-06
-6.41925e-06
-4.11136e-06
-6.6599e-06
-5.0414e-06
0.0010422
1.06509e-05
1.06025e-05
-0.000252649
-0.000256094
-0.000255129
-0.000255129
-6.42134e-06
-4.11046e-06
-6.6569e-06
-6.41671e-06
-4.10607e-06
-6.65228e-06
-5.04111e-06
0.00104208
1.07114e-05
1.06634e-05
-0.000252641
-0.000256089
-0.000255126
-0.000255121
-6.42129e-06
-4.118e-06
-6.65694e-06
-6.42152e-06
-4.10833e-06
-6.65462e-06
-5.05592e-06
-5.04393e-06
0.00104214
1.0707e-05
1.06081e-05
-0.000252644
-0.000256091
-0.000255126
-0.000255126
-6.4164e-06
-4.11315e-06
-6.65212e-06
-6.42176e-06
-4.11121e-06
-6.65742e-06
-0.000258709
-5.96116e-06
3.36542e-06
-5.22547e-06
0.000261434
-0.000258681
3.38086e-06
-5.96345e-06
5.22845e-06
0.000260558
-0.00025914
-5.91823e-06
-5.95649e-06
-0.000258694
3.373e-06
-5.95841e-06
-5.23647e-06
0.0002615
-0.000258709
3.36817e-06
-5.96634e-06
-0.00025915
-5.94476e-06
-5.93057e-06
5.65973e-06
5.69694e-06
-4.95377e-06
-4.94768e-06
0.000259111
-8.12276e-07
-7.76558e-07
0.000261576
-0.000259443
-2.75832e-07
-2.68551e-07
7.1413e-06
0.00105866
-4.59062e-06
-1.55062e-06
-2.11563e-06
-2.49158e-06
-6.63825e-06
-7.12049e-06
-2.99215e-06
-0.000263293
-0.000259718
-0.00026282
-5.66994e-06
1.46036e-05
7.07949e-06
0.00105902
-4.60926e-06
-1.54295e-06
-2.11858e-06
-2.50215e-06
-6.66898e-06
-7.13674e-06
-3.00759e-06
-0.000263367
-0.000259748
-0.000262861
0.00106199
2.12344e-06
-0.00106095
1.04401e-06
-1.75875e-06
-1.31944e-07
-7.46812e-07
-1.54197e-06
-2.91587e-07
-9.12055e-07
3.63983e-07
8.20624e-07
0.00106241
2.12396e-06
-0.00106136
1.03905e-06
-1.76878e-06
-1.24566e-07
-7.51884e-07
-1.54844e-06
-2.91895e-07
-9.12691e-07
3.68711e-07
-4.95144e-06
-4.94412e-06
0.000259121
-7.79374e-07
0.000261602
-0.000259463
-2.73033e-07
-2.65376e-07
6.86316e-06
0.00105949
-4.61496e-06
-1.61054e-06
-2.13193e-06
-2.50074e-06
-6.65213e-06
-7.13265e-06
-3.00331e-06
-0.000263388
-0.000259776
-0.000262874
-5.66974e-06
1.46385e-05
7.1742e-06
0.0010588
-4.60925e-06
-1.55315e-06
-2.12376e-06
-2.50442e-06
-6.66877e-06
-7.13621e-06
-3.00766e-06
-0.000259718
-0.000263344
-0.000262832
0.001063
2.13049e-06
-0.00106195
1.03202e-06
-1.72914e-06
-1.3444e-07
-7.47363e-07
-1.54485e-06
-2.91313e-07
-9.09752e-07
3.67016e-07
8.09635e-07
0.0010621
2.1341e-06
-0.00106108
1.0549e-06
-1.75886e-06
-1.29749e-07
-7.471e-07
-1.54475e-06
-2.89019e-07
-9.14671e-07
3.6398e-07
1.46368e-05
7.16196e-06
0.00105861
-4.59033e-06
-1.55045e-06
-2.11291e-06
-2.49204e-06
-6.63876e-06
-2.99285e-06
-7.1187e-06
-0.000259713
-0.000263288
-0.000262815
2.12986e-06
-0.0010617
1.03761e-06
-1.7289e-06
-1.31578e-07
-7.43973e-07
-1.54247e-06
-2.94095e-07
3.61028e-07
-9.0976e-07
8.1002e-07
0.00106189
2.13347e-06
-0.00106087
1.05468e-06
-1.75839e-06
-1.29269e-07
-7.46385e-07
-1.54489e-06
-2.91732e-07
-9.12129e-07
3.66182e-07
-4.95648e-06
-4.94412e-06
0.0002591
-7.71288e-07
0.000261553
-0.000259425
-2.7612e-07
-2.71009e-07
1.45372e-05
6.88169e-06
0.00105945
-4.6147e-06
-1.61056e-06
-2.13174e-06
-2.50063e-06
-6.6523e-06
-3.00324e-06
-7.13028e-06
-0.000259766
-0.000263386
-0.000262869
2.1363e-06
-0.0010614
1.05384e-06
-1.72645e-06
-1.34169e-07
-7.46825e-07
-1.5396e-06
-2.89649e-07
3.6083e-07
-9.12695e-07
7.71308e-07
0.00106291
2.13595e-06
-0.00106187
1.04221e-06
-1.72405e-06
-1.3417e-07
-7.44396e-07
-1.54225e-06
-2.91368e-07
-9.12333e-07
3.61465e-07
-0.00025944
-2.73284e-07
-2.70797e-07
1.65102e-06
1.61631e-06
-6.957e-07
-7.03973e-07
0.000259708
-9.07345e-07
-8.68639e-07
0.000262814
-0.000260648
-1.9873e-07
-1.9117e-07
8.31994e-07
0.00106318
-6.82496e-07
8.67866e-07
-9.47469e-08
4.23661e-07
-8.49686e-07
-1.43353e-06
-2.54362e-07
-1.65595e-06
1.6528e-06
8.26865e-07
0.00106361
-6.85072e-07
8.76073e-07
-9.45358e-08
4.28556e-07
-8.52826e-07
-1.43985e-06
-2.52259e-07
0.00106711
1.38977e-06
-0.00106578
6.99505e-07
-1.60508e-06
-6.98836e-08
-6.63012e-07
-1.39333e-06
-2.26128e-07
-8.34603e-07
4.59496e-07
9.12755e-07
0.00106755
1.38979e-06
-0.00106621
6.94328e-07
-1.61021e-06
-6.99013e-08
-6.63162e-07
-1.39641e-06
-2.26258e-07
-8.35033e-07
4.6233e-07
-6.9606e-07
-7.03038e-07
0.000259726
-8.74098e-07
0.000262841
-0.000260662
-1.98538e-07
-1.93535e-07
8.25349e-07
0.0010642
-6.80555e-07
8.32036e-07
-9.72222e-08
4.26967e-07
-8.52243e-07
-1.43607e-06
-2.51505e-07
-1.65113e-06
1.65773e-06
8.32675e-07
0.00106329
-6.85523e-07
8.67804e-07
-9.49456e-08
4.23612e-07
-8.52242e-07
-1.43375e-06
-2.51943e-07
0.00106814
1.38961e-06
-0.00106681
6.98269e-07
-1.56783e-06
-7.45507e-08
-6.5863e-07
-1.39031e-06
-2.23081e-07
-8.34236e-07
4.63076e-07
9.01957e-07
0.00106723
1.38951e-06
-0.00106589
7.00318e-07
-1.60265e-06
-7.23117e-08
-6.63428e-07
-1.39346e-06
-2.26078e-07
-8.34598e-07
4.62294e-07
1.65238e-06
8.32565e-07
0.00106308
-6.84845e-07
8.6559e-07
-9.67145e-08
4.23187e-07
-8.52554e-07
-2.5211e-07
-1.43407e-06
1.38956e-06
-0.00106655
7.03414e-07
-1.57531e-06
-7.6378e-08
-6.58017e-07
-1.39059e-06
-2.23648e-07
4.62533e-07
-8.34584e-07
9.04642e-07
0.00106702
1.3847e-06
-0.00106568
7.00752e-07
-1.60243e-06
-7.21689e-08
-6.63136e-07
-1.39396e-06
-2.26447e-07
-8.34985e-07
4.59028e-07
-6.98759e-07
-7.00864e-07
0.000259688
-8.6603e-07
0.000262789
-0.000260628
-1.98893e-07
-1.93728e-07
1.65355e-06
8.19995e-07
0.00106412
-6.80253e-07
8.26806e-07
-1.01549e-07
4.21128e-07
-8.49801e-07
-2.56556e-07
-1.43111e-06
1.39022e-06
-0.00106622
6.98704e-07
-1.5649e-06
-7.64922e-08
-6.58091e-07
-1.38518e-06
-2.26034e-07
4.54334e-07
-8.34627e-07
8.68454e-07
0.00106805
1.39063e-06
-0.00106671
6.98635e-07
-1.56528e-06
-7.67567e-08
-6.58611e-07
-1.39344e-06
-2.25946e-07
-8.37367e-07
4.59758e-07
-0.000260636
-1.99075e-07
-1.93722e-07
1.60488e-06
1.57278e-06
-6.60975e-07
-6.69002e-07
0.000260967
-9.28119e-07
-8.91974e-07
0.000264094
-0.000261919
-1.79817e-07
-1.74773e-07
6.9117e-07
0.00106846
-6.64697e-07
9.11823e-07
-6.66522e-08
4.6177e-07
-8.34452e-07
-1.39347e-06
-2.23681e-07
-1.61006e-06
1.3753e-06
7.01646e-07
0.00106889
-6.64838e-07
9.17272e-07
-6.66378e-08
4.67433e-07
-8.37411e-07
-1.39902e-06
-2.19e-07
0.00107246
1.35922e-06
-0.00107114
6.74475e-07
-1.60607e-06
-5.57925e-08
-6.58743e-07
-1.40305e-06
-2.04285e-07
-8.28729e-07
4.71647e-07
9.33707e-07
0.00107288
1.35934e-06
-0.00107156
6.74424e-07
-1.61115e-06
-5.36404e-08
-6.61417e-07
-1.41117e-06
-1.99563e-07
-8.34219e-07
4.80051e-07
-6.63782e-07
-6.65754e-07
0.000260988
-8.94995e-07
0.000264123
-0.000261945
-1.76815e-07
-1.71858e-07
6.89912e-07
0.00106949
-6.6296e-07
8.7568e-07
-7.12892e-08
4.65322e-07
-8.36599e-07
-1.39823e-06
-2.18233e-07
-1.60244e-06
1.37511e-06
6.97366e-07
0.00106857
-6.65045e-07
9.09078e-07
-6.68251e-08
4.64589e-07
-8.36981e-07
-1.39617e-06
-2.18824e-07
0.00107349
1.35979e-06
-0.00107216
6.73105e-07
-1.57113e-06
-5.81418e-08
-6.56852e-07
-1.40539e-06
-1.99015e-07
-8.33617e-07
4.74922e-07
9.2815e-07
0.00107257
1.35948e-06
-0.00107124
6.75143e-07
-1.6061e-06
-5.37687e-08
-6.61559e-07
-1.40569e-06
-1.99502e-07
-8.33914e-07
4.74418e-07
1.3806e-06
6.92523e-07
0.00106837
-6.62307e-07
9.0641e-07
-7.11424e-08
4.64004e-07
-8.37415e-07
-2.21601e-07
-1.39667e-06
1.35955e-06
-0.0010719
6.72853e-07
-1.57335e-06
-5.76985e-08
-6.56149e-07
-1.40286e-06
-2.01814e-07
4.71857e-07
-8.31279e-07
9.22706e-07
0.00107236
1.35982e-06
-0.00107104
6.75632e-07
-1.60096e-06
-5.80188e-08
-6.56276e-07
-1.40352e-06
-2.02227e-07
-8.31694e-07
4.71294e-07
-6.63917e-07
-6.68545e-07
0.000260952
-8.89451e-07
0.000264074
-0.000261904
-1.79617e-07
-1.72211e-07
1.37616e-06
6.95665e-07
0.0010694
-6.57765e-07
8.67614e-07
-7.56804e-08
4.6205e-07
-8.34586e-07
-2.21146e-07
-1.39362e-06
1.36017e-06
-0.00107157
6.73441e-07
-1.5682e-06
-5.99201e-08
-6.53643e-07
-1.40308e-06
-1.99556e-07
4.7141e-07
-8.33975e-07
8.89145e-07
0.0010734
1.36076e-06
-0.00107208
6.73826e-07
-1.56869e-06
-6.02531e-08
-6.54278e-07
-1.40075e-06
-2.01874e-07
-8.3158e-07
4.69083e-07
-0.000261917
-1.77588e-07
-1.72248e-07
1.60493e-06
1.56988e-06
-6.5309e-07
-6.58703e-07
0.000262231
-9.52366e-07
-9.16421e-07
0.000265313
-0.000263141
-1.53924e-07
-1.49239e-07
6.67205e-07
0.00107377
-6.55816e-07
9.34123e-07
-5.10218e-08
4.75867e-07
-8.25314e-07
-1.40421e-06
-1.96921e-07
-1.61e-06
1.34968e-06
6.67116e-07
0.0010742
-6.58469e-07
9.39733e-07
-4.88892e-08
4.84259e-07
-8.30797e-07
-1.41236e-06
-1.92206e-07
0.00107763
1.31518e-06
-0.00107636
6.44435e-07
-1.59931e-06
-3.72308e-08
-6.44995e-07
-1.40393e-06
-1.74378e-07
-8.11863e-07
4.90093e-07
9.58085e-07
0.00107805
1.31543e-06
-0.00107678
6.44057e-07
-1.60432e-06
-3.5193e-08
-6.47596e-07
-1.41214e-06
-1.69709e-07
-8.17358e-07
4.98466e-07
-6.55834e-07
-6.6053e-07
0.000262257
-9.19415e-07
0.000265342
-0.000263167
-1.50948e-07
-1.46207e-07
6.65771e-07
0.0010748
-6.53864e-07
8.98016e-07
-5.32907e-08
4.78947e-07
-8.30323e-07
-1.4067e-06
-1.91795e-07
-1.6049e-06
1.34993e-06
6.67699e-07
0.00107388
-6.58586e-07
9.34216e-07
-4.89912e-08
4.78617e-07
-8.3053e-07
-1.40687e-06
-1.92174e-07
0.00107866
1.31733e-06
-0.00107739
6.42965e-07
-1.56385e-06
-3.91934e-08
-6.42757e-07
-1.4071e-06
-1.69791e-07
-8.17399e-07
4.92453e-07
9.52645e-07
0.00107773
1.31572e-06
-0.00107646
6.44201e-07
-1.59911e-06
-3.52017e-08
-6.47621e-07
-1.40659e-06
-1.6966e-07
-8.17091e-07
4.92878e-07
1.35026e-06
6.68081e-07
0.00107368
-6.53291e-07
9.28755e-07
-5.31723e-08
4.75512e-07
-8.28296e-07
-1.94889e-07
-1.40468e-06
1.3166e-06
-0.00107712
6.4241e-07
-1.56607e-06
-3.87876e-08
-6.42065e-07
-1.40453e-06
-1.72359e-07
4.89581e-07
-8.14887e-07
9.47134e-07
0.00107753
1.31595e-06
-0.00107626
6.44686e-07
-1.59399e-06
-3.91548e-08
-6.42302e-07
-1.40432e-06
-1.72351e-07
-8.14833e-07
4.89824e-07
-6.53374e-07
-6.60764e-07
0.000262216
-9.1374e-07
0.000265292
-0.000263126
-1.53769e-07
-1.46469e-07
1.35111e-06
6.66432e-07
0.00107472
-6.51275e-07
8.95174e-07
-5.53667e-08
4.73251e-07
-8.28208e-07
-1.94561e-07
-1.40196e-06
1.31646e-06
-0.00107679
6.43122e-07
-1.56101e-06
-4.09772e-08
-6.39691e-07
-1.40412e-06
-1.69941e-07
4.89734e-07
-8.17405e-07
9.13524e-07
0.00107857
1.31674e-06
-0.0010773
6.43267e-07
-1.56146e-06
-4.11968e-08
-6.40203e-07
-1.40175e-06
-1.72122e-07
-8.14849e-07
4.87403e-07
-0.000263139
-1.51711e-07
-1.46511e-07
1.59705e-06
1.56143e-06
-6.374e-07
-6.43399e-07
0.000263435
-9.75115e-07
-9.39183e-07
0.000266457
-0.00026429
-1.29005e-07
-1.24183e-07
6.36601e-07
0.00107888
-6.4119e-07
9.58309e-07
-3.22983e-08
4.95216e-07
-8.06786e-07
-1.40293e-06
-1.66949e-07
-1.60207e-06
1.30289e-06
6.35936e-07
0.0010793
-6.4386e-07
9.64016e-07
-2.94764e-08
5.03548e-07
-8.12329e-07
-1.41118e-06
-1.62343e-07
0.00108255
1.26474e-06
-0.00108134
6.14177e-07
-1.59031e-06
-1.63999e-08
-6.30339e-07
-1.39838e-06
-1.45639e-07
-7.9121e-07
5.11061e-07
9.80881e-07
0.00108297
1.26504e-06
-0.00108177
6.13553e-07
-1.59529e-06
-1.35173e-08
-6.32945e-07
-1.40674e-06
-1.41184e-07
-7.96835e-07
5.19296e-07
-6.40273e-07
-6.45103e-07
0.000263461
-9.41912e-07
0.000266486
-0.000264316
-1.26417e-07
-1.21039e-07
6.35318e-07
0.00107991
-6.38786e-07
9.22435e-07
-3.48379e-08
4.97388e-07
-8.12494e-07
-1.40631e-06
-1.62521e-07
-1.59687e-06
1.30303e-06
6.36026e-07
0.00107898
-6.43871e-07
9.58574e-07
-2.94993e-08
4.98044e-07
-8.12001e-07
-1.40555e-06
-1.6223e-07
0.00108359
1.26741e-06
-0.00108238
6.13053e-07
-1.5545e-06
-1.88192e-08
-6.27754e-07
-1.40193e-06
-1.41408e-07
-7.97141e-07
5.13184e-07
9.75314e-07
0.00108265
1.2646e-06
-0.00108145
6.13636e-07
-1.59018e-06
-1.36668e-08
-6.33078e-07
-1.40077e-06
-1.40851e-07
-7.96285e-07
5.14125e-07
1.30348e-06
6.36909e-07
0.00107878
-6.38393e-07
9.53145e-07
-3.48366e-08
4.94987e-07
-8.09727e-07
-1.64899e-07
-1.40328e-06
1.26582e-06
-0.00108211
6.12228e-07
-1.55699e-06
-1.85671e-08
-6.27348e-07
-1.39866e-06
-1.43486e-07
5.10935e-07
-7.94079e-07
9.69953e-07
0.00108245
1.26529e-06
-0.00108124
6.14373e-07
-1.58488e-06
-1.89256e-08
-6.27493e-07
-1.39865e-06
-1.43553e-07
-7.94081e-07
5.10913e-07
-6.37778e-07
-6.45273e-07
0.00026342
-9.36427e-07
0.000266437
-0.000264275
-1.29066e-07
-1.21331e-07
1.30438e-06
6.35537e-07
0.00107983
-6.36257e-07
9.19524e-07
-3.68208e-08
4.92524e-07
-8.09783e-07
-1.64711e-07
-1.40075e-06
1.2665e-06
-0.00108177
6.13033e-07
-1.55173e-06
-2.13988e-08
-6.24804e-07
-1.39848e-06
-1.41252e-07
5.10818e-07
-7.96766e-07
9.36344e-07
0.0010835
1.26664e-06
-0.00108229
6.13009e-07
-1.55206e-06
-2.15726e-08
-6.2521e-07
-1.39617e-06
-1.43432e-07
-7.94225e-07
5.08417e-07
-0.000264288
-1.26616e-07
-1.21381e-07
1.58818e-06
1.55236e-06
-6.21389e-07
-6.27355e-07
0.000264566
-9.95356e-07
-9.59105e-07
0.000267528
-0.000265366
-1.06803e-07
-1.01659e-07
6.07409e-07
0.00108374
-6.26918e-07
9.8041e-07
-1.15128e-08
5.16395e-07
-7.86099e-07
-1.39656e-06
-1.38959e-07
-1.59316e-06
1.25287e-06
6.06777e-07
0.00108417
-6.29519e-07
9.86191e-07
-8.60712e-09
5.24615e-07
-7.91799e-07
-1.40498e-06
-1.34558e-07
0.00108722
1.21745e-06
-0.00108608
5.89116e-07
-1.58239e-06
1.89967e-09
-6.17577e-07
-1.39074e-06
-1.2024e-07
-7.71503e-07
5.32316e-07
1.00117e-06
0.00108765
1.21774e-06
-0.0010865
5.88342e-07
-1.58735e-06
4.8747e-09
-6.20085e-07
-1.39911e-06
-1.15787e-07
-7.77119e-07
5.40614e-07
-6.24526e-07
-6.28974e-07
0.000264592
-9.61805e-07
0.000267558
-0.000265392
-1.04165e-07
-9.85514e-08
6.06362e-07
0.00108478
-6.24332e-07
9.44408e-07
-1.39484e-08
5.18632e-07
-7.91997e-07
-1.40001e-06
-1.34684e-07
-1.58808e-06
1.25217e-06
6.06923e-07
0.00108384
-6.29702e-07
9.80573e-07
-8.81691e-09
5.19534e-07
-7.91113e-07
-1.39887e-06
-1.34115e-07
0.00108827
1.21919e-06
-0.00108712
5.88235e-07
-1.54662e-06
-6.63177e-10
-6.15085e-07
-1.39376e-06
-1.15764e-07
-7.77117e-07
5.34991e-07
9.95502e-07
0.00108733
1.21687e-06
-0.00108618
5.88672e-07
-1.58232e-06
4.58133e-09
-6.2039e-07
-1.39294e-06
-1.15304e-07
-7.76328e-07
5.35545e-07
1.25287e-06
6.07635e-07
0.00108364
-6.24089e-07
9.75213e-07
-1.40623e-08
5.16292e-07
-7.88942e-07
-1.3684e-07
-1.39679e-06
1.21736e-06
-0.00108685
5.87482e-07
-1.54917e-06
-5.02256e-10
-6.1479e-07
-1.39042e-06
-1.1773e-07
5.32756e-07
-7.73916e-07
9.90056e-07
0.00108713
1.21741e-06
-0.00108598
5.89467e-07
-1.57705e-06
-7.37615e-10
-6.14803e-07
-1.39076e-06
-1.1798e-07
-7.74169e-07
5.32431e-07
-6.21842e-07
-6.29285e-07
0.00026455
-9.56409e-07
0.000267507
-0.00026535
-1.06762e-07
-9.88553e-08
1.25426e-06
6.06224e-07
0.00108469
-6.21785e-07
9.41596e-07
-1.66916e-08
5.13777e-07
-7.89104e-07
-1.36744e-07
-1.39432e-06
1.21828e-06
-0.00108651
5.88043e-07
-1.54377e-06
-3.22016e-09
-6.12096e-07
-1.39042e-06
-1.15582e-07
5.32499e-07
-7.76697e-07
9.56394e-07
0.00108818
1.21881e-06
-0.00108703
5.88071e-07
-1.54403e-06
-3.34621e-09
-6.12456e-07
-1.38832e-06
-1.17916e-07
-7.74373e-07
5.29878e-07
-0.000265363
-1.04221e-07
-9.90154e-08
1.58071e-06
1.54494e-06
-6.07437e-07
-6.13149e-07
0.000265623
-1.01582e-06
-9.76738e-07
0.000268534
-0.000266372
-8.71088e-08
-8.19214e-08
5.83748e-07
0.00108835
-6.1483e-07
1.00269e-06
8.61716e-09
5.37578e-07
-7.66946e-07
-1.38876e-06
-1.14465e-07
-1.58568e-06
1.20673e-06
5.82902e-07
0.00108878
-6.17329e-07
1.00583e-06
8.94086e-09
5.45913e-07
-7.72508e-07
-1.39709e-06
-1.09968e-07
0.00109166
1.1757e-06
-0.00109057
5.69371e-07
-1.5791e-06
1.97018e-08
-6.10282e-07
-1.38277e-06
-9.82504e-08
-7.54047e-07
5.53239e-07
1.01892e-06
0.0010921
1.17584e-06
-0.00109101
5.68535e-07
-1.58146e-06
1.99867e-08
-6.10118e-07
-1.38839e-06
-9.37577e-08
-7.59547e-07
5.58949e-07
-6.10526e-07
-6.14816e-07
0.00026565
-9.79431e-07
0.00026856
-0.000266398
-8.44352e-08
-7.89295e-08
5.82862e-07
0.0010894
-6.12366e-07
9.63708e-07
3.36052e-09
5.40346e-07
-7.72461e-07
-1.39166e-06
-1.09938e-07
-1.58061e-06
1.20584e-06
5.8319e-07
0.00108846
-6.17603e-07
1.00021e-06
8.68957e-09
5.40778e-07
-7.71714e-07
-1.39096e-06
-1.09504e-07
0.00109272
1.17703e-06
-0.00109162
5.68443e-07
-1.54058e-06
1.43934e-08
-6.05142e-07
-1.38554e-06
-9.37339e-08
-7.59475e-07
5.56083e-07
1.01349e-06
0.00109177
1.17513e-06
-0.00109068
5.68526e-07
-1.57618e-06
1.99368e-08
-6.102e-07
-1.38517e-06
-9.34604e-08
-7.58908e-07
5.56222e-07
1.20628e-06
5.8406e-07
0.00108826
-6.12057e-07
9.94711e-07
3.31062e-09
5.37754e-07
-7.69516e-07
-1.12132e-07
-1.3887e-06
1.17532e-06
-0.00109136
5.68126e-07
-1.54314e-06
1.44695e-08
-6.04933e-07
-1.38231e-06
-9.56991e-08
5.53722e-07
-7.56312e-07
1.00785e-06
0.00109157
1.17538e-06
-0.00109048
5.69563e-07
-1.57106e-06
1.43844e-08
-6.04793e-07
-1.38264e-06
-9.59167e-08
-7.56556e-07
5.53434e-07
-6.07762e-07
-6.15096e-07
0.000265608
-9.74075e-07
0.000268509
-0.000266356
-8.70466e-08
-7.8944e-08
1.20767e-06
5.82695e-07
0.00108931
-6.09701e-07
9.61025e-07
7.06182e-10
5.35198e-07
-7.69734e-07
-1.12078e-07
-1.38626e-06
1.17563e-06
-0.00109101
5.683e-07
-1.53765e-06
1.18736e-08
-6.02071e-07
-1.38219e-06
-9.34567e-08
5.53628e-07
-7.58968e-07
9.74054e-07
0.00109263
1.17653e-06
-0.00109154
5.68443e-07
-1.53792e-06
1.17512e-08
-6.02432e-07
-1.38019e-06
-9.58542e-08
-7.56765e-07
5.50909e-07
-0.00026637
-8.45237e-08
-7.92201e-08
1.57792e-06
1.53933e-06
-5.95707e-07
-6.01437e-07
0.000266614
-1.03154e-06
-9.9236e-07
0.000269473
-0.000267315
-6.98167e-08
-6.45468e-08
5.65128e-07
0.00109274
-6.08207e-07
1.01994e-06
2.30828e-08
5.58434e-07
-7.50002e-07
-1.38077e-06
-9.09773e-08
-1.58033e-06
1.16623e-06
5.64406e-07
0.00109318
-6.08077e-07
1.023e-06
2.33182e-08
5.64125e-07
-7.55531e-07
-1.38641e-06
-8.87507e-08
0.0010959
1.13927e-06
-0.00109486
5.53689e-07
-1.5751e-06
3.25892e-08
-6.03041e-07
-1.37503e-06
-7.69876e-08
-7.41441e-07
5.73677e-07
1.03449e-06
0.00109633
1.13923e-06
-0.00109529
5.53332e-07
-1.57762e-06
3.28053e-08
-6.02961e-07
-1.3807e-06
-7.4793e-08
-7.44282e-07
5.79358e-07
-5.98745e-07
-6.03238e-07
0.00026664
-9.9512e-07
0.000269499
-0.000267341
-6.7075e-08
-6.17137e-08
5.64124e-07
0.00109379
-6.03033e-07
9.80845e-07
1.77521e-08
5.61223e-07
-7.55483e-07
-1.3836e-06
-8.87455e-08
-1.57498e-06
1.16565e-06
5.64261e-07
0.00109285
-6.08085e-07
1.01764e-06
2.33369e-08
5.61303e-07
-7.54965e-07
-1.38329e-06
-8.85247e-08
0.00109696
1.141e-06
-0.00109591
5.52752e-07
-1.53625e-06
2.69151e-08
-5.9768e-07
-1.37795e-06
-7.48714e-08
-7.44332e-07
5.76383e-07
1.02926e-06
0.00109601
1.13903e-06
-0.00109497
5.52846e-07
-1.57212e-06
3.30624e-08
-6.02827e-07
-1.3778e-06
-7.47796e-08
-7.43986e-07
5.76331e-07
1.16591e-06
5.65283e-07
0.00109265
-6.027e-07
1.01198e-06
1.77441e-08
5.58552e-07
-7.52566e-07
-9.09313e-08
-1.3807e-06
1.14007e-06
-0.00109564
5.52616e-07
-1.53879e-06
2.7046e-08
-5.97439e-07
-1.37507e-06
-7.69957e-08
5.73641e-07
-7.41406e-07
1.02366e-06
0.0010958
1.13965e-06
-0.00109476
5.53936e-07
-1.56695e-06
2.69412e-08
-5.97362e-07
-1.37518e-06
-7.70825e-08
-7.41474e-07
5.73574e-07
-5.95985e-07
-6.03239e-07
0.000266597
-9.89651e-07
0.000269449
-0.000267298
-6.98586e-08
-6.15062e-08
1.16693e-06
5.64252e-07
0.00109371
-6.00347e-07
9.78133e-07
1.5092e-08
5.56051e-07
-7.52756e-07
-9.08433e-08
-1.37823e-06
1.13965e-06
-0.0010953
5.52687e-07
-1.53334e-06
2.43441e-08
-5.94622e-07
-1.37466e-06
-7.46117e-08
5.73847e-07
-7.43815e-07
9.89657e-07
0.00109687
1.14036e-06
-0.00109582
5.53177e-07
-1.53375e-06
2.42204e-08
-5.9503e-07
-1.37262e-06
-7.69587e-08
-7.41612e-07
5.7115e-07
-0.000267312
-6.72337e-08
-6.17811e-08
1.57441e-06
1.53545e-06
-5.86076e-07
-5.91852e-07
0.000267541
-1.04507e-06
-1.00577e-06
0.000270355
-0.000268199
-5.53955e-08
-4.96248e-08
5.49891e-07
0.00109693
-6.01751e-07
1.03509e-06
3.6915e-08
5.78608e-07
-7.3801e-07
-1.37324e-06
-7.27261e-08
-1.57698e-06
1.13067e-06
5.49682e-07
0.00109736
-6.01695e-07
1.038e-06