/*--------------------------------*- C++ -*----------------------------------*\
| =========                 |                                                 |
| \\      /  F ield         | OpenFOAM: The Open Source CFD Toolbox           |
|  \\    /   O peration     | Version:  v1906                                 |
|   \\  /    A nd           | Web:      www.OpenFOAM.com                      |
|    \\/     M anipulation  |                                                 |
\*---------------------------------------------------------------------------*/
FoamFile
{
    version     2.0;
    format      ascii;
    class       volScalarField;
    location    "250";
    object      epsilon;
}
// * * * * * * * * * * * * * * * * * * * * * * * * * * * * * * * * * * * * * //

dimensions      [0 2 -3 0 0 0 0];


internalField   nonuniform List<scalar> 
43024
(
4.95567e-07
4.9733e-07
4.9733e-07
4.99575e-07
4.45573e-07
4.53735e-07
4.53737e-07
4.6371e-07
4.03752e-07
4.18513e-07
4.18517e-07
4.39411e-07
3.68363e-07
3.88552e-07
3.88558e-07
4.17667e-07
3.38015e-07
3.62102e-07
3.6211e-07
3.96081e-07
3.11646e-07
3.38273e-07
3.38281e-07
3.7458e-07
2.88473e-07
3.16638e-07
3.16646e-07
3.5371e-07
2.67923e-07
2.97021e-07
2.97031e-07
3.34148e-07
2.4958e-07
2.7937e-07
2.79379e-07
3.16483e-07
2.33137e-07
2.63679e-07
2.63688e-07
3.01163e-07
2.18366e-07
2.49955e-07
2.49964e-07
2.88491e-07
2.0509e-07
2.38199e-07
2.38208e-07
2.78701e-07
1.93172e-07
2.28411e-07
2.28422e-07
2.71875e-07
1.82498e-07
2.20601e-07
2.20611e-07
2.68169e-07
1.72979e-07
2.14771e-07
2.14787e-07
2.67648e-07
1.64541e-07
2.10937e-07
2.10951e-07
2.7048e-07
1.57122e-07
2.09106e-07
2.09126e-07
2.76695e-07
1.50668e-07
2.09295e-07
2.09317e-07
2.86287e-07
1.45137e-07
2.1155e-07
2.11576e-07
2.99234e-07
1.40492e-07
2.15886e-07
2.15917e-07
3.15614e-07
1.36703e-07
2.22326e-07
2.22361e-07
3.35369e-07
5.06417e-07
5.05584e-07
5.05582e-07
5.06417e-07
5.05583e-07
5.05582e-07
5.09649e-07
5.09649e-07
5.09649e-07
5.09649e-07
5.05584e-07
5.05584e-07
5.06418e-07
5.05584e-07
5.05583e-07
5.06418e-07
4.99575e-07
4.67237e-07
4.97331e-07
4.97335e-07
4.63713e-07
4.63721e-07
4.99575e-07
4.67235e-07
4.97335e-07
4.97336e-07
4.63718e-07
4.63724e-07
4.97332e-07
4.63709e-07
4.63714e-07
4.99575e-07
4.67241e-07
4.97334e-07
4.6371e-07
4.63719e-07
4.6724e-07
4.63709e-07
4.41426e-07
4.5374e-07
4.53748e-07
4.26738e-07
4.26747e-07
4.63708e-07
4.4142e-07
4.53744e-07
4.53751e-07
4.26739e-07
4.26751e-07
4.53741e-07
4.26729e-07
4.26741e-07
4.63711e-07
4.41431e-07
4.53744e-07
4.26734e-07
4.26741e-07
4.41429e-07
4.39407e-07
4.19283e-07
4.18522e-07
4.1853e-07
3.95676e-07
3.95682e-07
4.39405e-07
4.19275e-07
4.18522e-07
4.18535e-07
3.95672e-07
3.95689e-07
4.18525e-07
3.95663e-07
3.95679e-07
4.39414e-07
4.19289e-07
4.18523e-07
3.95669e-07
3.95673e-07
4.19287e-07
4.17662e-07
3.97645e-07
3.88566e-07
3.88571e-07
3.68461e-07
3.68466e-07
4.17656e-07
3.97636e-07
3.8856e-07
3.88578e-07
3.68452e-07
3.68473e-07
3.88569e-07
3.68444e-07
3.68464e-07
4.17669e-07
3.97651e-07
3.88562e-07
3.68452e-07
3.68454e-07
3.97649e-07
3.96076e-07
3.76086e-07
3.6212e-07
3.62124e-07
3.44033e-07
3.44036e-07
3.96069e-07
3.76076e-07
3.62109e-07
3.62131e-07
3.4402e-07
3.44043e-07
3.62123e-07
3.44013e-07
3.44036e-07
3.96082e-07
3.76091e-07
3.62111e-07
3.44022e-07
3.44021e-07
3.7609e-07
3.74575e-07
3.55111e-07
3.38293e-07
3.38295e-07
3.21875e-07
3.21876e-07
3.74568e-07
3.55101e-07
3.38279e-07
3.38303e-07
3.21858e-07
3.21884e-07
3.38296e-07
3.21853e-07
3.21877e-07
3.74581e-07
3.55116e-07
3.3828e-07
3.21862e-07
3.2186e-07
3.55116e-07
3.53704e-07
3.35396e-07
3.16659e-07
3.16661e-07
3.01763e-07
3.01764e-07
3.53696e-07
3.35384e-07
3.16642e-07
3.16668e-07
3.01745e-07
3.01771e-07
3.16662e-07
3.0174e-07
3.01765e-07
3.5371e-07
3.35401e-07
3.16644e-07
3.01749e-07
3.01746e-07
3.354e-07
3.34143e-07
3.17533e-07
2.97044e-07
2.97045e-07
2.83623e-07
2.83624e-07
3.34134e-07
3.17522e-07
2.97026e-07
2.97053e-07
2.83603e-07
2.83631e-07
2.97047e-07
2.83599e-07
2.83625e-07
3.34148e-07
3.17538e-07
2.97027e-07
2.83608e-07
2.83604e-07
3.17538e-07
3.1648e-07
3.01974e-07
2.79394e-07
2.79394e-07
2.67442e-07
2.67442e-07
3.1647e-07
3.01965e-07
2.79374e-07
2.79402e-07
2.67421e-07
2.67449e-07
2.79396e-07
2.67417e-07
2.67444e-07
3.16484e-07
3.01984e-07
2.79375e-07
2.67426e-07
2.67422e-07
3.01983e-07
3.01154e-07
2.89046e-07
2.63704e-07
2.63704e-07
2.53228e-07
2.53227e-07
3.01146e-07
2.89034e-07
2.63682e-07
2.63711e-07
2.53205e-07
2.53234e-07
2.63705e-07
2.53201e-07
2.53228e-07
3.01162e-07
2.89048e-07
2.63683e-07
2.5321e-07
2.53205e-07
2.89046e-07
2.88488e-07
2.78946e-07
2.49981e-07
2.49981e-07
2.4098e-07
2.40981e-07
2.88479e-07
2.78939e-07
2.49959e-07
2.49989e-07
2.40956e-07
2.40988e-07
2.49982e-07
2.40952e-07
2.40981e-07
2.88497e-07
2.78965e-07
2.49959e-07
2.40962e-07
2.40957e-07
2.78961e-07
2.78687e-07
2.71832e-07
2.38227e-07
2.38228e-07
2.30702e-07
2.30702e-07
2.78681e-07
2.71816e-07
2.38204e-07
2.38235e-07
2.30677e-07
2.3071e-07
2.38227e-07
2.3067e-07
2.30701e-07
2.78701e-07
2.7184e-07
2.38204e-07
2.30681e-07
2.30676e-07
2.71837e-07
2.71869e-07
2.67864e-07
2.28442e-07
2.28444e-07
2.22399e-07
2.22401e-07
2.71857e-07
2.67853e-07
2.28418e-07
2.28452e-07
2.22372e-07
2.22409e-07
2.28442e-07
2.22365e-07
2.22397e-07
2.71877e-07
2.67875e-07
2.28418e-07
2.22376e-07
2.22372e-07
2.67874e-07
2.68154e-07
2.66982e-07
2.20632e-07
2.20638e-07
2.16076e-07
2.16079e-07
2.68149e-07
2.66962e-07
2.20608e-07
2.20645e-07
2.16049e-07
2.1609e-07
2.20634e-07
2.16037e-07
2.16075e-07
2.68167e-07
2.67002e-07
2.20608e-07
2.16052e-07
2.16049e-07
2.66997e-07
2.67638e-07
2.69139e-07
2.14811e-07
2.14814e-07
2.11742e-07
2.11751e-07
2.67609e-07
2.69128e-07
2.14784e-07
2.14826e-07
2.11715e-07
2.1176e-07
2.14811e-07
2.117e-07
2.1174e-07
2.67651e-07
2.69154e-07
2.14784e-07
2.11714e-07
2.11713e-07
2.69152e-07
2.70466e-07
2.74654e-07
2.10979e-07
2.10989e-07
2.09413e-07
2.09422e-07
2.70461e-07
2.74634e-07
2.10953e-07
2.10997e-07
2.09385e-07
2.09434e-07
2.10978e-07
2.09362e-07
2.09408e-07
2.7048e-07
2.74668e-07
2.1095e-07
2.09381e-07
2.09379e-07
2.74667e-07
2.76681e-07
2.8354e-07
2.09157e-07
2.09165e-07
2.09127e-07
2.09136e-07
2.76663e-07
2.83518e-07
2.09129e-07
2.09179e-07
2.09099e-07
2.09153e-07
2.09151e-07
2.0907e-07
2.0912e-07
2.76703e-07
2.83562e-07
2.09123e-07
2.09092e-07
2.09091e-07
2.83559e-07
2.86268e-07
2.95813e-07
2.09354e-07
2.09363e-07
2.10851e-07
2.10858e-07
2.86245e-07
2.95786e-07
2.09327e-07
2.0938e-07
2.10822e-07
2.1088e-07
2.09347e-07
2.10785e-07
2.10841e-07
2.86282e-07
2.95833e-07
2.09318e-07
2.10809e-07
2.10811e-07
2.95832e-07
2.99221e-07
3.11499e-07
2.11617e-07
2.11626e-07
2.14675e-07
2.14684e-07
2.99192e-07
3.11467e-07
2.11589e-07
2.11649e-07
2.14644e-07
2.14709e-07
2.11607e-07
2.14599e-07
2.14662e-07
2.99237e-07
3.11523e-07
2.11577e-07
2.14628e-07
2.14631e-07
3.11517e-07
3.15595e-07
3.30564e-07
2.15962e-07
2.15975e-07
2.20595e-07
2.20616e-07
3.15563e-07
3.30525e-07
2.15933e-07
2.16e-07
2.20565e-07
2.20641e-07
2.15951e-07
2.20516e-07
2.20586e-07
3.15617e-07
3.30595e-07
2.1592e-07
2.20549e-07
2.20554e-07
3.30582e-07
3.35344e-07
2.22403e-07
2.22429e-07
3.35308e-07
2.22376e-07
2.22455e-07
2.22398e-07
3.35378e-07
2.22365e-07
5.35663e-07
5.35601e-07
5.35655e-07
5.35655e-07
5.34573e-07
5.35516e-07
5.33634e-07
5.35654e-07
5.34573e-07
5.35517e-07
5.35654e-07
5.33634e-07
5.35256e-07
5.35986e-07
5.35987e-07
1.10713e-06
3.88082e-06
9.33891e-07
4.60617e-06
1.26081e-05
1.66011e-05
1.10725e-06
3.88106e-06
9.33924e-07
4.60654e-06
4.95567e-07
4.95567e-07
4.95567e-07
4.57231e-07
4.57231e-07
4.57232e-07
4.57232e-07
5.43144e-07
1.22026e-06
4.95565e-07
4.85522e-07
5.25341e-07
1.20946e-06
4.82301e-07
1.26097e-05
1.66037e-05
5.43162e-07
4.95565e-07
1.22025e-06
4.85523e-07
5.2532e-07
4.82302e-07
1.20945e-06
2.52172e-06
2.52242e-06
4.8419e-07
2.37248e-06
2.37287e-06
1.4308e-06
5.59328e-06
1.32967e-06
6.13637e-06
2.12844e-05
2.31105e-05
1.4312e-06
5.59395e-06
1.32973e-06
6.13702e-06
4.45572e-07
4.45573e-07
4.45573e-07
4.13542e-07
4.13542e-07
4.13543e-07
4.13543e-07
5.87084e-07
1.19483e-06
4.46434e-07
4.44291e-07
5.73801e-07
1.20431e-06
4.3569e-07
2.12866e-05
2.31142e-05
5.87102e-07
4.46435e-07
1.19484e-06
4.44294e-07
5.73811e-07
4.35692e-07
1.2044e-06
2.31171e-06
2.31222e-06
4.53488e-07
2.35332e-06
2.35378e-06
1.66327e-06
6.91799e-06
1.59584e-06
7.32014e-06
2.46404e-05
2.4937e-05
1.66337e-06
6.91882e-06
1.59576e-06
7.3211e-06
4.03752e-07
4.03753e-07
4.03753e-07
3.76689e-07
3.76689e-07
3.76691e-07
3.7669e-07
6.15569e-07
1.24281e-06
4.06546e-07
4.10617e-07
6.08379e-07
1.26558e-06
3.97729e-07
2.46435e-05
2.49405e-05
6.15585e-07
4.06547e-07
1.24291e-06
4.10622e-07
6.08396e-07
3.97732e-07
1.26574e-06
2.47396e-06
2.47444e-06
4.3018e-07
2.53268e-06
2.53316e-06
1.81233e-06
7.84632e-06
1.77234e-06
8.09934e-06
2.47364e-05
2.44304e-05
1.81247e-06
7.84728e-06
1.77234e-06
8.10062e-06
3.68362e-07
3.68365e-07
3.68364e-07
3.45192e-07
3.45192e-07
3.45195e-07
3.45194e-07
6.26293e-07
1.31313e-06
3.73478e-07
3.81656e-07
6.24882e-07
1.33369e-06
3.66029e-07
2.47388e-05
2.4434e-05
6.26306e-07
3.7348e-07
1.31321e-06
3.81662e-07
6.24894e-07
3.66032e-07
1.33386e-06
2.63523e-06
2.63572e-06
4.08471e-07
2.67931e-06
2.67981e-06
1.89283e-06
8.39544e-06
1.87319e-06
8.52965e-06
2.36923e-05
2.3265e-05
1.89299e-06
8.39672e-06
1.87321e-06
8.5311e-06
3.38014e-07
3.38017e-07
3.38016e-07
3.17912e-07
3.17911e-07
3.17915e-07
3.17914e-07
6.22109e-07
1.37211e-06
3.45239e-07
3.55922e-07
6.25445e-07
1.3871e-06
3.38764e-07
2.3694e-05
2.32683e-05
6.22123e-07
3.45241e-07
1.37219e-06
3.5593e-07
6.25457e-07
3.38768e-07
1.38726e-06
2.76344e-06
2.76399e-06
3.86837e-07
2.80525e-06
2.80579e-06
1.92988e-06
8.66276e-06
1.92179e-06
8.71867e-06
2.25015e-05
2.21201e-05
1.93005e-06
8.66428e-06
1.92183e-06
8.72019e-06
3.11645e-07
3.11649e-07
3.11648e-07
2.94001e-07
2.94e-07
2.94004e-07
2.94002e-07
6.08887e-07
1.41603e-06
3.20492e-07
3.32668e-07
6.15378e-07
1.42751e-06
3.14745e-07
2.25027e-05
2.21229e-05
6.08901e-07
3.20493e-07
1.4161e-06
3.32677e-07
6.15391e-07
3.14749e-07
1.42769e-06
2.89514e-06
2.89573e-06
3.65487e-07
2.94367e-06
2.9443e-06
1.94789e-06
8.75932e-06
1.94362e-06
8.77084e-06
2.14771e-05
2.11782e-05
1.94807e-06
8.76079e-06
1.94366e-06
8.77228e-06
2.88472e-07
2.88476e-07
2.88475e-07
2.72839e-07
2.72838e-07
2.72842e-07
2.72841e-07
5.91864e-07
1.45272e-06
2.98409e-07
3.11548e-07
5.99369e-07
1.46402e-06
2.93242e-07
2.14781e-05
2.11807e-05
5.91878e-07
2.98411e-07
1.45278e-06
3.11557e-07
5.99382e-07
2.93246e-07
1.46418e-06
3.04862e-06
3.0493e-06
3.4506e-07
3.10592e-06
3.1067e-06
1.96557e-06
8.76869e-06
1.95959e-06
8.76318e-06
2.0674e-05
2.04526e-05
1.96575e-06
8.7701e-06
1.95963e-06
8.76474e-06
2.67922e-07
2.67926e-07
2.67925e-07
2.53977e-07
2.53976e-07
2.5398e-07
2.53978e-07
5.75448e-07
1.49163e-06
2.785e-07
2.92425e-07
5.82273e-07
1.50549e-06
2.73825e-07
2.06754e-05
2.04547e-05
5.75465e-07
2.78501e-07
1.49169e-06
2.92434e-07
5.82287e-07
2.73829e-07
1.50564e-06
3.2258e-06
3.22662e-06
3.26205e-07
3.2914e-06
3.29235e-06
1.99554e-06
8.74913e-06
1.98437e-06
8.74313e-06
2.00716e-05
1.99105e-05
1.99569e-06
8.75075e-06
1.9844e-06
8.74451e-06
2.49579e-07
2.49583e-07
2.49581e-07
2.37082e-07
2.37081e-07
2.37086e-07
2.37084e-07
5.629e-07
1.5398e-06
2.60474e-07
2.75263e-07
5.67829e-07
1.55771e-06
2.56239e-07
2.00735e-05
1.99122e-05
5.62916e-07
2.60475e-07
1.53991e-06
2.75272e-07
5.67846e-07
2.56243e-07
1.55782e-06
3.4217e-06
3.42266e-06
3.09451e-07
3.49274e-06
3.49389e-06
2.04523e-06
8.73365e-06
2.02681e-06
8.73135e-06
1.9632e-05
1.95162e-05
2.04537e-06
8.73501e-06
2.02681e-06
8.73289e-06
2.33136e-07
2.3314e-07
2.33138e-07
2.21911e-07
2.2191e-07
2.21914e-07
2.21913e-07
5.565e-07
1.60103e-06
2.44157e-07
2.60063e-07
5.58643e-07
1.62362e-06
2.4033e-07
1.96341e-05
1.95177e-05
5.56518e-07
2.44158e-07
1.60115e-06
2.60072e-07
5.5866e-07
2.40334e-07
1.62368e-06
3.62737e-06
3.62846e-06
2.95168e-07
3.70144e-06
3.70283e-06
2.11897e-06
8.73093e-06
2.09204e-06
8.7337e-06
1.93177e-05
1.92355e-05
2.11916e-06
8.73251e-06
2.092e-06
8.73539e-06
2.18365e-07
2.18369e-07
2.18367e-07
2.08276e-07
2.08275e-07
2.08279e-07
2.08277e-07
5.57606e-07
1.67653e-06
2.29438e-07
2.46831e-07
5.56738e-07
1.70366e-06
2.25997e-07
1.93188e-05
1.92379e-05
5.57624e-07
2.29439e-07
1.67643e-06
2.4684e-07
5.56754e-07
2.26001e-07
1.70396e-06
3.83603e-06
3.83728e-06
2.83643e-07
3.90953e-06
3.91112e-06
2.21872e-06
8.7402e-06
2.18282e-06
8.74738e-06
1.90958e-05
1.90402e-05
2.21893e-06
8.74203e-06
2.18285e-06
8.74916e-06
2.05089e-07
2.05093e-07
2.05092e-07
1.9603e-07
1.96029e-07
1.96033e-07
1.96031e-07
5.66948e-07
1.76535e-06
2.16237e-07
2.35565e-07
5.63101e-07
1.79681e-06
2.13166e-07
1.90982e-05
1.90415e-05
5.66975e-07
2.16238e-07
1.76548e-06
2.35575e-07
5.63124e-07
2.1317e-07
1.79701e-06
4.03922e-06
4.04063e-06
2.75001e-07
4.10843e-06
4.1102e-06
2.34374e-06
8.75849e-06
2.29946e-06
8.76698e-06
1.89422e-05
1.89037e-05
2.34433e-06
8.76024e-06
2.29936e-06
8.76881e-06
1.93171e-07
1.93175e-07
1.93173e-07
1.85053e-07
1.85052e-07
1.85056e-07
1.85055e-07
5.85864e-07
1.86574e-06
2.04494e-07
2.2627e-07
5.78758e-07
1.90026e-06
2.01779e-07
1.89441e-05
1.89053e-05
5.85894e-07
2.04495e-07
1.86597e-06
2.26282e-07
5.7879e-07
2.01783e-07
1.9004e-06
4.22929e-06
4.23085e-06
2.69475e-07
4.29599e-06
4.29789e-06
2.492e-06
8.77932e-06
2.43868e-06
8.7885e-06
1.88345e-05
1.88076e-05
2.49255e-06
8.7814e-06
2.43844e-06
8.79012e-06
1.82497e-07
1.82501e-07
1.82499e-07
1.75253e-07
1.75252e-07
1.75256e-07
1.75254e-07
6.14906e-07
1.97448e-06
1.94157e-07
2.18953e-07
6.04372e-07
2.01145e-06
1.91785e-07
1.88362e-05
1.88092e-05
6.1494e-07
1.94158e-07
1.97474e-06
2.18964e-07
6.04408e-07
1.9179e-07
2.01159e-06
4.40462e-06
4.40631e-06
2.67052e-07
4.46195e-06
4.46392e-06
2.65687e-06
8.79995e-06
2.59691e-06
8.80867e-06
1.8757e-05
1.87363e-05
2.65743e-06
8.80203e-06
2.59662e-06
8.81037e-06
1.72978e-07
1.72982e-07
1.7298e-07
1.66551e-07
1.66549e-07
1.66554e-07
1.66552e-07
6.54322e-07
2.08888e-06
1.85183e-07
2.1362e-07
6.40334e-07
2.1264e-06
1.83145e-07
1.87589e-05
1.87379e-05
6.5436e-07
1.85183e-07
2.08899e-06
2.13636e-07
6.40374e-07
1.83149e-07
2.12663e-06
4.55804e-06
4.55982e-06
2.67678e-07
4.60943e-06
4.61146e-06
2.83128e-06
8.81905e-06
2.76778e-06
8.82684e-06
1.86965e-05
1.86821e-05
2.83183e-06
8.82104e-06
2.76753e-06
8.82867e-06
1.6454e-07
1.64545e-07
1.64542e-07
1.58882e-07
1.5888e-07
1.58886e-07
1.58883e-07
7.04073e-07
2.20462e-06
1.77535e-07
2.1028e-07
6.86704e-07
2.24235e-06
1.75823e-07
1.86973e-05
1.86844e-05
7.04109e-07
1.77535e-07
2.20467e-06
2.10295e-07
6.86744e-07
1.75827e-07
2.24263e-06
4.69015e-06
4.69196e-06
2.71499e-07
4.73583e-06
4.7379e-06
3.00726e-06
8.8364e-06
2.9433e-06
8.84356e-06
1.86482e-05
1.86357e-05
3.00783e-06
8.83832e-06
2.94306e-06
8.84545e-06
1.5712e-07
1.57125e-07
1.57122e-07
1.52192e-07
1.52191e-07
1.52196e-07
1.52193e-07
7.63684e-07
2.31908e-06
1.71187e-07
2.08949e-07
7.43127e-07
2.35589e-06
1.69794e-07
1.865e-05
1.86375e-05
7.63729e-07
1.71186e-07
2.31914e-06
2.08971e-07
7.43163e-07
1.69799e-07
2.35619e-06
4.80438e-06
4.80622e-06
2.78684e-07
4.83953e-06
4.84162e-06
3.17665e-06
8.85238e-06
3.11528e-06
8.85911e-06
1.86061e-05
1.85939e-05
3.17723e-06
8.85429e-06
3.11507e-06
8.861e-06
1.50666e-07
1.50672e-07
1.50669e-07
1.46434e-07
1.46432e-07
1.46439e-07
1.46435e-07
8.32138e-07
2.42951e-06
1.6612e-07
2.09657e-07
8.08792e-07
2.46435e-06
1.65045e-07
1.86085e-05
1.85952e-05
8.32185e-07
1.6612e-07
2.42971e-06
2.0968e-07
8.08832e-07
1.6505e-07
2.46459e-06
4.89828e-06
4.90016e-06
2.89257e-07
4.92611e-06
4.92821e-06
3.33253e-06
8.86741e-06
3.27631e-06
8.87382e-06
1.85673e-05
1.85565e-05
3.3331e-06
8.86937e-06
3.27613e-06
8.87576e-06
1.45134e-07
1.45141e-07
1.45137e-07
1.41572e-07
1.41569e-07
1.41576e-07
1.41572e-07
9.07934e-07
2.5336e-06
1.62328e-07
2.1243e-07
8.82355e-07
2.56594e-06
1.61567e-07
1.85696e-05
1.85574e-05
9.07982e-07
1.62328e-07
2.53385e-06
2.12458e-07
8.82399e-07
1.61571e-07
2.56616e-06
4.97496e-06
4.97684e-06
3.03239e-07
4.9978e-06
4.9999e-06
3.47003e-06
8.88184e-06
3.42075e-06
8.88791e-06
1.85314e-05
1.85214e-05
3.47062e-06
8.88372e-06
3.42058e-06
8.88976e-06
1.40489e-07
1.40496e-07
1.40492e-07
1.37573e-07
1.3757e-07
1.37579e-07
1.37574e-07
9.89111e-07
2.62984e-06
1.59809e-07
2.17293e-07
9.61997e-07
2.65938e-06
1.59362e-07
1.85334e-05
1.85226e-05
9.89158e-07
1.5981e-07
2.63008e-06
2.17325e-07
9.62044e-07
1.59366e-07
2.65961e-06
5.03784e-06
5.03973e-06
3.20628e-07
5.05652e-06
5.05859e-06
3.58668e-06
8.89546e-06
3.54528e-06
8.90109e-06
1.84976e-05
1.84884e-05
3.58728e-06
8.89722e-06
3.54511e-06
8.90284e-06
1.367e-07
1.36709e-07
1.36704e-07
1.07344e-06
2.71746e-06
1.58573e-07
2.2427e-07
1.04555e-06
2.74402e-06
1.5844e-07
1.84998e-05
1.84903e-05
1.07349e-06
1.58575e-07
2.71765e-06
2.24303e-07
1.0456e-06
1.58444e-07
2.74433e-06
5.08934e-06
5.09122e-06
3.41362e-07
5.10451e-06
5.10658e-06
5.35256e-07
5.3599e-07
5.35988e-07
1.0916e-05
5.81346e-07
1.09173e-05
5.81338e-07
5.28206e-07
2.43128e-06
2.43221e-06
5.40833e-07
5.4083e-07
5.34573e-07
5.35517e-07
5.33635e-07
5.35654e-07
5.34573e-07
5.35517e-07
5.33634e-07
5.35655e-07
5.30398e-07
3.47217e-06
5.68207e-07
8.21115e-07
5.30398e-07
3.47219e-06
5.68206e-07
8.21079e-07
5.29522e-07
5.2838e-07
1.1669e-06
5.09601e-07
5.32664e-07
5.28352e-07
5.19211e-07
5.29522e-07
5.2838e-07
1.16705e-06
5.09601e-07
5.32664e-07
5.28352e-07
5.19213e-07
5.35256e-07
5.35989e-07
5.35988e-07
1.09162e-05
5.81325e-07
5.28207e-07
2.43175e-06
2.43189e-06
5.40834e-07
5.4083e-07
1.09169e-05
5.81319e-07
5.34573e-07
5.35516e-07
5.33634e-07
5.35654e-07
5.34573e-07
5.35517e-07
5.35654e-07
5.33634e-07
5.30398e-07
3.47251e-06
5.68204e-07
8.21259e-07
5.29522e-07
5.2838e-07
1.16717e-06
5.09601e-07
5.32663e-07
5.28352e-07
5.19219e-07
5.30398e-07
3.4726e-06
5.68203e-07
8.21162e-07
5.29522e-07
5.2838e-07
5.09601e-07
1.16707e-06
5.28352e-07
5.32663e-07
5.19214e-07
5.35663e-07
5.35601e-07
5.35655e-07
5.35655e-07
5.35663e-07
5.35601e-07
5.35655e-07
5.35655e-07
5.35663e-07
5.35601e-07
5.35655e-07
5.35655e-07
5.28434e-07
5.28376e-07
5.09725e-07
5.09725e-07
5.28408e-07
5.28408e-07
5.09782e-07
5.28434e-07
5.28375e-07
5.09725e-07
5.09725e-07
5.28408e-07
5.28408e-07
5.09782e-07
5.28434e-07
5.28375e-07
5.09725e-07
5.09725e-07
5.28408e-07
5.28408e-07
5.09782e-07
5.28434e-07
5.28375e-07
5.09725e-07
5.09725e-07
5.28408e-07
5.28408e-07
5.09782e-07
5.34573e-07
5.35517e-07
5.35654e-07
5.33634e-07
5.29522e-07
5.2838e-07
1.16711e-06
5.09601e-07
5.32663e-07
5.28352e-07
5.19217e-07
5.30398e-07
3.47239e-06
5.68198e-07
8.21168e-07
5.29522e-07
5.2838e-07
5.09601e-07
1.16699e-06
5.28352e-07
5.32662e-07
5.19213e-07
5.30398e-07
3.47253e-06
5.68203e-07
8.21114e-07
5.35256e-07
5.35987e-07
5.35986e-07
1.09175e-05
5.81335e-07
5.28206e-07
2.43203e-06
2.43187e-06
5.4083e-07
5.40827e-07
1.09174e-05
5.81314e-07
5.34573e-07
5.35517e-07
5.35654e-07
5.33634e-07
5.29522e-07
5.2838e-07
5.09602e-07
1.16705e-06
5.28352e-07
5.32662e-07
5.19217e-07
5.29522e-07
5.2838e-07
5.09601e-07
1.16717e-06
5.28352e-07
5.32664e-07
5.19219e-07
5.30398e-07
3.47256e-06
5.68197e-07
8.21239e-07
5.30397e-07
3.47257e-06
5.68208e-07
8.21326e-07
5.28206e-07
2.43168e-06
2.43234e-06
5.40828e-07
5.40829e-07
1.09172e-05
5.81318e-07
1.09174e-05
5.81332e-07
1.26079e-05
1.66002e-05
1.26095e-05
1.66028e-05
2.52167e-06
2.52241e-06
4.84189e-07
2.37213e-06
2.37287e-06
2.05303e-05
1.76846e-05
2.05338e-05
1.76876e-05
4.793e-07
2.30606e-06
2.30672e-06
2.33927e-06
2.34001e-06
1.10698e-06
3.88079e-06
9.34005e-07
4.60605e-06
5.4313e-07
1.22014e-06
4.95565e-07
4.85525e-07
5.25354e-07
1.20939e-06
4.82301e-07
5.43126e-07
1.22032e-06
4.95565e-07
4.85532e-07
5.25362e-07
1.20963e-06
4.82301e-07
1.16104e-06
5.40819e-06
4.81015e-06
1.28052e-06
1.16115e-06
5.40815e-06
4.81019e-06
1.28052e-06
5.50998e-07
4.74299e-07
1.19322e-06
4.57763e-07
1.20475e-06
4.69711e-07
5.66396e-07
5.51001e-07
4.74307e-07
1.1934e-06
4.57763e-07
1.20492e-06
4.69711e-07
5.66391e-07
2.52215e-06
2.5219e-06
4.84188e-07
2.37275e-06
2.37224e-06
1.26086e-05
1.66014e-05
2.05315e-05
1.76864e-05
4.793e-07
2.30659e-06
2.30629e-06
2.33979e-06
2.33961e-06
2.05316e-05
1.76854e-05
5.43162e-07
1.22041e-06
4.95565e-07
4.85529e-07
5.25355e-07
1.20967e-06
4.82302e-07
1.1072e-06
3.8813e-06
9.33771e-07
4.60692e-06
5.43157e-07
4.95565e-07
1.22037e-06
4.85533e-07
5.25344e-07
4.82302e-07
1.20966e-06
1.16106e-06
5.40867e-06
4.81049e-06
1.28068e-06
5.51e-07
4.74305e-07
1.19342e-06
4.57763e-07
1.20493e-06
4.6971e-07
5.66412e-07
1.16105e-06
5.40921e-06
4.81091e-06
1.28067e-06
5.51e-07
4.74309e-07
4.57764e-07
1.19347e-06
4.69711e-07
1.20498e-06
5.66419e-07
1.10713e-06
3.88077e-06
9.33861e-07
4.60639e-06
5.43142e-07
4.95565e-07
1.22023e-06
4.85525e-07
5.2533e-07
4.82302e-07
1.20952e-06
1.10715e-06
3.88129e-06
9.33699e-07
4.60654e-06
5.50996e-07
4.74296e-07
1.19322e-06
4.57762e-07
1.20475e-06
4.6971e-07
5.66399e-07
1.16107e-06
5.40829e-06
4.8099e-06
1.28062e-06
5.50994e-07
4.743e-07
4.57763e-07
1.19328e-06
4.69711e-07
1.20474e-06
5.66397e-07
1.16098e-06
5.40859e-06
4.81077e-06
1.28059e-06
2.52234e-06
2.52183e-06
4.84191e-07
2.37286e-06
2.37211e-06
1.26094e-05
1.66017e-05
2.05349e-05
1.76878e-05
4.79301e-07
2.30678e-06
2.30623e-06
2.33994e-06
2.33946e-06
2.05324e-05
1.76872e-05
5.4317e-07
4.95565e-07
1.2204e-06
4.8553e-07
5.25332e-07
4.82302e-07
1.20966e-06
1.1074e-06
3.88125e-06
9.33639e-07
4.60662e-06
1.10746e-06
3.88114e-06
9.33755e-07
4.60653e-06
5.50995e-07
4.74297e-07
4.57763e-07
1.19327e-06
4.6971e-07
1.20481e-06
5.66411e-07
5.50994e-07
4.74304e-07
4.57763e-07
1.1934e-06
4.69711e-07
1.20491e-06
5.66418e-07
1.16083e-06
5.40885e-06
4.81075e-06
1.2807e-06
1.16085e-06
5.40882e-06
4.8105e-06
1.28073e-06
1.2609e-05
1.66017e-05
1.26095e-05
1.66024e-05
4.79301e-07
2.30619e-06
2.30669e-06
2.33915e-06
2.33997e-06
2.05317e-05
1.76866e-05
2.05333e-05
1.76879e-05
2.12824e-05
2.31089e-05
2.12862e-05
2.31129e-05
2.31156e-06
2.31225e-06
4.53484e-07
2.35305e-06
2.35365e-06
2.44706e-05
2.35336e-05
2.44741e-05
2.35373e-05
4.50883e-07
2.44249e-06
2.44307e-06
2.3811e-06
2.38167e-06
1.43079e-06
5.59335e-06
1.32965e-06
6.13649e-06
5.87083e-07
1.19482e-06
4.46435e-07
4.44297e-07
5.73802e-07
1.20433e-06
4.35691e-07
5.87078e-07
1.19497e-06
4.46435e-07
4.44306e-07
5.73798e-07
1.20451e-06
4.35692e-07
1.47492e-06
6.77815e-06
6.30105e-06
1.55763e-06
1.47489e-06
6.77822e-06
6.30108e-06
1.5576e-06
5.93329e-07
4.35315e-07
1.23132e-06
4.15788e-07
1.21235e-06
4.2549e-07
6.03618e-07
5.9332e-07
4.35324e-07
1.23144e-06
4.15789e-07
1.21251e-06
4.2549e-07
6.03613e-07
2.31203e-06
2.31175e-06
4.5348e-07
2.3535e-06
2.35316e-06
2.12831e-05
2.311e-05
2.44716e-05
2.35355e-05
4.50881e-07
2.44294e-06
2.44241e-06
2.38152e-06
2.38146e-06
2.44713e-05
2.35344e-05
5.87101e-07
1.19503e-06
4.46435e-07
4.443e-07
5.73817e-07
1.20451e-06
4.35692e-07
1.4312e-06
5.59426e-06
1.32973e-06
6.13778e-06
5.87103e-07
4.46436e-07
1.19504e-06
4.44309e-07
5.73819e-07
4.35693e-07
1.20458e-06
1.47467e-06
6.77883e-06
6.30184e-06
1.55789e-06
5.93343e-07
4.35318e-07
1.23145e-06
4.1579e-07
1.21252e-06
4.2549e-07
6.03633e-07
1.47467e-06
6.77958e-06
6.30217e-06
1.5579e-06
5.93349e-07
4.35328e-07
4.15791e-07
1.23151e-06
4.25492e-07
1.21265e-06
6.0364e-07
1.43097e-06
5.59323e-06
1.32963e-06
6.13656e-06
5.87088e-07
4.46435e-07
1.19486e-06
4.44299e-07
5.73804e-07
4.35692e-07
1.20444e-06
1.43085e-06
5.59393e-06
1.32973e-06
6.13702e-06
5.93324e-07
4.35309e-07
1.23124e-06
4.15787e-07
1.21237e-06
4.25489e-07
6.0362e-07
1.47479e-06
6.77836e-06
6.30099e-06
1.55767e-06
5.93328e-07
4.35318e-07
4.15789e-07
1.23137e-06
4.2549e-07
1.21244e-06
6.03623e-07
1.47482e-06
6.77891e-06
6.30176e-06
1.55769e-06
2.3123e-06
2.31148e-06
4.53489e-07
2.35376e-06
2.35319e-06
2.12848e-05
2.31112e-05
2.44755e-05
2.35386e-05
4.50886e-07
2.44313e-06
2.44261e-06
2.38208e-06
2.38128e-06
2.44723e-05
2.35364e-05
5.87099e-07
4.46435e-07
1.19496e-06
4.44303e-07
5.73809e-07
4.35692e-07
1.20454e-06
1.4312e-06
5.594e-06
1.32972e-06
6.13721e-06
1.43107e-06
5.59387e-06
1.32971e-06
6.13716e-06
5.93341e-07
4.35311e-07
4.15789e-07
1.23134e-06
4.2549e-07
1.21241e-06
6.03638e-07
5.93338e-07
4.35318e-07
4.15789e-07
1.23146e-06
4.2549e-07
1.21254e-06
6.03636e-07
1.47465e-06
6.7789e-06
6.30178e-06
1.5579e-06
1.47468e-06
6.77902e-06
6.30184e-06
1.55791e-06
2.12848e-05
2.31114e-05
2.12865e-05
2.31129e-05
4.50885e-07
2.4427e-06
2.44317e-06
2.38133e-06
2.38178e-06
2.44726e-05
2.35365e-05
2.4474e-05
2.35381e-05
2.46394e-05
2.49361e-05
2.46423e-05
2.49391e-05
2.47403e-06
2.4743e-06
4.30176e-07
2.53246e-06
2.53308e-06
2.48375e-05
2.49381e-05
2.48402e-05
2.49408e-05
4.28476e-07
2.61087e-06
2.61149e-06
2.56084e-06
2.56115e-06
1.66324e-06
6.91798e-06
1.59581e-06
7.32035e-06
6.15566e-07
1.24289e-06
4.06547e-07
4.10628e-07
6.0838e-07
1.26565e-06
3.9773e-07
6.15561e-07
1.24295e-06
4.06548e-07
4.10635e-07
6.08375e-07
1.26579e-06
3.97731e-07
1.69464e-06
7.75901e-06
7.43359e-06
1.74774e-06
1.69461e-06
7.75933e-06
7.43352e-06
1.74771e-06
6.18842e-07
4.03022e-07
1.30099e-06
3.81227e-07
1.27831e-06
3.89301e-07
6.23022e-07
6.18837e-07
4.03029e-07
1.30115e-06
3.81228e-07
1.2784e-06
3.89302e-07
6.23018e-07
2.47422e-06
2.47401e-06
4.30168e-07
2.53297e-06
2.53235e-06
2.46395e-05
2.49364e-05
2.48384e-05
2.49388e-05
4.28472e-07
2.6114e-06
2.6107e-06
2.56109e-06
2.56078e-06
2.48376e-05
2.49381e-05
6.15589e-07
1.24297e-06
4.06548e-07
4.10626e-07
6.08402e-07
1.26581e-06
3.97732e-07
1.66337e-06
6.91919e-06
1.59576e-06
7.32187e-06
6.15591e-07
4.0655e-07
1.24309e-06
4.10641e-07
6.084e-07
3.97733e-07
1.26586e-06
1.69462e-06
7.76023e-06
7.43447e-06
1.74786e-06
6.18862e-07
4.03019e-07
1.30119e-06
3.8123e-07
1.27848e-06
3.89301e-07
6.23046e-07
1.69462e-06
7.76075e-06
7.4347e-06
1.74786e-06
6.18864e-07
4.03035e-07
3.81231e-07
1.30121e-06
3.89304e-07
1.27854e-06
6.23047e-07
1.66332e-06
6.91792e-06
1.59588e-06
7.32052e-06
6.15572e-07
4.06548e-07
1.24288e-06
4.10631e-07
6.08382e-07
3.97731e-07
1.26572e-06
1.66332e-06
6.91869e-06
1.5959e-06
7.32104e-06
6.18843e-07
4.0301e-07
1.30093e-06
3.81226e-07
1.27824e-06
3.893e-07
6.23026e-07
1.69468e-06
7.75953e-06
7.43347e-06
1.74778e-06
6.18845e-07
4.03025e-07
3.81228e-07
1.30107e-06
3.89302e-07
1.27832e-06
6.23028e-07
1.69468e-06
7.75999e-06
7.4342e-06
1.74777e-06
2.4747e-06
2.47393e-06
4.30182e-07
2.53313e-06
2.53264e-06
2.46412e-05
2.49377e-05
2.48413e-05
2.4942e-05
4.28482e-07
2.61154e-06
2.61106e-06
2.56154e-06
2.56076e-06
2.48391e-05
2.49396e-05
6.15584e-07
4.06549e-07
1.24298e-06
4.10628e-07
6.08396e-07
3.97732e-07
1.26582e-06
1.66336e-06
6.91876e-06
1.59575e-06
7.32119e-06
1.66338e-06
6.91883e-06
1.59577e-06
7.32124e-06
6.18858e-07
4.03015e-07
3.81229e-07
1.30109e-06
3.89301e-07
1.27833e-06
6.2304e-07
6.18859e-07
4.03021e-07
3.81229e-07
1.30117e-06
3.89303e-07
1.27843e-06
6.2304e-07
1.69461e-06
7.76004e-06
7.43428e-06
1.74785e-06
1.69462e-06
7.76028e-06
7.43443e-06
1.74786e-06
2.46414e-05
2.4938e-05
2.46429e-05
2.49393e-05
4.2848e-07
2.61107e-06
2.61156e-06
2.56079e-06
2.56127e-06
2.48393e-05
2.49398e-05
2.48404e-05
2.4941e-05
2.47357e-05
2.44299e-05
2.47377e-05
2.44325e-05
2.63527e-06
2.63561e-06
4.08467e-07
2.67915e-06
2.67976e-06
2.38693e-05
2.42708e-05
2.38719e-05
2.4273e-05
4.06875e-07
2.74221e-06
2.74283e-06
2.70089e-06
2.70151e-06
1.81231e-06
7.84636e-06
1.77232e-06
8.0997e-06
6.26287e-07
1.31319e-06
3.7348e-07
3.81671e-07
6.24879e-07
1.33375e-06
3.6603e-07
6.26284e-07
1.31329e-06
3.73481e-07
3.81676e-07
6.24876e-07
1.33392e-06
3.66031e-07
1.83091e-06
8.35174e-06
8.16323e-06
1.85965e-06
1.8309e-06
8.3521e-06
8.16334e-06
1.85964e-06
6.26731e-07
3.74974e-07
1.36249e-06
3.51931e-07
1.34469e-06
3.58854e-07
6.25634e-07
6.26729e-07
3.74979e-07
1.36268e-06
3.51932e-07
1.34488e-06
3.58856e-07
6.25632e-07
2.63557e-06
2.63518e-06
4.08458e-07
2.67968e-06
2.67895e-06
2.47353e-05
2.44304e-05
2.38699e-05
2.42719e-05
4.06869e-07
2.74275e-06
2.74201e-06
2.70149e-06
2.70107e-06
2.38701e-05
2.42707e-05
6.26314e-07
1.31333e-06
3.7348e-07
3.81664e-07
6.249e-07
1.33396e-06
3.66032e-07
1.81246e-06
7.84757e-06
1.77233e-06
8.10117e-06
6.26314e-07
3.73483e-07
1.31342e-06
3.81683e-07
6.24902e-07
3.66034e-07
1.33398e-06
1.83093e-06
8.35314e-06
8.16433e-06
1.85981e-06
6.26755e-07
3.74966e-07
1.36271e-06
3.51933e-07
1.34491e-06
3.58855e-07
6.25664e-07
1.83092e-06
8.35348e-06
8.16451e-06
1.8598e-06
6.26756e-07
3.74986e-07
3.51935e-07
1.36272e-06
3.58858e-07
1.34501e-06
6.25663e-07
1.81237e-06
7.84631e-06
1.77239e-06
8.09987e-06
6.26294e-07
3.7348e-07
1.31321e-06
3.81674e-07
6.24882e-07
3.66031e-07
1.33384e-06
1.81236e-06
7.84705e-06
1.77238e-06
8.10035e-06
6.26736e-07
3.74958e-07
1.36244e-06
3.5193e-07
1.34472e-06
3.58853e-07
6.25642e-07
1.83096e-06
8.35231e-06
8.16338e-06
1.8597e-06
6.26735e-07
3.74977e-07
3.51932e-07
1.36259e-06
3.58855e-07
1.3448e-06
6.25641e-07
1.83095e-06
8.35262e-06
8.16391e-06
1.85969e-06
2.63596e-06
2.63519e-06
4.08473e-07
2.6798e-06
2.6793e-06
2.47372e-05
2.44309e-05
2.38734e-05
2.42739e-05
4.06882e-07
2.74289e-06
2.74234e-06
2.70187e-06
2.70109e-06
2.38706e-05
2.42727e-05
6.26308e-07
3.73481e-07
1.31332e-06
3.81666e-07
6.24897e-07
3.66032e-07
1.33394e-06
1.81245e-06
7.84714e-06
1.77232e-06
8.10045e-06
1.81247e-06
7.84733e-06
1.77234e-06
8.10066e-06
6.26748e-07
3.74965e-07
3.51933e-07
1.3626e-06
3.58855e-07
1.3448e-06
6.25655e-07
6.26751e-07
3.74968e-07
3.51933e-07
1.3627e-06
3.58856e-07
1.34492e-06
6.25657e-07
1.83091e-06
8.35275e-06
8.16409e-06
1.85979e-06
1.83092e-06
8.3529e-06
8.16425e-06
1.85981e-06
2.47375e-05
2.44313e-05
2.47386e-05
2.44321e-05
4.0688e-07
2.74237e-06
2.74289e-06
2.70113e-06
2.70164e-06
2.38708e-05
2.42728e-05
2.38714e-05
2.42737e-05
2.36914e-05
2.32643e-05
2.36932e-05
2.32669e-05
2.76334e-06
2.76403e-06
3.86832e-07
2.80509e-06
2.8057e-06
2.26714e-05
2.30854e-05
2.26738e-05
2.30868e-05
3.85288e-07
2.87158e-06
2.87212e-06
2.82709e-06
2.82781e-06
1.89282e-06
8.39575e-06
1.87318e-06
8.53006e-06
6.22101e-07
1.37209e-06
3.4524e-07
3.5594e-07
6.25439e-07
1.38715e-06
3.38766e-07
6.221e-07
1.37227e-06
3.45242e-07
3.55944e-07
6.25438e-07
1.38734e-06
3.38767e-07
1.90238e-06
8.64737e-06
8.5571e-06
1.91515e-06
1.90237e-06
8.64778e-06
8.55757e-06
1.91514e-06
6.21488e-07
3.49913e-07
1.40847e-06