/*--------------------------------*- C++ -*----------------------------------*\
| =========                 |                                                 |
| \\      /  F ield         | OpenFOAM: The Open Source CFD Toolbox           |
|  \\    /   O peration     | Version:  v1906                                 |
|   \\  /    A nd           | Web:      www.OpenFOAM.com                      |
|    \\/     M anipulation  |                                                 |
\*---------------------------------------------------------------------------*/
FoamFile
{
    version     2.0;
    format      ascii;
    class       volScalarField;
    location    "250";
    object      epsilon;
}
// * * * * * * * * * * * * * * * * * * * * * * * * * * * * * * * * * * * * * //

dimensions      [0 2 -3 0 0 0 0];


internalField   nonuniform List<scalar> 
42840
(
5.40095e-07
1.09618e-06
1.09627e-06
1.39566e-06
1.39568e-06
1.39557e-06
1.39343e-06
1.09631e-06
1.09635e-06
1.09631e-06
1.09636e-06
1.39551e-06
1.39338e-06
1.0962e-06
1.09639e-06
1.0962e-06
1.0964e-06
1.0964e-06
1.09619e-06
1.0964e-06
1.3956e-06
1.39348e-06
1.09629e-06
1.09628e-06
1.09629e-06
1.39352e-06
1.09641e-06
1.0963e-06
4.35874e-06
9.77702e-06
9.77718e-06
4.35894e-06
1.94425e-05
1.94438e-05
4.35889e-06
9.77907e-06
9.77923e-06
4.35904e-06
5.40094e-07
5.40188e-07
5.40192e-07
5.40096e-07
5.40097e-07
5.40193e-07
5.40196e-07
2.3367e-06
3.75283e-06
8.03897e-07
1.09618e-06
3.75239e-06
8.03897e-07
2.33706e-06
1.94432e-05
1.94446e-05
2.33671e-06
8.03975e-07
3.75282e-06
1.09627e-06
8.03975e-07
3.75243e-06
2.33705e-06
5.80349e-06
5.80549e-06
1.39347e-06
5.80316e-06
5.80517e-06
5.80352e-06
5.80551e-06
1.94409e-05
1.94422e-05
1.94434e-05
1.94447e-05
5.8034e-06
5.80536e-06
1.3934e-06
5.80308e-06
5.80504e-06
1.94422e-05
1.94409e-05
1.94447e-05
1.94434e-05
1.39553e-06
5.80309e-06
5.80504e-06
5.80338e-06
5.80534e-06
4.35885e-06
9.77818e-06
9.77834e-06
4.35905e-06
2.33659e-06
3.75261e-06
8.03856e-07
1.09631e-06
3.75222e-06
8.03855e-07
2.33692e-06
2.33665e-06
3.75317e-06
8.03892e-07
1.09635e-06
3.75276e-06
8.03891e-07
2.33699e-06
4.35893e-06
9.77718e-06
9.77698e-06
4.35876e-06
4.35904e-06
9.77836e-06
9.77815e-06
4.35886e-06
2.33691e-06
1.09631e-06
3.75223e-06
8.03859e-07
3.7526e-06
8.03858e-07
2.33663e-06
2.33698e-06
1.09635e-06
3.75278e-06
8.03896e-07
3.75316e-06
8.03895e-07
2.3367e-06
5.80524e-06
5.80351e-06
1.39332e-06
5.80491e-06
5.80309e-06
1.94401e-05
1.94415e-05
1.94438e-05
1.94425e-05
1.39547e-06
5.80493e-06
5.80311e-06
5.80522e-06
5.80349e-06
1.94416e-05
1.94401e-05
2.33675e-06
3.7534e-06
8.03927e-07
1.0962e-06
3.75297e-06
8.03931e-07
2.33706e-06
4.3588e-06
9.77837e-06
9.77853e-06
4.35895e-06
2.33667e-06
8.0396e-07
3.75323e-06
1.09639e-06
8.0396e-07
3.75279e-06
2.33699e-06
4.35903e-06
9.77923e-06
9.77903e-06
4.35891e-06
2.33706e-06
1.0962e-06
3.75298e-06
8.03935e-07
3.75339e-06
8.0393e-07
2.33679e-06
4.35894e-06
9.77856e-06
9.77833e-06
4.35882e-06
2.33699e-06
1.09639e-06
8.03966e-07
3.75281e-06
8.03964e-07
3.75323e-06
2.33672e-06
4.35895e-06
9.77818e-06
9.77836e-06
4.35914e-06
2.33664e-06
8.03946e-07
3.75275e-06
1.0964e-06
8.03946e-07
3.75235e-06
2.33699e-06
4.35884e-06
9.77809e-06
9.77827e-06
4.35904e-06
2.33701e-06
1.09618e-06
3.75241e-06
8.03903e-07
3.75282e-06
8.039e-07
2.33678e-06
4.35914e-06
9.7784e-06
9.77817e-06
4.35897e-06
2.33695e-06
1.0964e-06
8.0395e-07
3.75237e-06
8.03949e-07
3.75274e-06
2.33672e-06
4.35904e-06
9.77832e-06
9.77809e-06
4.35887e-06
5.80529e-06
5.80349e-06
1.39342e-06
5.80487e-06
5.80317e-06
1.9442e-05
1.94433e-05
1.94447e-05
1.94432e-05
1.39556e-06
5.8049e-06
5.8032e-06
5.80527e-06
5.80348e-06
1.94434e-05
1.9442e-05
2.33676e-06
8.04005e-07
3.7534e-06
1.09629e-06
8.04005e-07
3.753e-06
2.33709e-06
4.35886e-06
9.77831e-06
9.77848e-06
4.35907e-06
4.3589e-06
9.77914e-06
9.77932e-06
4.35907e-06
2.33701e-06
1.09627e-06
8.0398e-07
3.75245e-06
8.03978e-07
3.75282e-06
2.33673e-06
2.33705e-06
1.09629e-06
8.04009e-07
3.75302e-06
8.04007e-07
3.7534e-06
2.33679e-06
4.35907e-06
9.77852e-06
9.77829e-06
4.35888e-06
4.35907e-06
9.77935e-06
9.77912e-06
4.35893e-06
1.94419e-05
1.94432e-05
1.94439e-05
1.94452e-05
1.39561e-06
5.80318e-06
5.80519e-06
5.80348e-06
5.80548e-06
1.94433e-05
1.94419e-05
1.94452e-05
1.94439e-05
8.03949e-07
3.75277e-06
2.33703e-06
9.77814e-06
4.35908e-06
3.75342e-06
9.77917e-06
1.9442e-05
1.9444e-05
1.28897e-05
1.14467e-05
5.02195e-06
4.35894e-06
1.14464e-05
5.02217e-06
1.28902e-05
2.31924e-05
9.77719e-06
7.41988e-06
7.41931e-06
2.31896e-05
2.31895e-05
7.41929e-06
9.777e-06
7.41986e-06
2.31924e-05
1.28902e-05
4.35874e-06
1.14464e-05
5.02218e-06
1.14467e-05
5.02196e-06
1.28897e-05
1.94438e-05
1.94425e-05
1.289e-05
5.02225e-06
1.14473e-05
4.35903e-06
5.02238e-06
1.14471e-05
1.28905e-05
2.31922e-05
9.77924e-06
7.42139e-06
7.42097e-06
2.31897e-05
2.31896e-05
7.42095e-06
9.77904e-06
7.42136e-06
2.31922e-05
1.28905e-05
4.35888e-06
5.02241e-06
1.14471e-05
5.02224e-06
1.14473e-05
1.28901e-05
1.94446e-05
1.94432e-05
1.02111e-05
2.28187e-05
2.28179e-05
2.28169e-05
2.2816e-05
1.02105e-05
4.84422e-06
3.05641e-06
5.80316e-06
1.01637e-05
3.05618e-06
1.01639e-05
4.84456e-06
4.85011e-06
3.05766e-06
5.80518e-06
1.01686e-05
3.05743e-06
1.01688e-05
4.85043e-06
4.84454e-06
1.01639e-05
5.80348e-06
3.05618e-06
3.0564e-06
1.01637e-05
4.84421e-06
4.85041e-06
1.01688e-05
5.80548e-06
3.05743e-06
3.05765e-06
1.01685e-05
4.85009e-06
1.02106e-05
2.2817e-05
2.28162e-05
2.28188e-05
2.2818e-05
1.02112e-05
4.84422e-06
3.05642e-06
1.01637e-05
5.8032e-06
4.84454e-06
3.05622e-06
1.01639e-05
4.85011e-06
3.05767e-06
1.01685e-05
5.80521e-06
4.85041e-06
3.05748e-06
1.01688e-05
1.02104e-05
2.28168e-05
2.28159e-05
1.0211e-05
2.28187e-05
2.28178e-05
1.94422e-05
1.94409e-05
1.94447e-05
1.94434e-05
1.02111e-05
2.2819e-05
2.28182e-05
2.28172e-05
2.28164e-05
1.02105e-05
4.84422e-06
3.05637e-06
5.80309e-06
1.01638e-05
1.0164e-05
3.05616e-06
4.84454e-06
4.85009e-06
3.0576e-06
5.80504e-06
1.01688e-05
1.0169e-05
3.05737e-06
4.8504e-06
4.84452e-06
1.0164e-05
5.80339e-06
3.05615e-06
1.01638e-05
4.8442e-06
3.05636e-06
4.85038e-06
1.0169e-05
5.80534e-06
3.05737e-06
1.01688e-05
4.85007e-06
3.05759e-06
1.02106e-05
2.28174e-05
2.28166e-05
2.28192e-05
2.28184e-05
1.02112e-05
1.94409e-05
1.94422e-05
1.94434e-05
1.94447e-05
1.02104e-05
2.28171e-05
2.28163e-05
1.0211e-05
2.28189e-05
2.28181e-05
4.84449e-06
3.05615e-06
5.80338e-06
1.0164e-05
1.01637e-05
3.05636e-06
4.84418e-06
4.85035e-06
3.05737e-06
5.80534e-06
1.01689e-05
1.01687e-05
3.05759e-06
4.85005e-06
4.84419e-06
1.01637e-05
3.05636e-06
5.80308e-06
4.8445e-06
1.0164e-05
3.05615e-06
4.85006e-06
1.01687e-05
3.05759e-06
5.80503e-06
4.85036e-06
1.0169e-05
3.05737e-06
1.02109e-05
2.28188e-05
2.2818e-05
2.2817e-05
2.28162e-05
1.02104e-05
1.28898e-05
1.14469e-05
5.02224e-06
4.35904e-06
1.14466e-05
5.0224e-06
1.28902e-05
2.31924e-05
9.77835e-06
7.42146e-06
7.42103e-06
2.31898e-05
2.31898e-05
7.42102e-06
9.77816e-06
7.42144e-06
2.31923e-05
1.28903e-05
4.35885e-06
1.14466e-05
5.02241e-06
1.14468e-05
5.02225e-06
1.28898e-05
1.28902e-05
1.14464e-05
5.02216e-06
4.35874e-06
1.28897e-05
1.14467e-05
5.02195e-06
2.31896e-05
9.77699e-06
7.4193e-06
2.31924e-05
7.41985e-06
2.31924e-05
7.41985e-06
9.77717e-06
2.31895e-05
7.41929e-06
1.28898e-05
4.35894e-06
1.14467e-05
5.02196e-06
1.28902e-05
1.14465e-05
5.02217e-06
1.28903e-05
1.14466e-05
5.02239e-06
4.35885e-06
1.28898e-05
1.14469e-05
5.02224e-06
2.31898e-05
9.77816e-06
7.42103e-06
7.42143e-06
2.31924e-05
2.31923e-05
7.42142e-06
9.77834e-06
2.31898e-05
7.42101e-06
1.28898e-05
4.35905e-06
1.14469e-05
5.02226e-06
1.14466e-05
5.0224e-06
1.28903e-05
1.02106e-05
2.28173e-05
2.28182e-05
2.28155e-05
2.28164e-05
1.021e-05
4.84989e-06
3.05749e-06
5.80491e-06
1.01683e-05
1.01685e-05
3.05725e-06
4.85023e-06
4.84403e-06
3.05632e-06
5.8031e-06
1.01636e-05
3.05608e-06
1.01639e-05
4.84436e-06
4.8502e-06
1.01684e-05
5.80522e-06
3.05725e-06
1.01682e-05
3.05749e-06
4.84987e-06
4.84434e-06
1.01638e-05
5.80349e-06
3.05608e-06
3.05631e-06
1.01636e-05
4.84401e-06
1.02101e-05
2.28156e-05
2.28166e-05
2.28174e-05
2.28184e-05
1.02107e-05
1.94415e-05
1.94401e-05
1.94425e-05
1.94438e-05
1.021e-05
2.28154e-05
2.28163e-05
1.02106e-05
2.28172e-05
2.28181e-05
4.85019e-06
3.05727e-06
5.80523e-06
1.01684e-05
3.0575e-06
1.01682e-05
4.84987e-06
4.84433e-06
3.0561e-06
5.8035e-06
1.01638e-05
1.01636e-05
3.05632e-06
4.84401e-06
4.84986e-06
1.01682e-05
3.05749e-06
5.80491e-06
3.05726e-06
4.85019e-06
1.01684e-05
4.84401e-06
1.01636e-05
3.05631e-06
5.80309e-06
4.84433e-06
1.01638e-05
3.05609e-06
1.02105e-05
2.28172e-05
2.28181e-05
2.28153e-05
2.28162e-05
1.02099e-05
1.94402e-05
1.94415e-05
1.28901e-05
1.14472e-05
5.02205e-06
4.35894e-06
1.14469e-05
5.02226e-06
1.28906e-05
2.31924e-05
9.77855e-06
7.42005e-06
7.41949e-06
2.31896e-05
2.31896e-05
7.41948e-06
9.77834e-06
7.42003e-06
2.31924e-05
1.28906e-05
4.3588e-06
1.14469e-05
5.02227e-06
1.14471e-05
5.02205e-06
1.28901e-05
1.28905e-05
5.02239e-06
1.14471e-05
4.35888e-06
1.28901e-05
5.02223e-06
1.14473e-05
2.31896e-05
9.77903e-06
7.42095e-06
2.31922e-05
7.42135e-06
2.31922e-05
7.42135e-06
9.77922e-06
2.31896e-05
7.42094e-06
1.28901e-05
4.35904e-06
5.02226e-06
1.14474e-05
1.28905e-05
5.02238e-06
1.14471e-05
1.28906e-05
1.14469e-05
5.02226e-06
4.3588e-06
1.28901e-05
1.14472e-05
5.02205e-06
2.31896e-05
9.77835e-06
7.41949e-06
7.42003e-06
2.31925e-05
2.31924e-05
7.42002e-06
9.77853e-06
2.31896e-05
7.41947e-06
1.28901e-05
4.35895e-06
1.14472e-05
5.02207e-06
1.14469e-05
5.02227e-06
1.28906e-05
1.28897e-05
5.02215e-06
1.14472e-05
4.35914e-06
5.0223e-06
1.14469e-05
1.28902e-05
2.31915e-05
9.77837e-06
7.42099e-06
7.42058e-06
2.31889e-05
2.31889e-05
7.42057e-06
9.77817e-06
7.42098e-06
2.31915e-05
1.28901e-05
4.35894e-06
5.02231e-06
1.14469e-05
5.02215e-06
1.14472e-05
1.28897e-05
1.28901e-05
1.14471e-05
5.02196e-06
4.35904e-06
1.14468e-05
5.02211e-06
1.28905e-05
2.3192e-05
9.77827e-06
7.41952e-06
7.4191e-06
2.31894e-05
2.31894e-05
7.4191e-06
9.77808e-06
7.41952e-06
2.3192e-05
1.28905e-05
4.35884e-06
1.14468e-05
5.02211e-06
1.14471e-05
5.02195e-06
1.289e-05
1.28902e-05
5.02231e-06
1.1447e-05
4.35895e-06
1.28897e-05
5.02216e-06
1.14473e-05
2.3189e-05
9.77819e-06
7.4206e-06
7.42099e-06
2.31916e-05
2.31915e-05
7.42097e-06
9.77837e-06
2.31889e-05
7.42058e-06
1.28898e-05
4.35916e-06
5.02218e-06
1.14473e-05
5.02232e-06
1.1447e-05
1.28902e-05
1.28905e-05
1.14468e-05
5.02211e-06
4.35885e-06
1.28901e-05
1.14471e-05
5.02196e-06
2.31895e-05
9.77811e-06
7.41913e-06
7.41954e-06
2.31921e-05
2.3192e-05
7.41952e-06
9.77828e-06
2.31895e-05
7.41911e-06
1.28901e-05
4.35906e-06
1.14472e-05
5.02198e-06
1.14469e-05
5.02212e-06
1.28906e-05
1.02114e-05
2.28183e-05
2.28188e-05
2.28164e-05
2.2817e-05
1.02109e-05
4.85021e-06
3.05758e-06
5.80487e-06
1.01682e-05
1.01685e-05
3.05733e-06
4.85055e-06
4.84435e-06
3.05647e-06
5.80317e-06
1.01637e-05
3.05624e-06
1.01639e-05
4.8447e-06
4.85054e-06
1.01684e-05
5.80528e-06
3.05733e-06
1.01682e-05
3.05758e-06
4.8502e-06
4.84468e-06
1.01639e-05
5.80348e-06
3.05624e-06
3.05646e-06
1.01636e-05
4.84434e-06
1.02109e-05
2.28165e-05
2.2817e-05
2.28184e-05
2.28189e-05
1.02115e-05
1.94433e-05
1.9442e-05
1.94433e-05
1.94447e-05
1.02108e-05
2.28164e-05
2.28169e-05
1.02114e-05
2.28183e-05
2.28188e-05
4.85055e-06
3.05736e-06
5.80529e-06
1.01685e-05
3.0576e-06
1.01682e-05
4.85021e-06
4.84469e-06
3.05627e-06
5.8035e-06
1.01639e-05
1.01636e-05
3.05648e-06
4.84436e-06
4.8502e-06
1.01682e-05
3.05758e-06
5.80487e-06
3.05734e-06
4.85054e-06
1.01684e-05
4.84435e-06
1.01636e-05
3.05647e-06
5.80318e-06
4.84468e-06
1.01639e-05
3.05625e-06
1.02114e-05
2.28183e-05
2.28188e-05
2.28164e-05
2.28169e-05
1.02108e-05
1.94421e-05
1.94433e-05
1.28899e-05
5.02198e-06
1.14471e-05
4.35907e-06
5.02218e-06
1.14468e-05
1.28903e-05
2.31922e-05
9.77849e-06
7.41966e-06
7.41925e-06
2.31897e-05
2.31896e-05
7.41924e-06
9.7783e-06
7.41964e-06
2.31922e-05
1.28903e-05
4.35885e-06
5.02221e-06
1.14468e-05
5.02197e-06
1.14471e-05
1.28898e-05
1.28896e-05
5.02221e-06
1.14472e-05
4.35907e-06
5.02245e-06
1.14469e-05
1.289e-05
2.31917e-05
9.77932e-06
7.42145e-06
7.42087e-06
2.31888e-05
2.31888e-05
7.42086e-06
9.77913e-06
7.42144e-06
2.31916e-05
1.289e-05
4.3589e-06
5.02246e-06
1.14469e-05
5.02222e-06
1.14472e-05
1.28896e-05
1.28903e-05
5.0222e-06
1.14468e-05
4.35885e-06
1.28899e-05
5.02197e-06
1.14471e-05
2.31897e-05
9.77832e-06
7.41926e-06
7.41965e-06
2.31923e-05
2.31922e-05
7.41964e-06
9.77849e-06
2.31896e-05
7.41924e-06
1.28899e-05
4.35909e-06
5.02201e-06
1.14471e-05
5.0222e-06
1.14468e-05
1.28904e-05
1.28901e-05
5.02245e-06
1.14469e-05
4.35891e-06
1.28896e-05
5.02222e-06
1.14472e-05
2.31888e-05
9.77914e-06
7.42088e-06
7.42145e-06
2.31917e-05
2.31917e-05
7.42143e-06
9.77932e-06
2.31888e-05
7.42086e-06
1.28896e-05
4.35909e-06
5.02224e-06
1.14472e-05
5.02247e-06
1.14469e-05
1.28901e-05
1.94432e-05
1.94419e-05
1.94452e-05
1.94439e-05
1.02105e-05
2.28168e-05
2.28159e-05
1.0211e-05
2.28187e-05
2.28178e-05
4.84454e-06
3.0562e-06
5.8035e-06
1.01639e-05
4.84421e-06
3.05641e-06
1.01636e-05
4.85041e-06
3.05745e-06
5.80549e-06
1.01688e-05
4.85009e-06
3.05766e-06
1.01685e-05
4.8442e-06
1.01636e-05
3.0564e-06
5.80317e-06
4.84453e-06
3.05619e-06
1.01639e-05
4.85009e-06
1.01685e-05
3.05765e-06
5.80517e-06
4.8504e-06
3.05744e-06
1.01687e-05
1.0211e-05
2.28186e-05
2.28178e-05
1.02104e-05
2.28167e-05
2.28159e-05
1.9442e-05
1.94432e-05
1.94439e-05
1.94452e-05
2.31922e-05
7.41957e-06
9.77835e-06
2.31896e-05
7.41916e-06
1.28906e-05
4.35889e-06
1.14469e-05
5.02215e-06
1.28902e-05
1.14472e-05
5.02201e-06
9.77938e-06
1.94434e-05
1.94453e-05
3.41194e-07
3.41145e-07
5.40092e-07
3.41192e-07
3.41143e-07
1.82793e-07
1.82792e-07
2.90092e-06
1.98073e-06
1.98103e-06
1.3935e-06
1.97988e-06
1.98016e-06
2.90129e-06
2.90095e-06
1.98075e-06
1.98105e-06
1.39356e-06
2.90131e-06
1.97993e-06
1.98021e-06
2.90091e-06
1.98069e-06
1.98097e-06
1.39342e-06
1.97983e-06
1.98011e-06
2.90128e-06
2.90127e-06
1.39555e-06
1.97984e-06
1.98012e-06
1.98067e-06
1.98096e-06
2.90091e-06
2.90079e-06
1.98086e-06
1.98068e-06
1.39335e-06
1.97981e-06
1.97998e-06
2.90117e-06
2.90119e-06
1.3955e-06
1.98003e-06
1.97985e-06
1.98087e-06
1.98069e-06
2.90082e-06
2.90095e-06
1.98091e-06
1.98076e-06
1.39345e-06
1.97991e-06
1.98004e-06
2.9013e-06
2.90132e-06
1.39559e-06
1.98008e-06
1.97994e-06
1.98092e-06
1.98076e-06
2.90098e-06
2.9013e-06
1.39564e-06
1.97991e-06
1.98019e-06
2.90095e-06
1.98072e-06
1.98102e-06
3.41198e-07
3.41137e-07
5.40092e-07
3.41196e-07
3.41136e-07
1.82792e-07
1.82791e-07
3.41269e-07
3.41215e-07
5.40187e-07
3.41268e-07
3.41214e-07
1.82843e-07
1.82842e-07
3.41263e-07
3.41218e-07
5.4019e-07
3.41262e-07
3.41216e-07
1.82843e-07
1.82842e-07
5.40093e-07
3.41195e-07
3.41146e-07
3.41193e-07
3.41144e-07
1.82791e-07
1.82791e-07
5.40094e-07
3.41199e-07
3.41139e-07
3.41198e-07
3.41137e-07
1.8279e-07
1.8279e-07
5.40188e-07
3.41271e-07
3.41217e-07
3.41269e-07
3.41215e-07
1.82841e-07
1.82842e-07
5.40192e-07
3.41265e-07
3.41219e-07
3.41263e-07
3.41217e-07
1.82841e-07
1.82841e-07
1.63592e-06
2.59594e-06
1.50512e-06
2.33702e-06
2.59636e-06
1.50641e-06
1.63403e-06
1.84785e-06
2.25192e-06
3.75239e-06
3.1048e-06
2.25132e-06
3.10425e-06
1.84945e-06
1.84945e-06
3.10424e-06
3.75282e-06
2.25132e-06
2.25192e-06
3.10478e-06
1.84784e-06
1.63406e-06
2.33673e-06
2.5964e-06
1.50643e-06
2.59596e-06
1.50517e-06
1.63592e-06
1.63588e-06
1.50518e-06
2.59581e-06
2.33703e-06
1.50645e-06
2.59622e-06
1.63402e-06
1.84778e-06
2.25198e-06
3.75243e-06
3.10442e-06
2.25138e-06
3.1039e-06
1.84937e-06
1.84939e-06
3.10389e-06
3.75281e-06
2.25139e-06
2.25198e-06
3.1044e-06
1.84779e-06
1.63402e-06
2.33672e-06
1.50643e-06
2.59624e-06
1.50519e-06
2.59581e-06
1.63586e-06
2.90127e-06
1.39562e-06
1.97986e-06
1.98014e-06
1.98069e-06
1.98099e-06
2.90092e-06
2.90127e-06
1.39554e-06
1.97982e-06
1.9801e-06
2.9009e-06
1.98066e-06
1.98095e-06
2.90091e-06
1.3934e-06
1.98066e-06
1.98095e-06
2.90127e-06
1.97982e-06
1.98011e-06
1.63577e-06
2.59574e-06
1.50505e-06
2.3369e-06
2.59613e-06
1.50632e-06
1.63392e-06
1.84773e-06
2.2519e-06
3.75222e-06
3.10436e-06
3.10385e-06
2.25132e-06
1.8493e-06
1.8493e-06
3.10385e-06
3.7526e-06
2.25132e-06
3.10434e-06
2.2519e-06
1.84773e-06
1.63392e-06
2.33659e-06
2.59614e-06
1.50632e-06
2.59574e-06
1.50506e-06
1.63576e-06
1.63594e-06
2.596e-06
1.5051e-06
2.33697e-06
2.59641e-06
1.50637e-06
1.63408e-06
1.84797e-06
2.25228e-06
3.75277e-06
3.10499e-06
3.10445e-06
2.25168e-06
1.84956e-06
1.84956e-06
3.10444e-06
3.75316e-06
2.25168e-06
3.10497e-06
1.84797e-06
2.25228e-06
1.63408e-06
2.33666e-06
2.59642e-06
1.50637e-06
2.59601e-06
1.50511e-06
1.63592e-06
1.63391e-06
2.59613e-06
1.50631e-06
2.33661e-06
1.63577e-06
2.59575e-06
1.50505e-06
1.84929e-06
2.25132e-06
3.75261e-06
3.10387e-06
2.25189e-06
3.10435e-06
1.84771e-06
1.84772e-06
3.10434e-06
2.25189e-06
3.75222e-06
2.25131e-06
1.84929e-06
3.10385e-06
1.63576e-06
2.33694e-06
2.59577e-06
1.50506e-06
2.59615e-06
1.50632e-06
1.6339e-06
1.63407e-06
2.59641e-06
1.50636e-06
2.33667e-06
1.63593e-06
2.59602e-06
1.5051e-06
1.84955e-06
2.25168e-06
3.75317e-06
3.10447e-06
3.10499e-06
2.25228e-06
1.84796e-06
1.84796e-06
3.10497e-06
2.25228e-06
3.75277e-06
1.84956e-06
3.10445e-06
2.25168e-06
1.63593e-06
2.337e-06
2.59604e-06
1.50511e-06
2.59643e-06
1.50637e-06
1.63407e-06
2.90116e-06
1.39547e-06
1.97998e-06
1.9798e-06
1.98065e-06
1.98083e-06
2.90079e-06
2.90081e-06
1.39334e-06
1.98084e-06
1.98066e-06
1.98e-06
2.90117e-06
1.97983e-06
1.63595e-06
2.59602e-06
1.50517e-06
2.33704e-06
2.5964e-06
1.50642e-06
1.6341e-06
1.84795e-06
2.25234e-06
3.75297e-06
3.10499e-06
3.10445e-06
2.25173e-06
1.84955e-06
1.84955e-06
3.10445e-06
3.75339e-06
2.25173e-06
3.10498e-06
2.25233e-06
1.84795e-06
1.63408e-06
2.33673e-06
2.59643e-06
1.50643e-06
2.596e-06
1.50516e-06
1.63595e-06
1.63585e-06
1.50512e-06
2.59583e-06
2.33697e-06
1.50638e-06
2.59622e-06
1.634e-06
1.84782e-06
2.25225e-06
3.75279e-06
3.1045e-06
3.10399e-06
2.25164e-06
1.84941e-06
1.84942e-06
3.10399e-06
3.75323e-06
2.25164e-06
3.1045e-06
1.84783e-06
2.25224e-06
1.63399e-06
2.33667e-06
1.5064e-06
2.59624e-06
1.50513e-06
2.59583e-06
1.63585e-06
1.6341e-06
2.59642e-06
1.50643e-06
2.33676e-06
1.63597e-06
2.59602e-06
1.50518e-06
1.84955e-06
2.25174e-06
3.7534e-06
3.10447e-06
2.25233e-06
3.10499e-06
1.84794e-06
1.84795e-06
3.10498e-06
2.25233e-06
3.75297e-06
2.25173e-06
1.84955e-06
3.10445e-06
1.63597e-06
2.33709e-06
2.59605e-06
1.5052e-06
2.59643e-06
1.50645e-06
1.6341e-06
1.63401e-06
1.50639e-06
2.59623e-06
2.3367e-06
1.63586e-06
1.50514e-06
2.59585e-06
1.84942e-06
2.25165e-06
3.75324e-06
3.10402e-06
3.10451e-06
2.25225e-06
1.84782e-06
1.84783e-06
3.1045e-06
2.25224e-06
3.75279e-06
1.84942e-06
3.104e-06
2.25164e-06
1.63587e-06
2.33702e-06
1.50516e-06
2.59587e-06
1.50642e-06
2.59626e-06
1.634e-06
1.63584e-06
1.5051e-06
2.5958e-06
2.33695e-06
1.50637e-06
2.59621e-06
1.63398e-06
1.84779e-06
2.25196e-06
3.75235e-06
3.10443e-06
2.25137e-06
3.10389e-06
1.84938e-06
1.84937e-06
3.10389e-06
3.75274e-06
2.25137e-06
2.25195e-06
3.10442e-06
1.84779e-06
1.634e-06
2.33667e-06
1.5064e-06
2.59623e-06
1.50514e-06
2.59581e-06
1.63585e-06
1.63401e-06
2.59636e-06
1.50637e-06
2.33672e-06
1.63588e-06
2.59595e-06
1.5051e-06
1.84944e-06
2.25133e-06
3.75283e-06
3.10428e-06
1.84784e-06
2.25192e-06
3.10481e-06
1.84783e-06
3.10478e-06
2.25191e-06
3.7524e-06
1.84943e-06
2.25132e-06
3.10425e-06
1.63589e-06
2.33706e-06
2.596e-06
1.50516e-06
1.63404e-06
2.59639e-06
1.50639e-06
1.63398e-06
1.50634e-06
2.59621e-06
2.33667e-06
1.63582e-06
1.50509e-06
2.59582e-06
1.84938e-06
2.25138e-06
3.75275e-06
3.10393e-06
3.10445e-06
2.25196e-06
1.84779e-06
1.84779e-06
3.10443e-06
2.25195e-06
3.75235e-06
1.84937e-06
3.10391e-06
2.25137e-06
1.63584e-06
2.337e-06
1.50514e-06
2.59586e-06
1.50637e-06
2.59625e-06
1.634e-06
2.9013e-06
1.39556e-06
1.98004e-06
1.9799e-06
1.98073e-06
1.98089e-06
2.90095e-06
2.90096e-06
1.39344e-06
1.98089e-06
1.98074e-06
1.98005e-06
2.90131e-06
1.97992e-06
1.63601e-06
1.50522e-06
2.59603e-06
2.33707e-06
1.50648e-06
2.59644e-06
1.63415e-06
1.84802e-06
2.25239e-06
3.753e-06
3.105e-06
2.25179e-06
3.10445e-06
1.8496e-06
1.8496e-06
3.10445e-06
3.7534e-06
2.25179e-06
2.25239e-06
3.10499e-06
1.84801e-06
1.63416e-06
2.33678e-06
1.50647e-06
2.59646e-06
1.50523e-06
2.59605e-06
1.63599e-06
1.63398e-06
1.50641e-06
2.59621e-06
2.33669e-06
1.63586e-06
1.50514e-06
2.59579e-06
1.84936e-06
2.2514e-06
3.75283e-06
3.10392e-06
1.84776e-06
2.25198e-06
3.10441e-06
1.84776e-06
3.1044e-06
2.25197e-06
3.75243e-06
1.84937e-06
2.25138e-06
3.1039e-06
1.63583e-06
2.33703e-06
1.50514e-06
2.59584e-06
1.63397e-06
1.50639e-06
2.59622e-06
1.63411e-06
1.50644e-06
2.59643e-06
2.33676e-06
1.63598e-06
1.50517e-06
2.59603e-06
1.84958e-06
2.2518e-06
3.75341e-06
3.10448e-06
3.105e-06
2.25239e-06
1.84799e-06
1.84799e-06
3.10498e-06
2.25238e-06
3.753e-06
1.84959e-06
3.10445e-06
2.25179e-06
1.63595e-06
2.33707e-06
1.50518e-06
2.59606e-06
1.50642e-06
2.59645e-06
1.63411e-06
2.90093e-06
1.39349e-06
1.9807e-06
1.981e-06
2.90128e-06
1.97988e-06
1.98016e-06
1.84781e-06
2.25196e-06
3.10447e-06
3.75238e-06
2.25138e-06
1.84938e-06
3.10395e-06
1.63401e-06
2.33674e-06
1.50641e-06
2.59627e-06
1.50516e-06
1.63586e-06
2.59587e-06
2.2524e-06
3.75303e-06
2.2518e-06
3.26854e-07
8.74575e-07
8.74681e-07
1.16006e-06
3.4299e-07
8.97538e-07
8.97659e-07
1.17813e-06
3.59602e-07
9.20446e-07
9.20538e-07
1.1982e-06
3.76418e-07
9.40973e-07
9.41083e-07
1.21321e-06
3.93333e-07
9.61261e-07
9.61354e-07
1.23079e-06
4.10782e-07
9.79072e-07
9.79229e-07
1.24606e-06
4.27297e-07
9.94058e-07
9.94055e-07
1.25051e-06
4.51567e-07
1.03207e-06
1.0322e-06
1.31492e-06
4.58532e-07
1.01849e-06
1.01865e-06
1.28868e-06
4.53722e-07
9.83719e-07
9.83747e-07
1.21687e-06
4.66147e-07
9.96341e-07
9.96396e-07
1.23071e-06
4.96204e-07
1.04187e-06
1.04198e-06
1.30247e-06
5.23952e-07
1.078e-06
1.07807e-06
1.36149e-06
5.36658e-07
1.09382e-06
1.09389e-06
1.39009e-06
5.39994e-07
1.09706e-06
1.09715e-06
1.39718e-06
5.40032e-07
1.09635e-06
1.09645e-06
1.39606e-06
5.39717e-07
1.09568e-06
1.09577e-06
1.39478e-06
5.39763e-07
1.09576e-06
1.09584e-06
1.39483e-06
5.39955e-07
1.09602e-06
1.0961e-06
1.39531e-06
5.40067e-07
1.09614e-06
1.09623e-06
1.39556e-06
5.40089e-07
1.09616e-06
1.09626e-06
1.39563e-06
5.40092e-07
1.09618e-06
1.09627e-06
1.39564e-06
5.40094e-07
1.09619e-06
1.09628e-06
1.39567e-06
5.40093e-07
1.09618e-06
1.09627e-06
1.39566e-06
5.40095e-07
1.09619e-06
1.09628e-06
1.39565e-06
1.15998e-06
1.17289e-06
8.74737e-07
8.74752e-07
8.92134e-07
8.92195e-07
1.15991e-06
1.17285e-06
8.74598e-07
8.74814e-07
8.92038e-07
8.92224e-07
8.74811e-07
8.92016e-07
8.92265e-07
1.16004e-06
1.17294e-06
8.7469e-07
8.92121e-07
8.92138e-07
1.17301e-06
1.17802e-06
1.19226e-06
8.97674e-07
8.97727e-07
9.14753e-07
9.14733e-07
1.17796e-06
1.19211e-06
8.97585e-07
8.97756e-07
9.14619e-07
9.14833e-07
8.97799e-07
9.14565e-07
9.14793e-07
1.17806e-06
1.19227e-06
8.97679e-07
9.14676e-07
9.14668e-07
1.19228e-06
1.19818e-06
1.20906e-06
9.20625e-07
9.20596e-07
9.36607e-07
9.36703e-07
1.19806e-06
1.20904e-06
9.20476e-07
9.20718e-07
9.3653e-07
9.36676e-07
9.20652e-07
9.36509e-07
9.36776e-07
1.19821e-06
1.2091e-06
9.20513e-07
9.3662e-07
9.36661e-07
1.20922e-06
1.21305e-06
1.22446e-06
9.41061e-07
9.41167e-07
9.55474e-07
9.55456e-07
1.21302e-06
1.22433e-06
9.41004e-07
9.41108e-07
9.55349e-07
9.55557e-07
9.41244e-07
9.55336e-07
9.55506e-07
1.21306e-06
1.22446e-06
9.41146e-07
9.55417e-07
9.55397e-07
1.22442e-06
1.23085e-06
1.24393e-06
9.61418e-07
9.61371e-07
9.76867e-07
9.7698e-07
1.23073e-06
1.24395e-06
9.61276e-07
9.61534e-07
9.76789e-07
9.76982e-07
9.61418e-07
9.7675e-07
9.77082e-07
1.23089e-06
1.24413e-06
9.61298e-07
9.76931e-07
9.76976e-07
1.24429e-06
1.24568e-06
1.24314e-06
9.7918e-07
9.79304e-07
9.87695e-07
9.87685e-07
1.24571e-06
1.24303e-06
9.79103e-07
9.79254e-07
9.87544e-07
9.87707e-07
9.79405e-07
9.87573e-07
9.87714e-07
1.24585e-06
1.24303e-06
9.79302e-07
9.87586e-07
9.8759e-07
1.24305e-06
1.25069e-06
1.30351e-06
9.94181e-07
9.94145e-07
1.02411e-06
1.02408e-06
1.25057e-06
1.30343e-06
9.94022e-07
9.94203e-07
1.02397e-06
1.02418e-06
9.9416e-07
1.02398e-06
1.02413e-06
1.25057e-06
1.30357e-06
9.94031e-07
1.02404e-06
1.02401e-06
1.30356e-06
1.31477e-06
1.29278e-06
1.03221e-06
1.03222e-06
1.02833e-06
1.02835e-06
1.31471e-06
1.29265e-06
1.0321e-06
1.0323e-06
1.02824e-06
1.02844e-06
1.03231e-06
1.02816e-06
1.02847e-06
1.31486e-06
1.29289e-06
1.0322e-06
1.02836e-06
1.02837e-06
1.29296e-06
1.28852e-06
1.21779e-06
1.01863e-06
1.01865e-06
9.88869e-07
9.88929e-07
1.2884e-06
1.21782e-06
1.01854e-06
1.01874e-06
9.88785e-07
9.8898e-07
1.01874e-06
9.88827e-07
9.88965e-07
1.28863e-06
1.21787e-06
1.01864e-06
9.88879e-07
9.88883e-07
1.21789e-06
1.21677e-06
1.22054e-06
9.83732e-07
9.83807e-07
9.8861e-07
9.88686e-07
1.21682e-06
1.22055e-06
9.8365e-07
9.83835e-07
9.88535e-07
9.8869e-07
9.83837e-07
9.88581e-07
9.88726e-07
1.21685e-06
1.22057e-06
9.83764e-07
9.88617e-07
9.88661e-07
1.22065e-06
1.23061e-06
1.28747e-06
9.964e-07
9.96463e-07
1.0295e-06
1.02952e-06
1.2306e-06
1.28737e-06
9.96322e-07
9.96477e-07
1.02938e-06
1.02956e-06
9.96509e-07
1.02935e-06
1.02957e-06
1.23064e-06
1.2875e-06
9.96436e-07
1.02945e-06
1.02946e-06
1.28754e-06
1.30242e-06
1.35119e-06
1.04204e-06
1.04205e-06
1.07124e-06
1.07125e-06
1.30232e-06
1.35112e-06
1.04192e-06
1.0421e-06
1.07109e-06
1.07131e-06
1.0421e-06
1.07108e-06
1.07129e-06
1.30244e-06
1.35123e-06
1.04198e-06
1.07116e-06
1.07116e-06
1.35125e-06
1.36144e-06
1.38471e-06
1.07815e-06
1.07817e-06
1.09154e-06
1.09157e-06
1.36138e-06
1.38465e-06
1.07801e-06
1.07823e-06
1.09141e-06
1.09163e-06
1.07821e-06
1.09141e-06
1.09161e-06
1.36148e-06
1.38475e-06
1.07808e-06
1.09148e-06
1.0915e-06
1.38478e-06
1.39002e-06
1.39468e-06
1.09395e-06
1.09398e-06
1.09703e-06
1.09707e-06
1.38996e-06
1.39461e-06
1.09382e-06
1.09403e-06
1.09692e-06
1.09712e-06
1.09403e-06
1.0969e-06
1.09712e-06
1.39005e-06
1.39473e-06
1.09391e-06
1.09699e-06
1.09701e-06
1.39477e-06
1.39708e-06
1.39407e-06
1.09718e-06
1.09722e-06
1.09672e-06
1.09676e-06
1.39702e-06
1.39399e-06
1.09707e-06
1.09727e-06
1.09661e-06
1.0968e-06
1.09727e-06
1.09659e-06
1.09681e-06
1.39713e-06
1.39411e-06
1.09717e-06
1.09669e-06
1.0967e-06
1.39415e-06
1.39597e-06
1.39265e-06
1.09648e-06
1.09652e-06
1.0959e-06
1.09594e-06
1.3959e-06
1.39258e-06
1.09638e-06
1.09656e-06
1.09579e-06
1.09597e-06
1.09657e-06
1.09576e-06
1.09598e-06
1.396e-06
1.39267e-06
1.09646e-06
1.09586e-06
1.09587e-06
1.39273e-06
1.3947e-06
1.39255e-06
1.09581e-06
1.09585e-06
1.0958e-06
1.09585e-06
1.39464e-06
1.3925e-06
1.0957e-06
1.09589e-06
1.09569e-06
1.09589e-06
1.09589e-06
1.09569e-06
1.0959e-06
1.39473e-06
1.3926e-06
1.09578e-06
1.09577e-06
1.09579e-06
1.39265e-06
1.39472e-06
1.39303e-06
1.09586e-06
1.09592e-06
1.09607e-06
1.09612e-06
1.39469e-06
1.39299e-06
1.09576e-06
1.09596e-06
1.09596e-06
1.09617e-06
1.09596e-06
1.09596e-06
1.09617e-06
1.39477e-06
1.39309e-06
1.09585e-06
1.09605e-06
1.09606e-06
1.39313e-06
1.39521e-06
1.39331e-06
1.09613e-06
1.09618e-06
1.09624e-06
1.09629e-06
1.39518e-06
1.39326e-06
1.09602e-06
1.09622e-06
1.09613e-06
1.09633e-06
1.09622e-06
1.09612e-06
1.09633e-06
1.39527e-06
1.39337e-06
1.09612e-06
1.09621e-06
1.09622e-06
1.3934e-06
1.39547e-06
1.39342e-06
1.09626e-06
1.0963e-06
1.09629e-06
1.09633e-06
1.39542e-06
1.39335e-06
1.09615e-06
1.09635e-06
1.09618e-06
1.09637e-06
1.09635e-06
1.09616e-06
1.09638e-06
1.39552e-06
1.39346e-06
1.09624e-06
1.09625e-06
1.09627e-06
1.3935e-06
1.39555e-06
1.3934e-06
1.09629e-06
1.09633e-06
1.0963e-06
1.09634e-06
1.39549e-06
1.39335e-06
1.09618e-06
1.09638e-06
1.09619e-06
1.09638e-06
1.09638e-06
1.09617e-06
1.09639e-06
1.39559e-06
1.39345e-06
1.09627e-06
1.09626e-06
1.09628e-06
1.3935e-06
1.39554e-06
1.39346e-06
1.0963e-06
1.09634e-06
1.09631e-06
1.09636e-06
1.39549e-06
1.3934e-06
1.09619e-06
1.09638e-06
1.0962e-06
1.0964e-06
1.09639e-06
1.09619e-06
1.0964e-06
1.39559e-06
1.39351e-06
1.09628e-06
1.09628e-06
1.0963e-06
1.39355e-06
1.39558e-06
1.39344e-06
1.09631e-06
1.09636e-06
1.09631e-06
1.09635e-06
1.39553e-06
1.39337e-06
1.0962e-06
1.0964e-06
1.0962e-06
1.09639e-06
1.0964e-06
1.09618e-06
1.09639e-06
1.39563e-06
1.39347e-06
1.09629e-06
1.09627e-06
1.09629e-06
1.39352e-06
1.39558e-06
1.39342e-06
1.09631e-06
1.09635e-06
1.09631e-06
1.09635e-06
1.39552e-06
1.39337e-06
1.0962e-06
1.09639e-06
1.0962e-06
1.09639e-06
1.09639e-06
1.09619e-06
1.0964e-06
1.39561e-06
1.39347e-06
1.09629e-06
1.09627e-06
1.09629e-06
1.39352e-06
1.39556e-06
1.39345e-06
1.09631e-06
1.09635e-06
1.09631e-06
1.09635e-06
1.3955e-06
1.39339e-06
1.0962e-06
1.09639e-06
1.0962e-06
1.09639e-06
1.0964e-06
1.09618e-06
1.0964e-06
1.3956e-06
1.39348e-06
1.09629e-06
1.09627e-06
1.09629e-06
1.39354e-06
4.098e-06
9.1657e-06
9.17304e-06
4.09457e-06
1.84411e-05
1.84505e-05
4.0984e-06
9.16777e-06
9.17635e-06
4.09464e-06
3.26845e-07
3.26931e-07
3.26924e-07
3.38945e-07
3.38939e-07
3.39023e-07
3.39024e-07
2.11784e-06
3.47973e-06
5.68219e-07
8.80567e-07
3.48389e-06
5.74171e-07
2.11153e-06
1.84398e-05
1.84514e-05
2.11782e-06
5.68306e-07
3.47977e-06
8.80664e-07
5.74261e-07
3.48381e-06
2.11161e-06
5.46708e-06
5.46928e-06
1.16427e-06
5.47012e-06
5.47194e-06
4.10371e-06
9.18495e-06
4.10342e-06
9.1854e-06
1.84535e-05
1.84549e-05
4.10386e-06
9.18688e-06
4.10345e-06
9.18782e-06
3.42981e-07
3.43067e-07
3.43071e-07
3.55373e-07
3.55353e-07
3.55451e-07
3.55439e-07
2.13017e-06
3.48911e-06
5.91756e-07
9.03073e-07
2.12616e-06
3.48991e-06
5.97464e-07
1.84536e-05
1.8454e-05
2.13021e-06
5.91853e-07
3.48937e-06
9.0321e-07
2.12622e-06
5.97567e-07
3.49031e-06
5.47124e-06
5.4731e-06
1.1819e-06
5.47023e-06
5.47254e-06
4.11376e-06
9.18908e-06
4.10623e-06
9.21529e-06
1.84848e-05
1.85199e-05
4.11387e-06
9.1899e-06
4.10612e-06
9.21551e-06
3.59582e-07
3.59682e-07
3.59662e-07
3.72311e-07
3.72309e-07
3.72395e-07
3.72407e-07
2.14419e-06
3.50009e-06
6.14601e-07
9.26194e-07
2.13714e-06
3.50847e-06
6.2051e-07
1.84899e-05
1.85217e-05
2.14406e-06
6.14689e-07
3.49968e-06
9.26286e-07
2.13715e-06
6.20596e-07
3.50835e-06
5.48622e-06
5.48757e-06
1.20233e-06
5.49807e-06
5.49952e-06
4.11629e-06
9.22788e-06
4.1209e-06
9.2081e-06
1.85053e-05
1.84769e-05
4.11658e-06