/*--------------------------------*- C++ -*----------------------------------*\
| =========                 |                                                 |
| \\      /  F ield         | OpenFOAM: The Open Source CFD Toolbox           |
|  \\    /   O peration     | Version:  v1906                                 |
|   \\  /    A nd           | Web:      www.OpenFOAM.com                      |
|    \\/     M anipulation  |                                                 |
\*---------------------------------------------------------------------------*/
FoamFile
{
    version     2.0;
    format      ascii;
    class       volScalarField;
    location    "250";
    object      k;
}
// * * * * * * * * * * * * * * * * * * * * * * * * * * * * * * * * * * * * * //

dimensions      [0 2 -2 0 0 0 0];


internalField   nonuniform List<scalar> 
42840
(
4.08962e-05
5.31486e-05
5.31491e-05
5.57374e-05
5.572e-05
5.57353e-05
5.56985e-05
5.31468e-05
5.3147e-05
5.31448e-05
5.3145e-05
5.57353e-05
5.56985e-05
5.3147e-05
5.31459e-05
5.3145e-05
5.31438e-05
5.31497e-05
5.3147e-05
5.3148e-05
5.57347e-05
5.56973e-05
5.31502e-05
5.3147e-05
5.31482e-05
5.57002e-05
5.31482e-05
5.31484e-05
7.06895e-05
7.45175e-05
7.45183e-05
7.0688e-05
7.20616e-05
7.20647e-05
7.0693e-05
7.4523e-05
7.45238e-05
7.06913e-05
4.08968e-05
4.08991e-05
4.09007e-05
4.08956e-05
4.08962e-05
4.08984e-05
4.09002e-05
6.27908e-05
6.68961e-05
4.8026e-05
5.31476e-05
6.68967e-05
4.80262e-05
6.27873e-05
7.20595e-05
7.20629e-05
6.27893e-05
4.80277e-05
6.68962e-05
5.31478e-05
4.80279e-05
6.6897e-05
6.27862e-05
7.18672e-05
7.18791e-05
5.57088e-05
7.18667e-05
7.18785e-05
7.18661e-05
7.18777e-05
7.20597e-05
7.20628e-05
7.20623e-05
7.20654e-05
7.1868e-05
7.18782e-05
5.57069e-05
7.18676e-05
7.18776e-05
7.20628e-05
7.20596e-05
7.20655e-05
7.20622e-05
5.57216e-05
7.1867e-05
7.1877e-05
7.18671e-05
7.18771e-05
7.06915e-05
7.45222e-05
7.4523e-05
7.069e-05
6.27879e-05
6.6895e-05
4.80234e-05
5.31458e-05
6.68958e-05
4.80237e-05
6.27848e-05
6.27892e-05
6.68988e-05
4.80243e-05
5.31458e-05
6.68995e-05
4.80246e-05
6.27861e-05
7.06873e-05
7.45183e-05
7.45173e-05
7.06889e-05
7.06892e-05
7.45231e-05
7.4522e-05
7.06908e-05
6.27853e-05
5.31451e-05
6.6895e-05
4.80229e-05
6.68942e-05
4.80237e-05
6.2786e-05
6.27866e-05
5.31452e-05
6.68987e-05
4.80238e-05
6.68979e-05
4.80245e-05
6.27874e-05
7.18774e-05
7.18652e-05
5.57051e-05
7.18768e-05
7.18638e-05
7.2058e-05
7.20614e-05
7.20649e-05
7.20615e-05
5.57201e-05
7.18762e-05
7.18631e-05
7.18762e-05
7.18637e-05
7.20616e-05
7.20579e-05
6.279e-05
6.68993e-05
4.8025e-05
5.3146e-05
6.69e-05
4.80253e-05
6.27869e-05
7.06909e-05
7.45173e-05
7.45181e-05
7.06893e-05
6.27881e-05
4.80252e-05
6.68931e-05
5.31446e-05
4.80254e-05
6.68934e-05
6.2785e-05
7.06905e-05
7.45238e-05
7.45228e-05
7.06924e-05
6.27874e-05
5.31453e-05
6.68991e-05
4.80246e-05
6.68984e-05
4.80252e-05
6.27884e-05
7.06885e-05
7.45182e-05
7.45171e-05
7.06904e-05
6.27855e-05
5.3144e-05
4.80247e-05
6.68927e-05
4.80254e-05
6.68921e-05
6.27864e-05
7.06926e-05
7.45216e-05
7.45225e-05
7.06908e-05
6.27894e-05
4.80268e-05
6.68952e-05
5.31488e-05
4.80271e-05
6.68962e-05
6.27859e-05
7.06909e-05
7.45187e-05
7.45196e-05
7.06891e-05
6.27885e-05
5.31471e-05
6.6896e-05
4.8026e-05
6.68953e-05
4.80264e-05
6.27898e-05
7.06904e-05
7.45227e-05
7.45215e-05
7.06924e-05
6.27871e-05
5.31482e-05
4.80269e-05
6.68958e-05
4.80273e-05
6.68947e-05
6.27884e-05
7.06888e-05
7.45198e-05
7.45187e-05
7.06908e-05
7.18703e-05
7.18674e-05
5.57043e-05
7.18687e-05
7.18667e-05
7.20602e-05
7.20634e-05
7.20632e-05
7.20594e-05
5.57192e-05
7.18681e-05
7.18663e-05
7.18686e-05
7.18662e-05
7.20636e-05
7.20602e-05
6.27908e-05
4.80287e-05
6.69008e-05
5.31491e-05
4.80289e-05
6.69016e-05
6.27875e-05
7.06904e-05
7.45194e-05
7.45203e-05
7.0689e-05
7.0693e-05
7.45229e-05
7.45238e-05
7.06914e-05
6.2787e-05
5.31472e-05
4.80275e-05
6.68964e-05
4.8028e-05
6.68954e-05
6.27881e-05
6.27884e-05
5.31484e-05
4.80284e-05
6.69009e-05
4.80289e-05
6.69001e-05
6.27896e-05
7.06884e-05
7.45204e-05
7.45193e-05
7.06901e-05
7.06909e-05
7.45239e-05
7.45228e-05
7.06927e-05
7.20597e-05
7.20629e-05
7.20627e-05
7.20659e-05
5.57234e-05
7.18663e-05
7.1878e-05
7.18663e-05
7.1878e-05
7.2063e-05
7.20597e-05
7.2066e-05
7.20627e-05
4.80267e-05
6.68945e-05
6.27857e-05
7.45189e-05
7.06889e-05
6.68996e-05
7.4523e-05
7.20599e-05
7.20629e-05
7.27321e-05
7.24746e-05
7.3689e-05
7.06877e-05
7.24734e-05
7.36868e-05
7.27339e-05
7.25804e-05
7.45183e-05
8.16609e-05
8.16616e-05
7.25745e-05
7.25744e-05
8.16611e-05
7.45174e-05
8.16604e-05
7.25803e-05
7.27339e-05
7.06899e-05
7.24734e-05
7.36872e-05
7.24745e-05
7.36894e-05
7.27321e-05
7.20647e-05
7.20615e-05
7.27346e-05
7.36959e-05
7.24762e-05
7.0691e-05
7.36933e-05
7.24751e-05
7.27362e-05
7.25821e-05
7.45239e-05
8.16803e-05
8.16818e-05
7.25768e-05
7.25767e-05
8.16811e-05
7.45229e-05
8.16797e-05
7.2582e-05
7.27362e-05
7.06934e-05
7.36937e-05
7.24751e-05
7.36963e-05
7.24762e-05
7.27346e-05
7.20629e-05
7.20594e-05
9.72214e-05
7.44239e-05
7.44173e-05
7.44198e-05
7.44134e-05
9.722e-05
7.64295e-05
6.75458e-05
7.18672e-05
7.44135e-05
6.75469e-05
7.44146e-05
7.64291e-05
7.64777e-05
6.75549e-05
7.18791e-05
7.44241e-05
6.75561e-05
7.44252e-05
7.64773e-05
7.64278e-05
7.44145e-05
7.18667e-05
6.75458e-05
6.75446e-05
7.44133e-05
7.64284e-05
7.6476e-05
7.4425e-05
7.18785e-05
6.75548e-05
6.75536e-05
7.44239e-05
7.64766e-05
9.72215e-05
7.44201e-05
7.44137e-05
7.44241e-05
7.44176e-05
9.7223e-05
7.64274e-05
6.75435e-05
7.44134e-05
7.18664e-05
7.64264e-05
6.75455e-05
7.44146e-05
7.64755e-05
6.75523e-05
7.44239e-05
7.18779e-05
7.64745e-05
6.75544e-05
7.44251e-05
9.72167e-05
7.44195e-05
7.44131e-05
9.72176e-05
7.44237e-05
7.44172e-05
7.20628e-05
7.20596e-05
7.20654e-05
7.20622e-05
9.72221e-05
7.44245e-05
7.44175e-05
7.44205e-05
7.44136e-05
9.7221e-05
7.6431e-05
6.75459e-05
7.1868e-05
7.44145e-05
7.44155e-05
6.75472e-05
7.64304e-05
7.6477e-05
6.75539e-05
7.18782e-05
7.44239e-05
7.4425e-05
6.75551e-05
7.64763e-05
7.64294e-05
7.44154e-05
7.18675e-05
6.7546e-05
7.44143e-05
7.643e-05
6.75447e-05
7.64753e-05
7.44248e-05
7.18776e-05
6.75539e-05
7.44237e-05
7.64761e-05
6.75527e-05
9.72221e-05
7.44208e-05
7.44139e-05
7.44248e-05
7.44178e-05
9.72229e-05
7.20597e-05
7.20628e-05
7.20622e-05
7.20654e-05
9.72194e-05
7.44202e-05
7.44133e-05
9.72209e-05
7.44242e-05
7.44172e-05
7.6428e-05
6.7545e-05
7.18668e-05
7.44152e-05
7.4414e-05
6.75431e-05
7.64288e-05
7.64739e-05
6.75529e-05
7.18768e-05
7.44247e-05
7.44235e-05
6.75511e-05
7.64749e-05
7.64293e-05
7.44141e-05
6.75436e-05
7.18672e-05
7.64285e-05
7.44152e-05
6.75451e-05
7.64754e-05
7.44235e-05
6.75516e-05
7.18772e-05
7.64745e-05
7.44247e-05
6.7553e-05
9.72192e-05
7.4424e-05
7.4417e-05
7.442e-05
7.4413e-05
9.72175e-05
7.27341e-05
7.24751e-05
7.36963e-05
7.06896e-05
7.24739e-05
7.36938e-05
7.27357e-05
7.25819e-05
7.4523e-05
8.16817e-05
8.16831e-05
7.25766e-05
7.25765e-05
8.16825e-05
7.4522e-05
8.16811e-05
7.25818e-05
7.27357e-05
7.06918e-05
7.2474e-05
7.36942e-05
7.24751e-05
7.36968e-05
7.27341e-05
7.27339e-05
7.24734e-05
7.36863e-05
7.06891e-05
7.27321e-05
7.24746e-05
7.36885e-05
7.25745e-05
7.45173e-05
8.16603e-05
7.25804e-05
8.16594e-05
7.25803e-05
8.16599e-05
7.45182e-05
7.25744e-05
8.16606e-05
7.27322e-05
7.0687e-05
7.24747e-05
7.36882e-05
7.2734e-05
7.24735e-05
7.36859e-05
7.27357e-05
7.2474e-05
7.36933e-05
7.0691e-05
7.27341e-05
7.24752e-05
7.36958e-05
7.25766e-05
7.4522e-05
8.16816e-05
8.168e-05
7.25819e-05
7.25818e-05
8.16804e-05
7.4523e-05
7.25765e-05
8.16819e-05
7.27341e-05
7.06888e-05
7.24753e-05
7.36955e-05
7.24741e-05
7.36928e-05
7.27358e-05
9.72189e-05
7.44171e-05
7.44231e-05
7.44131e-05
7.44191e-05
9.72175e-05
7.64756e-05
6.75521e-05
7.18774e-05
7.44233e-05
7.44244e-05
6.75531e-05
7.64752e-05
7.64291e-05
6.75456e-05
7.18645e-05
7.4413e-05
6.75464e-05
7.44141e-05
7.64287e-05
7.64739e-05
7.44243e-05
7.18767e-05
6.75518e-05
7.44231e-05
6.75507e-05
7.64744e-05
7.64274e-05
7.44139e-05
7.18644e-05
6.75452e-05
6.75441e-05
7.44128e-05
7.64279e-05
9.72191e-05
7.44134e-05
7.44194e-05
7.44174e-05
7.44234e-05
9.72204e-05
7.20614e-05
7.20579e-05
7.20616e-05
7.20648e-05
9.72158e-05
7.44128e-05
7.44188e-05
9.72173e-05
7.44169e-05
7.44229e-05
7.64725e-05
6.7551e-05
7.1876e-05
7.44243e-05
6.75492e-05
7.4423e-05
7.64733e-05
7.6426e-05
6.75444e-05
7.18633e-05
7.44139e-05
7.44126e-05
6.75427e-05
7.64268e-05
7.64737e-05
7.4423e-05
6.75496e-05
7.18764e-05
6.7551e-05
7.6473e-05
7.44242e-05
7.64272e-05
7.44126e-05
6.75431e-05
7.18633e-05
7.64265e-05
7.44138e-05
6.75444e-05
9.72155e-05
7.44168e-05
7.44228e-05
7.44127e-05
7.44187e-05
9.7214e-05
7.2058e-05
7.20614e-05
7.27322e-05
7.24754e-05
7.36882e-05
7.06889e-05
7.24743e-05
7.3686e-05
7.27339e-05
7.25795e-05
7.45182e-05
8.16591e-05
8.16599e-05
7.25736e-05
7.25735e-05
8.16592e-05
7.45171e-05
8.16585e-05
7.25794e-05
7.27339e-05
7.06913e-05
7.24744e-05
7.36865e-05
7.24754e-05
7.36887e-05
7.27322e-05
7.27363e-05
7.36928e-05
7.24751e-05
7.06926e-05
7.27346e-05
7.36953e-05
7.24763e-05
7.25768e-05
7.45228e-05
8.16801e-05
7.25821e-05
8.16784e-05
7.25821e-05
8.1679e-05
7.45238e-05
7.25767e-05
8.16805e-05
7.27347e-05
7.06902e-05
7.3695e-05
7.24764e-05
7.27364e-05
7.36923e-05
7.24753e-05
7.2734e-05
7.24744e-05
7.36855e-05
7.06905e-05
7.27322e-05
7.24755e-05
7.36876e-05
7.25736e-05
7.45172e-05
8.16583e-05
8.16573e-05
7.25796e-05
7.25795e-05
8.16578e-05
7.45181e-05
7.25735e-05
8.16586e-05
7.27323e-05
7.06882e-05
7.24757e-05
7.36873e-05
7.24745e-05
7.3685e-05
7.27341e-05
7.27345e-05
7.36961e-05
7.2476e-05
7.06906e-05
7.36935e-05
7.24748e-05
7.27361e-05
7.25818e-05
7.45225e-05
8.16793e-05
8.16809e-05
7.25765e-05
7.25765e-05
8.16805e-05
7.45215e-05
8.16789e-05
7.25818e-05
7.27361e-05
7.06927e-05
7.36937e-05
7.24747e-05
7.36964e-05
7.24759e-05
7.27344e-05
7.27332e-05
7.24755e-05
7.36909e-05
7.06889e-05
7.24743e-05
7.36882e-05
7.27348e-05
7.25805e-05
7.45196e-05
8.16608e-05
8.16623e-05
7.25751e-05
7.25751e-05
8.1662e-05
7.45186e-05
8.16605e-05
7.25805e-05
7.27348e-05
7.0691e-05
7.24742e-05
7.36884e-05
7.24754e-05
7.3691e-05
7.27331e-05
7.27362e-05
7.36931e-05
7.24748e-05
7.06924e-05
7.27345e-05
7.36958e-05
7.24761e-05
7.25767e-05
7.45216e-05
8.16799e-05
8.16781e-05
7.25821e-05
7.25819e-05
8.16784e-05
7.45225e-05
7.25765e-05
8.16801e-05
7.27346e-05
7.06903e-05
7.36957e-05
7.24762e-05
7.36929e-05
7.2475e-05
7.27363e-05
7.27349e-05
7.24743e-05
7.3688e-05
7.06907e-05
7.27333e-05
7.24756e-05
7.36906e-05
7.25753e-05
7.45188e-05
8.16618e-05
8.166e-05
7.25807e-05
7.25806e-05
8.16602e-05
7.45197e-05
7.25752e-05
8.16618e-05
7.27334e-05
7.06887e-05
7.24757e-05
7.36906e-05
7.24745e-05
7.36879e-05
7.27351e-05
9.72212e-05
7.44168e-05
7.44237e-05
7.44127e-05
7.44196e-05
9.72202e-05
7.64744e-05
6.75496e-05
7.18694e-05
7.44211e-05
7.44222e-05
6.75504e-05
7.6474e-05
7.64297e-05
6.75462e-05
7.18673e-05
7.44137e-05
6.75472e-05
7.44148e-05
7.64294e-05
7.64727e-05
7.44221e-05
7.18693e-05
6.75491e-05
7.44209e-05
6.75481e-05
7.64734e-05
7.64281e-05
7.44147e-05
7.18667e-05
6.75459e-05
6.75447e-05
7.44135e-05
7.64286e-05
9.72212e-05
7.44129e-05
7.44198e-05
7.4417e-05
7.44238e-05
9.72224e-05
7.20633e-05
7.20602e-05
7.20596e-05
7.2063e-05
9.72194e-05
7.44126e-05
7.44195e-05
9.72203e-05
7.44168e-05
7.44236e-05
7.64717e-05
6.75483e-05
7.18683e-05
7.44222e-05
6.75466e-05
7.44209e-05
7.64728e-05
7.64271e-05
6.75453e-05
7.1866e-05
7.44149e-05
7.44136e-05
6.75433e-05
7.64281e-05
7.64729e-05
7.44208e-05
6.7547e-05
7.18682e-05
6.75483e-05
7.6472e-05
7.44221e-05
7.64282e-05
7.44135e-05
6.75436e-05
7.18664e-05
7.64273e-05
7.44147e-05
6.75452e-05
9.72195e-05
7.44168e-05
7.44236e-05
7.44126e-05
7.44195e-05
9.72186e-05
7.20603e-05
7.20634e-05
7.27327e-05
7.36892e-05
7.24754e-05
7.06887e-05
7.36869e-05
7.24742e-05
7.27345e-05
7.25811e-05
7.45203e-05
8.16615e-05
8.1663e-05
7.25758e-05
7.25758e-05
8.16624e-05
7.45193e-05
8.1661e-05
7.25811e-05
7.27345e-05
7.06907e-05
7.36872e-05
7.24742e-05
7.36895e-05
7.24754e-05
7.27327e-05
7.27337e-05
7.36938e-05
7.24761e-05
7.06912e-05
7.36917e-05
7.24749e-05
7.27355e-05
7.25813e-05
7.45238e-05
8.16771e-05
8.16778e-05
7.25753e-05
7.25752e-05
8.16773e-05
7.45228e-05
8.16766e-05
7.25812e-05
7.27355e-05
7.06933e-05
7.36921e-05
7.24749e-05
7.36942e-05
7.24761e-05
7.27337e-05
7.27346e-05
7.36865e-05
7.24742e-05
7.06901e-05
7.27328e-05
7.36888e-05
7.24755e-05
7.25759e-05
7.45194e-05
8.16617e-05
8.16601e-05
7.25813e-05
7.25812e-05
8.16604e-05
7.45203e-05
7.25758e-05
8.16619e-05
7.27329e-05
7.06883e-05
7.36887e-05
7.24757e-05
7.36862e-05
7.24744e-05
7.27347e-05
7.27356e-05
7.36913e-05
7.2475e-05
7.06927e-05
7.27338e-05
7.36934e-05
7.24762e-05
7.25754e-05
7.45229e-05
8.16766e-05
8.16757e-05
7.25814e-05
7.25813e-05
8.16761e-05
7.45238e-05
7.25753e-05
8.16768e-05
7.27339e-05
7.06907e-05
7.36933e-05
7.24764e-05
7.3691e-05
7.24751e-05
7.27357e-05
7.20629e-05
7.20597e-05
7.20659e-05
7.20627e-05
9.72187e-05
7.44196e-05
7.44131e-05
9.722e-05
7.44237e-05
7.44172e-05
7.64265e-05
6.7545e-05
7.18661e-05
7.44145e-05
7.64275e-05
6.75432e-05
7.44133e-05
7.64747e-05
6.75539e-05
7.18777e-05
7.4425e-05
7.64757e-05
6.7552e-05
7.44238e-05
7.64278e-05
7.44132e-05
6.75435e-05
7.18664e-05
7.6427e-05
6.7545e-05
7.44145e-05
7.6476e-05
7.44238e-05
6.75525e-05
7.18781e-05
7.64751e-05
6.75539e-05
7.4425e-05
9.72187e-05
7.44236e-05
7.44171e-05
9.72175e-05
7.44195e-05
7.4413e-05
7.20598e-05
7.20629e-05
7.20628e-05
7.20659e-05
7.25809e-05
8.16601e-05
7.452e-05
7.25755e-05
8.1662e-05
7.27353e-05
7.06911e-05
7.24746e-05
7.3688e-05
7.27336e-05
7.24759e-05
7.36909e-05
7.45241e-05
7.20632e-05
7.20662e-05
3.46816e-05
3.46801e-05
4.08958e-05
3.46815e-05
3.468e-05
2.80569e-05
2.80569e-05
6.8287e-05
6.16813e-05
6.1683e-05
5.57176e-05
6.1672e-05
6.16735e-05
6.82887e-05
6.82858e-05
6.16701e-05
6.16715e-05
5.57055e-05
6.8285e-05
6.16663e-05
6.16676e-05
6.82873e-05
6.16804e-05
6.16817e-05
5.57155e-05
6.16713e-05
6.16725e-05
6.82888e-05
6.82841e-05
5.57169e-05
6.16609e-05
6.16622e-05
6.16675e-05
6.16688e-05
6.82847e-05
6.82857e-05
6.16796e-05
6.1681e-05
5.57142e-05
6.16707e-05
6.16692e-05
6.82875e-05
6.8283e-05
5.57163e-05
6.16603e-05
6.1662e-05
6.16667e-05
6.16683e-05
6.82835e-05
6.82844e-05
6.16778e-05
6.16804e-05
5.57137e-05
6.167e-05
6.16672e-05
6.82862e-05
6.82818e-05
5.57153e-05
6.16581e-05
6.1661e-05
6.16646e-05
6.16674e-05
6.82824e-05
6.82839e-05
5.57187e-05
6.16617e-05
6.1663e-05
6.82844e-05
6.16683e-05
6.16697e-05
3.4682e-05
3.46807e-05
4.08964e-05
3.46819e-05
3.46806e-05
2.80571e-05
2.80571e-05
3.46848e-05
3.46838e-05
4.08986e-05
3.46846e-05
3.46837e-05
2.80597e-05
2.80597e-05
3.46857e-05
3.46843e-05
4.09004e-05
3.46856e-05
3.46842e-05
2.80601e-05
2.80601e-05
4.08957e-05
3.46815e-05
3.46799e-05
3.46815e-05
3.46799e-05
2.80569e-05
2.8057e-05
4.08962e-05
3.46818e-05
3.46806e-05
3.46819e-05
3.46806e-05
2.80572e-05
2.80572e-05
4.08984e-05
3.46844e-05
3.46836e-05
3.46845e-05
3.46836e-05
2.80597e-05
2.80598e-05
4.09002e-05
3.46856e-05
3.46841e-05
3.46856e-05
3.46842e-05
2.80601e-05
2.80602e-05
5.81179e-05
6.45095e-05
5.68067e-05
6.27881e-05
6.4506e-05
5.68174e-05
5.81026e-05
5.94728e-05
6.24891e-05
6.6897e-05
6.64312e-05
6.24858e-05
6.64331e-05
5.9484e-05
5.94883e-05
6.64334e-05
6.68957e-05
6.24864e-05
6.24895e-05
6.64315e-05
5.94791e-05
5.80935e-05
6.27899e-05
6.45052e-05
5.68127e-05
6.45086e-05
5.67991e-05
5.81127e-05
5.8117e-05
5.6807e-05
6.45052e-05
6.27868e-05
5.68179e-05
6.45018e-05
5.81016e-05
5.94711e-05
6.24889e-05
6.68974e-05
6.64252e-05
6.24856e-05
6.64273e-05
5.94819e-05
5.94867e-05
6.64274e-05
6.68958e-05
6.24862e-05
6.24894e-05
6.64254e-05
5.94774e-05
5.80923e-05
6.27887e-05
5.68127e-05
6.45012e-05
5.67995e-05
6.45044e-05
5.81109e-05
6.82858e-05
5.57322e-05
6.1666e-05
6.16674e-05
6.1676e-05
6.16776e-05
6.82849e-05
6.82861e-05
5.57302e-05
6.16652e-05
6.16665e-05
6.82853e-05
6.16753e-05
6.16766e-05
6.82845e-05
5.57005e-05
6.16701e-05
6.16714e-05
6.82844e-05
6.16618e-05
6.1663e-05
5.81169e-05
6.45042e-05
5.68059e-05
6.27854e-05
6.45009e-05
5.6817e-05
5.81014e-05
5.94707e-05
6.24877e-05
6.68961e-05
6.64242e-05
6.64262e-05
6.24848e-05
5.94806e-05
5.94867e-05
6.64262e-05
6.68947e-05
6.24853e-05
6.64245e-05
6.24885e-05
5.94772e-05
5.80913e-05
6.27874e-05
6.45002e-05
5.68103e-05
6.45036e-05
5.67978e-05
5.8109e-05
5.81194e-05
6.45089e-05
5.68067e-05
6.27867e-05
6.45056e-05
5.68179e-05
5.81038e-05
5.9473e-05
6.24896e-05
6.69e-05
6.64318e-05
6.64337e-05
6.24864e-05
5.94833e-05
5.9489e-05
6.64337e-05
6.68984e-05
6.2487e-05
6.64319e-05
5.94795e-05
6.24903e-05
5.80939e-05
6.27888e-05
6.4505e-05
5.68113e-05
6.45084e-05
5.67987e-05
5.81118e-05
5.81064e-05
6.45009e-05
5.68228e-05
6.27872e-05
5.81249e-05
6.45035e-05
5.68094e-05
5.94889e-05
6.24826e-05
6.68938e-05
6.64244e-05
6.24868e-05
6.64231e-05
5.94722e-05
5.9479e-05
6.64241e-05
6.24883e-05
6.68953e-05
6.24841e-05
5.9491e-05
6.64254e-05
5.81247e-05
6.27842e-05
6.45022e-05
5.68028e-05
6.44997e-05
5.68223e-05
5.8099e-05
5.8109e-05
6.45056e-05
5.68237e-05
6.27885e-05
5.81275e-05
6.45083e-05
5.68103e-05
5.94916e-05
6.24843e-05
6.68975e-05
6.64319e-05
6.64305e-05
6.24887e-05
5.94749e-05
5.94816e-05
6.64315e-05
6.24902e-05
6.6899e-05
5.94935e-05
6.64328e-05
6.24858e-05
5.81275e-05
6.27856e-05
6.45069e-05
5.68038e-05
6.45045e-05
5.68232e-05
5.81018e-05
6.82845e-05
5.57282e-05
6.16637e-05
6.16653e-05
6.16749e-05
6.16734e-05
6.82837e-05
6.8283e-05
5.56994e-05
6.16687e-05
6.16703e-05
6.16605e-05
6.8283e-05
6.16622e-05
5.81187e-05
6.45087e-05
5.68068e-05
6.27875e-05
6.45053e-05
5.68177e-05
5.81033e-05
5.9473e-05
6.24909e-05
6.69004e-05
6.64315e-05
6.64334e-05
6.24878e-05
5.94835e-05
5.9489e-05
6.64334e-05
6.68989e-05
6.24884e-05
6.64317e-05
6.24917e-05
5.94795e-05
5.80936e-05
6.27895e-05
6.45047e-05
5.6812e-05
6.45081e-05
5.6799e-05
5.8112e-05
5.81148e-05
5.68053e-05
6.45031e-05
6.27855e-05
5.68162e-05
6.44998e-05
5.80994e-05
5.94674e-05
6.24856e-05
6.68939e-05
6.64221e-05
6.64238e-05
6.24822e-05
5.94782e-05
5.94829e-05
6.64238e-05
6.68926e-05
6.24826e-05
6.64221e-05
5.94736e-05
6.24859e-05
5.809e-05
6.27876e-05
5.68107e-05
6.44993e-05
5.67976e-05
6.45026e-05
5.81086e-05
5.81091e-05
6.45053e-05
5.6824e-05
6.27894e-05
5.81272e-05
6.4508e-05
5.68109e-05
5.94925e-05
6.24858e-05
6.6898e-05
6.64317e-05
6.24902e-05
6.64303e-05
5.94758e-05
5.9482e-05
6.64313e-05
6.24916e-05
6.68994e-05
6.24873e-05
5.94937e-05
6.64327e-05
5.8128e-05
6.27865e-05
6.45069e-05
5.68053e-05
6.45043e-05
5.68242e-05
5.81029e-05
5.81054e-05
5.68225e-05
6.44998e-05
6.27875e-05
5.81234e-05
5.68095e-05
6.45025e-05
5.9487e-05
6.24804e-05
6.68917e-05
6.64222e-05
6.64208e-05
6.24847e-05
5.94705e-05
5.94764e-05
6.64217e-05
6.24859e-05
6.68929e-05
5.94879e-05
6.6423e-05
6.24817e-05
5.81244e-05
6.27845e-05
5.68039e-05
6.45013e-05
5.68228e-05
6.44988e-05
5.80994e-05
5.81163e-05
5.6806e-05
6.4506e-05
6.27867e-05
5.68167e-05
6.45025e-05
5.81012e-05
5.94708e-05
6.24881e-05
6.68964e-05
6.64252e-05
6.2485e-05
6.64272e-05
5.94815e-05
5.94864e-05
6.64275e-05
6.6895e-05
6.24858e-05
6.24889e-05
6.64256e-05
5.94773e-05
5.80918e-05
6.27886e-05
5.68118e-05
6.45016e-05
5.67984e-05
6.45051e-05
5.81106e-05
5.81097e-05
6.45064e-05
5.68245e-05
6.27906e-05
5.81273e-05
6.45094e-05
5.68119e-05
5.94943e-05
6.24846e-05
6.6895e-05
6.64322e-05
5.94785e-05
6.24888e-05
6.64307e-05
5.94829e-05
6.64314e-05
6.24898e-05
6.68962e-05
5.94939e-05
6.24859e-05
6.64329e-05
5.81299e-05
6.27879e-05
6.45084e-05
5.68085e-05
5.81062e-05
6.45058e-05
5.68262e-05
5.81081e-05
5.68238e-05
6.4503e-05
6.27893e-05
5.81255e-05
5.68112e-05
6.45059e-05
5.94919e-05
6.2484e-05
6.68945e-05
6.64265e-05
6.6425e-05
6.24881e-05
5.94761e-05
5.94807e-05
6.64256e-05
6.24891e-05
6.68959e-05
5.94917e-05
6.64271e-05
6.24852e-05
5.81279e-05
6.27865e-05
5.68076e-05
6.4505e-05
5.68253e-05
6.45024e-05
5.81042e-05
6.82832e-05
5.57275e-05
6.16617e-05
6.16645e-05
6.16741e-05
6.16714e-05
6.82824e-05
6.82817e-05
5.56986e-05
6.16667e-05
6.16695e-05
6.16585e-05
6.82817e-05
6.16614e-05
5.81194e-05
5.68079e-05
6.45089e-05
6.27882e-05
5.68187e-05
6.45056e-05
5.81041e-05
5.94739e-05
6.24923e-05
6.6902e-05
6.64315e-05
6.24891e-05
6.64333e-05
5.94846e-05
5.94897e-05
6.64334e-05
6.69005e-05
6.24898e-05
6.2493e-05
6.64318e-05
5.94803e-05
5.80947e-05
6.27901e-05
5.68134e-05
6.45049e-05
5.68003e-05
6.45082e-05
5.81132e-05
5.81078e-05
5.68243e-05
6.45021e-05
6.2789e-05
5.81257e-05
5.68115e-05
6.45048e-05
5.94913e-05
6.24841e-05
6.68951e-05
6.6426e-05
5.9475e-05
6.24883e-05
6.64244e-05
5.94804e-05
6.64252e-05
6.24895e-05
6.68965e-05
5.94918e-05
6.24855e-05
6.64268e-05
5.81272e-05
6.27864e-05
5.68069e-05
6.45038e-05
5.81028e-05
5.68252e-05
6.45013e-05
5.81103e-05
5.68252e-05
6.45059e-05
6.27905e-05
5.81281e-05
5.68124e-05
6.45086e-05
5.9494e-05
6.24875e-05
6.68997e-05
6.6432e-05
6.64308e-05
6.24918e-05
5.94777e-05
5.94833e-05
6.64315e-05
6.2493e-05
6.69012e-05
5.94946e-05
6.64328e-05
6.24889e-05
5.81296e-05
6.27877e-05
5.68079e-05
6.45075e-05
5.68261e-05
6.45051e-05
5.81053e-05
6.8284e-05
5.57023e-05
6.16708e-05
6.16723e-05
6.8284e-05
6.16626e-05
6.16639e-05
5.94701e-05
6.24869e-05
6.64245e-05
6.68959e-05
6.24835e-05
5.9485e-05
6.64263e-05
5.80939e-05
6.2788e-05
5.68181e-05
6.45014e-05
5.67996e-05
5.81191e-05
6.45043e-05
6.24906e-05
6.6901e-05
6.24871e-05
2.11994e-05
3.68926e-05
3.68983e-05
4.21183e-05
2.19893e-05
3.78708e-05
3.78678e-05
4.29088e-05
2.27318e-05
3.86153e-05
3.86206e-05
4.34514e-05
2.36285e-05
3.97848e-05
3.97883e-05
4.44824e-05
2.42802e-05
4.01403e-05
4.01418e-05
4.44827e-05
2.54344e-05
4.18355e-05
4.18472e-05
4.65044e-05
2.60057e-05
4.15573e-05
4.15607e-05
4.48339e-05
2.72785e-05
4.42073e-05
4.418e-05
4.846e-05
3.04189e-05
4.79151e-05
4.79281e-05
5.35974e-05
2.8951e-05
4.30672e-05
4.30736e-05
4.61085e-05
2.6127e-05
3.92625e-05
3.92576e-05
4.125e-05
2.66929e-05
4.1336e-05
4.13375e-05
4.41878e-05
3.32012e-05
4.7464e-05
4.74668e-05
5.01799e-05
3.80197e-05
5.14246e-05
5.14223e-05
5.41733e-05
4.03377e-05
5.30395e-05
5.30394e-05
5.57439e-05
4.09216e-05
5.32635e-05
5.32657e-05
5.58996e-05
4.09092e-05
5.31347e-05
5.31369e-05
5.5721e-05
4.0811e-05
5.30637e-05
5.30643e-05
5.56356e-05
4.0815e-05
5.30915e-05
5.30915e-05
5.56733e-05
4.08657e-05
5.31317e-05
5.31324e-05
5.5711e-05
4.08899e-05
5.31456e-05
5.31466e-05
5.57287e-05
4.0895e-05
5.31469e-05
5.3148e-05
5.57218e-05
4.08968e-05
5.31503e-05
5.31512e-05
5.57378e-05
4.08965e-05
5.31486e-05
5.31493e-05
5.57222e-05
4.08962e-05
5.31488e-05
5.31495e-05
5.57252e-05
4.21212e-05
4.27769e-05
3.69002e-05
3.68961e-05
3.76482e-05
3.76485e-05
4.21147e-05
4.27805e-05
3.68972e-05
3.69011e-05
3.7645e-05
3.76499e-05
3.68991e-05
3.76513e-05
3.76514e-05
4.21207e-05
4.2779e-05
3.68976e-05
3.76488e-05
3.76483e-05
4.2782e-05
4.29022e-05
4.325e-05
3.78661e-05
3.78676e-05
3.84052e-05
3.84111e-05
4.29076e-05
4.32438e-05
3.78629e-05
3.7868e-05
3.84103e-05
3.84036e-05
3.78709e-05
3.84029e-05
3.84162e-05
4.29049e-05
4.32461e-05
3.78669e-05
3.84124e-05
3.84186e-05
4.32535e-05
4.34527e-05
4.43602e-05
3.86229e-05
3.86189e-05
3.95188e-05
3.95112e-05
4.34416e-05
4.43627e-05
3.86217e-05
3.86202e-05
3.95098e-05
3.95254e-05
3.86221e-05
3.95133e-05
3.95125e-05
4.34466e-05
4.43675e-05
3.86233e-05
3.95137e-05
3.95051e-05
4.43615e-05
4.4474e-05
4.44209e-05
3.97842e-05
3.97879e-05
4.00517e-05
4.00674e-05
4.44799e-05
4.44218e-05
3.97826e-05
3.97886e-05
4.00601e-05
4.00468e-05
3.97915e-05
4.00595e-05
4.00739e-05
4.44812e-05
4.44114e-05
3.97869e-05
4.00642e-05
4.00765e-05
4.44321e-05
4.44798e-05
4.6277e-05
4.01352e-05
4.01437e-05
4.14955e-05
4.14838e-05
4.44766e-05
4.62786e-05
4.01401e-05
4.01297e-05
4.14899e-05
4.15075e-05
4.01483e-05
4.14904e-05
4.14846e-05
4.44665e-05
4.62955e-05
4.01505e-05
4.14944e-05
4.14817e-05
4.62807e-05
4.64858e-05
4.50353e-05
4.18366e-05
4.18405e-05
4.17089e-05
4.17222e-05
4.64923e-05
4.50388e-05
4.18377e-05
4.18468e-05
4.17121e-05
4.17079e-05
4.18467e-05
4.17104e-05
4.17306e-05
4.65066e-05
4.50329e-05
4.18459e-05
4.17205e-05
4.17314e-05
4.50584e-05
4.48214e-05
4.68705e-05
4.15565e-05
4.15645e-05
4.23105e-05
4.23003e-05
4.48221e-05
4.68629e-05
4.15565e-05
4.15519e-05
4.2301e-05
4.23026e-05
4.15694e-05
4.23105e-05
4.22935e-05
4.48141e-05
4.68532e-05
4.1569e-05
4.2294e-05
4.22887e-05
4.68204e-05
4.84983e-05
5.35416e-05
4.42074e-05
4.41864e-05
4.78672e-05
4.78666e-05
4.84949e-05
5.35372e-05
4.41929e-05
4.41993e-05
4.78673e-05
4.78683e-05
4.41731e-05
4.78612e-05
4.78754e-05
4.84865e-05
5.3547e-05
4.41659e-05
4.78723e-05
4.7875e-05
5.35602e-05
5.3579e-05
4.72516e-05
4.79222e-05
4.79215e-05
4.50125e-05
4.50091e-05
5.35738e-05
4.72465e-05
4.79228e-05
4.79238e-05
4.50144e-05
4.50179e-05
4.79312e-05
4.50054e-05
4.50165e-05
5.35844e-05
4.72576e-05
4.79309e-05
4.50193e-05
4.50155e-05
4.72529e-05
4.61055e-05
4.13685e-05
4.30666e-05
4.30664e-05
3.95732e-05
3.95796e-05
4.61045e-05
4.13798e-05
4.30681e-05
4.30717e-05
3.95755e-05
3.95766e-05
4.30704e-05
3.9585e-05
3.95798e-05
4.61114e-05
4.13715e-05
4.30702e-05
3.95803e-05
3.95825e-05
4.13748e-05
4.12434e-05
4.31659e-05
3.92501e-05
3.9257e-05
3.98182e-05
3.98238e-05
4.12544e-05
4.3167e-05
3.92528e-05
3.9253e-05
3.9821e-05
3.98197e-05
3.92572e-05
3.98269e-05
3.98253e-05
4.12459e-05
4.31653e-05
3.92604e-05
3.98247e-05
3.98285e-05
4.31696e-05
4.4185e-05
4.92968e-05
4.13331e-05
4.13365e-05
4.61164e-05
4.61147e-05
4.41841e-05
4.92929e-05
4.13354e-05
4.13332e-05
4.6114e-05
4.61146e-05
4.13389e-05
4.61115e-05
4.61165e-05
4.41843e-05
4.92958e-05
4.13411e-05
4.61154e-05
4.61138e-05
4.92965e-05
5.01816e-05
5.367e-05
4.74692e-05
4.74673e-05
5.06673e-05
5.06658e-05
5.01788e-05
5.36707e-05
4.74661e-05
4.74678e-05
5.06637e-05
5.06674e-05
4.74687e-05
5.06667e-05
5.0667e-05
5.01809e-05
5.36704e-05
4.74653e-05
5.0665e-05
5.06644e-05
5.36699e-05
5.4174e-05
5.5594e-05
5.14246e-05
5.1423e-05
5.28171e-05
5.2816e-05
5.41749e-05
5.55937e-05
5.14212e-05
5.14246e-05
5.28156e-05
5.28173e-05
5.14246e-05
5.28189e-05
5.28191e-05
5.41741e-05
5.55938e-05
5.14227e-05
5.28178e-05
5.2819e-05
5.55954e-05
5.57419e-05
5.5886e-05
5.30376e-05
5.3037e-05
5.32598e-05
5.32602e-05
5.57417e-05
5.58861e-05
5.30368e-05
5.3038e-05
5.32603e-05
5.32605e-05
5.30403e-05
5.32618e-05
5.32636e-05
5.57421e-05
5.58873e-05
5.30406e-05
5.32638e-05
5.32645e-05
5.58892e-05
5.58963e-05
5.57143e-05
5.32616e-05
5.3262e-05
5.31762e-05
5.31762e-05
5.58964e-05
5.57126e-05
5.32622e-05
5.32622e-05
5.31771e-05
5.31754e-05
5.32654e-05
5.3177e-05
5.31792e-05
5.58976e-05
5.57132e-05
5.32663e-05
5.31797e-05
5.31801e-05
5.57155e-05
5.57198e-05
5.56195e-05
5.31339e-05
5.31337e-05
5.30665e-05
5.30667e-05
5.57181e-05
5.56184e-05
5.31348e-05
5.31328e-05
5.3067e-05
5.30657e-05
5.31366e-05
5.30682e-05
5.30694e-05
5.57185e-05
5.5618e-05
5.31374e-05
5.3069e-05
5.307e-05
5.56208e-05
5.56341e-05
5.56425e-05
5.30615e-05
5.3062e-05
5.30724e-05
5.30742e-05
5.56332e-05
5.56449e-05
5.3062e-05
5.30611e-05
5.30728e-05
5.30734e-05
5.30647e-05
5.30764e-05
5.30767e-05
5.56327e-05
5.56442e-05
5.30653e-05
5.30762e-05
5.30772e-05
5.56464e-05
5.56692e-05
5.56854e-05
5.30871e-05
5.30892e-05
5.31201e-05
5.31222e-05
5.56719e-05
5.56876e-05
5.30876e-05
5.30885e-05
5.31206e-05
5.31217e-05
5.30917e-05
5.31243e-05
5.31246e-05
5.56711e-05
5.56873e-05
5.30922e-05
5.31248e-05
5.31253e-05
5.56891e-05
5.57076e-05
5.57078e-05
5.31279e-05
5.31297e-05
5.3142e-05
5.31424e-05
5.57095e-05
5.5708e-05
5.31284e-05
5.31292e-05
5.31424e-05
5.31421e-05
5.31321e-05
5.31441e-05
5.31448e-05
5.57092e-05
5.5708e-05
5.31327e-05
5.31451e-05
5.31454e-05
5.57096e-05
5.57272e-05
5.57043e-05
5.31439e-05
5.31438e-05
5.31451e-05
5.3145e-05
5.5727e-05
5.57024e-05
5.31443e-05
5.31436e-05
5.31455e-05
5.31449e-05
5.31464e-05
5.31467e-05
5.31477e-05
5.5727e-05
5.57033e-05
5.31469e-05
5.31478e-05
5.31482e-05
5.57048e-05
5.57209e-05
5.57141e-05
5.3145e-05
5.31451e-05
5.31468e-05
5.3148e-05
5.57194e-05
5.57158e-05
5.31455e-05
5.31451e-05
5.31471e-05
5.31477e-05
5.31479e-05
5.31498e-05
5.31509e-05
5.57202e-05
5.57158e-05
5.31485e-05
5.31507e-05
5.31515e-05
5.5718e-05
5.57341e-05
5.57012e-05
5.31474e-05
5.31485e-05
5.31466e-05
5.31471e-05
5.57355e-05
5.57014e-05
5.31477e-05
5.31482e-05
5.31468e-05
5.31465e-05
5.31514e-05
5.31489e-05
5.31498e-05
5.57356e-05
5.57012e-05
5.3152e-05
5.31496e-05
5.31504e-05
5.57033e-05
5.57217e-05
5.57053e-05
5.31464e-05
5.31469e-05
5.3146e-05
5.31469e-05
5.57208e-05
5.57075e-05
5.31467e-05
5.31463e-05
5.31463e-05
5.31463e-05
5.31495e-05
5.31487e-05
5.31495e-05
5.57202e-05
5.57085e-05
5.31501e-05
5.31494e-05
5.31501e-05
5.57109e-05
5.57202e-05
5.57166e-05
5.3146e-05
5.31469e-05
5.31469e-05
5.31475e-05
5.57221e-05
5.57172e-05
5.31464e-05
5.31464e-05
5.31472e-05
5.31467e-05
5.31495e-05
5.31493e-05
5.315e-05
5.57228e-05
5.57167e-05
5.31501e-05
5.31497e-05
5.31505e-05
5.57184e-05
6.48602e-05
7.13762e-05
7.14147e-05
6.47371e-05
6.95643e-05
6.95883e-05
6.48715e-05
7.13835e-05
7.14279e-05
6.47394e-05
2.11976e-05
2.12022e-05
2.12023e-05
2.17885e-05
2.17886e-05
2.17916e-05
2.17909e-05
5.36088e-05
6.02595e-05
2.92466e-05
3.71484e-05
6.04513e-05
2.9494e-05
5.33709e-05
6.95577e-05
6.9587e-05
5.36102e-05
2.92515e-05
6.02636e-05
3.71529e-05
2.94988e-05
6.04538e-05
5.33721e-05
6.70016e-05
6.70219e-05
4.2393e-05
6.71241e-05
6.71399e-05
6.51494e-05
7.14774e-05
6.5071e-05
7.148e-05
6.9596e-05
6.95994e-05
6.51527e-05
7.14827e-05
6.50728e-05
7.14876e-05
2.19898e-05
2.19924e-05
2.19912e-05
2.25485e-05
2.25494e-05
2.25518e-05
2.25575e-05
5.41608e-05
6.06591e-05
3.02796e-05
3.80547e-05
5.39683e-05
6.06599e-05
3.05361e-05
6.95927e-05
6.95936e-05
5.41608e-05
3.02808e-05
6.065e-05
3.80559e-05
5.39658e-05
3.05388e-05
6.06693e-05
6.71871e-05
6.71903e-05
4.30014e-05
6.70909e-05
6.71117e-05
6.51207e-05
7.14975e-05
6.50742e-05
7.16331e-05
6.9673e-05
6.97623e-05
6.51186e-05
7.14972e-05
6.50777e-05
7.16292e-05
2.27309e-05
2.2734e-05
2.27376e-05
2.33737e-05
2.337e-05
2.33774e-05
2.33698e-05
5.43324e-05
6.0635e-05
3.11923e-05
3.88753e-05
5.42472e-05
6.10062e-05
3.13895e-05
6.96825e-05
6.97636e-05
5.43278e-05
3.11989e-05
6.0648e-05
3.88755e-05
5.42537e-05
3.13936e-05
6.09781e-05
6.70921e-05
6.71053e-05
4.38339e-05
6.76063e-05
6.75982e-05
6.57024e-05
7.17006e-05
6.56897e-05
7.15991e-05
6.97274e-05
6.9655e-05
6.57078e-05
7.17121e-05