/*--------------------------------*- C++ -*----------------------------------*\
| =========                 |                                                 |
| \\      /  F ield         | OpenFOAM: The Open Source CFD Toolbox           |
|  \\    /   O peration     | Version:  v1906                                 |
|   \\  /    A nd           | Web:      www.OpenFOAM.com                      |
|    \\/     M anipulation  |                                                 |
\*---------------------------------------------------------------------------*/
FoamFile
{
    version     2.0;
    format      ascii;
    class       volScalarField;
    location    "250";
    object      nut;
}
// * * * * * * * * * * * * * * * * * * * * * * * * * * * * * * * * * * * * * //

dimensions      [0 2 -1 0 0 0 0];


internalField   nonuniform List<scalar> 
42840
(
0.0002787
0.000231923
0.000231908
0.000200334
0.000200207
0.000200332
0.000200376
0.00023188
0.000231873
0.000231862
0.000231854
0.000200341
0.000200382
0.000231905
0.000231855
0.000231887
0.000231835
0.000231887
0.000231907
0.00023187
0.000200324
0.00020036
0.000231914
0.000231889
0.000231895
0.000200374
0.000231872
0.000231897
0.000103179
5.11155e-05
5.11157e-05
0.00010317
2.4038e-05
2.40385e-05
0.000103186
5.11124e-05
5.11126e-05
0.000103177
0.00027871
0.000278692
0.000278713
0.000278692
0.000278699
0.00027868
0.000278703
0.000151856
0.000107321
0.000258223
0.000231914
0.000107335
0.000258225
0.000151816
2.40357e-05
2.40363e-05
0.000151848
0.000258217
0.000107322
0.000231898
0.000258219
0.000107335
0.000151811
8.00967e-05
8.00957e-05
0.000200443
8.01001e-05
8.00987e-05
8.0094e-05
8.00922e-05
2.40387e-05
2.40392e-05
2.40373e-05
2.40378e-05
8.00998e-05
8.00953e-05
0.000200441
8.01032e-05
8.00987e-05
2.40392e-05
2.40386e-05
2.40379e-05
2.40373e-05
0.00020024
8.01018e-05
8.00971e-05
8.0098e-05
8.00933e-05
0.000103182
5.11158e-05
5.11161e-05
0.000103173
0.000151849
0.000107324
0.000258209
0.000231872
0.000107338
0.000258212
0.000151813
0.000151851
0.00010732
0.000258207
0.000231863
0.000107334
0.000258209
0.000151815
0.000103168
5.11157e-05
5.11154e-05
0.000103177
0.000103171
5.11161e-05
5.11158e-05
0.00010318
0.000151816
0.000231865
0.000107335
0.000258202
0.000107322
0.00025821
0.000151837
0.000151818
0.000231857
0.000107331
0.0002582
0.000107318
0.000258208
0.000151839
8.00953e-05
8.0092e-05
0.000200438
8.00985e-05
8.00946e-05
2.40385e-05
2.40391e-05
2.40385e-05
2.4038e-05
0.000200238
8.0097e-05
8.00927e-05
8.0093e-05
8.0089e-05
2.40391e-05
2.40385e-05
0.000151849
0.000107315
0.000258203
0.000231897
0.000107329
0.000258204
0.000151814
0.000103182
5.11081e-05
5.11084e-05
0.000103174
0.000151845
0.000258195
0.0001073
0.000231844
0.000258196
0.000107314
0.000151809
0.000103175
5.11126e-05
5.11123e-05
0.000103184
0.000151816
0.00023189
0.000107326
0.000258196
0.000107313
0.000258204
0.000151838
0.000103171
5.11085e-05
5.11081e-05
0.00010318
0.000151811
0.000231838
0.000258187
0.000107311
0.000258195
0.000107297
0.000151834
0.000103183
5.1115e-05
5.11153e-05
0.000103173
0.000151853
0.000258216
0.000107321
0.000231879
0.00025822
0.000107335
0.000151813
0.000103181
5.11115e-05
5.11118e-05
0.000103171
0.000151824
0.000231909
0.000107333
0.000258221
0.000107319
0.000258226
0.000151846
0.000103172
5.11154e-05
5.1115e-05
0.000103182
0.000151822
0.000231873
0.000258216
0.000107333
0.00025822
0.000107319
0.000151843
0.00010317
5.11119e-05
5.11115e-05
0.00010318
8.00787e-05
8.00971e-05
0.000200418
8.0081e-05
8.01e-05
2.40377e-05
2.40382e-05
2.40363e-05
2.40357e-05
0.000200219
8.00792e-05
8.00987e-05
8.00753e-05
8.00946e-05
2.40382e-05
2.40377e-05
0.000151852
0.000258217
0.00010732
0.000231905
0.000258219
0.000107334
0.000151815
0.000103179
5.11113e-05
5.11116e-05
0.00010317
0.000103185
5.11118e-05
5.11121e-05
0.000103177
0.000151817
0.000231892
0.000258212
0.000107333
0.000258218
0.000107319
0.000151841
0.000151821
0.000231898
0.000258213
0.000107331
0.000258219
0.000107318
0.000151844
0.000103168
5.11117e-05
5.11113e-05
0.000103177
0.000103175
5.11121e-05
5.11117e-05
0.000103184
2.40374e-05
2.40379e-05
2.4037e-05
2.40375e-05
0.000200241
8.0099e-05
8.00973e-05
8.00948e-05
8.00934e-05
2.4038e-05
2.40374e-05
2.40376e-05
2.4037e-05
0.000258213
0.000107318
0.00015181
5.11116e-05
0.000103169
0.000107316
5.11118e-05
2.40375e-05
2.40371e-05
3.69361e-05
4.12984e-05
9.7314e-05
0.000103169
4.1298e-05
9.73041e-05
3.69365e-05
2.04426e-05
5.11158e-05
8.08861e-05
8.08938e-05
2.04417e-05
2.04417e-05
8.08929e-05
5.11154e-05
8.08854e-05
2.04425e-05
3.69365e-05
0.00010318
4.12981e-05
9.73048e-05
4.12984e-05
9.7315e-05
3.69361e-05
2.40385e-05
2.4038e-05
3.69378e-05
9.73264e-05
4.1298e-05
0.000103176
9.73171e-05
4.12977e-05
3.69381e-05
2.04437e-05
5.11127e-05
8.09081e-05
8.09156e-05
2.0443e-05
2.0443e-05
8.09145e-05
5.11123e-05
8.09071e-05
2.04437e-05
3.69382e-05
0.000103187
9.73177e-05
4.12977e-05
9.73277e-05
4.1298e-05
3.69378e-05
2.40363e-05
2.40357e-05
8.33094e-05
2.18462e-05
2.18432e-05
2.18456e-05
2.18426e-05
8.33119e-05
0.000108528
0.000134347
8.01011e-05
4.90337e-05
0.000134362
4.9034e-05
0.000108519
0.000108533
0.000134328
8.00999e-05
4.90242e-05
0.000134343
4.90245e-05
0.000108524
0.000108516
4.9034e-05
8.00956e-05
0.000134357
0.000134342
4.90336e-05
0.000108525
0.000108521
4.90245e-05
8.00944e-05
0.000134338
0.000134324
4.90241e-05
0.00010853
8.33139e-05
2.18456e-05
2.18426e-05
2.18462e-05
2.18432e-05
8.33115e-05
0.000108522
0.000134337
4.90336e-05
8.00989e-05
0.000108512
0.000134354
4.9034e-05
0.000108527
0.000134317
4.90241e-05
8.0097e-05
0.000108517
0.000134334
4.90245e-05
8.33068e-05
2.18455e-05
2.18425e-05
8.33037e-05
2.18461e-05
2.18432e-05
2.40392e-05
2.40386e-05
2.40379e-05
2.40373e-05
8.33105e-05
2.18462e-05
2.18429e-05
2.18457e-05
2.18423e-05
8.33135e-05
0.000108532
0.000134349
8.01041e-05
4.90343e-05
4.90347e-05
0.000134364
0.000108523
0.000108531
0.000134327
8.00997e-05
4.90228e-05
4.90231e-05
0.000134342
0.000108522
0.000108521
4.90346e-05
8.00988e-05
0.000134359
4.90343e-05
0.00010853
0.000134345
0.00010852
4.90231e-05
8.00943e-05
0.000134337
4.90227e-05
0.000108529
0.000134322
8.33147e-05
2.18457e-05
2.18424e-05
2.18463e-05
2.1843e-05
8.33113e-05
2.40386e-05
2.40392e-05
2.40373e-05
2.40378e-05
8.33114e-05
2.18456e-05
2.18423e-05
8.33091e-05
2.18462e-05
2.18429e-05
0.000108517
0.000134355
8.00973e-05
4.90346e-05
4.90342e-05
0.000134338
0.000108527
0.000108516
0.000134333
8.00926e-05
4.9023e-05
4.90226e-05
0.000134316
0.000108526
0.000108528
4.90342e-05
0.00013434
8.01024e-05
0.000108519
4.90346e-05
0.000134356
0.000108527
4.90227e-05
0.000134318
8.00978e-05
0.000108518
4.9023e-05
0.000134334
8.33067e-05
2.18462e-05
2.18429e-05
2.18456e-05
2.18423e-05
8.33087e-05
3.69378e-05
4.12985e-05
9.73277e-05
0.000103172
4.12982e-05
9.73181e-05
3.69382e-05
2.04434e-05
5.11161e-05
8.09101e-05
8.09176e-05
2.04427e-05
2.04427e-05
8.09165e-05
5.11158e-05
8.09091e-05
2.04434e-05
3.69382e-05
0.000103183
4.12982e-05
9.7319e-05
4.12985e-05
9.73288e-05
3.69378e-05
3.69365e-05
4.12981e-05
9.73029e-05
0.000103178
3.69361e-05
4.12984e-05
9.73127e-05
2.04417e-05
5.11154e-05
8.08912e-05
2.04426e-05
8.08835e-05
2.04425e-05
8.08844e-05
5.11157e-05
2.04417e-05
8.0892e-05
3.69361e-05
0.000103167
4.12984e-05
9.73117e-05
3.69365e-05
4.12981e-05
9.73016e-05
3.69382e-05
4.12982e-05
9.73168e-05
0.000103181
3.69378e-05
4.12985e-05
9.73263e-05
2.04427e-05
5.11158e-05
8.09146e-05
8.0907e-05
2.04435e-05
2.04434e-05
8.0908e-05
5.11161e-05
2.04427e-05
8.09154e-05
3.69378e-05
0.00010317
4.12986e-05
9.73252e-05
4.12982e-05
9.73154e-05
3.69383e-05
8.33088e-05
2.18436e-05
2.18462e-05
2.1843e-05
2.18456e-05
8.33113e-05
0.000108532
0.000134324
8.00997e-05
4.90246e-05
4.9025e-05
0.000134339
0.000108523
0.000108531
0.00013435
8.00961e-05
4.90333e-05
0.000134364
4.90336e-05
0.000108522
0.00010852
4.9025e-05
8.0094e-05
0.000134334
4.90246e-05
0.000134319
0.000108529
0.000108519
4.90336e-05
8.00903e-05
0.000134359
0.000134345
4.90332e-05
0.000108528
8.33133e-05
2.1843e-05
2.18457e-05
2.18436e-05
2.18462e-05
8.33108e-05
2.40391e-05
2.40385e-05
2.4038e-05
2.40385e-05
8.33089e-05
2.18429e-05
2.18456e-05
8.33067e-05
2.18435e-05
2.18462e-05
0.000108516
0.00013433
8.00923e-05
4.90249e-05
0.000134312
4.90245e-05
0.000108526
0.000108515
0.000134355
8.00879e-05
4.90336e-05
4.90332e-05
0.000134338
0.000108525
0.000108527
4.90245e-05
0.000134314
8.00976e-05
0.00013433
0.000108518
4.90249e-05
0.000108526
4.90332e-05
0.00013434
8.00935e-05
0.000108517
4.90336e-05
0.000134355
8.33042e-05
2.18435e-05
2.18461e-05
2.18429e-05
2.18455e-05
8.33062e-05
2.40385e-05
2.40391e-05
3.69351e-05
4.12978e-05
9.731e-05
0.000103173
4.12975e-05
9.73001e-05
3.69356e-05
2.0442e-05
5.11084e-05
8.08806e-05
8.08883e-05
2.04412e-05
2.04412e-05
8.08872e-05
5.11081e-05
8.08796e-05
2.0442e-05
3.69356e-05
0.000103183
4.12975e-05
9.7301e-05
4.12978e-05
9.73111e-05
3.69351e-05
3.69382e-05
9.73155e-05
4.12977e-05
0.000103185
3.69378e-05
9.73252e-05
4.1298e-05
2.0443e-05
5.11123e-05
8.09124e-05
2.04437e-05
8.09048e-05
2.04437e-05
8.09059e-05
5.11126e-05
2.0443e-05
8.09133e-05
3.69378e-05
0.000103174
9.73238e-05
4.1298e-05
3.69382e-05
9.73144e-05
4.12977e-05
3.69356e-05
4.12975e-05
9.72987e-05
0.000103181
3.69351e-05
4.12978e-05
9.73085e-05
2.04412e-05
5.11081e-05
8.08851e-05
8.08774e-05
2.0442e-05
2.0442e-05
8.08784e-05
5.11084e-05
2.04412e-05
8.0886e-05
3.69351e-05
0.00010317
4.12979e-05
9.73074e-05
4.12975e-05
9.72972e-05
3.69356e-05
3.69385e-05
9.73288e-05
4.12981e-05
0.000103173
9.7319e-05
4.12978e-05
3.69389e-05
2.04442e-05
5.11153e-05
8.09105e-05
8.09182e-05
2.04435e-05
2.04435e-05
8.09173e-05
5.1115e-05
8.09097e-05
2.04442e-05
3.69389e-05
0.000103184
9.73196e-05
4.12978e-05
9.73295e-05
4.12981e-05
3.69385e-05
3.69363e-05
4.1298e-05
9.73188e-05
0.00010317
4.12977e-05
9.7309e-05
3.69367e-05
2.0443e-05
5.11118e-05
8.08898e-05
8.08975e-05
2.04422e-05
2.04422e-05
8.08969e-05
5.11115e-05
8.08892e-05
2.0443e-05
3.69367e-05
0.000103181
4.12977e-05
9.73094e-05
4.1298e-05
9.73193e-05
3.69362e-05
3.69389e-05
9.73181e-05
4.12978e-05
0.000103182
3.69385e-05
9.73279e-05
4.12981e-05
2.04435e-05
5.1115e-05
8.09159e-05
8.09081e-05
2.04442e-05
2.04442e-05
8.09088e-05
5.11153e-05
2.04435e-05
8.09164e-05
3.69385e-05
0.000103172
9.73273e-05
4.12982e-05
9.73172e-05
4.12978e-05
3.6939e-05
3.69367e-05
4.12977e-05
9.73083e-05
0.00010318
3.69363e-05
4.1298e-05
9.73181e-05
2.04422e-05
5.11115e-05
8.08959e-05
8.08881e-05
2.0443e-05
2.0443e-05
8.08886e-05
5.11118e-05
2.04422e-05
8.08963e-05
3.69363e-05
0.000103169
4.12981e-05
9.73178e-05
4.12977e-05
9.73077e-05
3.69367e-05
8.33062e-05
2.18425e-05
2.1846e-05
2.18419e-05
2.18454e-05
8.33092e-05
0.000108521
0.000134311
8.00826e-05
4.90218e-05
4.90222e-05
0.000134325
0.000108512
0.000108525
0.000134346
8.01013e-05
4.90341e-05
0.00013436
4.90344e-05
0.000108517
0.000108509
4.90221e-05
8.00768e-05
0.000134319
4.90217e-05
0.000134305
0.000108518
0.000108513
4.90344e-05
8.00957e-05
0.000134355
0.00013434
4.9034e-05
0.000108523
8.33106e-05
2.18419e-05
2.18454e-05
2.18425e-05
2.1846e-05
8.33079e-05
2.40382e-05
2.40377e-05
2.40357e-05
2.40363e-05
8.33081e-05
2.18418e-05
2.18454e-05
8.33049e-05
2.18424e-05
2.1846e-05
0.000108506
0.000134315
8.00743e-05
4.90222e-05
0.000134298
4.90217e-05
0.000108516
0.00010851
0.000134351
8.00939e-05
4.90344e-05
4.9034e-05
0.000134334
0.000108521
0.000108517
4.90217e-05
0.0001343
8.00799e-05
0.000134316
0.000108507
4.90221e-05
0.000108521
4.9034e-05
0.000134336
8.00991e-05
0.000108511
4.90344e-05
0.000134351
8.33038e-05
2.18424e-05
2.1846e-05
2.18418e-05
2.18453e-05
8.33068e-05
2.40377e-05
2.40382e-05
3.69364e-05
9.7314e-05
4.12981e-05
0.000103169
9.73039e-05
4.12977e-05
3.69368e-05
2.04432e-05
5.11116e-05
8.08897e-05
8.08971e-05
2.04424e-05
2.04424e-05
8.08961e-05
5.11113e-05
8.08888e-05
2.04431e-05
3.69368e-05
0.00010318
9.73042e-05
4.12977e-05
9.7315e-05
4.12981e-05
3.69364e-05
3.69382e-05
9.73217e-05
4.12985e-05
0.000103176
9.73115e-05
4.12981e-05
3.69387e-05
2.04437e-05
5.11121e-05
8.09011e-05
8.09089e-05
2.04429e-05
2.04429e-05
8.0908e-05
5.11118e-05
8.09002e-05
2.04437e-05
3.69387e-05
0.000103186
9.73122e-05
4.12981e-05
9.73226e-05
4.12985e-05
3.69382e-05
3.69369e-05
9.73024e-05
4.12977e-05
0.000103178
3.69364e-05
9.7313e-05
4.12981e-05
2.04424e-05
5.11113e-05
8.08945e-05
8.0887e-05
2.04432e-05
2.04432e-05
8.08878e-05
5.11116e-05
2.04424e-05
8.08951e-05
3.69364e-05
0.000103167
9.73121e-05
4.12981e-05
9.73016e-05
4.12978e-05
3.69369e-05
3.69387e-05
9.73105e-05
4.12981e-05
0.000103184
3.69382e-05
9.73205e-05
4.12985e-05
2.04429e-05
5.11118e-05
8.09064e-05
8.08984e-05
2.04437e-05
2.04437e-05
8.08992e-05
5.11121e-05
2.04429e-05
8.0907e-05
3.69383e-05
0.000103174
9.73198e-05
4.12986e-05
9.73094e-05
4.12982e-05
3.69387e-05
2.40379e-05
2.40374e-05
2.40375e-05
2.4037e-05
8.331e-05
2.18455e-05
2.18426e-05
8.33074e-05
2.18461e-05
2.18431e-05
0.000108512
0.000134353
8.00942e-05
4.9034e-05
0.000108522
0.000134336
4.90336e-05
0.000108518
0.000134333
8.00927e-05
4.90245e-05
0.000108527
0.000134317
4.90241e-05
0.000108523
4.90336e-05
0.000134338
8.00994e-05
0.000108514
0.000134353
4.9034e-05
0.000108528
4.90241e-05
0.000134319
8.00979e-05
0.000108519
0.000134334
4.90245e-05
8.33055e-05
2.18461e-05
2.18431e-05
8.33082e-05
2.18455e-05
2.18425e-05
2.40374e-05
2.4038e-05
2.4037e-05
2.40376e-05
2.0443e-05
8.0888e-05
5.1112e-05
2.04423e-05
8.08961e-05
3.69368e-05
0.00010318
4.12978e-05
9.73076e-05
3.69363e-05
4.12981e-05
9.7318e-05
5.11122e-05
2.4038e-05
2.40376e-05
0.000317278
0.000317296
0.000278697
0.000317278
0.000317296
0.000387581
0.000387582
0.000144672
0.000172872
0.000172855
0.000200502
0.000172894
0.000172878
0.000144661
0.000144665
0.000172807
0.000172789
0.000200407
0.000144644
0.000172857
0.00017284
0.000144673
0.000172871
0.000172853
0.000200499
0.000172894
0.000172877
0.000144661
0.000144642
0.000200203
0.000172835
0.000172818
0.000172799
0.000172782
0.000144662
0.000144672
0.000172851
0.000172875
0.000200501
0.000172893
0.000172869
0.000144661
0.000144641
0.000200205
0.000172816
0.00017284
0.000172778
0.000172803
0.000144662
0.000144659
0.000172836
0.000172865
0.000200482
0.00017288
0.000172853
0.000144649
0.000144629
0.000200186
0.000172799
0.000172827
0.000172762
0.000172791
0.000144649
0.000144639
0.000200203
0.000172834
0.000172817
0.000144659
0.000172799
0.000172781
0.000317282
0.000317314
0.000278705
0.000317281
0.000317314
0.000387591
0.000387591
0.000317266
0.000317298
0.000278686
0.000317264
0.000317297
0.000387553
0.000387555
0.000317288
0.000317306
0.000278709
0.000317288
0.000317305
0.000387564
0.000387565
0.000278695
0.000317275
0.000317291
0.000317277
0.000317294
0.000387585
0.000387586
0.000278702
0.000317276
0.000317311
0.000317279
0.000317313
0.000387595
0.000387596
0.000278683
0.000317258
0.000317292
0.000317261
0.000317295
0.000387554
0.000387557
0.000278706
0.000317285
0.000317301
0.000317286
0.000317303
0.000387569
0.000387571
0.000185824
0.000144276
0.000192961
0.000151822
0.000144237
0.000192869
0.00018594
0.000172271
0.000156062
0.000107337
0.000127924
0.000156087
0.000127954
0.000172187
0.000172212
0.000127956
0.00010732
0.00015609
0.000156065
0.000127926
0.000172309
0.000185879
0.000151849
0.000144232
0.000192834
0.000144271
0.000192904
0.00018579
0.000185821
0.000192955
0.000144264
0.000151815
0.000192867
0.000144227
0.000185935
0.000172267
0.000156057
0.000107337
0.000127917
0.000156082
0.000127946
0.000172182
0.000172208
0.000127947
0.000107321
0.000156085
0.00015606
0.000127918
0.000172304
0.000185876
0.000151844
0.000192835
0.000144223
0.000192904
0.000144261
0.000185786
0.000144649
0.000200303
0.000172862
0.000172845
0.000172845
0.000172828
0.000144663
0.00014465
0.0002003
0.000172862
0.000172844
0.000144665
0.000172844
0.000172827
0.000144661
0.000200394
0.000172815
0.000172797
0.000144643
0.000172842
0.000172824
0.000185834
0.000144264
0.000192965
0.000151816
0.000144228
0.000192877
0.000185945
0.00017227
0.000156057
0.000107339
0.000127916
0.000127944
0.000156083
0.000172181
0.000172216
0.000127944
0.000107323
0.000156085
0.000127917
0.000156061
0.000172308
0.000185881
0.000151846
0.000144224
0.000192832
0.000144261
0.000192909
0.000185785
0.000185831
0.00014427
0.000192964
0.000151819
0.000144233
0.000192877
0.000185943
0.000172261
0.00015604
0.000107335
0.000127919
0.000127948
0.000156066
0.000172173
0.000172205
0.000127948
0.000107319
0.000156068
0.00012792
0.000172299
0.000156043
0.00018588
0.000151848
0.000144229
0.000192832
0.000144268
0.000192909
0.000185784
0.000185978
0.000144227
0.000192918
0.000151844
0.000185885
0.00014426
0.000192989
0.00017223
0.000156072
0.00010732
0.000127937
0.000156053
0.000127912
0.000172281
0.00017232
0.000127916
0.00015606
0.000107336
0.000156079
0.000172242
0.000127941
0.000185885
0.000151809
0.000144253
0.000192943
0.000144221
0.000192913
0.000185932
0.000185977
0.000144233
0.000192917
0.000151847
0.000185883
0.000144267
0.000192989
0.000172222
0.000156055
0.000107316
0.000127941
0.000127914
0.000156035
0.000172273
0.000172311
0.000127918
0.000156043
0.000107332
0.000172232
0.000127945
0.000156063
0.000185884
0.000151811
0.000144259
0.000192943
0.000144226
0.000192913
0.000185931
0.000144649
0.000200296
0.000172839
0.000172863
0.000172843
0.000172819
0.000144664
0.00014466
0.000200394
0.000172792
0.000172817
0.000172819
0.000144642
0.000172844
0.000185825
0.000144269
0.000192956
0.000151818
0.000144232
0.00019287
0.000185937
0.000172263
0.000156043
0.000107331
0.000127918
0.000127947
0.000156069
0.000172175
0.000172206
0.000127947
0.000107314
0.000156072
0.000127919
0.000156047
0.000172301
0.000185876
0.000151848
0.000144228
0.00019283
0.000144267
0.000192904
0.000185782
0.000185811
0.000192951
0.000144254
0.000151813
0.000192864
0.000144217
0.000185923
0.000172242
0.000156022
0.000107315
0.000127901
0.000127929
0.000156047
0.000172157
0.000172184
0.000127929
0.000107299
0.000156049
0.000127902
0.000172278
0.000156024
0.000185864
0.000151843
0.000192825
0.000144214
0.000192899
0.000144251
0.000185772
0.000185974
0.000144231
0.000192911
0.000151845
0.000185878
0.000144266
0.000192982
0.000172227
0.000156059
0.000107311
0.00012794
0.000156039
0.000127913
0.00017228
0.000172315
0.000127917
0.000156047
0.000107328
0.000156067
0.000172234
0.000127944
0.000185883
0.00015181
0.000144258
0.000192942
0.000144226
0.00019291
0.000185934
0.000185961
0.000192906
0.000144217
0.00015184
0.000185865
0.000192977
0.00014425
0.000172207
0.000156037
0.000107295
0.000127922
0.000127896
0.000156017
0.00017226
0.000172294
0.0001279
0.000156024
0.000107312
0.000172212
0.000127926
0.000156044
0.000185871
0.000151805
0.000192938
0.000144244
0.000192905
0.000144211
0.000185923
0.000185822
0.00019296
0.000144269
0.00015182
0.000192869
0.00014423
0.000185937
0.000172265
0.000156055
0.000107336
0.000127916
0.00015608
0.000127946
0.00017218
0.000172208
0.000127948
0.00010732
0.000156084
0.000156059
0.000127918
0.000172303
0.000185874
0.000151847
0.000192832
0.000144225
0.000192902
0.000144264
0.000185785
0.000185988
0.00014424
0.000192923
0.000151854
0.000185887
0.000144275
0.000192999
0.000172248
0.000156081
0.000107317
0.000127949
0.000172305
0.000156061
0.000127922
0.000172332
0.000127926
0.000156066
0.000107334
0.000172246
0.000156088
0.000127954
0.000185903
0.000151818
0.000144268
0.000192969
0.000185963
0.000144235
0.000192931
0.000185981
0.000192921
0.000144232
0.000151851
0.000185883
0.000192996
0.000144267
0.000172239
0.000156074
0.000107318
0.000127942
0.000127915
0.000156055
0.000172295
0.000172323
0.000127918
0.00015606
0.000107334
0.000172239
0.000127945
0.000156081
0.000185896
0.000151816
0.000192965
0.00014426
0.000192928
0.000144227
0.000185954
0.000144637
0.000200278
0.000172822
0.00017285
0.000172831
0.000172803
0.000144651
0.000144647
0.000200375
0.000172776
0.000172805
0.000172803
0.00014463
0.000172831
0.000185823
0.000192957
0.000144269
0.000151819
0.000192868
0.000144231
0.000185936
0.000172262
0.000156046
0.000107335
0.000127917
0.000156072
0.000127947
0.000172176
0.000172205
0.000127947
0.000107319
0.000156075
0.00015605
0.000127919
0.0001723
0.000185875
0.000151847
0.000192835
0.000144227
0.000192904
0.000144264
0.000185785
0.000185979
0.000192915
0.000144228
0.000151848
0.00018588
0.000192992
0.000144264
0.000172238
0.000156074
0.000107318
0.00012794
0.000172292
0.000156054
0.000127914
0.000172324
0.000127917
0.000156061
0.000107334
0.000172239
0.000156081
0.000127945
0.000185893
0.000151813
0.000192961
0.000144256
0.000185949
0.000192925
0.000144224
0.00018598
0.000192917
0.000144233
0.000151851
0.000185882
0.000192993
0.000144267
0.000172233
0.000156063
0.000107316
0.000127941
0.000127914
0.000156043
0.000172287
0.000172319
0.000127918
0.00015605
0.000107332
0.000172236
0.000127945
0.000156071
0.000185895
0.000151817
0.000192962
0.00014426
0.000192926
0.000144228
0.000185949
0.000144658
0.000200395
0.000172816
0.000172798
0.000144641
0.000172841
0.000172824
0.00017226
0.000156048
0.000127912
0.000107333
0.000156072
0.000172199
0.000127941
0.000185887
0.00015184
0.000192873
0.000144222
0.000192908
0.000185838
0.000144257
0.000156037
0.000107331
0.00015606
0.000123748
0.000140063
0.00014009
0.000137627
0.000126877
0.000143813
0.000143771
0.000140651
0.000129327
0.000145802
0.000145827
0.000141815
0.000133489
0.000151391
0.0001514
0.000146786
0.000134892
0.000150856
0.000150853
0.000144691
0.000141734
0.000160886
0.00016095
0.000156204
0.000142446
0.00015636
0.000156386
0.000144666
0.000148307
0.000170421
0.000170189
0.000160735
0.000181619
0.000202876
0.000202954
0.000200624
0.000166257
0.000169693
0.000169739
0.000157239
0.000131794
0.000139249
0.000139206
0.000124433
0.000129233
0.0001476
0.000147596
0.000134921
0.000189347
0.000188084
0.000188094
0.000166452
0.000242416
0.00021759
0.000217556
0.000190008
0.000271192
0.000230788
0.000230766
0.000200163
0.000279079
0.000232891
0.000232889
0.000201445
0.000279074
0.000231907
0.000231908
0.000200342
0.000277712
0.000231272
0.00023126
0.000199722
0.000277668
0.00023146
0.000231441
0.000199924
0.000278299
0.000231785
0.000231772
0.00020016
0.000278618
0.0002319
0.00023189
0.000200276
0.000278686
0.000231909
0.0002319
0.000200226
0.000278709
0.000231936
0.000231925
0.000200335
0.000278705
0.000231923
0.00023191
0.000200226
0.0002787
0.000231923
0.000231911
0.000200249
0.000137655
0.000140412
0.000140095
0.000140061
0.000142989
0.000142981
0.000137621
0.00014044
0.000140095
0.00014009
0.00014298
0.000142987
0.000140075
0.000143031
0.000142992
0.000137645
0.00014042
0.000140083
0.000142995
0.000142989
0.000140431
0.000140621
0.000141203
0.000143755
0.000143759
0.000145117
0.000145165
0.000140663
0.00014118
0.000143746
0.000143757
0.000145177
0.000145093
0.000143772
0.00014513
0.000145194
0.000140634
0.000141176
0.000143761
0.000145184
0.000145232
0.000141223
0.000141826
0.000146481
0.000145831
0.000145805
0.000150069
0.000149996
0.000141768
0.000146501
0.000145845
0.000145795
0.000150013
0.000150109
0.000145821
0.000150044
0.000149994
0.000141782
0.000146524
0.000145852
0.000150029
0.000149957
0.00014647
0.000146749
0.000145035
0.000151372
0.000151383
0.000151101
0.000151222
0.000146792
0.000145056
0.000151369
0.000151398
0.000151184
0.000151051
0.000151398
0.000151181
0.000151263
0.000146795
0.000144973
0.000151379
0.000151204
0.0001513
0.000145113
0.000144665
0.000154945
0.000150793
0.000150864
0.000158639
0.000158531
0.000144658
0.000154952
0.000150852
0.000150733
0.000158608
0.000158712
0.000150891
0.000158619
0.00015852
0.000144574
0.000155044
0.000150926
0.00015862
0.000158516
0.000154925
0.000156126
0.000146834
0.000160876
0.000160886
0.000158517
0.000158621
0.000156166
0.000146871
0.000160898
0.000160943
0.000158566
0.000158508
0.000160917
0.000158548
0.00015868
0.000156246
0.000146832
0.000160928
0.000158623
0.000158705
0.000146996
0.000144565
0.00015168
0.000156335
0.000156401
0.000157324
0.000157251
0.000144584
0.000151639
0.000156359
0.000156297
0.000157274
0.000157254
0.000156435
0.000157344
0.000157194
0.000144532
0.000151561
0.000156452
0.000157212
0.000157176
0.00015135
0.000161007
0.000199572
0.000170398
0.000170234
0.000200533
0.000200524
0.000160992
0.00019956
0.000170304
0.000170321
0.00020055
0.000200521
0.000170117
0.000200516
0.000200575
0.000160918
0.000199596
0.00017008
0.000200571
0.000200592
0.000199683
0.000200512
0.000165008
0.000202908
0.000202899
0.000184404
0.000184365
0.000200493
0.000164967
0.000202931
0.000202899
0.000184435
0.000184427
0.000202963
0.000184354
0.000184418
0.000200536
0.000165038
0.00020298
0.000184457
0.000184426
0.000165004
0.000157232
0.000126191
0.000169686
0.000169672
0.000142567
0.000142603
0.000157218
0.000126259
0.000169712
0.000169709
0.000142594
0.00014258
0.000169698
0.000142656
0.000142598
0.000157262
0.000126206
0.000169709
0.000142618
0.000142627
0.000126218
0.000124403
0.000130253
0.000139152
0.000139192
0.000138606
0.000138641
0.000124471
0.000130269
0.000139182
0.000139162
0.00013864
0.000138608
0.000139187
0.000138686
0.000138645
0.000124415
0.000130247
0.00013922
0.000138657
0.000138681
0.000130269
0.00013491
0.000161869
0.000147556
0.000147577
0.000178676
0.000178661
0.000134914
0.000161852
0.000147589
0.000147548
0.000178682
0.00017865
0.000147587
0.000178664
0.000178668
0.000134903
0.000161857
0.00014762
0.000178682
0.000178669
0.00016186
0.000166469
0.000187217
0.000188099
0.000188081
0.00021167
0.000211652
0.000166457
0.00018723
0.000188099
0.000188074
0.000211664
0.000211654
0.000188085
0.00021169
0.000211653
0.000166459
0.000187215
0.000188081
0.000211663
0.000211654
0.000187207
0.000190022
0.000199445
0.000217564
0.000217545
0.000228862
0.000228845
0.000190037
0.000199452
0.000217561
0.000217547
0.000228872
0.000228845
0.000217549
0.000228904
0.000228861
0.000190018
0.000199437
0.000217555
0.000228875
0.000228882
0.000199442
0.000200163
0.000201634
0.000230744
0.00023073
0.00023278
0.000232774
0.00020017
0.000201646
0.00023076
0.00023073
0.000232807
0.000232769
0.000230749
0.000232825
0.000232794
0.000200158
0.000201639
0.000230774
0.000232821
0.000232825
0.000201645
0.000201434
0.000200601
0.000232846
0.000232841
0.000232225
0.000232216
0.000201445
0.0002006
0.000232874
0.000232835
0.000232255
0.000232202
0.000232861
0.000232259
0.000232232
0.000201438
0.00020059
0.000232892
0.000232264
0.000232264
0.000200599
0.000200345
0.000199934
0.000231874
0.000231863
0.000231287
0.000231278
0.000200343
0.000199932
0.000231904
0.000231848
0.000231314
0.000231261
0.000231879
0.000231325
0.000231292
0.000200333
0.000199916
0.000231909
0.000231315
0.00023132
0.000199929
0.000199727
0.000200031
0.000231231
0.000231224
0.000231281
0.000231286
0.000199725
0.000200053
0.000231258
0.000231207
0.000231308
0.00023127
0.000231238
0.00023134
0.000231299
0.00019971
0.000200033
0.000231266
0.00023132
0.000231326
0.000200044
0.00019991
0.000200298
0.000231397
0.000231405
0.000231662
0.000231671
0.000199933
0.000200322
0.000231425
0.00023139
0.000231689
0.000231657
0.000231417
0.000231724
0.000231682
0.000199915
0.000200304
0.000231445
0.00023171
0.000231711
0.000200312
0.000200148
0.000200444
0.000231725
0.000231732
0.000231842
0.000231837
0.000200169
0.000200456
0.000231753
0.000231718
0.000231869
0.000231825
0.000231743
0.000231888
0.000231849
0.000200153
0.000200439
0.000231772
0.000231877
0.000231877
0.000200446
0.000200277
0.000200421
0.000231859
0.00023185
0.000231868
0.000231858
0.000200285
0.000200416
0.000231885
0.000231839
0.000231895
0.000231848
0.000231862
0.000231908
0.000231872
0.00020027
0.000200407
0.00023189
0.000231899
0.000231899
0.000200411
0.000200233
0.000200484
0.000231867
0.000231859
0.00023188
0.000231881
0.000200229
0.000200504
0.000231895
0.000231849
0.000231906
0.000231869
0.000231873
0.000231932
0.000231896
0.000200221
0.000200489
0.000231901
0.000231921
0.000231924
0.000200498
0.000200323
0.000200394
0.000231885
0.000231885
0.000231879
0.000231874
0.00020034
0.000200404
0.000231911
0.000231873
0.000231905
0.000231861
0.000231901
0.000231926
0.000231888
0.000200326
0.000200388
0.000231929
0.000231913
0.000231916
0.000200397
0.000200234
0.000200426
0.000231877
0.000231872
0.000231873
0.000231872
0.000200236
0.000200449
0.000231903
0.000231858
0.000231899
0.000231858
0.000231886
0.000231922
0.000231885
0.000200218
0.000200442
0.000231914
0.000231911
0.000231913
0.000200452
0.000200226
0.000200502
0.000231873
0.000231872
0.000231881
0.000231877
0.000200247
0.000200516
0.0002319
0.000231858
0.000231907
0.000231861
0.000231885
0.000231928
0.000231889
0.000200239
0.000200498
0.000231913
0.000231914
0.000231917
0.000200502
9.23904e-05
5.00245e-05
5.00384e-05
9.21173e-05
2.36172e-05
2.36214e-05
9.24135e-05
5.00235e-05
5.0039e-05
9.2122e-05
0.000123729
0.000123751
0.000123755
0.000126057
0.000126061
0.000126064
0.000126055
0.00012213
9.39178e-05
0.000135481
0.000141046
9.44038e-05
0.000136354
0.00012141
2.36144e-05
2.36194e-05
0.000122137
0.000135506
9.39293e-05
0.000141065
0.000136377
9.44139e-05
0.000121411
7.39023e-05
7.39173e-05
0.000138924
7.41315e-05
7.41418e-05
9.30867e-05
5.00614e-05
9.28693e-05
5.00626e-05
2.36228e-05
2.36233e-05
9.30924e-05
5.00583e-05
9.28737e-05
5.00601e-05
0.000126887
0.000126884
0.000126869
0.000128764
0.000128781
0.000128773
0.000128842
0.000123936
9.49117e-05
0.000139444
0.000144323
0.000123289
9.48927e-05
0.000140462
2.36205e-05
2.36206e-05
0.000123934
0.000139432
9.48763e-05
0.000144311
0.000123274
0.000140462
9.49109e-05
7.42554e-05
7.42373e-05
0.000140808
7.40566e-05
7.40712e-05
9.27773e-05
5.00671e-05
9.28149e-05
5.01142e-05
2.36351e-05
2.36508e-05
9.27689e-05
5.00622e-05
9.28273e-05
5.01075e-05
0.000129323
0.000129323
0.000129371
0.000132067
0.000132026
0.000132078
0.000131988
0.000123908
9.45388e-05
0.000142477
0.000146855
0.000123926
9.54712e-05
0.00014291
2.36349e-05
2.36494e-05
0.000123894
0.000142517
9.45904e-05
0.000146842
0.000123955
0.000142928
9.53865e-05
7.38435e-05
7.38544e-05
0.000143827
7.48182e-05
7.47804e-05
9.43843e-05
5.01403e-05
9.42419e-05
5.01058e-05
2.36458e-05
2.3633e-05