/*--------------------------------*- C++ -*----------------------------------*\
| =========                 |                                                 |
| \\      /  F ield         | OpenFOAM: The Open Source CFD Toolbox           |
|  \\    /   O peration     | Version:  v1906                                 |
|   \\  /    A nd           | Web:      www.OpenFOAM.com                      |
|    \\/     M anipulation  |                                                 |
\*---------------------------------------------------------------------------*/
FoamFile
{
    version     2.0;
    format      ascii;
    class       volScalarField;
    location    "250";
    object      p;
}
// * * * * * * * * * * * * * * * * * * * * * * * * * * * * * * * * * * * * * //

dimensions      [0 2 -2 0 0 0 0];


internalField   nonuniform List<scalar> 
42840
(
0.00080247
0.000802442
0.000802442
0.00080453
0.000767949
0.000804529
0.000772931
0.000802443
0.000802442
0.000775005
0.000775005
0.000804529
0.000772932
0.000802442
0.000802442
0.000775005
0.000775005
0.000802443
0.000775005
0.000775005
0.000804529
0.000772931
0.000802443
0.000775005
0.000775005
0.000772931
0.000765861
0.000765861
0.000791039
0.000804729
0.000791035
0.000804727
0.000804729
0.000791037
0.000791038
0.00080473
0.000791035
0.000804727
0.00080247
0.00080247
0.00080247
0.000775034
0.000775034
0.000775034
0.000775034
0.00079109
0.000804699
0.00080245
0.000793297
0.000791065
0.000793306
0.000804676
0.000804729
0.000791037
0.00079109
0.00080245
0.000804699
0.000793297
0.000793306
0.000791065
0.000804675
0.000804733
0.000804733
0.000791221
0.000791033
0.000791033
0.000768151
0.000768151
0.000804729
0.000791037
0.000804729
0.000791037
0.000804733
0.000804733
0.000791221
0.000791033
0.000791033
0.000772746
0.000786438
0.000772746
0.000786438
0.000786238
0.000772742
0.000772742
0.000786442
0.000786442
0.000791039
0.00080473
0.000791035
0.000804727
0.00079109
0.000804699
0.00080245
0.000793297
0.000791065
0.000793306
0.000804675
0.000791091
0.000804699
0.00080245
0.000793297
0.000791065
0.000793306
0.000804675
0.000786435
0.000772745
0.000786438
0.00077275
0.000786435
0.000772745
0.000786438
0.00077275
0.000786383
0.000784151
0.000772775
0.000775011
0.000786408
0.000784159
0.000772804
0.000786383
0.000784151
0.000772776
0.000775011
0.000786408
0.000784159
0.000772804
0.000804733
0.000804733
0.000791222
0.000791033
0.000791034
0.000804729
0.000791036
0.000772746
0.000786438
0.000786238
0.000772742
0.000772743
0.000786442
0.000786442
0.000772746
0.000786438
0.00079109
0.000804699
0.00080245
0.000793297
0.000791065
0.000793306
0.000804675
0.000791038
0.00080473
0.000791035
0.000804727
0.00079109
0.00080245
0.000804699
0.000793297
0.000793306
0.000791065
0.000804675
0.000786435
0.000772745
0.000786438
0.000772749
0.000786383
0.000784151
0.000772776
0.000775011
0.000786407
0.000784159
0.000772804
0.000786435
0.000772745
0.000786438
0.000772749
0.000786383
0.000784151
0.000775011
0.000772776
0.000784159
0.000786407
0.000772804
0.000791038
0.00080473
0.000791035
0.000804727
0.00079109
0.00080245
0.000804699
0.000793297
0.000793306
0.000791065
0.000804676
0.000791038
0.00080473
0.000791035
0.000804727
0.000786383
0.000784151
0.000772776
0.000775012
0.000786407
0.000784159
0.000772804
0.000786435
0.000772745
0.000786438
0.000772749
0.000786383
0.000784151
0.000775012
0.000772776
0.000784159
0.000786408
0.000772804
0.000786435
0.000772745
0.000786438
0.000772749
0.000804733
0.000804733
0.000791221
0.000791034
0.000791033
0.000804729
0.000791037
0.000772746
0.000786438
0.000786238
0.000772743
0.000772742
0.000786442
0.000786442
0.000772746
0.000786438
0.00079109
0.00080245
0.000804699
0.000793297
0.000793306
0.000791065
0.000804676
0.000791039
0.00080473
0.000791035
0.000804727
0.000791038
0.00080473
0.000791035
0.000804727
0.000786383
0.000784151
0.000775011
0.000772775
0.000784159
0.000786408
0.000772804
0.000786383
0.000784151
0.000775011
0.000772776
0.000784159
0.000786408
0.000772804
0.000786435
0.000772745
0.000786438
0.00077275
0.000786435
0.000772745
0.000786438
0.000772749
0.000804729
0.000791037
0.000804729
0.000791037
0.000786238
0.000772742
0.000772742
0.000786442
0.000786442
0.000772746
0.000786438
0.000772746
0.000786438
0.000765866
0.000768118
0.000768096
0.000768148
0.000768146
0.000768118
0.000768148
0.000768147
0.000768147
0.000795587
0.000791032
0.000791038
0.00079558
0.000795588
0.00079558
0.000791032
0.000800186
0.00080018
0.000804732
0.00080018
0.000804727
0.000795581
0.000791034
0.000795583
0.000795585
0.00079104
0.000800178
0.000800184
0.000804735
0.000804727
0.000800178
0.000800183
0.000804734
0.000800182
0.000795583
0.000795587
0.000791037
0.000791032
0.00079558
0.000795581
0.000795588
0.000791032
0.000800186
0.000800181
0.000804732
0.00080018
0.000804727
0.000795581
0.000791034
0.000795583
0.000795586
0.00079104
0.000800178
0.000800184
0.000804727
0.000804735
0.000800183
0.000800178
0.000804734
0.000800182
0.000795583
0.00079559
0.000791036
0.000791036
0.000795585
0.000795585
0.000791032
0.000800191
0.000804724
0.000800179
0.000804731
0.000800187
0.000800181
0.000804721
0.000800191
0.000804724
0.000800179
0.000804731
0.000800187
0.000800181
0.000804721
0.000795576
0.000791035
0.000795587
0.000791042
0.000795579
0.000795585
0.000791045
0.000795576
0.000791035
0.000795588
0.000791042
0.000795579
0.000795585
0.000791045
0.000800177
0.00080473
0.00080473
0.000800182
0.000800182
0.000804735
0.000763607
0.000768141
0.000768148
0.000763596
0.000768137
0.000763603
0.000763598
0.000763607
0.000768141
0.000768148
0.000763596
0.000768137
0.000763603
0.000763598
0.000763593
0.000768147
0.000768147
0.000768152
0.000763598
0.000763599
0.000800182
0.000795583
0.000800182
0.000795583
0.000795589
0.000791036
0.000791036
0.000795584
0.000795584
0.000791031
0.000800191
0.000804724
0.000800179
0.00080473
0.000800181
0.000800187
0.000804721
0.000800191
0.000804724
0.000800179
0.00080473
0.000800181
0.000800187
0.000804721
0.000795576
0.000791035
0.000795587
0.000791041
0.000795585
0.000791045
0.000795579
0.000795576
0.000791035
0.000795587
0.000791041
0.000795585
0.000791045
0.000795579
0.000800177
0.00080473
0.00080473
0.000800182
0.000800182
0.000804735
0.000777292
0.000781891
0.000777292
0.000781891
0.000781885
0.000786439
0.000786439
0.000786444
0.00078189
0.00078189
0.000777283
0.000772749
0.000777297
0.000772744
0.000777294
0.000777287
0.000772752
0.000777283
0.000772749
0.000777296
0.000772744
0.000777294
0.000777287
0.000772753
0.000781899
0.000786439
0.000786433
0.000781888
0.00078643
0.000781889
0.000781896
0.000781899
0.000786439
0.000786433
0.000781888
0.00078643
0.00078189
0.000781896
0.000777298
0.000772744
0.000772744
0.000777293
0.000777293
0.000772739
0.000795587
0.000791032
0.000791037
0.00079558
0.000795588
0.000795581
0.000791032
0.000800186
0.000800181
0.000804732
0.00080018
0.000804727
0.000795581
0.000791034
0.000795584
0.000795586
0.00079104
0.000800178
0.000800184
0.000804735
0.000804727
0.000800178
0.000800183
0.000804734
0.000781888
0.000786443
0.000786435
0.000781894
0.000786442
0.000781888
0.000781893
0.000777291
0.000777293
0.000772744
0.000772751
0.000777296
0.000781895
0.00078644
0.00078189
0.000786436
0.000781889
0.000777298
0.000777291
0.000772743
0.000772749
0.000772744
0.000777299
0.000777291
0.000781888
0.000786443
0.000786436
0.000781894
0.000786442
0.000781888
0.000781893
0.000777291
0.000777293
0.000772744
0.000777296
0.000772751
0.000781896
0.000786441
0.00078189
0.000786436
0.000781889
0.000777298
0.000777291
0.000772743
0.000772749
0.000777299
0.000777291
0.000772744
0.00079559
0.000791036
0.000791036
0.000795585
0.000795585
0.000791031
0.000800191
0.000804724
0.000800179
0.000804731
0.000800181
0.000800187
0.000804721
0.000800191
0.000804724
0.000800179
0.000804731
0.000800187
0.000800181
0.000804721
0.000795576
0.000791035
0.000795587
0.000791042
0.000795585
0.000795579
0.000791045
0.000795576
0.000791035
0.000795587
0.000791042
0.000795579
0.000795585
0.000791045
0.000800177
0.00080473
0.00080473
0.000800182
0.000800182
0.000804735
0.000800182
0.000795583
0.000777292
0.000781891
0.000781885
0.000786439
0.000786439
0.000786444
0.00078189
0.00078189
0.000777283
0.00077275
0.000777296
0.000772743
0.000777287
0.000777294
0.000772753
0.000777283
0.000772749
0.000777296
0.000772743
0.000777294
0.000777287
0.000772753
0.000781899
0.00078644
0.000786433
0.000781888
0.000781896
0.00078643
0.00078189
0.000781899
0.00078644
0.000786433
0.000781888
0.000786429
0.000781889
0.000781896
0.000777298
0.000772744
0.000772744
0.000777293
0.000777293
0.000772739
0.000777292
0.000781891
0.000795587
0.000791032
0.000791038
0.00079558
0.000795588
0.00079558
0.000791032
0.000800186
0.000800181
0.000804732
0.00080018
0.000804727
0.000795581
0.000791034
0.000795584
0.000795586
0.00079104
0.000800178
0.000800184
0.000804735
0.000804727
0.000800178
0.000800184
0.000804734
0.000781888
0.000786436
0.000786443
0.000781894
0.000786442
0.000781893
0.000781887
0.000777291
0.000777293
0.000772744
0.000772751
0.000777296
0.000781896
0.000786441
0.00078189
0.000786436
0.000781889
0.000777298
0.000777291
0.000772748
0.000772743
0.000772744
0.000777291
0.000777299
0.000781888
0.000786443
0.000786435
0.000781894
0.000786442
0.000781887
0.000781893
0.000777291
0.000777293
0.000772744
0.000777296
0.000772751
0.000781895
0.00078644
0.00078189
0.000786436
0.000781889
0.000777298
0.000777291
0.000772743
0.000772749
0.000777299
0.000777291
0.000772744
0.000795587
0.000791037
0.000791032
0.00079558
0.000795581
0.000795588
0.000791032
0.000800186
0.000800181
0.000804732
0.00080018
0.000804727
0.000795581
0.000791034
0.000795583
0.000795586
0.00079104
0.000800178
0.000800185
0.000804728
0.000804735
0.000800184
0.000800178
0.000804734
0.000795587
0.000791032
0.000791037
0.00079558
0.000795588
0.000795581
0.000791032
0.000800186
0.000800181
0.000804732
0.00080018
0.000804727
0.000795581
0.000791034
0.000795584
0.000795586
0.00079104
0.000800178
0.000800185
0.000804735
0.000804728
0.000800178
0.000800183
0.000804734
0.000781888
0.000786435
0.000786443
0.000781894
0.000786442
0.000781893
0.000781887
0.000777291
0.000777293
0.000772744
0.000777296
0.000772751
0.000781895
0.00078644
0.00078189
0.000786435
0.000781889
0.000777298
0.000777291
0.000772749
0.000772743
0.000777291
0.000777299
0.000772744
0.000781888
0.000786443
0.000786435
0.000781894
0.000786442
0.000781887
0.000781893
0.000777291
0.000777293
0.000772744
0.000777296
0.000772751
0.000781895
0.00078644
0.00078189
0.000786435
0.000781889
0.000777298
0.000777291
0.000772743
0.000772749
0.000777299
0.000777291
0.000772744
0.00079559
0.000791036
0.000791036
0.000795585
0.000795585
0.000791032
0.000800191
0.000804724
0.000800179
0.000804731
0.000800181
0.000800187
0.000804721
0.000800191
0.000804724
0.000800179
0.000804731
0.000800187
0.000800181
0.000804721
0.000795576
0.000791035
0.000795587
0.000791042
0.000795585
0.000795579
0.000791045
0.000795576
0.000791035
0.000795588
0.000791042
0.000795579
0.000795585
0.000791045
0.000800177
0.00080473
0.00080473
0.000800182
0.000800182
0.000804735
0.000800183
0.000795583
0.000777292
0.000781891
0.000781885
0.000786439
0.000786439
0.000786444
0.00078189
0.00078189
0.000777283
0.00077275
0.000777296
0.000772744
0.000777287
0.000777294
0.000772753
0.000777283
0.000772749
0.000777296
0.000772744
0.000777294
0.000777287
0.000772753
0.000781899
0.00078644
0.000786433
0.000781888
0.000781896
0.00078643
0.00078189
0.000781899
0.000786439
0.000786433
0.000781888
0.00078643
0.00078189
0.000781896
0.000777298
0.000772744
0.000772744
0.000777293
0.000777293
0.000772739
0.000777292
0.000781891
0.000795587
0.000791038
0.000791032
0.00079558
0.00079558
0.000795588
0.000791032
0.000800186
0.000800181
0.000804732
0.00080018
0.000804727
0.000795581
0.000791034
0.000795584
0.000795586
0.00079104
0.000800178
0.000800185
0.000804727
0.000804735
0.000800184
0.000800178
0.000804734
0.000795587
0.000791038
0.000791032
0.00079558
0.00079558
0.000795588
0.000791032
0.000800186
0.000800181
0.000804732
0.00080018
0.000804727
0.000795581
0.000791034
0.000795584
0.000795585
0.00079104
0.000800178
0.000800184
0.000804727
0.000804735
0.000800184
0.000800178
0.000804734
0.000781888
0.000786435
0.000786443
0.000781894
0.000786442
0.000781893
0.000781887
0.000777291
0.000777293
0.000772744
0.000777296
0.000772751
0.000781895
0.000786441
0.00078189
0.000786436
0.000781889
0.000777298
0.00077729
0.000772749
0.000772743
0.000777291
0.000777299
0.000772744
0.000781888
0.000786435
0.000786443
0.000781894
0.000786442
0.000781893
0.000781887
0.000777291
0.000777293
0.000772745
0.000777296
0.000772751
0.000781895
0.00078644
0.00078189
0.000786436
0.000781889
0.000777298
0.000777291
0.000772749
0.000772743
0.000777291
0.000777299
0.000772744
0.000800182
0.000795583
0.000800182
0.000795583
0.000781886
0.000786439
0.000786439
0.000786444
0.000781891
0.000781891
0.000777284
0.00077275
0.000777297
0.000772744
0.000772753
0.000777287
0.000777294
0.000777284
0.00077275
0.000777297
0.000772744
0.000772753
0.000777287
0.000777294
0.000781899
0.00078644
0.000786433
0.000781888
0.00078643
0.000781896
0.00078189
0.000781899
0.00078644
0.000786433
0.000781888
0.00078643
0.000781896
0.00078189
0.000777298
0.000772744
0.000772745
0.000772739
0.000777293
0.000777293
0.000777292
0.000781891
0.000777292
0.000781891
0.000763605
0.000768151
0.000763599
0.000768146
0.000763599
0.000763598
0.000763604
0.000768154
0.000768146
0.000768153
0.000763597
0.000763603
0.000763599
0.0007636
0.0007636
0.00080246
0.00080246
0.000793324
0.000793314
0.000793314
0.000793309
0.000802455
0.000800276
0.000804643
0.000804643
0.000800367
0.000800268
0.000800268
0.000804636
0.00076369
0.00076806
0.000768061
0.000763787
0.000768052
0.000763684
0.000763684
0.000800276
0.000804642
0.000804643
0.000800367
0.000800268
0.000800268
0.000804636
0.000777199
0.000777093
0.000772831
0.00077283
0.000777206
0.000777207
0.000772837
0.000800276
0.000804643
0.000804643
0.000800367
0.000800268
0.000800269
0.000804637
0.000777199
0.000777093
0.000772831
0.000772831
0.000777206
0.000777206
0.000772837
0.000800276
0.000804642
0.000804643
0.000800366
0.000800268
0.000800268
0.000804637
0.000777199
0.000777093
0.000772831
0.00077283
0.000777206
0.000777207
0.000772837
0.000777199
0.000777093
0.000772831
0.000772831
0.000772837
0.000777207
0.000777207
0.00080246
0.00080246
0.000793324
0.000793314
0.000793315
0.000793309
0.000802455
0.00080246
0.00080246
0.000793324
0.000793314
0.000793314
0.00079331
0.000802455
0.000802461
0.00080246
0.000793324
0.000793315
0.000793314
0.000793309
0.000802454
0.000784179
0.000775024
0.000775024
0.000784169
0.000784169
0.000784164
0.000775019
0.000784179
0.000775024
0.000775024
0.000784169
0.000784169
0.000784164
0.000775019
0.000784179
0.000775024
0.000775024
0.000784169
0.000784169
0.000784164
0.000775019
0.000784179
0.000775024
0.000775024
0.000784169
0.000784169
0.000784164
0.000775019
0.000795479
0.000791088
0.000791126
0.000795527
0.000795529
0.000795486
0.000791135
0.000800262
0.0008047
0.000800211
0.000804686
0.000800204
0.000800227
0.000804647
0.0007955
0.00079108
0.000795552
0.000791058
0.000795553
0.000795538
0.000791116
0.000800281
0.000800237
0.000804678
0.000804631
0.000800235
0.000800272
0.000804625
0.00079548
0.000791126
0.000791088
0.000795527
0.000795486
0.00079553
0.000791135
0.000800262
0.0008047
0.000800211
0.000804686
0.000800204
0.000800227
0.000804646
0.0007955
0.00079108
0.000795553
0.000791058
0.000795553
0.000795539
0.000791116
0.00080028
0.000800237
0.000804631
0.000804678
0.000800272
0.000800235
0.000804625
0.000795492
0.000795384
0.000791123
0.000791123
0.000795498
0.000795499
0.000791131
0.000795492
0.000795383
0.000791123
0.000791123
0.000791131
0.000795498
0.000795498
0.000781984
0.000782076
0.000786352
0.000786353
0.000786346
0.000781977
0.000781977
0.000795479
0.000791088
0.000791126
0.000795527
0.000795529
0.000795485
0.000791134
0.000800261
0.0008047
0.00080021
0.000804686
0.000800226
0.000800204
0.000804647
0.0007955
0.00079108
0.000795553
0.000791058
0.000795538
0.000795554
0.000791115
0.00080028
0.000800236
0.000804677
0.000804631
0.000800234
0.000800272
0.000804625
0.000795479
0.000791088
0.000791126
0.000795527
0.000795529
0.000795485
0.000791135
0.000800262
0.000804699
0.000800211
0.000804686
0.000800226
0.000800204
0.000804647
0.0007955
0.000791081
0.000795553
0.000791058
0.000795538
0.000791116
0.000795553
0.000800281
0.000800236
0.000804677
0.000804631
0.000800234
0.000800272
0.000804625
0.000781988
0.000786385
0.000786339
0.000781947
0.000786332
0.000781945
0.00078198
0.00077721
0.000772767
0.000777263
0.000772793
0.000777263
0.000777251
0.000772825
0.00078197
0.000786394
0.000786408
0.00078192
0.000781913
0.000786355
0.000781937
0.000777187
0.00077724
0.000772802
0.000772835
0.000777243
0.000777193
0.000772843
0.000781989
0.000786385
0.000786339
0.000781947
0.000786332
0.000781945
0.00078198
0.000777209
0.000772768
0.000777263
0.000772794
0.000777251
0.000777262
0.000772826
0.00078197
0.000786394
0.000786408
0.00078192
0.000786354
0.000781937
0.000781913
0.000777187
0.00077724
0.000772802
0.000772835
0.000777243
0.000777193
0.000772844
0.000795492
0.000795383
0.000791123
0.000791123
0.000795499
0.000795498
0.000791131
0.000781984
0.000782076
0.000786352
0.000786353
0.000781977
0.000786346
0.000781977
0.000795479
0.000791088
0.000791126
0.000795527
0.00079553
0.000795485
0.000791134
0.000800262
0.000804699
0.000800211
0.000804686
0.000800227
0.000800204
0.000804646
0.0007955
0.000791081
0.000795552
0.000791058
0.000795538
0.000795553
0.000791116
0.00080028
0.000800237
0.000804677
0.000804632
0.000800234
0.000800272
0.000804625
0.000795479
0.000791126
0.000791088
0.000795527
0.000795485
0.000795529
0.000791135
0.000800262
0.000804699
0.000800211
0.000804686
0.000800227
0.000800204
0.000804647
0.0007955
0.00079108
0.000795552
0.000791058
0.000795539
0.000791115
0.000795553
0.000800281
0.000800237
0.000804631
0.000804678
0.000800272
0.000800235
0.000804625
0.000781988
0.000786384
0.00078634
0.000781947
0.000786333
0.000781945
0.00078198
0.000777209
0.000772768
0.000777263
0.000772794
0.000777263
0.000777251
0.000772826
0.00078197
0.000786394
0.000786408
0.00078192
0.000781913
0.000786354
0.000781937
0.000777187
0.00077724
0.000772802
0.000772834
0.000777243
0.000777193
0.000772843
0.000781989
0.000786339
0.000786385
0.000781947
0.000786332
0.00078198
0.000781945
0.000777209
0.000772768
0.000777263
0.000772793
0.000777251
0.000777263
0.000772825
0.00078197
0.000786394
0.000786408
0.000781921
0.000786354
0.000781937
0.000781913
0.000777187
0.00077724
0.000772835
0.000772802
0.000777193
0.000777242
0.000772843
0.000795479
0.000791126
0.000791088
0.000795527
0.000795486
0.000795529
0.000791135
0.000800261
0.0008047
0.000800211
0.000804686
0.000800204
0.000800227
0.000804647
0.000795501
0.00079108
0.000795553
0.000791058
0.000795554
0.000795539
0.000791115
0.000800281
0.000800237
0.000804632
0.000804678
0.000800272
0.000800235
0.000804625
0.000781988
0.000786384
0.00078634
0.000781947
0.000786333
0.000781944
0.00078198
0.000777209
0.000772768
0.000777263
0.000772794
0.000772826
0.000777263
0.000777251
0.00078197
0.000786393
0.000786408
0.00078192
0.000786354
0.000781913
0.000781937
0.000777187
0.00077724
0.000772802
0.000772835
0.000772843
0.000777242
0.000777193
0.000781989
0.00078634
0.000786384
0.000781947
0.000786333
0.00078198
0.000781945
0.00077721
0.000772768
0.000777263
0.000772793
0.000777251
0.000777263
0.000772825
0.00078197
0.000786394
0.000786408
0.00078192
0.000786355
0.000781937
0.000781913
0.000777187
0.00077724
0.000772834
0.000772802
0.000777194
0.000777242
0.000772844
0.000795492
0.000795384
0.000791123
0.000791123
0.000795499
0.000795498
0.000791131
0.000781984
0.000782076
0.000786352
0.000786353
0.000781977
0.000786346
0.000781977
0.00079548
0.000791126
0.000791088
0.000795527
0.000795486
0.000795529
0.000791134
0.000800262
0.000804699
0.000800211
0.000804686
0.000800204
0.000800227
0.000804646
0.0007955
0.000791081
0.000795553
0.000791059
0.000795553
0.000795538
0.000791116
0.00080028
0.000800237
0.000804631
0.000804678
0.000800272
0.000800235
0.000804625
0.000781988
0.00078634
0.000786384
0.000781947
0.000786333
0.00078198
0.000781945
0.000777209
0.000772768
0.000777263
0.000772793
0.000772826
0.000777262
0.000777251
0.00078197
0.000786394
0.000786408
0.00078192
0.000786354
0.000781913
0.000781937
0.000777188
0.00077724
0.000772834
0.000772802
0.000772843
0.000777194
0.000777242
0.000781988
0.00078634
0.000786384
0.000781947
0.000786333
0.00078198
0.000781945
0.000777209
0.000772768
0.000777263
0.000772794
0.000777251
0.000777263
0.000772826
0.00078197
0.000786394
0.000786408
0.00078192
0.000786354
0.000781937
0.000781913
0.000777188
0.00077724
0.000772834
0.000772802
0.000777194
0.000777242
0.000772843
0.000781984
0.000782076
0.000786353
0.000786353
0.000786346
0.000781977
0.000781977
0.00076368
0.000768118
0.000768106
0.00076363
0.000763622
0.000768065
0.000763648
0.000763698
0.000763658
0.000768048
0.000768098
0.000763689
0.000768042
0.000763657
0.000768117
0.00076363
0.000763622
0.00168629
0.00168623
0.00168622
0.0016883
0.00165024
0.00165011
0.00165011
0.00165217
0.00161453
0.00161449
0.00161449
0.00161657
0.00157854
0.00157833
0.00157833
0.00158038
0.00154326
0.00154323
0.00154324
0.00154525
0.00150707
0.00150687
0.00150686
0.00150897
0.00147258
0.00147228
0.00147228
0.00147393
0.0014417
0.00144142
0.00144143
0.00144335
0.0014003
0.00140011
0.00140011
0.00140247
0.00135913
0.00135967
0.00135966
0.00136204
0.00132748
0.0013276
0.0013276
0.00132944
0.00130011
0.0012993
0.0012993
0.00130059
0.00127132
0.00127027
0.00127027
0.00127157
0.00123934
0.00123868
0.00123869
0.00124031
0.00120449
0.00120423
0.00120423
0.00120615
0.00116824
0.00116818
0.00116818
0.00117023
0.00113162
0.00113162
0.00113161
0.00113371
0.00109502
0.001095
0.001095
0.00109709
0.00105848
0.00105844
0.00105844
0.00106052
0.00102193
0.0010219
0.0010219
0.00102398
0.000985371
0.000985342
0.000985342
0.000987428
0.000948798
0.00094877
0.00094877
0.000950857
0.000912217
0.00091219
0.00091219
0.000914277
0.000875635
0.000875607
0.000875608
0.000877696
0.000839053
0.000839026
0.000839026
0.000841113
0.0016883
0.001657
0.00168622
0.00168622
0.00165913
0.00165913
0.0016883
0.001657
0.00168622
0.00168622
0.00165913
0.00165913
0.00168622
0.00165913
0.00165913
0.0016883
0.001657
0.00168622
0.00165913
0.00165913
0.001657
0.00165217
0.00162136
0.00165011
0.00165011
0.00162336
0.00162336
0.00165217
0.00162135
0.00165012
0.00165011
0.00162336
0.00162336
0.00165011
0.00162336
0.00162335
0.00165217
0.00162136
0.00165012
0.00162336
0.00162335
0.00162135
0.00161658
0.00158523
0.00161449
0.00161449
0.00158742
0.00158744
0.00161658
0.00158524
0.00161448
0.00161449
0.00158742
0.00158742
0.00161448
0.00158743
0.00158745
0.00161658
0.00158523
0.00161448
0.00158743
0.00158745
0.00158525
0.00158036
0.00154989
0.00157833
0.00157834
0.00155183
0.00155182
0.00158037
0.00154988
0.00157833
0.00157832
0.00155183
0.00155183
0.00157834
0.00155182
0.00155181
0.00158036
0.00154989
0.00157834
0.00155182
0.00155181
0.00154987
0.00154527
0.00151406
0.00154324
0.00154323
0.00151633
0.00151634
0.00154526
0.00151407
0.00154324
0.00154325
0.00151633
0.00151633
0.00154322
0.00151634
0.00151636
0.00154527
0.00151406
0.00154322
0.00151635
0.00151636
0.00151409
0.00150895
0.00147807
0.00150686
0.00150687
0.00148002
0.00148001
0.00150896
0.00147807
0.00150686
0.00150685
0.00148002
0.00148002
0.00150687
0.00148002
0.00148
0.00150895
0.00147807
0.00150687
0.00148001
0.00148
0.00147805
0.00147394
0.00144808
0.00147229
0.00147228
0.00145012
0.00145012
0.00147394
0.00144809
0.00147228
0.00147229
0.00145012
0.00145012
0.00147227
0.00145012
0.00145014
0.00147394
0.00144809
0.00147227
0.00145013
0.00145015
0.00144811
0.00144333
0.00140849
0.00144142
0.00144142
0.00141116
0.00141115
0.00144333
0.00140848
0.00144142
0.00144142
0.00141116
0.00141116
0.00144144
0.00141115
0.00141115
0.00144334
0.00140849
0.00144144
0.00141115
0.00141115
0.00140848
0.00140248
0.00136697
0.00140011
0.00140011
0.00136877
0.00136878
0.00140247
0.00136698
0.00140011
0.00140011
0.00136877
0.00136877
0.0014001
0.00136878
0.00136878
0.00140247
0.00136697
0.0014001
0.00136878
0.00136878
0.00136698
0.00136203
0.00133348
0.00135966
0.00135966
0.00133507
0.00133507
0.00136204
0.00133348
0.00135966
0.00135966
0.00133507
0.00133507
0.00135967
0.00133507
0.00133508
0.00136204
0.00133348
0.00135966
0.00133507
0.00133508
0.00133349
0.00132944
0.00130447
0.0013276
0.0013276
0.00130642
0.00130642
0.00132944
0.00130447
0.0013276
0.0013276
0.00130642
0.00130642
0.0013276
0.00130642
0.00130642
0.00132944
0.00130447
0.0013276
0.00130642
0.00130642
0.00130447
0.00130059
0.00127557
0.0012993
0.0012993
0.00127768
0.00127768
0.00130058
0.00127557
0.0012993
0.0012993
0.00127768
0.00127768
0.0012993
0.00127768
0.00127768
0.00130059
0.00127557
0.0012993
0.00127768
0.00127768
0.00127557
0.00127157
0.00124475
0.00127027
0.00127027
0.00124688
0.00124688
0.00127157
0.00124475
0.00127027
0.00127027
0.00124688
0.00124688
0.00127027
0.00124688
0.00124688
0.00127157
0.00124475
0.00127027
0.00124688
0.00124688
0.00124475
0.00124031
0.00121095
0.00123868
0.00123868
0.00121305
0.00121305
0.00124031
0.00121095
0.00123869
0.00123868
0.00121305
0.00121305
0.00123868
0.00121305
0.00121305
0.00124031
0.00121095
0.00123868
0.00121305
0.00121305
0.00121095
0.00120615
0.00117519
0.00120423
0.00120423
0.00117728
0.00117728
0.00120615
0.00117519
0.00120423
0.00120423
0.00117728
0.00117728
0.00120423
0.00117728
0.00117728
0.00120615
0.00117519
0.00120423
0.00117728
0.00117728
0.00117519
0.00117024
0.0011387
0.00116818
0.00116818
0.00114077
0.00114077
0.00117023
0.0011387
0.00116818
0.00116818
0.00114077
0.00114077
0.00116818
0.00114077
0.00114077
0.00117023
0.0011387
0.00116818
0.00114077
0.00114077
0.0011387
0.00113371
0.00110208
0.00113162
0.00113162
0.00110415
0.00110415
0.00113371
0.00110208
0.00113162
0.00113162
0.00110415
0.00110415
0.00113162
0.00110415
0.00110415
0.00113371
0.00110208
0.00113161
0.00110415
0.00110415
0.00110208
0.00109709
0.0010655
0.001095
0.001095
0.00106758
0.00106758
0.00109709
0.0010655
0.001095
0.001095
0.00106758
0.00106758
0.001095
0.00106758
0.00106758
0.00109709
0.0010655
0.001095
0.00106758
0.00106758
0.0010655
0.00106052
0.00102896
0.00105844
0.00105844
0.00103103
0.00103103
0.00106052
0.00102896
0.00105844
0.00105844
0.00103103
0.00103103
0.00105844
0.00103103
0.00103103
0.00106052
0.00102896
0.00105844
0.00103103
0.00103103
0.00102896
0.00102398
0.000992409
0.0010219
0.0010219
0.000994483
0.000994483
0.00102398
0.000992409
0.0010219
0.0010219
0.000994483
0.000994483
0.0010219
0.000994483
0.000994483
0.00102398
0.000992408
0.0010219
0.000994483
0.000994483
0.000992408
0.000987428
0.000955839
0.000985342
0.000985342
0.000957915
0.000957915
0.000987428
0.00095584
0.000985342
0.000985342
0.000957914
0.000957915
0.000985342
0.000957915
0.000957915
0.000987428
0.000955839
0.000985342
0.000957914
0.000957915
0.000955839
0.000950857
0.000919261
0.00094877
0.00094877
0.000921336
0.000921336
0.000950857
0.000919261
0.00094877
0.00094877
0.000921336
0.000921336
0.00094877
0.000921336
0.000921336
0.000950857
0.00091926
0.00094877
0.000921336
0.000921336
0.00091926
0.000914277
0.000882678
0.000912191
0.00091219
0.000884752
0.000884752
0.000914277
0.000882679
0.000912191
0.000912191
0.000884752
0.000884752
0.000912191
0.000884752
0.000884752
0.000914277
0.000882679
0.00091219
0.000884752
0.000884752
0.000882678
0.000877696
0.000846096
0.000875607
0.000875607
0.000848172
0.000848171
0.000877695
0.000846096
0.000875607
0.000875607
0.000848171
0.000848172
0.000875608
0.000848172
0.000848172
0.000877696
0.000846096
0.000875608
0.000848172
0.000848172
0.000846096
0.000841113
0.000809513
0.000839026
0.000839026
0.000811588
0.000811588
0.000841113
0.000809513
0.000839026
0.000839026
0.000811588
0.000811588
0.000839026
0.000811588
0.000811588
0.000841113
0.000809513
0.000839026
0.000811588
0.000811588
0.000809513
0.0016748
0.00168825
0.00167478
0.00168827
0.00168824
0.00167477
0.0016748
0.00168825
0.00167477
0.00168827
0.0016863
0.00168629
0.0016863
0.00165925
0.00165925
0.00165925
0.00165925
0.00167493
0.00168825
0.00168627
0.00167721
0.00167484
0.00167727
0.00168827
0.00168825
0.00167477
0.00167492
0.00168627
0.00168825
0.00167721
0.00167727
0.00167484
0.00168827
0.00168825
0.00168825
0.0016751
0.00167477
0.00167477
0.00163881
0.00165224
0.00165226
0.00163882
0.00165226
0.00163887
0.00163882
0.00165224
0.00165226
0.00163882
0.00165024
0.00165024
0.00165024
0.00162342
0.00162342
0.00162342
0.00162342
0.0016389
0.00165223
0.00165021
0.00164114
0.00165225
0.00163885
0.00164122
0.00165226
0.00163887
0.0016389
0.00165022
0.00165223
0.00164114
0.00165225
0.00164123
0.00163885
0.0016523
0.0016523
0.00163905
0.00163885
0.00163885
0.00160312
0.00161649
0.00161649
0.00160303
0.00161643
0.00160299
0.00160313
0.0016165
0.00161649
0.00160304
0.00161453
0.00161454
0.00161453
0.0015876
0.00158761
0.00158761
0.00158762
0.00160328
0.00161647
0.00161447
0.00160555
0.00161644
0.00160314
0.00160556
0.00161642
0.00160299
0.00160327
0.00161447
0.00161647
0.00160555
0.00161644
0.00160556
0.00160315
0.00161641
0.00161641
0.00160345
0.00160301
0.00160302
0.00156712
0.00158053
0.00158054
0.0015672
0.00158056
0.00156731
0.00156712
0.00158052
0.00158054
0.00156718
0.00157854
0.00157853
0.00157855
0.00155189
0.00155189
0.00155189
0.00155188
0.00156715
0.00158052
0.00157851
0.00156933
0.00158054
0.00156717
0.00156948
0.00158059
0.00156731
0.00156715
0.00157852
0.00158052
0.00156933
0.00158054
0.00156948
0.00156715
0.00158063
0.00158063
0.00156723
0.00156726
0.00156725
0.001532
0.00154518
0.00154516
0.00153178
0.00154515
0.00153166
0.001532
0.0015452
0.00154516
0.00153179
0.00154325
0.00154326
0.00154324
0.00151649
0.0015165
0.0015165
0.00151651
0.00153223
0.00154514
0.00154316
0.00153461
0.00154509
0.00153197
0.0015345
0.00154511
0.00153166
0.00153224
0.00154316