/*--------------------------------*- C++ -*----------------------------------*\
| =========                 |                                                 |
| \\      /  F ield         | OpenFOAM: The Open Source CFD Toolbox           |
|  \\    /   O peration     | Version:  v1906                                 |
|   \\  /    A nd           | Web:      www.OpenFOAM.com                      |
|    \\/     M anipulation  |                                                 |
\*---------------------------------------------------------------------------*/
FoamFile
{
    version     2.0;
    format      ascii;
    class       surfaceScalarField;
    location    "250";
    object      phi;
}
// * * * * * * * * * * * * * * * * * * * * * * * * * * * * * * * * * * * * * //

dimensions      [0 3 -1 0 0 0 0];
oriented        oriented;


internalField   nonuniform List<scalar> 
124908
(
-0.00104221
-1.45815e-05
-1.44777e-05
9.34771e-06
9.17762e-06
0.00105274
-0.00026146
-5.64183e-06
1.44583e-05
6.83957e-06
0.00105941
-4.53274e-06
-1.62486e-06
-2.21806e-06
-2.57554e-06
-6.59144e-06
-7.04427e-06
-3.16375e-06
-0.000263303
-0.000259727
-0.000262829
-0.000261437
-5.64682e-06
1.44873e-05
6.92911e-06
0.0010592
-4.53786e-06
-1.63504e-06
-2.22565e-06
-2.57985e-06
-6.58553e-06
-7.04034e-06
-3.16593e-06
-0.000259699
-0.000263274
-0.000262793
-0.000260564
5.61732e-06
5.65742e-06
-4.87815e-06
-4.87221e-06
0.00025904
-1.63187e-06
-1.63376e-06
-0.00106073
8.98537e-07
8.99307e-07
0.0010622
-0.00106267
-1.60665e-06
1.62783e-06
8.28416e-07
0.00106395
-6.53876e-07
7.84505e-07
-1.48151e-07
3.78011e-07
-8.00672e-07
-1.39484e-06
-2.90553e-07
-0.00106235
-1.60155e-06
1.63834e-06
8.23607e-07
0.00106363
-6.53855e-07
7.79012e-07
-1.48207e-07
3.75394e-07
-8.03195e-07
-1.39453e-06
-2.88009e-07
-0.000261533
1.63927e-06
1.6017e-06
-7.13259e-07
-7.16409e-07
0.000259722
-1.36114e-06
-1.36256e-06
-0.0010664
6.82254e-07
6.83064e-07
0.00106775
-0.0010679
-1.55716e-06
1.36731e-06
6.90361e-07
0.00106925
-6.21844e-07
8.38617e-07
-1.06603e-07
4.24402e-07
-7.80396e-07
-1.35996e-06
-2.45162e-07
-0.00106758
-1.55194e-06
1.36213e-06
6.95697e-07
0.00106892
-6.21936e-07
8.33222e-07
-1.06529e-07
4.24355e-07
-7.80319e-07
-1.35441e-06
-2.42599e-07
-0.000262766
1.58733e-06
1.55205e-06
-6.74973e-07
-6.83149e-07
0.000260984
-1.34097e-06
-1.34228e-06
-0.00107186
6.64407e-07
6.65257e-07
0.00107322
-0.00107326
-1.55553e-06
1.34194e-06
6.67251e-07
0.00107457
-6.19869e-07
8.63843e-07
-8.14486e-08
4.38192e-07
-7.79476e-07
-1.36936e-06
-2.20284e-07
-0.00107292
-1.55024e-06
1.34189e-06
6.67378e-07
0.00107424
-6.17264e-07
8.58323e-07
-8.41205e-08
4.38179e-07
-7.81969e-07
-1.36913e-06
-2.17649e-07
-0.000264044
1.5833e-06
1.55048e-06
-6.64714e-07
-6.70368e-07
0.000262245
-1.29594e-06
-1.29711e-06
-0.00107721
6.42257e-07
6.43155e-07
0.00107852
-0.00107844
-1.54747e-06
1.29688e-06
6.34143e-07
0.00107969
-6.07534e-07
8.91543e-07
-5.64789e-08
4.60418e-07
-7.68155e-07
-1.37174e-06
-1.88921e-07
-0.0010781
-1.54203e-06
1.29665e-06
6.34085e-07
0.00107936
-6.0466e-07
8.86346e-07
-5.8366e-08
4.60166e-07
-7.70691e-07
-1.37159e-06
-1.86481e-07
-0.000265263
1.57533e-06
1.54231e-06
-6.47778e-07
-6.53474e-07
0.000263447
-1.24837e-06
-1.24941e-06
-0.00108237
6.20355e-07
6.21275e-07
0.00108362
-0.00108337
-1.53896e-06
1.24918e-06
6.04411e-07
0.00108457
-5.94926e-07
9.17336e-07
-3.37661e-08
4.84339e-07
-7.54017e-07
-1.36918e-06
-1.58476e-07
-0.00108303
-1.53345e-06
1.24902e-06
6.0442e-07
0.00108423
-5.9191e-07
9.11701e-07
-3.6534e-08
4.84193e-07
-7.56529e-07
-1.36909e-06
-1.55819e-07
-0.000266408
1.56684e-06
1.53368e-06
-6.30431e-07
-6.36105e-07
0.000264574
-1.20451e-06
-1.20536e-06
-0.00108732
6.00883e-07
6.01782e-07
0.00108852
-0.00108806
-1.53234e-06
1.20512e-06
5.8071e-07
0.00108919
-5.85223e-07
9.39844e-07
-1.59878e-08
5.08722e-07
-7.40306e-07
-1.36539e-06
-1.30397e-07
-0.00108772
-1.52689e-06
1.20486e-06
5.80694e-07
0.00108885
-5.8238e-07
9.34415e-07
-1.82202e-08
5.08783e-07
-7.42769e-07
-1.36533e-06
-1.27911e-07
-0.000267479
1.5608e-06
1.52749e-06
-6.16666e-07
-6.22346e-07
0.00026563
-1.16574e-06
-1.16703e-06
-0.00109208
5.8444e-07
5.85379e-07
0.00109324
-0.00109251
-1.52787e-06
1.16666e-06
5.62574e-07
0.00109359
-5.78532e-07
9.59797e-07
-1.70036e-09
5.33502e-07
-7.28191e-07
-1.36149e-06
-1.05528e-07
-0.00109217
-1.52252e-06
1.16651e-06
5.62739e-07
0.00109325
-5.76051e-07
9.5439e-07
-3.64796e-09
5.33336e-07
-7.30611e-07
-1.36113e-06
-1.03177e-07
-0.000268482
1.55659e-06
1.52309e-06
-6.04724e-07
-6.10472e-07
0.000266618
-1.13232e-06
-1.13354e-06
-0.00109667
5.70481e-07
5.71173e-07
0.00109779
-0.00109676
-1.52629e-06
1.13275e-06
5.48506e-07
0.00109779
-5.74031e-07
9.76702e-07
1.70499e-08
5.55795e-07
-7.17917e-07
-1.35842e-06
-8.40833e-08
-0.00109641
-1.52064e-06
1.13255e-06
5.48429e-07
0.00109744
-5.71168e-07
9.71638e-07
1.54967e-08
5.55555e-07
-7.20561e-07
-1.35804e-06
-8.18458e-08
-0.000269424
1.55458e-06
1.5209e-06
-5.95177e-07
-6.00909e-07
0.000267544
-1.10281e-06
-1.10401e-06
-0.00110111
5.58464e-07
5.59147e-07
0.0011022
-0.00110081
-1.52655e-06
1.10393e-06
5.37677e-07
0.0011018
-5.72149e-07
9.92089e-07
3.31206e-08
5.76714e-07
-7.08486e-07
-1.35548e-06
-6.53728e-08
-0.00110047
-1.52187e-06
1.10401e-06
5.37861e-07
0.00110145
-5.73505e-07
9.87502e-07
3.00721e-08
5.77481e-07
-7.10099e-07
-1.3542e-06
-6.24655e-08
-0.000270304
1.5557e-06
1.52197e-06
-5.90022e-07
-5.95715e-07
0.000268412
-1.07907e-06
-1.08017e-06
-0.00110542
5.49094e-07
5.49733e-07
0.00110648
-0.0011047
-1.52947e-06
1.07957e-06
5.29391e-07
0.00110565
-5.76444e-07
1.00689e-06
3.9134e-08
5.98824e-07
-6.97622e-07
-1.35087e-06
-4.77225e-08
-0.00110435
-1.52245e-06
1.07936e-06
5.29454e-07
0.0011053
-5.67773e-07
9.99532e-07
3.83345e-08
5.96983e-07
-7.02608e-07
-1.35293e-06
-4.63635e-08
-0.000271134
1.55602e-06
1.5221e-06
-5.83257e-07
-5.89033e-07
0.000269229
-1.05452e-06
-1.05543e-06
-0.00110962
5.389e-07
5.39583e-07
0.00111065
-0.00110843
-1.52953e-06
1.05664e-06
5.19391e-07
0.00110934
-5.67258e-07
1.0196e-06
5.12741e-08
6.1542e-07
-6.90012e-07
-1.34977e-06
-3.54273e-08
-0.00110808
-1.52628e-06
1.05755e-06
5.20679e-07
0.00110899
-5.78119e-07
1.01424e-06
4.6651e-08
6.18119e-07
-6.89804e-07
-1.34736e-06
-3.07105e-08
-0.000271903
1.56007e-06
1.52609e-06
-5.81869e-07
-5.87637e-07
0.000269987
-1.03263e-06
-1.03366e-06
-0.00111371
5.30378e-07
5.30968e-07
0.00111472
-0.00111201
-1.53043e-06
1.03368e-06
5.09246e-07
0.00111287
-5.67567e-07
1.0344e-06
6.78853e-08
6.32425e-07
-6.77265e-07
-1.34359e-06
-2.34141e-08
-0.00111166
-1.52532e-06
1.03299e-06
5.08024e-07
0.00111252
-5.71149e-07
1.03057e-06
7.07951e-08
6.33108e-07
-6.7816e-07
-1.34171e-06
-2.0767e-08
-0.000272631
1.56058e-06
1.52642e-06
-5.76675e-07
-5.82638e-07
0.000270704
-1.01187e-06
-1.01244e-06
-0.0011177
5.21066e-07
5.22333e-07
0.00111868
-0.00111543
-1.53384e-06
1.01615e-06
5.02973e-07
0.00111627
-5.68348e-07
1.04404e-06
6.44492e-08
6.49368e-07
-6.65705e-07
-1.33888e-06
-1.10872e-08
-0.00111508
-1.52623e-06
1.01313e-06
4.98609e-07
0.00111592
-5.62565e-07
1.04062e-06
7.0702e-08
6.48275e-07
-6.6945e-07
-1.33917e-06
-1.0085e-08
-0.000273297
1.56271e-06
1.5286e-06
-5.71203e-07
-5.76746e-07
0.000271354
-9.94149e-07
-9.95296e-07
-0.00112159
5.1481e-07
5.14895e-07
0.00112255
-0.00111872
-1.53268e-06
9.91234e-07
4.87015e-07
0.00111951
-5.62566e-07
1.06101e-06
8.5255e-08
6.62892e-07
-6.50353e-07
-1.32929e-06
-3.35814e-09
-0.00111836
-1.52929e-06
9.9343e-07
4.90709e-07
0.00111916
-5.67729e-07
1.0543e-06
8.27854e-08
6.63759e-07
-6.51552e-07
-1.32781e-06
-4.98505e-10
-0.000273915
1.56305e-06
1.5287e-06
-5.64066e-07
-5.69827e-07
0.000271958
-9.69903e-07
-9.7044e-07
-0.00112539
5.02988e-07
5.04108e-07
0.00112632
-0.00112184
-1.53221e-06
9.71894e-07
4.78242e-07
0.00112259
-5.53429e-07
1.07096e-06
8.90328e-08
6.73548e-07
-6.368e-07
-1.32187e-06
6.32902e-09
-0.00112148
-1.52448e-06
9.69988e-07
4.75481e-07
0.00112223
-5.48229e-07
1.06612e-06
9.14454e-08
6.72044e-07
-6.40481e-07
-1.32278e-06
8.52741e-09
-0.000274475
1.55753e-06
1.52326e-06
-5.47643e-07
-5.53261e-07
0.000272495
-9.49709e-07
-9.5057e-07
-0.00112909
4.94347e-07
4.94745e-07
0.00113
-0.0011248
-1.53234e-06
9.52064e-07
4.67802e-07
0.00112552
-5.49827e-07
1.0808e-06
9.03265e-08
6.84826e-07
-6.2064e-07
-1.31187e-06
1.76821e-08
-0.00112444
-1.52777e-06
9.53818e-07
4.70704e-07
0.00112517
-5.51429e-07
1.07267e-06
8.52523e-08
6.85016e-07
-6.23475e-07
-1.31239e-06
2.16322e-08
-0.000274963
1.56041e-06
1.52596e-06
-5.44517e-07
-5.50195e-07
0.000272972
-9.28862e-07
-9.2951e-07
-0.0011327
4.84544e-07
4.85396e-07
0.00113359
-0.0011276
-1.53151e-06
9.30434e-07
4.57549e-07
0.00112828
-5.44187e-07
1.09122e-06
9.67369e-08
6.94949e-07
-6.02943e-07
-1.29936e-06
2.6958e-08
-0.00112725
-1.52678e-06
9.30199e-07
4.56705e-07
0.00112793
-5.46481e-07
1.08513e-06
9.52033e-08
6.95837e-07
-6.04994e-07
-1.29879e-06
3.0894e-08
-0.00027539
1.56201e-06
1.52751e-06
-5.41461e-07
-5.47207e-07
0.000273389
-9.07376e-07
-9.0787e-07
-0.00113622
4.74609e-07
4.75448e-07
0.00113708
-0.00113023
-1.52859e-06
9.08794e-07
4.47039e-07
0.00113087
-5.33593e-07
1.10107e-06
1.04266e-07
7.03276e-07
-5.85712e-07
-1.28567e-06
3.4258e-08
-0.00112988
-1.52449e-06
9.08226e-07
4.46203e-07
0.00113052
-5.36693e-07
1.09529e-06
1.04219e-07
7.04325e-07
-5.87236e-07
-1.28439e-06
3.80877e-08
-0.000275753
1.55908e-06
1.52452e-06
-5.31761e-07
-5.37499e-07
0.000273739
-8.86071e-07
-8.86646e-07
-0.00113964
4.65038e-07
4.65819e-07
0.00114048
-0.00113269
-1.52383e-06
8.87526e-07
4.36137e-07
0.00113328
-5.206e-07
1.11004e-06
1.11131e-07
7.10542e-07
-5.68874e-07
-1.2712e-06
4.08373e-08
-0.00113233
-1.51977e-06
8.86955e-07
4.35325e-07
0.00113293
-5.2357e-07
1.1042e-06
1.11195e-07
7.1141e-07
-5.70489e-07
-1.26996e-06
4.44392e-08
-0.000276045
1.55476e-06
1.52011e-06
-5.20142e-07
-5.25891e-07
0.000274016
-8.65063e-07
-8.65689e-07
-0.00114296
4.55751e-07
4.56345e-07
0.00114378
-0.00113497
-1.51764e-06
8.66329e-07
4.25583e-07
0.00113551
-5.09832e-07
1.11833e-06
1.20439e-07
7.17292e-07
-5.52173e-07
-1.25562e-06
4.70461e-08
-0.00113461
-1.51425e-06
8.66987e-07
4.26791e-07
0.00113515
-5.10773e-07
1.11134e-06
1.15919e-07
7.18025e-07
-5.53909e-07
-1.2546e-06
5.05324e-08
-0.000276266
1.54902e-06
1.51429e-06
-5.07524e-07
-5.13276e-07
0.000274223
5.22146e-06
5.23231e-06
0.000260567
-0.000259171
-5.93189e-06
-5.91777e-06
5.08158e-06
0.000261409
-0.000258686
-5.96204e-06
3.37916e-06
-5.22153e-06
5.07656e-06
0.000261442
-0.000258702
-5.97005e-06
3.37432e-06
5.22214e-06
0.000260579
-0.000259173
-5.90328e-06
-5.94651e-06
5.07467e-06
0.000261473
-0.000258717
-5.96755e-06
3.369e-06
5.0814e-06
-5.22378e-06
0.000261417
-0.000258686
3.38421e-06
-5.97225e-06
1.07111e-05
1.06174e-05
-0.000252649
-0.000256079
-0.000255118
-0.000255118
-6.41734e-06
-4.12515e-06
-6.6623e-06
-6.41771e-06
-4.12609e-06
-6.66784e-06
-5.06963e-06
0.00104223
1.06707e-05
1.06227e-05
-0.000252651
-0.000256076
-0.000255121
-0.000255121
-6.41996e-06
-4.12544e-06
-6.66504e-06
-6.41517e-06
-4.12087e-06
-6.66025e-06
-5.06927e-06
0.00104211
1.0731e-05
1.06833e-05
-0.000252643
-0.000256071
-0.000255118
-0.000255113
-6.41981e-06
-4.13281e-06
-6.66497e-06
-6.42001e-06
-4.12309e-06
-6.66258e-06
-5.08397e-06
-5.07209e-06
0.00104217
1.07263e-05
1.06276e-05
-0.000252646
-0.000256074
-0.000255118
-0.000255118
-6.4147e-06
-4.12777e-06
-6.65997e-06
-6.42014e-06
-4.12593e-06
-6.6653e-06
-0.000258712
-5.95991e-06
3.36394e-06
-5.22138e-06
0.000261404
-0.000258684
3.37919e-06
-5.96198e-06
5.22453e-06
0.000260559
-0.000259158
-5.90559e-06
-5.94373e-06
-0.000258697
3.37148e-06
-5.95704e-06
-5.23228e-06
0.000261471
-0.000258712
3.36649e-06
-5.96502e-06
-0.000259168
-5.93177e-06
-5.9178e-06
5.61757e-06
5.65479e-06
-4.87838e-06
-4.87223e-06
0.000259045
-7.80478e-07
-7.446e-07
0.000261544
-0.000259462
-2.8225e-07
-2.74857e-07
7.09202e-06
0.00105882
-4.53008e-06
-1.57833e-06
-2.21273e-06
-2.57666e-06
-6.60588e-06
-7.05009e-06
-3.17074e-06
-0.000263264
-0.000259684
-0.000262793
-5.62803e-06
1.4555e-05
7.03144e-06
0.00105919
-4.54921e-06
-1.57072e-06
-2.21588e-06
-2.58757e-06
-6.6374e-06
-7.067e-06
-3.18641e-06
-0.000263338
-0.000259715
-0.000262834
0.00106192
2.02401e-06
-0.00106086
9.73754e-07
-1.71809e-06
-1.69115e-07
-6.92243e-07
-1.46543e-06
-3.07553e-07
-8.28051e-07
3.43225e-07
7.8856e-07
0.00106234
2.02437e-06
-0.00106128
9.68689e-07
-1.7285e-06
-1.61621e-07
-6.97737e-07
-1.47114e-06
-3.07702e-07
-8.2842e-07
3.48641e-07
-4.87646e-06
-4.86912e-06
0.000259055
-7.47274e-07
0.000261569
-0.000259482
-2.79605e-07
-2.71991e-07
6.81326e-06
0.00105966
-4.55437e-06
-1.63766e-06
-2.22893e-06
-2.58587e-06
-6.61991e-06
-7.06238e-06
-3.18164e-06
-0.000263359
-0.000259742
-0.000262847
-5.62773e-06
1.45894e-05
7.12547e-06
0.00105896
-4.54903e-06
-1.58079e-06
-2.2209e-06
-2.58953e-06
-6.6367e-06
-7.06587e-06
-3.18603e-06
-0.000259684
-0.000263315
-0.000262806
0.00106294
2.03159e-06
-0.00106187
9.62251e-07
-1.68817e-06
-1.71623e-07
-6.92521e-07
-1.46847e-06
-3.07665e-07
-8.25818e-07
3.45599e-07
7.7794e-07
0.00106203
2.0346e-06
-0.00106099
9.84066e-07
-1.71815e-06
-1.66661e-07
-6.9244e-07
-1.46825e-06
-3.05089e-07
-8.30806e-07
3.43167e-07
1.45864e-05
7.11279e-06
0.00105877
-4.53002e-06
-1.57822e-06
-2.2101e-06
-2.57669e-06
-6.60589e-06
-3.17079e-06
-7.04777e-06
-0.000259679
-0.000263259
-0.000262788
2.03091e-06
-0.00106161
9.67484e-07
-1.68807e-06
-1.68951e-07
-6.89597e-07
-1.46576e-06
-3.10036e-07
3.40409e-07
-8.25543e-07
7.77912e-07
0.00106182
2.03422e-06
-0.00106078
9.841e-07
-1.71806e-06
-1.66554e-07
-6.92193e-07
-1.46811e-06
-3.07527e-07
-8.28004e-07
3.45758e-07
-4.88129e-06
-4.8689e-06
0.000259035
-7.39132e-07
0.000261521
-0.000259444
-2.8265e-07
-2.77215e-07
1.44875e-05
6.83175e-06
0.00105961
-4.55451e-06
-1.63767e-06
-2.22899e-06
-2.58569e-06
-6.61978e-06
-3.18153e-06
-7.05965e-06
-0.000259732
-0.000263356
-0.000262842
2.03595e-06
-0.00106131
9.83009e-07
-1.68559e-06
-1.71495e-07
-6.92272e-07
-1.46262e-06
-3.05021e-07
3.4045e-07
-8.28067e-07
7.39224e-07
0.00106284
2.03659e-06
-0.00106179
9.72566e-07
-1.68313e-06
-1.71657e-07
-6.89936e-07
-1.4657e-06
-3.07505e-07
-8.28232e-07
3.40609e-07
-0.000259459
-2.79787e-07
-2.77436e-07
1.63935e-06
1.60414e-06
-7.10552e-07
-7.19022e-07
0.00025973
-8.66337e-07
-8.27644e-07
0.000262778
-0.000260667
-2.12611e-07
-2.05038e-07
8.29638e-07
0.00106319
-6.56429e-07
8.17754e-07
-1.43308e-07
3.78169e-07
-8.00564e-07
-1.39714e-06
-2.90465e-07
-1.64463e-06
1.63226e-06
8.24415e-07
0.00106362
-6.59285e-07
8.2583e-07
-1.4331e-07
3.83592e-07
-8.03536e-07
-1.40283e-06
-2.88164e-07
0.00106713
1.38301e-06
-0.0010658
7.02155e-07
-1.59182e-06
-1.03482e-07
-6.28661e-07
-1.35465e-06
-2.49029e-07
-7.76787e-07
4.22398e-07
8.71705e-07
0.00106757
1.38327e-06
-0.00106623
6.97074e-07
-1.59714e-06
-1.03593e-07
-6.28881e-07
-1.35764e-06
-2.49146e-07
-7.77139e-07
4.25201e-07
-7.11044e-07
-7.18353e-07
0.000259748
-8.32904e-07
0.000262804
-0.000260679
-2.12644e-07
-2.07532e-07
8.23145e-07
0.00106421
-6.54067e-07
7.81854e-07
-1.45763e-07
3.80615e-07
-8.03606e-07
-1.40028e-06
-2.88109e-07
-1.63935e-06
1.63749e-06
8.29701e-07
0.0010633
-6.59272e-07
8.17856e-07
-1.43354e-07
3.78182e-07
-8.03265e-07
-1.39733e-06
-2.87991e-07
0.00106816
1.38438e-06
-0.00106684
7.01114e-07
-1.5539e-06
-1.08414e-07
-6.23659e-07
-1.35235e-06
-2.46605e-07
-7.77128e-07
4.25051e-07
8.61159e-07
0.00106725
1.38302e-06
-0.00106591
7.02227e-07
-1.58924e-06
-1.05978e-07
-6.28833e-07
-1.35478e-06
-2.49004e-07
-7.76842e-07
4.25164e-07
1.63205e-06
8.29732e-07
0.0010631
-6.59053e-07
8.15183e-07
-1.45747e-07
3.78104e-07
-8.03188e-07
-2.88024e-07
-1.39723e-06
1.38398e-06
-0.00106657
7.06468e-07
-1.56169e-06
-1.10827e-07
-6.23494e-07
-1.35226e-06
-2.46628e-07
4.24917e-07
-7.76936e-07
8.63724e-07
0.00106704
1.37772e-06
-0.0010657
7.02251e-07
-1.58914e-06
-1.05926e-07
-6.28633e-07
-1.35472e-06
-2.49058e-07
-7.76788e-07
4.22412e-07
-7.13814e-07
-7.15796e-07
0.000259709
-8.24875e-07
0.000262753
-0.000260646
-2.12762e-07
-2.07415e-07
1.63355e-06
8.18032e-07
0.00106413
-6.54123e-07
7.76436e-07
-1.50876e-07
3.75478e-07
-8.00818e-07
-2.92945e-07
-1.39476e-06
1.38396e-06
-0.00106625
7.0138e-07
-1.55119e-06
-1.10749e-07
-6.2349e-07
-1.34669e-06
-2.49044e-07
4.1685e-07
-7.76857e-07
8.27517e-07
0.00106807
1.38437e-06
-0.00106674
7.01189e-07
-1.55137e-06
-1.10972e-07
-6.23731e-07
-1.35492e-06
-2.49054e-07
-7.79718e-07
4.22385e-07
-0.000260654
-2.127e-07
-2.07615e-07
1.58995e-06
1.55721e-06
-6.72233e-07
-6.80569e-07
0.000260984
-8.90423e-07
-8.5421e-07
0.00026406
-0.000261937
-1.9175e-07
-1.86686e-07
6.91225e-07
0.00106848
-6.29684e-07
8.72045e-07
-9.93252e-08
4.24548e-07
-7.77647e-07
-1.35445e-06
-2.47561e-07
-1.59533e-06
1.36146e-06
7.01853e-07
0.00106891
-6.29929e-07
8.77474e-07
-9.93438e-08
4.30077e-07
-7.80607e-07
-1.36007e-06
-2.42703e-07
0.00107249
1.34955e-06
-0.00107117
6.75853e-07
-1.58992e-06
-8.56778e-08
-6.2495e-07
-1.36701e-06
-2.29896e-07
-7.78127e-07
4.33869e-07
8.95873e-07
0.00107292
1.34983e-06
-0.00107159
6.76049e-07
-1.59524e-06
-8.32644e-08
-6.27709e-07
-1.37531e-06
-2.25002e-07
-7.83689e-07
4.42111e-07
-6.75306e-07
-6.77516e-07
0.000261005
-8.56881e-07
0.000264088
-0.000261962
-1.89138e-07
-1.83931e-07
6.90236e-07
0.00106952
-6.27342e-07
8.35963e-07
-1.04253e-07
4.27165e-07
-7.80578e-07
-1.36003e-06
-2.42657e-07
-1.58739e-06
1.3613e-06
6.96591e-07
0.00106859
-6.2997e-07
8.69509e-07
-9.92719e-08
4.27309e-07
-7.80288e-07
-1.3572e-06
-2.42523e-07
0.00107352
1.35087e-06
-0.0010722
6.74864e-07
-1.5544e-06
-8.81163e-08
-6.22551e-07
-1.36995e-06
-2.24952e-07
-7.83694e-07
4.36543e-07
8.90629e-07
0.0010726
1.34961e-06
-0.00107127
6.75981e-07
-1.58999e-06
-8.29629e-08
-6.27826e-07
-1.36968e-06
-2.24848e-07
-7.83357e-07
4.36623e-07
1.36626e-06
6.91336e-07
0.00106839
-6.27036e-07
8.66804e-07
-1.0417e-07
4.27186e-07
-7.80245e-07
-2.45099e-07
-1.35716e-06
1.35052e-06
-0.00107193
6.74963e-07
-1.55694e-06
-8.80165e-08
-6.22285e-07
-1.36724e-06
-2.27485e-07
4.33747e-07
-7.80929e-07
8.85128e-07
0.0010724
1.34942e-06
-0.00107107
6.75927e-07
-1.58458e-06
-8.80436e-08
-6.2206e-07
-1.36708e-06
-2.27463e-07
-7.80714e-07
4.33828e-07
-6.75465e-07
-6.80105e-07
0.000260969
-8.51583e-07
0.000264039
-0.000261921
-1.91592e-07
-1.83708e-07
1.36252e-06
6.95531e-07
0.00106942
-6.22129e-07
8.27951e-07
-1.0918e-07
4.24577e-07
-7.77906e-07
-2.45111e-07
-1.35476e-06
1.35041e-06
-0.0010716
6.75031e-07
-1.55171e-06
-9.0209e-08
-6.19764e-07
-1.36694e-06
-2.24948e-07
4.33736e-07
-7.83392e-07
8.51466e-07
0.00107344
1.35085e-06
-0.00107211
6.74872e-07
-1.55181e-06
-9.0556e-08
-6.19801e-07
-1.3647e-06
-2.2747e-07
-7.81005e-07
4.31215e-07
-0.000261934
-1.89216e-07
-1.84019e-07
1.58846e-06
1.5529e-06
-6.61761e-07
-6.6749e-07
0.000262248
-9.18418e-07
-8.82055e-07
0.000265279
-0.000263155
-1.6406e-07
-1.58934e-07
6.68127e-07
0.00107381
-6.22322e-07
8.97335e-07
-7.931e-08
4.38312e-07
-7.76676e-07
-1.36913e-06
-2.22706e-07
-1.59388e-06
1.34126e-06
6.68326e-07
0.00107423
-6.25302e-07
9.02869e-07
-7.67115e-08
4.46572e-07
-7.82224e-07
-1.37743e-06
-2.17787e-07
0.00107767
1.30797e-06
-0.0010764
6.43177e-07
-1.58262e-06
-6.0233e-08
-6.13024e-07
-1.37184e-06
-1.99303e-07
-7.68891e-07
4.54406e-07
9.2407e-07
0.00107809
1.30826e-06
-0.00107682
6.43399e-07
-1.58814e-06
-5.74094e-08
-6.16162e-07
-1.3801e-06
-1.94434e-07
-7.74391e-07
4.62604e-07
-6.64984e-07
-6.69689e-07
0.000262274
-8.84928e-07
0.000265307
-0.000263181
-1.61063e-07
-1.5584e-07
6.67142e-07
0.00107484
-6.19919e-07
8.61087e-07
-8.17386e-08
4.40974e-07
-7.82242e-07
-1.37206e-06
-2.17763e-07
-1.58857e-06
1.34111e-06
6.6832e-07
0.00107391
-6.25334e-07
8.9741e-07
-7.68817e-08
4.41122e-07
-7.81962e-07
-1.37182e-06
-2.17566e-07
0.0010787
1.30919e-06
-0.00107743
6.42201e-07
-1.54695e-06
-6.26442e-08
-6.10619e-07
-1.3747e-06
-1.94358e-07
-7.74449e-07
4.57023e-07
9.1846e-07
0.00107777
1.30808e-06
-0.0010765
6.43348e-07
-1.58271e-06
-5.78895e-08
-6.15892e-07
-1.37446e-06
-1.9417e-07
-7.74155e-07
4.5715e-07
1.34088e-06
6.68218e-07
0.00107371
-6.1987e-07
8.92145e-07
-8.14527e-08
4.38315e-07
-7.79218e-07
-2.20219e-07
-1.36917e-06
1.3089e-06
-0.00107716
6.42324e-07
-1.54967e-06
-6.21169e-08
-6.10735e-07
-1.37193e-06
-1.96981e-07
4.54087e-07
-7.71635e-07
9.13203e-07
0.00107757
1.30788e-06
-0.0010763
6.43264e-07
-1.57748e-06
-6.2417e-08
-6.10553e-07
-1.37182e-06
-1.96843e-07
-7.71399e-07
4.54348e-07
-6.62474e-07
-6.69693e-07
0.000262232
-8.79261e-07
0.000265258
-0.00026314
-1.6423e-07
-1.56316e-07
1.34228e-06
6.67176e-07
0.00107475
-6.17605e-07
8.58462e-07
-8.39477e-08
4.35663e-07
-7.79509e-07
-2.20235e-07
-1.36678e-06
1.30877e-06
-0.00107683
6.42373e-07
-1.54422e-06
-6.50833e-08
-6.07796e-07
-1.37169e-06
-1.94277e-07
4.54229e-07
-7.74187e-07
8.79427e-07
0.00107861
1.30916e-06
-0.00107734
6.42218e-07
-1.54454e-06
-6.48896e-08
-6.08271e-07
-1.36929e-06
-1.96876e-07
-7.71659e-07
4.51618e-07
-0.000263153
-1.61335e-07
-1.56084e-07
1.58064e-06
1.5449e-06
-6.45156e-07
-6.50888e-07
0.000263449
-9.44745e-07
-9.08247e-07
0.000266424
-0.000264302
-1.3739e-07
-1.32169e-07
6.34923e-07
0.00107892
-6.10136e-07
9.25528e-07
-5.36503e-08
4.60162e-07
-7.65336e-07
-1.37151e-06
-1.91522e-07
-1.58601e-06
1.29633e-06
6.35237e-07
0.00107935
-6.12987e-07
9.30776e-07
-5.17454e-08
4.68617e-07
-7.70937e-07
-1.3799e-06
-1.86464e-07
0.0010826
1.26018e-06
-0.00108139
6.12215e-07
-1.57422e-06
-3.74301e-08
-6.00551e-07
-1.3702e-06
-1.68153e-07
-7.54736e-07
4.78702e-07
9.50286e-07
0.00108302
1.26054e-06
-0.00108181
6.12474e-07
-1.57959e-06
-3.48511e-08
-6.03275e-07
-1.37851e-06
-1.63289e-07
-7.60355e-07
4.86764e-07
-6.4822e-07
-6.52914e-07
0.000263475
-9.11e-07
0.000266453
-0.000264328
-1.3458e-07
-1.29308e-07
6.33953e-07
0.00107996
-6.07708e-07
8.8911e-07
-5.60663e-08
4.63004e-07
-7.70905e-07
-1.37445e-06
-1.8651e-07
-1.58058e-06
1.29599e-06
6.35046e-07
0.00107903
-6.12769e-07
9.25576e-07
-5.11969e-08
4.63079e-07
-7.70677e-07
-1.37424e-06
-1.86406e-07
0.00108364
1.26131e-06
-0.00108243
6.11302e-07
-1.53839e-06
-3.97971e-08
-5.98136e-07
-1.37309e-06
-1.63168e-07
-7.60325e-07
4.8128e-07
9.45103e-07
0.0010827
1.26024e-06
-0.00108149
6.12341e-07
-1.57438e-06
-3.4423e-08
-6.03733e-07
-1.37284e-06
-1.63153e-07
-7.59949e-07
4.8145e-07
1.29587e-06
6.35014e-07
0.00107883
-6.07346e-07
9.20064e-07
-5.61562e-08
4.60287e-07
-7.67984e-07
-1.88949e-07
-1.37161e-06
1.26107e-06
-0.00108216
6.11442e-07
-1.54095e-06
-3.94928e-08
-5.97842e-07
-1.37047e-06
-1.65797e-07
4.78246e-07
-7.57621e-07
9.39589e-07
0.0010825
1.2601e-06
-0.00108129
6.12283e-07
-1.56909e-06
-3.92099e-08
-5.98208e-07
-1.3701e-06
-1.65737e-07
-7.57313e-07
4.78452e-07
-6.45498e-07
-6.52764e-07
0.000263434
-9.05779e-07
0.000266403
-0.000264287
-1.36851e-07
-1.28934e-07
1.29708e-06
6.33981e-07
0.00107987
-6.0502e-07
8.86264e-07
-5.86132e-08
4.57868e-07
-7.68283e-07
-1.88885e-07
-1.36935e-06
1.26083e-06
-0.00108182
6.11372e-07
-1.53572e-06
-4.15033e-08
-5.95621e-07
-1.37004e-06
-1.63309e-07
4.78379e-07
-7.60009e-07
9.05726e-07
0.00108355
1.26126e-06
-0.00108234
6.11294e-07
-1.53597e-06
-4.16112e-08
-5.9589e-07
-1.36777e-06
-1.65718e-07
-7.57621e-07
4.75743e-07
-0.0002643
-1.34389e-07
-1.29095e-07
1.57225e-06
1.53636e-06
-6.2791e-07
-6.33644e-07
0.000264577
-9.68784e-07
-9.32177e-07
0.000267496
-0.000265376
-1.12101e-07
-1.06858e-07
6.05184e-07
0.00108379
-5.97561e-07
9.51332e-07
-3.11616e-08
4.8408e-07
-7.51208e-07
-1.36908e-06
-1.60996e-07
-1.57765e-06
1.24877e-06
6.05484e-07
0.00108422
-6.00369e-07
9.56708e-07
-2.91122e-08
4.92734e-07
-7.56832e-07
-1.37757e-06
-1.55933e-07
0.00108728
1.2147e-06
-0.00108613
5.86811e-07
-1.56738e-06
-1.70852e-08
-5.90501e-07
-1.36579e-06
-1.39651e-07
-7.40582e-07
5.03587e-07
9.74406e-07
0.00108771
1.21505e-06
-0.00108656
5.86957e-07
-1.57289e-06
-1.4631e-08
-5.93568e-07
-1.37409e-06
-1.34733e-07
-7.46074e-07
5.11746e-07
-6.31018e-07
-6.35716e-07
0.000264603
-9.34939e-07
0.000267525
-0.000265402
-1.09297e-07
-1.03949e-07
6.04212e-07
0.00108483
-5.95118e-07
9.1478e-07
-3.35389e-08
4.87058e-07
-7.56758e-07
-1.37195e-06
-1.5599e-07
-1.57218e-06
1.24853e-06
6.05407e-07
0.0010839
-6.0006e-07
9.51091e-07
-2.9469e-08
4.86988e-07
-7.56537e-07
-1.3717e-06
-1.55786e-07
0.00108833
1.21574e-06
-0.00108718
5.85843e-07
-1.5314e-06
-1.93608e-08
-5.88084e-07
-1.36874e-06
-1.34704e-07
-7.46243e-07
5.06076e-07
9.68952e-07
0.00108739
1.21482e-06
-0.00108624
5.86892e-07
-1.56747e-06
-1.46156e-08
-5.93574e-07
-1.36848e-06
-1.34504e-07
-7.45853e-07
5.06456e-07
1.24835e-06
6.0532e-07
0.00108369
-5.9458e-07
9.45576e-07
-3.43147e-08
4.84477e-07
-7.53873e-07
-1.58347e-07
-1.36927e-06
1.21541e-06
-0.00108691
5.85906e-07
-1.53405e-06
-1.91425e-08
-5.88092e-07
-1.36604e-06
-1.37242e-07
5.03508e-07
-7.43344e-07
9.63373e-07
0.00108718
1.21454e-06
-0.00108603
5.86757e-07
-1.56185e-06
-1.92661e-08
-5.87163e-07
-1.36597e-06
-1.37293e-07
-7.43306e-07
5.03253e-07
-6.28146e-07
-6.35442e-07
0.000264561
-9.29456e-07
0.000267475
-0.00026536
-1.12006e-07
-1.04017e-07
1.24943e-06
6.04305e-07
0.00108474
-5.92252e-07
9.11657e-07
-3.67268e-08
4.81808e-07
-7.54122e-07
-1.58357e-07
-1.36672e-06
1.21521e-06
-0.00108657
5.85904e-07
-1.52866e-06
-2.14875e-08
-5.85457e-07
-1.36565e-06
-1.34663e-07
5.03355e-07
-7.45907e-07
9.29381e-07
0.00108824
1.21553e-06
-0.00108709
5.85705e-07
-1.52855e-06
-2.16018e-08
-5.84788e-07
-1.36359e-06
-1.37248e-07
-7.43573e-07
5.00797e-07
-0.000265373
-1.09477e-07
-1.04099e-07
1.56594e-06
1.52991e-06
-6.13583e-07
-6.19343e-07
0.000265633
-9.92138e-07
-9.52745e-07
0.000268501
-0.000266379
-9.08793e-08
-8.55848e-08
5.81703e-07
0.00108841
-5.88335e-07
9.7667e-07
-1.12163e-08
5.08954e-07
-7.37368e-07
-1.36528e-06
-1.32858e-07
-1.57118e-06
1.20471e-06
5.81731e-07
0.00108884
-5.90654e-07
9.79318e-07
-1.15436e-08
5.17458e-07
-7.43019e-07
-1.37364e-06
-1.27771e-07
0.00109173
1.17482e-06
-0.00109064
5.6731e-07
-1.56478e-06
4.96922e-11
-5.8472e-07
-1.36152e-06
-1.14088e-07
-7.28307e-07
5.26887e-07
9.9551e-07
0.00109216
1.175e-06
-0.00109107
5.67276e-07
-1.56801e-06
1.07561e-09
-5.86073e-07
-1.36733e-06
-1.09142e-07
-7.33596e-07
5.32854e-07
-6.16316e-07
-6.21024e-07
0.000265658
-9.55935e-07
0.000268528
-0.000266407
-8.74198e-08
-8.205e-08
5.80594e-07
0.00108946
-5.85888e-07
9.3728e-07
-1.57811e-08
5.11833e-07
-7.42932e-07
-1.36812e-06
-1.27864e-07
-1.56578e-06
1.20455e-06
5.81714e-07
0.00108852
-5.90539e-07
9.73932e-07
-1.14272e-08
5.1173e-07
-7.42748e-07
-1.36801e-06
-1.27759e-07
0.00109278
1.17578e-06
-0.00109169
5.66431e-07
-1.52581e-06
-4.20584e-09
-5.7948e-07
-1.3648e-06
-1.08999e-07
-7.33905e-07
5.2993e-07
9.8983e-07
0.00109184
1.1748e-06
-0.00109075
5.67322e-07
-1.56262e-06
7.81198e-10
-5.85961e-07
-1.36398e-06
-1.08911e-07
-7.33323e-07
5.29985e-07
1.20434e-06
5.81656e-07
0.00108832
-5.8589e-07
9.68389e-07
-1.60595e-08
5.09157e-07
-7.39905e-07
-1.30279e-07
-1.36512e-06
1.17552e-06
-0.00109142
5.66451e-07
-1.52894e-06
-3.36887e-09
-5.80542e-07
-1.36177e-06
-1.1169e-07
5.27151e-07
-7.30813e-07
9.84577e-07
0.00109163
1.17458e-06
-0.00109054
5.67333e-07
-1.55694e-06
-3.11462e-09
-5.79618e-07
-1.36176e-06
-1.11756e-07
-7.3078e-07
5.27e-07
-6.13623e-07
-6.20999e-07
0.000265617
-9.50279e-07
0.000268477
-0.000266365
-9.03389e-08
-8.23639e-08
1.20536e-06
5.80666e-07
0.00108937
-5.83539e-07
9.34399e-07
-1.83502e-08
5.06349e-07
-7.4021e-07
-1.30265e-07
-1.36276e-06
1.17529e-06
-0.00109108
5.6651e-07
-1.52347e-06
-5.65269e-09
-5.77699e-07
-1.36152e-06
-1.08981e-07
5.2722e-07
-7.33416e-07
9.50492e-07
0.00109269
1.17548e-06
-0.0010916
5.6625e-07
-1.52348e-06
-5.15128e-09
-5.77218e-07
-1.3593e-06
-1.11724e-07
-7.31031e-07
5.2444e-07
-0.000266378
-8.73006e-08
-8.18958e-08
1.56486e-06
1.52586e-06
-6.02799e-07
-6.08374e-07
0.000266621
-1.01019e-06
-9.70701e-07
0.00026944
-0.000267321
-7.18993e-08
-6.64951e-08
5.63314e-07
0.0010928
-5.8566e-07
9.97069e-07
5.38122e-09
5.33958e-07
-7.2496e-07
-1.36133e-06
-1.05497e-07
-1.56702e-06
1.16592e-06
5.63284e-07
0.00109324
-5.84121e-07
9.99356e-07
4.08315e-09
5.39283e-07
-7.30915e-07
-1.36696e-06
-1.02966e-07
0.00109596
1.1392e-06
-0.00109492
5.52026e-07
-1.5628e-06
2.08014e-08
-5.80839e-07
-1.35787e-06
-8.96242e-08
-7.19941e-07
5.4944e-07
1.01281e-06
0.0010964
1.13998e-06
-0.00109536
5.52775e-07
-1.56636e-06
1.913e-08
-5.83291e-07
-1.36377e-06
-8.67531e-08
-7.22681e-07
5.55852e-07
-6.04416e-07
-6.09141e-07
0.000266646
-9.73082e-07
0.000269468
-0.000267348
-7.01584e-08
-6.4608e-08
5.62681e-07
0.00109386
-5.80401e-07
9.57554e-07
-1.32729e-09
5.36464e-07
-7.30558e-07
-1.36373e-06
-1.03115e-07
-1.5617e-06
1.16571e-06
5.63268e-07
0.00109292
-5.84334e-07
9.94042e-07
4.47155e-09
5.36512e-07
-7.30643e-07
-1.36421e-06
-1.03008e-07
0.00109702
1.14065e-06
-0.00109598
5.51184e-07
-1.52374e-06
1.48235e-08
-5.75457e-07
-1.36116e-06
-8.69664e-08
-7.22874e-07
5.52344e-07
1.00726e-06
0.00109608
1.13974e-06
-0.00109504
5.52673e-07
-1.56096e-06
1.84943e-08
-5.83383e-07
-1.36039e-06
-8.64496e-08
-7.2219e-07
5.52892e-07
1.1659e-06
5.63692e-07
0.00109271
-5.79179e-07
9.88369e-07
-2.13404e-09
5.33729e-07
-7.27846e-07
-1.05409e-07
-1.36123e-06
1.14095e-06
-0.00109571
5.5184e-07
-1.5272e-06
1.3174e-08
-5.77655e-07
-1.35796e-06
-8.92041e-08
5.50077e-07
-7.19812e-07
1.00134e-06
0.00109587
1.14016e-06
-0.00109483
5.52962e-07
-1.55536e-06
1.10874e-08
-5.77241e-07
-1.35815e-06
-8.87981e-08
-7.19645e-07
5.50543e-07
-6.02056e-07
-6.09353e-07
0.000266605
-9.67558e-07
0.000269419
-0.000267306
-7.32196e-08
-6.49615e-08
1.16692e-06
5.62759e-07
0.00109377
-5.76794e-07
9.54262e-07
-4.05008e-09
5.31063e-07
-7.28134e-07
-1.05413e-07
-1.35876e-06
1.14097e-06
-0.00109537
5.51961e-07
-1.52175e-06
9.3795e-09
-5.74927e-07
-1.35768e-06
-8.63233e-08
5.50277e-07
-7.22062e-07
9.67175e-07
0.00109694
1.14148e-06
-0.00109589
5.52085e-07
-1.52181e-06
7.94325e-09
-5.74784e-07
-1.35562e-06
-8.87445e-08
-7.19899e-07
5.47644e-07
-0.000267318
-7.14636e-08
-6.59385e-08
1.56325e-06
1.52419e-06
-5.93454e-07
-5.99096e-07
0.000267545
-1.02525e-06
-9.85505e-07
0.000270324
-0.000268203
-5.80362e-08
-5.24782e-08
5.50136e-07
0.001097
-5.81014e-07
1.01315e-06
2.07717e-08
5.56135e-07
-7.17993e-07
-1.35856e-06
-8.38157e-08
-1.56553e-06
1.13192e-06
5.49385e-07