/*--------------------------------*- C++ -*----------------------------------*\
| =========                 |                                                 |
| \\      /  F ield         | OpenFOAM: The Open Source CFD Toolbox           |
|  \\    /   O peration     | Version:  v1912                                 |
|   \\  /    A nd           | Website:  www.openfoam.com                      |
|    \\/     M anipulation  |                                                 |
\*---------------------------------------------------------------------------*/
FoamFile
{
    version     2.0;
    format      ascii;
    class       volScalarField;
    location    "0.85";
    object      p;
}
// * * * * * * * * * * * * * * * * * * * * * * * * * * * * * * * * * * * * * //

dimensions      [0 2 -2 0 0 0 0];


internalField   nonuniform List<scalar> 
171728
(
0.0213901
0.0213939
0.0213939
0.02141
0.0211659
0.021166
0.021166
0.0211799
0.0209392
0.0209391
0.0209391
0.0209531
0.0207124
0.0207123
0.0207123
0.0207262
0.0204856
0.0204855
0.0204855
0.0204994
0.0202587
0.0202587
0.0202587
0.0202726
0.0200319
0.0200319
0.0200319
0.0200458
0.0198051
0.019805
0.019805
0.019819
0.0195783
0.0195782
0.0195782
0.0195921
0.0193515
0.0193514
0.0193514
0.0193653
0.0191247
0.0191246
0.0191246
0.0191385
0.0188978
0.0188978
0.0188978
0.0189117
0.018671
0.0186709
0.0186709
0.0186849
0.0184442
0.0184441
0.0184441
0.018458
0.0182174
0.0182173
0.0182173
0.0182312
0.0179906
0.0179905
0.0179905
0.0180044
0.0177637
0.0177637
0.0177637
0.0177776
0.0175369
0.0175368
0.0175368
0.0175508
0.0173101
0.01731
0.01731
0.0173239
0.0170833
0.0170832
0.0170832
0.0170971
0.0168564
0.0168564
0.0168564
0.0168703
0.0166296
0.0166295
0.0166295
0.0166435
0.0164028
0.0164027
0.0164027
0.0164166
0.016176
0.0161759
0.0161759
0.0161898
0.0159491
0.0159491
0.0159491
0.015963
0.0157223
0.0157222
0.0157222
0.0157362
0.0154955
0.0154954
0.0154954
0.0155093
0.0152687
0.0152686
0.0152686
0.0152825
0.0150418
0.0150418
0.0150418
0.0150557
0.014815
0.0148149
0.0148149
0.0148289
0.0145882
0.0145881
0.0145881
0.014602
0.0143614
0.0143613
0.0143613
0.0143752
0.0141345
0.0141345
0.0141345
0.0141484
0.0139077
0.0139076
0.0139076
0.0139216
0.0136809
0.0136808
0.0136808
0.0136947
0.0134541
0.013454
0.013454
0.0134679
0.0132272
0.0132272
0.0132272
0.0132411
0.0130004
0.0130003
0.0130003
0.0130143
0.0127736
0.0127735
0.0127735
0.0127874
0.0125468
0.0125467
0.0125467
0.0125606
0.0123199
0.0123199
0.0123199
0.0123338
0.0120931
0.012093
0.012093
0.012107
0.0118663
0.0118662
0.0118662
0.0118801
0.0116395
0.0116394
0.0116394
0.0116533
0.0114126
0.0114126
0.0114126
0.0114265
0.0111858
0.0111858
0.0111858
0.0111997
0.010959
0.0109589
0.0109589
0.0109729
0.0107322
0.0107321
0.0107321
0.010746
0.0105054
0.0105053
0.0105053
0.0105192
0.0102785
0.0102785
0.0102785
0.0102924
0.0100517
0.0100516
0.0100516
0.0100656
0.00982489
0.00982483
0.00982483
0.00983874
0.00959807
0.009598
0.009598
0.00961192
0.00937125
0.00937118
0.00937118
0.0093851
0.00914443
0.00914436
0.00914436
0.00915828
0.00891761
0.00891754
0.00891754
0.00893146
0.00869079
0.00869072
0.00869072
0.00870464
0.00846397
0.0084639
0.0084639
0.00847782
0.00823715
0.00823709
0.00823709
0.008251
0.00801034
0.00801027
0.00801027
0.00802419
0.00778352
0.00778346
0.00778346
0.00779737
0.00755671
0.00755664
0.00755664
0.00757056
0.0073299
0.00732983
0.00732983
0.00734374
0.00710308
0.00710302
0.00710302
0.00711693
0.00687627
0.0068762
0.0068762
0.00689012
0.00664946
0.00664939
0.00664939
0.0066633
0.00642264
0.00642257
0.00642257
0.00643649
0.00619583
0.00619576
0.00619576
0.00620967
0.00596901
0.00596895
0.00596895
0.00598286
0.0057422
0.00574213
0.00574213
0.00575604
0.00551539
0.00551532
0.00551532
0.00552923
0.00528858
0.00528851
0.00528851
0.00530242
0.00506176
0.0050617
0.0050617
0.00507561
0.00483495
0.00483489
0.00483489
0.0048488
0.00460815
0.00460808
0.00460808
0.00462199
0.00438134
0.00438127
0.00438127
0.00439518
0.00415453
0.00415446
0.00415446
0.00416837
0.00392772
0.00392766
0.00392766
0.00394157
0.00370092
0.00370085
0.00370085
0.00371476
0.00347411
0.00347404
0.00347405
0.00348795
0.0032473
0.00324724
0.00324724
0.00326115
0.0030205
0.00302043
0.00302043
0.00303434
0.00279369
0.00279362
0.00279363
0.00280753
0.00256688
0.00256682
0.00256682
0.00258073
0.00234008
0.00234001
0.00234001
0.00235392
0.00211327
0.0021132
0.0021132
0.00212711
0.00188646
0.0018864
0.0018864
0.0019003
0.00165966
0.00165959
0.00165959
0.0016735
0.00143285
0.00143278
0.00143278
0.00144669
0.00120604
0.00120598
0.00120598
0.00121988
0.000979236
0.000979169
0.00097917
0.000993076
0.000752434
0.000752369
0.000752369
0.000766275
0.000525642
0.000525572
0.000525573
0.000539473
0.000299568
0.000298946
0.000298956
0.000312722
8.84115e-05
9.48672e-05
9.48791e-05
9.49044e-05
0.0214407
0.021436
0.021436
0.0214407
0.021436
0.021436
0.0214434
0.0214434
0.0214434
0.0214434
0.021436
0.021436
0.0214406
0.021436
0.021436
0.0214407
0.02141
0.0212089
0.0213939
0.0213939
0.0212227
0.0212227
0.02141
0.0212089
0.0213939
0.0213939
0.0212227
0.0212227
0.0213939
0.0212227
0.0212227
0.02141
0.0212088
0.0213939
0.0212227
0.0212227
0.0212089
0.0211799
0.020982
0.021166
0.021166
0.0209959
0.0209959
0.0211799
0.020982
0.021166
0.021166
0.0209959
0.0209958
0.021166
0.0209959
0.0209959
0.0211799
0.020982
0.021166
0.0209958
0.0209959
0.020982
0.0209531
0.0207552
0.0209391
0.0209391
0.020769
0.020769
0.0209531
0.0207552
0.0209391
0.0209391
0.020769
0.020769
0.0209391
0.020769
0.020769
0.0209531
0.0207552
0.0209391
0.020769
0.020769
0.0207552
0.0207262
0.0205283
0.0207123
0.0207123
0.0205422
0.0205422
0.0207262
0.0205283
0.0207123
0.0207123
0.0205422
0.0205422
0.0207123
0.0205422
0.0205422
0.0207262
0.0205283
0.0207123
0.0205422
0.0205422
0.0205283
0.0204994
0.0203015
0.0204855
0.0204855
0.0203154
0.0203154
0.0204994
0.0203015
0.0204855
0.0204855
0.0203154
0.0203154
0.0204855
0.0203154
0.0203154
0.0204994
0.0203015
0.0204855
0.0203154
0.0203154
0.0203015
0.0202726
0.0200747
0.0202587
0.0202587
0.0200886
0.0200886
0.0202726
0.0200747
0.0202587
0.0202587
0.0200886
0.0200886
0.0202587
0.0200886
0.0200886
0.0202726
0.0200747
0.0202587
0.0200886
0.0200886
0.0200747
0.0200458
0.0198479
0.0200319
0.0200319
0.0198617
0.0198617
0.0200458
0.0198479
0.0200319
0.0200319
0.0198617
0.0198617
0.0200319
0.0198617
0.0198617
0.0200458
0.0198479
0.0200319
0.0198617
0.0198617
0.0198479
0.019819
0.0196211
0.019805
0.019805
0.0196349
0.0196349
0.019819
0.0196211
0.019805
0.019805
0.0196349
0.0196349
0.019805
0.0196349
0.0196349
0.019819
0.0196211
0.019805
0.0196349
0.0196349
0.0196211
0.0195921
0.0193942
0.0195782
0.0195782
0.0194081
0.0194081
0.0195921
0.0193942
0.0195782
0.0195782
0.0194081
0.0194081
0.0195782
0.0194081
0.0194081
0.0195921
0.0193942
0.0195782
0.0194081
0.0194081
0.0193942
0.0193653
0.0191674
0.0193514
0.0193514
0.0191813
0.0191813
0.0193653
0.0191674
0.0193514
0.0193514
0.0191813
0.0191813
0.0193514
0.0191813
0.0191813
0.0193653
0.0191674
0.0193514
0.0191813
0.0191813
0.0191674
0.0191385
0.0189406
0.0191246
0.0191246
0.0189545
0.0189545
0.0191385
0.0189406
0.0191246
0.0191246
0.0189545
0.0189545
0.0191246
0.0189545
0.0189545
0.0191385
0.0189406
0.0191246
0.0189545
0.0189545
0.0189406
0.0189117
0.0187138
0.0188978
0.0188978
0.0187277
0.0187277
0.0189117
0.0187138
0.0188978
0.0188978
0.0187277
0.0187277
0.0188978
0.0187277
0.0187277
0.0189117
0.0187138
0.0188978
0.0187277
0.0187277
0.0187138
0.0186849
0.018487
0.0186709
0.0186709
0.0185008
0.0185008
0.0186849
0.018487
0.0186709
0.0186709
0.0185008
0.0185008
0.0186709
0.0185008
0.0185008
0.0186849
0.018487
0.0186709
0.0185008
0.0185008
0.018487
0.018458
0.0182601
0.0184441
0.0184441
0.018274
0.018274
0.018458
0.0182601
0.0184441
0.0184441
0.018274
0.018274
0.0184441
0.018274
0.018274
0.018458
0.0182601
0.0184441
0.018274
0.018274
0.0182601
0.0182312
0.0180333
0.0182173
0.0182173
0.0180472
0.0180472
0.0182312
0.0180333
0.0182173
0.0182173
0.0180472
0.0180472
0.0182173
0.0180472
0.0180472
0.0182312
0.0180333
0.0182173
0.0180472
0.0180472
0.0180333
0.0180044
0.0178065
0.0179905
0.0179905
0.0178204
0.0178204
0.0180044
0.0178065
0.0179905
0.0179905
0.0178204
0.0178204
0.0179905
0.0178204
0.0178204
0.0180044
0.0178065
0.0179905
0.0178204
0.0178204
0.0178065
0.0177776
0.0175797
0.0177637
0.0177637
0.0175935
0.0175935
0.0177776
0.0175797
0.0177637
0.0177637
0.0175935
0.0175935
0.0177637
0.0175935
0.0175935
0.0177776
0.0175797
0.0177637
0.0175935
0.0175935
0.0175797
0.0175508
0.0173529
0.0175368
0.0175368
0.0173667
0.0173667
0.0175508
0.0173529
0.0175368
0.0175368
0.0173667
0.0173667
0.0175368
0.0173667
0.0173667
0.0175508
0.0173529
0.0175368
0.0173667
0.0173667
0.0173529
0.0173239
0.017126
0.01731
0.01731
0.0171399
0.0171399
0.0173239
0.017126
0.01731
0.01731
0.0171399
0.0171399
0.01731
0.0171399
0.0171399
0.0173239
0.017126
0.01731
0.0171399
0.0171399
0.017126
0.0170971
0.0168992
0.0170832
0.0170832
0.0169131
0.0169131
0.0170971
0.0168992
0.0170832
0.0170832
0.0169131
0.0169131
0.0170832
0.0169131
0.0169131
0.0170971
0.0168992
0.0170832
0.0169131
0.0169131
0.0168992
0.0168703
0.0166724
0.0168564
0.0168564
0.0166862
0.0166862
0.0168703
0.0166724
0.0168564
0.0168564
0.0166862
0.0166862
0.0168564
0.0166862
0.0166862
0.0168703
0.0166724
0.0168564
0.0166862
0.0166862
0.0166724
0.0166435
0.0164456
0.0166295
0.0166295
0.0164594
0.0164594
0.0166435
0.0164455
0.0166295
0.0166295
0.0164594
0.0164594
0.0166295
0.0164594
0.0164594
0.0166435
0.0164456
0.0166295
0.0164594
0.0164594
0.0164456
0.0164166
0.0162187
0.0164027
0.0164027
0.0162326
0.0162326
0.0164166
0.0162187
0.0164027
0.0164027
0.0162326
0.0162326
0.0164027
0.0162326
0.0162326
0.0164166
0.0162187
0.0164027
0.0162326
0.0162326
0.0162187
0.0161898
0.0159919
0.0161759
0.0161759
0.0160058
0.0160058
0.0161898
0.0159919
0.0161759
0.0161759
0.0160058
0.0160058
0.0161759
0.0160058
0.0160058
0.0161898
0.0159919
0.0161759
0.0160058
0.0160058
0.0159919
0.015963
0.0157651
0.0159491
0.0159491
0.0157789
0.0157789
0.015963
0.0157651
0.0159491
0.0159491
0.0157789
0.0157789
0.0159491
0.0157789
0.0157789
0.015963
0.0157651
0.0159491
0.0157789
0.0157789
0.0157651
0.0157362
0.0155383
0.0157222
0.0157222
0.0155521
0.0155521
0.0157362
0.0155383
0.0157222
0.0157222
0.0155521
0.0155521
0.0157222
0.0155521
0.0155521
0.0157362
0.0155383
0.0157222
0.0155521
0.0155521
0.0155383
0.0155093
0.0153114
0.0154954
0.0154954
0.0153253
0.0153253
0.0155093
0.0153114
0.0154954
0.0154954
0.0153253
0.0153253
0.0154954
0.0153253
0.0153253
0.0155093
0.0153114
0.0154954
0.0153253
0.0153253
0.0153114
0.0152825
0.0150846
0.0152686
0.0152686
0.0150985
0.0150985
0.0152825
0.0150846
0.0152686
0.0152686
0.0150985
0.0150985
0.0152686
0.0150985
0.0150985
0.0152825
0.0150846
0.0152686
0.0150985
0.0150985
0.0150846
0.0150557
0.0148578
0.0150418
0.0150418
0.0148717
0.0148717
0.0150557
0.0148578
0.0150418
0.0150418
0.0148717
0.0148717
0.0150418
0.0148717
0.0148717
0.0150557
0.0148578
0.0150418
0.0148717
0.0148717
0.0148578
0.0148289
0.014631
0.0148149
0.0148149
0.0146448
0.0146448
0.0148289
0.014631
0.0148149
0.0148149
0.0146448
0.0146448
0.0148149
0.0146448
0.0146448
0.0148289
0.014631
0.0148149
0.0146448
0.0146448
0.014631
0.014602
0.0144041
0.0145881
0.0145881
0.014418
0.014418
0.014602
0.0144041
0.0145881
0.0145881
0.014418
0.014418
0.0145881
0.014418
0.014418
0.014602
0.0144041
0.0145881
0.014418
0.014418
0.0144041
0.0143752
0.0141773
0.0143613
0.0143613
0.0141912
0.0141912
0.0143752
0.0141773
0.0143613
0.0143613
0.0141912
0.0141912
0.0143613
0.0141912
0.0141912
0.0143752
0.0141773
0.0143613
0.0141912
0.0141912
0.0141773
0.0141484
0.0139505
0.0141345
0.0141345
0.0139644
0.0139644
0.0141484
0.0139505
0.0141345
0.0141345
0.0139644
0.0139644
0.0141345
0.0139644
0.0139644
0.0141484
0.0139505
0.0141345
0.0139644
0.0139644
0.0139505
0.0139216
0.0137237
0.0139076
0.0139076
0.0137375
0.0137375
0.0139216
0.0137237
0.0139076
0.0139076
0.0137375
0.0137375
0.0139076
0.0137375
0.0137375
0.0139216
0.0137237
0.0139076
0.0137375
0.0137375
0.0137237
0.0136947
0.0134968
0.0136808
0.0136808
0.0135107
0.0135107
0.0136947
0.0134968
0.0136808
0.0136808
0.0135107
0.0135107
0.0136808
0.0135107
0.0135107
0.0136947
0.0134968
0.0136808
0.0135107
0.0135107
0.0134968
0.0134679
0.01327
0.013454
0.013454
0.0132839
0.0132839
0.0134679
0.01327
0.013454
0.013454
0.0132839
0.0132839
0.013454
0.0132839
0.0132839
0.0134679
0.01327
0.013454
0.0132839
0.0132839
0.01327
0.0132411
0.0130432
0.0132272
0.0132272
0.013057
0.013057
0.0132411
0.0130432
0.0132272
0.0132272
0.013057
0.013057
0.0132272
0.013057
0.013057
0.0132411
0.0130432
0.0132272
0.013057
0.013057
0.0130432
0.0130143
0.0128164
0.0130003
0.0130003
0.0128302
0.0128302
0.0130143
0.0128164
0.0130003
0.0130003
0.0128302
0.0128302
0.0130003
0.0128302
0.0128302
0.0130143
0.0128164
0.0130003
0.0128302
0.0128302
0.0128164
0.0127874
0.0125895
0.0127735
0.0127735
0.0126034
0.0126034
0.0127874
0.0125895
0.0127735
0.0127735
0.0126034
0.0126034
0.0127735
0.0126034
0.0126034
0.0127874
0.0125895
0.0127735
0.0126034
0.0126034
0.0125895
0.0125606
0.0123627
0.0125467
0.0125467
0.0123766
0.0123766
0.0125606
0.0123627
0.0125467
0.0125467
0.0123766
0.0123766
0.0125467
0.0123766
0.0123766
0.0125606
0.0123627
0.0125467
0.0123766
0.0123766
0.0123627
0.0123338
0.0121359
0.0123199
0.0123199
0.0121497
0.0121497
0.0123338
0.0121359
0.0123199
0.0123199
0.0121497
0.0121497
0.0123199
0.0121497
0.0121497
0.0123338
0.0121359
0.0123199
0.0121497
0.0121497
0.0121359
0.012107
0.0119091
0.012093
0.012093
0.0119229
0.0119229
0.012107
0.0119091
0.012093
0.012093
0.0119229
0.0119229
0.012093
0.0119229
0.0119229
0.012107
0.0119091
0.012093
0.0119229
0.0119229
0.0119091
0.0118801
0.0116822
0.0118662
0.0118662
0.0116961
0.0116961
0.0118801
0.0116822
0.0118662
0.0118662
0.0116961
0.0116961
0.0118662
0.0116961
0.0116961
0.0118801
0.0116822
0.0118662
0.0116961
0.0116961
0.0116822
0.0116533
0.0114554
0.0116394
0.0116394
0.0114693
0.0114693
0.0116533
0.0114554
0.0116394
0.0116394
0.0114693
0.0114693
0.0116394
0.0114693
0.0114693
0.0116533
0.0114554
0.0116394
0.0114693
0.0114693
0.0114554
0.0114265
0.0112286
0.0114126
0.0114126
0.0112425
0.0112425
0.0114265
0.0112286
0.0114126
0.0114126
0.0112425
0.0112425
0.0114126
0.0112425
0.0112425
0.0114265
0.0112286
0.0114126
0.0112425
0.0112425
0.0112286
0.0111997
0.0110018
0.0111858
0.0111858
0.0110156
0.0110156
0.0111997
0.0110018
0.0111858
0.0111858
0.0110156
0.0110156
0.0111858
0.0110156
0.0110156
0.0111997
0.0110018
0.0111858
0.0110156
0.0110156
0.0110018
0.0109729
0.0107749
0.0109589
0.0109589
0.0107888
0.0107888
0.0109729
0.0107749
0.0109589
0.0109589
0.0107888
0.0107888
0.0109589
0.0107888
0.0107888
0.0109729
0.0107749
0.0109589
0.0107888
0.0107888
0.0107749
0.010746
0.0105481
0.0107321
0.0107321
0.010562
0.010562
0.010746
0.0105481
0.0107321
0.0107321
0.010562
0.010562
0.0107321
0.010562
0.010562
0.010746
0.0105481
0.0107321
0.010562
0.010562
0.0105481
0.0105192
0.0103213
0.0105053
0.0105053
0.0103352
0.0103352
0.0105192
0.0103213
0.0105053
0.0105053
0.0103352
0.0103352
0.0105053
0.0103352
0.0103352
0.0105192
0.0103213
0.0105053
0.0103352
0.0103352
0.0103213
0.0102924
0.0100945
0.0102785
0.0102785
0.0101084
0.0101084
0.0102924
0.0100945
0.0102785
0.0102785
0.0101084
0.0101084
0.0102785
0.0101084
0.0101084
0.0102924
0.0100945
0.0102785
0.0101084
0.0101084
0.0100945
0.0100656
0.00986766
0.0100516
0.0100516
0.00988153
0.00988153
0.0100656
0.00986766
0.0100516
0.0100516
0.00988153
0.00988153
0.0100516
0.00988153
0.00988153
0.0100656
0.00986766
0.0100516
0.00988153
0.00988153
0.00986766
0.00983874
0.00964084
0.00982483
0.00982483
0.00965471
0.00965471
0.00983874
0.00964084
0.00982483
0.00982483
0.00965471
0.00965471
0.00982483
0.00965471
0.00965471
0.00983874
0.00964084
0.00982483
0.00965471
0.00965471
0.00964084
0.00961192
0.00941402
0.009598
0.009598
0.00942789
0.00942789
0.00961192
0.00941402
0.009598
0.009598
0.00942789
0.00942789
0.009598
0.00942789
0.00942789
0.00961192
0.00941402
0.009598
0.00942789
0.00942789
0.00941402
0.0093851
0.0091872
0.00937118
0.00937118
0.00920107
0.00920107
0.0093851
0.0091872
0.00937118
0.00937118
0.00920107
0.00920107
0.00937118
0.00920107
0.00920107
0.0093851
0.0091872
0.00937118
0.00920107
0.00920107
0.0091872
0.00915828
0.00896038
0.00914436
0.00914436
0.00897425
0.00897425
0.00915828
0.00896038
0.00914436
0.00914436
0.00897425
0.00897425
0.00914436
0.00897425
0.00897425
0.00915828
0.00896038
0.00914436
0.00897425
0.00897425
0.00896038
0.00893146
0.00873356
0.00891754
0.00891754
0.00874743
0.00874743
0.00893146
0.00873356
0.00891754
0.00891754
0.00874743
0.00874743
0.00891754
0.00874743
0.00874743
0.00893146
0.00873356
0.00891754
0.00874743
0.00874743
0.00873356
0.00870464
0.00850674
0.00869072
0.00869072
0.00852061
0.00852061
0.00870464
0.00850674
0.00869072
0.00869072
0.00852061
0.00852061
0.00869072
0.00852061
0.00852061
0.00870464
0.00850674
0.00869072
0.00852061
0.00852061
0.00850674
0.00847782
0.00827993
0.0084639
0.0084639
0.00829379
0.00829379
0.00847782
0.00827993
0.0084639
0.0084639
0.00829379
0.00829379
0.00846391
0.00829379
0.00829379
0.00847782
0.00827993
0.0084639
0.00829379
0.00829379
0.00827993
0.008251
0.00805311
0.00823709
0.00823709
0.00806698
0.00806698
0.008251
0.00805311
0.00823709
0.00823709
0.00806698
0.00806698
0.00823709
0.00806698
0.00806698
0.008251
0.00805311
0.00823709
0.00806698
0.00806697
0.00805311
0.00802419
0.0078263
0.00801027
0.00801027
0.00784016
0.00784016
0.00802419
0.0078263
0.00801027
0.00801027
0.00784016
0.00784016
0.00801027
0.00784016
0.00784016
0.00802419
0.0078263
0.00801027
0.00784016
0.00784016
0.0078263
0.00779737
0.00759948
0.00778346
0.00778346
0.00761335
0.00761335
0.00779737
0.00759948
0.00778346
0.00778346
0.00761335
0.00761335
0.00778346
0.00761335
0.00761335
0.00779737
0.00759948
0.00778346
0.00761335
0.00761335
0.00759948
0.00757056
0.00737267
0.00755664
0.00755664
0.00738653
0.00738653
0.00757056
0.00737267
0.00755664
0.00755664
0.00738653
0.00738653
0.00755664
0.00738653
0.00738653
0.00757056
0.00737267
0.00755664
0.00738653
0.00738653
0.00737267
0.00734374
0.00714586
0.00732983
0.00732983
0.00715972
0.00715972
0.00734374
0.00714585
0.00732983
0.00732983
0.00715972
0.00715972
0.00732983
0.00715972
0.00715972
0.00734374
0.00714586
0.00732983
0.00715972
0.00715972
0.00714585
0.00711693
0.00691904
0.00710302
0.00710301
0.00693291
0.00693291
0.00711693
0.00691904
0.00710302
0.00710302
0.00693291
0.00693291
0.00710302
0.00693291
0.00693291
0.00711693
0.00691904
0.00710301
0.00693291
0.0069329
0.00691904
0.00689012
0.00669223
0.0068762
0.0068762
0.00670609
0.00670609
0.00689012
0.00669223
0.0068762
0.0068762
0.00670609
0.00670609
0.0068762
0.00670609
0.00670609
0.00689012
0.00669223
0.0068762
0.00670609
0.00670609
0.00669223
0.0066633
0.00646542
0.00664939
0.00664939
0.00647928
0.00647928
0.0066633
0.00646541
0.00664939
0.00664939
0.00647928
0.00647928
0.00664939
0.00647928
0.00647928
0.0066633
0.00646542
0.00664939
0.00647928
0.00647928
0.00646541
0.00643649
0.0062386
0.00642257
0.00642257
0.00625246
0.00625246
0.00643649
0.0062386
0.00642257
0.00642257
0.00625246
0.00625246
0.00642258
0.00625246
0.00625246
0.00643649
0.0062386
0.00642257
0.00625246
0.00625246
0.0062386
0.00620967
0.00601179
0.00619576
0.00619576
0.00602565
0.00602565
0.00620967
0.00601179
0.00619576
0.00619576
0.00602565
0.00602565
0.00619576
0.00602565
0.00602565
0.00620967
0.00601179
0.00619576
0.00602565
0.00602565
0.00601179
0.00598286
0.00578497
0.00596895
0.00596895
0.00579884
0.00579884
0.00598286
0.00578497
0.00596895
0.00596895
0.00579884
0.00579884
0.00596895
0.00579884
0.00579884
0.00598286
0.00578497
0.00596895
0.00579884
0.00579884
0.00578497
0.00575605
0.00555816
0.00574213
0.00574213
0.00557202
0.00557202
0.00575605
0.00555816
0.00574213
0.00574213
0.00557202
0.00557202
0.00574213
0.00557202
0.00557202
0.00575605
0.00555816
0.00574213
0.00557202
0.00557202
0.00555816
0.00552923
0.00533135
0.00551532
0.00551532
0.00534521
0.00534521
0.00552923
0.00533135
0.00551532
0.00551532
0.00534521
0.00534521
0.00551532
0.00534521
0.00534521
0.00552923
0.00533135
0.00551532
0.00534521
0.00534521
0.00533135
0.00530242
0.00510454
0.00528851
0.00528851
0.0051184
0.0051184
0.00530242
0.00510454
0.00528851
0.00528851
0.0051184
0.0051184
0.00528851
0.0051184
0.0051184
0.00530242
0.00510454
0.00528851
0.0051184
0.0051184
0.00510454
0.00507561
0.00487773
0.0050617
0.0050617
0.00489159
0.00489159
0.00507561
0.00487773
0.0050617
0.0050617
0.00489159
0.00489159
0.0050617
0.00489159
0.00489159
0.00507561
0.00487773
0.0050617
0.00489159
0.00489159
0.00487773
0.0048488
0.00465092
0.00483489
0.00483489
0.00466478
0.00466478
0.0048488
0.00465092
0.00483489
0.00483489
0.00466478
0.00466478
0.00483489
0.00466478
0.00466478
0.0048488
0.00465092
0.00483489
0.00466478
0.00466478
0.00465092
0.00462199
0.00442411
0.00460808
0.00460808
0.00443797
0.00443797
0.00462199
0.00442411
0.00460808
0.00460808
0.00443797
0.00443797
0.00460808
0.00443797
0.00443797
0.00462199
0.00442411
0.00460808
0.00443797
0.00443797
0.00442411
0.00439518
0.0041973
0.00438127
0.00438127
0.00421117
0.00421116
0.00439518
0.0041973
0.00438127
0.00438127
0.00421116
0.00421117
0.00438127
0.00421116
0.00421117
0.00439518
0.0041973
0.00438127
0.00421117
0.00421116
0.0041973
0.00416837
0.0039705
0.00415446
0.00415446
0.00398436
0.00398436
0.00416837
0.0039705
0.00415446
0.00415446
0.00398436
0.00398436
0.00415446
0.00398436
0.00398436
0.00416837
0.0039705
0.00415446
0.00398436
0.00398436
0.0039705
0.00394157
0.00374369
0.00392766
0.00392766
0.00375755
0.00375755
0.00394157
0.00374369
0.00392766
0.00392766
0.00375755
0.00375755
0.00392766
0.00375755
0.00375755
0.00394157
0.00374369
0.00392765
0.00375755
0.00375755
0.00374369
0.00371476
0.00351689
0.00370085
0.00370085
0.00353075
0.00353075
0.00371476
0.00351689
0.00370085
0.00370085
0.00353075
0.00353075
0.00370085
0.00353075
0.00353075
0.00371476
0.00351689
0.00370085
0.00353075
0.00353074
0.00351689
0.00348795
0.00329008
0.00347404
0.00347404
0.00330394
0.00330394
0.00348795
0.00329008
0.00347404
0.00347404
0.00330394
0.00330394
0.00347405
0.00330394
0.00330394
0.00348795
0.00329008
0.00347404
0.00330394
0.00330394
0.00329008
0.00326115
0.00306327
0.00324724
0.00324724
0.00307713
0.00307713
0.00326115
0.00306327
0.00324724
0.00324724
0.00307713
0.00307713
0.00324724
0.00307713
0.00307713
0.00326115
0.00306327
0.00324724
0.00307713
0.00307713
0.00306327
0.00303434
0.00283647
0.00302043
0.00302043
0.00285033
0.00285033
0.00303434
0.00283647
0.00302043
0.00302043
0.00285033
0.00285033
0.00302043
0.00285033
0.00285033
0.00303434
0.00283647
0.00302043
0.00285033
0.00285033
0.00283647
0.00280753
0.00260966
0.00279362
0.00279362
0.00262352
0.00262352
0.00280753
0.00260966
0.00279362
0.00279363
0.00262352
0.00262352
0.00279363
0.00262352
0.00262352
0.00280753
0.00260966
0.00279362
0.00262352
0.00262352
0.00260966
0.00258073
0.00238285
0.00256682
0.00256682
0.00239671
0.00239671
0.00258073
0.00238285
0.00256682
0.00256682
0.00239671
0.00239671
0.00256682
0.00239671
0.00239671
0.00258073
0.00238285
0.00256682
0.00239671
0.00239671
0.00238285
0.00235392
0.00215605
0.00234001
0.00234001
0.0021699
0.0021699
0.00235392
0.00215604
0.00234001
0.00234001
0.0021699
0.0021699
0.00234001
0.0021699
0.0021699
0.00235392
0.00215605
0.00234001
0.0021699
0.0021699
0.00215605
0.00212711
0.00192924
0.0021132
0.0021132
0.0019431
0.0019431
0.00212711
0.00192924
0.0021132
0.0021132
0.0019431
0.0019431
0.0021132
0.0019431
0.0019431
0.00212711
0.00192924
0.0021132
0.0019431
0.0019431
0.00192924
0.0019003
0.00170243
0.0018864
0.00188639
0.00171629
0.00171629
0.0019003
0.00170243
0.0018864
0.0018864
0.00171629
0.00171629
0.0018864
0.00171629
0.00171629
0.0019003
0.00170243
0.00188639
0.00171629
0.00171629
0.00170243
0.0016735
0.00147563
0.00165959
0.00165959
0.00148948
0.00148948
0.0016735
0.00147563
0.00165959
0.00165959
0.00148948
0.00148948
0.00165959
0.00148948
0.00148949
0.0016735
0.00147563
0.00165959
0.00148948
0.00148948
0.00147563
0.00144669
0.00124882
0.00143278
0.00143278
0.00126268
0.00126268
0.00144669
0.00124882
0.00143278
0.00143278
0.00126268
0.00126268
0.00143278
0.00126268
0.00126268
0.00144669
0.00124882
0.00143278
0.00126268
0.00126268
0.00124882
0.00121988
0.00102201
0.00120598
0.00120597
0.00103587
0.00103587
0.00121988
0.00102201
0.00120598
0.00120598
0.00103587
0.00103587
0.00120598
0.00103587
0.00103587
0.00121988
0.00102201
0.00120597
0.00103587
0.00103587
0.00102201
0.000993077
0.000795211
0.000979169
0.000979169
0.000809069
0.000809068
0.000993077
0.00079521
0.000979169
0.000979169
0.000809069
0.000809069
0.00097917
0.000809068
0.000809069
0.000993077
0.000795211
0.000979169
0.000809069
0.000809068
0.000795211
0.000766276
0.000568407
0.000752368
0.000752368
0.000582269
0.00058227
0.000766276
0.000568407
0.000752369
0.000752368
0.000582269
0.000582269
0.000752369
0.00058227
0.000582269
0.000766275
0.000568409
0.000752369
0.000582269
0.000582269
0.000568408
0.000539475
0.000341648
0.000525572
0.000525572
0.000355547
0.000355544
0.000539474
0.000341644
0.000525573
0.000525573
0.000355544
0.000355547
0.000525572
0.000355541
0.000355542
0.000539474
0.000341652
0.000525572
0.000355546
0.000355542
0.000341646
0.000312727
0.000119171
0.000298959
0.000298952
0.000133009
0.000132994
0.000312722
0.000119161
0.000298952
0.000298959
0.00013299
0.000133008
0.000298952
0.000132984
0.000133004
0.000312732
0.000119178
0.000298948
0.000133003
0.00013298
0.000119163
9.49093e-05
9.48778e-05
9.48682e-05
9.49042e-05
9.48688e-05
9.48781e-05
8.84082e-05
8.84133e-05
8.84079e-05
9.48746e-05
9.49155e-05
9.48637e-05
0.0214689
0.0215051
0.0214855
0.0214855
0.0215613
0.021519
0.0216254
0.0214973
0.0215613
0.021519
0.0214973
0.0216253
0.0215345
0.0216423
0.0216423
0.0213254
0.0214459
0.0214339
0.0213269
0.0213176
0.021322
0.0213254
0.021446
0.0214338
0.0213269
0.0213902
0.0213901
0.0213901
0.0212224
0.0212224
0.0212224
0.0212224
0.0213228
0.0214262
0.0213931
0.0213358
0.0214063
0.0213254
0.0213356
0.0213177
0.0213221
0.0213228
0.021393
0.021426
0.0213357
0.0214063
0.0213356
0.0213253
0.0214278
0.0214278
0.0213222
0.0213243
0.0213242
0.0210952
0.0211804
0.0211804
0.0210952
0.0211804
0.0210953
0.0210952
0.0211804
0.0211804
0.0210952
0.0211659
0.0211659
0.0211659
0.0209959
0.0209959
0.0209959
0.0209959
0.0210957
0.0211799
0.0211659
0.0211093
0.0211798
0.0210957
0.0211092
0.0211803
0.0210952
0.0210957
0.0211659
0.0211799
0.0211093
0.0211798
0.0211092
0.0210957
0.0211804
0.0211804
0.0210954
0.0210953
0.0210953
0.0208683
0.0209533
0.0209533
0.0208683
0.0209533
0.0208684
0.0208683
0.0209533
0.0209533
0.0208683
0.0209392
0.0209392
0.0209392
0.0207691
0.0207691
0.0207691
0.0207691
0.0208689
0.0209528
0.0209392
0.0208824
0.0209528
0.0208688
0.0208825
0.0209533
0.0208683
0.0208689
0.0209392
0.0209528
0.0208824
0.0209528
0.0208825
0.0208688
0.0209533
0.0209533
0.0208686
0.0208684
0.0208684
0.0206415
0.0207265
0.0207265
0.0206415
0.0207265
0.0206415
0.0206415
0.0207265
0.0207265
0.0206415
0.0207124
0.0207124
0.0207124
0.0205423
0.0205423
0.0205423
0.0205423
0.020642
0.020726
0.0207123
0.0206556
0.020726
0.020642
0.0206556
0.0207265
0.0206415
0.020642
0.0207123
0.020726
0.0206556
0.020726
0.0206556
0.020642
0.0207265
0.0207265
0.0206417
0.0206415
0.0206415
0.0204147
0.0204997
0.0204997
0.0204147
0.0204997
0.0204147
0.0204147
0.0204997
0.0204997
0.0204147
0.0204856
0.0204856
0.0204856
0.0203154
0.0203155
0.0203155
0.0203154
0.0204152
0.0204992
0.0204855
0.0204288
0.0204992
0.0204152
0.0204288
0.0204997
0.0204147
0.0204152
0.0204855
0.0204992
0.0204288
0.0204992
0.0204288
0.0204152
0.0204997
0.0204997
0.0204149
0.0204147
0.0204147
0.0201879
0.0202729
0.0202729
0.0201879
0.0202729
0.0201879
0.0201879
0.0202729
0.0202729
0.0201879
0.0202587
0.0202587
0.0202587
0.0200886
0.0200886
0.0200886
0.0200886
0.0201884
0.0202724
0.0202587
0.020202
0.0202723
0.0201884
0.020202
0.0202728
0.0201879
0.0201884
0.0202587
0.0202724
0.020202
0.0202723
0.020202
0.0201884
0.0202728
0.0202728
0.0201881
0.0201879
0.0201879
0.019961
0.020046
0.0200461
0.019961
0.020046
0.0199611
0.019961
0.020046
0.0200461
0.019961
0.0200319
0.0200319
0.0200319
0.0198618
0.0198618
0.0198618
0.0198618
0.0199616
0.0200456
0.0200319
0.0199752
0.0200455
0.0199615
0.0199752
0.020046
0.0199611
0.0199616
0.0200319
0.0200456
0.0199752
0.0200455
0.0199752
0.0199615
0.020046
0.020046
0.0199613
0.0199611
0.0199611
0.0197342
0.0198192
0.0198192
0.0197342
0.0198192
0.0197343
0.0197342
0.0198192
0.0198192
0.0197342
0.0198051
0.0198051
0.0198051
0.019635
0.019635
0.019635
0.019635
0.0197348
0.0198187
0.0198051
0.0197483
0.0198187
0.0197347
0.0197484
0.0198192
0.0197343
0.0197348
0.0198051
0.0198187
0.0197483
0.0198187
0.0197484
0.0197347
0.0198192
0.0198192
0.0197345
0.0197343
0.0197343
0.0195074
0.0195924
0.0195924
0.0195074
0.0195924
0.0195074
0.0195074
0.0195924
0.0195924
0.0195074
0.0195783
0.0195783
0.0195783
0.0194082
0.0194082
0.0194082
0.0194082
0.0195079
0.0195919
0.0195782
0.0195215
0.0195919
0.0195079
0.0195215
0.0195924
0.0195074
0.0195079
0.0195782
0.0195919
0.0195215
0.0195919
0.0195215
0.0195079
0.0195924
0.0195924
0.0195077
0.0195074
0.0195074
0.0192806
0.0193656
0.0193656
0.0192806
0.0193656
0.0192806
0.0192806
0.0193656
0.0193656
0.0192806
0.0193515
0.0193515
0.0193515
0.0191814
0.0191814
0.0191814
0.0191814
0.0192811
0.0193651
0.0193514
0.0192947
0.0193651
0.0192811
0.0192947
0.0193656
0.0192806
0.0192811
0.0193514
0.0193651
0.0192947
0.0193651
0.0192947
0.0192811
0.0193656
0.0193656
0.0192808
0.0192806
0.0192806
0.0190538
0.0191388
0.0191388
0.0190538
0.0191387
0.0190538
0.0190538
0.0191388
0.0191388
0.0190538
0.0191247
0.0191247
0.0191247
0.0189545
0.0189545
0.0189545
0.0189545
0.0190543
0.0191383
0.0191246
0.0190679
0.0191383
0.0190543
0.0190679
0.0191388
0.0190538
0.0190543
0.0191246
0.0191383
0.0190679
0.0191383
0.0190679
0.0190543
0.0191387
0.0191387
0.019054
0.0190538
0.0190538
0.0188269
0.018912
0.018912
0.018827
0.0189119
0.018827
0.0188269
0.018912
0.018912
0.018827