/*--------------------------------*- C++ -*----------------------------------*\
| =========                 |                                                 |
| \\      /  F ield         | OpenFOAM: The Open Source CFD Toolbox           |
|  \\    /   O peration     | Version:  v1906                                 |
|   \\  /    A nd           | Web:      www.OpenFOAM.com                      |
|    \\/     M anipulation  |                                                 |
\*---------------------------------------------------------------------------*/
FoamFile
{
    version     2.0;
    format      ascii;
    class       volScalarField;
    location    "550";
    object      k;
}
// * * * * * * * * * * * * * * * * * * * * * * * * * * * * * * * * * * * * * //

dimensions      [0 2 -2 0 0 0 0];


internalField   nonuniform List<scalar> 
43024
(
3.91912e-05
5.15781e-05
5.15782e-05
5.36613e-05
3.95539e-05
5.17805e-05
5.17805e-05
5.38275e-05
3.98894e-05
5.19621e-05
5.1962e-05
5.39706e-05
4.01982e-05
5.21233e-05
5.2123e-05
5.40977e-05
4.04809e-05
5.22646e-05
5.22643e-05
5.42089e-05
4.0738e-05
5.23866e-05
5.23863e-05
5.43047e-05
4.09704e-05
5.249e-05
5.24897e-05
5.43856e-05
4.11788e-05
5.25756e-05
5.25752e-05
5.44522e-05
4.13641e-05
5.26438e-05
5.26435e-05
5.45049e-05
4.15271e-05
5.26954e-05
5.26952e-05
5.45441e-05
4.16688e-05
5.2731e-05
5.27308e-05
5.45703e-05
4.179e-05
5.27517e-05
5.27515e-05
5.45886e-05
4.18916e-05
5.27578e-05
5.27578e-05
5.45938e-05
4.19744e-05
5.27517e-05
5.27516e-05
5.45829e-05
4.20392e-05
5.27333e-05
5.27333e-05
5.45604e-05
4.20874e-05
5.27032e-05
5.27031e-05
5.45288e-05
4.21201e-05
5.26623e-05
5.26621e-05
5.44888e-05
4.21387e-05
5.26113e-05
5.26112e-05
5.44411e-05
4.21425e-05
5.25515e-05
5.25515e-05
5.43853e-05
4.21259e-05
5.24643e-05
5.24642e-05
5.43147e-05
4.17284e-05
5.13112e-05
5.13151e-05
5.39539e-05
5.36121e-05
5.15208e-05
5.15215e-05
5.36213e-05
5.15207e-05
5.15199e-05
5.15235e-05
5.15225e-05
5.36199e-05
5.15236e-05
5.15224e-05
5.36147e-05
5.36663e-05
5.37803e-05
5.15754e-05
5.15761e-05
5.17282e-05
5.1729e-05
5.36618e-05
5.37823e-05
5.15754e-05
5.15746e-05
5.17282e-05
5.17274e-05
5.15772e-05
5.1731e-05
5.17301e-05
5.36599e-05
5.37811e-05
5.15771e-05
5.1731e-05
5.17301e-05
5.378e-05
5.38249e-05
5.39274e-05
5.17778e-05
5.17786e-05
5.19146e-05
5.19154e-05
5.38236e-05
5.39294e-05
5.17779e-05
5.1777e-05
5.19146e-05
5.19138e-05
5.17797e-05
5.19173e-05
5.19165e-05
5.38232e-05
5.3928e-05
5.17797e-05
5.19173e-05
5.19165e-05
5.39286e-05
5.39683e-05
5.40583e-05
5.19593e-05
5.19601e-05
5.20803e-05
5.20812e-05
5.39684e-05
5.40602e-05
5.19594e-05
5.19585e-05
5.20803e-05
5.20795e-05
5.19613e-05
5.20831e-05
5.20822e-05
5.39673e-05
5.40589e-05
5.19613e-05
5.20829e-05
5.20823e-05
5.40595e-05
5.4096e-05
5.41734e-05
5.21204e-05
5.21213e-05
5.2226e-05
5.22269e-05
5.40961e-05
5.41749e-05
5.21206e-05
5.21197e-05
5.22261e-05
5.22253e-05
5.21225e-05
5.22289e-05
5.2228e-05
5.40948e-05
5.41736e-05
5.21225e-05
5.22286e-05
5.2228e-05
5.41744e-05
5.42076e-05
5.42728e-05
5.22618e-05
5.22626e-05
5.23524e-05
5.23532e-05
5.42078e-05
5.42739e-05
5.2262e-05
5.22611e-05
5.23525e-05
5.23516e-05
5.22638e-05
5.23552e-05
5.23543e-05
5.42065e-05
5.42727e-05
5.22639e-05
5.23549e-05
5.23544e-05
5.42738e-05
5.43036e-05
5.43569e-05
5.23838e-05
5.23847e-05
5.24601e-05
5.24609e-05
5.4304e-05
5.43579e-05
5.23841e-05
5.23831e-05
5.24602e-05
5.24593e-05
5.23858e-05
5.24629e-05
5.24621e-05
5.43028e-05
5.43568e-05
5.2386e-05
5.24625e-05
5.24622e-05
5.4358e-05
5.43846e-05
5.44265e-05
5.24873e-05
5.24881e-05
5.25497e-05
5.25505e-05
5.43852e-05
5.44272e-05
5.24875e-05
5.24865e-05
5.25499e-05
5.25489e-05
5.24893e-05
5.25525e-05
5.25517e-05
5.43841e-05
5.44262e-05
5.24894e-05
5.25521e-05
5.25518e-05
5.44277e-05
5.44511e-05
5.44819e-05
5.25728e-05
5.25736e-05
5.2622e-05
5.26227e-05
5.44518e-05
5.44825e-05
5.25731e-05
5.2572e-05
5.26222e-05
5.26211e-05
5.25749e-05
5.26247e-05
5.2624e-05
5.44508e-05
5.44815e-05
5.2575e-05
5.26243e-05
5.26242e-05
5.44832e-05
5.45038e-05
5.45236e-05
5.26411e-05
5.26418e-05
5.26777e-05
5.26784e-05
5.45044e-05
5.45241e-05
5.26414e-05
5.26403e-05
5.26779e-05
5.26769e-05
5.26432e-05
5.26803e-05
5.26797e-05
5.45034e-05
5.45232e-05
5.26434e-05
5.268e-05
5.26799e-05
5.45249e-05
5.45429e-05
5.45525e-05
5.26928e-05
5.26935e-05
5.27179e-05
5.27185e-05
5.45434e-05
5.45529e-05
5.26931e-05
5.2692e-05
5.27181e-05
5.2717e-05
5.26949e-05
5.27204e-05
5.27199e-05
5.45425e-05
5.45521e-05
5.26951e-05
5.27202e-05
5.27201e-05
5.45538e-05
5.45691e-05
5.45713e-05
5.27284e-05
5.27291e-05
5.27433e-05
5.27439e-05
5.45696e-05
5.45717e-05
5.27287e-05
5.27276e-05
5.27435e-05
5.27424e-05
5.27305e-05
5.27458e-05
5.27452e-05
5.45687e-05
5.45709e-05
5.27307e-05
5.27457e-05
5.27454e-05
5.4568e-05
5.45848e-05
5.45727e-05
5.27492e-05
5.27498e-05
5.27544e-05
5.2755e-05
5.45852e-05
5.45684e-05
5.27495e-05
5.27484e-05
5.27547e-05
5.27536e-05
5.27512e-05
5.27569e-05
5.27564e-05
5.45843e-05
5.45735e-05
5.27515e-05
5.27568e-05
5.27567e-05
5.45731e-05
5.45901e-05
5.45641e-05
5.27554e-05
5.27559e-05
5.27506e-05
5.27511e-05
5.45939e-05
5.45644e-05
5.27557e-05
5.27545e-05
5.27509e-05
5.27498e-05
5.27574e-05
5.27532e-05
5.27527e-05
5.45916e-05
5.45637e-05
5.27577e-05
5.27531e-05
5.2753e-05
5.45633e-05
5.45806e-05
5.45426e-05
5.27491e-05
5.27496e-05
5.27341e-05
5.27346e-05
5.45809e-05
5.45429e-05
5.27494e-05
5.27483e-05
5.27344e-05
5.27332e-05
5.27512e-05
5.27366e-05
5.27362e-05
5.458e-05
5.45424e-05
5.27515e-05
5.27366e-05
5.27364e-05
5.45434e-05
5.45592e-05
5.45144e-05
5.27308e-05
5.27313e-05
5.27055e-05
5.2706e-05
5.45595e-05
5.45147e-05
5.27311e-05
5.27298e-05
5.27057e-05
5.27045e-05
5.27328e-05
5.2708e-05
5.27075e-05
5.45588e-05
5.4514e-05
5.27331e-05
5.2708e-05
5.27077e-05
5.45154e-05
5.45272e-05
5.44773e-05
5.27006e-05
5.27012e-05
5.26656e-05
5.26661e-05
5.45276e-05
5.44777e-05
5.27008e-05
5.26997e-05
5.26658e-05
5.26647e-05
5.27027e-05
5.26682e-05
5.26677e-05
5.45269e-05
5.4477e-05
5.2703e-05
5.26682e-05
5.26679e-05
5.44788e-05
5.44881e-05
5.44303e-05
5.26596e-05
5.26602e-05
5.26154e-05
5.26159e-05
5.44885e-05
5.44308e-05
5.26598e-05
5.26587e-05
5.26156e-05
5.26145e-05
5.26618e-05
5.2618e-05
5.26174e-05
5.44877e-05
5.44301e-05
5.2662e-05
5.2618e-05
5.26176e-05
5.44315e-05
5.44404e-05
5.43752e-05
5.26086e-05
5.26092e-05
5.25558e-05
5.25564e-05
5.44409e-05
5.43757e-05
5.26089e-05
5.26078e-05
5.25561e-05
5.25551e-05
5.26108e-05
5.25585e-05
5.25579e-05
5.44402e-05
5.4375e-05
5.2611e-05
5.25585e-05
5.25581e-05
5.43763e-05
5.43845e-05
5.43102e-05
5.25489e-05
5.25494e-05
5.24937e-05
5.24944e-05
5.4385e-05
5.43107e-05
5.25491e-05
5.25481e-05
5.2494e-05
5.2493e-05
5.25509e-05
5.24964e-05
5.24958e-05
5.43843e-05
5.43101e-05
5.25511e-05
5.24964e-05
5.24959e-05
5.43116e-05
5.43132e-05
5.41026e-05
5.24615e-05
5.24621e-05
5.22724e-05
5.22736e-05
5.43137e-05
5.41039e-05
5.24618e-05
5.24608e-05
5.22741e-05
5.22709e-05
5.24637e-05
5.22776e-05
5.22745e-05
5.43134e-05
5.40904e-05
5.24638e-05
5.22751e-05
5.22758e-05
5.4087e-05
5.39379e-05
5.13064e-05
5.13074e-05
5.3941e-05
5.13083e-05
5.13101e-05
4.17301e-05
4.17284e-05
4.173e-05
5.13132e-05
5.39492e-05
5.13149e-05
6.85701e-05
7.3438e-05
7.11954e-05
6.85732e-05
7.34434e-05
3.90956e-05
3.90967e-05
3.90991e-05
3.90996e-05
6.06285e-05
5.14117e-05
6.47923e-05
4.67099e-05
7.1194e-05
6.06248e-05
5.14118e-05
4.67109e-05
6.47932e-05
5.35326e-05
6.9934e-05
6.99449e-05
6.86235e-05
7.34713e-05
6.8601e-05
7.34937e-05
7.12234e-05
7.12481e-05
6.86263e-05
7.34768e-05
6.86057e-05
7.34991e-05
3.91923e-05
3.91947e-05
3.9195e-05
3.94649e-05
3.9466e-05
3.94684e-05
3.94689e-05
6.07217e-05
6.48296e-05
4.69208e-05
5.16299e-05
6.0683e-05
6.48539e-05
4.69869e-05
7.12218e-05
7.12468e-05
6.07179e-05
4.69217e-05
6.48306e-05
5.163e-05
6.06831e-05
4.69877e-05
6.48547e-05
6.99668e-05
6.99786e-05
5.3695e-05
6.99828e-05
6.99937e-05
6.867e-05
7.35256e-05
6.86504e-05
7.35468e-05
7.12752e-05
7.12991e-05
6.86729e-05
7.3531e-05
6.86551e-05
7.35522e-05
3.95549e-05
3.95573e-05
3.95575e-05
3.98069e-05
3.9808e-05
3.98103e-05
3.98109e-05
6.08024e-05
6.48867e-05
4.71787e-05
5.18268e-05
6.0769e-05
6.49078e-05
4.72381e-05
7.12735e-05
7.12978e-05
6.07983e-05
4.71796e-05
6.48876e-05
5.18268e-05
6.07686e-05
4.72389e-05
6.49088e-05
7.00124e-05
7.00243e-05
5.38562e-05
7.00267e-05
7.00376e-05
6.87097e-05
7.3577e-05
6.8693e-05
7.35971e-05
7.1325e-05
7.13482e-05
6.87127e-05
7.35825e-05
6.86977e-05
7.36025e-05
3.98904e-05
3.98927e-05
3.9893e-05
4.01221e-05
4.01232e-05
4.01254e-05
4.0126e-05
6.08694e-05
6.49364e-05
4.74115e-05
5.20028e-05
6.08438e-05
6.49546e-05
4.74643e-05
7.13234e-05
7.13468e-05
6.0867e-05
4.74122e-05
6.49371e-05
5.20026e-05
6.08419e-05
4.7465e-05
6.49552e-05
7.00535e-05
7.00651e-05
5.39958e-05
7.0065e-05
7.00766e-05
6.87427e-05
7.36257e-05
6.87287e-05
7.36446e-05
7.13729e-05
7.13953e-05
6.87458e-05
7.36311e-05
6.87334e-05
7.36499e-05
4.01993e-05
4.02015e-05
4.02017e-05
4.0411e-05
4.04121e-05
4.04142e-05
4.04148e-05
6.09273e-05
6.49787e-05
4.76199e-05
5.21585e-05
6.09065e-05
6.49938e-05
4.76663e-05
7.13713e-05
7.13939e-05
6.09254e-05
4.76206e-05
6.4979e-05
5.21582e-05
6.09016e-05
4.76669e-05
6.49945e-05
7.0089e-05
7.0101e-05
5.41185e-05
7.00998e-05
7.01109e-05
6.87692e-05
7.36715e-05
6.87578e-05
7.36893e-05
7.14188e-05
7.14403e-05
6.8772e-05
7.36768e-05
6.87621e-05
7.36945e-05
4.0482e-05
4.04841e-05
4.04844e-05
4.06741e-05
4.06752e-05
4.06773e-05
4.06779e-05
6.09739e-05
6.50138e-05
4.78048e-05
5.22944e-05
6.09574e-05
6.50261e-05
4.78449e-05
7.14172e-05
7.14389e-05
6.09714e-05
4.78053e-05
6.50142e-05
5.22941e-05
6.09527e-05
4.78453e-05
6.50268e-05
7.01201e-05
7.01323e-05
5.42258e-05
7.01296e-05
7.01406e-05
6.8789e-05
7.37144e-05
6.87805e-05
7.37311e-05
7.14627e-05
7.14833e-05
6.87919e-05
7.37198e-05
6.87842e-05
7.37363e-05
4.07391e-05
4.07412e-05
4.07415e-05
4.09123e-05
4.09134e-05
4.09154e-05
4.0916e-05
6.10096e-05
6.50421e-05
4.7967e-05
5.24114e-05
6.09967e-05
6.50516e-05
4.80008e-05
7.14611e-05
7.1482e-05
6.10062e-05
4.79673e-05
6.50425e-05
5.2411e-05
6.09927e-05
4.80011e-05
6.50524e-05
7.01471e-05
7.01591e-05
5.43177e-05
7.01539e-05
7.01657e-05
6.88026e-05
7.37545e-05
6.8797e-05
7.377e-05
7.15045e-05
7.15243e-05
6.8806e-05
7.37599e-05
6.88003e-05
7.37753e-05
4.09715e-05
4.09735e-05
4.09739e-05
4.11262e-05
4.11273e-05
4.11291e-05
4.11299e-05
6.10352e-05
6.50638e-05
4.81072e-05
5.25099e-05
6.10256e-05
6.50704e-05
4.81351e-05
7.15028e-05
7.15228e-05
6.10314e-05
4.81074e-05
6.50642e-05
5.25095e-05
6.10222e-05
4.81353e-05
6.50714e-05
7.01698e-05
7.01814e-05
5.43947e-05
7.01748e-05
7.01864e-05
6.88107e-05
7.37918e-05
6.88075e-05
7.38061e-05
7.15442e-05
7.15631e-05
6.88142e-05
7.37971e-05
6.88107e-05
7.38114e-05
4.11799e-05
4.11818e-05
4.11822e-05
4.13166e-05
4.13176e-05
4.13195e-05
4.13203e-05
6.10505e-05
6.50791e-05
4.82262e-05
5.25907e-05
6.10441e-05
6.50828e-05
4.82486e-05
7.15424e-05
7.15616e-05
6.10471e-05
4.82263e-05
6.50795e-05
5.25903e-05
6.10407e-05
4.82487e-05
6.5084e-05
7.01876e-05
7.01988e-05
5.44573e-05
7.01914e-05
7.02031e-05
6.88132e-05
7.38262e-05
6.8812e-05
7.38394e-05
7.15816e-05
7.15997e-05
6.88169e-05
7.38316e-05
6.88154e-05
7.38448e-05
4.13652e-05
4.1367e-05
4.13675e-05
4.14844e-05
4.14854e-05
4.14872e-05
4.14881e-05
6.10563e-05
6.5088e-05
4.8325e-05
5.26545e-05
6.10533e-05
6.50892e-05
4.83422e-05
7.15797e-05
7.15982e-05
6.1053e-05
4.83251e-05
6.50885e-05
5.26542e-05
6.10501e-05
4.83423e-05
6.50903e-05
7.02007e-05
7.02123e-05
5.45058e-05
7.02034e-05
7.02152e-05
6.88106e-05
7.38577e-05
6.88113e-05
7.38698e-05
7.16168e-05
7.16343e-05
6.88144e-05
7.38632e-05
6.88148e-05
7.38754e-05
4.15282e-05
4.15299e-05
4.15304e-05
4.16305e-05
4.16315e-05
4.16333e-05
4.16341e-05
6.10533e-05
6.50907e-05
4.84046e-05
5.27023e-05
6.10536e-05
6.50895e-05
4.84169e-05
7.16149e-05
7.16328e-05
6.10501e-05
4.84047e-05
6.50912e-05
5.2702e-05
6.10504e-05
4.84171e-05
6.50905e-05
7.02101e-05
7.02218e-05
5.45409e-05
7.02112e-05
7.0223e-05
6.88034e-05
7.38865e-05
6.8806e-05
7.38975e-05
7.16497e-05
7.16667e-05
6.88071e-05
7.38915e-05
6.88094e-05
7.39038e-05
4.16697e-05
4.16715e-05
4.1672e-05
4.1756e-05
4.17569e-05
4.17587e-05
4.17595e-05
6.1042e-05
6.50875e-05
4.84657e-05
5.2735e-05
6.10454e-05
6.50838e-05
4.84739e-05
7.16479e-05
7.16653e-05
6.10389e-05
4.84659e-05
6.50882e-05
5.27348e-05
6.10423e-05
4.84741e-05
6.50849e-05
7.02156e-05
7.02273e-05
5.45648e-05
7.02149e-05
7.02266e-05
6.87918e-05
7.39123e-05
6.8796e-05
7.39225e-05
7.16804e-05
7.16972e-05
6.87955e-05
7.3917e-05
6.87995e-05
7.3929e-05
4.17909e-05
4.17926e-05
4.17932e-05
4.18618e-05
4.18627e-05
4.18645e-05
4.18653e-05
6.10225e-05
6.5079e-05
4.85091e-05
5.27531e-05
6.10297e-05
6.50728e-05
4.85143e-05
7.16786e-05
7.16957e-05
6.10194e-05
4.85093e-05
6.50797e-05
5.2753e-05
6.10268e-05
4.85146e-05
6.50739e-05
7.02176e-05
7.02293e-05
5.45713e-05
7.02149e-05
7.02265e-05
6.87755e-05
7.39353e-05
6.87816e-05
7.3945e-05
7.17088e-05
7.17257e-05
6.87793e-05
7.39407e-05
6.87851e-05
7.39511e-05
4.18925e-05
4.18942e-05
4.18948e-05
4.1949e-05
4.19499e-05
4.19516e-05
4.19524e-05
6.09957e-05
6.50653e-05
4.85361e-05
5.27566e-05
6.10058e-05
6.50564e-05
4.85385e-05
7.1707e-05
7.17242e-05
6.09927e-05
4.85363e-05
6.50661e-05
5.27566e-05
6.10028e-05
4.85389e-05
6.50574e-05
7.02163e-05
7.02279e-05
5.45672e-05
7.0211e-05
7.02227e-05
6.87547e-05
7.39558e-05
6.87627e-05
7.39651e-05
7.17348e-05
7.17524e-05
6.87585e-05
7.39616e-05
6.87663e-05
7.39709e-05
4.19753e-05
4.1977e-05
4.19777e-05
4.20191e-05
4.20198e-05
4.20216e-05
4.20223e-05
6.09611e-05
6.50466e-05
4.85476e-05
5.27464e-05
6.0974e-05
6.50347e-05
4.8547e-05
7.1733e-05
7.1751e-05
6.09584e-05
4.85478e-05
6.50473e-05
5.27464e-05
6.09708e-05
4.85473e-05
6.50357e-05
7.0212e-05
7.02236e-05
5.45539e-05
7.02033e-05
7.0215e-05
6.87296e-05
7.39734e-05
6.87391e-05
7.39825e-05
7.17582e-05
7.17776e-05
6.87333e-05
7.39793e-05
6.87428e-05
7.39883e-05
4.20402e-05
4.20417e-05
4.20426e-05
4.20727e-05
4.20732e-05
4.20753e-05
4.20756e-05
6.09188e-05
6.50238e-05
4.85445e-05
5.27237e-05
6.09351e-05
6.50079e-05
4.85402e-05
7.17565e-05
7.17762e-05
6.09172e-05
4.85448e-05
6.50245e-05
5.27237e-05
6.09313e-05
4.85404e-05
6.50088e-05
7.0205e-05
7.02166e-05
5.45299e-05
7.01917e-05
7.02034e-05
6.87003e-05
7.39882e-05
6.87112e-05
7.3998e-05
7.17788e-05
7.18017e-05
6.87039e-05
7.39941e-05
6.87148e-05
7.40039e-05
4.20886e-05
4.20899e-05
4.2091e-05
4.21105e-05
4.21107e-05
4.2113e-05
4.21131e-05
6.08701e-05
6.49979e-05
4.85291e-05
5.26894e-05
6.08891e-05
6.49755e-05
4.85201e-05
7.17771e-05
7.18003e-05
6.08683e-05
4.85294e-05
6.49986e-05
5.26894e-05
6.08849e-05
4.85204e-05
6.49764e-05
7.01962e-05
7.02078e-05
5.44987e-05
7.01762e-05
7.01878e-05
6.86667e-05
7.40003e-05
6.8679e-05
7.40125e-05
7.17963e-05
7.18252e-05
6.86705e-05
7.40062e-05
6.86827e-05
7.40184e-05
4.21216e-05
4.21226e-05
4.2124e-05
4.21331e-05
4.21337e-05
4.21356e-05
4.2136e-05
6.08157e-05
6.49702e-05
4.85012e-05
5.26443e-05
6.08366e-05
6.49371e-05
4.84877e-05
7.17946e-05
7.18238e-05
6.0813e-05
4.85015e-05
6.4971e-05
5.26443e-05
6.08332e-05
4.84879e-05
6.4938e-05
7.01865e-05
7.01981e-05
5.44562e-05
7.01568e-05
7.01684e-05
6.86295e-05
7.40096e-05
6.86425e-05
7.40276e-05
7.18108e-05
7.18486e-05
6.86336e-05
7.40155e-05
6.86463e-05
7.40335e-05
4.21399e-05
4.21411e-05
4.21422e-05
4.2141e-05
4.2142e-05
4.21435e-05
4.21442e-05
6.0753e-05
6.49443e-05
4.84618e-05
5.25894e-05
6.0781e-05
6.48914e-05
4.84439e-05
7.18092e-05
7.18472e-05
6.07506e-05
4.8462e-05
6.49452e-05
5.25893e-05
6.07784e-05
4.84441e-05
6.48924e-05
7.01775e-05
7.0189e-05
5.44048e-05
7.01347e-05
7.01462e-05
6.85864e-05
7.40161e-05
6.85988e-05
7.40465e-05
7.1823e-05
7.18723e-05
6.85902e-05
7.4022e-05
6.86026e-05
7.40523e-05
4.21435e-05
4.2145e-05
4.21457e-05
4.21264e-05
4.21275e-05
4.21288e-05
4.21295e-05
6.06812e-05
6.49285e-05
4.8412e-05
5.25248e-05
6.07176e-05
6.48347e-05
4.83885e-05
7.18214e-05
7.18708e-05
6.06791e-05
4.84123e-05
6.49292e-05
5.25248e-05
6.07152e-05
4.83888e-05
6.48352e-05
7.0172e-05
7.01835e-05
5.43456e-05
7.01127e-05
7.01242e-05
6.85199e-05
7.40166e-05
6.85413e-05
7.40746e-05
7.18345e-05
7.18989e-05
6.8523e-05
7.40223e-05
6.85447e-05
7.40803e-05
4.21269e-05
4.21282e-05
4.21289e-05
4.17628e-05
4.17641e-05
4.17635e-05
4.17646e-05
6.05659e-05
6.49322e-05
4.83463e-05
5.24531e-05
6.06525e-05
6.47334e-05
4.82758e-05
7.18331e-05
7.18977e-05
6.05638e-05
4.83471e-05
6.49322e-05
5.24521e-05
6.06504e-05
4.82758e-05
6.47332e-05
7.01624e-05
7.01738e-05
5.42628e-05
7.0044e-05
7.00555e-05
6.45935e-05
7.37843e-05
6.82874e-05
7.45483e-05
7.17768e-05
6.61555e-05
6.45952e-05
7.37887e-05
6.82894e-05
7.45901e-05
2.9828e-05
3.62022e-05
3.62008e-05
4.31108e-05
3.01215e-05
3.70589e-05
3.7058e-05
6.02625e-05
6.45655e-05
4.8078e-05
5.00928e-05
6.03444e-05
6.63309e-05
4.62544e-05
7.17748e-05
6.61614e-05
6.02605e-05
4.80776e-05
6.45628e-05
5.00582e-05
6.03406e-05
4.62608e-05
6.63377e-05
6.94293e-05
6.944e-05
5.3466e-05
7.0786e-05
7.07959e-05
7.11934e-05
7.11959e-05
5.35243e-05
6.99341e-05
6.99444e-05
7.122e-05
7.1195e-05
7.12225e-05
7.11975e-05
5.35833e-05
6.99592e-05
6.99694e-05
6.99437e-05
6.99525e-05
6.85722e-05
7.34436e-05
6.06256e-05
5.1409e-05
6.4791e-05
4.67065e-05
6.0627e-05
5.14097e-05
6.47952e-05
4.67079e-05
6.85735e-05
7.34662e-05
7.34432e-05
6.85979e-05
6.85755e-05
7.34719e-05
7.34469e-05
6.85998e-05
6.06325e-05
5.14662e-05
6.48229e-05
4.68483e-05
6.47965e-05
4.67789e-05
6.06737e-05
6.06339e-05
5.14668e-05
6.4827e-05
4.68496e-05
6.48004e-05
4.67802e-05
6.06753e-05
5.35341e-05
6.99434e-05
6.99321e-05
7.11921e-05
7.1222e-05
7.11969e-05
5.35723e-05
6.99685e-05
6.9957e-05
6.99529e-05
6.99402e-05
7.12187e-05
7.11934e-05
6.06262e-05
5.14088e-05
6.47949e-05
4.67085e-05
6.8571e-05
7.34388e-05
6.06242e-05
5.14081e-05
4.67082e-05
6.47889e-05
6.85783e-05
7.34717e-05
7.34487e-05
6.86006e-05
6.06373e-05
5.14662e-05
6.48267e-05
4.68502e-05
6.48004e-05
4.67808e-05
6.06743e-05
6.85765e-05
7.34671e-05
7.34423e-05
6.85986e-05
6.06354e-05
5.14653e-05
4.685e-05
6.48208e-05
4.67807e-05
6.47952e-05
6.06724e-05
6.85721e-05
7.34431e-05
6.06268e-05
5.14108e-05
4.67095e-05
6.4791e-05
6.85712e-05
7.344e-05
6.06354e-05
5.14688e-05
6.48241e-05
4.68516e-05
6.47981e-05
4.67822e-05
6.06767e-05
6.85775e-05
7.34713e-05
7.34464e-05
6.85997e-05
6.06336e-05
5.1468e-05
4.68513e-05
6.4823e-05
4.67819e-05
6.47965e-05
6.06749e-05
6.85746e-05
7.34683e-05
7.34434e-05
6.85987e-05
5.35333e-05
6.99376e-05
6.9935e-05
7.11944e-05
7.12206e-05
7.11953e-05
5.35714e-05
6.99625e-05
6.996e-05
6.99458e-05
6.99437e-05
7.1221e-05
7.11959e-05
6.06258e-05
5.14107e-05
4.67109e-05
6.47958e-05
6.85704e-05
7.34412e-05
6.85727e-05
7.34431e-05
6.0636e-05
5.14689e-05
4.68526e-05
6.48249e-05
4.67832e-05
6.47991e-05
6.06729e-05
6.06369e-05
5.14679e-05
4.68526e-05
6.48276e-05
4.67834e-05
6.48015e-05
6.06739e-05
6.85743e-05
7.34695e-05
7.34446e-05
6.85976e-05
6.85764e-05
7.34714e-05
7.34484e-05
6.85999e-05
7.11937e-05
7.11964e-05
5.35715e-05
6.99589e-05
6.99699e-05
6.99424e-05
6.99541e-05
7.12203e-05
7.11952e-05
7.1223e-05
7.1198e-05
7.12216e-05
7.12462e-05
7.1224e-05
7.12487e-05
6.99682e-05
6.99773e-05
5.36995e-05
6.9983e-05
6.99932e-05
7.12719e-05
7.12477e-05
7.12744e-05
7.12501e-05
5.37478e-05
7.00056e-05
7.00158e-05
6.99916e-05
7.00007e-05
6.86257e-05
7.34751e-05
6.86029e-05
7.34995e-05
6.0719e-05
6.4828e-05
4.69175e-05
5.16272e-05
6.06802e-05
6.48527e-05
4.69836e-05
6.07206e-05
6.4832e-05
4.69189e-05
5.16279e-05
6.06817e-05
6.4857e-05
4.69849e-05
6.86264e-05
7.35207e-05
7.34987e-05
6.86479e-05
6.86285e-05
7.35264e-05
7.35026e-05
6.86499e-05
6.07249e-05
5.16792e-05
6.48808e-05
4.71125e-05
6.48575e-05
4.70498e-05
6.07609e-05
6.07265e-05
5.168e-05
6.4885e-05
4.71138e-05
6.48616e-05
4.70511e-05
6.07626e-05
6.99774e-05
6.99649e-05
5.37048e-05
6.99923e-05
6.99808e-05
7.12199e-05
7.12449e-05
7.12739e-05
7.12495e-05
5.37431e-05
7.00153e-05
7.00033e-05
7.00009e-05
6.99883e-05
7.12705e-05
7.1246e-05
6.07196e-05
6.4832e-05
4.69194e-05
5.16271e-05
6.06844e-05
6.48564e-05
4.69855e-05
6.86244e-05
7.34704e-05
6.86037e-05
7.34947e-05
6.07177e-05
4.69193e-05
6.48267e-05
5.16264e-05
6.06826e-05
4.69853e-05
6.48508e-05
6.8631e-05
7.35261e-05
7.35042e-05
6.86507e-05
6.07288e-05
5.16793e-05
6.48845e-05
4.71144e-05
6.48616e-05
4.70517e-05
6.07614e-05
6.86291e-05
7.35216e-05
7.34979e-05
6.86485e-05
6.0727e-05
5.16784e-05
4.71141e-05
6.48788e-05
4.70515e-05
6.48563e-05
6.07596e-05
6.86254e-05
7.34745e-05
6.86046e-05
7.34989e-05
6.07201e-05
4.69206e-05
6.48281e-05
5.16289e-05
6.06813e-05
4.69866e-05
6.48529e-05
6.86245e-05
7.34715e-05
6.86019e-05
7.34959e-05
6.07275e-05
5.1682e-05
6.48818e-05
4.71156e-05
6.4859e-05
4.7053e-05
6.07638e-05
6.863e-05
7.35257e-05
7.3502e-05
6.86494e-05
6.0726e-05
5.16811e-05
4.71154e-05
6.48808e-05
4.70528e-05
6.48576e-05
6.07621e-05
6.86274e-05
7.35227e-05
7.3499e-05
6.86486e-05
6.99705e-05
6.99682e-05
5.37013e-05
6.99863e-05
6.99838e-05
7.12225e-05
7.12472e-05
7.12725e-05
7.12479e-05
5.37443e-05
7.00089e-05
7.00064e-05
6.99939e-05
6.99915e-05
7.12729e-05
7.12486e-05
6.07191e-05
4.69219e-05
6.48331e-05
5.16289e-05
6.0684e-05
4.69879e-05
6.48576e-05
6.86229e-05
7.34727e-05
6.86011e-05
7.3497e-05
6.86253e-05
7.34764e-05
6.86033e-05
7.34989e-05
6.07273e-05
5.1682e-05
4.71165e-05
6.48828e-05
4.70539e-05
6.48601e-05
6.07597e-05
6.07283e-05
5.16811e-05
4.71167e-05
6.48857e-05
4.70541e-05
6.48627e-05
6.07608e-05
6.86262e-05
7.35239e-05
7.35001e-05
6.86466e-05
6.86285e-05
7.35259e-05
7.35039e-05
6.86489e-05
7.12217e-05
7.12464e-05
7.12245e-05
7.12491e-05
5.3752e-05
7.00053e-05
7.00162e-05
6.99903e-05
7.00021e-05
7.12721e-05
7.12477e-05
7.12748e-05
7.12506e-05
7.12733e-05
7.12972e-05
7.12757e-05
7.12996e-05
7.00137e-05
7.00229e-05
5.38559e-05
7.00269e-05
7.00371e-05
7.13219e-05
7.12985e-05
7.13244e-05
7.13009e-05
5.38986e-05
7.0047e-05
7.00572e-05
7.00347e-05
7.00438e-05
6.86723e-05
7.35294e-05
6.86524e-05
7.35527e-05
6.07999e-05
6.48852e-05
4.71756e-05
5.1824e-05
6.07663e-05
6.49068e-05
4.7235e-05
6.08015e-05
6.48894e-05
4.71769e-05
5.18248e-05
6.07679e-05
6.49111e-05
4.72363e-05
6.86724e-05
7.35724e-05
7.35516e-05
6.8691e-05
6.86745e-05
7.35782e-05
7.35555e-05
6.8693e-05
6.08046e-05
5.18711e-05
6.49311e-05
4.73513e-05
6.4911e-05
4.72952e-05
6.08358e-05
6.08063e-05
5.18719e-05
6.49353e-05
4.73526e-05
6.49151e-05
4.72965e-05
6.08374e-05
7.00226e-05
7.00104e-05
5.3858e-05
7.00367e-05
7.00246e-05
7.12716e-05
7.12958e-05
7.13239e-05
7.13003e-05
5.38981e-05
7.00568e-05
7.00447e-05
7.00435e-05
7.00313e-05
7.13205e-05
7.12967e-05
6.08005e-05
6.48893e-05
4.71775e-05
5.1824e-05
6.07704e-05
6.49106e-05
4.72369e-05
6.8671e-05
7.35247e-05
6.8653e-05
7.35479e-05
6.07987e-05
4.71773e-05
6.48839e-05
5.18232e-05
6.07686e-05
4.72367e-05
6.49049e-05
6.8677e-05
7.35778e-05
7.35571e-05
6.86939e-05
6.08086e-05
5.18712e-05
6.49348e-05
4.73531e-05
6.49151e-05
4.7297e-05
6.08364e-05
6.8675e-05
7.35734e-05
7.35508e-05
6.86917e-05
6.08068e-05
5.18703e-05
4.73529e-05
6.49292e-05
4.72969e-05
6.49097e-05
6.08346e-05
6.86718e-05
7.35287e-05
6.86538e-05
7.35519e-05
6.08013e-05
4.71786e-05
6.48854e-05
5.18259e-05
6.07674e-05
4.7238e-05
6.49068e-05
6.8671e-05
7.35257e-05
6.86512e-05
7.35489e-05
6.08069e-05
5.18739e-05
6.49321e-05
4.73542e-05
6.49124e-05
4.72982e-05
6.08368e-05
6.86757e-05
7.35774e-05
7.35547e-05
6.86923e-05
6.08059e-05
5.18731e-05
4.73542e-05
6.49311e-05
4.72982e-05
6.49111e-05
6.08371e-05
6.86733e-05
7.35744e-05
7.35518e-05
6.86916e-05
7.00161e-05
7.00136e-05
5.38565e-05
7.00302e-05
7.00277e-05
7.12742e-05
7.12982e-05
7.13225e-05
7.12987e-05
5.38973e-05
7.00504e-05
7.00478e-05
7.0037e-05
7.00345e-05
7.13229e-05
7.12993e-05
6.07996e-05
4.71799e-05
6.48905e-05
5.18259e-05
6.07697e-05
4.72391e-05
6.49117e-05
6.86685e-05
7.35269e-05
6.86496e-05
7.35501e-05
6.86708e-05
7.35306e-05
6.86519e-05
7.35521e-05
6.08065e-05
5.18738e-05
4.7355e-05
6.49329e-05
4.7299e-05
6.49132e-05
6.08342e-05
6.08077e-05
5.18731e-05
4.73553e-05
6.4936e-05
4.72994e-05
6.49164e-05
6.08353e-05
6.86713e-05
7.35756e-05
7.3553e-05
6.86888e-05
6.86736e-05
7.35776e-05
7.35568e-05
6.86911e-05
7.12734e-05
7.12974e-05
7.12762e-05
7.13001e-05
5.39015e-05
7.0046e-05
7.00577e-05
7.00335e-05
7.00453e-05
7.13221e-05
7.12985e-05
7.13249e-05
7.13014e-05
7.13231e-05
7.13462e-05
7.13256e-05
7.13487e-05
7.00544e-05
7.00636e-05
5.39948e-05
7.00659e-05
7.00761e-05
7.137e-05
7.13474e-05
7.13724e-05
7.13497e-05
5.40342e-05
7.00836e-05
7.00938e-05
7.00729e-05
7.00821e-05
6.87118e-05
7.35809e-05
6.86949e-05
7.3603e-05
6.08687e-05
6.49349e-05
4.74085e-05
5.19999e-05
6.084e-05
6.49535e-05
4.74613e-05
6.08703e-05
6.49392e-05
4.74099e-05
5.20008e-05
6.08416e-05
6.49577e-05
4.74627e-05
6.87115e-05
7.36214e-05
7.36017e-05
6.87273e-05
6.87135e-05
7.3627e-05
7.36056e-05
6.87292e-05
6.08724e-05
5.20424e-05
6.49741e-05
4.75654e-05
6.4957e-05
4.75158e-05
6.0899e-05
6.0874e-05
5.20432e-05
6.49782e-05
4.75667e-05
6.49612e-05
4.75171e-05
6.09006e-05
7.00632e-05
7.00511e-05
5.39968e-05
7.00758e-05
7.00636e-05
7.13214e-05
7.13448e-05
7.1372e-05
7.13492e-05
5.40342e-05
7.00935e-05
7.00813e-05
7.00818e-05
7.00695e-05
7.13686e-05
7.13456e-05
6.08695e-05
6.49391e-05
4.74103e-05
5.2e-05
6.08442e-05
6.49572e-05
4.74632e-05
6.87107e-05
7.35762e-05
6.86955e-05
7.35982e-05
6.08677e-05
4.74102e-05
6.49336e-05
5.19992e-05
6.08424e-05
4.7463e-05
6.49516e-05
6.87161e-05
7.36267e-05
7.36071e-05
6.87303e-05
6.08764e-05
5.20425e-05
6.49778e-05
4.75672e-05
6.49611e-05
4.75176e-05
6.08997e-05
6.87141e-05
7.36223e-05
7.36009e-05
6.87281e-05
6.08746e-05
5.20416e-05
4.75671e-05
6.49722e-05
4.75175e-05
6.49557e-05
6.08979e-05
6.87112e-05
7.35801e-05
6.86961e-05
7.36022e-05
6.087e-05
4.74115e-05
6.4935e-05
5.20019e-05
6.08412e-05
4.74643e-05
6.49535e-05
6.87105e-05
7.35772e-05
6.86937e-05
7.35992e-05
6.08764e-05
5.20452e-05
6.49751e-05
4.75683e-05
6.49585e-05
4.75187e-05
6.09001e-05
6.87146e-05
7.36262e-05
7.36048e-05
6.87285e-05
6.08736e-05
5.20444e-05
4.75683e-05
6.4974e-05
4.75187e-05
6.4957e-05
6.09002e-05
6.87123e-05
7.36233e-05
7.36019e-05
6.87279e-05
7.00567e-05
7.00541e-05
5.39955e-05
7.00692e-05
7.00667e-05
7.1324e-05
7.13472e-05
7.13706e-05
7.13476e-05
5.4033e-05
7.0087e-05
7.00843e-05
7.00752e-05
7.00726e-05
7.1371e-05
7.13482e-05
6.08684e-05
4.74127e-05
6.49404e-05
5.20019e-05
6.08429e-05
4.74654e-05
6.49584e-05
6.87075e-05
7.35783e-05
6.86913e-05
7.36003e-05
6.87095e-05
7.35822e-05
6.86936e-05
7.36024e-05
6.08741e-05
5.2045e-05
4.75689e-05
6.49758e-05
4.75194e-05
6.49588e-05
6.08976e-05
6.08736e-05
5.20444e-05
4.75693e-05
6.49791e-05
4.75198e-05
6.49625e-05
6.08993e-05
6.87097e-05
7.36244e-05
7.3603e-05
6.87245e-05
6.87118e-05
7.36265e-05
7.36069e-05
6.87263e-05
7.13232e-05
7.13464e-05
7.13261e-05
7.13492e-05
5.40363e-05
7.00831e-05
7.00943e-05
7.00722e-05
7.00837e-05
7.13701e-05
7.13474e-05
7.1373e-05
7.13503e-05
7.13711e-05
7.13933e-05
7.13734e-05
7.13957e-05
7.00903e-05
7.00994e-05
5.41176e-05
7.01002e-05
7.01104e-05
7.14161e-05
7.13943e-05
7.14185e-05
7.13966e-05
5.41539e-05
7.01156e-05
7.01258e-05
7.01065e-05
7.01156e-05
6.87447e-05
7.36295e-05
6.87305e-05
7.36505e-05
6.09262e-05
6.49773e-05
4.7617e-05
5.21556e-05
6.09021e-05
6.49929e-05
4.76634e-05
6.09278e-05
6.49815e-05
4.76184e-05
5.21565e-05
6.09036e-05
6.4997e-05
4.76647e-05
6.87439e-05
7.36674e-05
7.36489e-05
6.87571e-05
6.87458e-05
7.36725e-05
7.36528e-05
6.87588e-05
6.09288e-05
5.21936e-05
6.501e-05
4.77556e-05
6.49959e-05
4.77124e-05
6.09507e-05
6.09303e-05
5.21944e-05
6.50141e-05
4.77569e-05
6.5e-05
4.77137e-05
6.09522e-05
7.00991e-05
7.00869e-05
5.41197e-05
7.01101e-05
7.00978e-05
7.13693e-05
7.13918e-05
7.14181e-05
7.13961e-05
5.41538e-05
7.01255e-05
7.01132e-05
7.01153e-05
7.0103e-05
7.14146e-05
7.13925e-05
6.09274e-05
6.49812e-05
4.76188e-05
5.21557e-05
6.09062e-05
6.49966e-05
4.76653e-05
6.87437e-05
7.36248e-05
6.87312e-05
7.36457e-05
6.09254e-05
4.76188e-05
6.4976e-05
5.21549e-05
6.09044e-05
4.76651e-05
6.49909e-05
6.87484e-05
7.36727e-05
7.36543e-05
6.87599e-05
6.09308e-05
5.21937e-05
6.50137e-05
4.77574e-05
6.49997e-05
4.77141e-05
6.09522e-05
6.87464e-05
7.36683e-05
7.36481e-05
6.87577e-05
6.09294e-05
5.21928e-05
4.77573e-05
6.50079e-05
4.77141e-05
6.49945e-05
6.09501e-05
6.87442e-05
7.36287e-05
6.87318e-05
7.36496e-05
6.09274e-05
4.762e-05
6.49773e-05
5.21576e-05
6.09032e-05
4.76663e-05
6.49928e-05
6.87434e-05
7.36258e-05
6.87293e-05
7.36467e-05
6.09332e-05
5.21964e-05
6.50108e-05
4.77585e-05
6.49971e-05
4.77153e-05
6.09523e-05
6.8747e-05
7.36714e-05
7.3652e-05
6.87584e-05
6.09301e-05
5.21956e-05
4.77585e-05
6.50098e-05
4.77153e-05
6.49958e-05
6.09518e-05
6.87446e-05
7.36687e-05
7.3649e-05
6.87575e-05
7.00926e-05
7.00899e-05
5.41184e-05
7.01034e-05
7.01009e-05
7.13719e-05
7.13942e-05
7.14167e-05
7.13945e-05
5.41525e-05
7.01189e-05
7.01162e-05
7.01087e-05
7.0106e-05
7.1417e-05
7.13951e-05
6.09266e-05
4.7621e-05
6.49828e-05
5.21576e-05
6.09026e-05
4.76673e-05
6.49979e-05
6.87399e-05
7.36269e-05
6.87264e-05
7.36477e-05
6.87415e-05
7.36308e-05
6.87283e-05
7.36499e-05
6.09283e-05
5.21961e-05
4.7759e-05
6.50116e-05
4.77158e-05
6.49975e-05
6.09503e-05
6.09293e-05
5.21957e-05
4.77594e-05
6.50151e-05
4.77163e-05
6.50013e-05
6.09511e-05
6.87415e-05
7.36699e-05
7.36501e-05
6.87538e-05
6.87432e-05
7.36726e-05
7.36542e-05
6.87551e-05
7.13711e-05
7.13934e-05
7.1374e-05
7.13963e-05
5.41555e-05
7.01153e-05
7.01263e-05
7.01051e-05
7.01172e-05
7.14162e-05
7.13943e-05
7.14191e-05
7.13972e-05
7.1417e-05
7.14384e-05
7.14193e-05
7.14408e-05
7.01215e-05
7.01307e-05
5.42249e-05
7.01298e-05
7.01401e-05
7.14602e-05
7.14392e-05
7.14626e-05
7.14415e-05
5.42576e-05
7.0143e-05
7.01532e-05
7.01355e-05
7.01446e-05
6.8771e-05
7.36762e-05
6.87595e-05
7.3694e-05
6.09718e-05
6.50126e-05
4.78019e-05
5.22916e-05
6.0953e-05
6.50253e-05
4.7842e-05
6.09732e-05
6.50167e-05
4.78032e-05
5.22924e-05
6.09545e-05
6.50294e-05
4.78433e-05
6.87698e-05
7.37106e-05
7.36933e-05
6.87802e-05
6.87716e-05
7.37153e-05
7.3698e-05
6.87818e-05
6.09744e-05
5.23252e-05
6.5039e-05
4.79227e-05
6.50277e-05
4.78858e-05
6.09905e-05
6.09758e-05
5.2326e-05
6.5043e-05
4.7924e-05
6.50316e-05
4.78871e-05
6.09919e-05
7.01303e-05
7.01181e-05
5.42263e-05