/*--------------------------------*- C++ -*----------------------------------*\
| =========                 |                                                 |
| \\      /  F ield         | OpenFOAM: The Open Source CFD Toolbox           |
|  \\    /   O peration     | Version:  v1906                                 |
|   \\  /    A nd           | Web:      www.OpenFOAM.com                      |
|    \\/     M anipulation  |                                                 |
\*---------------------------------------------------------------------------*/
FoamFile
{
    version     2.0;
    format      ascii;
    class       volScalarField;
    location    "550";
    object      nut;
}
// * * * * * * * * * * * * * * * * * * * * * * * * * * * * * * * * * * * * * //

dimensions      [0 2 -1 0 0 0 0];


internalField   nonuniform List<scalar> 
43024
(
0.00020834
0.000201472
0.000201464
0.000182437
0.000210637
0.000202715
0.000202706
0.000183307
0.000212825
0.000203881
0.000203871
0.000184072
0.000214904
0.000204969
0.000204959
0.000184783
0.000216874
0.000205982
0.000205971
0.000185436
0.000218733
0.000206921
0.00020691
0.000186031
0.000220484
0.000207779
0.000207768
0.000186576
0.000222128
0.000208565
0.000208554
0.000187022
0.000223667
0.000209279
0.000209268
0.000187456
0.000225102
0.000209922
0.000209912
0.000187841
0.000226438
0.000210495
0.000210485
0.000188176
0.000227675
0.000211003
0.000210992
0.000188493
0.00022881
0.000211443
0.000211434
0.000188756
0.000229841
0.00021183
0.000211822
0.000188976
0.000230773
0.000212161
0.000212155
0.000189093
0.000231614
0.000212433
0.00021243
0.00018919
0.00023237
0.00021265
0.000212651
0.000189252
0.000233047
0.000212814
0.000212821
0.000189285
0.000233632
0.000212937
0.000212939
0.000189283
0.000234138
0.000212908
0.000212904
0.000189246
0.000236317
0.000214206
0.000214245
0.000192686
0.000182374
0.000201115
0.000201115
0.000182446
0.00020113
0.000201103
0.000201147
0.00020112
0.000182428
0.000201138
0.000201135
0.00018239
0.000182477
0.000183249
0.00020144
0.000201441
0.000202376
0.000202376
0.000182447
0.000183269
0.000201456
0.000201428
0.000202391
0.000202364
0.000201446
0.000202408
0.000202382
0.000182428
0.000183253
0.000201461
0.000202399
0.000202397
0.000183242
0.000183294
0.000184034
0.000202683
0.000202684
0.000203559
0.000203559
0.000183289
0.000184053
0.000202699
0.000202671
0.000203574
0.000203546
0.000202689
0.000203591
0.000203565
0.000183279
0.000184036
0.000202705
0.000203582
0.000203581
0.000184036
0.000184062
0.000184749
0.000203848
0.000203849
0.000204663
0.000204664
0.000184067
0.000184789
0.000203865
0.000203836
0.000204679
0.000204651
0.000203855
0.000204696
0.000204669
0.000184053
0.000184772
0.000203871
0.000204686
0.000204685
0.00018475
0.000184776
0.000185414
0.000204937
0.000204937
0.00020569
0.00020569
0.000184759
0.000185466
0.000204953
0.000204924
0.000205705
0.000205677
0.000204943
0.000205723
0.000205695
0.000184745
0.00018545
0.000204959
0.000205712
0.000205712
0.000185415
0.000185432
0.000186028
0.000205949
0.000205949
0.000206639
0.000206639
0.000185402
0.000186077
0.000205965
0.000205936
0.000206655
0.000206626
0.000205955
0.000206673
0.000206645
0.000185386
0.000186062
0.000205971
0.000206662
0.000206661
0.00018603
0.000186028
0.000186586
0.000206887
0.000206888
0.000207518
0.000207518
0.000186
0.000186634
0.000206904
0.000206875
0.000207535
0.000207506
0.000206894
0.000207553
0.000207524
0.000185985
0.000186619
0.00020691
0.000207541
0.000207541
0.000186589
0.00018657
0.000187099
0.000207746
0.000207746
0.000208325
0.000208324
0.000186543
0.000187137
0.000207763
0.000207732
0.000208342
0.000208312
0.000207752
0.000208359
0.00020833
0.000186528
0.000187122
0.000207768
0.000208348
0.000208348
0.000187132
0.000187017
0.000187577
0.000208531
0.000208531
0.000209059
0.000209059
0.000187032
0.000187587
0.000208548
0.000208518
0.000209077
0.000209046
0.000208539
0.000209094
0.000209065
0.000187017
0.000187572
0.000208554
0.000209082
0.000209083
0.00018758
0.000187459
0.000187974
0.000209246
0.000209245
0.000209725
0.000209724
0.000187467
0.000187984
0.000209264
0.000209231
0.000209742
0.000209711
0.000209253
0.000209759
0.000209731
0.000187453
0.000187969
0.000209269
0.000209748
0.000209749
0.000187977
0.000187842
0.000188323
0.000209889
0.000209888
0.000210325
0.000210324
0.000187851
0.000188333
0.000209907
0.000209875
0.000210342
0.000210311
0.000209896
0.000210359
0.000210331
0.000187837
0.000188318
0.000209912
0.000210348
0.000210348
0.000188326
0.000188177
0.000188639
0.000210462
0.000210461
0.000210861
0.000210861
0.000188186
0.000188648
0.00021048
0.000210448
0.000210878
0.000210847
0.000210469
0.000210896
0.000210866
0.000188172
0.000188633
0.000210486
0.000210884
0.000210884
0.00018861
0.000188474
0.000188866
0.00021097
0.000210968
0.000211333
0.000211332
0.000188483
0.000188844
0.000210988
0.000210956
0.000211351
0.000211319
0.000210977
0.000211369
0.000211339
0.000188468
0.000188867
0.000210994
0.000211357
0.000211357
0.000188864
0.000188741
0.000189043
0.000211411
0.000211409
0.000211734
0.000211731
0.000188774
0.000189053
0.000211429
0.000211396
0.000211752
0.00021172
0.000211418
0.000211771
0.00021174
0.00018875
0.000189038
0.000211434
0.000211757
0.000211757
0.000189027
0.000188949
0.000189181
0.000211799
0.000211797
0.000212074
0.000212071
0.000188958
0.00018919
0.000211816
0.000211781
0.000212095
0.000212062
0.000211805
0.000212113
0.00021208
0.000188943
0.000189176
0.000211822
0.000212097
0.000212097
0.000189172
0.000189091
0.000189302
0.000212131
0.000212129
0.000212355
0.000212352
0.0001891
0.000189311
0.000212143
0.000212109
0.000212378
0.000212345
0.000212137
0.000212397
0.00021236
0.000189086
0.000189296
0.000212154
0.000212378
0.000212377
0.000189301
0.000189186
0.000189385
0.000212406
0.000212404
0.00021258
0.000212577
0.000189195
0.000189395
0.000212414
0.000212381
0.000212607
0.000212574
0.000212412
0.000212626
0.000212584
0.000189181
0.00018938
0.000212429
0.000212604
0.000212602
0.000189388
0.000189255
0.000189422
0.000212627
0.000212625
0.000212756
0.000212748
0.000189264
0.000189431
0.00021263
0.000212597
0.000212785
0.000212751
0.000212633
0.000212804
0.000212756
0.00018925
0.000189416
0.00021265
0.000212776
0.000212773
0.000189422
0.000189287
0.000189422
0.000212788
0.000212794
0.000212889
0.000212873
0.000189296
0.000189431
0.000212794
0.00021276
0.000212912
0.000212878
0.000212802
0.00021293
0.000212881
0.000189282
0.000189416
0.000212819
0.000212902
0.000212898
0.000189422
0.000189284
0.000189415
0.000212901
0.000212913
0.000213096
0.000213082
0.000189293
0.000189424
0.000212916
0.000212882
0.000213115
0.000213082
0.000212921
0.000213131
0.000213089
0.000189279
0.000189409
0.000212938
0.000213111
0.000213107
0.000189416
0.000189242
0.000190868
0.00021287
0.000212876
0.000215494
0.000215495
0.000189251
0.000190882
0.000212889
0.000212854
0.000215513
0.000215486
0.000212885
0.000215547
0.000215498
0.00018924
0.00019078
0.000212904
0.000215525
0.000215515
0.000190788
0.000192582
0.000214178
0.000214178
0.000192595
0.000214194
0.000214214
0.000236316
0.000236311
0.000236325
0.000214228
0.000192654
0.000214243
9.98321e-05
5.07421e-05
2.38927e-05
9.98372e-05
5.07389e-05
0.000207746
0.000207753
0.000207752
0.000207759
0.000144119
0.000200487
0.000103589
0.000210016
2.38906e-05
0.000144104
0.000200478
0.000210013
0.00010359
0.00018199
7.7899e-05
7.78965e-05
9.99349e-05
5.07556e-05
9.98786e-05
5.07613e-05
2.38974e-05
2.39016e-05
9.99392e-05
5.07525e-05
9.98905e-05
5.07582e-05
0.000208346
0.000208345
0.000208353
0.000210069
0.000210076
0.000210075
0.000210082
0.000144492
0.000103655
0.000211318
0.000201788
0.000144313
0.000103726
0.000211736
2.38952e-05
2.38994e-05
0.000144476
0.000211315
0.000103658
0.000201779
0.000144316
0.000211733
0.000103727
7.79293e-05
7.79291e-05
0.000182793
7.79523e-05
7.79498e-05
0.000100024
5.07743e-05
9.99743e-05
5.07797e-05
2.39061e-05
2.39101e-05
0.000100029
5.07712e-05
9.99861e-05
5.07765e-05
0.000210643
0.000210642
0.00021065
0.000212284
0.00021229
0.000212288
0.000212296
0.000144826
0.000103783
0.00021297
0.00020301
0.000144666
0.000103847
0.000213363
2.39039e-05
2.3908e-05
0.000144807
0.000212967
0.000103785
0.000203001
0.000144667
0.00021336
0.000103848
7.79782e-05
7.79782e-05
0.000183645
7.79989e-05
7.79964e-05
0.0001001
5.0792e-05
0.000100056
5.0797e-05
2.39144e-05
2.39184e-05
0.000100105
5.0789e-05
0.000100068
5.07939e-05
0.000212832
0.00021283
0.000212838
0.000214388
0.000214395
0.000214393
0.0002144
0.000145119
0.000103895
0.00021453
0.000204153
0.00014499
0.000103953
0.000214898
2.39122e-05
2.39162e-05
0.00014511
0.000214527
0.000103897
0.000204144
0.000144985
0.000214894
0.000103954
7.80211e-05
7.80203e-05
0.000184401
7.80371e-05
7.80361e-05
0.000100164
5.08088e-05
0.000100126
5.08134e-05
2.39225e-05
2.39262e-05
0.000100169
5.08058e-05
0.000100137
5.08102e-05
0.000214911
0.000214908
0.000214916
0.000216384
0.000216391
0.000216388
0.000216395
0.000145392
0.000103993
0.000215998
0.000205219
0.00014528
0.000104044
0.000216341
2.39202e-05
2.39241e-05
0.000145388
0.000215994
0.000103994
0.000205209
0.00014526
0.000216336
0.000104045
7.80555e-05
7.80556e-05
0.000185087
7.80716e-05
7.80693e-05
0.000100215
5.08246e-05
0.000100182
5.08288e-05
2.39302e-05
2.39338e-05
0.00010022
5.08215e-05
0.000100192
5.08256e-05
0.000216881
0.000216877
0.000216885
0.00021827
0.000218277
0.000218273
0.000218281
0.000145632
0.000104075
0.000217377
0.000206207
0.000145532
0.000104121
0.000217693
2.39279e-05
2.39316e-05
0.000145634
0.000217372
0.000104077
0.000206197
0.000145507
0.000217687
0.000104122
7.80839e-05
7.80844e-05
0.000185732
7.80985e-05
7.8096e-05
0.000100253
5.08395e-05
0.000100226
5.08432e-05
2.39375e-05
2.3941e-05
0.000100258
5.08363e-05
0.000100235
5.084e-05
0.00021874
0.000218737
0.000218745
0.000220047
0.000220054
0.00022005
0.000220058
0.00014584
0.000104144
0.000218667
0.000207122
0.00014575
0.000104184
0.000218953
2.39353e-05
2.39388e-05
0.000145837
0.000218661
0.000104146
0.000207111
0.000145728
0.000218947
0.000104186
7.81073e-05
7.8107e-05
0.00018632
7.81174e-05
7.81166e-05
0.000100279
5.08533e-05
0.000100258
5.08566e-05
2.39445e-05
2.39478e-05
0.000100286
5.08502e-05
0.000100266
5.08534e-05
0.000220491
0.000220487
0.000220495
0.000221716
0.000221723
0.000221718
0.000221727
0.000146019
0.0001042
0.000219869
0.000207965
0.000145935
0.000104234
0.000220124
2.39423e-05
2.39457e-05
0.00014601
0.000219863
0.000104201
0.000207954
0.00014592
0.000220117
0.000104235
7.81247e-05
7.81237e-05
0.000186892
7.81321e-05
7.81311e-05
0.000100295
5.08662e-05
0.000100279
5.08691e-05
2.39512e-05
2.39543e-05
0.000100302
5.0863e-05
0.000100287
5.08659e-05
0.000222135
0.00022213
0.000222139
0.000223277
0.000223284
0.000223279
0.000223288
0.00014617
0.000104243
0.000220981
0.000208736
0.00014609
0.00010427
0.000221215
2.39489e-05
2.39521e-05
0.000146161
0.000220975
0.000104243
0.000208724
0.000146077
0.000221207
0.000104272
7.81349e-05
7.8133e-05
0.00018737
7.81414e-05
7.81405e-05
0.000100301
5.0878e-05
0.000100288
5.08805e-05
2.39574e-05
2.39605e-05
0.000100308
5.08749e-05
0.000100296
5.08771e-05
0.000223674
0.000223668
0.000223677
0.000224731
0.000224738
0.000224733
0.000224743
0.00014629
0.000104272
0.000222003
0.000209435
0.00014622
0.000104294
0.00022222
2.39552e-05
2.39583e-05
0.000146282
0.000221998
0.000104273
0.000209423
0.000146206
0.000222213
0.000104296
7.81387e-05
7.81376e-05
0.000187793
7.81446e-05
7.81437e-05
0.000100297
5.0889e-05
0.000100288
5.08909e-05
2.39633e-05
2.39662e-05
0.000100305
5.08856e-05
0.000100296
5.08876e-05
0.000225109
0.000225104
0.000225112
0.000226079
0.000226086
0.00022608
0.000226091
0.000146384
0.000104288
0.000222941
0.000210068
0.000146322
0.000104306
0.000223144
2.39611e-05
2.3964e-05
0.000146377
0.000222936
0.000104289
0.000210056
0.000146309
0.000223136
0.000104307
7.81378e-05
7.81369e-05
0.000188165
7.81419e-05
7.81409e-05
0.000100285
5.08989e-05
0.000100279
5.09004e-05
2.39688e-05
2.39717e-05
0.000100292
5.08938e-05
0.000100287
5.08991e-05
0.000226445
0.000226439
0.000226447
0.000227323
0.00022733
0.000227323
0.000227334
0.000146452
0.000104293
0.000223796
0.000210636
0.000146399
0.000104306
0.000223987
2.39666e-05
2.39695e-05
0.000146445
0.00022379
0.000104294
0.000210624
0.000146386
0.00022398
0.000104307
7.81319e-05
7.8131e-05
0.000188497
7.8134e-05
7.81329e-05
0.000100264
5.09076e-05
0.000100261
5.09094e-05
2.3974e-05
2.39767e-05
0.000100271
5.0902e-05
0.000100269
5.09079e-05
0.000227681
0.000227676
0.000227683
0.000228475
0.000228481
0.000228475
0.000228485
0.000146493
0.000104287
0.000224567
0.000211141
0.000146454
0.000104295
0.000224756
2.39717e-05
2.39746e-05
0.000146486
0.000224562
0.000104288
0.000211129
0.00014644
0.000224749
0.000104296
7.81215e-05
7.81205e-05
0.000188744
7.81214e-05
7.81203e-05
0.000100234
5.09149e-05
0.000100235
5.09177e-05
2.39787e-05
2.39815e-05
0.000100242
5.09108e-05
0.000100243
5.09149e-05
0.000228816
0.00022881
0.000228818
0.000229533
0.000229541
0.000229535
0.000229543
0.000146512
0.00010427
0.00022526
0.000211577
0.000146481
0.000104273
0.000225447
2.39765e-05
2.39793e-05
0.000146506
0.000225255
0.000104271
0.000211564
0.000146467
0.00022544
0.000104274
7.81067e-05
7.81057e-05
0.000188922
7.81041e-05
7.8103e-05
0.000100196
5.09216e-05
0.0001002
5.09248e-05
2.3983e-05
2.3986e-05
0.000100203
5.09183e-05
0.000100208
5.09216e-05
0.000229844
0.000229837
0.00022985
0.000230505
0.000230514
0.000230509
0.000230513
0.000146505
0.000104242
0.000225876
0.000211949
0.000146483
0.000104241
0.000226059
2.39808e-05
2.39838e-05
0.000146501
0.000225872
0.000104243
0.000211935
0.000146468
0.00022605
0.000104243
7.80879e-05
7.80869e-05
0.000189095
7.80824e-05
7.80813e-05
0.000100149
5.09277e-05
0.000100156
5.09308e-05
2.3987e-05
2.39902e-05
0.000100156
5.09244e-05
0.000100165
5.09275e-05
0.000230776
0.000230768
0.000230783
0.000231391
0.000231398
0.000231395
0.000231395
0.000146473
0.000104206
0.000226418
0.000212261
0.000146462
0.0001042
0.000226589
2.39847e-05
2.3988e-05
0.000146474
0.000226417
0.000104207
0.000212245
0.000146444
0.000226578
0.000104202
7.80658e-05
7.80647e-05
0.000189238
7.80566e-05
7.80555e-05
0.000100094
5.09328e-05
0.000100103
5.09361e-05
2.39904e-05
2.39942e-05
0.000100101
5.09295e-05
0.000100112
5.09329e-05
0.00023162
0.000231608
0.000231627
0.000232188
0.000232193
0.000232193
0.000232189
0.000146421
0.000104164
0.000226902
0.000212518
0.000146418
0.00010415
0.000227052
2.39882e-05
2.3992e-05
0.000146421
0.000226903
0.000104165
0.000212498
0.000146398
0.000227037
0.000104151
7.80412e-05
7.80402e-05
0.000189353
7.8027e-05
7.80259e-05
0.000100028
5.09369e-05
0.000100041
5.09411e-05
2.39933e-05
2.39981e-05
0.000100036
5.09337e-05
0.000100049
5.09379e-05
0.000232377
0.000232362
0.000232386
0.000232898
0.000232908
0.000232904
0.000232902
0.000146351
0.000104118
0.000227317
0.00021272
0.000146352
0.000104092
0.000227448
2.39911e-05
2.3996e-05
0.000146345
0.000227322
0.000104119
0.000212697
0.000146336
0.00022743
0.000104094
7.80156e-05
7.80146e-05
0.00018941
7.79946e-05
7.79934e-05
9.9951e-05
5.09401e-05
9.99667e-05
5.09463e-05
2.39957e-05
2.40021e-05
9.9959e-05
5.09371e-05
9.99753e-05
5.09433e-05
0.000233048
0.000233037
0.000233059
0.000233517
0.000233534
0.000233525
0.000233524
0.000146251
0.000104078
0.000227667
0.000212872
0.000146277
0.000104031
0.000227782
2.39935e-05
2.39999e-05
0.000146244
0.000227678
0.00010408
0.000212844
0.000146266
0.000227758
0.000104033
7.79924e-05
7.79913e-05
0.000189426
7.79626e-05
7.79614e-05
9.98474e-05
5.09423e-05
9.98669e-05
5.09528e-05
2.39978e-05
2.4006e-05
9.98547e-05
5.09396e-05
9.98754e-05
5.09501e-05
0.000233626
0.000233618
0.00023364
0.000234078
0.000234098
0.00023409
0.000234082
0.000146128
0.000104051
0.000227956
0.000212981
0.000146172
0.000103933
0.000228062
2.39956e-05
2.40038e-05
0.00014612
0.000227974
0.00010405
0.000212956
0.000146163
0.000228031
0.00010393
7.79794e-05
7.79785e-05
0.000189411
7.79259e-05
7.7925e-05
9.97591e-05
5.09463e-05
9.97241e-05
5.09868e-05
2.40015e-05
2.40209e-05
9.97648e-05
5.09432e-05
9.97311e-05
5.09843e-05
0.000234128
0.00023412
0.000234152
0.000233722
0.000233726
0.00023372
0.000233727
0.000146056
0.00010399
0.000228258
0.000213607
0.00014608
0.000103759
0.000228044
2.39992e-05
2.40188e-05
0.000146049
0.000228248
0.000103986
0.000213586
0.000146072
0.000228036
0.000103756
7.79227e-05
7.79218e-05
0.000189654
7.77107e-05
7.77111e-05
0.000109033
5.50878e-05
0.000100425
8.53875e-05
2.70318e-05
4.59016e-05
0.000109033
5.50845e-05
0.00010042
8.55226e-05
0.00025106
0.000243689
0.000243693
0.00023562
0.000250957
0.000244517
0.000244521
0.000150855
0.000106027
0.000232588
0.000214633
0.00014691
0.000108415
0.000231079
2.70301e-05
4.5913e-05
0.000150866
0.000232583
0.000106006
0.000214339
0.000146799
0.000231148
0.000108442
7.75745e-05
7.75762e-05
0.000197015
8.57519e-05
8.58041e-05
2.38933e-05
2.3892e-05
0.000181932
7.78999e-05
7.78971e-05
2.38978e-05
2.38937e-05
2.38965e-05
2.38923e-05
0.000182065
7.79276e-05
7.79247e-05
7.79067e-05
7.79003e-05
9.98356e-05
5.07447e-05
0.000144113
0.000200455
0.00010359
0.00021
0.000144116
0.000200455
0.000103589
0.000210003
9.98252e-05
5.07519e-05
5.07458e-05
9.98859e-05
9.98286e-05
5.07544e-05
5.07437e-05
9.98889e-05
0.000144114
0.00020079
0.000103661
0.000210872
0.000103586
0.000210442
0.000144304
0.000144117
0.000200789
0.000103659
0.000210875
0.000103583
0.000210444
0.000144307
0.000182009
7.78965e-05
7.78956e-05
2.38933e-05
2.38972e-05
2.38929e-05
0.000181989
7.79242e-05
7.79229e-05
7.79025e-05
7.78967e-05
2.38978e-05
2.38934e-05
0.000144106
0.00020047
0.000103582
0.000210001
9.98328e-05
5.0737e-05
0.000144102
0.000200443
0.000209998
0.000103568
9.98373e-05
5.07487e-05
5.07428e-05
9.98899e-05
0.000144131
0.000200805
0.000103652
0.000210873
0.000103577
0.000210447
0.000144297
9.98343e-05
5.07468e-05
5.07362e-05
9.98861e-05
0.000144127
0.000200777
0.000210871
0.000103639
0.000210441
0.000103565
0.000144293
9.98336e-05
5.07439e-05
0.000144116
0.000200461
0.000210011
0.000103587
9.98336e-05
5.07404e-05
0.000144123
0.000200821
0.00010366
0.000210887
0.000103585
0.000210457
0.000144311
9.98332e-05
5.07536e-05
5.07429e-05
9.98867e-05
0.000144117
0.000200795
0.000210882
0.000103658
0.000210452
0.000103583
0.000144307
9.98269e-05
5.07501e-05
5.07394e-05
9.98867e-05
0.000181996
7.78835e-05
7.79004e-05
2.38925e-05
2.3895e-05
2.38907e-05
0.000181976
7.79108e-05
7.79278e-05
7.78847e-05
7.79047e-05
2.3897e-05
2.38927e-05
0.000144106
0.000200476
0.000210012
0.000103585
9.9831e-05
5.07403e-05
9.9837e-05
5.07383e-05
0.000144128
0.000200813
0.000210885
0.000103661
0.000210454
0.000103588
0.000144294
0.000144131
0.00020081
0.000210885
0.000103656
0.000210455
0.000103582
0.000144297
9.98234e-05
5.075e-05
5.07395e-05
9.98821e-05
9.98302e-05
5.07482e-05
5.07422e-05
9.98881e-05
2.38922e-05
2.38917e-05
0.000181974
7.79264e-05
7.79239e-05
7.79024e-05
7.79023e-05
2.38967e-05
2.38924e-05
2.38962e-05
2.38921e-05
2.38981e-05
2.39022e-05
2.38967e-05
2.39009e-05
7.79336e-05
7.79277e-05
0.000182828
7.79536e-05
7.79506e-05
2.39065e-05
2.39025e-05
2.39052e-05
2.39011e-05
0.000182893
7.79779e-05
7.79746e-05
7.79589e-05
7.7953e-05
9.99386e-05
5.07537e-05
9.98818e-05
5.0764e-05
0.000144487
0.000103656
0.000211304
0.000201755
0.000144305
0.000103727
0.000211722
0.00014449
0.000103653
0.000211306
0.000201755
0.000144308
0.000103725
0.000211725
9.99277e-05
5.07707e-05
5.07649e-05
9.99821e-05
9.99314e-05
5.07732e-05
5.07631e-05
9.99851e-05
0.000144487
0.000202072
0.00010379
0.000212548
0.000103722
0.000212142
0.000144659
0.00014449
0.000202072
0.000103788
0.00021255
0.000103719
0.000212145
0.000144663
7.79294e-05
7.7924e-05
0.000182871
7.79501e-05
7.79488e-05
2.38979e-05
2.39021e-05
2.39059e-05
2.39018e-05
0.000182864
7.79753e-05
7.79728e-05
7.79547e-05
7.79492e-05
2.39065e-05
2.39023e-05
0.00014448
0.000103647
0.000211308
0.00020177
0.000144318
0.000103718
0.000211722
9.99358e-05
5.07461e-05
9.98866e-05
5.07563e-05
0.000144476
0.000211302
0.000103634
0.000201743
0.000144314
0.00021172
0.000103705
9.99393e-05
5.07675e-05
5.07619e-05
9.99862e-05
0.000144499
0.000202087
0.000103781
0.000212548
0.000103713
0.000212146
0.000144652
9.99357e-05
5.07656e-05
5.07555e-05
9.99821e-05
0.000144495
0.00020206
0.000212546
0.000103768
0.000212141
0.0001037
0.000144648
9.99364e-05
5.07528e-05
9.98854e-05
5.07632e-05
0.00014449
0.000211313
0.000103653
0.000201761
0.000144308
0.000211732
0.000103725
9.99363e-05
5.07493e-05
9.98799e-05
5.07596e-05
0.000144494
0.000202104
0.000103788
0.000212562
0.00010372
0.000212156
0.000144666
9.99346e-05
5.07724e-05
5.07622e-05
9.99825e-05
0.00014449
0.000202077
0.000212558
0.000103787
0.000212152
0.000103719
0.000144663
9.99293e-05
5.07689e-05
5.07588e-05
9.99826e-05
7.79121e-05
7.79316e-05
0.000182839
7.79367e-05
7.79539e-05
2.38972e-05
2.39014e-05
2.39037e-05
2.38995e-05
0.000182866
7.79608e-05
7.7978e-05
7.79374e-05
7.79568e-05
2.39057e-05
2.39015e-05
0.00014448
0.000211316
0.000103652
0.000201776
0.000144318
0.000211734
0.000103723
9.99303e-05
5.07493e-05
9.98745e-05
5.07596e-05
9.99362e-05
5.07517e-05
9.98814e-05
5.07576e-05
0.000144496
0.000202095
0.000212559
0.00010379
0.000212153
0.000103723
0.000144648
0.000144499
0.000202093
0.000212559
0.000103785
0.000212154
0.000103718
0.000144651
9.99226e-05
5.07688e-05
5.07588e-05
9.99754e-05
9.99296e-05
5.0767e-05
5.07612e-05
9.99812e-05
2.38968e-05
2.39011e-05
2.38965e-05
2.39005e-05
0.000182918
7.79764e-05
7.79738e-05
7.79547e-05
7.79546e-05
2.39054e-05
2.39012e-05
2.39049e-05
2.39009e-05
2.39068e-05
2.39107e-05
2.39054e-05
2.39094e-05
7.79823e-05
7.79767e-05
0.000183648
7.80003e-05
7.79971e-05
2.39149e-05
2.3911e-05
2.39136e-05
2.39096e-05
0.000183685
7.8021e-05
7.80177e-05
7.80042e-05
7.79985e-05
0.000100028
5.07724e-05
9.99775e-05
5.07823e-05
0.000144823
0.000103784
0.000212957
0.000202977
0.000144657
0.000103848
0.00021335
0.000144826
0.000103782
0.00021296
0.000202978
0.00014466
0.000103847
0.000213353
0.000100017
5.07885e-05
5.07832e-05
0.000100065
0.00010002
5.07911e-05
5.07814e-05
0.000100068
0.000144814
0.000203275
0.000103903
0.00021413
0.000103842
0.000213749
0.000144981
0.000144817
0.000203276
0.000103902
0.000214132
0.00010384
0.000213751
0.000144984
7.79773e-05
7.79728e-05
0.000183669
7.79978e-05
7.79951e-05
2.39066e-05
2.39107e-05
2.39143e-05
2.39103e-05
0.000183686
7.80184e-05
7.80158e-05
7.7999e-05
7.79945e-05
2.39148e-05
2.39108e-05
0.000144813
0.000103775
0.000212961
0.000202992
0.000144672
0.00010384
0.00021335
0.000100025
5.07648e-05
9.99821e-05
5.07747e-05
0.000144809
0.000212955
0.000103763
0.000202965
0.000144668
0.000213348
0.000103826
0.000100028
5.07854e-05
5.07801e-05
0.000100069
0.000144833
0.000203291
0.000103895
0.00021413
0.000103833
0.000213753
0.000144968
0.000100024
5.07835e-05
5.07738e-05
0.000100065
0.000144829
0.000203263
0.000214128
0.000103881
0.000213747
0.000103821
0.000144964
0.000100025
5.07715e-05
9.99806e-05
5.07815e-05
0.000144828
0.000212967
0.000103782
0.000202983
0.000144662
0.00021336
0.000103846
0.000100026
5.07681e-05
9.99753e-05
5.0778e-05
0.000144827
0.000203308
0.000103902
0.000214143
0.000103841
0.000213761
0.000144972
0.000100023
5.07902e-05
5.07805e-05
0.000100065
0.00014482
0.000203282
0.000214139
0.000103901
0.000213758
0.000103839
0.000144985
0.000100018
5.07867e-05
5.0777e-05
0.000100065
7.7961e-05
7.79802e-05
0.000183651
7.79832e-05
7.80005e-05
2.39058e-05
2.39099e-05
2.39121e-05
2.39081e-05
0.000183673
7.80038e-05
7.80212e-05
7.79827e-05
7.80019e-05
2.39141e-05
2.391e-05
0.000144811
0.000212968
0.00010378
0.000202999
0.00014467
0.000213361
0.000103844
0.000100017
5.0768e-05
9.99675e-05
5.07779e-05
0.000100023
5.07704e-05
9.99746e-05
5.0776e-05
0.000144828
0.000203298
0.000214139
0.000103903
0.000213758
0.000103843
0.000144964
0.000144831
0.000203298
0.00021414
0.000103899
0.00021376
0.000103839
0.000144965
0.000100009
5.07867e-05
5.0777e-05
0.000100056
0.000100017
5.07848e-05
5.07795e-05
0.000100062
2.39055e-05
2.39096e-05
2.39052e-05
2.39091e-05
0.0001837
7.80179e-05
7.8017e-05
7.80003e-05
7.80002e-05
2.39137e-05
2.39097e-05
2.39133e-05
2.39094e-05
2.39151e-05
2.3919e-05
2.39138e-05
2.39177e-05
7.80242e-05
7.80186e-05
0.000184401
7.804e-05
7.80368e-05
2.3923e-05
2.39192e-05
2.39216e-05
2.39178e-05
0.000184426
7.80574e-05
7.80541e-05
7.80427e-05
7.80369e-05
0.000100104
5.07902e-05
0.00010006
5.07997e-05
0.000145127
0.000103896
0.000214517
0.00020412
0.00014497
0.000103954
0.000214885
0.000145131
0.000103894
0.00021452
0.000204121
0.000144973
0.000103953
0.000214888
0.000100092
5.08054e-05
5.08005e-05
0.000100134
0.000100096
5.0808e-05
5.07986e-05
0.000100137
0.000145116
0.000204402
0.000104002
0.000215619
0.000103947
0.000215263
0.000145269
0.000145119
0.000204403
0.000104
0.000215621
0.000103945
0.000215266
0.000145272
7.80192e-05
7.80148e-05
0.000184425
7.80375e-05
7.80347e-05
2.39149e-05
2.39189e-05
2.39223e-05
2.39185e-05
0.000184426
7.80549e-05
7.80521e-05
7.80376e-05
7.80331e-05
2.39229e-05
2.3919e-05
0.000145115
0.000103888
0.000214521
0.000204136
0.00014499
0.000103946
0.000214886
0.000100102
5.07826e-05
0.000100064
5.07921e-05
0.000145111
0.000214516
0.000103875
0.000204108
0.000144986
0.000214883
0.000103933
0.000100104
5.08023e-05
5.07974e-05
0.000100139
0.000145135
0.000204418
0.000103993
0.000215619
0.000103938
0.000215267
0.000145256
0.0001001
5.08003e-05
5.0791e-05
0.000100135
0.000145131
0.00020439
0.000215616
0.00010398
0.000215261
0.000103926
0.000145252
0.000100101
5.07893e-05
0.000100062
5.07988e-05
0.000145131
0.000214527
0.000103894
0.000204127
0.000144974
0.000214895
0.000103952
0.000100101
5.07858e-05
0.000100057
5.07953e-05
0.000145138
0.000204434
0.000104001
0.000215631
0.000103946
0.000215276
0.000145262
0.000100098
5.08071e-05
5.07977e-05
0.000100135
0.00014512
0.000204408
0.000215628
0.000103999
0.000215273
0.000103944
0.000145273
0.000100093
5.08036e-05
5.07943e-05
0.000100135
7.8003e-05
7.80219e-05
0.000184408
7.80227e-05
7.80402e-05
2.39142e-05
2.39181e-05
2.39202e-05
2.39163e-05
0.000184411
7.804e-05
7.80575e-05
7.80213e-05
7.80402e-05
2.39221e-05
2.39182e-05
0.000145114
0.000214528
0.000103893
0.000204143
0.000144986
0.000214895
0.00010395
0.000100092
5.07858e-05
0.000100048
5.07953e-05
0.000100096
5.07882e-05
0.000100053
5.07933e-05
0.00014513
0.000204425
0.000215627
0.000104002
0.000215272
0.000103947
0.000145254
0.000145124
0.000204424
0.000215628
0.000103997
0.000215273
0.000103944
0.000145258
0.000100083
5.08035e-05
5.07942e-05
0.000100124
0.000100087
5.08017e-05
5.07968e-05
0.000100127
2.39139e-05
2.39178e-05
2.39135e-05
2.39173e-05
0.000184436
7.80555e-05
7.80534e-05
7.80399e-05
7.80388e-05
2.39218e-05
2.3918e-05
2.39213e-05
2.39176e-05
2.39232e-05
2.39269e-05
2.39218e-05
2.39255e-05
7.80595e-05
7.80537e-05
0.000185085
7.80731e-05
7.80699e-05
2.39307e-05
2.39271e-05
2.39294e-05
2.39257e-05
0.000185114
7.80873e-05
7.80841e-05
7.80747e-05
7.80688e-05
0.000100167
5.0807e-05
0.000100128
5.08161e-05
0.000145398
0.000103994
0.000215986
0.000205186
0.000145254
0.000104046
0.000216328
0.000145402
0.000103992
0.000215988
0.000205187
0.000145257
0.000104044
0.000216331
0.000100155
5.08213e-05
5.08168e-05
0.000100192
0.000100158
5.08224e-05
5.0815e-05
0.000100194
0.000145384
0.000205452
0.000104086
0.000217016
0.000104037
0.000216686
0.000145523
0.000145387
0.000205453
0.000104084
0.000217018
0.000104035
0.000216689
0.000145526
7.80544e-05
7.80501e-05
0.000185143
7.80707e-05
7.80676e-05
2.39229e-05
2.39268e-05
2.393e-05
2.39263e-05
0.000185079
7.80849e-05
7.80819e-05
7.80695e-05
7.80652e-05
2.39306e-05
2.39268e-05
0.000145389
0.000103985
0.00021599
0.000205202
0.000145274
0.000104037
0.000216328
0.000100165
5.07994e-05
0.000100133
5.08085e-05
0.000145383
0.000215984
0.000103972
0.000205173
0.00014527
0.000216326
0.000104024
0.000100166
5.08181e-05
5.08137e-05
0.000100196
0.000145393
0.000205469
0.000104077
0.000217016
0.000104028
0.00021669
0.000145514
0.000100162
5.08162e-05
5.08073e-05
0.000100192
0.000145391
0.00020544
0.000217013
0.000104064
0.000216684
0.000104016
0.000145509
0.000100165
5.0806e-05
0.000100131
5.08152e-05
0.000145402
0.000215995
0.000103991
0.000205192
0.000145259
0.000216338
0.000104043
0.000100165
5.08026e-05
0.000100126
5.08117e-05
0.000145409
0.000205485
0.000104084
0.000217028
0.000104036
0.000216699
0.000145519
0.000100161
5.0821e-05
5.0814e-05
0.000100192
0.000145389
0.000205459
0.000217025
0.000104083
0.000216696
0.000104034
0.000145526
0.000100156
5.0818e-05
5.08106e-05
0.000100192
7.80383e-05
7.80569e-05
0.000185126
7.80557e-05
7.80732e-05
2.39222e-05
2.3926e-05
2.39279e-05
2.39241e-05
0.000185064
7.807e-05
7.80873e-05
7.80533e-05
7.8072e-05
2.39298e-05
2.39261e-05
0.000145399
0.000215996
0.000103991
0.000205208
0.000145261
0.000216337
0.000104041
0.000100154
5.08025e-05
0.000100116
5.08116e-05
0.000100156
5.0805e-05
0.000100119
5.08097e-05
0.00014539
0.000205475
0.000217024
0.000104086
0.000216695
0.000104037
0.000145525
0.000145383
0.000205475
0.000217024
0.000104082
0.000216696
0.000104034
0.000145522
0.000100145
5.08184e-05
5.08106e-05
0.000100181
0.000100147
5.08176e-05
5.08131e-05
0.000100183
2.39219e-05
2.39257e-05
2.39215e-05
2.39252e-05
0.000185122
7.80859e-05
7.80834e-05
7.80704e-05
7.80708e-05
2.39295e-05
2.39258e-05
2.3929e-05
2.39254e-05
2.39309e-05
2.39344e-05
2.39295e-05
2.39331e-05
7.80883e-05
7.80825e-05
0.000185729
7.80999e-05
7.80968e-05
2.39381e-05
2.39346e-05
2.39367e-05
2.39332e-05
0.000185738
7.8111e-05
7.81077e-05
7.81004e-05
7.80945e-05
0.000100218
5.08251e-05
0.000100185
5.08292e-05
0.000145633
0.000104077
0.000217364
0.000206174
0.000145507
0.000104123
0.00021768
0.000145636
0.000104075
0.000217367
0.000206174
0.00014551
0.000104121
0.000217682
0.000100205
5.08362e-05
5.08321e-05
0.000100236
0.000100208
5.08366e-05
5.08325e-05
0.000100239
0.000145621
0.000206427
0.000104156
0.000218321
0.000104114
0.00021802
0.000145741
0.000145623
0.000206427
0.000104154
0.000218323
0.000104111
0.000218022
0.000145743
7.80832e-05
7.8079e-05