/*--------------------------------*- C++ -*----------------------------------*\
| =========                 |                                                 |
| \\      /  F ield         | OpenFOAM: The Open Source CFD Toolbox           |
|  \\    /   O peration     | Version:  v1906                                 |
|   \\  /    A nd           | Web:      www.OpenFOAM.com                      |
|    \\/     M anipulation  |                                                 |
\*---------------------------------------------------------------------------*/
FoamFile
{
    version     2.0;
    format      ascii;
    class       volScalarField;
    location    "550";
    object      p;
}
// * * * * * * * * * * * * * * * * * * * * * * * * * * * * * * * * * * * * * //

dimensions      [0 2 -2 0 0 0 0];


internalField   nonuniform List<scalar> 
43024
(
0.000710777
0.000710725
0.000710725
0.000712301
0.000675418
0.000675369
0.000675369
0.000676947
0.000640031
0.000639984
0.000639985
0.000641566
0.000604615
0.000604572
0.000604572
0.000606155
0.00056917
0.000569129
0.000569129
0.000570715
0.000533693
0.000533654
0.000533654
0.000535243
0.000498182
0.000498147
0.000498147
0.000499739
0.000462638
0.000462605
0.000462605
0.0004642
0.00042706
0.000427029
0.000427029
0.000428626
0.000391446
0.000391417
0.000391417
0.000393018
0.000355798
0.000355771
0.000355771
0.000357374
0.000320113
0.000320088
0.000320088
0.000321694
0.000284392
0.00028437
0.00028437
0.000285978
0.000248635
0.000248615
0.000248615
0.000250225
0.000212842
0.000212823
0.000212823
0.000214435
0.000177012
0.000176996
0.000176996
0.000178607
0.000141145
0.000141132
0.000141132
0.00014274
0.000105238
0.000105228
0.000105228
0.000106824
6.93015e-05
6.92853e-05
6.92838e-05
7.08344e-05
3.39064e-05
3.34531e-05
3.34497e-05
3.47026e-05
6.82575e-06
7.84528e-06
7.84058e-06
5.75385e-06
0.000717949
0.00071956
0.000719561
0.000717949
0.000719561
0.000719561
0.00071956
0.00071956
0.000717949
0.000719561
0.000719561
0.000717949
0.000712301
0.000682598
0.000710725
0.000710725
0.00068421
0.00068421
0.000712301
0.000682599
0.000710725
0.000710725
0.00068421
0.00068421
0.000710725
0.00068421
0.00068421
0.000712301
0.000682598
0.000710726
0.00068421
0.00068421
0.000682598
0.000676947
0.000647221
0.000675369
0.000675369
0.000648833
0.000648833
0.000676947
0.000647221
0.000675369
0.000675369
0.000648833
0.000648833
0.000675369
0.000648833
0.000648833
0.000676947
0.000647221
0.000675369
0.000648833
0.000648833
0.00064722
0.000641566
0.000611815
0.000639985
0.000639985
0.000613428
0.000613428
0.000641565
0.000611815
0.000639985
0.000639985
0.000613428
0.000613428
0.000639985
0.000613428
0.000613428
0.000641565
0.000611814
0.000639985
0.000613428
0.000613428
0.000611814
0.000606155
0.000576378
0.000604572
0.000604572
0.000577992
0.000577992
0.000606155
0.000576379
0.000604572
0.000604572
0.000577992
0.000577992
0.000604572
0.000577992
0.000577992
0.000606155
0.000576378
0.000604572
0.000577992
0.000577992
0.000576378
0.000570715
0.000540911
0.000569129
0.000569129
0.000542526
0.000542526
0.000570715
0.000540911
0.000569129
0.000569129
0.000542526
0.000542526
0.000569129
0.000542526
0.000542526
0.000570715
0.000540911
0.000569129
0.000542526
0.000542526
0.000540911
0.000535243
0.000505411
0.000533654
0.000533654
0.000507026
0.000507026
0.000535243
0.000505411
0.000533654
0.000533654
0.000507026
0.000507026
0.000533654
0.000507026
0.000507026
0.000535243
0.000505411
0.000533654
0.000507026
0.000507026
0.000505411
0.000499738
0.000469877
0.000498147
0.000498147
0.000471493
0.000471493
0.000499738
0.000469877
0.000498147
0.000498147
0.000471493
0.000471493
0.000498147
0.000471493
0.000471493
0.000499738
0.000469877
0.000498147
0.000471493
0.000471493
0.000469877
0.0004642
0.000434309
0.000462605
0.000462605
0.000435926
0.000435926
0.000464199
0.000434309
0.000462605
0.000462605
0.000435926
0.000435926
0.000462605
0.000435926
0.000435926
0.0004642
0.000434309
0.000462605
0.000435926
0.000435926
0.000434308
0.000428626
0.000398705
0.000427029
0.000427029
0.000400323
0.000400323
0.000428626
0.000398705
0.000427029
0.000427029
0.000400323
0.000400323
0.000427029
0.000400323
0.000400323
0.000428626
0.000398705
0.000427029
0.000400323
0.000400323
0.000398705
0.000393018
0.000363066
0.000391418
0.000391417
0.000364685
0.000364685
0.000393017
0.000363066
0.000391418
0.000391417
0.000364685
0.000364685
0.000391417
0.000364685
0.000364685
0.000393018
0.000363066
0.000391417
0.000364685
0.000364685
0.000363066
0.000357374
0.000327391
0.000355771
0.000355771
0.000329011
0.000329011
0.000357373
0.000327392
0.000355771
0.000355771
0.000329011
0.000329011
0.000355771
0.000329011
0.000329011
0.000357373
0.000327391
0.000355771
0.000329011
0.000329011
0.000327391
0.000321694
0.000291681
0.000320088
0.000320088
0.000293301
0.000293301
0.000321693
0.000291681
0.000320088
0.000320088
0.000293301
0.000293301
0.000320088
0.000293301
0.000293301
0.000321694
0.000291681
0.000320088
0.000293301
0.000293301
0.000291681
0.000285978
0.000255934
0.00028437
0.00028437
0.000257554
0.000257554
0.000285977
0.000255934
0.00028437
0.00028437
0.000257554
0.000257554
0.00028437
0.000257554
0.000257554
0.000285978
0.000255934
0.00028437
0.000257554
0.000257554
0.000255934
0.000250225
0.00022015
0.000248615
0.000248615
0.00022177
0.00022177
0.000250224
0.00022015
0.000248615
0.000248615
0.00022177
0.000221771
0.000248615
0.00022177
0.00022177
0.000250225
0.00022015
0.000248615
0.00022177
0.00022177
0.00022015
0.000214434
0.00018433
0.000212823
0.000212823
0.00018595
0.00018595
0.000214434
0.00018433
0.000212823
0.000212823
0.00018595
0.00018595
0.000212823
0.00018595
0.00018595
0.000214434
0.00018433
0.000212823
0.00018595
0.00018595
0.00018433
0.000178607
0.000148474
0.000176996
0.000176996
0.000150092
0.000150092
0.000178606
0.000148474
0.000176996
0.000176996
0.000150092
0.000150092
0.000176996
0.000150092
0.000150092
0.000178607
0.000148474
0.000176996
0.000150092
0.000150092
0.000148474
0.000142739
0.000112579
0.000141132
0.000141132
0.000114193
0.000114193
0.000142739
0.00011258
0.000141132
0.000141132
0.000114193
0.000114193
0.000141132
0.000114193
0.000114193
0.000142739
0.000112579
0.000141132
0.000114193
0.000114193
0.000112579
0.000106823
7.66429e-05
0.000105228
0.000105229
7.82502e-05
7.82503e-05
0.000106823
7.66435e-05
0.000105228
0.000105228
7.825e-05
7.82492e-05
0.000105228
7.82503e-05
7.82493e-05
0.000106823
7.66416e-05
0.000105228
7.82492e-05
7.82494e-05
7.66418e-05
7.0835e-05
4.06706e-05
6.92852e-05
6.92851e-05
4.23074e-05
4.23081e-05
7.08348e-05
4.06727e-05
6.92847e-05
6.92836e-05
4.23058e-05
4.23038e-05
6.9284e-05
4.23071e-05
4.2304e-05
7.08341e-05
4.06675e-05
6.92841e-05
4.23038e-05
4.23031e-05
4.06672e-05
3.47074e-05
8.4954e-06
3.34552e-05
3.34554e-05
1.09475e-05
1.09483e-05
3.47078e-05
8.4961e-06
3.34529e-05
3.345e-05
1.09473e-05
1.09387e-05
3.345e-05
1.09468e-05
1.09378e-05
3.47034e-05
8.48832e-06
3.34488e-05
1.09405e-05
1.09415e-05
8.48748e-06
5.75878e-06
7.84384e-06
7.84562e-06
5.76051e-06
7.84437e-06
7.8389e-06
6.82582e-06
6.82169e-06
6.82196e-06
7.8403e-06
5.75178e-06
7.84279e-06
0.000735064
0.000735065
0.000735064
0.000735064
0.000735066
0.000719613
0.000719613
0.000719613
0.000719613
0.000735146
0.000737227
0.000735101
0.000737247
0.000735064
0.000735146
0.000737226
0.000737247
0.000735101
0.000735615
0.000735059
0.000735059
0.000699728
0.000712869
0.000712856
0.00069973
0.000712876
0.000699729
0.000699727
0.000712869
0.000712856
0.00069973
0.000710777
0.000710777
0.000710777
0.00068426
0.00068426
0.00068426
0.00068426
0.000699809
0.000712821
0.000710745
0.000701889
0.000712772
0.000699765
0.000701908
0.000712876
0.000699729
0.000699809
0.000710745
0.000712821
0.000701889
0.000712772
0.000701908
0.000699764
0.000712868
0.000712868
0.000700277
0.000699723
0.000699723
0.000664366
0.000677517
0.000677504
0.000664368
0.000677524
0.000664367
0.000664365
0.000677517
0.000677505
0.000664368
0.000675418
0.000675418
0.000675418
0.00064888
0.00064888
0.00064888
0.00064888
0.000664446
0.000677469
0.000675387
0.000666525
0.00067742
0.000664403
0.000666543
0.000677524
0.000664367
0.000664446
0.000675387
0.000677469
0.000666525
0.000677419
0.000666543
0.000664402
0.000677517
0.000677517
0.000664913
0.000664361
0.000664361
0.000628976
0.000642138
0.000642125
0.000628978
0.000642145
0.000628977
0.000628975
0.000642138
0.000642126
0.000628978
0.000640031
0.000640031
0.000640031
0.000613472
0.000613472
0.000613472
0.000613472
0.000629055
0.00064209
0.000640002
0.000631134
0.00064204
0.000629013
0.000631151
0.000642145
0.000628977
0.000629055
0.000640002
0.00064209
0.000631134
0.00064204
0.000631151
0.000629012
0.000642138
0.000642138
0.000629521
0.000628972
0.000628972
0.000593557
0.00060673
0.000606717
0.000593559
0.000606738
0.000593558
0.000593556
0.00060673
0.000606718
0.000593559
0.000604615
0.000604615
0.000604615
0.000578034
0.000578034
0.000578034
0.000578034
0.000593635
0.000606682
0.000604588
0.000595714
0.000606631
0.000593593
0.00059573
0.000606737
0.000593558
0.000593635
0.000604588
0.000606682
0.000595714
0.000606631
0.00059573
0.000593593
0.00060673
0.00060673
0.0005941
0.000593553
0.000593552
0.000558107
0.000571292
0.000571279
0.00055811
0.000571299
0.000558109
0.000558106
0.000571292
0.000571279
0.00055811
0.00056917
0.00056917
0.00056917
0.000542565
0.000542565
0.000542565
0.000542565
0.000558184
0.000571244
0.000569144
0.000560263
0.000571193
0.000558144
0.000560278
0.000571299
0.000558109
0.000558184
0.000569144
0.000571244
0.000560263
0.000571192
0.000560278
0.000558143
0.000571292
0.000571292
0.000558649
0.000558103
0.000558103
0.000522625
0.000535823
0.000535809
0.000522628
0.00053583
0.000522627
0.000522624
0.000535822
0.00053581
0.000522628
0.000533693
0.000533692
0.000533692
0.000507063
0.000507063
0.000507063
0.000507063
0.000522701
0.000535774
0.000533668
0.00052478
0.000535722
0.000522661
0.000524794
0.00053583
0.000522627
0.000522701
0.000533668
0.000535774
0.00052478
0.000535722
0.000524794
0.000522661
0.000535822
0.000535822
0.000523165
0.000522621
0.000522621
0.000487109
0.00050032
0.000500306
0.000487112
0.000500327
0.000487111
0.000487109
0.00050032
0.000500307
0.000487112
0.000498182
0.000498182
0.000498182
0.000471527
0.000471527
0.000471527
0.000471527
0.000487185
0.000500271
0.000498159
0.000489264
0.000500219
0.000487146
0.000489277
0.000500327
0.000487111
0.000487185
0.000498159
0.000500271
0.000489264
0.000500219
0.000489277
0.000487145
0.000500319
0.000500319
0.000487648
0.000487105
0.000487105
0.000451559
0.000464783
0.000464769
0.000451563
0.00046479
0.000451562
0.000451559
0.000464783
0.00046477
0.000451562
0.000462638
0.000462638
0.000462638
0.000435957
0.000435957
0.000435957
0.000435957
0.000451634
0.000464734
0.000462617
0.000453714
0.000464681
0.000451596
0.000453725
0.00046479
0.000451561
0.000451635
0.000462617
0.000464734
0.000453714
0.000464681
0.000453725
0.000451595
0.000464782
0.000464782
0.000452097
0.000451556
0.000451556
0.000415974
0.000429211
0.000429197
0.000415978
0.000429218
0.000415977
0.000415974
0.000429211
0.000429198
0.000415978
0.00042706
0.00042706
0.00042706
0.000400353
0.000400353
0.000400353
0.000400353
0.000416049
0.000429162
0.00042704
0.000418129
0.000429109
0.000416011
0.000418139
0.000429218
0.000415977
0.000416049
0.00042704
0.000429162
0.000418129
0.000429109
0.00041814
0.00041601
0.00042921
0.00042921
0.000416511
0.000415971
0.000415971
0.000380354
0.000393604
0.00039359
0.000380358
0.000393611
0.000380356
0.000380354
0.000393604
0.000393591
0.000380358
0.000391446
0.000391446
0.000391446
0.000364712
0.000364712
0.000364712
0.000364712
0.000380428
0.000393554
0.000391427
0.000382508
0.000393501
0.000380391
0.000382518
0.000393611
0.000380356
0.000380428
0.000391427
0.000393555
0.000382508
0.000393501
0.000382518
0.00038039
0.000393603
0.000393603
0.00038089
0.000380351
0.000380351
0.000344698
0.000357961
0.000357947
0.000344702
0.000357968
0.0003447
0.000344698
0.000357961
0.000357948
0.000344702
0.000355798
0.000355797
0.000355797
0.000329036
0.000329036
0.000329036
0.000329036
0.000344772
0.000357911
0.00035578
0.000346852
0.000357858
0.000344735
0.000346861
0.000357968
0.0003447
0.000344772
0.00035578
0.000357912
0.000346852
0.000357858
0.000346861
0.000344734
0.00035796
0.00035796
0.000345233
0.000344695
0.000344695
0.000309007
0.000322282
0.000322269
0.00030901
0.000322289
0.000309009
0.000309006
0.000322282
0.000322269
0.00030901
0.000320113
0.000320113
0.000320113
0.000293324
0.000293324
0.000293324
0.000293324
0.00030908
0.000322232
0.000320096
0.00031116
0.000322179
0.000309043
0.000311168
0.000322289
0.000309009
0.00030908
0.000320096
0.000322233
0.00031116
0.000322179
0.000311168
0.000309043
0.000322281
0.000322281
0.00030954
0.000309003
0.000309003
0.000273279
0.000286566
0.000286553
0.000273282
0.000286574
0.00027328
0.000273278
0.000286566
0.000286554
0.000273282
0.000284392
0.000284392
0.000284392
0.000257576
0.000257576
0.000257576
0.000257576
0.000273352
0.000286517
0.000284377
0.000275432
0.000286464
0.000273316
0.000275439
0.000286574
0.00027328
0.000273352
0.000284377
0.000286517
0.000275432
0.000286463
0.000275439
0.000273315
0.000286566
0.000286566
0.000273812
0.000273276
0.000273276
0.000237514
0.000250814
0.000250801
0.000237518
0.000250822
0.000237515
0.000237514
0.000250814
0.000250802
0.000237518
0.000248635
0.000248635
0.000248635
0.000221791
0.000221791
0.000221791
0.000221791
0.000237588
0.000250764
0.000248621
0.000239667
0.000250711
0.000237551
0.000239673
0.000250822
0.000237515
0.000237588
0.000248621
0.000250765
0.000239667
0.000250711
0.000239674
0.000237551
0.000250814
0.000250814
0.000238046
0.000237512
0.000237511
0.000201713
0.000215023
0.000215012
0.000201717
0.000215032
0.000201713
0.000201712
0.000215023
0.000215012
0.000201717
0.000212842
0.000212842
0.000212842
0.000185969
0.000185969
0.000185969
0.000185969
0.000201787
0.000214973
0.000212829
0.000203865
0.000214921
0.000201751
0.000203871
0.000215032
0.000201713
0.000201787
0.000212829
0.000214974
0.000203865
0.000214921
0.000203871
0.000201751
0.000215023
0.000215024
0.000202244
0.000201711
0.000201711
0.000165874
0.000179194
0.000179185
0.00016588
0.000179206
0.000165874
0.000165873
0.000179194
0.000179185
0.00016588
0.000177012
0.000177012
0.000177012
0.00015011
0.00015011
0.00015011
0.00015011
0.00016595
0.000179144
0.000177
0.000168026
0.000179093
0.000165916
0.000168031
0.000179206
0.000165874
0.00016595
0.000177
0.000179144
0.000168025
0.000179093
0.000168031
0.000165916
0.000179195
0.000179195
0.000166407
0.000165874
0.000165874
0.000129995
0.000143325
0.00014332
0.000130007
0.000143343
0.000129993
0.000129994
0.000143325
0.00014332
0.000130007
0.000141145
0.000141145
0.000141145
0.000114211
0.000114211
0.000114211
0.000114211
0.000130077
0.000143273
0.000141135
0.000132148
0.000143227
0.000130046
0.000132153
0.000143343
0.000129992
0.000130077
0.000141135
0.000143273
0.000132148
0.000143227
0.000132153
0.000130046
0.000143328
0.000143328
0.000130532
0.00013
0.00013
9.40682e-05
0.00010741
0.000107415
9.40952e-05
0.000107444
9.40509e-05
9.40673e-05
0.000107409
0.000107415
9.40945e-05
0.000105239
0.000105238
0.000105238
7.827e-05
7.82701e-05
7.82693e-05
7.82694e-05
9.41656e-05
0.000107351
0.000105232
9.62275e-05
0.000107318
9.41455e-05
9.62317e-05
0.000107443
9.40498e-05
9.4165e-05
0.000105232
0.000107351
9.62269e-05
0.000107318
9.62312e-05
9.41444e-05
0.000107416
0.000107416
9.46156e-05
9.40776e-05
9.40771e-05
5.80747e-05
7.14301e-05
7.14564e-05
5.81149e-05
7.15293e-05
5.79684e-05
5.80727e-05
7.14301e-05
7.14557e-05
5.81137e-05
6.93016e-05
6.93005e-05
6.93007e-05
4.25183e-05
4.2519e-05
4.25161e-05
4.25158e-05
5.82009e-05
7.1351e-05
6.92904e-05
6.02651e-05
7.13517e-05
5.81995e-05
6.0279e-05
7.15218e-05
5.79651e-05
5.81989e-05
6.92892e-05
7.13489e-05
6.02629e-05
7.13507e-05
6.02776e-05
5.81973e-05
7.14359e-05
7.14336e-05
5.86548e-05
5.8108e-05
5.81061e-05
2.15683e-05
3.51752e-05
3.5269e-05
2.11749e-05
3.56007e-05
2.0089e-05
2.15559e-05
3.51679e-05
3.52634e-05
2.11696e-05
3.3907e-05
3.39028e-05
3.39026e-05
1.2118e-05
1.21176e-05
1.21126e-05
1.21133e-05
2.20947e-05
3.50325e-05
3.37001e-05
2.47478e-05
3.52281e-05
2.16423e-05
2.52474e-05
3.55846e-05
2.00956e-05
2.20953e-05
3.36976e-05
3.50267e-05
2.47436e-05
3.52274e-05
2.5244e-05
2.16405e-05
3.50669e-05
3.50669e-05
2.29078e-05
2.14613e-05
2.14603e-05
6.5333e-07
3.27879e-06
3.62941e-06
2.55559e-06
5.61778e-06
-1.87848e-06
6.5536e-07
3.25042e-06
3.60811e-06
2.54805e-06
1.95828e-06
7.70853e-06
7.70707e-06
7.72761e-06
8.01309e-06
4.39478e-06
4.3952e-06
2.96586e-06
2.65119e-06
7.21999e-06
2.45044e-06
5.31093e-06
6.75939e-06
-6.59607e-08
5.60065e-06
-1.87066e-06
2.9695e-06
7.21742e-06
2.64879e-06
2.45052e-06
5.31054e-06
-6.52916e-08
6.75979e-06
-3.59273e-07
-3.58099e-07
1.59109e-06
6.53132e-06
6.53802e-06
0.000735064
0.000735064
0.000735615
0.000735059
0.000735059
0.0007174
0.000730542
0.0007174
0.000730542
0.000729969
0.000717394
0.000717394
0.000730535
0.000730535
0.000735064
0.000735065
0.000735146
0.000737227
0.000735101
0.000737247
0.000735146
0.000737227
0.000735101
0.000737247
0.000730523
0.000717401
0.000730535
0.000717399
0.000730523
0.000717401
0.000730535
0.000717399
0.000730439
0.000728394
0.000717436
0.00071958
0.000730488
0.000728414
0.00071748
0.000730439
0.000728394
0.000717436
0.00071958
0.000730488
0.000728414
0.00071748
0.000735615
0.000735059
0.000735059
0.000735064
0.0007174
0.000730542
0.000729969
0.000717394
0.000717395
0.000730534
0.000730534
0.0007174
0.000730542
0.000735146
0.000737226
0.000735101
0.000737247
0.000735064
0.000735066
0.000735146
0.000737227
0.000737247
0.000735101
0.000730523
0.000717401
0.000730535
0.000717398
0.000730439
0.000728394
0.000717436
0.00071958
0.000730487
0.000728414
0.00071748
0.000730523
0.000717401
0.000730535
0.000717398
0.000730439
0.000728394
0.00071958
0.000717436
0.000728414
0.000730487
0.00071748
0.000735064
0.000735066
0.000735146
0.000737227
0.000737247
0.000735101
0.000735064
0.000735065
0.000730439
0.000728394
0.000717436
0.00071958
0.000730487
0.000728414
0.00071748
0.000730523
0.000717401
0.000730535
0.000717399
0.000730439
0.000728394
0.00071958
0.000717436
0.000728414
0.000730488
0.00071748
0.000730523
0.000717401
0.000730535
0.000717399
0.000735615
0.000735059
0.000735059
0.000735065
0.0007174
0.000730542
0.000729969
0.000717395
0.000717394
0.000730534
0.000730535
0.0007174
0.000730542
0.000735146
0.000737226
0.000737247
0.000735101
0.000735064
0.000735066
0.000735064
0.000735066
0.000730439
0.000728394
0.00071958
0.000717436
0.000728414
0.000730488
0.00071748
0.000730439
0.000728394
0.00071958
0.000717436
0.000728414
0.000730488
0.00071748
0.000730522
0.000717401
0.000730535
0.000717399
0.000730523
0.000717401
0.000730535
0.000717399
0.000735064
0.000735065
0.000729969
0.000717394
0.000717394
0.000730535
0.000730535
0.0007174
0.000730542
0.0007174
0.000730542
0.000712876
0.000699729
0.000712876
0.000699729
0.000712868
0.000712868
0.000700277
0.000699723
0.000699723
0.000682051
0.000695203
0.000682051
0.000695203
0.000694627
0.000682045
0.000682045
0.000695196
0.000695196
0.000699728
0.000712869
0.000712856
0.00069973
0.000699809
0.000712821
0.000710745
0.000701889
0.000712772
0.000699764
0.000701908
0.000699809
0.000712821
0.000710745
0.000701889
0.000712772
0.000699765
0.000701908
0.000695184
0.000682052
0.000695196
0.00068205
0.000695184
0.000682052
0.000695196
0.00068205
0.000695099
0.00069305
0.000682087
0.000684229
0.000695149
0.000693069
0.000682131
0.000695099
0.00069305
0.000682087
0.000684229
0.000695148
0.000693069
0.000682131
0.000712868
0.000712868
0.000700277
0.000699723
0.000699724
0.000712876
0.000699729
0.000682051
0.000695203
0.000694627
0.000682046
0.000682046
0.000695195
0.000695195
0.000682051
0.000695204
0.000699808
0.000712821
0.000710745
0.000701889
0.000712772
0.000699765
0.000701908
0.000699727
0.000712868
0.000712856
0.00069973
0.000699809
0.000710745
0.000712821
0.000701889
0.000712772
0.000701908
0.000699765
0.000695184
0.000682052
0.000695196
0.00068205
0.000695099
0.00069305
0.000682087
0.000684229
0.000695148
0.000693069
0.00068213
0.000695184
0.000682052
0.000695196
0.00068205
0.000695099
0.00069305
0.000684229
0.000682087
0.000693069
0.000695148
0.00068213
0.000699728
0.000712869
0.000712856
0.00069973
0.000699809
0.000710745
0.000712821
0.000701889
0.000712772
0.000701908
0.000699765
0.000699728
0.000712869
0.000712856
0.00069973
0.000695099
0.00069305
0.000682087
0.000684229
0.000695148
0.000693069
0.000682131
0.000695184
0.000682052
0.000695196
0.00068205
0.000695099
0.00069305
0.000684229
0.000682087
0.000693069
0.000695149
0.00068213
0.000695184
0.000682052
0.000695196
0.00068205
0.000712868
0.000712868
0.000700277
0.000699723
0.000699723
0.000712876
0.000699729
0.000682051
0.000695203
0.000694627
0.000682046
0.000682045
0.000695195
0.000695196
0.000682051
0.000695204
0.000699809
0.000710745
0.000712821
0.000701889
0.000712772
0.000701908
0.000699765
0.000699728
0.000712869
0.000712856
0.00069973
0.000699728
0.000712869
0.000712856
0.00069973
0.000695099
0.00069305
0.000684229
0.000682087
0.000693069
0.000695149
0.000682131
0.000695099
0.00069305
0.000684229
0.000682087
0.000693069
0.000695149
0.000682131
0.000695183
0.000682052
0.000695196
0.000682051
0.000695183
0.000682052
0.000695196
0.00068205
0.000712876
0.000699729
0.000712876
0.000699729
0.000694628
0.000682045
0.000682045
0.000695196
0.000695196
0.000682051
0.000695203
0.000682051
0.000695204
0.000677524
0.000664367
0.000677524
0.000664367
0.000677517
0.000677517
0.000664913
0.000664361
0.000664361
0.000646676
0.000659838
0.000646676
0.000659838
0.00065926
0.00064667
0.00064667
0.000659831
0.000659831
0.000664366
0.000677517
0.000677504
0.000664368
0.000664446
0.000677469
0.000675387
0.000666525
0.00067742
0.000664402
0.000666543
0.000664446
0.000677469
0.000675387
0.000666525
0.000677419
0.000664403
0.000666543
0.000659818
0.000646677
0.000659831
0.000646674
0.000659818
0.000646677
0.000659831
0.000646674
0.000659733
0.00065768
0.000646711
0.000648851
0.000659783
0.000657698
0.000646754
0.000659733
0.00065768
0.000646711
0.000648851
0.000659783
0.000657698
0.000646754
0.000677516
0.000677516
0.000664913
0.000664361
0.000664362
0.000677524
0.000664367
0.000646676
0.000659838
0.000659259
0.00064667
0.000646671
0.00065983
0.00065983
0.000646676
0.000659838
0.000664445
0.000677469
0.000675387
0.000666525
0.000677419
0.000664403
0.000666543
0.000664365
0.000677517
0.000677505
0.000664368
0.000664445
0.000675387
0.000677469
0.000666525
0.00067742
0.000666543
0.000664403
0.000659818
0.000646677
0.000659831
0.000646674
0.000659733
0.00065768
0.000646711
0.000648851
0.000659783
0.000657698
0.000646754
0.000659818
0.000646677
0.000659831
0.000646674
0.000659733
0.00065768
0.000648851
0.000646711
0.000657698
0.000659783
0.000646754
0.000664366
0.000677517
0.000677504
0.000664368
0.000664446
0.000675387
0.000677469
0.000666525
0.00067742
0.000666543
0.000664402
0.000664366
0.000677517
0.000677504
0.000664368
0.000659733
0.00065768
0.000646712
0.000648851
0.000659783
0.000657698
0.000646754
0.000659818
0.000646677
0.000659831
0.000646674
0.000659733
0.00065768
0.000648851
0.000646711
0.000657698
0.000659783
0.000646754
0.000659818
0.000646677
0.000659831
0.000646674
0.000677516
0.000677517
0.000664913
0.000664362
0.000664361
0.000677524
0.000664367
0.000646676
0.000659838
0.00065926
0.00064667
0.00064667
0.00065983
0.000659831
0.000646676
0.000659838
0.000664446
0.000675387
0.000677469
0.000666525
0.00067742
0.000666543
0.000664403
0.000664366
0.000677517
0.000677504
0.000664368
0.000664366
0.000677517
0.000677504
0.000664368
0.000659733
0.00065768
0.000648851
0.000646711
0.000657698
0.000659783
0.000646754
0.000659733
0.00065768
0.000648851
0.000646711
0.000657698
0.000659783
0.000646754
0.000659818
0.000646677
0.000659831
0.000646675
0.000659818
0.000646677
0.000659831
0.000646675
0.000677524
0.000664367
0.000677524
0.000664367
0.00065926
0.00064667
0.00064667
0.000659831
0.000659831
0.000646676
0.000659838
0.000646676
0.000659838
0.000642145
0.000628977
0.000642145
0.000628977
0.000642138
0.000642138
0.000629521
0.000628971
0.000628971
0.000611272
0.000624445
0.000611272
0.000624445
0.000623864
0.000611266
0.000611266
0.000624437
0.000624437
0.000628976
0.000642138
0.000642125
0.000628978
0.000629055
0.00064209
0.000640002
0.000631134
0.00064204
0.000629012
0.000631151
0.000629055
0.00064209
0.000640002
0.000631134
0.00064204
0.000629013
0.000631151
0.000624425
0.000611273
0.000624438
0.00061127
0.000624425
0.000611273
0.000624438
0.00061127
0.000624339
0.000622282
0.000611306
0.000613444
0.00062439
0.000622298
0.000611349
0.000624339
0.000622282
0.000611307
0.000613444
0.00062439
0.000622298
0.000611349
0.000642137
0.000642137
0.000629521
0.000628972
0.000628972
0.000642146
0.000628977
0.000611272
0.000624445
0.000623864
0.000611266
0.000611266
0.000624437
0.000624437
0.000611272
0.000624445
0.000629055
0.00064209
0.000640002
0.000631134
0.00064204
0.000629013
0.000631151
0.000628975
0.000642138
0.000642126
0.000628978
0.000629055
0.000640002
0.00064209
0.000631134
0.00064204
0.000631151
0.000629013
0.000624425
0.000611273
0.000624438
0.00061127
0.000624339
0.000622282
0.000611307
0.000613444
0.000624389
0.000622298
0.000611348
0.000624425
0.000611273
0.000624438
0.00061127
0.000624339
0.000622282
0.000613444
0.000611307
0.000622298
0.000624389
0.000611348
0.000628976
0.000642138
0.000642125
0.000628979
0.000629055
0.000640002
0.00064209
0.000631134
0.00064204
0.000631151
0.000629012
0.000628976
0.000642138
0.000642125
0.000628978
0.000624339
0.000622282
0.000611307
0.000613444
0.000624389
0.000622298
0.000611349
0.000624425
0.000611273
0.000624438
0.00061127
0.000624339
0.000622282
0.000613444
0.000611306
0.000622298
0.00062439
0.000611348
0.000624425
0.000611273
0.000624438
0.00061127
0.000642137
0.000642138
0.000629521
0.000628972
0.000628971
0.000642146
0.000628977
0.000611272
0.000624445
0.000623864
0.000611266
0.000611266
0.000624437
0.000624437
0.000611272
0.000624445
0.000629055
0.000640002
0.00064209
0.000631134
0.00064204
0.000631151
0.000629013
0.000628976
0.000642138
0.000642125
0.000628978
0.000628976
0.000642138
0.000642125
0.000628978
0.000624339
0.000622282
0.000613444
0.000611307
0.000622298
0.00062439
0.000611349
0.000624339
0.000622282
0.000613444
0.000611307
0.000622298
0.00062439
0.000611349
0.000624424
0.000611273
0.000624438
0.00061127
0.000624424
0.000611273
0.000624438
0.00061127
0.000642145
0.000628977
0.000642145
0.000628977
0.000623864
0.000611266
0.000611266
0.000624437
0.000624437
0.000611272
0.000624445
0.000611272
0.000624445
0.000606738
0.000593558
0.000606738
0.000593558
0.00060673
0.00060673
0.0005941
0.000593552
0.000593552
0.000575837
0.000589022
0.000575837
0.000589022
0.000588439
0.000575831
0.000575831
0.000589015
0.000589015
0.000593557
0.00060673
0.000606717
0.000593559
0.000593635
0.000606682
0.000604588
0.000595714
0.000606631
0.000593593
0.000595729
0.000593635
0.000606682
0.000604588
0.000595714
0.000606631
0.000593593
0.000595729
0.000589002
0.000575838
0.000589015
0.000575836
0.000589002
0.000575839
0.000589015
0.000575836
0.000588916
0.000586854
0.000575872
0.000578008
0.000588967
0.00058687
0.000575913
0.000588916
0.000586854
0.000575872
0.000578008
0.000588967
0.00058687
0.000575914
0.00060673
0.000606729
0.0005941
0.000593553
0.000593553
0.000606738
0.000593558
0.000575838
0.000589022
0.000588439
0.000575832
0.000575832
0.000589014
0.000589014
0.000575837
0.000589022
0.000593634
0.000606682
0.000604588
0.000595714
0.000606631
0.000593593
0.000595729
0.000593556
0.00060673
0.000606718
0.00059356
0.000593635
0.000604588
0.000606682
0.000595714
0.000606631
0.00059573
0.000593594
0.000589002
0.000575839
0.000589015
0.000575835
0.000588916
0.000586854
0.000575873
0.000578007
0.000588966
0.00058687
0.000575913
0.000589002
0.000575839
0.000589015
0.000575835
0.000588916
0.000586854
0.000578008
0.000575872
0.00058687
0.000588966
0.000575913
0.000593556
0.00060673
0.000606717
0.00059356
0.000593634
0.000604588
0.000606682
0.000595714
0.000606631
0.000595729
0.000593593
0.000593556
0.00060673
0.000606717
0.000593559
0.000588916
0.000586854
0.000575873
0.000578007
0.000588966
0.00058687
0.000575913
0.000589002
0.000575839
0.000589015
0.000575836
0.000588916
0.000586854
0.000578007
0.000575872
0.00058687
0.000588967
0.000575913
0.000589002
0.000575838
0.000589015
0.000575836
0.000606729
0.00060673
0.0005941
0.000593553
0.000593552
0.000606738
0.000593558
0.000575837
0.000589022
0.000588439
0.000575832
0.000575832
0.000589014
0.000589015
0.000575838
0.000589022
0.000593635
0.000604588
0.000606682
0.000595714
0.000606631
0.000595729
0.000593593
0.000593557
0.00060673
0.000606717
0.000593559
0.000593557
0.00060673
0.000606717
0.000593559
0.000588915
0.000586854
0.000578007
0.000575872
0.00058687
0.000588967
0.000575913
0.000588915
0.000586854
0.000578007
0.000575872
0.00058687
0.000588967
0.000575913
0.000589001
0.000575839
0.000589015
0.000575836
0.000589001
0.000575839
0.000589015
0.000575836
0.000606738
0.000593558
0.000606738
0.000593558
0.000588439
0.000575832
0.000575831
0.000589014
0.000589014
0.000575837
0.000589022
0.000575837
0.000589022
0.0005713
0.000558109
0.0005713
0.000558109
0.000571292
0.000571292
0.000558649
0.000558103
0.000558103
0.000540372
0.000553569
0.000540372
0.000553569
0.000552983
0.000540366
0.000540366
0.000553561
0.000553561
0.000558107
0.000571292
0.000571279
0.00055811
0.000558184
0.000571244
0.000569144
0.000560263
0.000571193
0.000558143
0.000560278
0.000558184
0.000571244
0.000569144
0.000560263
0.000571192
0.000558143
0.000560278
0.000553548
0.000540373
0.000553562
0.00054037
0.000553548
0.000540373
0.000553561
0.00054037
0.000553461
0.000551395
0.000540406
0.00054254
0.000553513
0.00055141
0.000540447
0.000553461
0.000551395
0.000540406
0.00054254
0.000553513
0.00055141
0.000540447
0.000571291
0.000571291
0.000558649
0.000558103
0.000558103
0.0005713