/*--------------------------------*- C++ -*----------------------------------*\
| =========                 |                                                 |
| \\      /  F ield         | OpenFOAM: The Open Source CFD Toolbox           |
|  \\    /   O peration     | Version:  v1906                                 |
|   \\  /    A nd           | Web:      www.OpenFOAM.com                      |
|    \\/     M anipulation  |                                                 |
\*---------------------------------------------------------------------------*/
FoamFile
{
    version     2.0;
    format      ascii;
    class       volVectorField;
    location    "550";
    object      U;
}
// * * * * * * * * * * * * * * * * * * * * * * * * * * * * * * * * * * * * * //

dimensions      [0 1 -1 0 0 0 0];


internalField   nonuniform List<vector> 
43024
(
(-1.02709e-05 -1.02693e-05 0.112443)
(1.13917e-05 -6.19957e-06 0.107483)
(-6.19447e-06 1.14031e-05 0.107483)
(-2.3782e-05 -2.37794e-05 0.104205)
(-1.0523e-05 -1.05202e-05 0.112408)
(1.14626e-05 -6.27189e-06 0.107476)
(-6.27001e-06 1.14733e-05 0.107475)
(-2.37192e-05 -2.37124e-05 0.10421)
(-1.07191e-05 -1.07144e-05 0.112373)
(1.14908e-05 -6.31886e-06 0.10747)
(-6.31822e-06 1.15023e-05 0.107469)
(-2.36894e-05 -2.36826e-05 0.104215)
(-1.08626e-05 -1.08571e-05 0.112338)
(1.14814e-05 -6.34047e-06 0.107464)
(-6.34189e-06 1.14923e-05 0.107463)
(-2.36887e-05 -2.36814e-05 0.104221)
(-1.09566e-05 -1.09511e-05 0.112305)
(1.14322e-05 -6.34333e-06 0.107459)
(-6.34271e-06 1.14425e-05 0.107459)
(-2.37147e-05 -2.37082e-05 0.104228)
(-1.10031e-05 -1.09983e-05 0.112271)
(1.13465e-05 -6.32046e-06 0.107455)
(-6.32072e-06 1.13563e-05 0.107455)
(-2.37673e-05 -2.37621e-05 0.104235)
(-1.10073e-05 -1.10019e-05 0.112239)
(1.12322e-05 -6.27778e-06 0.107452)
(-6.27997e-06 1.12411e-05 0.107451)
(-2.38419e-05 -2.38375e-05 0.104243)
(-1.09707e-05 -1.09643e-05 0.112207)
(1.10866e-05 -6.21583e-06 0.107449)
(-6.21941e-06 1.10948e-05 0.107448)
(-2.39498e-05 -2.39457e-05 0.104251)
(-1.08986e-05 -1.08903e-05 0.112177)
(1.0914e-05 -6.13598e-06 0.107447)
(-6.14044e-06 1.09215e-05 0.107446)
(-2.40773e-05 -2.40739e-05 0.10426)
(-1.07924e-05 -1.07837e-05 0.112147)
(1.07184e-05 -6.04125e-06 0.107445)
(-6.04598e-06 1.07257e-05 0.107444)
(-2.42261e-05 -2.42238e-05 0.104269)
(-1.0657e-05 -1.06481e-05 0.112118)
(1.05039e-05 -5.93414e-06 0.107444)
(-5.93869e-06 1.05116e-05 0.107443)
(-2.43909e-05 -2.43901e-05 0.104278)
(-1.04978e-05 -1.04891e-05 0.11209)
(1.02761e-05 -5.81966e-06 0.107443)
(-5.82322e-06 1.02831e-05 0.107443)
(-2.45779e-05 -2.45793e-05 0.104287)
(-1.03261e-05 -1.03179e-05 0.112063)
(1.00457e-05 -5.70199e-06 0.107443)
(-5.70295e-06 1.0052e-05 0.107443)
(-2.47719e-05 -2.4775e-05 0.104296)
(-1.01566e-05 -1.0149e-05 0.112038)
(9.81638e-06 -5.58018e-06 0.107444)
(-5.58154e-06 9.82114e-06 0.107443)
(-2.49683e-05 -2.49727e-05 0.104306)
(-1.00153e-05 -1.00054e-05 0.112014)
(9.60681e-06 -5.46328e-06 0.107445)
(-5.463e-06 9.61245e-06 0.107444)
(-2.51508e-05 -2.51557e-05 0.104316)
(-9.95121e-06 -9.94099e-06 0.111992)
(9.43367e-06 -5.34007e-06 0.107447)
(-5.34082e-06 9.44148e-06 0.107446)
(-2.52649e-05 -2.52695e-05 0.104325)
(-1.00868e-05 -1.00763e-05 0.111973)
(9.30703e-06 -5.16722e-06 0.10745)
(-5.16913e-06 9.3169e-06 0.107449)
(-2.51341e-05 -2.51397e-05 0.104335)
(-1.07143e-05 -1.07014e-05 0.111956)
(9.16447e-06 -4.78654e-06 0.107454)
(-4.7907e-06 9.17751e-06 0.107454)
(-2.41323e-05 -2.41422e-05 0.104348)
(-1.25073e-05 -1.24887e-05 0.111943)
(8.64763e-06 -3.58777e-06 0.107461)
(-3.60282e-06 8.66941e-06 0.10746)
(-1.99808e-05 -2.00018e-05 0.104368)
(-2.16715e-05 -2.16091e-05 0.111931)
(1.05603e-05 -2.07466e-06 0.107472)
(-2.15013e-06 1.065e-05 0.107471)
(-4.93113e-06 -4.90093e-06 0.104423)
(-2.50167e-05 -2.48663e-05 0.112035)
(0.000121502 -5.98783e-05 0.10773)
(-5.99667e-05 0.000121508 0.10773)
(4.09079e-05 4.09371e-05 0.10478)
(-4.15557e-05 -4.15621e-05 0.104319)
(-6.14626e-06 -1.13423e-05 0.107484)
(6.146e-06 -1.13397e-05 0.107483)
(4.15598e-05 -4.15559e-05 0.104319)
(-1.13622e-05 -6.17407e-06 0.107485)
(-1.13359e-05 6.1537e-06 0.107482)
(1.13619e-05 -6.17298e-06 0.107485)
(1.13416e-05 6.14953e-06 0.107483)
(-4.15471e-05 4.15744e-05 0.104319)
(-6.16779e-06 1.13735e-05 0.107485)
(6.17449e-06 1.13728e-05 0.107484)
(4.15653e-05 4.15561e-05 0.104318)
(2.37708e-05 2.37574e-05 0.104206)
(-4.14274e-05 -4.1431e-05 0.104323)
(-6.17361e-06 -1.13729e-05 0.107482)
(6.17301e-06 -1.13706e-05 0.107481)
(-6.22739e-06 -1.14192e-05 0.107476)
(6.22611e-06 -1.14176e-05 0.107475)
(-2.37745e-05 2.37386e-05 0.104205)
(4.14304e-05 -4.14245e-05 0.104323)
(-1.13926e-05 -6.20071e-06 0.107483)
(-1.13671e-05 6.18024e-06 0.10748)
(-1.14407e-05 -6.2517e-06 0.107477)
(-1.14135e-05 6.23306e-06 0.107475)
(1.13732e-05 6.17835e-06 0.107481)
(1.14398e-05 -6.24968e-06 0.107478)
(1.14189e-05 6.22923e-06 0.107475)
(2.37479e-05 -2.37881e-05 0.104205)
(-4.14127e-05 4.14398e-05 0.104322)
(6.20238e-06 1.14054e-05 0.107482)
(-6.2471e-06 1.14511e-05 0.107477)
(6.24987e-06 1.14522e-05 0.107477)
(4.14318e-05 4.14268e-05 0.104322)
(2.37127e-05 2.37016e-05 0.10421)
(-4.12929e-05 -4.12944e-05 0.104327)
(-6.25042e-06 -1.14421e-05 0.107474)
(6.24803e-06 -1.14404e-05 0.107474)
(-6.27953e-06 -1.1453e-05 0.107469)
(6.27765e-06 -1.14514e-05 0.107469)
(-2.37127e-05 2.36788e-05 0.10421)
(4.12947e-05 -4.12879e-05 0.104327)
(-1.14635e-05 -6.27507e-06 0.107476)
(-1.14375e-05 6.25616e-06 0.107473)
(-1.14755e-05 -6.30213e-06 0.107471)
(-1.14491e-05 6.28562e-06 0.107468)
(1.1442e-05 6.25209e-06 0.107474)
(1.14751e-05 -6.30006e-06 0.107471)
(1.14527e-05 6.28403e-06 0.107469)
(2.36871e-05 -2.37275e-05 0.10421)
(-4.12772e-05 4.13045e-05 0.104327)
(6.27198e-06 1.14759e-05 0.107475)
(-6.29884e-06 1.1487e-05 0.10747)
(6.30184e-06 1.14874e-05 0.10747)
(4.12946e-05 4.12901e-05 0.104326)
(2.36814e-05 2.36725e-05 0.104215)
(-4.11514e-05 -4.1151e-05 0.104332)
(-6.29897e-06 -1.14691e-05 0.107468)
(6.29612e-06 -1.14678e-05 0.107467)
(-6.30614e-06 -1.14461e-05 0.107464)
(6.30379e-06 -1.14454e-05 0.107463)
(-2.36806e-05 2.36478e-05 0.104215)
(4.1151e-05 -4.11433e-05 0.104332)
(-1.14915e-05 -6.32159e-06 0.107469)
(-1.14661e-05 6.3048e-06 0.107467)
(-1.147e-05 -6.32763e-06 0.107465)
(-1.14435e-05 6.31203e-06 0.107462)
(1.14694e-05 6.30256e-06 0.107467)
(1.14703e-05 -6.3256e-06 0.107465)
(1.14471e-05 6.31068e-06 0.107463)
(2.36562e-05 -2.36963e-05 0.104215)
(-4.11337e-05 4.11606e-05 0.104332)
(6.32009e-06 1.15042e-05 0.107469)
(-6.3255e-06 1.14818e-05 0.107465)
(6.32739e-06 1.14814e-05 0.107464)
(4.11525e-05 4.11486e-05 0.104332)
(2.36807e-05 2.36732e-05 0.104222)
(-4.09922e-05 -4.09921e-05 0.104338)
(-6.32222e-06 -1.14574e-05 0.107462)
(6.31921e-06 -1.14571e-05 0.107462)
(-6.30783e-06 -1.1401e-05 0.107458)
(6.3052e-06 -1.14001e-05 0.107458)
(-2.36783e-05 2.36467e-05 0.104221)
(4.09948e-05 -4.09861e-05 0.104338)
(-1.1481e-05 -6.34434e-06 0.107464)
(-1.14554e-05 6.32785e-06 0.107461)
(-1.14243e-05 -6.32888e-06 0.10746)
(-1.13988e-05 6.31259e-06 0.107457)
(1.14587e-05 6.32646e-06 0.107462)
(1.14254e-05 -6.32804e-06 0.10746)
(1.14023e-05 6.31263e-06 0.107458)
(2.36539e-05 -2.36942e-05 0.104221)
(-4.09779e-05 4.10037e-05 0.104338)
(6.34291e-06 1.14934e-05 0.107463)
(-6.32738e-06 1.14364e-05 0.10746)
(6.32944e-06 1.14364e-05 0.107459)
(4.09951e-05 4.09906e-05 0.104338)
(2.37084e-05 2.37003e-05 0.104228)
(-4.08303e-05 -4.08303e-05 0.104345)
(-6.32263e-06 -1.14084e-05 0.107458)
(6.31955e-06 -1.14072e-05 0.107457)
(-6.28785e-06 -1.13207e-05 0.107454)
(6.28608e-06 -1.13199e-05 0.107453)
(-2.37067e-05 2.36762e-05 0.104228)
(4.08327e-05 -4.08228e-05 0.104345)
(-1.14315e-05 -6.34474e-06 0.107459)
(-1.14063e-05 6.32726e-06 0.107456)
(-1.13445e-05 -6.30911e-06 0.107455)
(-1.13192e-05 6.29192e-06 0.107453)
(1.14098e-05 6.32698e-06 0.107457)
(1.13456e-05 -6.30828e-06 0.107456)
(1.13229e-05 6.29201e-06 0.107453)
(2.36821e-05 -2.37235e-05 0.104228)
(-4.08155e-05 4.08398e-05 0.104344)
(6.34396e-06 1.14438e-05 0.107458)
(-6.30813e-06 1.13561e-05 0.107455)
(6.30995e-06 1.13558e-05 0.107455)
(4.08332e-05 4.08275e-05 0.104344)
(2.37616e-05 2.37537e-05 0.104236)
(-4.06606e-05 -4.0658e-05 0.104352)
(-6.30031e-06 -1.13219e-05 0.107453)
(6.29783e-06 -1.13212e-05 0.107453)
(-6.24552e-06 -1.12046e-05 0.10745)
(6.24366e-06 -1.1204e-05 0.107449)
(-2.37599e-05 2.37306e-05 0.104235)
(4.0663e-05 -4.06513e-05 0.104352)
(-1.13449e-05 -6.32169e-06 0.107455)
(-1.13209e-05 6.30383e-06 0.107452)
(-1.12293e-05 -6.26506e-06 0.107452)
(-1.12042e-05 6.24854e-06 0.107449)
(1.13241e-05 6.30368e-06 0.107453)
(1.12302e-05 -6.26431e-06 0.107452)
(1.12073e-05 6.24831e-06 0.10745)
(2.37355e-05 -2.37782e-05 0.104235)
(-4.06458e-05 4.0669e-05 0.104351)
(6.32177e-06 1.1357e-05 0.107454)
(-6.26609e-06 1.12399e-05 0.107451)
(6.26673e-06 1.12394e-05 0.107451)
(4.06609e-05 4.06544e-05 0.104351)
(2.38398e-05 2.38346e-05 0.104243)
(-4.04796e-05 -4.04743e-05 0.104359)
(-6.25952e-06 -1.12067e-05 0.10745)
(6.25674e-06 -1.12061e-05 0.107449)
(-6.18074e-06 -1.1053e-05 0.107447)
(6.17855e-06 -1.10523e-05 0.107446)
(-2.38385e-05 2.38113e-05 0.104243)
(4.04847e-05 -4.04713e-05 0.104359)
(-1.12308e-05 -6.27891e-06 0.107451)
(-1.12068e-05 6.26186e-06 0.107449)
(-1.10799e-05 -6.19929e-06 0.107448)
(-1.1054e-05 6.18353e-06 0.107446)
(1.12095e-05 6.26137e-06 0.107449)
(1.10798e-05 -6.19779e-06 0.107449)
(1.10565e-05 6.18168e-06 0.107447)
(2.38141e-05 -2.38578e-05 0.104243)
(-4.04673e-05 4.04902e-05 0.104359)
(6.27963e-06 1.12418e-05 0.107451)
(-6.20117e-06 1.10887e-05 0.107448)
(6.20121e-06 1.10887e-05 0.107448)
(4.04835e-05 4.04769e-05 0.104359)
(2.39443e-05 2.39413e-05 0.104252)
(-4.02965e-05 -4.02894e-05 0.104367)
(-6.19911e-06 -1.10599e-05 0.107447)
(6.19589e-06 -1.10592e-05 0.107446)
(-6.09337e-06 -1.08687e-05 0.107444)
(6.09164e-06 -1.08683e-05 0.107444)
(-2.3942e-05 2.39166e-05 0.104251)
(4.02976e-05 -4.02829e-05 0.104367)
(-1.10862e-05 -6.21754e-06 0.107448)
(-1.10614e-05 6.20116e-06 0.107446)
(-1.08966e-05 -6.10975e-06 0.107446)
(-1.08706e-05 6.09525e-06 0.107443)
(1.10631e-05 6.19901e-06 0.107447)
(1.08966e-05 -6.10976e-06 0.107446)
(1.08724e-05 6.09376e-06 0.107444)
(2.39177e-05 -2.39617e-05 0.104251)
(-4.02802e-05 4.03027e-05 0.104367)
(6.21891e-06 1.10956e-05 0.107448)
(-6.11429e-06 1.09048e-05 0.107446)
(6.11321e-06 1.09043e-05 0.107445)
(4.02962e-05 4.02891e-05 0.104367)
(2.40701e-05 2.40684e-05 0.10426)
(-4.00988e-05 -4.00921e-05 0.104375)
(-6.1201e-06 -1.08861e-05 0.107445)
(6.11804e-06 -1.08861e-05 0.107444)
(-5.98495e-06 -1.06533e-05 0.107442)
(5.98482e-06 -1.06519e-05 0.107441)
(-2.40691e-05 2.40449e-05 0.10426)
(4.01012e-05 -4.00854e-05 0.104376)
(-1.09119e-05 -6.13627e-06 0.107446)
(-1.08884e-05 6.12148e-06 0.107444)
(-1.06822e-05 -6.00048e-06 0.107444)
(-1.06553e-05 5.98733e-06 0.107441)
(1.08896e-05 6.11955e-06 0.107444)
(1.06822e-05 -6.00027e-06 0.107444)
(1.06575e-05 5.98521e-06 0.107442)
(2.40452e-05 -2.40892e-05 0.10426)
(-4.0082e-05 4.0107e-05 0.104375)
(6.13899e-06 1.09216e-05 0.107446)
(-6.0049e-06 1.06897e-05 0.107443)
(6.00497e-06 1.06885e-05 0.107443)
(4.00998e-05 4.00913e-05 0.104375)
(2.42199e-05 2.42174e-05 0.104269)
(-3.98899e-05 -3.98842e-05 0.104384)
(-6.02533e-06 -1.06895e-05 0.107443)
(6.02443e-06 -1.06884e-05 0.107442)
(-5.85371e-06 -1.04042e-05 0.10744)
(5.85445e-06 -1.04029e-05 0.10744)
(-2.42181e-05 2.41945e-05 0.104269)
(3.98937e-05 -3.98772e-05 0.104384)
(-1.07157e-05 -6.04167e-06 0.107445)
(-1.06918e-05 6.02824e-06 0.107442)
(-1.04324e-05 -5.87005e-06 0.107442)
(-1.04056e-05 5.85777e-06 0.107439)
(1.06936e-05 6.02525e-06 0.107443)
(1.04341e-05 -5.87012e-06 0.107442)
(1.04097e-05 5.85476e-06 0.10744)
(2.41952e-05 -2.42374e-05 0.104269)
(-3.9874e-05 3.9899e-05 0.104384)
(6.04527e-06 1.07244e-05 0.107444)
(-5.87438e-06 1.04421e-05 0.107442)
(5.87589e-06 1.04393e-05 0.107441)
(3.98921e-05 3.98832e-05 0.104384)
(2.43857e-05 2.4382e-05 0.104278)
(-3.9669e-05 -3.96642e-05 0.104393)
(-5.91809e-06 -1.04742e-05 0.107442)
(5.91837e-06 -1.04732e-05 0.107441)
(-5.70014e-06 -1.01186e-05 0.107439)
(5.70232e-06 -1.01177e-05 0.107438)
(-2.43822e-05 2.43596e-05 0.104278)
(3.9674e-05 -3.9658e-05 0.104393)
(-1.04998e-05 -5.93501e-06 0.107443)
(-1.04763e-05 5.92161e-06 0.107441)
(-1.01459e-05 -5.71744e-06 0.10744)
(-1.01204e-05 5.70511e-06 0.107438)
(1.04798e-05 5.9183e-06 0.107441)
(1.01485e-05 -5.71651e-06 0.107441)
(1.01252e-05 5.70126e-06 0.107438)
(2.43599e-05 -2.44021e-05 0.104278)
(-3.96531e-05 3.96788e-05 0.104392)
(5.94009e-06 1.05096e-05 0.107443)
(-5.7208e-06 1.01559e-05 0.10744)
(5.7245e-06 1.01537e-05 0.10744)
(3.96723e-05 3.96613e-05 0.104392)
(2.45739e-05 2.45693e-05 0.104287)
(-3.94357e-05 -3.94311e-05 0.104402)
(-5.80255e-06 -1.02462e-05 0.107441)
(5.80377e-06 -1.02451e-05 0.107441)
(-5.52036e-06 -9.79417e-06 0.107438)
(5.52075e-06 -9.79169e-06 0.107437)
(-2.457e-05 2.45465e-05 0.104287)
(3.94365e-05 -3.94234e-05 0.104402)
(-1.02711e-05 -5.82034e-06 0.107443)
(-1.02489e-05 5.80622e-06 0.10744)
(-9.82108e-06 -5.53918e-06 0.107439)
(-9.79625e-06 5.52464e-06 0.107437)
(1.0253e-05 5.80348e-06 0.107441)
(9.82257e-06 -5.53871e-06 0.10744)
(9.80134e-06 5.52171e-06 0.107437)
(2.45465e-05 -2.45897e-05 0.104287)
(-3.94229e-05 3.94466e-05 0.104402)
(5.82708e-06 1.02814e-05 0.107442)
(-5.54116e-06 9.82989e-06 0.107439)
(5.54695e-06 9.82822e-06 0.107439)
(3.9439e-05 3.94268e-05 0.104401)
(2.47688e-05 2.47636e-05 0.104297)
(-3.91774e-05 -3.91737e-05 0.104411)
(-5.68309e-06 -1.00172e-05 0.107441)
(5.68041e-06 -1.00146e-05 0.107441)
(-5.31684e-06 -9.42784e-06 0.107437)
(5.31523e-06 -9.42802e-06 0.107436)
(-2.47665e-05 2.47397e-05 0.104297)
(3.91808e-05 -3.91696e-05 0.104411)
(-1.00416e-05 -5.70206e-06 0.107443)
(-1.00199e-05 5.68485e-06 0.10744)
(-9.45378e-06 -5.33598e-06 0.107438)
(-9.42847e-06 5.31847e-06 0.107435)
(1.0024e-05 5.68186e-06 0.107441)
(9.4555e-06 -5.33509e-06 0.107439)
(9.43513e-06 5.3157e-06 0.107436)
(2.47375e-05 -2.47818e-05 0.104296)
(-3.91624e-05 3.91849e-05 0.104411)
(5.70736e-06 1.00506e-05 0.107442)
(-5.33657e-06 9.46089e-06 0.107438)
(5.34215e-06 9.46034e-06 0.107438)
(3.91786e-05 3.91656e-05 0.104411)
(2.49674e-05 2.49619e-05 0.104306)
(-3.88728e-05 -3.88657e-05 0.10442)
(-5.56166e-06 -9.78853e-06 0.107442)
(5.55901e-06 -9.78966e-06 0.107441)
(-5.08976e-06 -9.01274e-06 0.107436)
(5.08867e-06 -9.01551e-06 0.107435)
(-2.49657e-05 2.49375e-05 0.104306)
(3.88751e-05 -3.88665e-05 0.104421)
(-9.81227e-06 -5.58052e-06 0.107443)
(-9.78948e-06 5.55942e-06 0.107441)
(-9.03735e-06 -5.10718e-06 0.107437)
(-9.01381e-06 5.08803e-06 0.107435)
(9.7954e-06 5.55847e-06 0.107441)
(9.04032e-06 -5.10938e-06 0.107438)
(9.01988e-06 5.08609e-06 0.107435)
(2.49413e-05 -2.49873e-05 0.104306)
(-3.88582e-05 3.88799e-05 0.10442)
(5.58521e-06 9.8205e-06 0.107443)
(-5.1093e-06 9.0457e-06 0.107437)
(5.11292e-06 9.04386e-06 0.107437)
(3.88784e-05 3.88657e-05 0.10442)
(2.51482e-05 2.51452e-05 0.104316)
(-3.8479e-05 -3.84714e-05 0.10443)
(-5.44308e-06 -9.57923e-06 0.107443)
(5.43917e-06 -9.58195e-06 0.107442)
(-4.8479e-06 -8.5401e-06 0.107435)
(4.84443e-06 -8.54351e-06 0.107434)
(-2.5147e-05 2.51163e-05 0.104316)
(3.84784e-05 -3.84732e-05 0.10443)
(-9.60202e-06 -5.45882e-06 0.107444)
(-9.58225e-06 5.43879e-06 0.107442)
(-8.56648e-06 -4.86333e-06 0.107436)
(-8.54302e-06 4.84772e-06 0.107433)
(9.58588e-06 5.43791e-06 0.107443)
(8.56594e-06 -4.86731e-06 0.107436)
(8.54743e-06 4.84434e-06 0.107434)
(2.51215e-05 -2.51668e-05 0.104316)
(-3.84659e-05 3.84861e-05 0.104429)
(5.46475e-06 9.60987e-06 0.107444)
(-4.86647e-06 8.57255e-06 0.107436)
(4.8703e-06 8.5716e-06 0.107435)
(3.84848e-05 3.84745e-05 0.104429)
(2.52582e-05 2.5255e-05 0.104326)
(-3.78612e-05 -3.78523e-05 0.104439)
(-5.32055e-06 -9.40763e-06 0.107445)
(5.31251e-06 -9.41027e-06 0.107444)
(-4.62719e-06 -8.0093e-06 0.107433)
(4.62053e-06 -8.01421e-06 0.107432)
(-2.52611e-05 2.52278e-05 0.104325)
(3.78559e-05 -3.78547e-05 0.104439)
(-9.43267e-06 -5.33495e-06 0.107447)
(-9.41292e-06 5.31756e-06 0.107444)
(-8.03834e-06 -4.64252e-06 0.107434)
(-8.01346e-06 4.6282e-06 0.107432)
(9.41474e-06 5.31622e-06 0.107445)
(8.03364e-06 -4.64527e-06 0.107435)
(8.0162e-06 4.62317e-06 0.107433)
(2.5233e-05 -2.5277e-05 0.104325)
(-3.78503e-05 3.78651e-05 0.104438)
(5.3423e-06 9.43892e-06 0.107446)
(-4.6449e-06 8.0419e-06 0.107434)
(4.64729e-06 8.0418e-06 0.107434)
(3.786e-05 3.78535e-05 0.104438)
(2.5127e-05 2.51256e-05 0.104336)
(-3.64969e-05 -3.64863e-05 0.104446)
(-5.14907e-06 -9.28198e-06 0.107448)
(5.13513e-06 -9.28401e-06 0.107448)
(-4.56859e-06 -7.47023e-06 0.107431)
(4.56008e-06 -7.47629e-06 0.10743)
(-2.5135e-05 2.51002e-05 0.104336)
(3.64883e-05 -3.64941e-05 0.104446)
(-9.30911e-06 -5.16317e-06 0.10745)
(-9.28797e-06 5.14471e-06 0.107447)
(-7.50143e-06 -4.58119e-06 0.107432)
(-7.47474e-06 4.57037e-06 0.10743)
(9.28805e-06 5.14279e-06 0.107448)
(7.49315e-06 -4.58574e-06 0.107433)
(7.47607e-06 4.56454e-06 0.107431)
(2.51056e-05 -2.51448e-05 0.104336)
(-3.64932e-05 3.64974e-05 0.104445)
(5.16769e-06 9.31381e-06 0.107449)
(-4.58468e-06 7.50366e-06 0.107432)
(4.58464e-06 7.50321e-06 0.107432)
(3.64913e-05 3.64931e-05 0.104445)
(2.41231e-05 2.4126e-05 0.104348)
(-3.26051e-05 -3.25819e-05 0.104446)
(-4.76973e-06 -9.13829e-06 0.107453)
(4.74948e-06 -9.14132e-06 0.107452)
(-5.07843e-06 -7.09165e-06 0.107428)
(5.07024e-06 -7.1012e-06 0.107427)
(-2.41344e-05 2.41023e-05 0.104348)
(3.25775e-05 -3.26033e-05 0.104447)
(-9.17271e-06 -4.78268e-06 0.107454)
(-9.14746e-06 4.76409e-06 0.107452)
(-7.12794e-06 -5.07896e-06 0.10743)
(-7.10539e-06 5.08394e-06 0.107427)
(9.14865e-06 4.76499e-06 0.107452)
(7.11194e-06 -5.09152e-06 0.10743)
(7.10026e-06 5.07327e-06 0.107428)
(2.41111e-05 -2.4138e-05 0.104348)
(-3.26039e-05 3.25888e-05 0.104446)
(4.78753e-06 9.17781e-06 0.107454)
(-5.08915e-06 7.12871e-06 0.107429)
(5.08043e-06 7.12619e-06 0.107429)
(3.25829e-05 3.25909e-05 0.104446)
(1.99752e-05 1.99894e-05 0.104368)
(-2.21922e-05 -2.22058e-05 0.104422)
(-3.57588e-06 -8.62435e-06 0.107459)
(3.54406e-06 -8.62562e-06 0.107458)
(-8.10644e-06 -9.14812e-06 0.107424)
(8.0738e-06 -9.14465e-06 0.107423)
(-1.9982e-05 1.99727e-05 0.104368)
(2.21234e-05 -2.22161e-05 0.104422)
(-8.65858e-06 -3.59153e-06 0.10746)
(-8.64229e-06 3.56896e-06 0.107458)
(-9.17056e-06 -8.05554e-06 0.107425)
(-9.18004e-06 8.10763e-06 0.107423)
(8.64164e-06 3.57672e-06 0.107459)
(9.12107e-06 -8.05187e-06 0.107426)
(9.16596e-06 8.08361e-06 0.107424)
(1.99874e-05 -1.99768e-05 0.104368)
(-2.22385e-05 2.21659e-05 0.104422)
(3.59043e-06 8.66007e-06 0.10746)
(-8.07999e-06 9.16187e-06 0.107425)
(8.05739e-06 9.14042e-06 0.107425)
(2.21946e-05 2.21633e-05 0.104422)
(4.87574e-06 4.94868e-06 0.104423)
(-4.13172e-05 -4.11751e-05 0.104382)
(-2.13618e-06 -1.05587e-05 0.10747)
(2.06314e-06 -1.05385e-05 0.107469)
(-3.76344e-05 -5.54989e-05 0.107479)
(3.76128e-05 -5.55296e-05 0.107479)
(-4.9209e-06 4.95376e-06 0.104423)
(4.12627e-05 -4.12019e-05 0.104381)
(-1.06508e-05 -2.09835e-06 0.107471)
(-1.06389e-05 2.11978e-06 0.107469)
(-5.56558e-05 -3.74809e-05 0.107481)
(-5.56173e-05 3.76341e-05 0.107479)
(1.06173e-05 2.13566e-06 0.107469)
(5.55985e-05 -3.74899e-05 0.107481)
(5.56045e-05 3.76287e-05 0.107479)
(4.9116e-06 -4.89153e-06 0.104423)
(-4.12828e-05 4.12606e-05 0.104382)
(2.11365e-06 1.0624e-05 0.107471)
(-3.7578e-05 5.56206e-05 0.107481)
(3.75747e-05 5.56191e-05 0.10748)
(4.12748e-05 4.12833e-05 0.104381)
(-4.10041e-05 -4.08337e-05 0.104781)
(-6.00598e-05 -0.000121362 0.107729)
(6.00387e-05 -0.000121413 0.107728)
(4.09477e-05 -4.08447e-05 0.10478)
(-0.000121596 -5.98886e-05 0.10773)
(-0.000121506 6.0045e-05 0.107728)
(2.49959e-05 -2.48505e-05 0.112034)
(-2.49815e-05 2.50557e-05 0.112034)
(2.49949e-05 2.50452e-05 0.112034)
(0.000121472 6.00244e-05 0.107729)
(-4.09597e-05 4.09498e-05 0.10478)
(5.99669e-05 0.000121546 0.10773)
(-2.98136e-07 -1.65713e-05 0.0914275)
(-1.24738e-06 -1.20102e-05 0.0822864)
(3.33606e-06 -5.88991e-06 0.0716037)
(-1.65976e-05 -3.05967e-07 0.091427)
(-1.20305e-05 -1.20994e-06 0.0822868)
(-1.01941e-05 -1.01917e-05 0.112452)
(1.01964e-05 -1.0186e-05 0.112452)
(-1.01832e-05 1.02058e-05 0.112451)
(1.01985e-05 1.02055e-05 0.112451)
(2.72662e-05 -6.94272e-07 0.0985811)
(1.13071e-05 -6.12334e-06 0.10749)
(2.03732e-05 -7.77341e-06 0.0930683)
(1.43979e-05 -2.60657e-06 0.109908)
(-5.83101e-06 3.3062e-06 0.0716051)
(-7.04055e-07 2.72301e-05 0.0985812)
(-6.11732e-06 1.13173e-05 0.107489)
(-2.60084e-06 1.44086e-05 0.109907)
(-7.79896e-06 2.04222e-05 0.0930681)
(4.16306e-05 4.1619e-05 0.104317)
(9.88247e-06 6.92194e-06 0.0876077)
(6.96125e-06 9.87029e-06 0.0876058)
(-2.93455e-07 -1.65118e-05 0.0914587)
(6.38477e-07 7.1676e-06 0.0822604)
(-2.45809e-07 4.97438e-06 0.0914061)
(-1.27842e-06 -1.19485e-05 0.0823197)
(-2.5298e-06 4.37547e-06 0.0715725)
(3.37968e-06 -5.83797e-06 0.0716337)
(-1.65384e-05 -2.99211e-07 0.0914582)
(7.18044e-06 5.82839e-07 0.0822596)
(5.01037e-06 -2.39462e-07 0.0914067)
(-1.19692e-05 -1.23763e-06 0.0823201)
(1.02733e-05 -1.02633e-05 0.112443)
(-1.02606e-05 1.02825e-05 0.112442)
(1.02747e-05 1.02836e-05 0.112443)
(-1.04603e-05 -1.04561e-05 0.112417)
(1.04626e-05 -1.04508e-05 0.112417)
(-1.04498e-05 1.04713e-05 0.112416)
(1.04593e-05 1.04685e-05 0.112416)
(2.72334e-05 -6.85844e-07 0.0986025)
(-8.77006e-06 3.05481e-06 0.0930329)
(1.46287e-05 -2.66142e-06 0.109894)
(1.14052e-05 -6.2123e-06 0.107481)
(-7.99359e-06 -4.44181e-07 0.0985411)
(2.03083e-05 -7.76838e-06 0.0930972)
(1.46866e-05 -2.67546e-06 0.109889)
(4.31365e-06 -2.49086e-06 0.0715699)
(-5.77732e-06 3.35213e-06 0.0716351)
(-7.01937e-07 2.71963e-05 0.0986027)
(-2.65606e-06 1.46396e-05 0.109893)
(3.08901e-06 -8.80823e-06 0.0930336)
(-6.20915e-06 1.1417e-05 0.107481)
(-4.23197e-07 -7.95638e-06 0.098541)
(-2.66938e-06 1.46985e-05 0.109889)
(-7.79178e-06 2.03558e-05 0.093097)
(-3.62319e-06 -3.45174e-06 0.0875818)
(-3.46174e-06 -3.61476e-06 0.0875805)
(4.14974e-05 4.14892e-05 0.10432)
(9.80107e-06 6.94001e-06 0.0876393)
(6.97526e-06 9.79046e-06 0.0876374)
(-2.93027e-07 -1.64411e-05 0.0914898)
(6.00994e-07 7.20737e-06 0.0822935)
(-2.46028e-07 4.98928e-06 0.0914374)
(-1.30753e-06 -1.1881e-05 0.0823526)
(-2.47883e-06 4.40188e-06 0.0716022)
(3.42332e-06 -5.7851e-06 0.0716632)
(-1.64675e-05 -2.96982e-07 0.0914894)
(7.21924e-06 5.47699e-07 0.0822927)
(5.02641e-06 -2.38635e-07 0.091438)
(-1.19008e-05 -1.2653e-06 0.082353)
(1.05259e-05 -1.05146e-05 0.112408)
(-1.05142e-05 1.05349e-05 0.112407)
(1.05214e-05 1.05333e-05 0.112407)
(-1.06677e-05 -1.0662e-05 0.112381)
(1.0669e-05 -1.06564e-05 0.112381)
(-1.06574e-05 1.06787e-05 0.11238)
(1.06675e-05 1.06782e-05 0.11238)
(2.71806e-05 -6.82599e-07 0.0986244)
(-8.81408e-06 3.04206e-06 0.0930619)
(1.4868e-05 -2.71901e-06 0.109876)
(1.14622e-05 -6.2765e-06 0.107474)
(-7.96704e-06 -4.41843e-07 0.0985631)
(2.02298e-05 -7.74977e-06 0.0931261)
(1.4904e-05 -2.72765e-06 0.109872)
(4.33929e-06 -2.44043e-06 0.0715997)
(-5.72597e-06 3.39329e-06 0.0716646)
(-7.04588e-07 2.71425e-05 0.0986246)
(-2.71457e-06 1.48787e-05 0.109875)
(3.07343e-06 -8.8527e-06 0.0930627)
(-6.27508e-06 1.14741e-05 0.107474)
(-4.23009e-07 -7.92743e-06 0.098563)
(-2.72368e-06 1.49166e-05 0.109871)
(-7.77739e-06 2.02785e-05 0.0931258)
(-3.68425e-06 -3.42111e-06 0.0876134)
(-3.43262e-06 -3.67319e-06 0.0876121)
(4.13638e-05 4.13594e-05 0.104324)
(9.71904e-06 6.94835e-06 0.0876707)
(6.98253e-06 9.70985e-06 0.0876688)
(-2.91662e-07 -1.63568e-05 0.0915209)
(5.6783e-07 7.25313e-06 0.0823262)
(-2.49094e-07 5.02396e-06 0.0914686)
(-1.33307e-06 -1.1809e-05 0.082385)
(-2.43089e-06 4.43141e-06 0.0716315)
(3.46318e-06 -5.7332e-06 0.0716922)
(-1.63848e-05 -2.93375e-07 0.0915204)
(7.26553e-06 5.15102e-07 0.0823254)
(5.05913e-06 -2.39038e-07 0.0914692)
(-1.18296e-05 -1.29003e-06 0.0823854)
(1.07209e-05 -1.07089e-05 0.112373)
(-1.07102e-05 1.07308e-05 0.112372)
(1.07175e-05 1.07309e-05 0.112372)
(-1.08216e-05 -1.08144e-05 0.112347)
(1.08228e-05 -1.08097e-05 0.112347)
(-1.08114e-05 1.08324e-05 0.112346)
(1.08202e-05 1.08322e-05 0.112346)
(2.70976e-05 -6.76973e-07 0.0986467)
(-8.87461e-06 3.04e-06 0.0930909)
(1.50358e-05 -2.76134e-06 0.109859)
(1.14759e-05 -6.31457e-06 0.107468)
(-7.97046e-06 -4.42407e-07 0.0985854)
(2.01427e-05 -7.7308e-06 0.0931549)
(1.50508e-05 -2.76715e-06 0.109855)
(4.36743e-06 -2.39517e-06 0.0716289)
(-5.6752e-06 3.43072e-06 0.0716935)
(-7.01335e-07 2.70607e-05 0.0986469)
(-2.75963e-06 1.50478e-05 0.109858)
(3.06857e-06 -8.91515e-06 0.0930916)
(-6.3143e-06 1.14887e-05 0.107467)
(-4.19733e-07 -7.93474e-06 0.0985854)
(-2.76477e-06 1.50638e-05 0.109854)
(-7.75597e-06 2.01873e-05 0.0931546)
(-3.74511e-06 -3.40842e-06 0.0876448)
(-3.41902e-06 -3.73515e-06 0.0876434)
(4.12244e-05 4.12208e-05 0.104329)
(9.63352e-06 6.94365e-06 0.0877018)
(6.98112e-06 9.62294e-06 0.0876999)
(-2.87947e-07 -1.626e-05 0.0915517)
(5.36278e-07 7.3067e-06 0.0823584)
(-2.47886e-07 5.0765e-06 0.0914997)
(-1.3565e-06 -1.17343e-05 0.082417)
(-2.38887e-06 4.46163e-06 0.0716601)
(3.4981e-06 -5.68273e-06 0.0717205)
(-1.62874e-05 -2.89437e-07 0.0915512)
(7.31829e-06 4.8287e-07 0.0823576)
(5.11166e-06 -2.36712e-07 0.0915002)
(-1.17559e-05 -1.31443e-06 0.0824173)
(1.08644e-05 -1.08523e-05 0.112338)
(-1.08539e-05 1.08743e-05 0.112337)
(1.08602e-05 1.08747e-05 0.112338)
(-1.09242e-05 -1.09166e-05 0.112313)
(1.09242e-05 -1.09123e-05 0.112313)
(-1.09135e-05 1.09334e-05 0.112312)
(1.09217e-05 1.0934e-05 0.112312)
(2.69953e-05 -6.73754e-07 0.0986691)
(-8.95035e-06 3.04507e-06 0.0931197)
(1.51382e-05 -2.79331e-06 0.109842)
(1.14526e-05 -6.3289e-06 0.107463)
(-8.00818e-06 -4.40509e-07 0.098608)
(2.00409e-05 -7.69874e-06 0.0931835)
(1.51314e-05 -2.79452e-06 0.109838)
(4.39694e-06 -2.35474e-06 0.0716575)
(-5.62555e-06 3.46403e-06 0.0717219)
(-6.94555e-07 2.6957e-05 0.0986693)
(-2.79227e-06 1.51522e-05 0.109842)
(3.07168e-06 -8.99341e-06 0.0931205)
(-6.32862e-06 1.14637e-05 0.107462)
(-4.15349e-07 -7.97252e-06 0.0986082)
(-2.79347e-06 1.51446e-05 0.109837)
(-7.73016e-06 2.00855e-05 0.0931833)
(-3.81267e-06 -3.40385e-06 0.0876757)
(-3.41094e-06 -3.80488e-06 0.0876744)
(4.10733e-05 4.10695e-05 0.104335)
(9.54405e-06 6.93571e-06 0.0877325)
(6.97652e-06 9.53146e-06 0.0877307)
(-2.8359e-07 -1.61524e-05 0.0915823)
(5.07204e-07 7.36463e-06 0.08239)
(-2.46412e-07 5.14518e-06 0.0915305)
(-1.37716e-06 -1.1658e-05 0.0824483)
(-2.35319e-06 4.49216e-06 0.071688)
(3.52723e-06 -5.6349e-06 0.0717483)
(-1.61814e-05 -2.87886e-07 0.0915818)
(7.3773e-06 4.52848e-07 0.0823891)
(5.17937e-06 -2.38678e-07 0.091531)
(-1.16802e-05 -1.33362e-06 0.0824487)
(1.0958e-05 -1.09467e-05 0.112305)
(-1.0948e-05 1.0967e-05 0.112304)
(1.09536e-05 1.0968e-05 0.112304)
(-1.09758e-05 -1.09694e-05 0.112279)
(1.09778e-05 -1.09658e-05 0.112279)
(-1.09668e-05 1.09853e-05 0.112278)
(1.09742e-05 1.0986e-05 0.112278)
(2.68683e-05 -6.61852e-07 0.0986918)
(-9.04242e-06 3.05758e-06 0.0931483)
(1.51786e-05 -2.81467e-06 0.109827)
(1.13889e-05 -6.32034e-06 0.107458)
(-8.07509e-06 -4.34156e-07 0.0986308)
(1.99301e-05 -7.66696e-06 0.093212)
(1.51474e-05 -2.81209e-06 0.109823)
(4.42661e-06 -2.32e-06 0.0716854)
(-5.57812e-06 3.4918e-06 0.0717497)
(-6.85806e-07 2.68328e-05 0.098692)
(-2.81378e-06 1.51918e-05 0.109826)
(3.08247e-06 -9.08598e-06 0.0931491)
(-6.31985e-06 1.13998e-05 0.107457)
(-4.10197e-07 -8.04015e-06 0.098631)
(-2.81097e-06 1.51606e-05 0.109822)
(-7.69958e-06 1.99738e-05 0.0932117)
(-3.88492e-06 -3.40778e-06 0.0877062)
(-3.41017e-06 -3.87928e-06 0.0877049)
(4.09135e-05 4.09086e-05 0.104341)
(9.45316e-06 6.92022e-06 0.0877628)
(6.96503e-06 9.43745e-06 0.087761)
(-2.78613e-07 -1.60354e-05 0.0916125)
(4.78812e-07 7.42882e-06 0.0824209)
(-2.44895e-07 5.22735e-06 0.0915609)
(-1.3942e-06 -1.15801e-05 0.0824791)
(-2.32188e-06 4.52263e-06 0.0717152)
(3.55142e-06 -5.58843e-06 0.0717754)
(-1.60654e-05 -2.8257e-07 0.091612)
(7.44049e-06 4.28067e-07 0.0824201)
(5.26074e-06 -2.34876e-07 0.0915614)
(-1.16048e-05 -1.34658e-06 0.0824794)
(1.10057e-05 -1.09944e-05 0.112271)
(-1.09957e-05 1.10132e-05 0.112271)
(1.10004e-05 1.10143e-05 0.112271)
(-1.09823e-05 -1.09757e-05 0.112246)
(1.0984e-05 -1.09719e-05 0.112246)
(-1.09739e-05 1.0991e-05 0.112245)
(1.09801e-05 1.09916e-05 0.112246)
(2.67214e-05 -6.51377e-07 0.0987145)
(-9.14765e-06 3.07656e-06 0.0931766)
(1.51602e-05 -2.82496e-06 0.109812)
(1.1292e-05 -6.28887e-06 0.107454)
(-8.1708e-06 -4.27305e-07 0.0986537)
(1.98089e-05 -7.62992e-06 0.0932401)
(1.51055e-05 -2.81802e-06 0.109807)
(4.45651e-06 -2.29112e-06 0.0717126)
(-5.533e-06 3.51389e-06 0.0717768)
(-6.76549e-07 2.66851e-05 0.0987147)
(-2.82401e-06 1.51727e-05 0.109811)
(3.09988e-06 -9.19189e-06 0.0931774)
(-6.28957e-06 1.13022e-05 0.107453)
(-4.04613e-07 -8.13594e-06 0.0986539)
(-2.81701e-06 1.5118e-05 0.109807)
(-7.66383e-06 1.98521e-05 0.0932399)
(-3.96113e-06 -3.41797e-06 0.0877362)
(-3.41818e-06 -3.9576e-06 0.087735)
(4.07472e-05 4.07412e-05 0.104348)
(9.35748e-06 6.90035e-06 0.0877926)
(6.94633e-06 9.34094e-06 0.0877908)
(-2.71388e-07 -1.59081e-05 0.0916423)
(4.51883e-07 7.49602e-06 0.0824511)
(-2.42334e-07 5.32424e-06 0.0915909)
(-1.406e-06 -1.15018e-05 0.0825091)
(-2.29662e-06 4.55179e-06 0.0717416)
(3.56919e-06 -5.54385e-06 0.0718018)
(-1.59363e-05 -2.75358e-07 0.0916418)
(7.50672e-06 4.041e-07 0.0824503)
(5.35746e-06 -2.3206e-07 0.0915915)
(-1.15288e-05 -1.35558e-06 0.0825094)
(1.10095e-05 -1.0998e-05 0.112239)
(-1.10005e-05 1.10166e-05 0.112238)
(1.10038e-05 1.10173e-05 0.112238)
(-1.09452e-05 -1.09374e-05 0.112214)
(1.09464e-05 -1.09338e-05 0.112214)
(-1.09367e-05 1.09527e-05 0.112213)
(1.09415e-05 1.09524e-05 0.112213)
(2.65554e-05 -6.38843e-07 0.0987371)
(-9.26607e-06 3.10285e-06 0.0932046)
(1.50863e-05 -2.82359e-06 0.109797)
(1.1159e-05 -6.23331e-06 0.10745)
(-8.29578e-06 -4.18602e-07 0.0986766)
(1.96758e-05 -7.58688e-06 0.0932679)
(1.50083e-05 -2.81254e-06 0.109793)
(4.48601e-06 -2.26774e-06 0.071739)
(-5.48835e-06 3.53112e-06 0.0718032)
(-6.64369e-07 2.65191e-05 0.0987374)
(-2.82305e-06 1.50983e-05 0.109797)
(3.12376e-06 -9.31035e-06 0.0932054)
(-6.23608e-06 1.11683e-05 0.10745)
(-3.96735e-07 -8.2608e-06 0.0986768)
(-2.81215e-06 1.50205e-05 0.109792)
(-7.62214e-06 1.97201e-05 0.0932677)