/*--------------------------------*- C++ -*----------------------------------*\
| =========                 |                                                 |
| \\      /  F ield         | OpenFOAM: The Open Source CFD Toolbox           |
|  \\    /   O peration     | Version:  v1906                                 |
|   \\  /    A nd           | Web:      www.OpenFOAM.com                      |
|    \\/     M anipulation  |                                                 |
\*---------------------------------------------------------------------------*/
FoamFile
{
    version     2.0;
    format      ascii;
    class       volScalarField;
    location    "500";
    object      k;
}
// * * * * * * * * * * * * * * * * * * * * * * * * * * * * * * * * * * * * * //

dimensions      [0 2 -2 0 0 0 0];


internalField   nonuniform List<scalar> 
42616
(
3.58932e-05
3.58914e-05
3.58914e-05
3.59957e-05
3.39293e-05
3.38879e-05
3.38878e-05
3.39601e-05
3.21569e-05
3.20048e-05
3.20049e-05
3.19453e-05
3.0533e-05
3.02236e-05
3.0224e-05
2.99779e-05
2.90305e-05
2.85464e-05
2.85464e-05
2.81102e-05
2.76322e-05
2.69783e-05
2.69767e-05
2.6377e-05
2.63268e-05
2.55212e-05
2.55186e-05
2.47928e-05
2.51065e-05
2.4174e-05
2.41719e-05
2.33631e-05
2.39656e-05
2.29385e-05
2.29374e-05
2.20892e-05
2.28998e-05
2.18135e-05
2.18134e-05
2.09703e-05
2.19055e-05
2.07968e-05
2.07974e-05
1.99969e-05
2.09794e-05
1.98855e-05
1.98863e-05
1.91641e-05
2.01165e-05
1.90774e-05
1.90783e-05
1.84699e-05
1.93155e-05
1.83693e-05
1.83701e-05
1.79094e-05
1.85755e-05
1.77579e-05
1.77587e-05
1.74782e-05
1.7894e-05
1.72416e-05
1.72423e-05
1.71683e-05
1.72686e-05
1.68195e-05
1.68202e-05
1.6986e-05
1.66971e-05
1.64907e-05
1.64913e-05
1.69377e-05
1.61784e-05
1.62551e-05
1.62558e-05
1.70317e-05
1.57099e-05
1.61128e-05
1.61137e-05
1.72548e-05
1.52901e-05
1.60634e-05
1.60645e-05
1.76085e-05
3.63061e-05
3.62907e-05
3.62907e-05
3.6306e-05
3.62907e-05
3.62907e-05
3.6423e-05
3.6423e-05
3.6423e-05
3.6423e-05
3.62907e-05
3.62907e-05
3.63061e-05
3.62907e-05
3.62907e-05
3.63061e-05
3.59958e-05
3.42669e-05
3.58914e-05
3.58914e-05
3.43756e-05
3.43757e-05
3.59957e-05
3.4267e-05
3.58914e-05
3.58914e-05
3.43756e-05
3.43755e-05
3.58914e-05
3.43758e-05
3.43756e-05
3.59958e-05
3.4267e-05
3.58914e-05
3.43757e-05
3.43755e-05
3.42669e-05
3.39602e-05
3.22575e-05
3.38876e-05
3.38876e-05
3.24655e-05
3.24639e-05
3.39601e-05
3.22567e-05
3.38876e-05
3.38875e-05
3.24653e-05
3.24654e-05
3.38876e-05
3.24658e-05
3.24654e-05
3.39603e-05
3.2258e-05
3.38875e-05
3.24658e-05
3.24653e-05
3.22573e-05
3.19457e-05
3.02901e-05
3.20045e-05
3.20023e-05
3.06593e-05
3.06561e-05
3.19447e-05
3.02888e-05
3.20043e-05
3.20044e-05
3.0659e-05
3.0659e-05
3.20043e-05
3.06594e-05
3.06586e-05
3.19462e-05
3.02905e-05
3.20042e-05
3.06598e-05
3.06587e-05
3.0289e-05
2.99791e-05
2.84141e-05
3.02236e-05
3.02204e-05
2.89558e-05
2.8953e-05
2.99776e-05
2.84128e-05
3.02232e-05
3.02231e-05
2.89555e-05
2.89548e-05
3.02227e-05
2.89556e-05
2.89545e-05
2.99793e-05
2.84131e-05
3.02228e-05
2.89559e-05
2.89548e-05
2.84129e-05
2.81114e-05
2.66617e-05
2.85466e-05
2.8544e-05
2.73599e-05
2.73578e-05
2.81101e-05
2.66605e-05
2.85463e-05
2.85454e-05
2.73598e-05
2.73583e-05
2.85453e-05
2.73599e-05
2.73586e-05
2.81099e-05
2.6658e-05
2.85457e-05
2.73588e-05
2.73591e-05
2.66609e-05
2.63782e-05
2.50537e-05
2.69782e-05
2.69763e-05
2.58748e-05
2.58732e-05
2.63782e-05
2.50518e-05
2.69781e-05
2.69765e-05
2.58748e-05
2.58729e-05
2.69769e-05
2.58752e-05
2.58735e-05
2.63752e-05
2.5049e-05
2.69774e-05
2.58727e-05
2.5874e-05
2.50525e-05
2.47939e-05
2.35993e-05
2.55207e-05
2.55192e-05
2.44999e-05
2.44985e-05
2.47953e-05
2.3597e-05
2.55208e-05
2.55188e-05
2.45001e-05
2.44979e-05
2.55194e-05
2.45004e-05
2.44985e-05
2.47915e-05
2.35976e-05
2.552e-05
2.4498e-05
2.44992e-05
2.35983e-05
2.33646e-05
2.22993e-05
2.41736e-05
2.41722e-05
2.32365e-05
2.32351e-05
2.3366e-05
2.22965e-05
2.41739e-05
2.41716e-05
2.3237e-05
2.32347e-05
2.41722e-05
2.32369e-05
2.32351e-05
2.33623e-05
2.22973e-05
2.41729e-05
2.32355e-05
2.3236e-05
2.22977e-05
2.20908e-05
2.11544e-05
2.29382e-05
2.29368e-05
2.20844e-05
2.20829e-05
2.20919e-05
2.11527e-05
2.29387e-05
2.29364e-05
2.2085e-05
2.20827e-05
2.29367e-05
2.20845e-05
2.20827e-05
2.20894e-05
2.11531e-05
2.29377e-05
2.20841e-05
2.2084e-05
2.11525e-05
2.09721e-05
2.01562e-05
2.18135e-05
2.1812e-05
2.1041e-05
2.10397e-05
2.09724e-05
2.01549e-05
2.18142e-05
2.18119e-05
2.10418e-05
2.10397e-05
2.18118e-05
2.1041e-05
2.10393e-05
2.0971e-05
2.01551e-05
2.18131e-05
2.10414e-05
2.10409e-05
2.01542e-05
1.99987e-05
1.92986e-05
2.07969e-05
2.07956e-05
2.01036e-05
2.01024e-05
1.99985e-05
1.92981e-05
2.07977e-05
2.07956e-05
2.01045e-05
2.01025e-05
2.07951e-05
2.01036e-05
2.01019e-05
1.99979e-05
1.92977e-05
2.07968e-05
2.01044e-05
2.01037e-05
1.92968e-05
1.91656e-05
1.85716e-05
1.98855e-05
1.98843e-05
1.92696e-05
1.92685e-05
1.9165e-05
1.85713e-05
1.98864e-05
1.98845e-05
1.92706e-05
1.92689e-05
1.98838e-05
1.92697e-05
1.92681e-05
1.91649e-05
1.85711e-05
1.98856e-05
1.92706e-05
1.92699e-05
1.857e-05
1.84713e-05
1.79753e-05
1.90773e-05
1.90762e-05
1.85367e-05
1.85358e-05
1.84711e-05
1.79751e-05
1.90782e-05
1.90765e-05
1.85376e-05
1.85361e-05
1.90758e-05
1.8537e-05
1.85353e-05
1.84708e-05
1.79747e-05
1.90775e-05
1.85378e-05
1.8537e-05
1.79736e-05
1.79111e-05
1.75128e-05
1.8369e-05
1.83682e-05
1.79012e-05
1.79006e-05
1.79108e-05
1.75126e-05
1.83699e-05
1.83685e-05
1.79022e-05
1.79009e-05
1.83676e-05
1.79016e-05
1.79e-05
1.79104e-05
1.75123e-05
1.83693e-05
1.79024e-05
1.79016e-05
1.7511e-05
1.74797e-05
1.71862e-05
1.77575e-05
1.77569e-05
1.73609e-05
1.73606e-05
1.74795e-05
1.71868e-05
1.77584e-05
1.77571e-05
1.73621e-05
1.73608e-05
1.77563e-05
1.73615e-05
1.73599e-05
1.74792e-05
1.71875e-05
1.77578e-05
1.73622e-05
1.73614e-05
1.71851e-05
1.71697e-05
1.69876e-05
1.72411e-05
1.72408e-05
1.69152e-05
1.6915e-05
1.71682e-05
1.69905e-05
1.72421e-05
1.72409e-05
1.69164e-05
1.69152e-05
1.72401e-05
1.69157e-05
1.69144e-05
1.71675e-05
1.69903e-05
1.72415e-05
1.69164e-05
1.69157e-05
1.6986e-05
1.69872e-05
1.69299e-05
1.68191e-05
1.68188e-05
1.65629e-05
1.65627e-05
1.69831e-05
1.6931e-05
1.682e-05
1.6819e-05
1.6564e-05
1.65629e-05
1.68182e-05
1.65633e-05
1.65622e-05
1.69831e-05
1.69309e-05
1.68195e-05
1.65639e-05
1.65633e-05
1.69287e-05
1.69388e-05
1.69958e-05
1.64905e-05
1.64902e-05
1.63039e-05
1.63037e-05
1.69393e-05
1.69979e-05
1.64913e-05
1.64904e-05
1.63049e-05
1.6304e-05
1.64896e-05
1.63042e-05
1.63032e-05
1.69392e-05
1.69981e-05
1.64907e-05
1.63048e-05
1.63043e-05
1.69943e-05
1.70327e-05
1.71896e-05
1.62551e-05
1.62548e-05
1.61382e-05
1.6138e-05
1.70306e-05
1.71954e-05
1.62558e-05
1.62551e-05
1.61391e-05
1.61384e-05
1.62543e-05
1.61382e-05
1.61375e-05
1.70315e-05
1.71962e-05
1.62553e-05
1.6139e-05
1.61384e-05
1.71904e-05
1.72557e-05
1.75139e-05
1.61131e-05
1.61128e-05
1.60655e-05
1.60654e-05
1.72517e-05
1.75274e-05
1.61137e-05
1.61132e-05
1.60662e-05
1.60658e-05
1.61123e-05
1.60652e-05
1.60648e-05
1.72525e-05
1.75273e-05
1.61132e-05
1.60662e-05
1.60655e-05
1.75139e-05
1.76092e-05
1.60638e-05
1.60638e-05
1.76004e-05
1.60645e-05
1.60642e-05
1.60631e-05
1.7601e-05
1.60638e-05
3.73774e-05
3.73766e-05
3.7377e-05
3.7377e-05
3.73703e-05
3.73777e-05
3.73046e-05
3.73768e-05
3.73703e-05
3.73777e-05
3.73769e-05
3.7305e-05
3.73741e-05
3.72967e-05
3.72962e-05
3.58681e-05
4.06682e-05
3.65968e-05
4.50438e-05
5.51304e-05
6.50454e-05
3.5859e-05
4.06496e-05
3.65927e-05
4.50454e-05
3.58933e-05
3.58933e-05
3.58933e-05
3.44001e-05
3.44002e-05
3.44002e-05
3.44002e-05
3.52717e-05
3.56064e-05
3.58931e-05
3.53767e-05
3.60487e-05
3.4188e-05
3.53821e-05
5.51279e-05
6.50469e-05
3.52726e-05
3.58931e-05
3.56094e-05
3.53767e-05
3.60488e-05
3.53822e-05
3.4191e-05
3.66011e-05
3.65868e-05
3.52786e-05
3.40357e-05
3.40263e-05
3.39423e-05
5.12825e-05
3.46731e-05
5.45966e-05
7.66367e-05
8.09366e-05
3.39363e-05
5.12802e-05
3.46646e-05
5.4593e-05
3.39293e-05
3.39293e-05
3.39293e-05
3.25848e-05
3.25847e-05
3.25848e-05
3.25848e-05
3.30462e-05
3.24453e-05
3.39292e-05
3.34071e-05
3.38927e-05
3.15381e-05
3.34674e-05
7.66332e-05
8.0938e-05
3.3042e-05
3.39291e-05
3.24445e-05
3.34071e-05
3.38898e-05
3.34673e-05
3.15401e-05
3.16616e-05
3.16593e-05
3.32598e-05
3.08429e-05
3.08443e-05
3.22313e-05
5.91476e-05
3.2913e-05
6.14468e-05
8.44049e-05
8.50713e-05
3.22238e-05
5.91455e-05
3.29034e-05
6.14464e-05
3.21568e-05
3.2157e-05
3.21569e-05
3.09267e-05
3.09264e-05
3.09268e-05
3.09267e-05
3.07765e-05
3.04882e-05
3.21365e-05
3.15501e-05
3.16295e-05
2.98616e-05
3.17088e-05
8.44089e-05
8.50768e-05
3.07713e-05
3.21362e-05
3.0492e-05
3.15503e-05
3.16237e-05
3.17084e-05
2.98658e-05
3.01572e-05
3.01663e-05
3.12647e-05
2.99401e-05
2.99522e-05
3.07383e-05
6.43432e-05
3.13369e-05
6.57395e-05
8.46014e-05
8.39122e-05
3.07343e-05
6.43429e-05
3.13286e-05
6.57406e-05
3.05326e-05
3.05331e-05
3.05329e-05
2.93958e-05
2.93954e-05
2.93958e-05
2.93956e-05
2.85838e-05
2.91175e-05
3.04671e-05
2.97943e-05
2.94021e-05
2.86583e-05
3.0066e-05
8.46069e-05
8.39115e-05
2.85801e-05
3.04667e-05
2.91267e-05
2.97947e-05
2.93979e-05
3.00656e-05
2.86537e-05
2.99077e-05
2.99202e-05
2.93369e-05
3.00202e-05
3.00318e-05
2.94985e-05
6.73108e-05
2.99878e-05
6.80397e-05
8.21891e-05
8.12231e-05
2.9502e-05
6.73107e-05
2.99827e-05
6.80415e-05
2.90301e-05
2.90304e-05
2.90302e-05
2.79727e-05
2.79723e-05
2.79724e-05
2.79723e-05
2.65493e-05
2.81009e-05
2.8899e-05
2.8144e-05
2.73078e-05
2.77678e-05
2.85217e-05
8.21877e-05
8.12248e-05
2.65473e-05
2.88986e-05
2.80999e-05
2.81437e-05
2.73047e-05
2.85212e-05
2.77512e-05
3.0457e-05
3.04584e-05
2.75202e-05
3.07849e-05
3.07928e-05
2.85799e-05
6.8732e-05
2.89319e-05
6.90294e-05
7.94175e-05
7.85417e-05
2.8591e-05
6.87343e-05
2.8929e-05
6.90323e-05
2.76318e-05
2.76318e-05
2.76318e-05
2.66449e-05
2.66446e-05
2.66442e-05
2.66445e-05
2.47226e-05
2.73784e-05
2.74239e-05
2.66036e-05
2.54058e-05
2.71733e-05
2.70692e-05
7.94153e-05
7.85424e-05
2.4723e-05
2.74234e-05
2.73638e-05
2.66017e-05
2.5405e-05
2.70685e-05
2.71566e-05
3.16183e-05
3.16218e-05
2.58379e-05
3.21257e-05
3.21287e-05
2.80332e-05
6.92406e-05
2.82262e-05
6.92967e-05
7.69964e-05
7.62997e-05
2.8043e-05
6.92439e-05
2.82228e-05
6.93e-05
2.63265e-05
2.63261e-05
2.63264e-05
2.54039e-05
2.54037e-05
2.5403e-05
2.54034e-05
2.31411e-05
2.69716e-05
2.60386e-05
2.5174e-05
2.3738e-05
2.68959e-05
2.57062e-05
7.69937e-05
7.62984e-05
2.31431e-05
2.60379e-05
2.69594e-05
2.51714e-05
2.37391e-05
2.57054e-05
2.68878e-05
3.32725e-05
3.32722e-05
2.4306e-05
3.39089e-05
3.39155e-05
2.78953e-05
6.92803e-05
2.79072e-05
6.92499e-05
7.50741e-05
7.45439e-05
2.78968e-05
6.92846e-05
2.79098e-05
6.92545e-05
2.51063e-05
2.51056e-05
2.5106e-05
2.42436e-05
2.42433e-05
2.42427e-05
2.4243e-05
2.18247e-05
2.69156e-05
2.4742e-05
2.38547e-05
2.23281e-05
2.69634e-05
2.44316e-05
7.50731e-05
7.454e-05
2.18285e-05
2.47415e-05
2.69094e-05
2.38527e-05
2.2331e-05
2.44311e-05
2.69587e-05
3.52854e-05
3.52871e-05
2.29282e-05
3.60118e-05
3.60228e-05
2.81439e-05
6.91762e-05
2.80258e-05
6.91418e-05
7.36139e-05
7.3223e-05
2.81529e-05
6.91817e-05
2.80171e-05
6.91466e-05
2.39653e-05
2.39647e-05
2.3965e-05
2.31594e-05
2.3159e-05
2.31586e-05
2.31587e-05
2.07828e-05
2.71776e-05
2.35331e-05
2.2647e-05
2.11843e-05
2.73464e-05
2.32441e-05
7.36139e-05
7.32193e-05
2.07885e-05
2.35331e-05
2.71867e-05
2.2646e-05
2.11891e-05
2.32441e-05
2.73319e-05
3.75313e-05
3.75403e-05
2.17062e-05
3.83142e-05
3.83307e-05
2.88149e-05
6.90946e-05
2.85576e-05
6.90862e-05
7.2536e-05
7.22559e-05
2.88234e-05
6.90995e-05
2.85469e-05
6.90912e-05
2.28994e-05
2.28991e-05
2.28991e-05
2.21475e-05
2.2147e-05
2.21469e-05
2.21468e-05
2.00115e-05
2.77599e-05
2.24082e-05
2.15493e-05
2.03036e-05
2.80347e-05
2.21401e-05
7.25393e-05
7.22512e-05
2.00174e-05
2.24088e-05
2.77769e-05
2.15493e-05
2.03101e-05
2.21407e-05
2.80189e-05
3.99172e-05
3.99263e-05
2.06355e-05
4.07229e-05
4.07359e-05
2.98956e-05
6.90857e-05
2.95007e-05
6.91037e-05
7.17591e-05
7.15639e-05
2.99021e-05
6.90912e-05
2.949e-05
6.91082e-05
2.1905e-05
2.19049e-05
2.19048e-05
2.12046e-05
2.1204e-05
2.12041e-05
2.12038e-05
1.95042e-05
2.86329e-05
2.13671e-05
2.05592e-05
1.96888e-05
2.89924e-05
2.11199e-05
7.17653e-05
7.15647e-05
1.9512e-05
2.13682e-05
2.86503e-05
2.05598e-05
1.96924e-05
2.1121e-05
2.89813e-05
4.23451e-05
4.23558e-05
1.97085e-05
4.31459e-05
4.31538e-05
3.1385e-05
6.91378e-05
3.08544e-05
6.91813e-05
7.12114e-05
7.10784e-05
3.13881e-05
6.91473e-05
3.08443e-05
6.91833e-05
2.09788e-05
2.0979e-05
2.09787e-05
2.03265e-05
2.03259e-05
2.03262e-05
2.03258e-05
1.92625e-05
2.97647e-05
2.04094e-05
1.96737e-05
1.93339e-05
3.01978e-05
2.01826e-05
7.12144e-05
7.10727e-05
1.92659e-05
2.04107e-05
2.97752e-05
1.96746e-05
1.9338e-05
2.01838e-05
3.01825e-05
4.47244e-05
4.47327e-05
1.89171e-05
4.54922e-05
4.54995e-05
3.32424e-05
6.92378e-05
3.25921e-05
6.929e-05
7.08285e-05
7.07396e-05
3.32491e-05
6.92471e-05
3.2584e-05
6.92923e-05
2.01159e-05
2.01161e-05
2.01158e-05
1.95098e-05
1.95093e-05
1.95096e-05
1.95091e-05
1.9281e-05
3.11043e-05
1.9532e-05
1.88911e-05
1.92496e-05
3.15936e-05
1.93249e-05
7.08347e-05
7.07327e-05
1.92832e-05
1.95333e-05
3.1113e-05
1.88919e-05
1.9252e-05
1.9326e-05
3.15838e-05
4.69825e-05
4.69911e-05
1.82555e-05
4.76991e-05
4.77063e-05
3.5435e-05
6.93529e-05
3.46723e-05
6.94049e-05
7.0559e-05
7.05003e-05
3.54364e-05
6.93621e-05
3.46708e-05
6.94079e-05
1.9315e-05
1.93153e-05
1.93148e-05
1.87548e-05
1.87544e-05
1.87547e-05
1.87542e-05
1.955e-05
3.26044e-05
1.8732e-05
1.82074e-05
1.94291e-05
3.31424e-05
1.85437e-05
7.05649e-05
7.04927e-05
1.95515e-05
1.87331e-05
3.26198e-05
1.82082e-05
1.94296e-05
1.85447e-05
3.31379e-05
4.90693e-05
4.90798e-05
1.77254e-05
4.97207e-05
4.97296e-05
3.78605e-05
6.9465e-05
3.70311e-05
6.95129e-05
7.03638e-05
7.0323e-05
3.78672e-05
6.94743e-05
3.70308e-05
6.95165e-05
1.85751e-05
1.85754e-05
1.85749e-05
1.80589e-05
1.80585e-05
1.80588e-05
1.80583e-05
2.00734e-05
3.42294e-05
1.80065e-05
1.76197e-05
1.98663e-05
3.47869e-05
1.78365e-05
7.03695e-05
7.03168e-05
2.00714e-05
1.80075e-05
3.42415e-05
1.76205e-05
1.9869e-05
1.78374e-05
3.47888e-05
5.09569e-05
5.0968e-05
1.73318e-05
5.15364e-05
5.15486e-05
4.04379e-05
6.95672e-05
3.95708e-05
6.96107e-05
7.02167e-05
7.01815e-05
4.04505e-05
6.95766e-05
3.95683e-05
6.96145e-05
1.78937e-05
1.78939e-05
1.78934e-05
1.74196e-05
1.74194e-05
1.74195e-05
1.74191e-05
2.08419e-05
3.59121e-05
1.73533e-05
1.71269e-05
2.0555e-05
3.6488e-05
1.72011e-05
7.02192e-05
7.01792e-05
2.08437e-05
1.73541e-05
3.59279e-05
1.71276e-05
2.05548e-05
1.72018e-05
3.64841e-05
5.26328e-05
5.26443e-05
1.70705e-05
5.31434e-05
5.31553e-05
4.30558e-05
6.96599e-05
4.21705e-05
6.96997e-05
7.00955e-05
7.00641e-05
4.30761e-05
6.96692e-05
4.21592e-05
6.97039e-05
1.72683e-05
1.72685e-05
1.7268e-05
1.68348e-05
1.68347e-05
1.68348e-05
1.68344e-05
2.18457e-05
3.76145e-05
1.67715e-05
1.67279e-05
2.1481e-05
3.81859e-05
1.66368e-05
7.00957e-05
7.00631e-05
2.18467e-05
1.67722e-05
3.76276e-05
1.67286e-05
2.14823e-05
1.66375e-05
3.81805e-05
5.41027e-05
5.41153e-05
1.69395e-05
5.45493e-05
5.45608e-05
4.55955e-05
6.97452e-05
4.47218e-05
6.97825e-05
6.99885e-05
6.996e-05
4.56135e-05
6.97546e-05
4.47149e-05
6.9787e-05
1.6697e-05
1.66971e-05
1.66967e-05
1.6303e-05
1.63029e-05
1.6303e-05
1.63026e-05
2.30641e-05
3.92905e-05
1.62589e-05
1.64221e-05
2.2631e-05
3.98449e-05
1.61411e-05
6.99883e-05
6.99596e-05
2.30644e-05
1.62595e-05
3.9304e-05
1.64227e-05
2.26316e-05
1.61417e-05
3.984e-05
5.53851e-05
5.53964e-05
1.69456e-05
5.57728e-05
5.57823e-05
4.79577e-05
6.98253e-05
4.71378e-05
6.98605e-05
6.98909e-05
6.98648e-05
4.79732e-05
6.98346e-05
4.71327e-05
6.98652e-05
1.61783e-05
1.61784e-05
1.6178e-05
1.58222e-05
1.58221e-05
1.58222e-05
1.58219e-05
2.44649e-05
4.09082e-05
1.58139e-05
1.62095e-05
2.39766e-05
4.14314e-05
1.5713e-05
6.98904e-05
6.98644e-05
2.44663e-05
1.58145e-05
4.09183e-05
1.62103e-05
2.39775e-05
1.57136e-05
4.14326e-05
5.64983e-05
5.65097e-05
1.70749e-05
5.68354e-05
5.68455e-05
5.00797e-05
6.99009e-05
4.93407e-05
6.99341e-05
6.98003e-05
6.97763e-05
5.00931e-05
6.99102e-05
4.93364e-05
6.99389e-05
1.57098e-05
1.57099e-05
1.57096e-05
1.53904e-05
1.53903e-05
1.53904e-05
1.53902e-05
2.60105e-05
4.24434e-05
1.54363e-05
1.60901e-05
2.54803e-05
4.29282e-05
1.53522e-05
6.97997e-05
6.97758e-05
2.60128e-05
1.54369e-05
4.24495e-05
1.6091e-05
2.5483e-05
1.53527e-05
4.2932e-05
5.74668e-05
5.74782e-05
1.73346e-05
5.77601e-05
5.77702e-05
5.19309e-05
6.99717e-05
5.12838e-05
7.00031e-05
6.97155e-05
6.96933e-05
6.99807e-05
5.12809e-05
7.00075e-05
1.529e-05
1.52901e-05
1.52898e-05
2.76502e-05
4.38735e-05
1.51259e-05
1.60658e-05
2.71017e-05
4.43326e-05
1.50583e-05
6.9715e-05
2.76521e-05
1.51264e-05
4.38833e-05
2.71044e-05
1.50588e-05
5.83114e-05
5.83234e-05
1.77232e-05
5.85688e-05
5.85801e-05
3.73742e-05
3.72962e-05
3.72965e-05
5.31158e-05
3.71922e-05
5.31251e-05
3.71925e-05
3.70929e-05
3.72304e-05
3.72478e-05
3.71771e-05
3.71756e-05
3.73702e-05
3.73777e-05
3.73042e-05
3.73768e-05
3.73703e-05
3.73777e-05
3.73033e-05
3.73768e-05
3.71728e-05
3.91972e-05
3.71619e-05
3.67344e-05
3.7173e-05
3.92778e-05
3.71649e-05
3.67328e-05
3.70958e-05
3.71021e-05
3.59903e-05
3.64209e-05
3.71664e-05
3.71108e-05
3.63049e-05
3.70956e-05
3.71021e-05
3.59978e-05
3.64209e-05
3.71669e-05
3.71108e-05
3.63047e-05
3.73742e-05
3.72961e-05
3.72966e-05
5.31254e-05
3.71926e-05
3.70928e-05
3.72222e-05
3.7176e-05
3.71768e-05
3.71753e-05
5.30896e-05
3.7192e-05
3.73703e-05
3.73777e-05
3.73051e-05
3.73769e-05
3.73703e-05
3.73777e-05
3.73768e-05
3.73051e-05
3.71728e-05
3.92648e-05
3.71547e-05
3.6732e-05
3.70957e-05
3.71021e-05
3.59959e-05
3.64209e-05
3.71644e-05
3.71108e-05
3.63048e-05
3.71729e-05
3.92733e-05
3.71549e-05
3.67324e-05
3.70957e-05
3.71021e-05
3.64209e-05
3.59959e-05
3.71108e-05
3.71644e-05
3.63047e-05
3.73774e-05
3.73766e-05
3.7377e-05
3.7377e-05
3.73774e-05
3.73766e-05
3.7377e-05
3.7377e-05
3.73774e-05
3.73766e-05
3.7377e-05
3.7377e-05
3.71133e-05
3.71098e-05
3.64241e-05
3.64241e-05
3.71125e-05
3.71125e-05
3.64261e-05
3.71133e-05
3.71098e-05
3.64241e-05
3.64241e-05
3.71125e-05
3.71125e-05
3.64261e-05
3.71133e-05
3.71098e-05
3.64241e-05
3.64241e-05
3.71125e-05
3.71125e-05
3.64261e-05
3.71133e-05
3.71098e-05
3.64241e-05
3.64241e-05
3.71125e-05
3.71125e-05
3.64261e-05
3.73703e-05
3.73777e-05
3.73768e-05
3.73044e-05
3.70957e-05
3.71021e-05
3.59845e-05
3.64209e-05
3.71658e-05
3.71108e-05
3.63053e-05
3.71728e-05
3.91985e-05
3.71618e-05
3.67346e-05
3.70957e-05
3.71021e-05
3.64209e-05
3.59949e-05
3.71108e-05
3.71661e-05
3.63052e-05
3.7173e-05
3.92022e-05
3.7162e-05
3.67347e-05
3.73741e-05
3.72967e-05
3.72967e-05
5.31229e-05
3.71925e-05
3.70929e-05
3.72374e-05
3.72428e-05
3.71763e-05
3.71763e-05
5.31255e-05
3.71927e-05
3.73703e-05
3.73777e-05
3.73769e-05
3.73042e-05
3.70957e-05
3.71021e-05
3.64209e-05
3.59935e-05
3.71108e-05
3.71645e-05
3.63053e-05
3.70956e-05
3.71021e-05
3.64209e-05
3.59941e-05
3.71108e-05
3.71662e-05
3.63053e-05
3.71729e-05
3.92777e-05
3.71541e-05
3.67352e-05
3.7173e-05
3.91997e-05
3.71619e-05
3.67352e-05
3.70929e-05
3.72442e-05
3.72267e-05
3.71768e-05
3.71765e-05
5.31242e-05
3.71927e-05
5.31341e-05
3.71925e-05
5.51132e-05
6.5045e-05
5.5135e-05
6.50568e-05
3.65871e-05
3.66051e-05
3.52786e-05
3.40062e-05
3.4028e-05
7.48579e-05
6.78072e-05
7.48611e-05
6.78172e-05
3.49724e-05
3.19513e-05
3.19487e-05
3.34227e-05
3.34432e-05
3.58629e-05
4.06945e-05
3.65888e-05
4.5076e-05
3.52725e-05
3.5602e-05
3.58931e-05
3.53766e-05
3.6049e-05
3.41801e-05
3.53821e-05
3.52717e-05
3.56143e-05
3.58931e-05
3.53766e-05
3.60482e-05
3.41953e-05
3.53821e-05
3.56328e-05
5.01512e-05
4.63506e-05
3.48807e-05
3.56262e-05
5.01783e-05
4.6388e-05
3.48718e-05
3.49974e-05
3.48716e-05
3.26817e-05
3.44015e-05
3.38227e-05
3.48855e-05
3.41738e-05
3.49958e-05
3.48717e-05
3.26976e-05
3.44015e-05
3.38422e-05
3.48854e-05
3.4171e-05
3.65809e-05
3.65521e-05
3.52785e-05
3.40099e-05
3.40157e-05
5.50939e-05
6.50504e-05
7.48532e-05
6.77881e-05
3.49723e-05
3.19573e-05
3.19573e-05
3.34242e-05
3.34359e-05
7.48614e-05
6.78112e-05
3.527e-05
3.56054e-05
3.58931e-05
3.53766e-05
3.60481e-05
3.41825e-05
3.53821e-05
3.58594e-05
4.06512e-05
3.6588e-05
4.50417e-05
3.52703e-05
3.58931e-05
3.56046e-05
3.53766e-05
3.60482e-05
3.53821e-05
3.4182e-05
3.56222e-05
5.01491e-05
4.63457e-05
3.48722e-05
3.49944e-05
3.48716e-05
3.26812e-05
3.44014e-05
3.38239e-05
3.48854e-05
3.41709e-05
3.56228e-05
5.01527e-05
4.63513e-05
3.48714e-05
3.49946e-05
3.48716e-05
3.44014e-05
3.26827e-05
3.48854e-05
3.38243e-05
3.41707e-05
3.58635e-05
4.0658e-05
3.6591e-05
4.5039e-05
3.52722e-05
3.58931e-05
3.56049e-05
3.53767e-05
3.60489e-05
3.53822e-05
3.41816e-05
3.58667e-05
4.06732e-05
3.65909e-05
4.50412e-05
3.49968e-05
3.48717e-05
3.26912e-05
3.44015e-05
3.38316e-05
3.48855e-05
3.41743e-05
3.56298e-05
5.01535e-05
4.63501e-05
3.48809e-05
3.49973e-05
3.48717e-05
3.44015e-05
3.2679e-05
3.48855e-05
3.38202e-05
3.41743e-05
3.56318e-05
5.01548e-05
4.63557e-05
3.48814e-05
3.65984e-05
3.65978e-05
3.52786e-05
3.40259e-05
3.40335e-05
5.51322e-05
6.50499e-05
7.48532e-05
6.77849e-05
3.49724e-05
3.19587e-05
3.19676e-05
3.34415e-05
3.34402e-05
7.48566e-05
6.78129e-05
3.52726e-05
3.58931e-05
3.56032e-05
3.53766e-05
3.60488e-05
3.53822e-05
3.41795e-05
3.58678e-05
4.06558e-05
3.65909e-05
4.50425e-05
3.58677e-05
4.06609e-05
3.65905e-05
4.50406e-05
3.49968e-05
3.48717e-05
3.44015e-05
3.26927e-05
3.48855e-05
3.38308e-05
3.41726e-05
3.49973e-05
3.48716e-05
3.44015e-05
3.2678e-05
3.48855e-05
3.38183e-05
3.4174e-05
3.56294e-05
5.01533e-05
4.63514e-05
3.48761e-05
3.56308e-05
5.01545e-05
4.63535e-05
3.48804e-05
5.51144e-05
6.50504e-05
5.51254e-05
6.50566e-05
3.49723e-05
3.19683e-05
3.19652e-05
3.34467e-05
3.34393e-05
7.48584e-05
6.78131e-05
7.48605e-05
6.78187e-05
7.66382e-05
8.09387e-05
7.6642e-05
8.09417e-05
3.16515e-05
3.1642e-05
3.32599e-05
3.08381e-05
3.08184e-05
8.40405e-05
8.18962e-05
8.40436e-05
8.18986e-05
3.29502e-05
3.02397e-05
3.02224e-05
3.06868e-05
3.06631e-05
3.39296e-05
5.1303e-05
3.4664e-05
5.46045e-05
3.30441e-05
3.24351e-05
3.39292e-05
3.34069e-05
3.38921e-05
3.15299e-05
3.34674e-05
3.30384e-05
3.24371e-05
3.39291e-05
3.34066e-05
3.38889e-05
3.15091e-05
3.34671e-05
3.37692e-05
5.83627e-05
5.55571e-05
3.30593e-05
3.37563e-05
5.83615e-05
5.55633e-05
3.30471e-05
3.27621e-05
3.2933e-05
3.06139e-05
3.25717e-05
3.13565e-05
3.30151e-05
3.19065e-05
3.2756e-05
3.29321e-05
3.05767e-05
3.25709e-05
3.13317e-05
3.30147e-05
3.18996e-05
3.1652e-05
3.16595e-05
3.32596e-05
3.08407e-05
3.0834e-05
7.66399e-05
8.09417e-05
8.40382e-05
8.18961e-05
3.29498e-05
3.02391e-05
3.02324e-05
3.06841e-05
3.06866e-05
8.40439e-05
8.18983e-05
3.30414e-05
3.24331e-05
3.3929e-05
3.34068e-05
3.38885e-05
3.15259e-05
3.34672e-05
3.39351e-05
5.12829e-05
3.46623e-05
5.45981e-05
3.30412e-05
3.3929e-05
3.24364e-05
3.34068e-05
3.38883e-05
3.34672e-05
3.15298e-05
3.37594e-05
5.83595e-05
5.55534e-05
3.30529e-05
3.27588e-05
3.29328e-05
3.0608e-05
3.25714e-05
3.1351e-05
3.30149e-05
3.19035e-05
3.3759e-05
5.83646e-05
5.55562e-05
3.3055e-05
3.27591e-05
3.29329e-05
3.25715e-05
3.06128e-05
3.30149e-05
3.1357e-05
3.19046e-05
3.39456e-05
5.12825e-05
3.4673e-05
5.4598e-05
3.30452e-05
3.39292e-05
3.24308e-05
3.34068e-05
3.38925e-05
3.34674e-05
3.15251e-05
3.3943e-05
5.12866e-05
3.4674e-05
5.45996e-05
3.27638e-05
3.29332e-05
3.06201e-05
3.25718e-05
3.13651e-05
3.30153e-05
3.19082e-05
3.37703e-05
5.8364e-05
5.55564e-05
3.30601e-05
3.27629e-05
3.29329e-05
3.25717e-05
3.06061e-05
3.30152e-05
3.13503e-05
3.19069e-05
3.37684e-05
5.83665e-05
5.55598e-05
3.30583e-05
3.16601e-05
3.16592e-05
3.32601e-05
3.08382e-05
3.08491e-05
7.66384e-05
8.09367e-05
8.40428e-05
8.1895e-05
3.29505e-05
3.0237e-05
3.02517e-05
3.06886e-05
3.06949e-05
8.40406e-05
8.18961e-05
3.30447e-05
3.39292e-05
3.24291e-05
3.34067e-05
3.38919e-05
3.34674e-05
3.1524e-05
3.39367e-05
5.1284e-05
3.46668e-05
5.45984e-05
3.39428e-05
5.12841e-05
3.46715e-05
5.45989e-05
3.2759e-05
3.29332e-05
3.25715e-05
3.0623e-05
3.3015e-05
3.13654e-05
3.19027e-05
3.27615e-05
3.29328e-05
3.25717e-05
3.06058e-05
3.30151e-05
3.13491e-05
3.1905e-05
3.37583e-05
5.83647e-05
5.55577e-05
3.30504e-05
3.37642e-05
5.83658e-05
5.55584e-05
3.30556e-05
7.66416e-05
8.0941e-05
7.66433e-05
8.09414e-05
3.29501e-05
3.02324e-05
3.02386e-05
3.06856e-05
3.0687e-05
8.40444e-05
8.19003e-05
8.40438e-05
8.19009e-05
8.44076e-05
8.50748e-05
8.44097e-05
8.50764e-05
3.01735e-05
3.01536e-05
3.12654e-05
2.99571e-05
2.99437e-05
8.4829e-05
8.50737e-05
8.48336e-05
8.50746e-05
3.0953e-05
2.99081e-05
2.98963e-05
2.99401e-05
2.99254e-05
3.22209e-05
5.91437e-05
3.29e-05
6.14407e-05
3.07766e-05
3.04826e-05
3.21364e-05
3.15499e-05
3.1628e-05
2.98584e-05
3.17086e-05
3.07702e-05
3.04445e-05
3.21354e-05
3.15471e-05
3.16206e-05
2.98238e-05
3.17074e-05
3.21002e-05
6.38838e-05
6.20621e-05
3.14567e-05
3.2091e-05
6.38769e-05
6.20536e-05
3.14489e-05
3.05052e-05
3.11015e-05
2.92153e-05
3.08743e-05
2.97472e-05
3.12881e-05
2.96668e-05
3.04991e-05
3.10984e-05
2.91885e-05
3.0873e-05
2.9715e-05
3.12868e-05
2.9662e-05
3.0168e-05
3.01671e-05
3.12642e-05
2.99537e-05
2.99476e-05
8.44098e-05
8.50768e-05
8.48287e-05
8.50696e-05
3.09516e-05
2.99034e-05
2.98981e-05
2.99344e-05
2.99307e-05
8.4834e-05
8.50754e-05
3.07734e-05
3.04767e-05
3.21361e-05
3.15496e-05
3.16246e-05
2.98515e-05
3.17083e-05
3.22275e-05
5.91473e-05
3.29055e-05
6.14487e-05
3.07752e-05
3.21362e-05
3.04812e-05
3.15498e-05
3.16259e-05
3.17085e-05
2.98555e-05
3.20927e-05
6.3885e-05
6.20612e-05
3.14519e-05
3.05017e-05
3.11012e-05
2.92076e-05
3.0874e-05
2.97434e-05
3.12878e-05
2.96639e-05
3.20962e-05
6.38853e-05
6.20614e-05
3.14536e-05
3.05035e-05
3.11013e-05
3.08742e-05
2.92085e-05
3.1288e-05
2.97433e-05
2.96651e-05
3.22284e-05
5.91465e-05
3.29134e-05
6.14486e-05
3.07762e-05
3.21364e-05
3.04739e-05
3.15495e-05
3.16284e-05
3.17086e-05
2.98464e-05
3.22288e-05
5.91504e-05
3.29115e-05
6.1451e-05
3.05045e-05
3.11017e-05
2.92159e-05
3.08744e-05
2.975e-05
3.12882e-05
2.96646e-05
3.20965e-05
6.38869e-05
6.20609e-05
3.14522e-05
3.05044e-05
3.1101e-05
3.08743e-05
2.92006e-05
3.1288e-05
2.97378e-05
2.96654e-05
3.20982e-05
6.38882e-05
6.20647e-05
3.14536e-05
3.01692e-05
3.01833e-05
3.12659e-05
2.99486e-05
2.99698e-05
8.44082e-05
8.50759e-05
8.48299e-05
8.50753e-05
3.09535e-05
2.98975e-05
2.99171e-05
2.99312e-05
2.99502e-05
8.48445e-05
8.50742e-05
3.07731e-05
3.21363e-05
3.0474e-05
3.15495e-05
3.1626e-05
3.17085e-05
2.98481e-05
3.22193e-05
5.91485e-05
3.29006e-05
6.14496e-05
3.22232e-05
5.91496e-05
3.29055e-05
6.14503e-05
3.04992e-05
3.1102e-05
3.08739e-05
2.92182e-05
3.12878e-05
2.97568e-05
2.96603e-05
3.0501e-05
3.1101e-05
3.0874e-05
2.92037e-05
3.12878e-05
2.974e-05
2.96624e-05
3.20879e-05
6.3888e-05
6.20634e-05
3.14453e-05
3.20918e-05
6.38872e-05
6.20639e-05
3.14493e-05
8.44118e-05
8.50769e-05
8.44111e-05
8.50761e-05
3.09522e-05
2.98912e-05
2.99037e-05
2.99205e-05
2.99333e-05
8.48305e-05
8.50752e-05
8.48315e-05
8.50744e-05
8.46063e-05
8.39139e-05
8.46024e-05
8.3914e-05
2.99268e-05
2.99127e-05
2.93381e-05
3.00297e-05
3.00223e-05
8.26265e-05
8.35274e-05
8.26257e-05
8.35238e-05
2.90302e-05
3.0331e-05
3.0322e-05
3.01116e-05
3.00963e-05
3.07317e-05
6.43342e-05
3.13299e-05
6.57337e-05
2.85864e-05
2.91177e-05
3.04671e-05
2.97943e-05
2.94048e-05
2.86584e-05
3.00662e-05
2.85826e-05
2.90973e-05
3.04658e-05
2.97912e-05
2.94e-05
2.8639e-05
3.00649e-05
3.06292e-05
6.70952e-05
6.60644e-05
3.00826e-05
3.06254e-05
6.70906e-05
6.60569e-05
3.00775e-05
2.83365e-05
2.93717e-05
2.81768e-05
2.92824e-05
2.85727e-05
2.96713e-05
2.75451e-05
2.83329e-05
2.93688e-05
2.81594e-05
2.92813e-05
2.85613e-05
2.96701e-05
2.75423e-05
2.99198e-05
2.99171e-05
2.93367e-05
3.0027e-05
3.00213e-05
8.4603e-05
8.39138e-05
8.26236e-05
8.35244e-05
2.90287e-05
3.03274e-05
3.032e-05
3.01039e-05
3.01039e-05
8.26254e-05
8.3523e-05
2.85839e-05
2.91158e-05
3.04668e-05
2.9794e-05
2.94015e-05
2.86487e-05
3.00657e-05
3.07356e-05
6.43405e-05
3.13324e-05
6.57381e-05
2.85845e-05
3.04669e-05
2.91126e-05
2.97937e-05
2.94029e-05
3.00659e-05
2.8651e-05
3.06232e-05
6.70964e-05
6.60637e-05
3.00818e-05
2.83338e-05
2.93714e-05
2.81669e-05
2.9282e-05
2.85731e-05
2.96709e-05
2.75435e-05
3.0625e-05
6.7092e-05
6.60601e-05
3.00822e-05
2.83343e-05
2.93709e-05
2.9282e-05
2.81697e-05
2.9671e-05
2.8565e-05
2.75434e-05
3.07345e-05
6.43422e-05
3.13289e-05
6.57417e-05
2.85849e-05
3.04669e-05
2.91086e-05
2.97933e-05
2.94033e-05
3.00659e-05
2.86425e-05
3.07357e-05
6.43448e-05
3.13346e-05
6.57417e-05
2.83339e-05
2.93716e-05
2.81746e-05
2.92821e-05
2.85706e-05
2.96711e-05
2.75434e-05
3.06225e-05
6.70959e-05
6.60633e-05
3.00804e-05
2.83352e-05
2.93706e-05
2.9282e-05
2.81606e-05
2.9671e-05
2.85655e-05
2.75442e-05
3.06285e-05
6.70956e-05
6.6065e-05
3.00816e-05
2.99158e-05
2.99311e-05
2.93378e-05
3.00188e-05
3.00309e-05
8.45979e-05
8.39145e-05
8.26255e-05
8.35254e-05
2.90298e-05
3.03198e-05
3.0308e-05
3.0101e-05
3.00992e-05
8.26248e-05
8.35267e-05
2.85826e-05
3.04667e-05
2.91122e-05
2.97935e-05
2.93998e-05
3.00656e-05
2.86456e-05
3.07294e-05
6.43446e-05
3.13228e-05
6.57426e-05
3.07329e-05
6.4344e-05
3.13273e-05
6.57415e-05
2.83302e-05
2.9372e-05
2.92817e-05
2.81634e-05
2.96707e-05
2.85779e-05
2.75405e-05
2.83327e-05
2.93708e-05
2.92818e-05
2.81633e-05
2.96707e-05
2.85707e-05
2.75433e-05
3.0617e-05
6.70971e-05
6.60656e-05
3.00787e-05
3.0624e-05
6.70966e-05
6.60647e-05
3.00818e-05
8.46044e-05
8.39133e-05
8.46036e-05
8.39138e-05
2.90289e-05
3.03205e-05
3.03314e-05
3.00955e-05
3.01044e-05
8.26236e-05
8.3525e-05
8.26248e-05
8.35259e-05
8.21919e-05
8.12263e-05
8.21883e-05
8.12246e-05
3.0467e-05
3.04504e-05
2.75213e-05
3.07898e-05
3.07809e-05
7.98429e-05
8.07866e-05
7.98408e-05
8.07821e-05
2.72268e-05
3.13944e-05
3.13851e-05
3.09789e-05
3.09617e-05
2.94966e-05
6.73054e-05
2.99846e-05
6.8037e-05
2.65501e-05
2.81037e-05
2.88993e-05
2.81442e-05
2.73095e-05
2.77682e-05
2.8522e-05
2.65482e-05
2.80974e-05
2.88983e-05
2.81417e-05
2.73066e-05
2.77537e-05
2.8521e-05
2.94205e-05
6.86586e-05
6.81715e-05
2.89947e-05
2.94173e-05
6.8657e-05
6.8168e-05
2.89941e-05
2.63306e-05
2.77486e-05
2.74245e-05
2.77844e-05
2.77054e-05
2.81504e-05
2.56077e-05
2.63289e-05