/*--------------------------------*- C++ -*----------------------------------*\
| =========                 |                                                 |
| \\      /  F ield         | OpenFOAM: The Open Source CFD Toolbox           |
|  \\    /   O peration     | Version:  v1906                                 |
|   \\  /    A nd           | Web:      www.OpenFOAM.com                      |
|    \\/     M anipulation  |                                                 |
\*---------------------------------------------------------------------------*/
FoamFile
{
    version     2.0;
    format      ascii;
    class       volScalarField;
    location    "500";
    object      nut;
}
// * * * * * * * * * * * * * * * * * * * * * * * * * * * * * * * * * * * * * //

dimensions      [0 2 -1 0 0 0 0];


internalField   nonuniform List<scalar> 
42616
(
0.000233972
0.000233085
0.000233087
0.000233401
0.000232523
0.000227727
0.000227722
0.000223719
0.000230493
0.000220202
0.000220202
0.00020893
0.000227761
0.000211527
0.000211531
0.000193632
0.000224384
0.00020251
0.000202513
0.000179592
0.000220494
0.000193641
0.00019364
0.000167253
0.00021624
0.00018516
0.000185153
0.000156536
0.000211753
0.000177134
0.000177123
0.000147164
0.000207139
0.000169602
0.000169588
0.000139002
0.000202478
0.000162534
0.000162521
0.000131729
0.000197825
0.000155877
0.000155865
0.000125123
0.000193212
0.000149576
0.000149565
0.000119004
0.000188622
0.000143591
0.000143578
0.00011324
0.00018409
0.000137867
0.000137854
0.000107914
0.000179644
0.000132365
0.000132353
0.000102995
0.000175275
0.000127074
0.000127062
9.83425e-05
0.000170969
0.000122015
0.000122004
9.41304e-05
0.000166715
0.000117218
0.000117206
9.05163e-05
0.000162511
0.00011271
0.000112701
8.75856e-05
0.000158332
0.000108554
0.000108544
8.52468e-05
0.000154174
0.000104795
0.000104785
8.35571e-05
0.000234261
0.000234459
0.000234455
0.000234258
0.00023446
0.000234458
0.000234275
0.000234275
0.000234275
0.000234275
0.000234456
0.00023446
0.000234258
0.000234456
0.000234462
0.000234265
0.000233413
0.000226094
0.000233083
0.000233087
0.000229291
0.000229294
0.000233405
0.000226089
0.000233083
0.000233084
0.000229288
0.000229285
0.000233085
0.000229299
0.000229289
0.00023341
0.00022609
0.000233079
0.000229295
0.000229279
0.000226081
0.000223734
0.000212081
0.000227715
0.000227712
0.000222218
0.000222169
0.000223725
0.000212058
0.000227711
0.000227707
0.000222212
0.00022221
0.00022771
0.00022223
0.000222207
0.000223732
0.000212087
0.000227702
0.000222227
0.000222202
0.000212065
0.000208951
0.000196935
0.000220191
0.000220126
0.000213744
0.000213655
0.000208922
0.000196911
0.000220183
0.000220183
0.000213736
0.000213734
0.000220178
0.000213753
0.000213724
0.000208955
0.000196941
0.000220175
0.000213757
0.000213726
0.000196914
0.000193665
0.000182806
0.000211517
0.000211433
0.000204753
0.000204693
0.000193629
0.000182759
0.00021151
0.000211505
0.000204751
0.000204738
0.000211495
0.000204763
0.000204729
0.000193671
0.000182794
0.000211499
0.000204767
0.000204737
0.000182786
0.000179632
0.000170244
0.000202499
0.000202445
0.000195814
0.000195778
0.000179648
0.000170186
0.000202499
0.000202482
0.000195819
0.000195795
0.000202475
0.000195827
0.000195791
0.000179645
0.000170212
0.000202484
0.000195827
0.000195805
0.000170236
0.000167291
0.000159259
0.000193627
0.000193595
0.000187219
0.000187197
0.000167346
0.000159188
0.000193633
0.000193608
0.00018723
0.000187201
0.000193604
0.000187239
0.000187198
0.000167329
0.000159205
0.000193619
0.000187233
0.000187216
0.000159245
0.000156567
0.000149603
0.000185139
0.000185118
0.000179068
0.000179052
0.000156643
0.000149574
0.000185151
0.00018512
0.000179084
0.000179051
0.000185118
0.000179095
0.000179051
0.000156618
0.000149655
0.000185137
0.000179084
0.000179071
0.000149658
0.000147297
0.000141109
0.000177107
0.000177091
0.000171408
0.000171395
0.000147304
0.000141157
0.000177125
0.00017709
0.000171429
0.000171393
0.00017709
0.000171439
0.000171394
0.000147216
0.000141111
0.000177111
0.000171425
0.000171416
0.000141113
0.00013906
0.000133654
0.000169571
0.000169558
0.000164228
0.000164216
0.000138979
0.000133671
0.000169593
0.000169557
0.000164251
0.000164215
0.000169557
0.00016426
0.000164215
0.000139074
0.000133573
0.000169581
0.000164247
0.00016424
0.000133589
0.000131633
0.000126748
0.000162502
0.000162491
0.000157472
0.00015746
0.000131675
0.000126747
0.000162525
0.000162489
0.000157496
0.000157459
0.000162489
0.000157505
0.00015746
0.000131761
0.00012682
0.000162514
0.000157493
0.000157487
0.000126739
0.000125126
0.000120483
0.000155844
0.000155833
0.000151085
0.000151073
0.000125139
0.00012049
0.000155868
0.00015583
0.000151111
0.000151072
0.000155832
0.000151121
0.000151076
0.000125004
0.000120535
0.00015586
0.000151109
0.000151105
0.000120438
0.000118963
0.00011447
0.000149541
0.000149529
0.000145021
0.00014501
0.000118967
0.00011445
0.000149566
0.000149527
0.000145048
0.000145008
0.000149533
0.00014506
0.000145016
0.00011888
0.000114508
0.000149562
0.000145047
0.000145045
0.000114439
0.000113184
0.000108833
0.000143554
0.000143541
0.000139235
0.000139226
0.000113241
0.000108825
0.000143579
0.000143539
0.000139264
0.000139223
0.000143548
0.000139275
0.000139232
0.000113152
0.000108821
0.000143578
0.000139262
0.000139263
0.000108809
0.000107931
0.000103649
0.000137829
0.000137817
0.000133683
0.000133674
0.000107927
0.000103651
0.000137856
0.000137814
0.000133712
0.00013367
0.000137824
0.000133722
0.000133678
0.000107916
0.000103636
0.000137855
0.000133711
0.00013371
0.00010363
0.000103005
9.90294e-05
0.000132326
0.000132316
0.000128339
0.00012833
0.000103007
9.90398e-05
0.000132353
0.000132312
0.000128367
0.000128326
0.000132321
0.00012838
0.000128334
0.000102993
9.90359e-05
0.000132352
0.000128366
0.000128367
9.90173e-05
9.83476e-05
9.48255e-05
0.000127034
0.000127025
0.000123221
0.000123214
9.83415e-05
9.48802e-05
0.000127061
0.000127021
0.000123249
0.000123209
0.00012703
0.000123263
0.000123218
9.83218e-05
9.48561e-05
0.000127061
0.000123251
0.00012325
9.48034e-05
9.41307e-05
9.12068e-05
0.000121975
0.000121968
0.000118325
0.000118323
9.40925e-05
9.13613e-05
0.000122
0.000121962
0.000118356
0.000118317
0.000121972
0.000118368
0.000118324
9.4084e-05
9.11988e-05
0.000122002
0.000118361
0.000118358
9.11701e-05
9.05074e-05
8.81539e-05
0.000117181
0.000117169
0.000113749
0.000113746
9.04229e-05
8.82683e-05
0.000117199
0.000117161
0.000113778
0.000113738
0.000117178
0.000113793
0.000113752
9.05148e-05
8.81799e-05
0.000117206
0.000113783
0.000113782
8.80853e-05
8.75816e-05
8.56071e-05
0.000112674
0.000112661
0.000109494
0.000109489
8.74796e-05
8.57612e-05
0.000112689
0.000112653
0.000109523
0.000109484
0.00011267
0.000109538
0.000109496
8.75817e-05
8.56984e-05
0.000112699
0.000109529
0.000109525
8.56325e-05
8.52161e-05
8.37388e-05
0.000108518
0.000108504
0.000105626
0.000105619
8.51314e-05
8.39683e-05
0.000108529
0.000108497
0.000105655
0.000105614
0.000108515
0.000105668
0.00010563
8.52271e-05
8.38525e-05
0.000108541
0.000105659
0.000105655
8.37791e-05
8.35266e-05
0.000104764
0.000104747
8.33967e-05
0.00010477
0.00010474
0.00010476
8.34111e-05
0.000104783
0.00023473
0.000234746
0.000234729
0.000234729
0.000235101
0.000234799
0.000234768
0.000234726
0.000235098
0.000234799
0.000234726
0.000234829
0.000234871
0.000233779
0.000233758
0.000104699
3.85206e-05
0.000128385
3.97701e-05
2.14743e-05
2.28617e-05
0.000104542
3.84819e-05
0.000128165
3.97745e-05
0.000233972
0.000233972
0.000233972
0.000232929
0.00023293
0.000232929
0.000232929
0.000206036
9.30175e-05
0.000233967
0.000231968
0.000222352
8.65026e-05
0.000233606
2.14701e-05
2.28616e-05
0.00020608
0.000233967
9.30481e-05
0.000231969
0.000222363
0.000233607
8.66342e-05
4.73066e-05
4.73502e-05
0.000231286
4.36806e-05
4.36593e-05
7.26251e-05
4.24045e-05
8.13573e-05
4.37523e-05
2.47896e-05
2.54757e-05
7.25689e-05
4.24002e-05
8.12799e-05
4.37464e-05
0.000232524
0.000232523
0.000232523
0.000231066
0.000231064
0.000231066
0.000231064
0.000167349
7.89811e-05
0.000232063
0.000226011
0.00018004
7.41051e-05
0.000231353
2.4787e-05
2.54734e-05
0.000167264
0.000232059
7.89907e-05
0.000226006
0.000179971
0.000231346
7.40362e-05
3.90988e-05
3.90992e-05
0.000219437
3.65333e-05
3.65358e-05
5.63709e-05
4.55383e-05
6.12351e-05
4.64152e-05
2.60156e-05
2.61179e-05
5.63478e-05
4.55336e-05
6.12103e-05
4.64105e-05
0.000230489
0.000230494
0.000230491
0.000228508
0.000228499
0.00022851
0.000228505
0.000138536
6.70443e-05
0.000228602
0.000218105
0.000148058
6.3209e-05
0.000227489
2.60134e-05
2.61163e-05
0.000138479
0.000228589
6.7107e-05
0.000218105
0.000147969
0.000227473
6.31516e-05
3.32593e-05
3.32667e-05
0.000204452
3.20253e-05
3.2041e-05
4.70344e-05
4.74962e-05
5.00053e-05
4.80086e-05
2.60489e-05
2.59395e-05
4.70433e-05
4.74924e-05
4.99771e-05
4.80049e-05
0.000227751
0.000227762
0.000227757
0.000225282
0.000225272
0.000225281
0.000225275
0.000117535
5.78867e-05
0.000223654
0.000209279
0.000124639
5.52601e-05
0.000222237
2.60491e-05
2.59357e-05
0.000117495
0.00022364
5.79178e-05
0.000209283
0.000124559
0.000222223
5.52323e-05
3.06735e-05
3.06861e-05
0.000189666
3.03895e-05
3.03978e-05
4.14404e-05
4.85794e-05
4.33163e-05
4.88417e-05
2.56716e-05
2.55203e-05
4.1488e-05
4.85751e-05
4.32809e-05
4.88376e-05
0.000224375
0.000224383
0.000224376
0.000221506
0.000221499
0.000221503
0.000221497
0.000102138
5.16045e-05
0.000217687
0.000200265
0.000107422
4.99063e-05
0.000216095
2.56691e-05
2.5518e-05
0.000102122
0.000217677
5.16139e-05
0.000200267
0.000107399
0.000216083
4.98612e-05
3.02744e-05
3.0267e-05
0.000176309
3.04576e-05
3.04699e-05
3.81685e-05
4.90898e-05
3.92803e-05
4.91952e-05
2.52348e-05
2.50952e-05
3.82165e-05
4.90863e-05
3.92633e-05
4.91922e-05
0.000220487
0.00022049
0.000220485
0.00021733
0.000217325
0.000217324
0.000217321
9.05246e-05
4.74692e-05
0.000211179
0.000191479
9.45438e-05
4.64759e-05
0.000209513
2.52323e-05
2.50931e-05
9.05251e-05
0.000211171
4.74444e-05
0.000191476
9.4533e-05
0.000209503
4.64485e-05
3.10963e-05
3.1096e-05
0.000164553
3.15738e-05
3.15757e-05
3.63842e-05
4.92741e-05
3.6963e-05
4.92885e-05
2.48471e-05
2.47344e-05
3.64063e-05
4.92708e-05
3.69487e-05
4.92852e-05
0.000216236
0.000216233
0.000216231
0.00021289
0.000212887
0.000212881
0.000212881
8.16276e-05
4.49488e-05
0.000204489
0.000183107
8.47731e-05
4.43988e-05
0.000202819
2.48447e-05
2.47321e-05
8.16034e-05
0.000204483
4.49156e-05
0.0001831
8.47742e-05
0.00020281
4.4402e-05
3.26701e-05
3.2658e-05
0.000154288
3.33179e-05
3.33313e-05
3.56913e-05
4.92862e-05
3.58306e-05
4.92698e-05
2.45349e-05
2.44489e-05
3.57025e-05
4.92831e-05
3.58329e-05
4.92667e-05
0.000211751
0.000211744
0.000211743
0.000208299
0.000208298
0.000208289
0.000208289
7.46625e-05
4.36041e-05
0.000197852
0.000175204
7.72217e-05
4.34356e-05
0.00019622
2.45336e-05
2.44444e-05
7.47119e-05
0.000197848
4.35902e-05
0.000175192
7.72781e-05
0.000196213
4.34194e-05
3.47102e-05
3.46923e-05
0.000145284
3.54442e-05
3.54798e-05
3.5752e-05
4.92516e-05
3.56812e-05
4.92319e-05
2.42939e-05
2.42321e-05
3.58051e-05
4.92496e-05
3.56448e-05
4.92288e-05
0.000207137
0.000207129
0.000207128
0.000203644
0.000203642
0.000203634
0.000203633
6.92119e-05
4.3075e-05
0.000191403
0.000167793
7.13341e-05
4.31734e-05
0.000189824
2.42936e-05
2.42272e-05
6.92775e-05
0.000191401
4.31056e-05
0.000167779
7.13085e-05
0.000189819
4.31237e-05
3.7025e-05
3.7007e-05
0.000137234
3.78122e-05
3.78353e-05
3.65409e-05
4.92201e-05
3.62572e-05
4.92164e-05
2.41157e-05
2.40718e-05
3.65959e-05
4.92188e-05
3.62008e-05
4.92134e-05
0.000202477
0.000202469
0.000202467
0.000198985
0.000198982
0.000198976
0.000198973
6.48928e-05
4.32276e-05
0.000185168
0.000160834
6.65713e-05
4.35319e-05
0.000183647
2.41166e-05
2.40651e-05
6.4921e-05
0.000185169
4.33186e-05
0.00016082
6.65834e-05
0.000183645
4.34234e-05
3.94988e-05
3.94865e-05
0.000130069
4.03077e-05
4.03234e-05
3.79523e-05
4.9216e-05
3.74677e-05
4.92234e-05
2.39849e-05
2.39571e-05
3.80074e-05
4.92136e-05
3.74115e-05
4.92186e-05
0.000197822
0.000197816
0.000197814
0.000194359
0.000194356
0.000194351
0.000194348
6.15077e-05
4.39264e-05
0.00017919
0.00015427
6.27781e-05
4.43632e-05
0.00017774
2.39889e-05
2.39551e-05
6.15414e-05
0.000179192
4.40206e-05
0.000154258
6.27787e-05
0.000177738
4.42675e-05
4.20168e-05
4.20173e-05
0.000123498
4.284e-05
4.28395e-05
3.99811e-05
4.92306e-05
3.9242e-05
4.92538e-05
2.38926e-05
2.38761e-05
3.9996e-05
4.92379e-05
3.9212e-05
4.92425e-05
0.00019321
0.000193204
0.000193202
0.00018977
0.000189768
0.000189762
0.000189762
5.90051e-05
4.50849e-05
0.000173492
0.000148051
5.98231e-05
4.56387e-05
0.000172107
2.38942e-05
2.3867e-05
5.90125e-05
0.000173493
4.51538e-05
0.000148039
5.98381e-05
0.000172103
4.55282e-05
4.45055e-05
4.45083e-05
0.000117423
4.53064e-05
4.53232e-05
4.24531e-05
4.92665e-05
4.15645e-05
4.92923e-05
2.3828e-05
2.38193e-05
4.24876e-05
4.92731e-05
4.15406e-05
4.92815e-05
0.00018862
0.000188614
0.000188614
0.000185214
0.000185213
0.000185207
0.000185208
5.71871e-05
4.65948e-05
0.000168042
0.000142138
5.76689e-05
4.7235e-05
0.000166715
2.38336e-05
2.38097e-05
5.71857e-05
0.00016804
4.66562e-05
0.000142124
5.76685e-05
0.000166709
4.71465e-05
4.68936e-05
4.68892e-05
0.000111565
4.76511e-05
4.76508e-05
4.53973e-05
4.93078e-05
4.43435e-05
4.93329e-05
2.37824e-05
2.37792e-05
4.5404e-05
4.93134e-05
4.4336e-05
4.93231e-05
0.000184089
0.000184082
0.000184083
0.000180748
0.000180748
0.000180742
0.000180742
5.59753e-05
4.83782e-05
0.000162804
0.000136474
5.62778e-05
4.9116e-05
0.000161525
2.37883e-05
2.37691e-05
5.60222e-05
0.000162803
4.84152e-05
0.00013646
5.623e-05
0.00016152
4.90923e-05
4.91184e-05
4.91317e-05
0.000106157
4.98487e-05
4.98266e-05
4.86144e-05
4.93479e-05
4.74886e-05
4.9371e-05
2.37495e-05
2.37486e-05
4.86445e-05
4.93531e-05
4.74854e-05
4.9362e-05
0.000179644
0.000179638
0.000179638
0.000176361
0.000176361
0.000176354
0.000176354
5.54488e-05
5.04448e-05
0.000157746
0.000131023
5.55219e-05
5.11375e-05
0.000156509
2.37553e-05
2.37403e-05
5.54586e-05
0.000157746
5.0437e-05
0.000131012
5.55032e-05
0.000156505
5.11789e-05
5.11964e-05
5.11854e-05
0.00010127
5.18283e-05
5.1851e-05
5.20501e-05
4.93844e-05
5.08681e-05
4.94056e-05
2.37261e-05
2.37227e-05
5.20821e-05
4.93892e-05
5.08548e-05
4.93968e-05
0.000175276
0.000175269
0.000175269
0.00017204
0.000172041
0.000172034
0.000172033
5.5551e-05
5.26166e-05
0.00015284
0.000125791
5.54326e-05
5.3359e-05
0.000151639
2.37281e-05
2.37188e-05
5.56137e-05
0.000152841
5.26163e-05
0.00012578
5.53966e-05
0.000151637
5.33802e-05
5.30761e-05
5.30627e-05
9.68661e-05
5.36498e-05
5.36695e-05
5.55285e-05
4.94176e-05
5.43415e-05
4.94367e-05
2.37069e-05
2.37022e-05
5.55931e-05
4.94218e-05
5.4306e-05
4.94286e-05
0.000170971
0.000170964
0.000170964
0.000167771
0.000167773
0.000167767
0.000167766
5.62842e-05
5.48374e-05
0.000148084
0.000120793
5.59517e-05
5.56722e-05
0.000146917
2.3706e-05
2.36997e-05
5.63324e-05
0.000148086
5.48703e-05
0.000120783
5.59177e-05
0.000146915
5.56453e-05
5.47754e-05
5.47769e-05
9.28737e-05
5.52929e-05
5.5294e-05
5.89531e-05
4.94479e-05
5.77338e-05
4.94661e-05
2.36892e-05
2.36846e-05
5.901e-05
4.94521e-05
5.76965e-05
4.94584e-05
0.000166717
0.000166709
0.000166711
0.000163554
0.000163556
0.000163549
0.00016355
5.75866e-05
5.71174e-05
0.000143443
0.000116049
5.70728e-05
5.79491e-05
0.000142301
2.36876e-05
2.36824e-05
5.75703e-05
0.000143446
5.71509e-05
0.000116039
5.70717e-05
0.000142301
5.79248e-05
5.62952e-05
5.62968e-05
8.95574e-05
5.6794e-05
5.6791e-05
6.21618e-05
4.94768e-05
6.09862e-05
4.94937e-05
2.3673e-05
2.36682e-05
6.21972e-05
4.94802e-05
6.09617e-05
4.94859e-05
0.000162514
0.000162505
0.000162509
0.000159371
0.000159375
0.000159368
0.000159368
5.93652e-05
5.93743e-05
0.0001389
0.00011162
5.8728e-05
6.01742e-05
0.000137786
2.36709e-05
2.36663e-05
5.9394e-05
0.000138903
5.94289e-05
0.00011161
5.87089e-05
0.000137787
6.0128e-05
5.76776e-05
5.76791e-05
8.67571e-05
5.81325e-05
5.81306e-05
6.51003e-05
4.95034e-05
6.39789e-05
4.95194e-05
2.36574e-05
2.36534e-05
6.513e-05
4.95069e-05
6.39643e-05
4.95122e-05
0.000158337
0.000158327
0.000158332
0.000155209
0.000155213
0.000155205
0.000155207
6.16249e-05
6.15794e-05
0.000134462
0.000107552
6.08277e-05
6.23302e-05
0.000133381
2.36555e-05
2.36513e-05
6.16273e-05
0.000134464
6.16257e-05
0.000107543
6.08237e-05
0.000133381
6.22976e-05
5.8929e-05
5.89303e-05
8.46045e-05
5.93445e-05
5.93421e-05
6.77141e-05
4.95281e-05
6.66943e-05
4.95442e-05
2.36433e-05
2.36396e-05
4.9532e-05
6.66872e-05
4.95366e-05
0.00015418
0.000154168
0.000154174
6.41469e-05
6.36789e-05
0.000130144
0.000103924
6.32994e-05
6.43818e-05
0.000129102
2.36412e-05
6.41984e-05
0.000130141
6.37336e-05
6.33144e-05
0.000129101
6.00637e-05
6.00658e-05
8.32105e-05
6.04511e-05
6.04506e-05
0.00023487
0.000233546
0.000233413
2.33908e-05
0.000214208
2.34087e-05
0.000214221
0.000234426
4.98757e-05
4.97896e-05
0.000230217
0.000228383
0.000235099
0.000234799
0.000234761
0.000234726
0.000235098
0.0002348
0.000234705
0.000234726
0.000234505
3.99143e-05
0.000220577
0.000147245
0.000234555
4.00337e-05
0.000221143
0.000147022
0.000233951
0.000234472
9.82516e-05
0.000234271
0.00023351
0.000234597
0.000228352
0.000233963
0.000234471
9.85194e-05
0.000234271
0.000233524
0.000234597
0.000228315
0.000234872
0.000233486
0.000233283
2.33965e-05
0.000214264
0.000234424
5.00266e-05
4.93291e-05
0.00022931
0.000229427
2.33822e-05
0.000214308
0.000235096
0.000234799
0.000234885
0.000234727
0.000235102
0.0002348
0.000234726
0.00023492
0.000234498
4.00838e-05
0.00021669
0.000147057
0.000233968
0.000234471
9.87314e-05
0.000234271
0.000232982
0.000234597
0.00022832
0.000234557
4.00982e-05
0.000216741
0.000146984
0.000233946
0.00023447
0.000234271
9.87021e-05
0.000234597
0.000233082
0.000228313
0.00023473
0.000234746
0.000234729
0.000234729
0.00023473
0.000234746
0.000234729
0.000234729
0.00023473
0.000234746
0.000234729
0.000234729
0.000234591
0.000234573
0.000234253
0.000234253
0.000234592
0.000234592
0.000234252
0.000234591
0.000234573
0.000234253
0.000234253
0.000234592
0.000234592
0.000234252
0.000234591
0.000234573
0.000234253
0.000234253
0.000234592
0.000234592
0.000234252
0.000234591
0.000234574
0.000234253
0.000234253
0.000234592
0.000234592
0.000234252
0.000235098
0.000234798
0.000234726
0.000234753
0.000233947
0.000234472
9.83007e-05
0.000234271
0.000233393
0.000234597
0.000228334
0.000234502
3.99182e-05
0.000220587
0.000147192
0.000233963
0.000234473
0.000234271
9.8448e-05
0.000234597
0.000233483
0.000228343
0.000234547
3.99277e-05
0.000220528
0.000147235
0.000234871
0.000233803
0.000233496
2.34078e-05
0.000214534
0.000234424
4.97639e-05
4.97665e-05
0.000230158
0.000230241
2.3413e-05
0.000214651
0.000235099
0.000234798
0.000234726
0.000234737
0.000233958
0.000234472
0.000234271
9.89004e-05
0.000234597
0.000233145
0.00022834
0.000233955
0.000234473
0.000234271
9.84535e-05
0.000234597
0.000233453
0.000228351
0.000234498
4.01271e-05
0.000216783
0.000147211
0.000234547
3.99204e-05
0.000220564
0.000147184
0.000234425
4.98924e-05
5.00137e-05
0.000230259
0.000229253
2.33954e-05
0.000214219
2.33996e-05
0.0002142
2.14777e-05
2.28509e-05
2.14771e-05
2.2852e-05
4.72861e-05
4.73115e-05
0.000231294
4.35886e-05
4.36497e-05
2.45022e-05
2.33351e-05
2.45009e-05
2.33358e-05
0.000229594
3.98833e-05
3.9881e-05
4.27164e-05
4.27636e-05
0.000104639
3.84912e-05
0.000128166
3.97813e-05
0.000206096
9.22902e-05
0.000233967
0.000231967
0.000222368
8.64632e-05
0.000233608
0.000206037
9.25626e-05
0.000233967
0.000231966
0.000222297
8.66924e-05
0.000233606
9.83205e-05
4.19356e-05
4.03382e-05
8.55155e-05
9.82288e-05
4.19498e-05
4.03588e-05
8.54568e-05
0.000199927
0.000230708
8.01858e-05
0.00023267
8.5038e-05
0.000233182
0.000185423
0.000199844
0.00023071
8.03023e-05
0.000232668
8.53935e-05
0.00023318
0.000185343
4.72704e-05
4.69951e-05
0.000231289
4.36262e-05
4.35926e-05
2.14637e-05
2.28516e-05
2.45e-05
2.33181e-05
0.000229586
3.99036e-05
3.99091e-05
4.27686e-05
4.27333e-05
2.45028e-05
2.33354e-05
0.000205923
9.23935e-05
0.000233966
0.000231966
0.000222299
8.64631e-05
0.000233603
0.000104556
3.84695e-05
0.000128116
3.97634e-05
0.000205948
0.000233966
9.23779e-05
0.000231966
0.000222309
0.000233604
8.64795e-05
9.81792e-05
4.19316e-05
4.03277e-05
8.54256e-05
0.000199772
0.000230706
8.0175e-05
0.000232662
8.51071e-05
0.000233175
0.000185305
9.819e-05
4.19315e-05
4.03391e-05
8.54306e-05
0.000199793
0.000230704
0.000232663
8.01774e-05
0.000233176
8.50819e-05
0.000185307
0.000104633
3.84921e-05
0.000128274
3.97605e-05
0.000206082
0.000233968
9.20994e-05
0.000231967
0.000222382
0.000233608
8.63376e-05
0.000104695
3.85126e-05
0.000128314
3.9763e-05
0.000199886
0.000230714
8.02971e-05
0.000232669
8.51525e-05
0.00023318
0.000185424
9.8274e-05
4.1936e-05
4.03429e-05
8.55087e-05
0.000199925
0.000230707
0.00023267
8.01164e-05
0.000233182
8.49106e-05
0.000185438
9.83196e-05
4.19356e-05
4.03429e-05
8.55203e-05
4.73158e-05
4.72899e-05
0.000231295
4.36708e-05
4.36798e-05
2.14738e-05
2.2852e-05
2.44983e-05
2.33153e-05
0.000229593
3.99036e-05
3.99359e-05
4.27778e-05
4.27722e-05
2.45013e-05
2.33359e-05
0.000206086
0.000233967
9.20556e-05
0.000231958
0.000222377
0.000233608
8.63103e-05
0.000104684
3.84857e-05
0.000128339
3.97659e-05
0.000104672
3.84886e-05
0.000128288
3.97607e-05
0.000199905
0.000230711
0.000232668
8.02968e-05
0.000233181
8.52183e-05
0.000185378
0.000199931
0.000230698
0.00023267
8.01041e-05
0.000233181
8.4882e-05
0.000185425
9.83118e-05
4.19331e-05
4.03422e-05
8.54753e-05
9.83197e-05
4.19335e-05
4.03418e-05
8.55059e-05
2.14796e-05
2.28512e-05
2.14785e-05
2.28527e-05
0.000229586
3.99331e-05
3.99326e-05
4.28542e-05
4.28378e-05
2.45015e-05
2.33358e-05
2.45008e-05
2.33368e-05
2.47909e-05
2.54771e-05
2.47894e-05
2.54751e-05
3.90693e-05
3.90497e-05
0.000219454
3.65147e-05
3.64731e-05
2.596e-05
2.56271e-05
2.59583e-05
2.56251e-05
0.000216617
3.38655e-05
3.3831e-05
3.57473e-05
3.56939e-05
7.25769e-05
4.24151e-05
8.13064e-05
4.37562e-05
0.000167336
7.88717e-05
0.000232062
0.000225999
0.000180029
7.40341e-05
0.000231351
0.000167242
7.89258e-05
0.000232058
0.000225988
0.000179951
7.38602e-05
0.000231343
6.97029e-05
4.52355e-05
4.41351e-05
6.33102e-05
6.96594e-05
4.52355e-05
4.41389e-05
6.32681e-05
0.000162776
0.00022416
6.82726e-05
0.000229616
7.2689e-05
0.000230535
0.000151815
0.000162685
0.000224133
6.8037e-05
0.000229593
7.26075e-05
0.000230521
0.000151732
3.90741e-05
3.91001e-05
0.00021944
3.6516e-05
3.65261e-05
2.47912e-05
2.54772e-05
2.59592e-05
2.56262e-05
0.0002166
3.38623e-05
3.38604e-05
3.57383e-05
3.57464e-05
2.59605e-05
2.5627e-05
0.000167254
7.88639e-05
0.000232054
0.000225995
0.000179912
7.39366e-05
0.000231342
7.25738e-05
4.23997e-05
8.12768e-05
4.37467e-05
0.000167263
0.000232053
7.88655e-05
0.00022599
0.000179915
0.000231342
7.40151e-05
6.96618e-05
4.52297e-05
4.41297e-05
6.32793e-05
0.000162708
0.000224155
6.81903e-05
0.000229606
7.2701e-05
0.000230527
0.000151763
6.96677e-05
4.52301e-05
4.41283e-05
6.32902e-05
0.000162717
0.000224152
0.000229608
6.82528e-05
0.000230526
7.26708e-05
0.000151775
7.26314e-05
4.24036e-05
8.13591e-05
4.37516e-05
0.000167357
0.000232062
7.8811e-05
0.000225991
0.000180041
0.000231352
7.39008e-05
7.26277e-05
4.24042e-05
8.13629e-05
4.37499e-05
0.000162821
0.000224173
6.83225e-05
0.000229621
7.27464e-05
0.000230539
0.000151808
6.97167e-05
4.52352e-05
4.41337e-05
6.33136e-05
0.000162788
0.000224151
0.000229616
6.81657e-05
0.000230536
7.26708e-05
0.000151827
6.97068e-05
4.52333e-05
4.41329e-05
6.32984e-05
3.90912e-05
3.91024e-05
0.000219453
3.6506e-05
3.65499e-05
2.47903e-05
2.54751e-05
2.5957e-05
2.56231e-05
0.000216617
3.38502e-05
3.38948e-05
3.57373e-05
3.57667e-05
2.59588e-05
2.56255e-05
0.000167338
0.000232062
7.87963e-05
0.000225983
0.000180031
0.00023135
7.38916e-05
7.25814e-05
4.24021e-05
8.13182e-05
4.3749e-05
7.26216e-05
4.24016e-05
8.13485e-05
4.37482e-05
0.000162731
0.000224169
0.000229608
6.82639e-05
0.00023053
7.27941e-05
0.000151727
0.000162773
0.000224146
0.000229614
6.81613e-05
0.000230534
7.26639e-05
0.000151791
6.96648e-05
4.52328e-05
4.41319e-05
6.32723e-05
6.96934e-05
4.5232e-05
4.41308e-05
6.32926e-05
2.47905e-05
2.54752e-05
2.47899e-05
2.54745e-05
0.000216599
3.385e-05
3.38618e-05
3.57408e-05
3.57416e-05
2.59591e-05
2.56257e-05
2.59582e-05
2.5625e-05
2.60165e-05
2.61191e-05
2.60147e-05
2.61173e-05
3.32841e-05
3.32434e-05
0.000204474
3.20518e-05
3.20241e-05
2.60745e-05
2.61189e-05
2.60766e-05
2.61171e-05
0.000201205
3.09649e-05
3.09445e-05
3.16476e-05
3.16204e-05
5.63353e-05
4.55376e-05
6.12117e-05
4.64126e-05
0.000138567
6.70142e-05
0.000228597
0.000218094
0.000148002
6.31922e-05
0.000227483
0.000138506
6.68837e-05
0.000228568
0.000218016
0.000147919
6.29846e-05
0.000227449
5.48595e-05
4.73261e-05
4.66468e-05
5.10784e-05
5.48608e-05
4.7323e-05
4.66437e-05
5.10682e-05
0.00013539
0.000215941
5.8813e-05
0.000225003
6.20544e-05
0.000226283
0.00012724
0.000135337
0.000215854
5.87093e-05
0.000224966
6.19748e-05
0.000226246
0.000127207
3.32742e-05
3.32762e-05
0.000204445
3.20448e-05
3.20426e-05
2.60169e-05
2.61196e-05
2.60756e-05
2.61176e-05
0.000201171
3.09533e-05
3.09583e-05
3.16375e-05
3.16351e-05
2.60791e-05
2.61194e-05
0.00013853
6.70249e-05
0.000228587
0.000218086
0.000147958
6.30986e-05
0.000227472
5.63638e-05
4.55323e-05
6.12179e-05
4.64102e-05
0.000138544
0.000228589
6.69938e-05
0.000218086
0.00014798
0.000227477
6.31692e-05
5.48532e-05
4.73226e-05
4.66425e-05
5.10921e-05
0.000135364
0.000215933
5.87732e-05
0.000224991
6.20774e-05
0.000226273
0.00012722
5.48629e-05
4.73213e-05
4.66407e-05
5.10971e-05
0.000135383
0.000215932
0.000224998
5.87791e-05
0.000226278
6.20278e-05
0.000127236
5.63689e-05
4.55372e-05
6.12388e-05
4.64149e-05
0.000138566
0.000228596
6.70013e-05
0.000218079
0.000148007
0.000227482
6.30754e-05
5.63464e-05
4.55363e-05
6.12336e-05
4.64133e-05
0.000135435
0.000215952
5.88755e-05
0.000225007
6.20688e-05
0.000226288
0.000127203
5.48547e-05
4.73267e-05
4.66454e-05
5.11057e-05
0.000135388
0.000215924
0.000225
5.87508e-05
0.000226281
6.20572e-05
0.000127238
5.48696e-05
4.73248e-05
4.66449e-05
5.10741e-05
3.32667e-05
3.33064e-05
0.000204482
3.20266e-05
3.20748e-05
2.60154e-05
2.61181e-05
2.60713e-05
2.6116e-05
0.000201211
3.09411e-05
3.09812e-05
3.16251e-05
3.16683e-05
2.60877e-05
2.61177e-05
0.000138527
0.000228593
6.70012e-05
0.000218077
0.000147988
0.000227478
6.30789e-05
5.63306e-05
4.55355e-05
6.11991e-05
4.64122e-05
5.6342e-05
4.55349e-05
6.12177e-05
4.6412e-05
0.000135364
0.000215955
0.000224991
5.88869e-05
0.000226274
6.21321e-05
0.00012721
0.000135361
0.000215924
0.000224993
5.87574e-05
0.000226276
6.2062e-05
0.000127211
5.48342e-05
4.73245e-05
4.66438e-05
5.10772e-05
5.48452e-05
4.73234e-05
4.66436e-05
5.10834e-05
2.60158e-05
2.61182e-05
2.60148e-05
2.61171e-05
0.000201181
3.0946e-05
3.09547e-05
3.16205e-05
3.16327e-05
2.60743e-05
2.6118e-05
2.60744e-05
2.61169e-05
2.60517e-05
2.594e-05
2.60468e-05
2.59384e-05
3.07013e-05
3.06761e-05
0.000189688
3.03972e-05
3.03858e-05
2.57409e-05
2.58818e-05
2.57383e-05
2.58781e-05
0.000186437
3.02524e-05
3.02428e-05
3.0297e-05
3.02673e-05
4.70557e-05
4.74924e-05
4.99938e-05
4.80055e-05
0.000117531
5.79262e-05
0.000223651
0.00020927
0.000124601
5.52009e-05
0.000222236
0.000117514
5.78606e-05
0.000223616
0.000209191
0.000124569
5.51339e-05
0.000222204
4.62336e-05
4.85013e-05
4.81274e-05
4.38744e-05
4.62155e-05
4.84986e-05
4.81238e-05
4.39057e-05
0.000115407
0.000207013
5.22438e-05
0.000219248
5.44791e-05
0.000220766
0.000109262
0.000115388
0.000206943
5.21865e-05
0.000219223
5.44456e-05
0.000220737
0.000109262
3.06889e-05
3.06913e-05
0.000189669
3.03855e-05
3.03773e-05
2.60491e-05
2.5941e-05
2.57395e-05
2.58797e-05
0.000186414
3.02605e-05
3.02438e-05
3.02778e-05
3.02993e-05
2.57405e-05
2.58801e-05
0.000117535
5.79159e-05
0.000223641
0.000209264
0.000124584
5.51578e-05
0.000222225
4.70531e-05
4.74898e-05
4.99868e-05
4.80026e-05
0.000117543
0.000223646
5.7902e-05
0.000209257
0.000124596
0.000222231
5.51701e-05
4.62101e-05
4.84972e-05
4.81232e-05
4.3917e-05
0.000115393
0.000207009
5.21999e-05
0.000219238
5.44743e-05
0.000220757
0.00010927
4.62168e-05
4.84943e-05
4.81202e-05
4.39176e-05
0.000115401
0.000206998
0.000219241
5.22175e-05
0.00022076
5.44465e-05
0.000109274
4.70598e-05
4.74949e-05
4.99694e-05
4.80092e-05
0.00011753
0.000223647
5.78962e-05
0.000209247
0.000124597
0.000222231
5.51442e-05
4.70619e-05
4.7494e-05
4.9998e-05
4.80064e-05
0.000115419
0.000207023
5.23029e-05
0.000219246
5.44259e-05
0.000220765
0.000109287
4.6205e-05
4.85014e-05
4.81261e-05
4.3913e-05
0.000115406
0.000206989
0.000219241
5.21908e-05
0.000220759
5.44581e-05
0.000109274
4.62192e-05
4.84983e-05
4.81249e-05
4.39132e-05
3.0678e-05
3.07136e-05
0.000189677
3.03752e-05
3.04055e-05
2.60412e-05
2.59392e-05
2.57372e-05
2.58786e-05
0.00018646
3.0228e-05
3.02477e-05
3.02722e-05
3.02848e-05
2.57396e-05
2.58789e-05
0.000117507
0.00022364
5.79016e-05
0.000209252
0.000124565
0.000222224
5.51475e-05
4.70166e-05
4.74932e-05
4.99564e-05
4.80067e-05
4.70153e-05
4.74926e-05
4.99656e-05
4.80051e-05
0.000115371
0.000207027
0.000219234
5.22622e-05
0.000220754
5.44529e-05
0.00010925
0.000115383
0.000206996
0.000219234
5.21903e-05
0.000220752
5.44664e-05
0.000109256
4.6212e-05
4.8499e-05
4.81244e-05
4.38752e-05
4.62291e-05
4.84973e-05
4.81234e-05
4.3875e-05
2.60494e-05
2.59393e-05
2.60476e-05
2.59382e-05
0.000186411
3.02513e-05
3.02649e-05
3.02724e-05
3.02773e-05
2.57388e-05
2.58791e-05
2.5738e-05
2.58781e-05
2.56732e-05
2.55218e-05
2.56701e-05
2.55192e-05
3.02995e-05
3.02665e-05
0.00017632
3.04541e-05
3.04373e-05
2.53036e-05
2.54528e-05
2.5301e-05
2.54496e-05
0.00017325
3.09104e-05
3.09111e-05
3.05943e-05
3.05622e-05
4.14799e-05
4.85765e-05
4.32837e-05
4.88395e-05
0.000102126
5.16594e-05
0.000217689
0.000200254
0.00010745
4.98482e-05
0.000216097
0.000102131
5.16438e-05
0.000217666
0.000200206
0.000107404
4.9801e-05
0.000216077
4.10411e-05
4.90631e-05
4.8889e-05
3.95832e-05
4.10065e-05
4.90615e-05
4.8887e-05
3.95876e-05
0.000100502
0.000198025
4.78939e-05
0.000212838
4.93716e-05