/*--------------------------------*- C++ -*----------------------------------*\
| =========                 |                                                 |
| \\      /  F ield         | OpenFOAM: The Open Source CFD Toolbox           |
|  \\    /   O peration     | Version:  v1906                                 |
|   \\  /    A nd           | Web:      www.OpenFOAM.com                      |
|    \\/     M anipulation  |                                                 |
\*---------------------------------------------------------------------------*/
FoamFile
{
    version     2.0;
    format      ascii;
    class       volVectorField;
    location    "500";
    object      U;
}
// * * * * * * * * * * * * * * * * * * * * * * * * * * * * * * * * * * * * * //

dimensions      [0 1 -1 0 0 0 0];


internalField   nonuniform List<vector> 
42616
(
(0.000106165 0.000106197 0.100294)
(-0.000184909 0.000115533 0.10039)
(0.000115602 -0.00018485 0.10039)
(-0.000247841 -0.000247826 0.100398)
(9.72277e-05 9.71385e-05 0.100854)
(-0.000151488 9.36056e-05 0.100938)
(9.35729e-05 -0.00015145 0.100938)
(-0.000194312 -0.000194362 0.100971)
(9.70989e-05 9.70404e-05 0.101368)
(-0.000152298 9.08466e-05 0.101447)
(9.09765e-05 -0.000152269 0.101447)
(-0.000194855 -0.000194769 0.101474)
(9.48355e-05 9.48723e-05 0.101886)
(-0.000149218 8.71286e-05 0.101953)
(8.72515e-05 -0.000149303 0.101954)
(-0.000192191 -0.000192188 0.101967)
(9.14626e-05 9.15127e-05 0.102391)
(-0.000143576 8.24731e-05 0.102442)
(8.25049e-05 -0.00014364 0.102442)
(-0.000186929 -0.000187014 0.102435)
(8.79778e-05 8.80489e-05 0.102877)
(-0.00013779 7.83823e-05 0.102906)
(7.83549e-05 -0.000137676 0.102907)
(-0.000181598 -0.000181584 0.102874)
(8.48282e-05 8.48824e-05 0.103344)
(-0.00013238 7.50922e-05 0.103348)
(7.50739e-05 -0.000132187 0.103348)
(-0.000176976 -0.00017691 0.103284)
(8.21251e-05 8.21423e-05 0.103793)
(-0.000127601 7.25484e-05 0.103768)
(7.25522e-05 -0.000127457 0.103768)
(-0.000173188 -0.000173178 0.103668)
(7.98376e-05 7.9832e-05 0.104226)
(-0.000123497 7.0548e-05 0.104168)
(7.06127e-05 -0.000123433 0.104168)
(-0.000170225 -0.000170293 0.104027)
(7.78993e-05 7.78339e-05 0.104645)
(-0.000119979 6.91937e-05 0.10455)
(6.92147e-05 -0.000119954 0.10455)
(-0.00016807 -0.00016815 0.104363)
(7.61762e-05 7.60837e-05 0.105053)
(-0.000116806 6.81217e-05 0.104917)
(6.81691e-05 -0.000116832 0.104917)
(-0.000166509 -0.000166635 0.104678)
(7.4607e-05 7.45019e-05 0.105449)
(-0.00011384 6.71436e-05 0.105269)
(6.71666e-05 -0.000113885 0.105268)
(-0.000165158 -0.000165309 0.104972)
(7.31211e-05 7.30304e-05 0.105836)
(-0.000111159 6.61514e-05 0.105606)
(6.6166e-05 -0.000111248 0.105606)
(-0.000164021 -0.000164189 0.105245)
(7.16445e-05 7.15835e-05 0.106213)
(-0.000108686 6.50607e-05 0.10593)
(6.50711e-05 -0.00010876 0.10593)
(-0.000163025 -0.000163075 0.105497)
(7.0199e-05 7.01634e-05 0.106581)
(-0.000106271 6.39959e-05 0.106239)
(6.39934e-05 -0.00010631 0.106239)
(-0.000161827 -0.000161758 0.105728)
(6.87787e-05 6.8761e-05 0.10694)
(-0.000103914 6.2981e-05 0.106534)
(6.29866e-05 -0.000103911 0.106533)
(-0.000160352 -0.000160268 0.105934)
(6.73922e-05 6.73874e-05 0.10729)
(-0.000101589 6.1973e-05 0.106813)
(6.19846e-05 -0.000101555 0.106813)
(-0.000158724 -0.000158652 0.106117)
(6.60648e-05 6.60745e-05 0.107631)
(-9.93062e-05 6.09773e-05 0.107077)
(6.1023e-05 -9.9371e-05 0.107077)
(-0.000156877 -0.000156842 0.106274)
(6.47827e-05 6.47948e-05 0.107963)
(-9.73099e-05 6.00398e-05 0.107325)
(6.00852e-05 -9.74059e-05 0.107325)
(-0.000154784 -0.000154791 0.106405)
(6.35287e-05 6.35099e-05 0.108287)
(-9.54456e-05 5.9044e-05 0.107556)
(5.91245e-05 -9.55447e-05 0.107556)
(-0.000152329 -0.000152378 0.106509)
(6.2297e-05 6.22554e-05 0.108602)
(-9.36145e-05 5.80299e-05 0.10777)
(5.80887e-05 -9.37127e-05 0.10777)
(-0.00014948 -0.000149555 0.106585)
(0.00013808 0.000138179 0.10028)
(0.000126525 0.000160024 0.100229)
(-0.000126565 0.000159891 0.100229)
(-0.00013805 0.000137999 0.10028)
(0.00015994 0.000126534 0.100229)
(0.000159885 -0.000126528 0.100229)
(9.3824e-05 9.38175e-05 0.100152)
(-9.38311e-05 9.3735e-05 0.100152)
(9.37611e-05 -9.38638e-05 0.100152)
(-9.3809e-05 -9.38514e-05 0.100152)
(-0.000159965 0.000126432 0.100229)
(-0.000159966 -0.000126546 0.100229)
(0.000138003 -0.000138168 0.100281)
(0.000126439 -0.000160016 0.100229)
(-0.000126531 -0.000159989 0.100229)
(-0.000138141 -0.00013809 0.100281)
(0.000247836 0.00024792 0.100398)
(0.000112779 0.000112726 0.100896)
(0.000115656 0.000184826 0.10039)
(-0.000115635 0.000184746 0.10039)
(9.32082e-05 0.00014902 0.100817)
(-9.3137e-05 0.000149163 0.100817)
(-0.0002478 0.000247695 0.100398)
(-0.000112685 0.000112683 0.100896)
(0.000184851 0.000115641 0.10039)
(0.00018474 -0.000115662 0.10039)
(0.000149007 9.31646e-05 0.100817)
(0.000148908 -9.31208e-05 0.100817)
(-0.000184929 -0.000115652 0.10039)
(-0.00014899 9.31216e-05 0.100817)
(-0.000148966 -9.31619e-05 0.100817)
(0.00024772 -0.000247885 0.100398)
(0.000112624 -0.00011276 0.100896)
(-0.000115692 -0.000184824 0.10039)
(9.3074e-05 -0.000148967 0.100817)
(-9.31423e-05 -0.000148948 0.100817)
(-0.000112702 -0.000112767 0.100896)
(0.000194415 0.000194285 0.100971)
(0.000105528 0.000105326 0.101399)
(9.36715e-05 0.000151505 0.100938)
(-9.36385e-05 0.000151651 0.100938)
(9.14971e-05 0.000152138 0.101319)
(-9.14464e-05 0.000152057 0.101319)
(-0.000194308 0.000194292 0.100971)
(-0.000105475 0.000105211 0.101399)
(0.000151514 9.35854e-05 0.100938)
(0.000151438 -9.35539e-05 0.100938)
(0.000152183 9.14432e-05 0.101319)
(0.000152204 -9.13957e-05 0.101319)
(-0.000151479 -9.36344e-05 0.100938)
(-0.000152159 9.13705e-05 0.101319)
(-0.000152234 -9.14281e-05 0.101319)
(0.000194214 -0.000194346 0.100971)
(0.000105431 -0.000105426 0.101399)
(-9.36497e-05 -0.000151481 0.100938)
(9.14763e-05 -0.000152127 0.101319)
(-9.15163e-05 -0.000152148 0.101319)
(-0.0001055 -0.000105396 0.101399)
(0.000194898 0.000194699 0.101474)
(9.78035e-05 9.7806e-05 0.101896)
(9.09698e-05 0.00015228 0.101447)
(-9.09033e-05 0.000152127 0.101447)
(8.83645e-05 0.000150538 0.101828)
(-8.81585e-05 0.00015039 0.101828)
(-0.000194846 0.000194561 0.101474)
(-9.76992e-05 9.75056e-05 0.101896)
(0.000152292 9.09635e-05 0.101447)
(0.000152331 -9.08986e-05 0.101447)
(0.000150422 8.84631e-05 0.101828)
(0.000150447 -8.83213e-05 0.101828)
(-0.000152371 -9.0942e-05 0.101447)
(-0.000150409 8.82398e-05 0.101828)
(-0.000150498 -8.83738e-05 0.101828)
(0.000194786 -0.000194801 0.101474)
(9.77031e-05 -9.78177e-05 0.101896)
(-9.103e-05 -0.000152272 0.101447)
(8.83818e-05 -0.000150461 0.101828)
(-8.8395e-05 -0.00015043 0.101828)
(-9.78031e-05 -9.77583e-05 0.101896)
(0.000192236 0.000192222 0.101967)
(8.85087e-05 8.85258e-05 0.10237)
(8.72271e-05 0.000149406 0.101953)
(-8.69934e-05 0.000149301 0.101953)
(8.36554e-05 0.000145313 0.102322)
(-8.34019e-05 0.000145283 0.102322)
(-0.000192109 0.00019197 0.101967)
(-8.83099e-05 8.83805e-05 0.10237)
(0.000149275 8.73382e-05 0.101953)
(0.000149275 -8.71911e-05 0.101954)
(0.000145177 8.37629e-05 0.102322)
(0.000145119 -8.35716e-05 0.102322)
(-0.000149318 -8.72476e-05 0.101954)
(-0.000145046 8.3641e-05 0.102322)
(-0.00014515 -8.37131e-05 0.102322)
(0.000192122 -0.00019223 0.101967)
(8.83878e-05 -8.84684e-05 0.10237)
(-8.72593e-05 -0.00014928 0.101954)
(8.3681e-05 -0.000145139 0.102322)
(-8.37065e-05 -0.000145167 0.102322)
(-8.8468e-05 -8.85172e-05 0.10237)
(0.000187012 0.000186981 0.102435)
(7.97239e-05 7.97892e-05 0.102816)
(8.2482e-05 0.000143827 0.102442)
(-8.22768e-05 0.000143799 0.102442)
(7.93688e-05 0.000139373 0.102793)
(-7.92794e-05 0.00013928 0.102793)
(-0.000186817 0.000186851 0.102435)
(-7.96651e-05 7.96592e-05 0.102816)
(0.000143692 8.25737e-05 0.102442)
(0.000143627 -8.24042e-05 0.102442)
(0.000139209 7.9445e-05 0.102793)
(0.000139156 -7.92678e-05 0.102793)
(-0.000143665 -8.25248e-05 0.102442)
(-0.00013921 7.93293e-05 0.102792)
(-0.000139251 -7.93631e-05 0.102793)
(0.000186837 -0.000186954 0.102435)
(7.96484e-05 -7.96119e-05 0.102816)
(-8.25312e-05 -0.000143677 0.102442)
(7.93058e-05 -0.000139136 0.102793)
(-7.93911e-05 -0.000139194 0.102793)
(-7.97457e-05 -7.96886e-05 0.102816)
(0.000181614 0.000181625 0.102874)
(7.19632e-05 7.20227e-05 0.103234)
(7.84368e-05 0.000137926 0.102907)
(-7.83713e-05 0.000137823 0.102907)
(7.59329e-05 0.000133787 0.10324)
(-7.58678e-05 0.000133655 0.10324)
(-0.000181546 0.00018147 0.102874)
(-7.19327e-05 7.18678e-05 0.103234)
(0.000137761 7.85133e-05 0.102907)
(0.000137709 -7.83258e-05 0.102907)
(0.000133632 7.59985e-05 0.10324)
(0.00013359 -7.57843e-05 0.10324)
(-0.000137824 -7.84154e-05 0.102907)
(-0.00013368 7.58383e-05 0.10324)
(-0.000133724 -7.58752e-05 0.10324)
(0.000181462 -0.000181498 0.102874)
(7.18973e-05 -7.1773e-05 0.103234)
(-7.84601e-05 -0.000137741 0.102907)
(7.58203e-05 -0.000133491 0.10324)
(-7.5957e-05 -0.000133592 0.10324)
(-7.20206e-05 -7.18956e-05 0.103234)
(0.00017698 0.000176975 0.103284)
(6.51486e-05 6.51787e-05 0.103625)
(7.5196e-05 0.000132485 0.103348)
(-7.51208e-05 0.000132364 0.103348)
(7.3225e-05 0.00012885 0.103665)
(-7.31338e-05 0.000128759 0.103665)
(-0.000176906 0.000176804 0.103284)
(-6.50865e-05 6.50972e-05 0.103625)
(0.000132343 7.52491e-05 0.103348)
(0.000132301 -7.50337e-05 0.103348)
(0.000128725 7.32423e-05 0.103665)
(0.000128694 -7.30599e-05 0.103665)
(-0.000132429 -7.51267e-05 0.103348)
(-0.00012873 7.31306e-05 0.103665)
(-0.000128792 -7.31563e-05 0.103665)
(0.000176833 -0.000176777 0.103284)
(6.51163e-05 -6.49578e-05 0.103625)
(-7.52089e-05 -0.000132292 0.103348)
(7.31228e-05 -0.000128564 0.103665)
(-7.32146e-05 -0.000128672 0.103665)
(-6.51746e-05 -6.50955e-05 0.103625)
(0.00017323 0.000173186 0.103668)
(5.91746e-05 5.92524e-05 0.103993)
(7.26384e-05 0.000127715 0.103768)
(-7.25528e-05 0.000127639 0.103768)
(7.10775e-05 0.000124565 0.104069)
(-7.10065e-05 0.0001245 0.104069)
(-0.000173124 0.000173091 0.103668)
(-5.91273e-05 5.92076e-05 0.103993)
(0.000127605 7.26464e-05 0.103768)
(0.000127576 -7.24933e-05 0.103768)
(0.000124455 7.10741e-05 0.104069)
(0.000124435 -7.09955e-05 0.104069)
(-0.000127664 -7.2581e-05 0.103768)
(-0.00012446 7.09959e-05 0.104069)
(-0.000124516 -7.10465e-05 0.104069)
(0.000173112 -0.000173049 0.103668)
(5.92332e-05 -5.91175e-05 0.103993)
(-7.26236e-05 -0.00012756 0.103768)
(7.10454e-05 -0.000124381 0.104069)
(-7.10417e-05 -0.000124449 0.104069)
(-5.91838e-05 -5.91652e-05 0.103993)
(0.000170298 0.00017021 0.104027)
(5.41933e-05 5.43443e-05 0.104338)
(7.06634e-05 0.000123599 0.104168)
(-7.06001e-05 0.000123533 0.104168)
(6.97011e-05 0.000120914 0.104456)
(-6.96402e-05 0.000120846 0.104456)
(-0.0001702 0.000170135 0.104027)
(-5.41491e-05 5.43163e-05 0.104338)
(0.000123488 7.06342e-05 0.104168)
(0.000123468 -7.06007e-05 0.104168)
(0.000120804 6.95683e-05 0.104456)
(0.000120782 -6.96496e-05 0.104456)
(-0.000123547 -7.05968e-05 0.104168)
(-0.000120815 6.94939e-05 0.104456)
(-0.000120852 -6.95322e-05 0.104456)
(0.000170167 -0.000170275 0.104027)
(5.4325e-05 -5.41274e-05 0.104338)
(-7.05745e-05 -0.000123491 0.104168)
(6.95102e-05 -0.000120778 0.104456)
(-6.94286e-05 -0.000120818 0.104456)
(-5.41494e-05 -5.41117e-05 0.104338)
(0.000168191 0.000168161 0.104363)
(4.97885e-05 4.98673e-05 0.104663)
(6.94188e-05 0.000120082 0.10455)
(-6.93576e-05 0.000120011 0.10455)
(6.86711e-05 0.00011771 0.104826)
(-6.85657e-05 0.000117633 0.104826)
(-0.000168093 0.000168098 0.104363)
(-4.96467e-05 4.98487e-05 0.104663)
(0.000119974 6.92749e-05 0.10455)
(0.000119953 -6.93751e-05 0.10455)
(0.000117608 6.8494e-05 0.104827)
(0.000117598 -6.86111e-05 0.104826)
(-0.000120025 -6.92533e-05 0.10455)
(-0.000117576 6.83789e-05 0.104827)
(-0.00011764 -6.84853e-05 0.104826)
(0.000168117 -0.000168176 0.104363)
(4.98461e-05 -4.97178e-05 0.104662)
(-6.91328e-05 -0.000119998 0.10455)
(6.84271e-05 -0.000117593 0.104826)
(-6.83312e-05 -0.000117643 0.104826)
(-4.96925e-05 -4.97297e-05 0.104663)
(0.000166668 0.000166597 0.104678)
(4.55869e-05 4.55916e-05 0.104968)
(6.84132e-05 0.000116935 0.104917)
(-6.83097e-05 0.000116868 0.104917)
(6.76623e-05 0.000114691 0.105182)
(-6.75576e-05 0.000114648 0.105182)
(-0.000166508 0.000166549 0.104678)
(-4.54564e-05 4.56436e-05 0.104968)
(0.000116839 6.82306e-05 0.104917)
(0.000116839 -6.83594e-05 0.104917)
(0.000114608 6.7471e-05 0.105182)
(0.000114625 -6.76115e-05 0.105182)
(-0.000116877 -6.82335e-05 0.104917)
(-0.000114557 6.73842e-05 0.105182)
(-0.000114628 -6.74803e-05 0.105182)
(0.00016656 -0.000166633 0.104677)
(4.56115e-05 -4.55428e-05 0.104967)
(-6.80698e-05 -0.000116886 0.104917)
(6.74166e-05 -0.00011461 0.105182)
(-6.73044e-05 -0.000114654 0.105182)
(-4.54671e-05 -4.55667e-05 0.104968)
(0.000165339 0.000165229 0.104972)
(4.16227e-05 4.15848e-05 0.105253)
(6.74101e-05 0.000113965 0.105268)
(-6.73071e-05 0.000113923 0.105268)
(6.66496e-05 0.00011191 0.105523)
(-6.65391e-05 0.000111916 0.105523)
(-0.000165173 0.000165236 0.104972)
(-4.15264e-05 4.16684e-05 0.105253)
(0.000113875 6.72247e-05 0.105269)
(0.000113899 -6.73649e-05 0.105268)
(0.000111856 6.64914e-05 0.105523)
(0.000111888 -6.65998e-05 0.105523)
(-0.000113906 -6.72282e-05 0.105269)
(-0.000111791 6.64101e-05 0.105523)
(-0.000111859 -6.64428e-05 0.105523)
(0.000165231 -0.00016531 0.104972)
(4.16066e-05 -4.16146e-05 0.105253)
(-6.70555e-05 -0.000113934 0.105269)
(6.64276e-05 -0.000111878 0.105523)
(-6.63111e-05 -0.000111864 0.105523)
(-4.14975e-05 -4.16029e-05 0.105253)
(0.00016418 0.000164042 0.105245)
(3.76464e-05 3.77265e-05 0.105519)
(6.63792e-05 0.000111273 0.105606)
(-6.62768e-05 0.000111288 0.105606)
(6.5582e-05 0.00010941 0.10585)
(-6.54998e-05 0.000109423 0.10585)
(-0.000164084 0.000164084 0.105245)
(-3.75038e-05 3.77352e-05 0.105519)
(0.000111221 6.6243e-05 0.105606)
(0.000111253 -6.63342e-05 0.105606)
(0.000109355 6.54365e-05 0.10585)
(0.000109385 -6.55551e-05 0.10585)
(-0.000111234 -6.61752e-05 0.105606)
(-0.000109293 6.53316e-05 0.10585)
(-0.000109395 -6.53802e-05 0.10585)
(0.000164055 -0.000164217 0.105245)
(3.77304e-05 -3.75955e-05 0.105519)
(-6.60572e-05 -0.00011122 0.105606)
(6.53473e-05 -0.000109373 0.10585)
(-6.52745e-05 -0.000109328 0.10585)
(-3.76259e-05 -3.75506e-05 0.105519)
(0.000163106 0.000163025 0.105497)
(3.34785e-05 3.3613e-05 0.105764)
(6.53147e-05 0.000108794 0.10593)
(-6.52394e-05 0.00010881 0.10593)
(6.45524e-05 0.000106974 0.106163)
(-6.44932e-05 0.00010697 0.106163)
(-0.000162996 0.000163021 0.105497)
(-3.33214e-05 3.35644e-05 0.105764)
(0.00010874 6.51713e-05 0.10593)
(0.00010877 -6.52884e-05 0.105929)
(0.000106912 6.43924e-05 0.106163)
(0.000106938 -6.45321e-05 0.106163)
(-0.000108797 -6.51149e-05 0.10593)
(-0.000106866 6.42528e-05 0.106163)
(-0.000107005 -6.43541e-05 0.106163)
(0.000163008 -0.000163113 0.105497)
(3.3634e-05 -3.34028e-05 0.105764)
(-6.50213e-05 -0.000108707 0.10593)
(6.42572e-05 -0.000106914 0.106163)
(-6.42599e-05 -0.000106855 0.106163)
(-3.35369e-05 -3.33273e-05 0.105764)
(0.000161824 0.000161804 0.105727)
(2.93754e-05 2.94806e-05 0.105986)
(6.43009e-05 0.000106366 0.106239)
(-6.42497e-05 0.000106367 0.106239)
(6.35463e-05 0.000104595 0.106461)
(-6.352e-05 0.000104568 0.106461)
(-0.000161716 0.000161746 0.105727)
(-2.92507e-05 2.94051e-05 0.105986)
(0.000106304 6.41385e-05 0.106239)
(0.000106332 -6.42798e-05 0.106239)
(0.00010452 6.34029e-05 0.106461)
(0.000104541 -6.35258e-05 0.106461)
(-0.000106418 -6.41048e-05 0.106239)
(-0.000104497 6.3243e-05 0.106461)
(-0.000104653 -6.33563e-05 0.106461)
(0.000161779 -0.000161819 0.105727)
(2.94794e-05 -2.92988e-05 0.105986)
(-6.40162e-05 -0.000106248 0.106239)
(6.32391e-05 -0.000104503 0.106461)
(-6.32888e-05 -0.000104443 0.106461)
(-2.94246e-05 -2.92163e-05 0.105986)
(0.000160337 0.000160311 0.105934)
(2.55157e-05 2.56132e-05 0.106186)
(6.32938e-05 0.000103993 0.106533)
(-6.32595e-05 0.000103969 0.106533)
(6.25335e-05 0.000102267 0.106744)
(-6.25016e-05 0.000102206 0.106744)
(-0.000160245 0.000160224 0.105934)
(-2.54139e-05 2.54839e-05 0.106186)
(0.00010392 6.31482e-05 0.106533)
(0.000103948 -6.32696e-05 0.106533)
(0.000102182 6.24113e-05 0.106745)
(0.000102207 -6.24998e-05 0.106744)
(-0.000104072 -6.31054e-05 0.106533)
(-0.000102161 6.22234e-05 0.106745)
(-0.000102318 -6.23477e-05 0.106745)
(0.000160273 -0.00016033 0.105934)
(2.55856e-05 -2.54177e-05 0.106186)
(-6.30441e-05 -0.000103851 0.106534)
(6.22388e-05 -0.000102141 0.106745)
(-6.229e-05 -0.000102081 0.106745)
(-2.55407e-05 -2.53518e-05 0.106186)
(0.000158711 0.000158695 0.106117)
(2.19658e-05 2.20624e-05 0.10636)
(6.22789e-05 0.000101672 0.106813)
(-6.22388e-05 0.000101634 0.106813)
(6.15226e-05 0.000100013 0.107012)
(-6.14682e-05 9.99103e-05 0.107012)
(-0.000158646 0.000158579 0.106117)
(-2.18506e-05 2.18997e-05 0.106361)
(0.000101588 6.21474e-05 0.106813)
(0.000101625 -6.22385e-05 0.106813)
(9.9935e-05 6.14245e-05 0.107013)
(9.99584e-05 -6.14815e-05 0.107012)
(-0.000101742 -6.20903e-05 0.106813)
(-9.98461e-05 6.12174e-05 0.107013)
(-0.000100004 -6.13264e-05 0.107012)
(0.000158649 -0.000158691 0.106117)
(2.20231e-05 -2.18635e-05 0.10636)
(-6.20354e-05 -0.000101501 0.106813)
(6.12546e-05 -9.987e-05 0.107013)
(-6.12677e-05 -9.97689e-05 0.107013)
(-2.19441e-05 -2.18003e-05 0.10636)
(0.000156903 0.000156899 0.106274)
(1.86703e-05 1.87447e-05 0.106509)
(6.12863e-05 9.95142e-05 0.107077)
(-6.12132e-05 9.93772e-05 0.107077)
(6.05672e-05 9.80179e-05 0.107264)
(-6.04966e-05 9.78696e-05 0.107264)
(-0.000156821 0.000156765 0.106274)
(-1.8557e-05 1.8597e-05 0.106509)
(9.94209e-05 6.1171e-05 0.107077)
(9.94623e-05 -6.12403e-05 0.107077)
(9.79614e-05 6.04868e-05 0.107265)
(9.79821e-05 -6.05236e-05 0.107264)
(-9.94608e-05 -6.10822e-05 0.107077)
(-9.77864e-05 6.02738e-05 0.107265)
(-9.79193e-05 -6.03707e-05 0.107264)
(0.000156842 -0.000156875 0.106274)
(1.87255e-05 -1.85705e-05 0.106509)
(-6.10193e-05 -9.9226e-05 0.107077)
(6.03207e-05 -9.78795e-05 0.107264)
(-6.02888e-05 -9.77291e-05 0.107265)
(-1.86098e-05 -1.85192e-05 0.106509)
(0.000154845 0.000154846 0.106404)
(1.55645e-05 1.56113e-05 0.106631)
(6.03295e-05 9.75823e-05 0.107325)
(-6.02517e-05 9.73973e-05 0.107324)
(5.95993e-05 9.60747e-05 0.107499)
(-5.95272e-05 9.60023e-05 0.107499)
(-0.000154758 0.00015471 0.106405)
(-1.54447e-05 1.55027e-05 0.106631)
(9.74622e-05 6.02208e-05 0.107325)
(9.75046e-05 -6.02806e-05 0.107324)
(9.60788e-05 5.95131e-05 0.1075)
(9.60885e-05 -5.95611e-05 0.107499)
(-9.74412e-05 -6.01323e-05 0.107325)
(-9.58962e-05 5.92968e-05 0.1075)
(-9.59947e-05 -5.94138e-05 0.1075)
(0.000154777 -0.00015481 0.106405)
(1.55887e-05 -1.54634e-05 0.106631)
(-6.00442e-05 -9.72531e-05 0.107325)
(5.93644e-05 -9.59968e-05 0.1075)
(-5.93023e-05 -9.58563e-05 0.1075)
(-1.54819e-05 -1.54369e-05 0.106631)
(0.000152409 0.000152414 0.106508)
(1.26562e-05 1.26274e-05 0.106725)
(5.93548e-05 9.56422e-05 0.107556)
(-5.9283e-05 9.55394e-05 0.107556)
(5.85702e-05 9.41229e-05 0.107717)
(-5.85285e-05 9.4175e-05 0.107718)
(-0.000152309 0.000152269 0.106508)
(-1.25387e-05 1.25354e-05 0.106726)
(9.55813e-05 5.9207e-05 0.107556)
(9.5627e-05 -5.93193e-05 0.107555)
(9.42393e-05 5.84841e-05 0.107718)
(9.42382e-05 -5.85538e-05 0.107717)
(-9.55454e-05 -5.91762e-05 0.107556)
(-9.40669e-05 5.8292e-05 0.107718)
(-9.41382e-05 -5.84244e-05 0.107718)
(0.000152338 -0.00015239 0.106508)
(1.26393e-05 -1.25247e-05 0.106725)
(-5.90618e-05 -9.54062e-05 0.107556)
(5.83517e-05 -9.416e-05 0.107718)
(-5.82734e-05 -9.40365e-05 0.107718)
(-1.25318e-05 -1.25226e-05 0.106725)
(0.000149549 0.000149566 0.106585)
(5.83054e-05 9.37389e-05 0.10777)
(-5.8258e-05 9.37225e-05 0.107769)
(-0.00014948 0.000149394 0.106585)
(9.37228e-05 5.81391e-05 0.10777)
(9.37855e-05 -5.82879e-05 0.107769)
(-9.37087e-05 -5.81703e-05 0.10777)
(0.000149498 -0.000149564 0.106585)
(-5.80215e-05 -9.35858e-05 0.10777)
(-3.94298e-07 -4.11282e-07 0.0999987)
(1.822e-05 1.81855e-05 0.100004)
(-1.75641e-07 1.33899e-05 0.1)
(1.3417e-05 -1.93268e-07 0.1)
(-5.16992e-05 6.87713e-06 0.100012)
(-2.0146e-05 1.84792e-05 0.100002)
(-0.000136023 5.97504e-05 0.100069)
(-1.24501e-05 -5.70719e-07 0.0999962)
(6.96512e-06 -5.16238e-05 0.100012)
(1.84973e-05 -2.01638e-05 0.100002)
(-5.51253e-07 -1.24648e-05 0.0999962)
(6.05378e-05 -0.000135492 0.100068)
(-2.44893e-05 -2.45228e-05 0.100007)
(-0.000134842 -8.03333e-05 0.100056)
(-8.07213e-05 -0.000134562 0.100056)
(-1.33005e-05 0.00014701 0.100668)
(0.000225474 0.000572243 0.0996126)
(1.1112e-05 0.000335757 0.10056)
(-3.82461e-05 0.000365495 0.09904)
(-0.000413111 0.000958101 0.0979425)
(-0.000209244 0.000401781 0.0956678)
(0.000146282 -1.36956e-05 0.100668)
(0.000572598 0.000223874 0.0996116)
(0.000335566 1.06466e-05 0.10056)
(0.000366067 -3.80252e-05 0.0990396)
(-0.000106212 0.000106126 0.100294)
(0.000106114 -0.00010619 0.100294)
(-0.000106181 -0.000106149 0.100294)
(9.48258e-05 9.47576e-05 0.100733)
(-9.48047e-05 9.47607e-05 0.100733)
(9.47487e-05 -9.48139e-05 0.100733)
(-9.48134e-05 -9.48735e-05 0.100733)
(-0.00025296 5.88699e-06 0.100719)
(-0.000387673 0.000206618 0.100571)
(-0.000169096 3.99551e-05 0.100331)
(-0.000145256 8.86509e-05 0.100561)
(-0.000335378 2.66541e-05 0.100496)
(-0.000150477 0.000169084 0.100661)
(-0.000141174 3.23208e-05 0.100497)
(0.000956227 -0.00040986 0.0979406)
(0.00040047 -0.000207905 0.0956695)
(5.94331e-06 -0.0002529 0.100718)
(3.99872e-05 -0.000169032 0.100331)
(0.00020642 -0.000387517 0.100571)
(8.85179e-05 -0.000145163 0.100561)
(2.66843e-05 -0.000335264 0.100497)
(3.23176e-05 -0.000141058 0.100497)
(0.000168874 -0.000150252 0.100661)
(-0.000417165 -0.000169461 0.100452)
(-0.000169779 -0.000417666 0.100453)
(-0.000112627 -0.000112615 0.100645)
(-2.18748e-05 -9.06396e-05 0.100491)
(-9.10935e-05 -2.19355e-05 0.10049)
(9.17385e-07 0.000177595 0.100868)
(-4.52447e-05 0.000356047 0.0983239)
(-3.71839e-06 0.000192285 0.100779)
(-3.90975e-05 0.0003185 0.0979429)
(-0.000195686 0.000323561 0.0926294)
(-0.000171001 0.0002781 0.0910082)
(0.00017781 1.17022e-06 0.100867)
(0.000357113 -4.5299e-05 0.0983236)
(0.00019247 -2.97905e-06 0.10078)
(0.000319439 -3.96869e-05 0.0979429)
(-9.71783e-05 9.71405e-05 0.100854)
(9.71789e-05 -9.71853e-05 0.100854)
(-9.72389e-05 -9.72492e-05 0.100854)
(9.72664e-05 9.71837e-05 0.101238)
(-9.72068e-05 9.71087e-05 0.101238)
(9.72509e-05 -9.72101e-05 0.101238)
(-9.73025e-05 -9.72424e-05 0.101238)
(-0.000248253 1.96619e-05 0.101155)
(-0.000205076 0.0001986 0.100823)
(-0.000156708 3.04071e-05 0.100889)
(-0.000151864 9.27658e-05 0.101063)
(-0.000288585 1.81996e-05 0.100985)
(-0.000171525 0.000183818 0.100948)
(-0.000158659 3.04976e-05 0.101015)
(0.000322883 -0.000194673 0.0926259)
(0.000277877 -0.000170063 0.0910091)
(1.96204e-05 -0.00024824 0.101155)
(3.04516e-05 -0.00015661 0.100889)
(0.000198408 -0.000205079 0.100824)
(9.27808e-05 -0.000151845 0.101063)
(1.80506e-05 -0.000288627 0.100985)
(3.0556e-05 -0.00015858 0.101015)
(0.000183684 -0.000171449 0.100947)
(-5.86947e-05 -9.17171e-05 0.10044)
(-9.15575e-05 -5.89306e-05 0.10044)
(-0.000108727 -0.000108688 0.101146)
(-6.31179e-05 -7.28342e-05 0.100439)
(-7.26982e-05 -6.33703e-05 0.100439)
(4.01837e-06 0.00019569 0.100967)
(-2.00265e-05 0.000325904 0.0971214)
(2.65174e-06 0.000223041 0.100897)
(-1.12868e-05 0.000284413 0.0967113)
(-0.000147066 0.000232386 0.0883796)
(-0.000119662 0.000189186 0.087079)
(0.000195364 3.40827e-06 0.100968)
(0.000326489 -2.04016e-05 0.0971215)
(0.000223097 2.16755e-06 0.100899)
(0.000284661 -1.10901e-05 0.0967113)
(-9.70346e-05 9.69272e-05 0.101368)
(9.70875e-05 -9.70588e-05 0.101368)
(-9.71297e-05 -9.70802e-05 0.101368)
(9.55868e-05 9.56096e-05 0.101757)
(-9.54758e-05 9.54677e-05 0.101757)
(9.55812e-05 -9.55841e-05 0.101757)
(-9.5583e-05 -9.5583e-05 0.101757)
(-0.000242031 1.8308e-05 0.101587)
(-0.000220887 0.000188058 0.101026)
(-0.000161102 3.05624e-05 0.101404)
(-0.00015206 9.01566e-05 0.101575)
(-0.000287692 1.85584e-05 0.101417)
(-0.000177288 0.000164088 0.101133)
(-0.000161411 3.04993e-05 0.101534)
(0.000232689 -0.000146127 0.0883771)
(0.000189711 -0.000118688 0.0870821)
(1.85003e-05 -0.000242001 0.101587)
(3.06868e-05 -0.000161083 0.101404)
(0.000188201 -0.000220854 0.101027)
(9.03085e-05 -0.000152048 0.101575)
(1.86998e-05 -0.00028765 0.101417)
(3.06332e-05 -0.000161399 0.101534)
(0.000164112 -0.000177221 0.101132)
(-9.77316e-05 -8.58464e-05 0.10018)
(-8.57904e-05 -9.77751e-05 0.10018)
(-0.000102061 -0.000101963 0.10165)
(-9.43266e-05 -6.30887e-05 0.100112)
(-6.30061e-05 -9.43737e-05 0.100111)
(2.42141e-06 0.000198112 0.100968)
(5.17649e-06 0.000289978 0.0958336)
(2.14193e-06 0.000234342 0.10092)
(9.71649e-06 0.000245372 0.0954188)
(-9.86787e-05 0.000157088 0.0849684)
(-7.39287e-05 0.000120263 0.0839834)
(0.000197639 2.9013e-06 0.100969)
(0.000290106 5.43966e-06 0.095833)
(0.000233889 2.23533e-06 0.100923)
(0.00024557 9.95349e-06 0.0954186)
(-9.47012e-05 9.47529e-05 0.101886)
(9.48256e-05 -9.4827e-05 0.101886)
(-9.48152e-05 -9.48275e-05 0.101886)
(9.23384e-05 9.23868e-05 0.102266)
(-9.21781e-05 9.23382e-05 0.102266)
(9.23156e-05 -9.22906e-05 0.102266)
(-9.22818e-05 -9.23123e-05 0.102266)
(-0.000230549 1.60611e-05 0.101986)
(-0.000219837 0.000165998 0.101136)
(-0.000159781 2.99227e-05 0.101919)
(-0.000147897 8.59867e-05 0.102078)
(-0.000281568 1.62137e-05 0.101825)
(-0.00017117 0.000138814 0.101225)
(-0.000158749 2.96679e-05 0.102045)
(0.000157224 -9.76757e-05 0.0849656)
(0.000120361 -7.3249e-05 0.0839853)
(1.62311e-05 -0.000230626 0.101987)
(3.00392e-05 -0.000159829 0.101919)
(0.000166033 -0.00021995 0.101137)
(8.60782e-05 -0.000147999 0.102078)
(1.64039e-05 -0.000281656 0.101825)
(2.97682e-05 -0.000158792 0.102046)
(0.000138628 -0.000171234 0.101224)
(-0.000118644 -7.57776e-05 0.0997181)
(-7.55992e-05 -0.000118738 0.0997173)
(-9.31726e-05 -9.31886e-05 0.102136)
(-0.000109505 -5.1721e-05 0.0996053)
(-5.15188e-05 -0.000109652 0.0996037)
(5.72178e-07 0.000191306 0.100873)
(1.83924e-05 0.000251779 0.094533)
(3.19446e-07 0.000233551 0.100846)
(1.82294e-05 0.000205966 0.0941382)
(-6.07345e-05 0.000103475 0.0823357)
(-4.07025e-05 7.28617e-05 0.0816115)
(0.000191062 1.287e-06 0.100873)
(0.000252119 1.83395e-05 0.0945322)
(0.000233414 1.18432e-06 0.100849)
(0.000206309 1.83204e-05 0.0941387)
(-9.13203e-05 9.14679e-05 0.102391)
(9.14335e-05 -9.14092e-05 0.102391)
(-9.14075e-05 -9.14316e-05 0.102391)
(8.88303e-05 8.88965e-05 0.102757)
(-8.87807e-05 8.88267e-05 0.102757)
(8.87845e-05 -8.87827e-05 0.102757)
(-8.88255e-05 -8.8806e-05 0.102757)
(-0.000215973 1.40906e-05 0.102345)
(-0.000211201 0.000143593 0.101154)
(-0.000154907 2.88895e-05 0.102418)
(-0.000142107 8.13787e-05 0.10256)
(-0.000270473 1.39494e-05 0.102192)
(-0.000160518 0.000115048 0.101226)
(-0.00015348 2.8643e-05 0.10254)
(0.000103321 -6.02049e-05 0.082332)
(7.27712e-05 -4.02175e-05 0.0816136)
(1.41596e-05 -0.000216009 0.102346)
(2.89242e-05 -0.000154927 0.102419)
(0.000143499 -0.000211418 0.101155)
(8.13732e-05 -0.000142126 0.10256)
(1.40482e-05 -0.00027059 0.102193)
(2.86517e-05 -0.000153459 0.10254)
(0.000114885 -0.000160632 0.101225)
(-0.000126958 -6.70417e-05 0.0991148)
(-6.67662e-05 -0.000127112 0.0991139)
(-8.3952e-05 -8.39569e-05 0.102597)
(-0.000113982 -4.30942e-05 0.0989732)
(-4.27975e-05 -0.000114111 0.0989716)
(-7.60215e-07 0.000179812 0.100691)
(2.05185e-05 0.000215581 0.0932814)
(-1.15758e-06 0.000226163 0.100682)
(1.72894e-05 0.000169671 0.0929224)
(-3.55188e-05 6.87181e-05 0.08033)
(-1.92737e-05 4.26588e-05 0.0798071)
(0.000179518 -4.25496e-07 0.10069)
(0.000215772 2.04685e-05 0.0932801)
(0.000226022 -6.34106e-07 0.100684)
(0.000169863 1.73406e-05 0.092923)
(-8.79522e-05 8.79716e-05 0.102877)
(8.79297e-05 -8.79269e-05 0.102877)
(-8.79915e-05 -8.79542e-05 0.102877)
(8.55714e-05 8.56354e-05 0.103229)
(-8.55629e-05 8.55546e-05 0.103229)
(8.55164e-05 -8.54842e-05 0.103229)
(-8.56067e-05 -8.55341e-05 0.103229)
(-0.000200408 1.26883e-05 0.102662)
(-0.000199898 0.000124023 0.101087)
(-0.00014904 2.79547e-05 0.102897)
(-0.00013639 7.7486e-05 0.103019)
(-0.000257322 1.21847e-05 0.102517)
(-0.000148543 9.48933e-05 0.101146)
(-0.000147537 2.77411e-05 0.103014)
(6.88118e-05 -3.52157e-05 0.0803265)
(4.2745e-05 -1.89061e-05 0.0798088)
(1.26991e-05 -0.000200265 0.102662)
(2.79108e-05 -0.000148936 0.102898)
(0.000124208 -0.000199991 0.101089)
(7.7458e-05 -0.00013624 0.103019)
(1.22108e-05 -0.000257286 0.102518)
(2.76866e-05 -0.0001474 0.103014)
(9.49975e-05 -0.000148437 0.101146)
(-0.000127077 -6.1231e-05 0.0984171)
(-6.09563e-05 -0.000127119 0.0984165)
(-7.57711e-05 -7.56655e-05 0.103028)
(-0.000111539 -3.7288e-05 0.098259)
(-3.70639e-05 -0.000111569 0.0982576)
(-1.19128e-06 0.000165961 0.100437)
(1.59775e-05 0.000183821 0.0921156)
(-1.86992e-06 0.000215332 0.100442)
(1.11646e-05 0.000138281 0.0917996)
(-2.02239e-05 4.81187e-05 0.0787997)
(-6.2905e-06 2.4529e-05 0.078425)
(0.000165826 -1.08706e-06 0.100436)
(0.000183968 1.5762e-05 0.0921143)
(0.000215277 -1.63594e-06 0.100443)
(0.000138481 1.10999e-05 0.0918003)
(-8.48105e-05 8.48071e-05 0.103344)
(8.47699e-05 -8.47278e-05 0.103344)
(-8.48571e-05 -8.47832e-05 0.103344)
(8.27623e-05 8.27872e-05 0.103682)
(-8.27162e-05 8.27378e-05 0.103682)
(8.27114e-05 -8.26538e-05 0.103682)
(-8.27662e-05 -8.27099e-05 0.103682)
(-0.000184954 1.18868e-05 0.102938)
(-0.000187854 0.00010841 0.100948)
(-0.000143115 2.71683e-05 0.103356)
(-0.00013112 7.43983e-05 0.103455)
(-0.000243579 1.10498e-05 0.1028)
(-0.000136395 7.88393e-05 0.100996)
(-0.000141694 2.69994e-05 0.103467)
(4.81202e-05 -1.98833e-05 0.0787955)
(2.46611e-05 -6.10746e-06 0.0784265)
(1.18688e-05 -0.000184731 0.102938)
(2.7115e-05 -0.000142955 0.103356)
(0.000108673 -0.000187741 0.100951)
(7.43807e-05 -0.000130926 0.103455)
(1.10361e-05 -0.000243415 0.1028)
(2.6953e-05 -0.000141526 0.103467)
(7.89233e-05 -0.000136145 0.100996)
(-0.000122231 -5.72678e-05 0.0976621)
(-5.71096e-05 -0.000122246 0.0976615)
(-6.84871e-05 -6.83763e-05 0.103433)
(-0.00010504 -3.31235e-05 0.097497)
(-3.29713e-05 -0.000105096 0.0974953)
(-5.79006e-07 0.000151435 0.100124)
(8.38618e-06 0.000157322 0.0910521)
(-1.51389e-06 0.000202874 0.10014)
(3.23301e-06 0.000112319 0.0907794)
(-1.13318e-05 3.6292e-05 0.077618)
(1.13885e-06 1.39576e-05 0.0773523)