/*--------------------------------*- C++ -*----------------------------------*\
| =========                 |                                                 |
| \\      /  F ield         | OpenFOAM: The Open Source CFD Toolbox           |
|  \\    /   O peration     | Version:  v1906                                 |
|   \\  /    A nd           | Web:      www.OpenFOAM.com                      |
|    \\/     M anipulation  |                                                 |
\*---------------------------------------------------------------------------*/
FoamFile
{
    version     2.0;
    format      ascii;
    class       volScalarField;
    location    "1000";
    object      epsilon;
}
// * * * * * * * * * * * * * * * * * * * * * * * * * * * * * * * * * * * * * //

dimensions      [0 2 -3 0 0 0 0];


internalField   nonuniform List<scalar> 
43248
(
1.33171e-06
9.19808e-07
7.323e-07
9.48816e-07
9.42492e-07
8.6754e-07
7.39405e-07
7.99569e-07
1.05786e-06
8.7709e-07
8.14621e-07
1.04817e-06
3.16862e-07
2.51524e-07
3.89571e-07
2.82103e-07
1.88485e-05
1.87613e-05
5.72715e-06
5.70121e-06
4.05748e-06
9.35253e-06
4.11487e-06
4.04791e-06
9.03883e-06
8.97294e-06
4.09263e-06
2.0496e-06
3.61738e-06
5.28854e-07
5.00454e-07
2.10729e-06
2.03959e-06
7.32862e-07
3.33228e-06
4.98044e-07
3.31794e-06
4.96188e-07
2.0823e-06
1.81562e-05
1.80507e-05
9.6318e-07
5.24413e-06
5.194e-06
5.22243e-06
5.20708e-06
1.80426e-05
1.79634e-05
9.2823e-06
4.0822e-06
3.59944e-06
5.84521e-07
2.11624e-06
8.91051e-06
4.07053e-06
6.01118e-07
3.33814e-06
2.0966e-06
2.06225e-06
7.41642e-07
3.30375e-06
5.10366e-07
3.31649e-06
5.09955e-07
2.05097e-06
4.04172e-06
8.9663e-06
8.9515e-06
4.03286e-06
2.07133e-06
8.01295e-07
5.27278e-07
3.36758e-06
5.24369e-07
3.39598e-06
2.05799e-06
4.04841e-06
9.01822e-06
9.03007e-06
4.03678e-06
1.77322e-05
5.20385e-06
5.16415e-06
1.76645e-05
2.14958e-06
6.12383e-07
3.30721e-06
6.23088e-07
2.05374e-06
2.13997e-06
8.17188e-07
5.63108e-07
3.33783e-06
5.63257e-07
3.41129e-06
2.05687e-06
4.10081e-06
8.86455e-06
4.00539e-06
4.08522e-06
8.94274e-06
9.00417e-06
3.99652e-06
1.07499e-06
5.28569e-06
5.23886e-06
5.32398e-06
5.31916e-06
1.81193e-05
1.80953e-05
1.79966e-05
1.80267e-05
1.88121e-05
1.87379e-05
4.77502e-06
3.03087e-06
5.66084e-06
1.00067e-05
9.91588e-06
2.97654e-06
4.86166e-06
4.79166e-06
3.03473e-06
5.64418e-06
9.99628e-06
9.92338e-06
2.99293e-06
4.86234e-06
1.00726e-05
2.23462e-05
2.23228e-05
2.22133e-05
2.21993e-05
1.02644e-05
1.22138e-05
1.08102e-05
4.70929e-06
4.07662e-06
1.21919e-05
1.08282e-05
4.73496e-06
2.21453e-05
9.32086e-06
7.1548e-06
7.14016e-06
2.21695e-05
1.22273e-05
4.09743e-06
1.0851e-05
4.78148e-06
1.08407e-05
4.76099e-06
1.22382e-05
1.21744e-05
1.07996e-05
4.68693e-06
4.06203e-06
1.21566e-05
1.08171e-05
4.70173e-06
2.19546e-05
9.01717e-06
7.07141e-06
7.05577e-06
2.19721e-05
2.19446e-05
7.01523e-06
8.99501e-06
2.19124e-05
7.03576e-06
1.21866e-05
4.07836e-06
1.08413e-05
4.7317e-06
1.083e-05
4.71716e-06
1.21986e-05
1.81126e-05
1.80898e-05
9.22501e-06
2.09842e-05
2.09833e-05
9.24793e-06
2.10368e-05
2.1014e-05
4.225e-06
2.58108e-06
5.22923e-06
9.11346e-06
2.57805e-06
9.071e-06
4.22749e-06
4.21299e-06
2.57026e-06
5.19345e-06
9.04601e-06
9.02003e-06
2.57062e-06
4.21279e-06
4.22647e-06
9.03639e-06
2.58047e-06
5.22244e-06
2.57786e-06
4.23418e-06
9.04278e-06
4.21751e-06
9.0153e-06
2.58145e-06
5.19701e-06
4.22878e-06
9.01404e-06
2.57389e-06
9.21698e-06
2.11746e-05
2.11282e-05
2.10894e-05
2.10554e-05
9.21902e-06
1.79994e-05
1.798e-05
2.19964e-05
9.26404e-06
7.09084e-06
7.08782e-06
2.19972e-05
1.21497e-05
4.08695e-06
4.73613e-06
1.07762e-05
4.7383e-06
1.07802e-05
1.21481e-05
2.18473e-05
8.95819e-06
7.06673e-06
7.08046e-06
2.18325e-05
1.21159e-05
4.08149e-06
1.07648e-05
4.72994e-06
1.07715e-05
4.7403e-06
1.21049e-05
1.21085e-05
4.68422e-06
1.07586e-05
4.03798e-06
1.21084e-05
4.68005e-06
1.07575e-05
2.18334e-05
8.95417e-06
6.99381e-06
6.99323e-06
2.18357e-05
2.18381e-05
6.99381e-06
8.9514e-06
2.18371e-05
6.99314e-06
1.21089e-05
4.03466e-06
4.6718e-06
1.07569e-05
4.6751e-06
1.07565e-05
1.21121e-05
1.21211e-05
1.07631e-05
4.69186e-06
4.04348e-06
1.21234e-05
1.07613e-05
4.68551e-06
2.18366e-05
9.02009e-06
7.0004e-06
7.00981e-06
2.18427e-05
2.18394e-05
7.02855e-06
9.0252e-06
2.184e-05
7.01793e-06
1.21174e-05
4.03912e-06
1.07585e-05
4.67676e-06
1.07588e-05
4.6801e-06
1.2117e-05
1.78042e-05
4.30438e-06
2.56145e-06
5.29039e-06
8.79e-06
2.64367e-06
8.93183e-06
4.17921e-06
4.29341e-06
2.55012e-06
5.26301e-06
8.75163e-06
8.90588e-06
2.63816e-06
4.16413e-06
9.16626e-06
2.0294e-05
2.0255e-05
2.04361e-05
2.04118e-05
8.9182e-06
1.77425e-05
1.2076e-05
4.76934e-06
1.07474e-05
4.06763e-06
1.21068e-05
4.7354e-06
1.07217e-05
2.17659e-05
8.92293e-06
7.00058e-06
7.02762e-06
2.17387e-05
2.18301e-05
7.06412e-06
1.2044e-05
4.03235e-06
4.67042e-06
1.0677e-05
4.69787e-06
1.06948e-05
1.20247e-05
1.2059e-05
4.7157e-06
1.07423e-05
4.0542e-06
1.20819e-05
4.68105e-06
1.07184e-05
2.16604e-05
8.956e-06
6.92612e-06
6.94984e-06
2.16503e-05
2.16983e-05
7.0113e-06
8.9784e-06
2.17331e-05
6.97684e-06
1.20361e-05
4.02175e-06
4.62104e-06
1.06779e-05
4.64771e-06
1.06939e-05
1.20239e-05
9.41676e-06
2.11967e-05
2.12144e-05
9.46777e-06
2.11945e-05
2.12006e-05
4.33326e-06
2.66277e-06
5.29756e-06
9.17325e-06
2.67474e-06
9.17366e-06
4.31109e-06
4.33733e-06
2.65686e-06
5.26077e-06
9.1407e-06
2.67736e-06
9.15527e-06
4.30892e-06
4.35823e-06
9.18681e-06
2.70417e-06
5.30929e-06
4.38457e-06
2.68999e-06
9.17856e-06
4.37086e-06
9.2052e-06
2.72594e-06
5.28736e-06
4.40402e-06
2.70259e-06
9.1788e-06
9.36768e-06
2.12021e-05
2.11773e-05
2.11926e-05
2.1181e-05
9.32518e-06
1.81016e-05
1.80971e-05
1.79963e-05
1.80092e-05
2.89863e-06
1.28149e-06
2.0089e-06
2.01595e-06
1.96141e-06
1.97429e-06
2.94938e-06
2.39929e-06
9.52239e-07
1.54664e-06
1.54689e-06
1.54612e-06
1.54753e-06
2.39999e-06
2.45255e-06
1.12912e-06
1.54208e-06
1.5408e-06
1.62437e-06
1.62565e-06
2.35875e-06
2.51957e-06
1.06071e-06
1.64566e-06
1.64991e-06
1.65883e-06
1.66635e-06
2.50129e-06
1.5229e-07
1.65181e-07
1.46896e-07
7.67539e-08
7.78261e-08
2.5199e-07
1.43848e-07
1.43713e-07
1.43095e-07
1.43269e-07
7.39134e-08
7.42234e-08
1.90545e-07
1.91484e-07
1.9206e-07
8.48905e-08
8.52854e-08
2.79337e-07
1.49812e-07
1.60564e-07
1.47107e-07
1.58718e-07
7.57198e-08
7.6196e-08
1.37358e-06
2.3181e-06
1.21522e-06
2.06676e-06
1.35562e-06
2.34474e-06
1.22298e-06
1.65917e-06
2.18284e-06
3.57232e-06
2.93233e-06
2.14108e-06
2.90232e-06
1.69053e-06
1.41631e-06
2.08806e-06
2.39751e-06
1.25843e-06
2.37326e-06
1.24614e-06
1.43649e-06
1.3307e-06
2.27813e-06
1.21064e-06
2.05122e-06
1.33094e-06
2.2885e-06
1.21392e-06
1.50539e-06
1.87256e-06
3.32297e-06
2.7765e-06
2.76588e-06
1.8691e-06
1.50753e-06
1.50042e-06
2.74704e-06
1.86934e-06
3.31838e-06
1.50215e-06
2.75344e-06
1.86726e-06
1.33996e-06
2.06705e-06
2.31596e-06
1.23387e-06
2.3021e-06
1.22746e-06
1.34347e-06
2.40018e-06
9.51992e-07
1.55081e-06
1.55544e-06
1.54556e-06
2.40556e-06
1.54797e-06
1.69279e-06
2.19366e-06
3.56965e-06
2.91834e-06
2.16489e-06
2.9058e-06
1.71068e-06
1.46454e-06
2.12065e-06
2.3947e-06
1.31014e-06
2.39242e-06
1.31097e-06
1.47053e-06
1.58561e-06
1.85743e-06
3.3924e-06
2.78664e-06
2.82055e-06
1.92314e-06
1.53696e-06
1.41986e-06
2.10877e-06
1.2862e-06
2.32359e-06
1.30074e-06
2.34401e-06
1.38689e-06
1.35536e-06
2.30014e-06
1.2483e-06
2.05762e-06
1.3644e-06
2.29527e-06
1.24273e-06
1.51176e-06
1.86787e-06
3.30506e-06
2.7471e-06
1.86979e-06
2.74869e-06
1.50705e-06
1.51205e-06
2.75754e-06
1.88102e-06
3.30872e-06
1.52333e-06
1.87158e-06
2.75167e-06
1.3554e-06
2.05337e-06
2.28931e-06
1.23774e-06
2.29122e-06
1.24259e-06
1.34959e-06
1.38306e-06
1.25691e-06
2.32505e-06
2.0665e-06
1.38962e-06
1.25228e-06
2.31939e-06
1.56438e-06
1.93804e-06
3.37715e-06
2.78746e-06
2.7948e-06
1.94757e-06
1.55499e-06
1.56641e-06
2.81088e-06
1.96533e-06
3.38508e-06
1.57572e-06
2.80261e-06
1.95373e-06
1.38292e-06
2.0613e-06
1.24641e-06
2.30848e-06
1.25195e-06
2.3127e-06
1.37552e-06
1.4572e-06
1.35159e-06
2.40881e-06
2.11973e-06
1.50006e-06
1.32675e-06
2.37024e-06
1.58708e-06
1.84758e-06
3.37179e-06
2.75162e-06
1.92137e-06
2.79849e-06
1.52894e-06
1.63732e-06
2.85586e-06
1.42523e-06
2.0846e-06
1.27232e-06
2.28916e-06
1.30503e-06
2.326e-06
1.37972e-06
1.43413e-06
1.34081e-06
2.37684e-06
2.11457e-06
1.45253e-06
1.32382e-06
2.35238e-06
1.588e-06
1.93917e-06
3.36037e-06
2.76397e-06
2.78756e-06
1.96006e-06
1.56381e-06
1.60151e-06
2.84074e-06
1.9998e-06
3.3845e-06
1.62199e-06
2.81488e-06
1.97831e-06
1.42335e-06
2.08396e-06
1.27993e-06
2.29794e-06
1.30735e-06
2.32305e-06
1.39543e-06
2.54031e-06
1.06376e-06
1.6842e-06
1.69754e-06
2.5613e-06
1.66882e-06
1.67958e-06
1.33747e-07
2.30875e-07
2.30906e-07
3.58335e-07
3.52843e-07
2.28629e-07
2.28642e-07
3.52801e-07
2.28565e-07
2.28666e-07
2.28534e-07
2.28615e-07
3.52874e-07
2.28563e-07
2.28577e-07
3.52868e-07
3.58308e-07
3.78368e-07
2.30932e-07
2.30987e-07
2.38803e-07
2.38814e-07
3.58274e-07
3.78334e-07
2.30946e-07
2.31013e-07
2.38697e-07
2.38847e-07
2.30957e-07
2.38686e-07
2.38771e-07
3.58342e-07
3.78436e-07
2.30921e-07
2.38729e-07
2.38736e-07
3.78414e-07
1.34409e-07
1.34406e-07
1.34416e-07
1.34412e-07
3.68231e-06
8.90802e-06
3.64878e-06
8.91295e-06
1.84664e-05
1.8458e-05
3.68285e-06
8.90966e-06
3.64867e-06
8.91468e-06
1.33743e-07
1.33753e-07
1.33747e-07
1.3207e-07
1.32069e-07
1.3208e-07
1.32074e-07
1.15863e-06
2.79615e-06
1.58619e-07
2.33347e-07
1.1308e-06
2.81995e-06
1.58835e-07
1.84683e-05
1.84599e-05
1.15867e-06
1.58614e-07
2.79622e-06
2.33381e-07
1.13079e-06
1.5884e-07
2.82011e-06
5.13138e-06
5.13323e-06
3.65275e-07
5.14381e-06
5.14585e-06
1.84719e-05
1.84808e-05
1.84739e-05
1.84826e-05
3.46374e-07
5.12473e-06
5.12721e-06
5.11152e-06
5.11285e-06
3.5998e-06
8.9072e-06
8.90193e-06
3.63695e-06
3.59983e-06
8.90808e-06
8.90291e-06
3.63703e-06
1.08809e-06
2.26385e-07
2.78307e-06
1.58497e-07
2.75805e-06
1.58447e-07
1.116e-06
1.08812e-06
2.26433e-07
2.78357e-06
1.58505e-07
2.75851e-06
1.58455e-07
1.116e-06
1.84728e-05
1.84815e-05
3.46341e-07
5.12689e-06
5.12478e-06
5.1128e-06
5.11133e-06
1.84715e-05
1.84803e-05
3.59946e-06
8.90884e-06
8.90369e-06
3.63758e-06
1.08817e-06
2.26393e-07
2.78367e-06
1.58502e-07
2.75849e-06
1.58451e-07
1.1161e-06
3.5994e-06
8.90836e-06
8.90342e-06
3.63751e-06
1.08813e-06
2.26454e-07
1.58507e-07
2.78368e-06
1.58456e-07
2.75866e-06
1.11609e-06
1.08806e-06
2.26323e-07
2.78294e-06
1.58495e-07
2.75797e-06
1.58443e-07
1.11611e-06
3.59976e-06
8.90834e-06
8.90304e-06
3.63737e-06
1.08807e-06
2.26403e-07
1.585e-07
2.78321e-06
1.58449e-07
2.75807e-06
1.1161e-06
3.59971e-06
8.90799e-06
8.90277e-06
3.63727e-06
1.84749e-05
1.84835e-05
3.46405e-07
5.12681e-06
5.12515e-06
5.11328e-06
5.11113e-06
1.84726e-05
1.84814e-05
1.08813e-06
2.26355e-07
1.58498e-07
2.78315e-06
1.58446e-07
2.7581e-06
1.1161e-06
1.08816e-06
2.26364e-07
1.58499e-07
2.78376e-06
1.58447e-07
2.75857e-06
1.11616e-06
3.5994e-06
8.90791e-06
8.90278e-06
3.6376e-06
3.59947e-06
8.90925e-06
8.90383e-06
3.63777e-06
3.46394e-07
5.12504e-06
5.12709e-06
5.11131e-06
5.11323e-06
1.84726e-05
1.84816e-05
1.84742e-05
1.84832e-05
1.84654e-05
1.8457e-05
1.84673e-05
1.84589e-05
5.13153e-06
5.13308e-06
3.65239e-07
5.1434e-06
5.14557e-06
1.84429e-05
1.84507e-05
1.84444e-05
1.84527e-05
3.71019e-07
5.16104e-06
5.16208e-06
5.14947e-06
5.15121e-06
3.68244e-06
8.90891e-06
3.64884e-06
8.91379e-06
1.15857e-06
2.79627e-06
1.58618e-07
2.33449e-07
1.13065e-06
2.81998e-06
1.58836e-07
1.15861e-06
2.79663e-06
1.58628e-07
2.33462e-07
1.13065e-06
2.82052e-06
1.58843e-07
3.69291e-06
8.91841e-06
8.9138e-06
3.72265e-06
3.69297e-06
8.9197e-06
8.9146e-06
3.7228e-06
1.17312e-06
2.36007e-07
2.85453e-06
1.59521e-07
2.83249e-06
1.59139e-07
1.20076e-06
1.17317e-06
2.36071e-07
2.85504e-06
1.59529e-07
2.8328e-06
1.5915e-07
1.2008e-06
5.13301e-06
5.1315e-06
3.6519e-07
5.14535e-06
5.14336e-06
1.8465e-05
1.84566e-05
1.84437e-05
1.84518e-05
3.7098e-07
5.16242e-06
5.16045e-06
5.15117e-06
5.14945e-06
1.84422e-05
1.84503e-05
1.15866e-06
2.79673e-06
1.5862e-07
2.33372e-07
1.13077e-06
2.82052e-06
1.58842e-07
3.68283e-06
8.90924e-06
3.64863e-06
8.91466e-06
1.15869e-06
1.5863e-07
2.79688e-06
2.3349e-07
1.13076e-06
1.58845e-07
2.8206e-06
3.69267e-06
8.92015e-06
8.91545e-06
3.72319e-06
1.17326e-06
2.36028e-07
2.85484e-06
1.59528e-07
2.83294e-06
1.59137e-07
1.2008e-06
3.69271e-06
8.91983e-06
8.91549e-06
3.72314e-06
1.17327e-06
2.36103e-07
1.59532e-07
2.85513e-06
1.59151e-07
2.83312e-06
1.20085e-06
3.68247e-06
8.90923e-06
3.64906e-06
8.91409e-06
1.1586e-06
1.58623e-07
2.79632e-06
2.3343e-07
1.13078e-06
1.58836e-07
2.82009e-06
3.68239e-06
8.9088e-06
3.64901e-06
8.91376e-06
1.17319e-06
2.3595e-07
2.8544e-06
1.59517e-07
2.83232e-06
1.59138e-07
1.20078e-06
3.69299e-06
8.91947e-06
8.91484e-06
3.72279e-06
1.17315e-06
2.36034e-07
1.59518e-07
2.85461e-06
1.59139e-07
2.83256e-06
1.20076e-06
3.69297e-06
8.91908e-06
8.91453e-06
3.7227e-06
5.13352e-06
5.13144e-06
3.65278e-07
5.14534e-06
5.14367e-06
1.84662e-05
1.84577e-05
1.84456e-05
1.84536e-05
3.71067e-07
5.16252e-06
5.16076e-06
5.15148e-06
5.14943e-06
1.84434e-05
1.84515e-05
1.15872e-06
1.58623e-07
2.79685e-06
2.33396e-07
1.13085e-06
1.58838e-07
2.8206e-06
3.68287e-06
8.90873e-06
3.64855e-06
8.91378e-06
3.68297e-06
8.91006e-06
3.64871e-06
8.91496e-06
1.17324e-06
2.3599e-07
1.59526e-07
2.85466e-06
1.59134e-07
2.83246e-06
1.20082e-06
1.17329e-06
2.36e-07
1.59522e-07
2.85515e-06
1.59141e-07
2.83312e-06
1.20085e-06
3.6926e-06
8.91953e-06
8.91462e-06
3.72323e-06
3.69268e-06
8.92031e-06
8.91575e-06
3.72334e-06
1.84662e-05
1.84578e-05
1.84677e-05
1.84593e-05
3.71069e-07
5.16064e-06
5.16263e-06
5.14954e-06
5.15146e-06
1.84433e-05
1.84515e-05
1.84448e-05
1.8453e-05
1.21275e-05
3.67149e-06
1.06713e-05
4.49077e-06
1.06673e-05
4.4821e-06
1.21303e-05
2.2434e-05
7.21051e-06
8.91001e-06
2.24346e-05
7.21098e-06
1.21269e-05
3.66026e-06
1.0662e-05
4.46653e-06
1.21242e-05
1.06658e-05
4.47554e-06
2.24249e-05
7.21256e-06
8.91086e-06
7.21212e-06
2.24245e-05
1.84653e-05
1.84589e-05
1.21276e-05
3.67135e-06
4.49129e-06
1.06716e-05
4.48213e-06
1.06676e-05
1.21303e-05
2.24339e-05
7.2119e-06
8.91178e-06
2.24346e-05
7.21307e-06
1.21269e-05
3.66091e-06
4.4665e-06
1.06623e-05
1.21242e-05
4.47619e-06
1.06662e-05
2.2425e-05
7.21446e-06
8.9126e-06
7.21363e-06
2.24243e-05
1.84673e-05
1.84609e-05
9.72167e-06
2.19014e-05
2.19008e-05
2.19028e-05
2.19022e-05
9.72155e-06
3.96116e-06
1.9261e-06
9.03396e-06
5.13475e-06
3.95412e-06
1.93564e-06
9.03919e-06
3.96815e-06
1.92763e-06
9.03875e-06
5.13676e-06
3.96092e-06
1.93731e-06
9.04397e-06
9.72081e-06
2.19125e-05
2.19119e-05
9.72057e-06
2.19111e-05
2.19105e-05
3.9709e-06
9.04645e-06
5.14084e-06
1.95699e-06
1.94752e-06
9.04138e-06
3.97753e-06
3.97772e-06
9.05127e-06
5.14268e-06
1.95869e-06
1.94908e-06
9.04617e-06
3.98454e-06
1.8473e-05
1.84796e-05
1.8475e-05
1.84815e-05
9.71791e-06
2.19321e-05
2.19321e-05
9.71787e-06
2.19304e-05
2.19306e-05
3.93667e-06
1.91413e-06
5.1217e-06
9.03135e-06
9.02593e-06
1.90405e-06
3.94427e-06
3.94408e-06
1.9151e-06
5.12315e-06
9.03674e-06
9.03124e-06
1.9062e-06
3.95068e-06
3.92646e-06
9.01787e-06
1.88188e-06
5.11469e-06
3.91892e-06
9.02348e-06
1.89191e-06
3.93316e-06
9.02316e-06
1.88386e-06
5.11709e-06
3.92615e-06
9.02879e-06
1.8931e-06
9.71907e-06
2.19205e-05
2.19206e-05
2.19219e-05
2.19219e-05
9.71942e-06
1.21202e-05
1.06523e-05
4.43218e-06
3.6125e-06
1.21173e-05
1.06558e-05
4.44238e-06
2.24448e-05
8.90513e-06
7.20921e-06
2.24441e-05
7.20868e-06
2.24539e-05
7.20604e-06
8.90422e-06
2.24543e-05
7.20702e-06
1.21209e-05
3.62487e-06
1.06606e-05
4.45953e-06
1.21236e-05
1.06571e-05
4.44999e-06
1.21202e-05
1.06524e-05
4.43216e-06
3.61255e-06
1.21174e-05
1.06559e-05
4.44298e-06
2.24447e-05
8.90592e-06
7.2115e-06
7.21005e-06
2.24441e-05
2.24536e-05
7.20745e-06
8.90506e-06
2.24542e-05
7.20916e-06
1.21208e-05
3.62486e-06
1.06607e-05
4.46009e-06
1.06572e-05
4.44986e-06
1.21235e-05
1.84739e-05
1.84804e-05
9.71797e-06
2.19319e-05
2.19326e-05
9.71767e-06
2.19303e-05
2.19311e-05
3.94341e-06
1.91535e-06
5.12318e-06
9.0361e-06
1.90567e-06
9.03087e-06
3.9508e-06
3.93634e-06
1.91362e-06
5.12169e-06
9.03146e-06
9.02625e-06
1.90402e-06
3.94399e-06
3.93298e-06
9.02292e-06
1.88361e-06
5.11676e-06
1.89325e-06
3.92567e-06
9.02856e-06
3.92612e-06
9.01829e-06
1.88194e-06
5.11459e-06
3.91858e-06
9.02393e-06
1.89146e-06
9.71897e-06
2.19196e-05
2.19203e-05
2.19213e-05
2.1922e-05
9.71899e-06
1.84726e-05
1.84792e-05
1.21202e-05
4.43213e-06
1.06526e-05
3.613e-06
1.21174e-05
4.44299e-06
1.0656e-05
2.24442e-05
8.90671e-06
7.21119e-06
2.24435e-05
7.20983e-06
2.24532e-05
7.20732e-06
8.90587e-06
2.2454e-05
7.20901e-06
1.21208e-05
3.62461e-06
4.46012e-06
1.0661e-05
1.21235e-05
4.44983e-06
1.06573e-05
1.21205e-05
1.06525e-05
4.43227e-06
3.61293e-06
1.21177e-05
1.06559e-05
4.44227e-06
2.24446e-05
8.90637e-06
7.209e-06
7.20858e-06
2.24439e-05
2.24542e-05
7.20631e-06
8.90555e-06
2.24548e-05
7.20696e-06
1.21211e-05
3.62459e-06
1.06609e-05
4.45945e-06
1.06573e-05
4.44992e-06
1.21239e-05
1.21199e-05
4.43201e-06
1.06526e-05
3.61274e-06
1.21171e-05
4.44288e-06
1.0656e-05
2.24438e-05
8.90615e-06
7.21112e-06
7.20953e-06
2.24432e-05
2.24526e-05
7.20682e-06
8.90524e-06
2.24532e-05
7.20857e-06
1.21205e-05
3.62511e-06
4.46007e-06
1.0661e-05
4.44981e-06
1.06573e-05
1.21234e-05
1.21202e-05
1.06524e-05
4.43193e-06
3.61264e-06
1.21174e-05
1.06559e-05
4.44267e-06
2.24439e-05
8.90586e-06
7.20946e-06
7.20804e-06
2.24432e-05
2.24529e-05
7.20534e-06
8.90501e-06
2.24536e-05
7.20711e-06
1.21208e-05
3.62506e-06
1.06609e-05
4.45988e-06
1.06572e-05
4.4497e-06
1.21236e-05
1.84759e-05
1.84824e-05
9.71875e-06
2.19329e-05
2.1933e-05
9.71822e-06
2.19317e-05
2.19317e-05
3.94396e-06
1.91546e-06
5.12372e-06
9.03669e-06
1.9061e-06
9.03134e-06
3.95123e-06
3.937e-06
1.91386e-06
5.12149e-06
9.03155e-06
9.02623e-06
1.90427e-06
3.94409e-06
3.93358e-06
9.0231e-06
1.88392e-06
5.11658e-06
1.89337e-06
3.92615e-06
9.02893e-06
3.9264e-06
9.01807e-06
1.88215e-06
5.11494e-06
3.9192e-06
9.0238e-06
1.89172e-06
9.72024e-06
2.19216e-05
2.19216e-05
2.19232e-05
2.19233e-05
9.72038e-06
1.84737e-05
1.84802e-05
1.21201e-05
4.4319e-06
1.06526e-05
3.61308e-06
1.21174e-05
4.44273e-06
1.06559e-05
2.24439e-05
8.90582e-06
7.20911e-06
7.20776e-06
2.24432e-05
2.24528e-05
7.20521e-06
8.90499e-06
2.24535e-05
7.20687e-06
1.21207e-05
3.6246e-06
4.45973e-06
1.06609e-05
4.44954e-06
1.06572e-05
1.21234e-05
1.212e-05
4.43205e-06
1.06526e-05
3.61319e-06
1.21171e-05
4.44306e-06
1.06561e-05
2.2444e-05
8.90707e-06
7.21145e-06
7.20999e-06
2.24432e-05
2.24528e-05
7.2071e-06
8.90618e-06
2.24534e-05
7.20907e-06
1.21206e-05
3.62472e-06
4.4603e-06
1.0661e-05
4.44989e-06
1.06574e-05
1.21234e-05
9.71854e-06
2.19333e-05
2.19327e-05
9.71865e-06
2.19315e-05
2.19308e-05
3.93691e-06
1.91396e-06
5.1215e-06
9.03165e-06
3.94411e-06
1.90435e-06
9.02617e-06
3.94373e-06
1.91562e-06
5.12341e-06
9.03645e-06
3.95108e-06
1.90591e-06
9.031e-06
3.92658e-06
9.0183e-06
1.88204e-06
5.11505e-06
3.91901e-06
1.89179e-06
9.02377e-06
3.93356e-06
9.02311e-06
1.8836e-06
5.11717e-06
3.92584e-06
1.89349e-06
9.02861e-06
9.71919e-06
2.1921e-05
2.19204e-05
9.71937e-06
2.19225e-05
2.19219e-05
1.84738e-05
1.84804e-05
1.84754e-05
1.8482e-05
1.84644e-05
1.8458e-05
1.84663e-05
1.84599e-05
9.72133e-06
2.19008e-05
2.1901e-05
2.19023e-05
2.19024e-05
9.72102e-06
3.96165e-06
1.92575e-06
9.03364e-06
5.13439e-06
3.9538e-06
9.03878e-06
1.93604e-06
3.96768e-06
1.92806e-06
9.039e-06
5.13672e-06
3.96149e-06
9.04416e-06
1.93674e-06
9.72079e-06
2.19121e-05
2.19122e-05
9.72073e-06
2.19107e-05
2.19109e-05
3.97e-06
9.04612e-06
5.14081e-06
1.95738e-06
9.04102e-06
3.97803e-06
1.94703e-06
3.97827e-06
9.05148e-06
5.14237e-06
1.95783e-06
9.04636e-06
3.9835e-06
1.94966e-06
1.84435e-05
1.84497e-05
1.84457e-05
1.84517e-05
9.72064e-06
2.18921e-05
2.18921e-05
9.72122e-06
2.18904e-05
2.189e-05
3.99934e-06
1.99886e-06
5.15784e-06
9.06078e-06
9.05534e-06
1.98754e-06
4.01088e-06
4.00932e-06
1.99757e-06
5.15992e-06
9.06394e-06
9.06013e-06
1.99065e-06
4.01146e-06
3.99372e-06
9.04831e-06
1.96748e-06
5.15192e-06
3.98474e-06
9.05324e-06
1.97798e-06
3.99854e-06
9.05365e-06
1.9705e-06
5.15416e-06
3.99356e-06
9.05833e-06
1.97802e-06
9.72087e-06
2.18806e-05
2.18789e-05
2.18815e-05
2.18806e-05
9.72058e-06
1.21275e-05
3.67157e-06
1.06714e-05
4.49127e-06
1.06674e-05
4.48211e-06
1.21303e-05
2.24344e-05
7.2122e-06
8.91099e-06
2.24352e-05
7.21322e-06
1.21269e-05
3.66039e-06
1.06621e-05
4.4665e-06
1.06659e-05
1.21241e-05
4.47616e-06
2.24252e-05
7.21438e-06
8.91177e-06
7.2137e-06
2.24244e-05
1.21336e-05
1.06727e-05
4.49686e-06
3.70311e-06
1.21308e-05
1.06766e-05
4.50504e-06
2.24059e-05
8.91652e-06
7.21387e-06
7.21389e-06
2.24051e-05
2.24153e-05
7.21332e-06
8.91578e-06
2.24156e-05
7.2135e-06
1.2134e-05
3.71314e-06
1.06819e-05
4.51804e-06
1.0678e-05
4.51059e-06
1.21365e-05
1.21336e-05
1.06729e-05
4.49683e-06
3.70322e-06
1.21309e-05
1.06768e-05
4.50551e-06
2.24064e-05
8.91757e-06
7.21653e-06
7.21599e-06
2.24057e-05
2.24149e-05
7.21482e-06
8.91672e-06
2.24155e-05
7.21556e-06
1.21341e-05
3.71321e-06
1.0682e-05
4.51879e-06
1.06782e-05
4.51066e-06
1.21366e-05
9.7213e-06
2.1901e-05
2.19017e-05
2.19026e-05
2.19033e-05
9.72101e-06
3.96805e-06
1.92761e-06
9.03839e-06
5.13633e-06
9.04376e-06
3.96109e-06
1.93726e-06
3.96124e-06
1.92602e-06
9.03377e-06
5.13436e-06
1.93556e-06
3.95406e-06
9.03911e-06
9.72029e-06
2.19111e-05
2.19119e-05
2.19102e-05
9.71994e-06
2.19109e-05
3.97752e-06
9.05133e-06
5.14221e-06
1.95833e-06
9.0461e-06
1.94903e-06
3.98372e-06
3.97043e-06
9.04663e-06
5.14066e-06
1.95656e-06
1.94741e-06
9.04145e-06
3.97685e-06
1.84639e-05
1.84575e-05
1.84447e-05
1.84509e-05
9.72032e-06
2.18915e-05
2.18922e-05
9.72107e-06
2.18894e-05
2.189e-05
4.00824e-06
1.99925e-06
5.15974e-06
9.06477e-06
1.98992e-06
9.06002e-06
4.01466e-06
4.00119e-06
1.99754e-06
5.15798e-06
9.06002e-06
9.05525e-06
1.9883e-06
4.00787e-06
3.999e-06
9.05339e-06
1.96958e-06
5.15416e-06
1.97881e-06
3.99274e-06
9.05805e-06
3.99216e-06
9.04867e-06
1.96791e-06
5.15207e-06
3.98563e-06
9.05327e-06
1.97704e-06
9.72056e-06
2.18794e-05
2.18801e-05
2.18803e-05
2.1881e-05
9.72057e-06
1.84431e-05
1.84493e-05
1.2128e-05
3.67134e-06
1.06715e-05
4.49097e-06
1.06676e-05
4.48252e-06
1.21308e-05
2.24343e-05
7.21054e-06
8.91144e-06
2.24346e-05
7.21117e-06
1.21274e-05
3.66086e-06
1.06623e-05
4.46669e-06
1.06661e-05
1.21246e-05
4.47574e-06
2.24257e-05
7.2131e-06
8.9124e-06
7.21265e-06
2.24254e-05
1.21335e-05
4.49678e-06
1.06731e-05
3.70355e-06
1.21309e-05
4.50543e-06
1.0677e-05
2.24054e-05
8.91821e-06
7.21591e-06
7.21554e-06
2.24047e-05
2.24144e-05
7.21482e-06
8.91744e-06
2.24152e-05
7.21528e-06
1.2134e-05
3.7129e-06
4.51865e-06
1.06823e-05
4.51047e-06
1.06784e-05
1.21365e-05
1.21339e-05
1.0673e-05
4.49723e-06
3.70354e-06
1.21313e-05
1.06768e-05
4.50504e-06
2.24058e-05
8.91808e-06
7.21407e-06
7.2143e-06
2.2405e-05
2.24156e-05
7.21396e-06
8.91739e-06
2.24164e-05
7.2139e-06
1.21344e-05
3.71293e-06
1.06821e-05
4.51808e-06
1.06783e-05
4.51079e-06
1.21368e-05
1.21274e-05
3.67164e-06
4.49124e-06
1.06715e-05
4.48216e-06
1.06677e-05
1.21301e-05
2.24337e-05
7.21192e-06
8.91134e-06
7.21305e-06
2.24344e-05
1.21268e-05
3.66056e-06
4.46651e-06
1.06624e-05
4.4762e-06
1.2124e-05
1.06663e-05
2.24245e-05
7.2141e-06
8.91216e-06
7.21354e-06
2.24237e-05
1.21276e-05
3.67159e-06
1.06713e-05
4.49111e-06
1.06675e-05
4.4821e-06
1.21302e-05
2.24333e-05
7.21022e-06
8.91088e-06
2.24341e-05
7.21131e-06
1.2127e-05
3.66046e-06
1.06623e-05
4.46643e-06
1.21242e-05
1.06661e-05
4.47603e-06
2.24243e-05
7.21264e-06
8.91169e-06
7.21189e-06
2.24236e-05
1.21331e-05
4.49672e-06
1.06729e-05
3.70316e-06
1.21306e-05
4.50525e-06
1.06767e-05
2.24047e-05
8.9175e-06
7.21559e-06
7.21518e-06
2.2404e-05
2.24137e-05
7.21442e-06
8.91671e-06
2.24144e-05
7.21486e-06
1.21336e-05
3.71317e-06
4.51847e-06
1.06822e-05
4.51035e-06
1.06782e-05
1.21361e-05
1.21332e-05
1.06727e-05
4.49671e-06
3.7031e-06
1.21307e-05
1.06766e-05
4.50515e-06
2.24046e-05
8.91721e-06
7.2138e-06
7.21363e-06
2.24039e-05
2.24137e-05
7.21303e-06
8.9165e-06
2.24145e-05
7.2134e-06
1.21337e-05
3.71316e-06
1.0682e-05
4.51826e-06
1.06781e-05
4.51032e-06
1.21362e-05
9.72184e-06
2.1902e-05
2.1902e-05
2.19033e-05
2.19034e-05
9.7218e-06
3.9684e-06
1.92796e-06
9.03891e-06
5.13635e-06
9.04409e-06
3.96142e-06
1.93731e-06
3.96129e-06
1.92614e-06
9.03383e-06
5.13473e-06
1.93575e-06
3.95445e-06
9.03902e-06
9.72112e-06
2.19128e-05
2.19129e-05
2.19114e-05
9.72112e-06
2.19115e-05
3.97799e-06
9.0516e-06
5.14263e-06
1.95848e-06
9.04637e-06
1.94941e-06
3.9843e-06
3.971e-06
9.04656e-06
5.14064e-06
1.95693e-06
1.94757e-06
9.04132e-06
3.97724e-06
1.84652e-05
1.84588e-05
1.84465e-05
1.84527e-05
9.72162e-06
2.18932e-05
2.18933e-05
9.72212e-06
2.18912e-05
2.18913e-05
4.00865e-06
1.99933e-06
5.16008e-06
9.06508e-06
1.99032e-06
9.06044e-06
4.01499e-06
4.00167e-06
1.99778e-06
5.15803e-06
9.06002e-06
9.05537e-06
1.98849e-06
4.00792e-06
3.9995e-06
9.05372e-06
1.97005e-06
5.15413e-06
1.97898e-06
3.99334e-06
9.05849e-06
3.99244e-06
9.04867e-06
1.96821e-06
5.15238e-06
3.98636e-06
9.05341e-06
1.97743e-06
9.72186e-06
2.18809e-05
2.1881e-05
2.18821e-05
2.18822e-05
9.72168e-06
1.84444e-05
1.84505e-05
1.21275e-05
3.67126e-06
4.49106e-06
1.06714e-05
4.48182e-06
1.06676e-05
1.21303e-05
2.24333e-05
7.20983e-06
8.91081e-06
7.21086e-06
2.24341e-05
1.21269e-05
3.66091e-06
4.46609e-06
1.06623e-05
4.47582e-06
1.21241e-05
1.06661e-05
2.24242e-05
7.21229e-06
8.91164e-06
7.21145e-06
2.24236e-05
1.21273e-05
3.67138e-06
4.49147e-06
1.06715e-05
4.48224e-06
1.06676e-05
1.213e-05
2.24333e-05
7.21212e-06
8.91211e-06
2.24341e-05
7.21318e-06
1.21267e-05
3.66106e-06
4.46662e-06
1.06624e-05
1.2124e-05
4.47642e-06
1.06662e-05
2.24243e-05
7.21458e-06
8.9129e-06
7.21372e-06
2.24235e-05
1.21335e-05
4.49662e-06
1.06729e-05
3.70356e-06
1.21309e-05
4.50526e-06
1.06767e-05
2.24055e-05
8.91754e-06
7.21416e-06
7.21387e-06
2.24047e-05
2.24143e-05
7.21281e-06
8.91675e-06
2.24148e-05
7.21352e-06
1.2134e-05
3.71284e-06
4.5184e-06
1.06821e-05
4.51033e-06
1.06782e-05
1.21364e-05
1.21331e-05
4.49686e-06
1.06729e-05
3.70367e-06
1.21305e-05
4.50557e-06
1.06768e-05
2.24047e-05
8.91846e-06
7.21579e-06
7.21562e-06
2.24039e-05
2.24138e-05
7.21497e-06
8.91775e-06
2.24145e-05
7.21546e-06
1.21336e-05
3.71294e-06
4.51873e-06
1.06822e-05
4.51055e-06
1.06783e-05
1.2136e-05
1.84651e-05
1.84588e-05
1.84666e-05
1.84603e-05
9.72139e-06
2.18931e-05
2.18925e-05
9.72186e-06
2.18915e-05
2.18909e-05
4.00119e-06
1.99751e-06
5.15792e-06
9.06009e-06
1.98846e-06
9.05554e-06
4.00718e-06
4.00797e-06
1.99917e-06
5.15984e-06
9.0649e-06
1.99002e-06
9.06038e-06
4.01414e-06
3.99255e-06
9.04861e-06
1.9684e-06
5.15227e-06
3.98659e-06
1.97755e-06
9.05355e-06
3.99955e-06
9.05345e-06
1.96999e-06
5.15434e-06
3.99342e-06
1.97925e-06
9.05841e-06
9.72145e-06
2.18806e-05
2.18799e-05
2.18825e-05
2.18819e-05
9.72077e-06
1.84443e-05
1.84505e-05
1.84458e-05
1.8452e-05
1.17709e-07
1.17705e-07
1.33137e-07
1.16608e-07
1.16605e-07
1.09943e-07
1.11234e-07
1.74022e-06
7.67617e-07
7.67919e-07
3.58974e-07
1.73339e-06
7.71633e-07
7.71912e-07
1.71073e-06
3.52238e-07
7.56492e-07
7.56798e-07
7.52526e-07
7.52835e-07
1.71764e-06
1.71048e-06
3.52202e-07
7.56699e-07
7.56417e-07
7.52737e-07
7.52462e-07
1.71746e-06
1.71078e-06
3.5227e-07
7.56831e-07
7.56563e-07
7.52877e-07
7.52592e-07
1.71774e-06
1.71074e-06
3.52262e-07
7.56561e-07
7.56835e-07
1.7177e-06
7.52571e-07
7.52869e-07
1.74016e-06
7.67571e-07
7.67884e-07
3.58945e-07
1.73339e-06
7.71564e-07
7.71871e-07
1.79811e-06
3.77653e-07
8.17758e-07
8.16938e-07
8.12879e-07
8.13702e-07
1.80456e-06
1.74007e-06
7.67786e-07
7.67514e-07
3.58903e-07
7.71504e-07
1.73323e-06
7.71782e-07
1.79815e-06
3.77621e-07
8.17457e-07
8.17162e-07
8.13409e-07
8.13118e-07
1.80462e-06
1.7403e-06
7.67921e-07
7.67635e-07
3.58981e-07
7.71652e-07
1.73345e-06
7.71916e-07
1.79846e-06
3.77715e-07
8.17639e-07
8.1736e-07
8.13602e-07
8.13301e-07
1.80489e-06
1.7983e-06
3.77701e-07
8.17295e-07
8.17595e-07
8.13261e-07
8.13587e-07
1.80462e-06
1.35122e-07
1.18845e-07
1.18843e-07
1.20019e-07
1.20015e-07
1.13904e-07
1.12555e-07
1.35118e-07
1.18845e-07
1.18841e-07
1.20019e-07
1.20014e-07
1.13904e-07
1.12554e-07
1.35125e-07
1.18848e-07
1.18845e-07
1.2002e-07
1.20016e-07
1.13905e-07
1.12556e-07
1.35121e-07
1.18846e-07
1.18843e-07
1.20019e-07
1.20016e-07
1.13905e-07
1.12555e-07
1.17709e-07
1.17704e-07
1.33136e-07
1.16608e-07
1.16604e-07
1.09943e-07
1.11234e-07
1.17712e-07
1.17707e-07
1.33145e-07
1.16611e-07
1.16607e-07
1.09944e-07
1.11235e-07
1.17709e-07
1.17706e-07
1.3314e-07
1.16609e-07
1.16605e-07
1.09943e-07
1.11235e-07
1.32576e-07
1.14513e-07
1.14511e-07
1.15543e-07
1.15538e-07
1.08679e-07
1.07443e-07
1.32572e-07
1.14513e-07
1.14509e-07
1.15543e-07
1.15539e-07
1.08679e-07
1.07443e-07
1.32584e-07
1.14517e-07
1.14513e-07
1.15546e-07
1.15541e-07
1.0868e-07
1.07444e-07
1.32576e-07
1.14514e-07
1.14511e-07
1.15544e-07
1.1554e-07
1.0868e-07
1.07444e-07
4.76684e-07
1.15203e-06
1.475e-06
3.88757e-07
1.46841e-06
3.87244e-07
4.78166e-07
6.56099e-07
1.00127e-06
2.07342e-06
2.80169e-06
6.53891e-07
1.00612e-06
2.07952e-06
4.69306e-07
1.13743e-06
1.44641e-06
3.80216e-07
4.67863e-07
1.4531e-06
3.81675e-07
6.65674e-07
2.10017e-06
2.81464e-06
1.02325e-06
1.01839e-06
2.09424e-06
6.67914e-07
4.76671e-07
1.15206e-06
3.88782e-07
1.47489e-06
3.87271e-07
1.46826e-06
4.78163e-07
6.56037e-07
1.00135e-06
2.07299e-06
2.80185e-06
6.5382e-07
1.00622e-06
2.07908e-06
4.693e-07
1.13742e-06
3.80237e-07
1.44626e-06
4.67855e-07
3.81692e-07
1.45295e-06
6.65594e-07
2.09977e-06
2.81466e-06
1.02334e-06
1.01845e-06
2.09378e-06
6.67852e-07
1.75564e-06
3.64609e-07
7.86818e-07
7.87106e-07
7.82782e-07
7.83092e-07
1.7623e-06
1.69468e-06
3.46945e-07
7.37613e-07
7.3791e-07
1.68761e-06
7.41547e-07
7.41845e-07
4.52194e-07
1.40158e-06
3.66836e-07
1.09473e-06
4.50829e-07
1.40846e-06
3.68177e-07
6.42214e-07
9.89234e-07
2.77746e-06
2.05819e-06
9.84374e-07
2.05192e-06
6.44418e-07
6.32952e-07
2.03025e-06
9.67376e-07
2.76386e-06
9.72216e-07
6.30789e-07
2.03669e-06
4.59201e-07
1.10937e-06
1.43085e-06
3.74783e-07
1.42404e-06
3.73389e-07
4.60613e-07
4.52264e-07
1.4018e-06
3.66848e-07
1.09477e-06
4.50902e-07
1.40868e-06
3.68196e-07
6.4243e-07