/*--------------------------------*- C++ -*----------------------------------*\
| =========                 |                                                 |
| \\      /  F ield         | OpenFOAM: The Open Source CFD Toolbox           |
|  \\    /   O peration     | Version:  v1906                                 |
|   \\  /    A nd           | Web:      www.OpenFOAM.com                      |
|    \\/     M anipulation  |                                                 |
\*---------------------------------------------------------------------------*/
FoamFile
{
    version     2.0;
    format      ascii;
    class       volScalarField;
    location    "1000";
    object      k;
}
// * * * * * * * * * * * * * * * * * * * * * * * * * * * * * * * * * * * * * //

dimensions      [0 2 -2 0 0 0 0];


internalField   nonuniform List<scalar> 
43248
(
3.83821e-05
3.1667e-05
3.10371e-05
3.51356e-05
3.22462e-05
4.39585e-05
3.1332e-05
3.36679e-05
5.10033e-05
4.44627e-05
3.42525e-05
3.89051e-05
1.79134e-05
1.68124e-05
2.66899e-05
1.82565e-05
7.05812e-05
7.0363e-05
6.69166e-05
6.72577e-05
6.32996e-05
7.23358e-05
6.40428e-05
6.33823e-05
7.0711e-05
7.03679e-05
6.38034e-05
5.09664e-05
5.97653e-05
2.59223e-05
2.59137e-05
5.16062e-05
5.11418e-05
3.1525e-05
5.71159e-05
2.57931e-05
5.74599e-05
2.59105e-05
5.13477e-05
6.88419e-05
6.85768e-05
3.68779e-05
6.34342e-05
6.31076e-05
6.39182e-05
6.40815e-05
6.8557e-05
6.83608e-05
7.19732e-05
6.4897e-05
6.04345e-05
2.73268e-05
5.40062e-05
7.00532e-05
6.49904e-05
3.1732e-05
6.17692e-05
5.45131e-05
5.25318e-05
3.19104e-05
5.71069e-05
2.62944e-05
5.78968e-05
2.6413e-05
5.21763e-05
6.41227e-05
7.03332e-05
7.02603e-05
6.38644e-05
5.26562e-05
3.37008e-05
2.68347e-05
5.85866e-05
2.68025e-05
5.90236e-05
5.24164e-05
6.42595e-05
7.06067e-05
7.06698e-05
6.39813e-05
6.77778e-05
6.69442e-05
6.68835e-05
6.76092e-05
5.58977e-05
3.26661e-05
6.19796e-05
3.22633e-05
5.54229e-05
5.51657e-05
3.41876e-05
2.90628e-05
5.88948e-05
2.84977e-05
6.01777e-05
5.48567e-05
6.62109e-05
6.98169e-05
6.49497e-05
6.583e-05
7.02137e-05
7.05391e-05
6.46979e-05
3.93436e-05
6.46755e-05
6.45797e-05
6.51275e-05
6.59794e-05
6.87511e-05
6.86928e-05
6.84408e-05
6.85205e-05
7.04881e-05
7.03016e-05
6.78463e-05
5.90017e-05
6.55444e-05
7.36161e-05
7.31678e-05
5.69972e-05
6.98108e-05
6.85737e-05
5.97502e-05
6.61759e-05
7.35643e-05
7.31976e-05
5.79197e-05
7.04012e-05
8.92918e-05
7.33737e-05
7.33216e-05
7.30803e-05
7.30469e-05
9.1626e-05
7.01629e-05
6.97585e-05
6.65693e-05
6.34916e-05
7.00783e-05
6.98362e-05
6.69045e-05
7.03753e-05
7.21696e-05
7.7252e-05
7.68062e-05
7.0428e-05
7.02152e-05
6.37499e-05
6.99353e-05
6.77374e-05
6.98902e-05
6.73213e-05
7.02578e-05
7.00141e-05
6.97127e-05
6.6816e-05
6.34278e-05
6.99456e-05
6.97884e-05
6.68423e-05
6.99736e-05
7.05983e-05
7.6578e-05
7.63573e-05
7.00116e-05
6.99518e-05
7.59649e-05
7.04828e-05
6.98831e-05
7.61354e-05
7.00609e-05
6.3574e-05
6.98936e-05
6.71737e-05
6.98442e-05
6.69482e-05
7.01076e-05
6.87323e-05
6.8675e-05
8.74655e-05
7.03747e-05
7.03786e-05
8.80639e-05
7.04885e-05
7.04431e-05
6.50568e-05
5.41261e-05
6.35369e-05
6.9174e-05
5.43222e-05
6.89604e-05
6.47575e-05
6.5072e-05
5.41793e-05
6.33909e-05
6.88453e-05
6.87197e-05
5.44724e-05
6.47213e-05
6.54564e-05
6.87944e-05
5.50307e-05
6.37125e-05
5.46345e-05
6.59285e-05
6.8824e-05
6.55326e-05
6.87002e-05
5.54835e-05
6.37262e-05
6.60672e-05
6.86922e-05
5.49364e-05
8.70085e-05
7.07932e-05
7.06947e-05
7.06045e-05
7.05336e-05
8.6733e-05
6.84489e-05
6.84008e-05
7.00647e-05
7.18765e-05
7.71656e-05
7.70722e-05
7.00667e-05
6.99225e-05
6.49744e-05
6.81331e-05
6.96158e-05
6.81106e-05
6.96333e-05
6.99164e-05
6.97487e-05
7.03057e-05
7.76506e-05
7.78927e-05
6.97168e-05
6.97925e-05
6.52463e-05
6.95672e-05
6.85284e-05
6.95965e-05
6.88688e-05
6.97499e-05
6.97647e-05
6.74161e-05
6.95395e-05
6.40324e-05
6.97643e-05
6.73388e-05
6.95345e-05
6.97197e-05
7.02725e-05
7.62158e-05
7.62729e-05
6.97244e-05
6.97298e-05
7.64166e-05
7.02593e-05
6.97277e-05
7.63678e-05
6.97659e-05
6.39168e-05
6.71647e-05
6.95313e-05
6.72208e-05
6.95297e-05
6.9778e-05
6.98111e-05
6.95591e-05
6.76891e-05
6.41708e-05
6.98201e-05
6.95512e-05
6.76025e-05
6.97238e-05
7.06168e-05
7.63692e-05
7.64198e-05
6.97363e-05
6.97302e-05
7.66361e-05
7.0644e-05
6.97318e-05
7.65453e-05
6.97965e-05
6.40416e-05
6.95387e-05
6.74054e-05
6.95402e-05
6.74618e-05
6.97951e-05
6.79656e-05
7.61497e-05
6.37359e-05
6.87888e-05
6.75737e-05
6.62424e-05
6.83082e-05
7.29065e-05
7.62517e-05
6.4085e-05
6.89266e-05
6.73939e-05
6.81934e-05
6.66678e-05
7.29612e-05
9.4019e-05
6.88416e-05
6.87601e-05
6.91731e-05
6.91255e-05
8.99589e-05
6.78134e-05
6.9644e-05
7.0085e-05
6.94962e-05
6.60658e-05
6.97624e-05
6.98122e-05
6.93852e-05
6.9579e-05
7.01267e-05
7.74187e-05
7.79067e-05
6.95202e-05
6.97173e-05
7.85446e-05
6.95196e-05
6.55163e-05
6.84997e-05
6.91905e-05
6.90876e-05
6.92685e-05
6.94442e-05
6.95784e-05
6.89885e-05
6.94736e-05
6.56928e-05
6.96672e-05
6.86399e-05
6.93708e-05
6.93524e-05
7.02846e-05
7.60413e-05
7.64641e-05
6.93295e-05
6.9435e-05
7.74733e-05
7.04034e-05
6.95105e-05
7.70077e-05
6.94894e-05
6.51983e-05
6.76381e-05
6.9194e-05
6.80824e-05
6.9264e-05
6.94411e-05
9.01893e-05
7.08555e-05
7.08924e-05
9.05548e-05
7.08503e-05
7.0861e-05
6.75928e-05
5.67498e-05
6.47684e-05
6.94978e-05
5.69796e-05
6.95005e-05
6.73003e-05
6.80881e-05
5.72609e-05
6.49973e-05
6.93243e-05
5.76673e-05
6.93995e-05
6.76532e-05
6.79883e-05
6.95693e-05
5.7597e-05
6.49343e-05
6.83083e-05
5.73254e-05
6.95265e-05
6.8623e-05
6.96543e-05
5.85904e-05
6.55169e-05
6.90411e-05
5.81965e-05
6.952e-05
8.97273e-05
7.08649e-05
7.08073e-05
7.08451e-05
7.08162e-05
8.93248e-05
6.87075e-05
6.86968e-05
6.8441e-05
6.8475e-05
5.7489e-05
3.56677e-05
4.95043e-05
5e-05
4.69444e-05
4.74659e-05
5.98719e-05
5.3733e-05
3.56346e-05
4.42197e-05
4.42934e-05
4.45009e-05
4.46402e-05
5.34461e-05
6.81003e-05
5.20352e-05
5.77145e-05
5.79571e-05
5.95313e-05
5.97872e-05
6.54574e-05
5.72396e-05
3.91764e-05
4.77329e-05
4.80884e-05
4.80271e-05
4.84366e-05
5.688e-05
1.35001e-05
1.40771e-05
1.35596e-05
1.04008e-05
1.03757e-05
1.72125e-05
1.31163e-05
1.3092e-05
1.32755e-05
1.32461e-05
1.01507e-05
1.00644e-05
1.66329e-05
1.67666e-05
1.62187e-05
1.08263e-05
1.1047e-05
1.82676e-05
1.33902e-05
1.40918e-05
1.34428e-05
1.38946e-05
1.02591e-05
1.02464e-05
4.2252e-05
5.28246e-05
4.09964e-05
5.1021e-05
4.22109e-05
5.3015e-05
4.09829e-05
4.46011e-05
5.13111e-05
5.86198e-05
5.76853e-05
4.97318e-05
5.67228e-05
4.57744e-05
4.2676e-05
5.1249e-05
5.42411e-05
4.12711e-05
5.3596e-05
4.11146e-05
4.31519e-05
4.29182e-05
5.33317e-05
4.12329e-05
5.11471e-05
4.306e-05
5.33177e-05
4.11825e-05
4.45532e-05
4.81404e-05
5.72102e-05
5.58843e-05
5.58947e-05
4.82687e-05
4.44349e-05
4.45943e-05
5.5975e-05
4.87487e-05
5.73358e-05
4.48553e-05
5.59329e-05
4.84253e-05
4.29307e-05
5.11962e-05
5.33424e-05
4.12563e-05
5.3318e-05
4.12238e-05
4.288e-05
5.41911e-05
3.60166e-05
4.55699e-05
4.58496e-05
4.49211e-05
5.47817e-05
4.51354e-05
4.66873e-05
5.26161e-05
5.9573e-05
5.88097e-05
5.11866e-05
5.81735e-05
4.76891e-05
4.52266e-05
5.3939e-05
5.60621e-05
4.45491e-05
5.57021e-05
4.43104e-05
4.57767e-05
5.31707e-05
5.69853e-05
6.33614e-05
6.03885e-05
6.14944e-05
5.86203e-05
5.24898e-05
4.8869e-05
5.45849e-05
4.54957e-05
5.7237e-05
4.54862e-05
5.77521e-05
4.86661e-05
4.41363e-05
5.44968e-05
4.26946e-05
5.24568e-05
4.43424e-05
5.43212e-05
4.26501e-05
4.52532e-05
4.83929e-05
5.72892e-05
5.61291e-05
4.86739e-05
5.62738e-05
4.49305e-05
4.54878e-05
5.67836e-05
4.95703e-05
5.75709e-05
4.59569e-05
4.90511e-05
5.65277e-05
4.40584e-05
5.22821e-05
5.39785e-05
4.25082e-05
5.40972e-05
4.26406e-05
4.3786e-05
4.47182e-05
4.28648e-05
5.4936e-05
5.26294e-05
4.47482e-05
4.28485e-05
5.48988e-05
4.6724e-05
5.04914e-05
5.86981e-05
5.73319e-05
5.74486e-05
5.06854e-05
4.65424e-05
4.67682e-05
5.77397e-05
5.10916e-05
5.88804e-05
4.6846e-05
5.76333e-05
5.08751e-05
4.47405e-05
5.2521e-05
4.28025e-05
5.46672e-05
4.28711e-05
5.47688e-05
4.46391e-05
5.02068e-05
4.68007e-05
5.91943e-05
5.59057e-05
5.01806e-05
4.69182e-05
5.91469e-05
5.41632e-05
5.75841e-05
6.37727e-05
6.08265e-05
5.93206e-05
6.21784e-05
5.33687e-05
5.43696e-05
6.31743e-05
5.0196e-05
5.58041e-05
4.69162e-05
5.79449e-05
4.69785e-05
5.87951e-05
4.99074e-05
4.68263e-05
4.56739e-05
5.68562e-05
5.51816e-05
4.67658e-05
4.58011e-05
5.68402e-05
4.82269e-05
5.14451e-05
5.92934e-05
5.81343e-05
5.8589e-05
5.18383e-05
4.80275e-05
4.82443e-05
5.91789e-05
5.22414e-05
5.97939e-05
4.82539e-05
5.90388e-05
5.21462e-05
4.68895e-05
5.51188e-05
4.58593e-05
5.63167e-05
4.58926e-05
5.66984e-05
4.6829e-05
5.76944e-05
3.92328e-05
4.86164e-05
4.8999e-05
5.80472e-05
4.83238e-05
4.87861e-05
1.4937e-05
1.61522e-05
1.61528e-05
1.81308e-05
1.80223e-05
1.61319e-05
1.61322e-05
1.80218e-05
1.61321e-05
1.61324e-05
1.61316e-05
1.61321e-05
1.80228e-05
1.61322e-05
1.61324e-05
1.80226e-05
1.81306e-05
1.85956e-05
1.6152e-05
1.61527e-05
1.62488e-05
1.62484e-05
1.81303e-05
1.85949e-05
1.6153e-05
1.61529e-05
1.62481e-05
1.62491e-05
1.61526e-05
1.62482e-05
1.62487e-05
1.81312e-05
1.85962e-05
1.61529e-05
1.62487e-05
1.62494e-05
1.85963e-05
1.5025e-05
1.5025e-05
1.5025e-05
1.50252e-05
5.3542e-05
7.00323e-05
5.29154e-05
7.00581e-05
6.9629e-05
6.96078e-05
5.3541e-05
7.00373e-05
5.29174e-05
7.00636e-05
1.4937e-05
1.4937e-05
1.49371e-05
1.46905e-05
1.46905e-05
1.46906e-05
1.46907e-05
2.93929e-05
4.52078e-05
1.49117e-05
1.61786e-05
2.88265e-05
4.56393e-05
1.48616e-05
6.96295e-05
6.96082e-05
2.93917e-05
1.49118e-05
4.52038e-05
1.61788e-05
2.88269e-05
1.48614e-05
4.56439e-05
5.90068e-05
5.90194e-05
1.82944e-05
5.92954e-05
5.93067e-05
6.96435e-05
6.96659e-05
6.96454e-05
6.96674e-05
1.7878e-05
5.89485e-05
5.89613e-05
5.86468e-05
5.86589e-05
5.21143e-05
7.00281e-05
7.00004e-05
5.27898e-05
5.2117e-05
7.00327e-05
7.00056e-05
5.2791e-05
2.79782e-05
1.61172e-05
4.50003e-05
1.49643e-05
4.45635e-05
1.50229e-05
2.85394e-05
2.7979e-05
1.61176e-05
4.50121e-05
1.49644e-05
4.45613e-05
1.5023e-05
2.85404e-05
6.96451e-05
6.96671e-05
1.78772e-05
5.89617e-05
5.89504e-05
5.86578e-05
5.86452e-05
6.96434e-05
6.96654e-05
5.21156e-05
7.0033e-05
7.0006e-05
5.279e-05
2.79802e-05
1.61181e-05
4.50113e-05
1.49646e-05
4.45619e-05
1.50233e-05
2.85406e-05
5.21133e-05
7.00282e-05
7.00023e-05
5.27885e-05
2.79799e-05
1.61179e-05
1.49644e-05
4.50054e-05
1.5023e-05
4.45667e-05
2.85398e-05
2.79781e-05
1.61171e-05
4.50004e-05
1.49644e-05
4.45606e-05
1.5023e-05
2.85385e-05
5.21143e-05
7.0033e-05
7.00053e-05
5.2787e-05
2.79783e-05
1.61175e-05
1.49644e-05
4.50073e-05
1.50231e-05
4.45579e-05
2.85387e-05
5.21134e-05
7.00289e-05
7.00016e-05
5.27864e-05
6.96459e-05
6.96675e-05
1.78783e-05
5.89621e-05
5.89497e-05
5.86543e-05
5.86466e-05
6.96438e-05
6.96659e-05
2.79792e-05
1.61178e-05
1.49646e-05
4.50079e-05
1.50232e-05
4.45565e-05
2.85397e-05
2.79793e-05
1.61179e-05
1.49646e-05
4.50131e-05
1.50234e-05
4.45614e-05
2.85401e-05
5.21178e-05
7.00281e-05
7.00012e-05
5.27868e-05
5.21158e-05
7.00345e-05
7.0006e-05
5.27896e-05
1.78782e-05
5.89496e-05
5.89628e-05
5.86485e-05
5.86604e-05
6.96436e-05
6.96661e-05
6.96458e-05
6.96684e-05
6.96273e-05
6.96061e-05
6.96292e-05
6.9608e-05
5.90063e-05
5.90195e-05
1.8294e-05
5.92933e-05
5.9306e-05
6.957e-05
6.95902e-05
6.95722e-05
6.95923e-05
1.84142e-05
5.9619e-05
5.96275e-05
5.93482e-05
5.93598e-05
5.35415e-05
7.00371e-05
5.29166e-05
7.00626e-05
2.93899e-05
4.52112e-05
1.49114e-05
1.61789e-05
2.88264e-05
4.56358e-05
1.48611e-05
2.93902e-05
4.52071e-05
1.49115e-05
1.6179e-05
2.8827e-05
4.565e-05
1.48612e-05
5.36632e-05
7.00866e-05
7.00626e-05
5.42237e-05
5.36629e-05
7.00936e-05
7.00668e-05
5.42277e-05
2.96792e-05
1.62105e-05
4.62428e-05
1.47752e-05
4.58357e-05
1.48171e-05
3.02437e-05
2.96794e-05
1.62112e-05
4.62534e-05
1.47753e-05
4.58331e-05
1.48171e-05
3.02446e-05
5.90192e-05
5.90078e-05
1.82936e-05
5.93052e-05
5.92934e-05
6.9627e-05
6.96057e-05
6.95721e-05
6.95924e-05
1.84139e-05
5.96292e-05
5.96154e-05
5.936e-05
5.93484e-05
6.95697e-05
6.959e-05
2.9391e-05
4.52105e-05
1.49116e-05
1.61786e-05
2.88275e-05
4.56456e-05
1.48613e-05
5.35408e-05
7.00328e-05
5.2916e-05
7.00612e-05
2.93908e-05
1.49113e-05
4.5215e-05
1.61791e-05
2.88266e-05
1.48611e-05
4.56395e-05
5.3661e-05
7.00924e-05
7.00676e-05
5.42298e-05
2.96805e-05
1.62118e-05
4.62502e-05
1.47755e-05
4.58359e-05
1.48174e-05
3.0245e-05
5.3661e-05
7.00883e-05
7.00655e-05
5.42287e-05
2.96803e-05
1.62114e-05
1.47752e-05
4.62473e-05
1.48171e-05
4.5839e-05
3.02454e-05
5.35461e-05
7.00377e-05
5.2919e-05
7.00632e-05
2.93926e-05
1.49117e-05
4.52069e-05
1.61789e-05
2.88266e-05
1.48615e-05
4.56411e-05
5.35446e-05
7.00332e-05
5.29182e-05
7.00592e-05
2.96819e-05
1.62108e-05
4.62434e-05
1.47758e-05
4.58339e-05
1.48174e-05
3.02446e-05
5.36621e-05
7.00914e-05
7.00671e-05
5.42255e-05
2.96812e-05
1.62112e-05
1.47755e-05
4.62497e-05
1.48173e-05
4.58302e-05
3.02438e-05
5.36607e-05
7.0087e-05
7.00632e-05
5.42246e-05
5.90199e-05
5.90082e-05
1.82945e-05
5.93022e-05
5.92946e-05
6.96278e-05
6.96065e-05
6.95722e-05
6.95925e-05
1.84147e-05
5.96282e-05
5.96179e-05
5.93574e-05
5.93484e-05
6.95704e-05
6.95908e-05
2.93931e-05
1.49119e-05
4.52111e-05
1.61793e-05
2.88279e-05
1.48617e-05
4.56462e-05
5.35422e-05
7.00324e-05
5.29154e-05
7.00588e-05
5.35435e-05
7.00387e-05
5.29189e-05
7.00644e-05
2.96809e-05
1.62112e-05
1.47757e-05
4.62503e-05
1.48175e-05
4.5828e-05
3.0245e-05
2.96821e-05
1.62117e-05
1.47759e-05
4.6256e-05
1.48177e-05
4.58348e-05
3.02461e-05
5.36597e-05
7.0089e-05
7.00632e-05
5.42289e-05
5.36607e-05
7.00924e-05
7.00685e-05
5.42309e-05
6.96273e-05
6.96063e-05
6.96294e-05
6.96083e-05
1.84148e-05
5.96181e-05
5.9631e-05
5.93499e-05
5.93615e-05
6.95698e-05
6.95904e-05
6.95719e-05
6.95926e-05
6.98351e-05
5.32909e-05
6.91625e-05
5.95519e-05
6.91453e-05
5.93743e-05
6.98456e-05
7.09886e-05
7.40012e-05
7.00427e-05
7.09899e-05
7.40688e-05
6.98328e-05
5.31649e-05
6.91224e-05
5.91047e-05
6.98224e-05
6.91387e-05
5.92871e-05
7.09694e-05
7.41669e-05
7.00472e-05
7.40962e-05
7.09685e-05
6.96263e-05
6.96103e-05
6.98365e-05
5.32941e-05
5.95569e-05
6.91629e-05
5.93783e-05
6.91458e-05
6.98471e-05
7.09907e-05
7.40171e-05
7.00484e-05
7.09921e-05
7.40907e-05
6.98341e-05
5.31705e-05
5.91068e-05
6.9123e-05
6.98234e-05
5.92901e-05
6.91395e-05
7.09719e-05
7.41902e-05
7.00527e-05
7.41194e-05
7.09703e-05
6.96268e-05
6.96106e-05
8.74524e-05
7.24151e-05
7.24093e-05
7.24181e-05
7.24123e-05
8.75343e-05
5.70784e-05
3.89642e-05
6.8791e-05
5.91238e-05
5.68984e-05
3.91878e-05
6.88175e-05
5.71427e-05
3.89832e-05
6.88031e-05
5.91353e-05
5.69649e-05
3.9206e-05
6.88296e-05
8.74165e-05
7.24395e-05
7.24337e-05
8.7336e-05
7.24365e-05
7.24306e-05
5.71774e-05
6.88544e-05
5.91805e-05
3.95715e-05
3.93497e-05
6.88286e-05
5.73629e-05
5.72434e-05
6.88667e-05
5.91916e-05
3.95894e-05
3.93676e-05
6.88408e-05
5.74276e-05
6.96463e-05
6.9663e-05
6.96481e-05
6.96646e-05
8.71858e-05
7.24842e-05
7.24777e-05
8.71109e-05
7.24805e-05
7.24742e-05
5.661e-05
3.87952e-05
5.88298e-05
6.8779e-05
6.87515e-05
3.85663e-05
5.67875e-05
5.66798e-05
3.88101e-05
5.88399e-05
6.87917e-05
6.87638e-05
3.85887e-05
5.68513e-05
5.64893e-05
6.87106e-05
3.81633e-05
5.87706e-05
5.63031e-05
6.8739e-05
3.83915e-05
5.65547e-05
6.87227e-05
3.81833e-05
5.87807e-05
5.63704e-05
6.87513e-05
3.84063e-05
8.72196e-05
7.24585e-05
7.24522e-05
7.24616e-05
7.24551e-05
8.72999e-05
6.9807e-05
6.90805e-05
5.85147e-05
5.23939e-05
6.97958e-05
6.90957e-05
5.87194e-05
7.10113e-05
7.00171e-05
7.39736e-05
7.10099e-05
7.38959e-05
7.10306e-05
7.37751e-05
7.00124e-05
7.10313e-05
7.38621e-05
6.98095e-05
5.25296e-05
6.91165e-05
5.90133e-05
6.98202e-05
6.91012e-05
5.88175e-05
6.98085e-05
6.90811e-05
5.85231e-05
5.23958e-05
6.97978e-05
6.90961e-05
5.87288e-05
7.10126e-05
7.00214e-05
7.39912e-05
7.39126e-05
7.10114e-05
7.10314e-05
7.38018e-05
7.00169e-05
7.10328e-05
7.38808e-05
6.98108e-05
5.25308e-05
6.91169e-05
5.90186e-05
6.91016e-05
5.88255e-05
6.98213e-05
6.96479e-05
6.96643e-05
8.71926e-05
7.2479e-05
7.24841e-05
8.71057e-05
7.24756e-05
7.24807e-05
5.6668e-05
3.88108e-05
5.88408e-05
6.87901e-05
3.85888e-05
6.87635e-05
5.68459e-05
5.6601e-05
3.87893e-05
5.88297e-05
6.87781e-05
6.87517e-05
3.85701e-05
5.67786e-05
5.65685e-05
6.87231e-05
3.81842e-05
5.87813e-05
3.84172e-05
5.63766e-05
6.87518e-05
5.65011e-05
6.87112e-05
3.81666e-05
5.87698e-05
5.63105e-05
6.87398e-05
3.83972e-05
8.72266e-05
7.2452e-05
7.24571e-05
7.24557e-05
7.24608e-05
8.72986e-05
6.96461e-05
6.96626e-05
6.98081e-05
5.85228e-05
6.90808e-05
5.23921e-05
6.97973e-05
5.87269e-05
6.90957e-05
7.10123e-05
7.00219e-05
7.39876e-05
7.10109e-05
7.39125e-05
7.10314e-05
7.38009e-05
7.00175e-05
7.10329e-05
7.38817e-05
6.98105e-05
5.25256e-05
5.90158e-05
6.9117e-05
6.9821e-05
5.88233e-05
6.91013e-05
6.98067e-05
6.90803e-05
5.8522e-05
5.239e-05
6.97961e-05
6.90953e-05
5.87208e-05
7.10101e-05
7.00178e-05
7.3965e-05
7.38961e-05
7.10086e-05
7.10304e-05
7.37813e-05
7.00135e-05
7.10316e-05
7.38664e-05
6.98091e-05
5.25237e-05
6.91168e-05
5.9005e-05
6.9101e-05
5.88151e-05
6.982e-05
6.9808e-05
5.85208e-05
6.9081e-05
5.23881e-05
6.97972e-05
5.87233e-05
6.90958e-05
7.10126e-05
7.00216e-05
7.3987e-05
7.39082e-05
7.10115e-05
7.10313e-05
7.37966e-05
7.00168e-05
7.10325e-05
7.38764e-05
6.98105e-05
5.25214e-05
5.9013e-05
6.91175e-05
5.88195e-05
6.91015e-05
6.98214e-05
6.98067e-05
6.90805e-05
5.85193e-05
5.23872e-05
6.9796e-05
6.90953e-05
5.87209e-05
7.10105e-05
7.00177e-05
7.39708e-05
7.38934e-05
7.1009e-05
7.10295e-05
7.37781e-05
7.00133e-05
7.10308e-05
7.3861e-05
6.98091e-05
5.25205e-05
6.91169e-05
5.90087e-05
6.9101e-05
5.88165e-05
6.98199e-05
6.96485e-05
6.96648e-05
8.71887e-05
7.24786e-05
7.24843e-05
8.71036e-05
7.24758e-05
7.24814e-05
5.6675e-05
3.88136e-05
5.88395e-05
6.87914e-05
3.85919e-05
6.87642e-05
5.68566e-05
5.66088e-05
3.87949e-05
5.88282e-05
6.87793e-05
6.87522e-05
3.85707e-05
5.67889e-05
5.65693e-05
6.87224e-05
3.81843e-05
5.87786e-05
3.84147e-05
5.63718e-05
6.8752e-05
5.65013e-05
6.87108e-05
3.81654e-05
5.87685e-05
5.63059e-05
6.87399e-05
3.83964e-05
8.72274e-05
7.24536e-05
7.24593e-05
7.24572e-05
7.24628e-05
8.73116e-05
6.96465e-05
6.9663e-05
6.98067e-05
5.85199e-05
6.90808e-05
5.23914e-05
6.97963e-05
5.87247e-05
6.90953e-05
7.10107e-05
7.00172e-05
7.3969e-05
7.3892e-05
7.10092e-05
7.10296e-05
7.37783e-05
7.00128e-05
7.10309e-05
7.38601e-05
6.98089e-05
5.25236e-05
5.90104e-05
6.91166e-05
5.88202e-05
6.91008e-05
6.98194e-05
6.98082e-05
5.85206e-05
6.9081e-05
5.23908e-05
6.97972e-05
5.87247e-05
6.90959e-05
7.10128e-05
7.0023e-05
7.39917e-05
7.39122e-05
7.10113e-05
7.10315e-05
7.37935e-05
7.00183e-05
7.10327e-05
7.38787e-05
6.98106e-05
5.2524e-05
5.90156e-05
6.91173e-05
5.88214e-05
6.91015e-05
6.98213e-05
8.71968e-05
7.24854e-05
7.24795e-05
8.7119e-05
7.24813e-05
7.24754e-05
5.66051e-05
3.87941e-05
5.88314e-05
6.87792e-05
5.67965e-05
3.85648e-05
6.87514e-05
5.66726e-05
3.88132e-05
5.88444e-05
6.87915e-05
5.68613e-05
3.85842e-05
6.87638e-05
5.64933e-05
6.87115e-05
3.81668e-05
5.87728e-05
5.62998e-05
3.8392e-05
6.87392e-05
5.65584e-05
6.87238e-05
3.81856e-05
5.87858e-05
5.63676e-05
3.84111e-05
6.87517e-05
8.72279e-05
7.24582e-05
7.24523e-05
8.73017e-05
7.24615e-05
7.24556e-05
6.96464e-05
6.96631e-05
6.96487e-05
6.96654e-05
6.96247e-05
6.96087e-05
6.96266e-05
6.96105e-05
8.74576e-05
7.24152e-05
7.24089e-05
7.24186e-05
7.24121e-05
8.75376e-05
5.7073e-05
3.89598e-05
6.87907e-05
5.91227e-05
5.68963e-05
6.88168e-05
3.91858e-05
5.71328e-05
3.89854e-05
6.88032e-05
5.91378e-05
5.69668e-05
6.88293e-05
3.91974e-05
8.74214e-05
7.24402e-05
7.24337e-05
8.73371e-05
7.2437e-05
7.24308e-05
5.7185e-05
6.8854e-05
5.91794e-05
3.95784e-05
6.88281e-05
5.73703e-05
3.93452e-05
5.72577e-05
6.88665e-05
5.91932e-05
3.95851e-05
6.88405e-05
5.74271e-05
3.93712e-05
6.95722e-05
6.95878e-05
6.95747e-05
6.959e-05
8.76337e-05
7.2396e-05
7.23895e-05
8.75685e-05
7.23919e-05
7.23858e-05
5.77253e-05
4.03398e-05
5.95112e-05
6.89236e-05
6.88993e-05
4.0109e-05
5.79126e-05
5.78042e-05
4.03328e-05
5.9523e-05
6.89345e-05
6.89121e-05
4.01434e-05
5.79266e-05
5.76444e-05
6.88649e-05
3.97348e-05
5.94584e-05
5.74729e-05
6.88895e-05
3.99682e-05
5.76976e-05
6.88775e-05
3.97646e-05
5.94707e-05
5.75523e-05
6.89019e-05
3.99729e-05
8.76547e-05
7.23688e-05
7.23621e-05
7.23717e-05
7.23656e-05
8.77032e-05
6.98365e-05
5.32908e-05
6.91631e-05
5.95548e-05
6.91457e-05
5.93782e-05
6.98473e-05
7.09909e-05
7.40222e-05
7.0048e-05
7.09926e-05
7.40962e-05
6.98341e-05
5.31659e-05
6.91228e-05
5.91093e-05
6.91391e-05
6.98236e-05
5.92914e-05
7.09715e-05
7.41871e-05
7.00521e-05
7.41225e-05
7.09698e-05
6.98579e-05
6.91689e-05
5.96376e-05
5.38964e-05
6.98478e-05
6.91854e-05
5.98111e-05
7.09287e-05
7.00769e-05
7.43479e-05
7.42894e-05
7.0927e-05
7.09484e-05
7.41955e-05
7.0073e-05
7.09498e-05
7.42649e-05
6.98598e-05
5.40062e-05
6.92082e-05
6.00516e-05
6.91916e-05
5.98916e-05
6.98694e-05
6.986e-05
6.91695e-05
5.96399e-05
5.38978e-05
6.98496e-05
6.91862e-05
5.98131e-05
7.09318e-05
7.00824e-05
7.43751e-05
7.43049e-05
7.09304e-05
7.09498e-05
7.42118e-05
7.0078e-05
7.0951e-05
7.42774e-05
6.9862e-05
5.40085e-05
6.9209e-05
6.00604e-05
6.91924e-05
5.9895e-05
6.98715e-05
8.7456e-05
7.2411e-05
7.2416e-05
7.24146e-05
7.24196e-05
8.75464e-05
5.7143e-05
3.89733e-05
6.88017e-05
5.91355e-05
6.88289e-05
5.69495e-05
3.91977e-05
5.70777e-05
3.89544e-05
6.87898e-05
5.91235e-05
3.91778e-05
5.68838e-05
6.88169e-05
8.74119e-05
7.24333e-05
7.24384e-05
7.24312e-05
8.73302e-05
7.24362e-05
5.72575e-05
6.88673e-05
5.91912e-05
3.95963e-05
6.88407e-05
3.93664e-05
5.74427e-05
5.71929e-05
6.88551e-05
5.91794e-05
3.9578e-05
3.93501e-05
6.88287e-05
5.73771e-05
6.96243e-05
6.96082e-05
6.95746e-05
6.959e-05
8.76251e-05
7.23902e-05
7.23951e-05
8.75729e-05
7.23854e-05
7.23903e-05
5.77814e-05
4.03406e-05
5.9524e-05
6.89354e-05
4.01273e-05
6.89114e-05
5.79492e-05
5.77149e-05
4.03199e-05
5.9511e-05
6.89229e-05
6.88988e-05
4.01082e-05
5.78836e-05
5.76977e-05
6.88778e-05
3.97596e-05
5.94718e-05
3.9978e-05
5.75356e-05
6.89015e-05
5.76307e-05
6.88655e-05
3.97426e-05
5.94591e-05
5.74695e-05
6.88888e-05
3.99573e-05
8.76438e-05
7.23634e-05
7.23683e-05
7.23654e-05
7.23704e-05
8.76986e-05
6.9572e-05
6.95876e-05
6.98358e-05
5.32932e-05
6.91625e-05
5.95559e-05
6.91455e-05
5.93737e-05
6.98463e-05
7.09884e-05
7.39914e-05
7.00443e-05
7.09889e-05
7.4061e-05
6.98334e-05
5.31696e-05
6.91228e-05
5.90969e-05
6.91392e-05
6.98225e-05
5.92835e-05
7.09702e-05
7.4171e-05
7.00493e-05
7.40923e-05
7.09696e-05
6.98594e-05
5.96422e-05
6.91693e-05
5.38971e-05
6.98494e-05
5.98144e-05
6.91861e-05
7.09305e-05
7.00821e-05
7.43676e-05
7.4305e-05
7.0929e-05
7.09495e-05
7.42161e-05
7.00781e-05
7.09511e-05
7.42811e-05
6.98614e-05
5.40087e-05
6.0057e-05
6.9209e-05
5.98947e-05
6.91924e-05
6.98708e-05
6.98582e-05
6.91689e-05
5.96417e-05
5.38969e-05
6.98484e-05
6.91857e-05
5.98137e-05
7.09283e-05
7.00792e-05
7.43482e-05
7.42938e-05
7.09266e-05
7.09489e-05
7.42015e-05
7.00756e-05
7.09506e-05
7.42715e-05
6.986e-05
5.40083e-05
6.92085e-05
6.00527e-05
6.91919e-05
5.98932e-05
6.98694e-05
6.98369e-05
5.33027e-05
5.95625e-05
6.91626e-05
5.93833e-05
6.91463e-05
6.98471e-05
7.09914e-05
7.40189e-05
7.00488e-05
7.40962e-05
7.09929e-05
6.98347e-05
5.31786e-05
5.91061e-05
6.91237e-05
5.9294e-05
6.98239e-05
6.91402e-05
7.0972e-05
7.41926e-05
7.0053e-05
7.41244e-05
7.09702e-05
6.98352e-05
5.33011e-05
6.91619e-05
5.95584e-05
6.91456e-05
5.93788e-05
6.98453e-05
7.09882e-05
7.40006e-05
7.00441e-05
7.09898e-05
7.40736e-05
6.9833e-05
5.31772e-05
6.91231e-05
5.91016e-05
6.98223e-05
6.91395e-05
5.92892e-05
7.09691e-05
7.41719e-05
7.00483e-05
7.41019e-05
7.09676e-05
6.98588e-05
5.96463e-05
6.91688e-05
5.38917e-05
6.98491e-05
5.98144e-05
6.91854e-05
7.09302e-05
7.0081e-05
7.43676e-05
7.4304e-05
7.09288e-05
7.09491e-05
7.42169e-05
7.00769e-05
7.09507e-05
7.42797e-05
6.98607e-05
5.40027e-05
6.00538e-05
6.92091e-05
5.98934e-05
6.91919e-05
6.98703e-05
6.98569e-05
6.91681e-05
5.96424e-05
5.38908e-05
6.98472e-05
6.91847e-05
5.98107e-05
7.09277e-05
7.00772e-05
7.43483e-05
7.42875e-05
7.0926e-05
7.09468e-05
7.41982e-05
7.00735e-05
7.09485e-05
7.42636e-05
6.98588e-05
5.4002e-05
6.92083e-05
6.00498e-05
6.91911e-05
5.98897e-05
6.98683e-05
8.74557e-05
7.24103e-05
7.2416e-05
7.24133e-05
7.2419e-05
8.75399e-05
5.71444e-05
3.89801e-05
6.88027e-05
5.91349e-05
6.88289e-05
5.69563e-05
3.91997e-05
5.7077e-05
3.89598e-05
6.87908e-05
5.91262e-05
3.91831e-05
5.68902e-05
6.88171e-05
8.74203e-05
7.24342e-05
7.24399e-05
7.24312e-05
8.73446e-05
7.24368e-05
5.72547e-05
6.8867e-05
5.919e-05
3.95943e-05
6.88405e-05
3.9369e-05
5.7443e-05
5.71879e-05
6.88552e-05
5.91819e-05
3.95774e-05
3.93495e-05
6.88288e-05
5.73761e-05
6.96251e-05
6.96091e-05
6.95746e-05
6.95902e-05
8.76374e-05
7.23911e-05
7.23968e-05
8.75724e-05
7.23868e-05
7.23924e-05
5.77905e-05
4.03448e-05
5.95225e-05
6.89354e-05
4.01347e-05
6.89119e-05
5.79552e-05
5.77244e-05
4.03286e-05
5.95109e-05
6.89235e-05
6.88999e-05
4.01144e-05
5.78895e-05
5.77068e-05
6.88778e-05
3.97619e-05
5.94694e-05
3.99799e-05
5.75402e-05
6.8902e-05
5.76405e-05
6.88659e-05
3.97411e-05
5.94584e-05
5.7474e-05
6.889e-05
3.99621e-05
8.76582e-05
7.23639e-05
7.23695e-05
7.23666e-05
7.23722e-05
8.77113e-05
6.95729e-05
6.95883e-05
6.98351e-05
5.32964e-05
5.95506e-05
6.91622e-05
5.93714e-05
6.91456e-05
6.98458e-05
7.09884e-05
7.39984e-05
7.00433e-05
7.40694e-05
7.099e-05
6.98327e-05
5.31724e-05
5.91007e-05
6.91227e-05
5.92831e-05
6.98218e-05
6.91394e-05
7.09692e-05
7.41631e-05
7.00477e-05
7.40961e-05
7.09678e-05
6.98363e-05
5.32993e-05
5.95611e-05
6.91624e-05
5.93828e-05
6.91459e-05
6.98465e-05
7.09904e-05
7.40212e-05
7.00494e-05
7.0992e-05
7.40935e-05
6.98341e-05
5.31761e-05
5.9108e-05
6.91233e-05
6.98237e-05
5.92945e-05
6.91397e-05
7.09713e-05
7.41905e-05
7.00536e-05
7.4121e-05
7.09697e-05
6.9858e-05
5.96367e-05
6.91685e-05
5.38935e-05
6.9848e-05
5.98105e-05
6.91852e-05
7.09297e-05
7.00785e-05
7.43548e-05
7.42871e-05
7.0928e-05
7.09482e-05
7.41901e-05
7.00744e-05
7.09494e-05
7.42596e-05
6.98599e-05
5.40056e-05
6.00549e-05
6.92085e-05
5.98918e-05
6.91916e-05
6.98693e-05
6.98584e-05
5.96451e-05
6.91686e-05
5.38944e-05
6.98486e-05
5.98153e-05
6.91854e-05
7.093e-05
7.00827e-05
7.43707e-05
7.43087e-05
7.09282e-05
7.09491e-05
7.42171e-05
7.0079e-05
7.09507e-05
7.42843e-05
6.98603e-05
5.40069e-05
6.0058e-05
6.92086e-05
5.98954e-05
6.91918e-05
6.98697e-05
6.96247e-05
6.96089e-05
6.96267e-05
6.96109e-05
8.76446e-05
7.23968e-05
7.2391e-05
8.75687e-05
7.23932e-05
7.23873e-05
5.77426e-05
4.03374e-05
5.95121e-05
6.89236e-05
4.01204e-05
6.89005e-05
5.79028e-05
5.78092e-05
4.03566e-05
5.9525e-05
6.89358e-05
4.01401e-05
6.89129e-05
5.79671e-05
5.76507e-05
6.88653e-05
3.97349e-05
5.946e-05
5.74695e-05
3.99605e-05
6.88904e-05
5.77167e-05
6.88777e-05
3.97535e-05
5.94728e-05
5.75364e-05
3.99798e-05
6.89028e-05
8.76706e-05
7.23691e-05
7.23633e-05
7.23733e-05
7.23675e-05
8.7724e-05
6.95722e-05
6.95878e-05
6.95744e-05
6.959e-05
1.50514e-05
1.50516e-05
1.48518e-05
1.49438e-05
1.4944e-05
1.52981e-05
1.54158e-05
3.78971e-05
2.49382e-05
2.49433e-05
1.81546e-05
3.7765e-05
2.50288e-05
2.50336e-05
3.73494e-05
1.80004e-05
2.47151e-05
2.47203e-05
2.46263e-05
2.46314e-05
3.74829e-05
3.73493e-05
1.79998e-05
2.47192e-05
2.47152e-05
2.46305e-05
2.46266e-05
3.74822e-05
3.73516e-05
1.80008e-05
2.47208e-05
2.47171e-05
2.4632e-05
2.46282e-05
3.74852e-05
3.73502e-05
1.80006e-05
2.47162e-05
2.47209e-05
3.74842e-05
2.46271e-05
2.46321e-05
3.78958e-05
2.49373e-05
2.49428e-05
1.81543e-05
3.7764e-05
2.50276e-05
2.50329e-05
3.89765e-05
1.85675e-05
2.59982e-05
2.59894e-05
2.5895e-05
2.59067e-05
3.91015e-05
3.78935e-05
2.49411e-05
2.4937e-05
1.81539e-05
2.5027e-05
3.77608e-05
2.50311e-05
3.89727e-05
1.85669e-05
2.5994e-05
2.59897e-05
2.59013e-05
2.58972e-05
3.90979e-05
3.7897e-05
2.49431e-05
2.49391e-05
1.81549e-05
2.50295e-05
3.77647e-05
2.50332e-05
3.8978e-05
1.8568e-05
2.59972e-05
2.59932e-05
2.59042e-05
2.58998e-05
3.91035e-05
3.89812e-05
1.85681e-05
2.59933e-05
2.59987e-05
2.58996e-05
2.59053e-05
3.91067e-05
1.51162e-05
1.51611e-05
1.51614e-05
1.52733e-05
1.52736e-05
1.56566e-05
1.55353e-05
1.51161e-05
1.51611e-05
1.51614e-05
1.52733e-05
1.52736e-05
1.56566e-05
1.55354e-05
1.51162e-05
1.5161e-05
1.51613e-05
1.52733e-05
1.52735e-05
1.56564e-05
1.55352e-05
1.51162e-05
1.51612e-05
1.51614e-05
1.52734e-05
1.52736e-05
1.56565e-05
1.55353e-05
1.50514e-05
1.50517e-05
1.48519e-05
1.49438e-05
1.49441e-05
1.52981e-05
1.54159e-05
1.50513e-05
1.50517e-05
1.48518e-05
1.49437e-05
1.4944e-05
1.52979e-05
1.54157e-05
1.50515e-05
1.50517e-05
1.48519e-05
1.49439e-05
1.49441e-05
1.5298e-05
1.54158e-05
1.477e-05
1.47356e-05
1.47358e-05
1.48388e-05
1.4839e-05
1.5182e-05
1.50676e-05
1.477e-05
1.47356e-05
1.47359e-05
1.48388e-05
1.48391e-05
1.5182e-05
1.50676e-05
1.47699e-05
1.47355e-05
1.47359e-05
1.48387e-05
1.4839e-05
1.51819e-05
1.50675e-05
1.47701e-05
1.47357e-05
1.47359e-05
1.48388e-05
1.48391e-05
1.5182e-05
1.50675e-05
1.9643e-05
2.92545e-05
3.35772e-05
1.80461e-05
3.34428e-05
1.80055e-05
1.9687e-05
2.24227e-05
2.76361e-05
3.95942e-05
4.53216e-05
2.23606e-05
2.77418e-05
3.97122e-05
1.9492e-05
2.8965e-05
3.30189e-05
1.78507e-05
1.94497e-05
3.3154e-05
1.78891e-05
2.26189e-05
4.0091e-05
4.55251e-05
2.80896e-05
2.79823e-05
3.99748e-05
2.26825e-05
1.96426e-05
2.92535e-05
1.80462e-05
3.35725e-05
1.80058e-05
3.34386e-05
1.96865e-05
2.24224e-05
2.76377e-05
3.95898e-05
4.53285e-05
2.23602e-05
2.77437e-05
3.97072e-05
1.94921e-05
2.89648e-05
1.78512e-05
3.30177e-05
1.94499e-05
1.78894e-05
3.31518e-05
2.2618e-05
4.00829e-05
4.55189e-05
2.80907e-05
2.79835e-05
3.99673e-05
2.26815e-05
3.81741e-05
1.8269e-05
2.53461e-05
2.53509e-05
2.52542e-05
2.52594e-05
3.83052e-05
3.7065e-05
1.78982e-05
2.4321e-05
2.43259e-05
3.69305e-05
2.44081e-05
2.4413e-05
1.91252e-05
3.2166e-05
1.75666e-05
2.81153e-05
1.90864e-05
3.23025e-05
1.76004e-05
2.21083e-05
2.73998e-05
4.48911e-05
3.93269e-05
2.72945e-05
3.92069e-05
2.21692e-05
2.19224e-05
3.88169e-05
2.69545e-05
4.46728e-05
2.70586e-05
2.18632e-05
3.89385e-05
1.92639e-05
2.84021e-05
3.27288e-05
1.77404e-05
3.25926e-05
1.77045e-05
1.93045e-05
1.91265e-05
3.217e-05
1.75667e-05
2.81164e-05
1.90876e-05
3.2307e-05
1.76007e-05
2.21118e-05