/*--------------------------------*- C++ -*----------------------------------*\
| =========                 |                                                 |
| \\      /  F ield         | OpenFOAM: The Open Source CFD Toolbox           |
|  \\    /   O peration     | Version:  v1906                                 |
|   \\  /    A nd           | Web:      www.OpenFOAM.com                      |
|    \\/     M anipulation  |                                                 |
\*---------------------------------------------------------------------------*/
FoamFile
{
    version     2.0;
    format      ascii;
    class       volScalarField;
    location    "1000";
    object      k;
}
// * * * * * * * * * * * * * * * * * * * * * * * * * * * * * * * * * * * * * //

dimensions      [0 2 -2 0 0 0 0];


internalField   nonuniform List<scalar> 
43248
(
3.83818e-05
3.16668e-05
3.1037e-05
3.51357e-05
3.22461e-05
4.39575e-05
3.13322e-05
3.36668e-05
5.10023e-05
4.44616e-05
3.42515e-05
3.89041e-05
1.79134e-05
1.68124e-05
2.6689e-05
1.82558e-05
7.05813e-05
7.03631e-05
6.69165e-05
6.72575e-05
6.32995e-05
7.2336e-05
6.40432e-05
6.33821e-05
7.0711e-05
7.03679e-05
6.38038e-05
5.09661e-05
5.97655e-05
2.5922e-05
2.59133e-05
5.16067e-05
5.11416e-05
3.15251e-05
5.71161e-05
2.57928e-05
5.74599e-05
2.59102e-05
5.13481e-05
6.88418e-05
6.85767e-05
3.68781e-05
6.34345e-05
6.31081e-05
6.39184e-05
6.40818e-05
6.8557e-05
6.83608e-05
7.19731e-05
6.48967e-05
6.04342e-05
2.73266e-05
5.40057e-05
7.00532e-05
6.49902e-05
3.17314e-05
6.1769e-05
5.45126e-05
5.25314e-05
3.19106e-05
5.71072e-05
2.6294e-05
5.7897e-05
2.64125e-05
5.21762e-05
6.41226e-05
7.03332e-05
7.02604e-05
6.38645e-05
5.26555e-05
3.36997e-05
2.68338e-05
5.85862e-05
2.68016e-05
5.90231e-05
5.24161e-05
6.42591e-05
7.06067e-05
7.06697e-05
6.39812e-05
6.77778e-05
6.69441e-05
6.68836e-05
6.76092e-05
5.58969e-05
3.26652e-05
6.19795e-05
3.22623e-05
5.54224e-05
5.51648e-05
3.41866e-05
2.90618e-05
5.88943e-05
2.84966e-05
6.0177e-05
5.4856e-05
6.62103e-05
6.9817e-05
6.49495e-05
6.58294e-05
7.02136e-05
7.0539e-05
6.46975e-05
3.93425e-05
6.46752e-05
6.45794e-05
6.51272e-05
6.59789e-05
6.87511e-05
6.86928e-05
6.84409e-05
6.85205e-05
7.04882e-05
7.03016e-05
6.78464e-05
5.90018e-05
6.55445e-05
7.36161e-05
7.31678e-05
5.69974e-05
6.98108e-05
6.85738e-05
5.975e-05
6.61757e-05
7.35642e-05
7.31976e-05
5.79197e-05
7.04011e-05
8.9292e-05
7.33738e-05
7.33217e-05
7.30804e-05
7.3047e-05
9.16259e-05
7.0163e-05
6.97586e-05
6.65693e-05
6.34919e-05
7.00784e-05
6.98363e-05
6.69048e-05
7.03753e-05
7.21698e-05
7.72522e-05
7.68064e-05
7.04281e-05
7.02153e-05
6.37503e-05
6.99354e-05
6.77378e-05
6.98903e-05
6.73216e-05
7.02579e-05
7.00141e-05
6.97128e-05
6.6816e-05
6.34279e-05
6.99456e-05
6.97885e-05
6.68424e-05
6.99737e-05
7.05982e-05
7.65783e-05
7.63576e-05
7.00117e-05
6.99519e-05
7.5965e-05
7.04828e-05
6.98832e-05
7.61357e-05
7.0061e-05
6.35745e-05
6.98936e-05
6.71742e-05
6.98442e-05
6.69486e-05
7.01077e-05
6.87323e-05
6.8675e-05
8.74661e-05
7.03747e-05
7.03786e-05
8.80644e-05
7.04885e-05
7.04431e-05
6.50572e-05
5.41263e-05
6.35372e-05
6.91739e-05
5.43224e-05
6.89603e-05
6.47579e-05
6.50724e-05
5.41796e-05
6.33913e-05
6.88452e-05
6.87197e-05
5.44726e-05
6.47217e-05
6.54567e-05
6.87944e-05
5.50308e-05
6.37128e-05
5.46346e-05
6.59287e-05
6.88239e-05
6.55329e-05
6.87002e-05
5.54837e-05
6.37265e-05
6.60675e-05
6.86922e-05
5.49366e-05
8.70091e-05
7.07932e-05
7.06946e-05
7.06045e-05
7.05336e-05
8.67336e-05
6.84488e-05
6.84008e-05
7.00646e-05
7.18764e-05
7.71653e-05
7.70719e-05
7.00666e-05
6.99225e-05
6.49741e-05
6.81328e-05
6.96158e-05
6.81102e-05
6.96333e-05
6.99164e-05
6.97487e-05
7.03057e-05
7.76505e-05
7.78925e-05
6.97168e-05
6.97925e-05
6.5246e-05
6.95671e-05
6.85282e-05
6.95964e-05
6.88686e-05
6.97498e-05
6.97648e-05
6.74161e-05
6.95395e-05
6.40323e-05
6.97643e-05
6.73389e-05
6.95346e-05
6.97198e-05
7.02725e-05
7.62161e-05
7.62732e-05
6.97244e-05
6.97299e-05
7.64167e-05
7.02593e-05
6.97278e-05
7.6368e-05
6.97659e-05
6.39168e-05
6.71649e-05
6.95314e-05
6.72209e-05
6.95297e-05
6.9778e-05
6.98111e-05
6.95591e-05
6.76887e-05
6.41706e-05
6.98201e-05
6.95512e-05
6.76021e-05
6.97238e-05
7.06168e-05
7.63688e-05
7.64194e-05
6.97363e-05
6.97302e-05
7.66356e-05
7.06439e-05
6.97317e-05
7.65449e-05
6.97965e-05
6.40415e-05
6.95388e-05
6.74052e-05
6.95402e-05
6.74615e-05
6.97951e-05
6.79656e-05
7.61488e-05
6.37353e-05
6.87885e-05
6.7574e-05
6.62414e-05
6.83084e-05
7.29062e-05
7.62509e-05
6.40845e-05
6.89264e-05
6.73941e-05
6.81936e-05
6.66668e-05
7.2961e-05
9.40189e-05
6.88418e-05
6.87603e-05
6.91732e-05
6.91256e-05
8.99596e-05
6.78134e-05
6.9644e-05
7.00845e-05
6.94961e-05
6.60653e-05
6.97623e-05
6.98119e-05
6.93851e-05
6.9579e-05
7.01268e-05
7.74187e-05
7.79066e-05
6.95202e-05
6.97173e-05
7.85445e-05
6.95195e-05
6.5516e-05
6.84996e-05
6.91905e-05
6.90874e-05
6.92685e-05
6.94442e-05
6.95784e-05
6.89878e-05
6.94736e-05
6.56922e-05
6.96671e-05
6.86392e-05
6.93707e-05
6.93523e-05
7.02845e-05
7.60409e-05
7.64636e-05
6.93295e-05
6.9435e-05
7.74728e-05
7.04033e-05
6.95104e-05
7.70071e-05
6.94893e-05
6.51979e-05
6.76376e-05
6.9194e-05
6.80818e-05
6.9264e-05
6.94411e-05
9.01887e-05
7.08555e-05
7.08925e-05
9.05542e-05
7.08503e-05
7.0861e-05
6.75923e-05
5.67493e-05
6.47681e-05
6.94978e-05
5.6979e-05
6.95005e-05
6.72999e-05
6.80876e-05
5.72603e-05
6.49969e-05
6.93244e-05
5.76667e-05
6.93995e-05
6.76527e-05
6.79878e-05
6.95692e-05
5.75963e-05
6.49339e-05
6.83077e-05
5.73247e-05
6.95264e-05
6.86224e-05
6.96543e-05
5.85897e-05
6.55165e-05
6.90405e-05
5.81958e-05
6.952e-05
8.97267e-05
7.0865e-05
7.08074e-05
7.08452e-05
7.08163e-05
8.93244e-05
6.87075e-05
6.86968e-05
6.8441e-05
6.8475e-05
5.7489e-05
3.56677e-05
4.95042e-05
4.99997e-05
4.69444e-05
4.74659e-05
5.98717e-05
5.37331e-05
3.56348e-05
4.42198e-05
4.42935e-05
4.4501e-05
4.46404e-05
5.34463e-05
6.80991e-05
5.2034e-05
5.77136e-05
5.79562e-05
5.95301e-05
5.9786e-05
6.54566e-05
5.7239e-05
3.91753e-05
4.77322e-05
4.80876e-05
4.80263e-05
4.84358e-05
5.68795e-05
1.35e-05
1.40771e-05
1.35594e-05
1.04008e-05
1.03757e-05
1.72125e-05
1.31162e-05
1.30919e-05
1.32754e-05
1.32459e-05
1.01506e-05
1.00644e-05
1.66325e-05
1.67661e-05
1.62181e-05
1.08262e-05
1.10469e-05
1.8267e-05
1.33899e-05
1.40913e-05
1.34424e-05
1.38943e-05
1.0259e-05
1.02462e-05
4.22517e-05
5.28243e-05
4.0996e-05
5.10209e-05
4.22105e-05
5.30151e-05
4.09825e-05
4.46015e-05
5.13114e-05
5.86202e-05
5.76857e-05
4.97322e-05
5.67233e-05
4.57749e-05
4.26761e-05
5.12493e-05
5.42417e-05
4.12712e-05
5.35965e-05
4.11145e-05
4.31523e-05
4.2918e-05
5.33316e-05
4.12325e-05
5.1147e-05
4.30597e-05
5.33176e-05
4.11822e-05
4.45531e-05
4.81405e-05
5.72104e-05
5.58844e-05
5.58948e-05
4.82687e-05
4.44349e-05
4.45942e-05
5.59749e-05
4.87486e-05
5.73359e-05
4.48551e-05
5.59329e-05
4.84253e-05
4.29306e-05
5.11962e-05
5.33425e-05
4.12562e-05
5.3318e-05
4.12236e-05
4.28799e-05
5.41913e-05
3.60168e-05
4.55701e-05
4.58499e-05
4.49212e-05
5.47819e-05
4.51356e-05
4.66869e-05
5.26158e-05
5.95728e-05
5.88093e-05
5.11863e-05
5.81731e-05
4.76886e-05
4.52261e-05
5.39385e-05
5.60617e-05
4.45485e-05
5.57017e-05
4.43098e-05
4.57761e-05
5.31698e-05
5.69847e-05
6.33609e-05
6.03882e-05
6.14939e-05
5.86193e-05
5.24891e-05
4.88683e-05
5.45843e-05
4.54951e-05
5.72367e-05
4.54856e-05
5.77516e-05
4.86654e-05
4.41361e-05
5.44966e-05
4.26941e-05
5.24565e-05
4.43421e-05
5.43211e-05
4.26496e-05
4.52533e-05
4.8393e-05
5.72894e-05
5.61293e-05
4.86741e-05
5.6274e-05
4.49306e-05
4.54878e-05
5.67836e-05
4.95704e-05
5.75711e-05
4.59569e-05
4.90513e-05
5.65278e-05
4.40583e-05
5.22819e-05
5.39786e-05
4.25079e-05
5.40972e-05
4.26402e-05
4.3786e-05
4.47173e-05
4.28641e-05
5.49352e-05
5.26288e-05
4.47474e-05
4.28479e-05
5.48981e-05
4.67232e-05
5.04908e-05
5.86977e-05
5.73315e-05
5.74481e-05
5.06847e-05
4.65417e-05
4.67673e-05
5.7739e-05
5.10907e-05
5.88799e-05
4.6845e-05
5.76327e-05
5.08743e-05
4.47397e-05
5.25207e-05
4.2802e-05
5.46668e-05
4.28704e-05
5.47683e-05
4.46384e-05
5.02059e-05
4.67998e-05
5.91935e-05
5.59049e-05
5.01797e-05
4.69173e-05
5.91462e-05
5.41623e-05
5.75836e-05
6.37724e-05
6.08263e-05
5.93197e-05
6.2178e-05
5.33682e-05
5.43686e-05
6.31735e-05
5.01951e-05
5.58034e-05
4.69153e-05
5.79446e-05
4.69776e-05
5.87945e-05
4.99067e-05
4.68253e-05
4.5673e-05
5.68553e-05
5.51807e-05
4.67648e-05
4.58001e-05
5.68392e-05
4.82259e-05
5.14443e-05
5.92928e-05
5.81336e-05
5.85882e-05
5.18375e-05
4.80266e-05
4.82433e-05
5.91781e-05
5.22405e-05
5.97932e-05
4.82529e-05
5.90379e-05
5.21453e-05
4.68886e-05
5.5118e-05
4.58584e-05
5.6316e-05
4.58916e-05
5.66975e-05
4.6828e-05
5.76937e-05
3.92317e-05
4.86155e-05
4.8998e-05
5.80464e-05
4.83229e-05
4.87852e-05
1.4937e-05
1.61522e-05
1.61528e-05
1.81308e-05
1.80224e-05
1.61319e-05
1.61322e-05
1.80217e-05
1.61321e-05
1.61324e-05
1.61316e-05
1.61321e-05
1.80228e-05
1.61322e-05
1.61324e-05
1.80226e-05
1.81306e-05
1.85958e-05
1.6152e-05
1.61527e-05
1.62488e-05
1.62485e-05
1.81302e-05
1.85949e-05
1.6153e-05
1.61529e-05
1.62482e-05
1.62491e-05
1.61526e-05
1.62482e-05
1.62487e-05
1.81312e-05
1.85963e-05
1.61529e-05
1.62487e-05
1.62494e-05
1.85963e-05
1.5025e-05
1.5025e-05
1.5025e-05
1.50252e-05
5.35417e-05
7.00324e-05
5.29156e-05
7.00582e-05
6.9629e-05
6.96079e-05
5.35408e-05
7.00373e-05
5.29174e-05
7.00636e-05
1.4937e-05
1.4937e-05
1.49371e-05
1.46905e-05
1.46905e-05
1.46906e-05
1.46907e-05
2.93929e-05
4.52077e-05
1.49117e-05
1.61786e-05
2.88265e-05
4.5639e-05
1.48615e-05
6.96295e-05
6.96082e-05
2.93917e-05
1.49118e-05
4.52038e-05
1.61788e-05
2.88269e-05
1.48614e-05
4.56439e-05
5.90071e-05
5.90196e-05
1.82944e-05
5.92952e-05
5.93065e-05
6.96435e-05
6.96659e-05
6.96454e-05
6.96674e-05
1.7878e-05
5.89485e-05
5.89609e-05
5.8647e-05
5.86594e-05
5.21142e-05
7.00281e-05
7.00004e-05
5.279e-05
5.21168e-05
7.00327e-05
7.00056e-05
5.27913e-05
2.79781e-05
1.61172e-05
4.50003e-05
1.49643e-05
4.45637e-05
1.50229e-05
2.85394e-05
2.79789e-05
1.61176e-05
4.50123e-05
1.49644e-05
4.45614e-05
1.5023e-05
2.85404e-05
6.96451e-05
6.96671e-05
1.78772e-05
5.8962e-05
5.89507e-05
5.86576e-05
5.86451e-05
6.96434e-05
6.96654e-05
5.21156e-05
7.0033e-05
7.0006e-05
5.279e-05
2.79802e-05
1.61181e-05
4.5011e-05
1.49646e-05
4.45622e-05
1.50233e-05
2.85407e-05
5.21133e-05
7.00282e-05
7.00023e-05
5.27885e-05
2.79799e-05
1.61179e-05
1.49644e-05
4.50053e-05
1.5023e-05
4.45667e-05
2.85399e-05
2.79781e-05
1.61171e-05
4.50006e-05
1.49644e-05
4.45605e-05
1.5023e-05
2.85384e-05
5.21139e-05
7.0033e-05
7.00053e-05
5.27872e-05
2.79783e-05
1.61175e-05
1.49644e-05
4.50075e-05
1.50231e-05
4.45577e-05
2.85387e-05
5.21132e-05
7.00289e-05
7.00016e-05
5.27865e-05
6.96458e-05
6.96675e-05
1.78783e-05
5.8962e-05
5.89495e-05
5.86544e-05
5.86466e-05
6.96438e-05
6.96659e-05
2.79792e-05
1.61178e-05
1.49646e-05
4.50078e-05
1.50232e-05
4.45565e-05
2.85396e-05
2.79793e-05
1.61179e-05
1.49646e-05
4.50133e-05
1.50234e-05
4.45612e-05
2.854e-05
5.2118e-05
7.00282e-05
7.00012e-05
5.27864e-05
5.21159e-05
7.00345e-05
7.0006e-05
5.27893e-05
1.78782e-05
5.89497e-05
5.89629e-05
5.86483e-05
5.86602e-05
6.96436e-05
6.96661e-05
6.96458e-05
6.96684e-05
6.96272e-05
6.96061e-05
6.96292e-05
6.9608e-05
5.9006e-05
5.90189e-05
1.8294e-05
5.9293e-05
5.93063e-05
6.957e-05
6.95902e-05
6.95721e-05
6.95923e-05
1.84143e-05
5.96193e-05
5.96273e-05
5.93482e-05
5.93603e-05
5.35411e-05
7.0037e-05
5.29169e-05
7.00627e-05
2.93899e-05
4.52109e-05
1.49114e-05
1.61789e-05
2.88264e-05
4.56358e-05
1.48611e-05
2.93902e-05
4.52069e-05
1.49115e-05
1.6179e-05
2.88271e-05
4.56498e-05
1.48612e-05
5.36628e-05
7.00865e-05
7.00626e-05
5.42241e-05
5.36625e-05
7.00935e-05
7.00669e-05
5.42281e-05
2.96791e-05
1.62106e-05
4.62429e-05
1.47752e-05
4.5836e-05
1.48171e-05
3.02438e-05
2.96793e-05
1.62112e-05
4.62538e-05
1.47753e-05
4.58333e-05
1.48171e-05
3.02446e-05
5.90193e-05
5.90079e-05
1.82935e-05
5.93048e-05
5.9293e-05
6.9627e-05
6.96058e-05
6.95721e-05
6.95925e-05
1.84139e-05
5.96299e-05
5.96161e-05
5.936e-05
5.93482e-05
6.95697e-05
6.959e-05
2.93909e-05
4.52101e-05
1.49116e-05
1.61787e-05
2.88275e-05
4.56458e-05
1.48613e-05
5.35406e-05
7.00328e-05
5.29161e-05
7.00612e-05
2.93908e-05
1.49113e-05
4.5215e-05
1.61791e-05
2.88266e-05
1.48611e-05
4.56395e-05
5.36609e-05
7.00923e-05
7.00677e-05
5.423e-05
2.96804e-05
1.62118e-05
4.62501e-05
1.47755e-05
4.58364e-05
1.48174e-05
3.02451e-05
5.36609e-05
7.00883e-05
7.00655e-05
5.42289e-05
2.96803e-05
1.62114e-05
1.47752e-05
4.62473e-05
1.48171e-05
4.5839e-05
3.02454e-05
5.3546e-05
7.00376e-05
5.29194e-05
7.00632e-05
2.93926e-05
1.49117e-05
4.52073e-05
1.61789e-05
2.88266e-05
1.48615e-05
4.56408e-05
5.35445e-05
7.00332e-05
5.29185e-05
7.00591e-05
2.96818e-05
1.62108e-05
4.62438e-05
1.47758e-05
4.58339e-05
1.48174e-05
3.02446e-05
5.36618e-05
7.00913e-05
7.00672e-05
5.42256e-05
2.96812e-05
1.62112e-05
1.47755e-05
4.62501e-05
1.48173e-05
4.58297e-05
3.02437e-05
5.36605e-05
7.0087e-05
7.00632e-05
5.42246e-05
5.90198e-05
5.90081e-05
1.82945e-05
5.93023e-05
5.92948e-05
6.96278e-05
6.96065e-05
6.95722e-05
6.95925e-05
1.84147e-05
5.96281e-05
5.96178e-05
5.93575e-05
5.93485e-05
6.95704e-05
6.95908e-05
2.93932e-05
1.49119e-05
4.52115e-05
1.61793e-05
2.88279e-05
1.48617e-05
4.56458e-05
5.35424e-05
7.00324e-05
5.29152e-05
7.00589e-05
5.35437e-05
7.00387e-05
5.29189e-05
7.00643e-05
2.96809e-05
1.62112e-05
1.47757e-05
4.62502e-05
1.48175e-05
4.5828e-05
3.0245e-05
2.96822e-05
1.62117e-05
1.47759e-05
4.62565e-05
1.48177e-05
4.58344e-05
3.02461e-05
5.36598e-05
7.0089e-05
7.00633e-05
5.42287e-05
5.36608e-05
7.00924e-05
7.00685e-05
5.42307e-05
6.96273e-05
6.96063e-05
6.96294e-05
6.96083e-05
1.84148e-05
5.96183e-05
5.96311e-05
5.93496e-05
5.93612e-05
6.95699e-05
6.95904e-05
6.95719e-05
6.95926e-05
6.98351e-05
5.32908e-05
6.91625e-05
5.95518e-05
6.91452e-05
5.93743e-05
6.98456e-05
7.09886e-05
7.40013e-05
7.00428e-05
7.09899e-05
7.40689e-05
6.98328e-05
5.31651e-05
6.91224e-05
5.91048e-05
6.98224e-05
6.91387e-05
5.92872e-05
7.09694e-05
7.41668e-05
7.00472e-05
7.40962e-05
7.09685e-05
6.96263e-05
6.96103e-05
6.98365e-05
5.3294e-05
5.95568e-05
6.91629e-05
5.93782e-05
6.91458e-05
6.98471e-05
7.09907e-05
7.4017e-05
7.00485e-05
7.09921e-05
7.40908e-05
6.98341e-05
5.31704e-05
5.91068e-05
6.9123e-05
6.98234e-05
5.92901e-05
6.91395e-05
7.09718e-05
7.41903e-05
7.00528e-05
7.41194e-05
7.09702e-05
6.96268e-05
6.96106e-05
8.74526e-05
7.24149e-05
7.2409e-05
7.24178e-05
7.2412e-05
8.75305e-05
5.70788e-05
3.89653e-05
6.87911e-05
5.91241e-05
5.69007e-05
3.91888e-05
6.88174e-05
5.71433e-05
3.89842e-05
6.88033e-05
5.91356e-05
5.69672e-05
3.92071e-05
6.88296e-05
8.74188e-05
7.24399e-05
7.2434e-05
8.73385e-05
7.24366e-05
7.24307e-05
5.71759e-05
6.88541e-05
5.91806e-05
3.95708e-05
3.935e-05
6.88285e-05
5.73601e-05
5.72419e-05
6.88664e-05
5.91918e-05
3.95886e-05
3.93679e-05
6.88406e-05
5.74248e-05
6.96463e-05
6.9663e-05
6.9648e-05
6.96646e-05
8.71907e-05
7.24847e-05
7.24782e-05
8.71148e-05
7.24807e-05
7.24744e-05
5.66094e-05
3.87946e-05
5.88301e-05
6.87787e-05
6.87514e-05
3.85666e-05
5.6785e-05
5.66792e-05
3.88094e-05
5.884e-05
6.87913e-05
6.87636e-05
3.85889e-05
5.6849e-05
5.64907e-05
6.87109e-05
3.81646e-05
5.8771e-05
5.63063e-05
6.87391e-05
3.83926e-05
5.65561e-05
6.87231e-05
3.81847e-05
5.87811e-05
5.63735e-05
6.87514e-05
3.84074e-05
8.72222e-05
7.24579e-05
7.24516e-05
7.24611e-05
7.24547e-05
8.72969e-05
6.9807e-05
6.90805e-05
5.85146e-05
5.23939e-05
6.97958e-05
6.90957e-05
5.87194e-05
7.10114e-05
7.00172e-05
7.39737e-05
7.10099e-05
7.3896e-05
7.10306e-05
7.3775e-05
7.00124e-05
7.10314e-05
7.38621e-05
6.98095e-05
5.25296e-05
6.91166e-05
5.90134e-05
6.98202e-05
6.91012e-05
5.88176e-05
6.98085e-05
6.90811e-05
5.8523e-05
5.23957e-05
6.97978e-05
6.90961e-05
5.87287e-05
7.10126e-05
7.00214e-05
7.39913e-05
7.39125e-05
7.10114e-05
7.10313e-05
7.38018e-05
7.00169e-05
7.10328e-05
7.38807e-05
6.98108e-05
5.25309e-05
6.91169e-05
5.90187e-05
6.91016e-05
5.88255e-05
6.98213e-05
6.96479e-05
6.96643e-05
8.71981e-05
7.24796e-05
7.24847e-05
8.71063e-05
7.24761e-05
7.24812e-05
5.66695e-05
3.88116e-05
5.88412e-05
6.87899e-05
3.85899e-05
6.87636e-05
5.68452e-05
5.66024e-05
3.87901e-05
5.883e-05
6.8778e-05
6.87517e-05
3.85711e-05
5.6778e-05
5.65712e-05
6.87232e-05
3.81838e-05
5.87816e-05
3.84179e-05
5.6378e-05
6.8752e-05
5.65038e-05
6.87113e-05
3.81662e-05
5.877e-05
5.63119e-05
6.874e-05
3.83978e-05
8.72307e-05
7.24516e-05
7.24567e-05
7.24557e-05
7.24608e-05
8.72968e-05
6.96461e-05
6.96626e-05
6.98082e-05
5.85228e-05
6.90808e-05
5.23922e-05
6.97973e-05
5.87269e-05
6.90958e-05
7.10123e-05
7.00218e-05
7.39875e-05
7.10109e-05
7.39124e-05
7.10314e-05
7.38009e-05
7.00174e-05
7.1033e-05
7.38816e-05
6.98105e-05
5.25257e-05
5.90158e-05
6.9117e-05
6.98211e-05
5.88233e-05
6.91013e-05
6.98067e-05
6.90803e-05
5.85222e-05
5.23901e-05
6.97962e-05
6.90953e-05
5.87211e-05
7.10101e-05
7.00178e-05
7.39652e-05
7.38963e-05
7.10086e-05
7.10304e-05
7.37813e-05
7.00135e-05
7.10317e-05
7.38666e-05
6.98091e-05
5.25237e-05
6.91168e-05
5.90051e-05
6.9101e-05
5.88154e-05
6.982e-05
6.9808e-05
5.85208e-05
6.9081e-05
5.23878e-05
6.97971e-05
5.87231e-05
6.90958e-05
7.10127e-05
7.00216e-05
7.39871e-05
7.39083e-05
7.10115e-05
7.10313e-05
7.37965e-05
7.00168e-05
7.10325e-05
7.38765e-05
6.98105e-05
5.25212e-05
5.90129e-05
6.91175e-05
5.88193e-05
6.91015e-05
6.98214e-05
6.98067e-05
6.90805e-05
5.85194e-05
5.23869e-05
6.9796e-05
6.90953e-05
5.87208e-05
7.10105e-05
7.00178e-05
7.39708e-05
7.38935e-05
7.1009e-05
7.10295e-05
7.37781e-05
7.00133e-05
7.10308e-05
7.3861e-05
6.98091e-05
5.25203e-05
6.9117e-05
5.90086e-05
6.9101e-05
5.88164e-05
6.98199e-05
6.96485e-05
6.96648e-05
8.71871e-05
7.24784e-05
7.24841e-05
8.71045e-05
7.24755e-05
7.24812e-05
5.66745e-05
3.88134e-05
5.88394e-05
6.87915e-05
3.85915e-05
6.87642e-05
5.68568e-05
5.66083e-05
3.87947e-05
5.88281e-05
6.87793e-05
6.87522e-05
3.85703e-05
5.67891e-05
5.65682e-05
6.87223e-05
3.81842e-05
5.87785e-05
3.84143e-05
5.63712e-05
6.87519e-05
5.65001e-05
6.87107e-05
3.81654e-05
5.87685e-05
5.63054e-05
6.87398e-05
3.8396e-05
8.72255e-05
7.24536e-05
7.24593e-05
7.24571e-05
7.24627e-05
8.73108e-05
6.96465e-05
6.9663e-05
6.98067e-05
5.85202e-05
6.90808e-05
5.23912e-05
6.97963e-05
5.8725e-05
6.90953e-05
7.10107e-05
7.00172e-05
7.39691e-05
7.38921e-05
7.10092e-05
7.10296e-05
7.37782e-05
7.00128e-05
7.10309e-05
7.38601e-05
6.98089e-05
5.25233e-05
5.90101e-05
6.91166e-05
5.88203e-05
6.91008e-05
6.98194e-05
6.98082e-05
5.85207e-05
6.90811e-05
5.23906e-05
6.97972e-05
5.87248e-05
6.90959e-05
7.10128e-05
7.0023e-05
7.39917e-05
7.39121e-05
7.10113e-05
7.10315e-05
7.37934e-05
7.00183e-05
7.10327e-05
7.38786e-05
6.98107e-05
5.25237e-05
5.90155e-05
6.91173e-05
5.88214e-05
6.91015e-05
6.98213e-05
8.7193e-05
7.24848e-05
7.2479e-05
8.71168e-05
7.2481e-05
7.24751e-05
5.66055e-05
3.87944e-05
5.88312e-05
6.87794e-05
5.67984e-05
3.85644e-05
6.87514e-05
5.6673e-05
3.88136e-05
5.88443e-05
6.87917e-05
5.68633e-05
3.85838e-05
6.87638e-05
5.64916e-05
6.87112e-05
3.81659e-05
5.87725e-05
5.62974e-05
3.83911e-05
6.87391e-05
5.65567e-05
6.87235e-05
3.81847e-05
5.87855e-05
5.63652e-05
3.84101e-05
6.87516e-05
8.72253e-05
7.24585e-05
7.24526e-05
8.7303e-05
7.24616e-05
7.24557e-05
6.96464e-05
6.96631e-05
6.96487e-05
6.96654e-05
6.96246e-05
6.96086e-05
6.96266e-05
6.96105e-05
8.74573e-05
7.24158e-05
7.24096e-05
7.24191e-05
7.24127e-05
8.75433e-05
5.70718e-05
3.89587e-05
6.87904e-05
5.91221e-05
5.68941e-05
6.88167e-05
3.91849e-05
5.71317e-05
3.89842e-05
6.88029e-05
5.91373e-05
5.69645e-05
6.88293e-05
3.91964e-05
8.74182e-05
7.24397e-05
7.24332e-05
8.73329e-05
7.24369e-05
7.24307e-05
5.71866e-05
6.88542e-05
5.91789e-05
3.95789e-05
6.88282e-05
5.73726e-05
3.93449e-05
5.72587e-05
6.88667e-05
5.91928e-05
3.95858e-05
6.88406e-05
5.74299e-05
3.93709e-05
6.95722e-05
6.95878e-05
6.95747e-05
6.959e-05
8.76368e-05
7.23964e-05
7.23898e-05
8.75744e-05
7.23918e-05
7.23857e-05
5.77258e-05
4.03399e-05
5.95117e-05
6.89231e-05
6.8899e-05
4.01105e-05
5.79097e-05
5.78043e-05
4.03327e-05
5.95235e-05
6.89339e-05
6.89117e-05
4.01447e-05
5.79229e-05
5.76462e-05
6.8865e-05
3.97361e-05
5.94589e-05
5.74764e-05
6.88893e-05
3.997e-05
5.76997e-05
6.88776e-05
3.97661e-05
5.94714e-05
5.75558e-05
6.89017e-05
3.99748e-05
8.76542e-05
7.23679e-05
7.23612e-05
7.23709e-05
7.23648e-05
8.76953e-05
6.98365e-05
5.32907e-05
6.9163e-05
5.95547e-05
6.91457e-05
5.93783e-05
6.98472e-05
7.09909e-05
7.40222e-05
7.00479e-05
7.09926e-05
7.40963e-05
6.98341e-05
5.31661e-05
6.91228e-05
5.91094e-05
6.91391e-05
6.98236e-05
5.92915e-05
7.09715e-05
7.41871e-05
7.00521e-05
7.41225e-05
7.09698e-05
6.98579e-05
6.91689e-05
5.96375e-05
5.38963e-05
6.98478e-05
6.91854e-05
5.9811e-05
7.09288e-05
7.00768e-05
7.4348e-05
7.42894e-05
7.0927e-05
7.09484e-05
7.41954e-05
7.0073e-05
7.09498e-05
7.42648e-05
6.98598e-05
5.40063e-05
6.92083e-05
6.00517e-05
6.91916e-05
5.98915e-05
6.98694e-05
6.986e-05
6.91695e-05
5.96397e-05
5.38977e-05
6.98496e-05
6.91863e-05
5.98129e-05
7.09318e-05
7.00824e-05
7.4375e-05
7.43048e-05
7.09304e-05
7.09498e-05
7.42118e-05
7.0078e-05
7.0951e-05
7.42774e-05
6.9862e-05
5.40086e-05
6.9209e-05
6.00606e-05
6.91924e-05
5.98949e-05
6.98716e-05
8.74524e-05
7.24121e-05
7.24171e-05
7.24153e-05
7.24203e-05
8.75498e-05
5.71392e-05
3.8973e-05
6.88015e-05
5.91351e-05
6.88287e-05
5.69463e-05
3.91964e-05
5.7074e-05
3.89541e-05
6.87896e-05
5.91232e-05
3.91765e-05
5.68806e-05
6.88167e-05
8.74048e-05
7.24328e-05
7.24379e-05
7.24311e-05
8.73255e-05
7.24361e-05
5.72546e-05
6.88678e-05
5.91907e-05
3.95952e-05
6.88408e-05
3.93646e-05
5.74434e-05
5.719e-05
6.88555e-05
5.9179e-05
3.95768e-05
3.93482e-05
6.88288e-05
5.73777e-05
6.96243e-05
6.96082e-05
6.95746e-05
6.95901e-05
8.76351e-05
7.23915e-05
7.23965e-05
8.7579e-05
7.23864e-05
7.23914e-05
5.77866e-05
4.03424e-05
5.95247e-05
6.89352e-05
4.01297e-05
6.89117e-05
5.79507e-05
5.772e-05
4.03216e-05
5.95115e-05
6.89227e-05
6.88991e-05
4.01105e-05
5.78849e-05
5.77038e-05
6.88784e-05
3.97599e-05
5.94724e-05
3.99799e-05
5.75393e-05
6.8902e-05
5.76368e-05
6.8866e-05
3.97428e-05
5.94594e-05
5.7473e-05
6.88893e-05
3.99592e-05
8.76525e-05
7.23627e-05
7.23677e-05
7.23655e-05
7.23704e-05
8.77008e-05
6.9572e-05
6.95876e-05
6.98358e-05
5.32932e-05
6.91625e-05
5.95558e-05
6.91455e-05
5.93736e-05
6.98463e-05
7.09884e-05
7.39916e-05
7.00443e-05
7.09889e-05
7.40609e-05
6.98334e-05
5.31696e-05
6.91228e-05
5.90969e-05
6.91392e-05
6.98225e-05
5.92834e-05
7.09702e-05
7.41708e-05
7.00493e-05
7.40922e-05
7.09696e-05
6.98594e-05
5.96422e-05
6.91693e-05
5.38971e-05
6.98493e-05
5.98143e-05
6.91861e-05
7.09305e-05
7.0082e-05
7.43674e-05
7.43049e-05
7.0929e-05
7.09495e-05
7.42162e-05
7.0078e-05
7.09511e-05
7.4281e-05
6.98614e-05
5.40088e-05
6.0057e-05
6.9209e-05
5.98947e-05
6.91924e-05
6.98708e-05
6.98582e-05
6.91689e-05
5.96417e-05
5.38969e-05
6.98484e-05
6.91857e-05
5.98138e-05
7.09283e-05
7.00792e-05
7.43484e-05
7.4294e-05
7.09265e-05
7.0949e-05
7.42014e-05
7.00756e-05
7.09506e-05
7.42716e-05
6.986e-05
5.40084e-05
6.92085e-05
6.00528e-05
6.91919e-05
5.98933e-05
6.98694e-05
6.9837e-05
5.33028e-05
5.95626e-05
6.91626e-05
5.93835e-05
6.91463e-05
6.98471e-05
7.09914e-05
7.4019e-05
7.00487e-05
7.40961e-05
7.09929e-05
6.98347e-05
5.31788e-05
5.91061e-05
6.91237e-05
5.92942e-05
6.98239e-05
6.91402e-05
7.0972e-05
7.41925e-05
7.0053e-05
7.41243e-05
7.09702e-05
6.98352e-05
5.33012e-05
6.91619e-05
5.95585e-05
6.91456e-05
5.93789e-05
6.98453e-05
7.09882e-05
7.40006e-05
7.0044e-05
7.09897e-05
7.40735e-05
6.9833e-05
5.31774e-05
6.91231e-05
5.91015e-05
6.98223e-05
6.91395e-05
5.92894e-05
7.09691e-05
7.41718e-05
7.00483e-05
7.41018e-05
7.09676e-05
6.98588e-05
5.96462e-05
6.91688e-05
5.38913e-05
6.98491e-05
5.98142e-05
6.91854e-05
7.09303e-05
7.0081e-05
7.43677e-05
7.43041e-05
7.09288e-05
7.09492e-05
7.42169e-05
7.0077e-05
7.09508e-05
7.42798e-05
6.98607e-05
5.40025e-05
6.00538e-05
6.92091e-05
5.98933e-05
6.91919e-05
6.98704e-05
6.98569e-05
6.9168e-05
5.96424e-05
5.38905e-05
6.98472e-05
6.91847e-05
5.98105e-05
7.09277e-05
7.00773e-05
7.43483e-05
7.42875e-05
7.0926e-05
7.09468e-05
7.41981e-05
7.00735e-05
7.09485e-05
7.42636e-05
6.98588e-05
5.40017e-05
6.92083e-05
6.00496e-05
6.91912e-05
5.98895e-05
6.98683e-05
8.74574e-05
7.24101e-05
7.24158e-05
7.24132e-05
7.24189e-05
8.75394e-05
5.71451e-05
3.89802e-05
6.88028e-05
5.91349e-05
6.8829e-05
5.69572e-05
3.92e-05
5.70777e-05
3.89599e-05
6.87909e-05
5.91262e-05
3.91834e-05
5.68911e-05
6.88172e-05
8.74225e-05
7.24344e-05
7.24401e-05
7.24313e-05
8.7345e-05
7.2437e-05
5.72549e-05
6.88669e-05
5.91901e-05
3.95945e-05
6.88405e-05
3.93693e-05
5.74428e-05
5.71883e-05
6.88551e-05
5.9182e-05
3.95776e-05
3.93498e-05
6.88288e-05
5.73757e-05
6.96251e-05
6.96091e-05
6.95746e-05
6.95902e-05
8.76355e-05
7.23908e-05
7.23965e-05
8.75711e-05
7.23866e-05
7.23922e-05
5.77901e-05
4.03448e-05
5.95224e-05
6.89354e-05
4.01347e-05
6.89119e-05
5.79549e-05
5.77241e-05
4.03285e-05
5.95108e-05
6.89235e-05
6.88999e-05
4.01144e-05
5.78891e-05
5.77064e-05
6.88777e-05
3.97619e-05
5.94694e-05
3.99799e-05
5.75398e-05
6.8902e-05
5.76402e-05
6.88658e-05
3.97411e-05
5.94583e-05
5.74736e-05
6.889e-05
3.9962e-05
8.76567e-05
7.2364e-05
7.23696e-05
7.23666e-05
7.23722e-05
8.77107e-05
6.95729e-05
6.95883e-05
6.98352e-05
5.32967e-05
5.95507e-05
6.91622e-05
5.93713e-05
6.91456e-05
6.98458e-05
7.09884e-05
7.39984e-05
7.00433e-05
7.40693e-05
7.099e-05
6.98327e-05
5.31726e-05
5.91005e-05
6.91227e-05
5.92829e-05
6.98218e-05
6.91394e-05
7.09692e-05
7.41629e-05
7.00477e-05
7.40959e-05
7.09678e-05
6.98363e-05
5.32995e-05
5.95612e-05
6.91624e-05
5.93829e-05
6.91459e-05
6.98465e-05
7.09904e-05
7.40213e-05
7.00494e-05
7.0992e-05
7.40935e-05
6.98341e-05
5.31763e-05
5.9108e-05
6.91234e-05
6.98237e-05
5.92945e-05
6.91398e-05
7.09713e-05
7.41905e-05
7.00536e-05
7.4121e-05
7.09697e-05
6.9858e-05
5.96369e-05
6.91685e-05
5.38934e-05
6.9848e-05
5.98107e-05
6.91852e-05
7.09298e-05
7.00786e-05
7.43551e-05
7.42874e-05
7.0928e-05
7.09482e-05
7.419e-05
7.00745e-05
7.09494e-05
7.42598e-05
6.98599e-05
5.40055e-05
6.00548e-05
6.92085e-05
5.98919e-05
6.91915e-05
6.98693e-05
6.98584e-05
5.96452e-05
6.91686e-05
5.38942e-05
6.98486e-05
5.98153e-05
6.91854e-05
7.093e-05
7.00827e-05
7.43708e-05
7.43087e-05
7.09282e-05
7.09491e-05
7.42171e-05
7.0079e-05
7.09507e-05
7.42843e-05
6.98603e-05
5.40066e-05
6.00579e-05
6.92086e-05
5.98954e-05
6.91918e-05
6.98697e-05
6.96247e-05
6.96089e-05
6.96267e-05
6.96109e-05
8.76458e-05
7.2397e-05
7.23912e-05
8.75656e-05
7.23937e-05
7.23878e-05
5.77449e-05
4.03383e-05
5.95118e-05
6.89238e-05
4.01203e-05
6.89007e-05
5.79054e-05
5.78116e-05
4.03576e-05
5.95248e-05
6.89361e-05
4.01401e-05
6.89131e-05
5.79699e-05
5.76508e-05
6.88652e-05
3.97336e-05
5.94596e-05
5.74678e-05
3.99594e-05
6.88905e-05
5.77169e-05
6.88775e-05
3.97522e-05
5.94725e-05
5.75346e-05
3.99787e-05
6.8903e-05
8.76739e-05
7.23695e-05
7.23636e-05
7.2374e-05
7.23682e-05
8.77286e-05
6.95722e-05
6.95878e-05
6.95744e-05
6.959e-05
1.50514e-05
1.50516e-05
1.48518e-05
1.49438e-05
1.4944e-05
1.52981e-05
1.54158e-05
3.78976e-05
2.49383e-05
2.49434e-05
1.81546e-05
3.77656e-05
2.50289e-05
2.50338e-05
3.73499e-05
1.80005e-05
2.47153e-05
2.47204e-05
2.46266e-05
2.46317e-05
3.74829e-05
3.73497e-05
1.79998e-05
2.47192e-05
2.47152e-05
2.46305e-05
2.46266e-05
3.74823e-05
3.73514e-05
1.80008e-05
2.47208e-05
2.47171e-05
2.4632e-05
2.46281e-05
3.74851e-05
3.73498e-05
1.80006e-05
2.47162e-05
2.47209e-05
3.74842e-05
2.4627e-05
2.4632e-05
3.78953e-05
2.49373e-05
2.49427e-05
1.81543e-05
3.77634e-05
2.50275e-05
2.50328e-05
3.89771e-05
1.85676e-05
2.59985e-05
2.59897e-05
2.58955e-05
2.59072e-05
3.91014e-05
3.78926e-05
2.4941e-05
2.49369e-05
1.81538e-05
2.50268e-05
3.77601e-05
2.5031e-05
3.89746e-05
1.8567e-05
2.59945e-05
2.59902e-05
2.59018e-05
2.58976e-05
3.90993e-05
3.78972e-05
2.49431e-05
2.49391e-05
1.81549e-05
2.50295e-05
3.77648e-05
2.50331e-05
3.89779e-05
1.8568e-05
2.59972e-05
2.59932e-05
2.59042e-05
2.58999e-05
3.91034e-05
3.89813e-05
1.85681e-05
2.59932e-05
2.59986e-05
2.58994e-05
2.59051e-05
3.9107e-05
1.51162e-05
1.51611e-05
1.51614e-05
1.52733e-05
1.52736e-05
1.56566e-05
1.55353e-05
1.51161e-05
1.51611e-05
1.51614e-05
1.52733e-05
1.52736e-05
1.56566e-05
1.55354e-05
1.51162e-05
1.5161e-05
1.51613e-05
1.52733e-05
1.52735e-05
1.56564e-05
1.55352e-05
1.51162e-05
1.51612e-05
1.51614e-05
1.52734e-05
1.52736e-05
1.56565e-05
1.55353e-05
1.50514e-05
1.50517e-05
1.48518e-05
1.49438e-05
1.49441e-05
1.52981e-05
1.54159e-05
1.50513e-05
1.50517e-05
1.48518e-05
1.49437e-05
1.4944e-05
1.52979e-05
1.54157e-05
1.50515e-05
1.50517e-05
1.48519e-05
1.49439e-05
1.49441e-05
1.5298e-05
1.54158e-05
1.477e-05
1.47356e-05
1.47358e-05
1.48388e-05
1.4839e-05
1.5182e-05
1.50676e-05
1.477e-05
1.47356e-05
1.47359e-05
1.48388e-05
1.48391e-05
1.51821e-05
1.50676e-05
1.47699e-05
1.47355e-05
1.47359e-05
1.48387e-05
1.4839e-05
1.51819e-05
1.50675e-05
1.47701e-05
1.47357e-05
1.47359e-05
1.48388e-05
1.48391e-05
1.5182e-05
1.50675e-05
1.9643e-05
2.92545e-05
3.35772e-05
1.8046e-05
3.34428e-05
1.80055e-05
1.9687e-05
2.24227e-05
2.76361e-05
3.95943e-05
4.53213e-05
2.23605e-05
2.77418e-05
3.97122e-05
1.94919e-05
2.8965e-05
3.30188e-05
1.78506e-05
1.94496e-05
3.3154e-05
1.78891e-05
2.26189e-05
4.00908e-05
4.55246e-05
2.80893e-05
2.79821e-05
3.99747e-05
2.26825e-05
1.96426e-05
2.92535e-05
1.80462e-05
3.35725e-05
1.80058e-05
3.34385e-05
1.96865e-05
2.24224e-05
2.76377e-05
3.95898e-05
4.53286e-05
2.23602e-05
2.77437e-05
3.97071e-05
1.94921e-05
2.89648e-05
1.78512e-05
3.30176e-05
1.94499e-05
1.78894e-05
3.31518e-05
2.2618e-05
4.00829e-05
4.5519e-05
2.80907e-05
2.79836e-05
3.99672e-05
2.26815e-05
3.81741e-05
1.8269e-05
2.53461e-05
2.5351e-05
2.52543e-05
2.52595e-05
3.83049e-05
3.7066e-05
1.78982e-05
2.43212e-05
2.43261e-05
3.69314e-05
2.44083e-05
2.44132e-05
1.91252e-05
3.2166e-05
1.75666e-05
2.81153e-05
1.90864e-05
3.23025e-05
1.76004e-05
2.21083e-05
2.73999e-05
4.48912e-05
3.9327e-05
2.72947e-05
3.92069e-05
2.21693e-05
2.19224e-05
3.88169e-05
2.69546e-05
4.4673e-05
2.70587e-05
2.18632e-05
3.89385e-05
1.92639e-05
2.84021e-05
3.27289e-05
1.77404e-05
3.25926e-05
1.77045e-05
1.93045e-05
1.91266e-05
3.217e-05
1.75667e-05
2.81164e-05
1.90876e-05
3.2307e-05
1.76007e-05
2.21118e-05