/*--------------------------------*- C++ -*----------------------------------*\
| =========                 |                                                 |
| \\      /  F ield         | OpenFOAM: The Open Source CFD Toolbox           |
|  \\    /   O peration     | Version:  v1906                                 |
|   \\  /    A nd           | Web:      www.OpenFOAM.com                      |
|    \\/     M anipulation  |                                                 |
\*---------------------------------------------------------------------------*/
FoamFile
{
    version     2.0;
    format      ascii;
    class       volScalarField;
    location    "1000";
    object      nut;
}
// * * * * * * * * * * * * * * * * * * * * * * * * * * * * * * * * * * * * * //

dimensions      [0 2 -1 0 0 0 0];


internalField   nonuniform List<scalar> 
43248
(
9.95613e-05
9.81204e-05
0.00011839
0.0001171
9.92941e-05
0.000200465
0.000119492
0.00012759
0.000221316
0.000202857
0.00012962
0.000129964
9.11442e-05
0.000101139
0.000164569
0.000106334
2.37872e-05
2.37503e-05
7.03674e-05
7.14102e-05
8.88766e-05
5.03523e-05
8.97072e-05
8.93197e-05
4.97857e-05
4.96658e-05
8.95216e-05
0.000114062
8.8868e-05
0.000114355
0.000120764
0.000113742
0.000115412
0.000122048
8.81079e-05
0.000120221
8.9558e-05
0.000121772
0.000113957
2.34922e-05
2.34479e-05
0.000127077
6.90584e-05
6.90088e-05
7.04075e-05
7.09764e-05
2.34449e-05
2.34137e-05
5.0226e-05
9.28533e-05
9.13224e-05
0.000114979
0.00012404
4.95675e-05
9.33876e-05
0.000150757
0.000102868
0.000127564
0.000120433
0.00012357
8.88407e-05
0.000121923
9.09648e-05
0.000123125
0.000119462
9.15588e-05
4.96535e-05
4.96326e-05
9.10222e-05
0.000120473
0.000127564
0.000122913
9.17323e-05
0.000123298
9.23273e-05
0.000120152
9.1798e-05
4.97523e-05
4.97758e-05
9.1267e-05
2.3316e-05
7.75075e-05
7.79618e-05
2.32891e-05
0.00013082
0.000156824
0.000104539
0.000150353
0.00013461
0.000127989
0.000128724
0.000134997
9.3526e-05
0.000129764
9.55422e-05
0.000131672
9.62127e-05
4.94888e-05
9.47877e-05
9.54718e-05
4.96153e-05
4.97346e-05
9.4263e-05
0.000129595
7.12231e-05
7.16469e-05
7.17027e-05
7.36573e-05
2.3478e-05
2.34693e-05
2.34252e-05
2.34405e-05
2.37704e-05
2.37385e-05
8.67599e-05
0.000103372
6.83019e-05
4.87412e-05
4.85905e-05
9.82287e-05
9.02201e-05
8.83227e-05
0.000105877
6.98299e-05
4.87234e-05
4.85934e-05
0.000100879
9.17395e-05
7.12403e-05
2.16831e-05
2.16749e-05
2.16387e-05
2.16325e-05
7.36114e-05
3.62748e-05
4.05136e-05
8.46907e-05
8.89967e-05
3.62525e-05
4.05365e-05
8.50817e-05
2.0128e-05
5.02916e-05
7.50697e-05
7.4358e-05
2.01362e-05
3.6289e-05
8.92669e-05
4.05664e-05
8.63649e-05
4.05527e-05
8.56741e-05
3.63007e-05
3.6238e-05
4.05005e-05
8.57265e-05
8.91372e-05
3.62201e-05
4.05226e-05
8.55239e-05
2.00717e-05
4.97462e-05
7.46354e-05
7.43703e-05
2.00776e-05
2.00684e-05
7.40333e-05
4.97058e-05
2.00584e-05
7.41489e-05
3.62503e-05
8.91901e-05
4.05541e-05
8.58271e-05
4.05392e-05
8.55144e-05
3.62629e-05
2.34738e-05
2.34643e-05
7.46362e-05
2.12415e-05
2.12446e-05
7.54735e-05
2.12568e-05
2.12525e-05
9.01573e-05
0.000102153
6.94796e-05
4.72547e-05
0.000103017
4.71831e-05
8.92771e-05
9.04567e-05
0.000102786
6.96371e-05
4.71556e-05
4.71191e-05
0.000103886
8.94884e-05
9.12365e-05
4.71361e-05
0.000105622
6.9955e-05
0.000104212
9.23889e-05
4.71433e-05
9.16434e-05
4.71171e-05
0.000107326
7.03273e-05
9.28967e-05
4.71127e-05
0.000105529
7.39227e-05
2.13015e-05
2.12889e-05
2.12737e-05
2.12653e-05
7.3439e-05
2.3427e-05
2.34193e-05
2.00858e-05
5.01898e-05
7.55775e-05
7.54267e-05
2.00862e-05
3.62168e-05
9.29669e-05
8.82136e-05
4.04756e-05
8.81148e-05
4.04807e-05
3.62153e-05
2.00409e-05
4.96596e-05
7.67916e-05
7.71212e-05
2.00362e-05
3.6183e-05
9.38718e-05
4.04619e-05
8.93567e-05
4.04706e-05
9.00494e-05
3.61716e-05
3.61762e-05
8.73238e-05
4.04528e-05
9.13855e-05
3.61762e-05
8.72014e-05
4.04512e-05
2.0037e-05
4.9635e-05
7.47512e-05
7.48696e-05
2.00375e-05
2.00385e-05
7.51457e-05
4.96317e-05
2.00382e-05
7.50569e-05
3.61763e-05
9.11311e-05
8.6904e-05
4.04499e-05
8.69879e-05
4.04496e-05
3.61791e-05
3.61868e-05
4.04587e-05
8.78892e-05
9.16563e-05
3.61893e-05
4.04563e-05
8.77831e-05
2.00364e-05
4.97563e-05
7.49818e-05
7.49803e-05
2.00379e-05
2.00375e-05
7.52045e-05
4.97664e-05
2.00379e-05
7.51399e-05
3.61828e-05
9.13861e-05
4.04523e-05
8.74353e-05
4.04528e-05
8.75193e-05
3.61823e-05
2.33507e-05
0.000121246
0.000142733
8.04988e-05
4.6753e-05
0.000149385
4.70162e-05
0.000114467
0.000121882
0.000144942
8.12422e-05
4.67084e-05
4.69948e-05
0.000151626
0.000115054
8.67923e-05
2.10173e-05
2.10079e-05
2.10726e-05
2.10687e-05
8.16682e-05
2.33271e-05
3.61482e-05
9.26904e-05
4.04446e-05
9.65727e-05
3.6179e-05
9.26294e-05
4.04123e-05
2.00181e-05
4.96024e-05
7.7055e-05
7.77291e-05
2.00092e-05
2.00386e-05
7.85991e-05
3.6115e-05
9.5804e-05
9.04199e-05
4.0354e-05
9.14411e-05
4.03776e-05
3.60944e-05
3.61311e-05
9.08342e-05
4.04377e-05
9.58015e-05
3.61545e-05
9.05842e-05
4.04077e-05
1.99848e-05
4.9642e-05
7.51366e-05
7.57151e-05
1.99809e-05
1.99975e-05
7.70457e-05
4.96857e-05
2.00088e-05
7.64983e-05
3.61071e-05
9.51262e-05
8.91016e-05
4.03546e-05
8.9758e-05
4.03759e-05
3.60937e-05
7.77411e-05
2.13168e-05
2.13212e-05
7.79503e-05
2.13158e-05
2.13162e-05
9.48918e-05
0.000108852
7.12678e-05
4.73872e-05
0.000109245
4.73888e-05
9.45561e-05
9.61973e-05
0.000111069
7.22743e-05
4.73188e-05
0.000111788
4.73461e-05
9.55985e-05
9.54556e-05
4.74147e-05
0.00011041
7.14749e-05
9.5777e-05
0.000109948
4.73989e-05
9.69651e-05
4.74357e-05
0.000113339
7.30651e-05
9.74111e-05
0.000112786
4.73889e-05
7.73498e-05
2.1317e-05
2.13072e-05
2.13147e-05
2.1309e-05
7.70069e-05
2.34711e-05
2.34697e-05
2.34256e-05
2.34322e-05
0.000102617
8.93468e-05
0.000109792
0.00011161
0.000101121
0.000102706
0.000109385
0.000108303
0.000120016
0.000113785
0.000114146
0.000115275
0.000115892
0.000107119
0.000170186
0.000215823
0.000194404
0.000196204
0.000196357
0.000197894
0.000163485
0.000117034
0.000130225
0.000124606
0.000126143
0.000125145
0.000126714
0.000116412
0.000107707
0.000107972
0.000112648
0.000126846
0.000124496
0.000105815
0.000107637
0.00010734
0.000110846
0.000110221
0.000125462
0.000122823
0.000130671
0.00013213
0.000123264
0.000124265
0.000128783
0.000107517
0.000107714
0.000111309
0.000110557
0.000109473
0.000125098
0.000124008
0.000116973
0.000108338
0.000124474
0.000113358
0.000118292
0.000107881
0.000123603
0.000107905
0.000108554
8.65727e-05
0.000102131
0.000103963
9.9773e-05
0.000111549
0.000115732
0.000113206
0.000110444
0.000121816
0.000108933
0.000122087
0.000116665
0.000124579
0.000112366
0.000126391
0.000114782
0.000125382
0.000111798
0.000125741
0.000118673
0.000111385
8.8647e-05
0.000101234
0.00010166
0.000112187
0.000117876
0.000119286
0.000102652
0.000114414
8.91596e-05
0.000120547
0.000102259
0.000113027
0.000123791
0.000114122
0.000110575
0.000124152
0.000111139
0.000124604
0.000123176
0.000110117
0.000122635
0.000120515
0.000121636
0.000117505
0.000112279
0.000118444
0.000115888
0.000113582
8.94778e-05
0.000106661
0.000108923
0.000104816
0.00011965
0.000125699
0.000123475
0.000118122
0.000136334
0.000116721
0.000134791
0.00012825
0.000160469
0.000157346
0.000106509
0.00011778
0.000120665
0.000160816
0.000161336
0.000151379
0.000127162
0.000144836
0.000126893
0.000143156
0.000128062
0.000153693
0.000129353
0.000116206
0.000131422
0.00012036
0.0001297
0.000115704
0.000131736
0.000121916
0.000112839
8.93734e-05
0.000103215
0.000114036
0.000103688
0.000120558
0.000123159
0.000105236
0.000117569
9.01546e-05
0.000124781
0.0001157
0.000104513
0.000128894
0.000119806
0.000114546
0.000131389
0.000114954
0.000131693
0.000127853
0.000130127
0.000131565
0.000116822
0.000120632
0.000129687
0.000131951
0.000116949
0.000125597
0.000118389
9.18209e-05
0.000106127
0.00010628
0.000118718
0.000125376
0.000125672
0.000106746
0.000119538
9.21752e-05
0.000125346
0.000106666
0.000119231
0.00013027
0.000120439
0.000132288
0.000116512
0.000132124
0.000116732
0.000130379
0.000155686
0.000145848
0.000130918
0.000132701
0.000151079
0.000149326
0.000132835
0.000166361
0.000161526
0.000108555
0.000121015
0.000164832
0.000124336
0.000167659
0.000162488
0.000125773
0.000159109
0.000134447
0.000155701
0.000132007
0.000152202
0.000133757
0.000162473
0.000137605
0.000140027
0.000122405
0.000129601
0.000135511
0.000142615
0.000123608
0.000131816
0.000122833
9.41603e-05
0.000110046
0.000110828
0.000123388
0.000132751
0.000130799
0.000110955
0.000122825
9.50738e-05
0.000129199
0.000111444
0.000123707
0.000139022
0.000131206
0.00014788
0.000124216
0.000144989
0.000124545
0.000141437
0.00011793
0.000130226
0.000126304
0.000127291
0.000118398
0.000125937
0.000127536
0.000150136
0.000101702
0.000101695
8.25637e-05
8.28483e-05
0.000102444
0.00010244
8.28527e-05
0.000102474
0.000102433
0.000102482
0.000102452
8.28449e-05
0.000102477
0.000102473
8.28445e-05
8.25675e-05
8.22528e-05
0.000101674
0.000101659
9.9505e-05
9.94959e-05
8.25726e-05
8.22535e-05
0.000101681
0.00010165
9.95414e-05
9.949e-05
0.000101671
9.95464e-05
9.95174e-05
8.25651e-05
8.22434e-05
0.000101691
9.95343e-05
9.95406e-05
8.2249e-05
0.000151163
0.000151166
0.000151154
0.000151162
7.00667e-05
4.95517e-05
6.90651e-05
4.95608e-05
2.36288e-05
2.36252e-05
7.00537e-05
4.95496e-05
6.90725e-05
4.95589e-05
0.000150141
0.00015013
0.000150138
0.000147065
0.000147066
0.000147056
0.000147064
6.71092e-05
6.57821e-05
0.000126165
0.000100954
6.61366e-05
6.64782e-05
0.000125149
2.36266e-05
2.3623e-05
6.71017e-05
0.000126172
6.57689e-05
0.000100942
6.61393e-05
0.000125142
6.64879e-05
6.10679e-05
6.10719e-05
8.24628e-05
6.15177e-05
6.15167e-05
2.36316e-05
2.36354e-05
2.36303e-05
2.3634e-05
8.3049e-05
6.10264e-05
6.10233e-05
6.05592e-05
6.05687e-05
6.79014e-05
4.95502e-05
4.95403e-05
6.89611e-05
6.79077e-05
4.95519e-05
4.95423e-05
6.8963e-05
6.47463e-05
0.00010327
6.54861e-05
0.000127155
6.48036e-05
0.000128193
6.56856e-05
6.47481e-05
0.000103253
6.55089e-05
0.000127151
6.47865e-05
0.000128188
6.56895e-05
2.36315e-05
2.36353e-05
8.30498e-05
6.10279e-05
6.10298e-05
6.05669e-05
6.05584e-05
2.36319e-05
2.36357e-05
6.7911e-05
4.95481e-05
4.95385e-05
6.89497e-05
6.47514e-05
0.000103278
6.55041e-05
0.000127156
6.47886e-05
0.000128198
6.56852e-05
6.7906e-05
4.9544e-05
4.95348e-05
6.89472e-05
6.47521e-05
0.000103247
0.000127149
6.54864e-05
0.000128187
6.47984e-05
6.56819e-05
6.47479e-05
0.000103297
6.54893e-05
0.000127159
6.47969e-05
0.000128199
6.56747e-05
6.7902e-05
4.95509e-05
4.95411e-05
6.8946e-05
6.47482e-05
0.000103265
0.000127155
6.55031e-05
0.000128194
6.47867e-05
6.56762e-05
6.79006e-05
4.9547e-05
4.95373e-05
6.89463e-05
2.36294e-05
2.3633e-05
8.3044e-05
6.10297e-05
6.10237e-05
6.05539e-05
6.05634e-05
2.36309e-05
2.36346e-05
6.47491e-05
0.000103291
0.00012716
6.55063e-05
0.0001282
6.4782e-05
6.56805e-05
6.47473e-05
0.000103289
0.00012716
6.55071e-05
0.000128201
6.47854e-05
6.56789e-05
6.7918e-05
4.95464e-05
4.95368e-05
6.89409e-05
6.79115e-05
4.95478e-05
4.95378e-05
6.89451e-05
8.30459e-05
6.10249e-05
6.10277e-05
6.05653e-05
6.05673e-05
2.36306e-05
2.36345e-05
2.36301e-05
2.3634e-05
2.36288e-05
2.36252e-05
2.36277e-05
2.36241e-05
6.1065e-05
6.10739e-05
8.24672e-05
6.1518e-05
6.15186e-05
2.36188e-05
2.36225e-05
2.36183e-05
2.36214e-05
8.22532e-05
6.19834e-05
6.19884e-05
6.15595e-05
6.15628e-05
7.00629e-05
4.95534e-05
6.90673e-05
4.95625e-05
6.70994e-05
6.57893e-05
0.000126161
0.000100913
6.61443e-05
6.64675e-05
0.00012514
6.70983e-05
6.5769e-05
0.000126155
0.000100909
6.61473e-05
6.64959e-05
0.000125136
7.01821e-05
4.95707e-05
4.95624e-05
7.10834e-05
7.01803e-05
4.95734e-05
4.9564e-05
7.1091e-05
6.75779e-05
0.00010021
6.74211e-05
0.000123167
6.67548e-05
0.000124163
6.85578e-05
6.75759e-05
0.000100191
6.74399e-05
0.000123162
6.674e-05
0.000124155
6.85596e-05
6.1074e-05
6.10685e-05
8.24746e-05
6.15195e-05
6.15189e-05
2.36292e-05
2.36256e-05
2.36191e-05
2.36226e-05
8.22595e-05
6.1988e-05
6.1983e-05
6.15638e-05
6.156e-05
2.36194e-05
2.36229e-05
6.70987e-05
6.57765e-05
0.000126163
0.000100943
6.6143e-05
6.6483e-05
0.000125139
7.00535e-05
4.95456e-05
6.90698e-05
4.95556e-05
6.70965e-05
0.00012615
6.57861e-05
0.000100898
6.61395e-05
0.000125132
6.64633e-05
7.0181e-05
4.95693e-05
4.95603e-05
7.10891e-05
6.75756e-05
0.000100216
6.74354e-05
0.000123166
6.67448e-05
0.000124169
6.85613e-05
7.01802e-05
4.95652e-05
4.95572e-05
7.1087e-05
6.75745e-05
0.00010018
0.000123158
6.74201e-05
0.000124154
6.67496e-05
6.856e-05
7.00744e-05
4.95525e-05
6.90693e-05
4.95616e-05
6.71094e-05
0.000126162
6.57757e-05
0.000100922
6.6138e-05
0.000125147
6.64802e-05
7.0072e-05
4.95485e-05
6.90681e-05
4.95577e-05
6.75861e-05
0.000100238
6.74259e-05
0.00012318
6.67536e-05
0.000124169
6.85607e-05
7.01776e-05
4.95715e-05
4.9563e-05
7.10855e-05
6.75852e-05
0.000100207
0.000123174
6.74393e-05
0.000124166
6.6737e-05
6.85582e-05
7.01745e-05
4.95676e-05
4.95591e-05
7.10848e-05
6.10695e-05
6.10701e-05
8.24634e-05
6.15134e-05
6.15178e-05
2.36281e-05
2.36245e-05
2.36169e-05
2.36203e-05
8.22471e-05
6.19847e-05
6.19845e-05
6.15545e-05
6.15604e-05
2.36184e-05
2.36219e-05
6.71052e-05
0.000126165
6.57753e-05
0.000100941
6.61403e-05
0.000125148
6.64829e-05
7.00564e-05
4.95478e-05
6.90696e-05
4.95572e-05
7.00581e-05
4.95494e-05
6.90756e-05
4.95584e-05
6.75783e-05
0.000100226
0.00012317
6.744e-05
0.000124174
6.67331e-05
6.856e-05
6.75816e-05
0.000100228
0.000123178
6.7445e-05
0.000124171
6.67372e-05
6.85636e-05
7.0179e-05
4.95679e-05
4.95587e-05
7.1086e-05
7.018e-05
4.95684e-05
4.95599e-05
7.10891e-05
2.36279e-05
2.36243e-05
2.36274e-05
2.36238e-05
8.22473e-05
6.19862e-05
6.19891e-05
6.15622e-05
6.15633e-05
2.36181e-05
2.36216e-05
2.36176e-05
2.36211e-05
3.61924e-05
6.96157e-05
4.0343e-05
7.10743e-05
4.03379e-05
7.07876e-05
3.61951e-05
2.02169e-05
6.83524e-05
4.95554e-05
2.0217e-05
6.8473e-05
3.61918e-05
6.94994e-05
4.03313e-05
7.03908e-05
3.61891e-05
4.0336e-05
7.06834e-05
2.02141e-05
6.86394e-05
4.95569e-05
6.85127e-05
2.0214e-05
2.36283e-05
2.36256e-05
3.61937e-05
6.96265e-05
7.10779e-05
4.03423e-05
7.07967e-05
4.03373e-05
3.61965e-05
2.02181e-05
6.83686e-05
4.95535e-05
2.02183e-05
6.84937e-05
3.61931e-05
6.95015e-05
7.03963e-05
4.03306e-05
3.61904e-05
7.06802e-05
4.03354e-05
2.02154e-05
6.86644e-05
4.9555e-05
6.85413e-05
2.02152e-05
2.36261e-05
2.36234e-05
7.08019e-05
2.15491e-05
2.15462e-05
2.15495e-05
2.15466e-05
7.09354e-05
7.40223e-05
7.09408e-05
4.71441e-05
6.12699e-05
7.36873e-05
7.14036e-05
4.71532e-05
7.40588e-05
7.09533e-05
4.71357e-05
6.127e-05
7.37329e-05
7.14086e-05
4.71448e-05
7.07501e-05
2.15527e-05
2.15498e-05
7.06215e-05
2.15522e-05
2.15493e-05
7.40974e-05
4.71658e-05
6.13149e-05
7.20145e-05
7.15555e-05
4.7157e-05
7.44545e-05
7.41411e-05
4.71575e-05
6.13159e-05
7.20168e-05
7.15633e-05
4.71486e-05
7.44913e-05
2.3632e-05
2.36349e-05
2.36307e-05
2.36335e-05
7.03982e-05
2.156e-05
2.15561e-05
7.02775e-05
2.15595e-05
2.15556e-05
7.32657e-05
7.07664e-05
6.08167e-05
4.71413e-05
4.71319e-05
7.03042e-05
7.35836e-05
7.33083e-05
7.07848e-05
6.08203e-05
4.71306e-05
4.7121e-05
7.03064e-05
7.36293e-05
7.31431e-05
4.71179e-05
6.96533e-05
6.07776e-05
7.28016e-05
4.71276e-05
7.01151e-05
7.31877e-05
4.71069e-05
6.96532e-05
6.077e-05
7.28415e-05
4.71167e-05
7.01255e-05
7.04443e-05
2.15562e-05
2.15523e-05
2.15566e-05
2.15527e-05
7.05715e-05
3.61851e-05
4.0319e-05
6.95271e-05
6.83907e-05
3.61822e-05
4.03235e-05
6.98537e-05
2.02201e-05
4.95463e-05
6.83138e-05
2.02199e-05
6.81753e-05
2.02228e-05
6.79776e-05
4.95446e-05
2.02229e-05
6.81287e-05
3.61858e-05
6.85106e-05
4.03296e-05
7.02834e-05
3.61885e-05
4.03251e-05
6.99676e-05
3.61868e-05
4.03192e-05
6.95475e-05
6.83945e-05
3.6184e-05
4.03236e-05
6.98667e-05
2.02209e-05
4.95479e-05
6.83246e-05
6.81931e-05
2.02207e-05
2.02236e-05
6.80135e-05
4.95463e-05
2.02238e-05
6.81429e-05
3.61874e-05
6.85139e-05
4.03297e-05
7.02873e-05
4.03252e-05
6.99885e-05
3.61901e-05
2.3632e-05
2.36348e-05
7.04088e-05
2.15571e-05
2.15594e-05
7.02706e-05
2.15566e-05
2.15589e-05
7.32902e-05
7.07783e-05
6.08219e-05
4.71317e-05
7.03261e-05
4.71226e-05
7.36132e-05
7.32482e-05
7.07636e-05
6.08166e-05
4.71395e-05
4.71304e-05
7.03188e-05
7.35658e-05
7.3227e-05
4.71087e-05
6.96657e-05
6.07751e-05
7.01596e-05
7.28663e-05
4.71186e-05
7.31801e-05
4.71165e-05
6.96631e-05
6.07771e-05
7.2827e-05
4.71264e-05
7.01525e-05
7.04563e-05
2.15531e-05
2.15554e-05
2.15537e-05
2.1556e-05
7.05726e-05
2.36324e-05
2.36352e-05
3.61864e-05
6.95474e-05
4.03183e-05
6.83764e-05
3.61836e-05
6.9862e-05
4.03227e-05
2.02212e-05
4.95442e-05
6.83209e-05
2.0221e-05
6.8195e-05
2.02239e-05
6.80131e-05
4.95426e-05
2.02241e-05
6.8146e-05
3.6187e-05
6.85052e-05
7.02801e-05
4.03289e-05
3.61898e-05
6.99838e-05
4.03243e-05
3.61841e-05
4.03182e-05
6.95432e-05
6.83721e-05
3.61814e-05
4.03226e-05
6.98588e-05
2.02195e-05
4.95403e-05
6.82999e-05
6.81766e-05
2.02193e-05
2.02224e-05
6.79864e-05
4.95388e-05
2.02226e-05
6.81372e-05
3.61847e-05
6.85005e-05
4.03288e-05
7.02649e-05
4.03242e-05
6.99631e-05
3.61875e-05
3.61872e-05
6.95445e-05
4.03186e-05
6.83709e-05
3.61844e-05
6.98551e-05
4.03229e-05
2.02217e-05
4.95468e-05
6.83204e-05
6.81901e-05
2.02216e-05
2.02244e-05
6.80099e-05
4.95451e-05
2.02246e-05
6.81404e-05
3.61878e-05
6.84846e-05
7.02742e-05
4.03292e-05
6.99753e-05
4.03245e-05
3.61906e-05
3.61849e-05
4.03185e-05
6.95421e-05
6.83703e-05
3.61822e-05
4.03228e-05
6.98528e-05
2.02204e-05
4.95431e-05
6.83062e-05
6.81768e-05
2.02202e-05
2.02231e-05
6.79897e-05
4.95415e-05
2.02233e-05
6.81258e-05
3.61856e-05
6.84834e-05
4.03291e-05
7.0267e-05
4.03244e-05
6.99698e-05
3.61884e-05
2.36298e-05
2.36326e-05
7.03967e-05
2.15558e-05
2.15592e-05
7.02632e-05
2.15554e-05
2.15587e-05
7.32981e-05
7.07844e-05
6.08128e-05
4.71305e-05
7.03218e-05
4.71211e-05
7.3633e-05
7.32562e-05
7.07753e-05
6.0816e-05
4.71406e-05
4.71313e-05
7.03117e-05
7.35907e-05
7.32179e-05
4.71067e-05
6.96544e-05
6.07716e-05
7.01459e-05
7.2845e-05
4.71169e-05
7.31752e-05
4.71171e-05
6.96513e-05
6.07704e-05
7.28035e-05
4.71271e-05
7.014e-05
7.04485e-05
2.15521e-05
2.15555e-05
2.15527e-05
2.1556e-05
7.05835e-05
2.36313e-05
2.36341e-05
3.61851e-05
6.95439e-05
4.03183e-05
6.8373e-05
3.61824e-05
6.9861e-05
4.03226e-05
2.02205e-05
4.95425e-05
6.83062e-05
6.81769e-05
2.02203e-05
2.02232e-05
6.79913e-05
4.95409e-05
2.02234e-05
6.81263e-05
3.61857e-05
6.85002e-05
7.02733e-05
4.03288e-05
6.9981e-05
4.03242e-05
3.61884e-05
3.6187e-05
6.95434e-05
4.03184e-05
6.83693e-05
3.61842e-05
6.98558e-05
4.03227e-05
2.02216e-05
4.95438e-05
6.83259e-05
6.8193e-05
2.02214e-05
2.02243e-05
6.80014e-05
4.95421e-05
2.02245e-05
6.81399e-05
3.61877e-05
6.84987e-05
7.02768e-05
4.0329e-05
6.99783e-05
4.03243e-05
3.61904e-05
7.04114e-05
2.15595e-05
2.15566e-05
7.02849e-05
2.15589e-05
2.1556e-05
7.32484e-05
7.07686e-05
6.08224e-05
4.714e-05
7.36098e-05
7.02874e-05
4.71305e-05
7.32961e-05
7.07769e-05
6.08268e-05
4.71317e-05
7.36479e-05
7.03008e-05
4.71223e-05
7.31513e-05
4.71168e-05
6.96602e-05
6.07778e-05
7.27915e-05
7.01217e-05
4.71264e-05
7.31898e-05
4.71086e-05
6.9671e-05
6.07795e-05
7.28397e-05
7.01283e-05
4.71181e-05
7.04568e-05
2.15555e-05
2.15526e-05
7.05748e-05
2.1556e-05
2.15531e-05
2.36311e-05
2.3634e-05
2.36306e-05
2.36335e-05
2.36284e-05
2.36257e-05
2.36273e-05
2.36245e-05
7.08128e-05
2.15497e-05
2.15459e-05
2.15502e-05
2.15463e-05
7.09448e-05
7.39994e-05
7.09374e-05
4.71453e-05
6.1272e-05
7.36877e-05
4.71543e-05
7.13815e-05
7.40418e-05
7.09453e-05
4.71345e-05
6.12756e-05
7.37272e-05
4.71435e-05
7.1398e-05
7.07582e-05
2.15534e-05
2.15495e-05
7.06222e-05
2.1553e-05
2.15491e-05
7.41339e-05
4.7167e-05
6.13129e-05
7.20251e-05
4.71582e-05
7.44645e-05
7.15572e-05
7.4168e-05
4.71562e-05
6.13229e-05
7.20332e-05
4.71473e-05
7.45096e-05
7.15551e-05
2.36195e-05
2.36221e-05
2.36184e-05
2.3621e-05
7.11033e-05
2.15469e-05
2.1543e-05
7.09933e-05
2.15461e-05
2.15429e-05
7.49872e-05
7.32703e-05
6.17977e-05
4.71859e-05
4.7181e-05
7.28467e-05
7.52574e-05
7.50051e-05
7.32919e-05
6.17973e-05
4.71844e-05
4.71736e-05
7.28577e-05
7.52829e-05
7.48823e-05
4.71705e-05
7.22227e-05
6.17589e-05
7.46051e-05
4.71785e-05
7.26859e-05
7.49301e-05
4.71599e-05
7.22203e-05
6.17578e-05
7.46461e-05
4.7169e-05
7.27017e-05
7.11357e-05
2.1542e-05
2.15397e-05
2.15429e-05
2.15401e-05
7.12165e-05
3.6194e-05
6.96139e-05
4.03431e-05
7.10734e-05
4.0338e-05
7.0797e-05
3.61968e-05
2.02178e-05
6.83751e-05
4.95573e-05
2.0218e-05
6.85023e-05
3.61934e-05
6.94995e-05
4.03314e-05
7.04022e-05
4.03361e-05
3.61907e-05
7.06839e-05
2.0215e-05
6.86595e-05
4.95588e-05
6.85464e-05
2.02148e-05
3.61981e-05
4.03448e-05
7.11826e-05
7.05985e-05
3.61957e-05
4.03497e-05
7.14673e-05
2.0208e-05
4.95674e-05
6.89624e-05
6.88536e-05
2.02078e-05
2.02108e-05
6.86851e-05
4.95661e-05
2.02113e-05
6.8812e-05
3.61986e-05
7.0695e-05
4.03563e-05
7.18358e-05
4.03515e-05
7.15716e-05
3.62011e-05
3.62001e-05
4.0345e-05
7.11884e-05
7.06e-05
3.61974e-05
4.03499e-05
7.14646e-05
2.02094e-05
4.95694e-05
6.89873e-05
6.88623e-05
2.02092e-05
2.02119e-05
6.8701e-05
4.95679e-05
2.02121e-05
6.88155e-05
3.62006e-05
7.06996e-05
4.03565e-05
7.18451e-05
4.03517e-05
7.15787e-05
3.62031e-05
7.08104e-05
2.15471e-05
2.15493e-05
2.15476e-05
2.15498e-05
7.0959e-05
7.40614e-05
7.09184e-05
4.71356e-05
6.12755e-05
4.71449e-05
7.36898e-05
7.13798e-05
7.40192e-05
7.09079e-05
4.71435e-05
6.12741e-05
7.13702e-05
7.36506e-05
4.71527e-05
7.07464e-05
2.15503e-05
2.15526e-05
2.155e-05
7.06168e-05
2.15523e-05
7.41813e-05
4.71581e-05
6.13206e-05
7.20553e-05
4.7149e-05
7.15609e-05
7.45459e-05
7.41461e-05
4.71658e-05
6.13147e-05
7.20537e-05
7.15608e-05
4.71568e-05
7.45042e-05
2.36287e-05
2.3626e-05
2.36196e-05
2.36222e-05
7.10918e-05
2.1544e-05
2.15463e-05
7.10016e-05
2.15433e-05
2.15455e-05
7.49663e-05
7.32587e-05
6.18015e-05
4.71814e-05
7.28261e-05
4.71732e-05
7.52816e-05
7.49253e-05
7.32464e-05
6.17955e-05
4.7189e-05
4.71808e-05
7.28161e-05
7.52385e-05
7.49219e-05
4.71617e-05
7.22359e-05
6.17599e-05
7.26912e-05
7.46184e-05
4.71699e-05
7.4876e-05
4.71694e-05
7.22351e-05
6.17586e-05
7.45796e-05
4.71774e-05
7.26808e-05
7.11203e-05
2.15399e-05
2.15422e-05
2.15402e-05
2.15425e-05
7.12093e-05
2.36198e-05
2.36225e-05
3.61916e-05
6.96245e-05
4.03422e-05
7.10808e-05
4.03372e-05
7.07797e-05
3.61943e-05
2.02164e-05
6.83341e-05
4.95496e-05
2.02165e-05
6.84566e-05
3.6191e-05
6.95002e-05
4.03306e-05
7.03698e-05
4.03354e-05
3.61882e-05
7.06718e-05
2.02138e-05
6.86419e-05
4.95514e-05
6.85005e-05
2.02137e-05
3.61997e-05
7.1195e-05
4.03441e-05
7.05918e-05
3.61971e-05
7.14689e-05
4.03491e-05
2.02095e-05
4.95654e-05
6.89793e-05
6.88667e-05
2.02093e-05
2.02122e-05
6.8709e-05
4.9564e-05
2.02124e-05
6.88248e-05
3.62002e-05
7.07062e-05
7.18391e-05
4.03557e-05
7.15809e-05
4.03509e-05
3.62027e-05
3.61974e-05
4.0344e-05
7.11866e-05
7.05915e-05
3.61949e-05
4.03489e-05
7.14736e-05
2.02079e-05
4.9562e-05
6.8961e-05
6.88579e-05
2.02076e-05
2.02108e-05
6.86901e-05
4.95607e-05
2.0211e-05
6.88203e-05
3.61979e-05
7.07044e-05
4.03556e-05
7.18378e-05
4.03507e-05
7.15721e-05
3.62003e-05
3.61947e-05
6.96435e-05
7.10922e-05
4.03424e-05
7.08083e-05
4.03376e-05
3.61973e-05
2.02187e-05
6.83717e-05
4.95565e-05
6.85038e-05
2.02189e-05
3.61941e-05
6.95293e-05
7.03946e-05
4.0331e-05
7.06895e-05
3.61913e-05
4.03358e-05
2.02159e-05
6.86723e-05
4.9558e-05
6.85515e-05
2.02157e-05
3.61923e-05
6.96402e-05
4.03422e-05
7.10846e-05
4.03375e-05
7.07985e-05
3.6195e-05
2.02172e-05
6.83541e-05
4.95524e-05
2.02174e-05
6.84786e-05
3.61917e-05
6.95277e-05
4.03309e-05
7.0385e-05
3.6189e-05
4.03357e-05
7.06808e-05
2.02145e-05
6.86478e-05
4.95539e-05
6.85254e-05
2.02143e-05
3.62004e-05
7.12055e-05
4.03442e-05
7.05852e-05
3.61978e-05
7.14718e-05
4.0349e-05
2.021e-05
4.95679e-05
6.89823e-05
6.88683e-05
2.02098e-05
2.02127e-05
6.87143e-05
4.95664e-05
2.02129e-05
6.88263e-05
3.62008e-05
7.06853e-05
7.18344e-05
4.03559e-05
7.15797e-05
4.03509e-05
3.62033e-05
3.6198e-05
4.0344e-05
7.11963e-05
7.0584e-05
3.61955e-05
4.03489e-05
7.14646e-05
2.02086e-05
4.95641e-05
6.89637e-05
6.88525e-05
2.02083e-05
2.02113e-05
6.86929e-05
4.95628e-05
2.02115e-05
6.88105e-05
3.61984e-05
7.06836e-05
4.03557e-05
7.1828e-05
4.03507e-05
7.15715e-05
3.62009e-05
7.08061e-05
2.15457e-05
2.1549e-05
2.15461e-05
2.15494e-05
7.09427e-05
7.40582e-05
7.093e-05
4.71343e-05
6.12739e-05
4.71433e-05
7.37012e-05
7.1385e-05
7.40164e-05
7.09234e-05
4.71446e-05
6.12752e-05
7.13825e-05
7.36599e-05
4.71536e-05
7.07539e-05
2.15493e-05
2.15526e-05
2.15488e-05
7.06315e-05
2.15521e-05
7.41654e-05
4.71563e-05
6.13132e-05
7.20426e-05
4.71472e-05
7.15565e-05
7.45358e-05
7.41227e-05
4.71664e-05
6.13202e-05
7.2038e-05
7.15532e-05
4.71575e-05
7.44942e-05
2.36277e-05
2.3625e-05
2.36173e-05
2.36199e-05
7.11022e-05
2.15429e-05
2.15462e-05
7.09932e-05
2.15422e-05
2.15455e-05
7.49819e-05
7.32714e-05
6.17943e-05
4.71797e-05
7.28384e-05
4.71717e-05
7.52911e-05
7.49412e-05
7.32691e-05
6.17947e-05
4.71898e-05
4.71817e-05
7.28316e-05
7.52527e-05
7.49361e-05
4.716e-05
7.22272e-05
6.17553e-05
7.26918e-05
7.46189e-05
4.71684e-05
7.48963e-05
4.71701e-05
7.22189e-05
6.17533e-05
7.45777e-05
4.71784e-05
7.26839e-05
7.11341e-05
2.15388e-05
2.15421e-05
2.15392e-05
2.15425e-05
7.12217e-05
2.36188e-05
2.36214e-05
3.61925e-05
6.96341e-05
7.10666e-05
4.03421e-05
7.07852e-05
4.03372e-05
3.61952e-05
2.02173e-05
6.83537e-05
4.95517e-05
6.84753e-05
2.02176e-05
3.61918e-05
6.95065e-05
7.03883e-05
4.03305e-05
7.06695e-05
3.6189e-05
4.03354e-05
2.02146e-05
6.8635e-05
4.95532e-05
6.8519e-05
2.02144e-05
3.61943e-05
6.96394e-05
7.10852e-05
4.03421e-05
7.08059e-05
4.03373e-05
3.6197e-05
2.02185e-05
6.83742e-05
4.95531e-05
2.02187e-05
6.84977e-05
3.61937e-05
6.95133e-05
7.03974e-05
4.03307e-05
3.6191e-05
7.06872e-05
4.03355e-05
2.02157e-05
6.86639e-05
4.95546e-05
6.85434e-05
2.02155e-05
3.61984e-05
7.11841e-05
4.03439e-05
7.05823e-05
3.61958e-05
7.14623e-05
4.03488e-05
2.0209e-05
4.95642e-05
6.89724e-05
6.88495e-05
2.02087e-05
2.02116e-05
6.868e-05
4.95627e-05
2.02118e-05
6.88018e-05
3.61989e-05
7.06992e-05
7.18379e-05
4.03556e-05
7.15761e-05
4.03506e-05
3.62013e-05
3.62e-05
7.12005e-05
4.03439e-05
7.05826e-05
3.61975e-05
7.14689e-05
4.03488e-05
2.02099e-05
4.95649e-05
6.89863e-05
6.88728e-05
2.02096e-05
2.02126e-05
6.87094e-05
4.95636e-05
2.02128e-05
6.88291e-05
3.62005e-05
7.07005e-05
7.18401e-05
4.03556e-05
7.15814e-05
4.03507e-05
3.6203e-05
2.36274e-05
2.36248e-05
2.36269e-05
2.36242e-05
7.11155e-05
2.15463e-05
2.15435e-05
7.0989e-05
2.15458e-05
2.15429e-05
7.49974e-05
7.33109e-05
6.17986e-05
4.71895e-05
7.28543e-05
4.71816e-05
7.53013e-05
7.50433e-05
7.33199e-05
6.18023e-05
4.71812e-05
7.2869e-05
4.71734e-05
7.53379e-05
7.49207e-05
4.71695e-05
7.21891e-05
6.1758e-05
7.45618e-05
7.26734e-05
4.71781e-05
7.49609e-05
4.71613e-05
7.21986e-05
6.17599e-05
7.46077e-05
7.26814e-05
4.71699e-05
7.11572e-05
2.15422e-05
2.15394e-05
2.15429e-05
2.154e-05
7.1249e-05
2.36185e-05
2.36212e-05
2.3618e-05
2.36207e-05
0.000173216
0.000173226
0.000149109
0.00017236
0.000172369
0.00019158
0.000192282
7.42766e-05
7.2917e-05
7.29183e-05
8.26327e-05
7.40502e-05
7.30654e-05
7.30672e-05
7.33888e-05
8.27888e-05
7.26715e-05
7.26722e-05
7.25304e-05
7.25306e-05
7.36166e-05
7.3399e-05
8.27917e-05
7.26756e-05
7.26789e-05
7.25345e-05
7.25381e-05
7.36214e-05
7.33953e-05
8.27847e-05
7.26724e-05
7.26764e-05
7.25301e-05
7.25348e-05
7.36217e-05
7.33911e-05
8.27852e-05
7.26713e-05
7.26726e-05
7.36191e-05
7.25308e-05
7.25313e-05
7.42739e-05
7.29161e-05
7.29183e-05
8.26364e-05
7.40462e-05
7.30646e-05
7.30668e-05
7.60379e-05
8.21592e-05
7.43881e-05
7.44125e-05
7.42417e-05
7.42337e-05
7.6253e-05
7.42685e-05
7.29179e-05
7.29197e-05
8.26426e-05
7.30669e-05
7.40402e-05
7.30649e-05
7.60215e-05
8.21612e-05
7.43916e-05
7.43939e-05
7.42298e-05
7.42324e-05
7.62367e-05
7.42725e-05
7.29168e-05
7.29207e-05
8.26339e-05
7.30677e-05
7.40461e-05
7.3064e-05
7.60294e-05
8.215e-05
7.43931e-05
7.43956e-05
7.42284e-05
7.4231e-05
7.62468e-05
7.60486e-05
8.21541e-05
7.44022e-05
7.44059e-05
7.42333e-05
7.42361e-05
7.62708e-05
0.000152196
0.00017407
0.000174079
0.000174928
0.00017494
0.000193685
0.000192984
0.000152199
0.00017407
0.000174083
0.000174928
0.000174941
0.000193686
0.000192985
0.000152192
0.000174064
0.000174076
0.000174924
0.000174937
0.000193681
0.000192979
0.000152197
0.000174069
0.000174079
0.000174928
0.000174939
0.000193682
0.000192981
0.000173217
0.00017323
0.000149111
0.00017236
0.000172373
0.000191581
0.000192283
0.000173209
0.000173225
0.0001491
0.000172353
0.000172367
0.000191575
0.000192277
0.000173216
0.000173226
0.000149107
0.00017236
0.000172371
0.000191577
0.000192279
0.000148094
0.000170657
0.000170665
0.000171512
0.000171524
0.000190878
0.000190174
0.000148098
0.000170657
0.000170671
0.000171512
0.000171525
0.000190879
0.000190175
0.000148083
0.000170649
0.000170663
0.000171505
0.000171519
0.000190873
0.000190169
0.000148096
0.000170657
0.000170667
0.000171512
0.000171523
0.000190875
0.000190171
7.28495e-05
6.68593e-05
6.87921e-05
7.53927e-05
6.85492e-05
7.53475e-05
7.29495e-05
6.89683e-05
6.86507e-05
6.80485e-05
6.5983e-05
6.8818e-05
6.88433e-05
6.82541e-05
7.28615e-05
6.63844e-05
6.78381e-05
7.5426e-05
7.27694e-05
6.80797e-05
7.54612e-05
6.91708e-05
6.88784e-05
6.62705e-05
6.93988e-05
6.91984e-05
6.86734e-05
6.93275e-05
7.28485e-05
6.68531e-05
7.53891e-05
6.8778e-05
7.53446e-05
6.85384e-05
7.29461e-05
6.89728e-05
6.86531e-05
6.80476e-05
6.59993e-05
6.88233e-05
6.88458e-05
6.82509e-05
7.28634e-05
6.6384e-05
7.54264e-05
6.78403e-05
7.27725e-05
7.5461e-05
6.80779e-05
6.91736e-05
6.88637e-05
6.62522e-05
6.93982e-05
6.92001e-05
6.86627e-05
6.93278e-05
7.47041e-05
8.2384e-05
7.34833e-05
7.34847e-05
7.33279e-05
7.33289e-05
7.49336e-05
7.296e-05
8.31001e-05
7.21736e-05
7.21734e-05
7.27345e-05
7.23057e-05
7.23054e-05
7.27998e-05
6.64386e-05
7.57085e-05
6.49862e-05
7.27245e-05
6.6676e-05
7.57234e-05
6.84971e-05
6.83029e-05
6.53003e-05
6.76297e-05
6.81134e-05
6.74229e-05
6.86398e-05
6.83358e-05
6.67936e-05
6.75943e-05
6.49849e-05
6.77781e-05
6.82003e-05
6.7e-05
7.27323e-05
6.54439e-05
6.73769e-05
7.55773e-05
6.71367e-05
7.55522e-05
7.28157e-05
7.27987e-05
6.64444e-05
7.57071e-05
6.4989e-05
7.27216e-05
6.66845e-05
7.5722e-05