/*--------------------------------*- C++ -*----------------------------------*\
| =========                 |                                                 |
| \\      /  F ield         | OpenFOAM: The Open Source CFD Toolbox           |
|  \\    /   O peration     | Version:  v1906                                 |
|   \\  /    A nd           | Web:      www.OpenFOAM.com                      |
|    \\/     M anipulation  |                                                 |
\*---------------------------------------------------------------------------*/
FoamFile
{
    version     2.0;
    format      ascii;
    class       volScalarField;
    location    "1000";
    object      p;
}
// * * * * * * * * * * * * * * * * * * * * * * * * * * * * * * * * * * * * * //

dimensions      [0 2 -2 0 0 0 0];


internalField   nonuniform List<scalar> 
42840
(
0.00163698
0.00163635
0.00163852
0.00163929
0.00160051
0.0016051
0.00160044
0.00160598
0.00156699
0.0015672
0.0015655
0.00156885
0.0015324
0.00152947
0.00153264
0.00153202
0.00149557
0.001495
0.00149667
0.00149774
0.00145808
0.00145913
0.00145758
0.00146104
0.00142293
0.00142333
0.00142276
0.00142484
0.00138908
0.0013886
0.00138868
0.00139054
0.00135322
0.00135277
0.00135295
0.00135505
0.00131705
0.001317
0.00131712
0.00131906
0.00128141
0.0012814
0.00128143
0.00128339
0.00124574
0.00124584
0.00124581
0.0012479
0.00121054
0.00121017
0.00121015
0.00121214
0.00117492
0.0011748
0.0011748
0.0011768
0.00113952
0.00113949
0.00113949
0.00114153
0.00110427
0.00110414
0.00110413
0.00110614
0.00106891
0.00106876
0.00106878
0.00107077
0.0010335
0.00103342
0.00103342
0.00103542
0.000998135
0.000998035
0.00099803
0.00100004
0.00096276
0.000962625
0.000962626
0.000964636
0.000927303
0.000927265
0.000927271
0.000929269
0.000891937
0.000891821
0.000891814
0.000893827
0.000856506
0.000856401
0.000856406
0.000858409
0.00082103
0.000820988
0.000820983
0.000822992
0.000785609
0.000785508
0.000785512
0.000787519
0.000750102
0.000750022
0.000750021
0.000752035
0.00164249
0.00164414
0.00164453
0.00164332
0.00164539
0.00164839
0.00164462
0.00164497
0.00164575
0.00164842
0.00164566
0.00164372
0.00163747
0.00160775
0.001635
0.00163606
0.00160927
0.0016124
0.00163895
0.00161111
0.00163561
0.00163831
0.00160875
0.00160915
0.00163643
0.00161295
0.00161243
0.00164023
0.00160706
0.001637
0.00160966
0.001612
0.00161065
0.00160354
0.00157481
0.0016014
0.00160443
0.00157689
0.00157726
0.00160658
0.0015743
0.00160063
0.00159996
0.00157619
0.00157355
0.00160431
0.00157745
0.00157724
0.0016022
0.00157208
0.00160358
0.0015738
0.00157641
0.00157405
0.0015701
0.00153881
0.00156813
0.00156718
0.00154107
0.00153882
0.00156914
0.00153657
0.00156778
0.00156555
0.00154148
0.00154141
0.00156733
0.0015382
0.00153854
0.00156799
0.00153955
0.00156668
0.00154092
0.00153896
0.00153671
0.00153382
0.00150188
0.00153175
0.00152994
0.0015038
0.00150375
0.00153178
0.00150176
0.00153235
0.00153302
0.00150446
0.00150643
0.0015296
0.00150372
0.00150407
0.00153488
0.00150366
0.00153033
0.00150634
0.00150467
0.00150243
0.00149701
0.00146464
0.00149474
0.00149493
0.00146696
0.00146795
0.00149703
0.001466
0.00149519
0.00149661
0.00146683
0.00146674
0.0014954
0.00146818
0.00146837
0.00149833
0.00146465
0.00149586
0.00146696
0.00146821
0.0014661
0.0014597
0.00143011
0.00145771
0.00145888
0.00143193
0.00143211
0.00146112
0.00143018
0.00145744
0.00145738
0.00143165
0.00143118
0.00145914
0.00143211
0.00143172
0.00145974
0.00142944
0.00145885
0.00143121
0.00143146
0.00142957
0.00142555
0.00139631
0.00142356
0.0014235
0.00139836
0.0013976
0.00142546
0.00139544
0.00142337
0.00142282
0.00139837
0.0013976
0.00142285
0.00139737
0.00139701
0.00142486
0.00139554
0.00142266
0.00139735
0.00139695
0.00139512
0.00139145
0.00135923
0.00138947
0.00138883
0.00136148
0.00136168
0.00139072
0.00135951
0.00138948
0.00138891
0.00136153
0.00136192
0.00138847
0.00136172
0.0013621
0.00139085
0.00135972
0.00138846
0.00136197
0.00136222
0.00135992
0.00135435
0.00132355
0.00135226
0.00135263
0.00132557
0.00132579
0.00135465
0.00132375
0.00135234
0.0013528
0.00132559
0.00132591
0.00135309
0.00132592
0.00132602
0.00135485
0.00132388
0.00135319
0.00132605
0.00132606
0.0013239
0.00131881
0.00128838
0.0013168
0.00131692
0.00129039
0.00129033
0.00131894
0.00128829
0.00131683
0.00131704
0.00129039
0.00129038
0.00131704
0.0012903
0.00129022
0.00131907
0.00128833
0.00131706
0.00129035
0.00129023
0.0012882
0.00128357
0.00125277
0.0012815
0.00128144
0.00125477
0.00125476
0.00128348
0.00125273
0.00128151
0.00128147
0.00125476
0.00125474
0.00128132
0.00125472
0.00125469
0.00128351
0.0012527
0.00128133
0.00125471
0.00125469
0.0012527
0.00124797
0.00121709
0.00124588
0.00124586
0.00121924
0.00121913
0.00124793
0.00121701
0.00124587
0.00124583
0.00121922
0.00121907
0.00124583
0.00121908
0.00121907
0.00124789
0.00121698
0.00124582
0.00121903
0.00121905
0.00121695
0.00121226
0.0011815
0.00121029
0.0012102
0.00118356
0.00118362
0.0012122
0.00118156
0.00121027
0.00121018
0.00118356
0.00118362
0.00121016
0.00118363
0.0011836
0.00121217
0.00118156
0.00121015
0.00118363
0.0011836
0.00118157
0.00117672
0.00114623
0.00117471
0.00117478
0.00114826
0.0011483
0.00117678
0.00114627
0.00117471
0.00117478
0.00114826
0.0011483
0.00117479
0.00114833
0.00114836
0.00117678
0.00114626
0.00117479
0.00114832
0.00114836
0.00114631
0.00114146
0.00111096
0.00113945
0.00113947
0.00111301
0.00111298
0.00114149
0.00111093
0.00113945
0.00113946
0.00111301
0.00111298
0.00113953
0.00111298
0.00111298
0.00114148
0.00111093
0.00113953
0.00111297
0.00111298
0.00111093
0.00110618
0.00107557
0.00110418
0.00110415
0.00107763
0.00107761
0.00110615
0.00107556
0.00110418
0.00110414
0.00107763
0.00107763
0.00110413
0.00107761
0.00107761
0.00110614
0.00107557
0.00110413
0.00107762
0.00107761
0.00107556
0.00107077
0.00104019
0.00106877
0.00106877
0.00104223
0.00104225
0.00107077
0.00104021
0.00106878
0.00106878
0.00104223
0.00104226
0.00106877
0.00104226
0.00104225
0.00107078
0.00104021
0.00106878
0.00104226
0.00104225
0.00104021
0.0010354
0.00100485
0.00103339
0.00103342
0.00100689
0.00100689
0.00103542
0.00100484
0.00103339
0.00103342
0.00100689
0.00100688
0.00103341
0.00100689
0.00100688
0.00103542
0.00100483
0.00103341
0.00100688
0.00100688
0.00100483
0.00100006
0.000969451
0.000998054
0.000998037
0.000971511
0.00097148
0.00100004
0.000969434
0.000998053
0.000998031
0.00097151
0.000971481
0.000998033
0.000971471
0.000971477
0.00100003
0.000969436
0.000998033
0.000971472
0.000971477
0.000969435
0.000964642
0.000934022
0.000962647
0.000962632
0.000936058
0.000936098
0.000964638
0.000934063
0.000962646
0.000962633
0.00093606
0.000936105
0.000962631
0.000936107
0.000936107
0.000964641
0.000934068
0.00096263
0.000936113
0.000936109
0.000934066
0.00092923
0.000898666
0.000927212
0.000927252
0.000900705
0.000900692
0.000929261
0.000898637
0.000927215
0.00092726
0.000900704
0.000900685
0.000927262
0.000900691
0.000900689
0.000929266
0.000898632
0.000927264
0.000900684
0.000900687
0.000898637
0.000893862
0.00086322
0.000891864
0.00089183
0.000865274
0.000865256
0.00089383
0.000863216
0.000891861
0.000891822
0.000865275
0.000865259
0.000891823
0.000865248
0.00086525
0.000893825
0.000863219
0.00089182
0.000865251
0.000865251
0.000863211
0.000858408
0.000827776
0.000856401
0.000856403
0.000829812
0.000829842
0.000858411
0.000827802
0.000856403
0.000856409
0.000829811
0.00082984
0.000856401
0.000829851
0.000829848
0.000858414
0.0008278
0.000856403
0.00082985
0.000829848
0.000827804
0.00082297
0.000792352
0.000820959
0.00082098
0.000794395
0.000794381
0.00082299
0.000792334
0.000820958
0.000820975
0.000794395
0.000794382
0.000820985
0.000794377
0.000794378
0.000822988
0.000792336
0.000820984
0.000794378
0.000794378
0.000792333
0.000787538
0.000756853
0.00078553
0.000785513
0.000758899
0.000758897
0.000787519
0.000756853
0.000785531
0.000785517
0.000758899
0.000758897
0.000785509
0.000758896
0.000758898
0.000787523
0.000756852
0.00078551
0.000758896
0.000758898
0.000756854
0.000752033
0.000750022
0.000750022
0.000752033
0.000750021
0.00075002
0.000750025
0.000752031
0.000750025
0.00166103
0.00166047
0.00166155
0.00166294
0.00166178
0.00164736
0.00164515
0.00164863
0.00164612
0.00166136
0.00166331
0.00166131
0.00166432
0.00166429
0.00166361
0.0016674
0.00166661
0.00166419
0.00166174
0.00166142
0.00166183
0.00162616
0.00163798
0.00163843
0.00162565
0.00164128
0.0016291
0.00162503
0.00163851
0.00163882
0.00162507
0.00163585
0.00163894
0.0016367
0.00160907
0.00161122
0.00161013
0.00161109
0.00162772
0.00164064
0.00163648
0.00162846
0.00163934
0.00162874
0.00162808
0.00163952
0.00162473
0.00162659
0.00163827
0.00164005
0.00162866
0.00164011
0.00162872
0.00162576
0.00164192
0.00164178
0.00162721
0.00162944
0.00162899
0.0015924
0.00160531
0.00160552
0.00159244
0.0016061
0.00159147
0.00159013
0.00160363
0.00160284
0.00159097
0.00160308
0.00160095
0.00160256
0.00157554
0.00157746
0.0015741
0.00157658
0.00159369
0.00160725
0.00160403
0.00159665
0.00160708
0.00159277
0.00159546
0.00160136
0.0015889
0.00159058
0.00160129
0.00160247
0.00159144
0.00160393
0.00159248
0.00158934
0.00160629
0.00160561
0.00159344
0.0015916
0.00159111
0.00155563
0.00156994
0.00156937
0.00155624
0.00156783
0.00155445
0.00155665
0.00156972
0.00156929
0.00155681
0.00156831
0.00156539
0.00156766
0.00154106
0.00153977
0.00154033
0.00153989
0.00155431
0.00156795
0.00156809
0.00155707
0.00156863
0.00155404
0.00155828
0.0015697
0.00155762
0.00155529
0.00156623
0.00156872
0.0015574
0.00156808
0.00155745
0.00155646
0.00156783
0.00156778
0.00155473
0.00155419
0.00155445
0.00151946
0.00153299
0.00153288
0.00151915
0.00153241
0.00151914
0.00152109
0.0015341
0.00153474
0.00152023
0.00153055
0.00153188
0.00153092
0.00150491
0.00150398
0.00150592
0.00150443
0.00151918
0.00153196
0.00152981
0.00152088
0.00153184
0.00151907
0.00152097
0.00153577
0.00152151
0.00152115
0.00153168
0.00153505
0.00152415
0.00153392
0.00152311
0.00152165
0.00153232
0.00153276
0.00151957
0.00151938
0.00151977
0.00148312
0.00149634
0.00149674
0.00148276
0.00149687
0.00148361
0.00148277
0.00149669
0.00149718
0.00148258
0.00149506
0.00149691
0.00149559
0.00146744
0.00146783
0.00146799
0.00146829
0.00148415
0.00149719
0.00149505
0.00148617
0.00149737
0.001484
0.00148622
0.00149672
0.00148227
0.0014839
0.00149656
0.00149752
0.00148668
0.00149811
0.00148714
0.0014831
0.00149755
0.00149765
0.00148459
0.00148412
0.00148404
0.0014477
0.00146074
0.00146062
0.001448
0.00146157
0.00144833
0.00144699
0.00146021
0.00145976
0.00144755
0.00145877
0.00145834
0.00145899
0.00143137
0.00143186
0.00143129
0.00143165
0.00144781
0.00146154
0.00145917
0.00145005
0.0014613
0.00144811
0.00145005
0.00146002
0.0014473
0.00144685
0.00145832
0.00145998
0.0014485
0.00146025
0.00144906
0.00144701
0.00146128
0.00146107
0.00144756
0.00144766
0.0014475
0.00141318
0.00142652
0.0014262
0.00141337
0.00142608
0.00141265
0.00141317
0.00142635
0.00142599
0.00141337
0.00142297
0.0014227
0.00142279
0.00139756
0.00139723
0.00139707
0.00139676
0.00141241
0.00142569
0.0014231
0.00141466
0.00142535
0.00141253
0.00141436
0.00142579
0.00141263
0.00141231
0.00142261
0.00142535
0.00141433
0.00142504
0.00141404
0.00141244
0.00142535
0.0014253
0.00141218
0.00141226
0.00141223
0.00137702
0.00139056
0.00139073
0.00137677
0.00139019
0.00137675
0.00137716
0.00139062
0.00139082
0.00137685
0.0013887
0.00138846
0.00138821
0.00136246
0.00136234
0.00136231
0.0013625
0.00137731
0.00139022
0.00138856
0.00137966
0.00139047
0.00137696
0.00137987
0.00139043
0.00137705
0.00137749
0.00138847
0.00139043
0.00137989
0.00139058
0.00137984
0.00137723
0.00139045
0.00139045
0.00137781
0.00137722
0.00137725
0.00134109
0.00135421
0.00135433
0.00134105
0.00135449
0.00134129
0.00134116
0.00135427
0.00135443
0.00134109
0.00135333
0.00135337
0.00135363
0.00132598
0.00132619
0.00132629
0.00132647
0.0013416
0.00135469
0.00135305
0.00134381
0.00135483
0.00134148
0.00134404
0.00135471
0.00134148
0.00134169
0.00135329
0.00135489
0.00134395
0.00135497
0.00134423
0.00134163
0.00135487
0.0013549
0.00134188
0.00134149
0.00134152
0.00130597
0.00131917
0.00131914
0.00130601
0.00131925
0.00130603
0.00130601
0.0013192
0.00131919
0.00130603
0.0013172
0.0013173
0.00131739
0.00129034
0.00129034
0.00129039
0.00129034
0.00130594
0.0013192
0.00131709
0.00130809
0.00131915
0.00130599
0.00130814
0.00131936
0.00130607
0.001306
0.00131718
0.00131931
0.0013082
0.00131923
0.00130821
0.00130605
0.00131922
0.00131924
0.00130602
0.00130592
0.00130593
0.00127042
0.00128382
0.00128377
0.00127045
0.00128378
0.00127038
0.0012704
0.00128381
0.00128377
0.00127044
0.00128139
0.00128142
0.00128136
0.00125462
0.00125462
0.00125463
0.0012546
0.00127038
0.00128367
0.00128136
0.0012725
0.00128358
0.00127038
0.00127245
0.00128376
0.00127035
0.00127037
0.00128138
0.00128368
0.00127251
0.00128359
0.00127246
0.00127037
0.00128366
0.00128366
0.00127044
0.00127031
0.0012703
0.00123466
0.00124807
0.00124804
0.00123465
0.00124795
0.00123457
0.00123463
0.00124805
0.00124802
0.00123463
0.00124575
0.00124577
0.00124574
0.00121936
0.00121929
0.00121927
0.00121927
0.00123467
0.00124792
0.00124582
0.00123695
0.00124795
0.00123458
0.00123697
0.0012479
0.00123451
0.00123462
0.00124582
0.00124787
0.00123689
0.00124791
0.00123695
0.00123452
0.00124791
0.0012479
0.00123485
0.00123451
0.0012345
0.00119902
0.00121228
0.00121229
0.001199
0.00121231
0.00119907
0.00119901
0.00121227
0.00121228
0.00119899
0.00121041
0.00121037
0.00121039
0.00118381
0.00118377
0.00118377
0.00118373
0.0011991
0.00121224
0.00121026
0.0012013
0.00121222
0.00119908
0.00120134
0.00121229
0.00119906
0.00119909
0.00121022
0.00121222
0.00120129
0.00121221
0.00120133
0.00119907
0.00121226
0.00121225
0.00119921
0.00119904
0.00119904
0.00116371
0.00117689
0.00117691
0.0011637
0.00117696
0.00116372
0.0011637
0.00117689
0.0011769
0.0011637
0.00117493
0.00117493
0.00117489
0.00114835
0.00114842
0.00114842
0.00114844
0.00116383
0.00117694
0.00117482
0.00116598
0.00117692
0.00116378
0.00116601
0.00117695
0.00116372
0.00116383
0.00117482
0.00117694
0.00116598
0.00117691
0.00116601
0.00116378
0.00117701
0.00117701
0.00116395
0.00116379
0.00116379
0.00112843
0.00114165
0.00114163
0.00112843
0.00114163
0.00112842
0.00112842
0.00114165
0.00114163
0.00112843
0.00113957
0.00113957
0.00113962
0.00111309
0.00111309
0.00111308
0.00111309
0.00112848
0.0011416
0.00113954
0.00113065
0.0011416
0.00112844
0.0011307
0.00114162
0.00112841
0.00112847
0.00113954
0.0011416
0.00113065
0.0011416
0.0011307
0.00112843
0.00114165
0.00114165
0.00112863
0.00112839
0.00112839
0.00109305
0.00110629
0.0011063
0.00109304
0.00110627
0.00109303
0.00109306
0.00110629
0.0011063
0.00109305
0.00110426
0.00110425
0.00110425
0.00107776
0.00107774
0.00107774
0.00107773
0.00109311
0.00110624
0.00110418
0.0010953
0.00110623
0.00109305
0.00109534
0.00110628
0.00109305
0.00109311
0.00110417
0.00110624
0.0010953
0.00110623
0.00109534
0.00109307
0.00110627
0.00110627
0.00109324
0.00109304
0.00109304
0.00105769
0.00107091
0.00107091
0.00105768
0.00107093
0.00105772
0.00105769
0.00107092
0.00107092
0.00105769
0.00106888
0.00106889
0.0010689
0.00104235
0.00104235
0.00104237
0.00104236
0.00105776
0.00107089
0.00106881
0.00105992
0.00107087
0.00105774
0.00105996
0.00107094
0.00105772
0.00105777
0.00106882
0.0010709
0.00105994
0.00107088
0.00105997
0.00105774
0.00107092
0.00107093
0.00105789
0.00105769
0.00105769
0.00102234
0.00103558
0.00103557
0.00102235
0.00103558
0.00102233
0.00102234
0.00103557
0.00103557
0.00102235
0.00103352
0.00103352
0.00103351
0.00100697
0.00100699
0.00100698
0.00100699
0.00102241
0.00103555
0.00103345
0.00102459
0.00103553
0.00102236
0.00102461
0.00103558
0.00102233
0.0010224
0.00103345
0.00103554
0.00102458
0.00103553
0.00102461
0.00102236
0.00103557
0.00103557
0.00102252
0.00102232
0.00102232
0.000986966
0.00100022
0.00100021
0.000986966
0.00100019
0.000986955
0.000986966
0.00100022
0.00100021
0.000986964
0.000998141
0.000998136
0.000998139
0.000971614
0.000971582
0.000971582
0.000971575
0.000987002
0.00100015
0.000998076
0.000989178
0.00100014
0.000986966
0.000989221
0.00100019
0.000986953
0.000987002
0.000998071
0.00100015
0.000989176
0.00100014
0.000989221
0.000986964
0.00100018
0.00100018
0.000987132
0.000986944
0.000986944
0.000951555
0.000964798
0.000964801
0.000951546
0.000964825
0.000951589
0.000951559
0.0009648
0.000964803
0.00095155
0.000962726
0.000962722
0.00096272
0.000936162
0.000936173
0.000936177
0.000936184
0.000951632
0.000964778
0.000962658
0.000953783
0.000964751
0.00095161
0.000953809
0.000964833
0.000951597
0.000951635
0.000962657
0.000964782
0.000953786
0.000964752
0.000953807
0.000951617
0.000964834
0.000964834
0.000951749
0.00095158
0.000951581
0.000916178
0.000929421
0.000929413
0.000916187
0.000929429
0.000916162
0.000916175
0.000929422
0.000929415
0.000916184
0.000927334
0.000927344
0.000927348
0.000900775
0.000900803
0.000900802
0.000900797
0.000916237
0.000929404
0.000927287
0.000918416
0.000929386
0.000916192
0.000918446
0.000929422
0.000916154
0.000916235
0.000927293
0.000929404
0.000918419
0.000929389
0.000918451
0.000916184
0.000929412
0.000929412
0.000916362
0.000916144
0.000916143
0.000880762
0.000894036
0.000894019
0.000880765
0.000894
0.000880761
0.000880764
0.000894034
0.000894015
0.000880766
0.000891938
0.000891929
0.000891927
0.000865375
0.000865328
0.000865327
0.000865327
0.000880792
0.000893948
0.000891867
0.000882956
0.000893936
0.000880765
0.000882996
0.000894003
0.000880769
0.000880792
0.000891861
0.000893946
0.000882952
0.000893931
0.000882989
0.000880769
0.000894004
0.000894003
0.000880915
0.000880753
0.000880753
0.000845328
0.000858581
0.000858582
0.000845323
0.000858615
0.000845351
0.000845328
0.000858583
0.000858587
0.000845323
0.000856473
0.00085648
0.000856477
0.000829894
0.000829927
0.000829928
0.000829929
0.000845401
0.000858571
0.000856421
0.000847554
0.000858537
0.000845379
0.000847575
0.000858613
0.000845343
0.000845404
0.000856425
0.000858575
0.000847559
0.000858542
0.000847581
0.000845376
0.000858603
0.000858604
0.000845517
0.000845332
0.000845332
0.000809906
0.000823177
0.000823161
0.000809915
0.000823165
0.000809899
0.000809906
0.000823174
0.000823159
0.000809915
0.000821065
0.00082106
0.000821065
0.000794467
0.000794461
0.00079446
0.00079446
0.000809949
0.000823129
0.000821016
0.000812119
0.000823114
0.000809915
0.000812149
0.000823168
0.000809906
0.000809948
0.000821014
0.000823126
0.000812114
0.000823111
0.000812145
0.000809918
0.000823164
0.000823164
0.000810071
0.00080989
0.00080989
0.000774426
0.000787711
0.000787707
0.000774425
0.000787707
0.000774428
0.000774427
0.000787713
0.00078771
0.000774426
0.000785595
0.000785598
0.000785593
0.000758985
0.000758979
0.000758982
0.000758977
0.000774476
0.000787663
0.000785538
0.000776639
0.000787641
0.000774446
0.000776668
0.000787708
0.000774426
0.000774478
0.00078554
0.000787667
0.000776644
0.000787644
0.000776672
0.000774445
0.000787702
0.000787703
0.000774597
0.000774418
0.000774418
0.000738947
0.000752233
0.000752217
0.000738955
0.000752231
0.000738959
0.000738945
0.000752231
0.000752215
0.000738954
0.0007501
0.0007501
0.000750101
0.000738994
0.000752188
0.000750049
0.000741149
0.000752163
0.000738972
0.000741175
0.000752229
0.000738957
0.000738992
0.000750049
0.000752185
0.000741146
0.000752161
0.000741173
0.00073897
0.000752229
0.000752229
0.000739109
0.000738943
0.000738943
0.0016604
0.0016611
0.00166251
0.00166048
0.00166095
0.00164247
0.0016557
0.00164255
0.00165632
0.00165712
0.00164235
0.00164234
0.00165576
0.00165617
0.00166105
0.00166137
0.00166153
0.00166517
0.00166076
0.001666
0.00166146
0.00166376
0.00166131
0.00166514
0.00165623
0.00164222
0.00165571
0.00164269
0.00165631
0.00164438
0.001657
0.00164297
0.00165645
0.0016546
0.00164198
0.00164546
0.00165582
0.00165558
0.0016425
0.00165646
0.00165369
0.00164428
0.00164534
0.00165681
0.0016551
0.00164267
0.00166089
0.00166156
0.0016617
0.00166166
0.00164526
0.00165734
0.00165579
0.00164545
0.00164588
0.00165742
0.00165763
0.00164586
0.00165756
0.00166337
0.00166575
0.00166181
0.00166727
0.00166332
0.00166403
0.00166371
0.00166776
0.00166749
0.00166439
0.00165801
0.001643
0.00165697
0.0016436
0.0016582
0.00165528
0.00164275
0.00164695
0.00165686
0.00165714
0.00164371
0.0016584
0.00164429
0.00165907
0.00164393
0.00165859
0.00165822
0.00164786
0.00164461
0.00165767
0.00165937
0.0016441
0.00166102
0.00166129
0.00166134
0.00166399
0.00166443
0.00166112
0.00166101
0.00166111
0.00165659
0.0016537
0.00164472
0.00164547
0.00165688
0.00165482
0.00164348
0.00165656
0.00164497
0.00165707
0.00164414
0.00165659
0.00165434
0.00164576
0.00164468
0.00165502
0.00165673
0.00164352
0.00165657
0.00164482
0.00165688
0.00164416
0.00166534
0.00166454
0.00166457
0.00166436
0.00164455
0.00165941
0.00166012
0.00164472
0.00164502
0.00165968
0.00165978
0.00164501
0.0016596
0.00166319
0.00166458
0.0016657
0.00166218
0.00166332
0.00166383
0.00166294
0.00166237
0.00165876
0.00165809
0.00164788
0.00164496
0.00165738
0.00165935
0.00164489
0.00165838
0.00165505
0.001647
0.00164531
0.00165639
0.00165775
0.00164468
0.00165869
0.0016448
0.00165908
0.00164495
0.00165835
0.00164549
0.0016581
0.00164489
0.00166141
0.00166207
0.00165674
0.00164594
0.00164591
0.00165752
0.00165787
0.00164586
0.00165746
0.00164588
0.00165805
0.00163817
0.00162574
0.00163811
0.00162509
0.00163799
0.00163795
0.00162407
0.00162553
0.00162509
0.00160936
0.00162162
0.00160829
0.0016208
0.00161949
0.00160917
0.00160843
0.00162141
0.00162085
0.00162657
0.00164022
0.00163877
0.00162789
0.00162567
0.0016376
0.00163594
0.00162592
0.0016379
0.00162535
0.00162672
0.00162607
0.00164006
0.00163596
0.00162792
0.00163815
0.00162792
0.00162719
0.00162205
0.00160948
0.00162158
0.00160977
0.00162246
0.00161081
0.00162372
0.00161008
0.0016215
0.00161736
0.00160922
0.00160988
0.00162121
0.00161811
0.00160957
0.00162192
0.00162007
0.00161096
0.00161089
0.00162373
0.00161894
0.00160995
0.00164147
0.00164196
0.00162697
0.0016293
0.00162977
0.00164198
0.00162986
0.00161102
0.00162472
0.00162257
0.00161117
0.00161156
0.00162493
0.00162546
0.00161156
0.00162548
0.00162495
0.00163812
0.001637
0.00162621
0.00163876
0.00162502
0.00162735
0.00162508
0.00163936
0.00163911
0.00162489
0.0016251
0.00163786
0.00163956
0.00162828
0.00163911
0.00162799
0.001625
0.00162048
0.00160787
0.00162068
0.00160721
0.0016203
0.00161726
0.00160793
0.00160897
0.00162057
0.001618
0.00160723
0.00162044
0.0016063
0.0016201
0.00160698
0.00162036
0.00161857
0.0016092
0.00160627
0.00161843
0.00162011
0.00160705
0.00162836
0.00164097
0.00164017
0.00162885
0.00162771
0.00163676
0.00164058
0.00162849
0.00163937
0.00162813
0.00162858
0.00162832
0.00164081
0.00164019
0.00162878
0.0016236
0.00162065
0.00161185
0.00161207
0.00162456
0.0016201
0.00161148
0.00162429
0.00161184
0.00162485
0.00161157
0.00162357
0.00162051
0.00161196
0.00161141
0.00162005
0.00162435
0.00161141
0.00162424
0.00161148
0.00162461
0.00161151
0.00163965
0.00164003
0.00162584
0.00162473
0.00162514
0.00164007
0.00162536
0.00160581
0.00161982
0.00162066
0.00160572
0.00160605
0.0016198
0.00162023
0.00160629
0.00162045
0.00162685
0.00163765
0.00164099
0.00162862
0.00164001
0.00162853
0.00162819
0.00162673
0.00164004
0.00164038
0.00162585
0.00162707
0.00164119
0.00164041
0.00162813
0.00162193
0.00161904
0.00161022
0.00160709
0.00161935
0.00162095
0.00160857
0.00162228
0.00162027
0.00161089
0.00161023
0.00161966
0.00162369
0.00160908
0.00162214
0.00160728
0.00162115
0.00160847
0.00162255
0.00160994
0.00162363
0.00160896
0.00164189
0.00162954
0.00164171
0.00162882
0.00162269
0.00161112
0.00161045
0.00162503
0.00162446
0.0016112
0.00162511
0.00161019
0.00162425
0.00160516
0.00159232
0.00160411
0.0015916
0.00160502
0.00160428
0.00159161
0.00159231
0.00159178
0.00157461
0.00158793
0.00157467
0.00158736
0.00158714
0.00157473
0.0015748
0.00158797
0.00158753
0.0015924
0.00160626
0.00160575
0.001592
0.00159266
0.00160504
0.00160186
0.00159351
0.00160532
0.00159244
0.00159382
0.00159282
0.00160645
0.0016028
0.00159619
0.00160565
0.00159226
0.00159452
0.00158779
0.00157451
0.00158796
0.00157401
0.00158772
0.00157293
0.00158719
0.00157378
0.00158806
0.00158535
0.00157471
0.00157673
0.001588
0.00158546
0.00157433
0.00158811
0.001587
0.00157305
0.00157718
0.00158733
0.00158602
0.00157415
0.00160625
0.00160666
0.00159425
0.0015915
0.00159165
0.00160655
0.00159164
0.00157245
0.00158662
0.0015891
0.00157239
0.00157227
0.00158664
0.00158672
0.00157226
0.00158673
0.00159015
0.00160366
0.00160022
0.00159263
0.00160275
0.00159115
0.00159184
0.00158978
0.00160184
0.00160256
0.0015891
0.00158979
0.00160023
0.00160171
0.00159093
0.00160249
0.00159145
0.00158889
0.00158592
0.00157405
0.00158672
0.00157349
0.00158582
0.00158449
0.00157421
0.00157527
0.00158684
0.00158357
0.00157348
0.00158557
0.00157334
0.00158505
0.00157328
0.00158545
0.00158215
0.00157449
0.00157316
0.00158294
0.00158475
0.00157319
0.00159292
0.00160717
0.00160708
0.00159247
0.00159364
0.00160376
0.00160683
0.00159586
0.00160701
0.00159526
0.00159258
0.0015929
0.00160683
0.00160702
0.00159233
0.00158865
0.0015874
0.00157288
0.00157767
0.00158767
0.00158674
0.00157375
0.00158796
0.00157268
0.00158748
0.00157322
0.00158862
0.00158688
0.00157744
0.00157308
0.00158646
0.00158761
0.00157375
0.00158795
0.00157291
0.00158745
0.00157324
0.00160125
0.00160155
0.0015891
0.00158872
0.0015888
0.00160177
0.001589
0.00157363
0.00158502
0.00158459
0.00157358
0.00157331
0.00158486
0.00158479
0.00157326
0.00158493
0.00159104
0.00160218
0.00160554
0.00159501
0.00160446
0.00159345
0.00159128
0.00159022
0.00160272
0.00160389
0.00158963
0.0015906
0.00160521
0.00160438
0.00159094
0.00158589
0.0015826
0.00157493
0.00157285
0.00158372
0.00158501
0.0015726
0.00158628
0.00158594
0.00157582
0.00157243
0.00158472
0.00158638
0.00157274
0.00158571
0.00157291
0.00158522
0.00157251
0.001586
0.0015723
0.0015862
0.00157254
0.00160627
0.00159163
0.00160532
0.00159095
0.00158843
0.00157249
0.00157237
0.00158678
0.00158635
0.00157247
0.00158679
0.00157234
0.00158622
0.00157006
0.00155633
0.0015702
0.00155677
0.00157019
0.00157029
0.00155718
0.00155643
0.00155672
0.00153773
0.00155166
0.0015384
0.00155217
0.00155229
0.00153783
0.00153829
0.00155176
0.00155213
0.00155535
0.00156824
0.0015691
0.00155463
0.00155578
0.00157005
0.00156779
0.00155935
0.0015695
0.0015564
0.00155874
0.00155548
0.00156823
0.00156797
0.00155731
0.00156928
0.00155458
0.00155854
0.00155103
0.00153766
0.00155159
0.00153743
0.00155078
0.00153694
0.00155014
0.00153727
0.00155103
0.00155028
0.00153781
0.00154061
0.00155165
0.00154967
0.00153749
0.00155074
0.00154787
0.00153689
0.00153987
0.00155002
0.00154915
0.00153729
0.00156776
0.00156758
0.0015549
0.00155435
0.00155407
0.00156756
0.00155403
0.00153686
0.00155002
0.00154994
0.0015368
0.0015366
0.00154992
0.00154964
0.00153658
0.00154962
0.00155661
0.00156982
0.00156691
0.0015592
0.00156916
0.0015567
0.00155846
0.00155668
0.00156937
0.00156917
0.00155717
0.00155657
0.00156619
0.00156917
0.00155773
0.00156892
0.00155799
0.00155709
0.00155232
0.00153872
0.00155229
0.00153923
0.00155215
0.00155045
0.00153867
0.0015412
0.00155219
0.00154988
0.0015392
0.00155241
0.00153995
0.00155295
0.00153942
0.00155216
0.00154966
0.00154113
0.00154004
0.00154967
0.00155283
0.00153935
0.00155417
0.00156784
0.00156832
0.00155393
0.00155433
0.00156794
0.00156818
0.00155736
0.00156865
0.00155823
0.00155425
0.00155418
0.00156807
0.00156835
0.00155414
0.00154952
0.00154742
0.00153636
0.00153891
0.00154942
0.00154845
0.0015363
0.00154958
0.00153638
0.00154943
0.0015364
0.00154953
0.00154771
0.00153898
0.00153651
0.00154849
0.00154961
0.00153631
0.00154958
0.00153653
0.00154963
0.0015364
0.00156967
0.00156936
0.00155617
0.00155762
0.00155728
0.00156927
0.00155713
0.0015403
0.0015534
0.00155169
0.00154036
0.00154014
0.00155342
0.0015531
0.00153998
0.00155293
0.00155508
0.00156679
0.00156772
0.00155712
0.0015681
0.00155767
0.00155452
0.00155539
0.0015688
0.00156816
0.0015564
0.00155512
0.00156775
0.00156808
0.00155459
0.00155087
0.0015492
0.00154023
0.00153948
0.00154881
0.00155218
0.0015383
0.00155061
0.00154785
0.00153971
0.00153734
0.0015486
0.00155009
0.00153794
0.00155113
0.00153933
0.00155217
0.00153845
0.00155082
0.00153752
0.00155027
0.0015381
0.00156781
0.00155416
0.00156778
0.00155459
0.00154982
0.00153667
0.00153711
0.00154973
0.00155007
0.00153664
0.00154971
0.00153728
0.00155022
0.00153307
0.00151926
0.00153374
0.00151981
0.00153317
0.00153364
0.00152026
0.00151931
0.00151972
0.00150076
0.0015146
0.00150098
0.0015151
0.00151535
0.00150076
0.00150094
0.00151466
0.00151503
0.00151931
0.0015325
0.00153275
0.00151926
0.00151952
0.00153308
0.00153149
0.00152232
0.00153282
0.00151934
0.00152228
0.00151941
0.00153241
0.00153072
0.00152119
0.00153265
0.00151928
0.00152167
0.00151489
0.00150091
0.00151457
0.00150132
0.00151483
0.00150143
0.0015148
0.00150137
0.00151489
0.00151299
0.00150106
0.00150399
0.00151467
0.00151309
0.00150157
0.00151482
0.00151246
0.00150154
0.00150381
0.00151476
0.00151272
0.00150159
0.00153237
0.00153222
0.00151904
0.00151912
0.00151908
0.00153219
0.00151909
0.00150134
0.00151467
0.00151436
0.00150137
0.0015015
0.00151465
0.00151467
0.00150152
0.00151469
0.00152127
0.00153402
0.00153245
0.00152305
0.00153461
0.0015203
0.00152373
0.00152133
0.00153544
0.00153495
0.00152159
0.00152151
0.00153247
0.00153552
0.00152456
0.00153481
0.00152354
0.00152188
0.00151638
0.00150144
0.00151553
0.00150204
0.00151653
0.00151374
0.00150159
0.00150531
0.00151555
0.00151454
0.00150251
0.0015166
0.0015021
0.00151676
0.00150218
0.00151677
0.00151577
0.00150577
0.00150236
0.0015148
0.00151696
0.00150268
0.00151918
0.00153203
0.00153206
0.00151905
0.0015192
0.00152995
0.00153211
0.00152111
0.00153185
0.00152108
0.00151928
0.0015192
0.00153218
0.00153206
0.00151926
0.00151475
0.00151234
0.00150167
0.00150376
0.00151465
0.00151237
0.00150191
0.00151481
0.00150162
0.00151468
0.00150176
0.00151478
0.00151262
0.00150391
0.00150194
0.00151251
0.00151489
0.00150196
0.00151485
0.0015018
0.0015149