/*--------------------------------*- C++ -*----------------------------------*\
| =========                 |                                                 |
| \\      /  F ield         | OpenFOAM: The Open Source CFD Toolbox           |
|  \\    /   O peration     | Version:  v1906                                 |
|   \\  /    A nd           | Web:      www.OpenFOAM.com                      |
|    \\/     M anipulation  |                                                 |
\*---------------------------------------------------------------------------*/
FoamFile
{
    version     2.0;
    format      ascii;
    class       volScalarField;
    location    "1000";
    object      p;
}
// * * * * * * * * * * * * * * * * * * * * * * * * * * * * * * * * * * * * * //

dimensions      [0 2 -2 0 0 0 0];


internalField   nonuniform List<scalar> 
43248
(
0.00168289
0.00168622
0.00168292
0.00168068
0.00168518
0.00167712
0.00168204
0.00168065
0.00167416
0.00167592
0.00167965
0.00167792
0.001684
0.00168209
0.00167853
0.00168029
0.00168012
0.00167909
0.00168009
0.00167932
0.0016953
0.00168114
0.00168163
0.00169496
0.00168139
0.0016944
0.00168161
0.00169521
0.00168139
0.00168421
0.00169288
0.00168193
0.00169472
0.00169119
0.00168136
0.00168348
0.00169414
0.001692
0.00168172
0.00168144
0.00169442
0.00169316
0.00168137
0.00168079
0.00169428
0.00169369
0.00168065
0.00169358
0.00167928
0.00167843
0.00167966
0.00168245
0.00167858
0.00167726
0.00167805
0.00168004
0.00167694
0.00167776
0.00169234
0.00169045
0.00168014
0.00168167
0.00169299
0.00169039
0.00167936
0.00169247
0.00168004
0.00169302
0.00167938
0.00169229
0.00168985
0.0016811
0.00167867
0.00169011
0.00169213
0.00167909
0.00169236
0.0016788
0.00169224
0.00167912
0.00167772
0.00167768
0.00167704
0.00167698
0.00168889
0.00167803
0.00167535
0.00168734
0.00167537
0.00168952
0.00168915
0.00167905
0.00167702
0.00168849
0.00169066
0.00167572
0.00168875
0.00167589
0.0016758
0.00168926
0.00167694
0.00169045
0.00167596
0.00169154
0.00167838
0.00167768
0.00169217
0.00169138
0.00167851
0.00169225
0.00167757
0.00169113
0.00168562
0.00168451
0.00168612
0.00168113
0.00168566
0.00167981
0.00168536
0.00168681
0.00168044
0.00168558
0.00168044
0.00168484
0.00167887
0.00168441
0.00168605
0.00167987
0.00168504
0.00167882
0.00167851
0.0016846
0.00168425
0.00167912
0.00169106
0.00169529
0.00169565
0.00169092
0.0016956
0.00169083
0.00169117
0.00168627
0.00168629
0.00168106
0.00168619
0.0016812
0.00168634
0.00168631
0.00168146
0.00168158
0.0016862
0.0016864
0.00168153
0.00169045
0.00169501
0.00169468
0.00169068
0.00169478
0.00169064
0.00169044
0.00168579
0.00168579
0.00168136
0.00168578
0.00168134
0.00169022
0.00169442
0.00169015
0.00169452
0.00169016
0.00168596
0.00168619
0.00168147
0.00168154
0.0016861
0.00168602
0.0016814
0.00168583
0.00169018
0.00169005
0.0016944
0.00169418
0.00169429
0.00169012
0.00168991
0.00168558
0.00168114
0.00168571
0.00168145
0.00168544
0.00168579
0.00168131
0.00168527
0.00168065
0.00168513
0.00168081
0.00168516
0.00168493
0.001681
0.0016899
0.00169435
0.00169395
0.00169004
0.00168977
0.00169407
0.00169012
0.00168959
0.00169376
0.0016934
0.00168946
0.00169375
0.0016895
0.00168923
0.00168571
0.00168136
0.00168118
0.00168571
0.00168552
0.00168134
0.00168501
0.00168935
0.00168426
0.00168441
0.00167945
0.00168439
0.00167935
0.00168347
0.00168302
0.00167864
0.00167845
0.00168353
0.00168302
0.00167873
0.00168123
0.00168111
0.00167735
0.00168127
0.00167726
0.00168196
0.00168238
0.00167808
0.00167758
0.00168246
0.00168178
0.00167769
0.00168822
0.00169261
0.00169253
0.00168811
0.00169259
0.00168826
0.00168816
0.00168432
0.00168435
0.00168011
0.0016844
0.00168004
0.00168865
0.00169301
0.00168872
0.00169291
0.00168873
0.00168382
0.00168371
0.00167951
0.00167943
0.00168385
0.00168377
0.00167948
0.00168791
0.00169243
0.00169224
0.00168794
0.00169234
0.00168801
0.00168781
0.0016833
0.00168322
0.00167873
0.0016832
0.00167885
0.00168785
0.00169229
0.00168774
0.00169236
0.00168776
0.00168347
0.00168349
0.00167918
0.00167899
0.00168357
0.00168335
0.0016791
0.00168113
0.00167877
0.00167478
0.00168077
0.00167807
0.00167832
0.00168129
0.00167598
0.00167829
0.00167421
0.00168009
0.00167734
0.00168043
0.00167758
0.00167552
0.00168109
0.00167867
0.00167846
0.00168181
0.00168155
0.00167824
0.00168025
0.00168396
0.00168825
0.00168876
0.00168414
0.00168836
0.00168375
0.00168432
0.00167961
0.0016795
0.00167612
0.00167972
0.00167597
0.00168355
0.00168356
0.00167978
0.0016798
0.00167567
0.00167604
0.00167953
0.00168007
0.00167581
0.00168497
0.00168961
0.00168929
0.00168459
0.00168957
0.00168493
0.00168477
0.00168128
0.00168125
0.00167704
0.00168134
0.00167702
0.00168569
0.00169048
0.00168584
0.00169034
0.00168587
0.00168056
0.00168011
0.00167625
0.00167623
0.00168042
0.00168039
0.0016764
0.00168717
0.00169199
0.00169169
0.00169187
0.00168734
0.00168704
0.00168265
0.00167818
0.0016829
0.00167851
0.00168269
0.00168298
0.00167816
0.00168219
0.0016774
0.00168216
0.00167766
0.00168187
0.00168211
0.0016777
0.00168735
0.00169218
0.00169198
0.00168753
0.00169198
0.00168736
0.00168757
0.00168687
0.00169137
0.00169121
0.00168674
0.00169155
0.00168653
0.00168671
0.00168254
0.00167826
0.00167797
0.00168273
0.00168244
0.00167805
0.00168301
0.00168763
0.00168209
0.00168653
0.0016865
0.00168769
0.00168199
0.00168198
0.00168749
0.00168731
0.00168099
0.0016851
0.00168468
0.00168103
0.00168086
0.00168516
0.00168488
0.00168103
0.00167723
0.00167891
0.0016737
0.00167344
0.0016776
0.00167735
0.00167399
0.00168232
0.00168208
0.00167796
0.00167788
0.00168233
0.00168216
0.00167799
0.00168292
0.00168195
0.00169185
0.00169078
0.00168173
0.00169055
0.00168245
0.00168152
0.00169111
0.00169024
0.00169053
0.00168168
0.00168006
0.00167931
0.00168867
0.0016898
0.00168056
0.00168945
0.00168091
0.00167987
0.00168987
0.00168913
0.00168984
0.00168077
0.0016915
0.00169574
0.00169514
0.00169105
0.0016956
0.00169146
0.00169105
0.00168729
0.00168229
0.00168649
0.00168182
0.00168761
0.00168688
0.00168231
0.00168689
0.00168639
0.00168193
0.00168202
0.00168664
0.00168653
0.00168229
0.00169007
0.0016944
0.00169451
0.00169061
0.00169415
0.00169032
0.00169039
0.00168537
0.00168105
0.00168562
0.00168144
0.00168569
0.00168532
0.00168116
0.00168981
0.0016942
0.00169384
0.00169
0.00169391
0.00169011
0.00168968
0.00168559
0.00168608
0.0016816
0.00168156
0.00168586
0.00168588
0.00168136
0.00168956
0.00168912
0.00169345
0.00169327
0.00168943
0.00169351
0.0016893
0.0016856
0.00168065
0.00168487
0.00167977
0.00168603
0.00168478
0.00168047
0.00168452
0.00168311
0.00167907
0.00167889
0.00168379
0.00168357
0.0016796
0.00167962
0.00167415
0.0016802
0.00167654
0.00168036
0.00167849
0.00167541
0.00168109
0.00168214
0.00167767
0.00167705
0.00168218
0.00168122
0.00167673
0.0016882
0.00169246
0.00169242
0.00168808
0.00169244
0.00168825
0.00168811
0.0016842
0.00168007
0.00168438
0.00168002
0.00168435
0.00168418
0.00167999
0.00168856
0.00169275
0.0016928
0.00168879
0.00169276
0.00168858
0.00168861
0.0016837
0.00168356
0.00167958
0.00167931
0.00168377
0.00168355
0.00167951
0.00168783
0.00169235
0.00169218
0.00168794
0.00169221
0.00168796
0.00168781
0.00168286
0.00167844
0.00168305
0.00167874
0.00168308
0.00168284
0.00167854
0.00168767
0.00169218
0.00169204
0.00168768
0.00169212
0.00168774
0.00168751
0.0016831
0.00168335
0.00167898
0.00167893
0.00168327
0.0016832
0.00167882
0.00168387
0.0016892
0.0016882
0.00168417
0.00168855
0.00168454
0.00168348
0.00167816
0.00167316
0.00167865
0.00167498
0.00167723
0.00167856
0.00167399
0.00168286
0.00168275
0.00167896
0.00167945
0.00167512
0.00167503
0.00167965
0.00167892
0.00167455
0.00168555
0.00168984
0.00168989
0.00168483
0.00169019
0.00168515
0.00168519
0.00168124
0.00167695
0.00168138
0.0016767
0.00168096
0.0016814
0.0016768
0.00168609
0.00169036
0.00169081
0.00168604
0.00169078
0.00168571
0.00168608
0.00168069
0.00167998
0.00167588
0.0016761
0.00168034
0.00168037
0.00167626
0.00168722
0.00168721
0.00169166
0.0016917
0.00169168
0.00168715
0.00168715
0.00265308
0.00265304
0.00265304
0.00265549
0.00266072
0.00266305
0.00266305
0.00266071
0.00266305
0.00266305
0.00266305
0.00266306
0.00266072
0.00266305
0.00266306
0.00266072
0.00265549
0.00262078
0.00265304
0.00265304
0.00262309
0.00262309
0.00265549
0.00262079
0.00265304
0.00265304
0.00262309
0.00262309
0.00265304
0.00262309
0.0026231
0.00265549
0.00262079
0.00265304
0.00262309
0.0026231
0.00262078
0.0026631
0.0026631
0.0026631
0.0026631
0.00264045
0.00265533
0.00265541
0.00264037
0.00265531
0.00264035
0.00264045
0.00265533
0.00265541
0.00264037
0.00265308
0.00265308
0.00265308
0.00262314
0.00262314
0.00262314
0.00262314
0.00264072
0.00265541
0.00265307
0.00264305
0.00265553
0.00264055
0.00264307
0.00265531
0.00264035
0.00264072
0.00265307
0.00265541
0.00264305
0.00265553
0.00264307
0.00264055
0.00265539
0.00265539
0.00264072
0.00264042
0.00264042
0.00266035
0.00267535
0.00266035
0.00267535
0.00267553
0.00266042
0.00266042
0.00267544
0.00267544
0.00267546
0.00266037
0.00267538
0.00266046
0.00267546
0.00266037
0.00267538
0.00266046
0.00267559
0.00267308
0.00266055
0.00266308
0.00267546
0.00267311
0.00266072
0.00267559
0.00267309
0.00266055
0.00266308
0.00267546
0.00267311
0.00266072
0.00266035
0.00267535
0.00267553
0.00266043
0.00266043
0.00267544
0.00267544
0.00266035
0.00267535
0.00267546
0.00266037
0.00267538
0.00266046
0.00267558
0.00267308
0.00266055
0.00266308
0.00267546
0.00267311
0.00266072
0.00267546
0.00266037
0.00267538
0.00266046
0.00267558
0.00267308
0.00266308
0.00266055
0.00267311
0.00267546
0.00266072
0.00267558
0.00267309
0.00266055
0.00266308
0.00267546
0.00267311
0.00266072
0.00267546
0.00266037
0.00267538
0.00266046
0.00267558
0.00267308
0.00266308
0.00266055
0.00267311
0.00267546
0.00266072
0.00267546
0.00266037
0.00267538
0.00266046
0.00266035
0.00267535
0.00267553
0.00266043
0.00266042
0.00267544
0.00267544
0.00266035
0.00267535
0.00267559
0.00267309
0.00266308
0.00266055
0.00267311
0.00267546
0.00266073
0.00267559
0.00267308
0.00266308
0.00266055
0.00267311
0.00267546
0.00266073
0.00267546
0.00266037
0.00267538
0.00266046
0.00267546
0.00266037
0.00267538
0.00266046
0.00267553
0.00266042
0.00266042
0.00267544
0.00267544
0.00266035
0.00267535
0.00266035
0.00267535
0.00265531
0.00264034
0.0026553
0.00264035
0.00265539
0.00265539
0.00264072
0.00264042
0.00264042
0.00262042
0.00263532
0.00262042
0.00263532
0.00263551
0.00262049
0.00262049
0.0026354
0.0026354
0.00264045
0.00265533
0.00265541
0.00264037
0.00264072
0.00265541
0.00265307
0.00264305
0.00265553
0.00264055
0.00264307
0.00264072
0.0026554
0.00265307
0.00264305
0.00265553
0.00264055
0.00264307
0.00263542
0.00262043
0.00263535
0.00262051
0.00263542
0.00262043
0.00263535
0.00262051
0.00263554
0.00263307
0.0026206
0.00262312
0.00263542
0.00263309
0.00262077
0.00263554
0.00263306
0.0026206
0.00262312
0.00263542
0.00263309
0.00262078
0.00265539
0.00265539
0.00264072
0.00264042
0.00264042
0.00265531
0.00264034
0.00262041
0.00263532
0.00263551
0.00262048
0.00262048
0.0026354
0.0026354
0.00262041
0.00263532
0.00264072
0.0026554
0.00265307
0.00264305
0.00265553
0.00264055
0.00264307
0.00264045
0.00265533
0.00265541
0.00264037
0.00264072
0.00265307
0.00265541
0.00264305
0.00265553
0.00264307
0.00264055
0.00263542
0.00262043
0.00263535
0.00262051
0.00263554
0.00263306
0.0026206
0.00262312
0.00263542
0.00263309
0.00262077
0.00263542
0.00262043
0.00263535
0.00262051
0.00263554
0.00263306
0.00262312
0.0026206
0.00263309
0.00263542
0.00262077
0.00264045
0.00265533
0.00265541
0.00264037
0.00264072
0.00265307
0.00265541
0.00264304
0.00265553
0.00264307
0.00264055
0.00264045
0.00265533
0.00265541
0.00264037
0.00263554
0.00263306
0.0026206
0.00262312
0.00263542
0.00263309
0.00262077
0.00263542
0.00262043
0.00263535
0.00262051
0.00263554
0.00263307
0.00262312
0.0026206
0.00263309
0.00263542
0.00262077
0.00263542
0.00262043
0.00263535
0.00262051
0.00265539
0.00265539
0.00264072
0.00264042
0.00264042
0.00265531
0.00264035
0.00262041
0.00263532
0.00263551
0.00262048
0.00262048
0.0026354
0.0026354
0.00262041
0.00263532
0.00264072
0.00265307
0.00265541
0.00264304
0.00265553
0.00264307
0.00264055
0.00264045
0.00265533
0.00265541
0.00264037
0.00264045
0.00265533
0.00265541
0.00264037
0.00263554
0.00263306
0.00262312
0.0026206
0.00263309
0.00263542
0.00262077
0.00263554
0.00263307
0.00262312
0.0026206
0.00263309
0.00263542
0.00262077
0.00263542
0.00262043
0.00263535
0.00262051
0.00263542
0.00262043
0.00263535
0.00262051
0.00265531
0.00264035
0.00265531
0.00264035
0.00263551
0.00262048
0.00262048
0.0026354
0.0026354
0.00262041
0.00263532
0.00262041
0.00263532
0.00264533
0.00264541
0.00264035
0.00264044
0.00264532
0.00264539
0.00264036
0.00265035
0.00265536
0.00265036
0.0026553
0.00265039
0.00265035
0.00265045
0.00265533
0.00265539
0.00265533
0.00265035
0.00265043
0.0026453
0.0026404
0.00264533
0.00264536
0.00264035
0.00265034
0.00264531
0.00264533
0.00264541
0.00264044
0.00264035
0.00264539
0.00264533
0.00264036
0.00265034
0.00265536
0.00265036
0.0026553
0.00265039
0.00265035
0.00265045
0.00265539
0.00265533
0.00265533
0.00265043
0.00265035
0.0026453
0.0026404
0.00264533
0.00264536
0.00264035
0.00265034
0.00264531
0.00264537
0.00264033
0.00264033
0.0026453
0.00264529
0.00264039
0.00265047
0.00265551
0.00265534
0.00265041
0.00265542
0.00265054
0.00265037
0.00265047
0.00265551
0.00265534
0.00265041
0.00265542
0.00265054
0.00265037
0.0026504
0.0026553
0.0026553
0.00265538
0.00265033
0.00265033
0.00264542
0.00264037
0.00264539
0.00264055
0.0026455
0.00264534
0.00264048
0.00264542
0.00264037
0.00264539
0.00264055
0.0026455
0.00264534
0.00264048
0.00266532
0.00267037
0.00266532
0.00267037
0.00267043
0.00267534
0.00267534
0.00267543
0.00267036
0.00267036
0.00266544
0.00266055
0.00266541
0.00266038
0.00266535
0.00266552
0.00266048
0.00266543
0.00266055
0.00266541
0.00266038
0.00266535
0.00266552
0.00266048
0.00267051
0.00267538
0.00267556
0.00267045
0.00267547
0.0026704
0.00267058
0.00267051
0.00267539
0.00267556
0.00267045
0.00267547
0.0026704
0.00267058
0.0026654
0.00266034
0.00266034
0.00266531
0.00266531
0.00266041
0.00267038
0.00267536
0.00267544
0.00267048
0.00267537
0.00267037
0.00267046
0.00266531
0.00266535
0.0026604
0.00266035
0.00266538
0.00267037
0.00267541
0.00267039
0.00267534
0.00267042
0.00266534
0.00266543
0.00266036
0.00266044
0.00266036
0.00266534
0.00266541
0.00267038
0.00267536
0.00267544
0.00267048
0.00267537
0.00267037
0.00267046
0.00266531
0.00266535
0.0026604
0.00266538
0.00266035
0.00267037
0.00267541
0.0026704
0.00267535
0.00267042
0.00266534
0.00266543
0.00266036
0.00266044
0.00266534
0.00266541
0.00266036
0.00266532
0.00267037
0.00267043
0.00267534
0.00267534
0.00267542
0.00267036
0.00267036
0.00266544
0.00266055
0.00266541
0.00266038
0.00266552
0.00266536
0.00266049
0.00266544
0.00266055
0.00266541
0.00266038
0.00266536
0.00266552
0.00266049
0.00267051
0.00267538
0.00267556
0.00267045
0.00267058
0.00267547
0.0026704
0.00267051
0.00267538
0.00267556
0.00267045
0.00267547
0.0026704
0.00267058
0.0026654
0.00266034
0.00266034
0.00266532
0.00266532
0.00266041
0.00266532
0.00267037
0.00267038
0.00267544
0.00267537
0.00267048
0.00267537
0.00267046
0.00267038
0.00266531
0.00266535
0.0026604
0.00266035
0.00266538
0.00267037
0.00267541
0.00267039
0.00267534
0.00267042
0.00266534
0.00266543
0.00266044
0.00266035
0.00266036
0.00266541
0.00266534
0.00267038
0.00267537
0.00267544
0.00267048
0.00267537
0.00267037
0.00267046
0.00266532
0.00266535
0.0026604
0.00266538
0.00266035
0.00267037
0.00267541
0.0026704
0.00267534
0.00267042
0.00266534
0.00266543
0.00266035
0.00266044
0.00266534
0.00266541
0.00266036
0.00267038
0.00267544
0.00267537
0.00267048
0.00267537
0.00267046
0.00267038
0.00266531
0.00266535
0.0026604
0.00266538
0.00266035
0.00267037
0.00267541
0.0026704
0.00267534
0.00267042
0.00266534
0.00266543
0.00266044
0.00266035
0.00266541
0.00266534
0.00266035
0.00267038
0.00267537
0.00267544
0.00267048
0.00267537
0.00267038
0.00267046
0.00266531
0.00266535
0.0026604
0.00266538
0.00266035
0.00267037
0.00267541
0.0026704
0.00267534
0.00267042
0.00266534
0.00266543
0.00266035
0.00266044
0.00266534
0.00266541
0.00266035
0.00266532
0.00267037
0.00267043
0.00267534
0.00267534
0.00267543
0.00267036
0.00267036
0.00266544
0.00266055
0.00266541
0.00266038
0.00266552
0.00266535
0.00266049
0.00266544
0.00266055
0.0026654
0.00266038
0.00266536
0.00266552
0.00266049
0.00267051
0.00267538
0.00267556
0.00267045
0.00267058
0.00267547
0.0026704
0.00267051
0.00267538
0.00267556
0.00267045
0.00267547
0.0026704
0.00267058
0.0026654
0.00266034
0.00266034
0.00266531
0.00266531
0.00266041
0.00266532
0.00267037
0.00267038
0.00267544
0.00267537
0.00267048
0.00267537
0.00267046
0.00267038
0.00266531
0.00266535
0.0026604
0.00266538
0.00266035
0.00267037
0.00267541
0.0026704
0.00267534
0.00267042
0.00266534
0.00266543
0.00266044
0.00266035
0.00266541
0.00266534
0.00266036
0.00267038
0.00267544
0.00267537
0.00267048
0.00267537
0.00267046
0.00267038
0.00266531
0.00266535
0.0026604
0.00266538
0.00266035
0.00267037
0.00267541
0.0026704
0.00267534
0.00267042
0.00266534
0.00266543
0.00266044
0.00266035
0.00266541
0.00266534
0.00266036
0.00267043
0.00267534
0.00267534
0.00267543
0.00267036
0.00267036
0.00266544
0.00266055
0.00266541
0.00266038
0.00266048
0.00266553
0.00266535
0.00266543
0.00266055
0.00266541
0.00266038
0.00266048
0.00266553
0.00266535
0.00267051
0.00267539
0.00267556
0.00267045
0.00267547
0.00267058
0.0026704
0.00267051
0.00267539
0.00267556
0.00267045
0.00267547
0.00267058
0.0026704
0.00266539
0.00266033
0.00266034
0.0026604
0.00266531
0.00266531
0.00266532
0.00267037
0.00266532
0.00267037
0.00265034
0.00264531
0.00265034
0.0026453
0.00264536
0.00264033
0.00264033
0.00264529
0.00264529
0.00264039
0.00265047
0.00265551
0.00265534
0.00265041
0.00265542
0.00265037
0.00265055
0.00265047
0.0026555
0.00265534
0.00265041
0.00265542
0.00265037
0.00265054
0.00265039
0.00265529
0.00265529
0.00265538
0.00265032
0.00265032
0.00264541
0.00264037
0.00264538
0.00264055
0.00264533
0.00264047
0.00264551
0.00264541
0.00264037
0.00264538
0.00264055
0.00264533
0.00264047
0.0026455
0.00262536
0.00263037
0.00262536
0.00263037
0.00263043
0.00263531
0.00263531
0.00263539
0.00263037
0.00263037
0.00262546
0.00262062
0.00262544
0.00262044
0.00262539
0.00262555
0.00262055
0.00262545
0.00262061
0.00262544
0.00262044
0.00262539
0.00262555
0.00262054
0.0026305
0.00263535
0.00263552
0.00263044
0.00263542
0.0026304
0.00263057
0.00263049
0.00263535
0.00263552
0.00263044
0.00263542
0.0026304
0.00263058
0.00262544
0.00262041
0.00262041
0.00262536
0.00262536
0.00262048
0.00264533
0.00264541
0.00264035
0.00264044
0.00264533
0.00264539
0.00264036
0.00265035
0.00265536
0.00265036
0.0026553
0.00265039
0.00265035
0.00265045
0.00265533
0.00265539
0.00265035
0.00265533
0.00265043
0.0026453
0.0026404
0.00264533
0.00264537
0.00264036
0.00263038
0.00263534
0.00263541
0.00263048
0.00263534
0.00263038
0.00263046
0.00262535
0.00262538
0.00262046
0.00262541
0.00262042
0.00263038
0.00263538
0.00263039
0.00263532
0.00263042
0.00262538
0.00262545
0.00262043
0.00262049
0.00262538
0.00262544
0.00262042
0.00263038
0.00263534
0.00263541
0.00263048
0.00263534
0.00263038
0.00263046
0.00262535
0.00262538
0.00262046
0.00262541
0.00262042
0.00263038
0.00263538
0.00263039
0.00263532
0.00263042
0.00262538
0.00262545
0.00262042
0.0026205
0.00262538
0.00262544
0.00262042
0.00264536
0.00264033
0.00264033
0.00264529
0.00264529
0.00264039
0.00265047
0.00265551
0.00265534
0.00265041
0.00265037
0.00265542
0.00265055
0.00265047
0.00265551
0.00265534
0.00265041
0.00265055
0.00265542
0.00265037
0.00265039
0.0026553
0.0026553
0.00265032
0.00265538
0.00265032
0.00264541
0.00264037
0.00264538
0.00264055
0.00264533
0.00264551
0.00264047
0.00264541
0.00264037
0.00264538
0.00264055
0.00264551
0.00264533
0.00264047
0.00265034
0.0026453
0.00262536
0.00263037
0.00263043
0.00263531
0.00263531
0.00263539
0.00263037
0.00263037
0.00262546
0.00262061
0.00262544
0.00262044
0.00262555
0.00262539
0.00262054
0.00262546
0.00262061
0.00262544
0.00262044
0.00262539
0.00262555
0.00262054
0.0026305
0.00263535
0.00263552
0.00263045
0.00263057
0.00263542
0.0026304
0.0026305
0.00263535
0.00263552
0.00263044
0.00263542
0.0026304
0.00263057
0.00262543
0.00262041
0.00262041
0.00262535
0.00262535
0.00262047
0.00262536
0.00263037
0.00264532
0.00264541
0.00264035
0.00264044
0.00264533
0.00264539
0.00264036
0.00265035
0.00265536
0.00265036
0.0026553
0.00265039
0.00265035
0.00265045
0.00265533
0.00265539
0.00265035
0.00265533
0.00265043
0.0026453
0.0026404
0.00264533
0.00264536
0.00264035
0.00263038
0.00263541
0.00263534
0.00263047
0.00263534
0.00263046
0.00263038
0.00262535
0.00262538
0.00262046
0.00262541
0.00262042
0.00263038
0.00263538
0.0026304
0.00263532
0.00263042
0.00262538
0.00262545
0.0026205
0.00262042
0.00262544
0.00262538
0.00262042
0.00263038
0.00263534
0.00263541
0.00263048
0.00263534
0.00263038
0.00263046
0.00262535
0.00262538
0.00262046
0.00262541
0.00262042
0.00263038
0.00263538
0.00263039
0.00263532
0.00263042
0.00262538
0.00262545
0.00262042
0.00262049
0.00262538
0.00262543
0.00262043
0.00264533
0.00264541
0.00264043
0.00264036
0.00264539
0.00264533
0.00264036
0.00265034
0.00265536
0.00265036
0.00265039
0.0026553
0.00265035
0.00265045
0.00265539
0.00265532
0.00265043
0.00265532
0.00265034
0.0026453
0.0026404
0.00264533
0.00264536
0.00264036
0.00264532
0.00264541
0.00264036
0.00264043
0.00264533
0.00264539
0.00264036
0.00265034
0.00265536
0.00265036
0.0026553
0.00265039
0.00265035
0.00265045
0.00265532
0.00265539
0.00265532
0.00265034
0.00265043
0.0026453
0.0026404
0.00264533
0.00264536
0.00264035
0.00263038
0.00263541
0.00263535
0.00263048
0.00263534
0.00263046
0.00263038
0.00262535
0.00262538
0.00262046
0.00262541
0.00262042
0.00263038
0.00263538
0.00263039
0.00263532
0.00263042
0.00262538
0.00262545
0.00262049
0.00262042
0.00262544
0.00262538
0.00262042
0.00263038
0.00263535
0.00263541
0.00263048
0.00263534
0.00263038
0.00263046
0.00262535
0.00262538
0.00262046
0.00262541
0.00262042
0.00263038
0.00263538
0.0026304
0.00263532
0.00263042
0.00262538
0.00262545
0.00262042
0.00262049
0.00262538
0.00262544
0.00262042
0.00264537
0.00264033
0.00264033
0.00264529
0.00264529
0.0026404
0.00265047
0.00265551
0.00265534
0.00265041
0.00265037
0.00265542
0.00265054
0.00265047
0.00265551
0.00265534
0.00265041
0.00265054
0.00265542
0.00265037
0.00265039
0.0026553
0.0026553
0.00265033
0.00265538
0.00265033
0.00264541
0.00264037
0.00264539
0.00264055
0.00264533
0.00264551
0.00264047
0.00264541
0.00264037
0.00264539
0.00264055
0.00264551
0.00264533
0.00264047
0.00265034
0.00264531
0.00262536
0.00263037
0.00263043
0.00263531
0.00263531
0.00263539
0.00263037
0.00263037
0.00262546
0.00262061
0.00262544
0.00262044
0.00262555
0.00262539
0.00262054
0.00262546
0.00262061
0.00262544
0.00262044
0.00262539
0.00262555
0.00262054
0.0026305
0.00263535
0.00263552
0.00263044
0.00263057
0.00263542
0.0026304
0.0026305
0.00263535
0.00263552
0.00263044
0.00263543
0.0026304
0.00263057
0.00262543
0.0026204
0.0026204
0.00262535
0.00262535
0.00262047
0.00262536
0.00263037
0.00264533
0.00264541
0.00264044
0.00264036
0.00264539
0.00264533
0.00264036
0.00265035
0.00265536
0.00265036
0.00265039
0.0026553
0.00265035
0.00265045
0.00265539
0.00265532
0.00265043
0.00265533
0.00265035
0.0026453
0.0026404
0.00264533
0.00264536
0.00264036
0.00264532
0.00264541
0.00264043
0.00264036
0.00264539
0.00264533
0.00264036
0.00265034
0.00265536
0.00265036
0.0026553
0.00265039
0.00265035
0.00265045
0.00265539
0.00265532
0.00265532
0.00265043
0.00265035
0.0026453
0.0026404
0.00264533
0.00264536
0.00264035
0.00263038
0.00263541
0.00263534
0.00263047
0.00263534
0.00263046
0.00263038
0.00262535
0.00262538
0.00262046
0.00262541
0.00262042
0.00263038
0.00263538
0.00263039
0.00263532
0.00263042
0.00262538
0.00262545
0.00262049
0.00262042
0.00262543
0.00262538
0.00262042
0.00263038
0.0026354
0.00263534
0.00263047
0.00263534
0.00263046
0.00263038
0.00262535
0.00262538
0.00262046
0.00262541
0.00262042
0.00263038
0.00263538
0.0026304
0.00263532
0.00263042
0.00262538
0.00262545
0.00262049
0.00262042
0.00262544
0.00262538
0.00262042
0.00265034
0.00264531
0.00265034
0.00264531
0.00263042
0.0026353
0.0026353
0.00263538
0.00263036
0.00263036
0.00262545
0.00262061
0.00262543
0.00262044
0.00262555
0.00262538
0.00262054
0.00262545
0.00262061
0.00262543
0.00262044
0.00262554
0.00262538
0.00262054
0.00263049
0.00263535
0.00263552
0.00263044
0.00263542
0.00263057
0.00263039
0.00263049
0.00263535
0.00263552
0.00263044
0.00263542
0.00263057
0.00263039
0.00262542
0.00262041
0.00262041
0.00262535
0.00262535
0.00262047
0.00262535
0.00263037
0.00262535
0.00263037
0.00265307
0.00265307
0.00264309
0.00264307
0.00264307
0.00264307
0.00265307
0.00265071
0.00265547
0.00265547
0.00265071
0.0026554
0.00265066
0.00265066
0.00266542
0.0026655
0.00266067
0.00266067
0.00266549
0.00266549
0.00266072
0.00266542
0.0026655
0.00266067
0.00266067
0.00266549
0.00266548
0.00266073
0.00266542
0.0026655
0.00266067
0.00266067
0.00266549
0.00266549
0.00266072
0.00266542
0.0026655
0.00266067
0.00266067
0.00266072
0.00266549
0.00266549
0.00265071
0.00265547
0.00265547
0.00265071
0.0026554
0.00265067
0.00265066
0.0026254
0.00262554
0.00262075
0.00262075
0.00262552
0.00262553
0.00262073
0.00265072
0.00265547
0.00265547
0.00265071
0.00265066
0.00265541
0.00265066
0.00262543
0.00262554
0.00262074
0.00262074
0.00262551
0.00262551
0.00262076
0.00265071
0.00265547
0.00265547
0.00265071
0.00265067
0.0026554
0.00265066
0.00262543
0.00262554
0.00262074
0.00262074
0.00262551
0.00262551
0.00262076
0.00262542
0.00262554
0.00262073
0.00262073
0.00262551
0.00262551
0.00262075
0.00267312
0.00266308
0.00266308
0.00267311
0.00267311
0.00267311
0.00266308
0.00267312
0.00266308
0.00266308
0.00267311
0.00267311
0.00267311
0.00266308
0.00267312
0.00266308
0.00266308
0.00267311
0.00267311
0.00267311
0.00266308
0.00267312
0.00266308
0.00266308
0.00267311
0.00267311
0.00267311
0.00266308
0.00265307
0.00265307
0.00264309
0.00264307
0.00264307
0.00264307
0.00265307
0.00265307
0.00265307
0.00264309
0.00264307
0.00264307
0.00264307
0.00265307
0.00265307
0.00265307
0.00264309
0.00264307
0.00264307
0.00264307
0.00265307
0.00263311
0.00262313
0.00262313
0.00263309
0.00263309
0.00263309
0.00262312
0.00263311
0.00262313
0.00262313
0.00263309
0.00263309
0.00263309
0.00262312
0.00263311
0.00262313
0.00262313
0.00263309
0.00263309
0.00263309
0.00262312
0.00263311
0.00262313
0.00262313
0.00263309
0.00263309
0.00263309
0.00262312
0.00264553
0.00264553
0.00264069
0.00264064
0.00264549
0.00264552
0.00264065
0.00265065
0.00265552
0.00265545
0.00265054
0.00265554
0.00265057
0.00265062
0.00265064
0.00265071
0.0026555
0.00265552
0.00265552
0.00265068
0.00265063
0.00264554
0.00264063
0.0026454
0.00264057
0.00264552
0.00264545
0.00264065
0.00264553
0.00264553
0.00264064
0.00264069
0.00264552
0.00264549
0.00264065
0.00265065
0.00265552
0.00265545
0.00265054
0.00265554
0.00265057
0.00265062
0.00265064
0.00265072
0.00265552
0.0026555
0.00265552
0.00265063
0.00265068
0.00264554
0.00264063
0.0026454
0.00264057
0.00264552
0.00264545
0.00264066
0.0026454
0.00264549
0.00264067
0.00264067
0.00264547
0.00264547
0.00264071
0.00267075
0.00267074
0.00267552
0.00267552
0.00267546
0.0026707
0.0026707
0.00267067
0.00267555
0.00267557
0.00267075
0.00267557
0.00267072
0.00267067
0.00266556
0.00266058
0.00266542
0.00266063
0.00266554
0.00266547
0.00266065
0.00267068
0.0026755
0.00267557
0.00267058
0.0026706
0.00267559
0.00267066
0.00266554
0.00266555
0.00266069
0.00266064
0.00266552
0.00266554
0.00266065
0.00267067
0.00267555
0.00267557
0.00267075
0.00267557
0.00267072
0.00267067
0.00266556
0.00266058
0.00266542
0.00266063
0.00266547
0.00266554
0.00266065
0.00267068
0.0026755
0.00267557
0.00267058
0.00267559
0.00267066
0.0026706
0.00266554
0.00266555
0.00266069
0.00266064
0.00266552
0.00266554
0.00266065
0.00267074
0.00267074
0.00267552
0.00267552
0.0026707
0.00267546
0.0026707
0.00267067
0.00267555
0.00267557
0.00267075
0.00267557
0.00267072
0.00267067
0.00266556
0.00266058
0.00266542
0.00266063
0.00266554
0.00266547
0.00266065
0.00267068
0.0026755
0.00267557
0.00267058
0.0026706
0.00267559
0.00267066
0.00266554
0.00266555
0.00266069
0.00266064
0.00266552
0.00266554
0.00266065
0.00267067
0.00267557
0.00267555
0.00267075
0.00267557
0.00267067
0.00267072
0.00266556
0.00266058
0.00266543
0.00266063
0.00266547
0.00266554
0.00266065
0.00267068
0.0026755
0.00267557
0.00267058
0.00267559
0.00267066
0.0026706
0.00266554
0.00266555
0.00266064
0.00266069
0.00266554
0.00266552
0.00266065
0.00267067
0.00267555
0.00267557
0.00267075
0.00267557
0.00267072
0.00267067
0.00266556
0.00266057
0.00266542
0.00266063
0.00266066
0.00266554
0.00266547
0.00267068
0.0026755
0.00267557
0.00267058
0.00267559
0.0026706
0.00267066
0.00266554
0.00266555
0.00266069
0.00266064
0.00266065
0.00266552
0.00266554
0.00267067
0.00267557
0.00267555
0.00267075
0.00267557
0.00267067
0.00267072
0.00266556
0.00266058
0.00266542
0.00266063
0.00266547
0.00266554
0.00266065
0.00267068
0.0026755
0.00267557
0.00267058
0.00267559
0.00267066
0.0026706
0.00266554
0.00266555
0.00266064
0.00266069
0.00266554
0.00266552
0.00266065
0.00267075
0.00267074
0.00267552
0.00267552
0.0026707
0.00267546
0.0026707
0.00267067
0.00267557
0.00267555
0.00267075
0.00267557
0.00267066
0.00267072
0.00266556
0.00266058
0.00266542
0.00266063
0.00266065
0.00266554
0.00266547
0.00267068
0.0026755
0.00267557
0.00267058
0.00267559
0.0026706
0.00267066
0.00266554
0.00266555
0.00266064
0.00266069
0.00266065
0.00266554
0.00266552
0.00267067
0.00267557
0.00267555
0.00267075
0.00267557
0.00267066
0.00267072
0.00266556
0.00266058
0.00266543
0.00266063
0.00266547
0.00266554
0.00266065
0.00267068
0.0026755
0.00267557
0.00267058
0.00267559
0.00267066
0.0026706
0.00266554
0.00266555
0.00266064
0.00266069
0.00266554
0.00266552
0.00266065
0.00267075
0.00267074
0.00267552
0.00267552
0.00267546
0.0026707
0.0026707
0.0026454
0.00264549
0.00264067
0.00264067
0.00264071
0.00264547
0.00264547