/*--------------------------------*- C++ -*----------------------------------*\
| =========                 |                                                 |
| \\      /  F ield         | OpenFOAM: The Open Source CFD Toolbox           |
|  \\    /   O peration     | Version:  v1906                                 |
|   \\  /    A nd           | Web:      www.OpenFOAM.com                      |
|    \\/     M anipulation  |                                                 |
\*---------------------------------------------------------------------------*/
FoamFile
{
    version     2.0;
    format      ascii;
    class       surfaceScalarField;
    location    "1000";
    object      phi;
}
// * * * * * * * * * * * * * * * * * * * * * * * * * * * * * * * * * * * * * //

dimensions      [0 3 -1 0 0 0 0];
oriented        oriented;


internalField   nonuniform List<scalar> 
124860
(
-7.51957e-07
-9.27278e-08
-0.000269137
-5.13177e-07
-1.30306e-08
2.78901e-06
4.38613e-06
-1.79574e-06
-2.34964e-07
-7.56066e-07
-8.92692e-07
-7.94793e-08
-3.9976e-07
7.53672e-07
-0.00114396
1.77536e-06
1.68957e-07
-0.00114555
-3.0534e-06
-7.98923e-07
6.92427e-07
1.91223e-07
-9.32606e-07
2.17121e-07
-2.5048e-07
8.58639e-07
-1.0985e-06
-0.000270943
1.12324e-07
6.03594e-07
1.98386e-06
7.06773e-06
-2.28611e-06
-8.57216e-07
-1.34763e-06
-6.07802e-07
2.92741e-07
-6.54422e-08
1.06576e-06
-0.00114449
2.50964e-06
-4.87617e-07
-7.25411e-06
-6.78921e-08
1.4853e-06
9.36993e-07
-1.20805e-06
1.03941e-07
-4.08811e-07
6.04712e-07
-0.00113038
-1.33422e-06
-0.00114562
1.95455e-07
-1.33984e-06
5.54131e-08
-3.85034e-07
-6.35949e-07
5.0355e-07
4.61964e-08
1.15025e-06
1.48283e-06
6.85439e-07
-0.00114285
-4.19846e-07
-1.09998e-06
4.7584e-07
-5.07029e-08
-1.02967e-06
3.35063e-08
-3.90646e-07
7.15351e-07
-1.8265e-06
-0.000268696
5.98905e-07
1.09645e-06
-2.2286e-06
-3.86452e-06
-6.43318e-07
8.40158e-07
3.54344e-07
-9.12324e-07
4.10064e-07
-1.18377e-07
9.10362e-07
-0.00113039
7.91167e-07
-1.66968e-07
-0.0011436
2.33631e-06
-1.61965e-06
-2.09041e-07
-6.69849e-07
-7.41532e-07
3.73434e-07
-7.22743e-08
1.02594e-06
-0.000270042
-1.09297e-07
4.56163e-07
3.22197e-06
3.42434e-06
-0.00119623
-0.00119591
-1.87601e-06
-2.61625e-07
-2.7087e-06
-7.30669e-07
-0.00118071
-0.00119548
2.94286e-07
3.52668e-07
3.7515e-07
-3.28055e-07
-9.74273e-05
2.26493e-07
-1.71654e-07
-9.73134e-05
-4.7062e-07
4.69728e-07
-0.000276911
4.86845e-07
4.38981e-08
1.15976e-07
-0.00027669
1.67369e-07
1.40712e-07
-1.5928e-07
6.91065e-08
-4.35125e-08
0.000228556
-0.000228563
2.07682e-07
-0.00019259
-4.25317e-07
-1.56413e-07
-1.13983e-07
-0.000228533
3.14292e-08
2.61468e-07
-7.37121e-08
5.3671e-08
1.53793e-07
0.000228503
-0.000228496
-9.54731e-08
1.95316e-08
-0.000191959
6.13606e-09
-4.54242e-10
3.5577e-08
-8.53667e-08
0.000191834
-0.000191784
-1.17536e-07
-0.000228515
4.81567e-08
-8.58663e-08
5.33489e-07
-4.94164e-07
-6.37736e-08
0.000250487
-0.000250622
1.48821e-07
-0.000244559
-3.06593e-07
-0.00116579
4.2771e-06
8.4583e-07
-9.18729e-07
8.49411e-07
-7.13861e-07
9.71455e-07
3.55802e-06
-3.32383e-07
1.16796e-06
-6.05694e-07
-7.50085e-07
9.86136e-07
-0.00116583
-3.9869e-06
1.9745e-07
-0.000250426
-9.5514e-08
-2.8157e-07
4.73855e-07
8.09304e-08
0.000250431
-0.000250526
-2.74095e-06
-8.37374e-07
-3.72924e-07
8.53888e-07
-2.46174e-07
-9.36775e-07
2.19858e-07
1.76445e-06
1.88108e-07
7.09848e-07
-0.00114415
1.1612e-07
-1.57679e-07
-0.000244574
-1.38883e-07
-0.00116525
4.60034e-07
-9.83575e-07
7.9966e-07
-7.88189e-07
9.79803e-07
1.38927e-07
-2.5628e-07
9.76946e-08
0.000244454
-0.000244435
-1.68943e-07
1.00236e-06
-7.53976e-07
-9.69741e-07
8.49362e-07
-0.00116439
-0.000250467
2.05757e-07
-2.39253e-07
-3.0279e-08
-9.68708e-05
1.06368e-08
9.67979e-05
-9.6773e-05
1.14809e-06
0.000270681
-1.86951e-07
9.2197e-08
-0.000272572
-7.63134e-08
-0.000276064
1.02717e-07
6.04663e-08
1.63328e-07
-2.3461e-07
-0.000275967
-2.16254e-08
9.18104e-08
-2.54639e-09
0.000275932
-0.000275872
1.31739e-07
2.4496e-07
-1.85874e-07
-2.00688e-07
0.000275921
-0.000275911
8.27845e-09
-9.67384e-05
1.23522e-07
9.66815e-05
-9.66733e-05
9.97534e-08
-0.000192348
-1.77161e-07
-1.36322e-08
1.24644e-07
-0.000228191
-9.82436e-08
-2.23282e-08
-1.25232e-07
-0.000244291
3.60417e-07
7.58173e-06
1.15057e-06
-8.73409e-07
8.23958e-07
-7.53275e-07
1.03504e-06
-0.00116392
9.70535e-07
-0.000249898
-8.87448e-07
-2.09703e-07
-1.11692e-07
-3.065e-07
-0.000191322
3.67364e-07
1.0285e-07
-0.000228066
-2.85185e-08
1.15949e-08
1.02034e-06
-1.25963e-06
5.53595e-07
-1.03519e-06
7.15537e-07
-0.00115707
-1.99043e-07
5.21955e-09
-0.000244695
-1.66694e-07
-0.000249814
3.89666e-08
8.44117e-07
-1.89277e-08
1.0523e-07
-1.25505e-07
1.6444e-07
0.000250088
-0.000250213
-8.36345e-07
-9.92259e-07
1.29196e-06
-1.89392e-07
2.44055e-07
1.06714e-06
-2.57239e-08
-7.35975e-07
4.47736e-07
-0.00114475
1.59885e-07
-3.46397e-07
-0.000244455
2.63168e-07
-0.00116476
4.30523e-08
-4.11463e-07
-8.59396e-07
8.85032e-07
-7.22924e-07
1.11254e-06
9.95232e-08
2.3008e-07
-8.19908e-08
0.000244363
-0.000244366
-8.77937e-07
-2.41265e-07
1.04399e-06
-7.8986e-07
-9.39512e-07
8.24451e-07
-0.00116461
1.13669e-07
3.10672e-07
-0.000250125
-3.16833e-07
-2.60948e-07
1.95451e-07
-2.01543e-07
-1.22958e-09
0.000228242
-0.000228254
-0.000191812
8.19682e-08
1.90599e-07
0.000191685
-0.000191652
2.63766e-07
-0.000228264
-2.33456e-07
5.13438e-08
-5.74373e-08
2.00816e-07
9.84907e-08
0.000250054
-0.00025019
4.43111e-07
-1.26784e-06
1.02754e-07
7.77391e-07
-3.21319e-07
-9.66774e-07
1.02159e-07
1.31447e-06
-2.14155e-07
3.14436e-07
-0.00114313
-0.00116438
1.04252e-07
-1.03224e-06
7.58252e-07
-8.33131e-07
9.11681e-07
-7.79879e-08
2.81935e-07
6.20502e-08
-0.000244103
-2.9461e-07
-7.8291e-08
9.24138e-07
-8.36817e-07
-1.02226e-06
7.56974e-07
-0.00116456
-1.1714e-07
1.48829e-07
-1.26596e-07
1.9144e-07
0.00024418
-0.000244277
4.62595e-08
-0.000250056
-1.6004e-07
2.9269e-07
-1.9698e-08
1.78397e-07
0.00022821
-0.000228231
1.69433e-07
-0.000191653
-2.57123e-07
1.53287e-07
-2.26363e-07
0.000191693
-0.000191737
-0.000228211
3.11613e-08
2.59652e-07
-3.16411e-07
-9.63635e-05
-1.39014e-07
-0.000276301
-3.05746e-07
3.33058e-07
4.60953e-07
-3.10179e-07
-0.000276281
-3.93721e-07
3.24244e-07
-9.62918e-05
-6.25534e-07
-3.24959e-07
5.24865e-07
5.82775e-07
0.000249474
-0.000249632
-0.00115617
-3.27643e-06
-2.06758e-09
-1.12444e-06
6.49776e-07
-9.63041e-07
8.64856e-07
1.67472e-07
-1.79312e-07
-0.000244643
2.15297e-07
-1.43345e-06
1.47523e-06
6.31152e-07
-1.13389e-06
-1.33736e-06
4.62827e-07
-0.00115701
2.17816e-06
-4.75551e-07
-8.86172e-08
-0.000249551
-1.68936e-09
3.36544e-07
-2.11749e-07
3.7282e-07
-5.98827e-07
0.000249621
-0.000249809
9.61136e-07
-1.39893e-06
6.70015e-07
9.28474e-07
-1.66753e-07
-8.52896e-07
2.98936e-07
9.97719e-07
-4.81348e-07
-5.56677e-08
-0.0011445
-0.00116243
2.57732e-07
-9.67722e-07
7.48799e-07
-8.55541e-07
9.88366e-07
2.01885e-08
-1.87728e-07
-2.03756e-07
-0.000243876
3.43664e-07
1.28243e-06
8.56883e-07
-9.96766e-07
-1.10371e-06
6.01162e-07
-0.00116354
2.26136e-08
-3.97621e-07
5.05458e-07
4.75282e-09
0.000243996
-0.000244131
-3.24191e-08
-0.000249605
-1.08124e-07
-5.01637e-07
-2.99017e-07
1.58666e-07
-1.37022e-07
0.000227836
-0.000227883
-0.000191278
4.29009e-07
1.48785e-09
-0.000227869
-1.45015e-07
-1.47957e-08
-3.45198e-07
-1.09863e-07
0.000227915
-0.00022797
5.51963e-08
-0.000191466
-6.21883e-08
-1.11697e-07
2.04654e-07
0.000191522
-0.000191593
-0.000227919
-6.98805e-08
-1.35314e-08
0.00027022
-3.65727e-07
-1.85923e-07
-0.000272335
-1.25241e-07
1.4686e-07
-0.000275638
2.25789e-07
-2.11759e-08
-1.23152e-07
-0.000275386
-3.94677e-08
-1.65546e-07
2.20617e-07
1.7812e-07
0.000275699
-0.000275784
6.81378e-08
-2.23238e-07
-9.68119e-08
0.00027555
-0.000275695
-9.6723e-05
9.66903e-05
-9.67025e-05
-9.65731e-05
9.65829e-05
-9.66265e-05
3.81797e-07
-3.34261e-07
-9.74748e-05
1.77797e-07
-1.1323e-07
-9.7378e-05
-3.83043e-07
-1.4401e-08
0.000220352
-3.09746e-08
5.67857e-07
-0.000220492
-0.000249441
6.09243e-08
6.40316e-07
-1.87619e-08
4.85896e-07
3.73543e-07
-3.98148e-07
-0.000276991
-0.000182327
4.11134e-07
1.91344e-07
1.97497e-07
-0.000182422
5.12619e-07
1.3782e-07
-0.000249732
-8.23882e-08
6.15662e-07
-1.38406e-07
5.22427e-07
0.00022026
-3.71293e-07
1.09607e-07
-0.000220382
-0.000249225
-3.97184e-07
-9.61993e-08
6.95807e-07
8.66827e-08
5.01704e-08
1.71093e-07
-0.00027682
-0.000182202
1.65812e-07
7.66491e-08
2.68651e-08
-0.000182281
2.14926e-08
8.30777e-07
-0.000249504
-2.79155e-07
8.82322e-08
-2.51181e-07
-7.72806e-08
0.000212143
-0.000212217
-7.99897e-05
2.31933e-07
-7.99606e-05
1.10004e-07
-8.00434e-05
-8.00111e-05
-0.000142253
-1.1679e-07
-3.4703e-08
0.000142262
1.42177e-07
8.54552e-08
0.000169778
-2.97433e-08
-0.000169765
3.14079e-08
0.000222372
-1.62509e-07
-0.000222383
9.82756e-08
8.39751e-08
5.81854e-08
0.00022858
4.8783e-08
-2.14914e-07
-0.000142256
1.2036e-07
0.000169809
-6.31931e-08
0.00022239
-1.804e-07
1.85474e-07
1.67292e-07
7.86303e-05
-1.57307e-07
-7.86403e-05
-4.1053e-07
1.82019e-07
-0.000192696
-0.00026171
-1.59129e-07
-3.33283e-07
7.87541e-08
-2.6389e-07
4.74251e-08
-0.000261737
-1.63256e-07
-1.45356e-07
3.02482e-08
0.00014222
2.8012e-08
1.62188e-07
-5.37129e-08
-8.94989e-08
-0.000169785
1.62658e-07
-1.19286e-07
-0.000222337
-3.17211e-08
-1.60594e-08
-9.40394e-08
-1.78595e-08
-0.00014217
3.97485e-08
-7.80419e-08
-7.77017e-09
0.000142216
-1.03246e-08
0.000169752
-0.000169718
4.71679e-08
0.00022229
1.22929e-07
-2.27022e-08
-0.000222283
7.85688e-08
8.18292e-08
0.000228543
-1.52051e-07
9.62898e-09
-0.000142143
0.000169808
7.96996e-08
0.000222338
-1.2391e-07
-1.82469e-08
7.84561e-05
-7.84632e-05
2.53609e-08
-3.09155e-08
-0.000191921
2.15597e-08
-2.84686e-08
-0.000261333
5.50752e-08
3.15045e-08
-1.11211e-07
-0.000261343
-2.34889e-08
-1.55153e-08
4.15757e-08
-7.84386e-05
-3.23571e-08
-8.68218e-09
0.000261279
2.63923e-08
-0.000261259
-5.7639e-08
3.80125e-08
-6.77238e-08
-7.84377e-05
-7.3849e-08
6.5085e-08
-4.76732e-08
0.000142224
3.30618e-08
-1.25671e-09
-5.70263e-08
-0.000169812
-8.8672e-08
-0.000222311
6.93071e-08
-1.35192e-07
-4.51208e-08
-9.68484e-05
-8.50695e-10
-1.24753e-08
-0.000211819
2.71535e-09
9.17379e-08
-1.65019e-07
4.44121e-08
0.000211846
1.28828e-08
7.95542e-05
-5.04771e-08
-7.95166e-05
-9.44522e-08
7.95403e-05
6.2061e-08
-7.95079e-05
-1.46386e-07
6.80114e-08
-0.000211823
-6.22003e-08
7.96191e-05
3.00645e-08
7.96019e-05
-1.48883e-07
7.60591e-09
0.000220829
-0.000220879
1.2915e-07
6.24842e-08
-0.000250524
1.68903e-07
-4.43885e-08
-2.33571e-07
-1.46719e-08
9.38097e-08
-0.000276027
-1.16941e-07
-0.000181196
-4.38392e-08
5.27743e-08
-0.000250559
8.0691e-08
-2.09741e-07
-0.000181145
4.99277e-08
1.36465e-07
-5.4202e-09
1.24647e-07
2.12557e-07
0.000220863
-0.000220928
-5.40496e-08
-2.17457e-07
-0.000250586
-1.6436e-07
-3.7488e-07
2.84353e-07
-9.97885e-08
-2.01334e-07
-0.000275962
7.66614e-08
2.19288e-07
-0.000181149
-1.34126e-07
2.55247e-08
-0.000181111
-1.33562e-08
-0.000250634
-2.45384e-07
3.04959e-07
-1.51257e-08
-2.77106e-07
-2.10048e-07
-0.000220852
4.05334e-08
-2.30013e-08
-1.13334e-08
0.000181052
-0.000180999
0.000250455
1.78744e-07
-2.59802e-07
5.11553e-08
-0.000250427
-6.31642e-08
1.14836e-07
-1.58674e-07
-3.06176e-07
-7.14535e-08
3.60245e-08
-0.000220867
-0.000220909
1.73726e-07
1.57954e-07
-3.0683e-07
-1.49297e-07
0.000181038
-0.000181012
-1.76967e-07
0.000250556
-2.22652e-07
1.90755e-07
-0.000250548
-1.30569e-07
-2.62346e-07
1.32237e-07
2.20389e-07
-2.22722e-07
-0.000220944
-3.85683e-07
2.03394e-07
-5.06348e-11
6.21743e-08
0.000211858
-7.9669e-05
-2.37093e-08
-7.96508e-05
-5.07207e-08
-9.67243e-05
6.25666e-08
8.94331e-08
6.81935e-08
7.85179e-05
-4.20101e-08
-7.85441e-05
-6.11456e-08
5.17952e-08
-0.000192452
-0.000261506
-1.04035e-07
4.82103e-09
-3.60898e-08
1.55064e-07
-8.3622e-08
-0.000261571
-9.60027e-08
5.41929e-08
-6.07321e-08
0.000142015
-0.000142051
-2.85443e-07
-3.99841e-08
3.25137e-07
3.31445e-08
-0.000228224
-0.000222096
-5.74593e-08
-3.06444e-08
-0.000169472
1.37613e-07
-1.43464e-07
-3.23165e-08
-0.00022214
-5.91414e-08
-0.000169513
-8.89194e-08
7.8169e-05
1.23288e-07
-7.82033e-05
2.58836e-07
-2.84694e-07
5.13236e-08
-0.000191348
-0.000260895
1.77091e-07
1.41909e-07
5.91769e-08
1.16578e-09
2.37269e-07
-0.000260964
1.68846e-07
1.10366e-07
2.97588e-08
0.000141715
-0.000141732
-6.65226e-08
1.98438e-07
2.00621e-07
-0.000228074
-0.000169364
-1.83587e-07
-0.000221901
3.57883e-08
9.02319e-08
-0.000169379
2.42792e-07
-0.000221914
-0.000141984
-6.30531e-08
1.09624e-07
-7.98648e-08
0.000142017
2.70709e-08
0.000222065
-1.92247e-07
-2.77403e-08
-0.000222073
-1.13789e-07
0.000169519
1.27465e-07
-0.000169534
-2.27192e-07
3.84574e-08
0.000228279
2.33172e-07
-8.06857e-08
-8.76927e-08
-0.000141983
-1.96881e-07
0.000222113
-1.42181e-07
0.000169539
1.27456e-07
-5.48424e-08
7.83587e-05
-7.83679e-05
6.40792e-08
1.30374e-07
-0.00019177
-1.10197e-07
-0.00026114
5.9313e-08
1.67539e-07
-1.95476e-07
-0.000261141
1.91082e-07
-1.13618e-07
4.15601e-08
-7.83505e-05
-9.7294e-08
7.83843e-08
0.000261087
-7.81235e-08
-0.000261089
1.7182e-07
-1.67124e-07
-7.83598e-05
-1.77174e-07
-3.93767e-08
9.34348e-08
0.000142027
-2.38725e-07
1.40416e-08
2.56671e-07
-1.77578e-08
-0.000222104
6.87727e-08
-1.802e-07
-0.000169529
-7.09834e-08
9.81969e-08
-7.81512e-08
1.17864e-07
-0.000141962
-1.32954e-07
1.18775e-08
1.14677e-07
0.000141969
1.28275e-07
0.000169491
-0.000169512
-4.29874e-08
0.000221988
1.63657e-07
8.76132e-08
-0.000222018
1.82396e-08
2.18966e-07
0.000228236
-3.00281e-08
1.04075e-07
-0.000141981
0.000169504
2.04013e-07
0.000222009
5.50797e-09
1.27361e-07
7.82909e-05
-7.82998e-05
-1.18454e-07
-2.68868e-07
-0.000191691
1.72259e-07
1.34656e-07
-0.000260848
-8.94818e-08
-2.42631e-07
6.05888e-08
-0.000260898
-2.28954e-07
1.37058e-07
-1.12956e-07
-7.82873e-05
1.02202e-07
-1.23436e-07
0.000260899
1.19307e-07
-0.000260958
-2.5289e-07
1.77998e-07
7.67087e-08
-7.83067e-05
5.52578e-08
-1.31506e-07
3.62506e-08
0.000141946
-6.91796e-09
2.45684e-07
4.24437e-08
-0.000169483
1.17381e-07
-0.000221971
-8.4968e-10
4.88788e-09
9.11078e-08
-2.29176e-07
-9.6419e-05
-2.52774e-07
4.12836e-08
0.000222098
1.01819e-07
-4.21148e-08
-0.000221947
-0.000251283
1.92713e-07
-1.98339e-07
-6.13131e-07
1.75112e-08
-2.76131e-07
1.08501e-07
-0.00027638
-0.000180682
-1.54388e-07
-9.46343e-08
1.81558e-08
-6.76238e-07
-0.00025086
-1.03289e-07
-0.000180814
1.07555e-07
-1.64552e-07
1.50444e-07
1.16213e-07
0.000222165
-8.39119e-08
-3.34773e-07
-0.000222013
-0.000251368
-1.33928e-07
-5.41672e-07
-1.0525e-07
-4.48236e-07
-1.67361e-07
2.97233e-07
4.34992e-07
-0.000276398
-0.000180724
-2.39151e-07
-1.00194e-07
-1.54523e-07
-0.000180868
-3.21755e-07
-1.52206e-07
-0.000250945
-2.51047e-08
-4.3785e-07
8.0296e-08
1.30007e-07
0.000212149
-0.000212342
-7.91013e-05
-1.31561e-07
-7.90989e-05
-1.37779e-07
-7.91242e-05
-7.91234e-05
3.5753e-07
-9.63521e-05
-0.000141563
4.58519e-08
1.13032e-07
-1.47935e-07
0.000141552
-1.09437e-07
0.00022172
3.53441e-07
-0.000221762
-4.32643e-08
-6.97571e-08
0.000169147
2.11058e-09
-0.000169216
5.77821e-08
-8.45969e-08
0.00022787
-2.11107e-07
2.0358e-07
-0.000141622
-1.20666e-07
-1.31079e-07
0.000221753
2.01268e-07
0.000169123
5.27414e-08
-1.33653e-07
7.81151e-05
-7.81472e-05
1.6576e-07
4.05502e-07
-2.65213e-08
-0.0001913
-0.000260788
1.87996e-07
2.77548e-07
-4.13239e-08
-0.000260862
2.13349e-07
1.32077e-07
1.74461e-07
-1.23673e-07
-7.81714e-05
1.50462e-07
-0.000260904
-3.635e-07
3.1936e-08
1.47501e-07
0.000141539
-4.66751e-08
-7.97916e-08
-1.07878e-07
2.35026e-07
-0.000221742
4.02457e-08
3.16431e-08
-0.00016909
-1.75912e-07
1.42184e-07
2.09198e-07
1.00752e-07
-0.000141799
3.62982e-08
-1.84303e-08
-1.08402e-08
0.000141792
-7.00927e-08
0.00022179
-3.10176e-07
9.09963e-08
-0.000221846
-3.52496e-08
0.000169257
-0.000169329
-2.70834e-07
-6.50001e-08
0.000227936
1.03308e-07
-5.65103e-08
-0.000141847
-2.38928e-07
0.000221798
-4.18562e-09
0.000169226
5.93903e-08
7.81579e-05
-7.81849e-05
-3.24249e-08
3.02387e-08
-0.000191506
-1.92655e-09
1.13889e-08
-0.000260645
-5.73286e-08
5.20996e-08
-4.88114e-08
-0.000260719
1.52766e-07
1.09445e-08
-7.50423e-08
-7.81939e-05
-1.79118e-09
4.16468e-09
0.000260769
-4.09646e-09
-0.000260875
1.24655e-07
-4.98229e-08
-5.83374e-08
-7.82463e-05
-6.55188e-08
6.39632e-08
-7.46625e-08
0.00014177
-1.7708e-07
-6.97387e-08
1.55619e-07
-0.000221769
-2.30266e-08
-2.62203e-08
-0.000169183
1.22303e-07
6.9318e-08
-0.000211695
-9.01382e-08
8.43656e-08
-1.72834e-07
1.75408e-07
0.000211698
1.14192e-07
7.95676e-05
-1.167e-07
-7.95651e-05
-8.71768e-08
7.95429e-05
8.69543e-08
-7.95426e-05
-1.41126e-07
2.11997e-07
-0.000211739
-1.1984e-07
7.95973e-05
5.53028e-08
7.95719e-05
-1.95114e-07
-1.57233e-07
0.000220511
-0.000220581
1.5706e-07
2.65347e-07
-0.000250021
2.57537e-07
2.0029e-07
-3.01012e-07
2.10285e-07
2.3361e-07
-0.000275682
-1.6453e-07
-2.35429e-07
-0.000181035
1.05982e-07
8.13534e-08
-0.000250125
3.04775e-07
-1.84987e-07
-0.000181052
9.36275e-08
1.71197e-07
1.90419e-07
3.36914e-07
6.07951e-08
0.000220402
-0.000220478
-1.73715e-07
-1.47839e-07
-0.000249783
-2.62109e-07
-2.6825e-07
4.21132e-07
-8.13961e-08
-1.14683e-07
-0.000275473
-7.61183e-09
2.91277e-07
-0.000180928
-8.15649e-08
-3.5974e-09
-0.000249915
-1.12994e-07
4.99835e-07
-0.000180941
-4.14354e-08
-1.1481e-07
-2.30052e-07
-0.000220613
-1.95308e-07
-1.26863e-07
1.80855e-07
1.5371e-07
0.00018105
-0.0001811
1.14979e-07
0.000250141
-6.05959e-08
2.25696e-07
-0.000250243
1.44615e-07
2.49089e-07
-1.52973e-07
-2.23492e-07
2.25623e-07
-0.000220711
-1.81799e-07
1.4675e-07
-0.000220517
3.2027e-07
9.8447e-08
-2.04108e-07
-7.59029e-08
0.000180946
-0.000181006
-3.55832e-07
0.00024995
4.64568e-07
-6.7251e-08
-0.000250089
-1.44596e-07
-1.58718e-07
4.9528e-08
3.30229e-07
-1.12714e-07
-0.000220624
4.44781e-07
-2.3352e-07
-7.92388e-08
5.68355e-08
0.000211704
-7.96117e-05
4.01667e-08
-7.95873e-05
-4.74031e-08
-9.67153e-05
-9.65827e-05
3.00677e-07
7.97307e-07
0.000241295
-0.000241716
-8.56246e-07
-4.2179e-07
-0.000271941
-0.000260263
-1.81344e-07
-0.000260443
-6.18833e-07
-0.000261062
-0.000261394
-2.1824e-07
2.17007e-07
0.000243161
-0.000243315
-3.06927e-07
1.27486e-07
-0.000272903
-0.000262778
4.15999e-07
-0.000262325
-4.3776e-08
-0.000263031
-0.000262611
-6.5352e-07
-1.98393e-07
0.000244074
-0.000243599
8.73387e-08
5.46557e-07
-0.000270041
-0.000262094
8.74096e-07
-0.000261669
4.03228e-07
-0.000261705
-0.000261288
-9.30799e-08
4.20253e-07
0.00024246
-0.00024267
-5.17746e-07
-7.29124e-08
-0.000272171
-0.000261532
3.41711e-07
-0.000261824
-2.44647e-07
-0.000261889
-0.00026226
-0.00121689
9.2217e-07
2.49914e-06
1.73501e-06
2.6767e-06
-0.00121704
-8.30054e-07
1.54033e-06
-0.00121583
-2.09561e-06
0.0012374
1.16216e-06
-1.5371e-06
-0.00123639
-1.47128e-06
1.34496e-06
4.35775e-07
-1.352e-06
-1.05609e-06
-0.00119487
-0.00121681
2.05322e-07
-0.00121801
-8.74638e-07
-3.93189e-07
-8.41457e-07
-0.00121595
-7.92729e-07
-1.24943e-06
-0.00121727
0.00123778
-1.34209e-06
-0.00123691
-1.40636e-07
1.00401e-06
-0.00121162
-0.00121241
-1.89012e-07
-3.25969e-07
1.75333e-06
1.15415e-06
-0.00121268
-1.16517e-06
0.00123603
1.28574e-06
-0.00123532
-1.77776e-06
7.78087e-07
1.20566e-06
-6.96878e-07
-0.00119521
-0.00121734
-3.77949e-07
-0.00121733
3.53353e-07
-7.86662e-07
-0.00121668
1.56744e-06
-0.00121716
0.0012376
-0.00123687
-0.00026716
4.25802e-07
8.22507e-07
0.000267828
-7.48275e-07
-1.03884e-07
0.000249621
-0.000249821
-3.5299e-07
-8.09749e-07
0.000267506
7.73977e-07
-0.000268139
-3.95989e-07
-3.9906e-07
0.000250607
4.59946e-07
-0.000268035
-7.88478e-07
0.000249699
-2.28667e-07
0.000268118
7.97111e-07
-4.12917e-07
-5.08614e-08
0.00026457
6.27185e-07
-0.000265626
-0.000259993
2.48723e-07
1.70009e-07
-1.82604e-07
-0.000244763
-0.000250219
-1.39621e-07
-7.94257e-08
-0.000260497
8.55883e-08
-0.00025049
4.63509e-07
-5.6312e-08
7.45954e-07
0.000266847
-2.60651e-07
7.1548e-09
3.45356e-07
-0.00024945
-2.24669e-07
-0.00026741
-6.23353e-07
6.44703e-07
7.47764e-07
-0.000266929
2.44969e-07
-6.92703e-07
5.72409e-07
0.000267807
1.5786e-07
0.000249568
3.75847e-07
-0.00024965
6.68061e-07
0.000267369
-0.000267936
4.19347e-07
-2.76146e-07
0.000250596
5.59905e-07
-0.000267633
3.38238e-07
0.00024977
0.000268047
-1.54694e-07
3.66227e-07
0.000265187
-0.000265809
-5.21829e-07
-0.000261015
-3.25917e-07
-1.8788e-07
6.15638e-08
-0.000244593
-0.000250401
-2.18397e-07
-1.75975e-07
-0.000250494
-2.65159e-07
-0.000261048
-4.59028e-07
-0.000264986
1.76114e-07
4.27424e-07
2.02379e-07
0.000250295
-0.000250352
-4.21694e-07
0.00026083
-0.000260817
-2.41789e-07
-1.23753e-07
-0.000265582
-1.34327e-07
-6.50878e-07
0.000267087
3.25406e-07
9.24711e-08
-0.000249651
-2.53773e-07
-0.000267448
5.73259e-07
-4.4401e-07
-0.000243149
-5.22878e-08
2.29517e-07
6.05021e-07
0.000262607
2.20041e-07
-0.000262775
-1.11859e-07
0.000262199
-0.000262407
-0.000243227
-1.17015e-06
1.59328e-07
0.000264259
1.46679e-06
-0.000265322
-0.000259784
1.07506e-06
-8.21659e-08
5.2019e-07
-0.000244506
-0.000249975
-3.64728e-07
6.91918e-07
-0.000260271
8.64376e-07
-0.000250244
1.39477e-06
-1.59808e-08
1.59237e-06
0.000266328
-0.000267311
-1.05429e-06
1.13674e-07
1.13785e-06
-0.000250063
-0.000249083
-2.90075e-07
-0.000266667
-1.58056e-06
1.67167e-06
-0.000249321
1.67189e-06
-0.000267386
-5.89282e-07
1.15576e-06
0.000264165
-1.47162e-06
-0.000264468
-0.000260604
-1.10385e-06
-3.33127e-07
3.40178e-07
-0.000244543
-0.000250163
1.38884e-07
-5.78807e-07
-7.64438e-07
-0.000250084
-0.000260194
-1.43817e-06
-1.60905e-06
-5.16804e-07
0.00026591
-0.000266515
3.99591e-07
1.02335e-06
-0.000249899
-0.000266406
1.61276e-06
-0.000249092
6.83443e-08
-0.000266979
-0.000249107
-0.000266682
2.905e-07
5.42514e-08
-9.91756e-08
0.00026748
1.38265e-07
0.000249302
-1.79512e-07
-0.000249414
3.3412e-08
0.000267022
-2.80528e-08
-0.000267652
-1.9901e-07
-2.13066e-07
0.000250239
1.80435e-07
-2.61554e-08
-0.000267423
-2.3361e-07
0.000249485
0.000267638
4.9741e-08
-2.58094e-07
3.0382e-08
0.000264998
-0.000265635
2.28674e-07
-0.000260925
3.06439e-07
-1.43432e-07
2.76904e-07
-0.000244479
-0.000250232
-4.1172e-07
3.14314e-07
-0.000260975
-0.000250328
2.90236e-07
2.94828e-07
-0.000264862
-1.55617e-07
3.50381e-07
5.48211e-08
0.000250138
-0.000250221
8.72532e-08
0.000260793
-0.000260797
-3.1358e-07
2.50703e-07
-0.000265482
-6.23368e-08
1.62961e-07
0.000266749
-2.65937e-07
1.10175e-07
2.51932e-07
-0.000249369
-3.52298e-07
-0.00026703
-2.57386e-07
2.43405e-07
1.57261e-07
-0.000266566
-6.39824e-08
1.38873e-07
9.26469e-08
0.000267322
-1.0347e-08
0.000266996
-0.000267649
2.36724e-07
0.000249179
1.05334e-07
-0.000249335
-1.48548e-07
1.68962e-07
0.000250184
2.01549e-08
-0.000267382
0.00026759
1.74774e-07
0.000249318
-2.92761e-07
1.77788e-07
0.000264565
-0.000265308
-1.72335e-07
-0.000260372
-2.64319e-07
-2.40212e-07
2.3955e-07
-0.000244204
-0.000249905
-4.38447e-08
-2.92669e-07
-0.000250067
-2.33482e-07
-0.000260531
-2.53929e-07
-0.000264637
7.42947e-08
1.24728e-07
2.52496e-07
0.00024996
-0.000250115
-4.42384e-08
0.000260458
-0.000260604
-1.97419e-07
2.74691e-08
-0.000265375
-1.50056e-07
-2.46458e-07
0.000266514
1.88711e-07
2.33227e-07
-0.000266953
2.35245e-07
-0.000249162
-1.30672e-07
-0.000265418
-7.94608e-07
-1.54999e-07
7.67819e-07
0.00026623
7.01243e-07
0.000266056
-6.3739e-07
-0.000266729
5.99795e-07
0.000248662
-0.000248751
4.25893e-07
1.42171e-07
5.38917e-07
0.000249614
-6.17032e-07
-0.000266135
6.8088e-07
0.000266614
-7.47465e-07
3.51975e-07
0.000248895
5.28469e-07
-3.93212e-07
0.000263995
-0.000264316
-7.26966e-07
-0.000260531
-4.69226e-07
1.43798e-07
1.13556e-07
-0.000244491
-0.000250053
-7.45746e-08
-1.06385e-07
-0.000260129
-0.000249971
-2.28968e-07
-7.06842e-07
-1.79205e-07
-5.88777e-07
-0.000263378
5.98273e-07
-0.00024966
1.22321e-08
-8.22146e-07
-4.3293e-07
0.000265634
4.10985e-07
4.4913e-07
-5.61933e-07
-0.000266045
8.2269e-07
-8.38404e-07
-0.000248891
-4.50087e-08
-8.05653e-07
-0.000266254
6.59947e-07
1.48378e-07
-6.05513e-07
0.000266908
-5.55286e-07
0.000266456
-0.000267162
2.65075e-07
0.000248907
-5.70068e-07
-0.00024911
-1.04417e-08
-6.04519e-07
0.000249722
-5.3942e-07
-0.000267108
0.000266959
-5.66695e-07
0.000249013
-8.47015e-08
-5.78951e-07
0.000264318
-0.00026509
6.94113e-07
-0.000260183
5.66274e-07
4.35335e-07
-1.52228e-08
-0.000243993
-0.000249697
-2.74914e-07
4.60146e-07
-0.000249875
5.39008e-07
-0.00026035
6.87804e-07
-0.000264483
2.44976e-07
-5.29534e-07
1.28267e-07
0.000249785
-0.000249982
4.73046e-07
0.000260338
-0.000260508
4.76979e-07
-2.02039e-07
-0.000265274
7.32482e-07
-1.93754e-07
0.000266095
2.83804e-07
-5.72896e-07
-0.000266314
-7.65319e-07
-0.000248855
-2.14674e-07
-0.000242622
-2.461e-07
1.74943e-07
1.76668e-08
3.441e-07
-1.17738e-08
0.000261656
-0.000261998
-3.13116e-07
0.00026203
-0.000262451
-0.000242834
-8.44813e-07
-8.45433e-07
-0.00114621
4.4728e-07
4.5316e-07
0.001147
-0.00113705
-1.51083e-06
8.45635e-07
4.15827e-07
0.00113755
-4.97419e-07
1.12539e-06
1.2541e-07
7.23657e-07
-5.35541e-07
-1.23934e-06
5.32737e-08
-0.00113669
-1.50538e-06
8.45672e-07
4.15812e-07
0.00113719
-4.94607e-07
1.11961e-06
1.22738e-07
7.2373e-07
-5.37976e-07
-1.23864e-06
5.6154e-08
-0.000276417
1.54023e-06
1.50546e-06
-4.92211e-07
-4.97922e-07
0.000274362
-1.1614e-06
-1.12086e-06
0.000276434
-0.000274337
8.88666e-08
9.64493e-08
0.00113622
8.50127e-07
-0.00113572
4.20015e-07
-1.55036e-06
1.30556e-07
-5.05937e-07
-1.24577e-06
4.85556e-08
-5.36715e-07
7.24948e-07
1.16747e-06
0.00113668
8.49927e-07
-0.00113618
4.19659e-07
-1.5557e-06
1.33615e-07
-5.07984e-07
-1.25176e-06
5.40574e-08
-5.42667e-07
7.30385e-07
-1.12399e-06
0.000276462
-0.000274359
9.19918e-08
9.70084e-08
0.00113734
8.51209e-07
-0.00113683
4.19086e-07
-1.51016e-06
1.24814e-07
-5.0051e-07
-1.24858e-06
5.43536e-08
-5.42308e-07
7.25122e-07
1.15892e-06
0.00113634
8.55118e-07
-0.00113584
4.19465e-07
-1.54762e-06
1.30572e-07
-5.05745e-07
-1.24557e-06
5.42705e-08
-5.42131e-07
7.24967e-07
8.56519e-07
-0.00113655
4.18153e-07
-1.51244e-06
1.25401e-07
-4.99555e-07
-1.24604e-06
5.1044e-08
7.21704e-07
-5.39937e-07
1.15317e-06
0.00113613
8.56193e-07
-0.00113563
4.20097e-07
-1.54218e-06
1.24637e-07
-5.00685e-07
-1.24598e-06
5.1545e-08
-5.42127e-07
7.24962e-07
-1.11825e-06
0.000276409
-0.00027432
9.16937e-08
9.67263e-08
8.50531e-07
-0.0011362
4.28677e-07
-1.50692e-06
1.22373e-07
-4.9703e-07
-1.24264e-06
5.44725e-08
7.22174e-07
-5.42065e-07
1.11543e-06
0.00113724
8.51402e-07
-0.00113674
4.24615e-07
-1.51015e-06
1.2199e-07
-5.00682e-07
-1.24051e-06
5.16614e-08
-5.39479e-07
7.19657e-07
-0.000274337
9.12521e-08
9.65527e-08
1.5486e-06
1.50827e-06
-4.89683e-07
-4.97919e-07
0.000274365
-1.157e-06
-1.14138e-06
-0.000274431
1.3438e-07
7.07818e-08
0.000276525
4.17277e-07
0.00113671
-5.02997e-07
1.16297e-06
1.31212e-07
7.26478e-07
-5.32676e-07
-1.24155e-06
5.0189e-08
-1.55427e-06
8.44535e-07
4.1744e-07
0.00113718
-5.06043e-07
1.1686e-06
1.33407e-07
7.32461e-07
-5.3826e-07
-1.24756e-06
5.62794e-08
7.95723e-07
-0.00113767
4.16062e-07
-1.54476e-06
1.22365e-07
-5.00156e-07
-1.23402e-06
2.82615e-08
-5.39491e-07
7.22878e-07
0.00113825
1.1738e-06
8.30332e-07
-0.00113812
4.11235e-07
-1.54773e-06
1.38206e-07
-4.95299e-07
-1.23241e-06
6.02028e-08
-5.26331e-07
7.33671e-07
0.00113857
-4.92454e-07
-4.9739e-07
0.000274387
-1.13004e-06
-0.000274445
1.0119e-07
1.06361e-07
0.000276541
4.21005e-07
0.00113783
-4.97462e-07
1.1225e-06
1.25617e-07
7.29455e-07
-5.38251e-07
-1.24167e-06
5.60663e-08
-1.54586e-06
8.45204e-07
4.17587e-07
0.00113683
-5.02978e-07
1.16043e-06
1.31139e-07
7.26345e-07
-5.38179e-07
-1.24184e-06
5.60109e-08
8.40935e-07
-0.00113875
4.42682e-07
-1.49056e-06
1.45579e-07
-4.74945e-07
-1.22072e-06
9.13413e-08
-5.09911e-07
7.36598e-07
0.00113905
1.16523e-06
8.29292e-07
-0.00113778
4.05716e-07
-1.53963e-06
1.35175e-07
-4.92749e-07
-1.22892e-06
6.03085e-08
-5.25874e-07
7.31168e-07
0.00113824
8.4506e-07
4.17476e-07
0.00113662
-4.9698e-07
1.15493e-06
1.2617e-07
7.26387e-07
-5.35371e-07
5.27944e-08
-1.24161e-06
8.29888e-07
-0.00113849
4.10677e-07
-1.50475e-06
1.29741e-07
-4.87134e-07
-1.22606e-06
5.75759e-08
-5.23231e-07
7.28459e-07
0.00113895
1.16008e-06
8.28604e-07
-0.00113757
4.10208e-07
-1.53393e-06
1.3123e-07
-4.86761e-07
-1.22541e-06
5.74965e-08
-5.22674e-07
7.28816e-07
0.00113802
-4.92597e-07
-4.97441e-07
0.000274348
-1.12443e-06
-0.000274406
9.8519e-08
1.06219e-07
0.000276491
8.46129e-07
4.21787e-07
0.00113773
-4.94221e-07
1.11996e-06
1.23509e-07
7.21067e-07
-5.35544e-07
5.28417e-08
-1.2362e-06
8.29887e-07
-0.00113813
4.10068e-07
-1.49904e-06
1.26899e-07
-4.84181e-07
-1.22592e-06
6.05395e-08
-5.25701e-07
7.28282e-07
0.00113859
1.12521e-06
8.29051e-07
-0.00113868
4.0879e-07
-1.499e-06
1.28673e-07
-4.83877e-07
-1.22278e-06
5.76735e-08
-5.22799e-07
7.26386e-07
0.00113913
-0.00027442
1.01478e-07
1.06759e-07
0.000276497
-0.00114541
4.49487e-07
4.50052e-07
0.00114621
-0.00114541
4.49523e-07
4.49472e-07
0.00114582
-0.00114503
4.49415e-07
4.72013e-07
0.00114602
-0.00114523
4.49897e-07
4.67115e-07
-4.05786e-10
9.5017e-08
0.000235791
-0.000235856
-2.22648e-08
-7.53474e-09
-0.000196882
-2.09153e-09
1.09376e-07
-8.62619e-09
0.000196784
-0.000236194
-8.92486e-11
2.10675e-07
0.000236057
-6.6195e-08
-7.6441e-09
9.13916e-09
3.20534e-08
0.000196609
-3.5675e-09
-0.000196647
-9.89298e-05
2.17065e-09
4.27369e-08
9.88849e-05
-8.46189e-09
1.69812e-08
9.8823e-05
-9.88315e-05
9.26604e-08
-2.02383e-10
0.000235822
-0.000235883
-7.50208e-09
-2.44793e-08
-0.000196911
-2.18105e-09
1.07467e-07
-8.72729e-09
0.000196815
-0.000236223
2.1086e-07
2.12703e-10
0.000236084
-8.23327e-09
-6.4163e-08
8.99814e-09
3.38503e-08
0.000196639
-3.15098e-09
-0.000196679
4.47267e-07
4.47248e-07
0.00114701
4.47613e-07
4.47948e-07
0.00114661
4.47737e-07
4.47854e-07
0.00114682
-0.00114856
4.40167e-07
4.69205e-07
0.00114929
-0.00114859
4.40504e-07
4.41453e-07
0.00114937
-0.00114818
4.34935e-07
4.41272e-07
0.00114897
-0.0011484
4.3991e-07
4.4043e-07
0.00114917
-9.4558e-08
-1.47592e-09
0.000260026
-0.000259915
-1.93372e-08
4.19322e-09
-0.000252841
-3.97851e-08
-1.09032e-07
3.19565e-07
4.09613e-08
0.00025263
0.00113905
-0.00113837
3.14337e-09
8.96042e-07
7.8771e-07
-1.18721e-06
-1.35592e-06
5.89018e-07
4.13462e-07
1.12727e-06
0.00113803
8.39876e-07