/*--------------------------------*- C++ -*----------------------------------*\
| =========                 |                                                 |
| \\      /  F ield         | OpenFOAM: The Open Source CFD Toolbox           |
|  \\    /   O peration     | Version:  v1906                                 |
|   \\  /    A nd           | Web:      www.OpenFOAM.com                      |
|    \\/     M anipulation  |                                                 |
\*---------------------------------------------------------------------------*/
FoamFile
{
    version     2.0;
    format      ascii;
    class       surfaceScalarField;
    location    "1000";
    object      phi;
}
// * * * * * * * * * * * * * * * * * * * * * * * * * * * * * * * * * * * * * //

dimensions      [0 3 -1 0 0 0 0];
oriented        oriented;


internalField   nonuniform List<scalar> 
123680
(
7.45072e-07
-1.53497e-06
-0.0011865
2.5519e-06
-6.27309e-07
0.00118537
-0.00114347
-9.93664e-07
-2.28872e-06
-1.39868e-06
0.00114539
-3.0944e-08
1.48518e-06
4.27092e-07
1.09022e-06
6.89974e-09
-6.99685e-07
4.74653e-07
-0.00113911
-1.66154e-06
7.84055e-07
3.13361e-06
0.00113724
-6.69675e-07
7.81792e-07
-1.80044e-07
7.94798e-07
-2.97475e-07
-9.16594e-07
1.00126e-07
-0.000272317
1.29981e-06
6.07808e-07
2.02211e-07
-2.85727e-07
0.000270493
7.92908e-07
9.39883e-07
-0.00118579
-1.20473e-06
-1.85397e-06
0.00118712
-0.00114668
-1.44146e-06
1.15174e-06
1.40016e-06
0.00114486
-4.48876e-07
1.04636e-06
6.4793e-08
9.24186e-07
-2.33373e-07
-7.93914e-07
1.54109e-07
-0.00113354
-1.02494e-06
1.42764e-06
-1.05106e-06
0.00113357
3.81593e-08
1.45386e-06
5.53006e-07
5.08984e-07
-5.81542e-07
-1.21897e-06
-1.38137e-07
-0.00027258
1.41087e-06
1.64282e-06
-5.09524e-07
-2.64373e-07
0.0002703
-1.1215e-06
1.43195e-06
-0.00119195
-2.63702e-06
1.13929e-06
0.00119314
-0.00113673
-1.19328e-06
2.20209e-06
2.85484e-07
0.00113492
-1.81431e-07
1.23904e-06
2.61977e-07
6.66612e-07
-4.13049e-07
-1.08089e-06
2.83541e-08
-0.00113757
-7.21452e-07
-7.6588e-07
-3.39874e-06
0.00113952
1.97048e-07
1.68696e-06
6.19282e-07
9.73102e-07
-1.02512e-07
-8.18569e-07
3.76697e-07
-0.000270653
9.80432e-07
1.63111e-06
-4.82096e-07
-9.19162e-09
0.000268533
-7.3995e-07
-6.19701e-07
-0.00119326
5.16914e-07
1.82173e-06
0.00119228
-0.00113387
-1.30802e-06
-5.43093e-07
1.87312e-08
0.00113453
-3.35166e-07
1.12549e-06
1.25039e-07
9.29899e-07
-1.41254e-07
-8.05798e-07
2.81399e-07
-0.00114341
-1.46965e-06
-1.06693e-06
1.11871e-06
0.00114329
-5.38134e-07
9.57877e-07
-7.33761e-08
1.18347e-06
7.00948e-08
-5.64558e-07
4.98512e-07
-0.000270398
1.32424e-06
1.05147e-06
-9.79019e-08
-3.28543e-07
0.000268449
2.32482e-07
-1.24656e-06
-0.00118956
1.65491e-06
-3.35124e-07
0.00118925
-0.00113716
-1.20444e-06
-6.19502e-07
-2.75878e-07
0.00113793
-1.92417e-07
1.26007e-06
2.89957e-07
8.5869e-07
-2.18812e-07
-8.72579e-07
2.05195e-07
-0.00113905
-1.44606e-06
9.47964e-07
1.95078e-06
0.00113743
-4.08931e-07
1.02418e-06
8.32856e-08
7.36143e-07
-3.51148e-07
-9.71023e-07
5.43006e-08
-0.00027099
1.41436e-06
9.39346e-07
-3.88496e-08
-3.5178e-07
0.000269027
4.78281e-07
1.82911e-07
-0.00118972
3.59919e-08
-1.10384e-06
0.00119013
-0.0011394
-1.09728e-06
1.68134e-07
-5.84439e-07
0.00113951
-1.12384e-07
1.35419e-06
3.45923e-07
8.22574e-07
-2.6073e-07
-9.23036e-07
1.74149e-07
-0.00113523
-1.03123e-06
5.61007e-07
-8.7849e-07
0.00113531
-2.97387e-08
1.40467e-06
4.21271e-07
7.28456e-07
-3.42722e-07
-1.02253e-06
1.07981e-07
-0.000271058
1.26543e-06
1.30994e-06
-2.96969e-07
-2.09101e-07
0.000268989
1.99607e-07
6.94288e-07
-0.00119162
-8.79476e-07
-4.20983e-07
0.00119203
-0.00113854
-1.27146e-06
4.16517e-07
4.04505e-07
0.00113786
-3.03665e-07
1.16096e-06
1.48778e-07
9.04967e-07
-1.90206e-07
-8.36236e-07
2.4129e-07
-0.00113615
-1.20299e-06
-1.66447e-08
-2.61073e-07
0.00113626
-2.54932e-07
1.20478e-06
1.88618e-07
9.30821e-07
-1.59992e-07
-8.08722e-07
2.7444e-07
-0.000270653
1.17155e-06
1.31521e-06
-2.86302e-07
-1.62715e-07
0.000268615
-7.33667e-07
-5.96155e-07
-0.00119238
6.38715e-07
1.08263e-06
0.00119199
-0.00113578
-1.31862e-06
3.06828e-08
5.62438e-07
0.00113536
-3.09485e-07
1.12913e-06
1.5965e-07
9.07729e-07
-1.7214e-07
-8.17835e-07
2.48205e-07
-0.00113574
-1.32065e-06
-1.41137e-07
5.60517e-07
0.00113549
-3.17579e-07
1.11798e-06
1.53687e-07
9.15366e-07
-1.65865e-07
-8.08927e-07
2.58147e-07
-0.000270574
1.20974e-06
1.16409e-06
-1.66169e-07
-1.95103e-07
0.000268562
-1.07269e-07
-1.09762e-07
-0.00118982
3.23969e-07
4.78664e-07
0.00118923
-0.00113516
-1.15894e-06
-1.52989e-07
-2.25129e-07
0.00113527
-1.6588e-07
1.28265e-06
2.95352e-07
8.67323e-07
-2.0666e-07
-8.56776e-07
2.12099e-07
-0.00113528
-1.14287e-06
-1.70612e-07
-2.5502e-07
0.00113538
-1.55108e-07
1.29046e-06
3.07061e-07
8.70812e-07
-2.06368e-07
-8.55594e-07
2.20084e-07
-0.000270543
1.24859e-06
1.18702e-06
-1.9216e-07
-2.16564e-07
0.000268516
2.58864e-07
2.4052e-07
-0.00118862
-2.90366e-07
-3.06955e-07
0.00118871
-0.00113557
-1.1546e-06
3.84226e-08
-2.75464e-07
0.00113563
-1.75284e-07
1.27396e-06
2.74803e-07
8.53921e-07
-2.19834e-07
-8.75527e-07
2.05127e-07
-0.00113565
-1.15591e-06
3.16171e-08
-2.29236e-07
0.00113566
-1.83574e-07
1.26234e-06
2.67221e-07
8.63224e-07
-2.14682e-07
-8.65949e-07
2.14861e-07
-0.000270455
1.25158e-06
1.2108e-06
-2.18752e-07
-2.28222e-07
0.00026844
2.55212e-08
-3.31037e-08
-0.00118933
-5.01231e-08
-1.39883e-07
0.00118953
-0.00113561
-1.23777e-06
5.70286e-08
7.82919e-08
0.00113554
-2.53516e-07
1.19411e-06
2.02425e-07
8.72037e-07
-2.03282e-07
-8.54297e-07
2.1717e-07
-0.00113541
-1.23902e-06
1.03104e-07
1.47671e-07
0.00113526
-2.57964e-07
1.18317e-06
1.98946e-07
8.6857e-07
-2.09576e-07
-8.57327e-07
2.16341e-07
-0.000270422
1.25463e-06
1.20497e-06
-2.13024e-07
-2.29312e-07
0.000268405
-9.37926e-08
-1.05359e-07
-0.00118991
1.10276e-07
5.16402e-08
0.00118995
-0.00113511
-1.22136e-06
1.1107e-07
7.07396e-08
0.00113493
-2.2899e-07
1.21415e-06
2.29122e-07
8.65293e-07
-2.09421e-07
-8.59397e-07
2.11318e-07
-0.00113467
-1.2154e-06
1.31308e-07
7.01094e-08
0.00113448
-2.28567e-07
1.20865e-06
2.29163e-07
8.62861e-07
-2.14316e-07
-8.61495e-07
2.11665e-07
-0.000270329
1.23793e-06
1.20858e-06
-2.11216e-07
-2.10955e-07
0.000268305
-9.88705e-09
6.52481e-10
-0.00118967
1.05567e-07
1.07514e-07
0.00118947
-0.00113454
-1.20101e-06
-8.41197e-08
-1.73355e-08
0.0011345
-2.1647e-07
1.22741e-06
2.36049e-07
8.87533e-07
-1.83664e-07
-8.34919e-07
2.34656e-07
-0.00113413
-1.19513e-06
-8.79489e-08
-2.33157e-08
0.00113409
-2.15885e-07
1.22209e-06
2.36557e-07
8.87404e-07
-1.8634e-07
-8.34742e-07
2.37358e-07
-0.000270244
1.22088e-06
1.19121e-06
-1.99614e-07
-2.01489e-07
0.000268233
6.37593e-08
6.39604e-08
-0.00118883
1.77526e-08
1.59189e-08
0.00118867
-0.0011344
-1.19799e-06
-1.02729e-07
6.03858e-09
0.00113435
-2.12322e-07
1.23002e-06
2.40947e-07
8.83437e-07
-1.87486e-07
-8.35713e-07
2.2838e-07
-0.001134
-1.19272e-06
-1.00722e-07
6.6319e-09
0.00113395
-2.12577e-07
1.22405e-06
2.40589e-07
8.82962e-07
-1.90322e-07
-8.35704e-07
2.30711e-07
-0.000270242
1.22274e-06
1.18871e-06
-1.99225e-07
-2.04353e-07
0.000268234
8.89329e-08
9.06693e-08
-0.00118838
-6.00761e-08
-5.70816e-08
0.00118832
-0.00113413
-1.18887e-06
-3.1029e-08
-5.56962e-08
0.00113405
-2.04329e-07
1.23626e-06
2.4612e-07
8.7966e-07
-1.90237e-07
-8.39705e-07
2.26099e-07
-0.00113373
-1.18287e-06
-3.05883e-08
-5.89117e-08
0.00113366
-2.03628e-07
1.2312e-06
2.46922e-07
8.78568e-07
-1.93656e-07
-8.40431e-07
2.27992e-07
-0.000270211
1.22734e-06
1.19327e-06
-2.00177e-07
-2.05209e-07
0.000268196
6.42889e-08
7.29443e-08
-0.0011881
-2.70898e-08
-1.60646e-08
0.00118801
-0.00113382
-1.19611e-06
-5.90019e-08
-1.77481e-08
0.00113374
-2.11231e-07
1.22766e-06
2.39006e-07
8.82694e-07
-1.85744e-07
-8.34601e-07
2.29123e-07
-0.00113345
-1.18915e-06
-6.70194e-08
-2.97954e-08
0.00113339
-2.10178e-07
1.22338e-06
2.39805e-07
8.836e-07
-1.8733e-07
-8.33624e-07
2.32996e-07
-0.000270155
1.22135e-06
1.18948e-06
-1.98547e-07
-2.02108e-07
0.000268145
7.45322e-08
7.36177e-08
-0.00118767
-1.55875e-08
-1.00408e-08
0.00118754
-0.00113357
-1.19156e-06
-1.01251e-07
-4.02116e-08
0.00113353
-2.07898e-07
1.23091e-06
2.41211e-07
8.86472e-07
-1.80957e-07
-8.30098e-07
2.33093e-07
-0.00113323
-1.18706e-06
-1.01027e-07
-3.14575e-08
0.00113318
-2.08811e-07
1.22447e-06
2.40508e-07
8.86534e-07
-1.8346e-07
-8.29548e-07
2.35741e-07
-0.00027013
1.22231e-06
1.18575e-06
-1.96054e-07
-2.03202e-07
0.000268121
9.96088e-08
9.4335e-08
-0.0011872
-4.35525e-08
-5.3649e-08
0.00118711
-0.00113341
-1.19129e-06
-8.80423e-08
-2.92801e-08
0.00113336
-2.07747e-07
1.22984e-06
2.4076e-07
8.83697e-07
-1.83269e-07
-8.31281e-07
2.29696e-07
-0.00113303
-1.18601e-06
-8.39389e-08
-2.83358e-08
0.00113298
-2.07953e-07
1.224e-06
2.4047e-07
8.82955e-07
-1.86307e-07
-8.31798e-07
2.3202e-07
-0.000270106
1.22138e-06
1.18661e-06
-1.9749e-07
-2.02951e-07
0.000268099
9.91196e-08
1.02727e-07
-0.00118685
-5.92223e-08
-5.46544e-08
0.00118676
-0.00113318
-1.19028e-06
-8.1761e-08
-3.39903e-08
0.00113313
-2.06804e-07
1.22946e-06
2.40597e-07
8.82532e-07
-1.8324e-07
-8.32023e-07
2.29515e-07
-0.00113281
-1.18416e-06
-8.3639e-08
-3.75772e-08
0.00113276
-2.06036e-07
1.22461e-06
2.41455e-07
8.82071e-07
-1.86236e-07
-8.32146e-07
2.31858e-07
-0.000270092
1.21703e-06
1.18352e-06
-1.95202e-07
-1.99857e-07
0.000268087
8.21185e-08
8.56993e-08
-0.00118645
-2.63635e-08
-2.24215e-08
0.00118633
-0.00113301
-1.1909e-06
-1.227e-07
-3.5003e-08
0.00113298
-2.07908e-07
1.22802e-06
2.39151e-07
8.87008e-07
-1.78134e-07
-8.26692e-07
2.33752e-07
-0.00113265
-1.18537e-06
-1.25484e-07
-3.67033e-08
0.00113263
-2.08255e-07
1.22237e-06
2.38682e-07
8.87727e-07
-1.79878e-07
-8.25781e-07
2.3735e-07
-0.000270085
1.21853e-06
1.1851e-06
-1.96116e-07
-2.00791e-07
0.000268078
1.14349e-07
1.09486e-07
-0.00118598
-6.19826e-08
-6.61135e-08
0.00118589
-0.00113289
-1.18626e-06
-9.1766e-08
-4.4199e-08
0.00113284
-2.03316e-07
1.23198e-06
2.43352e-07
8.82855e-07
-1.82279e-07
-8.29505e-07
2.28682e-07
-0.00113252
-1.18123e-06
-8.86784e-08
-3.90899e-08
0.00113247
-2.03389e-07
1.22615e-06
2.43488e-07
8.81958e-07
-1.85688e-07
-8.29979e-07
2.30581e-07
-0.000270065
1.21884e-06
1.18265e-06
-1.94784e-07
-2.01501e-07
0.000268059
1.19619e-07
1.22886e-07
-0.00118566
-8.04412e-08
-8.02684e-08
0.00118557
-0.00113267
-1.18756e-06
-1.01321e-07
-4.21848e-08
0.00113263
-2.05177e-07
1.22865e-06
2.39762e-07
8.84174e-07
-1.795e-07
-8.28278e-07
2.31629e-07
-0.0011323
-1.18159e-06
-1.03018e-07
-4.65035e-08
0.00113226
-2.05046e-07
1.22345e-06
2.39749e-07
8.84431e-07
-1.81649e-07
-8.27788e-07
2.34844e-07
-0.000270062
1.214e-06
1.1814e-06
-1.93876e-07
-1.9773e-07
0.000268058
9.97415e-08
9.87245e-08
-0.00118525
-3.8085e-08
-3.76012e-08
0.00118513
-0.00113257
-1.1879e-06
-1.39428e-07
-4.20358e-08
0.00113255
-2.05478e-07
1.22871e-06
2.40306e-07
8.87894e-07
-1.75986e-07
-8.2345e-07
2.33923e-07
-0.00113221
-1.18292e-06
-1.3794e-07
-3.8112e-08
0.00113219
-2.05709e-07
1.2227e-06
2.40167e-07
8.87351e-07
-1.79053e-07
-8.2353e-07
2.36066e-07
-0.000270059
1.21664e-06
1.18141e-06
-1.94178e-07
-2.00262e-07
0.000268056
1.30229e-07
1.31333e-07
-0.00118481
-8.67239e-08
-8.71915e-08
0.00118472
-0.00113246
-1.18418e-06
-1.03855e-07
-4.73985e-08
0.00113242
-2.02063e-07
1.2311e-06
2.42398e-07
8.83489e-07
-1.7969e-07
-8.27456e-07
2.30184e-07
-0.00113209
-1.17804e-06
-1.05434e-07
-5.14277e-08
0.00113205
-2.01612e-07
1.22614e-06
2.42746e-07
8.83651e-07
-1.82019e-07
-8.27185e-07
2.33272e-07
-0.000270058
1.21417e-06
1.18065e-06
-1.93469e-07
-1.98075e-07
0.000268055
1.1965e-07
1.20164e-07
-0.00118446
-7.36008e-08
-7.24626e-08
0.00118436
-0.00113231
-1.18629e-06
-1.2248e-07
-4.58705e-08
0.00113229
-2.04273e-07
1.22823e-06
2.39879e-07
8.85182e-07
-1.77463e-07
-8.25343e-07
2.31941e-07
-0.00113195
-1.18121e-06
-1.21925e-07
-4.3255e-08
0.00113193
-2.04631e-07
1.2223e-06
2.39577e-07
8.84934e-07
-1.80249e-07
-8.25201e-07
2.34411e-07
-0.000270061
1.21393e-06
1.17929e-06
-1.92889e-07
-1.98498e-07
0.000268059
1.27344e-07
1.26285e-07
-0.00118407
-7.52896e-08
-7.75875e-08
0.00118396
-0.00113223
-1.18432e-06
-1.3127e-07
-5.15665e-08
0.00113221
-2.0229e-07
1.2301e-06
2.41791e-07
8.8539e-07
-1.77125e-07
-8.24751e-07
2.31983e-07
-0.00113186
-1.17888e-06
-1.30054e-07
-5.11459e-08
0.00113185
-2.02363e-07
1.22449e-06
2.4172e-07
8.85013e-07
-1.7992e-07
-8.24845e-07
2.34513e-07
-0.00027007
1.2139e-06
1.17948e-06
-1.93071e-07
-1.98394e-07
0.000268068
-9.38948e-07
-1.56209e-06
0.000270248
-0.000268156
4.50294e-07
-4.07705e-08
0.00113277
1.58817e-08
-0.00113306
1.78784e-06
-1.57652e-06
-4.47004e-08
-5.25725e-07
-9.68479e-07
1.5815e-07
-2.76576e-07
7.77241e-07
1.7547e-06
0.00114326
-7.07712e-07
-0.00114128
-3.28026e-06
-7.67016e-07
6.44281e-07
1.98018e-07
-8.99367e-07
3.28366e-07
-1.68869e-07
9.17182e-07
-1.49243e-06
0.000273047
-0.000270733
4.17607e-07
5.15889e-07
0.0011346
1.96051e-06
-0.0011347
-1.69619e-06
-8.98108e-07
6.06484e-07
1.15643e-07
-1.28004e-06
-1.4487e-07
-6.01263e-07
4.73564e-07
1.0281e-06
0.00113893
1.70761e-06
-0.00114077
1.30039e-06
-1.44881e-06
-4.68968e-08
-4.89347e-07
-9.20678e-07
1.57448e-07
-2.69681e-07
8.26263e-07
-2.26617e-06
-0.0011413
-1.44075e-06
-9.90172e-07
4.65692e-07
3.85735e-09
-7.81213e-07
4.05596e-07
1.00755e-06
-6.43841e-08
1.27233e-06
0.00114035
-2.06319e-06
-0.00113882
-2.48389e-07
-1.23384e-06
2.10962e-07
-2.40915e-07
-7.3969e-07
4.64811e-07
9.94e-10
1.05073e-06
-7.76327e-07
0.000271208
-0.000269432
-3.30108e-08
6.10511e-08
2.37345e-07
-0.00114077
3.09088e-06
-1.65776e-06
-2.04889e-07
-6.7953e-07
-8.27407e-07
2.1864e-07
9.00691e-07
-1.92355e-07
1.91228e-06
0.00114214
-2.29588e-08
-0.0011404
-3.83657e-06
-5.42808e-07
8.65032e-07
4.0427e-07
-1.05844e-06
1.46663e-07
-3.404e-07
7.37802e-07
-0.000270042
7.03114e-07
2.05739e-07
1.49287e-06
8.06294e-07
2.20074e-08
-4.50845e-07
0.000268377
-1.49206e-06
-1.37822e-06
0.000271636
-0.000269441
2.55713e-07
4.18936e-07
1.20439e-06
0.00113324
-4.41728e-07
1.03524e-06
5.04523e-08
8.39001e-07
-2.22398e-07
-9.08656e-07
2.12192e-07
-9.30197e-07
-1.20404e-06
-2.42225e-06
0.001145
2.30077e-08
1.58606e-06
4.45623e-07
1.06482e-06
-2.47431e-08
-7.50967e-07
4.66283e-07
0.00113778
-1.22974e-06
-0.00113593
-1.51588e-06
-1.07565e-06
4.99474e-07
-1.67751e-08
-8.71939e-07
2.13988e-07
-2.13535e-07
8.67634e-07
7.53403e-07
0.00114558
-7.38451e-07
-0.00114647
2.4705e-06
-1.74697e-06
-3.31418e-07
-8.26956e-07
-5.33145e-07
5.12638e-07
9.31218e-08
1.23478e-06
-5.11751e-08
-1.81994e-08
0.000271192
-1.09252e-06
0.000272744
-0.000270992
2.02522e-07
-1.08797e-07
-2.45614e-06
0.00113514
1.77296e-07
1.63861e-06
6.50323e-07
5.45094e-07
-5.30098e-07
-1.21894e-06
-6.94355e-08
-1.60256e-06
1.79678e-06
2.11086e-06
0.00113688
-6.25442e-07
8.84357e-07
-1.56643e-07
7.85423e-07
-3.05519e-07
-9.45838e-07
1.0913e-07
0.0011389
-3.20717e-07
-0.00113746
-1.88958e-06
-1.02243e-06
3.30213e-07
-9.16076e-08
-8.74508e-07
3.06492e-07
-1.6961e-07
9.13208e-07
8.92407e-07
0.00113251
9.02526e-07
-0.00113342
2.02351e-06
-1.62596e-06
-6.2599e-08
-5.65685e-07
-1.01984e-06
3.93295e-08
-3.78599e-07
7.05673e-07
-2.41102e-06
3.11613e-08
0.00114191
-3.30289e-07
1.21167e-06
1.32745e-07
1.14428e-06
7.01665e-08
5.30627e-07
-6.37337e-07
-1.20925e-07
-0.0011473
7.56891e-07
-1.36413e-06
4.73257e-08
-4.39939e-07
-6.81483e-07
3.3114e-07
1.06463e-06
-7.20926e-08
1.07978e-06
0.00114431
-7.74948e-07
-0.00114411
8.62856e-07
-1.47379e-06
6.56153e-08
-4.64705e-07
-7.10842e-07
2.9777e-07
-9.99115e-08
1.02149e-06
-4.86412e-07
-4.64367e-07
0.000268895
-1.22283e-06
0.000269715
-0.000267768
2.39512e-07
-7.12867e-08
-9.57547e-08
-3.70182e-06
0.00114381
2.93513e-07
1.82382e-06
7.2743e-07
8.43631e-07
-2.45905e-07
2.45906e-07
-9.54672e-07
1.53804e-06
-0.00113423
4.25357e-07
-1.25487e-06
3.26154e-07
-1.95064e-07
-1.18543e-06
-1.44493e-07
5.26472e-07
-5.66939e-07
1.00919e-06
0.00114543
1.98775e-07
-0.0011457
3.52286e-07
-1.38457e-06
-7.07462e-08
-5.07917e-07
-7.11828e-07
3.83778e-07
-6.01748e-08
1.06285e-06
-0.000270709
4.2882e-08
1.75051e-07
9.30881e-07
1.19881e-06
-2.60224e-07
7.80508e-09
0.000269759
-1.67522e-06
-8.46016e-07
0.000272103
-0.000270126
-1.34198e-08
5.58115e-07
-2.3579e-06
0.00113964
1.10947e-07
1.64458e-06
6.36718e-07
8.32381e-07
-2.6152e-07
-9.1524e-07
1.74236e-07
-1.91959e-06
-4.26483e-08
3.75427e-06
0.00114356
-9.11514e-07
6.21988e-07
-3.73282e-07
1.13429e-06
-1.66822e-08
-5.96351e-07
3.69327e-07
0.00114237
8.02523e-07
-0.00114217
-2.38707e-06
-8.461e-07
5.95399e-07
1.37136e-07
-9.26978e-07
1.84882e-07
-2.73071e-07
8.43639e-07
9.84639e-07
0.00113567
1.28505e-06
-0.00113798
2.73877e-06
-1.59686e-06
3.81108e-08
-4.77213e-07
-1.01441e-06
2.55208e-08
-3.87859e-07
7.08911e-07
-2.85207e-07
-6.21648e-07
0.00027029
-1.23626e-06
0.000270176
-0.000268304
2.54155e-07
9.48422e-08
-9.85552e-07
0.00114027
-2.6954e-07
1.21115e-06
1.66817e-07
1.03441e-06
-5.03526e-08
-7.50923e-07
4.15894e-07
-1.50612e-06
3.08229e-07
1.2259e-06
0.00113237
-4.22958e-07
1.0278e-06
8.95351e-08
7.17674e-07
-3.59729e-07
-1.01404e-06
7.01679e-08
0.00114232
-1.70986e-06
-0.00114212
1.83454e-06
-1.60263e-06
-1.39785e-07
-6.26858e-07
-5.74389e-07
5.14834e-07
7.95504e-08
1.18068e-06
1.54307e-06
0.00113656
-1.64265e-06
-0.00113454
-1.74643e-06
-1.00435e-06
5.3473e-07
4.16502e-08
-8.44684e-07
3.20467e-07
-1.38442e-07
9.24741e-07
4.10725e-07
7.37303e-07
0.00114366
-3.46044e-07
1.17213e-06
2.03395e-07
8.73762e-07
-2.68773e-07
1.25529e-07
-8.46487e-07
2.71291e-06
-0.00113927
7.25709e-07
-1.22266e-06
2.74013e-07
-1.8767e-07
-1.11139e-06
-3.80916e-08
6.23975e-07
-4.72065e-07
1.53046e-06
0.00113819
2.64136e-06
-0.00114024
-6.1705e-07
-1.00135e-06
5.2463e-07
5.21231e-08
-1.13675e-06
-5.59641e-08
-4.97503e-07
6.07903e-07
-1.23277e-07
-4.6964e-07
0.000267777
-1.79443e-06
0.000271303
-0.000268992
5.88168e-07
4.3782e-07
3.58707e-07
1.98437e-06
0.00114422
-7.05912e-07
7.74576e-07
-2.32779e-07
1.06525e-06
-6.92426e-08
3.58608e-07
-6.86657e-07
-1.60425e-07
-0.00113575
-3.74611e-06
-6.29612e-07
7.64108e-07
3.2286e-07
-9.7255e-07
2.41154e-07
8.19588e-07
-2.49533e-07
7.19478e-07
0.00113805
2.18706e-07
-0.00114009
3.51933e-06
-1.7502e-06
-1.99669e-07
-6.97316e-07
-7.97199e-07
2.5977e-07
-1.61218e-07
9.26346e-07
-0.000268801
-8.35153e-08
4.81216e-07
9.77463e-07
1.63908e-06
-4.68443e-07
2.48369e-08
0.00026993
-1.07809e-06
-1.13377e-06
0.000270731
-0.000268857
2.48006e-07
9.02106e-08
-1.46641e-06
0.00114176
2.84773e-09
1.52474e-06
4.34232e-07
8.79727e-07
-2.36858e-07
-8.88876e-07
2.17098e-07
-1.3952e-06
1.16344e-06
1.42921e-06
0.00113419
-2.97604e-07
1.17069e-06
2.13308e-07
6.70765e-07
-4.13235e-07
-1.0676e-06
1.32585e-08
0.00113725
1.00934e-06
-0.00113889
1.17824e-06
-1.41447e-06
1.93198e-08
-4.29818e-07
-8.10837e-07
2.56827e-07
-1.70537e-07
9.24493e-07
1.48784e-06
0.00113399
4.07688e-07
-0.00113353
-1.33212e-06
-1.03444e-06
4.55323e-07
-1.42935e-08
-9.92963e-07
1.23041e-07
-3.19206e-07
7.66062e-07
-2.08668e-07
-2.89885e-07
0.000268086
-1.13555e-06
0.000270362
-0.000268248
1.25771e-07
3.83546e-07
2.36723e-06
0.00114194
-6.40279e-07
8.29041e-07
-1.38595e-07
1.14053e-06
3.6888e-08
-6.02107e-07
4.54661e-07
-9.22345e-07
-1.84811e-06
-2.25719e-06
0.00113882
8.45271e-08
1.61908e-06
5.74413e-07
9.88948e-07
-8.54672e-08
-7.84658e-07
3.71367e-07
0.00113862
1.32337e-07
-0.00113987
1.61061e-06
-1.35418e-06
1.77118e-07
-3.33061e-07
-8.64515e-07
1.5759e-07
-2.5581e-07
8.55516e-07
1.48057e-06
0.0011435
-9.20987e-07
-0.0011426
-1.40282e-06
-1.04209e-06
3.87088e-07
-8.1766e-08
-7.14498e-07
3.91803e-07
-5.67329e-08
1.05894e-06
2.44479e-06
-8.2844e-07
0.00113644
3.84296e-08
1.51618e-06
4.79887e-07
6.45651e-07
-4.4547e-07
-6.81645e-09
-1.1064e-06
-5.5001e-08
-0.00113361
-1.52769e-08
-1.28788e-06
1.30745e-07
-3.18345e-07
-8.4707e-07
2.63206e-07
8.97542e-07
-1.68767e-07
1.23178e-06
0.00113416
5.32937e-07
-0.00113442
-2.6708e-07
-1.23315e-06
1.83949e-07
-2.54734e-07
-8.6863e-07
2.42766e-07
-1.95125e-07
8.78792e-07
9.14896e-08
1.92104e-09
0.000269566
-1.12103e-06
0.000272559
-0.000270525
1.47747e-07
4.1992e-07
-1.71434e-08
2.91385e-06
0.00113652
-5.84078e-07
8.39543e-07
-9.31163e-08
8.91291e-07
-1.87999e-07
2.34132e-07
-8.33359e-07
-1.38308e-06
-0.00114269
-1.08372e-07
-1.29651e-06
5.46407e-08
-3.87815e-07
-5.61721e-07
5.42899e-07
1.20243e-06
9.5078e-08
1.28797e-06
0.00113544
-2.9229e-07
-0.00113529
9.199e-08
-1.17594e-06
3.28719e-07
-1.65168e-07
-9.16951e-07
1.51997e-07
-2.72692e-07
8.12132e-07
-0.000268355
3.1221e-07
1.6421e-07
1.50543e-06
1.22266e-06
-1.65958e-07
-4.12327e-07
0.000268581
-9.6291e-07
-1.41154e-06
0.000270371
-0.000268333
3.35952e-07
6.22827e-10
1.53461e-06
0.00113587
-5.03426e-07
9.8711e-07
-4.56101e-08
9.12661e-07
-1.69335e-07
-8.15274e-07
2.52213e-07
-1.02353e-06
2.25046e-07
-1.53152e-06
0.00113468
-1.65378e-08
1.48992e-06
4.46642e-07
8.02713e-07
-2.8782e-07
-9.53188e-07
1.51046e-07
0.00113435
-9.58165e-08
-0.00113443
1.34959e-06
-1.55415e-06
-2.59165e-08
-5.08002e-07
-8.74199e-07
1.95307e-07
-2.17989e-07
8.50369e-07
1.37117e-06
0.00113701
-7.16884e-08
-0.00113627
-1.01618e-06
-1.14391e-06
3.40534e-07
-1.30964e-07
-8.99163e-07
1.98524e-07
-2.38484e-07
8.50161e-07
-3.24067e-07
-7.51184e-08
0.000268429
-1.20785e-06
0.000271027
-0.000268929
2.10288e-07
2.71376e-07
7.97718e-07
0.00113754
-2.06801e-07
1.24967e-06
2.90268e-07
7.64679e-07
-3.38367e-07
-9.59047e-07
7.93759e-08
-1.17072e-06
-3.06164e-07
-4.77631e-07
0.00114346
-2.11777e-07
1.34306e-06
2.59354e-07
1.04727e-06
-7.93186e-08
-7.17318e-07
3.60335e-07
0.00113635
1.3049e-06
-0.00113644
-1.15468e-06
-1.02336e-06
4.35478e-07
-2.40272e-08
-1.08679e-06
-1.62469e-09
-4.30206e-07
6.56122e-07
1.10085e-06
0.00113893
1.34378e-06
-0.00114082
1.46308e-06
-1.42939e-06
8.95185e-08
-3.97607e-07
-9.09437e-07
1.18028e-07
-2.9418e-07
8.10171e-07
-4.85367e-08
3.48952e-08
0.00113432
-3.35362e-07
1.15089e-06
1.1534e-07
9.27756e-07
-1.46878e-07
2.8381e-07
-8.13499e-07
-7.65918e-07
-0.00113629
-1.335e-07
-1.25086e-06
2.35329e-07
-2.46244e-07
-8.41637e-07
2.30656e-07
8.86958e-07
-1.8973e-07
1.08254e-06
0.00113608
-9.18432e-07
-0.00113541
5.45344e-07
-1.4244e-06
7.55074e-08
-3.98311e-07
-7.79491e-07
3.06892e-07
-1.17428e-07
9.54943e-07
-3.65785e-07
-1.03539e-07
0.000270388
-9.24315e-07
0.000270829
-0.000269015
7.06366e-08
1.40932e-07
-1.33386e-07
-7.71734e-07
0.00113595
-4.59622e-08
1.4066e-06
4.39001e-07
7.84908e-07
-3.06016e-07
1.22332e-07
-9.46321e-07
6.21448e-07
-0.00114082
2.44052e-06
-1.55093e-06
-2.81572e-08
-5.20359e-07
-8.58112e-07
1.4915e-07
8.4538e-07
-2.53236e-07
1.53641e-06
0.00113809
4.87811e-07
-0.00113741
-2.00549e-06
-8.98467e-07
5.39471e-07
8.21525e-08
-9.79916e-07
1.20621e-07
-3.26037e-07
7.67239e-07
-0.000268904
4.37809e-07
9.5488e-08
1.49362e-06
1.024e-06
-1.15486e-07
-4.25145e-07
0.000268394
-1.3894e-06
-1.35894e-06
0.000270941
-0.000268822
2.87551e-07
3.4135e-07
1.04897e-06
0.00113454
-4.345e-07
1.03646e-06
6.20808e-08
8.18024e-07
-2.51813e-07
-9.03276e-07
1.59713e-07
-1.18286e-06
-1.30566e-07
-7.68425e-07
0.00113767
-1.63287e-07
1.33841e-06
3.11048e-07
8.55971e-07
-2.29031e-07
-8.94337e-07
2.0993e-07
0.00113615
-4.0415e-07
-0.00113546
-5.02701e-07
-1.1547e-06
4.02414e-07
-9.06142e-08
-9.61218e-07
1.49918e-07
-2.90482e-07
7.79848e-07
1.22246e-06
0.00113882
-3.35909e-07
-0.0011386
1.09252e-07
-1.29662e-06
1.82098e-07
-2.85755e-07
-8.45111e-07
2.79593e-07
-1.64057e-07
9.15419e-07
-2.16867e-07
-1.96785e-07
0.000269053
-1.36502e-06
0.000271382
-0.000269319
3.4e-07
1.84606e-07
-1.30285e-06
0.00113643
-2.52993e-08
1.40727e-06
4.33416e-07
6.68146e-07
-4.15304e-07
-1.07636e-06
1.60998e-08
-1.41674e-06
1.44695e-06
1.3909e-06
0.00113719
-3.75147e-07
1.10753e-06
1.10266e-07
7.39626e-07
-3.5057e-07
-9.81791e-07
6.4722e-08
0.00113727
3.01014e-07
-0.00113687
-1.02896e-06
-1.07298e-06
3.68809e-07
-8.26852e-08
-9.56899e-07
1.82859e-07
-2.73646e-07
8.00147e-07
1.208e-06
0.00113465
5.19235e-07
-0.00113503
3.72063e-07
-1.30377e-06
2.08089e-07
-2.63904e-07
-9.81658e-07
1.48917e-07
-2.99209e-07
7.69016e-07
-9.0012e-07
6.02279e-07
0.00113669
-3.82209e-07
1.09938e-06
9.65404e-08
9.37541e-07
-1.35525e-07
2.8842e-07
-7.96834e-07
-5.03066e-08
-0.00113907
-6.27103e-07
-1.09218e-06
3.67485e-07
-9.57853e-08
-9.25398e-07
1.7423e-07
8.18517e-07
-2.5941e-07
1.21131e-06
0.00113738
-2.08662e-07
-0.00113737
4.85239e-07
-1.31081e-06
2.0392e-07
-2.79871e-07
-8.90719e-07
1.80655e-07
-2.39449e-07
8.40351e-07
-3.45517e-07
-3.30022e-07
0.000268642
-1.3502e-06
0.000270401
-0.00026835
3.28154e-07
1.78544e-07
6.00433e-07
-1.80193e-06
0.00113857
3.62186e-08
1.48425e-06
4.76931e-07
7.84238e-07
-3.03045e-07
1.45473e-07
-9.65617e-07
7.98878e-07
-0.00113549
-3.65907e-07
-1.09897e-06
3.9427e-07
-7.38205e-08
-1.06745e-06
4.64848e-08
6.7382e-07
-3.96062e-07
1.18498e-06
0.00113852
4.93804e-07
-0.00113878
-6.62768e-08
-1.22898e-06
1.72582e-07
-2.69651e-07
-8.84653e-07
2.18663e-07
-2.19763e-07
8.59589e-07
-0.000269072
1.78824e-07
2.32061e-07
1.06262e-06
1.10613e-06
-1.65061e-07
-8.22366e-08
0.00026902
-1.40403e-06
-1.1576e-06
0.000271403
-0.000269371
1.84438e-07
3.44925e-07
-9.51596e-07
0.0011369
-2.36734e-08
1.46719e-06
4.4661e-07
8.24083e-07
-2.48191e-07
-9.28982e-07
1.97208e-07
-1.35011e-06
-3.70583e-07
4.69819e-07
0.00113884
-3.41372e-07
1.16986e-06
1.28818e-07
9.40348e-07
-1.44206e-07
-8.18052e-07
2.94804e-07
0.00113864
-3.655e-07
-0.00113826
-8.58476e-07
-1.09857e-06
3.31128e-07
-1.23027e-07
-7.95287e-07
3.06142e-07
-1.32988e-07
9.5765e-07
1.1296e-06
0.00113793
-1.85192e-07
-0.00113836
9.39575e-07
-1.40703e-06
1.0788e-07
-3.85042e-07
-8.0653e-07
2.61328e-07
-1.63224e-07
9.367e-07
-1.16752e-07
-2.88294e-07
0.00026934
-1.21886e-06
0.000271009
-0.000269058
2.32023e-07
1.65428e-07
-8.26924e-07
0.0011378
-1.36115e-07
1.31867e-06
3.08392e-07
8.88962e-07
-1.84195e-07
-8.76993e-07
2.7341e-07
-1.28642e-06
5.49404e-08
1.82715e-07
0.00113463
-2.64887e-07
1.21772e-06
2.01217e-07
8.38332e-07
-2.30035e-07
-9.18185e-07
2.20355e-07
0.00113929
-8.46925e-07
-0.00113892
9.64984e-08
-1.27554e-06
1.33446e-07
-3.2718e-07
-7.03599e-07
3.88582e-07
-4.27407e-08
1.04581e-06
1.2051e-06
0.00113557
-5.76174e-07
-0.00113522
1.30031e-07
-1.30513e-06
1.79918e-07
-3.03015e-07
-7.85276e-07
2.88345e-07
-1.35456e-07
9.52331e-07
7.1825e-08
3.51308e-07
0.00113719
-2.38704e-07
1.25386e-06
2.42089e-07
8.12327e-07
-2.70415e-07
1.5219e-07
-9.1937e-07
4.50784e-07
-0.00113906
9.65378e-08
-1.216e-06
1.98775e-07
-2.51788e-07
-8.63505e-07
2.23014e-07
8.82207e-07
-2.12351e-07
1.32601e-06
0.00113617
4.22974e-07
-0.0011365
-1.50534e-07
-1.17711e-06
3.02796e-07
-1.64268e-07
-9.25245e-07
1.58989e-07
-2.73466e-07
8.13821e-07
-9.27133e-08
-2.67106e-07
0.000268444
-1.28654e-06
0.000270769
-0.000268735
2.5676e-07
2.01685e-07
3.52404e-07
4.49096e-07
0.0011381
-3.45075e-07
1.10949e-06
1.04656e-07
8.80118e-07
-1.9954e-07
2.35158e-07
-8.5947e-07
6.64688e-08
-0.0011359
-6.82073e-07
-1.12068e-06
2.62361e-07
-1.75858e-07
-8.46384e-07
2.51718e-07
8.99036e-07
-1.88737e-07
1.08728e-06
0.00113684
-4.14963e-08
-0.00113718
7.68555e-07
-1.3532e-06
1.08512e-07
-3.63432e-07
-8.30178e-07
2.43166e-07
-1.8413e-07
9.00141e-07
-0.000268681
1.42516e-07
2.98824e-07
1.18354e-06
1.32862e-06
-2.78539e-07
-1.53623e-07
0.000269323
-1.15573e-06
-1.10309e-06
0.000270529
-0.000268642
1.87525e-07
1.8479e-07
-4.01847e-07
0.00113868
-2.11569e-07
1.31467e-06
2.46664e-07
9.76721e-07
-1.20177e-07
-7.69694e-07
3.09997e-07
-1.36943e-06
-7.24732e-09
7.73108e-07
0.00113742
-3.37502e-07
1.17339e-06
1.6349e-07
9.08604e-07
-1.94683e-07
-8.29079e-07
2.26893e-07
0.00113639
6.0581e-07
-0.00113748
7.84551e-07
-1.36037e-06
1.48126e-07
-3.33621e-07
-8.22548e-07
2.14971e-07
-1.99966e-07
8.96468e-07
1.37341e-06
0.00113576
6.37284e-07
-0.00113629
-3.24898e-07
-1.16309e-06
3.66759e-07
-1.20066e-07
-9.22646e-07
1.47662e-07
-2.84227e-07
8.17187e-07
-2.40837e-07
-2.70036e-07
0.000268879
-1.10153e-06
0.000270398
-0.00026841
1.49451e-07
3.37488e-07
4.61332e-07
0.00113939
-3.7537e-07
1.10663e-06
9.15746e-08
1.03807e-06
-5.84213e-08
-7.03095e-07
3.64055e-07
-1.29287e-06
-4.24817e-07
7.66938e-08
0.00113583
-2.8216e-07
1.22498e-06
2.09007e-07
9.31481e-07
-1.62285e-07
-7.9896e-07
2.56861e-07
0.00113743
3.68329e-07
-0.00113841
1.04113e-06
-1.35076e-06
1.40318e-07
-3.45311e-07
-8.36928e-07
2.00512e-07
-2.18181e-07
8.84464e-07
1.35939e-06
0.00113572
3.87169e-07
-0.0011359
-4.48631e-07
-1.16351e-06
3.56541e-07
-1.30425e-07
-9.02393e-07
1.63565e-07
-2.66841e-07
8.2994e-07
3.74377e-07
-2.84728e-07
0.00113592
-1.61093e-07
1.32734e-06
3.03148e-07
8.36961e-07
-2.50848e-07
1.82714e-07
-9.03433e-07
1.52684e-07
-0.00113639
7.22431e-07
-1.34255e-06
1.26301e-07
-3.39991e-07
-8.11977e-07
2.51892e-07
9.15007e-07
-1.69438e-07
1.30007e-06
0.00113559
9.99198e-08
-0.00113566
-3.85289e-07
-1.19635e-06
2.81186e-07
-1.82473e-07
-8.27747e-07
2.51519e-07
-1.77503e-07
9.08608e-07
-2.17516e-07
-2.45062e-07
0.000268735
-1.09161e-06
0.000270486
-0.000268509
1.43352e-07
3.31521e-07
-1.08512e-07
5.4928e-07
0.00113665
-3.21277e-07
1.12766e-06
1.52913e-07
8.95912e-07
-1.90405e-07
2.37701e-07
-8.33842e-07
-1.21125e-07
-0.001136
6.03722e-07
-1.33995e-06
1.20789e-07
-3.46421e-07
-7.93357e-07
2.71003e-07
9.31442e-07
-1.53747e-07
1.25053e-06
0.00113662
-1.29616e-07
-0.0011366
-1.32489e-07
-1.1896e-06
2.74459e-07
-1.94423e-07
-8.40659e-07
2.35823e-07
-1.97004e-07
8.93162e-07
-0.000268562
2.71926e-07
2.66373e-07
1.34873e-06
1.30261e-06
-2.399e-07
-2.69803e-07
0.000268387
-1.2622e-06
-1.2573e-06
0.000270142
-0.000268114
2.53751e-07
2.37648e-07
7.79872e-07
0.00113525
-3.08828e-07
1.17043e-06
1.71294e-07
8.54432e-07
-2.32133e-07
-8.64112e-07
1.82907e-07
-1.12426e-06
6.73687e-07
-5.85066e-07
0.00113533
-9.01491e-08
1.39949e-06
3.83185e-07
8.17098e-07
-2.783e-07
-9.27359e-07
1.57931e-07
0.00113334
3.24306e-07
-0.00113364
6.39824e-08
-1.24403e-06
2.55666e-07
-2.13402e-07
-9.01233e-07
1.78158e-07
-2.44117e-07
8.23871e-07
1.30226e-06
0.00113477
1.60135e-07
-0.00113486
-3.33862e-07
-1.19774e-06
2.66249e-07
-1.91561e-07
-8.55775e-07
2.41027e-07
-1.91505e-07
8.88139e-07
-2.85032e-07
-1.09992e-07
0.00026835
-1.25419e-06
0.000270432
-0.000268386
2.64236e-07
2.45546e-07
8.72555e-07
0.00113636
-2.89801e-07
1.14995e-06
1.90185e-07
8.34063e-07
-2.59567e-07
-8.9026e-07
1.61977e-07