/*--------------------------------*- C++ -*----------------------------------*\
| =========                 |                                                 |
| \\      /  F ield         | OpenFOAM: The Open Source CFD Toolbox           |
|  \\    /   O peration     | Version:  v1906                                 |
|   \\  /    A nd           | Web:      www.OpenFOAM.com                      |
|    \\/     M anipulation  |                                                 |
\*---------------------------------------------------------------------------*/
FoamFile
{
    version     2.0;
    format      ascii;
    class       volVectorField;
    location    "1000";
    object      U;
}
// * * * * * * * * * * * * * * * * * * * * * * * * * * * * * * * * * * * * * //

dimensions      [0 1 -1 0 0 0 0];


internalField   nonuniform List<vector> 
43248
(
(6.79192e-05 0.000292165 0.104607)
(0.000339865 0.000166458 0.108468)
(0.000226294 3.94257e-05 0.108856)
(0.000204711 1.02812e-05 0.105485)
(4.63772e-05 0.000593445 0.108389)
(9.57568e-06 0.000616388 0.107523)
(9.83177e-05 4.6077e-05 0.108804)
(-7.47112e-05 6.31742e-05 0.108571)
(-0.000218149 0.000432693 0.104681)
(-0.000332667 0.000132803 0.107474)
(-0.000196903 4.67339e-05 0.108506)
(-9.74072e-05 0.00013167 0.105094)
(0.000314319 0.000351943 0.113595)
(0.000150608 -1.06849e-05 0.11366)
(-9.58487e-05 0.000266953 0.112209)
(-4.96893e-05 -1.77175e-05 0.113593)
(-0.000133487 4.31982e-05 0.0711374)
(3.41232e-05 -7.51658e-05 0.0710476)
(-0.000157631 0.000182246 0.0871678)
(0.000109878 -2.94037e-05 0.0870967)
(4.71377e-05 -4.8644e-05 0.0910733)
(-0.000143003 5.30067e-05 0.0818199)
(-7.18114e-05 -2.39726e-05 0.0910962)
(6.12445e-05 -3.29187e-05 0.0910344)
(7.10466e-06 -2.41605e-05 0.0815697)
(2.13329e-05 -1.64549e-06 0.0814488)
(-4.63175e-05 -3.32577e-05 0.0910784)
(0.000207285 -7.77904e-05 0.0986772)
(-0.000169166 9.48526e-05 0.0927079)
(0.000457177 4.25071e-05 0.111172)
(0.00038339 -2.62088e-05 0.11122)
(6.87171e-05 -4.96735e-05 0.098706)
(0.000199891 -3.26891e-05 0.0986341)
(0.000221215 7.56151e-06 0.108726)
(4.55214e-05 -4.44717e-05 0.0927444)
(0.000344527 3.80379e-05 0.11117)
(6.77163e-05 -2.27774e-06 0.0926198)
(0.00028794 8.68754e-06 0.111088)
(8.35302e-05 -4.28963e-05 0.0987201)
(8.64033e-06 -5.20536e-06 0.0707587)
(1.11648e-05 8.0325e-06 0.0706386)
(8.71615e-05 2.08805e-05 0.105137)
(3.72524e-05 -2.50091e-05 0.0869368)
(5.60049e-05 2.00955e-05 0.0868709)
(3.57418e-05 -1.50348e-05 0.0868361)
(7.10189e-05 6.93713e-05 0.086809)
(-3.6859e-06 -5.14384e-06 0.0706611)
(1.11985e-05 4.5933e-05 0.0705538)
(4.82623e-05 -7.21236e-05 0.0817078)
(7.55574e-06 5.51352e-05 0.0909532)
(2.81167e-05 6.13147e-05 0.0925961)
(4.01411e-05 0.000703198 0.110952)
(-7.56183e-06 0.000373825 0.0984984)
(-6.5363e-05 -0.000133853 0.0813206)
(2.22984e-05 4.07579e-05 0.0909244)
(8.49095e-05 0.000713782 0.110379)
(-3.68983e-06 -3.1187e-05 0.0928493)
(6.08168e-05 0.000368974 0.0984909)
(-5.88802e-06 4.04408e-05 0.0985046)
(7.30798e-05 -5.18034e-05 0.108726)
(9.24264e-05 8.75058e-05 0.0926836)
(2.55828e-05 -9.22451e-06 0.111112)
(5.65494e-05 9.95813e-05 0.0925738)
(4.99933e-06 -0.000100818 0.111098)
(4.30185e-05 0.00012066 0.098592)
(1.33459e-06 7.492e-05 0.0909341)
(2.02758e-05 1.34207e-05 0.0815124)
(1.78008e-05 5.77579e-05 0.0813881)
(3.02817e-05 9.64868e-05 0.0909848)
(-2.12612e-05 3.85373e-05 0.0985045)
(-3.98825e-05 -1.58026e-05 0.108605)
(-2.72418e-05 1.70523e-05 0.111064)
(-4.2979e-05 0.000112016 0.0925604)
(-1.96292e-05 -6.59029e-05 0.111087)
(-4.98058e-05 5.09901e-05 0.0925472)
(1.17464e-05 0.000116848 0.0985712)
(-1.12135e-05 7.36725e-05 0.0909371)
(-1.324e-05 7.88397e-05 0.0814489)
(-3.27038e-05 6.973e-05 0.0814322)
(1.28812e-05 0.000103393 0.0909754)
(-5.68989e-05 -0.000128065 0.070383)
(-0.000104288 -0.00011289 0.0870028)
(0.000164684 0.000131999 0.0869635)
(0.000125868 4.70103e-05 0.0703219)
(-0.000242657 -0.000140302 0.0982805)
(-0.000372108 -1.27287e-05 0.110294)
(0.000157105 5.08876e-05 0.0928108)
(-0.000183323 -0.000108701 0.110341)
(-0.000170118 -5.31919e-05 0.0983935)
(-0.000237659 -8.76138e-05 0.0983333)
(-9.58028e-05 -1.55823e-05 0.108604)
(-0.000240972 -6.86734e-06 0.110846)
(-0.000103649 3.05761e-05 0.092467)
(-8.59427e-05 -8.33768e-05 0.110955)
(-0.000176625 2.16606e-05 0.092477)
(-0.000193827 -1.92759e-05 0.0983909)
(-0.000102437 -8.65335e-05 0.0907939)
(0.000148122 6.00613e-05 0.0812968)
(1.53354e-05 -2.10677e-05 0.0908511)
(-0.000126929 -5.89636e-05 0.090813)
(2.38013e-05 -1.84429e-05 0.081355)
(-5.40778e-05 -7.60978e-06 0.0813468)
(-1.4683e-05 -1.49945e-05 0.0908534)
(-9.00241e-05 -4.08037e-05 0.105018)
(-4.51943e-05 8.40319e-05 0.0867778)
(-2.49793e-05 1.66132e-05 0.0867065)
(-5.5691e-05 5.67393e-05 0.0867669)
(-9.88326e-05 3.15535e-05 0.0867446)
(-1.69853e-05 6.51149e-05 0.0706547)
(-3.30765e-05 6.40843e-05 0.0705785)
(2.9416e-05 -1.71549e-05 0.0705368)
(-3.79511e-05 -4.56463e-07 0.0705074)
(-0.000142789 5.58407e-05 0.0711332)
(3.4963e-05 -5.81162e-05 0.0710535)
(-2.43001e-05 0.000187088 0.0910512)
(-4.07283e-05 0.000168433 0.0957959)
(-0.000152639 0.000160361 0.0871581)
(-9.78555e-05 0.000130325 0.0812504)
(-0.000102984 0.000138439 0.0812624)
(4.95133e-07 0.000129934 0.0958413)
(-3.38818e-05 0.000202655 0.0910437)
(2.51745e-05 0.000148308 0.0910152)
(1.21937e-05 0.000201257 0.0957385)
(7.36404e-05 -2.1751e-07 0.0871008)
(8.92983e-05 -3.33121e-05 0.0812079)
(7.96413e-05 -1.67178e-05 0.0812119)
(-2.55427e-05 0.000238812 0.0957725)
(5.05679e-05 0.000125004 0.0910207)
(2.84675e-05 0.000141848 0.0829902)
(-6.44969e-05 5.30362e-05 0.0678645)
(3.56411e-05 -2.75687e-05 0.0678439)
(-6.48779e-05 6.14856e-05 0.0678706)
(2.88718e-05 -8.52601e-06 0.0678467)
(4.38898e-05 0.000136142 0.0830026)
(-7.82058e-05 5.22903e-07 0.0763392)
(-1.29706e-05 -6.9097e-06 0.0780566)
(-1.26761e-05 -3.38652e-05 0.0895163)
(9.22942e-06 -5.38873e-05 0.0911144)
(-6.36683e-05 4.37941e-06 0.0763006)
(-2.75414e-05 -9.31724e-06 0.0780978)
(-5.64339e-05 -2.94511e-05 0.0895602)
(-8.21555e-05 2.08062e-05 0.0678824)
(-0.000140902 6.15853e-05 0.0818245)
(-0.000119516 4.01479e-05 0.0853932)
(-0.000106452 3.40962e-05 0.0853535)
(-7.98906e-05 1.51709e-05 0.0679295)
(-9.16546e-05 1.14509e-05 0.0762941)
(-3.15203e-05 -2.61958e-05 0.0910725)
(-5.24562e-05 2.32633e-06 0.0780918)
(-0.000137704 1.47871e-05 0.0895383)
(-4.15167e-05 3.31017e-06 0.0780692)
(-9.921e-05 6.13728e-06 0.0895118)
(-9.73462e-05 7.6765e-06 0.0763104)
(-1.20815e-05 -1.84619e-05 0.0762656)
(-1.18516e-05 -8.76253e-06 0.0780241)
(5.83836e-05 -2.37546e-05 0.089445)
(2.83463e-05 -4.52649e-05 0.0910818)
(1.45699e-06 -1.23506e-05 0.0762118)
(-2.5688e-05 -1.275e-05 0.0780755)
(3.47627e-05 -4.09621e-05 0.0894977)
(-7.42744e-06 -1.64871e-06 0.0676913)
(1.17069e-05 -6.58715e-06 0.0815052)
(-3.22535e-06 -2.73163e-05 0.0852377)
(1.12483e-05 -1.16033e-05 0.0851887)
(-1.45279e-05 -7.46258e-06 0.0677405)
(-2.14789e-06 -7.45643e-06 0.06773)
(3.65221e-05 -4.23248e-06 0.0851661)
(1.91661e-05 -1.761e-05 0.0815201)
(6.11169e-06 -3.68241e-08 0.0676721)
(2.57834e-05 -2.00712e-05 0.0852258)
(-2.27811e-05 -8.38145e-06 0.0762466)
(-8.51744e-06 -2.60218e-05 0.0910467)
(-4.82478e-05 -3.52075e-06 0.0780948)
(-2.27723e-05 -4.15421e-05 0.0894985)
(-3.78857e-05 -1.53478e-06 0.0780592)
(6.71613e-06 -2.75713e-05 0.0894603)
(-3.43589e-05 -1.13544e-05 0.0762887)
(7.57959e-06 4.36897e-06 0.0706924)
(1.38833e-05 5.72237e-07 0.0707062)
(6.09071e-05 -5.89762e-06 0.0828857)
(1.51689e-05 6.16514e-06 0.0674613)
(1.80213e-05 1.99683e-05 0.0674452)
(5.92851e-05 3.23688e-06 0.0828494)
(1.90541e-05 2.28445e-06 0.0675397)
(1.55425e-05 8.30387e-06 0.06752)
(5.29433e-05 2.1099e-06 0.0912453)
(6.44919e-05 -2.95535e-05 0.0962913)
(3.44676e-05 -1.68162e-05 0.0868822)
(3.13412e-05 -4.27058e-06 0.0807988)
(6.19263e-05 1.74799e-06 0.0962419)
(2.88263e-05 2.31388e-06 0.0807311)
(5.59447e-05 -1.92617e-05 0.0912725)
(8.71538e-05 4.90274e-05 0.0912387)
(0.000120507 9.30606e-05 0.0962566)
(6.04364e-05 4.56377e-05 0.0868244)
(1.17241e-05 -1.14463e-05 0.0807573)
(1.78279e-05 8.16316e-06 0.0806938)
(9.93076e-05 0.00010262 0.0962132)
(9.59358e-05 3.26164e-05 0.0912625)
(6.42164e-05 -1.29782e-05 0.0912893)
(2.74754e-05 -4.65993e-06 0.0806662)
(7.77404e-05 9.79247e-06 0.0962017)
(4.44402e-05 -2.40244e-05 0.0869004)
(8.56683e-05 -1.9794e-05 0.0962775)
(5.77356e-05 6.31155e-06 0.0912473)
(3.2852e-05 -7.53055e-06 0.0807347)
(0.000108447 4.46561e-05 0.0912876)
(3.93029e-05 3.14459e-05 0.0806467)
(9.00049e-05 7.45259e-05 0.0961903)
(7.57608e-05 5.20341e-05 0.0868576)
(8.95175e-05 5.19735e-05 0.0912517)
(3.69983e-05 1.69413e-05 0.0807051)
(0.000124097 7.77386e-05 0.0962563)
(4.84126e-05 -4.81666e-06 0.0828613)
(1.28532e-05 -3.11348e-06 0.0676426)
(1.77001e-06 -1.18994e-05 0.0676206)
(1.30991e-05 3.09158e-06 0.0675536)
(5.88779e-06 2.9901e-06 0.0675321)
(4.4529e-05 -1.66455e-05 0.0829044)
(-2.40446e-06 1.79112e-05 0.0705929)
(1.0966e-05 2.98183e-05 0.0706169)
(1.88458e-05 -2.5094e-05 0.0677534)
(4.68609e-05 -4.02015e-05 0.081709)
(2.70659e-05 -2.2436e-05 0.0852821)
(1.37811e-05 2.19547e-05 0.0852547)
(1.69781e-05 -4.69192e-05 0.0677844)
(2.52564e-05 -3.20324e-05 0.0761469)
(1.37158e-05 0.000131579 0.0909211)
(2.05067e-05 2.1815e-05 0.0894087)
(8.37803e-06 -5.9188e-05 0.0779299)
(1.31586e-05 9.3046e-05 0.0893773)
(1.42335e-05 -2.23652e-05 0.0779151)
(1.99479e-05 -6.60839e-05 0.0761666)
(-1.98548e-05 -7.00112e-05 0.0674895)
(-3.11543e-05 -0.000111829 0.0812703)
(-2.82814e-05 -8.2298e-05 0.0851267)
(1.05266e-05 -4.36756e-05 0.085092)
(-2.87522e-05 -8.79212e-05 0.0675299)
(-8.47946e-06 -7.09439e-05 0.0760155)
(4.40961e-05 0.000117382 0.0908809)
(6.622e-07 -6.32637e-05 0.0779022)
(-2.12444e-06 -3.2241e-05 0.0893754)
(9.90666e-06 -2.80188e-05 0.0778744)
(3.49847e-05 3.83985e-05 0.08933)
(-1.81443e-05 -0.000103984 0.0760534)
(9.95479e-06 5.37975e-05 0.0761604)
(1.68508e-05 8.62415e-05 0.0893539)
(1.12766e-06 4.97901e-05 0.0779282)
(2.11853e-05 8.80735e-05 0.0909769)
(2.70881e-06 5.57195e-05 0.0761169)
(3.77682e-05 9.39748e-05 0.089404)
(9.42413e-06 4.86442e-05 0.0779601)
(-9.61286e-07 2.29338e-05 0.0676045)
(1.2132e-05 3.37616e-05 0.081441)
(3.74903e-05 3.48778e-05 0.0851727)
(2.73508e-05 4.87605e-05 0.085118)
(1.36297e-06 1.14578e-05 0.0676555)
(8.68583e-06 3.40657e-05 0.0676486)
(2.40167e-05 6.14433e-05 0.0851004)
(2.98934e-05 4.61216e-05 0.0814575)
(5.03166e-06 3.87791e-05 0.0675974)
(3.90708e-05 5.69361e-05 0.0851558)
(1.66453e-06 4.47796e-05 0.0761381)
(1.184e-05 9.54372e-05 0.0909437)
(4.5881e-05 9.10562e-05 0.0894197)
(1.06691e-05 3.34455e-05 0.0779657)
(2.84768e-05 9.58486e-05 0.0893704)
(2.98345e-06 4.28351e-05 0.077932)
(7.96034e-06 3.39525e-05 0.0761855)
(-1.68082e-06 6.21989e-05 0.0761801)
(-3.84002e-06 5.86497e-05 0.0779327)
(-2.0592e-05 6.68957e-05 0.089365)
(6.05458e-06 8.90248e-05 0.0909761)
(-1.0455e-05 5.84528e-05 0.0761494)
(4.73128e-06 5.94309e-05 0.0779615)
(-5.83995e-06 8.38871e-05 0.0894051)
(-1.51268e-05 6.57097e-05 0.0675845)
(-3.12768e-05 8.1128e-05 0.0814135)
(-1.32018e-05 8.56662e-05 0.085111)
(-2.8821e-05 8.34801e-05 0.0850709)
(-6.51788e-06 6.10502e-05 0.067638)
(-1.0554e-05 6.2959e-05 0.0676302)
(-2.89971e-05 6.43752e-05 0.0850898)
(-1.92856e-05 8.03812e-05 0.0814642)
(-1.74843e-05 5.89417e-05 0.0675858)
(-1.78459e-05 7.68233e-05 0.0851259)
(-7.18065e-06 6.44525e-05 0.0761415)
(-4.98968e-06 9.91645e-05 0.0909389)
(7.95373e-06 4.9014e-05 0.0779577)
(-2.32268e-06 0.000102876 0.0893963)
(-8.92904e-07 5.66595e-05 0.0779293)
(-1.887e-05 9.61584e-05 0.0893599)
(2.44394e-06 5.92637e-05 0.07617)
(-4.62523e-05 -0.000129381 0.0703534)
(1.03695e-05 2.04364e-05 0.0917433)
(-1.47256e-05 0.000130452 0.096687)
(-5.49577e-05 -0.000101215 0.0869845)
(-8.54925e-05 -4.917e-05 0.0805367)
(5.63291e-05 0.000166144 0.0964572)
(-5.59098e-05 -5.47145e-05 0.0805415)
(-4.42098e-05 8.13983e-06 0.091838)
(8.21641e-05 8.3646e-05 0.0917471)
(2.66594e-05 0.000118538 0.0966635)
(0.000175986 9.64262e-05 0.0869565)
(5.92831e-05 8.36733e-05 0.0805341)
(8.57205e-05 6.72357e-05 0.0805413)
(5.89056e-07 5.38328e-05 0.0964369)
(7.85032e-05 0.000125139 0.0918403)
(-2.23673e-05 6.57443e-05 0.0830233)
(-3.94057e-05 -3.13591e-05 0.0671428)
(2.52191e-05 2.92059e-05 0.0671315)
(-3.0537e-05 -3.30525e-05 0.0670983)
(4.35625e-05 3.28229e-05 0.0670876)
(-5.53541e-05 7.84017e-05 0.0829792)
(0.000148785 4.52894e-05 0.0702987)
(8.07511e-05 4.78217e-06 0.0759593)
(-2.22106e-05 -8.01674e-05 0.0892593)
(9.99436e-07 -1.96269e-05 0.0777862)
(-6.6533e-05 -5.85993e-05 0.0908298)
(5.95891e-05 -8.22028e-06 0.0759442)
(2.13318e-05 -4.46908e-05 0.0893004)
(2.1123e-05 -6.72644e-06 0.0777931)
(8.67791e-05 2.00799e-05 0.0674405)
(0.000151967 3.31556e-05 0.0812452)
(0.000112675 3.88782e-05 0.0850901)
(0.000101511 3.74033e-06 0.0850552)
(8.7069e-05 2.59808e-05 0.0674797)
(8.38493e-05 2.41184e-05 0.0675127)
(8.24954e-05 -6.72078e-06 0.0851217)
(9.50671e-05 4.08558e-06 0.0759178)
(-2.60237e-05 -5.5557e-05 0.0907997)
(0.00010231 7.49161e-06 0.0893153)
(5.57006e-05 9.28415e-06 0.0777757)
(6.42477e-05 -3.3915e-05 0.0892626)
(3.94529e-05 -6.42145e-06 0.0777504)
(0.000106596 1.75976e-05 0.0759588)
(-8.42001e-06 -1.75094e-05 0.076052)
(-0.000147385 -2.51029e-05 0.089254)
(1.52173e-06 -2.16667e-05 0.077822)
(-9.54845e-05 -3.67358e-05 0.0908446)
(-3.25988e-05 -2.57707e-05 0.0760305)
(-0.000120042 -1.01062e-05 0.0892887)
(2.44927e-05 -1.04082e-05 0.0778272)
(2.64042e-05 -1.6601e-05 0.0674357)
(-3.17851e-06 -2.49527e-05 0.0813155)
(5.38865e-06 -4.32823e-06 0.0850061)
(-2.78669e-05 -1.32896e-05 0.0849709)
(4.63635e-05 -1.18776e-05 0.0674838)
(1.63517e-06 -8.72384e-06 0.0675038)
(-8.75881e-05 -2.60277e-06 0.0850177)
(-2.74165e-05 -2.76831e-06 0.0813707)
(-1.94548e-05 -1.14607e-05 0.0674783)
(-5.94208e-05 3.59728e-06 0.0850406)
(1.93336e-05 -2.21385e-05 0.076007)
(-5.70078e-05 -4.10852e-05 0.0908084)
(-4.10858e-05 -6.7942e-06 0.0892848)
(6.51303e-05 3.4186e-06 0.0778004)
(-8.37121e-05 -2.33797e-05 0.0892407)
(4.63651e-05 -1.12822e-05 0.0777802)
(4.34215e-05 -1.0585e-05 0.0760445)
(-4.625e-05 6.23297e-05 0.0828335)
(-3.16866e-05 3.95465e-05 0.0674839)
(-2.98637e-05 1.47533e-05 0.0674673)
(-5.82704e-05 5.86613e-05 0.0828099)
(-2.44607e-05 3.83777e-05 0.0675335)
(-1.85939e-05 1.14906e-05 0.0675153)
(-8.89674e-05 7.27149e-05 0.0910977)
(-7.22019e-05 0.000103822 0.0960482)
(-5.96675e-05 7.52332e-05 0.0867405)
(-3.45886e-05 4.82194e-05 0.0806975)
(-9.47577e-05 7.30082e-05 0.0960221)
(-5.04761e-05 5.2999e-05 0.0806571)
(-6.69373e-05 8.26889e-05 0.0911221)
(-9.24514e-05 6.20156e-05 0.0910718)
(-0.000126832 7.66696e-05 0.0959883)
(-5.75265e-05 1.56743e-05 0.0866826)
(-1.48949e-06 2.30641e-07 0.0806654)
(-0.00015343 5.39524e-05 0.0959684)
(-1.86513e-05 -4.26824e-08 0.0806235)
(-7.08966e-05 7.5148e-05 0.0910945)
(-7.10083e-05 7.33262e-05 0.0911577)
(-5.536e-05 5.8582e-05 0.0806713)
(-7.53392e-05 3.20853e-05 0.0960688)
(-5.28895e-05 7.63873e-05 0.0867896)
(-8.07213e-05 5.49029e-05 0.0911463)
(-6.34511e-05 6.7208e-05 0.0960942)
(-4.83454e-05 6.22277e-05 0.0806965)
(-9.39354e-05 8.05404e-05 0.0911344)
(-4.15081e-05 1.52724e-05 0.0806423)
(-0.000153171 5.23875e-05 0.0960351)
(-7.22638e-05 3.13503e-05 0.0867477)
(-0.000105296 6.2816e-05 0.0911268)
(-0.000145509 8.07113e-05 0.0960498)
(-2.64874e-05 1.44904e-05 0.0806622)
(-4.12363e-05 5.23e-05 0.0828041)
(-1.02122e-05 2.0508e-05 0.0675758)
(-1.07207e-06 -2.74969e-06 0.0675594)
(-2.13372e-05 2.62568e-05 0.0675167)
(-1.43186e-05 1.30864e-06 0.067499)
(-2.17327e-05 5.06008e-05 0.0828465)
(-2.83778e-05 6.72461e-05 0.0705954)
(-2.53644e-05 7.24707e-05 0.0706236)
(3.70097e-06 -1.69905e-05 0.0704874)
(-1.31779e-05 -2.56852e-06 0.0705317)
(3.98517e-05 0.000234779 0.0969608)
(0.000164516 0.00033494 0.104732)
(4.50455e-05 0.000233614 0.101205)
(2.97114e-05 0.000290436 0.101155)
(0.000148422 0.000205594 0.101328)
(2.76643e-05 0.000358012 0.101272)
(3.98311e-05 0.000243469 0.0969126)
(9.88336e-05 4.80429e-05 0.0976595)
(0.000105931 7.89935e-05 0.105254)
(0.000174999 2.746e-05 0.102163)
(0.000138065 3.12391e-05 0.102125)
(8.70064e-05 4.00353e-05 0.102048)
(0.000114224 0.00010041 0.102021)
(0.000116767 3.11454e-05 0.0977095)
(-3.99498e-05 0.000188302 0.097909)
(-0.000113309 0.000302457 0.104308)
(-0.000100746 0.000413209 0.102027)
(-0.000202535 0.000267952 0.102)
(-5.5706e-05 0.000311896 0.101672)
(-0.000118495 0.000211509 0.101651)
(-6.79143e-05 0.000219406 0.098209)
(-0.000120618 7.02334e-05 0.0973925)
(-0.000161555 1.23394e-05 0.104952)
(-0.000105614 0.000139298 0.101812)
(-0.000107398 0.000102021 0.101758)
(-0.000117994 2.65118e-05 0.101748)
(-0.000179238 6.07103e-05 0.101707)
(-9.97426e-05 0.000104587 0.0974226)
(0.000272377 0.000110627 0.11524)
(0.000169552 0.000267261 0.115189)
(0.000151282 -3.51571e-05 0.115152)
(0.000118507 -0.000119908 0.116345)
(0.000145476 5.77152e-05 0.116436)
(0.000112975 -7.79656e-05 0.113564)
(0.00019797 4.22412e-05 0.115226)
(5.28693e-05 -3.70277e-05 0.115282)
(0.000137848 -4.19306e-05 0.115144)
(4.3275e-05 -0.00011609 0.115219)
(0.000101764 -0.000111855 0.116381)
(0.000107933 -3.09294e-06 0.116463)
(9.75797e-05 0.000231345 0.114728)
(-4.10889e-05 1.28467e-05 0.114752)
(0.000128907 -0.000162723 0.114787)
(0.000146247 -0.00016315 0.116304)
(8.53864e-05 2.20857e-05 0.116349)
(2.32137e-05 -0.000106837 0.113587)
(9.11997e-06 -3.66131e-05 0.115294)
(-1.47085e-05 -4.12697e-05 0.115229)
(3.57066e-05 -0.000117071 0.115242)
(0.000108834 -0.000152185 0.115219)
(0.000113305 -0.000137264 0.116427)
(6.2826e-05 -2.34851e-05 0.116498)
(0.00031178 -0.000140402 0.10359)
(0.000176551 -8.93589e-05 0.0976267)
(0.000305691 -3.58587e-05 0.104156)
(0.000176143 -9.38224e-05 0.0987418)
(0.000315395 -5.51924e-05 0.103463)
(0.000131285 -9.06654e-05 0.0976759)
(0.000317811 -0.000136402 0.104293)
(0.000207015 -1.6246e-05 0.101627)
(3.5074e-05 1.86254e-05 0.0994054)
(-0.000130546 6.12975e-05 0.0927107)
(-6.33346e-05 2.00174e-05 0.0954804)
(9.01437e-05 5.42185e-05 0.0994742)
(-7.6775e-06 -9.68028e-06 0.095463)
(0.000144371 -5.9364e-05 0.101631)
(0.000269189 4.22989e-07 0.103364)
(0.000128362 -4.85926e-05 0.0986639)
(4.42863e-06 -1.96331e-05 0.0976005)
(0.000257554 -9.55029e-05 0.10424)
(7.23235e-05 -3.091e-05 0.0975689)
(0.000295341 -1.30371e-05 0.104136)
(0.000213121 -6.69507e-05 0.103448)
(0.000243189 -7.14352e-05 0.103518)
(0.000166765 -1.04287e-05 0.0975545)
(0.000276529 2.1135e-05 0.104078)
(0.00017586 -5.7663e-05 0.0987158)
(0.000236478 4.21472e-05 0.103313)
(0.000148421 -4.33113e-05 0.0976548)
(0.00028768 -8.60485e-05 0.10424)
(0.000167142 5.62178e-05 0.101755)
(9.6308e-05 -6.3479e-05 0.0998729)
(5.30096e-05 -1.71356e-05 0.0926744)
(5.86694e-05 -4.54424e-05 0.0955591)
(8.59932e-05 -1.40537e-05 0.0954745)
(0.000106874 4.69294e-05 0.0997691)
(0.00014444 -6.0907e-05 0.101935)
(0.000187132 -4.47232e-05 0.101865)
(0.000121181 4.06992e-06 0.0954252)
(0.000128169 6.02334e-05 0.099687)
(6.94926e-05 -3.20754e-05 0.0927082)
(0.000187452 7.33574e-05 0.10167)
(0.00011003 -3.17737e-05 0.0955283)
(0.000128997 -4.94631e-05 0.099813)
(0.000227755 3.43297e-05 0.10338)
(0.000135734 -2.55129e-05 0.0986566)
(7.53444e-05 -4.64005e-05 0.0976775)
(0.000237546 -7.26474e-05 0.104263)
(0.000116536 -1.95403e-05 0.097596)
(0.000271553 2.49298e-05 0.104116)
(0.000200594 -7.30848e-05 0.103574)
(0.000126109 1.21513e-05 0.0977201)
(0.000202082 -4.9198e-05 0.105393)
(8.73135e-05 7.92357e-06 0.101964)
(0.000104398 4.33276e-05 0.101955)
(0.000186449 -2.73019e-06 0.102111)
(9.88186e-05 2.39815e-05 0.0976385)
(0.000140496 -2.12399e-05 0.102092)
(-9.8668e-05 0.000502462 0.101479)
(-9.76077e-05 0.000332449 0.099305)
(-1.16279e-05 0.000118043 0.0926015)
(-3.05326e-05 0.000209079 0.095361)
(-5.52147e-05 0.000367388 0.0993731)
(-5.8729e-05 0.000271759 0.0953423)
(-0.000156201 0.00047507 0.101479)
(-1.31171e-05 0.000590788 0.103146)
(2.16458e-06 0.000436239 0.0984433)
(-2.52484e-05 0.000315485 0.0974368)
(-7.70008e-05 0.000631985 0.103935)
(-3.42051e-05 0.000382829 0.0973976)
(2.03854e-05 0.000628949 0.103844)
(-9.46903e-05 0.000582003 0.10322)
(0.000217573 0.000509521 0.101332)
(1.85288e-05 0.000315276 0.0998176)
(6.99941e-05 2.17035e-05 0.0927115)
(6.7262e-05 0.000154687 0.0955377)
(0.000133106 0.000224043 0.0953815)
(0.000158922 0.00034652 0.0995492)
(7.89589e-05 0.000492467 0.101616)
(0.000165323 0.000599135 0.102931)
(9.13105e-05 0.000433862 0.0984032)
(3.03081e-05 0.000640266 0.103865)
(6.97056e-05 0.000285432 0.0975179)
(0.000136772 0.000634611 0.103721)
(0.000120593 0.000358481 0.0973881)
(4.05152e-05 0.000594806 0.103156)
(8.66469e-05 3.07284e-05 0.103407)
(1.14147e-05 5.91203e-05 0.0974526)
(-5.13169e-05 -1.89921e-05 0.103958)
(2.87152e-05 7.06438e-05 0.098577)
(-3.5968e-05 -6.12026e-06 0.103227)
(5.01695e-05 8.67529e-05 0.0975425)
(6.44467e-05 1.62715e-05 0.104096)
(2.90465e-05 8.79438e-05 0.101673)
(0.000156628 0.000118846 0.0998112)
(7.05976e-05 0.000102957 0.0926137)
(8.57431e-05 0.000110375 0.0954866)
(4.81254e-05 0.000106329 0.0997156)
(5.56814e-05 0.000105774 0.0953982)
(0.000150105 0.000117986 0.101844)
(0.000119583 4.92102e-05 0.101795)
(3.5281e-05 7.37246e-05 0.0953586)
(1.78849e-05 5.08397e-05 0.0996545)
(8.71835e-05 9.77819e-05 0.092654)
(-1.09246e-05 1.45706e-05 0.101616)
(0.000137608 7.41783e-05 0.0997688)
(7.27516e-05 9.04376e-05 0.0954552)
(-3.50514e-06 7.03141e-05 0.103252)
(1.06696e-05 9.78388e-05 0.0985186)
(6.81251e-05 0.000127647 0.0975669)
(8.60567e-05 9.40987e-05 0.104103)
(3.42938e-05 0.000110407 0.0974804)
(-2.6732e-05 5.53786e-05 0.103959)
(0.000112813 0.000107756 0.103435)
(3.32595e-05 2.76059e-05 0.103375)
(-6.50594e-05 -7.69812e-06 0.103961)
(-3.01507e-05 3.8131e-05 0.0974442)
(6.92258e-06 6.69231e-05 0.0985692)
(-6.93856e-05 -2.88406e-07 0.103219)
(4.0158e-05 2.27534e-05 0.104087)
(-5.14701e-06 6.47052e-05 0.0975161)
(-9.72502e-05 6.6473e-05 0.101562)
(-1.44056e-05 0.000101782 0.0996126)
(-6.3536e-05 9.16762e-05 0.0925179)
(-2.79685e-05 0.000109024 0.0953841)
(-5.23622e-05 8.76471e-05 0.0953217)
(-0.000105165 7.02137e-05 0.0995541)
(8.34055e-07 9.75007e-05 0.101691)
(1.59162e-05 4.12687e-05 0.101721)
(-4.28789e-05 4.25129e-05 0.0953413)
(-8.34031e-05 2.1434e-05 0.0995848)
(-3.66939e-05 7.99009e-05 0.0925898)
(-8.05524e-05 1.3542e-05 0.101588)
(-2.28008e-05 6.79629e-05 0.0954068)
(3.46322e-06 5.22345e-05 0.0996484)
(-7.11613e-05 5.95451e-05 0.103199)
(-1.66577e-05 9.34945e-05 0.0985044)
(4.51866e-05 9.25341e-05 0.104073)
(-6.48419e-06 0.000112279 0.097509)
(-5.92699e-05 5.84276e-05 0.103941)
(-3.26815e-05 8.93526e-05 0.0974379)
(3.1046e-05 9.12159e-05 0.103356)
(-0.000302924 -7.55672e-05 0.102932)
(-0.000260936 -0.000183836 0.103608)
(-0.00020654 -0.000159775 0.0972256)
(-0.000233965 -9.97776e-05 0.0983446)
(-0.000274326 -0.000200871 0.102765)
(-0.000300089 -6.9037e-05 0.10371)
(-0.000180477 -0.000108192 0.0973305)
(-0.000258302 -0.0001332 0.101259)
(-9.86921e-05 7.9005e-05 0.0997649)
(0.000128102 -1.92825e-05 0.0926723)
(6.75875e-06 -1.70132e-05 0.0954889)
(-0.000128075 -6.56416e-05 0.0995007)
(-3.91286e-05 -8.57752e-05 0.0953279)
(-0.000237035 1.41218e-05 0.101536)
(-0.000270755 -8.82625e-05 0.101264)
(-8.61009e-05 -0.000101211 0.0953267)
(-0.000307257 -0.000132015 0.102823)
(-0.000207875 -0.000102912 0.0982939)
(-0.000327366 -1.42592e-05 0.103727)
(-8.8564e-05 -4.14539e-05 0.0974375)
(-0.00032049 -0.000137247 0.103582)
(-0.000138493 -0.000101502 0.0973013)
(-0.000297129 3.96144e-06 0.103042)
(-0.000245548 2.91621e-05 0.103216)
(-0.000224087 -0.00012667 0.103758)
(-0.000228157 -4.12422e-05 0.0973201)
(-0.000238669 -5.14697e-05 0.0983833)
(-0.000203719 -8.71033e-05 0.103093)
(-0.000266204 -1.26822e-05 0.10385)
(-0.000232543 -7.03967e-06 0.0973778)
(-0.000236287 -8.05587e-06 0.101447)
(-0.000189516 0.00010971 0.0995181)
(-0.000141709 1.55139e-05 0.0924269)
(-0.000154151 2.39545e-05 0.0952816)
(-0.000184938 -1.37222e-06 0.0952193)
(-0.000199516 1.02746e-05 0.0994681)
(-0.000239506 0.000104294 0.101563)
(-0.000216696 8.22848e-05 0.101623)
(-0.000202571 -6.22489e-06 0.0952562)
(-0.000172603 -9.99814e-06 0.0995284)
(-0.00015792 4.0359e-05 0.0925083)
(-0.000186129 -3.56365e-05 0.101513)
(-0.000198965 2.20293e-05 0.0953116)
(-0.000186773 9.881e-05 0.0995758)
(-0.000271067 -5.30435e-05 0.103024)
(-0.000223001 -6.11644e-05 0.0983141)
(-0.000305698 2.902e-05 0.103808)
(-0.000195721 1.01714e-05 0.0973662)
(-0.000291534 -8.91806e-05 0.103689)
(-0.000221467 -2.32846e-05 0.0972916)
(-0.000285403 6.21416e-05 0.103163)
(-8.56802e-05 7.93693e-05 0.0974871)
(-3.64036e-05 7.69269e-05 0.105168)
(-7.318e-05 -2.13738e-05 0.101794)
(-0.000126408 2.6245e-05 0.101784)
(-9.23071e-05 4.14748e-05 0.0974593)
(-7.31788e-05 9.05294e-05 0.101864)
(-6.84671e-05 7.01554e-05 0.10184)
(6.08617e-05 6.08567e-05 0.108929)
(-9.73461e-05 5.97797e-05 0.107975)
(5.97884e-05 -9.737e-05 0.107975)
(-0.000158515 -0.000158582 0.106622)
(-5.74153e-06 -5.78478e-06 0.106779)
(6.03197e-05 9.80382e-05 0.107926)
(-6.0366e-05 9.81027e-05 0.107927)
(5.98676e-06 -5.89853e-06 0.106779)
(9.8109e-05 6.03653e-05 0.107927)
(9.80049e-05 -6.02566e-05 0.107926)
(-9.80406e-05 6.01692e-05 0.107927)
(-9.81125e-05 -6.03107e-05 0.107927)
(-5.81003e-06 5.84725e-06 0.106779)
(6.01071e-05 -9.79967e-05 0.107927)
(-6.02151e-05 -9.80384e-05 0.107927)
(5.76813e-06 5.77888e-06 0.106779)
(0.000158657 0.000158568 0.106621)
(-8.40259e-06 -8.51679e-06 0.106817)
(5.99033e-05 9.73832e-05 0.107974)
(-5.99732e-05 9.73948e-05 0.107974)
(5.93051e-05 9.57124e-05 0.108108)
(-5.93131e-05 9.58239e-05 0.108109)
(-0.000158599 0.000158497 0.106621)
(8.53009e-06 -8.37595e-06 0.106817)
(9.7348e-05 5.98113e-05 0.107974)
(9.74468e-05 -5.9929e-05 0.107974)
(9.57703e-05 5.93798e-05 0.10811)
(9.56811e-05 -5.92757e-05 0.108108)
(-9.74762e-05 -5.9987e-05 0.107974)
(-9.56248e-05 5.9255e-05 0.108109)
(-9.56567e-05 -5.91767e-05 0.108109)
(0.000158597 -0.000158643 0.106621)
(-8.35742e-06 8.4513e-06 0.106817)
(-5.98761e-05 -9.74428e-05 0.107974)
(5.91563e-05 -9.56397e-05 0.108109)
(-5.90481e-05 -9.55396e-05 0.108109)
(8.65722e-06 8.63319e-06 0.106817)
(6.11872e-05 6.12037e-05 0.108853)
(-6.12132e-05 6.11238e-05 0.108853)
(6.1156e-05 -6.12013e-05 0.108853)
(-6.12232e-05 -6.12523e-05 0.108853)
(1.83986e-06 2.13429e-05 0.094016)
(-1.37156e-06 1.95737e-05 0.0835898)
(1.74189e-06 4.42688e-05 0.0940751)
(-3.96996e-06 1.51724e-07 0.0835671)
(-1.79926e-06 6.77404e-06 0.0721749)
(3.30255e-06 -1.91538e-06 0.0721781)
(2.14678e-05 1.85402e-06 0.0940153)
(1.97037e-05 -1.35156e-06 0.0835903)
(4.42797e-05 1.89266e-06 0.0940754)
(-6.76751e-08 -3.91369e-06 0.0835666)
(-6.08773e-05 6.07929e-05 0.108929)
(6.08831e-05 -6.09056e-05 0.108928)
(-6.08519e-05 -6.09005e-05 0.108928)
(5.96841e-05 5.97532e-05 0.109153)
(-5.97654e-05 5.97943e-05 0.109153)
(5.97713e-05 -5.97829e-05 0.109153)
(-5.96752e-05 -5.96999e-05 0.109153)
(-6.13577e-05 4.47726e-06 0.102461)
(-6.03589e-05 1.67201e-05 0.0957206)
(-0.000101123 1.86681e-05 0.10862)
(-9.66894e-05 5.94729e-05 0.108021)
(-0.000105533 4.60974e-06 0.102453)
(-2.89725e-05 4.65033e-06 0.0957151)
(-0.000100766 1.85397e-05 0.108686)
(6.67653e-06 -1.76483e-06 0.0721724)
(-1.77129e-06 3.27872e-06 0.07218)
(4.40603e-06 -6.15775e-05 0.102461)
(1.86739e-05 -0.000101148 0.10862)
(1.66172e-05 -6.05396e-05 0.0957214)
(5.95366e-05 -9.67369e-05 0.108021)
(4.54991e-06 -0.000105492 0.102452)
(1.85378e-05 -0.00010074 0.108686)
(4.58238e-06 -2.88311e-05 0.0957136)
(-2.87223e-05 -1.29348e-05 0.0894006)
(-1.28799e-05 -2.8764e-05 0.0893988)
(7.06908e-06 7.0867e-06 0.106801)
(-1.85301e-05 -6.28878e-07 0.0893667)
(-6.21135e-07 -1.8509e-05 0.0893642)
(-3.4054e-06 -1.57772e-06 0.0722594)
(2.0397e-06 6.73604e-06 0.0722547)
(-1.6675e-06 -3.48811e-06 0.0722568)
(6.89265e-06 2.01229e-06 0.0722548)
(0.000160442 0.000160378 0.1066)
(1.52873e-06 1.92713e-05 0.0894995)
(1.9338e-05 1.43278e-06 0.089497)
(1.30552e-05 3.00324e-05 0.0895364)
(3.00272e-05 1.30269e-05 0.0895337)
(2.26071e-06 4.70013e-05 0.0942418)
(-3.6509e-06 6.18771e-07 0.0836838)
(-1.48388e-06 2.05006e-05 0.0837097)
(2.00217e-06 2.35014e-05 0.0941778)
(-2.09337e-06 4.69764e-05 0.094242)
(3.64556e-06 7.19698e-07 0.0836826)
(1.695e-06 2.05833e-05 0.0837104)
(-1.88308e-06 2.34703e-05 0.0941779)
(5.01553e-06 0.000109434 0.102585)
(6.05531e-05 9.86367e-05 0.107879)
(5.69328e-06 3.06362e-05 0.0958654)
(1.88692e-05 0.00010142 0.108554)
(1.73065e-05 6.31348e-05 0.0958737)
(1.89792e-05 0.000101727 0.108487)
(5.06716e-06 6.45996e-05 0.102595)
(-5.15853e-06 0.000109422 0.102585)
(-6.05196e-05 9.86314e-05 0.107878)
(-5.78554e-06 3.05251e-05 0.0958634)
(-1.87842e-05 0.000101448 0.108554)
(-1.71463e-05 6.33432e-05 0.0958736)
(-1.89434e-05 0.000101725 0.108487)
(-4.8088e-06 6.45763e-05 0.102595)
(3.42766e-06 -1.7016e-06 0.0722569)
(-1.98921e-06 6.88739e-06 0.0722557)
(-0.000160521 0.000160439 0.1066)
(-1.64356e-06 1.91558e-05 0.0894969)
(-1.91544e-05 1.71668e-06 0.0895002)
(-1.27812e-05 3.02247e-05 0.0895343)
(-3.02432e-05 1.26478e-05 0.0895356)
(1.67678e-06 -3.22867e-06 0.0722593)
(-6.76745e-06 1.87185e-06 0.0722539)
(4.68836e-05 2.0863e-06 0.0942422)
(6.70589e-07 -3.73874e-06 0.0836831)
(2.06103e-05 -1.54691e-06 0.0837103)
(2.36372e-05 1.95153e-06 0.0941772)
(0.000109266 5.24428e-06 0.102584)
(9.85857e-05 6.05043e-05 0.107879)
(3.06221e-05 5.55223e-06 0.0958645)
(0.000101461 1.87842e-05 0.108554)
(6.30967e-05 1.74501e-05 0.0958734)
(0.000101747 1.89561e-05 0.108487)
(6.46549e-05 4.82311e-06 0.102595)
(4.69188e-05 -2.20575e-06 0.0942423)
(6.76426e-07 3.58466e-06 0.0836837)
(2.05716e-05 1.62862e-06 0.083709)
(2.36553e-05 -2.01739e-06 0.0941769)
(0.000109241 -5.02128e-06 0.102584)
(9.85909e-05 -6.05227e-05 0.107878)
(0.000101411 -1.88436e-05 0.108554)
(3.06127e-05 -5.73709e-06 0.0958647)
(0.000101715 -1.89375e-05 0.108487)
(6.31418e-05 -1.72282e-05 0.0958719)
(6.46547e-05 -4.94141e-06 0.102595)
(-0.000109228 5.24354e-06 0.102585)
(-9.86069e-05 6.0392e-05 0.107879)
(-3.06198e-05 5.68439e-06 0.0958667)
(-0.000101535 1.8763e-05 0.108554)
(-6.33487e-05 1.69839e-05 0.095874)
(-0.000101852 1.89434e-05 0.108487)
(-6.48826e-05 4.78566e-06 0.102595)
(-4.66742e-05 2.19019e-06 0.0942422)
(-4.91659e-07 -3.47707e-06 0.0836843)