/*--------------------------------*- C++ -*----------------------------------*\
| =========                 |                                                 |
| \\      /  F ield         | OpenFOAM: The Open Source CFD Toolbox           |
|  \\    /   O peration     | Version:  v1906                                 |
|   \\  /    A nd           | Web:      www.OpenFOAM.com                      |
|    \\/     M anipulation  |                                                 |
\*---------------------------------------------------------------------------*/
FoamFile
{
    version     2.0;
    format      ascii;
    class       volVectorField;
    location    "1000";
    object      U;
}
// * * * * * * * * * * * * * * * * * * * * * * * * * * * * * * * * * * * * * //

dimensions      [0 1 -1 0 0 0 0];


internalField   nonuniform List<vector> 
42840
(
(0.000170443 -8.80828e-05 0.112651)
(0.000119283 -0.000130411 0.108662)
(0.000240019 -5.52777e-05 0.108092)
(0.000145326 -6.93011e-05 0.105074)
(-0.000114234 -0.000142787 0.112704)
(-7.20999e-05 0.000138621 0.108804)
(-0.000105731 -0.000125908 0.107635)
(-0.000168561 -8.71959e-05 0.105085)
(-0.000174028 0.000130433 0.113302)
(-0.0001083 3.86286e-06 0.107815)
(-0.000256342 4.53334e-05 0.108128)
(-0.000162477 6.81621e-05 0.10438)
(6.54965e-05 0.000135429 0.113319)
(4.60894e-05 2.04175e-05 0.107674)
(0.000128979 9.11207e-05 0.108604)
(1.01886e-05 -7.25436e-05 0.104319)
(0.000141931 -3.21744e-05 0.112986)
(1.95531e-05 -1.86568e-05 0.108)
(0.000134109 -6.0033e-05 0.108089)
(4.71539e-05 -9.98487e-05 0.104545)
(-1.45361e-05 -8.06926e-05 0.113041)
(-2.99273e-05 -5.17481e-05 0.108184)
(-8.72482e-05 -4.37409e-05 0.107809)
(-6.91102e-05 -4.02452e-05 0.104549)
(-7.6885e-05 -2.58867e-05 0.113226)
(-1.48773e-05 3.914e-05 0.108063)
(-2.17633e-06 7.42664e-06 0.107908)
(-7.22335e-05 -1.09368e-05 0.104398)
(7.4343e-05 0.000104064 0.113266)
(1.35874e-05 4.87112e-05 0.107805)
(5.12168e-05 1.55947e-05 0.107847)
(-2.08939e-05 -2.65704e-05 0.104375)
(2.06047e-05 2.44346e-05 0.113001)
(9.95839e-06 -2.22394e-05 0.107776)
(-2.71317e-05 9.4469e-06 0.10782)
(-2.68483e-05 -3.6738e-05 0.104363)
(-3.10801e-05 -3.35253e-05 0.112921)
(-4.73946e-06 -2.50182e-05 0.107814)
(-2.10263e-05 -2.76059e-06 0.107853)
(-3.77895e-05 -3.96673e-05 0.104332)
(1.61743e-07 -6.82052e-06 0.112997)
(-2.30614e-06 1.15887e-05 0.107811)
(1.57364e-05 -4.11563e-06 0.107823)
(-3.59513e-05 -4.10636e-05 0.104319)
(1.54506e-05 1.23146e-05 0.113045)
(-4.79081e-06 6.67907e-06 0.107758)
(6.54661e-06 -5.54879e-06 0.107749)
(-3.62551e-05 -3.4353e-05 0.104283)
(6.6049e-06 7.65845e-06 0.11301)
(1.01145e-05 -1.38148e-06 0.10771)
(-1.65898e-06 1.02542e-05 0.107705)
(-3.03383e-05 -2.86877e-05 0.104254)
(-3.77996e-06 -3.75744e-06 0.112931)
(9.01535e-06 -1.69755e-06 0.107697)
(-1.58456e-06 8.87384e-06 0.107693)
(-3.00564e-05 -2.99845e-05 0.104254)
(-7.49853e-06 -7.27948e-06 0.112894)
(5.31291e-06 -5.82686e-06 0.10767)
(-6.17249e-06 5.11285e-06 0.107666)
(-3.07018e-05 -3.06387e-05 0.104241)
(-4.49787e-06 -3.55103e-06 0.112866)
(7.93076e-06 -2.61853e-06 0.10764)
(-3.36159e-06 8.3421e-06 0.107639)
(-2.97424e-05 -2.89755e-05 0.104222)
(-4.60853e-06 -4.4191e-06 0.112823)
(1.03982e-05 -4.4576e-06 0.107619)
(-3.87048e-06 1.03613e-05 0.107619)
(-2.84986e-05 -2.92597e-05 0.104213)
(-7.3755e-06 -8.1579e-06 0.11278)
(9.17045e-06 -3.97668e-06 0.107603)
(-3.90238e-06 8.97578e-06 0.107601)
(-2.88913e-05 -2.90873e-05 0.104205)
(-8.27768e-06 -7.89126e-06 0.112747)
(8.92813e-06 -4.54302e-06 0.107581)
(-4.89347e-06 8.93345e-06 0.107579)
(-2.78906e-05 -2.76256e-05 0.104201)
(-6.09203e-06 -5.70764e-06 0.112708)
(1.16661e-05 -4.29647e-06 0.107566)
(-4.27962e-06 1.19266e-05 0.107566)
(-2.82828e-05 -2.80071e-05 0.104198)
(-9.34737e-06 -9.80406e-06 0.112664)
(9.23513e-06 -5.58005e-06 0.107553)
(-5.36265e-06 9.01431e-06 0.107552)
(-2.75346e-05 -2.81974e-05 0.104191)
(-1.04143e-05 -1.02552e-05 0.112634)
(1.04954e-05 -5.35635e-06 0.107533)
(-5.57823e-06 1.06531e-05 0.107532)
(-2.70676e-05 -2.64993e-05 0.104191)
(-7.85021e-06 -7.85789e-06 0.112593)
(1.26156e-05 -5.13711e-06 0.107525)
(-4.88612e-06 1.247e-05 0.107524)
(-2.71217e-05 -2.74528e-05 0.104191)
(-1.161e-05 -1.16012e-05 0.112553)
(1.02341e-05 -6.16853e-06 0.107513)
(-6.46486e-06 1.03748e-05 0.107511)
(-2.67738e-05 -2.65421e-05 0.104191)
(-1.0487e-05 -1.03962e-05 0.11252)
(1.16346e-05 -5.68542e-06 0.1075)
(-5.48201e-06 1.15794e-05 0.107499)
(-2.64037e-05 -2.6531e-05 0.104193)
(-1.10384e-05 -1.12089e-05 0.112482)
(1.19579e-05 -6.37109e-06 0.107492)
(-6.3498e-06 1.18895e-05 0.107491)
(-2.6421e-05 -2.64862e-05 0.104197)
(6.75184e-05 -0.000153016 0.104364)
(0.000126209 -7.74738e-06 0.107617)
(0.000271705 -3.67363e-05 0.108483)
(0.000173769 -0.00011426 0.105425)
(0.000148646 -0.00016363 0.10768)
(8.78972e-05 -0.000120123 0.108291)
(0.00011704 -0.000140835 0.108461)
(0.000124877 3.47546e-05 0.108277)
(8.49248e-05 -2.8404e-05 0.10482)
(0.000242744 -1.87346e-05 0.108268)
(0.000333433 -3.17624e-05 0.108333)
(0.000256204 3.23415e-05 0.105159)
(0.000129121 -8.34552e-05 0.104274)
(-0.000111461 -6.91091e-05 0.104901)
(8.39747e-05 -4.23835e-05 0.107628)
(0.00019027 -7.60915e-05 0.108668)
(-0.000116486 -4.81231e-05 0.108007)
(-0.0002564 -6.88588e-05 0.108867)
(4.96945e-05 -1.86836e-05 0.105335)
(-0.000119285 -9.98586e-06 0.105425)
(0.000121469 -0.000210642 0.107705)
(9.00242e-05 -0.000183738 0.108099)
(-2.00333e-05 -0.000121645 0.108032)
(5.30171e-05 -0.000160014 0.107613)
(0.000147984 2.59701e-06 0.108429)
(-2.3308e-06 9.98271e-05 0.108924)
(2.78764e-05 -0.000104833 0.108737)
(0.000167659 -0.000139236 0.104562)
(-5.51011e-05 -7.5419e-05 0.104193)
(0.000303534 -2.01316e-05 0.108502)
(1.26224e-05 -0.000127514 0.107668)
(-8.75697e-05 -1.46534e-06 0.108765)
(-3.5648e-05 -9.47034e-06 0.10535)
(-4.79246e-05 4.8706e-05 0.1048)
(-0.000181646 8.1564e-05 0.105133)
(-0.000182337 -7.53326e-06 0.108189)
(-0.000342746 -2.67508e-05 0.108723)
(-0.000172571 7.04203e-05 0.108544)
(-0.000185676 7.4483e-05 0.107945)
(-0.000233435 9.24297e-05 0.1051)
(-1.83324e-05 -6.95633e-05 0.104372)
(-6.29016e-05 -4.10486e-05 0.108169)
(2.40662e-05 -9.15116e-05 0.10756)
(-0.000117487 0.000177105 0.108428)
(-8.24376e-05 0.000143398 0.107866)
(-4.81515e-05 -8.33584e-05 0.108717)
(-0.000150063 3.54253e-05 0.108025)
(-0.000166179 7.24543e-05 0.108239)
(-1.27618e-05 -0.000132268 0.104059)
(-0.000214362 0.000128422 0.104752)
(-0.000211725 2.16405e-06 0.108692)
(-0.000296655 -3.31434e-06 0.107942)
(-0.00027125 1.3958e-05 0.108115)
(-9.86161e-05 0.000159031 0.10458)
(-6.60289e-05 0.000170846 0.104922)
(9.40321e-06 -4.02214e-05 0.104604)
(-9.88061e-05 6.98341e-05 0.108522)
(-7.74953e-05 7.24069e-05 0.107763)
(9.78367e-05 2.37644e-05 0.108122)
(0.000109834 3.55023e-05 0.107665)
(-7.26335e-05 1.86951e-05 0.10419)
(0.000113212 -2.40999e-06 0.104399)
(-9.75767e-05 0.000205892 0.108419)
(-9.05047e-05 0.00018078 0.108077)
(1.6113e-05 9.8768e-05 0.10813)
(-4.0811e-05 8.99634e-05 0.108609)
(-0.000138672 8.73666e-05 0.108052)
(2.68302e-05 1.25349e-05 0.107626)
(2.64141e-06 1.37129e-05 0.107765)
(-0.000105378 5.32085e-05 0.104709)
(1.44876e-06 0.000112346 0.105311)
(-0.000210648 2.31691e-05 0.107941)
(3.35476e-05 0.000106844 0.108573)
(1.55271e-05 8.7115e-06 0.107765)
(7.33827e-05 2.6267e-05 0.104443)
(0.000112661 2.65721e-05 0.1044)
(5.82677e-05 -0.000103345 0.104427)
(0.00012955 5.77526e-06 0.107972)
(0.000116262 2.43822e-05 0.107724)
(0.000122065 -1.66543e-05 0.107768)
(6.77698e-05 4.02748e-06 0.107948)
(3.12632e-05 8.00054e-05 0.104297)
(6.76258e-05 -3.23227e-05 0.104666)
(5.20634e-05 3.32042e-05 0.108014)
(-1.50957e-05 1.19619e-05 0.108652)
(9.66967e-05 -9.29268e-05 0.107857)
(6.87943e-05 -0.000110533 0.108285)
(3.36695e-05 -1.85257e-05 0.107763)
(3.45076e-05 -3.64155e-07 0.107922)
(5.85469e-05 -6.2611e-05 0.107914)
(0.000117729 -6.62415e-07 0.105107)
(3.03789e-05 8.65773e-06 0.10466)
(7.64892e-05 -1.08513e-05 0.107799)
(0.000184848 -3.0557e-05 0.108257)
(0.000154249 -5.1014e-05 0.108003)
(0.000141011 -2.09249e-05 0.104668)
(0.000125517 -1.8687e-05 0.104301)
(-8.57934e-05 -7.84849e-05 0.104636)
(9.19758e-05 -8.69082e-06 0.107775)
(5.07946e-05 1.1381e-06 0.108015)
(-5.62964e-05 1.52917e-06 0.107908)
(-1.26733e-05 -1.59094e-05 0.108147)
(-2.20691e-05 4.08312e-05 0.104543)
(2.33255e-05 -8.89167e-05 0.104815)
(9.04541e-05 -9.99784e-05 0.107859)
(7.72275e-05 -9.72344e-05 0.108104)
(1.85272e-05 -8.06961e-05 0.107923)
(2.18132e-05 -1.51719e-05 0.107798)
(4.87256e-05 -6.25509e-05 0.107977)
(-2.07674e-05 -5.72077e-05 0.108162)
(-8.87186e-06 -3.38845e-05 0.108073)
(9.86458e-05 -7.80079e-05 0.104438)
(-8.93652e-05 2.42995e-05 0.104444)
(0.000132651 -5.18533e-05 0.10806)
(-5.55346e-05 -5.88342e-05 0.107815)
(-7.1865e-06 -2.48281e-05 0.10809)
(2.63849e-05 3.37602e-05 0.104715)
(-1.95855e-05 9.34317e-06 0.10453)
(-8.86369e-05 -1.74249e-05 0.104842)
(-9.17668e-05 -6.24357e-06 0.107978)
(-4.11128e-05 -2.14219e-05 0.108159)
(-6.16983e-05 -1.50524e-05 0.108168)
(-7.88035e-05 -1.48963e-05 0.108091)
(-6.90867e-05 -2.45421e-06 0.104664)
(5.34235e-06 -4.45304e-05 0.104692)
(-1.71163e-05 -6.23111e-05 0.107969)
(-5.98546e-06 -6.87639e-06 0.107782)
(-6.34959e-05 2.68752e-05 0.108125)
(-3.74201e-05 -2.20523e-05 0.107862)
(-2.53275e-05 -1.82667e-05 0.108064)
(-2.39154e-05 1.27756e-05 0.108121)
(-3.40944e-05 2.08499e-05 0.107969)
(-1.84705e-05 -5.33832e-05 0.104324)
(-5.92306e-05 2.29815e-05 0.104597)
(-4.57171e-05 -1.12847e-05 0.108056)
(-4.10935e-05 -2.64394e-06 0.107891)
(-6.54379e-05 1.36665e-05 0.107927)
(2.05476e-06 7.19093e-05 0.104559)
(1.13021e-05 7.42005e-05 0.104674)
(-1.93109e-05 -1.80664e-05 0.104522)
(-1.74668e-05 -1.25064e-05 0.108191)
(-6.29305e-05 -2.57115e-06 0.108046)
(6.70325e-05 2.23543e-05 0.108021)
(3.16594e-05 3.99547e-05 0.107885)
(-7.01204e-05 4.90807e-05 0.104502)
(8.8188e-05 -7.14616e-06 0.104439)
(-5.32375e-05 5.90857e-05 0.10815)
(-2.44239e-05 -1.90112e-05 0.107892)
(1.81115e-05 8.2384e-05 0.108011)
(3.16441e-05 3.36338e-05 0.107902)
(-2.61333e-05 2.64041e-05 0.10794)
(7.9574e-06 6.27631e-05 0.107855)
(2.79058e-06 2.23424e-05 0.107902)
(3.62956e-05 -5.41271e-05 0.10445)
(-3.07068e-06 8.22133e-05 0.104494)
(-4.83762e-05 1.39905e-05 0.107901)
(6.00811e-05 1.7265e-05 0.107873)
(6.9466e-06 6.84958e-06 0.107892)
(5.68179e-05 5.78534e-05 0.10452)
(6.10246e-05 5.60423e-05 0.104327)
(-4.54975e-05 -5.69759e-05 0.104337)
(5.99076e-05 3.05988e-05 0.107909)
(5.01906e-05 4.01462e-05 0.107839)
(-2.88624e-06 7.14822e-06 0.107683)
(2.34931e-05 -3.46068e-06 0.107771)
(1.04648e-05 6.98198e-05 0.104286)
(5.30299e-05 -5.50649e-05 0.104439)
(3.43875e-05 6.03642e-05 0.107908)
(3.76615e-05 4.66329e-05 0.107879)
(1.40884e-05 -1.48141e-05 0.107692)
(-5.37265e-08 2.5497e-05 0.107816)
(8.98891e-06 1.5974e-05 0.107895)
(1.57301e-05 -8.99806e-06 0.107766)
(1.57527e-05 -3.77656e-06 0.107861)
(7.30624e-05 4.76745e-06 0.104338)
(-5.91223e-05 5.67738e-05 0.104472)
(1.65205e-05 5.42082e-06 0.107894)
(-1.17658e-05 1.20773e-05 0.107813)
(1.00083e-05 8.19131e-06 0.107871)
(5.71253e-05 4.44624e-05 0.104506)
(2.91729e-05 1.98316e-05 0.104214)
(-4.84615e-05 -5.05107e-05 0.104467)
(-1.78502e-05 -2.96217e-06 0.107669)
(3.62113e-06 -1.6821e-05 0.107766)
(-2.21406e-05 -1.44165e-05 0.107745)
(-2.1308e-05 -2.44113e-05 0.107781)
(-3.45548e-05 1.86414e-05 0.10431)
(2.38438e-05 -6.43855e-05 0.10448)
(1.10821e-06 -2.68396e-05 0.107679)
(-1.6321e-05 8.24015e-06 0.10781)
(-1.43674e-05 -2.51624e-05 0.107751)
(-2.73894e-05 -2.189e-05 0.107825)
(1.36707e-05 -7.45676e-06 0.107847)
(-4.34248e-06 -3.13859e-05 0.107807)
(2.25536e-06 -7.12233e-06 0.10781)
(1.49992e-05 -3.10217e-05 0.104342)
(-6.44311e-05 2.43054e-05 0.104513)
(2.63663e-06 9.07377e-06 0.107856)
(-3.03839e-05 -1.16549e-06 0.10785)
(-4.49233e-06 2.54513e-06 0.107815)
(4.06246e-05 3.91993e-05 0.104471)
(3.19472e-05 2.95232e-05 0.104347)
(-3.77345e-05 -4.29045e-05 0.104511)
(-1.4775e-05 -1.34716e-05 0.10778)
(-1.77957e-05 -1.88848e-05 0.107792)
(5.87489e-06 -1.87513e-06 0.107835)
(-4.83872e-06 2.52387e-06 0.107814)
(-5.21447e-05 1.77089e-05 0.104346)
(4.15836e-05 -3.56651e-05 0.104485)
(-1.24904e-05 -1.85685e-05 0.107785)
(-2.04091e-05 -2.16391e-05 0.107832)
(2.00113e-06 -1.13369e-06 0.10784)
(4.02112e-06 -1.06111e-05 0.107834)
(-1.00934e-07 -5.81168e-06 0.107801)
(-1.96137e-06 4.38525e-06 0.107817)
(-3.25902e-06 -6.29313e-06 0.107786)
(1.93379e-05 -5.34058e-05 0.104376)
(-3.38843e-05 3.962e-05 0.10449)
(-2.33212e-06 -6.74354e-07 0.107806)
(1.00644e-05 -3.32362e-06 0.107836)
(8.95632e-07 -7.06602e-06 0.107791)
(4.259e-05 3.71646e-05 0.104458)
(4.09744e-05 3.61888e-05 0.104368)
(-4.28148e-05 -4.18313e-05 0.104455)
(8.2246e-06 1.90208e-06 0.107836)
(-4.14097e-06 7.28842e-06 0.107814)
(5.52328e-06 5.85685e-06 0.107807)
(-2.9326e-06 1.03418e-05 0.107779)
(-3.6355e-05 4.5166e-05 0.104342)
(4.44136e-05 -3.72186e-05 0.104426)
(5.57562e-06 1.68424e-06 0.107841)
(9.1807e-06 -8.58706e-06 0.107825)
(5.94919e-06 4.95205e-06 0.107808)
(1.15246e-05 -3.27484e-06 0.107772)
(-3.74333e-06 -6.73315e-06 0.107783)
(-5.64131e-06 1.1386e-05 0.107775)
(-5.4152e-06 -3.95142e-06 0.107761)
(4.67161e-05 -3.81955e-05 0.104343)
(-3.75452e-05 4.46944e-05 0.104417)
(2.01091e-07 -7.41851e-06 0.107787)
(1.15301e-05 -6.94864e-06 0.107768)
(-3.21783e-06 -5.62092e-06 0.107763)
(4.09772e-05 4.19442e-05 0.104423)
(3.46234e-05 3.63843e-05 0.10431)
(-4.54502e-05 -4.33425e-05 0.104391)
(4.29999e-06 4.44613e-06 0.10779)
(3.54148e-07 8.22859e-06 0.10776)
(2.83151e-06 -3.53331e-06 0.107729)
(1.04533e-05 -3.20689e-06 0.107717)
(-3.2269e-05 3.84261e-05 0.104283)
(5.14309e-05 -4.5051e-05 0.104393)
(3.44133e-06 5.69271e-06 0.107791)
(8.89306e-06 6.37967e-07 0.107751)
(-5.02566e-06 5.43275e-06 0.10773)
(-3.68288e-06 1.08338e-05 0.107711)
(-4.30911e-06 -1.58294e-06 0.107749)
(6.54063e-06 -1.49229e-06 0.107716)
(4.83509e-06 3.89869e-06 0.107711)
(3.82367e-05 -3.19891e-05 0.104275)
(-4.48872e-05 5.11819e-05 0.104389)
(-3.1079e-06 -3.40182e-06 0.10775)
(-1.79452e-06 6.97148e-06 0.10771)
(1.23741e-06 6.35868e-06 0.107711)
(4.57027e-05 4.78663e-05 0.104387)
(3.16388e-05 3.33055e-05 0.104253)
(-4.55181e-05 -4.54089e-05 0.104366)
(1.9072e-06 -5.54899e-06 0.107711)
(1.04916e-05 -6.4107e-06 0.10771)
(-3.72779e-06 -6.99001e-06 0.107678)
(3.34356e-06 -8.96441e-06 0.107699)
(-2.57021e-05 3.18104e-05 0.10426)
(4.50226e-05 -4.47447e-05 0.104386)
(-6.61242e-06 3.78753e-06 0.107711)
(-6.55283e-06 1.06296e-05 0.107706)
(-7.08122e-06 -3.50757e-06 0.107679)
(-8.81704e-06 3.29947e-06 0.107695)
(7.38509e-06 4.85529e-06 0.107703)
(1.1002e-05 -7.80137e-07 0.107702)
(9.64442e-06 5.72149e-06 0.107694)
(3.1803e-05 -2.58357e-05 0.104257)
(-4.46338e-05 4.49389e-05 0.104383)
(3.0605e-06 8.46396e-06 0.107703)
(-7.21011e-07 1.08972e-05 0.107697)
(5.48084e-06 9.79892e-06 0.107695)
(4.61655e-05 4.62855e-05 0.104384)
(2.99623e-05 3.0014e-05 0.104236)
(-4.61313e-05 -4.60547e-05 0.10437)
(-5.44259e-06 -7.45726e-06 0.107674)
(7.68142e-07 -8.61579e-06 0.107693)
(-5.43602e-06 -8.90484e-06 0.10767)
(-2.00248e-06 -8.84095e-06 0.107671)
(-3.1908e-05 3.07312e-05 0.104254)
(4.16804e-05 -4.79351e-05 0.104367)
(-7.45698e-06 -5.33967e-06 0.107675)
(-8.51019e-06 6.72938e-07 0.107689)
(-8.93738e-06 -5.39568e-06 0.107671)
(-8.65855e-06 -1.9454e-06 0.107667)
(9.34643e-06 4.89512e-06 0.107693)
(5.13494e-06 -5.75881e-06 0.107677)
(7.56267e-06 1.39069e-06 0.107681)
(3.08189e-05 -3.20132e-05 0.104251)
(-4.78909e-05 4.16237e-05 0.104364)
(4.78485e-06 9.40755e-06 0.107695)
(-5.84066e-06 4.89349e-06 0.107673)
(1.39551e-06 7.58437e-06 0.107682)
(4.48018e-05 4.48312e-05 0.104373)
(2.94196e-05 2.95161e-05 0.10424)
(-4.56726e-05 -4.49234e-05 0.104356)
(-4.43496e-06 -8.82211e-06 0.107668)
(-1.40288e-06 -9.05856e-06 0.107664)
(-3.22137e-06 -7.99043e-06 0.107652)
(2.61006e-06 -7.75909e-06 0.107645)
(-3.34005e-05 2.76307e-05 0.104236)
(4.54489e-05 -4.46988e-05 0.10435)
(-8.90827e-06 -4.32389e-06 0.107669)
(-8.83918e-06 -1.07612e-06 0.10766)
(-8.47827e-06 -2.24779e-06 0.107653)
(-8.00985e-06 3.58239e-06 0.107643)
(7.05824e-06 1.12402e-06 0.107672)
(7.25093e-06 -2.90546e-06 0.107648)
(7.20772e-06 3.39922e-06 0.107646)
(2.75506e-05 -3.33143e-05 0.104233)
(-4.51686e-05 4.58918e-05 0.10435)
(1.04461e-06 7.1197e-06 0.107674)
(-3.9021e-06 7.53628e-06 0.107646)
(2.4377e-06 7.67718e-06 0.107647)
(4.48786e-05 4.5632e-05 0.10435)
(2.91489e-05 2.98968e-05 0.104227)
(-4.4419e-05 -4.49248e-05 0.104337)
(-3.1919e-06 -7.98103e-06 0.107645)
(4.25001e-06 -7.29167e-06 0.107638)
(-2.3456e-06 -8.63693e-06 0.107622)
(6.49544e-06 -8.51059e-06 0.107621)
(-2.8709e-05 3.01788e-05 0.104221)
(4.70062e-05 -4.52783e-05 0.10434)
(-8.59266e-06 -2.07796e-06 0.107646)
(-7.74131e-06 4.96808e-06 0.107638)
(-8.67898e-06 -2.71823e-06 0.107623)
(-8.75631e-06 5.99548e-06 0.107622)
(7.79228e-06 4.14517e-06 0.107639)
(9.9719e-06 -4.14732e-06 0.107623)
(9.29122e-06 3.72246e-06 0.107622)
(2.97755e-05 -2.83789e-05 0.104222)
(-4.50201e-05 4.67525e-05 0.104341)
(3.03994e-06 8.39154e-06 0.10764)
(-3.63895e-06 1.01882e-05 0.107624)
(4.0916e-06 9.33769e-06 0.107623)
(4.56252e-05 4.51249e-05 0.104339)
(2.98229e-05 2.90428e-05 0.104211)
(-4.5441e-05 -4.59059e-05 0.10433)
(-2.45829e-06 -8.87768e-06 0.107615)
(6.01719e-06 -9.3485e-06 0.107616)
(-5.02943e-06 -9.55333e-06 0.1076)
(3.09227e-06 -1.01999e-05 0.107604)
(-2.74927e-05 2.87571e-05 0.104214)
(4.41014e-05 -4.5168e-05 0.104334)
(-8.5277e-06 -3.49002e-06 0.107617)
(-9.29362e-06 5.44199e-06 0.107617)
(-9.02745e-06 -5.80369e-06 0.107601)
(-9.82643e-06 2.89137e-06 0.107603)
(9.50216e-06 3.28864e-06 0.107616)
(9.79659e-06 -4.09529e-06 0.107608)
(9.65479e-06 3.42957e-06 0.107601)
(2.90414e-05 -2.77689e-05 0.104215)
(-4.50773e-05 4.40107e-05 0.104332)
(4.31384e-06 9.15463e-06 0.107618)
(-3.90451e-06 9.43578e-06 0.107606)
(4.21157e-06 9.13994e-06 0.107603)
(4.48745e-05 4.44146e-05 0.104329)
(2.79166e-05 2.77051e-05 0.104206)
(-4.53048e-05 -4.49459e-05 0.104329)
(-5.87328e-06 -9.78753e-06 0.107597)
(2.25667e-06 -9.9803e-06 0.107599)
(-5.30732e-06 -1.01589e-05 0.107589)
(2.93394e-06 -9.38391e-06 0.107582)
(-2.98054e-05 2.84979e-05 0.104209)
(4.4185e-05 -4.49419e-05 0.104322)
(-9.57355e-06 -6.07469e-06 0.107598)
(-9.7879e-06 2.17237e-06 0.107597)
(-1.04746e-05 -4.94103e-06 0.10759)
(-9.43853e-06 3.15863e-06 0.107581)
(9.47396e-06 3.77328e-06 0.107597)
(8.44059e-06 -4.43762e-06 0.107586)
(8.88832e-06 5.13e-06 0.107584)
(2.85803e-05 -2.9913e-05 0.104207)
(-4.50203e-05 4.42657e-05 0.104321)
(3.9876e-06 9.2678e-06 0.107598)
(-4.66306e-06 8.52425e-06 0.107584)
(4.76151e-06 9.17488e-06 0.107585)
(4.50543e-05 4.53959e-05 0.104323)
(2.82462e-05 2.85156e-05 0.104206)
(-4.36679e-05 -4.33627e-05 0.104316)
(-4.2128e-06 -1.0045e-05 0.107585)
(4.35036e-06 -9.25011e-06 0.107577)
(-2.35926e-06 -9.19975e-06 0.107568)
(8.05332e-06 -9.16579e-06 0.107567)
(-2.8442e-05 2.82318e-05 0.104199)
(4.70584e-05 -4.40336e-05 0.104319)
(-1.03009e-05 -3.94859e-06 0.107586)
(-9.25664e-06 4.69137e-06 0.107577)
(-9.43286e-06 -1.92506e-06 0.107569)
(-9.42267e-06 8.25327e-06 0.107567)
(9.13321e-06 5.58513e-06 0.107579)
(1.12541e-05 -4.29697e-06 0.107568)
(1.069e-05 5.13138e-06 0.107568)
(2.80912e-05 -2.83327e-05 0.104198)
(-4.41567e-05 4.71099e-05 0.10432)
(5.315e-06 9.36033e-06 0.107581)
(-4.53133e-06 1.14069e-05 0.107568)
(4.72888e-06 1.09425e-05 0.10757)
(4.46651e-05 4.49735e-05 0.10432)
(2.88104e-05 2.90714e-05 0.104193)
(-4.54072e-05 -4.60602e-05 0.10431)
(-2.89632e-06 -9.00858e-06 0.107561)
(7.71673e-06 -9.51838e-06 0.107564)
(-6.64864e-06 -1.00551e-05 0.107547)
(2.46424e-06 -1.12335e-05 0.107554)
(-2.58829e-05 2.85903e-05 0.104198)
(4.25465e-05 -4.53198e-05 0.104315)
(-9.25508e-06 -2.52131e-06 0.107563)
(-9.85461e-06 7.68395e-06 0.107564)
(-9.7675e-06 -7.42003e-06 0.107548)
(-1.09994e-05 2.08556e-06 0.107553)
(1.08798e-05 4.34184e-06 0.107565)
(1.01305e-05 -5.13713e-06 0.107557)
(9.9195e-06 3.61495e-06 0.107552)
(2.85809e-05 -2.59248e-05 0.104199)
(-4.50781e-05 4.24429e-05 0.104315)
(3.99688e-06 1.11421e-05 0.107566)
(-4.69038e-06 1.00437e-05 0.107557)
(4.33786e-06 9.62433e-06 0.107553)
(4.44495e-05 4.38215e-05 0.104311)
(2.66433e-05 2.59335e-05 0.104192)
(-4.47879e-05 -4.43321e-05 0.104316)
(-7.53547e-06 -1.08749e-05 0.107545)
(1.27131e-06 -1.14457e-05 0.107549)
(-5.61356e-06 -1.19569e-05 0.107543)
(4.57196e-06 -1.05105e-05 0.107534)
(-3.00839e-05 2.67456e-05 0.104194)
(4.47678e-05 -4.48362e-05 0.104307)
(-1.0426e-05 -8.44926e-06 0.107547)
(-1.1049e-05 1.10341e-06 0.107548)
(-1.20826e-05 -5.2434e-06 0.107544)
(-1.06154e-05 4.83919e-06 0.107533)
(9.68358e-06 4.43106e-06 0.107547)
(9.45271e-06 -5.7978e-06 0.107537)
(1.06083e-05 6.36321e-06 0.107536)
(2.69003e-05 -3.01391e-05 0.104194)
(-4.50159e-05 4.48182e-05 0.104306)
(5.28233e-06 9.26122e-06 0.107549)
(-6.10017e-06 9.42318e-06 0.107536)
(6.0036e-06 1.0738e-05 0.107537)
(4.49741e-05 4.54297e-05 0.104309)
(2.74592e-05 2.80338e-05 0.104196)
(-4.37569e-05 -4.39623e-05 0.104305)
(-4.24958e-06 -1.14617e-05 0.10754)
(6.68753e-06 -1.01823e-05 0.10753)
(-3.78893e-06 -9.90402e-06 0.107523)
(8.42732e-06 -1.06183e-05 0.107525)
(-2.63566e-05 2.73285e-05 0.104189)
(4.62043e-05 -4.36367e-05 0.10431)
(-1.1862e-05 -3.5395e-06 0.107541)
(-1.0519e-05 6.86966e-06 0.10753)
(-9.97833e-06 -3.93389e-06 0.107525)
(-1.05813e-05 8.19675e-06 0.107524)
(1.10911e-05 6.17458e-06 0.107533)
(1.28676e-05 -4.84772e-06 0.107526)
(1.14618e-05 5.04215e-06 0.107524)
(2.71968e-05 -2.63634e-05 0.104189)
(-4.34511e-05 4.61333e-05 0.104309)
(5.51264e-06 1.14663e-05 0.107534)
(-4.60204e-06 1.29548e-05 0.107526)
(5.17604e-06 1.15443e-05 0.107526)
(4.42774e-05 4.40975e-05 0.104308)
(2.75004e-05 2.71217e-05 0.104188)
(-4.50296e-05 -4.4926e-05 0.104307)
(-4.81777e-06 -1.00765e-05 0.107518)
(7.13756e-06 -1.10458e-05 0.107523)
(-7.10445e-06 -1.18092e-05 0.107511)
(3.32609e-06 -1.18741e-05 0.107513)
(-2.58231e-05 2.75709e-05 0.104193)
(4.27901e-05 -4.52211e-05 0.104309)
(-9.8853e-06 -5.31754e-06 0.10752)
(-1.07667e-05 6.90192e-06 0.107522)
(-1.17419e-05 -7.08036e-06 0.107512)
(-1.18761e-05 3.57973e-06 0.107512)
(1.12918e-05 4.98873e-06 0.107521)
(1.04691e-05 -6.06546e-06 0.107517)
(1.11067e-05 5.7444e-06 0.107512)
(2.77483e-05 -2.59038e-05 0.104193)
(-4.54205e-05 4.29079e-05 0.104308)
(5.4453e-06 1.11199e-05 0.107523)
(-6.3242e-06 1.03889e-05 0.107515)
(5.73024e-06 1.10488e-05 0.107513)
(4.44578e-05 4.45581e-05 0.104307)
(2.61612e-05 2.6389e-05 0.104192)
(-4.42053e-05 -4.42042e-05 0.10431)
(-6.97751e-06 -1.20622e-05 0.10751)
(3.40726e-06 -1.18813e-05 0.107509)
(-5.61893e-06 -1.13978e-05 0.107504)
(6.2568e-06 -1.11918e-05 0.1075)
(-2.83418e-05 2.59915e-05 0.104192)
(4.4723e-05 -4.39619e-05 0.104307)
(-1.22197e-05 -6.65194e-06 0.107511)
(-1.20735e-05 3.69738e-06 0.107508)
(-1.15552e-05 -5.57732e-06 0.107505)
(-1.12537e-05 6.11791e-06 0.107499)
(1.11432e-05 5.93496e-06 0.107509)
(1.1262e-05 -5.84384e-06 0.107502)
(1.13309e-05 6.07421e-06 0.107501)
(2.57936e-05 -2.82223e-05 0.104191)
(-4.38303e-05 4.46191e-05 0.104306)
(5.6316e-06 1.13066e-05 0.10751)
(-5.71806e-06 1.13651e-05 0.107502)
(6.03995e-06 1.1465e-05 0.107502)
(4.43661e-05 4.436e-05 0.104307)
(2.67291e-05 2.65917e-05 0.104195)
(-4.41889e-05 -4.43321e-05 0.10431)
(-5.51895e-06 -1.12727e-05 0.107501)
(6.8799e-06 -1.09846e-05 0.107498)
(-5.97903e-06 -1.17228e-05 0.107492)
(6.658e-06 -1.14675e-05 0.107492)
(-2.59207e-05 2.69651e-05 0.104192)
(4.44985e-05 -4.41426e-05 0.104311)
(-1.12525e-05 -5.73272e-06 0.107502)
(-1.09258e-05 6.66481e-06 0.107497)
(-1.15654e-05 -6.20436e-06 0.107494)
(-1.13552e-05 6.55439e-06 0.107491)
(1.14878e-05 6.07706e-06 0.107498)
(1.20043e-05 -6.03389e-06 0.107494)
(1.19247e-05 5.97434e-06 0.107492)
(2.71085e-05 -2.60764e-05 0.104192)
(-4.41021e-05 4.44358e-05 0.10431)
(6.28614e-06 1.14551e-05 0.1075)
(-5.93299e-06 1.18657e-05 0.107493)
(6.20562e-06 1.17799e-05 0.107494)
(4.42274e-05 4.40904e-05 0.10431)
(2.63623e-05 2.62856e-05 0.104197)
(-6.11508e-06 -1.18809e-05 0.10749)
(6.43535e-06 -1.17856e-05 0.10749)
(-2.61955e-05 2.62484e-05 0.104197)
(-1.18267e-05 -6.19293e-06 0.107492)
(-1.17307e-05 6.40522e-06 0.107489)
(1.18912e-05 5.94898e-06 0.10749)
(2.62772e-05 -2.62542e-05 0.104196)
(6.04034e-06 1.18349e-05 0.107492)
(5.87655e-06 4.01537e-05 0.090928)
(1.89474e-05 -1.52405e-07 0.081612)
(-0.000114844 -5.28256e-05 0.0708151)
(3.32131e-05 -0.00018385 0.0910468)
(4.05686e-05 -8.30347e-05 0.0816744)
(0.000224 1.18117e-05 0.112786)
(0.000302601 -9.33529e-05 0.113134)
(0.000231514 -2.68714e-05 0.113262)
(0.000251221 3.53588e-05 0.113097)
(-4.95438e-05 -2.24014e-05 0.0984923)
(6.10096e-05 -5.97602e-05 0.108056)
(-1.75489e-05 3.24174e-05 0.0926928)
(-4.70621e-06 -5.503e-05 0.11068)
(-4.06503e-05 -8.70102e-05 0.0710974)
(0.000221617 6.57451e-06 0.0986107)
(0.000160529 5.93427e-05 0.10848)
(0.000181231 6.72715e-06 0.110896)
(0.00013008 7.27985e-05 0.0928254)
(0.000201068 3.91508e-05 0.104768)
(7.82967e-05 -0.00011308 0.0870367)
(1.50339e-05 -1.70001e-06 0.0870392)
(-0.000151812 -1.1834e-05 0.090952)
(-3.60394e-05 4.7207e-05 0.0814917)
(-9.5444e-05 3.01586e-05 0.0908616)
(-6.61004e-05 3.00285e-05 0.081553)
(-0.000135761 -4.07785e-05 0.0706924)
(-3.15307e-05 -8.34885e-06 0.0707127)
(1.62832e-05 -3.59296e-06 0.0909287)
(1.0131e-05 2.30313e-05 0.0814869)
(4.32203e-05 -0.000105022 0.0909357)
(-3.9171e-05 8.17418e-05 0.0814841)
(0.000309396 -0.000149186 0.113285)
(0.000248089 -9.34534e-05 0.113153)
(0.000299557 3.85077e-05 0.113212)
(-3.8823e-05 -0.000180561 0.112599)
(2.58838e-05 -7.30753e-05 0.113628)
(0.000118755 -0.000162378 0.112712)
(0.000118801 -3.27446e-05 0.11351)
(7.04573e-05 7.45223e-06 0.0986151)
(8.21375e-05 9.0838e-05 0.092748)
(5.98324e-05 -0.000126431 0.110803)
(9.91119e-05 -7.14869e-05 0.108825)
(-5.75591e-06 -1.63103e-05 0.098442)
(0.000120442 6.33251e-05 0.0928915)
(7.56626e-05 -0.000107093 0.110853)
(1.40636e-05 -1.16795e-06 0.0708455)
(2.10005e-05 4.71605e-05 0.0708108)
(-2.66497e-05 -8.6125e-06 0.0985456)
(0.000338754 -4.27041e-05 0.11075)
(2.90158e-05 -3.97049e-05 0.0926024)
(0.00019732 -8.60293e-05 0.107915)
(0.000128494 -2.90138e-05 0.0984796)
(0.000295023 -5.43165e-05 0.110656)
(-0.000108075 -8.72448e-05 0.0925393)
(7.85735e-05 -7.08251e-05 0.0869744)
(-9.6875e-05 8.811e-05 0.0870414)
(0.000149442 -7.30682e-06 0.105436)
(1.66489e-05 4.16187e-05 0.0869819)
(-8.29066e-05 9.20555e-05 0.0870348)
(3.14454e-06 -3.319e-05 0.0910343)
(-3.40726e-05 6.17635e-06 0.0815904)
(-0.000102586 -2.06995e-05 0.0910106)
(1.19676e-05 -3.7179e-05 0.0816649)
(0.000102708 3.31416e-05 0.07087)
(8.45506e-05 2.21378e-05 0.071056)
(-2.1178e-05 0.000151774 0.0908786)
(-4.31517e-05 0.000114065 0.0814752)
(2.88368e-06 0.000140093 0.0908408)
(-4.46549e-05 8.28565e-05 0.081574)
(-0.000130361 1.85533e-05 0.113677)
(3.54493e-05 -0.000143351 0.11262)
(-2.19257e-05 -6.43066e-05 0.113575)
(-0.000205785 7.16625e-05 0.113168)
(-0.000357655 0.000168491 0.113454)
(-0.000218984 3.19572e-05 0.112698)
(-0.000322826 -5.4036e-05 0.11354)
(5.3116e-05 2.12095e-05 0.0987009)
(-1.03411e-05 -0.000118356 0.0927207)
(-9.40575e-06 0.000113546 0.111096)
(-0.000129185 0.000124524 0.108577)
(5.56596e-05 4.98247e-05 0.0987193)
(-4.38509e-05 -0.00014871 0.0926456)
(-5.80231e-05 0.000152785 0.111139)
(1.37045e-05 2.02895e-05 0.070788)
(-1.03001e-05 -1.89903e-05 0.0708447)
(-0.000261019 -1.50145e-05 0.098458)
(-8.67018e-05 -8.07735e-05 0.110513)
(-0.00019671 -0.000137803 0.0924018)
(-0.000213169 -0.000102143 0.107674)
(-0.000262212 -4.34633e-05 0.0984546)
(-0.000233691 -7.7071e-05 0.110526)
(-0.000118161 -5.91185e-05 0.0925254)
(-9.27681e-05 0.000152999 0.0869337)
(-2.64195e-05 2.52945e-05 0.0869269)
(-0.000127864 9.38579e-05 0.104942)
(-6.23384e-05 0.000116277 0.0870343)
(-7.98794e-06 1.23928e-05 0.0869919)
(0.000108241 -1.23355e-05 0.0909814)
(5.02413e-05 -2.47079e-05 0.0816443)
(0.000122179 -4.47959e-06 0.0909528)
(4.15469e-05 -2.51466e-05 0.0816779)
(9.79555e-06 1.04011e-05 0.0710816)
(-2.02843e-06 1.18774e-07 0.0710724)
(-2.98665e-05 -2.96855e-05 0.0910218)
(1.14557e-05 -1.71255e-05 0.0816332)
(-1.52035e-05 5.48843e-05 0.0909215)
(1.79298e-05 -6.98726e-05 0.0817123)
(-0.000308582 0.000150724 0.113258)
(-0.000255182 9.84994e-05 0.112844)
(-0.000320579 -2.1304e-05 0.11342)
(8.23843e-06 0.000164522 0.113399)
(-1.90287e-05 4.29457e-05 0.11277)
(-0.000134895 0.000154576 0.113382)
(-0.000105492 4.20315e-05 0.112997)
(-2.06074e-05 -6.20744e-06 0.0983343)
(-4.95768e-05 -7.63554e-06 0.0925356)
(-0.000121986 5.17584e-05 0.110805)
(-5.55504e-05 -6.07885e-06 0.107682)
(-3.61738e-05 -1.23432e-05 0.0983548)
(4.05551e-06 5.58184e-05 0.0926213)
(-9.47473e-05 1.43353e-05 0.110615)
(-1.69466e-05 -4.72748e-05 0.0708435)
(-1.88669e-05 -3.50532e-05 0.0709082)
(8.85079e-05 3.41746e-05 0.0984322)
(-0.000368753 -9.36862e-06 0.110635)
(0.000100809 6.24039e-05 0.0926525)
(-0.000175992 7.92254e-05 0.108311)
(-4.57887e-05 -1.58814e-05 0.0983343)
(-0.000292385 1.98597e-05 0.110679)
(0.000152305 0.000119272 0.0927769)
(-6.35137e-06 -1.68715e-05 0.0870569)
(7.12318e-06 -2.40035e-05 0.0869966)
(-1.73475e-05 0.000109278 0.104437)
(2.22057e-05 -4.39814e-05 0.0870845)
(4.61197e-05 -3.34309e-05 0.0870393)
(1.71896e-06 -2.95778e-06 0.0910094)
(2.46502e-05 2.56544e-06 0.0816437)
(3.25107e-05 7.67248e-06 0.0909611)
(-3.42018e-06 1.3844e-06 0.0816937)
(-3.11927e-06 2.30153e-06 0.070951)
(-5.95726e-06 -9.43292e-06 0.0709719)
(-1.41166e-05 -9.29604e-05 0.0910964)
(3.21759e-05 -7.1165e-05 0.0817068)
(-8.40975e-06 -0.000113096 0.0910533)
(1.13419e-05 -5.50307e-05 0.0817466)
(5.01439e-05 1.89066e-05 0.112708)
(-4.43627e-05 0.000111687 0.113518)
(-2.67964e-05 3.39157e-05 0.112913)
(0.000147304 1.18902e-06 0.113031)
(0.000107105 -1.71386e-05 0.112784)
(0.000177896 -8.28365e-05 0.11364)
(0.000110627 -3.7011e-05 0.112907)
(1.0018e-05 8.84896e-07 0.0984526)
(-5.02482e-06 5.20827e-05 0.09262)
(1.93569e-05 -1.63777e-05 0.110296)
(5.15928e-05 2.07721e-05 0.107749)
(-2.19904e-05 8.13893e-06 0.098329)
(9.52093e-06 4.76185e-06 0.0926785)
(3.41266e-05 -1.70137e-05 0.110296)
(8.72596e-06 1.74073e-05 0.0709098)
(1.27185e-05 5.17936e-05 0.0710011)
(0.000170514 5.53276e-05 0.0985878)
(7.42988e-05 6.22904e-05 0.11081)
(0.000112498 8.32738e-05 0.0927241)