/*--------------------------------*- C++ -*----------------------------------*\
| =========                 |                                                 |
| \\      /  F ield         | OpenFOAM: The Open Source CFD Toolbox           |
|  \\    /   O peration     | Version:  v1906                                 |
|   \\  /    A nd           | Web:      www.OpenFOAM.com                      |
|    \\/     M anipulation  |                                                 |
\*---------------------------------------------------------------------------*/
FoamFile
{
    version     2.0;
    format      ascii;
    class       volScalarField;
    location    "125";
    object      nut;
}
// * * * * * * * * * * * * * * * * * * * * * * * * * * * * * * * * * * * * * //

dimensions      [0 2 -1 0 0 0 0];


internalField   nonuniform List<scalar> 
42616
(
0.000124773
9.5871e-05
9.58655e-05
9.07497e-05
0.000124769
9.58705e-05
9.58648e-05
9.07275e-05
0.000124771
9.58753e-05
9.58694e-05
9.07814e-05
0.000124777
9.58769e-05
9.58711e-05
9.0869e-05
0.000124765
9.58728e-05
9.58668e-05
9.08918e-05
0.000124762
9.5869e-05
9.58633e-05
9.08653e-05
0.000124761
9.58684e-05
9.58627e-05
9.08242e-05
0.000124761
9.58689e-05
9.58638e-05
9.07847e-05
0.00012476
9.58707e-05
9.58643e-05
9.07464e-05
0.000124761
9.58718e-05
9.58658e-05
9.07557e-05
0.000124761
9.58723e-05
9.58667e-05
9.07715e-05
0.000124761
9.58733e-05
9.58673e-05
9.07596e-05
0.000124762
9.58759e-05
9.5869e-05
9.08015e-05
0.000124762
9.58778e-05
9.5872e-05
9.08851e-05
0.000124762
9.58805e-05
9.58753e-05
9.08542e-05
0.000124763
9.5886e-05
9.58806e-05
9.07909e-05
0.000124764
9.58953e-05
9.58896e-05
9.07412e-05
0.000124768
9.59114e-05
9.59052e-05
9.07514e-05
0.000124774
9.5938e-05
9.59319e-05
9.08069e-05
0.00012481
9.59354e-05
9.59286e-05
9.08604e-05
0.000127535
9.6538e-05
9.65334e-05
9.08865e-05
9.08414e-05
9.58536e-05
9.58362e-05
9.08372e-05
9.58609e-05
9.58326e-05
9.5872e-05
9.58559e-05
9.08291e-05
9.58665e-05
9.58635e-05
9.07728e-05
9.07811e-05
9.08891e-05
9.58527e-05
9.58352e-05
9.58534e-05
9.58361e-05
9.07709e-05
9.08875e-05
9.586e-05
9.58316e-05
9.58606e-05
9.5832e-05
9.58558e-05
9.58719e-05
9.5855e-05
9.07665e-05
9.08776e-05
9.58634e-05
9.58661e-05
9.58626e-05
9.0778e-05
9.08234e-05
9.09147e-05
9.58522e-05
9.58346e-05
9.58573e-05
9.58394e-05
9.08181e-05
9.09132e-05
9.58595e-05
9.58307e-05
9.58647e-05
9.58357e-05
9.58556e-05
9.58753e-05
9.58585e-05
9.08065e-05
9.09101e-05
9.58632e-05
9.58697e-05
9.58661e-05
9.08519e-05
9.088e-05
9.08938e-05
9.58572e-05
9.58398e-05
9.58595e-05
9.58419e-05
9.08797e-05
9.08902e-05
9.58646e-05
9.58358e-05
9.58669e-05
9.5838e-05
9.58584e-05
9.58776e-05
9.58618e-05
9.08703e-05
9.08914e-05
9.58661e-05
9.5872e-05
9.58696e-05
9.09132e-05
9.08966e-05
9.08366e-05
9.58581e-05
9.58405e-05
9.58544e-05
9.58369e-05
9.08962e-05
9.08267e-05
9.58656e-05
9.58371e-05
9.58618e-05
9.58338e-05
9.58593e-05
9.58738e-05
9.5857e-05
9.08923e-05
9.08327e-05
9.58671e-05
9.58678e-05
9.58647e-05
9.08877e-05
9.08727e-05
9.07788e-05
9.58527e-05
9.58359e-05
9.58493e-05
9.58325e-05
9.08672e-05
9.0765e-05
9.58604e-05
9.58323e-05
9.5857e-05
9.58288e-05
9.58546e-05
9.58686e-05
9.58529e-05
9.08694e-05
9.07678e-05
9.58624e-05
9.58629e-05
9.58606e-05
9.08272e-05
9.0829e-05
9.07467e-05
9.58498e-05
9.5833e-05
9.58482e-05
9.58313e-05
9.08132e-05
9.07383e-05
9.58576e-05
9.58293e-05
9.58559e-05
9.58275e-05
9.58531e-05
9.58671e-05
9.58516e-05
9.08175e-05
9.07398e-05
9.58608e-05
9.58612e-05
9.58594e-05
9.07752e-05
9.0777e-05
9.07471e-05
9.58498e-05
9.58326e-05
9.58488e-05
9.58312e-05
9.07523e-05
9.07582e-05
9.58574e-05
9.58286e-05
9.58561e-05
9.58271e-05
9.58538e-05
9.58676e-05
9.58524e-05
9.07614e-05
9.07435e-05
9.58616e-05
9.58625e-05
9.58602e-05
9.07547e-05
9.0734e-05
9.07836e-05
9.58506e-05
9.58322e-05
9.58499e-05
9.58346e-05
9.07275e-05
9.08174e-05
9.58576e-05
9.58288e-05
9.58573e-05
9.583e-05
9.58538e-05
9.58706e-05
9.58524e-05
9.07232e-05
9.07925e-05
9.58618e-05
9.58638e-05
9.586e-05
9.07489e-05
9.07444e-05
9.08149e-05
9.585e-05
9.58341e-05
9.58521e-05
9.58354e-05
9.07678e-05
9.08474e-05
9.58575e-05
9.583e-05
9.58594e-05
9.58322e-05
9.58549e-05
9.58714e-05
9.58558e-05
9.07446e-05
9.08466e-05
9.58623e-05
9.58656e-05
9.58635e-05
9.07852e-05
9.07662e-05
9.08272e-05
9.58525e-05
9.58356e-05
9.58529e-05
9.58361e-05
9.07965e-05
9.0851e-05
9.58598e-05
9.58321e-05
9.58601e-05
9.58323e-05
9.58562e-05
9.58719e-05
9.58561e-05
9.07949e-05
9.08423e-05
9.5864e-05
9.5866e-05
9.58639e-05
9.08079e-05
9.0764e-05
9.0895e-05
9.58535e-05
9.58366e-05
9.58542e-05
9.58374e-05
9.07874e-05
9.09059e-05
9.58607e-05
9.58329e-05
9.58614e-05
9.5833e-05
9.58569e-05
9.58732e-05
9.58564e-05
9.07894e-05
9.08608e-05
9.58647e-05
9.58667e-05
9.58641e-05
9.08043e-05
9.08296e-05
9.08958e-05
9.58543e-05
9.58375e-05
9.58557e-05
9.58387e-05
9.0845e-05
9.08955e-05
9.58615e-05
9.58335e-05
9.58629e-05
9.58348e-05
9.58575e-05
9.58746e-05
9.58576e-05
9.07893e-05
9.09181e-05
9.58653e-05
9.58685e-05
9.58654e-05
9.08559e-05
9.08955e-05
9.07864e-05
9.5857e-05
9.584e-05
9.58558e-05
9.58388e-05
9.08979e-05
9.07799e-05
9.58642e-05
9.58353e-05
9.58632e-05
9.58359e-05
9.58585e-05
9.58748e-05
9.58597e-05
9.08742e-05
9.08747e-05
9.58663e-05
9.58697e-05
9.58675e-05
9.08942e-05
9.08284e-05
9.07503e-05
9.58588e-05
9.58419e-05
9.58576e-05
9.58407e-05
9.08205e-05
9.07547e-05
9.58663e-05
9.58382e-05
9.5865e-05
9.58374e-05
9.58614e-05
9.58768e-05
9.58612e-05
9.08917e-05
9.07713e-05
9.58692e-05
9.58712e-05
9.58689e-05
9.08168e-05
9.07444e-05
9.07768e-05
9.58614e-05
9.58445e-05
9.5862e-05
9.58454e-05
9.07362e-05
9.07948e-05
9.58689e-05
9.58416e-05
9.58694e-05
9.58416e-05
9.58649e-05
9.58815e-05
9.5865e-05
9.0818e-05
9.07499e-05
9.58727e-05
9.58754e-05
9.58728e-05
9.07572e-05
9.07369e-05
9.08344e-05
9.58668e-05
9.585e-05
9.587e-05
9.58533e-05
9.07444e-05
9.08561e-05
9.58741e-05
9.58468e-05
9.58771e-05
9.58493e-05
9.58705e-05
9.58894e-05
9.58724e-05
9.07411e-05
9.07847e-05
9.58783e-05
9.58831e-05
9.58802e-05
9.07557e-05
9.07701e-05
9.09034e-05
9.5876e-05
9.58592e-05
9.58833e-05
9.58665e-05
9.0787e-05
9.09138e-05
9.58832e-05
9.58558e-05
9.58904e-05
9.58626e-05
9.58795e-05
9.59027e-05
9.58854e-05
9.07413e-05
9.08474e-05
9.58872e-05
9.58963e-05
9.58932e-05
9.07976e-05
9.08337e-05
9.09419e-05
9.58919e-05
9.58751e-05
9.59057e-05
9.58894e-05
9.08493e-05
9.09433e-05
9.58991e-05
9.58716e-05
9.59128e-05
9.58853e-05
9.58948e-05
9.59253e-05
9.5908e-05
9.07824e-05
9.09098e-05
9.59026e-05
9.59189e-05
9.59166e-05
9.08712e-05
9.09048e-05
9.09219e-05
9.59185e-05
9.59027e-05
9.59506e-05
9.59358e-05
9.09127e-05
9.0922e-05
9.59259e-05
9.58987e-05
9.59592e-05
9.5932e-05
9.59212e-05
9.59702e-05
9.59527e-05
9.0844e-05
9.09348e-05
9.593e-05
9.59647e-05
9.59636e-05
9.09177e-05
9.09347e-05
9.08776e-05
9.59154e-05
9.59006e-05
9.66128e-05
9.65984e-05
9.0939e-05
9.08802e-05
9.5924e-05
9.58953e-05
9.66206e-05
9.65962e-05
9.59159e-05
9.66315e-05
9.66158e-05
9.08947e-05
9.08806e-05
9.59274e-05
9.66279e-05
9.66259e-05
9.08843e-05
9.09058e-05
9.65209e-05
9.65072e-05
9.09079e-05
9.65281e-05
9.65041e-05
0.000127534
0.000127536
0.00012754
9.65222e-05
9.08898e-05
9.65314e-05
0.000124773
0.000124774
0.000124764
0.000124774
7.80371e-05
4.95248e-05
7.80236e-05
4.95252e-05
2.35452e-05
2.35461e-05
7.80484e-05
4.95217e-05
7.80361e-05
4.95221e-05
0.000124773
0.000124764
0.000124774
0.00012477
0.000124771
0.000124761
0.000124771
8.51719e-05
7.57736e-05
0.000108114
9.5871e-05
8.51728e-05
7.57821e-05
0.000108114
2.3543e-05
2.35439e-05
8.5167e-05
0.00010812
7.5776e-05
9.58655e-05
8.51708e-05
0.000108119
7.57893e-05
6.5494e-05
6.54948e-05
9.08757e-05
6.54996e-05
6.55004e-05
7.80409e-05
4.95247e-05
7.80278e-05
4.95251e-05
2.35451e-05
2.3546e-05
7.80513e-05
4.95216e-05
7.80389e-05
4.9522e-05
0.00012477
0.00012476
0.00012477
0.00012477
0.00012477
0.000124761
0.00012477
8.51766e-05
7.57772e-05
0.000108112
9.58708e-05
8.5176e-05
7.57864e-05
0.000108112
2.35429e-05
2.35438e-05
8.51715e-05
0.000108118
7.57796e-05
9.58654e-05
8.51739e-05
0.000108117
7.57922e-05
6.54948e-05
6.54957e-05
9.08411e-05
6.55002e-05
6.55012e-05
7.80428e-05
4.95246e-05
7.80308e-05
4.9525e-05
2.35451e-05
2.35459e-05
7.80524e-05
4.95215e-05
7.8041e-05
4.95219e-05
0.00012477
0.000124761
0.000124771
0.000124777
0.000124776
0.000124767
0.000124776
8.51783e-05
7.57783e-05
0.000108116
9.58757e-05
8.51821e-05
7.57865e-05
0.000108118
2.35428e-05
2.35438e-05
8.51725e-05
0.000108122
7.57812e-05
9.58699e-05
8.51793e-05
0.000108123
7.57928e-05
6.54951e-05
6.54959e-05
9.07609e-05
6.55005e-05
6.55013e-05
7.80415e-05
4.95246e-05
7.80307e-05
4.9525e-05
2.35451e-05
2.3546e-05
7.80504e-05
4.95215e-05
7.80402e-05
4.9522e-05
0.000124777
0.000124768
0.000124776
0.000124768
0.000124768
0.000124759
0.000124766
8.51673e-05
7.57766e-05
0.000108117
9.58746e-05
8.51795e-05
7.57897e-05
0.000108114
2.35428e-05
2.35438e-05
8.51587e-05
0.000108123
7.57795e-05
9.58686e-05
8.51712e-05
0.000108119
7.57913e-05
6.54954e-05
6.54961e-05
9.07445e-05
6.55011e-05
6.55018e-05
7.80416e-05
4.95245e-05
7.80294e-05
4.9525e-05
2.35451e-05
2.3546e-05
7.80502e-05
4.95216e-05
7.80384e-05
4.9522e-05
0.000124766
0.000124757
0.000124765
0.000124762
0.000124763
0.000124754
0.000124762
8.51581e-05
7.57821e-05
0.000108109
9.58701e-05
8.51577e-05
7.57873e-05
0.000108108
2.35428e-05
2.35438e-05
8.5155e-05
0.000108114
7.57831e-05
9.58641e-05
8.51519e-05
0.000108114
7.57966e-05
6.54966e-05
6.54973e-05
9.07825e-05
6.5502e-05
6.55027e-05
7.80426e-05
4.95246e-05
7.80311e-05
4.9525e-05
2.35451e-05
2.3546e-05
7.80508e-05
4.95216e-05
7.80397e-05
4.9522e-05
0.000124763
0.000124754
0.000124762
0.000124762
0.000124762
0.000124753
0.000124761
8.51619e-05
7.57787e-05
0.000108107
9.58678e-05
8.51717e-05
7.57913e-05
0.000108107
2.35428e-05
2.35438e-05
8.51504e-05
0.000108113
7.57805e-05
9.58619e-05
8.51648e-05
0.000108112
7.57943e-05
6.54969e-05
6.54977e-05
9.08418e-05
6.55026e-05
6.55034e-05
7.80434e-05
4.95246e-05
7.80314e-05
4.95251e-05
2.35451e-05
2.3546e-05
7.80512e-05
4.95215e-05
7.804e-05
4.9522e-05
0.000124762
0.000124752
0.000124761
0.000124761
0.000124761
0.000124752
0.000124761
8.51676e-05
7.57798e-05
0.000108107
9.58685e-05
8.51665e-05
7.57892e-05
0.000108106
2.35428e-05
2.35438e-05
8.51527e-05
0.000108112
7.57826e-05
9.58631e-05
8.51636e-05
0.000108111
7.57938e-05
6.54977e-05
6.54984e-05
9.0882e-05
6.55032e-05
6.5504e-05
7.80455e-05
4.95248e-05
7.80331e-05
4.95252e-05
2.35451e-05
2.3546e-05
7.80532e-05
4.95216e-05
7.80411e-05
4.95221e-05
0.000124761
0.000124752
0.000124761
0.00012476
0.000124761
0.000124752
0.00012476
8.51692e-05
7.57788e-05
0.000108107
9.5871e-05
8.51562e-05
7.57912e-05
0.000108106
2.35429e-05
2.35439e-05
8.51647e-05
0.000108112
7.57846e-05
9.5865e-05
8.51579e-05
0.000108112
7.57951e-05
6.54987e-05
6.54994e-05
9.08993e-05
6.55041e-05
6.55048e-05
7.80462e-05
4.95248e-05
7.8034e-05
4.95253e-05
2.35452e-05
2.35461e-05
7.80537e-05
4.95217e-05
7.8042e-05
4.9522e-05
0.000124761
0.000124752
0.00012476
0.000124761
0.000124761
0.000124752
0.000124761
8.51617e-05
7.57793e-05
0.000108107
9.58709e-05
8.51672e-05
7.57912e-05
0.000108107
2.35429e-05
2.35439e-05
8.51526e-05
0.000108112
7.57843e-05
9.58649e-05
8.51546e-05
0.000108112
7.57966e-05
6.54997e-05
6.55004e-05
9.08886e-05
6.55052e-05
6.5506e-05
7.80473e-05
4.95249e-05
7.80356e-05
4.95254e-05
2.35452e-05
2.35461e-05
7.80551e-05
4.95216e-05
7.80438e-05
4.95221e-05
0.000124761
0.000124752
0.000124761
0.000124761
0.000124761
0.000124752
0.000124761
8.51711e-05
7.57823e-05
0.000108107
9.58718e-05
8.5166e-05
7.57906e-05
0.000108107
2.3543e-05
2.35439e-05
8.51606e-05
0.000108112
7.57872e-05
9.58656e-05
8.51647e-05
0.000108112
7.5796e-05
6.55009e-05
6.55017e-05
9.08564e-05
6.55061e-05
6.5507e-05
7.80487e-05
4.9525e-05
7.80368e-05
4.95256e-05
2.35452e-05
2.35462e-05
7.80563e-05
4.95218e-05
7.80447e-05
4.95223e-05
0.000124762
0.000124753
0.000124761
0.000124762
0.000124762
0.000124752
0.000124761
8.51666e-05
7.57822e-05
0.000108107
9.58724e-05
8.51612e-05
7.57944e-05
0.000108107
2.3543e-05
2.3544e-05
8.51682e-05
0.000108113
7.5788e-05
9.58666e-05
8.51586e-05
0.000108113
7.57976e-05
6.55023e-05
6.55031e-05
9.08534e-05
6.55075e-05
6.55082e-05
7.80496e-05
4.95251e-05
7.80378e-05
4.95258e-05
2.35452e-05
2.35463e-05
7.80573e-05
4.95219e-05
7.80457e-05
4.95225e-05
0.000124762
0.000124753
0.000124761
0.000124762
0.000124762
0.000124753
0.000124761
8.51645e-05
7.57818e-05
0.000108108
9.58724e-05
8.51681e-05
7.57946e-05
0.000108108
2.3543e-05
2.35441e-05
8.51684e-05
0.000108113
7.57894e-05
9.5867e-05
8.51559e-05
0.000108113
7.5797e-05
6.55043e-05
6.5505e-05
9.08378e-05
6.55088e-05
6.55096e-05
7.80507e-05
4.95253e-05
7.80393e-05
4.9526e-05
2.35453e-05
2.35465e-05
7.80583e-05
4.9522e-05
7.80473e-05
4.95228e-05
0.000124762
0.000124753
0.000124762
0.000124763
0.000124762
0.000124753
0.000124762
8.51691e-05
7.57847e-05
0.000108109
9.5874e-05
8.51714e-05
7.57958e-05
0.000108109
2.3543e-05
2.35443e-05
8.51671e-05
0.000108114
7.57922e-05
9.58674e-05
8.5158e-05
0.000108114
7.57993e-05
6.5508e-05
6.55085e-05
9.0768e-05
6.55123e-05
6.55129e-05
7.80515e-05
4.95254e-05
7.80407e-05
4.95264e-05
2.35453e-05
2.35467e-05
7.80593e-05
4.95222e-05
7.80489e-05
4.95232e-05
0.000124762
0.000124753
0.000124762
0.000124763
0.000124763
0.000124754
0.000124762
8.51733e-05
7.57876e-05
0.000108111
9.58767e-05
8.51708e-05
7.57969e-05
0.00010811
2.3543e-05
2.35445e-05
8.51657e-05
0.000108115
7.57923e-05
9.58699e-05
8.5161e-05
0.000108115
7.58012e-05
6.5513e-05
6.55135e-05
9.08014e-05
6.55165e-05
6.55172e-05
7.80531e-05
4.95256e-05
7.80428e-05
4.95271e-05
2.35452e-05
2.35472e-05
7.80607e-05
4.95224e-05
7.8051e-05
4.95239e-05
0.000124763
0.000124753
0.000124762
0.000124764
0.000124764
0.000124755
0.000124763
8.51763e-05
7.5793e-05
0.000108113
9.58801e-05
8.51712e-05
7.58002e-05
0.000108113
2.3543e-05
2.3545e-05
8.51662e-05
0.000108118
7.57976e-05
9.58741e-05
8.51644e-05
0.000108118
7.58045e-05
6.55216e-05
6.55222e-05
9.08871e-05
6.55242e-05
6.55249e-05
7.8055e-05
4.9526e-05
7.80455e-05
4.95284e-05
2.35452e-05
2.35478e-05
7.80623e-05
4.95227e-05
7.80534e-05
4.95252e-05
0.000124764
0.000124754
0.000124763
0.000124765
0.000124766
0.000124757
0.000124765
8.51777e-05
7.5803e-05
0.000108117
9.58856e-05
8.51731e-05
7.5806e-05
0.000108117
2.35429e-05
2.35456e-05
8.51673e-05
0.000108122
7.58076e-05
9.58801e-05
8.51677e-05
0.000108122
7.581e-05
6.55356e-05
6.55363e-05
9.09239e-05
6.55309e-05
6.55318e-05
7.80564e-05
4.95264e-05
7.80478e-05
4.95305e-05
2.3545e-05
2.35487e-05
7.80639e-05
4.95232e-05
7.80557e-05
4.95273e-05
0.000124766
0.000124756
0.000124765
0.000124769
0.000124769
0.00012476
0.000124769
8.51778e-05
7.58196e-05
0.000108124
9.58949e-05
8.51761e-05
7.58132e-05
0.000108125
2.35428e-05
2.35466e-05
8.51703e-05
0.00010813
7.58233e-05
9.58895e-05
8.51691e-05
0.00010813
7.58163e-05
6.55388e-05
6.55398e-05
9.09085e-05
6.55188e-05
6.552e-05
7.80545e-05
4.95268e-05
7.80467e-05
4.95332e-05
2.35443e-05
2.35496e-05
7.80615e-05
4.95237e-05
7.80549e-05
4.95302e-05
0.000124769
0.00012476
0.000124768
0.000124774
0.000124775
0.000124766
0.000124774
8.51752e-05
7.58435e-05
0.000108137
9.59116e-05
8.51815e-05
7.58122e-05
0.000108138
2.35423e-05
2.35475e-05
8.51686e-05
0.000108142
7.5845e-05
9.5906e-05
8.51747e-05
0.000108144
7.58118e-05
6.55204e-05
6.55217e-05
9.08568e-05
6.54743e-05
6.54757e-05
7.80404e-05
4.95248e-05
7.80353e-05
4.95357e-05
2.35428e-05
2.35501e-05
7.80474e-05
4.95219e-05
7.8043e-05
4.95327e-05
0.000124775
0.000124767
0.000124775
0.000124794
0.000124793
0.000124784
0.000124794
8.51673e-05
7.58523e-05
0.000108156
9.59402e-05
8.51896e-05
7.57683e-05
0.000108153
2.35409e-05
2.35481e-05
8.51609e-05
0.000108161
7.58499e-05
9.5935e-05
8.51831e-05
0.000108158
7.57647e-05
6.54637e-05
6.54652e-05
9.08084e-05
6.5367e-05
6.53685e-05
7.80495e-05
4.95225e-05
7.79959e-05
4.95623e-05
2.35414e-05
2.35603e-05
7.80549e-05
4.95191e-05
7.80027e-05
4.95596e-05
0.000124812
0.000124805
0.000124811
0.000125453
0.000125452
0.00012545
0.000125457
8.51395e-05
7.58374e-05
0.000108246
9.6061e-05
8.52004e-05
7.56908e-05
0.000108117
2.35394e-05
2.35584e-05
8.51336e-05
0.000108252
7.58332e-05
9.60559e-05
8.51942e-05
0.000108124
7.56869e-05
6.53258e-05
6.53272e-05
9.08597e-05
6.51189e-05
6.51215e-05
8.01706e-05
5.33593e-05
7.80816e-05
9.1046e-05
2.64733e-05
4.25628e-05
8.0174e-05
5.33556e-05
7.8085e-05
9.10424e-05
0.000168252
0.000148754
0.000148764
0.000124567
0.0001677
0.000147081
0.00014709
8.56511e-05
7.64491e-05
0.000110246
9.69438e-05
8.51559e-05
8.23092e-05
0.000111862
2.64718e-05
4.25631e-05
8.56451e-05
0.000110252
7.64454e-05
9.69399e-05
8.51501e-05
0.000111869
8.23059e-05
6.55559e-05
6.55556e-05
9.09802e-05
6.95053e-05
6.95094e-05
2.35468e-05
2.35459e-05
2.35454e-05
2.35445e-05
9.08355e-05
6.55003e-05
6.54992e-05
6.54945e-05
6.54932e-05
7.80246e-05
4.95253e-05
4.95249e-05
7.8035e-05
7.80288e-05
4.95259e-05
4.95254e-05
7.80421e-05
8.51712e-05
9.58541e-05
7.5788e-05
0.000108111
7.57751e-05
0.000108111
8.51684e-05
8.51739e-05
9.58367e-05
7.5789e-05
0.000108102
7.57752e-05
0.000108103
8.51717e-05
2.35461e-05
2.35453e-05
9.08484e-05
6.54991e-05
6.54916e-05
6.54927e-05
6.54847e-05
2.35466e-05
2.35457e-05
7.80341e-05
4.95221e-05
4.95217e-05
7.80471e-05
8.51754e-05
9.58613e-05
7.57826e-05
0.000108109
7.57694e-05
0.00010811
8.51755e-05
7.80311e-05
4.95182e-05
4.95178e-05
7.80438e-05
8.51723e-05
9.58331e-05
0.000108101
7.57722e-05
0.000108102
7.5761e-05
8.51731e-05
8.51747e-05
9.58725e-05
7.57825e-05
0.000108115
7.57694e-05
0.000108115
8.51738e-05
7.80242e-05
4.95247e-05
4.95243e-05
7.8038e-05
8.51729e-05
9.58565e-05
0.000108115
7.57868e-05
0.000108115
7.57736e-05
8.5172e-05
7.80221e-05
4.95214e-05
4.9521e-05
7.8036e-05
2.35439e-05
2.3543e-05
9.08443e-05
6.5486e-05
6.55001e-05
6.54792e-05
6.54942e-05
2.35458e-05
2.3545e-05
8.51709e-05
9.58671e-05
0.00010812
7.57874e-05
0.000108121
7.57737e-05
8.51733e-05
8.51751e-05
9.58642e-05
0.000108116
7.57879e-05
0.000108117
7.57742e-05
8.51748e-05
7.80194e-05
4.95211e-05
4.95207e-05
7.80336e-05
7.80257e-05
4.95217e-05
4.95213e-05
7.80388e-05
9.08252e-05
6.54992e-05
6.55e-05
6.54933e-05
6.54941e-05
2.35456e-05
2.35447e-05
2.35451e-05
2.35443e-05
2.35459e-05
2.35467e-05
2.35445e-05
2.35453e-05
6.54949e-05
6.54937e-05
9.07806e-05
6.55007e-05
6.54996e-05
2.35467e-05
2.35458e-05
2.35453e-05
2.35444e-05
9.08286e-05
6.55011e-05
6.55e-05
6.54953e-05
6.54942e-05
7.80407e-05
4.95254e-05
7.80298e-05
4.95258e-05
8.51714e-05
7.57769e-05
0.00010811
9.58526e-05
8.51689e-05
7.579e-05
0.00010811
8.5175e-05
7.57774e-05
0.000108102
9.58352e-05
8.51725e-05
7.57906e-05
0.000108101
7.80254e-05
4.95252e-05
4.95248e-05
7.80389e-05
7.80281e-05
4.95257e-05
4.95253e-05
7.80417e-05
8.51688e-05
9.58545e-05
7.57918e-05
0.000108109
7.57788e-05
0.000108109
8.51696e-05
8.51719e-05
9.58372e-05
7.57927e-05
0.0001081
7.57793e-05
0.000108101
8.5172e-05
6.54935e-05
6.54859e-05
9.07794e-05
6.54994e-05
6.54919e-05
2.35456e-05
2.35465e-05
2.3546e-05
2.35452e-05
9.08337e-05
6.54997e-05
6.54923e-05
6.5494e-05
6.54863e-05
2.35465e-05
2.35456e-05
8.51766e-05
7.57725e-05
0.000108109
9.586e-05
8.5176e-05
7.57833e-05
0.000108108
7.8045e-05
4.95178e-05
7.80327e-05
4.95182e-05
8.5173e-05
0.000108101
7.57633e-05
9.58315e-05
8.51735e-05
0.000108101
7.57727e-05
7.80369e-05
4.9522e-05
4.95216e-05
7.80499e-05
8.51737e-05
9.58617e-05
7.5786e-05
0.000108108
7.57735e-05
0.000108108
8.51769e-05
7.80339e-05
4.95181e-05
4.95177e-05
7.80466e-05
8.51702e-05
9.58333e-05
0.0001081
7.57759e-05
0.0001081
7.57644e-05
8.51744e-05
7.80401e-05
4.95242e-05
7.80264e-05
4.95246e-05
8.51693e-05
0.000108115
7.57754e-05
9.58573e-05
8.517e-05
0.000108114
7.57882e-05
7.8038e-05
4.95209e-05
7.80244e-05
4.95213e-05
8.51709e-05
9.58729e-05
7.57858e-05
0.000108113
7.57734e-05
0.000108114
8.51762e-05
7.80285e-05
4.95246e-05
4.95242e-05
7.80422e-05
8.51692e-05
9.58566e-05
0.000108113
7.57904e-05
0.000108114
7.57772e-05
8.51744e-05
7.80265e-05
4.95213e-05
4.95209e-05
7.80401e-05
6.54802e-05
6.54947e-05
9.07826e-05
6.54861e-05
6.55005e-05
2.35449e-05
2.35457e-05
2.35438e-05
2.35429e-05
9.08347e-05
6.54865e-05
6.5501e-05
6.54804e-05
6.54952e-05
2.35457e-05
2.35449e-05
8.51711e-05
0.000108116
7.57764e-05
9.58649e-05
8.5172e-05
0.000108115
7.5789e-05
7.80348e-05
4.95207e-05
7.80208e-05
4.95211e-05
7.804e-05
4.95212e-05
7.80274e-05
4.95216e-05
8.51677e-05
9.58672e-05
0.000108118
7.57912e-05
0.000108119
7.57776e-05
8.51756e-05
8.51716e-05
9.58642e-05
0.000108114
7.57917e-05
0.000108115
7.5778e-05
8.51767e-05
7.80222e-05
4.9521e-05
4.95206e-05
7.80361e-05
7.80287e-05
4.95216e-05
4.95212e-05
7.80413e-05
2.35447e-05
2.35455e-05
2.35442e-05
2.3545e-05
9.0885e-05
6.55e-05
6.55009e-05
6.54943e-05
6.54951e-05
2.35455e-05
2.35446e-05
2.3545e-05
2.35442e-05
2.35458e-05
2.35466e-05
2.35444e-05
2.35453e-05
6.54958e-05
6.54946e-05
9.07449e-05
6.55015e-05
6.55002e-05
2.35466e-05
2.35458e-05
2.35452e-05
2.35444e-05
9.07783e-05
6.55015e-05
6.55003e-05
6.5496e-05
6.54947e-05
7.80441e-05
4.95253e-05
7.80304e-05
4.95257e-05
8.5176e-05
7.57804e-05
0.000108108
9.58528e-05
8.51712e-05
7.57929e-05
0.000108108
8.51791e-05
7.57808e-05
0.0001081
9.58348e-05
8.51738e-05
7.57936e-05
0.0001081
7.80291e-05
4.95251e-05
4.95247e-05
7.80423e-05
7.80321e-05
4.95257e-05
4.95252e-05
7.80453e-05
8.5174e-05
9.58562e-05
7.57938e-05
0.00010811
7.5781e-05
0.000108109
8.51762e-05
8.51772e-05
9.5838e-05
7.57946e-05
0.000108102
7.57815e-05
0.0001081
8.51788e-05
6.54942e-05
6.54866e-05
9.0742e-05
6.54999e-05
6.54924e-05
2.35455e-05
2.35464e-05
2.3546e-05
2.35451e-05
9.07764e-05
6.55002e-05
6.54927e-05
6.54944e-05
6.54867e-05
2.35464e-05
2.35455e-05
8.51827e-05
7.57766e-05
0.000108108
9.58603e-05
8.51784e-05
7.57866e-05
0.000108107
7.80479e-05
4.95177e-05
7.80355e-05
4.95181e-05
8.51791e-05
0.0001081
7.57672e-05
9.58312e-05
8.5176e-05
0.000108099
7.57764e-05
7.80397e-05
4.95219e-05
4.95215e-05
7.80523e-05
8.51809e-05
9.58637e-05
7.57877e-05
0.00010811
7.5776e-05
0.000108109
8.51844e-05
7.80367e-05
4.95181e-05
4.95176e-05
7.80489e-05
8.51772e-05
9.58346e-05
0.000108102
7.57775e-05
0.0001081
7.57671e-05
8.51812e-05
7.8044e-05
4.95241e-05
7.80305e-05
4.95245e-05
8.51745e-05
0.000108113
7.57792e-05
9.58583e-05
8.51732e-05
0.000108113
7.57914e-05
7.8042e-05
4.95208e-05
7.80285e-05
4.95212e-05
8.51766e-05
9.58741e-05
7.57868e-05
0.000108114
7.57765e-05
0.000108113
8.51832e-05
7.80323e-05
4.95245e-05
4.95241e-05
7.80454e-05
8.51752e-05
9.58595e-05
0.000108115
7.57924e-05
0.000108113
7.57796e-05
8.51813e-05
7.80304e-05
4.95212e-05
4.95208e-05
7.80434e-05
6.54808e-05
6.54955e-05
9.07428e-05
6.54869e-05
6.55011e-05
2.35448e-05
2.35457e-05
2.35438e-05
2.35428e-05
9.07833e-05
6.54872e-05
6.55012e-05
6.54812e-05
6.54957e-05
2.35456e-05
2.35448e-05
8.51761e-05
0.000108114
7.57803e-05
9.5866e-05
8.51749e-05
0.000108114
7.57922e-05
7.80374e-05
4.95206e-05
7.80234e-05
4.9521e-05
7.80425e-05
4.95211e-05
7.803e-05
4.95215e-05
8.51729e-05
9.58688e-05
0.00010812
7.5793e-05
0.000108118
7.578e-05
8.51817e-05
8.51774e-05
9.58672e-05
0.000108116
7.57934e-05
0.000108115
7.57802e-05
8.51831e-05
7.80247e-05
4.95209e-05
4.95205e-05
7.80381e-05
7.80314e-05
4.95215e-05
4.95211e-05
7.80431e-05
2.35446e-05
2.35455e-05
2.35441e-05
2.3545e-05
9.08794e-05
6.55004e-05
6.55012e-05
6.54948e-05
6.54957e-05
2.35454e-05
2.35446e-05
2.35449e-05
2.35441e-05
2.35457e-05
2.35466e-05
2.35443e-05
2.35452e-05
6.54961e-05
6.54949e-05
9.07479e-05
6.55016e-05
6.55004e-05
2.35466e-05
2.35457e-05
2.35452e-05
2.35443e-05
9.07312e-05
6.55017e-05
6.55007e-05
6.54962e-05
6.5495e-05
7.80458e-05
4.95252e-05
7.80334e-05
4.95256e-05
8.51783e-05
7.5782e-05
0.000108113
9.58571e-05
8.51774e-05
7.57937e-05
0.000108114
8.51811e-05
7.57825e-05
0.000108104
9.58396e-05
8.51799e-05
7.57941e-05
0.000108105
7.80306e-05
4.9525e-05
4.95246e-05
7.80425e-05
7.80336e-05
4.95256e-05
4.95252e-05
7.80457e-05
8.51749e-05
9.5858e-05
7.57937e-05
0.000108114
7.57814e-05
0.000108114
8.51756e-05
8.5178e-05
9.58405e-05
7.57929e-05
0.000108106
7.57815e-05
0.000108105
8.51786e-05
6.54947e-05
6.5487e-05
9.07467e-05
6.55003e-05
6.54929e-05
2.35455e-05
2.35464e-05
2.35459e-05
2.35451e-05
9.07279e-05
6.55005e-05
6.54933e-05
6.54948e-05
6.54872e-05
2.35464e-05
2.35455e-05
8.51847e-05
7.57781e-05
0.000108113
9.58646e-05
8.51846e-05
7.57876e-05
0.000108114
7.80491e-05
4.95176e-05
7.80376e-05
4.95181e-05
8.51818e-05
0.000108104
7.57688e-05
9.58357e-05
8.5182e-05
0.000108105
7.57761e-05
7.80405e-05
4.9522e-05
4.95215e-05
7.80518e-05
8.51823e-05
9.58655e-05
7.57848e-05
0.000108115
7.57759e-05
0.000108117
8.51838e-05
7.80376e-05
4.95181e-05
4.95176e-05
7.80485e-05
8.51791e-05
9.58367e-05
0.000108106
7.57765e-05
0.000108105
7.57651e-05
8.51808e-05
7.80458e-05
4.9524e-05
7.80334e-05
4.95245e-05
8.51771e-05
0.000108117
7.57806e-05
9.58595e-05
8.51796e-05
0.000108118
7.57919e-05
7.80437e-05
4.95207e-05
7.80315e-05
4.95212e-05
8.51771e-05
9.5876e-05
7.57848e-05
0.000108118
7.57753e-05
0.000108118
8.51818e-05
7.80337e-05
4.95245e-05
4.9524e-05
7.80455e-05
8.51763e-05
9.58618e-05
0.000108118
7.57904e-05
0.000108118
7.57796e-05
8.51794e-05
7.80317e-05
4.95212e-05
4.95207e-05
7.80433e-05
6.54815e-05
6.54958e-05
9.07403e-05
6.54874e-05
6.55014e-05
2.35448e-05
2.35456e-05
2.35438e-05
2.35428e-05
9.07275e-05
6.54879e-05
6.55016e-05
6.54817e-05
6.5496e-05
2.35456e-05
2.35447e-05
8.51774e-05
0.000108118
7.57816e-05
9.58673e-05
8.51806e-05
0.000108119
7.57927e-05
7.80378e-05
4.95205e-05
7.80251e-05
4.95209e-05
7.80417e-05
4.9521e-05
7.80303e-05
4.95215e-05
8.51721e-05
9.58703e-05
0.000108124
7.57919e-05
0.000108123
7.57803e-05
8.51761e-05
8.51771e-05
9.58696e-05
0.00010812
7.57911e-05
0.000108119
7.57802e-05
8.51782e-05
7.80247e-05
4.95209e-05
4.95205e-05
7.80368e-05
7.80289e-05
4.95215e-05
4.9521e-05
7.80398e-05
2.35445e-05
2.35454e-05
2.3544e-05
2.35449e-05
9.0807e-05
6.55006e-05
6.55014e-05
6.54951e-05
6.54958e-05
2.35454e-05
2.35445e-05
2.35449e-05
2.3544e-05
2.35457e-05
2.35466e-05
2.35443e-05
2.35452e-05
6.54963e-05
6.54953e-05
9.07803e-05
6.55018e-05
6.55013e-05
2.35466e-05
2.35457e-05
2.35452e-05
2.35443e-05
9.07321e-05
6.5502e-05
6.55018e-05
6.54964e-05
6.5496e-05
7.80446e-05
4.95252e-05
7.80333e-05
4.95257e-05
8.51691e-05
7.57817e-05
0.000108113
9.58551e-05
8.51762e-05
7.57933e-05
0.00010811
8.51722e-05
7.57803e-05
0.000108104
9.58373e-05
8.5179e-05
7.57928e-05
0.000108101
7.80291e-05
4.9525e-05
4.95245e-05
7.8041e-05
7.80321e-05
4.95257e-05
4.95252e-05
7.80441e-05
8.51631e-05
9.58544e-05
7.57931e-05
0.000108105
7.5781e-05
0.000108108
8.51557e-05
8.51662e-05
9.58366e-05
7.57958e-05
0.000108097
7.57818e-05
0.000108099
8.51587e-05
6.5495e-05
6.54878e-05
9.07847e-05
6.55009e-05
6.5494e-05
2.35455e-05
2.35464e-05
2.3546e-05
2.35451e-05
9.07333e-05
6.55015e-05
6.54944e-05
6.54955e-05
6.54884e-05
2.35464e-05
2.35455e-05
8.5175e-05
7.57751e-05
0.000108115
9.58622e-05
8.51826e-05
7.57886e-05
0.000108111
7.80472e-05
4.95177e-05
7.80368e-05
4.95182e-05
8.5173e-05
0.000108104
7.57685e-05
9.58342e-05
8.51803e-05
0.000108101
7.57815e-05
7.80383e-05
4.9522e-05
4.95216e-05
7.80497e-05
8.51693e-05
9.58616e-05
7.57922e-05
0.000108106
7.57784e-05
0.000108109
8.51627e-05
7.80354e-05
4.95181e-05
4.95177e-05
7.80464e-05
8.51673e-05
9.58337e-05
0.000108097
7.57818e-05
0.000108099
7.57732e-05
8.51601e-05
7.80443e-05
4.95241e-05
7.8033e-05
4.95246e-05
8.51647e-05
0.000108117
7.57783e-05
9.58572e-05
8.51762e-05
0.000108114
7.57908e-05
7.80422e-05
4.95207e-05
7.8031e-05
4.95212e-05
8.51627e-05
9.58738e-05
7.57923e-05
0.00010811
7.57812e-05
0.000108112
8.51595e-05
7.8032e-05
4.95246e-05
4.95242e-05
7.80441e-05
8.51603e-05
9.58572e-05
0.000108109
7.57937e-05
0.000108112
7.578e-05
8.51571e-05
7.803e-05
4.95213e-05
4.95208e-05
7.80421e-05
6.54823e-05
6.54961e-05
9.07741e-05
6.54885e-05
6.55019e-05
2.35447e-05
2.35456e-05
2.35438e-05
2.35428e-05
9.07264e-05
6.54886e-05
6.55025e-05
6.54829e-05
6.54966e-05
2.35456e-05
2.35448e-05
8.5162e-05
0.000108118
7.5779e-05
9.5865e-05
8.51729e-05
0.000108115
7.57917e-05
7.80352e-05
4.95205e-05
7.80236e-05
4.95209e-05
7.80377e-05
4.9521e-05
7.80267e-05
4.95215e-05
8.51554e-05
9.58679e-05
0.000108115
7.57934e-05
0.000108118
7.578e-05
8.51538e-05
8.51588e-05
9.5865e-05
0.000108111
7.57948e-05
0.000108113
7.57809e-05
8.51559e-05
7.80224e-05
4.9521e-05
4.95205e-05
7.80349e-05
7.80249e-05
4.95216e-05
4.95211e-05
7.80369e-05
2.35445e-05
2.35454e-05
2.3544e-05
2.35449e-05
9.07294e-05
6.55017e-05
6.55025e-05
6.54958e-05
6.54965e-05
2.35454e-05
2.35445e-05
2.35449e-05
2.3544e-05
2.35457e-05
2.35466e-05
2.35443e-05
2.35452e-05
6.54966e-05
6.54964e-05
9.08354e-05
6.55022e-05
6.55018e-05
2.35466e-05
2.35457e-05
2.35452e-05
2.35443e-05
9.07675e-05
6.55026e-05
6.5502e-05
6.54968e-05
6.54963e-05
7.80447e-05
4.95253e-05
7.8032e-05
4.95257e-05
8.51545e-05
7.5781e-05
0.000108104
9.58498e-05
8.51544e-05
7.57914e-05
0.000108103
8.51572e-05
7.57853e-05
0.000108096
9.58331e-05
8.51572e-05
7.57973e-05
0.000108095
7.80297e-05
4.9525e-05
4.95245e-05
7.80426e-05
7.80327e-05
4.95257e-05
4.95253e-05
7.80457e-05
8.5154e-05
9.58489e-05
7.5792e-05
0.000108102
7.57793e-05
0.000108103
8.5164e-05
8.51568e-05
9.58321e-05
7.57929e-05
0.000108094
7.57845e-05
0.000108094
8.51674e-05
6.54961e-05
6.54886e-05
9.0847e-05
6.55018e-05
6.54942e-05
2.35455e-05
2.35464e-05
2.3546e-05
2.35451e-05
9.07769e-05
6.55019e-05
6.54946e-05
6.54962e-05
6.54885e-05
2.35464e-05
2.35455e-05
8.51609e-05
7.57819e-05
0.000108106
9.58575e-05
8.51603e-05
7.57891e-05
0.000108104
7.80468e-05
4.95177e-05
7.8035e-05
4.95181e-05
8.51581e-05
0.000108096
7.57703e-05
9.58293e-05
8.51581e-05
0.000108094
7.57761e-05
7.80386e-05
4.9522e-05
4.95215e-05
7.8051e-05
8.51615e-05
9.58567e-05
7.57861e-05
0.000108103
7.57765e-05
0.000108104
8.51741e-05
7.80356e-05
4.95181e-05
4.95176e-05
7.80477e-05
8.51581e-05
9.58283e-05
0.000108094
7.5778e-05
0.000108094
7.57663e-05
8.51692e-05
7.80449e-05
4.95241e-05
7.80321e-05
4.95245e-05
8.51567e-05
0.000108109
7.57835e-05
9.58524e-05
8.5155e-05
0.000108107
7.57949e-05
7.80429e-05
4.95208e-05
7.80302e-05
4.95213e-05
8.51591e-05
9.5869e-05
7.57868e-05