/*--------------------------------*- C++ -*----------------------------------*\
| =========                 |                                                 |
| \\      /  F ield         | OpenFOAM: The Open Source CFD Toolbox           |
|  \\    /   O peration     | Version:  v1906                                 |
|   \\  /    A nd           | Web:      www.OpenFOAM.com                      |
|    \\/     M anipulation  |                                                 |
\*---------------------------------------------------------------------------*/
FoamFile
{
    version     2.0;
    format      ascii;
    class       volScalarField;
    location    "125";
    object      p;
}
// * * * * * * * * * * * * * * * * * * * * * * * * * * * * * * * * * * * * * //

dimensions      [0 2 -2 0 0 0 0];


internalField   nonuniform List<scalar> 
42616
(
0.00358302
0.00358335
0.00358335
0.00358641
0.00352766
0.00352808
0.00352808
0.00353107
0.00347691
0.00347688
0.00347688
0.00347963
0.00342452
0.00342453
0.00342453
0.0034273
0.00337316
0.00337317
0.00337317
0.00337592
0.00332318
0.00332319
0.00332319
0.00332591
0.00327465
0.00327466
0.00327466
0.00327735
0.00322742
0.00322744
0.00322744
0.00323009
0.00318129
0.00318131
0.00318131
0.00318393
0.00313605
0.00313608
0.00313608
0.00313867
0.00309154
0.00309157
0.00309157
0.00309413
0.00304763
0.00304766
0.00304765
0.0030502
0.00300424
0.00300426
0.00300426
0.00300677
0.00296131
0.00296133
0.00296133
0.00296383
0.00291882
0.00291883
0.00291883
0.00292133
0.00287673
0.00287673
0.00287673
0.00287922
0.00283502
0.00283502
0.00283502
0.0028375
0.00279367
0.00279367
0.00279367
0.00279614
0.00275266
0.00275264
0.00275264
0.00275511
0.00271196
0.00271193
0.00271193
0.00271439
0.00267155
0.00267151
0.00267151
0.00267397
0.00359643
0.00359666
0.00359666
0.00359643
0.00359666
0.00359666
0.00359742
0.00359742
0.00359742
0.00359742
0.00359666
0.00359666
0.00359643
0.00359666
0.00359666
0.00359643
0.00358641
0.00353765
0.00358335
0.00358335
0.00353993
0.00353993
0.00358641
0.00353764
0.00358335
0.00358335
0.00353992
0.00353992
0.00358335
0.00353992
0.00353992
0.00358641
0.00353765
0.00358336
0.00353992
0.00353992
0.00353764
0.00353107
0.00348656
0.00352808
0.00352809
0.00349
0.00349
0.00353108
0.00348656
0.00352808
0.00352808
0.00349
0.00349
0.00352808
0.00349
0.00349
0.00353107
0.00348656
0.00352808
0.00349
0.00349
0.00348656
0.00347963
0.00343419
0.00347688
0.00347688
0.00343755
0.00343755
0.00347963
0.00343419
0.00347688
0.00347688
0.00343755
0.00343755
0.00347688
0.00343755
0.00343755
0.00347963
0.00343419
0.00347688
0.00343754
0.00343755
0.00343419
0.0034273
0.00338263
0.00342453
0.00342453
0.00338589
0.00338589
0.0034273
0.00338263
0.00342453
0.00342453
0.00338589
0.00338589
0.00342453
0.00338589
0.00338589
0.0034273
0.00338263
0.00342453
0.00338589
0.00338589
0.00338263
0.00337592
0.00333241
0.00337317
0.00337317
0.00333555
0.00333555
0.00337592
0.00333241
0.00337317
0.00337317
0.00333554
0.00333555
0.00337317
0.00333554
0.00333555
0.00337592
0.00333241
0.00337317
0.00333554
0.00333554
0.00333241
0.00332591
0.00328365
0.00332319
0.00332319
0.00328667
0.00328667
0.00332591
0.00328365
0.00332319
0.00332319
0.00328667
0.00328667
0.00332319
0.00328667
0.00328667
0.00332591
0.00328365
0.00332319
0.00328667
0.00328667
0.00328365
0.00327735
0.00323622
0.00327467
0.00327466
0.00323913
0.00323913
0.00327734
0.00323622
0.00327466
0.00327467
0.00323913
0.00323913
0.00327466
0.00323913
0.00323913
0.00327735
0.00323622
0.00327466
0.00323913
0.00323913
0.00323622
0.00323009
0.00318992
0.00322743
0.00322743
0.00319274
0.00319274
0.00323009
0.00318992
0.00322744
0.00322744
0.00319275
0.00319274
0.00322744
0.00319275
0.00319275
0.00323009
0.00318992
0.00322744
0.00319275
0.00319275
0.00318992
0.00318393
0.00314454
0.0031813
0.0031813
0.00314731
0.00314731
0.00318393
0.00314454
0.00318131
0.0031813
0.00314731
0.00314731
0.0031813
0.00314731
0.00314731
0.00318393
0.00314454
0.00318131
0.00314731
0.00314731
0.00314454
0.00313867
0.00309991
0.00313608
0.00313608
0.00310263
0.00310263
0.00313867
0.00309991
0.00313608
0.00313608
0.00310263
0.00310263
0.00313608
0.00310264
0.00310263
0.00313867
0.00309991
0.00313608
0.00310263
0.00310263
0.00309991
0.00309413
0.0030559
0.00309157
0.00309157
0.00305858
0.00305858
0.00309413
0.0030559
0.00309157
0.00309157
0.00305858
0.00305858
0.00309157
0.00305858
0.00305858
0.00309413
0.0030559
0.00309157
0.00305858
0.00305858
0.0030559
0.0030502
0.00301241
0.00304765
0.00304766
0.00301506
0.00301506
0.0030502
0.0030124
0.00304765
0.00304766
0.00301506
0.00301506
0.00304766
0.00301506
0.00301506
0.0030502
0.00301241
0.00304766
0.00301506
0.00301506
0.0030124
0.00300677
0.00296939
0.00300426
0.00300426
0.00297202
0.00297202
0.00300677
0.0029694
0.00300426
0.00300426
0.00297202
0.00297202
0.00300426
0.00297202
0.00297202
0.00300677
0.00296939
0.00300426
0.00297202
0.00297202
0.0029694
0.00296383
0.00292684
0.00296133
0.00296133
0.00292941
0.00292941
0.00296383
0.00292684
0.00296133
0.00296133
0.00292941
0.00292941
0.00296133
0.00292941
0.00292941
0.00296383
0.00292684
0.00296133
0.00292941
0.00292941
0.00292684
0.00292133
0.00288468
0.00291883
0.00291883
0.00288722
0.00288722
0.00292133
0.00288468
0.00291883
0.00291883
0.00288722
0.00288722
0.00291883
0.00288722
0.00288722
0.00292133
0.00288468
0.00291883
0.00288722
0.00288722
0.00288468
0.00287922
0.00284291
0.00287673
0.00287673
0.00284541
0.00284541
0.00287922
0.00284291
0.00287673
0.00287673
0.00284541
0.00284541
0.00287673
0.00284541
0.00284541
0.00287922
0.00284291
0.00287673
0.00284541
0.00284541
0.00284291
0.0028375
0.00280151
0.00283502
0.00283502
0.00280397
0.00280397
0.0028375
0.00280151
0.00283502
0.00283502
0.00280397
0.00280397
0.00283502
0.00280397
0.00280397
0.0028375
0.00280151
0.00283502
0.00280397
0.00280397
0.00280151
0.00279614
0.00276044
0.00279367
0.00279367
0.00276287
0.00276287
0.00279614
0.00276044
0.00279367
0.00279367
0.00276287
0.00276287
0.00279367
0.00276287
0.00276287
0.00279613
0.00276044
0.00279367
0.00276287
0.00276287
0.00276044
0.00275511
0.00271968
0.00275264
0.00275264
0.00272208
0.00272208
0.00275511
0.00271968
0.00275264
0.00275264
0.00272208
0.00272208
0.00275264
0.00272208
0.00272208
0.00275511
0.00271968
0.00275264
0.00272208
0.00272208
0.00271968
0.00271439
0.00267922
0.00271193
0.00271193
0.00268159
0.00268159
0.00271439
0.00267923
0.00271193
0.00271193
0.00268159
0.00268159
0.00271193
0.00268159
0.00268159
0.00271439
0.00267922
0.00271193
0.00268159
0.00268159
0.00267922
0.00267397
0.00267151
0.00267151
0.00267397
0.00267151
0.00267151
0.00267151
0.00267397
0.00267151
0.00360481
0.00361457
0.00360937
0.00360937
0.00363175
0.00361853
0.00364714
0.00361258
0.00363175
0.00361854
0.00361258
0.00364714
0.00362311
0.00365088
0.00365088
0.00356016
0.00357931
0.0035885
0.00355224
0.00355299
0.00355575
0.00356014
0.00357929
0.00358849
0.00355223
0.00358302
0.00358303
0.00358303
0.00353962
0.00353962
0.00353962
0.00353962
0.00355767
0.00358349
0.00358342
0.00356649
0.00358652
0.00355657
0.00356737
0.00355309
0.00355575
0.00355767
0.00358343
0.0035835
0.00356649
0.00358651
0.00356737
0.00355657
0.00358937
0.00358935
0.00356089
0.00355621
0.0035562
0.00351353
0.00353281
0.00353417
0.00351207
0.00353172
0.00351162
0.00351353
0.0035328
0.00353417
0.00351206
0.00352766
0.00352766
0.00352766
0.00349007
0.00349007
0.00349007
0.00349007
0.00351211
0.00353288
0.00352766
0.00351579
0.00353167
0.00351266
0.00351552
0.00353171
0.00351162
0.00351211
0.00352766
0.00353288
0.00351579
0.00353167
0.00351552
0.00351265
0.0035339
0.0035339
0.00351234
0.00351299
0.00351299
0.00346126
0.00348006
0.00348114
0.00346024
0.0034797
0.00345995
0.00346126
0.00348006
0.00348114
0.00346024
0.00347691
0.00347691
0.00347691
0.00343752
0.00343752
0.00343752
0.00343752
0.00346036
0.00348046
0.00347678
0.00346374
0.0034799
0.00346072
0.00346364
0.0034797
0.00345995
0.00346036
0.00347678
0.00348047
0.00346374
0.0034799
0.00346364
0.00346072
0.00348071
0.00348071
0.00346035
0.00346079
0.00346079
0.00340873
0.00342739
0.00342825
0.00340796
0.00342718
0.00340778
0.00340873
0.00342739
0.00342825
0.00340796
0.00342452
0.00342452
0.00342452
0.00338588
0.00338588
0.00338588
0.00338588
0.00340822
0.00342779
0.00342448
0.00341158
0.00342751
0.00340841
0.00341154
0.00342718
0.00340778
0.00340822
0.00342448
0.00342779
0.00341158
0.00342751
0.00341154
0.00340841
0.00342783
0.00342783
0.00340826
0.00340834
0.00340834
0.00335753
0.00337588
0.00337652
0.00335697
0.00337574
0.00335684
0.00335753
0.00337588
0.00337652
0.00335697
0.00337316
0.00337316
0.00337316
0.00333553
0.00333553
0.00333553
0.00333553
0.00335726
0.00337623
0.00337314
0.00336053
0.00337606
0.00335736
0.00336051
0.00337574
0.00335684
0.00335726
0.00337314
0.00337623
0.00336053
0.00337606
0.00336051
0.00335736
0.00337622
0.00337622
0.00335733
0.00335727
0.00335727
0.00330788
0.00332583
0.00332628
0.00330748
0.00332572
0.00330736
0.00330788
0.00332583
0.00332628
0.00330748
0.00332318
0.00332318
0.00332318
0.00328665
0.00328665
0.00328665
0.00328665
0.00330776
0.00332613
0.00332316
0.00331093
0.00332601
0.00330783
0.0033109
0.00332571
0.00330737
0.00330776
0.00332316
0.00332613
0.00331093
0.00332601
0.0033109
0.00330783
0.00332611
0.00332611
0.00330785
0.00330774
0.00330774
0.0032597
0.00327725
0.00327757
0.00325942
0.00327715
0.00325932
0.0032597
0.00327725
0.00327757
0.00325942
0.00327465
0.00327465
0.00327465
0.00323911
0.00323911
0.00323911
0.00323911
0.00325968
0.00327751
0.00327463
0.00326274
0.00327742
0.00325974
0.00326271
0.00327715
0.00325932
0.00325968
0.00327463
0.00327751
0.00326274
0.00327742
0.00326271
0.00325974
0.00327751
0.00327751
0.00325978
0.00325966
0.00325966
0.0032128
0.00322999
0.00323022
0.0032126
0.0032299
0.00321251
0.00321281
0.00322999
0.00323022
0.0032126
0.00322742
0.00322742
0.00322742
0.00319273
0.00319273
0.00319273
0.00319273
0.00321284
0.00323022
0.0032274
0.00321581
0.00323014
0.0032129
0.00321577
0.0032299
0.00321251
0.00321285
0.0032274
0.00323022
0.00321581
0.00323014
0.00321578
0.0032129
0.00323022
0.00323022
0.00321294
0.00321281
0.00321281
0.00316697
0.00318384
0.00318401
0.00316681
0.00318375
0.00316672
0.00316697
0.00318384
0.00318401
0.00316681
0.00318129
0.00318129
0.00318129
0.00314729
0.00314729
0.00314729
0.00314729
0.00316705
0.00318405
0.00318127
0.00316992
0.00318398
0.00316709
0.00316989
0.00318375
0.00316672
0.00316704
0.00318127
0.00318405
0.00316992
0.00318398
0.00316989
0.00316709
0.00318405
0.00318405
0.00316712
0.003167
0.003167
0.00312198
0.00313858
0.00313873
0.00312184
0.0031385
0.00312176
0.00312198
0.00313858
0.00313873
0.00312184
0.00313605
0.00313605
0.00313605
0.00310261
0.00310261
0.00310261
0.00310261
0.00312208
0.00313878
0.00313605
0.00312489
0.00313872
0.00312212
0.00312486
0.0031385
0.00312176
0.00312208
0.00313605
0.00313878
0.00312489
0.00313872
0.00312486
0.00312212
0.00313878
0.00313878
0.00312214
0.00312202
0.00312202
0.00307767
0.00309405
0.00309418
0.00307754
0.00309397
0.00307747
0.00307767
0.00309405
0.00309418
0.00307755
0.00309154
0.00309154
0.00309154
0.00305856
0.00305856
0.00305856
0.00305856
0.00307779
0.00309425
0.00309154
0.00308054
0.0030942
0.00307782
0.00308051
0.00309397
0.00307747
0.00307779
0.00309154
0.00309425
0.00308054
0.0030942
0.00308051
0.00307782
0.00309423
0.00309423
0.00307783
0.00307771
0.00307771
0.00303393
0.00305011
0.00305024
0.00303381
0.00305004
0.00303373
0.00303393
0.00305011
0.00305024
0.00303381
0.00304763
0.00304763
0.00304763
0.00301504
0.00301504
0.00301504
0.00301504
0.00303408
0.0030503
0.00304763
0.00303676
0.00305027
0.00303409
0.00303674
0.00305004
0.00303373
0.00303408
0.00304763
0.0030503
0.00303676
0.00305027
0.00303674
0.00303409
0.00305028
0.00305028
0.00303409
0.00303396
0.00303396
0.00299069
0.00300669
0.00300681
0.00299056
0.00300662
0.00299049
0.00299069
0.00300669
0.00300681
0.00299056
0.00300424
0.00300424
0.00300424
0.002972
0.002972
0.002972
0.002972
0.00299085
0.00300687
0.00300424
0.00299348
0.00300687
0.00299084
0.00299347
0.00300662
0.00299049
0.00299085
0.00300424
0.00300687
0.00299348
0.00300687
0.00299347
0.00299084
0.00300684
0.00300684
0.00299083
0.0029907
0.0029907
0.0029479
0.00296373
0.00296386
0.00294777
0.00296366
0.00294771
0.0029479
0.00296373
0.00296386
0.00294777
0.00296131
0.00296131
0.00296131
0.0029294
0.0029294
0.0029294
0.0029294
0.00294808
0.00296391
0.00296132
0.00295066
0.00296393
0.00294804
0.00295066
0.00296366
0.00294771
0.00294808
0.00296132
0.00296391
0.00295066
0.00296393
0.00295066
0.00294804
0.00296387
0.00296386
0.00294807
0.00294789
0.00294789
0.00290553
0.0029212
0.00292133
0.0029054
0.00292115
0.00290535
0.00290553
0.0029212
0.00292133
0.0029054
0.00291882
0.00291882
0.00291882
0.00288721
0.00288721
0.00288721
0.00288721
0.00290574
0.00292137
0.00291883
0.00290827
0.00292142
0.00290566
0.00290827
0.00292115
0.00290535
0.00290574
0.00291883
0.00292137
0.00290827
0.00292142
0.00290827
0.00290567
0.00292133
0.00292133
0.00290571
0.00290552
0.00290551
0.00286356
0.00287909
0.00287921
0.00286343
0.00287903
0.00286339
0.00286356
0.00287909
0.00287921
0.00286343
0.00287673
0.00287673
0.00287673
0.00284541
0.00284541
0.00284541
0.00284541
0.00286379
0.00287925
0.00287674
0.00286627
0.00287932
0.00286369
0.00286628
0.00287904
0.00286339
0.00286379
0.00287674
0.00287925
0.00286627
0.00287932
0.00286628
0.00286369
0.0028792
0.0028792
0.00286375
0.00286354
0.00286354
0.00282196
0.00283736
0.00283748
0.00282184
0.00283732
0.0028218
0.00282196
0.00283736
0.00283748
0.00282184
0.00283502
0.00283502
0.00283502
0.00280398
0.00280398
0.00280398
0.00280398
0.00282221
0.00283751
0.00283504
0.00282465
0.0028376
0.00282209
0.00282467
0.00283732
0.0028218
0.00282221
0.00283504
0.00283751
0.00282465
0.0028376
0.00282467
0.00282209
0.00283746
0.00283746
0.00282217
0.00282193
0.00282193
0.00278071
0.00279599
0.0027961
0.0027806
0.00279595
0.00278057
0.00278071
0.00279599
0.0027961
0.0027806
0.00279367
0.00279367
0.00279367
0.00276288
0.00276288
0.00276288
0.00276288
0.00278098
0.00279612
0.00279369
0.00278338
0.00279624
0.00278083
0.0027834
0.00279595
0.00278057
0.00278098
0.00279369
0.00279612
0.00278338
0.00279624
0.00278341
0.00278083
0.00279608
0.00279608
0.00278093
0.00278068
0.00278068
0.00273979
0.00275496
0.00275506
0.00273969
0.00275493
0.00273966
0.00273979
0.00275496
0.00275506
0.00273969
0.00275266
0.00275266
0.00275266
0.0027221
0.0027221
0.0027221
0.0027221
0.00274007
0.00275508
0.00275267
0.00274244
0.0027552
0.00273991
0.00274247
0.00275493
0.00273966
0.00274007
0.00275267
0.00275508
0.00274244
0.0027552
0.00274247
0.00273991
0.00275504
0.00275504
0.00274002
0.00273976
0.00273976
0.00269918
0.00271424
0.00271433
0.00269908
0.0027142
0.00269906
0.00269918
0.00271424
0.00271433
0.00269908
0.00271196
0.00271196
0.00271196
0.00268162
0.00268162
0.00268163
0.00268162
0.00269945
0.00271434
0.00271196
0.0027018
0.00271447
0.00269928
0.00270183
0.00271421
0.00269905
0.00269945
0.00271197
0.00271434
0.0027018
0.00271447
0.00270183
0.00269928
0.00271431
0.00271431
0.00269942
0.00269914
0.00269914
0.00265885
0.00267382
0.0026739
0.00265875
0.00267378
0.00265874
0.00267381
0.0026739
0.00265876
0.00267155
0.00267155
0.00267155
0.00265912
0.0026739
0.00267154
0.00266145
0.00267403
0.00265894
0.00266148
0.00267379
0.00265912
0.00267154
0.0026739
0.00267403
0.00266148
0.00267388
0.00267388
0.0026591
0.00265881
0.00265881
0.0036231
0.00365087
0.00365089
0.00361523
0.00365041
0.00361521
0.00365043
0.00361996
0.00360701
0.00360702
0.00364568
0.0036457
0.00363174
0.00361853
0.00364713
0.00361258
0.00363174
0.00361853
0.00364713
0.00361258
0.00363626
0.00360731
0.00364754
0.00360211
0.00363626
0.00360729
0.00364754
0.00360212
0.00362734
0.00361606
0.00359848
0.00359888
0.00364241
0.00361102
0.0035991
0.00362734
0.00361606
0.00359848
0.00359888
0.00364241
0.00361102
0.00359911
0.0036231
0.00365087
0.00365088
0.0036152
0.00365041
0.00361996
0.003607
0.00360703
0.00364569
0.00364569
0.00361523
0.00365041
0.00363175
0.00361854
0.00364715
0.00361258
0.00363175
0.00361854
0.00361258
0.00364714
0.00363628
0.00360729
0.00364755
0.00360212
0.00362736
0.00361606
0.00359848
0.00359888
0.00364242
0.00361102
0.00359912
0.00363628
0.00360731
0.00364755
0.00360211
0.00362735
0.00361606
0.00359889
0.00359848
0.00361102
0.00364241
0.00359911
0.00360481
0.00361457
0.00360937
0.00360937
0.00360481
0.00361457
0.00360937
0.00360937
0.00360481
0.00361457
0.00360937
0.00360937
0.00360357
0.00361265
0.00359554
0.00359554
0.00360794
0.00360794
0.00359371
0.00360357
0.00361265
0.00359554
0.00359554
0.00360794
0.00360794
0.00359371
0.00360357
0.00361266
0.00359554
0.00359554
0.00360794
0.00360794
0.00359371
0.00360357
0.00361266
0.00359554
0.00359554
0.00360794
0.00360794
0.00359371
0.00363175
0.00361854
0.00361258
0.00364714
0.00362736
0.00361606
0.00359848
0.00359888
0.00364241
0.00361102
0.00359911
0.00363628
0.0036073
0.00364755
0.00360212
0.00362735
0.00361606
0.00359888
0.00359848
0.00361102
0.00364241
0.00359911
0.00363628
0.0036073
0.00364755
0.00360211
0.00362311
0.00365089
0.00365088
0.00361518
0.00365041
0.00361996
0.00360702
0.00360702
0.00364569
0.0036457
0.00361518
0.00365042
0.00363175
0.00361854
0.00361258
0.00364714
0.00362736
0.00361606
0.00359889
0.00359849
0.00361102
0.00364242
0.00359911
0.00362736
0.00361606
0.00359889
0.00359848
0.00361102
0.00364242
0.00359912
0.00363628
0.0036073
0.00364755
0.00360211
0.00363628
0.00360731
0.00364755
0.00360212
0.00361996
0.00360702
0.00360702
0.00364569
0.00364569
0.00361518
0.00365041
0.00361521
0.00365042
0.00355298
0.00355575
0.00355308
0.00355573
0.00358933
0.00358936
0.00356091
0.0035562
0.0035562
0.00353849
0.00355539
0.00353849
0.0035554
0.00355424
0.00354109
0.0035411
0.00355435
0.00355435
0.00356016
0.0035793
0.00358851
0.00355224
0.00355769
0.00358349
0.00358342
0.00356649
0.00358651
0.00355657
0.00356738
0.00355768
0.00358349
0.00358342
0.00356649
0.00358652
0.00355658
0.00356738
0.00355562
0.00354022
0.00355314
0.00354097
0.00355561
0.00354022
0.00355314
0.00354097
0.00355266
0.00355218
0.00353991
0.00353966
0.00355373
0.0035526
0.00353825
0.00355265
0.00355218
0.00353991
0.00353966
0.00355374
0.0035526
0.00353825
0.00358932
0.00358937
0.00356091
0.0035562
0.0035562
0.00355313
0.00355573
0.00353849
0.0035554
0.00355424
0.00354109
0.00354109
0.00355436
0.00355435
0.00353848
0.00355541
0.00355767
0.00358349
0.00358342
0.00356649
0.00358652
0.00355657
0.00356737
0.00356015
0.0035793
0.00358849
0.00355225
0.00355767
0.00358343
0.00358349
0.00356649
0.00358651
0.00356737
0.00355657
0.00355561
0.00354022
0.00355314
0.00354097
0.00355264
0.00355218
0.00353991
0.00353966
0.00355373
0.00355259
0.00353825
0.00355561
0.00354022
0.00355315
0.00354097
0.00355265
0.00355218
0.00353966
0.0035399
0.00355259
0.00355373
0.00353825
0.00356014
0.0035793
0.00358849
0.00355223
0.00355767
0.00358342
0.0035835
0.00356649
0.00358651
0.00356737
0.00355657
0.00356015
0.00357931
0.00358848
0.00355224
0.00355264
0.00355218
0.0035399
0.00353966
0.00355372
0.00355259
0.00353825
0.00355561
0.00354022
0.00355314
0.00354097
0.00355265
0.00355218
0.00353966
0.00353991
0.00355259
0.00355372
0.00353825
0.00355561
0.00354022
0.00355313
0.00354097
0.00358936
0.00358937
0.00356089
0.00355621
0.0035562
0.00355309
0.00355573
0.00353848
0.00355541
0.00355424
0.00354109
0.0035411
0.00355436
0.00355434
0.00353849
0.00355537
0.00355766
0.00358343
0.00358349
0.0035665
0.00358652
0.00356737
0.00355657
0.00356015
0.00357931
0.00358848
0.00355223
0.00356014
0.00357931
0.00358849
0.00355223
0.00355265
0.00355218
0.00353966
0.00353991
0.00355259
0.00355372
0.00353825
0.00355264
0.00355218
0.00353966
0.0035399
0.0035526
0.00355372
0.00353825
0.00355561
0.00354022
0.00355314
0.00354097
0.00355561
0.00354022
0.00355314
0.00354096
0.00355312
0.00355573
0.00355311
0.00355573
0.00355424
0.0035411
0.00354109
0.00355435
0.00355435
0.0035385
0.00355538
0.00353848
0.00355539
0.00353172
0.00351162
0.00353171
0.00351162
0.0035339
0.0035339
0.00351234
0.00351299
0.00351299
0.00348623
0.00350519
0.00348623
0.00350519
0.00350554
0.0034873
0.0034873
0.00350653
0.00350653
0.00351353
0.00353281
0.00353417
0.00351206
0.00351211
0.00353289
0.00352766
0.00351579
0.00353167
0.00351266
0.00351552
0.00351211
0.00353289
0.00352766
0.00351579
0.00353167
0.00351266
0.00351552
0.003507
0.00348664
0.00350569
0.00348774
0.003507
0.00348664
0.00350569
0.00348774
0.00350558
0.00350303
0.00348711
0.00348991
0.00350621
0.00350289
0.00348657
0.00350558
0.00350303
0.00348711
0.00348991
0.00350621
0.00350289
0.00348657
0.0035339
0.0035339
0.00351234
0.00351299
0.00351299
0.00353172
0.00351163
0.00348623
0.00350519
0.00350555
0.0034873
0.0034873
0.00350653
0.00350653
0.00348623
0.00350519
0.00351211
0.00353288
0.00352766
0.00351579
0.00353167
0.00351265
0.00351552
0.00351353
0.0035328
0.00353417
0.00351206
0.00351211
0.00352766
0.00353288
0.00351579
0.00353167
0.00351552
0.00351265
0.003507
0.00348664
0.00350568
0.00348774
0.00350558
0.00350303
0.00348711
0.00348991
0.0035062
0.00350289
0.00348657
0.003507
0.00348664
0.00350568
0.00348774
0.00350558
0.00350303
0.00348991
0.00348711
0.00350289
0.0035062
0.00348657
0.00351353
0.00353281
0.00353417
0.00351207
0.00351211
0.00352766
0.00353289
0.00351579
0.00353167
0.00351552
0.00351265
0.00351353
0.00353281
0.00353417
0.00351206
0.00350558
0.00350303
0.00348711
0.00348991
0.0035062
0.00350289
0.00348657
0.003507
0.00348664
0.00350569
0.00348774
0.00350558
0.00350303
0.00348991
0.00348711
0.00350289
0.0035062
0.00348657
0.003507
0.00348664
0.00350568
0.00348774
0.0035339
0.0035339
0.00351234
0.00351299
0.00351299
0.00353172
0.00351162
0.00348623
0.00350519
0.00350554
0.0034873
0.0034873
0.00350652
0.00350653
0.00348623
0.00350519
0.00351211
0.00352766
0.00353288
0.00351579
0.00353167
0.00351552
0.00351265
0.00351353
0.0035328
0.00353417
0.00351206
0.00351353
0.0035328
0.00353417
0.00351206
0.00350558
0.00350303
0.00348991
0.00348711
0.00350289
0.0035062
0.00348657
0.00350558
0.00350303
0.00348991
0.00348711
0.00350289
0.0035062
0.00348657
0.003507
0.00348664
0.00350569
0.00348774
0.003507
0.00348664
0.00350569
0.00348774
0.00353172
0.00351162
0.00353171
0.00351162
0.00350554
0.0034873
0.0034873
0.00350653
0.00350653
0.00348623
0.00350519
0.00348623
0.00350519
0.0034797
0.00345995
0.0034797
0.00345995
0.00348071
0.00348071
0.00346035
0.00346079
0.00346079
0.00343372
0.00345333
0.00343372
0.00345333
0.0034534
0.0034344
0.0034344
0.00345413
0.00345413
0.00346126
0.00348006
0.00348114
0.00346024
0.00346036
0.00348047
0.00347678
0.00346374
0.0034799
0.00346072
0.00346364
0.00346036
0.00348047
0.00347678
0.00346374
0.0034799
0.00346072
0.00346364
0.00345459
0.00343394
0.00345359
0.00343484
0.00345458
0.00343394
0.00345359
0.00343484
0.00345364
0.00345062
0.00343442
0.00343748
0.00345402
0.00345054
0.00343416
0.00345364
0.00345062
0.00343442
0.00343748
0.00345402
0.00345054
0.00343416
0.00348071
0.00348071
0.00346035
0.00346079
0.00346079
0.0034797
0.00345995
0.00343372
0.00345333
0.0034534
0.0034344
0.0034344
0.00345413
0.00345413
0.00343372
0.00345333
0.00346036
0.00348047
0.00347678
0.00346374
0.0034799
0.00346072
0.00346364
0.00346126
0.00348006
0.00348114
0.00346024
0.00346036
0.00347678
0.00348046
0.00346374
0.0034799
0.00346364
0.00346072
0.00345459
0.00343394
0.00345359
0.00343484
0.00345364
0.00345062
0.00343442
0.00343748
0.00345402
0.00345054
0.00343416
0.00345459
0.00343394
0.00345359
0.00343484
0.00345364
0.00345062
0.00343748
0.00343442
0.00345054
0.00345402
0.00343416
0.00346126
0.00348006
0.00348114
0.00346024
0.00346036
0.00347678
0.00348047
0.00346374
0.0034799
0.00346364
0.00346072
0.00346126
0.00348006
0.00348114
0.00346024
0.00345364
0.00345062
0.00343442
0.00343748
0.00345402
0.00345054
0.00343416
0.00345459
0.00343394
0.00345359
0.00343484
0.00345364
0.00345062
0.00343748
0.00343442
0.00345054
0.00345402
0.00343416
0.00345458
0.00343394
0.00345359
0.00343484
0.00348071
0.00348071
0.00346035
0.00346079
0.00346079
0.0034797
0.00345995
0.00343372
0.00345333
0.0034534
0.0034344
0.0034344
0.00345413
0.00345413
0.00343372
0.00345333
0.00346036
0.00347678
0.00348047
0.00346374
0.0034799
0.00346364
0.00346072
0.00346126
0.00348006
0.00348114
0.00346024
0.00346126
0.00348006
0.00348114
0.00346024
0.00345364
0.00345062
0.00343748
0.00343442
0.00345054
0.00345402
0.00343416
0.00345364
0.00345062
0.00343748
0.00343442
0.00345054
0.00345402
0.00343416
0.00345459
0.00343394
0.00345359
0.00343484
0.00345459
0.00343394
0.00345359
0.00343484
0.0034797
0.00345995
0.0034797
0.00345995
0.0034534
0.0034344
0.0034344
0.00345413
0.00345413
0.00343372
0.00345333
0.00343372
0.00345333
0.00342718
0.00340778
0.00342718
0.00340778
0.00342783
0.00342783
0.00340826
0.00340834
0.00340834
0.00338213
0.0034013
0.00338213
0.0034013
0.00340146
0.00338262
0.00338262
0.00340185
0.00340185
0.00340873
0.00342739
0.00342825
0.00340796
0.00340822
0.00342779
0.00342448
0.00341158
0.00342751
0.00340841
0.00341154
0.00340822
0.00342779
0.00342448
0.00341158
0.00342751
0.00340841
0.00341154
0.00340221
0.00338228
0.00340147
0.00338294
0.00340221
0.00338228
0.00340147
0.00338294
0.00340164
0.0033987
0.0033827
0.00338586
0.00340185
0.00339866
0.00338257
0.00340164
0.0033987
0.0033827
0.00338586
0.00340185
0.00339866
0.00338257
0.00342783
0.00342783
0.00340826
0.00340834
0.00340834
0.00342718
0.00340778
0.00338213
0.0034013
0.00340146
0.00338262
0.00338262
0.00340185
0.00340185
0.00338213
0.0034013
0.00340822
0.00342779
0.00342448
0.00341158
0.00342751
0.00340841
0.00341154
0.00340873
0.00342739
0.00342825
0.00340796
0.00340822
0.00342448
0.00342779
0.00341158
0.00342751
0.00341154
0.00340841
0.00340221
0.00338228
0.00340147
0.00338294
0.00340164
0.0033987
0.0033827
0.00338586
0.00340185
0.00339866
0.00338256
0.00340221
0.00338228
0.00340147
0.00338294
0.00340164
0.0033987
0.00338586
0.0033827
0.00339866
0.00340185
0.00338256
0.00340873
0.00342739
0.00342825
0.00340796
0.00340822
0.00342448
0.00342779
0.00341158
0.00342751
0.00341154
0.00340841
0.00340873
0.00342739
0.00342825
0.00340796
0.00340164
0.0033987
0.0033827
0.00338586
0.00340185
0.00339866
0.00338256
0.00340221
0.00338228
0.00340147
0.00338294
0.00340164
0.0033987
0.00338586
0.0033827
0.00339866
0.00340185
0.00338256
0.00340221
0.00338228
0.00340147
0.00338294
0.00342783
0.00342783
0.00340826
0.00340834
0.00340834
0.00342718
0.00340778
0.00338213
0.0034013
0.00340146
0.00338262
0.00338262
0.00340185
0.00340185
0.00338213
0.0034013
0.00340822
0.00342448
0.00342779
0.00341158
0.00342751
0.00341154
0.00340841
0.00340873
0.00342739
0.00342825
0.00340796
0.00340873
0.00342739
0.00342825
0.00340796
0.00340164
0.0033987
0.00338586
0.0033827
0.00339866
0.00340185
0.00338256
0.00340164
0.0033987
0.00338586
0.0033827
0.00339866
0.00340185
0.00338256
0.00340221
0.00338228
0.00340147
0.00338294
0.00340221
0.00338228
0.00340147
0.00338294
0.00342718
0.00340778
0.00342718
0.00340778
0.00340146
0.00338262
0.00338262
0.00340185
0.00340185
0.00338213
0.0034013
0.00338213
0.0034013
0.00337574
0.00335684
0.00337574
0.00335684
0.00337622
0.00337622
0.00335734
0.00335727
0.00335727
0.00333192
0.00335054
0.00333192
0.00335054
0.00335073
0.00333232
0.00333232
0.00335097
0.00335097
0.00335753
0.00337589
0.00337652
0.00335697
0.00335726
0.00337623
0.00337314
0.00336053
0.00337606
0.00335736
0.00336051
0.00335726
0.00337624
0.00337314
0.00336054
0.00337606
0.00335736
0.00336051
0.0033512
0.00333204
0.00335067
0.00333251
0.0033512
0.00333204
0.00335067
0.00333251
0.00335085
0.00334799
0.00333241
0.00333552
0.00335099
0.00334797
0.00333232
0.00335085
0.00334799
0.00333241
0.00333552
0.00335099
0.00334797
0.00333232
0.00337622
0.00337622
0.00335734
0.00335727
0.00335727
0.00337574
0.00335684
0.00333192
0.00335053
0.00335073
0.00333232
0.00333232
0.00335097
0.00335097
0.00333192
0.00335054
0.00335726
0.00337623
0.00337314
0.00336053
0.00337606
0.00335736
0.00336051
0.00335753
0.00337588
0.00337652
0.00335697
0.00335726
0.00337314
0.00337623
0.00336054
0.00337606
0.00336051
0.00335736
0.0033512
0.00333204
0.00335067
0.00333251
0.00335085
0.00334799
0.00333241
0.00333552
0.00335099
0.00334797
0.00333232
0.0033512
0.00333204
0.00335067
0.00333251
0.00335085
0.00334799
0.00333552
0.00333241
0.00334797
0.00335099
0.00333232
0.00335753
0.00337588
0.00337652
0.00335697
0.00335726
0.00337314
0.00337623
0.00336053
0.00337606
0.00336051
0.00335736
0.00335753
0.00337588
0.00337652
0.00335697
0.00335085
0.00334799
0.00333241
0.00333552
0.00335099
0.00334797
0.00333232
0.0033512
0.00333204
0.00335067
0.00333251
0.00335085
0.00334799
0.00333552
0.00333241
0.00334797
0.00335099
0.00333232
0.0033512
0.00333204
0.00335067
0.00333251
0.00337622
0.00337622
0.00335733
0.00335727
0.00335727
0.00337574
0.00335684
0.00333192
0.00335054
0.00335073
0.00333232
0.00333232
0.00335097
0.00335097
0.00333192
0.00335054
0.00335726
0.00337314
0.00337623
0.00336053
0.00337606
0.00336051
0.00335736
0.00335753
0.00337588
0.00337651
0.00335697
0.00335753
0.00337588
0.00337652
0.00335697
0.00335085
0.00334799
0.00333552
0.00333241
0.00334797
0.00335099
0.00333232
0.00335085
0.00334799
0.00333552
0.00333241
0.00334797
0.00335099
0.00333232
0.0033512
0.00333204
0.00335067
0.00333251
0.0033512
0.00333204
0.00335066
0.00333251
0.00337574
0.00335684
0.00337574
0.00335684
0.00335073
0.00333232
0.00333232
0.00335097
0.00335097
0.00333192
0.00335054
0.00333192
0.00335054
0.00332571
0.00330737
0.00332571
0.00330737
0.00332611
0.00332611
0.00330785
0.00330774
0.00330774
0.00328318
0.00330125
0.00328318
0.00330125
0.00330145
0.00328353
0.00328353
0.00330163
0.00330163
0.00330788
0.00332583
0.00332628
0.00330748
0.00330776
0.00332613
0.00332316
0.00331093
0.00332601
0.00330783
0.0033109
0.00330776
0.00332613
0.00332316
0.00331093
0.00332601
0.00330783
0.0033109
0.00330174
0.00328329
0.00330136
0.00328361
0.00330174
0.00328328
0.00330136
0.00328361
0.00330154
0.00329875
0.00328362
0.00328664
0.00330164
0.00329872
0.00328355
0.00330154
0.00329875
0.00328361
0.00328664
0.00330164