/*--------------------------------*- C++ -*----------------------------------*\
| =========                 |                                                 |
| \\      /  F ield         | OpenFOAM: The Open Source CFD Toolbox           |
|  \\    /   O peration     | Version:  v1906                                 |
|   \\  /    A nd           | Web:      www.OpenFOAM.com                      |
|    \\/     M anipulation  |                                                 |
\*---------------------------------------------------------------------------*/
FoamFile
{
    version     2.0;
    format      ascii;
    class       surfaceScalarField;
    location    "125";
    object      phi;
}
// * * * * * * * * * * * * * * * * * * * * * * * * * * * * * * * * * * * * * //

dimensions      [0 3 -1 0 0 0 0];
oriented        oriented;


internalField   nonuniform List<scalar> 
123728
(
-0.00104221
-1.45815e-05
-1.44777e-05
9.34771e-06
9.17762e-06
0.00105274
-0.00026146
-5.64183e-06
1.44583e-05
6.83957e-06
0.00105941
-4.53274e-06
-1.62486e-06
-2.21805e-06
-2.57554e-06
-6.59144e-06
-7.04427e-06
-3.16376e-06
-0.000263303
-0.000259727
-0.000262829
-0.000261437
-5.64682e-06
1.44873e-05
6.92911e-06
0.0010592
-4.53786e-06
-1.63504e-06
-2.22565e-06
-2.57985e-06
-6.58553e-06
-7.04034e-06
-3.16594e-06
-0.000259699
-0.000263274
-0.000262793
-0.000260564
5.61732e-06
5.65742e-06
-4.87815e-06
-4.87222e-06
0.00025904
-1.63187e-06
-1.63376e-06
-0.00106073
8.98537e-07
8.99307e-07
0.0010622
-0.00106267
-1.60665e-06
1.62783e-06
8.28418e-07
0.00106395
-6.53886e-07
7.84504e-07
-1.48154e-07
3.78007e-07
-8.00662e-07
-1.39484e-06
-2.90558e-07
-0.00106235
-1.60156e-06
1.63834e-06
8.23607e-07
0.00106363
-6.53864e-07
7.79014e-07
-1.48202e-07
3.7539e-07
-8.0319e-07
-1.39453e-06
-2.88012e-07
-0.000261533
1.63928e-06
1.60171e-06
-7.13269e-07
-7.16419e-07
0.000259722
-1.36113e-06
-1.36255e-06
-0.0010664
6.82253e-07
6.83063e-07
0.00106775
-0.0010679
-1.55715e-06
1.3673e-06
6.90356e-07
0.00106925
-6.2182e-07
8.38624e-07
-1.06573e-07
4.24387e-07
-7.804e-07
-1.35996e-06
-2.45176e-07
-0.00106758
-1.55189e-06
1.36211e-06
6.9568e-07
0.00106892
-6.21818e-07
8.33211e-07
-1.06546e-07
4.24332e-07
-7.80323e-07
-1.35441e-06
-2.42622e-07
-0.000262766
1.58732e-06
1.55204e-06
-6.74941e-07
-6.83117e-07
0.000260984
-1.34099e-06
-1.34229e-06
-0.00107186
6.64411e-07
6.65262e-07
0.00107322
-0.00107326
-1.55555e-06
1.34196e-06
6.67273e-07
0.00107457
-6.19902e-07
8.63793e-07
-8.15834e-08
4.382e-07
-7.79443e-07
-1.36934e-06
-2.20278e-07
-0.00107292
-1.55022e-06
1.34186e-06
6.6735e-07
0.00107424
-6.17197e-07
8.58365e-07
-8.40398e-08
4.38144e-07
-7.81908e-07
-1.36911e-06
-2.17715e-07
-0.000264044
1.58325e-06
1.55043e-06
-6.64604e-07
-6.7026e-07
0.000262245
-1.29596e-06
-1.29715e-06
-0.00107721
6.42271e-07
6.43163e-07
0.00107852
-0.00107844
-1.54741e-06
1.29688e-06
6.34126e-07
0.00107969
-6.0736e-07
8.91634e-07
-5.62661e-08
4.60151e-07
-7.68228e-07
-1.37183e-06
-1.8899e-07
-0.0010781
-1.54202e-06
1.29671e-06
6.34133e-07
0.00107936
-6.04621e-07
8.86217e-07
-5.86802e-08
4.60087e-07
-7.70694e-07
-1.37161e-06
-1.86418e-07
-0.000265263
1.57524e-06
1.54224e-06
-6.4764e-07
-6.53308e-07
0.000263446
-1.24842e-06
-1.2495e-06
-0.00108237
6.20376e-07
6.21295e-07
0.00108362
-0.00108337
-1.53904e-06
1.24926e-06
6.04481e-07
0.00108457
-5.95142e-07
9.17269e-07
-3.39466e-08
4.84434e-07
-7.53947e-07
-1.36933e-06
-1.58454e-07
-0.00108303
-1.53361e-06
1.24905e-06
6.04441e-07
0.00108423
-5.92376e-07
9.11848e-07
-3.63093e-08
4.84364e-07
-7.56426e-07
-1.36911e-06
-1.55886e-07
-0.000266408
1.56701e-06
1.53384e-06
-6.30761e-07
-6.36439e-07
0.000264575
-1.20434e-06
-1.20523e-06
-0.00108732
6.00852e-07
6.01745e-07
0.00108852
-0.00108806
-1.53241e-06
1.20496e-06
5.80573e-07
0.00108919
-5.85503e-07
9.40151e-07
-1.53584e-08
5.09136e-07
-7.40159e-07
-1.36514e-06
-1.3052e-07
-0.00108772
-1.52701e-06
1.20474e-06
5.80609e-07
0.00108885
-5.82773e-07
9.3466e-07
-1.76783e-08
5.09059e-07
-7.42661e-07
-1.36494e-06
-1.27965e-07
-0.00026748
1.56057e-06
1.52725e-06
-6.16211e-07
-6.2191e-07
0.00026563
-1.16557e-06
-1.16685e-06
-0.00109208
5.84403e-07
5.85347e-07
0.00109324
-0.00109251
-1.52795e-06
1.16661e-06
5.62492e-07
0.00109359
-5.78925e-07
9.60191e-07
-1.05736e-09
5.33142e-07
-7.27998e-07
-1.36104e-06
-1.05723e-07
-0.00109217
-1.52253e-06
1.16643e-06
5.62651e-07
0.00109325
-5.76174e-07
9.54685e-07
-3.06718e-09
5.33074e-07
-7.30499e-07
-1.36082e-06
-1.03164e-07
-0.000268483
1.55635e-06
1.52284e-06
-6.04334e-07
-6.10087e-07
0.000266618
-1.13188e-06
-1.13316e-06
-0.00109667
5.70316e-07
5.70993e-07
0.00109779
-0.00109676
-1.52671e-06
1.13296e-06
5.48754e-07
0.00109779
-5.75615e-07
9.76816e-07
1.68684e-08
5.55685e-07
-7.17574e-07
-1.35784e-06
-8.41072e-08
-0.00109641
-1.52118e-06
1.13291e-06
5.48826e-07
0.00109744
-5.72789e-07
9.71389e-07
1.37969e-08
5.55694e-07
-7.20011e-07
-1.35754e-06
-8.14881e-08
-0.000269423
1.55489e-06
1.52126e-06
-5.95794e-07
-6.01467e-07
0.000267544
-1.10335e-06
-1.10447e-06
-0.00110111
5.58637e-07
5.593e-07
0.0011022
-0.00110081
-1.52707e-06
1.10427e-06
5.38075e-07
0.0011018
-5.73991e-07
9.91984e-07
3.12147e-08
5.77078e-07
-7.08081e-07
-1.35511e-06
-6.52287e-08
-0.00110047
-1.52152e-06
1.10416e-06
5.38088e-07
0.00110145
-5.71177e-07
9.86531e-07
2.82744e-08
5.77072e-07
-7.10534e-07
-1.35483e-06
-6.26359e-08
-0.000270305
1.55539e-06
1.52163e-06
-5.8942e-07
-5.95145e-07
0.000268412
-1.07857e-06
-1.07955e-06
-0.00110542
5.48751e-07
5.49438e-07
0.00110648
-0.0011047
-1.52831e-06
1.07938e-06
5.28984e-07
0.00110564
-5.70774e-07
1.0062e-06
4.06007e-08
5.97219e-07
-6.98746e-07
-1.35231e-06
-4.89365e-08
-0.00110435
-1.52276e-06
1.07922e-06
5.28956e-07
0.0011053
-5.70708e-07
1.00071e-06
4.06528e-08
5.97197e-07
-7.01252e-07
-1.35204e-06
-4.63699e-08
-0.000271132
1.55678e-06
1.52289e-06
-5.84214e-07
-5.89973e-07
0.000269227
-1.05579e-06
-1.05679e-06
-0.00110962
5.39674e-07
5.40342e-07
0.00111065
-0.00110843
-1.52988e-06
1.05666e-06
5.20069e-07
0.00110934
-5.7039e-07
1.0198e-06
5.17036e-08
6.15896e-07
-6.88806e-07
-1.34877e-06
-3.48735e-08
-0.00110808
-1.52431e-06
1.05648e-06
5.20046e-07
0.00110899
-5.7031e-07
1.01431e-06
5.17681e-08
6.15879e-07
-6.91316e-07
-1.3485e-06
-3.23341e-08
-0.000271907
1.55847e-06
1.52446e-06
-5.7945e-07
-5.85244e-07
0.000269989
-1.03421e-06
-1.03514e-06
-0.00111371
5.30906e-07
5.3158e-07
0.00111472
-0.00111201
-1.53129e-06
1.03503e-06
5.10694e-07
0.00111288
-5.69092e-07
1.03315e-06
6.19131e-08
6.32932e-07
-6.7771e-07
-1.34414e-06
-2.27295e-08
-0.00111166
-1.52569e-06
1.03483e-06
5.10658e-07
0.00111253
-5.68996e-07
1.02765e-06
6.19901e-08
6.3292e-07
-6.80222e-07
-1.34386e-06
-2.02388e-08
-0.00027263
1.56001e-06
1.52586e-06
-5.74783e-07
-5.80663e-07
0.0002707
-1.01332e-06
-1.0142e-06
-0.0011177
5.2229e-07
5.23029e-07
0.00111868
-0.00111543
-1.53281e-06
1.01411e-06
5.00598e-07
0.00111627
-5.66533e-07
1.04585e-06
7.12592e-08
6.48519e-07
-6.65001e-07
-1.33792e-06
-1.20472e-08
-0.00111508
-1.52709e-06
1.01389e-06
5.00605e-07
0.00111592
-5.66412e-07
1.04039e-06
7.1346e-08
6.48516e-07
-6.67516e-07
-1.33763e-06
-9.65677e-09
-0.0002733
1.56153e-06
1.52737e-06
-5.69678e-07
-5.75297e-07
0.000271356
-9.92425e-07
-9.93183e-07
-0.00112159
5.13348e-07
5.14082e-07
0.00112255
-0.00111871
-1.53326e-06
9.93132e-07
4.9027e-07
0.00111951
-5.62592e-07
1.05874e-06
7.97565e-08
6.62437e-07
-6.5086e-07
-1.33007e-06
-3.18949e-09
-0.00111836
-1.52765e-06
9.92942e-07
4.90139e-07
0.00111916
-5.62431e-07
1.05318e-06
7.99046e-08
6.62458e-07
-6.53359e-07
-1.32976e-06
-1.08129e-09
-0.000273915
1.56204e-06
1.52779e-06
-5.62364e-07
-5.68065e-07
0.000271955
-9.71034e-07
-9.71779e-07
-0.00112539
5.03964e-07
5.04694e-07
0.00112633
-0.00112184
-1.533e-06
9.71783e-07
4.77906e-07
0.00112259
-5.5697e-07
1.07095e-06
8.75142e-08
6.74518e-07
-6.35787e-07
-1.321e-06
7.26193e-09
-0.00112148
-1.52743e-06
9.7153e-07
4.77363e-07
0.00112224
-5.5684e-07
1.06531e-06
8.76017e-08
6.74441e-07
-6.38379e-07
-1.32078e-06
1.06703e-08
-0.000274471
1.56183e-06
1.52748e-06
-5.54607e-07
-5.60336e-07
0.000272497
-9.50112e-07
-9.50849e-07
-0.00112909
4.94655e-07
4.95316e-07
0.00113
-0.0011248
-1.53199e-06
9.50755e-07
4.66229e-07
0.00112552
-5.49524e-07
1.08226e-06
9.46051e-08
6.8485e-07
-6.19832e-07
-1.31064e-06
1.71312e-08
-0.00112445
-1.52647e-06
9.5058e-07
4.65885e-07
0.00112516
-5.49456e-07
1.07659e-06
9.47044e-08
6.8478e-07
-6.22408e-07
-1.31041e-06
2.03148e-08
-0.000274965
1.56097e-06
1.52654e-06
-5.46317e-07
-5.52054e-07
0.000272976
-9.28563e-07
-9.29297e-07
-0.0011327
4.84661e-07
4.85331e-07
0.00113359
-0.00112761
-1.52996e-06
9.29093e-07
4.55494e-07
0.00112828
-5.40376e-07
1.09271e-06
1.01307e-07
6.9394e-07
-6.03128e-07
-1.29897e-06
2.573e-08
-0.00112725
-1.52444e-06
9.29058e-07
4.55113e-07
0.00112792
-5.40291e-07
1.08702e-06
1.01421e-07
6.93844e-07
-6.05693e-07
-1.29869e-06
2.88147e-08
-0.000275395
1.55903e-06
1.52451e-06
-5.37087e-07
-5.42823e-07
0.000273391
-9.06693e-07
-9.07185e-07
-0.00113622
4.74274e-07
4.75003e-07
0.00113708
-0.00113024
-1.52688e-06
9.07161e-07
4.44751e-07
0.00113087
-5.29866e-07
1.10217e-06
1.07436e-07
7.02367e-07
-5.85996e-07
-1.28552e-06
3.34103e-08
-0.00112988
-1.5213e-06
9.06894e-07
4.4435e-07
0.00113051
-5.29679e-07
1.09652e-06
1.07665e-07
7.02246e-07
-5.88536e-07
-1.28533e-06
3.65031e-08
-0.000275756
1.55596e-06
1.52139e-06
-5.26961e-07
-5.32688e-07
0.000273738
-8.86626e-07
-8.87097e-07
-0.00113964
4.65363e-07
4.6606e-07
0.00114048
-0.00113269
-1.52268e-06
8.87051e-07
4.34756e-07
0.00113328
-5.18299e-07
1.11049e-06
1.13077e-07
7.09728e-07
-5.69025e-07
-1.271e-06
4.0128e-08
-0.00113234
-1.51713e-06
8.86797e-07
4.34493e-07
0.00113292
-5.18207e-07
1.1048e-06
1.13194e-07
7.09606e-07
-5.71579e-07
-1.27082e-06
4.31873e-08
-0.000276047
1.55185e-06
1.5172e-06
-5.16057e-07
-5.21782e-07
0.000274016
-8.71063e-07
-8.65892e-07
-0.00114296
4.56038e-07
4.56727e-07
0.00114379
-0.00113497
-1.51689e-06
8.60337e-07
4.24979e-07
0.00113551
-5.08793e-07
1.11801e-06
1.21072e-07
7.19549e-07
-5.51892e-07
-1.25504e-06
4.66693e-08
-0.00113461
-1.51134e-06
8.65647e-07
4.13705e-07
-5.0583e-07
1.11232e-06
1.1835e-07
7.16628e-07
-5.5441e-07
-1.25478e-06
4.97024e-08
0.00113516
-0.000276267
1.54614e-06
1.50865e-06
-5.04006e-07
-5.09725e-07
0.000274226
5.22146e-06
5.2323e-06
0.000260567
-0.000259171
-5.93189e-06
-5.91777e-06
5.08158e-06
0.000261409
-0.000258686
-5.96204e-06
3.37916e-06
-5.22153e-06
5.07656e-06
0.000261442
-0.000258702
-5.97005e-06
3.37432e-06
5.22213e-06
0.000260579
-0.000259173
-5.90328e-06
-5.94651e-06
5.07467e-06
0.000261473
-0.000258717
-5.96755e-06
3.369e-06
5.0814e-06
-5.22378e-06
0.000261417
-0.000258686
3.38421e-06
-5.97225e-06
1.07111e-05
1.06174e-05
-0.000252649
-0.000256079
-0.000255118
-0.000255118
-6.41734e-06
-4.12515e-06
-6.6623e-06
-6.4177e-06
-4.12608e-06
-6.66784e-06
-5.06963e-06
0.00104223
1.06707e-05
1.06227e-05
-0.000252651
-0.000256076
-0.000255121
-0.000255121
-6.41995e-06
-4.12544e-06
-6.66504e-06
-6.41516e-06
-4.12087e-06
-6.66025e-06
-5.06927e-06
0.00104211
1.0731e-05
1.06833e-05
-0.000252643
-0.000256071
-0.000255118
-0.000255113
-6.4198e-06
-4.13281e-06
-6.66497e-06
-6.42e-06
-4.12309e-06
-6.66258e-06
-5.08396e-06
-5.07209e-06
0.00104217
1.07263e-05
1.06276e-05
-0.000252646
-0.000256074
-0.000255118
-0.000255118
-6.4147e-06
-4.12777e-06
-6.65997e-06
-6.42014e-06
-4.12592e-06
-6.6653e-06
-0.000258712
-5.95992e-06
3.36394e-06
-5.22138e-06
0.000261404
-0.000258684
3.37919e-06
-5.96198e-06
5.22453e-06
0.000260559
-0.000259158
-5.9056e-06
-5.94373e-06
-0.000258697
3.37148e-06
-5.95704e-06
-5.23228e-06
0.000261471
-0.000258712
3.36649e-06
-5.96502e-06
-0.000259168
-5.93177e-06
-5.9178e-06
5.61757e-06
5.6548e-06
-4.87838e-06
-4.87223e-06
0.000259045
-7.80479e-07
-7.44601e-07
0.000261544
-0.000259462
-2.8225e-07
-2.74857e-07
7.09203e-06
0.00105882
-4.53009e-06
-1.57833e-06
-2.21273e-06
-2.57667e-06
-6.60588e-06
-7.05009e-06
-3.17074e-06
-0.000263264
-0.000259684
-0.000262793
-5.62803e-06
1.4555e-05
7.03144e-06
0.00105919
-4.54921e-06
-1.57072e-06
-2.21587e-06
-2.58757e-06
-6.63741e-06
-7.067e-06
-3.18642e-06
-0.000263338
-0.000259715
-0.000262834
0.00106192
2.02401e-06
-0.00106086
9.73753e-07
-1.71809e-06
-1.69111e-07
-6.92239e-07
-1.46543e-06
-3.07561e-07
-8.28047e-07
3.43219e-07
7.88561e-07
0.00106234
2.02437e-06
-0.00106128
9.68688e-07
-1.7285e-06
-1.61614e-07
-6.97738e-07
-1.47114e-06
-3.07712e-07
-8.28414e-07
3.48634e-07
-4.87646e-06
-4.86912e-06
0.000259055
-7.47275e-07
0.000261569
-0.000259482
-2.79602e-07
-2.71988e-07
6.81327e-06
0.00105966
-4.55437e-06
-1.63766e-06
-2.22893e-06
-2.58588e-06
-6.61991e-06
-7.06238e-06
-3.18164e-06
-0.000263359
-0.000259742
-0.000262847
-5.62773e-06
1.45894e-05
7.12547e-06
0.00105896
-4.54904e-06
-1.58079e-06
-2.2209e-06
-2.58953e-06
-6.6367e-06
-7.06587e-06
-3.18603e-06
-0.000259684
-0.000263315
-0.000262806
0.00106294
2.03159e-06
-0.00106187
9.6225e-07
-1.68817e-06
-1.7162e-07
-6.92517e-07
-1.46847e-06
-3.07673e-07
-8.25814e-07
3.45593e-07
7.77941e-07
0.00106203
2.0346e-06
-0.00106099
9.84064e-07
-1.71815e-06
-1.66659e-07
-6.92436e-07
-1.46824e-06
-3.05095e-07
-8.30803e-07
3.43162e-07
1.45864e-05
7.1128e-06
0.00105877
-4.53002e-06
-1.57822e-06
-2.2101e-06
-2.57669e-06
-6.60589e-06
-3.17079e-06
-7.04777e-06
-0.000259679
-0.000263259
-0.000262788
2.03091e-06
-0.00106161
9.67484e-07
-1.68807e-06
-1.68945e-07
-6.89598e-07
-1.46575e-06
-3.10046e-07
3.40402e-07
-8.25537e-07
7.77916e-07
0.00106182
2.03422e-06
-0.00106078
9.84099e-07
-1.71806e-06
-1.66544e-07
-6.92194e-07
-1.4681e-06
-3.07534e-07
-8.28002e-07
3.45753e-07
-4.88129e-06
-4.8689e-06
0.000259035
-7.39133e-07
0.000261521
-0.000259444
-2.82649e-07
-2.77214e-07
1.44875e-05
6.83175e-06
0.00105961
-4.55452e-06
-1.63767e-06
-2.22899e-06
-2.5857e-06
-6.61978e-06
-3.18154e-06
-7.05965e-06
-0.000259732
-0.000263356
-0.000262842
2.03595e-06
-0.00106131
9.83008e-07
-1.68559e-06
-1.71493e-07
-6.92268e-07
-1.46262e-06
-3.05027e-07
3.40445e-07
-8.28064e-07
7.39227e-07
0.00106284
2.03659e-06
-0.00106179
9.72565e-07
-1.68313e-06
-1.71647e-07
-6.89937e-07
-1.4657e-06
-3.07512e-07
-8.28231e-07
3.40603e-07
-0.000259459
-2.79781e-07
-2.7743e-07
1.63935e-06
1.60415e-06
-7.10558e-07
-7.19028e-07
0.00025973
-8.66328e-07
-8.27634e-07
0.000262778
-0.000260667
-2.12632e-07
-2.0506e-07
8.2964e-07
0.00106319
-6.5644e-07
8.17755e-07
-1.43305e-07
3.78164e-07
-8.00552e-07
-1.39714e-06
-2.90476e-07
-1.64463e-06
1.63226e-06
8.24417e-07
0.00106362
-6.59294e-07
8.25829e-07
-1.43313e-07
3.83588e-07
-8.03526e-07
-1.40283e-06
-2.88169e-07
0.00106713
1.38301e-06
-0.0010658
7.02155e-07
-1.59182e-06
-1.03505e-07
-6.28654e-07
-1.35465e-06
-2.49034e-07
-7.76777e-07
4.22394e-07
8.71691e-07
0.00106757
1.38328e-06
-0.00106623
6.97078e-07
-1.59714e-06
-1.03625e-07
-6.28882e-07
-1.35764e-06
-2.49145e-07
-7.77129e-07
4.252e-07
-7.1105e-07
-7.18359e-07
0.000259748
-8.32889e-07
0.000262804
-0.000260679
-2.12676e-07
-2.07563e-07
8.23145e-07
0.00106421
-6.54077e-07
7.81855e-07
-1.4576e-07
3.8061e-07
-8.03594e-07
-1.40027e-06
-2.88119e-07
-1.63935e-06
1.63749e-06
8.29701e-07
0.0010633
-6.5928e-07
8.17858e-07
-1.43349e-07
3.78178e-07
-8.0326e-07
-1.39733e-06
-2.87994e-07
0.00106816
1.38438e-06
-0.00106684
7.01115e-07
-1.5539e-06
-1.08437e-07
-6.23652e-07
-1.35234e-06
-2.46609e-07
-7.77118e-07
4.25048e-07
8.61108e-07
0.00106725
1.38304e-06
-0.00106591
7.02237e-07
-1.58922e-06
-1.06089e-07
-6.28797e-07
-1.35478e-06
-2.48998e-07
-7.76833e-07
4.25171e-07
1.63205e-06
8.29734e-07
0.0010631
-6.59067e-07
8.15184e-07
-1.45742e-07
3.78099e-07
-8.03177e-07
-2.88033e-07
-1.39723e-06
1.38399e-06
-0.00106657
7.06473e-07
-1.56169e-06
-1.1086e-07
-6.23496e-07
-1.35226e-06
-2.46627e-07
4.24917e-07
-7.76925e-07
8.63707e-07
0.00106704
1.37773e-06
-0.0010657
7.02256e-07
-1.58914e-06
-1.05962e-07
-6.28632e-07
-1.35471e-06
-2.49064e-07
-7.76771e-07
4.2241e-07
-7.1382e-07
-7.15802e-07
0.000259709
-8.24824e-07
0.000262753
-0.000260646
-2.12863e-07
-2.07517e-07
1.63355e-06
8.18034e-07
0.00106413
-6.54138e-07
7.76437e-07
-1.50871e-07
3.75473e-07
-8.00808e-07
-2.92953e-07
-1.39476e-06
1.38398e-06
-0.00106625
7.0139e-07
-1.55117e-06
-1.10861e-07
-6.23453e-07
-1.34669e-06
-2.49039e-07
4.16857e-07
-7.76847e-07
8.275e-07
0.00106807
1.38438e-06
-0.00106674
7.01194e-07
-1.55136e-06
-1.11009e-07
-6.2373e-07
-1.35492e-06
-2.49059e-07
-7.79701e-07
4.22385e-07
-0.000260654
-2.12734e-07
-2.07649e-07
1.58996e-06
1.55721e-06
-6.72235e-07
-6.80571e-07
0.000260984
-8.90481e-07
-8.5427e-07
0.00026406
-0.000261937
-1.91628e-07
-1.86566e-07
6.9122e-07
0.00106848
-6.29691e-07
8.72072e-07
-9.92502e-08
4.2453e-07
-7.77647e-07
-1.35444e-06
-2.47574e-07
-1.59532e-06
1.36146e-06
7.01848e-07
0.00106891
-6.29905e-07
8.7748e-07
-9.9314e-08
4.30062e-07
-7.8061e-07
-1.36006e-06
-2.42717e-07
0.00107249
1.34953e-06
-0.00107117
6.75827e-07
-1.58991e-06
-8.55463e-08
-6.24924e-07
-1.36699e-06
-2.29951e-07
-7.78104e-07
4.33831e-07
8.9593e-07
0.00107292
1.34982e-06
-0.00107159
6.76044e-07
-1.59526e-06
-8.31209e-08
-6.27787e-07
-1.37529e-06
-2.2504e-07
-7.83668e-07
4.42086e-07
-6.7528e-07
-6.77491e-07
0.000261005
-8.56942e-07
0.000264088
-0.000261963
-1.89018e-07
-1.83818e-07
6.9023e-07
0.00106952
-6.27349e-07
8.3599e-07
-1.04177e-07
4.27146e-07
-7.80578e-07
-1.36003e-06
-2.42671e-07
-1.58735e-06
1.36128e-06
6.96574e-07
0.00106859
-6.29852e-07
8.69498e-07
-9.92882e-08
4.27286e-07
-7.80293e-07
-1.3572e-06
-2.42548e-07
0.00107352
1.35085e-06
-0.0010722
6.74836e-07
-1.55439e-06
-8.79835e-08
-6.22527e-07
-1.36992e-06
-2.25011e-07
-7.83669e-07
4.36498e-07
8.90565e-07
0.0010726
1.34962e-06
-0.00107127
6.75988e-07
-1.58993e-06
-8.30804e-08
-6.27721e-07
-1.36967e-06
-2.24885e-07
-7.83362e-07
4.36596e-07
1.36625e-06
6.91332e-07
0.00106839
-6.26999e-07
8.66802e-07
-1.04164e-07
4.27175e-07
-7.80244e-07
-2.4511e-07
-1.35716e-06
1.35051e-06
-0.00107193
6.74958e-07
-1.55696e-06
-8.78691e-08
-6.22363e-07
-1.36722e-06
-2.27528e-07
4.33713e-07
-7.8091e-07
8.85166e-07
0.0010724
1.34943e-06
-0.00107107
6.7594e-07
-1.58462e-06
-8.79631e-08
-6.22193e-07
-1.36705e-06
-2.27468e-07
-7.80695e-07
4.33827e-07
-6.75369e-07
-6.80009e-07
0.000260969
-8.51517e-07
0.000264039
-0.000261921
-1.91711e-07
-1.83826e-07
1.36252e-06
6.95526e-07
0.00106942
-6.22093e-07
8.27949e-07
-1.09174e-07
4.24564e-07
-7.77906e-07
-2.45122e-07
-1.35476e-06
1.35041e-06
-0.0010716
6.75036e-07
-1.55164e-06
-9.03276e-08
-6.1966e-07
-1.36693e-06
-2.24984e-07
4.3371e-07
-7.83397e-07
8.51505e-07
0.00107344
1.35086e-06
-0.00107211
6.74884e-07
-1.55185e-06
-9.04741e-08
-6.19937e-07
-1.36467e-06
-2.2748e-07
-7.80984e-07
4.31203e-07
-0.000261934
-1.89147e-07
-1.83951e-07
1.58854e-06
1.55297e-06
-6.61895e-07
-6.67623e-07
0.000262248
-9.18483e-07
-8.82114e-07
0.000265279
-0.000263155
-1.63966e-07
-1.58824e-07
6.68147e-07
0.00107381
-6.22471e-07
8.97368e-07
-7.92656e-08
4.3831e-07
-7.7664e-07
-1.36911e-06
-2.22705e-07
-1.5939e-06
1.34129e-06
6.68351e-07
0.00107423
-6.25333e-07
9.02823e-07
-7.6842e-08
4.46576e-07
-7.82198e-07
-1.37742e-06
-2.17782e-07
0.00107767
1.30798e-06
-0.0010764
6.43182e-07
-1.58273e-06
-6.01031e-08
-6.13246e-07
-1.37174e-06
-1.99346e-07
-7.68793e-07
4.54373e-07
9.23947e-07
0.00107809
1.30829e-06
-0.00107682
6.43426e-07
-1.58813e-06
-5.7697e-08
-6.16115e-07
-1.38007e-06
-1.94404e-07
-7.74357e-07
4.62665e-07
-6.65012e-07
-6.69713e-07
0.000262274
-8.84786e-07
0.000265307
-0.000263181
-1.61346e-07
-1.56085e-07
6.67162e-07
0.00107484
-6.20068e-07
8.61117e-07
-8.16973e-08
4.40987e-07
-7.82204e-07
-1.37204e-06
-2.17758e-07
-1.58856e-06
1.34108e-06
6.68293e-07
0.00107391
-6.25267e-07
8.97453e-07
-7.68015e-08
4.41084e-07
-7.81897e-07
-1.37179e-06
-2.17633e-07
0.0010787
1.30919e-06
-0.00107743
6.42206e-07
-1.54705e-06
-6.2518e-08
-6.10832e-07
-1.37465e-06
-1.94374e-07
-7.7436e-07
4.57085e-07
9.18562e-07
0.00107777
1.30805e-06
-0.0010765
6.4333e-07
-1.58276e-06
-5.76543e-08
-6.16046e-07
-1.3744e-06
-1.94256e-07
-7.74059e-07
4.57173e-07
1.3409e-06
6.68234e-07
0.00107371
-6.19735e-07
8.92042e-07
-8.1679e-08
4.38309e-07
-7.79228e-07
-2.20218e-07
-1.36917e-06
1.3089e-06
-0.00107716
6.4234e-07
-1.54965e-06
-6.24186e-08
-6.10676e-07
-1.37194e-06
-1.96909e-07
4.54283e-07
-7.71603e-07
9.1312e-07
0.00107757
1.30789e-06
-0.0010763
6.43275e-07
-1.57745e-06
-6.25076e-08
-6.10504e-07
-1.37179e-06
-1.96853e-07
-7.71386e-07
4.54379e-07
-6.62437e-07
-6.69658e-07
0.000262232
-8.79367e-07
0.000265258
-0.00026314
-1.64009e-07
-1.56099e-07
1.34229e-06
6.67193e-07
0.00107475
-6.17468e-07
8.58355e-07
-8.41791e-08
4.35685e-07
-7.79519e-07
-2.20226e-07
-1.36679e-06
1.30875e-06
-0.00107683
6.42355e-07
-1.54427e-06
-6.48447e-08
-6.07948e-07
-1.37166e-06
-1.94357e-07
4.5427e-07
-7.74097e-07
8.79351e-07
0.00107861
1.30917e-06
-0.00107734
6.4223e-07
-1.54449e-06
-6.49736e-08
-6.08207e-07
-1.36939e-06
-1.96848e-07
-7.71672e-07
4.51756e-07
-0.000263153
-1.61467e-07
-1.56218e-07
1.58053e-06
1.5448e-06
-6.44926e-07
-6.50644e-07
0.000263449
-9.44966e-07
-9.08459e-07
0.000266424
-0.000264302
-1.36917e-07
-1.317e-07
6.34949e-07
0.00107892
-6.09924e-07
9.25371e-07
-5.39502e-08
4.60236e-07
-7.65414e-07
-1.37163e-06
-1.91428e-07
-1.58593e-06
1.2963e-06
6.35201e-07
0.00107935
-6.12801e-07
9.30836e-07
-5.1556e-08
4.68531e-07
-7.70992e-07
-1.37998e-06
-1.86489e-07
0.0010826
1.26014e-06
-0.00108139
6.12148e-07
-1.57422e-06
-3.68773e-08
-6.00544e-07
-1.37001e-06
-1.68336e-07
-7.54739e-07
4.78327e-07
9.50444e-07
0.00108302
1.26052e-06
-0.00108182
6.12449e-07
-1.57964e-06
-3.45143e-08
-6.03427e-07
-1.37838e-06
-1.63382e-07
-7.60327e-07
4.86656e-07
-6.48073e-07
-6.5276e-07
0.000263475
-9.11122e-07
0.000266453
-0.000264328
-1.34291e-07
-1.28978e-07
6.33985e-07
0.00107996
-6.07507e-07
8.88966e-07
-5.63579e-08
4.62958e-07
-7.70985e-07
-1.37455e-06
-1.86449e-07
-1.58056e-06
1.29604e-06
6.35093e-07
0.00107903
-6.12725e-07
9.25449e-07
-5.15083e-08
4.63043e-07
-7.70686e-07
-1.3743e-06
-1.86332e-07
0.00108364
1.26124e-06
-0.00108243
6.1121e-07
-1.53837e-06
-3.92544e-08
-5.98118e-07
-1.37291e-06
-1.63342e-07
-7.60315e-07
4.81076e-07
9.45043e-07
0.0010827
1.26022e-06
-0.00108149
6.1231e-07
-1.57425e-06
-3.44645e-08
-6.03348e-07
-1.37267e-06
-1.63229e-07
-7.60014e-07
4.81156e-07
1.29588e-06
6.35018e-07
0.00107883
-6.0718e-07
9.19998e-07
-5.63491e-08
4.60244e-07
-7.6801e-07
-1.88933e-07
-1.37168e-06
1.261e-06
-0.00108216
6.11391e-07
-1.541e-06
-3.91818e-08
-5.97991e-07
-1.37019e-06
-1.65893e-07
4.78256e-07
-7.57551e-07
9.39559e-07
0.0010825
1.26006e-06
-0.00108129
6.1224e-07
-1.56893e-06
-3.92563e-08
-5.97797e-07
-1.37005e-06
-1.65842e-07
-7.5734e-07
4.78341e-07
-6.45448e-07
-6.52699e-07
0.000263433
-9.05705e-07
0.000266403
-0.000264287
-1.36931e-07
-1.28993e-07
1.29711e-06
6.33996e-07
0.00107987
-6.04877e-07
8.86199e-07
-5.88053e-08
4.57621e-07
-7.68293e-07
-1.88925e-07
-1.36928e-06
1.26078e-06
-0.00108182
6.11331e-07
-1.53558e-06
-4.15551e-08
-5.95223e-07
-1.36992e-06
-1.63338e-07
4.78238e-07
-7.60058e-07
9.0568e-07
0.00108355
1.26118e-06
-0.00108234
6.11221e-07
-1.5358e-06
-4.16712e-08
-5.95469e-07
-1.36764e-06
-1.65822e-07
-7.5762e-07
4.75718e-07
-0.0002643
-1.34413e-07
-1.29104e-07
1.5723e-06
1.53641e-06
-6.28037e-07
-6.33745e-07
0.000264577
-9.68634e-07
-9.31993e-07
0.000267496
-0.000265375
-1.12525e-07
-1.07246e-07
6.05253e-07
0.00108379
-5.97703e-07
9.51142e-07
-3.1655e-08
4.84503e-07
-7.51127e-07
-1.36915e-06
-1.60899e-07
-1.57773e-06
1.24881e-06
6.05534e-07
0.00108422
-6.00587e-07
9.56624e-07
-2.93078e-08
4.92839e-07
-7.56731e-07
-1.37752e-06
-1.55953e-07
0.00108728
1.21481e-06
-0.00108613
5.86851e-07
-1.56727e-06
-1.74256e-08
-5.90225e-07
-1.36604e-06
-1.39634e-07
-7.40639e-07
5.03085e-07
9.74146e-07
0.00108771
1.21513e-06
-0.00108656
5.87003e-07
-1.57269e-06
-1.51267e-08
-5.93079e-07
-1.3744e-06
-1.34624e-07
-7.46195e-07
5.11481e-07
-6.31205e-07
-6.35882e-07
0.000264603
-9.34694e-07
0.000267525
-0.000265402
-1.09826e-07
-1.04526e-07
6.04313e-07
0.00108483
-5.95271e-07
9.14605e-07
-3.40161e-08
4.87259e-07
-7.56709e-07
-1.37204e-06
-1.55901e-07
-1.57233e-06
1.24852e-06
6.05409e-07
0.0010839
-6.00505e-07
9.51219e-07
-2.92567e-08
4.87339e-07
-7.56411e-07
-1.3718e-06
-1.55785e-07
0.00108833
1.21578e-06
-0.00108718
5.8585e-07
-1.53127e-06
-1.97295e-08
-5.87786e-07
-1.36895e-06
-1.34647e-07
-7.4624e-07
5.05841e-07
9.68709e-07
0.00108739
1.21492e-06
-0.00108624
5.86953e-07
-1.56729e-06
-1.50984e-08
-5.93026e-07
-1.3687e-06
-1.34518e-07
-7.45933e-07
5.05932e-07
1.24835e-06
6.05315e-07
0.00108369
-5.94951e-07
9.45726e-07
-3.40209e-08
4.84518e-07
-7.53736e-07
-1.58405e-07
-1.36919e-06
1.21552e-06
-0.00108691
5.85973e-07
-1.53388e-06
-1.96405e-08
-5.87633e-07
-1.36622e-06
-1.37202e-07
5.03001e-07
-7.43463e-07
9.63166e-07
0.00108718
1.21469e-06
-0.00108603
5.86884e-07
-1.56198e-06
-1.97471e-08
-5.87478e-07
-1.36609e-06
-1.37156e-07
-7.43263e-07
5.03087e-07
-6.28533e-07
-6.35831e-07
0.000264562
-9.29225e-07
0.000267475
-0.00026536
-1.12519e-07
-1.04557e-07
1.24944e-06
6.04319e-07
0.00108474
-5.92619e-07
9.1182e-07
-3.64214e-08
4.81892e-07
-7.54014e-07
-1.58385e-07
-1.36677e-06
1.21529e-06
-0.00108657
5.85951e-07
-1.52845e-06
-2.19754e-08
-5.84882e-07
-1.36596e-06
-1.34658e-07
5.02979e-07
-7.45991e-07
9.29186e-07
0.00108824
1.21571e-06
-0.00108709
5.8585e-07
-1.52869e-06
-2.2077e-08
-5.85119e-07
-1.36367e-06
-1.37134e-07
-7.43543e-07
5.00451e-07
-0.000265373
-1.10034e-07
-1.04672e-07
1.56585e-06
1.52983e-06
-6.13442e-07
-6.19188e-07
0.000265633
-9.92238e-07
-9.52814e-07
0.000268501
-0.00026638
-9.09706e-08
-8.56753e-08
5.8158e-07
0.00108841
-5.88104e-07
9.76809e-07
-1.09148e-08
5.09234e-07
-7.37323e-07
-1.36495e-06
-1.32942e-07
-1.57129e-06
1.20459e-06
5.81628e-07
0.00108884
-5.90966e-07
9.79633e-07
-1.09244e-08
5.17634e-07
-7.42879e-07
-1.37331e-06
-1.27934e-07
0.00109173
1.17492e-06
-0.00109063
5.67409e-07
-1.56516e-06
5.64433e-11
-5.85641e-07
-1.36182e-06
-1.14056e-07
-7.28049e-07
5.27333e-07
9.95058e-07
0.00109216
1.17511e-06
-0.00109107
5.67425e-07
-1.56793e-06
4.96238e-11
-5.85787e-07
-1.36752e-06
-1.0906e-07
-7.3362e-07
5.33032e-07
-6.16567e-07
-6.21322e-07
0.000265659
-9.555e-07
0.000268528
-0.000266406
-8.83142e-08
-8.29685e-08
5.80487e-07
0.00108946
-5.85674e-07
9.37447e-07
-1.54527e-08
5.11979e-07
-7.42936e-07
-1.36787e-06
-1.27965e-07
-1.56589e-06
1.20442e-06
5.81627e-07
0.00108852
-5.90921e-07
9.74184e-07
-1.09027e-08
5.1208e-07
-7.42623e-07
-1.36762e-06
-1.27824e-07
0.00109278
1.1759e-06
-0.00109169
5.66527e-07
-1.52624e-06
-4.22824e-09
-5.80454e-07
-1.36474e-06
-1.0908e-07
-7.33658e-07
5.30092e-07
9.89579e-07
0.00109184
1.17493e-06
-0.00109074
5.67444e-07
-1.56254e-06
7.1174e-11
-5.8575e-07
-1.36449e-06
-1.0895e-07
-7.33353e-07
5.30179e-07
1.20417e-06
5.81513e-07
0.00108832
-5.8537e-07
9.68628e-07
-1.54731e-08
5.09223e-07
-7.39958e-07
-1.30474e-07
-1.36501e-06
1.17565e-06
-0.00109142
5.66592e-07
-1.52886e-06
-4.13791e-09
-5.80273e-07
-1.36201e-06
-1.1163e-07
5.27247e-07
-7.30878e-07
9.84029e-07
0.00109163
1.17481e-06
-0.00109054
5.67586e-07
-1.5572e-06
-4.23479e-09
-5.80154e-07
-1.36187e-06
-1.11573e-07
-7.30668e-07
5.27345e-07
-6.13931e-07
-6.21297e-07
0.000265617
-9.49991e-07
0.000268478
-0.000266364
-9.10309e-08
-8.30319e-08
1.20516e-06
5.80498e-07
0.00108937
-5.83009e-07
9.34617e-07
-1.77752e-08
5.06581e-07
-7.40239e-07
-1.30455e-07
-1.3626e-06
1.17541e-06
-0.00109108
5.6661e-07
-1.52344e-06
-6.24984e-09
-5.77533e-07
-1.36174e-06
-1.09103e-07
5.27213e-07
-7.33415e-07
9.49953e-07
0.00109269
1.17575e-06
-0.0010916
5.66523e-07
-1.52375e-06
-6.32169e-09
-5.77764e-07
-1.35945e-06
-1.11559e-07
-7.30952e-07
5.24685e-07
-0.000266377
-8.85403e-08
-8.31423e-08
1.56437e-06
1.52532e-06
-6.01621e-07
-6.07263e-07
0.000266621
-1.00974e-06
-9.70167e-07
0.000269441
-0.00026732
-7.3211e-08
-6.77374e-08
5.63096e-07
0.0010928
-5.84413e-07
9.96961e-07
5.49319e-09
5.33178e-07
-7.25178e-07
-1.36088e-06
-1.05697e-07
-1.56715e-06
1.16577e-06
5.63108e-07
0.00109324
-5.84568e-07
9.99774e-07
5.43409e-09
5.38867e-07
-7.3078e-07
-1.36659e-06
-1.03204e-07
0.00109597
1.13974e-06
-0.00109492
5.52621e-07
-1.56319e-06
1.88423e-08
-5.8178e-07
-1.35849e-06
-8.93011e-08
-7.19994e-07
5.50123e-07
1.01255e-06
0.0010964
1.13997e-06
-0.00109536
5.52687e-07
-1.566e-06
1.87912e-08
-5.81919e-07
-1.36423e-06
-8.68155e-08
-7.22931e-07
5.55815e-07
-6.04758e-07
-6.09429e-07
0.000266647
-9.72837e-07
0.000269468
-0.000267347
-7.05639e-08
-6.50477e-08
5.62446e-07
0.00109386
-5.79098e-07
9.57514e-07
-1.16485e-09
5.35991e-07
-7.30776e-07
-1.36377e-06
-1.03172e-07
-1.56178e-06
1.16556e-06
5.63123e-07
0.00109292
-5.84534e-07
9.94292e-07
5.4688e-09
5.3601e-07
-7.30517e-07
-1.36357e-06
-1.03097e-07
0.00109703
1.14112e-06
-0.00109598
5.51745e-07
-1.52416e-06
1.27091e-08
-5.76432e-07
-1.36129e-06
-8.66971e-08
-7.22841e-07
5.5303e-07
1.00718e-06
0.00109608
1.1397e-06
-0.00109504
5.52568e-07
-1.56049e-06
1.88344e-08
-5.81864e-07
-1.36121e-06
-8.67161e-08
-7.22676e-07
5.52945e-07
1.16568e-06
5.63413e-07
0.00109271
-5.78791e-07
9.88829e-07
-1.14909e-09
5.33241e-07
-7.27783e-07
-1.05662e-07
-1.36089e-06
1.14091e-06
-0.00109571
5.51799e-07
-1.52683e-06
1.28285e-08
-5.76273e-07
-1.35856e-06
-8.92461e-08
5.50169e-07
-7.20057e-07
1.00179e-06
0.00109587
1.13986e-06
-0.00109483
5.52574e-07
-1.55496e-06
1.26826e-08
-5.76132e-07
-1.35843e-06
-8.92154e-08
-7.19865e-07
5.50235e-07
-6.02114e-07
-6.09451e-07
0.000266605
-9.67417e-07
0.000269418
-0.000267305
-7.32386e-08
-6.49356e-08
1.16669e-06
5.62479e-07
0.00109377
-5.76385e-07
9.54737e-07
-3.10789e-09
5.30594e-07
-7.28057e-07
-1.05634e-07
-1.35847e-06
1.14088e-06
-0.00109537
5.51888e-07
-1.5213e-06
9.67211e-09
-5.73433e-07
-1.35821e-06
-8.6639e-08
5.50234e-07
-7.22526e-07
9.67601e-07
0.00109694
1.14109e-06
-0.00109589
5.51656e-07
-1.52137e-06
9.56936e-09
-5.73638e-07
-1.35594e-06
-8.91074e-08
-7.20072e-07
5.47672e-07
-0.000267318
-7.04702e-08
-6.49071e-08
1.56312e-06
1.52405e-06
-5.93256e-07
-5.98908e-07
0.000267546
-1.02531e-06
-9.85619e-07
0.000270323
-0.000268203
-5.75562e-08
-5.20533e-08
5.49634e-07
0.001097
-5.81127e-07
1.01375e-06
2.27768e-08
5.55648e-07
-7.17516e-07
-1.35777e-06
-8.41564e-08
-1.56593e-06
1.13211e-06
5.49672e-07
0.00109743