/*--------------------------------*- C++ -*----------------------------------*\
| =========                 |                                                 |
| \\      /  F ield         | OpenFOAM: The Open Source CFD Toolbox           |
|  \\    /   O peration     | Version:  v1906                                 |
|   \\  /    A nd           | Web:      www.OpenFOAM.com                      |
|    \\/     M anipulation  |                                                 |
\*---------------------------------------------------------------------------*/
FoamFile
{
    version     2.0;
    format      ascii;
    class       volVectorField;
    location    "125";
    object      U;
}
// * * * * * * * * * * * * * * * * * * * * * * * * * * * * * * * * * * * * * //

dimensions      [0 1 -1 0 0 0 0];


internalField   nonuniform List<vector> 
42616
(
(-2.37954e-06 -2.36781e-06 0.110619)
(-1.48049e-06 2.94196e-06 0.108682)
(2.93319e-06 -1.47601e-06 0.108681)
(-6.71441e-05 -6.71526e-05 0.106314)
(-2.37899e-06 -2.36908e-06 0.110619)
(-1.4801e-06 2.92892e-06 0.108682)
(2.92523e-06 -1.47568e-06 0.108682)
(-6.71153e-05 -6.71302e-05 0.106314)
(-2.42e-06 -2.40612e-06 0.110619)
(-1.44272e-06 2.91412e-06 0.108682)
(2.90257e-06 -1.44329e-06 0.108682)
(-6.70401e-05 -6.70399e-05 0.106314)
(-2.43285e-06 -2.42255e-06 0.110619)
(-1.4249e-06 2.90105e-06 0.108682)
(2.89891e-06 -1.40981e-06 0.108682)
(-6.69834e-05 -6.69897e-05 0.106314)
(-2.4309e-06 -2.42036e-06 0.110619)
(-1.41414e-06 2.90168e-06 0.108683)
(2.89379e-06 -1.42425e-06 0.108682)
(-6.69912e-05 -6.70001e-05 0.106314)
(-2.41621e-06 -2.40597e-06 0.110619)
(-1.42861e-06 2.89908e-06 0.108683)
(2.89212e-06 -1.4167e-06 0.108682)
(-6.70143e-05 -6.70209e-05 0.106314)
(-2.40353e-06 -2.38776e-06 0.110619)
(-1.41871e-06 2.89356e-06 0.108683)
(2.88965e-06 -1.42194e-06 0.108682)
(-6.70335e-05 -6.7042e-05 0.106314)
(-2.38639e-06 -2.37409e-06 0.11062)
(-1.44838e-06 2.91209e-06 0.108683)
(2.90465e-06 -1.43486e-06 0.108682)
(-6.70319e-05 -6.70384e-05 0.106314)
(-2.36063e-06 -2.34983e-06 0.11062)
(-1.46327e-06 2.92125e-06 0.108683)
(2.91229e-06 -1.46533e-06 0.108683)
(-6.70229e-05 -6.70343e-05 0.106314)
(-2.34011e-06 -2.32257e-06 0.110621)
(-1.5094e-06 2.93817e-06 0.108684)
(2.93357e-06 -1.50181e-06 0.108683)
(-6.69687e-05 -6.69708e-05 0.106314)
(-2.30766e-06 -2.29257e-06 0.110621)
(-1.57715e-06 2.97447e-06 0.108684)
(2.97051e-06 -1.56607e-06 0.108684)
(-6.68906e-05 -6.68905e-05 0.106314)
(-2.26686e-06 -2.25471e-06 0.110622)
(-1.67699e-06 3.05819e-06 0.108685)
(3.0372e-06 -1.66443e-06 0.108685)
(-6.67698e-05 -6.67764e-05 0.106315)
(-2.23774e-06 -2.22848e-06 0.110624)
(-1.83467e-06 3.17652e-06 0.108687)
(3.17251e-06 -1.83648e-06 0.108686)
(-6.65161e-05 -6.65334e-05 0.106315)
(-2.20933e-06 -2.19773e-06 0.110626)
(-2.09058e-06 3.36365e-06 0.108689)
(3.37039e-06 -2.09685e-06 0.108688)
(-6.61409e-05 -6.61638e-05 0.106317)
(-2.2336e-06 -2.21223e-06 0.110628)
(-2.49809e-06 3.69004e-06 0.108692)
(3.6836e-06 -2.50171e-06 0.108691)
(-6.55398e-05 -6.55542e-05 0.106319)
(-2.3576e-06 -2.33992e-06 0.110632)
(-3.14825e-06 4.23504e-06 0.108696)
(4.23021e-06 -3.1459e-06 0.108695)
(-6.44005e-05 -6.44095e-05 0.106324)
(-2.69267e-06 -2.68326e-06 0.110636)
(-4.15267e-06 5.15381e-06 0.108701)
(5.14959e-06 -4.14128e-06 0.108701)
(-6.22399e-05 -6.22461e-05 0.106332)
(-3.37111e-06 -3.35761e-06 0.110641)
(-5.74537e-06 6.6944e-06 0.108709)
(6.68285e-06 -5.73255e-06 0.108709)
(-5.80816e-05 -5.80796e-05 0.106349)
(-4.82327e-06 -4.79322e-06 0.110647)
(-8.29393e-06 9.24816e-06 0.108721)
(9.22617e-06 -8.26e-06 0.10872)
(-4.97184e-05 -4.96857e-05 0.10638)
(-1.17958e-05 -1.17258e-05 0.110648)
(-6.80533e-06 1.1096e-05 0.108734)
(1.10483e-05 -6.77444e-06 0.108734)
(-2.94285e-05 -2.93907e-05 0.106435)
(-3.42401e-05 -3.41108e-05 0.110662)
(5.62327e-05 -3.88988e-05 0.108809)
(-3.89841e-05 5.6216e-05 0.108809)
(4.43447e-05 4.438e-05 0.106705)
(-7.29147e-05 -7.28831e-05 0.106513)
(3.02752e-06 1.54859e-06 0.10868)
(-3.03914e-06 1.57962e-06 0.10868)
(7.29307e-05 -7.29109e-05 0.106514)
(1.48578e-06 2.95563e-06 0.108681)
(1.5685e-06 -3.02818e-06 0.10868)
(-1.47857e-06 2.95308e-06 0.108682)
(-1.54923e-06 -3.0004e-06 0.10868)
(-7.28913e-05 7.29146e-05 0.106513)
(2.94582e-06 -1.47184e-06 0.108681)
(-2.93477e-06 -1.468e-06 0.108681)
(7.28084e-05 7.28401e-05 0.106512)
(6.70853e-05 6.70659e-05 0.106314)
(-7.29354e-05 -7.2903e-05 0.106513)
(3.01515e-06 1.55547e-06 0.108681)
(-3.02983e-06 1.58215e-06 0.10868)
(3.02971e-06 1.56392e-06 0.108681)
(-3.0386e-06 1.59193e-06 0.10868)
(-6.70778e-05 6.70263e-05 0.106314)
(7.29495e-05 -7.29349e-05 0.106514)
(1.48894e-06 2.94411e-06 0.108681)
(1.56819e-06 -3.01414e-06 0.10868)
(1.50086e-06 2.95648e-06 0.108681)
(1.58104e-06 -3.03103e-06 0.10868)
(-1.55822e-06 -2.99613e-06 0.10868)
(-1.4955e-06 2.95173e-06 0.108682)
(-1.56416e-06 -3.00563e-06 0.10868)
(6.70575e-05 -6.71275e-05 0.106314)
(-7.29145e-05 7.2933e-05 0.106513)
(-2.9285e-06 -1.47674e-06 0.108681)
(2.94946e-06 -1.49066e-06 0.108681)
(-2.94162e-06 -1.48687e-06 0.108681)
(7.28404e-05 7.28691e-05 0.106513)
(6.70378e-05 6.70213e-05 0.106314)
(-7.2963e-05 -7.29327e-05 0.106513)
(3.00972e-06 1.55648e-06 0.108681)
(-3.01813e-06 1.57679e-06 0.10868)
(2.99662e-06 1.52701e-06 0.108681)
(-3.01991e-06 1.56267e-06 0.10868)
(-6.70261e-05 6.69695e-05 0.106314)
(7.29633e-05 -7.29427e-05 0.106514)
(1.48692e-06 2.93448e-06 0.108681)
(1.56811e-06 -3.0126e-06 0.10868)
(1.46352e-06 2.92871e-06 0.108681)
(1.54486e-06 -3.00537e-06 0.10868)
(-1.55317e-06 -2.97937e-06 0.10868)
(-1.45902e-06 2.92956e-06 0.108682)
(-1.53456e-06 -2.99011e-06 0.10868)
(6.70133e-05 -6.70823e-05 0.106314)
(-7.29425e-05 7.29672e-05 0.106513)
(-2.91611e-06 -1.47785e-06 0.108681)
(2.91675e-06 -1.45827e-06 0.108681)
(-2.9209e-06 -1.4549e-06 0.108681)
(7.29097e-05 7.2951e-05 0.106513)
(6.69796e-05 6.69567e-05 0.106314)
(-7.29453e-05 -7.29104e-05 0.106513)
(2.98307e-06 1.51755e-06 0.108681)
(-3.00437e-06 1.54527e-06 0.108681)
(2.97889e-06 1.49507e-06 0.108681)
(-2.98984e-06 1.52318e-06 0.10868)
(-6.69774e-05 6.6925e-05 0.106314)
(7.2954e-05 -7.29356e-05 0.106514)
(1.44857e-06 2.91547e-06 0.108682)
(1.52788e-06 -2.98948e-06 0.10868)
(1.43338e-06 2.90763e-06 0.108681)
(1.52339e-06 -2.98124e-06 0.10868)
(-1.52036e-06 -2.96324e-06 0.108681)
(-1.43115e-06 2.90187e-06 0.108682)
(-1.49852e-06 -2.96804e-06 0.10868)
(6.69454e-05 -6.70152e-05 0.106314)
(-7.29197e-05 7.29476e-05 0.106513)
(-2.89442e-06 -1.4415e-06 0.108681)
(2.90097e-06 -1.41383e-06 0.108681)
(-2.90368e-06 -1.41877e-06 0.108681)
(7.29314e-05 7.29641e-05 0.106513)
(6.69739e-05 6.69543e-05 0.106314)
(-7.28969e-05 -7.28655e-05 0.106513)
(2.97843e-06 1.48868e-06 0.108681)
(-2.99047e-06 1.51726e-06 0.108681)
(2.97518e-06 1.48001e-06 0.108681)
(-2.98568e-06 1.52225e-06 0.10868)
(-6.69627e-05 6.69097e-05 0.106314)
(7.2903e-05 -7.2882e-05 0.106514)
(1.43297e-06 2.90593e-06 0.108682)
(1.51493e-06 -2.98103e-06 0.10868)
(1.42389e-06 2.90303e-06 0.108681)
(1.49755e-06 -2.97543e-06 0.10868)
(-1.49503e-06 -2.95874e-06 0.108681)
(-1.41206e-06 2.90058e-06 0.108682)
(-1.49508e-06 -2.96434e-06 0.10868)
(6.6945e-05 -6.70071e-05 0.106314)
(-7.28763e-05 7.28989e-05 0.106513)
(-2.89274e-06 -1.41704e-06 0.108682)
(2.89106e-06 -1.41958e-06 0.108681)
(-2.89879e-06 -1.41691e-06 0.108681)
(7.28842e-05 7.29154e-05 0.106513)
(6.70046e-05 6.69843e-05 0.106314)
(-7.28722e-05 -7.28427e-05 0.106513)
(2.97618e-06 1.48948e-06 0.108681)
(-2.98886e-06 1.52356e-06 0.108681)
(2.97028e-06 1.48303e-06 0.108681)
(-2.98506e-06 1.51433e-06 0.10868)
(-6.70002e-05 6.69495e-05 0.106314)
(7.28778e-05 -7.28593e-05 0.106514)
(1.42673e-06 2.90453e-06 0.108682)
(1.50143e-06 -2.97982e-06 0.10868)
(1.42115e-06 2.89724e-06 0.108681)
(1.51247e-06 -2.97408e-06 0.10868)
(-1.50033e-06 -2.96486e-06 0.108681)
(-1.417e-06 2.89509e-06 0.108682)
(-1.48624e-06 -2.95471e-06 0.10868)
(6.69709e-05 -6.7038e-05 0.106314)
(-7.2844e-05 7.28672e-05 0.106513)
(-2.89861e-06 -1.42364e-06 0.108682)
(2.89108e-06 -1.40235e-06 0.108681)
(-2.89011e-06 -1.40689e-06 0.108681)
(7.28433e-05 7.28758e-05 0.106513)
(6.70254e-05 6.70043e-05 0.106314)
(-7.28591e-05 -7.28239e-05 0.106513)
(2.97536e-06 1.49717e-06 0.108681)
(-2.98804e-06 1.52507e-06 0.108681)
(2.97834e-06 1.47537e-06 0.10868)
(-2.98754e-06 1.50461e-06 0.10868)
(-6.70273e-05 6.69735e-05 0.106314)
(7.28754e-05 -7.28578e-05 0.106514)
(1.43477e-06 2.90119e-06 0.108682)
(1.51733e-06 -2.97588e-06 0.108681)
(1.4076e-06 2.90937e-06 0.108681)
(1.48396e-06 -2.97809e-06 0.10868)
(-1.50489e-06 -2.9623e-06 0.108681)
(-1.40418e-06 2.8988e-06 0.108682)
(-1.48202e-06 -2.96404e-06 0.10868)
(6.70011e-05 -6.70668e-05 0.106314)
(-7.28434e-05 7.28574e-05 0.106513)
(-2.89733e-06 -1.42436e-06 0.108682)
(2.89187e-06 -1.40448e-06 0.108681)
(-2.89937e-06 -1.40294e-06 0.108681)
(7.28135e-05 7.28453e-05 0.106513)
(6.70408e-05 6.70241e-05 0.106314)
(-7.28755e-05 -7.28438e-05 0.106513)
(2.97356e-06 1.50175e-06 0.108681)
(-2.98254e-06 1.52129e-06 0.108681)
(2.96533e-06 1.46601e-06 0.10868)
(-2.99427e-06 1.50454e-06 0.10868)
(-6.70354e-05 6.69841e-05 0.106315)
(7.28992e-05 -7.28775e-05 0.106514)
(1.42502e-06 2.90539e-06 0.108682)
(1.50413e-06 -2.97718e-06 0.108681)
(1.40222e-06 2.89748e-06 0.108681)
(1.49819e-06 -2.9819e-06 0.10868)
(-1.50043e-06 -2.9644e-06 0.108681)
(-1.39502e-06 2.90745e-06 0.108682)
(-1.47052e-06 -2.9459e-06 0.10868)
(6.70084e-05 -6.70821e-05 0.106314)
(-7.28446e-05 7.28792e-05 0.106513)
(-2.89841e-06 -1.42673e-06 0.108682)
(2.89575e-06 -1.38452e-06 0.108681)
(-2.88039e-06 -1.38709e-06 0.108681)
(7.28074e-05 7.28406e-05 0.106513)
(6.70276e-05 6.70065e-05 0.106314)
(-7.28701e-05 -7.28367e-05 0.106513)
(2.97512e-06 1.51273e-06 0.108682)
(-3.00069e-06 1.54989e-06 0.108681)
(2.9806e-06 1.4509e-06 0.10868)
(-2.98985e-06 1.47699e-06 0.10868)
(-6.70141e-05 6.69649e-05 0.106315)
(7.29015e-05 -7.28827e-05 0.106514)
(1.45491e-06 2.90614e-06 0.108682)
(1.54261e-06 -2.98698e-06 0.108681)
(1.38453e-06 2.90613e-06 0.108681)
(1.4675e-06 -2.97771e-06 0.108679)
(-1.52288e-06 -2.9639e-06 0.108681)
(-1.37512e-06 2.90146e-06 0.108681)
(-1.45012e-06 -2.95671e-06 0.10868)
(6.7009e-05 -6.70639e-05 0.106314)
(-7.28678e-05 7.28834e-05 0.106513)
(-2.8994e-06 -1.43777e-06 0.108682)
(2.89602e-06 -1.37357e-06 0.108681)
(-2.8902e-06 -1.37678e-06 0.10868)
(7.27887e-05 7.2818e-05 0.106513)
(6.69953e-05 6.69801e-05 0.106314)
(-7.28531e-05 -7.28171e-05 0.106513)
(2.99742e-06 1.54348e-06 0.108682)
(-3.00954e-06 1.56706e-06 0.108682)
(2.94566e-06 1.41697e-06 0.108679)
(-2.96072e-06 1.44682e-06 0.108679)
(-6.69644e-05 6.69122e-05 0.106315)
(7.28687e-05 -7.28506e-05 0.106513)
(1.47657e-06 2.92547e-06 0.108683)
(1.55621e-06 -3.00032e-06 0.108681)
(1.34692e-06 2.8792e-06 0.10868)
(1.43065e-06 -2.94846e-06 0.108679)
(-1.54483e-06 -2.9811e-06 0.108682)
(-1.34645e-06 2.87138e-06 0.108681)
(-1.42182e-06 -2.92789e-06 0.108679)
(6.69478e-05 -6.70223e-05 0.106314)
(-7.28429e-05 7.28587e-05 0.106512)
(-2.91304e-06 -1.47298e-06 0.108682)
(2.86709e-06 -1.3396e-06 0.10868)
(-2.868e-06 -1.33818e-06 0.10868)
(7.27808e-05 7.28186e-05 0.106512)
(6.69405e-05 6.69271e-05 0.106314)
(-7.28177e-05 -7.27838e-05 0.106513)
(3.01123e-06 1.58317e-06 0.108682)
(-3.0296e-06 1.60738e-06 0.108682)
(2.90096e-06 1.35301e-06 0.108679)
(-2.9219e-06 1.38471e-06 0.108678)
(-6.69186e-05 6.68659e-05 0.106315)
(7.28262e-05 -7.28119e-05 0.106513)
(1.51016e-06 2.94606e-06 0.108683)
(1.59001e-06 -3.02015e-06 0.108682)
(1.28574e-06 2.83533e-06 0.10868)
(1.37099e-06 -2.90552e-06 0.108678)
(-1.58745e-06 -2.99615e-06 0.108682)
(-1.28467e-06 2.83206e-06 0.10868)
(-1.36283e-06 -2.87979e-06 0.108679)
(6.68862e-05 -6.69633e-05 0.106314)
(-7.27772e-05 7.28057e-05 0.106512)
(-2.93857e-06 -1.50494e-06 0.108683)
(2.82073e-06 -1.27586e-06 0.10868)
(-2.81991e-06 -1.27515e-06 0.108679)
(7.27299e-05 7.27704e-05 0.106512)
(6.68567e-05 6.6837e-05 0.106315)
(-7.27298e-05 -7.26962e-05 0.106512)
(3.04625e-06 1.64212e-06 0.108683)
(-3.06656e-06 1.67074e-06 0.108683)
(2.84762e-06 1.26088e-06 0.108678)
(-2.85747e-06 1.28669e-06 0.108678)
(-6.68418e-05 6.67849e-05 0.106315)
(7.2744e-05 -7.27263e-05 0.106513)
(1.57871e-06 2.97958e-06 0.108684)
(1.6583e-06 -3.0571e-06 0.108682)
(1.19449e-06 2.77639e-06 0.108679)
(1.27787e-06 -2.83609e-06 0.108677)
(-1.65502e-06 -3.03186e-06 0.108683)
(-1.18717e-06 2.77062e-06 0.108679)
(-1.26446e-06 -2.81968e-06 0.108678)
(6.68288e-05 -6.68912e-05 0.106314)
(-7.27015e-05 7.27318e-05 0.106512)
(-2.97368e-06 -1.5696e-06 0.108683)
(2.75886e-06 -1.17596e-06 0.108679)
(-2.75644e-06 -1.18157e-06 0.108678)
(7.26306e-05 7.26643e-05 0.106512)
(6.66978e-05 6.66787e-05 0.106315)
(-7.24977e-05 -7.2469e-05 0.106511)
(3.1319e-06 1.7488e-06 0.108684)
(-3.14382e-06 1.77616e-06 0.108684)
(2.71049e-06 1.09984e-06 0.108677)
(-2.72632e-06 1.13253e-06 0.108676)
(-6.66793e-05 6.66279e-05 0.106315)
(7.25089e-05 -7.24836e-05 0.106512)
(1.68915e-06 3.0618e-06 0.108685)
(1.76272e-06 -3.11802e-06 0.108683)
(1.03458e-06 2.63743e-06 0.108677)
(1.11975e-06 -2.72316e-06 0.108676)
(-1.7559e-06 -3.10275e-06 0.108684)
(-1.02267e-06 2.63969e-06 0.108678)
(-1.10409e-06 -2.70378e-06 0.108676)
(6.66862e-05 -6.67427e-05 0.106315)
(-7.25216e-05 7.25363e-05 0.106511)
(-3.04032e-06 -1.67533e-06 0.108684)
(2.64369e-06 -1.02685e-06 0.108677)
(-2.63422e-06 -1.02684e-06 0.108677)
(7.24847e-05 7.25098e-05 0.106511)
(6.64892e-05 6.64672e-05 0.106315)
(-7.21136e-05 -7.20792e-05 0.10651)
(3.24663e-06 1.90553e-06 0.108685)
(-3.26705e-06 1.93794e-06 0.108685)
(2.50571e-06 8.5443e-07 0.108675)
(-2.52512e-06 8.82413e-07 0.108674)
(-6.64784e-05 6.64342e-05 0.106316)
(7.21165e-05 -7.21021e-05 0.106511)
(1.84884e-06 3.17232e-06 0.108686)
(1.92325e-06 -3.26072e-06 0.108685)
(7.8402e-07 2.43164e-06 0.108675)
(8.74789e-07 -2.52826e-06 0.108674)
(-1.90824e-06 -3.22108e-06 0.108685)
(-7.81703e-07 2.43688e-06 0.108676)
(-8.62201e-07 -2.50846e-06 0.108674)
(6.64406e-05 -6.65109e-05 0.106316)
(-7.21277e-05 7.21329e-05 0.106509)
(-3.15099e-06 -1.83789e-06 0.108686)
(2.43704e-06 -7.87646e-07 0.108675)
(-2.43245e-06 -7.89524e-07 0.108675)
(7.21289e-05 7.21478e-05 0.106509)
(6.61835e-05 6.61695e-05 0.106317)
(-7.15407e-05 -7.14935e-05 0.106507)
(3.43579e-06 2.16021e-06 0.108687)
(-3.45408e-06 2.18639e-06 0.108687)
(2.17946e-06 4.95086e-07 0.108672)
(-2.19774e-06 5.22196e-07 0.108672)
(-6.61834e-05 6.61311e-05 0.106317)
(7.15544e-05 -7.15282e-05 0.106508)
(2.09779e-06 3.36456e-06 0.108688)
(2.17835e-06 -3.46726e-06 0.108687)
(4.11596e-07 2.11841e-06 0.108673)
(5.02497e-07 -2.19012e-06 0.108671)
(-2.16844e-06 -3.43854e-06 0.108687)
(-4.12365e-07 2.12083e-06 0.108674)
(-4.96885e-07 -2.17874e-06 0.108672)
(6.61082e-05 -6.61837e-05 0.106317)
(-7.14995e-05 7.15122e-05 0.106507)
(-3.3647e-06 -2.1027e-06 0.108688)
(2.09857e-06 -4.13107e-07 0.108673)
(-2.10273e-06 -4.18619e-07 0.108673)
(7.14851e-05 7.15122e-05 0.106507)
(6.55607e-05 6.55561e-05 0.106319)
(-7.0517e-05 -7.04761e-05 0.106503)
(3.75282e-06 2.57515e-06 0.10869)
(-3.76915e-06 2.60403e-06 0.10869)
(1.63798e-06 -7.04985e-08 0.108668)
(-1.65146e-06 -4.34398e-08 0.108668)
(-6.55534e-05 6.55146e-05 0.10632)
(7.05398e-05 -7.05173e-05 0.106504)
(2.50654e-06 3.69494e-06 0.108691)
(2.58611e-06 -3.77662e-06 0.10869)
(-1.55601e-07 1.57404e-06 0.108669)
(-6.39019e-08 -1.63901e-06 0.108668)
(-2.58148e-06 -3.76234e-06 0.10869)
(1.5601e-07 1.5758e-06 0.10867)
(7.42379e-08 -1.62115e-06 0.108668)
(6.55163e-05 -6.55818e-05 0.106319)
(-7.04638e-05 7.04729e-05 0.106502)
(-3.69245e-06 -2.51235e-06 0.108691)
(1.55987e-06 1.58689e-07 0.108669)
(-1.55341e-06 1.58893e-07 0.108669)
(7.04128e-05 7.04453e-05 0.106502)
(6.43774e-05 6.43677e-05 0.106324)
(-6.85974e-05 -6.85742e-05 0.106495)
(4.30472e-06 3.22156e-06 0.108694)
(-4.3179e-06 3.25207e-06 0.108694)
(7.14217e-07 -9.81774e-07 0.108663)
(-7.25001e-07 -9.53038e-07 0.108663)
(-6.43583e-05 6.43165e-05 0.106324)
(6.86144e-05 -6.86065e-05 0.106495)
(3.16083e-06 4.23989e-06 0.108695)
(3.23756e-06 -4.31152e-06 0.108694)
(-1.05468e-06 6.39188e-07 0.108664)
(-9.60906e-07 -7.03926e-07 0.108663)
(-3.22796e-06 -4.29516e-06 0.108694)
(1.05887e-06 6.43785e-07 0.108665)
(9.76327e-07 -6.86021e-07 0.108663)
(6.4364e-05 -6.44253e-05 0.106324)
(-6.855e-05 6.85726e-05 0.106494)
(-4.23417e-06 -3.15424e-06 0.108695)
(6.32842e-07 1.07056e-06 0.108664)
(-6.22349e-07 1.06416e-06 0.108664)
(6.84853e-05 6.85207e-05 0.106494)
(6.2181e-05 6.2161e-05 0.106332)
(-6.48606e-05 -6.48408e-05 0.106479)
(5.23225e-06 4.2168e-06 0.1087)
(-5.24511e-06 4.25097e-06 0.1087)
(-8.53868e-07 -2.39596e-06 0.108657)
(8.45742e-07 -2.36867e-06 0.108656)
(-6.21603e-05 6.21157e-05 0.106333)
(6.48769e-05 -6.48664e-05 0.106479)
(4.17178e-06 5.15627e-06 0.108701)
(4.24727e-06 -5.22453e-06 0.108699)
(-2.46705e-06 -9.26042e-07 0.108658)
(-2.37736e-06 8.70706e-07 0.108656)
(-4.23065e-06 -5.204e-06 0.1087)
(2.47518e-06 -9.25432e-07 0.108658)
(2.38871e-06 8.78139e-07 0.108656)
(6.21854e-05 -6.22248e-05 0.106332)
(-6.4838e-05 6.48538e-05 0.106478)
(-5.14624e-06 -4.15689e-06 0.108701)
(-9.35825e-07 2.48729e-06 0.108658)
(9.37001e-07 2.48001e-06 0.108657)
(6.47708e-05 6.48088e-05 0.106478)
(5.8005e-05 5.79943e-05 0.106349)
(-5.72155e-05 -5.71898e-05 0.106448)
(6.77326e-06 5.81408e-06 0.108708)
(-6.78531e-06 5.8458e-06 0.108708)
(-3.47051e-06 -4.57682e-06 0.108648)
(3.4508e-06 -4.54888e-06 0.108647)
(-5.79836e-05 5.79531e-05 0.106349)
(5.72231e-05 -5.72112e-05 0.106449)
(5.76827e-06 6.70436e-06 0.108709)
(5.83765e-06 -6.75683e-06 0.108708)
(-4.66335e-06 -3.51763e-06 0.108649)
(-4.57938e-06 3.4744e-06 0.108647)
(-5.82671e-06 -6.7367e-06 0.108708)
(4.65344e-06 -3.51756e-06 0.108649)
(4.56967e-06 3.48426e-06 0.108647)
(5.80144e-05 -5.80476e-05 0.106349)
(-5.72144e-05 5.72152e-05 0.106448)
(-6.68726e-06 -5.74769e-06 0.108709)
(-3.53426e-06 4.67715e-06 0.108649)
(3.52558e-06 4.6725e-06 0.108648)
(5.71559e-05 5.72051e-05 0.106448)
(4.96281e-05 4.96452e-05 0.10638)
(-4.23691e-05 -4.23245e-05 0.106393)
(9.30579e-06 8.34858e-06 0.108719)
(-9.33423e-06 8.3916e-06 0.108719)
(-8.77079e-06 -1.03035e-05 0.108634)
(8.73413e-06 -1.02859e-05 0.108634)
(-4.9619e-05 4.96136e-05 0.10638)
(4.23333e-05 -4.23437e-05 0.106394)
(8.28879e-06 9.25777e-06 0.10872)
(8.35827e-06 -9.30292e-06 0.108719)
(-1.03974e-05 -8.79181e-06 0.108635)
(-1.03244e-05 8.7568e-06 0.108634)
(-8.36712e-06 -9.26897e-06 0.108719)
(1.03665e-05 -8.76999e-06 0.108636)
(1.03013e-05 8.77191e-06 0.108634)
(4.96515e-05 -4.96771e-05 0.10638)
(-4.23924e-05 4.23646e-05 0.106393)
(-9.23519e-06 -8.27543e-06 0.10872)
(-8.80768e-06 1.03844e-05 0.108636)
(8.79173e-06 1.03915e-05 0.108635)
(4.23562e-05 4.23789e-05 0.106393)
(2.93382e-05 2.94153e-05 0.106436)
(-5.61664e-05 -5.60067e-05 0.10639)
(1.11034e-05 6.87742e-06 0.108733)
(-1.11527e-05 6.90289e-06 0.108733)
(-4.14309e-05 -5.77212e-05 0.108663)
(4.1417e-05 -5.7739e-05 0.108663)
(-2.93791e-05 2.93956e-05 0.106436)
(5.6185e-05 -5.60305e-05 0.10639)
(6.76814e-06 1.10899e-05 0.108734)
(6.84559e-06 -1.11084e-05 0.108733)
(-5.79547e-05 -4.13711e-05 0.108665)
(-5.78518e-05 4.14324e-05 0.108663)
(-6.85967e-06 -1.10776e-05 0.108733)
(5.79259e-05 -4.13692e-05 0.108665)
(5.78372e-05 4.14453e-05 0.108663)
(2.93627e-05 -2.94017e-05 0.106436)
(-5.6105e-05 5.61492e-05 0.10639)
(-1.10604e-05 -6.78103e-06 0.108734)
(-4.14474e-05 5.79267e-05 0.108665)
(4.14552e-05 5.7952e-05 0.108665)
(5.61089e-05 5.61505e-05 0.10639)
(-4.4433e-05 -4.42595e-05 0.106705)
(-3.89822e-05 -5.60196e-05 0.108808)
(3.89602e-05 -5.60346e-05 0.108808)
(4.44258e-05 -4.42752e-05 0.106705)
(-5.62312e-05 -3.8888e-05 0.108809)
(-5.61292e-05 3.89612e-05 0.108808)
(3.42282e-05 -3.41147e-05 0.110662)
(-3.42036e-05 3.42447e-05 0.110662)
(3.42226e-05 3.42574e-05 0.110662)
(5.6157e-05 3.89826e-05 0.108808)
(-4.43586e-05 4.43832e-05 0.106705)
(3.89835e-05 5.62403e-05 0.108809)
(-2.38799e-06 -2.37562e-06 0.110618)
(2.3918e-06 -2.37944e-06 0.110618)
(-2.37123e-06 2.39526e-06 0.110618)
(2.36081e-06 2.36451e-06 0.110618)
(-1.32744e-07 -1.06123e-05 0.0926989)
(2.36422e-07 9.56514e-06 0.0825279)
(-1.19922e-07 9.37434e-06 0.0926371)
(-2.18823e-06 -8.57541e-06 0.0825929)
(-2.59672e-06 4.33576e-06 0.0714438)
(2.77891e-06 -4.01317e-06 0.0715057)
(-1.06475e-05 -1.20575e-07 0.0926979)
(9.52375e-06 2.26571e-07 0.0825268)
(9.42614e-06 -1.0126e-07 0.0926374)
(-8.56044e-06 -2.16383e-06 0.0825933)
(2.38257e-06 -2.36996e-06 0.110619)
(-2.36292e-06 2.38677e-06 0.110618)
(2.36426e-06 2.36253e-06 0.110618)
(-2.38106e-06 -2.36935e-06 0.110619)
(2.38344e-06 -2.37241e-06 0.110619)
(-2.36318e-06 2.38697e-06 0.110618)
(2.35211e-06 2.35619e-06 0.110618)
(1.91156e-05 -7.84796e-08 0.100926)
(-1.57922e-05 4.35257e-06 0.094242)
(-2.11836e-06 -6.52041e-07 0.109933)
(-1.49184e-06 2.94553e-06 0.108682)
(-1.89215e-05 1.47126e-08 0.100821)
(1.32291e-05 -5.59222e-06 0.0943434)
(-2.13604e-06 -6.48393e-07 0.109933)
(4.25022e-06 -2.53653e-06 0.0714406)
(-3.92724e-06 2.73153e-06 0.0715069)
(-8.96712e-08 1.90795e-05 0.100926)
(-6.41645e-07 -2.10224e-06 0.109932)
(4.37836e-06 -1.58374e-05 0.0942423)
(2.93767e-06 -1.48789e-06 0.108681)
(1.31328e-08 -1.89105e-05 0.10082)
(-6.38347e-07 -2.12481e-06 0.109932)
(-5.62404e-06 1.32819e-05 0.0943421)
(-5.75286e-06 -5.51659e-06 0.0882103)
(-5.49644e-06 -5.75083e-06 0.0882088)
(7.28355e-05 7.28672e-05 0.106512)
(4.19103e-06 5.15087e-06 0.0882741)
(5.1683e-06 4.19181e-06 0.088272)
(-1.26312e-07 -1.06166e-05 0.0926988)
(2.57277e-07 9.55373e-06 0.0825277)
(-1.16475e-07 9.36714e-06 0.092637)
(-2.16746e-06 -8.58321e-06 0.0825927)
(-2.62566e-06 4.31415e-06 0.0714436)
(2.76383e-06 -4.01702e-06 0.0715055)
(-1.06533e-05 -1.14998e-07 0.0926978)
(9.50943e-06 2.53462e-07 0.0825266)
(9.41786e-06 -9.66485e-08 0.0926373)
(-8.57108e-06 -2.1412e-06 0.0825931)
(2.38204e-06 -2.37144e-06 0.110619)
(-2.36249e-06 2.38415e-06 0.110619)
(2.35685e-06 2.35553e-06 0.110619)
(-2.41331e-06 -2.39978e-06 0.110619)
(2.41081e-06 -2.40039e-06 0.110619)
(-2.39613e-06 2.41506e-06 0.110618)
(2.38824e-06 2.38992e-06 0.110619)
(1.91335e-05 -8.25228e-08 0.100926)
(-1.57872e-05 4.37235e-06 0.0942418)
(-2.12484e-06 -6.58017e-07 0.109933)
(-1.47336e-06 2.92105e-06 0.108682)
(-1.89075e-05 1.35197e-08 0.100821)
(1.32428e-05 -5.57659e-06 0.0943432)
(-2.12629e-06 -6.5087e-07 0.109933)
(4.23959e-06 -2.55139e-06 0.0714403)
(-3.92231e-06 2.72841e-06 0.0715067)
(-9.18853e-08 1.91e-05 0.100925)
(-6.46071e-07 -2.11007e-06 0.109933)
(4.3876e-06 -1.58261e-05 0.0942421)
(2.91327e-06 -1.46819e-06 0.108681)
(1.22309e-08 -1.88964e-05 0.10082)
(-6.38934e-07 -2.11743e-06 0.109932)
(-5.606e-06 1.32921e-05 0.0943419)
(-5.73878e-06 -5.52839e-06 0.0882101)
(-5.50066e-06 -5.7311e-06 0.0882086)
(7.2827e-05 7.2851e-05 0.106512)
(4.20195e-06 5.13323e-06 0.0882739)
(5.16182e-06 4.20398e-06 0.0882718)
(-1.32024e-07 -1.06093e-05 0.0926988)
(2.58868e-07 9.54844e-06 0.0825275)
(-1.1588e-07 9.35895e-06 0.092637)
(-2.19607e-06 -8.56684e-06 0.0825926)
(-2.61385e-06 4.32079e-06 0.0714434)
(2.77667e-06 -4.00567e-06 0.0715053)
(-1.06471e-05 -1.24301e-07 0.0926978)
(9.50843e-06 2.48795e-07 0.0825264)
(9.4102e-06 -9.41005e-08 0.0926373)
(-8.5537e-06 -2.17269e-06 0.082593)
(2.41832e-06 -2.40654e-06 0.110619)
(-2.40098e-06 2.42163e-06 0.110619)
(2.39297e-06 2.38943e-06 0.110619)
(-2.43309e-06 -2.41952e-06 0.110619)
(2.43313e-06 -2.42053e-06 0.110619)
(-2.40812e-06 2.43993e-06 0.110618)
(2.41178e-06 2.41753e-06 0.110618)
(1.91507e-05 -7.72949e-08 0.100926)
(-1.57522e-05 4.38254e-06 0.0942417)
(-2.07799e-06 -6.70093e-07 0.109933)
(-1.43554e-06 2.90343e-06 0.108682)
(-1.88771e-05 1.17511e-08 0.100821)
(1.3263e-05 -5.57743e-06 0.0943431)
(-2.0748e-06 -6.57422e-07 0.109933)
(4.2347e-06 -2.55496e-06 0.0714402)
(-3.91031e-06 2.7415e-06 0.0715066)
(-8.65623e-08 1.9117e-05 0.100925)
(-6.59389e-07 -2.06338e-06 0.109933)
(4.40657e-06 -1.58016e-05 0.094242)
(2.89547e-06 -1.4313e-06 0.108681)
(1.20459e-08 -1.88697e-05 0.10082)
(-6.4566e-07 -2.062e-06 0.109932)
(-5.61224e-06 1.33069e-05 0.0943418)
(-5.71887e-06 -5.54301e-06 0.0882098)
(-5.52067e-06 -5.71829e-06 0.0882084)
(7.28233e-05 7.28525e-05 0.106513)
(4.19881e-06 5.1404e-06 0.0882737)
(5.1618e-06 4.20058e-06 0.0882716)
(-1.39138e-07 -1.05944e-05 0.0926986)
(2.40106e-07 9.55691e-06 0.0825275)
(-1.30131e-07 9.37725e-06 0.0926368)
(-2.19826e-06 -8.55389e-06 0.0825925)
(-2.59927e-06 4.31883e-06 0.0714433)
(2.77555e-06 -4.00033e-06 0.0715053)
(-1.0633e-05 -1.35033e-07 0.0926975)
(9.49998e-06 2.22591e-07 0.0825264)
(9.42415e-06 -1.16987e-07 0.0926371)
(-8.55094e-06 -2.17231e-06 0.0825931)
(2.43503e-06 -2.42254e-06 0.110619)
(-2.41129e-06 2.44078e-06 0.110619)
(2.41275e-06 2.41221e-06 0.110619)
(-2.43368e-06 -2.42232e-06 0.110618)
(2.43663e-06 -2.42023e-06 0.110619)
(-2.41638e-06 2.43773e-06 0.110618)
(2.41203e-06 2.41634e-06 0.110618)
(1.91566e-05 -7.09263e-08 0.100926)
(-1.57625e-05 4.37842e-06 0.0942416)
(-2.02238e-06 -6.70805e-07 0.109933)
(-1.42087e-06 2.90598e-06 0.108682)
(-1.88608e-05 2.42392e-08 0.100821)
(1.32431e-05 -5.56627e-06 0.094343)
(-2.0353e-06 -6.59156e-07 0.109933)
(4.23838e-06 -2.536e-06 0.0714402)
(-3.90152e-06 2.74587e-06 0.0715066)
(-8.53163e-08 1.91246e-05 0.100926)
(-6.60978e-07 -2.00293e-06 0.109933)
(4.39836e-06 -1.57961e-05 0.0942419)
(2.90041e-06 -1.41115e-06 0.108681)
(1.66036e-08 -1.88591e-05 0.100821)
(-6.47139e-07 -2.02444e-06 0.109932)
(-5.60146e-06 1.32998e-05 0.0943418)
(-5.71539e-06 -5.53109e-06 0.0882098)
(-5.50677e-06 -5.71406e-06 0.0882083)
(7.28454e-05 7.2876e-05 0.106513)
(4.19737e-06 5.14991e-06 0.0882737)
(5.1708e-06 4.19905e-06 0.0882715)
(-1.25253e-07 -1.06121e-05 0.0926985)
(2.30669e-07 9.54704e-06 0.0825274)
(-1.17691e-07 9.35486e-06 0.0926367)
(-2.19942e-06 -8.54658e-06 0.0825924)
(-2.5916e-06 4.31377e-06 0.0714433)
(2.78096e-06 -3.98978e-06 0.0715053)
(-1.06431e-05 -1.19791e-07 0.0926974)
(9.51224e-06 2.27355e-07 0.0825265)
(9.40685e-06 -1.04995e-07 0.092637)
(-8.52109e-06 -2.16646e-06 0.0825929)
(2.43505e-06 -2.41848e-06 0.110619)
(-2.4136e-06 2.43506e-06 0.110619)
(2.41257e-06 2.41051e-06 0.110619)
(-2.43082e-06 -2.41959e-06 0.110618)
(2.43104e-06 -2.41801e-06 0.110618)
(-2.40677e-06 2.43695e-06 0.110618)
(2.40637e-06 2.41224e-06 0.110618)
(1.91437e-05 -8.28093e-08 0.100926)
(-1.57301e-05 4.35872e-06 0.0942416)
(-2.02895e-06 -6.76353e-07 0.109933)
(-1.41448e-06 2.91193e-06 0.108682)
(-1.88581e-05 6.0543e-09 0.100821)
(1.32488e-05 -5.56794e-06 0.094343)
(-2.0577e-06 -6.65857e-07 0.109933)
(4.23575e-06 -2.51528e-06 0.0714401)
(-3.89238e-06 2.74365e-06 0.0715065)
(-8.78263e-08 1.91097e-05 0.100926)
(-6.61931e-07 -2.02035e-06 0.109933)
(4.38941e-06 -1.57869e-05 0.0942419)
(2.90682e-06 -1.41696e-06 0.108681)
(1.35998e-08 -1.8851e-05 0.100821)
(-6.5043e-07 -2.05052e-06 0.109932)
(-5.60369e-06 1.33002e-05 0.0943417)
(-5.70628e-06 -5.5237e-06 0.0882098)
(-5.49785e-06 -5.70675e-06 0.0882083)
(7.28835e-05 7.2913e-05 0.106513)
(4.18627e-06 5.14282e-06 0.0882736)
(5.16384e-06 4.18542e-06 0.0882715)
(-1.3707e-07 -1.06002e-05 0.0926984)
(2.24068e-07 9.52495e-06 0.0825274)
(-1.31151e-07 9.34445e-06 0.0926367)
(-2.18752e-06 -8.52579e-06 0.0825924)
(-2.57832e-06 4.30491e-06 0.0714433)
(2.77367e-06 -3.97215e-06 0.0715053)
(-1.06333e-05 -1.25247e-07 0.0926974)
(9.48513e-06 2.08045e-07 0.0825264)
(9.40113e-06 -9.8322e-08 0.092637)
(-8.50785e-06 -2.15061e-06 0.0825928)
(2.41678e-06 -2.40435e-06 0.110619)
(-2.39582e-06 2.42301e-06 0.110619)
(2.39653e-06 2.39707e-06 0.110619)
(-2.43088e-06 -2.41518e-06 0.110618)
(2.43553e-06 -2.42042e-06 0.110618)
(-2.41509e-06 2.43678e-06 0.110618)
(2.40405e-06 2.40807e-06 0.110618)
(1.91482e-05 -7.97291e-08 0.100926)
(-1.57327e-05 4.33397e-06 0.0942417)
(-2.02502e-06 -6.69684e-07 0.109934)
(-1.42079e-06 2.9201e-06 0.108682)
(-1.88421e-05 1.2588e-08 0.100821)
(1.32356e-05 -5.56828e-06 0.0943429)
(-2.05986e-06 -6.62995e-07 0.109933)
(4.22307e-06 -2.51024e-06 0.0714401)
(-3.8734e-06 2.7445e-06 0.0715065)
(-9.31152e-08 1.91112e-05 0.100926)
(-6.59493e-07 -2.00231e-06 0.109933)
(4.3589e-06 -1.57767e-05 0.0942419)
(2.9102e-06 -1.41383e-06 0.108681)
(5.99264e-09 -1.88399e-05 0.100821)
(-6.50809e-07 -2.04505e-06 0.109932)
(-5.60091e-06 1.32756e-05 0.0943417)
(-5.70111e-06 -5.49821e-06 0.0882098)
(-5.47644e-06 -5.69678e-06 0.0882083)
(7.29053e-05 7.2939e-05 0.106513)
(4.18801e-06 5.1365e-06 0.0882736)
(5.15625e-06 4.19064e-06 0.0882715)
(-1.47538e-07 -1.06021e-05 0.0926983)
(2.06816e-07 9.49564e-06 0.0825273)
(-1.14161e-07 9.32234e-06 0.0926367)
(-2.1749e-06 -8.50865e-06 0.0825925)
(-2.55174e-06 4.28622e-06 0.0714433)
(2.75741e-06 -3.94848e-06 0.0715054)
(-1.0629e-05 -1.26147e-07 0.0926972)
(9.47095e-06 1.941e-07 0.0825263)
(9.38129e-06 -9.51056e-08 0.092637)
(-8.48894e-06 -2.16321e-06 0.0825927)
(2.40568e-06 -2.38995e-06 0.11062)
(-2.3862e-06 2.40799e-06 0.110619)
(2.38472e-06 2.38207e-06 0.110619)
(-2.44891e-06 -2.43395e-06 0.110618)
(2.44995e-06 -2.43236e-06 0.110618)
(-2.4207e-06 2.45231e-06 0.110618)
(2.42416e-06 2.42861e-06 0.110618)
(1.91394e-05 -7.87813e-08 0.100926)
(-1.56991e-05 4.31346e-06 0.0942418)
(-2.00927e-06 -6.68131e-07 0.109934)
(-1.39244e-06 2.90833e-06 0.108682)
(-1.88238e-05 4.97341e-09 0.100821)
(1.32184e-05 -5.55829e-06 0.0943429)
(-2.05152e-06 -6.59486e-07 0.109932)
(4.20657e-06 -2.48217e-06 0.0714401)
(-3.85324e-06 2.72351e-06 0.0715067)
(-9.0646e-08 1.91088e-05 0.100926)
(-6.57505e-07 -1.99877e-06 0.109933)
(4.33558e-06 -1.57322e-05 0.094242)
(2.90324e-06 -1.39405e-06 0.108681)
(5.79367e-09 -1.88077e-05 0.100821)
(-6.47826e-07 -2.04974e-06 0.109932)
(-5.58037e-06 1.32632e-05 0.0943417)
(-5.68603e-06 -5.48545e-06 0.0882099)
(-5.4614e-06 -5.68305e-06 0.0882084)
(7.29098e-05 7.29413e-05 0.106513)
(4.16837e-06 5.1332e-06 0.0882736)
(5.15008e-06 4.17567e-06 0.0882715)
(-1.1602e-07 -1.05771e-05 0.0926982)
(2.23797e-07 9.44632e-06 0.0825273)
(-1.2435e-07 9.27465e-06 0.0926368)
(-2.16507e-06 -8.45581e-06 0.0825927)
(-2.55689e-06 4.2365e-06 0.0714433)
(2.72826e-06 -3.91002e-06 0.0715057)
(-1.06097e-05 -1.22316e-07 0.0926972)
(9.41611e-06 2.13608e-07 0.0825264)
(9.32654e-06 -1.13817e-07 0.0926371)
(-8.44906e-06 -2.13823e-06 0.0825927)
(2.38599e-06 -2.37018e-06 0.11062)
(-2.35989e-06 2.39088e-06 0.110619)
(2.37269e-06 2.3729e-06 0.11062)