/*--------------------------------*- C++ -*----------------------------------*\
| =========                 |                                                 |
| \\      /  F ield         | OpenFOAM: The Open Source CFD Toolbox           |
|  \\    /   O peration     | Version:  v1906                                 |
|   \\  /    A nd           | Web:      www.OpenFOAM.com                      |
|    \\/     M anipulation  |                                                 |
\*---------------------------------------------------------------------------*/
FoamFile
{
    version     2.0;
    format      ascii;
    class       volScalarField;
    location    "0.17";
    object      p;
}
// * * * * * * * * * * * * * * * * * * * * * * * * * * * * * * * * * * * * * //

dimensions      [0 2 -2 0 0 0 0];


internalField   nonuniform List<scalar> 
247104
(
1.93284e-11
4.06717e-10
4.35975e-10
2.77119e-10
8.08404e-11
3.20732e-10
4.44391e-10
3.35341e-10
3.97482e-10
4.61129e-10
5.05107e-10
2.96488e-10
1.58324e-10
3.30767e-10
5.2291e-10
4.38151e-10
4.36032e-10
5.03162e-10
2.07301e-10
-1.82926e-10
-3.41266e-10
-1.39205e-10
2.60897e-10
5.2002e-10
4.2402e-10
2.74208e-10
2.91373e-10
-1.86136e-10
-6.74939e-10
-8.53341e-10
-6.24885e-10
-1.13895e-10
3.29526e-10
2.37985e-10
5.9007e-12
6.91298e-11
1.48196e-10
-3.48551e-10
-8.57073e-10
-1.04012e-09
-8.0572e-10
-2.73407e-10
1.84666e-10
1.53924e-11
3.02911e-10
3.15764e-10
-1.50536e-10
-6.32232e-10
-8.0907e-10
-5.82797e-10
-7.99883e-11
3.52025e-10
2.69846e-10
4.24664e-10
5.04766e-10
2.46235e-10
-1.24316e-10
-2.7932e-10
-8.21258e-11
2.95285e-10
5.15796e-10
4.1252e-10
3.14723e-10
4.18474e-10
5.02852e-10
3.16412e-10
1.77209e-10
3.49502e-10
5.15556e-10
3.88876e-10
4.04666e-10
2.21533e-10
7.35721e-12
2.69645e-10
4.13717e-10
-3.38668e-08
-3.59675e-08
-3.5916e-08
-3.70541e-08
-3.72986e-08
-3.73516e-08
-3.7361e-08
-3.57718e-08
-3.54215e-08
-3.59209e-08
-3.79999e-08
-4.10696e-08
-4.12027e-08
-4.12026e-08
-4.10671e-08
-3.75872e-08
-3.7386e-08
-3.70566e-08
-4.10708e-08
-4.11512e-08
-4.11212e-08
-4.11207e-08
-4.11495e-08
-4.1067e-08
-3.71189e-08
-3.62503e-08
-3.38668e-08
-3.73068e-08
-4.12047e-08
-4.11218e-08
-4.10096e-08
-4.10092e-08
-4.11205e-08
-4.12018e-08
-3.7305e-08
-3.55893e-08
-3.5957e-08
-3.73584e-08
-4.12047e-08
-4.11218e-08
-4.10097e-08
-4.10094e-08
-4.11208e-08
-4.12019e-08
-3.71809e-08
-3.75023e-08
-3.73649e-08
-4.10704e-08
-4.11514e-08
-4.11216e-08
-4.11214e-08
-4.11506e-08
-4.1069e-08
-3.72897e-08
-3.649e-08
-3.57784e-08
-3.75934e-08
-4.10703e-08
-4.12038e-08
-4.12046e-08
-4.10707e-08
-3.75146e-08
-3.71598e-08
-3.57412e-08
-3.54196e-08
-3.73933e-08
-3.71213e-08
-3.73066e-08
-3.71838e-08
-3.72934e-08
-3.71623e-08
-3.47568e-08
-3.6254e-08
-3.55959e-08
-3.75059e-08
-3.64972e-08
-3.57402e-08
-5.3941e-08
-5.41493e-08
-5.43045e-08
-5.65097e-08
-5.65566e-08
-5.65534e-08
-5.65233e-08
-5.41706e-08
-5.403e-08
-5.42902e-08
-5.71873e-08
-6.02695e-08
-6.04546e-08
-6.04551e-08
-6.02708e-08
-5.63838e-08
-5.60408e-08
-5.65109e-08
-6.02775e-08
-6.07212e-08
-6.07298e-08
-6.07296e-08
-6.07201e-08
-6.02689e-08
-5.55874e-08
-5.36114e-08
-5.39407e-08
-5.65573e-08
-6.04565e-08
-6.07313e-08
-6.07186e-08
-6.07181e-08
-6.07297e-08
-6.04528e-08
-5.55886e-08
-5.40036e-08
-5.41491e-08
-5.65535e-08
-6.04568e-08
-6.07316e-08
-6.07188e-08
-6.07183e-08
-6.07294e-08
-6.04531e-08
-5.56771e-08
-5.60833e-08
-5.65247e-08
-6.02743e-08
-6.07214e-08
-6.07304e-08
-6.07302e-08
-6.07199e-08
-6.02704e-08
-5.55371e-08
-5.3616e-08
-5.41733e-08
-5.63864e-08
-6.02713e-08
-6.0454e-08
-6.04562e-08
-6.02709e-08
-5.58913e-08
-5.57779e-08
-5.3701e-08
-5.40306e-08
-5.60435e-08
-5.55899e-08
-5.5591e-08
-5.56791e-08
-5.5538e-08
-5.57784e-08
-5.36255e-08
-5.36161e-08
-5.40035e-08
-5.60861e-08
-5.36138e-08
-5.37025e-08
-7.36353e-08
-7.38103e-08
-7.38943e-08
-7.62237e-08
-7.62505e-08
-7.63586e-08
-7.61632e-08
-7.37986e-08
-7.36359e-08
-7.38989e-08
-7.71304e-08
-8.00528e-08
-8.0122e-08
-8.01234e-08
-8.00546e-08
-7.61827e-08
-7.55602e-08
-7.62252e-08
-8.00548e-08
-8.02382e-08
-8.02461e-08
-8.02462e-08
-8.02372e-08
-8.0053e-08
-7.51915e-08
-7.32722e-08
-7.36345e-08
-7.62501e-08
-8.0124e-08
-8.02476e-08
-8.02492e-08
-8.02488e-08
-8.02459e-08
-8.0121e-08
-7.50823e-08
-7.37132e-08
-7.38098e-08
-7.63574e-08
-8.01243e-08
-8.02474e-08
-8.02493e-08
-8.02491e-08
-8.0246e-08
-8.01219e-08
-7.51354e-08
-7.56267e-08
-7.61645e-08
-8.00551e-08
-8.02379e-08
-8.02466e-08
-8.02472e-08
-8.02382e-08
-8.00527e-08
-7.50935e-08
-7.33266e-08
-7.37978e-08
-7.61858e-08
-8.00538e-08
-8.01215e-08
-8.01234e-08
-8.00539e-08
-7.52916e-08
-7.53286e-08
-7.33061e-08
-7.36392e-08
-7.55612e-08
-7.51915e-08
-7.50822e-08
-7.51358e-08
-7.50954e-08
-7.53297e-08
-7.33445e-08
-7.32724e-08
-7.37121e-08
-7.56186e-08
-7.33245e-08
-7.33067e-08
-9.33345e-08
-9.35002e-08
-9.36687e-08
-9.60159e-08
-9.60518e-08
-9.62253e-08
-9.59537e-08
-9.35598e-08
-9.34027e-08
-9.36694e-08
-9.70189e-08
-9.98922e-08
-9.99129e-08
-9.99126e-08
-9.98924e-08
-9.6061e-08
-9.5309e-08
-9.60198e-08
-9.98951e-08
-9.99446e-08
-9.99474e-08
-9.99473e-08
-9.99441e-08
-9.98921e-08
-9.49065e-08
-9.29926e-08
-9.33338e-08
-9.60554e-08
-9.99142e-08
-9.99479e-08
-9.99484e-08
-9.99482e-08
-9.99471e-08
-9.99134e-08
-9.47108e-08
-9.33659e-08
-9.35048e-08
-9.62285e-08
-9.99139e-08
-9.9948e-08
-9.99485e-08
-9.99484e-08
-9.99474e-08
-9.99131e-08
-9.47436e-08
-9.52622e-08
-9.59567e-08
-9.98938e-08
-9.99449e-08
-9.99479e-08
-9.99479e-08
-9.99446e-08
-9.9893e-08
-9.4773e-08
-9.29891e-08
-9.35626e-08
-9.60625e-08
-9.98926e-08
-9.99141e-08
-9.99145e-08
-9.98943e-08
-9.49064e-08
-9.50291e-08
-9.30367e-08
-9.33953e-08
-9.53086e-08
-9.49071e-08
-9.47123e-08
-9.47461e-08
-9.47763e-08
-9.50334e-08
-9.30766e-08
-9.29938e-08
-9.33667e-08
-9.52629e-08
-9.29891e-08
-9.30372e-08
-1.13096e-07
-1.13258e-07
-1.1345e-07
-1.15808e-07
-1.15844e-07
-1.16036e-07
-1.15749e-07
-1.13342e-07
-1.13165e-07
-1.13452e-07
-1.16823e-07
-1.19696e-07
-1.19702e-07
-1.19702e-07
-1.19697e-07
-1.15887e-07
-1.15091e-07
-1.15811e-07
-1.19695e-07
-1.19709e-07
-1.1971e-07
-1.1971e-07
-1.19709e-07
-1.19696e-07
-1.14676e-07
-1.12762e-07
-1.13092e-07
-1.15845e-07
-1.19702e-07
-1.1971e-07
-1.1971e-07
-1.1971e-07
-1.1971e-07
-1.19702e-07
-1.14456e-07
-1.13104e-07
-1.13257e-07
-1.16039e-07
-1.19702e-07
-1.1971e-07
-1.1971e-07
-1.1971e-07
-1.1971e-07
-1.19701e-07
-1.14473e-07
-1.14999e-07
-1.15749e-07
-1.19696e-07
-1.1971e-07
-1.1971e-07
-1.1971e-07
-1.1971e-07
-1.19697e-07
-1.14533e-07
-1.12735e-07
-1.13341e-07
-1.15891e-07
-1.19696e-07
-1.19703e-07
-1.19703e-07
-1.19697e-07
-1.14635e-07
-1.1479e-07
-1.12813e-07
-1.13165e-07
-1.15089e-07
-1.14676e-07
-1.14455e-07
-1.14474e-07
-1.14533e-07
-1.14794e-07
-1.12859e-07
-1.12761e-07
-1.13102e-07
-1.14998e-07
-1.12734e-07
-1.12813e-07
-1.32874e-07
-1.33033e-07
-1.33232e-07
-1.35593e-07
-1.35631e-07
-1.35827e-07
-1.35536e-07
-1.33127e-07
-1.32949e-07
-1.3323e-07
-1.36612e-07
-1.39485e-07
-1.39486e-07
-1.39487e-07
-1.39486e-07
-1.35685e-07
-1.34867e-07
-1.35596e-07
-1.39485e-07
-1.39488e-07
-1.39488e-07
-1.39488e-07
-1.39488e-07
-1.39485e-07
-1.34459e-07
-1.32541e-07
-1.32869e-07
-1.3563e-07
-1.39486e-07
-1.39488e-07
-1.39488e-07
-1.39488e-07
-1.39489e-07
-1.39487e-07
-1.34227e-07
-1.32876e-07
-1.33033e-07
-1.35827e-07
-1.39486e-07
-1.39488e-07
-1.39488e-07
-1.39488e-07
-1.39489e-07
-1.39487e-07
-1.34242e-07
-1.34769e-07
-1.35537e-07
-1.39486e-07
-1.39488e-07
-1.39489e-07
-1.39489e-07
-1.39489e-07
-1.39485e-07
-1.34313e-07
-1.32509e-07
-1.33126e-07
-1.35689e-07
-1.39486e-07
-1.39487e-07
-1.39487e-07
-1.39486e-07
-1.344e-07
-1.34566e-07
-1.32592e-07
-1.32941e-07
-1.3487e-07
-1.34456e-07
-1.34229e-07
-1.34243e-07
-1.34313e-07
-1.3457e-07
-1.32637e-07
-1.32542e-07
-1.32874e-07
-1.3477e-07
-1.32511e-07
-1.32592e-07
-1.52655e-07
-1.52814e-07
-1.53013e-07
-1.55377e-07
-1.55415e-07
-1.5561e-07
-1.5532e-07
-1.5291e-07
-1.52733e-07
-1.53011e-07
-1.56397e-07
-1.59269e-07
-1.5927e-07
-1.5927e-07
-1.5927e-07
-1.55469e-07
-1.54649e-07
-1.5538e-07
-1.5927e-07
-1.59271e-07
-1.5927e-07
-1.5927e-07
-1.59271e-07
-1.5927e-07
-1.54242e-07
-1.52324e-07
-1.5265e-07
-1.55415e-07
-1.5927e-07
-1.5927e-07
-1.5927e-07
-1.5927e-07
-1.5927e-07
-1.5927e-07
-1.54006e-07
-1.52658e-07
-1.52814e-07
-1.55612e-07
-1.5927e-07
-1.5927e-07
-1.5927e-07
-1.5927e-07
-1.5927e-07
-1.5927e-07
-1.5402e-07
-1.5455e-07
-1.55322e-07
-1.59269e-07
-1.59271e-07
-1.59271e-07
-1.5927e-07
-1.59271e-07
-1.5927e-07
-1.54095e-07
-1.5229e-07
-1.52911e-07
-1.55474e-07
-1.59269e-07
-1.59271e-07
-1.5927e-07
-1.5927e-07
-1.54181e-07
-1.54348e-07
-1.52374e-07
-1.52725e-07
-1.54652e-07
-1.54241e-07
-1.54007e-07
-1.54022e-07
-1.54093e-07
-1.5435e-07
-1.52419e-07
-1.52324e-07
-1.52655e-07
-1.54549e-07
-1.52291e-07
-1.52373e-07
-1.72437e-07
-1.72596e-07
-1.72796e-07
-1.7516e-07
-1.75196e-07
-1.75394e-07
-1.75103e-07
-1.72692e-07
-1.72515e-07
-1.72794e-07
-1.76178e-07
-1.79053e-07
-1.79053e-07
-1.79053e-07
-1.79053e-07
-1.75254e-07
-1.74431e-07
-1.75163e-07
-1.79052e-07
-1.79053e-07
-1.79053e-07
-1.79053e-07
-1.79053e-07
-1.79052e-07
-1.74022e-07
-1.72106e-07
-1.72432e-07
-1.75197e-07
-1.79052e-07
-1.79052e-07
-1.79052e-07
-1.79052e-07
-1.79053e-07
-1.79053e-07
-1.73788e-07
-1.72439e-07
-1.72596e-07
-1.75395e-07
-1.79052e-07
-1.79052e-07
-1.79052e-07
-1.79052e-07
-1.79053e-07
-1.79053e-07
-1.73802e-07
-1.74331e-07
-1.75104e-07
-1.79052e-07
-1.79052e-07
-1.79053e-07
-1.79053e-07
-1.79053e-07
-1.79053e-07
-1.73876e-07
-1.72072e-07
-1.72692e-07
-1.75258e-07
-1.79052e-07
-1.79052e-07
-1.79052e-07
-1.79053e-07
-1.7396e-07
-1.74128e-07
-1.72156e-07
-1.72507e-07
-1.74436e-07
-1.74025e-07
-1.73789e-07
-1.73803e-07
-1.73876e-07
-1.74132e-07
-1.72199e-07
-1.72106e-07
-1.72438e-07
-1.74331e-07
-1.72072e-07
-1.72155e-07
-1.92219e-07
-1.92378e-07
-1.92578e-07
-1.94943e-07
-1.94978e-07
-1.95176e-07
-1.94885e-07
-1.92474e-07
-1.92297e-07
-1.92576e-07
-1.95961e-07
-1.98835e-07
-1.98835e-07
-1.98835e-07
-1.98835e-07
-1.95038e-07
-1.94213e-07
-1.94945e-07
-1.98834e-07
-1.98836e-07
-1.98835e-07
-1.98835e-07
-1.98835e-07
-1.98835e-07
-1.93804e-07
-1.91888e-07
-1.92213e-07
-1.94979e-07
-1.98835e-07
-1.98836e-07
-1.98835e-07
-1.98835e-07
-1.98835e-07
-1.98835e-07
-1.93571e-07
-1.92221e-07
-1.92378e-07
-1.95178e-07
-1.98835e-07
-1.98836e-07
-1.98835e-07
-1.98835e-07
-1.98835e-07
-1.98835e-07
-1.93585e-07
-1.94113e-07
-1.94887e-07
-1.98835e-07
-1.98836e-07
-1.98835e-07
-1.98835e-07
-1.98835e-07
-1.98835e-07
-1.93658e-07
-1.91854e-07
-1.92474e-07
-1.9504e-07
-1.98835e-07
-1.98835e-07
-1.98835e-07
-1.98835e-07
-1.93742e-07
-1.9391e-07
-1.91938e-07
-1.92289e-07
-1.94218e-07
-1.93805e-07
-1.9357e-07
-1.93584e-07
-1.93657e-07
-1.93914e-07
-1.91981e-07
-1.91887e-07
-1.92219e-07
-1.94111e-07
-1.91853e-07
-1.91936e-07
-2.12004e-07
-2.12162e-07
-2.12364e-07
-2.14729e-07
-2.14763e-07
-2.14961e-07
-2.1467e-07
-2.12256e-07
-2.1208e-07
-2.12361e-07
-2.15743e-07
-2.1862e-07
-2.1862e-07
-2.1862e-07
-2.18619e-07
-2.14822e-07
-2.13997e-07
-2.1473e-07
-2.1862e-07
-2.1862e-07
-2.1862e-07
-2.1862e-07
-2.1862e-07
-2.1862e-07
-2.13588e-07
-2.11672e-07
-2.11998e-07
-2.14764e-07
-2.1862e-07
-2.1862e-07
-2.1862e-07
-2.1862e-07
-2.1862e-07
-2.1862e-07
-2.13355e-07
-2.12005e-07
-2.12162e-07
-2.14963e-07
-2.1862e-07
-2.1862e-07
-2.1862e-07
-2.1862e-07
-2.1862e-07
-2.1862e-07
-2.13369e-07
-2.13898e-07
-2.14671e-07
-2.1862e-07
-2.1862e-07
-2.1862e-07
-2.1862e-07
-2.1862e-07
-2.1862e-07
-2.13442e-07
-2.11638e-07
-2.12258e-07
-2.14825e-07
-2.1862e-07
-2.1862e-07
-2.1862e-07
-2.1862e-07
-2.13526e-07
-2.13695e-07
-2.11722e-07
-2.12074e-07
-2.14002e-07
-2.1359e-07
-2.13355e-07
-2.13369e-07
-2.13441e-07
-2.13698e-07
-2.11765e-07
-2.11672e-07
-2.12003e-07
-2.13896e-07
-2.11638e-07
-2.1172e-07
-2.31789e-07
-2.31947e-07
-2.32151e-07
-2.34512e-07
-2.34549e-07
-2.34746e-07
-2.34455e-07
-2.3204e-07
-2.31865e-07
-2.32145e-07
-2.35534e-07
-2.38405e-07
-2.38405e-07
-2.38404e-07
-2.38404e-07
-2.34606e-07
-2.33782e-07
-2.34515e-07
-2.38405e-07
-2.38405e-07
-2.38405e-07
-2.38404e-07
-2.38404e-07
-2.38404e-07
-2.33373e-07
-2.31457e-07
-2.31783e-07
-2.34549e-07
-2.38405e-07
-2.38405e-07
-2.38404e-07
-2.38404e-07
-2.38404e-07
-2.38404e-07
-2.3314e-07
-2.3179e-07
-2.31947e-07
-2.34748e-07
-2.38405e-07
-2.38405e-07
-2.38404e-07
-2.38404e-07
-2.38404e-07
-2.38404e-07
-2.33154e-07
-2.33683e-07
-2.34456e-07
-2.38405e-07
-2.38405e-07
-2.38405e-07
-2.38405e-07
-2.38404e-07
-2.38404e-07
-2.33227e-07
-2.31423e-07
-2.32044e-07
-2.34611e-07
-2.38404e-07
-2.38404e-07
-2.38404e-07
-2.38404e-07
-2.33311e-07
-2.3348e-07
-2.31507e-07
-2.31859e-07
-2.33788e-07
-2.33375e-07
-2.3314e-07
-2.33154e-07
-2.33226e-07
-2.33483e-07
-2.3155e-07
-2.31457e-07
-2.31788e-07
-2.33681e-07
-2.31423e-07
-2.31506e-07
-2.51572e-07
-2.51731e-07
-2.51937e-07
-2.54296e-07
-2.54332e-07
-2.5453e-07
-2.54238e-07
-2.51824e-07
-2.5165e-07
-2.51932e-07
-2.55314e-07
-2.58188e-07
-2.58188e-07
-2.58188e-07
-2.58187e-07
-2.54388e-07
-2.53566e-07
-2.54298e-07
-2.58188e-07
-2.58188e-07
-2.58188e-07
-2.58187e-07
-2.58188e-07
-2.58188e-07
-2.53156e-07
-2.5124e-07
-2.51567e-07
-2.54332e-07
-2.58188e-07
-2.58188e-07
-2.58188e-07
-2.58188e-07
-2.58188e-07
-2.58188e-07
-2.52923e-07
-2.51573e-07
-2.51731e-07
-2.54531e-07
-2.58188e-07
-2.58188e-07
-2.58188e-07
-2.58188e-07
-2.58188e-07
-2.58188e-07
-2.52937e-07
-2.53466e-07
-2.5424e-07
-2.58188e-07
-2.58188e-07
-2.58188e-07
-2.58188e-07
-2.58188e-07
-2.58188e-07
-2.53011e-07
-2.51206e-07
-2.51827e-07
-2.54394e-07
-2.58188e-07
-2.58188e-07
-2.58188e-07
-2.58188e-07
-2.53095e-07
-2.53263e-07
-2.51291e-07
-2.51642e-07
-2.53571e-07
-2.53158e-07
-2.52923e-07
-2.52937e-07
-2.53009e-07
-2.53266e-07
-2.51334e-07
-2.51241e-07
-2.51572e-07
-2.53464e-07
-2.51206e-07
-2.51289e-07
-2.71355e-07
-2.71514e-07
-2.7172e-07
-2.74079e-07
-2.74115e-07
-2.74312e-07
-2.74021e-07
-2.71609e-07
-2.71433e-07
-2.71715e-07
-2.75097e-07
-2.77971e-07
-2.77971e-07
-2.77971e-07
-2.77971e-07
-2.74171e-07
-2.73349e-07
-2.74081e-07
-2.77971e-07
-2.77971e-07
-2.77971e-07
-2.77971e-07
-2.77971e-07
-2.77971e-07
-2.7294e-07
-2.71024e-07
-2.71349e-07
-2.74115e-07
-2.77971e-07
-2.77971e-07
-2.77971e-07
-2.77971e-07
-2.77971e-07
-2.77971e-07
-2.72706e-07
-2.71357e-07
-2.71514e-07
-2.74314e-07
-2.77971e-07
-2.77971e-07
-2.77971e-07
-2.77971e-07
-2.77971e-07
-2.77971e-07
-2.7272e-07
-2.73249e-07
-2.74023e-07
-2.77971e-07
-2.77971e-07
-2.77971e-07
-2.77971e-07
-2.77971e-07
-2.77971e-07
-2.72794e-07
-2.70989e-07
-2.7161e-07
-2.74178e-07
-2.77971e-07
-2.77971e-07
-2.77971e-07
-2.77971e-07
-2.72878e-07
-2.73046e-07
-2.71074e-07
-2.71425e-07
-2.73354e-07
-2.72942e-07
-2.72706e-07
-2.7272e-07
-2.72793e-07
-2.73049e-07
-2.71117e-07
-2.71024e-07
-2.71355e-07
-2.73247e-07
-2.70989e-07
-2.71072e-07
-2.91139e-07
-2.91298e-07
-2.91501e-07
-2.93863e-07
-2.93899e-07
-2.94097e-07
-2.93804e-07
-2.91393e-07
-2.91216e-07
-2.91494e-07
-2.94883e-07
-2.97755e-07
-2.97755e-07
-2.97755e-07
-2.97755e-07
-2.93955e-07
-2.93133e-07
-2.93865e-07
-2.97755e-07
-2.97755e-07
-2.97755e-07
-2.97755e-07
-2.97755e-07
-2.97755e-07
-2.92724e-07
-2.90808e-07
-2.91133e-07
-2.93899e-07
-2.97755e-07
-2.97755e-07
-2.97755e-07
-2.97755e-07
-2.97755e-07
-2.97755e-07
-2.9249e-07
-2.91141e-07
-2.91298e-07
-2.94098e-07
-2.97755e-07
-2.97755e-07
-2.97755e-07
-2.97755e-07
-2.97755e-07
-2.97755e-07
-2.92504e-07
-2.93034e-07
-2.93807e-07
-2.97755e-07
-2.97755e-07
-2.97755e-07
-2.97755e-07
-2.97755e-07
-2.97755e-07
-2.92578e-07
-2.90774e-07
-2.91394e-07
-2.93962e-07
-2.97755e-07
-2.97755e-07
-2.97755e-07
-2.97755e-07
-2.92662e-07
-2.9283e-07
-2.90858e-07
-2.9121e-07
-2.93138e-07
-2.92726e-07
-2.9249e-07
-2.92504e-07
-2.92576e-07
-2.92833e-07
-2.909e-07
-2.90808e-07
-2.91139e-07
-2.93031e-07
-2.90773e-07
-2.90856e-07
-3.10923e-07
-3.11081e-07
-3.11285e-07
-3.13646e-07
-3.13682e-07
-3.1388e-07
-3.13587e-07
-3.11176e-07
-3.11e-07
-3.11279e-07
-3.14667e-07
-3.17539e-07
-3.17538e-07
-3.17539e-07
-3.17538e-07
-3.13739e-07
-3.12916e-07
-3.13649e-07
-3.17538e-07
-3.17538e-07
-3.17538e-07
-3.17538e-07
-3.17538e-07
-3.17538e-07
-3.12507e-07
-3.10591e-07
-3.10917e-07
-3.13683e-07
-3.17538e-07
-3.17539e-07
-3.17538e-07
-3.17538e-07
-3.17538e-07
-3.17538e-07
-3.12274e-07
-3.10924e-07
-3.11081e-07
-3.13882e-07
-3.17538e-07
-3.17538e-07
-3.17538e-07
-3.17538e-07
-3.17538e-07
-3.17538e-07
-3.12288e-07
-3.12817e-07
-3.1359e-07
-3.17538e-07
-3.17538e-07
-3.17538e-07
-3.17538e-07
-3.17538e-07
-3.17538e-07
-3.12361e-07
-3.10557e-07
-3.11178e-07
-3.13745e-07
-3.17538e-07
-3.17538e-07
-3.17538e-07
-3.17538e-07
-3.12445e-07
-3.12614e-07
-3.10641e-07
-3.10993e-07
-3.12921e-07
-3.12509e-07
-3.12274e-07
-3.12289e-07
-3.1236e-07
-3.12617e-07
-3.10683e-07
-3.10591e-07
-3.10922e-07
-3.12817e-07
-3.10556e-07
-3.10639e-07
-3.30706e-07
-3.30865e-07
-3.31068e-07
-3.33429e-07
-3.33466e-07
-3.33664e-07
-3.33371e-07
-3.30961e-07
-3.30783e-07
-3.31063e-07
-3.34451e-07
-3.37322e-07
-3.37322e-07
-3.37322e-07
-3.37322e-07
-3.33523e-07
-3.327e-07
-3.33432e-07
-3.37322e-07
-3.37322e-07
-3.37322e-07
-3.37322e-07
-3.37322e-07
-3.37322e-07
-3.32291e-07
-3.30375e-07
-3.30701e-07
-3.33467e-07
-3.37322e-07
-3.37322e-07
-3.37322e-07
-3.37322e-07
-3.37322e-07
-3.37322e-07
-3.32057e-07
-3.30707e-07
-3.30865e-07
-3.33665e-07
-3.37322e-07
-3.37322e-07
-3.37322e-07
-3.37322e-07
-3.37322e-07
-3.37322e-07
-3.32071e-07
-3.326e-07
-3.33374e-07
-3.37322e-07
-3.37322e-07
-3.37322e-07
-3.37322e-07
-3.37322e-07
-3.37322e-07
-3.32145e-07
-3.3034e-07
-3.30961e-07
-3.33529e-07
-3.37322e-07
-3.37322e-07
-3.37322e-07
-3.37322e-07
-3.32229e-07
-3.32398e-07
-3.30425e-07
-3.30777e-07
-3.32705e-07
-3.32292e-07
-3.32057e-07
-3.32071e-07
-3.32143e-07
-3.324e-07
-3.30467e-07
-3.30375e-07
-3.30706e-07
-3.32598e-07
-3.3034e-07
-3.30423e-07
-3.5049e-07
-3.50649e-07
-3.50852e-07
-3.53213e-07
-3.5325e-07
-3.53447e-07
-3.53154e-07
-3.50744e-07
-3.50568e-07
-3.50847e-07
-3.54235e-07
-3.57106e-07
-3.57106e-07
-3.57106e-07
-3.57106e-07
-3.53305e-07
-3.52484e-07
-3.53216e-07
-3.57106e-07
-3.57106e-07
-3.57105e-07
-3.57106e-07
-3.57106e-07
-3.57106e-07
-3.52074e-07
-3.50158e-07
-3.50484e-07
-3.5325e-07
-3.57106e-07
-3.57106e-07
-3.57106e-07
-3.57106e-07
-3.57106e-07
-3.57106e-07
-3.51841e-07
-3.50491e-07
-3.50648e-07
-3.53449e-07
-3.57106e-07
-3.57106e-07
-3.57106e-07
-3.57106e-07
-3.57106e-07
-3.57106e-07
-3.51855e-07
-3.52384e-07
-3.53157e-07
-3.57106e-07
-3.57106e-07
-3.57106e-07
-3.57106e-07
-3.57106e-07
-3.57106e-07
-3.51929e-07
-3.50124e-07
-3.50745e-07
-3.53312e-07
-3.57106e-07
-3.57106e-07
-3.57106e-07
-3.57106e-07
-3.52013e-07
-3.52181e-07
-3.50208e-07
-3.5056e-07
-3.52489e-07
-3.52076e-07
-3.51841e-07
-3.51855e-07
-3.51927e-07
-3.52184e-07
-3.5025e-07
-3.50158e-07
-3.5049e-07
-3.52382e-07
-3.50123e-07
-3.50206e-07
-3.70274e-07
-3.70432e-07
-3.70637e-07
-3.72997e-07
-3.73034e-07
-3.73231e-07
-3.72938e-07
-3.70528e-07
-3.70352e-07
-3.7063e-07
-3.74019e-07
-3.7689e-07
-3.7689e-07
-3.7689e-07
-3.7689e-07
-3.73089e-07
-3.72268e-07
-3.73e-07
-3.76891e-07
-3.7689e-07
-3.7689e-07
-3.7689e-07
-3.7689e-07
-3.7689e-07
-3.71859e-07
-3.69942e-07
-3.70268e-07
-3.73035e-07
-3.7689e-07
-3.7689e-07
-3.7689e-07
-3.7689e-07
-3.7689e-07
-3.7689e-07
-3.71625e-07
-3.70275e-07
-3.70432e-07
-3.73233e-07
-3.7689e-07
-3.7689e-07
-3.7689e-07
-3.7689e-07
-3.7689e-07
-3.7689e-07
-3.71639e-07
-3.72168e-07
-3.72941e-07
-3.7689e-07
-3.7689e-07
-3.7689e-07
-3.7689e-07
-3.7689e-07
-3.7689e-07
-3.71713e-07
-3.69908e-07
-3.70529e-07
-3.73097e-07
-3.7689e-07
-3.7689e-07
-3.7689e-07
-3.7689e-07
-3.71797e-07
-3.71965e-07
-3.69992e-07
-3.70344e-07
-3.72273e-07
-3.71861e-07
-3.71626e-07
-3.7164e-07
-3.71711e-07
-3.71968e-07
-3.70034e-07
-3.69943e-07
-3.70273e-07
-3.72166e-07
-3.69908e-07
-3.6999e-07
-3.90059e-07
-3.90218e-07
-3.90422e-07
-3.92783e-07
-3.92819e-07
-3.93016e-07
-3.92724e-07
-3.90313e-07
-3.90137e-07
-3.90416e-07
-3.93804e-07
-3.96675e-07
-3.96675e-07
-3.96675e-07
-3.96675e-07
-3.92875e-07
-3.92053e-07
-3.92786e-07
-3.96675e-07
-3.96675e-07
-3.96675e-07
-3.96675e-07
-3.96675e-07
-3.96675e-07
-3.91644e-07
-3.89728e-07
-3.90054e-07
-3.9282e-07
-3.96675e-07
-3.96675e-07
-3.96675e-07
-3.96675e-07
-3.96675e-07
-3.96675e-07
-3.9141e-07
-3.90061e-07
-3.90218e-07
-3.93018e-07
-3.96675e-07
-3.96675e-07
-3.96675e-07
-3.96675e-07
-3.96675e-07
-3.96675e-07
-3.91424e-07
-3.91953e-07
-3.92727e-07
-3.96675e-07
-3.96675e-07
-3.96675e-07
-3.96675e-07
-3.96675e-07
-3.96675e-07
-3.91498e-07
-3.89694e-07
-3.90314e-07
-3.92882e-07
-3.96675e-07
-3.96675e-07
-3.96675e-07
-3.96675e-07
-3.91583e-07
-3.91751e-07
-3.89778e-07
-3.9013e-07
-3.92058e-07
-3.91646e-07
-3.9141e-07
-3.91424e-07
-3.91496e-07
-3.91753e-07
-3.8982e-07
-3.89728e-07
-3.90059e-07
-3.91952e-07
-3.89693e-07
-3.89776e-07
-4.09842e-07
-4.10001e-07
-4.10205e-07
-4.12566e-07
-4.12601e-07
-4.12799e-07
-4.12506e-07
-4.10096e-07
-4.09919e-07
-4.10199e-07
-4.13586e-07
-4.16457e-07
-4.16457e-07
-4.16457e-07
-4.16457e-07
-4.12658e-07
-4.11836e-07
-4.12568e-07
-4.16457e-07
-4.16457e-07
-4.16457e-07
-4.16457e-07
-4.16457e-07
-4.16457e-07
-4.11427e-07
-4.09511e-07
-4.09837e-07
-4.12602e-07
-4.16457e-07
-4.16457e-07
-4.16457e-07
-4.16457e-07
-4.16457e-07
-4.16457e-07
-4.11193e-07
-4.09844e-07
-4.10001e-07
-4.12801e-07
-4.16457e-07
-4.16457e-07
-4.16457e-07
-4.16457e-07
-4.16457e-07
-4.16457e-07
-4.11207e-07
-4.11736e-07
-4.12509e-07
-4.16457e-07
-4.16457e-07
-4.16457e-07
-4.16457e-07
-4.16457e-07
-4.16457e-07
-4.11281e-07
-4.09477e-07
-4.10097e-07
-4.12664e-07
-4.16457e-07
-4.16457e-07
-4.16457e-07
-4.16457e-07
-4.11365e-07
-4.11533e-07
-4.09561e-07
-4.09913e-07
-4.11841e-07
-4.11428e-07
-4.11193e-07
-4.11207e-07
-4.11279e-07
-4.11536e-07
-4.09603e-07
-4.09511e-07
-4.09842e-07
-4.11735e-07
-4.09477e-07
-4.09559e-07
-4.29624e-07
-4.29783e-07
-4.29987e-07
-4.32348e-07
-4.32384e-07
-4.32581e-07
-4.32289e-07
-4.29877e-07
-4.29701e-07
-4.29981e-07
-4.33369e-07
-4.3624e-07
-4.36241e-07
-4.36241e-07
-4.36241e-07
-4.32441e-07
-4.31618e-07
-4.3235e-07
-4.3624e-07
-4.36241e-07
-4.36241e-07
-4.36241e-07
-4.36241e-07
-4.36241e-07
-4.31209e-07
-4.29293e-07
-4.29619e-07
-4.32385e-07
-4.36241e-07
-4.36241e-07
-4.36241e-07
-4.36241e-07
-4.36241e-07
-4.36241e-07
-4.30976e-07
-4.29626e-07
-4.29783e-07
-4.32583e-07
-4.36241e-07
-4.36241e-07
-4.36241e-07
-4.36241e-07
-4.36241e-07
-4.36241e-07
-4.3099e-07
-4.31518e-07
-4.32292e-07
-4.36241e-07
-4.36241e-07
-4.36241e-07
-4.36241e-07
-4.36241e-07
-4.36241e-07
-4.31063e-07
-4.29258e-07
-4.29879e-07
-4.32447e-07
-4.36241e-07
-4.36241e-07
-4.36241e-07
-4.36241e-07
-4.31148e-07
-4.31316e-07
-4.29343e-07
-4.29695e-07
-4.31623e-07
-4.31211e-07
-4.30976e-07
-4.30989e-07
-4.31061e-07
-4.31318e-07
-4.29385e-07
-4.29293e-07
-4.29624e-07
-4.31517e-07
-4.29259e-07
-4.29341e-07
-4.4941e-07
-4.49568e-07
-4.49772e-07
-4.52133e-07
-4.52169e-07
-4.52367e-07
-4.52074e-07
-4.49663e-07
-4.49487e-07
-4.49766e-07
-4.53155e-07
-4.56026e-07
-4.56025e-07
-4.56025e-07
-4.56026e-07
-4.52226e-07
-4.51404e-07
-4.52136e-07
-4.56025e-07
-4.56025e-07
-4.56025e-07
-4.56025e-07
-4.56025e-07
-4.56026e-07
-4.50994e-07
-4.49078e-07
-4.49404e-07
-4.5217e-07
-4.56026e-07
-4.56025e-07
-4.56025e-07
-4.56025e-07
-4.56025e-07
-4.56026e-07
-4.50761e-07
-4.49412e-07
-4.49568e-07
-4.52369e-07
-4.56026e-07
-4.56025e-07
-4.56025e-07
-4.56025e-07
-4.56025e-07
-4.56026e-07
-4.50775e-07
-4.51304e-07
-4.52077e-07
-4.56026e-07
-4.56025e-07
-4.56025e-07
-4.56025e-07
-4.56025e-07
-4.56026e-07
-4.50848e-07
-4.49044e-07
-4.49665e-07
-4.52232e-07
-4.56026e-07
-4.56026e-07
-4.56026e-07
-4.56026e-07
-4.50933e-07
-4.51101e-07
-4.49128e-07
-4.4948e-07
-4.51409e-07
-4.50996e-07
-4.50761e-07
-4.50775e-07
-4.50847e-07
-4.51104e-07
-4.49171e-07
-4.49078e-07
-4.4941e-07
-4.51303e-07
-4.49044e-07
-4.49126e-07
-4.69194e-07
-4.69352e-07
-4.69556e-07
-4.71917e-07
-4.71953e-07
-4.7215e-07
-4.71858e-07
-4.69446e-07
-4.6927e-07
-4.6955e-07
-4.72938e-07
-4.75809e-07
-4.75809e-07
-4.75809e-07
-4.75809e-07
-4.7201e-07
-4.71187e-07
-4.7192e-07
-4.75809e-07
-4.75809e-07
-4.75809e-07
-4.75809e-07
-4.75809e-07
-4.75809e-07
-4.70778e-07
-4.68862e-07
-4.69188e-07
-4.71954e-07
-4.75809e-07
-4.75809e-07
-4.75809e-07
-4.75809e-07
-4.75809e-07
-4.75809e-07
-4.70544e-07
-4.69195e-07
-4.69352e-07
-4.72152e-07
-4.75809e-07
-4.75809e-07
-4.75809e-07
-4.75809e-07
-4.75809e-07
-4.75809e-07
-4.70558e-07
-4.71087e-07
-4.71861e-07
-4.75809e-07
-4.75809e-07
-4.75809e-07
-4.75809e-07
-4.75809e-07
-4.75809e-07
-4.70632e-07
-4.68828e-07
-4.69449e-07
-4.72016e-07
-4.75809e-07
-4.75809e-07
-4.75809e-07
-4.75809e-07
-4.70716e-07
-4.70884e-07
-4.68912e-07
-4.69264e-07
-4.71192e-07
-4.7078e-07
-4.70544e-07
-4.70558e-07
-4.7063e-07
-4.70887e-07
-4.68955e-07
-4.68862e-07
-4.69193e-07
-4.71086e-07
-4.68828e-07
-4.6891e-07
-4.88976e-07
-4.89134e-07
-4.89338e-07
-4.91699e-07
-4.91735e-07
-4.91933e-07
-4.9164e-07
-4.89228e-07
-4.89053e-07
-4.89333e-07
-4.92721e-07
-4.95592e-07
-4.95592e-07
-4.95592e-07
-4.95592e-07
-4.91792e-07
-4.9097e-07
-4.91702e-07
-4.95592e-07
-4.95592e-07
-4.95592e-07
-4.95592e-07
-4.95592e-07
-4.95592e-07
-4.9056e-07
-4.88644e-07
-4.8897e-07
-4.91736e-07
-4.95592e-07
-4.95592e-07
-4.95592e-07
-4.95592e-07
-4.95592e-07
-4.95592e-07
-4.90327e-07
-4.88978e-07
-4.89134e-07
-4.91935e-07
-4.95592e-07
-4.95592e-07
-4.95592e-07
-4.95592e-07
-4.95592e-07
-4.95592e-07
-4.90341e-07
-4.9087e-07
-4.91643e-07
-4.95592e-07
-4.95592e-07
-4.95592e-07
-4.95592e-07
-4.95592e-07
-4.95592e-07
-4.90415e-07
-4.8861e-07
-4.89231e-07
-4.91798e-07
-4.95592e-07
-4.95592e-07
-4.95592e-07
-4.95592e-07
-4.90499e-07
-4.90667e-07
-4.88694e-07
-4.89046e-07
-4.90975e-07
-4.90562e-07
-4.90327e-07
-4.90341e-07
-4.90413e-07
-4.9067e-07
-4.88737e-07
-4.88644e-07
-4.88976e-07
-4.90869e-07
-4.8861e-07
-4.88693e-07
-5.0876e-07
-5.08918e-07
-5.09122e-07
-5.11483e-07
-5.11521e-07
-5.11717e-07
-5.11424e-07
-5.09011e-07
-5.08837e-07
-5.09115e-07
-5.12505e-07
-5.15376e-07
-5.15376e-07
-5.15376e-07
-5.15376e-07
-5.11576e-07
-5.10754e-07
-5.11485e-07
-5.15376e-07
-5.15376e-07
-5.15376e-07
-5.15376e-07
-5.15376e-07
-5.15376e-07
-5.10344e-07
-5.08428e-07
-5.08754e-07
-5.1152e-07
-5.15376e-07
-5.15376e-07
-5.15376e-07
-5.15376e-07
-5.15376e-07
-5.15376e-07
-5.10111e-07
-5.08762e-07
-5.08918e-07
-5.11719e-07
-5.15376e-07
-5.15376e-07
-5.15376e-07
-5.15376e-07
-5.15376e-07
-5.15376e-07
-5.10125e-07
-5.10654e-07
-5.11427e-07
-5.15376e-07
-5.15376e-07
-5.15376e-07
-5.15376e-07
-5.15376e-07
-5.15376e-07
-5.10199e-07
-5.08394e-07
-5.09015e-07
-5.11582e-07
-5.15376e-07
-5.15376e-07
-5.15376e-07
-5.15376e-07
-5.10283e-07
-5.10451e-07
-5.08478e-07
-5.0883e-07
-5.10759e-07
-5.10346e-07
-5.10111e-07
-5.10125e-07
-5.10197e-07
-5.10454e-07
-5.08521e-07
-5.08428e-07
-5.0876e-07
-5.10653e-07
-5.08394e-07
-5.08476e-07
-5.28545e-07
-5.28704e-07
-5.28907e-07
-5.31269e-07
-5.31306e-07
-5.31502e-07
-5.3121e-07
-5.28797e-07
-5.28622e-07
-5.28902e-07
-5.3229e-07
-5.35161e-07
-5.35161e-07
-5.35161e-07
-5.35161e-07
-5.31362e-07
-5.30539e-07
-5.31271e-07
-5.35161e-07
-5.35161e-07
-5.35161e-07
-5.35161e-07
-5.35161e-07
-5.35161e-07
-5.3013e-07
-5.28213e-07
-5.2854e-07
-5.31305e-07
-5.35161e-07
-5.35161e-07
-5.35161e-07
-5.35161e-07
-5.35161e-07
-5.35161e-07
-5.29896e-07
-5.28547e-07
-5.28704e-07
-5.31504e-07
-5.35161e-07
-5.35161e-07
-5.35161e-07
-5.35161e-07
-5.35161e-07
-5.35161e-07
-5.2991e-07
-5.30439e-07
-5.31213e-07
-5.35161e-07
-5.35161e-07
-5.35161e-07
-5.35161e-07
-5.35161e-07
-5.35161e-07
-5.29984e-07
-5.28179e-07
-5.288e-07
-5.31367e-07
-5.35161e-07
-5.35161e-07
-5.35161e-07
-5.35161e-07
-5.30068e-07
-5.30236e-07
-5.28264e-07
-5.28615e-07
-5.30544e-07
-5.30132e-07
-5.29896e-07
-5.2991e-07
-5.29982e-07
-5.30239e-07
-5.28307e-07
-5.28214e-07
-5.28545e-07
-5.30438e-07
-5.28179e-07
-5.28262e-07
-5.48329e-07
-5.48488e-07
-5.48691e-07
-5.51052e-07
-5.5109e-07
-5.51286e-07
-5.50994e-07
-5.48581e-07
-5.48407e-07
-5.48686e-07
-5.52075e-07
-5.54945e-07
-5.54945e-07
-5.54945e-07
-5.54945e-07
-5.51146e-07
-5.50323e-07
-5.51056e-07
-5.54945e-07
-5.54945e-07
-5.54945e-07
-5.54945e-07
-5.54945e-07
-5.54945e-07
-5.49914e-07
-5.47998e-07
-5.48323e-07
-5.51089e-07
-5.54945e-07
-5.54945e-07
-5.54945e-07
-5.54945e-07
-5.54945e-07
-5.54945e-07
-5.4968e-07
-5.48331e-07
-5.48487e-07
-5.51288e-07
-5.54945e-07
-5.54945e-07
-5.54945e-07
-5.54945e-07
-5.54945e-07
-5.54945e-07
-5.49694e-07
-5.50223e-07
-5.50997e-07
-5.54945e-07
-5.54945e-07
-5.54945e-07
-5.54945e-07
-5.54945e-07
-5.54945e-07
-5.49768e-07
-5.47963e-07
-5.48584e-07
-5.51152e-07
-5.54945e-07
-5.54945e-07
-5.54945e-07
-5.54945e-07
-5.49852e-07
-5.5002e-07
-5.48048e-07
-5.48399e-07
-5.50328e-07
-5.49916e-07
-5.4968e-07
-5.49694e-07
-5.49766e-07
-5.50023e-07
-5.48091e-07
-5.47998e-07
-5.48329e-07
-5.50222e-07
-5.47963e-07
-5.48046e-07
-5.68114e-07
-5.68273e-07
-5.68476e-07
-5.70837e-07
-5.70875e-07
-5.71071e-07
-5.70779e-07
-5.68365e-07
-5.68192e-07
-5.68471e-07
-5.71859e-07
-5.7473e-07
-5.7473e-07
-5.7473e-07
-5.7473e-07
-5.70931e-07
-5.70108e-07
-5.7084e-07
-5.7473e-07
-5.7473e-07
-5.7473e-07
-5.7473e-07
-5.7473e-07
-5.7473e-07
-5.69699e-07
-5.67782e-07
-5.68109e-07
-5.70875e-07
-5.7473e-07
-5.7473e-07
-5.7473e-07
-5.7473e-07
-5.7473e-07
-5.7473e-07
-5.69465e-07
-5.68116e-07
-5.68273e-07
-5.71073e-07
-5.7473e-07
-5.7473e-07
-5.7473e-07
-5.7473e-07
-5.7473e-07
-5.7473e-07
-5.69479e-07
-5.70008e-07
-5.70782e-07
-5.7473e-07
-5.7473e-07
-5.7473e-07
-5.7473e-07
-5.7473e-07
-5.7473e-07
-5.69553e-07
-5.67748e-07
-5.68369e-07
-5.70936e-07
-5.7473e-07
-5.7473e-07
-5.7473e-07
-5.7473e-07
-5.69637e-07
-5.69805e-07
-5.67832e-07
-5.68184e-07
-5.70113e-07
-5.69701e-07
-5.69465e-07
-5.69479e-07
-5.69551e-07
-5.69808e-07
-5.67876e-07
-5.67782e-07
-5.68114e-07
-5.70007e-07
-5.67748e-07
-5.67831e-07
-5.87899e-07
-5.88057e-07
-5.8826e-07
-5.90622e-07
-5.90659e-07
-5.90855e-07
-5.90563e-07
-5.8815e-07
-5.87976e-07
-5.88255e-07
-5.91643e-07
-5.94513e-07
-5.94513e-07
-5.94513e-07
-5.94513e-07
-5.90714e-07
-5.89892e-07
-5.90624e-07
-5.94513e-07
-5.94513e-07
-5.94513e-07
-5.94513e-07
-5.94513e-07
-5.94513e-07
-5.89483e-07
-5.87566e-07
-5.87893e-07
-5.90658e-07
-5.94513e-07
-5.94513e-07
-5.94513e-07
-5.94513e-07
-5.94513e-07
-5.94513e-07
-5.89248e-07
-5.879e-07
-5.88057e-07