/*--------------------------------*- C++ -*----------------------------------*\
| =========                 |                                                 |
| \\      /  F ield         | OpenFOAM: The Open Source CFD Toolbox           |
|  \\    /   O peration     | Version:  v1906                                 |
|   \\  /    A nd           | Web:      www.OpenFOAM.com                      |
|    \\/     M anipulation  |                                                 |
\*---------------------------------------------------------------------------*/
FoamFile
{
    version     2.0;
    format      ascii;
    class       volScalarField;
    location    "750";
    object      epsilon;
}
// * * * * * * * * * * * * * * * * * * * * * * * * * * * * * * * * * * * * * //

dimensions      [0 2 -3 0 0 0 0];


internalField   nonuniform List<scalar> 
171728
(
1.1483e-06
8.63046e-07
8.62985e-07
1.14826e-06
8.62791e-07
8.6303e-07
8.6279e-07
8.63056e-07
1.14854e-06
8.62904e-07
8.62941e-07
1.14877e-06
3.19693e-07
3.19665e-07
3.1974e-07
3.19759e-07
1.84273e-05
1.8429e-05
5.46213e-06
5.46362e-06
4.09156e-06
9.16112e-06
4.09376e-06
4.09163e-06
9.16206e-06
9.15559e-06
4.09392e-06
2.10219e-06
3.47506e-06
5.58176e-07
5.52269e-07
2.10686e-06
2.10224e-06
8.56908e-07
3.4753e-06
5.58215e-07
3.47226e-06
5.5232e-07
2.10696e-06
1.84289e-05
1.84185e-05
1.14423e-06
5.46375e-06
5.46198e-06
5.4613e-06
5.45943e-06
1.84263e-05
1.84159e-05
9.16269e-06
4.09396e-06
3.47518e-06
5.58274e-07
2.10696e-06
9.16248e-06
4.09352e-06
5.58279e-07
3.47545e-06
2.10697e-06
2.10239e-06
8.56718e-07
3.47457e-06
5.58212e-07
3.47188e-06
5.52323e-07
2.10693e-06
4.09187e-06
9.16197e-06
9.15546e-06
4.09386e-06
2.10232e-06
8.56973e-07
5.58281e-07
3.47496e-06
5.52388e-07
3.47164e-06
2.10691e-06
4.09178e-06
9.16195e-06
9.15545e-06
4.09356e-06
1.84295e-05
5.46374e-06
5.46215e-06
1.84281e-05
2.10239e-06
5.58317e-07
3.47506e-06
5.52411e-07
2.10702e-06
2.10245e-06
8.56864e-07
5.58345e-07
3.47574e-06
5.52454e-07
3.47211e-06
2.10708e-06
4.0915e-06
9.16236e-06
4.09388e-06
4.09162e-06
9.16332e-06
9.15635e-06
4.09397e-06
1.14389e-06
5.4622e-06
5.46414e-06
5.45938e-06
5.46133e-06
1.84282e-05
1.84179e-05
1.843e-05
1.84197e-05
1.84221e-05
1.84243e-05
4.53813e-06
2.81207e-06
5.4618e-06
9.50052e-06
9.49687e-06
2.8101e-06
4.54047e-06
4.54436e-06
2.81183e-06
5.46351e-06
9.50372e-06
9.50083e-06
2.81173e-06
4.54289e-06
9.73615e-06
2.17307e-05
2.17285e-05
2.1724e-05
2.17227e-05
9.73566e-06
1.2203e-05
1.08242e-05
4.74418e-06
4.09152e-06
1.22003e-05
1.08262e-05
4.74416e-06
2.20535e-05
9.1581e-06
7.08835e-06
7.08888e-06
2.20603e-05
1.22037e-05
4.09353e-06
1.08294e-05
4.74591e-06
1.08273e-05
4.74581e-06
1.22064e-05
1.22034e-05
1.08243e-05
4.74448e-06
4.09196e-06
1.22005e-05
1.08264e-05
4.74472e-06
2.20544e-05
9.15959e-06
7.09018e-06
7.09056e-06
2.2061e-05
2.20564e-05
7.08957e-06
9.15811e-06
2.20498e-05
7.08918e-06
1.22038e-05
4.0936e-06
1.08299e-05
4.74637e-06
1.08272e-05
4.74598e-06
1.2207e-05
1.84239e-05
1.84235e-05
9.73348e-06
2.17176e-05
2.17183e-05
9.73386e-06
2.17239e-05
2.17245e-05
4.54447e-06
2.81219e-06
5.46366e-06
9.50406e-06
2.81169e-06
9.50114e-06
4.54488e-06
4.53858e-06
2.81096e-06
5.46172e-06
9.49977e-06
9.4961e-06
2.81045e-06
4.53851e-06
4.54224e-06
9.49642e-06
2.80845e-06
5.46147e-06
2.80902e-06
4.54186e-06
9.49942e-06
4.53602e-06
9.49145e-06
2.80722e-06
5.4596e-06
4.53594e-06
9.49502e-06
2.8078e-06
9.73585e-06
2.17289e-05
2.17296e-05
2.17226e-05
2.17233e-05
9.73546e-06
1.84213e-05
1.84209e-05
2.2054e-05
9.16025e-06
7.08999e-06
7.09033e-06
2.20606e-05
1.22041e-05
4.09357e-06
4.74619e-06
1.08306e-05
4.74597e-06
1.08276e-05
1.2207e-05
2.20541e-05
9.15946e-06
7.08857e-06
7.08907e-06
2.2061e-05
1.22043e-05
4.0937e-06
1.08299e-05
4.74598e-06
1.08279e-05
4.74598e-06
1.2207e-05
1.2203e-05
4.74439e-06
1.08247e-05
4.09193e-06
1.22005e-05
4.74441e-06
1.08267e-05
2.20532e-05
9.15946e-06
7.08965e-06
7.09002e-06
2.20598e-05
2.20552e-05
7.08903e-06
9.15801e-06
2.20486e-05
7.08865e-06
1.22039e-05
4.09374e-06
4.74601e-06
1.08299e-05
4.74599e-06
1.08279e-05
1.22064e-05
1.22034e-05
1.08245e-05
4.74423e-06
4.0917e-06
1.22009e-05
1.08267e-05
4.74427e-06
2.20539e-05
9.15944e-06
7.08823e-06
7.08861e-06
2.20605e-05
2.20559e-05
7.08762e-06
9.158e-06
2.20493e-05
7.08723e-06
1.22043e-05
4.09375e-06
1.08298e-05
4.74587e-06
1.08277e-05
4.74583e-06
1.22071e-05
1.84245e-05
4.54483e-06
2.81261e-06
5.46355e-06
9.50444e-06
2.81149e-06
9.50074e-06
4.54513e-06
4.53884e-06
2.81145e-06
5.4617e-06
9.49981e-06
9.49612e-06
2.81048e-06
4.53911e-06
9.73662e-06
2.17299e-05
2.17302e-05
2.17235e-05
2.17239e-05
9.73627e-06
1.84231e-05
1.22037e-05
4.74405e-06
1.08245e-05
4.09206e-06
1.22007e-05
4.74438e-06
1.08274e-05
2.20541e-05
9.1593e-06
7.08826e-06
7.08859e-06
2.20607e-05
2.2056e-05
7.08723e-06
1.22041e-05
4.09352e-06
4.74602e-06
1.08306e-05
4.74564e-06
1.08276e-05
1.22072e-05
1.22035e-05
4.74448e-06
1.08246e-05
4.09217e-06
1.22006e-05
4.74462e-06
1.08275e-05
2.20538e-05
9.16029e-06
7.08994e-06
7.09044e-06
2.20607e-05
2.20561e-05
7.08946e-06
9.15931e-06
2.20493e-05
7.08894e-06
1.2204e-05
4.09362e-06
4.74621e-06
1.08307e-05
4.74607e-06
1.08277e-05
1.2207e-05
9.73404e-06
2.17189e-05
2.17182e-05
9.73443e-06
2.17252e-05
2.17245e-05
4.5388e-06
2.8111e-06
5.46174e-06
9.49998e-06
2.81051e-06
9.4963e-06
4.53912e-06
4.54471e-06
2.81233e-06
5.46379e-06
9.50455e-06
2.81173e-06
9.50131e-06
4.54517e-06
4.53654e-06
9.49164e-06
2.80722e-06
5.45987e-06
4.53606e-06
2.80814e-06
9.49523e-06
4.54255e-06
9.49644e-06
2.80845e-06
5.46182e-06
4.54207e-06
2.80936e-06
9.5e-06
9.73641e-06
2.17302e-05
2.17295e-05
2.17239e-05
2.17232e-05
9.73601e-06
1.84232e-05
1.84228e-05
1.84251e-05
1.84246e-05
2.66825e-06
1.1495e-06
1.76793e-06
1.76739e-06
1.76782e-06
1.76807e-06
2.6681e-06
2.66821e-06
1.14924e-06
1.76764e-06
1.76749e-06
1.76801e-06
1.76782e-06
2.668e-06
2.66796e-06
1.14914e-06
1.76821e-06
1.7681e-06
1.76779e-06
1.76772e-06
2.66866e-06
2.66802e-06
1.14902e-06
1.76817e-06
1.76826e-06
1.76766e-06
1.76787e-06
2.66872e-06
1.66582e-07
1.66571e-07
1.64472e-07
7.93893e-08
7.99312e-08
3.15725e-07
1.66582e-07
1.66544e-07
1.6447e-07
1.64434e-07
7.93857e-08
7.99273e-08
1.66626e-07
1.66602e-07
1.64487e-07
7.94054e-08
7.99482e-08
3.15814e-07
1.66623e-07
1.66604e-07
1.64509e-07
1.64491e-07
7.94043e-08
7.99471e-08
1.4108e-06
2.3615e-06
1.27347e-06
2.10316e-06
1.41064e-06
2.36236e-06
1.27392e-06
1.61687e-06
2.03264e-06
3.4745e-06
2.86032e-06
2.03152e-06
2.85971e-06
1.61721e-06
1.41572e-06
2.10585e-06
2.36575e-06
1.27949e-06
2.36486e-06
1.27881e-06
1.41589e-06
1.41101e-06
2.3618e-06
1.27356e-06
2.10326e-06
1.41084e-06
2.36266e-06
1.2739e-06
1.61729e-06
2.03221e-06
3.47513e-06
2.86091e-06
2.86017e-06
2.03242e-06
1.61756e-06
1.61296e-06
2.85722e-06
2.02799e-06
3.4723e-06
1.61253e-06
2.85789e-06
2.02798e-06
1.41591e-06
2.10591e-06
2.36603e-06
1.27947e-06
2.36515e-06
1.27889e-06
1.41604e-06
2.6648e-06
1.14323e-06
1.76375e-06
1.76358e-06
1.76372e-06
2.66474e-06
1.76352e-06
1.61836e-06
2.03194e-06
3.4753e-06
2.86042e-06
2.03233e-06
2.86018e-06
1.61595e-06
1.41576e-06
2.10607e-06
2.36604e-06
1.27854e-06
2.36513e-06
1.27933e-06
1.41554e-06
1.61696e-06
2.03266e-06
3.47495e-06
2.86043e-06
2.85963e-06
2.03192e-06
1.61727e-06
1.41586e-06
2.10597e-06
1.27957e-06
2.36585e-06
1.27884e-06
2.36496e-06
1.41578e-06
1.40967e-06
2.36184e-06
1.27428e-06
2.1033e-06
1.41241e-06
2.3626e-06
1.27312e-06
1.61856e-06
2.03178e-06
3.47455e-06
2.8607e-06
2.03164e-06
2.86015e-06
1.61596e-06
1.61181e-06
2.85726e-06
2.02742e-06
3.47204e-06
1.61363e-06
2.02819e-06
2.85746e-06
1.41756e-06
2.10608e-06
2.36595e-06
1.27815e-06
2.36521e-06
1.27971e-06
1.41451e-06
1.41092e-06
1.27369e-06
2.36165e-06
2.10325e-06
1.41076e-06
1.27367e-06
2.36246e-06
1.61711e-06
2.0324e-06
3.47478e-06
2.85998e-06
2.85974e-06
2.03172e-06
1.61737e-06
1.61278e-06
2.8567e-06
2.02737e-06
3.47178e-06
1.61236e-06
2.85731e-06
2.02835e-06
1.41582e-06
2.10599e-06
1.27865e-06
2.36583e-06
1.27926e-06
2.365e-06
1.41596e-06
1.41113e-06
1.27347e-06
2.36171e-06
2.10336e-06
1.41099e-06
1.27426e-06
2.36247e-06
1.61697e-06
2.03234e-06
3.4745e-06
2.8599e-06
2.03173e-06
2.85967e-06
1.61728e-06
1.61266e-06
2.85726e-06
1.41601e-06
2.10605e-06
1.27954e-06
2.36586e-06
1.27878e-06
2.36504e-06
1.41612e-06
1.41115e-06
1.27355e-06
2.3619e-06
2.10341e-06
1.41098e-06
1.2744e-06
2.36267e-06
1.61736e-06
2.0328e-06
3.47495e-06
2.86091e-06
2.86015e-06
2.03218e-06
1.61762e-06
1.61305e-06
2.85721e-06
2.02789e-06
3.47281e-06
1.61261e-06
2.85788e-06
2.02879e-06
1.41604e-06
2.1061e-06
1.27966e-06
2.36602e-06
1.27889e-06
2.36525e-06
1.41616e-06
2.66545e-06
1.14358e-06
1.76353e-06
1.76368e-06
2.66447e-06
1.76384e-06
1.76405e-06
6.51843e-07
1.18287e-06
1.18293e-06
1.4152e-06
1.41812e-06
1.41516e-06
1.41593e-06
1.18293e-06
1.18296e-06
1.18526e-06
1.18529e-06
1.41514e-06
1.41585e-06
1.18285e-06
1.18298e-06
1.18518e-06
1.1853e-06
1.183e-06
1.18519e-06
1.18532e-06
1.41521e-06
1.41593e-06
1.1829e-06
1.18525e-06
1.18523e-06
1.41596e-06
1.18604e-06
1.18595e-06
4.23632e-06
9.54911e-06
9.55428e-06
4.23575e-06
1.9061e-05
1.90715e-05
4.23647e-06
9.55135e-06
9.55612e-06
4.23585e-06
6.51847e-07
6.51945e-07
6.51936e-07
6.56503e-07
6.56507e-07
6.56604e-07
6.56597e-07
2.29406e-06
3.64448e-06
9.29875e-07
1.18367e-06
3.64493e-06
9.30982e-07
2.29374e-06
1.90618e-05
1.90724e-05
2.294e-06
9.29931e-07
3.64448e-06
1.18373e-06
9.31038e-07
3.64497e-06
2.29374e-06
5.64517e-06
5.6471e-06
1.41452e-06
5.64625e-06
5.6482e-06
5.64954e-06
5.65148e-06
1.90594e-05
1.90699e-05
1.90618e-05
1.90723e-05
5.64508e-06
5.647e-06
1.41449e-06
5.6462e-06
5.64808e-06
1.90809e-05
1.90705e-05
1.90833e-05
1.9073e-05
1.41668e-06
5.64837e-06
5.65026e-06
5.64729e-06
5.64921e-06
4.23642e-06
9.55029e-06
9.55546e-06
4.23586e-06
2.29394e-06
3.64425e-06
9.29804e-07
1.18374e-06
3.64475e-06
9.30914e-07
2.29367e-06
2.294e-06
3.6448e-06
9.29845e-07
1.18376e-06
3.64528e-06
9.30954e-07
2.29374e-06
4.23709e-06
9.56006e-06
9.55497e-06
4.23761e-06
4.23719e-06
9.56122e-06
9.55617e-06
4.23772e-06
2.29452e-06
1.18453e-06
3.64601e-06
9.33027e-07
3.64556e-06
9.32002e-07
2.29472e-06
2.29458e-06
1.18455e-06
3.64654e-06
9.33067e-07
3.64611e-06
9.32042e-07
2.29479e-06
5.6469e-06
5.64524e-06
1.4144e-06
5.64797e-06
5.64622e-06
1.90587e-05
1.90693e-05
1.90825e-05
1.90721e-05
1.41666e-06
5.65015e-06
5.64839e-06
5.64913e-06
5.64746e-06
1.90803e-05
1.90698e-05
2.29409e-06
3.64504e-06
9.29873e-07
1.18365e-06
3.64548e-06
9.31002e-07
2.29381e-06
4.23637e-06
9.55068e-06
9.55546e-06
4.23575e-06
2.294e-06
9.29895e-07
3.64486e-06
1.18378e-06
9.31003e-07
3.64529e-06
2.29373e-06
4.23719e-06
9.56198e-06
9.5572e-06
4.23777e-06
2.29466e-06
1.18445e-06
3.64674e-06
9.33116e-07
3.64635e-06
9.3207e-07
2.29488e-06
4.23709e-06
9.56125e-06
9.55654e-06
4.23767e-06
2.29457e-06
1.18457e-06
9.33116e-07
3.64655e-06
9.32091e-07
3.64617e-06
2.29479e-06
4.23647e-06
9.55031e-06
9.55547e-06
4.2359e-06
2.29397e-06
9.29892e-07
3.64436e-06
1.1838e-06
9.30997e-07
3.64484e-06
2.2937e-06
4.23637e-06
9.55035e-06
9.55514e-06
4.23581e-06
2.29458e-06
1.18446e-06
3.64618e-06
9.33094e-07
3.64579e-06
9.3207e-07
2.29484e-06
4.23724e-06
9.56123e-06
9.55618e-06
4.23776e-06
2.29454e-06
1.18459e-06
9.33108e-07
3.6461e-06
9.32088e-07
3.64567e-06
2.29475e-06
4.23714e-06
9.56092e-06
9.55622e-06
4.23766e-06
5.647e-06
5.64523e-06
1.41447e-06
5.64798e-06
5.64631e-06
1.90606e-05
1.90711e-05
1.90835e-05
1.9073e-05
1.41672e-06
5.65016e-06
5.64849e-06
5.64923e-06
5.64744e-06
1.90821e-05
1.90718e-05
2.29405e-06
9.29942e-07
3.64499e-06
1.18371e-06
9.31047e-07
3.64547e-06
2.29377e-06
4.2364e-06
9.55047e-06
9.55563e-06
4.23583e-06
4.23643e-06
9.55138e-06
9.55616e-06
4.23582e-06
2.29458e-06
1.18452e-06
9.33149e-07
3.64623e-06
9.32125e-07
3.64579e-06
2.29478e-06
2.29462e-06
1.1845e-06
9.33159e-07
3.64672e-06
9.32137e-07
3.6463e-06
2.29483e-06
4.23716e-06
9.56139e-06
9.55635e-06
4.23768e-06
4.23715e-06
9.56202e-06
9.55723e-06
4.23772e-06
1.90604e-05
1.90709e-05
1.90623e-05
1.90728e-05
1.41671e-06
5.64843e-06
5.65037e-06
5.64739e-06
5.64932e-06
1.90819e-05
1.90716e-05
1.90838e-05
1.90735e-05
9.34119e-07
3.6469e-06
2.29529e-06
9.56198e-06
4.2384e-06
3.64753e-06
9.56276e-06
1.90826e-05
1.90844e-05
1.26403e-05
1.12328e-05
4.8816e-06
4.23643e-06
1.12305e-05
4.88176e-06
1.26428e-05
2.2738e-05
9.55135e-06
7.23779e-06
7.23742e-06
2.27308e-05
2.27373e-05
7.23871e-06
9.55206e-06
7.23908e-06
2.27444e-05
1.2639e-05
4.23564e-06
1.1227e-05
4.88101e-06
1.12293e-05
4.88086e-06
1.26364e-05
1.90659e-05
1.90666e-05
1.26407e-05
4.88193e-06
1.12335e-05
4.23653e-06
4.882e-06
1.12313e-05
1.26432e-05
2.27379e-05
9.55321e-06
7.23926e-06
7.23908e-06
2.2731e-05
2.27375e-05
7.24036e-06
9.55428e-06
7.24055e-06
2.27444e-05
1.26394e-05
4.23579e-06
4.88126e-06
1.12277e-05
4.88117e-06
1.123e-05
1.26369e-05
1.90669e-05
1.90674e-05
9.95765e-06
2.23738e-05
2.2373e-05
2.23675e-05
2.23667e-05
9.95732e-06
4.70056e-06
2.97314e-06
5.64513e-06
9.91418e-06
2.97298e-06
9.91612e-06
4.7009e-06
4.7063e-06
2.97434e-06
5.64709e-06
9.91877e-06
2.97418e-06
9.92104e-06
4.70663e-06
4.70161e-06
9.91915e-06
5.64629e-06
2.97339e-06
2.97356e-06
9.91699e-06
4.70127e-06
4.70734e-06
9.92381e-06
5.64822e-06
2.97459e-06
2.97476e-06
9.9219e-06
4.70701e-06
9.95551e-06
2.23617e-05
2.23609e-05
2.2368e-05
2.23672e-05
9.95584e-06
4.70329e-06
2.97471e-06
9.92546e-06
5.64949e-06
4.70366e-06
2.97452e-06
9.92806e-06
4.70903e-06
2.9759e-06
9.93062e-06
5.65143e-06
4.70939e-06
2.97572e-06
9.93238e-06
9.96265e-06
2.23848e-05
2.2384e-05
9.96301e-06
2.2391e-05
2.23902e-05
1.90643e-05
1.9065e-05
1.90667e-05
1.90674e-05
9.95762e-06
2.23739e-05
2.23732e-05
2.23677e-05
2.2367e-05
9.95729e-06
4.70058e-06
2.97314e-06
5.64509e-06
9.91397e-06
9.91651e-06
2.97299e-06
4.70089e-06
4.7063e-06
2.97431e-06
5.64696e-06
9.91917e-06
9.92107e-06
2.97415e-06
4.7066e-06
4.70161e-06
9.91944e-06
5.64619e-06
2.9734e-06
9.91694e-06
4.70129e-06
2.97356e-06
4.70732e-06
9.924e-06
5.64811e-06
2.97457e-06
9.92211e-06
4.707e-06
2.97474e-06
9.95548e-06
2.23619e-05
2.23611e-05
2.23681e-05
2.23674e-05
9.9558e-06
1.90761e-05
1.90754e-05
1.90785e-05
1.90778e-05
9.95908e-06
2.23735e-05
2.23728e-05
9.95942e-06
2.23797e-05
2.2379e-05
4.703e-06
2.97418e-06
5.64837e-06
9.92526e-06
9.92275e-06
2.97434e-06
4.70265e-06
4.70871e-06
2.97534e-06
5.6503e-06
9.92983e-06
9.92798e-06
2.97552e-06
4.70837e-06
4.70198e-06
9.91989e-06
2.97396e-06
5.6473e-06
4.70231e-06
9.92234e-06
2.9738e-06
4.70769e-06
9.92509e-06
2.97514e-06
5.64918e-06
4.70802e-06
9.92698e-06
2.97496e-06
9.9612e-06
2.23855e-05
2.23847e-05
2.23793e-05
2.23785e-05
9.96086e-06
1.26399e-05
1.12329e-05
4.88193e-06
4.23654e-06
1.12307e-05
4.88201e-06
1.26435e-05
2.27381e-05
9.55255e-06
7.23935e-06
7.23916e-06
2.27311e-05
2.27376e-05
7.24044e-06
9.55324e-06
7.24063e-06
2.27445e-05
1.26397e-05
4.23575e-06
1.12272e-05
4.88126e-06
1.12294e-05
4.88119e-06
1.2636e-05
1.26467e-05
1.1234e-05
4.88249e-06
4.23697e-06
1.26442e-05
1.12363e-05
4.88233e-06
2.27501e-05
9.55786e-06
7.24122e-06
2.27572e-05
7.2416e-06
2.27508e-05
7.24035e-06
9.55717e-06
2.27437e-05
7.23997e-06
1.2648e-05
4.23773e-06
1.12398e-05
4.88304e-06
1.26505e-05
1.12375e-05
4.8832e-06
1.26474e-05
1.12342e-05
4.88274e-06
4.23708e-06
1.26438e-05
1.12365e-05
4.88266e-06
2.27504e-05
9.55905e-06
7.24295e-06
7.24317e-06
2.27573e-05
2.27509e-05
7.2419e-06
9.55834e-06
2.2744e-05
7.2417e-06
1.26476e-05
4.23784e-06
1.12399e-05
4.88337e-06
1.12377e-05
4.88345e-06
1.26512e-05
9.95725e-06
2.23725e-05
2.23734e-05
2.23662e-05
2.23671e-05
9.95693e-06
4.70612e-06
2.97421e-06
5.64685e-06
9.91871e-06
9.9206e-06
2.97404e-06
4.70647e-06
4.70041e-06
2.9731e-06
5.6451e-06
9.91384e-06
2.97293e-06
9.91639e-06
4.70074e-06
4.70718e-06
9.92353e-06
5.64802e-06
2.97445e-06
9.92166e-06
2.97464e-06
4.70683e-06
4.70146e-06
9.91933e-06
5.64636e-06
2.97334e-06
2.97352e-06
9.91681e-06
4.70112e-06
9.95512e-06
2.23604e-05
2.23612e-05
2.23667e-05
2.23675e-05
9.95543e-06
1.90637e-05
1.90643e-05
1.90777e-05
1.9077e-05
9.95872e-06
2.2372e-05
2.23729e-05
9.95905e-06
2.23783e-05
2.23791e-05
4.70857e-06
2.97523e-06
5.65021e-06
9.92936e-06
2.97542e-06
9.92752e-06
4.7082e-06
4.70284e-06
2.97412e-06
5.64855e-06
9.92509e-06
9.92261e-06
2.9743e-06
4.70249e-06
4.70752e-06
9.92462e-06
2.97504e-06
5.64907e-06
2.97485e-06
4.70788e-06
9.92651e-06
4.70182e-06
9.91976e-06
2.97392e-06
5.64731e-06
4.70216e-06
9.92223e-06
2.97374e-06
9.96084e-06
2.2384e-05
2.23849e-05
2.23778e-05
2.23787e-05
9.9605e-06
1.90754e-05
1.90748e-05
1.26408e-05
1.12333e-05
4.88172e-06
4.23643e-06
1.12311e-05
4.88187e-06
1.26433e-05
2.27382e-05
9.55255e-06
7.23799e-06
7.23763e-06
2.2731e-05
2.27375e-05
7.23891e-06
9.55361e-06
7.23927e-06
2.27446e-05
1.26395e-05
4.2357e-06
1.12275e-05
4.88113e-06
1.12298e-05
4.88098e-06
1.26369e-05
1.26471e-05
4.88273e-06
1.12348e-05
4.23712e-06
1.26446e-05
4.88264e-06
1.1237e-05
2.27503e-05
9.56007e-06
7.24287e-06
2.27571e-05
7.24308e-06
2.27508e-05
7.24182e-06
9.55908e-06
2.27439e-05
7.24162e-06
1.26484e-05
4.23783e-06
4.88337e-06
1.12405e-05
1.26509e-05
4.88345e-06
1.12383e-05
1.26471e-05
1.12346e-05
4.8826e-06
4.23703e-06
1.26446e-05
1.12368e-05
4.88244e-06
2.27503e-05
9.55945e-06
7.24144e-06
7.2418e-06
2.27573e-05
2.2751e-05
7.24055e-06
9.55841e-06
2.27439e-05
7.24018e-06
1.26485e-05
4.23773e-06
1.12403e-05
4.88316e-06
1.12381e-05
4.88332e-06
1.26509e-05
1.26398e-05
4.88183e-06
1.12333e-05
4.23658e-06
4.88188e-06
1.1231e-05
1.26435e-05
2.27372e-05
9.55257e-06
7.23888e-06
7.2387e-06
2.27303e-05
2.27367e-05
7.23998e-06
9.55325e-06
7.24016e-06
2.27437e-05
1.26396e-05
4.23581e-06
4.88113e-06
1.12275e-05
4.88109e-06
1.12298e-05
1.26359e-05
1.26401e-05
1.12331e-05
4.88159e-06
4.23648e-06
1.12309e-05
4.88166e-06
1.26437e-05
2.27376e-05
9.55223e-06
7.2374e-06
7.23721e-06
2.27307e-05
2.27372e-05
7.23849e-06
9.55328e-06
7.23868e-06
2.27441e-05
1.26399e-05
4.2357e-06
1.12274e-05
4.88092e-06
1.12296e-05
4.88085e-06
1.26362e-05
1.26473e-05
4.8826e-06
1.12345e-05
4.23713e-06
1.26437e-05
4.88255e-06
1.12368e-05
2.27495e-05
9.55905e-06
7.24249e-06
7.24269e-06
2.27564e-05
2.27501e-05
7.24143e-06
9.55835e-06
2.27432e-05
7.24124e-06
1.26475e-05
4.23788e-06
4.88326e-06
1.12402e-05
4.88332e-06
1.1238e-05
1.2651e-05
1.26476e-05
1.12344e-05
4.88239e-06
4.23702e-06
1.2644e-05
1.12366e-05
4.88231e-06
2.275e-05
9.55911e-06
7.241e-06
7.24121e-06
2.27568e-05
2.27505e-05
7.23995e-06
9.55808e-06
2.27436e-05
7.23975e-06
1.26478e-05
4.23778e-06
1.12401e-05
4.88302e-06
1.12379e-05
4.8831e-06
1.26513e-05
9.95812e-06
2.23736e-05
2.23741e-05
2.23673e-05
2.23678e-05
9.95778e-06
4.70645e-06
2.9743e-06
5.64687e-06
9.91842e-06
9.921e-06
2.97411e-06
4.7068e-06
4.70076e-06
2.97325e-06
5.64519e-06
9.9143e-06
2.97308e-06
9.91619e-06
4.70111e-06
4.70751e-06
9.92393e-06
5.64812e-06
2.97453e-06
9.92139e-06
2.97472e-06
4.70716e-06
4.70183e-06
9.91912e-06
5.64634e-06
2.9735e-06
2.97367e-06
9.91724e-06
4.70147e-06
9.95597e-06
2.23615e-05
2.2362e-05
2.23678e-05
2.23682e-05
9.9563e-06
1.90655e-05
1.90662e-05
1.90785e-05
1.9078e-05
9.95958e-06
2.23732e-05
2.23736e-05
9.95992e-06
2.23794e-05
2.23799e-05
4.7089e-06
2.9753e-06
5.65031e-06
9.9297e-06
2.9755e-06
9.92719e-06
4.70853e-06
4.70321e-06
2.97427e-06
5.64853e-06
9.92495e-06
9.9231e-06
2.97445e-06
4.70283e-06
4.70785e-06
9.92434e-06
2.97512e-06
5.64908e-06
2.97492e-06
4.70822e-06
9.92684e-06
4.70216e-06
9.92021e-06
2.97407e-06
5.64741e-06
4.70253e-06
9.9221e-06
2.97389e-06
9.96171e-06
2.23852e-05
2.23856e-05
2.23789e-05
2.23794e-05
9.96136e-06
1.90773e-05
1.90766e-05
1.26405e-05
4.88163e-06
1.12335e-05
4.2365e-06
4.88178e-06
1.12305e-05
1.26431e-05
2.27381e-05
9.55273e-06
7.23757e-06
7.2374e-06
2.27311e-05
2.27376e-05
7.23868e-06
9.55342e-06
7.23886e-06
2.27445e-05
1.26392e-05
4.23571e-06
4.88104e-06
1.1227e-05
4.88088e-06
1.123e-05
1.26367e-05
1.26395e-05
4.88184e-06
1.12332e-05
4.23649e-06
4.88199e-06
1.1231e-05
1.26433e-05
2.27373e-05
9.55325e-06
7.23932e-06
7.23893e-06
2.27301e-05
2.27365e-05
7.24021e-06
9.55431e-06
7.24061e-06
2.27437e-05
1.26394e-05
4.23576e-06
4.88125e-06
1.12275e-05
4.8811e-06
1.12297e-05
1.26357e-05
1.26469e-05
4.88251e-06
1.1234e-05
4.23703e-06
1.26444e-05
4.88234e-06
1.1237e-05
2.27504e-05
9.55922e-06
7.24119e-06
7.24139e-06
2.27572e-05
2.27509e-05
7.24013e-06
9.55852e-06
2.2744e-05
7.23994e-06
1.26482e-05
4.2378e-06
4.88307e-06
1.12405e-05
4.88322e-06
1.12375e-05
1.26507e-05
1.26471e-05
4.88272e-06
1.12345e-05
4.23709e-06
1.26434e-05
4.88256e-06
1.12368e-05
2.27493e-05
9.5601e-06
7.24273e-06
7.24314e-06
2.27564e-05
2.27501e-05
7.24188e-06
9.55912e-06
2.27429e-05
7.24148e-06
1.26472e-05
4.23779e-06
4.88327e-06
1.12402e-05
4.88343e-06
1.1238e-05
1.26508e-05
1.90653e-05
1.9066e-05
1.90672e-05
1.90679e-05
9.95911e-06
2.23733e-05
2.23725e-05
9.95946e-06
2.23796e-05
2.23788e-05
4.70299e-06
2.97416e-06
5.64847e-06
9.9251e-06
4.70263e-06
2.97435e-06
9.92261e-06
4.70872e-06
2.97537e-06
5.65041e-06
9.9296e-06
4.70837e-06
2.97554e-06
9.92775e-06
4.70196e-06
9.91981e-06
2.97396e-06
5.64735e-06
4.70231e-06
2.97379e-06
9.92216e-06
4.7077e-06
9.92484e-06
2.97516e-06
5.64929e-06
4.70804e-06
2.97499e-06
9.92676e-06
9.96124e-06
2.23853e-05
2.23845e-05
9.96089e-06
2.23791e-05
2.23783e-05
1.90771e-05
1.90764e-05
1.9079e-05
1.90783e-05
2.27631e-05
7.24246e-06
9.56372e-06
2.27563e-05
7.24224e-06
1.26551e-05
4.23828e-06
1.12413e-05
4.8838e-06
1.26515e-05
1.12437e-05
4.88371e-06
9.56497e-06
1.90874e-05
1.90892e-05
4.41726e-07
4.41692e-07
6.53428e-07
4.43614e-07
4.43585e-07
2.3558e-07
2.3365e-07
2.82691e-06
1.96718e-06
1.96743e-06
1.41376e-06
1.96651e-06
1.96674e-06
2.82721e-06
2.82821e-06
1.96869e-06
1.96894e-06
1.41666e-06
2.82854e-06
1.968e-06
1.96823e-06
2.82693e-06
1.96719e-06
1.96742e-06
1.41372e-06
1.9665e-06
1.96674e-06
2.82724e-06
2.82827e-06
1.41739e-06
1.96765e-06
1.96788e-06
1.96836e-06
1.96859e-06
2.82794e-06
2.82682e-06
1.96732e-06
1.9672e-06
1.41363e-06
1.9665e-06
1.96661e-06
2.82715e-06
2.82818e-06
1.41737e-06
1.96776e-06
1.96765e-06
1.96848e-06
1.96837e-06
2.82784e-06
2.82697e-06
1.96735e-06
1.96726e-06
1.4137e-06
1.96657e-06
1.96664e-06
2.82727e-06
2.8283e-06
1.41743e-06
1.9678e-06
1.96772e-06
1.96851e-06
1.96843e-06
2.82798e-06
2.82824e-06
1.41743e-06
1.96766e-06
1.96789e-06
2.82791e-06
1.96835e-06
1.9686e-06
4.41732e-07
4.41687e-07
6.53432e-07
4.4362e-07
4.43576e-07
2.35576e-07
2.33646e-07
4.41821e-07
4.41782e-07
6.5353e-07
4.4371e-07
4.43669e-07
2.3565e-07
2.33719e-07
4.4181e-07
4.41776e-07
6.53523e-07
4.43702e-07
4.43664e-07
2.35645e-07
2.33714e-07
6.54995e-07
4.47303e-07
4.47273e-07
4.45485e-07
4.45452e-07
2.37508e-07
2.39412e-07
6.54999e-07
4.47309e-07
4.47265e-07
4.45492e-07
4.45446e-07
2.37505e-07
2.39408e-07
6.55097e-07
4.47398e-07
4.47357e-07
4.4558e-07
4.4554e-07
2.37578e-07
2.39481e-07
6.55087e-07
4.47391e-07
4.47351e-07
4.45568e-07
4.45534e-07
2.37572e-07
2.39476e-07
1.6644e-06
2.53958e-06
1.54158e-06
2.29417e-06
2.53979e-06
1.54244e-06
1.66315e-06
1.84159e-06
2.22239e-06
3.64427e-06
3.02097e-06
2.22191e-06
3.02061e-06
1.84269e-06
1.8432e-06
3.02108e-06
3.64514e-06
2.22227e-06
2.22276e-06
3.02145e-06
1.84214e-06
1.66258e-06
2.29364e-06
2.53939e-06
1.54185e-06
2.53918e-06
1.541e-06
1.6639e-06
1.66443e-06
1.54151e-06
2.53941e-06
2.29417e-06
1.54247e-06
2.53962e-06
1.66279e-06
1.84137e-06
2.22244e-06
3.64432e-06
3.02061e-06
2.22195e-06
3.02024e-06
1.84268e-06
1.84325e-06
3.02071e-06
3.64514e-06
2.22231e-06
2.22281e-06
3.02109e-06
1.84183e-06
1.66239e-06
2.29356e-06
1.54189e-06
2.53922e-06
1.54093e-06
2.53899e-06
1.66388e-06
2.82757e-06
1.41597e-06
1.96692e-06
1.96715e-06
1.96759e-06
1.96784e-06
2.82726e-06
2.8276e-06
1.41594e-06
1.96691e-06
1.96714e-06
2.82728e-06
1.9676e-06
1.96784e-06
2.82762e-06
1.41522e-06
1.96799e-06
1.96822e-06
2.82795e-06
1.96729e-06
1.96752e-06
1.66464e-06
2.53936e-06
1.54143e-06
2.29411e-06
2.53957e-06
1.54242e-06
1.66262e-06
1.84131e-06
2.22235e-06
3.6441e-06
3.02054e-06
3.02019e-06
2.22188e-06
1.84259e-06
1.84315e-06
3.02067e-06
3.64491e-06
2.22223e-06
3.02102e-06
2.22271e-06
1.84177e-06
1.66216e-06
2.29351e-06
2.53916e-06
1.54183e-06
2.53896e-06
1.54085e-06
1.66399e-06
1.6645e-06
2.53963e-06
1.54149e-06
2.29417e-06
2.53984e-06
1.54246e-06
1.6629e-06
1.84155e-06
2.22271e-06
3.64463e-06
3.02116e-06
3.02078e-06
2.22221e-06
1.84284e-06
1.84339e-06
3.02125e-06
3.64547e-06
2.22257e-06
3.02164e-06
1.84202e-06
2.22308e-06
1.66249e-06
2.29357e-06
2.53944e-06
1.54187e-06
2.53923e-06
1.54091e-06
1.66395e-06
1.66302e-06
2.53995e-06
1.54298e-06
2.29434e-06
1.66516e-06
2.53973e-06
1.54199e-06
1.84434e-06
2.22288e-06
3.64618e-06
3.02155e-06
2.22338e-06
3.02192e-06
1.84257e-06
1.84218e-06
3.02148e-06
2.22306e-06
3.64539e-06
2.22256e-06
1.84372e-06
3.02112e-06
1.66572e-06
2.2949e-06
2.54009e-06
1.5425e-06
2.54031e-06
1.5435e-06
1.6635e-06
1.66326e-06
2.54022e-06
1.54302e-06
2.29441e-06
1.6651e-06
2.54e-06
1.54203e-06
1.84458e-06
2.22322e-06
3.64674e-06
3.02214e-06
3.02254e-06
2.22374e-06
1.8428e-06
1.84242e-06
3.0221e-06
2.22342e-06
3.64592e-06
1.84396e-06
3.02171e-06
2.22291e-06
1.66577e-06
2.29497e-06
2.54036e-06
1.54255e-06
2.54059e-06
1.54354e-06
1.66366e-06
2.82751e-06
1.41591e-06
1.96702e-06
1.96691e-06
1.96762e-06
1.96773e-06
2.82718e-06
2.82752e-06
1.41514e-06
1.96812e-06
1.968e-06
1.9674e-06
2.82786e-06
1.96729e-06
1.66454e-06
2.53965e-06
1.54156e-06
2.29425e-06
2.53985e-06
1.54252e-06
1.66293e-06
1.84156e-06
2.22278e-06
3.64482e-06
3.02117e-06
3.02079e-06
2.22229e-06
1.84285e-06
1.8434e-06
3.02127e-06
3.6457e-06
2.22265e-06
3.02165e-06
2.22315e-06
1.84202e-06
1.66251e-06
2.29364e-06
2.53945e-06
1.54193e-06
2.53923e-06
1.54098e-06
1.66399e-06
1.66441e-06
1.5415e-06
2.53942e-06
2.29416e-06
1.54246e-06
2.53964e-06
1.66278e-06
1.84138e-06
2.22265e-06
3.64463e-06
3.02066e-06
3.02031e-06
2.22215e-06
1.84266e-06
1.84321e-06
3.02078e-06
3.64552e-06
2.22251e-06
3.02114e-06
1.84185e-06
2.22302e-06
1.66237e-06
2.29358e-06
1.54187e-06
2.53924e-06
1.54092e-06
2.53903e-06
1.66385e-06
1.66326e-06
2.54023e-06
1.54307e-06
2.29448e-06
1.66515e-06
2.54e-06
1.5421e-06
1.84461e-06
2.2233e-06
3.64697e-06
3.02215e-06
2.22382e-06
3.02256e-06
1.84281e-06
1.84242e-06
3.02211e-06
2.22349e-06
3.64612e-06
2.22298e-06
1.84398e-06
3.02172e-06
1.66583e-06
2.29504e-06
2.54038e-06
1.54262e-06
2.54059e-06
1.5436e-06
1.66369e-06
1.66314e-06
1.54302e-06
2.54002e-06
2.29441e-06
1.66501e-06
1.54205e-06
2.5398e-06
1.84438e-06
2.22316e-06
3.64679e-06
3.02167e-06
3.02205e-06
2.22368e-06
1.84273e-06
1.84226e-06
3.0216e-06
2.22336e-06
3.64593e-06
1.84378e-06
3.02123e-06
2.22285e-06
1.66567e-06
2.29496e-06
1.54256e-06
2.54016e-06
1.54355e-06
2.54038e-06
1.66365e-06
1.66466e-06
1.54148e-06
2.53939e-06
2.29413e-06
1.54244e-06
2.53962e-06
1.66269e-06
1.84134e-06
2.22237e-06
3.64418e-06
3.02058e-06
2.22189e-06
3.0202e-06
1.84263e-06
1.8432e-06
3.02067e-06
3.64502e-06
2.22225e-06
2.22273e-06
3.02105e-06
1.8418e-06
1.66223e-06
2.29354e-06
1.54185e-06
2.53922e-06
1.5409e-06
2.539e-06
1.66402e-06
1.66366e-06
2.54017e-06
1.54298e-06
2.29446e-06
1.66486e-06
2.53995e-06
1.54213e-06
1.84415e-06
2.22292e-06
3.64641e-06
3.02197e-06
1.84314e-06
2.22343e-06
3.02235e-06
1.84268e-06
3.0219e-06
2.2231e-06
3.64556e-06
1.84368e-06
2.2226e-06
3.02153e-06
1.6653e-06
2.29497e-06
2.54031e-06
1.54264e-06
1.66409e-06
2.54053e-06
1.54351e-06
1.66314e-06
1.543e-06
2.54e-06
2.29437e-06
1.66515e-06
1.54203e-06
2.53977e-06
1.84438e-06
2.22289e-06
3.64629e-06
3.02156e-06
3.02196e-06
2.2234e-06
1.8427e-06
1.84222e-06
3.02152e-06
2.22308e-06
3.64548e-06
1.84378e-06
3.02113e-06
2.22258e-06
1.66564e-06
2.29492e-06
1.54255e-06
2.54013e-06
1.54352e-06
2.54036e-06
1.66367e-06
2.82763e-06
1.41598e-06
1.96705e-06
1.96698e-06
1.96768e-06
1.96776e-06
2.82732e-06
2.82766e-06
1.41521e-06
1.96815e-06
1.96807e-06
1.96744e-06
2.82798e-06
1.96736e-06
1.66449e-06
1.54154e-06
2.53959e-06
2.29421e-06
1.54249e-06
2.53981e-06
1.66292e-06
1.84156e-06
2.22279e-06
3.64481e-06
3.02111e-06
2.22229e-06
3.02073e-06
1.84283e-06
1.84338e-06
3.0212e-06
3.64565e-06
2.22265e-06
2.22316e-06
3.02159e-06
1.84202e-06
1.66251e-06
2.29362e-06
1.54191e-06
2.53941e-06
1.54096e-06
2.53919e-06
1.66396e-06
1.66314e-06
1.54303e-06
2.54e-06
2.29439e-06
1.66504e-06
1.54205e-06
2.53976e-06
1.84448e-06
2.22296e-06
3.64641e-06
3.0216e-06
1.84263e-06
2.22347e-06
3.02199e-06
1.84222e-06
3.02155e-06
2.22315e-06
3.64561e-06
1.84384e-06
2.22265e-06
3.02117e-06
1.66571e-06
2.29496e-06
1.54257e-06
2.54013e-06
1.66358e-06
1.54355e-06
2.54037e-06
1.66328e-06
1.54305e-06
2.54019e-06
2.29445e-06
1.66508e-06
1.54208e-06
2.53996e-06
1.84455e-06
2.2233e-06
3.64692e-06
3.02209e-06
3.02249e-06
2.22382e-06
1.8428e-06
1.84243e-06
3.02205e-06
2.2235e-06
3.6461e-06
1.84393e-06
3.02166e-06
2.22299e-06
1.66574e-06
2.295e-06
1.5426e-06
2.54031e-06
1.54358e-06
2.54055e-06
1.66365e-06
2.8276e-06
1.41525e-06
1.96798e-06
1.96823e-06
2.82792e-06
1.9673e-06
1.96753e-06
1.84317e-06
2.2237e-06
3.02238e-06
3.6467e-06
2.22318e-06
1.84478e-06
3.02197e-06
1.66411e-06
2.2951e-06
1.54401e-06
2.54069e-06
1.54301e-06
1.66599e-06
2.54044e-06
2.22412e-06
3.64733e-06
2.22359e-06
3.2366e-07
8.68806e-07
8.68915e-07
1.15397e-06
3.39696e-07
8.92246e-07
8.92351e-07
1.17344e-06
3.55973e-07
9.14696e-07
9.14798e-07
1.19187e-06
3.72414e-07
9.36141e-07
9.36235e-07
1.2094e-06
3.88936e-07
9.56571e-07
9.56662e-07
1.22619e-06
4.05462e-07
9.76003e-07
9.7609e-07
1.24207e-06
4.21913e-07
9.94442e-07
9.94527e-07
1.25709e-06
4.38214e-07
1.0119e-06
1.01198e-06
1.27126e-06
4.54291e-07
1.02838e-06
1.02846e-06
1.28466e-06
4.70078e-07
1.04392e-06
1.04399e-06
1.29732e-06
4.85514e-07
1.05852e-06
1.05859e-06
1.30925e-06
5.00548e-07
1.07221e-06
1.07228e-06
1.32047e-06
5.15131e-07
1.08503e-06
1.0851e-06
1.33101e-06
5.29221e-07
1.09698e-06
1.09706e-06
1.34092e-06
5.42782e-07
1.10811e-06
1.1082e-06
1.35019e-06
5.55786e-07
1.11844e-06
1.11853e-06
1.35885e-06
5.68206e-07
1.128e-06
1.12808e-06
1.36691e-06
5.80022e-07
1.13679e-06
1.13688e-06
1.3744e-06
5.91219e-07
1.14486e-06
1.14495e-06
1.38132e-06
6.01787e-07
1.15223e-06
1.15231e-06
1.38769e-06
6.11721e-07
1.15891e-06
1.15899e-06
1.39354e-06
6.21015e-07
1.16493e-06
1.16501e-06
1.39886e-06
6.29671e-07
1.17032e-06
1.17039e-06
1.40365e-06
6.3769e-07
1.17509e-06