/*--------------------------------*- C++ -*----------------------------------*\
| =========                 |                                                 |
| \\      /  F ield         | OpenFOAM: The Open Source CFD Toolbox           |
|  \\    /   O peration     | Version:  v1906                                 |
|   \\  /    A nd           | Web:      www.OpenFOAM.com                      |
|    \\/     M anipulation  |                                                 |
\*---------------------------------------------------------------------------*/
FoamFile
{
    version     2.0;
    format      ascii;
    class       volScalarField;
    location    "0.1";
    object      p;
}
// * * * * * * * * * * * * * * * * * * * * * * * * * * * * * * * * * * * * * //

dimensions      [0 2 -2 0 0 0 0];


internalField   nonuniform List<scalar> 
247104
(
-2.70663e-10
-3.34854e-11
-1.435e-10
-3.64375e-10
-6.31032e-10
-3.19594e-10
-1.26301e-10
-1.22957e-10
-5.60925e-11
3.58123e-11
7.48269e-11
-1.70599e-10
-3.44801e-10
-1.34256e-10
8.85599e-11
2.64084e-12
-1.6129e-10
6.5311e-11
-2.00091e-10
-6.05519e-10
-7.77288e-10
-5.62106e-10
-1.51898e-10
6.47374e-11
-2.14749e-10
-4.04578e-10
-1.89222e-10
-6.12315e-10
-1.09502e-09
-1.27652e-09
-1.04703e-09
-5.47235e-10
-1.69663e-10
-4.90625e-10
-9.06879e-10
-6.89022e-10
-3.67825e-10
-7.87714e-10
-1.28031e-09
-1.4632e-09
-1.23167e-09
-7.21055e-10
-3.53884e-10
-7.90568e-10
-3.58044e-10
-1.54974e-10
-5.73147e-10
-1.05249e-09
-1.23376e-09
-1.00474e-09
-5.08951e-10
-1.35786e-10
-4.40168e-10
-1.49775e-10
7.24785e-11
-1.61644e-10
-5.52902e-10
-7.24293e-10
-5.10458e-10
-1.17023e-10
6.8384e-11
-1.96009e-10
-1.38822e-10
-9.1057e-12
5.74577e-11
-1.74534e-10
-3.5797e-10
-1.38807e-10
6.7271e-11
-4.56974e-11
-2.18258e-10
-4.93625e-10
-7.95539e-10
-4.45852e-10
-1.96946e-10
-3.44973e-08
-3.67121e-08
-3.60542e-08
-3.72967e-08
-3.79428e-08
-3.7908e-08
-3.79793e-08
-3.5532e-08
-3.54657e-08
-3.60665e-08
-3.83824e-08
-4.1973e-08
-4.22424e-08
-4.22429e-08
-4.19722e-08
-3.80084e-08
-3.77168e-08
-3.72942e-08
-4.19776e-08
-4.20974e-08
-4.21145e-08
-4.21142e-08
-4.20963e-08
-4.19731e-08
-3.7403e-08
-3.59387e-08
-3.44983e-08
-3.79617e-08
-4.22468e-08
-4.21158e-08
-4.19883e-08
-4.19882e-08
-4.21155e-08
-4.22454e-08
-3.78737e-08
-3.54069e-08
-3.66866e-08
-3.79202e-08
-4.22472e-08
-4.21162e-08
-4.19888e-08
-4.19889e-08
-4.21163e-08
-4.2246e-08
-3.77681e-08
-3.81952e-08
-3.79809e-08
-4.19781e-08
-4.2099e-08
-4.21159e-08
-4.21163e-08
-4.20992e-08
-4.19766e-08
-3.77658e-08
-3.661e-08
-3.55535e-08
-3.80164e-08
-4.19768e-08
-4.22451e-08
-4.22473e-08
-4.19799e-08
-3.80938e-08
-3.74367e-08
-3.54368e-08
-3.54524e-08
-3.77236e-08
-3.74006e-08
-3.78621e-08
-3.77614e-08
-3.7769e-08
-3.74432e-08
-3.41318e-08
-3.59857e-08
-3.54156e-08
-3.81701e-08
-3.66032e-08
-3.54532e-08
-5.47655e-08
-5.49574e-08
-5.5201e-08
-5.7446e-08
-5.74665e-08
-5.74677e-08
-5.74475e-08
-5.4838e-08
-5.48301e-08
-5.52024e-08
-5.79549e-08
-6.12173e-08
-6.14581e-08
-6.14615e-08
-6.1226e-08
-5.68508e-08
-5.69663e-08
-5.74518e-08
-6.12282e-08
-6.17636e-08
-6.17993e-08
-6.18004e-08
-6.17653e-08
-6.12213e-08
-5.61428e-08
-5.42325e-08
-5.47667e-08
-5.74698e-08
-6.14631e-08
-6.18022e-08
-6.18156e-08
-6.18155e-08
-6.1801e-08
-6.14594e-08
-5.62921e-08
-5.48587e-08
-5.49609e-08
-5.74702e-08
-6.14642e-08
-6.18033e-08
-6.18164e-08
-6.18158e-08
-6.18002e-08
-6.14589e-08
-5.6451e-08
-5.71677e-08
-5.74521e-08
-6.12289e-08
-6.17664e-08
-6.18019e-08
-6.18018e-08
-6.17638e-08
-6.12219e-08
-5.61514e-08
-5.43921e-08
-5.4847e-08
-5.6856e-08
-6.12244e-08
-6.14609e-08
-6.14647e-08
-6.12232e-08
-5.6358e-08
-5.64988e-08
-5.44196e-08
-5.48375e-08
-5.69753e-08
-5.61474e-08
-5.6295e-08
-5.64536e-08
-5.61534e-08
-5.64994e-08
-5.42469e-08
-5.42334e-08
-5.48557e-08
-5.71696e-08
-5.43887e-08
-5.44202e-08
-7.54516e-08
-7.56085e-08
-7.56219e-08
-7.80465e-08
-7.80298e-08
-7.81516e-08
-7.79467e-08
-7.52833e-08
-7.52924e-08
-7.56219e-08
-7.89456e-08
-8.19839e-08
-8.20627e-08
-8.2065e-08
-8.19839e-08
-7.74788e-08
-7.72628e-08
-7.80491e-08
-8.19837e-08
-8.21733e-08
-8.21844e-08
-8.21847e-08
-8.2172e-08
-8.19829e-08
-7.64895e-08
-7.47729e-08
-7.54514e-08
-7.80278e-08
-8.20646e-08
-8.2186e-08
-8.2193e-08
-8.21925e-08
-8.21834e-08
-8.20598e-08
-7.64199e-08
-7.55224e-08
-7.56097e-08
-7.81489e-08
-8.20649e-08
-8.21857e-08
-8.2193e-08
-8.21927e-08
-8.21838e-08
-8.20623e-08
-7.6538e-08
-7.76312e-08
-7.79491e-08
-8.1984e-08
-8.21725e-08
-8.21845e-08
-8.21853e-08
-8.21727e-08
-8.19836e-08
-7.63766e-08
-7.50533e-08
-7.52785e-08
-7.74865e-08
-8.19845e-08
-8.20616e-08
-8.20643e-08
-8.19813e-08
-7.64333e-08
-7.68314e-08
-7.48664e-08
-7.52799e-08
-7.72881e-08
-7.64923e-08
-7.64212e-08
-7.65395e-08
-7.63812e-08
-7.68333e-08
-7.49697e-08
-7.47727e-08
-7.55257e-08
-7.76367e-08
-7.50532e-08
-7.48651e-08
-9.59332e-08
-9.60702e-08
-9.62146e-08
-9.87024e-08
-9.86838e-08
-9.88848e-08
-9.85805e-08
-9.58655e-08
-9.58446e-08
-9.62189e-08
-9.99378e-08
-1.02806e-07
-1.02826e-07
-1.02826e-07
-1.02808e-07
-9.83162e-08
-9.78147e-08
-9.87077e-08
-1.0281e-07
-1.02856e-07
-1.02857e-07
-1.02857e-07
-1.02856e-07
-1.02807e-07
-9.70082e-08
-9.52855e-08
-9.59275e-08
-9.86873e-08
-1.02827e-07
-1.02857e-07
-1.02858e-07
-1.02858e-07
-1.02857e-07
-1.02828e-07
-9.67499e-08
-9.59596e-08
-9.60746e-08
-9.88866e-08
-1.02827e-07
-1.02857e-07
-1.02858e-07
-1.02858e-07
-1.02857e-07
-1.02826e-07
-9.68468e-08
-9.80171e-08
-9.85797e-08
-1.02808e-07
-1.02855e-07
-1.02857e-07
-1.02857e-07
-1.02855e-07
-1.02807e-07
-9.68003e-08
-9.54956e-08
-9.58667e-08
-9.83158e-08
-1.02806e-07
-1.02827e-07
-1.02828e-07
-1.02809e-07
-9.68535e-08
-9.73476e-08
-9.53964e-08
-9.58477e-08
-9.78152e-08
-9.70077e-08
-9.67514e-08
-9.68478e-08
-9.6803e-08
-9.73496e-08
-9.54765e-08
-9.52849e-08
-9.59607e-08
-9.80193e-08
-9.54939e-08
-9.53957e-08
-1.16554e-07
-1.16683e-07
-1.16885e-07
-1.1939e-07
-1.19362e-07
-1.19621e-07
-1.19258e-07
-1.16532e-07
-1.16512e-07
-1.16886e-07
-1.20718e-07
-1.23553e-07
-1.23558e-07
-1.23558e-07
-1.23553e-07
-1.19078e-07
-1.18469e-07
-1.19395e-07
-1.23551e-07
-1.23565e-07
-1.23564e-07
-1.23564e-07
-1.23564e-07
-1.23551e-07
-1.17652e-07
-1.15923e-07
-1.16545e-07
-1.19363e-07
-1.23559e-07
-1.23565e-07
-1.23564e-07
-1.23564e-07
-1.23564e-07
-1.23558e-07
-1.17339e-07
-1.16556e-07
-1.1668e-07
-1.19627e-07
-1.23559e-07
-1.23565e-07
-1.23564e-07
-1.23564e-07
-1.23564e-07
-1.23556e-07
-1.1743e-07
-1.18599e-07
-1.19257e-07
-1.23552e-07
-1.23565e-07
-1.23565e-07
-1.23565e-07
-1.23565e-07
-1.23553e-07
-1.17415e-07
-1.16099e-07
-1.16531e-07
-1.19085e-07
-1.23552e-07
-1.23559e-07
-1.23559e-07
-1.23553e-07
-1.17456e-07
-1.17986e-07
-1.16043e-07
-1.16512e-07
-1.18465e-07
-1.1765e-07
-1.17331e-07
-1.17426e-07
-1.17414e-07
-1.17988e-07
-1.16137e-07
-1.15921e-07
-1.1655e-07
-1.18594e-07
-1.16095e-07
-1.16042e-07
-1.37236e-07
-1.3736e-07
-1.37583e-07
-1.40094e-07
-1.40064e-07
-1.40341e-07
-1.39961e-07
-1.3723e-07
-1.3721e-07
-1.37579e-07
-1.4144e-07
-1.44271e-07
-1.44273e-07
-1.44273e-07
-1.44272e-07
-1.39806e-07
-1.3916e-07
-1.401e-07
-1.44272e-07
-1.44274e-07
-1.44274e-07
-1.44274e-07
-1.44274e-07
-1.4427e-07
-1.38345e-07
-1.3661e-07
-1.37229e-07
-1.40063e-07
-1.44273e-07
-1.44274e-07
-1.44274e-07
-1.44274e-07
-1.44275e-07
-1.44273e-07
-1.38004e-07
-1.37231e-07
-1.37361e-07
-1.40341e-07
-1.44273e-07
-1.44275e-07
-1.44274e-07
-1.44274e-07
-1.44275e-07
-1.44274e-07
-1.38096e-07
-1.39268e-07
-1.39962e-07
-1.44273e-07
-1.44275e-07
-1.44275e-07
-1.44275e-07
-1.44275e-07
-1.44271e-07
-1.38106e-07
-1.3678e-07
-1.37229e-07
-1.39812e-07
-1.44273e-07
-1.44273e-07
-1.44274e-07
-1.44272e-07
-1.38132e-07
-1.38673e-07
-1.36733e-07
-1.37211e-07
-1.39162e-07
-1.38342e-07
-1.38007e-07
-1.381e-07
-1.38101e-07
-1.38678e-07
-1.36835e-07
-1.36615e-07
-1.3723e-07
-1.3927e-07
-1.36782e-07
-1.36734e-07
-1.57938e-07
-1.58061e-07
-1.58288e-07
-1.608e-07
-1.60771e-07
-1.61048e-07
-1.60668e-07
-1.57935e-07
-1.57916e-07
-1.58283e-07
-1.62157e-07
-1.64982e-07
-1.64984e-07
-1.64984e-07
-1.64983e-07
-1.6052e-07
-1.59863e-07
-1.60807e-07
-1.64984e-07
-1.64985e-07
-1.64984e-07
-1.64984e-07
-1.64985e-07
-1.64985e-07
-1.59053e-07
-1.57315e-07
-1.57929e-07
-1.60769e-07
-1.64985e-07
-1.64985e-07
-1.64984e-07
-1.64984e-07
-1.64985e-07
-1.64984e-07
-1.58704e-07
-1.57936e-07
-1.58062e-07
-1.61047e-07
-1.64985e-07
-1.64985e-07
-1.64985e-07
-1.64984e-07
-1.64985e-07
-1.64985e-07
-1.58796e-07
-1.59969e-07
-1.60671e-07
-1.64984e-07
-1.64985e-07
-1.64985e-07
-1.64985e-07
-1.64985e-07
-1.64985e-07
-1.5881e-07
-1.57484e-07
-1.57937e-07
-1.60521e-07
-1.64983e-07
-1.64986e-07
-1.64984e-07
-1.64984e-07
-1.58833e-07
-1.59384e-07
-1.57439e-07
-1.57921e-07
-1.59865e-07
-1.59051e-07
-1.58703e-07
-1.58794e-07
-1.58807e-07
-1.59381e-07
-1.57539e-07
-1.57319e-07
-1.57931e-07
-1.59968e-07
-1.57484e-07
-1.57435e-07
-1.78643e-07
-1.78766e-07
-1.78997e-07
-1.81509e-07
-1.81476e-07
-1.81757e-07
-1.81378e-07
-1.78643e-07
-1.78624e-07
-1.7899e-07
-1.82867e-07
-1.85694e-07
-1.85694e-07
-1.85694e-07
-1.85694e-07
-1.81232e-07
-1.80571e-07
-1.81515e-07
-1.85693e-07
-1.85694e-07
-1.85694e-07
-1.85694e-07
-1.85693e-07
-1.85693e-07
-1.79757e-07
-1.78023e-07
-1.78636e-07
-1.81475e-07
-1.85693e-07
-1.85693e-07
-1.85693e-07
-1.85693e-07
-1.85694e-07
-1.85694e-07
-1.79411e-07
-1.78642e-07
-1.78768e-07
-1.81757e-07
-1.85693e-07
-1.85693e-07
-1.85693e-07
-1.85693e-07
-1.85694e-07
-1.85694e-07
-1.79501e-07
-1.80677e-07
-1.81376e-07
-1.85693e-07
-1.85693e-07
-1.85693e-07
-1.85693e-07
-1.85694e-07
-1.85694e-07
-1.79515e-07
-1.7819e-07
-1.78643e-07
-1.81236e-07
-1.85693e-07
-1.85692e-07
-1.85692e-07
-1.85693e-07
-1.79536e-07
-1.80085e-07
-1.78145e-07
-1.78628e-07
-1.80575e-07
-1.7976e-07
-1.79411e-07
-1.79501e-07
-1.79514e-07
-1.80088e-07
-1.78245e-07
-1.78028e-07
-1.78639e-07
-1.80674e-07
-1.7819e-07
-1.78142e-07
-1.99352e-07
-1.99475e-07
-1.99706e-07
-2.02217e-07
-2.02185e-07
-2.02465e-07
-2.02086e-07
-1.99352e-07
-1.99332e-07
-1.99698e-07
-2.03573e-07
-2.06402e-07
-2.06402e-07
-2.06402e-07
-2.06402e-07
-2.01942e-07
-2.01279e-07
-2.02223e-07
-2.06401e-07
-2.06403e-07
-2.06402e-07
-2.06402e-07
-2.06402e-07
-2.06402e-07
-2.00465e-07
-1.98731e-07
-1.99343e-07
-2.02184e-07
-2.06401e-07
-2.06403e-07
-2.06402e-07
-2.06402e-07
-2.06402e-07
-2.06402e-07
-2.00118e-07
-1.99349e-07
-1.99475e-07
-2.02469e-07
-2.06401e-07
-2.06403e-07
-2.06402e-07
-2.06402e-07
-2.06402e-07
-2.06402e-07
-2.00209e-07
-2.01386e-07
-2.02085e-07
-2.06402e-07
-2.06403e-07
-2.06403e-07
-2.06403e-07
-2.06402e-07
-2.06402e-07
-2.00224e-07
-1.98898e-07
-1.99351e-07
-2.01944e-07
-2.06402e-07
-2.06402e-07
-2.06402e-07
-2.06402e-07
-2.00244e-07
-2.00793e-07
-1.98853e-07
-1.99336e-07
-2.01283e-07
-2.00466e-07
-2.00115e-07
-2.00205e-07
-2.00221e-07
-2.00796e-07
-1.98953e-07
-1.98734e-07
-1.99345e-07
-2.01378e-07
-1.98897e-07
-1.9885e-07
-2.20061e-07
-2.20184e-07
-2.20417e-07
-2.22931e-07
-2.22894e-07
-2.23175e-07
-2.22796e-07
-2.20059e-07
-2.20041e-07
-2.20408e-07
-2.24285e-07
-2.27113e-07
-2.27111e-07
-2.27111e-07
-2.27112e-07
-2.2265e-07
-2.21988e-07
-2.22933e-07
-2.27112e-07
-2.27112e-07
-2.27113e-07
-2.27112e-07
-2.27112e-07
-2.27112e-07
-2.21174e-07
-2.1944e-07
-2.20052e-07
-2.22894e-07
-2.27112e-07
-2.27112e-07
-2.27112e-07
-2.27112e-07
-2.27112e-07
-2.27112e-07
-2.20828e-07
-2.20058e-07
-2.20184e-07
-2.23179e-07
-2.27112e-07
-2.27112e-07
-2.27112e-07
-2.27112e-07
-2.27112e-07
-2.27112e-07
-2.20918e-07
-2.22095e-07
-2.22795e-07
-2.27112e-07
-2.27112e-07
-2.27112e-07
-2.27112e-07
-2.27112e-07
-2.27112e-07
-2.20933e-07
-2.19608e-07
-2.20061e-07
-2.22654e-07
-2.27112e-07
-2.27112e-07
-2.27112e-07
-2.27112e-07
-2.20953e-07
-2.21503e-07
-2.19562e-07
-2.20046e-07
-2.21993e-07
-2.21175e-07
-2.20824e-07
-2.20914e-07
-2.20931e-07
-2.21505e-07
-2.19662e-07
-2.19443e-07
-2.20054e-07
-2.22087e-07
-2.19606e-07
-2.19559e-07
-2.40771e-07
-2.40893e-07
-2.41132e-07
-2.43638e-07
-2.43604e-07
-2.43885e-07
-2.43506e-07
-2.40767e-07
-2.40749e-07
-2.4112e-07
-2.44998e-07
-2.47822e-07
-2.47822e-07
-2.47821e-07
-2.47822e-07
-2.43358e-07
-2.42698e-07
-2.43643e-07
-2.47822e-07
-2.47822e-07
-2.47822e-07
-2.47822e-07
-2.47821e-07
-2.47821e-07
-2.41884e-07
-2.40149e-07
-2.40762e-07
-2.43604e-07
-2.47822e-07
-2.47822e-07
-2.47821e-07
-2.47821e-07
-2.47821e-07
-2.47821e-07
-2.41537e-07
-2.40768e-07
-2.40894e-07
-2.43889e-07
-2.47822e-07
-2.47822e-07
-2.47821e-07
-2.47821e-07
-2.47821e-07
-2.47821e-07
-2.41628e-07
-2.42805e-07
-2.43505e-07
-2.47822e-07
-2.47822e-07
-2.47822e-07
-2.47822e-07
-2.47821e-07
-2.47821e-07
-2.41643e-07
-2.40317e-07
-2.40771e-07
-2.43365e-07
-2.47821e-07
-2.47821e-07
-2.47821e-07
-2.47821e-07
-2.41663e-07
-2.42212e-07
-2.40272e-07
-2.40756e-07
-2.42702e-07
-2.41885e-07
-2.41534e-07
-2.41623e-07
-2.4164e-07
-2.42215e-07
-2.40371e-07
-2.40153e-07
-2.40764e-07
-2.42797e-07
-2.40316e-07
-2.40269e-07
-2.6148e-07
-2.61602e-07
-2.61841e-07
-2.64348e-07
-2.64314e-07
-2.64594e-07
-2.64214e-07
-2.61475e-07
-2.61467e-07
-2.61829e-07
-2.65706e-07
-2.68531e-07
-2.68531e-07
-2.68532e-07
-2.68532e-07
-2.64067e-07
-2.63409e-07
-2.64352e-07
-2.68531e-07
-2.68531e-07
-2.6853e-07
-2.6853e-07
-2.68531e-07
-2.68531e-07
-2.62593e-07
-2.60859e-07
-2.61471e-07
-2.64313e-07
-2.68531e-07
-2.68531e-07
-2.68531e-07
-2.68531e-07
-2.68531e-07
-2.68531e-07
-2.62247e-07
-2.61477e-07
-2.61603e-07
-2.64598e-07
-2.68531e-07
-2.68531e-07
-2.68531e-07
-2.68531e-07
-2.6853e-07
-2.68531e-07
-2.62337e-07
-2.63514e-07
-2.64214e-07
-2.68531e-07
-2.68531e-07
-2.68531e-07
-2.68531e-07
-2.68531e-07
-2.68531e-07
-2.62352e-07
-2.61026e-07
-2.6148e-07
-2.64074e-07
-2.68531e-07
-2.6853e-07
-2.6853e-07
-2.6853e-07
-2.62372e-07
-2.62921e-07
-2.60981e-07
-2.61465e-07
-2.63411e-07
-2.62594e-07
-2.62242e-07
-2.62331e-07
-2.62349e-07
-2.62924e-07
-2.61081e-07
-2.60862e-07
-2.61473e-07
-2.63505e-07
-2.61025e-07
-2.60978e-07
-2.82189e-07
-2.82312e-07
-2.8255e-07
-2.85057e-07
-2.85023e-07
-2.85304e-07
-2.84922e-07
-2.82186e-07
-2.82176e-07
-2.82538e-07
-2.86415e-07
-2.8924e-07
-2.8924e-07
-2.8924e-07
-2.8924e-07
-2.84775e-07
-2.84118e-07
-2.85061e-07
-2.8924e-07
-2.8924e-07
-2.8924e-07
-2.8924e-07
-2.8924e-07
-2.8924e-07
-2.83303e-07
-2.81568e-07
-2.8218e-07
-2.85022e-07
-2.8924e-07
-2.8924e-07
-2.8924e-07
-2.8924e-07
-2.8924e-07
-2.8924e-07
-2.82956e-07
-2.82187e-07
-2.82312e-07
-2.85307e-07
-2.8924e-07
-2.8924e-07
-2.8924e-07
-2.8924e-07
-2.8924e-07
-2.8924e-07
-2.83046e-07
-2.84223e-07
-2.84923e-07
-2.8924e-07
-2.8924e-07
-2.8924e-07
-2.8924e-07
-2.8924e-07
-2.8924e-07
-2.83061e-07
-2.81736e-07
-2.82189e-07
-2.84783e-07
-2.8924e-07
-2.8924e-07
-2.8924e-07
-2.8924e-07
-2.83081e-07
-2.8363e-07
-2.8169e-07
-2.82174e-07
-2.8412e-07
-2.83303e-07
-2.82952e-07
-2.8304e-07
-2.83058e-07
-2.83633e-07
-2.8179e-07
-2.81571e-07
-2.82182e-07
-2.84214e-07
-2.81734e-07
-2.81687e-07
-3.02899e-07
-3.03021e-07
-3.03259e-07
-3.05766e-07
-3.05732e-07
-3.06014e-07
-3.05629e-07
-3.02896e-07
-3.02885e-07
-3.03246e-07
-3.07125e-07
-3.09949e-07
-3.09949e-07
-3.09949e-07
-3.09949e-07
-3.05484e-07
-3.04827e-07
-3.0577e-07
-3.09949e-07
-3.09949e-07
-3.09949e-07
-3.09949e-07
-3.09949e-07
-3.09949e-07
-3.04012e-07
-3.02277e-07
-3.02889e-07
-3.05731e-07
-3.09949e-07
-3.09949e-07
-3.09949e-07
-3.09949e-07
-3.09949e-07
-3.09949e-07
-3.03665e-07
-3.02896e-07
-3.03021e-07
-3.06016e-07
-3.09949e-07
-3.09949e-07
-3.09949e-07
-3.09949e-07
-3.09949e-07
-3.09949e-07
-3.03755e-07
-3.04932e-07
-3.05632e-07
-3.09949e-07
-3.09949e-07
-3.09949e-07
-3.09949e-07
-3.09949e-07
-3.09949e-07
-3.0377e-07
-3.02445e-07
-3.02898e-07
-3.05492e-07
-3.09949e-07
-3.09949e-07
-3.09949e-07
-3.09949e-07
-3.0379e-07
-3.0434e-07
-3.024e-07
-3.02883e-07
-3.0483e-07
-3.04012e-07
-3.0366e-07
-3.03749e-07
-3.03767e-07
-3.04342e-07
-3.02499e-07
-3.0228e-07
-3.02891e-07
-3.04924e-07
-3.02442e-07
-3.02396e-07
-3.23608e-07
-3.23731e-07
-3.23969e-07
-3.26475e-07
-3.26442e-07
-3.26723e-07
-3.26339e-07
-3.23604e-07
-3.23595e-07
-3.23956e-07
-3.27834e-07
-3.3066e-07
-3.30658e-07
-3.30659e-07
-3.30658e-07
-3.26195e-07
-3.25537e-07
-3.26479e-07
-3.30658e-07
-3.30658e-07
-3.30658e-07
-3.30659e-07
-3.30658e-07
-3.30658e-07
-3.24721e-07
-3.22986e-07
-3.23599e-07
-3.26441e-07
-3.30658e-07
-3.30659e-07
-3.30658e-07
-3.30658e-07
-3.30658e-07
-3.30658e-07
-3.24374e-07
-3.23605e-07
-3.2373e-07
-3.26725e-07
-3.30658e-07
-3.30658e-07
-3.30658e-07
-3.30658e-07
-3.30658e-07
-3.30658e-07
-3.24465e-07
-3.25641e-07
-3.26341e-07
-3.30658e-07
-3.30658e-07
-3.30658e-07
-3.30659e-07
-3.30658e-07
-3.30658e-07
-3.24479e-07
-3.23154e-07
-3.23608e-07
-3.26202e-07
-3.30658e-07
-3.30658e-07
-3.30659e-07
-3.30658e-07
-3.245e-07
-3.25049e-07
-3.23109e-07
-3.23592e-07
-3.25539e-07
-3.24721e-07
-3.2437e-07
-3.2446e-07
-3.24476e-07
-3.25052e-07
-3.23208e-07
-3.2299e-07
-3.236e-07
-3.25639e-07
-3.23151e-07
-3.23105e-07
-3.44317e-07
-3.4444e-07
-3.44677e-07
-3.47182e-07
-3.47151e-07
-3.47433e-07
-3.47049e-07
-3.44314e-07
-3.44305e-07
-3.44666e-07
-3.48544e-07
-3.51368e-07
-3.51368e-07
-3.51368e-07
-3.51368e-07
-3.46904e-07
-3.46246e-07
-3.47189e-07
-3.51367e-07
-3.51368e-07
-3.51368e-07
-3.51368e-07
-3.51368e-07
-3.51367e-07
-3.4543e-07
-3.43696e-07
-3.44308e-07
-3.4715e-07
-3.51368e-07
-3.51368e-07
-3.51368e-07
-3.51368e-07
-3.51368e-07
-3.51368e-07
-3.45084e-07
-3.44314e-07
-3.44439e-07
-3.47435e-07
-3.51368e-07
-3.51368e-07
-3.51368e-07
-3.51368e-07
-3.51368e-07
-3.51368e-07
-3.45174e-07
-3.46351e-07
-3.47051e-07
-3.51368e-07
-3.51368e-07
-3.51368e-07
-3.51368e-07
-3.51368e-07
-3.51368e-07
-3.45189e-07
-3.43863e-07
-3.44317e-07
-3.46911e-07
-3.51368e-07
-3.51368e-07
-3.51368e-07
-3.51368e-07
-3.45209e-07
-3.45758e-07
-3.43818e-07
-3.44302e-07
-3.46248e-07
-3.4543e-07
-3.45079e-07
-3.45168e-07
-3.45186e-07
-3.45761e-07
-3.43918e-07
-3.43699e-07
-3.4431e-07
-3.46343e-07
-3.43861e-07
-3.43815e-07
-3.65027e-07
-3.65149e-07
-3.65388e-07
-3.67892e-07
-3.6786e-07
-3.68142e-07
-3.67758e-07
-3.65024e-07
-3.65015e-07
-3.65375e-07
-3.69253e-07
-3.72077e-07
-3.72078e-07
-3.72077e-07
-3.72077e-07
-3.67612e-07
-3.66955e-07
-3.67898e-07
-3.72077e-07
-3.72077e-07
-3.72077e-07
-3.72077e-07
-3.72077e-07
-3.72077e-07
-3.66139e-07
-3.64405e-07
-3.65018e-07
-3.67859e-07
-3.72077e-07
-3.72077e-07
-3.72077e-07
-3.72077e-07
-3.72077e-07
-3.72077e-07
-3.65793e-07
-3.65023e-07
-3.65149e-07
-3.68144e-07
-3.72077e-07
-3.72077e-07
-3.72077e-07
-3.72077e-07
-3.72077e-07
-3.72077e-07
-3.65883e-07
-3.6706e-07
-3.6776e-07
-3.72077e-07
-3.72077e-07
-3.72077e-07
-3.72077e-07
-3.72077e-07
-3.72077e-07
-3.65898e-07
-3.64572e-07
-3.65026e-07
-3.6762e-07
-3.72077e-07
-3.72077e-07
-3.72077e-07
-3.72077e-07
-3.65918e-07
-3.66467e-07
-3.64527e-07
-3.65011e-07
-3.66958e-07
-3.6614e-07
-3.65789e-07
-3.65879e-07
-3.65895e-07
-3.6647e-07
-3.64627e-07
-3.64408e-07
-3.6502e-07
-3.67053e-07
-3.6457e-07
-3.64524e-07
-3.85737e-07
-3.85858e-07
-3.86096e-07
-3.88602e-07
-3.88569e-07
-3.8885e-07
-3.88466e-07
-3.85733e-07
-3.85723e-07
-3.86084e-07
-3.89961e-07
-3.92786e-07
-3.92786e-07
-3.92786e-07
-3.92786e-07
-3.88321e-07
-3.87664e-07
-3.88607e-07
-3.92786e-07
-3.92785e-07
-3.92786e-07
-3.92785e-07
-3.92785e-07
-3.92785e-07
-3.86848e-07
-3.85114e-07
-3.85726e-07
-3.88568e-07
-3.92786e-07
-3.92785e-07
-3.92786e-07
-3.92785e-07
-3.92785e-07
-3.92785e-07
-3.86502e-07
-3.85732e-07
-3.85858e-07
-3.88853e-07
-3.92786e-07
-3.92786e-07
-3.92786e-07
-3.92785e-07
-3.92785e-07
-3.92785e-07
-3.86592e-07
-3.87769e-07
-3.88469e-07
-3.92786e-07
-3.92786e-07
-3.92786e-07
-3.92786e-07
-3.92785e-07
-3.92785e-07
-3.86607e-07
-3.85281e-07
-3.85735e-07
-3.88329e-07
-3.92786e-07
-3.92786e-07
-3.92786e-07
-3.92785e-07
-3.86628e-07
-3.87176e-07
-3.85236e-07
-3.8572e-07
-3.87667e-07
-3.86849e-07
-3.86499e-07
-3.86588e-07
-3.86603e-07
-3.87179e-07
-3.85336e-07
-3.85118e-07
-3.85728e-07
-3.87762e-07
-3.85279e-07
-3.85233e-07
-4.06445e-07
-4.06567e-07
-4.06805e-07
-4.09311e-07
-4.09277e-07
-4.09559e-07
-4.09174e-07
-4.06442e-07
-4.06431e-07
-4.06792e-07
-4.1067e-07
-4.13494e-07
-4.13494e-07
-4.13494e-07
-4.13494e-07
-4.0903e-07
-4.08372e-07
-4.09315e-07
-4.13494e-07
-4.13494e-07
-4.13494e-07
-4.13494e-07
-4.13494e-07
-4.13494e-07
-4.07557e-07
-4.05823e-07
-4.06435e-07
-4.09276e-07
-4.13494e-07
-4.13494e-07
-4.13494e-07
-4.13494e-07
-4.13494e-07
-4.13494e-07
-4.0721e-07
-4.06441e-07
-4.06566e-07
-4.09562e-07
-4.13494e-07
-4.13494e-07
-4.13494e-07
-4.13494e-07
-4.13494e-07
-4.13494e-07
-4.07301e-07
-4.08478e-07
-4.09177e-07
-4.13494e-07
-4.13494e-07
-4.13494e-07
-4.13494e-07
-4.13494e-07
-4.13494e-07
-4.07315e-07
-4.0599e-07
-4.06444e-07
-4.09038e-07
-4.13494e-07
-4.13494e-07
-4.13494e-07
-4.13494e-07
-4.07336e-07
-4.07885e-07
-4.05945e-07
-4.06429e-07
-4.08375e-07
-4.07558e-07
-4.07207e-07
-4.07296e-07
-4.07313e-07
-4.07888e-07
-4.06045e-07
-4.05826e-07
-4.06438e-07
-4.08471e-07
-4.05988e-07
-4.05942e-07
-4.27153e-07
-4.27275e-07
-4.27513e-07
-4.3002e-07
-4.29985e-07
-4.30267e-07
-4.29882e-07
-4.27149e-07
-4.27137e-07
-4.275e-07
-4.31377e-07
-4.34201e-07
-4.34202e-07
-4.34202e-07
-4.34202e-07
-4.29738e-07
-4.2908e-07
-4.30023e-07
-4.34202e-07
-4.34202e-07
-4.34202e-07
-4.34202e-07
-4.34202e-07
-4.34202e-07
-4.28265e-07
-4.2653e-07
-4.27143e-07
-4.29984e-07
-4.34202e-07
-4.34202e-07
-4.34202e-07
-4.34202e-07
-4.34202e-07
-4.34202e-07
-4.27918e-07
-4.2715e-07
-4.27274e-07
-4.30269e-07
-4.34202e-07
-4.34202e-07
-4.34202e-07
-4.34202e-07
-4.34202e-07
-4.34202e-07
-4.28009e-07
-4.29185e-07
-4.29885e-07
-4.34202e-07
-4.34202e-07
-4.34202e-07
-4.34202e-07
-4.34202e-07
-4.34202e-07
-4.28023e-07
-4.26698e-07
-4.27152e-07
-4.29745e-07
-4.34202e-07
-4.34202e-07
-4.34202e-07
-4.34202e-07
-4.28044e-07
-4.28593e-07
-4.26653e-07
-4.27136e-07
-4.29083e-07
-4.28266e-07
-4.27915e-07
-4.28005e-07
-4.28021e-07
-4.28596e-07
-4.26753e-07
-4.26534e-07
-4.27146e-07
-4.29179e-07
-4.26696e-07
-4.26651e-07
-4.4786e-07
-4.47983e-07
-4.48221e-07
-4.50728e-07
-4.50694e-07
-4.50975e-07
-4.50591e-07
-4.47858e-07
-4.47845e-07
-4.48208e-07
-4.52086e-07
-4.5491e-07
-4.5491e-07
-4.5491e-07
-4.5491e-07
-4.50446e-07
-4.49788e-07
-4.50731e-07
-4.5491e-07
-4.5491e-07
-4.5491e-07
-4.5491e-07
-4.5491e-07
-4.5491e-07
-4.48973e-07
-4.47238e-07
-4.47851e-07
-4.50692e-07
-4.5491e-07
-4.5491e-07
-4.5491e-07
-4.5491e-07
-4.5491e-07
-4.5491e-07
-4.48626e-07
-4.47858e-07
-4.47982e-07
-4.50978e-07
-4.5491e-07
-4.5491e-07
-4.5491e-07
-4.5491e-07
-4.5491e-07
-4.5491e-07
-4.48717e-07
-4.49894e-07
-4.50593e-07
-4.5491e-07
-4.5491e-07
-4.5491e-07
-4.5491e-07
-4.5491e-07
-4.5491e-07
-4.48732e-07
-4.47406e-07
-4.4786e-07
-4.50454e-07
-4.5491e-07
-4.5491e-07
-4.5491e-07
-4.5491e-07
-4.48752e-07
-4.49301e-07
-4.47361e-07
-4.47844e-07
-4.49791e-07
-4.48974e-07
-4.48623e-07
-4.48713e-07
-4.48729e-07
-4.49304e-07
-4.47461e-07
-4.47242e-07
-4.47854e-07
-4.49887e-07
-4.47403e-07
-4.47359e-07
-4.6857e-07
-4.68692e-07
-4.6893e-07
-4.71437e-07
-4.71403e-07
-4.71685e-07
-4.713e-07
-4.68568e-07
-4.68555e-07
-4.68917e-07
-4.72795e-07
-4.7562e-07
-4.7562e-07
-4.7562e-07
-4.7562e-07
-4.71156e-07
-4.70498e-07
-4.71441e-07
-4.7562e-07
-4.7562e-07
-4.7562e-07
-4.7562e-07
-4.7562e-07
-4.7562e-07
-4.69682e-07
-4.67948e-07
-4.6856e-07
-4.71402e-07
-4.7562e-07
-4.7562e-07
-4.7562e-07
-4.7562e-07
-4.7562e-07
-4.7562e-07
-4.69336e-07
-4.68567e-07
-4.68691e-07
-4.71687e-07
-4.7562e-07
-4.7562e-07
-4.7562e-07
-4.7562e-07
-4.7562e-07
-4.7562e-07
-4.69426e-07
-4.70603e-07
-4.71303e-07
-4.7562e-07
-4.7562e-07
-4.7562e-07
-4.7562e-07
-4.7562e-07
-4.7562e-07
-4.69441e-07
-4.68115e-07
-4.68569e-07
-4.71163e-07
-4.7562e-07
-4.7562e-07
-4.7562e-07
-4.7562e-07
-4.69462e-07
-4.70011e-07
-4.6807e-07
-4.68554e-07
-4.705e-07
-4.69683e-07
-4.69333e-07
-4.69422e-07
-4.69438e-07
-4.70013e-07
-4.6817e-07
-4.67952e-07
-4.68563e-07
-4.70596e-07
-4.68113e-07
-4.68068e-07
-4.89279e-07
-4.89401e-07
-4.8964e-07
-4.92146e-07
-4.92112e-07
-4.92393e-07
-4.92009e-07
-4.89275e-07
-4.89264e-07
-4.89627e-07
-4.93504e-07
-4.96329e-07
-4.96329e-07
-4.96328e-07
-4.96328e-07
-4.91865e-07
-4.91207e-07
-4.9215e-07
-4.96329e-07
-4.96329e-07
-4.96328e-07
-4.96328e-07
-4.96328e-07
-4.96328e-07
-4.90391e-07
-4.88657e-07
-4.89269e-07
-4.92111e-07
-4.96329e-07
-4.96329e-07
-4.96329e-07
-4.96328e-07
-4.96328e-07
-4.96328e-07
-4.90045e-07
-4.89276e-07
-4.89401e-07
-4.92396e-07
-4.96329e-07
-4.96329e-07
-4.96329e-07
-4.96328e-07
-4.96328e-07
-4.96328e-07
-4.90135e-07
-4.91312e-07
-4.92012e-07
-4.96329e-07
-4.96329e-07
-4.96329e-07
-4.96328e-07
-4.96328e-07
-4.96328e-07
-4.9015e-07
-4.88824e-07
-4.89278e-07
-4.91872e-07
-4.96329e-07
-4.96329e-07
-4.96329e-07
-4.96328e-07
-4.9017e-07
-4.90719e-07
-4.88779e-07
-4.89263e-07
-4.91209e-07
-4.90392e-07
-4.90042e-07
-4.90131e-07
-4.90147e-07
-4.90722e-07
-4.88879e-07
-4.88661e-07
-4.89272e-07
-4.91305e-07
-4.88822e-07
-4.88777e-07
-5.09988e-07
-5.1011e-07
-5.10348e-07
-5.12854e-07
-5.1282e-07
-5.13102e-07
-5.12718e-07
-5.09987e-07
-5.0997e-07
-5.10335e-07
-5.14213e-07
-5.17037e-07
-5.17037e-07
-5.17037e-07
-5.17037e-07
-5.12573e-07
-5.11915e-07
-5.12858e-07
-5.17037e-07
-5.17037e-07
-5.17037e-07
-5.17037e-07
-5.17037e-07
-5.17037e-07
-5.11099e-07
-5.09365e-07
-5.09978e-07
-5.12819e-07
-5.17037e-07
-5.17037e-07
-5.17037e-07
-5.17037e-07
-5.17037e-07
-5.17037e-07
-5.10753e-07
-5.09985e-07
-5.10109e-07
-5.13105e-07
-5.17037e-07
-5.17037e-07
-5.17037e-07
-5.17037e-07
-5.17037e-07
-5.17037e-07
-5.10843e-07
-5.1202e-07
-5.1272e-07
-5.17037e-07
-5.17037e-07
-5.17037e-07
-5.17037e-07
-5.17037e-07
-5.17037e-07
-5.10858e-07
-5.09533e-07
-5.09987e-07
-5.12581e-07
-5.17037e-07
-5.17037e-07
-5.17037e-07
-5.17037e-07
-5.10879e-07
-5.11428e-07
-5.09488e-07
-5.09971e-07
-5.11918e-07
-5.11101e-07
-5.1075e-07
-5.10839e-07
-5.10855e-07
-5.11431e-07
-5.09587e-07
-5.09369e-07
-5.0998e-07
-5.12014e-07
-5.0953e-07
-5.09486e-07
-5.30696e-07
-5.30819e-07
-5.31057e-07
-5.33561e-07
-5.33531e-07
-5.33811e-07
-5.33427e-07
-5.30692e-07
-5.30682e-07
-5.31043e-07
-5.34922e-07
-5.37746e-07
-5.37746e-07
-5.37746e-07
-5.37746e-07
-5.33283e-07
-5.32624e-07
-5.33566e-07
-5.37746e-07
-5.37746e-07
-5.37746e-07
-5.37746e-07
-5.37746e-07
-5.37746e-07
-5.31809e-07
-5.30074e-07
-5.30687e-07
-5.33528e-07
-5.37746e-07
-5.37746e-07
-5.37746e-07
-5.37746e-07
-5.37746e-07
-5.37746e-07
-5.31462e-07
-5.30694e-07
-5.30818e-07
-5.33814e-07
-5.37746e-07
-5.37746e-07
-5.37746e-07
-5.37746e-07
-5.37746e-07
-5.37746e-07
-5.31552e-07
-5.3273e-07
-5.33429e-07
-5.37746e-07
-5.37746e-07
-5.37746e-07
-5.37746e-07
-5.37746e-07
-5.37746e-07
-5.31567e-07
-5.30242e-07
-5.30696e-07
-5.33289e-07
-5.37746e-07
-5.37746e-07
-5.37746e-07
-5.37746e-07
-5.31588e-07
-5.32137e-07
-5.30197e-07
-5.3068e-07
-5.32627e-07
-5.3181e-07
-5.31459e-07
-5.31548e-07
-5.31564e-07
-5.3214e-07
-5.30296e-07
-5.30078e-07
-5.30689e-07
-5.32723e-07
-5.30239e-07
-5.30195e-07
-5.51405e-07
-5.51527e-07
-5.51765e-07
-5.54271e-07
-5.5424e-07
-5.54519e-07
-5.54135e-07
-5.514e-07
-5.5139e-07
-5.51753e-07
-5.55631e-07
-5.58455e-07
-5.58455e-07
-5.58455e-07
-5.58455e-07
-5.53992e-07
-5.53333e-07
-5.54276e-07
-5.58455e-07
-5.58455e-07
-5.58455e-07
-5.58455e-07
-5.58455e-07
-5.58455e-07
-5.52518e-07
-5.50783e-07
-5.51396e-07
-5.54237e-07
-5.58455e-07
-5.58455e-07
-5.58455e-07
-5.58455e-07
-5.58455e-07
-5.58455e-07
-5.52171e-07
-5.51403e-07
-5.51527e-07
-5.54522e-07
-5.58455e-07
-5.58455e-07
-5.58455e-07
-5.58455e-07
-5.58455e-07
-5.58455e-07
-5.52261e-07
-5.53438e-07
-5.54138e-07
-5.58455e-07
-5.58455e-07
-5.58455e-07
-5.58455e-07
-5.58455e-07
-5.58455e-07
-5.52276e-07
-5.5095e-07
-5.51404e-07
-5.53998e-07
-5.58455e-07
-5.58455e-07
-5.58455e-07
-5.58455e-07
-5.52296e-07
-5.52846e-07
-5.50906e-07
-5.51389e-07
-5.53336e-07
-5.52518e-07
-5.52168e-07
-5.52257e-07
-5.52273e-07
-5.52848e-07
-5.51005e-07
-5.50787e-07
-5.51398e-07
-5.53432e-07
-5.50948e-07
-5.50904e-07
-5.72114e-07
-5.72236e-07
-5.72473e-07
-5.74979e-07
-5.74948e-07
-5.75228e-07
-5.74844e-07
-5.7211e-07
-5.72099e-07
-5.72461e-07
-5.7634e-07
-5.79163e-07
-5.79163e-07
-5.79164e-07
-5.79163e-07
-5.747e-07
-5.74042e-07
-5.74985e-07
-5.79163e-07
-5.79163e-07
-5.79163e-07
-5.79163e-07
-5.79163e-07
-5.79163e-07
-5.73226e-07
-5.71491e-07
-5.72104e-07
-5.74944e-07
-5.79163e-07
-5.79163e-07
-5.79163e-07
-5.79163e-07
-5.79163e-07
-5.79163e-07
-5.72879e-07
-5.72111e-07
-5.72236e-07
-5.75231e-07
-5.79163e-07
-5.79163e-07
-5.79163e-07
-5.79163e-07
-5.79163e-07
-5.79163e-07
-5.72969e-07
-5.74147e-07
-5.74846e-07
-5.79163e-07
-5.79163e-07
-5.79163e-07
-5.79163e-07
-5.79163e-07
-5.79163e-07
-5.72984e-07
-5.71659e-07
-5.72113e-07
-5.74707e-07
-5.79163e-07
-5.79163e-07
-5.79163e-07
-5.79163e-07
-5.73005e-07
-5.73554e-07
-5.71614e-07
-5.72098e-07
-5.74044e-07
-5.73227e-07
-5.72876e-07
-5.72965e-07
-5.72981e-07
-5.73557e-07
-5.71713e-07
-5.71495e-07
-5.72106e-07
-5.7414e-07
-5.71656e-07
-5.71612e-07
-5.92823e-07
-5.92945e-07
-5.93183e-07
-5.95687e-07
-5.95657e-07
-5.95938e-07
-5.95553e-07
-5.92817e-07
-5.92806e-07
-5.93171e-07
-5.97049e-07
-5.99874e-07
-5.99873e-07
-5.99874e-07
-5.99873e-07
-5.9541e-07
-5.94751e-07
-5.95694e-07
-5.99873e-07
-5.99872e-07
-5.99872e-07
-5.99872e-07
-5.99872e-07
-5.99872e-07
-5.93935e-07
-5.922e-07
-5.92813e-07
-5.95655e-07
-5.99873e-07
-5.99873e-07
-5.99873e-07
-5.99873e-07
-5.99873e-07
-5.99872e-07
-5.93588e-07
-5.9282e-07
-5.92945e-07
-5.9594e-07
-5.99873e-07
-5.99872e-07
-5.99872e-07
-5.99872e-07
-5.99872e-07
-5.99872e-07
-5.93678e-07
-5.94856e-07
-5.95556e-07
-5.99873e-07
-5.99873e-07
-5.99872e-07
-5.99872e-07
-5.99872e-07
-5.99872e-07
-5.93693e-07
-5.92368e-07
-5.92822e-07
-5.95416e-07
-5.99872e-07
-5.99872e-07
-5.99872e-07
-5.99872e-07
-5.93714e-07
-5.94263e-07
-5.92323e-07
-5.92807e-07
-5.94753e-07
-5.93936e-07
-5.93585e-07
-5.93674e-07
-5.9369e-07
-5.94266e-07
-5.92422e-07
-5.92204e-07
-5.92815e-07
-5.94849e-07
-5.92365e-07
-5.92321e-07
-6.13532e-07
-6.13654e-07
-6.13892e-07
-6.16398e-07
-6.16366e-07
-6.16646e-07
-6.16262e-07
-6.13526e-07
-6.13516e-07
-6.1388e-07
-6.17758e-07
-6.20581e-07
-6.20581e-07
-6.20581e-07
-6.20581e-07
-6.16118e-07
-6.15459e-07
-6.16403e-07
-6.20582e-07
-6.20581e-07
-6.20581e-07
-6.20581e-07
-6.20581e-07
-6.20581e-07
-6.14645e-07
-6.12908e-07
-6.13522e-07
-6.16364e-07
-6.20582e-07
-6.20582e-07
-6.20581e-07
-6.20581e-07