/*--------------------------------*- C++ -*----------------------------------*\
| =========                 |                                                 |
| \\      /  F ield         | OpenFOAM: The Open Source CFD Toolbox           |
|  \\    /   O peration     | Version:  v1906                                 |
|   \\  /    A nd           | Web:      www.OpenFOAM.com                      |
|    \\/     M anipulation  |                                                 |
\*---------------------------------------------------------------------------*/
FoamFile
{
    version     2.0;
    format      ascii;
    class       volScalarField;
    location    "800";
    object      nut;
}
// * * * * * * * * * * * * * * * * * * * * * * * * * * * * * * * * * * * * * //

dimensions      [0 2 -1 0 0 0 0];


internalField   nonuniform List<scalar> 
43024
(
0.00020834
0.000201474
0.000201467
0.000182435
0.000210638
0.000202717
0.000202709
0.000183272
0.000212826
0.000203882
0.000203874
0.000184058
0.000214905
0.00020497
0.000204963
0.000184749
0.000216875
0.000205982
0.000205975
0.000185391
0.000218735
0.000206922
0.000206913
0.00018599
0.000220486
0.000207781
0.000207771
0.000186534
0.00022213
0.000208567
0.000208557
0.000187024
0.000223669
0.000209281
0.000209272
0.00018746
0.000225105
0.000209924
0.000209915
0.000187844
0.000226441
0.000210498
0.000210488
0.000188179
0.000227678
0.000211006
0.000210995
0.000188478
0.000228813
0.000211446
0.000211436
0.000188717
0.000229841
0.000211833
0.000211822
0.000188908
0.000230774
0.000212164
0.000212157
0.000189065
0.000231617
0.000212436
0.000212433
0.00018918
0.000232375
0.000212652
0.000212654
0.000189252
0.000233046
0.000212818
0.000212823
0.000189287
0.000233624
0.000212944
0.000212942
0.000189286
0.000234128
0.000212915
0.000212905
0.000189245
0.000236315
0.000214336
0.000214286
0.000192695
0.000182436
0.000201118
0.000201117
0.000182385
0.000201133
0.000201106
0.000201149
0.000201123
0.000182373
0.000201141
0.000201138
0.000182437
0.000182435
0.00018326
0.000201443
0.000201443
0.000202379
0.000202378
0.000182488
0.00018326
0.00020146
0.000201432
0.000202395
0.000202367
0.000201449
0.00020241
0.000202384
0.000182476
0.000183249
0.000201465
0.000202403
0.0002024
0.000183258
0.000183286
0.000184041
0.000202686
0.000202685
0.000203562
0.000203561
0.000183304
0.000184048
0.000202703
0.000202674
0.000203578
0.00020355
0.000202692
0.000203592
0.000203567
0.000183293
0.000184037
0.000202708
0.000203585
0.000203583
0.000184048
0.00018406
0.000184753
0.000203851
0.00020385
0.000204666
0.000204665
0.00018407
0.000184788
0.000203868
0.000203839
0.000204682
0.000204654
0.000203857
0.000204697
0.000204672
0.000184058
0.000184776
0.000203873
0.000204689
0.000204688
0.000184786
0.000184777
0.000185416
0.00020494
0.000204938
0.000205693
0.000205691
0.00018476
0.000185466
0.000204956
0.000204927
0.000205709
0.00020568
0.000204946
0.000205723
0.000205698
0.000184748
0.000185454
0.000204962
0.000205716
0.000205715
0.00018546
0.000185434
0.00018603
0.000205952
0.00020595
0.000206642
0.000206641
0.000185402
0.000186078
0.000205969
0.000205939
0.000206658
0.000206629
0.000205958
0.000206673
0.000206648
0.00018539
0.000186065
0.000205975
0.000206665
0.000206665
0.000186073
0.000186031
0.000186589
0.00020689
0.000206889
0.000207522
0.000207521
0.000186001
0.000186635
0.000206908
0.000206878
0.000207539
0.000207509
0.000206897
0.000207553
0.000207528
0.000185989
0.000186623
0.000206914
0.000207545
0.000207545
0.000186631
0.000186573
0.000187092
0.000207749
0.000207747
0.000208329
0.000208327
0.000186544
0.000187139
0.000207766
0.000207735
0.000208345
0.000208315
0.000207755
0.000208359
0.000208335
0.000186532
0.000187126
0.000207772
0.000208352
0.000208352
0.000187134
0.000187062
0.00018754
0.000208535
0.000208533
0.000209063
0.000209062
0.000187033
0.000187588
0.000208552
0.000208521
0.00020908
0.00020905
0.000208541
0.000209095
0.00020907
0.000187021
0.000187575
0.000208558
0.000209087
0.000209087
0.000187584
0.000187497
0.000187977
0.000209249
0.000209247
0.000209729
0.000209727
0.000187469
0.000187986
0.000209266
0.000209236
0.000209746
0.000209715
0.000209255
0.000209761
0.000209736
0.000187457
0.000187973
0.000209273
0.000209752
0.000209753
0.000187981
0.000187847
0.000188327
0.000209892
0.00020989
0.000210329
0.000210327
0.000187853
0.000188335
0.00020991
0.000209879
0.000210347
0.000210315
0.000209899
0.000210362
0.000210336
0.000187841
0.000188321
0.000209916
0.000210352
0.000210353
0.00018833
0.00018818
0.000188643
0.000210465
0.000210463
0.000210866
0.000210863
0.000188188
0.000188612
0.000210483
0.000210451
0.000210884
0.000210851
0.000210472
0.000210898
0.000210873
0.000188175
0.000188637
0.000210489
0.000210888
0.00021089
0.000188645
0.000188475
0.000188896
0.000210972
0.000210971
0.000211339
0.000211336
0.000188525
0.000188852
0.00021099
0.000210958
0.000211357
0.000211324
0.000210978
0.000211372
0.000211346
0.000188471
0.000188893
0.000210996
0.000211362
0.000211363
0.0001889
0.000188721
0.000189075
0.000211413
0.000211411
0.00021174
0.000211737
0.000188775
0.000189032
0.000211431
0.000211398
0.000211758
0.000211725
0.000211419
0.000211774
0.000211746
0.000188721
0.00018904
0.000211436
0.000211763
0.000211763
0.000189089
0.000188926
0.000189216
0.0002118
0.000211797
0.000212081
0.000212079
0.000188973
0.000189194
0.000211818
0.000211784
0.000212099
0.000212066
0.000211807
0.000212116
0.000212088
0.000188944
0.000189179
0.000211823
0.000212103
0.000212104
0.000189217
0.00018907
0.000189324
0.00021213
0.000212127
0.000212365
0.000212363
0.000189102
0.000189315
0.00021215
0.000212114
0.000212377
0.000212349
0.000212136
0.0002124
0.000212371
0.000189089
0.000189298
0.000212153
0.000212381
0.000212388
0.000189324
0.000189183
0.000189391
0.000212402
0.000212398
0.000212593
0.000212586
0.000189196
0.000189396
0.000212429
0.000212385
0.0002126
0.000212577
0.000212408
0.000212629
0.0002126
0.000189183
0.000189382
0.000212424
0.000212605
0.000212616
0.000189391
0.000189256
0.000189425
0.000212617
0.000212625
0.00021277
0.000212752
0.000189266
0.000189433
0.000212649
0.000212601
0.000212771
0.000212754
0.000212623
0.000212805
0.000212777
0.000189252
0.000189419
0.00021264
0.000212778
0.000212793
0.000189425
0.000189289
0.000189425
0.000212781
0.000212796
0.000212898
0.000212876
0.000189298
0.000189433
0.000212817
0.000212764
0.000212897
0.000212881
0.000212786
0.000212928
0.000212904
0.000189284
0.000189418
0.000212803
0.000212904
0.00021292
0.000189425
0.000189287
0.000189418
0.000212902
0.000212915
0.0002131
0.000213084
0.000189295
0.000189426
0.000212936
0.000212885
0.000213105
0.000213086
0.000212908
0.000213129
0.000213107
0.000189281
0.000189411
0.000212924
0.000213113
0.000213124
0.000189419
0.000189248
0.00019067
0.000212874
0.00021288
0.000215482
0.000215482
0.000189256
0.000190683
0.000212902
0.000212856
0.000215496
0.000215477
0.000212878
0.000215496
0.000215493
0.000189239
0.000190767
0.000212896
0.000215496
0.00021551
0.000190773
0.000192782
0.000214314
0.000214306
0.000192786
0.00021433
0.000214256
0.000236321
0.000236316
0.000236325
0.000214272
0.000192708
0.000214286
9.983e-05
5.07442e-05
2.38927e-05
9.98426e-05
5.07412e-05
0.000207747
0.000207752
0.000207751
0.000207759
0.000144122
0.000200488
0.000103591
0.000210015
2.38905e-05
0.000144107
0.000200481
0.000210014
0.000103592
0.000181994
7.78997e-05
7.78983e-05
9.99331e-05
5.07532e-05
9.98827e-05
5.07635e-05
2.38974e-05
2.39016e-05
9.99449e-05
5.07501e-05
9.98892e-05
5.07605e-05
0.000208346
0.000208344
0.000208353
0.00021007
0.000210075
0.000210074
0.000210082
0.000144494
0.000103656
0.000211318
0.000201789
0.000144314
0.000103727
0.000211737
2.38953e-05
2.38994e-05
0.00014448
0.000211317
0.00010366
0.000201782
0.00014432
0.000211735
0.000103728
7.79312e-05
7.79292e-05
0.000182864
7.79517e-05
7.79521e-05
0.000100022
5.07719e-05
9.99782e-05
5.07819e-05
2.39061e-05
2.39101e-05
0.000100034
5.07688e-05
9.99845e-05
5.07789e-05
0.000210643
0.000210642
0.000210649
0.000212285
0.00021229
0.000212288
0.000212296
0.00014483
0.000103784
0.00021297
0.000203011
0.000144666
0.000103848
0.000213364
2.39039e-05
2.39079e-05
0.00014481
0.00021297
0.000103787
0.000203004
0.000144671
0.000213363
0.000103849
7.79802e-05
7.7979e-05
0.000183664
7.79982e-05
7.79972e-05
0.000100099
5.07897e-05
0.00010006
5.07992e-05
2.39145e-05
2.39183e-05
0.00010011
5.07866e-05
0.000100066
5.07962e-05
0.000212831
0.00021283
0.000212838
0.00021439
0.000214395
0.000214393
0.000214401
0.00014513
0.000103896
0.00021453
0.000204154
0.00014498
0.000103954
0.000214899
2.39123e-05
2.39161e-05
0.000145114
0.000214529
0.000103899
0.000204147
0.000144988
0.000214897
0.000103955
7.80221e-05
7.80211e-05
0.000184422
7.80379e-05
7.80369e-05
0.000100162
5.08065e-05
0.000100129
5.08156e-05
2.39225e-05
2.39262e-05
0.000100173
5.08034e-05
0.000100135
5.08126e-05
0.00021491
0.000214909
0.000214917
0.000216385
0.00021639
0.000216389
0.000216396
0.000145399
0.000103993
0.000215999
0.00020522
0.000145274
0.000104045
0.000216341
2.39203e-05
2.3924e-05
0.000145386
0.000215998
0.000103997
0.000205212
0.000145274
0.00021634
0.000104046
7.80573e-05
7.80564e-05
0.000185141
7.8071e-05
7.807e-05
0.000100214
5.08223e-05
0.000100186
5.08311e-05
2.39302e-05
2.39338e-05
0.000100223
5.08192e-05
0.000100191
5.0828e-05
0.00021688
0.000216878
0.000216886
0.000218271
0.000218276
0.000218274
0.000218282
0.000145633
0.000104076
0.000217377
0.000206208
0.000145533
0.000104121
0.000217693
2.3928e-05
2.39316e-05
0.000145625
0.000217376
0.000104079
0.0002062
0.000145525
0.000217691
0.000104123
7.80861e-05
7.80838e-05
0.000185783
7.80977e-05
7.80982e-05
0.000100253
5.08371e-05
0.000100229
5.08455e-05
2.39376e-05
2.3941e-05
0.00010026
5.0834e-05
0.000100235
5.08424e-05
0.00021874
0.000218738
0.000218746
0.000220049
0.000220054
0.000220052
0.00022006
0.000145841
0.000104145
0.000218667
0.000207122
0.000145751
0.000104185
0.000218954
2.39353e-05
2.39388e-05
0.000145831
0.000218664
0.000104148
0.000207114
0.000145742
0.000218951
0.000104186
7.81087e-05
7.81063e-05
0.000186368
7.81182e-05
7.81189e-05
0.00010028
5.08509e-05
0.00010026
5.08589e-05
2.39446e-05
2.39478e-05
0.000100287
5.08478e-05
0.000100267
5.08558e-05
0.000220491
0.000220489
0.000220497
0.000221718
0.000221723
0.000221721
0.000221729
0.000146021
0.0001042
0.000219869
0.000207965
0.000145937
0.000104234
0.000220125
2.39423e-05
2.39456e-05
0.00014601
0.000219866
0.000104203
0.000207958
0.000145927
0.000220121
0.000104236
7.81255e-05
7.81229e-05
0.000186898
7.81327e-05
7.81335e-05
0.000100296
5.08638e-05
0.00010028
5.08714e-05
2.39512e-05
2.39543e-05
0.000100303
5.08606e-05
0.000100287
5.08682e-05
0.000222135
0.000222133
0.000222141
0.000223279
0.000223285
0.000223282
0.00022329
0.000146172
0.000104243
0.000220982
0.000208736
0.000146092
0.000104271
0.000221216
2.39489e-05
2.39521e-05
0.000146161
0.000220978
0.000104245
0.000208728
0.000146082
0.000221212
0.000104273
7.81353e-05
7.81335e-05
0.000187373
7.81421e-05
7.81413e-05
0.000100302
5.08756e-05
0.000100289
5.08829e-05
2.39575e-05
2.39605e-05
0.000100309
5.08724e-05
0.000100297
5.08795e-05
0.000223674
0.000223671
0.000223679
0.000224734
0.000224739
0.000224736
0.000224745
0.000146293
0.000104273
0.000222004
0.000209437
0.000146222
0.000104295
0.000222222
2.39552e-05
2.39583e-05
0.000146281
0.000222
0.000104274
0.000209428
0.000146211
0.000222217
0.000104297
7.81391e-05
7.81383e-05
0.000187796
7.81451e-05
7.8144e-05
0.000100298
5.08864e-05
0.000100289
5.08934e-05
2.39633e-05
2.39663e-05
0.000100306
5.0883e-05
0.000100297
5.08901e-05
0.00022511
0.000225107
0.000225114
0.000226082
0.000226088
0.000226083
0.000226094
0.000146386
0.000104289
0.000222944
0.00021007
0.000146325
0.000104308
0.000223146
2.39611e-05
2.3964e-05
0.000146374
0.000222939
0.00010429
0.00021006
0.000146314
0.00022314
0.000104308
7.81383e-05
7.81374e-05
0.000188168
7.81424e-05
7.81414e-05
0.000100286
5.08962e-05
0.00010028
5.09031e-05
2.39689e-05
2.39717e-05
0.000100293
5.08929e-05
0.000100287
5.08998e-05
0.000226446
0.000226442
0.000226449
0.000227327
0.000227332
0.000227327
0.000227338
0.000146454
0.000104294
0.000223799
0.000210639
0.000146402
0.000104307
0.00022399
2.39666e-05
2.39695e-05
0.000146442
0.000223793
0.000104296
0.000210629
0.000146391
0.000223984
0.000104308
7.81324e-05
7.81315e-05
0.000188503
7.81345e-05
7.81334e-05
0.000100265
5.09053e-05
0.000100262
5.09113e-05
2.3974e-05
2.39768e-05
0.000100272
5.0902e-05
0.00010027
5.09079e-05
0.000227683
0.000227679
0.000227686
0.000228478
0.000228483
0.000228478
0.000228489
0.000146496
0.000104288
0.000224571
0.000211143
0.000146457
0.000104296
0.000224758
2.39717e-05
2.39746e-05
0.000146484
0.000224565
0.00010429
0.000211133
0.000146445
0.000224752
0.000104297
7.81219e-05
7.8121e-05
0.000188781
7.81218e-05
7.81208e-05
0.000100235
5.09142e-05
0.000100236
5.09183e-05
2.39787e-05
2.39815e-05
0.000100243
5.09109e-05
0.000100244
5.0915e-05
0.000228818
0.000228814
0.000228821
0.000229539
0.000229544
0.000229538
0.000229549
0.000146514
0.00010427
0.000225265
0.00021158
0.000146484
0.000104274
0.000225449
2.39765e-05
2.39793e-05
0.000146502
0.000225259
0.000104272
0.00021157
0.000146472
0.000225443
0.000104275
7.81072e-05
7.81062e-05
0.000189002
7.81046e-05
7.81035e-05
0.000100196
5.09216e-05
0.000100201
5.09249e-05
2.39831e-05
2.3986e-05
0.000100206
5.09184e-05
0.000100208
5.09216e-05
0.000229846
0.000229844
0.00022985
0.000230512
0.000230518
0.000230507
0.000230522
0.000146508
0.000104243
0.000225881
0.000211952
0.000146486
0.000104243
0.000226063
2.39808e-05
2.39838e-05
0.000146495
0.000225874
0.000104244
0.000211941
0.000146472
0.000226056
0.000104243
7.80884e-05
7.80873e-05
0.000189153
7.80829e-05
7.80817e-05
0.00010015
5.09277e-05
0.000100157
5.09308e-05
2.3987e-05
2.39902e-05
0.000100159
5.09245e-05
0.000100164
5.09276e-05
0.000230778
0.000230777
0.000230782
0.000231396
0.000231405
0.00023139
0.000231408
0.000146483
0.000104207
0.000226422
0.000212265
0.000146463
0.000104201
0.000226593
2.39847e-05
2.3988e-05
0.000146472
0.000226418
0.000104208
0.000212249
0.000146445
0.000226584
0.000104202
7.80662e-05
7.80651e-05
0.000189273
7.8057e-05
7.80558e-05
0.000100097
5.09328e-05
0.000100103
5.09362e-05
2.39904e-05
2.39943e-05
0.000100104
5.09296e-05
0.000100111
5.0933e-05
0.000231618
0.000231621
0.000231622
0.000232191
0.000232204
0.000232184
0.000232207
0.00014643
0.000104164
0.000226906
0.000212521
0.000146415
0.000104151
0.000227056
2.39882e-05
2.39921e-05
0.00014642
0.000226906
0.000104166
0.000212501
0.000146397
0.000227041
0.000104152
7.80417e-05
7.80405e-05
0.000189361
7.80274e-05
7.80263e-05
0.000100033
5.0937e-05
0.00010004
5.09412e-05
2.39934e-05
2.39982e-05
0.00010004
5.09337e-05
0.000100048
5.09379e-05
0.000232373
0.00023238
0.000232376
0.000232907
0.000232915
0.000232897
0.000232918
0.000146354
0.000104119
0.000227321
0.000212723
0.000146349
0.000104093
0.000227452
2.39911e-05
2.3996e-05
0.000146344
0.000227325
0.00010412
0.000212698
0.000146335
0.000227432
0.000104094
7.8016e-05
7.80149e-05
0.000189412
7.7995e-05
7.79937e-05
9.99545e-05
5.09402e-05
9.99647e-05
5.09464e-05
2.39958e-05
2.40021e-05
9.99615e-05
5.09372e-05
9.99729e-05
5.09433e-05
0.000233047
0.000233053
0.00023305
0.000233532
0.000233537
0.000233519
0.000233539
0.000146246
0.000104079
0.000227673
0.000212872
0.000146282
0.000104032
0.000227781
2.39935e-05
2.39999e-05
0.000146236
0.00022768
0.00010408
0.000212845
0.000146271
0.00022776
0.000104033
7.79927e-05
7.79916e-05
0.000189429
7.7963e-05
7.79618e-05
9.98483e-05
5.09424e-05
9.98674e-05
5.09529e-05
2.39978e-05
2.4006e-05
9.98554e-05
5.09396e-05
9.98757e-05
5.09501e-05
0.000233629
0.000233635
0.000233631
0.000234094
0.000234099
0.000234078
0.000234105
0.000146129
0.000104052
0.000227977
0.000212979
0.000146175
0.000103934
0.00022805
2.39956e-05
2.40038e-05
0.00014612
0.000227975
0.00010405
0.000212958
0.000146166
0.000228035
0.00010393
7.79797e-05
7.79789e-05
0.000189414
7.79263e-05
7.79254e-05
9.97603e-05
5.09464e-05
9.97246e-05
5.09869e-05
2.40015e-05
2.40209e-05
9.97659e-05
5.09432e-05
9.97319e-05
5.09844e-05
0.000234133
0.000234144
0.00023413
0.000233721
0.00023373
0.000233724
0.000233731
0.000146058
0.000103991
0.000228259
0.0002136
0.000146082
0.00010376
0.000228047
2.39992e-05
2.40188e-05
0.000146049
0.00022825
0.000103987
0.000213596
0.000146072
0.000228038
0.000103756
7.79231e-05
7.79222e-05
0.000189689
7.7711e-05
7.77115e-05
0.000108458
5.50866e-05
0.000100114
8.49717e-05
2.70397e-05
4.59439e-05
0.000108458
5.50833e-05
0.000100115
8.50808e-05
0.000251113
0.000243694
0.000243696
0.000235608
0.000250958
0.00024452
0.000244523
0.000149976
0.000105652
0.000232589
0.00021391
0.000147067
0.000108545
0.000231068
2.70376e-05
4.59601e-05
0.000149967
0.000232582
0.000105729
0.000214182
0.000147043
0.000230979
0.000108573
7.7182e-05
7.71753e-05
0.000196812
8.57733e-05
8.56053e-05
2.38934e-05
2.3892e-05
0.000182004
7.79018e-05
7.7897e-05
2.38978e-05
2.38936e-05
2.38965e-05
2.38923e-05
0.000181983
7.79292e-05
7.79243e-05
7.79061e-05
7.79026e-05
9.98334e-05
5.07425e-05
0.000144105
0.000200458
0.00010359
0.000210002
0.000144108
0.000200458
0.000103589
0.000210005
9.98301e-05
5.0754e-05
5.07435e-05
9.98836e-05
9.98336e-05
5.07523e-05
5.07462e-05
9.98868e-05
0.00014413
0.000200792
0.000103661
0.000210875
0.000103588
0.000210445
0.000144296
0.000144133
0.000200792
0.000103659
0.000210877
0.000103585
0.000210447
0.000144299
0.000181943
7.78987e-05
7.7894e-05
2.38932e-05
2.38972e-05
2.3893e-05
0.000182076
7.79261e-05
7.79213e-05
7.79017e-05
7.78996e-05
2.38977e-05
2.38936e-05
0.00014411
0.000200473
0.000103584
0.000210003
9.98386e-05
5.07349e-05
0.000144106
0.000200446
0.00021
0.00010357
9.98365e-05
5.0751e-05
5.07405e-05
9.98962e-05
0.000144135
0.000200808
0.000103654
0.000210875
0.000103579
0.000210449
0.000144301
9.98323e-05
5.07447e-05
5.07388e-05
9.98915e-05
0.00014413
0.000200781
0.000210873
0.00010364
0.000210443
0.000103567
0.000144297
9.98375e-05
5.07418e-05
0.000144108
0.000200463
0.000210012
0.000103588
9.98317e-05
5.07381e-05
0.000144123
0.000200823
0.000103661
0.000210888
0.000103586
0.000210457
0.000144313
9.98304e-05
5.07515e-05
5.07456e-05
9.98907e-05
0.000144132
0.000200798
0.000210884
0.000103659
0.000210453
0.000103586
0.0001443
9.98311e-05
5.0748e-05
5.0742e-05
9.9885e-05
0.000181932
7.78825e-05
7.79002e-05
2.38925e-05
2.3895e-05
2.38909e-05
0.000182064
7.79097e-05
7.79276e-05
7.78882e-05
7.79066e-05
2.38969e-05
2.38928e-05
0.00014411
0.000200478
0.000210014
0.000103588
9.98303e-05
5.07383e-05
9.98361e-05
5.07406e-05
0.000144132
0.000200816
0.000210887
0.000103662
0.000210456
0.000103589
0.000144298
0.000144135
0.000200813
0.000210886
0.000103658
0.000210456
0.000103585
0.000144301
9.98278e-05
5.0748e-05
5.0742e-05
9.98818e-05
9.98352e-05
5.07503e-05
5.07399e-05
9.98877e-05
2.38922e-05
2.38918e-05
0.000181978
7.79253e-05
7.79259e-05
7.79033e-05
7.79024e-05
2.38966e-05
2.38924e-05
2.38962e-05
2.3892e-05
2.38981e-05
2.39022e-05
2.38968e-05
2.39009e-05
7.79331e-05
7.79297e-05
0.000182846
7.79553e-05
7.795e-05
2.39066e-05
2.39024e-05
2.39052e-05
2.39011e-05
0.000182873
7.79795e-05
7.79741e-05
7.79584e-05
7.79551e-05
9.99367e-05
5.07558e-05
9.98859e-05
5.07617e-05
0.000144479
0.000103657
0.000211306
0.000201758
0.000144317
0.000103727
0.000211724
0.000144482
0.000103655
0.000211308
0.000201758
0.000144321
0.000103725
0.000211726
9.99316e-05
5.07728e-05
5.07627e-05
9.99798e-05
9.99351e-05
5.07711e-05
5.07654e-05
9.99829e-05
0.000144498
0.000202074
0.00010379
0.00021255
0.000103723
0.000212144
0.000144651
0.000144502
0.000202074
0.000103788
0.000212552
0.000103722
0.000212146
0.000144654
7.7929e-05
7.79264e-05
0.000182839
7.79518e-05
7.7947e-05
2.3898e-05
2.39021e-05
2.39059e-05
2.39018e-05
0.000182904
7.79744e-05
7.79711e-05
7.79544e-05
7.79517e-05
2.39064e-05
2.39024e-05
0.000144484
0.000103649
0.00021131
0.000201774
0.000144323
0.00010372
0.000211724
9.9941e-05
5.07483e-05
9.98848e-05
5.07542e-05
0.00014448
0.000211304
0.000103636
0.000201746
0.000144318
0.000211722
0.000103707
9.9938e-05
5.07698e-05
5.07597e-05
9.9992e-05
0.000144503
0.000202091
0.000103783
0.00021255
0.000103715
0.000212149
0.000144655
9.99341e-05
5.07635e-05
5.07579e-05
9.99873e-05
0.000144499
0.000202063
0.000212548
0.000103769
0.000212143
0.000103702
0.000144652
9.99402e-05
5.07551e-05
9.98834e-05
5.07609e-05
0.000144483
0.000211315
0.000103655
0.000201764
0.000144321
0.000211733
0.000103726
9.99348e-05
5.07515e-05
9.98836e-05
5.07574e-05
0.000144494
0.000202105
0.00010379
0.000212562
0.000103722
0.000212156
0.000144668
9.99328e-05
5.07703e-05
5.07647e-05
9.99865e-05
0.000144501
0.00020208
0.000212559
0.000103788
0.000212153
0.000103721
0.000144655
9.99328e-05
5.07668e-05
5.07611e-05
9.9981e-05
7.7915e-05
7.79334e-05
0.000182827
7.79354e-05
7.79535e-05
2.38972e-05
2.39013e-05
2.39037e-05
2.38997e-05
0.000182892
7.79595e-05
7.79776e-05
7.79403e-05
7.79587e-05
2.39056e-05
2.39016e-05
0.000144484
0.000211317
0.000103654
0.000201779
0.000144322
0.000211736
0.000103725
9.99301e-05
5.07516e-05
9.98788e-05
5.07574e-05
9.99361e-05
5.07497e-05
9.98861e-05
5.07599e-05
0.0001445
0.000202098
0.000212561
0.000103791
0.000212155
0.000103725
0.000144651
0.000144503
0.000202096
0.000212561
0.000103787
0.000212156
0.00010372
0.000144654
9.99268e-05
5.07668e-05
5.07612e-05
9.99751e-05
9.9934e-05
5.07692e-05
5.07591e-05
9.99811e-05
2.38969e-05
2.3901e-05
2.38964e-05
2.39006e-05
0.000182852
7.79757e-05
7.79743e-05
7.79568e-05
7.79545e-05
2.39053e-05
2.39013e-05
2.39049e-05
2.39008e-05
2.39067e-05
2.39108e-05
2.39054e-05
2.39094e-05
7.79819e-05
7.79785e-05
0.000183658
7.80021e-05
7.79965e-05
2.39149e-05
2.39109e-05
2.39136e-05
2.39096e-05
0.00018368
7.80228e-05
7.80172e-05
7.80036e-05
7.80004e-05
0.000100026
5.07746e-05
9.99815e-05
5.07801e-05
0.000144812
0.000103785
0.000212959
0.00020298
0.000144671
0.000103849
0.000213352
0.000144815
0.000103783
0.000212961
0.000202979
0.000144674
0.000103846
0.000213355
0.00010002
5.07907e-05
5.0781e-05
0.000100063
0.000100024
5.07889e-05
5.07837e-05
0.000100066
0.000144832
0.000203278
0.000103904
0.000214132
0.000103844
0.000213751
0.000144967
0.000144835
0.000203277
0.000103902
0.000214134
0.000103842
0.000213753
0.00014497
7.79788e-05
7.79752e-05
0.000183661
7.7997e-05
7.79932e-05
2.39067e-05
2.39106e-05
2.39142e-05
2.39103e-05
0.000183694
7.80177e-05
7.80139e-05
7.80008e-05
7.7997e-05
2.39148e-05
2.39109e-05
0.000144816
0.000103777
0.000212964
0.000202996
0.000144675
0.000103841
0.000213353
0.00010003
5.0767e-05
9.99801e-05
5.07725e-05
0.000144812
0.000212958
0.000103764
0.000202968
0.000144671
0.00021335
0.000103828
0.000100027
5.07877e-05
5.07779e-05
0.000100074
0.000144836
0.000203295
0.000103896
0.000214132
0.000103836
0.000213755
0.000144971
0.000100023
5.07814e-05
5.07761e-05
0.00010007
0.000144832
0.000203266
0.00021413
0.000103883
0.000213749
0.000103822
0.000144967
0.000100029
5.07739e-05
9.99787e-05
5.07793e-05
0.000144818
0.000212968
0.000103783
0.000202986
0.000144675
0.000213361
0.000103847
0.000100024
5.07703e-05
9.9979e-05
5.07757e-05
0.000144822
0.000203309
0.000103903
0.000214143
0.000103842
0.000213762
0.000144992
0.000100021
5.07881e-05
5.07829e-05
0.000100069
0.000144837
0.000203284
0.000214141
0.000103901
0.00021376
0.000103841
0.000144971
0.000100022
5.07846e-05
5.07793e-05
0.000100064
7.79637e-05
7.7982e-05
0.000183649
7.79816e-05
7.79999e-05
2.39059e-05
2.39099e-05
2.39121e-05
2.39082e-05
0.000183682
7.80022e-05
7.80205e-05
7.79854e-05
7.80038e-05
2.3914e-05
2.39101e-05
0.000144815
0.000212971
0.000103782
0.000203002
0.000144674
0.000213364
0.000103846
0.000100017
5.07703e-05
9.99719e-05
5.07758e-05
0.000100023
5.07684e-05
9.99791e-05
5.07783e-05
0.000144831
0.000203302
0.000214142
0.000103904
0.000213761
0.000103845
0.000144967
0.000144834
0.0002033
0.000214143
0.000103901
0.000213762
0.000103841
0.000144969
0.000100013
5.07846e-05
5.07794e-05
0.000100056
0.000100021
5.0787e-05
5.07774e-05
0.000100062
2.39056e-05
2.39095e-05
2.39051e-05
2.39091e-05
0.000183671
7.80188e-05
7.80178e-05
7.80021e-05
7.8001e-05
2.39137e-05
2.39098e-05
2.39133e-05
2.39094e-05
2.39151e-05
2.3919e-05
2.39138e-05
2.39177e-05
7.80237e-05
7.80204e-05
0.000184407
7.80418e-05
7.80362e-05
2.3923e-05
2.39191e-05
2.39217e-05
2.39178e-05
0.000184426
7.80592e-05
7.80536e-05
7.8042e-05
7.80389e-05
0.000100102
5.07924e-05
0.000100064
5.07975e-05
0.000145114
0.000103898
0.00021452
0.000204124
0.000144989
0.000103955
0.000214888
0.000145118
0.000103896
0.000214521
0.000204123
0.000144992
0.000103953
0.00021489
0.000100096
5.08076e-05
5.07983e-05
0.000100133
0.000100099
5.08059e-05
5.0801e-05
0.000100136
0.000145134
0.000204405
0.000104002
0.000215621
0.000103949
0.000215265
0.000145255
0.000145137
0.000204404
0.000104
0.000215623
0.000103947
0.000215267
0.000145258
7.80208e-05
7.80171e-05
0.000184422
7.80367e-05
7.80326e-05
2.3915e-05
2.39189e-05
2.39223e-05
2.39185e-05
0.000184427
7.80542e-05
7.805e-05
7.80393e-05
7.80355e-05
2.39228e-05
2.39191e-05
0.000145118
0.00010389
0.000214524
0.00020414
0.000144992
0.000103947
0.000214888
0.000100106
5.07848e-05
0.000100062
5.07899e-05
0.000145114
0.000214518
0.000103876
0.000204111
0.000144988
0.000214885
0.000103934
0.000100102
5.08045e-05
5.07952e-05
0.000100144
0.000145137
0.000204422
0.000103995
0.000215621
0.00010394
0.000215269
0.000145259
0.000100098
5.07982e-05
5.07934e-05
0.000100139
0.000145133
0.000204393
0.000215619
0.000103981
0.000215263
0.000103927
0.000145254
0.000100105
5.07916e-05
0.000100061
5.07966e-05
0.000145119
0.000214529
0.000103896
0.000204129
0.000144993
0.000214897
0.000103952
0.0001001
5.0788e-05
0.000100061
5.07931e-05
0.000145133
0.000204435
0.000104001
0.000215632
0.000103946
0.000215276
0.000145272
0.000100097
5.0805e-05
5.08002e-05
0.000100138
0.000145138
0.000204411
0.00021563
0.000104
0.000215274
0.000103946
0.000145259
0.000100097
5.08015e-05
5.07966e-05
0.000100133
7.80055e-05
7.80237e-05
0.000184411
7.8021e-05
7.80394e-05
2.39143e-05
2.39181e-05
2.39201e-05
2.39163e-05
0.000184415
7.80384e-05
7.80567e-05
7.80239e-05
7.80421e-05
2.39221e-05
2.39183e-05
0.000145116
0.00021453
0.000103895
0.000204146
0.00014499
0.000214898
0.000103952
0.000100092
5.0788e-05
0.000100052
5.07931e-05
0.000100096
5.07861e-05
0.000100057
5.07956e-05
0.000145134
0.000204428
0.00021563
0.000104002
0.000215275
0.00010395
0.000145256
0.000145134
0.000204427
0.000215631
0.000103999
0.000215276
0.000103946
0.000145256
0.000100087
5.08014e-05
5.07966e-05
0.000100124
0.000100091
5.08039e-05
5.07946e-05
0.000100127
2.39139e-05
2.39177e-05
2.39135e-05
2.39174e-05
0.000184415
7.80552e-05
7.80542e-05
7.80405e-05
7.80396e-05
2.39217e-05
2.3918e-05
2.39214e-05
2.39175e-05
2.39231e-05
2.39269e-05
2.39218e-05
2.39256e-05
7.80588e-05
7.80556e-05
0.000185087
7.8075e-05
7.80693e-05
2.39307e-05
2.3927e-05
2.39294e-05
2.39257e-05
0.000185116
7.80892e-05
7.80835e-05
7.80739e-05
7.80708e-05
0.000100166
5.08092e-05
0.000100133
5.08139e-05
0.000145386
0.000103996
0.000215988
0.000205189
0.000145273
0.000104046
0.000216331
0.000145389
0.000103993
0.00021599
0.000205188
0.000145276
0.000104044
0.000216332
0.000100159
5.08235e-05
5.08146e-05
0.00010019
0.000100162
5.08217e-05
5.08173e-05
0.000100193
0.000145402
0.000205455
0.000104087
0.000217018
0.000104039
0.000216689
0.000145511
0.000145405
0.000205454
0.000104084
0.00021702
0.000104037
0.00021669
0.000145513
7.80561e-05
7.80523e-05
0.000185142
7.80699e-05
7.80655e-05
2.3923e-05
2.39267e-05
2.393e-05
2.39264e-05
0.000185078
7.80841e-05
7.80798e-05
7.80713e-05
7.80674e-05
2.39306e-05
2.39269e-05
0.000145389
0.000103987
0.000215992
0.000205205
0.000145277
0.000104038
0.000216331
0.000100169
5.08016e-05
0.000100131
5.08062e-05
0.000145385
0.000215986
0.000103974
0.000205177
0.000145273
0.000216328
0.000104025
0.000100164
5.08204e-05
5.08115e-05
0.0001002
0.000145405
0.000205472
0.000104079
0.000217018
0.000104031
0.000216692
0.000145513
0.000100161
5.08141e-05
5.08097e-05
0.000100196
0.000145401
0.000205443
0.000217015
0.000104065
0.000216686
0.000104017
0.000145509
0.000100168
5.08084e-05
0.000100129
5.0813e-05
0.00014539
0.000215997
0.000103993
0.000205195
0.000145278
0.000216339
0.000104043
0.000100164
5.08048e-05
0.00010013
5.08095e-05
0.000145409
0.000205486
0.000104085
0.000217029
0.000104036
0.000216699
0.00014552
0.000100159
5.08208e-05
5.08165e-05
0.000100195
0.000145406
0.000205461
0.000217027
0.000104084
0.000216697
0.000104036
0.000145515
0.000100159
5.08173e-05
5.08129e-05
0.000100191
7.80407e-05
7.80587e-05
0.00018513
7.8054e-05
7.80724e-05
2.39223e-05
2.3926e-05
2.39278e-05
2.39242e-05
0.000185067
7.80684e-05
7.80866e-05
7.80559e-05
7.80739e-05
2.39298e-05
2.39262e-05
0.000145386
0.000215999
0.000103993
0.000205212
0.000145273
0.000216341
0.000104043
0.000100154
5.08048e-05
0.00010012
5.08094e-05
0.000100157
5.08029e-05
0.000100123
5.0812e-05
0.000145403
0.000205478
0.000217027
0.000104086
0.000216698
0.00010404
0.000145512
0.000145401
0.000205478
0.000217028
0.000104083
0.000216699
0.000104036
0.00014551
0.000100149
5.08173e-05
5.08129e-05
0.000100181
0.000100151
5.08198e-05
5.08109e-05
0.000100183
2.3922e-05
2.39256e-05
2.39215e-05
2.39253e-05
0.000185068
7.80851e-05
7.80854e-05
7.80724e-05
7.80714e-05
2.39295e-05
2.39259e-05
2.39291e-05
2.39254e-05
2.39308e-05
2.39345e-05
2.39295e-05
2.39331e-05
7.80876e-05
7.80844e-05
0.000185731
7.81018e-05
7.8096e-05
2.39381e-05
2.39345e-05
2.39368e-05
2.39332e-05
0.00018574
7.8113e-05
7.81071e-05
7.80995e-05
7.80964e-05
0.000100217
5.0825e-05
0.000100189
5.08293e-05
0.000145624
0.000104079
0.000217367
0.000206177
0.000145524
0.000104124
0.000217682
0.000145627
0.000104077
0.000217368
0.000206176
0.000145527
0.000104121
0.000217684
0.000100209
5.08384e-05
5.08299e-05
0.000100235
0.000100212
5.08366e-05
5.08326e-05
0.000100238
0.000145635
0.00020643
0.000104157
0.000218324
0.000104115
0.000218022
0.000145732
0.000145638
0.000206429
0.000104154
0.000218325
0.000104113
0.000218024
0.000145735
7.80849e-05
7.80812e-05
0.000185782
7.80966e-05