/*--------------------------------*- C++ -*----------------------------------*\
| =========                 |                                                 |
| \\      /  F ield         | OpenFOAM: The Open Source CFD Toolbox           |
|  \\    /   O peration     | Version:  v1906                                 |
|   \\  /    A nd           | Web:      www.OpenFOAM.com                      |
|    \\/     M anipulation  |                                                 |
\*---------------------------------------------------------------------------*/
FoamFile
{
    version     2.0;
    format      ascii;
    class       volScalarField;
    location    "1000";
    object      epsilon;
}
// * * * * * * * * * * * * * * * * * * * * * * * * * * * * * * * * * * * * * //

dimensions      [0 2 -3 0 0 0 0];


internalField   nonuniform List<scalar> 
43248
(
1.33741e-07
2.30848e-07
2.30889e-07
3.58256e-07
1.31595e-07
2.41526e-07
2.41553e-07
3.84403e-07
1.30252e-07
2.54257e-07
2.54298e-07
4.13392e-07
1.29694e-07
2.69066e-07
2.69082e-07
4.44814e-07
1.29961e-07
2.85961e-07
2.85957e-07
4.78981e-07
1.30918e-07
3.04483e-07
3.04679e-07
5.1423e-07
1.3266e-07
3.25237e-07
3.25315e-07
5.5104e-07
1.35299e-07
3.47392e-07
3.47516e-07
5.88386e-07
1.38501e-07
3.70697e-07
3.70438e-07
6.26013e-07
1.42373e-07
3.953e-07
3.95286e-07
6.62759e-07
1.47295e-07
4.21773e-07
4.22005e-07
7.00012e-07
1.53273e-07
4.48425e-07
4.49534e-07
7.38366e-07
1.59203e-07
4.7678e-07
4.78096e-07
7.75755e-07
1.66024e-07
5.08597e-07
5.0405e-07
8.07879e-07
1.75051e-07
5.36809e-07
5.32014e-07
8.46729e-07
1.83128e-07
5.62093e-07
5.78869e-07
8.73876e-07
1.92967e-07
5.83007e-07
6.22372e-07
8.83077e-07
2.08076e-07
6.44047e-07
6.19826e-07
9.31204e-07
2.18723e-07
7.08271e-07
5.85742e-07
1.05217e-06
2.17404e-07
6.59898e-07
5.97025e-07
9.73332e-07
2.12821e-07
6.22931e-07
8.45777e-07
9.2668e-07
2.64047e-07
7.53084e-07
8.89366e-07
1.08037e-06
3.23903e-07
8.52695e-07
6.96347e-07
1.08768e-06
3.15442e-07
7.57745e-07
6.93736e-07
1.04124e-06
2.39912e-07
8.14657e-07
8.09083e-07
1.13569e-06
2.53264e-07
9.43102e-07
8.2003e-07
1.2507e-06
3.86801e-07
8.81425e-07
8.93531e-07
1.18258e-06
3.52785e-07
2.2859e-07
2.28625e-07
3.52752e-07
2.28561e-07
2.28662e-07
2.28515e-07
2.28592e-07
3.52857e-07
2.28556e-07
2.28558e-07
3.52819e-07
3.58222e-07
3.78248e-07
2.30924e-07
2.30962e-07
2.38726e-07
2.38781e-07
3.58203e-07
3.78243e-07
2.30896e-07
2.30997e-07
2.38702e-07
2.38806e-07
2.30924e-07
2.38659e-07
2.38732e-07
3.58301e-07
3.78308e-07
2.3089e-07
2.38689e-07
2.38697e-07
3.78286e-07
3.84367e-07
4.06666e-07
2.4159e-07
2.4165e-07
2.50972e-07
2.51029e-07
3.84357e-07
4.06618e-07
2.41566e-07
2.41667e-07
2.50938e-07
2.51031e-07
2.41603e-07
2.5089e-07
2.50971e-07
3.84407e-07
4.06618e-07
2.41567e-07
2.50919e-07
2.50935e-07
4.06716e-07
4.13367e-07
4.37559e-07
2.54353e-07
2.54403e-07
2.65255e-07
2.6532e-07
4.13295e-07
4.37519e-07
2.54323e-07
2.54416e-07
2.65218e-07
2.65365e-07
2.54339e-07
2.6516e-07
2.65214e-07
4.13311e-07
4.37638e-07
2.54299e-07
2.65206e-07
2.65183e-07
4.37546e-07
4.44819e-07
4.71199e-07
2.69156e-07
2.69227e-07
2.81698e-07
2.81727e-07
4.44808e-07
4.71054e-07
2.69118e-07
2.69254e-07
2.81662e-07
2.81678e-07
2.69123e-07
2.8157e-07
2.81701e-07
4.44896e-07
4.7094e-07
2.69096e-07
2.81524e-07
2.81663e-07
4.71174e-07
4.79034e-07
5.06183e-07
2.86133e-07
2.86123e-07
2.99945e-07
2.99866e-07
4.7881e-07
5.05763e-07
2.86105e-07
2.86106e-07
2.999e-07
3.00022e-07
2.86132e-07
2.99652e-07
2.99941e-07
4.78716e-07
5.06242e-07
2.86082e-07
2.99858e-07
2.99885e-07
5.06186e-07
5.14156e-07
5.41849e-07
3.0469e-07
3.04706e-07
3.19711e-07
3.20093e-07
5.13853e-07
5.4261e-07
3.04648e-07
3.04852e-07
3.19696e-07
3.20121e-07
3.0474e-07
3.19861e-07
3.19992e-07
5.14351e-07
5.42689e-07
3.04688e-07
3.19957e-07
3.19937e-07
5.42531e-07
5.50355e-07
5.80249e-07
3.25045e-07
3.25461e-07
3.41912e-07
3.41915e-07
5.51194e-07
5.79948e-07
3.25023e-07
3.25461e-07
3.41855e-07
3.42043e-07
3.25309e-07
3.41759e-07
3.41732e-07
5.51216e-07
5.80238e-07
3.25256e-07
3.41876e-07
3.41719e-07
5.79792e-07
5.89076e-07
6.17626e-07
3.47687e-07
3.47527e-07
3.65198e-07
3.6496e-07
5.88515e-07
6.16825e-07
3.47639e-07
3.47682e-07
3.65048e-07
3.64799e-07
3.47393e-07
3.64776e-07
3.64928e-07
5.88817e-07
6.16587e-07
3.4738e-07
3.64613e-07
3.64826e-07
6.17245e-07
6.261e-07
6.53323e-07
3.71056e-07
3.70894e-07
3.88954e-07
3.89199e-07
6.25483e-07
6.53767e-07
3.70878e-07
3.70633e-07
3.88888e-07
3.89165e-07
3.70942e-07
3.88909e-07
3.89323e-07
6.25064e-07
6.5358e-07
3.70846e-07
3.88857e-07
3.89249e-07
6.54166e-07
6.62083e-07
6.91403e-07
3.95271e-07
3.95585e-07
4.15067e-07
4.152e-07
6.62659e-07
6.91368e-07
3.9522e-07
3.95614e-07
4.14925e-07
4.15388e-07
3.95534e-07
4.15042e-07
4.14781e-07
6.62566e-07
6.91923e-07
3.95431e-07
4.152e-07
4.14707e-07
6.90914e-07
7.00663e-07
7.30578e-07
4.21903e-07
4.2188e-07
4.43262e-07
4.42098e-07
7.00218e-07
7.27572e-07
4.21807e-07
4.2216e-07
4.43181e-07
4.4297e-07
4.21556e-07
4.41877e-07
4.42793e-07
7.00972e-07
7.29331e-07
4.21522e-07
4.42737e-07
4.42709e-07
7.29317e-07
7.39506e-07
7.64631e-07
4.5045e-07
4.48756e-07
4.70349e-07
4.69677e-07
7.36132e-07
7.63151e-07
4.50295e-07
4.49771e-07
4.70457e-07
4.70882e-07
4.49847e-07
4.69158e-07
4.71288e-07
7.38174e-07
7.65779e-07
4.49698e-07
4.70719e-07
4.71318e-07
7.67038e-07
7.72634e-07
7.97187e-07
4.76841e-07
4.77158e-07
4.97362e-07
5.00483e-07
7.7245e-07
8.03038e-07
4.77147e-07
4.78155e-07
4.97563e-07
4.97581e-07
4.78714e-07
5.007e-07
4.9952e-07
7.74122e-07
7.96242e-07
4.78822e-07
4.97767e-07
4.99484e-07
7.99718e-07
8.06308e-07
8.35004e-07
5.04933e-07
5.08367e-07
5.29978e-07
5.30852e-07
8.12117e-07
8.35895e-07
5.04869e-07
5.03947e-07
5.29086e-07
5.24941e-07
5.06034e-07
5.30511e-07
5.29475e-07
8.03824e-07
8.27918e-07
5.05912e-07
5.24429e-07
5.28841e-07
8.3698e-07
8.43303e-07
8.64861e-07
5.37691e-07
5.37433e-07
5.57799e-07
5.56228e-07
8.4311e-07
8.62394e-07
5.36609e-07
5.32715e-07
5.57156e-07
5.65158e-07
5.38398e-07
5.55154e-07
5.60392e-07
8.37351e-07
8.83037e-07
5.37691e-07
5.64602e-07
5.6022e-07
8.6847e-07
8.72231e-07
8.99485e-07
5.64492e-07
5.62996e-07
5.86667e-07
5.78795e-07
8.69492e-07
8.7985e-07
5.64152e-07
5.79194e-07
5.87762e-07
6.15665e-07
5.66263e-07
5.79393e-07
5.80497e-07
8.98867e-07
9.44757e-07
5.66221e-07
6.15835e-07
5.80505e-07
8.79547e-07
9.10712e-07
9.51433e-07
5.95307e-07
5.8205e-07
6.27611e-07
6.18884e-07
8.83915e-07
9.43184e-07
5.97141e-07
6.2223e-07
6.29958e-07
6.25772e-07
5.83364e-07
6.19104e-07
5.98665e-07
9.51152e-07
9.31691e-07
5.83404e-07
6.25198e-07
6.00213e-07
9.09594e-07
9.61053e-07
9.7691e-07
6.38983e-07
6.45435e-07
6.63949e-07
7.05373e-07
9.72846e-07
1.05158e-06
6.40533e-07
6.21743e-07
6.62251e-07
5.92974e-07
6.19057e-07
7.0246e-07
6.92319e-07
9.28949e-07
8.37654e-07
6.2146e-07
5.92388e-07
6.92191e-07
1.04098e-06
9.79846e-07
9.47047e-07
6.67902e-07
7.10615e-07
6.65748e-07
6.78737e-07
1.05397e-06
9.52123e-07
6.65345e-07
5.85292e-07
6.61132e-07
5.82152e-07
7.06637e-07
6.80887e-07
7.02812e-07
8.32832e-07
8.23324e-07
7.05232e-07
5.83966e-07
6.97217e-07
9.82144e-07
9.43465e-07
9.11559e-07
6.57251e-07
6.58073e-07
6.44155e-07
6.23629e-07
9.43129e-07
8.69499e-07
6.52266e-07
5.95312e-07
6.40518e-07
7.89527e-07
6.81987e-07
6.23966e-07
6.5093e-07
8.5472e-07
1.17961e-06
6.76053e-07
7.88879e-07
6.48156e-07
9.16626e-07
9.2342e-07
1.0739e-06
6.45901e-07
6.22802e-07
7.33624e-07
7.00757e-07
8.729e-07
1.03377e-06
6.43862e-07
8.4654e-07
7.49048e-07
9.02918e-07
6.51263e-07
6.99888e-07
7.21163e-07
1.22662e-06
1.2339e-06
6.49989e-07
9.03026e-07
7.35513e-07
1.05403e-06
1.11008e-06
1.21249e-06
7.74928e-07
7.53133e-07
8.67112e-07
8.48257e-07
1.08071e-06
1.18644e-06
7.91114e-07
8.88548e-07
8.70709e-07
7.30518e-07
7.50056e-07
8.49931e-07
7.94746e-07
1.2108e-06
9.35945e-07
7.64141e-07
7.31454e-07
7.98439e-07
1.09166e-06
1.22214e-06
1.14317e-06
8.78778e-07
8.50961e-07
8.68392e-07
7.80301e-07
1.18003e-06
1.01037e-06
8.76878e-07
6.96397e-07
8.55488e-07
6.76196e-07
7.95239e-07
7.76936e-07
7.76294e-07
9.16678e-07
9.21138e-07
7.94794e-07
6.71845e-07
7.67118e-07
1.03846e-06
1.11667e-06
8.94462e-07
8.26572e-07
7.62788e-07
6.9413e-07
7.71166e-07
1.00195e-06
1.07824e-06
8.12761e-07
7.03394e-07
6.97264e-07
7.99188e-07
7.73977e-07
7.66798e-07
7.95401e-07
9.64742e-07
1.10667e-06
7.65896e-07
7.93638e-07
8.05474e-07
1.10911e-06
8.88818e-07
1.02792e-06
6.76209e-07
8.14279e-07
7.17903e-07
9.162e-07
1.12449e-06
1.26932e-06
6.80752e-07
8.10929e-07
7.18552e-07
8.11666e-07
8.23427e-07
9.28053e-07
9.03945e-07
1.1124e-06
1.08316e-06
8.34128e-07
8.19553e-07
9.0686e-07
1.23865e-06
1.08482e-06
1.29928e-06
7.9627e-07
9.30543e-07
9.68572e-07
9.16763e-07
1.27623e-06
1.16685e-06
7.92569e-07
8.11284e-07
9.57959e-07
8.59765e-07
9.21061e-07
9.21328e-07
9.28292e-07
1.085e-06
1.14911e-06
9.19345e-07
8.63017e-07
9.20091e-07
1.20005e-06
1.30826e-06
9.91138e-07
8.81026e-07
1.1432e-06
9.80613e-07
8.93492e-07
9.11079e-07
1.17721e-06
8.99659e-07
1.34403e-07
1.34403e-07
1.34413e-07
1.34407e-07
3.68216e-06
8.908e-06
3.64892e-06
8.91303e-06
1.84664e-05
1.8458e-05
3.68291e-06
8.90967e-06
3.64876e-06
8.91473e-06
1.33737e-07
1.33749e-07
1.3374e-07
1.32061e-07
1.3206e-07
1.3207e-07
1.32063e-07
1.15861e-06
2.79627e-06
1.5861e-07
2.33317e-07
1.1307e-06
2.81985e-06
1.58828e-07
1.84683e-05
1.84597e-05
1.15862e-06
1.58607e-07
2.79628e-06
2.33357e-07
1.13074e-06
1.58833e-07
2.82013e-06
5.13138e-06
5.13327e-06
3.65146e-07
5.14383e-06
5.14588e-06
3.75831e-06
8.91937e-06
3.73243e-06
8.92365e-06
1.84375e-05
1.84295e-05
3.75901e-06
8.92117e-06
3.7322e-06
8.92546e-06
1.31598e-07
1.31605e-07
1.316e-07
1.30521e-07
1.30522e-07
1.30529e-07
1.30523e-07
1.24241e-06
2.86636e-06
1.59981e-07
2.44524e-07
1.21524e-06
2.88715e-06
1.60529e-07
1.84394e-05
1.84315e-05
1.24246e-06
1.59978e-07
2.86636e-06
2.44543e-07
1.21524e-06
1.60537e-07
2.88752e-06
5.1663e-06
5.1682e-06
3.92187e-07
5.17627e-06
5.17817e-06
3.81801e-06
8.92917e-06
3.79802e-06
8.93332e-06
1.84111e-05
1.84042e-05
3.81859e-06
8.9309e-06
3.79761e-06
8.93479e-06
1.30242e-07
1.30261e-07
1.30243e-07
1.29763e-07
1.29764e-07
1.29777e-07
1.29755e-07
1.32315e-06
2.92824e-06
1.62685e-07
2.57754e-07
1.29713e-06
2.94652e-06
1.6357e-07
1.84128e-05
1.84058e-05
1.32315e-06
1.62688e-07
2.92832e-06
2.57804e-07
1.29723e-06
1.63584e-07
2.94683e-06
5.19456e-06
5.19659e-06
4.21802e-07
5.20288e-06
5.2048e-06
3.86354e-06
8.93772e-06
3.84851e-06
8.94186e-06
1.8387e-05
1.83806e-05
3.86397e-06
8.93972e-06
3.84829e-06
8.94327e-06
1.29694e-07
1.29696e-07
1.29693e-07
1.29819e-07
1.29808e-07
1.29804e-07
1.29824e-07
1.39904e-06
2.98268e-06
1.66744e-07
2.73106e-07
1.3748e-06
2.99878e-06
1.67974e-07
1.83886e-05
1.83824e-05
1.39901e-06
1.66723e-07
2.98279e-06
2.73087e-07
1.37477e-06
1.67967e-07
2.99905e-06
5.21843e-06
5.22044e-06
4.54034e-07
5.22543e-06
5.22744e-06
3.89827e-06
8.94515e-06
3.88647e-06
8.94917e-06
1.83649e-05
1.83598e-05
3.89827e-06
8.94747e-06
3.88659e-06
8.9504e-06
1.29941e-07
1.29944e-07
1.29963e-07
1.30623e-07
1.30585e-07
1.30633e-07
1.30622e-07
1.46987e-06
3.03091e-06
1.722e-07
2.90429e-07
1.44732e-06
3.04506e-06
1.73776e-07
1.83666e-05
1.83611e-05
1.46979e-06
1.72191e-07
3.03065e-06
2.90489e-07
1.44734e-06
1.7379e-07
3.04512e-06
5.23856e-06
5.24042e-06
4.88624e-07
5.2445e-06
5.24649e-06
3.92412e-06
8.95199e-06
3.91618e-06
8.95502e-06
1.83462e-05
1.83411e-05
3.92478e-06
8.95438e-06
3.91635e-06
8.95682e-06
1.30903e-07
1.30946e-07
1.30934e-07
1.32135e-07
1.32194e-07
1.3222e-07
1.32198e-07
1.53402e-06
3.07309e-06
1.78985e-07
3.0947e-07
1.51387e-06
3.0853e-06
1.80899e-07
1.8348e-05
1.83435e-05
1.53417e-06
1.79009e-07
3.07342e-06
3.09627e-07
1.51388e-06
1.80947e-07
3.08571e-06
5.25583e-06
5.25774e-06
5.24066e-07
5.26064e-06
5.26263e-06
3.94456e-06
8.95817e-06
3.93818e-06
8.9612e-06
1.83282e-05
1.8325e-05
3.94512e-06
8.96028e-06
3.93825e-06
8.96381e-06
1.3273e-07
1.32747e-07
1.32716e-07
1.34573e-07
1.34557e-07
1.34594e-07
1.34535e-07
1.59276e-06
3.11097e-06
1.87217e-07
3.30686e-07
1.57402e-06
3.12225e-06
1.8951e-07
1.83302e-05
1.83263e-05
1.59278e-06
1.87256e-07
3.11087e-06
3.30773e-07
1.5742e-06
1.89562e-07
3.12248e-06
5.27028e-06
5.27218e-06
5.61211e-07
5.27468e-06
5.27653e-06
3.96036e-06
8.96514e-06
3.95575e-06
8.96727e-06
1.8313e-05
1.83093e-05
3.96096e-06
8.96652e-06
3.95598e-06
8.96902e-06
1.35246e-07
1.35284e-07
1.35236e-07
1.37657e-07
1.37602e-07
1.37543e-07
1.37596e-07
1.64519e-06
3.14466e-06
1.96875e-07
3.53104e-07
1.6289e-06
3.15447e-06
1.99479e-07
1.83145e-05
1.8311e-05
1.64511e-06
1.96867e-07
3.1449e-06
3.53214e-07
1.62897e-06
1.99468e-07
3.15491e-06
5.28408e-06
5.2861e-06
5.98446e-07
5.28736e-06
5.28948e-06
3.97245e-06
8.96923e-06
3.9691e-06
8.97229e-06
1.8299e-05
1.82966e-05
3.97328e-06
8.97128e-06
3.96891e-06
8.97402e-06
1.38454e-07
1.38388e-07
1.38479e-07
1.41297e-07
1.41325e-07
1.41326e-07
1.41399e-07
1.69152e-06
3.17459e-06
2.07688e-07
3.76653e-07
1.67727e-06
3.18316e-06
2.10542e-07
1.83008e-05
1.82982e-05
1.69125e-06
2.07586e-07
3.17433e-06
3.76412e-07
1.67699e-06
2.10488e-07
3.18275e-06
5.29572e-06
5.29728e-06
6.35922e-07
5.29854e-06
5.30012e-06
3.98198e-06
8.97527e-06
3.97965e-06
8.97706e-06
1.8288e-05
1.82856e-05
3.98269e-06
8.97651e-06
3.97949e-06
8.97985e-06
1.42424e-07
1.42417e-07
1.42439e-07
1.45954e-07
1.45978e-07
1.46046e-07
1.45895e-07
1.73348e-06
3.20059e-06
2.19708e-07
4.01812e-07
1.71991e-06
3.20874e-06
2.2298e-07
1.82892e-05
1.82884e-05
1.73355e-06
2.19676e-07
3.20094e-06
4.01833e-07
1.72008e-06
2.23009e-07
3.20905e-06
5.30496e-06
5.30727e-06
6.72211e-07
5.3083e-06
5.31003e-06
3.99141e-06
8.98146e-06
3.98871e-06
8.98388e-06
1.82795e-05
1.82783e-05
3.99053e-06
8.98269e-06
3.9884e-06
8.98526e-06
1.47278e-07
1.47371e-07
1.47214e-07
1.51709e-07
1.51383e-07
1.51632e-07
1.51587e-07
1.77178e-06
3.22645e-06
2.33407e-07
4.28545e-07
1.7596e-06
3.23327e-06
2.37056e-07
1.82817e-05
1.82823e-05
1.77171e-06
2.33429e-07
3.2259e-06
4.28905e-07
1.75951e-06
2.37067e-07
3.23359e-06
5.3139e-06
5.31627e-06
7.10242e-07
5.31716e-06
5.31924e-06
3.9988e-06
8.98804e-06
3.9967e-06
8.99118e-06
1.82735e-05
1.82761e-05
3.99898e-06
8.99056e-06
3.99678e-06
8.99355e-06
1.52742e-07
1.53092e-07
1.53104e-07
1.57677e-07
1.57432e-07
1.57806e-07
1.57981e-07
1.80453e-06
3.2485e-06
2.48036e-07
4.55048e-07
1.79378e-06
3.25447e-06
2.51733e-07
1.82774e-05
1.82754e-05
1.80489e-06
2.4826e-07
3.24861e-06
4.56346e-07
1.79384e-06
2.52087e-07
3.25534e-06
5.32658e-06
5.32772e-06
7.4828e-07
5.3285e-06
5.33042e-06
4.00294e-06
8.99367e-06
4.00194e-06
8.99499e-06
1.82711e-05
1.82698e-05
4.00529e-06
8.99654e-06
4.00296e-06
8.99889e-06
1.59263e-07
1.59596e-07
1.5977e-07
1.64192e-07
1.65106e-07
1.64259e-07
1.64902e-07
1.83722e-06
3.26784e-06
2.63871e-07
4.84689e-07
1.82525e-06
3.2756e-06
2.68322e-07
1.82699e-05
1.82717e-05
1.83797e-06
2.64261e-07
3.27111e-06
4.85105e-07
1.8263e-06
2.68648e-07
3.27771e-06
5.33323e-06
5.33617e-06
7.8397e-07
5.33728e-06
5.3398e-06
4.01203e-06
9.00048e-06
4.00825e-06
9.00734e-06
1.82729e-05
1.82794e-05
4.01062e-06
9.00215e-06
4.00918e-06
9.00609e-06
1.67158e-07
1.65906e-07
1.66492e-07
1.72828e-07
1.73377e-07
1.71315e-07
1.72555e-07
1.86547e-06
3.29213e-06
2.82197e-07
5.16299e-07
1.85713e-06
3.2983e-06
2.86789e-07
1.82672e-05
1.82682e-05
1.8638e-06
2.81372e-07
3.28704e-06
5.10617e-07
1.85599e-06
2.85478e-07
3.29065e-06
5.34413e-06
5.34625e-06
8.16647e-07
5.34555e-06
5.34701e-06
4.01804e-06
9.01366e-06
4.01703e-06
9.0184e-06
1.82761e-05
1.82628e-05
4.01773e-06
9.01273e-06
4.01598e-06
9.01786e-06
1.75132e-07
1.73344e-07
1.75106e-07
1.81014e-07
1.80265e-07
1.83144e-07
1.81766e-07
1.88988e-06
3.30904e-06
3.00108e-07
5.4273e-07
1.88079e-06
3.31171e-06
3.04302e-07
1.82851e-05
1.82952e-05
1.89012e-06
2.98326e-07
3.30302e-06
5.40878e-07
1.87991e-06
3.0329e-07
3.30885e-06
5.35374e-06
5.35504e-06
8.55645e-07
5.35943e-06
5.3615e-06
4.02874e-06
9.02224e-06
4.02429e-06
9.02381e-06
1.82341e-05
1.82504e-05
4.02416e-06
9.02546e-06
4.02034e-06
9.0301e-06
1.82403e-07
1.87764e-07
1.83664e-07
1.90054e-07
1.87338e-07
2.00153e-07
1.8838e-07
1.91896e-06
3.32325e-06
3.17401e-07
5.68955e-07
1.90675e-06
3.33187e-06
3.22215e-07
1.83032e-05
1.83135e-05
1.91949e-06
3.21061e-07
3.33186e-06
5.93151e-07
1.90821e-06
3.27567e-07
3.3496e-06
5.36687e-06
5.36735e-06
8.75616e-07
5.36392e-06
5.36405e-06
4.01268e-06
9.02394e-06
4.02287e-06
9.02453e-06
1.8297e-05
1.83059e-05
4.02656e-06
9.03297e-06
4.02762e-06
9.03526e-06
1.88309e-07
2.02464e-07
1.89244e-07
2.04091e-07
1.9965e-07
2.03845e-07
1.93296e-07
1.93635e-06
3.33263e-06
3.37044e-07
5.87897e-07
1.93634e-06
3.32526e-06
3.41387e-07
1.83057e-05
1.82838e-05
1.94108e-06
3.46359e-07
3.36892e-06
6.25572e-07
1.93726e-06
3.50999e-07
3.36678e-06
5.34765e-06
5.35369e-06
8.84687e-07
5.34127e-06
5.35367e-06
4.04563e-06
9.04031e-06
4.02025e-06
9.06072e-06
1.82815e-05
1.83064e-05
4.04519e-06
9.04545e-06
4.03327e-06
9.0537e-06
2.09619e-07
2.02697e-07
1.99096e-07
2.17166e-07
2.33268e-07
1.93168e-07
2.27488e-07
1.95202e-06
3.34654e-06
3.59038e-07
6.68361e-07
1.93243e-06
3.38901e-06
3.6903e-07
1.81678e-05
1.81301e-05
1.95297e-06
3.57914e-07
3.35187e-06
6.10034e-07
1.94157e-06
3.60523e-07
3.34772e-06
5.35326e-06
5.3709e-06
9.79223e-07
5.40105e-06
5.40852e-06
4.06712e-06
9.07036e-06
4.07434e-06
9.05935e-06
1.83608e-05
1.83256e-05
4.05088e-06
9.05507e-06
4.05919e-06
9.04956e-06
2.36174e-07
1.90437e-07
2.33619e-07
2.19277e-07
2.31766e-07
1.88295e-07
2.36581e-07
2.01901e-06
3.44596e-06
4.00531e-07
7.08319e-07
2.00597e-06
3.43039e-06
4.06497e-07
1.81694e-05
1.82119e-05
1.99621e-06
3.70977e-07
3.33664e-06
5.82074e-07
1.9891e-06
3.73414e-07
3.30835e-06
5.47635e-06
5.47119e-06
1.04434e-06
5.48053e-06
5.47473e-06
4.01123e-06
9.00918e-06
4.03323e-06
8.97757e-06
1.81173e-05
1.80875e-05
3.99269e-06
9.00369e-06
4.00826e-06
8.98485e-06
2.23575e-07
1.91116e-07
2.31811e-07
2.12553e-07
2.06414e-07
2.71435e-07
2.18875e-07
1.96623e-06
3.36078e-06
4.07462e-07
6.42968e-07
1.99034e-06
3.32352e-06
4.01789e-07
1.82255e-05
1.83032e-05
1.94707e-06
3.79142e-07
3.27262e-06
6.42964e-07
1.96266e-06
3.85192e-07
3.3037e-06
5.39694e-06
5.37421e-06
9.27474e-07
5.32438e-06
5.30154e-06
3.99157e-06
8.98171e-06
3.98371e-06
9.04051e-06
1.81781e-05
1.82473e-05
4.06962e-06
9.00965e-06
4.02166e-06
9.08161e-06
2.04689e-07
3.03092e-07
2.18183e-07
2.4373e-07
2.20366e-07
3.48124e-07
2.36527e-07
1.96026e-06
3.2953e-06
3.92671e-07
6.26878e-07
1.95087e-06
3.30357e-06
3.93006e-07
1.85466e-05
1.86522e-05
2.03554e-06
4.51016e-07
3.48443e-06
8.85065e-07
1.98754e-06
4.75215e-07
3.56745e-06
5.28126e-06
5.29309e-06
9.66371e-07
5.33125e-06
5.37561e-06
4.12756e-06
9.17829e-06
4.07642e-06
9.21992e-06
1.83774e-05
1.84531e-05
4.11786e-06
9.20438e-06
4.12564e-06
9.21901e-06
2.46491e-07
3.47888e-07
2.50765e-07
3.15246e-07
3.03389e-07
2.88764e-07
2.77547e-07
2.08514e-06
3.41999e-06
4.36776e-07
7.98217e-07
2.02799e-06
3.50833e-06
4.63794e-07
1.87103e-05
1.85353e-05
2.09827e-06
5.15623e-07
3.58836e-06
8.39249e-07
2.09317e-06
5.17118e-07
3.52328e-06
5.45999e-06
5.49966e-06
1.10332e-06
5.5067e-06
5.51891e-06
4.13033e-06
9.2169e-06
4.14619e-06
9.19107e-06
1.85399e-05
1.84872e-05
4.05639e-06
9.174e-06
4.06461e-06
9.13931e-06
3.10285e-07
2.6639e-07
2.8029e-07
3.26324e-07
2.95611e-07
2.33415e-07
2.78716e-07
2.09936e-06
3.54588e-06
5.19156e-07
8.43178e-07
2.12457e-06
3.48517e-06
5.23307e-07
1.8108e-05
1.80064e-05
2.02648e-06
4.8727e-07
3.38188e-06
6.75661e-07
2.05488e-06
4.73806e-07
3.33845e-06
5.50359e-06
5.45855e-06
1.05482e-06
5.44035e-06
5.38059e-06
4.02857e-06
9.08175e-06
4.07881e-06
8.9954e-06
1.82236e-05
1.8171e-05
4.08673e-06
9.08317e-06
4.08756e-06
9.02958e-06
2.84944e-07
2.33245e-07
2.78108e-07
2.52036e-07
2.78085e-07
2.65214e-07
2.82756e-07
2.01185e-06
3.35786e-06
5.03127e-07
7.50352e-07
2.03181e-06
3.33809e-06
4.95142e-07
1.81106e-05
1.82572e-05
2.05262e-06
4.60432e-07
3.36617e-06
7.36369e-07
2.02842e-06
4.63608e-07
3.4123e-06
5.32365e-06
5.32683e-06
1.05416e-06
5.31932e-06
5.36236e-06
3.99856e-06
8.89801e-06
3.97865e-06
8.94762e-06
1.82765e-05
1.84333e-05
4.00073e-06
8.91934e-06
4.01905e-06
8.93138e-06
2.85282e-07
2.76991e-07
2.93645e-07
2.36725e-07
3.44052e-07
2.98884e-07
3.36665e-07
2.07253e-06
3.41657e-06
4.94425e-07
8.63395e-07
2.03619e-06
3.49416e-06
5.09399e-07
1.83423e-05
1.83411e-05
2.07285e-06
5.05266e-07
3.434e-06
8.17044e-07
2.07549e-06
5.16716e-07
3.41935e-06
5.42022e-06
5.46926e-06
1.18286e-06
5.49052e-06
5.51855e-06
4.15378e-06
9.14303e-06
4.09859e-06
9.26481e-06
1.85861e-05
1.86053e-05
4.11519e-06
9.09758e-06
4.0559e-06
9.22328e-06
3.56053e-07
3.02259e-07
3.4718e-07
3.61878e-07
3.6445e-07
3.23448e-07
3.57219e-07
2.15428e-06
3.57461e-06
5.7664e-07
9.46766e-07
2.13019e-06
3.59018e-06
5.91352e-07
1.83956e-05
1.85108e-05
2.11245e-06
5.39977e-07
3.43038e-06
8.23209e-07
2.08483e-06
5.47939e-07
3.46068e-06
5.59371e-06
5.57705e-06
1.25189e-06
5.62399e-06
5.60142e-06
9.33835e-06
4.17982e-06
1.84543e-05
9.3247e-06
4.16334e-06
3.57754e-07
3.37978e-07
3.5516e-07
3.54044e-06
6.03312e-07
2.16696e-06
1.86161e-05
5.87659e-07
3.52182e-06
2.15206e-06
5.5813e-06
5.55835e-06
1.84719e-05
1.84737e-05
5.1248e-06
5.12701e-06
8.90709e-06
3.63725e-06
8.908e-06
3.63727e-06
2.78328e-06
1.58494e-07
1.11603e-06
2.78367e-06
1.585e-07
1.11604e-06
1.84728e-05
5.12685e-06
5.12476e-06
1.84715e-05
8.9088e-06
3.63773e-06
2.78376e-06
1.58497e-07
1.11613e-06
8.90845e-06
3.63769e-06
1.58506e-07
2.78386e-06
1.11611e-06
2.78305e-06
1.58488e-07
1.11603e-06
8.90831e-06
3.63726e-06
1.58491e-07
2.78331e-06
1.11602e-06
8.90767e-06
3.6372e-06
1.84748e-05
5.12683e-06
5.12515e-06
1.84725e-05
1.58492e-07
2.78321e-06
1.11606e-06
1.58493e-07
2.78381e-06
1.1161e-06
8.90776e-06
3.63755e-06
8.9089e-06
3.63769e-06
5.12511e-06
5.12717e-06
1.84727e-05
1.84742e-05
1.84654e-05
1.8457e-05
1.84674e-05
1.84591e-05
5.13145e-06
5.13323e-06
3.6511e-07
5.14356e-06
5.14568e-06
1.84427e-05
1.84508e-05
1.84447e-05
1.84527e-05
3.70894e-07
5.16069e-06
5.16279e-06
5.14981e-06
5.15145e-06
3.68233e-06
8.90886e-06
3.64887e-06
8.91389e-06
1.15856e-06
2.79639e-06
1.58615e-07
2.33391e-07
1.13067e-06
2.81985e-06
1.58828e-07
1.15858e-06
2.79673e-06
1.58621e-07
2.33434e-07
1.13068e-06
2.82042e-06
1.58837e-07
3.69288e-06
8.91852e-06
8.91379e-06
3.72289e-06
3.69298e-06
8.91965e-06
8.91467e-06
3.72299e-06
1.17315e-06
2.35992e-07
2.85464e-06
1.59515e-07
2.83237e-06
1.59135e-07
1.20076e-06
1.17318e-06
2.36043e-07
2.85527e-06
1.59526e-07
2.8328e-06
1.59145e-07
1.20079e-06
5.13305e-06
5.13151e-06
3.65101e-07
5.14566e-06
5.14361e-06
1.84651e-05
1.84567e-05
1.84435e-05
1.84517e-05
3.70892e-07
5.16247e-06
5.16053e-06
5.15137e-06
5.14969e-06
1.84421e-05
1.84503e-05
1.15869e-06
2.79688e-06
1.58613e-07
2.33364e-07
1.1308e-06
2.82052e-06
1.5884e-07
3.68275e-06
8.9093e-06
3.64873e-06
8.91439e-06
1.15867e-06
1.58627e-07
2.79705e-06
2.3347e-07
1.13076e-06
1.58844e-07
2.82053e-06
3.69281e-06
8.92043e-06
8.91551e-06
3.72334e-06
1.17329e-06
2.35968e-07
2.85516e-06
1.59523e-07
2.83288e-06
1.59132e-07
1.20091e-06
3.69267e-06
8.9199e-06
8.91519e-06
3.72328e-06
1.17326e-06
2.36075e-07
1.59526e-07
2.85526e-06
1.59147e-07
2.833e-06
1.20088e-06
3.68252e-06
8.90919e-06
3.64901e-06
8.91395e-06
1.1586e-06
1.58613e-07
2.79639e-06
2.33392e-07
1.13069e-06
1.58829e-07
2.82002e-06
3.68241e-06
8.90855e-06
3.64898e-06
8.91381e-06
1.17321e-06
2.35923e-07
2.85457e-06
1.59512e-07
2.83227e-06
1.59134e-07
1.20083e-06
3.69305e-06
8.91967e-06
8.91477e-06
3.72285e-06
1.17318e-06
2.35995e-07
1.59512e-07
2.85479e-06
1.59135e-07
2.83244e-06
1.20081e-06
3.69302e-06
8.91936e-06
8.91461e-06
3.72285e-06
5.13352e-06
5.13138e-06
3.65198e-07
5.14546e-06
5.14387e-06
1.84661e-05
1.84577e-05
1.84455e-05
1.84534e-05
3.7097e-07
5.1627e-06
5.16078e-06
5.15162e-06
5.14967e-06
1.84432e-05
1.84515e-05
1.15868e-06
1.58615e-07
2.79695e-06
2.33358e-07
1.13078e-06
1.5883e-07
2.82054e-06
3.68286e-06
8.90865e-06
3.64848e-06
8.91381e-06
3.68303e-06
8.90976e-06
3.64864e-06
8.91496e-06
1.1732e-06
2.35961e-07
1.59519e-07
2.85471e-06
1.59126e-07
2.83252e-06
1.20081e-06
1.17328e-06
2.35958e-07
1.59517e-07
2.85534e-06
1.59135e-07
2.83292e-06
1.20088e-06
3.69265e-06
8.91941e-06
8.91458e-06
3.72327e-06
3.69279e-06
8.92058e-06
8.91576e-06
3.72342e-06
1.84662e-05
1.84578e-05
1.84678e-05
1.84594e-05
3.70926e-07
5.16087e-06
5.16289e-06
5.1497e-06
5.1516e-06
1.84434e-05
1.84516e-05
1.8445e-05
1.84531e-05
1.84364e-05
1.84285e-05
1.84386e-05
1.84308e-05
5.16615e-06
5.16814e-06
3.92128e-07
5.1758e-06
5.17805e-06
1.84154e-05
1.84226e-05
1.84174e-05
1.84248e-05
3.98541e-07
5.18996e-06
5.19189e-06
5.18102e-06
5.18284e-06
3.7584e-06
8.92042e-06
3.73242e-06
8.92448e-06
1.24232e-06
2.86643e-06
1.59981e-07
2.44589e-07
1.21516e-06
2.8872e-06
1.60528e-07
1.24234e-06
2.86687e-06
1.59992e-07
2.4465e-07
1.2152e-06
2.88771e-06
1.60539e-07
3.76687e-06
8.92831e-06
8.92418e-06
3.79016e-06
3.76696e-06
8.92959e-06
8.92508e-06
3.79041e-06
1.2565e-06
2.47715e-07
2.91782e-06
1.61879e-07
2.89819e-06
1.61164e-07
1.28316e-06
1.25652e-06
2.47776e-07
2.91855e-06
1.61897e-07
2.89874e-06
1.61176e-07
1.28325e-06
5.16783e-06
5.16614e-06
3.92119e-07
5.17784e-06
5.17595e-06
1.8436e-05
1.84282e-05
1.84165e-05
1.84236e-05
3.98535e-07
5.19167e-06
5.1898e-06
5.18267e-06
5.18097e-06
1.84151e-05
1.84223e-05
1.24243e-06
2.86692e-06
1.59979e-07
2.44562e-07
1.21531e-06
2.88794e-06
1.60537e-07
3.75892e-06
8.92074e-06
3.73218e-06
8.92526e-06
1.24241e-06
1.59994e-07
2.86707e-06
2.44654e-07
1.21527e-06
1.60538e-07
2.88797e-06
3.76684e-06
8.93027e-06
8.92607e-06
3.79048e-06
1.2566e-06
2.47686e-07
2.91837e-06
1.61884e-07
2.89879e-06
1.61156e-07
1.28323e-06
3.76674e-06
8.92935e-06
8.92578e-06
3.79042e-06
1.25657e-06
2.47771e-07
1.61888e-07
2.91839e-06
1.61169e-07
2.89898e-06
1.28322e-06
3.75871e-06
8.92043e-06
3.73241e-06
8.92479e-06
1.24238e-06
1.5998e-07
2.86643e-06
2.44605e-07
1.21522e-06
1.60528e-07
2.88743e-06
3.75856e-06
8.9201e-06
3.73243e-06
8.92459e-06
1.25658e-06
2.47644e-07
2.91791e-06
1.6188e-07
2.89827e-06
1.61164e-07
1.28324e-06
3.76725e-06
8.92959e-06
8.92551e-06
3.79027e-06
1.25652e-06
2.47727e-07
1.61871e-07
2.91805e-06
1.61159e-07
2.89842e-06
1.28317e-06
3.76716e-06
8.92925e-06
8.92525e-06
3.79019e-06
5.16825e-06
5.16611e-06
3.92133e-07
5.17778e-06
5.17608e-06
1.84371e-05
1.84294e-05
1.84185e-05
1.84256e-05
3.98516e-07
5.19196e-06
5.19025e-06
5.18286e-06
5.18102e-06
1.84165e-05
1.84237e-05
1.24248e-06
1.59985e-07
2.86699e-06
2.44569e-07
1.21531e-06
1.60532e-07
2.88789e-06
3.75904e-06
8.92016e-06
3.73195e-06
8.92443e-06
3.75915e-06
8.92132e-06
3.73209e-06
8.92565e-06
1.25667e-06
2.47663e-07
1.61895e-07
2.91801e-06
1.61161e-07
2.89845e-06
1.28336e-06
1.25666e-06
2.4769e-07
1.61879e-07
2.91859e-06
1.61165e-07
2.89888e-06
1.2833e-06
3.7669e-06
8.92965e-06
8.92509e-06
3.79093e-06
3.76694e-06
8.93051e-06
8.9263e-06
3.79084e-06
1.84373e-05
1.84294e-05
1.84389e-05
1.84309e-05
3.98604e-07
5.19009e-06
5.19211e-06
5.18115e-06
5.18302e-06
1.84161e-05
1.84235e-05
1.84177e-05
1.8425e-05
1.84098e-05
1.84029e-05
1.84119e-05
1.84053e-05
5.19456e-06
5.19642e-06
4.21813e-07
5.20249e-06
5.20471e-06
1.83914e-05
1.83975e-05
1.83934e-05
1.83999e-05
4.28778e-07
5.21443e-06
5.21626e-06
5.20687e-06
5.20871e-06
3.81812e-06
8.93029e-06
3.79816e-06
8.93415e-06
1.32308e-06
2.92837e-06
1.62687e-07
2.57857e-07
1.29704e-06
2.94658e-06
1.63579e-07
1.32318e-06
2.92876e-06
1.62708e-07
2.57907e-07
1.29717e-06
2.94712e-06
1.63599e-07
3.82484e-06
8.93696e-06
8.9337e-06
3.84214e-06
3.82491e-06
8.93839e-06
8.93466e-06
3.84227e-06
1.33661e-06
2.61492e-07
2.9735e-06
1.65619e-07
2.95629e-06
1.64559e-07
1.36185e-06
1.33669e-06
2.61546e-07
2.97408e-06
1.65633e-07
2.95683e-06
1.64576e-07
1.36188e-06
5.19623e-06
5.19456e-06
4.21726e-07
5.20459e-06
5.20278e-06
1.84096e-05
1.84028e-05
1.83922e-05
1.83987e-05
4.28702e-07
5.21636e-06
5.21451e-06
5.20869e-06
5.2071e-06
1.83907e-05
1.83973e-05
1.32317e-06
2.92878e-06
1.62679e-07
2.57823e-07
1.29711e-06
2.94722e-06
1.63582e-07
3.81864e-06
8.93016e-06
3.79761e-06
8.93498e-06
1.32321e-06
1.62702e-07
2.92886e-06
2.57936e-07
1.29711e-06
1.63596e-07
2.94727e-06
3.82484e-06
8.93919e-06
8.93536e-06
3.84273e-06
1.33673e-06
2.61456e-07
2.97409e-06
1.65629e-07
2.95687e-06
1.6455e-07
1.36197e-06
3.82485e-06
8.93864e-06
8.93555e-06
3.84257e-06
1.33677e-06
2.61593e-07
1.6564e-07
2.97418e-06
1.64577e-07
2.95705e-06
1.36199e-06
3.81817e-06
8.93017e-06
3.79799e-06
8.93417e-06
1.32304e-06
1.62674e-07
2.92838e-06
2.57833e-07
1.29705e-06
1.63557e-07
2.94669e-06
3.81796e-06
8.92985e-06
3.79794e-06
8.93373e-06
1.33666e-06
2.61388e-07
2.97355e-06
1.65602e-07
2.95636e-06
1.64545e-07
1.36178e-06
3.8251e-06
8.9387e-06
8.93488e-06
3.84234e-06
1.33653e-06
2.61454e-07
1.65583e-07
2.97362e-06
1.64529e-07
2.95635e-06
1.36168e-06
3.82491e-06
8.93792e-06
8.93428e-06
3.84215e-06
5.19667e-06
5.19478e-06
4.21801e-07
5.20464e-06
5.20305e-06
1.84108e-05
1.84037e-05
1.83938e-05
1.84003e-05
4.28792e-07
5.21646e-06
5.21473e-06
5.20897e-06
5.20721e-06
1.83917e-05
1.83983e-05
1.32309e-06
1.62677e-07
2.92896e-06
2.57791e-07
1.29717e-06
1.63559e-07
2.94721e-06
3.81837e-06
8.93034e-06
3.79777e-06
8.93413e-06
3.81846e-06
8.9311e-06
3.79766e-06
8.93477e-06
1.33663e-06
2.61452e-07
1.65606e-07
2.97374e-06
1.64544e-07
2.95651e-06
1.36173e-06
1.33659e-06
2.61417e-07
1.65592e-07
2.97412e-06
1.64534e-07
2.95686e-06
1.36175e-06
3.82448e-06
8.93831e-06
8.93461e-06
3.84261e-06
3.82458e-06
8.93912e-06
8.93532e-06
3.84271e-06
1.84105e-05
1.84039e-05
1.84122e-05
1.84054e-05
4.2875e-07
5.2146e-06
5.2166e-06
5.20708e-06
5.20893e-06
1.83921e-05
1.83986e-05
1.83937e-05
1.84001e-05
1.83863e-05
1.83801e-05
1.83883e-05
1.83824e-05
5.21856e-06
5.22023e-06
4.54025e-07
5.2254e-06
5.22759e-06
1.83684e-05
1.83748e-05
1.83707e-05
1.83773e-05
4.61619e-07
5.23524e-06
5.2372e-06
5.22918e-06
5.23115e-06
3.86351e-06
8.93896e-06
3.84852e-06
8.94244e-06
1.3992e-06
2.98283e-06
1.66766e-07
2.73206e-07
1.37497e-06
2.99891e-06
1.68e-07
1.39913e-06
2.98315e-06
1.66775e-07
2.73268e-07
1.37496e-06
2.99946e-06
1.68002e-07
3.86902e-06
8.94456e-06
8.94218e-06
3.8813e-06
3.86897e-06
8.94579e-06
8.94283e-06
3.88148e-06
1.41169e-06
2.77385e-07
3.02255e-06
1.70712e-07
3.00748e-06
1.69311e-07
1.43487e-06
1.41163e-06
2.77436e-07
3.02319e-06
1.70711e-07
3.00804e-06