/*--------------------------------*- C++ -*----------------------------------*\
| =========                 |                                                 |
| \\      /  F ield         | OpenFOAM: The Open Source CFD Toolbox           |
|  \\    /   O peration     | Version:  v1906                                 |
|   \\  /    A nd           | Web:      www.OpenFOAM.com                      |
|    \\/     M anipulation  |                                                 |
\*---------------------------------------------------------------------------*/
FoamFile
{
    version     2.0;
    format      ascii;
    class       volScalarField;
    location    "1000";
    object      k;
}
// * * * * * * * * * * * * * * * * * * * * * * * * * * * * * * * * * * * * * //

dimensions      [0 2 -2 0 0 0 0];


internalField   nonuniform List<scalar> 
43024
(
3.94032e-05
5.1728e-05
5.17279e-05
5.37805e-05
3.97e-05
5.19527e-05
5.19623e-05
5.39999e-05
4.01246e-05
5.21848e-05
5.2192e-05
5.41911e-05
4.044e-05
5.23866e-05
5.23664e-05
5.42975e-05
4.06158e-05
5.2375e-05
5.2375e-05
5.42579e-05
4.08041e-05
5.24003e-05
5.24219e-05
5.43927e-05
4.12336e-05
5.2809e-05
5.28043e-05
5.46978e-05
4.14511e-05
5.28183e-05
5.28155e-05
5.46399e-05
4.1461e-05
5.27124e-05
5.27059e-05
5.4531e-05
4.16185e-05
5.28268e-05
5.28287e-05
5.46778e-05
4.18784e-05
5.29208e-05
5.29431e-05
5.47655e-05
4.19891e-05
5.29432e-05
5.29287e-05
5.47474e-05
4.20313e-05
5.29194e-05
5.29029e-05
5.47104e-05
4.21656e-05
5.29448e-05
5.29629e-05
5.47975e-05
4.22346e-05
5.29196e-05
5.2932e-05
5.47161e-05
4.20828e-05
5.26369e-05
5.26245e-05
5.43644e-05
4.21383e-05
5.28626e-05
5.28603e-05
5.4762e-05
4.25036e-05
5.29945e-05
5.30017e-05
5.48483e-05
4.23917e-05
5.26804e-05
5.26808e-05
5.44368e-05
4.21338e-05
5.24574e-05
5.24576e-05
5.42936e-05
4.17426e-05
5.13849e-05
5.13773e-05
5.40299e-05
5.37833e-05
5.17354e-05
5.17206e-05
5.37675e-05
5.17349e-05
5.17177e-05
5.17181e-05
5.17112e-05
5.3767e-05
5.17175e-05
5.17101e-05
5.37608e-05
5.37993e-05
5.38942e-05
5.17425e-05
5.17302e-05
5.18546e-05
5.18727e-05
5.37853e-05
5.39121e-05
5.17421e-05
5.17282e-05
5.18539e-05
5.18737e-05
5.17225e-05
5.18765e-05
5.18836e-05
5.37862e-05
5.3916e-05
5.17217e-05
5.18779e-05
5.18836e-05
5.39263e-05
5.39691e-05
5.41596e-05
5.19409e-05
5.19477e-05
5.2153e-05
5.21212e-05
5.39803e-05
5.41258e-05
5.19409e-05
5.19563e-05
5.21567e-05
5.21409e-05
5.19666e-05
5.2123e-05
5.21484e-05
5.39896e-05
5.41434e-05
5.19668e-05
5.21446e-05
5.21519e-05
5.41507e-05
5.42016e-05
5.42712e-05
5.22079e-05
5.21846e-05
5.23336e-05
5.23583e-05
5.41749e-05
5.43029e-05
5.22113e-05
5.21904e-05
5.23312e-05
5.23341e-05
5.21983e-05
5.23588e-05
5.23346e-05
5.41834e-05
5.42729e-05
5.22017e-05
5.23352e-05
5.23327e-05
5.4272e-05
5.42932e-05
5.42403e-05
5.23552e-05
5.23853e-05
5.236e-05
5.23892e-05
5.43322e-05
5.42648e-05
5.2352e-05
5.23641e-05
5.23566e-05
5.23792e-05
5.2361e-05
5.23915e-05
5.23707e-05
5.43019e-05
5.42673e-05
5.23581e-05
5.23835e-05
5.23674e-05
5.4249e-05
5.42498e-05
5.43246e-05
5.23521e-05
5.23724e-05
5.23753e-05
5.2364e-05
5.42714e-05
5.427e-05
5.23496e-05
5.23702e-05
5.23788e-05
5.23727e-05
5.23616e-05
5.23662e-05
5.23735e-05
5.42756e-05
5.4293e-05
5.23589e-05
5.23761e-05
5.2375e-05
5.43109e-05
5.4409e-05
5.46539e-05
5.24581e-05
5.23991e-05
5.27568e-05
5.27505e-05
5.43396e-05
5.46632e-05
5.24686e-05
5.24211e-05
5.27566e-05
5.27502e-05
5.24395e-05
5.27516e-05
5.2761e-05
5.43646e-05
5.46536e-05
5.24485e-05
5.27522e-05
5.27619e-05
5.46619e-05
5.4688e-05
5.46271e-05
5.28003e-05
5.28072e-05
5.28192e-05
5.28341e-05
5.47037e-05
5.46422e-05
5.2799e-05
5.2801e-05
5.28178e-05
5.28265e-05
5.28086e-05
5.28367e-05
5.28305e-05
5.4692e-05
5.46403e-05
5.2808e-05
5.28311e-05
5.28292e-05
5.46377e-05
5.46304e-05
5.45256e-05
5.28019e-05
5.28153e-05
5.27143e-05
5.27181e-05
5.46438e-05
5.45258e-05
5.28014e-05
5.28103e-05
5.27144e-05
5.27117e-05
5.28125e-05
5.27197e-05
5.27132e-05
5.46426e-05
5.4519e-05
5.28117e-05
5.27148e-05
5.2713e-05
5.45194e-05
5.45379e-05
5.46281e-05
5.27072e-05
5.2711e-05
5.27611e-05
5.27656e-05
5.45387e-05
5.46329e-05
5.27071e-05
5.27033e-05
5.27584e-05
5.2759e-05
5.2705e-05
5.27659e-05
5.27575e-05
5.45301e-05
5.46333e-05
5.27044e-05
5.27597e-05
5.27558e-05
5.46295e-05
5.46733e-05
5.47418e-05
5.2823e-05
5.28263e-05
5.29253e-05
5.29082e-05
5.46753e-05
5.47262e-05
5.28215e-05
5.28268e-05
5.293e-05
5.29318e-05
5.28243e-05
5.29122e-05
5.29318e-05
5.46836e-05
5.47495e-05
5.28237e-05
5.29353e-05
5.29348e-05
5.47472e-05
5.47617e-05
5.47518e-05
5.29388e-05
5.29178e-05
5.29436e-05
5.29392e-05
5.47428e-05
5.47419e-05
5.29428e-05
5.29397e-05
5.29452e-05
5.29312e-05
5.29409e-05
5.29392e-05
5.29365e-05
5.47661e-05
5.47282e-05
5.29443e-05
5.29336e-05
5.2938e-05
5.4737e-05
5.47613e-05
5.46809e-05
5.29416e-05
5.29427e-05
5.28985e-05
5.2928e-05
5.47598e-05
5.47184e-05
5.29418e-05
5.29267e-05
5.28953e-05
5.29038e-05
5.29338e-05
5.29306e-05
5.29116e-05
5.47386e-05
5.46984e-05
5.29336e-05
5.2907e-05
5.29078e-05
5.47003e-05
5.46891e-05
5.47528e-05
5.28891e-05
5.29156e-05
5.29242e-05
5.29187e-05
5.47268e-05
5.47343e-05
5.28866e-05
5.28988e-05
5.29254e-05
5.29297e-05
5.29067e-05
5.29238e-05
5.29407e-05
5.47093e-05
5.47512e-05
5.29034e-05
5.29369e-05
5.2943e-05
5.47614e-05
5.48006e-05
5.47807e-05
5.29652e-05
5.29417e-05
5.2981e-05
5.29492e-05
5.4767e-05
5.4735e-05
5.29679e-05
5.29586e-05
5.29843e-05
5.29656e-05
5.29652e-05
5.29495e-05
5.29657e-05
5.47862e-05
5.47488e-05
5.29683e-05
5.29671e-05
5.29689e-05
5.47403e-05
5.47559e-05
5.4334e-05
5.29476e-05
5.29216e-05
5.26293e-05
5.26583e-05
5.47185e-05
5.43828e-05
5.29508e-05
5.29329e-05
5.26285e-05
5.26468e-05
5.29229e-05
5.26605e-05
5.26418e-05
5.47289e-05
5.4367e-05
5.29252e-05
5.26499e-05
5.26405e-05
5.43582e-05
5.43375e-05
5.46137e-05
5.25979e-05
5.26327e-05
5.26777e-05
5.27091e-05
5.43885e-05
5.46416e-05
5.25965e-05
5.26196e-05
5.2675e-05
5.26985e-05
5.26195e-05
5.27203e-05
5.27191e-05
5.43721e-05
5.46351e-05
5.26179e-05
5.27101e-05
5.27174e-05
5.46505e-05
5.47448e-05
5.4902e-05
5.28499e-05
5.2855e-05
5.30337e-05
5.29982e-05
5.47484e-05
5.48383e-05
5.28483e-05
5.28516e-05
5.30353e-05
5.30037e-05
5.28697e-05
5.29967e-05
5.30097e-05
5.4748e-05
5.48495e-05
5.28693e-05
5.30038e-05
5.3011e-05
5.48536e-05
5.48991e-05
5.44265e-05
5.30339e-05
5.29968e-05
5.27439e-05
5.27398e-05
5.4833e-05
5.44449e-05
5.30356e-05
5.30023e-05
5.27447e-05
5.27391e-05
5.30079e-05
5.27389e-05
5.27412e-05
5.48433e-05
5.44418e-05
5.30092e-05
5.27393e-05
5.27414e-05
5.44446e-05
5.44131e-05
5.42662e-05
5.26599e-05
5.26775e-05
5.24609e-05
5.2489e-05
5.44397e-05
5.42995e-05
5.26601e-05
5.26772e-05
5.24618e-05
5.24901e-05
5.26747e-05
5.24951e-05
5.2482e-05
5.44371e-05
5.43014e-05
5.26749e-05
5.24967e-05
5.24825e-05
5.42882e-05
5.42732e-05
5.41382e-05
5.24313e-05
5.24517e-05
5.22892e-05
5.2294e-05
5.4305e-05
5.41376e-05
5.24324e-05
5.24515e-05
5.22909e-05
5.22877e-05
5.24478e-05
5.23006e-05
5.23006e-05
5.43068e-05
5.41293e-05
5.24482e-05
5.22949e-05
5.23013e-05
5.41432e-05
5.40232e-05
5.13829e-05
5.13788e-05
5.40176e-05
5.13839e-05
5.13704e-05
4.17454e-05
4.1739e-05
4.17547e-05
5.13918e-05
5.40063e-05
5.13924e-05
6.86413e-05
7.34519e-05
7.12056e-05
6.86451e-05
7.3458e-05
3.93468e-05
3.93315e-05
3.93318e-05
3.9326e-05
6.07618e-05
5.16813e-05
6.48672e-05
4.69926e-05
7.12043e-05
6.07585e-05
5.16752e-05
4.69874e-05
6.48706e-05
5.37428e-05
6.99516e-05
6.99643e-05
6.86303e-05
7.34869e-05
6.86304e-05
7.35237e-05
7.12453e-05
7.1279e-05
6.8634e-05
7.34924e-05
6.86349e-05
7.35293e-05
3.93877e-05
3.93906e-05
3.93837e-05
3.95994e-05
3.9608e-05
3.96112e-05
3.96138e-05
6.07711e-05
6.48491e-05
4.71021e-05
5.17482e-05
6.0764e-05
6.48877e-05
4.71329e-05
7.12441e-05
7.12798e-05
6.07693e-05
4.71054e-05
6.48497e-05
5.17483e-05
6.07624e-05
4.71348e-05
6.48811e-05
6.99542e-05
6.99644e-05
5.37949e-05
7.00179e-05
7.00291e-05
6.87515e-05
7.35702e-05
6.87021e-05
7.35954e-05
7.13107e-05
7.13338e-05
6.87598e-05
7.35774e-05
6.87059e-05
7.36017e-05
3.97074e-05
3.97155e-05
3.97196e-05
4.00253e-05
4.00037e-05
4.00247e-05
4.00322e-05
6.09354e-05
6.49735e-05
4.73458e-05
5.20165e-05
6.08612e-05
6.49941e-05
4.74287e-05
7.13112e-05
7.13317e-05
6.09398e-05
4.73486e-05
6.49834e-05
5.20367e-05
6.08594e-05
4.7437e-05
6.50158e-05
7.00809e-05
7.00945e-05
5.40661e-05
7.00935e-05
7.01077e-05
6.87839e-05
7.36239e-05
6.87743e-05
7.36332e-05
7.13605e-05
7.13735e-05
6.87844e-05
7.36271e-05
6.87766e-05
7.3636e-05
4.01023e-05
4.01166e-05
4.01245e-05
4.03715e-05
4.03812e-05
4.03689e-05
4.03701e-05
6.10145e-05
6.50341e-05
4.76353e-05
5.22517e-05
6.09828e-05
6.50878e-05
4.76992e-05
7.13544e-05
7.13682e-05
6.10082e-05
4.76466e-05
6.50369e-05
5.22421e-05
6.0986e-05
4.77027e-05
6.50701e-05
7.01445e-05
7.01544e-05
5.42187e-05
7.01732e-05
7.01814e-05
6.8787e-05
7.36309e-05
6.87891e-05
7.36306e-05
7.1377e-05
7.13862e-05
6.87849e-05
7.36372e-05
6.87871e-05
7.36386e-05
4.04613e-05
4.04452e-05
4.04422e-05
4.05896e-05
4.0629e-05
4.0618e-05
4.06032e-05
6.10334e-05
6.51028e-05
4.78869e-05
5.23967e-05
6.10308e-05
6.50637e-05
4.79269e-05
7.13756e-05
7.13883e-05
6.10208e-05
4.78729e-05
6.50806e-05
5.23823e-05
6.10191e-05
4.79134e-05
6.5057e-05
7.01487e-05
7.01578e-05
5.42878e-05
7.00842e-05
7.00965e-05
6.87245e-05
7.36654e-05
6.87386e-05
7.37162e-05
7.14265e-05
7.1474e-05
6.87355e-05
7.36733e-05
6.87476e-05
7.37218e-05
4.06515e-05
4.06428e-05
4.06279e-05
4.07198e-05
4.0693e-05
4.07057e-05
4.07143e-05
6.09598e-05
6.49637e-05
4.79569e-05
5.23635e-05
6.09802e-05
6.49533e-05
4.79542e-05
7.14286e-05
7.14743e-05
6.09665e-05
4.79506e-05
6.49764e-05
5.23676e-05
6.09824e-05
4.79503e-05
6.49717e-05
7.00235e-05
7.00385e-05
5.42293e-05
7.00787e-05
7.00945e-05
6.8893e-05
7.37858e-05
6.8801e-05
7.38071e-05
7.15215e-05
7.15363e-05
6.88947e-05
7.37891e-05
6.88088e-05
7.38106e-05
4.0743e-05
4.078e-05
4.07966e-05
4.11329e-05
4.11153e-05
4.11255e-05
4.11359e-05
6.11506e-05
6.51008e-05
4.79781e-05
5.25164e-05
6.10062e-05
6.52126e-05
4.8059e-05
7.15178e-05
7.15325e-05
6.11503e-05
4.79941e-05
6.51083e-05
5.2545e-05
6.10161e-05
4.80927e-05
6.52083e-05
7.02475e-05
7.02586e-05
5.45278e-05
7.03133e-05
7.03218e-05
6.89291e-05
7.38012e-05
6.89284e-05
7.37894e-05
7.15335e-05
7.1534e-05
6.89287e-05
7.38071e-05
6.89258e-05
7.37968e-05
4.12318e-05
4.12343e-05
4.12405e-05
4.14285e-05
4.1446e-05
4.14411e-05
4.1441e-05
6.12444e-05
6.52592e-05
4.84101e-05
5.28345e-05
6.12369e-05
6.52341e-05
4.84646e-05
7.15312e-05
7.15332e-05
6.1235e-05
4.84098e-05
6.52469e-05
5.2828e-05
6.12277e-05
4.8461e-05
6.52304e-05
7.03256e-05
7.03342e-05
5.4698e-05
7.02689e-05
7.02813e-05
6.88054e-05
7.37837e-05
6.88379e-05
7.38036e-05
7.15448e-05
7.15716e-05
6.88121e-05
7.37905e-05
6.88441e-05
7.38088e-05
4.14679e-05
4.14633e-05
4.14626e-05
4.14595e-05
4.14715e-05
4.14673e-05
4.14665e-05
6.1098e-05
6.51052e-05
4.84959e-05
5.2775e-05
6.11537e-05
6.50679e-05
4.84846e-05
7.15418e-05
7.15675e-05
6.10952e-05
4.84915e-05
6.51135e-05
5.27739e-05
6.11514e-05
4.84814e-05
6.5072e-05
7.01648e-05
7.01788e-05
5.45601e-05
7.014e-05
7.01523e-05
6.88228e-05
7.38475e-05
6.87891e-05
7.38749e-05
7.16095e-05
7.16316e-05
6.88224e-05
7.38514e-05
6.87919e-05
7.38808e-05
4.14713e-05
4.14673e-05
4.14663e-05
4.15452e-05
4.15388e-05
4.15371e-05
4.15345e-05
6.10771e-05
6.50756e-05
4.84192e-05
5.27127e-05
6.1059e-05
6.51355e-05
4.84161e-05
7.16077e-05
7.16338e-05
6.1068e-05
4.84168e-05
6.50612e-05
5.27057e-05
6.10529e-05
4.84133e-05
6.51222e-05
7.01913e-05
7.01991e-05
5.45418e-05
7.0247e-05
7.02573e-05
6.88687e-05
7.38929e-05
6.88618e-05
7.39067e-05
7.1647e-05
7.16631e-05
6.88745e-05
7.39005e-05
6.88672e-05
7.39134e-05
4.16185e-05
4.1618e-05
4.16151e-05
4.18254e-05
4.1813e-05
4.18352e-05
4.1833e-05
6.11561e-05
6.5166e-05
4.85034e-05
5.2869e-05
6.11394e-05
6.5165e-05
4.85676e-05
7.16494e-05
7.16628e-05
6.11586e-05
4.84997e-05
6.51788e-05
5.28794e-05
6.11396e-05
4.85693e-05
6.51818e-05
7.02704e-05
7.0285e-05
5.47102e-05
7.0265e-05
7.02796e-05
6.88659e-05
7.39289e-05
6.88667e-05
7.39373e-05
7.16818e-05
7.16961e-05
6.88705e-05
7.3933e-05
6.88727e-05
7.39411e-05
4.18601e-05
4.18865e-05
4.18845e-05
4.19657e-05
4.19521e-05
4.19551e-05
4.19597e-05
6.11579e-05
6.51604e-05
4.86683e-05
5.29248e-05
6.11593e-05
6.51693e-05
4.86773e-05
7.16769e-05
7.16906e-05
6.11595e-05
4.8688e-05
6.51717e-05
5.29434e-05
6.11627e-05
4.86975e-05
6.51687e-05
7.02766e-05
7.02867e-05
5.47547e-05
7.02902e-05
7.02985e-05
6.88421e-05
7.39303e-05
6.88568e-05
7.39269e-05
7.17052e-05
7.17182e-05
6.88409e-05
7.39367e-05
6.88547e-05
7.39339e-05
4.19826e-05
4.19767e-05
4.19825e-05
4.20253e-05
4.20548e-05
4.20319e-05
4.20337e-05
6.112e-05
6.51746e-05
4.87056e-05
5.29429e-05
6.11358e-05
6.5142e-05
4.87098e-05
7.17013e-05
7.17175e-05
6.11035e-05
4.86972e-05
6.51538e-05
5.29214e-05
6.11246e-05
4.86947e-05
6.51292e-05
7.0283e-05
7.02908e-05
5.47203e-05
7.02222e-05
7.02338e-05
6.87889e-05
7.39625e-05
6.87937e-05
7.40132e-05
7.17461e-05
7.17687e-05
6.87954e-05
7.39687e-05
6.87997e-05
7.4019e-05
4.20663e-05
4.20461e-05
4.20472e-05
4.21134e-05
4.21124e-05
4.21236e-05
4.21335e-05
6.107e-05
6.50843e-05
4.87049e-05
5.29131e-05
6.10772e-05
6.50914e-05
4.87006e-05
7.17471e-05
7.17698e-05
6.1066e-05
4.86892e-05
6.50846e-05
5.29021e-05
6.10707e-05
4.86883e-05
6.50979e-05
7.01865e-05
7.02e-05
5.46958e-05
7.0263e-05
7.0278e-05
6.89059e-05
7.40329e-05
6.88614e-05
7.39954e-05
7.17606e-05
7.17434e-05
6.89134e-05
7.40391e-05
6.8868e-05
7.40021e-05
4.21483e-05
4.21652e-05
4.21729e-05
4.22358e-05
4.22102e-05
4.22253e-05
4.22231e-05
6.1145e-05
6.52036e-05
4.87328e-05
5.29522e-05
6.11146e-05
6.52236e-05
4.8747e-05
7.17599e-05
7.17411e-05
6.11507e-05
4.87472e-05
6.52136e-05
5.29711e-05
6.11211e-05
4.87612e-05
6.52353e-05
7.0414e-05
7.04275e-05
5.48105e-05
7.04045e-05
7.04171e-05
6.86155e-05
7.38887e-05
6.87699e-05
7.38875e-05
7.17179e-05
7.17546e-05
6.86153e-05
7.38944e-05
6.87733e-05
7.38923e-05
4.22103e-05
4.22244e-05
4.22207e-05
4.21107e-05
4.21272e-05
4.21231e-05
4.21142e-05
6.08497e-05
6.50301e-05
4.8746e-05
5.28212e-05
6.10404e-05
6.4852e-05
4.87034e-05
7.17134e-05
7.17505e-05
6.08435e-05
4.87577e-05
6.50329e-05
5.28218e-05
6.10383e-05
4.87086e-05
6.48476e-05
7.01081e-05
7.01182e-05
5.44843e-05
6.99569e-05
6.99662e-05
6.85902e-05
7.39997e-05
6.84862e-05
7.41099e-05
7.18402e-05
7.18919e-05
6.8588e-05
7.40042e-05
6.84825e-05
7.41153e-05
4.21069e-05
4.21003e-05
4.20941e-05
4.20816e-05
4.21081e-05
4.21009e-05
4.21002e-05
6.07193e-05
6.47989e-05
4.84954e-05
5.26321e-05
6.06774e-05
6.49325e-05
4.84788e-05
7.18384e-05
7.18918e-05
6.07077e-05
4.84877e-05
6.4785e-05
5.26193e-05
6.06669e-05
4.84704e-05
6.49203e-05
7.00313e-05
7.00406e-05
5.43882e-05
7.02247e-05
7.02355e-05
6.89561e-05
7.41476e-05
6.88714e-05
7.41219e-05
7.1878e-05
7.18694e-05
6.89639e-05
7.41545e-05
6.88758e-05
7.4129e-05
4.21598e-05
4.21544e-05
4.21635e-05
4.24638e-05
4.24401e-05
4.24451e-05
4.2455e-05
6.11675e-05
6.52398e-05
4.86056e-05
5.29413e-05
6.10657e-05
6.52409e-05
4.87169e-05
7.18782e-05
7.1869e-05
6.11704e-05
4.8601e-05
6.52457e-05
5.29444e-05
6.1065e-05
4.87172e-05
6.52504e-05
7.04597e-05
7.04742e-05
5.4848e-05
7.04326e-05
7.04477e-05
6.86868e-05
7.40158e-05
6.88343e-05
7.40085e-05
7.18102e-05
7.1837e-05
6.86902e-05
7.4021e-05
6.88418e-05
7.40135e-05
4.24753e-05
4.24813e-05
4.24894e-05
4.24606e-05
4.24388e-05
4.24436e-05
4.2448e-05
6.08907e-05
6.51079e-05
4.88325e-05
5.29561e-05
6.10974e-05
6.49355e-05
4.88233e-05
7.18081e-05
7.18358e-05
6.0887e-05
4.88377e-05
6.51136e-05
5.2962e-05
6.11e-05
4.88283e-05
6.49319e-05
7.02417e-05
7.02529e-05
5.46722e-05
7.01311e-05
7.01409e-05
6.85212e-05
7.39909e-05
6.85276e-05
7.40297e-05
7.1819e-05
7.18706e-05
6.85242e-05
7.39962e-05
6.85298e-05
7.40348e-05
4.23902e-05
4.23947e-05
4.2391e-05
4.21515e-05
4.21756e-05
4.21787e-05
4.21679e-05
6.06319e-05
6.48993e-05
4.86004e-05
5.25804e-05
6.06921e-05
6.47967e-05
4.84817e-05
7.1819e-05
7.18702e-05
6.06308e-05
4.86014e-05
6.48963e-05
5.25812e-05
6.06876e-05
4.84828e-05
6.47957e-05
7.01119e-05
7.01229e-05
5.43403e-05
7.00414e-05
7.00535e-05
6.84992e-05
7.40105e-05
6.84954e-05
7.40833e-05
7.18414e-05
7.19188e-05
6.85022e-05
7.40149e-05
6.84989e-05
7.40875e-05
4.2157e-05
4.21594e-05
4.21503e-05
4.17442e-05
4.17547e-05
4.1751e-05
4.17583e-05
6.05455e-05
6.48986e-05
4.83497e-05
5.24499e-05
6.06131e-05
6.47007e-05
4.82753e-05
7.18401e-05
7.19179e-05
6.05426e-05
4.83509e-05
6.48976e-05
5.24493e-05
6.0612e-05
4.82748e-05
6.46968e-05
7.00576e-05
7.00696e-05
5.42548e-05
6.99327e-05
6.99438e-05
6.46521e-05
7.38104e-05
6.82928e-05
7.46583e-05
7.17827e-05
6.62479e-05
6.46516e-05
7.38131e-05
6.82936e-05
7.46634e-05
2.98077e-05
3.61756e-05
3.6173e-05
4.31895e-05
3.01087e-05
3.70638e-05
3.70608e-05
6.03755e-05
6.45914e-05
4.81267e-05
5.02094e-05
6.0378e-05
6.63371e-05
4.63466e-05
7.17817e-05
6.62454e-05
6.03692e-05
4.81225e-05
6.45838e-05
5.02007e-05
6.03715e-05
4.63418e-05
6.63304e-05
6.94556e-05
6.94649e-05
5.36763e-05
7.06438e-05
7.06532e-05
7.12046e-05
7.12073e-05
5.37626e-05
6.99708e-05
6.99817e-05
7.12372e-05
7.12073e-05
7.12398e-05
7.121e-05
5.37908e-05
6.99495e-05
6.99596e-05
6.99606e-05
6.99714e-05
6.86432e-05
7.34552e-05
6.07663e-05
5.1691e-05
6.4881e-05
4.69967e-05
6.07669e-05
5.16822e-05
6.48746e-05
4.69949e-05
6.86383e-05
7.34808e-05
7.34552e-05
6.86349e-05
6.86403e-05
7.34872e-05
7.34591e-05
6.86369e-05
6.07652e-05
5.17226e-05
6.4855e-05
4.70947e-05
6.48699e-05
4.70593e-05
6.07709e-05
6.07658e-05
5.17093e-05
6.48544e-05
4.70895e-05
6.48636e-05
4.70552e-05
6.07715e-05
5.3751e-05
6.99671e-05
6.99497e-05
7.12024e-05
7.12405e-05
7.12086e-05
5.37765e-05
6.99568e-05
6.9944e-05
6.99584e-05
6.99427e-05
7.12381e-05
7.12054e-05
6.07676e-05
5.16896e-05
6.4885e-05
4.69942e-05
6.8642e-05
7.34498e-05
6.07642e-05
5.16739e-05
4.69886e-05
6.48685e-05
6.86422e-05
7.34863e-05
7.34613e-05
6.86397e-05
6.07668e-05
5.17218e-05
6.48593e-05
4.70968e-05
6.48744e-05
4.70591e-05
6.07733e-05
6.86392e-05
7.34819e-05
7.34536e-05
6.8637e-05
6.07634e-05
5.17043e-05
4.70904e-05
6.48467e-05
4.70527e-05
6.48584e-05
6.07704e-05
6.86399e-05
7.34546e-05
6.07597e-05
5.16748e-05
4.69906e-05
6.48646e-05
6.86374e-05
7.34522e-05
6.07609e-05
5.17071e-05
6.48487e-05
4.70798e-05
6.48568e-05
4.70485e-05
6.07671e-05
6.8637e-05
7.34872e-05
7.34586e-05
6.86337e-05
6.07587e-05
5.17e-05
4.70779e-05
6.48462e-05
4.70463e-05
6.48544e-05
6.0765e-05
6.86346e-05
7.34853e-05
7.34563e-05
6.86312e-05
5.37434e-05
6.9961e-05
6.99585e-05
7.12052e-05
7.12392e-05
7.12071e-05
5.37718e-05
6.99449e-05
6.99432e-05
6.99525e-05
6.99492e-05
7.12401e-05
7.12082e-05
6.07594e-05
5.16732e-05
4.69879e-05
6.48696e-05
6.86365e-05
7.34533e-05
6.86387e-05
7.34549e-05
6.07579e-05
5.17046e-05
4.70818e-05
6.48511e-05
4.70472e-05
6.48613e-05
6.0765e-05
6.07586e-05
5.16987e-05
4.70795e-05
6.48508e-05
4.70458e-05
6.48593e-05
6.07655e-05
6.8634e-05
7.34845e-05
7.3457e-05
6.8631e-05
6.8636e-05
7.34897e-05
7.34593e-05
6.86327e-05
7.12047e-05
7.12076e-05
5.37684e-05
6.99433e-05
6.99545e-05
6.99436e-05
6.99558e-05
7.12408e-05
7.1208e-05
7.12439e-05
7.12109e-05
7.12417e-05
7.12771e-05
7.12444e-05
7.12801e-05
6.99506e-05
6.99604e-05
5.3794e-05
6.99966e-05
7.00055e-05
7.13105e-05
7.12813e-05
7.13135e-05
7.12842e-05
5.3832e-05
7.00663e-05
7.00775e-05
7.00102e-05
7.00194e-05
6.86323e-05
7.34936e-05
6.86322e-05
7.35307e-05
6.07713e-05
6.48517e-05
4.71164e-05
5.17548e-05
6.07675e-05
6.48687e-05
4.71404e-05
6.07725e-05
6.48535e-05
4.71121e-05
5.17495e-05
6.07682e-05
6.48862e-05
4.71396e-05
6.86337e-05
7.35652e-05
7.35309e-05
6.86903e-05
6.86359e-05
7.35672e-05
7.35372e-05
6.86928e-05
6.07743e-05
5.17843e-05
6.49551e-05
4.72493e-05
6.48803e-05
4.71833e-05
6.08297e-05
6.07759e-05
5.17978e-05
6.49669e-05
4.72553e-05
6.48995e-05
4.71872e-05
6.08325e-05
6.99667e-05
6.99598e-05
5.37956e-05
7.00262e-05
7.00177e-05
7.12428e-05
7.12759e-05
7.13085e-05
7.12824e-05
5.38416e-05
7.00762e-05
7.00633e-05
7.00402e-05
7.00336e-05
7.13043e-05
7.12789e-05
6.0774e-05
6.48559e-05
4.71196e-05
5.17545e-05
6.077e-05
6.48721e-05
4.71432e-05
6.86321e-05
7.34887e-05
6.86324e-05
7.35279e-05
6.0772e-05
4.71147e-05
6.48457e-05
5.17484e-05
6.07673e-05
4.71414e-05
6.48767e-05
6.86366e-05
7.35722e-05
7.35368e-05
6.86934e-05
6.07767e-05
5.1784e-05
6.49598e-05
4.72498e-05
6.48838e-05
4.71845e-05
6.08312e-05
6.86352e-05
7.35666e-05
7.3535e-05
6.86924e-05
6.07752e-05
5.17969e-05
4.72549e-05
6.49679e-05
4.7187e-05
6.48915e-05
6.08312e-05
6.86328e-05
7.34938e-05
6.86293e-05
7.35308e-05
6.07694e-05
4.71009e-05
6.48461e-05
5.17457e-05
6.0762e-05
4.71325e-05
6.48851e-05
6.86308e-05
7.3492e-05
6.86269e-05
7.35299e-05
6.07768e-05
5.17992e-05
6.49663e-05
4.72609e-05
6.49021e-05
4.71865e-05
6.08437e-05
6.86388e-05
7.35658e-05
7.35372e-05
6.87012e-05
6.07753e-05
5.18024e-05
4.72627e-05
6.49731e-05
4.71869e-05
6.49e-05
6.08434e-05
6.86372e-05
7.35663e-05
7.35365e-05
6.87007e-05
6.99517e-05
6.99498e-05
5.37955e-05
7.00147e-05
7.00154e-05
7.12451e-05
7.12802e-05
7.13096e-05
7.12833e-05
5.3841e-05
7.00806e-05
7.00803e-05
7.00346e-05
7.00326e-05
7.13098e-05
7.12838e-05
6.07705e-05
4.71038e-05
6.48506e-05
5.17457e-05
6.07628e-05
4.71349e-05
6.48903e-05
6.86298e-05
7.34911e-05
6.8627e-05
7.35296e-05
6.86323e-05
7.34967e-05
6.86286e-05
7.35357e-05
6.07748e-05
5.17981e-05
4.72603e-05
6.4973e-05
4.7186e-05
6.48955e-05
6.08408e-05
6.07763e-05
5.18031e-05
4.72626e-05
6.49797e-05
4.71879e-05
6.49055e-05
6.08436e-05
6.86356e-05
7.35685e-05
7.35366e-05
6.86977e-05
6.86385e-05
7.3571e-05
7.35423e-05
6.8701e-05
7.12457e-05
7.12798e-05
7.12489e-05
7.12832e-05
5.38442e-05
7.00759e-05
7.00892e-05
7.00337e-05
7.00448e-05
7.13087e-05
7.12832e-05
7.1312e-05
7.12866e-05
7.1313e-05
7.13355e-05
7.1316e-05
7.13378e-05
7.00749e-05
7.00866e-05
5.4056e-05
7.01081e-05
7.01206e-05
7.13536e-05
7.1337e-05
7.13552e-05
7.1339e-05
5.41156e-05
7.01458e-05
7.01554e-05
7.01145e-05
7.01266e-05
6.87518e-05
7.35713e-05
6.87042e-05
7.35941e-05
6.09303e-05
6.49678e-05
4.73318e-05
5.20221e-05
6.08474e-05
6.50166e-05
4.74189e-05
6.09301e-05
6.49749e-05
4.73361e-05
5.20117e-05
6.08499e-05
6.49996e-05
4.74185e-05
6.87553e-05
7.36213e-05
7.35995e-05
6.87733e-05
6.87552e-05
7.36263e-05
7.35987e-05
6.8773e-05
6.09412e-05
5.20925e-05
6.50505e-05
4.75774e-05
6.50219e-05
4.75026e-05
6.09821e-05
6.09405e-05
5.20664e-05
6.50282e-05
4.75682e-05
6.50015e-05
4.74969e-05
6.09802e-05
7.00799e-05
7.0067e-05
5.4038e-05
7.0084e-05
7.00688e-05
7.13062e-05
7.13296e-05
7.13595e-05
7.13362e-05
5.4086e-05
7.01304e-05
7.01158e-05
7.00863e-05
7.00705e-05
7.13562e-05
7.1332e-05
6.09374e-05
6.49733e-05
4.7333e-05
5.20233e-05
6.08494e-05
6.5024e-05
4.74226e-05
6.87569e-05
7.35707e-05
6.87047e-05
7.35909e-05
6.09353e-05
4.73389e-05
6.49788e-05
5.20302e-05
6.08492e-05
4.74265e-05
6.50118e-05
6.87632e-05
7.36248e-05
7.36054e-05
6.87767e-05
6.09489e-05
5.20953e-05
6.50558e-05
4.75862e-05
6.50295e-05
4.75091e-05
6.09893e-05
6.87602e-05
7.36174e-05
7.35946e-05
6.87741e-05
6.09464e-05
5.20906e-05
4.75823e-05
6.503e-05
4.75095e-05
6.50139e-05
6.09855e-05
6.87533e-05
7.35698e-05
6.87118e-05
7.35924e-05
6.09362e-05
4.73499e-05
6.49818e-05
5.20387e-05
6.08611e-05
4.74356e-05
6.50103e-05
6.87536e-05
7.35703e-05
6.87115e-05
7.35921e-05
6.09437e-05
5.207e-05
6.5023e-05
4.75719e-05
6.49957e-05
4.75045e-05
6.0977e-05
6.87556e-05
7.36257e-05
7.35972e-05
6.87702e-05
6.09446e-05
5.20979e-05
4.75814e-05
6.50368e-05
4.75137e-05
6.50127e-05
6.09776e-05
6.87559e-05
7.36203e-05
7.35963e-05
6.87699e-05
7.00888e-05
7.00871e-05
5.40589e-05
7.00978e-05
7.00977e-05
7.13117e-05
7.1332e-05
7.13537e-05
7.13332e-05
5.41091e-05
7.01249e-05
7.01191e-05
7.00998e-05
7.00985e-05
7.13535e-05
7.13335e-05
6.0941e-05
4.73507e-05
6.49887e-05
5.20398e-05
6.08619e-05
4.74387e-05
6.50176e-05
6.87552e-05
7.35726e-05
6.87096e-05
7.35929e-05
6.87572e-05
7.35747e-05
6.87126e-05
7.35958e-05
6.0949e-05
5.20963e-05
4.75866e-05
6.50317e-05
4.75178e-05
6.50171e-05
6.09814e-05
6.095e-05
5.21003e-05
4.75897e-05
6.50427e-05
4.75198e-05
6.50199e-05
6.0983e-05
6.87579e-05
7.36187e-05
7.35965e-05
6.87697e-05
6.87599e-05
7.36242e-05
7.35999e-05
6.87725e-05
7.13107e-05
7.13323e-05
7.13139e-05
7.13349e-05
5.41156e-05
7.01332e-05
7.01442e-05
7.00976e-05
7.01111e-05
7.13538e-05
7.13342e-05
7.1356e-05
7.13367e-05
7.13536e-05
7.13645e-05
7.13552e-05
7.13664e-05
7.01533e-05
7.01619e-05
5.42268e-05
7.01724e-05
7.01792e-05
7.13713e-05
7.13634e-05
7.13742e-05
7.13655e-05
5.42601e-05
7.01591e-05
7.01649e-05
7.01742e-05
7.01806e-05
6.87865e-05
7.36306e-05
6.87747e-05
7.36462e-05
6.10136e-05
6.50556e-05
4.76441e-05
5.22572e-05
6.09878e-05
6.5076e-05
4.77061e-05
6.10159e-05
6.5038e-05
4.76354e-05
5.22521e-05
6.09862e-05
6.509e-05
4.77019e-05
6.87838e-05
7.36329e-05
7.36329e-05
6.87905e-05
6.87865e-05
7.36458e-05
7.36461e-05
6.87942e-05
6.10147e-05
5.23001e-05
6.50773e-05
4.78263e-05
6.50762e-05
4.77679e-05
6.10266e-05
6.10178e-05
5.23131e-05
6.51067e-05
4.7834e-05
6.50949e-05
4.77699e-05
6.10307e-05
7.0147e-05
7.01357e-05
5.42241e-05
7.01941e-05
7.01827e-05
7.13571e-05
7.13704e-05
7.13794e-05
7.13725e-05
5.42724e-05
7.02094e-05
7.01979e-05
7.02023e-05
7.0192e-05
7.13759e-05
7.1369e-05
6.10111e-05
6.50599e-05
4.76526e-05
5.22587e-05
6.09934e-05
6.50765e-05
4.77116e-05
6.87825e-05
7.36212e-05
6.87742e-05
7.36361e-05
6.10092e-05
4.76462e-05
6.50359e-05
5.22419e-05
6.099e-05
4.77051e-05
6.50695e-05
6.87834e-05
7.36381e-05
7.3636e-05
6.87891e-05
6.10113e-05
5.22994e-05
6.50775e-05
4.78229e-05
6.50768e-05
4.77686e-05
6.10219e-05
6.87818e-05
7.36378e-05
7.36363e-05
6.87878e-05
6.10096e-05
5.2292e-05
4.78223e-05
6.50809e-05
4.77645e-05
6.5073e-05
6.10208e-05
6.87865e-05
7.36302e-05
6.87721e-05
7.36458e-05
6.10119e-05
4.76424e-05
6.50437e-05
5.22486e-05
6.09829e-05
4.77014e-05
6.50765e-05
6.87833e-05
7.36237e-05
6.87714e-05
7.36357e-05
6.10176e-05
5.2313e-05
6.51055e-05
4.78315e-05
6.50932e-05
4.77665e-05
6.10316e-05
6.87866e-05
7.36451e-05
7.36456e-05
6.87947e-05
6.10142e-05
5.2296e-05
4.78243e-05
6.50824e-05
4.77634e-05
6.50784e-05
6.10274e-05
6.87834e-05
7.36359e-05
7.36354e-05
6.87911e-05
7.01373e-05
7.01298e-05
5.42125e-05
7.01679e-05
7.01632e-05
7.13546e-05
7.13685e-05
7.13772e-05
7.13674e-05
5.42509e-05
7.01776e-05
7.0175e-05
7.01741e-05
7.0169e-05
7.13779e-05
7.13681e-05
6.10098e-05
4.76506e-05
6.50491e-05
5.22505e-05
6.09876e-05
4.77067e-05
6.50795e-05
6.87792e-05
7.36223e-05
6.87706e-05
7.36372e-05
6.87819e-05
7.36277e-05
6.87735e-05
7.364e-05
6.10092e-05
5.22923e-05
4.78197e-05
6.50823e-05
4.77611e-05
6.50735e-05
6.10205e-05
6.10106e-05
5.22957e-05
4.78207e-05
6.5085e-05
4.7764e-05
6.50812e-05
6.10217e-05
6.87792e-05
7.36398e-05
7.36376e-05
6.87851e-05
6.87819e-05
7.36398e-05
7.36397e-05
6.87872e-05
7.13543e-05
7.13661e-05
7.13565e-05
7.13686e-05
5.42549e-05
7.01705e-05
7.01788e-05
7.01771e-05
7.01849e-05
7.13728e-05
7.13651e-05
7.13759e-05
7.13677e-05
7.13702e-05
7.13863e-05
7.13733e-05
7.13902e-05
7.01374e-05
7.01441e-05
5.42766e-05
7.00797e-05
7.00898e-05
7.14253e-05
7.13896e-05
7.14289e-05
7.13935e-05
5.42851e-05
7.00289e-05
7.00429e-05
7.00604e-05
7.00716e-05
6.87926e-05
7.36428e-05
6.87933e-05
7.36384e-05
6.10253e-05
6.50704e-05
4.78762e-05
5.23633e-05
6.10251e-05
6.50332e-05
4.79121e-05
6.1031e-05
6.51041e-05
4.78875e-05
5.23949e-05
6.10296e-05
6.50677e-05
4.79257e-05
6.8778e-05
7.36574e-05
7.3632e-05
6.87515e-05
6.8784e-05
7.36549e-05
7.36378e-05
6.87549e-05
6.10188e-05
5.23636e-05
6.49726e-05
4.79399e-05
6.50084e-05
4.79328e-05
6.09913e-05
6.10247e-05
5.2395e-05
6.49848e-05
4.79532e-05
6.50369e-05
4.79471e-05
6.09952e-05
7.01972e-05
7.01853e-05
5.43204e-05
7.01186e-05
7.01038e-05
7.13731e-05
7.13825e-05
7.14204e-05
7.13881e-05
5.43274e-05
7.00414e-05
7.0027e-05
7.00925e-05
7.00794e-05
7.14167e-05
7.13841e-05
6.10195e-05
6.50707e-05
4.78702e-05
5.23598e-05
6.10197e-05
6.50351e-05
4.79053e-05
6.87845e-05
7.36363e-05
6.8786e-05
7.36357e-05
6.10196e-05
4.78734e-05
6.5079e-05
5.23787e-05
6.10189e-05
4.79117e-05
6.50514e-05
6.87777e-05
7.36655e-05
7.36402e-05
6.87582e-05
6.10134e-05
5.23601e-05
6.49794e-05
4.79338e-05
6.5012e-05
4.79261e-05
6.09946e-05
6.87775e-05
7.36561e-05
7.36359e-05
6.87568e-05
6.10137e-05
5.23813e-05
4.79439e-05
6.49846e-05
4.7935e-05
6.5027e-05
6.09945e-05
6.87942e-05
7.3642e-05
6.87941e-05
7.36374e-05
6.10285e-05
4.78776e-05
6.50776e-05
5.23723e-05
6.10264e-05
4.79168e-05
6.5041e-05
6.87897e-05
7.36341e-05
6.87902e-05
7.36331e-05
6.10275e-05
5.23969e-05
6.49804e-05
4.79571e-05
6.50326e-05
4.79501e-05
6.09984e-05
6.87861e-05
7.3654e-05
7.36368e-05
6.87563e-05
6.10226e-05
5.23735e-05
4.79486e-05
6.49738e-05
4.79401e-05
6.50142e-05
6.09953e-05
6.87816e-05
7.36573e-05
7.36338e-05
6.87537e-05
7.01683e-05
7.01675e-05
5.42998e-05
7.01064e-05
7.01083e-05
7.13767e-05
7.13889e-05
7.14229e-05
7.13905e-05
5.43133e-05
7.00455e-05
7.00446e-05
7.00872e-05
7.00869e-05
7.14229e-05
7.13912e-05
6.10208e-05
4.78716e-05
6.50803e-05
5.23691e-05
6.10201e-05
4.79098e-05
6.50445e-05
6.87822e-05
7.36389e-05
6.87837e-05
7.36392e-05
6.87829e-05
7.36377e-05
6.87857e-05
7.36367e-05
6.10155e-05
5.23854e-05
4.7949e-05
6.49908e-05
4.79388e-05
6.50336e-05
6.09957e-05
6.10151e-05
5.23702e-05
4.79423e-05
6.498e-05
4.79333e-05
6.50187e-05
6.0994e-05
6.87756e-05
7.36587e-05
7.36394e-05
6.8754e-05
6.87751e-05
7.3662e-05
7.36377e-05
6.87526e-05
7.13712e-05
7.13852e-05
7.13745e-05
7.13891e-05
5.4297e-05
7.00263e-05
7.00411e-05
7.0063e-05
7.00761e-05
7.14236e-05
7.13883e-05
7.14274e-05
7.13922e-05
7.14319e-05
7.14788e-05
7.14353e-05
7.14812e-05
7.00273e-05
7.00418e-05
5.42278e-05
7.00886e-05
7.01038e-05
7.15172e-05
7.14847e-05
7.15188e-05
7.14869e-05
5.42593e-05
7.02253e-05
7.02361e-05
7.01182e-05
7.01322e-05
6.87248e-05
7.36622e-05
6.87406e-05
7.37108e-05
6.09591e-05
6.49631e-05
4.79406e-05
5.23495e-05
6.09757e-05
6.4973e-05
4.79402e-05
6.0959e-05
6.49672e-05
4.79529e-05
5.2361e-05
6.09779e-05
6.49571e-05
4.79502e-05
6.87232e-05
7.37787e-05
7.37275e-05
6.87802e-05
6.87225e-05
7.37799e-05
7.37226e-05
6.8777e-05
6.09544e-05
5.23527e-05
6.50995e-05
4.79524e-05
6.49873e-05
4.79418e-05
6.09899e-05
6.09536e-05
5.23587e-05
6.50695e-05
4.79537e-05
6.49632e-05
4.79496e-05
6.09847e-05
7.00317e-05
7.00183e-05
5.42284e-05