/*--------------------------------*- C++ -*----------------------------------*\
| =========                 |                                                 |
| \\      /  F ield         | OpenFOAM: The Open Source CFD Toolbox           |
|  \\    /   O peration     | Version:  v1906                                 |
|   \\  /    A nd           | Web:      www.OpenFOAM.com                      |
|    \\/     M anipulation  |                                                 |
\*---------------------------------------------------------------------------*/
FoamFile
{
    version     2.0;
    format      ascii;
    class       volScalarField;
    location    "1000";
    object      k;
}
// * * * * * * * * * * * * * * * * * * * * * * * * * * * * * * * * * * * * * //

dimensions      [0 2 -2 0 0 0 0];


internalField   nonuniform List<scalar> 
43024
(
3.94045e-05
5.17293e-05
5.17288e-05
5.37798e-05
3.9699e-05
5.19507e-05
5.1961e-05
5.39987e-05
4.01231e-05
5.21827e-05
5.21899e-05
5.41908e-05
4.04401e-05
5.23872e-05
5.23662e-05
5.42976e-05
4.06169e-05
5.23765e-05
5.23758e-05
5.4258e-05
4.08044e-05
5.24014e-05
5.24227e-05
5.43943e-05
4.12334e-05
5.28088e-05
5.28046e-05
5.46984e-05
4.14508e-05
5.28179e-05
5.28157e-05
5.46396e-05
4.14603e-05
5.27119e-05
5.27056e-05
5.45304e-05
4.16173e-05
5.28266e-05
5.28286e-05
5.4678e-05
4.18786e-05
5.29213e-05
5.29431e-05
5.47658e-05
4.19899e-05
5.2943e-05
5.29286e-05
5.47474e-05
4.20317e-05
5.29192e-05
5.29029e-05
5.47102e-05
4.2166e-05
5.29453e-05
5.29632e-05
5.47976e-05
4.22349e-05
5.29201e-05
5.29317e-05
5.4716e-05
4.20827e-05
5.26368e-05
5.26246e-05
5.43645e-05
4.21381e-05
5.28628e-05
5.28611e-05
5.4762e-05
4.25036e-05
5.29947e-05
5.30019e-05
5.48479e-05
4.23919e-05
5.26795e-05
5.268e-05
5.44362e-05
4.21342e-05
5.24568e-05
5.24573e-05
5.42936e-05
4.17427e-05
5.1385e-05
5.13772e-05
5.40301e-05
5.37844e-05
5.1737e-05
5.17228e-05
5.37692e-05
5.17359e-05
5.17187e-05
5.17197e-05
5.17109e-05
5.3768e-05
5.17185e-05
5.17097e-05
5.37602e-05
5.38003e-05
5.38927e-05
5.17439e-05
5.1732e-05
5.18528e-05
5.1871e-05
5.37867e-05
5.39101e-05
5.1743e-05
5.17291e-05
5.18527e-05
5.18733e-05
5.1722e-05
5.18751e-05
5.18824e-05
5.3787e-05
5.39152e-05
5.17211e-05
5.18771e-05
5.18823e-05
5.3925e-05
5.39672e-05
5.41586e-05
5.19388e-05
5.19452e-05
5.21513e-05
5.21182e-05
5.39777e-05
5.41231e-05
5.19393e-05
5.19553e-05
5.21553e-05
5.21391e-05
5.19654e-05
5.21204e-05
5.21478e-05
5.39884e-05
5.41416e-05
5.19655e-05
5.21425e-05
5.21511e-05
5.41503e-05
5.42009e-05
5.42717e-05
5.22067e-05
5.21821e-05
5.23339e-05
5.23583e-05
5.41727e-05
5.43032e-05
5.22103e-05
5.21887e-05
5.23316e-05
5.23337e-05
5.2198e-05
5.23589e-05
5.23347e-05
5.41816e-05
5.42725e-05
5.22012e-05
5.23345e-05
5.23325e-05
5.42721e-05
5.42938e-05
5.42413e-05
5.23559e-05
5.2386e-05
5.23611e-05
5.23906e-05
5.43328e-05
5.42664e-05
5.23527e-05
5.23642e-05
5.23577e-05
5.238e-05
5.23611e-05
5.23928e-05
5.23709e-05
5.43018e-05
5.42683e-05
5.2358e-05
5.23841e-05
5.23675e-05
5.42491e-05
5.42508e-05
5.43247e-05
5.23531e-05
5.2374e-05
5.2376e-05
5.23655e-05
5.4273e-05
5.42712e-05
5.23507e-05
5.23712e-05
5.23792e-05
5.23735e-05
5.23619e-05
5.23676e-05
5.23743e-05
5.42765e-05
5.42937e-05
5.23591e-05
5.2377e-05
5.23757e-05
5.43121e-05
5.44089e-05
5.46537e-05
5.24582e-05
5.24002e-05
5.27568e-05
5.27504e-05
5.43404e-05
5.46629e-05
5.24682e-05
5.24215e-05
5.27563e-05
5.27499e-05
5.24411e-05
5.27515e-05
5.27617e-05
5.43651e-05
5.46536e-05
5.24503e-05
5.27526e-05
5.27629e-05
5.46626e-05
5.46878e-05
5.46269e-05
5.28003e-05
5.2807e-05
5.28191e-05
5.28339e-05
5.47034e-05
5.46419e-05
5.27987e-05
5.28007e-05
5.28174e-05
5.28262e-05
5.28089e-05
5.28363e-05
5.28304e-05
5.46919e-05
5.46403e-05
5.28087e-05
5.28313e-05
5.28294e-05
5.46374e-05
5.46302e-05
5.45246e-05
5.28017e-05
5.28151e-05
5.27134e-05
5.27178e-05
5.46435e-05
5.45255e-05
5.2801e-05
5.28101e-05
5.27135e-05
5.27115e-05
5.28122e-05
5.27193e-05
5.27126e-05
5.46426e-05
5.45187e-05
5.28116e-05
5.27146e-05
5.27124e-05
5.45188e-05
5.45368e-05
5.46272e-05
5.27062e-05
5.27106e-05
5.27597e-05
5.2765e-05
5.45384e-05
5.46327e-05
5.27061e-05
5.27031e-05
5.27571e-05
5.27588e-05
5.27044e-05
5.27656e-05
5.27574e-05
5.45298e-05
5.46332e-05
5.27039e-05
5.27594e-05
5.27556e-05
5.46295e-05
5.46727e-05
5.47421e-05
5.2822e-05
5.28259e-05
5.29253e-05
5.29081e-05
5.46751e-05
5.47263e-05
5.28206e-05
5.28267e-05
5.29304e-05
5.29321e-05
5.28243e-05
5.29127e-05
5.29322e-05
5.46837e-05
5.47496e-05
5.28237e-05
5.29354e-05
5.2935e-05
5.47476e-05
5.47621e-05
5.47526e-05
5.29391e-05
5.29177e-05
5.29441e-05
5.29391e-05
5.47429e-05
5.47417e-05
5.29434e-05
5.294e-05
5.29461e-05
5.29315e-05
5.29414e-05
5.29392e-05
5.29368e-05
5.47662e-05
5.47282e-05
5.29445e-05
5.29335e-05
5.2938e-05
5.4737e-05
5.47621e-05
5.46811e-05
5.29422e-05
5.29427e-05
5.28988e-05
5.2928e-05
5.47596e-05
5.47182e-05
5.29426e-05
5.2927e-05
5.28957e-05
5.29039e-05
5.29339e-05
5.29303e-05
5.29114e-05
5.47386e-05
5.46983e-05
5.29336e-05
5.29069e-05
5.29076e-05
5.47001e-05
5.46893e-05
5.47532e-05
5.28894e-05
5.29157e-05
5.29246e-05
5.29192e-05
5.47266e-05
5.47348e-05
5.28869e-05
5.28989e-05
5.29255e-05
5.29298e-05
5.29065e-05
5.2924e-05
5.29407e-05
5.47093e-05
5.47514e-05
5.29034e-05
5.29374e-05
5.29433e-05
5.47616e-05
5.48009e-05
5.4781e-05
5.29657e-05
5.29423e-05
5.29815e-05
5.29498e-05
5.47677e-05
5.47355e-05
5.2968e-05
5.29585e-05
5.29845e-05
5.29654e-05
5.29652e-05
5.29501e-05
5.29658e-05
5.47863e-05
5.47484e-05
5.29685e-05
5.29671e-05
5.2969e-05
5.47403e-05
5.47562e-05
5.43339e-05
5.2948e-05
5.29221e-05
5.2629e-05
5.26579e-05
5.47189e-05
5.43824e-05
5.29509e-05
5.29325e-05
5.26285e-05
5.26469e-05
5.29229e-05
5.26604e-05
5.26419e-05
5.47284e-05
5.43671e-05
5.29252e-05
5.26499e-05
5.26404e-05
5.43582e-05
5.43373e-05
5.46135e-05
5.25976e-05
5.26323e-05
5.26773e-05
5.27089e-05
5.43881e-05
5.46417e-05
5.25965e-05
5.26198e-05
5.2675e-05
5.26992e-05
5.26197e-05
5.27204e-05
5.27192e-05
5.43721e-05
5.46359e-05
5.26179e-05
5.27109e-05
5.27175e-05
5.46506e-05
5.47446e-05
5.49018e-05
5.28496e-05
5.28551e-05
5.30336e-05
5.29986e-05
5.47487e-05
5.48387e-05
5.28482e-05
5.28523e-05
5.30351e-05
5.30039e-05
5.28697e-05
5.29968e-05
5.30094e-05
5.47488e-05
5.48496e-05
5.28693e-05
5.30041e-05
5.30108e-05
5.48532e-05
5.48989e-05
5.44267e-05
5.30339e-05
5.29972e-05
5.27442e-05
5.27397e-05
5.48334e-05
5.44443e-05
5.30354e-05
5.30024e-05
5.27447e-05
5.27386e-05
5.30075e-05
5.27382e-05
5.27404e-05
5.48434e-05
5.44412e-05
5.30089e-05
5.27387e-05
5.27409e-05
5.4444e-05
5.44134e-05
5.42667e-05
5.26603e-05
5.26772e-05
5.24614e-05
5.24885e-05
5.44391e-05
5.42989e-05
5.26603e-05
5.26767e-05
5.24623e-05
5.249e-05
5.2674e-05
5.24943e-05
5.24817e-05
5.44365e-05
5.43012e-05
5.26743e-05
5.24962e-05
5.24823e-05
5.42881e-05
5.42737e-05
5.41385e-05
5.24317e-05
5.24513e-05
5.22894e-05
5.22938e-05
5.43044e-05
5.41376e-05
5.24329e-05
5.24515e-05
5.22912e-05
5.22877e-05
5.24477e-05
5.23004e-05
5.23007e-05
5.43067e-05
5.41292e-05
5.24481e-05
5.22947e-05
5.23014e-05
5.41434e-05
5.40233e-05
5.13829e-05
5.13787e-05
5.40176e-05
5.13839e-05
5.13703e-05
4.17452e-05
4.17388e-05
4.17547e-05
5.1392e-05
5.40063e-05
5.13925e-05
6.8642e-05
7.34518e-05
7.12055e-05
6.86454e-05
7.34579e-05
3.93481e-05
3.93333e-05
3.93328e-05
3.93256e-05
6.07622e-05
5.16827e-05
6.48682e-05
4.69933e-05
7.12043e-05
6.07586e-05
5.16761e-05
4.69879e-05
6.48712e-05
5.37425e-05
6.99514e-05
6.9964e-05
6.863e-05
7.34865e-05
6.86307e-05
7.3523e-05
7.12448e-05
7.12784e-05
6.86338e-05
7.34921e-05
6.8635e-05
7.35288e-05
3.93893e-05
3.93915e-05
3.93831e-05
3.9599e-05
3.96075e-05
3.96112e-05
3.96128e-05
6.0771e-05
6.48497e-05
4.71028e-05
5.1749e-05
6.07642e-05
6.48871e-05
4.71332e-05
7.12439e-05
7.12795e-05
6.07691e-05
4.71057e-05
6.48501e-05
5.17489e-05
6.07623e-05
4.71348e-05
6.48807e-05
6.99535e-05
6.99637e-05
5.37939e-05
7.0017e-05
7.00282e-05
6.87501e-05
7.35698e-05
6.87001e-05
7.35953e-05
7.13103e-05
7.13336e-05
6.87591e-05
7.35771e-05
6.87049e-05
7.36016e-05
3.9706e-05
3.97149e-05
3.97184e-05
4.00236e-05
4.0001e-05
4.00229e-05
4.00312e-05
6.09343e-05
6.49721e-05
4.73445e-05
5.2014e-05
6.08601e-05
6.49926e-05
4.7427e-05
7.13109e-05
7.13316e-05
6.09384e-05
4.73474e-05
6.49823e-05
5.20351e-05
6.08581e-05
4.74355e-05
6.50146e-05
7.00803e-05
7.00939e-05
5.40652e-05
7.00932e-05
7.01073e-05
6.87842e-05
7.36242e-05
6.87742e-05
7.36335e-05
7.13607e-05
7.13738e-05
6.87845e-05
7.36274e-05
6.87766e-05
7.36363e-05
4.00996e-05
4.01146e-05
4.01237e-05
4.03712e-05
4.03804e-05
4.03677e-05
4.03698e-05
6.10145e-05
6.50332e-05
4.76338e-05
5.22503e-05
6.09823e-05
6.50877e-05
4.76981e-05
7.13544e-05
7.13683e-05
6.10077e-05
4.76448e-05
6.50358e-05
5.22404e-05
6.09849e-05
4.77012e-05
6.50696e-05
7.01447e-05
7.01545e-05
5.42187e-05
7.01734e-05
7.01815e-05
6.87876e-05
7.36311e-05
6.87897e-05
7.36308e-05
7.13773e-05
7.13865e-05
6.87856e-05
7.36374e-05
6.87876e-05
7.36387e-05
4.04611e-05
4.04445e-05
4.04421e-05
4.05906e-05
4.06303e-05
4.06186e-05
4.06033e-05
6.10339e-05
6.51031e-05
4.78871e-05
5.23977e-05
6.10311e-05
6.50645e-05
4.79275e-05
7.13758e-05
7.13885e-05
6.10208e-05
4.78725e-05
6.50805e-05
5.23825e-05
6.1019e-05
4.79134e-05
6.50573e-05
7.01487e-05
7.01576e-05
5.42878e-05
7.00842e-05
7.00963e-05
6.8725e-05
7.36656e-05
6.87391e-05
7.37163e-05
7.14267e-05
7.1474e-05
6.87357e-05
7.36733e-05
6.87479e-05
7.37217e-05
4.06531e-05
4.06436e-05
4.0628e-05
4.07204e-05
4.06945e-05
4.07067e-05
4.07153e-05
6.09608e-05
6.49647e-05
4.7958e-05
5.2365e-05
6.09811e-05
6.49543e-05
4.79554e-05
7.14287e-05
7.14742e-05
6.09672e-05
4.79511e-05
6.49771e-05
5.23685e-05
6.0983e-05
4.79509e-05
6.49724e-05
7.00238e-05
7.00386e-05
5.42297e-05
7.00794e-05
7.00953e-05
6.88932e-05
7.37858e-05
6.88013e-05
7.38072e-05
7.15215e-05
7.15362e-05
6.88944e-05
7.3789e-05
6.88085e-05
7.38105e-05
4.07443e-05
4.07809e-05
4.07979e-05
4.11329e-05
4.11156e-05
4.11258e-05
4.11371e-05
6.11508e-05
6.5101e-05
4.79793e-05
5.25168e-05
6.10069e-05
6.52125e-05
4.80599e-05
7.15177e-05
7.15324e-05
6.11512e-05
4.79951e-05
6.51087e-05
5.25457e-05
6.10171e-05
4.80941e-05
6.52086e-05
7.02481e-05
7.02593e-05
5.45292e-05
7.03136e-05
7.03225e-05
6.89292e-05
7.38012e-05
6.89285e-05
7.37893e-05
7.15335e-05
7.1534e-05
6.89286e-05
7.3807e-05
6.89256e-05
7.37967e-05
4.12318e-05
4.12344e-05
4.12414e-05
4.14283e-05
4.14458e-05
4.14411e-05
4.14412e-05
6.12441e-05
6.52589e-05
4.84101e-05
5.28341e-05
6.12366e-05
6.52338e-05
4.84644e-05
7.15311e-05
7.15331e-05
6.12354e-05
4.84106e-05
6.52471e-05
5.28283e-05
6.12283e-05
4.84615e-05
6.52306e-05
7.03257e-05
7.03345e-05
5.46983e-05
7.02688e-05
7.02813e-05
6.8805e-05
7.37834e-05
6.88377e-05
7.38033e-05
7.15447e-05
7.15715e-05
6.88115e-05
7.37901e-05
6.88437e-05
7.38084e-05
4.14676e-05
4.14633e-05
4.14625e-05
4.14589e-05
4.14712e-05
4.14673e-05
4.14661e-05
6.10975e-05
6.51049e-05
4.84954e-05
5.27745e-05
6.11533e-05
6.50676e-05
4.8484e-05
7.15417e-05
7.15674e-05
6.10948e-05
4.84917e-05
6.51135e-05
5.2774e-05
6.11512e-05
4.84815e-05
6.50717e-05
7.01644e-05
7.01784e-05
5.45595e-05
7.01395e-05
7.01519e-05
6.88221e-05
7.38472e-05
6.87885e-05
7.38748e-05
7.16095e-05
7.16316e-05
6.8822e-05
7.38512e-05
6.87913e-05
7.38807e-05
4.14709e-05
4.14672e-05
4.14659e-05
4.15436e-05
4.15382e-05
4.15365e-05
4.15338e-05
6.10768e-05
6.50752e-05
4.84187e-05
5.27122e-05
6.10584e-05
6.51354e-05
4.84155e-05
7.16077e-05
7.16338e-05
6.10677e-05
4.84164e-05
6.50608e-05
5.27054e-05
6.10524e-05
4.8413e-05
6.51221e-05
7.01911e-05
7.0199e-05
5.45414e-05
7.02471e-05
7.02574e-05
6.88685e-05
7.38929e-05
6.88616e-05
7.39068e-05
7.1647e-05
7.16631e-05
6.88747e-05
7.39007e-05
6.88673e-05
7.39137e-05
4.1618e-05
4.16176e-05
4.16147e-05
4.18253e-05
4.18129e-05
4.18353e-05
4.18333e-05
6.11565e-05
6.51662e-05
4.85032e-05
5.2869e-05
6.11396e-05
6.51653e-05
4.85676e-05
7.16495e-05
7.16628e-05
6.11586e-05
4.84994e-05
6.5179e-05
5.28794e-05
6.11397e-05
4.85692e-05
6.5182e-05
7.02706e-05
7.02852e-05
5.47105e-05
7.02652e-05
7.02797e-05
6.88659e-05
7.3929e-05
6.88666e-05
7.39374e-05
7.16818e-05
7.16961e-05
6.88709e-05
7.39333e-05
6.8873e-05
7.39414e-05
4.18602e-05
4.18867e-05
4.18848e-05
4.19665e-05
4.19522e-05
4.19553e-05
4.19599e-05
6.11583e-05
6.51608e-05
4.8669e-05
5.29251e-05
6.11597e-05
6.51695e-05
4.8678e-05
7.16769e-05
7.16907e-05
6.11594e-05
4.86881e-05
6.51716e-05
5.29434e-05
6.11627e-05
4.86976e-05
6.51685e-05
7.02766e-05
7.02865e-05
5.47549e-05
7.02902e-05
7.02984e-05
6.88422e-05
7.39304e-05
6.88569e-05
7.3927e-05
7.17052e-05
7.17182e-05
6.88413e-05
7.39369e-05
6.88552e-05
7.3934e-05
4.19827e-05
4.19768e-05
4.19826e-05
4.20258e-05
4.20546e-05
4.20319e-05
4.20335e-05
6.11196e-05
6.51744e-05
4.87055e-05
5.29427e-05
6.11357e-05
6.51416e-05
4.87096e-05
7.17013e-05
7.17176e-05
6.11032e-05
4.8697e-05
6.51535e-05
5.29212e-05
6.11242e-05
4.86943e-05
6.5129e-05
7.02829e-05
7.02907e-05
5.47201e-05
7.02222e-05
7.02339e-05
6.87892e-05
7.39627e-05
6.8794e-05
7.40134e-05
7.17462e-05
7.17689e-05
6.87955e-05
7.39687e-05
6.87998e-05
7.4019e-05
4.20661e-05
4.20461e-05
4.2047e-05
4.21137e-05
4.21127e-05
4.21239e-05
4.21336e-05
6.107e-05
6.50841e-05
4.87046e-05
5.29129e-05
6.10771e-05
6.50914e-05
4.87004e-05
7.17471e-05
7.17697e-05
6.10664e-05
4.8689e-05
6.50849e-05
5.29021e-05
6.1071e-05
4.86882e-05
6.50984e-05
7.01866e-05
7.02001e-05
5.46959e-05
7.02632e-05
7.02781e-05
6.89062e-05
7.40331e-05
6.88617e-05
7.39954e-05
7.17607e-05
7.17433e-05
6.8913e-05
7.4039e-05
6.88678e-05
7.4002e-05
4.21489e-05
4.21654e-05
4.2173e-05
4.22361e-05
4.22107e-05
4.22252e-05
4.22233e-05
6.11453e-05
6.5204e-05
4.8733e-05
5.29527e-05
6.11148e-05
6.52241e-05
4.87474e-05
7.17598e-05
7.17411e-05
6.11508e-05
4.87477e-05
6.52138e-05
5.29712e-05
6.11213e-05
4.87615e-05
6.52353e-05
7.0414e-05
7.04274e-05
5.48105e-05
7.04044e-05
7.04169e-05
6.86151e-05
7.38885e-05
6.87697e-05
7.38873e-05
7.17178e-05
7.17545e-05
6.86154e-05
7.38944e-05
6.87731e-05
7.38924e-05
4.22108e-05
4.22243e-05
4.22209e-05
4.21107e-05
4.21271e-05
4.2123e-05
4.21142e-05
6.08498e-05
6.50302e-05
4.87463e-05
5.28214e-05
6.10405e-05
6.4852e-05
4.87037e-05
7.17134e-05
7.17506e-05
6.08432e-05
4.87577e-05
6.50325e-05
5.28213e-05
6.10379e-05
4.87083e-05
6.48474e-05
7.01081e-05
7.01181e-05
5.44843e-05
6.9957e-05
6.99663e-05
6.859e-05
7.39996e-05
6.84857e-05
7.41099e-05
7.18403e-05
7.1892e-05
6.85884e-05
7.40043e-05
6.84828e-05
7.41153e-05
4.21067e-05
4.21003e-05
4.20941e-05
4.20815e-05
4.2108e-05
4.21011e-05
4.21003e-05
6.07196e-05
6.47988e-05
4.84955e-05
5.2632e-05
6.06776e-05
6.49325e-05
4.84789e-05
7.18385e-05
7.18919e-05
6.07082e-05
4.84876e-05
6.47852e-05
5.26195e-05
6.0667e-05
4.84705e-05
6.49209e-05
7.00315e-05
7.00408e-05
5.43883e-05
7.02249e-05
7.02357e-05
6.89562e-05
7.41476e-05
6.88716e-05
7.41219e-05
7.18781e-05
7.18694e-05
6.89639e-05
7.41544e-05
6.88759e-05
7.41289e-05
4.21597e-05
4.2155e-05
4.21635e-05
4.24637e-05
4.24403e-05
4.24454e-05
4.24548e-05
6.11674e-05
6.524e-05
4.86057e-05
5.29415e-05
6.10658e-05
6.52412e-05
4.8717e-05
7.18782e-05
7.18689e-05
6.11708e-05
4.86017e-05
6.52463e-05
5.29451e-05
6.10656e-05
4.87178e-05
6.52508e-05
7.04596e-05
7.04742e-05
5.48478e-05
7.04325e-05
7.04476e-05
6.8687e-05
7.40159e-05
6.88344e-05
7.40086e-05
7.18101e-05
7.18369e-05
6.86899e-05
7.4021e-05
6.88414e-05
7.40136e-05
4.24754e-05
4.24814e-05
4.2489e-05
4.24607e-05
4.24386e-05
4.24433e-05
4.24475e-05
6.089e-05
6.51078e-05
4.88323e-05
5.29561e-05
6.10969e-05
6.4935e-05
4.88231e-05
7.1808e-05
7.18357e-05
6.08865e-05
4.88379e-05
6.51133e-05
5.29619e-05
6.10998e-05
4.88284e-05
6.49314e-05
7.02411e-05
7.02525e-05
5.46715e-05
7.01306e-05
7.01405e-05
6.85213e-05
7.3991e-05
6.85278e-05
7.40297e-05
7.1819e-05
7.18705e-05
6.85244e-05
7.39963e-05
6.853e-05
7.40349e-05
4.23898e-05
4.23942e-05
4.23904e-05
4.21519e-05
4.21751e-05
4.21784e-05
4.21676e-05
6.06314e-05
6.48988e-05
4.85995e-05
5.25795e-05
6.06913e-05
6.47962e-05
4.84808e-05
7.1819e-05
7.18702e-05
6.06303e-05
4.86006e-05
6.48958e-05
5.25805e-05
6.0687e-05
4.84821e-05
6.47954e-05
7.01116e-05
7.01228e-05
5.43399e-05
7.00413e-05
7.00535e-05
6.84992e-05
7.40105e-05
6.84954e-05
7.40832e-05
7.18414e-05
7.19188e-05
6.85023e-05
7.40149e-05
6.84991e-05
7.40874e-05
4.21565e-05
4.21591e-05
4.21501e-05
4.17444e-05
4.17544e-05
4.17508e-05
4.17582e-05
6.05455e-05
6.48983e-05
4.83492e-05
5.24495e-05
6.06129e-05
6.47006e-05
4.8275e-05
7.18401e-05
7.19178e-05
6.05424e-05
4.83505e-05
6.48974e-05
5.24491e-05
6.06118e-05
4.82745e-05
6.46967e-05
7.00577e-05
7.00698e-05
5.42549e-05
6.9933e-05
6.9944e-05
6.4652e-05
7.38103e-05
6.82927e-05
7.46582e-05
7.17827e-05
6.62479e-05
6.46513e-05
7.38129e-05
6.82935e-05
7.46632e-05
2.98076e-05
3.61756e-05
3.61731e-05
4.31894e-05
3.01086e-05
3.70637e-05
3.70608e-05
6.03759e-05
6.45915e-05
4.81268e-05
5.02097e-05
6.03783e-05
6.63373e-05
4.63469e-05
7.17817e-05
6.62453e-05
6.03692e-05
4.81223e-05
6.45837e-05
5.02006e-05
6.03714e-05
4.63417e-05
6.63304e-05
6.94557e-05
6.94649e-05
5.36764e-05
7.06439e-05
7.06531e-05
7.12044e-05
7.12072e-05
5.37637e-05
6.99715e-05
6.99822e-05
7.12368e-05
7.12071e-05
7.12396e-05
7.12098e-05
5.37919e-05
6.99498e-05
6.99598e-05
6.99613e-05
6.99718e-05
6.8644e-05
7.34552e-05
6.07673e-05
5.16924e-05
6.4882e-05
4.69984e-05
6.07679e-05
5.16841e-05
6.48759e-05
4.69967e-05
6.8639e-05
7.34804e-05
7.34551e-05
6.86353e-05
6.8641e-05
7.34867e-05
7.3459e-05
6.86373e-05
6.07662e-05
5.17242e-05
6.48554e-05
4.70964e-05
6.48708e-05
4.70611e-05
6.07715e-05
6.07668e-05
5.17114e-05
6.48552e-05
4.70914e-05
6.48648e-05
4.70571e-05
6.07722e-05
5.37527e-05
6.99683e-05
6.99507e-05
7.12023e-05
7.12401e-05
7.12085e-05
5.37782e-05
6.99575e-05
6.99446e-05
6.99595e-05
6.99437e-05
7.12378e-05
7.12053e-05
6.0768e-05
5.16904e-05
6.48855e-05
4.69948e-05
6.86422e-05
7.34499e-05
6.07645e-05
5.16747e-05
4.69892e-05
6.4869e-05
6.86424e-05
7.3486e-05
7.34612e-05
6.86398e-05
6.07671e-05
5.17227e-05
6.48595e-05
4.70975e-05
6.48748e-05
4.70598e-05
6.07735e-05
6.86395e-05
7.34817e-05
7.34536e-05
6.86372e-05
6.07637e-05
5.17053e-05
4.70911e-05
6.48473e-05
4.70534e-05
6.4859e-05
6.07706e-05
6.86402e-05
7.34546e-05
6.07598e-05
5.16746e-05
4.69907e-05
6.48645e-05
6.86376e-05
7.34519e-05
6.07612e-05
5.17087e-05
6.48494e-05
4.70806e-05
6.48577e-05
4.70493e-05
6.07673e-05
6.86373e-05
7.34869e-05
7.34586e-05
6.86339e-05
6.07589e-05
5.16998e-05
4.7078e-05
6.48459e-05
4.70464e-05
6.48542e-05
6.07651e-05
6.86346e-05
7.3485e-05
7.34561e-05
6.86312e-05
5.37443e-05
6.99616e-05
6.99591e-05
7.12051e-05
7.12391e-05
7.1207e-05
5.37727e-05
6.99455e-05
6.99436e-05
6.99531e-05
6.99498e-05
7.12398e-05
7.12081e-05
6.07593e-05
5.1673e-05
4.6988e-05
6.48694e-05
6.86366e-05
7.34533e-05
6.86387e-05
7.34546e-05
6.0758e-05
5.17055e-05
4.70822e-05
6.48516e-05
4.70477e-05
6.48618e-05
6.0765e-05
6.07586e-05
5.16983e-05
4.70794e-05
6.48503e-05
4.70458e-05
6.4859e-05
6.07653e-05
6.86341e-05
7.34843e-05
7.3457e-05
6.8631e-05
6.86359e-05
7.34893e-05
7.34589e-05
6.86325e-05
7.12045e-05
7.12074e-05
5.3768e-05
6.99428e-05
6.9954e-05
6.99433e-05
6.99555e-05
7.12406e-05
7.12077e-05
7.12437e-05
7.12107e-05
7.12413e-05
7.12767e-05
7.12441e-05
7.12797e-05
6.99508e-05
6.99606e-05
5.37941e-05
6.99955e-05
7.00047e-05
7.13103e-05
7.12809e-05
7.13133e-05
7.12839e-05
5.38316e-05
7.00648e-05
7.00764e-05
7.00089e-05
7.00184e-05
6.86321e-05
7.34931e-05
6.86326e-05
7.35298e-05
6.07713e-05
6.48519e-05
4.71179e-05
5.17557e-05
6.0768e-05
6.48679e-05
4.71413e-05
6.07726e-05
6.48542e-05
4.71137e-05
5.17505e-05
6.07688e-05
6.48853e-05
4.71406e-05
6.86329e-05
7.35647e-05
7.35301e-05
6.86883e-05
6.86352e-05
7.35664e-05
7.35363e-05
6.86908e-05
6.07739e-05
5.1784e-05
6.49532e-05
4.72483e-05
6.48792e-05
4.71833e-05
6.08275e-05
6.07756e-05
5.17971e-05
6.49649e-05
4.72541e-05
6.48983e-05
4.71871e-05
6.08303e-05
6.99668e-05
6.99599e-05
5.3796e-05
7.00252e-05
7.0017e-05
7.12424e-05
7.12754e-05
7.1308e-05
7.12818e-05
5.38414e-05
7.00746e-05
7.0062e-05
7.0039e-05
7.00327e-05
7.13039e-05
7.12784e-05
6.0774e-05
6.4856e-05
4.71202e-05
5.1755e-05
6.07702e-05
6.48716e-05
4.71436e-05
6.86321e-05
7.34885e-05
6.86326e-05
7.35275e-05
6.07721e-05
4.71154e-05
6.48462e-05
5.17491e-05
6.07675e-05
4.71419e-05
6.48766e-05
6.86363e-05
7.35718e-05
7.35363e-05
6.86924e-05
6.07765e-05
5.17837e-05
6.49585e-05
4.72492e-05
6.48831e-05
4.71845e-05
6.08302e-05
6.8635e-05
7.35662e-05
7.35346e-05
6.86914e-05
6.07751e-05
5.1797e-05
4.72546e-05
6.4967e-05
4.71872e-05
6.48912e-05
6.08302e-05
6.86325e-05
7.34934e-05
6.86294e-05
7.35302e-05
6.07691e-05
4.71008e-05
6.48456e-05
5.1745e-05
6.0762e-05
4.71322e-05
6.48842e-05
6.86305e-05
7.34917e-05
6.86269e-05
7.35296e-05
6.07765e-05
5.17986e-05
6.49649e-05
4.72601e-05
6.49012e-05
4.71863e-05
6.08426e-05
6.86383e-05
7.35652e-05
7.35366e-05
6.87002e-05
6.07749e-05
5.18012e-05
4.72618e-05
6.49722e-05
4.71864e-05
6.48991e-05
6.08423e-05
6.86366e-05
7.35661e-05
7.35363e-05
6.86998e-05
6.99521e-05
6.99501e-05
5.3796e-05
7.00145e-05
7.0015e-05
7.12448e-05
7.12799e-05
7.13093e-05
7.1283e-05
5.38412e-05
7.00799e-05
7.00795e-05
7.00342e-05
7.0032e-05
7.13094e-05
7.12835e-05
6.077e-05
4.71035e-05
6.485e-05
5.17449e-05
6.07626e-05
4.71344e-05
6.48894e-05
6.86295e-05
7.34908e-05
6.86269e-05
7.35291e-05
6.86318e-05
7.34963e-05
6.86285e-05
7.35353e-05
6.07743e-05
5.1798e-05
4.72595e-05
6.4972e-05
4.71857e-05
6.4895e-05
6.08396e-05
6.07757e-05
5.18017e-05
4.72616e-05
6.49788e-05
4.71871e-05
6.49045e-05
6.08424e-05
6.86351e-05
7.35679e-05
7.35361e-05
6.86966e-05
6.86378e-05
7.35707e-05
7.35419e-05
6.86999e-05
7.12455e-05
7.12796e-05
7.12486e-05
7.1283e-05
5.38431e-05
7.00752e-05
7.00885e-05
7.00328e-05
7.00439e-05
7.13086e-05
7.1283e-05
7.13119e-05
7.12864e-05
7.13129e-05
7.13356e-05
7.13158e-05
7.13378e-05
7.00735e-05
7.00856e-05
5.40542e-05
7.01073e-05
7.01199e-05
7.13537e-05
7.1337e-05
7.13553e-05
7.13391e-05
5.4114e-05
7.01458e-05
7.01554e-05
7.01139e-05
7.01261e-05
6.87503e-05
7.35706e-05
6.87023e-05
7.35937e-05
6.09282e-05
6.49659e-05
4.733e-05
5.20199e-05
6.08451e-05
6.50154e-05
4.74166e-05
6.09279e-05
6.49729e-05
4.73341e-05
5.20086e-05
6.08475e-05
6.49977e-05
4.74159e-05
6.87541e-05
7.36215e-05
7.35995e-05
6.8773e-05
6.87539e-05
7.36264e-05
7.35984e-05
6.87725e-05
6.09393e-05
5.20905e-05
6.50503e-05
4.75752e-05
6.50208e-05
4.75002e-05
6.09812e-05
6.09385e-05
5.20632e-05
6.50269e-05
4.75655e-05
6.49996e-05
4.7494e-05
6.09791e-05
7.00782e-05
7.00656e-05
5.4035e-05
7.00822e-05
7.00673e-05
7.13059e-05
7.13294e-05
7.13596e-05
7.1336e-05
5.40831e-05
7.01296e-05
7.0115e-05
7.00846e-05
7.0069e-05
7.13563e-05
7.13318e-05
6.09363e-05
6.4972e-05
4.7332e-05
5.20216e-05
6.08483e-05
6.50231e-05
4.74213e-05
6.87562e-05
7.35702e-05
6.87037e-05
7.35906e-05
6.09342e-05
4.73382e-05
6.49779e-05
5.20288e-05
6.08482e-05
4.74253e-05
6.50108e-05
6.87626e-05
7.3625e-05
7.36054e-05
6.87766e-05
6.09479e-05
5.20937e-05
6.50556e-05
4.75848e-05
6.50287e-05
4.75077e-05
6.09887e-05
6.87596e-05
7.36173e-05
7.35943e-05
6.87739e-05
6.09453e-05
5.20889e-05
4.75808e-05
6.50291e-05
4.75081e-05
6.50128e-05
6.09848e-05
6.87526e-05
7.35693e-05
6.87109e-05
7.35921e-05
6.09354e-05
4.73488e-05
6.49811e-05
5.20376e-05
6.08601e-05
4.74344e-05
6.50099e-05
6.87531e-05
7.35702e-05
6.87107e-05
7.35922e-05
6.09428e-05
5.20673e-05
6.50219e-05
4.75701e-05
6.49942e-05
4.75027e-05
6.09764e-05
6.8755e-05
7.36257e-05
7.35969e-05
6.87699e-05
6.09438e-05
5.2097e-05
4.75804e-05
6.50369e-05
4.75126e-05
6.50124e-05
6.09772e-05
6.87555e-05
7.36204e-05
7.35963e-05
6.87698e-05
7.0088e-05
7.00863e-05
5.40572e-05
7.00969e-05
7.00967e-05
7.13114e-05
7.13317e-05
7.13537e-05
7.1333e-05
5.41073e-05
7.01241e-05
7.01181e-05
7.00989e-05
7.00974e-05
7.13535e-05
7.13333e-05
6.09398e-05
4.73494e-05
6.49879e-05
5.20386e-05
6.08606e-05
4.74373e-05
6.5017e-05
6.87542e-05
7.3572e-05
6.87085e-05
7.35925e-05
6.87563e-05
7.35745e-05
6.87115e-05
7.35957e-05
6.09476e-05
5.20943e-05
4.75848e-05
6.50305e-05
4.7516e-05
6.50159e-05
6.09803e-05
6.09488e-05
5.20992e-05
4.75883e-05
6.50425e-05
4.75183e-05
6.50193e-05
6.0982e-05
6.87569e-05
7.36185e-05
7.35961e-05
6.87691e-05
6.8759e-05
7.36242e-05
7.35998e-05
6.8772e-05
7.13106e-05
7.13324e-05
7.13138e-05
7.13349e-05
5.41149e-05
7.01334e-05
7.01442e-05
7.00975e-05
7.01108e-05
7.13539e-05
7.13342e-05
7.1356e-05
7.13366e-05
7.13538e-05
7.13647e-05
7.13554e-05
7.13666e-05
7.01535e-05
7.01621e-05
5.42267e-05
7.01728e-05
7.01795e-05
7.13715e-05
7.13636e-05
7.13744e-05
7.13657e-05
5.42602e-05
7.01597e-05
7.01655e-05
7.01746e-05
7.0181e-05
6.87868e-05
7.36308e-05
6.87743e-05
7.36466e-05
6.10138e-05
6.50555e-05
4.76423e-05
5.22566e-05
6.09871e-05
6.50764e-05
4.77049e-05
6.1016e-05
6.5037e-05
4.76331e-05
5.22505e-05
6.09853e-05
6.509e-05
4.77002e-05
6.87841e-05
7.36331e-05
7.36332e-05
6.8791e-05
6.87869e-05
7.36462e-05
7.36464e-05
6.87947e-05
6.1015e-05
5.23e-05
6.50778e-05
4.78263e-05
6.50767e-05
4.77673e-05
6.10271e-05
6.10181e-05
5.23124e-05
6.51072e-05
4.78338e-05
6.50951e-05
4.7769e-05
6.10312e-05
7.01464e-05
7.01351e-05
5.42229e-05
7.01941e-05
7.01826e-05
7.13573e-05
7.13706e-05
7.13797e-05
7.13727e-05
5.42719e-05
7.02098e-05
7.01981e-05
7.02024e-05
7.0192e-05
7.13762e-05
7.13693e-05
6.10113e-05
6.50599e-05
4.76514e-05
5.22583e-05
6.09931e-05
6.50769e-05
4.77108e-05
6.87826e-05
7.36212e-05
6.87741e-05
7.36364e-05
6.10093e-05
4.76448e-05
6.50351e-05
5.22404e-05
6.09894e-05
4.7704e-05
6.50694e-05
6.87837e-05
7.36384e-05
7.36363e-05
6.87895e-05
6.10115e-05
5.22994e-05
6.50781e-05
4.7823e-05
6.50772e-05
4.77682e-05
6.10224e-05
6.8782e-05
7.36381e-05
7.36365e-05
6.87881e-05
6.10098e-05
5.22911e-05
4.7822e-05
6.50811e-05
4.77637e-05
6.5073e-05
6.10212e-05
6.87866e-05
7.36302e-05
6.87719e-05
7.3646e-05
6.1012e-05
4.76416e-05
6.50438e-05
5.22485e-05
6.09826e-05
4.7701e-05
6.50767e-05
6.87835e-05
7.36238e-05
6.87714e-05
7.36358e-05
6.10178e-05
5.23124e-05
6.51058e-05
4.78314e-05
6.50932e-05
4.77658e-05
6.10319e-05
6.87868e-05
7.36455e-05
7.36459e-05
6.87949e-05
6.10144e-05
5.2296e-05
4.78243e-05
6.50825e-05
4.77632e-05
6.50786e-05
6.10277e-05
6.87836e-05
7.3636e-05
7.36355e-05
6.87913e-05
7.01367e-05
7.0129e-05
5.42113e-05
7.01677e-05
7.01629e-05
7.13545e-05
7.13686e-05
7.13774e-05
7.13676e-05
5.425e-05
7.01777e-05
7.01748e-05
7.01741e-05
7.01687e-05
7.1378e-05
7.13682e-05
6.10094e-05
4.76494e-05
6.50489e-05
5.22501e-05
6.09867e-05
4.77057e-05
6.50795e-05
6.87789e-05
7.36222e-05
6.877e-05
7.36373e-05
6.87817e-05
7.36277e-05
6.87731e-05
7.364e-05
6.10088e-05
5.2291e-05
4.78189e-05
6.50822e-05
4.77599e-05
6.50731e-05
6.10203e-05
6.10103e-05
5.22955e-05
4.78202e-05
6.5085e-05
4.77633e-05
6.50812e-05
6.10215e-05
6.8779e-05
7.364e-05
7.36377e-05
6.8785e-05
6.87817e-05
7.36399e-05
7.36397e-05
6.87871e-05
7.13544e-05
7.13662e-05
7.13565e-05
7.13686e-05
5.42549e-05
7.01705e-05
7.01787e-05
7.01773e-05
7.0185e-05
7.13729e-05
7.13652e-05
7.13759e-05
7.13677e-05
7.13703e-05
7.13864e-05
7.13735e-05
7.13903e-05
7.01379e-05
7.01447e-05
5.42777e-05
7.00802e-05
7.00903e-05
7.14254e-05
7.13897e-05
7.14289e-05
7.13935e-05
5.42862e-05
7.00293e-05
7.00432e-05
7.00608e-05
7.00721e-05
6.87932e-05
7.36432e-05
6.87939e-05
7.36388e-05
6.10261e-05
6.5071e-05
4.78766e-05
5.23642e-05
6.10257e-05
6.50339e-05
4.79129e-05
6.10318e-05
6.51047e-05
4.78879e-05
5.2396e-05
6.10302e-05
6.50686e-05
4.79264e-05
6.87786e-05
7.36576e-05
7.36322e-05
6.8752e-05
6.87846e-05
7.36553e-05
7.36382e-05
6.87555e-05
6.10196e-05
5.23646e-05
6.49732e-05
4.79411e-05
6.5009e-05
4.79338e-05
6.09921e-05
6.10255e-05
5.23962e-05
6.49858e-05
4.79545e-05
6.50379e-05
4.79482e-05
6.09961e-05
7.01978e-05
7.01858e-05
5.43217e-05
7.01195e-05
7.01046e-05
7.13735e-05
7.13828e-05
7.14206e-05
7.13884e-05
5.43288e-05
7.00424e-05
7.00281e-05
7.00934e-05
7.00803e-05
7.14169e-05
7.13844e-05
6.10203e-05
6.50714e-05
4.78707e-05
5.23607e-05
6.10203e-05
6.50358e-05
4.79061e-05
6.87851e-05
7.36366e-05
6.87865e-05
7.36359e-05
6.10203e-05
4.78736e-05
6.50792e-05
5.23793e-05
6.10194e-05
4.79122e-05
6.5052e-05
6.87783e-05
7.36656e-05
7.36403e-05
6.87586e-05
6.10142e-05
5.23611e-05
6.498e-05
4.79349e-05
6.50127e-05
4.7927e-05
6.09953e-05
6.87782e-05
7.36562e-05
7.36362e-05
6.87573e-05
6.10145e-05
5.2382e-05
4.79449e-05
6.49853e-05
4.79358e-05
6.50277e-05
6.09953e-05
6.87944e-05
7.36424e-05
6.87943e-05
7.36379e-05
6.10289e-05
4.78778e-05
6.50777e-05
5.23725e-05
6.10267e-05
4.79171e-05
6.5041e-05
6.87899e-05
7.36342e-05
6.87904e-05
7.36333e-05
6.10279e-05
5.2398e-05
6.49815e-05
4.79581e-05
6.50335e-05
4.79509e-05
6.09992e-05
6.87865e-05
7.36543e-05
7.36373e-05
6.87569e-05
6.10229e-05
5.23737e-05
4.79492e-05
6.49741e-05
4.79406e-05
6.50143e-05
6.09959e-05
6.87819e-05
7.36576e-05
7.3634e-05
6.87542e-05
7.01686e-05
7.01675e-05
5.43001e-05
7.0107e-05
7.01087e-05
7.13768e-05
7.13891e-05
7.1423e-05
7.13907e-05
5.43138e-05
7.00462e-05
7.00452e-05
7.00878e-05
7.00874e-05
7.14231e-05
7.13914e-05
6.10208e-05
4.78713e-05
6.50802e-05
5.2369e-05
6.102e-05
4.79097e-05
6.50443e-05
6.87823e-05
7.36391e-05
6.87837e-05
7.36395e-05
6.87829e-05
7.36377e-05
6.87857e-05
7.36368e-05
6.10155e-05
5.23859e-05
4.79494e-05
6.49915e-05
4.7939e-05
6.50341e-05
6.09961e-05
6.10151e-05
5.23702e-05
4.79424e-05
6.498e-05
4.79333e-05
6.50185e-05
6.09943e-05
6.87758e-05
7.3659e-05
7.36397e-05
6.87544e-05
6.87752e-05
7.36623e-05
7.36378e-05
6.87529e-05
7.13713e-05
7.13853e-05
7.13745e-05
7.13893e-05
5.4297e-05
7.00265e-05
7.00411e-05
7.0063e-05
7.00759e-05
7.14238e-05
7.13884e-05
7.14276e-05
7.13924e-05
7.1432e-05
7.14788e-05
7.14353e-05
7.14812e-05
7.00277e-05
7.00421e-05
5.42286e-05
7.00888e-05
7.01038e-05
7.15172e-05
7.14847e-05
7.15188e-05
7.14868e-05
5.42599e-05
7.02253e-05
7.02358e-05
7.01183e-05
7.01321e-05
6.87254e-05
7.36625e-05
6.87412e-05
7.3711e-05
6.09599e-05
6.49636e-05
4.79417e-05
5.23505e-05
6.09764e-05
6.49733e-05
4.79414e-05
6.09599e-05
6.49683e-05
4.79543e-05
5.23626e-05
6.09788e-05
6.49581e-05
4.79516e-05
6.87237e-05
7.37788e-05
7.37276e-05
6.87805e-05
6.87231e-05
7.37799e-05
7.37227e-05
6.87774e-05
6.09552e-05
5.23536e-05
6.50996e-05
4.79534e-05
6.49876e-05
4.79429e-05
6.09905e-05
6.09545e-05
5.23603e-05
6.50699e-05
4.7955e-05
6.49642e-05
4.79509e-05
6.09854e-05
7.00327e-05
7.00194e-05
5.423e-05