/*--------------------------------*- C++ -*----------------------------------*\
| =========                 |                                                 |
| \\      /  F ield         | OpenFOAM: The Open Source CFD Toolbox           |
|  \\    /   O peration     | Version:  v1906                                 |
|   \\  /    A nd           | Web:      www.OpenFOAM.com                      |
|    \\/     M anipulation  |                                                 |
\*---------------------------------------------------------------------------*/
FoamFile
{
    version     2.0;
    format      ascii;
    class       volScalarField;
    location    "1000";
    object      nut;
}
// * * * * * * * * * * * * * * * * * * * * * * * * * * * * * * * * * * * * * //

dimensions      [0 2 -1 0 0 0 0];


internalField   nonuniform List<scalar> 
43024
(
0.000209697
0.000202125
0.000202108
0.000182891
0.000211006
0.000203262
0.000203249
0.000183744
0.000213893
0.000204558
0.000204677
0.000184783
0.00021632
0.000206195
0.000206066
0.000185635
0.00021778
0.000206636
0.000206567
0.000185713
0.0002184
0.000206193
0.000206338
0.000185848
0.00022168
0.000209072
0.000209051
0.000187702
0.000224035
0.000210009
0.000209983
0.000188039
0.000224231
0.00020944
0.000209412
0.000187457
0.000225084
0.000210265
0.000210211
0.000188162
0.000227492
0.000211252
0.000211409
0.000188927
0.000228896
0.000211844
0.000211796
0.000189144
0.000229499
0.000212145
0.00021198
0.000189128
0.000230625
0.000212395
0.00021247
0.000189482
0.000232428
0.000213708
0.000213826
0.000190393
0.000231608
0.000211985
0.000211921
0.000188168
0.000230974
0.000212855
0.000212793
0.000189685
0.000235159
0.000214919
0.000214976
0.000191322
0.000236019
0.00021384
0.000213827
0.000189661
0.000234095
0.000212736
0.000212737
0.000189068
0.000235728
0.00021413
0.000214093
0.000192565
0.000183196
0.000202174
0.000202067
0.000183107
0.000202182
0.00020203
0.000202072
0.000201993
0.000183081
0.000202049
0.000202
0.000183041
0.000183076
0.000183388
0.000202224
0.000202123
0.000202582
0.000202755
0.000182968
0.000183554
0.000202234
0.000202093
0.000202592
0.000202701
0.000202048
0.000202791
0.000202735
0.000182952
0.000183522
0.000202058
0.000202728
0.000202746
0.000183553
0.000183554
0.000184775
0.000203064
0.00020321
0.00020439
0.000204148
0.000183709
0.000184575
0.000203071
0.000203202
0.000204431
0.000204337
0.000203247
0.000204192
0.000204392
0.00018371
0.000184719
0.000203255
0.000204387
0.000204426
0.000184756
0.00018482
0.000185687
0.000204783
0.000204529
0.000205807
0.000205861
0.000184628
0.000185744
0.00020483
0.000204645
0.000205818
0.000205745
0.000204722
0.000205884
0.000205783
0.000184738
0.000185589
0.000204764
0.000205765
0.000205794
0.000185647
0.000185651
0.00018582
0.000206074
0.000206171
0.000206422
0.000206681
0.000185773
0.000186034
0.000206081
0.000206043
0.000206408
0.00020655
0.000206062
0.000206715
0.000206485
0.000185605
0.000185978
0.00020607
0.000206589
0.000206473
0.000185867
0.000185659
0.000185754
0.00020638
0.000206599
0.00020617
0.000206233
0.000185876
0.000185511
0.00020637
0.000206521
0.000206192
0.000206244
0.000206443
0.000206274
0.000206188
0.00018583
0.000185627
0.000206433
0.000206293
0.00020619
0.000185681
0.000185949
0.000187628
0.000206549
0.00020616
0.00020867
0.00020856
0.000185559
0.000187619
0.000206638
0.00020631
0.000208691
0.000208584
0.000206417
0.000208586
0.000208664
0.000185712
0.000187572
0.000206492
0.000208613
0.000208694
0.000187634
0.000187684
0.000188127
0.000209051
0.000209041
0.000209807
0.000209917
0.00018772
0.00018824
0.000209063
0.000209015
0.000209804
0.000209847
0.00020907
0.000209954
0.000209882
0.000187654
0.000188214
0.000209089
0.000209892
0.000209887
0.000188198
0.000187971
0.000187699
0.000209863
0.000209967
0.000209455
0.000209462
0.000188075
0.000187675
0.000209866
0.00020993
0.000209476
0.000209441
0.000209947
0.000209497
0.000209453
0.000188057
0.000187669
0.000209955
0.000209484
0.000209471
0.000187669
0.000187502
0.000188093
0.000209405
0.000209407
0.000209705
0.000209759
0.000187472
0.000188143
0.000209425
0.000209373
0.000209697
0.000209654
0.000209389
0.00020978
0.000209659
0.000187451
0.000188083
0.000209406
0.000209671
0.000209658
0.000188078
0.000188155
0.000188936
0.000210188
0.000210243
0.000211124
0.000211077
0.000188199
0.000188936
0.000210183
0.000210185
0.000211161
0.000211214
0.000210179
0.000211132
0.000211192
0.000188181
0.000189046
0.000210184
0.000211253
0.000211215
0.000189003
0.000188872
0.000189386
0.000211307
0.000211201
0.000211773
0.000211631
0.000188837
0.000189203
0.000211349
0.000211367
0.000211816
0.000211659
0.000211355
0.000211659
0.000211705
0.000188959
0.000189207
0.000211388
0.000211694
0.000211744
0.000189266
0.000189266
0.000189262
0.00021194
0.000211818
0.000211973
0.000212167
0.000189137
0.000189446
0.000211971
0.000211769
0.000211965
0.000211965
0.000211831
0.000212194
0.000211993
0.000189084
0.0001893
0.000211857
0.000211991
0.000211979
0.000189299
0.000189066
0.000189327
0.000211902
0.000212108
0.00021207
0.000212145
0.000189289
0.000189364
0.000211897
0.000211947
0.000212085
0.000212169
0.000211968
0.000212199
0.000212228
0.000189148
0.000189409
0.000211955
0.000212239
0.000212254
0.000189442
0.000189419
0.000190911
0.000212414
0.00021235
0.000213697
0.000213414
0.00018936
0.000190558
0.000212439
0.000212419
0.000213731
0.000213546
0.000212461
0.000213462
0.000213646
0.000189423
0.000190655
0.000212492
0.000213597
0.000213689
0.000190669
0.000190652
0.000188589
0.000214008
0.000213692
0.000212143
0.00021221
0.000190332
0.000188736
0.000214046
0.000213806
0.000212161
0.000212162
0.000213794
0.000212227
0.000212091
0.000190413
0.000188669
0.000213833
0.000212182
0.000212102
0.000188578
0.000188155
0.000188917
0.000211828
0.000211955
0.000211347
0.000211705
0.000188341
0.000189234
0.000211842
0.000211891
0.000211342
0.000211597
0.000211844
0.000211814
0.000211729
0.000188263
0.000189154
0.000211852
0.000211698
0.000211727
0.000189232
0.000189456
0.000191712
0.000212564
0.000212761
0.000214624
0.000214501
0.000189655
0.000191412
0.000212563
0.000212701
0.000214642
0.00021453
0.000212833
0.000214553
0.000214589
0.000189609
0.000191474
0.000212841
0.000214586
0.000214612
0.000191473
0.000191601
0.000189921
0.00021514
0.00021489
0.000214384
0.000214193
0.000191258
0.000189884
0.000215167
0.000214942
0.000214407
0.000214179
0.000214972
0.000214182
0.000214218
0.000191319
0.000189849
0.000215
0.000214176
0.000214239
0.000189903
0.000189638
0.00018908
0.000213836
0.000213822
0.000212759
0.000212963
0.000189656
0.00018931
0.000213852
0.000213806
0.000212776
0.000212965
0.000213821
0.000213024
0.000212907
0.000189623
0.000189313
0.000213839
0.000213026
0.000212928
0.000189242
0.000188908
0.00019057
0.000212507
0.000212673
0.000215151
0.000215247
0.000189142
0.000190627
0.000212529
0.000212675
0.000215179
0.000215242
0.000212627
0.000215298
0.000215224
0.00018915
0.000190604
0.000212648
0.000215289
0.000215243
0.000190569
0.000192549
0.000214059
0.000214087
0.000192571
0.000214077
0.000214054
0.000235838
0.000235813
0.000235836
0.000214123
0.000192521
0.000214135
0.000100032
5.0748e-05
2.38944e-05
0.000100039
5.07451e-05
0.000209359
0.000209238
0.0002092
0.000209155
0.000144607
0.000201761
0.00010381
0.000211414
2.38923e-05
0.000144594
0.000201701
0.000211348
0.000103818
0.000182857
7.7962e-05
7.79634e-05
9.99665e-05
5.07596e-05
9.99983e-05
5.07721e-05
2.39009e-05
2.39066e-05
9.99698e-05
5.07566e-05
0.00010001
5.07691e-05
0.000209519
0.000209511
0.000209436
0.000210457
0.000210554
0.000210495
0.000210483
0.000144621
0.000103704
0.000212245
0.000202163
0.000144642
0.00010378
0.000212304
2.38988e-05
2.39048e-05
0.000144616
0.00021226
0.000103711
0.00020215
0.000144638
0.000212318
0.000103755
7.78983e-05
7.78949e-05
0.000182998
7.79981e-05
7.79954e-05
0.000100194
5.07884e-05
0.000100071
5.07973e-05
2.3912e-05
2.39159e-05
0.000100213
5.07859e-05
0.000100079
5.07945e-05
0.000211163
0.000211133
0.000211135
0.000213167
0.00021301
0.000213215
0.00021326
0.000145213
0.000103974
0.000213453
0.000203643
0.000144887
0.000104027
0.000214018
2.39102e-05
2.39136e-05
0.00014522
0.000213421
0.000103984
0.00020373
0.000144864
0.000214026
0.000104077
7.80893e-05
7.8091e-05
0.000184294
7.80958e-05
7.80995e-05
0.000100259
5.08074e-05
0.00010023
5.08108e-05
2.39205e-05
2.39227e-05
0.000100264
5.08035e-05
0.000100241
5.08067e-05
0.00021365
0.000213835
0.000213913
0.000215771
0.000215674
0.000215617
0.000215702
0.000145526
0.000104052
0.000215346
0.000205026
0.000145372
0.000104217
0.00021575
2.39175e-05
2.39199e-05
0.000145521
0.000215468
0.000104085
0.000205027
0.000145397
0.000215826
0.00010419
7.81466e-05
7.81439e-05
0.00018516
7.82097e-05
7.82036e-05
0.000100344
5.08101e-05
0.000100302
5.08099e-05
2.39234e-05
2.39248e-05
0.00010033
5.08072e-05
0.000100299
5.08076e-05
0.000216347
0.000216219
0.000216275
0.000217613
0.000217983
0.000217819
0.000217707
0.000145879
0.000104339
0.000217311
0.00020647
0.000145709
0.000104333
0.000217716
2.39211e-05
2.39232e-05
0.000145819
0.00021722
0.000104278
0.000206334
0.000145667
0.000217613
0.000104297
7.82189e-05
7.82123e-05
0.000185976
7.81246e-05
7.81233e-05
0.000100155
5.08212e-05
0.000100231
5.08385e-05
2.39313e-05
2.39392e-05
0.000100174
5.08189e-05
0.000100246
5.08354e-05
0.000218194
0.000218034
0.000217885
0.000217955
0.000217913
0.000217909
0.000217906
0.000145658
0.000104046
0.000218329
0.000206546
0.000145769
0.000103945
0.000218326
2.39297e-05
2.39373e-05
0.000145669
0.000218223
0.000104062
0.000206509
0.000145757
0.000218236
0.000103981
7.79488e-05
7.79527e-05
0.000185576
7.7986e-05
7.79926e-05
0.000100433
5.08627e-05
0.000100209
5.08705e-05
2.39473e-05
2.39499e-05
0.000100439
5.08589e-05
0.000100233
5.08667e-05
0.00021791
0.000218213
0.000218319
0.000220787
0.000220524
0.00022064
0.000220755
0.000146111
0.000104148
0.000217992
0.000206861
0.000145539
0.00010446
0.000218337
2.39448e-05
2.39473e-05
0.00014613
0.000218068
0.000104182
0.000207093
0.00014559
0.000218621
0.000104461
7.82089e-05
7.82088e-05
0.00018677
7.83321e-05
7.8327e-05
0.000100599
5.08688e-05
0.000100532
5.08647e-05
2.39495e-05
2.39496e-05
0.000100591
5.08658e-05
0.000100525
5.08623e-05
0.000221573
0.000221604
0.000221687
0.00022372
0.000223849
0.000223786
0.0002238
0.000146766
0.000104639
0.000221166
0.000209428
0.000146538
0.000104684
0.0002217
2.39472e-05
2.39475e-05
0.000146726
0.000221184
0.000104604
0.000209368
0.000146509
0.000221684
0.00010466
7.83936e-05
7.83861e-05
0.000188225
7.83372e-05
7.83361e-05
0.000100348
5.08624e-05
0.000100421
5.08689e-05
2.39512e-05
2.39556e-05
0.000100364
5.08597e-05
0.000100436
5.08657e-05
0.000224186
0.000224124
0.000224127
0.000224241
0.000224353
0.000224311
0.000224308
0.000146444
0.00010438
0.00022266
0.000209816
0.000146606
0.000104281
0.000222761
2.39488e-05
2.3953e-05
0.000146444
0.000222611
0.000104406
0.000209819
0.000146597
0.000222729
0.000104304
7.81536e-05
7.81578e-05
0.000187905
7.80896e-05
7.80915e-05
0.000100329
5.08839e-05
0.00010026
5.08936e-05
2.3962e-05
2.39658e-05
0.000100323
5.08803e-05
0.000100269
5.08903e-05
0.000224326
0.000224286
0.000224284
0.000224521
0.000224467
0.000224385
0.000224381
0.000146284
0.000104211
0.000222403
0.000209422
0.000146228
0.000104379
0.000222368
2.39597e-05
2.39642e-05
0.000146247
0.000222391
0.000104182
0.000209376
0.000146217
0.000222352
0.000104332
7.81063e-05
7.80984e-05
0.000187619
7.82047e-05
7.81996e-05
0.00010043
5.08999e-05
0.000100411
5.09047e-05
2.39684e-05
2.3971e-05
0.000100441
5.08974e-05
0.00010042
5.09018e-05
0.000225115
0.000225015
0.000225005
0.000226933
0.000226924
0.000227052
0.000227009
0.000146689
0.000104468
0.000222986
0.000210626
0.000146555
0.000104482
0.000223577
2.39669e-05
2.39691e-05
0.000146692
0.000222906
0.000104485
0.000210628
0.000146539
0.000223538
0.000104515
7.8245e-05
7.82483e-05
0.000188619
7.82317e-05
7.82353e-05
0.000100426
5.09124e-05
0.000100417
5.09154e-05
2.39742e-05
2.39766e-05
0.00010044
5.09086e-05
0.000100434
5.09115e-05
0.000227378
0.000227607
0.000227563
0.000228556
0.000228345
0.000228445
0.000228487
0.000146813
0.000104442
0.000224698
0.000211349
0.000146746
0.000104478
0.000224888
2.39714e-05
2.39737e-05
0.000146833
0.000224827
0.000104481
0.000211527
0.000146765
0.000225066
0.000104492
7.82185e-05
7.82161e-05
0.000189199
7.82477e-05
7.82419e-05
0.000100435
5.09132e-05
0.000100434
5.09118e-05
2.39781e-05
2.39803e-05
0.000100427
5.09101e-05
0.000100431
5.0909e-05
0.000228694
0.000228706
0.000228777
0.000229443
0.000229644
0.000229403
0.000229413
0.000146885
0.000104537
0.000225507
0.000212035
0.000146828
0.000104513
0.000225756
2.39755e-05
2.39782e-05
0.000146819
0.00022549
0.00010449
0.000211904
0.000146797
0.000225663
0.000104473
7.82739e-05
7.82655e-05
0.000189335
7.81763e-05
7.81746e-05
0.000100216
5.09234e-05
0.000100282
5.09409e-05
2.39848e-05
2.39887e-05
0.000100227
5.09202e-05
0.000100294
5.09375e-05
0.000229791
0.000229557
0.000229549
0.000230078
0.000230232
0.000230241
0.000230315
0.000146621
0.000104296
0.000226123
0.000212111
0.000146725
0.000104241
0.000226134
2.39831e-05
2.39869e-05
0.000146595
0.00022596
0.000104291
0.000211976
0.000146692
0.000225982
0.000104249
7.80177e-05
7.8019e-05
0.000189115
7.80981e-05
7.81021e-05
0.000100531
5.09485e-05
0.000100332
5.09364e-05
2.39876e-05
2.39848e-05
0.000100544
5.09453e-05
0.000100343
5.09334e-05
0.000230614
0.000230685
0.000230747
0.000231935
0.000231702
0.00023183
0.000231912
0.000147068
0.000104516
0.000226467
0.000212568
0.000146713
0.000104739
0.000226671
2.39855e-05
2.39825e-05
0.000147091
0.000226543
0.000104533
0.000212657
0.000146733
0.000226747
0.000104765
7.83841e-05
7.8386e-05
0.000190238
7.85116e-05
7.85131e-05
0.000100128
5.08991e-05
0.000100452
5.08979e-05
2.39802e-05
2.3986e-05
0.000100128
5.08959e-05
0.000100462
5.08944e-05
0.000232098
0.000232246
0.000232293
0.00023191
0.000231897
0.000231881
0.000231787
0.0001467
0.000104498
0.000227987
0.00021331
0.000147292
0.000104043
0.00022814
2.39776e-05
2.39834e-05
0.000146687
0.000228103
0.000104514
0.000213347
0.000147293
0.000228208
0.000104043
7.809e-05
7.80874e-05
0.000189519
7.77873e-05
7.77832e-05
9.97103e-05
5.09351e-05
9.96282e-05
5.09732e-05
2.40002e-05
2.40091e-05
9.97004e-05
5.09314e-05
9.96223e-05
5.09698e-05
0.000231685
0.00023164
0.000231566
0.000230758
0.00023111
0.000230993
0.000230935
0.00014547
0.000103598
0.000226679
0.000211726
0.000145689
0.000103805
0.00022646
2.3998e-05
2.40071e-05
0.000145419
0.000226634
0.000103569
0.000211636
0.000145655
0.000226403
0.000103767
7.76751e-05
7.76698e-05
0.000188065
7.79608e-05
7.79568e-05
0.000100566
5.09876e-05
0.000100287
5.09797e-05
2.40072e-05
2.40058e-05
0.000100578
5.09847e-05
0.000100292
5.09768e-05
0.000231365
0.000231256
0.000231308
0.000234453
0.000234411
0.000234413
0.000234482
0.000147302
0.000104597
0.000226796
0.000213516
0.000146689
0.000104755
0.000227821
2.40053e-05
2.40038e-05
0.000147307
0.00022672
0.000104603
0.000213496
0.000146675
0.000227787
0.000104772
7.83922e-05
7.83955e-05
0.000190682
7.84409e-05
7.84462e-05
0.000100195
5.0943e-05
0.000100501
5.09402e-05
2.39958e-05
2.40001e-05
0.000100202
5.09398e-05
0.000100522
5.09369e-05
0.000235016
0.000235042
0.000235097
0.000236509
0.000236113
0.000236133
0.000236229
0.000146969
0.000104567
0.000229678
0.000215243
0.000147575
0.000104211
0.000230375
2.39935e-05
2.3998e-05
0.000146965
0.000229717
0.000104588
0.000215295
0.000147599
0.000230423
0.000104202
7.81432e-05
7.8143e-05
0.000191006
7.79683e-05
7.79645e-05
9.97773e-05
5.09337e-05
9.98018e-05
5.09469e-05
2.39971e-05
2.40057e-05
9.97812e-05
5.09307e-05
9.98044e-05
5.09439e-05
0.0002358
0.000235813
0.000235853
0.000234292
0.000234477
0.000234485
0.000234399
0.000146031
0.000104019
0.000229472
0.000213337
0.000146197
0.000103876
0.000228799
2.39951e-05
2.40037e-05
0.000146021
0.000229475
0.000104005
0.000213317
0.000146175
0.000228794
0.000103866
7.78703e-05
7.78682e-05
0.000189417
7.77526e-05
7.77528e-05
9.97476e-05
5.0944e-05
9.97291e-05
5.09894e-05
2.40025e-05
2.40241e-05
9.97555e-05
5.09404e-05
9.9738e-05
5.09864e-05
0.000234305
0.000234317
0.000234213
0.00023301
0.000233176
0.000233176
0.000233119
0.000146015
0.00010394
0.00022807
0.000213331
0.000146002
0.000103766
0.00022791
2.40002e-05
2.4022e-05
0.000146015
0.000228064
0.000103938
0.00021335
0.000146004
0.000227912
0.000103761
7.76923e-05
7.76932e-05
0.0001894
7.74516e-05
7.74521e-05
0.000108645
5.50964e-05
0.000100338
8.58813e-05
2.70361e-05
4.6243e-05
0.000108637
5.50925e-05
0.000100337
8.58799e-05
0.000249748
0.000242648
0.000242659
0.000235304
0.000250129
0.000243528
0.000243529
0.000150479
0.000105863
0.000232296
0.000214245
0.000146964
0.000108523
0.000230801
2.70344e-05
4.62377e-05
0.000150445
0.000232284
0.000105845
0.000214172
0.000146944
0.000230762
0.000108502
7.74482e-05
7.74424e-05
0.000197089
8.56049e-05
8.56087e-05
2.38952e-05
2.38939e-05
0.000182946
7.79995e-05
7.79972e-05
2.39006e-05
2.38957e-05
2.38993e-05
2.38944e-05
0.000182947
7.79311e-05
7.79276e-05
7.79736e-05
7.79709e-05
0.000100035
5.07478e-05
0.000144626
0.000201771
0.00010385
0.000211398
0.000144626
0.000201738
0.000103822
0.000211401
0.000100023
5.07576e-05
5.0749e-05
0.00010002
0.000100026
5.07585e-05
5.07491e-05
0.000100023
0.000144625
0.000202051
0.000103768
0.000212237
0.000103811
0.000211938
0.000144703
0.000144624
0.000201971
0.000103745
0.0002122
0.00010378
0.000211917
0.000144702
0.000182914
7.79718e-05
7.79583e-05
2.3895e-05
2.39001e-05
2.38949e-05
0.000182894
7.79103e-05
7.79034e-05
7.79446e-05
7.79319e-05
2.39008e-05
2.38954e-05
0.000144619
0.000201773
0.000103841
0.000211352
0.000100032
5.074e-05
0.00014461
0.000201669
0.000211323
0.000103801
0.000100032
5.07545e-05
5.07462e-05
0.00010003
0.00014462
0.000202056
0.000103761
0.000212228
0.000103803
0.000211909
0.000144705
0.000100026
5.07508e-05
5.07413e-05
0.000100024
0.000144611
0.00020192
0.00021218
0.000103723
0.000211868
0.000103763
0.000144695
0.000100026
5.0747e-05
0.000144602
0.000201696
0.000211395
0.000103804
0.000100023
5.07436e-05
0.000144605
0.000201982
0.000103734
0.000212134
0.000103768
0.000211889
0.000144676
0.000100017
5.07579e-05
5.07484e-05
0.000100011
0.0001446
0.000201906
0.000212111
0.000103727
0.000211866
0.000103763
0.000144671
0.000100013
5.07548e-05
5.0745e-05
0.000100007
0.000182838
7.79598e-05
7.79767e-05
2.38943e-05
2.3898e-05
2.38927e-05
0.000182836
7.78895e-05
7.79067e-05
7.79329e-05
7.79503e-05
2.39e-05
2.38948e-05
0.000144596
0.000201701
0.000211358
0.000103803
0.000100018
5.07437e-05
0.000100025
5.07433e-05
0.000144592
0.000201944
0.000212129
0.000103745
0.000211853
0.000103782
0.00014467
0.000144595
0.000201912
0.000212109
0.000103725
0.000211846
0.000103762
0.00014467
0.000100008
5.07541e-05
5.07449e-05
0.000100004
0.000100015
5.07551e-05
5.07448e-05
0.000100008
2.3894e-05
2.38936e-05
0.000182836
7.79014e-05
7.79001e-05
7.7936e-05
7.79368e-05
2.38999e-05
2.38945e-05
2.38996e-05
2.38941e-05
2.39013e-05
2.39072e-05
2.39e-05
2.3906e-05
7.79128e-05
7.79087e-05
0.000183083
7.79673e-05
7.79612e-05
2.39129e-05
2.3908e-05
2.39117e-05
2.39067e-05
0.000182996
7.80647e-05
7.80622e-05
7.7974e-05
7.79677e-05
9.99695e-05
5.07606e-05
0.0001
5.07732e-05
0.000144653
0.000103736
0.000212385
0.000202261
0.000144675
0.00010374
0.000212459
0.000144652
0.000103714
0.000212338
0.00020217
0.000144673
0.000103769
0.000212408
9.99473e-05
5.07866e-05
5.07746e-05
0.00010006
9.99513e-05
5.07861e-05
5.07755e-05
0.000100067
0.000144612
0.000202283
0.000103923
0.000212867
0.000103736
0.000212566
0.000144784
0.000144614
0.000202336
0.000103961
0.00021291
0.000103776
0.000212567
0.000144796
7.7906e-05
7.79094e-05
0.000183069
7.80002e-05
7.80049e-05
2.39016e-05
2.39072e-05
2.39116e-05
2.39072e-05
0.000183054
7.808e-05
7.80773e-05
7.80148e-05
7.80232e-05
2.3912e-05
2.39077e-05
0.000144653
0.000103727
0.000212388
0.000202273
0.000144679
0.000103731
0.000212466
9.99655e-05
5.07531e-05
0.000100004
5.07664e-05
0.000144644
0.000212338
0.000103689
0.000202145
0.000144669
0.000212411
0.000103734
9.9954e-05
5.07841e-05
5.07717e-05
0.000100062
0.000144612
0.000202297
0.000103916
0.00021285
0.000103724
0.000212564
0.000144774
9.99511e-05
5.078e-05
5.07689e-05
0.000100061
0.000144608
0.000202294
0.000212875
0.000103947
0.000212547
0.000103739
0.000144778
9.99619e-05
5.07601e-05
9.99865e-05
5.07728e-05
0.000144614
0.000212223
0.000103695
0.000202083
0.000144637
0.000212283
0.000103765
9.99576e-05
5.0757e-05
9.99823e-05
5.07701e-05
0.000144597
0.000202348
0.000103972
0.000212917
0.000103791
0.000212512
0.00014484
9.99507e-05
5.07851e-05
5.0775e-05
0.000100089
0.000144591
0.000202286
0.000212898
0.000103977
0.00021249
0.000103775
0.000144837
9.99466e-05
5.07829e-05
5.07724e-05
0.000100087
7.78748e-05
7.7894e-05
0.000183037
7.79698e-05
7.79919e-05
2.39008e-05
2.39067e-05
2.39099e-05
2.39054e-05
0.000183008
7.80741e-05
7.80953e-05
7.7991e-05
7.80098e-05
2.39118e-05
2.39074e-05
0.000144614
0.000212235
0.000103692
0.000202098
0.000144637
0.000212296
0.000103762
9.99538e-05
5.07563e-05
9.99784e-05
5.07695e-05
9.99584e-05
5.07575e-05
9.99841e-05
5.07709e-05
0.000144584
0.000202299
0.000212876
0.000103972
0.000212492
0.000103761
0.000144816
0.000144587
0.000202306
0.000212883
0.000103978
0.00021249
0.000103772
0.000144824
9.99383e-05
5.07831e-05
5.07719e-05
0.000100074
9.99458e-05
5.07833e-05
5.07732e-05
0.000100082
2.39008e-05
2.39065e-05
2.39004e-05
2.39062e-05
0.000182991
7.80896e-05
7.80903e-05
7.80143e-05
7.80113e-05
2.39115e-05
2.39071e-05
2.39111e-05
2.39068e-05
2.39134e-05
2.39172e-05
2.39121e-05
2.39158e-05
7.80665e-05
7.8065e-05
0.000184197
7.81136e-05
7.81145e-05
2.39203e-05
2.39175e-05
2.39188e-05
2.39161e-05
0.000184327
7.81606e-05
7.81578e-05
7.81112e-05
7.81119e-05
0.000100195
5.07875e-05
0.000100078
5.07955e-05
0.000145176
0.000103933
0.000213337
0.000203552
0.000144823
0.000104066
0.000213897
0.000145178
0.000103966
0.000213393
0.000203582
0.000144835
0.000104029
0.000213931
0.000100192
5.08064e-05
5.07988e-05
0.000100236
0.000100192
5.08067e-05
5.07971e-05
0.000100233
0.000145202
0.000203991
0.000104137
0.000214975
0.00010406
0.000214468
0.000145385
0.000145201
0.000203866
0.000104054
0.000214907
0.000104009
0.000214452
0.000145374
7.80786e-05
7.80742e-05
0.000184182
7.80654e-05
7.80594e-05
2.39123e-05
2.39163e-05
2.39203e-05
2.39163e-05
0.000184219
7.80999e-05
7.80923e-05
7.80472e-05
7.80372e-05
2.39208e-05
2.39167e-05
0.000145192
0.000103927
0.00021332
0.000203565
0.000144815
0.000104067
0.000213891
0.000100208
5.07814e-05
0.000100078
5.07885e-05
0.000145191
0.000213369
0.000103958
0.000203671
0.000144821
0.000213945
0.000104053
0.000100214
5.08027e-05
5.07958e-05
0.000100247
0.000145224
0.000204018
0.000104137
0.000215031
0.000104062
0.00021449
0.000145418
0.000100209
5.07977e-05
5.07898e-05
0.000100242
0.000145221
0.000204041
0.000215023
0.000104073
0.000214521
0.000104039
0.000145407
0.000100204
5.07865e-05
0.0001001
5.07943e-05
0.000145217
0.000213446
0.000103984
0.000203709
0.000144886
0.000214035
0.000104061
0.000100205
5.07843e-05
0.000100099
5.07919e-05
0.000145228
0.000203922
0.00010405
0.000214968
0.000104004
0.000214537
0.000145369
0.000100198
5.08059e-05
5.0796e-05
0.000100227
0.000145234
0.000204079
0.000215045
0.000104101
0.000214587
0.000104047
0.000145376
0.0001002
5.08016e-05
5.07933e-05
0.000100229
7.80797e-05
7.81008e-05
0.000184273
7.80878e-05
7.81101e-05
2.39121e-05
2.39155e-05
2.39173e-05
2.39139e-05
0.000184348
7.81014e-05
7.81124e-05
7.80746e-05
7.80973e-05
2.39192e-05
2.39158e-05
0.000145223
0.000213425
0.000103985
0.000203719
0.000144873
0.000214024
0.000104065
0.000100205
5.07845e-05
0.000100086
5.07916e-05
0.000100209
5.07847e-05
0.000100095
5.07919e-05
0.000145242
0.000204102
0.000215082
0.000104091
0.000214602
0.000104063
0.000145396
0.000145244
0.0002041
0.000215092
0.000104104
0.000214601
0.000104051
0.000145399
0.000100201
5.08005e-05
5.07929e-05
0.000100229
0.000100206
5.08018e-05
5.07934e-05
0.000100235
2.39118e-05
2.39154e-05
2.39114e-05
2.3915e-05
0.000184369
7.81351e-05
7.81342e-05
7.80858e-05
7.80893e-05
2.39191e-05
2.39157e-05
2.39185e-05
2.39153e-05
2.39203e-05
2.39222e-05
2.39188e-05
2.39208e-05
7.81686e-05
7.8164e-05
0.000185225
7.82151e-05
7.82069e-05
2.39233e-05
2.3922e-05
2.39221e-05
2.39206e-05
0.000185251
7.82407e-05
7.82284e-05
7.82219e-05
7.82126e-05
0.000100262
5.08083e-05
0.000100228
5.0814e-05
0.000145537
0.000104139
0.000215413
0.000205165
0.000145391
0.00010422
0.000215839
0.000145536
0.000104055
0.000215319
0.000205005
0.000145381
0.000104216
0.000215756
0.000100257
5.08108e-05
5.08107e-05
0.000100302
0.000100259
5.0814e-05
5.0814e-05
0.000100306
0.000145537
0.00020551
0.000104293
0.000216829
0.000104219
0.000216318
0.000145696
0.000145539
0.000205481
0.000104331
0.00021683
0.000104226
0.000216274
0.0001457
7.8115e-05
7.81125e-05
0.000185102
7.82107e-05
7.82088e-05
2.3921e-05
2.39233e-05
2.39238e-05
2.39226e-05
0.000185194
7.82927e-05
7.82922e-05
7.82274e-05
7.82266e-05
2.39243e-05
2.39231e-05
0.000145539
0.000104136
0.000215489
0.000205201
0.000145421
0.000104208
0.000215901
0.000100259
5.0799e-05
0.000100236
5.08045e-05
0.000145531
0.000215443
0.000104068
0.000205009
0.000145411
0.000215835
0.000104178
0.00010026
5.08075e-05
5.08067e-05
0.000100299
0.000145535
0.000205531
0.000104275
0.000216816
0.000104205
0.000216344
0.00014568
0.000100256
5.08052e-05
5.08046e-05
0.000100295
0.000145528
0.000205399
0.000216772
0.000104264
0.000216279
0.000104182
0.000145674
0.000100259
5.08075e-05
0.000100221
5.08132e-05
0.000145525
0.000215427
0.000104101
0.000205091
0.000145379
0.000215807
0.000104212
0.000100255
5.08028e-05
0.000100222
5.08072e-05
0.000145532
0.000205501
0.000104336
0.000216803
0.000104228
0.000216248
0.000145695
0.000100256
5.08132e-05
5.08132e-05
0.000100304
0.000145528
0.000205462
0.000216781
0.000104295
0.000216264
0.000104214
0.000145688
0.000100253
5.08074e-05
5.08071e-05
0.000100299
7.81109e-05
7.81194e-05
0.000185102
7.81743e-05
7.81871e-05
2.39194e-05
2.39218e-05
2.39214e-05
2.39197e-05
0.000185133
7.82324e-05
7.82468e-05
7.81849e-05
7.81979e-05
2.39234e-05
2.39217e-05
0.000145526
0.000215493
0.000104104
0.000205127
0.000145401
0.000215862
0.000104208
0.000100246
5.08019e-05
0.000100221
5.08073e-05
0.000100252
5.0803e-05
0.000100227
5.08075e-05
0.000145519
0.000205414
0.000216737
0.000104276
0.000216247
0.000104195
0.000145663
0.000145524
0.000205484
0.000216767
0.000104288
0.000216286
0.000104209
0.000145669
0.000100242
5.08083e-05
5.08074e-05
0.000100284
0.000100248
5.08076e-05
5.08074e-05
0.000100289
2.39192e-05
2.39212e-05
2.39186e-05
2.39207e-05
0.000185187
7.82568e-05
7.82488e-05
7.82195e-05
7.82124e-05
2.39224e-05
2.3921e-05
2.3922e-05
2.39206e-05
2.39231e-05
2.39257e-05
2.39219e-05
2.39246e-05
7.8202e-05
7.81909e-05
0.000185933
7.81161e-05
7.81102e-05
2.39321e-05
2.39262e-05
2.39309e-05
2.39251e-05
0.000185803
7.79863e-05
7.79875e-05
7.80729e-05
7.80691e-05
0.000100355
5.08131e-05
0.000100307
5.08115e-05
0.000145857
0.00010428
0.000217289
0.000206269
0.000145704
0.000104249
0.000217654
0.000145875
0.000104335
0.000217325
0.000206443
0.000145711
0.000104335
0.000217718
0.000100325
5.08186e-05
5.08102e-05
0.000100272
0.000100338
5.08166e-05
5.08112e-05
0.000100281
0.000145848
0.00020638
0.000104075
0.000218121
0.000104171
0.000217951
0.00014582
0.000145868
0.000206611
0.000104118
0.00021823
0.000104243
0.000218044
0.000145839
7.82797e-05
7.82764e-05
0.000186188
7.8174e-05
7.81661e-05
2.39238e-05
2.39253e-05
2.39303e-05
2.39251e-05
0.000186063
7.80094e-05
7.80029e-05
7.81196e-05
7.81136e-05
2.39308e-05
2.39255e-05
0.000145815
0.000104259
0.000217252
0.000206266
0.000145683
0.000104229
0.000217601
0.000100329
5.08047e-05
0.000100296
5.08045e-05
0.000145817
0.00021724
0.000104264
0.000206307
0.000145679
0.000217617
0.000104272
0.000100317
5.08163e-05
5.0808e-05
0.000100278
0.000145803
0.00020637
0.000104069
0.000218043
0.000104155
0.000217883
0.000145806
0.000100318
5.08109e-05
5.08045e-05
0.000100277
0.000145808
0.000206468
0.000218116
0.000104094
0.000217925
0.000104196
0.000145811
0.000100357
5.08122e-05
0.000100306
5.08105e-05
0.000145863
0.000217267
0.00010429
0.000206293
0.0001457
0.000217654
0.000104268
0.000100348
5.08068e-05
0.000100301
5.08064e-05
0.000145876
0.000206641
0.000104115
0.000218252
0.000104239
0.000218053
0.000145852
0.000100341
5.08157e-05
5.08103e-05
0.000100285
0.000145859
0.000206425
0.000218165
0.00010408
0.000217972
0.000104185
0.000145839
0.000100332
5.08142e-05
5.08066e-05
0.000100278
7.82198e-05
7.82405e-05
0.000186012
7.81366e-05
7.81627e-05
2.39232e-05
2.39252e-05
2.39288e-05
2.39235e-05
0.000185923
7.80011e-05
7.80218e-05
7.80938e-05
7.81174e-05
2.39307e-05
2.39255e-05
0.000145821
0.00021723
0.000104281
0.000206293
0.000145674
0.000217603
0.000104259
0.000100321
5.0808e-05
0.000100281
5.08081e-05
0.000100324
5.08069e-05
0.000100286
5.08065e-05
0.000145811
0.000206503
0.000218142
0.000104123
0.000217935
0.000104227
0.000145819
0.000145811
0.000206418
0.00021809
0.000104077
0.000217906
0.000104178
0.00014581
0.000100304
5.08144e-05
5.08081e-05
0.00010027
0.000100303
5.08147e-05
5.08067e-05
0.000100265
2.39221e-05
2.39243e-05
2.39217e-05
2.39241e-05
0.000185854
7.79845e-05
7.79875e-05
7.8078e-05
7.80782e-05
2.39306e-05
2.39248e-05
2.39303e-05
2.39246e-05
2.39332e-05
2.3941e-05
2.3932e-05
2.39397e-05
7.79521e-05
7.79544e-05
0.000185541
7.80009e-05
7.80063e-05
2.39476e-05
2.3942e-05
2.39461e-05
2.39406e-05
0.000185391
7.81872e-05
7.81861e-05
7.80199e-05
7.80239e-05
0.000100159
5.0819e-05
0.000100237
5.08354e-05
0.000145643
0.000104021
0.000218182
0.000206346
0.000145746
0.000103968
0.000218187
0.00014565
0.000104047
0.000218301
0.000206509
0.000145758
0.000103946
0.000218295
0.000100113
5.08602e-05
5.08423e-05
0.000100189
0.000100114
5.08592e-05
5.08394e-05
0.000100181
0.000145543
0.000206273
0.000104194
0.000218077
0.000103944
0.000218165
0.000145538
0.000145547
0.000206433
0.000104103
0.000218157
0.000103893
0.000218265
0.000145518
7.7966e-05