/*--------------------------------*- C++ -*----------------------------------*\
| =========                 |                                                 |
| \\      /  F ield         | OpenFOAM: The Open Source CFD Toolbox           |
|  \\    /   O peration     | Version:  v1906                                 |
|   \\  /    A nd           | Web:      www.OpenFOAM.com                      |
|    \\/     M anipulation  |                                                 |
\*---------------------------------------------------------------------------*/
FoamFile
{
    version     2.0;
    format      ascii;
    class       volScalarField;
    location    "1000";
    object      nut;
}
// * * * * * * * * * * * * * * * * * * * * * * * * * * * * * * * * * * * * * //

dimensions      [0 2 -1 0 0 0 0];


internalField   nonuniform List<scalar> 
43248
(
0.000150146
0.000101721
0.000101713
8.26009e-05
0.000146059
9.88844e-05
9.8879e-05
8.20735e-05
0.000142039
9.65895e-05
9.65787e-05
8.21429e-05
0.000138101
9.47744e-05
9.47777e-05
8.26905e-05
0.000134237
9.34574e-05
9.34784e-05
8.35239e-05
0.000130666
9.28514e-05
9.27532e-05
8.51244e-05
0.000127182
9.23049e-05
9.24171e-05
8.66371e-05
0.000123801
9.27423e-05
9.27043e-05
8.87348e-05
0.000121013
9.3326e-05
9.35485e-05
9.08221e-05
0.000118364
9.43169e-05
9.41034e-05
9.32735e-05
0.000115629
9.54058e-05
9.53724e-05
9.54343e-05
0.00011338
9.7353e-05
9.71187e-05
9.77469e-05
0.000112446
9.89473e-05
9.87153e-05
0.000100766
0.000111152
0.000100705
0.00010267
0.000103973
0.000108369
0.000104373
0.000103248
0.000104992
0.000109818
0.000107791
0.000101961
0.000110717
0.000108877
0.000109745
0.000110852
0.000114266
0.00010618
0.000103366
0.000122819
0.000107615
0.000112078
0.000115367
0.000125836
0.000108939
0.000118765
0.000144192
0.000107553
0.00014784
0.000113842
0.000124912
7.46911e-05
0.000123316
8.71431e-05
9.07451e-05
0.000155327
9.76865e-05
0.000107028
0.000127406
0.000215763
0.000140748
0.000150545
0.000170716
0.000119377
0.000139196
0.000177547
0.000121036
0.000100481
0.000114821
9.72775e-05
0.000122855
0.00013769
0.000131789
6.73551e-05
0.000176727
0.000129669
0.000166771
8.28752e-05
0.000102465
0.000102455
8.28802e-05
0.000102486
0.000102444
0.000102497
0.000102468
8.28669e-05
0.000102488
0.00010249
8.28717e-05
8.2602e-05
8.22483e-05
0.000101688
0.000101676
9.95174e-05
9.94954e-05
8.26005e-05
8.22435e-05
0.000101708
0.00010167
9.95276e-05
9.94991e-05
0.000101693
9.95385e-05
9.95179e-05
8.25922e-05
8.22548e-05
0.000101712
9.95433e-05
9.95402e-05
8.22451e-05
8.20745e-05
8.21902e-05
9.88512e-05
9.88397e-05
9.70769e-05
9.70576e-05
8.20783e-05
8.22019e-05
9.88671e-05
9.884e-05
9.70956e-05
9.70652e-05
9.88546e-05
9.71007e-05
9.70799e-05
8.2091e-05
8.22173e-05
9.88763e-05
9.70988e-05
9.70955e-05
8.21833e-05
8.2143e-05
8.2652e-05
9.65508e-05
9.65426e-05
9.51608e-05
9.51461e-05
8.21609e-05
8.26468e-05
9.6566e-05
9.65404e-05
9.51719e-05
9.51162e-05
9.65586e-05
9.51914e-05
9.51869e-05
8.21618e-05
8.26101e-05
9.65786e-05
9.51742e-05
9.52026e-05
8.26676e-05
8.2685e-05
8.34168e-05
9.47577e-05
9.47319e-05
9.371e-05
9.37081e-05
8.26682e-05
8.34394e-05
9.47696e-05
9.47107e-05
9.37231e-05
9.37625e-05
9.47737e-05
9.37375e-05
9.36702e-05
8.26492e-05
8.34983e-05
9.47859e-05
9.37816e-05
9.36895e-05
8.34001e-05
8.35345e-05
8.48834e-05
9.34095e-05
9.34217e-05
9.28859e-05
9.29279e-05
8.3586e-05
8.49131e-05
9.34166e-05
9.34688e-05
9.2896e-05
9.27733e-05
9.3393e-05
9.29788e-05
9.29012e-05
8.3626e-05
8.47321e-05
9.34216e-05
9.28172e-05
9.29194e-05
8.48782e-05
8.51593e-05
8.65529e-05
9.28068e-05
9.27922e-05
9.25843e-05
9.23712e-05
8.51246e-05
8.6275e-05
9.28237e-05
9.26939e-05
9.25801e-05
9.24776e-05
9.28147e-05
9.23958e-05
9.24784e-05
8.49655e-05
8.64512e-05
9.28269e-05
9.24876e-05
9.24781e-05
8.64122e-05
8.67465e-05
8.80236e-05
9.24943e-05
9.22941e-05
9.23265e-05
9.25774e-05
8.65036e-05
8.8415e-05
9.24798e-05
9.24124e-05
9.23743e-05
9.25124e-05
9.23894e-05
9.25865e-05
9.25854e-05
8.66802e-05
8.83074e-05
9.24029e-05
9.25541e-05
9.25713e-05
8.83528e-05
8.83921e-05
9.06604e-05
9.2458e-05
9.27406e-05
9.3147e-05
9.3122e-05
8.88075e-05
9.06048e-05
9.24984e-05
9.26764e-05
9.31604e-05
9.32254e-05
9.27124e-05
9.31622e-05
9.3084e-05
8.86949e-05
9.07529e-05
9.26794e-05
9.3282e-05
9.31694e-05
9.04746e-05
9.11228e-05
9.30292e-05
9.33923e-05
9.32782e-05
9.42815e-05
9.40631e-05
9.0948e-05
9.27847e-05
9.34651e-05
9.35135e-05
9.42156e-05
9.3889e-05
9.32638e-05
9.41417e-05
9.39854e-05
9.11326e-05
9.26698e-05
9.33404e-05
9.39554e-05
9.39329e-05
9.28456e-05
9.3323e-05
9.47457e-05
9.44242e-05
9.42709e-05
9.49212e-05
9.50297e-05
9.31552e-05
9.49677e-05
9.43016e-05
9.40005e-05
9.50211e-05
9.50801e-05
9.42963e-05
9.50115e-05
9.53368e-05
9.2961e-05
9.48668e-05
9.42956e-05
9.50102e-05
9.53365e-05
9.51335e-05
9.51242e-05
9.73627e-05
9.53049e-05
9.54166e-05
9.64922e-05
9.68032e-05
9.54056e-05
9.77689e-05
9.54064e-05
9.549e-05
9.63816e-05
9.63839e-05
9.55489e-05
9.68289e-05
9.61649e-05
9.53438e-05
9.75682e-05
9.54978e-05
9.64934e-05
9.62323e-05
9.7229e-05
9.78956e-05
0.000100863
9.68482e-05
9.72773e-05
9.91813e-05
9.85467e-05
9.82427e-05
0.000100097
9.68445e-05
9.70315e-05
9.91794e-05
9.88761e-05
9.67944e-05
9.86941e-05
9.88691e-05
9.80377e-05
0.00010038
9.69182e-05
9.88725e-05
9.87986e-05
0.000100279
0.000101469
0.000103033
9.9863e-05
9.89556e-05
0.000101183
0.000100212
0.000100417
0.000102091
9.96649e-05
9.87419e-05
0.000101316
0.000101707
9.8977e-05
9.99805e-05
0.000101034
0.000100876
0.000103624
9.88488e-05
0.000101635
0.000101158
0.000103373
0.000103174
0.000104651
0.000101471
0.00010078
0.000101474
0.000102964
0.00010267
0.000106358
0.000101784
0.000102629
0.000101705
0.000102742
0.000102235
0.000103254
0.000102849
0.000104267
0.000105181
0.00010238
0.000103064
0.000102985
0.000104984
0.000105369
0.000109374
0.000102579
0.000104031
0.000106983
0.000107802
0.000107172
0.000109538
0.000102757
0.000103049
0.000106671
0.000102597
0.000102534
0.000107836
0.000105862
0.000105048
0.000104286
0.00010254
0.000102492
0.0001057
0.000109255
0.000109876
0.000109744
0.000107288
0.000107923
0.000108462
0.000108332
0.000109786
0.000112099
0.000106864
0.000102094
0.000108024
0.000106974
0.0001076
0.000107882
0.000110891
0.00010414
0.000110685
0.000107515
0.000106838
0.000110715
0.000114052
0.00010965
0.000111081
0.000108838
0.000110092
0.00010837
0.000107213
0.00011264
0.00010634
0.000108364
0.000110899
0.000108684
0.000120245
0.000111824
0.000107473
0.000111332
0.000113621
0.000125704
0.000111602
0.000120539
0.000111273
0.000110153
0.000112166
0.000120509
0.000108991
0.00010279
0.000115471
0.000105345
0.000103253
0.000112222
0.000109811
0.000122285
0.000116665
0.000128461
0.000107371
0.000105757
9.85266e-05
0.000127123
0.000134831
0.000107256
0.000128201
9.90987e-05
0.000102516
0.000122187
0.000130632
0.000118603
0.000115662
0.000126159
0.000140155
0.000119126
0.000152892
0.000119418
0.000127054
0.000125925
0.00011265
0.000105403
0.000138884
0.000132408
0.000133515
0.000108156
0.000106318
0.000112674
0.000132993
0.000144982
0.000131424
0.000120706
0.000128183
0.000145196
0.00012415
0.000133926
0.000154709
0.000125203
0.000127831
0.00010728
0.000122949
7.59858e-05
0.00013926
0.000134605
0.000137556
0.000103101
6.73979e-05
0.000139416
7.64309e-05
0.000135168
0.000128761
0.000118234
9.3821e-05
0.000120726
0.000124439
0.000100111
9.80084e-05
0.000120735
8.79072e-05
0.000119466
7.44089e-05
9.75574e-05
0.00013686
0.000128331
9.83189e-05
0.000105297
7.24047e-05
0.000155184
0.000126405
0.000136596
0.000103192
9.70067e-05
9.18497e-05
0.000129684
9.50228e-05
9.06105e-05
0.000117105
0.000107826
8.43862e-05
0.000124606
9.3121e-05
0.000155721
0.00012413
0.000209351
0.000101478
0.000107252
0.000120608
0.000166869
0.000226266
0.000100073
0.000209199
0.000126849
0.000135521
0.00013584
0.000161412
0.000131366
0.000127641
0.000155628
0.000166071
0.00013487
0.000181148
0.000137381
0.00021525
0.00015685
0.00013915
0.000131549
0.000167686
0.000144607
0.000217376
0.000108533
0.00013685
0.000140617
0.000146393
0.000142242
0.000167116
0.00017897
0.000167619
0.000168892
0.000191781
0.000136392
0.00017829
0.000112096
0.000167687
0.000117825
0.00018531
9.82242e-05
0.000144055
0.000135561
0.000130303
9.59763e-05
0.000101365
0.00014322
9.72928e-05
0.000125843
0.000117226
0.000165781
8.99477e-05
0.000169234
0.000122563
0.000109761
0.000111201
0.000104448
0.000119052
0.000163354
0.000103516
0.000110343
0.000135561
0.000124552
0.0001095
0.000118491
0.000111717
0.000142165
0.000121025
0.000133468
0.000122294
0.000126138
8.28415e-05
0.000111923
9.42838e-05
0.000122618
8.99204e-05
0.00015965
0.000128655
0.000178425
9.54246e-05
0.000137726
9.02386e-05
0.000130419
0.000127788
0.000163943
0.00015369
0.000141807
0.000126557
0.000132676
0.000133744
0.000154731
0.000160928
0.000125851
0.000115535
0.00017196
0.000184178
0.000114488
0.000125931
0.000162493
0.000123811
0.000162945
0.000151171
0.00015117
0.000151159
0.000151169
7.004e-05
4.95516e-05
6.90927e-05
4.9561e-05
2.36288e-05
2.36252e-05
7.00468e-05
4.95496e-05
6.90833e-05
4.9559e-05
0.00015015
0.000150138
0.000150147
0.000147068
0.000147069
0.000147063
0.00014707
6.70989e-05
6.57854e-05
0.000126175
0.000100964
6.61379e-05
6.64759e-05
0.000125148
2.36265e-05
2.36229e-05
6.70952e-05
0.000126175
6.57734e-05
0.000100955
6.61365e-05
0.000125146
6.64814e-05
6.10748e-05
6.10766e-05
8.25012e-05
6.15176e-05
6.15203e-05
7.20551e-05
4.95727e-05
7.12137e-05
4.95807e-05
2.36164e-05
2.36131e-05
7.20649e-05
4.95709e-05
7.12105e-05
4.95789e-05
0.000146058
0.000146051
0.00014606
0.000143026
0.000143023
0.000143019
0.000143027
7.0058e-05
6.76854e-05
0.000122218
9.82575e-05
6.90355e-05
6.83524e-05
0.000121262
2.36142e-05
2.36109e-05
7.00299e-05
0.00012222
6.76627e-05
9.82555e-05
6.90447e-05
0.000121254
6.83641e-05
6.20271e-05
6.20289e-05
8.21292e-05
6.24338e-05
6.24352e-05
7.38124e-05
4.95907e-05
7.30475e-05
4.95986e-05
2.36052e-05
2.36022e-05
7.37988e-05
4.95889e-05
7.30422e-05
4.95962e-05
0.00014205
0.000142032
0.000142048
0.000139077
0.000139073
0.000139056
0.00013909
7.30431e-05
6.94818e-05
0.000118524
9.61069e-05
7.19855e-05
7.01321e-05
0.000117621
2.36029e-05
2.35999e-05
7.30574e-05
0.000118527
6.94623e-05
9.60847e-05
7.20018e-05
0.000117612
7.01448e-05
6.29003e-05
6.29024e-05
8.23899e-05
6.32796e-05
6.32829e-05
7.53955e-05
4.96066e-05
7.46501e-05
4.96144e-05
2.35949e-05
2.35921e-05
7.53589e-05
4.96053e-05
7.46623e-05
4.96118e-05
0.000138105
0.000138097
0.00013811
0.000135203
0.000135215
0.000135227
0.00013518
7.60733e-05
7.11783e-05
0.000115123
9.43949e-05
7.49867e-05
7.17989e-05
0.00011432
2.35925e-05
2.35899e-05
7.60741e-05
0.000115145
7.11564e-05
9.44147e-05
7.49847e-05
0.000114332
7.18113e-05
6.37119e-05
6.37118e-05
8.29815e-05
6.4052e-05
6.40554e-05
7.66714e-05
4.96203e-05
7.60865e-05
4.96278e-05
2.35854e-05
2.35832e-05
7.66671e-05
4.96196e-05
7.61259e-05
4.9625e-05
0.000134247
0.000134268
0.000134228
0.000131523
0.000131572
0.000131459
0.000131529
7.89875e-05
7.27528e-05
0.000112011
9.32424e-05
7.7863e-05
7.33764e-05
0.000111292
2.35831e-05
2.35808e-05
7.89657e-05
0.000112011
7.2746e-05
9.32083e-05
7.78637e-05
0.00011128
7.33678e-05
6.44421e-05
6.44421e-05
8.40407e-05
6.47716e-05
6.4769e-05
7.79281e-05
4.96331e-05
7.74186e-05
4.96386e-05
2.35774e-05
2.35753e-05
7.79675e-05
4.96324e-05
7.74021e-05
4.96369e-05
0.000130683
0.000130615
0.000130675
0.000128069
0.000127961
0.000127987
0.000128008
8.19315e-05
7.43023e-05
0.000109355
9.26983e-05
8.07455e-05
7.48914e-05
0.000108757
2.35751e-05
2.35732e-05
8.18626e-05
0.000109334
7.42688e-05
9.26934e-05
8.07763e-05
0.00010874
7.49093e-05
6.51635e-05
6.51638e-05
8.56944e-05
6.545e-05
6.54507e-05
7.89623e-05
4.96445e-05
7.85794e-05
4.96499e-05
2.35697e-05
2.35683e-05
7.90277e-05
4.96431e-05
7.85185e-05
4.96498e-05
0.000127052
0.000127128
0.000127135
0.000124553
0.000124684
0.000124687
0.000124717
8.45347e-05
7.56302e-05
0.000106984
9.23191e-05
8.34142e-05
7.62638e-05
0.000106429
2.35675e-05
2.35658e-05
8.45477e-05
0.000107006
7.5637e-05
9.23737e-05
8.34697e-05
0.00010647
7.62602e-05
6.57736e-05
6.57743e-05
8.72516e-05
6.60494e-05
6.60449e-05
8.00694e-05
4.96574e-05
7.96653e-05
4.96613e-05
2.35632e-05
2.35616e-05
8.00767e-05
4.96548e-05
7.9618e-05
4.96595e-05
0.000123975
0.000123928
0.000123901
0.000121665
0.0001217
0.000121783
0.000121709
8.72813e-05
7.70442e-05
0.000105129
9.28867e-05
8.61156e-05
7.7606e-05
0.000104758
2.35608e-05
2.35593e-05
8.72702e-05
0.000105153
7.70202e-05
9.28415e-05
8.61357e-05
0.000104758
7.76253e-05
6.6427e-05
6.64324e-05
8.94823e-05
6.66562e-05
6.66635e-05
8.09446e-05
4.9665e-05
8.0597e-05
4.96704e-05
2.35572e-05
2.35562e-05
8.09875e-05
4.96636e-05
8.05966e-05
4.96686e-05
0.000120985
0.00012111
0.000120977
0.000119088
0.000118972
0.000118902
0.000118843
8.98407e-05
7.83257e-05
0.000103763
9.35706e-05
8.86236e-05
7.88771e-05
0.000103518
2.35549e-05
2.35538e-05
8.97973e-05
0.000103897
7.83372e-05
9.37361e-05
8.87095e-05
0.00010357
7.88919e-05
6.69696e-05
6.69735e-05
9.16021e-05
6.72238e-05
6.72035e-05
8.18516e-05
4.96762e-05
8.16035e-05
4.96793e-05
2.35525e-05
2.35514e-05
8.18514e-05
4.96732e-05
8.14838e-05
4.96793e-05
0.00011826
0.000118148
0.00011822
0.000116217
0.000116285
0.000116221
0.000116521
9.2064e-05
7.95482e-05
0.000102817
9.44707e-05
9.10483e-05
7.99715e-05
0.000102544
2.35499e-05
2.35496e-05
9.21747e-05
0.00010276
7.94702e-05
9.43341e-05
9.09667e-05
0.000102513
8.00102e-05
6.74942e-05
6.75109e-05
9.40907e-05
6.77523e-05
6.77531e-05
8.27731e-05
4.96874e-05
8.22963e-05
4.9692e-05
2.35488e-05
2.35483e-05
8.26375e-05
4.96847e-05
8.24345e-05
4.96893e-05
0.000115699
0.000115679
0.000115869
0.00011393
0.000114213
0.000113889
0.000113724
9.44489e-05
8.06488e-05
0.000102009
9.58466e-05
9.32371e-05
8.12212e-05
0.000101933
2.35467e-05
2.35469e-05
9.44018e-05
0.000101997
8.06253e-05
9.57586e-05
9.31447e-05
0.000101935
8.11624e-05
6.79738e-05
6.79644e-05
9.60143e-05
6.81097e-05
6.81424e-05
8.34139e-05
4.96995e-05
8.30881e-05
4.97054e-05
2.35462e-05
2.35473e-05
8.35483e-05
4.9699e-05
8.30893e-05
4.97047e-05
0.000113847
0.000113505
0.000113322
0.00011276
0.000112361
0.000112728
0.000112608
9.66772e-05
8.17439e-05
0.000102064
9.78705e-05
9.56043e-05
8.23305e-05
0.000102235
2.35449e-05
2.35441e-05
9.65902e-05
0.000101992
8.18128e-05
9.8014e-05
9.56616e-05
0.000102237
8.22801e-05
6.857e-05
6.85344e-05
9.87903e-05
6.87359e-05
6.8712e-05
8.42694e-05
4.97102e-05
8.40638e-05
4.97126e-05
2.35453e-05
2.35446e-05
8.41994e-05
4.97102e-05
8.38896e-05
4.97146e-05
0.0001118
0.000111854
0.000111944
0.000111451
0.00011057
0.000111474
0.000110959
9.82702e-05
8.27472e-05
0.000102375
9.91693e-05
9.76954e-05
8.30532e-05
0.000102192
2.35416e-05
2.35424e-05
9.84726e-05
0.000102242
8.26488e-05
9.90303e-05
9.75453e-05
0.000102031
8.32566e-05
6.87605e-05
6.88418e-05
0.000101708
6.90793e-05
6.91522e-05
8.48078e-05
4.97221e-05
8.4356e-05
4.97348e-05
2.35458e-05
2.35487e-05
8.49297e-05
4.97205e-05
8.46394e-05
4.97276e-05
0.000110266
0.000111673
0.000111246
0.000108571
0.000109456
0.00011011
0.000110158
0.000100987
8.37202e-05
0.000102482
0.000101547
9.9796e-05
8.42887e-05
0.000102863
2.35406e-05
2.35409e-05
0.000101025
0.000103278
8.40687e-05
0.000103016
9.99548e-05
0.000103822
8.43224e-05
6.95724e-05
6.96031e-05
0.000104816
6.95999e-05
6.96285e-05
8.56405e-05
4.97467e-05
8.53856e-05
4.97554e-05
2.35476e-05
2.35421e-05
8.56485e-05
4.97398e-05
8.52903e-05
4.97492e-05
0.000109736
0.000109737
0.000109078
0.000110136
0.000111165
0.000106399
0.000108812
0.000102769
8.51023e-05
0.000104469
0.000105771
0.000101977
8.55493e-05
0.000105077
2.35478e-05
2.35523e-05
0.000102406
0.000104333
8.45216e-05
0.000103341
0.000101849
0.00010417
8.50982e-05
6.95966e-05
6.94748e-05
0.000105767
6.99935e-05
6.98247e-05
8.62846e-05
4.97628e-05
8.58952e-05
4.97658e-05
2.35294e-05
2.35357e-05
8.61741e-05
4.97631e-05
8.58284e-05
4.97718e-05
0.00011084
0.000104968
0.000109536
0.000109091
0.000109324
0.000106114
0.000111041
0.000103989
8.53721e-05
0.000106511
0.000107341
0.000103459
8.53297e-05
0.000106441
2.35556e-05
2.35602e-05
0.000104109
0.000103892
8.50222e-05
0.000102198
0.00010348
0.0001041
8.53995e-05
7.04714e-05
7.02689e-05
0.000112651
7.05409e-05
7.03867e-05
8.74701e-05
4.97664e-05
8.72937e-05
4.97669e-05
2.3556e-05
2.35601e-05
8.70194e-05
4.97774e-05
8.68761e-05
4.97813e-05
0.000109843
0.000108794
0.000111468
0.000106211
0.000106031
0.000116213
0.00011066
0.000107859
8.73195e-05
0.000106426
0.000111491
0.000105787
8.77734e-05
0.000107502
2.35575e-05
2.35488e-05
0.000107398
0.00010671
8.73624e-05
0.000114926
0.000105651
0.000108508
8.86342e-05
7.07065e-05
7.06566e-05
0.00011405
7.07658e-05
7.06554e-05
8.53638e-05
4.97936e-05
8.58481e-05
4.98314e-05
2.35491e-05
2.35586e-05
8.68293e-05
4.97993e-05
8.67436e-05
4.9815e-05
0.000101099
0.000117774
0.000107317
0.000110098
9.86781e-05
0.000123885
9.47954e-05
0.000106139
8.51633e-05
0.000107876
0.000100077
0.000108437
8.34149e-05
0.000105769
2.34999e-05
2.34825e-05
0.000107519
0.000114669
8.88918e-05
0.000125297
0.000108659
0.000115216
8.76296e-05
6.92255e-05
6.94424e-05
0.000100994
6.80678e-05
6.86922e-05
8.97345e-05
4.9852e-05
8.80809e-05
4.98342e-05
2.3584e-05
2.35718e-05
8.93223e-05
4.9819e-05
8.8095e-05
4.98101e-05
0.000106384
0.00012384
9.68119e-05
0.000117268
0.000124498
0.000108761
0.000118603
0.000110077
8.8626e-05
0.000106166
0.000123757
0.000105291
9.31433e-05
0.000110792
2.34982e-05
2.35168e-05
0.000110284
0.000112932
8.8289e-05
0.000119761
0.000106399
0.00011254
8.97094e-05
7.07255e-05
7.05792e-05
0.000123801
7.39226e-05
7.34343e-05
8.97472e-05
4.97443e-05
9.03033e-05
4.96847e-05
2.34817e-05
2.34661e-05
8.87299e-05
4.97272e-05
9.0101e-05
4.96901e-05
0.000130837
0.0001049
0.000124493
0.00011718
0.000135513
7.02558e-05
0.000130899
0.000117547
9.49809e-05
0.000125602
0.000147266
0.000116922
9.10158e-05
0.000128458
2.35213e-05
2.35507e-05
0.000114178
0.000113763
8.75106e-05
9.60608e-05
0.000115692
0.000111888
8.14293e-05
7.63829e-05
7.62391e-05
0.000151961
7.33584e-05
7.26897e-05
8.66485e-05
4.96842e-05
8.81914e-05
4.97885e-05
2.35029e-05
2.35317e-05
8.52677e-05
4.97273e-05
8.5958e-05
4.98554e-05
0.000124765
6.37339e-05
0.000125086
9.46439e-05
9.88087e-05
0.000107681
0.00010287
0.000109946
8.79557e-05
0.000125024
0.000117976
0.000112658
8.58561e-05
0.000120975
2.3655e-05
2.37017e-05
0.000104083
9.42487e-05
7.90342e-05
8.76894e-05
0.000106147
9.16439e-05
8.69833e-05
6.8791e-05
6.79213e-05
0.000107454
6.68969e-05
6.67503e-05
8.80117e-05
5.00395e-05
8.52559e-05
5.01219e-05
2.35866e-05
2.36204e-05
9.22526e-05
5.0084e-05
8.94192e-05
5.0116e-05
8.65487e-05
0.000129618
9.63506e-05
9.04572e-05
7.806e-05
0.00019186
9.72163e-05
0.000105295
8.10829e-05
0.00010282
8.66627e-05
0.000104529
8.47838e-05
9.66503e-05
2.37331e-05
2.36646e-05
0.00011866
0.000122568
9.96044e-05
0.000176635
0.000112444
0.000134175
0.000105665
6.80228e-05
7.14478e-05
0.000111261
7.1225e-05
7.39941e-05
9.29453e-05
5.01216e-05
9.18065e-05
5.00786e-05
2.36601e-05
2.3642e-05
9.04812e-05
5.00392e-05
9.32337e-05
4.99757e-05
9.54311e-05
0.000207868
0.000108725
0.000140432
0.000143664
0.000166889
0.000128534
0.000125162
9.53936e-05
0.000108033
0.000144238
0.000117554
0.000101592
0.000123608
2.34776e-05
2.34295e-05
0.000125297
0.000161013
0.000100296
0.000204064
0.000126313
0.000165128
9.22023e-05
7.64378e-05
7.70195e-05
0.000148758
7.69228e-05
7.45489e-05
9.43193e-05
4.98845e-05
9.39539e-05
4.9728e-05
2.35274e-05
2.35018e-05
9.16199e-05
4.98745e-05
8.91159e-05
4.97804e-05
0.000150971
0.000138191
0.000129293
0.000187497
0.000138106
9.1582e-05
0.000123385
0.000122322
9.81822e-05
0.000150548
0.000165483
0.000128635
9.13158e-05
0.000152656
2.34687e-05
2.35332e-05
0.000111906
0.00013835
8.28401e-05
0.000105284
0.000114885
0.000128275
8.34256e-05
7.19601e-05
6.98378e-05
0.000127682
6.92904e-05
6.88509e-05
8.74671e-05
4.95359e-05
9.0398e-05
4.96159e-05
2.3542e-05
2.3609e-05
9.06693e-05
4.95713e-05
9.35408e-05
4.95825e-05
0.00012609
8.73555e-05
0.00011698
0.000112286
9.92629e-05
9.80439e-05
0.000102353
0.000110957
8.31779e-05
0.000135724
0.000112429
0.000113432
8.49287e-05
0.000127515
2.35726e-05
2.35726e-05
0.000119201
0.000111273
9.23228e-05
0.000113887
0.000115781
0.000109651
9.42985e-05
6.94697e-05
7.08981e-05
0.000115084
7.09579e-05
7.24692e-05
8.86397e-05
4.99676e-05
8.54412e-05
5.01932e-05
2.36775e-05
2.36882e-05
8.71785e-05
4.9879e-05
8.662e-05
5.01094e-05
9.86327e-05
0.000107828
0.000104258
6.5861e-05
0.000134782
0.000119665
0.000134802
0.000118854
9.35009e-05
0.000112724
0.000138971
0.00011496
9.76173e-05
0.000116528
2.35932e-05
2.36415e-05
0.000117462
0.000126229
9.20176e-05
0.000139311
0.000119169
0.000131081
9.05202e-05
7.32171e-05
7.28678e-05
0.000142489
7.52487e-05
7.3353e-05
5.03382e-05
9.39312e-05
2.36294e-05
5.03051e-05
9.24336e-05
0.000146672
0.000115991
0.000142305
0.000103404
0.00014917
0.000125666
2.36888e-05
0.000130332
9.2349e-05
0.000120681
8.11213e-05
7.95606e-05
2.36316e-05
2.36304e-05
6.10341e-05
6.10248e-05
4.95499e-05
6.89748e-05
4.95517e-05
6.89732e-05
6.54821e-05
0.000127155
6.5683e-05
6.5513e-05
0.000127152
6.56889e-05
2.36315e-05
6.10294e-05
6.10284e-05
2.3632e-05
4.9548e-05
6.89537e-05
6.55035e-05
0.00012716
6.56802e-05
4.95441e-05
6.89582e-05
0.000127152
6.54853e-05
6.56839e-05
6.54894e-05
0.000127163
6.56763e-05
4.95508e-05
6.89561e-05
0.000127159
6.55038e-05
6.56768e-05
4.95464e-05
6.89534e-05
2.36293e-05
6.10285e-05
6.10282e-05
2.36308e-05
0.000127167
6.55123e-05
6.56833e-05
0.000127167
6.55063e-05
6.56813e-05
4.9546e-05
6.89326e-05
4.95472e-05
6.89318e-05
6.103e-05
6.10304e-05
2.36306e-05
2.36301e-05
2.36288e-05
2.36252e-05
2.36277e-05
2.3624e-05
6.10746e-05
6.10727e-05
8.25034e-05
6.15152e-05
6.15242e-05
2.36191e-05
2.36226e-05
2.36178e-05
2.36213e-05
8.22802e-05
6.19899e-05
6.19829e-05
6.15544e-05
6.15656e-05
7.00402e-05
4.95533e-05
6.90863e-05
4.95627e-05
6.71014e-05
6.57969e-05
0.000126161
0.000100939
6.61508e-05
6.64709e-05
0.000125152
6.70974e-05
6.57789e-05
0.000126159
0.00010092
6.61522e-05
6.64919e-05
0.000125143
7.0145e-05
4.95711e-05
4.95624e-05
7.11136e-05
7.01492e-05
4.95733e-05
4.95641e-05
7.11159e-05
6.7567e-05
0.000100216
6.74171e-05
0.000123169
6.67574e-05
0.000124162
6.85592e-05
6.75645e-05
0.00010019
6.74443e-05
0.000123159
6.67293e-05
0.000124151
6.85595e-05
6.10743e-05
6.10678e-05
8.24927e-05
6.15223e-05
6.15218e-05
2.36292e-05
2.36256e-05
2.3619e-05
2.36225e-05
8.22672e-05
6.19876e-05
6.19857e-05
6.15656e-05
6.15612e-05
2.36194e-05
2.36229e-05
6.70997e-05
6.57789e-05
0.000126172
0.000100955
6.61418e-05
6.64876e-05
0.000125139
7.00392e-05
4.95457e-05
6.90881e-05
4.95551e-05
6.7098e-05
0.000126158
6.57906e-05
0.000100912
6.61471e-05
0.000125136
6.64662e-05
7.01649e-05
4.95695e-05
4.95604e-05
7.10946e-05
6.75696e-05
0.000100228
6.74334e-05
0.000123166
6.67422e-05
0.000124164
6.85534e-05
7.01556e-05
4.95653e-05
4.95566e-05
7.10941e-05
6.75635e-05
0.000100186
0.000123162
6.74178e-05
0.000124147
6.67483e-05
6.85487e-05
7.00626e-05
4.95525e-05
6.90709e-05
4.95613e-05
6.70982e-05
0.00012617
6.57786e-05
0.00010094
6.61373e-05
0.000125148
6.64831e-05
7.00605e-05
4.9548e-05
6.90696e-05
4.95578e-05
6.75706e-05
0.000100232
6.74259e-05
0.000123172
6.67481e-05
0.000124158
6.85499e-05
7.01678e-05
4.95719e-05
4.95628e-05
7.10904e-05
6.75701e-05
0.000100214
0.000123175
6.74365e-05
0.000124156
6.6733e-05
6.85496e-05
7.01634e-05
4.95681e-05
4.95593e-05
7.10907e-05
6.10695e-05
6.1072e-05
8.24915e-05
6.1515e-05
6.15173e-05
2.36281e-05
2.36245e-05
2.36168e-05
2.36202e-05
8.22713e-05
6.19847e-05
6.19874e-05
6.15536e-05
6.15619e-05
2.36183e-05
2.36218e-05
6.70964e-05
0.000126168
6.57768e-05
0.00010096
6.61361e-05
0.000125152
6.64884e-05
7.00541e-05
4.95477e-05
6.90634e-05
4.95573e-05
7.00571e-05
4.95488e-05
6.90645e-05
4.95584e-05
6.75723e-05
0.000100232
0.000123174
6.74433e-05
0.000124173
6.67317e-05
6.85601e-05
6.75732e-05
0.000100237
0.000123176
6.74419e-05
0.000124169
6.67338e-05
6.85597e-05
7.01759e-05
4.95676e-05
4.95587e-05
7.10939e-05
7.01786e-05
4.95688e-05
4.95599e-05
7.10918e-05
2.36279e-05
2.36243e-05
2.36274e-05
2.36238e-05
8.22766e-05
6.19858e-05
6.19862e-05
6.15594e-05
6.15636e-05
2.36182e-05
2.36217e-05
2.36177e-05
2.36211e-05
2.36164e-05
2.3613e-05
2.36152e-05
2.36119e-05
6.20284e-05
6.20256e-05
8.21326e-05
6.24297e-05
6.24416e-05
2.36075e-05
2.36105e-05
2.36062e-05
2.36093e-05
8.20294e-05
6.28623e-05
6.28548e-05
6.24688e-05
6.24823e-05
7.2055e-05
4.95747e-05
7.12172e-05
4.95823e-05
7.00483e-05
6.76837e-05
0.000122217
9.82194e-05
6.90522e-05
6.83539e-05
0.000121248
7.00518e-05
6.76784e-05
0.000122207
9.82136e-05
6.90518e-05
6.83711e-05
0.000121246
7.21428e-05
4.95892e-05
4.95817e-05
7.29578e-05
7.21423e-05
4.95917e-05
4.95834e-05
7.29547e-05
7.05064e-05
9.7636e-05
6.9242e-05
0.000119401
6.86055e-05
0.000120333
7.15392e-05
7.05079e-05
9.76195e-05
6.92711e-05
0.000119385
6.85693e-05
0.000120329
7.15357e-05
6.20298e-05
6.2025e-05
8.21464e-05
6.24368e-05
6.24344e-05
2.36168e-05
2.36135e-05
2.36075e-05
2.36105e-05
8.20413e-05
6.28621e-05
6.28617e-05
6.24752e-05
6.24718e-05
2.36078e-05
2.36109e-05
7.00628e-05
6.76659e-05
0.000122219
9.82379e-05
6.90414e-05
6.83743e-05
0.00012125
7.2068e-05
4.95668e-05
7.12112e-05
4.95753e-05
7.00674e-05
0.000122207
6.76782e-05
9.82216e-05
6.90395e-05
0.000121245
6.83507e-05
7.2169e-05
4.95878e-05
4.958e-05
7.29465e-05
7.05272e-05
9.76566e-05
6.92624e-05
0.0001194
6.85932e-05
0.00012035
7.15498e-05
7.21694e-05
4.95828e-05
4.95763e-05
7.29343e-05
7.05278e-05
9.76375e-05
0.000119393
6.92506e-05
0.00012034
6.86003e-05
7.154e-05
7.20747e-05
4.95733e-05
7.1194e-05
4.95814e-05
7.00615e-05
0.000122216
6.7672e-05
9.82226e-05
6.90335e-05
0.00012126
6.83662e-05
7.20735e-05
4.95695e-05
7.11957e-05
4.95778e-05
7.05287e-05
9.76607e-05
6.92606e-05
0.0001194
6.85845e-05
0.000120342
7.15459e-05
7.21652e-05
4.95903e-05
4.95827e-05
7.29512e-05
7.05256e-05
9.76335e-05
0.000119409
6.92596e-05
0.000120339
6.85822e-05
7.15502e-05
7.21611e-05
4.95864e-05
4.9579e-05
7.29516e-05
6.2025e-05
6.20265e-05
8.21614e-05
6.24322e-05
6.24313e-05
2.36157e-05
2.36124e-05
2.36053e-05
2.36083e-05
8.20619e-05
6.28616e-05
6.28703e-05
6.24706e-05
6.24739e-05
2.36069e-05
2.361e-05
7.00412e-05
0.000122221
6.76724e-05
9.82425e-05
6.90459e-05
0.000121263
6.83702e-05
7.20335e-05
4.9569e-05
7.12083e-05
4.9577e-05
7.2047e-05
4.95702e-05
7.12086e-05
4.95782e-05
7.04973e-05
9.7671e-05
0.000119389
6.92739e-05
0.000120343
6.85787e-05
7.15422e-05
7.05158e-05
9.7651e-05
0.00011941
6.92637e-05
0.000120338
6.85784e-05
7.15474e-05
7.21394e-05
4.95865e-05
4.95782e-05
7.29618e-05
7.21533e-05
4.95872e-05
4.95794e-05
7.29614e-05
2.36156e-05
2.36122e-05
2.36151e-05
2.36116e-05
8.20225e-05
6.28591e-05
6.286e-05
6.24732e-05
6.24734e-05
2.36065e-05
2.36097e-05
2.3606e-05
2.36091e-05
2.36051e-05
2.36021e-05
2.36038e-05
2.3601e-05
6.28993e-05
6.28933e-05
8.23693e-05
6.32712e-05
6.32795e-05
2.35972e-05
2.35998e-05
2.35959e-05
2.35987e-05
8.23693e-05
6.36737e-05
6.36672e-05
6.33098e-05
6.33215e-05
7.38149e-05
4.9593e-05
7.30477e-05
4.96002e-05
7.30612e-05
6.9471e-05
0.000118516
9.60522e-05
7.19928e-05
7.01264e-05
0.000117609
7.30602e-05
6.9468e-05
0.000118503
9.60574e-05
7.19845e-05
7.01492e-05
0.000117596
7.3887e-05
4.96052e-05
4.95993e-05
7.4569e-05
7.38911e-05
4.9608e-05
4.96011e-05
7.45839e-05
7.34731e-05
9.55853e-05
7.09665e-05
0.000115889
7.0342e-05
0.00011675
7.45202e-05
7.34745e-05
9.55915e-05
7.10013e-05
0.00011589
7.03203e-05
0.000116747
7.45411e-05
6.2904e-05
6.29015e-05
8.2396e-05
6.32819e-05
6.32821e-05
2.36055e-05
2.36026e-05
2.35971e-05
2.35999e-05
8.23906e-05
6.36771e-05
6.36763e-05
6.33198e-05
6.33183e-05
2.35974e-05
2.36002e-05
7.30517e-05
6.9459e-05
0.000118525
9.60711e-05
7.19853e-05
7.01404e-05
0.000117616
7.38026e-05
4.95842e-05
7.30305e-05
4.95932e-05
7.30495e-05
0.000118505
6.94688e-05
9.60415e-05
7.19732e-05
0.000117605
7.01183e-05
7.38947e-05
4.96043e-05
4.95972e-05
7.45769e-05
7.34692e-05
9.56041e-05
7.09826e-05
0.000115883
7.03241e-05
0.000116761
7.45363e-05
7.38994e-05
4.96e-05
4.95943e-05
7.45763e-05
7.34682e-05
9.55584e-05
0.000115873
7.0971e-05
0.00011674
7.0329e-05
7.45375e-05
7.38042e-05
4.95914e-05
7.30357e-05
4.95987e-05
7.3051e-05
0.000118528
6.94623e-05
9.60712e-05
7.19881e-05
0.00011762
7.01461e-05
7.38076e-05
4.95875e-05
7.30384e-05
4.95947e-05
7.34726e-05
9.56395e-05
7.09919e-05
0.000115914
7.03319e-05
0.000116778
7.45847e-05
7.38903e-05
4.96072e-05
4.96e-05
7.46222e-05
7.34705e-05
9.56182e-05
0.000115919
7.09911e-05
0.000116782
7.03273e-05
7.45763e-05
7.38889e-05
4.96024e-05
4.95957e-05
7.46121e-05
6.28996e-05
6.29084e-05
8.23581e-05
6.32708e-05
6.3276e-05
2.36045e-05
2.36014e-05
2.35948e-05
2.35975e-05
8.23422e-05
6.36686e-05
6.36761e-05
6.33076e-05
6.33156e-05
2.35963e-05
2.35991e-05
7.30521e-05
0.000118533
6.94625e-05
9.60961e-05
7.20083e-05
0.00011763
7.01526e-05
7.38015e-05
4.95878e-05
7.30686e-05
4.95949e-05
7.37979e-05
4.95883e-05
7.30667e-05
4.95951e-05
7.34837e-05
9.56072e-05
0.000115918
7.10021e-05
0.000116783
7.0322e-05
7.45764e-05
7.34853e-05
9.56401e-05
0.000115921
7.09965e-05
0.00011679
7.03262e-05
7.45642e-05
7.38937e-05
4.96026e-05
4.95958e-05
7.45997e-05
7.38915e-05
4.96031e-05
4.95961e-05
7.46012e-05
2.36041e-05
2.36013e-05
2.36037e-05
2.36008e-05
8.23964e-05
6.36741e-05
6.36737e-05
6.33186e-05
6.33207e-05
2.35962e-05
2.3599e-05
2.35957e-05
2.35985e-05
2.3595e-05
2.35924e-05
2.35937e-05
2.35912e-05
6.37102e-05
6.37038e-05
8.29883e-05
6.40626e-05
6.40644e-05
2.35874e-05
2.35901e-05
2.35862e-05
2.3589e-05
8.30498e-05
6.44113e-05
6.44124e-05
6.40971e-05
6.41032e-05
7.53897e-05
4.96091e-05
7.4667e-05
4.96156e-05
7.61071e-05
7.11628e-05
0.000115097
9.4373e-05
7.49253e-05
7.18155e-05
0.000114296
7.61154e-05
7.11602e-05
0.000115102
9.43556e-05
7.49475e-05
7.18228e-05
0.000114304
7.54667e-05
4.96193e-05
4.9615e-05
7.60386e-05
7.54587e-05
4.96217e-05
4.96163e-05
7.60331e-05
7.64975e-05
9.4032e-05
7.25895e-05
0.000112766
7.20011e-05
0.000113516
7.75675e-05
7.64913e-05
9.40216e-05
7.26118e-05
0.000112768
7.19633e-05
0.000113522
7.75605e-05
6.37154e-05
6.37123e-05