/*--------------------------------*- C++ -*----------------------------------*\
| =========                 |                                                 |
| \\      /  F ield         | OpenFOAM: The Open Source CFD Toolbox           |
|  \\    /   O peration     | Version:  v1906                                 |
|   \\  /    A nd           | Web:      www.OpenFOAM.com                      |
|    \\/     M anipulation  |                                                 |
\*---------------------------------------------------------------------------*/
FoamFile
{
    version     2.0;
    format      ascii;
    class       volScalarField;
    location    "1000";
    object      nut;
}
// * * * * * * * * * * * * * * * * * * * * * * * * * * * * * * * * * * * * * //

dimensions      [0 2 -1 0 0 0 0];


internalField   nonuniform List<scalar> 
43024
(
0.000209685
0.000202115
0.000202102
0.000182893
0.00021101
0.000203269
0.000203252
0.00018375
0.000213907
0.000204574
0.000204689
0.000184785
0.000216322
0.000206195
0.000206069
0.000185635
0.000217771
0.000206628
0.000206563
0.000185714
0.000218396
0.000206184
0.000206334
0.000185842
0.00022168
0.000209073
0.00020905
0.000187698
0.000224036
0.000210011
0.000209981
0.000188039
0.000224234
0.000209443
0.000209413
0.000187461
0.000225096
0.000210267
0.000210211
0.000188162
0.000227493
0.000211249
0.000211408
0.000188926
0.000228889
0.000211844
0.000211797
0.000189144
0.000229496
0.000212147
0.000211981
0.000189129
0.000230623
0.000212394
0.000212468
0.000189481
0.000232424
0.000213704
0.000213826
0.000190393
0.000231608
0.000211985
0.000211922
0.000188168
0.000230975
0.000212855
0.000212788
0.000189685
0.00023516
0.000214916
0.000214972
0.000191323
0.000236019
0.000213844
0.000213831
0.000189664
0.000234092
0.00021274
0.000212739
0.000189069
0.000235725
0.000214131
0.000214094
0.000192564
0.00018319
0.000202164
0.000202054
0.000183097
0.000202176
0.000202026
0.000202062
0.000201994
0.000183077
0.000202043
0.000202002
0.000183043
0.000183069
0.000183392
0.000202214
0.00020211
0.000202589
0.000202759
0.000182956
0.000183559
0.000202228
0.000202088
0.000202596
0.000202699
0.000202049
0.000202793
0.000202742
0.000182946
0.000183523
0.00020206
0.000202728
0.000202753
0.000183559
0.000183562
0.000184781
0.000203074
0.000203219
0.000204401
0.000204167
0.000183717
0.000184588
0.000203078
0.000203204
0.00020444
0.000204346
0.000203255
0.000204207
0.000204396
0.000183712
0.000184727
0.000203262
0.000204397
0.000204431
0.000184758
0.000184824
0.000185687
0.000204792
0.000204547
0.000205807
0.000205863
0.00018464
0.000185747
0.000204838
0.000204656
0.000205817
0.000205749
0.000204724
0.000205886
0.000205782
0.000184746
0.000185594
0.000204767
0.00020577
0.000205794
0.000185646
0.000185649
0.000185815
0.000206072
0.00020617
0.000206416
0.000206675
0.000185773
0.000186028
0.000206079
0.000206045
0.000206401
0.000206546
0.000206061
0.000206709
0.000206485
0.000185609
0.000185974
0.00020607
0.000206588
0.000206475
0.000185868
0.000185653
0.000185753
0.000206374
0.00020659
0.000206165
0.000206223
0.00018587
0.000185503
0.000206364
0.000206516
0.000206188
0.000206237
0.000206443
0.000206264
0.000206187
0.000185826
0.000185622
0.000206434
0.000206289
0.000206191
0.000185678
0.00018595
0.000187629
0.000206549
0.000206151
0.00020867
0.00020856
0.000185554
0.00018762
0.00020664
0.000206306
0.000208692
0.000208586
0.000206409
0.000208586
0.000208659
0.000185709
0.000187573
0.000206483
0.000208611
0.000208688
0.00018763
0.000187685
0.000188127
0.000209051
0.000209042
0.000209807
0.000209918
0.000187722
0.000188241
0.000209065
0.000209017
0.000209805
0.000209849
0.000209068
0.000209956
0.00020988
0.000187655
0.000188214
0.000209085
0.00020989
0.000209883
0.000188198
0.000187971
0.000187701
0.000209862
0.000209968
0.000209458
0.000209463
0.000188076
0.000187676
0.000209867
0.000209931
0.00020948
0.000209442
0.000209948
0.000209499
0.000209457
0.000188057
0.00018767
0.000209954
0.000209484
0.000209474
0.000187672
0.000187505
0.000188099
0.000209408
0.000209409
0.000209715
0.000209762
0.000187474
0.000188144
0.000209429
0.000209375
0.000209706
0.000209657
0.000209392
0.000209783
0.000209661
0.000187452
0.000188083
0.000209409
0.000209673
0.00020966
0.000188079
0.000188159
0.000188937
0.000210195
0.000210246
0.000211126
0.000211078
0.0001882
0.000188936
0.00021019
0.000210187
0.000211162
0.000211213
0.000210179
0.000211129
0.00021119
0.000188181
0.000189045
0.000210184
0.000211252
0.000211214
0.000189002
0.000188872
0.000189381
0.000211307
0.000211202
0.00021177
0.000211631
0.000188836
0.000189203
0.000211348
0.000211365
0.00021181
0.000211657
0.000211352
0.000211658
0.000211703
0.000188958
0.000189207
0.000211387
0.000211694
0.000211743
0.000189265
0.000189261
0.000189261
0.000211936
0.000211818
0.000211971
0.000212168
0.000189137
0.000189447
0.000211965
0.000211767
0.000211962
0.000211965
0.000211829
0.000212197
0.000211994
0.000189084
0.000189301
0.000211857
0.000211993
0.000211981
0.0001893
0.000189065
0.000189327
0.0002119
0.000212109
0.000212068
0.000212143
0.000189291
0.000189363
0.000211895
0.000211946
0.000212085
0.000212168
0.000211969
0.000212199
0.000212228
0.000189149
0.000189407
0.000211956
0.000212236
0.000212252
0.000189442
0.000189418
0.000190908
0.000212411
0.000212347
0.000213694
0.000213409
0.000189358
0.000190553
0.000212439
0.000212419
0.00021373
0.000213547
0.00021246
0.000213457
0.000213646
0.000189422
0.000190657
0.000212491
0.000213595
0.000213688
0.000190669
0.00019065
0.00018859
0.000214004
0.000213687
0.000212143
0.000212211
0.000190328
0.000188738
0.000214045
0.000213808
0.000212161
0.000212164
0.000213794
0.000212228
0.000212091
0.000190415
0.000188671
0.000213832
0.000212184
0.000212103
0.000188577
0.000188155
0.000188918
0.000211829
0.000211957
0.00021135
0.000211708
0.000188344
0.000189235
0.000211842
0.000211891
0.000211342
0.000211593
0.000211843
0.000211814
0.000211728
0.000188264
0.00018915
0.000211853
0.000211694
0.000211726
0.000189232
0.000189457
0.000191713
0.000212567
0.000212762
0.000214625
0.000214499
0.000189655
0.000191408
0.000212564
0.000212697
0.000214643
0.000214527
0.000212833
0.000214551
0.00021459
0.000189605
0.000191471
0.00021284
0.000214581
0.000214612
0.000191474
0.000191602
0.000189921
0.000215141
0.000214887
0.000214384
0.000214192
0.000191255
0.000189885
0.000215167
0.000214938
0.000214409
0.000214182
0.000214972
0.000214184
0.000214222
0.000191317
0.000189852
0.000215
0.000214179
0.000214242
0.000189906
0.000189637
0.000189078
0.000213835
0.000213823
0.000212756
0.000212966
0.000189658
0.000189314
0.000213853
0.000213809
0.000212774
0.000212966
0.000213825
0.000213029
0.00021291
0.000189626
0.000189315
0.000213842
0.000213029
0.00021293
0.000189243
0.000188905
0.000190567
0.000212505
0.000212675
0.000215149
0.000215249
0.000189145
0.000190628
0.000212526
0.000212675
0.000215175
0.000215241
0.000212628
0.000215301
0.000215224
0.000189152
0.000190603
0.000212649
0.00021529
0.000215243
0.000190568
0.000192547
0.000214057
0.000214089
0.000192572
0.000214075
0.000214053
0.000235841
0.000235814
0.000235836
0.000214122
0.00019252
0.000214134
0.000100031
5.0748e-05
2.38944e-05
0.000100038
5.07451e-05
0.000209348
0.000209224
0.000209193
0.000209155
0.000144607
0.000201755
0.000103808
0.000211411
2.38923e-05
0.000144594
0.000201697
0.000211345
0.000103817
0.000182857
7.7962e-05
7.79635e-05
9.99655e-05
5.07598e-05
9.99966e-05
5.07724e-05
2.3901e-05
2.39067e-05
9.99691e-05
5.07567e-05
0.000100009
5.07693e-05
0.000209503
0.000209504
0.000209439
0.000210455
0.00021055
0.00021049
0.00021049
0.000144619
0.000103701
0.000212239
0.000202153
0.00014464
0.00010378
0.000212298
2.38988e-05
2.39049e-05
0.000144615
0.000212257
0.000103709
0.000202144
0.000144637
0.000212314
0.000103755
7.78991e-05
7.78956e-05
0.000183002
7.79993e-05
7.79965e-05
0.000100197
5.07886e-05
0.000100075
5.07973e-05
2.3912e-05
2.39159e-05
0.000100214
5.07861e-05
0.000100081
5.07945e-05
0.000211166
0.000211132
0.000211143
0.000213181
0.00021303
0.000213226
0.000213269
0.000145217
0.000103977
0.000213458
0.000203654
0.00014489
0.00010403
0.000214027
2.39102e-05
2.39137e-05
0.000145224
0.000213425
0.000103986
0.000203736
0.000144868
0.000214033
0.000104079
7.80904e-05
7.8092e-05
0.000184298
7.80963e-05
7.81002e-05
0.000100259
5.08073e-05
0.000100231
5.08107e-05
2.39204e-05
2.39227e-05
0.000100264
5.08034e-05
0.000100242
5.08066e-05
0.000213672
0.00021385
0.000213921
0.000215777
0.000215686
0.00021563
0.000215705
0.000145526
0.000104054
0.000215357
0.000205038
0.000145375
0.000104218
0.000215759
2.39175e-05
2.39198e-05
0.000145523
0.00021548
0.000104088
0.000205039
0.000145401
0.000215837
0.000104191
7.81463e-05
7.81438e-05
0.00018516
7.82093e-05
7.82033e-05
0.000100343
5.081e-05
0.000100301
5.08098e-05
2.39233e-05
2.39248e-05
0.000100329
5.08071e-05
0.000100299
5.08075e-05
0.000216354
0.000216228
0.000216276
0.000217606
0.000217976
0.000217817
0.000217707
0.000145878
0.000104339
0.000217312
0.000206468
0.000145708
0.000104332
0.000217714
2.39211e-05
2.39232e-05
0.00014582
0.000217225
0.000104279
0.000206335
0.000145668
0.000217615
0.000104297
7.8219e-05
7.82126e-05
0.000185976
7.81249e-05
7.81238e-05
0.000100154
5.08212e-05
0.00010023
5.08384e-05
2.39313e-05
2.39392e-05
0.000100173
5.08189e-05
0.000100245
5.08354e-05
0.000218184
0.000218029
0.000217887
0.000217949
0.000217899
0.0002179
0.000217902
0.000145655
0.000104044
0.000218324
0.000206538
0.000145767
0.000103943
0.000218319
2.39297e-05
2.39373e-05
0.000145668
0.000218222
0.000104061
0.000206505
0.000145756
0.000218234
0.00010398
7.79489e-05
7.79531e-05
0.000185578
7.79852e-05
7.79919e-05
0.000100432
5.08627e-05
0.000100208
5.08705e-05
2.39473e-05
2.39499e-05
0.000100439
5.08589e-05
0.000100234
5.08667e-05
0.000217898
0.000218206
0.000218311
0.000220787
0.00022052
0.000220638
0.000220746
0.00014611
0.000104148
0.000217983
0.000206857
0.000145536
0.00010446
0.000218329
2.39448e-05
2.39473e-05
0.000146127
0.000218063
0.000104181
0.000207089
0.000145587
0.000218613
0.000104461
7.8208e-05
7.82078e-05
0.000186763
7.83316e-05
7.83261e-05
0.000100599
5.08688e-05
0.000100532
5.08647e-05
2.39495e-05
2.39496e-05
0.000100591
5.08658e-05
0.000100525
5.08623e-05
0.000221571
0.000221603
0.000221678
0.000223721
0.000223851
0.000223786
0.000223797
0.000146766
0.000104639
0.000221165
0.000209429
0.000146538
0.000104684
0.000221701
2.39472e-05
2.39475e-05
0.000146724
0.000221179
0.000104603
0.000209367
0.000146507
0.000221681
0.000104659
7.83933e-05
7.83854e-05
0.000188222
7.83372e-05
7.83359e-05
0.000100349
5.08625e-05
0.000100421
5.0869e-05
2.39512e-05
2.39556e-05
0.000100365
5.08598e-05
0.000100436
5.08658e-05
0.000224188
0.000224124
0.000224126
0.000224243
0.000224355
0.000224311
0.00022431
0.000146445
0.000104381
0.000222662
0.000209818
0.000146607
0.000104282
0.000222763
2.39488e-05
2.3953e-05
0.000146444
0.000222608
0.000104406
0.000209818
0.000146597
0.000222727
0.000104304
7.8154e-05
7.81583e-05
0.000187907
7.80903e-05
7.80923e-05
0.00010033
5.0884e-05
0.000100261
5.08936e-05
2.3962e-05
2.39658e-05
0.000100324
5.08804e-05
0.000100271
5.08903e-05
0.000224328
0.000224286
0.000224286
0.000224535
0.000224472
0.000224391
0.000224388
0.000146285
0.000104213
0.000222406
0.000209425
0.00014623
0.000104379
0.000222372
2.39597e-05
2.39642e-05
0.000146248
0.000222393
0.000104183
0.000209378
0.000146219
0.000222354
0.000104333
7.81068e-05
7.80987e-05
0.000187622
7.82048e-05
7.81995e-05
0.000100431
5.08999e-05
0.000100411
5.09046e-05
2.39684e-05
2.3971e-05
0.000100441
5.08973e-05
0.00010042
5.09017e-05
0.00022512
0.00022502
0.00022501
0.000226937
0.000226926
0.000227052
0.000227008
0.000146689
0.000104468
0.00022299
0.000210626
0.000146555
0.000104482
0.000223578
2.39669e-05
2.39691e-05
0.000146691
0.000222908
0.000104485
0.000210628
0.000146539
0.000223539
0.000104514
7.82447e-05
7.82479e-05
0.000188618
7.82314e-05
7.82352e-05
0.000100426
5.09123e-05
0.000100417
5.09154e-05
2.39742e-05
2.39766e-05
0.000100439
5.09085e-05
0.000100434
5.09114e-05
0.000227378
0.000227605
0.00022756
0.00022855
0.000228344
0.000228443
0.000228484
0.000146811
0.000104441
0.000224693
0.000211346
0.000146744
0.000104477
0.000224883
2.39714e-05
2.39737e-05
0.000146833
0.000224826
0.000104481
0.000211526
0.000146764
0.000225064
0.000104492
7.82183e-05
7.82163e-05
0.000189198
7.82477e-05
7.8242e-05
0.000100434
5.09132e-05
0.000100434
5.09118e-05
2.39781e-05
2.39803e-05
0.000100426
5.09101e-05
0.00010043
5.09089e-05
0.000228693
0.000228705
0.000228776
0.000229438
0.000229646
0.000229404
0.000229414
0.000146886
0.000104537
0.000225506
0.000212035
0.000146828
0.000104513
0.000225757
2.39755e-05
2.39782e-05
0.000146821
0.000225491
0.000104491
0.000211906
0.000146798
0.000225666
0.000104474
7.82741e-05
7.82657e-05
0.000189336
7.81763e-05
7.81746e-05
0.000100215
5.09233e-05
0.000100282
5.09408e-05
2.39848e-05
2.39887e-05
0.000100226
5.09202e-05
0.000100293
5.09375e-05
0.000229794
0.000229557
0.000229551
0.000230076
0.00023023
0.000230238
0.000230315
0.000146622
0.000104297
0.000226125
0.000212113
0.000146726
0.000104242
0.000226137
2.39831e-05
2.39869e-05
0.000146594
0.000225964
0.000104291
0.000211977
0.000146692
0.000225984
0.000104248
7.80176e-05
7.80188e-05
0.000189115
7.80979e-05
7.81019e-05
0.00010053
5.09485e-05
0.000100331
5.09364e-05
2.39876e-05
2.39848e-05
0.000100545
5.09453e-05
0.000100344
5.09334e-05
0.00023061
0.000230683
0.000230746
0.000231932
0.000231697
0.000231829
0.000231911
0.000147068
0.000104515
0.000226465
0.000212566
0.000146713
0.000104738
0.000226669
2.39855e-05
2.39825e-05
0.00014709
0.000226539
0.000104533
0.000212655
0.000146731
0.000226744
0.000104765
7.83842e-05
7.83861e-05
0.000190237
7.85118e-05
7.85132e-05
0.000100129
5.08992e-05
0.000100452
5.08979e-05
2.39803e-05
2.3986e-05
0.000100128
5.08959e-05
0.000100462
5.08944e-05
0.000232092
0.000232246
0.000232292
0.000231909
0.000231897
0.000231883
0.000231786
0.000146699
0.000104497
0.000227984
0.000213308
0.000147291
0.000104043
0.000228138
2.39776e-05
2.39834e-05
0.000146689
0.000228101
0.000104514
0.000213351
0.000147295
0.00022821
0.000104044
7.80899e-05
7.80875e-05
0.000189519
7.77871e-05
7.77832e-05
9.9711e-05
5.09351e-05
9.96293e-05
5.09732e-05
2.40002e-05
2.40091e-05
9.96997e-05
5.09314e-05
9.96219e-05
5.09698e-05
0.000231685
0.000231641
0.000231566
0.000230759
0.000231112
0.000230993
0.000230934
0.000145469
0.000103599
0.000226678
0.000211727
0.000145689
0.000103805
0.00022646
2.39979e-05
2.40071e-05
0.000145419
0.000226635
0.000103569
0.000211638
0.000145656
0.000226404
0.000103766
7.76748e-05
7.76697e-05
0.000188064
7.79605e-05
7.79566e-05
0.000100565
5.09876e-05
0.000100287
5.09797e-05
2.40072e-05
2.40058e-05
0.000100578
5.09848e-05
0.000100292
5.09769e-05
0.000231367
0.000231252
0.000231307
0.000234454
0.00023441
0.000234409
0.000234483
0.000147301
0.000104597
0.000226794
0.000213516
0.000146688
0.000104755
0.00022782
2.40053e-05
2.40039e-05
0.000147305
0.000226715
0.000104602
0.000213492
0.000146673
0.000227783
0.000104771
7.83922e-05
7.83954e-05
0.000190682
7.84408e-05
7.84462e-05
0.000100195
5.0943e-05
0.0001005
5.09401e-05
2.39958e-05
2.40001e-05
0.000100203
5.09398e-05
0.000100523
5.09368e-05
0.000235015
0.00023504
0.000235098
0.000236511
0.000236112
0.000236134
0.000236233
0.000146971
0.000104567
0.000229678
0.00021524
0.000147575
0.000104211
0.000230374
2.39935e-05
2.3998e-05
0.000146966
0.000229713
0.000104588
0.000215292
0.000147599
0.000230419
0.000104202
7.81439e-05
7.81434e-05
0.000191008
7.7969e-05
7.7965e-05
9.97769e-05
5.09336e-05
9.98013e-05
5.09469e-05
2.39971e-05
2.40057e-05
9.97809e-05
5.09307e-05
9.98043e-05
5.09439e-05
0.000235801
0.000235816
0.000235859
0.00023429
0.000234481
0.000234488
0.000234404
0.000146034
0.00010402
0.000229477
0.000213342
0.000146199
0.000103877
0.000228805
2.39951e-05
2.40037e-05
0.000146023
0.000229479
0.000104006
0.000213321
0.000146177
0.000228798
0.000103867
7.78708e-05
7.78686e-05
0.000189419
7.77529e-05
7.77529e-05
9.97476e-05
5.0944e-05
9.9729e-05
5.09895e-05
2.40025e-05
2.40241e-05
9.97551e-05
5.09404e-05
9.97376e-05
5.09865e-05
0.000234309
0.00023432
0.000234216
0.000233007
0.000233181
0.000233178
0.00023312
0.000146015
0.000103941
0.000228075
0.000213336
0.000146004
0.000103766
0.000227914
2.40002e-05
2.4022e-05
0.000146016
0.000228068
0.000103939
0.000213352
0.000146005
0.000227915
0.000103761
7.76921e-05
7.76931e-05
0.0001894
7.74513e-05
7.74519e-05
0.000108645
5.50965e-05
0.000100338
8.58813e-05
2.70361e-05
4.62431e-05
0.000108638
5.50925e-05
0.000100337
8.58798e-05
0.000249749
0.000242647
0.000242657
0.000235303
0.00025013
0.000243528
0.000243527
0.000150478
0.000105863
0.000232298
0.000214244
0.000146963
0.000108523
0.000230801
2.70345e-05
4.62378e-05
0.000150445
0.000232286
0.000105845
0.000214173
0.000146944
0.000230763
0.000108502
7.74479e-05
7.74422e-05
0.000197088
8.56047e-05
8.56088e-05
2.38953e-05
2.3894e-05
0.000182941
7.79982e-05
7.79964e-05
2.39006e-05
2.38957e-05
2.38993e-05
2.38944e-05
0.000182943
7.79299e-05
7.79267e-05
7.79724e-05
7.79701e-05
0.000100034
5.07478e-05
0.000144622
0.000201764
0.000103848
0.000211389
0.000144622
0.00020173
0.000103819
0.000211392
0.000100022
5.07577e-05
5.07491e-05
0.000100019
0.000100024
5.07586e-05
5.07491e-05
0.000100021
0.000144621
0.000202042
0.000103766
0.000212225
0.000103809
0.000211927
0.0001447
0.000144621
0.000201959
0.000103742
0.000212187
0.000103777
0.000211906
0.000144698
0.000182908
7.79699e-05
7.79568e-05
2.3895e-05
2.39002e-05
2.38949e-05
0.000182887
7.79083e-05
7.79018e-05
7.79426e-05
7.79302e-05
2.39009e-05
2.38955e-05
0.000144618
0.000201769
0.00010384
0.000211349
0.000100032
5.074e-05
0.000144609
0.000201666
0.00021132
0.0001038
0.000100031
5.07546e-05
5.07462e-05
0.000100029
0.00014462
0.000202051
0.00010376
0.000212223
0.000103801
0.000211905
0.000144704
0.000100025
5.07508e-05
5.07413e-05
0.000100023
0.000144611
0.000201916
0.000212176
0.000103721
0.000211864
0.000103762
0.000144694
0.000100026
5.0747e-05
0.000144602
0.000201696
0.000211394
0.000103804
0.000100022
5.07437e-05
0.000144604
0.000201973
0.000103731
0.000212129
0.000103765
0.000211884
0.000144675
0.000100016
5.0758e-05
5.07484e-05
0.00010001
0.0001446
0.000201906
0.00021211
0.000103728
0.000211865
0.000103764
0.000144671
0.000100013
5.07549e-05
5.07451e-05
0.000100006
0.000182836
7.79589e-05
7.79758e-05
2.38943e-05
2.3898e-05
2.38927e-05
0.000182833
7.78883e-05
7.79055e-05
7.79319e-05
7.79493e-05
2.39e-05
2.38948e-05
0.000144596
0.000201702
0.000211357
0.000103803
0.000100018
5.07437e-05
0.000100025
5.07435e-05
0.000144591
0.000201939
0.000212126
0.000103743
0.00021185
0.000103781
0.00014467
0.000144595
0.000201912
0.000212109
0.000103725
0.000211845
0.000103763
0.00014467
0.000100008
5.07542e-05
5.07449e-05
0.000100004
0.000100015
5.07552e-05
5.07449e-05
0.000100008
2.3894e-05
2.38936e-05
0.000182837
7.79018e-05
7.79005e-05
7.79361e-05
7.7937e-05
2.39e-05
2.38945e-05
2.38996e-05
2.38941e-05
2.39014e-05
2.39073e-05
2.39001e-05
2.39061e-05
7.79116e-05
7.79078e-05
0.000183079
7.79685e-05
7.79619e-05
2.3913e-05
2.3908e-05
2.39117e-05
2.39068e-05
0.000182994
7.80667e-05
7.80636e-05
7.79755e-05
7.79687e-05
9.99684e-05
5.07608e-05
9.99986e-05
5.07735e-05
0.000144648
0.000103734
0.000212372
0.000202251
0.000144672
0.000103741
0.000212445
0.000144647
0.000103711
0.000212324
0.000202156
0.000144669
0.000103769
0.000212393
9.99471e-05
5.07868e-05
5.07749e-05
0.000100064
9.9951e-05
5.07863e-05
5.07758e-05
0.00010007
0.00014461
0.000202277
0.000103927
0.000212867
0.000103737
0.000212559
0.00014479
0.000144611
0.000202332
0.000103965
0.00021291
0.000103777
0.000212559
0.000144802
7.79048e-05
7.79085e-05
0.000183061
7.8001e-05
7.80054e-05
2.39017e-05
2.39073e-05
2.39117e-05
2.39073e-05
0.000183049
7.80818e-05
7.80788e-05
7.80159e-05
7.80239e-05
2.39121e-05
2.39078e-05
0.000144651
0.000103726
0.000212383
0.000202268
0.000144677
0.000103732
0.000212461
9.99647e-05
5.07531e-05
0.000100003
5.07666e-05
0.000144642
0.000212333
0.000103688
0.000202139
0.000144668
0.000212405
0.000103734
9.99537e-05
5.07843e-05
5.07719e-05
0.000100063
0.000144611
0.000202294
0.000103918
0.00021285
0.000103725
0.000212561
0.000144776
9.99507e-05
5.07802e-05
5.07691e-05
0.000100063
0.000144606
0.000202289
0.000212873
0.000103948
0.000212543
0.000103739
0.00014478
9.99617e-05
5.07603e-05
9.99857e-05
5.0773e-05
0.000144613
0.000212222
0.000103696
0.000202085
0.000144636
0.000212283
0.000103766
9.99577e-05
5.07571e-05
9.99818e-05
5.07702e-05
0.000144596
0.000202345
0.000103974
0.000212918
0.000103792
0.000212509
0.000144843
9.9951e-05
5.07853e-05
5.07752e-05
0.00010009
0.000144591
0.000202292
0.000212903
0.000103979
0.000212493
0.000103777
0.00014484
9.99471e-05
5.07829e-05
5.07725e-05
0.000100089
7.78737e-05
7.7893e-05
0.000183032
7.79697e-05
7.79921e-05
2.39009e-05
2.39068e-05
2.39099e-05
2.39055e-05
0.000183004
7.80749e-05
7.80961e-05
7.79911e-05
7.80102e-05
2.39118e-05
2.39074e-05
0.000144614
0.000212235
0.000103692
0.000202102
0.000144637
0.000212297
0.000103764
9.99537e-05
5.07564e-05
9.9978e-05
5.07696e-05
9.99586e-05
5.07576e-05
9.99839e-05
5.0771e-05
0.000144584
0.000202296
0.000212877
0.000103973
0.000212491
0.000103761
0.000144819
0.000144588
0.000202313
0.000212887
0.000103979
0.000212494
0.000103774
0.000144827
9.99386e-05
5.07833e-05
5.07721e-05
0.000100076
9.99464e-05
5.07834e-05
5.07733e-05
0.000100084
2.39008e-05
2.39066e-05
2.39004e-05
2.39062e-05
0.000182996
7.80906e-05
7.80913e-05
7.80157e-05
7.80125e-05
2.39115e-05
2.39071e-05
2.39111e-05
2.39068e-05
2.39134e-05
2.39172e-05
2.39122e-05
2.39158e-05
7.80688e-05
7.80666e-05
0.000184206
7.81149e-05
7.81157e-05
2.39203e-05
2.39175e-05
2.39188e-05
2.39161e-05
0.000184335
7.81608e-05
7.81581e-05
7.81124e-05
7.81129e-05
0.000100199
5.07878e-05
0.000100082
5.07956e-05
0.000145184
0.000103937
0.000213344
0.000203563
0.00014483
0.000104069
0.00021391
0.000145186
0.000103969
0.0002134
0.000203596
0.000144841
0.000104033
0.000213944
0.000100195
5.08063e-05
5.07988e-05
0.000100237
0.000100196
5.08067e-05
5.07972e-05
0.000100235
0.000145209
0.000204003
0.000104138
0.000214991
0.000104063
0.000214484
0.000145388
0.000145208
0.000203883
0.000104058
0.000214926
0.000104013
0.00021447
0.000145379
7.80807e-05
7.80758e-05
0.000184194
7.80681e-05
7.80616e-05
2.39124e-05
2.39163e-05
2.39202e-05
2.39163e-05
0.000184232
7.81015e-05
7.80939e-05
7.805e-05
7.80396e-05
2.39208e-05
2.39167e-05
0.000145196
0.00010393
0.000213323
0.000203573
0.000144818
0.000104069
0.000213897
0.00010021
5.07816e-05
0.00010008
5.07886e-05
0.000145195
0.000213371
0.000103959
0.000203675
0.000144824
0.00021395
0.000104055
0.000100215
5.08026e-05
5.07958e-05
0.000100248
0.000145227
0.000204027
0.000104138
0.000215041
0.000104064
0.000214499
0.00014542
0.00010021
5.07977e-05
5.07899e-05
0.000100243
0.000145224
0.000204048
0.000215033
0.000104076
0.000214529
0.000104041
0.00014541
0.000100205
5.07867e-05
0.000100102
5.07944e-05
0.00014522
0.000213453
0.000103986
0.000203716
0.000144889
0.000214043
0.000104062
0.000100206
5.07843e-05
0.0001001
5.07919e-05
0.000145232
0.000203936
0.000104053
0.00021498
0.000104007
0.000214548
0.000145371
0.0001002
5.08059e-05
5.07961e-05
0.000100228
0.000145236
0.000204085
0.000215052
0.000104101
0.000214595
0.000104047
0.000145378
0.000100201
5.08016e-05
5.07933e-05
0.000100229
7.80805e-05
7.81017e-05
0.000184279
7.8089e-05
7.81114e-05
2.39122e-05
2.39156e-05
2.39173e-05
2.39139e-05
0.000184355
7.81027e-05
7.81139e-05
7.8076e-05
7.80987e-05
2.39192e-05
2.39158e-05
0.000145226
0.000213432
0.000103987
0.000203727
0.000144876
0.000214032
0.000104066
0.000100207
5.07847e-05
0.000100088
5.07918e-05
0.000100211
5.07847e-05
0.000100096
5.0792e-05
0.000145246
0.000204111
0.000215093
0.000104094
0.000214611
0.000104066
0.0001454
0.000145248
0.000204106
0.000215101
0.000104104
0.00021461
0.000104052
0.000145402
0.000100202
5.08006e-05
5.0793e-05
0.00010023
0.000100208
5.08018e-05
5.07934e-05
0.000100236
2.39118e-05
2.39154e-05
2.39114e-05
2.3915e-05
0.000184373
7.81348e-05
7.81341e-05
7.80861e-05
7.80898e-05
2.39191e-05
2.39157e-05
2.39185e-05
2.39153e-05
2.39203e-05
2.39222e-05
2.39188e-05
2.39207e-05
7.81686e-05
7.81642e-05
0.000185229
7.82146e-05
7.82066e-05
2.39233e-05
2.3922e-05
2.3922e-05
2.39206e-05
0.000185253
7.824e-05
7.82275e-05
7.82214e-05
7.82122e-05
0.000100261
5.08082e-05
0.000100229
5.08139e-05
0.000145537
0.00010414
0.000215428
0.000205171
0.000145395
0.000104219
0.00021585
0.000145537
0.000104058
0.000215337
0.000205019
0.000145384
0.000104216
0.00021577
0.000100256
5.08107e-05
5.08106e-05
0.000100301
0.000100258
5.08139e-05
5.08139e-05
0.000100305
0.000145537
0.000205513
0.000104292
0.000216832
0.000104218
0.000216326
0.000145695
0.000145538
0.000205488
0.00010433
0.000216836
0.000104226
0.000216285
0.000145699
7.81163e-05
7.81138e-05
0.00018511
7.82109e-05
7.82092e-05
2.3921e-05
2.39233e-05
2.39237e-05
2.39225e-05
0.000185198
7.82927e-05
7.82924e-05
7.82275e-05
7.82268e-05
2.39242e-05
2.3923e-05
0.000145539
0.000104137
0.000215499
0.000205206
0.000145423
0.000104207
0.000215909
0.000100259
5.0799e-05
0.000100237
5.08044e-05
0.000145531
0.000215454
0.00010407
0.00020502
0.000145413
0.000215845
0.000104178
0.00010026
5.08074e-05
5.08066e-05
0.000100298
0.000145536
0.000205533
0.000104274
0.000216819
0.000104204
0.00021635
0.00014568
0.000100256
5.08051e-05
5.08045e-05
0.000100295
0.000145528
0.000205407
0.000216777
0.000104264
0.000216287
0.000104182
0.000145674
0.000100259
5.08075e-05
0.000100221
5.08131e-05
0.000145525
0.000215433
0.000104101
0.000205092
0.000145381
0.000215811
0.000104211
0.000100255
5.08028e-05
0.000100223
5.08072e-05
0.000145532
0.000205508
0.000104336
0.000216808
0.000104228
0.000216255
0.000145695
0.000100256
5.0813e-05
5.08131e-05
0.000100303
0.000145528
0.000205462
0.000216783
0.000104295
0.000216267
0.000104213
0.000145687
0.000100252
5.08074e-05
5.08071e-05
0.000100299
7.8112e-05
7.81208e-05
0.000185109
7.81747e-05
7.81878e-05
2.39194e-05
2.39217e-05
2.39214e-05
2.39197e-05
0.000185138
7.82326e-05
7.82474e-05
7.81851e-05
7.81984e-05
2.39234e-05
2.39217e-05
0.000145527
0.000215502
0.000104104
0.000205129
0.000145404
0.00021587
0.000104208
0.000100247
5.08019e-05
0.000100222
5.08072e-05
0.000100253
5.0803e-05
0.000100228
5.08075e-05
0.000145521
0.000205423
0.000216745
0.000104277
0.000216257
0.000104196
0.000145664
0.000145525
0.000205485
0.000216771
0.000104288
0.000216292
0.000104209
0.00014567
0.000100242
5.08083e-05
5.08074e-05
0.000100284
0.000100248
5.08076e-05
5.08074e-05
0.000100289
2.39192e-05
2.39212e-05
2.39186e-05
2.39207e-05
0.000185187
7.82566e-05
7.82488e-05
7.8219e-05
7.82122e-05
2.39223e-05
2.3921e-05
2.3922e-05
2.39206e-05
2.39231e-05
2.39257e-05
2.39219e-05
2.39246e-05
7.82013e-05
7.81901e-05
0.000185929
7.81155e-05
7.81093e-05
2.39321e-05
2.39262e-05
2.39309e-05
2.39251e-05
0.000185798
7.79857e-05
7.79868e-05
7.80723e-05
7.80683e-05
0.000100354
5.08129e-05
0.000100307
5.08113e-05
0.000145855
0.000104279
0.000217288
0.000206265
0.000145703
0.000104248
0.000217651
0.000145873
0.000104334
0.000217326
0.000206439
0.00014571
0.000104334
0.000217715
0.000100323
5.08185e-05
5.08102e-05
0.000100271
0.000100337
5.08165e-05
5.0811e-05
0.00010028
0.000145846
0.000206375
0.000104074
0.000218114
0.00010417
0.000217946
0.000145818
0.000145866
0.000206606
0.000104116
0.000218223
0.000104242
0.000218039
0.000145836
7.82792e-05
7.82761e-05
0.000186184
7.8173e-05
7.81652e-05
2.39238e-05
2.39253e-05
2.39303e-05
2.3925e-05
0.000186058
7.8008e-05
7.80014e-05
7.81184e-05
7.81125e-05
2.39308e-05
2.39255e-05
0.000145813
0.000104258
0.000217251
0.000206261
0.000145682
0.000104228
0.000217598
0.000100328
5.08046e-05
0.000100296
5.08044e-05
0.000145815
0.000217241
0.000104264
0.000206307
0.000145678
0.000217615
0.000104271
0.000100316
5.08163e-05
5.0808e-05
0.000100277
0.000145801
0.000206365
0.000104068
0.000218036
0.000104153
0.000217877
0.000145803
0.000100316
5.08109e-05
5.08044e-05
0.000100276
0.000145806
0.000206466
0.00021811
0.000104093
0.000217922
0.000104195
0.000145809
0.000100357
5.0812e-05
0.000100306
5.08104e-05
0.000145862
0.000217267
0.000104289
0.000206292
0.000145699
0.000217653
0.000104268
0.000100348
5.08068e-05
0.0001003
5.08064e-05
0.000145876
0.000206637
0.000104113
0.000218247
0.000104238
0.00021805
0.000145851
0.000100341
5.08155e-05
5.08101e-05
0.000100284
0.000145859
0.000206425
0.000218162
0.00010408
0.00021797
0.000104185
0.000145837
0.000100332
5.08141e-05
5.08065e-05
0.000100278
7.82196e-05
7.82408e-05
0.000186013
7.8136e-05
7.81624e-05
2.39232e-05
2.39251e-05
2.39288e-05
2.39235e-05
0.000185923
7.80001e-05
7.8021e-05
7.80931e-05
7.81169e-05
2.39306e-05
2.39255e-05
0.000145822
0.000217232
0.000104281
0.000206293
0.000145675
0.000217604
0.000104259
0.000100321
5.0808e-05
0.000100281
5.0808e-05
0.000100324
5.08068e-05
0.000100286
5.08064e-05
0.000145812
0.000206502
0.000218142
0.000104122
0.000217935
0.000104226
0.000145819
0.000145812
0.000206419
0.00021809
0.000104078
0.000217907
0.000104179
0.00014581
0.000100304
5.08143e-05
5.0808e-05
0.000100269
0.000100303
5.08146e-05
5.08067e-05
0.000100265
2.39221e-05
2.39243e-05
2.39217e-05
2.3924e-05
0.000185854
7.79846e-05
7.7988e-05
7.80781e-05
7.80787e-05
2.39306e-05
2.39248e-05
2.39303e-05
2.39245e-05
2.39332e-05
2.3941e-05
2.3932e-05
2.39397e-05
7.79514e-05
7.79536e-05
0.000185536
7.80006e-05
7.80063e-05
2.39476e-05
2.3942e-05
2.39461e-05
2.39406e-05
0.000185388
7.81873e-05
7.81865e-05
7.80197e-05
7.80241e-05
0.000100158
5.08189e-05
0.000100236
5.08353e-05
0.000145641
0.00010402
0.000218174
0.00020634
0.000145744
0.000103967
0.000218179
0.000145647
0.000104045
0.000218294
0.000206501
0.000145755
0.000103943
0.000218287
0.000100112
5.08602e-05
5.08423e-05
0.000100188
0.000100113
5.08592e-05
5.08393e-05
0.00010018
0.000145541
0.000206267
0.000104193
0.000218069
0.000103944
0.000218158
0.000145537
0.000145544
0.000206424
0.000104102
0.000218148
0.000103891
0.000218257
0.000145515
7.79646e-05