/*--------------------------------*- C++ -*----------------------------------*\
| =========                 |                                                 |
| \\      /  F ield         | OpenFOAM: The Open Source CFD Toolbox           |
|  \\    /   O peration     | Version:  v1906                                 |
|   \\  /    A nd           | Web:      www.OpenFOAM.com                      |
|    \\/     M anipulation  |                                                 |
\*---------------------------------------------------------------------------*/
FoamFile
{
    version     2.0;
    format      ascii;
    class       volScalarField;
    location    "1000";
    object      p;
}
// * * * * * * * * * * * * * * * * * * * * * * * * * * * * * * * * * * * * * //

dimensions      [0 2 -2 0 0 0 0];


internalField   nonuniform List<scalar> 
43024
(
0.000714477
0.000714431
0.000714433
0.00071645
0.000679023
0.000678939
0.000678937
0.000680951
0.00064342
0.000643363
0.000643352
0.000645364
0.000607747
0.000607666
0.00060768
0.000609703
0.000572163
0.000572118
0.000572119
0.000574141
0.000536622
0.000536586
0.000536571
0.000538593
0.000500864
0.000500775
0.000500783
0.000502807
0.000465088
0.000465038
0.000465034
0.000467064
0.000429357
0.00042934
0.000429342
0.000431384
0.000393602
0.000393529
0.00039353
0.000395561
0.000357776
0.000357733
0.00035772
0.000359756
0.000321877
0.000321838
0.000321846
0.000323885
0.000286051
0.000286007
0.000286012
0.000288053
0.000249989
0.00024995
0.000249942
0.000251997
0.000213858
0.000213817
0.00021381
0.000215854
0.000178183
0.000178164
0.000178171
0.000180215
0.000142199
0.000142102
0.000142105
0.000144139
0.000105845
0.000105786
0.000105779
0.000107792
6.97176e-05
6.9713e-05
6.97153e-05
7.17246e-05
3.43512e-05
3.37946e-05
3.37836e-05
3.56429e-05
6.1083e-06
7.01018e-06
7.01081e-06
5.2672e-06
0.000721252
0.000723285
0.000723291
0.000721258
0.000723284
0.000723292
0.000723295
0.000723299
0.000721259
0.000723296
0.000723298
0.000721263
0.00071644
0.000685791
0.000714425
0.000714428
0.000687835
0.000687824
0.000716443
0.00068578
0.000714425
0.00071443
0.000687836
0.000687826
0.000714435
0.000687822
0.000687826
0.000716444
0.000685779
0.000714435
0.000687825
0.000687826
0.000685779
0.000680963
0.000650198
0.000678953
0.000678943
0.000652253
0.00065227
0.000680955
0.00065022
0.000678953
0.000678941
0.00065225
0.000652257
0.000678938
0.00065227
0.000652255
0.000680953
0.000650208
0.000678939
0.000652256
0.000652252
0.000650203
0.000645358
0.000614545
0.000643342
0.000643362
0.000616592
0.000616585
0.000645375
0.000614535
0.000643339
0.000643351
0.000616594
0.000616595
0.000643349
0.000616586
0.000616595
0.000645367
0.000614545
0.000643346
0.000616596
0.000616596
0.000614546
0.000609703
0.000578971
0.00060768
0.000607666
0.000581002
0.000580988
0.00060969
0.000578961
0.000607684
0.000607679
0.000581005
0.000580996
0.00060768
0.000580986
0.000580997
0.000609702
0.000578965
0.000607683
0.000580994
0.000581
0.000578967
0.000574145
0.000543432
0.000572124
0.000572119
0.000545474
0.000545493
0.000574139
0.000543462
0.000572125
0.00057212
0.00054547
0.000545478
0.000572121
0.000545493
0.000545479
0.000574141
0.000543445
0.000572123
0.000545479
0.000545475
0.00054344
0.000538584
0.00050767
0.000536563
0.000536585
0.000509731
0.000509727
0.000538614
0.000507662
0.000536558
0.00053657
0.000509731
0.000509731
0.00053657
0.000509727
0.000509732
0.000538598
0.000507668
0.000536565
0.000509732
0.000509732
0.00050767
0.000502809
0.00047192
0.000500784
0.000500775
0.000473966
0.000473959
0.000502799
0.000471914
0.000500786
0.000500783
0.000473968
0.00047396
0.000500783
0.000473957
0.000473959
0.000502806
0.000471913
0.000500785
0.000473958
0.00047396
0.000471912
0.00046707
0.000436234
0.000465043
0.00046504
0.000438269
0.000438273
0.000467067
0.00043624
0.000465043
0.000465037
0.000438268
0.000438273
0.000465036
0.000438274
0.000438272
0.000467065
0.000436239
0.000465036
0.000438273
0.000438272
0.000436239
0.000431379
0.000400432
0.000429335
0.000429338
0.000402488
0.000402481
0.000431382
0.000400424
0.000429334
0.000429341
0.000402491
0.00040249
0.00042934
0.000402481
0.000402489
0.000431384
0.00040043
0.00042934
0.000402491
0.000402491
0.00040043
0.000395564
0.000364626
0.000393536
0.000393529
0.000366683
0.00036669
0.000395558
0.000364637
0.000393537
0.000393531
0.00036668
0.000366675
0.000393532
0.000366688
0.00036668
0.00039556
0.000364622
0.000393533
0.000366674
0.000366677
0.000364624
0.000359755
0.000328749
0.000357723
0.000357733
0.0003308
0.00033081
0.000359766
0.000328756
0.000357719
0.000357721
0.000330801
0.000330814
0.000357723
0.000330812
0.000330811
0.000359754
0.000328762
0.00035772
0.000330816
0.000330811
0.00032876
0.000323874
0.000292935
0.000321831
0.000321835
0.00029498
0.000294962
0.000323876
0.000292918
0.000321833
0.000321844
0.000294983
0.000294973
0.000321843
0.000294962
0.000294976
0.000323884
0.000292926
0.000321845
0.000294973
0.000294979
0.000292928
0.000288063
0.000256931
0.000286026
0.000286009
0.000259006
0.000259005
0.000288049
0.000256935
0.000286027
0.000286014
0.000259004
0.000258999
0.000286013
0.000259001
0.000258987
0.000288055
0.000256926
0.000286015
0.000258994
0.000258985
0.000256916
0.000252005
0.000220705
0.000249944
0.000249952
0.000222778
0.0002228
0.000252012
0.000220731
0.000249942
0.000249945
0.000222776
0.000222792
0.000249937
0.000222804
0.000222798
0.000252004
0.000220723
0.000249934
0.000222796
0.000222796
0.000220732
0.000215822
0.000185068
0.000213788
0.00021381
0.000187085
0.000187076
0.000215845
0.000185058
0.000213787
0.000213803
0.000187085
0.000187081
0.00021382
0.000187079
0.00018709
0.00021584
0.000185063
0.000213818
0.000187084
0.000187091
0.000185069
0.000180219
0.000149138
0.000178179
0.000178164
0.000151235
0.000151206
0.000180206
0.000149111
0.000178181
0.000178171
0.000151237
0.000151215
0.000178172
0.000151195
0.000151191
0.000180212
0.000149116
0.000178174
0.000151204
0.000151193
0.000149098
0.000144167
0.00011272
0.000142127
0.000142111
0.000114811
0.000114831
0.000144151
0.000112747
0.000142128
0.000142114
0.000114809
0.000114823
0.000142095
0.000114836
0.000114832
0.000144154
0.000112737
0.000142096
0.000114828
0.00011483
0.000112744
0.00010776
7.66891e-05
0.000105751
0.000105779
7.87062e-05
7.87127e-05
0.000107791
7.66875e-05
0.000105748
0.000105771
7.87066e-05
7.87164e-05
0.000105784
7.87172e-05
7.87168e-05
0.000107783
7.669e-05
0.000105782
7.87201e-05
7.87178e-05
7.66908e-05
7.17319e-05
4.06159e-05
6.97222e-05
6.97139e-05
4.26546e-05
4.26401e-05
7.17218e-05
4.06006e-05
6.97225e-05
6.97167e-05
4.26523e-05
4.26312e-05
6.97128e-05
4.26333e-05
4.26369e-05
7.17248e-05
4.05897e-05
6.97132e-05
4.2625e-05
4.26345e-05
4.06e-05
3.56517e-05
8.44825e-06
3.38103e-05
3.37986e-05
1.14371e-05
1.14376e-05
3.56416e-05
8.45581e-06
3.3807e-05
3.37862e-05
1.14366e-05
1.14337e-05
3.38045e-05
1.14405e-05
1.14316e-05
3.56309e-05
8.45373e-06
3.38017e-05
1.14397e-05
1.14352e-05
8.44533e-06
5.27603e-06
7.00906e-06
7.01334e-06
5.28254e-06
7.01132e-06
7.01124e-06
6.10853e-06
6.11191e-06
6.0918e-06
6.99627e-06
5.28249e-06
7.00109e-06
0.000738814
0.000738826
0.000738843
0.000738815
0.000738826
0.000723346
0.000723352
0.000723353
0.000723356
0.000738866
0.000741022
0.00073885
0.00074105
0.000738842
0.000738866
0.000741023
0.000741052
0.000738849
0.000738985
0.000738834
0.000738834
0.000703381
0.000716664
0.000716648
0.000703382
0.000716658
0.000703369
0.000703383
0.000716665
0.000716649
0.000703384
0.000714483
0.000714485
0.000714488
0.000687897
0.00068789
0.000687894
0.000687895
0.000703423
0.00071662
0.000714449
0.000705566
0.000716585
0.000703391
0.000705585
0.000716663
0.000703371
0.000703425
0.00071445
0.000716623
0.00070557
0.000716585
0.000705586
0.000703396
0.000716662
0.000716663
0.00070354
0.000703358
0.000703358
0.000667838
0.000681144
0.000681135
0.00066784
0.000681149
0.000667861
0.000667831
0.000681143
0.000681134
0.000667835
0.000679011
0.000679014
0.000679014
0.000652332
0.000652341
0.000652327
0.000652328
0.000667883
0.000681097
0.000678966
0.000670053
0.000681076
0.000667867
0.000670077
0.000681139
0.000667845
0.000667877
0.000678967
0.000681091
0.000670045
0.000681075
0.000670074
0.000667853
0.00068113
0.00068113
0.000667998
0.000667829
0.000667827
0.000632217
0.000645564
0.000645566
0.000632212
0.000645565
0.000632202
0.000632218
0.000645561
0.00064556
0.000632213
0.000643439
0.000643423
0.000643422
0.000616661
0.000616662
0.000616668
0.000616665
0.000632273
0.000645537
0.00064338
0.000634442
0.000645513
0.000632234
0.000634466
0.000645567
0.000632213
0.000632273
0.000643372
0.000645534
0.000634438
0.000645505
0.00063446
0.000632241
0.000645559
0.000645558
0.000632379
0.000632202
0.000632202
0.000596571
0.000609906
0.000609881
0.000596601
0.000609894
0.000596601
0.000596581
0.000609913
0.000609893
0.000596607
0.000607739
0.00060775
0.000607748
0.00058105
0.000581035
0.000581044
0.000581046
0.000596606
0.000609843
0.000607699
0.000598755
0.000609824
0.000596592
0.000598787
0.000609908
0.000596607
0.000596617
0.000607708
0.000609858
0.000598771
0.000609834
0.000598797
0.000596602
0.000609906
0.000609909
0.000596733
0.000596597
0.000596599
0.000561089
0.000574391
0.00057437
0.000561085
0.000574401
0.000561099
0.000561081
0.00057439
0.000574368
0.000561079
0.000572154
0.000572158
0.000572161
0.000545509
0.000545509
0.000545504
0.000545508
0.000561119
0.000574338
0.000572126
0.000563248
0.000574288
0.000561115
0.000563253
0.000574394
0.000561085
0.000561113
0.000572129
0.000574335
0.000563243
0.000574289
0.00056325
0.000561104
0.000574382
0.000574382
0.000561219
0.000561068
0.000561066
0.000525377
0.000538752
0.000538768
0.000525371
0.000538759
0.000525367
0.000525376
0.000538746
0.000538759
0.000525371
0.000536626
0.000536621
0.000536625
0.000509817
0.000509825
0.000509824
0.000509821
0.000525444
0.000538738
0.000536594
0.000527647
0.000538734
0.000525398
0.000527676
0.000538751
0.000525371
0.000525441
0.000536586
0.000538726
0.000527638
0.000538721
0.000527668
0.000525399
0.000538746
0.000538743
0.000525562
0.000525363
0.000525363
0.000489621
0.000503006
0.000502988
0.000489643
0.000502998
0.000489644
0.000489626
0.000503011
0.000502996
0.000489645
0.000500864
0.000500867
0.000500865
0.000474027
0.00047402
0.000474022
0.000474021
0.000489662
0.000502954
0.000500809
0.000491827
0.000502933
0.000489644
0.000491857
0.000503007
0.000489645
0.000489667
0.000500813
0.000502963
0.000491835
0.000502939
0.000491862
0.000489648
0.000503004
0.000503006
0.000489776
0.000489631
0.000489632
0.000453958
0.000467326
0.000467305
0.000453964
0.00046733
0.000453972
0.000453953
0.000467323
0.000467302
0.000453961
0.000465083
0.000465082
0.000465082
0.000438292
0.000438296
0.000438295
0.000438295
0.000453987
0.000467271
0.000465048
0.000456122
0.000467221
0.00045398
0.000456127
0.000467325
0.000453971
0.000453984
0.000465048
0.000467266
0.000456117
0.000467219
0.000456125
0.000453976
0.000467316
0.000467315
0.000454085
0.000453953
0.000453953
0.000418184
0.00043159
0.000431588
0.000418181
0.000431586
0.000418177
0.000418191
0.000431593
0.000431591
0.000418186
0.00042936
0.000429363
0.000429361
0.000402545
0.000402539
0.000402547
0.000402545
0.000418238
0.000431554
0.000429344
0.000420396
0.000431527
0.000418202
0.000420402
0.000431596
0.000418184
0.000418245
0.000429346
0.000431562
0.000420405
0.000431529
0.000420406
0.000418212
0.000431592
0.000431593
0.00041836
0.000418174
0.000418175
0.000382374
0.000395774
0.000395758
0.000382382
0.000395772
0.000382389
0.000382367
0.000395775
0.00039576
0.000382376
0.000393596
0.000393601
0.000393602
0.000366742
0.000366743
0.000366735
0.000366739
0.000382409
0.000395722
0.000393554
0.000384581
0.000395696
0.000382395
0.000384603
0.000395766
0.000382374
0.000382403
0.000393556
0.00039572
0.000384575
0.000395697
0.000384601
0.000382383
0.000395763
0.000395763
0.000382521
0.000382364
0.000382362
0.000346547
0.000359978
0.000359975
0.000346541
0.000359989
0.000346551
0.000346545
0.000359971
0.000359965
0.00034654
0.000357782
0.000357772
0.000357775
0.00033085
0.00033086
0.000330858
0.000330856
0.000346599
0.000359948
0.000357743
0.000348765
0.000359911
0.000346577
0.000348777
0.000359979
0.000346555
0.000346595
0.000357734
0.000359934
0.000348757
0.0003599
0.00034877
0.000346577
0.000359973
0.00035997
0.000346701
0.000346541
0.00034654
0.000310677
0.000324091
0.000324071
0.000310704
0.000324089
0.000310697
0.000310686
0.000324098
0.000324082
0.00031071
0.000321886
0.000321888
0.000321886
0.000295006
0.000294994
0.000295003
0.000295006
0.000310714
0.000324046
0.000321855
0.000312869
0.00032402
0.000310699
0.000312886
0.000324107
0.000310708
0.000310725
0.000321859
0.000324062
0.000312882
0.000324029
0.000312894
0.000310712
0.000324102
0.000324105
0.000310836
0.000310701
0.000310703
0.000274865
0.000288322
0.000288301
0.000274845
0.000288307
0.000274833
0.000274862
0.000288323
0.000288304
0.000274843
0.000286034
0.000286041
0.000286043
0.000259049
0.000259037
0.000259038
0.000259029
0.000274886
0.000288251
0.000286013
0.00027703
0.000288208
0.000274864
0.000277033
0.000288308
0.000274825
0.000274884
0.000286018
0.000288253
0.000277031
0.000288212
0.000277036
0.000274858
0.000288297
0.000288298
0.000274978
0.000274805
0.000274804
0.000238595
0.000252162
0.000252181
0.000238588
0.000252172
0.000238613
0.000238589
0.000252157
0.000252177
0.000238584
0.000249989
0.000249985
0.000249977
0.000222859
0.000222874
0.000222868
0.00022287
0.000238678
0.000252149
0.000249964
0.000240894
0.000252143
0.000238639
0.000240908
0.000252162
0.000238605
0.000238671
0.000249958
0.000252141
0.000240886
0.000252135
0.000240901
0.00023863
0.000252154
0.000252152
0.000238804
0.000238602
0.0002386
0.000202779
0.00021614
0.000216084
0.00020282
0.000216169
0.00020282
0.000202779
0.000216138
0.000216081
0.00020282
0.000213877
0.00021387
0.000213876
0.000187086
0.000187088
0.00018709
0.000187098
0.000202787
0.000216084
0.000213836
0.000204879
0.000216007
0.000202813
0.000204879
0.000216169
0.000202824
0.000202789
0.000213831
0.000216082
0.000204877
0.000216004
0.000204875
0.000202816
0.000216173
0.000216173
0.000202876
0.000202824
0.000202825
0.000167045
0.000180504
0.000180502
0.000167011
0.000180472
0.000166964
0.000167053
0.000180508
0.000180509
0.000167016
0.000178174
0.000178179
0.00017818
0.000151252
0.000151223
0.000151231
0.000151221
0.00016709
0.00018043
0.000178159
0.000169225
0.000180391
0.000167031
0.000169214
0.000180482
0.000166972
0.000167098
0.000178164
0.00018044
0.000169234
0.000180396
0.000169221
0.000167041
0.000180459
0.000180461
0.000167205
0.000166963
0.000166964
0.000130678
0.000144281
0.000144293
0.000130686
0.000144302
0.000130691
0.000130673
0.000144281
0.000144294
0.000130683
0.00014217
0.000142175
0.000142164
0.000114887
0.000114903
0.000114897
0.000114903
0.000130762
0.000144242
0.000142137
0.000132996
0.000144254
0.000130743
0.000133025
0.000144298
0.000130683
0.000130757
0.000142142
0.00014424
0.000132994
0.000144255
0.000133025
0.000130736
0.000144271
0.00014427
0.000130906
0.000130711
0.00013071
9.45839e-05
0.00010807
0.000108048
9.46143e-05
0.000108139
9.45672e-05
9.45838e-05
0.000108067
0.000108043
9.46132e-05
0.000105865
0.000105859
0.000105866
7.86943e-05
7.87082e-05
7.87101e-05
7.87082e-05
9.46181e-05
0.000108022
0.000105807
9.67399e-05
0.000107978
9.46638e-05
9.6749e-05
0.000108136
9.45683e-05
9.46164e-05
0.000105801
0.000108018
9.67348e-05
0.000107971
9.67444e-05
9.46645e-05
0.000108078
0.000108078
9.46912e-05
9.46306e-05
9.46325e-05
5.8457e-05
7.20091e-05
7.20268e-05
5.84899e-05
7.21003e-05
5.83038e-05
5.84554e-05
7.20117e-05
7.20298e-05
5.8489e-05
6.97197e-05
6.97214e-05
6.97172e-05
4.29027e-05
4.28912e-05
4.28843e-05
4.28873e-05
5.84842e-05
7.1905e-05
6.97115e-05
6.06643e-05
7.19383e-05
5.8533e-05
6.06802e-05
7.20985e-05
5.83033e-05
5.8483e-05
6.97129e-05
7.19083e-05
6.0664e-05
7.19421e-05
6.06807e-05
5.85293e-05
7.19511e-05
7.19499e-05
5.86333e-05
5.85094e-05
5.8509e-05
2.16667e-05
3.54654e-05
3.55853e-05
2.11077e-05
3.58337e-05
2.05452e-05
2.16486e-05
3.54531e-05
3.55731e-05
2.10972e-05
3.43437e-05
3.43332e-05
3.43463e-05
1.16879e-05
1.16861e-05
1.16831e-05
1.16905e-05
2.21433e-05
3.5406e-05
3.40335e-05
2.52904e-05
3.56628e-05
2.16243e-05
2.56339e-05
3.58123e-05
2.05474e-05
2.21382e-05
3.40248e-05
3.5395e-05
2.52817e-05
3.56557e-05
2.56257e-05
2.16203e-05
3.53501e-05
3.53478e-05
2.31056e-05
2.14283e-05
2.14241e-05
3.23609e-06
4.40854e-06
3.83015e-06
2.80136e-08
1.85705e-06
-3.64211e-06
3.2481e-06
4.39416e-06
3.81802e-06
3.09733e-08
7.40146e-07
7.21439e-06
7.21164e-06
7.59313e-06
7.65463e-06
3.75073e-06
3.75204e-06
1.92186e-06
3.40397e-06
6.5122e-06
1.34247e-06
4.89693e-06
5.59974e-06
-2.08798e-06
1.83424e-06
-3.63709e-06
1.93023e-06
6.51507e-06
3.40652e-06
1.34361e-06
4.89983e-06
-2.08089e-06
5.6074e-06
6.60461e-07
6.56984e-07
7.90611e-07
3.62963e-06
3.62724e-06
0.000738834
0.000738834
0.000738972
0.000738818
0.000738819
0.000721123
0.000734381
0.000721123
0.000734381
0.000734157
0.000721108
0.000721108
0.000734373
0.000734373
0.000738815
0.000738832
0.000738857
0.000741014
0.000738838
0.000741045
0.000738858
0.00074102
0.000738846
0.000741047
0.000734356
0.000721118
0.000734376
0.000721107
0.000734357
0.000721118
0.00073438
0.000721108
0.000734291
0.000732146
0.000721132
0.000723304
0.000734326
0.000732171
0.000721144
0.000734292
0.000732154
0.000721133
0.000723306
0.000734332
0.000732173
0.000721145
0.00073898
0.000738828
0.000738831
0.000738846
0.00072112
0.000734388
0.000734163
0.000721107
0.000721109
0.000734381
0.000734383
0.000721122
0.000734391
0.000738857
0.000741015
0.000738839
0.000741048
0.000738816
0.000738832
0.000738858
0.000741022
0.00074105
0.000738846
0.000734356
0.000721118
0.000734375
0.000721107
0.00073429
0.000732146
0.000721131
0.000723305
0.000734325
0.000732172
0.000721144
0.000734357
0.000721119
0.00073438
0.000721107
0.000734292
0.000732155
0.000723308
0.000721134
0.000732175
0.000734332
0.000721144
0.000738825
0.000738838
0.000738866
0.000741024
0.00074105
0.000738853
0.000738825
0.00073884
0.000734301
0.000732157
0.000721138
0.000723313
0.000734335
0.000732178
0.000721153
0.000734367
0.000721123
0.000734386
0.000721116
0.000734301
0.00073216
0.000723315
0.000721142
0.000732179
0.000734341
0.000721153
0.000734368
0.000721127
0.000734389
0.000721116
0.000738982
0.000738828
0.00073883
0.000738845
0.000721124
0.000734388
0.000734166
0.00072111
0.000721112
0.000734381
0.000734383
0.000721127
0.000734391
0.000738867
0.000741025
0.000741052
0.000738853
0.000738824
0.000738837
0.000738825
0.00073884
0.0007343
0.000732158
0.000723314
0.000721139
0.00073218
0.000734336
0.000721152
0.000734301
0.00073216
0.000723315
0.000721142
0.000732181
0.000734341
0.000721153
0.000734366
0.000721125
0.000734386
0.000721116
0.000734367
0.000721126
0.000734389
0.000721116
0.000738849
0.000738849
0.00073417
0.000721116
0.000721116
0.000734388
0.000734388
0.000721128
0.000734395
0.000721129
0.000734395
0.000716665
0.000703381
0.000716666
0.000703383
0.00071666
0.00071666
0.000703537
0.000703371
0.000703371
0.000685612
0.000698914
0.000685612
0.000698915
0.000698722
0.000685599
0.000685599
0.00069891
0.000698911
0.00070338
0.000716662
0.000716648
0.000703372
0.000703422
0.000716618
0.000714442
0.000705565
0.000716578
0.000703402
0.00070558
0.000703422
0.000716617
0.000714444
0.000705564
0.000716578
0.000703392
0.00070558
0.000698911
0.00068561
0.000698916
0.000685611
0.00069891
0.000685608
0.000698907
0.00068561
0.000698851
0.000696705
0.000685631
0.000687853
0.000698876
0.000696719
0.000685667
0.000698849
0.000696698
0.000685627
0.00068785
0.000698865
0.000696717
0.000685666
0.000716654
0.000716656
0.000703534
0.000703355
0.000703355
0.000716659
0.000703367
0.000685612
0.000698902
0.000698716
0.000685597
0.000685596
0.000698895
0.000698894
0.000685609
0.0006989
0.000703424
0.000716617
0.000714443
0.000705565
0.000716578
0.000703403
0.000705581
0.000703382
0.000716664
0.000716649
0.000703376
0.000703424
0.000714445
0.000716618
0.000705568
0.000716578
0.000705582
0.000703396
0.000698914
0.00068561
0.000698918
0.000685611
0.000698853
0.000696706
0.000685632
0.000687854
0.000698878
0.00069672
0.000685669
0.000698913
0.000685604
0.000698909
0.00068561
0.000698852
0.000696702
0.000687851
0.000685624
0.00069672
0.000698868
0.000685667
0.000703378
0.000716666
0.000716655
0.00070337
0.000703423
0.000714451
0.000716625
0.000705572
0.000716586
0.000705587
0.000703394
0.000703378
0.00071667
0.000716656
0.000703372
0.000698848
0.000696698
0.000685622
0.000687848
0.000698863
0.00069672
0.000685657
0.000698905
0.000685603
0.000698902
0.0006856
0.000698848
0.000696704
0.00068785
0.000685619
0.000696722
0.000698865
0.000685657
0.000698904
0.0006856
0.000698904
0.0006856
0.000716658
0.00071666
0.000703537
0.000703359
0.000703359
0.000716665
0.000703371
0.000685604
0.000698902
0.000698719
0.00068559
0.000685587
0.000698896
0.000698896
0.0006856
0.000698901
0.000703425
0.000714451
0.000716625
0.000705573
0.000716586
0.000705587
0.000703395
0.000703382
0.000716669
0.000716656
0.000703375
0.000703381
0.000716669
0.000716656
0.000703374
0.000698851
0.000696702
0.00068785
0.000685619
0.000696722
0.000698867
0.000685658
0.000698851
0.000696705
0.00068785
0.00068562
0.000696723
0.000698866
0.000685658
0.000698908
0.000685598
0.000698907
0.000685601
0.000698908
0.000685601
0.000698906
0.0006856
0.000716666
0.00070337
0.000716666
0.000703371
0.000698721
0.000685588
0.000685588
0.000698895
0.000698896
0.000685603
0.0006989
0.000685603
0.000698901
0.000681144
0.000667841
0.000681143
0.000667838
0.000681137
0.000681137
0.000668007
0.000667827
0.000667825
0.000650041
0.000663369
0.000650038
0.000663365
0.000663171
0.000650028
0.000650026
0.000663362
0.00066336
0.00066784
0.000681146
0.000681135
0.000667853
0.000667888
0.000681102
0.000678975
0.000670059
0.000681086
0.000667859
0.000670085
0.000667889
0.000681102
0.000678971
0.000670057
0.000681085
0.000667871
0.000670083
0.000663365
0.000650043
0.000663372
0.000650052
0.000663367
0.000650055
0.000663386
0.000650053
0.000663306
0.000661158
0.000650064
0.000652283
0.000663328
0.000661187
0.000650098
0.000663307
0.000661167
0.000650079
0.000652288
0.000663343
0.000661188
0.0006501
0.000681142
0.00068114
0.00066801
0.000667847
0.000667847
0.000681147
0.000667859
0.000650053
0.00066339
0.000663179
0.000650044
0.000650045
0.000663385
0.000663384
0.000650054
0.000663389
0.000667883
0.000681102
0.000678975
0.000670058
0.000681086
0.000667855
0.000670084
0.000667831
0.000681139
0.000681133
0.00066784
0.000667882
0.000678971
0.000681095
0.000670049
0.000681084
0.00067008
0.000667858
0.000663357
0.000650039
0.000663366
0.000650044
0.000663298
0.000661156
0.000650059
0.000652277
0.000663323
0.000661183
0.00065009
0.000663357
0.000650049
0.000663373
0.000650045
0.000663299
0.000661155
0.000652278
0.000650072
0.000661181
0.000663329
0.000650091
0.000667836
0.000681141
0.000681126
0.00066785
0.000667882
0.000678966
0.000681092
0.000670046
0.000681075
0.000670075
0.000667856
0.000667835
0.000681136
0.000681125
0.00066784
0.000663303
0.000661165
0.00065008
0.000652285
0.00066334
0.000661183
0.000650102
0.000663365
0.000650056
0.000663384
0.000650057
0.000663301
0.000661153
0.000652281
0.00065007
0.00066118
0.000663328
0.0006501
0.000663363
0.000650049
0.000663373
0.000650055
0.000681131
0.000681129
0.000668
0.000667832
0.00066783
0.000681135
0.000667844
0.00065005
0.000663376
0.000663169
0.000650041
0.000650042
0.00066337
0.000663369
0.000650052
0.000663375
0.000667877
0.000678967
0.000681093
0.000670046
0.000681075
0.000670074
0.000667854
0.000667828
0.000681133
0.000681123
0.000667836
0.000667828
0.000681136
0.000681124
0.000667836
0.000663295
0.000661153
0.000652276
0.000650072
0.000661176
0.000663326
0.000650094
0.000663295
0.000661151
0.000652275
0.000650066
0.000661176
0.000663325
0.000650093
0.000663355
0.000650051
0.000663371
0.000650049
0.000663355
0.000650044
0.000663369
0.000650049
0.000681138
0.000667843
0.000681137
0.000667841
0.000663166
0.000650034
0.000650032
0.000663366
0.000663364
0.000650046
0.000663372
0.000650043
0.00066337
0.000645558
0.00063221
0.000645557
0.000632212
0.000645554
0.000645552
0.000632373
0.000632198
0.000632199
0.000614392
0.000627726
0.000614396
0.000627728
0.00062753
0.000614378
0.000614381
0.000627722
0.000627723
0.000632216
0.000645571
0.000645567
0.000632208
0.000632267
0.000645523
0.000643373
0.000634426
0.000645507
0.000632232
0.000634457
0.000632267
0.000645535
0.00064338
0.00063444
0.000645509
0.000632231
0.000634463
0.000627723
0.00061438
0.000627728
0.000614368
0.000627722
0.000614365
0.000627722
0.000614366
0.000627667
0.000625508
0.000614399
0.000616618
0.000627687
0.000625537
0.00061442
0.000627667
0.000625511
0.000614383
0.000616617
0.000627681
0.00062554
0.000614418
0.000645563
0.000645564
0.000632381
0.00063219
0.000632192
0.000645567
0.000632204
0.000614367
0.000627713
0.000627531
0.000614353
0.000614354
0.000627708
0.000627709
0.000614368
0.000627715
0.000632266
0.000645519
0.000643368
0.000634424
0.000645499
0.000632232
0.000634454
0.000632218
0.000645569
0.000645562
0.000632215
0.000632267
0.000643371
0.000645531
0.000634436
0.000645501
0.000634458
0.000632237
0.000627726
0.000614387
0.00062773
0.000614378
0.000627669
0.000625508
0.000614405
0.000616621
0.000627688
0.000625537
0.000614429
0.000627727
0.00061438
0.000627731
0.000614377
0.00062767
0.000625515
0.000616622
0.000614397
0.00062554
0.00062769
0.000614427
0.000632222
0.000645574
0.000645572
0.000632212
0.000632273
0.000643375
0.00064553
0.000634433
0.000645511
0.000634462
0.000632238
0.000632222
0.00064557
0.000645571
0.000632217
0.000627673
0.000625513
0.000614385
0.000616619
0.000627684
0.000625543
0.000614419
0.000627726
0.000614366
0.000627725
0.000614367
0.000627673
0.000625513
0.000616621
0.000614398
0.000625542
0.000627691
0.000614421
0.000627727
0.000614378
0.000627731
0.000614369
0.000645565
0.000645567
0.000632381
0.000632202
0.000632203
0.00064557
0.000632216
0.000614382
0.000627726
0.000627534
0.000614369
0.000614368
0.000627722
0.000627724
0.000614382
0.000627728
0.000632272
0.00064337
0.000645526
0.000634432
0.000645504
0.000634458
0.000632237
0.000632224
0.000645573
0.000645566
0.000632219
0.000632224
0.000645566
0.000645565
0.000632216
0.000627675
0.000625516
0.000616624
0.000614398
0.000625543
0.000627694
0.000614428
0.000627674
0.000625513
0.000616623
0.000614402
0.000625541
0.000627691
0.000614429
0.00062773
0.00061438
0.000627735
0.000614378
0.00062773
0.000614385
0.000627733
0.000614378
0.000645563
0.000632214
0.000645562
0.000632214
0.000627535
0.000614374
0.000614377
0.000627724
0.000627725
0.000614388
0.000627728
0.000614392
0.000627729
0.000609918
0.000596616
0.000609923
0.000596619
0.000609911
0.000609915
0.000596738
0.000596602
0.000596604
0.000578859
0.000592151
0.000578859
0.000592153
0.000591904
0.000578842
0.000578842
0.000592143
0.000592145
0.000596569
0.000609889
0.000609878
0.000596587
0.000596612
0.000609862
0.000607702
0.000598776
0.000609826
0.000596611
0.000598793
0.000596609
0.000609843
0.000607698
0.000598756
0.000609824
0.000596594
0.000598787
0.000592103
0.000578853
0.000592139
0.000578834
0.0005921
0.000578853
0.000592129
0.000578834
0.000592034
0.000589884
0.00057886
0.000581008
0.000592087
0.000589895
0.000578862
0.000592031
0.000589863
0.000578858
0.000581002
0.000592073
0.000589889
0.000578861
0.000609885
0.000609885
0.000596715
0.000596583
0.000596583
0.000609894
0.0005966
0.000578862
0.000592139
0.000591883
0.000578844
0.000578843
0.000592129
0.000592128
0.000578861
0.000592138
0.000596622
0.000609868
0.000607707
0.00059878
0.000609836
0.000596617
0.0005988
0.000596579
0.000609903
0.000609891
0.000596597
0.00059662
0.000607707
0.000609857
0.000598772
0.000609835
0.000598798
0.000596605
0.000592111
0.000578853
0.000592144
0.000578834
0.000592043
0.000589888
0.000578862
0.000581014
0.000592092
0.000589903
0.000578865
0.000592109
0.000578851
0.000592136
0.000578834
0.000592041
0.000589877
0.000581011
0.000578858
0.0005899
0.000592081
0.000578864
0.000596565
0.000609889
0.000609878
0.000596585
0.000596609
0.000607703
0.000609858
0.000598772
0.000609826
0.000598792
0.000596605
0.000596567
0.000609902
0.00060988
0.000596595
0.000592027
0.000589862
0.000578856
0.000581
0.000592071
0.000589887
0.000578858
0.000592096
0.000578851
0.000592126
0.000578831
0.00059203
0.000589878
0.000581005
0.000578856
0.000589892
0.000592081
0.000578859
0.000592098
0.000578849
0.000592134
0.000578831
0.000609898
0.000609898
0.000596731
0.00059659
0.000596588
0.000609906
0.000596605
0.000578859
0.000592144
0.000591897
0.000578842
0.00057884
0.000592134
0.000592132
0.000578858
0.000592142
0.000596618
0.000607708
0.000609864
0.000598776
0.000609834
0.000598798
0.000596612
0.000596576
0.000609902
0.000609889
0.000596593
0.000596577
0.000609909
0.00060989
0.000596602
0.000592037
0.000589875
0.000581008
0.000578855
0.000589898
0.000592078
0.000578861
0.000592038
0.000589882
0.00058101
0.000578859
0.000589899
0.000592087
0.000578862
0.000592104
0.000578849
0.000592132
0.000578832
0.000592106
0.000578851
0.00059214
0.000578832
0.000609914
0.000596612
0.000609918
0.000596615
0.000591898
0.000578839
0.00057884
0.000592138
0.000592141
0.000578857
0.000592147
0.000578858
0.00059215
0.000574393
0.000561075
0.000574391
0.000561072
0.000574384
0.000574382
0.00056122
0.000561063
0.00056106
0.000543236
0.000556593
0.000543232
0.00055659
0.000556396
0.000543223
0.000543221
0.000556589
0.000556586
0.000561091
0.000574394
0.00057437
0.0005611
0.000561118
0.000574337
0.000572131
0.000563245
0.000574291
0.0005611
0.000563253
0.00056112
0.00057434
0.000572128
0.000563248
0.00057429
0.000561116
0.000563254
0.000556614
0.000543244
0.000556608
0.00054327
0.000556617
0.000543261
0.000556626
0.000543274
0.000556541
0.000554365
0.00054327
0.000545486
0.000556566
0.000554371
0.000543326
0.000556543
0.000554375
0.000543293
0.000545489
0.000556586
0.000554374
0.00054333
0.00057439
0.000574389
0.000561224