/*--------------------------------*- C++ -*----------------------------------*\
| =========                 |                                                 |
| \\      /  F ield         | OpenFOAM: The Open Source CFD Toolbox           |
|  \\    /   O peration     | Version:  v1906                                 |
|   \\  /    A nd           | Web:      www.OpenFOAM.com                      |
|    \\/     M anipulation  |                                                 |
\*---------------------------------------------------------------------------*/
FoamFile
{
    version     2.0;
    format      ascii;
    class       volScalarField;
    location    "1000";
    object      p;
}
// * * * * * * * * * * * * * * * * * * * * * * * * * * * * * * * * * * * * * //

dimensions      [0 2 -2 0 0 0 0];


internalField   nonuniform List<scalar> 
43248
(
0.00265311
0.00265307
0.00265307
0.00265552
0.00261322
0.00261318
0.00261317
0.00261561
0.00257357
0.00257352
0.00257351
0.00257595
0.00253415
0.00253409
0.00253409
0.00253651
0.00249494
0.00249489
0.00249489
0.00249729
0.00245594
0.00245589
0.00245589
0.00245827
0.00241714
0.00241709
0.00241709
0.00241945
0.00237852
0.00237848
0.00237848
0.00238083
0.00234008
0.00234004
0.00234004
0.00234238
0.00230184
0.00230181
0.00230181
0.0023041
0.0022638
0.00226376
0.00226377
0.00226605
0.00222591
0.00222586
0.00222587
0.00222814
0.00218814
0.00218817
0.00218814
0.00219042
0.00215061
0.00215063
0.00215053
0.00215278
0.00211325
0.00211313
0.00211324
0.00211545
0.00207595
0.00207588
0.00207624
0.00207804
0.00203883
0.00203862
0.00203886
0.00204077
0.00200187
0.00200241
0.002001
0.00200419
0.0019646
0.00196499
0.001964
0.00196724
0.00192714
0.00192597
0.00192773
0.00192836
0.00189181
0.00189113
0.0018952
0.00189404
0.00185759
0.0018593
0.00185478
0.00186037
0.00182034
0.00181987
0.00181639
0.00182078
0.00178126
0.00177875
0.00178368
0.00178336
0.00174317
0.00174748
0.00174655
0.00174922
0.00171206
0.00171173
0.00170966
0.00171297
0.00167762
0.00167306
0.00167626
0.00167567
0.00266074
0.00266309
0.00266308
0.00266074
0.00266308
0.00266308
0.00266308
0.00266308
0.00266074
0.00266308
0.00266308
0.00266074
0.00265552
0.00262081
0.00265307
0.00265307
0.00262312
0.00262313
0.00265552
0.00262081
0.00265307
0.00265307
0.00262312
0.00262312
0.00265307
0.00262313
0.00262313
0.00265552
0.00262081
0.00265307
0.00262312
0.00262313
0.00262081
0.00261561
0.00258112
0.00261317
0.00261318
0.00258341
0.00258341
0.00261562
0.00258112
0.00261317
0.00261317
0.00258341
0.0025834
0.00261317
0.00258341
0.00258341
0.00261561
0.00258112
0.00261317
0.00258341
0.00258341
0.00258112
0.00257595
0.00254165
0.00257352
0.00257352
0.00254392
0.00254393
0.00257595
0.00254165
0.00257352
0.00257351
0.00254392
0.00254392
0.00257352
0.00254393
0.00254393
0.00257595
0.00254165
0.00257352
0.00254393
0.00254392
0.00254165
0.00253651
0.00250241
0.00253409
0.00253409
0.00250467
0.00250467
0.00253651
0.00250241
0.00253409
0.00253409
0.00250467
0.00250467
0.00253409
0.00250467
0.00250467
0.00253651
0.00250241
0.00253409
0.00250467
0.00250467
0.00250242
0.00249729
0.00246337
0.00249488
0.00249489
0.00246562
0.00246562
0.00249729
0.00246337
0.00249488
0.00249489
0.00246562
0.00246562
0.00249489
0.00246562
0.00246562
0.00249729
0.00246338
0.00249489
0.00246562
0.00246562
0.00246337
0.00245827
0.00242453
0.00245588
0.00245589
0.00242677
0.00242677
0.00245827
0.00242454
0.00245588
0.00245589
0.00242677
0.00242677
0.00245589
0.00242677
0.00242677
0.00245828
0.00242454
0.00245589
0.00242677
0.00242677
0.00242454
0.00241945
0.0023859
0.00241709
0.00241709
0.00238812
0.00238811
0.00241946
0.00238588
0.00241709
0.00241709
0.00238812
0.00238811
0.00241709
0.00238811
0.00238812
0.00241946
0.00238589
0.00241709
0.00238812
0.00238812
0.00238589
0.00238083
0.00234741
0.00237848
0.00237847
0.00234964
0.00234964
0.00238082
0.00234741
0.00237848
0.00237848
0.00234963
0.00234962
0.00237848
0.00234963
0.00234963
0.00238083
0.0023474
0.00237848
0.00234963
0.00234963
0.00234742
0.00234236
0.00230913
0.00234004
0.00234004
0.00231134
0.00231135
0.00234236
0.00230913
0.00234004
0.00234003
0.00231135
0.00231135
0.00234005
0.00231135
0.00231134
0.00234236
0.00230914
0.00234005
0.00231135
0.00231134
0.00230913
0.0023041
0.00227106
0.0023018
0.00230181
0.00227326
0.00227325
0.00230411
0.00227105
0.0023018
0.0023018
0.00227326
0.00227326
0.0023018
0.00227325
0.00227325
0.00230411
0.00227105
0.0023018
0.00227326
0.00227325
0.00227105
0.00226606
0.00223314
0.00226377
0.00226375
0.00223534
0.00223533
0.00226605
0.00223312
0.00226377
0.00226377
0.00223534
0.00223533
0.00226376
0.00223532
0.00223533
0.00226605
0.00223312
0.00226376
0.00223533
0.00223534
0.00223313
0.00222815
0.00219533
0.00222589
0.00222586
0.00219755
0.00219757
0.00222812
0.00219538
0.00222588
0.00222587
0.00219755
0.00219756
0.00222588
0.00219757
0.00219759
0.00222813
0.00219537
0.00222588
0.00219756
0.00219758
0.0021954
0.00219035
0.00215776
0.00218812
0.00218816
0.00215996
0.00216001
0.00219042
0.00215783
0.00218812
0.00218813
0.00215995
0.00215991
0.00218817
0.00216002
0.00215996
0.00219038
0.00215769
0.00218817
0.00215992
0.00215994
0.00215773
0.00215283
0.00212037
0.00215061
0.00215063
0.00212256
0.00212252
0.00215285
0.00212026
0.00215059
0.00215053
0.00212256
0.00212254
0.00215058
0.00212251
0.00212254
0.00215276
0.00212037
0.00215056
0.00212254
0.00212256
0.00212041
0.0021154
0.00208306
0.00211321
0.00211315
0.00208521
0.00208511
0.00211527
0.00208298
0.00211322
0.00211325
0.00208527
0.00208547
0.00211324
0.0020851
0.00208519
0.00211542
0.00208335
0.00211326
0.00208546
0.00208525
0.00208298
0.00207813
0.00204596
0.0020759
0.00207589
0.0020481
0.00204796
0.0020781
0.00204565
0.00207596
0.00207626
0.00204813
0.00204833
0.00207583
0.00204796
0.00204796
0.00207846
0.00204597
0.00207591
0.00204832
0.00204798
0.00204573
0.00204107
0.00200899
0.00203886
0.00203861
0.00201124
0.00201136
0.00204071
0.00200949
0.00203886
0.00203888
0.00201109
0.00201038
0.00203867
0.00201122
0.00201098
0.0020409
0.00200821
0.00203864
0.00201038
0.00201081
0.0020089
0.00200402
0.00197157
0.00200204
0.00200245
0.00197393
0.00197483
0.00200475
0.00197206
0.0020018
0.002001
0.00197371
0.00197318
0.00200196
0.00197495
0.00197513
0.00200326
0.00197088
0.00200175
0.00197332
0.00197492
0.00197261
0.00196666
0.00193397
0.00196449
0.00196489
0.00193618
0.00193544
0.00196674
0.00193308
0.00196437
0.00196387
0.00193638
0.00193646
0.00196553
0.00193549
0.00193582
0.00196592
0.00193485
0.00196537
0.00193647
0.00193596
0.00193332
0.0019288
0.0018986
0.00192673
0.00192591
0.00189994
0.00189945
0.00192807
0.00189783
0.00192704
0.00192777
0.00190053
0.00190398
0.00192613
0.00189937
0.00189952
0.00193037
0.00190234
0.00192637
0.00190386
0.00190018
0.00189836
0.00189437
0.00186544
0.00189164
0.00189118
0.00186728
0.0018673
0.00189342
0.00186584
0.00189217
0.00189528
0.00186708
0.00186464
0.00189152
0.00186731
0.0018671
0.00189716
0.00186161
0.00189202
0.00186462
0.00186692
0.00186521
0.00186076
0.00182681
0.00185893
0.0018594
0.0018299
0.00183068
0.00186148
0.00182727
0.00185842
0.00185485
0.00182904
0.00182574
0.00185849
0.00183058
0.00182927
0.00185658
0.00182327
0.00185799
0.0018257
0.00182844
0.00182601
0.00182161
0.00178705
0.00181969
0.00181991
0.0017899
0.0017884
0.00182159
0.00178595
0.00181902
0.00181643
0.00179011
0.0017917
0.00181909
0.0017878
0.00178986
0.00181875
0.00179042
0.00181844
0.00179181
0.0017902
0.00178812
0.0017817
0.00175036
0.00177991
0.00177869
0.00175116
0.00175457
0.00178129
0.00175348
0.00178038
0.00178348
0.00175178
0.001756
0.00178084
0.001755
0.00175521
0.00178586
0.00175363
0.00178149
0.00175646
0.00175561
0.00175369
0.00174694
0.00172034
0.00174374
0.00174704
0.00172186
0.00172155
0.00174925
0.00171868
0.00174377
0.00174602
0.0017214
0.0017182
0.00174686
0.00172165
0.00172072
0.00174817
0.00171633
0.00174701
0.00171824
0.00172018
0.00171806
0.001716
0.0016836
0.00171455
0.00171197
0.00168703
0.00168354
0.00171362
0.00168056
0.00171401
0.00171001
0.00168723
0.00168565
0.00171139
0.00168273
0.00168315
0.00171208
0.0016835
0.00171083
0.00168478
0.00168336
0.00168073
0.0016779
0.0016761
0.00167374
0.00167538
0.00167652
0.00167695
0.00167363
0.00167882
0.00167399
0.00266313
0.00266313
0.00266313
0.00266312
0.00264048
0.00265536
0.00265544
0.0026404
0.00265533
0.00264038
0.00264048
0.00265536
0.00265544
0.0026404
0.00265311
0.00265311
0.00265311
0.00262317
0.00262317
0.00262317
0.00262317
0.00264075
0.00265544
0.0026531
0.00264307
0.00265556
0.00264058
0.0026431
0.00265533
0.00264038
0.00264075
0.0026531
0.00265543
0.00264307
0.00265556
0.0026431
0.00264058
0.00265542
0.00265542
0.00264075
0.00264045
0.00264045
0.00260066
0.00261545
0.00261552
0.00260058
0.00261543
0.00260056
0.00260066
0.00261545
0.00261552
0.00260058
0.00261322
0.00261322
0.00261322
0.00258346
0.00258346
0.00258346
0.00258346
0.00260091
0.00261552
0.0026132
0.00260324
0.00261563
0.00260074
0.00260326
0.00261543
0.00260056
0.00260091
0.0026132
0.00261552
0.00260324
0.00261563
0.00260326
0.00260074
0.0026155
0.0026155
0.00260094
0.00260063
0.00260063
0.00256108
0.00257579
0.00257586
0.00256101
0.00257576
0.00256099
0.00256108
0.00257579
0.00257586
0.00256101
0.00257357
0.00257357
0.00257357
0.00254398
0.00254399
0.00254399
0.00254398
0.00256131
0.00257583
0.00257353
0.00256364
0.00257594
0.00256115
0.00256366
0.00257577
0.00256099
0.00256131
0.00257354
0.00257583
0.00256364
0.00257594
0.00256366
0.00256115
0.00257582
0.00257583
0.00256136
0.00256104
0.00256104
0.00252172
0.00253635
0.00253641
0.00252165
0.00253633
0.00252163
0.00252171
0.00253635
0.00253641
0.00252165
0.00253415
0.00253415
0.00253415
0.00250473
0.00250473
0.00250473
0.00250473
0.00252194
0.00253639
0.00253411
0.00252427
0.00253649
0.00252179
0.00252428
0.00253633
0.00252163
0.00252194
0.00253411
0.00253639
0.00252427
0.00253649
0.00252428
0.00252178
0.00253639
0.0025364
0.00252201
0.00252169
0.00252169
0.00248258
0.00249713
0.00249719
0.0024825
0.00249711
0.00248248
0.00248257
0.00249713
0.00249719
0.0024825
0.00249494
0.00249494
0.00249494
0.00246567
0.00246567
0.00246567
0.00246567
0.00248278
0.00249716
0.0024949
0.00248512
0.00249725
0.00248263
0.00248513
0.00249712
0.0024825
0.00248278
0.0024949
0.00249716
0.00248511
0.00249725
0.00248513
0.00248263
0.00249716
0.00249716
0.00248287
0.00248253
0.00248253
0.00244363
0.00245811
0.00245817
0.00244356
0.0024581
0.00244357
0.00244363
0.0024581
0.00245817
0.00244357
0.00245594
0.00245594
0.00245594
0.00242682
0.00242682
0.00242682
0.00242682
0.00244382
0.00245814
0.00245589
0.00244617
0.00245822
0.0024437
0.00244618
0.00245809
0.00244356
0.00244382
0.0024559
0.00245814
0.00244617
0.00245822
0.00244617
0.00244369
0.00245814
0.00245815
0.00244393
0.0024436
0.0024436
0.0024049
0.00241931
0.00241937
0.00240484
0.00241929
0.0024048
0.00240489
0.00241931
0.00241937
0.00240483
0.00241714
0.00241714
0.00241714
0.00238816
0.00238816
0.00238816
0.00238816
0.00240507
0.00241932
0.00241709
0.00240743
0.0024194
0.00240493
0.00240743
0.0024193
0.00240481
0.00240507
0.0024171
0.00241933
0.00240742
0.00241939
0.00240742
0.00240494
0.00241934
0.00241934
0.00240519
0.00240484
0.00240484
0.00236632
0.00238066
0.00238072
0.00236625
0.00238065
0.00236625
0.00236631
0.00238066
0.00238072
0.00236625
0.00237852
0.00237852
0.00237852
0.00234967
0.00234967
0.00234967
0.00234967
0.00236649
0.00238068
0.00237848
0.00236885
0.00238075
0.00236637
0.00236886
0.00238064
0.00236623
0.00236648
0.00237848
0.00238067
0.00236885
0.00238075
0.00236885
0.00236636
0.0023807
0.0023807
0.00236662
0.00236629
0.00236629
0.00232793
0.00234222
0.00234227
0.00232786
0.0023422
0.00232786
0.00232794
0.00234221
0.00234227
0.00232788
0.00234008
0.00234008
0.00234008
0.00231138
0.00231138
0.00231138
0.00231138
0.0023281
0.00234223
0.00234005
0.00233046
0.00234229
0.00232798
0.00233047
0.0023422
0.00232788
0.0023281
0.00234005
0.00234223
0.00233046
0.00234229
0.00233047
0.00232799
0.00234224
0.00234224
0.00232825
0.0023279
0.0023279
0.00228978
0.00230397
0.00230401
0.00228973
0.00230397
0.00228971
0.00228975
0.00230398
0.00230402
0.0022897
0.00230184
0.00230184
0.00230184
0.00227329
0.00227329
0.00227329
0.00227329
0.00228992
0.00230399
0.00230181
0.00229228
0.00230403
0.00228982
0.00229229
0.00230397
0.00228968
0.00228992
0.00230181
0.00230399
0.00229228
0.00230404
0.00229229
0.0022898
0.00230398
0.00230398
0.00229006
0.00228972
0.00228972
0.00225175
0.00226589
0.00226594
0.0022517
0.00226587
0.00225169
0.00225178
0.00226591
0.00226595
0.00225172
0.00226379
0.0022638
0.00226379
0.00223536
0.00223536
0.00223536
0.00223536
0.0022519
0.0022659
0.00226376
0.00225428
0.00226596
0.00225178
0.00225428
0.00226591
0.00225171
0.00225192
0.00226377
0.00226592
0.00225428
0.00226598
0.00225429
0.00225181
0.00226596
0.00226597
0.00225208
0.00225172
0.00225173
0.00221389
0.00222801
0.00222805
0.00221382
0.00222799
0.00221383
0.00221387
0.00222798
0.00222803
0.00221382
0.0022259
0.00222591
0.00222591
0.00219758
0.00219758
0.00219756
0.00219759
0.00221406
0.002228
0.00222588
0.00221641
0.00222805
0.00221395
0.00221644
0.00222797
0.00221386
0.00221406
0.00222588
0.00222799
0.00221643
0.00222804
0.00221644
0.00221395
0.00222801
0.00222801
0.00221423
0.00221391
0.00221391
0.00217625
0.00219023
0.00219027
0.00217621
0.00219032
0.00217627
0.0021762
0.00219024
0.00219028
0.00217616
0.00218818
0.00218814
0.00218817
0.00215998
0.00216002
0.00215998
0.00216
0.00217644
0.00219033
0.00218818
0.00217878
0.00219035
0.00217635
0.00217878
0.00219023
0.00217609
0.00217637
0.00218815
0.00219027
0.00217872
0.00219032
0.00217874
0.00217622
0.00219032
0.00219031
0.00217655
0.00217617
0.00217615
0.00213873
0.00215275
0.0021528
0.0021387
0.00215268
0.00213862
0.00213873
0.0021527
0.00215271
0.00213871
0.00215063
0.00215057
0.00215061
0.00212255
0.00212254
0.00212256
0.00212252
0.00213883
0.0021527
0.00215064
0.00214125
0.00215275
0.00213872
0.00214126
0.00215264
0.00213874
0.00213884
0.00215059
0.00215261
0.00214118
0.00215269
0.00214123
0.00213877
0.00215269
0.00215268
0.00213903
0.00213879
0.0021388
0.00210127
0.00211523
0.00211526
0.00210122
0.00211517
0.0021012
0.00210144
0.00211528
0.00211537
0.00210132
0.0021132
0.00211325
0.00211321
0.00208526
0.00208515
0.00208536
0.00208527
0.00210143
0.00211519
0.00211318
0.00210374
0.00211528
0.00210126
0.00210383
0.00211539
0.00210154
0.00210162
0.00211325
0.00211543
0.00210395
0.0021154
0.00210395
0.00210159
0.00211536
0.00211541
0.00210172
0.00210121
0.00210127
0.00206409
0.002078
0.00207796
0.00206412
0.00207802
0.00206404
0.00206427
0.00207813
0.00207821
0.00206423
0.00207586
0.00207614
0.00207594
0.00204813
0.00204804
0.00204833
0.00204805
0.00206421
0.00207794
0.00207589
0.00206662
0.00207796
0.00206419
0.0020666
0.00207843
0.00206433
0.00206441
0.00207614
0.00207837
0.002067
0.0020782
0.00206687
0.00206446
0.00207781
0.00207787
0.00206434
0.00206397
0.00206402
0.00202724
0.00204095
0.00204096
0.00202724
0.00204065
0.00202736
0.00202693
0.00204097
0.00204088
0.00202709
0.00203874
0.00203897
0.00203876
0.00201107
0.00201102
0.00201062
0.00201079
0.0020272
0.00204076
0.00203876
0.00202939
0.00204086
0.00202723
0.00202956
0.00204044
0.00202634
0.00202688
0.00203883
0.00204057
0.00202937
0.00204082
0.00202943
0.00202649
0.00204085
0.00204076
0.00202721
0.00202715
0.00202697
0.00199053
0.00200428
0.00200449
0.00199015
0.00200542
0.00199074
0.00198953
0.00200367
0.00200353
0.00198957
0.00200204
0.00200127
0.00200156
0.00197399
0.00197489
0.00197354
0.00197472
0.00199096
0.00200488
0.00200226
0.00199351
0.0020044
0.00199106
0.00199315
0.00200306
0.00198911
0.00198989
0.00200135
0.00200298
0.00199175
0.00200343
0.00199211
0.00198936
0.0020049
0.0020047
0.00199108
0.00199122
0.00199106
0.00195182
0.0019661
0.00196625
0.00195187
0.00196506
0.00195079
0.00195251
0.00196604
0.0019663
0.00195209
0.00196523
0.00196414
0.00196552
0.00193644
0.00193608
0.00193634
0.00193639
0.00195238
0.00196609
0.00196514
0.00195504
0.0019671
0.00195143
0.00195544
0.00196627
0.00195309
0.00195281
0.0019645
0.00196666
0.00195468
0.00196685
0.00195519
0.00195298
0.00196602
0.00196603
0.00195288
0.00195092
0.00195111
0.00191535
0.00192891
0.00192859
0.00191562
0.00192894
0.00191596
0.00191695
0.00192951
0.00192985
0.00191655
0.00192686
0.00192733
0.00192685
0.00190025
0.00189936
0.00190229
0.00189999
0.00191486
0.00192823
0.00192651
0.00191658
0.00192815
0.00191546
0.00191718
0.00193206
0.00191965
0.00191682
0.00192753
0.00193073
0.00191962
0.00192945
0.00191879
0.0019186
0.00192812
0.00192857
0.0019148
0.00191602
0.00191653
0.00188208
0.0018945
0.00189432
0.00188232
0.00189453
0.00188253
0.00188194
0.0018955
0.00189549
0.00188261
0.00189093
0.00189423
0.00189158
0.00186643
0.00186635
0.00186628
0.00186619
0.00188165
0.00189419
0.00189116
0.00188298
0.0018938
0.00188205
0.00188298
0.00189477
0.00187879
0.00188197
0.00189339
0.00189555
0.00188522
0.00189557
0.00188453
0.00188014
0.00189533
0.00189543
0.00188205
0.0018825
0.00188238
0.00184654
0.00186062
0.00186082
0.001846
0.0018612
0.00184592
0.00184362
0.0018589
0.001858
0.00184415
0.00185793
0.00185651
0.00185732
0.00183023
0.00183111
0.00182754
0.00182952
0.00184705
0.00186116
0.00185828
0.0018507
0.0018607
0.00184647
0.00184953
0.00185431
0.00184158
0.00184342
0.00185675
0.00185542
0.00184513
0.00185763
0.0018469
0.00184177
0.00185941
0.0018587
0.00184613
0.00184447
0.00184381
0.00180598
0.00182059
0.00182109
0.00180558
0.00181929
0.00180461
0.00180725
0.00182006
0.00182059
0.00180635
0.00182095
0.0018177
0.00181958
0.00179093
0.00179013
0.00179019
0.0017905
0.00180597
0.00182007
0.00182035
0.0018091
0.0018211
0.00180507
0.00180988
0.00182225
0.00181025
0.00180703
0.00181806
0.00182102
0.00180783
0.00182003
0.0018086
0.00180895
0.00181998
0.00182002
0.00180651
0.00180644
0.00180702
0.0017683
0.00178118
0.00178168
0.00176772
0.00178324
0.00177112
0.00176973
0.00178276
0.00178398
0.00176881
0.00178
0.00178179
0.00178139
0.00175189
0.00175402
0.0017549
0.00175487
0.00177011
0.00178289
0.00178012
0.00177044
0.00178236
0.00177093
0.00177112
0.00178646
0.00177088
0.0017722
0.00178246
0.00178668
0.00177527
0.00178553
0.00177384
0.00177219
0.00178447
0.00178496
0.00177073
0.00177123
0.00177147
0.00173689
0.00174902
0.00174851
0.00173775
0.00175032
0.00173627
0.00173497
0.00174828
0.0017472
0.00173649
0.00174591
0.00174592
0.00174618
0.00172013
0.00172118
0.00171938
0.00172043
0.0017368
0.00175037
0.00174664
0.00173963
0.00174953
0.00173679
0.00173833
0.00174662
0.00173365
0.00173455
0.0017465
0.00174747
0.00173673
0.00174841
0.00173761
0.00173372
0.00174915
0.00174885
0.0017364
0.00173586
0.00173548
0.00170108
0.00171653
0.00171548
0.00170146
0.00171224
0.00169807
0.00170188
0.001716
0.00171478
0.00170177
0.00171232
0.00171076
0.00171165
0.00168692
0.00168421
0.00168492
0.00168401
0.00169888
0.00171226
0.00171186
0.00170186
0.00171316
0.00169794
0.0017025
0.00171337
0.00170085
0.00169948
0.00171048
0.00171235
0.00170139
0.00171218
0.00170172
0.00169989
0.00171235
0.00171226
0.00169926
0.00169767
0.001698
0.0016754
0.00167585
0.00167465
0.00167653
0.00167776
0.00167464
0.00167605
0.00167467
0.00167462
0.00167394
0.00167519
0.00167845
0.00167558
0.00167803
0.00167733
0.0016741
0.00167472
0.00266037
0.00266037
0.00266045
0.00266045
0.0026604
0.00266049
0.0026604
0.00266049
0.00266058
0.00266311
0.00266076
0.00266058
0.00266311
0.00266075
0.00266038
0.00266045
0.00266045
0.00266038
0.0026604
0.00266049
0.00266058
0.00266311
0.00266075
0.0026604
0.00266049
0.00266311
0.00266058
0.00266075
0.00266058
0.00266311
0.00266075
0.0026604
0.00266049
0.00266311
0.00266058
0.00266075
0.0026604
0.00266049
0.00266038
0.00266045
0.00266045
0.00266038
0.00266311
0.00266058
0.00266075
0.00266311
0.00266058
0.00266075
0.0026604
0.00266049
0.0026604
0.00266049
0.00266045
0.00266045
0.00266037
0.00266037
0.00265533
0.00264038
0.00265533
0.00264038
0.00265541
0.00265542
0.00264075
0.00264045
0.00264045
0.00262044
0.00263535
0.00262044
0.00263535
0.00263554
0.00262051
0.00262051
0.00263543
0.00263543
0.00264048
0.00265536
0.00265544
0.0026404
0.00264075
0.00265543
0.0026531
0.00264307
0.00265556
0.00264057
0.0026431
0.00264075
0.00265544
0.0026531
0.00264307
0.00265556
0.00264058
0.0026431
0.00263545
0.00262046
0.00263538
0.00262054
0.00263545
0.00262046
0.00263538
0.00262054
0.00263557
0.00263309
0.00262064
0.00262315
0.00263545
0.00263312
0.0026208
0.00263557
0.00263309
0.00262063
0.00262315
0.00263545
0.00263312
0.0026208
0.00265542
0.00265542
0.00264075
0.00264045
0.00264045
0.00265534
0.00264038
0.00262044
0.00263535
0.00263554
0.00262051
0.00262051
0.00263543
0.00263543
0.00262044
0.00263535
0.00264075
0.00265544
0.0026531
0.00264307
0.00265556
0.00264058
0.0026431
0.00264048
0.00265536
0.00265544
0.0026404
0.00264075
0.0026531
0.00265544
0.00264307
0.00265556
0.0026431
0.00264057
0.00263545
0.00262046
0.00263538
0.00262054
0.00263557
0.00263309
0.00262063
0.00262315
0.00263545
0.00263312
0.0026208
0.00263545
0.00262046
0.00263538
0.00262054
0.00263557
0.00263309
0.00262315
0.00262063
0.00263312
0.00263544
0.0026208
0.00264048
0.00265536
0.00265544
0.0026404
0.00264075
0.0026531
0.00265544
0.00264307
0.00265556
0.0026431
0.00264058
0.00264048
0.00265536
0.00265544
0.0026404
0.00263557
0.00263309
0.00262063
0.00262315
0.00263544
0.00263312
0.0026208
0.00263545
0.00262046
0.00263538
0.00262054
0.00263557
0.00263309
0.00262315
0.00262063
0.00263312
0.00263545
0.0026208
0.00263545
0.00262046
0.00263538
0.00262054
0.00265542
0.00265542
0.00264075
0.00264045
0.00264045
0.00265534
0.00264038
0.00262044
0.00263535
0.00263554
0.00262051
0.00262051
0.00263543
0.00263543
0.00262044
0.00263535
0.00264075
0.0026531
0.00265544
0.00264307
0.00265556
0.0026431
0.00264058
0.00264048
0.00265536
0.00265544
0.0026404
0.00264048
0.00265536
0.00265544
0.0026404
0.00263557
0.00263309
0.00262315
0.00262063
0.00263312
0.00263545
0.0026208
0.00263557
0.00263309
0.00262315
0.00262063
0.00263312
0.00263545
0.0026208
0.00263545
0.00262046
0.00263538
0.00262054
0.00263545
0.00262046
0.00263538
0.00262054
0.00265533
0.00264038
0.00265533
0.00264038
0.00263554
0.00262051
0.00262051
0.00263543
0.00263543
0.00262044
0.00263535
0.00262044
0.00263535
0.00261543
0.00260056
0.00261543
0.00260056
0.00261551
0.00261551
0.00260094
0.00260062
0.00260062
0.00258075
0.00259557
0.00258075
0.00259557
0.00259575
0.00258081
0.00258081
0.00259564
0.00259564
0.00260066
0.00261545
0.00261552
0.00260058
0.00260091
0.00261552
0.0026132
0.00260324
0.00261563
0.00260074
0.00260326
0.00260091
0.00261552
0.0026132
0.00260323
0.00261563
0.00260074
0.00260326
0.00259566
0.00258076
0.00259559
0.00258084
0.00259566
0.00258076
0.00259559
0.00258084
0.00259575
0.00259332
0.00258092
0.00258343
0.00259564
0.00259334
0.00258108
0.00259575
0.00259331
0.00258092
0.00258343
0.00259564
0.00259334
0.00258108
0.0026155
0.0026155
0.00260094
0.00260063
0.00260063
0.00261543
0.00260056
0.00258074
0.00259557
0.00259575
0.0025808
0.0025808
0.00259564
0.00259564
0.00258074
0.00259557
0.00260091
0.00261552
0.0026132
0.00260324
0.00261563
0.00260074
0.00260326
0.00260066
0.00261545
0.00261552
0.00260058
0.00260091
0.0026132
0.00261552
0.00260324
0.00261563
0.00260326
0.00260074
0.00259566
0.00258076
0.00259559
0.00258084
0.00259575
0.00259332
0.00258092
0.00258343
0.00259564
0.00259334
0.00258108
0.00259566
0.00258077
0.00259559
0.00258084
0.00259575
0.00259332
0.00258343
0.00258092
0.00259334
0.00259564
0.00258108
0.00260066
0.00261545
0.00261552
0.00260058
0.00260091
0.0026132
0.00261551
0.00260324
0.00261563
0.00260326
0.00260074
0.00260066
0.00261545
0.00261552
0.00260058
0.00259575
0.00259331
0.00258092
0.00258343
0.00259564
0.00259334
0.00258108
0.00259566
0.00258077
0.00259559
0.00258084
0.00259575
0.00259331
0.00258343
0.00258091
0.00259334
0.00259565
0.00258108
0.00259566
0.00258076
0.00259559
0.00258084
0.00261551
0.00261551
0.00260094
0.00260062
0.00260062
0.00261543
0.00260056
0.00258075
0.00259556
0.00259575
0.00258081
0.00258081
0.00259563
0.00259563
0.00258074
0.00259556
0.00260091
0.0026132
0.00261551
0.00260324
0.00261563
0.00260326
0.00260074
0.00260066
0.00261545
0.00261552
0.00260058
0.00260066
0.00261545
0.00261552
0.00260058
0.00259576
0.00259332
0.00258343
0.00258092
0.00259334
0.00259565
0.00258108
0.00259575
0.00259331
0.00258343
0.00258091
0.00259334
0.00259564
0.00258108
0.00259566
0.00258076
0.00259559
0.00258084
0.00259566
0.00258076
0.00259559
0.00258084
0.00261543
0.00260056
0.00261543
0.00260056
0.00259575
0.0025808
0.0025808
0.00259564
0.00259564
0.00258074
0.00259557
0.00258074
0.00259557
0.00257577
0.00256098
0.00257577
0.00256098
0.00257584
0.00257584
0.00256136
0.00256104
0.00256104
0.00254128
0.00255602
0.00254128
0.00255602
0.0025562
0.00254134
0.00254134
0.00255608
0.00255608
0.00256108
0.00257578
0.00257586
0.002561
0.00256131
0.00257584
0.00257354
0.00256364
0.00257594
0.00256115
0.00256366
0.00256131
0.00257584
0.00257354
0.00256364
0.00257594
0.00256115
0.00256366
0.00255611
0.0025413
0.00255604
0.00254137
0.00255611
0.0025413
0.00255604
0.00254137
0.00255618
0.00255377
0.00254144
0.00254394
0.00255608
0.00255379
0.0025416
0.00255618
0.00255377
0.00254144
0.00254394
0.00255608
0.00255379
0.0025416
0.00257583
0.00257583
0.00256136
0.00256104
0.00256104
0.00257576
0.00256098
0.00254128
0.00255602
0.0025562
0.00254134
0.00254134
0.00255609
0.00255609
0.00254128
0.00255602
0.00256131
0.00257584
0.00257354
0.00256364
0.00257594
0.00256115
0.00256366
0.00256108
0.00257579
0.00257586
0.002561
0.00256131
0.00257354
0.00257584
0.00256364
0.00257594
0.00256366
0.00256115
0.00255611
0.0025413
0.00255604
0.00254137
0.00255619
0.00255378
0.00254144
0.00254394
0.00255608
0.00255379
0.0025416
0.00255611
0.0025413
0.00255604
0.00254137
0.00255619
0.00255378
0.00254394
0.00254144
0.00255379
0.00255608
0.0025416
0.00256108
0.00257579
0.00257585
0.002561
0.00256131
0.00257353
0.00257583
0.00256364
0.00257594
0.00256366
0.00256115
0.00256108
0.00257578
0.00257585
0.002561
0.00255619
0.00255377
0.00254144
0.00254394
0.00255608
0.00255379
0.0025416
0.00255611
0.0025413
0.00255604
0.00254137
0.00255619
0.00255377
0.00254394
0.00254144
0.00255379
0.00255608
0.0025416
0.00255611
0.0025413
0.00255604
0.00254137
0.00257584
0.00257584
0.00256136
0.00256104
0.00256104
0.00257577
0.00256099
0.00254128
0.00255602
0.0025562
0.00254134
0.00254134
0.00255608
0.00255608
0.00254128
0.00255602
0.00256131
0.00257354
0.00257583
0.00256364
0.00257594
0.00256365
0.00256115
0.00256108
0.00257578
0.00257585
0.002561
0.00256108
0.00257578
0.00257585
0.002561
0.00255618
0.00255378
0.00254394
0.00254144
0.00255379
0.00255608
0.0025416
0.00255618
0.00255377
0.00254394
0.00254144
0.00255379
0.00255608
0.0025416
0.00255611
0.0025413
0.00255604
0.00254137
0.00255611
0.0025413
0.00255604
0.00254137
0.00257576
0.00256098
0.00257576
0.00256098
0.0025562
0.00254134
0.00254134
0.00255608
0.00255608
0.00254128
0.00255602
0.00254128
0.00255602
0.00253633
0.00252163
0.00253633
0.00252163
0.00253639
0.00253639
0.00252201
0.00252169
0.00252169
0.00250204
0.0025167
0.00250204
0.0025167
0.00251687
0.00250209
0.00250209
0.00251676
0.00251676
0.00252172
0.00253635
0.00253641
0.00252165
0.00252194
0.00253639
0.0025341
0.00252427
0.00253649
0.00252179
0.00252429
0.00252194
0.00253639
0.00253411
0.00252427
0.00253649
0.00252178
0.00252429
0.00251677
0.00250205
0.00251671
0.00250212
0.00251677
0.00250205
0.00251671
0.00250212
0.00251684
0.00251446
0.00250218
0.00250468
0.00251675
0.00251448
0.00250233
0.00251684
0.00251446
0.00250218
0.00250468
0.00251675
0.00251447
0.00250233
0.00253639
0.00253639
0.00252201
0.00252169
0.00252169
0.00253633
0.00252164
0.00250203
0.0025167
0.00251687
0.00250208
0.00250208
0.00251675
0.00251675
0.00250203
0.0025167
0.00252194
0.00253639
0.0025341
0.00252427
0.00253649
0.00252179
0.00252428
0.00252171
0.00253635
0.00253641
0.00252164
0.00252194
0.0025341
0.00253639
0.00252427
0.00253648
0.00252428
0.00252178
0.00251677
0.00250205
0.00251671
0.00250212
0.00251684
0.00251446
0.00250219
0.00250468
0.00251675
0.00251448
0.00250233
0.00251677
0.00250205
0.00251671
0.00250212
0.00251684
0.00251446
0.00250468
0.00250218
0.00251448
0.00251674
0.00250233
0.00252172
0.00253635
0.00253641
0.00252165
0.00252194
0.00253411
0.00253639
0.00252427
0.00253649
0.00252428
0.00252179
0.00252172
0.00253635
0.00253641
0.00252165
0.00251684
0.00251446
0.00250218
0.00250468
0.00251675
0.00251447
0.00250233
0.00251678
0.00250205
0.00251671
0.00250212
0.00251684
0.00251446
0.00250468
0.00250218
0.00251447
0.00251675
0.00250234
0.00251678
0.00250205
0.00251672
0.00250212
0.00253639
0.00253639
0.00252201
0.00252168
0.00252168
0.00253633
0.00252163
0.00250204
0.00251669
0.00251688
0.00250209
0.00250209
0.00251675
0.00251675
0.00250204
0.00251669
0.00252194
0.00253411
0.00253639
0.00252427
0.00253649
0.00252428
0.00252179
0.00252172
0.00253635
0.00253641
0.00252165
0.00252172
0.00253635
0.00253641
0.00252165
0.00251684
0.00251446
0.00250468
0.00250219
0.00251447
0.00251675
0.00250234
0.00251684
0.00251446
0.00250468
0.00250218
0.00251447
0.00251675
0.00250234
0.00251678
0.00250206
0.00251672
0.00250212
0.00251678
0.00250205
0.00251672
0.00250212
0.00253633
0.00252164
0.00253633
0.00252164
0.00251687
0.00250209
0.00250208
0.00251676
0.00251676
0.00250204
0.0025167
0.00250204
0.0025167
0.00249712
0.00248248
0.00249711
0.00248248
0.00249717
0.00249717
0.00248287
0.00248253
0.00248252
0.00246298
0.00247757
0.00246298
0.00247757
0.00247776
0.00246303
0.00246303
0.00247762
0.00247762
0.00248257
0.00249713
0.00249719
0.0024825
0.00248278
0.00249716
0.00249489
0.00248512
0.00249725
0.00248263
0.00248513
0.00248278
0.00249716
0.00249489
0.00248512
0.00249725
0.00248263
0.00248512
0.00247765
0.00246301
0.00247759
0.00246307
0.00247765
0.00246301
0.00247759
0.00246307
0.00247771
0.00247537
0.00246313
0.00246563
0.00247762
0.00247537
0.00246327
0.00247771
0.00247536
0.00246313
0.00246563
0.00247762
0.00247537
0.00246327
0.00249716
0.00249716
0.00248287
0.00248253
0.00248253
0.00249711