/*--------------------------------*- C++ -*----------------------------------*\
| =========                 |                                                 |
| \\      /  F ield         | OpenFOAM: The Open Source CFD Toolbox           |
|  \\    /   O peration     | Version:  v1906                                 |
|   \\  /    A nd           | Web:      www.OpenFOAM.com                      |
|    \\/     M anipulation  |                                                 |
\*---------------------------------------------------------------------------*/
FoamFile
{
    version     2.0;
    format      ascii;
    class       surfaceScalarField;
    location    "1000";
    object      phi;
}
// * * * * * * * * * * * * * * * * * * * * * * * * * * * * * * * * * * * * * //

dimensions      [0 3 -1 0 0 0 0];
oriented        oriented;


internalField   nonuniform List<scalar> 
124908
(
1.32705e-07
1.33496e-07
-0.00118365
-8.84289e-08
-8.95184e-08
0.00118356
-0.00113216
-1.18428e-06
-1.21621e-07
-4.99101e-08
0.00113213
-2.02288e-07
1.2295e-06
2.41538e-07
8.84298e-07
-1.78217e-07
-8.25134e-07
2.30231e-07
-0.00113179
-1.17889e-06
-1.23486e-07
-4.92989e-08
0.00113177
-2.02607e-07
1.22369e-06
2.41063e-07
8.85017e-07
-1.80027e-07
-8.24216e-07
2.33682e-07
-0.000270079
1.21431e-06
1.18058e-06
-1.94016e-07
-1.98755e-07
0.000268077
1.27621e-07
1.23523e-07
-0.0011833
-7.22769e-08
-7.81577e-08
0.0011832
-0.00113206
-1.18241e-06
-1.35404e-07
-5.88767e-08
0.00113204
-2.01063e-07
1.23069e-06
2.41728e-07
8.88175e-07
-1.74065e-07
-8.22137e-07
2.3509e-07
-0.00113168
-1.17765e-06
-1.28678e-07
-5.46729e-08
0.00113166
-2.01487e-07
1.22453e-06
2.41475e-07
8.86291e-07
-1.78356e-07
-8.23632e-07
2.3603e-07
-0.000270082
1.21274e-06
1.17757e-06
-1.9119e-07
-1.97116e-07
0.00026808
1.19629e-07
1.28556e-07
-0.00118289
-8.55034e-08
-7.57192e-08
0.00118281
-0.00113198
-1.18854e-06
-1.20323e-07
-3.06831e-08
0.00113197
-2.07021e-07
1.22443e-06
2.36428e-07
8.81241e-07
-1.80512e-07
-8.27176e-07
2.26846e-07
-0.00113162
-1.18106e-06
-1.28996e-07
-4.36922e-08
0.00113161
-2.05192e-07
1.2208e-06
2.38102e-07
8.82247e-07
-1.81817e-07
-8.26122e-07
2.31058e-07
-0.000270094
1.213e-06
1.18124e-06
-1.96109e-07
-1.99466e-07
0.000268096
1.39648e-07
1.39246e-07
-0.00118259
-1.02345e-07
-9.92325e-08
0.00118251
-0.00113194
-1.18204e-06
-1.26347e-07
-6.46591e-08
0.00113194
-1.99936e-07
1.23097e-06
2.42897e-07
8.81406e-07
-1.80121e-07
-8.28943e-07
2.29184e-07
-0.0011316
-1.17743e-06
-1.26808e-07
-5.69575e-08
0.00113159
-2.01085e-07
1.22439e-06
2.41686e-07
8.81992e-07
-1.82204e-07
-8.27901e-07
2.32279e-07
-0.00027013
1.21209e-06
1.17643e-06
-1.9134e-07
-1.97805e-07
0.000268131
1.33319e-07
1.23272e-07
-0.00118223
-6.92081e-08
-8.35299e-08
0.00118212
-0.00113193
-1.18314e-06
-1.48317e-07
-5.71697e-08
0.00113191
-2.02437e-07
1.22906e-06
2.4014e-07
8.90389e-07
-1.71965e-07
-8.18993e-07
2.36089e-07
-0.00113155
-1.17872e-06
-1.40172e-07
-4.999e-08
0.00113153
-2.03221e-07
1.22253e-06
2.39505e-07
8.88742e-07
-1.75945e-07
-8.2024e-07
2.37369e-07
-0.000270137
1.21603e-06
1.17962e-06
-1.92674e-07
-1.99413e-07
0.000268133
1.13697e-07
1.22042e-07
-0.00118182
-7.47222e-08
-6.94922e-08
0.00118173
-0.00113183
-1.18582e-06
-1.12847e-07
-3.72933e-08
0.00113179
-2.03656e-07
1.22683e-06
2.39222e-07
8.82731e-07
-1.78658e-07
-8.2596e-07
2.29027e-07
-0.00113145
-1.17864e-06
-1.17859e-07
-4.82562e-08
0.00113142
-2.02084e-07
1.22294e-06
2.4069e-07
8.83065e-07
-1.80879e-07
-8.25578e-07
2.32354e-07
-0.000270134
1.2105e-06
1.17925e-06
-1.93456e-07
-1.96277e-07
0.000268134
1.43215e-07
1.45693e-07
-0.00118148
-1.08474e-07
-1.01867e-07
0.0011814
-0.00113175
-1.18271e-06
-1.33493e-07
-6.2291e-08
0.00113176
-2.01395e-07
1.22934e-06
2.40917e-07
8.80775e-07
-1.80158e-07
-8.28604e-07
2.28022e-07
-0.0011314
-1.178e-06
-1.34525e-07
-5.79204e-08
0.00113141
-2.02425e-07
1.22285e-06
2.39844e-07
8.80959e-07
-1.82517e-07
-8.27951e-07
2.30811e-07
-0.000270166
1.21258e-06
1.17779e-06
-1.93542e-07
-1.9941e-07
0.000268169
1.3633e-07
1.31861e-07
-0.00118116
-9.07749e-08
-9.59387e-08
0.00118108
-0.0011318
-1.18543e-06
-1.43016e-07
-5.05446e-08
0.00113181
-2.04801e-07
1.22627e-06
2.37429e-07
8.85029e-07
-1.77073e-07
-8.24501e-07
2.31167e-07
-0.00113144
-1.17957e-06
-1.41144e-07
-5.18806e-08
0.00113145
-2.04127e-07
1.2213e-06
2.38235e-07
8.84197e-07
-1.8032e-07
-8.25157e-07
2.33402e-07
-0.000270203
1.21443e-06
1.17933e-06
-1.94217e-07
-2.00082e-07
0.000268204
1.04753e-07
1.09625e-07
-0.00118085
-7.24591e-08
-6.85635e-08
0.00118078
-0.00113177
-1.18773e-06
-1.03719e-07
-3.88009e-08
0.00113175
-2.05501e-07
1.22486e-06
2.3753e-07
8.79835e-07
-1.82016e-07
-8.29377e-07
2.25924e-07
-0.00113142
-1.18192e-06
-1.07909e-07
-3.96574e-08
0.0011314
-2.05579e-07
1.21927e-06
2.37114e-07
8.81022e-07
-1.83352e-07
-8.27873e-07
2.298e-07
-0.000270217
1.21551e-06
1.18227e-06
-1.95809e-07
-2.00223e-07
0.000268215
1.36608e-07
1.27543e-07
-0.00118054
-8.05948e-08
-9.08085e-08
0.00118044
-0.00113171
-1.18173e-06
-1.34727e-07
-6.37171e-08
0.0011317
-2.0065e-07
1.23046e-06
2.41608e-07
8.84916e-07
-1.76996e-07
-8.2529e-07
2.31784e-07
-0.00113133
-1.17775e-06
-1.26757e-07
-5.42317e-08
0.00113132
-2.01938e-07
1.22353e-06
2.40537e-07
8.83164e-07
-1.8129e-07
-8.26508e-07
2.32679e-07
-0.000270228
1.2135e-06
1.17705e-06
-1.9193e-07
-1.98811e-07
0.000268229
1.1895e-07
1.27712e-07
-0.00118017
-8.71817e-08
-8.08231e-08
0.00118009
-0.0011317
-1.18795e-06
-1.30364e-07
-3.94622e-08
0.0011317
-2.06932e-07
1.22373e-06
2.35376e-07
8.81424e-07
-1.80084e-07
-8.27468e-07
2.27181e-07
-0.00113132
-1.18039e-06
-1.36068e-07
-5.28515e-08
0.00113134
-2.04844e-07
1.22028e-06
2.37379e-07
8.81903e-07
-1.82002e-07
-8.26985e-07
2.30881e-07
-0.000270252
1.21376e-06
1.18261e-06
-1.97534e-07
-2.00289e-07
0.000268253
1.28381e-07
1.31617e-07
-0.00117989
-1.00591e-07
-9.18584e-08
0.00117983
-0.0011317
-1.1854e-06
-1.1382e-07
-4.93544e-08
0.00113169
-2.03329e-07
1.22746e-06
2.39517e-07
8.80078e-07
-1.82583e-07
-8.30765e-07
2.26617e-07
-0.00113136
-1.18023e-06
-1.17452e-07
-4.6837e-08
0.00113135
-2.03956e-07
1.2215e-06
2.38842e-07
8.80669e-07
-1.84606e-07
-8.29754e-07
2.29795e-07
-0.000270288
1.21358e-06
1.17856e-06
-1.93381e-07
-1.99533e-07
0.000268289
1.27076e-07
1.18164e-07
-0.00117958
-7.57028e-08
-8.71932e-08
0.0011795
-0.00113166
-1.1863e-06
-1.24604e-07
-5.33096e-08
0.00113166
-2.05919e-07
1.22523e-06
2.35933e-07
8.82954e-07
-1.78764e-07
-8.26332e-07
2.2854e-07
-0.0011313
-1.18189e-06
-1.17968e-07
-4.56837e-08
0.0011313
-2.06808e-07
1.21864e-06
2.35058e-07
8.81977e-07
-1.82136e-07
-8.26956e-07
2.30452e-07
-0.000270301
1.22016e-06
1.18349e-06
-1.9705e-07
-2.04055e-07
0.000268298
6.17071e-08
6.29931e-08
-0.00117933
-4.18411e-08
-4.43606e-08
0.00117929
-0.00113172
-1.19413e-06
-8.54111e-08
-3.07033e-08
0.00113174
-2.10898e-07
1.21904e-06
2.32246e-07
8.67527e-07
-1.93137e-07
-8.42546e-07
2.15132e-07
-0.00113134
-1.18844e-06
-8.42021e-08
-3.21194e-08
0.00113136
-2.10629e-07
1.21364e-06
2.3247e-07
8.66961e-07
-1.96121e-07
-8.42784e-07
2.1743e-07
-0.000270327
1.21878e-06
1.18602e-06
-2.02457e-07
-2.0634e-07
0.000268331
1.61415e-07
1.67662e-07
-0.00117912
-1.21401e-07
-1.13042e-07
0.00117903
-0.00113176
-1.18276e-06
-1.46317e-07
-5.16516e-08
0.00113175
-2.02703e-07
1.22967e-06
2.39338e-07
8.88249e-07
-1.75193e-07
-8.22701e-07
2.32951e-07
-0.0011314
-1.17637e-06
-1.51222e-07
-5.85806e-08
0.00113139
-2.01794e-07
1.22504e-06
2.40222e-07
8.88495e-07
-1.77467e-07
-8.22255e-07
2.36089e-07
-0.00027038
1.21062e-06
1.17768e-06
-1.91849e-07
-1.96252e-07
0.00026838
1.23248e-07
1.24652e-07
-0.00117874
-8.94854e-08
-8.61509e-08
0.00117867
-0.00113167
-1.18684e-06
-1.00178e-07
-4.57931e-08
0.00113165
-2.04878e-07
1.22417e-06
2.36404e-07
8.8032e-07
-1.78421e-07
-8.26073e-07
2.25569e-07
-0.00113133
-1.18127e-06
-1.02863e-07
-4.49135e-08
0.0011313
-2.04936e-07
1.21863e-06
2.36199e-07
8.81009e-07
-1.80288e-07
-8.25105e-07
2.28985e-07
-0.000270375
1.21995e-06
1.18493e-06
-1.96194e-07
-2.02157e-07
0.000268368
5.49363e-08
4.67627e-08
-0.00117852
-1.77354e-08
-2.77813e-08
0.00117846
-0.00113161
-1.19197e-06
-9.24063e-08
-3.71853e-08
0.00113162
-2.08638e-07
1.21945e-06
2.31278e-07
8.69352e-07
-1.85542e-07
-8.36803e-07
2.16006e-07
-0.00113124
-1.18748e-06
-8.53505e-08
-2.97646e-08
0.00113125
-2.09454e-07
1.21295e-06
2.3049e-07
8.67991e-07
-1.89268e-07
-8.37766e-07
2.17526e-07
-0.000270379
1.21818e-06
1.18213e-06
-1.96733e-07
-2.03252e-07
0.000268378
1.38982e-07
1.44049e-07
-0.00117824
-1.06312e-07
-1.0314e-07
0.00117817
-0.00113171
-1.18649e-06
-1.39045e-07
-4.37724e-08
0.00113175
-2.05584e-07
1.22159e-06
2.29882e-07
8.72167e-07
-1.77318e-07
-8.26655e-07
2.13786e-07
-0.00113133
-1.18007e-06
-1.42557e-07
-4.9917e-08
0.00113138
-2.04747e-07
1.21695e-06
2.30656e-07
8.72575e-07
-1.79501e-07
-8.2607e-07
2.17095e-07
-0.000270434
1.21552e-06
1.18317e-06
-1.96976e-07
-2.00668e-07
0.000268433
1.15364e-07
1.15649e-07
-0.00117803
-1.08881e-07
-1.13298e-07
0.00117802
-0.0011318
-1.18926e-06
-7.75192e-08
-3.65177e-08
0.00113183
-2.03622e-07
1.21275e-06
2.24621e-07
8.57377e-07
-1.79486e-07
-8.33393e-07
1.9555e-07
-0.00113145
-1.18166e-06
-8.22678e-08
-2.78309e-08
0.00113148
-2.04229e-07
1.20375e-06
2.2119e-07
8.5425e-07
-1.79659e-07
-8.30595e-07
1.97851e-07
-0.000270491
1.2214e-06
1.18365e-06
-1.88963e-07
-1.94857e-07
0.00026847
9.67207e-07
9.73827e-07
-0.0011778
-8.28178e-07
-8.1848e-07
0.00117751
-0.00113208
-1.0927e-06
-9.85964e-07
-4.25549e-07
0.00113248
-1.18764e-07
1.37973e-06
3.16027e-07
1.01673e-06
-7.01846e-08
-7.21092e-07
3.07338e-07
-0.00113174
-1.08367e-06
-9.98632e-07
-4.41062e-07
0.00113215
-1.17748e-07
1.37516e-06
3.19825e-07
1.01374e-06
-7.5685e-08
-7.18402e-07
3.10242e-07
-0.000270583
1.12664e-06
1.0848e-06
-9.69443e-08
-9.89065e-08
0.000268568
5.45463e-06
5.44868e-06
-0.00116427
-1.16925e-05
-1.15795e-05
0.000283619
0.000285465
0.000285369
0.00028537
4.49397e-06
6.74803e-06
7.1612e-06
4.4992e-06
6.74991e-06
7.16588e-06
-0.000280654
5.40178e-06
-5.4466e-06
5.94891e-06
-3.41458e-06
0.000278164
-0.000280631
-5.44966e-06
5.40745e-06
-3.42303e-06
5.9467e-06
0.00027815
-0.0002715
-5.39572e-06
-5.40721e-06
5.74867e-06
5.73677e-06
0.000270817
-1.26388e-06
-1.2266e-06
0.000270096
-0.000268081
2.33699e-07
2.41914e-07
0.00113132
-1.37132e-07
-0.00113133
-5.52991e-08
-1.21835e-06
2.46626e-07
-2.0791e-07
-8.23154e-07
2.32927e-07
-1.75653e-07
8.86515e-07
1.26585e-06
0.00113176
-1.36189e-07
-0.00113179
-3.56552e-08
-1.22727e-06
2.45883e-07
-2.14282e-07
-8.28034e-07
2.35871e-07
-1.77964e-07
8.9258e-07
-1.22913e-06
0.000270125
-0.000268103
2.36587e-07
2.36363e-07
0.00113242
-1.3671e-07
-0.00113244
-5.46938e-08
-1.18157e-06
2.43621e-07
-2.05603e-07
-8.25708e-07
2.36085e-07
-1.78121e-07
8.89616e-07
1.26078e-06
0.00113142
-1.36364e-07
-0.00113144
-3.71887e-08
-1.22126e-06
2.46067e-07
-2.13904e-07
-8.24939e-07
2.36339e-07
-1.77517e-07
8.90066e-07
-1.30859e-07
-0.00113218
-4.81524e-08
-1.18464e-06
2.40799e-07
-2.03065e-07
-8.23766e-07
2.31757e-07
8.85712e-07
-1.76606e-07
1.25702e-06
0.00113122
-1.34032e-07
-0.00113124
-4.46723e-08
-1.21428e-06
2.42549e-07
-2.06481e-07
-8.23065e-07
2.32509e-07
-1.7579e-07
8.8644e-07
-1.22376e-06
0.000270073
-0.000268062
2.34159e-07
2.39328e-07
-1.32409e-07
-0.00113181
-4.95992e-08
-1.1789e-06
2.40848e-07
-2.02896e-07
-8.23081e-07
2.35197e-07
8.86253e-07
-1.78593e-07
1.22243e-06
0.00113232
-1.33538e-07
-0.00113235
-4.34296e-08
-1.18029e-06
2.39506e-07
-2.04274e-07
-8.2304e-07
2.35558e-07
-1.78322e-07
8.86768e-07
-0.000268076
2.35271e-07
2.40974e-07
1.21828e-06
1.18176e-06
-1.9049e-07
-1.97714e-07
0.000268084
-1.26279e-06
-1.227e-06
0.000270102
-0.000268089
2.34807e-07
2.41723e-07
-5.52258e-08
0.0011313
-2.07686e-07
1.26389e-06
2.46742e-07
8.86154e-07
-1.76321e-07
-8.23542e-07
2.32251e-07
-1.22737e-06
-1.30942e-07
-3.47174e-08
0.00113174
-2.13708e-07
1.26603e-06
2.46706e-07
8.91354e-07
-1.7942e-07
-8.29131e-07
2.34368e-07
0.00113122
-1.26385e-07
-0.00113125
-4.26275e-08
-1.21909e-06
2.45574e-07
-2.0851e-07
-8.23338e-07
2.33001e-07
-1.75837e-07
8.86491e-07
1.27204e-06
0.00113167
-1.28833e-07
-0.00113169
-6.14164e-08
-1.22162e-06
2.52386e-07
-2.07653e-07
-8.30092e-07
2.35279e-07
-1.79482e-07
8.91216e-07
-1.92949e-07
-1.97785e-07
0.000268104
-1.23138e-06
0.000270133
-0.00026811
2.38557e-07
2.41957e-07
-5.44037e-08
0.00113241
-2.05518e-07
1.22651e-06
2.43782e-07
8.8935e-07
-1.78673e-07
-8.25931e-07
2.35418e-07
-1.2218e-06
-1.3139e-07
-3.40127e-08
0.00113139
-2.13939e-07
1.26039e-06
2.46231e-07
8.89057e-07
-1.78767e-07
-8.25784e-07
2.349e-07
0.00113233
-1.23174e-07
-0.00113236
-4.84473e-08
-1.18111e-06
2.44119e-07
-2.04793e-07
-8.2663e-07
2.35229e-07
-1.79171e-07
8.887e-07
1.26516e-06
0.00113131
-1.23871e-07
-0.00113134
-5.44449e-08
-1.21749e-06
2.51335e-07
-2.08827e-07
-8.27934e-07
2.34127e-07
-1.80312e-07
8.87349e-07
-1.2565e-07
-4.37849e-08
0.0011312
-2.06175e-07
1.25694e-06
2.42764e-07
8.85209e-07
-1.77299e-07
2.31029e-07
-8.24233e-07
-1.2515e-07
-0.00113208
-6.10048e-08
-1.18215e-06
2.43014e-07
-2.00153e-07
-8.24435e-07
2.33138e-07
8.86007e-07
-1.76314e-07
1.25817e-06
0.00113111
-1.23513e-07
-0.00113114
-4.65885e-08
-1.21294e-06
2.43772e-07
-2.04753e-07
-8.24424e-07
2.32435e-07
-1.76595e-07
8.85656e-07
-1.90384e-07
-2.00114e-07
0.000268063
-1.2247e-06
0.000270078
-0.000268066
2.35033e-07
2.43285e-07
-1.26357e-07
-4.22734e-08
0.0011323
-2.04116e-07
1.22224e-06
2.3975e-07
8.856e-07
-1.79749e-07
2.34088e-07
-8.24092e-07
-1.19628e-07
-0.00113171
-5.38407e-08
-1.17779e-06
2.42146e-07
-2.01159e-07
-8.25135e-07
2.34423e-07
8.84686e-07
-1.80127e-07
1.225e-06
0.00113221
-1.2104e-07
-0.00113224
-5.25518e-08
-1.1778e-06
2.42249e-07
-2.0118e-07
-8.24826e-07
2.34839e-07
-1.79733e-07
8.85492e-07
-0.000268079
2.37808e-07
2.42341e-07
1.21937e-06
1.18139e-06
-1.89315e-07
-1.97841e-07
0.000268088
-1.26292e-06
-1.22363e-06
0.00027011
-0.000268094
2.30297e-07
2.39984e-07
-3.94696e-08
0.00113119
-2.08993e-07
1.26237e-06
2.44992e-07
8.86689e-07
-1.75363e-07
-8.22926e-07
2.33115e-07
-1.22038e-06
-1.33549e-07
-6.63958e-08
0.00113165
-2.07217e-07
1.27267e-06
2.52224e-07
8.9273e-07
-1.7785e-07
-8.28583e-07
2.3672e-07
0.00113113
-1.21936e-07
-0.00113114
-5.34021e-08
-1.21877e-06
2.45839e-07
-2.08409e-07
-8.2682e-07
2.28051e-07
-1.79626e-07
8.81807e-07
1.26569e-06
0.00113159
-1.24136e-07
-0.00113161
-3.96122e-08
-1.22613e-06
2.45029e-07
-2.13999e-07
-8.30048e-07
2.32715e-07
-1.80206e-07
8.89688e-07
-1.91021e-07
-1.91751e-07
0.000268113
-1.22488e-06
0.000270143
-0.00026812
2.32384e-07
2.35204e-07
-4.43294e-08
0.0011323
-2.05425e-07
1.22636e-06
2.43162e-07
8.88903e-07
-1.78751e-07
-8.26357e-07
2.35394e-07
-1.21583e-06
-1.27597e-07
-6.24149e-08
0.00113129
-2.07753e-07
1.26638e-06
2.51872e-07
8.88355e-07
-1.79208e-07
-8.27062e-07
2.3517e-07
0.00113223
-1.27154e-07
-0.00113224
-4.29106e-08
-1.18383e-06
2.40868e-07
-2.07938e-07
-8.2862e-07
2.32015e-07
-1.81356e-07
8.85754e-07
1.26223e-06
0.00113125
-1.28797e-07
-0.00113126
-5.14248e-08
-1.21871e-06
2.46982e-07
-2.11987e-07
-8.27363e-07
2.33203e-07
-1.7995e-07
8.86905e-07
-1.2921e-07
-4.70816e-08
0.00113108
-2.0509e-07
1.25806e-06
2.43205e-07
8.8674e-07
-1.75349e-07
2.33329e-07
-8.23155e-07
-1.31153e-07
-0.001132
-3.34281e-08
-1.18768e-06
2.36164e-07
-2.06831e-07
-8.23634e-07
2.30538e-07
8.84876e-07
-1.76741e-07
1.25721e-06
0.00113103
-1.26178e-07
-0.00113104
-5.43376e-08
-1.21337e-06
2.42679e-07
-2.05906e-07
-8.25785e-07
2.28922e-07
-1.78597e-07
8.82826e-07
-1.89188e-07
-1.95228e-07
0.000268069
-1.22128e-06
0.000270093
-0.00026808
2.31138e-07
2.39279e-07
-1.25815e-07
-5.22658e-08
0.00113218
-2.01609e-07
1.22472e-06
2.41386e-07
8.86556e-07
-1.78523e-07
2.35776e-07
-8.23642e-07
-1.36433e-07
-0.00113163
-4.57206e-08
-1.18036e-06
2.38103e-07
-2.04889e-07
-8.23518e-07
2.33963e-07
8.85031e-07
-1.78972e-07
1.22087e-06
0.00113213
-1.30611e-07
-0.00113214
-4.39848e-08
-1.18098e-06
2.37936e-07
-2.05294e-07
-8.25173e-07
2.32643e-07
-1.80512e-07
8.83807e-07
-0.000268089
2.32811e-07
2.39807e-07
1.21784e-06
1.18351e-06
-1.93338e-07
-1.99018e-07
0.000268101
-1.26452e-06
-1.22813e-06
0.000270149
-0.000268131
2.34123e-07
2.41061e-07
-6.28127e-08
0.00113113
-2.07237e-07
1.26388e-06
2.46971e-07
8.8001e-07
-1.81482e-07
-8.28873e-07
2.26523e-07
-1.22825e-06
-1.16335e-07
-3.13999e-08
0.00113158
-2.15456e-07
1.26396e-06
2.44079e-07
8.86674e-07
-1.83334e-07
-8.32977e-07
2.29631e-07
0.00113115
-1.32067e-07
-0.00113115
-6.67877e-08
-1.21669e-06
2.47084e-07
-2.06298e-07
-8.27806e-07
2.29912e-07
-1.79196e-07
8.82325e-07
1.26779e-06
0.00113155
-1.20576e-07
-0.00113156
-4.89285e-08
-1.2252e-06
2.48786e-07
-2.11067e-07
-8.36122e-07
2.29374e-07
-1.85009e-07
8.84681e-07
-1.97237e-07
-1.99588e-07
0.000268123
-1.2293e-06
0.000270166
-0.000268141
2.35444e-07
2.36797e-07
-4.97291e-08
0.00113223
-2.07209e-07
1.22422e-06
2.41841e-07
8.84332e-07
-1.82789e-07
-8.3017e-07
2.30772e-07
-1.2207e-06
-1.24324e-07
-4.38319e-08
0.00113124
-2.13628e-07
1.26041e-06
2.45676e-07
8.84795e-07
-1.82175e-07
-8.29384e-07
2.30925e-07
0.00113226
-1.37049e-07
-0.00113225
-6.60776e-08
-1.17966e-06
2.45523e-07
-2.03119e-07
-8.30328e-07
2.32457e-07
-1.82e-07
8.85127e-07
1.26184e-06
0.00113123
-1.25645e-07
-0.00113123
-4.71305e-08
-1.21999e-06
2.48056e-07
-2.11672e-07
-8.31664e-07
2.30606e-07
-1.83603e-07
8.83389e-07
-1.21261e-07
-6.0119e-08
0.00113103
-2.05118e-07
1.25773e-06
2.43543e-07
8.80519e-07
-1.81056e-07
2.26726e-07
-8.28253e-07
-1.16705e-07
-0.00113195
-5.49943e-08
-1.18395e-06
2.41791e-07
-2.01457e-07
-8.31289e-07
2.26117e-07
8.78489e-07
-1.82908e-07
1.25884e-06
0.00113105
-1.28846e-07
-0.00113104
-6.39937e-08
-1.21158e-06
2.44297e-07
-2.03647e-07
-8.28574e-07
2.29159e-07
-1.79954e-07
8.81512e-07
-1.93271e-07
-2.00556e-07
0.000268085
-1.22352e-06
0.000270119
-0.000268105
2.32839e-07
2.39042e-07
-1.29307e-07
-4.70095e-08
0.00113213
-2.04966e-07
1.22095e-06
2.3856e-07
8.81867e-07
-1.826e-07
2.30738e-07
-8.27215e-07
-1.20998e-07
-0.00113161
-5.29979e-08
-1.17854e-06
2.41209e-07
-2.01924e-07
-8.29675e-07
2.29754e-07
8.79753e-07
-1.84514e-07
1.22501e-06
0.00113215
-1.34078e-07
-0.00113215
-6.32416e-08
-1.17742e-06
2.42536e-07
-2.00704e-07
-8.28262e-07
2.31864e-07
-1.82604e-07
8.81921e-07
-0.000268124
2.36325e-07
2.40953e-07
1.21764e-06
1.17902e-06
-1.88653e-07
-1.97842e-07
0.000268138
-1.25892e-06
-1.22489e-06
0.000270153
-0.000268142
2.33138e-07
2.38937e-07
-5.68178e-08
0.00113115
-2.07725e-07
1.26326e-06
2.45381e-07
8.85301e-07
-1.76414e-07
-8.24968e-07
2.32624e-07
-1.22275e-06
-1.2978e-07
-6.08405e-08
0.00113155
-2.08925e-07
1.2701e-06
2.50574e-07
8.87314e-07
-1.82531e-07
-8.34006e-07
2.32115e-07
0.00113108
-1.4097e-07
-0.00113111
-2.56768e-08
-1.22189e-06
2.41501e-07
-2.12207e-07
-8.20019e-07
2.346e-07
-1.73121e-07
8.88925e-07
1.27089e-06
0.00113154
-1.48335e-07
-0.00113155
-6.85107e-08
-1.22089e-06
2.50127e-07
-2.08788e-07
-8.25623e-07
2.38477e-07
-1.75438e-07
8.95128e-07
-1.92276e-07
-1.95248e-07
0.000268148
-1.2302e-06
0.00027019
-0.000268167
2.37539e-07
2.40561e-07
-6.34263e-08
0.00113226
-2.03038e-07
1.22843e-06
2.45215e-07
8.87226e-07
-1.80093e-07
-8.28455e-07
2.34371e-07
-1.21831e-06
-1.311e-07
-5.36407e-08
0.00113122
-2.10135e-07
1.26341e-06
2.4932e-07
8.85418e-07
-1.81645e-07
-8.29985e-07
2.32741e-07
0.00113219
-1.29822e-07
-0.00113222
-4.07167e-08
-1.18179e-06
2.41449e-07
-2.06704e-07
-8.2443e-07
2.36089e-07
-1.77412e-07
8.90253e-07
1.26406e-06
0.00113118
-1.39719e-07
-0.0011312
-5.79868e-08
-1.21678e-06
2.4904e-07
-2.09932e-07
-8.23926e-07
2.37102e-07
-1.76581e-07
8.90889e-07
-1.36817e-07
-5.64714e-08
0.00113104
-2.04661e-07
1.25799e-06
2.42943e-07
8.8454e-07
-1.77058e-07
2.32064e-07
-8.25802e-07
-1.50544e-07
-0.00113193
-6.45386e-08
-1.18192e-06
2.41054e-07
-2.01436e-07
-8.19633e-07
2.36248e-07
8.90048e-07
-1.72182e-07
1.25393e-06
0.00113098
-1.42931e-07
-0.00113101
-2.90778e-08
-1.2159e-06
2.39106e-07
-2.08989e-07
-8.1983e-07
2.34946e-07
-1.72831e-07
8.89235e-07
-1.90069e-07
-1.98358e-07
0.000268111
-1.22316e-06
0.000270134
-0.000268123
2.33853e-07
2.422e-07
-1.3707e-07
-6.30739e-08
0.00113215
-2.00261e-07
1.22565e-06
2.42564e-07
8.84166e-07
-1.80482e-07
2.34037e-07
-8.26271e-07
-1.42327e-07
-0.00113157
-5.37656e-08
-1.17796e-06
2.3984e-07
-2.02745e-07
-8.20545e-07
2.37661e-07
8.88686e-07
-1.75952e-07
1.22268e-06
0.00113209
-1.32128e-07
-0.00113211
-4.41399e-08
-1.17854e-06
2.39185e-07
-2.03469e-07
-8.21485e-07
2.36444e-07
-1.77052e-07
8.8792e-07
-0.000268136
2.36036e-07
2.39273e-07
1.22186e-06
1.18284e-06
-1.90531e-07
-1.99642e-07
0.000268139
-1.26415e-06
-1.22447e-06
0.00027015
-0.000268136
2.31954e-07
2.42153e-07
-2.59224e-08
0.00113105
-2.11623e-07
1.25915e-06
2.42273e-07
8.87703e-07
-1.74523e-07
-8.21025e-07
2.32988e-07
-1.22214e-06
-1.45302e-07
-6.114e-08
0.00113153
-2.09893e-07
1.26963e-06
2.4902e-07
8.95493e-07
-1.75175e-07
-8.25002e-07
2.38394e-07
0.00113095
-1.11305e-07
-0.00113098
-5.62063e-08
-1.2173e-06
2.48063e-07
-2.05855e-07
-8.26516e-07
2.28565e-07
-1.79344e-07
8.82217e-07
1.26595e-06
0.00113144
-1.18006e-07
-0.00113147
-3.63191e-08
-1.22604e-06
2.46574e-07
-2.12595e-07
-8.28955e-07
2.33744e-07
-1.79244e-07
8.9065e-07
-1.9154e-07
-1.93215e-07
0.00026817
-1.22647e-06
0.000270187
-0.000268167
2.34919e-07
2.36877e-07
-3.69495e-08
0.00113215
-2.07358e-07
1.22386e-06
2.40848e-07
8.89672e-07
-1.78165e-07
-8.24884e-07
2.35163e-07
-1.21757e-06
-1.36469e-07
-5.38284e-08
0.00113116
-2.10561e-07
1.26326e-06
2.48431e-07
8.90981e-07
-1.76587e-07
-8.23661e-07
2.36834e-07
0.00113206
-1.14969e-07
-0.00113208
-4.69763e-08
-1.18278e-06
2.42726e-07
-2.0583e-07
-8.27979e-07
2.32801e-07
-1.8074e-07
8.86439e-07
1.26156e-06
0.00113108
-1.18817e-07
-0.00113111
-4.40216e-08
-1.2195e-06
2.47725e-07
-2.11438e-07
-8.2672e-07
2.33598e-07
-1.79578e-07
8.8739e-07
-1.36288e-07
-2.87332e-08
0.00113095
-2.08541e-07
1.25404e-06
2.39774e-07
8.88223e-07
-1.74024e-07
2.33514e-07
-8.20597e-07
-1.1895e-07
-0.00113186
-3.7121e-08
-1.18599e-06
2.38815e-07
-2.04011e-07
-8.23392e-07
2.31007e-07
8.85101e-07
-1.76484e-07
1.25839e-06
0.00113085
-1.12549e-07
-0.00113088
-5.49152e-08
-1.21209e-06
2.45005e-07
-2.03301e-07
-8.25979e-07
2.2899e-07
-1.78862e-07
8.82756e-07
-1.89887e-07
-1.96465e-07
0.000268124
-1.22228e-06
0.000270134
-0.000268123
2.33181e-07
2.40061e-07
-1.26036e-07
-3.97589e-08
0.00113205
-2.04142e-07
1.22165e-06
2.38575e-07
8.87363e-07
-1.7776e-07
2.35533e-07
-8.21901e-07
-1.19726e-07
-0.00113148
-4.56773e-08
-1.17925e-06
2.40217e-07
-2.02648e-07
-8.23775e-07
2.33447e-07
8.84627e-07
-1.79632e-07
1.22161e-06
0.00113195
-1.15079e-07
-0.00113198
-4.57671e-08
-1.18011e-06
2.39764e-07
-2.03209e-07
-8.25085e-07
2.33018e-07
-1.80462e-07
8.84057e-07
-0.00026813
2.34496e-07
2.42064e-07
1.21548e-06
1.1816e-06
-1.9079e-07
-1.96039e-07
0.00026814
-1.26415e-06
-1.22685e-06
0.000270186
-0.000268168
2.32461e-07
2.4008e-07
-6.73579e-08
0.00113094
-2.0439e-07
1.26576e-06
2.49193e-07
8.81605e-07
-1.79704e-07
-8.27495e-07
2.28408e-07
-1.2262e-06
-1.13217e-07
-3.46056e-08
0.0011314
-2.12536e-07
1.266e-06
2.46718e-07
8.88432e-07
-1.8127e-07
-8.31378e-07
2.31902e-07
0.00113094
-1.37723e-07
-0.00113093
-6.76719e-08
-1.21597e-06
2.46263e-07
-2.06478e-07
-8.26446e-07
2.29858e-07
-1.7819e-07
8.82665e-07
1.26775e-06
0.00113136
-1.3011e-07
-0.00113136
-5.00384e-08
-1.22393e-06
2.47894e-07
-2.10967e-07
-8.33739e-07
2.30526e-07
-1.82928e-07
8.86278e-07
-1.93834e-07
-1.96602e-07
0.000268166
-1.22887e-06
0.000270207
-0.000268181
2.34519e-07
2.36213e-07
-5.40736e-08
0.00113204
-2.04759e-07
1.22567e-06
2.43678e-07
8.86121e-07
-1.80797e-07
-8.28559e-07
2.32799e-07
-1.21928e-06
-1.1876e-07
-4.48381e-08
0.00113105
-2.11194e-07
1.26187e-06
2.47929e-07
8.86161e-07
-1.80627e-07
-8.28174e-07
2.32678e-07
0.00113205
-1.4465e-07
-0.00113204
-6.28397e-08
-1.17978e-06
2.43747e-07
-2.04206e-07
-8.28764e-07
2.32674e-07
-1.80762e-07
8.85728e-07
1.26193e-06
0.00113103
-1.35112e-07
-0.00113103
-5.07777e-08
-1.21855e-06
2.47333e-07
-2.11358e-07
-8.29722e-07
2.31369e-07
-1.81876e-07
8.84481e-07
-1.13318e-07
-6.43054e-08
0.00113083
-2.02076e-07
1.25979e-06
2.45904e-07
8.81919e-07
-1.79458e-07
2.28605e-07
-8.27177e-07
-1.2675e-07
-0.00113175
-5.53986e-08
-1.18318e-06
2.40583e-07
-2.01808e-07
-8.28662e-07
2.2744e-07
8.80269e-07
-1.80574e-07
1.25796e-06
0.00113083
-1.34149e-07
-0.00113082
-6.28382e-08
-1.21121e-06
2.42873e-07
-2.04342e-07
-8.26981e-07
2.29109e-07
-1.7881e-07
8.81994e-07
-1.90218e-07
-1.98297e-07
0.000268125
-1.22312e-06
0.000270159
-0.000268144
2.31733e-07
2.38437e-07
-1.20694e-07
-5.12304e-08
0.00113193
-2.02462e-07
1.22251e-06
2.40423e-07
8.83599e-07
-1.8068e-07
2.32871e-07
-8.25771e-07
-1.3106e-07
-0.0011314
-5.59819e-08
-1.17767e-06
2.40063e-07
-2.02162e-07
-8.27459e-07
2.3081e-07
8.8112e-07
-1.82424e-07
1.22334e-06
0.00113194
-1.41039e-07
-0.00113193
-5.81784e-08
-1.1778e-06
2.40308e-07
-2.02166e-07
-8.26597e-07
2.31991e-07
-1.81301e-07
8.82481e-07
-0.000268159
2.34339e-07
2.39526e-07
1.21754e-06
1.17989e-06
-1.90431e-07
-1.98904e-07
0.000268178
-1.25971e-06
-1.22464e-06
0.000270221
-0.000268205
2.30864e-07
2.37322e-07
-6.09665e-08
0.00113095
-2.08084e-07
1.26264e-06
2.44708e-07
8.83333e-07
-1.77694e-07
-8.26027e-07
2.30324e-07
-1.22331e-06
-1.36806e-07
-5.792e-08
0.00113137
-2.1035e-07
1.26844e-06
2.48504e-07
8.86714e-07
-1.82589e-07
-8.33713e-07
2.30993e-07
0.00113098
-1.4337e-07
-0.00113097
-4.1499e-08
-1.2208e-06
2.4214e-07
-2.11231e-07
-8.2494e-07
2.30301e-07
-1.77635e-07
8.84271e-07
1.26869e-06
0.00113142
-1.43927e-07
-0.00113141
-6.32139e-08
-1.22281e-06
2.48063e-07
-2.10636e-07
-8.31072e-07
2.33027e-07
-1.80765e-07
8.89611e-07
-1.9366e-07
-1.96488e-07
0.000268191
-1.22766e-06
0.000270251
-0.000268225
2.33612e-07
2.36929e-07
-6.28299e-08
0.00113207
-2.04398e-07
1.2268e-06
2.43538e-07
8.85596e-07
-1.81024e-07
-8.29179e-07
2.32451e-07
-1.21865e-06
-1.38286e-07
-5.39763e-08
0.00113104
-2.11339e-07
1.26197e-06
2.47461e-07
8.84275e-07
-1.82121e-07
-8.30232e-07
2.31186e-07
0.00113209
-1.37128e-07
-0.00113209
-4.95322e-08
-1.18172e-06
2.41144e-07
-2.06678e-07
-8.28848e-07
2.32255e-07
-1.81459e-07
8.86129e-07
1.26312e-06
0.00113107
-1.39611e-07
-0.00113106
-6.05531e-08
-1.21761e-06
2.48319e-07
-2.10563e-07
-8.29264e-07
2.32065e-07
-1.81688e-07
8.85667e-07
-1.39268e-07
-5.78525e-08
0.00113084
-2.05643e-07
1.25672e-06
2.4169e-07
8.82325e-07
-1.78566e-07
2.29365e-07
-8.26935e-07
-1.46075e-07
-0.00113179
-5.80068e-08
-1.184e-06
2.38582e-07
-2.03522e-07
-8.25022e-07
2.30941e-07
8.84663e-07
-1.7745e-07
1.25526e-06
0.00113087
-1.44278e-07
-0.00113086
-4.75532e-08
-1.21438e-06
2.4037e-07
-2.07422e-07
-8.25304e-07
2.30299e-07
-1.77794e-07
8.84095e-07
-1.9161e-07
-1.99604e-07
0.000268153
-1.22192e-06
0.000270198
-0.000268184
2.30923e-07
2.39479e-07
-1.42015e-07
-5.95981e-08
0.00113195
-2.02138e-07
1.22345e-06
2.40376e-07
8.8213e-07
-1.81762e-07
2.31606e-07
-8.27252e-07
-1.42088e-07
-0.00113143
-5.46421e-08
-1.17892e-06
2.38715e-07
-2.03595e-07
-8.25884e-07
2.32703e-07
8.8352e-07
-1.8106e-07
1.22269e-06
0.00113198
-1.39162e-07
-0.00113197
-5.51636e-08
-1.17828e-06
2.39221e-07
-2.03117e-07
-8.26266e-07
2.32461e-07
-1.81383e-07
8.83561e-07
-0.000268197
2.33896e-07
2.3804e-07
1.22097e-06
1.18296e-06
-1.92295e-07
-2.00806e-07
0.00026821
-1.26062e-06
-1.22188e-06
0.000270232
-0.000268218
2.2951e-07
2.38739e-07
-4.07556e-08
0.00113098
-2.11026e-07
1.25972e-06
2.4252e-07
8.83563e-07
-1.78303e-07
-8.25563e-07
2.29591e-07
-1.22376e-06
-1.38481e-07
-5.80606e-08
0.00113142
-2.11506e-07
1.26768e-06
2.47186e-07
8.89727e-07
-1.80635e-07
-8.30855e-07
2.33066e-07
0.00113094
-1.07595e-07
-0.00113095
-4.76077e-08
-1.22021e-06
2.43996e-07
-2.0943e-07
-8.29032e-07
2.2665e-07
-1.81393e-07
8.80325e-07
1.26368e-06
0.00113139
-1.08065e-07
-0.00113141
-3.62928e-08
-1.22794e-06
2.44126e-07
-2.14787e-07
-8.33707e-07
2.2984e-07
-1.83506e-07
8.8664e-07
-1.95001e-07
-1.96175e-07
0.000268233
-1.22397e-06
0.000270262
-0.000268241
2.32002e-07
2.34007e-07
-4.42121e-08
0.00113208
-2.07668e-07
1.2234e-06
2.40232e-07
8.86089e-07
-1.81486e-07
-8.28851e-07
2.32243e-07
-1.21776e-06
-1.36113e-07
-5.99126e-08
0.00113108
-2.10693e-07
1.26288e-06
2.48095e-07
8.8614e-07
-1.81242e-07
-8.28823e-07
2.3253e-07
0.00113204
-1.12781e-07
-0.00113206
-4.05572e-08
-1.18506e-06
2.39829e-07
-2.08553e-07
-8.30618e-07
2.30495e-07
-1.83035e-07
8.84292e-07
1.25916e-06
0.00113105
-1.12839e-07
-0.00113107
-4.15793e-08
-1.22132e-06
2.44735e-07
-2.13913e-07
-8.2981e-07
2.31097e-07
-1.8227e-07
8.84965e-07
-1.39606e-07
-4.76921e-08
0.00113087
-2.0725e-07
1.2553e-06
2.40627e-07
8.84003e-07
-1.77903e-07
2.30147e-07
-8.25331e-07
-1.11188e-07
-0.00113179
-3.51896e-08
-1.18829e-06
2.36256e-07
-2.06504e-07
-8.2795e-07
2.27074e-07
8.81188e-07
-1.80671e-07
1.25464e-06
0.00113084
-1.10442e-07
-0.00113086
-4.61386e-08
-1.21511e-06
2.40535e-07
-2.07217e-07
-8.28162e-07
2.27232e-07
-1.80666e-07
8.8115e-07
-1.92197e-07
-1.98338e-07
0.000268191
-1.21942e-06
0.000270213
-0.000268202
2.30191e-07
2.3737e-07
-1.36074e-07
-5.08291e-08
0.00113198
-2.04038e-07
1.22159e-06
2.38305e-07
8.8404e-07
-1.80886e-07
2.32912e-07
-8.2575e-07
-1.16757e-07
-0.00113143
-4.12032e-08
-1.18169e-06
2.36965e-07
-2.05588e-07
-8.2661e-07
2.31158e-07
8.82441e-07
-1.82024e-07
1.21891e-06
0.00113194
-1.14759e-07
-0.00113196
-3.92695e-08
-1.18243e-06
2.36646e-07
-2.06123e-07
-8.27425e-07
2.30772e-07
-1.8257e-07
8.82071e-07
-0.000268213
2.31881e-07
2.38326e-07
1.2201e-06
1.18438e-06
-1.92904e-07
-1.9956e-07
0.00026822
-1.26102e-06
-1.22681e-06
0.000270247
-0.000268231
2.33271e-07
2.38883e-07
-4.92815e-08
0.00113092
-2.09272e-07
1.26066e-06
2.44098e-07
8.8019e-07
-1.81558e-07
-8.29323e-07
2.2663e-07
-1.2283e-06
-1.03552e-07
-3.56012e-08
0.00113136
-2.14677e-07
1.26367e-06
2.44591e-07
8.85778e-07
-1.84385e-07
-8.34626e-07
2.29094e-07
0.00113087
-1.25761e-07
-0.00113089
-4.61088e-08
-1.21979e-06
2.43682e-07
-2.09569e-07
-8.2593e-07
2.30379e-07
-1.78131e-07
8.84047e-07
1.26871e-06
0.00113132
-1.24241e-07
-0.00113133
-5.53504e-08
-1.22366e-06
2.48908e-07
-2.10291e-07
-8.32648e-07
2.32226e-07
-1.81959e-07
8.88497e-07
-1.95982e-07
-1.98957e-07
0.000268241
-1.22981e-06
0.000270276
-0.000268251
2.36139e-07