/*--------------------------------*- C++ -*----------------------------------*\
| =========                 |                                                 |
| \\      /  F ield         | OpenFOAM: The Open Source CFD Toolbox           |
|  \\    /   O peration     | Version:  v1906                                 |
|   \\  /    A nd           | Web:      www.OpenFOAM.com                      |
|    \\/     M anipulation  |                                                 |
\*---------------------------------------------------------------------------*/
FoamFile
{
    version     2.0;
    format      ascii;
    class       surfaceScalarField;
    location    "1000";
    object      phi;
}
// * * * * * * * * * * * * * * * * * * * * * * * * * * * * * * * * * * * * * //

dimensions      [0 3 -1 0 0 0 0];
oriented        oriented;


internalField   nonuniform List<scalar> 
124908
(
1.32446e-07
1.33887e-07
-0.00118365
-8.87658e-08
-8.9218e-08
0.00118356
-0.00113216
-1.18437e-06
-1.21788e-07
-4.93002e-08
0.00113213
-2.0238e-07
1.2294e-06
2.41443e-07
8.84365e-07
-1.78157e-07
-8.25062e-07
2.30285e-07
-0.00113179
-1.17891e-06
-1.23655e-07
-4.9119e-08
0.00113177
-2.0263e-07
1.22367e-06
2.41034e-07
8.85064e-07
-1.79982e-07
-8.24166e-07
2.33725e-07
-0.000270079
1.21424e-06
1.18056e-06
-1.94016e-07
-1.98712e-07
0.000268076
1.27722e-07
1.23601e-07
-0.0011833
-7.24629e-08
-7.8129e-08
0.0011832
-0.00113206
-1.18245e-06
-1.354e-07
-5.85802e-08
0.00113203
-2.011e-07
1.23065e-06
2.41699e-07
8.88141e-07
-1.74102e-07
-8.22163e-07
2.35044e-07
-0.00113168
-1.17769e-06
-1.28727e-07
-5.43478e-08
0.00113166
-2.01532e-07
1.22448e-06
2.41433e-07
8.8628e-07
-1.78367e-07
-8.23636e-07
2.36011e-07
-0.000270082
1.21273e-06
1.1775e-06
-1.91139e-07
-1.97119e-07
0.00026808
1.19842e-07
1.28433e-07
-0.00118289
-8.54051e-08
-7.60932e-08
0.00118281
-0.00113198
-1.18847e-06
-1.20161e-07
-3.12336e-08
0.00113197
-2.06959e-07
1.2245e-06
2.36489e-07
8.81159e-07
-1.80592e-07
-8.27264e-07
2.26775e-07
-0.00113162
-1.18105e-06
-1.28727e-07
-4.38465e-08
0.00113161
-2.0518e-07
1.22082e-06
2.38119e-07
8.82168e-07
-1.81898e-07
-8.26203e-07
2.30982e-07
-0.000270095
1.21307e-06
1.18127e-06
-1.96137e-07
-1.99516e-07
0.000268096
1.39407e-07
1.39028e-07
-0.00118259
-1.02092e-07
-9.91117e-08
0.00118251
-0.00113194
-1.18205e-06
-1.26352e-07
-6.48501e-08
0.00113194
-1.99946e-07
1.23097e-06
2.42886e-07
8.81425e-07
-1.80109e-07
-8.28939e-07
2.29207e-07
-0.0011316
-1.17742e-06
-1.26656e-07
-5.71756e-08
0.00113159
-2.01077e-07
1.2244e-06
2.41691e-07
8.81969e-07
-1.8223e-07
-8.27935e-07
2.32263e-07
-0.00027013
1.21217e-06
1.17649e-06
-1.91388e-07
-1.97869e-07
0.000268131
1.33163e-07
1.23055e-07
-0.00118223
-6.89327e-08
-8.32623e-08
0.00118212
-0.00113193
-1.18321e-06
-1.48383e-07
-5.66795e-08
0.00113191
-2.02504e-07
1.229e-06
2.40077e-07
8.90426e-07
-1.71933e-07
-8.18956e-07
2.36118e-07
-0.00113155
-1.1788e-06
-1.40349e-07
-4.95477e-08
0.00113153
-2.03305e-07
1.22245e-06
2.39421e-07
8.88791e-07
-1.75898e-07
-8.20194e-07
2.37418e-07
-0.000270137
1.21596e-06
1.17961e-06
-1.92677e-07
-1.99365e-07
0.000268133
1.1375e-07
1.22119e-07
-0.00118182
-7.47665e-08
-6.94545e-08
0.00118173
-0.00113182
-1.18581e-06
-1.12746e-07
-3.71874e-08
0.00113179
-2.03641e-07
1.22684e-06
2.39241e-07
8.82725e-07
-1.78664e-07
-8.25965e-07
2.29022e-07
-0.00113145
-1.17865e-06
-1.17993e-07
-4.81383e-08
0.00113142
-2.02084e-07
1.22293e-06
2.40699e-07
8.83089e-07
-1.80861e-07
-8.25552e-07
2.3237e-07
-0.000270134
1.21044e-06
1.17925e-06
-1.93443e-07
-1.96221e-07
0.000268134
1.43371e-07
1.45918e-07
-0.00118148
-1.087e-07
-1.01969e-07
0.0011814
-0.00113175
-1.18267e-06
-1.33545e-07
-6.25556e-08
0.00113176
-2.01348e-07
1.22939e-06
2.40965e-07
8.80789e-07
-1.80145e-07
-8.2859e-07
2.28035e-07
-0.0011314
-1.17792e-06
-1.3461e-07
-5.83423e-08
0.00113141
-2.02341e-07
1.22294e-06
2.39929e-07
8.80972e-07
-1.82504e-07
-8.2794e-07
2.30825e-07
-0.000270166
1.21261e-06
1.17778e-06
-1.93516e-07
-1.99422e-07
0.000268169
1.36289e-07
1.31825e-07
-0.00118116
-9.07026e-08
-9.5873e-08
0.00118108
-0.0011318
-1.18543e-06
-1.43149e-07
-5.0598e-08
0.00113181
-2.04801e-07
1.22628e-06
2.37424e-07
8.85045e-07
-1.77057e-07
-8.24488e-07
2.31187e-07
-0.00113144
-1.17956e-06
-1.4114e-07
-5.18591e-08
0.00113145
-2.04135e-07
1.22129e-06
2.3822e-07
8.84204e-07
-1.80312e-07
-8.25153e-07
2.33413e-07
-0.000270203
1.21443e-06
1.17932e-06
-1.94223e-07
-2.00083e-07
0.000268204
1.04581e-07
1.09584e-07
-0.00118085
-7.23972e-08
-6.83835e-08
0.00118077
-0.00113177
-1.18778e-06
-1.03865e-07
-3.85719e-08
0.00113175
-2.05548e-07
1.22481e-06
2.37489e-07
8.79851e-07
-1.82004e-07
-8.29362e-07
2.25934e-07
-0.00113142
-1.18196e-06
-1.08035e-07
-3.95099e-08
0.0011314
-2.05614e-07
1.21924e-06
2.37087e-07
8.81038e-07
-1.83341e-07
-8.27859e-07
2.29812e-07
-0.000270217
1.21549e-06
1.18226e-06
-1.95806e-07
-2.00216e-07
0.000268215
1.36668e-07
1.27642e-07
-0.00118054
-8.08145e-08
-9.09742e-08
0.00118044
-0.00113171
-1.18172e-06
-1.34664e-07
-6.38042e-08
0.0011317
-2.00631e-07
1.23047e-06
2.41634e-07
8.84899e-07
-1.77017e-07
-8.25312e-07
2.31766e-07
-0.00113133
-1.17773e-06
-1.26573e-07
-5.433e-08
0.00113132
-2.01914e-07
1.22356e-06
2.40563e-07
8.83127e-07
-1.81328e-07
-8.26546e-07
2.32641e-07
-0.000270229
1.21354e-06
1.17704e-06
-1.9192e-07
-1.98845e-07
0.000268229
1.18989e-07
1.27715e-07
-0.00118017
-8.72828e-08
-8.09795e-08
0.00118009
-0.0011317
-1.18793e-06
-1.30062e-07
-3.95318e-08
0.0011317
-2.06919e-07
1.22375e-06
2.35386e-07
8.81383e-07
-1.80127e-07
-8.27511e-07
2.27139e-07
-0.00113132
-1.1804e-06
-1.35733e-07
-5.28162e-08
0.00113134
-2.04856e-07
1.22027e-06
2.37367e-07
8.81861e-07
-1.82041e-07
-8.27029e-07
2.30846e-07
-0.000270252
1.21376e-06
1.18263e-06
-1.97543e-07
-2.00288e-07
0.000268254
1.2837e-07
1.3148e-07
-0.00117989
-1.00462e-07
-9.18111e-08
0.00117983
-0.0011317
-1.18543e-06
-1.13736e-07
-4.92758e-08
0.00113169
-2.03356e-07
1.22744e-06
2.39491e-07
8.8007e-07
-1.82588e-07
-8.30775e-07
2.26612e-07
-0.00113136
-1.18026e-06
-1.17596e-07
-4.67849e-08
0.00113135
-2.03983e-07
1.22147e-06
2.38815e-07
8.80698e-07
-1.84583e-07
-8.29732e-07
2.29823e-07
-0.000270288
1.21356e-06
1.17858e-06
-1.93391e-07
-1.99524e-07
0.000268289
1.27186e-07
1.17954e-07
-0.00117958
-7.54445e-08
-8.72264e-08
0.0011795
-0.00113166
-1.18627e-06
-1.2474e-07
-5.34988e-08
0.00113166
-2.05889e-07
1.22527e-06
2.3597e-07
8.82962e-07
-1.78755e-07
-8.26327e-07
2.28553e-07
-0.0011313
-1.18189e-06
-1.18202e-07
-4.56397e-08
0.0011313
-2.06805e-07
1.21864e-06
2.35068e-07
8.82011e-07
-1.82109e-07
-8.2692e-07
2.30476e-07
-0.000270301
1.22018e-06
1.18348e-06
-1.97047e-07
-2.04069e-07
0.000268298
6.17787e-08
6.30608e-08
-0.00117933
-4.18256e-08
-4.4539e-08
0.00117929
-0.00113172
-1.19412e-06
-8.5483e-08
-3.07474e-08
0.00113174
-2.1089e-07
1.21904e-06
2.32249e-07
8.67549e-07
-1.93118e-07
-8.42527e-07
2.15154e-07
-0.00113134
-1.18841e-06
-8.39302e-08
-3.21148e-08
0.00113136
-2.10607e-07
1.21367e-06
2.32492e-07
8.66914e-07
-1.96166e-07
-8.4283e-07
2.17386e-07
-0.000270327
1.2188e-06
1.186e-06
-2.02445e-07
-2.06349e-07
0.000268331
1.6115e-07
1.67977e-07
-0.00117912
-1.21698e-07
-1.12786e-07
0.00117903
-0.00113176
-1.18282e-06
-1.46307e-07
-5.12748e-08
0.00113175
-2.02765e-07
1.22961e-06
2.39281e-07
8.8826e-07
-1.75188e-07
-8.22689e-07
2.32954e-07
-0.00113139
-1.17636e-06
-1.51191e-07
-5.87124e-08
0.00113139
-2.01786e-07
1.22505e-06
2.40228e-07
8.88485e-07
-1.77478e-07
-8.22271e-07
2.36083e-07
-0.00027038
1.21058e-06
1.1777e-06
-1.91864e-07
-1.96222e-07
0.00026838
1.23154e-07
1.24655e-07
-0.00117874
-8.95249e-08
-8.58799e-08
0.00117867
-0.00113167
-1.1868e-06
-1.00169e-07
-4.59472e-08
0.00113165
-2.04834e-07
1.22422e-06
2.36456e-07
8.80301e-07
-1.78444e-07
-8.26093e-07
2.25548e-07
-0.00113133
-1.18125e-06
-1.03218e-07
-4.5089e-08
0.0011313
-2.04923e-07
1.21864e-06
2.36215e-07
8.81068e-07
-1.80237e-07
-8.2505e-07
2.29039e-07
-0.000270375
1.21993e-06
1.18496e-06
-1.96219e-07
-2.02132e-07
0.000268368
5.51876e-08
4.65301e-08
-0.00117852
-1.75277e-08
-2.80024e-08
0.00117846
-0.00113161
-1.19191e-06
-9.24282e-08
-3.74975e-08
0.00113162
-2.08582e-07
1.21951e-06
2.31332e-07
8.69361e-07
-1.85532e-07
-8.36797e-07
2.16018e-07
-0.00113124
-1.18748e-06
-8.53415e-08
-2.9677e-08
0.00113125
-2.0945e-07
1.21296e-06
2.30495e-07
8.68002e-07
-1.89261e-07
-8.37755e-07
2.17531e-07
-0.000270379
1.21821e-06
1.1821e-06
-1.96705e-07
-2.03272e-07
0.000268378
1.39132e-07
1.44075e-07
-0.00117824
-1.06365e-07
-1.0343e-07
0.00117817
-0.00113171
-1.18649e-06
-1.38841e-07
-4.37193e-08
0.00113175
-2.05588e-07
1.22159e-06
2.29873e-07
8.72152e-07
-1.7733e-07
-8.26669e-07
2.13774e-07
-0.00113133
-1.18006e-06
-1.42255e-07
-4.98826e-08
0.00113138
-2.04733e-07
1.21697e-06
2.30672e-07
8.72531e-07
-1.79544e-07
-8.26114e-07
2.17052e-07
-0.000270434
1.21551e-06
1.18317e-06
-1.96978e-07
-2.00664e-07
0.000268433
1.15321e-07
1.1602e-07
-0.00117803
-1.09302e-07
-1.13322e-07
0.00117802
-0.0011318
-1.18932e-06
-7.74285e-08
-3.62676e-08
0.00113183
-2.0368e-07
1.21268e-06
2.24563e-07
8.57363e-07
-1.79503e-07
-8.33409e-07
1.95536e-07
-0.00113145
-1.18164e-06
-8.22348e-08
-2.79518e-08
0.00113148
-2.04219e-07
1.20376e-06
2.21196e-07
8.54241e-07
-1.79667e-07
-8.30608e-07
1.97849e-07
-0.000270491
1.22139e-06
1.18366e-06
-1.88974e-07
-1.94857e-07
0.00026847
9.67172e-07
9.73744e-07
-0.00117781
-8.28086e-07
-8.18362e-07
0.00117751
-0.00113208
-1.09272e-06
-9.86231e-07
-4.25583e-07
0.00113248
-1.18774e-07
1.37971e-06
3.16022e-07
1.01676e-06
-7.01612e-08
-7.21068e-07
3.07365e-07
-0.00113174
-1.08372e-06
-9.9883e-07
-4.40898e-07
0.00113215
-1.178e-07
1.37511e-06
3.19774e-07
1.01378e-06
-7.56476e-08
-7.18367e-07
3.10278e-07
-0.000270583
1.12667e-06
1.08478e-06
-9.69241e-08
-9.89267e-08
0.000268568
5.45462e-06
5.44858e-06
-0.00116427
-1.1692e-05
-1.15793e-05
0.000283619
0.000285465
0.000285369
0.00028537
4.49396e-06
6.74802e-06
7.16118e-06
4.4991e-06
6.74982e-06
7.16579e-06
-0.000280654
5.4018e-06
-5.44663e-06
5.94893e-06
-3.4146e-06
0.000278164
-0.000280631
-5.44967e-06
5.40742e-06
-3.42299e-06
5.9467e-06
0.00027815
-0.0002715
-5.39569e-06
-5.4072e-06
5.74866e-06
5.73675e-06
0.000270817
-1.264e-06
-1.22655e-06
0.000270096
-0.000268081
2.33668e-07
2.42006e-07
0.00113132
-1.36978e-07
-0.00113133
-5.57114e-08
-1.21824e-06
2.46728e-07
-2.07803e-07
-8.23164e-07
2.32925e-07
-1.75655e-07
8.86508e-07
1.26591e-06
0.00113176
-1.36092e-07
-0.00113179
-3.56205e-08
-1.22722e-06
2.45933e-07
-2.14231e-07
-8.28025e-07
2.35876e-07
-1.77953e-07
8.92589e-07
-1.22907e-06
0.000270125
-0.000268103
2.36545e-07
2.36426e-07
0.00113242
-1.3711e-07
-0.00113244
-5.4469e-08
-1.18163e-06
2.43577e-07
-2.0565e-07
-8.25624e-07
2.36164e-07
-1.78038e-07
8.89701e-07
1.26081e-06
0.00113142
-1.36591e-07
-0.00113144
-3.72904e-08
-1.22123e-06
2.46103e-07
-2.13873e-07
-8.24889e-07
2.36382e-07
-1.7747e-07
8.90117e-07
-1.31053e-07
-0.00113218
-4.77156e-08
-1.1847e-06
2.40726e-07
-2.03132e-07
-8.23689e-07
2.31828e-07
8.85791e-07
-1.7653e-07
1.25708e-06
0.00113122
-1.33953e-07
-0.00113124
-4.50518e-08
-1.21422e-06
2.42612e-07
-2.06416e-07
-8.23078e-07
2.32496e-07
-1.75804e-07
8.86429e-07
-1.22377e-06
0.000270073
-0.000268062
2.34171e-07
2.39364e-07
-1.32541e-07
-0.00113181
-4.95595e-08
-1.17889e-06
2.40844e-07
-2.02892e-07
-8.23039e-07
2.35242e-07
8.86301e-07
-1.78548e-07
1.22242e-06
0.00113232
-1.33669e-07
-0.00113234
-4.34516e-08
-1.1803e-06
2.39506e-07
-2.04278e-07
-8.23022e-07
2.35572e-07
-1.78306e-07
8.86785e-07
-0.000268075
2.35262e-07
2.41016e-07
1.21819e-06
1.18182e-06
-1.90521e-07
-1.97639e-07
0.000268084
-1.26277e-06
-1.22702e-06
0.000270102
-0.000268089
2.34828e-07
2.41687e-07
-5.5563e-08
0.0011313
-2.07608e-07
1.26397e-06
2.46808e-07
8.86137e-07
-1.76332e-07
-8.23556e-07
2.32238e-07
-1.22733e-06
-1.3064e-07
-3.4657e-08
0.00113174
-2.1367e-07
1.26607e-06
2.46739e-07
8.91338e-07
-1.79436e-07
-8.29141e-07
2.34344e-07
0.00113122
-1.26313e-07
-0.00113125
-4.26755e-08
-1.2191e-06
2.45543e-07
-2.08533e-07
-8.23338e-07
2.33011e-07
-1.75829e-07
8.86498e-07
1.27202e-06
0.00113167
-1.28402e-07
-0.00113169
-6.13545e-08
-1.22163e-06
2.52363e-07
-2.07666e-07
-8.3014e-07
2.3523e-07
-1.79528e-07
8.91169e-07
-1.93003e-07
-1.97732e-07
0.000268104
-1.23131e-06
0.000270133
-0.00026811
2.38504e-07
2.41928e-07
-5.41425e-08
0.00113241
-2.05561e-07
1.22646e-06
2.43742e-07
8.89423e-07
-1.78605e-07
-8.25854e-07
2.3548e-07
-1.22176e-06
-1.31526e-07
-3.41467e-08
0.00113139
-2.13901e-07
1.26043e-06
2.4627e-07
8.89094e-07
-1.78737e-07
-8.25744e-07
2.34926e-07
0.00113233
-1.23348e-07
-0.00113236
-4.84789e-08
-1.18109e-06
2.44149e-07
-2.04769e-07
-8.26627e-07
2.35224e-07
-1.79172e-07
8.88702e-07
1.26516e-06
0.00113131
-1.23782e-07
-0.00113134
-5.44694e-08
-1.21747e-06
2.51339e-07
-2.08815e-07
-8.27941e-07
2.34119e-07
-1.80317e-07
8.87343e-07
-1.25642e-07
-4.42827e-08
0.0011312
-2.06106e-07
1.257e-06
2.42831e-07
8.85207e-07
-1.77305e-07
2.31028e-07
-8.24236e-07
-1.25199e-07
-0.00113208
-6.05044e-08
-1.18223e-06
2.42954e-07
-2.00219e-07
-8.24435e-07
2.33119e-07
8.86e-07
-1.76323e-07
1.2582e-06
0.00113111
-1.23858e-07
-0.00113114
-4.6998e-08
-1.2129e-06
2.43798e-07
-2.04723e-07
-8.24382e-07
2.32483e-07
-1.7655e-07
8.85705e-07
-1.90385e-07
-2.00078e-07
0.000268063
-1.22466e-06
0.000270078
-0.000268066
2.34999e-07
2.43284e-07
-1.26592e-07
-4.24298e-08
0.0011323
-2.04098e-07
1.22226e-06
2.39775e-07
8.8562e-07
-1.79731e-07
2.34106e-07
-8.24069e-07
-1.19768e-07
-0.00113171
-5.35e-08
-1.17783e-06
2.42102e-07
-2.01203e-07
-8.25116e-07
2.34434e-07
8.847e-07
-1.80108e-07
1.22508e-06
0.00113221
-1.21367e-07
-0.00113224
-5.30125e-08
-1.17773e-06
2.42325e-07
-2.01106e-07
-8.24809e-07
2.34856e-07
-1.79717e-07
8.8551e-07
-0.000268079
2.37864e-07
2.42349e-07
1.21942e-06
1.18135e-06
-1.89289e-07
-1.97892e-07
0.000268088
-1.26287e-06
-1.22367e-06
0.000270111
-0.000268094
2.30306e-07
2.39936e-07
-3.94104e-08
0.00113119
-2.09048e-07
1.26231e-06
2.44931e-07
8.86709e-07
-1.75347e-07
-8.22909e-07
2.33131e-07
-1.22042e-06
-1.33247e-07
-6.62927e-08
0.00113165
-2.07258e-07
1.27263e-06
2.52175e-07
8.92686e-07
-1.77898e-07
-8.28623e-07
2.36669e-07
0.00113113
-1.22236e-07
-0.00113114
-5.31963e-08
-1.21883e-06
2.45791e-07
-2.08465e-07
-8.26814e-07
2.28058e-07
-1.79622e-07
8.81811e-07
1.26564e-06
0.00113159
-1.24321e-07
-0.00113161
-3.96129e-08
-1.22618e-06
2.44985e-07
-2.14048e-07
-8.30073e-07
2.32695e-07
-1.80229e-07
8.89666e-07
-1.91063e-07
-1.91794e-07
0.000268113
-1.22494e-06
0.000270143
-0.00026812
2.32408e-07
2.35138e-07
-4.44973e-08
0.0011323
-2.05387e-07
1.2264e-06
2.43203e-07
8.88883e-07
-1.78776e-07
-8.26376e-07
2.35365e-07
-1.21584e-06
-1.27469e-07
-6.23155e-08
0.00113129
-2.07772e-07
1.26636e-06
2.51846e-07
8.88338e-07
-1.79229e-07
-8.27079e-07
2.35146e-07
0.00113223
-1.27054e-07
-0.00113224
-4.31625e-08
-1.18379e-06
2.4089e-07
-2.07912e-07
-8.2867e-07
2.31979e-07
-1.81402e-07
8.85711e-07
1.26216e-06
0.00113125
-1.28693e-07
-0.00113126
-5.11657e-08
-1.21878e-06
2.46918e-07
-2.12055e-07
-8.27405e-07
2.3316e-07
-1.79994e-07
8.86864e-07
-1.29614e-07
-4.73227e-08
0.00113108
-2.05085e-07
1.25807e-06
2.43207e-07
8.86791e-07
-1.75301e-07
2.33379e-07
-8.23107e-07
-1.30998e-07
-0.001132
-3.38521e-08
-1.18762e-06
2.36225e-07
-2.06773e-07
-8.23727e-07
2.30457e-07
8.84785e-07
-1.76826e-07
1.25717e-06
0.00113103
-1.26351e-07
-0.00113104
-5.40379e-08
-1.21342e-06
2.42626e-07
-2.05959e-07
-8.25779e-07
2.28931e-07
-1.78586e-07
8.82831e-07
-1.89224e-07
-1.95244e-07
0.000268069
-1.22127e-06
0.000270093
-0.00026808
2.31123e-07
2.3921e-07
-1.26078e-07
-5.27012e-08
0.00113218
-2.01542e-07
1.2248e-06
2.41452e-07
8.86567e-07
-1.78516e-07
2.35784e-07
-8.23633e-07
-1.362e-07
-0.00113163
-4.57271e-08
-1.18037e-06
2.38103e-07
-2.04896e-07
-8.23591e-07
2.33888e-07
8.84956e-07
-1.79047e-07
1.22087e-06
0.00113213
-1.30577e-07
-0.00113214
-4.39789e-08
-1.18098e-06
2.37921e-07
-2.05305e-07
-8.25188e-07
2.32632e-07
-1.80524e-07
8.83794e-07
-0.000268089
2.32799e-07
2.39768e-07
1.21788e-06
1.1835e-06
-1.9334e-07
-1.99055e-07
0.000268102
-1.26451e-06
-1.22809e-06
0.000270149
-0.000268131
2.34086e-07
2.41055e-07
-6.26076e-08
0.00113113
-2.07276e-07
1.26385e-06
2.46941e-07
8.79998e-07
-1.81488e-07
-8.28884e-07
2.26516e-07
-1.22829e-06
-1.16602e-07
-3.14799e-08
0.00113158
-2.15488e-07
1.26393e-06
2.44054e-07
8.86659e-07
-1.83352e-07
-8.32996e-07
2.29617e-07
0.00113115
-1.3188e-07
-0.00113115
-6.66318e-08
-1.21671e-06
2.47074e-07
-2.06311e-07
-8.27861e-07
2.29862e-07
-1.79251e-07
8.82273e-07
1.26782e-06
0.00113155
-1.20669e-07
-0.00113156
-4.91304e-08
-1.22518e-06
2.48821e-07
-2.1104e-07
-8.36155e-07
2.29353e-07
-1.85037e-07
8.84656e-07
-1.97213e-07
-1.99645e-07
0.000268123
-1.22932e-06
0.000270166
-0.000268141
2.35439e-07
2.36825e-07
-4.98981e-08
0.00113224
-2.07203e-07
1.22423e-06
2.41846e-07
8.84299e-07
-1.8282e-07
-8.30211e-07
2.30748e-07
-1.22077e-06
-1.24262e-07
-4.36234e-08
0.00113124
-2.13687e-07
1.26035e-06
2.4562e-07
8.84756e-07
-1.82217e-07
-8.29426e-07
2.30889e-07
0.00113226
-1.36852e-07
-0.00113225
-6.5951e-08
-1.1797e-06
2.45488e-07
-2.03157e-07
-8.30352e-07
2.32436e-07
-1.82023e-07
8.85106e-07
1.26182e-06
0.00113123
-1.25624e-07
-0.00113123
-4.71472e-08
-1.22002e-06
2.48052e-07
-2.11684e-07
-8.31695e-07
2.30581e-07
-1.8363e-07
8.83363e-07
-1.21247e-07
-5.96694e-08
0.00113103
-2.05192e-07
1.25766e-06
2.43469e-07
8.80496e-07
-1.81073e-07
2.26705e-07
-8.28275e-07
-1.16642e-07
-0.00113195
-5.53668e-08
-1.18394e-06
2.41804e-07
-2.01444e-07
-8.31315e-07
2.26117e-07
8.78479e-07
-1.8292e-07
1.25875e-06
0.00113105
-1.28457e-07
-0.00113104
-6.34755e-08
-1.21167e-06
2.44217e-07
-2.03735e-07
-8.28644e-07
2.29089e-07
-1.80026e-07
8.81444e-07
-1.93279e-07
-2.0062e-07
0.000268085
-1.22354e-06
0.000270119
-0.000268105
2.32843e-07
2.3903e-07
-1.29135e-07
-4.68105e-08
0.00113213
-2.05009e-07
1.22091e-06
2.38515e-07
8.81836e-07
-1.8263e-07
2.30706e-07
-8.27246e-07
-1.20777e-07
-0.00113161
-5.3305e-08
-1.17852e-06
2.41232e-07
-2.019e-07
-8.29731e-07
2.29717e-07
8.79708e-07
-1.84561e-07
1.22494e-06
0.00113215
-1.33582e-07
-0.00113215
-6.28347e-08
-1.1775e-06
2.42474e-07
-2.00772e-07
-8.28346e-07
2.31779e-07
-1.82689e-07
8.81836e-07
-0.000268124
2.36271e-07
2.40881e-07
1.21766e-06
1.17906e-06
-1.88687e-07
-1.97849e-07
0.000268139
-1.2589e-06
-1.22488e-06
0.000270153
-0.000268142
2.33138e-07
2.38927e-07
-5.66716e-08
0.00113115
-2.07741e-07
1.26324e-06
2.45367e-07
8.85256e-07
-1.76464e-07
-8.25021e-07
2.32581e-07
-1.22272e-06
-1.29796e-07
-6.1035e-08
0.00113155
-2.0889e-07
1.27014e-06
2.50614e-07
8.87295e-07
-1.82555e-07
-8.34035e-07
2.321e-07
0.00113108
-1.40774e-07
-0.00113111
-2.55791e-08
-1.22192e-06
2.41486e-07
-2.12225e-07
-8.20029e-07
2.34597e-07
-1.73128e-07
8.88921e-07
1.27091e-06
0.00113154
-1.48175e-07
-0.00113155
-6.85316e-08
-1.22087e-06
2.50141e-07
-2.08774e-07
-8.25619e-07
2.38485e-07
-1.75433e-07
8.95138e-07
-1.92287e-07
-1.95214e-07
0.000268149
-1.23014e-06
0.00027019
-0.000268167
2.3751e-07
2.40587e-07
-6.32512e-08
0.00113226
-2.03076e-07
1.22839e-06
2.45183e-07
8.87204e-07
-1.80119e-07
-8.2848e-07
2.34347e-07
-1.21831e-06
-1.31064e-07
-5.37356e-08
0.00113122
-2.10128e-07
1.26342e-06
2.49336e-07
8.85395e-07
-1.81671e-07
-8.30012e-07
2.32719e-07
0.00113219
-1.29572e-07
-0.00113222
-4.05621e-08
-1.18181e-06
2.41435e-07
-2.0672e-07
-8.24457e-07
2.36069e-07
-1.77434e-07
8.9023e-07
1.26411e-06
0.00113118
-1.3952e-07
-0.0011312
-5.81779e-08
-1.21673e-06
2.4909e-07
-2.09885e-07
-8.2395e-07
2.37082e-07
-1.76603e-07
8.90869e-07
-1.36422e-07
-5.60835e-08
0.00113104
-2.04727e-07
1.25792e-06
2.42887e-07
8.84474e-07
-1.77129e-07
2.31995e-07
-8.25871e-07
-1.50643e-07
-0.00113194
-6.41403e-08
-1.18199e-06
2.40992e-07
-2.01502e-07
-8.19588e-07
2.36289e-07
8.90095e-07
-1.7214e-07
1.25397e-06
0.00113098
-1.42783e-07
-0.001131
-2.93465e-08
-1.21586e-06
2.39159e-07
-2.08945e-07
-8.19865e-07
2.34915e-07
-1.72868e-07
8.89203e-07
-1.90069e-07
-1.98359e-07
0.000268111
-1.22309e-06
0.000270134
-0.000268123
2.33805e-07
2.42249e-07
-1.36565e-07
-6.27517e-08
0.00113215
-2.00314e-07
1.2256e-06
2.42518e-07
8.8408e-07
-1.80569e-07
2.33954e-07
-8.2636e-07
-1.42444e-07
-0.00113157
-5.34429e-08
-1.17802e-06
2.39767e-07
-2.02816e-07
-8.20514e-07
2.37702e-07
8.88726e-07
-1.75915e-07
1.22268e-06
0.00113209
-1.32034e-07
-0.00113211
-4.42708e-08
-1.17855e-06
2.39187e-07
-2.03469e-07
-8.21508e-07
2.36437e-07
-1.7707e-07
8.87907e-07
-0.000268135
2.36028e-07
2.39307e-07
1.22187e-06
1.18285e-06
-1.9053e-07
-1.99649e-07
0.000268139
-1.26417e-06
-1.22448e-06
0.00027015
-0.000268136
2.31964e-07
2.42171e-07
-2.58583e-08
0.00113105
-2.11637e-07
1.25914e-06
2.42261e-07
8.87708e-07
-1.74521e-07
-8.21023e-07
2.3299e-07
-1.22214e-06
-1.45094e-07
-6.10868e-08
0.00113153
-2.09892e-07
1.26963e-06
2.49019e-07
8.95504e-07
-1.75171e-07
-8.24995e-07
2.38398e-07
0.00113095
-1.11307e-07
-0.00113098
-5.62852e-08
-1.21728e-06
2.48082e-07
-2.05838e-07
-8.26497e-07
2.28583e-07
-1.79327e-07
8.82237e-07
1.26593e-06
0.00113144
-1.17822e-07
-0.00113147
-3.61676e-08
-1.22606e-06
2.4656e-07
-2.1261e-07
-8.28948e-07
2.33747e-07
-1.79241e-07
8.90655e-07
-1.91569e-07
-1.93198e-07
0.00026817
-1.22647e-06
0.000270187
-0.000268167
2.34927e-07
2.36868e-07
-3.68252e-08
0.00113215
-2.07371e-07
1.22385e-06
2.40834e-07
8.89658e-07
-1.7818e-07
-8.24901e-07
2.35149e-07
-1.21752e-06
-1.36206e-07
-5.39879e-08
0.00113116
-2.10516e-07
1.26331e-06
2.48475e-07
8.90961e-07
-1.76611e-07
-8.23683e-07
2.36811e-07
0.00113205
-1.14955e-07
-0.00113208
-4.69846e-08
-1.18277e-06
2.42732e-07
-2.05825e-07
-8.27967e-07
2.32815e-07
-1.80727e-07
8.86453e-07
1.26158e-06
0.00113108
-1.18531e-07
-0.00113111
-4.40375e-08
-1.21948e-06
2.47734e-07
-2.11425e-07
-8.2674e-07
2.33579e-07
-1.79598e-07
8.87371e-07
-1.36247e-07
-2.91735e-08
0.00113095
-2.08468e-07
1.25412e-06
2.39854e-07
8.88209e-07
-1.74044e-07
2.33501e-07
-8.20616e-07
-1.1886e-07
-0.00113186
-3.68591e-08
-1.186e-06
2.38814e-07
-2.04018e-07
-8.23394e-07
2.31002e-07
8.85096e-07
-1.76487e-07
1.25847e-06
0.00113085
-1.12631e-07
-0.00113088
-5.53252e-08
-1.21201e-06
2.45073e-07
-2.03229e-07
-8.25955e-07
2.2902e-07
-1.78833e-07
8.82783e-07
-1.89939e-07
-1.96416e-07
0.000268124
-1.22224e-06
0.000270134
-0.000268123
2.33163e-07
2.40074e-07
-1.26148e-07
-3.99952e-08
0.00113205
-2.0413e-07
1.22166e-06
2.3859e-07
8.87382e-07
-1.77742e-07
2.35559e-07
-8.21891e-07
-1.19894e-07
-0.00113148
-4.53748e-08
-1.1793e-06
2.40192e-07
-2.02684e-07
-8.23739e-07
2.33471e-07
8.84659e-07
-1.79603e-07
1.22162e-06
0.00113195
-1.15518e-07
-0.00113198
-4.59105e-08
-1.18011e-06
2.39774e-07
-2.03201e-07
-8.25004e-07
2.33096e-07
-1.80385e-07
8.84141e-07
-0.00026813
2.34508e-07
2.4213e-07
1.21545e-06
1.18158e-06
-1.90777e-07
-1.96015e-07
0.00026814
-1.26418e-06
-1.22687e-06
0.000270186
-0.000268168
2.3248e-07
2.4011e-07
-6.74851e-08
0.00113094
-2.04363e-07
1.26579e-06
2.49221e-07
8.81629e-07
-1.79681e-07
-8.27471e-07
2.28431e-07
-1.22622e-06
-1.13106e-07
-3.44715e-08
0.0011314
-2.12546e-07
1.26598e-06
2.46709e-07
8.8844e-07
-1.81264e-07
-8.3137e-07
2.31909e-07
0.00113094
-1.37858e-07
-0.00113093
-6.78079e-08
-1.21593e-06
2.46295e-07
-2.06444e-07
-8.26417e-07
2.29888e-07
-1.78161e-07
8.82695e-07
1.26776e-06
0.00113136
-1.30232e-07
-0.00113136
-5.00449e-08
-1.22392e-06
2.47906e-07
-2.10955e-07
-8.33719e-07
2.30546e-07
-1.82908e-07
8.86296e-07
-1.93818e-07
-1.96609e-07
0.000268166
-1.22892e-06
0.000270207
-0.000268181
2.34551e-07
2.36224e-07
-5.41104e-08
0.00113204
-2.04748e-07
1.22568e-06
2.43688e-07
8.86146e-07
-1.80772e-07
-8.28533e-07
2.32823e-07
-1.21927e-06
-1.18563e-07
-4.48325e-08
0.00113105
-2.11189e-07
1.26188e-06
2.47933e-07
8.8615e-07
-1.80639e-07
-8.28185e-07
2.32668e-07
0.00113205
-1.44877e-07
-0.00113204
-6.28792e-08
-1.17976e-06
2.43766e-07
-2.04188e-07
-8.28725e-07
2.32714e-07
-1.80722e-07
8.85766e-07
1.26194e-06
0.00113103
-1.35309e-07
-0.00113103
-5.08327e-08
-1.21854e-06
2.47342e-07
-2.11349e-07
-8.29692e-07
2.31405e-07
-1.81842e-07
8.84511e-07
-1.1336e-07
-6.45711e-08
0.00113084
-2.02027e-07
1.25985e-06
2.45948e-07
8.8195e-07
-1.79427e-07
2.28639e-07
-8.27149e-07
-1.26762e-07
-0.00113175
-5.56135e-08
-1.18313e-06
2.40627e-07
-2.01765e-07
-8.2865e-07
2.2745e-07
8.80281e-07
-1.80564e-07
1.25795e-06
0.00113083
-1.34219e-07
-0.00113082
-6.26956e-08
-1.21122e-06
2.42855e-07
-2.04358e-07
-8.26935e-07
2.2915e-07
-1.78769e-07
8.8204e-07
-1.90222e-07
-1.98288e-07
0.000268124
-1.2232e-06
0.000270158
-0.000268144
2.31791e-07
2.38443e-07
-1.21079e-07
-5.1267e-08
0.00113193
-2.02457e-07
1.22252e-06
2.4043e-07
8.83678e-07
-1.80606e-07
2.32944e-07
-8.25692e-07
-1.31158e-07
-0.0011314
-5.63406e-08
-1.1776e-06
2.40141e-07
-2.02087e-07
-8.27442e-07
2.30824e-07
8.81136e-07
-1.82412e-07
1.22336e-06
0.00113194
-1.41153e-07
-0.00113193
-5.80157e-08
-1.17778e-06
2.40319e-07
-2.02156e-07
-8.26558e-07
2.32017e-07
-1.81271e-07
8.82514e-07
-0.000268159
2.34366e-07
2.39522e-07
1.21751e-06
1.17986e-06
-1.90409e-07
-1.98876e-07
0.000268178
-1.25969e-06
-1.22463e-06
0.000270221
-0.000268205
2.30859e-07
2.3731e-07
-6.10512e-08
0.00113095
-2.08056e-07
1.26266e-06
2.44732e-07
8.83367e-07
-1.77661e-07
-8.25994e-07
2.30359e-07
-1.22329e-06
-1.36985e-07
-5.79839e-08
0.00113137
-2.10332e-07
1.26846e-06
2.48521e-07
8.86738e-07
-1.82564e-07
-8.3369e-07
2.3102e-07
0.00113098
-1.43409e-07
-0.00113097
-4.13472e-08
-1.22081e-06
2.42121e-07
-2.11248e-07
-8.24925e-07
2.3031e-07
-1.77622e-07
8.84282e-07
1.26871e-06
0.00113142
-1.44131e-07
-0.00113141
-6.3408e-08
-1.22279e-06
2.48091e-07
-2.10611e-07
-8.31044e-07
2.33053e-07
-1.80737e-07
8.89639e-07
-1.93626e-07
-1.96475e-07
0.000268191
-1.22769e-06
0.000270251
-0.000268225
2.33627e-07
2.36946e-07
-6.28555e-08
0.00113207
-2.04379e-07
1.22682e-06
2.43556e-07
8.85634e-07
-1.80985e-07
-8.29139e-07
2.3249e-07
-1.21864e-06
-1.38575e-07
-5.40501e-08
0.00113104
-2.1133e-07
1.26198e-06
2.4747e-07
8.84317e-07
-1.82078e-07
-8.30192e-07
2.31231e-07
0.00113209
-1.37149e-07
-0.00113209
-4.9426e-08
-1.18172e-06
2.41132e-07
-2.06687e-07
-8.28842e-07
2.32258e-07
-1.81453e-07
8.86132e-07
1.26312e-06
0.00113107
-1.3987e-07
-0.00113106
-6.06429e-08
-1.21761e-06
2.48327e-07
-2.10559e-07
-8.29226e-07
2.32098e-07
-1.81653e-07
8.85704e-07
-1.39356e-07
-5.76364e-08
0.00113084
-2.05671e-07
1.25669e-06
2.4166e-07
8.82367e-07
-1.78527e-07
2.29402e-07
-8.26891e-07
-1.46191e-07
-0.00113179
-5.81769e-08
-1.18397e-06
2.38599e-07
-2.03499e-07
-8.25011e-07
2.30957e-07
8.84674e-07
-1.77436e-07
1.25525e-06
0.00113087
-1.4429e-07
-0.00113086
-4.74311e-08
-1.2144e-06
2.40365e-07
-2.07432e-07
-8.2531e-07
2.30288e-07
-1.77802e-07
8.84085e-07
-1.91549e-07
-1.99598e-07
0.000268153
-1.22195e-06
0.000270198
-0.000268184
2.30944e-07
2.39481e-07
-1.42024e-07
-5.94385e-08
0.00113195
-2.02125e-07
1.22347e-06
2.40389e-07
8.82139e-07
-1.8175e-07
2.31616e-07
-8.27237e-07
-1.4209e-07
-0.00113143
-5.47932e-08
-1.17888e-06
2.38734e-07
-2.03568e-07
-8.25882e-07
2.32713e-07
8.83525e-07
-1.81052e-07
1.2227e-06
0.00113198
-1.39014e-07
-0.00113197
-5.51641e-08
-1.17827e-06
2.39226e-07
-2.0311e-07
-8.26291e-07
2.32442e-07
-1.81404e-07
8.83538e-07
-0.000268197
2.33894e-07
2.38032e-07
1.22099e-06
1.18298e-06
-1.92307e-07
-2.00821e-07
0.00026821
-1.26061e-06
-1.22184e-06
0.000270232
-0.000268218
2.29474e-07
2.38722e-07
-4.05808e-08
0.00113097
-2.11048e-07
1.2597e-06
2.42499e-07
8.83558e-07
-1.78307e-07
-8.25564e-07
2.29584e-07
-1.22373e-06
-1.38621e-07
-5.8263e-08
0.00113142
-2.11478e-07
1.26771e-06
2.47217e-07
8.89745e-07
-1.80618e-07
-8.30836e-07
2.33081e-07
0.00113094
-1.07397e-07
-0.00113095
-4.75733e-08
-1.22022e-06
2.43985e-07
-2.09441e-07
-8.29074e-07
2.26604e-07
-1.81437e-07
8.80281e-07
1.2637e-06
0.00113139
-1.07956e-07
-0.00113141
-3.63669e-08
-1.22792e-06
2.44141e-07
-2.1477e-07
-8.33728e-07
2.29817e-07
-1.83528e-07
8.86618e-07
-1.94996e-07
-1.96158e-07
0.000268233
-1.22392e-06
0.000270262
-0.000268241
2.3196e-07
2.34022e-07
-4.40648e-08
0.00113208
-2.07688e-07
1.22338e-06
2.40209e-07
8.86084e-07
-1.81491e-07
-8.28855e-07
2.32237e-07
-1.21775e-06
-1.36276e-07
-6.00022e-08
0.00113108
-2.10686e-07
1.26289e-06
2.48108e-07
8.86163e-07
-1.81222e-07
-8.28799e-07
2.32548e-07
0.00113204
-1.12699e-07
-0.00113206
-4.04248e-08
-1.1851e-06
2.39798e-07
-2.08586e-07
-8.30641e-07
2.30465e-07
-1.83062e-07
8.84265e-07
1.25919e-06
0.00113105
-1.12778e-07
-0.00113107
-4.16691e-08
-1.2213e-06
2.44758e-07
-2.13891e-07
-8.29825e-07
2.31079e-07
-1.82288e-07
8.8495e-07
-1.39607e-07
-4.76772e-08
0.00113087
-2.07243e-07
1.2553e-06
2.40639e-07
8.83984e-07
-1.7792e-07
2.30129e-07
-8.25349e-07
-1.11356e-07
-0.00113179
-3.49568e-08
-1.18834e-06
2.36207e-07
-2.06555e-07
-8.27931e-07
2.27093e-07
8.81209e-07
-1.80652e-07
1.25467e-06
0.00113084
-1.10525e-07
-0.00113086
-4.63303e-08
-1.21508e-06
2.40557e-07
-2.07194e-07
-8.28168e-07
2.27236e-07
-1.80667e-07
8.81151e-07
-1.92192e-07
-1.98335e-07
0.000268191
-1.21938e-06
0.000270213
-0.000268202
2.30154e-07
2.3739e-07
-1.35985e-07
-5.08954e-08
0.00113198
-2.04034e-07
1.22159e-06
2.38309e-07
8.84028e-07
-1.80899e-07
2.32902e-07
-8.25766e-07
-1.16854e-07
-0.00113144
-4.09835e-08
-1.18174e-06
2.36921e-07
-2.05636e-07
-8.26596e-07
2.31172e-07
8.82457e-07
-1.82012e-07
1.21892e-06
0.00113194
-1.14906e-07
-0.00113196
-3.94093e-08
-1.18243e-06
2.36657e-07
-2.06114e-07
-8.27409e-07
2.30788e-07
-1.82557e-07
8.8209e-07
-0.000268213
2.31883e-07
2.3834e-07
1.22011e-06
1.18441e-06
-1.92937e-07
-1.99577e-07
0.00026822
-1.26103e-06
-1.22683e-06
0.000270247
-0.000268231
2.33281e-07
2.38882e-07
-4.93386e-08
0.00113092
-2.09277e-07
1.26065e-06
2.44097e-07
8.80145e-07
-1.81604e-07
-8.29369e-07
2.26586e-07
-1.22829e-06
-1.03402e-07
-3.56021e-08
0.00113136
-2.14673e-07
1.26368e-06
2.44594e-07
8.85748e-07
-1.84415e-07
-8.34657e-07
2.29066e-07
0.00113087
-1.25789e-07
-0.00113089
-4.63112e-08
-1.21977e-06
2.43693e-07
-2.09558e-07
-8.2595e-07
2.30373e-07
-1.78143e-07
8.84029e-07
1.26869e-06
0.00113132
-1.24133e-07
-0.00113133
-5.52031e-08
-1.22368e-06
2.48881e-07
-2.10318e-07
-8.32676e-07
2.32207e-07
-1.81981e-07
8.88471e-07
-1.96023e-07
-1.98949e-07
0.000268241
-1.22981e-06
0.000270276
-0.000268251