/*--------------------------------*- C++ -*----------------------------------*\
| =========                 |                                                 |
| \\      /  F ield         | OpenFOAM: The Open Source CFD Toolbox           |
|  \\    /   O peration     | Version:  v1906                                 |
|   \\  /    A nd           | Web:      www.OpenFOAM.com                      |
|    \\/     M anipulation  |                                                 |
\*---------------------------------------------------------------------------*/
FoamFile
{
    version     2.0;
    format      ascii;
    class       surfaceScalarField;
    location    "1000";
    object      phi;
}
// * * * * * * * * * * * * * * * * * * * * * * * * * * * * * * * * * * * * * //

dimensions      [0 3 -1 0 0 0 0];
oriented        oriented;


internalField   nonuniform List<scalar> 
124860
(
-8.43982e-07
-8.44406e-07
-0.00114621
4.4627e-07
4.4701e-07
0.001147
-0.00113705
-1.51036e-06
8.45063e-07
4.15177e-07
0.00113755
-4.96829e-07
1.12611e-06
1.26923e-07
7.23922e-07
-5.35315e-07
-1.23883e-06
5.29792e-08
-0.00113669
-1.50488e-06
8.44309e-07
4.14809e-07
0.00113719
-4.93458e-07
1.12024e-06
1.24029e-07
7.23652e-07
-5.37898e-07
-1.23855e-06
5.6008e-08
-0.000276417
1.53953e-06
1.50488e-06
-4.91598e-07
-4.97241e-07
0.000274362
-8.25434e-07
-8.24763e-07
-0.00114935
4.37965e-07
4.3948e-07
0.00115013
-0.00113895
-1.50281e-06
8.23841e-07
4.07135e-07
0.00113939
-4.84257e-07
1.1318e-06
1.32174e-07
7.30291e-07
-5.18809e-07
-1.22139e-06
5.91005e-08
-0.00113859
-1.49703e-06
8.23872e-07
4.06928e-07
0.00113903
-4.81199e-07
1.12577e-06
1.27865e-07
7.30115e-07
-5.21451e-07
-1.22156e-06
6.2385e-08
-0.000276499
1.53199e-06
1.49734e-06
-4.78912e-07
-4.84514e-07
0.000274433
-8.0394e-07
-8.02018e-07
-0.0011524
4.28613e-07
4.30707e-07
0.00115315
-0.00114065
-1.49382e-06
8.00819e-07
3.98679e-07
0.00114104
-4.70788e-07
1.13728e-06
1.37604e-07
7.36833e-07
-5.02539e-07
-1.20311e-06
6.53299e-08
-0.00114028
-1.48715e-06
8.01115e-07
3.97327e-07
0.00114068
-4.66987e-07
1.1319e-06
1.33929e-07
7.36314e-07
-5.05358e-07
-1.20402e-06
6.87262e-08
-0.000276512
1.52323e-06
1.48846e-06
-4.65355e-07
-4.71099e-07
0.000274437
-7.78558e-07
-7.79352e-07
-0.00115536
4.17997e-07
4.17652e-07
0.00115608
-0.00114214
-1.48363e-06
7.78472e-07
3.92651e-07
0.00114249
-4.58231e-07
1.14189e-06
1.41001e-07
7.43285e-07
-4.86198e-07
-1.18531e-06
7.24396e-08
-0.00114178
-1.47893e-06
7.80137e-07
3.96353e-07
0.00114212
-4.56058e-07
1.13508e-06
1.37209e-07
7.42907e-07
-4.89026e-07
-1.18545e-06
7.50413e-08
-0.000276467
1.51179e-06
1.47712e-06
-4.50613e-07
-4.56105e-07
0.000274385
-7.60471e-07
-7.59741e-07
-0.00115821
4.09678e-07
4.12e-07
0.0011589
-0.00114345
-1.47362e-06
7.62404e-07
3.88205e-07
0.00114374
-4.46389e-07
1.14571e-06
1.44953e-07
7.48903e-07
-4.71453e-07
-1.16777e-06
7.77349e-08
-0.00114309
-1.46549e-06
7.58074e-07
3.8025e-07
0.00114338
-4.40621e-07
1.14241e-06
1.44593e-07
7.48866e-07
-4.73485e-07
-1.16712e-06
8.11025e-08
-0.000276366
1.50378e-06
1.46932e-06
-4.3913e-07
-4.44448e-07
0.000274276
-7.34373e-07
-7.34919e-07
-0.00116096
4.00058e-07
3.98981e-07
0.00116163
-0.00114455
-1.45797e-06
7.26844e-07
3.66371e-07
0.0011448
-4.29893e-07
1.15447e-06
1.53517e-07
7.56472e-07
-4.54805e-07
-1.14911e-06
8.65221e-08
-0.00114419
-1.45656e-06
7.33645e-07
3.78532e-07
0.00114443
-4.31056e-07
1.14505e-06
1.47778e-07
7.56846e-07
-4.57561e-07
-1.14808e-06
8.84365e-08
-0.000276212
1.4888e-06
1.45366e-06
-4.2199e-07
-4.27759e-07
0.000274119
-7.01021e-07
-7.10672e-07
-0.0011636
3.85645e-07
3.82114e-07
0.00116424
-0.00114546
-1.45215e-06
7.21007e-07
3.76503e-07
0.00114566
-4.26099e-07
1.15201e-06
1.49737e-07
7.61314e-07
-4.41388e-07
-1.13219e-06
9.07865e-08
-0.00114509
-1.44354e-06
7.15368e-07
3.70401e-07
0.00114529
-4.20313e-07
1.14855e-06
1.48483e-07
7.61088e-07
-4.43575e-07
-1.1322e-06
9.42278e-08
-0.000276032
1.47949e-06
1.4449e-06
-4.11213e-07
-4.16602e-07
0.000273935
-6.99595e-07
-6.96583e-07
-0.00116615
3.87387e-07
3.89599e-07
0.00116677
-0.00114618
-1.43401e-06
6.89295e-07
3.5559e-07
0.00114634
-4.07769e-07
1.16165e-06
1.59495e-07
7.67176e-07
-4.27233e-07
-1.11566e-06
9.7854e-08
-0.00114582
-1.43047e-06
6.9084e-07
3.58439e-07
0.00114597
-4.0629e-07
1.15448e-06
1.5603e-07
7.67219e-07
-4.29988e-07
-1.11493e-06
1.00045e-07
-0.000275812
1.46315e-06
1.42761e-06
-3.93717e-07
-4.00107e-07
0.000273715
-6.79412e-07
-6.62967e-07
-0.00116857
3.69384e-07
3.85139e-07
0.00116915
-0.00114675
-1.42299e-06
6.72674e-07
3.48468e-07
0.00114686
-3.98341e-07
1.16442e-06
1.62422e-07
7.72445e-07
-4.14345e-07
-1.09988e-06
1.03248e-07
-0.00114638
-1.41365e-06
6.57405e-07
3.27491e-07
0.0011465
-3.90942e-07
1.16352e-06
1.65e-07
7.74037e-07
-4.16016e-07
-1.09809e-06
1.07235e-07
-0.000275578
1.45234e-06
1.42e-06
-3.85807e-07
-3.89022e-07
0.000273481
-6.1735e-07
-6.47791e-07
-0.00117086
3.65425e-07
3.44132e-07
0.00117142
-0.00114716
-1.40608e-06
6.30903e-07
3.20882e-07
0.00114723
-3.83098e-07
1.17334e-06
1.70901e-07
7.83019e-07
-3.96679e-07
-1.07906e-06
1.14329e-07
-0.0011468
-1.40677e-06
6.45204e-07
3.44019e-07
0.00114687
-3.87541e-07
1.16005e-06
1.60054e-07
7.8023e-07
-4.01301e-07
-1.08178e-06
1.14774e-07
-0.00027532
1.43897e-06
1.40268e-06
-3.69009e-07
-3.76151e-07
0.000273223
-6.24287e-07
-6.0371e-07
-0.00117306
3.4852e-07
3.56907e-07
0.00117358
-0.00114738
-1.39844e-06
6.17189e-07
3.2059e-07
0.00114742
-3.76338e-07
1.17372e-06
1.73204e-07
7.85735e-07
-3.87464e-07
-1.06718e-06
1.17503e-07
-0.00114702
-1.38831e-06
6.28141e-07
3.21847e-07
0.00114704
-3.6939e-07
1.17154e-06
1.72651e-07
7.84015e-07
-3.90364e-07
-1.06741e-06
1.19092e-07
-0.000275074
1.42448e-06
1.38849e-06
-3.55952e-07
-3.62544e-07
0.000272979
-6.12236e-07
-6.15344e-07
-0.00117511
3.64274e-07
3.62354e-07
0.00117561
-0.00114746
-1.3844e-06
5.99739e-07
3.10083e-07
0.00114747
-3.66588e-07
1.17674e-06
1.7441e-07
7.90572e-07
-3.75424e-07
-1.05287e-06
1.22825e-07
-0.00114707
-1.38001e-06
5.90549e-07
3.0103e-07
0.00114708
-3.63039e-07
1.17286e-06
1.75321e-07
7.93855e-07
-3.75471e-07
-1.04884e-06
1.28458e-07
-0.000274791
1.41285e-06
1.37867e-06
-3.45485e-07
-3.50013e-07
0.000272695
-5.51493e-07
-5.80898e-07
-0.00117704
3.46026e-07
3.27286e-07
0.0011775
-0.00114749
-1.36151e-06
5.47395e-07
2.46134e-07
0.00114747
-3.44063e-07
1.19347e-06
1.91541e-07
8.01874e-07
-3.57677e-07
-1.03173e-06
1.34899e-07
-0.00114703
-1.37171e-06
5.92949e-07
3.01384e-07
0.00114702
-3.58361e-07
1.17024e-06
1.72478e-07
7.92394e-07
-3.68955e-07
-1.04053e-06
1.26868e-07
-0.000274507
1.41088e-06
1.37183e-06
-3.38991e-07
-3.47827e-07
0.000272411
-5.47127e-07
-4.86618e-07
-0.00117887
2.63323e-07
3.26927e-07
0.00117931
-0.00114724
-1.37367e-06
6.19234e-07
3.46639e-07
0.00114713
-3.60549e-07
1.17151e-06
1.70523e-07
7.97621e-07
-3.57151e-07
-1.02908e-06
1.29681e-07
-0.00114688
-1.33115e-06
5.17373e-07
1.8506e-07
0.00114684
-3.15365e-07
1.20468e-06
2.09903e-07
8.02408e-07
-3.51412e-07
-1.02444e-06
1.43509e-07
-0.000274223
1.36431e-06
1.34785e-06
-3.21646e-07
-3.11974e-07
0.000272145
-5.81186e-07
-5.31507e-07
-0.0011806
3.33544e-07
3.92403e-07
0.00118098
-0.00114682
-1.34826e-06
5.55652e-07
2.96443e-07
0.0011467
-3.34446e-07
1.18945e-06
1.92235e-07
8.00855e-07
-3.47631e-07
-1.01619e-06
1.3307e-07
-0.00114682
-1.34197e-06
4.96015e-07
2.40476e-07
0.00114674
-3.30952e-07
1.1876e-06
1.92675e-07
8.17521e-07
-3.36949e-07
-1.00094e-06
1.498e-07
-0.000274006
1.40151e-06
1.36843e-06
-3.3342e-07
-3.40488e-07
0.00027191
-3.91427e-07
-5.56873e-07
-0.001182
3.87635e-07
1.80237e-07
0.00118238
-0.00114679
-1.31708e-06
3.43739e-07
7.8351e-08
0.00114685
-3.10264e-07
1.21e-06
2.05875e-07
8.35314e-07
-3.00034e-07
-9.80253e-07
1.79324e-07
-0.00114639
-1.35437e-06
5.60371e-07
4.2386e-07
0.00114609
-3.60008e-07
1.15334e-06
1.40673e-07
8.39992e-07
-3.06528e-07
-9.73858e-07
1.77593e-07
-0.000273637
1.37309e-06
1.29701e-06
-2.80021e-07
-3.17542e-07
0.000271565
-3.22275e-07
-5.83288e-07
-0.00118361
4.44932e-07
1.08752e-07
0.00118396
-0.00114656
-1.29014e-06
4.18624e-07
8.72554e-08
0.0011465
-2.55933e-07
1.25421e-06
2.80487e-07
7.96852e-07
-3.5469e-07
-1.00802e-06
1.25785e-07
-0.00114484
-1.41361e-06
7.90231e-07
7.58783e-07
0.00114442
-4.11995e-07
1.09561e-06
1.00734e-07
7.77815e-07
-3.67708e-07
-1.01824e-06
1.03134e-07
-0.000273593
1.34595e-06
1.24795e-06
-2.51875e-07
-2.99953e-07
0.000271551
-7.06303e-07
-5.09175e-07
-0.00118472
4.51174e-07
6.09328e-07
0.00118487
-0.00114632
-1.36779e-06
2.23218e-07
5.84344e-07
0.00114596
-4.35123e-07
1.09467e-06
1.79135e-08
9.53295e-07
-1.6159e-07
-8.62661e-07
3.09132e-07
-0.00114368
-1.27933e-06
2.1024e-07
-9.01672e-08
0.00114406
-2.68705e-07
1.2238e-06
2.40373e-07
7.84783e-07
-3.30866e-07
-1.01227e-06
1.43837e-07
-0.000273602
1.24677e-06
1.31009e-06
-2.74837e-07
-1.95861e-07
0.000271516
-1.07821e-06
8.9139e-08
-0.00118572
-5.19659e-07
1.02375e-06
0.0011862
-0.00114362
-1.46128e-06
1.63705e-06
9.57192e-07
0.00114278
-3.88877e-07
1.07428e-06
1.56681e-07
6.15461e-07
-5.24941e-07
-1.13832e-06
-8.47189e-08
-0.00114657
-1.02963e-06
5.34319e-08
-1.4431e-06
0.00114749
3.09962e-08
1.50158e-06
5.59788e-07
7.4539e-07
-3.77549e-07
-1.03772e-06
8.39758e-08
-0.000272736
1.45506e-06
1.68497e-06
-5.56065e-07
-3.64631e-07
0.000270516
-3.45631e-07
-3.33193e-07
-0.00118741
7.63614e-08
5.31776e-07
0.00118748
-0.00114231
-1.03657e-06
7.90747e-08
-1.0129e-06
0.00114287
-5.56469e-08
1.44012e-06
4.0726e-07
7.72495e-07
-2.99429e-07
-1.03756e-06
1.88208e-07
-0.00115069
-1.04682e-06
-7.91098e-07
-1.09953e-06
0.00115117
-1.17675e-07
1.43016e-06
3.14522e-07
1.09975e-06
-2.52249e-08
-7.59894e-07
5.12828e-07
-0.000271917
1.18109e-06
1.10241e-06
-1.3231e-07
-2.03657e-07
0.000269969
1.71774e-06
-3.88829e-07
-0.00118766
7.19887e-07
-2.39041e-06
0.001188
-0.00114563
-1.20529e-06
-9.30237e-07
-7.48847e-07
0.00114666
-1.82885e-07
1.33688e-06
3.52701e-07
9.91791e-07
-1.56342e-07
-8.03877e-07
3.19607e-07
-0.00114422
-2.05977e-06
2.46415e-06
5.12329e-06
0.00113996
-1.05648e-06
4.12966e-07
-5.09435e-07
8.90056e-07
-2.8426e-07
-7.86378e-07
7.51275e-08
-0.000273029
1.45818e-06
7.89055e-07
6.36665e-08
-4.01497e-07
0.00027112
-4.91771e-07
-1.30492e-06
-0.00118978
1.55467e-06
-1.77748e-07
0.0011902
-0.00114787
-1.4367e-06
2.15754e-07
9.8305e-07
0.00114695
-5.08861e-07
1.0094e-06
-5.44914e-08
1.07824e-06
-4.94685e-08
-6.98454e-07
3.73581e-07
-0.00113196
-1.20728e-06
1.48803e-06
-4.62949e-08
0.00113174
-1.04741e-07
1.27386e-06
4.17249e-07
4.64244e-07
-6.25292e-07
-1.28534e-06
-1.63711e-07
-0.000273021
1.48616e-06
1.41791e-06
-3.4095e-07
-3.24917e-07
0.000270783
-2.55607e-06
2.00766e-07
-0.00118914
-2.74462e-07
3.51913e-06
0.00118825
-0.00114192
-1.51277e-06
1.78056e-06
1.88009e-06
0.00114027
-4.35994e-07
9.85321e-07
7.6482e-08
5.99583e-07
-5.09765e-07
-1.13762e-06
-7.99876e-08
-0.00113798
-5.88618e-07
-2.34903e-06
-4.18885e-06
0.00114172
3.13597e-07
1.85474e-06
7.50384e-07
9.64814e-07
-6.95838e-08
-8.51165e-07
4.29697e-07
-0.00027197
8.51947e-07
1.63573e-06
-5.31203e-07
6.14818e-08
0.000269952
-1.05793e-06
-1.09417e-06
-0.00118602
6.52144e-07
1.75074e-06
0.00118577
-0.00113894
-9.23368e-07
-7.75658e-07
-1.69958e-06
0.00114029
6.55179e-08
1.55899e-06
5.34691e-07
8.35448e-07
-2.29525e-07
-9.6002e-07
2.45592e-07
-0.00115115
-1.70653e-06
-7.82792e-07
1.43981e-06
0.00115169
-7.69844e-07
7.55934e-07
-2.402e-07
1.10278e-06
-4.10337e-08
-6.70717e-07
3.71871e-07
-0.00027232
1.4179e-06
1.10337e-06
-1.16719e-07
-3.94292e-07
0.00027031
2.65322e-06
1.02145e-06
-0.00118759
-1.50542e-06
-3.84456e-06
0.00118926
-0.00114463
-1.25791e-06
5.27066e-07
-1.29946e-07
0.00114415
-3.46751e-07
1.18628e-06
1.13663e-07
1.008e-06
-1.44189e-07
-7.61528e-07
2.80049e-07
-0.00114466
-1.21282e-06
2.78935e-06
1.15004e-06
0.00114167
-1.31074e-07
1.32197e-06
3.95624e-07
5.55262e-07
-5.71531e-07
-1.18568e-06
-1.20014e-07
-0.000271934
1.56249e-06
1.13469e-06
-1.39124e-07
-3.97643e-07
0.000269774
-2.61739e-07
1.1814e-06
-0.00119532
-1.87563e-06
-5.71394e-07
0.00119685
-0.00113737
-1.43432e-06
2.09602e-06
1.23561e-06
0.00113562
-4.19199e-07
1.00675e-06
3.62337e-08
6.79387e-07
-4.15822e-07
-1.0553e-06
1.35906e-08
-0.0011381
-9.52275e-07
5.59797e-08
-1.82144e-06
0.00113868
-6.89289e-09
1.4558e-06
4.13801e-07
9.4214e-07
-1.48118e-07
-8.45574e-07
3.28395e-07
-0.000270868
1.14345e-06
1.64063e-06
-5.46721e-07
-1.21862e-07
0.000268753
-2.24631e-06
-2.30744e-06
-0.00119533
3.25882e-06
3.69741e-06
-0.0011359
-1.29219e-06
-9.71467e-07
-1.39389e-07
-2.51202e-07
1.18273e-06
2.46347e-07
8.02438e-07
-2.44406e-07
-9.39299e-07
1.84793e-07
-0.00114184
-1.49487e-06
-1.2694e-06
1.06777e-06
-5.09747e-07
9.61393e-07
-3.42716e-08
1.09458e-06
1.11836e-10
-6.62195e-07
4.37668e-07
-0.000270675
1.27551e-06
1.051e-06
-1.17811e-07
-3.24567e-07
0.000268791
-1.16195e-06
-1.1211e-06
0.000276434
-0.000274339
8.87795e-08
9.94423e-08
0.00113622
8.50847e-07
4.18698e-07
-1.55024e-06
1.30867e-07
-5.05935e-07
-1.24598e-06
4.82777e-08
-5.36926e-07
7.24705e-07
1.16511e-06
0.00113669
8.49886e-07
4.1843e-07
-1.55264e-06
1.30891e-07
-5.05399e-07
-1.25186e-06
5.45001e-08
-5.42547e-07
7.30671e-07
-1.12433e-06
0.000276459
-0.000274359
9.20337e-08
9.70657e-08
0.00113734
8.4959e-07
4.17799e-07
-1.51013e-06
1.25018e-07
-5.00544e-07
-1.24555e-06
5.48872e-08
-5.41914e-07
7.25563e-07
1.15928e-06
0.00113634
8.49607e-07
4.18845e-07
-1.54757e-06
1.31209e-07
-5.05664e-07
-1.24564e-06
5.41896e-08
-5.42111e-07
7.24997e-07
8.49587e-07
4.17417e-07
-1.51226e-06
1.25384e-07
-4.99851e-07
-1.24317e-06
5.17284e-08
7.22254e-07
-5.39503e-07
1.15369e-06
0.00113613
8.4962e-07
4.18994e-07
-1.54186e-06
1.25408e-07
-5.00034e-07
-1.24285e-06
5.13663e-08
-5.39451e-07
7.22257e-07
-1.11842e-06
0.000276412
-0.00027432
8.90645e-08
9.6957e-08
8.49368e-07
4.1741e-07
-1.50705e-06
1.22888e-07
-4.97105e-07
-1.24241e-06
5.47018e-08
7.22556e-07
-5.41878e-07
1.11862e-06
0.00113724
8.50385e-07
4.18036e-07
-1.50715e-06
1.22617e-07
-4.97299e-07
-1.24006e-06
5.16277e-08
-5.3941e-07
7.19884e-07
-0.000274334
9.17216e-08
9.71253e-08
1.5479e-06
1.50779e-06
-4.89301e-07
-5.00036e-07
0.000274368
-1.16835e-06
-1.12733e-06
0.000276516
-0.000274427
9.81232e-08
1.09044e-07
4.15616e-07
0.00113671
-5.01913e-07
1.1641e-06
1.32803e-07
7.26526e-07
-5.32802e-07
-1.24164e-06
5.00484e-08
-1.55095e-06
8.44329e-07
4.16786e-07
0.00113718
-5.02577e-07
1.16658e-06
1.32088e-07
7.32568e-07
-5.38062e-07
-1.24726e-06
5.6043e-08
0.00113811
8.3008e-07
-0.00113766
4.1023e-07
-1.54208e-06
1.35719e-07
-4.92771e-07
-1.22896e-06
5.43789e-08
-5.204e-07
7.30724e-07
1.17096e-06
0.00113859
8.29547e-07
-0.00113813
4.10271e-07
-1.54539e-06
1.35191e-07
-4.93938e-07
-1.23482e-06
6.08123e-08
-5.25638e-07
7.3703e-07
-4.92147e-07
-4.97089e-07
0.000274387
-1.13e-06
0.000276541
-0.000274447
1.00696e-07
1.05912e-07
4.14604e-07
0.00113784
-4.96619e-07
1.1234e-06
1.27078e-07
7.26858e-07
-5.38061e-07
-1.24137e-06
5.59466e-08
-1.54522e-06
8.44268e-07
4.16307e-07
0.00113683
-5.01782e-07
1.16116e-06
1.32462e-07
7.26297e-07
-5.38452e-07
-1.24182e-06
5.56085e-08
0.00113924
8.29793e-07
-0.00113878
4.09213e-07
-1.50201e-06
1.2987e-07
-4.8736e-07
-1.2289e-06
6.0671e-08
-5.25742e-07
7.31308e-07
1.16559e-06
0.00113823
8.29155e-07
-0.00113778
4.09989e-07
-1.53958e-06
1.36316e-07
-4.9252e-07
-1.22885e-06
5.99539e-08
-5.25879e-07
7.30738e-07
8.44488e-07
4.16236e-07
0.00113662
-4.96354e-07
1.15572e-06
1.27039e-07
7.23681e-07
-5.35488e-07
5.28724e-08
-1.23895e-06
8.29409e-07
-0.00113849
4.09347e-07
-1.50503e-06
1.2951e-07
-4.88478e-07
-1.22589e-06
5.80725e-08
7.28883e-07
-5.22627e-07
1.15998e-06
0.00113802
8.29329e-07
-0.00113757
4.097e-07
-1.53381e-06
1.3003e-07
-4.87464e-07
-1.22626e-06
5.75616e-08
-5.23053e-07
7.28339e-07
-4.89626e-07
-4.96793e-07
0.000274348
-1.12479e-06
0.000276492
-0.000274407
9.8582e-08
1.06471e-07
8.45359e-07
4.15301e-07
0.00113773
-4.93782e-07
1.12067e-06
1.24226e-07
7.21117e-07
-5.3559e-07
5.28666e-08
-1.23624e-06
8.28859e-07
-0.00113813
4.08663e-07
-1.49891e-06
1.28153e-07
-4.83808e-07
-1.22576e-06
6.04903e-08
7.28427e-07
-5.25592e-07
1.12488e-06
0.00113913
8.28822e-07
-0.00113868
4.08933e-07
-1.49914e-06
1.27217e-07
-4.84816e-07
-1.22326e-06
5.79943e-08
-5.22832e-07
7.26181e-07
-0.000274421
1.00907e-07
1.0633e-07
1.54036e-06
1.5005e-06
-4.7668e-07
-4.87124e-07
0.000274439
-1.17402e-06
-1.13285e-06
0.000276529
-0.000274448
1.07109e-07
1.18215e-07
4.094e-07
0.00113856
-4.90314e-07
1.16918e-06
1.35908e-07
7.32511e-07
-5.16422e-07
-1.22494e-06
5.61626e-08
-1.54327e-06
8.24232e-07
4.08651e-07
0.00113903
-4.8983e-07
1.17246e-06
1.37492e-07
7.3885e-07
-5.21585e-07
-1.2301e-06
6.20751e-08
0.00113981
8.07319e-07
-0.00113941
4.01646e-07
-1.5333e-06
1.41532e-07
-4.79049e-07
-1.21083e-06
6.06675e-08
-5.0401e-07
7.37218e-07
1.1761e-06
0.00114028
8.08222e-07
-0.00113987
4.03652e-07
-1.5372e-06
1.40222e-07
-4.81195e-07
-1.21683e-06
6.67425e-08
-5.09504e-07
7.43442e-07
-4.7942e-07
-4.84153e-07
0.000274458
-1.13493e-06
0.000276554
-0.000274467
1.09189e-07
1.14579e-07
4.08455e-07
0.00113968
-4.85126e-07
1.12825e-06
1.30128e-07
7.33122e-07
-5.2152e-07
-1.22456e-06
6.24776e-08
-1.53734e-06
8.23766e-07
4.08051e-07
0.00113868
-4.89573e-07
1.16691e-06
1.36337e-07
7.32292e-07
-5.21955e-07
-1.22514e-06
6.19987e-08
0.00114094
8.06983e-07
-0.00114053
4.01591e-07
-1.49334e-06
1.35568e-07
-4.73801e-07
-1.21069e-06
6.70324e-08
-5.09306e-07
7.38064e-07
1.17116e-06
0.00113993
8.05968e-07
-0.00113952
4.02207e-07
-1.53076e-06
1.41778e-07
-4.78903e-07
-1.21042e-06
6.63509e-08
-5.09486e-07
7.37676e-07
8.24418e-07
4.08594e-07
0.00113847
-4.84393e-07
1.16108e-06
1.30904e-07
7.30137e-07
-5.18731e-07
5.93695e-08
-1.22175e-06
8.08655e-07
-0.00114024
4.03089e-07
-1.49687e-06
1.34283e-07
-4.75841e-07
-1.20775e-06
6.42639e-08
7.35654e-07
-5.06243e-07
1.16475e-06
0.00113972
8.08091e-07
-0.00113932
4.03846e-07
-1.52584e-06
1.34475e-07
-4.74724e-07
-1.20828e-06
6.37834e-08
-5.06781e-07
7.3493e-07
-4.76557e-07
-4.8361e-07
0.000274418
-1.131e-06
0.000276507
-0.000274428
1.08211e-07
1.1542e-07
8.24829e-07
4.08123e-07
0.00113958
-4.81828e-07
1.12598e-06
1.28117e-07
7.2775e-07
-5.18862e-07
5.94839e-08
-1.21892e-06
8.07357e-07
-0.00113988
3.99517e-07
-1.48953e-06
1.34176e-07
-4.69731e-07
-1.20839e-06
6.63153e-08
7.34332e-07
-5.09842e-07
1.12973e-06
0.00114083
8.08049e-07
-0.00114042
4.02664e-07
-1.49103e-06
1.3179e-07
-4.71981e-07
-1.20838e-06
6.69444e-08
-5.0946e-07
7.352e-07
-0.000274442
1.09416e-07
1.14692e-07
1.53095e-06
1.49127e-06
-4.62834e-07
-4.73015e-07
0.000274443
-1.17916e-06
-1.13882e-06
0.000276483
-0.000274408
1.16279e-07
1.26605e-07
4.01459e-07
0.0011402
-4.76189e-07
1.17509e-06
1.4195e-07
7.38399e-07
-5.00448e-07
-1.20737e-06
6.2123e-08
-1.53388e-06
8.01392e-07
3.98797e-07
0.00114067
-4.75874e-07
1.17852e-06
1.43546e-07
7.44935e-07
-5.0561e-07
-1.21233e-06
6.81121e-08
0.00114131
7.8358e-07
-0.00114095
3.93091e-07
-1.52348e-06
1.46533e-07
-4.66145e-07
-1.19253e-06
6.69179e-08
-4.8794e-07
7.43624e-07
1.18218e-06
0.00114178
7.86899e-07
-0.00114142
3.9329e-07
-1.52612e-06
1.45895e-07
-4.66635e-07
-1.19936e-06
7.27915e-08
-4.93879e-07
7.49026e-07
-4.65785e-07
-4.70181e-07
0.000274462
-1.1409e-06
0.00027651
-0.000274428
1.18164e-07
1.23658e-07
4.0078e-07
0.00114133
-4.71145e-07
1.13384e-06
1.35947e-07
7.39607e-07
-5.05256e-07
-1.20643e-06
6.86543e-08
-1.52794e-06
7.99676e-07
3.98594e-07
0.00114032
-4.7565e-07
1.17277e-06
1.42327e-07
7.38763e-07
-5.05566e-07
-1.20688e-06
6.83055e-08
0.00114243
7.85989e-07
-0.00114208
3.90457e-07
-1.48278e-06
1.41353e-07
-4.60163e-07
-1.19321e-06
7.26248e-08
-4.93786e-07
7.43671e-07
1.17566e-06
0.00114142
7.90319e-07
-0.00114107
3.97072e-07
-1.52121e-06
1.45229e-07
-4.67039e-07
-1.19343e-06
7.21889e-08
-4.93882e-07
7.43165e-07
8.0234e-07
4.01436e-07
0.00114011
-4.71413e-07
1.16637e-06
1.36117e-07
7.36814e-07
-5.02462e-07
6.56525e-08
-1.2036e-06
7.84761e-07
-0.00114179
3.9432e-07
-1.48596e-06
1.39929e-07
-4.61392e-07
-1.19019e-06
7.08533e-08
7.41532e-07
-4.9016e-07
1.17179e-06
0.00114122
7.81735e-07
-0.00114086
3.9048e-07
-1.5139e-06
1.4106e-07
-4.59485e-07
-1.19037e-06
7.07002e-08
-4.90502e-07
7.41312e-07
-4.62119e-07
-4.69704e-07
0.000274424
-1.1344e-06
0.000276462
-0.00027439
1.15025e-07
1.23129e-07
8.02923e-07
4.0043e-07
0.00114122
-4.68733e-07
1.13134e-06
1.33418e-07
7.37118e-07
-5.05211e-07
6.86916e-08
-1.20367e-06
7.86183e-07
-0.00114143
3.98136e-07
-1.48114e-06
1.36529e-07
-4.59104e-07
-1.18991e-06
7.33237e-08
7.41186e-07
-4.93029e-07
1.13666e-06
0.00114233
7.81394e-07
-0.00114197
3.88185e-07
-1.47921e-06
1.38366e-07
-4.56798e-07
-1.19006e-06
7.41414e-08
-4.92904e-07
7.42038e-07
-0.000274402
1.19119e-07
1.24666e-07
1.52021e-06
1.47987e-06
-4.4795e-07
-4.58698e-07
0.000274389
-1.18188e-06
-1.14135e-06
0.000276383
-0.000274315
1.22525e-07
1.32844e-07
3.89753e-07
0.00114165
-4.62203e-07
1.18105e-06
1.47993e-07
7.44475e-07
-4.84442e-07
-1.18924e-06
6.85958e-08
-1.5236e-06
7.80259e-07
3.91352e-07
0.00114212
-4.63274e-07
1.18324e-06
1.46979e-07
7.50809e-07
-4.8963e-07
-1.19486e-06
7.48318e-08
0.0011426
7.64025e-07
-0.0011423
3.90873e-07
-1.51404e-06
1.47857e-07
-4.55617e-07
-1.17362e-06
7.44889e-08
-4.71274e-07
7.51157e-07
1.18451e-06
0.00114307
7.64153e-07
-0.00114277
3.92377e-07
-1.51767e-06
1.47948e-07
-4.56343e-07
-1.1794e-06
8.02611e-08
-4.76878e-07
7.57126e-07
-4.5183e-07
-4.5615e-07
0.00027441
-1.14455e-06
0.000276408
-0.000274334
1.25578e-07
1.29779e-07
3.87319e-07
0.00114278
-4.56655e-07
1.14023e-06
1.42307e-07
7.4527e-07
-4.89826e-07
-1.18897e-06
7.46692e-08
-1.51889e-06
7.84371e-07
3.9525e-07
0.00114177
-4.63965e-07
1.17669e-06
1.46136e-07
7.44116e-07
-4.90375e-07
-1.18958e-06
7.34981e-08
0.00114373
7.63744e-07
-0.00114343
3.91523e-07
-1.47366e-06
1.42498e-07
-4.49964e-07
-1.17427e-06
8.02613e-08
-4.76916e-07
7.51028e-07
1.18159e-06
0.00114273
7.57817e-07
-0.00114242
3.83412e-07
-1.50956e-06
1.51097e-07
-4.53402e-07
-1.1731e-06
8.13241e-08
-4.7586e-07
7.52336e-07
7.77031e-07
3.90142e-07
0.00114156
-4.57476e-07
1.17241e-06
1.41359e-07
7.43561e-07
-4.8584e-07
7.28211e-08
-1.18527e-06
7.65957e-07
-0.00114314
3.89186e-07
-1.4765e-06
1.43386e-07
-4.50009e-07
-1.17188e-06
7.67995e-08
7.47709e-07
-4.74641e-07
1.17339e-06
0.00114251
7.65581e-07
-0.00114221
3.91148e-07
-1.50608e-06
1.42092e-07
-4.50249e-07
-1.17221e-06
7.68592e-08
-4.74711e-07
7.47408e-07
-4.49846e-07
-4.56615e-07
0.000274371
-1.14152e-06
0.000276361
-0.000274295
1.25001e-07
1.31883e-07
7.77599e-07
3.88269e-07
0.00114267
-4.54808e-07
1.13727e-06
1.38642e-07
7.44021e-07
-4.88378e-07
7.5921e-08
-1.18499e-06
7.594e-07
-0.00114278
3.79784e-07
-1.4686e-06
1.43796e-07
-4.44321e-07
-1.17066e-06
8.0485e-08
7.48629e-07
-4.76524e-07
1.13824e-06
0.00114363
7.64859e-07
-0.00114332
3.92562e-07
-1.47126e-06
1.39232e-07
-4.47584e-07
-1.1725e-06
8.00623e-08
-4.77453e-07
7.47761e-07
-0.000274309
1.24669e-07
1.30028e-07
1.51237e-06
1.47202e-06
-4.36264e-07
-4.47089e-07
0.000274282
-1.18772e-06
-1.1477e-06
0.000276227
-0.000274165
1.31861e-07
1.41858e-07
3.91592e-07
0.00114289
-4.53792e-07
1.18204e-06
1.47662e-07
7.51794e-07
-4.67969e-07
-1.16984e-06
7.55701e-08
-1.51513e-06
7.60371e-07
3.91862e-07
0.00114337
-4.5293e-07
1.1855e-06
1.49493e-07
7.57643e-07
-4.73698e-07
-1.17556e-06
8.08549e-08
0.0011437
7.41072e-07
-0.00114344
3.83498e-07
-1.50226e-06
1.55596e-07
-4.41226e-07
-1.15652e-06
7.92633e-08
-4.57429e-07
7.56478e-07
1.19332e-06
0.00114418
7.36518e-07
-0.00114392
3.70826e-07
-1.50239e-06
1.573e-07
-4.39184e-07
-1.16272e-06
8.6194e-08
-4.62598e-07
7.62445e-07
-4.38272e-07
-4.4401e-07
0.000274301
-1.15236e-06
0.000276258
-0.000274189
1.35694e-07
1.40822e-07
3.91886e-07
0.00114403
-4.48211e-07
1.14132e-06
1.42136e-07
7.52581e-07
-4.73364e-07
-1.16985e-06
8.17184e-08
-1.50709e-06
7.54327e-07
3.84683e-07
0.00114302
-4.50186e-07
1.18214e-06
1.51748e-07
7.53132e-07
-4.72529e-07
-1.16865e-06
8.19703e-08
0.00114483
7.45485e-07
-0.00114457
3.78549e-07
-1.46157e-06
1.50599e-07
-4.35436e-07
-1.15761e-06
8.4331e-08
-4.63559e-07
7.55332e-07
1.18301e-06
0.00114383
7.45516e-07
-0.00114357
3.84194e-07
-1.50116e-06
1.51834e-07
-4.44849e-07
-1.15754e-06
8.55709e-08
-4.62608e-07
7.56067e-07
7.61764e-07
3.90377e-07
0.00114281
-4.47782e-07
1.17435e-06
1.43145e-07
7.48829e-07
-4.70946e-07
7.81068e-08
-1.16778e-06
7.36754e-07
-0.00114429
3.69898e-07
-1.46217e-06
1.5159e-07
-4.34026e-07
-1.15444e-06
8.34149e-08
7.53624e-07
-4.59775e-07
1.17991e-06
0.00114361
7.41815e-07
-0.00114335
3.81517e-07
-1.49318e-06
1.49654e-07
-4.35355e-07
-1.15489e-06
8.24404e-08
-4.60351e-07
7.52994e-07
-4.33573e-07
-4.41959e-07
0.000274264
-1.14208e-06
0.00027621
-0.000274151
1.29331e-07
1.37143e-07
7.60869e-07
3.91185e-07
0.00114392
-4.45444e-07
1.13879e-06
1.39964e-07
7.49688e-07
-4.73347e-07
8.15464e-08
-1.1674e-06
7.43579e-07
-0.00114393
3.84296e-07
-1.46047e-06
1.43325e-07
-4.36523e-07
-1.1541e-06
8.63755e-08
7.54177e-07
-4.62026e-07
1.14522e-06
0.00114473
7.41625e-07
-0.00114447
3.76576e-07
-1.45809e-06
1.4746e-07
-4.32238e-07
-1.15465e-06
8.56252e-08
-4.62911e-07
7.53633e-07
-0.000274161
1.34534e-07
1.3971e-07
1.49741e-06
1.45636e-06
-4.19111e-07
-4.30422e-07
0.000274123
-1.19596e-06
-1.15557e-06
0.000276052
-0.000273993
1.41016e-07
1.5116e-07
3.76511e-07
0.00114394
-4.36301e-07
1.19053e-06
1.57756e-07
7.57076e-07
-4.54265e-07
-1.15278e-06
8.06789e-08
-1.49849e-06
7.31078e-07
3.67067e-07
0.00114443
-4.35423e-07
1.19519e-06
1.58897e-07
7.641e-07
-4.5827e-07
-1.15787e-06
8.82812e-08
0.00114462
7.06314e-07
-0.0011444
3.5715e-07
-1.48581e-06
1.61923e-07
-4.26276e-07
-1.13756e-06
8.89115e-08
-4.40261e-07
7.64745e-07
1.1919e-06
0.00114509
7.17858e-07
-0.00114488
3.8286e-07
-1.49446e-06
1.53131e-07
-4.33725e-07
-1.14416e-06
9.38843e-08
-4.46407e-07
7.69717e-07
-4.21509e-07
-4.26366e-07
0.000274149
-1.15168e-06
0.000276076
-0.000274014
1.3885e-07
1.43423e-07
3.71428e-07
0.00114508
-4.3015e-07
1.15067e-06
1.53024e-07
7.57133e-07
-4.59912e-07
-1.15369e-06
8.67788e-08
-1.49674e-06
7.37278e-07
3.77898e-07
0.00114407
-4.39075e-07
1.18645e-06
1.56526e-07
7.58248e-07
-4.587e-07
-1.15237e-06
8.73225e-08
0.00114575
7.11122e-07
-0.00114554
3.56417e-07
-1.44568e-06
1.56841e-07
-4.20783e-07
-1.13781e-06
9.3289e-08
-4.46429e-07
7.63636e-07
1.18969e-06
0.00114472
7.14839e-07
-0.00114452
3.74151e-07
-1.48567e-06
1.5741e-07
-4.29494e-07
-1.13841e-06
9.3537e-08
-4.46451e-07
7.63423e-07
7.30483e-07
3.73578e-07
0.00114385
-4.31298e-07
1.18238e-06
1.51572e-07
7.55624e-07
-4.55565e-07
8.53566e-08
-1.14961e-06
7.23772e-07
-0.00114525
3.76753e-07
-1.45385e-06
1.48433e-07
-4.27815e-07
-1.13588e-06
8.99052e-08
7.60275e-07
-4.44328e-07
1.1834e-06
0.00114452
7.18387e-07
-0.00114431
3.72717e-07
-1.48126e-06
1.51704e-07
-4.24783e-07
-1.13582e-06
9.00521e-08
-4.44045e-07
7.60307e-07
-4.22315e-07
-4.29229e-07
0.000274108
-1.14985e-06
0.000276023
-0.000273968
1.39227e-07
1.45981e-07
7.31238e-07
3.6947e-07
0.00114497
-4.28139e-07
1.1477e-06
1.49366e-07
7.56079e-07
-4.58289e-07
8.83335e-08
-1.14942e-06
7.19621e-07
-0.00114488
3.67093e-07
-1.44426e-06
1.50084e-07
-4.20144e-07
-1.13636e-06
9.27648e-08
7.59703e-07
-4.47234e-07
1.1486e-06
0.00114564
7.2052e-07
-0.00114543
3.71857e-07
-1.44602e-06
1.4906e-07
-4.21842e-07
-1.1368e-06
9.27436e-08
-4.47329e-07
7.59942e-07
-0.000273985
1.40232e-07
1.4538e-07
1.48397e-06
1.44273e-06
-4.04601e-07
-4.16327e-07
0.000273946
-1.19344e-06
-1.1517e-06
0.000275835
-0.000273785
1.417e-07
1.53475e-07
3.59799e-07
0.00114482
-4.2487e-07
1.1952e-06
1.60436e-07
7.66335e-07
-4.3637e-07
-1.13258e-06
9.06202e-08
-1.49382e-06
7.15097e-07
3.84174e-07
0.00114529
-4.32894e-07
1.19131e-06
1.53758e-07
7.71518e-07
-4.42845e-07
-1.13904e-06
9.48389e-08
0.00114535
7.09894e-07
-0.00114519
3.71917e-07
-1.48037e-06
1.59363e-07
-4.2188e-07
-1.12311e-06
9.14131e-08
-4.29042e-07
7.67356e-07
1.20228e-06
0.0011458
7.00976e-07
-0.00114564
3.55727e-07
-1.47748e-06
1.65894e-07
-4.14554e-07
-1.12977e-06
9.69987e-08
-4.35464e-07
7.72363e-07
-4.12725e-07
-4.18594e-07
0.000273961
-1.1606e-06
0.00027585
-0.000273792
1.49794e-07
1.55607e-07
3.56404e-07
0.00114595
-4.18336e-07
1.15596e-06
1.56329e-07
7.6358e-07
-4.44103e-07
-1.13533e-06
9.41525e-08
-1.48482e-06
7.15605e-07
3.74562e-07
0.00114492
-4.29278e-07
1.18881e-06
1.56399e-07
7.64192e-07
-4.43481e-07
-1.13473e-06
9.42197e-08
0.00114649
7.01278e-07
-0.00114633
3.72526e-07
-1.44112e-06
1.53066e-07
-4.17398e-07
-1.12109e-06
9.90337e-08
-4.3275e-07
7.69659e-07
1.19355e-06
0.00114546
6.97537e-07
-0.00114529
3.61088e-07
-1.47514e-06
1.6296e-07
-4.1845e-07
-1.12272e-06
9.7864e-08
-4.34088e-07
7.67877e-07
7.17613e-07
3.73142e-07
0.00114472
-4.23319e-07
1.18332e-06
1.51378e-07
7.6092e-07
-4.41469e-07
9.05861e-08
-1.13243e-06
6.96404e-07
-0.00114602
3.61123e-07
-1.4379e-06
1.59512e-07
-4.10009e-07
-1.12007e-06
9.53559e-08
7.65153e-07
-4.31502e-07
1.1897e-06
0.00114526
6.92582e-07
-0.00114509
3.57007e-07
-1.46816e-06
1.59808e-07
-4.10962e-07
-1.1188e-06
9.60673e-08
-4.3047e-07
7.66417e-07
-4.07817e-07
-4.16033e-07
0.000273918
-1.15243e-06
0.000275803
-0.000273754
1.44697e-07
1.52719e-07
7.14892e-07
3.73225e-07
0.00114584
-4.20947e-07
1.14786e-06
1.48256e-07
7.61805e-07
-4.4373e-07
9.42954e-08
-1.13223e-06
7.0035e-07
-0.00114565
3.63482e-07
-1.43485e-06
1.54278e-07
-4.10311e-07
-1.11949e-06
9.80654e-08
7.65497e-07
-4.33852e-07
1.15555e-06
0.00114637
6.98202e-07
-0.00114621
3.5418e-07
-1.43274e-06
1.58073e-07
-4.0742e-07
-1.11958e-06
9.79769e-08
-4.34122e-07
7.6568e-07
-0.000273771
1.49575e-07
1.54165e-07
1.4769e-06
1.43704e-06
-3.9651e-07
-4.06327e-07
0.000273724
-1.2013e-06
-1.15913e-06
0.000275581
-0.000273535
1.51313e-07
1.62863e-07
3.70746e-07
0.00114551
-4.17957e-07
1.19494e-06
1.61226e-07
7.68896e-07
-4.25806e-07
-1.1188e-06
9.30468e-08
-1.47394e-06
6.90726e-07
3.50909e-07
0.00114596
-4.12855e-07
1.20269e-06
1.65112e-07
7.7512e-07
-4.30613e-07
-1.12482e-06
1.00237e-07
0.00114588
6.79323e-07
-0.00114577
3.56597e-07
-1.46408e-06
1.67916e-07
-4.06143e-07
-1.10414e-06
9.89812e-08
-4.13945e-07
7.75637e-07
1.20497e-06
0.00114638
6.72152e-07
-0.00114625
3.46956e-07
-1.46599e-06
1.67837e-07
-4.05758e-07
-1.11046e-06
1.05051e-07
-4.19377e-07
7.80823e-07
-3.94785e-07
-3.99085e-07
0.000273736