/*--------------------------------*- C++ -*----------------------------------*\
| =========                 |                                                 |
| \\      /  F ield         | OpenFOAM: The Open Source CFD Toolbox           |
|  \\    /   O peration     | Version:  v1906                                 |
|   \\  /    A nd           | Web:      www.OpenFOAM.com                      |
|    \\/     M anipulation  |                                                 |
\*---------------------------------------------------------------------------*/
FoamFile
{
    version     2.0;
    format      ascii;
    class       volVectorField;
    location    "1000";
    object      U;
}
// * * * * * * * * * * * * * * * * * * * * * * * * * * * * * * * * * * * * * //

dimensions      [0 1 -1 0 0 0 0];


internalField   nonuniform List<vector> 
43248
(
(6.07319e-05 6.07517e-05 0.108929)
(-9.73363e-05 5.97108e-05 0.107975)
(5.96914e-05 -9.72766e-05 0.107975)
(-0.000158294 -0.000158306 0.106622)
(5.93949e-05 5.94869e-05 0.109226)
(-9.49136e-05 5.8768e-05 0.108153)
(5.87842e-05 -9.49551e-05 0.108152)
(-0.000154139 -0.000154148 0.106645)
(5.78947e-05 5.80893e-05 0.109515)
(-9.23481e-05 5.76743e-05 0.108311)
(5.75221e-05 -9.24348e-05 0.108311)
(-0.000149488 -0.000149539 0.106643)
(5.62802e-05 5.62566e-05 0.109794)
(-8.9806e-05 5.68224e-05 0.108451)
(5.72921e-05 -8.99449e-05 0.108451)
(-0.000143901 -0.000143871 0.10662)
(5.50774e-05 5.52319e-05 0.110064)
(-8.74578e-05 5.61361e-05 0.108572)
(5.51477e-05 -8.71551e-05 0.108572)
(-0.0001396 -0.000139526 0.106575)
(5.35279e-05 5.34643e-05 0.110324)
(-8.32446e-05 5.28141e-05 0.108675)
(5.41653e-05 -8.37184e-05 0.108675)
(-0.000132526 -0.000132646 0.106512)
(5.18554e-05 5.12379e-05 0.110573)
(-8.16423e-05 5.38429e-05 0.108759)
(5.31708e-05 -8.12785e-05 0.108758)
(-0.00012778 -0.000127778 0.106439)
(5.17036e-05 5.18729e-05 0.110815)
(-7.77964e-05 5.06028e-05 0.108825)
(5.09854e-05 -7.79082e-05 0.108825)
(-0.000120352 -0.00012072 0.106353)
(4.94171e-05 5.09352e-05 0.111043)
(-7.50834e-05 4.93314e-05 0.108877)
(4.6961e-05 -7.3798e-05 0.108876)
(-0.000116896 -0.00011602 0.106261)
(4.86862e-05 4.6275e-05 0.111259)
(-6.94319e-05 4.52591e-05 0.108914)
(4.86539e-05 -7.10668e-05 0.108914)
(-0.000109395 -0.000110084 0.106161)
(4.6355e-05 4.76172e-05 0.111467)
(-6.67167e-05 4.42386e-05 0.108934)
(4.43108e-05 -6.79839e-05 0.108933)
(-0.000103549 -0.000103845 0.106066)
(4.82496e-05 4.80595e-05 0.11166)
(-6.41523e-05 4.3277e-05 0.10894)
(4.17137e-05 -6.29052e-05 0.108937)
(-9.90067e-05 -9.88249e-05 0.105956)
(4.57501e-05 4.36483e-05 0.111842)
(-5.77451e-05 3.57094e-05 0.108941)
(4.253e-05 -6.24303e-05 0.108932)
(-9.56945e-05 -9.71507e-05 0.105848)
(3.79184e-05 4.34112e-05 0.112014)
(-6.16284e-05 4.43582e-05 0.108913)
(2.78114e-05 -5.35415e-05 0.108915)
(-8.75568e-05 -8.12919e-05 0.105742)
(4.44235e-05 4.98062e-05 0.112176)
(-5.53238e-05 3.78994e-05 0.108873)
(3.47372e-05 -5.12063e-05 0.108909)
(-9.31744e-05 -9.30852e-05 0.105656)
(4.69577e-05 2.97585e-05 0.112308)
(-3.68521e-05 1.994e-05 0.108881)
(5.02629e-05 -4.88723e-05 0.10886)
(-6.91809e-05 -8.23332e-05 0.105519)
(5.37158e-05 2.52441e-05 0.112461)
(-4.61072e-05 8.69513e-06 0.108849)
(7.55778e-05 -6.75931e-05 0.108705)
(-5.36224e-05 -7.4449e-05 0.105509)
(5.30775e-05 6.84448e-05 0.112556)
(-1.84189e-05 7.47291e-05 0.108819)
(-1.81307e-06 -3.52177e-05 0.108623)
(-7.08234e-05 -3.81817e-05 0.105506)
(-2.45267e-05 0.000104117 0.112665)
(-0.00012474 9.68128e-05 0.10853)
(-0.000114761 -2.98015e-05 0.108931)
(-0.000187509 -0.000100649 0.105152)
(1.51005e-05 4.0784e-05 0.112812)
(-2.37303e-05 -9.86443e-05 0.108471)
(-8.67928e-05 5.21719e-05 0.109327)
(-3.25633e-06 -2.0212e-05 0.104888)
(4.70466e-05 -0.0002006 0.11284)
(4.75728e-05 -6.14353e-05 0.108815)
(0.000448408 -0.000117138 0.108459)
(7.97764e-05 -0.000121232 0.105321)
(0.000168387 4.39552e-05 0.113056)
(-4.37418e-06 0.000130389 0.108949)
(-3.42915e-05 -0.000119879 0.107461)
(-9.04887e-05 -0.000110424 0.105259)
(-6.17489e-06 0.000302634 0.112929)
(-0.000116841 0.000138833 0.108329)
(-0.000348616 0.000117611 0.108242)
(-0.000175704 9.2022e-05 0.1049)
(6.89747e-05 0.000127867 0.112651)
(3.45836e-05 -0.000166063 0.108178)
(0.000190339 1.70614e-05 0.109393)
(-1.03801e-05 -9.82434e-05 0.105036)
(-0.000146102 -0.000341611 0.112892)
(-4.08261e-05 4.0317e-05 0.108681)
(5.12418e-05 -0.00017613 0.108552)
(-1.94301e-06 -0.000142792 0.104858)
(-0.000109413 1.62226e-05 0.113643)
(-0.000110297 0.000106364 0.107875)
(-0.000133396 2.99543e-05 0.108098)
(-0.000178673 5.58709e-06 0.104464)
(0.000293443 0.000321617 0.113451)
(3.834e-05 -9.52845e-06 0.107896)
(0.000110144 8.69503e-05 0.108474)
(5.02325e-06 -6.14513e-05 0.104436)
(-5.88149e-06 -5.74892e-06 0.106779)
(6.00347e-05 9.8067e-05 0.107927)
(-6.01121e-05 9.80248e-05 0.107927)
(6.06724e-06 -5.97354e-06 0.106779)
(9.78262e-05 6.00772e-05 0.107927)
(9.80127e-05 -6.0133e-05 0.107927)
(-9.78299e-05 5.99836e-05 0.107928)
(-9.79213e-05 -6.00765e-05 0.107927)
(-5.85075e-06 5.96699e-06 0.106778)
(6.00351e-05 -9.78566e-05 0.107927)
(-6.00073e-05 -9.78686e-05 0.107927)
(5.89714e-06 5.95678e-06 0.106779)
(0.000158373 0.00015838 0.106622)
(-8.58756e-06 -8.31844e-06 0.106818)
(5.97155e-05 9.73632e-05 0.107974)
(-5.99149e-05 9.74522e-05 0.107974)
(5.91579e-05 9.57689e-05 0.108109)
(-5.91232e-05 9.56835e-05 0.108109)
(-0.00015834 0.000158277 0.106622)
(8.37732e-06 -8.2171e-06 0.106818)
(9.72924e-05 5.96673e-05 0.107975)
(9.74158e-05 -5.97964e-05 0.107974)
(9.5639e-05 5.9115e-05 0.108109)
(9.57327e-05 -5.91643e-05 0.108108)
(-9.73903e-05 -5.97927e-05 0.107974)
(-9.55436e-05 5.90265e-05 0.10811)
(-9.56634e-05 -5.89996e-05 0.108109)
(0.000158365 -0.00015835 0.106622)
(-8.48222e-06 8.58953e-06 0.106817)
(-5.97035e-05 -9.73434e-05 0.107974)
(5.90381e-05 -9.55801e-05 0.108109)
(-5.89479e-05 -9.54436e-05 0.10811)
(8.41454e-06 8.47588e-06 0.106817)
(0.000154112 0.000154281 0.106645)
(-1.08869e-05 -1.05937e-05 0.10683)
(5.90654e-05 9.52319e-05 0.108152)
(-5.89739e-05 9.51456e-05 0.108152)
(5.80158e-05 9.31133e-05 0.108273)
(-5.82623e-05 9.32017e-05 0.108272)
(-0.000154144 0.000154169 0.106645)
(1.05355e-05 -1.03256e-05 0.10683)
(9.50101e-05 5.89887e-05 0.108152)
(9.50469e-05 -5.88772e-05 0.108151)
(9.30371e-05 5.80839e-05 0.108273)
(9.3113e-05 -5.81725e-05 0.108272)
(-9.5094e-05 -5.89354e-05 0.108152)
(-9.3194e-05 5.82765e-05 0.108273)
(-9.32044e-05 -5.827e-05 0.108273)
(0.000154073 -0.000154016 0.106645)
(-1.1065e-05 1.09075e-05 0.106829)
(-5.88768e-05 -9.50189e-05 0.108152)
(5.78444e-05 -9.31269e-05 0.108273)
(-5.8172e-05 -9.30964e-05 0.108273)
(1.04774e-05 1.05025e-05 0.106829)
(0.000149213 0.000149451 0.106643)
(-1.30091e-05 -1.30573e-05 0.106818)
(5.79167e-05 9.271e-05 0.10831)
(-5.76966e-05 9.25326e-05 0.10831)
(5.67978e-05 9.04792e-05 0.108417)
(-5.68576e-05 9.08162e-05 0.108417)
(-0.000149297 0.000149464 0.106643)
(1.30725e-05 -1.28495e-05 0.106819)
(9.23906e-05 5.79252e-05 0.108311)
(9.23469e-05 -5.76513e-05 0.10831)
(9.06462e-05 5.6621e-05 0.108417)
(9.12081e-05 -5.73228e-05 0.108417)
(-9.25264e-05 -5.79043e-05 0.10831)
(-9.05234e-05 5.6982e-05 0.108418)
(-9.02942e-05 -5.64799e-05 0.108417)
(0.00014898 -0.000149156 0.106643)
(-1.26063e-05 1.2842e-05 0.106818)
(-5.78309e-05 -9.24902e-05 0.108311)
(5.74269e-05 -9.06433e-05 0.108418)
(-5.63663e-05 -9.01049e-05 0.108418)
(1.32678e-05 1.3373e-05 0.106818)
(0.000143967 0.000143913 0.106619)
(-1.43804e-05 -1.43832e-05 0.106784)
(5.62395e-05 8.98191e-05 0.10845)
(-5.67076e-05 9.00967e-05 0.10845)
(5.65214e-05 8.7946e-05 0.108542)
(-5.6572e-05 8.78675e-05 0.108543)
(-0.000143985 0.000144152 0.10662)
(1.42292e-05 -1.44841e-05 0.106784)
(8.97969e-05 5.61318e-05 0.108451)
(9.05288e-05 -5.71213e-05 0.108449)
(8.78776e-05 5.64853e-05 0.108543)
(8.72452e-05 -5.54335e-05 0.108543)
(-8.96611e-05 -5.63671e-05 0.10845)
(-8.79154e-05 5.61997e-05 0.108544)
(-8.80561e-05 -5.64133e-05 0.108543)
(0.00014444 -0.000144289 0.10662)
(-1.53441e-05 1.51555e-05 0.106784)
(-5.62591e-05 -8.95806e-05 0.108451)
(5.50567e-05 -8.72885e-05 0.108544)
(-5.64658e-05 -8.79672e-05 0.108543)
(1.4214e-05 1.42429e-05 0.106784)
(0.000139514 0.000139437 0.106575)
(-1.69842e-05 -1.70982e-05 0.106728)
(5.64817e-05 8.73683e-05 0.108571)
(-5.65343e-05 8.74087e-05 0.108571)
(5.49633e-05 8.49361e-05 0.108649)
(-5.34639e-05 8.45371e-05 0.10865)
(-0.000139396 0.000138982 0.106575)
(1.76761e-05 -1.75321e-05 0.10673)
(8.72282e-05 5.64537e-05 0.108572)
(8.68793e-05 -5.56658e-05 0.108571)
(8.52242e-05 5.45907e-05 0.10865)
(8.53108e-05 -5.51613e-05 0.10865)
(-8.74597e-05 -5.6151e-05 0.108571)
(-8.44548e-05 5.34192e-05 0.108651)
(-8.5112e-05 -5.46989e-05 0.108649)
(0.000138105 -0.000138521 0.106576)
(-1.5868e-05 1.59589e-05 0.10673)
(-5.62151e-05 -8.72873e-05 0.108572)
(5.51806e-05 -8.50344e-05 0.108651)
(-5.44576e-05 -8.49009e-05 0.10865)
(1.721e-05 1.71424e-05 0.106728)
(0.000132626 0.000132327 0.106511)
(-2.00695e-05 -2.00254e-05 0.106663)
(5.39338e-05 8.4182e-05 0.108673)
(-5.28385e-05 8.38569e-05 0.108674)
(5.17769e-05 8.0833e-05 0.108738)
(-5.46524e-05 8.18975e-05 0.108738)
(-0.000132177 0.000132132 0.106514)
(1.76985e-05 -1.77445e-05 0.106664)
(8.40362e-05 5.35922e-05 0.108674)
(8.42556e-05 -5.41407e-05 0.108674)
(8.12416e-05 5.15195e-05 0.108739)
(8.15802e-05 -5.33406e-05 0.108737)
(-8.37503e-05 -5.35734e-05 0.108673)
(-8.23212e-05 5.41758e-05 0.10874)
(-8.19183e-05 -5.35023e-05 0.108738)
(0.000133762 -0.000133653 0.106513)
(-1.92114e-05 1.89234e-05 0.10666)
(-5.3292e-05 -8.36411e-05 0.108674)
(5.29074e-05 -8.19657e-05 0.108738)
(-5.34508e-05 -8.21348e-05 0.108738)
(1.87189e-05 1.86213e-05 0.106662)
(0.000126457 0.000126121 0.106441)
(-1.95884e-05 -1.8963e-05 0.106583)
(5.2019e-05 8.00358e-05 0.108758)
(-5.4462e-05 8.11894e-05 0.108758)
(5.29003e-05 8.01501e-05 0.108811)
(-5.10627e-05 7.92344e-05 0.108808)
(-0.000129026 0.00012863 0.10644)
(2.19701e-05 -2.15653e-05 0.106578)
(8.10473e-05 5.15391e-05 0.108759)
(8.14443e-05 -5.34456e-05 0.108756)
(7.89943e-05 5.299e-05 0.108812)
(7.88015e-05 -5.16205e-05 0.108809)
(-8.16619e-05 -5.36012e-05 0.108757)
(-7.86927e-05 5.13499e-05 0.10881)
(-7.825e-05 -5.08888e-05 0.10881)
(0.000127362 -0.000127722 0.106438)
(-2.03554e-05 2.05421e-05 0.106578)
(-5.36828e-05 -8.12963e-05 0.108758)
(5.17112e-05 -7.91142e-05 0.10881)
(-5.05193e-05 -7.87778e-05 0.108811)
(2.13913e-05 2.11086e-05 0.106579)
(0.000122549 0.000122898 0.106354)
(-2.29415e-05 -2.2369e-05 0.106486)
(5.24713e-05 7.87578e-05 0.108826)
(-5.04443e-05 7.7928e-05 0.108824)
(5.018e-05 7.56559e-05 0.108863)
(-4.93624e-05 7.53528e-05 0.108865)
(-0.000120373 0.000120566 0.106351)
(2.28803e-05 -2.27947e-05 0.106491)
(7.81685e-05 5.21551e-05 0.108827)
(7.77665e-05 -5.06407e-05 0.108824)
(7.58364e-05 5.08445e-05 0.108864)
(7.5866e-05 -4.92145e-05 0.108862)
(-7.73026e-05 -5.02533e-05 0.108825)
(-7.55342e-05 4.92063e-05 0.108866)
(-7.60984e-05 -4.93506e-05 0.108865)
(0.000121496 -0.000121336 0.106351)
(-2.32299e-05 2.32167e-05 0.106488)
(-5.00121e-05 -7.81537e-05 0.108826)
(4.90508e-05 -7.53521e-05 0.108864)
(-5.00014e-05 -7.45116e-05 0.108866)
(2.14434e-05 2.22597e-05 0.10649)
(0.000115071 0.000115688 0.106255)
(-2.61735e-05 -2.65538e-05 0.106395)
(4.87796e-05 7.5778e-05 0.108873)
(-4.95292e-05 7.54167e-05 0.108876)
(4.52149e-05 6.99094e-05 0.108903)
(-4.55815e-05 7.02719e-05 0.108904)
(-0.00011565 0.000115566 0.106261)
(2.59099e-05 -2.55995e-05 0.106396)
(7.40972e-05 4.99178e-05 0.108874)
(7.33763e-05 -4.73834e-05 0.108875)
(7.10106e-05 4.41903e-05 0.108905)
(7.23251e-05 -4.74125e-05 0.108905)
(-7.50222e-05 -4.84905e-05 0.108877)
(-6.99061e-05 4.53402e-05 0.108906)
(-7.14604e-05 -4.85516e-05 0.108903)
(0.000114637 -0.000114934 0.106259)
(-2.47618e-05 2.53088e-05 0.106399)
(-4.9354e-05 -7.34916e-05 0.108878)
(4.74773e-05 -7.15373e-05 0.108907)
(-4.78378e-05 -7.26285e-05 0.108904)
(2.49286e-05 2.42297e-05 0.106391)
(0.000108995 0.000107851 0.106165)
(-2.68341e-05 -2.53707e-05 0.106297)
(4.61878e-05 6.8547e-05 0.108911)
(-4.59571e-05 6.91575e-05 0.108912)
(4.44074e-05 6.93928e-05 0.10893)
(-4.6381e-05 6.95414e-05 0.108926)
(-0.000108815 0.000108726 0.106165)
(2.53235e-05 -2.5017e-05 0.106293)
(7.17088e-05 4.45878e-05 0.108913)
(7.31842e-05 -4.82772e-05 0.108911)
(6.65962e-05 4.51102e-05 0.108931)
(6.62461e-05 -4.4842e-05 0.108929)
(-7.05612e-05 -4.65647e-05 0.10891)
(-6.87808e-05 4.67935e-05 0.108929)
(-6.72233e-05 -4.29303e-05 0.108928)
(0.000110517 -0.000109989 0.106168)
(-2.72451e-05 2.66623e-05 0.106293)
(-4.61482e-05 -7.05412e-05 0.108911)
(4.4387e-05 -6.78631e-05 0.108931)
(-4.27644e-05 -6.74389e-05 0.108929)
(2.78985e-05 2.80981e-05 0.106296)
(0.000103706 0.000105345 0.106065)
(-2.52818e-05 -2.72286e-05 0.106184)
(4.36486e-05 6.77204e-05 0.108934)
(-4.40853e-05 6.7289e-05 0.108931)
(4.68483e-05 6.36476e-05 0.108937)
(-4.25825e-05 6.44175e-05 0.108938)
(-0.000105276 0.00010542 0.106061)
(2.95212e-05 -2.92073e-05 0.106191)
(6.4957e-05 4.39713e-05 0.108936)
(6.57538e-05 -4.52512e-05 0.108931)
(6.69844e-05 4.58047e-05 0.108937)
(6.67353e-05 -4.3687e-05 0.108934)
(-6.61122e-05 -4.41635e-05 0.108933)
(-6.54577e-05 4.26807e-05 0.108939)
(-6.54257e-05 -4.48407e-05 0.108939)
(0.000102952 -0.000104033 0.106062)
(-2.62785e-05 2.80769e-05 0.106183)
(-4.3258e-05 -6.73967e-05 0.108934)
(4.45783e-05 -6.47709e-05 0.108936)
(-4.46918e-05 -6.52272e-05 0.10894)
(2.75449e-05 2.74213e-05 0.106188)
(0.000101911 0.000100577 0.105952)
(-3.14015e-05 -3.16893e-05 0.106074)
(4.536e-05 6.47407e-05 0.108936)
(-4.20707e-05 6.50253e-05 0.108939)
(4.04087e-05 6.1699e-05 0.108929)
(-3.59435e-05 5.86583e-05 0.10894)
(-9.81463e-05 9.87764e-05 0.10596)
(3.31285e-05 -3.27083e-05 0.106091)
(6.50438e-05 4.53499e-05 0.108936)
(6.4273e-05 -4.05131e-05 0.108935)
(6.14489e-05 3.88457e-05 0.108931)
(6.07795e-05 -4.30566e-05 0.108932)
(-6.40144e-05 -4.22565e-05 0.108938)
(-5.69006e-05 3.6218e-05 0.108942)
(-5.94999e-05 -4.32782e-05 0.108931)
(0.000100194 -9.84784e-05 0.105953)
(-2.87077e-05 2.7414e-05 0.10608)
(-4.24465e-05 -6.34964e-05 0.108939)
(4.21816e-05 -6.11459e-05 0.108934)
(-4.08673e-05 -6.04296e-05 0.108933)
(2.91973e-05 2.77703e-05 0.106077)
(9.2491e-05 9.11544e-05 0.105847)
(-3.64979e-05 -3.24005e-05 0.105987)
(3.89818e-05 5.78836e-05 0.108926)
(-3.81321e-05 5.65092e-05 0.108939)
(2.97932e-05 5.53789e-05 0.108926)
(-4.83886e-05 5.88476e-05 0.108919)
(-9.1433e-05 9.05438e-05 0.105863)
(2.36229e-05 -2.76953e-05 0.105975)
(6.11053e-05 3.70094e-05 0.108928)
(6.15753e-05 -4.52299e-05 0.10893)
(5.25184e-05 3.36868e-05 0.108926)
(5.45067e-05 -3.38988e-05 0.10892)
(-6.00563e-05 -4.49395e-05 0.108927)
(-6.27958e-05 4.3773e-05 0.108924)
(-6.11973e-05 -3.28597e-05 0.108913)
(9.58144e-05 -9.75634e-05 0.105851)
(-3.82772e-05 3.61575e-05 0.105977)
(-4.29132e-05 -6.14224e-05 0.10893)
(3.09799e-05 -5.77248e-05 0.108921)
(-3.84697e-05 -5.76265e-05 0.108913)
(3.16873e-05 3.71381e-05 0.105965)
(8.41746e-05 8.99441e-05 0.105764)
(-3.01052e-05 -2.61768e-05 0.105876)
(3.04565e-05 5.69812e-05 0.108925)
(-4.57998e-05 5.964e-05 0.10891)
(3.96645e-05 5.90723e-05 0.108904)
(-3.38362e-05 5.62179e-05 0.108887)
(-9.61279e-05 9.34126e-05 0.105745)
(3.66511e-05 -3.27362e-05 0.105854)
(5.12161e-05 3.6998e-05 0.108924)
(5.23949e-05 -2.78478e-05 0.108914)
(5.49495e-05 4.56569e-05 0.108903)
(5.21224e-05 -3.00588e-05 0.108916)
(-5.87335e-05 -2.60877e-05 0.108908)
(-5.34787e-05 3.77677e-05 0.108885)
(-5.27285e-05 -3.60865e-05 0.108898)
(8.12219e-05 -8.24736e-05 0.105755)
(-3.37692e-05 3.66744e-05 0.105904)
(-3.36945e-05 -5.22593e-05 0.108908)
(3.29953e-05 -4.90935e-05 0.108915)
(-4.01848e-05 -5.11547e-05 0.108899)
(2.6683e-05 2.83605e-05 0.105881)
(8.67547e-05 8.92635e-05 0.105648)
(-3.38767e-05 -4.66111e-05 0.105767)
(3.73541e-05 5.68048e-05 0.108893)
(-3.47262e-05 5.85195e-05 0.108874)
(3.49437e-05 4.45865e-05 0.108852)
(-1.39822e-05 3.98061e-05 0.108863)
(-7.99963e-05 8.35859e-05 0.105633)
(3.97105e-05 -4.00924e-05 0.105788)
(5.30496e-05 4.13624e-05 0.108894)
(5.18408e-05 -3.38065e-05 0.108909)
(5.19705e-05 2.1486e-05 0.108857)
(4.50572e-05 -3.51562e-05 0.108875)
(-5.40402e-05 -4.5582e-05 0.108895)
(-3.96669e-05 1.20835e-05 0.10887)
(-5.27278e-05 -4.3847e-05 0.108848)
(8.47072e-05 -8.27119e-05 0.105681)
(-3.47907e-05 3.45e-05 0.10578)
(-4.71163e-05 -5.48055e-05 0.108894)
(3.32273e-05 -4.42294e-05 0.108882)
(-3.16251e-05 -5.70804e-05 0.10885)
(3.95888e-05 2.91455e-05 0.105737)
(8.29165e-05 6.71369e-05 0.10555)
(-2.81623e-05 -5.16315e-05 0.105706)
(3.60662e-05 4.22052e-05 0.108843)
(-2.06142e-05 3.74769e-05 0.108872)
(3.66902e-05 3.57423e-05 0.108846)
(-3.5126e-05 5.65245e-05 0.10885)
(-7.59663e-05 7.56872e-05 0.105576)
(4.08386e-05 -3.71572e-05 0.105699)
(5.52101e-05 1.52768e-05 0.108849)
(5.14272e-05 -4.99419e-05 0.108852)
(5.41617e-05 7.56947e-06 0.108845)
(7.03421e-05 -7.79705e-05 0.108739)
(-4.50728e-05 -3.57368e-05 0.108831)
(-5.32257e-05 4.01056e-05 0.108858)
(-3.23419e-05 -2.49463e-05 0.108841)
(8.47105e-05 -8.41634e-05 0.105554)
(-8.10017e-07 4.16062e-06 0.105525)
(-1.62715e-05 -5.47022e-05 0.108836)
(8.22732e-05 -7.01521e-05 0.108744)
(5.35184e-06 -5.46276e-05 0.108838)
(6.01912e-05 3.56826e-05 0.105711)
(8.45574e-05 6.26702e-05 0.105489)
(-2.63729e-05 -1.11993e-05 0.105534)
(4.49756e-05 3.34109e-05 0.108838)
(-5.10788e-06 4.66747e-05 0.108842)
(5.5672e-05 4.23023e-05 0.108767)
(1.01106e-05 9.1627e-06 0.108849)
(-6.34635e-05 6.63755e-05 0.105483)
(6.37817e-05 -5.57247e-05 0.105701)
(5.25481e-05 1.30335e-05 0.108836)
(6.81655e-05 -6.9522e-05 0.108701)
(4.52857e-05 5.68342e-05 0.108777)
(6.30506e-05 -1.40894e-06 0.10861)
(-3.57714e-05 -2.34896e-05 0.108851)
(-8.2691e-06 4.70445e-06 0.108842)
(-2.66863e-05 1.51358e-05 0.108859)
(0.00010536 -0.000101301 0.105299)
(-3.09868e-05 4.78113e-05 0.10539)
(5.43733e-06 -5.38357e-05 0.108847)
(2.52991e-05 -4.97345e-05 0.108607)
(5.45587e-06 -1.58684e-05 0.108879)
(4.90597e-05 7.27725e-05 0.105718)
(7.47794e-05 0.000104392 0.105311)
(-9.32984e-05 1.9239e-05 0.105404)
(3.73364e-05 6.06911e-05 0.108734)
(-5.43285e-05 2.83536e-05 0.108835)
(-5.24914e-05 0.000101762 0.108671)
(-0.000174165 0.000110172 0.108621)
(-6.92745e-05 7.97774e-05 0.105477)
(-5.34189e-05 3.93948e-05 0.105212)
(4.03854e-05 7.92459e-05 0.108742)
(5.0373e-05 2.51013e-05 0.108631)
(1.31852e-05 8.62957e-05 0.108663)
(-8.55261e-07 4.5637e-05 0.108846)
(-2.61664e-05 1.14588e-05 0.108856)
(-0.00010867 0.000152179 0.108618)
(-0.000105159 -7.83801e-05 0.108755)
(6.97587e-05 -5.35281e-05 0.105216)
(-0.000105911 7.1747e-05 0.10569)
(-3.09693e-05 -3.02689e-06 0.108878)
(-8.55718e-05 -1.53388e-05 0.108846)
(-0.000199911 -3.92029e-05 0.108748)
(-8.4736e-05 5.46293e-06 0.105405)
(1.19385e-05 0.00011766 0.105217)
(-1.86964e-05 -2.81922e-05 0.105409)
(-6.29805e-05 9.39929e-05 0.108679)
(-0.000142736 0.00010898 0.108512)
(2.82836e-05 4.8298e-05 0.108687)
(5.99524e-05 2.28262e-05 0.10839)
(-0.000142411 0.000117698 0.104973)
(8.22004e-05 -0.000117517 0.105165)
(7.87567e-06 6.85591e-05 0.10867)
(-2.53605e-06 5.24019e-05 0.108918)
(3.76938e-05 5.62951e-05 0.108685)
(-3.67375e-05 0.00013214 0.109216)
(-0.00013245 -9.35468e-05 0.10868)
(-5.84244e-05 -9.98772e-05 0.10843)
(-8.57618e-05 8.43654e-06 0.108421)
(-1.16255e-05 -3.01214e-05 0.105549)
(-0.000139009 0.00011741 0.106166)
(-0.000213171 -6.31153e-05 0.108661)
(-0.000162844 1.0471e-05 0.109236)
(-3.19923e-05 -6.16593e-05 0.108398)
(5.83846e-05 6.39277e-05 0.105051)
(9.02768e-05 5.68237e-05 0.105208)
(-3.37756e-05 -0.00021833 0.10548)
(4.78139e-05 2.4536e-05 0.108669)
(8.75324e-05 8.52278e-07 0.108448)
(1.95316e-05 -8.02867e-05 0.108678)
(6.86073e-05 -1.00749e-05 0.108743)
(-6.58139e-06 -1.63783e-05 0.105046)
(7.63579e-05 -4.17864e-05 0.10562)
(4.63098e-05 2.08851e-05 0.108661)
(-5.81491e-05 9.11897e-05 0.109325)
(3.6129e-05 -0.000232866 0.108689)
(6.85915e-05 -0.000377616 0.108886)
(-3.44445e-05 4.75038e-05 0.108376)
(3.14151e-05 -3.50798e-05 0.108716)
(9.45478e-05 -1.25069e-05 0.108534)
(-1.51569e-05 7.62989e-06 0.105994)
(0.000169321 -0.000135925 0.105321)
(6.06816e-05 -3.76289e-05 0.108354)
(0.000414624 -4.07919e-05 0.108867)
(0.000236099 -2.43881e-05 0.108556)
(0.000193556 3.40309e-06 0.105462)
(7.18859e-05 -0.000121215 0.105322)
(4.64229e-05 -2.78227e-05 0.105477)
(3.12428e-05 -0.000116987 0.108737)
(8.97686e-05 -2.52e-05 0.108838)
(0.000176206 -2.94223e-05 0.108801)
(-1.71922e-05 -3.94183e-05 0.109003)
(-2.4432e-05 5.74151e-05 0.105448)
(6.02848e-05 -5.00481e-05 0.105687)
(2.39049e-05 -0.000269665 0.108778)
(0.000136056 -0.000424488 0.108466)
(6.46404e-05 4.08719e-05 0.108867)
(0.000152747 -9.68564e-05 0.10753)
(0.000111602 -6.36336e-05 0.108651)
(4.8764e-05 3.46659e-05 0.109004)
(4.24468e-05 -0.000142712 0.108835)
(0.00027731 -0.000250865 0.104893)
(1.0521e-05 -8.45539e-06 0.104079)
(0.000238407 -3.61029e-05 0.108704)
(0.000103702 -0.000154265 0.10754)
(2.02094e-06 -6.24375e-05 0.108903)
(4.94463e-05 -3.09946e-05 0.105515)
(0.000132158 0.000117056 0.105205)
(-0.000150354 0.000122946 0.10489)
(0.000135582 4.14671e-05 0.108731)
(-0.000113218 1.11586e-05 0.108944)
(-8.99216e-05 0.000174244 0.10838)
(-0.000158196 0.000132552 0.108485)
(-8.03013e-05 8.9779e-05 0.105423)
(-2.42922e-05 4.9965e-05 0.1049)
(6.51462e-05 0.000142658 0.108761)
(0.000122519 4.68327e-05 0.107454)
(-1.25701e-05 0.000262319 0.108275)
(-4.17807e-05 0.000373354 0.107901)
(-3.02526e-05 -0.000109233 0.108796)
(-0.000121046 0.000190293 0.108496)
(-0.00017193 0.000130507 0.108582)
(4.95975e-05 -4.39855e-05 0.10398)
(-0.000232301 0.000263602 0.105051)
(-0.000107158 -6.14742e-05 0.108826)
(-0.000336139 5.92317e-05 0.107908)
(-0.000222485 1.95607e-05 0.108472)
(-9.9295e-05 0.0001734 0.105076)
(-4.64667e-05 0.000219175 0.104695)
(7.69435e-05 5.54217e-05 0.104613)
(-9.33367e-05 0.000175447 0.108271)
(-9.38195e-05 0.000136751 0.10832)
(0.000121729 0.000109567 0.108038)
(0.000175754 5.41986e-05 0.108112)
(-9.44247e-05 0.000125188 0.104686)
(0.000162828 -0.000120417 0.104936)
(-2.77392e-05 0.000268303 0.108142)
(-9.29711e-05 0.000395194 0.108232)
(8.60769e-05 0.000153897 0.107984)
(-3.01519e-05 3.95068e-05 0.109269)
(-0.000160036 0.000187857 0.108531)
(-1.03083e-05 -0.000103919 0.108088)
(-2.0478e-05 4.16416e-05 0.108468)
(-0.000132986 0.000167613 0.105106)
(6.90024e-05 -2.57973e-05 0.106342)
(-0.000183046 4.67749e-05 0.108395)
(3.30063e-05 7.92851e-05 0.109254)
(6.21567e-06 7.75948e-06 0.1084)
(6.52189e-05 3.94273e-05 0.105201)
(0.000174407 9.00495e-05 0.104451)
(-0.000162624 -0.000343279 0.105126)
(0.000147119 7.35048e-05 0.107977)
(0.000212545 3.88504e-07 0.108216)
(-0.000180424 -0.000123797 0.108158)
(-0.000123569 -0.000107253 0.108646)
(7.3183e-05 -4.33797e-05 0.104864)
(-7.13561e-05 -7.92757e-05 0.105503)
(0.000140357 2.16941e-05 0.10799)
(2.4853e-05 -0.00014001 0.109422)
(3.4971e-05 -0.000455989 0.108304)
(7.54342e-05 -0.000357534 0.108832)
(2.84532e-05 -6.59439e-05 0.108464)
(1.54776e-05 -6.4884e-05 0.108659)
(5.45548e-05 -0.000188961 0.1084)
(0.000217219 -0.000181623 0.106106)
(-4.44778e-05 -0.000106847 0.105065)
(6.5743e-05 -3.57107e-05 0.108465)
(0.000173864 -0.000163335 0.108863)
(7.83575e-05 -0.000102066 0.108542)
(0.000113202 -7.60329e-05 0.105085)
(-9.73867e-05 -0.000229901 0.105104)
(-9.17854e-05 8.43925e-05 0.105974)
(-0.000283884 -0.000152565 0.108402)
(-0.000295869 -9.73862e-05 0.108628)
(-6.50105e-05 -4.66135e-05 0.109218)
(-0.000273041 6.0961e-05 0.108026)
(-0.000215387 4.35163e-05 0.105256)
(-6.87331e-05 9.19789e-06 0.104418)
(-4.76064e-05 -0.000451989 0.108535)
(4.12447e-05 -0.000307066 0.108483)
(-0.000166643 0.000132113 0.109193)
(-6.06541e-05 2.72083e-05 0.107989)
(2.01492e-05 -0.000135712 0.108356)
(-0.000144609 0.000140221 0.108086)
(-0.000107679 1.68056e-05 0.108129)
(6.52077e-06 -0.000181545 0.104734)
(-0.000159404 9.00868e-05 0.104693)
(2.08564e-05 -8.06228e-05 0.108473)
(-0.00016366 -2.82078e-05 0.108073)
(-0.000183088 1.06523e-05 0.108081)
(-8.53241e-05 9.78284e-05 0.104656)
(5.22069e-05 0.000236428 0.105684)
(4.39461e-05 2.25195e-05 0.104626)
(8.94392e-05 2.58257e-05 0.109247)
(-0.000106615 0.000104093 0.107856)
(0.000228767 0.000126971 0.108383)
(0.000244532 0.000126689 0.10787)
(-0.000103736 0.000100521 0.104197)
(0.000204672 1.39774e-05 0.104545)
(-0.000117507 0.000313542 0.109186)
(-4.51059e-05 0.000134035 0.108059)
(0.000107817 0.00025399 0.108352)
(4.80279e-05 0.000221621 0.108486)
(-0.00011802 2.8684e-05 0.10805)
(2.07621e-05 2.5239e-05 0.107785)
(-5.13615e-05 1.05188e-05 0.107946)
(-4.1392e-05 2.92156e-05 0.10459)
(3.45809e-05 0.000194279 0.105209)
(-0.000190767 2.38893e-05 0.107977)
(5.91254e-05 9.98621e-05 0.108403)
(-1.21216e-05 -3.33025e-05 0.107913)
(4.84847e-05 2.33532e-05 0.104545)
(0.000141752 7.90252e-05 0.104375)
(0.000208406 0.000104569 0.108063)
(0.000279269 0.000110147 0.107979)
(0.0001267 8.08753e-05 0.1045)
(0.000144535 0.000135312 0.108057)
(6.11142e-05 0.00016553 0.108555)
(-1.84062e-05 2.07548e-05 0.107969)
(0.000137124 8.07512e-05 0.105056)
(9.55862e-05 -5.73945e-05 0.107959)
(6.11337e-05 6.12681e-05 0.108853)
(-6.11369e-05 6.11551e-05 0.108853)
(6.11425e-05 -6.11221e-05 0.108853)
(-6.12103e-05 -6.12294e-05 0.108853)
(1.68113e-06 2.15976e-05 0.094016)
(-1.31418e-06 1.98042e-05 0.0835887)
(1.90672e-06 4.3934e-05 0.094075)
(-3.34682e-06 -4.12979e-07 0.0835673)
(-2.34109e-06 6.55279e-06 0.0721749)
(3.31767e-06 -1.83958e-06 0.0721779)
(2.14368e-05 1.62332e-06 0.0940152)
(1.96852e-05 -1.39288e-06 0.0835894)
(4.42191e-05 1.89742e-06 0.0940753)
(-8.66571e-08 -3.40404e-06 0.0835666)
(-6.08182e-05 6.07338e-05 0.108929)
(6.07686e-05 -6.07844e-05 0.108928)
(-6.08215e-05 -6.08408e-05 0.108928)
(5.97157e-05 5.98168e-05 0.109153)
(-5.97288e-05 5.97462e-05 0.109153)
(5.97022e-05 -5.96555e-05 0.109153)
(-5.9762e-05 -5.97177e-05 0.109153)
(-6.15509e-05 4.42287e-06 0.102462)
(-6.07638e-05 1.62466e-05 0.0957202)
(-0.000101089 1.86342e-05 0.10862)
(-9.68726e-05 5.95016e-05 0.108021)
(-0.000105477 4.69134e-06 0.102453)
(-2.88155e-05 5.04156e-06 0.095715)
(-0.000100925 1.85188e-05 0.108686)
(6.65962e-06 -1.87798e-06 0.0721722)
(-1.8817e-06 3.09789e-06 0.0721797)
(4.2712e-06 -6.16726e-05 0.102462)
(1.86125e-05 -0.000101068 0.10862)
(1.65301e-05 -6.06882e-05 0.0957211)
(5.9444e-05 -9.6743e-05 0.108021)
(4.62736e-06 -0.000105476 0.102453)
(1.85161e-05 -0.000100777 0.108686)
(4.7505e-06 -2.87065e-05 0.0957136)
(-2.89694e-05 -1.27189e-05 0.0894003)
(-1.26479e-05 -2.89869e-05 0.0893984)
(7.43352e-06 7.46239e-06 0.106801)
(-1.80069e-05 -1.06266e-06 0.0893671)
(-1.10784e-06 -1.79739e-05 0.0893646)
(1.65438e-06 1.75645e-05 0.0937166)
(-1.29048e-06 1.84235e-05 0.0833667)
(1.60544e-06 3.94272e-05 0.0937646)
(-3.5123e-06 -1.21571e-06 0.0833521)
(-2.20487e-06 6.42494e-06 0.0720239)
(3.77332e-06 -1.66295e-06 0.0720305)
(1.72882e-05 1.48729e-06 0.0937157)
(1.79191e-05 -1.02002e-06 0.0833673)
(3.95995e-05 1.83201e-06 0.0937644)
(-9.87398e-07 -3.65926e-06 0.0833518)
(-5.93721e-05 5.93495e-05 0.109226)
(5.93629e-05 -5.93526e-05 0.109226)
(-5.94421e-05 -5.94425e-05 0.109226)
(5.8175e-05 5.83187e-05 0.109444)
(-5.83276e-05 5.83491e-05 0.109444)
(5.81057e-05 -5.8207e-05 0.109443)
(-5.83574e-05 -5.83099e-05 0.109444)
(-5.49303e-05 3.5906e-06 0.10219)
(-5.62425e-05 1.48321e-05 0.0954291)
(-9.98476e-05 1.80891e-05 0.108878)
(-9.44543e-05 5.86866e-05 0.108194)
(-9.79722e-05 3.79865e-06 0.102183)
(-2.47812e-05 4.07346e-06 0.0954284)
(-9.95966e-05 1.79863e-05 0.10894)
(6.61316e-06 -1.52507e-06 0.0720213)
(-1.74796e-06 3.48976e-06 0.0720325)
(3.47672e-06 -5.49003e-05 0.10219)
(1.80404e-05 -9.98724e-05 0.108878)
(1.52091e-05 -5.59945e-05 0.09543)
(5.84934e-05 -9.43631e-05 0.108194)
(3.72764e-06 -9.77521e-05 0.102183)
(1.79716e-05 -9.9675e-05 0.10894)
(3.18696e-06 -2.52971e-05 0.0954269)
(-2.63699e-05 -1.19831e-05 0.089148)
(-1.17887e-05 -2.64608e-05 0.0891461)
(9.38007e-06 9.40688e-06 0.106827)
(-1.5996e-05 -2.59421e-07 0.0891214)
(-3.17853e-07 -1.60216e-05 0.089119)
(1.28968e-06 1.45103e-05 0.0934454)
(-1.44001e-06 1.72973e-05 0.083166)
(1.00749e-06 3.57001e-05 0.0934842)
(-3.75136e-06 -1.47565e-06 0.0831578)
(-2.17198e-06 6.12561e-06 0.0718872)
(3.07667e-06 -2.05503e-06 0.0718978)
(1.43732e-05 1.02283e-06 0.0934447)
(1.71101e-05 -1.3981e-06 0.0831665)
(3.59432e-05 1.24941e-06 0.0934847)
(-1.6082e-06 -3.73248e-06 0.0831576)
(-5.77488e-05 5.78015e-05 0.109515)
(5.76876e-05 -5.77577e-05 0.109515)
(-5.79806e-05 -5.79754e-05 0.109515)
(5.66963e-05 5.65728e-05 0.109725)
(-5.65943e-05 5.68301e-05 0.109725)
(5.71184e-05 -5.67595e-05 0.109725)
(-5.6407e-05 -5.63771e-05 0.109725)
(-4.87447e-05 3.14549e-06 0.101918)
(-5.24756e-05 1.30215e-05 0.0951587)
(-9.86194e-05 1.75397e-05 0.109122)
(-9.16284e-05 5.71724e-05 0.108348)
(-9.0251e-05 3.23437e-06 0.101913)
(-2.15464e-05 2.81662e-06 0.0951624)
(-9.8274e-05 1.74646e-05 0.109181)
(6.24981e-06 -1.94649e-06 0.0718846)
(-1.85432e-06 3.16469e-06 0.0718992)
(3.04212e-06 -4.8487e-05 0.101918)
(1.74667e-05 -9.86553e-05 0.109122)
(1.40081e-05 -5.18296e-05 0.0951596)
(5.72848e-05 -9.17336e-05 0.108348)
(3.39038e-06 -9.02878e-05 0.101912)
(1.75191e-05 -9.83998e-05 0.10918)
(2.8302e-06 -2.14205e-05 0.095161)
(-2.47673e-05 -1.05301e-05 0.0889182)
(-1.04521e-05 -2.47069e-05 0.0889163)
(1.19687e-05 1.2011e-05 0.106826)
(-1.3924e-05 1.73839e-07 0.0888993)
(2.23516e-07 -1.39811e-05 0.0888968)
(9.87809e-07 1.18972e-05 0.0931998)
(-4.97766e-07 1.56493e-05 0.0829843)
(1.06715e-06 3.29961e-05 0.0932295)
(-2.71867e-06 -2.46054e-06 0.0829825)
(-2.67724e-06 5.98759e-06 0.0717633)
(3.47068e-06 -1.61956e-06 0.0717763)
(1.18863e-05 1.41608e-06 0.0931987)
(1.57687e-05 -4.56661e-07 0.0829847)
(3.31081e-05 1.20581e-06 0.0932301)
(-2.79451e-06 -2.58536e-06 0.0829821)
(-5.61382e-05 5.63123e-05 0.109794)
(5.66671e-05 -5.63341e-05 0.109794)
(-5.61482e-05 -5.61837e-05 0.109794)
(5.52378e-05 5.5386e-05 0.109997)
(-5.55784e-05 5.5435e-05 0.109997)
(5.49059e-05 -5.50292e-05 0.109997)
(-5.55428e-05 -5.53479e-05 0.109997)
(-4.23945e-05 2.43309e-06 0.101651)
(-4.81359e-05 1.28556e-05 0.094909)
(-9.73208e-05 1.72093e-05 0.109352)
(-8.90569e-05 5.65263e-05 0.108483)
(-8.2999e-05 2.76658e-06 0.101644)
(-1.83278e-05 2.21135e-06 0.0949171)