/*--------------------------------*- C++ -*----------------------------------*\
| =========                 |                                                 |
| \\      /  F ield         | OpenFOAM: The Open Source CFD Toolbox           |
|  \\    /   O peration     | Version:  v1906                                 |
|   \\  /    A nd           | Web:      www.OpenFOAM.com                      |
|    \\/     M anipulation  |                                                 |
\*---------------------------------------------------------------------------*/
FoamFile
{
    version     2.0;
    format      ascii;
    class       volVectorField;
    location    "50";
    object      U;
}
// * * * * * * * * * * * * * * * * * * * * * * * * * * * * * * * * * * * * * //

dimensions      [0 1 -1 0 0 0 0];


internalField   nonuniform List<vector> 
42840
(
(-7.81319e-07 -6.9625e-07 0.105112)
(-8.95295e-07 8.98223e-07 0.104856)
(9.12641e-07 -6.487e-07 0.104856)
(-4.4579e-05 -4.42496e-05 0.104513)
(-4.45364e-05 -4.43481e-05 0.104512)
(4.43652e-05 4.45346e-05 0.104513)
(-4.69164e-05 -4.67577e-05 0.104533)
(8.39322e-07 7.47108e-07 0.104856)
(-1.07082e-06 7.99268e-07 0.104856)
(9.33504e-07 9.10107e-07 0.104856)
(-1.01887e-06 8.699e-07 0.104856)
(-4.46294e-05 4.44944e-05 0.104513)
(4.69183e-05 -4.67475e-05 0.104533)
(6.75548e-07 8.95458e-07 0.104856)
(8.45872e-07 -8.98013e-07 0.104855)
(7.70519e-07 9.34052e-07 0.104856)
(8.7706e-07 -8.70451e-07 0.104855)
(-9.38203e-07 -7.34211e-07 0.104856)
(-7.71684e-07 1.01828e-06 0.104856)
(-8.8415e-07 -8.31115e-07 0.104856)
(4.44763e-05 -4.44097e-05 0.104512)
(-4.66886e-05 4.68858e-05 0.104532)
(-9.84471e-07 -5.69802e-07 0.104856)
(9.9611e-07 -6.6198e-07 0.104856)
(-9.70626e-07 -5.67445e-07 0.104856)
(4.67177e-05 4.69755e-05 0.104532)
(-7.83619e-07 -8.01343e-07 0.104856)
(-8.8625e-07 -5.17168e-07 0.104856)
(2.18184e-07 -1.84887e-05 0.0989765)
(6.15523e-07 1.46838e-05 0.0885268)
(-1.3079e-06 -1.43462e-05 0.0885856)
(-4.77821e-07 1.7878e-05 0.0989202)
(-3.79491e-06 7.23035e-06 0.0757414)
(4.23228e-06 -7.37735e-06 0.0758063)
(-1.88182e-05 1.89882e-07 0.0989826)
(1.41538e-05 9.81743e-07 0.0885262)
(-1.47244e-05 -8.20014e-07 0.088586)
(1.80322e-05 -6.11407e-07 0.0989278)
(5.75374e-07 -6.38211e-07 0.105112)
(-6.76663e-07 7.65908e-07 0.105112)
(6.2102e-07 8.26014e-07 0.105112)
(-6.31815e-07 -5.8704e-07 0.105112)
(6.47879e-07 -5.6147e-07 0.105112)
(-5.94127e-07 7.60094e-07 0.105112)
(6.70734e-07 8.40643e-07 0.105112)
(2.24168e-05 3.77958e-07 0.103338)
(-2.06476e-05 9.56845e-06 0.0996959)
(-8.86599e-07 -3.48015e-08 0.105019)
(-8.87895e-07 9.59826e-07 0.104856)
(1.91855e-05 -9.59144e-06 0.0997696)
(-9.34565e-07 -2.34371e-08 0.105019)
(-2.31223e-05 -2.91966e-07 0.10331)
(7.4029e-06 -3.82999e-06 0.0757844)
(-7.23086e-06 4.23743e-06 0.0758528)
(4.3038e-07 2.28317e-05 0.103338)
(-5.24066e-08 -5.82047e-07 0.105019)
(9.53113e-06 -2.02271e-05 0.0996965)
(9.85966e-07 -7.06331e-07 0.104856)
(-1.2482e-08 -6.60409e-07 0.105019)
(-9.95954e-06 1.97228e-05 0.0997687)
(-2.09247e-07 -2.25942e-05 0.103309)
(-7.45419e-06 -8.91161e-06 0.0946426)
(-9.49486e-06 -7.13954e-06 0.0946384)
(4.67629e-05 4.70579e-05 0.104533)
(6.21107e-06 9.4952e-06 0.0947148)
(8.97917e-06 6.0407e-06 0.0947096)
(-7.05311e-06 -9.14217e-06 0.0946419)
(-9.4446e-06 -6.89495e-06 0.0946375)
(4.01026e-06 7.33727e-06 0.0757449)
(-4.1549e-06 -7.35892e-06 0.0758081)
(7.23646e-06 3.97571e-06 0.0757444)
(-7.43393e-06 -3.98359e-06 0.0758068)
(9.04546e-06 7.06585e-06 0.0946441)
(6.97573e-06 9.28287e-06 0.0946428)
(-4.70173e-05 -4.68305e-05 0.104533)
(-9.30075e-06 -6.49103e-06 0.0947155)
(-6.52034e-06 -9.08719e-06 0.0947145)
(-4.06104e-06 -7.47425e-06 0.0758123)
(3.84321e-06 7.09072e-06 0.0757464)
(-7.48657e-06 -3.93692e-06 0.0758079)
(7.24873e-06 4.14998e-06 0.0757439)
(4.43449e-05 4.44813e-05 0.104513)
(-8.95141e-06 -6.36099e-06 0.0947145)
(-6.23277e-06 -8.86388e-06 0.0947145)
(9.06384e-06 7.12972e-06 0.0946439)
(6.96983e-06 9.20722e-06 0.0946422)
(-4.82828e-07 -1.84026e-05 0.0989769)
(-4.11352e-07 1.4387e-05 0.0885273)
(1.38106e-06 -1.43987e-05 0.0885853)
(3.48656e-07 1.8e-05 0.098921)
(3.62322e-07 -2.25627e-05 0.103337)
(9.1514e-06 2.04079e-05 0.0996974)
(-1.4173e-07 6.75672e-07 0.105019)
(8.46197e-07 8.357e-07 0.104856)
(-1.03724e-05 -1.94145e-05 0.0997686)
(-1.14636e-07 8.72838e-07 0.105019)
(-3.6764e-07 2.2764e-05 0.103309)
(-3.75194e-07 -2.26007e-05 0.103337)
(-9.42036e-06 2.03656e-05 0.0996963)
(1.6587e-10 6.5111e-07 0.105018)
(-1.06789e-06 9.04115e-07 0.104856)
(1.01196e-05 -1.94269e-05 0.0997689)
(6.60593e-09 8.41591e-07 0.105018)
(3.19064e-07 2.27029e-05 0.103309)
(-4.99477e-07 1.77334e-05 0.0989202)
(-1.38451e-06 -1.44359e-05 0.0885863)
(4.1447e-07 1.44762e-05 0.0885268)
(2.40423e-07 -1.8121e-05 0.0989768)
(5.14516e-08 1.78429e-05 0.0989206)
(1.89212e-06 -1.39888e-05 0.0885863)
(-3.23487e-07 1.47456e-05 0.0885274)
(-4.81033e-07 -1.79914e-05 0.098977)
(-3.37068e-07 2.2686e-05 0.103309)
(7.93405e-07 7.44601e-07 0.104855)
(-1.0131e-05 -1.92886e-05 0.0997683)
(-2.61666e-08 8.80118e-07 0.105019)
(9.13563e-06 2.03535e-05 0.0996969)
(-7.23674e-08 7.28641e-07 0.105018)
(5.55321e-07 -2.22703e-05 0.103337)
(3.73868e-07 2.26996e-05 0.103309)
(-9.80724e-07 8.21175e-07 0.104855)
(9.97934e-06 -1.91587e-05 0.099769)
(4.29607e-08 7.83889e-07 0.105019)
(-9.12018e-06 2.04645e-05 0.0996961)
(3.06558e-08 6.8039e-07 0.105018)
(-1.30243e-07 -2.22728e-05 0.103337)
(-9.29777e-06 7.18385e-06 0.0946426)
(-7.1808e-06 8.93494e-06 0.0946429)
(4.68511e-05 -4.677e-05 0.104533)
(9.05645e-06 -6.43649e-06 0.0947154)
(6.00728e-06 -8.89736e-06 0.094719)
(-7.63758e-06 3.55383e-06 0.075743)
(7.35523e-06 -4.42596e-06 0.0758121)
(4.39453e-06 -7.30321e-06 0.0758082)
(-3.79556e-06 7.46823e-06 0.0757428)
(-4.4534e-05 4.46098e-05 0.104513)
(8.90373e-06 -6.00711e-06 0.0947158)
(5.96876e-06 -8.51432e-06 0.0947178)
(-9.07815e-06 7.06148e-06 0.0946421)
(-7.10401e-06 9.15056e-06 0.0946419)
(7.85265e-06 -4.34629e-06 0.0758171)
(-7.13779e-06 3.41184e-06 0.0757453)
(-2.27569e-05 2.93069e-07 0.103339)
(2.03868e-05 9.76457e-06 0.0996956)
(6.18127e-07 -9.99921e-08 0.105018)
(7.5172e-07 9.01632e-07 0.104856)
(-1.95289e-05 -1.01009e-05 0.0997693)
(7.97153e-07 -7.71103e-08 0.105018)
(2.26365e-05 -4.68063e-07 0.10331)
(-1.84478e-05 -6.68438e-07 0.0989766)
(1.45773e-05 -5.33789e-07 0.0885346)
(-1.44122e-05 1.3368e-06 0.0885951)
(1.80926e-05 2.96562e-07 0.0989224)
(-2.25608e-05 -5.10451e-07 0.103337)
(6.583e-07 9.72206e-08 0.105018)
(2.0389e-05 -9.36238e-06 0.0996855)
(8.89071e-07 -9.17702e-07 0.104855)
(8.24731e-07 1.00983e-07 0.105018)
(-1.9276e-05 9.82878e-06 0.0997597)
(2.27558e-05 3.08977e-07 0.103309)
(1.76035e-05 -4.282e-07 0.0989286)
(-1.43918e-05 -1.26649e-06 0.0885876)
(1.43505e-05 8.9064e-07 0.0885266)
(-1.84104e-05 3.86442e-07 0.0989829)
(2.25351e-05 -3.79956e-07 0.10331)
(6.53834e-07 8.50423e-07 0.104855)
(-1.93705e-05 -1.02297e-05 0.0997694)
(7.86924e-07 -2.65352e-08 0.105018)
(2.02387e-05 9.20103e-06 0.0996954)
(6.4059e-07 -6.07317e-08 0.105018)
(-2.23326e-05 5.0221e-07 0.103339)
(1.79375e-05 1.62833e-07 0.0989226)
(-1.41651e-05 1.05969e-06 0.0885946)
(1.46361e-05 -6.27721e-07 0.0885336)
(-1.81123e-05 -4.45231e-07 0.0989767)
(2.2679e-05 3.73659e-07 0.103309)
(8.2785e-07 -8.39914e-07 0.104855)
(8.05577e-07 1.40676e-07 0.105018)
(-1.89577e-05 9.47886e-06 0.09976)
(6.70739e-07 1.38237e-07 0.105018)
(2.05653e-05 -9.62038e-06 0.0996851)
(-2.22713e-05 -3.11477e-07 0.103337)
(1.79331e-05 2.99125e-07 0.0989764)
(-1.50173e-05 9.9825e-08 0.0885287)
(1.43313e-05 -1.50477e-06 0.088588)
(-1.86483e-05 -3.93e-07 0.0989211)
(2.24488e-05 -1.29685e-07 0.103338)
(-8.61331e-07 2.25646e-07 0.105019)
(-2.07314e-05 -9.60501e-06 0.0996954)
(-9.49068e-07 -7.61492e-07 0.104856)
(-9.35021e-07 2.33221e-07 0.105019)
(1.91446e-05 9.94557e-06 0.0997675)
(-2.30687e-05 6.04964e-07 0.10331)
(1.80615e-05 5.9976e-09 0.098977)
(-1.4733e-05 1.45644e-07 0.0885277)
(1.42782e-05 1.53458e-06 0.0885851)
(-1.84886e-05 6.21682e-07 0.0989209)
(-2.28094e-05 -3.51621e-07 0.103309)
(-7.42961e-07 9.28161e-07 0.104856)
(1.93559e-05 -9.54343e-06 0.0997692)
(-7.63678e-07 4.87081e-09 0.105019)
(-2.04851e-05 9.77101e-06 0.0996953)
(-7.49587e-07 -2.84238e-08 0.105019)
(2.2468e-05 4.35052e-07 0.103337)
(-1.82818e-05 -4.13336e-07 0.0989202)
(1.48384e-05 -1.42255e-06 0.088588)
(-1.45672e-05 3.57551e-07 0.0885272)
(1.80235e-05 2.7486e-07 0.0989763)
(-2.27651e-05 5.13635e-07 0.10331)
(-7.82893e-07 -7.58652e-07 0.104855)
(-7.99952e-07 1.94739e-07 0.105019)
(1.9304e-05 1.00056e-05 0.0997676)
(-7.24662e-07 2.0875e-07 0.105018)
(-2.06228e-05 -9.31959e-06 0.0996951)
(2.24307e-05 -3.05758e-07 0.103338)
(-1.81184e-05 5.53641e-07 0.0989208)
(1.43391e-05 1.39621e-06 0.0885852)
(-1.46358e-05 -3.33877e-07 0.0885269)
(1.80884e-05 -8.47319e-08 0.0989773)
(7.04507e-06 -9.09587e-06 0.0946237)
(9.16936e-06 -6.49775e-06 0.0946426)
(-4.66889e-05 4.68296e-05 0.104533)
(-6.22108e-06 8.9293e-06 0.0946997)
(-8.81169e-06 6.74488e-06 0.0947149)
(4.12259e-06 -7.25519e-06 0.075746)
(-3.80622e-06 7.39171e-06 0.0758073)
(-7.00353e-06 4.0153e-06 0.0758508)
(7.51162e-06 -3.98029e-06 0.0757842)
(4.44864e-05 -4.44405e-05 0.104513)
(-6.41491e-06 8.85565e-06 0.0947)
(-8.68151e-06 6.93741e-06 0.0947162)
(6.79993e-06 -9.17996e-06 0.0946227)
(9.54284e-06 -6.79241e-06 0.0946424)
(-3.24062e-06 6.9317e-06 0.0758036)
(4.54996e-06 -7.26446e-06 0.0757443)
(-2.69981e-07 2.2748e-05 0.103339)
(9.36629e-08 -5.05118e-07 0.105019)
(-9.69102e-06 -2.02517e-05 0.0996923)
(-1.00766e-06 -6.19186e-07 0.104856)
(1.10697e-07 -6.1752e-07 0.105019)
(9.87685e-06 1.96371e-05 0.0997652)
(5.43533e-07 -2.25579e-05 0.10331)
(3.60323e-07 1.85148e-05 0.0989785)
(1.21174e-06 -1.43717e-05 0.0885258)
(-4.82119e-07 1.4641e-05 0.0885839)
(-3.3897e-07 -1.79577e-05 0.0989202)
(-2.60695e-07 1.85236e-05 0.0989794)
(-6.81409e-07 -1.43166e-05 0.0885264)
(1.34632e-06 1.47078e-05 0.0885853)
(3.99939e-07 -1.79201e-05 0.0989224)
(-2.88425e-07 -2.22878e-05 0.103309)
(9.23432e-07 -6.03019e-07 0.104855)
(1.06988e-08 -6.21145e-07 0.105019)
(-9.94942e-06 1.95202e-05 0.0997691)
(-1.41886e-08 -5.38352e-07 0.105018)
(9.52864e-06 -2.01684e-05 0.0996965)
(6.17044e-07 2.26511e-05 0.103338)
(3.56194e-07 -2.24087e-05 0.10331)
(-9.42334e-07 -4.72621e-07 0.104855)
(1.38833e-07 -5.51003e-07 0.105019)
(9.71891e-06 1.95644e-05 0.0997653)
(1.22496e-07 -4.54343e-07 0.105018)
(-9.60521e-06 -2.01697e-05 0.0996921)
(-3.5784e-07 2.25266e-05 0.103339)
(-2.49336e-07 -1.74993e-05 0.0989202)
(-3.5557e-07 1.44775e-05 0.0885851)
(1.47655e-06 -1.42897e-05 0.0885259)
(4.94061e-07 1.85055e-05 0.0989786)
(4.27103e-07 -1.76631e-05 0.0989231)
(1.02609e-06 1.47771e-05 0.0885858)
(-6.49004e-07 -1.40755e-05 0.0885261)
(-1.06209e-07 1.83524e-05 0.0989801)
(-7.24407e-06 -3.23961e-06 0.0757475)
(7.01759e-06 4.50744e-06 0.0758109)
(-3.87387e-06 -7.04924e-06 0.0757542)
(4.4213e-06 7.61558e-06 0.0758199)
(-4.45354e-05 -4.42888e-05 0.104513)
(6.31251e-06 9.06117e-06 0.0947152)
(8.94853e-06 6.67583e-06 0.0947096)
(-7.25732e-06 -8.74103e-06 0.0946417)
(-9.17701e-06 -7.15855e-06 0.0946373)
(7.31525e-06 4.40572e-06 0.075811)
(-7.69788e-06 -3.64611e-06 0.0757479)
(4.16809e-06 7.26215e-06 0.0758222)
(-3.75073e-06 -7.00374e-06 0.0757579)
(-6.228e-07 1.86935e-07 0.105019)
(-2.02612e-05 -9.35206e-06 0.0996953)
(-2.26329e-05 3.69165e-07 0.10331)
(-1.45299e-05 -6.17003e-07 0.0885267)
(-1.80489e-05 5.42799e-07 0.0989211)
(-9.73923e-06 -1.99702e-05 0.0996925)
(-9.91987e-07 -1.39579e-05 0.0885266)
(-7.17012e-06 -3.75256e-06 0.0757482)
(-4.0351e-06 -7.0562e-06 0.0757589)
(-1.66291e-06 5.55598e-06 0.0824702)
(7.4448e-08 -5.07474e-06 0.0849151)
(-7.37592e-08 -1.83263e-05 0.0976658)
(-5.10236e-07 1.77742e-05 0.0989203)
(-6.64193e-07 5.1008e-06 0.0848728)
(-3.67367e-07 1.77241e-05 0.0975978)
(2.34456e-07 -5.86925e-06 0.0825232)
(9.88835e-07 -6.13016e-06 0.071953)
(-1.3721e-06 -1.41828e-05 0.0885854)
(-7.39442e-07 1.40557e-05 0.0932019)
(1.30456e-08 -1.40618e-05 0.0932853)
(-1.70039e-06 5.76463e-06 0.0718657)
(-1.75801e-06 6.17219e-06 0.0718676)
(1.1215e-07 -1.37758e-05 0.0932851)
(5.57359e-07 1.45986e-05 0.0885276)
(-8.98167e-07 1.39274e-05 0.0932022)
(5.41293e-07 -6.77632e-06 0.0719551)
(6.0536e-07 -5.77144e-06 0.0825236)
(2.29917e-07 -1.83466e-05 0.0989763)
(-6.99907e-07 5.03899e-06 0.084873)
(-3.27074e-07 1.77081e-05 0.097598)
(7.61019e-08 -5.05096e-06 0.0849149)
(-4.63728e-09 -1.81706e-05 0.0976657)
(-1.76836e-06 5.41273e-06 0.08247)
(4.25189e-06 -7.34628e-06 0.0758045)
(-3.66502e-06 6.9982e-06 0.0757432)
(5.45183e-06 -2.03791e-06 0.0824628)
(-1.86987e-05 -2.07516e-07 0.0976714)
(-5.03628e-06 -1.12732e-07 0.0849053)
(1.7647e-05 -5.46414e-07 0.0989282)
(1.75043e-05 -5.33316e-07 0.0976058)
(5.2663e-06 -9.21267e-07 0.084866)
(-6.31166e-06 -6.62335e-08 0.0825121)
(-7.13447e-06 5.37681e-07 0.0719419)
(-1.47443e-05 -6.50885e-07 0.0885857)
(1.4229e-05 -5.54402e-07 0.0932022)
(-1.386e-05 3.97917e-07 0.0932829)
(5.9096e-06 -1.54001e-06 0.0718601)
(5.28724e-06 -2.08324e-06 0.0718676)
(-1.38014e-05 3.91595e-07 0.0932828)
(1.40358e-05 9.57843e-07 0.0885272)
(1.40709e-05 -6.22326e-07 0.0932029)
(-7.3145e-06 3.57821e-07 0.0719487)
(-5.79989e-06 3.12423e-07 0.0825118)
(-1.85273e-05 7.85707e-08 0.0989819)
(1.75375e-05 -4.39473e-07 0.0976056)
(5.44998e-06 -7.94627e-07 0.0848664)
(-1.87271e-05 -2.84759e-07 0.0976714)
(-4.90289e-06 -1.40478e-07 0.0849054)
(5.63712e-06 -1.40896e-06 0.0824625)
(-7.11224e-06 4.12099e-06 0.0758538)
(7.55463e-06 -3.96837e-06 0.0757845)
(-8.14047e-06 -7.76426e-06 0.0912016)
(2.82925e-06 8.03407e-06 0.0725865)
(7.67858e-06 3.12273e-06 0.072581)
(-2.20886e-06 -6.75383e-06 0.0725123)
(-7.12255e-06 -1.88638e-06 0.0725071)
(7.06833e-06 7.4075e-06 0.0912724)
(2.24425e-05 8.82933e-06 0.0990148)
(-2.72971e-05 -1.19079e-05 0.102087)
(5.99996e-06 9.33399e-06 0.094715)
(-5.57795e-06 -4.07565e-06 0.0875395)
(2.65462e-05 1.18128e-05 0.102129)
(4.54839e-06 4.34331e-06 0.0876084)
(-2.22391e-05 -8.11332e-06 0.0989479)
(8.47703e-06 2.27412e-05 0.0990095)
(-1.23003e-05 -2.68377e-05 0.102083)
(8.84631e-06 6.27773e-06 0.0947098)
(-4.58871e-06 -5.30514e-06 0.0875376)
(1.14991e-05 2.69202e-05 0.102125)
(3.94958e-06 4.89526e-06 0.0876052)
(-8.61529e-06 -2.19808e-05 0.098943)
(-2.19273e-05 -7.96521e-06 0.0989481)
(4.97613e-06 4.97834e-06 0.087609)
(-7.26927e-06 -8.71747e-06 0.0946429)
(2.67116e-05 1.16827e-05 0.102129)
(-2.70431e-05 -1.19319e-05 0.102086)
(-5.20159e-06 -3.58519e-06 0.0875407)
(2.25443e-05 8.86088e-06 0.0990146)
(-8.35788e-06 -2.15981e-05 0.0989433)
(4.70041e-06 5.34289e-06 0.087606)
(-9.24724e-06 -7.03952e-06 0.0946391)
(1.14085e-05 2.70527e-05 0.102124)
(-1.22886e-05 -2.65768e-05 0.102082)
(-4.0016e-06 -4.871e-06 0.0875387)
(8.64824e-06 2.29087e-05 0.0990093)
(7.66002e-06 8.00541e-06 0.0912738)
(-2.95139e-06 -7.26767e-06 0.0725118)
(-7.5514e-06 -2.6438e-06 0.0725066)
(1.97174e-06 7.31888e-06 0.0725832)
(7.03423e-06 2.26995e-06 0.0725777)
(-7.26893e-06 -6.90227e-06 0.0912009)
(2.2454e-05 8.35513e-06 0.0990136)
(-2.68881e-05 -1.22621e-05 0.102086)
(-4.97e-06 -3.7291e-06 0.087541)
(6.38396e-06 8.91464e-06 0.0947139)
(-2.21094e-05 -8.41278e-06 0.0989474)
(2.69145e-05 1.13734e-05 0.102128)
(5.05225e-06 4.28239e-06 0.0876094)
(8.33675e-06 2.27306e-05 0.0990085)
(-1.25273e-05 -2.65909e-05 0.102082)
(-3.95062e-06 -4.82949e-06 0.0875398)
(8.61634e-06 6.46119e-06 0.094708)
(-8.61137e-06 -2.18901e-05 0.0989427)
(1.12166e-05 2.71245e-05 0.102123)
(4.16162e-06 5.2666e-06 0.0876072)
(7.5638e-06 7.78097e-06 0.0912693)
(-2.32203e-06 -6.86572e-06 0.0725198)
(-7.00553e-06 -2.17072e-06 0.0725148)
(-8.33529e-06 -8.10001e-06 0.0911993)
(2.27726e-06 7.318e-06 0.0725933)
(7.11531e-06 2.44779e-06 0.072588)
(-4.12626e-06 -7.34785e-06 0.075808)
(3.88866e-06 7.13373e-06 0.0757462)
(-7.34352e-06 -3.93496e-06 0.0758065)
(7.02075e-06 4.09793e-06 0.0757449)
(7.7154e-06 7.77428e-06 0.0911983)
(-7.89304e-06 -2.91165e-06 0.0725913)
(-2.88998e-06 -7.92414e-06 0.072585)
(6.93365e-06 2.1198e-06 0.0725165)
(2.0967e-06 6.92846e-06 0.0725101)
(-7.16036e-06 -7.14659e-06 0.0912681)
(-8.38955e-06 -2.24747e-05 0.0990127)
(1.22804e-05 2.70516e-05 0.102087)
(-9.09815e-06 -6.29892e-06 0.0947151)
(3.94693e-06 5.28726e-06 0.0875415)
(-4.12736e-06 -4.71327e-06 0.0876086)
(-1.15512e-05 -2.6776e-05 0.102129)
(8.51909e-06 2.22035e-05 0.0989467)
(-2.25971e-05 -8.32e-06 0.099008)
(2.68151e-05 1.23419e-05 0.102084)
(-6.44404e-06 -8.91465e-06 0.0947147)
(5.18521e-06 4.11878e-06 0.0875369)
(-4.82702e-06 -3.97432e-06 0.0876039)
(-2.6951e-05 -1.14908e-05 0.102127)
(2.20355e-05 8.6261e-06 0.0989423)
(8.39488e-06 2.19291e-05 0.0989469)
(-4.66758e-06 -5.09964e-06 0.0876088)
(8.90128e-06 6.75955e-06 0.0946451)
(-1.14836e-05 -2.69026e-05 0.102128)
(3.8664e-06 5.03824e-06 0.0875424)
(-8.5207e-06 -2.25863e-05 0.0990123)
(1.21827e-05 2.68682e-05 0.102087)
(2.17591e-05 8.49628e-06 0.0989425)
(-5.19735e-06 -4.67411e-06 0.0876042)
(6.97253e-06 9.27569e-06 0.0946436)
(-2.70039e-05 -1.14127e-05 0.102126)
(5.00512e-06 3.9934e-06 0.0875376)
(-2.2724e-05 -8.48744e-06 0.0990076)
(2.66628e-05 1.22856e-05 0.102084)
(-7.85758e-06 -7.8092e-06 0.0912693)
(6.9467e-06 2.57421e-06 0.0725167)
(2.49668e-06 7.0324e-06 0.0725104)
(-7.15865e-06 -1.96328e-06 0.0725892)
(-2.00839e-06 -7.15863e-06 0.0725828)
(8.04068e-06 8.12005e-06 0.0911978)
(3.83255e-06 6.84906e-06 0.0757477)
(-4.15729e-06 -7.53383e-06 0.0758103)
(7.05403e-06 4.12807e-06 0.0757445)
(-7.48343e-06 -3.89812e-06 0.0758074)
(-7.62548e-06 -7.69686e-06 0.0912671)
(6.61988e-06 1.97721e-06 0.0725197)
(2.07643e-06 6.50858e-06 0.0725133)
(8.1145e-06 8.08259e-06 0.0911972)
(-7.24573e-06 -2.51614e-06 0.0725944)
(-2.42024e-06 -7.38935e-06 0.0725879)
(8.60993e-06 2.22215e-05 0.098946)
(-1.13164e-05 -2.66429e-05 0.102128)
(9.37962e-06 7.38157e-06 0.0946439)
(-4.15733e-06 -4.91062e-06 0.0876101)
(3.99884e-06 5.01814e-06 0.087542)
(1.24213e-05 2.70369e-05 0.102087)
(-8.15362e-06 -2.22218e-05 0.0990116)
(2.22107e-05 8.76529e-06 0.0989416)
(-2.67239e-05 -1.12674e-05 0.102127)
(6.88695e-06 9.29178e-06 0.0946423)
(-4.87934e-06 -4.15749e-06 0.0876046)
(5.06195e-06 4.01345e-06 0.0875369)
(2.68877e-05 1.25019e-05 0.102084)
(-2.22007e-05 -8.10835e-06 0.0990068)
(-8.3583e-06 -2.25698e-05 0.0990123)
(3.64131e-06 5.01101e-06 0.0875414)
(1.24098e-05 2.69803e-05 0.102087)
(-9.03626e-06 -6.56832e-06 0.0947157)
(8.42526e-06 2.20985e-05 0.0989467)
(-4.34887e-06 -5.29927e-06 0.0876097)
(-1.13751e-05 -2.70803e-05 0.102128)
(-2.26032e-05 -8.30609e-06 0.0990076)
(4.93166e-06 3.60421e-06 0.0875365)
(2.68234e-05 1.24898e-05 0.102084)
(-6.64865e-06 -8.9641e-06 0.0947149)
(2.20101e-05 8.58374e-06 0.0989423)
(-5.25166e-06 -4.32382e-06 0.0876048)
(-2.71435e-05 -1.13159e-05 0.102126)
(7.51097e-06 7.43301e-06 0.0911964)
(-6.91482e-06 -2.08794e-06 0.0725943)
(-2.01701e-06 -7.06832e-06 0.0725878)
(7.32653e-06 2.37535e-06 0.0725204)
(2.47523e-06 7.15348e-06 0.0725139)
(-7.97757e-06 -8.06886e-06 0.0912671)
(1.6548e-06 5.49426e-06 0.0824723)
(-5.75453e-07 -5.01958e-06 0.0849141)
(7.3249e-08 -1.86877e-05 0.0976659)
(1.9752e-07 1.78707e-05 0.0989209)
(3.09665e-07 5.13529e-06 0.0848723)
(3.21027e-07 1.76026e-05 0.0975993)
(-5.90484e-07 -5.9025e-06 0.082521)
(-8.93709e-07 -6.36259e-06 0.0719357)
(1.38022e-06 -1.45183e-05 0.088585)
(7.77985e-07 1.38472e-05 0.0932049)
(-4.96782e-08 -1.38916e-05 0.0932863)
(1.51526e-06 5.99478e-06 0.0718602)
(1.95013e-06 5.71903e-06 0.0718634)
(-1.33782e-07 -1.37106e-05 0.0932852)
(-2.57727e-07 1.44145e-05 0.0885282)
(8.36266e-07 1.43802e-05 0.0932051)
(-5.57264e-07 -6.82021e-06 0.0719393)
(-8.35522e-07 -5.71025e-06 0.0825223)
(-3.64207e-07 -1.82402e-05 0.0989769)
(4.37131e-07 5.13938e-06 0.0848727)
(2.59351e-07 1.77461e-05 0.0975994)
(-4.02388e-07 -4.96837e-06 0.0849142)
(1.25179e-07 -1.86026e-05 0.097666)
(1.35852e-06 5.56364e-06 0.0824731)
(3.19291e-07 -5.76696e-06 0.082524)
(-6.58462e-07 5.0907e-06 0.0848724)
(-2.54044e-07 1.76939e-05 0.0975973)
(1.7943e-07 -1.85008e-05 0.0989766)
(-1.78364e-06 5.53011e-06 0.0824705)
(4.80631e-08 -5.0239e-06 0.0849148)
(-1.31794e-07 -1.83146e-05 0.0976656)
(-1.77001e-06 6.05326e-06 0.0718747)
(3.42877e-07 1.4465e-05 0.0885274)
(1.1316e-07 -1.3548e-05 0.0932846)
(7.39174e-07 -6.32006e-06 0.0719583)
(-8.1652e-07 1.38252e-05 0.0931996)
(6.30901e-07 -6.33546e-06 0.0719577)
(-7.32369e-07 1.39146e-05 0.0931997)
(-1.44665e-06 -1.44375e-05 0.0885864)
(-1.7855e-06 5.74669e-06 0.0718723)
(-6.58978e-08 -1.40716e-05 0.0932852)
(-1.6615e-06 5.64902e-06 0.0824707)
(-5.15427e-07 1.77758e-05 0.0989206)
(-1.0828e-07 -4.80571e-06 0.0849147)
(-3.96515e-08 -1.82024e-05 0.0976656)
(2.93481e-07 -5.66138e-06 0.0825241)
(-6.96196e-07 5.14022e-06 0.0848727)
(-2.8081e-07 1.77275e-05 0.0975976)
(-6.11529e-07 -5.79129e-06 0.0825203)
(8.8126e-08 5.14421e-06 0.0848717)
(6.97362e-08 1.77297e-05 0.0975988)
(-5.84414e-07 -1.84421e-05 0.0989769)
(1.57094e-06 5.76774e-06 0.0824713)
(-6.24329e-07 -4.96532e-06 0.0849136)
(1.43999e-08 -1.8554e-05 0.0976656)
(1.89493e-06 6.31764e-06 0.0718686)
(-5.61556e-08 1.48762e-05 0.0885279)
(1.89985e-07 -1.41775e-05 0.0932823)
(8.85893e-07 1.44727e-05 0.093201)
(-5.51622e-07 -5.64191e-06 0.071943)
(-6.0788e-07 -6.4739e-06 0.0719442)
(6.82756e-07 1.47126e-05 0.0932023)
(1.61957e-06 -1.42902e-05 0.0885864)
(1.92646e-06 5.47112e-06 0.0718676)
(1.09026e-07 -1.37575e-05 0.093284)
(1.13572e-06 6.18433e-06 0.0824694)
(3.75811e-08 1.79484e-05 0.098921)
(-1.15512e-06 -4.59632e-06 0.0849132)
(2.73034e-10 -1.87616e-05 0.0976668)
(-3.0555e-07 5.28174e-06 0.0848718)
(1.16861e-07 1.73616e-05 0.0975992)
(-1.28686e-06 -4.60323e-06 0.0825165)
(-7.92888e-06 7.78071e-06 0.0911955)
(7.65212e-06 -2.87693e-06 0.0725924)
(2.87627e-06 -7.69332e-06 0.0725983)
(-7.3557e-06 2.35941e-06 0.0725171)
(-2.43017e-06 7.20031e-06 0.0725229)
(7.12843e-06 -7.20569e-06 0.0912656)
(8.17651e-06 -2.24978e-05 0.0990077)
(-1.25999e-05 2.68384e-05 0.102086)
(8.80532e-06 -6.2207e-06 0.0947157)
(-3.74322e-06 4.83323e-06 0.0875359)
(4.24803e-06 -5.091e-06 0.0876047)
(1.11872e-05 -2.69393e-05 0.102129)
(-8.74174e-06 2.20929e-05 0.0989412)
(2.23244e-05 -8.34038e-06 0.0990121)
(-2.70328e-05 1.23884e-05 0.102086)
(6.24129e-06 -9.03658e-06 0.0947191)
(-5.01559e-06 3.52827e-06 0.0875412)
(2.6751e-05 -1.13569e-05 0.102129)
(4.8952e-06 -4.43058e-06 0.0876105)
(-2.23144e-05 8.55016e-06 0.098946)
(-8.63918e-06 2.19719e-05 0.0989411)
(4.62656e-06 -5.1535e-06 0.0876053)
(-9.25937e-06 7.20488e-06 0.0946432)
(1.12058e-05 -2.67938e-05 0.102128)
(-4.03539e-06 4.93154e-06 0.0875369)
(-1.24043e-05 2.6834e-05 0.102086)
(8.32753e-06 -2.25189e-05 0.0990073)
(-2.21288e-05 8.56668e-06 0.0989457)
(5.04786e-06 -4.59088e-06 0.0876109)
(-7.0622e-06 9.04583e-06 0.0946437)
(2.68271e-05 -1.13255e-05 0.102129)
(-2.68152e-05 1.22646e-05 0.102086)
(-4.98073e-06 4.00892e-06 0.087542)
(2.24678e-05 -8.38331e-06 0.0990115)
(7.74445e-06 -7.94125e-06 0.0912669)
(-6.85653e-06 2.17461e-06 0.072517)
(-2.37332e-06 6.62626e-06 0.0725228)
(7.27497e-06 -2.36795e-06 0.0725907)
(2.19821e-06 -7.46328e-06 0.0725966)
(-8.2459e-06 8.01354e-06 0.0911958)
(6.93699e-06 -4.38202e-06 0.075811)
(-7.3206e-06 3.48247e-06 0.0757439)
(-3.73543e-06 7.30799e-06 0.0757442)
(4.26775e-06 -7.35373e-06 0.0758074)
(7.72794e-06 -7.69463e-06 0.0912658)
(-6.73197e-06 2.21811e-06 0.0725193)
(-2.1009e-06 6.80007e-06 0.0725252)
(-7.39343e-06 7.39099e-06 0.0911942)
(6.83255e-06 -2.01894e-06 0.0725919)
(2.14555e-06 -6.73612e-06 0.0725978)
(-8.59782e-06 2.22726e-05 0.0989403)
(1.13111e-05 -2.65002e-05 0.102128)
(-9.15262e-06 7.08492e-06 0.0946422)
(4.08529e-06 -4.76892e-06 0.0876061)
(-1.24125e-05 2.72181e-05 0.102085)
(-4.14435e-06 5.26765e-06 0.0875365)
(8.39111e-06 -2.22464e-05 0.0990073)
(-2.21214e-05 8.63413e-06 0.0989448)
(2.67431e-05 -1.12884e-05 0.102128)
(-7.15323e-06 9.45463e-06 0.0946415)
(4.91705e-06 -3.91226e-06 0.0876118)
(-5.07725e-06 4.38418e-06 0.0875417)
(-2.68818e-05 1.24132e-05 0.102086)
(2.24396e-05 -8.32875e-06 0.0990112)
(8.33035e-06 -2.24528e-05 0.0990078)
(-3.72838e-06 5.03953e-06 0.0875359)
(-1.24948e-05 2.7085e-05 0.102086)
(8.8375e-06 -6.32371e-06 0.094716)
(1.13316e-05 -2.68601e-05 0.102128)
(-8.62559e-06 2.2209e-05 0.0989409)
(3.91963e-06 -4.96595e-06 0.087606)
(2.25302e-05 -8.27332e-06 0.0990118)
(-5.02028e-06 3.90481e-06 0.0875412)
(-2.68862e-05 1.24194e-05 0.102086)
(6.33723e-06 -8.67462e-06 0.094719)
(-2.21688e-05 8.5592e-06 0.0989455)
(5.06624e-06 -3.7862e-06 0.0876115)
(2.70774e-05 -1.13611e-05 0.102129)
(-7.50906e-06 7.60556e-06 0.0911939)
(7.03499e-06 -2.06235e-06 0.0725914)
(2.26657e-06 -6.84252e-06 0.0725974)
(-7.31985e-06 2.63426e-06 0.0725181)
(-2.41574e-06 7.49805e-06 0.0725239)
(7.96211e-06 -7.85297e-06 0.0912662)
(-6.73781e-06 3.59489e-06 0.0757478)
(7.58245e-06 -4.33017e-06 0.0758143)
(5.97307e-06 5.97406e-07 0.0824809)
(-5.00869e-06 -7.78311e-07 0.08491)
(-1.81432e-05 -3.4554e-07 0.0976533)
(1.79504e-05 1.8954e-07 0.0989226)
(5.25795e-06 7.6069e-08 0.0848701)
(1.78178e-05 1.64621e-07 0.0975855)
(-5.36473e-06 -1.70387e-06 0.0825332)
(-5.63543e-06 -1.48194e-06 0.0720388)
(-1.43189e-05 1.25949e-06 0.0885953)
(1.36505e-05 8.26194e-07 0.0931736)
(-1.44676e-05 -4.38821e-08 0.0932579)
(6.30614e-06 1.26951e-06 0.0719555)
(6.62494e-06 1.24241e-06 0.0719518)
(-1.45491e-05 -9.35974e-08 0.0932587)
(1.45148e-05 -6.17055e-07 0.0885351)
(1.37633e-05 9.22343e-07 0.0931751)
(-5.87885e-06 -1.34521e-06 0.0720357)
(-5.36235e-06 -1.61963e-06 0.0825342)
(-1.83228e-05 -5.82159e-07 0.0989763)
(5.32153e-06 3.81273e-07 0.0848702)
(1.77613e-05 2.23767e-07 0.0975853)
(-4.96474e-06 -5.88259e-07 0.0849097)
(-1.81397e-05 -2.62067e-07 0.097653)
(5.90273e-06 9.43486e-07 0.0824814)
(-6.00416e-06 -7.55398e-08 0.0825136)
(1.75556e-05 -2.5567e-07 0.0976053)
(5.15639e-06 -8.16595e-07 0.0848656)
(-1.86896e-05 2.78557e-07 0.098983)
(5.16449e-06 -2.20202e-06 0.082464)
(-1.88772e-05 -1.87572e-07 0.0976709)
(-5.24548e-06 -2.37074e-07 0.0849052)
(5.2115e-06 -1.93006e-06 0.0718843)
(1.44375e-05 5.78633e-07 0.0885276)
(-1.38547e-05 1.82144e-07 0.0932801)
(-6.62791e-06 7.61943e-07 0.0719623)
(1.47184e-05 -5.68367e-07 0.0931994)
(-7.2736e-06 4.43083e-07 0.0719565)
(1.41445e-05 -4.16484e-07 0.0932007)
(-1.46066e-05 -9.55687e-07 0.0885871)
(5.04538e-06 -1.97014e-06 0.0718766)
(-1.3693e-05 2.15993e-07 0.0932825)
(5.38671e-06 -1.94563e-06 0.0824643)
(1.78421e-05 -2.19391e-07 0.098929)
(-1.84228e-05 1.17128e-07 0.0976704)
(-5.25811e-06 8.80439e-08 0.0849059)
(-6.25939e-06 3.86543e-07 0.0825138)
(1.75029e-05 -1.61595e-07 0.0976051)
(4.88558e-06 -6.91664e-07 0.0848665)
(-5.1241e-06 -2.28506e-06 0.0825333)
(5.23602e-06 -5.07295e-08 0.08487)
(1.79397e-05 -1.61513e-08 0.0975855)
(-1.84116e-05 -5.51606e-07 0.0989766)
(6.09358e-06 1.86915e-07 0.0824807)
(-5.02141e-06 -8.71957e-07 0.0849101)
(-1.8057e-05 -2.60915e-07 0.0976536)
(6.73169e-06 1.0231e-06 0.0719398)
(1.46347e-05 -5.3377e-07 0.0885334)
(-1.48104e-05 -6.19259e-08 0.093261)
(1.40466e-05 8.49594e-07 0.0931768)
(-5.75921e-06 -1.44423e-06 0.0720245)
(-4.69759e-06 -1.92597e-06 0.0720291)
(1.32485e-05 8.31039e-07 0.0931745)
(-1.43198e-05 1.13899e-06 0.0885952)
(6.91651e-06 8.47137e-07 0.0719475)
(-1.48435e-05 1.10368e-07 0.0932607)
(6.08369e-06 3.28173e-07 0.0824802)
(1.80076e-05 3.52617e-07 0.0989231)
(-4.95459e-06 -7.07638e-07 0.0849103)
(-1.80045e-05 -2.21627e-07 0.0976538)
(5.2426e-06 -8.38835e-08 0.0848709)
(1.78995e-05 1.39796e-07 0.0975864)
(-5.29082e-06 -1.69698e-06 0.0825326)
(-6.5664e-06 -7.40088e-08 0.082475)
(1.80452e-05 -4.64858e-08 0.097662)
(4.69906e-06 4.7826e-07 0.0849119)
(-1.84356e-05 -3.88469e-07 0.0989206)
(-1.82018e-05 -2.62789e-07 0.0975957)
(-5.41587e-06 -3.06736e-07 0.0848701)
(4.84534e-06 2.12037e-06 0.0825239)
(4.64931e-06 2.01147e-06 0.071957)
(1.40981e-05 -1.63716e-06 0.0885884)
(-1.36484e-05 -1.25046e-06 0.0931951)
(1.4557e-05 -3.73877e-07 0.0932771)
(-7.58761e-06 -5.89858e-07 0.0718833)
(-7.34025e-06 -9.21409e-07 0.0718736)
(1.47321e-05 -2.33655e-07 0.0932785)
(-1.45997e-05 1.55471e-07 0.0885288)
(-1.40857e-05 -1.25484e-06 0.0931977)
(5.20077e-06 1.61287e-06 0.0719497)
(4.69052e-06 2.42128e-06 0.0825255)
(1.76637e-05 2.75845e-07 0.0989767)
(-1.83225e-05 -7.96293e-08 0.0975951)
(-5.36776e-06 -3.81715e-07 0.0848699)
(1.78125e-05 9.69285e-08 0.0976613)
(4.70842e-06 4.26238e-07 0.0849116)
(-6.6218e-06 1.39947e-10 0.0824761)
(-6.4225e-06 9.62219e-07 0.0824718)
(4.63483e-06 -1.40746e-07 0.0849108)
(1.81711e-05 2.83906e-07 0.0976614)
(-1.82774e-05 6.19875e-07 0.0989209)
(-5.48943e-06 6.21711e-07 0.0848692)
(-1.79716e-05 5.25043e-07 0.0975949)
(4.99261e-06 -1.31663e-06 0.0825205)
(5.51346e-06 -1.15998e-06 0.0719489)
(1.41804e-05 1.78693e-06 0.0885854)
(-1.40079e-05 1.3443e-06 0.0931968)
(1.3692e-05 4.24722e-07 0.0932779)
(-7.23089e-06 1.13561e-06 0.071874)
(-6.60952e-06 1.60508e-06 0.071871)
(1.41415e-05 2.78178e-07 0.0932784)
(-1.46828e-05 -1.58877e-07 0.0885283)
(-1.41948e-05 1.27547e-06 0.0931979)
(5.91295e-06 -9.728e-07 0.0719459)
(4.9326e-06 -1.39255e-06 0.0825221)
(1.78178e-05 2.41083e-08 0.0989768)
(-5.51031e-06 5.27149e-07 0.0848695)
(-1.81655e-05 3.75824e-07 0.0975946)
(4.60286e-06 -1.17362e-07 0.084911)
(1.80448e-05 2.8049e-07 0.097661)
(-6.3026e-06 6.25964e-07 0.082473)
(5.15529e-06 1.37716e-06 0.0825236)
(-1.80235e-05 -2.36943e-07 0.0975961)
(-5.4973e-06 -2.96305e-07 0.0848698)
(1.814e-05 2.42184e-07 0.0989763)
(-6.50639e-06 -7.28348e-08 0.0824743)
(1.84055e-05 -2.81592e-07 0.0976627)
(4.65633e-06 2.87835e-07 0.0849116)
(-6.42315e-06 -1.38536e-06 0.0718648)
(-1.41295e-05 3.76347e-07 0.0885275)
(1.43429e-05 -1.97261e-08 0.0932814)
(-1.40153e-05 -8.91777e-07 0.093199)
(6.12573e-06 9.65393e-07 0.0719419)
(5.95434e-06 1.04392e-06 0.0719446)
(-1.37172e-05 -1.01302e-06 0.0931981)
(1.45659e-05 -1.23992e-06 0.0885883)
(-7.26441e-06 -7.88336e-07 0.0718657)
(1.39307e-05 -1.04496e-07 0.0932809)
(-6.54063e-06 -6.90787e-07 0.0824733)
(-1.8084e-05 -3.51773e-07 0.0989204)
(1.83366e-05 -1.98089e-07 0.0976632)
(4.54821e-06 1.91294e-07 0.0849112)
(-1.77848e-05 -3.20294e-07 0.0975968)
(-5.51502e-06 -3.86016e-07 0.08487)
(5.24464e-06 1.11436e-06 0.0825227)
(5.59528e-06 -1.02666e-06 0.0825201)
(-5.48172e-06 6.60505e-07 0.0848686)
(-1.78821e-05 3.58633e-07 0.0975951)