/*--------------------------------*- C++ -*----------------------------------*\
| =========                 |                                                 |
| \\      /  F ield         | OpenFOAM: The Open Source CFD Toolbox           |
|  \\    /   O peration     | Version:  v1906                                 |
|   \\  /    A nd           | Web:      www.OpenFOAM.com                      |
|    \\/     M anipulation  |                                                 |
\*---------------------------------------------------------------------------*/
FoamFile
{
    version     2.0;
    format      ascii;
    class       volScalarField;
    location    "750";
    object      epsilon;
}
// * * * * * * * * * * * * * * * * * * * * * * * * * * * * * * * * * * * * * //

dimensions      [0 2 -3 0 0 0 0];


internalField   nonuniform List<scalar> 
171728
(
1.15383e-06
8.68606e-07
8.6857e-07
1.15376e-06
8.68331e-07
8.68629e-07
8.68384e-07
8.68634e-07
1.15388e-06
8.68498e-07
8.68502e-07
1.15393e-06
3.2284e-07
3.22839e-07
3.22921e-07
3.22917e-07
1.84316e-05
1.84334e-05
5.46276e-06
5.4639e-06
4.09062e-06
9.16329e-06
4.09325e-06
4.09069e-06
9.16429e-06
9.15745e-06
4.09337e-06
2.10403e-06
3.4765e-06
5.62306e-07
5.56366e-07
2.10994e-06
2.1041e-06
8.62471e-07
3.47686e-06
5.62336e-07
3.47332e-06
5.56407e-07
2.10999e-06
1.84329e-05
1.84229e-05
1.14939e-06
5.46421e-06
5.46229e-06
5.46119e-06
5.45941e-06
1.84305e-05
1.84204e-05
9.16503e-06
4.09362e-06
3.47689e-06
5.62379e-07
2.11009e-06
9.16445e-06
4.09354e-06
5.62407e-07
3.47688e-06
2.11003e-06
2.10415e-06
8.62284e-07
3.47646e-06
5.62322e-07
3.47296e-06
5.56397e-07
2.11004e-06
4.09077e-06
9.1642e-06
9.15738e-06
4.09343e-06
2.1041e-06
8.6253e-07
5.62384e-07
3.47647e-06
5.56457e-07
3.47293e-06
2.10999e-06
4.09069e-06
9.16415e-06
9.15732e-06
4.09332e-06
1.84336e-05
5.46407e-06
5.46248e-06
1.84323e-05
2.10421e-06
5.62417e-07
3.47655e-06
5.56474e-07
2.11005e-06
2.10426e-06
8.62403e-07
5.62432e-07
3.47706e-06
5.56507e-07
3.47353e-06
2.11009e-06
4.09046e-06
9.16438e-06
4.09355e-06
4.09058e-06
9.16527e-06
9.15844e-06
4.0936e-06
1.14955e-06
5.46246e-06
5.46438e-06
5.45943e-06
5.46133e-06
1.84322e-05
1.84222e-05
1.8434e-05
1.8424e-05
1.84268e-05
1.8429e-05
4.53926e-06
2.81612e-06
5.4618e-06
9.5045e-06
9.50044e-06
2.81308e-06
4.54317e-06
4.54592e-06
2.815e-06
5.46361e-06
9.50737e-06
9.50478e-06
2.81493e-06
4.54466e-06
9.7344e-06
2.17351e-05
2.17327e-05
2.17296e-05
2.17284e-05
9.73475e-06
1.22035e-05
1.08247e-05
4.74269e-06
4.0913e-06
1.22009e-05
1.0827e-05
4.7433e-06
2.20552e-05
9.16045e-06
7.08633e-06
7.08642e-06
2.20607e-05
1.22043e-05
4.09256e-06
1.08302e-05
4.74496e-06
1.08278e-05
4.74437e-06
1.22069e-05
1.22036e-05
1.08248e-05
4.74273e-06
4.09142e-06
1.2201e-05
1.08271e-05
4.74375e-06
2.20556e-05
9.16149e-06
7.08801e-06
7.0879e-06
2.20608e-05
2.20561e-05
7.08685e-06
9.16024e-06
2.20509e-05
7.08696e-06
1.22044e-05
4.09263e-06
1.08303e-05
4.7454e-06
1.0828e-05
4.74438e-06
1.2207e-05
1.84283e-05
1.84275e-05
9.73241e-06
2.1723e-05
2.17237e-05
9.73196e-06
2.17278e-05
2.17285e-05
4.54591e-06
2.81609e-06
5.46355e-06
9.50794e-06
2.81432e-06
9.50461e-06
4.54659e-06
4.53989e-06
2.81488e-06
5.46178e-06
9.50332e-06
9.49999e-06
2.81312e-06
4.5406e-06
4.54397e-06
9.49983e-06
2.81108e-06
5.46185e-06
2.81289e-06
4.54328e-06
9.50316e-06
4.53798e-06
9.49521e-06
2.80989e-06
5.45992e-06
4.53726e-06
9.49855e-06
2.81168e-06
9.73399e-06
2.1733e-05
2.17337e-05
2.17281e-05
2.17288e-05
9.73444e-06
1.84258e-05
1.8425e-05
2.20555e-05
9.16229e-06
7.08797e-06
7.08781e-06
2.20607e-05
1.22046e-05
4.09244e-06
4.74541e-06
1.08308e-05
4.74436e-06
1.08285e-05
1.22072e-05
2.20554e-05
9.16166e-06
7.08649e-06
7.08655e-06
2.20609e-05
1.22047e-05
4.09238e-06
1.08306e-05
4.74512e-06
1.08283e-05
4.74441e-06
1.22073e-05
1.22034e-05
4.74262e-06
1.08251e-05
4.09148e-06
1.22008e-05
4.74364e-06
1.08274e-05
2.20547e-05
9.16141e-06
7.08756e-06
7.08744e-06
2.20599e-05
2.20551e-05
7.08639e-06
9.16015e-06
2.205e-05
7.08651e-06
1.22042e-05
4.09272e-06
4.7453e-06
1.08306e-05
4.74428e-06
1.08283e-05
1.22068e-05
1.22037e-05
1.0825e-05
4.74244e-06
4.09138e-06
1.22011e-05
1.08273e-05
4.74345e-06
2.20551e-05
9.16135e-06
7.0861e-06
7.08599e-06
2.20603e-05
2.20556e-05
7.08494e-06
9.16011e-06
2.20504e-05
7.08505e-06
1.22046e-05
4.09264e-06
1.08305e-05
4.74511e-06
1.08281e-05
4.74409e-06
1.22072e-05
1.84289e-05
4.54626e-06
2.81611e-06
5.46356e-06
9.50799e-06
2.81445e-06
9.50465e-06
4.54693e-06
4.5403e-06
2.8151e-06
5.46184e-06
9.50343e-06
9.50011e-06
2.81333e-06
4.54095e-06
9.73487e-06
2.17341e-05
2.17345e-05
2.17292e-05
2.17296e-05
9.73532e-06
1.84278e-05
1.22038e-05
4.74246e-06
1.08253e-05
4.09161e-06
1.22012e-05
4.74345e-06
1.08276e-05
2.20555e-05
9.16158e-06
7.08623e-06
7.08607e-06
2.20607e-05
2.20559e-05
7.08515e-06
1.22046e-05
4.09241e-06
4.74513e-06
1.08308e-05
4.74409e-06
1.08285e-05
1.22072e-05
1.22036e-05
4.74296e-06
1.08254e-05
4.09165e-06
1.2201e-05
4.74358e-06
1.08277e-05
2.20551e-05
9.16247e-06
7.08783e-06
7.08791e-06
2.20606e-05
2.20559e-05
7.08687e-06
9.16123e-06
2.20504e-05
7.0868e-06
1.22044e-05
4.09253e-06
4.74521e-06
1.08309e-05
4.74463e-06
1.08286e-05
1.22071e-05
9.73286e-06
2.17242e-05
2.17235e-05
9.73242e-06
2.1729e-05
2.17283e-05
4.54011e-06
2.81503e-06
5.46179e-06
9.50344e-06
2.81323e-06
9.50011e-06
4.5408e-06
4.5461e-06
2.81629e-06
5.4637e-06
9.50821e-06
2.81441e-06
9.50488e-06
4.5468e-06
4.53819e-06
9.49533e-06
2.81001e-06
5.4601e-06
4.53749e-06
2.81183e-06
9.49867e-06
4.54419e-06
9.50011e-06
2.81118e-06
5.46202e-06
4.54347e-06
2.8131e-06
9.50344e-06
9.73444e-06
2.17342e-05
2.17334e-05
2.17293e-05
2.17286e-05
9.73488e-06
1.84277e-05
1.84268e-05
1.84294e-05
1.84286e-05
2.67138e-06
1.15453e-06
1.77353e-06
1.77268e-06
1.77248e-06
1.77297e-06
2.67215e-06
2.67131e-06
1.15446e-06
1.77314e-06
1.773e-06
1.77284e-06
1.77267e-06
2.67204e-06
2.67146e-06
1.15458e-06
1.77321e-06
1.77312e-06
1.7729e-06
1.77278e-06
2.67221e-06
2.67143e-06
1.15462e-06
1.77307e-06
1.77332e-06
1.77273e-06
1.773e-06
2.67218e-06
1.68197e-07
1.68179e-07
1.66059e-07
7.99967e-08
8.05515e-08
3.18861e-07
1.68198e-07
1.6816e-07
1.66058e-07
1.66021e-07
7.99942e-08
8.05488e-08
1.68244e-07
1.68214e-07
1.66071e-07
8.00135e-08
8.0569e-08
3.18937e-07
1.68236e-07
1.68211e-07
1.66094e-07
1.6607e-07
8.00119e-08
8.05676e-08
1.41452e-06
2.36307e-06
1.27749e-06
2.10625e-06
1.41507e-06
2.36506e-06
1.27761e-06
1.62123e-06
2.03671e-06
3.47576e-06
2.86181e-06
2.0359e-06
2.86125e-06
1.62094e-06
1.42028e-06
2.10774e-06
2.36848e-06
1.28299e-06
2.36652e-06
1.28288e-06
1.41973e-06
1.41469e-06
2.36334e-06
1.27754e-06
2.10631e-06
1.41524e-06
2.36532e-06
1.27766e-06
1.62146e-06
2.03686e-06
3.4762e-06
2.86235e-06
2.8618e-06
2.03627e-06
1.62114e-06
1.6165e-06
2.85882e-06
2.03221e-06
3.47399e-06
1.6168e-06
2.85938e-06
2.03282e-06
1.42044e-06
2.10781e-06
2.36873e-06
1.28304e-06
2.36678e-06
1.28293e-06
1.41988e-06
2.66878e-06
1.1487e-06
1.76867e-06
1.76851e-06
1.769e-06
2.66804e-06
1.76885e-06
1.62144e-06
2.03674e-06
3.47635e-06
2.86236e-06
2.03635e-06
2.86174e-06
1.62109e-06
1.42047e-06
2.10791e-06
2.36874e-06
1.28313e-06
2.36678e-06
1.28302e-06
1.4199e-06
1.62131e-06
2.03683e-06
3.47627e-06
2.8619e-06
2.86133e-06
2.03623e-06
1.621e-06
1.42037e-06
2.10784e-06
1.28309e-06
2.36858e-06
1.28298e-06
2.36661e-06
1.41981e-06
1.41464e-06
2.36329e-06
1.27756e-06
2.10636e-06
1.4152e-06
2.36526e-06
1.2777e-06
1.62133e-06
2.03649e-06
3.47584e-06
2.86213e-06
2.03589e-06
2.8616e-06
1.621e-06
1.61636e-06
2.85862e-06
2.03182e-06
3.47359e-06
1.61667e-06
2.03245e-06
2.85917e-06
1.4204e-06
2.10786e-06
2.36867e-06
1.28307e-06
2.36673e-06
1.28296e-06
1.41983e-06
1.41461e-06
1.27754e-06
2.36316e-06
2.10631e-06
1.41515e-06
1.27768e-06
2.36513e-06
1.62128e-06
2.03657e-06
3.47581e-06
2.8618e-06
2.86126e-06
2.03595e-06
1.62096e-06
1.61633e-06
2.85829e-06
2.0319e-06
3.47361e-06
1.61663e-06
2.85884e-06
2.03253e-06
1.42034e-06
2.1078e-06
1.28305e-06
2.36854e-06
1.28293e-06
2.36659e-06
1.41979e-06
1.41464e-06
1.27763e-06
2.3632e-06
2.10638e-06
1.4152e-06
1.27776e-06
2.36514e-06
1.62129e-06
2.03658e-06
3.47588e-06
2.86186e-06
2.03599e-06
2.86121e-06
1.62096e-06
1.61632e-06
2.85887e-06
1.42039e-06
2.10792e-06
1.28313e-06
2.36857e-06
1.28302e-06
2.36663e-06
1.41983e-06
1.41479e-06
1.27766e-06
2.3634e-06
2.10642e-06
1.41534e-06
1.2778e-06
2.36536e-06
1.62151e-06
2.03698e-06
3.4764e-06
2.86234e-06
2.86179e-06
2.03638e-06
1.62118e-06
1.61654e-06
2.85881e-06
2.03232e-06
3.4742e-06
1.61686e-06
2.85938e-06
2.03294e-06
1.42053e-06
2.10797e-06
1.28317e-06
2.36876e-06
1.28306e-06
2.36684e-06
1.41996e-06
2.66893e-06
1.14887e-06
1.76857e-06
1.76884e-06
2.66816e-06
1.76892e-06
1.76918e-06
6.5416e-07
1.19018e-06
1.18613e-06
1.41055e-06
1.38695e-06
1.41573e-06
1.38553e-06
1.18524e-06
1.19083e-06
1.16775e-06
1.16893e-06
1.42586e-06
1.38596e-06
1.18462e-06
1.18697e-06
1.16714e-06
1.1656e-06
1.1817e-06
1.16879e-06
1.1679e-06
1.42034e-06
1.38142e-06
1.18059e-06
1.16602e-06
1.16772e-06
1.38599e-06
1.16608e-06
1.16621e-06
4.20491e-06
9.51325e-06
9.47618e-06
4.23981e-06
1.90138e-05
1.89549e-05
4.19777e-06
9.51013e-06
9.47432e-06
4.23242e-06
6.57e-07
6.54838e-07
6.52531e-07
6.50191e-07
6.50884e-07
6.49114e-07
6.49991e-07
2.27486e-06
3.65468e-06
9.34438e-07
1.18463e-06
3.61827e-06
9.3194e-07
2.29583e-06
1.89866e-05
1.89396e-05
2.26956e-06
9.32088e-07
3.64204e-06
1.17976e-06
9.29333e-07
3.60656e-06
2.28966e-06
5.60675e-06
5.60562e-06
1.39669e-06
5.57414e-06
5.57528e-06
5.55395e-06
5.55868e-06
1.89778e-05
1.89509e-05
1.89769e-05
1.8952e-05
5.62039e-06
5.62052e-06
1.40103e-06
5.58171e-06
5.58253e-06
1.89638e-05
1.89455e-05
1.89672e-05
1.89473e-05
1.39996e-06
5.5481e-06
5.55045e-06
5.57097e-06
5.57216e-06
4.20727e-06
9.53847e-06
9.48715e-06
4.24303e-06
2.27585e-06
3.63697e-06
9.33769e-07
1.17969e-06
3.60566e-06
9.31355e-07
2.29789e-06
2.27779e-06
3.65766e-06
9.35457e-07
1.18538e-06
3.62051e-06
9.32917e-07
2.30017e-06
4.19306e-06
9.45391e-06
9.46581e-06
4.16216e-06
4.19474e-06
9.44096e-06
9.47024e-06
4.16141e-06
2.26736e-06
1.17332e-06
3.574e-06
9.2228e-07
3.5972e-06
9.26739e-07
2.24483e-06
2.26888e-06
1.177e-06
3.57203e-06
9.22588e-07
3.60846e-06
9.2773e-07
2.24473e-06
5.65732e-06
5.65323e-06
1.41131e-06
5.6035e-06
5.60056e-06
1.90092e-05
1.8954e-05
1.89243e-05
1.89365e-05
1.40904e-06
5.54053e-06
5.54036e-06
5.58636e-06
5.58445e-06
1.89266e-05
1.89366e-05
2.2708e-06
3.63551e-06
9.32641e-07
1.17892e-06
3.60418e-06
9.29765e-07
2.29387e-06
4.19821e-06
9.51891e-06
9.47125e-06
4.23417e-06
2.2711e-06
9.33241e-07
3.64533e-06
1.18027e-06
9.29936e-07
3.60678e-06
2.29477e-06
4.18633e-06
9.4544e-06
9.46459e-06
4.15835e-06
2.26266e-06
1.17259e-06
3.57369e-06
9.21208e-07
3.59608e-06
9.25326e-07
2.24196e-06
4.1862e-06
9.43847e-06
9.45749e-06
4.15645e-06
2.2626e-06
1.17255e-06
9.20611e-07
3.56488e-06
9.25114e-07
3.59595e-06
2.24088e-06
4.20314e-06
9.533e-06
9.48547e-06
4.23546e-06
2.27248e-06
9.32181e-07
3.62668e-06
1.17685e-06
9.29774e-07
3.59982e-06
2.29287e-06
4.20008e-06
9.50209e-06
9.47457e-06
4.23116e-06
2.26709e-06
1.17655e-06
3.57272e-06
9.22761e-07
3.60702e-06
9.27321e-07
2.24655e-06
4.19238e-06
9.44507e-06
9.47021e-06
4.16447e-06
2.26527e-06
1.17178e-06
9.22533e-07
3.57703e-06
9.26032e-07
3.59328e-06
2.2468e-06
4.19006e-06
9.46451e-06
9.46798e-06
4.165e-06
5.63722e-06
5.63369e-06
1.40369e-06
5.58522e-06
5.58478e-06
1.89868e-05
1.89431e-05
1.89303e-05
1.89271e-05
1.40147e-06
5.53265e-06
5.5352e-06
5.57022e-06
5.57035e-06
1.89361e-05
1.89319e-05
2.26853e-06
9.30752e-07
3.62369e-06
1.17594e-06
9.28269e-07
3.59858e-06
2.28754e-06
4.19655e-06
9.51634e-06
9.47437e-06
4.22619e-06
4.19492e-06
9.49804e-06
9.47477e-06
4.22261e-06
2.26274e-06
1.1725e-06
9.21581e-07
3.56827e-06
9.25304e-07
3.59637e-06
2.2454e-06
2.26218e-06
1.17119e-06
9.22126e-07
3.57887e-06
9.25001e-07
3.59273e-06
2.24657e-06
4.18716e-06
9.44717e-06
9.46243e-06
4.1637e-06
4.18608e-06
9.46976e-06
9.46975e-06
4.16527e-06
1.89669e-05
1.89531e-05
1.89669e-05
1.89567e-05
1.39636e-06
5.55332e-06
5.55755e-06
5.56627e-06
5.56812e-06
1.89865e-05
1.89524e-05
1.89949e-05
1.89571e-05
9.20311e-07
3.57599e-06
2.24322e-06
9.47045e-06
4.16046e-06
3.57841e-06
9.4787e-06
1.9004e-05
1.9013e-05
1.25778e-05
1.11732e-05
4.8408e-06
4.21764e-06
1.11808e-05
4.85434e-06
1.25704e-05
2.26393e-05
9.50092e-06
7.22424e-06
7.20649e-06
2.26508e-05
2.26147e-05
7.17526e-06
9.48706e-06
7.19297e-06
2.26082e-05
1.25908e-05
4.22896e-06
1.12006e-05
4.87941e-06
1.11921e-05
4.8668e-06
1.26002e-05
1.89964e-05
1.89693e-05
1.25715e-05
4.83491e-06
1.11674e-05
4.20969e-06
4.84758e-06
1.11738e-05
1.2565e-05
2.2629e-05
9.49808e-06
7.219e-06
7.2023e-06
2.26391e-05
2.26073e-05
7.1717e-06
9.48466e-06
7.18822e-06
2.26018e-05
1.25832e-05
4.22118e-06
4.87235e-06
1.11926e-05
4.86009e-06
1.1184e-05
1.25923e-05
1.89719e-05
1.89495e-05
9.84693e-06
2.22099e-05
2.22098e-05
2.22109e-05
2.22106e-05
9.82938e-06
4.65457e-06
2.95386e-06
5.59443e-06
9.84265e-06
2.94532e-06
9.83282e-06
4.66697e-06
4.65912e-06
2.95309e-06
5.59408e-06
9.84549e-06
2.94485e-06
9.83626e-06
4.67129e-06
4.64489e-06
9.81653e-06
5.58483e-06
2.92952e-06
2.93774e-06
9.82278e-06
4.63366e-06
4.64961e-06
9.82141e-06
5.58502e-06
2.92968e-06
2.93749e-06
9.827e-06
4.63867e-06
9.86353e-06
2.22298e-05
2.22288e-05
2.22231e-05
2.22223e-05
9.884e-06
4.61047e-06
2.90798e-06
9.83098e-06
5.55713e-06
4.60941e-06
2.90795e-06
9.84845e-06
4.61669e-06
2.90999e-06
9.83903e-06
5.56273e-06
4.61547e-06
2.91016e-06
9.85653e-06
9.80301e-06
2.22733e-05
2.22735e-05
9.79693e-06
2.23197e-05
2.23194e-05
1.89693e-05
1.89553e-05
1.89691e-05
1.89558e-05
9.86931e-06
2.2212e-05
2.22113e-05
2.22181e-05
2.22171e-05
9.84726e-06
4.66892e-06
2.96414e-06
5.60649e-06
9.85904e-06
9.84619e-06
2.9549e-06
4.68238e-06
4.67375e-06
2.96422e-06
5.60679e-06
9.86204e-06
9.84956e-06
2.95497e-06
4.68713e-06
4.65764e-06
9.82184e-06
5.59491e-06
2.93638e-06
9.83217e-06
4.64407e-06
2.94614e-06
4.66263e-06
9.82603e-06
5.5954e-06
2.93662e-06
9.83595e-06
4.64922e-06
2.9463e-06
9.88875e-06
2.22492e-05
2.22474e-05
2.22381e-05
2.22365e-05
9.91154e-06
1.89497e-05
1.89466e-05
1.89524e-05
1.89487e-05
9.81155e-06
2.22033e-05
2.2203e-05
9.82934e-06
2.22043e-05
2.22042e-05
4.61386e-06
2.90696e-06
5.55333e-06
9.8052e-06
9.80475e-06
2.91258e-06
4.60674e-06
4.61944e-06
2.90784e-06
5.55537e-06
9.81051e-06
9.80991e-06
2.91332e-06
4.61248e-06
4.62189e-06
9.81245e-06
2.92778e-06
5.56064e-06
4.63334e-06
9.80731e-06
2.91926e-06
4.62737e-06
9.81703e-06
2.92818e-06
5.56226e-06
4.63863e-06
9.81223e-06
2.9198e-06
9.79896e-06
2.22233e-05
2.22237e-05
2.22069e-05
2.22071e-05
9.78908e-06
1.25833e-05
1.11743e-05
4.8487e-06
4.22057e-06
1.11826e-05
4.86363e-06
1.25734e-05
2.26637e-05
9.52305e-06
7.24727e-06
7.22892e-06
2.26803e-05
2.26281e-05
7.19186e-06
9.50387e-06
7.2116e-06
2.26153e-05
1.25986e-05
4.23223e-06
1.12032e-05
4.8899e-06
1.11945e-05
4.87766e-06
1.26092e-05
1.25594e-05
1.11657e-05
4.82828e-06
4.18127e-06
1.25624e-05
1.11622e-05
4.81588e-06
2.25924e-05
9.45479e-06
7.12543e-06
2.26032e-05
7.13551e-06
2.2594e-05
7.16171e-06
9.45912e-06
2.25941e-05
7.14628e-06
1.25578e-05
4.1711e-06
1.11611e-05
4.79643e-06
1.25596e-05
1.11604e-05
4.80545e-06
1.25573e-05
1.1166e-05
4.83392e-06
4.18221e-06
1.25626e-05
1.11618e-05
4.8195e-06
2.25742e-05
9.44679e-06
7.12521e-06
7.13984e-06
2.25765e-05
2.25842e-05
7.17409e-06
9.45738e-06
2.25903e-05
7.15538e-06
1.25535e-05
4.17121e-06
1.11596e-05
4.79478e-06
1.11593e-05
4.8064e-06
1.25536e-05
9.92445e-06
2.22187e-05
2.22213e-05
2.22412e-05
2.22429e-05
9.89046e-06
4.71064e-06
2.98869e-06
5.63957e-06
9.90758e-06
9.88821e-06
2.97901e-06
4.72635e-06
4.70489e-06
2.9867e-06
5.63536e-06
9.90053e-06
2.9771e-06
9.88174e-06
4.72045e-06
4.69514e-06
9.84297e-06
5.6228e-06
2.95497e-06
9.86401e-06
2.96848e-06
4.67518e-06
4.68954e-06
9.83792e-06
5.61952e-06
2.95344e-06
2.96672e-06
9.85825e-06
4.66982e-06
9.95368e-06
2.23084e-05
2.23088e-05
2.22822e-05
2.22834e-05
9.98477e-06
1.89931e-05
1.89669e-05
1.89231e-05
1.89295e-05
9.82626e-06
2.21875e-05
2.21907e-05
9.85938e-06
2.21736e-05
2.21774e-05
4.6223e-06
2.9058e-06
5.55394e-06
9.7827e-06
2.917e-06
9.79096e-06
4.60607e-06
4.61752e-06
2.90549e-06
5.5535e-06
9.77993e-06
9.78777e-06
2.9164e-06
4.60153e-06
4.63834e-06
9.82153e-06
2.94221e-06
5.5687e-06
2.9287e-06
4.65783e-06
9.80508e-06
4.6334e-06
9.81718e-06
2.94097e-06
5.56722e-06
4.65263e-06
9.80135e-06
2.92778e-06
9.79782e-06
2.21559e-05
2.21601e-05
2.21578e-05
2.21619e-05
9.77047e-06
1.89249e-05
1.89306e-05
1.25717e-05
1.11668e-05
4.83688e-06
4.21066e-06
1.11737e-05
4.8514e-06
1.25638e-05
2.26379e-05
9.50331e-06
7.22874e-06
7.20979e-06
2.26523e-05
2.26076e-05
7.17459e-06
9.48568e-06
7.19387e-06
2.25984e-05
1.25853e-05
4.22265e-06
1.11932e-05
4.87859e-06
1.11843e-05
4.86504e-06
1.25956e-05
1.25566e-05
4.82265e-06
1.11615e-05
4.17552e-06
1.25585e-05
4.81124e-06
1.11592e-05
2.2591e-05
9.45487e-06
7.12466e-06
2.26041e-05
7.1334e-06
2.2591e-05
7.15797e-06
9.45853e-06
2.25903e-05
7.14387e-06
1.2556e-05
4.16614e-06
4.79349e-06
1.11605e-05
1.25592e-05
4.80142e-06
1.11586e-05
1.25525e-05
1.11604e-05
4.82318e-06
4.17482e-06
1.25556e-05
1.11578e-05
4.8097e-06
2.25717e-05
9.44098e-06
7.11567e-06
7.12809e-06
2.2579e-05
2.25764e-05
7.15865e-06
9.44785e-06
2.25788e-05
7.14119e-06
1.2551e-05
4.16483e-06
1.11586e-05
4.78815e-06
1.11569e-05
4.79819e-06
1.2553e-05
1.2581e-05
4.84491e-06
1.11745e-05
4.21465e-06
4.85795e-06
1.11806e-05
1.25732e-05
2.26579e-05
9.51848e-06
7.23807e-06
7.22111e-06
2.26721e-05
2.26273e-05
7.18741e-06
9.50065e-06
7.20521e-06
2.26173e-05
1.25941e-05
4.22509e-06
4.8821e-06
1.1198e-05
4.87058e-06
1.11905e-05
1.26034e-05
1.25757e-05
1.11735e-05
4.83526e-06
4.21095e-06
1.11788e-05
4.8466e-06
1.25709e-05
2.26281e-05
9.49251e-06
7.21114e-06
7.19619e-06
2.2636e-05
2.26104e-05
7.16957e-06
9.48203e-06
7.18413e-06
2.2607e-05
1.25854e-05
4.2209e-06
1.11947e-05
4.86883e-06
1.11876e-05
4.85774e-06
1.25926e-05
1.25611e-05
4.83197e-06
1.11684e-05
4.1817e-06
1.25647e-05
4.81948e-06
1.11659e-05
2.25845e-05
9.44974e-06
7.12836e-06
7.14103e-06
2.25884e-05
2.25921e-05
7.1713e-06
9.45888e-06
2.25961e-05
7.15469e-06
1.25588e-05
4.17252e-06
4.79831e-06
1.1166e-05
4.8082e-06
1.11648e-05
1.25597e-05
1.2565e-05
1.11685e-05
4.82453e-06
4.18023e-06
1.2566e-05
1.11668e-05
4.81457e-06
2.26045e-05
9.46352e-06
7.1316e-06
7.13819e-06
2.26217e-05
2.26021e-05
7.15822e-06
9.46474e-06
2.25995e-05
7.14631e-06
1.25651e-05
4.17201e-06
1.11686e-05
4.79971e-06
1.11664e-05
4.80626e-06
1.25698e-05
9.89105e-06
2.21959e-05
2.21986e-05
2.22126e-05
2.22148e-05
9.85945e-06
4.69031e-06
2.97645e-06
5.61878e-06
9.88064e-06
9.86118e-06
2.96524e-06
4.70774e-06
4.68477e-06
2.97439e-06
5.61668e-06
9.87527e-06
2.9637e-06
9.8566e-06
4.70191e-06
4.6747e-06
9.82162e-06
5.60326e-06
2.94087e-06
9.83932e-06
2.95397e-06
4.65597e-06
4.66938e-06
9.81853e-06
5.60137e-06
2.94012e-06
2.95266e-06
9.8355e-06
4.65093e-06
9.919e-06
2.22692e-05
2.22702e-05
2.2247e-05
2.22488e-05
9.94958e-06
1.89729e-05
1.89522e-05
1.89234e-05
1.89247e-05
9.80223e-06
2.21729e-05
2.2176e-05
9.83135e-06
2.21656e-05
2.21687e-05
4.6096e-06
2.89823e-06
5.54297e-06
9.78017e-06
2.90734e-06
9.78367e-06
4.59654e-06
4.60525e-06
2.89906e-06
5.54483e-06
9.77891e-06
9.78218e-06
2.90774e-06
4.5924e-06
4.62306e-06
9.80454e-06
2.92922e-06
5.55475e-06
2.91719e-06
4.64026e-06
9.79263e-06
4.6185e-06
9.8021e-06
2.92879e-06
5.55607e-06
4.63542e-06
9.79072e-06
2.9173e-06
9.7784e-06
2.21617e-05
2.21647e-05
2.21584e-05
2.21616e-05
9.75673e-06
1.89289e-05
1.89298e-05
1.25753e-05
4.83635e-06
1.11722e-05
4.20691e-06
4.8484e-06
1.11765e-05
1.25699e-05
2.26422e-05
9.50258e-06
7.22129e-06
7.20537e-06
2.26538e-05
2.26173e-05
7.17459e-06
9.48693e-06
7.19072e-06
2.26103e-05
1.2586e-05
4.21627e-06
4.87118e-06
1.11905e-05
4.85979e-06
1.11843e-05
1.25937e-05
1.25737e-05
4.8307e-06
1.11727e-05
4.20444e-06
4.84115e-06
1.11762e-05
1.25706e-05
2.26232e-05
9.48973e-06
7.20565e-06
7.19089e-06
2.26287e-05
2.26098e-05
7.16698e-06
9.48079e-06
7.18085e-06
2.26087e-05
1.25812e-05
4.21344e-06
4.86105e-06
1.11885e-05
4.85068e-06
1.1183e-05
1.25865e-05
1.25626e-05
4.82497e-06
1.11683e-05
4.1778e-06
1.2564e-05
4.8138e-06
1.11674e-05
2.25915e-05
9.44881e-06
7.12452e-06
7.1345e-06
2.26e-05
2.25941e-05
7.16029e-06
9.45435e-06
2.25951e-05
7.14585e-06
1.25622e-05
4.17023e-06
4.79632e-06
1.11713e-05
4.80441e-06
1.11676e-05
1.25657e-05
1.25679e-05
4.8216e-06
1.11695e-05
4.17769e-06
1.25677e-05
4.81273e-06
1.11691e-05
2.26137e-05
9.46754e-06
7.13552e-06
7.14076e-06
2.26347e-05
2.26092e-05
7.15771e-06
9.46779e-06
2.26044e-05
7.14689e-06
1.25695e-05
4.17083e-06
4.80071e-06
1.1175e-05
4.80604e-06
1.11698e-05
1.25776e-05
1.8962e-05
1.89538e-05
1.89631e-05
1.89566e-05
9.80486e-06
2.22085e-05
2.22087e-05
9.81646e-06
2.22165e-05
2.22169e-05
4.61287e-06
2.90891e-06
5.55521e-06
9.81716e-06
4.60959e-06
2.9121e-06
9.81151e-06
4.61859e-06
2.91065e-06
5.55879e-06
9.82474e-06
4.61555e-06
2.91343e-06
9.81799e-06
4.61749e-06
9.81188e-06
2.92281e-06
5.55915e-06
4.62564e-06
2.91644e-06
9.8108e-06
4.623e-06
9.81746e-06
2.92332e-06
5.56198e-06
4.63084e-06
2.9174e-06
9.8168e-06
9.79861e-06
2.22527e-05
2.2253e-05
9.79556e-06
2.22258e-05
2.22262e-05
1.89661e-05
1.89585e-05
1.89734e-05
1.89651e-05
2.2672e-05
7.12929e-06
9.48369e-06
2.26356e-05
7.129e-06
1.25969e-05
4.15787e-06
1.11761e-05
4.79582e-06
1.25796e-05
1.11898e-05
4.79419e-06
9.49267e-06
1.90396e-05
1.9049e-05
4.45426e-07
4.44683e-07
6.53703e-07
4.4558e-07
4.44773e-07
2.38603e-07
2.37161e-07
2.79902e-06
1.95781e-06
1.95738e-06
1.40417e-06
1.95011e-06
1.94972e-06
2.80803e-06
2.76526e-06
1.92505e-06
1.92543e-06
1.38477e-06
2.76533e-06
1.92408e-06
1.92453e-06
2.80887e-06
1.96523e-06
1.96515e-06
1.40964e-06
1.95718e-06
1.95704e-06
2.81873e-06
2.76979e-06
1.39161e-06
1.92345e-06
1.92351e-06
1.92939e-06
1.92941e-06
2.76393e-06
2.8326e-06
1.98023e-06
1.97981e-06
1.42046e-06
1.97267e-06
1.97306e-06
2.84289e-06
2.77341e-06
1.39589e-06
1.92261e-06
1.92274e-06
1.93304e-06
1.93304e-06
2.76163e-06
2.81932e-06
1.97246e-06
1.97197e-06
1.41416e-06
1.96364e-06
1.96398e-06
2.83087e-06
2.76404e-06
1.38969e-06
1.9172e-06
1.91765e-06
1.92573e-06
1.92601e-06
2.75456e-06
2.76899e-06
1.39041e-06
1.92503e-06
1.92534e-06
2.7658e-06
1.92876e-06
1.92895e-06
4.46343e-07
4.45862e-07
6.56279e-07
4.46435e-07
4.45981e-07
2.38988e-07
2.37457e-07
4.4499e-07
4.44467e-07
6.5384e-07
4.44979e-07
4.44543e-07
2.38502e-07
2.37218e-07
4.44473e-07
4.43616e-07
6.52177e-07
4.44773e-07
4.43959e-07
2.3815e-07
2.36792e-07
6.52189e-07
4.45017e-07
4.44274e-07
4.4548e-07
4.44672e-07
2.39557e-07
2.402e-07
6.53927e-07
4.45451e-07
4.45309e-07
4.46238e-07
4.45855e-07
2.39989e-07
2.40639e-07
6.51498e-07
4.44043e-07
4.44127e-07
4.44732e-07
4.44456e-07
2.39317e-07
2.39874e-07
6.51132e-07
4.44664e-07
4.44024e-07
4.44772e-07
4.44027e-07
2.39061e-07
2.39749e-07
1.66256e-06
2.51908e-06
1.53237e-06
2.28287e-06
2.52836e-06
1.53979e-06
1.65345e-06
1.84431e-06
2.23371e-06
3.64284e-06
3.02844e-06
2.22607e-06
3.01849e-06
1.85132e-06
1.84179e-06
2.99678e-06
3.63282e-06
2.20889e-06
2.22113e-06
3.00942e-06
1.83108e-06
1.66392e-06
2.28978e-06
2.5434e-06
1.54618e-06
2.53652e-06
1.5413e-06
1.66994e-06
1.6572e-06
1.52852e-06
2.51195e-06
2.27688e-06
1.53571e-06
2.52045e-06
1.64823e-06
1.83708e-06
2.22559e-06
3.62966e-06
3.01765e-06
2.21674e-06
3.0074e-06
1.84487e-06
1.83432e-06
2.98673e-06
3.61955e-06
2.1992e-06
2.21126e-06
2.99825e-06
1.82354e-06
1.65866e-06
2.28346e-06
1.54235e-06
2.53559e-06
1.53723e-06
2.52845e-06
1.66503e-06
2.79278e-06
1.40372e-06
1.93933e-06
1.93914e-06
1.94728e-06
1.94697e-06
2.7843e-06
2.80165e-06
1.40892e-06
1.94433e-06
1.94423e-06
2.79145e-06
1.95372e-06
1.95359e-06
2.7754e-06
1.39209e-06
1.9407e-06
1.94065e-06
2.78424e-06
1.93209e-06
1.93206e-06
1.6597e-06
2.5159e-06
1.53288e-06
2.28449e-06
2.52496e-06
1.54061e-06
1.65071e-06
1.8368e-06
2.22143e-06
3.62555e-06
3.01833e-06
3.0083e-06
2.21297e-06
1.8443e-06
1.83428e-06
2.98833e-06
3.61721e-06
2.19806e-06
2.9996e-06
2.20844e-06
1.82418e-06
1.6611e-06
2.29168e-06
2.54026e-06
1.54719e-06
2.53324e-06
1.54222e-06
1.66723e-06
1.66464e-06
2.52195e-06
1.53432e-06
2.28671e-06
2.53204e-06
1.54214e-06
1.65519e-06
1.84627e-06
2.2354e-06
3.64595e-06
3.03249e-06
3.0225e-06
2.22776e-06
1.85328e-06
1.84366e-06
2.99974e-06
3.63555e-06
2.21027e-06
3.01309e-06
1.83273e-06
2.22276e-06
1.66615e-06
2.29396e-06
2.5476e-06
1.54873e-06
2.54059e-06
1.54378e-06
1.67225e-06
1.63884e-06
2.50691e-06
1.53024e-06
2.25885e-06
1.64852e-06
2.49828e-06
1.52123e-06
1.80926e-06
2.17395e-06
3.5805e-06
2.95393e-06
2.18037e-06
2.9614e-06
1.8015e-06
1.81132e-06
2.97925e-06
2.1933e-06
3.58726e-06
2.18418e-06
1.82128e-06
2.96893e-06
1.63724e-06
2.25145e-06
2.48419e-06
1.51139e-06
2.49066e-06
1.51895e-06
1.62944e-06
1.64124e-06
2.51159e-06
1.53152e-06
2.25986e-06
1.65238e-06
2.50141e-06
1.5221e-06
1.81231e-06
2.17331e-06
3.58333e-06
2.95437e-06
2.96501e-06
2.18373e-06
1.80148e-06
1.81595e-06
2.98837e-06
2.20307e-06
3.59427e-06
1.82863e-06
2.97527e-06
2.1903e-06
1.63876e-06
2.25192e-06
2.48394e-06
1.51144e-06
2.49215e-06
1.51955e-06
1.6292e-06
2.8237e-06
1.4198e-06
1.9577e-06
1.95742e-06
1.96874e-06
1.96911e-06
2.80963e-06
2.78407e-06
1.39823e-06
1.95147e-06
1.95125e-06
1.93877e-06
2.79822e-06
1.9387e-06
1.65754e-06
2.51209e-06
1.52944e-06
2.2793e-06
2.52101e-06
1.53754e-06
1.6483e-06
1.83534e-06
2.22079e-06
3.6238e-06
3.01625e-06
3.00575e-06
2.21196e-06
1.84342e-06
1.83271e-06
2.98581e-06
3.61572e-06
2.19714e-06
2.99703e-06
2.20748e-06
1.8225e-06
1.65915e-06
2.287e-06
2.53718e-06
1.54498e-06
2.52955e-06
1.53944e-06
1.66586e-06
1.65889e-06
1.52963e-06
2.51302e-06
2.2799e-06
1.53793e-06
2.52292e-06
1.6489e-06
1.8388e-06
2.22748e-06
3.63173e-06
3.02174e-06
3.01053e-06
2.21815e-06
1.8471e-06
1.83564e-06
2.98754e-06
3.6211e-06
2.19955e-06
3.00041e-06
1.82402e-06
2.21227e-06
1.66079e-06
2.28783e-06
1.54551e-06
2.54013e-06
1.5399e-06
2.53217e-06
1.66771e-06
1.63684e-06
2.50338e-06
1.52687e-06
2.25467e-06
1.64622e-06
2.49512e-06
1.51825e-06
1.80813e-06
2.17371e-06
3.57993e-06
2.95264e-06
2.17995e-06
2.95972e-06
1.80069e-06
1.81e-06
2.97696e-06
2.19254e-06
3.5863e-06
2.18355e-06
1.81973e-06
2.96688e-06
1.63551e-06
2.24786e-06
2.482e-06
1.50947e-06
2.48797e-06
1.51631e-06
1.62823e-06
1.63588e-06
1.52691e-06
2.5033e-06
2.2543e-06
1.64629e-06
1.51799e-06
2.49404e-06
1.80579e-06
2.16759e-06
3.57411e-06
2.94746e-06
2.95634e-06
2.1762e-06
1.79663e-06
1.80863e-06
2.97702e-06
2.19308e-06
3.58324e-06
1.82025e-06
2.96521e-06
2.18166e-06
1.63405e-06
2.24712e-06
1.50877e-06
2.47887e-06
1.5159e-06
2.48586e-06
1.62582e-06
1.65612e-06
1.53053e-06
2.51208e-06
2.28002e-06
1.53774e-06
2.51981e-06
1.64798e-06
1.83128e-06
2.21412e-06
3.61654e-06
3.0098e-06
2.20591e-06
3.00051e-06
1.83903e-06
1.82924e-06
2.98355e-06
3.60956e-06
2.19345e-06
2.20224e-06
2.99316e-06
1.82041e-06
1.65727e-06
2.28679e-06
1.5442e-06
2.53402e-06
1.53923e-06
2.52722e-06
1.66353e-06
1.64081e-06
2.50982e-06
1.53002e-06
2.25932e-06
1.65106e-06
2.50075e-06
1.52165e-06
1.81222e-06
2.17366e-06
3.58336e-06
2.95524e-06
1.80216e-06
2.18359e-06
2.96496e-06
1.81538e-06
2.98636e-06
2.20203e-06
3.5935e-06
1.82732e-06
2.18979e-06
2.97422e-06
1.63887e-06
2.25257e-06
2.48543e-06
1.51273e-06
1.63027e-06
2.49263e-06
1.5197e-06
1.63846e-06
1.52846e-06
2.50462e-06
2.25815e-06
1.64655e-06
1.52072e-06
2.49756e-06
1.80932e-06
2.17588e-06
3.58107e-06
2.957e-06
2.96244e-06
2.18026e-06
1.8035e-06
1.81037e-06
2.97631e-06
2.18989e-06
3.58559e-06
1.81847e-06
2.96797e-06
2.18266e-06
1.63768e-06
2.25208e-06
1.51289e-06
2.48659e-06
1.51913e-06
2.49156e-06
1.63147e-06
2.80947e-06
1.41298e-06
1.94724e-06
1.94716e-06
1.95908e-06
1.95936e-06
2.79592e-06
2.77301e-06
1.3913e-06
1.94162e-06
1.94162e-06
1.93037e-06
2.78546e-06
1.93057e-06
1.65368e-06
1.52773e-06
2.50905e-06
2.2753e-06
1.53454e-06
2.51609e-06
1.64607e-06
1.82911e-06
2.21223e-06
3.61403e-06
3.00606e-06
2.20427e-06
2.99716e-06
1.83667e-06
1.82733e-06
2.98153e-06
3.60759e-06
2.1926e-06
2.20088e-06
2.99049e-06
1.81905e-06
1.65463e-06
2.28158e-06
1.54109e-06
2.52932e-06
1.53592e-06
2.52284e-06
1.66093e-06
1.63712e-06
1.52656e-06
2.50371e-06
2.25594e-06
1.64627e-06
1.51911e-06
2.49581e-06
1.80741e-06
2.16944e-06
3.57647e-06
2.9514e-06
1.79911e-06
2.17749e-06
2.95915e-06
1.80971e-06
2.97738e-06
2.19323e-06
3.58491e-06
1.82032e-06
2.18249e-06
2.96689e-06
1.63586e-06
2.25031e-06
1.51189e-06
2.4832e-06
1.62872e-06
1.51772e-06
2.489e-06
1.63774e-06
1.52605e-06
2.50245e-06
2.25598e-06
1.64502e-06
1.51916e-06
2.4962e-06
1.8094e-06
2.1769e-06
3.58209e-06
2.95839e-06
2.96294e-06
2.18075e-06
1.80428e-06
1.8101e-06
2.97513e-06
2.18944e-06
3.58587e-06
1.81747e-06
2.96759e-06
2.18273e-06
1.63734e-06
2.25088e-06
1.51276e-06
2.48702e-06
1.51804e-06
2.49112e-06
1.6319e-06
2.77237e-06
1.3902e-06
1.93677e-06
1.93673e-06
2.77884e-06
1.93019e-06
1.93025e-06
1.80082e-06
2.17531e-06
2.95473e-06
3.57586e-06
2.1742e-06
1.80354e-06
2.95329e-06
1.62798e-06
2.24096e-06
1.5124e-06
2.48347e-06
1.50878e-06
1.63166e-06
2.48174e-06
2.17662e-06
3.57867e-06
2.17582e-06
3.26848e-07
8.74426e-07
8.74541e-07
1.15962e-06
3.43042e-07
8.97959e-07
8.98066e-07
1.17903e-06
3.59438e-07
9.20446e-07
9.20559e-07
1.19748e-06
3.76024e-07
9.41956e-07
9.4206e-07
1.21505e-06
3.92628e-07
9.62382e-07
9.6249e-07
1.23169e-06
4.09307e-07
9.81912e-07
9.8201e-07
1.24757e-06
4.25794e-07
1.00024e-06
1.00034e-06
1.26246e-06
4.4214e-07
1.01775e-06
1.01786e-06
1.27668e-06
4.58393e-07
1.0343e-06
1.03439e-06
1.29019e-06
4.74151e-07
1.04973e-06
1.04982e-06
1.30276e-06
4.89592e-07
1.06432e-06
1.06444e-06
1.3147e-06
5.04775e-07
1.07805e-06
1.07808e-06
1.32601e-06
5.19331e-07
1.09086e-06
1.09095e-06
1.33651e-06
5.33417e-07
1.10258e-06
1.10273e-06
1.34638e-06
5.46937e-07
1.11393e-06
1.11386e-06
1.35558e-06
5.60217e-07
1.12406e-06
1.12438e-06
1.36453e-06
5.72253e-07
1.13357e-06
1.13352e-06
1.37213e-06
5.84352e-07
1.14218e-06
1.142e-06
1.3794e-06
5.94546e-07
1.14924e-06
1.14978e-06
1.38544e-06
6.06138e-07
1.15795e-06
1.15799e-06
1.3938e-06
6.1774e-07
1.1665e-06
1.16633e-06
1.40103e-06
6.24114e-07
1.16828e-06
1.16859e-06
1.40186e-06
6.31939e-07
1.17431e-06
1.17314e-06
1.40604e-06
6.43199e-07
1.17917e-06
1.18226e-06