/*--------------------------------*- C++ -*----------------------------------*\
| =========                 |                                                 |
| \\      /  F ield         | OpenFOAM: The Open Source CFD Toolbox           |
|  \\    /   O peration     | Version:  v1906                                 |
|   \\  /    A nd           | Web:      www.OpenFOAM.com                      |
|    \\/     M anipulation  |                                                 |
\*---------------------------------------------------------------------------*/
FoamFile
{
    version     2.0;
    format      ascii;
    class       volScalarField;
    location    "750";
    object      epsilon;
}
// * * * * * * * * * * * * * * * * * * * * * * * * * * * * * * * * * * * * * //

dimensions      [0 2 -3 0 0 0 0];


internalField   nonuniform List<scalar> 
171728
(
4.95567e-07
4.9733e-07
4.9733e-07
4.99575e-07
4.45573e-07
4.53735e-07
4.53737e-07
4.6371e-07
4.03752e-07
4.18513e-07
4.18517e-07
4.39411e-07
3.68363e-07
3.88552e-07
3.88558e-07
4.17667e-07
3.38015e-07
3.62102e-07
3.6211e-07
3.96081e-07
3.11646e-07
3.38273e-07
3.38281e-07
3.74581e-07
2.88473e-07
3.16638e-07
3.16646e-07
3.5371e-07
2.67923e-07
2.97021e-07
2.97031e-07
3.34147e-07
2.4958e-07
2.7937e-07
2.79379e-07
3.16484e-07
2.33137e-07
2.63679e-07
2.63688e-07
3.01161e-07
2.18366e-07
2.49955e-07
2.49964e-07
2.88493e-07
2.0509e-07
2.38198e-07
2.38208e-07
2.78694e-07
1.93172e-07
2.28411e-07
2.28421e-07
2.71875e-07
1.82498e-07
2.206e-07
2.20611e-07
2.68161e-07
1.72979e-07
2.14772e-07
2.14785e-07
2.67641e-07
1.64541e-07
2.10937e-07
2.10952e-07
2.70491e-07
1.57121e-07
2.09106e-07
2.09125e-07
2.76695e-07
1.50668e-07
2.09295e-07
2.09318e-07
2.86281e-07
1.45137e-07
2.1155e-07
2.11577e-07
2.99232e-07
1.40492e-07
2.15886e-07
2.15917e-07
3.15611e-07
1.36703e-07
2.22326e-07
2.22361e-07
3.35367e-07
1.33748e-07
2.30886e-07
2.30923e-07
3.58395e-07
1.31605e-07
2.41553e-07
2.41594e-07
3.84533e-07
1.30258e-07
2.54306e-07
2.5435e-07
4.13526e-07
1.29696e-07
2.69099e-07
2.69148e-07
4.45037e-07
1.29921e-07
2.8587e-07
2.85924e-07
4.7868e-07
1.3091e-07
3.0453e-07
3.04589e-07
5.14023e-07
1.32666e-07
3.24975e-07
3.25039e-07
5.50614e-07
1.35188e-07
3.47086e-07
3.47155e-07
5.8801e-07
1.38479e-07
3.70728e-07
3.70801e-07
6.25795e-07
1.42541e-07
3.95755e-07
3.95833e-07
6.6358e-07
1.47378e-07
4.22005e-07
4.22087e-07
7.01033e-07
1.52997e-07
4.4932e-07
4.49406e-07
7.3789e-07
1.59401e-07
4.77517e-07
4.77606e-07
7.73928e-07
1.66601e-07
5.06441e-07
5.06537e-07
8.09011e-07
1.74587e-07
5.35882e-07
5.35977e-07
8.42938e-07
1.83377e-07
5.65709e-07
5.65809e-07
8.75763e-07
1.92955e-07
5.95712e-07
5.95816e-07
9.07399e-07
2.03307e-07
6.25727e-07
6.25831e-07
9.37802e-07
2.14427e-07
6.55603e-07
6.55713e-07
9.67018e-07
2.26293e-07
6.85196e-07
6.85307e-07
9.95031e-07
2.38868e-07
7.14343e-07
7.14458e-07
1.02184e-06
2.52127e-07
7.42955e-07
7.43072e-07
1.0475e-06
2.66025e-07
7.70903e-07
7.71022e-07
1.07204e-06
2.8051e-07
7.98102e-07
7.9822e-07
1.0955e-06
2.95532e-07
8.24478e-07
8.24596e-07
1.11792e-06
3.1099e-07
8.49913e-07
8.50032e-07
1.13924e-06
3.26853e-07
8.74417e-07
8.74527e-07
1.15962e-06
3.43035e-07
8.97952e-07
8.9806e-07
1.17902e-06
3.59438e-07
9.20443e-07
9.20557e-07
1.19748e-06
3.76027e-07
9.41958e-07
9.42066e-07
1.21505e-06
3.92634e-07
9.62397e-07
9.62503e-07
1.2317e-06
4.09307e-07
9.81918e-07
9.82017e-07
1.24758e-06
4.25773e-07
1.00022e-06
1.00031e-06
1.26243e-06
4.42134e-07
1.01775e-06
1.01787e-06
1.27668e-06
4.58424e-07
1.03431e-06
1.0344e-06
1.29021e-06
4.74162e-07
1.04973e-06
1.04982e-06
1.30275e-06
4.89552e-07
1.06431e-06
1.06443e-06
1.31468e-06
5.04774e-07
1.07807e-06
1.0781e-06
1.32603e-06
5.19426e-07
1.0909e-06
1.09102e-06
1.33658e-06
5.3329e-07
1.10248e-06
1.10261e-06
1.34622e-06
5.47018e-07
1.11408e-06
1.11401e-06
1.35578e-06
5.60216e-07
1.12396e-06
1.1244e-06
1.36456e-06
5.7236e-07
1.13369e-06
1.13338e-06
1.37203e-06
5.83958e-07
1.14174e-06
1.1418e-06
1.37894e-06
5.94482e-07
1.14907e-06
1.14952e-06
1.38542e-06
6.06635e-07
1.15877e-06
1.15889e-06
1.3946e-06
6.17985e-07
1.16636e-06
1.1663e-06
1.40123e-06
6.23261e-07
1.16797e-06
1.16718e-06
1.39981e-06
6.32091e-07
1.17256e-06
1.17354e-06
1.40725e-06
6.43706e-07
1.1817e-06
1.18541e-06
1.42125e-06
6.52444e-07
1.19343e-06
1.19009e-06
1.42508e-06
6.49163e-07
1.17614e-06
1.16943e-06
1.3927e-06
6.40385e-07
1.14888e-06
1.15471e-06
1.37392e-06
6.77151e-07
1.21607e-06
1.22878e-06
1.48059e-06
7.29625e-07
1.29056e-06
1.28387e-06
1.54676e-06
6.91594e-07
1.20538e-06
1.20078e-06
1.42715e-06
6.14214e-07
1.09779e-06
1.0971e-06
1.31069e-06
6.16243e-07
1.12322e-06
1.11043e-06
1.35158e-06
6.94414e-07
1.19774e-06
1.21256e-06
1.43034e-06
7.2333e-07
1.2239e-06
1.25059e-06
1.47966e-06
7.07335e-07
1.22698e-06
1.21387e-06
1.48285e-06
6.79434e-07
1.19596e-06
1.17093e-06
1.41703e-06
6.82801e-07
1.20178e-06
1.18852e-06
1.42373e-06
7.22569e-07
1.23049e-06
1.22827e-06
1.47716e-06
7.18181e-07
1.19192e-06
1.21724e-06
1.4436e-06
6.61347e-07
1.12789e-06
1.16085e-06
1.36226e-06
6.44346e-07
1.13685e-06
1.14352e-06
1.36701e-06
6.86275e-07
1.20999e-06
1.1729e-06
1.44547e-06
7.25101e-07
1.22599e-06
1.19318e-06
1.46756e-06
7.07783e-07
1.17398e-06
1.18064e-06
1.41942e-06
6.67145e-07
1.13098e-06
1.15944e-06
1.37397e-06
6.57547e-07
1.13701e-06
1.15692e-06
1.37025e-06
6.74209e-07
1.16895e-06
1.16448e-06
1.39943e-06
6.753e-07
1.12497e-06
1.11411e-06
1.38129e-06
5.06417e-07
5.05584e-07
5.05582e-07
5.06417e-07
5.05583e-07
5.05582e-07
5.09649e-07
5.09649e-07
5.09649e-07
5.09649e-07
5.05584e-07
5.05584e-07
5.06418e-07
5.05584e-07
5.05583e-07
5.06418e-07
4.99575e-07
4.67237e-07
4.97331e-07
4.97335e-07
4.63713e-07
4.63721e-07
4.99575e-07
4.67235e-07
4.97335e-07
4.97336e-07
4.63718e-07
4.63724e-07
4.97332e-07
4.63709e-07
4.63714e-07
4.99575e-07
4.67241e-07
4.97334e-07
4.6371e-07
4.63719e-07
4.6724e-07
4.63709e-07
4.41426e-07
4.5374e-07
4.53748e-07
4.26738e-07
4.26747e-07
4.63708e-07
4.4142e-07
4.53744e-07
4.53751e-07
4.26739e-07
4.26751e-07
4.53741e-07
4.26729e-07
4.26741e-07
4.63711e-07
4.41431e-07
4.53744e-07
4.26734e-07
4.26741e-07
4.41429e-07
4.39407e-07
4.19283e-07
4.18522e-07
4.1853e-07
3.95676e-07
3.95682e-07
4.39405e-07
4.19275e-07
4.18522e-07
4.18535e-07
3.95672e-07
3.95689e-07
4.18525e-07
3.95663e-07
3.95679e-07
4.39413e-07
4.19289e-07
4.18523e-07
3.95669e-07
3.95673e-07
4.19287e-07
4.17662e-07
3.97645e-07
3.88566e-07
3.88571e-07
3.68461e-07
3.68466e-07
4.17656e-07
3.97636e-07
3.8856e-07
3.88578e-07
3.68452e-07
3.68473e-07
3.88569e-07
3.68444e-07
3.68464e-07
4.17669e-07
3.97651e-07
3.88562e-07
3.68452e-07
3.68454e-07
3.97649e-07
3.96076e-07
3.76085e-07
3.6212e-07
3.62124e-07
3.44033e-07
3.44036e-07
3.96069e-07
3.76076e-07
3.62109e-07
3.62131e-07
3.4402e-07
3.44043e-07
3.62123e-07
3.44013e-07
3.44036e-07
3.96082e-07
3.76091e-07
3.62111e-07
3.44022e-07
3.44021e-07
3.7609e-07
3.74575e-07
3.55111e-07
3.38293e-07
3.38295e-07
3.21875e-07
3.21876e-07
3.74568e-07
3.55101e-07
3.38279e-07
3.38303e-07
3.21858e-07
3.21884e-07
3.38296e-07
3.21853e-07
3.21877e-07
3.74581e-07
3.55117e-07
3.3828e-07
3.21862e-07
3.2186e-07
3.55116e-07
3.53704e-07
3.35395e-07
3.16659e-07
3.16661e-07
3.01763e-07
3.01764e-07
3.53696e-07
3.35385e-07
3.16643e-07
3.16668e-07
3.01745e-07
3.01771e-07
3.16662e-07
3.0174e-07
3.01765e-07
3.5371e-07
3.35401e-07
3.16644e-07
3.01749e-07
3.01746e-07
3.35401e-07
3.34141e-07
3.17533e-07
2.97044e-07
2.97045e-07
2.83623e-07
2.83623e-07
3.34134e-07
3.17523e-07
2.97026e-07
2.97053e-07
2.83603e-07
2.83631e-07
2.97047e-07
2.83599e-07
2.83625e-07
3.34148e-07
3.17539e-07
2.97027e-07
2.83608e-07
2.83604e-07
3.17539e-07
3.16478e-07
3.01975e-07
2.79394e-07
2.79394e-07
2.67442e-07
2.67442e-07
3.1647e-07
3.01964e-07
2.79374e-07
2.79402e-07
2.67421e-07
2.67449e-07
2.79396e-07
2.67417e-07
2.67443e-07
3.16485e-07
3.01981e-07
2.79375e-07
2.67426e-07
2.67421e-07
3.01981e-07
3.01154e-07
2.89041e-07
2.63704e-07
2.63704e-07
2.53227e-07
2.53227e-07
3.01146e-07
2.89029e-07
2.63682e-07
2.63711e-07
2.53204e-07
2.53234e-07
2.63705e-07
2.532e-07
2.53228e-07
3.01162e-07
2.89047e-07
2.63683e-07
2.5321e-07
2.53205e-07
2.89046e-07
2.88486e-07
2.7895e-07
2.49981e-07
2.49981e-07
2.40981e-07
2.4098e-07
2.88477e-07
2.78938e-07
2.49958e-07
2.49989e-07
2.40956e-07
2.40988e-07
2.49982e-07
2.40952e-07
2.4098e-07
2.88493e-07
2.78957e-07
2.49959e-07
2.40961e-07
2.40957e-07
2.78955e-07
2.78688e-07
2.71829e-07
2.38227e-07
2.38227e-07
2.30702e-07
2.30702e-07
2.78678e-07
2.71816e-07
2.38203e-07
2.38235e-07
2.30676e-07
2.3071e-07
2.38227e-07
2.3067e-07
2.30701e-07
2.78696e-07
2.71837e-07
2.38204e-07
2.30681e-07
2.30676e-07
2.71835e-07
2.71867e-07
2.67861e-07
2.28441e-07
2.28443e-07
2.22398e-07
2.224e-07
2.71858e-07
2.67847e-07
2.28417e-07
2.28451e-07
2.22372e-07
2.22408e-07
2.28442e-07
2.22364e-07
2.22397e-07
2.71877e-07
2.67871e-07
2.28417e-07
2.22375e-07
2.22371e-07
2.67869e-07
2.68153e-07
2.66978e-07
2.20632e-07
2.20637e-07
2.16076e-07
2.1608e-07
2.68141e-07
2.66963e-07
2.20608e-07
2.20645e-07
2.16048e-07
2.16088e-07
2.20634e-07
2.16038e-07
2.16074e-07
2.68163e-07
2.6699e-07
2.20608e-07
2.1605e-07
2.16047e-07
2.66988e-07
2.67632e-07
2.69151e-07
2.1481e-07
2.14815e-07
2.11744e-07
2.11752e-07
2.67617e-07
2.69135e-07
2.14783e-07
2.14824e-07
2.11717e-07
2.11761e-07
2.14809e-07
2.11701e-07
2.11741e-07
2.67642e-07
2.69165e-07
2.14782e-07
2.11716e-07
2.11714e-07
2.69163e-07
2.70481e-07
2.7466e-07
2.10981e-07
2.10989e-07
2.09414e-07
2.09422e-07
2.70464e-07
2.74639e-07
2.10954e-07
2.10999e-07
2.09386e-07
2.09435e-07
2.10978e-07
2.09363e-07
2.09408e-07
2.70493e-07
2.74675e-07
2.1095e-07
2.09381e-07
2.0938e-07
2.74672e-07
2.76685e-07
2.83545e-07
2.09157e-07
2.09166e-07
2.09128e-07
2.09136e-07
2.76663e-07
2.8352e-07
2.0913e-07
2.09178e-07
2.091e-07
2.09153e-07
2.09152e-07
2.0907e-07
2.09121e-07
2.76697e-07
2.83562e-07
2.09123e-07
2.09092e-07
2.09091e-07
2.83558e-07
2.86271e-07
2.95813e-07
2.09354e-07
2.09363e-07
2.10851e-07
2.10857e-07
2.86242e-07
2.95783e-07
2.09327e-07
2.09381e-07
2.10821e-07
2.10881e-07
2.09347e-07
2.10784e-07
2.10841e-07
2.86283e-07
2.95832e-07
2.09318e-07
2.1081e-07
2.10811e-07
2.95827e-07
2.99219e-07
3.11501e-07
2.11616e-07
2.11626e-07
2.14675e-07
2.14684e-07
2.99188e-07
3.11467e-07
2.11588e-07
2.11649e-07
2.14644e-07
2.14709e-07
2.11607e-07
2.14599e-07
2.14662e-07
2.99235e-07
3.11522e-07
2.11577e-07
2.14628e-07
2.14632e-07
3.11517e-07
3.15596e-07
3.30565e-07
2.15962e-07
2.15975e-07
2.20595e-07
2.20616e-07
3.15561e-07
3.30527e-07
2.15933e-07
2.16e-07
2.20565e-07
2.20641e-07
2.15951e-07
2.20517e-07
2.20587e-07
3.15616e-07
3.30591e-07
2.1592e-07
2.20549e-07
2.20555e-07
3.30585e-07
3.35347e-07
3.52914e-07
2.22404e-07
2.22429e-07
2.28629e-07
2.28662e-07
3.35309e-07
3.52874e-07
2.22377e-07
2.22455e-07
2.28601e-07
2.28688e-07
2.22398e-07
2.28549e-07
2.28625e-07
3.35372e-07
3.52947e-07
2.22365e-07
2.28584e-07
2.28592e-07
3.5294e-07
3.58373e-07
3.78401e-07
2.30967e-07
2.31003e-07
2.38774e-07
2.38817e-07
3.58334e-07
3.78358e-07
2.30941e-07
2.31029e-07
2.38746e-07
2.38844e-07
2.30965e-07
2.3869e-07
2.38775e-07
3.58401e-07
3.78439e-07
2.3093e-07
2.38728e-07
2.38739e-07
3.78431e-07
3.84506e-07
4.06787e-07
2.41638e-07
2.41684e-07
2.51014e-07
2.51066e-07
3.84465e-07
4.06741e-07
2.41611e-07
2.41712e-07
2.50985e-07
2.51094e-07
2.41639e-07
2.50925e-07
2.51018e-07
3.8454e-07
4.06828e-07
2.41602e-07
2.50966e-07
2.50979e-07
4.06823e-07
4.13493e-07
4.37751e-07
2.54397e-07
2.5445e-07
2.65311e-07
2.65369e-07
4.13449e-07
4.37703e-07
2.54369e-07
2.5448e-07
2.65278e-07
2.654e-07
2.54402e-07
2.65214e-07
2.65317e-07
4.1353e-07
4.378e-07
2.54364e-07
2.65259e-07
2.65279e-07
4.37793e-07
4.44999e-07
4.70914e-07
2.69199e-07
2.69258e-07
2.81603e-07
2.81666e-07
4.44952e-07
4.70861e-07
2.69167e-07
2.6929e-07
2.81565e-07
2.81699e-07
2.69205e-07
2.81497e-07
2.81611e-07
4.45041e-07
4.70967e-07
2.69168e-07
2.81547e-07
2.81572e-07
4.70963e-07
4.78635e-07
5.05855e-07
2.85978e-07
2.86042e-07
2.99808e-07
2.99876e-07
4.78584e-07
5.058e-07
2.85942e-07
2.86077e-07
2.99764e-07
2.99912e-07
2.85987e-07
2.99693e-07
2.99819e-07
4.78682e-07
5.05916e-07
2.85948e-07
2.99748e-07
2.99777e-07
5.05914e-07
5.13969e-07
5.42128e-07
3.04647e-07
3.04715e-07
3.19827e-07
3.19899e-07
5.13916e-07
5.42069e-07
3.04605e-07
3.04754e-07
3.19776e-07
3.19937e-07
3.04659e-07
3.19703e-07
3.19842e-07
5.14022e-07
5.42192e-07
3.04616e-07
3.19762e-07
3.19794e-07
5.42193e-07
5.50554e-07
5.79292e-07
3.25102e-07
3.25172e-07
3.41544e-07
3.41619e-07
5.50496e-07
5.79231e-07
3.25052e-07
3.25214e-07
3.41485e-07
3.41659e-07
3.25117e-07
3.4141e-07
3.41561e-07
5.5061e-07
5.79361e-07
3.25069e-07
3.41473e-07
3.41507e-07
5.79362e-07
5.87947e-07
6.16923e-07
3.47223e-07
3.47294e-07
3.64826e-07
3.64904e-07
5.87888e-07
6.16857e-07
3.47166e-07
3.4734e-07
3.64759e-07
3.64945e-07
3.47241e-07
3.64683e-07
3.64847e-07
5.88007e-07
6.16995e-07
3.47186e-07
3.64751e-07
3.64785e-07
6.17e-07
6.25725e-07
6.54625e-07
3.70874e-07
3.70945e-07
3.8953e-07
3.89608e-07
6.25663e-07
6.54555e-07
3.70808e-07
3.70994e-07
3.89453e-07
3.89651e-07
3.70895e-07
3.89376e-07
3.89554e-07
6.25789e-07
6.54699e-07
3.70831e-07
3.89448e-07
3.89483e-07
6.54706e-07
6.63506e-07
6.92066e-07
3.95911e-07
3.95979e-07
4.15498e-07
4.15575e-07
6.6344e-07
6.91998e-07
3.95835e-07
3.96034e-07
4.15411e-07
4.15623e-07
3.95935e-07
4.15338e-07
4.15526e-07
6.6357e-07
6.92148e-07
3.95864e-07
4.15414e-07
4.15447e-07
6.92153e-07
7.00954e-07
7.28968e-07
4.22169e-07
4.22241e-07
4.42572e-07
4.42644e-07
7.0089e-07
7.28888e-07
4.22083e-07
4.22294e-07
4.42474e-07
4.42695e-07
4.22197e-07
4.42401e-07
4.42602e-07
7.01026e-07
7.29046e-07
4.22116e-07
4.42481e-07
4.42514e-07
7.29058e-07
7.3781e-07
7.65099e-07
4.49493e-07
4.49565e-07
4.70569e-07
4.70642e-07
7.37736e-07
7.65019e-07
4.49398e-07
4.49618e-07
4.70462e-07
4.70694e-07
4.49524e-07
4.70393e-07
4.70605e-07
7.37878e-07
7.65181e-07
4.49434e-07
4.70477e-07
4.70507e-07
7.65193e-07
7.73844e-07
8.00309e-07
4.77696e-07
4.77768e-07
4.9934e-07
4.99408e-07
7.73768e-07
8.00222e-07
4.77591e-07
4.77821e-07
4.99223e-07
4.99463e-07
4.77731e-07
4.99155e-07
4.99379e-07
7.73914e-07
8.00388e-07
4.77631e-07
4.99243e-07
4.99272e-07
8.00401e-07
8.08927e-07
8.34425e-07
5.06627e-07
5.06695e-07
5.28666e-07
5.28735e-07
8.08845e-07
8.34341e-07
5.06514e-07
5.06753e-07
5.28541e-07
5.28791e-07
5.06669e-07
5.2848e-07
5.2871e-07
8.08996e-07
8.34509e-07
5.06561e-07
5.28571e-07
5.28596e-07
8.34522e-07
8.4285e-07
8.67444e-07
5.36067e-07
5.36136e-07
5.58413e-07
5.58479e-07
8.42772e-07
8.6736e-07
5.35947e-07
5.36192e-07
5.58282e-07
5.58537e-07
5.36113e-07
5.58225e-07
5.58463e-07
8.42925e-07
8.67523e-07
5.35997e-07
5.58319e-07
5.58341e-07
8.6754e-07
8.75673e-07
8.99311e-07
5.65898e-07
5.65963e-07
5.88399e-07
5.88458e-07
8.75593e-07
8.99222e-07
5.65772e-07
5.66022e-07
5.88264e-07
5.88519e-07
5.6595e-07
5.88206e-07
5.88455e-07
8.75745e-07
8.99387e-07
5.65827e-07
5.88305e-07
5.88326e-07
8.99407e-07
9.07311e-07
9.29945e-07
5.95907e-07
5.95963e-07
6.18417e-07
6.18477e-07
9.07225e-07
9.29858e-07
5.95776e-07
5.96025e-07
6.18279e-07
6.18538e-07
5.95964e-07
6.18229e-07
6.1848e-07
9.07378e-07
9.3002e-07
5.95835e-07
6.1833e-07
6.18346e-07
9.30041e-07
9.37713e-07
9.59396e-07
6.25917e-07
6.25976e-07
6.48341e-07
6.48398e-07
9.37633e-07
9.5931e-07
6.25784e-07
6.26035e-07
6.48202e-07
6.48459e-07
6.25979e-07
6.48153e-07
6.48412e-07
9.37781e-07
9.59468e-07
6.25847e-07
6.48258e-07
6.48272e-07
9.59492e-07
9.6693e-07
9.87657e-07
6.55795e-07
6.55848e-07
6.78019e-07
6.78074e-07
9.66848e-07
9.87569e-07
6.5566e-07
6.55909e-07
6.7788e-07
6.78136e-07
6.55864e-07
6.77834e-07
6.78094e-07
9.66993e-07
9.87721e-07
6.5573e-07
6.77944e-07
6.77957e-07
9.87747e-07
9.94943e-07
1.01471e-06
6.85379e-07
6.85432e-07
7.07283e-07
7.07331e-07
9.94864e-07
1.01462e-06
6.85251e-07
6.85496e-07
7.07151e-07
7.07397e-07
6.85456e-07
7.07099e-07
7.07365e-07
9.95004e-07
1.01477e-06
6.85318e-07
7.07214e-07
7.07228e-07
1.0148e-06
1.02175e-06
1.04061e-06
7.14525e-07
7.14574e-07
7.36036e-07
7.36082e-07
1.02167e-06
1.04052e-06
7.14399e-07
7.14638e-07
7.35907e-07
7.3615e-07
7.14607e-07
7.35857e-07
7.36125e-07
1.02181e-06
1.04067e-06
7.14469e-07
7.35976e-07
7.35987e-07
1.0407e-06
1.04742e-06
1.06539e-06
7.4313e-07
7.43178e-07
7.64157e-07
7.64204e-07
1.04734e-06
1.0653e-06
7.43009e-07
7.43246e-07
7.64031e-07
7.64267e-07
7.4322e-07
7.63987e-07
7.64248e-07
1.04747e-06
1.06544e-06
7.43083e-07
7.64105e-07
7.64112e-07
1.06547e-06
1.07196e-06
1.08907e-06
7.71072e-07
7.71119e-07
7.91545e-07
7.91583e-07
1.07188e-06
1.08898e-06
7.70954e-07
7.71184e-07
7.91419e-07
7.91646e-07
7.71162e-07
7.91373e-07
7.9164e-07
1.07201e-06
1.08911e-06
7.71027e-07
7.9149e-07
7.91503e-07
1.08915e-06
1.09542e-06
1.11171e-06
7.98274e-07
7.9831e-07
8.18141e-07
8.18179e-07
1.09533e-06
1.11162e-06
7.98157e-07
7.98377e-07
8.18017e-07
8.18237e-07
7.98372e-07
8.17976e-07
8.18237e-07
1.09546e-06
1.11175e-06
7.98237e-07
8.1809e-07
8.18104e-07
1.1118e-06
1.11783e-06
1.13326e-06
8.2464e-07
8.24679e-07
8.43796e-07
8.43837e-07
1.11775e-06
1.13318e-06
8.24524e-07
8.24741e-07
8.43674e-07
8.43899e-07
8.24735e-07
8.43642e-07
8.43891e-07
1.11787e-06
1.13331e-06
8.24604e-07
8.43762e-07
8.43761e-07
1.13334e-06
1.13916e-06
1.15385e-06
8.50067e-07
8.50105e-07
8.68544e-07
8.68568e-07
1.13908e-06
1.15375e-06
8.49951e-07
8.50168e-07
8.68421e-07
8.68624e-07
8.50166e-07
8.68381e-07
8.68638e-07
1.13921e-06
1.15387e-06
8.50037e-07
8.68491e-07
8.6851e-07
1.15393e-06
1.15954e-06
1.17346e-06
8.74581e-07
8.74604e-07
8.92317e-07
8.92351e-07
1.15945e-06
1.17337e-06
8.74464e-07
8.74658e-07
8.92192e-07
8.92396e-07
8.74673e-07
8.9217e-07
8.92406e-07
1.15957e-06
1.17349e-06
8.74547e-07
8.92273e-07
8.92281e-07
1.17353e-06
1.17894e-06
1.1921e-06
8.98095e-07
8.98131e-07
9.15054e-07
9.15081e-07
1.17887e-06
1.19202e-06
8.97978e-07
8.98179e-07
9.14937e-07
9.15143e-07
8.98191e-07
9.14909e-07
9.15151e-07
1.17898e-06
1.19214e-06
8.98068e-07
9.15026e-07
9.15031e-07
1.19219e-06
1.19739e-06
1.20988e-06
9.20594e-07
9.20614e-07
9.3683e-07
9.36847e-07
1.19731e-06
1.20979e-06
9.20482e-07
9.20674e-07
9.36712e-07
9.369e-07
9.20689e-07
9.3668e-07
9.36919e-07
1.19743e-06
1.2099e-06
9.20569e-07
9.36791e-07
9.36803e-07
1.20995e-06
1.21498e-06
1.22671e-06
9.42103e-07
9.42127e-07
9.57497e-07
9.57528e-07
1.2149e-06
1.22664e-06
9.41986e-07
9.42172e-07
9.57378e-07
9.57574e-07
9.42191e-07
9.5737e-07
9.57592e-07
1.215e-06
1.22674e-06
9.42075e-07
9.57473e-07
9.57478e-07
1.22679e-06
1.23163e-06
1.24278e-06
9.62539e-07
9.62556e-07
9.7728e-07
9.77303e-07
1.23156e-06
1.24269e-06
9.62429e-07
9.6261e-07
9.77164e-07
9.77349e-07
9.62626e-07
9.77146e-07
9.77359e-07
1.23166e-06
1.2428e-06
9.62513e-07
9.77244e-07
9.77243e-07
1.24285e-06
1.24751e-06
1.2578e-06
9.82038e-07
9.82068e-07
9.95864e-07
9.9589e-07
1.24744e-06
1.25774e-06
9.81928e-07
9.82114e-07
9.95743e-07
9.95918e-07
9.82139e-07
9.95736e-07
9.95955e-07
1.24754e-06
1.25784e-06
9.82023e-07
9.95833e-07
9.95843e-07
1.2579e-06
1.26234e-06
1.27216e-06
1.00035e-06
1.00037e-06
1.01354e-06
1.01357e-06
1.26228e-06
1.27209e-06
1.00023e-06
1.0004e-06
1.01344e-06
1.01364e-06
1.00044e-06
1.01343e-06
1.01365e-06
1.26237e-06
1.27221e-06
1.00033e-06
1.01356e-06
1.01355e-06
1.27225e-06
1.27659e-06
1.28594e-06
1.01785e-06
1.01789e-06
1.03047e-06
1.03045e-06
1.27653e-06
1.28584e-06
1.01775e-06
1.01796e-06
1.03035e-06
1.03047e-06
1.01796e-06
1.0303e-06
1.03051e-06
1.27665e-06
1.28592e-06
1.01785e-06
1.03037e-06
1.03039e-06
1.28597e-06
1.29019e-06
1.29862e-06
1.03449e-06
1.03446e-06
1.04608e-06
1.04611e-06
1.29008e-06
1.29853e-06
1.03437e-06
1.03448e-06
1.04595e-06
1.04612e-06
1.03454e-06
1.04596e-06
1.04616e-06
1.29015e-06
1.29863e-06
1.03443e-06
1.04605e-06
1.04604e-06
1.29869e-06
1.30265e-06
1.31059e-06
1.04984e-06
1.04988e-06
1.06076e-06
1.06083e-06
1.3026e-06
1.31058e-06
1.04972e-06
1.0499e-06
1.06069e-06
1.06092e-06
1.04993e-06
1.06071e-06
1.06091e-06
1.3027e-06
1.31072e-06
1.04981e-06
1.06085e-06
1.06082e-06
1.31072e-06
1.31455e-06
1.32216e-06
1.06436e-06
1.06442e-06
1.07488e-06
1.07488e-06
1.31453e-06
1.32209e-06
1.06428e-06
1.0645e-06
1.07475e-06
1.07485e-06
1.06451e-06
1.07475e-06
1.07493e-06
1.31466e-06
1.32214e-06
1.06442e-06
1.07479e-06
1.07483e-06
1.32224e-06
1.32598e-06
1.33292e-06
1.0782e-06
1.07819e-06
1.08791e-06
1.08788e-06
1.3259e-06
1.33277e-06
1.07808e-06
1.07817e-06
1.08779e-06
1.08792e-06
1.07825e-06
1.08773e-06
1.08794e-06
1.32592e-06
1.33286e-06
1.07814e-06
1.08782e-06
1.08783e-06
1.33291e-06
1.33658e-06
1.34268e-06
1.09109e-06
1.09106e-06
1.09978e-06
1.09987e-06
1.33643e-06
1.34267e-06
1.09097e-06
1.09112e-06
1.0997e-06
1.09995e-06
1.09111e-06
1.09975e-06
1.0999e-06
1.33655e-06
1.34283e-06
1.09099e-06
1.09987e-06
1.0998e-06
1.34278e-06
1.34607e-06
1.352e-06
1.10247e-06
1.10256e-06
1.1111e-06
1.11119e-06
1.34609e-06
1.35203e-06
1.10241e-06
1.10267e-06
1.11099e-06
1.11115e-06
1.10267e-06
1.11108e-06
1.11128e-06
1.34624e-06
1.35206e-06
1.10258e-06
1.11112e-06
1.11118e-06
1.35221e-06
1.35563e-06
1.36151e-06
1.11414e-06
1.11423e-06
1.12211e-06
1.12195e-06
1.35564e-06
1.36126e-06
1.11397e-06
1.11405e-06
1.12198e-06
1.12201e-06
1.11419e-06
1.12175e-06
1.12202e-06
1.35561e-06
1.36137e-06
1.11407e-06
1.12196e-06
1.12197e-06
1.36141e-06
1.36462e-06
1.3688e-06
1.12432e-06
1.12411e-06
1.13118e-06
1.1313e-06
1.36431e-06
1.36869e-06
1.12427e-06
1.12445e-06
1.1311e-06
1.13137e-06
1.12436e-06
1.13125e-06
1.13134e-06
1.36457e-06
1.36895e-06
1.12436e-06
1.13126e-06
1.13119e-06
1.36893e-06
1.37197e-06
1.37622e-06
1.1336e-06
1.13375e-06
1.14001e-06
1.1399e-06
1.37198e-06
1.37616e-06
1.13348e-06
1.13352e-06
1.13996e-06
1.13986e-06
1.13365e-06
1.1398e-06
1.13997e-06
1.37199e-06
1.37585e-06
1.13343e-06
1.13967e-06
1.13979e-06
1.37605e-06
1.37899e-06
1.3818e-06
1.14186e-06
1.14184e-06
1.14703e-06
1.14749e-06
1.37892e-06
1.38221e-06
1.14181e-06
1.14196e-06
1.14684e-06
1.14752e-06
1.14194e-06
1.14737e-06
1.1475e-06
1.37879e-06
1.38261e-06
1.14179e-06
1.14767e-06
1.14751e-06
1.38246e-06
1.38472e-06
1.39104e-06
1.14888e-06
1.1492e-06
1.15657e-06
1.15601e-06
1.38518e-06
1.39026e-06
1.14871e-06
1.14929e-06
1.15648e-06
1.15629e-06
1.14934e-06
1.15582e-06
1.15641e-06
1.38556e-06
1.39074e-06
1.14946e-06
1.15626e-06
1.15642e-06
1.39096e-06
1.39497e-06
1.39971e-06
1.1596e-06
1.15897e-06
1.16576e-06
1.16562e-06
1.39392e-06
1.3991e-06
1.15947e-06
1.15907e-06
1.16572e-06
1.16556e-06
1.15922e-06
1.16547e-06
1.16555e-06
1.39431e-06
1.3989e-06
1.15906e-06
1.16526e-06
1.16531e-06
1.39909e-06
1.40172e-06
1.39783e-06
1.16636e-06
1.16648e-06
1.16662e-06
1.16735e-06
1.40129e-06
1.39887e-06
1.1664e-06
1.16654e-06
1.16662e-06
1.16709e-06
1.1664e-06
1.16733e-06
1.16692e-06
1.40111e-06
1.3985e-06
1.16624e-06
1.167e-06
1.16679e-06
1.39824e-06
1.39944e-06
1.4031e-06
1.16694e-06
1.16798e-06
1.17186e-06
1.17165e-06
1.40064e-06
1.40339e-06
1.16681e-06
1.16722e-06
1.17127e-06
1.17082e-06
1.16723e-06
1.17147e-06
1.17178e-06
1.40003e-06
1.40246e-06
1.16702e-06
1.17096e-06
1.17151e-06
1.40317e-06
1.40701e-06
1.41566e-06
1.17436e-06
1.17277e-06
1.18177e-06
1.17787e-06
1.40606e-06
1.40992e-06
1.17386e-06
1.17333e-06
1.18222e-06
1.18236e-06
1.17443e-06
1.17808e-06
1.18301e-06
1.40634e-06
1.41598e-06
1.17435e-06
1.18255e-06
1.18362e-06
1.41729e-06
1.41956e-06
1.42443e-06
1.18434e-06
1.18143e-06
1.18979e-06
1.19254e-06
1.41422e-06
1.427e-06
1.18492e-06
1.18537e-06
1.18991e-06
1.19069e-06
1.18561e-06
1.19234e-06
1.18946e-06
1.42005e-06
1.42526e-06
1.18611e-06
1.19014e-06
1.18914e-06
1.42396e-06
1.42614e-06
1.40087e-06
1.18995e-06
1.19378e-06
1.17995e-06
1.18737e-06
1.43052e-06
1.41425e-06
1.18995e-06
1.19071e-06
1.17894e-06
1.17898e-06
1.18929e-06
1.18653e-06
1.17651e-06
1.42702e-06
1.40076e-06
1.18881e-06
1.17801e-06
1.17508e-06
1.39494e-06
1.3982e-06
1.36423e-06
1.17078e-06
1.1768e-06
1.15166e-06
1.14953e-06
1.41124e-06
1.35893e-06
1.16996e-06
1.17002e-06
1.15208e-06
1.15313e-06
1.16834e-06
1.15008e-06
1.15492e-06
1.39796e-06
1.36543e-06
1.16727e-06
1.15415e-06
1.15577e-06
1.36886e-06
1.36659e-06
1.44022e-06
1.15168e-06
1.14808e-06
1.19592e-06
1.18361e-06
1.35943e-06
1.41699e-06
1.15228e-06
1.15347e-06
1.1976e-06
1.19893e-06
1.15584e-06
1.18487e-06
1.2042e-06
1.36813e-06
1.44258e-06
1.15707e-06
1.20082e-06
1.2072e-06
1.45449e-06
1.46899e-06
1.5552e-06
1.22586e-06
1.21548e-06
1.28573e-06
1.28806e-06
1.44757e-06
1.56078e-06
1.22709e-06
1.22767e-06
1.28483e-06
1.28375e-06
1.23151e-06
1.28678e-06
1.279e-06
1.47048e-06
1.55216e-06
1.23377e-06
1.28221e-06
1.27795e-06
1.54461e-06
1.55986e-06
1.46627e-06
1.28766e-06
1.29207e-06
1.23499e-06
1.2437e-06
1.56873e-06
1.48359e-06
1.28658e-06
1.28565e-06
1.23421e-06
1.23644e-06
1.27943e-06
1.24226e-06
1.22351e-06
1.5568e-06
1.46596e-06
1.27811e-06
1.23475e-06
1.22153e-06
1.44287e-06
1.4484e-06
1.29297e-06
1.19891e-06
1.20623e-06
1.10346e-06
1.10862e-06
1.4643e-06
1.3006e-06
1.19847e-06
1.20194e-06
1.10326e-06
1.10894e-06
1.19067e-06
1.11031e-06
1.115e-06
1.449e-06
1.30194e-06
1.18894e-06
1.11078e-06
1.11434e-06
1.31192e-06
1.28683e-06
1.29927e-06
1.09017e-06
1.09553e-06
1.09521e-06
1.10131e-06
1.2946e-06
1.31106e-06
1.0895e-06
1.0944e-06
1.0926e-06
1.09235e-06
1.10678e-06
1.1035e-06
1.11588e-06
1.29654e-06
1.29963e-06
1.10613e-06
1.0954e-06
1.1142e-06
1.33542e-06
1.32085e-06
1.44459e-06
1.11798e-06
1.1222e-06
1.20006e-06
1.18742e-06
1.33144e-06
1.42147e-06
1.11447e-06
1.10839e-06
1.20114e-06
1.19135e-06
1.13229e-06
1.18442e-06
1.18329e-06
1.31618e-06
1.42718e-06
1.13029e-06
1.18842e-06
1.1843e-06
1.41808e-06
1.46535e-06
1.50304e-06
1.21898e-06
1.20115e-06
1.24144e-06
1.22141e-06
1.43479e-06
1.46055e-06
1.22211e-06
1.21581e-06
1.24608e-06
1.25005e-06
1.19646e-06
1.21961e-06
1.22593e-06
1.45102e-06
1.51094e-06
1.19965e-06
1.24906e-06
1.23126e-06
1.47073e-06
1.50597e-06
1.46847e-06
1.24203e-06
1.22489e-06
1.22778e-06
1.22817e-06
1.46594e-06
1.47325e-06
1.24621e-06
1.25103e-06
1.22592e-06
1.2284e-06
1.23184e-06
1.22838e-06
1.23429e-06
1.51622e-06
1.47506e-06
1.23587e-06
1.22948e-06
1.23365e-06
1.48406e-06
1.46378e-06
1.39382e-06
1.21601e-06
1.22656e-06
1.17825e-06
1.20148e-06
1.47478e-06
1.44297e-06
1.21272e-06
1.21319e-06
1.1748e-06
1.17511e-06
1.22844e-06
1.20277e-06
1.19145e-06
1.46837e-06
1.39185e-06
1.22351e-06
1.17522e-06
1.18615e-06
1.41866e-06
1.39249e-06
1.39404e-06
1.17146e-06
1.19461e-06
1.17198e-06
1.19245e-06
1.44212e-06
1.43313e-06
1.16848e-06
1.17031e-06
1.16947e-06
1.17412e-06
1.18397e-06
1.19444e-06
1.1845e-06
1.39135e-06
1.40168e-06
1.17978e-06
1.17711e-06
1.18173e-06
1.41331e-06
1.40735e-06
1.48904e-06
1.18362e-06
1.199e-06
1.23636e-06
1.22907e-06
1.43955e-06
1.47335e-06
1.18114e-06
1.18547e-06
1.23479e-06
1.22393e-06
1.19478e-06
1.22825e-06
1.22678e-06
1.41439e-06
1.46619e-06
1.19211e-06
1.22273e-06
1.22463e-06
1.47126e-06
1.50252e-06
1.4953e-06
1.24575e-06
1.23246e-06
1.24144e-06
1.21506e-06
1.47823e-06
1.4405e-06
1.24526e-06
1.23095e-06
1.24498e-06
1.23114e-06
1.23014e-06
1.21026e-06
1.21554e-06
1.47417e-06
1.47084e-06
1.22884e-06
1.22677e-06
1.21953e-06
1.44888e-06
1.48964e-06
1.36727e-06
1.22286e-06
1.1957e-06
1.15043e-06
1.13721e-06
1.43379e-06
1.34093e-06
1.22953e-06
1.2215e-06
1.15776e-06
1.17369e-06
1.19921e-06
1.13749e-06
1.14923e-06
1.4693e-06
1.40396e-06
1.20485e-06
1.17414e-06
1.15623e-06
1.36424e-06
1.35878e-06
1.31002e-06
1.13108e-06
1.12628e-06
1.11032e-06
1.12257e-06
1.33849e-06
1.33952e-06
1.13726e-06
1.15894e-06
1.11314e-06
1.13941e-06
1.13954e-06
1.12601e-06
1.13502e-06
1.40025e-06
1.36575e-06
1.14553e-06
1.14343e-06
1.13835e-06
1.35708e-06
1.31326e-06
1.38407e-06
1.11179e-06
1.13225e-06
1.15938e-06
1.19051e-06
1.35342e-06
1.44283e-06
1.1139e-06
1.13936e-06
1.1551e-06
1.15795e-06
1.14174e-06
1.19415e-06
1.18817e-06
1.36713e-06
1.38747e-06
1.14274e-06
1.16258e-06
1.18419e-06
1.43134e-06
1.40757e-06
1.48358e-06
1.18265e-06
1.20768e-06
1.22687e-06
1.22769e-06
1.46079e-06
1.49017e-06
1.17717e-06
1.169e-06
1.222e-06
1.19287e-06
1.20191e-06
1.22699e-06
1.21754e-06
1.39776e-06
1.42607e-06
1.19735e-06
1.19207e-06
1.2122e-06
1.46644e-06
1.49236e-06
1.47576e-06
1.23068e-06
1.22715e-06
1.21739e-06
1.19429e-06
1.49135e-06
1.42817e-06
1.22635e-06
1.19525e-06
1.21616e-06
1.19073e-06
1.21697e-06
1.19046e-06
1.18966e-06
1.43095e-06
1.42852e-06
1.21163e-06
1.18551e-06
1.18725e-06
1.42271e-06
1.47146e-06
1.38623e-06
1.2028e-06
1.178e-06
1.1536e-06
1.13803e-06
1.42184e-06
1.35315e-06
1.20295e-06
1.18536e-06
1.15741e-06
1.16517e-06
1.17691e-06
1.13588e-06
1.14468e-06
1.42926e-06
1.40567e-06
1.1764e-06
1.16285e-06
1.14847e-06
1.37393e-06
1.38237e-06
1.34873e-06
1.14265e-06
1.13248e-06
1.12859e-06
1.13052e-06
1.35278e-06
1.35402e-06
1.14708e-06
1.16088e-06
1.13362e-06
1.15613e-06
1.13938e-06
1.13042e-06
1.13498e-06
1.40602e-06
1.39451e-06
1.14391e-06
1.15608e-06
1.13998e-06
1.36615e-06
1.35024e-06
1.37177e-06
1.12877e-06
1.13594e-06
1.14323e-06
1.15954e-06
1.36262e-06
1.40116e-06
1.13369e-06
1.1566e-06
1.14459e-06
1.16048e-06
1.13688e-06
1.16139e-06
1.15503e-06
1.39605e-06
1.39704e-06
1.14149e-06
1.16236e-06
1.15632e-06
1.39179e-06
1.38143e-06
1.39407e-06
1.15253e-06
1.16718e-06
1.15233e-06
1.15661e-06
1.4094e-06
1.40604e-06
1.15245e-06
1.16225e-06
1.15017e-06
1.14655e-06
1.16343e-06
1.1581e-06
1.15648e-06
1.39953e-06
1.38454e-06
1.16374e-06
1.14834e-06
1.15493e-06
1.40017e-06
1.37755e-06
1.12117e-06
1.12378e-06
1.38568e-06
1.11928e-06
1.11281e-06
6.77405e-07
6.69939e-07
6.76227e-07
1.12406e-06
1.36445e-06
1.12243e-06
5.35663e-07
5.35601e-07
5.35655e-07
5.35655e-07
5.34573e-07
5.35516e-07
5.33634e-07
5.35654e-07
5.34573e-07
5.35517e-07
5.35654e-07
5.33634e-07
5.35256e-07
5.35986e-07
5.35987e-07
1.10713e-06
3.88082e-06
9.33891e-07
4.60617e-06
1.26081e-05
1.66011e-05
1.10725e-06
3.88106e-06
9.33924e-07
4.60653e-06
4.95567e-07
4.95567e-07
4.95567e-07
4.57231e-07
4.57231e-07
4.57232e-07
4.57232e-07
5.43144e-07
1.22026e-06
4.95565e-07
4.85522e-07
5.25341e-07
1.20946e-06
4.82301e-07
1.26097e-05
1.66037e-05
5.43162e-07
4.95565e-07
1.22025e-06
4.85523e-07
5.2532e-07
4.82302e-07
1.20945e-06
2.52172e-06
2.52242e-06
4.8419e-07
2.37248e-06
2.37288e-06
1.4308e-06
5.59329e-06
1.32967e-06
6.13637e-06
2.12844e-05
2.31105e-05
1.4312e-06
5.59395e-06
1.32973e-06
6.13703e-06
4.45572e-07
4.45573e-07
4.45573e-07