/*--------------------------------*- C++ -*----------------------------------*\
| =========                 |                                                 |
| \\      /  F ield         | OpenFOAM: The Open Source CFD Toolbox           |
|  \\    /   O peration     | Version:  v1906                                 |
|   \\  /    A nd           | Web:      www.OpenFOAM.com                      |
|    \\/     M anipulation  |                                                 |
\*---------------------------------------------------------------------------*/
FoamFile
{
    version     2.0;
    format      ascii;
    class       volScalarField;
    location    "750";
    object      k;
}
// * * * * * * * * * * * * * * * * * * * * * * * * * * * * * * * * * * * * * //

dimensions      [0 2 -2 0 0 0 0];


internalField   nonuniform List<scalar> 
171728
(
4.19576e-05
3.66705e-05
3.66696e-05
4.19563e-05
3.66664e-05
3.66705e-05
3.66681e-05
3.66732e-05
4.19582e-05
3.66704e-05
3.66709e-05
4.19601e-05
2.10099e-05
2.10097e-05
2.10126e-05
2.10135e-05
6.95417e-05
6.95444e-05
6.69425e-05
6.69512e-05
6.4637e-05
7.13637e-05
6.47373e-05
6.46389e-05
7.13687e-05
7.13332e-05
6.47392e-05
5.31617e-05
6.02482e-05
2.90079e-05
2.87615e-05
5.33651e-05
5.31633e-05
3.64372e-05
6.02518e-05
2.90084e-05
6.01259e-05
2.87622e-05
5.33665e-05
6.95438e-05
6.95186e-05
4.17525e-05
6.69519e-05
6.69379e-05
6.68752e-05
6.68615e-05
6.95402e-05
6.95147e-05
7.13695e-05
6.47414e-05
6.02518e-05
2.90102e-05
5.33682e-05
7.13639e-05
6.47395e-05
2.90109e-05
6.02466e-05
5.33666e-05
5.31647e-05
3.64356e-05
6.02478e-05
2.90095e-05
6.01222e-05
2.87634e-05
5.33678e-05
6.46399e-05
7.13676e-05
7.13322e-05
6.474e-05
5.31635e-05
3.64408e-05
2.90117e-05
6.02482e-05
2.87656e-05
6.01225e-05
5.33666e-05
6.46383e-05
7.13651e-05
7.13296e-05
6.47385e-05
6.95422e-05
6.69446e-05
6.69415e-05
6.95426e-05
5.31652e-05
2.90132e-05
6.02492e-05
2.87669e-05
5.3368e-05
5.31662e-05
3.64387e-05
2.9014e-05
6.02534e-05
2.8768e-05
6.01277e-05
5.3369e-05
6.46404e-05
7.13659e-05
6.47405e-05
6.46417e-05
7.13698e-05
7.13343e-05
6.47418e-05
4.17561e-05
6.69413e-05
6.69529e-05
6.68649e-05
6.68763e-05
6.9542e-05
6.95168e-05
6.95448e-05
6.95196e-05
6.95301e-05
6.95329e-05
7.00863e-05
5.9436e-05
6.6911e-05
7.1155e-05
7.11381e-05
5.93636e-05
7.01438e-05
7.01383e-05
5.94319e-05
6.69209e-05
7.11648e-05
7.11485e-05
5.93729e-05
7.01727e-05
9.23707e-05
7.20465e-05
7.20393e-05
7.20354e-05
7.20291e-05
9.23927e-05
7.01262e-05
6.98237e-05
6.81358e-05
6.46783e-05
7.01163e-05
6.98336e-05
6.81718e-05
7.01873e-05
7.13492e-05
7.73987e-05
7.73777e-05
7.01989e-05
7.01294e-05
6.46964e-05
6.98475e-05
6.82222e-05
6.98374e-05
6.81865e-05
7.01395e-05
7.01283e-05
6.98244e-05
6.81429e-05
6.46802e-05
7.01184e-05
6.98342e-05
6.81789e-05
7.01897e-05
7.13541e-05
7.742e-05
7.73984e-05
7.02007e-05
7.01907e-05
7.73685e-05
7.13477e-05
7.01798e-05
7.73902e-05
7.01315e-05
6.46982e-05
6.98481e-05
6.82294e-05
6.98381e-05
6.81936e-05
7.01415e-05
6.95323e-05
6.95301e-05
9.23577e-05
7.20176e-05
7.20231e-05
9.23335e-05
7.20283e-05
7.20338e-05
7.01367e-05
5.94373e-05
6.6921e-05
7.11647e-05
5.93716e-05
7.11481e-05
7.01815e-05
7.00854e-05
5.94282e-05
6.69072e-05
7.11533e-05
7.11367e-05
5.93625e-05
7.01304e-05
7.01155e-05
7.11243e-05
5.92721e-05
6.69064e-05
5.93384e-05
7.00702e-05
7.11409e-05
7.00643e-05
7.11128e-05
5.92629e-05
6.68924e-05
7.00189e-05
7.11295e-05
5.93293e-05
9.23689e-05
7.20397e-05
7.20451e-05
7.20289e-05
7.20344e-05
9.23928e-05
6.95284e-05
6.95264e-05
7.019e-05
7.1355e-05
7.7419e-05
7.73972e-05
7.0201e-05
7.0132e-05
6.47004e-05
6.82292e-05
6.98492e-05
6.81933e-05
6.98392e-05
7.0142e-05
7.01869e-05
7.13495e-05
7.73977e-05
7.73764e-05
7.01984e-05
7.01297e-05
6.46985e-05
6.98485e-05
6.82222e-05
6.98385e-05
6.81865e-05
7.01397e-05
7.01283e-05
6.81425e-05
6.98248e-05
6.46811e-05
7.01184e-05
6.81785e-05
6.98347e-05
7.01895e-05
7.13532e-05
7.74179e-05
7.73963e-05
7.02005e-05
7.01905e-05
7.73664e-05
7.13466e-05
7.01796e-05
7.73882e-05
7.01315e-05
6.46991e-05
6.82289e-05
6.98485e-05
6.81931e-05
6.98385e-05
7.01415e-05
7.01271e-05
6.98243e-05
6.81375e-05
6.46795e-05
7.01172e-05
6.98342e-05
6.81735e-05
7.01881e-05
7.13505e-05
7.73996e-05
7.73781e-05
7.01991e-05
7.01891e-05
7.73482e-05
7.13441e-05
7.01781e-05
7.73699e-05
7.01303e-05
6.46976e-05
6.9848e-05
6.82239e-05
6.9838e-05
6.81881e-05
7.01403e-05
6.95304e-05
7.0137e-05
5.94359e-05
6.6914e-05
7.11629e-05
5.93703e-05
7.11462e-05
7.0182e-05
7.0088e-05
5.94307e-05
6.69108e-05
7.11546e-05
7.1138e-05
5.9365e-05
7.01329e-05
9.23735e-05
7.20398e-05
7.20462e-05
7.2029e-05
7.20354e-05
9.23974e-05
6.95311e-05
7.01275e-05
6.81378e-05
6.98254e-05
6.46815e-05
7.01177e-05
6.81737e-05
6.98353e-05
7.01891e-05
7.13513e-05
7.74003e-05
7.73786e-05
7.02e-05
7.019e-05
7.73705e-05
7.01308e-05
6.46996e-05
6.82242e-05
6.98491e-05
6.81884e-05
6.98391e-05
7.01407e-05
7.01286e-05
6.81423e-05
6.98258e-05
6.46828e-05
7.01187e-05
6.81781e-05
6.98357e-05
7.01894e-05
7.13552e-05
7.74166e-05
7.73954e-05
7.02011e-05
7.01911e-05
7.73659e-05
7.13488e-05
7.01796e-05
7.73871e-05
7.01318e-05
6.47009e-05
6.82283e-05
6.98495e-05
6.81928e-05
6.98395e-05
7.01418e-05
9.23603e-05
7.20239e-05
7.20178e-05
9.23363e-05
7.20346e-05
7.20285e-05
7.00863e-05
5.94297e-05
6.69106e-05
7.11541e-05
5.93638e-05
7.11374e-05
7.01313e-05
7.01387e-05
5.94401e-05
6.6922e-05
7.11653e-05
5.93743e-05
7.11487e-05
7.01836e-05
7.00653e-05
7.11136e-05
5.92644e-05
6.6896e-05
7.00198e-05
5.93308e-05
7.11303e-05
7.01177e-05
7.11249e-05
5.92749e-05
6.69075e-05
7.00723e-05
5.93413e-05
7.11415e-05
9.23715e-05
7.20459e-05
7.20399e-05
7.20352e-05
7.20291e-05
9.23954e-05
6.95304e-05
6.95282e-05
6.95332e-05
6.9531e-05
5.96123e-05
4.19402e-05
5.06591e-05
5.06536e-05
5.06151e-05
5.0622e-05
5.96794e-05
5.96119e-05
4.1939e-05
5.06559e-05
5.06547e-05
5.06184e-05
5.06169e-05
5.96777e-05
5.96121e-05
4.19407e-05
5.06558e-05
5.0656e-05
5.06182e-05
5.06182e-05
5.96788e-05
5.96129e-05
4.19425e-05
5.06558e-05
5.06595e-05
5.06178e-05
5.06218e-05
5.96797e-05
1.50242e-05
1.50237e-05
1.49111e-05
1.08485e-05
1.08765e-05
2.08232e-05
1.50241e-05
1.5023e-05
1.49109e-05
1.49099e-05
1.08483e-05
1.08763e-05
1.50265e-05
1.50258e-05
1.49129e-05
1.08497e-05
1.08776e-05
2.08269e-05
1.50266e-05
1.50259e-05
1.49133e-05
1.49128e-05
1.08495e-05
1.08776e-05
4.56398e-05
5.54774e-05
4.36636e-05
5.32427e-05
4.56208e-05
5.55518e-05
4.36965e-05
4.81557e-05
5.26369e-05
6.01975e-05
5.85731e-05
5.25975e-05
5.85121e-05
4.81824e-05
4.57957e-05
5.32848e-05
5.5664e-05
4.38806e-05
5.55902e-05
4.38481e-05
4.58145e-05
4.56434e-05
5.54828e-05
4.36648e-05
5.32442e-05
4.56245e-05
5.55572e-05
4.36977e-05
4.81594e-05
5.26381e-05
6.02014e-05
5.85811e-05
5.85202e-05
5.26008e-05
4.81857e-05
4.80309e-05
5.84258e-05
5.24681e-05
6.01768e-05
4.80042e-05
5.84874e-05
5.25058e-05
4.57993e-05
5.32863e-05
5.56691e-05
4.38817e-05
5.55955e-05
4.38493e-05
4.58178e-05
5.95714e-05
4.17699e-05
5.04706e-05
5.04691e-05
5.05086e-05
5.9505e-05
5.05073e-05
4.81594e-05
5.26374e-05
6.02019e-05
5.85807e-05
5.2602e-05
5.85198e-05
4.81853e-05
4.57999e-05
5.32881e-05
5.56693e-05
4.38835e-05
5.55955e-05
4.38511e-05
4.58183e-05
4.81551e-05
5.26351e-05
6.01963e-05
5.85719e-05
5.85109e-05
5.25977e-05
4.81814e-05
4.57967e-05
5.32864e-05
4.38825e-05
5.56643e-05
4.38499e-05
5.55906e-05
4.58153e-05
4.56434e-05
5.54829e-05
4.36661e-05
5.32456e-05
4.56246e-05
5.55572e-05
4.36991e-05
4.81587e-05
5.26356e-05
6.01976e-05
5.85799e-05
5.25981e-05
5.85191e-05
4.8185e-05
4.80302e-05
5.84248e-05
5.24654e-05
6.01729e-05
4.80036e-05
5.25033e-05
5.84862e-05
4.57994e-05
5.32877e-05
5.56691e-05
4.38831e-05
5.55956e-05
4.38506e-05
4.58178e-05
4.56422e-05
4.36656e-05
5.54798e-05
5.32445e-05
4.56232e-05
4.36987e-05
5.55541e-05
4.81576e-05
5.26363e-05
6.01979e-05
5.85746e-05
5.85137e-05
5.25988e-05
4.8184e-05
4.80292e-05
5.84194e-05
5.24662e-05
6.01734e-05
4.80025e-05
5.84809e-05
5.25041e-05
4.57979e-05
5.32864e-05
4.38826e-05
5.5666e-05
4.385e-05
5.55924e-05
4.58166e-05
4.56427e-05
4.36672e-05
5.54803e-05
5.32459e-05
4.56239e-05
4.37002e-05
5.55544e-05
4.81576e-05
5.26369e-05
6.01989e-05
5.85749e-05
5.25995e-05
5.85138e-05
4.81838e-05
4.80291e-05
5.8481e-05
4.57984e-05
5.32881e-05
4.3884e-05
5.56664e-05
4.38515e-05
5.55928e-05
4.5817e-05
4.56454e-05
4.36679e-05
5.54839e-05
5.32469e-05
4.56265e-05
4.3701e-05
5.5558e-05
4.81607e-05
5.26405e-05
6.0203e-05
5.85809e-05
5.85202e-05
5.26032e-05
4.81869e-05
4.80323e-05
5.8426e-05
5.24706e-05
6.01785e-05
4.80057e-05
5.84874e-05
5.25084e-05
4.58011e-05
5.32891e-05
4.38848e-05
5.56697e-05
4.38523e-05
5.55964e-05
4.58196e-05
5.95735e-05
4.17738e-05
5.04701e-05
5.04741e-05
5.95061e-05
5.05085e-05
5.05122e-05
3.88416e-05
5.17154e-05
5.15944e-05
5.35686e-05
5.21698e-05
5.37258e-05
5.25424e-05
5.15146e-05
5.17345e-05
5.09571e-05
5.14054e-05
5.40266e-05
5.30528e-05
5.15187e-05
5.16422e-05
5.08909e-05
5.10391e-05
5.14434e-05
5.13583e-05
5.0682e-05
5.38953e-05
5.26363e-05
5.14241e-05
5.0991e-05
5.06108e-05
5.23092e-05
5.03319e-05
5.02879e-05
6.83941e-05
7.31741e-05
7.29832e-05
6.88963e-05
7.10008e-05
7.08535e-05
6.82233e-05
7.31533e-05
7.29687e-05
6.88397e-05
3.89886e-05
3.89215e-05
3.87509e-05
3.87779e-05
3.89888e-05
3.8823e-05
3.85866e-05
6.06349e-05
6.52608e-05
4.6833e-05
5.1712e-05
6.48245e-05
4.68338e-05
6.09395e-05
7.09291e-05
7.08108e-05
6.03842e-05
4.67345e-05
6.51032e-05
5.15709e-05
4.67244e-05
6.45087e-05
6.08043e-05
6.96156e-05
6.95669e-05
5.31301e-05
6.91065e-05
6.90844e-05
6.84694e-05
6.85075e-05
7.0912e-05
7.08439e-05
7.09061e-05
7.08432e-05
6.98534e-05
6.98225e-05
5.34534e-05
6.9293e-05
6.92765e-05
7.08733e-05
7.083e-05
7.08782e-05
7.08309e-05
5.33068e-05
6.85619e-05
6.85707e-05
6.90895e-05
6.90789e-05
6.8467e-05
7.33027e-05
7.304e-05
6.89404e-05
6.07426e-05
6.49684e-05
4.67982e-05
5.14877e-05
6.44003e-05
4.6799e-05
6.09837e-05
6.08425e-05
6.53092e-05
4.6881e-05
5.1734e-05
6.49019e-05
4.68892e-05
6.10356e-05
6.81213e-05
7.28659e-05
7.29293e-05
6.73732e-05
6.81818e-05
7.27993e-05
7.29525e-05
6.73952e-05
6.0447e-05
5.13586e-05
6.35088e-05
4.66055e-05
6.41612e-05
4.67644e-05
5.95767e-05
6.05378e-05
5.16746e-05
6.36954e-05
4.67287e-05
6.45903e-05
4.68642e-05
5.96287e-05
7.04382e-05
7.03878e-05
5.40059e-05
6.97748e-05
6.97325e-05
7.09915e-05
7.08533e-05
7.07746e-05
7.08069e-05
5.39376e-05
6.86578e-05
6.86597e-05
6.94877e-05
6.94584e-05
7.07825e-05
7.08091e-05
6.05453e-05
6.49243e-05
4.67808e-05
5.14836e-05
6.43469e-05
4.67737e-05
6.09573e-05
6.82515e-05
7.31969e-05
7.29519e-05
6.88732e-05
6.05894e-05
4.68267e-05
6.51865e-05
5.16207e-05
4.68209e-05
6.45516e-05
6.09853e-05
6.79586e-05
7.28635e-05
7.29181e-05
6.72504e-05
6.02487e-05
5.13297e-05
6.34751e-05
4.64826e-05
6.41111e-05
4.67152e-05
5.9406e-05
6.79767e-05
7.27799e-05
7.28805e-05
6.72361e-05
6.02818e-05
5.14908e-05
4.65298e-05
6.34259e-05
4.67638e-05
6.42551e-05
5.94059e-05
6.83107e-05
7.32739e-05
7.30304e-05
6.88335e-05
6.05072e-05
4.6727e-05
6.46928e-05
5.13643e-05
4.67176e-05
6.41781e-05
6.08791e-05
6.8222e-05
7.3112e-05
7.29698e-05
6.87685e-05
6.03615e-05
5.16458e-05
6.36817e-05
4.66408e-05
6.45297e-05
4.67998e-05
5.95662e-05
6.80633e-05
7.28195e-05
7.29514e-05
6.73882e-05
6.02468e-05
5.10986e-05
4.64318e-05
6.34492e-05
4.6657e-05
6.39708e-05
5.95014e-05
6.79872e-05
7.29156e-05
7.29353e-05
6.7358e-05
7.02068e-05
7.01668e-05
5.37742e-05
6.94524e-05
6.94452e-05
7.0933e-05
7.08231e-05
7.07848e-05
7.0779e-05
5.35907e-05
6.84393e-05
6.84838e-05
6.91843e-05
6.91877e-05
7.08028e-05
7.07944e-05
6.02999e-05
4.66677e-05
6.4602e-05
5.13185e-05
4.66467e-05
6.41066e-05
6.07491e-05
6.81265e-05
7.31857e-05
7.29698e-05
6.86664e-05
6.80689e-05
7.30898e-05
7.29693e-05
6.85776e-05
6.01309e-05
5.14377e-05
4.64073e-05
6.34687e-05
4.66584e-05
6.42314e-05
5.94123e-05
6.00604e-05
5.1006e-05
4.6263e-05
6.344e-05
4.65529e-05
6.39131e-05
5.93906e-05
6.79034e-05
7.28268e-05
7.29078e-05
6.73042e-05
6.78578e-05
7.29408e-05
7.29429e-05
6.73028e-05
7.08819e-05
7.08463e-05
7.08799e-05
7.08534e-05
5.29707e-05
6.85448e-05
6.85722e-05
6.89367e-05
6.89265e-05
7.09269e-05
7.08443e-05
7.0946e-05
7.08541e-05
4.60429e-05
6.3312e-05
5.92449e-05
7.2944e-05
6.71681e-05
6.33197e-05
7.29846e-05
7.09696e-05
7.09901e-05
7.15554e-05
7.13165e-05
7.12814e-05
6.86276e-05
7.13492e-05
7.14936e-05
7.15268e-05
7.14235e-05
7.31109e-05
7.98475e-05
7.96695e-05
7.14479e-05
7.13711e-05
7.92614e-05
7.30394e-05
7.9459e-05
7.13572e-05
7.16049e-05
6.88359e-05
7.14333e-05
7.18707e-05
7.13974e-05
7.17394e-05
7.16406e-05
7.09576e-05
7.08897e-05
7.15325e-05
7.11593e-05
7.12904e-05
6.84415e-05
7.13636e-05
7.13183e-05
7.15075e-05
7.14038e-05
7.30914e-05
7.97636e-05
7.96006e-05
7.14253e-05
7.13576e-05
7.92029e-05
7.30222e-05
7.93904e-05
7.13457e-05
7.15771e-05
6.8692e-05
7.17827e-05
7.13985e-05
7.16065e-05
7.13619e-05
7.16118e-05
7.08924e-05
7.08358e-05
9.40705e-05
7.3094e-05
7.30893e-05
7.30965e-05
7.30914e-05
9.38544e-05
7.37048e-05
6.51319e-05
6.94541e-05
7.28405e-05
6.49706e-05
7.27918e-05
7.38885e-05
7.37235e-05
6.50837e-05
6.94119e-05
7.28415e-05
6.49216e-05
7.27957e-05
7.39048e-05
7.34832e-05
7.27101e-05
6.92768e-05
6.45467e-05
6.47505e-05
7.27416e-05
7.32789e-05
7.35047e-05
7.27212e-05
6.92436e-05
6.4504e-05
6.4703e-05
7.27494e-05
7.33046e-05
9.42828e-05
7.3139e-05
7.3132e-05
7.31239e-05
7.31176e-05
9.44984e-05
7.23637e-05
6.35428e-05
7.27758e-05
6.84306e-05
7.24331e-05
6.34349e-05
7.28611e-05
7.24152e-05
6.35496e-05
7.28027e-05
6.84782e-05
7.24812e-05
6.34515e-05
7.2888e-05
9.31162e-05
7.3229e-05
7.3225e-05
9.31429e-05
7.33298e-05
7.33246e-05
7.08906e-05
7.08553e-05
7.08865e-05
7.0853e-05
9.43604e-05
7.30994e-05
7.30927e-05
7.3113e-05
7.31058e-05
9.41157e-05
7.40177e-05
6.54474e-05
6.96825e-05
7.29224e-05
7.28589e-05
6.52873e-05
7.41984e-05
7.4042e-05
6.54266e-05
6.96558e-05
7.29226e-05
7.2861e-05
6.52625e-05
7.42194e-05
7.37873e-05
7.27378e-05
6.9487e-05
6.48477e-05
7.27893e-05
7.35649e-05
6.50612e-05
7.38124e-05
7.27439e-05
6.94651e-05
6.48225e-05
7.27934e-05
7.3594e-05
6.50363e-05
9.45901e-05
7.3182e-05
7.31728e-05
7.31575e-05
7.31488e-05
9.48082e-05
7.08393e-05
7.08322e-05
7.08425e-05
7.08341e-05
9.36411e-05
7.30794e-05
7.30737e-05
9.38776e-05
7.30812e-05
7.30759e-05
7.28452e-05
6.38349e-05
6.87174e-05
7.26526e-05
7.26509e-05
6.40647e-05
7.26429e-05
7.28841e-05
6.38226e-05
6.87199e-05
7.26643e-05
7.26619e-05
6.4048e-05
7.26852e-05
7.30809e-05
7.26907e-05
6.45798e-05
6.88987e-05
7.33127e-05
7.26645e-05
6.4335e-05
7.31169e-05
7.26987e-05
6.45563e-05
6.88946e-05
7.33446e-05
7.26742e-05
6.43139e-05
9.34303e-05
7.31209e-05
7.31167e-05
7.30862e-05
7.30815e-05
9.32423e-05
7.15783e-05
7.13213e-05
7.14865e-05
6.87122e-05
7.13569e-05
7.17318e-05
7.15403e-05
7.14771e-05
7.32242e-05
8.01811e-05
8.00312e-05
7.15119e-05
7.1402e-05
7.95534e-05
7.3126e-05
7.97799e-05
7.13747e-05
7.16366e-05
6.88966e-05
7.14446e-05
7.20153e-05
7.14077e-05
7.19538e-05
7.16765e-05
7.14842e-05
7.12842e-05
7.10203e-05
6.78765e-05
7.14959e-05
7.12687e-05
7.07907e-05
7.13224e-05
7.2871e-05
7.84535e-05
7.13439e-05
7.86335e-05
7.13263e-05
7.90419e-05
7.28942e-05
7.13269e-05
7.88372e-05
7.14776e-05
6.76067e-05
7.12629e-05
7.03214e-05
7.14837e-05
7.12603e-05
7.05363e-05
7.14781e-05
7.12855e-05
7.11911e-05
6.79258e-05
7.14988e-05
7.1267e-05
7.09313e-05
7.12862e-05
7.28303e-05
7.85465e-05
7.87809e-05
7.12906e-05
7.13081e-05
7.92884e-05
7.28857e-05
7.13215e-05
7.90422e-05
7.1463e-05
6.76422e-05
7.12567e-05
7.0384e-05
7.12558e-05
7.06367e-05
7.14631e-05
9.51385e-05
7.31127e-05
7.31222e-05
7.31623e-05
7.31699e-05
9.47922e-05
7.4858e-05
6.59138e-05
7.03094e-05
7.31502e-05
7.30557e-05
6.59053e-05
7.48986e-05
7.47967e-05
6.58809e-05
7.02508e-05
7.31274e-05
6.58711e-05
7.30356e-05
7.48358e-05
7.46698e-05
7.28325e-05
7.0041e-05
6.56085e-05
7.29365e-05
6.58331e-05
7.43521e-05
7.46123e-05
7.28194e-05
6.99922e-05
6.5566e-05
6.5795e-05
7.29199e-05
7.42987e-05
9.54726e-05
7.33099e-05
7.33148e-05
7.32526e-05
7.32591e-05
9.57076e-05
7.09514e-05
7.08857e-05
7.07722e-05
7.07888e-05
9.40574e-05
7.30435e-05
7.30542e-05
9.4434e-05
7.30124e-05
7.30245e-05
7.32816e-05
6.41804e-05
6.89222e-05
7.2531e-05
6.45296e-05
7.2573e-05
7.29379e-05
7.32405e-05
6.41698e-05
6.89149e-05
7.25291e-05
7.25691e-05
6.45106e-05
7.29005e-05
7.36506e-05
7.2726e-05
6.52525e-05
6.92061e-05
6.49146e-05
7.39959e-05
7.2644e-05
7.36053e-05
7.27163e-05
6.52172e-05
6.91852e-05
7.39466e-05
7.26373e-05
6.48862e-05
9.36896e-05
7.29717e-05
7.2985e-05
7.29767e-05
7.29896e-05
9.33274e-05
7.07788e-05
7.07938e-05
7.15311e-05
7.1288e-05
7.12376e-05
6.84798e-05
7.13178e-05
7.14704e-05
7.15007e-05
7.14201e-05
7.31172e-05
7.9965e-05
7.97602e-05
7.14505e-05
7.13559e-05
7.92995e-05
7.30264e-05
7.95245e-05
7.13361e-05
7.15829e-05
6.87399e-05
7.14013e-05
7.19073e-05
7.13635e-05
7.17376e-05
7.16221e-05
7.14744e-05
7.09034e-05
7.12649e-05
6.77247e-05
7.14823e-05
7.06841e-05
7.12548e-05
7.13214e-05
7.28665e-05
7.84257e-05
7.13477e-05
7.85934e-05
7.1322e-05
7.89856e-05
7.28862e-05
7.13208e-05
7.87922e-05
7.14718e-05
6.74675e-05
7.02384e-05
7.12591e-05
7.14831e-05
7.04392e-05
7.12515e-05
7.14568e-05
7.12605e-05
7.09558e-05
6.77322e-05
7.1469e-05
7.1249e-05
7.07054e-05
7.12779e-05
7.27938e-05
7.83623e-05
7.85757e-05
7.12926e-05
7.12888e-05
7.90499e-05
7.28301e-05
7.12942e-05
7.88133e-05
7.14504e-05
6.7464e-05
7.1251e-05
7.01982e-05
7.12446e-05
7.04313e-05
7.14571e-05
7.157e-05
7.1361e-05
7.13209e-05
6.8513e-05
7.15685e-05
7.13475e-05
7.154e-05
7.14663e-05
7.32e-05
8.00693e-05
7.9902e-05
7.14963e-05
7.14017e-05
7.94694e-05
7.31085e-05
7.96744e-05
7.13803e-05
7.162e-05
6.87387e-05
7.19096e-05
7.14216e-05
7.18092e-05
7.13895e-05
7.16552e-05
7.15467e-05
7.13168e-05
7.11141e-05
6.84132e-05
7.13395e-05
7.12939e-05
7.1528e-05
7.14003e-05
7.30627e-05
7.96367e-05
7.94882e-05
7.14172e-05
7.13625e-05
7.9129e-05
7.30086e-05
7.92968e-05
7.13551e-05
7.15837e-05
6.86319e-05
7.14075e-05
7.1667e-05
7.13774e-05
7.15105e-05
7.16114e-05
7.14929e-05
7.10982e-05
7.12946e-05
6.7843e-05
7.15071e-05
7.08702e-05
7.12834e-05
7.13096e-05
7.28445e-05
7.8562e-05
7.87698e-05
7.13172e-05
7.13262e-05
7.92274e-05
7.28925e-05
7.1335e-05
7.90054e-05
7.14837e-05
6.75978e-05
7.03897e-05
7.1283e-05
7.06093e-05
7.12783e-05
7.14868e-05
7.15048e-05
7.1295e-05
7.08859e-05
6.77797e-05
7.15088e-05
7.12873e-05
7.06945e-05
7.13484e-05
7.29111e-05
7.847e-05
7.86048e-05
7.13833e-05
7.13438e-05
7.89371e-05
7.2918e-05
7.13388e-05
7.87716e-05
7.15048e-05
6.75507e-05
7.12936e-05
7.03097e-05
7.12851e-05
7.04805e-05
7.15212e-05
9.47397e-05
7.30594e-05
7.3071e-05
7.30965e-05
7.31068e-05
9.44048e-05
7.45564e-05
6.5772e-05
6.99675e-05
7.30158e-05
7.29201e-05
6.57059e-05
7.4723e-05
7.44998e-05
6.57199e-05
6.99391e-05
7.30037e-05
6.56574e-05
7.29119e-05
7.46575e-05
7.42384e-05
7.27241e-05
6.97111e-05
6.51778e-05
7.2812e-05
6.54778e-05
7.39331e-05
7.41877e-05
7.27232e-05
6.96897e-05
6.51479e-05
6.54374e-05
7.28075e-05
7.38869e-05
9.50541e-05
7.32212e-05
7.32292e-05
7.31724e-05
7.3182e-05
9.5363e-05
7.08983e-05
7.08463e-05
7.07686e-05
7.07724e-05
9.37179e-05
7.30083e-05
7.30206e-05
9.40662e-05
7.29915e-05
7.3004e-05
7.29318e-05
6.38204e-05
6.86703e-05
7.25152e-05
6.41404e-05
7.25337e-05
7.26254e-05
7.29002e-05
6.38387e-05
6.87009e-05
7.25235e-05
7.25407e-05
6.4145e-05
7.2598e-05
7.32683e-05
7.2639e-05
6.48283e-05
6.89221e-05
6.44997e-05
7.3593e-05
7.25791e-05
7.32319e-05
7.26412e-05
6.48079e-05
6.89414e-05
7.35521e-05
7.25841e-05
6.44926e-05
9.33883e-05
7.29813e-05
7.29936e-05
7.29749e-05
7.29874e-05
9.30735e-05
7.07861e-05
7.07888e-05
7.15458e-05
7.11552e-05
7.13111e-05
6.83096e-05
7.13474e-05
7.13296e-05
7.15246e-05
7.14306e-05
7.31153e-05
7.98473e-05
7.96699e-05
7.14553e-05
7.13778e-05
7.9264e-05
7.30347e-05
7.94575e-05
7.13628e-05
7.15865e-05
6.85163e-05
7.17321e-05
7.13894e-05
7.15737e-05
7.13629e-05
7.16159e-05
7.15409e-05
7.09932e-05
7.13129e-05
6.82397e-05
7.11565e-05
7.13283e-05
7.15291e-05
7.13912e-05
7.3047e-05
7.95285e-05
7.93888e-05
7.14028e-05
7.13624e-05
7.90627e-05
7.30007e-05
7.92183e-05
7.13599e-05
7.15698e-05
6.84336e-05
7.14805e-05
7.13813e-05
7.13477e-05
7.13576e-05
7.15902e-05
7.1496e-05
7.09152e-05
7.12939e-05
6.77044e-05
7.1502e-05
7.07069e-05
7.12897e-05
7.13217e-05
7.28361e-05
7.84483e-05
7.86292e-05
7.13387e-05
7.13277e-05
7.90414e-05
7.28655e-05
7.13302e-05
7.88386e-05
7.14941e-05
6.74877e-05
7.02818e-05
7.13047e-05
7.04747e-05
7.129e-05
7.15063e-05
7.15179e-05
7.07902e-05
7.12992e-05
6.76725e-05
7.15175e-05
7.06183e-05
7.12972e-05
7.13687e-05
7.29304e-05
7.84849e-05
7.86022e-05
7.1412e-05
7.13599e-05
7.88946e-05
7.29322e-05
7.13503e-05
7.87449e-05
7.15232e-05
6.74704e-05
7.02816e-05
7.13202e-05
7.04311e-05
7.12996e-05
7.15529e-05
7.08695e-05
7.08485e-05
7.08702e-05
7.08534e-05
9.34758e-05
7.30904e-05
7.30862e-05
9.36582e-05
7.3107e-05
7.31032e-05
7.26908e-05
6.37043e-05
6.86504e-05
7.27093e-05
7.25486e-05
6.38791e-05
7.26832e-05
7.27304e-05
6.37001e-05
6.86654e-05
7.27335e-05
7.25926e-05
6.38638e-05
7.27022e-05
7.28718e-05
7.26864e-05
6.43062e-05
6.87852e-05
7.30609e-05
6.40974e-05
7.26804e-05
7.29067e-05
7.27009e-05
6.42708e-05
6.87878e-05
7.30909e-05
6.40716e-05
7.26971e-05
9.33277e-05
7.31846e-05
7.31807e-05
9.32121e-05
7.31268e-05
7.31231e-05
7.0877e-05
7.08587e-05
7.08933e-05
7.08731e-05
7.14875e-05
7.83567e-05
7.30106e-05
7.14119e-05
7.82851e-05
7.16225e-05
6.70297e-05
7.1324e-05
7.01428e-05
7.15574e-05
7.13817e-05
7.0029e-05
7.30554e-05
7.10577e-05
7.10792e-05
3.17709e-05
3.17828e-05
3.8858e-05
3.18836e-05
3.18632e-05
2.27674e-05
2.25438e-05
6.56408e-05
5.94824e-05
5.9464e-05
5.34418e-05
5.93319e-05
5.93103e-05
6.58128e-05
6.40907e-05
5.79373e-05
5.79287e-05
5.20006e-05
6.42024e-05
5.7793e-05
5.77885e-05
6.59786e-05
5.973e-05
5.97285e-05
5.36689e-05
5.96289e-05
5.96211e-05
6.61433e-05
6.47599e-05
5.28292e-05
5.82989e-05
5.82846e-05
5.8562e-05
5.85471e-05
6.45198e-05
6.66222e-05
6.00849e-05
6.00763e-05
5.40225e-05
6.00767e-05
6.00857e-05
6.66256e-05
6.52957e-05
5.34109e-05
5.87611e-05
5.87544e-05
5.91254e-05
5.91161e-05
6.4926e-05
6.64244e-05
5.99483e-05
5.99288e-05
5.38801e-05
5.99105e-05
5.99296e-05
6.64711e-05
6.48822e-05
5.29912e-05
5.83553e-05
5.83575e-05
5.87024e-05
5.8699e-05
6.45443e-05
6.45417e-05
5.25434e-05
5.81037e-05
5.80893e-05
6.43614e-05
5.83124e-05
5.82936e-05
3.18168e-05
3.18033e-05
3.90344e-05
3.19509e-05
3.19176e-05
2.27705e-05
2.25291e-05
3.18326e-05
3.17834e-05
3.89314e-05
3.19049e-05
3.18438e-05
2.27955e-05
2.25952e-05
3.17413e-05
3.17175e-05
3.87479e-05
3.1811e-05
3.17615e-05
2.2747e-05
2.25578e-05
3.88467e-05
3.19137e-05
3.18704e-05
3.19181e-05
3.18808e-05
2.29219e-05
2.29937e-05
3.90335e-05
3.19941e-05
3.19493e-05
3.19961e-05
3.19532e-05
2.29422e-05
2.30269e-05
3.8915e-05
3.19025e-05
3.18378e-05
3.19172e-05
3.18528e-05
2.29221e-05
2.29707e-05
3.87139e-05
3.18141e-05
3.1749e-05
3.18247e-05
3.17654e-05
2.28711e-05
2.29224e-05
5.66424e-05
6.2399e-05
5.51732e-05
6.08262e-05
6.26017e-05
5.52752e-05
5.65303e-05
5.78353e-05
6.09108e-05
6.52291e-05
6.46756e-05
6.09061e-05
6.46501e-05
5.7845e-05
5.78251e-05
6.42871e-05
6.50796e-05
6.07412e-05
6.08761e-05
6.453e-05
5.77152e-05
5.66427e-05
6.09195e-05
6.27147e-05
5.52952e-05
6.26963e-05
5.52817e-05
5.66587e-05
5.6455e-05
5.4952e-05
6.21097e-05
6.05739e-05
5.51069e-05
6.23203e-05
5.62761e-05
5.76695e-05
6.07589e-05
6.49999e-05
6.45071e-05
6.07302e-05
6.44312e-05
5.76965e-05
5.76137e-05
6.39608e-05
6.47487e-05
6.03787e-05
6.06263e-05
6.42035e-05
5.74015e-05
5.64913e-05
6.07469e-05
5.51798e-05
6.25619e-05
5.51469e-05
6.25059e-05
5.6526e-05
6.54249e-05
5.33535e-05
5.89632e-05
5.89362e-05
5.91709e-05
5.91463e-05
6.52105e-05
6.57646e-05
5.36197e-05
5.92837e-05
5.92732e-05
6.55447e-05
5.94808e-05
5.94719e-05
6.5029e-05
5.3043e-05
5.90704e-05
5.90575e-05
6.52838e-05
5.88156e-05
5.88009e-05
5.65471e-05
6.22832e-05
5.52423e-05
6.09155e-05
6.24927e-05
5.53188e-05
5.64072e-05
5.76262e-05
6.06414e-05
6.48139e-05
6.44946e-05
6.44115e-05
6.05644e-05
5.76603e-05
5.75627e-05
6.39667e-05
6.46004e-05
6.01982e-05
6.41905e-05
6.04044e-05
5.73554e-05
5.65593e-05
6.09752e-05
6.26487e-05
5.53261e-05
6.2619e-05
5.53173e-05
5.65812e-05
5.67324e-05
6.25707e-05
5.53232e-05
6.09895e-05
6.27422e-05
5.53817e-05
5.66547e-05
5.7894e-05
6.09508e-05
6.5287e-05
6.47466e-05
6.47331e-05
6.09485e-05
5.7899e-05
5.78914e-05
6.44168e-05
6.5162e-05
6.08091e-05
6.46486e-05
5.7807e-05
6.09257e-05
5.67216e-05
6.10326e-05
6.28016e-05
5.53795e-05
6.27966e-05
5.53744e-05
5.67307e-05
5.59733e-05
6.1986e-05
5.51258e-05
6.01774e-05
5.62858e-05
6.17288e-05
5.48362e-05
5.66389e-05
5.91992e-05
6.37094e-05
6.28899e-05
5.94594e-05
6.31364e-05
5.63364e-05
5.68767e-05
6.36827e-05
5.99735e-05
6.39426e-05
5.97173e-05
5.71671e-05
6.34278e-05
5.57721e-05
5.98552e-05
6.11532e-05
5.42892e-05
6.14134e-05
5.46176e-05
5.54337e-05
5.62232e-05
6.22411e-05
5.52184e-05
6.02571e-05
5.65438e-05
6.19499e-05
5.49307e-05
5.70021e-05
5.95387e-05
6.39818e-05
6.30951e-05
6.34076e-05
5.98848e-05
5.6637e-05
5.72934e-05
6.40757e-05
6.05397e-05
6.43003e-05
5.7623e-05
6.37666e-05
6.02212e-05
5.59904e-05
5.99209e-05
6.12906e-05
5.43642e-05
6.15918e-05
5.47026e-05
5.56144e-05
6.65739e-05
5.40434e-05
6.00018e-05
5.9991e-05
6.00687e-05
6.00783e-05
6.63899e-05
6.56877e-05
5.36909e-05
5.97915e-05
5.9779e-05
5.94707e-05
6.60407e-05
5.94597e-05
5.64946e-05
6.21401e-05
5.51142e-05
6.07711e-05
6.23581e-05
5.52591e-05
5.63057e-05
5.76069e-05
6.06398e-05
6.47594e-05
6.44804e-05
6.43417e-05
6.05295e-05
5.76657e-05
5.75088e-05
6.3876e-05
6.45462e-05
6.01472e-05
6.40977e-05
6.03589e-05
5.72732e-05
5.65376e-05
6.09193e-05
6.26364e-05
5.5301e-05
6.25669e-05
5.52818e-05
5.6577e-05
5.661e-05
5.51616e-05
6.22618e-05
6.08214e-05
5.52961e-05
6.25103e-05
5.64383e-05
5.77764e-05
6.0836e-05
6.5078e-05
6.46354e-05
6.45638e-05
6.08079e-05
5.77997e-05
5.77252e-05
6.40558e-05
6.48125e-05
6.04445e-05
6.4331e-05
5.75119e-05
6.07036e-05
5.66317e-05
6.09542e-05
5.5329e-05
6.27221e-05
5.53126e-05
6.26796e-05
5.66562e-05
5.58386e-05
6.18438e-05
5.49561e-05
5.99836e-05
5.61638e-05
6.15906e-05
5.46521e-05
5.65516e-05
5.91514e-05
6.36695e-05
6.28191e-05
5.94073e-05
6.30572e-05
5.6254e-05
5.6788e-05
6.35931e-05
5.99197e-05
6.38964e-05
5.9662e-05
5.70817e-05
6.33419e-05
5.56353e-05
5.96715e-05
6.1033e-05
5.41056e-05
6.12829e-05
5.4429e-05
5.53005e-05
5.59213e-05
5.4998e-05
6.19329e-05
6.00064e-05
5.62727e-05
5.4686e-05
6.16483e-05
5.66419e-05
5.91803e-05
6.36858e-05
6.28015e-05
6.30893e-05
5.95077e-05
5.6291e-05
5.69322e-05
6.37237e-05
6.01545e-05
6.3978e-05
5.72702e-05
6.34253e-05
5.98349e-05
5.56881e-05
5.96824e-05
5.41191e-05
6.10257e-05
5.44529e-05
6.13076e-05
5.53222e-05
5.63619e-05
5.50484e-05
6.20376e-05
6.06987e-05
5.51837e-05
6.22178e-05
5.61766e-05
5.74108e-05
6.04246e-05
6.45495e-05
6.42753e-05
6.02795e-05
6.4129e-05
5.75318e-05
5.73043e-05
6.37207e-05
6.43566e-05
5.99175e-05
6.0119e-05
6.39135e-05
5.70786e-05
5.64121e-05
6.08397e-05
5.52325e-05
6.25177e-05
5.52096e-05
6.24249e-05
5.64822e-05
5.60972e-05
6.20972e-05
5.50541e-05
6.01159e-05
5.6413e-05
6.18356e-05
5.47741e-05
5.69307e-05
5.95081e-05
6.39531e-05
6.3064e-05
5.65849e-05
5.98404e-05
6.33508e-05
5.72039e-05
6.39693e-05
6.0471e-05
6.42536e-05
5.75193e-05
6.0164e-05
6.36833e-05
5.58867e-05
5.98194e-05
6.12434e-05
5.42636e-05
5.55344e-05
6.15117e-05
5.45728e-05
5.577e-05
5.4925e-05
6.17784e-05
6.0015e-05
5.60617e-05
5.46499e-05
6.15602e-05
5.64441e-05
5.90552e-05
6.36016e-05
6.2822e-05
6.30179e-05
5.92647e-05
5.61906e-05
5.66405e-05
6.34734e-05
5.97073e-05
6.37888e-05
5.69061e-05
6.3259e-05
5.9478e-05
5.55994e-05
5.97365e-05
5.41636e-05
6.10783e-05
5.44581e-05
6.12917e-05
5.53013e-05
6.62451e-05
5.3876e-05
5.96587e-05
5.96433e-05
5.98495e-05
5.98676e-05
6.59408e-05
6.52491e-05
5.32794e-05
5.937e-05
5.93574e-05
5.90424e-05
6.55923e-05
5.90335e-05
5.62205e-05
5.48613e-05
6.1877e-05
6.04711e-05
5.50262e-05
6.20447e-05
5.60252e-05
5.72972e-05
6.0345e-05
6.44612e-05
6.4131e-05
6.01951e-05
6.39934e-05
5.74389e-05
5.71855e-05
6.36071e-05
6.42753e-05
5.98321e-05
6.00322e-05
6.37899e-05
5.69606e-05
5.62796e-05
6.06605e-05
5.51377e-05
6.23583e-05
5.50769e-05
6.22471e-05
5.63884e-05
5.5819e-05
5.48203e-05
6.18254e-05
5.99052e-05
5.61398e-05
5.45444e-05
6.15838e-05
5.66134e-05
5.91938e-05
6.37061e-05
6.28424e-05
5.62926e-05
5.9499e-05
6.30953e-05
5.68733e-05
6.36605e-05
6.01052e-05
6.39776e-05
5.71852e-05
5.98052e-05
6.33968e-05
5.56219e-05
5.96376e-05
5.40657e-05
6.10517e-05
5.52941e-05
5.4354e-05
6.12901e-05
5.56279e-05
5.4734e-05
6.16367e-05
5.98495e-05
5.59114e-05
5.44668e-05
6.14376e-05
5.6364e-05
5.90211e-05
6.35759e-05
6.27885e-05
6.29633e-05
5.92145e-05
5.61313e-05
5.65423e-05
6.33779e-05
5.96296e-05
6.37462e-05
5.67948e-05
6.3181e-05
5.94119e-05
5.54728e-05
5.95985e-05
5.40179e-05
6.10062e-05
5.42893e-05
6.11953e-05
5.51977e-05
6.47569e-05
5.27136e-05
5.87537e-05
5.87276e-05
6.49742e-05
5.85212e-05
5.84971e-05
5.58262e-05
5.88806e-05
6.26259e-05
6.32195e-05
5.87333e-05
5.60172e-05
6.24892e-05
5.48874e-05
5.90582e-05
5.39559e-05
6.08434e-05
5.37056e-05
5.51296e-05
6.06821e-05
5.8864e-05
6.32417e-05
5.87318e-05
2.11976e-05
3.68992e-05
3.69018e-05
4.21274e-05
2.1964e-05
3.78087e-05
3.78109e-05
4.2851e-05
2.27449e-05
3.86882e-05
3.86908e-05
4.35482e-05
2.35432e-05
3.95441e-05
3.95464e-05
4.42234e-05
2.43466e-05
4.03672e-05
4.03694e-05
4.48709e-05
2.51634e-05
4.11687e-05
4.11713e-05
4.55001e-05
2.59769e-05
4.1935e-05
4.1936e-05
4.60999e-05
2.67845e-05
4.2669e-05
4.26721e-05
4.66746e-05
2.76012e-05
4.33884e-05
4.33903e-05
4.72382e-05
2.84055e-05
4.40665e-05
4.40664e-05
4.77688e-05
2.91924e-05
4.47144e-05
4.47188e-05
4.82748e-05
2.99738e-05
4.53493e-05
4.53492e-05
4.87711e-05
3.07291e-05
4.59353e-05
4.59345e-05
4.923e-05
3.15071e-05
4.65153e-05
4.65209e-05
4.96887e-05
3.21803e-05
4.7037e-05
4.70363e-05
5.00876e-05
3.29361e-05
4.75841e-05
4.7581e-05
5.05286e-05
3.35985e-05
4.8036e-05
4.80587e-05
5.0887e-05
3.42678e-05
4.85326e-05
4.84988e-05
5.12542e-05
3.48718e-05
4.89042e-05
4.89129e-05
5.15438e-05
3.54049e-05
4.92853e-05
4.93281e-05
5.18966e-05
3.62083e-05
4.99119e-05
4.98637e-05
5.23713e-05
3.67999e-05
5.01444e-05
5.0174e-05
5.2525e-05
3.69093e-05
5.02525e-05
5.01887e-05