/*--------------------------------*- C++ -*----------------------------------*\
| =========                 |                                                 |
| \\      /  F ield         | OpenFOAM: The Open Source CFD Toolbox           |
|  \\    /   O peration     | Version:  v1906                                 |
|   \\  /    A nd           | Web:      www.OpenFOAM.com                      |
|    \\/     M anipulation  |                                                 |
\*---------------------------------------------------------------------------*/
FoamFile
{
    version     2.0;
    format      ascii;
    class       volScalarField;
    location    "750";
    object      k;
}
// * * * * * * * * * * * * * * * * * * * * * * * * * * * * * * * * * * * * * //

dimensions      [0 2 -2 0 0 0 0];


internalField   nonuniform List<scalar> 
171728
(
3.58932e-05
3.58912e-05
3.58912e-05
3.59957e-05
3.39296e-05
3.3889e-05
3.3889e-05
3.39622e-05
3.21578e-05
3.20081e-05
3.20081e-05
3.19522e-05
3.05346e-05
3.02293e-05
3.02292e-05
2.99884e-05
2.90329e-05
2.8554e-05
2.85539e-05
2.81226e-05
2.76353e-05
2.69872e-05
2.69871e-05
2.63907e-05
2.63308e-05
2.5531e-05
2.55309e-05
2.48073e-05
2.51112e-05
2.4185e-05
2.41848e-05
2.33782e-05
2.39709e-05
2.29506e-05
2.29504e-05
2.21046e-05
2.29058e-05
2.18269e-05
2.18267e-05
2.0986e-05
2.1912e-05
2.08114e-05
2.08112e-05
2.00134e-05
2.09865e-05
1.99013e-05
1.99011e-05
1.91814e-05
2.01241e-05
1.90947e-05
1.90946e-05
1.84895e-05
1.93239e-05
1.83885e-05
1.83884e-05
1.7933e-05
1.85847e-05
1.77793e-05
1.77792e-05
1.75062e-05
1.79042e-05
1.72656e-05
1.72656e-05
1.72001e-05
1.72798e-05
1.68465e-05
1.68466e-05
1.70225e-05
1.67097e-05
1.65211e-05
1.65213e-05
1.69817e-05
1.61923e-05
1.62895e-05
1.62897e-05
1.70789e-05
1.57254e-05
1.61516e-05
1.6152e-05
1.73038e-05
1.53073e-05
1.61072e-05
1.61077e-05
1.76569e-05
1.49374e-05
1.61533e-05
1.6154e-05
1.81341e-05
1.46145e-05
1.62919e-05
1.62926e-05
1.87288e-05
1.43382e-05
1.652e-05
1.65209e-05
1.94281e-05
1.4108e-05
1.68354e-05
1.68364e-05
2.02208e-05
1.39235e-05
1.72351e-05
1.72362e-05
2.10945e-05
1.37844e-05
1.77155e-05
1.77168e-05
2.20359e-05
1.36907e-05
1.82724e-05
1.82739e-05
2.30304e-05
1.36422e-05
1.89013e-05
1.8903e-05
2.40646e-05
1.36391e-05
1.95977e-05
1.95993e-05
2.51258e-05
1.36814e-05
2.03552e-05
2.03571e-05
2.62013e-05
1.37699e-05
2.1169e-05
2.1171e-05
2.72826e-05
1.39047e-05
2.20323e-05
2.20343e-05
2.83608e-05
1.40855e-05
2.29386e-05
2.29407e-05
2.94296e-05
1.43137e-05
2.38828e-05
2.3885e-05
3.04844e-05
1.45877e-05
2.48562e-05
2.48585e-05
3.15208e-05
1.49084e-05
2.58546e-05
2.58569e-05
3.2537e-05
1.52763e-05
2.68716e-05
2.68741e-05
3.35332e-05
1.56888e-05
2.7899e-05
2.79014e-05
3.45037e-05
1.61458e-05
2.89324e-05
2.8935e-05
3.54508e-05
1.66473e-05
2.99682e-05
2.9971e-05
3.63735e-05
1.719e-05
3.09995e-05
3.10024e-05
3.72698e-05
1.77728e-05
3.20236e-05
3.20267e-05
3.81418e-05
1.83942e-05
3.30364e-05
3.30393e-05
3.89887e-05
1.90495e-05
3.40321e-05
3.40348e-05
3.98103e-05
1.97401e-05
3.50122e-05
3.50146e-05
4.061e-05
2.04564e-05
3.59674e-05
3.59704e-05
4.13798e-05
2.11981e-05
3.68991e-05
3.69016e-05
4.21276e-05
2.19638e-05
3.78086e-05
3.78103e-05
4.28503e-05
2.27439e-05
3.86879e-05
3.86908e-05
4.35478e-05
2.35429e-05
3.9544e-05
3.95468e-05
4.42236e-05
2.43457e-05
4.03673e-05
4.03694e-05
4.48708e-05
2.51648e-05
4.11705e-05
4.11722e-05
4.55013e-05
2.59769e-05
4.19328e-05
4.19342e-05
4.60987e-05
2.67831e-05
4.2668e-05
4.26727e-05
4.66745e-05
2.76043e-05
4.33904e-05
4.33905e-05
4.72395e-05
2.8405e-05
4.40672e-05
4.40674e-05
4.77683e-05
2.91878e-05
4.47125e-05
4.47181e-05
4.82732e-05
2.9975e-05
4.53476e-05
4.53467e-05
4.87709e-05
3.07356e-05
4.59422e-05
4.59429e-05
4.9237e-05
3.15e-05
4.65082e-05
4.65114e-05
4.96778e-05
3.21796e-05
4.70405e-05
4.70418e-05
5.00947e-05
3.29476e-05
4.75828e-05
4.75848e-05
5.05348e-05
3.35983e-05
4.80551e-05
4.8063e-05
5.08875e-05
3.42621e-05
4.84989e-05
4.84808e-05
5.12348e-05
3.48424e-05
4.88976e-05
4.88975e-05
5.15284e-05
3.53978e-05
4.92941e-05
4.93364e-05
5.19169e-05
3.63104e-05
4.99734e-05
4.99492e-05
5.24225e-05
3.67332e-05
5.00887e-05
5.00879e-05
5.24441e-05
3.68914e-05
5.03002e-05
5.01214e-05
5.24904e-05
3.76133e-05
5.05743e-05
5.08813e-05
5.32672e-05
3.8571e-05
5.15916e-05
5.15994e-05
5.38907e-05
3.88689e-05
5.17776e-05
5.14489e-05
5.32088e-05
3.75627e-05
4.93276e-05
4.92574e-05
5.09927e-05
3.71495e-05
4.92312e-05
5.00312e-05
5.33781e-05
4.32581e-05
5.71738e-05
5.70951e-05
5.95837e-05
4.57357e-05
5.83715e-05
5.76406e-05
5.81873e-05
3.98739e-05
4.89525e-05
4.88859e-05
4.9896e-05
3.43367e-05
4.61354e-05
4.60162e-05
4.91254e-05
3.64438e-05
5.08026e-05
5.04542e-05
5.33227e-05
4.37551e-05
5.41246e-05
5.60469e-05
5.62482e-05
4.51086e-05
5.51244e-05
5.65551e-05
5.76757e-05
4.23603e-05
5.40852e-05
5.19137e-05
5.48942e-05
4.02475e-05
5.26031e-05
5.08574e-05
5.32099e-05
4.20654e-05
5.43322e-05
5.40657e-05
5.63243e-05
4.51184e-05
5.50226e-05
5.55431e-05
5.71348e-05
4.34993e-05
5.07636e-05
5.34158e-05
5.2985e-05
3.82634e-05
4.89357e-05
5.0407e-05
5.12994e-05
3.78395e-05
5.25411e-05
5.04774e-05
5.44236e-05
4.38251e-05
5.61124e-05
5.34176e-05
5.71482e-05
4.59334e-05
5.54355e-05
5.40136e-05
5.6109e-05
4.34811e-05
5.08508e-05
5.27807e-05
5.33243e-05
3.99611e-05
4.988e-05
5.1764e-05
5.24619e-05
3.96051e-05
5.18704e-05
5.17809e-05
5.34121e-05
4.16988e-05
5.24551e-05
5.14659e-05
5.46746e-05
3.63068e-05
3.6291e-05
3.6291e-05
3.63068e-05
3.6291e-05
3.6291e-05
3.6423e-05
3.6423e-05
3.6423e-05
3.6423e-05
3.6291e-05
3.6291e-05
3.63068e-05
3.6291e-05
3.6291e-05
3.63068e-05
3.59957e-05
3.42687e-05
3.58912e-05
3.58912e-05
3.43767e-05
3.43766e-05
3.59957e-05
3.42687e-05
3.58911e-05
3.58912e-05
3.43767e-05
3.43766e-05
3.58912e-05
3.43767e-05
3.43767e-05
3.59957e-05
3.42687e-05
3.58912e-05
3.43767e-05
3.43767e-05
3.42687e-05
3.39623e-05
3.22635e-05
3.38889e-05
3.38889e-05
3.24684e-05
3.24683e-05
3.39623e-05
3.22635e-05
3.38889e-05
3.38889e-05
3.24684e-05
3.24683e-05
3.38889e-05
3.24685e-05
3.24684e-05
3.39623e-05
3.22634e-05
3.38889e-05
3.24685e-05
3.24684e-05
3.22634e-05
3.19522e-05
3.02993e-05
3.20079e-05
3.20078e-05
3.06643e-05
3.06642e-05
3.19522e-05
3.02994e-05
3.2008e-05
3.20078e-05
3.06644e-05
3.06641e-05
3.20079e-05
3.06646e-05
3.06643e-05
3.19522e-05
3.02992e-05
3.2008e-05
3.06645e-05
3.06644e-05
3.02992e-05
2.99885e-05
2.84253e-05
3.0229e-05
3.02288e-05
2.89624e-05
2.89622e-05
2.99886e-05
2.84255e-05
3.02291e-05
3.02287e-05
2.89626e-05
2.89621e-05
3.02289e-05
2.89628e-05
2.89623e-05
2.99884e-05
2.84252e-05
3.02291e-05
2.89627e-05
2.89626e-05
2.84252e-05
2.81227e-05
2.6674e-05
2.85536e-05
2.85534e-05
2.7368e-05
2.73678e-05
2.81228e-05
2.66742e-05
2.85538e-05
2.85533e-05
2.73683e-05
2.73676e-05
2.85535e-05
2.73685e-05
2.73679e-05
2.81226e-05
2.66739e-05
2.85538e-05
2.73684e-05
2.73683e-05
2.66738e-05
2.63908e-05
2.50663e-05
2.69866e-05
2.69864e-05
2.58841e-05
2.58838e-05
2.6391e-05
2.50665e-05
2.6987e-05
2.69862e-05
2.58845e-05
2.58836e-05
2.69865e-05
2.58848e-05
2.5884e-05
2.63907e-05
2.50661e-05
2.69869e-05
2.58846e-05
2.58844e-05
2.50661e-05
2.48075e-05
2.36125e-05
2.55304e-05
2.55301e-05
2.45102e-05
2.45099e-05
2.48076e-05
2.36127e-05
2.55308e-05
2.55299e-05
2.45107e-05
2.45097e-05
2.55302e-05
2.4511e-05
2.45102e-05
2.48073e-05
2.36123e-05
2.55307e-05
2.45108e-05
2.45107e-05
2.36123e-05
2.33784e-05
2.23125e-05
2.41842e-05
2.41838e-05
2.32478e-05
2.32475e-05
2.33786e-05
2.23126e-05
2.41847e-05
2.41836e-05
2.32484e-05
2.32473e-05
2.41841e-05
2.32488e-05
2.32478e-05
2.33782e-05
2.23122e-05
2.41846e-05
2.32485e-05
2.32484e-05
2.23122e-05
2.21049e-05
2.11681e-05
2.29497e-05
2.29494e-05
2.20965e-05
2.20962e-05
2.21051e-05
2.11683e-05
2.29503e-05
2.29491e-05
2.20972e-05
2.2096e-05
2.29496e-05
2.20976e-05
2.20965e-05
2.21047e-05
2.11678e-05
2.29503e-05
2.20973e-05
2.20972e-05
2.11678e-05
2.09863e-05
2.01708e-05
2.18259e-05
2.18255e-05
2.10542e-05
2.10538e-05
2.09865e-05
2.01709e-05
2.18266e-05
2.18253e-05
2.10549e-05
2.10536e-05
2.18258e-05
2.10552e-05
2.10541e-05
2.09861e-05
2.01705e-05
2.18265e-05
2.1055e-05
2.10549e-05
2.01704e-05
2.00137e-05
1.93146e-05
2.08103e-05
2.081e-05
2.0118e-05
2.01176e-05
2.00138e-05
1.93148e-05
2.08111e-05
2.08097e-05
2.01188e-05
2.01174e-05
2.08102e-05
2.01191e-05
2.01179e-05
2.00134e-05
1.93144e-05
2.08111e-05
2.01189e-05
2.01188e-05
1.93143e-05
1.91817e-05
1.85904e-05
1.99002e-05
1.98999e-05
1.92855e-05
1.92852e-05
1.91818e-05
1.85906e-05
1.9901e-05
1.98997e-05
1.92863e-05
1.9285e-05
1.99001e-05
1.92866e-05
1.92855e-05
1.91814e-05
1.85902e-05
1.9901e-05
1.92864e-05
1.92864e-05
1.859e-05
1.84898e-05
1.79978e-05
1.90936e-05
1.90933e-05
1.85545e-05
1.85542e-05
1.84899e-05
1.79979e-05
1.90945e-05
1.90931e-05
1.85553e-05
1.8554e-05
1.90936e-05
1.85555e-05
1.85544e-05
1.84896e-05
1.79976e-05
1.90945e-05
1.85554e-05
1.85553e-05
1.79974e-05
1.79333e-05
1.75392e-05
1.83874e-05
1.83871e-05
1.79213e-05
1.79211e-05
1.79333e-05
1.75393e-05
1.83883e-05
1.8387e-05
1.79221e-05
1.79209e-05
1.83874e-05
1.79223e-05
1.79213e-05
1.79331e-05
1.75391e-05
1.83883e-05
1.79222e-05
1.79222e-05
1.75389e-05
1.75065e-05
1.72177e-05
1.77783e-05
1.77781e-05
1.73838e-05
1.73836e-05
1.75065e-05
1.72176e-05
1.77792e-05
1.7778e-05
1.73845e-05
1.73835e-05
1.77783e-05
1.73846e-05
1.73837e-05
1.75063e-05
1.72175e-05
1.77792e-05
1.73846e-05
1.73846e-05
1.72174e-05
1.72004e-05
1.7026e-05
1.72648e-05
1.72646e-05
1.69411e-05
1.69409e-05
1.72003e-05
1.70258e-05
1.72655e-05
1.72645e-05
1.69418e-05
1.69409e-05
1.72647e-05
1.69418e-05
1.6941e-05
1.72002e-05
1.7026e-05
1.72655e-05
1.69418e-05
1.69418e-05
1.70259e-05
1.70227e-05
1.69725e-05
1.68458e-05
1.68457e-05
1.65921e-05
1.6592e-05
1.70225e-05
1.69723e-05
1.68465e-05
1.68456e-05
1.65927e-05
1.6592e-05
1.68458e-05
1.65926e-05
1.6592e-05
1.70226e-05
1.69725e-05
1.68465e-05
1.65928e-05
1.65928e-05
1.69724e-05
1.69819e-05
1.70434e-05
1.65206e-05
1.65205e-05
1.63369e-05
1.63367e-05
1.69816e-05
1.70431e-05
1.65213e-05
1.65205e-05
1.63374e-05
1.63369e-05
1.65205e-05
1.63372e-05
1.63368e-05
1.69818e-05
1.70435e-05
1.65213e-05
1.63374e-05
1.63375e-05
1.70434e-05
1.7079e-05
1.72434e-05
1.62892e-05
1.62891e-05
1.61753e-05
1.61753e-05
1.70786e-05
1.72431e-05
1.62898e-05
1.62892e-05
1.61758e-05
1.61755e-05
1.62891e-05
1.61754e-05
1.61753e-05
1.7079e-05
1.72437e-05
1.62898e-05
1.61758e-05
1.61759e-05
1.72435e-05
1.73038e-05
1.7572e-05
1.61515e-05
1.61515e-05
1.61071e-05
1.61073e-05
1.73034e-05
1.75715e-05
1.61521e-05
1.61517e-05
1.61076e-05
1.61075e-05
1.61515e-05
1.61071e-05
1.61072e-05
1.7304e-05
1.75724e-05
1.61521e-05
1.61076e-05
1.61077e-05
1.75722e-05
1.76568e-05
1.80252e-05
1.61072e-05
1.61074e-05
1.61328e-05
1.61331e-05
1.76563e-05
1.80248e-05
1.61077e-05
1.61077e-05
1.61333e-05
1.61335e-05
1.61073e-05
1.61328e-05
1.6133e-05
1.76571e-05
1.80258e-05
1.61079e-05
1.61333e-05
1.61335e-05
1.80256e-05
1.81338e-05
1.85972e-05
1.61534e-05
1.61538e-05
1.62488e-05
1.62493e-05
1.81333e-05
1.85966e-05
1.6154e-05
1.61541e-05
1.62492e-05
1.62497e-05
1.61536e-05
1.62486e-05
1.62491e-05
1.81342e-05
1.85978e-05
1.61541e-05
1.62492e-05
1.62496e-05
1.85977e-05
1.87283e-05
1.92758e-05
1.62921e-05
1.62926e-05
1.6455e-05
1.64555e-05
1.87277e-05
1.92751e-05
1.62926e-05
1.6293e-05
1.64553e-05
1.6456e-05
1.62924e-05
1.64546e-05
1.64553e-05
1.87288e-05
1.92766e-05
1.62928e-05
1.64553e-05
1.64557e-05
1.92764e-05
1.94276e-05
2.00495e-05
1.65204e-05
1.6521e-05
1.67491e-05
1.67498e-05
1.94269e-05
2.00488e-05
1.65208e-05
1.65215e-05
1.67493e-05
1.67504e-05
1.65208e-05
1.67486e-05
1.67495e-05
1.94282e-05
2.00505e-05
1.65212e-05
1.67494e-05
1.67499e-05
2.00503e-05
2.02201e-05
2.09064e-05
1.68361e-05
1.68367e-05
1.71283e-05
1.71289e-05
2.02195e-05
2.09055e-05
1.68363e-05
1.68373e-05
1.71283e-05
1.71296e-05
1.68365e-05
1.71274e-05
1.71288e-05
2.0221e-05
2.09074e-05
1.68368e-05
1.71284e-05
1.7129e-05
2.09074e-05
2.10936e-05
2.18336e-05
1.72361e-05
1.72367e-05
1.75891e-05
1.75899e-05
2.10927e-05
2.18326e-05
1.72361e-05
1.72374e-05
1.75889e-05
1.75906e-05
1.72365e-05
1.7588e-05
1.75897e-05
2.10944e-05
2.18348e-05
1.72368e-05
1.75892e-05
1.75898e-05
2.18348e-05
2.20348e-05
2.28165e-05
1.77167e-05
1.77174e-05
1.81277e-05
1.81283e-05
2.20338e-05
2.28154e-05
1.77166e-05
1.77183e-05
1.81272e-05
1.81292e-05
1.77173e-05
1.81262e-05
1.81283e-05
2.20358e-05
2.28178e-05
1.77174e-05
1.81275e-05
1.81282e-05
2.28179e-05
2.30292e-05
2.38416e-05
1.82739e-05
1.82746e-05
1.87394e-05
1.87401e-05
2.30281e-05
2.38405e-05
1.82735e-05
1.82755e-05
1.87386e-05
1.8741e-05
1.82746e-05
1.87377e-05
1.87401e-05
2.30302e-05
2.38431e-05
1.82745e-05
1.87391e-05
1.87397e-05
2.38432e-05
2.40631e-05
2.48961e-05
1.89031e-05
1.89038e-05
1.94196e-05
1.94203e-05
2.40621e-05
2.48948e-05
1.89025e-05
1.89048e-05
1.94186e-05
1.94213e-05
1.89039e-05
1.94176e-05
1.94205e-05
2.40645e-05
2.48975e-05
1.89035e-05
1.94192e-05
1.94199e-05
2.48979e-05
2.51242e-05
2.59673e-05
1.95997e-05
1.96003e-05
2.01626e-05
2.01632e-05
2.51229e-05
2.5966e-05
1.95987e-05
1.96014e-05
2.01613e-05
2.01642e-05
1.96006e-05
2.01603e-05
2.01636e-05
2.51254e-05
2.59689e-05
1.95999e-05
2.01619e-05
2.01626e-05
2.59692e-05
2.61997e-05
2.70464e-05
2.03577e-05
2.0358e-05
2.09632e-05
2.09638e-05
2.61983e-05
2.70451e-05
2.03564e-05
2.03593e-05
2.09615e-05
2.0965e-05
2.03587e-05
2.09608e-05
2.09643e-05
2.6201e-05
2.70481e-05
2.03577e-05
2.09625e-05
2.09631e-05
2.70485e-05
2.72807e-05
2.81239e-05
2.11715e-05
2.1172e-05
2.18148e-05
2.18151e-05
2.72796e-05
2.81222e-05
2.11699e-05
2.11733e-05
2.18129e-05
2.18165e-05
2.11727e-05
2.1812e-05
2.1816e-05
2.72824e-05
2.81254e-05
2.11713e-05
2.18139e-05
2.18145e-05
2.81261e-05
2.83589e-05
2.91937e-05
2.20352e-05
2.20354e-05
2.27113e-05
2.27117e-05
2.83573e-05
2.91922e-05
2.20333e-05
2.20368e-05
2.27091e-05
2.27131e-05
2.20364e-05
2.27085e-05
2.27129e-05
2.83601e-05
2.91954e-05
2.20348e-05
2.27105e-05
2.2711e-05
2.91959e-05
2.94275e-05
3.02501e-05
2.29415e-05
2.29418e-05
2.36467e-05
2.36467e-05
2.94262e-05
3.02484e-05
2.29393e-05
2.29433e-05
2.36442e-05
2.36482e-05
2.2943e-05
2.36435e-05
2.36481e-05
2.94291e-05
3.02516e-05
2.29411e-05
2.36455e-05
2.3646e-05
3.02522e-05
3.04826e-05
3.12899e-05
2.38861e-05
2.3886e-05
2.46138e-05
2.46137e-05
3.04809e-05
3.12881e-05
2.38837e-05
2.38876e-05
2.4611e-05
2.46155e-05
2.38876e-05
2.46106e-05
2.46155e-05
3.04838e-05
3.12916e-05
2.38855e-05
2.46128e-05
2.46132e-05
3.12923e-05
3.15186e-05
3.23092e-05
2.48593e-05
2.48594e-05
2.56058e-05
2.56058e-05
3.15171e-05
3.23077e-05
2.48567e-05
2.4861e-05
2.56029e-05
2.56074e-05
2.48611e-05
2.56027e-05
2.56077e-05
3.15202e-05
3.23106e-05
2.48587e-05
2.56048e-05
2.56051e-05
3.23114e-05
3.2535e-05
3.33098e-05
2.58576e-05
2.58577e-05
2.66195e-05
2.66193e-05
3.25336e-05
3.33081e-05
2.58549e-05
2.58594e-05
2.66166e-05
2.66211e-05
2.58596e-05
2.66163e-05
2.66216e-05
3.25362e-05
3.33112e-05
2.58571e-05
2.66187e-05
2.66189e-05
3.3312e-05
3.35312e-05
3.42851e-05
2.68749e-05
2.68746e-05
2.76443e-05
2.7644e-05
3.35296e-05
3.42832e-05
2.68722e-05
2.68764e-05
2.76414e-05
2.76459e-05
2.68771e-05
2.76411e-05
2.76467e-05
3.35324e-05
3.42863e-05
2.68744e-05
2.76437e-05
2.76439e-05
3.42874e-05
3.45016e-05
3.52369e-05
2.7902e-05
2.79018e-05
2.86765e-05
2.86765e-05
3.45e-05
3.52355e-05
2.78992e-05
2.79036e-05
2.86737e-05
2.86782e-05
2.79044e-05
2.86738e-05
2.86792e-05
3.45027e-05
3.52383e-05
2.79016e-05
2.86762e-05
2.86763e-05
3.52393e-05
3.54487e-05
3.61649e-05
2.89354e-05
2.89352e-05
2.97121e-05
2.97119e-05
3.54473e-05
3.61632e-05
2.89328e-05
2.89369e-05
2.97093e-05
2.97138e-05
2.89381e-05
2.97093e-05
2.9715e-05
3.54498e-05
3.61661e-05
2.89354e-05
2.9712e-05
2.97122e-05
3.61672e-05
3.63713e-05
3.70672e-05
2.9971e-05
2.99707e-05
3.07449e-05
3.07445e-05
3.63699e-05
3.70655e-05
2.99685e-05
2.99727e-05
3.07424e-05
3.07464e-05
2.99738e-05
3.07421e-05
3.07481e-05
3.63724e-05
3.70679e-05
2.9971e-05
3.07449e-05
3.07453e-05
3.70692e-05
3.72678e-05
3.79443e-05
3.10023e-05
3.1002e-05
3.17711e-05
3.17708e-05
3.72661e-05
3.79426e-05
3.1e-05
3.10039e-05
3.17686e-05
3.17726e-05
3.10053e-05
3.17685e-05
3.17745e-05
3.72685e-05
3.79451e-05
3.10026e-05
3.17713e-05
3.17717e-05
3.79465e-05
3.81396e-05
3.8797e-05
3.20263e-05
3.20259e-05
3.2787e-05
3.27869e-05
3.8138e-05
3.87955e-05
3.20241e-05
3.2028e-05
3.27846e-05
3.27884e-05
3.20295e-05
3.27848e-05
3.27905e-05
3.81404e-05
3.87978e-05
3.20269e-05
3.27874e-05
3.27878e-05
3.87992e-05
3.89866e-05
3.96243e-05
3.30386e-05
3.30386e-05
3.37867e-05
3.37867e-05
3.89852e-05
3.96226e-05
3.30365e-05
3.30401e-05
3.37843e-05
3.37879e-05
3.30418e-05
3.37846e-05
3.37899e-05
3.89873e-05
3.96248e-05
3.30393e-05
3.37872e-05
3.37872e-05
3.96261e-05
3.98084e-05
4.0429e-05
3.40345e-05
3.40342e-05
3.47717e-05
3.47713e-05
3.98068e-05
4.04271e-05
3.40323e-05
3.40356e-05
3.47695e-05
3.47725e-05
3.40377e-05
3.47694e-05
3.47754e-05
3.98088e-05
4.04292e-05
3.40352e-05
3.47718e-05
3.47728e-05
4.04315e-05
4.06076e-05
4.12055e-05
3.50145e-05
3.50141e-05
3.57321e-05
3.57324e-05
4.06059e-05
4.12043e-05
3.50124e-05
3.50152e-05
3.57302e-05
3.57339e-05
3.50178e-05
3.57307e-05
3.57354e-05
4.06077e-05
4.12066e-05
3.50154e-05
3.57337e-05
3.57332e-05
4.12075e-05
4.13778e-05
4.1958e-05
3.59688e-05
3.59692e-05
3.66701e-05
3.66699e-05
4.13769e-05
4.19563e-05
3.5967e-05
3.59705e-05
3.66681e-05
3.66712e-05
3.59721e-05
3.66683e-05
3.66737e-05
4.1379e-05
4.19583e-05
3.59699e-05
3.6671e-05
3.66715e-05
4.19603e-05
4.21254e-05
4.26871e-05
3.69014e-05
3.69007e-05
3.75853e-05
3.75851e-05
4.21236e-05
4.26856e-05
3.68995e-05
3.69018e-05
3.75833e-05
3.75855e-05
3.69047e-05
3.75835e-05
3.75881e-05
4.21253e-05
4.26868e-05
3.69026e-05
3.75854e-05
3.7586e-05
4.26888e-05
4.28487e-05
4.33892e-05
3.78101e-05
3.78102e-05
3.8471e-05
3.84717e-05
4.28475e-05
4.33885e-05
3.78081e-05
3.78102e-05
3.84694e-05
3.8473e-05
3.78129e-05
3.84705e-05
3.84749e-05
4.28485e-05
4.33905e-05
3.78108e-05
3.84734e-05
3.84732e-05
4.33919e-05
4.35452e-05
4.40705e-05
3.86889e-05
3.86891e-05
3.93341e-05
3.93332e-05
4.35444e-05
4.40683e-05
3.86875e-05
3.86905e-05
3.93327e-05
3.93346e-05
3.86925e-05
3.93323e-05
3.93375e-05
4.35464e-05
4.40701e-05
3.86907e-05
3.9335e-05
3.93359e-05
4.40725e-05
4.42216e-05
4.47235e-05
3.95461e-05
3.95452e-05
4.01641e-05
4.01653e-05
4.42196e-05
4.47233e-05
3.95447e-05
3.95464e-05
4.0162e-05
4.0165e-05
3.95492e-05
4.01643e-05
4.01679e-05
4.42212e-05
4.47242e-05
3.95476e-05
4.01663e-05
4.01663e-05
4.4726e-05
4.48682e-05
4.53594e-05
4.03672e-05
4.03681e-05
4.09741e-05
4.09732e-05
4.48682e-05
4.53573e-05
4.03656e-05
4.03684e-05
4.09727e-05
4.0974e-05
4.03712e-05
4.09718e-05
4.09752e-05
4.48691e-05
4.53588e-05
4.03697e-05
4.09738e-05
4.09738e-05
4.53602e-05
4.55006e-05
4.59627e-05
4.11718e-05
4.11716e-05
4.17468e-05
4.17475e-05
4.54987e-05
4.59626e-05
4.11705e-05
4.11722e-05
4.17454e-05
4.17475e-05
4.11738e-05
4.1747e-05
4.1751e-05
4.55e-05
4.59635e-05
4.11722e-05
4.17492e-05
4.17498e-05
4.5966e-05
4.60954e-05
4.65403e-05
4.19332e-05
4.19337e-05
4.24852e-05
4.2485e-05
4.60953e-05
4.65392e-05
4.19316e-05
4.19328e-05
4.24839e-05
4.2486e-05
4.19365e-05
4.24844e-05
4.24897e-05
4.6096e-05
4.6541e-05
4.1935e-05
4.2488e-05
4.24891e-05
4.65434e-05
4.6671e-05
4.71128e-05
4.2667e-05
4.26679e-05
4.32145e-05
4.3215e-05
4.66703e-05
4.71124e-05
4.26667e-05
4.26707e-05
4.32133e-05
4.32147e-05
4.26729e-05
4.32142e-05
4.32156e-05
4.66726e-05
4.7113e-05
4.26727e-05
4.32144e-05
4.32138e-05
4.71135e-05
4.72401e-05
4.76495e-05
4.33938e-05
4.33916e-05
4.39026e-05
4.39011e-05
4.72385e-05
4.76457e-05
4.33923e-05
4.33906e-05
4.39002e-05
4.38995e-05
4.33934e-05
4.39005e-05
4.39045e-05
4.72381e-05
4.76457e-05
4.33918e-05
4.39017e-05
4.39036e-05
4.76503e-05
4.77667e-05
4.81539e-05
4.40684e-05
4.40684e-05
4.45507e-05
4.4553e-05
4.77644e-05
4.81564e-05
4.40657e-05
4.40659e-05
4.45507e-05
4.45554e-05
4.40701e-05
4.45528e-05
4.45556e-05
4.77645e-05
4.81591e-05
4.40683e-05
4.45567e-05
4.45545e-05
4.81578e-05
4.82686e-05
4.86548e-05
4.47083e-05
4.47115e-05
4.51908e-05
4.51927e-05
4.82711e-05
4.86559e-05
4.47097e-05
4.47163e-05
4.51899e-05
4.51917e-05
4.47161e-05
4.51929e-05
4.51953e-05
4.82746e-05
4.8656e-05
4.47156e-05
4.51942e-05
4.51956e-05
4.86596e-05
4.87676e-05
4.9132e-05
4.5347e-05
4.53476e-05
4.57946e-05
4.57916e-05
4.87682e-05
4.91271e-05
4.53454e-05
4.53442e-05
4.57928e-05
4.57888e-05
4.53494e-05
4.5792e-05
4.57957e-05
4.87663e-05
4.91247e-05
4.53493e-05
4.57907e-05
4.57941e-05
4.91299e-05
4.92394e-05
4.95836e-05
4.59473e-05
4.5943e-05
4.63838e-05
4.63835e-05
4.92335e-05
4.95821e-05
4.59456e-05
4.59418e-05
4.63816e-05
4.63843e-05
4.59468e-05
4.63805e-05
4.63801e-05
4.92328e-05
4.95866e-05
4.59454e-05
4.63835e-05
4.63783e-05
4.95822e-05
4.96774e-05
4.99752e-05
4.65062e-05
4.6509e-05
4.68802e-05
4.6884e-05
4.96784e-05
4.99814e-05
4.65057e-05
4.65114e-05
4.68846e-05
4.68934e-05
4.65071e-05
4.68896e-05
4.68988e-05
4.96829e-05
4.99844e-05
4.65058e-05
4.68977e-05
4.69009e-05
4.99899e-05
5.00808e-05
5.04544e-05
4.70305e-05
4.70364e-05
4.74801e-05
4.74816e-05
5.0087e-05
5.04524e-05
4.70322e-05
4.70373e-05
4.74703e-05
4.74558e-05
4.70458e-05
4.7475e-05
4.74668e-05
5.00868e-05
5.04386e-05
4.70464e-05
4.74589e-05
4.74633e-05
5.04445e-05
5.05457e-05
5.07893e-05
4.75989e-05
4.75893e-05
4.79207e-05
4.79149e-05
5.05371e-05
5.07773e-05
4.75933e-05
4.75812e-05
4.79267e-05
4.7947e-05
4.75872e-05
4.7918e-05
4.79344e-05
5.05312e-05
5.08086e-05
4.75881e-05
4.79504e-05
4.79402e-05
5.0801e-05
5.08761e-05
5.11749e-05
4.80438e-05
4.80511e-05
4.84067e-05
4.84003e-05
5.08725e-05
5.11753e-05
4.80453e-05
4.80615e-05
4.84063e-05
4.83777e-05
4.80544e-05
4.84031e-05
4.83956e-05
5.08943e-05
5.11408e-05
4.80534e-05
4.83715e-05
4.83865e-05
5.11558e-05
5.12536e-05
5.1437e-05
4.85134e-05
4.84958e-05
4.87834e-05
4.88098e-05
5.12467e-05
5.14572e-05
4.85177e-05
4.84893e-05
4.878e-05
4.88058e-05
4.85025e-05
4.88118e-05
4.88003e-05
5.12185e-05
5.14689e-05
4.84953e-05
4.88065e-05
4.87947e-05
5.1459e-05
5.1496e-05
5.17785e-05
4.88526e-05
4.88964e-05
4.91531e-05
4.91481e-05
5.15323e-05
5.17731e-05
4.88453e-05
4.88864e-05
4.91526e-05
4.91712e-05
4.88819e-05
4.91457e-05
4.91744e-05
5.15423e-05
5.18007e-05
4.8883e-05
4.91949e-05
4.91957e-05
5.18032e-05
5.19091e-05
5.23955e-05
4.93268e-05
4.92974e-05
4.98884e-05
4.98498e-05
5.18761e-05
5.23496e-05
4.93269e-05
4.93215e-05
4.98848e-05
4.98337e-05
4.93284e-05
4.98459e-05
4.98484e-05
5.19081e-05
5.23341e-05
4.93429e-05
4.98214e-05
4.98364e-05
5.235e-05
5.24626e-05
5.24256e-05
5.00045e-05
4.99776e-05
5.00826e-05
5.00908e-05
5.24276e-05
5.24521e-05
5.00036e-05
4.99632e-05
5.00883e-05
5.0096e-05
4.99722e-05
5.00872e-05
5.00826e-05
5.24107e-05
5.24527e-05
4.99615e-05
5.00897e-05
5.00814e-05
5.24371e-05
5.24314e-05
5.24144e-05
5.00701e-05
5.00901e-05
5.00679e-05
5.01994e-05
5.24631e-05
5.25808e-05
5.00772e-05
5.00932e-05
5.00604e-05
5.00774e-05
5.0078e-05
5.02175e-05
5.00769e-05
5.24606e-05
5.24129e-05
5.00772e-05
5.00781e-05
5.00642e-05
5.24069e-05
5.25048e-05
5.30443e-05
5.0147e-05
5.03024e-05
5.06481e-05
5.04448e-05
5.2659e-05
5.27748e-05
5.0112e-05
5.01142e-05
5.0652e-05
5.06323e-05
5.01391e-05
5.04455e-05
5.06852e-05
5.24863e-05
5.30445e-05
5.01114e-05
5.06652e-05
5.07222e-05
5.31067e-05
5.31847e-05
5.37524e-05
5.08265e-05
5.05515e-05
5.14307e-05
5.13304e-05
5.28468e-05
5.36294e-05
5.08577e-05
5.08478e-05
5.14694e-05
5.14897e-05
5.08995e-05
5.13516e-05
5.14898e-05
5.31926e-05
5.37697e-05
5.09532e-05
5.14878e-05
5.15082e-05
5.38146e-05
5.38521e-05
5.37283e-05
5.15683e-05
5.15835e-05
5.16386e-05
5.18388e-05
5.38254e-05
5.41729e-05
5.15919e-05
5.16166e-05
5.1636e-05
5.16613e-05
5.15896e-05
5.18222e-05
5.15789e-05
5.38732e-05
5.37653e-05
5.15878e-05
5.16218e-05
5.15374e-05
5.34539e-05
5.35346e-05
5.11689e-05
5.15266e-05
5.18001e-05
4.96906e-05
4.99781e-05
5.41496e-05
5.14195e-05
5.14983e-05
5.15098e-05
4.96416e-05
4.96155e-05
5.13674e-05
4.99511e-05
4.95964e-05
5.35317e-05
5.11351e-05
5.12637e-05
4.96105e-05
4.95567e-05
5.11025e-05
5.09767e-05
5.15553e-05
4.92495e-05
4.93198e-05
4.90963e-05
4.88318e-05
5.10802e-05
5.06079e-05
4.92346e-05
4.92232e-05
4.91372e-05
4.91656e-05
4.92905e-05
4.88851e-05
4.93856e-05
5.09588e-05
5.1731e-05
4.9295e-05
4.92595e-05
4.94867e-05
5.23421e-05
5.24849e-05
5.91168e-05
4.96692e-05
4.91582e-05
5.5921e-05
5.55517e-05
5.1303e-05
5.88492e-05
4.97777e-05
4.98649e-05
5.59455e-05
5.59218e-05
5.0265e-05
5.55487e-05
5.59836e-05
5.27052e-05
5.90109e-05
5.05325e-05
5.59162e-05
5.60315e-05
5.90638e-05
5.98215e-05
6.04313e-05
5.72831e-05
5.7235e-05
5.83567e-05
5.87416e-05
5.97711e-05
6.12265e-05
5.72477e-05
5.71703e-05
5.82612e-05
5.81249e-05
5.70434e-05
5.86081e-05
5.76711e-05
5.96703e-05
6.01337e-05
5.70126e-05
5.797e-05
5.75526e-05
5.91233e-05
5.96256e-05
5.08208e-05
5.80578e-05
5.85149e-05
5.09171e-05
5.13599e-05
6.06134e-05
5.11598e-05
5.79554e-05
5.78153e-05
5.0892e-05
5.1039e-05
5.71901e-05
5.13102e-05
5.04792e-05
5.93115e-05
5.10611e-05
5.7035e-05
5.09679e-05
5.03883e-05
5.05979e-05
4.97178e-05
4.6924e-05
4.85746e-05
4.89047e-05
4.56249e-05
4.59554e-05
4.99994e-05
4.74199e-05
4.85757e-05
4.88454e-05
4.55771e-05
4.5874e-05
4.87515e-05
4.61516e-05
4.68967e-05
5.00693e-05
4.74913e-05
4.87098e-05
4.61071e-05
4.68766e-05
4.87649e-05
4.70294e-05
5.27881e-05
4.55886e-05
4.59359e-05
4.92446e-05
4.92794e-05
4.76602e-05
5.2629e-05
4.55241e-05
4.5775e-05
4.90345e-05
4.83135e-05
4.69105e-05
4.92549e-05
4.95701e-05
4.75419e-05
5.18146e-05
4.68834e-05
4.83293e-05
4.94334e-05
5.26588e-05
5.39734e-05
5.80176e-05
5.13906e-05
5.09607e-05
5.53119e-05
5.38846e-05
5.34837e-05
5.58613e-05
5.13426e-05
5.06092e-05
5.56269e-05
5.54468e-05
5.07746e-05
5.36028e-05
5.35584e-05
5.29774e-05
5.79307e-05
5.07386e-05
5.51952e-05
5.39211e-05
5.58221e-05
5.83024e-05
5.80335e-05
5.58639e-05
5.43681e-05
5.6205e-05
5.50879e-05
5.60929e-05
5.67263e-05
5.62136e-05
5.6251e-05
5.65057e-05
5.68153e-05
5.42862e-05
5.50297e-05
5.5518e-05
5.84119e-05
5.88758e-05
5.46824e-05
5.67226e-05
5.57404e-05
5.7619e-05
5.76676e-05
5.40241e-05
5.60261e-05
5.51406e-05
5.31741e-05
5.4647e-05
5.68144e-05
5.61124e-05
5.6211e-05
5.65859e-05
5.28742e-05
5.28352e-05
5.55933e-05
5.48389e-05
5.46136e-05
5.84055e-05
5.37164e-05
5.5761e-05
5.29415e-05
5.40931e-05
5.54176e-05
5.35736e-05
5.21795e-05
5.22496e-05
5.38533e-05
5.09845e-05
5.25359e-05
5.57865e-05
5.43865e-05
5.19366e-05
5.18258e-05
5.07194e-05
5.07167e-05
5.34702e-05
5.26552e-05
5.18572e-05
5.32331e-05
5.22314e-05
5.30133e-05
5.08294e-05
5.15774e-05
5.3191e-05
5.22089e-05
5.58616e-05
5.09716e-05
5.24815e-05
5.31452e-05
5.34866e-05
5.43814e-05
5.60254e-05
5.07139e-05
5.0737e-05
5.30694e-05
5.30285e-05
5.18257e-05
5.35929e-05
5.33218e-05
5.24471e-05
5.55868e-05
5.15588e-05
5.31011e-05
5.32013e-05
5.58207e-05
5.66899e-05
5.91389e-05
5.45834e-05
5.43585e-05
5.66403e-05
5.53355e-05
5.64644e-05
5.72609e-05
5.45216e-05
5.41098e-05
5.67531e-05
5.57776e-05
5.41972e-05
5.50845e-05
5.51284e-05
5.6131e-05
5.75312e-05
5.41155e-05
5.54768e-05
5.51927e-05
5.72479e-05
5.91811e-05
5.52338e-05
5.67011e-05
5.52944e-05
5.44826e-05
5.23086e-05
5.71149e-05
5.27311e-05
5.68576e-05
5.58718e-05
5.50945e-05
5.49266e-05
5.50887e-05
5.20311e-05
5.25463e-05
5.75654e-05
5.56485e-05
5.51799e-05
5.45995e-05
5.30657e-05
5.35262e-05
5.4199e-05
4.96601e-05
5.24543e-05
5.08781e-05
4.85598e-05
4.87733e-05
5.20737e-05
5.01176e-05
5.30293e-05
5.35731e-05
4.8848e-05
5.05715e-05
5.14001e-05
4.89813e-05
4.97148e-05
5.51091e-05
5.23052e-05
5.1901e-05
5.07985e-05
5.00119e-05
5.12839e-05
4.94513e-05
5.0594e-05
4.81071e-05
4.8693e-05
4.82883e-05
5.04119e-05
5.0148e-05
5.37851e-05
4.8309e-05
5.01117e-05
4.82656e-05
4.98485e-05
4.96511e-05
5.09087e-05
5.09566e-05
5.2154e-05
5.21532e-05
4.99013e-05
5.0223e-05
5.07097e-05
5.36996e-05
5.15541e-05
5.68479e-05
4.94982e-05
5.2163e-05
5.45816e-05
5.5685e-05
5.47262e-05
5.81966e-05
4.9093e-05
5.00694e-05
5.41094e-05
5.27784e-05
5.22916e-05
5.57031e-05
5.4922e-05
5.24944e-05
5.4807e-05
5.19404e-05
5.28769e-05
5.44929e-05
5.69824e-05
5.74828e-05
5.88651e-05
5.56342e-05
5.61856e-05
5.67435e-05
5.63142e-05
5.84292e-05
5.75252e-05
5.521e-05
5.34661e-05
5.64735e-05
5.43325e-05
5.5268e-05
5.60973e-05
5.52867e-05
5.51295e-05
5.58015e-05
5.48388e-05
5.40104e-05
5.49072e-05
5.64501e-05
5.88361e-05
5.51231e-05
5.67105e-05
5.5825e-05
5.38974e-05
5.19296e-05
5.69474e-05
5.27391e-05
5.64689e-05
5.43585e-05
5.41719e-05
5.35892e-05
5.48271e-05
5.1667e-05
5.21533e-05
5.58282e-05
5.48588e-05
5.45796e-05
5.32262e-05
5.23642e-05
5.35461e-05
5.45052e-05
5.17652e-05
5.26054e-05
5.10176e-05
5.01714e-05
4.98503e-05
5.23492e-05
5.14077e-05
5.29329e-05
5.29972e-05
5.05266e-05
5.18249e-05
5.15252e-05
4.98787e-05
5.05488e-05
5.47038e-05
5.37582e-05
5.18181e-05
5.18686e-05
5.09047e-05
5.24596e-05
5.16509e-05
5.19399e-05
4.98921e-05
4.98353e-05
4.98852e-05
5.09867e-05
5.15032e-05
5.34945e-05
5.02242e-05
5.16795e-05
5.01056e-05
5.15758e-05
5.0496e-05
5.11732e-05
5.0878e-05
5.37447e-05
5.3687e-05
5.08385e-05
5.17103e-05
5.10054e-05
5.31067e-05
5.23033e-05
5.42376e-05
5.03105e-05
5.17068e-05
5.22854e-05
5.31083e-05
5.39054e-05
5.51988e-05
5.03459e-05
5.16267e-05
5.20958e-05
5.21738e-05
5.14198e-05
5.31958e-05
5.27723e-05
5.37623e-05
5.40994e-05
5.14159e-05
5.22933e-05
5.26184e-05
5.4669e-05
5.43551e-05
5.17654e-05
5.23908e-05
5.51801e-05
5.15967e-05
5.1391e-05
4.25835e-05
4.14286e-05
4.21021e-05
5.20767e-05
5.40356e-05
5.19277e-05
3.73773e-05
3.73765e-05
3.7377e-05
3.7377e-05
3.73701e-05
3.73777e-05
3.73043e-05
3.73768e-05
3.73702e-05
3.73777e-05
3.73768e-05
3.73043e-05
3.73741e-05
3.72959e-05
3.72959e-05
3.58798e-05
4.0872e-05
3.66033e-05
4.51467e-05
5.51147e-05
6.48951e-05
3.58803e-05
4.08712e-05
3.66034e-05
4.51465e-05
3.58932e-05
3.58933e-05
3.58932e-05
3.44005e-05
3.44005e-05
3.44005e-05
3.44005e-05
3.52758e-05
3.56384e-05
3.58929e-05
3.53771e-05
3.60475e-05
3.42365e-05
3.53822e-05
5.51168e-05
6.48994e-05
3.52758e-05
3.58929e-05
3.5638e-05
3.53771e-05
3.60475e-05
3.53822e-05
3.42375e-05
3.65971e-05
3.65977e-05
3.5279e-05
3.40642e-05
3.40633e-05
3.39657e-05
5.13534e-05
3.46793e-05
5.46248e-05
7.65447e-05
8.08614e-05
3.39682e-05
5.13543e-05
3.46789e-05
5.46254e-05
3.39296e-05
3.39297e-05
3.39297e-05