/*--------------------------------*- C++ -*----------------------------------*\
| =========                 |                                                 |
| \\      /  F ield         | OpenFOAM: The Open Source CFD Toolbox           |
|  \\    /   O peration     | Version:  v1906                                 |
|   \\  /    A nd           | Web:      www.OpenFOAM.com                      |
|    \\/     M anipulation  |                                                 |
\*---------------------------------------------------------------------------*/
FoamFile
{
    version     2.0;
    format      ascii;
    class       volScalarField;
    location    "750";
    object      nut;
}
// * * * * * * * * * * * * * * * * * * * * * * * * * * * * * * * * * * * * * //

dimensions      [0 2 -1 0 0 0 0];


internalField   nonuniform List<scalar> 
171728
(
0.000137316
0.000139333
0.000139332
0.000137316
0.000139346
0.000139329
0.00013935
0.000139349
0.000137313
0.00013935
0.000139353
0.000137321
0.000123056
0.000123054
0.000123057
0.000123069
2.3614e-05
2.36136e-05
7.38303e-05
7.38339e-05
9.19214e-05
5.00202e-05
9.21476e-05
9.19252e-05
5.00218e-05
5.00093e-05
9.21502e-05
0.000120889
9.39698e-05
0.00013468
0.000133815
0.000121475
0.000120893
0.000138544
9.39712e-05
0.000134677
9.36744e-05
0.000133812
0.000121479
2.36138e-05
2.36095e-05
0.000136502
7.38313e-05
7.38265e-05
7.37031e-05
7.36968e-05
2.36144e-05
2.36101e-05
5.00188e-05
9.21507e-05
9.39707e-05
0.000134684
0.000121481
5.00142e-05
9.21472e-05
0.000134683
9.39545e-05
0.000121477
0.000120896
0.000138562
9.39698e-05
0.000134691
9.36723e-05
0.000133825
0.000121482
9.1926e-05
5.00208e-05
5.00084e-05
9.21512e-05
0.000120894
0.000138562
0.000134697
9.39707e-05
0.000133831
9.36743e-05
0.000121479
9.19234e-05
5.00175e-05
5.0005e-05
9.21491e-05
2.36118e-05
7.38172e-05
7.38318e-05
2.36137e-05
0.000120895
0.000134702
9.39718e-05
0.00013384
0.000121482
0.000120896
0.000138566
0.000134706
9.39707e-05
0.000133842
9.36743e-05
0.000121484
9.19344e-05
5.00173e-05
9.21497e-05
9.19356e-05
5.0018e-05
5.00055e-05
9.21524e-05
0.000136507
7.38318e-05
7.38312e-05
7.37041e-05
7.37035e-05
2.36134e-05
2.36091e-05
2.3613e-05
2.36087e-05
2.36123e-05
2.36113e-05
9.73921e-05
0.000112899
7.37738e-05
4.79429e-05
4.79406e-05
0.000112746
9.74678e-05
9.73937e-05
0.000112929
7.3771e-05
4.79416e-05
4.79327e-05
0.000112707
9.75166e-05
7.88864e-05
2.14935e-05
2.14916e-05
2.14923e-05
2.14897e-05
7.89211e-05
3.62678e-05
4.05354e-05
8.80985e-05
9.20234e-05
3.62652e-05
4.05382e-05
8.81802e-05
2.01024e-05
5.00155e-05
7.60831e-05
7.60409e-05
2.01041e-05
3.62686e-05
9.20464e-05
4.05423e-05
8.82797e-05
4.05394e-05
8.81986e-05
3.62712e-05
3.62695e-05
4.05355e-05
8.81161e-05
9.20261e-05
3.6267e-05
4.05384e-05
8.81904e-05
2.01034e-05
5.00167e-05
7.61069e-05
7.60657e-05
2.0105e-05
2.01036e-05
7.60182e-05
5.00144e-05
2.0102e-05
7.60597e-05
3.62704e-05
9.20502e-05
4.05424e-05
8.82901e-05
4.05395e-05
8.82164e-05
3.62729e-05
2.36118e-05
2.36114e-05
7.88802e-05
2.14882e-05
2.14908e-05
7.88426e-05
2.14898e-05
2.14924e-05
9.73895e-05
0.000112905
7.3772e-05
4.79387e-05
0.000112727
4.79331e-05
9.74994e-05
9.7376e-05
0.000112919
7.37658e-05
4.79465e-05
4.79409e-05
0.00011274
9.74858e-05
9.73722e-05
4.7925e-05
0.000112478
7.3763e-05
0.000112658
9.72612e-05
4.79306e-05
9.73585e-05
4.79329e-05
0.000112491
7.37582e-05
9.72476e-05
4.79385e-05
0.000112672
7.88865e-05
2.14915e-05
2.14941e-05
2.14899e-05
2.14925e-05
7.89237e-05
2.36124e-05
2.36121e-05
2.01037e-05
5.00136e-05
7.61055e-05
7.60644e-05
2.01053e-05
3.62703e-05
9.20606e-05
8.82896e-05
4.05419e-05
8.82161e-05
4.0539e-05
3.62728e-05
2.0102e-05
5.00091e-05
7.60795e-05
7.60369e-05
2.01036e-05
3.62677e-05
9.20567e-05
4.05417e-05
8.82768e-05
4.05388e-05
8.81977e-05
3.62703e-05
3.62701e-05
8.81171e-05
4.0535e-05
9.20272e-05
3.62675e-05
8.81913e-05
4.05379e-05
2.01042e-05
5.00157e-05
7.61077e-05
7.60665e-05
2.01058e-05
2.01043e-05
7.60191e-05
5.00134e-05
2.01028e-05
7.60605e-05
3.62709e-05
9.20509e-05
8.82909e-05
4.05419e-05
8.82173e-05
4.0539e-05
3.62735e-05
3.62679e-05
4.05349e-05
8.81076e-05
9.20251e-05
3.62653e-05
4.05378e-05
8.81818e-05
2.01029e-05
5.00124e-05
7.60874e-05
7.60463e-05
2.01045e-05
2.01031e-05
7.59989e-05
5.00101e-05
2.01015e-05
7.60403e-05
3.62687e-05
9.20482e-05
4.05418e-05
8.82814e-05
4.05389e-05
8.82078e-05
3.62713e-05
2.36098e-05
9.7383e-05
0.000112899
7.37565e-05
4.79359e-05
0.000112716
4.79303e-05
9.74934e-05
9.73746e-05
0.00011292
7.37726e-05
4.79477e-05
4.79421e-05
0.000112741
9.74854e-05
7.88873e-05
2.14905e-05
2.14939e-05
2.14889e-05
2.14923e-05
7.89244e-05
2.36117e-05
3.62682e-05
8.8108e-05
4.0535e-05
9.20257e-05
3.62656e-05
8.81824e-05
4.05379e-05
2.01032e-05
5.00122e-05
7.60874e-05
7.60465e-05
2.01048e-05
2.01033e-05
7.60403e-05
3.6269e-05
9.20591e-05
8.82819e-05
4.05419e-05
8.82084e-05
4.0539e-05
3.62716e-05
3.62698e-05
8.81104e-05
4.05351e-05
9.20284e-05
3.62672e-05
8.81915e-05
4.0538e-05
2.01038e-05
5.00129e-05
7.61022e-05
7.60597e-05
2.01054e-05
2.0104e-05
7.60129e-05
5.00106e-05
2.01024e-05
7.60553e-05
3.62706e-05
9.20602e-05
8.8291e-05
4.0542e-05
8.82098e-05
4.05391e-05
3.62732e-05
7.88811e-05
2.14908e-05
2.14879e-05
7.88436e-05
2.14924e-05
2.14894e-05
9.73737e-05
0.000112919
7.37729e-05
4.7947e-05
0.000112741
4.79414e-05
9.74841e-05
9.73911e-05
0.000112908
7.37724e-05
4.79381e-05
0.000112733
4.79325e-05
9.75007e-05
9.73568e-05
4.79334e-05
0.000112492
7.37635e-05
9.72454e-05
0.000112672
4.7939e-05
9.73736e-05
4.79245e-05
0.000112485
7.37629e-05
9.7263e-05
0.000112661
4.79301e-05
7.88875e-05
2.14941e-05
2.14911e-05
2.14925e-05
2.14895e-05
7.89246e-05
2.36114e-05
2.36111e-05
2.3611e-05
2.36107e-05
0.000119723
0.00013712
0.000130232
0.000130267
0.000130083
0.000130083
0.000119959
0.000119725
0.000137119
0.000130244
0.000130249
0.000130074
0.000130078
0.000119957
0.000119719
0.000137117
0.000130239
0.000130247
0.000130069
0.000130077
0.000119953
0.000119724
0.000137124
0.000130249
0.000130249
0.000130079
0.000130079
0.000119958
0.000120783
0.000120788
0.000120504
0.000132406
0.000132174
0.000122388
0.00012078
0.000120791
0.000120502
0.000120512
0.000132405
0.000132174
0.000120787
0.000120797
0.000120524
0.000132407
0.000132173
0.000122401
0.000120794
0.0001208
0.000120514
0.000120523
0.000132406
0.000132174
0.000132531
0.000117219
0.000134315
0.00012113
0.00013237
0.000117435
0.000134505
0.000128734
0.000122432
9.38315e-05
0.000107894
0.000122297
0.000107691
0.0001289
0.000132898
0.000121236
0.000117739
0.000135072
0.000117525
0.000134883
0.000133058
0.000132537
0.000117228
0.000134318
0.000121134
0.000132376
0.000117444
0.000134507
0.000128735
0.000122428
9.38318e-05
0.000107904
0.0001077
0.00012229
0.000128901
0.000128442
0.000107465
0.000121917
9.3815e-05
0.000128276
0.00010767
0.000122056
0.000132904
0.000121239
0.000117749
0.000135074
0.000117534
0.000134885
0.000133064
0.000119675
0.000136699
0.00012962
0.000129624
0.000129791
0.000119442
0.000129795
0.000128738
0.000122432
9.38294e-05
0.000107902
0.000122291
0.000107701
0.000128904
0.000132904
0.000121241
0.000117749
0.000135075
0.000117534
0.000134887
0.000133065
0.000128724
0.000122416
9.38143e-05
0.000107886
0.000107683
0.000122279
0.00012889
0.000132895
0.000121237
0.000135072
0.000117736
0.000134884
0.000117521
0.000133056
0.000132541
0.000117231
0.000134323
0.000121137
0.00013238
0.000117448
0.000134512
0.000128743
0.000122439
9.38298e-05
0.000107907
0.000122301
0.000107703
0.000128909
0.00012845
0.000107468
0.000121928
9.38136e-05
0.000128283
0.000122066
0.000107674
0.000132908
0.000121242
0.000117752
0.000135079
0.000117537
0.00013489
0.000133069
0.000132538
0.000134322
0.000117225
0.000121135
0.000132376
0.000134511
0.000117441
0.00012874
0.000122438
9.38317e-05
0.0001079
0.000107696
0.0001223
0.000128906
0.000128447
0.000107461
0.000121927
9.38147e-05
0.00012828
0.000107667
0.000122065
0.000132905
0.00012124
0.000135078
0.000117745
0.00013489
0.00011753
0.000133065
0.000132538
0.000134322
0.000117225
0.000121138
0.000132376
0.000134511
0.000117442
0.00012874
0.000122439
9.38327e-05
0.000107899
0.000122301
0.000107698
0.000128906
0.000128447
0.000107666
0.000132904
0.000121241
0.000135078
0.000117745
0.000134889
0.00011753
0.000133064
0.00013254
0.000134323
0.00011723
0.00012114
0.000132378
0.000134512
0.000117446
0.000128739
0.000122433
9.38316e-05
0.000107903
0.0001077
0.000122295
0.000128905
0.000128446
0.000107466
0.000121922
9.38147e-05
0.000128279
0.00010767
0.000122061
0.000132906
0.000121243
0.000135079
0.00011775
0.00013489
0.000117535
0.000133066
0.000119677
0.000136704
0.000129625
0.000129626
0.000119441
0.000129796
0.000129797
0.000207565
0.000202242
0.000201983
0.000183093
0.000176612
0.000183497
0.000179327
0.00020151
0.00020228
0.000200125
0.000203457
0.000184238
0.000182771
0.000201647
0.000202215
0.00019971
0.000201141
0.000201555
0.000203108
0.000197945
0.000184056
0.000180503
0.000201594
0.00020069
0.000197421
0.000177681
0.000195524
0.00019516
0.00010012
5.06557e-05
5.05889e-05
0.00010076
2.38616e-05
2.38365e-05
9.97903e-05
5.06435e-05
5.05787e-05
0.00010077
0.000208235
0.000208203
0.000207112
0.000208147
0.000210194
0.000208978
0.000206161
0.000145457
0.000104881
0.00021125
0.000203162
0.000104525
0.000211823
0.00014558
2.38476e-05
2.38271e-05
0.000144593
0.000210892
0.000104738
0.000202888
0.000211426
0.000103845
0.000145325
7.77937e-05
7.77004e-05
0.000181896
7.71086e-05
7.70433e-05
7.59685e-05
7.59883e-05
2.38471e-05
2.38352e-05
2.38443e-05
2.38333e-05
7.8136e-05
7.8065e-05
0.000183546
7.74202e-05
7.73718e-05
2.38387e-05
2.38325e-05
2.38377e-05
2.38309e-05
0.000182681
7.62542e-05
7.62416e-05
7.71144e-05
7.70744e-05
0.000100278
5.06995e-05
5.0609e-05
0.000100812
0.00014591
0.00010445
0.000211087
0.000202247
0.000103522
0.000211641
0.00014566
0.000146266
0.000104951
0.000211452
0.000203207
0.00010471
0.000212102
0.000145763
9.96039e-05
5.05451e-05
5.05695e-05
9.81519e-05
9.97411e-05
5.0522e-05
5.05781e-05
9.82335e-05
0.000145034
0.000202326
0.000101568
0.00021196
0.000102997
0.000212381
0.000142302
0.000145373
0.000204184
0.000102222
0.000213011
0.000104053
0.000213061
0.000142557
7.89312e-05
7.88752e-05
0.000185996
7.81952e-05
7.81414e-05
2.38611e-05
2.38375e-05
2.3822e-05
2.38284e-05
0.000185824
7.65722e-05
7.65786e-05
7.7791e-05
7.7752e-05
2.38244e-05
2.38298e-05
0.000145286
0.00010435
0.000211185
0.000202347
0.000103393
0.000211774
0.000145789
9.98624e-05
5.06572e-05
5.05718e-05
0.000100826
0.000145479
0.000211464
0.000104911
0.000203193
0.000212163
0.000103977
0.000145866
9.92883e-05
5.05393e-05
5.05605e-05
9.78839e-05
0.000144384
0.000202224
0.000101469
0.000211089
0.000102868
0.000212258
0.00014167
9.93443e-05
5.05084e-05
5.05463e-05
9.78868e-05
0.000144547
0.000203504
0.000211655
0.000101562
0.000212749
0.000103334
0.000141737
9.99185e-05
5.06888e-05
5.06046e-05
0.00010068
0.000144996
0.000210803
0.000103859
0.000201763
0.000211265
0.000102976
0.000145479
9.97321e-05
5.06292e-05
5.05789e-05
0.000100591
0.000144642
0.000204034
0.000102158
0.00021217
0.000103899
0.00021257
0.000142143
9.94507e-05
5.05281e-05
5.05766e-05
9.81412e-05
0.000144209
0.000200547
0.000210326
0.000101291
0.000211568
0.000102498
0.000141818
9.92836e-05
5.05574e-05
5.05663e-05
9.80407e-05
7.86929e-05
7.86527e-05
0.000185405
7.77278e-05
7.77178e-05
2.385e-05
2.38309e-05
2.38212e-05
2.38214e-05
0.000184432
7.61939e-05
7.6258e-05
7.73367e-05
7.73424e-05
2.38261e-05
2.38258e-05
0.000144255
0.000210592
0.000103653
0.000201561
0.000210965
0.000102782
0.000145196
9.95364e-05
5.06553e-05
5.05799e-05
0.000100411
9.94068e-05
5.062e-05
5.05772e-05
0.000100237
0.000143815
0.000203092
0.00021032
0.000101602
0.000211747
0.000103246
0.000141482
0.000143514
0.000199921
0.000208891
0.00010121
0.000210859
0.000102329
0.000141305
9.91074e-05
5.0527e-05
5.05577e-05
9.79146e-05
9.9e-05
5.05644e-05
5.05673e-05
9.78734e-05
2.38406e-05
2.3834e-05
2.38392e-05
2.38343e-05
0.00018085
7.61446e-05
7.61473e-05
7.68386e-05
7.67903e-05
2.38462e-05
2.38335e-05
2.38485e-05
2.38342e-05
0.000207316
0.000100883
0.000140822
5.05651e-05
9.7595e-05
0.000100839
5.05773e-05
2.3853e-05
2.38555e-05
3.66372e-05
4.09681e-05
9.44665e-05
0.000100501
4.09778e-05
9.47647e-05
3.66296e-05
2.02797e-05
5.06338e-05
7.94279e-05
7.92688e-05
2.02833e-05
2.02721e-05
7.88004e-05
5.06088e-05
7.89988e-05
2.027e-05
3.66501e-05
0.000100841
4.10019e-05
9.5275e-05
4.09918e-05
9.5173e-05
3.66592e-05
2.38544e-05
2.38428e-05
3.66322e-05
9.4258e-05
4.09595e-05
0.000100145
9.4552e-05
4.09678e-05
3.66255e-05
2.02777e-05
5.0622e-05
7.93186e-05
7.91779e-05
2.02809e-05
2.0271e-05
7.87232e-05
5.05977e-05
7.89145e-05
2.02691e-05
3.66439e-05
0.000100605
9.51797e-05
4.09912e-05
9.49517e-05
4.09806e-05
3.66529e-05
2.38413e-05
2.38315e-05
8.08814e-05
2.16501e-05
2.16473e-05
2.16506e-05
2.16478e-05
8.06539e-05
0.00010504
0.000129253
7.76036e-05
4.85151e-05
0.000128986
4.84985e-05
0.000105284
0.000104991
0.000129095
7.75142e-05
4.85024e-05
0.000128813
4.84868e-05
0.000105233
0.000104627
4.84702e-05
7.73407e-05
0.000127996
0.000128445
4.84813e-05
0.000104298
0.000104582
4.84608e-05
7.72641e-05
0.000127819
0.000128267
4.84708e-05
0.000104258
8.11102e-05
2.16573e-05
2.16542e-05
2.16549e-05
2.1652e-05
8.13128e-05
0.000102221
0.000124964
4.84863e-05
7.5839e-05
0.00010244
0.000124541
4.85139e-05
0.000102228
0.000124904
4.84825e-05
7.58681e-05
0.000102442
0.000124511
4.851e-05
7.96038e-05
2.16683e-05
2.16657e-05
7.96989e-05
2.16827e-05
2.168e-05
2.38434e-05
2.38372e-05
2.38409e-05
2.38351e-05
8.11961e-05
2.16512e-05
2.16479e-05
2.16534e-05
2.165e-05
8.09564e-05
0.000105608
0.000130055
7.79468e-05
4.85434e-05
4.85221e-05
0.000129825
0.000105819
0.000105568
0.000129969
7.7883e-05
4.85289e-05
4.85082e-05
0.000129723
0.000105772
0.000105206
4.84808e-05
7.76706e-05
0.00012889
4.84985e-05
0.000104878
0.00012931
0.000105165
4.84683e-05
7.76149e-05
0.000128779
4.84853e-05
0.000104845
0.000129204
8.14316e-05
2.16639e-05
2.16603e-05
2.16602e-05
2.16566e-05
8.16194e-05
2.38335e-05
2.38327e-05
2.38323e-05
2.38312e-05
8.04336e-05
2.16479e-05
2.16448e-05
8.06942e-05
2.1648e-05
2.16449e-05
0.000103509
0.000126159
7.65285e-05
4.84494e-05
4.84494e-05
0.000126824
0.000103094
0.000103495
0.000126073
7.65058e-05
4.84387e-05
4.84386e-05
0.000126726
0.000103086
0.000103999
4.84643e-05
0.000128203
7.68315e-05
0.000104402
4.84548e-05
0.000127604
0.000103979
4.84525e-05
0.000128092
7.68e-05
0.000104373
4.84435e-05
0.000127497
8.01748e-05
2.16529e-05
2.16501e-05
2.16484e-05
2.16454e-05
7.9933e-05
3.66447e-05
4.09696e-05
9.48561e-05
0.000100679
4.09801e-05
9.52149e-05
3.66347e-05
2.02883e-05
5.0673e-05
7.98384e-05
7.9742e-05
2.02932e-05
2.02775e-05
7.91988e-05
5.0639e-05
7.94323e-05
2.02735e-05
3.66597e-05
0.000100941
4.10052e-05
9.54537e-05
4.09948e-05
9.55298e-05
3.66697e-05
3.66178e-05
4.09584e-05
9.40189e-05
9.91684e-05
3.66212e-05
4.09535e-05
9.36523e-05
2.02643e-05
5.05476e-05
7.7742e-05
2.02669e-05
7.79889e-05
2.02651e-05
7.85129e-05
5.05566e-05
2.02654e-05
7.82754e-05
3.66157e-05
9.86214e-05
4.09509e-05
9.27895e-05
3.66168e-05
4.09506e-05
9.31824e-05
3.66179e-05
4.09588e-05
9.43615e-05
9.92902e-05
3.66236e-05
4.09531e-05
9.39543e-05
2.02601e-05
5.05338e-05
7.7929e-05
7.82339e-05
2.02605e-05
2.02636e-05
7.88669e-05
5.05541e-05
2.02657e-05
7.85828e-05
3.66135e-05
9.87225e-05
4.09492e-05
9.29867e-05
4.09493e-05
9.34295e-05
3.66132e-05
8.20822e-05
2.16525e-05
2.16557e-05
2.16601e-05
2.16629e-05
8.17657e-05
0.000107063
0.000130832
7.88902e-05
4.86079e-05
4.85772e-05
0.000131224
0.000106823
0.000107018
0.000130789
7.88177e-05
4.86121e-05
0.000131171
4.85823e-05
0.000106777
0.000106877
4.85028e-05
7.85225e-05
0.000131102
4.85377e-05
0.0001314
0.000106422
0.00010684
4.85102e-05
7.84591e-05
0.000131
0.000131326
4.85439e-05
0.000106391
8.2417e-05
2.1682e-05
2.16845e-05
2.16736e-05
2.16762e-05
8.25653e-05
2.38544e-05
2.38432e-05
2.38218e-05
2.3825e-05
8.1029e-05
2.1642e-05
2.16453e-05
8.14047e-05
2.16371e-05
2.16406e-05
0.000104562
0.00012758
7.69769e-05
4.83984e-05
0.000128477
4.84137e-05
0.000103949
0.000104553
0.000127551
7.69664e-05
4.84096e-05
4.84241e-05
0.000128427
0.000103944
0.000105252
4.84666e-05
0.000130246
7.74064e-05
0.000129495
0.000105797
4.84385e-05
0.000105235
4.84752e-05
0.00013016
7.73803e-05
0.000105774
4.8448e-05
0.000129422
8.06299e-05
2.16303e-05
2.1634e-05
2.16314e-05
2.1635e-05
8.02316e-05
2.3824e-05
2.38269e-05
3.66301e-05
4.09589e-05
9.44268e-05
0.000100235
4.09678e-05
9.47606e-05
3.6622e-05
2.0279e-05
5.06298e-05
7.96122e-05
7.94133e-05
2.02834e-05
2.02697e-05
7.88836e-05
5.05981e-05
7.91192e-05
2.02667e-05
3.66436e-05
0.000100711
4.0992e-05
9.53882e-05
4.09812e-05
9.52029e-05
3.66537e-05
3.66162e-05
9.3819e-05
4.09517e-05
9.88612e-05
3.66186e-05
9.34607e-05
4.09483e-05
2.0265e-05
5.05409e-05
7.76954e-05
2.02682e-05
7.79323e-05
2.02653e-05
7.84421e-05
5.05487e-05
2.02653e-05
7.82124e-05
3.66152e-05
9.83327e-05
9.26276e-05
4.09486e-05
3.66173e-05
9.3004e-05
4.0947e-05
3.66099e-05
4.09505e-05
9.39474e-05
9.88997e-05
3.66134e-05
4.09468e-05
9.3547e-05
2.02577e-05
5.05142e-05
7.76679e-05
7.79554e-05
2.02594e-05
2.02595e-05
7.85624e-05
5.0528e-05
2.02605e-05
7.82836e-05
3.66078e-05
9.83535e-05
4.09464e-05
9.26246e-05
4.09451e-05
9.30457e-05
3.6609e-05
3.66428e-05
9.45974e-05
4.09684e-05
0.000100237
9.48926e-05
4.09763e-05
3.66349e-05
2.02874e-05
5.06637e-05
7.97172e-05
7.95708e-05
2.02917e-05
2.02781e-05
7.90807e-05
5.0632e-05
7.92927e-05
2.02749e-05
3.66558e-05
0.000100649
9.53256e-05
4.09978e-05
9.52847e-05
4.09886e-05
3.66647e-05
3.66344e-05
4.09671e-05
9.41313e-05
0.000100033
4.09739e-05
9.43863e-05
3.66294e-05
2.02766e-05
5.0612e-05
7.91527e-05
7.90214e-05
2.02791e-05
2.0271e-05
7.85996e-05
5.05928e-05
7.87733e-05
2.02698e-05
3.66442e-05
0.000100436
4.09937e-05
9.49417e-05
4.09851e-05
9.47432e-05
3.66513e-05
3.6622e-05
9.41534e-05
4.09604e-05
9.90603e-05
3.6626e-05
9.3793e-05
4.09568e-05
2.02641e-05
5.05378e-05
7.79251e-05
7.81989e-05
2.02649e-05
2.02668e-05
7.87763e-05
5.05555e-05
2.02682e-05
7.85172e-05
3.66192e-05
9.8562e-05
9.29335e-05
4.09559e-05
9.33219e-05
4.0955e-05
3.66196e-05
3.66227e-05
4.09604e-05
9.37363e-05
9.89104e-05
3.6624e-05
4.09579e-05
9.34236e-05
2.02682e-05
5.05565e-05
7.77074e-05
7.79028e-05
2.02727e-05
2.02678e-05
7.83429e-05
5.05596e-05
2.02672e-05
7.81448e-05
3.66224e-05
9.84369e-05
4.09587e-05
9.26952e-05
4.09569e-05
9.30193e-05
3.66256e-05
8.16702e-05
2.16432e-05
2.16474e-05
2.16489e-05
2.16529e-05
8.13538e-05
0.000106662
0.000130806
7.84139e-05
4.85614e-05
4.85298e-05
0.000131036
0.000106743
0.000106627
0.000130689
7.83796e-05
4.85717e-05
0.000130911
4.85414e-05
0.000106688
0.000106107
4.84637e-05
7.80559e-05
0.000130007
4.84934e-05
0.000130625
0.00010566
0.000106083
4.84777e-05
7.80344e-05
0.000129921
0.000130521
4.85063e-05
0.000105642
8.19815e-05
2.16677e-05
2.16713e-05
2.16604e-05
2.16643e-05
8.22616e-05
2.38441e-05
2.38351e-05
2.38191e-05
2.382e-05
8.06423e-05
2.16353e-05
2.16396e-05
8.10022e-05
2.16325e-05
2.16369e-05
0.000103851
0.000126482
7.65664e-05
4.83899e-05
0.000127353
4.83972e-05
0.000103273
0.00010386
0.000126518
7.66089e-05
4.84071e-05
4.84139e-05
0.000127354
0.000103288
0.000104507
4.84344e-05
0.000129128
7.69654e-05
0.000128349
0.000105045
4.84136e-05
0.000104506
4.84496e-05
0.000129065
7.69901e-05
0.000105037
4.84296e-05
0.000128316
8.02712e-05
2.16303e-05
2.16346e-05
2.16297e-05
2.1634e-05
7.99081e-05
2.38239e-05
2.38246e-05
3.66345e-05
9.4219e-05
4.09654e-05
9.98257e-05
9.44932e-05
4.09709e-05
3.66289e-05
2.02812e-05
5.06311e-05
7.946e-05
7.92819e-05
2.02848e-05
2.02735e-05
7.8813e-05
5.06029e-05
7.90205e-05
2.02713e-05
3.66452e-05
0.000100208
9.50683e-05
4.09885e-05
9.48709e-05
4.09808e-05
3.66528e-05
3.66345e-05
9.39001e-05
4.09659e-05
9.96802e-05
9.4129e-05
4.09706e-05
3.66312e-05
2.02757e-05
5.0605e-05
7.89978e-05
7.8882e-05
2.02775e-05
2.02715e-05
7.84965e-05
5.05885e-05
7.86535e-05
2.0271e-05
3.66421e-05
0.000100033
9.45992e-05
4.09862e-05
9.44495e-05
4.09793e-05
3.66475e-05
3.66208e-05
9.3805e-05
4.096e-05
9.8748e-05
3.66227e-05
9.34712e-05
4.09585e-05
2.02647e-05
5.0531e-05
7.77416e-05
7.79914e-05
2.02667e-05
2.02658e-05
7.85273e-05
5.05423e-05
2.02664e-05
7.82828e-05
3.662e-05
9.82951e-05
9.26872e-05
4.09615e-05
9.30398e-05
4.09582e-05
3.66223e-05
3.66277e-05
9.35401e-05
4.09616e-05
9.86576e-05
3.66278e-05
9.32578e-05
4.09607e-05
2.02716e-05
5.05619e-05
7.76943e-05
7.78696e-05
2.02772e-05
2.02706e-05
7.82641e-05
5.0563e-05
2.02694e-05
7.80855e-05
3.66286e-05
9.82304e-05
9.2602e-05
4.09658e-05
9.28932e-05
4.0961e-05
3.66352e-05
2.38384e-05
2.38346e-05
2.38375e-05
2.38344e-05
8.02046e-05
2.16493e-05
2.16466e-05
8.04228e-05
2.16513e-05
2.16488e-05
0.000103093
0.000125559
7.63535e-05
4.84659e-05
0.000102763
0.000126111
4.84591e-05
0.000103078
0.000125468
7.63376e-05
4.84607e-05
0.000102755
0.000125993
4.84523e-05
0.000103504
4.84614e-05
0.000127335
7.65992e-05
0.000103858
0.000126786
4.84588e-05
0.000103479
4.84533e-05
0.000127173
7.65659e-05
0.000103827
0.000126642
4.84515e-05
8.00017e-05
2.16621e-05
2.16595e-05
7.98284e-05
2.1654e-05
2.16514e-05
2.38383e-05
2.38355e-05
2.38401e-05
2.38369e-05
2.02868e-05
7.75083e-05
5.05868e-05
2.02765e-05
7.73699e-05
3.66503e-05
9.72536e-05
4.09661e-05
9.23305e-05
3.66341e-05
4.09822e-05
9.20625e-05
5.0601e-05
2.38674e-05
2.38702e-05
0.000203951
0.000204445
0.000207885
0.000205329
0.000205439
0.000195521
0.000192865
0.000138543
0.000162648
0.000162584
0.000183056
0.000162465
0.00016238
0.000138823
0.000133689
0.000156934
0.000156857
0.000175744
0.000134153
0.000156232
0.000156171
0.000139482
0.000163386
0.000163385
0.000183899
0.000163503
0.000163472
0.000139688
0.000136272
0.000180498
0.000159031
0.000158948
0.000159975
0.000159893
0.000135551
0.000141025
0.000164081
0.000164069
0.000184911
0.000164664
0.000164681
0.000140529
0.000138356
0.000183929
0.000161633
0.000161585
0.000162761
0.000162709
0.000137377
0.000140849
0.000163979
0.000163913
0.000184756
0.000164508
0.000164584
0.000140471
0.000137072
0.000181858
0.000159858
0.000159833
0.000161049
0.000161007
0.000136115
0.000135395
0.000178704
0.000157839
0.000157735
0.000134795
0.000158667
0.000158549
0.00020412
0.000204168
0.000208954
0.000205802
0.000205583
0.00019526
0.000192373
0.000204944
0.000204552
0.000208627
0.000205882
0.000205295
0.000196088
0.000193699
0.000204008
0.000204096
0.000207192
0.000204766
0.000204504
0.000195542
0.000193406
0.000208246
0.000205977
0.000205763
0.00020582
0.000205712
0.000197394
0.0001981
0.000209696
0.000206816
0.000206302
0.000206476
0.0002061
0.000197389
0.000198311
0.000209201
0.000206284
0.00020541
0.000206154
0.000205451
0.000197597
0.000197974
0.000207161
0.000204857
0.000204313
0.000204943
0.000204523
0.000196927
0.000197246
0.00017368
0.000139109
0.000178787
0.000145862
0.000139501
0.000178583
0.000173945
0.000163228
0.000149487
0.00010512
0.00012431
0.000149977
0.000124621
0.000162664
0.000163393
0.000124118
0.000104927
0.000150326
0.000150163
0.000124533
0.000163725
0.000173539
0.000145869
0.000139177
0.000177975
0.000139472
0.00017845
0.000173012
0.00017309
0.000177803
0.000138214
0.000145036
0.000177969
0.000138683
0.00017293
0.000162932
0.000149285
0.000104762
0.000124105
0.00014974
0.000124235
0.000162396
0.000162862
0.000123275
0.000104244
0.000149192
0.000149598
0.000123735
0.00016262
0.00017316
0.000145444
0.000177673
0.000138926
0.000178052
0.000139069
0.00017271
0.000137941
0.000182511
0.000161344
0.000161212
0.00016182
0.000161711
0.000137455
0.000138936
0.000183656
0.000162683
0.000162634
0.000138512
0.00016298
0.000162942
0.00013713
0.0001819
0.000161817
0.000161751
0.000137767
0.000161139
0.000161061
0.000173394
0.000138769
0.000179175
0.000146187
0.000139202
0.000178771
0.000173477
0.000162713
0.000148987
0.000104281
0.000124029
0.000124122
0.000149177
0.000162243
0.000162577
0.000123232
0.000103834
0.000148378
0.000123629
0.000148694
0.000162302
0.000173322
0.000146015
0.000139055
0.000178057
0.000139309
0.000178574
0.000172819
0.000174014
0.000139717
0.000179532
0.0001464
0.000139924
0.000179
0.000174528
0.000163386
0.000149571
0.000105217
0.000124416
0.000124776
0.000150072
0.000162796
0.000163602
0.000124496
0.000105114
0.000150568
0.000124839
0.000164099
0.000150297
0.00017379
0.000146144
0.000139332
0.000178223
0.000139695
0.000178762
0.000173212
0.000172056
0.00013794
0.000178728
0.000144286
0.00017296
0.000137271
0.000177902
0.000159577
0.000145086
0.000102025
0.000120505
0.000145933
0.000121145
0.000158558
0.000160737
0.000122512
0.000147592
0.000102579
0.000146944
0.000161495
0.000121956
0.000170988
0.000143214
0.000135486
0.000175507
0.000136287
0.000176751
0.000169727
0.000173341
0.000138819
0.00017918
0.000144603
0.000174141
0.000138083
0.000178415
0.000161358
0.000146798
0.000102818
0.000121275
0.000122039
0.000147801
0.000160256
0.000162685
0.000123651
0.000149725
0.000103528
0.000163421
0.000122999
0.000149018
0.000172169
0.000143498
0.00013611
0.000175986
0.000136998
0.000177233
0.000170861
0.000141264
0.00018514
0.00016551
0.000165475
0.000164949
0.000164972
0.000141188
0.000139486
0.000185551
0.000164877
0.000164827
0.00016418
0.000140276
0.000164126
0.000173297
0.000138341
0.000178746
0.000145826
0.00013882
0.00017874
0.000173106
0.000162733
0.000149022
0.000104156
0.00012406
0.000123958
0.000149073
0.00016235
0.000162412
0.000122986
0.000103702
0.000148189
0.000123377
0.000148535
0.000161986
0.000173393
0.000146045
0.00013917
0.00017815
0.00013928
0.000178667
0.000172935
0.000173865
0.000179032
0.000138832
0.000146029
0.000178935
0.000139393
0.000173858
0.000163383
0.000149538
0.000104954
0.00012443
0.000124617
0.000150028
0.000162781
0.000163375
0.000123608
0.000104404
0.000149494
0.000124137
0.000163203
0.000149911
0.000173799
0.000146159
0.000178269
0.000139389
0.000178813
0.000139637
0.000173228
0.000171437
0.000137502
0.000178021
0.000143623
0.000172452
0.000136829
0.000177057
0.000159186
0.000144867
0.000101913
0.000120286
0.000145706
0.000120909
0.000158165
0.000160353
0.000122261
0.000147379
0.000102459
0.000146715
0.000161149
0.000121709
0.000170329
0.000142563
0.000135073
0.000174543
0.000135855
0.000175838
0.000169038
0.000172046
0.000178288
0.000137902
0.000143756
0.000173114
0.000177307
0.000137145
0.000159901
0.000145418
0.000102132
0.00012043
0.000121171
0.00014645
0.000158731
0.000161291
0.000122762
0.000148499
0.000102808
0.000162169
0.000122099
0.000147694
0.000170806
0.000142662
0.000174711
0.000135211
0.000176041
0.00013608
0.000169422
0.000172633
0.000178193
0.000137886
0.000145433
0.00017823
0.000138263
0.000172346
0.000161985
0.000148412
0.00010369
0.000123536
0.00014825
0.000123355
0.000161983
0.000161564
0.000122481
0.00010327
0.000147306
0.000147708
0.000122828
0.000161072
0.00017282
0.000145676
0.000177798
0.000138815
0.000178225
0.000138776
0.000172598
0.00017261
0.000138275
0.000178289
0.000143961
0.000173475
0.00013761
0.000177451
0.000160963
0.000146623
0.000102725
0.000121119
0.000159901
0.000147591
0.000121823
0.000162228
0.000123323
0.000149456
0.0001034
0.00016295
0.00014877
0.000122722
0.000171521
0.000142971
0.000135819
0.000175186
0.000170258
0.000136616
0.000176375
0.000170847
0.000177636
0.000137143
0.000143552
0.000171791
0.000176755
0.000136561
0.000158476
0.000144253
0.000101664
0.00012012
0.000120648
0.000144986
0.000157563
0.000159488
0.000121828
0.000146512
0.000102134
0.000160271
0.000121347
0.000145871
0.000169885
0.000142606
0.000174522
0.000135024
0.0001757
0.000135698
0.000168707
0.000140581
0.000184884
0.000164501
0.000164424
0.000164555
0.000164631
0.000139967
0.000138178
0.000183628
0.000163385
0.000163316
0.000162529
0.000139012
0.000162463
0.00017202
0.000177309
0.000137339
0.000144644
0.000177584
0.000137698
0.000171617
0.000161536
0.000148148
0.000103478
0.000123135
0.000147945
0.000122971
0.000161667
0.000161064
0.000122128
0.000103066
0.000146944
0.000147372
0.000122463
0.000160526
0.000172283
0.00014515
0.000177546
0.000138365
0.000177751
0.000138226
0.000172294
0.000171288
0.000177179
0.000137402
0.000143168
0.000172299
0.00017626
0.000136761
0.000159596
0.00014536
0.000102129
0.000120426
0.000158521
0.000146321
0.000121079
0.00016086
0.000122503
0.000148246
0.000102759
0.000161683
0.000147492
0.00012192
0.000170211
0.000142246
0.000174007
0.000135091
0.000168948
0.000175192
0.000135831
0.000170053
0.000176681
0.000136633
0.000142899
0.00017103
0.000175753
0.000136092
0.000158019
0.000144019
0.000101553
0.000119935
0.000120419
0.000144708
0.000157162
0.00015896
0.00012151
0.000146161
0.00010199
0.000159732
0.000121063
0.000145542
0.000169147
0.000142024
0.000173599
0.000134683
0.000174738
0.000135296
0.000168032
0.000136133
0.000179892
0.000160411
0.000160272
0.000136729
0.000159687
0.00015955
0.000155757
0.000143438
0.000119463
0.000100592
0.000142795
0.000156589
0.000118999
0.000166548
0.000140078
0.000173242
0.000134156
0.00017205
0.000167641
0.000133538
0.000143271
0.000100584
0.000142681
0.000123728
0.000140137
0.000140139
0.000137738
0.000126567
0.000143275
0.000143274
0.000140165
0.000129535
0.000146353
0.000146355
0.000142533
0.000132666
0.000149408
0.00014941
0.000144861
0.000135875
0.000152389
0.000152388
0.000147119
0.000139229
0.000155347
0.000155351
0.000149349
0.000142632
0.000158231
0.000158222
0.000151504
0.000146032
0.000161
0.000161007
0.000153575
0.000149575
0.00016381
0.000163812
0.000155659
0.000153155
0.000166488
0.000166472
0.00015764
0.000156656
0.00016907
0.000169083
0.000159536
0.000160187
0.00017169
0.000171684
0.000161443
0.000163643
0.000174087
0.000174066
0.000163203
0.000167491
0.000176614
0.000176632
0.000165041
0.000170406
0.000178758
0.000178764
0.000166562
0.000174274
0.00018129
0.000181216
0.000168397
0.000177539
0.000183202
0.000183383
0.000169848
0.000180859
0.0001856
0.00018537
0.0001714
0.00018408
0.000187294
0.000187273
0.000172587
0.000186122
0.000188793
0.000189116
0.000173909
0.000191008
0.000192206
0.000191863
0.000176191
0.000195286
0.000193705
0.000193883
0.000177121
0.000194017
0.000193542
0.000193242
0.000176432
0.00019876
0.000196385