/*--------------------------------*- C++ -*----------------------------------*\
| =========                 |                                                 |
| \\      /  F ield         | OpenFOAM: The Open Source CFD Toolbox           |
|  \\    /   O peration     | Version:  v1906                                 |
|   \\  /    A nd           | Web:      www.OpenFOAM.com                      |
|    \\/     M anipulation  |                                                 |
\*---------------------------------------------------------------------------*/
FoamFile
{
    version     2.0;
    format      ascii;
    class       volScalarField;
    location    "150";
    object      p;
}
// * * * * * * * * * * * * * * * * * * * * * * * * * * * * * * * * * * * * * //

dimensions      [0 2 -2 0 0 0 0];


internalField   nonuniform List<scalar> 
42616
(
0.003548
0.00354784
0.00354783
0.00355063
0.00349442
0.00349456
0.00349456
0.00349677
0.00344316
0.00344319
0.00344319
0.0034455
0.00339124
0.00339121
0.00339121
0.00339349
0.00334017
0.00334011
0.00334011
0.00334235
0.00329046
0.00329041
0.00329041
0.00329261
0.00324218
0.00324215
0.00324215
0.0032443
0.00319519
0.00319518
0.00319518
0.0031973
0.0031493
0.0031493
0.0031493
0.00315139
0.0031043
0.0031043
0.0031043
0.00310637
0.00306002
0.00306003
0.00306003
0.00306208
0.00301634
0.00301635
0.00301636
0.00301837
0.00297318
0.00297319
0.00297319
0.00297518
0.00293047
0.00293049
0.00293048
0.00293246
0.0028882
0.00288821
0.00288821
0.00289017
0.00284633
0.00284634
0.00284634
0.00284828
0.00280484
0.00280485
0.00280485
0.00280678
0.00276371
0.00276371
0.00276371
0.00276563
0.00272291
0.00272291
0.00272291
0.00272481
0.00268242
0.00268242
0.00268242
0.00268431
0.00264221
0.00264222
0.00264222
0.00264409
0.00356137
0.00356156
0.00356156
0.00356136
0.00356156
0.00356156
0.00356229
0.00356229
0.00356229
0.00356229
0.00356155
0.00356156
0.00356136
0.00356156
0.00356155
0.00356137
0.00355063
0.00350445
0.00354783
0.00354783
0.00350695
0.00350695
0.00355063
0.00350445
0.00354783
0.00354783
0.00350695
0.00350695
0.00354783
0.00350695
0.00350695
0.00355063
0.00350445
0.00354783
0.00350695
0.00350695
0.00350445
0.00349677
0.00345353
0.00349456
0.00349456
0.00345619
0.00345619
0.00349677
0.00345353
0.00349456
0.00349456
0.00345619
0.00345619
0.00349456
0.00345619
0.00345619
0.00349677
0.00345352
0.00349456
0.00345619
0.00345619
0.00345353
0.0034455
0.00340148
0.00344319
0.00344319
0.00340416
0.00340416
0.0034455
0.00340148
0.00344319
0.00344319
0.00340416
0.00340416
0.00344319
0.00340416
0.00340416
0.00344549
0.00340148
0.00344319
0.00340416
0.00340416
0.00340148
0.00339349
0.00335015
0.00339121
0.00339121
0.00335277
0.00335277
0.00339349
0.00335015
0.00339121
0.00339121
0.00335277
0.00335277
0.00339121
0.00335277
0.00335277
0.00339349
0.00335015
0.00339121
0.00335277
0.00335277
0.00335015
0.00334235
0.00330019
0.00334011
0.00334011
0.0033027
0.0033027
0.00334235
0.00330019
0.00334011
0.00334011
0.0033027
0.0033027
0.00334011
0.0033027
0.0033027
0.00334235
0.00330019
0.00334011
0.0033027
0.0033027
0.00330018
0.00329261
0.00325167
0.00329041
0.00329041
0.00325408
0.00325408
0.00329261
0.00325167
0.00329041
0.00329041
0.00325408
0.00325408
0.00329041
0.00325408
0.00325408
0.00329261
0.00325167
0.00329041
0.00325408
0.00325408
0.00325167
0.0032443
0.00320448
0.00324215
0.00324215
0.00320681
0.00320681
0.0032443
0.00320448
0.00324215
0.00324215
0.00320681
0.00320681
0.00324215
0.00320681
0.00320681
0.0032443
0.00320448
0.00324215
0.00320681
0.00320681
0.00320448
0.0031973
0.00315842
0.00319518
0.00319518
0.00316067
0.00316067
0.0031973
0.00315842
0.00319518
0.00319518
0.00316067
0.00316067
0.00319518
0.00316068
0.00316067
0.0031973
0.00315842
0.00319518
0.00316068
0.00316067
0.00315842
0.00315139
0.00311328
0.00314929
0.00314929
0.00311548
0.00311548
0.00315139
0.00311328
0.0031493
0.00314929
0.00311548
0.00311548
0.0031493
0.00311548
0.00311548
0.00315139
0.00311328
0.0031493
0.00311548
0.00311548
0.00311328
0.00310637
0.00306889
0.0031043
0.0031043
0.00307104
0.00307104
0.00310637
0.00306889
0.0031043
0.0031043
0.00307104
0.00307104
0.0031043
0.00307104
0.00307104
0.00310637
0.00306889
0.0031043
0.00307104
0.00307104
0.00306889
0.00306208
0.0030251
0.00306003
0.00306003
0.00302722
0.00302722
0.00306207
0.0030251
0.00306003
0.00306003
0.00302722
0.00302722
0.00306003
0.00302722
0.00302722
0.00306208
0.0030251
0.00306003
0.00302722
0.00302722
0.0030251
0.00301837
0.00298184
0.00301635
0.00301635
0.00298393
0.00298393
0.00301837
0.00298183
0.00301635
0.00301635
0.00298393
0.00298393
0.00301635
0.00298394
0.00298394
0.00301838
0.00298184
0.00301636
0.00298394
0.00298394
0.00298183
0.00297518
0.00293905
0.00297319
0.00297319
0.00294112
0.00294112
0.00297518
0.00293905
0.00297319
0.00297319
0.00294112
0.00294112
0.00297319
0.00294112
0.00294112
0.00297518
0.00293905
0.00297319
0.00294112
0.00294112
0.00293905
0.00293246
0.00289671
0.00293048
0.00293048
0.00289874
0.00289874
0.00293246
0.00289671
0.00293048
0.00293048
0.00289874
0.00289874
0.00293049
0.00289874
0.00289874
0.00293246
0.00289671
0.00293048
0.00289874
0.00289874
0.00289671
0.00289017
0.00285478
0.00288821
0.00288821
0.00285677
0.00285677
0.00289017
0.00285478
0.00288821
0.00288821
0.00285677
0.00285677
0.00288821
0.00285677
0.00285677
0.00289017
0.00285478
0.00288821
0.00285677
0.00285677
0.00285478
0.00284828
0.00281324
0.00284634
0.00284634
0.00281519
0.00281519
0.00284828
0.00281324
0.00284634
0.00284634
0.00281519
0.00281519
0.00284634
0.00281519
0.00281519
0.00284828
0.00281324
0.00284634
0.00281519
0.00281519
0.00281323
0.00280678
0.00277205
0.00280485
0.00280485
0.00277396
0.00277396
0.00280678
0.00277205
0.00280485
0.00280485
0.00277396
0.00277396
0.00280485
0.00277396
0.00277396
0.00280678
0.00277205
0.00280485
0.00277396
0.00277396
0.00277205
0.00276563
0.0027312
0.00276371
0.00276371
0.00273308
0.00273308
0.00276563
0.0027312
0.00276371
0.00276371
0.00273308
0.00273308
0.00276371
0.00273308
0.00273308
0.00276563
0.0027312
0.00276371
0.00273308
0.00273308
0.00273119
0.00272481
0.00269066
0.00272291
0.00272291
0.00269251
0.00269251
0.00272481
0.00269066
0.00272291
0.00272291
0.00269251
0.00269251
0.00272291
0.00269251
0.00269251
0.00272481
0.00269066
0.00272291
0.00269251
0.00269251
0.00269066
0.00268431
0.00265041
0.00268242
0.00268242
0.00265224
0.00265224
0.00268431
0.00265041
0.00268242
0.00268242
0.00265224
0.00265224
0.00268242
0.00265224
0.00265224
0.00268431
0.00265041
0.00268242
0.00265224
0.00265224
0.00265041
0.00264409
0.00264222
0.00264222
0.00264409
0.00264222
0.00264222
0.00264222
0.00264409
0.00264222
0.00357052
0.00358048
0.0035751
0.0035751
0.00359759
0.00358447
0.00361298
0.00357839
0.00359754
0.00358447
0.00357839
0.00361298
0.00358892
0.00361687
0.00361691
0.00352948
0.00352961
0.00354794
0.00352776
0.00350772
0.00352672
0.00352946
0.00352953
0.00354791
0.00352774
0.003548
0.003548
0.003548
0.00350684
0.00350684
0.00350683
0.00350684
0.00352817
0.00354516
0.00354808
0.00353236
0.00355031
0.00352914
0.00353299
0.00350784
0.00352676
0.00352816
0.00354808
0.00354503
0.00353235
0.00355029
0.00353299
0.0035291
0.00354155
0.00354151
0.0035292
0.00352943
0.00352943
0.00347979
0.00349766
0.00349868
0.00347888
0.00349703
0.00347842
0.00347979
0.00349765
0.00349868
0.00347888
0.00349442
0.00349442
0.00349442
0.00345613
0.00345613
0.00345613
0.00345613
0.00347889
0.00349815
0.0034945
0.00348194
0.00349745
0.00347935
0.00348188
0.00349704
0.00347842
0.00347889
0.00349449
0.00349814
0.00348194
0.00349744
0.00348188
0.00347935
0.00349842
0.00349843
0.00347931
0.00347948
0.00347948
0.00342753
0.00344612
0.00344697
0.00342675
0.00344583
0.00342651
0.00342753
0.00344612
0.00344697
0.00342675
0.00344316
0.00344316
0.00344316
0.00340418
0.00340418
0.00340418
0.00340418
0.00342701
0.0034465
0.00344316
0.00343017
0.00344621
0.00342718
0.00343016
0.00344583
0.00342651
0.00342701
0.00344316
0.00344649
0.00343017
0.0034462
0.00343015
0.00342717
0.00344658
0.00344657
0.00342749
0.00342713
0.00342712
0.00337541
0.0033939
0.00339459
0.0033748
0.00339373
0.00337464
0.00337541
0.0033939
0.00339459
0.0033748
0.00339124
0.00339124
0.00339124
0.00335282
0.00335282
0.00335282
0.00335282
0.00337513
0.00339421
0.00339121
0.00337832
0.00339411
0.00337518
0.00337833
0.00339373
0.00337464
0.00337513
0.00339121
0.00339421
0.00337832
0.00339411
0.00337833
0.00337517
0.0033942
0.0033942
0.00337567
0.00337506
0.00337506
0.00332453
0.00334267
0.00334318
0.00332409
0.00334256
0.00332396
0.00332453
0.00334267
0.00334318
0.00332409
0.00334017
0.00334017
0.00334016
0.00330275
0.00330275
0.00330275
0.00330275
0.00332442
0.00334291
0.00334012
0.00332755
0.00334288
0.00332442
0.00332756
0.00334256
0.00332397
0.00332442
0.00334012
0.00334291
0.00332755
0.00334288
0.00332756
0.00332442
0.0033429
0.0033429
0.00332498
0.0033243
0.0033243
0.00327518
0.00329289
0.00329325
0.00327487
0.00329281
0.00327475
0.00327518
0.00329289
0.00329325
0.00327487
0.00329046
0.00329046
0.00329046
0.00325412
0.00325412
0.00325412
0.00325412
0.00327517
0.00329308
0.00329041
0.00327821
0.00329306
0.00327517
0.00327821
0.0032928
0.00327476
0.00327517
0.00329041
0.00329308
0.00327821
0.00329306
0.00327821
0.00327517
0.00329308
0.00329308
0.00327575
0.00327505
0.00327505
0.00322729
0.00324458
0.00324483
0.00322707
0.0032445
0.00322697
0.00322729
0.00324458
0.00324482
0.00322707
0.00324218
0.00324218
0.00324218
0.00320683
0.00320683
0.00320683
0.00320683
0.00322735
0.00324472
0.00324214
0.00323029
0.00324471
0.00322734
0.00323028
0.0032445
0.00322697
0.00322735
0.00324214
0.00324472
0.00323029
0.00324471
0.00323028
0.00322734
0.00324475
0.00324475
0.00322792
0.00322723
0.00322723
0.00318066
0.00319757
0.00319775
0.0031805
0.0031975
0.0031804
0.00318066
0.00319757
0.00319775
0.0031805
0.0031952
0.00319519
0.00319519
0.00316068
0.00316068
0.00316068
0.00316068
0.00318076
0.00319769
0.00319516
0.00318361
0.00319768
0.00318076
0.00318359
0.00319749
0.0031804
0.00318076
0.00319516
0.00319768
0.00318361
0.00319767
0.00318359
0.00318076
0.00319772
0.00319772
0.00318132
0.00318065
0.00318064
0.00313508
0.00315166
0.0031518
0.00313494
0.00315159
0.00313485
0.00313508
0.00315166
0.0031518
0.00313494
0.0031493
0.0031493
0.0031493
0.00311548
0.00311548
0.00311548
0.00311548
0.00313521
0.00315176
0.00314927
0.00313797
0.00315175
0.0031352
0.00313795
0.00315159
0.00313484
0.00313521
0.00314927
0.00315176
0.00313797
0.00315175
0.00313795
0.0031352
0.0031518
0.0031518
0.00313574
0.00313508
0.00313508
0.00309033
0.00310665
0.00310676
0.00309022
0.00310658
0.00309012
0.00309033
0.00310665
0.00310676
0.00309022
0.0031043
0.0031043
0.0031043
0.00307103
0.00307103
0.00307103
0.00307103
0.00309048
0.00310673
0.00310428
0.00309317
0.00310672
0.00309047
0.00309315
0.00310658
0.00309012
0.00309048
0.00310428
0.00310673
0.00309317
0.00310672
0.00309315
0.00309047
0.00310677
0.00310677
0.003091
0.00309034
0.00309034
0.00304627
0.00306235
0.00306245
0.00304615
0.00306228
0.00304606
0.00304627
0.00306235
0.00306245
0.00304615
0.00306002
0.00306002
0.00306002
0.00302721
0.00302721
0.00302721
0.00302721
0.00304644
0.00306242
0.00306001
0.00304906
0.00306242
0.00304641
0.00304904
0.00306228
0.00304606
0.00304644
0.00306001
0.00306242
0.00304906
0.00306242
0.00304904
0.00304641
0.00306246
0.00306246
0.00304692
0.00304627
0.00304627
0.00300276
0.00301865
0.00301875
0.00300265
0.00301859
0.00300256
0.00300277
0.00301865
0.00301875
0.00300265
0.00301634
0.00301634
0.00301634
0.00298392
0.00298392
0.00298392
0.00298392
0.00300296
0.00301871
0.00301633
0.00300552
0.00301872
0.00300291
0.0030055
0.00301859
0.00300256
0.00300296
0.00301633
0.00301871
0.00300552
0.00301873
0.0030055
0.00300291
0.00301875
0.00301875
0.00300341
0.00300275
0.00300276
0.00295976
0.00297546
0.00297556
0.00295964
0.0029754
0.00295956
0.00295976
0.00297546
0.00297556
0.00295964
0.00297318
0.00297318
0.00297318
0.00294111
0.00294111
0.00294111
0.00294111
0.00295997
0.00297552
0.00297317
0.00296247
0.00297554
0.00295989
0.00296246
0.00297541
0.00295956
0.00295997
0.00297317
0.00297552
0.00296247
0.00297554
0.00296246
0.00295989
0.00297555
0.00297555
0.00296038
0.00295973
0.00295973
0.0029172
0.00293274
0.00293284
0.00291707
0.00293269
0.002917
0.0029172
0.00293274
0.00293284
0.00291707
0.00293047
0.00293047
0.00293047
0.00289873
0.00289873
0.00289873
0.00289873
0.00291743
0.00293279
0.00293047
0.00291988
0.00293283
0.00291733
0.00291987
0.00293269
0.002917
0.00291743
0.00293047
0.00293279
0.00291988
0.00293283
0.00291987
0.00291733
0.00293282
0.00293282
0.00291783
0.00291716
0.00291716
0.00287506
0.00289044
0.00289055
0.00287493
0.0028904
0.00287487
0.00287506
0.00289044
0.00289055
0.00287493
0.0028882
0.0028882
0.0028882
0.00285676
0.00285676
0.00285676
0.00285676
0.00287531
0.00289048
0.0028882
0.00287771
0.00289054
0.00287518
0.0028777
0.00289039
0.00287486
0.0028753
0.0028882
0.00289048
0.00287771
0.00289054
0.0028777
0.00287518
0.00289051
0.00289051
0.0028757
0.00287501
0.00287501
0.00283331
0.00284855
0.00284866
0.00283318
0.00284851
0.00283312
0.00283331
0.00284855
0.00284866
0.00283318
0.00284633
0.00284633
0.00284633
0.00281518
0.00281518
0.00281518
0.00281518
0.00283358
0.00284859
0.00284633
0.00283593
0.00284866
0.00283342
0.00283593
0.00284851
0.00283312
0.00283358
0.00284633
0.00284859
0.00283593
0.00284865
0.00283593
0.00283342
0.00284861
0.00284861
0.00283396
0.00283325
0.00283325
0.00279194
0.00280705
0.00280715
0.00279181
0.00280701
0.00279175
0.00279194
0.00280705
0.00280715
0.00279181
0.00280484
0.00280484
0.00280484
0.00277396
0.00277396
0.00277396
0.00277396
0.00279222
0.00280707
0.00280485
0.00279453
0.00280715
0.00279205
0.00279453
0.00280701
0.00279175
0.00279222
0.00280485
0.00280707
0.00279453
0.00280715
0.00279453
0.00279204
0.0028071
0.0028071
0.0027926
0.00279187
0.00279187
0.00275092
0.00276591
0.002766
0.00275079
0.00276587
0.00275074
0.00275092
0.0027659
0.002766
0.00275079
0.00276371
0.0027637
0.0027637
0.00273307
0.00273307
0.00273307
0.00273307
0.0027512
0.00276592
0.00276371
0.00275348
0.002766
0.00275102
0.00275348
0.00276587
0.00275074
0.0027512
0.00276371
0.00276592
0.00275348
0.002766
0.00275348
0.00275102
0.00276595
0.00276595
0.00275158
0.00275084
0.00275084
0.00271022
0.00272511
0.00272519
0.00271009
0.00272506
0.00271006
0.00271022
0.0027251
0.00272519
0.0027101
0.0027229
0.0027229
0.0027229
0.00269251
0.00269251
0.00269251
0.00269251
0.00271051
0.00272511
0.00272291
0.00271276
0.00272519
0.00271032
0.00271276
0.00272507
0.00271005
0.00271052
0.00272291
0.00272511
0.00271276
0.00272519
0.00271276
0.00271032
0.00272513
0.00272514
0.00271089
0.00271014
0.00271014
0.00266983
0.0026846
0.00268469
0.00266971
0.00268457
0.00266968
0.00266982
0.0026846
0.00268469
0.00266971
0.00268241
0.00268242
0.00268241
0.00265224
0.00265224
0.00265224
0.00265224
0.00267012
0.0026846
0.00268242
0.00267234
0.00268469
0.00266992
0.00267234
0.00268458
0.00266966
0.00267012
0.00268242
0.00268461
0.00267234
0.00268469
0.00267235
0.00266992
0.00268464
0.00268464
0.0026705
0.00266975
0.00266975
0.00262971
0.0026444
0.00264448
0.00262959
0.00264436
0.00262956
0.00264439
0.00264448
0.0026296
0.00264221
0.00264221
0.00264221
0.00263
0.00264439
0.00264222
0.00263221
0.00264446
0.0026298
0.00263221
0.00264437
0.00263
0.00264222
0.00264439
0.00264447
0.00263221
0.00264442
0.00264442
0.00263039
0.00262963
0.00262963
0.00358896
0.00361697
0.00361699
0.00357067
0.00361658
0.00357074
0.00361659
0.00358562
0.00356983
0.00356984
0.00361114
0.00361115
0.00359758
0.00358447
0.00361289
0.0035784
0.0035976
0.00358447
0.00361294
0.0035784
0.00360136
0.00356523
0.00361329
0.00356306
0.00360137
0.00356518
0.00361335
0.00356307
0.00359299
0.00358163
0.00356497
0.00356362
0.00360743
0.0035765
0.00356319
0.003593
0.00358164
0.00356493
0.00356362
0.00360745
0.0035765
0.0035632
0.00358896
0.00361703
0.00361714
0.00357051
0.00361663
0.00358562
0.00356981
0.00356981
0.00361117
0.00361138
0.00357053
0.0036168
0.00359758
0.00358447
0.00361291
0.0035784
0.00359758
0.00358447
0.0035784
0.00361287
0.00360137
0.00356516
0.00361332
0.00356305
0.00359299
0.00358163
0.00356493
0.00356362
0.00360744
0.0035765
0.00356318
0.00360136
0.0035652
0.00361327
0.00356305
0.00359299
0.00358163
0.00356362
0.00356496
0.0035765
0.00360739
0.00356318
0.00357052
0.00358048
0.0035751
0.0035751
0.00357052
0.00358048
0.0035751
0.00357509
0.00357051
0.00358046
0.00357509
0.00357509
0.0035692
0.00357811
0.00356068
0.00356068
0.00357345
0.00357345
0.00355905
0.0035692
0.00357811
0.00356068
0.00356067
0.00357345
0.00357344
0.00355905
0.0035692
0.00357811
0.00356068
0.00356068
0.00357344
0.00357344
0.00355905
0.0035692
0.00357809
0.00356067
0.00356067
0.00357344
0.00357344
0.00355905
0.00359757
0.00358444
0.00357838
0.00361278
0.00359298
0.00358164
0.00356513
0.00356361
0.00360772
0.00357649
0.00356317
0.00360137
0.0035653
0.00361379
0.00356302
0.00359298
0.00358161
0.00356361
0.00356499
0.00357649
0.00360735
0.00356318
0.00360137
0.00356523
0.00361319
0.00356303
0.00358896
0.00361695
0.00361704
0.00357053
0.00361653
0.00358562
0.00356986
0.00356986
0.00361109
0.00361116
0.0035705
0.00361666
0.00359754
0.00358444
0.00357838
0.00361284
0.00359296
0.00358163
0.00356362
0.00356496
0.00357649
0.00360747
0.00356318
0.00359295
0.00358161
0.00356361
0.00356498
0.00357648
0.00360738
0.00356318
0.0036013
0.00356521
0.00361339
0.00356304
0.0036013
0.00356525
0.00361324
0.00356304
0.00358559
0.00356981
0.00356982
0.00361107
0.00361107
0.00357061
0.00361647
0.00357073
0.00361652
0.00350776
0.0035267
0.00350787
0.00352668
0.00354151
0.0035415
0.00352922
0.00352944
0.00352943
0.00350347
0.00351973
0.00350347
0.00351979
0.00352157
0.00350497
0.00350497
0.00352244
0.00352245
0.00352947
0.00352958
0.00354795
0.00352777
0.00352818
0.003545
0.00354809
0.00353235
0.0035503
0.00352911
0.00353299
0.00352817
0.00354501
0.00354809
0.00353235
0.00355031
0.00352911
0.00353299
0.00352298
0.00350415
0.00352089
0.00350517
0.00352297
0.00350415
0.00352089
0.00350517
0.00352168
0.00351931
0.00350471
0.00350693
0.00352225
0.00351951
0.00350397
0.00352167
0.00351931
0.00350471
0.00350693
0.00352226
0.00351951
0.00350397
0.0035415
0.00354158
0.00352923
0.00352944
0.00352944
0.00350798
0.00352672
0.00350346
0.00351974
0.00352157
0.00350498
0.00350498
0.00352243
0.00352244
0.00350349
0.00351976
0.00352816
0.00354499
0.00354808
0.00353235
0.00355028
0.0035291
0.00353298
0.00352947
0.00352958
0.00354791
0.00352779
0.00352817
0.00354808
0.00354502
0.00353235
0.00355029
0.00353299
0.00352912
0.00352296
0.00350415
0.00352091
0.00350517
0.00352167
0.00351931
0.00350471
0.00350693
0.00352226
0.00351951
0.00350397
0.00352296
0.00350415
0.0035209
0.00350518
0.00352167
0.00351931
0.00350693
0.00350471
0.00351951
0.00352226
0.00350397
0.00352947
0.00352996
0.00354794
0.00352778
0.00352817
0.00354808
0.00354504
0.00353235
0.0035503
0.00353299
0.00352911
0.00352946
0.00352967
0.00354793
0.00352777
0.00352167
0.00351931
0.00350472
0.00350693
0.00352228
0.00351951
0.00350398
0.00352297
0.00350416
0.00352089
0.00350518
0.00352167
0.00351931
0.00350693
0.00350471
0.00351951
0.00352226
0.00350397
0.00352296
0.00350416
0.00352088
0.00350517
0.00354155
0.00354156
0.0035292
0.00352945
0.00352942
0.00350787
0.00352668
0.00350347
0.00351978
0.00352157
0.00350497
0.00350497
0.00352245
0.00352244
0.00350346
0.00351973
0.00352816
0.00354808
0.003545
0.00353235
0.00355029
0.00353298
0.00352911
0.00352947
0.00352959
0.00354791
0.00352775
0.00352947
0.00352962
0.00354791
0.00352777
0.00352167
0.00351931
0.00350693
0.00350471
0.0035195
0.00352226
0.00350397
0.00352167
0.00351931
0.00350693
0.0035047
0.0035195
0.00352225
0.00350397
0.00352296
0.00350415
0.00352091
0.00350517
0.00352296
0.00350414
0.00352089
0.00350517
0.00350788
0.00352669
0.00350785
0.00352671
0.00352157
0.00350497
0.00350497
0.00352244
0.00352244
0.00350348
0.00351973
0.00350345
0.00351975
0.00349704
0.00347842
0.00349702
0.00347842
0.00349843
0.00349843
0.00347931
0.00347948
0.00347948
0.0034526
0.00347176
0.0034526
0.00347175
0.00347139
0.00345339
0.00345339
0.00347275
0.00347275
0.00347979
0.00349766
0.00349868
0.00347889
0.00347889
0.00349814
0.00349449
0.00348194
0.00349744
0.00347935
0.00348188
0.00347889
0.00349815
0.00349449
0.00348194
0.00349744
0.00347936
0.00348188
0.00347309
0.00345292
0.00347218
0.00345377
0.00347309
0.00345292
0.00347218
0.00345377
0.00347213
0.00346912
0.00345337
0.00345615
0.00347259
0.00346907
0.00345308
0.00347213
0.00346912
0.00345337
0.00345615
0.00347259
0.00346907
0.00345308
0.00349843
0.00349844
0.00347931
0.00347948
0.00347949
0.00349706
0.00347843
0.0034526
0.00347176
0.0034714
0.00345339
0.00345339
0.00347275
0.00347275
0.0034526
0.00347176
0.00347888
0.00349814
0.00349449
0.00348194
0.00349744
0.00347935
0.00348188
0.00347979
0.00349766
0.00349868
0.00347888
0.00347888
0.00349449
0.00349814
0.00348194
0.00349744
0.00348187
0.00347935
0.00347309
0.00345292
0.00347218
0.00345377
0.00347212
0.00346912
0.00345337
0.00345615
0.00347259
0.00346907
0.00345308
0.00347309
0.00345292
0.00347217
0.00345377
0.00347212
0.00346912
0.00345615
0.00345336
0.00346907
0.00347258
0.00345308
0.0034798
0.00349768
0.00349868
0.00347889
0.00347889
0.00349449
0.00349814
0.00348194
0.00349744
0.00348188
0.00347935
0.00347979
0.00349766
0.00349868
0.00347889
0.00347213
0.00346912
0.00345337
0.00345615
0.00347259
0.00346907
0.00345308
0.00347309
0.00345293
0.00347219
0.00345377
0.00347213
0.00346912
0.00345615
0.00345337
0.00346907
0.00347259
0.00345308
0.00347309
0.00345292
0.00347218
0.00345377
0.00349842
0.00349843
0.00347931
0.00347948
0.00347948
0.00349704
0.00347842
0.0034526
0.00347175
0.00347139
0.00345338
0.00345338
0.00347275
0.00347275
0.00345259
0.00347175
0.00347888
0.00349449
0.00349814
0.00348194
0.00349744
0.00348188
0.00347935
0.00347979
0.00349766
0.00349869
0.00347888
0.00347979
0.00349766
0.00349868
0.00347888
0.00347212
0.00346912
0.00345615
0.00345336
0.00346907
0.00347258
0.00345308
0.00347212
0.00346912
0.00345615
0.00345337
0.00346907
0.00347259
0.00345308
0.00347309
0.00345292
0.00347217
0.00345376
0.00347309
0.00345292
0.00347218
0.00345376
0.00349703
0.00347842
0.00349703
0.00347842
0.00347139
0.00345339
0.00345339
0.00347275
0.00347275
0.0034526
0.00347176
0.0034526
0.00347175
0.00344583
0.00342651
0.00344583
0.00342651
0.00344657
0.00344657
0.00342749
0.00342712
0.00342712
0.00340047
0.00341974
0.00340047
0.00341974
0.00341945
0.00340096
0.00340096
0.00342031
0.00342031
0.00342753
0.00344612
0.00344697
0.00342675
0.00342701
0.0034465
0.00344316
0.00343017
0.00344621
0.00342718
0.00343016
0.00342701
0.0034465
0.00344316
0.00343017
0.00344621
0.00342718
0.00343016
0.00342072
0.00340066
0.00341995
0.00340135
0.00342072
0.00340066
0.00341995
0.00340135
0.00342011
0.00341715
0.00340106
0.00340416
0.00342029
0.00341715
0.00340097
0.00342011
0.00341715
0.00340106
0.00340416
0.00342029
0.00341715
0.00340097
0.00344657
0.00344657
0.00342749
0.00342712
0.00342712
0.00344583
0.00342651
0.00340047
0.00341974
0.00341945
0.00340096
0.00340096
0.00342031
0.00342031
0.00340047
0.00341973
0.00342701
0.0034465
0.00344316
0.00343017
0.00344621
0.00342718
0.00343016
0.00342753
0.00344612
0.00344697
0.00342675
0.00342701
0.00344316
0.00344649
0.00343017
0.00344621
0.00343015
0.00342717
0.00342072
0.00340066
0.00341995
0.00340135
0.00342011
0.00341715
0.00340106
0.00340416
0.00342029
0.00341715
0.00340097
0.00342072
0.00340066
0.00341995
0.00340135
0.00342011
0.00341715
0.00340416
0.00340106
0.00341715
0.00342029
0.00340097
0.00342753
0.00344613
0.00344697
0.00342675
0.00342701
0.00344316
0.0034465
0.00343017
0.00344621
0.00343016
0.00342718
0.00342753
0.00344612
0.00344697
0.00342675
0.00342011
0.00341715
0.00340106
0.00340416
0.00342029
0.00341715
0.00340097
0.00342072
0.00340065
0.00341995
0.00340135
0.00342011
0.00341715
0.00340416
0.00340106
0.00341715
0.00342029
0.00340097
0.00342072
0.00340066
0.00341995
0.00340135
0.00344657
0.00344657
0.00342749
0.00342712
0.00342712
0.00344583
0.00342651
0.00340047
0.00341973
0.00341945
0.00340096
0.00340096
0.00342031
0.00342031
0.00340047
0.00341973
0.00342701
0.00344316
0.0034465
0.00343017
0.0034462
0.00343015
0.00342718
0.00342752
0.00344612
0.00344696
0.00342675
0.00342752
0.00344612
0.00344696
0.00342675
0.00342011
0.00341715
0.00340416
0.00340106
0.00341715
0.00342029
0.00340097
0.00342011
0.00341715
0.00340416
0.00340106
0.00341715
0.00342029
0.00340097
0.00342072
0.00340066
0.00341994
0.00340135
0.00342072
0.00340066
0.00341995
0.00340135
0.00344583
0.00342651
0.00344583
0.00342651
0.00341945
0.00340097
0.00340096
0.00342031
0.00342031
0.00340047
0.00341974
0.00340047
0.00341974
0.00339373
0.00337464
0.00339373
0.00337464
0.0033942
0.0033942
0.00337567
0.00337506
0.00337506
0.00334913
0.00336798
0.00334913
0.00336798
0.00336776
0.00334949
0.00334949
0.00336837
0.00336838
0.00337541
0.0033939
0.00339459
0.0033748
0.00337513
0.00339421
0.00339122
0.00337832
0.00339411
0.00337518
0.00337833
0.00337513
0.00339421
0.00339122
0.00337832
0.00339411
0.00337518
0.00337833
0.00336871
0.00334927
0.00336812
0.00334979
0.00336871
0.00334927
0.00336812
0.00334979
0.00336833
0.0033655
0.00334962
0.00335278
0.00336839
0.00336551
0.0033496
0.00336833
0.0033655
0.00334962
0.00335278
0.00336839
0.00336551
0.0033496
0.0033942
0.0033942
0.00337567
0.00337506
0.00337506
0.00339373
0.00337464
0.00334913
0.00336798
0.00336776
0.00334949
0.00334949
0.00336837
0.00336837
0.00334913
0.00336798
0.00337513
0.00339421
0.00339122
0.00337832
0.00339411
0.00337518
0.00337833
0.00337541
0.0033939
0.00339458
0.0033748
0.00337513
0.00339121
0.00339421
0.00337832
0.00339411
0.00337833
0.00337518
0.00336871
0.00334927
0.00336812
0.00334978
0.00336833
0.0033655
0.00334962
0.00335278
0.00336839
0.00336551
0.0033496
0.00336871
0.00334927
0.00336812
0.00334979
0.00336833
0.0033655
0.00335278
0.00334962
0.00336551
0.00336839
0.0033496
0.00337541
0.0033939
0.00339458
0.0033748
0.00337513
0.00339122
0.00339421
0.00337832
0.00339411
0.00337833
0.00337518
0.00337541
0.0033939
0.00339458
0.0033748
0.00336833
0.0033655
0.00334962
0.00335277
0.00336839
0.00336551
0.0033496
0.00336871
0.00334926
0.00336812
0.00334978
0.00336833
0.0033655
0.00335277
0.00334961
0.00336551
0.00336839
0.0033496
0.00336871
0.00334926
0.00336812
0.00334978
0.0033942
0.0033942
0.00337567
0.00337506
0.00337506
0.00339373
0.00337464
0.00334913
0.00336798
0.00336776
0.00334949
0.00334949
0.00336837
0.00336837
0.00334913
0.00336798
0.00337513
0.00339121
0.00339421
0.00337832
0.00339411
0.00337833
0.00337518
0.00337541
0.0033939
0.00339458
0.0033748
0.00337541
0.0033939
0.00339458
0.0033748
0.00336833
0.0033655
0.00335277
0.00334962
0.00336551
0.00336839
0.0033496
0.00336833
0.0033655
0.00335277
0.00334962
0.00336551
0.00336839
0.0033496
0.00336871
0.00334926
0.00336812
0.00334978
0.00336871
0.00334927
0.00336812
0.00334978
0.00339373
0.00337464
0.00339373
0.00337464
0.00336776
0.00334949
0.00334949
0.00336837
0.00336837
0.00334913
0.00336798
0.00334913
0.00336798
0.00334256
0.00332397
0.00334256
0.00332397
0.0033429
0.0033429
0.00332499
0.0033243
0.0033243
0.00329918
0.00331749
0.00329918
0.00331749
0.0033173
0.00329949
0.00329949
0.0033178
0.0033178
0.00332453
0.00334267
0.00334318
0.00332409
0.00332442
0.00334291
0.00334012
0.00332755
0.00334288
0.00332442
0.00332756
0.00332442
0.00334291
0.00334012
0.00332755
0.00334288
0.00332442
0.00332756
0.00331802
0.0032993
0.00331759
0.00329967
0.00331802
0.0032993
0.00331759
0.00329967
0.00331778
0.00331508
0.00329961
0.0033027
0.00331781
0.00331508
0.00329961
0.00331778
0.00331508
0.00329961
0.0033027
0.0033178
0.00331508
0.00329961
0.0033429
0.0033429
0.00332499
0.0033243
0.0033243
0.00334255
0.00332397
0.00329919
0.00331749
0.00331729
0.00329949
0.00329949
0.0033178
0.0033178
0.00329918
0.00331749
0.00332442
0.00334291
0.00334012
0.00332755
0.00334288
0.00332442
0.00332756
0.00332453
0.00334267
0.00334318
0.0033241
0.00332442
0.00334012
0.00334291
0.00332755
0.00334288
0.00332756
0.00332442
0.00331802
0.0032993
0.00331759
0.00329967
0.00331778
0.00331508
0.00329961
0.0033027
0.0033178
0.00331508
0.00329961
0.00331802
0.0032993
0.00331759
0.00329967
0.00331778
0.00331508
0.0033027
0.00329961
0.00331508
0.0033178
0.00329961
0.00332453
0.00334267
0.00334317
0.00332409
0.00332442
0.00334012
0.00334291
0.00332755
0.00334288
0.00332756
0.00332442
0.00332453
0.00334267
0.00334317
0.00332409
0.00331778
0.00331508
0.00329961
0.0033027
0.0033178
0.00331508
0.00329961
0.00331802
0.0032993
0.00331759
0.00329967
0.00331778
0.00331508
0.0033027
0.00329961
0.00331508
0.0033178
0.00329961
0.00331802
0.0032993
0.00331759
0.00329967
0.0033429
0.0033429
0.00332499
0.0033243
0.0033243
0.00334255
0.00332397
0.00329918
0.00331749
0.0033173
0.00329949
0.00329949
0.0033178
0.0033178
0.00329918
0.00331749
0.00332442
0.00334012
0.00334291
0.00332755
0.00334288
0.00332756
0.00332442
0.00332453
0.00334267
0.00334317
0.00332409
0.00332453
0.00334267
0.00334317
0.00332409
0.00331778
0.00331508
0.0033027
0.00329961
0.00331508
0.0033178
0.00329961
0.00331778
0.00331508
0.0033027
0.00329961
0.00331508
0.0033178
0.00329961
0.00331802
0.0032993
0.00331759
0.00329967
0.00331802
0.0032993
0.00331759
0.00329967
0.00334255
0.00332397
0.00334255
0.00332397
0.00331729
0.00329949
0.00329949
0.0033178
0.0033178
0.00329918
0.00331749
0.00329918
0.00331749
0.0032928
0.00327476
0.0032928
0.00327476
0.00329308
0.00329308
0.00327575
0.00327505
0.00327505
0.0032507
0.00326847
0.0032507
0.00326847
0.00326828
0.00325098
0.00325098
0.00326874
0.00326874
0.00327518
0.0032929
0.00329325
0.00327487
0.00327517
0.00329308
0.00329041
0.00327821
0.00329306
0.00327517
0.00327821
0.00327517
0.00329308
0.00329041
0.00327821
0.00329306
0.00327516
0.00327821
0.00326886
0.00325081
0.00326856
0.00325107
0.00326885
0.00325081
0.00326856
0.00325107
0.00326871
0.00326611
0.00325109
0.00325408
0.00326872
0.0032661
0.00325109
0.00326871
0.00326611
0.00325109
0.00325408
0.00326872
0.0032661
0.00325109
0.00329309