/*--------------------------------*- C++ -*----------------------------------*\
| =========                 |                                                 |
| \\      /  F ield         | OpenFOAM: The Open Source CFD Toolbox           |
|  \\    /   O peration     | Version:  v1906                                 |
|   \\  /    A nd           | Web:      www.OpenFOAM.com                      |
|    \\/     M anipulation  |                                                 |
\*---------------------------------------------------------------------------*/
FoamFile
{
    version     2.0;
    format      ascii;
    class       surfaceScalarField;
    location    "150";
    object      phi;
}
// * * * * * * * * * * * * * * * * * * * * * * * * * * * * * * * * * * * * * //

dimensions      [0 3 -1 0 0 0 0];
oriented        oriented;


internalField   nonuniform List<scalar> 
123728
(
-0.00104218
-1.46327e-05
-1.45298e-05
9.38381e-06
9.21358e-06
0.00105274
-0.000261491
-5.68502e-06
1.45082e-05
6.89158e-06
0.00105925
-4.59426e-06
-1.59743e-06
-2.12115e-06
-2.49071e-06
-6.62166e-06
-7.11553e-06
-2.98388e-06
-0.000263333
-0.000259762
-0.000262857
-0.000261468
-5.68972e-06
1.45381e-05
6.98002e-06
0.00105904
-4.59872e-06
-1.60753e-06
-2.12816e-06
-2.49359e-06
-6.61812e-06
-7.1106e-06
-2.98651e-06
-0.000259734
-0.000263304
-0.000262821
-0.000260563
5.66036e-06
5.70019e-06
-4.95392e-06
-4.94796e-06
0.000259105
-1.65156e-06
-1.65331e-06
-0.0010608
9.32817e-07
9.33918e-07
0.00106223
-0.00106274
-1.61804e-06
1.64793e-06
8.29713e-07
0.00106394
-6.79712e-07
8.35612e-07
-9.86776e-08
4.23073e-07
-8.51015e-07
-1.43243e-06
-2.54535e-07
-0.00106242
-1.61326e-06
1.65883e-06
8.25842e-07
0.00106362
-6.79932e-07
8.29937e-07
-9.88841e-08
4.19664e-07
-8.5299e-07
-1.43236e-06
-2.52369e-07
-0.000261566
1.65062e-06
1.6135e-06
-6.98073e-07
-7.01146e-07
0.000259701
-1.37524e-06
-1.37685e-06
-0.00106636
6.9649e-07
6.97478e-07
0.00106772
-0.00106788
-1.57231e-06
1.38139e-06
6.90497e-07
0.00106923
-6.57062e-07
8.7887e-07
-7.29669e-08
4.615e-07
-8.37725e-07
-1.39996e-06
-2.21061e-07
-0.00106756
-1.56717e-06
1.37636e-06
6.95984e-07
0.0010689
-6.57013e-07
8.73402e-07
-7.29622e-08
4.61383e-07
-8.3756e-07
-1.39389e-06
-2.19127e-07
-0.000262802
1.60181e-06
1.56715e-06
-6.62917e-07
-6.7122e-07
0.000260967
-1.34975e-06
-1.35136e-06
-0.00107181
6.75731e-07
6.76631e-07
0.00107316
-0.00107323
-1.57185e-06
1.35078e-06
6.65505e-07
0.00107454
-6.53034e-07
9.01414e-07
-5.26547e-08
4.75794e-07
-8.28929e-07
-1.40503e-06
-1.94784e-07
-0.00107289
-1.56673e-06
1.35076e-06
6.65611e-07
0.00107421
-6.50483e-07
8.95787e-07
-5.48545e-08
4.75434e-07
-8.30897e-07
-1.40452e-06
-1.9241e-07
-0.000264079
1.59977e-06
1.56738e-06
-6.5603e-07
-6.61218e-07
0.000262229
-1.30323e-06
-1.30447e-06
-0.00107714
6.51078e-07
6.52216e-07
0.00107845
-0.0010784
-1.56365e-06
1.3042e-06
6.3475e-07
0.00107966
-6.38188e-07
9.25481e-07
-3.43056e-08
4.95061e-07
-8.10426e-07
-1.40367e-06
-1.65002e-07
-0.00107806
-1.55859e-06
1.30407e-06
6.35324e-07
0.00107932
-6.35757e-07
9.19767e-07
-3.65826e-08
4.9483e-07
-8.12341e-07
-1.40322e-06
-1.62454e-07
-0.000265299
1.5917e-06
1.55919e-06
-6.40483e-07
-6.45802e-07
0.000263434
-1.25299e-06
-1.25397e-06
-0.00108228
6.26261e-07
6.27421e-07
0.00108354
-0.00108333
-1.55486e-06
1.25343e-06
6.0583e-07
0.00108452
-6.2395e-07
9.47261e-07
-1.36011e-08
5.16371e-07
-7.8933e-07
-1.39702e-06
-1.36835e-07
-0.00108299
-1.54974e-06
1.25366e-06
6.06644e-07
0.00108418
-6.21482e-07
9.41571e-07
-1.65618e-08
5.16188e-07
-7.9148e-07
-1.39667e-06
-1.34375e-07
-0.000266443
1.58262e-06
1.54983e-06
-6.24054e-07
-6.29728e-07
0.000264565
-1.20656e-06
-1.20736e-06
-0.00108722
6.04271e-07
6.0552e-07
0.00108843
-0.00108801
-1.54723e-06
1.20691e-06
5.82237e-07
0.00108914
-6.11816e-07
9.66751e-07
3.84723e-09
5.37678e-07
-7.69794e-07
-1.3889e-06
-1.1221e-07
-0.00108766
-1.54211e-06
1.20708e-06
5.82869e-07
0.0010888
-6.09369e-07
9.61048e-07
8.62509e-10
5.37657e-07
-7.72041e-07
-1.38856e-06
-1.09711e-07
-0.000267514
1.57525e-06
1.54221e-06
-6.0989e-07
-6.1568e-07
0.000265622
-1.16622e-06
-1.1665e-06
-0.00109197
5.85559e-07
5.87174e-07
0.00109313
-0.00109245
-1.54165e-06
1.1674e-06
5.64102e-07
0.00109353
-6.02525e-07
9.83856e-07
1.8178e-08
5.58117e-07
-7.53092e-07
-1.38122e-06
-9.12414e-08
-0.00109211
-1.5364e-06
1.16654e-06
5.64014e-07
0.00109319
-5.9996e-07
9.78238e-07
1.52825e-08
5.58538e-07
-7.55048e-07
-1.3805e-06
-8.85364e-08
-0.000268516
1.56981e-06
1.53661e-06
-5.98165e-07
-6.03981e-07
0.000266612
-1.13106e-06
-1.13211e-06
-0.00109655
5.70038e-07
5.71745e-07
0.00109767
-0.00109669
-1.53789e-06
1.13403e-06
5.4978e-07
0.00109772
-5.95846e-07
9.98833e-07
2.99466e-08
5.77853e-07
-7.38783e-07
-1.37416e-06
-7.3274e-08
-0.00109635
-1.53256e-06
1.13226e-06
5.49476e-07
0.00109738
-5.93193e-07
9.93239e-07
2.7074e-08
5.78598e-07
-7.40491e-07
-1.37311e-06
-7.04556e-08
-0.000269456
1.56615e-06
1.53282e-06
-5.8858e-07
-5.94401e-07
0.00026754
-1.10071e-06
-1.10218e-06
-0.00110099
5.57008e-07
5.58411e-07
0.00110207
-0.00110074
-1.53624e-06
1.1038e-06
5.37513e-07
0.00110173
-5.91798e-07
1.01178e-06
4.38597e-08
5.96913e-07
-7.26159e-07
-1.3675e-06
-5.79472e-08
-0.0011004
-1.53083e-06
1.10242e-06
5.37907e-07
0.00110138
-5.89029e-07
1.00626e-06
3.9793e-08
5.97633e-07
-7.27882e-07
-1.36644e-06
-5.52407e-08
-0.000270337
1.56426e-06
1.53076e-06
-5.80924e-07
-5.86723e-07
0.00026841
-1.07435e-06
-1.07585e-06
-0.00110529
5.45907e-07
5.46814e-07
0.00110635
-0.00110463
-1.53552e-06
1.07659e-06
5.28201e-07
0.00110557
-5.86094e-07
1.02398e-06
5.17738e-08
6.15212e-07
-7.14155e-07
-1.36086e-06
-4.47741e-08
-0.00110428
-1.53015e-06
1.07573e-06
5.28841e-07
0.00110522
-5.86172e-07
1.01836e-06
5.1542e-08
6.15574e-07
-7.16292e-07
-1.36019e-06
-4.23797e-08
-0.000271165
1.56365e-06
1.52994e-06
-5.74598e-07
-5.80591e-07
0.000269226
-1.05012e-06
-1.05168e-06
-0.00110948
5.35518e-07
5.35969e-07
0.00111051
-0.00110835
-1.53512e-06
1.05152e-06
5.19283e-07
0.00110926
-5.83621e-07
1.03571e-06
6.15894e-08
6.32437e-07
-7.02153e-07
-1.35393e-06
-3.33287e-08
-0.001108
-1.52976e-06
1.05152e-06
5.20339e-07
0.00110891
-5.83679e-07
1.03007e-06
6.13873e-08
6.32504e-07
-7.04659e-07
-1.35361e-06
-3.12977e-08
-0.00027194
1.5634e-06
1.52949e-06
-5.68879e-07
-5.7505e-07
0.000269991
-1.02648e-06
-1.02787e-06
-0.00111356
5.24845e-07
5.25057e-07
0.00111456
-0.00111193
-1.53478e-06
1.0275e-06
5.09832e-07
0.0011128
-5.80793e-07
1.04733e-06
7.04407e-08
6.48013e-07
-6.90171e-07
-1.34683e-06
-2.08155e-08
-0.00111157
-1.52944e-06
1.02787e-06
5.10811e-07
0.00111244
-5.80873e-07
1.0415e-06
7.01633e-08
6.47908e-07
-6.92922e-07
-1.34672e-06
-1.81798e-08
-0.000272663
1.56334e-06
1.52925e-06
-5.63787e-07
-5.69974e-07
0.000270704
-1.0039e-06
-1.00521e-06
-0.00111754
5.14485e-07
5.14756e-07
0.00111852
-0.00111535
-1.53464e-06
1.00522e-06
4.99444e-07
0.00111618
-5.76784e-07
1.05804e-06
7.90764e-08
6.62125e-07
-6.77539e-07
-1.33916e-06
-8.84025e-09
-0.001115
-1.52929e-06
1.0053e-06
5.0047e-07
0.00111583
-5.76968e-07
1.05227e-06
7.87444e-08
6.62122e-07
-6.80243e-07
-1.339e-06
-6.08014e-09
-0.000273333
1.56335e-06
1.52935e-06
-5.58574e-07
-5.64462e-07
0.000271363
-9.81909e-07
-9.83005e-07
-0.00112142
5.04187e-07
5.04726e-07
0.00112238
-0.00111863
-1.53417e-06
9.83752e-07
4.8875e-07
0.00111942
-5.71633e-07
1.06799e-06
8.76179e-08
6.74894e-07
-6.64002e-07
-1.33053e-06
2.14553e-09
-0.00111827
-1.52886e-06
9.83161e-07
4.89561e-07
0.00111906
-5.71818e-07
1.06221e-06
8.72436e-08
6.75074e-07
-6.66477e-07
-1.33016e-06
5.14213e-09
-0.000273948
1.56289e-06
1.52901e-06
-5.52225e-07
-5.57837e-07
0.000271966
-9.60102e-07
-9.6107e-07
-0.00112521
4.93956e-07
4.94741e-07
0.00112614
-0.00112175
-1.53293e-06
9.62233e-07
4.77982e-07
0.00112251
-5.65414e-07
1.07774e-06
9.56162e-08
6.86646e-07
-6.49563e-07
-1.32083e-06
1.23715e-08
-0.00112139
-1.52763e-06
9.61123e-07
4.78502e-07
0.00112215
-5.65567e-07
1.07191e-06
9.52862e-08
6.87034e-07
-6.51903e-07
-1.3203e-06
1.55097e-08
-0.000274505
1.56167e-06
1.52776e-06
-5.44968e-07
-5.50544e-07
0.000272511
-9.38824e-07
-9.39586e-07
-0.00112891
4.84115e-07
4.85049e-07
0.00112982
-0.00112471
-1.53115e-06
9.40692e-07
4.67203e-07
0.00112543
-5.57988e-07
1.08693e-06
1.0324e-07
6.97503e-07
-6.34345e-07
-1.30999e-06
2.2032e-08
-0.00112436
-1.52579e-06
9.39521e-07
4.67608e-07
0.00112507
-5.5812e-07
1.08118e-06
1.03097e-07
6.97828e-07
-6.36729e-07
-1.30956e-06
2.51447e-08
-0.000275
1.5599e-06
1.52587e-06
-5.37166e-07
-5.428e-07
0.000272994
-9.17817e-07
-9.181e-07
-0.00113251
4.74265e-07
4.75432e-07
0.0011334
-0.00112752
-1.52881e-06
9.1903e-07
4.56347e-07
0.00112819
-5.49517e-07
1.09542e-06
1.10614e-07
7.07709e-07
-6.18802e-07
-1.2982e-06
3.22383e-08
-0.00112716
-1.52339e-06
9.17823e-07
4.56056e-07
0.00112783
-5.49597e-07
1.08967e-06
1.10534e-07
7.07606e-07
-6.21487e-07
-1.29797e-06
3.67102e-08
-0.000275431
1.55753e-06
1.52336e-06
-5.28783e-07
-5.34515e-07
0.000273413
-8.9729e-07
-8.97341e-07
-0.00113602
4.65072e-07
4.66316e-07
0.00113688
-0.00113015
-1.52588e-06
8.97498e-07
4.45409e-07
0.00113078
-5.40241e-07
1.10311e-06
1.1759e-07
7.16592e-07
-6.03355e-07
-1.28614e-06
4.46746e-08
-0.00112979
-1.52025e-06
8.96844e-07
4.44763e-07
0.00113042
-5.40061e-07
1.09754e-06
1.1779e-07
7.16492e-07
-6.06171e-07
-1.28608e-06
4.85102e-08
-0.000275793
1.55451e-06
1.5202e-06
-5.1983e-07
-5.25635e-07
0.000273764
-8.77461e-07
-8.77063e-07
-0.00113944
4.56586e-07
4.57682e-07
0.00114028
-0.0011326
-1.52191e-06
8.76897e-07
4.35327e-07
0.00113319
-5.29905e-07
1.11045e-06
1.2462e-07
7.24841e-07
-5.87866e-07
-1.27322e-06
5.53522e-08
-0.00113224
-1.51623e-06
8.76428e-07
4.34505e-07
0.00113283
-5.29742e-07
1.10491e-06
1.24828e-07
7.2471e-07
-5.9073e-07
-1.27321e-06
5.8929e-08
-0.000276085
1.55054e-06
1.51616e-06
-5.10121e-07
-5.1594e-07
0.000274044
-8.63606e-07
-8.57573e-07
-0.00114275
4.48637e-07
4.49698e-07
0.00114357
-0.00113488
-1.51695e-06
8.51504e-07
4.25079e-07
0.00113542
-5.21865e-07
1.1172e-06
1.34372e-07
7.35495e-07
-5.72687e-07
-1.25942e-06
6.49945e-08
-0.00113452
-1.51128e-06
8.56778e-07
4.13328e-07
-5.1878e-07
1.11172e-06
1.31586e-07
7.32536e-07
-5.75472e-07
-1.25937e-06
6.84693e-08
0.00113507
-0.000276305
1.54558e-06
1.50842e-06
-4.99672e-07
-5.05522e-07
0.000274257
5.22662e-06
5.23719e-06
0.000260566
-0.000259154
-5.9449e-06
-5.93136e-06
5.05376e-06
0.00026144
-0.000258684
-5.96359e-06
3.38119e-06
-5.22606e-06
5.04915e-06
0.000261473
-0.0002587
-5.97247e-06
3.37602e-06
5.22778e-06
0.000260579
-0.000259156
-5.9172e-06
-5.95901e-06
5.04714e-06
0.000261504
-0.000258715
-5.96982e-06
3.37087e-06
5.05382e-06
-5.22868e-06
0.000261447
-0.000258684
3.38602e-06
-5.9743e-06
1.06915e-05
1.05974e-05
-0.000252646
-0.000256096
-0.000255126
-0.000255126
-6.41731e-06
-4.11051e-06
-6.65301e-06
-6.41783e-06
-4.1117e-06
-6.65879e-06
-5.04116e-06
0.0010422
1.06501e-05
1.06033e-05
-0.000252649
-0.000256094
-0.000255129
-0.000255129
-6.42018e-06
-4.11114e-06
-6.6561e-06
-6.41522e-06
-4.10587e-06
-6.65064e-06
-5.04158e-06
0.00104207
1.07108e-05
1.06636e-05
-0.000252641
-0.000256088
-0.000255126
-0.000255121
-6.41984e-06
-4.1184e-06
-6.65585e-06
-6.41993e-06
-4.10844e-06
-6.65334e-06
-5.05617e-06
-5.04433e-06
0.00104214
1.07065e-05
1.06072e-05
-0.000252644
-0.000256091
-0.000255126
-0.000255126
-6.41459e-06
-4.11306e-06
-6.65063e-06
-6.42005e-06
-4.11133e-06
-6.656e-06
-0.00025871
-5.95982e-06
3.36591e-06
-5.22628e-06
0.000261434
-0.000258682
3.38109e-06
-5.96374e-06
5.22939e-06
0.000260559
-0.000259141
-5.9189e-06
-5.95682e-06
-0.000258694
3.3734e-06
-5.95905e-06
-5.23715e-06
0.000261501
-0.00025871
3.36824e-06
-5.96671e-06
-0.000259151
-5.94485e-06
-5.93085e-06
5.66075e-06
5.6978e-06
-4.95425e-06
-4.94851e-06
0.000259111
-8.12715e-07
-7.76903e-07
0.000261577
-0.000259443
-2.7577e-07
-2.68295e-07
7.14235e-06
0.00105866
-4.59129e-06
-1.55031e-06
-2.11535e-06
-2.492e-06
-6.63743e-06
-7.12065e-06
-2.99071e-06
-0.000263294
-0.000259718
-0.000262821
-5.6706e-06
1.46057e-05
7.08008e-06
0.00105902
-4.60947e-06
-1.54265e-06
-2.11815e-06
-2.50167e-06
-6.66915e-06
-7.13762e-06
-3.00673e-06
-0.000263369
-0.000259749
-0.000262863
0.00106199
2.11971e-06
-0.00106095
1.04276e-06
-1.75802e-06
-1.31723e-07
-7.45953e-07
-1.542e-06
-2.91748e-07
-9.11732e-07
3.63737e-07
8.20932e-07
0.00106241
2.11846e-06
-0.00106136
1.03658e-06
-1.76822e-06
-1.24504e-07
-7.51235e-07
-1.5466e-06
-2.91556e-07
-9.1176e-07
3.70088e-07
-4.95292e-06
-4.94427e-06
0.00025912
-7.80331e-07
0.000261602
-0.000259463
-2.72474e-07
-2.65059e-07
6.86431e-06
0.0010595
-4.61513e-06
-1.61041e-06
-2.13149e-06
-2.50039e-06
-6.65204e-06
-7.1332e-06
-3.00236e-06
-0.00026339
-0.000259777
-0.000262876
-5.6707e-06
1.46398e-05
7.17418e-06
0.0010588
-4.60985e-06
-1.55284e-06
-2.12333e-06
-2.50311e-06
-6.6683e-06
-7.13572e-06
-3.0061e-06
-0.000259719
-0.000263346
-0.000262834
0.00106301
2.12692e-06
-0.00106195
1.031e-06
-1.72859e-06
-1.34219e-07
-7.46544e-07
-1.5444e-06
-2.918e-07
-9.09541e-07
3.66638e-07
8.10188e-07
0.0010621
2.12938e-06
-0.00106108
1.05266e-06
-1.75805e-06
-1.29329e-07
-7.46132e-07
-1.54444e-06
-2.88737e-07
-9.13838e-07
3.63836e-07
1.46366e-05
7.16297e-06
0.00105861
-4.59098e-06
-1.55024e-06
-2.1127e-06
-2.49071e-06
-6.63795e-06
-2.99146e-06
-7.11802e-06
-0.000259713
-0.000263289
-0.000262816
2.12639e-06
-0.0010617
1.03505e-06
-1.72775e-06
-1.31008e-07
-7.42826e-07
-1.54249e-06
-2.94419e-07
3.60855e-07
-9.10209e-07
8.10346e-07
0.00106189
2.12988e-06
-0.00106087
1.05172e-06
-1.75783e-06
-1.29091e-07
-7.45686e-07
-1.54426e-06
-2.91819e-07
-9.1181e-07
3.66385e-07
-4.9573e-06
-4.94469e-06
0.0002591
-7.71864e-07
0.000261553
-0.000259425
-2.75764e-07
-2.70743e-07
1.45387e-05
6.88229e-06
0.00105944
-4.61519e-06
-1.61008e-06
-2.13136e-06
-2.50037e-06
-6.65166e-06
-3.00204e-06
-7.13032e-06
-0.000259767
-0.000263387
-0.00026287
2.13169e-06
-0.00106139
1.05157e-06
-1.7257e-06
-1.33817e-07
-7.45991e-07
-1.53934e-06
-2.89297e-07
3.60324e-07
-9.1171e-07
7.7185e-07
0.00106291
2.13127e-06
-0.00106187
1.04093e-06
-1.72331e-06
-1.34037e-07
-7.43768e-07
-1.54183e-06
-2.91587e-07
-9.11879e-07
3.61467e-07
-0.00025944
-2.73009e-07
-2.70787e-07
1.65095e-06
1.61619e-06
-6.95665e-07
-7.03885e-07
0.000259709
-9.07104e-07
-8.68735e-07
0.000262816
-0.00026065
-1.98568e-07
-1.9138e-07
8.31967e-07
0.00106318
-6.82634e-07
8.68095e-07
-9.47068e-08
4.23679e-07
-8.50045e-07
-1.43391e-06
-2.5437e-07
-1.65602e-06
1.65097e-06
8.25946e-07
0.00106361
-6.85352e-07
8.76197e-07
-9.45822e-08
4.29533e-07
-8.52813e-07
-1.43902e-06
-2.52024e-07
0.00106712
1.39021e-06
-0.00106578
7.00308e-07
-1.60534e-06
-7.01984e-08
-6.63464e-07
-1.39348e-06
-2.26168e-07
-8.34775e-07
4.59476e-07
9.12489e-07
0.00106755
1.3902e-06
-0.00106621
6.95054e-07
-1.61054e-06
-7.01592e-08
-6.63556e-07
-1.39647e-06
-2.26373e-07
-8.35267e-07
4.62363e-07
-6.9563e-07
-7.02974e-07
0.000259727
-8.74272e-07
0.000262841
-0.000260662
-1.98337e-07
-1.9376e-07
8.25642e-07
0.0010642
-6.80543e-07
8.3239e-07
-9.70269e-08
4.26356e-07
-8.53034e-07
-1.43663e-06
-2.52136e-07
-1.65106e-06
1.65643e-06
8.31898e-07
0.00106329
-6.8554e-07
8.68057e-07
-9.47176e-08
4.2361e-07
-8.52262e-07
-1.43411e-06
-2.51642e-07
0.00106815
1.39176e-06
-0.00106682
6.99653e-07
-1.56774e-06
-7.45314e-08
-6.58617e-07
-1.39135e-06
-2.24187e-07
-8.35434e-07
4.61945e-07
9.01906e-07
0.00106723
1.38968e-06
-0.00106589
7.00048e-07
-1.60282e-06
-7.23602e-08
-6.63623e-07
-1.39359e-06
-2.25943e-07
-8.34555e-07
4.62265e-07
1.65203e-06
8.30621e-07
0.00106309
-6.84889e-07
8.65883e-07
-9.65042e-08
4.23493e-07
-8.528e-07
-2.51943e-07
-1.43415e-06
1.39133e-06
-0.00106655
7.04184e-07
-1.57522e-06
-7.63717e-08
-6.58153e-07
-1.3922e-06
-2.23536e-07
4.6162e-07
-8.35303e-07
9.05246e-07
0.00106702
1.38405e-06
-0.00106568
6.98891e-07
-1.60193e-06
-7.1725e-08
-6.62772e-07
-1.39368e-06
-2.26091e-07
-8.34864e-07
4.59477e-07
-6.98564e-07
-7.00887e-07
0.000259688
-8.66214e-07
0.00026279
-0.000260629
-1.98584e-07
-1.93832e-07
1.65208e-06
8.19725e-07
0.00106412
-6.80272e-07
8.27281e-07
-1.01376e-07
4.21322e-07
-8.5016e-07
-2.56728e-07
-1.43117e-06
1.39166e-06
-0.00106622
6.99425e-07
-1.56481e-06
-7.6372e-08
-6.58059e-07
-1.38632e-06
-2.26594e-07
4.53384e-07
-8.35382e-07
8.69009e-07
0.00106805
1.39093e-06
-0.00106671
6.97766e-07
-1.56481e-06
-7.63729e-08
-6.58159e-07
-1.39353e-06
-2.26391e-07
-8.37812e-07
4.5958e-07
-0.000260636
-1.98001e-07
-1.93327e-07
1.6051e-06
1.57266e-06
-6.60853e-07
-6.69241e-07
0.000260968
-9.28002e-07
-8.9206e-07
0.000264095
-0.000261921
-1.79758e-07
-1.7491e-07
6.91858e-07
0.00106846
-6.65086e-07
9.11673e-07
-6.6884e-08
4.61906e-07
-8.3452e-07
-1.39349e-06
-2.23593e-07
-1.61035e-06
1.37531e-06
7.02287e-07
0.00106889
-6.65158e-07
9.17124e-07
-6.68084e-08
4.67592e-07
-8.37512e-07
-1.39903e-06
-2.18939e-07
0.00107247
1.35926e-06
-0.00107114
6.74929e-07
-1.60624e-06
-5.59858e-08
-6.59063e-07
-1.40299e-06
-2.04181e-07
-8.2873e-07
4.71769e-07
9.33754e-07
0.00107289
1.3591e-06
-0.00107156
6.74558e-07
-1.61126e-06
-5.3756e-08
-6.61678e-07
-1.41108e-06
-1.9939e-07
-8.34134e-07
4.80228e-07
-6.63652e-07
-6.66063e-07
0.000260988
-8.95383e-07
0.000264124
-0.000261946
-1.76585e-07
-1.71735e-07
6.91182e-07
0.0010695
-6.62871e-07
8.75856e-07
-7.11833e-08
4.64365e-07
-8.37707e-07
-1.39918e-06
-2.19197e-07
-1.60246e-06
1.37484e-06
6.96757e-07
0.00106857
-6.65109e-07
9.09224e-07
-6.67455e-08
4.64721e-07
-8.36859e-07
-1.39619e-06
-2.18579e-07
0.0010735
1.36092e-06
-0.00107217
6.74181e-07
-1.57108e-06
-5.8081e-08
-6.56793e-07
-1.40598e-06
-1.99697e-07
-8.34435e-07
4.74369e-07
9.28346e-07
0.00107257
1.35872e-06
-0.00107125
6.7429e-07
-1.606e-06
-5.36715e-08
-6.61538e-07
-1.40545e-06
-1.99192e-07
-8.33686e-07
4.74738e-07
1.37934e-06
6.90588e-07
0.00106837
-6.61808e-07
9.07107e-07
-7.05955e-08
4.64546e-07
-8.3721e-07
-2.21117e-07
-1.39631e-06
1.36026e-06
-0.00107191
6.7303e-07
-1.5731e-06
-5.74976e-08
-6.56042e-07
-1.4039e-06
-2.0202e-07
4.71611e-07
-8.32265e-07
9.22875e-07
0.00107237
1.35921e-06
-0.00107104
6.74702e-07
-1.60079e-06
-5.79345e-08
-6.56221e-07
-1.40336e-06
-2.02014e-07
-8.31689e-07
4.71559e-07
-6.6369e-07
-6.68674e-07
0.000260953
-8.89786e-07
0.000264075
-0.000261905
-1.79266e-07
-1.72074e-07
1.37609e-06
6.94581e-07
0.0010694
-6.57186e-07
8.68301e-07
-7.51515e-08
4.61915e-07
-8.34964e-07
-2.21484e-07
-1.39373e-06
1.36018e-06
-0.00107157
6.73019e-07
-1.56797e-06
-5.96935e-08
-6.53455e-07
-1.40321e-06
-1.99718e-07
4.71364e-07
-8.34283e-07
8.8938e-07
0.00107341
1.36059e-06
-0.00107208
6.73439e-07
-1.56844e-06
-6.0066e-08
-6.54063e-07
-1.40086e-06
-2.02076e-07
-8.31802e-07
4.68964e-07
-0.000261918
-1.77483e-07
-1.72077e-07
1.60507e-06
1.56987e-06
-6.53082e-07
-6.58847e-07
0.000262232
-9.52495e-07
-9.16345e-07
0.000265314
-0.000263142
-1.54019e-07
-1.49083e-07
6.67542e-07
0.00107378
-6.56106e-07
9.34042e-07
-5.11972e-08
4.75904e-07
-8.25335e-07
-1.40421e-06
-1.96855e-07
-1.61003e-06
1.34963e-06
6.6711e-07
0.0010742
-6.5869e-07
9.39855e-07
-4.89765e-08
4.84329e-07
-8.3076e-07
-1.41234e-06
-1.92101e-07
0.00107763
1.31572e-06
-0.00107636
6.44131e-07
-1.59926e-06
-3.72544e-08
-6.45095e-07
-1.40409e-06
-1.74387e-07
-8.1195e-07
4.89963e-07
9.58347e-07
0.00107805
1.31592e-06
-0.00107678
6.43794e-07
-1.60417e-06
-3.51397e-08
-6.4765e-07
-1.41239e-06
-1.69826e-07
-8.17562e-07
4.98251e-07
-6.55723e-07
-6.60461e-07
0.000262258
-9.19582e-07
0.000265343
-0.000263168
-1.5095e-07
-1.45809e-07
6.66774e-07
0.00107481
-6.53839e-07
8.9806e-07
-5.32662e-08
4.78547e-07
-8.31019e-07
-1.40716e-06
-1.92362e-07
-1.60484e-06
1.34922e-06
6.67027e-07
0.00107388
-6.58604e-07
9.34356e-07
-4.89409e-08
4.78903e-07
-8.30314e-07
-1.40663e-06
-1.91897e-07
0.00107866
1.31694e-06
-0.00107739
6.43462e-07
-1.56396e-06
-3.92477e-08
-6.4285e-07
-1.40688e-06
-1.69806e-07
-8.17528e-07
4.92813e-07
9.52686e-07
0.00107773
1.31553e-06
-0.00107646
6.44182e-07
-1.59916e-06
-3.5264e-08
-6.47755e-07
-1.40653e-06
-1.69582e-07
-8.17064e-07
4.92937e-07
1.35009e-06
6.67625e-07
0.00107368
-6.53442e-07
9.28785e-07
-5.32436e-08
4.75645e-07
-8.28389e-07
-1.94789e-07
-1.40463e-06
1.31656e-06
-0.00107713
6.42484e-07
-1.566e-06
-3.87046e-08
-6.42066e-07
-1.40471e-06
-1.72435e-07
4.89936e-07
-8.15559e-07
9.47124e-07
0.00107753
1.31619e-06
-0.00107626
6.44622e-07
-1.59408e-06
-3.92902e-08
-6.42581e-07
-1.40444e-06
-1.72332e-07
-8.14953e-07
4.89768e-07
-6.53122e-07
-6.60725e-07
0.000262217
-9.13875e-07
0.000265294
-0.000263127
-1.53711e-07
-1.4639e-07
1.35109e-06
6.66415e-07
0.00107472
-6.51261e-07
8.95233e-07
-5.53429e-08
4.73134e-07
-8.28378e-07
-1.94714e-07
-1.40206e-06
1.31645e-06
-0.00107679
6.42852e-07
-1.56093e-06
-4.08782e-08
-6.39628e-07
-1.40422e-06
-1.69932e-07
4.89709e-07
-8.17506e-07
9.13419e-07
0.00107858
1.31667e-06
-0.0010773
6.43621e-07
-1.56163e-06
-4.13305e-08
-6.40443e-07
-1.40176e-06
-1.72123e-07
-8.14859e-07
4.87391e-07
-0.00026314
-1.51937e-07
-1.4647e-07
1.59691e-06
1.56155e-06
-6.3754e-07
-6.43225e-07
0.000263437
-9.75382e-07
-9.39063e-07
0.000266459
-0.000264291
-1.29167e-07
-1.23887e-07
6.36042e-07
0.00107888
-6.41192e-07
9.5852e-07
-3.22245e-08
4.95034e-07
-8.06884e-07
-1.40313e-06
-1.66984e-07
-1.60189e-06
1.30347e-06
6.35601e-07
0.00107931
-6.43843e-07
9.64292e-07
-2.93849e-08
5.0327e-07
-8.12564e-07
-1.41149e-06
-1.62488e-07
0.00108255
1.26538e-06
-0.00108135
6.134e-07
-1.59008e-06
-1.62112e-08
-6.30203e-07
-1.39869e-06
-1.45786e-07
-7.91422e-07
5.10789e-07
9.81091e-07
0.00108298
1.26574e-06
-0.00108177
6.132e-07
-1.59516e-06
-1.34094e-08
-6.32889e-07
-1.40712e-06
-1.41357e-07
-7.97106e-07
5.1898e-07
-6.40355e-07
-6.448e-07
0.000263462
-9.42015e-07
0.000266488
-0.000264318
-1.26404e-07
-1.20786e-07
6.35549e-07
0.00107992
-6.38894e-07
9.22341e-07
-3.48895e-08
4.9796e-07
-8.12399e-07
-1.40585e-06
-1.62355e-07
-1.59689e-06
1.30311e-06
6.36123e-07
0.00107899
-6.43973e-07
9.58637e-07
-2.95207e-08
4.97944e-07
-8.12067e-07
-1.40562e-06
-1.62252e-07
0.00108359
1.2664e-06
-0.00108238
6.12833e-07
-1.55467e-06
-1.89372e-08
-6.27917e-07
-1.40127e-06
-1.41061e-07
-7.96785e-07
5.13844e-07
9.75478e-07
0.00108266
1.26561e-06
-0.00108145
6.13832e-07
-1.5901e-06
-1.35331e-08
-6.33039e-07
-1.40137e-06
-1.41192e-07
-7.96728e-07
5.13519e-07
1.30365e-06
6.36683e-07
0.00107879
-6.38574e-07
9.53209e-07
-3.48993e-08
4.94908e-07
-8.09779e-07
-1.64844e-07
-1.4034e-06
1.26596e-06
-0.00108212
6.12566e-07
-1.55699e-06
-1.84812e-08
-6.27365e-07
-1.39894e-06
-1.43595e-07
5.10979e-07
-7.94578e-07
9.70138e-07
0.00108246
1.26531e-06
-0.00108125
6.13722e-07
-1.58475e-06
-1.88054e-08
-6.27438e-07
-1.39873e-06
-1.43471e-07
-7.94042e-07
5.10851e-07
-6.37826e-07
-6.45235e-07
0.000263421
-9.3633e-07
0.000266438
-0.000264276
-1.2926e-07
-1.21125e-07
1.30417e-06
6.35808e-07
0.00107983
-6.36449e-07
9.19474e-07
-3.69252e-08
4.92536e-07
-8.09726e-07
-1.64664e-07
-1.40072e-06
1.26609e-06
-0.00108178
6.13381e-07
-1.55189e-06
-2.14358e-08
-6.24906e-07
-1.39848e-06
-1.41111e-07
5.10851e-07
-7.96675e-07
9.36428e-07
0.0010835
1.26623e-06
-0.0010823
6.12948e-07
-1.55203e-06
-2.15686e-08
-6.25247e-07
-1.39612e-06
-1.43363e-07
-7.94123e-07
5.08431e-07
-0.000264289
-1.26496e-07
-1.21242e-07
1.58795e-06
1.5525e-06
-6.21562e-07
-6.27093e-07
0.000264567
-9.95548e-07
-9.59095e-07
0.00026753
-0.000265367
-1.06841e-07
-1.01459e-07
6.06636e-07
0.00108375
-6.26757e-07
9.80676e-07
-1.13108e-08
5.16139e-07
-7.86297e-07
-1.39685e-06
-1.39098e-07
-1.59304e-06
1.25343e-06
6.06418e-07
0.00108417
-6.29449e-07
9.86389e-07
-8.49765e-09
5.24351e-07
-7.92005e-07
-1.4053e-06
-1.34683e-07
0.00108723
1.21768e-06
-0.00108608
5.88507e-07
-1.58223e-06
2.04952e-09
-6.17455e-07
-1.39086e-06
-1.20305e-07
-7.71598e-07
5.32246e-07
1.00128e-06
0.00108766
1.21783e-06
-0.00108651
5.88189e-07
-1.58729e-06
4.91986e-09
-6.20073e-07
-1.39923e-06
-1.15766e-07
-7.77162e-07
5.40581e-07
-6.24543e-07
-6.28797e-07
0.000264593
-9.62091e-07
0.000267559
-0.000265393
-1.0396e-07
-9.8348e-08
6.0604e-07
0.00108479
-6.24465e-07
9.44324e-07
-1.40353e-08
5.19199e-07
-7.91637e-07
-1.39943e-06
-1.34355e-07
-1.58796e-06
1.25328e-06
6.07069e-07
0.00108385
-6.29582e-07
9.80776e-07
-8.61924e-09
5.18843e-07
-7.91619e-07
-1.39956e-06
-1.34534e-07
0.00108827
1.21852e-06
-0.00108713
5.87967e-07
-1.54668e-06
-6.74514e-10
-6.15137e-07
-1.39346e-06
-1.15582e-07
-7.76893e-07
5.3527e-07
9.95665e-07
0.00108733
1.21775e-06
-0.00108619
5.88813e-07
-1.58221e-06
4.78307e-09
-6.20236e-07
-1.39354e-06
-1.15721e-07
-7.76844e-07
5.35019e-07
1.25283e-06
6.06941e-07
0.00108365
-6.23987e-07
9.75419e-07
-1.39114e-08
5.16259e-07
-7.8887e-07
-1.36747e-07
-1.39683e-06
1.21788e-06
-0.00108686
5.87608e-07
-1.54898e-06
-2.21346e-10
-6.1459e-07
-1.39093e-06
-1.1799e-07
5.32422e-07
-7.7442e-07
9.90223e-07
0.00108713
1.21731e-06
-0.00108598
5.88804e-07
-1.57692e-06
-5.99229e-10
-6.14696e-07
-1.3907e-06
-1.1786e-07
-7.74062e-07
5.32502e-07
-6.22077e-07
-6.29116e-07
0.000264552
-9.56383e-07
0.000267509
-0.000265352
-1.06842e-07
-9.87175e-08
1.2538e-06
6.06073e-07
0.0010847
-6.21778e-07
9.41713e-07
-1.66561e-08
5.13803e-07
-7.88981e-07
-1.36656e-07
-1.39426e-06
1.21818e-06
-0.00108652
5.8835e-07
-1.54387e-06
-3.20478e-09
-6.1215e-07
-1.39057e-06
-1.15574e-07
5.32375e-07
-7.76739e-07
9.56519e-07
0.00108818
1.21843e-06
-0.00108704
5.87798e-07
-1.54394e-06
-3.26918e-09
-6.12405e-07
-1.38825e-06
-1.17865e-07
-7.7427e-07
5.29916e-07
-0.000265365
-1.04062e-07
-9.88796e-08
1.58055e-06
1.54496e-06
-6.07482e-07
-6.12968e-07
0.000265625
-1.016e-06
-9.76722e-07
0.000268535
-0.000266373
-8.71312e-08
-8.17147e-08
5.83139e-07
0.00108836
-6.14703e-07
1.00287e-06
8.76332e-09
5.37567e-07
-7.6696e-07
-1.3888e-06
-1.14452e-07
-1.58563e-06
1.20665e-06
5.8286e-07
0.00108879
-6.1733e-07
1.00593e-06
8.968e-09
5.45954e-07
-7.72484e-07
-1.39713e-06
-1.09904e-07
0.00109167
1.17571e-06
-0.00109058
5.68813e-07
-1.57895e-06
1.98344e-08
-6.10173e-07
-1.38271e-06
-9.82141e-08
-7.53988e-07
5.533e-07
1.01887e-06
0.0010921
1.17554e-06
-0.00109101
5.68994e-07
-1.58155e-06
1.98546e-08
-6.10274e-07
-1.3883e-06
-9.36296e-08
-7.59456e-07
5.59114e-07
-6.10346e-07
-6.1467e-07
0.000265651
-9.79778e-07
0.000268561
-0.0002664
-8.41764e-08
-7.88837e-08
5.82647e-07
0.00108941
-6.12377e-07
9.63721e-07
3.37344e-09
5.40588e-07
-7.72233e-07
-1.3914e-06
-1.09751e-07
-1.58053e-06
1.20646e-06
5.83376e-07
0.00108847
-6.17476e-07
1.00033e-06
8.84443e-09
5.4041e-07
-7.72138e-07
-1.39141e-06
-1.09833e-07
0.00109272
1.17616e-06
-0.00109163
5.6862e-07
-1.54061e-06
1.43737e-08
-6.05171e-07
-1.3853e-06
-9.35504e-08
-7.59257e-07
5.56348e-07
1.01342e-06
0.00109178
1.17507e-06
-0.00109069
5.69012e-07
-1.57628e-06
1.98838e-08
-6.10269e-07
-1.38516e-06
-9.35456e-08
-7.5906e-07
5.56315e-07
1.20615e-06
5.834e-07
0.00108826
-6.11957e-07
9.94869e-07
3.43829e-09
5.37865e-07
-7.69373e-07
-1.11991e-07
-1.3886e-06
1.17664e-06
-0.00109136
5.68223e-07
-1.54286e-06
1.48442e-08
-6.046e-07
-1.38308e-06
-9.6182e-08
5.53088e-07
-7.57036e-07
1.00795e-06
0.00109157
1.17511e-06
-0.00109048
5.68878e-07
-1.57099e-06
1.44433e-08
-6.04767e-07
-1.38245e-06
-9.57107e-08
-7.5635e-07
5.53667e-07
-6.07864e-07
-6.15027e-07
0.000265609
-9.74139e-07
0.000268511
-0.000266358
-8.70096e-08
-7.90134e-08
1.20734e-06
5.82413e-07
0.00108932
-6.09628e-07
9.61158e-07
7.97329e-10
5.35224e-07
-7.69623e-07
-1.12031e-07
-1.38618e-06
1.17607e-06
-0.00109102
5.68311e-07
-1.53764e-06
1.19228e-08
-6.02071e-07
-1.38241e-06
-9.35464e-08
5.53439e-07
-7.5911e-07
9.74181e-07
0.00109263
1.17637e-06
-0.00109154
5.68196e-07
-1.53783e-06
1.18452e-08
-6.02357e-07
-1.38014e-06
-9.58506e-08
-7.56717e-07
5.50909e-07
-0.000266371
-8.43634e-08
-7.91504e-08
1.57776e-06
1.53938e-06
-5.95749e-07
-6.01248e-07
0.000266615
-1.0317e-06
-9.92258e-07
0.000269474
-0.000267316
-6.99467e-08
-6.4355e-08
5.64543e-07
0.00109274
-6.08074e-07
1.02013e-06
2.3218e-08
5.58468e-07
-7.49915e-07
-1.3807e-06
-9.09311e-08
-1.58046e-06
1.16593e-06
5.65008e-07
0.00109318
-6.08276e-07
1.02291e-06
2.31323e-08
5.64296e-07
-7.55403e-07
-1.3863e-06
-8.85993e-08
0.0010959
1.13952e-06
-0.00109486
5.53144e-07
-1.57495e-06
3.27931e-08
-6.02917e-07
-1.37507e-06
-7.70518e-08
-7.41475e-07
5.73607e-07
1.03426e-06
0.00109634
1.1392e-06
-0.0010953
5.5429e-07
-1.57789e-06
3.23105e-08
-6.03287e-07
-1.38066e-06
-7.46909e-08
-7.44233e-07
5.79483e-07
-5.98541e-07
-6.03262e-07
0.000266641
-9.95273e-07
0.000269501
-0.000267342
-6.69341e-08
-6.19511e-08
5.64407e-07
0.0010938
-6.03067e-07
9.80813e-07
1.77203e-08
5.61507e-07
-7.55211e-07
-1.38331e-06
-8.85527e-08
-1.57511e-06
1.16539e-06
5.64802e-07
0.00109286
-6.08199e-07
1.01754e-06
2.32377e-08
5.61498e-07
-7.5499e-07
-1.38314e-06
-8.85233e-08
0.00109696
1.14008e-06
-0.00109592
5.53294e-07
-1.53636e-06
2.6807e-08
-5.978e-07
-1.37766e-06
-7.46937e-08
-7.44069e-07
5.76653e-07
1.02912e-06
0.00109601
1.13867e-06
-0.00109497
5.53486e-07
-1.57231e-06
3.2809e-08
-6.03018e-07
-1.37753e-06
-7.47033e-08
-7.43883e-07
5.76594e-07
1.16557e-06
5.6455e-07
0.00109265
-6.02688e-07
1.01207e-06
1.77892e-08
5.58815e-07
-7.52315e-07
-9.06865e-08
-1.38047e-06
1.14186e-06
-0.00109565
5.53138e-07
-1.53869e-06
2.7226e-08
-5.97286e-07
-1.37589e-06
-7.75115e-08
5.72962e-07
-7.4218e-07
1.02372e-06
0.00109581
1.13911e-06
-0.00109477
5.53044e-07
-1.56692e-06
2.69601e-08
-5.97374e-07
-1.37489e-06
-7.67917e-08
-7.41169e-07
5.73911e-07
-5.95976e-07
-6.03347e-07
0.000266599
-9.89679e-07
0.000269451
-0.0002673
-6.98299e-08
-6.16315e-08
1.16681e-06
5.64008e-07
0.00109371
-6.00262e-07
9.78266e-07
1.51956e-08
5.56033e-07
-7.52707e-07
-9.08435e-08
-1.37818e-06
1.1402e-06
-0.00109531
5.52752e-07
-1.53336e-06
2.43592e-08
-5.94641e-07
-1.37483e-06
-7.47191e-08
5.73683e-07
-7.43951e-07
9.89798e-07
0.00109687
1.14026e-06
-0.00109583
5.52869e-07
-1.53364e-06
2.43476e-08
-5.94921e-07
-1.3726e-06
-7.6974e-08
-7.41591e-07
5.71122e-07
-0.000267313
-6.70731e-08
-6.17424e-08
1.57428e-06
1.53556e-06
-5.86201e-07
-5.91687e-07
0.000267542
-1.04512e-06
-1.00568e-06
0.000270356
-0.0002682
-5.55048e-08
-4.95853e-08
5.4939e-07
0.00109693
-6.01625e-07
1.03524e-06
3.70843e-08
5.7852e-07
-7.38071e-07
-1.3733e-06
-7.28007e-08
-1.57726e-06
1.13074e-06
5.50621e-07
0.00109737
-6.02027e-07
1.03776e-06
3.65915e-08
5.84409e-07
-7.40819e-07