/*--------------------------------*- C++ -*----------------------------------*\
| =========                 |                                                 |
| \\      /  F ield         | OpenFOAM: The Open Source CFD Toolbox           |
|  \\    /   O peration     | Version:  v1906                                 |
|   \\  /    A nd           | Web:      www.OpenFOAM.com                      |
|    \\/     M anipulation  |                                                 |
\*---------------------------------------------------------------------------*/
FoamFile
{
    version     2.0;
    format      ascii;
    class       volVectorField;
    location    "150";
    object      U;
}
// * * * * * * * * * * * * * * * * * * * * * * * * * * * * * * * * * * * * * //

dimensions      [0 1 -1 0 0 0 0];


internalField   nonuniform List<vector> 
42616
(
(0.000106153 0.000106081 0.100295)
(-0.000184512 0.00011534 0.10039)
(0.000115473 -0.000184806 0.10039)
(-0.000248042 -0.000248102 0.100397)
(9.71017e-05 9.70959e-05 0.100854)
(-0.000151342 9.33922e-05 0.100938)
(9.35109e-05 -0.0001514 0.100938)
(-0.000194246 -0.000194258 0.100971)
(9.70966e-05 9.70999e-05 0.101368)
(-0.000152278 9.08976e-05 0.101447)
(9.09415e-05 -0.000152324 0.101448)
(-0.000194714 -0.00019456 0.101474)
(9.48301e-05 9.48223e-05 0.101886)
(-0.000149205 8.70105e-05 0.101954)
(8.71184e-05 -0.000149301 0.101954)
(-0.000192267 -0.000192238 0.101967)
(9.14123e-05 9.14347e-05 0.102391)
(-0.000143585 8.23072e-05 0.102442)
(8.24717e-05 -0.00014364 0.102442)
(-0.000187045 -0.000187016 0.102436)
(8.79473e-05 8.79712e-05 0.102877)
(-0.000137664 7.83084e-05 0.102907)
(7.84306e-05 -0.000137695 0.102907)
(-0.000181547 -0.000181557 0.102875)
(8.47959e-05 8.48234e-05 0.103344)
(-0.000132276 7.5033e-05 0.103349)
(7.51423e-05 -0.000132282 0.103349)
(-0.000176888 -0.000176933 0.103285)
(8.2069e-05 8.2118e-05 0.103793)
(-0.000127678 7.24918e-05 0.103768)
(7.25437e-05 -0.000127557 0.103768)
(-0.000173138 -0.000173199 0.103668)
(7.97858e-05 7.98314e-05 0.104226)
(-0.000123708 7.05261e-05 0.104168)
(7.05522e-05 -0.000123463 0.104168)
(-0.000170207 -0.000170272 0.104027)
(7.78669e-05 7.78501e-05 0.104646)
(-0.000120197 6.91968e-05 0.104551)
(6.91681e-05 -0.000119932 0.104551)
(-0.000168038 -0.000168085 0.104363)
(7.61572e-05 7.6103e-05 0.105053)
(-0.000116949 6.81118e-05 0.104917)
(6.81531e-05 -0.000116778 0.104917)
(-0.000166444 -0.00016654 0.104678)
(7.45998e-05 7.45179e-05 0.10545)
(-0.000113896 6.71051e-05 0.105269)
(6.71759e-05 -0.000113815 0.105269)
(-0.000165091 -0.000165235 0.104972)
(7.3127e-05 7.30408e-05 0.105836)
(-0.00011118 6.60993e-05 0.105607)
(6.61912e-05 -0.000111189 0.105606)
(-0.000163969 -0.000164162 0.105246)
(7.16565e-05 7.15897e-05 0.106213)
(-0.000108726 6.50109e-05 0.10593)
(6.51048e-05 -0.000108725 0.10593)
(-0.000163 -0.000163085 0.105498)
(7.02141e-05 7.01722e-05 0.106581)
(-0.000106359 6.39689e-05 0.106239)
(6.40339e-05 -0.00010629 0.106239)
(-0.000161807 -0.000161777 0.105728)
(6.87911e-05 6.87692e-05 0.10694)
(-0.000104023 6.29781e-05 0.106534)
(6.30334e-05 -0.000103906 0.106534)
(-0.000160328 -0.000160282 0.105935)
(6.74019e-05 6.73939e-05 0.10729)
(-0.00010168 6.19996e-05 0.106814)
(6.20353e-05 -0.000101568 0.106813)
(-0.000158685 -0.000158666 0.106117)
(6.60698e-05 6.60828e-05 0.107631)
(-9.936e-05 6.10335e-05 0.107078)
(6.10591e-05 -9.93844e-05 0.107077)
(-0.000156843 -0.000156863 0.106275)
(6.47782e-05 6.48167e-05 0.107963)
(-9.73255e-05 6.01291e-05 0.107325)
(6.01036e-05 -9.74088e-05 0.107325)
(-0.000154755 -0.000154815 0.106405)
(6.35208e-05 6.35501e-05 0.108287)
(-9.54356e-05 5.91615e-05 0.107557)
(5.91395e-05 -9.5524e-05 0.107556)
(-0.000152324 -0.000152388 0.106509)
(6.2288e-05 6.23153e-05 0.108602)
(-9.35987e-05 5.81559e-05 0.10777)
(5.80889e-05 -9.36779e-05 0.10777)
(-0.000149512 -0.000149566 0.106585)
(0.000138349 0.000138165 0.100282)
(0.000126701 0.000160055 0.10023)
(-0.000126531 0.000160259 0.10023)
(-0.000137971 0.000138441 0.100282)
(0.000160265 0.000126576 0.10023)
(0.000160184 -0.000126596 0.10023)
(9.37328e-05 9.36254e-05 0.100152)
(-9.35201e-05 9.37098e-05 0.100152)
(9.3679e-05 -9.36713e-05 0.100152)
(-9.36049e-05 -9.36857e-05 0.100152)
(-0.000159632 0.000126762 0.10023)
(-0.000160069 -0.000126598 0.10023)
(0.000138174 -0.000138217 0.100282)
(0.000126594 -0.000160179 0.10023)
(-0.00012654 -0.000160102 0.10023)
(-0.000138138 -0.000138157 0.100282)
(0.00024821 0.000248132 0.100398)
(0.000112651 0.000112621 0.100897)
(0.000115498 0.000184674 0.10039)
(-0.000115389 0.000184851 0.10039)
(9.30731e-05 0.000148934 0.100817)
(-9.29527e-05 0.000148818 0.100817)
(-0.000247905 0.000248264 0.100398)
(-0.000112518 0.000112299 0.100896)
(0.000184952 0.000115379 0.10039)
(0.000184728 -0.000115429 0.10039)
(0.00014886 9.30902e-05 0.100817)
(0.000148771 -9.3011e-05 0.100817)
(-0.000184748 -0.000115546 0.10039)
(-0.000148767 9.28086e-05 0.100817)
(-0.000148901 -9.29072e-05 0.100817)
(0.000248064 -0.000248153 0.100398)
(0.000112552 -0.000112652 0.100896)
(-0.000115409 -0.00018478 0.10039)
(9.29822e-05 -0.000148802 0.100817)
(-9.30058e-05 -0.000148772 0.100817)
(-0.00011258 -0.000112597 0.100896)
(0.000194359 0.000194269 0.100971)
(0.000105497 0.000105385 0.101399)
(9.35695e-05 0.000151416 0.100938)
(-9.35024e-05 0.000151344 0.100938)
(9.14876e-05 0.000152235 0.101319)
(-9.14782e-05 0.00015224 0.101319)
(-0.00019424 0.000194013 0.100971)
(-0.000105464 0.000105249 0.101399)
(0.000151366 9.3606e-05 0.100938)
(0.000151286 -9.35618e-05 0.100938)
(0.000152233 9.15558e-05 0.101319)
(0.000152144 -9.14941e-05 0.101319)
(-0.000151394 -9.34012e-05 0.100938)
(-0.000152198 9.14455e-05 0.101319)
(-0.000152085 -9.13398e-05 0.101319)
(0.000194212 -0.000194386 0.100971)
(0.00010532 -0.0001055 0.101399)
(-9.35413e-05 -0.000151272 0.100938)
(9.14933e-05 -0.000152253 0.101319)
(-9.13464e-05 -0.000152175 0.101319)
(-0.00010533 -0.000105149 0.101399)
(0.000194901 0.000194777 0.101474)
(9.77975e-05 9.77391e-05 0.101896)
(9.09312e-05 0.000152349 0.101448)
(-9.09285e-05 0.000152329 0.101448)
(8.83282e-05 0.000150502 0.101829)
(-8.82377e-05 0.000150426 0.101829)
(-0.000194862 0.000194653 0.101474)
(-9.76358e-05 9.74695e-05 0.101896)
(0.000152334 9.10015e-05 0.101448)
(0.000152242 -9.09051e-05 0.101448)
(0.000150472 8.83803e-05 0.101829)
(0.000150358 -8.82096e-05 0.101829)
(-0.000152188 -9.08361e-05 0.101447)
(-0.000150369 8.81644e-05 0.101829)
(-0.000150482 -8.8328e-05 0.101829)
(0.000194713 -0.000194882 0.101474)
(9.7547e-05 -9.77134e-05 0.101896)
(-9.0822e-05 -0.000152297 0.101447)
(8.82517e-05 -0.000150449 0.101829)
(-8.83242e-05 -0.000150434 0.101829)
(-9.78147e-05 -9.7762e-05 0.101896)
(0.000192266 0.000192181 0.101967)
(8.84699e-05 8.84402e-05 0.10237)
(8.71971e-05 0.000149345 0.101954)
(-8.70896e-05 0.000149273 0.101954)
(8.36273e-05 0.000145219 0.102322)
(-8.3479e-05 0.000145192 0.102322)
(-0.000192106 0.000191959 0.101967)
(-8.82895e-05 8.82189e-05 0.10237)
(0.000149316 8.72486e-05 0.101954)
(0.000149203 -8.70877e-05 0.101954)
(0.000145151 8.37001e-05 0.102322)
(0.000145119 -8.35477e-05 0.102322)
(-0.000149373 -8.72286e-05 0.101954)
(-0.00014508 8.34698e-05 0.102322)
(-0.000145264 -8.36944e-05 0.102322)
(0.000192017 -0.000192181 0.101967)
(8.83173e-05 -8.84563e-05 0.10237)
(-8.72489e-05 -0.000149272 0.101954)
(8.36207e-05 -0.000145152 0.102322)
(-8.37666e-05 -0.000145122 0.102322)
(-8.85911e-05 -8.85212e-05 0.102371)
(0.000186992 0.000186922 0.102436)
(7.9657e-05 7.97014e-05 0.102816)
(8.2438e-05 0.000143725 0.102442)
(-8.23134e-05 0.000143718 0.102442)
(7.93255e-05 0.000139293 0.102793)
(-7.92309e-05 0.000139307 0.102793)
(-0.000186827 0.000186738 0.102435)
(-7.95394e-05 7.9612e-05 0.102816)
(0.000143641 8.25024e-05 0.102442)
(0.000143648 -8.23949e-05 0.102442)
(0.000139165 7.9367e-05 0.102793)
(0.000139258 -7.93141e-05 0.102793)
(-0.000143746 -8.24785e-05 0.102442)
(-0.000139122 7.92416e-05 0.102793)
(-0.000139247 -7.93112e-05 0.102793)
(0.000186819 -0.000186983 0.102436)
(7.97132e-05 -7.96391e-05 0.102817)
(-8.25703e-05 -0.000143616 0.102442)
(7.93715e-05 -0.000139151 0.102793)
(-7.93713e-05 -0.000139153 0.102793)
(-7.97021e-05 -7.96465e-05 0.102817)
(0.000181568 0.00018156 0.102875)
(7.18862e-05 7.19526e-05 0.103234)
(7.83852e-05 0.000137848 0.102907)
(-7.82978e-05 0.000137866 0.102907)
(7.58869e-05 0.000133748 0.10324)
(-7.57932e-05 0.000133722 0.10324)
(-0.000181439 0.00018147 0.102875)
(-7.17631e-05 7.18388e-05 0.103234)
(0.000137714 7.84194e-05 0.102907)
(0.000137814 -7.83745e-05 0.102907)
(0.000133591 7.59061e-05 0.10324)
(0.000133677 -7.58634e-05 0.10324)
(-0.000137789 -7.83716e-05 0.102907)
(-0.000133552 7.57877e-05 0.103241)
(-0.000133659 -7.58822e-05 0.10324)
(0.000181561 -0.000181558 0.102875)
(7.19463e-05 -7.18646e-05 0.103234)
(-7.84173e-05 -0.000137703 0.102907)
(7.59057e-05 -0.000133579 0.10324)
(-7.58915e-05 -0.000133602 0.10324)
(-7.19225e-05 -7.19052e-05 0.103234)
(0.000176919 0.000176932 0.103285)
(6.50653e-05 6.51504e-05 0.103626)
(7.51406e-05 0.00013245 0.103349)
(-7.50524e-05 0.000132415 0.103348)
(7.3167e-05 0.000128851 0.103665)
(-7.31284e-05 0.000128776 0.103665)
(-0.000176778 0.0001768 0.103285)
(-6.50383e-05 6.50088e-05 0.103626)
(0.000132291 7.51567e-05 0.103349)
(0.000132358 -7.51112e-05 0.103349)
(0.000128661 7.31913e-05 0.103665)
(0.000128705 -7.31388e-05 0.103665)
(-0.000132355 -7.51359e-05 0.103349)
(-0.000128764 7.30742e-05 0.103665)
(-0.000128739 -7.31602e-05 0.103665)
(0.0001769 -0.000176903 0.103285)
(6.5092e-05 -6.50624e-05 0.103626)
(-7.51375e-05 -0.000132306 0.103349)
(7.3141e-05 -0.00012868 0.103665)
(-7.31617e-05 -0.000128713 0.103665)
(-6.51052e-05 -6.51068e-05 0.103626)
(0.000173165 0.000173176 0.103668)
(5.91234e-05 5.92505e-05 0.103993)
(7.25734e-05 0.000127711 0.103768)
(-7.25681e-05 0.000127637 0.103768)
(7.10331e-05 0.000124567 0.10407)
(-7.10881e-05 0.000124484 0.10407)
(-0.000173128 0.000173031 0.103668)
(-5.92317e-05 5.91173e-05 0.103993)
(0.000127531 7.26027e-05 0.103768)
(0.000127565 -7.25546e-05 0.103768)
(0.0001244 7.10696e-05 0.10407)
(0.000124434 -7.10204e-05 0.10407)
(-0.000127612 -7.25684e-05 0.103768)
(-0.000124656 7.09698e-05 0.10407)
(-0.000124485 -7.09968e-05 0.10407)
(0.000173101 -0.000173164 0.103668)
(5.91957e-05 -5.91122e-05 0.103993)
(-7.25739e-05 -0.000127589 0.103768)
(7.09958e-05 -0.000124433 0.10407)
(-7.10173e-05 -0.000124465 0.10407)
(-5.9159e-05 -5.91419e-05 0.103993)
(0.000170262 0.00017022 0.104027)
(5.4167e-05 5.43602e-05 0.104338)
(7.06222e-05 0.000123598 0.104168)
(-7.06865e-05 0.000123508 0.104168)
(6.96823e-05 0.00012093 0.104457)
(-6.97493e-05 0.000120832 0.104456)
(-0.000170344 0.000170087 0.104027)
(-5.43083e-05 5.42702e-05 0.104338)
(0.000123434 7.06329e-05 0.104168)
(0.000123468 -7.06062e-05 0.104168)
(0.000120776 6.95854e-05 0.104457)
(0.000120819 -6.96301e-05 0.104457)
(-0.000123506 -7.05292e-05 0.104168)
(-0.000121045 6.94994e-05 0.104457)
(-0.000120802 -6.94373e-05 0.104457)
(0.000170144 -0.000170265 0.104027)
(5.433e-05 -5.40536e-05 0.104339)
(-7.055e-05 -0.000123486 0.104168)
(6.94597e-05 -0.000120773 0.104457)
(-6.9404e-05 -0.000120785 0.104457)
(-5.41252e-05 -5.40526e-05 0.104338)
(0.000168171 0.000168184 0.104363)
(4.97653e-05 4.98962e-05 0.104663)
(6.94003e-05 0.000120093 0.104551)
(-6.94588e-05 0.000119989 0.104551)
(6.86628e-05 0.000117732 0.104827)
(-6.86471e-05 0.000117611 0.104827)
(-0.000168267 0.000168078 0.104363)
(-4.9758e-05 4.9818e-05 0.104663)
(0.000119944 6.92912e-05 0.104551)
(0.000119985 -6.93471e-05 0.104551)
(0.000117587 6.85171e-05 0.104827)
(0.000117631 -6.85753e-05 0.104827)
(-0.000119957 -6.91487e-05 0.104551)
(-0.000117746 6.83772e-05 0.104827)
(-0.000117567 -6.83707e-05 0.104827)
(0.00016813 -0.000168104 0.104363)
(4.98715e-05 -4.96536e-05 0.104663)
(-6.91029e-05 -0.000119944 0.104551)
(6.84055e-05 -0.000117551 0.104827)
(-6.82958e-05 -0.000117565 0.104827)
(-4.96476e-05 -4.96486e-05 0.104663)
(0.000166639 0.000166616 0.104678)
(4.55753e-05 4.56198e-05 0.104968)
(6.84034e-05 0.000116947 0.104917)
(-6.83764e-05 0.000116833 0.104917)
(6.76637e-05 0.000114706 0.105182)
(-6.75909e-05 0.000114599 0.105182)
(-0.000166626 0.000166534 0.104678)
(-4.54992e-05 4.56054e-05 0.104968)
(0.000116814 6.82507e-05 0.104917)
(0.000116855 -6.83189e-05 0.104917)
(0.000114586 6.74939e-05 0.105182)
(0.000114624 -6.75754e-05 0.105182)
(-0.000116796 -6.81199e-05 0.104917)
(-0.000114642 6.73552e-05 0.105183)
(-0.000114558 -6.7385e-05 0.105182)
(0.000166581 -0.000166565 0.104678)
(4.56384e-05 -4.54977e-05 0.104968)
(-6.80346e-05 -0.000116798 0.104917)
(6.74228e-05 -0.000114546 0.105182)
(-6.72804e-05 -0.000114569 0.105182)
(-4.54152e-05 -4.5495e-05 0.104968)
(0.00016531 0.000165239 0.104972)
(4.16146e-05 4.16043e-05 0.105253)
(6.74132e-05 0.000113975 0.105269)
(-6.73266e-05 0.000113858 0.105269)
(6.66612e-05 0.000111918 0.105523)
(-6.65392e-05 0.00011184 0.105524)
(-0.000165208 0.000165198 0.104973)
(-4.15337e-05 4.16149e-05 0.105254)
(0.000113847 6.72437e-05 0.105269)
(0.000113885 -6.73278e-05 0.105269)
(0.000111832 6.65056e-05 0.105523)
(0.00011187 -6.65749e-05 0.105523)
(-0.000113829 -6.71411e-05 0.105269)
(-0.000111822 6.63586e-05 0.105524)
(-0.000111805 -6.63992e-05 0.105523)
(0.000165238 -0.00016525 0.104972)
(4.16299e-05 -4.15909e-05 0.105254)
(-6.70332e-05 -0.000113844 0.105269)
(6.64488e-05 -0.00011182 0.105523)
(-6.63069e-05 -0.000111812 0.105523)
(-4.14688e-05 -4.1591e-05 0.105254)
(0.000164158 0.000164044 0.105246)
(3.76579e-05 3.77485e-05 0.105519)
(6.63924e-05 0.000111276 0.105606)
(-6.62751e-05 0.000111205 0.105607)
(6.56029e-05 0.000109415 0.10585)
(-6.5505e-05 0.000109341 0.105851)
(-0.000164086 0.000164025 0.105246)
(-3.75406e-05 3.76716e-05 0.10552)
(0.000111197 6.62552e-05 0.105607)
(0.000111229 -6.63139e-05 0.105606)
(0.000109341 6.54493e-05 0.10585)
(0.000109377 -6.5553e-05 0.10585)
(-0.000111178 -6.61438e-05 0.105607)
(-0.000109328 6.52795e-05 0.105851)
(-0.000109353 -6.53894e-05 0.10585)
(0.000164059 -0.000164176 0.105246)
(3.77613e-05 -3.75922e-05 0.105519)
(-6.60546e-05 -0.000111173 0.105606)
(6.538e-05 -0.000109335 0.10585)
(-6.52843e-05 -0.000109309 0.10585)
(-3.76168e-05 -3.75815e-05 0.105519)
(0.000163103 0.000163026 0.105497)
(3.35081e-05 3.3635e-05 0.105764)
(6.53347e-05 0.000108792 0.10593)
(-6.52499e-05 0.000108727 0.10593)
(6.45686e-05 0.000106976 0.106163)
(-6.45388e-05 0.000106905 0.106163)
(-0.000163023 0.000162952 0.105498)
(-3.34121e-05 3.35106e-05 0.105764)
(0.000108724 6.51837e-05 0.10593)
(0.000108761 -6.52907e-05 0.10593)
(0.000106912 6.44085e-05 0.106163)
(0.000106946 -6.45508e-05 0.106163)
(-0.000108755 -6.51316e-05 0.10593)
(-0.000106943 6.42234e-05 0.106164)
(-0.000106978 -6.43797e-05 0.106163)
(0.000163019 -0.000163099 0.105498)
(3.36798e-05 -3.34192e-05 0.105764)
(-6.50323e-05 -0.000108694 0.10593)
(6.42965e-05 -0.000106896 0.106163)
(-6.42701e-05 -0.000106858 0.106163)
(-3.35328e-05 -3.33642e-05 0.105764)
(0.000161837 0.000161809 0.105727)
(2.94174e-05 2.95046e-05 0.105986)
(6.43151e-05 0.000106362 0.106239)
(-6.42998e-05 0.000106307 0.106239)
(6.35556e-05 0.000104587 0.106461)
(-6.35974e-05 0.000104542 0.106462)
(-0.000161805 0.000161694 0.105728)
(-2.93757e-05 2.93905e-05 0.105987)
(0.000106306 6.41527e-05 0.106239)
(0.000106342 -6.43025e-05 0.106239)
(0.000104529 6.34183e-05 0.106461)
(0.000104566 -6.35605e-05 0.106461)
(-0.000106389 -6.41302e-05 0.106239)
(-0.000104605 6.32361e-05 0.106462)
(-0.000104628 -6.33762e-05 0.106461)
(0.000161819 -0.000161833 0.105728)
(2.9544e-05 -2.93454e-05 0.105986)
(-6.40255e-05 -0.00010625 0.106239)
(6.32841e-05 -0.000104499 0.106461)
(-6.32879e-05 -0.00010445 0.106461)
(-2.94268e-05 -2.92544e-05 0.105986)
(0.000160354 0.000160313 0.105934)
(2.55559e-05 2.56281e-05 0.106186)
(6.33009e-05 0.000103985 0.106533)
(-6.33384e-05 0.00010395 0.106534)
(6.2539e-05 0.000102253 0.106745)
(-6.25884e-05 0.000102219 0.106745)
(-0.000160364 0.00016021 0.105935)
(-2.5532e-05 2.55114e-05 0.106187)
(0.000103933 6.31567e-05 0.106534)
(0.000103978 -6.33094e-05 0.106533)
(0.000102195 6.24194e-05 0.106745)
(0.000102235 -6.25461e-05 0.106745)
(-0.000104047 -6.31178e-05 0.106534)
(-0.000102262 6.22461e-05 0.106745)
(-0.000102288 -6.23551e-05 0.106745)
(0.000160331 -0.000160366 0.105935)
(2.56547e-05 -2.54826e-05 0.106186)
(-6.30366e-05 -0.000103858 0.106534)
(6.22871e-05 -0.000102145 0.106745)
(-6.22756e-05 -0.00010209 0.106745)
(-2.55329e-05 -2.53987e-05 0.106186)
(0.000158733 0.000158691 0.106117)
(2.19941e-05 2.20699e-05 0.106361)
(6.22814e-05 0.000101657 0.106813)
(-6.23197e-05 0.000101654 0.106813)
(6.15236e-05 9.9995e-05 0.107012)
(-6.15347e-05 9.99565e-05 0.107013)
(-0.000158748 0.000158608 0.106118)
(-2.19282e-05 2.19627e-05 0.106361)
(0.000101604 6.21542e-05 0.106813)
(0.000101653 -6.22861e-05 0.106813)
(9.99435e-05 6.1431e-05 0.107013)
(9.99867e-05 -6.1524e-05 0.107013)
(-0.000101715 -6.20931e-05 0.106813)
(-9.99126e-05 6.12664e-05 0.107013)
(-9.99617e-05 -6.13305e-05 0.107013)
(0.000158707 -0.000158751 0.106117)
(2.20764e-05 -2.19163e-05 0.106361)
(-6.20131e-05 -0.000101517 0.106813)
(6.12965e-05 -9.98834e-05 0.107013)
(-6.12423e-05 -9.97753e-05 0.107013)
(-2.19386e-05 -2.18546e-05 0.106361)
(0.000156921 0.000156897 0.106274)
(1.86728e-05 1.87488e-05 0.10651)
(6.12844e-05 9.95015e-05 0.107077)
(-6.12741e-05 9.94336e-05 0.107077)
(6.05567e-05 9.80083e-05 0.107264)
(-6.05299e-05 9.79386e-05 0.107265)
(-0.000156889 0.000156832 0.106275)
(-1.85792e-05 1.86837e-05 0.10651)
(9.94331e-05 6.11744e-05 0.107077)
(9.94902e-05 -6.12773e-05 0.107077)
(9.796e-05 6.05013e-05 0.107265)
(9.79922e-05 -6.05435e-05 0.107264)
(-9.94206e-05 -6.10815e-05 0.107077)
(-9.78079e-05 6.03537e-05 0.107265)
(-9.78719e-05 -6.03659e-05 0.107265)
(0.000156899 -0.000156932 0.106274)
(1.87468e-05 -1.85956e-05 0.10651)
(-6.09923e-05 -9.92386e-05 0.107077)
(6.03449e-05 -9.7882e-05 0.107265)
(-6.02568e-05 -9.77214e-05 0.107265)
(-1.85821e-05 -1.85495e-05 0.10651)
(0.000154854 0.000154853 0.106405)
(1.55229e-05 1.55944e-05 0.106631)
(6.03214e-05 9.75927e-05 0.107325)
(-6.02818e-05 9.74803e-05 0.107325)
(5.95854e-05 9.60773e-05 0.1075)
(-5.95298e-05 9.60824e-05 0.1075)
(-0.000154798 0.000154827 0.106405)
(-1.538e-05 1.55658e-05 0.106632)
(9.74711e-05 6.02447e-05 0.107325)
(9.75246e-05 -6.02911e-05 0.107325)
(9.60563e-05 5.9543e-05 0.1075)
(9.60807e-05 -5.95454e-05 0.1075)
(-9.73977e-05 -6.01207e-05 0.107325)
(-9.5882e-05 5.94041e-05 0.1075)
(-9.59384e-05 -5.93862e-05 0.1075)
(0.000154818 -0.000154848 0.106405)
(1.55661e-05 -1.54225e-05 0.106631)
(-6.00171e-05 -9.72565e-05 0.107325)
(5.93723e-05 -9.59754e-05 0.1075)
(-5.92768e-05 -9.58283e-05 0.1075)
(-1.541e-05 -1.5391e-05 0.106631)
(0.000152448 0.000152477 0.106508)
(1.2559e-05 1.25678e-05 0.106725)
(5.93416e-05 9.56766e-05 0.107556)
(-5.92838e-05 9.56487e-05 0.107556)
(5.85647e-05 9.41502e-05 0.107718)
(-5.85044e-05 9.42795e-05 0.107718)
(-0.000152339 0.000152438 0.106509)
(-1.23859e-05 1.25532e-05 0.106726)
(9.55845e-05 5.92449e-05 0.107556)
(9.56392e-05 -5.93018e-05 0.107556)
(9.42192e-05 5.85335e-05 0.107718)
(9.42299e-05 -5.85084e-05 0.107718)
(-9.55038e-05 -5.91472e-05 0.107556)
(-9.40365e-05 5.84159e-05 0.107718)
(-9.40802e-05 -5.83619e-05 0.107718)
(0.000152395 -0.000152418 0.106508)
(1.25706e-05 -1.24115e-05 0.106725)
(-5.90398e-05 -9.53943e-05 0.107556)
(5.83524e-05 -9.41185e-05 0.107718)
(-5.82553e-05 -9.39883e-05 0.107718)
(-1.24137e-05 -1.23984e-05 0.106725)
(0.000149597 0.000149659 0.106584)
(5.83025e-05 9.3809e-05 0.10777)
(-5.82292e-05 9.38678e-05 0.10777)
(-0.000149516 0.000149615 0.106585)
(9.37429e-05 5.81969e-05 0.107769)
(9.38124e-05 -5.82383e-05 0.107769)
(-9.3685e-05 -5.8102e-05 0.10777)
(0.000149598 -0.000149608 0.106585)
(-5.80024e-05 -9.35767e-05 0.10777)
(-3.96756e-07 -3.96493e-07 0.0999987)
(1.81457e-05 1.81418e-05 0.100004)
(-1.92649e-07 1.34141e-05 0.1)
(1.34125e-05 -1.88371e-07 0.1)
(-5.19405e-05 7.18236e-06 0.100012)
(-2.01871e-05 1.84657e-05 0.100002)
(-0.00013144 5.92076e-05 0.100064)
(-1.24297e-05 -5.23071e-07 0.0999962)
(7.11019e-06 -5.16557e-05 0.100012)
(1.84578e-05 -2.01301e-05 0.100002)
(-5.34925e-07 -1.24185e-05 0.0999962)
(5.89256e-05 -0.000136686 0.10007)
(-2.44019e-05 -2.44363e-05 0.100007)
(-0.000134213 -8.0549e-05 0.100055)
(-8.06165e-05 -0.00013437 0.100056)
(-1.36045e-05 0.000148034 0.100667)
(0.00022631 0.000575761 0.0996059)
(9.72209e-06 0.000336101 0.100561)
(-3.97327e-05 0.000367186 0.0990341)
(-0.000412568 0.000953447 0.0979492)
(-0.000210229 0.000401914 0.0956616)
(0.000146982 -1.286e-05 0.100667)
(0.000578826 0.000224534 0.0996112)
(0.0003364 1.12399e-05 0.100562)
(0.000367337 -3.89854e-05 0.0990365)
(-0.000105994 0.0001061 0.100295)
(0.000106075 -0.000106056 0.100295)
(-0.000106044 -0.000106122 0.100295)
(9.47447e-05 9.47269e-05 0.100733)
(-9.47303e-05 9.45872e-05 0.100732)
(9.47017e-05 -9.47658e-05 0.100732)
(-9.47028e-05 -9.47047e-05 0.100733)
(-0.000253902 6.13834e-06 0.100718)
(-0.00038304 0.000205282 0.100572)
(-0.000168948 3.99251e-05 0.100332)
(-0.000145857 8.91469e-05 0.100561)
(-0.000334923 2.66134e-05 0.100494)
(-0.000149378 0.000168593 0.100663)
(-0.000141797 3.24476e-05 0.100498)
(0.000952402 -0.000408583 0.0979449)
(0.000401703 -0.000208116 0.0956605)
(5.72818e-06 -0.000253198 0.100718)
(3.99612e-05 -0.000168973 0.100332)
(0.000206092 -0.000387424 0.100571)
(8.91957e-05 -0.000145912 0.100561)
(2.67526e-05 -0.000335362 0.100495)
(3.23992e-05 -0.000141619 0.100498)
(0.000169286 -0.000150558 0.100658)
(-0.000415813 -0.000169594 0.10045)
(-0.000169362 -0.000416261 0.10045)
(-0.000112906 -0.000112908 0.100645)
(-2.22285e-05 -9.05579e-05 0.100487)
(-9.09005e-05 -2.23628e-05 0.100487)
(9.54416e-07 0.00017734 0.100868)
(-4.51745e-05 0.0003568 0.0983226)
(-3.50212e-06 0.000192186 0.10078)
(-3.8468e-05 0.000318873 0.0979411)
(-0.000195737 0.000322884 0.0926247)
(-0.00017104 0.000277549 0.0910029)
(0.000177132 9.00446e-07 0.100868)
(0.000357209 -4.54905e-05 0.0983241)
(0.000191767 -3.47336e-06 0.10078)
(0.00031941 -3.95208e-05 0.0979426)
(-9.70897e-05 9.69868e-05 0.100854)
(9.70928e-05 -9.71727e-05 0.100854)
(-9.70789e-05 -9.70375e-05 0.100854)
(9.72749e-05 9.72834e-05 0.101238)
(-9.72474e-05 9.72336e-05 0.101238)
(9.72627e-05 -9.73218e-05 0.101238)
(-9.72097e-05 -9.72042e-05 0.101238)
(-0.000248421 1.96864e-05 0.101155)
(-0.000205068 0.00019817 0.100825)
(-0.000156535 3.04009e-05 0.100889)
(-0.000151785 9.26465e-05 0.101063)
(-0.000288879 1.81739e-05 0.100986)
(-0.000171259 0.000183398 0.10095)
(-0.000158546 3.05497e-05 0.101015)
(0.000323208 -0.000194876 0.0926206)
(0.000277625 -0.000170398 0.0910026)
(2.01277e-05 -0.000248327 0.101155)
(3.05487e-05 -0.000156453 0.100889)
(0.000197992 -0.000205089 0.100823)
(9.27254e-05 -0.000151869 0.101063)
(1.84675e-05 -0.000288629 0.100985)
(3.06981e-05 -0.000158509 0.101015)
(0.000183225 -0.000171581 0.100947)
(-5.83876e-05 -9.12466e-05 0.10044)
(-9.15018e-05 -5.82687e-05 0.10044)
(-0.000108595 -0.000108489 0.101146)
(-6.22162e-05 -7.25719e-05 0.100441)
(-7.26634e-05 -6.26657e-05 0.100439)
(4.51484e-06 0.000195524 0.100968)
(-1.95432e-05 0.000325998 0.0971196)
(2.81393e-06 0.000222875 0.100898)
(-1.08413e-05 0.000284427 0.0967091)
(-0.000147155 0.000232362 0.0883757)
(-0.000119514 0.000189272 0.0870745)
(0.000195573 3.84992e-06 0.100967)
(0.00032662 -2.03306e-05 0.0971214)
(0.000223006 2.43621e-06 0.100899)
(0.00028495 -1.13201e-05 0.0967108)
(-9.70633e-05 9.70554e-05 0.101368)
(9.70706e-05 -9.71112e-05 0.101368)
(-9.70215e-05 -9.70381e-05 0.101368)
(9.55807e-05 9.55703e-05 0.101758)
(-9.55615e-05 9.55302e-05 0.101758)
(9.55271e-05 -9.55659e-05 0.101758)
(-9.55531e-05 -9.55754e-05 0.101758)
(-0.000242265 1.83566e-05 0.101587)
(-0.000220682 0.000188029 0.101028)
(-0.000161122 3.06642e-05 0.101404)
(-0.000151997 9.01659e-05 0.101575)
(-0.000287913 1.86299e-05 0.101417)
(-0.000177064 0.000164076 0.101136)
(-0.000161391 3.05753e-05 0.101534)
(0.000232351 -0.000146493 0.0883701)
(0.000189438 -0.00011895 0.0870739)
(1.84512e-05 -0.000242158 0.101587)
(3.07226e-05 -0.000161157 0.101404)
(0.000187991 -0.000220936 0.101027)
(9.02238e-05 -0.000152044 0.101575)
(1.88256e-05 -0.000287758 0.101417)
(3.06104e-05 -0.000161433 0.101534)
(0.000163956 -0.000177234 0.101132)
(-9.64933e-05 -8.54256e-05 0.100185)
(-8.55294e-05 -9.73333e-05 0.100179)
(-0.000101904 -0.000101797 0.10165)
(-9.35273e-05 -6.25591e-05 0.100118)
(-6.26775e-05 -9.40945e-05 0.100111)
(3.39796e-06 0.00019791 0.100969)
(5.72606e-06 0.000289919 0.0958314)
(3.10141e-06 0.000234122 0.100922)
(1.02736e-05 0.000245268 0.0954157)
(-9.83138e-05 0.000157077 0.0849626)
(-7.35108e-05 0.000120027 0.0839761)
(0.000197794 2.97414e-06 0.100969)
(0.00029035 5.19394e-06 0.0958329)
(0.000234199 2.57322e-06 0.100923)
(0.000245596 9.96349e-06 0.0954176)
(-9.48185e-05 9.47818e-05 0.101886)
(9.47787e-05 -9.48198e-05 0.101886)
(-9.48292e-05 -9.48384e-05 0.101886)
(9.22952e-05 9.23127e-05 0.102267)
(-9.23075e-05 9.22895e-05 0.102267)
(9.22974e-05 -9.22999e-05 0.102267)
(-9.23393e-05 -9.23136e-05 0.102267)
(-0.000230875 1.60195e-05 0.101987)
(-0.000219876 0.000166146 0.101141)
(-0.000159823 2.99313e-05 0.101919)
(-0.000147916 8.58414e-05 0.102078)
(-0.000281913 1.61488e-05 0.101825)
(-0.000171254 0.000138875 0.101229)
(-0.000158814 2.96711e-05 0.102046)
(0.000157074 -9.77951e-05 0.0849577)
(0.000120061 -7.32559e-05 0.0839772)
(1.62112e-05 -0.000230851 0.101987)
(2.99537e-05 -0.000159898 0.101919)
(0.000165862 -0.000219985 0.101138)
(8.59631e-05 -0.000148012 0.102078)
(1.63239e-05 -0.000281911 0.101825)
(2.96943e-05 -0.000158865 0.102046)
(0.000138482 -0.000171267 0.101224)
(-0.000118643 -7.56116e-05 0.0997242)
(-7.54244e-05 -0.000118562 0.0997176)
(-9.33071e-05 -9.3241e-05 0.102137)
(-0.00010966 -5.17111e-05 0.0996094)
(-5.14522e-05 -0.000109463 0.0996041)
(1.05672e-06 0.000191193 0.100874)
(1.87731e-05 0.000251674 0.0945299)
(1.0024e-06 0.000233426 0.100847)
(1.84855e-05 0.000205871 0.0941346)
(-6.03423e-05 0.000103269 0.0823295)
(-4.03555e-05 7.26973e-05 0.0816057)
(0.00019106 8.48021e-07 0.100873)
(0.000251881 1.85873e-05 0.0945309)
(0.000233402 8.36405e-07 0.100849)
(0.000206049 1.8573e-05 0.0941365)
(-9.14243e-05 9.14181e-05 0.102391)
(9.14319e-05 -9.14178e-05 0.102391)
(-9.14554e-05 -9.14224e-05 0.102391)
(8.87946e-05 8.88194e-05 0.102758)
(-8.87848e-05 8.88195e-05 0.102758)
(8.88486e-05 -8.88095e-05 0.102758)
(-8.88253e-05 -8.87971e-05 0.102758)
(-0.000216116 1.41135e-05 0.102346)
(-0.000211477 0.000143781 0.101159)
(-0.00015494 2.88944e-05 0.102419)
(-0.000142089 8.12381e-05 0.102561)
(-0.000270737 1.39244e-05 0.102194)
(-0.00016075 0.000115337 0.10123)
(-0.000153482 2.86481e-05 0.102541)
(0.000103127 -6.0217e-05 0.0823254)
(7.26383e-05 -4.02582e-05 0.0816066)
(1.42623e-05 -0.000215997 0.102346)
(2.89173e-05 -0.000154947 0.102419)
(0.000143431 -0.00021139 0.101155)
(8.13808e-05 -0.000142127 0.102561)
(1.41072e-05 -0.000270662 0.102193)
(2.86733e-05 -0.000153466 0.102541)
(0.000114886 -0.000160551 0.101225)
(-0.000126872 -6.69381e-05 0.099117)
(-6.67564e-05 -0.000126889 0.0991154)
(-8.39884e-05 -8.3914e-05 0.102597)
(-0.000113689 -4.28583e-05 0.0989741)
(-4.28074e-05 -0.000113918 0.0989728)
(-5.09876e-07 0.000179734 0.100692)
(2.05758e-05 0.000215499 0.0932785)
(-8.67245e-07 0.000226089 0.100683)
(1.72456e-05 0.000169602 0.0929192)
(-3.5228e-05 6.86199e-05 0.0803263)
(-1.90601e-05 4.25483e-05 0.0798034)
(0.000179608 -6.4794e-07 0.100691)
(0.000215594 2.06342e-05 0.0932783)
(0.00022611 -9.83054e-07 0.100685)
(0.000169733 1.74702e-05 0.0929207)
(-8.79257e-05 8.79716e-05 0.102877)
(8.80052e-05 -8.79626e-05 0.102877)
(-8.79729e-05 -8.79501e-05 0.102877)
(8.5545e-05 8.557e-05 0.103229)
(-8.55179e-05 8.55529e-05 0.103229)
(8.55907e-05 -8.55616e-05 0.103229)
(-8.55613e-05 -8.55559e-05 0.103229)
(-0.000200263 1.27141e-05 0.102663)
(-0.000199988 0.000124566 0.101092)
(-0.000148941 2.79385e-05 0.102898)
(-0.000136246 7.7427e-05 0.10302)
(-0.000257251 1.22058e-05 0.102519)
(-0.000148502 9.54231e-05 0.10115)
(-0.000147422 2.77202e-05 0.103015)
(6.87154e-05 -3.5267e-05 0.0803204)
(4.26092e-05 -1.89778e-05 0.0798021)
(1.2858e-05 -0.000200224 0.102662)
(2.79909e-05 -0.000148937 0.102898)
(0.000124285 -0.000199886 0.101089)
(7.75456e-05 -0.000136281 0.10302)
(1.23517e-05 -0.000257208 0.102518)
(2.77767e-05 -0.000147414 0.103015)
(9.51198e-05 -0.000148383 0.101145)
(-0.000126603 -6.0945e-05 0.098418)
(-6.09571e-05 -0.000126982 0.0984181)
(-7.56852e-05 -7.56499e-05 0.103029)
(-0.00011112 -3.71024e-05 0.0982592)
(-3.70859e-05 -0.00011146 0.0982584)
(-1.0191e-06 0.000166019 0.100437)
(1.58068e-05 0.000183812 0.0921134)
(-1.65911e-06 0.000215345 0.100443)
(1.09543e-05 0.000138257 0.0917971)
(-2.01444e-05 4.80141e-05 0.0787972)
(-6.31547e-06 2.4415e-05 0.0784222)
(0.000165809 -9.64034e-07 0.100436)
(0.000183904 1.59027e-05 0.0921126)
(0.000215323 -1.6126e-06 0.100444)
(0.000138408 1.12555e-05 0.0917982)
(-8.47793e-05 8.47979e-05 0.103344)
(8.48299e-05 -8.48121e-05 0.103344)
(-8.48099e-05 -8.48091e-05 0.103344)
(8.27113e-05 8.27562e-05 0.103682)
(-8.27642e-05 8.27206e-05 0.103682)
(8.27236e-05 -8.27406e-05 0.103682)
(-8.27367e-05 -8.27368e-05 0.103682)
(-0.000184825 1.19292e-05 0.102939)
(-0.000187811 0.000108825 0.100952)
(-0.000143024 2.71572e-05 0.103356)
(-0.000131053 7.43386e-05 0.103456)
(-0.000243404 1.10536e-05 0.102801)
(-0.000136381 7.91333e-05 0.100999)
(-0.000141631 2.70034e-05 0.103468)
(4.79496e-05 -1.99703e-05 0.0787903)
(2.45016e-05 -6.19543e-06 0.0784212)
(1.20038e-05 -0.000184844 0.102938)
(2.71916e-05 -0.000143022 0.103356)
(0.000108748 -0.000187747 0.100949)
(7.4435e-05 -0.000131038 0.103455)
(1.11802e-05 -0.000243466 0.1028)
(2.70175e-05 -0.000141609 0.103468)
(7.89498e-05 -0.000136206 0.100994)
(-0.000121936 -5.72671e-05 0.0976625)
(-5.70873e-05 -0.000122164 0.0976625)
(-6.83984e-05 -6.83951e-05 0.103433)
(-0.00010484 -3.3196e-05 0.0974966)
(-3.29576e-05 -0.000105039 0.0974956)
(-5.92494e-07 0.000151472 0.100123)
(8.23132e-06 0.000157297 0.0910502)
(-1.44916e-06 0.000202942 0.10014)
(3.11658e-06 0.000112298 0.0907771)
(-1.14869e-05 3.61821e-05 0.0776157)