/*--------------------------------*- C++ -*----------------------------------*\
| =========                 |                                                 |
| \\      /  F ield         | OpenFOAM: The Open Source CFD Toolbox           |
|  \\    /   O peration     | Version:  v1906                                 |
|   \\  /    A nd           | Web:      www.OpenFOAM.com                      |
|    \\/     M anipulation  |                                                 |
\*---------------------------------------------------------------------------*/
FoamFile
{
    version     2.0;
    format      ascii;
    class       volScalarField;
    location    "0.105";
    object      p;
}
// * * * * * * * * * * * * * * * * * * * * * * * * * * * * * * * * * * * * * //

dimensions      [0 2 -2 0 0 0 0];


internalField   nonuniform List<scalar> 
247104
(
9.66429e-13
1.4424e-09
1.32719e-09
1.06968e-09
7.67561e-10
1.11597e-09
1.34333e-09
1.35284e-09
1.43584e-09
1.51848e-09
1.54708e-09
1.29049e-09
1.11152e-09
1.32683e-09
1.56047e-09
1.48391e-09
1.34869e-09
1.55565e-09
1.28265e-09
8.7359e-10
7.00699e-10
9.16985e-10
1.33089e-09
1.55514e-09
1.29435e-09
1.11008e-09
1.30896e-09
8.80573e-10
3.96223e-10
2.14489e-10
4.44579e-10
9.46706e-10
1.33134e-09
1.03351e-09
6.27176e-10
8.34476e-10
1.13687e-09
7.11774e-10
2.18416e-10
3.57987e-11
2.67747e-10
7.80183e-10
1.15487e-09
7.41186e-10
1.16019e-09
1.3484e-09
9.28094e-10
4.49871e-10
2.69661e-10
4.98449e-10
9.94085e-10
1.37072e-09
1.08443e-09
1.36195e-09
1.57392e-09
1.33955e-09
9.51592e-10
7.82618e-10
9.9515e-10
1.38625e-09
1.57284e-09
1.32036e-09
1.36471e-09
1.49276e-09
1.56152e-09
1.33477e-09
1.15677e-09
1.37261e-09
1.57446e-09
1.45915e-09
1.30013e-09
1.03423e-09
7.41779e-10
1.08744e-09
1.32524e-09
-3.2982e-08
-3.51724e-08
-3.45911e-08
-3.58084e-08
-3.64134e-08
-3.63872e-08
-3.64579e-08
-3.41122e-08
-3.40077e-08
-3.46029e-08
-3.68745e-08
-4.03981e-08
-4.06548e-08
-4.06558e-08
-4.03982e-08
-3.64936e-08
-3.6221e-08
-3.58062e-08
-4.04002e-08
-4.05165e-08
-4.05295e-08
-4.05295e-08
-4.0516e-08
-4.03969e-08
-3.59019e-08
-3.45608e-08
-3.29831e-08
-3.64283e-08
-4.06544e-08
-4.05285e-08
-4.0403e-08
-4.0403e-08
-4.05286e-08
-4.06537e-08
-3.63358e-08
-3.40151e-08
-3.51252e-08
-3.63816e-08
-4.0653e-08
-4.05273e-08
-4.04019e-08
-4.04021e-08
-4.05276e-08
-4.06523e-08
-3.62243e-08
-3.66434e-08
-3.64403e-08
-4.0396e-08
-4.05134e-08
-4.05263e-08
-4.05267e-08
-4.0514e-08
-4.0395e-08
-3.62298e-08
-3.51408e-08
-3.41217e-08
-3.64908e-08
-4.03947e-08
-4.06503e-08
-4.06525e-08
-4.03979e-08
-3.65505e-08
-3.59318e-08
-3.40281e-08
-3.39832e-08
-3.62159e-08
-3.58902e-08
-3.63186e-08
-3.62193e-08
-3.6234e-08
-3.59381e-08
-3.2738e-08
-3.45857e-08
-3.39734e-08
-3.66285e-08
-3.51374e-08
-3.40453e-08
-5.3179e-08
-5.33763e-08
-5.36029e-08
-5.58434e-08
-5.58647e-08
-5.58629e-08
-5.58461e-08
-5.32649e-08
-5.32467e-08
-5.35998e-08
-5.63704e-08
-5.96159e-08
-5.98523e-08
-5.98548e-08
-5.96211e-08
-5.52981e-08
-5.5368e-08
-5.58448e-08
-5.96241e-08
-6.01545e-08
-6.01877e-08
-6.01885e-08
-6.01552e-08
-5.96165e-08
-5.45801e-08
-5.26658e-08
-5.31761e-08
-5.58635e-08
-5.98546e-08
-6.01896e-08
-6.02002e-08
-6.02002e-08
-6.01889e-08
-5.98523e-08
-5.47092e-08
-5.32636e-08
-5.33729e-08
-5.58607e-08
-5.98547e-08
-6.019e-08
-6.02006e-08
-6.02003e-08
-6.01883e-08
-5.98521e-08
-5.48585e-08
-5.55499e-08
-5.5845e-08
-5.96213e-08
-6.01553e-08
-6.01894e-08
-6.01897e-08
-6.01544e-08
-5.96187e-08
-5.4578e-08
-5.28026e-08
-5.32674e-08
-5.53e-08
-5.96203e-08
-5.9854e-08
-5.98577e-08
-5.96199e-08
-5.48045e-08
-5.49175e-08
-5.2838e-08
-5.3247e-08
-5.53737e-08
-5.45838e-08
-5.47119e-08
-5.48611e-08
-5.45801e-08
-5.49184e-08
-5.2657e-08
-5.26647e-08
-5.32602e-08
-5.55524e-08
-5.28003e-08
-5.28392e-08
-7.37137e-08
-7.38743e-08
-7.38963e-08
-7.63085e-08
-7.62936e-08
-7.6414e-08
-7.62122e-08
-7.35842e-08
-7.3591e-08
-7.38932e-08
-7.72192e-08
-8.02356e-08
-8.03141e-08
-8.03164e-08
-8.0236e-08
-7.58065e-08
-7.55461e-08
-7.63123e-08
-8.02355e-08
-8.04269e-08
-8.0438e-08
-8.04383e-08
-8.0426e-08
-8.02356e-08
-7.48139e-08
-7.30727e-08
-7.37123e-08
-7.62909e-08
-8.03157e-08
-8.04394e-08
-8.04463e-08
-8.04459e-08
-8.04374e-08
-8.0312e-08
-7.47322e-08
-7.37862e-08
-7.38733e-08
-7.64093e-08
-8.03158e-08
-8.04392e-08
-8.04465e-08
-8.04463e-08
-8.04377e-08
-8.03142e-08
-7.48411e-08
-7.58728e-08
-7.62113e-08
-8.02355e-08
-8.04266e-08
-8.04388e-08
-8.04394e-08
-8.04267e-08
-8.02358e-08
-7.46966e-08
-7.3324e-08
-7.35745e-08
-7.58121e-08
-8.02379e-08
-8.03148e-08
-8.03166e-08
-8.02333e-08
-7.47752e-08
-7.51314e-08
-7.3156e-08
-7.35766e-08
-7.55697e-08
-7.48183e-08
-7.47352e-08
-7.48433e-08
-7.47e-08
-7.5131e-08
-7.32596e-08
-7.30754e-08
-7.37913e-08
-7.58772e-08
-7.33232e-08
-7.31539e-08
-9.40824e-08
-9.42233e-08
-9.43698e-08
-9.68452e-08
-9.68287e-08
-9.70292e-08
-9.67273e-08
-9.40492e-08
-9.4011e-08
-9.43744e-08
-9.80642e-08
-1.00919e-07
-1.00939e-07
-1.00939e-07
-1.0092e-07
-9.65125e-08
-9.59742e-08
-9.68491e-08
-1.00922e-07
-1.00969e-07
-1.00971e-07
-1.00971e-07
-1.00969e-07
-1.0092e-07
-9.52149e-08
-9.3468e-08
-9.40769e-08
-9.68316e-08
-1.0094e-07
-1.00971e-07
-1.00972e-07
-1.00972e-07
-1.00971e-07
-1.0094e-07
-9.49573e-08
-9.41069e-08
-9.42271e-08
-9.70305e-08
-1.0094e-07
-1.00971e-07
-1.00972e-07
-1.00972e-07
-1.00971e-07
-1.00939e-07
-9.50459e-08
-9.61453e-08
-9.67267e-08
-1.0092e-07
-1.00969e-07
-1.00971e-07
-1.00971e-07
-1.00969e-07
-1.0092e-07
-9.50117e-08
-9.36522e-08
-9.40499e-08
-9.65119e-08
-1.00919e-07
-1.0094e-07
-1.00941e-07
-1.00921e-07
-9.50748e-08
-9.55292e-08
-9.35725e-08
-9.40142e-08
-9.59748e-08
-9.52153e-08
-9.49595e-08
-9.50471e-08
-9.50135e-08
-9.55302e-08
-9.3648e-08
-9.34691e-08
-9.41092e-08
-9.6147e-08
-9.36492e-08
-9.35702e-08
-1.14581e-07
-1.14714e-07
-1.14915e-07
-1.17406e-07
-1.17381e-07
-1.17636e-07
-1.1728e-07
-1.1459e-07
-1.14552e-07
-1.14916e-07
-1.18707e-07
-1.21531e-07
-1.21536e-07
-1.21537e-07
-1.21531e-07
-1.17141e-07
-1.16503e-07
-1.17411e-07
-1.21529e-07
-1.21543e-07
-1.21543e-07
-1.21543e-07
-1.21542e-07
-1.21529e-07
-1.15734e-07
-1.13982e-07
-1.14573e-07
-1.17382e-07
-1.21537e-07
-1.21543e-07
-1.21543e-07
-1.21542e-07
-1.21542e-07
-1.21536e-07
-1.15425e-07
-1.1458e-07
-1.14712e-07
-1.17642e-07
-1.21537e-07
-1.21543e-07
-1.21543e-07
-1.21543e-07
-1.21542e-07
-1.21534e-07
-1.15506e-07
-1.16605e-07
-1.17278e-07
-1.2153e-07
-1.21543e-07
-1.21543e-07
-1.21543e-07
-1.21543e-07
-1.21531e-07
-1.15504e-07
-1.14133e-07
-1.14589e-07
-1.17149e-07
-1.2153e-07
-1.21537e-07
-1.21537e-07
-1.2153e-07
-1.1555e-07
-1.16042e-07
-1.14095e-07
-1.14554e-07
-1.165e-07
-1.15732e-07
-1.15417e-07
-1.15503e-07
-1.15503e-07
-1.16044e-07
-1.14184e-07
-1.13981e-07
-1.14574e-07
-1.16601e-07
-1.14128e-07
-1.14094e-07
-1.35133e-07
-1.35261e-07
-1.35481e-07
-1.37979e-07
-1.37952e-07
-1.38224e-07
-1.37851e-07
-1.35157e-07
-1.3512e-07
-1.35478e-07
-1.39295e-07
-1.42115e-07
-1.42117e-07
-1.42118e-07
-1.42115e-07
-1.37736e-07
-1.37063e-07
-1.37984e-07
-1.42116e-07
-1.42118e-07
-1.42118e-07
-1.42119e-07
-1.42118e-07
-1.42114e-07
-1.36295e-07
-1.34539e-07
-1.35126e-07
-1.3795e-07
-1.42117e-07
-1.42119e-07
-1.42118e-07
-1.42118e-07
-1.42119e-07
-1.42117e-07
-1.35961e-07
-1.35125e-07
-1.35263e-07
-1.38224e-07
-1.42117e-07
-1.42119e-07
-1.42119e-07
-1.42119e-07
-1.42119e-07
-1.42118e-07
-1.36042e-07
-1.37144e-07
-1.37852e-07
-1.42117e-07
-1.42119e-07
-1.42119e-07
-1.42119e-07
-1.42119e-07
-1.42115e-07
-1.36064e-07
-1.34683e-07
-1.35156e-07
-1.37742e-07
-1.42117e-07
-1.42117e-07
-1.42118e-07
-1.42116e-07
-1.36095e-07
-1.36598e-07
-1.34654e-07
-1.35121e-07
-1.37065e-07
-1.36293e-07
-1.35963e-07
-1.36046e-07
-1.36059e-07
-1.36602e-07
-1.3475e-07
-1.34544e-07
-1.35124e-07
-1.37147e-07
-1.34685e-07
-1.34655e-07
-1.55701e-07
-1.5583e-07
-1.56053e-07
-1.58551e-07
-1.58525e-07
-1.58798e-07
-1.58425e-07
-1.55729e-07
-1.55693e-07
-1.56049e-07
-1.59878e-07
-1.62693e-07
-1.62695e-07
-1.62694e-07
-1.62694e-07
-1.58316e-07
-1.57633e-07
-1.58558e-07
-1.62695e-07
-1.62695e-07
-1.62695e-07
-1.62695e-07
-1.62695e-07
-1.62695e-07
-1.5687e-07
-1.55111e-07
-1.55694e-07
-1.58523e-07
-1.62695e-07
-1.62695e-07
-1.62695e-07
-1.62695e-07
-1.62695e-07
-1.62695e-07
-1.56527e-07
-1.55696e-07
-1.5583e-07
-1.58797e-07
-1.62695e-07
-1.62695e-07
-1.62695e-07
-1.62695e-07
-1.62695e-07
-1.62695e-07
-1.56609e-07
-1.57712e-07
-1.58428e-07
-1.62694e-07
-1.62696e-07
-1.62696e-07
-1.62695e-07
-1.62695e-07
-1.62695e-07
-1.56634e-07
-1.55253e-07
-1.55731e-07
-1.58318e-07
-1.62694e-07
-1.62697e-07
-1.62695e-07
-1.62694e-07
-1.56664e-07
-1.57175e-07
-1.55227e-07
-1.55698e-07
-1.57635e-07
-1.56868e-07
-1.56527e-07
-1.56607e-07
-1.56633e-07
-1.57173e-07
-1.55321e-07
-1.55114e-07
-1.55692e-07
-1.57711e-07
-1.55254e-07
-1.55223e-07
-1.76274e-07
-1.76402e-07
-1.7663e-07
-1.79128e-07
-1.79098e-07
-1.79374e-07
-1.79002e-07
-1.76305e-07
-1.76269e-07
-1.76624e-07
-1.80455e-07
-1.83272e-07
-1.83272e-07
-1.83272e-07
-1.83272e-07
-1.78896e-07
-1.78208e-07
-1.79133e-07
-1.83271e-07
-1.83272e-07
-1.83272e-07
-1.83272e-07
-1.83272e-07
-1.83271e-07
-1.77442e-07
-1.75686e-07
-1.76267e-07
-1.79097e-07
-1.83271e-07
-1.83271e-07
-1.83271e-07
-1.83271e-07
-1.83272e-07
-1.83272e-07
-1.77102e-07
-1.7627e-07
-1.76404e-07
-1.79374e-07
-1.83271e-07
-1.83271e-07
-1.83271e-07
-1.83271e-07
-1.83272e-07
-1.83272e-07
-1.77182e-07
-1.78288e-07
-1.79001e-07
-1.83271e-07
-1.83271e-07
-1.83271e-07
-1.83271e-07
-1.83272e-07
-1.83272e-07
-1.77207e-07
-1.75827e-07
-1.76305e-07
-1.789e-07
-1.83271e-07
-1.83271e-07
-1.8327e-07
-1.83271e-07
-1.77234e-07
-1.77744e-07
-1.758e-07
-1.76272e-07
-1.78212e-07
-1.77445e-07
-1.77103e-07
-1.77182e-07
-1.77208e-07
-1.77747e-07
-1.75895e-07
-1.7569e-07
-1.76267e-07
-1.78285e-07
-1.75828e-07
-1.75798e-07
-1.96851e-07
-1.96979e-07
-1.97207e-07
-1.99704e-07
-1.99675e-07
-1.99951e-07
-1.99579e-07
-1.96882e-07
-1.96845e-07
-1.972e-07
-2.01029e-07
-2.03848e-07
-2.03848e-07
-2.03848e-07
-2.03848e-07
-1.99474e-07
-1.98785e-07
-1.9971e-07
-2.03847e-07
-2.03849e-07
-2.03848e-07
-2.03848e-07
-2.03849e-07
-2.03848e-07
-1.98018e-07
-1.96262e-07
-1.96843e-07
-1.99675e-07
-2.03848e-07
-2.03849e-07
-2.03848e-07
-2.03848e-07
-2.03849e-07
-2.03849e-07
-1.97678e-07
-1.96846e-07
-1.96979e-07
-1.99954e-07
-2.03848e-07
-2.03849e-07
-2.03848e-07
-2.03848e-07
-2.03849e-07
-2.03849e-07
-1.97758e-07
-1.98865e-07
-1.99578e-07
-2.03848e-07
-2.03849e-07
-2.03849e-07
-2.03849e-07
-2.03849e-07
-2.03849e-07
-1.97784e-07
-1.96404e-07
-1.96882e-07
-1.99476e-07
-2.03848e-07
-2.03848e-07
-2.03848e-07
-2.03848e-07
-1.9781e-07
-1.98321e-07
-1.96377e-07
-1.96849e-07
-1.98789e-07
-1.98019e-07
-1.97676e-07
-1.97754e-07
-1.97783e-07
-1.98324e-07
-1.96471e-07
-1.96265e-07
-1.96841e-07
-1.98857e-07
-1.96403e-07
-1.96374e-07
-2.17429e-07
-2.17556e-07
-2.17786e-07
-2.20285e-07
-2.20252e-07
-2.20528e-07
-2.20156e-07
-2.17457e-07
-2.17422e-07
-2.17778e-07
-2.21609e-07
-2.24427e-07
-2.24425e-07
-2.24426e-07
-2.24426e-07
-2.20051e-07
-2.19362e-07
-2.20288e-07
-2.24426e-07
-2.24426e-07
-2.24427e-07
-2.24426e-07
-2.24426e-07
-2.24426e-07
-2.18596e-07
-2.1684e-07
-2.1742e-07
-2.20252e-07
-2.24426e-07
-2.24426e-07
-2.24426e-07
-2.24426e-07
-2.24426e-07
-2.24426e-07
-2.18256e-07
-2.17423e-07
-2.17556e-07
-2.20532e-07
-2.24426e-07
-2.24426e-07
-2.24426e-07
-2.24426e-07
-2.24426e-07
-2.24426e-07
-2.18335e-07
-2.19442e-07
-2.20156e-07
-2.24426e-07
-2.24426e-07
-2.24426e-07
-2.24426e-07
-2.24426e-07
-2.24426e-07
-2.18361e-07
-2.16981e-07
-2.17459e-07
-2.20054e-07
-2.24426e-07
-2.24426e-07
-2.24426e-07
-2.24426e-07
-2.18387e-07
-2.18898e-07
-2.16954e-07
-2.17426e-07
-2.19366e-07
-2.18596e-07
-2.18252e-07
-2.18331e-07
-2.18361e-07
-2.18901e-07
-2.17048e-07
-2.16842e-07
-2.17419e-07
-2.19435e-07
-2.1698e-07
-2.16951e-07
-2.38005e-07
-2.38133e-07
-2.38369e-07
-2.4086e-07
-2.4083e-07
-2.41106e-07
-2.40734e-07
-2.38033e-07
-2.37998e-07
-2.38357e-07
-2.4219e-07
-2.45004e-07
-2.45003e-07
-2.45002e-07
-2.45003e-07
-2.40627e-07
-2.39939e-07
-2.40865e-07
-2.45003e-07
-2.45003e-07
-2.45003e-07
-2.45003e-07
-2.45003e-07
-2.45003e-07
-2.39173e-07
-2.37417e-07
-2.37998e-07
-2.4083e-07
-2.45003e-07
-2.45003e-07
-2.45003e-07
-2.45003e-07
-2.45003e-07
-2.45003e-07
-2.38833e-07
-2.38e-07
-2.38134e-07
-2.4111e-07
-2.45003e-07
-2.45003e-07
-2.45003e-07
-2.45003e-07
-2.45003e-07
-2.45003e-07
-2.38913e-07
-2.40019e-07
-2.40733e-07
-2.45003e-07
-2.45003e-07
-2.45003e-07
-2.45003e-07
-2.45003e-07
-2.45003e-07
-2.38939e-07
-2.37558e-07
-2.38037e-07
-2.40633e-07
-2.45003e-07
-2.45003e-07
-2.45003e-07
-2.45003e-07
-2.38965e-07
-2.39475e-07
-2.37532e-07
-2.38004e-07
-2.39944e-07
-2.39174e-07
-2.3883e-07
-2.38909e-07
-2.38939e-07
-2.39478e-07
-2.37626e-07
-2.3742e-07
-2.37996e-07
-2.40012e-07
-2.37558e-07
-2.37529e-07
-2.58583e-07
-2.5871e-07
-2.58946e-07
-2.61438e-07
-2.61407e-07
-2.61683e-07
-2.6131e-07
-2.58608e-07
-2.58582e-07
-2.58934e-07
-2.62765e-07
-2.6558e-07
-2.6558e-07
-2.65581e-07
-2.65581e-07
-2.61202e-07
-2.60518e-07
-2.61441e-07
-2.6558e-07
-2.6558e-07
-2.65579e-07
-2.65579e-07
-2.6558e-07
-2.6558e-07
-2.5975e-07
-2.57994e-07
-2.58575e-07
-2.61406e-07
-2.6558e-07
-2.6558e-07
-2.6558e-07
-2.6558e-07
-2.6558e-07
-2.6558e-07
-2.5941e-07
-2.58577e-07
-2.5871e-07
-2.61686e-07
-2.6558e-07
-2.6558e-07
-2.6558e-07
-2.6558e-07
-2.6558e-07
-2.6558e-07
-2.5949e-07
-2.60596e-07
-2.61309e-07
-2.6558e-07
-2.6558e-07
-2.6558e-07
-2.6558e-07
-2.6558e-07
-2.6558e-07
-2.59515e-07
-2.58135e-07
-2.58613e-07
-2.61209e-07
-2.6558e-07
-2.6558e-07
-2.6558e-07
-2.6558e-07
-2.59541e-07
-2.60052e-07
-2.58108e-07
-2.58581e-07
-2.6052e-07
-2.5975e-07
-2.59406e-07
-2.59484e-07
-2.59515e-07
-2.60055e-07
-2.58203e-07
-2.57996e-07
-2.58573e-07
-2.60588e-07
-2.58134e-07
-2.58105e-07
-2.79159e-07
-2.79287e-07
-2.79522e-07
-2.82014e-07
-2.81983e-07
-2.8226e-07
-2.81885e-07
-2.79186e-07
-2.79158e-07
-2.7951e-07
-2.83341e-07
-2.86156e-07
-2.86156e-07
-2.86156e-07
-2.86156e-07
-2.81778e-07
-2.81094e-07
-2.82017e-07
-2.86156e-07
-2.86156e-07
-2.86156e-07
-2.86156e-07
-2.86156e-07
-2.86156e-07
-2.80326e-07
-2.7857e-07
-2.79151e-07
-2.81983e-07
-2.86156e-07
-2.86156e-07
-2.86156e-07
-2.86156e-07
-2.86156e-07
-2.86156e-07
-2.79986e-07
-2.79153e-07
-2.79286e-07
-2.82262e-07
-2.86156e-07
-2.86156e-07
-2.86156e-07
-2.86156e-07
-2.86156e-07
-2.86156e-07
-2.80066e-07
-2.81172e-07
-2.81886e-07
-2.86156e-07
-2.86156e-07
-2.86156e-07
-2.86156e-07
-2.86156e-07
-2.86156e-07
-2.80092e-07
-2.78711e-07
-2.7919e-07
-2.81785e-07
-2.86156e-07
-2.86156e-07
-2.86156e-07
-2.86156e-07
-2.80118e-07
-2.80628e-07
-2.78684e-07
-2.79157e-07
-2.81097e-07
-2.80326e-07
-2.79982e-07
-2.8006e-07
-2.80091e-07
-2.80631e-07
-2.78779e-07
-2.78573e-07
-2.79149e-07
-2.81165e-07
-2.7871e-07
-2.78681e-07
-2.99736e-07
-2.99864e-07
-3.00099e-07
-3.02591e-07
-3.0256e-07
-3.02837e-07
-3.0246e-07
-2.99764e-07
-2.99735e-07
-3.00086e-07
-3.03918e-07
-3.06733e-07
-3.06733e-07
-3.06733e-07
-3.06733e-07
-3.02354e-07
-3.01671e-07
-3.02594e-07
-3.06733e-07
-3.06733e-07
-3.06733e-07
-3.06733e-07
-3.06733e-07
-3.06733e-07
-3.00903e-07
-2.99147e-07
-2.99727e-07
-3.02559e-07
-3.06733e-07
-3.06733e-07
-3.06733e-07
-3.06733e-07
-3.06733e-07
-3.06733e-07
-3.00563e-07
-2.9973e-07
-2.99863e-07
-3.02839e-07
-3.06733e-07
-3.06733e-07
-3.06733e-07
-3.06733e-07
-3.06733e-07
-3.06733e-07
-3.00643e-07
-3.01749e-07
-3.02463e-07
-3.06733e-07
-3.06733e-07
-3.06733e-07
-3.06733e-07
-3.06733e-07
-3.06733e-07
-3.00669e-07
-2.99288e-07
-2.99766e-07
-3.02362e-07
-3.06733e-07
-3.06733e-07
-3.06733e-07
-3.06733e-07
-3.00694e-07
-3.01205e-07
-2.99261e-07
-2.99734e-07
-3.01673e-07
-3.00903e-07
-3.00559e-07
-3.00637e-07
-3.00667e-07
-3.01208e-07
-2.99355e-07
-2.99149e-07
-2.99726e-07
-3.01741e-07
-2.99286e-07
-2.99258e-07
-3.20313e-07
-3.20441e-07
-3.20676e-07
-3.23166e-07
-3.23137e-07
-3.23414e-07
-3.23037e-07
-3.2034e-07
-3.20312e-07
-3.20663e-07
-3.24495e-07
-3.27311e-07
-3.27309e-07
-3.2731e-07
-3.2731e-07
-3.22932e-07
-3.22248e-07
-3.23171e-07
-3.2731e-07
-3.2731e-07
-3.2731e-07
-3.2731e-07
-3.2731e-07
-3.2731e-07
-3.2148e-07
-3.19724e-07
-3.20304e-07
-3.23137e-07
-3.2731e-07
-3.2731e-07
-3.2731e-07
-3.2731e-07
-3.2731e-07
-3.2731e-07
-3.2114e-07
-3.20307e-07
-3.2044e-07
-3.23416e-07
-3.2731e-07
-3.2731e-07
-3.2731e-07
-3.2731e-07
-3.2731e-07
-3.2731e-07
-3.21219e-07
-3.22326e-07
-3.23039e-07
-3.2731e-07
-3.2731e-07
-3.2731e-07
-3.2731e-07
-3.2731e-07
-3.2731e-07
-3.21245e-07
-3.19865e-07
-3.20343e-07
-3.22939e-07
-3.2731e-07
-3.2731e-07
-3.2731e-07
-3.2731e-07
-3.21271e-07
-3.21782e-07
-3.19838e-07
-3.20311e-07
-3.2225e-07
-3.2148e-07
-3.21136e-07
-3.21215e-07
-3.21244e-07
-3.21785e-07
-3.19932e-07
-3.19726e-07
-3.20302e-07
-3.22324e-07
-3.19863e-07
-3.19835e-07
-3.40889e-07
-3.41018e-07
-3.41251e-07
-3.43741e-07
-3.43714e-07
-3.43991e-07
-3.43614e-07
-3.40918e-07
-3.4089e-07
-3.4124e-07
-3.45072e-07
-3.47887e-07
-3.47887e-07
-3.47887e-07
-3.47887e-07
-3.43509e-07
-3.42824e-07
-3.43748e-07
-3.47886e-07
-3.47887e-07
-3.47887e-07
-3.47887e-07
-3.47887e-07
-3.47886e-07
-3.42057e-07
-3.403e-07
-3.40881e-07
-3.43713e-07
-3.47887e-07
-3.47887e-07
-3.47887e-07
-3.47887e-07
-3.47887e-07
-3.47887e-07
-3.41717e-07
-3.40884e-07
-3.41017e-07
-3.43993e-07
-3.47887e-07
-3.47887e-07
-3.47887e-07
-3.47887e-07
-3.47887e-07
-3.47887e-07
-3.41796e-07
-3.42903e-07
-3.43616e-07
-3.47887e-07
-3.47887e-07
-3.47887e-07
-3.47887e-07
-3.47887e-07
-3.47887e-07
-3.41822e-07
-3.40442e-07
-3.4092e-07
-3.43516e-07
-3.47887e-07
-3.47887e-07
-3.47887e-07
-3.47886e-07
-3.41849e-07
-3.42359e-07
-3.40415e-07
-3.40887e-07
-3.42827e-07
-3.42057e-07
-3.41712e-07
-3.4179e-07
-3.41821e-07
-3.42361e-07
-3.40509e-07
-3.40303e-07
-3.40879e-07
-3.42895e-07
-3.4044e-07
-3.40412e-07
-3.61467e-07
-3.61595e-07
-3.6183e-07
-3.64319e-07
-3.64291e-07
-3.64568e-07
-3.64191e-07
-3.61495e-07
-3.61467e-07
-3.61818e-07
-3.6565e-07
-3.68464e-07
-3.68465e-07
-3.68464e-07
-3.68464e-07
-3.64085e-07
-3.63402e-07
-3.64325e-07
-3.68464e-07
-3.68464e-07
-3.68463e-07
-3.68464e-07
-3.68464e-07
-3.68464e-07
-3.62634e-07
-3.60878e-07
-3.61459e-07
-3.64291e-07
-3.68464e-07
-3.68464e-07
-3.68464e-07
-3.68464e-07
-3.68464e-07
-3.68464e-07
-3.62294e-07
-3.61461e-07
-3.61594e-07
-3.6457e-07
-3.68464e-07
-3.68464e-07
-3.68464e-07
-3.68464e-07
-3.68464e-07
-3.68464e-07
-3.62373e-07
-3.6348e-07
-3.64193e-07
-3.68464e-07
-3.68464e-07
-3.68464e-07
-3.68464e-07
-3.68464e-07
-3.68464e-07
-3.62399e-07
-3.61019e-07
-3.61497e-07
-3.64093e-07
-3.68464e-07
-3.68464e-07
-3.68464e-07
-3.68463e-07
-3.62426e-07
-3.62936e-07
-3.60992e-07
-3.61464e-07
-3.63404e-07
-3.62634e-07
-3.6229e-07
-3.62369e-07
-3.62398e-07
-3.62938e-07
-3.61086e-07
-3.6088e-07
-3.61457e-07
-3.63474e-07
-3.61017e-07
-3.60989e-07
-3.82044e-07
-3.82172e-07
-3.82406e-07
-3.84897e-07
-3.84868e-07
-3.85144e-07
-3.84768e-07
-3.82072e-07
-3.82044e-07
-3.82394e-07
-3.86226e-07
-3.8904e-07
-3.8904e-07
-3.8904e-07
-3.8904e-07
-3.84662e-07
-3.83978e-07
-3.84902e-07
-3.89041e-07
-3.8904e-07
-3.8904e-07
-3.8904e-07
-3.8904e-07
-3.8904e-07
-3.8321e-07
-3.81454e-07
-3.82035e-07
-3.84867e-07
-3.8904e-07
-3.8904e-07
-3.8904e-07
-3.8904e-07
-3.8904e-07
-3.8904e-07
-3.8287e-07
-3.82038e-07
-3.82171e-07
-3.85147e-07
-3.8904e-07
-3.8904e-07
-3.8904e-07
-3.8904e-07
-3.8904e-07
-3.8904e-07
-3.8295e-07
-3.84057e-07
-3.8477e-07
-3.8904e-07
-3.8904e-07
-3.8904e-07
-3.8904e-07
-3.8904e-07
-3.8904e-07
-3.82976e-07
-3.81596e-07
-3.82074e-07
-3.8467e-07
-3.8904e-07
-3.89041e-07
-3.8904e-07
-3.8904e-07
-3.83003e-07
-3.83513e-07
-3.81569e-07
-3.82041e-07
-3.83981e-07
-3.83212e-07
-3.82868e-07
-3.82946e-07
-3.82974e-07
-3.83515e-07
-3.81663e-07
-3.81457e-07
-3.82034e-07
-3.84051e-07
-3.81594e-07
-3.81566e-07
-4.0262e-07
-4.02748e-07
-4.02982e-07
-4.05474e-07
-4.05444e-07
-4.0572e-07
-4.05343e-07
-4.02649e-07
-4.0262e-07
-4.0297e-07
-4.06802e-07
-4.09617e-07
-4.09617e-07
-4.09616e-07
-4.09617e-07
-4.05239e-07
-4.04554e-07
-4.05478e-07
-4.09617e-07
-4.09617e-07
-4.09617e-07
-4.09617e-07
-4.09617e-07
-4.09616e-07
-4.03787e-07
-4.02031e-07
-4.02612e-07
-4.05443e-07
-4.09617e-07
-4.09617e-07
-4.09617e-07
-4.09617e-07
-4.09617e-07
-4.09616e-07
-4.03447e-07
-4.02614e-07
-4.02747e-07
-4.05723e-07
-4.09617e-07
-4.09617e-07
-4.09617e-07
-4.09617e-07
-4.09617e-07
-4.09617e-07
-4.03526e-07
-4.04633e-07
-4.05346e-07
-4.09617e-07
-4.09617e-07
-4.09617e-07
-4.09617e-07
-4.09617e-07
-4.09617e-07
-4.03552e-07
-4.02172e-07
-4.0265e-07
-4.05246e-07
-4.09617e-07
-4.09617e-07
-4.09617e-07
-4.09617e-07
-4.03579e-07
-4.04089e-07
-4.02145e-07
-4.02618e-07
-4.04557e-07
-4.03788e-07
-4.03444e-07
-4.03522e-07
-4.03552e-07
-4.04092e-07
-4.02239e-07
-4.02033e-07
-4.0261e-07
-4.04627e-07
-4.02171e-07
-4.02142e-07
-4.23197e-07
-4.23324e-07
-4.23559e-07
-4.26051e-07
-4.2602e-07
-4.26297e-07
-4.2592e-07
-4.23224e-07
-4.23194e-07
-4.23547e-07
-4.27378e-07
-4.30192e-07
-4.30193e-07
-4.30193e-07
-4.30193e-07
-4.25815e-07
-4.25131e-07
-4.26055e-07
-4.30193e-07
-4.30193e-07
-4.30193e-07
-4.30193e-07
-4.30193e-07
-4.30193e-07
-4.24363e-07
-4.22607e-07
-4.23188e-07
-4.2602e-07
-4.30193e-07
-4.30193e-07
-4.30193e-07
-4.30193e-07
-4.30193e-07
-4.30193e-07
-4.24023e-07
-4.23192e-07
-4.23324e-07
-4.263e-07
-4.30193e-07
-4.30193e-07
-4.30193e-07
-4.30193e-07
-4.30193e-07
-4.30193e-07
-4.24103e-07
-4.25209e-07
-4.25923e-07
-4.30193e-07
-4.30193e-07
-4.30193e-07
-4.30193e-07
-4.30193e-07
-4.30193e-07
-4.24129e-07
-4.22748e-07
-4.23227e-07
-4.25823e-07
-4.30193e-07
-4.30193e-07
-4.30193e-07
-4.30193e-07
-4.24156e-07
-4.24666e-07
-4.22722e-07
-4.23194e-07
-4.25134e-07
-4.24364e-07
-4.2402e-07
-4.24099e-07
-4.24128e-07
-4.24668e-07
-4.22816e-07
-4.2261e-07
-4.23187e-07
-4.25204e-07
-4.22747e-07
-4.2272e-07
-4.43773e-07
-4.439e-07
-4.44135e-07
-4.46627e-07
-4.46597e-07
-4.46873e-07
-4.46496e-07
-4.43801e-07
-4.4377e-07
-4.44123e-07
-4.47955e-07
-4.50769e-07
-4.50769e-07
-4.50769e-07
-4.50769e-07
-4.46391e-07
-4.45707e-07
-4.46631e-07
-4.50769e-07
-4.50769e-07
-4.50769e-07
-4.50769e-07
-4.50769e-07
-4.50769e-07
-4.44939e-07
-4.43183e-07
-4.43764e-07
-4.46596e-07
-4.50769e-07
-4.50769e-07
-4.50769e-07
-4.50769e-07
-4.50769e-07
-4.50769e-07
-4.44599e-07
-4.43768e-07
-4.439e-07
-4.46876e-07
-4.50769e-07
-4.50769e-07
-4.50769e-07
-4.50769e-07
-4.50769e-07
-4.50769e-07
-4.44679e-07
-4.45786e-07
-4.46499e-07
-4.50769e-07
-4.50769e-07
-4.50769e-07
-4.50769e-07
-4.50769e-07
-4.50769e-07
-4.44705e-07
-4.43325e-07
-4.43803e-07
-4.46399e-07
-4.50769e-07
-4.50769e-07
-4.50769e-07
-4.50769e-07
-4.44732e-07
-4.45242e-07
-4.43298e-07
-4.4377e-07
-4.4571e-07
-4.4494e-07
-4.44597e-07
-4.44675e-07
-4.44704e-07
-4.45245e-07
-4.43392e-07
-4.43186e-07
-4.43763e-07
-4.4578e-07
-4.43323e-07
-4.43296e-07
-4.64349e-07
-4.64477e-07
-4.64712e-07
-4.67203e-07
-4.67173e-07
-4.6745e-07
-4.67073e-07
-4.64378e-07
-4.64347e-07
-4.64699e-07
-4.68531e-07
-4.71346e-07
-4.71346e-07
-4.71346e-07
-4.71346e-07
-4.66968e-07
-4.66283e-07
-4.67207e-07
-4.71346e-07
-4.71346e-07
-4.71346e-07
-4.71346e-07
-4.71346e-07
-4.71346e-07
-4.65516e-07
-4.63759e-07
-4.64341e-07
-4.67172e-07
-4.71346e-07
-4.71346e-07
-4.71346e-07
-4.71346e-07
-4.71346e-07
-4.71346e-07
-4.65176e-07
-4.64344e-07
-4.64476e-07
-4.67452e-07
-4.71346e-07
-4.71346e-07
-4.71346e-07
-4.71346e-07
-4.71346e-07
-4.71346e-07
-4.65255e-07
-4.66362e-07
-4.67075e-07
-4.71346e-07
-4.71346e-07
-4.71346e-07
-4.71346e-07
-4.71346e-07
-4.71346e-07
-4.65281e-07
-4.63901e-07
-4.64379e-07
-4.66975e-07
-4.71346e-07
-4.71346e-07
-4.71346e-07
-4.71346e-07
-4.65308e-07
-4.65818e-07
-4.63874e-07
-4.64347e-07
-4.66286e-07
-4.65517e-07
-4.65173e-07
-4.65251e-07
-4.65281e-07
-4.65821e-07
-4.63969e-07
-4.63762e-07
-4.64339e-07
-4.66356e-07
-4.63899e-07
-4.63873e-07
-4.84927e-07
-4.85054e-07
-4.85289e-07
-4.87781e-07
-4.8775e-07
-4.88027e-07
-4.8765e-07
-4.84953e-07
-4.84924e-07
-4.85277e-07
-4.89109e-07
-4.91923e-07
-4.91923e-07
-4.91923e-07
-4.91923e-07
-4.87546e-07
-4.86861e-07
-4.87785e-07
-4.91923e-07
-4.91923e-07
-4.91923e-07
-4.91923e-07
-4.91923e-07
-4.91923e-07
-4.86093e-07
-4.84337e-07
-4.84918e-07
-4.8775e-07
-4.91923e-07
-4.91923e-07
-4.91923e-07
-4.91923e-07
-4.91923e-07
-4.91923e-07
-4.85753e-07
-4.84921e-07
-4.85053e-07
-4.8803e-07
-4.91923e-07
-4.91923e-07
-4.91923e-07
-4.91923e-07
-4.91923e-07
-4.91923e-07
-4.85833e-07
-4.86939e-07
-4.87653e-07
-4.91923e-07
-4.91923e-07
-4.91923e-07
-4.91923e-07
-4.91923e-07
-4.91923e-07
-4.85859e-07
-4.84478e-07
-4.84956e-07
-4.87552e-07
-4.91923e-07
-4.91923e-07
-4.91923e-07
-4.91923e-07
-4.85885e-07
-4.86395e-07
-4.84451e-07
-4.84924e-07
-4.86864e-07
-4.86094e-07
-4.8575e-07
-4.85828e-07
-4.85858e-07
-4.86398e-07
-4.84546e-07
-4.8434e-07
-4.84917e-07
-4.86933e-07
-4.84476e-07
-4.8445e-07
-5.05504e-07
-5.05631e-07
-5.05866e-07
-5.08357e-07
-5.08327e-07
-5.08604e-07
-5.08228e-07
-5.05533e-07
-5.055e-07
-5.05854e-07
-5.09686e-07
-5.125e-07
-5.125e-07
-5.125e-07
-5.125e-07
-5.08122e-07
-5.07437e-07
-5.08362e-07
-5.125e-07
-5.125e-07
-5.125e-07
-5.125e-07
-5.125e-07
-5.125e-07
-5.0667e-07
-5.04914e-07
-5.05495e-07
-5.08327e-07
-5.125e-07
-5.125e-07
-5.125e-07
-5.125e-07
-5.125e-07
-5.125e-07
-5.0633e-07
-5.05498e-07
-5.05631e-07
-5.08607e-07
-5.125e-07
-5.125e-07
-5.125e-07
-5.125e-07
-5.125e-07
-5.125e-07
-5.0641e-07
-5.07517e-07
-5.0823e-07
-5.125e-07
-5.125e-07
-5.125e-07
-5.125e-07
-5.125e-07
-5.125e-07
-5.06436e-07
-5.05055e-07
-5.05534e-07
-5.0813e-07
-5.125e-07
-5.125e-07
-5.125e-07
-5.125e-07
-5.06462e-07
-5.06973e-07
-5.05029e-07
-5.05501e-07
-5.07441e-07
-5.06671e-07
-5.06327e-07
-5.06406e-07
-5.06435e-07
-5.06975e-07
-5.05123e-07
-5.04917e-07
-5.05494e-07
-5.07511e-07
-5.05053e-07
-5.05027e-07
-5.26081e-07
-5.26208e-07
-5.26443e-07
-5.28933e-07
-5.28906e-07
-5.29181e-07
-5.28805e-07
-5.26107e-07
-5.26079e-07
-5.26429e-07
-5.30263e-07
-5.33077e-07
-5.33078e-07
-5.33078e-07
-5.33078e-07
-5.287e-07
-5.28015e-07
-5.28938e-07
-5.33077e-07
-5.33078e-07
-5.33078e-07
-5.33078e-07
-5.33078e-07
-5.33078e-07
-5.27247e-07
-5.25491e-07
-5.26073e-07
-5.28904e-07
-5.33078e-07
-5.33078e-07
-5.33078e-07
-5.33078e-07
-5.33078e-07
-5.33078e-07
-5.26907e-07
-5.26075e-07
-5.26208e-07
-5.29184e-07
-5.33078e-07
-5.33078e-07
-5.33078e-07
-5.33078e-07
-5.33078e-07
-5.33078e-07
-5.26987e-07
-5.28094e-07
-5.28807e-07
-5.33078e-07
-5.33078e-07
-5.33078e-07
-5.33078e-07
-5.33078e-07
-5.33078e-07
-5.27013e-07
-5.25632e-07
-5.26111e-07
-5.28707e-07
-5.33078e-07
-5.33078e-07
-5.33078e-07
-5.33078e-07
-5.27039e-07
-5.2755e-07
-5.25606e-07
-5.26078e-07
-5.28018e-07
-5.27248e-07
-5.26904e-07
-5.26983e-07
-5.27012e-07
-5.27552e-07
-5.257e-07
-5.25494e-07
-5.26071e-07
-5.28088e-07
-5.2563e-07
-5.25604e-07
-5.46659e-07
-5.46786e-07
-5.4702e-07
-5.49512e-07
-5.49484e-07
-5.49759e-07
-5.49382e-07
-5.46684e-07
-5.46656e-07
-5.47009e-07
-5.50841e-07
-5.53655e-07
-5.53655e-07
-5.53655e-07
-5.53655e-07
-5.49278e-07
-5.48593e-07
-5.49517e-07
-5.53655e-07
-5.53655e-07
-5.53655e-07
-5.53655e-07
-5.53655e-07
-5.53655e-07
-5.47825e-07
-5.46069e-07
-5.4665e-07
-5.49482e-07
-5.53655e-07
-5.53655e-07
-5.53655e-07
-5.53655e-07
-5.53655e-07
-5.53655e-07
-5.47485e-07
-5.46653e-07
-5.46786e-07
-5.49762e-07
-5.53655e-07
-5.53655e-07
-5.53655e-07
-5.53655e-07
-5.53655e-07
-5.53655e-07
-5.47564e-07
-5.48671e-07
-5.49385e-07
-5.53655e-07
-5.53655e-07
-5.53655e-07
-5.53655e-07
-5.53655e-07
-5.53655e-07
-5.4759e-07
-5.4621e-07
-5.46688e-07
-5.49284e-07
-5.53655e-07
-5.53655e-07
-5.53655e-07
-5.53655e-07
-5.47617e-07
-5.48127e-07
-5.46183e-07
-5.46656e-07
-5.48596e-07
-5.47826e-07
-5.47482e-07
-5.4756e-07
-5.4759e-07
-5.4813e-07
-5.46278e-07
-5.46072e-07
-5.46648e-07
-5.48665e-07
-5.46208e-07
-5.46182e-07
-5.67236e-07
-5.67364e-07
-5.67597e-07
-5.70089e-07
-5.70062e-07
-5.70336e-07
-5.6996e-07
-5.67263e-07
-5.67234e-07
-5.67586e-07
-5.71419e-07
-5.74233e-07
-5.74233e-07
-5.74233e-07
-5.74233e-07
-5.69855e-07
-5.6917e-07
-5.70095e-07
-5.74232e-07
-5.74232e-07
-5.74232e-07
-5.74233e-07
-5.74233e-07
-5.74233e-07
-5.68403e-07
-5.66646e-07
-5.67227e-07
-5.70058e-07
-5.74232e-07
-5.74233e-07
-5.74233e-07
-5.74233e-07
-5.74233e-07
-5.74233e-07
-5.68062e-07
-5.67231e-07
-5.67363e-07
-5.70339e-07
-5.74232e-07
-5.74233e-07
-5.74233e-07
-5.74233e-07
-5.74233e-07
-5.74233e-07
-5.68142e-07
-5.69249e-07
-5.69962e-07
-5.74233e-07
-5.74233e-07
-5.74233e-07
-5.74233e-07
-5.74233e-07
-5.74233e-07
-5.68168e-07
-5.66787e-07
-5.67266e-07
-5.69862e-07
-5.74233e-07
-5.74233e-07
-5.74233e-07
-5.74233e-07
-5.68194e-07
-5.68705e-07
-5.66761e-07
-5.67233e-07
-5.69173e-07
-5.68403e-07
-5.68059e-07
-5.68138e-07
-5.68167e-07
-5.68708e-07
-5.66855e-07
-5.66649e-07
-5.67226e-07
-5.69243e-07
-5.66785e-07
-5.66759e-07
-5.87813e-07
-5.87941e-07
-5.88175e-07
-5.90666e-07
-5.90639e-07
-5.90914e-07
-5.90537e-07
-5.87838e-07
-5.8781e-07
-5.88164e-07
-5.91996e-07
-5.94811e-07
-5.9481e-07
-5.94811e-07
-5.9481e-07
-5.90434e-07
-5.89748e-07
-5.90672e-07
-5.9481e-07
-5.9481e-07
-5.9481e-07
-5.9481e-07
-5.9481e-07
-5.9481e-07
-5.8898e-07
-5.87223e-07
-5.87805e-07
-5.90637e-07
-5.9481e-07
-5.94811e-07
-5.94811e-07
-5.94811e-07
-5.9481e-07
-5.9481e-07
-5.88639e-07
-5.87808e-07
-5.8794e-07
-5.90917e-07
-5.9481e-07
-5.9481e-07
-5.9481e-07
-5.9481e-07
-5.9481e-07
-5.9481e-07
-5.88719e-07
-5.89826e-07
-5.9054e-07
-5.9481e-07
-5.9481e-07
-5.9481e-07
-5.9481e-07
-5.9481e-07
-5.9481e-07
-5.88745e-07
-5.87364e-07
-5.87843e-07
-5.90439e-07
-5.9481e-07
-5.9481e-07
-5.9481e-07
-5.9481e-07
-5.88772e-07
-5.89282e-07
-5.87338e-07
-5.8781e-07
-5.8975e-07
-5.8898e-07
-5.88637e-07
-5.88715e-07
-5.88744e-07
-5.89285e-07
-5.87432e-07
-5.87226e-07
-5.87803e-07
-5.8982e-07
-5.87363e-07
-5.87336e-07
-6.08392e-07
-6.08519e-07
-6.08753e-07
-6.11245e-07
-6.11217e-07
-6.11492e-07
-6.11115e-07
-6.08417e-07
-6.08388e-07
-6.08742e-07
-6.12574e-07
-6.15388e-07
-6.15388e-07
-6.15388e-07
-6.15388e-07
-6.11011e-07
-6.10325e-07
-6.1125e-07
-6.15388e-07
-6.15388e-07
-6.15388e-07
-6.15388e-07
-6.15388e-07
-6.15388e-07
-6.09559e-07
-6.078e-07
-6.08383e-07
-6.11215e-07
-6.15388e-07
-6.15388e-07
-6.15388e-07
-6.15388e-07
-6.15388e-07
-6.15388e-07
-6.09217e-07
-6.08385e-07
-6.08518e-07
-6.11495e-07
-6.15388e-07
-6.15388e-07
-6.15388e-07
-6.15388e-07
-6.15388e-07
-6.15388e-07
-6.09297e-07