/*--------------------------------*- C++ -*----------------------------------*\
| =========                 |                                                 |
| \\      /  F ield         | OpenFOAM: The Open Source CFD Toolbox           |
|  \\    /   O peration     | Version:  v1906                                 |
|   \\  /    A nd           | Web:      www.OpenFOAM.com                      |
|    \\/     M anipulation  |                                                 |
\*---------------------------------------------------------------------------*/
FoamFile
{
    version     2.0;
    format      ascii;
    class       volScalarField;
    location    "550";
    object      epsilon;
}
// * * * * * * * * * * * * * * * * * * * * * * * * * * * * * * * * * * * * * //

dimensions      [0 2 -3 0 0 0 0];


internalField   nonuniform List<scalar> 
43248
(
1.14831e-06
8.63015e-07
8.62981e-07
1.14812e-06
8.62774e-07
8.63057e-07
8.62799e-07
8.63045e-07
1.14866e-06
8.62935e-07
8.62903e-07
1.14817e-06
3.19683e-07
3.19672e-07
3.19765e-07
3.19761e-07
1.84272e-05
1.8429e-05
5.46201e-06
5.46326e-06
4.09153e-06
9.16107e-06
4.09373e-06
4.0917e-06
9.16202e-06
9.15555e-06
4.09376e-06
2.10217e-06
3.47466e-06
5.58163e-07
5.52258e-07
2.10678e-06
2.10223e-06
8.5691e-07
3.47527e-06
5.58208e-07
3.47199e-06
5.52316e-07
2.10686e-06
1.84288e-05
1.84185e-05
1.14433e-06
5.46351e-06
5.46195e-06
5.46128e-06
5.45935e-06
1.84262e-05
1.84158e-05
9.16287e-06
4.0936e-06
3.47542e-06
5.58272e-07
2.10689e-06
9.16228e-06
4.09346e-06
5.58286e-07
3.47517e-06
2.10684e-06
2.10234e-06
8.56727e-07
3.47497e-06
5.58202e-07
3.47136e-06
5.52309e-07
2.10694e-06
4.09179e-06
9.16188e-06
9.15537e-06
4.09371e-06
2.10229e-06
8.56968e-07
5.58278e-07
3.47504e-06
5.52387e-07
3.47143e-06
2.10692e-06
4.09169e-06
9.16195e-06
9.15548e-06
4.09364e-06
1.84295e-05
5.4636e-06
5.46205e-06
1.8428e-05
2.10231e-06
5.58305e-07
3.4749e-06
5.52399e-07
2.10706e-06
2.10233e-06
8.5683e-07
5.58308e-07
3.47531e-06
5.52416e-07
3.47238e-06
2.10696e-06
4.09151e-06
9.16222e-06
4.09382e-06
4.09157e-06
9.16307e-06
9.15643e-06
4.09388e-06
1.14461e-06
5.46223e-06
5.46384e-06
5.4594e-06
5.46139e-06
1.84282e-05
1.84179e-05
1.84299e-05
1.84196e-05
1.8422e-05
1.84243e-05
4.53811e-06
2.81202e-06
5.46178e-06
9.50044e-06
9.49679e-06
2.81008e-06
4.54046e-06
4.54437e-06
2.81177e-06
5.46365e-06
9.50335e-06
9.50115e-06
2.81168e-06
4.54266e-06
9.73609e-06
2.17306e-05
2.17284e-05
2.17238e-05
2.17226e-05
9.7356e-06
1.22031e-05
1.08238e-05
4.74411e-06
4.09183e-06
1.22002e-05
1.08266e-05
4.74426e-06
2.20535e-05
9.15804e-06
7.08829e-06
7.08882e-06
2.20604e-05
1.22036e-05
4.09337e-06
1.08299e-05
4.74588e-06
1.08269e-05
4.74574e-06
1.22066e-05
1.22033e-05
1.08244e-05
4.7444e-06
4.09161e-06
1.22007e-05
1.08264e-05
4.74462e-06
2.20544e-05
9.15954e-06
7.0901e-06
7.09046e-06
2.2061e-05
2.20564e-05
7.08947e-06
9.15807e-06
2.20498e-05
7.08909e-06
1.22041e-05
4.09371e-06
1.08296e-05
4.74622e-06
1.08276e-05
4.74599e-06
1.22067e-05
1.84239e-05
1.84234e-05
9.73343e-06
2.17176e-05
2.17182e-05
9.73383e-06
2.17238e-05
2.17245e-05
4.54464e-06
2.81214e-06
5.46366e-06
9.50403e-06
2.81165e-06
9.5011e-06
4.54451e-06
4.53839e-06
2.81098e-06
5.46169e-06
9.49971e-06
9.49608e-06
2.81046e-06
4.53886e-06
4.54198e-06
9.4964e-06
2.80842e-06
5.46135e-06
2.80897e-06
4.54199e-06
9.49939e-06
4.53623e-06
9.49145e-06
2.80721e-06
5.45961e-06
4.53578e-06
9.49499e-06
2.8078e-06
9.73581e-06
2.17289e-05
2.17295e-05
2.17226e-05
2.17232e-05
9.73542e-06
1.84212e-05
1.84208e-05
2.2054e-05
9.15996e-06
7.08995e-06
7.09029e-06
2.20606e-05
1.22039e-05
4.09345e-06
4.74616e-06
1.08306e-05
4.74587e-06
1.08276e-05
1.22073e-05
2.2054e-05
9.15966e-06
7.08853e-06
7.08904e-06
2.20609e-05
1.22043e-05
4.09365e-06
1.08299e-05
4.74589e-06
1.08278e-05
4.74588e-06
1.22071e-05
1.22029e-05
4.74435e-06
1.08246e-05
4.09188e-06
1.22004e-05
4.74427e-06
1.08266e-05
2.2053e-05
9.15937e-06
7.08958e-06
7.08995e-06
2.20596e-05
2.2055e-05
7.08895e-06
9.15792e-06
2.20484e-05
7.08857e-06
1.22038e-05
4.09368e-06
4.74609e-06
1.08298e-05
4.746e-06
1.08278e-05
1.22063e-05
1.22034e-05
1.08245e-05
4.7442e-06
4.09175e-06
1.22009e-05
1.08265e-05
4.74426e-06
2.2054e-05
9.15947e-06
7.08824e-06
7.08862e-06
2.20606e-05
2.20559e-05
7.08763e-06
9.15799e-06
2.20494e-05
7.08723e-06
1.22043e-05
4.0936e-06
1.08297e-05
4.74585e-06
1.08277e-05
4.74581e-06
1.22067e-05
1.84245e-05
4.54476e-06
2.81256e-06
5.46356e-06
9.50409e-06
2.8116e-06
9.50115e-06
4.54518e-06
4.53883e-06
2.8115e-06
5.4619e-06
9.49946e-06
9.49654e-06
2.81057e-06
4.53915e-06
9.73667e-06
2.17299e-05
2.17303e-05
2.17236e-05
2.17239e-05
9.7363e-06
1.8423e-05
1.22035e-05
4.74401e-06
1.08243e-05
4.09195e-06
1.22004e-05
4.74428e-06
1.08272e-05
2.20538e-05
9.15923e-06
7.0882e-06
7.08854e-06
2.20604e-05
2.20557e-05
7.08717e-06
1.22037e-05
4.09342e-06
4.7459e-06
1.08305e-05
4.74562e-06
1.08275e-05
1.22072e-05
1.22033e-05
4.7444e-06
1.08244e-05
4.09201e-06
1.22004e-05
4.74453e-06
1.08273e-05
2.20536e-05
9.16024e-06
7.08988e-06
7.09038e-06
2.20605e-05
2.20559e-05
7.08939e-06
9.15901e-06
2.2049e-05
7.08887e-06
1.22038e-05
4.09348e-06
4.74612e-06
1.08305e-05
4.746e-06
1.08275e-05
1.22068e-05
9.73401e-06
2.17189e-05
2.17182e-05
9.7344e-06
2.17252e-05
2.17245e-05
4.53865e-06
2.81105e-06
5.46173e-06
9.4996e-06
2.81047e-06
9.49665e-06
4.53911e-06
4.54483e-06
2.81233e-06
5.46376e-06
9.50434e-06
2.81176e-06
9.5014e-06
4.54493e-06
4.53648e-06
9.49183e-06
2.80719e-06
5.45986e-06
4.53602e-06
2.8081e-06
9.49502e-06
4.5423e-06
9.49667e-06
2.80855e-06
5.46156e-06
4.54218e-06
2.80916e-06
9.49969e-06
9.73639e-06
2.17302e-05
2.17295e-05
2.1724e-05
2.17232e-05
9.73598e-06
1.84233e-05
1.84228e-05
1.84249e-05
1.84245e-05
2.66821e-06
1.14936e-06
1.76789e-06
1.76755e-06
1.76773e-06
1.76792e-06
2.66806e-06
2.66822e-06
1.14936e-06
1.7675e-06
1.76736e-06
1.76811e-06
1.76795e-06
2.66799e-06
2.66799e-06
1.14931e-06
1.76829e-06
1.7683e-06
1.76788e-06
1.76777e-06
2.66869e-06
2.66796e-06
1.1495e-06
1.76753e-06
1.7677e-06
1.76783e-06
1.7681e-06
2.66865e-06
1.6658e-07
1.66578e-07
1.6447e-07
7.93924e-08
7.99343e-08
3.15732e-07
1.66584e-07
1.66545e-07
1.64472e-07
1.64435e-07
7.93882e-08
7.99295e-08
1.66639e-07
1.66604e-07
1.6449e-07
7.94096e-08
7.99523e-08
3.15817e-07
1.66628e-07
1.66601e-07
1.64514e-07
1.64489e-07
7.94074e-08
7.99499e-08
1.40943e-06
2.36147e-06
1.2738e-06
2.10311e-06
1.41206e-06
2.36231e-06
1.27316e-06
1.6181e-06
2.03172e-06
3.47428e-06
2.86022e-06
2.03197e-06
2.85963e-06
1.61583e-06
1.4171e-06
2.10584e-06
2.36569e-06
1.27813e-06
2.36486e-06
1.27945e-06
1.41453e-06
1.40961e-06
2.36175e-06
1.27384e-06
2.10318e-06
1.41226e-06
2.36258e-06
1.27319e-06
1.61855e-06
2.03202e-06
3.47516e-06
2.8608e-06
2.8601e-06
2.03214e-06
1.61604e-06
1.61186e-06
2.85717e-06
2.02802e-06
3.47211e-06
1.61363e-06
2.85781e-06
2.02811e-06
1.41742e-06
2.1059e-06
2.36593e-06
1.27816e-06
2.36513e-06
1.27952e-06
1.41446e-06
2.6648e-06
1.14322e-06
1.76376e-06
1.76363e-06
1.76366e-06
2.66475e-06
1.76352e-06
1.61833e-06
2.03209e-06
3.47478e-06
2.86037e-06
2.0324e-06
2.86011e-06
1.61588e-06
1.41745e-06
2.106e-06
2.36593e-06
1.27817e-06
2.36508e-06
1.2798e-06
1.41416e-06
1.6169e-06
2.03238e-06
3.47507e-06
2.86036e-06
2.85973e-06
2.03217e-06
1.61719e-06
1.41556e-06
2.10591e-06
1.27827e-06
2.36579e-06
1.27948e-06
2.36487e-06
1.41541e-06
1.41063e-06
2.36174e-06
1.27335e-06
2.10327e-06
1.411e-06
2.36257e-06
1.274e-06
1.61743e-06
2.03248e-06
3.47446e-06
2.86065e-06
2.03146e-06
2.85992e-06
1.61727e-06
1.61203e-06
2.85699e-06
2.02734e-06
3.47218e-06
1.61333e-06
2.02822e-06
2.85763e-06
1.41623e-06
2.106e-06
2.36596e-06
1.27946e-06
2.36513e-06
1.27871e-06
1.41587e-06
1.40954e-06
1.27353e-06
2.36163e-06
2.10323e-06
1.41216e-06
1.27401e-06
2.36243e-06
1.61772e-06
2.03151e-06
3.47435e-06
2.85999e-06
2.85983e-06
2.03193e-06
1.61587e-06
1.61204e-06
2.85686e-06
2.02758e-06
3.47218e-06
1.61221e-06
2.85708e-06
2.0279e-06
1.41721e-06
2.10593e-06
1.2795e-06
2.36578e-06
1.27885e-06
2.36501e-06
1.41457e-06
1.4111e-06
1.2734e-06
2.36167e-06
2.10335e-06
1.41097e-06
1.27418e-06
2.36245e-06
1.61696e-06
2.03217e-06
3.47471e-06
2.85992e-06
2.03205e-06
2.85964e-06
1.61725e-06
1.61264e-06
2.85724e-06
1.41597e-06
2.10595e-06
1.27948e-06
2.36584e-06
1.27871e-06
2.36501e-06
1.41609e-06
1.41045e-06
1.27347e-06
2.36179e-06
2.10329e-06
1.41115e-06
1.27411e-06
2.36254e-06
1.61701e-06
2.03237e-06
3.47526e-06
2.86081e-06
2.86021e-06
2.03242e-06
1.61701e-06
1.61288e-06
2.85733e-06
2.02805e-06
3.47238e-06
1.61248e-06
2.85754e-06
2.02816e-06
1.41658e-06
2.10603e-06
1.27956e-06
2.36594e-06
1.27884e-06
2.3652e-06
1.41536e-06
2.66539e-06
1.1434e-06
1.76358e-06
1.76395e-06
2.66443e-06
1.76357e-06
1.76392e-06
1.33487e-07
2.30054e-07
2.30112e-07
3.57082e-07
3.52085e-07
2.27863e-07
2.27869e-07
3.51804e-07
2.27802e-07
2.2789e-07
2.27743e-07
2.27827e-07
3.51558e-07
2.27795e-07
2.27796e-07
3.52063e-07
3.57019e-07
3.77479e-07
2.30138e-07
2.30183e-07
2.3792e-07
2.37924e-07
3.56627e-07
3.77551e-07
2.30157e-07
2.30207e-07
2.37824e-07
2.37943e-07
2.30134e-07
2.37776e-07
2.37871e-07
3.57363e-07
3.7672e-07
2.30104e-07
2.37847e-07
2.37841e-07
3.7752e-07
1.34157e-07
1.34148e-07
1.34159e-07
1.34152e-07
3.68133e-06
8.90894e-06
3.65213e-06
8.91434e-06
1.84694e-05
1.84613e-05
3.68172e-06
8.91121e-06
3.65237e-06
8.91592e-06
1.33475e-07
1.33487e-07
1.33479e-07
1.31784e-07
1.31774e-07
1.31789e-07
1.31779e-07
1.15712e-06
2.79917e-06
1.58211e-07
2.32499e-07
1.12972e-06
2.82118e-06
1.58414e-07
1.84709e-05
1.8463e-05
1.15727e-06
1.58222e-07
2.79821e-06
2.32559e-07
1.12995e-06
1.58439e-07
2.82303e-06
5.13561e-06
5.13755e-06
3.64702e-07
5.148e-06
5.14996e-06
1.84754e-05
1.84837e-05
1.84774e-05
1.84858e-05
3.45344e-07
5.12942e-06
5.13136e-06
5.1155e-06
5.1173e-06
3.60264e-06
8.90856e-06
8.90285e-06
3.63581e-06
3.60305e-06
8.90933e-06
8.90452e-06
3.63586e-06
1.08672e-06
2.25642e-07
2.78617e-06
1.58115e-07
2.75948e-06
1.58073e-07
1.11495e-06
1.08722e-06
2.25677e-07
2.78659e-06
1.58122e-07
2.75998e-06
1.58079e-07
1.11474e-06
1.84764e-05
1.84847e-05
3.45059e-07
5.12993e-06
5.1278e-06
5.11875e-06
5.11684e-06
1.84752e-05
1.84835e-05
3.60269e-06
8.91013e-06
8.90526e-06
3.63611e-06
1.08691e-06
2.2565e-07
2.78657e-06
1.58124e-07
2.7601e-06
1.58079e-07
1.11537e-06
3.60291e-06
8.90959e-06
8.90485e-06
3.63624e-06
1.08679e-06
2.25697e-07
1.58125e-07
2.78516e-06
1.58078e-07
2.76188e-06
1.11509e-06
1.08711e-06
2.25556e-07
2.7844e-06
1.581e-07
2.76084e-06
1.58059e-07
1.11454e-06
3.60266e-06
8.90983e-06
8.90417e-06
3.63657e-06
1.08732e-06
2.25632e-07
1.58107e-07
2.78483e-06
1.58064e-07
2.76133e-06
1.11454e-06
3.60317e-06
8.9094e-06
8.90379e-06
3.63585e-06
1.8478e-05
1.84864e-05
3.45634e-07
5.1313e-06
5.1296e-06
5.1174e-06
5.11546e-06
1.84762e-05
1.84847e-05
1.08677e-06
2.25607e-07
1.58121e-07
2.78635e-06
1.58074e-07
2.75992e-06
1.11456e-06
1.08707e-06
2.25603e-07
1.58112e-07
2.78669e-06
1.58066e-07
2.76015e-06
1.11469e-06
3.60287e-06
8.90929e-06
8.90449e-06
3.63558e-06
3.60314e-06
8.91027e-06
8.90544e-06
3.63613e-06
3.45198e-07
5.12957e-06
5.13154e-06
5.11536e-06
5.11728e-06
1.84762e-05
1.84846e-05
1.84777e-05
1.8486e-05
1.84683e-05
1.84603e-05
1.84702e-05
1.84622e-05
5.13544e-06
5.13726e-06
3.64392e-07
5.14766e-06
5.14975e-06
1.8446e-05
1.84534e-05
1.84475e-05
1.84554e-05
3.69614e-07
5.16509e-06
5.166e-06
5.15365e-06
5.15527e-06
3.68152e-06
8.91042e-06
3.65225e-06
8.91515e-06
1.15762e-06
2.79799e-06
1.58222e-07
2.32625e-07
1.12944e-06
2.82272e-06
1.58426e-07
1.15722e-06
2.79854e-06
1.58231e-07
2.32634e-07
1.12985e-06
2.8232e-06
1.58433e-07
3.69596e-06
8.91987e-06
8.91472e-06
3.72232e-06
3.69605e-06
8.92062e-06
8.91619e-06
3.72248e-06
1.17176e-06
2.3516e-07
2.85745e-06
1.5909e-07
2.83405e-06
1.5872e-07
1.19996e-06
1.17233e-06
2.35213e-07
2.85777e-06
1.59099e-07
2.8346e-06
1.58731e-07
1.19934e-06
5.13846e-06
5.13668e-06
3.64124e-07
5.14826e-06
5.14615e-06
1.84681e-05
1.84601e-05
1.84469e-05
1.84545e-05
3.69278e-07
5.16533e-06
5.16397e-06
5.15641e-06
5.15463e-06
1.84457e-05
1.84532e-05
1.15771e-06
2.79858e-06
1.58232e-07
2.32557e-07
1.12951e-06
2.82326e-06
1.58442e-07
3.68184e-06
8.91074e-06
3.65216e-06
8.91539e-06
1.1576e-06
1.58232e-07
2.79986e-06
2.32654e-07
1.12955e-06
1.58434e-07
2.82179e-06
3.69621e-06
8.92136e-06
8.91697e-06
3.72247e-06
1.17209e-06
2.35188e-07
2.85778e-06
1.59108e-07
2.83457e-06
1.58731e-07
1.19992e-06
3.69616e-06
8.92086e-06
8.91649e-06
3.72192e-06
1.17207e-06
2.35235e-07
1.59098e-07
2.85653e-06
1.58732e-07
2.83583e-06
1.19984e-06
3.68097e-06
8.91028e-06
3.65197e-06
8.9157e-06
1.15715e-06
1.58214e-07
2.7993e-06
2.32588e-07
1.12987e-06
1.58417e-07
2.82138e-06
3.68161e-06
8.90985e-06
3.6523e-06
8.91525e-06
1.17226e-06
2.35071e-07
2.85574e-06
1.59076e-07
2.83509e-06
1.58707e-07
1.19938e-06
3.69646e-06
8.92116e-06
8.91607e-06
3.72183e-06
1.17226e-06
2.35162e-07
1.5908e-07
2.85736e-06
1.58712e-07
2.8353e-06
1.1993e-06
3.69604e-06
8.9207e-06
8.9156e-06
3.7226e-06
5.13735e-06
5.13554e-06
3.63757e-07
5.14965e-06
5.14798e-06
1.84692e-05
1.84611e-05
1.84485e-05
1.84561e-05
3.69963e-07
5.16663e-06
5.16496e-06
5.1554e-06
5.15352e-06
1.84466e-05
1.84543e-05
1.15727e-06
1.58218e-07
2.79866e-06
2.32558e-07
1.12997e-06
1.58424e-07
2.82337e-06
3.68126e-06
8.91038e-06
3.65248e-06
8.91509e-06
3.68181e-06
8.91135e-06
3.65232e-06
8.91608e-06
1.17252e-06
2.35139e-07
1.59104e-07
2.85747e-06
1.58723e-07
2.83418e-06
1.19941e-06
1.17243e-06
2.3513e-07
1.5909e-07
2.85788e-06
1.5872e-07
2.83471e-06
1.19945e-06
3.69644e-06
8.92055e-06
8.91615e-06
3.72237e-06
3.69616e-06
8.92154e-06
8.91712e-06
3.72258e-06
1.84691e-05
1.84612e-05
1.84706e-05
1.84626e-05
3.69709e-07
5.16494e-06
5.1669e-06
5.15348e-06
5.15542e-06
1.84467e-05
1.84543e-05
1.84482e-05
1.84558e-05
1.21311e-05
3.67434e-06
1.06762e-05
4.49113e-06
1.06713e-05
4.48718e-06
1.21341e-05
2.24358e-05
7.21543e-06
8.9115e-06
2.24342e-05
7.21499e-06
1.21309e-05
3.65943e-06
1.06662e-05
4.4716e-06
1.21278e-05
1.06709e-05
4.47568e-06
2.24246e-05
7.21634e-06
8.91186e-06
7.21701e-06
2.24262e-05
1.84688e-05
1.84619e-05
1.21315e-05
3.67473e-06
4.49153e-06
1.06767e-05
4.48734e-06
1.06718e-05
1.21345e-05
2.24363e-05
7.21732e-06
8.91309e-06
2.24349e-05
7.21695e-06
1.21312e-05
3.6596e-06
4.47184e-06
1.06668e-05
1.21281e-05
4.47629e-06
1.06714e-05
2.24253e-05
7.21826e-06
8.91411e-06
7.21884e-06
2.24266e-05
1.84704e-05
1.84634e-05
9.73104e-06
2.1913e-05
2.19124e-05
2.19128e-05
2.19121e-05
9.72933e-06
3.96329e-06
1.92663e-06
9.03765e-06
5.13898e-06
3.95722e-06
1.9337e-06
9.04244e-06
3.96889e-06
1.92817e-06
9.0424e-06
5.14093e-06
3.96541e-06
1.93528e-06
9.04721e-06
9.72886e-06
2.19228e-05
2.19221e-05
9.73043e-06
2.1923e-05
2.19223e-05
3.97369e-06
9.04964e-06
5.14483e-06
1.95481e-06
1.94787e-06
9.04502e-06
3.97928e-06
3.98166e-06
9.05441e-06
5.14678e-06
1.95658e-06
1.94955e-06
9.04976e-06
3.98502e-06
1.84759e-05
1.84832e-05
1.8478e-05
1.84851e-05
9.72695e-06
2.19424e-05
2.19425e-05
9.72823e-06
2.19427e-05
2.19428e-05
3.94139e-06
1.91187e-06
5.12596e-06
9.03495e-06
9.02928e-06
1.90481e-06
3.945e-06
3.94812e-06
1.9132e-06
5.12774e-06
9.04e-06
9.035e-06
1.90676e-06
3.95339e-06
3.92736e-06
9.02135e-06
1.8825e-06
5.11926e-06
3.92359e-06
9.02719e-06
1.88972e-06
3.93453e-06
9.02713e-06
1.88454e-06
5.12122e-06
3.93038e-06
9.0323e-06
1.89101e-06
9.72939e-06
2.19325e-05
2.19326e-05
2.19322e-05
2.19323e-05
9.72793e-06
1.2124e-05
1.0656e-05
4.43659e-06
3.61165e-06
1.21208e-05
1.06606e-05
4.44292e-06
2.24438e-05
8.90588e-06
7.21315e-06
2.24455e-05
7.21338e-06
2.24551e-05
7.21078e-06
8.90547e-06
2.24533e-05
7.21074e-06
1.21243e-05
3.62783e-06
1.06658e-05
4.45945e-06
1.21275e-05
1.0661e-05
4.45466e-06
1.21243e-05
1.06562e-05
4.43718e-06
3.6116e-06
1.2121e-05
1.06609e-05
4.44333e-06
2.24448e-05
8.90746e-06
7.21538e-06
7.21563e-06
2.24462e-05
2.24558e-05
7.21329e-06
8.90637e-06
2.24544e-05
7.213e-06
1.21246e-05
3.62817e-06
1.06659e-05
4.46056e-06
1.06612e-05
4.45491e-06
1.21277e-05
1.8477e-05
1.84841e-05
9.72682e-06
2.19421e-05
2.19428e-05
9.72812e-06
2.19423e-05
2.19431e-05
3.94753e-06
1.91366e-06
5.12909e-06
9.04002e-06
1.90627e-06
9.03431e-06
3.95147e-06
3.94124e-06
1.91153e-06
5.12729e-06
9.03532e-06
9.02964e-06
1.90493e-06
3.94502e-06
3.93545e-06
9.02637e-06
1.88384e-06
5.11985e-06
1.89122e-06
3.92931e-06
9.03226e-06
3.92733e-06
9.02173e-06
1.88273e-06
5.11763e-06
3.92339e-06
9.02758e-06
1.88934e-06
9.72924e-06
2.19322e-05
2.19329e-05
2.19319e-05
2.19326e-05
9.72779e-06
1.84757e-05
1.84829e-05
1.21243e-05
4.43717e-06
1.06565e-05
3.61142e-06
1.21211e-05
4.4434e-06
1.06611e-05
2.24445e-05
8.90822e-06
7.21512e-06
2.24459e-05
7.21537e-06
2.24555e-05
7.21298e-06
8.90716e-06
2.2454e-05
7.21278e-06
1.21246e-05
3.62826e-06
4.45992e-06
1.06664e-05
1.21278e-05
4.45491e-06
1.06615e-05
1.21245e-05
1.06563e-05
4.43721e-06
3.61138e-06
1.21213e-05
1.0661e-05
4.44319e-06
2.24443e-05
8.90777e-06
7.21348e-06
7.21388e-06
2.2446e-05
2.24557e-05
7.21139e-06
8.90663e-06
2.24539e-05
7.21113e-06
1.21248e-05
3.6283e-06
1.0666e-05
4.46047e-06
1.06613e-05
4.45478e-06
1.2128e-05
1.21241e-05
4.43757e-06
1.06574e-05
3.61161e-06
1.21209e-05
4.44262e-06
1.06604e-05
2.24444e-05
8.90722e-06
7.21481e-06
7.21491e-06
2.24459e-05
2.24555e-05
7.21251e-06
8.90681e-06
2.24539e-05
7.21257e-06
1.21244e-05
3.62814e-06
4.4598e-06
1.06654e-05
4.45518e-06
1.06621e-05
1.21276e-05
1.21242e-05
1.06562e-05
4.43753e-06
3.61163e-06
1.2121e-05
1.06609e-05
4.44254e-06
2.24438e-05
8.90677e-06
7.21316e-06
7.21326e-06
2.24453e-05
2.24549e-05
7.21078e-06
8.90639e-06
2.24534e-05
7.21085e-06
1.21245e-05
3.62821e-06
1.06659e-05
4.46001e-06
1.06612e-05
4.45506e-06
1.21277e-05
1.84786e-05
1.84858e-05
9.72774e-06
2.19433e-05
2.19434e-05
9.72901e-06
2.19436e-05
2.19436e-05
3.94751e-06
1.91316e-06
5.12786e-06
9.03992e-06
1.90704e-06
9.03491e-06
3.95347e-06
3.94053e-06
1.91153e-06
5.12603e-06
9.03524e-06
9.02955e-06
1.90535e-06
3.94648e-06
3.93636e-06
9.02706e-06
1.88477e-06
5.12113e-06
1.8911e-06
3.92965e-06
9.03221e-06
3.92928e-06
9.02166e-06
1.88305e-06
5.11944e-06
3.92262e-06
9.02749e-06
1.88948e-06
9.73009e-06
2.19334e-05
2.19334e-05
2.19331e-05
2.19332e-05
9.72869e-06
1.84769e-05
1.8484e-05
1.21243e-05
4.43741e-06
1.06576e-05
3.61153e-06
1.21212e-05
4.44244e-06
1.06606e-05
2.24442e-05
8.90744e-06
7.21314e-06
7.2134e-06
2.24456e-05
2.24553e-05
7.21094e-06
8.90634e-06
2.24539e-05
7.21076e-06
1.21247e-05
3.62841e-06
4.45989e-06
1.06655e-05
4.45497e-06
1.06623e-05
1.21278e-05
1.21241e-05
4.43733e-06
1.06566e-05
3.61162e-06
1.21209e-05
4.4433e-06
1.06613e-05
2.24438e-05
8.9084e-06
7.215e-06
7.21523e-06
2.24452e-05
2.24548e-05
7.21281e-06
8.90731e-06
2.24533e-05
7.21265e-06
1.21244e-05
3.62834e-06
4.4604e-06
1.06663e-05
4.45488e-06
1.06616e-05
1.21276e-05
9.72716e-06
2.1943e-05
2.19423e-05
9.72842e-06
2.19433e-05
2.19426e-05
3.94032e-06
1.91188e-06
5.12599e-06
9.03496e-06
3.94623e-06
1.90482e-06
9.02999e-06
3.94827e-06
1.9137e-06
5.12792e-06
9.0397e-06
3.95205e-06
1.90635e-06
9.03474e-06
3.92917e-06
9.0222e-06
1.88287e-06
5.11934e-06
3.92243e-06
1.88978e-06
9.02727e-06
3.93434e-06
9.02687e-06
1.88391e-06
5.12131e-06
3.93043e-06
1.89144e-06
9.03201e-06
9.72956e-06
2.19331e-05
2.19324e-05
9.72815e-06
2.19328e-05
2.19321e-05
1.84768e-05
1.8484e-05
1.84783e-05
1.84854e-05
1.84678e-05
1.84607e-05
1.84697e-05
1.84627e-05
9.73081e-06
2.19124e-05
2.19125e-05
2.19121e-05
2.19121e-05
9.72908e-06
3.9618e-06
1.92662e-06
9.03695e-06
5.13866e-06
3.95842e-06
9.04243e-06
1.93364e-06
3.97018e-06
1.92849e-06
9.04263e-06
5.14063e-06
3.96415e-06
9.04751e-06
1.9352e-06
9.72862e-06
2.19221e-05
2.19222e-05
9.73022e-06
2.19224e-05
2.19225e-05
3.97481e-06
9.04965e-06
5.1447e-06
1.95474e-06
9.04435e-06
3.97804e-06
1.94782e-06
3.98065e-06
9.0547e-06
5.14647e-06
1.95639e-06
9.05005e-06
3.98624e-06
1.94944e-06
1.84461e-05
1.8453e-05
1.84482e-05
1.84549e-05
9.72927e-06
2.19021e-05
2.19022e-05
9.73116e-06
2.19027e-05
2.19022e-05
4.00435e-06
1.99652e-06
5.16181e-06
9.06453e-06
9.05859e-06
1.98852e-06
4.01094e-06
4.01271e-06
1.99629e-06
5.16441e-06
9.06744e-06
9.06386e-06
1.99099e-06
4.01443e-06
3.99379e-06
9.0515e-06
1.96877e-06
5.15597e-06
3.99036e-06
9.05682e-06
1.97546e-06
4.0021e-06
9.05722e-06
1.97035e-06
5.15831e-06
3.99637e-06
9.06161e-06
1.97704e-06
9.73132e-06
2.18935e-05
2.18918e-05
2.18927e-05
2.18917e-05
9.72931e-06
1.21314e-05
3.67457e-06
1.06764e-05
4.4919e-06
1.06714e-05
4.48696e-06
1.21344e-05
2.24366e-05
7.21759e-06
8.91231e-06
2.24352e-05
7.21719e-06
1.21311e-05
3.65951e-06
1.06663e-05
4.47152e-06
1.06711e-05
1.2128e-05
4.47668e-06
2.24256e-05
7.2185e-06
8.91335e-06
7.21909e-06
2.24269e-05
1.21374e-05
1.06767e-05
4.50167e-06
3.70268e-06
1.21344e-05
1.06816e-05
4.50534e-06
2.24056e-05
8.91738e-06
7.21778e-06
7.21881e-06
2.2407e-05
2.24168e-05
7.21812e-06
8.91713e-06
2.2415e-05
7.2173e-06
1.21375e-05
3.71591e-06
1.0687e-05
4.51857e-06
1.06821e-05
4.51526e-06
1.21404e-05
1.21376e-05
1.06769e-05
4.50167e-06
3.70264e-06
1.21346e-05
1.06818e-05
4.50562e-06
2.24062e-05
8.91893e-06
7.21989e-06
7.22087e-06
2.24074e-05
2.24172e-05
7.22018e-06
8.91797e-06
2.24159e-05
7.2194e-06
1.21377e-05
3.71612e-06
1.06872e-05
4.51902e-06
1.06823e-05
4.51552e-06
1.21405e-05
9.73069e-06
2.19121e-05
2.19128e-05
2.19118e-05
2.19125e-05
9.72898e-06
3.96857e-06
1.92812e-06
9.042e-06
5.13917e-06
9.04753e-06
3.96513e-06
1.93455e-06
3.96181e-06
1.92672e-06
9.03732e-06
5.13706e-06
1.93301e-06
3.95824e-06
9.04281e-06
9.7285e-06
2.19218e-05
2.19225e-05
2.19221e-05
9.73009e-06
2.19228e-05
3.98159e-06
9.05477e-06
5.14774e-06
1.95577e-06
9.04941e-06
1.94985e-06
3.98484e-06
3.97462e-06
9.05004e-06
5.14594e-06
1.95419e-06
1.9481e-06
9.04471e-06
3.978e-06
1.84676e-05
1.84606e-05
1.84473e-05
1.8454e-05
9.72922e-06
2.19018e-05
2.19026e-05
9.73106e-06
2.19022e-05
2.19029e-05
4.01146e-06
1.99671e-06
5.16513e-06
9.06858e-06
1.99113e-06
9.06347e-06
4.01669e-06
4.00548e-06
1.99498e-06
5.16345e-06
9.06382e-06
9.05875e-06
1.98949e-06
4.00841e-06
4.00168e-06
9.05657e-06
1.97071e-06
5.15701e-06
1.97661e-06
3.99711e-06
9.06176e-06
3.99334e-06
9.05186e-06
1.96901e-06
5.15501e-06
3.99029e-06
9.05701e-06
1.97474e-06
9.73121e-06
2.18923e-05
2.18931e-05
2.1892e-05
2.18927e-05
9.72927e-06
1.8446e-05
1.84528e-05
1.21316e-05
3.67456e-06
1.06765e-05
4.49198e-06
1.06716e-05
4.48678e-06
1.21346e-05
2.24363e-05
7.21589e-06
8.91256e-06
2.24347e-05
7.21534e-06
1.21313e-05
3.65965e-06
1.06665e-05
4.47138e-06
1.06712e-05
1.21283e-05
4.47657e-06
2.2425e-05
7.21666e-06
8.91366e-06
7.21739e-06
2.24266e-05
1.21377e-05
4.50184e-06
1.06773e-05
3.70275e-06
1.21347e-05
4.50583e-06
1.06822e-05
2.24059e-05
8.91971e-06
7.21967e-06
7.22063e-06
2.24071e-05
2.24169e-05
7.21993e-06
8.91876e-06
2.24156e-05
7.21917e-06
1.21378e-05
3.71628e-06
4.51901e-06
1.06876e-05
4.51548e-06
1.06827e-05
1.21406e-05
1.21378e-05
1.06771e-05
4.5014e-06
3.70208e-06
1.21348e-05
1.0682e-05
4.50607e-06
2.24057e-05
8.91924e-06
7.21806e-06
7.21918e-06
2.24071e-05
2.24169e-05
7.21848e-06
8.91822e-06
2.24154e-05
7.21756e-06
1.21379e-05
3.71664e-06
1.06874e-05
4.51951e-06
1.06825e-05
4.51502e-06
1.21407e-05
1.21313e-05
3.67482e-06
4.49124e-06
1.06759e-05
4.48725e-06
1.06725e-05
1.21343e-05
2.24362e-05
7.21691e-06
8.91282e-06
7.21661e-06
2.24348e-05
1.2131e-05
3.65933e-06
4.4717e-06
1.06673e-05
4.47616e-06
1.21279e-05
1.06707e-05
2.24252e-05
7.21793e-06
8.91321e-06
7.21844e-06
2.24266e-05
1.21313e-05
3.67458e-06
1.06764e-05
4.49173e-06
1.06715e-05
4.487e-06
1.21343e-05
2.24356e-05
7.2153e-06
8.91239e-06
2.24342e-05
7.21499e-06
1.2131e-05
3.65956e-06
1.06663e-05
4.47168e-06
1.21279e-05
1.06711e-05
4.47609e-06
2.24245e-05
7.21632e-06
8.91274e-06
7.21685e-06
2.24259e-05
1.21375e-05
4.50166e-06
1.06779e-05
3.70198e-06
1.21346e-05
4.506e-06
1.06814e-05
2.24059e-05
8.91876e-06
7.21935e-06
7.22024e-06
2.24072e-05
2.24169e-05
7.21955e-06
8.91846e-06
2.24155e-05
7.21884e-06
1.21377e-05
3.71679e-06
4.51924e-06
1.06868e-05
4.51496e-06
1.06833e-05
1.21405e-05
1.21375e-05
1.0677e-05
4.50131e-06
3.70275e-06
1.21346e-05
1.06819e-05
4.50599e-06
2.24051e-05
8.91828e-06
7.21774e-06
7.21866e-06
2.24064e-05
2.24161e-05
7.21797e-06
8.91801e-06
2.24148e-05
7.21723e-06
1.21377e-05
3.71608e-06
1.06872e-05
4.51929e-06
1.06823e-05
4.51487e-06
1.21405e-05
9.73154e-06
2.19133e-05
2.19133e-05
2.1913e-05
2.1913e-05
9.72985e-06
3.97052e-06
1.92868e-06
9.04253e-06
5.14054e-06
9.04743e-06
3.96447e-06
1.93543e-06
3.96355e-06
1.92702e-06
9.03722e-06
5.13886e-06
1.9338e-06
3.95752e-06
9.04274e-06
9.72939e-06
2.1923e-05
2.1923e-05
2.19233e-05
9.73094e-06
2.19233e-05
3.98077e-06
9.05463e-06
5.14655e-06
1.95638e-06
9.04995e-06
1.94961e-06
3.98645e-06
3.97379e-06
9.05001e-06
5.14472e-06
1.95504e-06
1.94789e-06
9.04458e-06
3.97952e-06
1.84686e-05
1.84617e-05
1.84489e-05
1.84556e-05
9.73007e-06
2.1903e-05
2.19031e-05
9.73188e-06
2.19034e-05
2.19034e-05
4.01166e-06
1.99731e-06
5.16398e-06
9.06843e-06
1.99084e-06
9.06407e-06
4.017e-06
4.00467e-06
1.99608e-06
5.16199e-06
9.06378e-06
9.05866e-06
1.98889e-06
4.01003e-06
4.00215e-06
9.05713e-06
1.97057e-06
5.15818e-06
1.97711e-06
3.99657e-06
9.06169e-06
3.99517e-06
9.05182e-06
1.96878e-06
5.15647e-06
3.98957e-06
9.05698e-06
1.97573e-06
9.732e-06
2.18935e-05
2.18936e-05
2.18932e-05
2.18932e-05
9.73009e-06
1.84471e-05
1.84538e-05
1.21314e-05
3.67521e-06
4.49119e-06
1.0676e-05
4.48707e-06
1.06726e-05
1.21344e-05
2.24359e-05
7.21536e-06
8.91227e-06
7.21497e-06
2.24346e-05
1.21311e-05
3.65904e-06
4.47157e-06
1.06674e-05
4.47595e-06
1.21281e-05
1.06708e-05
2.24249e-05
7.21628e-06
8.91331e-06
7.21688e-06
2.24262e-05
1.21313e-05
3.67471e-06
4.49173e-06
1.06768e-05
4.48695e-06
1.06719e-05
1.21343e-05
2.24355e-05
7.21717e-06
8.91326e-06
2.24342e-05
7.2168e-06
1.2131e-05
3.65972e-06
4.47156e-06
1.06667e-05
1.21279e-05
4.47667e-06
1.06715e-05
2.24245e-05
7.2181e-06
8.91429e-06
7.21867e-06
2.24258e-05
1.21375e-05
4.50155e-06
1.06779e-05
3.7028e-06
1.21347e-05
4.5058e-06
1.06814e-05
2.24054e-05
8.91889e-06
7.21766e-06
7.21865e-06
2.24066e-05
2.24164e-05
7.21796e-06
8.91793e-06
2.24152e-05
7.21717e-06
1.21377e-05
3.71618e-06
4.5191e-06
1.06868e-05
4.51483e-06
1.06833e-05
1.21405e-05
1.21374e-05
4.50171e-06
1.06773e-05
3.70283e-06
1.21345e-05
4.50563e-06
1.06823e-05
2.24052e-05
8.91988e-06
7.21948e-06
7.22044e-06
2.24063e-05
2.24161e-05
7.21975e-06
8.9189e-06
2.24149e-05
7.21899e-06
1.21376e-05
3.71626e-06
4.51901e-06
1.06876e-05
4.51549e-06
1.06827e-05
1.21404e-05
1.84686e-05
1.84616e-05
1.84701e-05
1.84631e-05
9.72959e-06
2.19028e-05
2.19022e-05
9.73141e-06
2.19032e-05
2.19025e-05
4.00452e-06
1.99579e-06
5.16199e-06
9.06345e-06
1.98893e-06
9.05916e-06
4.00982e-06
4.01254e-06
1.99683e-06
5.16393e-06
9.06826e-06
1.99089e-06
9.06395e-06
4.01549e-06
3.99496e-06
9.05217e-06
1.96878e-06
5.15645e-06
3.98943e-06
1.97553e-06
9.05672e-06
4.00043e-06
9.05698e-06
1.9704e-06
5.15841e-06
3.99735e-06
1.97698e-06
9.0615e-06
9.73157e-06
2.18934e-05
2.18927e-05
2.1893e-05
2.18923e-05
9.72964e-06
1.8447e-05
1.84538e-05
1.84486e-05
1.84553e-05
1.17588e-07
1.17584e-07
1.3287e-07
1.16483e-07
1.16481e-07
1.09883e-07
1.11176e-07
1.74113e-06
7.66094e-07
7.66385e-07
3.58008e-07
1.73285e-06
7.71274e-07
7.71546e-07
1.71052e-06
3.51099e-07
7.56487e-07
7.56442e-07
7.50874e-07
7.51268e-07
1.71823e-06
1.71061e-06
3.50949e-07
7.56005e-07
7.54893e-07
7.51428e-07
7.5207e-07
1.7181e-06
1.71146e-06
3.51417e-07
7.55151e-07
7.55869e-07
7.5257e-07
7.51337e-07
1.7184e-06
1.71053e-06
3.5108e-07
7.56222e-07
7.56517e-07
1.71867e-06
7.51128e-07
7.51405e-07
1.74112e-06
7.65832e-07
7.66341e-07
3.58117e-07
1.73302e-06
7.7118e-07
7.71343e-07
1.79783e-06
3.7634e-07
8.16974e-07
8.16326e-07
8.11113e-07
8.11981e-07
1.80513e-06
1.74009e-06
7.66436e-07
7.66855e-07
3.57933e-07
7.70005e-07
1.73314e-06
7.71213e-07
1.79821e-06
3.75997e-07
8.16898e-07
8.15458e-07
8.11562e-07
8.12401e-07
1.80497e-06
1.7406e-06
7.67357e-07
7.66343e-07
3.5756e-07
7.70961e-07
1.7333e-06
7.70179e-07
1.79853e-06
3.7676e-07
8.15697e-07
8.16359e-07
8.12974e-07
8.1161e-07
1.80498e-06
1.79792e-06
3.76558e-07
8.16553e-07
8.16896e-07
8.11322e-07
8.11718e-07
1.80542e-06
1.34877e-07
1.18727e-07
1.18725e-07
1.19904e-07
1.199e-07
1.13848e-07
1.12497e-07
1.34865e-07
1.18725e-07
1.18718e-07
1.19902e-07
1.19895e-07
1.13847e-07
1.12496e-07
1.34875e-07
1.18728e-07
1.18725e-07
1.19904e-07
1.19899e-07
1.13848e-07
1.12498e-07
1.34868e-07
1.18724e-07
1.18722e-07
1.199e-07
1.19898e-07
1.13847e-07
1.12497e-07
1.17586e-07
1.17579e-07
1.3286e-07
1.16481e-07
1.16474e-07
1.09881e-07
1.11175e-07
1.17589e-07
1.17584e-07
1.32873e-07
1.16485e-07
1.16481e-07
1.09883e-07
1.11176e-07
1.17584e-07
1.17583e-07
1.32865e-07
1.1648e-07
1.16479e-07
1.09882e-07
1.11175e-07
1.323e-07
1.14382e-07
1.1438e-07
1.15416e-07
1.15412e-07
1.08618e-07
1.07381e-07
1.32288e-07
1.1438e-07
1.14373e-07
1.15414e-07
1.15406e-07
1.08617e-07
1.07379e-07
1.32301e-07
1.14384e-07
1.1438e-07
1.15417e-07
1.15412e-07
1.08618e-07
1.07381e-07
1.32292e-07
1.14379e-07
1.14378e-07
1.15412e-07
1.15411e-07
1.08617e-07
1.0738e-07
4.77044e-07
1.15113e-06
1.47446e-06
3.88116e-07
1.46888e-06
3.87223e-07
4.77378e-07
6.56809e-07
1.00042e-06
2.07441e-06
2.80302e-06
6.53227e-07
1.0047e-06
2.08114e-06
4.6854e-07
1.13597e-06
1.44678e-06
3.80006e-07
4.68276e-07
1.45274e-06
3.80934e-07
6.65018e-07
2.10074e-06
2.81743e-06
1.02186e-06
1.01747e-06
2.09542e-06
6.68356e-07
4.76056e-07
1.15131e-06
3.88931e-07
1.47567e-06
3.86617e-07
1.46809e-06
4.78904e-07
6.56926e-07
1.00083e-06
2.07404e-06
2.80487e-06
6.53261e-07
1.00464e-06
2.08131e-06
4.69909e-07
1.13598e-06
3.79602e-07
1.44612e-06
4.67176e-07
3.81713e-07
1.45349e-06
6.65088e-07
2.10213e-06
2.81657e-06
1.02211e-06
1.0177e-06
2.09487e-06
6.68534e-07
1.75518e-06
3.6315e-07
7.86278e-07
7.86625e-07
7.81249e-07
7.81594e-07
1.76288e-06
1.69633e-06
3.46136e-07
7.35748e-07
7.36248e-07
1.68738e-06
7.41359e-07
7.4138e-07
4.5264e-07
1.40095e-06
3.66676e-07
1.09382e-06
4.50002e-07
1.40905e-06
3.67431e-07
6.41811e-07
9.88251e-07
2.77916e-06
2.05909e-06
9.83123e-07
2.05373e-06
6.44979e-07
6.33897e-07
2.03205e-06
9.66254e-07
2.76682e-06
9.7138e-07
6.30294e-07
2.0375e-06
4.58144e-07
1.10801e-06
1.43139e-06
3.74104e-07
1.42362e-06
3.73247e-07
4.60766e-07
4.51564e-07
1.40242e-06
3.66028e-07
1.09345e-06
4.51336e-07