/*--------------------------------*- C++ -*----------------------------------*\
| =========                 |                                                 |
| \\      /  F ield         | OpenFOAM: The Open Source CFD Toolbox           |
|  \\    /   O peration     | Version:  v1906                                 |
|   \\  /    A nd           | Web:      www.OpenFOAM.com                      |
|    \\/     M anipulation  |                                                 |
\*---------------------------------------------------------------------------*/
FoamFile
{
    version     2.0;
    format      ascii;
    class       volScalarField;
    location    "550";
    object      nut;
}
// * * * * * * * * * * * * * * * * * * * * * * * * * * * * * * * * * * * * * //

dimensions      [0 2 -1 0 0 0 0];


internalField   nonuniform List<scalar> 
43248
(
0.000136866
0.000138616
0.000138621
0.000136843
0.000138637
0.000138624
0.000138634
0.000138645
0.000136781
0.000138638
0.000138646
0.00013688
0.000122368
0.000122365
0.000122373
0.000122386
2.36121e-05
2.36117e-05
7.37343e-05
7.3739e-05
9.18248e-05
5.00153e-05
9.20525e-05
9.18249e-05
5.00195e-05
5.00042e-05
9.20569e-05
0.000120672
9.38242e-05
0.000133973
0.000133111
0.000121324
0.000120683
0.000137833
9.38216e-05
0.000133976
9.35271e-05
0.000133113
0.000121319
2.36121e-05
2.36076e-05
0.000135899
7.37388e-05
7.3724e-05
7.36263e-05
7.3628e-05
2.36126e-05
2.36082e-05
5.00142e-05
9.20693e-05
9.38183e-05
0.000133989
0.00012133
5.00111e-05
9.20653e-05
0.000133989
9.38043e-05
0.000121324
0.000120681
0.000137845
9.38136e-05
0.000133984
9.35429e-05
0.000133122
0.00012133
9.18255e-05
5.00185e-05
5.00031e-05
9.20639e-05
0.000120679
0.000137857
0.000133996
9.38189e-05
0.000133133
9.35367e-05
0.000121324
9.1823e-05
5.00154e-05
5e-05
9.20621e-05
2.361e-05
7.37168e-05
7.37335e-05
2.36118e-05
0.000120683
0.000133997
9.38269e-05
0.000133136
0.000121324
0.000120681
0.000137858
0.000134005
9.38239e-05
0.000133142
9.35207e-05
0.000121328
9.18344e-05
5.00117e-05
9.206e-05
9.1836e-05
5.00136e-05
5.00003e-05
9.20603e-05
0.000135901
7.37302e-05
7.37363e-05
7.36351e-05
7.36289e-05
2.36117e-05
2.36073e-05
2.36112e-05
2.36068e-05
2.36103e-05
2.36093e-05
9.72552e-05
0.000112668
7.36996e-05
4.79386e-05
4.79318e-05
0.000112501
9.73167e-05
9.7286e-05
0.000112654
7.36922e-05
4.79374e-05
4.7924e-05
0.000112506
9.73605e-05
7.88188e-05
2.14921e-05
2.14902e-05
2.14903e-05
2.14877e-05
7.88424e-05
3.62669e-05
4.05365e-05
8.80238e-05
9.19284e-05
3.62651e-05
4.05362e-05
8.81069e-05
2.01019e-05
5.00127e-05
7.60335e-05
7.59922e-05
2.0104e-05
3.62684e-05
9.19497e-05
4.05393e-05
8.82044e-05
4.05406e-05
8.81236e-05
3.62702e-05
3.62697e-05
4.05327e-05
8.80416e-05
9.19418e-05
3.62663e-05
4.05398e-05
8.81208e-05
2.01031e-05
5.00112e-05
7.60579e-05
7.6019e-05
2.01051e-05
2.01037e-05
7.59715e-05
5.00119e-05
2.01017e-05
7.60122e-05
3.62693e-05
9.1948e-05
4.05442e-05
8.82188e-05
4.05367e-05
8.81414e-05
3.62737e-05
2.36099e-05
2.36097e-05
7.87988e-05
2.14865e-05
2.1489e-05
7.87747e-05
2.14885e-05
2.14911e-05
9.7271e-05
0.00011266
7.36939e-05
4.79347e-05
0.000112487
4.79247e-05
9.73333e-05
9.72624e-05
0.00011267
7.36961e-05
4.79387e-05
4.79366e-05
0.000112504
9.73119e-05
9.72057e-05
4.79171e-05
0.000112241
7.3669e-05
0.000112414
9.71458e-05
4.79262e-05
9.71856e-05
4.79285e-05
0.000112258
7.36563e-05
9.71357e-05
4.79309e-05
0.000112423
7.88178e-05
2.14902e-05
2.14927e-05
2.14881e-05
2.14906e-05
7.88429e-05
2.36104e-05
2.36103e-05
2.01033e-05
5.0011e-05
7.60578e-05
7.60168e-05
2.01053e-05
3.62707e-05
9.19543e-05
8.82252e-05
4.05391e-05
8.81344e-05
4.05404e-05
3.62722e-05
2.01015e-05
5.00038e-05
7.60319e-05
7.59866e-05
2.01036e-05
3.62667e-05
9.19424e-05
4.05433e-05
8.82097e-05
4.05356e-05
8.8114e-05
3.62701e-05
3.62706e-05
8.80349e-05
4.05321e-05
9.1939e-05
3.62661e-05
8.81308e-05
4.05393e-05
2.01037e-05
5.00101e-05
7.60616e-05
7.60164e-05
2.01057e-05
2.01043e-05
7.59698e-05
5.00108e-05
2.01023e-05
7.60149e-05
3.62691e-05
9.1951e-05
8.82221e-05
4.05437e-05
8.81362e-05
4.05361e-05
3.62746e-05
3.62686e-05
4.0532e-05
8.80255e-05
9.19379e-05
3.6264e-05
4.05392e-05
8.81213e-05
2.01026e-05
5.0007e-05
7.60428e-05
7.59973e-05
2.01046e-05
2.01032e-05
7.59511e-05
5.00077e-05
2.01012e-05
7.59957e-05
3.6267e-05
9.19491e-05
4.05436e-05
8.8221e-05
4.0536e-05
8.8125e-05
3.62726e-05
2.36079e-05
9.7271e-05
0.000112636
7.36854e-05
4.79319e-05
0.000112491
4.79218e-05
9.73206e-05
9.72613e-05
0.000112664
7.3697e-05
4.79435e-05
4.79335e-05
0.000112506
9.73128e-05
7.88204e-05
2.14891e-05
2.14925e-05
2.1487e-05
2.14904e-05
7.88383e-05
2.36097e-05
3.62668e-05
8.80328e-05
4.05361e-05
9.19335e-05
3.6266e-05
8.8112e-05
4.05352e-05
2.01027e-05
5.00097e-05
7.60391e-05
7.59986e-05
2.01047e-05
2.01033e-05
7.59929e-05
3.62699e-05
9.19549e-05
8.821e-05
4.05389e-05
8.81312e-05
4.05399e-05
3.62705e-05
3.62689e-05
8.80382e-05
4.05362e-05
9.19343e-05
3.62672e-05
8.81151e-05
4.05353e-05
2.01033e-05
5.0009e-05
7.60524e-05
7.60112e-05
2.01054e-05
2.0104e-05
7.59635e-05
5.00075e-05
2.01019e-05
7.60076e-05
3.62704e-05
9.19566e-05
8.82121e-05
4.05389e-05
8.81369e-05
4.054e-05
3.62721e-05
7.87973e-05
2.1489e-05
2.14861e-05
7.87794e-05
2.14911e-05
2.14882e-05
9.7261e-05
0.000112679
7.37035e-05
4.79429e-05
0.000112507
4.79328e-05
9.73111e-05
9.72742e-05
0.000112667
7.3697e-05
4.79341e-05
0.000112492
4.79242e-05
9.73312e-05
9.71847e-05
4.79265e-05
0.000112263
7.36628e-05
9.71348e-05
0.000112422
4.79335e-05
9.72055e-05
4.79166e-05
0.000112245
7.36682e-05
9.71485e-05
0.000112421
4.79256e-05
7.8822e-05
2.14928e-05
2.14899e-05
2.14907e-05
2.14878e-05
7.88448e-05
2.36096e-05
2.36094e-05
2.36091e-05
2.36089e-05
0.000119488
0.000136494
0.000129849
0.000129843
0.000129653
0.000129682
0.000119624
0.00011948
0.000136525
0.000129917
0.000129924
0.000129635
0.000129629
0.000119624
0.000119495
0.000136544
0.000129857
0.00012979
0.00012964
0.00012967
0.000119598
0.000119498
0.000136566
0.000129919
0.000129932
0.000129643
0.000129642
0.000119605
0.000120249
0.000120257
0.000119981
0.000132087
0.000131846
0.000121705
0.000120247
0.000120256
0.00011998
0.000119988
0.000132087
0.000131847
0.000120257
0.000120263
0.000119996
0.000132084
0.000131844
0.000121726
0.000120262
0.000120268
0.000119995
0.00012
0.000132087
0.000131847
0.000132414
0.000117026
0.000134152
0.00012098
0.000132147
0.000117296
0.000134336
0.00012844
0.000122181
9.36858e-05
0.000107724
0.00012198
0.000107532
0.000128689
0.000132685
0.000121016
0.000117595
0.000134932
0.000117334
0.000134689
0.000132852
0.000132452
0.000117047
0.00013416
0.000120978
0.000132196
0.000117304
0.00013434
0.000128435
0.000122154
9.36733e-05
0.000107734
0.000107548
0.000121991
0.0001287
0.000128228
0.000107314
0.000121628
9.36763e-05
0.000128003
0.000107506
0.000121778
0.000132707
0.000121028
0.000117603
0.000134941
0.000117354
0.000134694
0.000132917
0.000119343
0.000136187
0.000129204
0.00012919
0.000129421
0.000119209
0.000129437
0.000128385
0.000122171
9.36891e-05
0.000107752
0.00012197
0.000107542
0.000128818
0.000132616
0.000121014
0.000117612
0.000135058
0.000117336
0.000134551
0.000133073
0.000128476
0.000122144
9.36737e-05
0.000107718
0.000107525
0.000121965
0.000128694
0.000132778
0.00012101
0.000135043
0.000117595
0.000134581
0.000117323
0.000132941
0.000132268
0.000117046
0.000134229
0.000120987
0.000132288
0.000117303
0.000134275
0.000128523
0.000122115
9.3691e-05
0.000107735
0.000122021
0.000107549
0.000128598
0.000128209
0.000107316
0.00012166
9.36574e-05
0.000128025
0.000121759
0.000107508
0.000132832
0.000121025
0.000117601
0.000134817
0.000117352
0.000134791
0.000132781
0.000132511
0.000134193
0.000117036
0.000120983
0.00013205
0.000134262
0.000117307
0.000128427
0.000122215
9.3691e-05
0.000107747
0.000107536
0.000121977
0.000128824
0.000128274
0.000107304
0.000121629
9.36651e-05
0.000128049
0.000107514
0.00012181
0.000132635
0.000121024
0.000134804
0.000117609
0.000134764
0.000117342
0.000133028
0.000132247
0.000134225
0.000117037
0.000120981
0.000132227
0.00013426
0.000117296
0.000128532
0.00012217
9.368e-05
0.000107747
0.000121981
0.000107539
0.000128686
0.000128146
0.000107504
0.000132725
0.000121022
0.000134938
0.000117592
0.00013475
0.000117344
0.000132862
0.000132314
0.000134216
0.000117046
0.000120986
0.0001323
0.000134261
0.000117303
0.00012857
0.000122127
9.36763e-05
0.00010773
0.00010754
0.000121997
0.000128629
0.000128148
0.000107305
0.00012164
9.36723e-05
0.000128104
0.000107512
0.000121779
0.000132825
0.000121023
0.000134814
0.000117606
0.000134781
0.000117345
0.000132857
0.000119323
0.000136191
0.000129206
0.000129199
0.000119231
0.000129435
0.000129431
0.000150048
0.000101455
0.000101446
8.23505e-05
8.26832e-05
0.000102204
0.000102193
8.25894e-05
0.000102231
0.000102187
0.00010224
0.000102205
8.26626e-05
0.000102231
0.000102228
8.2674e-05
8.23713e-05
8.20948e-05
0.00010143
0.00010141
9.92363e-05
9.92284e-05
8.25591e-05
8.19171e-05
0.000101434
0.000101402
9.92689e-05
9.92219e-05
0.000101424
9.92734e-05
9.92419e-05
8.24024e-05
8.21081e-05
0.000101445
9.92643e-05
9.9262e-05
8.20828e-05
0.000151074
0.000151077
0.000151066
0.000151071
6.99979e-05
4.95564e-05
6.9105e-05
4.95606e-05
2.363e-05
2.36267e-05
7.0016e-05
4.95498e-05
6.90972e-05
4.95637e-05
0.000150052
0.000150042
0.000150048
0.00014697
0.000146972
0.000146961
0.000146967
6.69967e-05
6.56985e-05
0.000125985
0.000100695
6.6001e-05
6.63781e-05
0.000124962
2.36277e-05
2.36243e-05
6.70041e-05
0.00012599
6.57195e-05
0.000100686
6.59921e-05
0.000124956
6.63631e-05
6.11126e-05
6.11131e-05
8.22498e-05
6.14316e-05
6.14337e-05
2.3633e-05
2.36367e-05
2.36318e-05
2.36353e-05
8.2761e-05
6.0936e-05
6.09413e-05
6.06086e-05
6.06094e-05
6.79495e-05
4.95499e-05
4.95465e-05
6.88876e-05
6.79452e-05
4.95566e-05
4.95417e-05
6.88948e-05
6.46238e-05
0.000103035
6.53719e-05
0.000126989
6.47525e-05
0.000128033
6.55604e-05
6.46099e-05
0.000103015
6.53757e-05
0.000126979
6.47606e-05
0.000128026
6.55563e-05
2.36331e-05
2.36365e-05
8.29565e-05
6.09578e-05
6.09543e-05
6.05953e-05
6.059e-05
2.36334e-05
2.36371e-05
6.79441e-05
4.9553e-05
4.95378e-05
6.89093e-05
6.46479e-05
0.000103039
6.53759e-05
0.00012699
6.47541e-05
0.000128038
6.55314e-05
6.79365e-05
4.95488e-05
4.95335e-05
6.8904e-05
6.46241e-05
0.000103008
0.000126981
6.53964e-05
0.00012803
6.47023e-05
6.55689e-05
6.46039e-05
0.000103064
6.54089e-05
0.000126989
6.47127e-05
0.000128034
6.55693e-05
6.79525e-05
4.95511e-05
4.95471e-05
6.88821e-05
6.46031e-05
0.000103028
0.000126982
6.54055e-05
0.000128027
6.47069e-05
6.55646e-05
6.79433e-05
4.95472e-05
4.95424e-05
6.88901e-05
2.36308e-05
2.36342e-05
8.28313e-05
6.09348e-05
6.094e-05
6.06024e-05
6.06119e-05
2.36325e-05
2.3636e-05
6.46351e-05
0.000103051
0.000126983
6.539e-05
0.000128033
6.47364e-05
6.55984e-05
6.46185e-05
0.000103049
0.000126996
6.53827e-05
0.000128044
6.47384e-05
6.55878e-05
6.79309e-05
4.95514e-05
4.95362e-05
6.89257e-05
6.79307e-05
4.95522e-05
4.95369e-05
6.8918e-05
8.27878e-05
6.09388e-05
6.0939e-05
6.06115e-05
6.06127e-05
2.36321e-05
2.36358e-05
2.36316e-05
2.36352e-05
2.36301e-05
2.36266e-05
2.36289e-05
2.36255e-05
6.11115e-05
6.11141e-05
8.23125e-05
6.14312e-05
6.14354e-05
2.36201e-05
2.36237e-05
2.36196e-05
2.36226e-05
8.20748e-05
6.19002e-05
6.19092e-05
6.15927e-05
6.15995e-05
7.00034e-05
4.95538e-05
6.91063e-05
4.95674e-05
6.6964e-05
6.5732e-05
0.000125987
0.000100661
6.60098e-05
6.63498e-05
0.000124966
6.69807e-05
6.57411e-05
0.000125979
0.00010065
6.60116e-05
6.63522e-05
0.000124958
7.01966e-05
4.95708e-05
4.95669e-05
7.10291e-05
7.01993e-05
4.95774e-05
4.95644e-05
7.10344e-05
6.74593e-05
9.99452e-05
6.72996e-05
0.000122975
6.6697e-05
0.000123973
6.84178e-05
6.74437e-05
9.9926e-05
6.73024e-05
0.000122967
6.67057e-05
0.000123964
6.84419e-05
6.1102e-05
6.10952e-05
8.22178e-05
6.14528e-05
6.14494e-05
2.36305e-05
2.3627e-05
2.36205e-05
2.36237e-05
8.22509e-05
6.19215e-05
6.19078e-05
6.15877e-05
6.15811e-05
2.36209e-05
2.36241e-05
6.69657e-05
6.57333e-05
0.00012599
0.000100689
6.60418e-05
6.635e-05
0.000124962
7.0012e-05
4.95457e-05
6.90978e-05
4.95597e-05
6.69824e-05
0.000125982
6.57009e-05
0.000100643
6.60118e-05
0.000124961
6.63864e-05
7.01905e-05
4.95738e-05
4.95605e-05
7.10501e-05
6.74601e-05
9.99488e-05
6.73009e-05
0.00012297
6.67007e-05
0.000123975
6.84319e-05
7.01881e-05
4.95697e-05
4.95563e-05
7.10584e-05
6.7449e-05
9.99189e-05
0.000122971
6.73314e-05
0.000123967
6.66574e-05
6.84438e-05
7.00137e-05
4.9557e-05
6.91115e-05
4.95618e-05
6.69729e-05
0.000125982
6.57068e-05
0.000100663
6.59992e-05
0.00012496
6.63884e-05
6.9996e-05
4.95529e-05
6.9106e-05
4.95579e-05
6.74234e-05
9.9971e-05
6.73222e-05
0.000122971
6.6666e-05
0.00012397
6.84527e-05
7.01935e-05
4.95721e-05
4.95679e-05
7.10478e-05
6.74416e-05
9.99399e-05
0.00012297
6.73017e-05
0.000123967
6.66731e-05
6.84323e-05
7.02007e-05
4.9568e-05
4.95639e-05
7.10267e-05
6.1108e-05
6.11125e-05
8.23041e-05
6.14296e-05
6.1434e-05
2.36294e-05
2.3626e-05
2.36182e-05
2.36213e-05
8.21125e-05
6.18988e-05
6.1903e-05
6.15929e-05
6.15971e-05
2.36198e-05
2.36231e-05
6.7005e-05
0.000125997
6.57276e-05
0.000100684
6.59959e-05
0.000124974
6.63478e-05
7.00313e-05
4.95484e-05
6.90872e-05
4.95623e-05
7.0024e-05
4.95492e-05
6.90942e-05
4.95629e-05
6.74244e-05
9.99621e-05
0.000122965
6.73131e-05
0.000123974
6.66868e-05
6.84558e-05
6.74353e-05
9.99606e-05
0.000122982
6.73139e-05
0.000123981
6.67002e-05
6.84658e-05
7.01792e-05
4.95722e-05
4.9559e-05
7.10573e-05
7.01887e-05
4.9573e-05
4.95599e-05
7.10571e-05
2.36292e-05
2.36257e-05
2.36286e-05
2.36252e-05
8.20458e-05
6.1901e-05
6.19037e-05
6.15988e-05
6.15982e-05
2.36195e-05
2.36229e-05
2.3619e-05
2.36222e-05
3.61961e-05
6.96667e-05
4.03456e-05
7.10897e-05
4.03472e-05
7.0756e-05
3.61989e-05
2.02174e-05
6.83241e-05
4.95554e-05
2.02169e-05
6.84511e-05
3.61957e-05
6.9448e-05
4.03403e-05
7.03537e-05
3.61927e-05
4.03392e-05
7.06975e-05
2.0214e-05
6.8619e-05
4.95616e-05
6.84939e-05
2.02145e-05
2.36298e-05
2.36268e-05
3.61977e-05
6.96568e-05
7.11091e-05
4.03452e-05
7.07626e-05
4.03467e-05
3.62006e-05
2.02188e-05
6.83369e-05
4.95583e-05
2.02183e-05
6.84821e-05
3.61973e-05
6.94711e-05
7.03574e-05
4.03398e-05
3.61943e-05
7.07146e-05
4.03388e-05
2.02154e-05
6.86499e-05
4.95554e-05
6.85112e-05
2.02159e-05
2.36275e-05
2.36245e-05
7.08344e-05
2.15529e-05
2.15499e-05
2.15527e-05
2.15498e-05
7.09673e-05
7.38835e-05
7.09559e-05
4.71478e-05
6.11881e-05
7.37485e-05
7.11532e-05
4.71613e-05
7.39389e-05
7.09642e-05
4.71395e-05
6.11895e-05
7.37771e-05
7.11722e-05
4.71527e-05
7.07979e-05
2.1556e-05
2.15531e-05
7.06655e-05
2.15561e-05
2.15532e-05
7.4177e-05
4.71739e-05
6.13575e-05
7.17865e-05
7.1594e-05
4.71608e-05
7.43089e-05
7.42081e-05
4.71654e-05
6.13568e-05
7.17954e-05
7.15932e-05
4.71526e-05
7.43684e-05
2.36334e-05
2.36363e-05
2.3632e-05
2.36351e-05
7.04433e-05
2.15634e-05
2.15595e-05
7.03119e-05
2.15635e-05
2.15596e-05
7.32999e-05
7.05269e-05
6.08601e-05
4.71453e-05
4.71407e-05
7.03285e-05
7.34645e-05
7.33452e-05
7.05495e-05
6.08626e-05
4.71386e-05
4.71247e-05
7.03151e-05
7.3483e-05
7.30224e-05
4.71278e-05
6.96904e-05
6.06846e-05
7.28556e-05
4.71322e-05
6.98917e-05
7.30661e-05
4.71104e-05
6.96777e-05
6.06889e-05
7.28996e-05
4.71248e-05
6.99214e-05
7.04912e-05
2.15601e-05
2.15563e-05
2.15601e-05
2.15561e-05
7.06228e-05
3.61888e-05
4.0329e-05
6.95204e-05
6.82945e-05
3.61859e-05
4.03265e-05
6.98518e-05
2.02198e-05
4.9551e-05
6.82795e-05
2.02203e-05
6.81429e-05
2.02232e-05
6.79669e-05
4.95449e-05
2.02227e-05
6.80998e-05
3.61893e-05
6.85415e-05
4.03322e-05
7.02875e-05
3.61923e-05
4.03336e-05
6.99429e-05
3.61907e-05
4.03292e-05
6.95195e-05
6.83036e-05
3.61878e-05
4.03266e-05
6.9875e-05
2.02209e-05
4.95478e-05
6.83094e-05
6.81623e-05
2.02214e-05
2.02243e-05
6.79785e-05
4.95507e-05
2.02238e-05
6.81313e-05
3.61912e-05
6.85384e-05
4.03325e-05
7.02989e-05
4.03341e-05
6.99485e-05
3.61942e-05
2.36332e-05
2.36364e-05
7.04491e-05
2.15605e-05
2.15628e-05
7.03038e-05
2.15606e-05
2.15629e-05
7.3345e-05
7.05228e-05
6.08485e-05
4.71361e-05
7.03358e-05
4.71315e-05
7.35117e-05
7.3293e-05
7.05341e-05
6.0842e-05
4.71439e-05
4.71392e-05
7.03113e-05
7.34641e-05
7.3052e-05
4.71184e-05
6.97e-05
6.07055e-05
6.99027e-05
7.29087e-05
4.71229e-05
7.30353e-05
4.7126e-05
6.96661e-05
6.07026e-05
7.28491e-05
4.71307e-05
6.99039e-05
7.04863e-05
2.15573e-05
2.15596e-05
2.15571e-05
2.15595e-05
7.06271e-05
2.36337e-05
2.36368e-05
3.61904e-05
6.9516e-05
4.03286e-05
6.83273e-05
3.61875e-05
6.98732e-05
4.03261e-05
2.02212e-05
4.9544e-05
6.83096e-05
2.02217e-05
6.81599e-05
2.02245e-05
6.79718e-05
4.95468e-05
2.02241e-05
6.81286e-05
3.61909e-05
6.85285e-05
7.03081e-05
4.03317e-05
3.61939e-05
6.99454e-05
4.03332e-05
3.6188e-05
4.03284e-05
6.95137e-05
6.83232e-05
3.61851e-05
4.03258e-05
6.98517e-05
2.02194e-05
4.95397e-05
6.82807e-05
6.81343e-05
2.022e-05
2.02229e-05
6.79517e-05
4.9543e-05
2.02223e-05
6.81027e-05
3.61885e-05
6.85245e-05
4.03317e-05
7.02761e-05
4.03332e-05
6.99444e-05
3.61914e-05
3.61914e-05
6.95081e-05
4.03194e-05
6.83041e-05
3.61879e-05
6.98815e-05
4.03316e-05
2.02219e-05
4.9552e-05
6.83011e-05
6.81721e-05
2.02223e-05
2.02252e-05
6.79869e-05
4.95459e-05
2.02247e-05
6.81242e-05
3.61915e-05
6.85378e-05
7.0306e-05
4.03382e-05
6.99386e-05
4.03267e-05
3.61949e-05
3.61889e-05
4.03284e-05
6.95042e-05
6.82985e-05
3.61859e-05
4.03258e-05
6.98724e-05
2.02204e-05
4.95481e-05
6.82817e-05
6.81545e-05
2.02208e-05
2.02237e-05
6.7967e-05
4.95421e-05
2.02233e-05
6.81061e-05
3.61893e-05
6.8538e-05
4.03318e-05
7.0292e-05
4.03333e-05
6.99358e-05
3.61923e-05
2.36309e-05
2.3634e-05
7.0447e-05
2.15593e-05
2.15626e-05
7.03116e-05
2.15593e-05
2.15627e-05
7.33621e-05
7.05526e-05
6.08554e-05
4.71384e-05
7.03153e-05
4.71245e-05
7.34848e-05
7.33152e-05
7.05572e-05
6.08617e-05
4.71446e-05
4.71402e-05
7.03074e-05
7.34487e-05
7.30378e-05
4.71103e-05
6.96806e-05
6.06835e-05
6.99107e-05
7.29185e-05
4.71246e-05
7.30074e-05
4.71269e-05
6.96705e-05
6.06877e-05
7.28717e-05
4.71316e-05
6.99133e-05
7.04927e-05
2.1556e-05
2.15593e-05
2.15559e-05
2.15593e-05
7.06242e-05
2.36327e-05
2.36357e-05
3.61894e-05
6.95003e-05
4.03194e-05
6.83309e-05
3.6186e-05
6.98774e-05
4.03316e-05
2.02206e-05
4.95422e-05
6.82901e-05
6.81406e-05
2.02211e-05
2.0224e-05
6.79543e-05
4.95455e-05
2.02235e-05
6.81109e-05
3.61896e-05
6.8517e-05
7.02974e-05
4.03383e-05
6.99323e-05
4.03267e-05
3.61929e-05
3.6191e-05
6.95118e-05
4.03286e-05
6.83323e-05
3.61882e-05
6.9878e-05
4.03261e-05
2.02215e-05
4.95431e-05
6.83068e-05
6.81579e-05
2.0222e-05
2.02249e-05
6.79706e-05
4.95463e-05
2.02244e-05
6.81283e-05
3.61916e-05
6.85229e-05
7.03037e-05
4.0332e-05
6.99445e-05
4.03336e-05
3.61945e-05
7.04454e-05
2.15627e-05
2.15598e-05
7.03113e-05
2.15627e-05
2.15598e-05
7.33142e-05
7.05299e-05
6.08619e-05
4.71482e-05
7.34519e-05
7.03182e-05
4.71343e-05
7.33412e-05
7.05381e-05
6.08627e-05
4.71398e-05
7.35059e-05
7.03263e-05
4.7126e-05
7.29962e-05
4.712e-05
6.96661e-05
6.06894e-05
7.28752e-05
6.98963e-05
4.71343e-05
7.30631e-05
4.71116e-05
6.96902e-05
6.06882e-05
7.28949e-05
6.99055e-05
4.71256e-05
7.04912e-05
2.15594e-05
2.15565e-05
7.06234e-05
2.15593e-05
2.15564e-05
2.36325e-05
2.36354e-05
2.36318e-05
2.36349e-05
2.36297e-05
2.36269e-05
2.36287e-05
2.36257e-05
7.08385e-05
2.15535e-05
2.15497e-05
2.15535e-05
2.15495e-05
7.09634e-05
7.3899e-05
7.09615e-05
4.71535e-05
6.11877e-05
7.37376e-05
4.71583e-05
7.11539e-05
7.39183e-05
7.09567e-05
4.71383e-05
6.1192e-05
7.38005e-05
4.71516e-05
7.11705e-05
7.07946e-05
2.15567e-05
2.15528e-05
7.06671e-05
2.15568e-05
2.15529e-05
7.41667e-05
4.71709e-05
6.13554e-05
7.17887e-05
4.71664e-05
7.43299e-05
7.15965e-05
7.42287e-05
4.71643e-05
6.13599e-05
7.18044e-05
4.71511e-05
7.43459e-05
7.16002e-05
2.36207e-05
2.36234e-05
2.36195e-05
2.36224e-05
7.11273e-05
2.15502e-05
2.15463e-05
7.10049e-05
2.15501e-05
2.15469e-05
7.49914e-05
7.3041e-05
6.18303e-05
4.71899e-05
4.71901e-05
7.28408e-05
7.51722e-05
7.50366e-05
7.30591e-05
6.18239e-05
4.71928e-05
4.71769e-05
7.28365e-05
7.51989e-05
7.47607e-05
4.71786e-05
7.22088e-05
6.16751e-05
7.45752e-05
4.71828e-05
7.24226e-05
7.47734e-05
4.71635e-05
7.22208e-05
6.16746e-05
7.4645e-05
4.71767e-05
7.24348e-05
7.1167e-05
2.15462e-05
2.15439e-05
2.15466e-05
2.15437e-05
7.12831e-05
3.6198e-05
6.96665e-05
4.03459e-05
7.11048e-05
4.03475e-05
7.07703e-05
3.62008e-05
2.02185e-05
6.8342e-05
4.9562e-05
2.0218e-05
6.84828e-05
3.61976e-05
6.94546e-05
4.03405e-05
7.03645e-05
4.03397e-05
3.61947e-05
7.07093e-05
2.02152e-05
6.86508e-05
4.95591e-05
6.85133e-05
2.02156e-05
3.62019e-05
4.03535e-05
7.11477e-05
7.05177e-05
3.61993e-05
4.03526e-05
7.14738e-05
2.02079e-05
4.95725e-05
6.89392e-05
6.88247e-05
2.02083e-05
2.02113e-05
6.86604e-05
4.95664e-05
2.02112e-05
6.8782e-05
3.62021e-05
7.07191e-05
4.03592e-05
7.18465e-05
4.03605e-05
7.15274e-05
3.62048e-05
3.6204e-05
4.03536e-05
7.11598e-05
7.05272e-05
3.62012e-05
4.03527e-05
7.14955e-05
2.02093e-05
4.95691e-05
6.89711e-05
6.88411e-05
2.02097e-05
2.02126e-05
6.86808e-05
4.95722e-05
2.02122e-05
6.88132e-05
3.62043e-05
7.07196e-05
4.03594e-05
7.18642e-05
4.03606e-05
7.15366e-05
3.62069e-05
7.08343e-05
2.15507e-05
2.1553e-05
2.15506e-05
2.15529e-05
7.09684e-05
7.39442e-05
7.09689e-05
4.71443e-05
6.12095e-05
4.71492e-05
7.37785e-05
7.11843e-05
7.38988e-05
7.09474e-05
4.71519e-05
6.12062e-05
7.11723e-05
7.37378e-05
4.7157e-05
7.08005e-05
2.15539e-05
2.15562e-05
2.15539e-05
7.06631e-05
2.15562e-05
7.42062e-05
4.71617e-05
6.13466e-05
7.18133e-05
4.71573e-05
7.15846e-05
7.43661e-05
7.41675e-05
4.71695e-05
6.134e-05
7.17999e-05
7.15797e-05
4.7165e-05
7.43267e-05
2.36302e-05
2.36273e-05
2.36206e-05
2.36236e-05
7.11321e-05
2.15473e-05
2.15496e-05
7.10014e-05
2.15474e-05
2.15497e-05
7.50605e-05
7.30612e-05
6.18178e-05
4.71857e-05
7.28284e-05
4.71823e-05
7.5173e-05
7.50033e-05
7.30487e-05
6.18091e-05
4.71935e-05
4.71898e-05
7.28227e-05
7.516e-05
7.47611e-05
4.71697e-05
7.22097e-05
6.16908e-05
7.24349e-05
7.4631e-05
4.71743e-05
7.4749e-05
4.71773e-05
7.22035e-05
6.16862e-05
7.45899e-05
4.71821e-05
7.243e-05
7.11636e-05
2.15442e-05
2.15465e-05
2.15441e-05
2.15464e-05
7.12909e-05
2.36211e-05
2.36239e-05
3.61953e-05
6.96562e-05
4.03451e-05
7.10818e-05
4.03466e-05
7.07649e-05
3.61981e-05
2.02171e-05
6.83146e-05
4.95544e-05
2.02166e-05
6.84545e-05
3.61948e-05
6.94677e-05
4.03396e-05
7.03597e-05
4.03388e-05
3.6192e-05
7.0688e-05
2.02137e-05
6.86228e-05
4.95508e-05
6.84846e-05
2.02142e-05
3.62037e-05
7.11549e-05
4.0353e-05
7.0541e-05
3.62009e-05
7.14905e-05
4.03522e-05
2.02096e-05
4.95653e-05
6.89698e-05
6.88391e-05
2.02101e-05
2.02129e-05
6.86767e-05
4.95684e-05
2.02125e-05
6.88119e-05
3.6204e-05
7.07107e-05
7.18626e-05
4.03589e-05
7.15348e-05
4.036e-05
3.62067e-05
3.62012e-05
4.03527e-05
7.11547e-05
7.05513e-05
3.61985e-05
4.0352e-05
7.14676e-05
2.02078e-05
4.95607e-05
6.8943e-05
6.88123e-05
2.02083e-05
2.02112e-05
6.86516e-05
4.95645e-05
2.02107e-05
6.87849e-05
3.62016e-05
7.07006e-05
4.03587e-05
7.18366e-05
4.03598e-05
7.15331e-05
3.62042e-05
3.61984e-05
6.96613e-05
7.11104e-05
4.03514e-05
7.07604e-05
4.03394e-05
3.62016e-05
2.02194e-05
6.83479e-05
4.95567e-05
6.84751e-05
2.0219e-05
3.61983e-05
6.9458e-05
7.03563e-05
4.03334e-05
7.07124e-05
3.6195e-05
4.03444e-05
2.02161e-05
6.8642e-05
4.95625e-05
6.85213e-05
2.02165e-05
3.61961e-05
6.96669e-05
4.03452e-05
7.10928e-05
4.03467e-05
7.07589e-05
3.61989e-05
2.02179e-05
6.83295e-05
4.95528e-05
2.02175e-05
6.84563e-05
3.61957e-05
6.94483e-05
4.03396e-05
7.03514e-05
3.61928e-05
4.03389e-05
7.07039e-05
2.02146e-05
6.86223e-05
4.95586e-05
6.85037e-05
2.0215e-05
3.62047e-05
7.11551e-05
4.0347e-05
7.054e-05
3.62016e-05
7.14845e-05
4.03583e-05
2.02103e-05
4.95733e-05
6.89626e-05
6.88504e-05
2.02106e-05
2.02136e-05
6.86878e-05
4.95675e-05
2.02132e-05
6.88062e-05
3.62048e-05
7.07091e-05
7.18561e-05
4.03651e-05
7.15408e-05
4.03535e-05
3.62077e-05
3.62021e-05
4.03527e-05
7.11543e-05
7.05193e-05
3.61994e-05
4.03521e-05
7.14753e-05
2.02088e-05
4.95694e-05
6.89428e-05
6.88322e-05
2.02091e-05
2.0212e-05
6.86696e-05
4.95635e-05
2.02117e-05
6.87866e-05
3.62024e-05
7.07212e-05
4.03588e-05
7.18457e-05
4.03599e-05
7.15347e-05
3.62051e-05
7.08399e-05
2.15494e-05
2.15527e-05
2.15493e-05
2.15527e-05
7.09652e-05
7.39143e-05
7.09487e-05
4.71381e-05
6.11862e-05
4.71513e-05
7.38007e-05
7.11655e-05
7.38757e-05
7.09459e-05
4.71531e-05
6.11912e-05
7.11611e-05
7.37578e-05
4.71575e-05
7.07955e-05
2.15526e-05
2.15559e-05
2.15527e-05
7.06695e-05
2.1556e-05
7.42309e-05
4.71641e-05
6.13539e-05
7.18046e-05
4.71509e-05
7.15919e-05
7.43473e-05
7.41895e-05
4.71698e-05
6.13578e-05
7.17938e-05
7.15958e-05
4.71662e-05
7.43078e-05
2.36292e-05
2.36262e-05
2.36183e-05
2.36212e-05
7.11281e-05
2.1546e-05
2.15494e-05
7.10068e-05
2.15462e-05
2.15495e-05
7.50646e-05
7.30428e-05
6.18236e-05
4.7188e-05
7.28428e-05
4.71749e-05
7.51761e-05
7.50261e-05
7.30246e-05
6.18303e-05
4.71939e-05
4.71908e-05
7.2855e-05
7.51356e-05
7.47646e-05
4.71633e-05
7.22131e-05
6.16694e-05
7.24226e-05
7.46494e-05
4.71759e-05
7.47251e-05
4.71779e-05
7.22186e-05
6.16732e-05
7.46098e-05
4.71827e-05
7.24121e-05
7.11699e-05
2.15429e-05
2.15462e-05
2.15428e-05
2.15462e-05
7.12878e-05
2.362e-05
2.36228e-05
3.61963e-05
6.96398e-05
7.11036e-05
4.03514e-05
7.07543e-05
4.03393e-05
3.61995e-05
2.02182e-05
6.8319e-05
4.95569e-05
6.84628e-05
2.02177e-05
3.61962e-05
6.94881e-05
7.03492e-05
4.03334e-05
7.07091e-05
3.6193e-05
4.03443e-05
2.02148e-05
6.86305e-05
4.95537e-05
6.84922e-05
2.02152e-05
3.61984e-05
6.9654e-05
7.1109e-05
4.03454e-05
7.07681e-05
4.0347e-05
3.62012e-05
2.02191e-05
6.83362e-05
4.95575e-05
2.02187e-05
6.848e-05
3.61979e-05
6.9478e-05
7.03602e-05
4.03399e-05
3.6195e-05
7.07117e-05
4.03392e-05
2.02158e-05
6.86483e-05
4.95545e-05
6.85091e-05
2.02162e-05
3.62026e-05
7.1148e-05
4.03468e-05
7.05454e-05
3.61995e-05
7.14797e-05
4.03582e-05
2.02089e-05
4.95636e-05
6.89499e-05
6.88198e-05
2.02094e-05
2.02123e-05
6.86588e-05
4.95669e-05
2.02119e-05
6.87923e-05
3.62026e-05
7.07065e-05
7.18495e-05
4.0365e-05
7.1534e-05
4.03534e-05
3.62055e-05
3.62043e-05
7.11571e-05
4.0353e-05
7.05486e-05
3.62016e-05
7.14962e-05
4.03523e-05
2.02099e-05
4.95644e-05
6.89686e-05
6.88374e-05
2.02104e-05
2.02133e-05
6.86759e-05
4.95678e-05
2.02128e-05
6.88104e-05
3.62046e-05
7.07086e-05
7.18648e-05
4.03589e-05
7.1536e-05
4.03601e-05
3.62073e-05
2.36288e-05
2.3626e-05
2.36283e-05
2.36254e-05
7.11318e-05
2.15495e-05
2.15466e-05
7.10012e-05
2.15496e-05
2.15467e-05
7.5015e-05
7.30277e-05
6.18315e-05
4.71977e-05
7.28473e-05
4.71846e-05
7.51439e-05
7.50407e-05
7.30667e-05
6.18308e-05
4.71894e-05
7.28354e-05
4.71763e-05
7.52063e-05
7.47319e-05
4.71731e-05
7.22173e-05
6.16722e-05
7.4602e-05
7.24093e-05
4.71855e-05
7.47923e-05
4.71646e-05
7.22212e-05
6.16741e-05
7.46297e-05
7.24314e-05
4.71772e-05
7.11644e-05
2.15464e-05
2.15435e-05
2.15463e-05
2.15434e-05
7.12909e-05
2.36198e-05
2.36225e-05
2.36192e-05
2.36221e-05
0.000173137
0.00017315
0.000149017
0.000172282
0.000172291
0.000191517
0.00019222
7.40941e-05
7.26465e-05
7.26398e-05
8.25078e-05
7.39174e-05
7.27966e-05
7.27968e-05
7.32764e-05
8.2561e-05
7.23802e-05
7.24406e-05
7.23035e-05
7.22814e-05
7.34311e-05
7.32513e-05
8.27079e-05
7.23138e-05
7.24119e-05
7.2349e-05
7.22742e-05
7.34288e-05
7.32505e-05
8.26122e-05
7.24236e-05
7.23412e-05
7.22689e-05
7.23663e-05
7.34277e-05
7.32472e-05
8.255e-05
7.24067e-05
7.24323e-05
7.34421e-05
7.22512e-05
7.22526e-05
7.40759e-05
7.26933e-05
7.2666e-05
8.2467e-05
7.39316e-05
7.28016e-05
7.28217e-05
7.58988e-05
8.19232e-05
7.414e-05
7.41843e-05
7.39691e-05
7.39415e-05
7.60484e-05
7.41224e-05
7.27131e-05
7.26673e-05
8.23644e-05
7.28158e-05
7.39221e-05
7.27303e-05
7.58837e-05
8.21389e-05
7.40319e-05
7.41533e-05
7.40418e-05
7.3942e-05
7.60506e-05
7.41002e-05
7.26604e-05
7.27355e-05
8.24579e-05
7.27461e-05
7.39376e-05
7.28108e-05
7.58899e-05
8.19897e-05
7.4133e-05
7.40572e-05
7.39578e-05
7.40566e-05
7.60599e-05
7.5873e-05
8.18709e-05
7.41465e-05
7.41314e-05
7.39529e-05
7.39525e-05
7.60718e-05
0.000152109
0.000173994
0.000174004
0.000174853
0.000174865
0.000193624
0.000192922
0.000152114
0.000173994
0.000174007
0.000174853
0.000174867
0.000193625
0.000192923
0.000152105
0.000173989
0.000174
0.00017485
0.000174861
0.00019362
0.000192918
0.00015211
0.000173992
0.000174003
0.000174851
0.000174863
0.000193621
0.000192919
0.000173138
0.000173151
0.00014902
0.000172282
0.000172294
0.000191518
0.00019222
0.000173133
0.000173145
0.000149008
0.000172277
0.000172287
0.000191512
0.000192215
0.000173136
0.000173148
0.000149013
0.000172279
0.000172291
0.000191513
0.000192216
0.000147996
0.000170574
0.000170584
0.000171427
0.00017144
0.000190813
0.000190109
0.000148001
0.000170574
0.000170587
0.000171427
0.000171441
0.000190814
0.00019011
0.00014799
0.000170569
0.000170579
0.000171423
0.000171435
0.000190808
0.000190105
0.000147996
0.000170571
0.000170583
0.000171425
0.000171438
0.000190809
0.000190106
7.25629e-05
6.66947e-05
6.87167e-05
7.52095e-05
6.84169e-05
7.49275e-05
7.27196e-05
6.87336e-05
6.84265e-05
6.79802e-05
6.58944e-05
6.85602e-05
6.86123e-05
6.81615e-05
7.26459e-05
6.62704e-05
6.77219e-05
7.50505e-05
7.24905e-05
6.79946e-05
7.52905e-05
6.89014e-05
6.88177e-05
6.61835e-05
6.91443e-05
6.89767e-05
6.85886e-05
6.90764e-05
7.26206e-05
6.66971e-05
7.50875e-05
6.86698e-05
7.50686e-05
6.84518e-05
7.26777e-05
6.87151e-05
6.83641e-05
6.79859e-05
6.58796e-05
6.85921e-05
6.86932e-05
6.81354e-05
7.25998e-05
6.62903e-05
7.51719e-05
6.77474e-05
7.25564e-05
7.51595e-05
6.79756e-05
6.89502e-05
6.87436e-05
6.62069e-05
6.92072e-05
6.8949e-05
6.8617e-05
6.91097e-05
7.45688e-05
8.22289e-05
7.32442e-05
7.32535e-05
7.30709e-05
7.30688e-05
7.47546e-05
7.27405e-05
8.29129e-05
7.19618e-05
7.19152e-05
7.26183e-05
7.19882e-05
7.20424e-05
7.24459e-05
6.63839e-05
7.54354e-05
6.48522e-05
7.26705e-05
6.65432e-05
7.55116e-05
6.83627e-05
6.80482e-05
6.52402e-05
6.75824e-05
6.79352e-05
6.73122e-05
6.82957e-05
6.79302e-05
6.66924e-05
6.73853e-05
6.48821e-05
6.75306e-05
6.80718e-05
6.69599e-05
7.27158e-05
6.53186e-05
6.72423e-05
7.53663e-05
6.70661e-05
7.52733e-05
7.24995e-05
7.2642e-05
6.63173e-05
7.55708e-05
6.48619e-05
7.24802e-05
6.66185e-05
7.53646e-05
6.82822e-05