/*--------------------------------*- C++ -*----------------------------------*\
| =========                 |                                                 |
| \\      /  F ield         | OpenFOAM: The Open Source CFD Toolbox           |
|  \\    /   O peration     | Version:  v1906                                 |
|   \\  /    A nd           | Web:      www.OpenFOAM.com                      |
|    \\/     M anipulation  |                                                 |
\*---------------------------------------------------------------------------*/
FoamFile
{
    version     2.0;
    format      ascii;
    class       surfaceScalarField;
    location    "550";
    object      phi;
}
// * * * * * * * * * * * * * * * * * * * * * * * * * * * * * * * * * * * * * //

dimensions      [0 3 -1 0 0 0 0];
oriented        oriented;


internalField   nonuniform List<scalar> 
124860
(
-1.25626e-06
-1.24618e-06
-0.000269536
2.65029e-07
1.99903e-07
1.80055e-07
8.4658e-08
-1.29977e-06
2.4935e-07
-2.95116e-07
-9.37022e-07
2.05057e-07
-2.93513e-07
8.77837e-07
-0.00113979
1.26968e-06
2.19253e-07
-0.00114024
7.81611e-08
-1.29996e-06
2.65833e-07
-2.89894e-07
-9.34698e-07
2.3539e-07
-2.82971e-07
8.85933e-07
-1.23004e-06
-0.000269556
2.31206e-07
2.36149e-07
2.29896e-07
1.1065e-07
-1.24963e-06
2.76991e-07
-2.76003e-07
-9.23953e-07
2.65584e-07
-2.66768e-07
8.88578e-07
-0.00114087
1.2642e-06
2.24843e-07
7.2839e-08
-1.29454e-06
2.65853e-07
-2.89905e-07
-9.31917e-07
2.35351e-07
-2.82865e-07
8.83096e-07
-0.00113989
2.19156e-07
-0.00114063
7.77178e-08
-1.26016e-06
2.57662e-07
-2.81442e-07
-9.29186e-07
2.32666e-07
-2.80107e-07
8.80537e-07
1.25875e-06
2.24487e-07
-0.00113968
7.81246e-08
-1.28895e-06
2.60241e-07
-2.84224e-07
-9.31739e-07
2.32667e-07
-2.82768e-07
8.83139e-07
-1.22451e-06
-0.000269514
2.311e-07
2.36136e-07
2.19239e-07
8.8776e-08
-1.25472e-06
2.57638e-07
-2.81481e-07
-9.28888e-07
2.35451e-07
-2.82799e-07
8.80341e-07
-0.00114027
1.22197e-06
2.19086e-07
-0.0011408
8.31211e-08
-1.25743e-06
2.57783e-07
-2.84293e-07
-9.29168e-07
2.355e-07
-2.82823e-07
8.80583e-07
-0.000269531
2.3103e-07
2.3633e-07
1.88861e-07
2.18664e-07
-0.00119084
-0.00119086
1.88844e-07
1.89238e-07
1.82932e-07
2.12777e-07
-0.00119045
-0.00119066
1.8867e-07
2.00663e-07
-2.15136e-08
-5.80395e-09
-9.70801e-05
-2.38045e-08
-5.84443e-09
-9.7082e-05
-1.76709e-08
-9.38675e-09
-0.000276411
8.26625e-09
-2.20897e-08
-7.1778e-08
-0.00027639
1.12772e-08
1.01303e-10
6.17665e-08
-2.59881e-08
3.68519e-10
0.000228352
-0.000228388
-3.51295e-08
-0.000192042
3.88285e-09
-1.65916e-10
-5.43078e-08
-0.00022834
2.82572e-08
2.55878e-09
6.17985e-08
-2.59982e-08
4.29544e-10
0.000228389
-0.000228425
-3.52468e-08
5.68706e-09
-0.000192082
1.67694e-09
4.14582e-08
-7.94056e-09
-6.29748e-09
0.000192081
-0.000192108
-5.43157e-08
-0.000228377
2.82622e-08
2.4975e-09
1.50699e-09
-1.71336e-09
2.00282e-07
0.000250187
-0.000250325
-7.46299e-08
-0.000244406
-1.13985e-08
-0.00116202
-3.1565e-09
3.30042e-07
-1.0401e-06
7.83622e-07
-8.64528e-07
9.62176e-07
4.14866e-09
3.428e-07
9.61195e-07
-8.63826e-07
-1.03934e-06
7.82595e-07
-0.00116213
-8.15531e-08
-1.41196e-09
-0.00025016
1.73654e-09
-1.59527e-07
-1.99029e-09
2.00327e-07
0.000250219
-0.000250354
8.10161e-08
-1.3014e-06
2.25286e-07
8.85322e-07
-2.84446e-07
-9.36349e-07
2.34596e-07
1.2693e-06
-2.91037e-07
2.6537e-07
-0.00114038
1.97326e-08
-8.6899e-08
-0.000244423
-1.36754e-08
-0.00116218
3.3596e-07
-1.03766e-06
7.83678e-07
-8.61937e-07
9.64998e-07
-2.22483e-08
1.28633e-08
1.08238e-07
0.000244435
-0.000244492
3.42868e-07
9.64039e-07
-8.63949e-07
-1.03958e-06
7.82679e-07
-0.00116228
-0.000250191
2.41873e-09
-1.62138e-07
-2.1607e-08
-9.7085e-05
1.63354e-08
9.70819e-05
-9.71061e-05
1.26159e-06
0.000269594
-2.43621e-07
-2.4865e-07
-0.000271664
-4.16531e-08
-0.000276367
1.08676e-08
2.37515e-08
-1.74023e-08
-4.14662e-08
-0.000276471
1.10677e-08
-1.52455e-08
4.20137e-08
0.00027637
-0.000276403
-1.86179e-08
1.97042e-08
-1.51458e-08
4.18844e-08
0.000276475
-0.000276503
-5.78752e-09
-9.70873e-05
7.88715e-09
9.70842e-05
-9.71107e-05
-3.74296e-08
-0.000192069
1.68232e-09
-5.43408e-08
-2.0333e-10
-0.000228367
2.48819e-09
2.61871e-08
-9.67725e-08
-0.000244432
-1.61278e-08
6.75361e-10
3.35504e-07
-1.03211e-06
7.80828e-07
-8.56407e-07
9.62067e-07
-0.00116191
-1.72274e-09
-0.000250173
1.93704e-09
-1.64697e-07
-3.73667e-08
5.78851e-09
-0.000192015
1.64465e-09
-5.43382e-08
-0.00022833
2.61743e-08
2.40193e-09
3.41619e-07
-1.03478e-06
7.80897e-07
-8.56404e-07
9.6214e-07
-0.00116188
1.97855e-08
-8.20132e-08
-0.000244359
-1.60899e-08
-0.000250149
-1.62115e-07
2.14025e-09
-6.18502e-08
1.5662e-09
-1.40583e-09
1.97764e-07
0.000250214
-0.00025035
8.04977e-08
2.30901e-07
1.22966e-06
-2.82591e-07
2.57175e-07
8.79859e-07
-2.8158e-07
-9.30818e-07
2.31906e-07
-0.00114078
3.73696e-08
-8.68353e-08
-0.000244465
-1.37334e-08
-0.00116195
-3.89595e-09
3.35681e-07
-1.03484e-06
7.80786e-07
-8.59179e-07
9.62105e-07
-4.35428e-08
1.2778e-08
1.08051e-07
0.000244477
-0.000244535
3.55985e-09
3.48447e-07
9.61067e-07
-8.61187e-07
-1.03671e-06
7.79791e-07
-0.00116207
5.4258e-08
-1.67353e-09
-0.000250187
1.41663e-09
-1.62041e-07
1.03507e-10
5.4135e-10
-2.60269e-08
0.000228386
-0.000228422
-0.000192078
1.65618e-09
-6.4015e-09
0.000192077
-0.000192106
-1.81109e-10
-0.000228373
2.29338e-09
2.82284e-08
-6.18277e-08
1.95157e-07
-2.27053e-09
0.00025019
-0.00025032
8.09804e-08
-1.29038e-06
2.30551e-07
8.82466e-07
-2.84262e-07
-9.33431e-07
2.34581e-07
1.25841e-06
-2.85376e-07
2.5979e-07
-0.00113984
-0.00116188
3.35541e-07
-1.03469e-06
7.8084e-07
-8.59203e-07
9.62108e-07
3.52192e-08
1.98121e-08
-8.44925e-08
-0.000244403
-1.37496e-08
3.4835e-07
9.61139e-07
-8.61202e-07
-1.03665e-06
7.79843e-07
-0.00116199
-4.1353e-08
-2.22644e-08
1.29383e-08
1.05693e-07
0.000244415
-0.00024447
5.42248e-08
-0.000250162
-1.59457e-07
2.13197e-09
-2.59994e-08
1.66389e-10
0.00022835
-0.000228386
5.71442e-09
-0.000192028
1.65719e-09
-7.94289e-09
-6.25587e-09
0.000192027
-0.000192054
-0.000228338
2.82131e-08
2.49852e-09
-2.37702e-08
-9.70665e-05
-4.15028e-08
-0.000276334
8.03587e-09
2.15435e-08
-1.98582e-08
-4.39062e-08
-0.000276429
1.04742e-08
-5.73751e-09
-9.70761e-05
1.21976e-09
-6.4365e-08
2.00346e-07
-1.76318e-09
0.000250175
-0.000250311
-0.00116161
-9.51574e-09
3.35368e-07
-1.03181e-06
7.7518e-07
-8.56322e-07
9.56329e-07
3.52532e-08
-8.69518e-08
-0.000244408
-1.37546e-08
-1.10112e-08
3.42304e-07
9.58113e-07
-8.55605e-07
-1.03105e-06
7.7691e-07
-0.0011617
-9.15892e-08
-1.41365e-09
5.67165e-08
-0.000250148
-1.6457e-07
1.96627e-09
-6.43632e-08
2.00387e-07
-2.91972e-09
0.000250208
-0.000250339
8.03333e-08
-1.25617e-06
2.25127e-07
8.7989e-07
-2.84308e-07
-9.30778e-07
2.34728e-07
1.22434e-06
-2.82687e-07
2.57295e-07
-0.00114095
-0.00116177
3.35305e-07
-1.0292e-06
7.75279e-07
-8.53756e-07
9.56566e-07
3.52387e-08
1.98972e-08
-8.69419e-08
-0.000244417
-1.38005e-08
3.42196e-07
9.55555e-07
-8.5573e-07
-1.03117e-06
7.74293e-07
-0.00116189
-4.13824e-08
-2.23182e-08
1.29414e-08
1.08124e-07
0.000244429
-0.000244486
5.66929e-08
-0.00025018
-1.64583e-07
2.59508e-09
1.65719e-10
2.09271e-10
-2.39983e-08
0.000228339
-0.00022838
-0.00019203
1.66601e-09
-2.24787e-10
-0.000228327
2.54617e-09
2.61797e-08
3.39456e-10
-2.4001e-08
0.000228376
-0.000228416
5.79827e-09
-0.000192068
1.54827e-09
-8.01552e-09
-6.14961e-09
0.000192067
-0.000192094
-0.000228363
2.3471e-09
2.61645e-08
0.000269571
-2.43354e-07
-2.48744e-07
-0.000271625
2.15664e-08
-4.38903e-08
-0.000276425
7.87773e-09
2.14851e-08
-4.16119e-08
-0.000276372
8.48104e-09
-1.62915e-08
-1.21468e-08
4.41965e-08
0.000276428
-0.000276466
-1.62492e-08
-1.26912e-08
4.19113e-08
0.000276375
-0.00027641
-9.70761e-05
9.70729e-05
-9.70972e-05
-9.70802e-05
9.7077e-05
-9.71013e-05
1.84659e-08
7.94789e-09
-9.71065e-05
1.61168e-08
7.98094e-09
-9.71061e-05
-3.01603e-08
4.78235e-08
0.000220929
-3.06874e-08
6.19694e-08
-0.000220977
-0.000250161
-1.8126e-08
4.16382e-08
-2.48573e-08
-1.68001e-08
4.84072e-08
2.42846e-08
-0.000276448
-0.000181687
-1.06026e-08
9.38076e-09
-1.48127e-08
-0.000181719
1.21177e-07
6.1434e-08
-0.000250248
-3.64348e-08
-9.68121e-09
-2.11657e-08
2.10144e-08
0.000220896
-1.43853e-08
3.86649e-08
-0.00022092
-0.000250108
7.13969e-08
-2.23454e-07
-4.7653e-08
-1.08472e-08
3.22126e-08
1.97764e-08
-0.000276415
-0.000181656
-4.90124e-08
1.73738e-08
-1.30992e-08
-0.000181675
6.33529e-08
4.85226e-08
-0.000250167
8.14304e-08
-1.04331e-07
-1.07897e-08
-1.06933e-08
0.000212361
-0.000212384
-7.9891e-05
-1.41412e-08
-7.98812e-05
-1.09079e-08
-7.99166e-05
-7.9905e-05
-0.00014209
-8.84587e-10
-2.66958e-08
0.000142115
2.21522e-09
1.48769e-09
0.000169659
-7.18574e-11
-0.000169687
-2.69139e-08
0.000222143
6.16245e-08
-0.000222177
-2.96999e-10
2.81236e-08
2.56613e-09
0.000228375
1.47918e-11
-5.39178e-08
-0.000142114
-9.8308e-10
0.000169687
-6.03616e-11
0.000222168
-5.38384e-08
4.64326e-09
2.60397e-08
7.84787e-05
9.90206e-10
-7.85057e-05
-6.19977e-09
4.31258e-08
-0.000192071
-0.000261305
2.69928e-08
-4.66054e-09
-5.3111e-08
3.47376e-10
5.41892e-08
-0.00026134
-2.18433e-09
-1.47079e-09
2.66453e-08
0.000142091
-2.5706e-08
1.1129e-10
-4.34066e-11
6.1104e-08
-0.00016966
8.57899e-10
-6.09476e-11
-0.000222132
2.68146e-08
-5.66202e-08
-7.64348e-11
6.33908e-08
-0.00014216
-7.77714e-10
-2.47581e-08
1.93104e-09
0.000142184
1.3254e-09
0.000169694
-0.000169721
-2.48882e-08
0.000222228
-4.67991e-10
6.41754e-08
-0.000222267
2.81453e-08
2.51214e-09
0.000228412
-5.3955e-08
-8.69002e-10
-0.000142183
0.000169721
4.53623e-09
0.000222258
-5.63915e-08
2.38497e-08
7.85236e-05
-7.85483e-05
8.89257e-10
-6.15734e-09
-0.000192109
-7.96835e-09
4.10299e-08
-0.000261418
2.49825e-08
-4.51413e-09
-5.31486e-08
-0.000261455
4.8486e-10
5.43064e-08
-1.89677e-09
-7.85215e-05
-2.49179e-08
-2.40356e-08
0.000261421
5.47852e-08
-0.000261459
1.56544e-09
5.74943e-09
-3.50228e-08
-7.85464e-05
-5.29253e-08
-1.30364e-09
2.4639e-08
0.000142161
-2.57184e-08
1.77702e-10
6.11341e-08
-0.000169694
7.39958e-10
-0.00022222
2.48787e-08
-5.6752e-08
6.35381e-08
-9.71091e-05
1.61327e-08
-2.15216e-08
-0.00021237
1.25531e-08
1.24397e-08
-2.33955e-08
-2.13977e-08
0.00021239
1.08094e-08
7.98812e-05
1.32224e-08
-7.99052e-05
1.08954e-08
7.98947e-05
1.31326e-08
-7.99187e-05
2.29075e-08
2.06814e-08
-0.000212392
-1.24542e-08
7.99062e-05
-1.25649e-08
7.99197e-05
3.56691e-08
-2.55339e-08
0.000220882
-0.000220921
-2.26312e-08
5.1574e-08
-0.000250078
2.78785e-08
-9.10933e-08
-3.74359e-08
4.14923e-08
-1.52422e-08
-0.000276399
2.21101e-08
-0.00018165
-2.9719e-08
1.24317e-08
-0.000250153
9.59339e-08
5.63477e-08
-0.000181678
-1.3164e-08
2.3541e-08
-5.68959e-08
-2.5554e-08
3.55095e-08
0.000220953
-0.000220997
-2.04009e-08
5.3771e-08
-0.000250231
2.801e-08
-9.09614e-08
-3.24922e-08
-1.51294e-08
4.13618e-08
-0.000276499
-1.84178e-08
1.95592e-08
-0.000181702
-2.96216e-08
1.25319e-08
-0.00018173
-1.30753e-08
-0.000250301
9.58938e-08
5.11039e-08
2.15521e-08
-5.89081e-08
-2.76122e-08
-0.00022089
2.95431e-08
-5.66275e-08
2.58905e-08
0.00018165
-0.000181678
0.000250094
-3.6042e-08
5.68166e-08
9.67891e-08
-0.00025017
-4.13647e-08
1.09241e-08
-1.97158e-08
-3.70824e-08
-9.06435e-08
5.22077e-08
-0.000220929
-0.000220961
2.94674e-08
-2.77371e-08
-5.86532e-08
2.59086e-08
0.000181702
-0.00018173
-3.58944e-08
0.000250247
9.67405e-08
5.15805e-08
-0.000250318
1.1122e-08
-4.11888e-08
2.36662e-08
-1.73856e-08
5.4391e-08
-0.000221005
-9.05077e-08
-3.21405e-08
-1.06991e-08
-1.0785e-08
0.000212368
-7.98823e-05
-1.26e-08
-7.98958e-05
-1.24906e-08
-9.71137e-05
7.90306e-09
-5.83318e-09
2.3784e-08
7.85245e-05
9.12692e-10
-7.85491e-05
-6.14129e-09
4.09606e-08
-0.000192096
-0.000261423
2.49534e-08
-4.46997e-09
-5.07816e-08
4.23947e-10
5.19247e-08
-0.000261457
-1.90384e-09
2.46773e-08
-1.33617e-09
0.00014216
-0.000142182
2.32514e-10
-2.36912e-08
9.37618e-11
6.12328e-08
-0.000228405
-0.000222219
2.48563e-08
-5.43109e-08
-0.000169692
7.71664e-10
-3.52535e-11
6.1189e-08
-0.000222255
5.59964e-11
-0.000169717
2.60492e-08
7.84769e-05
1.00405e-09
-7.8504e-05
-6.22653e-09
-7.95269e-09
4.31379e-08
-0.000192044
-0.000261301
2.71249e-08
-4.44942e-09
-5.0632e-08
2.45646e-10
5.18945e-08
-0.000261333
-2.06577e-09
-1.47397e-09
2.66873e-08
0.000142086
-0.000142111
-2.36649e-08
4.31214e-10
6.11992e-08
-0.000228367
-0.000169657
7.14214e-10
-0.000222125
2.68288e-08
-5.4204e-08
-0.000169682
6.10624e-08
-0.000222159
-0.00014216
-2.47522e-08
-8.03509e-10
1.94665e-09
0.000142184
-2.49461e-08
0.000222232
-3.67516e-10
6.42478e-08
-0.00022227
1.42138e-09
0.00016969
-3.98344e-11
-0.000169717
2.53483e-09
2.80984e-08
0.000228409
-3.56609e-11
-5.3878e-08
-8.28708e-10
-0.000142183
4.54565e-09
0.000222262
-5.63839e-08
0.000169717
-4.64112e-12
2.38962e-08
7.85261e-05
-7.85508e-05
8.46085e-10
-6.27994e-09
-0.000192107
4.31124e-08
-0.000261433
2.49697e-08
-4.52973e-09
-5.31681e-08
-0.000261471
3.74901e-10
5.43423e-08
-1.91386e-09
-7.8524e-05
-2.49099e-08
-2.4075e-08
0.000261436
5.48246e-08
-0.000261474
1.56238e-09
-3.71429e-08
-7.85489e-05
-5.29157e-08
2.46953e-08
-1.4017e-09
0.000142161
2.99305e-10
-2.57451e-08
-4.40996e-11
6.11808e-08
-0.000222223
2.48746e-08
-5.67601e-08
-0.00016969
7.75581e-10
-1.3527e-11
6.36208e-08
-4.5926e-11
-0.00014209
-7.96839e-10
-2.47249e-08
1.94049e-09
0.000142114
1.33375e-09
0.000169656
-0.000169684
-2.48706e-08
0.000222141
-4.93708e-10
6.41189e-08
-0.000222179
2.80884e-08
2.73109e-09
0.000228373
-5.38512e-08
-8.71633e-10
-0.000142113
0.000169683
4.5333e-09
0.00022217
-5.63231e-08
2.38008e-08
7.84828e-05
-7.85075e-05
8.93946e-10
-6.11197e-09
-0.000192055
-7.95069e-09
4.09036e-08
-0.000261312
2.49394e-08
-4.5035e-09
-5.31124e-08
-0.000261349
5.051e-10
5.42235e-08
-1.90534e-09
-7.84807e-05
-2.48714e-08
-2.39914e-08
0.000261315
5.47181e-08
-0.000261352
1.541e-09
5.75879e-09
-3.49756e-08
-7.85055e-05
-5.2872e-08
-1.31451e-09
2.46212e-08
0.000142091
-2.57175e-08
-7.61466e-11
6.11598e-08
-0.000169656
7.6455e-10
-0.000222132
2.48517e-08
-5.66764e-08
6.34766e-08
1.84021e-08
-9.70928e-05
3.32036e-08
-2.7251e-08
0.000220864
-2.05621e-08
5.36985e-08
-0.000220903
-0.000250042
2.54978e-08
-9.10025e-08
-3.74645e-08
4.13955e-08
-1.22173e-08
2.20361e-08
-0.000276367
-0.00018164
-3.13662e-08
1.25804e-08
9.59071e-08
5.63019e-08
-0.00025012
-1.32019e-08
-0.000181666
2.15435e-08
-5.89431e-08
-2.75452e-08
3.5501e-08
0.00022094
-2.24566e-08
4.92854e-08
-0.000220975
-0.000250192
2.79306e-08
-8.84952e-08
-3.50297e-08
-1.4581e-08
4.37789e-08
-1.61591e-08
2.20102e-08
-0.000276464
-0.000181698
-3.16379e-08
1.24628e-08
-1.30527e-08
-0.000181728
9.34645e-08
5.36753e-08
-0.00025026
2.35018e-08
-5.44175e-08
-1.06893e-08
-1.07817e-08
0.000212354
-0.000212376
-7.98763e-05
-1.2482e-08
-7.98942e-05
-1.25474e-08
-7.99002e-05
-7.99181e-05
7.91609e-09
-9.71002e-05
-0.000142089
-2.47405e-08
-8.35605e-10
1.96804e-09
0.000142113
-2.494e-08
0.000222134
6.41999e-08
-0.000222173
-4.09259e-10
1.36773e-09
0.000169656
3.44668e-11
-0.000169682
2.76675e-09
2.60501e-08
0.000228367
-6.49595e-11
-5.63354e-08
-0.000142112
-8.80811e-10
4.56021e-09
0.000222167
-5.87584e-08
0.000169682
-7.24549e-11
2.3791e-08
7.84825e-05
-7.85072e-05
9.01575e-10
-6.1793e-09
4.09535e-08
-0.000192057
-0.000261309
2.49105e-08
-4.49781e-09
-5.07628e-08
-0.000261346
4.6035e-10
5.42874e-08
-1.93397e-09
-2.48486e-08
-7.84804e-05
-5.29007e-08
-0.000261312
-1.55159e-09
2.46869e-08
-1.34768e-09
0.00014209
-3.47652e-11
-2.37195e-08
2.1168e-11
6.36989e-08
-0.000222126
2.48468e-08
-5.66701e-08
-0.000169656
8.1531e-10
-9.58886e-11
6.59746e-08
1.61285e-11
-0.000142158
-2.67619e-08
-6.74434e-10
2.06904e-09
0.000142183
-2.69944e-08
0.000222226
-4.11823e-10
6.4129e-08
-0.000222262
1.4403e-09
0.00016969
-0.000169716
2.38025e-09
2.6038e-08
0.000228404
-5.63251e-08
-1.06393e-09
-0.000142183
4.47001e-09
0.000222253
-5.62481e-08
0.000169715
2.6035e-08
7.85229e-05
-7.855e-05
1.08247e-09
-5.99366e-09
-0.000192095
-8.03996e-09
4.0943e-08
-0.000261421
2.71632e-08
-4.4451e-09
-5.06918e-08
-0.000261453
4.25661e-10
5.18431e-08
-2.03777e-09
-7.85208e-05
-2.71023e-08
-2.62135e-08
0.000261423
5.23031e-08
-0.000261456
1.43845e-09
5.86199e-09
-3.50169e-08
-7.85481e-05
-5.0449e-08
2.67162e-08
-1.39532e-09
0.000142159
3.27308e-10
-2.37317e-08
6.37085e-08
-0.000222217
2.69064e-08
-5.66322e-08
-0.00016969
6.29315e-10
6.34787e-08
-0.000212364
1.24867e-08
1.24547e-08
-2.12716e-08
-2.34538e-08
0.000212383
1.0817e-08
7.9892e-05
1.31816e-08
-7.9916e-05
1.08192e-08
7.98807e-05
1.32115e-08
-7.99048e-05
2.0689e-08
2.27987e-08
-0.000212385
-1.24961e-08
7.99169e-05
-1.25591e-08
7.99058e-05
3.31117e-08
-2.72177e-08
0.000220942
-0.000220979
-2.04106e-08
5.13147e-08
-0.000250184
2.54197e-08
-8.60899e-08
-3.49053e-08
4.36716e-08
-1.21318e-08
-0.000276462
-1.60924e-08
2.21168e-08
-0.000181697
-3.14007e-08
1.24855e-08
-0.000250254
9.33506e-08
5.37281e-08
-0.000181723
-1.31331e-08
2.14221e-08
-5.66455e-08
3.31294e-08
-2.52922e-08
0.000220881
-0.000220918
-2.2513e-08
5.15641e-08
-0.000250088
2.55555e-08
-9.09879e-08
-3.5084e-08
4.13814e-08
-1.26729e-08
-0.000276406
-1.60505e-08
2.21659e-08
-0.000181652
-2.9449e-08
1.25397e-08
-0.000250163
9.57804e-08
5.37393e-08
-0.000181677
-1.31503e-08
2.35983e-08
-5.68356e-08
-0.00022095
-2.51536e-08
3.12302e-08
-5.63823e-08
2.75628e-08
0.000181696
-0.000181723
-3.34915e-08
0.0002502
5.41974e-08
9.41964e-08
-0.000250271
-4.36132e-08
7.90751e-09
2.1481e-08
-1.97697e-08
5.19425e-08
-0.000220987
-3.45668e-08
-8.81248e-08
-0.000220889
-2.52985e-08
2.92816e-08
-5.65717e-08
2.56426e-08
0.000181652
-0.000181677
-3.35052e-08
0.000250104
5.42122e-08
9.66171e-08
-0.000250179
-4.13193e-08
8.51798e-09
2.1411e-08
-1.98847e-08
5.22006e-08
-0.000220926
-3.47344e-08
-9.05384e-08
-1.07051e-08
-1.07139e-08
0.000212362
-7.98931e-05
-1.25244e-08
-7.98819e-05
-1.24979e-08
-9.71002e-05
-9.71043e-05
1.20121e-07
9.19639e-08
0.000242591
-0.000242703
-2.37264e-07
-2.47749e-07
-0.0002716
-0.000261325
2.60433e-08
-0.000261664
1.80694e-07
-0.000261616
-0.000262032
1.09948e-07
1.07159e-07
0.000242605
-0.000242717
-2.42535e-07
-2.47566e-07
-0.000271626
-0.000261694
1.0643e-07
-0.00026134
1.03892e-07
-0.000262021
-0.000261666
1.07479e-07
1.07063e-07
0.000242577
-0.000242689
-2.42514e-07
-2.47618e-07
-0.000271573
-0.000261657
1.03948e-07
-0.0002613
1.0371e-07
-0.000261986
-0.000261628
1.07084e-07
1.07266e-07
0.000242588
-0.000242699
-2.42279e-07
-2.47675e-07
-0.000271587
-0.00026128
1.03703e-07
-0.000261704
1.04e-07
-0.000261606
-0.000262033
-0.00121474
2.53213e-07
-1.90483e-09
2.5927e-07
4.48293e-09
-0.0012152
2.62044e-07
-1.53661e-09
-0.00121446
-1.98186e-07
0.00123679
-1.85808e-08
-1.31742e-09
-0.00123623
-2.74279e-07
-7.7143e-09
1.18841e-09
1.92191e-07
1.92608e-07
-0.00119079
-0.00121478
2.53261e-07
-0.0012153
2.59196e-07
-6.08861e-10
2.56186e-07
-0.0012145
2.62081e-07
6.65116e-10
-0.00121502
0.00123684
3.00102e-10
-0.00123634
2.45807e-10
2.76964e-07
-0.00121436
-0.00121479
2.52952e-07
-2.46987e-08
2.55783e-07
-1.21585e-07
-0.00121427
-3.04787e-07
0.00123611
-1.27527e-07
-0.00123536
-3.69918e-07
-2.57591e-08
1.92021e-07
2.09922e-07
-0.0011906
-0.00121444
2.64717e-07
-0.0012149
2.52941e-07
2.79572e-07
-0.00121418
2.55851e-07
-0.00121472
0.00123622
-0.00123582
-0.000266538
1.79467e-07
3.64434e-10
0.000267317
2.27491e-09
2.12437e-07
0.000249313
-0.000249459
-6.97932e-09
-5.30521e-09
0.000266981
4.9694e-09
-0.000267644
2.68473e-09
-1.61444e-07
0.000250292
1.72251e-11
-0.000267352
-1.85807e-08
0.000249435
6.31584e-09
0.000267604
-1.87035e-09
-3.06934e-08
-1.90749e-07
0.000264512
2.08378e-08
-0.000265248
-0.000260357
-1.08406e-08
1.12162e-07
1.50314e-08
-0.000244466
-0.000250098
-1.65114e-07
-6.38939e-09
-0.000260508
6.85513e-09
-0.000250226
-2.53169e-09
-2.13765e-07
8.47284e-09
0.000266503
-3.33397e-09
1.96372e-07
1.73061e-10
-0.000249289
-1.77574e-07
-0.000266942
-2.77889e-09
-4.77378e-09
2.24535e-09
-0.000266588
1.79532e-07
1.14965e-09
2.19952e-09
0.000267369
2.12506e-07
0.000249379
-7.03608e-09
-0.000249522
-6.05445e-09
0.000267009
-0.000267661
2.63744e-09
-1.61465e-07
0.000250323
-1.86156e-08
-0.000267403
6.19152e-09
0.000249499
0.000267629
-1.85825e-07
-2.83259e-08
0.000264559
-0.000265298
1.831e-08
-0.000260373
-1.29892e-08
1.27378e-08
1.07329e-07
-0.00024448
-0.000250159
-1.67756e-07
-6.28236e-09
-0.000250285
6.91339e-09
-0.00026052
-2.43529e-09
-0.00026459
1.67334e-07
1.27384e-08
1.86833e-07
0.000250178
-0.000250304
2.8694e-08
0.000260396
-0.000260544
-1.36622e-08
-8.6462e-08
-0.000265329
-2.11287e-07
6.6857e-09
0.000266555
-2.64733e-09
1.96419e-07
-0.000249355
-1.80198e-07
-0.000266973
-1.5446e-09
-1.06103e-07
-0.000242622
-1.03543e-07
2.30773e-07
2.35707e-07
0.000261721
-1.10813e-07
-0.000262048
-1.08034e-07
0.000261367
-0.000261693
-0.000242735
-2.85381e-08
-1.83241e-07
0.000264581
2.85466e-08
-0.000265321
-0.0002604
-1.79841e-08
9.98621e-08
1.27699e-08
-0.000244483
-0.000250167
-1.72804e-07
-6.29208e-09
-0.000260547
6.92278e-09
-0.000250292
-1.00564e-08
-2.11366e-07
9.98971e-09
0.000266548
-0.00026735
-3.11949e-09
1.99051e-07
4.04435e-10
-0.000250309
-0.000249348
-1.82766e-07
-0.000266955
-8.16639e-10
-6.84882e-09
-0.000249494
4.39857e-09
-0.000267606
-1.85724e-07
-3.08681e-08
0.000264491
1.5657e-08
-0.000265222
-0.000260309
-1.56376e-08
1.50926e-08
1.02369e-07
-0.000244411
-0.000250073
-1.67591e-07
-6.25139e-09
6.81671e-09
-0.000250199
-0.000260464
8.25147e-11
6.09701e-09
-2.11259e-07
0.000266485
-0.000267299
1.9644e-07
-2.28656e-09
-0.000250282
-0.000266939
-2.08947e-09
-0.000249266
-1.80097e-07
-0.000267589
-0.000249412
-0.000266591
1.82005e-07
-1.92795e-09
1.24756e-08
0.00026736
2.1509e-07
0.000249386
-9.33042e-09
-0.000249529
-6.45398e-09
0.000266995
6.39161e-09
-0.000267658
3.11559e-09
-1.61383e-07
0.000250319
-3.07879e-10
-2.87797e-08
-0.000267391
8.59838e-09
0.000249506
0.000267615
-3.68481e-09
-3.08423e-08
-1.88274e-07
0.000264593
-0.000265332
2.84906e-08
-0.000260434
-1.57589e-08
1.07147e-07
1.26521e-08
-0.000244523
-0.000250187
-1.70215e-07
-8.68831e-09
-0.000260587
-0.000250317
9.21572e-09
-1.27273e-08
-0.000264625
1.54921e-08
1.69753e-07
1.89259e-07
0.000250206
-0.000250337
3.12072e-08
0.000260458
-0.000260611
-8.64057e-08
-1.36852e-08
-0.000265364
-2.13889e-07
9.66001e-09
0.000266558
-3.01111e-09
1.96467e-07
2.02683e-10
-0.000249362
-1.82711e-07
-0.000266958
-1.30944e-09
-6.46484e-09
3.61048e-09
-0.000266529
1.68642e-09
1.79428e-07
-3.81823e-10
0.00026731
-5.83948e-09
0.00026698
-0.000267633
2.12429e-07
0.000249309
-7.06826e-09
-0.000249452
-1.58786e-07
2.59434e-09
0.000250292
-1.60308e-08
-0.000267343
0.000267599
6.18411e-09
0.000249428
-1.85686e-07
-2.83247e-08
0.000264507
-0.00026524
1.57243e-08
-0.000260353
-1.31017e-08
1.27874e-08
1.04761e-07
-0.000244458
-0.000250096
-1.67722e-07
-6.25268e-09
-0.000250222
6.94643e-09
-0.000260506
8.93106e-11
-0.000264538
1.6726e-07
1.28053e-08
1.86714e-07
0.000250115
-0.000250241
2.87164e-08
0.000260377
-0.00026053
-1.37142e-08
-8.40341e-08
-0.000265272
6.20066e-09
-2.11201e-07
0.000266496
1.9386e-07
-2.68794e-09
-0.000266943
-2.05385e-09
-0.000249285
-1.8008e-07
-0.000266527
-1.38067e-09
1.81923e-07
1.49691e-08
0.00026729
-6.23808e-09
0.000266964
2.79781e-09
-0.000267616
2.15044e-07
0.000249303
-0.000249446
-9.43418e-09
-1.61281e-07
3.12289e-09
0.000250277
-3.08808e-11
-0.000267318
-3.13472e-08
0.00026758
-1.14084e-09
8.62637e-09
0.000249421
-3.08088e-08
-1.88213e-07
0.00026452
-0.000265261
3.10225e-08
-0.000260372
-1.56853e-08
1.07204e-07
1.27142e-08
-0.000244465
-0.000250098
-1.70262e-07
-6.29646e-09
-0.000260525
-0.000250229
9.30477e-09
-1.00631e-08
1.69726e-07
-8.79636e-07
-0.000264552
1.54155e-08
-0.000250117
1.37226e-08
9.42246e-09
-2.13783e-07
0.000266494
1.96439e-07
-3.36578e-09
-8.03737e-11
-0.000266929
-1.32632e-09
-4.03961e-09
-0.000249279
-1.82605e-07
6.84016e-10
-0.000266575
-8.56831e-10
1.81903e-07
1.50207e-08
0.000267335
-8.81434e-09
0.000266994
-0.000267638
2.14996e-07
0.000249369
-9.43876e-09
-0.000249513
-1.61301e-07
2.81348e-09
0.00025031
-3.13728e-08
-0.000267369
0.000267605
8.61277e-09
0.000249489
-1.88193e-07
-2.82649e-08
0.000264567
-0.000265311
3.10743e-08
-0.00026039
-1.31174e-08
1.28043e-08
1.07201e-07
-0.000244474
-0.000250155
-1.70191e-07
-8.69129e-09
-0.000250288
9.28669e-09
-0.00026054
-1.5251e-08
-0.000264599
1.69739e-07
1.28474e-08
1.89174e-07
0.000250174
-0.000250307
2.86405e-08
0.000260414
-0.000260564
-1.3746e-08
-8.65094e-08
-0.000265343
8.92475e-09
-2.13746e-07
0.000266541
1.96505e-07
-2.86485e-09
-0.000266957
1.90414e-10
-0.000249345
-1.82594e-07
-0.000242605
-1.03376e-07
-1.03665e-07
2.30606e-07
2.35903e-07
-1.0796e-07
0.000261307
-0.000261634
-1.08126e-07
0.000261734
-0.00026206
-0.000242717
-8.38172e-07
-8.38446e-07
-0.00114599
4.41056e-07
4.46765e-07
0.00114678
-0.00113696
-1.51031e-06
8.38077e-07
4.14011e-07
0.00113746
-5.10078e-07
1.12355e-06
1.40913e-07
7.39844e-07
-5.57163e-07
-1.24464e-06
7.31585e-08
-0.0011366
-1.50488e-06
8.38821e-07
4.14663e-07
0.0011371
-5.07462e-07
1.11786e-06
1.37722e-07
7.3944e-07
-5.60108e-07
-1.2447e-06
7.63344e-08
-0.000276455
1.53952e-06
1.50478e-06
-4.88259e-07
-4.94321e-07
0.000274393
-1.1591e-06
-1.11915e-06
0.00027647
-0.000274367
8.36407e-08
9.09035e-08
0.00113613
8.41964e-07
-0.00113562
4.18833e-07
-1.5493e-06
1.44985e-07
-5.18627e-07
-1.25108e-06
6.76539e-08
-5.58231e-07
7.40689e-07
1.16494e-06
0.00113659
8.42202e-07
-0.00113609
4.1771e-07
-1.55488e-06
1.4799e-07
-5.21411e-07
-1.2571e-06
7.41929e-08
-5.64079e-07
7.46248e-07
-1.12198e-06
0.000276499
-0.00027439
8.61679e-08
9.13628e-08
0.00113725
8.44189e-07
-0.00113674
4.17159e-07
-1.50953e-06
1.39054e-07
-5.13246e-07
-1.25413e-06
7.41194e-08
-5.64052e-07
7.40582e-07
1.15648e-06
0.00113625
8.48143e-07
-0.00113575
4.1836e-07
-1.54684e-06
1.44873e-07
-5.18799e-07
-1.25131e-06
7.41766e-08
-5.63795e-07
7.40522e-07
8.48458e-07
-0.00113646
4.16277e-07
-1.51197e-06
1.39288e-07
-5.12933e-07
-1.2511e-06
7.10262e-08
7.37964e-07
-5.60966e-07
1.15111e-06
0.00113604
8.47773e-07
-0.00113554
4.18495e-07
-1.54119e-06
1.38911e-07
-5.13108e-07
-1.25108e-06
7.10685e-08
-5.63645e-07
7.40623e-07
-1.11628e-06
0.000276446
-0.000274351
8.59922e-08
9.12487e-08
8.43499e-07
-0.00113611
4.28386e-07
-1.50656e-06
1.36196e-07
-5.10203e-07
-1.24839e-06
7.42602e-08
7.37608e-07
-5.63872e-07
1.11404e-06
0.00113715
8.43374e-07
-0.00113664
4.21711e-07
-1.50914e-06
1.36573e-07
-5.12751e-07
-1.24593e-06
7.09524e-08
-5.61207e-07
7.35218e-07
-0.000274367
8.6339e-08
9.14158e-08
1.54764e-06
1.50772e-06
-4.85947e-07
-4.94171e-07
0.000274395
-1.15466e-06
-1.13867e-06
-0.000274463
1.29315e-07
6.41641e-08
0.000276563
4.15847e-07
0.00113662
-5.15906e-07
1.16064e-06
1.46638e-07
7.42424e-07
-5.5454e-07
-1.24741e-06
6.96439e-08
-1.55322e-06
8.3746e-07
4.15431e-07
0.00113709
-5.18608e-07
1.16652e-06
1.49606e-07
7.48087e-07
-5.60264e-07
-1.25335e-06
7.63149e-08
7.9332e-07
-0.00113758
4.13534e-07
-1.54476e-06
1.36132e-07
-5.16475e-07
-1.24101e-06
4.55735e-08
-5.61494e-07
7.40347e-07
0.00113816
1.17111e-06
8.23248e-07
-0.00113803
4.08133e-07
-1.54764e-06
1.54309e-07
-5.10215e-07
-1.2392e-06
8.25059e-08
-5.48939e-07
7.50882e-07
0.00113849
-4.8895e-07
-4.93644e-07
0.000274418
-1.12814e-06
-0.000274478
9.60269e-08
1.01237e-07
0.00027658
4.19234e-07
0.00113774
-5.10397e-07
1.12081e-06
1.40859e-07
7.45251e-07
-5.60247e-07
-1.24769e-06
7.63487e-08
-1.54517e-06
8.37764e-07
4.16046e-07
0.00113674
-5.15985e-07
1.15807e-06
1.46482e-07
7.42331e-07
-5.60001e-07
-1.2476e-06
7.6262e-08
8.3398e-07
-0.00113866
4.36442e-07
-1.49126e-06
1.59914e-07
-4.915e-07
-1.22827e-06
1.16664e-07
-5.32895e-07
7.53375e-07
0.00113897
1.16269e-06
8.23414e-07
-0.00113769
4.03325e-07
-1.53963e-06
1.51195e-07
-5.07569e-07
-1.23623e-06
8.24845e-08
-5.48673e-07
7.47979e-07
0.00113815
8.37389e-07
4.16258e-07
0.00113654
-5.10219e-07
1.1527e-06
1.40504e-07
7.42467e-07
-5.57125e-07
7.31778e-08
-1.24748e-06
8.23845e-07
-0.00113841
4.06762e-07
-1.50472e-06
1.45657e-07
-5.01757e-07
-1.23326e-06
7.94482e-08
-5.45781e-07
7.45364e-07
0.00113886
1.15727e-06
8.23077e-07
-0.00113748
4.08862e-07
-1.53393e-06
1.45327e-07
-5.01809e-07
-1.23332e-06
7.94382e-08
-5.45813e-07
7.45271e-07
0.00113794
-4.88843e-07
-4.93997e-07
0.000274379
-1.12246e-06
-0.000274439
9.3229e-08
1.01114e-07
0.00027653
8.3854e-07
4.1941e-07
0.00113764
-5.07145e-07
1.11839e-06
1.38138e-07
7.37099e-07
-5.57387e-07
7.30757e-08
-1.24219e-06
8.24341e-07
-0.00113804
4.07719e-07
-1.49927e-06
1.42591e-07
-4.98914e-07
-1.23334e-06
8.25323e-08
-5.48724e-07
7.44961e-07
0.0011385
1.12291e-06
8.24353e-07
-0.00113859
4.06577e-07
-1.4992e-06
1.42898e-07
-4.98803e-07
-1.2308e-06
7.94247e-08
-5.46023e-07
7.427e-07
0.00113904
-0.000274453
9.61976e-08
1.01275e-07
0.000276536
-0.00114519
4.42949e-07
4.43167e-07
0.001146
-0.00114519
4.42252e-07
4.42674e-07
0.0011456
-0.00114482
4.42954e-07
4.65808e-07
0.00114581
-0.00114502
4.42895e-07
4.59456e-07
-7.56929e-11
6.2531e-08
0.000235846
-0.000235903
-1.1115e-10
-5.11506e-09
-0.000196887
-5.51189e-09
1.3285e-07
-1.62308e-08
0.000196776
-0.000236249
6.56281e-11
2.39543e-07
0.000236104
-8.50716e-08
-9.7867e-09
1.3365e-08
1.37246e-08
0.000196616
-2.74637e-09
-0.00019664
-9.89438e-05
5.47249e-09
5.97075e-08
9.88786e-05
-1.33275e-08
1.84274e-09
9.88367e-05
-9.88252e-05
6.00453e-08
-3.77375e-10
0.000235877
-0.00023593
-4.97732e-09
-2.2665e-09
-0.000196916
-5.42475e-09
1.30844e-07
-1.63153e-08
0.000196807
-0.000236278
2.39724e-07
1.42349e-10
0.000236131
-9.99661e-09
-8.3084e-08
1.33208e-08
1.5725e-08
0.000196645
-2.60578e-09
-0.000196672
4.40425e-07
4.40815e-07
0.00114679
4.4109e-07
4.41586e-07
0.00114639
4.41022e-07
4.40919e-07
0.0011466
-0.00114834
4.3618e-07
4.63901e-07
0.00114907
-0.00114837
4.3504e-07
4.3538e-07
0.00114915
-0.00114796
4.30078e-07
4.35896e-07
0.00114875
-0.00114818
4.35594e-07
4.35392e-07
0.00114895
-6.26285e-08
-1.74319e-09
0.000260058
-0.000259995
-1.77057e-08
1.98747e-08
-0.000252845
-6.12209e-08
-1.32725e-07
3.0699e-07
6.29454e-08
0.000252669
0.00113889
-0.00113821
2.59225e-09
8.99294e-07
7.92435e-07
-1.19444e-06
-1.36362e-06
5.95737e-07
4.11563e-07
1.12509e-06
0.00113794
8.33374e-07
-1.2409e-06
7.5277e-08
-5.53339e-07
7.41658e-07
-1.50851e-06