/*--------------------------------*- C++ -*----------------------------------*\
| =========                 |                                                 |
| \\      /  F ield         | OpenFOAM: The Open Source CFD Toolbox           |
|  \\    /   O peration     | Version:  v1906                                 |
|   \\  /    A nd           | Web:      www.OpenFOAM.com                      |
|    \\/     M anipulation  |                                                 |
\*---------------------------------------------------------------------------*/
FoamFile
{
    version     2.0;
    format      ascii;
    class       volVectorField;
    location    "550";
    object      U;
}
// * * * * * * * * * * * * * * * * * * * * * * * * * * * * * * * * * * * * * //

dimensions      [0 1 -1 0 0 0 0];


internalField   nonuniform List<vector> 
43248
(
(-3.83172e-05 -3.85318e-05 0.104906)
(1.01229e-05 1.76598e-05 0.10828)
(-1.02416e-05 1.77747e-05 0.10828)
(3.84058e-05 -3.83971e-05 0.104907)
(1.78286e-05 1.02595e-05 0.108283)
(1.77623e-05 -1.02383e-05 0.108279)
(-1.77214e-05 1.01676e-05 0.108283)
(-1.77245e-05 -1.02126e-05 0.10828)
(-3.83906e-05 3.84155e-05 0.104906)
(1.01752e-05 -1.77242e-05 0.108282)
(-1.01531e-05 -1.77122e-05 0.108282)
(3.84351e-05 3.84108e-05 0.104906)
(2.2738e-05 2.27294e-05 0.113134)
(-2.27398e-05 2.27415e-05 0.113135)
(2.27411e-05 -2.27369e-05 0.113134)
(-2.2713e-05 -2.27207e-05 0.113134)
(-2.05891e-06 -6.88124e-06 0.0709174)
(-6.88403e-06 -2.04876e-06 0.0709174)
(-5.15456e-06 -8.26834e-06 0.0870348)
(-8.35554e-06 -5.20525e-06 0.087036)
(-4.23814e-07 1.26837e-05 0.0909881)
(-1.59588e-06 -1.13899e-05 0.0816197)
(-6.1483e-07 -1.39906e-05 0.0910345)
(3.65155e-07 1.26889e-05 0.0909882)
(1.52616e-06 -1.14728e-05 0.08162)
(-6.04824e-07 1.12047e-05 0.0815622)
(5.85071e-07 -1.39874e-05 0.0910345)
(1.1631e-07 2.49962e-05 0.0985539)
(-6.78496e-06 -1.35042e-05 0.0926819)
(4.73173e-06 2.77062e-05 0.110832)
(4.8815e-06 2.84556e-05 0.110842)
(-4.74385e-07 -1.72095e-05 0.098611)
(-1.24181e-07 2.50057e-05 0.0985537)
(-1.06062e-05 1.83691e-05 0.108294)
(6.74149e-06 -1.36611e-05 0.0926826)
(-4.71307e-06 2.77272e-05 0.110832)
(-6.81492e-06 1.93747e-05 0.0926205)
(-4.8689e-06 2.8462e-05 0.110842)
(4.55798e-07 -1.7214e-05 0.098611)
(2.0134e-06 -6.92531e-06 0.0709175)
(-4.6391e-06 5.58731e-06 0.0708533)
(-4.5002e-05 4.4947e-05 0.104759)
(5.11962e-06 -8.34293e-06 0.0870354)
(8.28092e-06 -5.15551e-06 0.0870373)
(-7.10383e-06 7.43883e-06 0.086979)
(-7.40617e-06 7.0441e-06 0.0869797)
(6.84796e-06 -2.0103e-06 0.0709186)
(-5.54298e-06 4.5535e-06 0.0708511)
(-1.14451e-05 -1.52928e-06 0.0816203)
(-1.40102e-05 -5.89711e-07 0.0910338)
(-1.37666e-05 -6.7806e-06 0.0926834)
(2.77289e-05 4.69712e-06 0.110831)
(-1.72033e-05 -4.62403e-07 0.0986103)
(-1.14402e-05 1.54264e-06 0.0816208)
(-1.40064e-05 5.67207e-07 0.0910337)
(2.77178e-05 -4.74951e-06 0.110831)
(-1.3612e-05 6.73071e-06 0.0926831)
(-1.72045e-05 4.53423e-07 0.0986103)
(-2.50204e-05 8.0316e-08 0.0985536)
(-1.83103e-05 1.05263e-05 0.108297)
(1.36226e-05 -6.76143e-06 0.0926839)
(-2.77312e-05 4.71009e-06 0.110832)
(-1.9298e-05 6.76727e-06 0.0926211)
(-2.8465e-05 4.84932e-06 0.110842)
(1.71843e-05 -4.47012e-07 0.0986108)
(-1.27099e-05 -4.11556e-07 0.0909879)
(1.14292e-05 -1.53153e-06 0.0816206)
(-1.11694e-05 5.64514e-07 0.0815613)
(1.397e-05 -5.94987e-07 0.0910341)
(-2.50163e-05 -1.61227e-07 0.0985538)
(-1.83206e-05 -1.05704e-05 0.108294)
(-2.77114e-05 -4.73217e-06 0.110831)
(1.36455e-05 6.76027e-06 0.0926832)
(-2.84492e-05 -4.87703e-06 0.110842)
(-1.93296e-05 -6.82822e-06 0.0926218)
(1.71769e-05 4.47144e-07 0.0986106)
(-1.26997e-05 3.58207e-07 0.0909881)
(1.14594e-05 1.53183e-06 0.0816204)
(-1.1179e-05 -6.1382e-07 0.0815629)
(1.39609e-05 5.92018e-07 0.0910342)
(-6.84741e-06 2.00623e-06 0.0709187)
(-8.30868e-06 5.16774e-06 0.0870356)
(-5.17221e-06 8.34396e-06 0.0870366)
(-2.04458e-06 6.90552e-06 0.0709177)
(1.3745e-07 -2.50403e-05 0.098553)
(4.71904e-06 -2.77158e-05 0.110831)
(-6.77932e-06 1.36811e-05 0.0926833)
(4.85888e-06 -2.84559e-05 0.110841)
(-4.62624e-07 1.71729e-05 0.0986106)
(-9.61684e-08 -2.50317e-05 0.0985529)
(-1.05092e-05 -1.83035e-05 0.108296)
(-4.7086e-06 -2.77156e-05 0.110831)
(6.78968e-06 1.36647e-05 0.0926831)
(-4.8482e-06 -2.84469e-05 0.110841)
(-6.84313e-06 -1.93399e-05 0.0926209)
(4.21129e-07 1.71628e-05 0.0986106)
(-3.79595e-07 -1.27486e-05 0.090988)
(-1.5316e-06 1.14687e-05 0.0816203)
(-6.07256e-07 1.39989e-05 0.0910338)
(4.32124e-07 -1.27464e-05 0.0909879)
(1.58296e-06 1.1463e-05 0.0816206)
(-6.57512e-07 -1.11858e-05 0.0815623)
(5.33685e-07 1.39859e-05 0.0910339)
(-4.4951e-05 -4.49721e-05 0.104759)
(8.34936e-06 5.15402e-06 0.0870368)
(5.18711e-06 8.34204e-06 0.0870348)
(-7.42956e-06 -7.1045e-06 0.0869807)
(-7.12249e-06 -7.43062e-06 0.0869792)
(6.91085e-06 2.03087e-06 0.0709178)
(-5.57185e-06 -4.63464e-06 0.0708541)
(2.06251e-06 6.89041e-06 0.0709174)
(-4.65932e-06 -5.55851e-06 0.0708535)
(4.57881e-06 5.52963e-06 0.0708562)
(5.51641e-06 4.64758e-06 0.0708552)
(8.44906e-06 1.38359e-05 0.0912639)
(-8.08133e-06 -2.04343e-05 0.0961247)
(7.00657e-06 7.34201e-06 0.0869805)
(-3.96609e-06 -7.6652e-06 0.0810009)
(4.46794e-06 6.51366e-06 0.0809459)
(1.41957e-05 2.12141e-05 0.0960746)
(-8.1901e-06 -1.64278e-05 0.0913112)
(1.37542e-05 8.37473e-06 0.0912504)
(-2.06862e-05 -8.30424e-06 0.0961321)
(7.31812e-06 7.03768e-06 0.0869769)
(-7.50641e-06 -3.81228e-06 0.0809991)
(6.43376e-06 4.38374e-06 0.0809382)
(2.11887e-05 1.41628e-05 0.0960654)
(-1.64077e-05 -8.28477e-06 0.0913148)
(5.72762e-06 5.75383e-06 0.0830577)
(-5.57233e-06 -4.07922e-06 0.0678215)
(-4.11824e-06 -5.4883e-06 0.0678165)
(5.51918e-06 3.50136e-06 0.0677587)
(3.46417e-06 5.47424e-06 0.067752)
(-6.75524e-06 -6.59449e-06 0.0831101)
(2.29542e-08 -6.74588e-06 0.0762635)
(-6.68852e-07 6.34326e-06 0.0780012)
(3.12388e-09 1.26553e-05 0.0894188)
(-6.16294e-07 -1.39e-05 0.0910395)
(-9.23855e-07 7.05365e-06 0.076207)
(-4.43011e-07 -7.02797e-06 0.0780497)
(-1.12284e-06 -1.33645e-05 0.0894768)
(-7.43254e-07 6.39901e-06 0.0677438)
(6.13224e-07 1.10824e-05 0.0815625)
(-1.5665e-06 -1.16899e-05 0.0852754)
(-4.92998e-07 9.67376e-06 0.0852106)
(6.07339e-08 -6.64071e-06 0.0678181)
(-9.14113e-07 6.99451e-06 0.0762076)
(-4.21004e-07 1.25127e-05 0.0909832)
(-4.27686e-07 -7.0401e-06 0.0780498)
(-1.12479e-06 -1.34471e-05 0.0894732)
(-6.59401e-07 6.29509e-06 0.0780013)
(-2.58994e-09 1.24903e-05 0.0894154)
(3.65483e-08 -6.75191e-06 0.0762641)
(-7.65595e-08 -6.80835e-06 0.0762631)
(5.9408e-07 6.34093e-06 0.0780015)
(-5.73587e-08 1.26831e-05 0.0894193)
(5.90095e-07 -1.3916e-05 0.0910395)
(8.66919e-07 7.09387e-06 0.0762091)
(3.86685e-07 -7.02825e-06 0.0780497)
(1.08935e-06 -1.34156e-05 0.0894764)
(6.75741e-07 6.47123e-06 0.0677448)
(-6.3434e-07 1.11008e-05 0.0815626)
(1.51344e-06 -1.17522e-05 0.0852744)
(4.56408e-07 9.70614e-06 0.0852108)
(-9.62741e-08 -6.72274e-06 0.0678149)
(-7.41543e-08 -6.72553e-06 0.0678132)
(4.73261e-07 9.8081e-06 0.0852117)
(1.56028e-06 -1.14255e-05 0.0816197)
(6.98112e-07 6.50694e-06 0.0677429)
(1.53118e-06 -1.1707e-05 0.0852754)
(8.52513e-07 7.03676e-06 0.0762098)
(3.61084e-07 1.25219e-05 0.0909833)
(3.79078e-07 -7.0431e-06 0.0780498)
(1.08516e-06 -1.34948e-05 0.0894729)
(5.86757e-07 6.29118e-06 0.0780016)
(-5.65491e-08 1.25311e-05 0.0894158)
(-9.77868e-08 -6.82338e-06 0.0762637)
(-4.63838e-06 5.53766e-06 0.0708556)
(2.03039e-06 -6.92045e-06 0.0709153)
(6.60059e-06 -6.64736e-06 0.0831112)
(-5.55337e-06 3.50149e-06 0.0677522)
(-3.52483e-06 5.51401e-06 0.0677574)
(-5.84728e-06 5.80235e-06 0.0830587)
(5.50448e-06 -4.11662e-06 0.0678159)
(4.07638e-06 -5.55145e-06 0.0678212)
(-8.45333e-06 1.37181e-05 0.0912538)
(8.18431e-06 -2.06154e-05 0.0961276)
(-7.06155e-06 7.3264e-06 0.0869779)
(3.83383e-06 -7.57817e-06 0.0809984)
(-1.42275e-05 2.1216e-05 0.0960682)
(-4.45477e-06 6.43796e-06 0.0809396)
(8.25194e-06 -1.63585e-05 0.0913103)
(-1.37536e-05 8.3876e-06 0.0912608)
(2.05636e-05 -8.23542e-06 0.0961307)
(-7.29711e-06 6.99678e-06 0.0869786)
(7.52165e-06 -3.88224e-06 0.0810031)
(-6.43997e-06 4.42726e-06 0.0809441)
(-2.11853e-05 1.41594e-05 0.0960718)
(1.63275e-05 -8.28415e-06 0.0913171)
(8.18494e-06 -1.62704e-05 0.0913136)
(-4.46653e-06 6.53106e-06 0.0809394)
(-1.44e-05 2.14903e-05 0.0960744)
(5.10816e-06 -8.26745e-06 0.0870366)
(8.05179e-06 -2.04692e-05 0.096134)
(-8.56595e-06 1.39091e-05 0.0912569)
(3.84957e-06 -7.52221e-06 0.0809983)
(1.62429e-05 -8.21357e-06 0.0913204)
(-6.53258e-06 4.4405e-06 0.0809439)
(-2.1459e-05 1.43355e-05 0.096078)
(8.21004e-06 -5.14083e-06 0.0870385)
(-1.39404e-05 8.50246e-06 0.091264)
(7.48203e-06 -3.90647e-06 0.081003)
(2.04205e-05 -8.10014e-06 0.0961371)
(-5.77028e-06 5.72409e-06 0.0830581)
(5.50004e-06 -4.12317e-06 0.0678168)
(4.08407e-06 -5.54645e-06 0.0678221)
(-5.52413e-06 3.47452e-06 0.0677532)
(-3.49818e-06 5.48543e-06 0.0677584)
(6.6418e-06 -6.68912e-06 0.0831105)
(-5.49437e-06 4.54989e-06 0.0708534)
(6.84146e-06 -2.02166e-06 0.0709164)
(6.46258e-06 -6.58712e-07 0.0677452)
(1.10538e-05 6.344e-07 0.0815625)
(-1.17418e-05 -1.5126e-06 0.0852742)
(9.69403e-06 -4.5218e-07 0.0852112)
(-6.71367e-06 9.58863e-08 0.067815)
(7.05931e-06 -8.5602e-07 0.0762102)
(1.25545e-05 -3.79023e-07 0.0909836)
(-1.34866e-05 -1.07796e-06 0.0894726)
(-7.074e-06 -3.99598e-07 0.0780489)
(1.25442e-05 4.29215e-08 0.089416)
(6.34327e-06 -6.05595e-07 0.078003)
(-6.82155e-06 9.07596e-08 0.0762637)
(6.40778e-06 7.38874e-07 0.0677436)
(1.10603e-05 -6.1431e-07 0.0815616)
(-1.17063e-05 1.49688e-06 0.0852755)
(9.68732e-06 5.01486e-07 0.0852105)
(-6.66034e-06 -1.28309e-07 0.0678182)
(7.01181e-06 9.16731e-07 0.076208)
(1.25495e-05 4.35633e-07 0.0909836)
(-7.07118e-06 3.78115e-07 0.0780489)
(-1.34486e-05 1.05467e-06 0.089473)
(6.33079e-06 6.54589e-07 0.0780027)
(1.25163e-05 2.4682e-08 0.0894154)
(-6.76199e-06 -1.08925e-07 0.0762641)
(6.80511e-06 6.80193e-08 0.0762629)
(-1.27172e-05 2.46265e-08 0.0894188)
(-6.34648e-06 -6.48964e-07 0.0780013)
(1.38858e-05 -6.01737e-07 0.0910391)
(-7.10387e-06 -9.02627e-07 0.0762089)
(1.3419e-05 -1.09833e-06 0.0894761)
(7.02142e-06 -4.08581e-07 0.0780494)
(-6.47848e-06 -6.93126e-07 0.0677447)
(-1.10642e-05 5.89554e-07 0.0815617)
(1.175e-05 -1.5164e-06 0.0852744)
(-9.72726e-06 -4.84456e-07 0.0852105)
(6.72223e-06 9.16332e-08 0.067815)
(6.72443e-06 6.9787e-08 0.0678133)
(-9.8272e-06 -4.9636e-07 0.0852115)
(1.13841e-05 -1.55901e-06 0.0816203)
(-6.51453e-06 -7.08214e-07 0.0677429)
(1.17038e-05 -1.52919e-06 0.0852755)
(-7.05096e-06 -8.89271e-07 0.0762095)
(-1.25355e-05 -4.07404e-07 0.090983)
(1.349e-05 -1.09242e-06 0.0894726)
(7.03238e-06 -3.97821e-07 0.0780495)
(-1.25668e-05 2.27816e-08 0.0894154)
(-6.2991e-06 -6.37509e-07 0.0780014)
(6.82662e-06 8.36772e-08 0.0762635)
(6.80131e-06 -7.02131e-08 0.0762627)
(-6.33941e-06 6.02595e-07 0.0780013)
(-1.26789e-05 -6.57595e-08 0.0894193)
(1.38819e-05 5.95525e-07 0.0910392)
(-7.08719e-06 8.66732e-07 0.0762088)
(7.01916e-06 4.06898e-07 0.0780494)
(1.34084e-05 1.08954e-06 0.0894764)
(-6.46147e-06 6.67889e-07 0.0677471)
(-1.10753e-05 -6.40511e-07 0.0815633)
(1.17454e-05 1.51608e-06 0.0852753)
(-9.69784e-06 4.44003e-07 0.0852119)
(6.71525e-06 -8.84375e-08 0.0678172)
(6.71803e-06 -6.63362e-08 0.0678154)
(-9.80149e-06 4.5968e-07 0.0852128)
(1.14153e-05 1.5632e-06 0.0816201)
(-6.49952e-06 6.85573e-07 0.0677452)
(1.16955e-05 1.53905e-06 0.0852764)
(-7.03675e-06 8.52019e-07 0.0762094)
(-1.25279e-05 3.55202e-07 0.0909831)
(7.03117e-06 3.97042e-07 0.0780495)
(1.34822e-05 1.0842e-06 0.0894728)
(-6.29162e-06 5.93328e-07 0.0780014)
(-1.25239e-05 -6.48557e-08 0.0894159)
(6.82086e-06 -8.95173e-08 0.0762633)
(5.48978e-06 -4.57773e-06 0.0708532)
(1.36987e-05 -8.44559e-06 0.0912533)
(-2.05763e-05 8.204e-06 0.0961274)
(7.31802e-06 -7.04874e-06 0.0869763)
(-7.5465e-06 3.9054e-06 0.0809978)
(2.11978e-05 -1.42139e-05 0.0960678)
(6.43962e-06 -4.48361e-06 0.0809383)
(-1.6309e-05 8.27369e-06 0.0913098)
(8.37702e-06 -1.37465e-05 0.0912604)
(-8.22902e-06 2.05821e-05 0.0961301)
(7.01811e-06 -7.33487e-06 0.0869794)
(-3.84437e-06 7.56302e-06 0.081003)
(4.39823e-06 -6.44988e-06 0.0809441)
(1.41708e-05 -2.12143e-05 0.0960714)
(-8.23532e-06 1.63204e-05 0.0913166)
(5.72631e-06 -5.76931e-06 0.0830577)
(-4.08098e-06 5.5538e-06 0.0678159)
(-5.51388e-06 4.10311e-06 0.0678218)
(3.4699e-06 -5.53025e-06 0.0677521)
(5.48449e-06 -3.49625e-06 0.0677583)
(-6.64813e-06 6.66842e-06 0.08311)
(4.61409e-06 -5.5378e-06 0.0708563)
(5.39218e-08 6.81249e-06 0.0762625)
(4.93503e-08 -1.27097e-05 0.089419)
(-6.22392e-07 -6.39902e-06 0.0780025)
(-6.09798e-07 1.39104e-05 0.0910388)
(-8.737e-07 -7.11089e-06 0.0762089)
(-1.09935e-06 1.34099e-05 0.0894762)
(-4.28029e-07 7.06468e-06 0.0780487)
(-6.61032e-07 -6.45885e-06 0.0677474)
(6.2049e-07 -1.10869e-05 0.0815633)
(-1.52092e-06 1.17465e-05 0.0852748)
(-4.54765e-07 -9.70893e-06 0.0852122)
(7.75374e-08 6.70835e-06 0.0678171)
(5.61833e-08 6.71103e-06 0.0678153)
(-1.53979e-06 1.17005e-05 0.0852759)
(-8.58802e-07 -7.06232e-06 0.0762095)
(-3.77874e-07 -1.25782e-05 0.0909831)
(-1.0978e-06 1.34849e-05 0.0894726)
(-4.20949e-07 7.07899e-06 0.0780488)
(4.52438e-08 -1.2553e-05 0.0894156)
(-6.13946e-07 -6.35212e-06 0.0780026)
(6.94843e-08 6.82219e-06 0.0762631)
(-1.24115e-07 6.77483e-06 0.0762645)
(-8.84404e-09 -1.26889e-05 0.089418)
(6.51746e-07 -6.39979e-06 0.0780024)
(5.46654e-07 1.39036e-05 0.0910389)
(9.01963e-07 -7.07489e-06 0.0762077)
(1.0365e-06 1.33718e-05 0.0894771)
(3.6092e-07 7.06118e-06 0.0780489)
(6.90593e-07 -6.41776e-06 0.0677424)
(-6.90434e-07 -1.10801e-05 0.0815626)
(1.51502e-06 1.17117e-05 0.0852757)
(4.39069e-07 -9.67807e-06 0.0852098)
(-1.36386e-07 6.66983e-06 0.0678174)
(-1.22388e-07 6.66942e-06 0.0678157)
(4.53427e-07 -9.77827e-06 0.0852108)
(1.62168e-06 1.14211e-05 0.0816203)
(7.06454e-07 -6.44974e-06 0.0677406)
(1.53282e-06 1.16741e-05 0.0852766)
(8.81576e-07 -7.01778e-06 0.0762083)
(4.24702e-07 -1.25779e-05 0.090983)
(1.02773e-06 1.34646e-05 0.0894736)
(3.42151e-07 7.07485e-06 0.078049)
(-9.95205e-09 -1.25214e-05 0.0894145)
(6.33025e-07 -6.3554e-06 0.0780025)
(-1.47048e-07 6.78479e-06 0.076265)
(6.61997e-06 6.60395e-06 0.0831111)
(-3.49927e-06 -5.53461e-06 0.0677579)
(-5.53418e-06 -3.50345e-06 0.0677521)
(-5.80773e-06 -5.80922e-06 0.0830589)
(4.09191e-06 5.52522e-06 0.0678214)
(5.53793e-06 4.0851e-06 0.0678153)
(-1.37078e-05 -8.39418e-06 0.0912611)
(2.06003e-05 8.17849e-06 0.0961301)
(-7.32228e-06 -7.06006e-06 0.0869796)
(7.57212e-06 3.85038e-06 0.0810031)
(-2.11729e-05 -1.41844e-05 0.0960719)
(-6.42383e-06 -4.43834e-06 0.0809445)
(1.6334e-05 8.22393e-06 0.0913169)
(-8.40907e-06 -1.37153e-05 0.0912541)
(8.24097e-06 2.05962e-05 0.0961273)
(-7.07441e-06 -7.3176e-06 0.0869781)
(3.88801e-06 7.58695e-06 0.0809976)
(-1.41908e-05 -2.11679e-05 0.0960687)
(-4.45952e-06 -6.45816e-06 0.08094)
(8.27604e-06 1.63298e-05 0.0913099)
(1.62518e-05 8.15523e-06 0.0913202)
(-6.51203e-06 -4.44753e-06 0.0809442)
(-2.14503e-05 -1.43598e-05 0.0960781)
(8.27758e-06 5.13698e-06 0.087038)
(-1.38916e-05 -8.50434e-06 0.0912642)
(2.04591e-05 8.05489e-06 0.0961366)
(7.50998e-06 3.85525e-06 0.081003)
(8.21299e-06 1.62498e-05 0.0913132)
(-4.47376e-06 -6.54902e-06 0.0809398)
(-1.4364e-05 -2.1442e-05 0.0960749)
(5.16932e-06 8.26409e-06 0.0870359)
(-8.52305e-06 -1.39029e-05 0.0912573)
(8.11256e-06 2.04554e-05 0.0961336)
(3.89922e-06 7.52999e-06 0.0809975)
(-5.72752e-06 -5.72998e-06 0.0830583)
(4.09483e-06 5.51958e-06 0.0678222)
(5.53399e-06 4.08836e-06 0.0678162)
(-3.47179e-06 -5.50698e-06 0.0677589)
(-5.50412e-06 -3.47798e-06 0.0677531)
(6.66284e-06 6.64737e-06 0.0831104)
(-5.52468e-06 -4.63071e-06 0.0708565)
(6.90325e-06 2.03606e-06 0.0709155)
(-4.66128e-06 -5.51145e-06 0.0708559)
(2.07531e-06 6.8895e-06 0.0709152)
(1.87949e-05 1.88212e-05 0.0974181)
(4.45431e-05 4.45706e-05 0.104745)
(-3.98825e-05 -2.12751e-05 0.101727)
(-2.1162e-05 -3.98975e-05 0.101732)
(4.32168e-05 2.43242e-05 0.101643)
(2.42963e-05 4.32285e-05 0.101636)
(-1.97928e-05 -2.00987e-05 0.0974882)
(-1.88565e-05 1.87731e-05 0.0974183)
(-4.45276e-05 4.44694e-05 0.104745)
(3.99496e-05 -2.12132e-05 0.101728)
(2.12187e-05 -4.00068e-05 0.101732)
(-4.32486e-05 2.42557e-05 0.101638)
(-2.42967e-05 4.32021e-05 0.101642)
(2.00049e-05 -2.00064e-05 0.097489)
(1.87702e-05 -1.88621e-05 0.0974182)
(4.45018e-05 -4.45719e-05 0.104745)
(-2.11858e-05 3.99677e-05 0.101728)
(-3.99943e-05 2.12188e-05 0.101731)
(2.42537e-05 -4.3269e-05 0.101637)
(4.32143e-05 -2.43082e-05 0.101641)
(-1.99662e-05 2.00065e-05 0.0974882)
(-1.878e-05 -1.87785e-05 0.0974187)
(-4.44778e-05 -4.4494e-05 0.104745)
(2.12399e-05 3.99839e-05 0.101731)
(4.00011e-05 2.12223e-05 0.101728)
(-2.42565e-05 -4.3238e-05 0.101642)
(-4.31883e-05 -2.42495e-05 0.101638)
(2.00176e-05 1.99835e-05 0.0974885)
(1.04103e-05 3.15556e-05 0.115006)
(3.15282e-05 1.03991e-05 0.115006)
(1.05582e-05 3.19754e-05 0.11498)
(1.32131e-05 1.32172e-05 0.116309)
(1.30967e-05 1.31055e-05 0.116357)
(-2.31834e-05 2.31852e-05 0.113129)
(-1.0408e-05 3.15567e-05 0.115006)
(-3.15363e-05 1.0419e-05 0.115007)
(-1.05532e-05 3.19861e-05 0.11498)
(-3.19705e-05 1.0563e-05 0.114981)
(-1.31982e-05 1.3226e-05 0.11631)
(-1.30859e-05 1.31088e-05 0.116357)
(3.15383e-05 -1.04196e-05 0.115005)
(1.04283e-05 -3.15128e-05 0.115006)
(1.05833e-05 -3.19502e-05 0.11498)
(1.32247e-05 -1.31831e-05 0.116309)
(1.30998e-05 -1.30743e-05 0.116357)
(-2.31628e-05 -2.3164e-05 0.113128)
(-3.15194e-05 -1.0403e-05 0.115005)
(-1.04004e-05 -3.15128e-05 0.115006)
(-3.19605e-05 -1.0545e-05 0.114979)
(-1.0546e-05 -3.19535e-05 0.11498)
(-1.31956e-05 -1.31805e-05 0.116309)
(-1.30829e-05 -1.30713e-05 0.116357)
(8.87891e-07 -4.18928e-05 0.103364)
(1.60383e-06 2.4991e-05 0.0974887)
(8.6317e-07 5.81296e-05 0.103957)
(-4.67024e-07 -1.69931e-05 0.0986221)
(4.13563e-06 5.77574e-05 0.103208)
(-1.08803e-06 -1.74179e-05 0.0975672)
(6.73051e-07 -3.99906e-05 0.104085)
(8.14529e-06 5.56424e-05 0.101539)
(-5.73789e-06 -4.37879e-05 0.099618)
(6.71821e-06 1.91381e-05 0.0926171)
(-3.54119e-06 -1.83835e-05 0.095462)
(1.23986e-05 5.27676e-05 0.0995442)
(3.33848e-06 2.17203e-05 0.0953826)
(-2.00386e-06 -4.547e-05 0.101674)
(4.0354e-06 5.7147e-05 0.103195)
(1.11557e-07 2.46757e-05 0.098543)
(-1.11085e-06 -1.76287e-05 0.0975576)
(6.43797e-07 -4.02703e-05 0.104071)
(1.56487e-06 2.46889e-05 0.0974794)
(8.27854e-07 5.74654e-05 0.103943)
(8.12998e-07 -4.21648e-05 0.10335)
(-9.35912e-07 -4.18618e-05 0.103363)
(-1.61283e-06 2.50188e-05 0.097488)
(-8.32378e-07 5.81299e-05 0.103957)
(4.5098e-07 -1.69989e-05 0.098622)
(-4.11701e-06 5.77694e-05 0.103207)
(1.04686e-06 -1.74513e-05 0.0975669)
(-6.87754e-07 -3.99829e-05 0.104085)
(-8.14411e-06 5.56415e-05 0.101538)
(5.66083e-06 -4.37888e-05 0.0996184)
(-6.75789e-06 1.91516e-05 0.0926162)
(3.48183e-06 -1.84436e-05 0.0954617)
(-3.36072e-06 2.17338e-05 0.0953814)
(-1.2398e-05 5.2787e-05 0.0995417)
(1.85298e-06 -4.54529e-05 0.101674)
(1.76264e-06 -4.53035e-05 0.101686)
(-3.40903e-06 2.19694e-05 0.0953885)
(-1.25588e-05 5.32587e-05 0.0995507)
(6.73516e-06 -1.35145e-05 0.0926871)
(-8.27966e-06 5.61711e-05 0.10155)
(3.45931e-06 -1.82964e-05 0.095469)
(5.54771e-06 -4.36209e-05 0.0996277)
(-4.03212e-06 5.7162e-05 0.103194)
(-1.11833e-07 2.46821e-05 0.0985428)
(1.07044e-06 -1.76549e-05 0.0975575)
(-6.66411e-07 -4.02562e-05 0.10407)
(-1.57513e-06 2.47174e-05 0.0974788)
(-8.08271e-07 5.74753e-05 0.103943)
(-8.58858e-07 -4.21399e-05 0.10335)
(1.98905e-05 -1.98886e-05 0.0974962)
(3.82524e-05 -3.82419e-05 0.104922)
(-4.36403e-05 2.46022e-05 0.101648)
(-2.46431e-05 4.36002e-05 0.101652)
(3.98431e-05 -2.10317e-05 0.101739)
(-1.91186e-05 1.9038e-05 0.0974252)
(2.10299e-05 -3.98855e-05 0.101742)
(5.5629e-05 8.17102e-06 0.101538)
(-4.38393e-05 -5.70293e-06 0.0996201)
(1.90795e-05 6.74582e-06 0.0926164)
(-1.84629e-05 -3.48477e-06 0.095462)
(5.27512e-05 1.23688e-05 0.099542)
(2.1708e-05 3.3688e-06 0.0953818)
(-4.54859e-05 -1.79539e-06 0.101675)
(5.72151e-05 4.03965e-06 0.103194)
(2.47124e-05 1.08747e-07 0.0985423)
(-1.76466e-05 -1.07219e-06 0.0975571)
(-4.02553e-05 6.62953e-07 0.10407)
(2.47398e-05 1.57847e-06 0.0974786)
(5.74951e-05 7.98491e-07 0.103943)
(-4.21241e-05 8.71461e-07 0.10335)
(5.56615e-05 -8.13864e-06 0.101538)
(-4.37747e-05 5.66579e-06 0.0996184)
(1.911e-05 -6.71912e-06 0.0926159)
(-1.84089e-05 3.46825e-06 0.0954622)
(2.17323e-05 -3.33571e-06 0.0953821)
(5.27517e-05 -1.23759e-05 0.0995418)
(-4.54438e-05 1.85186e-06 0.101674)
(5.71756e-05 -4.00998e-06 0.103194)
(2.47049e-05 -8.34122e-08 0.0985425)
(-4.02654e-05 -6.64935e-07 0.10407)
(-1.76184e-05 1.06734e-06 0.0975572)
(5.74853e-05 -8.03281e-07 0.103943)
(2.47109e-05 -1.53343e-06 0.0974789)
(-4.21421e-05 -8.6885e-07 0.10335)
(4.18398e-05 9.27254e-07 0.103364)
(-2.50387e-05 1.57436e-06 0.0974877)
(-5.81648e-05 8.03559e-07 0.103957)
(1.69678e-05 -4.47073e-07 0.0986218)
(-5.77845e-05 4.07979e-06 0.103207)
(1.744e-05 -1.04665e-06 0.0975671)
(3.99683e-05 6.99422e-07 0.104085)
(-5.56566e-05 8.14289e-06 0.101539)
(4.37793e-05 -5.72321e-06 0.0996205)
(-1.90812e-05 6.71289e-06 0.0926168)
(1.84369e-05 -3.49736e-06 0.0954627)
(-5.27216e-05 1.23605e-05 0.0995443)
(-2.17259e-05 3.34031e-06 0.0953816)
(4.54877e-05 -1.91689e-06 0.101676)
(4.52998e-05 -1.81506e-06 0.101688)
(-2.19585e-05 3.38624e-06 0.0953887)
(-5.3197e-05 1.25246e-05 0.0995533)
(1.347e-05 -6.74852e-06 0.0926883)
(-5.61775e-05 8.27285e-06 0.101551)
(4.36258e-05 -5.61414e-06 0.0996297)
(1.82869e-05 -3.47041e-06 0.0954699)
(-5.72117e-05 4.00128e-06 0.103194)
(-2.46986e-05 6.62706e-08 0.0985427)
(1.76439e-05 -1.0677e-06 0.0975576)
(4.0236e-05 6.7469e-07 0.10407)
(-2.47347e-05 1.53085e-06 0.0974784)
(-5.75167e-05 7.75538e-07 0.103943)
(4.21477e-05 8.45685e-07 0.103351)
(4.18586e-05 -9.45338e-07 0.103363)
(-5.81652e-05 -8.7827e-07 0.103957)
(-2.50046e-05 -1.63134e-06 0.0974884)
(1.69602e-05 4.40021e-07 0.0986216)
(-5.77705e-05 -4.14306e-06 0.103208)
(3.99747e-05 -6.79514e-07 0.104084)
(1.74204e-05 1.04277e-06 0.097567)
(-5.56123e-05 -8.16515e-06 0.101539)
(4.38174e-05 5.69719e-06 0.0996195)
(-1.90912e-05 -6.76322e-06 0.0926175)
(1.84334e-05 3.49246e-06 0.0954626)
(-2.17009e-05 -3.3744e-06 0.0953826)
(-5.2742e-05 -1.23852e-05 0.099544)
(4.54785e-05 1.87339e-06 0.101675)
(4.52954e-05 1.77072e-06 0.101687)
(-2.19385e-05 -3.42565e-06 0.0953897)
(-5.32215e-05 -1.25527e-05 0.0995529)
(1.34895e-05 6.74012e-06 0.0926876)
(-5.61642e-05 -8.30399e-06 0.101551)
(1.8285e-05 3.47219e-06 0.0954699)
(4.36298e-05 5.57748e-06 0.0996288)
(-5.71473e-05 -4.05581e-06 0.103195)
(-2.46925e-05 -1.47394e-07 0.0985429)
(4.02456e-05 -6.45721e-07 0.10407)
(1.76204e-05 1.05876e-06 0.0975575)
(-5.75211e-05 -8.46435e-07 0.103943)
(-2.47018e-05 -1.59144e-06 0.0974791)
(4.21343e-05 -8.655e-07 0.10335)
(9.35931e-07 4.18263e-05 0.103363)
(8.38023e-07 -5.81541e-05 0.103957)
(1.623e-06 -2.5035e-05 0.0974876)
(-4.52285e-07 1.69562e-05 0.0986216)
(4.10206e-06 -5.77965e-05 0.103207)
(6.89922e-07 3.99234e-05 0.104084)
(-1.05796e-06 1.74313e-05 0.097567)
(8.12877e-06 -5.56241e-05 0.101539)
(-5.71898e-06 4.38227e-05 0.0996202)
(6.7359e-06 -1.91201e-05 0.0926174)
(-3.50447e-06 1.84431e-05 0.0954627)
(1.23627e-05 -5.27385e-05 0.0995439)
(3.36318e-06 -2.17326e-05 0.0953825)
(-1.89008e-06 4.54817e-05 0.101675)
(-1.78557e-06 4.52996e-05 0.101688)
(-3.48439e-06 1.82958e-05 0.0954701)
(4.01047e-06 -5.71705e-05 0.103194)
(1.21828e-07 -2.47186e-05 0.0985421)
(6.60516e-07 4.02132e-05 0.10407)
(-1.08557e-06 1.76244e-05 0.0975574)
(8.07427e-07 -5.74913e-05 0.103943)
(1.57919e-06 -2.47324e-05 0.0974784)
(8.57809e-07 4.20681e-05 0.10335)
(-9.45848e-07 4.18237e-05 0.103363)
(-8.26239e-07 -5.81737e-05 0.103957)
(-1.60271e-06 -2.50029e-05 0.0974873)
(4.29687e-07 1.69469e-05 0.0986216)
(-4.08463e-06 -5.77674e-05 0.103207)
(-7.00301e-07 3.99373e-05 0.104084)
(1.02345e-06 1.73873e-05 0.097567)
(-8.12669e-06 -5.562e-05 0.101538)
(5.72727e-06 4.38164e-05 0.099619)
(-6.78368e-06 -1.91068e-05 0.0926166)
(3.51993e-06 1.84212e-05 0.0954625)
(-3.37576e-06 -2.16956e-05 0.0953814)
(-1.23744e-05 -5.27344e-05 0.0995426)
(1.88452e-06 4.54739e-05 0.101675)
(1.78289e-06 4.52837e-05 0.101687)
(-3.43506e-06 -2.19296e-05 0.0953885)
(-1.25403e-05 -5.32093e-05 0.0995516)
(6.78758e-06 1.35173e-05 0.0926876)
(-8.2573e-06 -5.61278e-05 0.10155)
(3.48418e-06 1.82741e-05 0.0954697)
(5.61461e-06 4.36551e-05 0.0996283)
(-3.99521e-06 -5.71367e-05 0.103194)
(-9.33123e-08 -2.47144e-05 0.098542)
(-6.73443e-07 4.02121e-05 0.10407)
(1.05142e-06 1.76021e-05 0.0975575)
(-8.03219e-07 -5.7534e-05 0.103943)
(-1.55629e-06 -2.46944e-05 0.097478)
(-8.68078e-07 4.21186e-05 0.10335)
(1.99049e-05 1.98656e-05 0.0974957)
(3.82915e-05 3.82645e-05 0.104921)
(-2.46009e-05 -4.36365e-05 0.101652)
(-4.3587e-05 -2.45976e-05 0.101649)
(-1.90448e-05 -1.90471e-05 0.0974256)
(2.10576e-05 3.98699e-05 0.101742)
(3.98808e-05 2.1032e-05 0.101739)
(6.10759e-05 6.10124e-05 0.108908)
(-9.1666e-05 5.68911e-05 0.107966)
(5.69577e-05 -9.18267e-05 0.107966)
(-0.000146104 -0.000146263 0.106634)
(9.84802e-06 9.69556e-06 0.106791)
(5.74299e-05 9.21465e-05 0.107918)
(-5.74236e-05 9.23187e-05 0.107918)
(-9.69726e-06 9.76414e-06 0.106792)
(9.23845e-05 5.73824e-05 0.107919)
(9.23583e-05 -5.74715e-05 0.107918)
(-9.21596e-05 5.71999e-05 0.107919)
(-9.22262e-05 -5.73572e-05 0.107918)
(9.8044e-06 -9.73888e-06 0.106791)
(5.72532e-05 -9.23111e-05 0.107919)
(-5.712e-05 -9.21875e-05 0.107918)
(-9.62604e-06 -9.71517e-06 0.106791)
(0.000146173 0.000146138 0.106634)
(7.16599e-06 7.11961e-06 0.10683)
(5.71034e-05 9.17876e-05 0.107965)
(-5.71191e-05 9.18318e-05 0.107965)
(5.6223e-05 8.99678e-05 0.1081)
(-5.62291e-05 9.03086e-05 0.1081)
(-0.000146126 0.00014611 0.106634)
(-6.92454e-06 6.98708e-06 0.106831)
(9.17806e-05 5.69384e-05 0.107965)
(9.18656e-05 -5.71683e-05 0.107965)
(9.03985e-05 5.62977e-05 0.108101)
(9.03238e-05 -5.62799e-05 0.1081)
(-9.17315e-05 -5.70515e-05 0.107965)
(-9.01234e-05 5.60077e-05 0.108101)
(-9.01962e-05 -5.61379e-05 0.1081)
(0.000146158 -0.000146265 0.106634)
(7.01894e-06 -6.94625e-06 0.10683)
(-5.6814e-05 -9.16907e-05 0.107966)
(5.60588e-05 -9.02911e-05 0.108101)
(-5.59251e-05 -9.01493e-05 0.108101)
(-6.85968e-06 -6.95153e-06 0.10683)
(6.13873e-05 6.13289e-05 0.108832)
(-6.13387e-05 6.12907e-05 0.108832)
(6.13429e-05 -6.13964e-05 0.108832)
(-6.1309e-05 -6.13872e-05 0.108832)
(1.21821e-06 1.07917e-05 0.094054)
(-1.4668e-06 3.26351e-05 0.0835754)
(1.93179e-06 5.77782e-05 0.0940775)
(-4.17133e-06 -4.86358e-06 0.0835805)
(-3.59029e-06 1.48339e-05 0.0721605)
(5.50248e-06 -5.56682e-06 0.0721978)
(1.07493e-05 1.14981e-06 0.0940532)
(3.27365e-05 -1.49184e-06 0.0835763)
(5.78756e-05 1.90941e-06 0.0940777)
(-4.88714e-06 -4.15006e-06 0.0835796)
(-6.10307e-05 6.09848e-05 0.108908)
(6.10347e-05 -6.10982e-05 0.108908)
(-6.10017e-05 -6.10767e-05 0.108908)
(6.01486e-05 6.01344e-05 0.109132)
(-6.01069e-05 6.0064e-05 0.109132)
(6.01016e-05 -6.01716e-05 0.109132)
(-6.00724e-05 -6.01425e-05 0.109132)
(-4.8944e-05 3.91962e-06 0.102492)
(-6.49166e-05 2.63048e-05 0.0957164)
(-0.000101762 2.00393e-05 0.108605)
(-9.11656e-05 5.65844e-05 0.108012)
(-0.000111103 5.59379e-06 0.102466)
(-2.14931e-05 -3.4479e-07 0.0957355)
(-0.000101409 1.98884e-05 0.108671)
(1.47112e-05 -3.56451e-06 0.0721575)
(-5.59998e-06 5.44306e-06 0.0721999)
(3.99987e-06 -4.90065e-05 0.102491)
(2.01524e-05 -0.000101783 0.108605)
(2.63556e-05 -6.5009e-05 0.0957168)
(5.66622e-05 -9.13264e-05 0.108012)
(5.80458e-06 -0.000111192 0.102466)
(2.0004e-05 -0.000101417 0.10867)
(-4.17099e-07 -2.14014e-05 0.0957333)
(-3.18312e-05 -1.73979e-05 0.0893935)
(-1.72203e-05 -3.19472e-05 0.0893915)
(-8.21173e-06 -8.30558e-06 0.106814)
(-1.07307e-05 2.99142e-06 0.0893986)
(3.18807e-06 -1.08324e-05 0.0893958)
(-5.53795e-06 -5.44433e-06 0.0722797)
(3.52918e-06 1.51146e-05 0.0722399)
(-5.41022e-06 -5.55541e-06 0.072277)
(1.52014e-05 3.54735e-06 0.0722402)
(0.000147937 0.000147928 0.106613)
(-2.77757e-06 1.19545e-05 0.0895317)
(1.1822e-05 -2.85528e-06 0.089529)
(1.78134e-05 3.29672e-05 0.0895289)
(3.31269e-05 1.77524e-05 0.0895264)
(2.15105e-06 6.06001e-05 0.0942443)
(-4.34388e-06 -4.12258e-06 0.0836967)
(-1.67083e-06 3.38286e-05 0.0836951)
(1.4201e-06 1.29593e-05 0.0942164)
(-2.19072e-06 6.06012e-05 0.0942445)
(4.3111e-06 -4.15767e-06 0.0836952)
(1.68593e-06 3.38951e-05 0.0836961)
(-1.36916e-06 1.2985e-05 0.0942163)
(6.12411e-06 0.000114879 0.102598)
(5.77284e-05 9.27649e-05 0.10787)
(1.54811e-07 2.35755e-05 0.0958848)
(2.02919e-05 0.000102072 0.108539)
(2.72978e-05 6.734e-05 0.0958687)
(2.044e-05 0.000102442 0.108472)
(4.53972e-06 5.2132e-05 0.102625)
(-6.18639e-06 0.000114914 0.102598)
(-5.77175e-05 9.27979e-05 0.10787)
(-1.38307e-07 2.34016e-05 0.0958831)
(-2.0248e-05 0.00010212 0.108539)
(-2.73394e-05 6.74263e-05 0.0958685)
(-2.03895e-05 0.000102464 0.108472)
(-4.51069e-06 5.21275e-05 0.102625)
(5.57569e-06 -5.40476e-06 0.0722769)
(-3.5871e-06 1.51663e-05 0.0722413)
(-0.000147859 0.000147826 0.106613)
(2.84408e-06 1.18453e-05 0.0895288)
(-1.1839e-05 -2.7578e-06 0.0895327)
(-1.7776e-05 3.30784e-05 0.0895275)
(-3.29538e-05 1.78353e-05 0.0895289)
(5.50704e-06 -5.479e-06 0.07228)
(-1.50807e-05 3.57488e-06 0.0722397)
(6.06502e-05 2.10853e-06 0.0942446)
(-4.16305e-06 -4.2957e-06 0.0836957)
(3.39109e-05 -1.71632e-06 0.0836958)
(1.29486e-05 1.35128e-06 0.0942156)
(0.00011492 6.08629e-06 0.102597)
(9.27657e-05 5.75484e-05 0.10787)
(2.33855e-05 1.299e-07 0.095884)
(0.000102134 2.02268e-05 0.108538)
(6.74372e-05 2.72858e-05 0.0958682)
(0.000102505 2.03743e-05 0.108472)
(5.21336e-05 4.48764e-06 0.102625)
(6.06522e-05 -2.17908e-06 0.0942448)
(-4.1522e-06 4.29737e-06 0.0836966)
(3.38345e-05 1.63057e-06 0.0836946)
(1.29666e-05 -1.5188e-06 0.0942154)
(0.000114907 -6.19953e-06 0.102598)
(9.28486e-05 -5.77655e-05 0.107869)
(0.000102111 -2.03073e-05 0.108539)
(2.34284e-05 -2.27604e-07 0.0958846)
(0.000102472 -2.04421e-05 0.108472)
(6.73599e-05 -2.73634e-05 0.0958675)
(5.20962e-05 -4.61343e-06 0.102625)
(-0.000114884 6.05611e-06 0.102598)
(-9.26454e-05 5.74933e-05 0.10787)
(-2.34626e-05 2.33388e-07 0.0958868)
(-0.000102117 2.01929e-05 0.108539)
(-6.72994e-05 2.73604e-05 0.0958696)
(-0.000102474 2.03435e-05 0.108472)
(-5.21386e-05 4.49706e-06 0.102626)