/*--------------------------------*- C++ -*----------------------------------*\
| =========                 |                                                 |
| \\      /  F ield         | OpenFOAM: The Open Source CFD Toolbox           |
|  \\    /   O peration     | Version:  v1912                                 |
|   \\  /    A nd           | Website:  www.openfoam.com                      |
|    \\/     M anipulation  |                                                 |
\*---------------------------------------------------------------------------*/
FoamFile
{
    version     2.0;
    format      ascii;
    class       volScalarField;
    location    "1.05";
    object      p;
}
// * * * * * * * * * * * * * * * * * * * * * * * * * * * * * * * * * * * * * //

dimensions      [0 2 -2 0 0 0 0];


internalField   nonuniform List<scalar> 
171728
(
0.0212141
0.0212175
0.0212175
0.0212338
0.0209923
0.0209924
0.0209924
0.0210062
0.0207674
0.0207674
0.0207674
0.0207812
0.0205425
0.0205424
0.0205424
0.0205562
0.0203175
0.0203174
0.0203174
0.0203312
0.0200925
0.0200924
0.0200924
0.0201062
0.0198675
0.0198674
0.0198674
0.0198812
0.0196425
0.0196424
0.0196424
0.0196562
0.0194175
0.0194174
0.0194174
0.0194312
0.0191925
0.0191924
0.0191924
0.0192062
0.0189675
0.0189674
0.0189674
0.0189812
0.0187425
0.0187424
0.0187424
0.0187562
0.0185175
0.0185174
0.0185174
0.0185312
0.0182925
0.0182925
0.0182925
0.0183062
0.0180675
0.0180675
0.0180675
0.0180812
0.0178425
0.0178425
0.0178425
0.0178562
0.0176175
0.0176175
0.0176175
0.0176312
0.0173925
0.0173925
0.0173925
0.0174062
0.0171676
0.0171675
0.0171675
0.0171813
0.0169426
0.0169425
0.0169425
0.0169563
0.0167176
0.0167175
0.0167175
0.0167313
0.0164926
0.0164925
0.0164925
0.0165063
0.0162676
0.0162675
0.0162675
0.0162813
0.0160426
0.0160425
0.0160425
0.0160563
0.0158176
0.0158175
0.0158175
0.0158313
0.0155926
0.0155925
0.0155925
0.0156063
0.0153676
0.0153675
0.0153675
0.0153813
0.0151426
0.0151425
0.0151425
0.0151563
0.0149176
0.0149175
0.0149175
0.0149313
0.0146926
0.0146925
0.0146925
0.0147063
0.0144676
0.0144675
0.0144675
0.0144813
0.0142426
0.0142425
0.0142425
0.0142563
0.0140176
0.0140175
0.0140175
0.0140313
0.0137926
0.0137925
0.0137925
0.0138063
0.0135676
0.0135675
0.0135675
0.0135813
0.0133426
0.0133425
0.0133425
0.0133563
0.0131176
0.0131176
0.0131176
0.0131313
0.0128926
0.0128926
0.0128926
0.0129063
0.0126676
0.0126676
0.0126676
0.0126813
0.0124426
0.0124426
0.0124426
0.0124563
0.0122177
0.0122176
0.0122176
0.0122314
0.0119927
0.0119926
0.0119926
0.0120064
0.0117677
0.0117676
0.0117676
0.0117814
0.0115427
0.0115426
0.0115426
0.0115564
0.0113177
0.0113176
0.0113176
0.0113314
0.0110927
0.0110926
0.0110926
0.0111064
0.0108677
0.0108676
0.0108676
0.0108814
0.0106427
0.0106426
0.0106426
0.0106564
0.0104177
0.0104176
0.0104176
0.0104314
0.0101927
0.0101926
0.0101926
0.0102064
0.0099677
0.00996762
0.00996762
0.0099814
0.00974271
0.00974263
0.00974263
0.0097564
0.00951771
0.00951763
0.00951763
0.00953141
0.00929272
0.00929264
0.00929264
0.00930641
0.00906772
0.00906764
0.00906764
0.00908142
0.00884273
0.00884265
0.00884265
0.00885642
0.00861773
0.00861765
0.00861765
0.00863143
0.00839274
0.00839266
0.00839266
0.00840644
0.00816774
0.00816766
0.00816766
0.00818144
0.00794275
0.00794267
0.00794267
0.00795645
0.00771776
0.00771768
0.00771768
0.00773145
0.00749276
0.00749268
0.00749268
0.00750646
0.00726777
0.00726769
0.00726769
0.00728146
0.00704277
0.00704269
0.00704269
0.00705647
0.00681778
0.0068177
0.0068177
0.00683148
0.00659279
0.00659271
0.00659271
0.00660648
0.00636779
0.00636771
0.00636771
0.00638149
0.0061428
0.00614272
0.00614272
0.0061565
0.00591781
0.00591773
0.00591773
0.0059315
0.00569281
0.00569273
0.00569273
0.00570651
0.00546782
0.00546774
0.00546774
0.00548152
0.00524283
0.00524275
0.00524275
0.00525652
0.00501783
0.00501775
0.00501775
0.00503153
0.00479284
0.00479276
0.00479276
0.00480654
0.00456785
0.00456777
0.00456777
0.00458154
0.00434285
0.00434277
0.00434278
0.00435655
0.00411786
0.00411778
0.00411778
0.00413156
0.00389287
0.00389279
0.00389279
0.00390657
0.00366788
0.0036678
0.0036678
0.00368157
0.00344288
0.0034428
0.00344281
0.00345658
0.00321789
0.00321781
0.00321781
0.00323159
0.0029929
0.00299282
0.00299282
0.0030066
0.00276791
0.00276783
0.00276783
0.0027816
0.00254292
0.00254284
0.00254284
0.00255661
0.00231792
0.00231784
0.00231784
0.00233162
0.00209293
0.00209285
0.00209285
0.00210663
0.00186794
0.00186786
0.00186786
0.00188164
0.00164295
0.00164287
0.00164287
0.00165664
0.00141795
0.00141787
0.00141788
0.00143165
0.00119296
0.00119288
0.00119288
0.00120666
0.00096797
0.00096789
0.000967891
0.000981667
0.000742977
0.000742899
0.000742898
0.000756675
0.000518
0.000517916
0.000517915
0.000531684
0.000293789
0.000293137
0.000293136
0.000306741
8.57045e-05
9.12442e-05
9.12411e-05
9.08251e-05
0.0212638
0.0212588
0.0212588
0.0212638
0.0212588
0.0212588
0.021267
0.021267
0.021267
0.021267
0.0212588
0.0212588
0.0212638
0.0212588
0.0212588
0.0212638
0.0212338
0.021035
0.0212175
0.0212175
0.0210487
0.0210487
0.0212338
0.021035
0.0212175
0.0212175
0.0210487
0.0210487
0.0212175
0.0210487
0.0210487
0.0212338
0.021035
0.0212175
0.0210487
0.0210487
0.021035
0.0210062
0.0208099
0.0209924
0.0209924
0.0208237
0.0208237
0.0210062
0.0208099
0.0209924
0.0209924
0.0208237
0.0208237
0.0209924
0.0208237
0.0208237
0.0210062
0.0208099
0.0209924
0.0208237
0.0208237
0.0208099
0.0207812
0.0205849
0.0207674
0.0207674
0.0205986
0.0205986
0.0207812
0.0205849
0.0207674
0.0207674
0.0205986
0.0205986
0.0207674
0.0205986
0.0205986
0.0207812
0.0205849
0.0207674
0.0205986
0.0205986
0.0205849
0.0205562
0.0203599
0.0205424
0.0205424
0.0203737
0.0203737
0.0205562
0.0203599
0.0205424
0.0205424
0.0203737
0.0203737
0.0205424
0.0203737
0.0203737
0.0205562
0.0203599
0.0205424
0.0203737
0.0203737
0.0203599
0.0203312
0.0201349
0.0203174
0.0203174
0.0201487
0.0201487
0.0203312
0.0201349
0.0203174
0.0203174
0.0201487
0.0201487
0.0203174
0.0201487
0.0201487
0.0203312
0.0201349
0.0203174
0.0201487
0.0201487
0.0201349
0.0201062
0.0199099
0.0200924
0.0200924
0.0199237
0.0199237
0.0201062
0.0199099
0.0200924
0.0200924
0.0199237
0.0199237
0.0200924
0.0199237
0.0199237
0.0201062
0.0199099
0.0200924
0.0199237
0.0199237
0.0199099
0.0198812
0.0196849
0.0198674
0.0198674
0.0196987
0.0196987
0.0198812
0.0196849
0.0198674
0.0198674
0.0196987
0.0196987
0.0198674
0.0196987
0.0196987
0.0198812
0.0196849
0.0198674
0.0196987
0.0196987
0.0196849
0.0196562
0.01946
0.0196424
0.0196424
0.0194737
0.0194737
0.0196562
0.01946
0.0196424
0.0196424
0.0194737
0.0194737
0.0196424
0.0194737
0.0194737
0.0196562
0.01946
0.0196424
0.0194737
0.0194737
0.01946
0.0194312
0.019235
0.0194174
0.0194174
0.0192487
0.0192487
0.0194312
0.019235
0.0194174
0.0194174
0.0192487
0.0192487
0.0194174
0.0192487
0.0192487
0.0194312
0.019235
0.0194174
0.0192487
0.0192487
0.019235
0.0192062
0.01901
0.0191924
0.0191924
0.0190237
0.0190237
0.0192062
0.01901
0.0191924
0.0191924
0.0190237
0.0190237
0.0191924
0.0190237
0.0190237
0.0192062
0.01901
0.0191924
0.0190237
0.0190237
0.01901
0.0189812
0.018785
0.0189674
0.0189674
0.0187987
0.0187987
0.0189812
0.018785
0.0189674
0.0189674
0.0187987
0.0187987
0.0189674
0.0187987
0.0187987
0.0189812
0.018785
0.0189674
0.0187987
0.0187987
0.018785
0.0187562
0.01856
0.0187424
0.0187424
0.0185737
0.0185737
0.0187562
0.01856
0.0187424
0.0187424
0.0185737
0.0185737
0.0187424
0.0185737
0.0185737
0.0187562
0.01856
0.0187424
0.0185737
0.0185737
0.01856
0.0185312
0.018335
0.0185174
0.0185174
0.0183487
0.0183487
0.0185312
0.018335
0.0185174
0.0185174
0.0183487
0.0183487
0.0185174
0.0183487
0.0183487
0.0185312
0.018335
0.0185174
0.0183487
0.0183487
0.018335
0.0183062
0.01811
0.0182925
0.0182925
0.0181237
0.0181237
0.0183062
0.01811
0.0182925
0.0182925
0.0181237
0.0181237
0.0182925
0.0181237
0.0181237
0.0183062
0.01811
0.0182925
0.0181237
0.0181237
0.01811
0.0180812
0.017885
0.0180675
0.0180675
0.0178987
0.0178987
0.0180812
0.017885
0.0180675
0.0180675
0.0178987
0.0178987
0.0180675
0.0178987
0.0178987
0.0180812
0.017885
0.0180675
0.0178987
0.0178987
0.017885
0.0178562
0.01766
0.0178425
0.0178425
0.0176737
0.0176737
0.0178562
0.01766
0.0178425
0.0178425
0.0176737
0.0176737
0.0178425
0.0176737
0.0176737
0.0178562
0.01766
0.0178425
0.0176737
0.0176737
0.01766
0.0176312
0.017435
0.0176175
0.0176175
0.0174487
0.0174487
0.0176312
0.017435
0.0176175
0.0176175
0.0174487
0.0174487
0.0176175
0.0174487
0.0174487
0.0176312
0.017435
0.0176175
0.0174487
0.0174487
0.017435
0.0174062
0.01721
0.0173925
0.0173925
0.0172237
0.0172237
0.0174062
0.01721
0.0173925
0.0173925
0.0172237
0.0172237
0.0173925
0.0172237
0.0172237
0.0174062
0.01721
0.0173925
0.0172237
0.0172237
0.01721
0.0171813
0.016985
0.0171675
0.0171675
0.0169987
0.0169987
0.0171813
0.016985
0.0171675
0.0171675
0.0169987
0.0169987
0.0171675
0.0169987
0.0169987
0.0171813
0.016985
0.0171675
0.0169987
0.0169987
0.016985
0.0169563
0.01676
0.0169425
0.0169425
0.0167737
0.0167737
0.0169563
0.01676
0.0169425
0.0169425
0.0167737
0.0167737
0.0169425
0.0167737
0.0167737
0.0169563
0.01676
0.0169425
0.0167737
0.0167737
0.01676
0.0167313
0.016535
0.0167175
0.0167175
0.0165487
0.0165487
0.0167313
0.016535
0.0167175
0.0167175
0.0165487
0.0165487
0.0167175
0.0165487
0.0165487
0.0167313
0.016535
0.0167175
0.0165487
0.0165487
0.016535
0.0165063
0.01631
0.0164925
0.0164925
0.0163237
0.0163237
0.0165063
0.01631
0.0164925
0.0164925
0.0163237
0.0163237
0.0164925
0.0163237
0.0163237
0.0165063
0.01631
0.0164925
0.0163237
0.0163237
0.01631
0.0162813
0.016085
0.0162675
0.0162675
0.0160987
0.0160987
0.0162813
0.016085
0.0162675
0.0162675
0.0160987
0.0160987
0.0162675
0.0160987
0.0160987
0.0162813
0.016085
0.0162675
0.0160987
0.0160987
0.016085
0.0160563
0.01586
0.0160425
0.0160425
0.0158737
0.0158737
0.0160563
0.01586
0.0160425
0.0160425
0.0158737
0.0158737
0.0160425
0.0158737
0.0158737
0.0160563
0.01586
0.0160425
0.0158737
0.0158737
0.01586
0.0158313
0.015635
0.0158175
0.0158175
0.0156488
0.0156488
0.0158313
0.015635
0.0158175
0.0158175
0.0156488
0.0156488
0.0158175
0.0156488
0.0156488
0.0158313
0.015635
0.0158175
0.0156488
0.0156488
0.015635
0.0156063
0.01541
0.0155925
0.0155925
0.0154238
0.0154238
0.0156063
0.01541
0.0155925
0.0155925
0.0154238
0.0154238
0.0155925
0.0154238
0.0154238
0.0156063
0.01541
0.0155925
0.0154238
0.0154238
0.01541
0.0153813
0.015185
0.0153675
0.0153675
0.0151988
0.0151988
0.0153813
0.015185
0.0153675
0.0153675
0.0151988
0.0151988
0.0153675
0.0151988
0.0151988
0.0153813
0.015185
0.0153675
0.0151988
0.0151988
0.015185
0.0151563
0.01496
0.0151425
0.0151425
0.0149738
0.0149738
0.0151563
0.01496
0.0151425
0.0151425
0.0149738
0.0149738
0.0151425
0.0149738
0.0149738
0.0151563
0.01496
0.0151425
0.0149738
0.0149738
0.01496
0.0149313
0.0147351
0.0149175
0.0149175
0.0147488
0.0147488
0.0149313
0.0147351
0.0149175
0.0149175
0.0147488
0.0147488
0.0149175
0.0147488
0.0147488
0.0149313
0.0147351
0.0149175
0.0147488
0.0147488
0.0147351
0.0147063
0.0145101
0.0146925
0.0146925
0.0145238
0.0145238
0.0147063
0.0145101
0.0146925
0.0146925
0.0145238
0.0145238
0.0146925
0.0145238
0.0145238
0.0147063
0.0145101
0.0146925
0.0145238
0.0145238
0.0145101
0.0144813
0.0142851
0.0144675
0.0144675
0.0142988
0.0142988
0.0144813
0.0142851
0.0144675
0.0144675
0.0142988
0.0142988
0.0144675
0.0142988
0.0142988
0.0144813
0.0142851
0.0144675
0.0142988
0.0142988
0.0142851
0.0142563
0.0140601
0.0142425
0.0142425
0.0140738
0.0140738
0.0142563
0.0140601
0.0142425
0.0142425
0.0140738
0.0140738
0.0142425
0.0140738
0.0140738
0.0142563
0.0140601
0.0142425
0.0140738
0.0140738
0.0140601
0.0140313
0.0138351
0.0140175
0.0140175
0.0138488
0.0138488
0.0140313
0.0138351
0.0140175
0.0140175
0.0138488
0.0138488
0.0140175
0.0138488
0.0138488
0.0140313
0.0138351
0.0140175
0.0138488
0.0138488
0.0138351
0.0138063
0.0136101
0.0137925
0.0137925
0.0136238
0.0136238
0.0138063
0.0136101
0.0137925
0.0137925
0.0136238
0.0136238
0.0137925
0.0136238
0.0136238
0.0138063
0.0136101
0.0137925
0.0136238
0.0136238
0.0136101
0.0135813
0.0133851
0.0135675
0.0135675
0.0133988
0.0133988
0.0135813
0.0133851
0.0135675
0.0135675
0.0133988
0.0133988
0.0135675
0.0133988
0.0133988
0.0135813
0.0133851
0.0135675
0.0133988
0.0133988
0.0133851
0.0133563
0.0131601
0.0133425
0.0133425
0.0131738
0.0131738
0.0133563
0.0131601
0.0133425
0.0133425
0.0131738
0.0131738
0.0133425
0.0131738
0.0131738
0.0133563
0.0131601
0.0133425
0.0131738
0.0131738
0.0131601
0.0131313
0.0129351
0.0131176
0.0131176
0.0129488
0.0129488
0.0131313
0.0129351
0.0131176
0.0131176
0.0129488
0.0129488
0.0131176
0.0129488
0.0129488
0.0131313
0.0129351
0.0131176
0.0129488
0.0129488
0.0129351
0.0129063
0.0127101
0.0128926
0.0128926
0.0127238
0.0127238
0.0129063
0.0127101
0.0128926
0.0128926
0.0127238
0.0127238
0.0128926
0.0127238
0.0127238
0.0129063
0.0127101
0.0128926
0.0127238
0.0127238
0.0127101
0.0126813
0.0124851
0.0126676
0.0126676
0.0124988
0.0124988
0.0126813
0.0124851
0.0126676
0.0126676
0.0124988
0.0124988
0.0126676
0.0124988
0.0124988
0.0126813
0.0124851
0.0126676
0.0124988
0.0124988
0.0124851
0.0124563
0.0122601
0.0124426
0.0124426
0.0122738
0.0122738
0.0124563
0.0122601
0.0124426
0.0124426
0.0122738
0.0122738
0.0124426
0.0122738
0.0122738
0.0124563
0.0122601
0.0124426
0.0122738
0.0122738
0.0122601
0.0122314
0.0120351
0.0122176
0.0122176
0.0120488
0.0120488
0.0122314
0.0120351
0.0122176
0.0122176
0.0120488
0.0120488
0.0122176
0.0120488
0.0120488
0.0122314
0.0120351
0.0122176
0.0120488
0.0120488
0.0120351
0.0120064
0.0118101
0.0119926
0.0119926
0.0118238
0.0118238
0.0120064
0.0118101
0.0119926
0.0119926
0.0118238
0.0118238
0.0119926
0.0118238
0.0118238
0.0120064
0.0118101
0.0119926
0.0118238
0.0118238
0.0118101
0.0117814
0.0115851
0.0117676
0.0117676
0.0115988
0.0115988
0.0117814
0.0115851
0.0117676
0.0117676
0.0115988
0.0115988
0.0117676
0.0115988
0.0115988
0.0117814
0.0115851
0.0117676
0.0115988
0.0115988
0.0115851
0.0115564
0.0113601
0.0115426
0.0115426
0.0113738
0.0113738
0.0115564
0.0113601
0.0115426
0.0115426
0.0113738
0.0113738
0.0115426
0.0113738
0.0113738
0.0115564
0.0113601
0.0115426
0.0113738
0.0113738
0.0113601
0.0113314
0.0111351
0.0113176
0.0113176
0.0111488
0.0111488
0.0113314
0.0111351
0.0113176
0.0113176
0.0111488
0.0111488
0.0113176
0.0111488
0.0111488
0.0113314
0.0111351
0.0113176
0.0111488
0.0111488
0.0111351
0.0111064
0.0109101
0.0110926
0.0110926
0.0109238
0.0109238
0.0111064
0.0109101
0.0110926
0.0110926
0.0109238
0.0109238
0.0110926
0.0109238
0.0109238
0.0111064
0.0109101
0.0110926
0.0109238
0.0109238
0.0109101
0.0108814
0.0106851
0.0108676
0.0108676
0.0106989
0.0106989
0.0108814
0.0106851
0.0108676
0.0108676
0.0106989
0.0106989
0.0108676
0.0106989
0.0106989
0.0108814
0.0106851
0.0108676
0.0106989
0.0106989
0.0106851
0.0106564
0.0104601
0.0106426
0.0106426
0.0104739
0.0104739
0.0106564
0.0104601
0.0106426
0.0106426
0.0104739
0.0104739
0.0106426
0.0104739
0.0104739
0.0106564
0.0104601
0.0106426
0.0104739
0.0104739
0.0104601
0.0104314
0.0102351
0.0104176
0.0104176
0.0102489
0.0102489
0.0104314
0.0102351
0.0104176
0.0104176
0.0102489
0.0102489
0.0104176
0.0102489
0.0102489
0.0104314
0.0102351
0.0104176
0.0102489
0.0102489
0.0102351
0.0102064
0.0100101
0.0101926
0.0101926
0.0100239
0.0100239
0.0102064
0.0100101
0.0101926
0.0101926
0.0100239
0.0100239
0.0101926
0.0100239
0.0100239
0.0102064
0.0100101
0.0101926
0.0100239
0.0100239
0.0100101
0.0099814
0.00978515
0.00996762
0.00996762
0.00979887
0.00979887
0.0099814
0.00978515
0.00996762
0.00996762
0.00979887
0.00979887
0.00996762
0.00979887
0.00979887
0.0099814
0.00978515
0.00996762
0.00979887
0.00979887
0.00978515
0.0097564
0.00956016
0.00974263
0.00974263
0.00957388
0.00957388
0.0097564
0.00956016
0.00974263
0.00974263
0.00957388
0.00957388
0.00974263
0.00957388
0.00957388
0.0097564
0.00956016
0.00974263
0.00957388
0.00957388
0.00956016
0.00953141
0.00933517
0.00951763
0.00951763
0.00934888
0.00934888
0.00953141
0.00933516
0.00951763
0.00951763
0.00934888
0.00934889
0.00951763
0.00934888
0.00934889
0.00953141
0.00933517
0.00951763
0.00934889
0.00934889
0.00933517
0.00930641
0.00911017
0.00929264
0.00929264
0.00912389
0.00912389
0.00930641
0.00911017
0.00929264
0.00929264
0.00912389
0.00912389
0.00929264
0.00912389
0.00912389
0.00930641
0.00911017
0.00929264
0.00912389
0.00912389
0.00911017
0.00908142
0.00888518
0.00906764
0.00906764
0.0088989
0.0088989
0.00908142
0.00888518
0.00906764
0.00906764
0.0088989
0.0088989
0.00906764
0.0088989
0.0088989
0.00908142
0.00888518
0.00906764
0.0088989
0.0088989
0.00888518
0.00885643
0.00866018
0.00884265
0.00884265
0.0086739
0.0086739
0.00885643
0.00866018
0.00884265
0.00884265
0.0086739
0.0086739
0.00884265
0.0086739
0.0086739
0.00885643
0.00866018
0.00884265
0.0086739
0.0086739
0.00866018
0.00863143
0.00843519
0.00861765
0.00861765
0.00844891
0.00844891
0.00863143
0.00843519
0.00861765
0.00861765
0.00844891
0.00844891
0.00861765
0.00844891
0.00844891
0.00863143
0.00843519
0.00861765
0.00844891
0.00844891
0.00843519
0.00840644
0.00821019
0.00839266
0.00839266
0.00822391
0.00822391
0.00840644
0.00821019
0.00839266
0.00839266
0.00822391
0.00822391
0.00839266
0.00822391
0.00822391
0.00840644
0.00821019
0.00839266
0.00822391
0.00822391
0.00821019
0.00818144
0.0079852
0.00816766
0.00816766
0.00799892
0.00799892
0.00818144
0.0079852
0.00816766
0.00816766
0.00799892
0.00799892
0.00816767
0.00799892
0.00799892
0.00818144
0.0079852
0.00816766
0.00799892
0.00799892
0.0079852
0.00795645
0.0077602
0.00794267
0.00794267
0.00777392
0.00777392
0.00795645
0.0077602
0.00794267
0.00794267
0.00777392
0.00777392
0.00794267
0.00777392
0.00777392
0.00795645
0.0077602
0.00794267
0.00777392
0.00777392
0.0077602
0.00773145
0.00753521
0.00771768
0.00771767
0.00754893
0.00754893
0.00773145
0.00753521
0.00771767
0.00771768
0.00754893
0.00754893
0.00771768
0.00754893
0.00754893
0.00773145
0.00753521
0.00771767
0.00754893
0.00754893
0.00753521
0.00750646
0.00731022
0.00749268
0.00749268
0.00732394
0.00732393
0.00750646
0.00731022
0.00749268
0.00749268
0.00732394
0.00732394
0.00749268
0.00732394
0.00732394
0.00750646
0.00731022
0.00749268
0.00732394
0.00732393
0.00731022
0.00728146
0.00708522
0.00726769
0.00726769
0.00709894
0.00709894
0.00728146
0.00708522
0.00726769
0.00726769
0.00709894
0.00709894
0.00726769
0.00709894
0.00709894
0.00728146
0.00708522
0.00726769
0.00709894
0.00709894
0.00708522
0.00705647
0.00686023
0.00704269
0.00704269
0.00687395
0.00687395
0.00705647
0.00686023
0.00704269
0.00704269
0.00687395
0.00687395
0.00704269
0.00687395
0.00687395
0.00705647
0.00686023
0.00704269
0.00687395
0.00687395
0.00686023
0.00683148
0.00663523
0.0068177
0.0068177
0.00664895
0.00664895
0.00683148
0.00663523
0.0068177
0.0068177
0.00664895
0.00664895
0.0068177
0.00664895
0.00664896
0.00683148
0.00663524
0.0068177
0.00664895
0.00664895
0.00663523
0.00660648
0.00641024
0.00659271
0.00659271
0.00642396
0.00642396
0.00660648
0.00641024
0.00659271
0.00659271
0.00642396
0.00642396
0.00659271
0.00642396
0.00642396
0.00660648
0.00641024
0.00659271
0.00642396
0.00642396
0.00641024
0.00638149
0.00618525
0.00636771
0.00636771
0.00619897
0.00619897
0.00638149
0.00618525
0.00636771
0.00636771
0.00619897
0.00619897
0.00636771
0.00619897
0.00619897
0.00638149
0.00618525
0.00636771
0.00619897
0.00619897
0.00618525
0.0061565
0.00596025
0.00614272
0.00614272
0.00597397
0.00597397
0.0061565
0.00596025
0.00614272
0.00614272
0.00597397
0.00597397
0.00614272
0.00597397
0.00597397
0.0061565
0.00596025
0.00614272
0.00597397
0.00597397
0.00596025
0.0059315
0.00573526
0.00591773
0.00591773
0.00574898
0.00574898
0.0059315
0.00573526
0.00591773
0.00591773
0.00574898
0.00574898
0.00591773
0.00574898
0.00574898
0.0059315
0.00573526
0.00591773
0.00574898
0.00574898
0.00573526
0.00570651
0.00551027
0.00569273
0.00569273
0.00552399
0.00552399
0.00570651
0.00551027
0.00569273
0.00569273
0.00552399
0.00552399
0.00569273
0.00552399
0.00552399
0.00570651
0.00551027
0.00569273
0.00552399
0.00552399
0.00551027
0.00548152
0.00528528
0.00546774
0.00546774
0.005299
0.00529899
0.00548152
0.00528528
0.00546774
0.00546774
0.005299
0.005299
0.00546774
0.005299
0.005299
0.00548152
0.00528528
0.00546774
0.005299
0.005299
0.00528528
0.00525652
0.00506028
0.00524275
0.00524275
0.005074
0.005074
0.00525652
0.00506028
0.00524275
0.00524275
0.005074
0.005074
0.00524275
0.005074
0.005074
0.00525652
0.00506028
0.00524275
0.005074
0.005074
0.00506028
0.00503153
0.00483529
0.00501775
0.00501775
0.00484901
0.00484901
0.00503153
0.00483529
0.00501775
0.00501775
0.00484901
0.00484901
0.00501776
0.00484901
0.00484901
0.00503153
0.00483529
0.00501775
0.00484901
0.00484901
0.00483529
0.00480654
0.0046103
0.00479276
0.00479276
0.00462402
0.00462402
0.00480654
0.0046103
0.00479276
0.00479276
0.00462402
0.00462402
0.00479276
0.00462402
0.00462402
0.00480654
0.0046103
0.00479276
0.00462402
0.00462402
0.0046103
0.00458154
0.0043853
0.00456777
0.00456777
0.00439902
0.00439902
0.00458154
0.0043853
0.00456777
0.00456777
0.00439902
0.00439902
0.00456777
0.00439902
0.00439902
0.00458154
0.0043853
0.00456777
0.00439902
0.00439902
0.0043853
0.00435655
0.00416031
0.00434278
0.00434277
0.00417403
0.00417403
0.00435655
0.00416031
0.00434277
0.00434277
0.00417403
0.00417403
0.00434278
0.00417403
0.00417403
0.00435655
0.00416031
0.00434277
0.00417403
0.00417403
0.00416031
0.00413156
0.00393532
0.00411778
0.00411778
0.00394904
0.00394904
0.00413156
0.00393532
0.00411778
0.00411778
0.00394904
0.00394904
0.00411778
0.00394904
0.00394904
0.00413156
0.00393532
0.00411778
0.00394904
0.00394904
0.00393532
0.00390657
0.00371033
0.00389279
0.00389279
0.00372405
0.00372404
0.00390657
0.00371033
0.00389279
0.00389279
0.00372404
0.00372404
0.00389279
0.00372404
0.00372405
0.00390657
0.00371033
0.00389279
0.00372405
0.00372404
0.00371033
0.00368157
0.00348533
0.0036678
0.0036678
0.00349905
0.00349905
0.00368157
0.00348533
0.0036678
0.0036678
0.00349905
0.00349905
0.0036678
0.00349905
0.00349905
0.00368157
0.00348533
0.0036678
0.00349905
0.00349905
0.00348533
0.00345658
0.00326034
0.0034428
0.0034428
0.00327406
0.00327406
0.00345658
0.00326034
0.0034428
0.0034428
0.00327406
0.00327406
0.00344281
0.00327406
0.00327406
0.00345658
0.00326034
0.0034428
0.00327406
0.00327406
0.00326034
0.00323159
0.00303535
0.00321781
0.00321781
0.00304907
0.00304907
0.00323159
0.00303535
0.00321781
0.00321781
0.00304907
0.00304907
0.00321781
0.00304907
0.00304907
0.00323159
0.00303535
0.00321781
0.00304907
0.00304907
0.00303535
0.0030066
0.00281036
0.00299282
0.00299282
0.00282408
0.00282408
0.0030066
0.00281036
0.00299282
0.00299282
0.00282408
0.00282408
0.00299282
0.00282408
0.00282408
0.0030066
0.00281036
0.00299282
0.00282408
0.00282408
0.00281036
0.0027816
0.00258536
0.00276783
0.00276783
0.00259908
0.00259908
0.0027816
0.00258536
0.00276783
0.00276783
0.00259908
0.00259908
0.00276783
0.00259908
0.00259908
0.0027816
0.00258537
0.00276783
0.00259908
0.00259908
0.00258536
0.00255661
0.00236037
0.00254284
0.00254284
0.00237409
0.00237409
0.00255661
0.00236037
0.00254284
0.00254284
0.00237409
0.00237409
0.00254284
0.00237409
0.00237409
0.00255661
0.00236037
0.00254284
0.00237409
0.00237409
0.00236037
0.00233162
0.00213538
0.00231784
0.00231784
0.0021491
0.0021491
0.00233162
0.00213538
0.00231784
0.00231784
0.0021491
0.0021491
0.00231784
0.0021491
0.0021491
0.00233162
0.00213538
0.00231784
0.0021491
0.0021491
0.00213538
0.00210663
0.00191039
0.00209285
0.00209285
0.00192411
0.00192411
0.00210663
0.00191039
0.00209285
0.00209285
0.00192411
0.00192411
0.00209285
0.00192411
0.00192411
0.00210663
0.00191039
0.00209285
0.00192411
0.00192411
0.00191039
0.00188164
0.0016854
0.00186786
0.00186786
0.00169912
0.00169911
0.00188164
0.0016854
0.00186786
0.00186786
0.00169911
0.00169911
0.00186786
0.00169911
0.00169912
0.00188164
0.0016854
0.00186786
0.00169912
0.00169911
0.0016854
0.00165664
0.0014604
0.00164287
0.00164287
0.00147412
0.00147412
0.00165664
0.0014604
0.00164287
0.00164287
0.00147412
0.00147412
0.00164287
0.00147412
0.00147412
0.00165664
0.0014604
0.00164287
0.00147412
0.00147412
0.0014604
0.00143165
0.00123541
0.00141787
0.00141787
0.00124913
0.00124913
0.00143165
0.00123541
0.00141787
0.00141787
0.00124913
0.00124913
0.00141788
0.00124913
0.00124913
0.00143165
0.00123541
0.00141787
0.00124913
0.00124913
0.00123541
0.00120666
0.00101042
0.00119288
0.00119288
0.00102414
0.00102414
0.00120666
0.00101042
0.00119288
0.00119288
0.00102414
0.00102414
0.00119288
0.00102414
0.00102414
0.00120666
0.00101042
0.00119288
0.00102414
0.00102414
0.00101042
0.000981667
0.000785427
0.00096789
0.00096789
0.000799146
0.000799146
0.000981667
0.000785427
0.00096789
0.00096789
0.000799146
0.000799146
0.000967891
0.000799146
0.000799147
0.000981667
0.000785427
0.00096789
0.000799146
0.000799146
0.000785427
0.000756675
0.000560437
0.000742898
0.000742898
0.000574158
0.00057416
0.000756675
0.000560437
0.000742899
0.000742898
0.000574158
0.000574158
0.000742899
0.00057416
0.000574159
0.000756675
0.000560437
0.000742899
0.000574158
0.000574159
0.000560438
0.000531685
0.000335491
0.000517914
0.000517916
0.00034926
0.000349262
0.000531685
0.000335493
0.000517916
0.000517915
0.00034926
0.000349258
0.000517915
0.000349261
0.000349258
0.000531684
0.00033549
0.000517915
0.000349258
0.000349258
0.00033549
0.000306746
0.000114218
0.00029314
0.000293141
0.000128288
0.00012829
0.000306746
0.000114219
0.000293138
0.000293135
0.000128282
0.000128282
0.000293135
0.00012828
0.00012828
0.000306743
0.000114214
0.000293134
0.000128277
0.000128278
0.000114213
9.08293e-05
9.12445e-05
9.12428e-05
9.0831e-05
9.12414e-05
9.12372e-05
8.57047e-05
8.57013e-05
8.57009e-05
9.12398e-05
9.08252e-05
9.12382e-05
0.0212919
0.0213274
0.0213082
0.0213082
0.0213834
0.0213412
0.0214462
0.0213197
0.0213834
0.0213412
0.0213197
0.0214462
0.0213566
0.0214637
0.0214637
0.0211513
0.0212763
0.0212592
0.0211527
0.0211441
0.0211475
0.0211513
0.0212764
0.0212592
0.0211527
0.0212141
0.0212141
0.0212141
0.0210484
0.0210484
0.0210484
0.0210484
0.0211471
0.0212529
0.0212174
0.0211606
0.0212271
0.0211509
0.0211605
0.0211442
0.0211475
0.0211471
0.0212174
0.0212528
0.0211606
0.0212272
0.0211605
0.0211509
0.0212531
0.0212531
0.021147
0.0211495
0.0211494
0.0209223
0.0210068
0.0210069
0.0209223
0.0210067
0.0209223
0.0209223
0.0210068
0.0210069
0.0209223
0.0209923
0.0209923
0.0209923
0.0208237
0.0208237
0.0208237
0.0208237
0.0209228
0.0210063
0.0209924
0.0209362
0.0210062
0.0209227
0.0209361
0.0210067
0.0209223
0.0209228
0.0209924
0.0210063
0.0209362
0.0210062
0.0209361
0.0209227
0.0210067
0.0210067
0.0209224
0.0209223
0.0209223
0.0206972
0.0207815
0.0207815
0.0206972
0.0207815
0.0206972
0.0206972
0.0207815
0.0207815
0.0206972
0.0207674
0.0207674
0.0207674
0.0205987
0.0205987
0.0205987
0.0205987
0.0206977
0.020781
0.0207674
0.0207111
0.020781
0.0206977
0.0207112
0.0207815
0.0206972
0.0206977
0.0207674
0.020781
0.0207111
0.020781
0.0207112
0.0206977
0.0207815
0.0207815
0.0206974
0.0206972
0.0206972
0.0204722
0.0205565
0.0205565
0.0204722
0.0205565
0.0204722
0.0204722
0.0205565
0.0205565
0.0204722
0.0205425
0.0205425
0.0205425
0.0203737
0.0203737
0.0203737
0.0203737
0.0204727
0.020556
0.0205424
0.0204861
0.020556
0.0204727
0.0204862
0.0205565
0.0204722
0.0204727
0.0205424
0.020556
0.0204861
0.020556
0.0204862
0.0204727
0.0205565
0.0205565
0.0204724
0.0204722
0.0204722
0.0202472
0.0203315
0.0203315
0.0202472
0.0203315
0.0202472
0.0202472
0.0203315
0.0203315
0.0202472
0.0203175
0.0203175
0.0203175
0.0201487
0.0201487
0.0201487
0.0201487
0.0202477
0.020331
0.0203174
0.0202612
0.020331
0.0202477
0.0202612
0.0203315
0.0202472
0.0202477
0.0203174
0.020331
0.0202612
0.020331
0.0202612
0.0202477
0.0203315
0.0203315
0.0202474
0.0202472
0.0202472
0.0200222
0.0201065
0.0201065
0.0200222
0.0201065
0.0200222
0.0200222
0.0201065
0.0201065
0.0200222
0.0200925
0.0200925
0.0200925
0.0199237
0.0199237
0.0199237
0.0199237
0.0200227
0.020106
0.0200924
0.0200362
0.020106
0.0200227
0.0200362
0.0201065
0.0200222
0.0200227
0.0200924
0.020106
0.0200362
0.020106
0.0200362
0.0200227
0.0201065
0.0201065
0.0200224
0.0200222
0.0200222
0.0197972
0.0198815
0.0198815
0.0197972
0.0198815
0.0197972
0.0197972
0.0198815
0.0198815
0.0197972
0.0198675
0.0198675
0.0198675
0.0196987
0.0196987
0.0196987
0.0196987
0.0197977
0.019881
0.0198674
0.0198112
0.019881
0.0197977
0.0198112
0.0198815
0.0197972
0.0197977
0.0198674
0.019881
0.0198112
0.019881
0.0198112
0.0197977
0.0198815
0.0198815
0.0197974
0.0197972
0.0197972
0.0195722
0.0196565
0.0196565
0.0195722
0.0196565
0.0195722
0.0195722
0.0196565
0.0196565
0.0195722
0.0196425
0.0196425
0.0196425
0.0194738
0.0194738
0.0194738
0.0194738
0.0195727
0.019656
0.0196424
0.0195862
0.019656
0.0195727
0.0195862
0.0196565
0.0195722
0.0195727
0.0196424
0.019656
0.0195862
0.019656
0.0195862
0.0195727
0.0196565
0.0196565
0.0195725
0.0195722
0.0195722
0.0193472
0.0194315
0.0194315
0.0193472
0.0194315
0.0193472
0.0193472
0.0194315
0.0194315
0.0193472
0.0194175
0.0194175
0.0194175
0.0192488
0.0192488
0.0192488
0.0192488
0.0193477
0.019431
0.0194174
0.0193612
0.019431
0.0193477
0.0193612
0.0194315
0.0193472
0.0193477
0.0194174
0.019431
0.0193612
0.019431
0.0193612
0.0193477
0.0194315
0.0194315
0.0193475
0.0193472
0.0193472
0.0191222
0.0192065
0.0192065
0.0191222
0.0192065
0.0191222
0.0191222
0.0192065
0.0192065
0.0191222
0.0191925
0.0191925
0.0191925
0.0190238
0.0190238
0.0190238
0.0190238
0.0191227
0.019206
0.0191925
0.0191362
0.019206
0.0191227
0.0191362
0.0192065
0.0191222
0.0191227
0.0191925
0.019206
0.0191362
0.019206
0.0191362
0.0191227
0.0192065
0.0192065
0.0191225
0.0191222
0.0191222
0.0188972
0.0189815
0.0189815
0.0188972
0.0189815
0.0188972
0.0188972
0.0189815
0.0189815
0.0188972
0.0189675
0.0189675
0.0189675
0.0187988
0.0187988
0.0187988
0.0187988
0.0188977
0.018981
0.0189675
0.0189112
0.018981
0.0188977
0.0189112
0.0189815
0.0188972
0.0188977
0.0189675
0.018981
0.0189112
0.018981
0.0189112
0.0188977
0.0189815
0.0189815
0.0188975
0.0188972
0.0188972
0.0186722
0.0187565
0.0187565
0.0186722
0.0187565
0.0186722
0.0186722
0.0187565