/*--------------------------------*- C++ -*----------------------------------*\
| =========                 |                                                 |
| \\      /  F ield         | OpenFOAM: The Open Source CFD Toolbox           |
|  \\    /   O peration     | Version:  v1906                                 |
|   \\  /    A nd           | Web:      www.OpenFOAM.com                      |
|    \\/     M anipulation  |                                                 |
\*---------------------------------------------------------------------------*/
FoamFile
{
    version     2.0;
    format      ascii;
    class       volScalarField;
    location    "650";
    object      k;
}
// * * * * * * * * * * * * * * * * * * * * * * * * * * * * * * * * * * * * * //

dimensions      [0 2 -2 0 0 0 0];


internalField   nonuniform List<scalar> 
171728
(
4.17848e-05
3.64586e-05
3.6458e-05
4.17648e-05
3.64558e-05
3.64589e-05
3.64553e-05
3.6462e-05
4.17858e-05
3.64583e-05
3.64603e-05
4.17842e-05
2.08482e-05
2.08469e-05
2.08504e-05
2.08521e-05
6.95309e-05
6.95336e-05
6.68951e-05
6.69047e-05
6.46108e-05
7.13518e-05
6.47066e-05
6.46133e-05
7.13581e-05
7.13232e-05
6.47089e-05
5.30896e-05
6.01854e-05
2.88242e-05
2.85791e-05
5.32905e-05
5.30913e-05
3.6226e-05
6.01906e-05
2.8826e-05
6.00673e-05
2.85809e-05
5.32926e-05
6.95335e-05
6.95075e-05
4.15773e-05
6.69058e-05
6.68898e-05
6.68412e-05
6.68304e-05
6.95297e-05
6.95036e-05
7.13581e-05
6.47117e-05
6.01906e-05
2.88287e-05
5.32949e-05
7.13524e-05
6.471e-05
2.88295e-05
6.01842e-05
5.32936e-05
5.30939e-05
3.62233e-05
6.01852e-05
2.88258e-05
6.00675e-05
2.85808e-05
5.32952e-05
6.46129e-05
7.13572e-05
7.13212e-05
6.4712e-05
5.30923e-05
3.62299e-05
2.88293e-05
6.0187e-05
2.85842e-05
6.00649e-05
5.32942e-05
6.4611e-05
7.13547e-05
7.13184e-05
6.47105e-05
6.95318e-05
6.68962e-05
6.6894e-05
6.95315e-05
5.30945e-05
2.88314e-05
6.01878e-05
2.85862e-05
5.32953e-05
5.30939e-05
3.62284e-05
2.8833e-05
6.01921e-05
2.85881e-05
6.00691e-05
5.32945e-05
6.46119e-05
7.13536e-05
6.47121e-05
6.46129e-05
7.13591e-05
7.13231e-05
6.47127e-05
4.1575e-05
6.68938e-05
6.69066e-05
6.68332e-05
6.6843e-05
6.95316e-05
6.95056e-05
6.95345e-05
6.95085e-05
6.95184e-05
6.95212e-05
7.00289e-05
5.93327e-05
6.68778e-05
7.11371e-05
7.11183e-05
5.92678e-05
7.00692e-05
7.00872e-05
5.93262e-05
6.68857e-05
7.11469e-05
7.11288e-05
5.92856e-05
7.01021e-05
9.23396e-05
7.2037e-05
7.20302e-05
7.20229e-05
7.20164e-05
9.23511e-05
7.01243e-05
6.98217e-05
6.81171e-05
6.46488e-05
7.01143e-05
6.98304e-05
6.81508e-05
7.01838e-05
7.13381e-05
7.73848e-05
7.73664e-05
7.01983e-05
7.01274e-05
6.467e-05
6.98439e-05
6.82002e-05
6.98353e-05
6.81673e-05
7.01383e-05
7.0127e-05
6.98224e-05
6.81262e-05
6.46505e-05
7.01172e-05
6.98311e-05
6.81585e-05
7.01871e-05
7.13427e-05
7.74073e-05
7.73883e-05
7.02011e-05
7.01912e-05
7.73592e-05
7.13368e-05
7.01773e-05
7.73782e-05
7.013e-05
6.46716e-05
6.98447e-05
6.82091e-05
6.9836e-05
6.81738e-05
7.01403e-05
6.95209e-05
6.95199e-05
9.23134e-05
7.20056e-05
7.2011e-05
9.23046e-05
7.20195e-05
7.20249e-05
7.00847e-05
5.93314e-05
6.68864e-05
7.11464e-05
5.9281e-05
7.11294e-05
7.01057e-05
7.00336e-05
5.93215e-05
6.68755e-05
7.11338e-05
7.11191e-05
5.92729e-05
7.00546e-05
7.00401e-05
7.1107e-05
5.9182e-05
6.68608e-05
5.92331e-05
7.00189e-05
7.11223e-05
6.99892e-05
7.10956e-05
5.9174e-05
6.68449e-05
6.99677e-05
7.11106e-05
5.92234e-05
9.23389e-05
7.20307e-05
7.20361e-05
7.20167e-05
7.20221e-05
9.23505e-05
6.9517e-05
6.95161e-05
7.0187e-05
7.13444e-05
7.74056e-05
7.73867e-05
7.0201e-05
7.01306e-05
6.46734e-05
6.82068e-05
6.98461e-05
6.81755e-05
6.98376e-05
7.01403e-05
7.0184e-05
7.13396e-05
7.73845e-05
7.73657e-05
7.01986e-05
7.01285e-05
6.46712e-05
6.98455e-05
6.8201e-05
6.98369e-05
6.81684e-05
7.01386e-05
7.01276e-05
6.81233e-05
6.98206e-05
6.46536e-05
7.01158e-05
6.81604e-05
6.98333e-05
7.01863e-05
7.13417e-05
7.74059e-05
7.73855e-05
7.02004e-05
7.01905e-05
7.73564e-05
7.13363e-05
7.01766e-05
7.73767e-05
7.01283e-05
6.46718e-05
6.82103e-05
6.98473e-05
6.81737e-05
6.98343e-05
7.01415e-05
7.01263e-05
6.98202e-05
6.81191e-05
6.46522e-05
7.01148e-05
6.98329e-05
6.81549e-05
7.01851e-05
7.13389e-05
7.73872e-05
7.73683e-05
7.01991e-05
7.01893e-05
7.73392e-05
7.13338e-05
7.01754e-05
7.73579e-05
7.01277e-05
6.46699e-05
6.98469e-05
6.82044e-05
6.98338e-05
6.81694e-05
7.01396e-05
6.95192e-05
7.00846e-05
5.93288e-05
6.68817e-05
7.11431e-05
5.92804e-05
7.11285e-05
7.01057e-05
7.00353e-05
5.9325e-05
6.68765e-05
7.11362e-05
7.11178e-05
5.92732e-05
7.00565e-05
9.23431e-05
7.20302e-05
7.20366e-05
7.20163e-05
7.20226e-05
9.23516e-05
6.95191e-05
7.01267e-05
6.81179e-05
6.98214e-05
6.46535e-05
7.01151e-05
6.81547e-05
6.9834e-05
7.01857e-05
7.13405e-05
7.73866e-05
7.73675e-05
7.01996e-05
7.01898e-05
7.73574e-05
7.01279e-05
6.46709e-05
6.82041e-05
6.98479e-05
6.81681e-05
6.9835e-05
7.014e-05
7.01276e-05
6.81227e-05
6.98217e-05
6.46544e-05
7.01165e-05
6.81578e-05
6.98343e-05
7.01863e-05
7.13435e-05
7.74032e-05
7.73833e-05
7.0201e-05
7.01912e-05
7.73546e-05
7.13383e-05
7.01767e-05
7.73744e-05
7.01293e-05
6.46721e-05
6.82069e-05
6.98483e-05
6.81725e-05
6.98354e-05
7.01407e-05
9.23167e-05
7.2012e-05
7.20061e-05
9.2308e-05
7.20259e-05
7.20199e-05
7.00347e-05
5.93247e-05
6.68786e-05
7.11348e-05
5.92735e-05
7.11201e-05
7.00562e-05
7.00873e-05
5.93356e-05
6.68882e-05
7.11479e-05
5.92831e-05
7.11295e-05
7.01086e-05
6.99905e-05
7.10965e-05
5.91747e-05
6.68488e-05
6.9969e-05
5.92261e-05
7.11115e-05
7.00429e-05
7.11063e-05
5.91843e-05
6.68616e-05
7.00216e-05
5.92372e-05
7.11242e-05
9.23424e-05
7.20371e-05
7.20311e-05
7.20231e-05
7.20172e-05
9.23538e-05
6.95191e-05
6.9518e-05
6.95219e-05
6.95209e-05
5.95179e-05
4.17609e-05
5.05112e-05
5.05105e-05
5.0462e-05
5.04678e-05
5.95527e-05
5.95177e-05
4.17674e-05
5.0502e-05
5.05016e-05
5.04725e-05
5.04687e-05
5.95497e-05
5.95166e-05
4.17593e-05
5.05124e-05
5.05119e-05
5.04617e-05
5.04616e-05
5.95502e-05
5.95197e-05
4.17622e-05
5.05125e-05
5.05132e-05
5.04686e-05
5.04741e-05
5.95525e-05
1.49183e-05
1.49185e-05
1.4807e-05
1.0794e-05
1.08209e-05
2.06621e-05
1.49184e-05
1.49166e-05
1.4807e-05
1.48053e-05
1.07937e-05
1.08206e-05
1.49212e-05
1.49204e-05
1.48089e-05
1.07951e-05
1.08221e-05
2.06671e-05
1.49208e-05
1.49209e-05
1.48094e-05
1.48095e-05
1.07951e-05
1.0822e-05
4.55459e-05
5.54126e-05
4.35598e-05
5.31702e-05
4.55162e-05
5.54866e-05
4.36069e-05
4.80416e-05
5.25214e-05
6.01379e-05
5.85112e-05
5.24727e-05
5.84524e-05
4.80865e-05
4.56921e-05
5.32133e-05
5.55957e-05
4.37692e-05
5.55254e-05
4.37493e-05
4.56915e-05
4.55567e-05
5.54183e-05
4.35613e-05
5.31721e-05
4.55179e-05
5.54931e-05
4.36086e-05
4.80474e-05
5.25143e-05
6.01422e-05
5.85204e-05
5.84611e-05
5.24823e-05
4.80932e-05
4.79339e-05
5.83678e-05
5.23487e-05
6.01165e-05
4.78949e-05
5.84273e-05
5.2389e-05
4.56999e-05
5.32147e-05
5.56042e-05
4.3772e-05
5.55295e-05
4.37512e-05
4.57247e-05
5.94445e-05
4.15806e-05
5.03243e-05
5.03225e-05
5.03557e-05
5.94122e-05
5.0355e-05
4.80461e-05
5.25256e-05
6.01433e-05
5.85191e-05
5.24787e-05
5.84608e-05
4.80915e-05
4.57002e-05
5.3217e-05
5.56025e-05
4.37973e-05
5.55307e-05
4.37431e-05
4.57254e-05
4.80474e-05
5.25192e-05
6.01413e-05
5.85111e-05
5.84525e-05
5.24785e-05
4.80846e-05
4.56968e-05
5.32153e-05
4.37964e-05
5.55989e-05
4.37427e-05
5.55262e-05
4.57211e-05
4.5555e-05
5.54198e-05
4.35653e-05
5.31747e-05
4.55163e-05
5.54936e-05
4.36098e-05
4.80444e-05
5.25125e-05
6.01419e-05
5.8519e-05
5.24829e-05
5.84601e-05
4.80898e-05
4.79309e-05
5.83669e-05
5.23507e-05
6.01112e-05
4.78925e-05
5.23818e-05
5.84261e-05
4.56981e-05
5.32174e-05
5.56051e-05
4.37734e-05
5.55308e-05
4.37538e-05
4.57236e-05
4.55571e-05
4.35637e-05
5.54166e-05
5.31734e-05
4.55187e-05
4.36099e-05
5.54908e-05
4.80448e-05
5.25242e-05
6.01397e-05
5.85141e-05
5.84551e-05
5.24766e-05
4.80915e-05
4.7932e-05
5.83617e-05
5.23463e-05
6.01126e-05
4.78926e-05
5.84212e-05
5.23901e-05
4.56992e-05
5.32156e-05
4.37732e-05
5.56021e-05
4.37537e-05
5.55274e-05
4.57247e-05
4.55343e-05
4.35788e-05
5.54177e-05
5.31736e-05
4.55359e-05
4.35983e-05
5.54889e-05
4.80536e-05
5.25185e-05
6.01394e-05
5.85134e-05
5.24799e-05
5.84542e-05
4.80872e-05
4.79171e-05
5.84201e-05
4.56991e-05
5.32155e-05
4.37989e-05
5.55998e-05
4.37549e-05
5.55284e-05
4.57292e-05
4.55509e-05
4.35651e-05
5.54195e-05
5.31744e-05
4.55283e-05
4.36118e-05
5.54932e-05
4.80476e-05
5.25247e-05
6.01438e-05
5.8519e-05
5.84609e-05
5.24821e-05
4.80936e-05
4.79345e-05
5.83674e-05
5.23513e-05
6.0118e-05
4.78956e-05
5.84264e-05
5.23917e-05
4.56999e-05
5.32176e-05
4.37748e-05
5.56041e-05
4.37543e-05
5.55308e-05
4.57281e-05
5.94462e-05
4.15802e-05
5.03246e-05
5.03292e-05
5.94144e-05
5.03565e-05
5.036e-05
3.83839e-05
5.11091e-05
5.11093e-05
5.33003e-05
5.3498e-05
5.32885e-05
5.34307e-05
5.11062e-05
5.11069e-05
5.12923e-05
5.1293e-05
5.33007e-05
5.34315e-05
5.11064e-05
5.11061e-05
5.12924e-05
5.12922e-05
5.11087e-05
5.12952e-05
5.12947e-05
5.33004e-05
5.34313e-05
5.11085e-05
5.12955e-05
5.12946e-05
5.34329e-05
5.13546e-05
5.13545e-05
6.85103e-05
7.33548e-05
7.33794e-05
6.84822e-05
7.11149e-05
7.11409e-05
6.85136e-05
7.33605e-05
7.33849e-05
6.84866e-05
3.83846e-05
3.83876e-05
3.83879e-05
3.86994e-05
3.87002e-05
3.87031e-05
3.87034e-05
6.05247e-05
6.46927e-05
4.63281e-05
5.11722e-05
6.47235e-05
4.64077e-05
6.04759e-05
7.11133e-05
7.11396e-05
6.05216e-05
4.6329e-05
6.46929e-05
5.11725e-05
4.64087e-05
6.47238e-05
6.04735e-05
6.9862e-05
6.98733e-05
5.33344e-05
6.98801e-05
6.98923e-05
6.99174e-05
6.99281e-05
7.11128e-05
7.11388e-05
7.11154e-05
7.11414e-05
6.98617e-05
6.98724e-05
5.33367e-05
6.98811e-05
6.98906e-05
7.11663e-05
7.11406e-05
7.11689e-05
7.11432e-05
5.33957e-05
6.99084e-05
6.99182e-05
6.989e-05
6.99006e-05
6.85124e-05
7.33597e-05
7.33848e-05
6.84842e-05
6.0521e-05
6.46905e-05
4.63244e-05
5.11694e-05
6.47215e-05
4.64041e-05
6.04723e-05
6.05225e-05
6.46947e-05
4.63256e-05
5.11701e-05
6.47255e-05
4.64053e-05
6.04737e-05
6.85144e-05
7.3409e-05
7.33848e-05
6.85413e-05
6.85164e-05
7.34147e-05
7.33886e-05
6.85434e-05
6.05291e-05
5.12319e-05
6.47573e-05
4.65591e-05
6.47277e-05
4.64829e-05
6.05749e-05
6.05305e-05
5.12326e-05
6.47612e-05
4.65603e-05
6.47319e-05
4.64842e-05
6.05765e-05
6.98714e-05
6.98604e-05
5.33343e-05
6.98907e-05
6.98779e-05
7.11114e-05
7.11376e-05
7.11684e-05
7.11426e-05
5.3399e-05
6.9918e-05
6.99053e-05
6.98997e-05
6.98886e-05
7.11651e-05
7.11392e-05
6.05233e-05
6.46949e-05
4.63267e-05
5.11695e-05
6.47256e-05
4.64064e-05
6.04751e-05
6.85126e-05
7.3354e-05
7.33805e-05
6.84841e-05
6.0522e-05
4.63267e-05
6.46897e-05
5.11693e-05
4.64063e-05
6.47201e-05
6.04731e-05
6.85194e-05
7.34145e-05
7.33904e-05
6.85443e-05
6.0533e-05
5.12321e-05
6.47612e-05
4.65614e-05
6.47321e-05
4.64852e-05
6.05756e-05
6.85163e-05
7.34101e-05
7.33841e-05
6.85436e-05
6.05299e-05
5.12319e-05
4.65613e-05
6.47559e-05
4.64853e-05
6.4727e-05
6.05757e-05
6.85127e-05
7.33592e-05
7.33838e-05
6.84863e-05
6.0523e-05
4.63281e-05
6.4691e-05
5.11719e-05
4.64077e-05
6.47222e-05
6.04743e-05
6.85119e-05
7.33553e-05
7.33818e-05
6.84838e-05
6.05326e-05
5.12348e-05
6.47593e-05
4.65627e-05
6.473e-05
4.64866e-05
6.05786e-05
6.85185e-05
7.34137e-05
7.33892e-05
6.85436e-05
6.0531e-05
5.12345e-05
4.65626e-05
6.47579e-05
4.64865e-05
6.47283e-05
6.05769e-05
6.85159e-05
7.34113e-05
7.33853e-05
6.85428e-05
6.9866e-05
6.98629e-05
5.33341e-05
6.98836e-05
6.98811e-05
7.11139e-05
7.11399e-05
7.1167e-05
7.1141e-05
5.33986e-05
6.9911e-05
6.99085e-05
6.98943e-05
6.98912e-05
7.11673e-05
7.11416e-05
6.05233e-05
4.63292e-05
6.46961e-05
5.11717e-05
4.64088e-05
6.47274e-05
6.04747e-05
6.851e-05
7.33573e-05
7.33818e-05
6.84837e-05
6.85132e-05
7.33603e-05
7.33848e-05
6.84854e-05
6.05314e-05
5.12351e-05
4.65636e-05
6.47595e-05
4.64874e-05
6.473e-05
6.05738e-05
6.05322e-05
5.12343e-05
4.65638e-05
6.47631e-05
4.64877e-05
6.47334e-05
6.05752e-05
6.85159e-05
7.34117e-05
7.33872e-05
6.85408e-05
6.85181e-05
7.34144e-05
7.33903e-05
6.85432e-05
7.11132e-05
7.11392e-05
7.1116e-05
7.1142e-05
5.33986e-05
6.99075e-05
6.99197e-05
6.98904e-05
6.99013e-05
7.11667e-05
7.11409e-05
7.11694e-05
7.11437e-05
4.66382e-05
6.47636e-05
6.05843e-05
7.34147e-05
6.85464e-05
6.47688e-05
7.34198e-05
7.11683e-05
7.11711e-05
7.17876e-05
7.15677e-05
7.15382e-05
6.84984e-05
7.15583e-05
7.15267e-05
7.18017e-05
7.16284e-05
7.33645e-05
7.96977e-05
7.97021e-05
7.16134e-05
7.16269e-05
7.97154e-05
7.33698e-05
7.97111e-05
7.16419e-05
7.17871e-05
6.84943e-05
7.15433e-05
7.1512e-05
7.15529e-05
7.15236e-05
7.17728e-05
7.11271e-05
7.11288e-05
7.17928e-05
7.15447e-05
7.15697e-05
6.85035e-05
7.15352e-05
7.15603e-05
7.18022e-05
7.16304e-05
7.337e-05
7.97152e-05
7.97236e-05
7.16158e-05
7.16294e-05
7.97366e-05
7.33754e-05
7.97285e-05
7.16439e-05
7.17877e-05
6.84981e-05
7.15192e-05
7.15453e-05
7.1531e-05
7.15549e-05
7.1778e-05
7.11257e-05
7.11272e-05
9.4927e-05
7.34526e-05
7.34462e-05
7.34389e-05
7.34326e-05
9.49298e-05
7.40736e-05
6.51188e-05
6.9866e-05
7.31897e-05
6.51325e-05
7.31996e-05
7.40694e-05
7.41225e-05
6.51275e-05
6.9878e-05
7.31988e-05
6.51421e-05
7.32109e-05
7.41169e-05
7.40866e-05
7.32136e-05
6.98764e-05
6.51556e-05
6.51422e-05
7.32044e-05
7.40908e-05
7.41341e-05
7.32255e-05
6.98873e-05
6.51652e-05
6.51508e-05
7.32131e-05
7.41395e-05
9.49152e-05
7.34261e-05
7.34198e-05
7.34399e-05
7.34335e-05
9.49122e-05
7.41395e-05
6.52088e-05
7.32472e-05
6.99206e-05
7.41357e-05
6.52211e-05
7.32558e-05
7.41873e-05
6.52174e-05
7.32558e-05
6.99333e-05
7.41834e-05
6.52305e-05
7.32685e-05
9.49722e-05
7.34768e-05
7.34704e-05
9.49699e-05
7.34903e-05
7.3484e-05
7.1125e-05
7.11267e-05
7.11276e-05
7.11293e-05
9.49263e-05
7.34526e-05
7.34459e-05
7.3439e-05
7.34323e-05
9.49286e-05
7.40753e-05
6.51182e-05
6.98669e-05
7.31887e-05
7.32012e-05
6.5133e-05
7.40697e-05
7.41208e-05
6.51265e-05
6.98763e-05
7.31999e-05
7.32092e-05
6.51408e-05
7.41161e-05
7.40869e-05
7.32157e-05
6.98761e-05
6.51561e-05
7.32034e-05
7.40922e-05
6.51416e-05
7.41332e-05
7.32236e-05
6.98866e-05
6.51639e-05
7.32144e-05
7.41378e-05
6.51499e-05
9.4914e-05
7.34262e-05
7.34195e-05
7.34399e-05
7.34332e-05
9.49116e-05
7.11543e-05
7.11526e-05
7.11569e-05
7.11552e-05
9.49431e-05
7.34517e-05
7.3445e-05
9.49408e-05
7.34653e-05
7.34586e-05
7.41201e-05
6.52003e-05
6.99038e-05
7.32441e-05
7.32319e-05
6.51866e-05
7.41251e-05
7.41663e-05
6.52082e-05
6.99142e-05
7.32526e-05
7.32429e-05
6.51949e-05
7.41707e-05
7.4109e-05
7.32178e-05
6.51644e-05
6.98947e-05
7.41038e-05
7.323e-05
6.51785e-05
7.41544e-05
7.32289e-05
6.51726e-05
6.99044e-05
7.415e-05
7.32382e-05
6.51863e-05
9.49551e-05
7.34779e-05
7.34712e-05
7.34644e-05
7.34576e-05
9.49573e-05
7.179e-05
7.15684e-05
7.15463e-05
6.85004e-05
7.15589e-05
7.1534e-05
7.18038e-05
7.16302e-05
7.33694e-05
7.97166e-05
7.97253e-05
7.16156e-05
7.16292e-05
7.97384e-05
7.33739e-05
7.97299e-05
7.16437e-05
7.17893e-05
6.84964e-05
7.1544e-05
7.15194e-05
7.15535e-05
7.15317e-05
7.17752e-05
7.18163e-05
7.15731e-05
7.15414e-05
6.8526e-05
7.18022e-05
7.15828e-05
7.15526e-05
7.16538e-05
7.33996e-05
7.97409e-05
7.16687e-05
7.97367e-05
7.16553e-05
7.9724e-05
7.33944e-05
7.16404e-05
7.97281e-05
7.18166e-05
6.85299e-05
7.15981e-05
7.15667e-05
7.18307e-05
7.15876e-05
7.15556e-05
7.18183e-05
7.15737e-05
7.15488e-05
6.85281e-05
7.18046e-05
7.15835e-05
7.15608e-05
7.1656e-05
7.34035e-05
7.97638e-05
7.97558e-05
7.16704e-05
7.16571e-05
7.97429e-05
7.34e-05
7.16426e-05
7.97512e-05
7.1819e-05
6.8532e-05
7.15989e-05
7.1575e-05
7.1588e-05
7.15631e-05
7.18327e-05
9.49252e-05
7.3446e-05
7.34518e-05
7.34323e-05
7.34381e-05
9.49271e-05
7.41204e-05
6.5126e-05
6.98764e-05
7.3198e-05
7.32105e-05
6.51393e-05
7.41164e-05
7.40741e-05
6.51204e-05
6.98637e-05
7.31894e-05
6.51326e-05
7.31987e-05
7.40699e-05
7.41335e-05
7.32249e-05
6.98858e-05
6.51624e-05
7.32126e-05
6.51494e-05
7.41375e-05
7.40871e-05
7.32131e-05
6.98747e-05
6.51557e-05
6.51438e-05
7.32039e-05
7.40913e-05
9.49124e-05
7.34195e-05
7.34253e-05
7.34332e-05
7.3439e-05
9.49105e-05
7.11238e-05
7.11253e-05
7.11563e-05
7.11547e-05
9.49417e-05
7.3445e-05
7.34508e-05
9.49396e-05
7.34587e-05
7.34644e-05
7.41663e-05
6.52066e-05
6.99133e-05
7.32536e-05
6.51944e-05
7.32412e-05
7.4171e-05
7.41204e-05
6.51999e-05
6.99024e-05
7.32417e-05
7.32328e-05
6.51887e-05
7.41242e-05
7.41544e-05
7.32271e-05
6.51721e-05
6.99043e-05
6.51848e-05
7.41502e-05
7.32392e-05
7.41079e-05
7.32185e-05
6.51665e-05
6.98918e-05
7.41039e-05
7.32278e-05
6.51781e-05
9.49539e-05
7.34713e-05
7.3477e-05
7.34576e-05
7.34634e-05
9.4956e-05
7.11529e-05
7.11514e-05
7.1788e-05
7.15703e-05
7.15382e-05
6.85003e-05
7.15578e-05
7.15265e-05
7.18021e-05
7.16278e-05
7.33656e-05
7.96963e-05
7.97006e-05
7.16128e-05
7.16264e-05
7.97139e-05
7.33692e-05
7.97097e-05
7.16414e-05
7.17875e-05
6.84966e-05
7.15431e-05
7.15118e-05
7.15554e-05
7.15235e-05
7.17732e-05
7.18166e-05
7.15497e-05
7.15751e-05
6.85291e-05
7.18072e-05
7.15588e-05
7.15847e-05
7.16562e-05
7.34053e-05
7.9762e-05
7.16706e-05
7.97544e-05
7.16573e-05
7.97414e-05
7.34e-05
7.16428e-05
7.97495e-05
7.18218e-05
6.85348e-05
7.15727e-05
7.15994e-05
7.18312e-05
7.15639e-05
7.159e-05
7.18167e-05
7.15729e-05
7.15412e-05
6.85284e-05
7.18026e-05
7.15853e-05
7.15527e-05
7.16532e-05
7.33989e-05
7.97397e-05
7.97354e-05
7.16681e-05
7.16548e-05
7.97227e-05
7.33953e-05
7.16398e-05
7.97268e-05
7.1817e-05
6.85318e-05
7.16e-05
7.15667e-05
7.15877e-05
7.15555e-05
7.18311e-05
7.17916e-05
7.1545e-05
7.15691e-05
6.85027e-05
7.15359e-05
7.15595e-05
7.18034e-05
7.16302e-05
7.3369e-05
7.97152e-05
7.97234e-05
7.16156e-05
7.16292e-05
7.97365e-05
7.33743e-05
7.97284e-05
7.16437e-05
7.17882e-05
6.84968e-05
7.15211e-05
7.15444e-05
7.15305e-05
7.15546e-05
7.17778e-05
7.17891e-05
7.15701e-05
7.15408e-05
6.84999e-05
7.15575e-05
7.15286e-05
7.1803e-05
7.16288e-05
7.33668e-05
7.96965e-05
7.97051e-05
7.16143e-05
7.16278e-05
7.97182e-05
7.33704e-05
7.97097e-05
7.16423e-05
7.17884e-05
6.84958e-05
7.15428e-05
7.1514e-05
7.15552e-05
7.15262e-05
7.17743e-05
7.18183e-05
7.15505e-05
7.15744e-05
6.85284e-05
7.18054e-05
7.15595e-05
7.15841e-05
7.1656e-05
7.3404e-05
7.97621e-05
7.97541e-05
7.16704e-05
7.16571e-05
7.97415e-05
7.33988e-05
7.16426e-05
7.97494e-05
7.18192e-05
6.85341e-05
7.15736e-05
7.15989e-05
7.15646e-05
7.15893e-05
7.18331e-05
7.18175e-05
7.15726e-05
7.15433e-05
6.85275e-05
7.18037e-05
7.15851e-05
7.15552e-05
7.16547e-05
7.34e-05
7.97437e-05
7.97356e-05
7.16691e-05
7.16558e-05
7.97227e-05
7.33965e-05
7.16413e-05
7.9731e-05
7.18181e-05
6.85314e-05
7.15997e-05
7.15694e-05
7.15874e-05
7.15576e-05
7.18319e-05
9.49291e-05
7.34461e-05
7.34527e-05
7.34324e-05
7.3439e-05
9.49316e-05
7.41204e-05
6.51252e-05
6.98693e-05
7.3198e-05
7.32073e-05
6.51367e-05
7.41161e-05
7.40759e-05
6.51203e-05
6.9867e-05
7.31905e-05
6.51345e-05
7.31999e-05
7.40716e-05
7.41333e-05
7.32218e-05
6.98804e-05
6.51598e-05
7.32125e-05
6.51486e-05
7.41375e-05
7.40888e-05
7.32143e-05
6.98772e-05
6.51577e-05
6.51437e-05
7.3205e-05
7.40929e-05
9.49169e-05
7.34196e-05
7.34262e-05
7.34333e-05
7.344e-05
9.49143e-05
7.1126e-05
7.11278e-05
7.11548e-05
7.11533e-05
9.4946e-05
7.34451e-05
7.34518e-05
9.49436e-05
7.34588e-05
7.34654e-05
7.41664e-05
6.5204e-05
6.9908e-05
7.32503e-05
6.51936e-05
7.32413e-05
7.41704e-05
7.4122e-05
6.52019e-05
6.99049e-05
7.32429e-05
7.32339e-05
6.51887e-05
7.41258e-05
7.4154e-05
7.32271e-05
6.51713e-05
6.98975e-05
6.51821e-05
7.415e-05
7.32364e-05
7.41095e-05
7.32196e-05
6.51664e-05
6.98951e-05
7.41056e-05
7.32289e-05
6.518e-05
9.4958e-05
7.34714e-05
7.3478e-05
7.34577e-05
7.34644e-05
9.49602e-05
7.11554e-05
7.11537e-05
7.1791e-05
7.15376e-05
7.15685e-05
6.85e-05
7.15286e-05
7.15591e-05
7.18004e-05
7.16297e-05
7.33669e-05
7.96974e-05
7.97057e-05
7.16151e-05
7.16287e-05
7.97188e-05
7.33723e-05
7.97106e-05
7.16432e-05
7.1786e-05
6.8494e-05
7.15137e-05
7.15442e-05
7.1523e-05
7.15537e-05
7.17763e-05
7.17892e-05
7.15427e-05
7.15707e-05
6.85016e-05
7.15314e-05
7.1558e-05
7.18033e-05
7.16293e-05
7.33699e-05
7.97144e-05
7.97176e-05
7.16142e-05
7.16278e-05
7.97308e-05
7.33753e-05
7.97276e-05
7.16428e-05
7.17888e-05
6.84974e-05
7.15167e-05
7.15434e-05
7.1528e-05
7.15558e-05
7.17744e-05
7.18149e-05
7.15431e-05
7.1574e-05
6.85256e-05
7.18054e-05
7.15521e-05
7.15836e-05
7.16555e-05
7.34019e-05
7.97443e-05
7.97363e-05
7.16699e-05
7.16566e-05
7.97236e-05
7.33969e-05
7.16421e-05
7.97317e-05
7.182e-05
6.85314e-05
7.15661e-05
7.15982e-05
7.15574e-05
7.15889e-05
7.18306e-05
7.18179e-05
7.15461e-05
7.15731e-05
6.85283e-05
7.18039e-05
7.15571e-05
7.15856e-05
7.16546e-05
7.34051e-05
7.97565e-05
7.97534e-05
7.16696e-05
7.16562e-05
7.97406e-05
7.33998e-05
7.16413e-05
7.97438e-05
7.18183e-05
6.85336e-05
7.15712e-05
7.16006e-05
7.15604e-05
7.1588e-05
7.18322e-05
7.11254e-05
7.11271e-05
7.11281e-05
7.11299e-05
9.49442e-05
7.34516e-05
7.34453e-05
9.49415e-05
7.34652e-05
7.34589e-05
7.41198e-05
6.51998e-05
6.99041e-05
7.32422e-05
7.41237e-05
6.51871e-05
7.32331e-05
7.41673e-05
6.52093e-05
6.99149e-05
7.32539e-05
7.41722e-05
6.51958e-05
7.32418e-05
7.41074e-05
7.32188e-05
6.51649e-05
6.9894e-05
7.41034e-05
6.5178e-05
7.32282e-05
7.41562e-05
7.32278e-05
6.51736e-05
6.99059e-05
7.41509e-05
6.51875e-05
7.32397e-05
9.49558e-05
7.34778e-05
7.34715e-05
9.49583e-05
7.34642e-05
7.34579e-05
7.11547e-05
7.1153e-05
7.11574e-05
7.11558e-05
7.16823e-05
7.97481e-05
7.3426e-05
7.1668e-05
7.97561e-05
7.18463e-05
6.85577e-05
7.16022e-05
7.15713e-05
7.18323e-05
7.16141e-05
7.15831e-05
7.34287e-05
7.11802e-05
7.1183e-05
3.12668e-05
3.12657e-05
3.84906e-05
3.13972e-05
3.13961e-05
2.22592e-05
2.21078e-05
6.58131e-05
5.93046e-05
5.93081e-05
5.32844e-05
5.93048e-05
5.93072e-05
6.58079e-05
6.59092e-05
5.94467e-05
5.9446e-05
5.34768e-05
6.59046e-05
5.9442e-05
5.94424e-05
6.58133e-05
5.93018e-05
5.93031e-05
5.32902e-05
5.93045e-05
5.93062e-05
6.58073e-05
6.58812e-05
5.34469e-05
5.94103e-05
5.94116e-05
5.94107e-05
5.94117e-05
6.58868e-05
6.58136e-05
5.93052e-05
5.93069e-05
5.32847e-05
5.93067e-05
5.93046e-05
6.58083e-05
6.58817e-05
5.34489e-05
5.94103e-05
5.94114e-05
5.94108e-05
5.94119e-05
6.58868e-05
6.58132e-05
5.93053e-05
5.93066e-05
5.32845e-05
5.93062e-05
5.93049e-05
6.58077e-05
6.58812e-05
5.34485e-05
5.9409e-05
5.94122e-05
5.94094e-05
5.94123e-05
6.58862e-05
6.58814e-05
5.34486e-05
5.94091e-05
5.94124e-05
6.58864e-05
5.94101e-05
5.94122e-05
3.12672e-05
3.1266e-05
3.84913e-05
3.13975e-05
3.13964e-05
2.22591e-05
2.21077e-05
3.12708e-05
3.12698e-05
3.84943e-05
3.14012e-05
3.14001e-05
2.2263e-05
2.21116e-05
3.1271e-05
3.12695e-05
3.84946e-05
3.14014e-05
3.13999e-05
2.22628e-05
2.21114e-05
3.85963e-05
3.16535e-05
3.16525e-05
3.15266e-05
3.15255e-05
2.24103e-05
2.256e-05
3.85971e-05
3.16539e-05
3.16527e-05
3.1527e-05
3.15258e-05
2.24102e-05
2.25599e-05
3.86e-05
3.16575e-05
3.16564e-05
3.15306e-05
3.15295e-05
2.24141e-05
2.25637e-05
3.86003e-05
3.16577e-05
3.16562e-05
3.15307e-05
3.15293e-05
2.24138e-05
2.25636e-05
5.61416e-05
6.22287e-05
5.48519e-05
6.05046e-05
6.22094e-05
5.48473e-05
5.61363e-05
5.7216e-05
6.02251e-05
6.47049e-05
6.40868e-05
6.02342e-05
6.41007e-05
5.72124e-05
5.72489e-05
6.41229e-05
6.47116e-05
6.02644e-05
6.02559e-05
6.41091e-05
5.72521e-05
5.60943e-05
6.04963e-05
6.21838e-05
5.48009e-05
6.2203e-05
5.48058e-05
5.60995e-05
5.61387e-05
5.48497e-05
6.22221e-05
6.05025e-05
5.48453e-05
6.22057e-05
5.61324e-05
5.7207e-05
6.02277e-05
6.47052e-05
6.40809e-05
6.0229e-05
6.40937e-05
5.72106e-05
5.725e-05
6.41159e-05
6.47117e-05
6.02596e-05
6.02583e-05
6.41036e-05
5.72434e-05
5.60906e-05
6.04937e-05
5.47991e-05
6.21787e-05
5.48039e-05
6.21975e-05
5.60964e-05
6.5833e-05
5.33501e-05
5.93408e-05
5.93415e-05
5.93408e-05
5.9342e-05
6.58382e-05
6.58327e-05
5.3341e-05
5.93399e-05
5.93423e-05
6.58385e-05
5.934e-05
5.93417e-05
6.5863e-05
5.33843e-05
5.93759e-05
5.93758e-05
6.58573e-05
5.93758e-05
5.93761e-05
5.61329e-05
6.22216e-05
5.48482e-05
6.0501e-05
6.22022e-05
5.48436e-05
5.61295e-05
5.72098e-05
6.02219e-05
6.47029e-05
6.4078e-05
6.40918e-05
6.0231e-05
5.7206e-05
5.72426e-05
6.41141e-05
6.47093e-05
6.02612e-05
6.41003e-05
6.02526e-05
5.7246e-05
5.60867e-05
6.04926e-05
6.21765e-05
5.47973e-05
6.21959e-05
5.48022e-05
5.60897e-05
5.61387e-05
6.2227e-05
5.48492e-05
6.05025e-05
6.22075e-05
5.48447e-05
5.61333e-05
5.72123e-05
6.02277e-05
6.47069e-05
6.40854e-05
6.40998e-05
6.02289e-05
5.72088e-05
5.72451e-05
6.41218e-05
6.47135e-05
6.02591e-05
6.4108e-05
5.72473e-05
6.0258e-05
5.60913e-05
6.04941e-05
6.21818e-05
5.47985e-05
6.22012e-05
5.48034e-05
5.60965e-05
5.61702e-05
6.22279e-05
5.48868e-05
6.05484e-05
5.61747e-05
6.22468e-05
5.48909e-05
5.73142e-05
6.03195e-05
6.47455e-05
6.41574e-05
6.03111e-05
6.4144e-05
5.73173e-05
5.72821e-05
6.41226e-05
6.02821e-05
6.47397e-05
6.029e-05
5.72791e-05
6.4136e-05
5.62148e-05
6.05563e-05
6.22715e-05
5.49338e-05
6.22528e-05
5.49301e-05
5.621e-05
5.61735e-05
6.22333e-05
5.48879e-05
6.05499e-05
5.61797e-05
6.22522e-05
5.48921e-05
5.73228e-05
6.03189e-05
6.47499e-05
6.41642e-05
6.41526e-05
6.03177e-05
5.73138e-05
5.72794e-05
6.41305e-05
6.02878e-05
6.47435e-05
5.72821e-05
6.41429e-05
6.02887e-05
5.62197e-05
6.05578e-05
6.22769e-05
5.4935e-05
6.22582e-05
5.49312e-05
5.6213e-05
6.58334e-05
5.33503e-05
5.93399e-05
5.93428e-05
5.93427e-05
5.9341e-05
6.58387e-05
6.58631e-05
5.33841e-05
5.93765e-05
5.93772e-05
5.93759e-05
6.58579e-05
5.93778e-05
5.61395e-05
6.22255e-05
5.485e-05
6.0504e-05
6.22093e-05
5.48457e-05
5.61332e-05
5.7208e-05
6.02286e-05
6.4707e-05
6.40857e-05
6.40987e-05
6.02298e-05
5.72088e-05
5.72496e-05
6.41209e-05
6.47138e-05
6.02603e-05
6.41086e-05
6.02592e-05
5.72438e-05
5.60913e-05
6.04955e-05
6.21821e-05
5.47997e-05
6.2201e-05
5.48043e-05
5.60971e-05
5.61357e-05
5.48489e-05
6.22216e-05
6.05018e-05
5.48443e-05
6.22021e-05
5.61305e-05
5.72084e-05
6.02211e-05
6.47015e-05
6.40763e-05
6.40903e-05
6.02301e-05
5.72047e-05
5.72414e-05
6.41127e-05
6.47085e-05
6.02603e-05
6.40986e-05
5.72447e-05
6.02519e-05
5.60884e-05
6.04936e-05
5.47982e-05
6.21764e-05
5.4803e-05
6.21958e-05
5.60935e-05
5.6173e-05
6.22354e-05
5.48882e-05
6.05494e-05
5.61805e-05
6.22498e-05
5.48908e-05
5.7325e-05
6.03201e-05
6.47502e-05
6.41639e-05
6.03189e-05
6.41527e-05
5.73143e-05
5.72784e-05
6.41306e-05
6.02889e-05
6.47437e-05
6.02899e-05
5.72879e-05
6.41428e-05
5.62209e-05
6.05602e-05
6.22741e-05
5.49284e-05
6.22602e-05
5.49337e-05
5.62124e-05
5.6171e-05
5.48874e-05
6.22279e-05
6.05494e-05
5.61766e-05
5.48914e-05
6.22469e-05
5.73131e-05
6.03173e-05
6.47449e-05
6.4156e-05
6.41422e-05
6.03122e-05
5.73161e-05
5.72809e-05
6.41209e-05
6.02814e-05
6.47382e-05
5.72779e-05
6.41346e-05
6.02891e-05
5.62163e-05
6.05571e-05
5.49325e-05
6.22713e-05
5.49301e-05
6.22528e-05
5.62104e-05
5.61349e-05
5.48505e-05
6.22238e-05
6.0503e-05
5.48459e-05
6.22044e-05
5.6132e-05
5.72115e-05
6.02227e-05
6.47037e-05
6.4079e-05
6.02318e-05
6.40936e-05
5.72078e-05
5.72444e-05
6.4116e-05
6.47099e-05
6.0262e-05
6.02535e-05
6.41016e-05
5.72477e-05
5.6089e-05
6.04947e-05
5.47998e-05
6.21788e-05
5.48048e-05
6.21981e-05
5.60911e-05
5.61767e-05
6.22351e-05
5.48905e-05
6.0552e-05
5.61823e-05
6.22538e-05
5.48947e-05
5.73203e-05
6.03225e-05
6.47479e-05
6.41662e-05
5.73233e-05
6.03144e-05
6.41528e-05
5.72882e-05
6.41314e-05
6.02853e-05
6.47416e-05
5.72853e-05
6.02932e-05
6.41448e-05
5.6222e-05
6.05598e-05
6.22784e-05
5.49376e-05
5.62162e-05
6.226e-05
5.49338e-05
5.61725e-05
5.4889e-05
6.22301e-05
6.05504e-05
5.61765e-05
5.48933e-05
6.22489e-05
5.73158e-05
6.03202e-05
6.47461e-05
6.4159e-05
6.41455e-05
6.03119e-05
5.73189e-05
5.72837e-05
6.41237e-05
6.02829e-05
6.47402e-05
5.72807e-05
6.41376e-05
6.02907e-05
5.62168e-05
6.05581e-05
5.49361e-05
6.22736e-05
5.49322e-05
6.2255e-05
5.62123e-05
6.58328e-05
5.335e-05
5.93394e-05
5.93416e-05
5.93423e-05
5.93394e-05
6.58382e-05
6.58624e-05
5.33838e-05
5.93739e-05
5.93778e-05
5.93737e-05
6.58574e-05
5.93774e-05
5.61394e-05
5.48499e-05
6.2226e-05
6.05032e-05
5.48458e-05
6.22069e-05
5.61341e-05
5.72138e-05
6.02266e-05
6.47088e-05
6.40848e-05
6.02356e-05
6.40984e-05
5.72101e-05
5.72468e-05
6.41208e-05
6.4715e-05
6.02659e-05
6.02574e-05
6.41073e-05
5.725e-05
5.60922e-05
6.04951e-05
5.47999e-05
6.21811e-05
5.48047e-05
6.22002e-05
5.60972e-05
5.61722e-05
5.48879e-05
6.22318e-05
6.05477e-05
5.61797e-05
5.48904e-05
6.22463e-05
5.73249e-05
6.03177e-05
6.4748e-05
6.41589e-05
5.7314e-05
6.03177e-05
6.41474e-05
5.72781e-05
6.41256e-05
6.02879e-05
6.47418e-05
5.72883e-05
6.02891e-05
6.41378e-05
5.622e-05
6.05586e-05
5.49279e-05
6.22706e-05
5.62115e-05
5.49338e-05
6.22567e-05
5.61743e-05
5.48883e-05
6.22326e-05
6.05492e-05
5.61804e-05
5.48891e-05
6.22511e-05
5.73184e-05
6.03229e-05
6.47513e-05
6.41639e-05
6.41513e-05
6.03177e-05
5.73214e-05
5.72862e-05
6.41296e-05
6.02868e-05
6.47454e-05
5.72833e-05
6.41426e-05
6.02945e-05
5.62203e-05
6.05596e-05
5.49287e-05
6.22757e-05
5.49359e-05
6.22575e-05
5.62137e-05
6.58626e-05
5.33845e-05
5.93756e-05
5.93779e-05
6.58576e-05
5.93761e-05
5.93775e-05
5.73534e-05
6.03403e-05
6.41665e-05
6.47751e-05
6.03481e-05
5.73507e-05
6.41795e-05
5.62515e-05
6.06032e-05
5.49749e-05
6.22789e-05
5.49783e-05
5.62562e-05
6.22975e-05
6.03438e-05
6.47803e-05
6.03516e-05
2.10347e-05
3.66858e-05
3.66886e-05
4.19405e-05
2.17931e-05
3.75918e-05
3.75943e-05
4.26643e-05
2.25698e-05
3.84719e-05
3.84743e-05
4.33568e-05
2.33609e-05
3.93249e-05
3.93274e-05
4.40351e-05
2.41627e-05
4.01502e-05
4.01526e-05
4.46794e-05
2.49712e-05
4.09471e-05
4.09494e-05
4.53105e-05
2.57826e-05
4.17152e-05
4.17176e-05
4.59099e-05
2.65935e-05
4.24545e-05
4.24566e-05
4.64889e-05
2.74003e-05
4.31647e-05
4.3167e-05
4.70493e-05
2.82001e-05
4.38463e-05
4.38486e-05
4.75767e-05
2.89899e-05
4.44995e-05
4.45017e-05
4.80872e-05
2.97672e-05
4.51243e-05
4.51264e-05
4.85766e-05
3.05294e-05
4.57212e-05
4.57232e-05
4.90445e-05
3.12745e-05
4.62906e-05
4.62925e-05
4.94888e-05
3.20005e-05
4.68328e-05
4.68345e-05
4.99153e-05
3.27059e-05
4.73481e-05
4.73497e-05
5.03185e-05
3.33891e-05
4.78369e-05
4.78384e-05
5.07025e-05
3.40488e-05
4.82995e-05
4.8301e-05
5.10665e-05
3.4684e-05
4.87364e-05
4.87377e-05
5.14145e-05
3.52937e-05
4.9148e-05
4.91491e-05
5.17394e-05
3.58771e-05
4.95347e-05
4.95356e-05
5.20446e-05
3.64337e-05
4.98968e-05
4.98976e-05
5.23317e-05
3.6963e-05
5.02348e-05
5.02356e-05