/*--------------------------------*- C++ -*----------------------------------*\
| =========                 |                                                 |
| \\      /  F ield         | OpenFOAM: The Open Source CFD Toolbox           |
|  \\    /   O peration     | Version:  v1906                                 |
|   \\  /    A nd           | Web:      www.OpenFOAM.com                      |
|    \\/     M anipulation  |                                                 |
\*---------------------------------------------------------------------------*/
FoamFile
{
    version     2.0;
    format      ascii;
    class       volScalarField;
    location    "650";
    object      nut;
}
// * * * * * * * * * * * * * * * * * * * * * * * * * * * * * * * * * * * * * //

dimensions      [0 2 -1 0 0 0 0];


internalField   nonuniform List<scalar> 
171728
(
0.000136841
0.000138619
0.00013862
0.000136689
0.000138637
0.000138618
0.000138629
0.00013864
0.000136842
0.000138633
0.000138647
0.000136799
0.000122368
0.00012236
0.000122368
0.000122383
2.36122e-05
2.36117e-05
7.37331e-05
7.37397e-05
9.1827e-05
5.00155e-05
9.20493e-05
9.18327e-05
5.00189e-05
5.0007e-05
9.20537e-05
0.000120668
9.38115e-05
0.000133969
0.000133108
0.000121317
0.000120672
0.000137832
9.38314e-05
0.000133973
9.35213e-05
0.00013311
0.000121322
2.3612e-05
2.36076e-05
0.000135994
7.37366e-05
7.37248e-05
7.3627e-05
7.36287e-05
2.36127e-05
2.36082e-05
5.00143e-05
9.20587e-05
9.38201e-05
0.000133984
0.000121328
5.00088e-05
9.20533e-05
0.000133987
9.37976e-05
0.000121325
0.000120675
0.000137842
9.38124e-05
0.000133974
9.35411e-05
0.000133112
0.000121328
9.1826e-05
5.00186e-05
5.00033e-05
9.20635e-05
0.000120673
0.000137852
0.00013399
9.38294e-05
0.000133127
9.35239e-05
0.000121328
9.18227e-05
5.00153e-05
4.99999e-05
9.20623e-05
2.361e-05
7.37154e-05
7.37337e-05
2.36118e-05
0.000120681
0.000133997
9.38187e-05
0.000133135
0.000121328
0.000120676
0.00013786
0.000134007
9.38234e-05
0.000133145
9.35214e-05
0.000121324
9.18264e-05
5.00118e-05
9.20696e-05
9.1825e-05
5.00157e-05
5.00004e-05
9.20692e-05
0.000136
7.37302e-05
7.3737e-05
7.36348e-05
7.36283e-05
2.36116e-05
2.36072e-05
2.36113e-05
2.36068e-05
2.36104e-05
2.36094e-05
9.72571e-05
0.000112669
7.37004e-05
4.79387e-05
4.79319e-05
0.000112501
9.73158e-05
9.72862e-05
0.000112656
7.36927e-05
4.79375e-05
4.79241e-05
0.000112504
9.736e-05
7.8819e-05
2.14921e-05
2.14902e-05
2.14904e-05
2.14878e-05
7.88427e-05
3.62668e-05
4.05366e-05
8.80232e-05
9.19278e-05
3.62651e-05
4.05356e-05
8.81076e-05
2.01019e-05
5.00128e-05
7.60343e-05
7.59924e-05
2.0104e-05
3.62689e-05
9.19533e-05
4.05391e-05
8.82053e-05
4.05405e-05
8.81232e-05
3.62705e-05
3.62687e-05
4.05368e-05
8.80426e-05
9.19298e-05
3.62672e-05
4.05357e-05
8.81202e-05
2.01031e-05
5.00115e-05
7.60593e-05
7.6018e-05
2.01051e-05
2.01037e-05
7.59713e-05
5.001e-05
2.01017e-05
7.60129e-05
3.62702e-05
9.1956e-05
4.05394e-05
8.82249e-05
4.05406e-05
8.81356e-05
3.62725e-05
2.36099e-05
2.36097e-05
7.8796e-05
2.14865e-05
2.1489e-05
7.87779e-05
2.14885e-05
2.1491e-05
9.72765e-05
0.000112658
7.36952e-05
4.79329e-05
0.000112491
4.79264e-05
9.73262e-05
9.72596e-05
0.000112667
7.36959e-05
4.79381e-05
4.79368e-05
0.000112507
9.73147e-05
9.71998e-05
4.79207e-05
0.000112242
7.36684e-05
0.000112414
9.71498e-05
4.79234e-05
9.71909e-05
4.79286e-05
0.000112258
7.36569e-05
9.71334e-05
4.79307e-05
0.000112424
7.88205e-05
2.14902e-05
2.14927e-05
2.14881e-05
2.14906e-05
7.88433e-05
2.36105e-05
2.36103e-05
2.01033e-05
5.0011e-05
7.60575e-05
7.60166e-05
2.01053e-05
3.62706e-05
9.19587e-05
8.8216e-05
4.05391e-05
8.81403e-05
4.05405e-05
3.62716e-05
2.01016e-05
5.00072e-05
7.6031e-05
7.59886e-05
2.01036e-05
3.62678e-05
9.19565e-05
4.05389e-05
8.82033e-05
4.05403e-05
8.81226e-05
3.62693e-05
3.62708e-05
8.80336e-05
4.05321e-05
9.19407e-05
3.62661e-05
8.81283e-05
4.05393e-05
2.01037e-05
5.00103e-05
7.60618e-05
7.60177e-05
2.01058e-05
2.01043e-05
7.59711e-05
5.00109e-05
2.01023e-05
7.60151e-05
3.62688e-05
9.19504e-05
8.82288e-05
4.05437e-05
8.81347e-05
4.05361e-05
3.62752e-05
3.62684e-05
4.0532e-05
8.80266e-05
9.19423e-05
3.62639e-05
4.05392e-05
8.81183e-05
2.01025e-05
5.00069e-05
7.60404e-05
7.59993e-05
2.01045e-05
2.01031e-05
7.59526e-05
5.00076e-05
2.01011e-05
7.59935e-05
3.62672e-05
9.19452e-05
4.05436e-05
8.82205e-05
4.0536e-05
8.81267e-05
3.62719e-05
2.36079e-05
9.72706e-05
0.000112635
7.36861e-05
4.79274e-05
0.000112492
4.79263e-05
9.73196e-05
9.72607e-05
0.000112666
7.36989e-05
4.79434e-05
4.79334e-05
0.000112504
9.73119e-05
7.88216e-05
2.14891e-05
2.14925e-05
2.1487e-05
2.14904e-05
7.88389e-05
2.36097e-05
3.62687e-05
8.80249e-05
4.05321e-05
9.19435e-05
3.62642e-05
8.81205e-05
4.05392e-05
2.01027e-05
5.00097e-05
7.60395e-05
7.59983e-05
2.01047e-05
2.01033e-05
7.59931e-05
3.62673e-05
9.19514e-05
8.82154e-05
4.05436e-05
8.81258e-05
4.05361e-05
3.62724e-05
3.627e-05
8.80315e-05
4.05322e-05
9.19456e-05
3.62661e-05
8.8123e-05
4.05393e-05
2.01033e-05
5.00073e-05
7.60541e-05
7.60095e-05
2.01054e-05
2.0104e-05
7.59637e-05
5.00081e-05
2.01019e-05
7.60082e-05
3.62694e-05
9.19504e-05
8.82195e-05
4.05437e-05
8.81301e-05
4.05362e-05
3.62734e-05
7.87974e-05
2.1489e-05
2.14861e-05
7.87795e-05
2.14911e-05
2.14882e-05
9.72619e-05
0.000112677
7.37033e-05
4.79386e-05
0.000112509
4.79373e-05
9.73118e-05
9.72789e-05
0.000112668
7.36965e-05
4.79341e-05
0.000112493
4.79242e-05
9.73289e-05
9.71854e-05
4.79291e-05
0.000112265
7.36627e-05
9.71354e-05
0.000112422
4.79313e-05
9.72029e-05
4.79166e-05
0.000112247
7.36683e-05
9.71523e-05
0.000112424
4.79256e-05
7.88221e-05
2.14927e-05
2.14899e-05
2.14907e-05
2.14878e-05
7.88449e-05
2.36095e-05
2.36093e-05
2.36091e-05
2.36089e-05
0.000119488
0.000136557
0.000129876
0.000129917
0.00012965
0.000129654
0.000119625
0.000119489
0.00013664
0.000129854
0.000129856
0.000129678
0.000129673
0.000119615
0.000119492
0.000136548
0.000129891
0.00012987
0.000129622
0.000129638
0.000119597
0.000119493
0.00013661
0.000129902
0.000129897
0.000129685
0.0001297
0.000119622
0.000120247
0.000120255
0.000119979
0.000132085
0.000131845
0.0001217
0.000120245
0.00012025
0.000119977
0.000119983
0.000132085
0.000131845
0.000120253
0.000120261
0.000119993
0.000132082
0.000131842
0.000121723
0.000120257
0.000120267
0.000119989
0.000119999
0.000132085
0.000131844
0.00013234
0.000117025
0.000134059
0.00012098
0.000132183
0.000117295
0.000134421
0.000128473
0.000122147
9.36874e-05
0.000107726
0.000121968
0.000107532
0.000128689
0.00013272
0.000121019
0.000117587
0.00013487
0.000117333
0.000134645
0.000132705
0.000132419
0.000117036
0.000134055
0.000120985
0.000132192
0.000117308
0.000134435
0.000128411
0.000122149
9.36757e-05
0.000107737
0.000107545
0.000121986
0.000128791
0.000128281
0.000107313
0.000121609
9.36775e-05
0.000128029
0.000107508
0.000121799
0.000132744
0.000121021
0.000117611
0.000134888
0.000117337
0.000134639
0.00013294
0.000119346
0.000136082
0.000129226
0.000129229
0.000129392
0.000119217
0.000129397
0.00012839
0.000122193
9.36885e-05
0.000107746
0.000121956
0.000107544
0.000128787
0.000132682
0.000121025
0.000117602
0.000135036
0.000117343
0.000134575
0.00013297
0.000128496
0.000122132
9.36792e-05
0.000107719
0.000107531
0.000121977
0.000128673
0.000132763
0.000121021
0.000135027
0.000117595
0.000134605
0.000117333
0.000132907
0.000132486
0.000117037
0.000134046
0.000120989
0.000132017
0.000117309
0.000134436
0.000128374
0.000122145
9.36918e-05
0.000107738
0.000122012
0.00010754
0.000128769
0.000128294
0.000107305
0.000121641
9.36592e-05
0.000127937
0.000121774
0.000107518
0.000132603
0.000121025
0.000117614
0.000134885
0.000117338
0.000134636
0.000132974
0.000132441
0.000134068
0.000117036
0.000120989
0.000132169
0.000134426
0.000117307
0.000128375
0.000122195
9.36783e-05
0.000107744
0.000107539
0.000121976
0.000128777
0.000128297
0.000107309
0.000121614
9.36755e-05
0.000127938
0.000107505
0.000121816
0.000132709
0.000121022
0.000134881
0.00011761
0.000134654
0.000117334
0.000132959
0.000132239
0.000134221
0.000117035
0.000120984
0.000132261
0.000134253
0.000117298
0.000128524
0.00012216
9.36893e-05
0.000107744
0.000121984
0.000107538
0.000128683
0.000128135
0.000107502
0.000132731
0.000121019
0.000134933
0.000117598
0.000134742
0.000117336
0.000132899
0.00013234
0.000134116
0.000117036
0.000120988
0.000132224
0.000134347
0.000117309
0.000128467
0.00012214
9.36791e-05
0.000107733
0.00010754
0.000121999
0.000128696
0.000128207
0.000107304
0.000121639
9.3674e-05
0.000128031
0.000107514
0.000121773
0.000132735
0.000121027
0.000134772
0.00011761
0.000134721
0.000117339
0.00013289
0.000119348
0.000136064
0.000129255
0.000129262
0.000119223
0.000129393
0.000129394
0.000203424
0.000198749
0.000198742
0.000180671
0.000181639
0.000180594
0.000181465
0.000198717
0.000198717
0.000199775
0.000199775
0.000180684
0.000181475
0.000198732
0.000198708
0.00019979
0.000199765
0.000198725
0.000199807
0.000199783
0.000180673
0.000181464
0.000198739
0.0001998
0.000199797
0.000181473
0.000200127
0.000200141
9.97168e-05
5.07152e-05
5.07219e-05
9.96484e-05
2.38792e-05
2.38836e-05
9.97221e-05
5.07123e-05
5.07187e-05
9.9659e-05
0.00020343
0.000203431
0.000203438
0.000205315
0.000205321
0.000205322
0.000205328
0.000143715
0.000103352
0.000207734
0.000199106
0.000103438
0.000208202
0.000143504
2.3877e-05
2.38814e-05
0.000143703
0.000207732
0.000103353
0.000199098
0.000208199
0.000103438
0.000143493
7.78121e-05
7.78107e-05
0.000180989
7.78375e-05
7.78379e-05
7.78754e-05
7.78726e-05
2.38798e-05
2.38842e-05
2.38786e-05
2.38829e-05
7.78132e-05
7.78108e-05
0.000181012
7.78413e-05
7.7836e-05
2.38888e-05
2.38845e-05
2.38875e-05
2.38832e-05
0.000181129
7.7872e-05
7.78677e-05
7.78457e-05
7.78431e-05
9.97203e-05
5.0716e-05
5.07238e-05
9.96517e-05
0.000143707
0.000103352
0.000207719
0.000199074
0.000103437
0.000208186
0.000143492
0.00014371
0.00010335
0.000207721
0.000199074
0.000103435
0.000208188
0.000143495
9.97108e-05
5.07321e-05
5.07255e-05
9.97766e-05
9.9714e-05
5.07347e-05
5.07236e-05
9.97802e-05
0.000143709
0.000199428
0.000103515
0.000209105
0.000103434
0.00020865
0.000143914
0.000143712
0.000199428
0.000103513
0.000209107
0.000103432
0.000208653
0.000143917
7.78097e-05
7.78077e-05
0.000181
7.7838e-05
7.78335e-05
2.38798e-05
2.38841e-05
2.38882e-05
2.38838e-05
0.000181158
7.78687e-05
7.78645e-05
7.78421e-05
7.78401e-05
2.38887e-05
2.38844e-05
0.000143706
0.000103344
0.000207724
0.000199089
0.000103429
0.000208187
0.000143498
9.9722e-05
5.07057e-05
5.07169e-05
9.96538e-05
0.000143707
0.000207719
0.000103331
0.000199065
0.000208185
0.000103417
0.000143492
9.97232e-05
5.07289e-05
5.07226e-05
9.97813e-05
0.000143721
0.000199443
0.000103507
0.000209105
0.000103426
0.000208655
0.000143906
9.97161e-05
5.07272e-05
5.07162e-05
9.97816e-05
0.000143709
0.000199419
0.000209104
0.000103495
0.00020865
0.000103414
0.000143913
9.97191e-05
5.07152e-05
5.07215e-05
9.96561e-05
0.000143713
0.000207731
0.00010335
0.000199082
0.000208198
0.000103436
0.000143499
9.97193e-05
5.0709e-05
5.07202e-05
9.96507e-05
0.00014372
0.00019946
0.000103516
0.00020912
0.000103434
0.000208666
0.000143922
9.97186e-05
5.07323e-05
5.07253e-05
9.97786e-05
0.000143715
0.000199436
0.000209117
0.000103514
0.000208661
0.000103432
0.00014392
9.9713e-05
5.07304e-05
5.07195e-05
9.9779e-05
7.7796e-05
7.78139e-05
0.000180989
7.78216e-05
7.78391e-05
2.3879e-05
2.38833e-05
2.3886e-05
2.38817e-05
0.000181146
7.78526e-05
7.78702e-05
7.78284e-05
7.78464e-05
2.38879e-05
2.38837e-05
0.00014371
0.000207731
0.000103348
0.000199096
0.000208198
0.000103435
0.000143496
9.97138e-05
5.07114e-05
5.07179e-05
9.96509e-05
9.97222e-05
5.07117e-05
5.07182e-05
9.96557e-05
0.000143718
0.000199453
0.000209117
0.000103516
0.000208663
0.000103435
0.000143903
0.000143717
0.00019945
0.000209117
0.000103513
0.000208662
0.00010343
0.000143908
9.97132e-05
5.07288e-05
5.07216e-05
9.97731e-05
9.97196e-05
5.07285e-05
5.0722e-05
9.97793e-05
2.38787e-05
2.3883e-05
2.38782e-05
2.38826e-05
0.000181145
7.78686e-05
7.7869e-05
7.78449e-05
7.78425e-05
2.38876e-05
2.38833e-05
2.38872e-05
2.38829e-05
0.00020957
0.00010351
0.000143922
5.07295e-05
9.97721e-05
0.000103509
5.07323e-05
2.38879e-05
2.38875e-05
3.66931e-05
4.10373e-05
9.43536e-05
9.96796e-05
4.10372e-05
9.43201e-05
3.67002e-05
2.03078e-05
5.07168e-05
7.89822e-05
7.8995e-05
2.03056e-05
2.03075e-05
7.90072e-05
5.07203e-05
7.89947e-05
2.03097e-05
3.66964e-05
9.96859e-05
4.10327e-05
9.42957e-05
4.10331e-05
9.43293e-05
3.66892e-05
2.38812e-05
2.38815e-05
3.66989e-05
9.43641e-05
4.1037e-05
9.96925e-05
9.43384e-05
4.10369e-05
3.6698e-05
2.03089e-05
5.07136e-05
7.9001e-05
7.90197e-05
2.03069e-05
2.03088e-05
7.90315e-05
5.07174e-05
7.90133e-05
2.03109e-05
3.66943e-05
9.96932e-05
9.43103e-05
4.10324e-05
9.43426e-05
4.10329e-05
3.66953e-05
2.38791e-05
2.38793e-05
8.14449e-05
2.17029e-05
2.16999e-05
2.17009e-05
2.16979e-05
8.14526e-05
0.000105056
0.000128363
7.78214e-05
4.86295e-05
0.000128424
4.86304e-05
0.000105037
0.000105066
0.000128346
7.78214e-05
4.86166e-05
0.00012841
4.86231e-05
0.000105043
0.000105069
4.86345e-05
7.78289e-05
0.000128498
0.000128437
4.86346e-05
0.000105089
0.000105076
4.86285e-05
7.78265e-05
0.000128483
0.00012842
4.86211e-05
0.000105099
8.14423e-05
2.1699e-05
2.1696e-05
2.1701e-05
2.1698e-05
8.14345e-05
0.000105182
0.000128651
4.8649e-05
7.78831e-05
0.000105163
0.000128707
4.86477e-05
0.000105189
0.000128633
4.86352e-05
7.78846e-05
0.00010517
0.000128692
4.86434e-05
8.14817e-05
2.17064e-05
2.17035e-05
8.14748e-05
2.17084e-05
2.17055e-05
2.38819e-05
2.38822e-05
2.38805e-05
2.38809e-05
8.14447e-05
2.17029e-05
2.16996e-05
2.17008e-05
2.16976e-05
8.14513e-05
0.000105061
0.000128362
7.78249e-05
4.86264e-05
4.86337e-05
0.000128427
0.000105038
0.000105062
0.000128344
7.78196e-05
4.86188e-05
4.86187e-05
0.000128407
0.000105042
0.000105071
4.86385e-05
7.78298e-05
0.0001285
4.86314e-05
0.000105093
0.000128436
0.000105075
4.86235e-05
7.78271e-05
0.000128481
4.86235e-05
0.000105095
0.000128418
8.14409e-05
2.16989e-05
2.16957e-05
2.1701e-05
2.16977e-05
8.14343e-05
2.38868e-05
2.38865e-05
2.38855e-05
2.38852e-05
8.14615e-05
2.17027e-05
2.16995e-05
8.14548e-05
2.17047e-05
2.17015e-05
0.000105134
0.000128641
7.78613e-05
4.86477e-05
4.86405e-05
0.00012858
0.000105156
0.000105138
0.000128622
7.78583e-05
4.86341e-05
4.86327e-05
0.000128562
0.000105157
0.000105126
4.86361e-05
0.000128508
7.78564e-05
0.000105103
4.86429e-05
0.000128571
0.000105126
4.86283e-05
0.00012849
7.78517e-05
0.000105106
4.8629e-05
0.000128552
8.14647e-05
2.17066e-05
2.17033e-05
2.17046e-05
2.17013e-05
8.14713e-05
3.6695e-05
4.10374e-05
9.43686e-05
9.96828e-05
4.10373e-05
9.43344e-05
3.67019e-05
2.03087e-05
5.07173e-05
7.90029e-05
7.90221e-05
2.03066e-05
2.03085e-05
7.90341e-05
5.07189e-05
7.90152e-05
2.03106e-05
3.66981e-05
9.96893e-05
4.10329e-05
9.43104e-05
4.10333e-05
9.43443e-05
3.66911e-05
3.6704e-05
4.10412e-05
9.43448e-05
9.97471e-05
3.66969e-05
4.10419e-05
9.43776e-05
2.03114e-05
5.07308e-05
7.90305e-05
2.03135e-05
7.9018e-05
2.03116e-05
7.90064e-05
5.07273e-05
2.03095e-05
7.90187e-05
3.67004e-05
9.97409e-05
4.10468e-05
9.44011e-05
3.67076e-05
4.10446e-05
9.43687e-05
3.67057e-05
4.10413e-05
9.43593e-05
9.97507e-05
3.66989e-05
4.10421e-05
9.43928e-05
2.03123e-05
5.07288e-05
7.9057e-05
7.9039e-05
2.03144e-05
2.03125e-05
7.90271e-05
5.07293e-05
2.03105e-05
7.90457e-05
3.67023e-05
9.97442e-05
4.10475e-05
9.44166e-05
4.10443e-05
9.43832e-05
3.67093e-05
8.14455e-05
2.17003e-05
2.17029e-05
2.16983e-05
2.17009e-05
8.14515e-05
0.000105065
0.000128346
7.78215e-05
4.86169e-05
4.86243e-05
0.000128406
0.000105045
0.000105061
0.000128371
7.78171e-05
4.86294e-05
0.000128427
4.86292e-05
0.000105042
0.000105078
4.86291e-05
7.78263e-05
0.000128479
4.86219e-05
0.00012842
0.000105097
0.000105074
4.8634e-05
7.78242e-05
0.0001285
0.000128445
4.86341e-05
0.000105094
8.1441e-05
2.16964e-05
2.1699e-05
2.16984e-05
2.1701e-05
8.14351e-05
2.38818e-05
2.38821e-05
2.38861e-05
2.38859e-05
8.14618e-05
2.17001e-05
2.17027e-05
8.14555e-05
2.17022e-05
2.17048e-05
0.00010514
0.00012862
7.78575e-05
4.86386e-05
0.000128563
4.86312e-05
0.000105162
0.000105138
0.000128641
7.78557e-05
4.86438e-05
4.8644e-05
0.000128589
0.000105156
0.00010513
4.86266e-05
0.000128492
7.78532e-05
0.00012855
0.00010511
4.86335e-05
0.000105125
4.8639e-05
0.000128518
7.78493e-05
0.000105106
4.86392e-05
0.000128571
8.14654e-05
2.1704e-05
2.17066e-05
2.1702e-05
2.17046e-05
8.14718e-05
2.38867e-05
2.38864e-05
3.66922e-05
4.10396e-05
9.4351e-05
9.96848e-05
4.10334e-05
9.43173e-05
3.66993e-05
2.03073e-05
5.07117e-05
7.89772e-05
7.89897e-05
2.03051e-05
2.03071e-05
7.90019e-05
5.07111e-05
7.89897e-05
2.03092e-05
3.66955e-05
9.96913e-05
4.10294e-05
9.42928e-05
4.10352e-05
9.43266e-05
3.66882e-05
3.67016e-05
9.43628e-05
4.10409e-05
9.97525e-05
3.67025e-05
9.43876e-05
4.10414e-05
2.03126e-05
5.07279e-05
7.90544e-05
2.03146e-05
7.90371e-05
2.03128e-05
7.90252e-05
5.07242e-05
2.03107e-05
7.90432e-05
3.67064e-05
9.97531e-05
9.44104e-05
4.10454e-05
3.67055e-05
9.43865e-05
4.10452e-05
3.67031e-05
4.10379e-05
9.43421e-05
9.97524e-05
3.6696e-05
4.10439e-05
9.43753e-05
2.03109e-05
5.07212e-05
7.90255e-05
7.90129e-05
2.0313e-05
2.03111e-05
7.90015e-05
5.07218e-05
2.0309e-05
7.90136e-05
3.66995e-05
9.97461e-05
4.10481e-05
9.43983e-05
4.1042e-05
9.43658e-05
3.67067e-05
3.66971e-05
9.43668e-05
4.1037e-05
9.9688e-05
9.43416e-05
4.1037e-05
3.67012e-05
2.03095e-05
5.07165e-05
7.90049e-05
7.90232e-05
2.03074e-05
2.03093e-05
7.90351e-05
5.07203e-05
7.90171e-05
2.03114e-05
3.66963e-05
9.96885e-05
9.43172e-05
4.10323e-05
9.43427e-05
4.10335e-05
3.66951e-05
3.66934e-05
4.10398e-05
9.43601e-05
9.96819e-05
4.10335e-05
9.43261e-05
3.67004e-05
2.03082e-05
5.0715e-05
7.89837e-05
7.90028e-05
2.03062e-05
2.03081e-05
7.90149e-05
5.07144e-05
7.8996e-05
2.03101e-05
3.66966e-05
9.96884e-05
4.10295e-05
9.43021e-05
4.10354e-05
9.43359e-05
3.66895e-05
3.67058e-05
9.43659e-05
4.1041e-05
9.97495e-05
3.66999e-05
9.43912e-05
4.10414e-05
2.03131e-05
5.07304e-05
7.90584e-05
7.90405e-05
2.03152e-05
2.03133e-05
7.90292e-05
5.0727e-05
2.03112e-05
7.9047e-05
3.6703e-05
9.97488e-05
9.44145e-05
4.10454e-05
9.43896e-05
4.10452e-05
3.67098e-05
3.67041e-05
4.1038e-05
9.43509e-05
9.97497e-05
3.66973e-05
4.10441e-05
9.43843e-05
2.03119e-05
5.07245e-05
7.9038e-05
7.90195e-05
2.03139e-05
2.0312e-05
7.90079e-05
5.07251e-05
2.031e-05
7.90265e-05
3.67008e-05
9.97432e-05
4.10483e-05
9.4408e-05
4.10421e-05
9.43747e-05
3.67077e-05
8.14451e-05
2.16992e-05
2.17027e-05
2.16972e-05
2.17007e-05
8.14521e-05
0.000105057
0.000128339
7.78053e-05
4.86183e-05
4.8618e-05
0.000128392
0.000105037
0.000105058
0.000128365
7.7823e-05
4.86303e-05
0.000128428
4.86301e-05
0.000105038
0.00010507
4.86228e-05
7.78125e-05
0.000128465
4.86229e-05
0.000128413
0.00010509
0.000105071
4.86349e-05
7.78305e-05
0.000128502
0.000128439
4.8635e-05
0.00010509
8.14417e-05
2.16953e-05
2.16988e-05
2.16974e-05
2.17008e-05
8.14346e-05
2.3881e-05
2.38813e-05
2.3884e-05
2.38837e-05
8.14621e-05
2.16991e-05
2.17026e-05
8.14553e-05
2.17011e-05
2.17046e-05
0.000105133
0.000128606
7.7844e-05
4.86325e-05
0.000128556
4.86329e-05
0.000105152
0.000105134
0.000128643
7.78619e-05
4.86446e-05
4.86449e-05
0.000128583
0.000105153
0.000105121
4.86279e-05
0.000128485
7.78374e-05
0.000128536
0.000105102
4.8628e-05
0.000105122
4.86399e-05
0.000128511
7.78551e-05
0.000105103
4.86401e-05
0.000128573
8.14653e-05
2.1703e-05
2.17064e-05
2.1701e-05
2.17044e-05
8.14719e-05
2.38859e-05
2.38856e-05
3.66977e-05
9.43508e-05
4.10368e-05
9.96826e-05
9.43251e-05
4.1037e-05
3.66965e-05
2.03084e-05
5.07128e-05
7.8984e-05
7.90024e-05
2.03064e-05
2.03083e-05
7.90143e-05
5.07165e-05
7.89961e-05
2.03103e-05
3.66929e-05
9.96833e-05
9.43002e-05
4.10325e-05
9.4327e-05
4.10327e-05
3.66941e-05
3.66952e-05
9.43608e-05
4.10402e-05
9.96871e-05
9.43276e-05
4.10339e-05
3.67024e-05
2.03089e-05
5.0713e-05
7.89984e-05
7.9009e-05
2.03068e-05
2.03087e-05
7.90212e-05
5.07168e-05
7.90106e-05
2.03108e-05
3.66986e-05
9.96919e-05
9.43031e-05
4.10299e-05
9.43364e-05
4.10359e-05
3.66913e-05
3.67002e-05
9.43493e-05
4.10411e-05
9.97444e-05
3.67013e-05
9.43755e-05
4.10412e-05
2.03121e-05
5.07267e-05
7.90375e-05
7.90195e-05
2.03141e-05
2.03122e-05
7.9008e-05
5.07235e-05
2.03102e-05
7.90261e-05
3.67052e-05
9.97433e-05
9.43983e-05
4.10454e-05
9.43732e-05
4.10455e-05
3.67052e-05
3.67062e-05
9.43524e-05
4.10384e-05
9.97507e-05
3.66991e-05
9.43848e-05
4.10444e-05
2.03125e-05
5.07272e-05
7.90445e-05
7.90342e-05
2.03146e-05
2.03127e-05
7.90226e-05
5.07236e-05
2.03106e-05
7.90331e-05
3.67026e-05
9.97499e-05
9.44082e-05
4.10489e-05
9.43763e-05
4.10427e-05
3.67088e-05
2.38807e-05
2.3881e-05
2.38803e-05
2.38806e-05
8.14626e-05
2.17027e-05
2.16998e-05
8.14552e-05
2.17047e-05
2.17018e-05
0.000105132
0.000128639
7.78605e-05
4.86441e-05
0.000105152
0.000128581
4.86441e-05
0.000105139
0.000128624
7.78579e-05
4.86377e-05
0.000105161
0.000128563
4.86308e-05
0.00010512
4.86392e-05
0.00012851
7.78534e-05
0.000105101
0.000128569
4.86397e-05
0.000105131
4.86263e-05
0.000128492
7.78532e-05
0.000105108
0.000128554
4.86328e-05
8.14651e-05
2.17066e-05
2.17036e-05
8.14723e-05
2.17046e-05
2.17016e-05
2.38856e-05
2.38854e-05
2.38852e-05
2.38849e-05
2.03158e-05
7.90308e-05
5.07359e-05
2.03138e-05
7.90491e-05
3.67118e-05
9.98079e-05
4.10466e-05
9.43974e-05
3.67043e-05
4.10517e-05
9.44309e-05
5.0733e-05
2.38899e-05
2.38895e-05
0.000199186
0.000199186
0.00020406
0.000199996
0.000199995
0.000189285
0.000188262
0.000137898
0.000160908
0.000160906
0.000180748
0.000160964
0.000160958
0.000137861
0.000138237
0.000161556
0.000161532
0.000181683
0.000138202
0.000161587
0.000161571
0.000137899
0.000160893
0.000160881
0.000180795
0.000160964
0.000160954
0.000137858
0.000138118
0.000181386
0.000161445
0.000161433
0.000161389
0.000161375
0.000138158
0.000137904
0.000160901
0.000160919
0.000180761
0.000160974
0.000160954
0.000137866
0.000138124
0.000181405
0.000161434
0.000161449
0.000161379
0.000161394
0.000138161
0.000137895
0.000160898
0.000160912
0.00018075
0.000160966
0.000160952
0.000137857
0.000138115
0.000181394
0.000161424
0.000161448
0.000161368
0.000161391
0.000138152
0.000138119
0.000181392
0.000161436
0.000161435
0.000138156
0.000161385
0.000161376
0.000199187
0.000199192
0.000204066
0.000199997
0.000200002
0.000189287
0.000188264
0.000199193
0.000199199
0.000204067
0.000200003
0.000200008
0.000189295
0.000188272
0.000199201
0.0001992
0.000204073
0.00020001
0.000200009
0.000189296
0.000188274
0.000204692
0.000201599
0.000201598
0.000200802
0.000200802
0.000190307
0.000191324
0.000204698
0.0002016
0.000201605
0.000200803
0.000200808
0.000190308
0.000191326
0.000204699
0.000201606
0.000201611
0.000200809
0.000200814
0.000190316
0.000191334
0.000204706
0.000201613
0.000201613
0.000200816
0.000200815
0.000190318
0.000191335
0.000170421
0.000137235
0.000175661
0.000143613
0.000137137
0.000175522
0.000170559
0.000159998
0.000146885
0.000103397
0.000122358
0.000146962
0.000122426
0.000159865
0.000160021
0.000122493
0.000103393
0.000147085
0.000147011
0.000122424
0.000160161
0.000170345
0.000143607
0.000137046
0.000175292
0.000137143
0.000175431
0.000170223
0.000170422
0.000175648
0.000137215
0.000143605
0.000175513
0.000137131
0.000170532
0.00015995
0.000146896
0.000103397
0.000122351
0.000146934
0.000122414
0.000159867
0.000160044
0.00012248
0.000103394
0.00014706
0.000147022
0.000122419
0.000160109
0.000170327
0.000143599
0.000175284
0.000137034
0.000175422
0.000137129
0.000170216
0.000137949
0.000180911
0.000161126
0.000161111
0.00016107
0.000161057
0.000137986
0.000137947
0.000180853
0.000161123
0.000161117
0.000137987
0.000161067
0.000161057
0.000138073
0.000181241
0.00016123
0.00016121
0.000138033
0.000161287
0.00016127
0.000170359
0.000137216
0.000175649
0.000143601
0.000137119
0.000175508
0.000170542
0.000159978
0.000146874
0.000103396
0.000122343
0.00012241
0.000146949
0.000159846
0.000160003
0.000122476
0.000103393
0.000147073
0.000122409
0.000147
0.000160141
0.000170332
0.000143599
0.000137027
0.000175279
0.000137124
0.000175421
0.000170163
0.000170411
0.000137225
0.00017565
0.000143604
0.000137128
0.000175512
0.000170535
0.000159969
0.000146879
0.000103394
0.000122347
0.000122417
0.000146917
0.000159843
0.000160002
0.000122482
0.000103391
0.00014704
0.000122413
0.00016012
0.000147002
0.000170325
0.000143602
0.000137036
0.000175283
0.000137133
0.000175422
0.000170208
0.000170738
0.000137212
0.000175722
0.000143812
0.000170558
0.000137307
0.000175861
0.000160301
0.000147315
0.000103473
0.000122605
0.000147241
0.000122539
0.000160462
0.000160306
0.000122475
0.000147121
0.000103477
0.000147192
0.000160156
0.000122541
0.000170763
0.000143814
0.000137397
0.000176078
0.000137303
0.000175939
0.000170935
0.00017074
0.000137221
0.000175725
0.000143815
0.000170603
0.000137316
0.000175864
0.000160355
0.00014729
0.000103472
0.000122608
0.000122548
0.00014725
0.000160406
0.000160256
0.000122481
0.000147125
0.000103474
0.000160167
0.000122544
0.000147163
0.000170786
0.000143817
0.000137406
0.00017608
0.000137311
0.000175943
0.000170944
0.000137953
0.000180922
0.000161113
0.000161137
0.000161079
0.000161061
0.000137991
0.000138077
0.000181244
0.000161222
0.000161235
0.000161277
0.00013804
0.000161296
0.000170414
0.000137217
0.000175645
0.000143609
0.000137136
0.000175511
0.000170525
0.000159942
0.000146879
0.000103389
0.000122347
0.000122412
0.000146916
0.000159842
0.000160027
0.000122478
0.000103385
0.000147041
0.000122416
0.000147004
0.000160097
0.000170321
0.000143603
0.000137037
0.000175283
0.000137132
0.000175419
0.000170208
0.000170398
0.000175645
0.000137212
0.000143601
0.000175507
0.000137114
0.000170533
0.000159963
0.000146849
0.000103376
0.000122331
0.000122399
0.000146925
0.000159831
0.000159989
0.000122465
0.000103373
0.000147049
0.000122397
0.000160126
0.000146975
0.000170319
0.000143599
0.000175279
0.000137023
0.000175417
0.000137119
0.000170198
0.000170717
0.000137231
0.000175721
0.000143807
0.000170613
0.000137306
0.000175844
0.000160368
0.000147291
0.000103466
0.000122606
0.000147251
0.000122548
0.000160401
0.000160247
0.000122481
0.000147126
0.000103469
0.000147164
0.0001602
0.000122543
0.000170818
0.000143826
0.000137393
0.000176023
0.000137321
0.000175955
0.000170899
0.000170742
0.00017572
0.000137208
0.000143812
0.000170583
0.000175856
0.000137303
0.000160286
0.000147285
0.000103453
0.000122595
0.000122527
0.000147225
0.000160458
0.000160293
0.000122463
0.000147096
0.000103456
0.000160143
0.000122531
0.000147167
0.000170758
0.000143814
0.00017606
0.000137391
0.000175934
0.000137298
0.000170939
0.000170365
0.000175658
0.000137222
0.000143608
0.000175517
0.000137125
0.000170553
0.000159984
0.000146875
0.000103395
0.000122344
0.000146951
0.000122416
0.000159851
0.000160006
0.000122482
0.000103391
0.000147075
0.000147001
0.000122412
0.000160147
0.000170339
0.000143605
0.00017529
0.000137034
0.000175431
0.000137131
0.000170166
0.000170767
0.00013723
0.000175736
0.00014382
0.000170603
0.000137326
0.000175874
0.000160314
0.000147326
0.000103473
0.000122622
0.00016049
0.000147252
0.000122554
0.000160327
0.00012249
0.000147132
0.000103477
0.000160173
0.000147204
0.000122558
0.00017078
0.000143825
0.000137415
0.00017609
0.000170964
0.00013732
0.000175953
0.000170752
0.00017573
0.000137218
0.000143818
0.00017056
0.000175869
0.000137313
0.000160301
0.000147317
0.000103471
0.00012261
0.000122543
0.000147242
0.000160476
0.000160313
0.000122477
0.000147122
0.000103475
0.000160159
0.000122546
0.000147193
0.000170758
0.00014382
0.000176085
0.000137403
0.000175948
0.000137308
0.000170955
0.000137945
0.000180911
0.000161106
0.000161125
0.000161073
0.000161049
0.000137983
0.000138068
0.000181232
0.000161205
0.000161233
0.000161261
0.000138031
0.000161288
0.000170413
0.000175647
0.000137222
0.000143605
0.000175514
0.000137126
0.000170539
0.000159978
0.000146866
0.000103394
0.000122345
0.000146943
0.000122413
0.000159847
0.000160005
0.000122479
0.00010339
0.000147067
0.000146992
0.000122412
0.000160141
0.000170328
0.000143603
0.000175286
0.000137034
0.000175423
0.00013713
0.000170211
0.000170723
0.000175724
0.000137227
0.000143804
0.000170621
0.000175846
0.000137303
0.000160382
0.000147301
0.000103474
0.000122608
0.000160413
0.000147267
0.00012255
0.000160258
0.000122485
0.000147143
0.000103477
0.000160217
0.000147182
0.000122546
0.000170825
0.000143823
0.000176025
0.00013739
0.000170906
0.00017596
0.000137317
0.000170745
0.000175723
0.000137219
0.000143808
0.000170602
0.000175834
0.000137313
0.000160306
0.000147303
0.00010347
0.000122608
0.000122544
0.000147243
0.000160466
0.000160307
0.000122478
0.000147114
0.000103474
0.000160161
0.000122544
0.000147185
0.000170783
0.000143824
0.000176028
0.000137402
0.00017597
0.000137309
0.000170942
0.000138072
0.000181236
0.000161228
0.00016122
0.000138035
0.000161287
0.000161275
0.000160634
0.000147361
0.000122606
0.000103552
0.000147434
0.000160442
0.000122672
0.00017115
0.000144022
0.000176165
0.000137396
0.000176302
0.000170947
0.000137491
0.00014735
0.000103551
0.000147424
0.000123039
0.000139416
0.000139419
0.000137179
0.000125837
0.000142541
0.000142544
0.000139598
0.000128793
0.00014563
0.000145632
0.00014193
0.000131888
0.000148675
0.000148677
0.00014428
0.000135101
0.00015167
0.000151672
0.000146513
0.000138411
0.00015461
0.000154612
0.000148761
0.000141798
0.00015749
0.000157492
0.000150901
0.000145246
0.000160307
0.000160308
0.000153006
0.000148737
0.000163059
0.000163061
0.000155081
0.000152256
0.000165746
0.000165748
0.00015703
0.000155788
0.000168365
0.000168367
0.000158957
0.000159321
0.000170914
0.000170916
0.000160831
0.000162841
0.000173393
0.000173395
0.000162644
0.000166336
0.000175801
0.000175802
0.000164382
0.000169797
0.000178136
0.000178136
0.000166079
0.000173215
0.000180396
0.000180396
0.000167698
0.000176581
0.000182581
0.00018258
0.000169262
0.000179886
0.000184689
0.000184688
0.000170766
0.000183125
0.00018672
0.000186718
0.000172236
0.000186289
0.000188674
0.000188671
0.000173619
0.000189374
0.00019055
0.000190546
0.000174937
0.000192372
0.000192347
0.000192342
0.0001762
0.000195281
0.000194065