/*--------------------------------*- C++ -*----------------------------------*\
| =========                 |                                                 |
| \\      /  F ield         | OpenFOAM: The Open Source CFD Toolbox           |
|  \\    /   O peration     | Version:  v1906                                 |
|   \\  /    A nd           | Web:      www.OpenFOAM.com                      |
|    \\/     M anipulation  |                                                 |
\*---------------------------------------------------------------------------*/
FoamFile
{
    version     2.0;
    format      ascii;
    class       volScalarField;
    location    "250";
    object      epsilon;
}
// * * * * * * * * * * * * * * * * * * * * * * * * * * * * * * * * * * * * * //

dimensions      [0 2 -3 0 0 0 0];


internalField   nonuniform List<scalar> 
42840
(
5.00795e-07
1.07772e-06
1.07873e-06
1.32619e-06
1.32568e-06
1.32499e-06
1.32316e-06
1.07781e-06
1.07789e-06
1.07795e-06
1.07791e-06
1.32415e-06
1.32233e-06
1.07808e-06
1.07852e-06
1.07819e-06
1.0786e-06
1.07918e-06
1.07768e-06
1.07925e-06
1.32593e-06
1.32349e-06
1.07913e-06
1.07875e-06
1.07919e-06
1.32408e-06
1.07926e-06
1.07918e-06
4.18352e-06
9.29619e-06
9.2966e-06
4.18418e-06
1.85806e-05
1.85826e-05
4.18455e-06
9.2996e-06
9.30003e-06
4.18482e-06
5.00916e-07
5.0133e-07
5.01963e-07
5.00969e-07
5.0098e-07
5.01414e-07
5.02065e-07
2.24264e-06
3.58451e-06
7.92672e-07
1.07776e-06
3.58394e-06
7.92726e-07
2.24278e-06
1.85816e-05
1.85842e-05
2.24179e-06
7.92969e-07
3.58562e-06
1.07879e-06
7.93031e-07
3.58522e-06
2.24232e-06
5.556e-06
5.55817e-06
1.32416e-06
5.55538e-06
5.55753e-06
5.55623e-06
5.55825e-06
1.85796e-05
1.85817e-05
1.85828e-05
1.85851e-05
5.55447e-06
5.55669e-06
1.32335e-06
5.55395e-06
5.55601e-06
1.85816e-05
1.85796e-05
1.85855e-05
1.8583e-05
1.32484e-06
5.55382e-06
5.55595e-06
5.55447e-06
5.55648e-06
4.18368e-06
9.29816e-06
9.29846e-06
4.18449e-06
2.24113e-06
3.58401e-06
7.91815e-07
1.07794e-06
3.58357e-06
7.91952e-07
2.24104e-06
2.24112e-06
3.58435e-06
7.91949e-07
1.07803e-06
3.58386e-06
7.9214e-07
2.2411e-06
4.18377e-06
9.29683e-06
9.29639e-06
4.18334e-06
4.18392e-06
9.29858e-06
9.29824e-06
4.18342e-06
2.24127e-06
1.07795e-06
3.5838e-06
7.91986e-07
3.58402e-06
7.91988e-07
2.24088e-06
2.24123e-06
1.07799e-06
3.584e-06
7.92039e-07
3.58432e-06
7.92094e-07
2.24022e-06
5.55596e-06
5.55419e-06
1.32245e-06
5.55529e-06
5.55333e-06
1.85785e-05
1.8581e-05
1.85826e-05
1.85804e-05
1.32396e-06
5.55518e-06
5.55322e-06
5.5558e-06
5.55391e-06
1.85816e-05
1.85789e-05
2.24211e-06
3.58581e-06
7.92292e-07
1.0782e-06
3.58517e-06
7.92472e-07
2.24206e-06
4.18448e-06
9.29806e-06
9.29845e-06
4.18492e-06
2.24162e-06
7.92403e-07
3.58537e-06
1.07865e-06
7.92561e-07
3.5848e-06
2.2418e-06
4.1849e-06
9.30039e-06
9.29985e-06
4.18473e-06
2.24177e-06
1.07822e-06
3.58509e-06
7.92417e-07
3.58559e-06
7.92453e-07
2.24147e-06
4.18473e-06
9.29854e-06
9.2982e-06
4.18432e-06
2.24182e-06
1.07865e-06
7.92517e-07
3.58481e-06
7.92543e-07
3.58521e-06
2.24151e-06
4.18583e-06
9.29786e-06
9.29837e-06
4.18634e-06
2.24297e-06
7.93016e-07
3.58593e-06
1.07928e-06
7.93174e-07
3.58519e-06
2.24325e-06
4.18688e-06
9.2998e-06
9.29981e-06
4.1874e-06
2.24241e-06
1.07775e-06
3.58376e-06
7.92676e-07
3.58438e-06
7.92714e-07
2.2418e-06
4.18615e-06
9.29873e-06
9.29822e-06
4.18595e-06
2.24313e-06
1.07929e-06
7.93121e-07
3.58491e-06
7.93157e-07
3.58553e-06
2.2423e-06
4.18719e-06
9.29963e-06
9.29949e-06
4.18678e-06
5.55651e-06
5.55523e-06
1.32361e-06
5.55584e-06
5.55473e-06
1.85808e-05
1.85833e-05
1.85847e-05
1.85821e-05
1.32619e-06
5.55596e-06
5.55479e-06
5.55648e-06
5.55529e-06
1.85837e-05
1.85814e-05
2.24242e-06
7.93022e-07
3.58642e-06
1.07922e-06
7.93167e-07
3.58585e-06
2.24256e-06
4.18511e-06
9.29887e-06
9.2993e-06
4.18593e-06
4.1852e-06
9.29997e-06
9.30027e-06
4.18596e-06
2.24201e-06
1.0788e-06
7.92962e-07
3.58526e-06
7.93024e-07
3.58566e-06
2.2418e-06
2.24246e-06
1.07923e-06
7.93135e-07
3.5858e-06
7.93208e-07
3.5863e-06
2.24179e-06
4.18534e-06
9.29933e-06
9.29906e-06
4.18464e-06
4.18541e-06
9.30033e-06
9.30005e-06
4.18492e-06
1.8584e-05
1.85861e-05
1.85852e-05
1.85873e-05
1.32586e-06
5.55554e-06
5.55756e-06
5.55599e-06
5.55803e-06
1.85861e-05
1.8584e-05
1.85874e-05
1.85852e-05
7.93222e-07
3.58538e-06
2.24307e-06
9.29938e-06
4.18715e-06
3.58622e-06
9.30001e-06
1.85841e-05
1.85854e-05
1.23179e-05
1.09348e-05
4.82774e-06
4.18401e-06
1.09344e-05
4.8282e-06
1.23187e-05
2.22052e-05
9.29649e-06
7.1502e-06
7.14914e-06
2.22007e-05
2.22008e-05
7.14935e-06
9.29628e-06
7.15033e-06
2.22052e-05
1.23187e-05
4.18365e-06
1.09344e-05
4.82815e-06
1.09349e-05
4.82766e-06
1.23179e-05
1.85826e-05
1.85805e-05
1.23206e-05
4.82884e-06
1.09365e-05
4.18485e-06
4.82914e-06
1.0936e-05
1.23214e-05
2.22084e-05
9.29991e-06
7.15179e-06
7.15079e-06
2.2204e-05
2.22044e-05
7.15078e-06
9.29971e-06
7.15169e-06
2.22089e-05
1.23211e-05
4.18439e-06
4.82908e-06
1.09359e-05
4.82862e-06
1.09364e-05
1.23203e-05
1.85839e-05
1.85818e-05
9.82625e-06
2.18754e-05
2.18745e-05
2.18715e-05
2.18706e-05
9.82477e-06
4.64369e-06
2.93082e-06
5.55531e-06
9.65288e-06
2.93057e-06
9.65333e-06
4.6444e-06
4.64985e-06
2.93211e-06
5.55748e-06
9.65762e-06
2.93181e-06
9.65804e-06
4.65053e-06
4.64432e-06
9.65342e-06
5.55601e-06
2.93079e-06
2.93096e-06
9.65294e-06
4.64366e-06
4.65047e-06
9.65811e-06
5.55813e-06
2.93191e-06
2.93212e-06
9.65765e-06
4.64983e-06
9.82476e-06
2.18714e-05
2.18705e-05
2.18753e-05
2.18743e-05
9.82617e-06
4.6439e-06
2.93086e-06
9.65323e-06
5.55544e-06
4.64462e-06
2.93075e-06
9.65365e-06
4.65005e-06
2.9322e-06
9.65784e-06
5.55759e-06
4.6508e-06
2.93198e-06
9.65825e-06
9.82482e-06
2.18719e-05
2.1871e-05
9.82627e-06
2.18758e-05
2.18749e-05
1.85817e-05
1.85796e-05
1.8585e-05
1.85829e-05
9.82553e-06
2.18717e-05
2.1871e-05
2.18679e-05
2.18672e-05
9.82404e-06
4.64336e-06
2.93008e-06
5.55385e-06
9.65007e-06
9.65054e-06
2.9298e-06
4.64402e-06
4.64916e-06
2.93173e-06
5.55599e-06
9.65509e-06
9.65549e-06
2.93139e-06
4.64991e-06
4.64395e-06
9.65058e-06
5.55453e-06
2.92986e-06
9.65016e-06
4.64322e-06
2.9301e-06
4.64973e-06
9.65549e-06
5.55664e-06
2.93131e-06
9.65508e-06
4.64901e-06
2.93162e-06
9.82408e-06
2.18678e-05
2.1867e-05
2.18716e-05
2.18709e-05
9.8255e-06
1.85795e-05
1.85817e-05
1.85832e-05
1.85852e-05
9.82406e-06
2.1868e-05
2.18673e-05
9.82549e-06
2.18717e-05
2.18711e-05
4.64401e-06
2.92939e-06
5.55446e-06
9.65058e-06
9.65017e-06
2.92962e-06
4.64322e-06
4.64971e-06
2.93087e-06
5.55653e-06
9.65562e-06
9.65513e-06
2.93109e-06
4.64897e-06
4.64326e-06
9.65018e-06
2.92962e-06
5.55385e-06
4.64398e-06
9.6506e-06
2.92929e-06
4.649e-06
9.65508e-06
2.93114e-06
5.55584e-06
4.64972e-06
9.65551e-06
2.93071e-06
9.82539e-06
2.18718e-05
2.18713e-05
2.1868e-05
2.18674e-05
9.82399e-06
1.23198e-05
1.09354e-05
4.82879e-06
4.1842e-06
1.0935e-05
4.82922e-06
1.23205e-05
2.22086e-05
9.29843e-06
7.15281e-06
7.15191e-06
2.22045e-05
2.22044e-05
7.15204e-06
9.29819e-06
7.15291e-06
2.22086e-05
1.23205e-05
4.18388e-06
1.09352e-05
4.82928e-06
1.09355e-05
4.82879e-06
1.23198e-05
1.23186e-05
1.09344e-05
4.82814e-06
4.18331e-06
1.23179e-05
1.09348e-05
4.82769e-06
2.22007e-05
9.29649e-06
7.14951e-06
2.22052e-05
7.1505e-06
2.22052e-05
7.15039e-06
9.2967e-06
2.22008e-05
7.14936e-06
1.23179e-05
4.18375e-06
1.09349e-05
4.82774e-06
1.23186e-05
1.09344e-05
4.8282e-06
1.23204e-05
1.09348e-05
4.82909e-06
4.18346e-06
1.23197e-05
1.09352e-05
4.82868e-06
2.22043e-05
9.2983e-06
7.15219e-06
7.15307e-06
2.22085e-05
2.22085e-05
7.15293e-06
9.29854e-06
2.22044e-05
7.15206e-06
1.23196e-05
4.18386e-06
1.09352e-05
4.82869e-06
1.09347e-05
4.82911e-06
1.23203e-05
9.82297e-06
2.1868e-05
2.18692e-05
2.18642e-05
2.18653e-05
9.82152e-06
4.64759e-06
2.93038e-06
5.55529e-06
9.65349e-06
9.65388e-06
2.93e-06
4.64835e-06
4.64131e-06
2.92903e-06
5.55336e-06
9.64851e-06
2.92862e-06
9.64894e-06
4.642e-06
4.64812e-06
9.65379e-06
5.55596e-06
2.93e-06
9.65341e-06
2.93028e-06
4.64735e-06
4.64192e-06
9.64899e-06
5.55407e-06
2.92861e-06
2.92887e-06
9.64853e-06
4.64123e-06
9.82147e-06
2.18641e-05
2.18651e-05
2.18679e-05
2.1869e-05
9.82287e-06
1.85808e-05
1.85786e-05
1.85804e-05
1.85825e-05
9.82164e-06
2.18643e-05
2.18655e-05
9.82302e-06
2.18681e-05
2.18694e-05
4.64809e-06
2.92966e-06
5.55583e-06
9.65371e-06
2.92988e-06
9.65329e-06
4.6473e-06
4.64223e-06
2.92825e-06
5.55394e-06
9.6493e-06
9.64879e-06
2.92849e-06
4.64149e-06
4.64733e-06
9.65333e-06
2.92979e-06
5.55516e-06
2.92949e-06
4.6481e-06
9.65372e-06
4.64142e-06
9.64864e-06
2.92843e-06
5.55318e-06
4.64207e-06
9.64913e-06
2.92812e-06
9.82303e-06
2.18683e-05
2.18697e-05
2.18644e-05
2.18658e-05
9.82169e-06
1.85792e-05
1.85812e-05
1.23179e-05
1.09355e-05
4.82815e-06
4.18486e-06
1.09351e-05
4.82862e-06
1.23186e-05
2.22056e-05
9.29839e-06
7.15123e-06
7.15018e-06
2.22011e-05
2.22011e-05
7.15024e-06
9.29817e-06
7.15129e-06
2.22056e-05
1.23187e-05
4.18447e-06
1.09351e-05
4.82868e-06
1.09355e-05
4.82813e-06
1.2318e-05
1.23217e-05
4.82927e-06
1.09362e-05
4.18461e-06
1.23208e-05
4.82898e-06
1.09367e-05
2.22057e-05
9.30003e-06
7.15117e-06
2.22102e-05
7.15193e-06
2.22095e-05
7.15167e-06
9.3002e-06
2.2205e-05
7.15086e-06
1.23211e-05
4.18507e-06
4.82922e-06
1.09367e-05
1.23219e-05
4.82953e-06
1.09363e-05
1.23185e-05
1.0935e-05
4.82851e-06
4.18435e-06
1.23178e-05
1.09355e-05
4.82804e-06
2.22009e-05
9.29825e-06
7.15008e-06
7.15123e-06
2.22052e-05
2.22055e-05
7.15123e-06
9.29849e-06
2.22011e-05
7.15017e-06
1.23176e-05
4.18473e-06
1.09354e-05
4.82799e-06
1.0935e-05
4.8285e-06
1.23183e-05
1.23206e-05
4.82944e-06
1.09378e-05
4.18626e-06
4.82985e-06
1.09373e-05
1.23214e-05
2.22073e-05
9.29819e-06
7.15201e-06
7.15108e-06
2.22029e-05
2.22033e-05
7.15127e-06
9.29802e-06
7.1521e-06
2.22078e-05
1.23213e-05
4.18583e-06
4.82992e-06
1.09374e-05
4.82942e-06
1.09378e-05
1.23206e-05
1.23208e-05
1.09384e-05
4.83042e-06
4.18732e-06
1.0938e-05
4.8309e-06
1.23214e-05
2.22073e-05
9.29998e-06
7.15202e-06
7.151e-06
2.22033e-05
2.2203e-05
7.15088e-06
9.29963e-06
7.15186e-06
2.22071e-05
1.23216e-05
4.18688e-06
1.09381e-05
4.83103e-06
1.09385e-05
4.8305e-06
1.2321e-05
1.23214e-05
4.82978e-06
1.09373e-05
4.18576e-06
1.23207e-05
4.82943e-06
1.09378e-05
2.22045e-05
9.29839e-06
7.15192e-06
7.15264e-06
2.2209e-05
2.22084e-05
7.15227e-06
9.29857e-06
2.22039e-05
7.15152e-06
1.23208e-05
4.18629e-06
4.8296e-06
1.09379e-05
4.82994e-06
1.09374e-05
1.23216e-05
1.23213e-05
1.09379e-05
4.8307e-06
4.18677e-06
1.23206e-05
1.09384e-05
4.83025e-06
2.22028e-05
9.29941e-06
7.15069e-06
7.15167e-06
2.2207e-05
2.2207e-05
7.15167e-06
9.2997e-06
2.22028e-05
7.15073e-06
1.23205e-05
4.18722e-06
1.09383e-05
4.83023e-06
1.09379e-05
4.83067e-06
1.23212e-05
9.82453e-06
2.18685e-05
2.1869e-05
2.18646e-05
2.1865e-05
9.82308e-06
4.64896e-06
2.93178e-06
5.55575e-06
9.65393e-06
9.65443e-06
2.93144e-06
4.6496e-06
4.64332e-06
2.93096e-06
5.55457e-06
9.64994e-06
2.93071e-06
9.65038e-06
4.64407e-06
4.64964e-06
9.65455e-06
5.55653e-06
2.93155e-06
9.65407e-06
2.93179e-06
4.64892e-06
4.64394e-06
9.65049e-06
5.55529e-06
2.93082e-06
2.93104e-06
9.65001e-06
4.64321e-06
9.82303e-06
2.18644e-05
2.18648e-05
2.18683e-05
2.18687e-05
9.82442e-06
1.85831e-05
1.85811e-05
1.85823e-05
1.85844e-05
9.82319e-06
2.18648e-05
2.18653e-05
9.82458e-06
2.18687e-05
2.18692e-05
4.64967e-06
2.93125e-06
5.55662e-06
9.65473e-06
2.93149e-06
9.65425e-06
4.64885e-06
4.64413e-06
2.93045e-06
5.5554e-06
9.65072e-06
9.65025e-06
2.93067e-06
4.64332e-06
4.6489e-06
9.65416e-06
2.9314e-06
5.55579e-06
2.93108e-06
4.64969e-06
9.65462e-06
4.64332e-06
9.65013e-06
2.93066e-06
5.5547e-06
4.64402e-06
9.65061e-06
2.93032e-06
9.82455e-06
2.1869e-05
2.18694e-05
2.18651e-05
2.18655e-05
9.82319e-06
1.85815e-05
1.85835e-05
1.23192e-05
4.82909e-06
1.09361e-05
4.18566e-06
4.82967e-06
1.09358e-05
1.23198e-05
2.22068e-05
9.2992e-06
7.15135e-06
7.15046e-06
2.22026e-05
2.22026e-05
7.15043e-06
9.29899e-06
7.15137e-06
2.22067e-05
1.23201e-05
4.18531e-06
4.83e-06
1.0936e-05
4.82931e-06
1.09364e-05
1.23195e-05
1.23189e-05
4.82965e-06
1.09361e-05
4.1857e-06
4.83018e-06
1.09357e-05
1.23196e-05
2.22054e-05
9.30024e-06
7.15282e-06
7.15176e-06
2.22009e-05
2.2201e-05
7.15187e-06
9.29999e-06
7.15291e-06
2.22056e-05
1.23197e-05
4.18538e-06
4.83027e-06
1.09359e-05
4.82968e-06
1.09363e-05
1.2319e-05
1.23195e-05
4.82934e-06
1.09355e-05
4.1848e-06
1.23189e-05
4.82878e-06
1.09359e-05
2.22021e-05
9.29912e-06
7.15012e-06
7.15111e-06
2.22062e-05
2.22065e-05
7.1512e-06
9.29937e-06
2.22024e-05
7.15025e-06
1.23186e-05
4.18518e-06
4.82866e-06
1.09357e-05
4.82919e-06
1.09353e-05
1.23193e-05
1.23194e-05
4.83003e-06
1.09355e-05
4.18497e-06
1.23187e-05
4.82952e-06
1.09359e-05
2.22013e-05
9.30011e-06
7.15192e-06
7.15307e-06
2.22056e-05
2.22058e-05
7.15292e-06
9.30037e-06
2.22012e-05
7.15192e-06
1.23186e-05
4.18536e-06
4.82943e-06
1.09357e-05
4.82999e-06
1.09353e-05
1.23193e-05
1.85861e-05
1.8584e-05
1.85873e-05
1.85852e-05
9.82484e-06
2.18717e-05
2.18708e-05
9.82626e-06
2.18755e-05
2.18746e-05
4.64455e-06
2.93052e-06
5.55615e-06
9.6536e-06
4.64379e-06
2.93074e-06
9.65313e-06
4.65078e-06
2.93177e-06
5.55812e-06
9.65823e-06
4.65001e-06
2.93195e-06
9.65779e-06
4.64374e-06
9.65305e-06
2.9307e-06
5.55542e-06
4.64446e-06
2.9304e-06
9.65351e-06
4.64998e-06
9.65773e-06
2.93175e-06
5.55741e-06
4.65065e-06
2.93147e-06
9.65816e-06
9.82618e-06
2.18756e-05
2.18747e-05
9.82478e-06
2.18718e-05
2.18709e-05
1.8584e-05
1.85861e-05
1.85853e-05
1.85873e-05
2.22072e-05
7.15161e-06
9.29965e-06
2.22029e-05
7.15069e-06
1.23212e-05
4.1867e-06
1.09378e-05
4.8306e-06
1.23205e-05
1.09382e-05
4.83018e-06
9.30022e-06
1.85861e-05
1.85875e-05
2.90304e-07
2.90294e-07
5.00939e-07
2.90465e-07
2.90452e-07
1.25413e-07
1.25392e-07
2.78899e-06
1.91434e-06
1.91471e-06
1.32381e-06
1.91344e-06
1.91379e-06
2.78939e-06
2.78893e-06
1.91425e-06
1.9147e-06
1.32388e-06
2.78934e-06
1.91347e-06
1.91387e-06
2.78841e-06
1.91365e-06
1.91441e-06
1.32331e-06
1.91278e-06
1.91353e-06
2.78887e-06
2.78864e-06
1.32486e-06
1.91284e-06
1.91318e-06
1.91377e-06
1.91413e-06
2.78815e-06
2.78698e-06
1.91291e-06
1.91292e-06
1.32244e-06
1.91203e-06
1.91201e-06
2.78741e-06
2.78732e-06
1.324e-06
1.912e-06
1.91186e-06
1.91291e-06
1.91281e-06
2.78684e-06
2.78876e-06
1.91468e-06
1.91469e-06
1.32382e-06
1.91382e-06
1.91374e-06
2.78917e-06
2.78906e-06
1.32575e-06
1.91351e-06
1.91376e-06
1.91439e-06
1.91467e-06
2.78856e-06
2.78935e-06
1.32571e-06
1.91332e-06
1.91384e-06
2.78884e-06
1.91423e-06
1.91461e-06
2.90327e-07
2.9058e-07
5.01041e-07
2.90543e-07
2.90712e-07
1.25511e-07
1.25508e-07
2.90521e-07
2.9076e-07
5.01512e-07
2.90685e-07
2.90924e-07
1.25537e-07
1.25529e-07
2.9086e-07
2.90888e-07
5.02047e-07
2.91055e-07
2.91065e-07
1.25654e-07
1.25653e-07
5.0096e-07
2.90463e-07
2.90501e-07
2.90457e-07
2.90461e-07
1.2549e-07
1.25488e-07
5.00977e-07
2.90553e-07
2.90713e-07
2.90565e-07
2.90712e-07
1.25568e-07
1.25593e-07
5.01326e-07
2.90704e-07
2.90922e-07
2.90692e-07
2.90921e-07
1.25635e-07
1.25652e-07
5.02061e-07
2.91022e-07
2.90984e-07
2.91044e-07
2.90988e-07
1.25699e-07
1.25704e-07
1.59348e-06
2.49312e-06
1.46209e-06
2.24259e-06
2.49319e-06
1.4631e-06
1.59184e-06
1.77572e-06
2.17374e-06
3.58389e-06
2.97462e-06
2.17291e-06
2.97419e-06
1.77693e-06
1.77669e-06
2.97406e-06
3.58451e-06
2.17292e-06
2.17362e-06
2.9746e-06
1.77544e-06
1.59191e-06
2.24284e-06
2.49302e-06
1.46319e-06
2.49289e-06
1.46187e-06
1.59349e-06
1.59428e-06
1.46221e-06
2.4938e-06
2.24212e-06
1.46328e-06
2.49369e-06
1.59194e-06
1.77621e-06
2.17546e-06
3.58508e-06
2.97501e-06
2.17469e-06
2.97476e-06
1.77756e-06
1.77737e-06
2.97478e-06
3.58568e-06
2.17476e-06
2.17543e-06
2.97521e-06
1.77572e-06
1.59226e-06
2.24195e-06
1.46334e-06
2.49351e-06
1.46188e-06
2.49287e-06
1.59388e-06
2.7893e-06
1.32621e-06
1.91346e-06
1.91385e-06
1.91437e-06
1.91465e-06
2.7889e-06
2.78867e-06
1.32501e-06
1.91286e-06
1.9135e-06
2.78812e-06
1.91373e-06
1.91441e-06
2.78819e-06
1.32318e-06
1.91379e-06
1.91438e-06
2.78859e-06
1.91278e-06
1.91324e-06
1.5927e-06
2.49207e-06
1.46117e-06
2.24098e-06
2.49206e-06
1.4625e-06
1.59104e-06
1.77499e-06
2.17414e-06
3.58344e-06
2.97347e-06
2.97306e-06
2.17337e-06
1.77638e-06
1.77619e-06
2.97334e-06
3.58403e-06
2.17344e-06
2.97375e-06
2.17409e-06
1.77489e-06
1.59116e-06
2.24089e-06
2.49202e-06
1.46208e-06
2.49185e-06
1.46073e-06
1.59271e-06
1.59366e-06
2.49336e-06
1.46112e-06
2.24102e-06
2.49311e-06
1.46253e-06
1.5913e-06
1.77525e-06
2.17446e-06
3.58378e-06
2.97426e-06
2.97399e-06
2.17363e-06
1.77643e-06
1.77639e-06
2.97398e-06
3.58437e-06
2.17364e-06
2.97441e-06
1.77512e-06
2.17434e-06
1.59126e-06
2.2411e-06
2.49321e-06
1.46208e-06
2.49314e-06
1.4607e-06
1.593e-06
1.59095e-06
2.49254e-06
1.46216e-06
2.24099e-06
1.593e-06
2.49258e-06
1.46021e-06
1.77685e-06
2.17343e-06
3.58421e-06
2.97385e-06
2.17406e-06
2.97423e-06
1.77497e-06
1.77467e-06
2.97398e-06
2.17393e-06
3.58357e-06
2.1733e-06
1.77615e-06
2.97359e-06
1.59322e-06
2.24081e-06
2.49226e-06
1.46087e-06
2.49269e-06
1.46198e-06
1.59081e-06
1.59163e-06
2.49341e-06
1.46211e-06
2.24119e-06
1.59335e-06
2.49335e-06
1.46009e-06
1.77627e-06
2.17354e-06
3.58448e-06
2.97374e-06
2.97432e-06
2.17421e-06
1.77507e-06
1.77456e-06
2.97457e-06
2.17415e-06
3.58387e-06
1.77657e-06
2.97411e-06
2.17346e-06
1.59308e-06
2.24102e-06
2.49297e-06
1.46078e-06
2.49306e-06
1.46189e-06
1.59146e-06
2.78729e-06
1.32412e-06
1.91202e-06
1.91196e-06
1.91292e-06
1.91293e-06
2.78682e-06
2.78684e-06
1.32231e-06
1.91296e-06
1.91292e-06
1.91191e-06
2.78727e-06
1.91184e-06
1.59349e-06
2.49289e-06
1.46066e-06
2.24223e-06
2.49353e-06
1.46287e-06
1.59125e-06
1.77538e-06
2.17518e-06
3.58517e-06
2.975e-06
2.97433e-06
2.17436e-06
1.77656e-06
1.77653e-06
2.97424e-06
3.58576e-06
2.17439e-06
2.97476e-06
2.17508e-06
1.77513e-06
1.5914e-06
2.24168e-06
2.49356e-06
1.46251e-06
2.49342e-06
1.46131e-06
1.59379e-06
1.59331e-06
1.46139e-06
2.49254e-06
2.24162e-06
1.46291e-06
2.49274e-06
1.5919e-06
1.77524e-06
2.17527e-06
3.58477e-06
2.97441e-06
2.97403e-06
2.17446e-06
1.77797e-06
1.7776e-06
2.97407e-06
3.58539e-06
2.17455e-06
2.97454e-06
1.77567e-06
2.17522e-06
1.59137e-06
2.24162e-06
1.4625e-06
2.49253e-06
1.4613e-06
2.4923e-06
1.59346e-06
1.59143e-06
2.49318e-06
1.46262e-06
2.24154e-06
1.59309e-06
2.49294e-06
1.46096e-06
1.77669e-06
2.17426e-06
3.58563e-06
2.97424e-06
2.17493e-06
2.97477e-06
1.7753e-06
1.77504e-06
2.97475e-06
2.17488e-06
3.58502e-06
2.1742e-06
1.77699e-06
2.97437e-06
1.59288e-06
2.24126e-06
2.49279e-06
1.46055e-06
2.49319e-06
1.46213e-06
1.59122e-06
1.59181e-06
1.46273e-06
2.49302e-06
2.24183e-06
1.59341e-06
1.46146e-06
2.4931e-06
1.77729e-06
2.1745e-06
3.58532e-06
2.97412e-06
2.9745e-06
2.17517e-06
1.77535e-06
1.776e-06
2.97448e-06
2.17506e-06
3.58466e-06
1.77728e-06
2.97397e-06
2.17441e-06
1.5937e-06
2.24165e-06
1.46105e-06
2.49286e-06
1.46257e-06
2.49302e-06
1.59137e-06
1.5943e-06
1.46285e-06
2.4937e-06
2.24295e-06
1.46423e-06
2.49399e-06
1.59264e-06
1.77592e-06
2.17555e-06
3.5853e-06
2.97521e-06
2.17475e-06
2.97477e-06
1.77839e-06
1.77783e-06
2.97461e-06
3.58578e-06
2.1748e-06
2.17547e-06
2.97514e-06
1.77568e-06
1.59281e-06
2.24314e-06
1.46379e-06
2.49441e-06
1.46222e-06
2.4942e-06
1.59447e-06
1.59185e-06
2.49305e-06
1.46297e-06
2.24209e-06
1.59366e-06
2.49336e-06
1.46197e-06
1.77666e-06
2.17267e-06
3.58436e-06
2.97412e-06
1.77514e-06
2.17338e-06
2.97452e-06
1.77456e-06
2.97447e-06
2.1734e-06
3.58379e-06
1.77684e-06
2.17267e-06
2.97407e-06
1.59398e-06
2.24223e-06
2.49328e-06
1.4616e-06
1.59164e-06
2.49355e-06
1.46321e-06
1.59253e-06
1.46369e-06
2.49362e-06
2.24312e-06
1.59443e-06
1.46208e-06
2.49361e-06
1.77745e-06
2.17468e-06
3.58549e-06
2.97437e-06
2.97482e-06
2.17536e-06
1.77558e-06
1.77619e-06
2.97522e-06
2.17529e-06
3.58494e-06
1.77757e-06
2.97452e-06
2.17464e-06
1.59461e-06
2.24303e-06
1.46196e-06
2.49325e-06
1.4635e-06
2.49374e-06
1.59221e-06
2.78906e-06
1.32602e-06
1.91368e-06
1.91382e-06
1.91475e-06
1.91463e-06
2.7886e-06
2.78863e-06
1.3235e-06
1.91453e-06
1.9148e-06
1.91351e-06
2.78905e-06
1.91371e-06
1.59467e-06
1.46229e-06
2.49404e-06
2.24241e-06
1.46361e-06
2.49365e-06
1.59249e-06
1.77586e-06
2.17593e-06
3.58582e-06
2.97523e-06
2.17511e-06
2.97466e-06
1.77823e-06
1.77826e-06
2.97497e-06
3.58639e-06
2.17519e-06
2.17586e-06
2.97545e-06
1.77628e-06
1.59216e-06
2.24263e-06
1.4631e-06
2.4937e-06
1.46148e-06
2.49367e-06
1.59388e-06
1.59171e-06
1.46312e-06
2.49387e-06
2.24215e-06
1.59418e-06
1.46168e-06
2.49388e-06
1.77709e-06
2.17464e-06
3.58584e-06
2.97494e-06
1.77513e-06
2.17533e-06
2.97536e-06
1.77551e-06
2.97521e-06
2.17526e-06
3.58523e-06
1.77687e-06
2.1746e-06
2.97491e-06
1.59409e-06
2.2419e-06
1.46132e-06
2.49388e-06
1.59215e-06
1.46272e-06
2.49394e-06
1.59293e-06
1.46326e-06
2.49422e-06
2.24248e-06
1.59449e-06
1.46151e-06
2.4943e-06
1.77781e-06
2.17514e-06
3.58638e-06
2.97518e-06
2.97553e-06
2.17581e-06
1.7765e-06
1.77661e-06
2.97546e-06
2.17571e-06
3.5858e-06
1.77792e-06
2.97497e-06
2.17507e-06
1.59439e-06
2.24227e-06
1.46198e-06
2.49412e-06
1.46313e-06
2.49412e-06
1.59278e-06
2.78892e-06
1.32412e-06
1.91435e-06
1.91454e-06
2.78936e-06
1.91332e-06
1.91376e-06
1.77633e-06
2.17524e-06
2.97482e-06
3.58483e-06
2.17459e-06
1.778e-06
2.97465e-06
1.59233e-06
2.24275e-06
1.46381e-06
2.49406e-06
1.46273e-06
1.59437e-06
2.49386e-06
2.17572e-06
3.58559e-06
2.17502e-06
3.22946e-07
8.70127e-07
8.70316e-07
1.15641e-06
3.3866e-07
8.94295e-07
8.94521e-07
1.17675e-06
3.54421e-07
9.17428e-07
9.17685e-07
1.19602e-06
3.70024e-07
9.39315e-07
9.39583e-07
1.21406e-06
3.85245e-07
9.59699e-07
9.59938e-07
1.23062e-06
3.99841e-07
9.78338e-07
9.78493e-07
1.24552e-06
4.13612e-07
9.95069e-07
9.95059e-07
1.25876e-06
4.26422e-07
1.0098e-06
1.00965e-06
1.27031e-06
4.38157e-07
1.02255e-06
1.02234e-06
1.28071e-06
4.48773e-07
1.03337e-06
1.0332e-06
1.28956e-06
4.5822e-07
1.04259e-06
1.04247e-06
1.29702e-06
4.66521e-07
1.05044e-06
1.05039e-06
1.30308e-06
4.73753e-07
1.0569e-06
1.05695e-06
1.30799e-06
4.80022e-07
1.06218e-06
1.06235e-06
1.31225e-06
4.85348e-07
1.06659e-06
1.06683e-06
1.31599e-06
4.89688e-07
1.07016e-06
1.07047e-06
1.31907e-06
4.93087e-07
1.07307e-06
1.07339e-06
1.32165e-06
4.95752e-07
1.07537e-06
1.07561e-06
1.32347e-06
4.97685e-07
1.07691e-06
1.07714e-06
1.32508e-06
4.98968e-07
1.07776e-06
1.07814e-06
1.32599e-06
4.99725e-07
1.07819e-06
1.07866e-06
1.32637e-06
5.00204e-07
1.0783e-06
1.07878e-06
1.32611e-06
5.00434e-07
1.0782e-06
1.07875e-06
1.3261e-06
5.00597e-07
1.07803e-06
1.07867e-06
1.32624e-06
5.00741e-07
1.07788e-06
1.07874e-06
1.32616e-06
1.15673e-06
1.17131e-06
8.70341e-07
8.70238e-07
8.88694e-07
8.88595e-07
1.15654e-06
1.17118e-06
8.70165e-07
8.70334e-07
8.88537e-07
8.88697e-07
8.70157e-07
8.88438e-07
8.88499e-07
1.15682e-06
1.17139e-06
8.70049e-07
8.88658e-07
8.88392e-07
1.17104e-06
1.17706e-06
1.19098e-06
8.94487e-07
8.94394e-07
9.12159e-07
9.12057e-07
1.17686e-06
1.19068e-06
8.94331e-07
8.94495e-07
9.11989e-07
9.12155e-07
8.94301e-07
9.11925e-07
9.11947e-07
1.17711e-06
1.19098e-06
8.9419e-07
9.12182e-07
9.1184e-07
1.19053e-06
1.19638e-06
1.2093e-06
9.1764e-07
9.17547e-07
9.34438e-07
9.34351e-07
1.19619e-06
1.209e-06
9.17474e-07
9.17636e-07
9.34266e-07
9.34407e-07
9.17445e-07
9.34238e-07
9.34261e-07
1.19638e-06
1.20929e-06
9.17335e-07
9.34511e-07
9.34147e-07
1.20892e-06
1.21433e-06
1.22611e-06
9.39543e-07
9.39472e-07
9.55266e-07
9.55209e-07
1.21422e-06
1.22589e-06
9.39381e-07
9.39514e-07
9.55103e-07
9.55198e-07
9.394e-07
9.55123e-07
9.55183e-07
1.21435e-06
1.226e-06
9.39281e-07
9.55383e-07
9.55046e-07
1.22576e-06
1.23081e-06
1.24126e-06
9.59926e-07
9.59887e-07
9.74382e-07
9.74337e-07
1.23066e-06
1.24115e-06
9.59768e-07
9.5986e-07
9.7421e-07
9.74269e-07
9.59888e-07
9.74322e-07
9.74426e-07
1.2307e-06
1.24105e-06
9.59739e-07
9.74514e-07
9.74237e-07
1.241e-06
1.24561e-06
1.25488e-06
9.78565e-07
9.78516e-07
9.91637e-07
9.9153e-07
1.24546e-06
1.25469e-06
9.78388e-07
9.78443e-07
9.91404e-07
9.91431e-07
9.78648e-07
9.91636e-07
9.91759e-07
1.24552e-06
1.25451e-06
9.7844e-07
9.91677e-07
9.91504e-07
1.25453e-06
1.25881e-06
1.26685e-06
9.9532e-07
9.95197e-07
1.00694e-06
1.0067e-06
1.25865e-06
1.26645e-06
9.95076e-07
9.95102e-07
1.00662e-06
1.00664e-06
9.9546e-07
1.00694e-06
1.00707e-06
1.25868e-06
1.26618e-06
9.95192e-07
1.00682e-06
1.00675e-06
1.26639e-06
1.27048e-06
1.27755e-06
1.01014e-06
1.00987e-06
1.02031e-06
1.01988e-06
1.27032e-06
1.27712e-06
1.00979e-06
1.00981e-06
1.01989e-06
1.01989e-06
1.01026e-06
1.02023e-06
1.02041e-06
1.27039e-06
1.2767e-06
1.00994e-06
1.02002e-06
1.02002e-06
1.27704e-06
1.28112e-06
1.28655e-06
1.02302e-06
1.02255e-06
1.0317e-06
1.03108e-06
1.28072e-06
1.28589e-06
1.02259e-06
1.02259e-06
1.03124e-06
1.03122e-06
1.02313e-06
1.03152e-06
1.03183e-06
1.28074e-06
1.28554e-06
1.02272e-06
1.03133e-06
1.03135e-06
1.28622e-06
1.28984e-06
1.29418e-06
1.03396e-06
1.03333e-06
1.04129e-06
1.04059e-06
1.28922e-06
1.29332e-06
1.03353e-06
1.0335e-06
1.04091e-06
1.04087e-06
1.03412e-06
1.04106e-06
1.04152e-06
1.28928e-06
1.29306e-06
1.03363e-06
1.04093e-06
1.04099e-06
1.29392e-06
1.2972e-06
1.30031e-06
1.04316e-06
1.0425e-06
1.04918e-06
1.0487e-06
1.29646e-06
1.29984e-06
1.04281e-06
1.0428e-06
1.04893e-06
1.04908e-06
1.04343e-06
1.04913e-06
1.04957e-06
1.29663e-06
1.2997e-06
1.04292e-06
1.04908e-06
1.04913e-06
1.30025e-06
1.30307e-06
1.30529e-06
1.05073e-06
1.05032e-06
1.05567e-06
1.05547e-06
1.30274e-06
1.30529e-06
1.05051e-06
1.05071e-06
1.05551e-06
1.05595e-06
1.05113e-06
1.05584e-06
1.05609e-06
1.30306e-06
1.30561e-06
1.05073e-06
1.05586e-06
1.0558e-06
1.30535e-06
1.30788e-06
1.30976e-06
1.05701e-06
1.05684e-06
1.06118e-06
1.061e-06
1.30791e-06
1.3095e-06
1.05686e-06
1.05735e-06
1.06104e-06
1.06163e-06
1.05743e-06
1.06128e-06
1.06155e-06
1.30841e-06
1.31015e-06
1.05715e-06
1.06144e-06
1.06127e-06
1.30971e-06
1.31203e-06
1.31325e-06
1.06238e-06
1.06217e-06
1.06583e-06
1.06556e-06
1.31191e-06
1.31304e-06
1.06226e-06
1.06283e-06
1.06568e-06
1.06622e-06
1.06274e-06
1.06584e-06
1.06615e-06
1.3127e-06
1.31369e-06
1.06245e-06
1.06606e-06
1.06586e-06
1.31354e-06
1.31537e-06
1.3161e-06
1.06688e-06
1.06659e-06
1.06953e-06
1.06932e-06
1.31542e-06
1.31591e-06
1.06672e-06
1.06726e-06
1.06935e-06
1.0699e-06
1.06721e-06
1.06955e-06
1.06992e-06
1.31613e-06
1.31622e-06
1.06692e-06
1.06983e-06
1.06966e-06
1.3168e-06
1.31828e-06
1.31817e-06
1.07046e-06
1.07027e-06
1.07245e-06
1.07248e-06
1.31841e-06
1.3188e-06
1.07026e-06
1.07084e-06
1.07225e-06
1.07288e-06
1.07086e-06
1.07255e-06
1.07294e-06
1.31902e-06
1.31894e-06
1.07059e-06
1.07288e-06
1.07265e-06
1.3193e-06
1.32086e-06
1.32029e-06
1.07332e-06
1.07338e-06
1.07494e-06
1.07514e-06
1.32069e-06
1.3209e-06
1.07316e-06
1.07372e-06
1.07482e-06
1.07533e-06
1.07379e-06
1.07498e-06
1.07537e-06
1.3217e-06
1.32136e-06
1.07355e-06
1.07524e-06
1.07522e-06
1.32156e-06
1.32292e-06
1.32172e-06
1.07558e-06
1.07585e-06
1.07665e-06
1.07686e-06
1.32272e-06
1.32234e-06
1.07545e-06
1.07603e-06
1.07647e-06
1.07711e-06
1.07613e-06
1.07665e-06
1.07739e-06
1.32394e-06
1.32279e-06
1.07592e-06
1.07688e-06
1.07705e-06
1.32329e-06
1.32433e-06
1.32267e-06
1.07714e-06
1.07734e-06
1.0777e-06
1.07782e-06
1.32396e-06
1.32264e-06
1.07697e-06
1.07764e-06
1.0775e-06
1.07817e-06
1.07793e-06
1.07767e-06
1.07859e-06
1.32486e-06
1.32363e-06
1.07755e-06
1.07802e-06
1.07823e-06
1.32397e-06
1.32523e-06
1.32326e-06
1.07806e-06
1.07818e-06
1.07818e-06
1.07823e-06
1.32522e-06
1.32302e-06
1.07771e-06
1.07834e-06
1.07796e-06
1.07859e-06
1.07901e-06
1.07809e-06
1.07924e-06
1.32524e-06
1.32351e-06
1.07863e-06
1.07858e-06
1.0789e-06
1.32454e-06
1.32522e-06
1.32355e-06
1.07832e-06
1.07836e-06
1.07827e-06
1.07824e-06
1.32558e-06
1.32303e-06
1.078e-06
1.07887e-06
1.07798e-06
1.0788e-06
1.07932e-06
1.0783e-06
1.07927e-06
1.32511e-06
1.32352e-06
1.07916e-06
1.07878e-06
1.07907e-06
1.32441e-06
1.32515e-06
1.32368e-06
1.07831e-06
1.07832e-06
1.07819e-06
1.07815e-06
1.3255e-06
1.3232e-06
1.07806e-06
1.07888e-06
1.07795e-06
1.0788e-06
1.07934e-06
1.07828e-06
1.07923e-06
1.32513e-06
1.32362e-06
1.07922e-06
1.07881e-06
1.07908e-06
1.32388e-06
1.32528e-06
1.32315e-06
1.07825e-06
1.07832e-06
1.07804e-06
1.07816e-06
1.32478e-06
1.32282e-06
1.0781e-06
1.07887e-06
1.07804e-06
1.07872e-06
1.07932e-06
1.07811e-06
1.07925e-06
1.32526e-06
1.32377e-06
1.07921e-06
1.07867e-06
1.07913e-06
1.32388e-06
1.32531e-06
1.32332e-06
1.07814e-06
1.07833e-06
1.07789e-06
1.07816e-06
1.32441e-06
1.32268e-06
1.07814e-06
1.07877e-06
1.07808e-06
1.07862e-06
1.07935e-06
1.07797e-06
1.07926e-06
1.32534e-06
1.32353e-06
1.07928e-06
1.07873e-06
1.07919e-06
1.32431e-06
1.32492e-06
1.32332e-06
1.07802e-06
1.07828e-06
1.07777e-06
1.0779e-06
1.32427e-06
1.3225e-06
1.07816e-06
1.07868e-06
1.07806e-06
1.07852e-06
1.07939e-06
1.07779e-06
1.07918e-06
1.32603e-06
1.32361e-06
1.07935e-06
1.07874e-06
1.07914e-06
1.3242e-06
4.10625e-06
9.15193e-06
9.15688e-06
4.10364e-06
1.83986e-05
1.84054e-05
4.10656e-06
9.1534e-06
9.15842e-06
4.10324e-06
3.22925e-07
3.23032e-07
3.22933e-07
3.35058e-07
3.34985e-07
3.35102e-07
3.35019e-07
2.12189e-06
3.48352e-06
5.62937e-07
8.76319e-07
3.48765e-06
5.68975e-07
2.11659e-06
1.8399e-05
1.84058e-05
2.12197e-06
5.63133e-07
3.48392e-06
8.76518e-07
5.6918e-07
3.48803e-06
2.11672e-06
5.46787e-06
5.46981e-06
1.16089e-06
5.47076e-06
5.47281e-06
4.11607e-06
9.16359e-06
4.11341e-06
9.16883e-06
1.84106e-05
1.84169e-05
4.11605e-06
9.16578e-06
4.1129e-06
9.17067e-06
3.38682e-07
3.388e-07
3.38679e-07
3.50915e-07
3.50844e-07
3.50975e-07
3.50865e-07
2.13786e-06
3.49661e-06
5.86111e-07
9.00319e-07
2.13294e-06
3.50021e-06
5.92152e-07
1.84108e-05
1.84172e-05
2.13792e-06
5.86332e-07
3.49681e-06
9.00555e-07
2.13302e-06
5.92383e-07
3.50068e-06
5.47794e-06
5.47989e-06
1.18098e-06
5.4807e-06
5.48271e-06
4.12494e-06
9.1754e-06
4.12231e-06
9.17973e-06
1.84212e-05
1.84269e-05
4.12507e-06
9.17738e-06
4.12247e-06
9.18176e-06
3.54491e-07
3.5462e-07
3.54483e-07
3.66675e-07
3.66628e-07
3.66759e-07
3.66649e-07
2.15282e-06
3.50872e-06
6.08825e-07
9.23258e-07
2.14826e-06
3.5121e-06
6.14831e-07
1.84215e-05
1.84274e-05
2.15278e-06
6.09069e-07
3.50901e-06
9.23525e-07
2.14831e-06
6.15083e-07
3.51255e-06
5.48745e-06
5.48947e-06
1.19987e-06
5.48991e-06
5.49193e-06
4.13282e-06
9.18528e-06
4.13058e-06
9.18952e-06