/*--------------------------------*- C++ -*----------------------------------*\
| =========                 |                                                 |
| \\      /  F ield         | OpenFOAM: The Open Source CFD Toolbox           |
|  \\    /   O peration     | Version:  v1906                                 |
|   \\  /    A nd           | Web:      www.OpenFOAM.com                      |
|    \\/     M anipulation  |                                                 |
\*---------------------------------------------------------------------------*/
FoamFile
{
    version     2.0;
    format      ascii;
    class       volScalarField;
    location    "250";
    object      k;
}
// * * * * * * * * * * * * * * * * * * * * * * * * * * * * * * * * * * * * * //

dimensions      [0 2 -2 0 0 0 0];


internalField   nonuniform List<scalar> 
42840
(
2.95943e-05
4.49935e-05
4.50291e-05
4.84551e-05
4.84519e-05
4.84116e-05
4.83881e-05
4.49939e-05
4.49958e-05
4.50011e-05
4.49955e-05
4.83825e-05
4.83624e-05
4.50076e-05
4.50149e-05
4.50113e-05
4.50171e-05
4.50508e-05
4.49948e-05
4.50506e-05
4.84329e-05
4.84107e-05
4.50545e-05
4.50283e-05
4.50547e-05
4.84232e-05
4.50508e-05
4.50537e-05
6.69597e-05
7.20736e-05
7.20758e-05
6.69609e-05
6.99314e-05
6.99365e-05
6.6968e-05
7.20865e-05
7.20885e-05
6.69724e-05
2.95852e-05
2.96016e-05
2.9632e-05
2.9604e-05
2.95919e-05
2.96064e-05
2.96371e-05
5.76463e-05
6.28319e-05
3.87558e-05
4.49945e-05
6.28377e-05
3.8756e-05
5.76488e-05
6.993e-05
6.99365e-05
5.7648e-05
3.87713e-05
6.28535e-05
4.50292e-05
3.87714e-05
6.28656e-05
5.76481e-05
6.85508e-05
6.85613e-05
4.84232e-05
6.85478e-05
6.85641e-05
6.85556e-05
6.85668e-05
6.99307e-05
6.99363e-05
6.99354e-05
6.99411e-05
6.8526e-05
6.85424e-05
4.83853e-05
6.85306e-05
6.85387e-05
6.9936e-05
6.99311e-05
6.9942e-05
6.9936e-05
4.84165e-05
6.85231e-05
6.85403e-05
6.8532e-05
6.85411e-05
6.69572e-05
7.20826e-05
7.20842e-05
6.6969e-05
5.75892e-05
6.28271e-05
3.87216e-05
4.49984e-05
6.28313e-05
3.87242e-05
5.75973e-05
5.76204e-05
6.28249e-05
3.87258e-05
4.49958e-05
6.28248e-05
3.87259e-05
5.76212e-05
6.69575e-05
7.20769e-05
7.20747e-05
6.69599e-05
6.69555e-05
7.2085e-05
7.2083e-05
6.69535e-05
5.76043e-05
4.49988e-05
6.2838e-05
3.87272e-05
6.28322e-05
3.87259e-05
5.76225e-05
5.76151e-05
4.49957e-05
6.28348e-05
3.87261e-05
6.28198e-05
3.8726e-05
5.76136e-05
6.85296e-05
6.85171e-05
4.83553e-05
6.85314e-05
6.85166e-05
6.99283e-05
6.99343e-05
6.99365e-05
6.99312e-05
4.83861e-05
6.85297e-05
6.85119e-05
6.85325e-05
6.85176e-05
6.99355e-05
6.9929e-05
5.76146e-05
6.28574e-05
3.87397e-05
4.50091e-05
6.28577e-05
3.87402e-05
5.76077e-05
6.6981e-05
7.20766e-05
7.20788e-05
6.69813e-05
5.76135e-05
3.87389e-05
6.284e-05
4.50164e-05
3.87401e-05
6.28375e-05
5.7616e-05
6.69662e-05
7.20899e-05
7.20874e-05
6.69828e-05
5.7595e-05
4.50104e-05
6.28519e-05
3.87403e-05
6.28524e-05
3.874e-05
5.76002e-05
6.69789e-05
7.20792e-05
7.20775e-05
6.69802e-05
5.76073e-05
4.50167e-05
3.87421e-05
6.28416e-05
3.8741e-05
6.28384e-05
5.76019e-05
6.69981e-05
7.20804e-05
7.20828e-05
6.69999e-05
5.7671e-05
3.87718e-05
6.28743e-05
4.50509e-05
3.87731e-05
6.28689e-05
5.76714e-05
6.7027e-05
7.20893e-05
7.20893e-05
6.70282e-05
5.76429e-05
4.49943e-05
6.28303e-05
3.87563e-05
6.28386e-05
3.87558e-05
5.76436e-05
6.69948e-05
7.20846e-05
7.20819e-05
6.69931e-05
5.76615e-05
4.50507e-05
3.87738e-05
6.28628e-05
3.87735e-05
6.28672e-05
5.76617e-05
6.70245e-05
7.2088e-05
7.20876e-05
6.70239e-05
6.85317e-05
6.85425e-05
4.84059e-05
6.85386e-05
6.85379e-05
6.99318e-05
6.99379e-05
6.99378e-05
6.99312e-05
4.84366e-05
6.85389e-05
6.85465e-05
6.85402e-05
6.85446e-05
6.99391e-05
6.99331e-05
5.76547e-05
3.8773e-05
6.2877e-05
4.5055e-05
3.87758e-05
6.28703e-05
5.76301e-05
6.69903e-05
7.2083e-05
7.20854e-05
6.69978e-05
6.69974e-05
7.20884e-05
7.20899e-05
6.69937e-05
5.76442e-05
4.50287e-05
3.87669e-05
6.28656e-05
3.87676e-05
6.28647e-05
5.76363e-05
5.76573e-05
4.50548e-05
3.87776e-05
6.28688e-05
3.87766e-05
6.28658e-05
5.76599e-05
6.69878e-05
7.2086e-05
7.20843e-05
6.69816e-05
6.69957e-05
7.20904e-05
7.20886e-05
6.69962e-05
6.99395e-05
6.99447e-05
6.99411e-05
6.99462e-05
4.84529e-05
6.85537e-05
6.85604e-05
6.85484e-05
6.85653e-05
6.99449e-05
6.99394e-05
6.99464e-05
6.9941e-05
3.87728e-05
6.28627e-05
5.76527e-05
7.20865e-05
6.70218e-05
6.28584e-05
7.20888e-05
6.99397e-05
6.99413e-05
7.05809e-05
7.03144e-05
7.01645e-05
6.69594e-05
7.03125e-05
7.01616e-05
7.05838e-05
7.05195e-05
7.20752e-05
7.85933e-05
7.85945e-05
7.05101e-05
7.05102e-05
7.85977e-05
7.20741e-05
7.85935e-05
7.05197e-05
7.05837e-05
6.69644e-05
7.03126e-05
7.01601e-05
7.03146e-05
7.01626e-05
7.05808e-05
6.99366e-05
6.99313e-05
7.05913e-05
7.01741e-05
7.03201e-05
6.69703e-05
7.01677e-05
7.0318e-05
7.05945e-05
7.05277e-05
7.2088e-05
7.86169e-05
7.86168e-05
7.05186e-05
7.05192e-05
7.86121e-05
7.20869e-05
7.86148e-05
7.05284e-05
7.05936e-05
6.69733e-05
7.01725e-05
7.03177e-05
7.01719e-05
7.03197e-05
7.05907e-05
6.99359e-05
6.99306e-05
9.3685e-05
7.23716e-05
7.23651e-05
7.23632e-05
7.23567e-05
9.36826e-05
7.24283e-05
6.28099e-05
6.85496e-05
7.19195e-05
6.28147e-05
7.19216e-05
7.24281e-05
7.24817e-05
6.28106e-05
6.85633e-05
7.19305e-05
6.28214e-05
7.19325e-05
7.24847e-05
7.24281e-05
7.19219e-05
6.85497e-05
6.28079e-05
6.28126e-05
7.19197e-05
7.24301e-05
7.24823e-05
7.19327e-05
6.85611e-05
6.28245e-05
6.28143e-05
7.19305e-05
7.24783e-05
9.36823e-05
7.2363e-05
7.23565e-05
7.23714e-05
7.23649e-05
9.36848e-05
7.24343e-05
6.28149e-05
7.19211e-05
6.8552e-05
7.24341e-05
6.28191e-05
7.19233e-05
7.24905e-05
6.28357e-05
7.19315e-05
6.85679e-05
7.24909e-05
6.28385e-05
7.19337e-05
9.3684e-05
7.2364e-05
7.23575e-05
9.36866e-05
7.23725e-05
7.2366e-05
6.9936e-05
6.9931e-05
6.99408e-05
6.99357e-05
9.36742e-05
7.23639e-05
7.23571e-05
7.23555e-05
7.23486e-05
9.36713e-05
7.24197e-05
6.279e-05
6.85232e-05
7.1906e-05
7.19084e-05
6.27842e-05
7.24183e-05
7.24552e-05
6.28018e-05
6.85411e-05
7.19165e-05
7.19187e-05
6.28091e-05
7.24574e-05
7.24215e-05
7.19088e-05
6.85295e-05
6.27973e-05
7.19066e-05
7.24172e-05
6.27935e-05
7.24574e-05
7.19188e-05
6.85422e-05
6.2806e-05
7.19167e-05
7.24573e-05
6.28053e-05
9.36719e-05
7.23552e-05
7.23483e-05
7.23637e-05
7.23568e-05
9.36746e-05
6.99309e-05
6.99363e-05
6.99364e-05
6.99414e-05
9.36708e-05
7.23556e-05
7.23489e-05
9.36737e-05
7.2364e-05
7.23574e-05
7.24196e-05
6.27937e-05
6.85214e-05
7.19089e-05
7.19069e-05
6.27936e-05
7.24191e-05
7.24568e-05
6.27883e-05
6.854e-05
7.19191e-05
7.19169e-05
6.27957e-05
7.245e-05
7.24184e-05
7.19069e-05
6.27939e-05
6.8529e-05
7.24185e-05
7.19091e-05
6.27953e-05
7.2458e-05
7.19167e-05
6.28058e-05
6.85382e-05
7.24581e-05
7.19188e-05
6.28021e-05
9.36734e-05
7.2364e-05
7.23577e-05
7.23557e-05
7.23492e-05
9.36708e-05
7.05895e-05
7.03166e-05
7.01886e-05
6.69556e-05
7.0315e-05
7.01863e-05
7.05922e-05
7.05285e-05
7.20841e-05
7.86372e-05
7.86384e-05
7.05196e-05
7.05196e-05
7.8639e-05
7.20828e-05
7.86379e-05
7.05284e-05
7.05923e-05
6.69598e-05
7.03159e-05
7.01864e-05
7.03174e-05
7.01886e-05
7.05896e-05
7.05839e-05
7.03123e-05
7.01635e-05
6.69587e-05
7.0581e-05
7.03142e-05
7.01667e-05
7.05102e-05
7.20753e-05
7.85953e-05
7.05197e-05
7.85961e-05
7.05196e-05
7.85975e-05
7.20763e-05
7.05103e-05
7.85946e-05
7.05809e-05
6.69576e-05
7.03144e-05
7.01685e-05
7.05838e-05
7.03123e-05
7.01655e-05
7.0592e-05
7.03143e-05
7.01861e-05
6.69567e-05
7.05893e-05
7.0316e-05
7.01882e-05
7.05195e-05
7.20834e-05
7.86407e-05
7.86395e-05
7.05283e-05
7.05284e-05
7.86386e-05
7.20846e-05
7.05196e-05
7.86399e-05
7.05891e-05
6.69525e-05
7.03156e-05
7.01873e-05
7.03138e-05
7.01854e-05
7.05917e-05
9.36498e-05
7.2352e-05
7.23582e-05
7.23436e-05
7.23496e-05
9.36472e-05
7.24367e-05
6.27647e-05
6.85265e-05
7.1911e-05
7.19128e-05
6.27656e-05
7.24439e-05
7.23806e-05
6.27513e-05
6.85163e-05
7.18978e-05
6.27575e-05
7.18999e-05
7.23788e-05
7.2432e-05
7.19124e-05
6.85325e-05
6.2769e-05
7.19105e-05
6.27586e-05
7.24253e-05
7.23825e-05
7.19001e-05
6.85173e-05
6.27492e-05
6.27576e-05
7.18979e-05
7.23803e-05
9.36473e-05
7.23434e-05
7.23492e-05
7.23518e-05
7.23577e-05
9.36499e-05
6.99339e-05
6.99285e-05
6.99312e-05
6.99365e-05
9.36476e-05
7.23437e-05
7.235e-05
9.36499e-05
7.23522e-05
7.23587e-05
7.24264e-05
6.27801e-05
6.85331e-05
7.19118e-05
6.27764e-05
7.19099e-05
7.24211e-05
7.2381e-05
6.27583e-05
6.85143e-05
7.19011e-05
7.18987e-05
6.27515e-05
7.23733e-05
7.24278e-05
7.19101e-05
6.2769e-05
6.85323e-05
6.27741e-05
7.24332e-05
7.19121e-05
7.23832e-05
7.18982e-05
6.27575e-05
6.85119e-05
7.23772e-05
7.19005e-05
6.27626e-05
9.36505e-05
7.23525e-05
7.23593e-05
7.2344e-05
7.23506e-05
9.36482e-05
6.99295e-05
6.99348e-05
7.05798e-05
7.03166e-05
7.01638e-05
6.69798e-05
7.03147e-05
7.0161e-05
7.05825e-05
7.05196e-05
7.20784e-05
7.86056e-05
7.86069e-05
7.05101e-05
7.05102e-05
7.86075e-05
7.20773e-05
7.86069e-05
7.05197e-05
7.05828e-05
6.69822e-05
7.03147e-05
7.01596e-05
7.03166e-05
7.01623e-05
7.05801e-05
7.05956e-05
7.01781e-05
7.03184e-05
6.69708e-05
7.05923e-05
7.01838e-05
7.03206e-05
7.05214e-05
7.20882e-05
7.86155e-05
7.05309e-05
7.8615e-05
7.05295e-05
7.86134e-05
7.20891e-05
7.05201e-05
7.86123e-05
7.05934e-05
6.69776e-05
7.0188e-05
7.03212e-05
7.05965e-05
7.01838e-05
7.03191e-05
7.05822e-05
7.03146e-05
7.01627e-05
6.69804e-05
7.05795e-05
7.03164e-05
7.01656e-05
7.051e-05
7.20778e-05
7.86011e-05
7.86055e-05
7.05191e-05
7.05196e-05
7.86077e-05
7.2079e-05
7.05103e-05
7.8608e-05
7.05791e-05
6.69786e-05
7.03162e-05
7.01672e-05
7.03144e-05
7.01643e-05
7.05818e-05
7.05934e-05
7.01916e-05
7.03263e-05
6.69975e-05
7.01906e-05
7.03244e-05
7.05961e-05
7.05265e-05
7.2082e-05
7.86194e-05
7.8617e-05
7.05174e-05
7.05181e-05
7.86177e-05
7.2081e-05
7.8618e-05
7.05274e-05
7.05962e-05
6.70003e-05
7.01943e-05
7.03247e-05
7.01946e-05
7.03265e-05
7.05936e-05
7.05925e-05
7.03294e-05
7.02152e-05
6.70265e-05
7.03276e-05
7.02142e-05
7.0595e-05
7.05257e-05
7.20902e-05
7.86294e-05
7.86293e-05
7.05172e-05
7.05165e-05
7.8626e-05
7.20884e-05
7.86262e-05
7.05251e-05
7.05956e-05
6.70289e-05
7.03279e-05
7.02167e-05
7.03297e-05
7.02179e-05
7.05932e-05
7.05963e-05
7.01881e-05
7.03242e-05
6.69951e-05
7.05934e-05
7.01896e-05
7.03262e-05
7.05204e-05
7.20828e-05
7.86273e-05
7.8625e-05
7.05299e-05
7.05286e-05
7.86189e-05
7.20837e-05
7.05191e-05
7.86212e-05
7.05936e-05
6.69908e-05
7.01885e-05
7.03263e-05
7.01868e-05
7.03242e-05
7.05966e-05
7.05944e-05
7.03273e-05
7.02117e-05
6.70252e-05
7.05919e-05
7.03291e-05
7.02131e-05
7.05158e-05
7.2087e-05
7.86202e-05
7.86206e-05
7.05246e-05
7.05248e-05
7.86244e-05
7.20886e-05
7.05161e-05
7.86247e-05
7.05914e-05
6.7023e-05
7.03288e-05
7.02117e-05
7.0327e-05
7.02099e-05
7.0594e-05
9.36683e-05
7.23509e-05
7.23573e-05
7.23423e-05
7.23487e-05
9.3666e-05
7.24538e-05
6.28208e-05
6.85353e-05
7.19109e-05
7.19132e-05
6.28152e-05
7.24574e-05
7.24195e-05
6.28182e-05
6.85422e-05
7.19055e-05
6.28165e-05
7.19077e-05
7.24194e-05
7.24653e-05
7.19139e-05
6.85385e-05
6.28147e-05
7.19115e-05
6.28057e-05
7.24595e-05
7.24215e-05
7.19081e-05
6.85416e-05
6.28165e-05
6.28056e-05
7.19058e-05
7.24213e-05
9.36653e-05
7.23419e-05
7.23483e-05
7.23504e-05
7.23569e-05
9.36677e-05
6.99374e-05
6.99324e-05
6.99319e-05
6.99372e-05
9.36663e-05
7.23428e-05
7.23492e-05
9.36687e-05
7.23513e-05
7.23578e-05
7.24608e-05
6.28197e-05
6.85405e-05
7.19149e-05
6.28165e-05
7.19125e-05
7.24598e-05
7.2423e-05
6.28155e-05
6.85468e-05
7.19094e-05
7.1907e-05
6.28097e-05
7.24194e-05
7.24591e-05
7.19121e-05
6.2816e-05
6.85392e-05
6.28081e-05
7.24622e-05
7.19144e-05
7.24212e-05
7.19063e-05
6.28161e-05
6.85453e-05
7.24169e-05
7.19088e-05
6.28092e-05
9.36692e-05
7.23518e-05
7.23583e-05
7.23432e-05
7.23497e-05
9.36668e-05
6.99336e-05
6.99386e-05
7.05866e-05
7.01812e-05
7.032e-05
6.6991e-05
7.01797e-05
7.03185e-05
7.05888e-05
7.05243e-05
7.20847e-05
7.86187e-05
7.86218e-05
7.05153e-05
7.05155e-05
7.86215e-05
7.20838e-05
7.86205e-05
7.05243e-05
7.05901e-05
6.69971e-05
7.01946e-05
7.03196e-05
7.01858e-05
7.03211e-05
7.05879e-05
7.05873e-05
7.02032e-05
7.03199e-05
6.69961e-05
7.02008e-05
7.03184e-05
7.05901e-05
7.05226e-05
7.20899e-05
7.86265e-05
7.86264e-05
7.0513e-05
7.05132e-05
7.86257e-05
7.20885e-05
7.86273e-05
7.05228e-05
7.05904e-05
6.69976e-05
7.02e-05
7.03194e-05
7.02022e-05
7.03209e-05
7.05877e-05
7.05878e-05
7.01787e-05
7.03173e-05
6.69882e-05
7.05854e-05
7.01805e-05
7.03189e-05
7.05148e-05
7.20847e-05
7.86174e-05
7.86157e-05
7.05233e-05
7.05239e-05
7.86195e-05
7.20859e-05
7.05152e-05
7.86201e-05
7.05844e-05
6.69788e-05
7.01804e-05
7.03178e-05
7.01783e-05
7.03162e-05
7.05869e-05
7.05897e-05
7.02019e-05
7.03175e-05
6.69971e-05
7.0587e-05
7.02043e-05
7.03191e-05
7.0514e-05
7.20891e-05
7.8631e-05
7.8634e-05
7.05233e-05
7.05233e-05
7.86296e-05
7.20903e-05
7.05135e-05
7.86325e-05
7.05865e-05
6.69953e-05
7.02021e-05
7.03184e-05
7.02014e-05
7.03167e-05
7.05891e-05
6.99448e-05
6.99395e-05
6.99462e-05
6.99409e-05
9.36832e-05
7.23634e-05
7.2357e-05
9.36856e-05
7.23719e-05
7.23654e-05
7.2431e-05
6.28183e-05
6.85528e-05
7.19229e-05
7.24311e-05
6.28188e-05
7.19205e-05
7.24894e-05
6.28337e-05
6.85632e-05
7.19333e-05
7.24881e-05
6.28185e-05
7.19311e-05
7.24295e-05
7.19201e-05
6.28181e-05
6.85458e-05
7.2432e-05
6.28217e-05
7.19223e-05
7.24871e-05
7.19308e-05
6.28158e-05
6.85633e-05
7.24866e-05
6.28228e-05
7.1933e-05
9.36861e-05
7.23722e-05
7.23657e-05
9.36837e-05
7.23637e-05
7.23573e-05
6.99396e-05
6.99447e-05
6.99411e-05
6.99463e-05
7.05246e-05
7.86181e-05
7.20878e-05
7.05158e-05
7.86163e-05
7.05937e-05
6.70227e-05
7.03267e-05
7.02088e-05
7.05911e-05
7.03285e-05
7.02108e-05
7.20899e-05
6.99449e-05
6.99467e-05
2.17474e-05
2.17511e-05
2.95997e-05
2.17522e-05
2.17578e-05
1.37767e-05
1.37753e-05
6.33028e-05
5.56848e-05
5.57121e-05
4.84244e-05
5.56783e-05
5.57073e-05
6.33078e-05
6.32945e-05
5.56925e-05
5.57105e-05
4.84183e-05
6.32924e-05
5.56913e-05
5.57066e-05
6.32518e-05
5.56859e-05
5.56951e-05
4.83827e-05
5.56793e-05
5.56898e-05
6.32717e-05
6.32668e-05
4.84177e-05
5.57033e-05
5.5659e-05
5.57079e-05
5.56673e-05
6.32644e-05
6.32394e-05
5.56527e-05
5.56635e-05
4.83527e-05
5.56451e-05
5.56464e-05
6.32493e-05
6.32437e-05
4.839e-05
5.56578e-05
5.56585e-05
5.56727e-05
5.56577e-05
6.32422e-05
6.32946e-05
5.56869e-05
5.57163e-05
4.84069e-05
5.56906e-05
5.56795e-05
6.3295e-05
6.32837e-05
4.84368e-05
5.57017e-05
5.57298e-05
5.57083e-05
5.57348e-05
6.32894e-05
6.32766e-05
4.84532e-05
5.56769e-05
5.57243e-05
6.3283e-05
5.5702e-05
5.57276e-05
2.1741e-05
2.17486e-05
2.95887e-05
2.17449e-05
2.17567e-05
1.37676e-05
1.3766e-05
2.1745e-05
2.176e-05
2.96051e-05
2.17512e-05
2.17663e-05
1.37694e-05
1.3768e-05
2.17637e-05
2.17661e-05
2.96355e-05
2.17677e-05
2.17703e-05
1.37717e-05
1.37698e-05
2.96013e-05
2.17553e-05
2.1759e-05
2.17539e-05
2.17553e-05
1.37787e-05
1.37808e-05
2.95907e-05
2.17489e-05
2.17588e-05
2.17468e-05
2.17558e-05
1.37717e-05
1.37727e-05
2.9606e-05
2.1753e-05
2.17679e-05
2.17512e-05
2.17668e-05
1.3773e-05
1.3775e-05
2.96356e-05
2.17726e-05
2.1775e-05
2.177e-05
2.17726e-05
1.37759e-05
1.37782e-05
5.18912e-05
5.957e-05
5.0261e-05
5.7645e-05
5.95677e-05
5.0277e-05
5.18638e-05
5.34863e-05
5.71594e-05
6.28347e-05
6.18394e-05
5.71534e-05
6.18319e-05
5.34985e-05
5.34795e-05
6.18431e-05
6.28365e-05
5.71517e-05
5.71584e-05
6.18384e-05
5.3462e-05
5.18464e-05
5.76489e-05
5.95726e-05
5.02691e-05
5.95712e-05
5.02531e-05
5.19002e-05
5.18729e-05
5.02311e-05
5.95834e-05
5.76463e-05
5.02732e-05
5.95789e-05
5.184e-05
5.34455e-05
5.72043e-05
6.28622e-05
6.18516e-05
5.71984e-05
6.18504e-05
5.34551e-05
5.34409e-05
6.18664e-05
6.28637e-05
5.71971e-05
5.72032e-05
6.18606e-05
5.34326e-05
5.18474e-05
5.76492e-05
5.02673e-05
5.95967e-05
5.02502e-05
5.95953e-05
5.18826e-05
6.32955e-05
4.84537e-05
5.56899e-05
5.56958e-05
5.56945e-05
5.57192e-05
6.33034e-05
6.32559e-05
4.84142e-05
5.56874e-05
5.56978e-05
6.32489e-05
5.56941e-05
5.57028e-05
6.3261e-05
4.83868e-05
5.57012e-05
5.56827e-05
6.32464e-05
5.56945e-05
5.5678e-05
5.18661e-05
5.95315e-05
5.02566e-05
5.75889e-05
5.95272e-05
5.02834e-05
5.18447e-05
5.34627e-05
5.71672e-05
6.28299e-05
6.18e-05
6.18146e-05
5.71627e-05
5.34755e-05
5.34828e-05
6.18163e-05
6.28284e-05
5.71653e-05
6.18065e-05
5.71695e-05
5.34695e-05
5.18433e-05
5.75978e-05
5.95179e-05
5.02769e-05
5.95142e-05
5.02591e-05
5.18664e-05
5.18698e-05
5.95787e-05
5.02582e-05
5.76188e-05
5.95691e-05
5.02764e-05
5.18432e-05
5.34564e-05
5.71652e-05
6.28275e-05
6.18334e-05
6.1835e-05
5.71594e-05
5.34695e-05
5.34757e-05
6.1829e-05
6.28215e-05
5.71593e-05
6.18245e-05
5.34434e-05
5.71651e-05
5.18384e-05
5.76221e-05
5.95458e-05
5.02731e-05
5.95549e-05
5.02575e-05
5.18613e-05
5.18397e-05
5.95347e-05
5.02853e-05
5.76019e-05
5.1871e-05
5.95544e-05
5.02646e-05
5.34964e-05
5.71702e-05
6.28326e-05
6.18308e-05
5.71745e-05
6.18173e-05
5.34835e-05
5.34764e-05
6.18137e-05
5.7172e-05
6.28338e-05
5.71678e-05
5.34899e-05
6.18208e-05
5.18752e-05
5.76141e-05
5.95759e-05
5.02603e-05
5.9548e-05
5.02891e-05
5.18534e-05
5.18441e-05
5.95793e-05
5.0276e-05
5.76151e-05
5.18658e-05
5.95845e-05
5.02608e-05
5.34382e-05
5.71588e-05
6.28316e-05
6.18414e-05
6.18382e-05
5.71644e-05
5.34268e-05
5.34177e-05
6.18216e-05
5.71644e-05
6.28318e-05
5.34329e-05
6.18363e-05
5.71587e-05
5.18666e-05
5.76115e-05
5.95855e-05
5.02619e-05
5.95823e-05
5.02778e-05
5.18456e-05
6.32492e-05
4.83841e-05
5.56551e-05
5.56584e-05
5.56665e-05
5.56613e-05
6.32503e-05
6.3238e-05
4.83567e-05
5.56696e-05
5.56725e-05
5.5653e-05
6.32368e-05
5.56677e-05
5.18089e-05
5.95803e-05
5.02259e-05
5.76133e-05
5.95787e-05
5.02421e-05
5.17772e-05
5.34345e-05
5.71817e-05
6.28585e-05
6.18478e-05
6.18505e-05
5.71758e-05
5.34469e-05
5.34551e-05
6.18515e-05
6.28586e-05
5.71753e-05
6.18502e-05
5.71813e-05
5.34419e-05
5.18072e-05
5.76163e-05
5.95794e-05
5.0236e-05
5.9583e-05
5.02201e-05
5.18325e-05
5.18712e-05
5.02533e-05
5.95348e-05
5.76128e-05
5.02716e-05
5.95436e-05
5.18512e-05
5.34742e-05
5.71941e-05
6.28485e-05
6.18349e-05
6.18297e-05
5.71883e-05
5.34855e-05
5.34915e-05
6.18343e-05
6.28451e-05
5.71882e-05
6.1821e-05
5.3473e-05
5.7194e-05
5.18462e-05
5.76172e-05
5.02709e-05
5.95419e-05
5.02501e-05
5.95447e-05
5.18688e-05
5.17744e-05
5.95577e-05
5.02475e-05
5.76034e-05
5.18105e-05
5.95602e-05
5.0231e-05
5.34697e-05
5.71758e-05
6.28523e-05
6.184e-05
5.71812e-05
6.184e-05
5.3461e-05
5.34488e-05
6.18396e-05
5.7181e-05
6.28546e-05
5.71753e-05
5.34622e-05
6.1845e-05
5.1816e-05
5.75975e-05
5.95428e-05
5.0239e-05
5.95414e-05
5.02549e-05
5.17949e-05
5.1852e-05
5.02744e-05
5.95406e-05
5.76079e-05
5.18754e-05
5.02526e-05
5.95414e-05
5.3481e-05
5.71887e-05
6.28429e-05
6.1833e-05
6.18322e-05
5.71945e-05
5.34658e-05
5.34865e-05
6.18259e-05
5.71942e-05
6.28352e-05
5.34982e-05
6.18345e-05
5.71888e-05
5.18854e-05
5.75996e-05
5.02591e-05
5.9568e-05
5.02767e-05
5.95379e-05
5.18529e-05
5.1923e-05
5.03139e-05
5.96095e-05
5.76707e-05
5.03397e-05
5.96087e-05
5.18727e-05
5.35137e-05
5.72146e-05
6.28743e-05
6.18716e-05
5.72091e-05
6.18745e-05
5.35248e-05
5.35069e-05
6.18636e-05
6.28695e-05
5.72079e-05
5.72141e-05
6.1861e-05
5.34888e-05
5.18979e-05
5.76792e-05
5.03408e-05
5.96167e-05
5.03186e-05
5.96187e-05
5.19213e-05
5.18688e-05
5.95554e-05
5.02832e-05
5.76449e-05
5.18892e-05
5.95599e-05
5.02676e-05
5.34865e-05
5.71474e-05
6.28296e-05
6.18498e-05
5.34731e-05
5.71547e-05
6.18475e-05
5.3466e-05
6.18441e-05
5.71567e-05
6.28297e-05
5.34796e-05
5.71502e-05
6.18472e-05
5.18913e-05
5.76419e-05
5.95456e-05
5.02759e-05
5.18697e-05
5.95516e-05
5.02917e-05
5.18885e-05
5.03317e-05
5.96049e-05
5.76624e-05
5.19168e-05
5.0307e-05
5.9607e-05
5.35115e-05
5.72067e-05
6.28664e-05
6.18586e-05
6.18513e-05
5.72127e-05
5.3498e-05
5.34904e-05
6.18523e-05
5.72132e-05
6.28671e-05
5.35058e-05
6.18536e-05
5.72074e-05
5.19135e-05
5.76595e-05
5.03087e-05
5.96064e-05
5.03314e-05
5.96032e-05
5.18941e-05
6.32976e-05
4.84365e-05
5.56883e-05
5.57087e-05
5.57171e-05
5.56939e-05
6.32974e-05
6.32923e-05
4.84059e-05
5.57017e-05
5.57274e-05
5.56952e-05
6.3287e-05
5.57217e-05
5.19284e-05
5.02967e-05
5.95952e-05
5.76453e-05
5.03215e-05
5.95842e-05
5.18995e-05
5.35315e-05
5.72249e-05
6.28773e-05
6.18702e-05
5.72193e-05
6.18723e-05
5.3547e-05
5.35484e-05
6.18667e-05
6.28685e-05
5.7219e-05
5.72249e-05
6.18621e-05
5.35153e-05
5.18859e-05
5.76302e-05
5.03152e-05
5.95721e-05
5.02971e-05
5.95769e-05
5.1918e-05
5.1834e-05
5.02169e-05
5.95764e-05
5.76449e-05
5.18753e-05
5.01981e-05
5.95756e-05
5.344e-05
5.71935e-05
6.28718e-05
6.18724e-05
5.34346e-05
5.71999e-05
6.18702e-05
5.34159e-05
6.18674e-05
5.72017e-05
6.28701e-05
5.34306e-05
5.71952e-05
6.18703e-05
5.18729e-05
5.76278e-05
5.02082e-05
5.95947e-05
5.18435e-05
5.02225e-05
5.95861e-05
5.19079e-05
5.03236e-05
5.96113e-05
5.76629e-05
5.19321e-05
5.03014e-05
5.96222e-05
5.35046e-05
5.72165e-05
6.28688e-05
6.18665e-05
6.18692e-05
5.72226e-05
5.34914e-05
5.34859e-05
6.18708e-05
5.72237e-05
6.28765e-05
5.35031e-05
6.18729e-05
5.72176e-05
5.19293e-05
5.76568e-05
5.02955e-05
5.96302e-05
5.03137e-05
5.96243e-05
5.18953e-05
6.32848e-05
4.84223e-05
5.57012e-05
5.57206e-05
6.32967e-05
5.56779e-05
5.57159e-05
5.35039e-05
5.7212e-05
6.18561e-05
6.28611e-05
5.72065e-05
5.35183e-05
6.18586e-05
5.18922e-05
5.76389e-05
5.03311e-05
5.95981e-05
5.02828e-05
5.1917e-05
5.96003e-05
5.72214e-05
6.28609e-05
5.72152e-05
2.09859e-05
3.66541e-05
3.66593e-05
4.19061e-05
2.17178e-05
3.75516e-05
3.75579e-05
4.26109e-05
2.24559e-05
3.84161e-05
3.84232e-05
4.32858e-05
2.31913e-05
3.92407e-05
3.92473e-05
4.39211e-05
2.39132e-05
4.00164e-05
4.00209e-05
4.44951e-05
2.4611e-05
4.07353e-05
4.07366e-05
4.50226e-05
2.52762e-05
4.13927e-05
4.13874e-05
4.55099e-05
2.5901e-05
4.19845e-05
4.19738e-05
4.59421e-05
2.64805e-05
4.25138e-05
4.25004e-05
4.63775e-05
2.70088e-05
4.29756e-05
4.2963e-05
4.67584e-05
2.74844e-05
4.33791e-05
4.33688e-05
4.70807e-05
2.79073e-05
4.37319e-05
4.37252e-05
4.73521e-05
2.82794e-05
4.40318e-05
4.40289e-05
4.75781e-05
2.86041e-05
4.42817e-05
4.42832e-05
4.77779e-05
2.88799e-05
4.44921e-05
4.44958e-05
4.79497e-05
2.91011e-05
4.46595e-05
4.46668e-05
4.80934e-05
2.92662e-05
4.47884e-05
4.4798e-05
4.82138e-05
2.93812e-05
4.48821e-05
4.48897e-05
4.83092e-05
2.94575e-05
4.49389e-05
4.49475e-05
4.83827e-05
2.95071e-05
4.49728e-05
4.49863e-05
4.84328e-05
2.95389e-05
4.49887e-05
4.50037e-05
4.84553e-05
2.95533e-05
4.49951e-05
4.50089e-05
4.84453e-05
2.95615e-05
4.49951e-05
4.50125e-05
4.84397e-05
2.95706e-05
4.49928e-05
4.50166e-05
4.84478e-05
2.9582e-05
4.49931e-05
4.50233e-05
4.84598e-05
4.1916e-05
4.24558e-05
3.66518e-05
3.66472e-05
3.73223e-05
3.73198e-05
4.19058e-05
4.24595e-05
3.6649e-05
3.66491e-05
3.73198e-05
3.73215e-05
3.66467e-05
3.73155e-05
3.73192e-05
4.19042e-05
4.24642e-05
3.66459e-05
3.73215e-05
3.73181e-05
4.24507e-05
4.26161e-05
4.31334e-05
3.75472e-05
3.75432e-05
3.8194e-05
3.81916e-05
4.26075e-05
4.3141e-05
3.75447e-05
3.75448e-05
3.8191e-05
3.8193e-05
3.75425e-05
3.81887e-05
3.81911e-05
4.26093e-05
4.31291e-05
3.75414e-05
3.81955e-05
3.81897e-05
4.31417e-05
4.32954e-05
4.3766e-05
3.841e-05
3.84059e-05
3.9027e-05
3.90251e-05
4.32837e-05
4.37857e-05
3.84071e-05
3.8407e-05
3.90235e-05
3.90249e-05
3.84054e-05
3.90241e-05
3.90256e-05
4.32936e-05
4.37799e-05
3.8404e-05
3.90306e-05
3.90238e-05
4.37656e-05
4.39194e-05
4.43791e-05
3.92316e-05
3.92281e-05
3.98127e-05
3.98113e-05
4.39087e-05
4.43533e-05
3.92283e-05
3.92274e-05
3.98089e-05
3.98084e-05
3.92291e-05
3.98131e-05
3.98144e-05
4.39269e-05
4.43642e-05
3.9227e-05
3.98179e-05
3.98113e-05
4.43514e-05
4.44981e-05
4.49157e-05
4.00031e-05
4.00004e-05
4.05417e-05
4.05411e-05
4.44947e-05
4.49002e-05
3.99995e-05
3.99968e-05
4.05376e-05
4.05359e-05
4.00042e-05
4.05471e-05
4.0548e-05
4.44894e-05
4.49076e-05
4.00008e-05
4.05495e-05
4.0543e-05
4.49061e-05
4.50192e-05
4.53964e-05
4.07167e-05
4.07143e-05
4.12112e-05
4.12081e-05
4.50225e-05
4.541e-05
4.07127e-05
4.07087e-05
4.12048e-05
4.12017e-05
4.07221e-05
4.12212e-05
4.12195e-05
4.50243e-05
4.53828e-05
4.07167e-05
4.12175e-05
4.12119e-05
4.54002e-05
4.55093e-05
4.58602e-05
4.13702e-05
4.13643e-05
4.18178e-05
4.18092e-05
4.55153e-05
4.58496e-05
4.13633e-05
4.13577e-05
4.1808e-05
4.18041e-05
4.13765e-05
4.18301e-05
4.18251e-05
4.54972e-05
4.58276e-05
4.13685e-05
4.18204e-05
4.1815e-05
4.58477e-05
4.5946e-05
4.62947e-05
4.19605e-05
4.19493e-05
4.23638e-05
4.23483e-05
4.59375e-05
4.62933e-05
4.19497e-05
4.19443e-05
4.23506e-05
4.23461e-05
4.19651e-05
4.23776e-05
4.23691e-05
4.59357e-05
4.62847e-05
4.19549e-05
4.2364e-05
4.23563e-05
4.62592e-05
4.64006e-05
4.66749e-05
4.24897e-05
4.24712e-05
4.28435e-05
4.2821e-05
4.63942e-05
4.66604e-05
4.24763e-05
4.24697e-05
4.28291e-05
4.28238e-05
4.24937e-05
4.28572e-05
4.28516e-05
4.63885e-05
4.66637e-05
4.24802e-05
4.28442e-05
4.28354e-05
4.66677e-05
4.6764e-05
4.69987e-05
4.2952e-05
4.29272e-05
4.32609e-05
4.3234e-05
4.67474e-05
4.69764e-05
4.29387e-05
4.29309e-05
4.32487e-05
4.32427e-05
4.29596e-05
4.3276e-05
4.32734e-05
4.67521e-05
4.69878e-05
4.29431e-05
4.3265e-05
4.32554e-05
4.69982e-05
4.70801e-05
4.72724e-05
4.33535e-05
4.33266e-05
4.3618e-05
4.35995e-05
4.70575e-05
4.72659e-05
4.33433e-05
4.33362e-05
4.36108e-05
4.3612e-05
4.33666e-05
4.36428e-05
4.36378e-05
4.70707e-05
4.72858e-05
4.3349e-05
4.36356e-05
4.36221e-05
4.72809e-05
4.73418e-05
4.75e-05
4.36951e-05
4.36794e-05
4.39213e-05
4.39154e-05
4.73415e-05
4.75165e-05
4.36901e-05
4.36923e-05
4.39185e-05
4.3931e-05
4.37148e-05
4.39577e-05
4.3942e-05
4.73602e-05
4.7535e-05
4.37012e-05
4.39543e-05
4.39339e-05
4.75134e-05
4.7564e-05
4.77083e-05
4.39868e-05
4.3982e-05
4.41845e-05
4.41813e-05
4.75819e-05
4.77159e-05
4.39846e-05
4.39983e-05
4.41828e-05
4.42015e-05
4.40058e-05
4.42202e-05
4.42011e-05
4.76005e-05
4.77396e-05
4.39989e-05
4.42206e-05
4.41961e-05
4.7718e-05
4.7768e-05
4.78886e-05
4.42409e-05
4.42353e-05
4.44115e-05
4.44021e-05
4.77725e-05
4.78828e-05
4.42398e-05
4.42566e-05
4.44091e-05
4.44245e-05
4.42553e-05
4.44417e-05
4.44228e-05
4.77971e-05
4.79064e-05
4.42504e-05
4.44448e-05
4.44177e-05
4.7895e-05
4.7941e-05
4.80224e-05
4.44571e-05
4.44458e-05
4.45927e-05
4.45816e-05
4.79352e-05
4.8024e-05
4.44545e-05
4.44679e-05
4.45885e-05
4.4603e-05
4.44676e-05
4.4621e-05
4.46038e-05
4.7958e-05
4.80464e-05
4.4463e-05
4.46265e-05
4.46006e-05
4.80442e-05
4.80661e-05
4.81221e-05
4.46263e-05
4.46161e-05
4.47258e-05
4.47246e-05
4.80704e-05
4.81392e-05
4.46219e-05
4.4636e-05
4.47223e-05
4.47383e-05
4.46374e-05
4.47589e-05
4.47429e-05
4.80933e-05
4.81691e-05
4.46356e-05
4.47687e-05
4.47418e-05
4.81689e-05
4.81643e-05
4.8219e-05
4.47499e-05
4.47511e-05
4.48241e-05
4.48321e-05
4.81836e-05
4.82345e-05
4.47472e-05
4.47625e-05
4.48248e-05
4.48398e-05
4.47676e-05
4.48628e-05
4.48472e-05
4.82146e-05
4.82698e-05
4.47671e-05
4.48714e-05
4.48477e-05
4.82695e-05
4.82578e-05
4.82922e-05
4.48428e-05
4.48513e-05
4.48998e-05
4.4908e-05
4.82741e-05
4.83079e-05
4.48432e-05
4.48583e-05
4.4898e-05
4.49156e-05
4.48661e-05
4.49283e-05
4.49297e-05
4.83068e-05
4.83324e-05
4.48666e-05
4.49372e-05
4.49258e-05
4.83464e-05
4.83271e-05
4.83453e-05
4.49125e-05
4.4919e-05
4.49481e-05
4.49506e-05
4.8342e-05
4.83503e-05
4.491e-05
4.49281e-05
4.49444e-05
4.49624e-05
4.49451e-05
4.49682e-05
4.49876e-05
4.83656e-05
4.83691e-05
4.49386e-05
4.49813e-05
4.49795e-05
4.84005e-05
4.83755e-05
4.83744e-05
4.49552e-05
4.4958e-05
4.4974e-05
4.49745e-05
4.83792e-05
4.83737e-05
4.49521e-05
4.49699e-05
4.49689e-05
4.49864e-05
4.49959e-05
4.4987e-05
4.50163e-05
4.83665e-05
4.83378e-05
4.4989e-05
4.50015e-05
4.50136e-05
4.84252e-05
4.83991e-05
4.83845e-05
4.49784e-05
4.49793e-05
4.49864e-05
4.49838e-05
4.83977e-05
4.83762e-05
4.49734e-05
4.49907e-05
4.49797e-05
4.49999e-05
4.50223e-05
4.49947e-05
4.50291e-05
4.83662e-05
4.83575e-05
4.50196e-05
4.50086e-05
4.50288e-05
4.84232e-05
4.8416e-05
4.83904e-05
4.49889e-05
4.49845e-05
4.49914e-05
4.49852e-05
4.83979e-05
4.83643e-05
4.49819e-05
4.50029e-05
4.49858e-05
4.5008e-05
4.50306e-05
4.49959e-05
4.50332e-05
4.83864e-05
4.83751e-05
4.50312e-05
4.50116e-05
4.50338e-05
4.84179e-05
4.84117e-05
4.8384e-05
4.49926e-05
4.49865e-05
4.49915e-05
4.49898e-05
4.83936e-05
4.83534e-05
4.49875e-05
4.50097e-05
4.49925e-05
4.5011e-05
4.50343e-05
4.4993e-05
4.50396e-05
4.84076e-05
4.83908e-05
4.50355e-05
4.5016e-05
4.50423e-05
4.84224e-05
4.84077e-05
4.83808e-05
4.49921e-05
4.49939e-05
4.49914e-05
4.49975e-05
4.83829e-05
4.83519e-05
4.49937e-05
4.5012e-05
4.49998e-05
4.50125e-05
4.5042e-05
4.49929e-05
4.50471e-05
4.84237e-05
4.84073e-05
4.50444e-05
4.50221e-05
4.50508e-05
4.8432e-05
4.84116e-05
4.83807e-05
4.49914e-05
4.49971e-05
4.49924e-05
4.49957e-05
4.83813e-05
4.83516e-05
4.50026e-05
4.50143e-05
4.5007e-05
4.50149e-05
4.50484e-05
4.49932e-05
4.50504e-05
4.84303e-05
4.84111e-05
4.5054e-05
4.5029e-05
4.50542e-05
4.84256e-05
6.48826e-05
7.13078e-05
7.13366e-05
6.47783e-05
6.94631e-05
6.94808e-05
6.48797e-05
7.13123e-05
7.13413e-05
6.47783e-05
2.0977e-05
2.0981e-05
2.09767e-05
2.15167e-05
2.15192e-05
2.15234e-05
2.15223e-05
5.35154e-05
6.02455e-05
2.89802e-05
3.68669e-05
6.0365e-05
2.91996e-05
5.33142e-05
6.94607e-05
6.94784e-05
5.3518e-05
2.89892e-05
6.02481e-05
3.68722e-05
2.92087e-05
6.0373e-05
5.33185e-05
6.69516e-05
6.69617e-05
4.21011e-05
6.70153e-05
6.70274e-05
6.51203e-05
7.13741e-05
6.50231e-05
7.13991e-05
6.94946e-05
6.9511e-05
6.51205e-05
7.13771e-05
6.50224e-05
7.14051e-05
2.17083e-05
2.17126e-05
2.17073e-05
2.22539e-05
2.22567e-05
2.22612e-05
2.22591e-05
5.39812e-05
6.05444e-05
2.99288e-05
3.77565e-05
5.37932e-05
6.0659e-05
3.01449e-05
6.94918e-05
6.95084e-05
5.39839e-05
2.99387e-05
6.05473e-05
3.77629e-05
5.37941e-05
3.01548e-05
6.0666e-05
6.71351e-05
6.71454e-05
4.27835e-05
6.71958e-05
6.72077e-05
6.53414e-05
7.14332e-05
6.52534e-05
7.14586e-05
6.95227e-05
6.95376e-05
6.53481e-05
7.14387e-05
6.52533e-05
7.14642e-05
2.24458e-05
2.24503e-05
2.24442e-05
2.2991e-05
2.29945e-05
2.29986e-05
2.29966e-05
5.44224e-05
6.08281e-05
3.08611e-05
3.86114e-05
5.4244e-05
6.09348e-05
3.10722e-05
6.95201e-05
6.95354e-05
5.44213e-05
3.08716e-05
6.08301e-05
3.86184e-05
5.42436e-05
3.10825e-05
6.09399e-05
6.73071e-05
6.73181e-05
4.34615e-05
6.7362e-05
6.73744e-05
6.55429e-05
7.14902e-05
6.54594e-05
7.15101e-05
6.95466e-05
6.956e-05
6.55524e-05