/*--------------------------------*- C++ -*----------------------------------*\
| =========                 |                                                 |
| \\      /  F ield         | OpenFOAM: The Open Source CFD Toolbox           |
|  \\    /   O peration     | Version:  v1906                                 |
|   \\  /    A nd           | Web:      www.OpenFOAM.com                      |
|    \\/     M anipulation  |                                                 |
\*---------------------------------------------------------------------------*/
FoamFile
{
    version     2.0;
    format      ascii;
    class       volVectorField;
    location    "250";
    object      U;
}
// * * * * * * * * * * * * * * * * * * * * * * * * * * * * * * * * * * * * * //

dimensions      [0 1 -1 0 0 0 0];


internalField   nonuniform List<vector> 
42840
(
(-7.41915e-07 -9.77263e-07 0.113194)
(-4.53463e-07 4.11572e-07 0.107854)
(7.09825e-07 -5.47401e-07 0.107847)
(-3.60407e-05 -3.60072e-05 0.10432)
(-3.61539e-05 -3.60305e-05 0.10432)
(3.60922e-05 3.58196e-05 0.104327)
(-3.8117e-05 -3.8297e-05 0.104472)
(8.73989e-07 2.24496e-07 0.107853)
(-6.26683e-07 2.42125e-07 0.107849)
(9.13153e-07 3.60833e-07 0.107852)
(-6.89884e-07 2.90436e-07 0.107849)
(-3.59891e-05 3.56449e-05 0.104327)
(3.81951e-05 -3.84406e-05 0.104473)
(5.27814e-07 6.41713e-07 0.107853)
(4.35063e-07 -7.46328e-07 0.107846)
(5.59266e-07 7.31886e-07 0.107852)
(5.80295e-07 -6.81223e-07 0.107845)
(-4.32607e-07 -8.73365e-07 0.107843)
(-5.29398e-07 4.60052e-07 0.107853)
(-5.23724e-07 -8.36674e-07 0.107843)
(3.58849e-05 -3.60623e-05 0.104321)
(-3.80908e-05 3.82073e-05 0.104466)
(-6.89056e-07 -5.27823e-07 0.107843)
(7.86246e-07 -5.2047e-07 0.107846)
(-8.28477e-07 -5.69145e-07 0.107842)
(3.80372e-05 3.81136e-05 0.104465)
(-5.2782e-07 -7.78865e-07 0.107843)
(-8.40614e-07 -5.11848e-07 0.107843)
(-2.42643e-07 -1.26602e-05 0.0908788)
(7.78546e-07 1.0704e-05 0.0815527)
(-1.37557e-06 -1.04202e-05 0.0816083)
(-1.67301e-08 1.17131e-05 0.090828)
(-3.17206e-06 5.95078e-06 0.0708956)
(3.34475e-06 -5.73182e-06 0.0709555)
(-1.2647e-05 7.40241e-08 0.0908788)
(1.07629e-05 6.03691e-07 0.0815528)
(-1.04889e-05 -1.33987e-06 0.0816094)
(1.17354e-05 6.72445e-08 0.0908301)
(9.81284e-07 -1.0885e-06 0.113192)
(-9.2392e-07 9.24438e-07 0.113189)
(9.41634e-07 7.72816e-07 0.113185)
(-6.83023e-07 -9.17585e-07 0.113191)
(9.35604e-07 -1.09644e-06 0.11319)
(-8.79366e-07 1.01836e-06 0.113187)
(8.72008e-07 8.05531e-07 0.113183)
(1.98796e-05 -4.18158e-07 0.0983084)
(-1.61655e-05 5.68686e-06 0.0924888)
(-2.07543e-07 -3.24924e-07 0.110459)
(-4.91661e-07 4.35493e-07 0.107853)
(1.51357e-05 -6.60999e-06 0.0925538)
(-2.58027e-07 -3.11254e-07 0.110458)
(-1.91088e-05 -6.31237e-08 0.0982413)
(5.95368e-06 -2.96608e-06 0.0708921)
(-5.63804e-06 3.41532e-06 0.0709564)
(-2.5218e-07 1.97993e-05 0.098306)
(-9.22851e-08 -4.32784e-07 0.110455)
(5.82185e-06 -1.60999e-05 0.0924856)
(7.2958e-07 -5.48144e-07 0.107846)
(-1.04603e-07 -4.57191e-07 0.110454)
(-6.5395e-06 1.51742e-05 0.0925494)
(1.98863e-07 -1.91017e-05 0.0982385)
(-7.7201e-06 -5.64177e-06 0.0869262)
(-5.91139e-06 -7.48073e-06 0.086925)
(3.80578e-05 3.81012e-05 0.104465)
(7.06578e-06 5.83585e-06 0.0869811)
(5.54506e-06 7.27724e-06 0.0869791)
(-7.68477e-06 -5.54889e-06 0.0869265)
(-5.8695e-06 -7.57948e-06 0.0869251)
(3.18214e-06 5.89907e-06 0.0708979)
(-3.30236e-06 -5.72101e-06 0.0709573)
(5.93494e-06 3.12183e-06 0.0708971)
(-5.82007e-06 -3.23972e-06 0.0709571)
(5.79903e-06 7.50065e-06 0.0869273)
(7.63278e-06 5.61523e-06 0.0869249)
(-3.81527e-05 -3.83684e-05 0.104472)
(-5.66865e-06 -7.28376e-06 0.0869812)
(-7.21521e-06 -5.74372e-06 0.0869795)
(-3.33843e-06 -5.68333e-06 0.0709572)
(3.12476e-06 5.95372e-06 0.0708981)
(-5.86338e-06 -3.16097e-06 0.0709575)
(5.85012e-06 3.24999e-06 0.0708974)
(3.60392e-05 3.583e-05 0.104327)
(-5.74919e-06 -7.18869e-06 0.0869816)
(-7.32242e-06 -5.62374e-06 0.0869798)
(5.7136e-06 7.55415e-06 0.0869278)
(7.58286e-06 5.74814e-06 0.0869252)
(1.27753e-07 -1.26296e-05 0.0908775)
(-7.06124e-07 1.08176e-05 0.0815502)
(1.42717e-06 -1.04189e-05 0.0816059)
(2.6442e-08 1.17184e-05 0.0908272)
(-8.10807e-08 -2.00288e-05 0.09831)
(6.14841e-06 1.58334e-05 0.0924904)
(2.17269e-07 1.68673e-07 0.110463)
(8.98242e-07 2.83243e-07 0.107852)
(-6.26036e-06 -1.53659e-05 0.0925536)
(2.27081e-07 2.60427e-07 0.110462)
(3.77294e-07 1.89442e-05 0.098242)
(3.26777e-07 -2.01218e-05 0.0983082)
(-6.09175e-06 1.59903e-05 0.0924864)
(2.81285e-07 1.10932e-07 0.110462)
(-6.40515e-07 2.62858e-07 0.107849)
(6.31158e-06 -1.52938e-05 0.092551)
(2.85172e-07 1.49314e-07 0.110461)
(-1.12963e-07 1.89517e-05 0.0982397)
(-9.64637e-08 1.17286e-05 0.0908291)
(-1.43819e-06 -1.03734e-05 0.0816088)
(7.4187e-07 1.07665e-05 0.0815533)
(-2.12188e-07 -1.25376e-05 0.0908796)
(-4.57011e-08 1.17837e-05 0.0908277)
(1.55691e-06 -1.03765e-05 0.0816065)
(-6.01877e-07 1.08545e-05 0.0815508)
(1.20993e-07 -1.25377e-05 0.0908778)
(3.78363e-07 1.90228e-05 0.0982427)
(8.99734e-07 2.9109e-07 0.107852)
(-6.29262e-06 -1.52452e-05 0.0925541)
(2.21983e-07 3.11302e-07 0.110462)
(6.10181e-06 1.58713e-05 0.092491)
(2.26575e-07 2.62381e-07 0.110463)
(-1.30893e-07 -1.99922e-05 0.0983107)
(-1.12843e-07 1.89236e-05 0.0982409)
(-6.41862e-07 2.65069e-07 0.10785)
(6.46077e-06 -1.52852e-05 0.0925517)
(2.51047e-07 1.69552e-07 0.110461)
(-6.00239e-06 1.60403e-05 0.0924871)
(2.59971e-07 1.35266e-07 0.110462)
(3.15008e-07 -2.00282e-05 0.0983093)
(-5.73716e-06 7.56898e-06 0.086923)
(-7.68124e-06 5.50172e-06 0.0869241)
(3.82222e-05 -3.85087e-05 0.104473)
(5.73177e-06 -7.21815e-06 0.0869785)
(7.13409e-06 -5.77848e-06 0.0869809)
(-5.97572e-06 2.95335e-06 0.0708938)
(5.70151e-06 -3.32368e-06 0.0709577)
(3.47491e-06 -5.66395e-06 0.0709555)
(-3.03709e-06 6.02679e-06 0.0708956)
(-3.59813e-05 3.56595e-05 0.104327)
(5.82888e-06 -7.15582e-06 0.0869791)
(7.22047e-06 -5.68418e-06 0.0869818)
(-5.63238e-06 7.61515e-06 0.0869235)
(-7.54914e-06 5.58295e-06 0.0869249)
(5.76081e-06 -3.22891e-06 0.0709585)
(-5.9097e-06 3.01882e-06 0.0708944)
(-1.98669e-05 -1.06896e-07 0.0983086)
(1.59959e-05 5.74828e-06 0.0924891)
(3.55428e-07 -1.23416e-07 0.110462)
(5.46027e-07 6.59002e-07 0.107852)
(-1.52329e-05 -6.53103e-06 0.0925536)
(3.9143e-07 -1.07313e-07 0.110461)
(1.91588e-05 2.61948e-07 0.0982417)
(-1.26409e-05 3.67943e-07 0.0908782)
(1.08336e-05 -4.62898e-07 0.0815491)
(-1.02959e-05 1.58549e-06 0.0816068)
(1.18185e-05 1.49723e-07 0.0908294)
(-1.98849e-05 4.24606e-07 0.0983088)
(3.06521e-07 5.34887e-08 0.11046)
(1.60452e-05 -5.85725e-06 0.092486)
(4.85462e-07 -7.16888e-07 0.107846)
(3.85635e-07 1.06773e-07 0.110459)
(-1.52439e-05 6.52742e-06 0.0925511)
(1.91652e-05 -4.22945e-08 0.0982416)
(1.18254e-05 2.83191e-07 0.09083)
(-1.05363e-05 -1.25658e-06 0.0816097)
(1.07034e-05 7.26022e-07 0.0815531)
(-1.25944e-05 1.99426e-07 0.0908789)
(1.9231e-05 3.37485e-07 0.0982414)
(5.25661e-07 6.74688e-07 0.107853)
(-1.52664e-05 -6.35993e-06 0.0925537)
(4.78757e-07 -6.81716e-08 0.11046)
(1.60163e-05 5.89243e-06 0.0924893)
(4.03355e-07 -9.65881e-08 0.110462)
(-1.98007e-05 -5.32994e-08 0.0983084)
(1.17975e-05 3.05482e-07 0.0908296)
(-1.02958e-05 1.62494e-06 0.0816073)
(1.08706e-05 -4.46276e-07 0.0815497)
(-1.2599e-05 3.89921e-07 0.0908787)
(1.91969e-05 -1.96816e-09 0.0982417)
(5.05897e-07 -6.7578e-07 0.107846)
(5.03129e-07 1.32023e-07 0.110459)
(-1.51438e-05 6.51538e-06 0.0925515)
(4.16951e-07 1.24036e-07 0.110459)
(1.60078e-05 -5.78555e-06 0.0924865)
(-1.981e-05 3.67874e-07 0.0983089)
(1.25548e-05 -3.1879e-07 0.0908783)
(-1.08952e-05 3.81388e-07 0.0815507)
(1.03398e-05 -1.52642e-06 0.081608)
(-1.17929e-05 -1.53342e-07 0.0908288)
(1.98956e-05 2.09831e-07 0.0983069)
(-2.72425e-07 -1.09886e-07 0.110456)
(-1.60553e-05 -5.97795e-06 0.0924875)
(-4.58895e-07 -8.85997e-07 0.107843)
(-2.76954e-07 -7.97496e-08 0.110455)
(1.51424e-05 6.45453e-06 0.092551)
(-1.91957e-05 -2.7491e-07 0.0982399)
(1.24825e-05 4.97538e-08 0.0908772)
(-1.09164e-05 -5.00361e-07 0.0815518)
(1.02803e-05 1.60015e-06 0.0816066)
(-1.18925e-05 -1.12978e-07 0.0908277)
(-1.91403e-05 3.36595e-09 0.0982412)
(-4.84776e-07 4.22427e-07 0.107854)
(1.5281e-05 -6.5402e-06 0.0925544)
(-3.61036e-07 -2.80063e-07 0.110458)
(-1.60321e-05 5.70751e-06 0.0924894)
(-2.73566e-07 -3.0644e-07 0.110459)
(1.99372e-05 -3.46442e-07 0.0983084)
(-1.1803e-05 -1.81982e-07 0.0908287)
(1.04106e-05 -1.41828e-06 0.0816086)
(-1.08223e-05 4.97611e-07 0.0815513)
(1.25534e-05 -3.08111e-07 0.0908783)
(-1.90767e-05 -2.42212e-07 0.0982402)
(-4.66082e-07 -8.22157e-07 0.107843)
(-3.25899e-07 -6.70466e-09 0.110455)
(1.5132e-05 6.48815e-06 0.0925512)
(-2.64036e-07 -3.3091e-08 0.110456)
(-1.60776e-05 -5.88547e-06 0.0924877)
(1.99413e-05 2.00535e-07 0.0983072)
(-1.18458e-05 -1.31572e-07 0.0908276)
(1.02975e-05 1.53278e-06 0.0816064)
(-1.09332e-05 -4.55998e-07 0.0815516)
(1.25643e-05 9.70376e-08 0.0908771)
(7.59673e-06 -5.60669e-06 0.0869198)
(5.65231e-06 -7.62803e-06 0.0869219)
(-3.81823e-05 3.81809e-05 0.104466)
(-7.17058e-06 5.82535e-06 0.0869772)
(-5.74602e-06 7.18488e-06 0.0869768)
(3.03287e-06 -6.01284e-06 0.0708949)
(-3.37858e-06 5.73897e-06 0.0709549)
(-5.61939e-06 3.43256e-06 0.070957)
(5.96757e-06 -2.93319e-06 0.0708928)
(3.59488e-05 -3.60015e-05 0.104321)
(-7.11728e-06 5.85918e-06 0.0869777)
(-5.7604e-06 7.1878e-06 0.0869774)
(7.61291e-06 -5.59918e-06 0.0869203)
(5.67056e-06 -7.63767e-06 0.0869225)
(-3.35565e-06 5.70501e-06 0.0709554)
(3.06569e-06 -5.96226e-06 0.0708956)
(2.10437e-07 1.97103e-05 0.098306)
(7.16045e-08 -5.04613e-07 0.110453)
(-6.23131e-06 -1.59787e-05 0.0924873)
(-7.3623e-07 -5.4809e-07 0.107842)
(1.64549e-08 -5.44104e-07 0.110453)
(6.18612e-06 1.52696e-05 0.0925514)
(-1.89117e-07 -1.93099e-05 0.0982389)
(-1.66537e-07 1.25261e-05 0.0908774)
(5.09081e-07 -1.08937e-05 0.0815498)
(-1.57727e-06 1.03777e-05 0.0816052)
(9.61602e-08 -1.17785e-05 0.0908268)
(1.68444e-07 1.24607e-05 0.090877)
(-9.46709e-07 -1.07416e-05 0.0815513)
(1.2776e-06 1.04507e-05 0.0816071)
(9.27847e-08 -1.18531e-05 0.0908269)
(1.47887e-07 -1.91933e-05 0.0982384)
(7.28499e-07 -5.24131e-07 0.107847)
(-1.18581e-07 -4.83902e-07 0.110454)
(-6.55549e-06 1.52884e-05 0.0925496)
(-1.01762e-07 -4.738e-07 0.110455)
(5.85426e-06 -1.61066e-05 0.0924859)
(-3.03377e-07 1.97566e-05 0.0983059)
(-2.40221e-07 -1.92629e-05 0.0982392)
(-7.54239e-07 -5.62007e-07 0.107843)
(-7.45152e-08 -5.48572e-07 0.110452)
(6.30201e-06 1.52962e-05 0.0925516)
(-2.36595e-08 -5.28214e-07 0.110453)
(-6.18767e-06 -1.60083e-05 0.0924875)
(1.88715e-07 1.97031e-05 0.0983066)
(-6.88564e-08 -1.18125e-05 0.0908268)
(-1.5506e-06 1.0385e-05 0.0816057)
(4.92717e-07 -1.08423e-05 0.0815504)
(-3.18382e-07 1.24998e-05 0.0908777)
(-2.47822e-08 -1.18901e-05 0.0908275)
(1.37877e-06 1.03976e-05 0.0816073)
(-8.71765e-07 -1.07385e-05 0.0815515)
(4.54289e-08 1.23893e-05 0.0908776)
(-6.05103e-06 -2.92608e-06 0.0708986)
(5.62062e-06 3.51215e-06 0.0709582)
(-3.37668e-06 -5.83847e-06 0.070898)
(3.16339e-06 5.8104e-06 0.0709575)
(-3.61205e-05 -3.60511e-05 0.10432)
(7.07626e-06 5.82664e-06 0.0869812)
(5.56679e-06 7.22251e-06 0.0869792)
(-7.76926e-06 -5.57621e-06 0.0869264)
(-5.89653e-06 -7.51196e-06 0.0869249)
(5.6745e-06 3.44661e-06 0.0709584)
(-6.06786e-06 -2.89499e-06 0.0708987)
(3.25647e-06 5.73949e-06 0.0709576)
(-3.30653e-06 -5.86905e-06 0.070898)
(-3.61694e-07 3.04285e-08 0.110455)
(-1.60816e-05 -5.86094e-06 0.0924879)
(-1.90012e-05 -2.45027e-07 0.0982404)
(-1.09196e-05 -5.22368e-07 0.0815515)
(-1.17643e-05 -5.39908e-08 0.0908275)
(-6.11589e-06 -1.59846e-05 0.0924878)
(-7.71853e-07 -1.08305e-05 0.0815516)
(-6.02029e-06 -2.96368e-06 0.0708988)
(-3.19551e-06 -5.91403e-06 0.0708981)
(-7.32732e-07 6.58134e-06 0.0762026)
(-8.49577e-08 -6.35735e-06 0.0780262)
(-6.40022e-07 -1.23975e-05 0.0893574)
(-7.77946e-08 1.16931e-05 0.0908286)
(-3.3072e-07 6.34524e-06 0.0779793)
(3.05271e-07 1.16247e-05 0.0893015)
(2.4816e-07 -6.49693e-06 0.0762572)
(-4.19383e-08 -6.13021e-06 0.067849)
(-1.35591e-06 -1.04489e-05 0.081608)
(5.49871e-08 9.88342e-06 0.085161)
(-8.91262e-07 -1.00609e-05 0.0852231)
(-8.30866e-07 6.28214e-06 0.0677774)
(-8.45609e-07 6.27927e-06 0.0677775)
(-8.9343e-07 -1.00423e-05 0.0852235)
(7.67332e-07 1.07488e-05 0.081553)
(7.2575e-08 9.92562e-06 0.0851613)
(-6.08775e-08 -6.12471e-06 0.0678491)
(2.66905e-07 -6.52811e-06 0.076257)
(-1.9801e-07 -1.26663e-05 0.0908781)
(-2.87938e-07 6.32424e-06 0.0779791)
(3.09654e-07 1.16103e-05 0.0893009)
(-8.02611e-08 -6.3659e-06 0.078026)
(-6.26383e-07 -1.23922e-05 0.0893568)
(-7.03056e-07 6.55017e-06 0.0762024)
(3.28462e-06 -5.77043e-06 0.0709554)
(-3.09727e-06 5.98983e-06 0.0708956)
(6.46842e-06 -5.81332e-07 0.076207)
(-1.2471e-05 -5.78414e-07 0.0893575)
(-6.52167e-06 2.50072e-07 0.0780263)
(1.17696e-05 1.71252e-07 0.0908301)
(1.16665e-05 2.97031e-07 0.0893031)
(6.25321e-06 4.90316e-09 0.0779819)
(-6.74815e-06 4.51116e-07 0.0762586)
(-6.25857e-06 5.28722e-08 0.067848)
(-1.04615e-05 -1.39931e-06 0.0816093)
(9.87695e-06 -4.17516e-08 0.0851623)
(-1.02133e-05 -9.35296e-07 0.0852234)
(6.31236e-06 -7.48042e-07 0.0677805)
(6.28638e-06 -6.72601e-07 0.0677808)
(-1.02197e-05 -9.02271e-07 0.0852235)
(1.07341e-05 6.78413e-07 0.081553)
(9.87076e-06 1.17635e-08 0.0851624)
(-6.28374e-06 1.10474e-07 0.0678484)
(-6.68838e-06 3.91331e-07 0.0762583)
(-1.26687e-05 -4.8397e-08 0.0908789)
(1.16141e-05 2.22123e-07 0.0893031)
(6.28432e-06 -2.07946e-08 0.0779817)
(-1.24531e-05 -6.52829e-07 0.0893578)
(-6.50998e-06 2.10458e-07 0.078026)
(6.52974e-06 -6.45194e-07 0.0762067)
(-5.65841e-06 3.36763e-06 0.070956)
(5.97345e-06 -2.94656e-06 0.0708924)
(-5.82302e-06 -5.67468e-06 0.0830072)
(3.45503e-06 5.36659e-06 0.0678197)
(5.18113e-06 3.62805e-06 0.0678132)
(-3.72531e-06 -5.08223e-06 0.067757)
(-5.25752e-06 -3.56475e-06 0.0677508)
(5.72811e-06 5.88764e-06 0.083058)
(1.38963e-05 7.82479e-06 0.0912056)
(-1.93739e-05 -1.08886e-05 0.0958881)
(7.08277e-06 5.77882e-06 0.086981)
(-6.82005e-06 -3.76325e-06 0.0809234)
(1.92479e-05 1.03504e-05 0.0959444)
(6.45312e-06 4.06065e-06 0.0809808)
(-1.36581e-05 -7.76436e-06 0.0911519)
(7.70553e-06 1.40419e-05 0.0911985)
(-1.09406e-05 -1.91825e-05 0.0958849)
(5.52182e-06 7.29443e-06 0.0869791)
(-3.97367e-06 -6.5986e-06 0.0809185)
(1.03125e-05 1.94083e-05 0.0959416)
(3.89539e-06 6.71555e-06 0.0809747)
(-7.92038e-06 -1.35404e-05 0.091145)
(-1.36845e-05 -7.72992e-06 0.091152)
(6.43263e-06 4.08909e-06 0.080981)
(-7.73916e-06 -5.5911e-06 0.0869263)
(1.91981e-05 1.03801e-05 0.0959443)
(-1.94133e-05 -1.08603e-05 0.0958881)
(-6.84214e-06 -3.73903e-06 0.0809236)
(1.3855e-05 7.84896e-06 0.0912057)
(-7.93621e-06 -1.35294e-05 0.091145)
(3.89501e-06 6.69446e-06 0.0809748)
(-5.92645e-06 -7.51992e-06 0.0869249)
(1.0295e-05 1.93869e-05 0.0959417)
(-1.09914e-05 -1.92342e-05 0.095885)
(-3.97392e-06 -6.6244e-06 0.0809186)
(7.67562e-06 1.40233e-05 0.0911986)
(5.75925e-06 5.87861e-06 0.0830579)
(-3.71042e-06 -5.09337e-06 0.0677569)
(-5.2585e-06 -3.55682e-06 0.0677507)
(3.48355e-06 5.34579e-06 0.0678195)
(5.19533e-06 3.63712e-06 0.0678131)
(-5.7961e-06 -5.67669e-06 0.0830071)
(1.37972e-05 7.87878e-06 0.0912058)
(-1.94191e-05 -1.07647e-05 0.0958881)
(-6.8165e-06 -3.68928e-06 0.0809242)
(7.13937e-06 5.84948e-06 0.0869814)
(-1.3745e-05 -7.67794e-06 0.0911522)
(1.91663e-05 1.04495e-05 0.0959445)
(6.46891e-06 4.09037e-06 0.0809816)
(7.6964e-06 1.40389e-05 0.0911987)
(-1.10325e-05 -1.92493e-05 0.0958852)
(-3.94545e-06 -6.68662e-06 0.0809188)
(5.5762e-06 7.1995e-06 0.0869793)
(-7.96144e-06 -1.35464e-05 0.0911452)
(1.02231e-05 1.93258e-05 0.0959419)
(3.92508e-06 6.63318e-06 0.0809752)
(5.70481e-06 5.91577e-06 0.0830586)
(-3.73753e-06 -5.0641e-06 0.0677575)
(-5.25177e-06 -3.58116e-06 0.0677512)
(-5.86414e-06 -5.62065e-06 0.0830078)
(3.46218e-06 5.35721e-06 0.0678202)
(5.1942e-06 3.60109e-06 0.0678137)
(-3.27283e-06 -5.74657e-06 0.0709572)
(3.14142e-06 5.93878e-06 0.0708981)
(-5.78525e-06 -3.3004e-06 0.0709569)
(5.88681e-06 3.19367e-06 0.0708972)
(5.77554e-06 5.63046e-06 0.0830057)
(-5.26325e-06 -3.55701e-06 0.0678174)
(-3.59437e-06 -5.25287e-06 0.0678107)
(5.17954e-06 3.62581e-06 0.067755)
(3.61669e-06 5.17334e-06 0.0677482)
(-5.79095e-06 -5.92086e-06 0.0830564)
(-7.66311e-06 -1.41232e-05 0.0912057)
(1.0951e-05 1.90954e-05 0.0958908)
(-5.63226e-06 -7.30856e-06 0.086981)
(3.93508e-06 6.67194e-06 0.080923)
(-3.90196e-06 -6.66982e-06 0.0809792)
(-1.0291e-05 -1.95854e-05 0.0959473)
(7.90325e-06 1.34438e-05 0.0911521)
(-1.38635e-05 -7.97453e-06 0.0911988)
(1.93762e-05 1.06497e-05 0.0958875)
(-7.19862e-06 -5.80541e-06 0.0869794)
(6.792e-06 3.81974e-06 0.0809165)
(-6.56041e-06 -4.02468e-06 0.0809729)
(-1.93017e-05 -1.06289e-05 0.0959446)
(1.36951e-05 7.61924e-06 0.0911451)
(7.8814e-06 1.34879e-05 0.0911523)
(-3.92966e-06 -6.65228e-06 0.0809795)
(5.76304e-06 7.51578e-06 0.0869275)
(-1.03257e-05 -1.95651e-05 0.0959476)
(3.912e-06 6.68165e-06 0.0809233)
(-7.7015e-06 -1.40817e-05 0.0912059)
(1.09648e-05 1.91623e-05 0.0958911)
(1.37494e-05 7.70875e-06 0.0911452)
(-6.62602e-06 -3.98423e-06 0.080973)
(7.61793e-06 5.69084e-06 0.0869251)
(-1.92905e-05 -1.05508e-05 0.0959448)
(6.74163e-06 3.85534e-06 0.0809167)
(-1.38454e-05 -7.90852e-06 0.0911988)
(1.93465e-05 1.06989e-05 0.0958876)
(-5.75195e-06 -5.94501e-06 0.0830563)
(5.20364e-06 3.60197e-06 0.0677548)
(3.64391e-06 5.14853e-06 0.067748)
(-5.22343e-06 -3.60822e-06 0.0678172)
(-3.56724e-06 -5.30164e-06 0.0678105)
(5.81001e-06 5.6259e-06 0.0830055)
(3.11408e-06 5.9798e-06 0.0708981)
(-3.32172e-06 -5.71548e-06 0.0709573)
(5.83084e-06 3.26867e-06 0.0708977)
(-5.85972e-06 -3.20078e-06 0.0709572)
(-5.82143e-06 -5.84645e-06 0.0830566)
(5.13619e-06 3.68169e-06 0.0677552)
(3.59226e-06 5.22365e-06 0.0677484)
(5.74517e-06 5.68379e-06 0.0830058)
(-5.31497e-06 -3.50086e-06 0.0678176)
(-3.63338e-06 -5.19069e-06 0.0678109)
(7.83407e-06 1.35642e-05 0.0911527)
(-1.03934e-05 -1.95212e-05 0.0959483)
(5.66478e-06 7.56489e-06 0.086928)
(-4.03385e-06 -6.57304e-06 0.0809799)
(3.81396e-06 6.7547e-06 0.0809238)
(1.08686e-05 1.91784e-05 0.0958918)
(-7.75437e-06 -1.40369e-05 0.0912062)
(1.36609e-05 7.76434e-06 0.0911456)
(-1.93434e-05 -1.04489e-05 0.0959448)
(7.52626e-06 5.80994e-06 0.0869254)
(-6.70546e-06 -3.86539e-06 0.0809732)
(6.66062e-06 3.97715e-06 0.0809168)
(1.93467e-05 1.08285e-05 0.0958879)
(-1.39266e-05 -7.84412e-06 0.0911992)
(-7.72691e-06 -1.40557e-05 0.0912061)
(3.86406e-06 6.71641e-06 0.0809236)
(1.09052e-05 1.91568e-05 0.0958914)
(-5.71335e-06 -7.24674e-06 0.0869814)
(7.86757e-06 1.3544e-05 0.0911525)
(-3.98323e-06 -6.59782e-06 0.0809798)
(-1.03658e-05 -1.95359e-05 0.095948)
(-1.38877e-05 -7.88151e-06 0.091199)
(6.70067e-06 3.89837e-06 0.0809167)
(1.9339e-05 1.07629e-05 0.0958878)
(-7.25913e-06 -5.67308e-06 0.0869797)
(1.3719e-05 7.74842e-06 0.0911454)
(-6.65295e-06 -3.93269e-06 0.0809731)
(-1.93118e-05 -1.04962e-05 0.0959449)
(5.68777e-06 5.76766e-06 0.083006)
(-5.3899e-06 -3.45624e-06 0.0678177)
(-3.69763e-06 -5.13248e-06 0.067811)
(5.06797e-06 3.73285e-06 0.0677554)
(3.53245e-06 5.29931e-06 0.0677485)
(-5.90126e-06 -5.78243e-06 0.0830567)
(7.88098e-07 6.60612e-06 0.0762049)
(-5.08492e-08 -6.4025e-06 0.078026)
(7.2394e-07 -1.24404e-05 0.0893548)
(-1.49779e-08 1.17289e-05 0.0908275)
(1.86759e-07 6.31112e-06 0.0779795)
(-2.32864e-07 1.16735e-05 0.0892995)
(-1.98588e-07 -6.62483e-06 0.076257)
(7.77671e-08 -6.1917e-06 0.0678463)
(1.36822e-06 -1.04339e-05 0.0816056)
(-2.79885e-08 1.00136e-05 0.0851582)
(9.26216e-07 -1.00566e-05 0.0852193)
(8.09002e-07 6.36487e-06 0.0677788)
(8.57247e-07 6.36964e-06 0.0677788)
(1.00614e-06 -1.0027e-05 0.0852195)
(-6.50155e-07 1.08492e-05 0.0815505)
(2.46213e-08 1.00515e-05 0.0851584)
(1.32368e-07 -6.19227e-06 0.0678464)
(-2.11949e-07 -6.5879e-06 0.0762569)
(1.86082e-07 -1.26855e-05 0.0908771)
(1.98965e-07 6.29286e-06 0.0779795)
(-2.5121e-07 1.16542e-05 0.0892991)
(-3.2572e-08 -6.41018e-06 0.078026)
(7.13517e-07 -1.24418e-05 0.0893544)
(7.44576e-07 6.62038e-06 0.0762048)
(2.49248e-07 -6.50384e-06 0.0762573)
(-3.03686e-07 6.34323e-06 0.0779794)
(2.7619e-07 1.16229e-05 0.0893021)
(-2.45525e-07 -1.26089e-05 0.0908793)
(-7.43432e-07 6.59744e-06 0.0762028)
(-5.10031e-08 -6.37392e-06 0.0780263)
(-6.78403e-07 -1.23776e-05 0.089358)
(-8.8748e-07 6.29337e-06 0.0677775)
(7.11313e-07 1.07914e-05 0.0815536)
(-9.8995e-07 -9.98124e-06 0.0852241)
(-9.98204e-08 -6.11709e-06 0.0678491)
(-1.82555e-08 9.96107e-06 0.085162)
(-8.42285e-08 -6.10702e-06 0.0678491)
(3.72185e-08 9.92875e-06 0.0851617)
(-1.40545e-06 -1.03978e-05 0.0816086)
(-8.70015e-07 6.29701e-06 0.0677776)
(-9.44183e-07 -1.00369e-05 0.0852238)
(-7.27378e-07 6.57479e-06 0.0762029)
(-8.46625e-08 1.17898e-05 0.0908296)
(3.29278e-09 -6.38858e-06 0.0780265)
(-6.9221e-07 -1.23398e-05 0.0893585)
(2.65536e-07 -6.51759e-06 0.0762574)
(-2.63651e-07 6.309e-06 0.0779797)
(2.40053e-07 1.16484e-05 0.0893027)
(-2.0602e-07 -6.63391e-06 0.0762571)
(1.80062e-07 6.31168e-06 0.0779794)
(-2.12114e-07 1.16821e-05 0.0892999)
(1.17551e-07 -1.25953e-05 0.0908776)
(7.95503e-07 6.58475e-06 0.076205)
(-6.05807e-08 -6.40946e-06 0.078026)
(7.45395e-07 -1.2417e-05 0.0893551)
(9.30488e-07 6.37673e-06 0.0677788)
(-5.24076e-07 1.08776e-05 0.0815511)
(1.10859e-06 -1.00314e-05 0.08522)
(1.56778e-07 1.00353e-05 0.0851589)
(1.79822e-07 -6.17889e-06 0.0678463)
(1.75225e-07 -6.18767e-06 0.0678464)
(9.59625e-08 1.00432e-05 0.0851587)
(1.48672e-06 -1.04068e-05 0.0816062)
(9.20333e-07 6.36992e-06 0.0677789)
(1.06504e-06 -1.00605e-05 0.0852198)
(7.66436e-07 6.57131e-06 0.0762051)
(-4.61487e-08 1.18127e-05 0.0908279)
(-6.48731e-08 -6.40883e-06 0.078026)
(7.37836e-07 -1.23762e-05 0.0893552)
(1.61707e-07 6.29606e-06 0.0779795)
(-2.01708e-07 1.17129e-05 0.0893001)
(-2.35378e-07 -6.63521e-06 0.0762571)
(-5.7837e-06 5.73304e-06 0.083005)
(5.39533e-06 -3.45714e-06 0.0678113)
(3.65554e-06 -5.17427e-06 0.0678166)
(-5.09081e-06 3.74671e-06 0.0677484)
(-3.59085e-06 5.23186e-06 0.0677537)
(5.83298e-06 -5.81065e-06 0.0830562)
(7.75679e-06 -1.41457e-05 0.0911982)
(-1.09159e-05 1.90722e-05 0.0958852)
(5.6771e-06 -7.22708e-06 0.0869782)
(-3.84271e-06 6.64161e-06 0.0809161)
(4.00834e-06 -6.63622e-06 0.0809737)
(1.03687e-05 -1.96034e-05 0.095943)
(-7.94868e-06 1.34668e-05 0.0911437)
(1.37973e-05 -7.93314e-06 0.0912053)
(-1.93816e-05 1.05752e-05 0.0958904)
(7.06552e-06 -5.8168e-06 0.0869806)
(-6.78218e-06 3.79948e-06 0.0809203)
(1.92862e-05 -1.06808e-05 0.0959476)
(6.50423e-06 -4.026e-06 0.0809781)
(-1.38221e-05 7.66611e-06 0.091151)
(-7.85957e-06 1.3458e-05 0.0911441)
(4.04971e-06 -6.55156e-06 0.0809739)
(-5.69122e-06 7.5903e-06 0.0869233)
(1.04372e-05 -1.96131e-05 0.0959435)
(-3.80331e-06 6.7086e-06 0.0809164)
(-1.09007e-05 1.91282e-05 0.0958858)
(7.80506e-06 -1.41155e-05 0.0911986)
(-1.37792e-05 7.68951e-06 0.0911513)
(6.54706e-06 -3.97085e-06 0.0809783)
(-7.62272e-06 5.56066e-06 0.0869245)
(1.92768e-05 -1.06405e-05 0.0959481)
(-1.93453e-05 1.05934e-05 0.0958908)
(-6.73265e-06 3.84885e-06 0.0809205)
(1.38368e-05 -7.90211e-06 0.0912056)
(5.79502e-06 -5.88913e-06 0.083056)
(-5.1412e-06 3.69608e-06 0.0677482)
(-3.64474e-06 5.17588e-06 0.0677535)
(5.322e-06 -3.50177e-06 0.0678111)
(3.58923e-06 -5.24786e-06 0.0678164)
(-5.82285e-06 5.6729e-06 0.0830048)
(5.65923e-06 -3.33701e-06 0.0709574)
(-5.92861e-06 2.99774e-06 0.0708941)
(-2.97077e-06 6.05535e-06 0.0708957)
(3.41592e-06 -5.69343e-06 0.0709555)
(5.9084e-06 -5.77441e-06 0.0830565)
(-5.01563e-06 3.78047e-06 0.0677486)
(-3.5259e-06 5.2997e-06 0.0677539)
(-5.71135e-06 5.78841e-06 0.0830053)
(5.44386e-06 -3.42157e-06 0.0678115)
(3.70196e-06 -5.11993e-06 0.0678169)
(-7.76826e-06 1.35431e-05 0.091145)
(1.04743e-05 -1.95286e-05 0.0959446)
(-5.57719e-06 7.62761e-06 0.0869239)
(4.12427e-06 -6.48219e-06 0.0809744)
(-1.08179e-05 1.91723e-05 0.0958869)
(-3.71342e-06 6.79349e-06 0.0809169)
(7.90004e-06 -1.4022e-05 0.0911995)
(-1.36724e-05 7.72736e-06 0.091152)
(1.9367e-05 -1.05864e-05 0.0959488)
(-7.49212e-06 5.63484e-06 0.0869253)
(6.64767e-06 -3.89255e-06 0.0809789)
(-6.62997e-06 3.93982e-06 0.0809211)
(-1.92825e-05 1.06527e-05 0.0958916)
(1.39474e-05 -7.86187e-06 0.0912063)
(7.8717e-06 -1.40682e-05 0.091199)
(-3.75378e-06 6.75691e-06 0.0809166)
(-1.08587e-05 1.91618e-05 0.0958864)
(5.78232e-06 -7.18717e-06 0.0869788)
(1.0449e-05 -1.95258e-05 0.0959441)
(-7.81005e-06 1.35003e-05 0.0911445)
(4.08223e-06 -6.52536e-06 0.0809742)
(1.3871e-05 -7.87235e-06 0.0912059)
(-6.67405e-06 3.90483e-06 0.0809208)
(-1.93773e-05 1.06617e-05 0.0958912)
(7.19633e-06 -5.74191e-06 0.0869814)
(-1.3755e-05 7.73272e-06 0.0911516)
(6.61471e-06 -3.90468e-06 0.0809786)
(1.9291e-05 -1.0603e-05 0.0959485)
(-5.66062e-06 5.82517e-06 0.0830056)
(5.4775e-06 -3.40644e-06 0.0678118)
(3.73338e-06 -5.09689e-06 0.0678171)
(-4.98133e-06 3.8095e-06 0.0677489)
(-3.49399e-06 5.32416e-06 0.0677542)
(5.94998e-06 -5.74642e-06 0.0830568)
(-5.87835e-06 3.07421e-06 0.0708948)
(5.70684e-06 -3.25579e-06 0.070958)
(6.61594e-06 1.00519e-06 0.0762014)
(-6.44121e-06 1.63177e-07 0.0780252)
(-1.23503e-05 8.58194e-07 0.089356)
(1.18113e-05 2.47767e-07 0.0908294)
(6.32088e-06 4.41579e-07 0.0779807)
(1.16975e-05 -5.59762e-09 0.0893003)
(-6.49215e-06 -3.42072e-08 0.0762556)
(-6.10427e-06 2.52436e-07 0.0678476)
(-1.03366e-05 1.58554e-06 0.0816065)
(1.00204e-05 2.38274e-07 0.0851585)
(-1.00075e-05 1.14549e-06 0.0852209)
(6.31501e-06 1.07563e-06 0.0677757)
(6.34794e-06 1.11107e-06 0.0677759)
(-1.00012e-05 1.1227e-06 0.0852212)
(1.08515e-05 -4.50948e-07 0.0815495)
(9.99966e-06 2.5676e-07 0.0851587)
(-6.07853e-06 2.75335e-07 0.0678477)
(-6.52534e-06 -6.70992e-08 0.0762555)
(-1.26022e-05 2.75511e-07 0.0908781)
(6.32226e-06 4.23105e-07 0.0779805)
(1.16987e-05 -7.00635e-08 0.0893002)
(-6.45307e-06 1.43223e-07 0.0780251)
(-1.23453e-05 8.09953e-07 0.0893557)
(6.58771e-06 9.66866e-07 0.0762013)
(-6.74161e-06 4.88512e-07 0.0762589)
(1.165e-05 3.87898e-07 0.0893028)
(6.29221e-06 4.99328e-08 0.0779822)
(-1.25974e-05 1.65284e-07 0.0908788)
(6.44972e-06 -5.30651e-07 0.0762073)
(-1.24597e-05 -4.85625e-07 0.0893573)
(-6.46037e-06 2.89901e-07 0.0780265)
(6.25246e-06 -6.35078e-07 0.0677816)
(1.06766e-05 7.40425e-07 0.0815533)
(-1.01547e-05 -8.20272e-07 0.0852235)
(-6.29961e-06 1.27381e-07 0.0678492)
(9.92021e-06 6.88389e-08 0.0851625)
(-6.29088e-06 1.22347e-07 0.0678488)
(9.89291e-06 4.19037e-08 0.0851625)
(-1.0509e-05 -1.29716e-06 0.0816096)
(6.26917e-06 -6.47893e-07 0.0677812)
(-1.01801e-05 -8.60393e-07 0.0852235)
(6.45096e-06 -5.11945e-07 0.0762075)
(1.18348e-05 3.54862e-07 0.0908301)
(-1.24347e-05 -4.39434e-07 0.0893568)
(-6.41475e-06 3.05974e-07 0.0780266)
(-6.72032e-06 4.803e-07 0.076259)
(1.1664e-05 4.62297e-07 0.0893025)
(6.34349e-06 7.77603e-08 0.0779824)
(-6.44961e-06 -8.28217e-09 0.0762556)
(6.35583e-06 4.6402e-07 0.0779807)
(1.16979e-05 1.58718e-08 0.0893006)
(-1.2624e-05 3.93549e-07 0.0908784)
(6.65802e-06 1.04014e-06 0.0762015)
(-6.39506e-06 1.78818e-07 0.0780253)
(-1.23573e-05 8.69319e-07 0.0893564)
(6.37621e-06 1.14122e-06 0.067776)
(1.08749e-05 -4.26684e-07 0.08155)
(-9.99546e-06 1.14863e-06 0.0852217)
(1.00029e-05 2.4338e-07 0.0851592)
(-6.03614e-06 2.96634e-07 0.0678477)
(-6.0501e-06 2.83047e-07 0.0678478)
(1.00104e-05 2.31567e-07 0.0851589)
(-1.02925e-05 1.59059e-06 0.0816071)
(6.35872e-06 1.11693e-06 0.067776)
(-9.98594e-06 1.11549e-06 0.0852214)
(6.68236e-06 1.06403e-06 0.0762015)
(1.18235e-05 3.11074e-07 0.0908298)
(-6.36368e-06 1.83588e-07 0.0780252)
(-1.23317e-05 8.75257e-07 0.0893568)
(6.39445e-06 4.72248e-07 0.0779808)
(1.16878e-05 2.80731e-08 0.0893011)
(-6.42632e-06 -6.19252e-09 0.0762556)
(-6.53758e-06 -1.0089e-06 0.0762063)
(1.23496e-05 -9.98567e-07 0.0893568)
(6.45196e-06 -6.36493e-08 0.0780272)
(-1.17972e-05 -1.67628e-07 0.0908287)
(-1.17626e-05 -1.04018e-07 0.0893017)
(-6.23546e-06 -3.12204e-07 0.0779808)
(6.65623e-06 3.17515e-08 0.0762583)
(6.19661e-06 -3.10272e-07 0.067847)
(1.02986e-05 -1.577e-06 0.0816077)
(-1.01121e-05 -3.70374e-07 0.0851606)
(9.96605e-06 -1.24519e-06 0.085222)
(-6.35997e-06 -1.10475e-06 0.0677793)
(-6.35315e-06 -1.07318e-06 0.0677796)
(1.00209e-05 -1.16506e-06 0.0852223)
(-1.08651e-05 4.61926e-07 0.081551)
(-1.00828e-05 -3.07503e-07 0.0851609)
(6.21818e-06 -2.53016e-07 0.0678474)
(6.66143e-06 -4.34292e-10 0.0762583)
(1.25436e-05 -2.91066e-07 0.0908783)
(-1.17922e-05 -1.10485e-07 0.0893019)
(-6.24028e-06 -2.97807e-07 0.0779808)
(1.23122e-05 -1.03011e-06 0.0893568)
(6.45399e-06 -5.34374e-08 0.0780272)
(-6.5555e-06 -1.01543e-06 0.0762063)
(-6.56876e-06 6.84921e-07 0.0762034)
(6.42375e-06 -9.25433e-08 0.078027)
(1.2301e-05 6.49229e-07 0.089354)
(-1.1872e-05 -1.25278e-07 0.0908276)
(-6.2753e-06 1.09618e-07 0.0779806)
(-1.17779e-05 -3.15312e-07 0.089299)
(6.62064e-06 -2.77535e-07 0.0762553)
(6.16823e-06 1.50079e-07 0.0678469)
(1.02855e-05 1.57075e-06 0.0816067)
(-1.00635e-05 7.21265e-08 0.0851594)
(9.97499e-06 1.02908e-06 0.0852201)
(-6.36864e-06 8.94349e-07 0.0677796)
(-6.35559e-06 8.84029e-07 0.0677794)
(9.98833e-06 1.03033e-06 0.08522)
(-1.09327e-05 -4.66323e-07 0.0815517)
(-1.00708e-05 7.99792e-08 0.0851593)
(6.19065e-06 1.37722e-07 0.0678467)
(6.61798e-06 -2.9386e-07 0.0762554)
(1.24551e-05 6.23601e-08 0.0908773)
(-6.29331e-06 1.17192e-07 0.0779806)
(-1.18009e-05 -3.17378e-07 0.0892991)
(6.4021e-06 -9.46575e-08 0.078027)
(1.22834e-05 6.39116e-07 0.089354)
(-6.56889e-06 6.8137e-07 0.0762035)
(6.64344e-06 9.99125e-08 0.0762584)
(-1.17499e-05 -3.75026e-08 0.0893017)
(-6.25642e-06 -3.09938e-07 0.0779809)
(1.25354e-05 -3.25021e-07 0.0908783)
(-6.55013e-06 -9.4929e-07 0.0762063)
(1.23681e-05 -9.24285e-07 0.0893568)
(6.43062e-06 -5.26246e-08 0.0780273)
(-6.33141e-06 -9.28073e-07 0.0677805)
(-1.07884e-05 5.66156e-07 0.0815516)
(1.00901e-05 -9.95041e-07 0.0852229)
(-9.9962e-06 -1.38922e-07 0.0851615)
(6.22939e-06 -1.09084e-07 0.0678483)
(6.22403e-06 -1.77574e-07 0.0678479)
(-1.00485e-05 -2.31001e-07 0.0851611)
(1.03911e-05 -1.47703e-06 0.0816083)
(-6.33642e-06 -9.97381e-07 0.06778)
(1.00661e-05 -1.09739e-06 0.0852226)
(-6.56478e-06 -8.8971e-07 0.0762065)
(-1.18172e-05 -1.90896e-07 0.0908287)
(1.23996e-05 -8.62536e-07 0.089357)
(6.42461e-06 -2.27676e-08 0.0780274)
(-1.17126e-05 1.84917e-08 0.0893018)
(-6.25987e-06 -2.96191e-07 0.077981)
(6.62486e-06 1.56056e-07 0.0762585)