/*--------------------------------*- C++ -*----------------------------------*\
| =========                 |                                                 |
| \\      /  F ield         | OpenFOAM: The Open Source CFD Toolbox           |
|  \\    /   O peration     | Version:  v1906                                 |
|   \\  /    A nd           | Web:      www.OpenFOAM.com                      |
|    \\/     M anipulation  |                                                 |
\*---------------------------------------------------------------------------*/
FoamFile
{
    version     2.0;
    format      ascii;
    class       volScalarField;
    location    "1000";
    object      epsilon;
}
// * * * * * * * * * * * * * * * * * * * * * * * * * * * * * * * * * * * * * //

dimensions      [0 2 -3 0 0 0 0];


internalField   nonuniform List<scalar> 
42616
(
4.9557e-07
4.97411e-07
4.97404e-07
4.99636e-07
4.45581e-07
4.53887e-07
4.5387e-07
4.63987e-07
4.03773e-07
4.18677e-07
4.18657e-07
4.39604e-07
3.68389e-07
3.88679e-07
3.88666e-07
4.17662e-07
3.38038e-07
3.6217e-07
3.62168e-07
3.95947e-07
3.11659e-07
3.38272e-07
3.38285e-07
3.74339e-07
2.88473e-07
3.16573e-07
3.16595e-07
3.5338e-07
2.67908e-07
2.96912e-07
2.9693e-07
3.33728e-07
2.49549e-07
2.79226e-07
2.79236e-07
3.15823e-07
2.3309e-07
2.63502e-07
2.63511e-07
3.0036e-07
2.18303e-07
2.49744e-07
2.49756e-07
2.87628e-07
2.05013e-07
2.37952e-07
2.37966e-07
2.77834e-07
1.9308e-07
2.28123e-07
2.28144e-07
2.7113e-07
1.82392e-07
2.20273e-07
2.20301e-07
2.67496e-07
1.72859e-07
2.14402e-07
2.14435e-07
2.66931e-07
1.64407e-07
2.10526e-07
2.10558e-07
2.69724e-07
1.5697e-07
2.08647e-07
2.0868e-07
2.7584e-07
1.50499e-07
2.0877e-07
2.0881e-07
2.85225e-07
1.44946e-07
2.10964e-07
2.11004e-07
2.98068e-07
1.40278e-07
2.1523e-07
2.15269e-07
3.14347e-07
1.36464e-07
2.21588e-07
2.2163e-07
3.34041e-07
5.06413e-07
5.05553e-07
5.05551e-07
5.064e-07
5.05551e-07
5.05551e-07
5.09644e-07
5.09644e-07
5.09645e-07
5.09644e-07
5.05558e-07
5.05547e-07
5.06379e-07
5.05554e-07
5.05546e-07
5.06402e-07
4.99629e-07
4.67489e-07
4.97423e-07
4.97422e-07
4.63836e-07
4.63849e-07
4.99612e-07
4.67479e-07
4.97436e-07
4.97412e-07
4.63845e-07
4.63844e-07
4.97426e-07
4.63841e-07
4.63837e-07
4.99579e-07
4.67459e-07
4.97433e-07
4.63827e-07
4.63847e-07
4.67478e-07
4.64007e-07
4.41645e-07
4.53884e-07
4.53898e-07
4.26905e-07
4.26915e-07
4.64e-07
4.41629e-07
4.53891e-07
4.53891e-07
4.26908e-07
4.26909e-07
4.53884e-07
4.26898e-07
4.26902e-07
4.63969e-07
4.41591e-07
4.53895e-07
4.26878e-07
4.26916e-07
4.41607e-07
4.39637e-07
4.19333e-07
4.18687e-07
4.18697e-07
3.95817e-07
3.95824e-07
4.39626e-07
4.19317e-07
4.1869e-07
4.18692e-07
3.95818e-07
3.95825e-07
4.18686e-07
3.95805e-07
3.95817e-07
4.3959e-07
4.19322e-07
4.18696e-07
3.95789e-07
3.95821e-07
4.19329e-07
4.17716e-07
3.97502e-07
3.88693e-07
3.887e-07
3.68547e-07
3.68549e-07
4.17705e-07
3.97475e-07
3.88694e-07
3.88703e-07
3.68545e-07
3.68557e-07
3.88694e-07
3.6853e-07
3.68548e-07
4.17664e-07
3.9755e-07
3.88696e-07
3.68526e-07
3.68544e-07
3.97508e-07
3.95984e-07
3.75783e-07
3.62188e-07
3.62191e-07
3.44056e-07
3.44054e-07
3.95944e-07
3.75854e-07
3.62187e-07
3.62202e-07
3.44052e-07
3.44071e-07
3.62192e-07
3.44031e-07
3.44063e-07
3.95953e-07
3.75905e-07
3.62187e-07
3.4404e-07
3.44052e-07
3.75801e-07
3.74369e-07
3.5472e-07
3.38299e-07
3.38298e-07
3.21841e-07
3.21834e-07
3.74195e-07
3.54794e-07
3.38295e-07
3.38317e-07
3.2183e-07
3.21856e-07
3.38308e-07
3.21803e-07
3.21849e-07
3.74277e-07
3.5487e-07
3.38297e-07
3.21824e-07
3.21835e-07
3.54722e-07
3.53367e-07
3.34888e-07
3.1661e-07
3.16605e-07
3.01682e-07
3.01671e-07
3.53208e-07
3.35031e-07
3.16599e-07
3.16629e-07
3.0166e-07
3.01694e-07
3.1662e-07
3.01641e-07
3.01686e-07
3.53291e-07
3.34924e-07
3.16607e-07
3.0166e-07
3.0167e-07
3.34919e-07
3.33758e-07
3.17073e-07
2.96951e-07
2.96941e-07
2.83498e-07
2.83488e-07
3.33559e-07
3.16958e-07
2.96927e-07
2.96964e-07
2.83466e-07
2.83507e-07
2.96954e-07
2.83464e-07
2.83496e-07
3.33851e-07
3.17087e-07
2.96939e-07
2.83475e-07
2.8348e-07
3.1711e-07
3.15876e-07
3.01324e-07
2.79256e-07
2.79247e-07
2.67277e-07
2.67268e-07
3.16073e-07
3.01244e-07
2.79223e-07
2.79265e-07
2.67237e-07
2.67284e-07
2.79254e-07
2.6725e-07
2.67271e-07
3.15914e-07
3.01466e-07
2.79239e-07
2.67257e-07
2.67254e-07
3.01505e-07
3.00597e-07
2.88441e-07
2.63529e-07
2.63518e-07
2.53026e-07
2.5302e-07
3.00608e-07
2.88429e-07
2.63487e-07
2.63535e-07
2.52979e-07
2.53033e-07
2.63524e-07
2.53e-07
2.5302e-07
3.00476e-07
2.88298e-07
2.63506e-07
2.53011e-07
2.53002e-07
2.88448e-07
2.87599e-07
2.78284e-07
2.49771e-07
2.49763e-07
2.40745e-07
2.4074e-07
2.87608e-07
2.78162e-07
2.49722e-07
2.49777e-07
2.40694e-07
2.40749e-07
2.49766e-07
2.40714e-07
2.40739e-07
2.87917e-07
2.78008e-07
2.49747e-07
2.4073e-07
2.40718e-07
2.78168e-07
2.77779e-07
2.71173e-07
2.37984e-07
2.37978e-07
2.30434e-07
2.30428e-07
2.77853e-07
2.7118e-07
2.37932e-07
2.37985e-07
2.30381e-07
2.30432e-07
2.37977e-07
2.30394e-07
2.30427e-07
2.77909e-07
2.71025e-07
2.37955e-07
2.30413e-07
2.30404e-07
2.71202e-07
2.71219e-07
2.67157e-07
2.28164e-07
2.2816e-07
2.22096e-07
2.22091e-07
2.71108e-07
2.67166e-07
2.28113e-07
2.28163e-07
2.22043e-07
2.22093e-07
2.28158e-07
2.22047e-07
2.22088e-07
2.71345e-07
2.67178e-07
2.28135e-07
2.22072e-07
2.22063e-07
2.67198e-07
2.67466e-07
2.66268e-07
2.20322e-07
2.20319e-07
2.15732e-07
2.1573e-07
2.67464e-07
2.66248e-07
2.20272e-07
2.2032e-07
2.15683e-07
2.15731e-07
2.20316e-07
2.15677e-07
2.15725e-07
2.67496e-07
2.66296e-07
2.20291e-07
2.15706e-07
2.15698e-07
2.6629e-07
2.66923e-07
2.68388e-07
2.1446e-07
2.14457e-07
2.11356e-07
2.11356e-07
2.66904e-07
2.68357e-07
2.14411e-07
2.14459e-07
2.11313e-07
2.11357e-07
2.14451e-07
2.11291e-07
2.11346e-07
2.66948e-07
2.68404e-07
2.14426e-07
2.11328e-07
2.11317e-07
2.6841e-07
2.69732e-07
2.73818e-07
2.10589e-07
2.10589e-07
2.08973e-07
2.08976e-07
2.69708e-07
2.73774e-07
2.10545e-07
2.10588e-07
2.08933e-07
2.08977e-07
2.10577e-07
2.08903e-07
2.08961e-07
2.69753e-07
2.73824e-07
2.1055e-07
2.08942e-07
2.08933e-07
2.73882e-07
2.75868e-07
2.82431e-07
2.08716e-07
2.08718e-07
2.08642e-07
2.08639e-07
2.75846e-07
2.82314e-07
2.08673e-07
2.08719e-07
2.08598e-07
2.08647e-07
2.08702e-07
2.08567e-07
2.08632e-07
2.75893e-07
2.82369e-07
2.08676e-07
2.08599e-07
2.08597e-07
2.82869e-07
2.8552e-07
2.94628e-07
2.08845e-07
2.08857e-07
2.10298e-07
2.10303e-07
2.8559e-07
2.94507e-07
2.08815e-07
2.08861e-07
2.10257e-07
2.10315e-07
2.08834e-07
2.10216e-07
2.10284e-07
2.85642e-07
2.94581e-07
2.08803e-07
2.10256e-07
2.10251e-07
2.95043e-07
2.98152e-07
3.1053e-07
2.11038e-07
2.11052e-07
2.14049e-07
2.14057e-07
2.98405e-07
3.10103e-07
2.11011e-07
2.11066e-07
2.14007e-07
2.14073e-07
2.11037e-07
2.13963e-07
2.14036e-07
2.98425e-07
3.10359e-07
2.11e-07
2.14003e-07
2.14001e-07
3.10508e-07
3.14455e-07
3.29606e-07
2.15301e-07
2.15325e-07
2.19888e-07
2.19906e-07
3.14554e-07
3.28993e-07
2.15286e-07
2.15345e-07
2.19842e-07
2.19921e-07
2.15305e-07
2.19802e-07
2.19877e-07
3.14555e-07
3.28989e-07
2.15266e-07
2.1984e-07
2.1984e-07
3.29474e-07
3.33968e-07
2.21653e-07
2.21694e-07
3.34273e-07
2.21653e-07
2.21716e-07
2.21666e-07
3.34429e-07
2.21624e-07
5.35663e-07
5.35601e-07
5.35656e-07
5.35656e-07
5.34616e-07
5.35513e-07
5.33309e-07
5.35656e-07
5.34626e-07
5.35516e-07
5.35656e-07
5.33591e-07
5.3526e-07
5.36012e-07
5.35518e-07
1.1067e-06
3.86482e-06
9.39887e-07
4.5911e-06
1.27357e-05
1.66526e-05
1.10617e-06
3.86344e-06
9.39208e-07
4.59163e-06
4.95569e-07
4.95569e-07
4.95569e-07
4.57235e-07
4.57236e-07
4.57235e-07
4.57236e-07
5.43511e-07
1.22775e-06
4.95577e-07
4.85574e-07
5.26061e-07
1.21619e-06
4.82311e-07
1.27485e-05
1.66637e-05
5.4363e-07
4.95578e-07
1.22629e-06
4.85569e-07
5.26212e-07
4.82311e-07
1.21629e-06
2.55021e-06
2.53946e-06
4.84344e-07
2.38733e-06
2.38515e-06
1.4278e-06
5.58179e-06
1.33026e-06
6.13154e-06
2.13215e-05
2.31423e-05
1.42813e-06
5.58241e-06
1.33013e-06
6.1324e-06
4.45582e-07
4.45581e-07
4.45582e-07
4.13561e-07
4.13561e-07
4.13559e-07
4.13561e-07
5.87317e-07
1.19972e-06
4.46465e-07
4.44453e-07
5.7426e-07
1.20824e-06
4.35729e-07
2.13239e-05
2.31453e-05
5.87544e-07
4.46473e-07
1.19922e-06
4.44434e-07
5.74513e-07
4.35739e-07
1.20927e-06
2.30733e-06
2.30677e-06
4.53717e-07
2.3435e-06
2.34337e-06
1.65856e-06
6.91412e-06
1.592e-06
7.32115e-06
2.46471e-05
2.49398e-05
1.65907e-06
6.9152e-06
1.59194e-06
7.32238e-06
4.03773e-07
4.03771e-07
4.03773e-07
3.76715e-07
3.76714e-07
3.76713e-07
3.76715e-07
6.15418e-07
1.24778e-06
4.06602e-07
4.10778e-07
6.08189e-07
1.26977e-06
3.97789e-07
2.465e-05
2.4943e-05
6.1543e-07
4.0661e-07
1.24688e-06
4.10759e-07
6.08349e-07
3.97797e-07
1.27102e-06
2.46168e-06
2.46198e-06
4.30289e-07
2.51971e-06
2.52001e-06
1.80805e-06
7.84468e-06
1.76722e-06
8.1013e-06
2.47296e-05
2.44307e-05
1.80748e-06
7.84571e-06
1.76786e-06
8.10272e-06
3.68388e-07
3.68387e-07
3.68389e-07
3.45217e-07
3.45215e-07
3.45216e-07
3.45217e-07
6.25658e-07
1.3182e-06
3.73543e-07
3.81771e-07
6.24265e-07
1.33763e-06
3.66092e-07
2.47326e-05
2.4433e-05
6.25706e-07
3.73545e-07
1.31824e-06
3.81761e-07
6.24483e-07
3.66094e-07
1.33789e-06
2.62466e-06
2.62556e-06
4.08444e-07
2.6688e-06
2.6706e-06
1.88938e-06
8.39316e-06
1.86809e-06
8.5298e-06
2.36822e-05
2.32658e-05
1.88835e-06
8.39457e-06
1.86971e-06
8.53174e-06
3.38036e-07
3.38037e-07
3.38038e-07
3.17928e-07
3.17926e-07
3.17929e-07
3.1793e-07
6.21141e-07
1.37711e-06
3.45292e-07
3.55975e-07
6.24807e-07
1.39026e-06
3.38812e-07
2.36838e-05
2.32692e-05
6.21038e-07
3.45291e-07
1.37722e-06
3.55976e-07
6.24739e-07
3.38813e-07
1.39056e-06
2.75775e-06
2.75874e-06
3.86624e-07
2.79953e-06
2.80101e-06
1.9255e-06
8.66023e-06
1.91754e-06
8.71672e-06
2.24941e-05
2.21228e-05
1.92527e-06
8.66228e-06
1.91846e-06
8.71877e-06
3.11656e-07
3.1166e-07
3.11661e-07
2.94004e-07
2.94e-07
2.94006e-07
2.94007e-07
6.07742e-07
1.42011e-06
3.20521e-07
3.32652e-07
6.14511e-07
1.42912e-06
3.14767e-07
2.24959e-05
2.21262e-05
6.07605e-07
3.20518e-07
1.42088e-06
3.32668e-07
6.1437e-07
3.14767e-07
1.43087e-06
2.89373e-06
2.89463e-06
3.65154e-07
2.94072e-06
2.94247e-06
1.94375e-06
8.75642e-06
1.9397e-06
8.76839e-06
2.14731e-05
2.11823e-05
1.94391e-06
8.75829e-06
1.94001e-06
8.76983e-06
2.88468e-07
2.88475e-07
2.88475e-07
2.72828e-07
2.72823e-07
2.7283e-07
2.72831e-07
5.90593e-07
1.45632e-06
2.9841e-07
3.11472e-07
5.98362e-07
1.46467e-06
2.93235e-07
2.14751e-05
2.11851e-05
5.9073e-07
2.98407e-07
1.45599e-06
3.11493e-07
5.98234e-07
2.93234e-07
1.46557e-06
3.0503e-06
3.05074e-06
3.44641e-07
3.10483e-06
3.10692e-06
1.96215e-06
8.76491e-06
1.95615e-06
8.76035e-06
2.06742e-05
2.04551e-05
1.96162e-06
8.76601e-06
1.95627e-06
8.76117e-06
2.67903e-07
2.6791e-07
2.67911e-07
2.5395e-07
2.53947e-07
2.53953e-07
2.53953e-07
5.74388e-07
1.49503e-06
2.78473e-07
2.92307e-07
5.81211e-07
1.50647e-06
2.73792e-07
2.06762e-05
2.0458e-05
5.74029e-07
2.78469e-07
1.49502e-06
2.92321e-07
5.80811e-07
2.73789e-07
1.50658e-06
3.2285e-06
3.22986e-06
3.25697e-07
3.29049e-06
3.29226e-06
1.9937e-06
8.74505e-06
1.98115e-06
8.73981e-06
2.00753e-05
1.99126e-05
1.99206e-06
8.74541e-06
1.98184e-06
8.74003e-06
2.49546e-07
2.49552e-07
2.49552e-07
2.3704e-07
2.37039e-07
2.37044e-07
2.37043e-07
5.6189e-07
1.54347e-06
2.60423e-07
2.75112e-07
5.66431e-07
1.55909e-06
2.56182e-07
2.0076e-05
1.99159e-05
5.61464e-07
2.60417e-07
1.54331e-06
2.7512e-07
5.66695e-07
2.56179e-07
1.55907e-06
3.42508e-06
3.42668e-06
3.09009e-07
3.49198e-06
3.49354e-06
2.04519e-06
8.72987e-06
2.02444e-06
8.72832e-06
1.96365e-05
1.95185e-05
2.04304e-06
8.72998e-06
2.02591e-06
8.72851e-06
2.3309e-07
2.33095e-07
2.33093e-07
2.21853e-07
2.21854e-07
2.21859e-07
2.21856e-07
5.55648e-07
1.60459e-06
2.44081e-07
2.59878e-07
5.57557e-07
1.62519e-06
2.40248e-07
1.96364e-05
1.95217e-05
5.55526e-07
2.44076e-07
1.60298e-06
2.59889e-07
5.57626e-07
2.40247e-07
1.62711e-06
3.63269e-06
3.63408e-06
2.94694e-07
3.7008e-06
3.70211e-06
2.11957e-06
8.72814e-06
2.09056e-06
8.73132e-06
1.93223e-05
1.92389e-05
2.11768e-06
8.72847e-06
2.09187e-06
8.73199e-06
2.18305e-07
2.1831e-07
2.18307e-07
2.08202e-07
2.08205e-07
2.0821e-07
2.08206e-07
5.56871e-07
1.67988e-06
2.29336e-07
2.46613e-07
5.55991e-07
1.70532e-06
2.25889e-07
1.93212e-05
1.9242e-05
5.56819e-07
2.29333e-07
1.67824e-06
2.46626e-07
5.55984e-07
2.25891e-07
1.70766e-06
3.84241e-06
3.84377e-06
2.83079e-07
3.90883e-06
3.91029e-06
2.21788e-06
8.73861e-06
2.18342e-06
8.74548e-06
1.91015e-05
1.90434e-05
2.21771e-06
8.73876e-06
2.18292e-06
8.74726e-06
2.05015e-07
2.0502e-07
2.05017e-07
1.95941e-07
1.95943e-07
1.95948e-07
1.95945e-07
5.66079e-07
1.76852e-06
2.16111e-07
2.35309e-07
5.62524e-07
1.79829e-06
2.13036e-07
1.91e-05
1.90467e-05
5.66136e-07
2.16112e-07
1.76719e-06
2.35326e-07
5.62451e-07
2.1304e-07
1.80077e-06
4.04574e-06
4.0473e-06
2.7434e-07
4.10982e-06
4.11121e-06
2.3425e-06
8.75741e-06
2.30012e-06
8.76603e-06
1.89479e-05
1.89072e-05
2.3426e-06
8.75831e-06
2.2996e-06
8.76839e-06
1.93082e-07
1.93087e-07
1.93084e-07
1.84951e-07
1.84951e-07
1.84957e-07
1.84955e-07
5.85133e-07
1.86862e-06
2.04345e-07
2.25973e-07
5.78383e-07
1.90177e-06
2.01625e-07
1.89463e-05
1.89109e-05
5.85264e-07
2.0435e-07
1.86729e-06
2.25996e-07
5.78416e-07
2.01633e-07
1.90462e-06
4.23754e-06
4.23787e-06
2.68836e-07
4.29547e-06
4.29809e-06
2.4888e-06
8.77912e-06
2.44032e-06
8.7878e-06
1.884e-05
1.88112e-05
2.48918e-06
8.78053e-06
2.43977e-06
8.79045e-06
1.82393e-07
1.82398e-07
1.82396e-07
1.75136e-07
1.75135e-07
1.75141e-07
1.7514e-07
6.14735e-07
1.97749e-06
1.93986e-07
2.18614e-07
6.03617e-07
2.01267e-06
1.9161e-07
1.88385e-05
1.88153e-05
6.14401e-07
1.93993e-07
1.9762e-06
2.18643e-07
6.04019e-07
1.91621e-07
2.01511e-06
4.41016e-06
4.41223e-06
2.6636e-07
4.46529e-06
4.46637e-06
2.6529e-06
8.80031e-06
2.59877e-06
8.80833e-06
1.87619e-05
1.87408e-05
2.653e-06
8.80188e-06
2.59889e-06
8.81096e-06
1.72858e-07
1.72864e-07
1.72862e-07
1.66419e-07
1.66417e-07
1.66423e-07
1.66422e-07
6.54124e-07
2.09018e-06
1.84991e-07
2.13236e-07
6.39543e-07
2.12962e-06
1.82948e-07
1.87606e-05
1.87444e-05
6.53651e-07
1.85e-07
2.09191e-06
2.1327e-07
6.40026e-07
1.8296e-07
2.12841e-06
4.56441e-06
4.56752e-06
2.66941e-07
4.61213e-06
4.61216e-06
2.82701e-06
8.8197e-06
2.77043e-06
8.82694e-06
1.8702e-05
1.8686e-05
2.82725e-06
8.82128e-06
2.77057e-06
8.82948e-06
1.64404e-07
1.6441e-07
1.64408e-07
1.58735e-07
1.58731e-07
1.58737e-07
1.58736e-07
7.03493e-07
2.20595e-06
1.7732e-07
2.09851e-07
6.85671e-07
2.24558e-06
1.75602e-07
1.8702e-05
1.86881e-05
7.03068e-07
1.77329e-07
2.20756e-06
2.09885e-07
6.86365e-07
1.75615e-07
2.24411e-06
4.69729e-06
4.70045e-06
2.70723e-07
4.73776e-06
4.73801e-06
3.004e-06
8.83728e-06
2.94525e-06
8.84393e-06
1.86527e-05
1.86397e-05
3.00392e-06
8.83888e-06
2.94541e-06
8.84644e-06
1.56966e-07
1.56973e-07
1.56971e-07
1.52027e-07
1.52023e-07
1.5203e-07
1.52028e-07
7.63225e-07
2.32188e-06
1.70945e-07
2.08465e-07
7.41999e-07
2.35693e-06
1.69547e-07
1.86538e-05
1.86413e-05
7.62685e-07
1.70953e-07
2.3221e-06
2.08499e-07
7.42659e-07
1.69559e-07
2.35749e-06
4.80946e-06
4.81154e-06
2.78042e-07
4.84334e-06
4.84524e-06
3.17342e-06
8.85353e-06
3.11786e-06
8.85975e-06
1.86099e-05
1.85983e-05
3.17308e-06
8.85519e-06
3.1188e-06
8.86227e-06
1.50494e-07
1.50502e-07
1.50498e-07
1.46249e-07
1.46245e-07
1.46252e-07
1.46249e-07
8.31158e-07
2.43262e-06
1.65849e-07
2.09121e-07
8.07545e-07
2.46548e-06
1.64767e-07
1.86111e-05
1.85999e-05
8.31039e-07
1.65856e-07
2.43255e-06
2.09159e-07
8.0807e-07
1.6478e-07
2.46594e-06
4.90404e-06
4.90601e-06
2.88539e-07
4.92923e-06
4.93126e-06
3.32962e-06
8.86871e-06
3.27951e-06
8.87463e-06
1.85708e-05
1.85607e-05
3.32991e-06
8.8705e-06
3.27967e-06
8.87718e-06
1.44941e-07
1.4495e-07
1.44945e-07
1.41364e-07
1.4136e-07
1.41367e-07
1.41364e-07
9.07259e-07
2.53661e-06
1.62025e-07
2.11831e-07
8.80794e-07
2.56727e-06
1.61259e-07
1.85721e-05
1.85619e-05
9.07033e-07
1.62033e-07
2.53539e-06
2.11868e-07
8.8112e-07
1.61269e-07
2.56932e-06
4.98086e-06
4.98277e-06
3.02404e-07
5.00091e-06
5.00293e-06
3.46704e-06
8.88321e-06
3.4246e-06
8.88879e-06
1.85348e-05
1.85252e-05
3.46762e-06
8.88495e-06
3.42485e-06
8.89123e-06
1.40274e-07
1.40284e-07
1.40277e-07
1.37339e-07
1.37337e-07
1.37344e-07
1.37341e-07
9.87903e-07
2.6328e-06
1.59478e-07
2.16621e-07
9.60578e-07
2.66081e-06
1.59024e-07
1.85359e-05
1.85265e-05
9.88451e-07
1.59484e-07
2.63164e-06
2.16659e-07
9.60483e-07
1.59032e-07
2.66267e-06
5.04362e-06
5.04552e-06
3.19607e-07
5.05952e-06
5.0615e-06
3.58491e-06
8.89678e-06
3.54914e-06
8.90195e-06
1.85008e-05
1.84919e-05
8.89841e-06
3.54938e-06
8.90435e-06
1.3646e-07
1.36471e-07
1.36463e-07
1.0723e-06
2.72047e-06
1.58211e-07
2.23513e-07
1.04441e-06
2.74729e-06
1.58069e-07
1.85021e-05
1.0727e-06
1.58217e-07
2.71946e-06
1.0443e-06
1.58074e-07
5.0949e-06
5.09677e-06
3.40477e-07
5.10705e-06
5.10901e-06
5.3525e-07
5.35445e-07
5.35603e-07
1.08486e-05
5.81087e-07
1.08555e-05
5.81125e-07
5.28221e-07
2.48023e-06
2.4839e-06
5.42897e-07
5.43096e-07
5.34625e-07
5.35511e-07
5.33188e-07
5.35656e-07
5.34624e-07
5.35513e-07
5.33166e-07
5.35656e-07
5.30246e-07
3.46039e-06
5.73161e-07
8.25267e-07
5.30147e-07
3.4606e-06
5.73476e-07
8.2479e-07
5.29341e-07
5.28389e-07
1.18156e-06
5.09595e-07
5.33396e-07
5.2835e-07
5.19538e-07
5.29345e-07
5.28388e-07
1.18323e-06
5.09595e-07
5.33424e-07
5.2835e-07
5.19469e-07
5.35256e-07
5.35671e-07
5.35249e-07
1.08546e-05
5.81054e-07
5.28218e-07
2.49184e-06
2.48313e-06
5.42246e-07
5.42444e-07
1.08519e-05
5.79997e-07
5.3462e-07
5.3551e-07
5.33421e-07
5.35656e-07
5.34625e-07
5.35516e-07
5.35656e-07
5.3312e-07
5.30255e-07
3.46215e-06
5.63428e-07
8.24953e-07
5.29365e-07
5.2839e-07
1.18676e-06
5.09595e-07
5.32571e-07
5.2835e-07
5.19518e-07
5.30167e-07
3.45985e-06
5.73234e-07
8.25977e-07
5.29334e-07
5.28386e-07
5.09596e-07
1.18312e-06
5.2835e-07
5.33334e-07
5.19573e-07
5.35663e-07
5.35602e-07
5.35656e-07
5.35656e-07
5.35663e-07
5.35602e-07
5.35656e-07
5.35656e-07
5.35663e-07
5.35602e-07
5.35656e-07
5.35656e-07
5.28434e-07
5.28375e-07
5.09725e-07
5.09725e-07
5.28408e-07
5.28408e-07
5.09781e-07
5.28434e-07
5.28374e-07
5.09725e-07
5.09725e-07
5.28408e-07
5.28408e-07
5.09781e-07
5.28434e-07
5.28374e-07
5.09725e-07
5.09725e-07
5.28408e-07
5.28408e-07
5.09782e-07
5.28434e-07
5.28374e-07
5.09725e-07
5.09725e-07
5.28408e-07
5.28408e-07
5.09782e-07
5.34619e-07
5.35517e-07
5.35656e-07
5.33334e-07
5.29369e-07
5.28386e-07
1.1803e-06
5.09594e-07
5.33218e-07
5.2835e-07
5.19531e-07
5.30253e-07
3.46099e-06
5.72914e-07
8.25265e-07
5.29368e-07
5.28383e-07
5.09595e-07
1.17604e-06
5.2835e-07
5.33166e-07
5.1955e-07
5.30167e-07
3.46131e-06
5.73321e-07
8.24721e-07
5.35271e-07
5.35448e-07
5.35418e-07
1.08541e-05
5.8047e-07
5.28212e-07
2.51302e-06
2.50328e-06
5.40248e-07
5.40188e-07
1.08554e-05
5.80105e-07
5.3462e-07
5.35512e-07
5.35656e-07
5.33326e-07
5.29323e-07
5.28384e-07
5.09596e-07
1.18477e-06
5.2835e-07
5.32314e-07
5.19618e-07
5.29353e-07
5.28386e-07
5.09596e-07
1.17635e-06
5.2835e-07
5.33232e-07
5.19646e-07
5.30266e-07
3.46272e-06
5.62882e-07
8.26357e-07
5.30177e-07
3.46235e-06
5.73452e-07
8.26266e-07
5.28214e-07
2.50344e-06
2.4813e-06
5.40298e-07
5.42358e-07
1.08537e-05
5.81072e-07
1.08528e-05
5.8145e-07
1.27331e-05
1.66665e-05
1.2734e-05
1.66731e-05
2.54521e-06
2.54961e-06
4.8433e-07
2.38488e-06
2.38761e-06
2.05838e-05
1.77354e-05
2.05895e-05
1.77419e-05
4.79489e-07
2.30211e-06
2.30405e-06
2.3482e-06
2.35047e-06
1.10578e-06
3.86501e-06
9.39634e-07
4.59014e-06
5.43546e-07
1.23596e-06
4.95577e-07
4.85566e-07
5.2607e-07
1.21574e-06
4.82309e-07
5.43309e-07
1.237e-06
4.95576e-07
4.85575e-07
5.26e-07
1.21652e-06
4.82305e-07
1.16299e-06
5.39798e-06
4.79367e-06
1.28091e-06
1.16243e-06
5.39718e-06
4.79165e-06
1.28036e-06
5.51601e-07
4.74372e-07
1.19822e-06
4.57787e-07
1.20877e-06
4.69723e-07
5.67049e-07
5.51378e-07
4.74386e-07
1.19869e-06
4.57778e-07
1.20959e-06
4.69716e-07
5.66807e-07
2.54686e-06
2.54505e-06
4.84322e-07
2.38524e-06
2.38484e-06
1.27383e-05
1.66672e-05
2.05802e-05
1.77325e-05
4.79483e-07
2.3027e-06
2.30174e-06
2.35003e-06
2.349e-06
2.05837e-05
1.77351e-05
5.43357e-07
1.23807e-06
4.95576e-07
4.85583e-07
5.26017e-07
1.21588e-06
4.82306e-07
1.10688e-06
3.86482e-06
9.40219e-07
4.59122e-06
5.43604e-07
4.95578e-07
1.23644e-06
4.85568e-07
5.26171e-07
4.82311e-07
1.21676e-06
1.16245e-06
5.39837e-06
4.7934e-06
1.28067e-06
5.51392e-07
4.74387e-07
1.19857e-06
4.57779e-07
1.20973e-06
4.69716e-07
5.66829e-07
1.16306e-06
5.39814e-06
4.79273e-06
1.28072e-06
5.51609e-07
4.74383e-07
4.57785e-07
1.19876e-06
4.69723e-07
1.20997e-06
5.66941e-07
1.10658e-06
3.86608e-06
9.40046e-07
4.59135e-06
5.43291e-07
4.95576e-07
1.23832e-06
4.85571e-07
5.25941e-07
4.82304e-07
1.21825e-06
1.10602e-06
3.86626e-06
9.39057e-07
4.59156e-06
5.51554e-07
4.74385e-07
1.19793e-06
4.57784e-07
1.21052e-06
4.69723e-07
5.66897e-07
1.16285e-06
5.3976e-06
4.79188e-06
1.28072e-06
5.51337e-07
4.74375e-07
4.57776e-07
1.1987e-06
4.69714e-07
1.20989e-06
5.66778e-07
1.16228e-06
5.3986e-06
4.79318e-06
1.28042e-06
2.55442e-06
2.54522e-06
4.84303e-07
2.38998e-06
2.38767e-06
1.2725e-05
1.66631e-05
2.05856e-05
1.77431e-05
4.79476e-07
2.30463e-06
2.30403e-06
2.3568e-06
2.35545e-06
2.05841e-05
1.7734e-05
5.43581e-07
4.95579e-07
1.23941e-06
4.85579e-07
5.26226e-07
4.82308e-07
1.21877e-06
1.10707e-06
3.865e-06
9.40466e-07
4.59102e-06
1.10716e-06
3.8661e-06
9.40381e-07
4.59166e-06
5.51699e-07
4.74376e-07
4.57789e-07
1.19769e-06
4.69724e-07
1.20975e-06
5.67139e-07
5.51634e-07
4.74381e-07
4.57787e-07
1.19882e-06
4.69721e-07
1.21041e-06
5.67123e-07
1.16308e-06
5.39842e-06
4.79261e-06
1.28116e-06
1.16307e-06
5.39863e-06
4.79281e-06
1.28119e-06
1.27425e-05
1.66666e-05
1.27408e-05
1.66659e-05
4.79506e-07
2.30305e-06
2.30241e-06
2.34844e-06
2.34761e-06
2.05832e-05
1.77355e-05
2.05849e-05
1.77357e-05
2.13233e-05
2.31426e-05
2.1329e-05
2.31478e-05
2.30639e-06
2.30844e-06
4.53752e-07
2.34284e-06
2.34481e-06
2.44865e-05
2.35547e-05
2.44905e-05
2.35596e-05
4.51177e-07
2.42947e-06
2.43111e-06
2.37032e-06
2.3719e-06
1.42749e-06
5.58105e-06
1.32979e-06
6.13123e-06
5.87389e-07
1.2e-06
4.46472e-07
4.44453e-07
5.74434e-07
1.20841e-06
4.35737e-07
5.87223e-07
1.20018e-06
4.46461e-07
4.44466e-07
5.742e-07
1.20985e-06
4.35726e-07
1.47247e-06
6.7769e-06
6.29405e-06
1.55367e-06
1.47221e-06
6.77674e-06
6.29364e-06
1.55358e-06
5.93585e-07
4.35478e-07
1.23556e-06
4.15847e-07
1.21739e-06
4.25543e-07
6.03569e-07
5.9341e-07
4.3549e-07
1.23685e-06
4.15835e-07
1.21678e-06
4.25531e-07
6.03477e-07
2.30689e-06
2.30602e-06
4.53742e-07
2.34405e-06
2.34265e-06
2.13227e-05
2.31428e-05
2.44865e-05
2.35551e-05
4.51168e-07
2.43054e-06
2.4296e-06
2.37126e-06
2.37039e-06
2.4487e-05
2.35546e-05
5.87259e-07
1.20012e-06
4.46461e-07
4.44457e-07
5.74232e-07
1.20981e-06
4.35726e-07
1.42805e-06
5.58173e-06
1.33015e-06
6.13168e-06
5.87285e-07
4.46468e-07
1.2005e-06
4.44458e-07
5.74326e-07
4.35731e-07
1.20876e-06
1.47235e-06
6.77799e-06
6.29502e-06
1.55396e-06
5.93477e-07
4.35483e-07
1.23669e-06
4.15837e-07
1.21685e-06
4.25531e-07
6.03522e-07
1.47222e-06
6.77701e-06
6.29396e-06
1.55372e-06
5.93498e-07
4.35482e-07
4.15839e-07
1.23574e-06
4.25536e-07
1.21773e-06
6.03482e-07
1.42797e-06
5.58118e-06
1.33004e-06
6.13125e-06
5.87247e-07
4.46459e-07
1.20036e-06
4.44451e-07
5.7417e-07
4.35723e-07
1.21012e-06
1.42773e-06
5.58264e-06
1.3299e-06
6.13274e-06
5.93439e-07
4.35474e-07
1.23539e-06
4.15837e-07
1.21721e-06
4.25533e-07
6.03667e-07
1.47237e-06
6.77673e-06
6.29327e-06
1.55396e-06
5.9341e-07
4.35476e-07
4.15834e-07
1.23699e-06
4.25529e-07
1.21702e-06
6.03526e-07
1.47235e-06
6.77842e-06
6.29519e-06
1.55386e-06
2.30859e-06
2.30778e-06
4.537e-07
2.34449e-06
2.34392e-06
2.13245e-05
2.31448e-05
2.44898e-05
2.35573e-05
4.51125e-07
2.43107e-06
2.42963e-06
2.37228e-06
2.37079e-06
2.44883e-05
2.35575e-05
5.87473e-07
4.46472e-07
1.20044e-06
4.44466e-07
5.74485e-07
4.35739e-07
1.21017e-06
1.4283e-06
5.58223e-06
1.33045e-06
6.13246e-06
1.42819e-06
5.58232e-06
1.33043e-06
6.13232e-06
5.93618e-07
4.35454e-07
4.15848e-07
1.23638e-06
4.25543e-07
1.21638e-06
6.0373e-07
5.93655e-07
4.3549e-07
4.1585e-07
1.23709e-06
4.25546e-07
1.21703e-06
6.03652e-07
1.47246e-06
6.77782e-06
6.2948e-06
1.55392e-06
1.47254e-06
6.77779e-06
6.29465e-06
1.55415e-06
2.13238e-05
2.31443e-05
2.13257e-05
2.31457e-05
4.51138e-07
2.43034e-06
2.43046e-06
2.37108e-06
2.37119e-06
2.44883e-05
2.35571e-05
2.44895e-05
2.35584e-05
2.46472e-05
2.49399e-05
2.46505e-05
2.49426e-05
2.4616e-06
2.46237e-06
4.30322e-07
2.5195e-06
2.52055e-06
2.48366e-05
2.49393e-05
2.48405e-05
2.49417e-05
4.28615e-07
2.59933e-06
2.60017e-06
2.5488e-06
2.54946e-06
1.65892e-06
6.91373e-06
1.59169e-06
7.32111e-06
6.15238e-07
1.24792e-06
4.0661e-07
4.10787e-07
6.08348e-07
1.26956e-06
3.97795e-07
6.15173e-07
1.24718e-06
4.066e-07
4.10797e-07
6.08239e-07
1.27112e-06
3.97786e-07
1.69028e-06
7.76097e-06
7.43143e-06
1.74346e-06
1.6895e-06
7.76117e-06
7.43105e-06
1.74312e-06
6.1859e-07
4.03174e-07
1.30613e-06
3.81293e-07
1.28333e-06
3.89366e-07
6.22494e-07
6.18515e-07
4.03182e-07
1.30634e-06
3.81288e-07
1.28247e-06
3.8936e-07
6.22422e-07
2.46209e-06
2.46164e-06
4.30304e-07
2.52017e-06
2.51961e-06
2.46471e-05
2.49401e-05
2.48377e-05
2.49391e-05
4.28605e-07
2.60016e-06
2.59949e-06
2.54925e-06
2.54915e-06
2.48382e-05
2.49395e-05
6.15226e-07
1.24735e-06
4.06602e-07
4.1079e-07
6.08312e-07
1.27105e-06
3.97791e-07
1.65839e-06
6.91387e-06
1.59189e-06
7.32144e-06
6.15166e-07
4.06604e-07
1.24808e-06
4.10793e-07
6.08298e-07
3.9779e-07
1.26968e-06
1.68989e-06
7.7623e-06
7.4325e-06
1.74254e-06
6.18588e-07
4.03175e-07
1.30635e-06
3.81295e-07
1.28269e-06
3.89365e-07
6.22505e-07
1.69006e-06
7.76153e-06
7.43126e-06
1.74226e-06
6.1855e-07
4.03182e-07
3.81292e-07
1.3062e-06
3.89364e-07
1.28342e-06
6.22461e-07
1.65898e-06
6.91361e-06
1.59198e-06
7.32159e-06
6.15225e-07
4.06599e-07
1.24739e-06
4.10787e-07
6.0827e-07
3.97786e-07
1.27125e-06
1.65913e-06
6.91544e-06
1.59215e-06
7.32291e-06
6.18395e-07
4.03161e-07
1.305e-06
3.81291e-07
1.28339e-06
3.89362e-07
6.22657e-07
1.68987e-06
7.76174e-06
7.43131e-06
1.74204e-06
6.18542e-07
4.03173e-07
3.81288e-07
1.30634e-06
3.89359e-07
1.28258e-06
6.22459e-07
1.68991e-06
7.76289e-06
7.43289e-06
1.74335e-06
2.46311e-06
2.4609e-06
4.30277e-07
2.52095e-06
2.51912e-06
2.46491e-05
2.49412e-05
2.48397e-05
2.49423e-05
4.28579e-07
2.60062e-06
2.59903e-06
2.55043e-06
2.54794e-06
2.48336e-05
2.49405e-05
6.15287e-07
4.06613e-07
1.2474e-06
4.10796e-07
6.08423e-07
3.97799e-07
1.27123e-06
1.65875e-06
6.91475e-06
1.59208e-06
7.32211e-06
1.65893e-06
6.91483e-06
1.59227e-06
7.32245e-06
6.18499e-07
4.03143e-07
3.81296e-07
1.30461e-06
3.89367e-07
1.28249e-06
6.22429e-07
6.18649e-07
4.03179e-07
3.81296e-07
1.30636e-06
3.8937e-07
1.28267e-06
6.22516e-07
1.69015e-06
7.76202e-06
7.43201e-06
1.74248e-06
1.69047e-06
7.76261e-06
7.43238e-06
1.74272e-06
2.46491e-05
2.49416e-05
2.46504e-05
2.49428e-05
4.28591e-07
2.59873e-06
2.60013e-06
2.54875e-06
2.54937e-06
2.48387e-05
2.49408e-05
2.48399e-05
2.4942e-05
2.47298e-05
2.44303e-05
2.47312e-05
2.4433e-05
2.62523e-06
2.62566e-06
4.0842e-07
2.66963e-06
2.67033e-06
2.38697e-05
2.42605e-05
2.38726e-05
2.42624e-05
4.06851e-07
2.73598e-06
2.73596e-06
2.69335e-06
2.69384e-06
1.80654e-06
7.84454e-06
1.76705e-06
8.10163e-06
6.25717e-07
1.31718e-06
3.73544e-07
3.81785e-07
6.24503e-07
1.33887e-06
3.66091e-07
6.2564e-07
1.31723e-06
3.7354e-07
3.81791e-07
6.24444e-07
1.3391e-06
3.66089e-07
1.82582e-06
8.35298e-06
8.16136e-06
1.85595e-06
1.82646e-06
8.35345e-06
8.16141e-06
1.85434e-06
6.26115e-07
3.75074e-07
1.36741e-06
3.51984e-07
1.34851e-06
3.58912e-07
6.24872e-07
6.26095e-07
3.75078e-07
1.3676e-06
3.51984e-07
1.34863e-06
3.58911e-07
6.24789e-07
2.62516e-06
2.62507e-06
4.08396e-07
2.67012e-06
2.67111e-06
2.47295e-05
2.44311e-05
2.38701e-05
2.42613e-05
4.06832e-07
2.73548e-06
2.7361e-06
2.6934e-06
2.69205e-06
2.3871e-05
2.42604e-05
6.25753e-07
1.31741e-06
3.73546e-07
3.81785e-07
6.24537e-07
1.3392e-06
3.66097e-07
1.80701e-06
7.84477e-06
1.7677e-06
8.1022e-06
6.25709e-07
3.73544e-07
1.3172e-06
3.81795e-07
6.24492e-07
3.66094e-07
1.33891e-06
1.82679e-06
8.35462e-06
8.16246e-06
1.85464e-06
6.26209e-07
3.75074e-07
1.3678e-06
3.51992e-07
1.34886e-06
3.58918e-07
6.24903e-07
1.82659e-06
8.35418e-06
8.16178e-06
1.85458e-06
6.26133e-07
3.75084e-07
3.5199e-07
1.36754e-06
3.58916e-07
1.34861e-06
6.24844e-07
1.80677e-06
7.8449e-06
1.76777e-06
8.10224e-06
6.25676e-07
3.7354e-07
1.31727e-06
3.81787e-07
6.24466e-07
3.66089e-07
1.3391e-06
1.80675e-06
7.84618e-06
1.76721e-06
8.10307e-06
6.26038e-07
3.75058e-07
1.36601e-06
3.51987e-07
1.34983e-06
3.58913e-07
6.24796e-07
1.82652e-06
8.35403e-06
8.16177e-06
1.85437e-06
6.26113e-07
3.75074e-07
3.51986e-07
1.36765e-06
3.58912e-07
1.34863e-06
6.24856e-07
1.82657e-06
8.35469e-06
8.16277e-06
1.8545e-06
2.62658e-06
2.62427e-06
4.0845e-07
2.67082e-06
2.66953e-06
2.4734e-05
2.4432e-05
2.38734e-05
2.42629e-05
4.06773e-07
2.73713e-06
2.7347e-06
2.6947e-06
2.69299e-06
2.38711e-05
2.42628e-05
6.25749e-07
3.73546e-07
1.31741e-06
3.81786e-07
6.24549e-07
3.66094e-07
1.33917e-06
1.80786e-06
7.84542e-06
1.76773e-06
8.10246e-06
1.80813e-06
7.84601e-06
1.76802e-06
8.10316e-06
6.26114e-07
3.75051e-07
3.51988e-07
1.36624e-06
3.58914e-07
1.34997e-06
6.24819e-07
6.26154e-07
3.75073e-07
3.51987e-07
1.36771e-06
3.58914e-07
1.3488e-06
6.24869e-07
1.82563e-06
8.35419e-06
8.16223e-06
1.85575e-06
1.8258e-06
8.35499e-06
8.16292e-06
1.8559e-06
2.47312e-05
2.44319e-05
2.47325e-05
2.44331e-05
4.06786e-07
2.73463e-06
2.73586e-06
2.6927e-06
2.69381e-06
2.3871e-05
2.42624e-05
2.38719e-05
2.42638e-05
2.36815e-05
2.32653e-05
2.36835e-05
2.32682e-05
2.75754e-06
2.7586e-06
3.86598e-07
2.80182e-06
2.80115e-06
2.26735e-05
2.30766e-05
2.26762e-05
2.30784e-05
3.85141e-07
2.86984e-06
2.86944e-06
2.82331e-06
2.8247e-06
1.88777e-06
8.39337e-06
1.86943e-06
8.53028e-06
6.21092e-07
1.37582e-06
3.45288e-07
3.55994e-07
6.24576e-07
1.39193e-06
3.38807e-07
6.21031e-07
1.37591e-06
3.45289e-07
3.55995e-07
6.24775e-07
1.39208e-06
3.38809e-07
1.89775e-06
8.64641e-06
8.55457e-06
1.91112e-06
1.89915e-06
8.64679e-06
8.55483e-06
1.91e-06
6.2074e-07
3.49951e-07
1.41303e-06
3.26432e-07
1.39898e-06
3.32526e-07
6.15055e-07
6.20715e-07