/*--------------------------------*- C++ -*----------------------------------*\
| =========                 |                                                 |
| \\      /  F ield         | OpenFOAM: The Open Source CFD Toolbox           |
|  \\    /   O peration     | Version:  v1906                                 |
|   \\  /    A nd           | Web:      www.OpenFOAM.com                      |
|    \\/     M anipulation  |                                                 |
\*---------------------------------------------------------------------------*/
FoamFile
{
    version     2.0;
    format      ascii;
    class       volVectorField;
    location    "1000";
    object      U;
}
// * * * * * * * * * * * * * * * * * * * * * * * * * * * * * * * * * * * * * //

dimensions      [0 1 -1 0 0 0 0];


internalField   nonuniform List<vector> 
42616
(
(0.000106234 0.000106263 0.100294)
(-0.000184478 0.000115688 0.100389)
(0.000115682 -0.000184511 0.100389)
(-0.000247795 -0.000247701 0.100398)
(9.72603e-05 9.71556e-05 0.100854)
(-0.00015146 9.35672e-05 0.100938)
(9.36152e-05 -0.000151582 0.100938)
(-0.00019433 -0.000194326 0.10097)
(9.70672e-05 9.70577e-05 0.101368)
(-0.000152391 9.07965e-05 0.101447)
(9.0884e-05 -0.000152328 0.101447)
(-0.000194809 -0.000194808 0.101474)
(9.48118e-05 9.48322e-05 0.101886)
(-0.00014931 8.71486e-05 0.101954)
(8.71492e-05 -0.000149323 0.101954)
(-0.000192179 -0.000192229 0.101967)
(9.14707e-05 9.13987e-05 0.102391)
(-0.000143645 8.24297e-05 0.102442)
(8.24904e-05 -0.000143651 0.102442)
(-0.000186967 -0.000186993 0.102435)
(8.80149e-05 8.79249e-05 0.102877)
(-0.000137753 7.83641e-05 0.102907)
(7.84316e-05 -0.000137707 0.102907)
(-0.000181596 -0.00018155 0.102874)
(8.48363e-05 8.48006e-05 0.103344)
(-0.000132319 7.50989e-05 0.103348)
(7.51572e-05 -0.000132269 0.103348)
(-0.000176959 -0.000176914 0.103285)
(8.20987e-05 8.21059e-05 0.103793)
(-0.000127582 7.25388e-05 0.103768)
(7.25751e-05 -0.000127525 0.103768)
(-0.000173205 -0.00017317 0.103668)
(7.98031e-05 7.98082e-05 0.104226)
(-0.00012352 7.05719e-05 0.104168)
(7.05645e-05 -0.00012344 0.104168)
(-0.000170247 -0.000170274 0.104027)
(7.78526e-05 7.78169e-05 0.104646)
(-0.000120038 6.92429e-05 0.10455)
(6.9134e-05 -0.000119947 0.10455)
(-0.000168091 -0.000168116 0.104363)
(7.61086e-05 7.60813e-05 0.105053)
(-0.000116878 6.81505e-05 0.104917)
(6.80868e-05 -0.000116813 0.104917)
(-0.000166549 -0.000166568 0.104678)
(7.45349e-05 7.4511e-05 0.10545)
(-0.000113884 6.71325e-05 0.105269)
(6.71001e-05 -0.000113832 0.105269)
(-0.000165229 -0.000165238 0.104972)
(7.30708e-05 7.30435e-05 0.105836)
(-0.000111175 6.61181e-05 0.105606)
(6.61339e-05 -0.000111178 0.105606)
(-0.000164086 -0.000164151 0.105245)
(7.16267e-05 7.1594e-05 0.106213)
(-0.000108684 6.50366e-05 0.10593)
(6.50751e-05 -0.000108693 0.10593)
(-0.000163045 -0.000163074 0.105498)
(7.02148e-05 7.01722e-05 0.106581)
(-0.000106247 6.39917e-05 0.106239)
(6.40206e-05 -0.00010626 0.106239)
(-0.000161787 -0.000161789 0.105728)
(6.88168e-05 6.87673e-05 0.10694)
(-0.000103849 6.30026e-05 0.106534)
(6.30207e-05 -0.000103878 0.106533)
(-0.000160271 -0.000160315 0.105934)
(6.74333e-05 6.7383e-05 0.10729)
(-0.000101514 6.20075e-05 0.106813)
(6.20173e-05 -0.000101537 0.106813)
(-0.000158642 -0.000158706 0.106117)
(6.60973e-05 6.60617e-05 0.107631)
(-9.92558e-05 6.10103e-05 0.107077)
(6.10371e-05 -9.93653e-05 0.107077)
(-0.000156829 -0.000156892 0.106274)
(6.47948e-05 6.47745e-05 0.107963)
(-9.72986e-05 6.00645e-05 0.107325)
(6.00822e-05 -9.74033e-05 0.107325)
(-0.000154774 -0.000154817 0.106405)
(6.35209e-05 6.34879e-05 0.108287)
(-9.54737e-05 5.90691e-05 0.107556)
(5.91017e-05 -9.55339e-05 0.107556)
(-0.000152358 -0.000152375 0.106509)
(6.22635e-05 6.2235e-05 0.108602)
(-9.36661e-05 5.80513e-05 0.10777)
(5.80553e-05 -9.36981e-05 0.10777)
(-0.000149512 -0.000149518 0.106585)
(0.000138006 0.000138259 0.10028)
(0.000126479 0.000160109 0.100229)
(-0.000126384 0.00015994 0.100229)
(-0.000137834 0.000138079 0.10028)
(0.000159931 0.000126634 0.100229)
(0.000159997 -0.000126382 0.100229)
(9.38348e-05 9.38686e-05 0.100152)
(-9.36929e-05 9.38031e-05 0.100152)
(9.38426e-05 -9.36862e-05 0.100152)
(-9.38363e-05 -9.37528e-05 0.100152)
(-0.000159726 0.000126569 0.100229)
(-0.000159962 -0.000126428 0.100229)
(0.00013818 -0.000137897 0.10028)
(0.000126605 -0.000159725 0.100229)
(-0.000126567 -0.000159796 0.100229)
(-0.000138121 -0.000137976 0.10028)
(0.000247825 0.000248033 0.100398)
(0.000112891 0.000112702 0.100896)
(0.000115701 0.000185037 0.10039)
(-0.000115478 0.000184847 0.10039)
(9.32887e-05 0.000149069 0.100817)
(-9.31418e-05 0.000148969 0.100817)
(-0.000247556 0.000247785 0.100398)
(-0.000112711 0.000112499 0.100896)
(0.000184772 0.000115697 0.10039)
(0.000184861 -0.000115553 0.10039)
(0.000149171 9.31827e-05 0.100817)
(0.000148988 -9.31039e-05 0.100817)
(-0.000184798 -0.000115631 0.10039)
(-0.000148948 9.31374e-05 0.100816)
(-0.000148944 -9.31525e-05 0.100817)
(0.000247865 -0.000247676 0.100398)
(0.000112626 -0.000112909 0.100896)
(-0.000115693 -0.000184723 0.10039)
(9.31162e-05 -0.000149101 0.100817)
(-9.30284e-05 -0.000148871 0.100817)
(-0.000112707 -0.000112724 0.100896)
(0.000194509 0.000194295 0.100971)
(0.000105431 0.000105387 0.101399)
(9.3728e-05 0.000151519 0.100938)
(-9.36419e-05 0.00015147 0.100938)
(9.14769e-05 0.000152153 0.101319)
(-9.1457e-05 0.000152125 0.101319)
(-0.000194352 0.000194126 0.10097)
(-0.000105511 0.000105191 0.101399)
(0.000151624 9.36195e-05 0.100938)
(0.000151479 -9.35895e-05 0.100938)
(0.000152168 9.14581e-05 0.101319)
(0.000152138 -9.14711e-05 0.101319)
(-0.000151497 -9.36169e-05 0.100938)
(-0.000152236 9.12967e-05 0.101319)
(-0.000152261 -9.14139e-05 0.101319)
(0.000194224 -0.00019451 0.100971)
(0.000105364 -0.000105507 0.101399)
(-9.35673e-05 -0.000151378 0.100938)
(9.14141e-05 -0.0001522 0.101319)
(-9.14635e-05 -0.000152177 0.101319)
(-0.000105452 -0.000105422 0.101399)
(0.000194822 0.00019478 0.101474)
(9.77383e-05 9.77886e-05 0.101896)
(9.09356e-05 0.000152303 0.101447)
(-9.09394e-05 0.000152248 0.101447)
(8.83364e-05 0.000150526 0.101828)
(-8.82924e-05 0.000150421 0.101828)
(-0.000194891 0.000194572 0.101474)
(-9.77751e-05 9.75649e-05 0.101896)
(0.000152268 9.09635e-05 0.101447)
(0.000152244 -9.09622e-05 0.101447)
(0.000150401 8.84156e-05 0.101828)
(0.000150347 -8.83559e-05 0.101828)
(-0.000152402 -9.09278e-05 0.101447)
(-0.000150501 8.82578e-05 0.101828)
(-0.000150511 -8.83733e-05 0.101828)
(0.000194716 -0.000194882 0.101474)
(9.75923e-05 -9.78611e-05 0.101896)
(-9.09853e-05 -0.000152336 0.101447)
(8.82683e-05 -0.000150489 0.101828)
(-8.8383e-05 -0.000150502 0.101828)
(-9.77821e-05 -9.78008e-05 0.101896)
(0.000192202 0.000192211 0.101967)
(8.85144e-05 8.84267e-05 0.10237)
(8.7212e-05 0.000149368 0.101954)
(-8.71526e-05 0.000149264 0.101954)
(8.3684e-05 0.000145196 0.102322)
(-8.35513e-05 0.000145131 0.102322)
(-0.000192195 0.000192015 0.101967)
(-8.84127e-05 8.83162e-05 0.10237)
(0.000149258 8.72765e-05 0.101954)
(0.000149183 -8.72208e-05 0.101954)
(0.000145187 8.36647e-05 0.102322)
(0.000145081 -8.35777e-05 0.102322)
(-0.000149329 -8.72559e-05 0.101954)
(-0.000145132 8.36109e-05 0.102322)
(-0.000145196 -8.37028e-05 0.102322)
(0.000192023 -0.000192284 0.101967)
(8.83445e-05 -8.85013e-05 0.10237)
(-8.72551e-05 -0.000149337 0.101954)
(8.36388e-05 -0.00014515 0.102322)
(-8.37177e-05 -0.000145179 0.102322)
(-8.85025e-05 -8.8505e-05 0.10237)
(0.000187043 0.000186892 0.102435)
(7.97644e-05 7.96539e-05 0.102816)
(8.2521e-05 0.00014369 0.102442)
(-8.23961e-05 0.000143654 0.102442)
(7.94203e-05 0.000139214 0.102793)
(-7.92986e-05 0.000139236 0.102793)
(-0.000186909 0.000186785 0.102435)
(-7.9644e-05 7.96426e-05 0.102816)
(0.000143718 8.24634e-05 0.102442)
(0.000143614 -8.24004e-05 0.102442)
(0.000139271 7.93167e-05 0.102793)
(0.000139212 -7.92512e-05 0.102793)
(-0.00014372 -8.24972e-05 0.102442)
(-0.000139197 7.92945e-05 0.102793)
(-0.000139286 -7.93148e-05 0.102793)
(0.000186816 -0.000186991 0.102435)
(7.97073e-05 -7.96247e-05 0.102816)
(-8.25454e-05 -0.000143678 0.102442)
(7.9366e-05 -0.000139157 0.102793)
(-7.9393e-05 -0.000139185 0.102793)
(-7.97522e-05 -7.96513e-05 0.102816)
(0.000181666 0.000181506 0.102874)
(7.19536e-05 7.19237e-05 0.103234)
(7.84843e-05 0.000137772 0.102907)
(-7.83705e-05 0.000137819 0.102907)
(7.59478e-05 0.000133677 0.10324)
(-7.58409e-05 0.000133715 0.10324)
(-0.000181517 0.000181476 0.102874)
(-7.18516e-05 7.19143e-05 0.103234)
(0.000137822 7.83851e-05 0.102907)
(0.000137777 -7.8315e-05 0.102907)
(0.000133659 7.58916e-05 0.10324)
(0.000133655 -7.58112e-05 0.10324)
(-0.000137845 -7.83773e-05 0.102907)
(-0.000133612 7.58471e-05 0.10324)
(-0.000133728 -7.58755e-05 0.10324)
(0.000181536 -0.000181525 0.102874)
(7.19574e-05 -7.18526e-05 0.103234)
(-7.84561e-05 -0.000137736 0.102907)
(7.59096e-05 -0.000133565 0.10324)
(-7.59399e-05 -0.000133604 0.10324)
(-7.20007e-05 -7.18999e-05 0.103234)
(0.000176972 0.0001769 0.103284)
(6.50854e-05 6.51438e-05 0.103625)
(7.51971e-05 0.000132396 0.103348)
(-7.50956e-05 0.000132429 0.103348)
(7.31863e-05 0.000128812 0.103665)
(-7.31224e-05 0.00012882 0.103665)
(-0.000176834 0.00017686 0.103284)
(-6.50254e-05 6.51216e-05 0.103625)
(0.000132356 7.5156e-05 0.103348)
(0.000132356 -7.50728e-05 0.103348)
(0.0001287 7.31861e-05 0.103665)
(0.000128716 -7.31096e-05 0.103665)
(-0.000132439 -7.51339e-05 0.103348)
(-0.000128697 7.31224e-05 0.103665)
(-0.000128828 -7.3155e-05 0.103665)
(0.000176894 -0.000176874 0.103284)
(6.51218e-05 -6.50465e-05 0.103625)
(-7.51923e-05 -0.000132311 0.103348)
(7.3164e-05 -0.000128642 0.103665)
(-7.32063e-05 -0.000128693 0.103665)
(-6.51901e-05 -6.50919e-05 0.103625)
(0.000173174 0.000173167 0.103668)
(5.91095e-05 5.9243e-05 0.103993)
(7.25913e-05 0.000127686 0.103768)
(-7.25486e-05 0.000127697 0.103768)
(7.10266e-05 0.000124549 0.104069)
(-7.10315e-05 0.000124545 0.104069)
(-0.00017308 0.000173126 0.103668)
(-5.91345e-05 5.92357e-05 0.103993)
(0.000127571 7.25996e-05 0.103768)
(0.000127589 -7.25359e-05 0.103768)
(0.000124416 7.10418e-05 0.10407)
(0.000124438 -7.10076e-05 0.104069)
(-0.000127707 -7.25731e-05 0.103768)
(-0.000124472 7.101e-05 0.10407)
(-0.000124554 -7.10229e-05 0.10407)
(0.000173117 -0.000173135 0.103668)
(5.92059e-05 -5.91124e-05 0.103993)
(-7.26185e-05 -0.000127579 0.103768)
(7.10114e-05 -0.000124396 0.10407)
(-7.10376e-05 -0.000124455 0.10407)
(-5.92063e-05 -5.9146e-05 0.103993)
(0.000170244 0.000170213 0.104027)
(5.41274e-05 5.43489e-05 0.104338)
(7.06163e-05 0.000123586 0.104168)
(-7.0631e-05 0.000123571 0.104168)
(6.96551e-05 0.00012091 0.104456)
(-6.96911e-05 0.000120866 0.104456)
(-0.000170222 0.000170173 0.104027)
(-5.42194e-05 5.43415e-05 0.104338)
(0.000123448 7.06033e-05 0.104168)
(0.000123473 -7.06054e-05 0.104168)
(0.000120754 6.95454e-05 0.104456)
(0.000120781 -6.96405e-05 0.104456)
(-0.00012358 -7.05705e-05 0.104168)
(-0.000120864 6.95425e-05 0.104456)
(-0.000120876 -6.9505e-05 0.104456)
(0.000170141 -0.000170259 0.104027)
(5.42821e-05 -5.40829e-05 0.104338)
(-7.05674e-05 -0.000123494 0.104168)
(6.94335e-05 -0.00012077 0.104456)
(-6.9419e-05 -0.000120808 0.104456)
(-5.41658e-05 -5.40771e-05 0.104338)
(0.000168127 0.000168175 0.104363)
(4.96951e-05 4.98953e-05 0.104663)
(6.93714e-05 0.000120081 0.10455)
(-6.9411e-05 0.000120023 0.10455)
(6.86089e-05 0.000117725 0.104827)
(-6.86176e-05 0.000117631 0.104827)
(-0.000168168 0.000168123 0.104363)
(-4.97239e-05 4.9846e-05 0.104663)
(0.000119919 6.9256e-05 0.10455)
(0.000119948 -6.93668e-05 0.10455)
(0.000117524 6.84908e-05 0.104827)
(0.000117563 -6.85972e-05 0.104827)
(-0.000120051 -6.92243e-05 0.10455)
(-0.000117647 6.84167e-05 0.104827)
(-0.000117684 -6.84448e-05 0.104827)
(0.000168078 -0.00016813 0.104363)
(4.97912e-05 -4.96922e-05 0.104663)
(-6.91242e-05 -0.000119982 0.10455)
(6.83416e-05 -0.000117577 0.104827)
(-6.83378e-05 -0.000117598 0.104827)
(-4.97281e-05 -4.96607e-05 0.104663)
(0.000166578 0.00016663 0.104678)
(4.54837e-05 4.56296e-05 0.104968)
(6.83465e-05 0.000116953 0.104917)
(-6.83592e-05 0.000116861 0.104917)
(6.75904e-05 0.000114718 0.105182)
(-6.75879e-05 0.000114628 0.105182)
(-0.000166584 0.000166545 0.104678)
(-4.54989e-05 4.56141e-05 0.104968)
(0.000116748 6.82334e-05 0.104917)
(0.000116793 -6.83451e-05 0.104917)
(0.0001145 6.74903e-05 0.105182)
(0.000114553 -6.75885e-05 0.105182)
(-0.000116926 -6.81916e-05 0.104917)
(-0.000114613 6.73861e-05 0.105182)
(-0.000114692 -6.74354e-05 0.105182)
(0.000166502 -0.000166599 0.104678)
(4.55569e-05 -4.55164e-05 0.104968)
(-6.80884e-05 -0.000116832 0.104917)
(6.73457e-05 -0.000114572 0.105182)
(-6.73446e-05 -0.000114581 0.105182)
(-4.55311e-05 -4.54841e-05 0.104968)
(0.000165231 0.000165266 0.104972)
(4.15348e-05 4.16176e-05 0.105253)
(6.73387e-05 0.000113994 0.105269)
(-6.73284e-05 0.000113898 0.105269)
(6.65892e-05 0.000111943 0.105523)
(-6.65428e-05 0.00011188 0.105523)
(-0.000165204 0.000165201 0.104972)
(-4.15381e-05 4.16255e-05 0.105253)
(0.000113766 6.72438e-05 0.105269)
(0.000113824 -6.73369e-05 0.105268)
(0.000111763 6.65157e-05 0.105523)
(0.000111826 -6.65643e-05 0.105523)
(-0.000113972 -6.71887e-05 0.105269)
(-0.000111814 6.63808e-05 0.105523)
(-0.000111913 -6.64243e-05 0.105523)
(0.000165167 -0.000165267 0.104972)
(4.15687e-05 -4.15655e-05 0.105253)
(-6.71043e-05 -0.000113859 0.105269)
(6.63852e-05 -0.00011182 0.105523)
(-6.63657e-05 -0.000111806 0.105523)
(-4.15659e-05 -4.15555e-05 0.105253)
(0.000164101 0.000164076 0.105245)
(3.75936e-05 3.77469e-05 0.105519)
(6.63257e-05 0.000111306 0.105606)
(-6.62779e-05 0.000111248 0.105606)
(6.55496e-05 0.000109437 0.10585)
(-6.5493e-05 0.000109379 0.10585)
(-0.000164085 0.000164038 0.105245)
(-3.75177e-05 3.76968e-05 0.105519)
(0.000111135 6.62671e-05 0.105606)
(0.000111201 -6.62986e-05 0.105606)
(0.000109303 6.5455e-05 0.10585)
(0.000109363 -6.55115e-05 0.10585)
(-0.000111279 -6.61713e-05 0.105606)
(-0.000109293 6.53032e-05 0.10585)
(-0.000109405 -6.5398e-05 0.10585)
(0.000164023 -0.000164162 0.105245)
(3.77261e-05 -3.75353e-05 0.105519)
(-6.61153e-05 -0.00011117 0.105606)
(6.53397e-05 -0.000109313 0.10585)
(-6.53014e-05 -0.0001093 0.10585)
(-3.76617e-05 -3.75491e-05 0.105519)
(0.000163066 0.000163046 0.105497)
(3.34712e-05 3.36187e-05 0.105764)
(6.52894e-05 0.000108821 0.105929)
(-6.5233e-05 0.000108767 0.105929)
(6.45486e-05 0.00010699 0.106163)
(-6.44858e-05 0.000106938 0.106163)
(-0.000162999 0.000162981 0.105497)
(-3.33198e-05 3.35516e-05 0.105764)
(0.000108695 6.51884e-05 0.10593)
(0.000108759 -6.52469e-05 0.105929)
(0.000106904 6.44089e-05 0.106163)
(0.000106952 -6.44848e-05 0.106163)
(-0.000108793 -6.51383e-05 0.10593)
(-0.000106846 6.42444e-05 0.106163)
(-0.000106954 -6.43909e-05 0.106163)
(0.00016301 -0.000163058 0.105497)
(3.36463e-05 -3.33521e-05 0.105764)
(-6.50398e-05 -0.000108689 0.10593)
(6.42796e-05 -0.000106871 0.106163)
(-6.42415e-05 -0.000106858 0.106163)
(-3.3508e-05 -3.336e-05 0.105764)
(0.000161823 0.000161814 0.105727)
(2.93968e-05 2.94811e-05 0.105986)
(6.43033e-05 0.000106382 0.106239)
(-6.42415e-05 0.000106341 0.106239)
(6.3563e-05 0.000104597 0.106461)
(-6.35085e-05 0.000104566 0.106461)
(-0.00016171 0.00016174 0.105727)
(-2.923e-05 2.94361e-05 0.105987)
(0.000106302 6.41538e-05 0.106239)
(0.000106349 -6.42342e-05 0.106239)
(0.000104549 6.34173e-05 0.106461)
(0.000104569 -6.34831e-05 0.106461)
(-0.000106349 -6.41416e-05 0.106239)
(-0.000104446 6.32601e-05 0.106461)
(-0.000104551 -6.33995e-05 0.106461)
(0.0001618 -0.000161774 0.105727)
(2.9501e-05 -2.92622e-05 0.105986)
(-6.399e-05 -0.000106255 0.106239)
(6.32718e-05 -0.000104473 0.106461)
(-6.32384e-05 -0.000104467 0.106461)
(-2.93516e-05 -2.92708e-05 0.105986)
(0.000160359 0.000160312 0.105934)
(2.55434e-05 2.55964e-05 0.106186)
(6.3314e-05 0.000103994 0.106533)
(-6.32474e-05 0.000103972 0.106533)
(6.25563e-05 0.000102256 0.106744)
(-6.24848e-05 0.00010223 0.106744)
(-0.000160225 0.000160264 0.105934)
(-2.53829e-05 2.55295e-05 0.106186)
(0.000103954 6.31604e-05 0.106533)
(0.000103973 -6.32317e-05 0.106533)
(0.000102227 6.24147e-05 0.106745)
(0.000102236 -6.24767e-05 0.106744)
(-0.00010396 -6.3144e-05 0.106533)
(-0.000102092 6.22559e-05 0.106745)
(-0.000102197 -6.23906e-05 0.106744)
(0.000160301 -0.000160299 0.105934)
(2.56037e-05 -2.53983e-05 0.106186)
(-6.29852e-05 -0.00010388 0.106534)
(6.22699e-05 -0.00010212 0.106745)
(-6.22316e-05 -0.000102114 0.106745)
(-2.54563e-05 -2.54101e-05 0.106186)
(0.000158745 0.000158681 0.106117)
(2.19931e-05 2.2036e-05 0.10636)
(6.23027e-05 0.000101657 0.106813)
(-6.22227e-05 0.000101658 0.106813)
(6.15418e-05 9.9989e-05 0.107012)
(-6.14564e-05 9.99429e-05 0.107012)
(-0.000158618 0.000158637 0.106117)
(-2.18305e-05 2.19414e-05 0.106361)
(0.000101631 6.21479e-05 0.106813)
(0.000101651 -6.22238e-05 0.106813)
(9.9972e-05 6.14115e-05 0.107012)
(9.99848e-05 -6.1477e-05 0.107012)
(-0.000101627 -6.21328e-05 0.106813)
(-9.97905e-05 6.12504e-05 0.107013)
(-9.9904e-05 -6.13709e-05 0.107012)
(0.000158675 -0.000158684 0.106117)
(2.20387e-05 -2.18551e-05 0.10636)
(-6.19774e-05 -0.000101536 0.106813)
(6.12741e-05 -9.98627e-05 0.107012)
(-6.12287e-05 -9.98032e-05 0.107013)
(-2.18903e-05 -2.18548e-05 0.10636)
(0.000156936 0.000156881 0.106274)
(1.86788e-05 1.87117e-05 0.106509)
(6.13031e-05 9.9492e-05 0.107077)
(-6.12066e-05 9.94048e-05 0.107077)
(6.05692e-05 9.79897e-05 0.107264)
(-6.05024e-05 9.78916e-05 0.107264)
(-0.000156812 0.000156815 0.106274)
(-1.85706e-05 1.86243e-05 0.10651)
(9.94522e-05 6.11536e-05 0.107077)
(9.94846e-05 -6.12414e-05 0.107077)
(9.79886e-05 6.04585e-05 0.107264)
(9.7998e-05 -6.05274e-05 0.107264)
(-9.93753e-05 -6.11128e-05 0.107077)
(-9.77674e-05 6.03022e-05 0.107265)
(-9.78697e-05 -6.03996e-05 0.107264)
(0.000156862 -0.000156877 0.106274)
(1.87223e-05 -1.85738e-05 0.106509)
(-6.09801e-05 -9.92601e-05 0.107077)
(6.03217e-05 -9.78802e-05 0.107264)
(-6.02788e-05 -9.77513e-05 0.107264)
(-1.85966e-05 -1.85474e-05 0.106509)
(0.000154871 0.000154828 0.106404)
(1.55451e-05 1.55765e-05 0.106631)
(6.03293e-05 9.75569e-05 0.107324)
(-6.02629e-05 9.74176e-05 0.107324)
(5.95836e-05 9.60481e-05 0.107499)
(-5.95581e-05 9.60162e-05 0.107499)
(-0.000154787 0.00015475 0.106405)
(-1.54973e-05 1.55182e-05 0.106632)
(9.74803e-05 6.01938e-05 0.107325)
(9.75141e-05 -6.02904e-05 0.107324)
(9.60825e-05 5.94819e-05 0.1075)
(9.60888e-05 -5.95632e-05 0.107499)
(-9.74054e-05 -6.01461e-05 0.107325)
(-9.59163e-05 5.93189e-05 0.1075)
(-9.59876e-05 -5.94179e-05 0.107499)
(0.000154785 -0.000154824 0.106405)
(1.5582e-05 -1.54734e-05 0.106631)
(-6.00352e-05 -9.72697e-05 0.107325)
(5.93416e-05 -9.59924e-05 0.1075)
(-5.93232e-05 -9.58657e-05 0.1075)
(-1.55023e-05 -1.54367e-05 0.106631)
(0.000152415 0.000152404 0.106508)
(1.26264e-05 1.26107e-05 0.106725)
(5.93439e-05 9.56168e-05 0.107556)
(-5.93202e-05 9.555e-05 0.107556)
(5.85458e-05 9.41111e-05 0.107717)
(-5.85757e-05 9.41852e-05 0.107718)
(-0.000152365 0.000152286 0.106509)
(-1.2606e-05 1.25454e-05 0.106726)
(9.55815e-05 5.91852e-05 0.107556)
(9.56214e-05 -5.93241e-05 0.107555)
(9.42305e-05 5.84732e-05 0.107718)
(9.42294e-05 -5.85543e-05 0.107717)
(-9.55488e-05 -5.91612e-05 0.107556)
(-9.41149e-05 5.83058e-05 0.107718)
(-9.41555e-05 -5.84074e-05 0.107718)
(0.00015233 -0.000152406 0.106508)
(1.26308e-05 -1.25306e-05 0.106725)
(-5.90755e-05 -9.5411e-05 0.107556)
(5.83164e-05 -9.41557e-05 0.107718)
(-5.83171e-05 -9.40292e-05 0.107718)
(-1.25672e-05 -1.25029e-05 0.106725)
(0.00014952 0.000149552 0.106585)
(5.82691e-05 9.3728e-05 0.10777)
(-5.83115e-05 9.37309e-05 0.107769)
(-0.000149543 0.000149404 0.106585)
(9.37102e-05 5.81152e-05 0.10777)
(9.37688e-05 -5.82889e-05 0.107769)
(-9.37344e-05 -5.81371e-05 0.107769)
(0.000149464 -0.000149555 0.106585)
(-5.8055e-05 -9.35783e-05 0.10777)
(-3.98355e-07 -4.11695e-07 0.0999987)
(1.82107e-05 1.8174e-05 0.100004)
(-1.94282e-07 1.33853e-05 0.1)
(1.34225e-05 -2.0414e-07 0.1)
(-5.16916e-05 7.13442e-06 0.100012)
(-2.01964e-05 1.84999e-05 0.100002)
(-0.000135847 6.02873e-05 0.100069)
(-1.24745e-05 -5.54721e-07 0.0999962)
(7.09884e-06 -5.14745e-05 0.100012)
(1.85082e-05 -2.01623e-05 0.100002)
(-5.48683e-07 -1.24622e-05 0.0999962)
(5.98853e-05 -0.000136303 0.100069)
(-2.45249e-05 -2.45452e-05 0.100007)
(-0.000134525 -8.08486e-05 0.100055)
(-8.08242e-05 -0.000134252 0.100055)
(-1.32619e-05 0.000146487 0.100669)
(0.000224998 0.000574387 0.0996129)
(1.06594e-05 0.000335484 0.10056)
(-3.89903e-05 0.000365992 0.0990408)
(-0.000412873 0.000958079 0.097943)
(-0.000208316 0.000401498 0.0956693)
(0.000146965 -1.33029e-05 0.100667)
(0.000571337 0.000226306 0.0996081)
(0.000336281 1.0797e-05 0.100559)
(0.000364791 -4.12178e-05 0.0990377)
(-0.000106007 0.000106161 0.100294)
(0.000106201 -0.000106081 0.100294)
(-0.000106145 -0.000106089 0.100294)
(9.48892e-05 9.47838e-05 0.100733)
(-9.48612e-05 9.47746e-05 0.100732)
(9.48203e-05 -9.48509e-05 0.100733)
(-9.47197e-05 -9.48073e-05 0.100732)
(-0.000252239 5.08347e-06 0.100716)
(-0.000386141 0.00020718 0.100568)
(-0.000168705 3.98756e-05 0.100331)
(-0.000145015 8.87848e-05 0.10056)
(-0.000334176 2.62263e-05 0.100495)
(-0.000150082 0.000167803 0.100658)
(-0.000140734 3.23649e-05 0.100497)
(0.00095671 -0.000410037 0.0979396)
(0.000400945 -0.000207774 0.0956682)
(5.87391e-06 -0.000253454 0.100717)
(4.00797e-05 -0.0001687 0.100331)
(0.000206468 -0.000386872 0.100568)
(8.85473e-05 -0.000145091 0.10056)
(2.64585e-05 -0.000334429 0.100494)
(3.243e-05 -0.000140956 0.100497)
(0.000168218 -0.000149939 0.100659)
(-0.000417385 -0.000170145 0.100452)
(-0.000170058 -0.000417242 0.100452)
(-0.000112596 -0.000112544 0.100645)
(-2.2041e-05 -9.08944e-05 0.10049)
(-9.05306e-05 -2.22631e-05 0.10049)
(8.42775e-07 0.000177374 0.100868)
(-4.53159e-05 0.000356489 0.0983242)
(-3.53851e-06 0.000191848 0.100779)
(-3.92801e-05 0.000318934 0.0979432)
(-0.000194861 0.000323065 0.0926296)
(-0.000170585 0.00027785 0.0910085)
(0.000177786 8.10178e-07 0.100867)
(0.000356532 -4.63703e-05 0.0983239)
(0.000192432 -3.36452e-06 0.10078)
(0.000318845 -3.95172e-05 0.0979427)
(-9.72308e-05 9.71354e-05 0.100853)
(9.72175e-05 -9.72423e-05 0.100854)
(-9.71581e-05 -9.72055e-05 0.100853)
(9.72403e-05 9.71999e-05 0.101238)
(-9.72427e-05 9.71199e-05 0.101238)
(9.71945e-05 -9.72793e-05 0.101238)
(-9.72898e-05 -9.72845e-05 0.101238)
(-0.000248725 1.99394e-05 0.101154)
(-0.000205174 0.00019797 0.100821)
(-0.000156635 3.04583e-05 0.100888)
(-0.000151868 9.26934e-05 0.101062)
(-0.000288777 1.81781e-05 0.100984)
(-0.000171399 0.000183733 0.100947)
(-0.000158698 3.05021e-05 0.101014)
(0.000323106 -0.000194106 0.0926254)
(0.000277989 -0.000169692 0.0910092)
(1.98991e-05 -0.000248375 0.101155)
(3.05173e-05 -0.000156769 0.100889)
(0.000198502 -0.000205034 0.100823)
(9.27981e-05 -0.000151956 0.101063)
(1.84529e-05 -0.000289019 0.100985)
(3.06072e-05 -0.000158715 0.101015)
(0.000183813 -0.000171388 0.100947)
(-5.89644e-05 -9.1788e-05 0.10044)
(-9.14721e-05 -5.87267e-05 0.10044)
(-0.000108723 -0.00010867 0.101146)
(-6.32883e-05 -7.29347e-05 0.10044)
(-7.27947e-05 -6.32215e-05 0.100439)
(3.8084e-06 0.000195606 0.100968)
(-2.02329e-05 0.000326193 0.0971217)
(2.28021e-06 0.000222987 0.100898)
(-1.14155e-05 0.000284595 0.0967116)
(-0.000146849 0.0002326 0.088381)
(-0.000119281 0.00018948 0.087081)
(0.000195592 3.65962e-06 0.100967)
(0.00032612 -2.00344e-05 0.0971211)
(0.000223281 2.22898e-06 0.100899)
(0.000284402 -1.08735e-05 0.0967108)
(-9.70913e-05 9.69712e-05 0.101368)
(9.70154e-05 -9.7123e-05 0.101368)
(-9.71401e-05 -9.7135e-05 0.101368)
(9.55599e-05 9.55915e-05 0.101757)
(-9.55805e-05 9.55294e-05 0.101757)
(9.54903e-05 -9.56223e-05 0.101757)
(-9.56137e-05 -9.56278e-05 0.101757)
(-0.000242386 1.8477e-05 0.101587)
(-0.000220839 0.000187684 0.101025)
(-0.000161246 3.05645e-05 0.101404)
(-0.000152158 9.0135e-05 0.101575)
(-0.000288213 1.88264e-05 0.101417)
(-0.000177303 0.000163734 0.101133)
(-0.000161534 3.05163e-05 0.101533)
(0.000232674 -0.000146095 0.0883775)
(0.000189635 -0.00011877 0.0870822)
(1.83774e-05 -0.000242236 0.101587)
(3.06469e-05 -0.000161164 0.101404)
(0.000188107 -0.000220838 0.101026)
(9.01976e-05 -0.000152096 0.101575)
(1.86623e-05 -0.000287851 0.101417)
(3.05705e-05 -0.000161472 0.101534)
(0.000163988 -0.000177223 0.101132)
(-9.77727e-05 -8.59167e-05 0.10018)
(-8.58361e-05 -9.79004e-05 0.100179)
(-0.000102016 -0.000102008 0.10165)
(-9.43362e-05 -6.31253e-05 0.100112)
(-6.30323e-05 -9.45275e-05 0.100111)
(3.03703e-06 0.000197905 0.100969)
(5.1983e-06 0.000289999 0.0958336)
(2.53169e-06 0.000234166 0.100921)
(9.82406e-06 0.000245311 0.0954185)
(-9.82283e-05 0.000157127 0.08497)
(-7.36186e-05 0.000120155 0.0839843)
(0.000197959 2.87737e-06 0.100969)
(0.000289897 5.49767e-06 0.0958324)
(0.000234186 2.43376e-06 0.100923)
(0.000245311 9.99043e-06 0.095418)
(-9.48087e-05 9.47845e-05 0.101886)
(9.47354e-05 -9.48562e-05 0.101886)
(-9.48422e-05 -9.48625e-05 0.101886)
(9.23347e-05 9.22857e-05 0.102266)
(-9.22659e-05 9.22845e-05 0.102266)
(9.22563e-05 -9.22921e-05 0.102266)
(-9.2312e-05 -9.23129e-05 0.102266)
(-0.000230559 1.6175e-05 0.101987)
(-0.000219849 0.000165898 0.101136)
(-0.000159827 2.9961e-05 0.101919)
(-0.000147992 8.59961e-05 0.102078)
(-0.000281637 1.63175e-05 0.101825)
(-0.000171191 0.000138731 0.101225)
(-0.000158787 2.97036e-05 0.102045)
(0.000157142 -9.78566e-05 0.0849652)
(0.000120288 -7.34035e-05 0.0839847)
(1.61558e-05 -0.000230824 0.101987)
(2.99647e-05 -0.000159898 0.101919)
(0.000165977 -0.000219946 0.101137)
(8.59911e-05 -0.000148017 0.102078)
(1.62866e-05 -0.000281887 0.101825)
(2.97048e-05 -0.000158861 0.102046)
(0.000138642 -0.000171226 0.101224)
(-0.000118623 -7.58365e-05 0.0997177)
(-7.56491e-05 -0.000118857 0.0997173)
(-9.31827e-05 -9.32129e-05 0.102136)
(-0.000109478 -5.17494e-05 0.0996049)
(-5.15823e-05 -0.000109738 0.0996038)
(9.19289e-07 0.000191112 0.100874)
(1.864e-05 0.000251624 0.0945324)
(8.58579e-07 0.000233363 0.100847)
(1.85306e-05 0.00020576 0.0941374)
(-6.06128e-05 0.000103353 0.0823363)
(-4.06507e-05 7.28055e-05 0.0816119)
(0.000191501 7.25821e-07 0.100873)
(0.000251841 1.83371e-05 0.0945315)
(0.000233816 7.38423e-07 0.100848)
(0.000206062 1.83056e-05 0.0941381)
(-9.13931e-05 9.14082e-05 0.102391)
(9.1396e-05 -9.14029e-05 0.102391)
(-9.14405e-05 -9.14233e-05 0.102391)
(8.88655e-05 8.87691e-05 0.102757)
(-8.87937e-05 8.88018e-05 0.102757)
(8.88137e-05 -8.877e-05 0.102757)
(-8.88405e-05 -8.87914e-05 0.102757)
(-0.000216032 1.41761e-05 0.102346)
(-0.000211305 0.000143449 0.101154)
(-0.000154947 2.88895e-05 0.102418)
(-0.000142152 8.13286e-05 0.10256)
(-0.000270523 1.40539e-05 0.102193)
(-0.000160626 0.000114957 0.101226)
(-0.000153514 2.8628e-05 0.10254)
(0.00010336 -6.03121e-05 0.0823315)
(7.28364e-05 -4.02834e-05 0.0816133)
(1.4197e-05 -0.000216053 0.102346)
(2.89151e-05 -0.000154978 0.102419)
(0.000143626 -0.00021136 0.101155)
(8.13872e-05 -0.000142137 0.10256)
(1.40485e-05 -0.0002707 0.102193)
(2.86605e-05 -0.000153502 0.10254)
(0.000115098 -0.000160541 0.101225)
(-0.000126962 -6.68968e-05 0.0991145)
(-6.68714e-05 -0.000127155 0.0991138)
(-8.39865e-05 -8.39169e-05 0.102597)
(-0.000113969 -4.2855e-05 0.0989731)
(-4.29191e-05 -0.000114143 0.0989715)
(-6.73619e-07 0.000179617 0.100692)
(2.07994e-05 0.000215354 0.0932807)
(-1.0463e-06 0.000225963 0.100682)
(1.74676e-05 0.000169481 0.0929219)
(-3.54664e-05 6.87322e-05 0.08033)
(-1.92303e-05 4.26904e-05 0.0798068)
(0.000179885 -7.46929e-07 0.10069)
(0.000215616 2.04868e-05 0.0932796)
(0.000226453 -1.11536e-06 0.100684)
(0.00016972 1.74057e-05 0.0929225)
(-8.7948e-05 8.79626e-05 0.102877)
(8.79732e-05 -8.79218e-05 0.102877)
(-8.79961e-05 -8.79443e-05 0.102877)
(8.55896e-05 8.55395e-05 0.103229)
(-8.55365e-05 8.55703e-05 0.103229)
(8.55681e-05 -8.55175e-05 0.103229)
(-8.55959e-05 -8.55425e-05 0.103229)
(-0.000200332 1.27516e-05 0.102662)
(-0.000199923 0.000124156 0.101088)
(-0.000149029 2.79155e-05 0.102898)
(-0.000136334 7.74806e-05 0.103019)
(-0.000257287 1.22601e-05 0.102517)
(-0.000148485 9.51e-05 0.101147)
(-0.000147514 2.77004e-05 0.103014)
(6.8856e-05 -3.52555e-05 0.0803265)
(4.27303e-05 -1.8951e-05 0.0798091)
(1.27737e-05 -0.000200275 0.102662)
(2.79561e-05 -0.000148971 0.102898)
(0.000124506 -0.000199886 0.101089)
(7.75444e-05 -0.000136286 0.103019)
(1.22825e-05 -0.000257283 0.102518)
(2.77366e-05 -0.000147442 0.103014)
(9.53007e-05 -0.000148374 0.101145)
(-0.000127008 -6.10032e-05 0.0984175)
(-6.10689e-05 -0.00012712 0.0984161)
(-7.57537e-05 -7.56514e-05 0.103028)
(-0.00011144 -3.71295e-05 0.0982596)
(-3.71526e-05 -0.000111564 0.0982571)
(-9.46883e-07 0.000165849 0.100437)
(1.5952e-05 0.000183768 0.0921159)
(-1.70301e-06 0.000215181 0.100442)
(1.10747e-05 0.000138335 0.0918002)
(-2.01448e-05 4.81397e-05 0.078799)
(-6.23748e-06 2.45514e-05 0.0784244)
(0.000165957 -1.02463e-06 0.100436)
(0.000183853 1.59134e-05 0.0921137)
(0.000215494 -1.6859e-06 0.100443)
(0.000138377 1.12758e-05 0.0917997)
(-8.47875e-05 8.48237e-05 0.103344)
(8.48163e-05 -8.4772e-05 0.103344)
(-8.48496e-05 -8.47963e-05 0.103344)
(8.27414e-05 8.27425e-05 0.103682)
(-8.27161e-05 8.27529e-05 0.103682)
(8.27288e-05 -8.27042e-05 0.103682)
(-8.27793e-05 -8.27246e-05 0.103682)
(-0.000184926 1.18476e-05 0.102938)
(-0.000187751 0.000108572 0.100949)
(-0.00014309 2.71246e-05 0.103356)
(-0.000131065 7.4399e-05 0.103455)
(-0.000243505 1.1056e-05 0.1028)
(-0.000136275 7.89079e-05 0.100997)
(-0.000141678 2.69545e-05 0.103467)
(4.80603e-05 -1.99741e-05 0.078796)
(2.45881e-05 -6.19292e-06 0.0784272)
(1.18981e-05 -0.000184811 0.102938)
(2.71543e-05 -0.000143018 0.103356)
(0.000108869 -0.000187743 0.100949)
(7.44521e-05 -0.000131014 0.103455)
(1.10906e-05 -0.000243477 0.1028)
(2.69829e-05 -0.000141593 0.103467)
(7.90263e-05 -0.000136178 0.100995)
(-0.00012216 -5.71919e-05 0.0976626)
(-5.71713e-05 -0.000122233 0.0976608)
(-6.84836e-05 -6.83815e-05 0.103433)
(-0.000105001 -3.30393e-05 0.0974974)
(-3.3011e-05 -0.000105068 0.0974947)
(-2.79696e-07 0.00015134 0.100124)
(8.28406e-06 0.00015744 0.0910529)
(-1.20116e-06 0.00020279 0.10014)
(3.161e-06 0.000112446 0.09078)
(-1.13307e-05 3.6288e-05 0.0776176)