/*--------------------------------*- C++ -*----------------------------------*\
| =========                 |                                                 |
| \\      /  F ield         | OpenFOAM: The Open Source CFD Toolbox           |
|  \\    /   O peration     | Version:  v1906                                 |
|   \\  /    A nd           | Web:      www.OpenFOAM.com                      |
|    \\/     M anipulation  |                                                 |
\*---------------------------------------------------------------------------*/
FoamFile
{
    version     2.0;
    format      ascii;
    class       surfaceScalarField;
    location    "150";
    object      phi;
}
// * * * * * * * * * * * * * * * * * * * * * * * * * * * * * * * * * * * * * //

dimensions      [0 3 -1 0 0 0 0];
oriented        oriented;


internalField   nonuniform List<scalar> 
124908
(
5.53033e-09
4.26587e-09
-0.00117695
-2.58898e-09
-4.67603e-09
0.00117695
-0.00114743
-1.27765e-06
-6.89029e-09
2.64402e-09
0.00114743
-2.90353e-07
1.28499e-06
2.89503e-07
9.40268e-07
-2.81401e-07
-9.38484e-07
2.76693e-07
-0.00114725
-1.27334e-06
9.49683e-10
8.76488e-09
0.00114725
-2.91708e-07
1.2787e-06
2.88787e-07
9.39528e-07
-2.85971e-07
-9.4045e-07
2.78857e-07
-0.000274779
1.30853e-06
1.27211e-06
-2.5751e-07
-2.6529e-07
0.000272722
4.73364e-09
3.27018e-09
-0.00117695
-1.50777e-09
-3.96483e-09
0.00117694
-0.00114743
-1.27766e-06
-6.62823e-09
3.80572e-09
0.00114743
-2.91011e-07
1.28501e-06
2.88736e-07
9.40379e-07
-2.81348e-07
-9.38231e-07
2.76653e-07
-0.00114724
-1.27382e-06
-1.51148e-10
9.88898e-09
0.00114723
-2.92493e-07
1.27836e-06
2.88018e-07
9.39715e-07
-2.85891e-07
-9.40057e-07
2.78771e-07
-0.000274773
1.3085e-06
1.27244e-06
-2.57887e-07
-2.65315e-07
0.000272715
4.8582e-09
3.79781e-09
-0.00117694
-1.65391e-09
-3.40413e-09
0.00117694
-0.00114743
-1.27776e-06
-6.72708e-09
4.91219e-09
0.00114743
-2.91183e-07
1.28525e-06
2.88779e-07
9.40146e-07
-2.81355e-07
-9.38316e-07
2.76715e-07
-0.00114723
-1.27337e-06
-1.1067e-09
9.42249e-09
0.00114723
-2.9203e-07
1.27881e-06
2.88456e-07
9.39361e-07
-2.85815e-07
-9.40374e-07
2.78821e-07
-0.000274767
1.30833e-06
1.27288e-06
-2.58462e-07
-2.6514e-07
0.000272709
3.37315e-09
5.14582e-09
-0.00117693
-2.56459e-09
-2.48154e-09
0.00117693
-0.00114743
-1.27823e-06
-6.17607e-09
5.18957e-09
0.00114743
-2.91148e-07
1.28518e-06
2.88905e-07
9.40051e-07
-2.81515e-07
-9.38603e-07
2.76635e-07
-0.00114722
-1.27346e-06
-1.98031e-09
8.33189e-09
0.00114722
-2.91657e-07
1.27903e-06
2.88942e-07
9.39322e-07
-2.85846e-07
-9.40394e-07
2.78844e-07
-0.000274763
1.3082e-06
1.27327e-06
-2.58889e-07
-2.65093e-07
0.000272705
2.24719e-09
7.08013e-09
-0.00117693
-4.01433e-09
-1.9709e-09
0.00117692
-0.00114743
-1.27822e-06
-3.87217e-09
4.46902e-09
0.00114743
-2.9108e-07
1.28545e-06
2.89235e-07
9.39335e-07
-2.82427e-07
-9.39384e-07
2.76045e-07
-0.00114722
-1.273e-06
-3.63232e-09
5.96048e-09
0.00114722
-2.91505e-07
1.2803e-06
2.89232e-07
9.39597e-07
-2.85854e-07
-9.40224e-07
2.78779e-07
-0.000274758
1.30823e-06
1.27462e-06
-2.60046e-07
-2.64978e-07
0.0002727
2.85595e-09
8.05264e-09
-0.00117692
-5.90608e-09
-2.40186e-09
0.00117692
-0.00114743
-1.27804e-06
-1.56938e-10
3.10292e-09
0.00114743
-2.90721e-07
1.28575e-06
2.89735e-07
9.38597e-07
-2.83082e-07
-9.40262e-07
2.75491e-07
-0.00114722
-1.2723e-06
-5.50707e-09
3.25539e-09
0.00114722
-2.9094e-07
1.28138e-06
2.89962e-07
9.39509e-07
-2.85851e-07
-9.40183e-07
2.78745e-07
-0.000274752
1.30798e-06
1.27556e-06
-2.61105e-07
-2.64823e-07
0.000272694
3.8749e-09
8.2065e-09
-0.00117692
-6.43267e-09
-3.19632e-09
0.00117692
-0.00114742
-1.27824e-06
1.46186e-09
2.60158e-09
0.00114742
-2.90633e-07
1.28584e-06
2.89978e-07
9.38439e-07
-2.83688e-07
-9.40647e-07
2.75149e-07
-0.00114723
-1.27289e-06
-4.59482e-09
3.92883e-09
0.00114723
-2.90753e-07
1.28095e-06
2.90085e-07
9.39489e-07
-2.85629e-07
-9.40242e-07
2.78913e-07
-0.000274748
1.30834e-06
1.27622e-06
-2.61795e-07
-2.65384e-07
0.00027269
4.3892e-09
7.34002e-09
-0.00117692
-5.4975e-09
-3.45052e-09
0.00117691
-0.00114743
-1.27848e-06
-2.41756e-10
3.77541e-09
0.00114743
-2.91522e-07
1.28659e-06
2.89148e-07
9.3861e-07
-2.84027e-07
-9.40677e-07
2.75039e-07
-0.00114723
-1.27347e-06
-2.45774e-09
6.85845e-09
0.00114723
-2.91323e-07
1.28055e-06
2.89615e-07
9.39174e-07
-2.86059e-07
-9.40578e-07
2.78602e-07
-0.000274747
1.30891e-06
1.27571e-06
-2.61311e-07
-2.66229e-07
0.00027269
3.46384e-09
6.51649e-09
-0.00117692
-4.14765e-09
-2.38084e-09
0.00117691
-0.00114744
-1.27928e-06
-3.78662e-09
5.58846e-09
0.00114744
-2.92084e-07
1.28593e-06
2.89e-07
9.38951e-07
-2.83803e-07
-9.40578e-07
2.75377e-07
-0.00114722
-1.27357e-06
-2.98982e-09
9.50332e-09
0.00114722
-2.92047e-07
1.28058e-06
2.88929e-07
9.3918e-07
-2.86208e-07
-9.40643e-07
2.78381e-07
-0.000274749
1.30878e-06
1.27498e-06
-2.61007e-07
-2.66291e-07
0.000272692
2.61951e-09
6.72581e-09
-0.00117691
-3.87528e-09
-1.32662e-09
0.00117691
-0.00114745
-1.28037e-06
-4.64475e-09
8.53095e-09
0.00114746
-2.92668e-07
1.28516e-06
2.88511e-07
9.39195e-07
-2.83829e-07
-9.40424e-07
2.75445e-07
-0.00114721
-1.274e-06
-5.68095e-09
1.09798e-08
0.00114721
-2.9224e-07
1.28007e-06
2.88694e-07
9.39869e-07
-2.85608e-07
-9.39813e-07
2.78933e-07
-0.000274755
1.30836e-06
1.27521e-06
-2.61428e-07
-2.65799e-07
0.000272699
2.88768e-09
5.75635e-09
-0.00117691
-3.18717e-09
-8.28151e-10
0.0011769
-0.00114747
-1.28081e-06
-3.68953e-09
1.22353e-08
0.00114747
-2.93312e-07
1.28469e-06
2.88163e-07
9.38735e-07
-2.84155e-07
-9.40866e-07
2.74936e-07
-0.00114721
-1.27407e-06
-8.64374e-09
1.04485e-08
0.00114721
-2.92261e-07
1.27984e-06
2.88543e-07
9.40431e-07
-2.84925e-07
-9.3902e-07
2.7937e-07
-0.000274761
1.30769e-06
1.27508e-06
-2.61356e-07
-2.64895e-07
0.000272705
3.02509e-09
3.93426e-09
-0.00117691
-1.73921e-09
-3.18654e-10
0.0011769
-0.00114748
-1.28081e-06
-4.78899e-09
1.20656e-08
0.00114749
-2.93762e-07
1.28491e-06
2.87569e-07
9.38293e-07
-2.84258e-07
-9.41014e-07
2.7444e-07
-0.0011472
-1.27407e-06
-7.6849e-09
1.01127e-08
0.0011472
-2.92118e-07
1.27909e-06
2.88406e-07
9.40335e-07
-2.84384e-07
-9.38617e-07
2.79514e-07
-0.000274765
1.30831e-06
1.27487e-06
-2.61068e-07
-2.65155e-07
0.000272708
3.17326e-09
3.3071e-09
-0.00117691
-3.90341e-10
-1.11613e-09
0.0011769
-0.00114751
-1.28076e-06
-9.25984e-09
1.11289e-08
0.00114752
-2.93579e-07
1.28459e-06
2.87611e-07
9.3845e-07
-2.83046e-07
-9.39869e-07
2.7476e-07
-0.00114719
-1.27402e-06
-4.00376e-09
1.0816e-08
0.00114719
-2.9215e-07
1.27825e-06
2.87988e-07
9.39419e-07
-2.8399e-07
-9.38496e-07
2.7903e-07
-0.000274769
1.30887e-06
1.27363e-06
-2.59713e-07
-2.65771e-07
0.000272712
4.45043e-09
2.17425e-09
-0.00117691
6.81466e-10
-2.33302e-09
0.0011769
-0.00114754
-1.28037e-06
-1.21471e-08
9.35139e-09
0.00114755
-2.92792e-07
1.28403e-06
2.87421e-07
9.3835e-07
-2.8105e-07
-9.38163e-07
2.74864e-07
-0.00114717
-1.27371e-06
-1.04575e-09
1.16469e-08
0.00114717
-2.92217e-07
1.27737e-06
2.86999e-07
9.38001e-07
-2.83663e-07
-9.38027e-07
2.77576e-07
-0.000274774
1.30884e-06
1.27215e-06
-2.58355e-07
-2.65497e-07
0.000272717
7.70618e-09
1.28256e-09
-0.00117691
8.86162e-10
-4.35929e-09
0.00117691
-0.00114757
-1.27862e-06
-1.30907e-08
7.58376e-09
0.00114758
-2.90997e-07
1.28345e-06
2.87347e-07
9.36522e-07
-2.79197e-07
-9.36326e-07
2.73036e-07
-0.00114716
-1.27292e-06
-5.38984e-10
1.26549e-08
0.00114716
-2.91619e-07
1.27626e-06
2.85715e-07
9.35472e-07
-2.82852e-07
-9.37119e-07
2.74827e-07
-0.00027478
1.30767e-06
1.27113e-06
-2.57127e-07
-2.63979e-07
0.000272722
1.22888e-08
4.05545e-09
-0.00117692
-1.30271e-09
-7.81661e-09
0.00117691
-0.00114758
-1.2762e-06
-1.11654e-08
8.21371e-09
0.00114759
-2.88774e-07
1.28147e-06
2.85346e-07
9.32672e-07
-2.75912e-07
-9.3378e-07
2.68969e-07
-0.00114715
-1.2713e-06
-4.90907e-09
1.51643e-08
0.00114716
-2.90129e-07
1.27382e-06
2.83274e-07
9.31862e-07
-2.79498e-07
-9.34305e-07
2.71002e-07
-0.000274786
1.3055e-06
1.26952e-06
-2.54835e-07
-2.61184e-07
0.000272727
1.67289e-08
1.07767e-08
-0.00117693
-6.08675e-09
-1.19149e-08
0.00117692
-0.00114759
-1.27103e-06
-1.03522e-08
1.03153e-08
0.0011476
-2.8351e-07
1.27698e-06
2.81195e-07
9.26018e-07
-2.69156e-07
-9.28561e-07
2.60732e-07
-0.00114715
-1.26706e-06
-7.84732e-09
1.61746e-08
0.00114716
-2.85475e-07
1.26963e-06
2.78744e-07
9.25349e-07
-2.72379e-07
-9.28933e-07
2.62911e-07
-0.000274791
1.30113e-06
1.26607e-06
-2.49963e-07
-2.55353e-07
0.000272729
2.03821e-08
1.75042e-08
-0.00117694
-1.31637e-08
-1.63347e-08
0.00117693
-0.00114759
-1.26264e-06
-1.43328e-08
1.71747e-08
0.0011476
-2.73833e-07
1.26633e-06
2.68901e-07
9.14974e-07
-2.52974e-07
-9.17409e-07
2.44838e-07
-0.00114716
-1.25761e-06
-1.40641e-08
1.94418e-08
0.00114718
-2.74965e-07
1.26057e-06
2.6752e-07
9.13827e-07
-2.57048e-07
-9.18286e-07
2.46153e-07
-0.000274796
1.29279e-06
1.25806e-06
-2.39252e-07
-2.44706e-07
0.000272729
4.17693e-08
4.03905e-08
-0.00117695
-2.71709e-08
-3.41612e-08
0.00117693
-0.00114758
-1.24586e-06
-3.2121e-08
1.90268e-08
0.00114761
-2.49384e-07
1.24839e-06
2.45499e-07
8.97491e-07
-2.22163e-07
-8.98354e-07
2.1347e-07
-0.00114719
-1.23794e-06
-3.96423e-08
2.53318e-08
0.00114722
-2.49612e-07
1.23992e-06
2.42367e-07
8.94132e-07
-2.23673e-07
-8.95897e-07
2.1481e-07
-0.000274808
1.2783e-06
1.24072e-06
-2.14251e-07
-2.19935e-07
0.000272723
9.78013e-07
9.85356e-07
-0.00117686
-8.35999e-07
-8.23861e-07
0.00117656
-0.0011479
-1.1337e-06
-9.79068e-07
-3.8194e-07
0.00114837
-1.24859e-07
1.39681e-06
2.91991e-07
1.01411e-06
-7.74643e-08
-7.60223e-07
2.85023e-07
-0.00114754
-1.12488e-06
-9.91939e-07
-3.93237e-07
0.00114803
-1.23222e-07
1.39161e-06
2.9607e-07
1.00961e-06
-8.46892e-08
-7.5902e-07
2.86748e-07
-0.000274895
1.16845e-06
1.12617e-06
-1.01518e-07
-1.03519e-07
0.000272806
5.44313e-06
5.43684e-06
-0.00116293
-1.15211e-05
-1.14123e-05
0.000282492
0.00028586
0.000285025
0.000285025
4.41598e-06
6.75986e-06
7.10821e-06
4.42083e-06
6.76156e-06
7.11267e-06
-0.000284278
5.41271e-06
-5.43382e-06
6.07087e-06
-3.44397e-06
0.000281672
-0.000284255
-5.43624e-06
5.41962e-06
-3.45413e-06
6.06768e-06
0.000281658
-0.000275793
-5.40952e-06
-5.4206e-06
5.82729e-06
5.81591e-06
0.000274979
-1.31868e-06
-1.28203e-06
0.000274817
-0.000272749
2.63091e-07
2.70137e-07
0.0011468
-4.29142e-09
-0.00114681
1.10233e-08
-1.3139e-06
2.93846e-07
-2.98003e-07
-9.39514e-07
2.76561e-07
-2.82698e-07
9.40634e-07
1.32468e-06
0.00114721
-7.06485e-09
-0.00114721
6.66803e-09
-1.3184e-06
2.97486e-07
-3.00006e-07
-9.45517e-07
2.78878e-07
-2.86479e-07
9.46208e-07
-1.28446e-06
0.000274806
-0.00027273
2.6512e-07
2.68114e-07
0.0011479
-4.08627e-09
-0.0011479
8.2181e-09
-1.27621e-06
2.9195e-07
-2.94664e-07
-9.42859e-07
2.78493e-07
-2.86407e-07
9.42816e-07
1.3176e-06
0.00114684
-3.41715e-09
-0.00114685
1.614e-08
-1.31491e-06
2.95644e-07
-3.0193e-07
-9.42691e-07
2.78721e-07
-2.86012e-07
9.4301e-07
-5.68035e-09
-0.00114743
4.46906e-09
-1.27826e-06
2.88986e-07
-2.91155e-07
-9.38517e-07
2.76259e-07
9.39936e-07
-2.81934e-07
1.31249e-06
0.00114665
-7.12906e-09
-0.00114666
1.14754e-08
-1.30893e-06
2.90701e-07
-2.9525e-07
-9.38677e-07
2.77691e-07
-2.81688e-07
9.4167e-07
-1.27843e-06
0.00027478
-0.000272716
2.6219e-07
2.69623e-07
1.71593e-09
-0.00114725
9.89056e-09
-1.27385e-06
2.88527e-07
-2.92411e-07
-9.40198e-07
2.78485e-07
9.39477e-07
-2.86433e-07
1.27999e-06
0.00114775
-6.13943e-10
-0.00114775
5.62589e-09
-1.27257e-06
2.89857e-07
-2.90847e-07
-9.40088e-07
2.78458e-07
-2.86526e-07
9.40229e-07
-0.000272724
2.66791e-07
2.69808e-07
1.31354e-06
1.27571e-06
-2.56063e-07
-2.65102e-07
0.000272749
-1.31861e-06
-1.28205e-06
0.000274814
-0.000272747
2.63076e-07
2.70034e-07
1.02045e-08
0.0011468
-2.97417e-07
1.31892e-06
2.94138e-07
9.40364e-07
-2.82102e-07
-9.3933e-07
2.76775e-07
-1.31772e-06
-7.84417e-09
4.84666e-09
0.00114721
-2.99055e-07
1.32527e-06
2.98109e-07
9.4562e-07
-2.85977e-07
-9.45729e-07
2.78986e-07
0.00114679
-4.20664e-09
-0.0011468
1.24091e-08
-1.31391e-06
2.93331e-07
-2.98491e-07
-9.39409e-07
2.76589e-07
-2.82486e-07
9.40487e-07
1.32496e-06
0.00114722
-6.90412e-09
-0.00114722
5.95283e-09
-1.31796e-06
2.97473e-07
-2.99833e-07
-9.45397e-07
2.78913e-07
-2.8633e-07
9.46268e-07
-2.5908e-07
-2.60831e-07
0.000272731
-1.2848e-06
0.000274808
-0.000272732
2.65617e-07
2.68264e-07
6.85273e-09
0.0011479
-2.93992e-07
1.28237e-06
2.92343e-07
9.42217e-07
-2.85962e-07
-9.4296e-07
2.78592e-07
-1.31439e-06
-3.8444e-09
1.46278e-08
0.00114684
-3.01225e-07
1.31807e-06
2.95964e-07
9.42487e-07
-2.8552e-07
-9.42623e-07
2.78772e-07
0.0011479
-2.31376e-09
-0.0011479
8.64787e-09
-1.276e-06
2.91604e-07
-2.94914e-07
-9.42943e-07
2.78079e-07
-2.86498e-07
9.42568e-07
1.31781e-06
0.00114683
-1.53742e-09
-0.00114684
1.59006e-08
-1.31455e-06
2.95418e-07
-3.01938e-07
-9.42812e-07
2.78156e-07
-2.86299e-07
9.42532e-07
-7.7225e-09
1.04271e-08
0.00114665
-2.94705e-07
1.31298e-06
2.91153e-07
9.41245e-07
-2.811e-07
2.77871e-07
-9.38578e-07
-5.81368e-09
-0.00114743
4.29176e-09
-1.27797e-06
2.88604e-07
-2.91334e-07
-9.37983e-07
2.76504e-07
9.40347e-07
-2.81601e-07
1.31265e-06
0.00114664
-6.76443e-09
-0.00114664
1.21146e-08
-1.30866e-06
2.90354e-07
-2.9536e-07
-9.38217e-07
2.77572e-07
-2.814e-07
9.41701e-07
-2.57145e-07
-2.65023e-07
0.000272715
-1.27809e-06
0.000274776
-0.000272711
2.61868e-07
2.69637e-07
-1.10785e-09
4.55656e-09
0.00114774
-2.90264e-07
1.28047e-06
2.90444e-07
9.39748e-07
-2.86093e-07
2.78694e-07
-9.402e-07
8.08818e-10
-0.00114724
1.05643e-08
-1.27403e-06
2.87699e-07
-2.92907e-07
-9.39939e-07
2.7858e-07
9.39787e-07
-2.86208e-07
1.27981e-06
0.00114773
-5.21911e-10
-0.00114773
6.40801e-09
-1.27259e-06
2.89393e-07
-2.91115e-07
-9.39919e-07
2.78378e-07
-2.86378e-07
9.40126e-07
-0.000272717
2.66624e-07
2.70028e-07
1.31367e-06
1.27572e-06
-2.56109e-07
-2.65276e-07
0.000272746
-1.31871e-06
-1.28195e-06
0.000274812
-0.000272744
2.62862e-07
2.70467e-07
1.13543e-08
0.00114679
-2.97804e-07
1.31884e-06
2.937e-07
9.39938e-07
-2.82062e-07
-9.39437e-07
2.76608e-07
-1.31784e-06
-7.1255e-09
4.91419e-09
0.00114723
-2.99366e-07
1.3251e-06
2.97673e-07
9.45717e-07
-2.86071e-07
-9.45628e-07
2.78898e-07
0.00114678
-3.89455e-09
-0.00114678
1.26599e-08
-1.31396e-06
2.93625e-07
-2.98151e-07
-9.39137e-07
2.76472e-07
-2.82487e-07
9.40627e-07
1.325e-06
0.00114723
-7.00458e-09
-0.00114723
6.36149e-09
-1.31831e-06
2.97036e-07
-3.00273e-07
-9.45225e-07
2.7935e-07
-2.85988e-07
9.4662e-07
-2.58937e-07
-2.60997e-07
0.000272732
-1.28482e-06
0.000274808
-0.000272733
2.6561e-07
2.68426e-07
7.6978e-09
0.0011479
-2.9426e-07
1.28238e-06
2.92035e-07
9.42094e-07
-2.86276e-07
-9.43014e-07
2.78087e-07
-1.31438e-06
-1.81784e-09
1.43616e-08
0.00114683
-3.01203e-07
1.31794e-06
2.95959e-07
9.41913e-07
-2.85988e-07
-9.43085e-07
2.78212e-07
0.00114789
-2.80259e-09
-0.0011479
9.45475e-09
-1.27616e-06
2.918e-07
-2.94707e-07
-9.4286e-07
2.78498e-07
-2.86283e-07
9.42682e-07
1.31799e-06
0.00114683
-1.90663e-09
-0.00114683
1.42666e-08
-1.3145e-06
2.95768e-07
-3.01487e-07
-9.42763e-07
2.78272e-07
-2.86149e-07
9.42596e-07
-6.94432e-09
1.10128e-08
0.00114663
-2.95013e-07
1.31308e-06
2.90834e-07
9.41146e-07
-2.8122e-07
2.77544e-07
-9.38353e-07
-5.83179e-09
-0.00114743
6.06064e-09
-1.27807e-06
2.88426e-07
-2.91711e-07
-9.37929e-07
2.76645e-07
9.4035e-07
-2.81487e-07
1.31329e-06
0.00114662
-6.49492e-09
-0.00114662
1.16454e-08
-1.30845e-06
2.90461e-07
-2.95329e-07
-9.38081e-07
2.77572e-07
-2.81356e-07
9.4162e-07
-2.57413e-07
-2.65348e-07
0.00027271
-1.27848e-06
0.000274771
-0.000272707
2.62293e-07
2.69696e-07
-9.82808e-10
5.44253e-09
0.00114773
-2.90787e-07
1.28023e-06
2.89859e-07
9.39528e-07
-2.86096e-07
2.78563e-07
-9.40235e-07
-3.07223e-10
-0.00114723
1.09455e-08
-1.27375e-06
2.87938e-07
-2.92771e-07
-9.39964e-07
2.78521e-07
9.39506e-07
-2.86153e-07
1.28002e-06
0.00114772
-1.70593e-09
-0.00114772
6.66568e-09
-1.27271e-06
2.89442e-07
-2.91172e-07
-9.39967e-07
2.78729e-07
-2.86123e-07
9.40179e-07
-0.000272711
2.66649e-07
2.70816e-07
1.31349e-06
1.27597e-06
-2.56466e-07
-2.64868e-07
0.000272743
-1.31923e-06
-1.28197e-06
0.000274807
-0.00027274
2.63152e-07
2.70917e-07
1.12288e-08
0.00114678
-2.97393e-07
1.3191e-06
2.94105e-07
9.40053e-07
-2.82078e-07
-9.39215e-07
2.76542e-07
-1.31795e-06
-7.0799e-09
5.25055e-09
0.00114724
-2.9981e-07
1.32532e-06
2.97299e-07
9.461e-07
-2.85561e-07
-9.45324e-07
2.79468e-07
0.00114676
-2.96181e-09
-0.00114677
1.0926e-08
-1.31363e-06
2.94243e-07
-2.9759e-07
-9.39374e-07
2.7631e-07
-2.82597e-07
9.40244e-07
1.3251e-06
0.00114724
-5.4132e-09
-0.00114724
7.43616e-09
-1.31854e-06
2.96743e-07
-3.00679e-07
-9.45291e-07
2.7942e-07
-2.85876e-07
9.46574e-07
-2.59072e-07
-2.61052e-07
0.000272733
-1.28488e-06
0.000274809
-0.000272733
2.65557e-07
2.68578e-07
8.45775e-09
0.00114789
-2.94186e-07
1.28229e-06
2.92054e-07
9.42162e-07
-2.85727e-07
-9.42861e-07
2.787e-07
-1.31413e-06
-2.84105e-09
1.27214e-08
0.00114682
-3.00942e-07
1.31847e-06
2.96239e-07
9.42075e-07
-2.85792e-07
-9.42932e-07
2.78387e-07
0.00114789
-3.5546e-09
-0.00114789
1.0674e-08
-1.27646e-06
2.91369e-07
-2.9503e-07
-9.42362e-07
2.78906e-07
-2.85675e-07
9.43157e-07
1.31851e-06
0.00114682
-3.01876e-09
-0.00114682
1.36253e-08
-1.31416e-06
2.96055e-07
-3.01312e-07
-9.42516e-07
2.78569e-07
-2.85867e-07
9.42894e-07
-6.64545e-09
1.02611e-08
0.00114662
-2.94927e-07
1.31379e-06
2.90986e-07
9.41005e-07
-2.81034e-07
2.77722e-07
-9.38375e-07
-5.59711e-09
-0.00114743
6.41574e-09
-1.27833e-06
2.88541e-07
-2.91723e-07
-9.38206e-07
2.7649e-07
9.40054e-07
-2.81687e-07
1.3139e-06
0.0011466
-5.31446e-09
-0.00114661
1.12358e-08
-1.3084e-06
2.90397e-07
-2.95528e-07
-9.3834e-07
2.77211e-07
-2.8167e-07
9.41188e-07
-2.57165e-07
-2.65146e-07
0.000272706
-1.27863e-06
0.000274768
-0.000272704
2.6246e-07
2.70236e-07
-2.10012e-09
5.77711e-09
0.00114771
-2.91002e-07
1.28037e-06
2.89699e-07
9.39742e-07
-2.85869e-07
2.78744e-07
-9.40085e-07
-7.8697e-10
-0.00114722
9.80911e-09
-1.27375e-06
2.88324e-07
-2.92365e-07
-9.40115e-07
2.78476e-07
9.39362e-07
-2.86148e-07
1.28007e-06
0.00114771
-2.04106e-09
-0.00114771
8.60592e-09
-1.27327e-06
2.88666e-07
-2.92008e-07
-9.40189e-07
2.78671e-07
-2.86211e-07
9.40098e-07
-0.000272707
2.66682e-07
2.71159e-07
1.31335e-06
1.27622e-06
-2.56611e-07
-2.64833e-07
0.000272739
-1.32033e-06
-1.28239e-06
0.000274804
-0.000272736
2.63131e-07
2.71884e-07
9.25492e-09
0.00114676
-2.96931e-07
1.31963e-06
2.94718e-07
9.39714e-07
-2.8237e-07
-9.39592e-07
2.76255e-07
-1.31836e-06
-5.78712e-09
6.21592e-09
0.00114724
-3.0015e-07
1.32547e-06
2.97091e-07
9.4607e-07
-2.85562e-07
-9.45422e-07
2.79361e-07
0.00114675
-1.22506e-09
-0.00114675
8.58556e-09
-1.31358e-06
2.94204e-07
-2.97488e-07
-9.39887e-07
2.75762e-07
-2.83172e-07
9.39736e-07
1.32517e-06
0.00114724
-4.62245e-09
-0.00114724
9.59815e-09
-1.31883e-06
2.96249e-07
-3.01153e-07
-9.45641e-07
2.78954e-07
-2.8629e-07
9.46309e-07
-2.59676e-07
-2.613e-07
0.000272734
-1.28528e-06
0.000274812
-0.000272735
2.65694e-07
2.6845e-07
9.90586e-09
0.00114788
-2.94584e-07
1.28228e-06
2.91756e-07
9.42829e-07
-2.85225e-07
-9.42252e-07
2.79132e-07
-1.31395e-06
-3.82951e-09
1.23015e-08
0.00114682
-3.00656e-07
1.31885e-06
2.96501e-07
9.42415e-07
-2.85509e-07
-9.42603e-07
2.78646e-07
0.00114788
-5.42597e-09
-0.00114788
1.13641e-08
-1.27706e-06
2.90699e-07
-2.95656e-07
-9.41836e-07
2.79317e-07
-2.85242e-07
9.43507e-07
1.31893e-06
0.00114681
-3.83064e-09
-0.00114681
1.26137e-08
-1.31429e-06
2.96338e-07
-3.01054e-07
-9.42403e-07
2.78928e-07
-2.85538e-07
9.42986e-07
-5.13475e-09
9.8326e-09
0.0011466
-2.95187e-07
1.31451e-06
2.90955e-07
9.40473e-07
-2.81437e-07
2.77277e-07
-9.38755e-07
-3.36426e-09
-0.00114743
6.18669e-09
-1.27844e-06
2.88581e-07
-2.9186e-07
-9.38841e-07
2.75759e-07
9.39414e-07
-2.82529e-07
1.31413e-06
0.00114658
-1.42645e-09
-0.00114658
1.00233e-08
-1.30848e-06
2.91188e-07
-2.9488e-07
-9.39088e-07
2.76626e-07
-2.82239e-07
9.4047e-07
-2.57258e-07
-2.64973e-07
0.000272703
-1.27926e-06
0.000274765
-0.000272701
2.63211e-07
2.70586e-07
-3.10873e-09
8.19832e-09
0.0011477
-2.91894e-07
1.28048e-06
2.89099e-07
9.39633e-07
-2.85803e-07
2.78916e-07
-9.40178e-07
-1.63881e-09
-0.00114722
7.97709e-09
-1.27362e-06
2.88631e-07
-2.92083e-07
-9.39919e-07
2.78479e-07
9.39515e-07
-2.86172e-07
1.279e-06
0.0011477
-3.32585e-09
-0.0011477
1.21393e-08
-1.27465e-06
2.88021e-07
-2.92723e-07
-9.39546e-07
2.79064e-07
-2.85827e-07
9.40684e-07
-0.000272702
2.65799e-07
2.71554e-07
1.31263e-06
1.27631e-06
-2.57053e-07
-2.64218e-07
0.000272736
-1.32051e-06
-1.28233e-06
0.000274804
-0.000272737
2.6304e-07
2.72004e-07
6.7409e-09
0.00114675
-2.97059e-07
1.32115e-06
2.94796e-07
9.39043e-07
-2.82878e-07
-9.40087e-07
2.75757e-07
-1.3189e-06
-5.3302e-09
9.28612e-09
0.00114725
-3.00766e-07
1.32514e-06
2.96496e-07
9.45756e-07
-2.86016e-07
-9.45722e-07
2.78975e-07
0.00114674
-1.1023e-09
-0.00114674
6.76686e-09
-1.31336e-06
2.94939e-07
-2.97228e-07
-9.40417e-07
2.75617e-07
-2.83488e-07
9.39224e-07
1.32407e-06
0.00114725
-4.93594e-09
-0.00114725
1.29799e-08
-1.31995e-06
2.95896e-07
-3.01606e-07
-9.45452e-07
2.79196e-07
-2.86083e-07
9.46513e-07
-2.59749e-07
-2.6173e-07
0.000272736
-1.28532e-06
0.000274813
-0.000272737
2.66112e-07
2.67363e-07
1.01569e-08
0.00114788
-2.95408e-07
1.28306e-06
2.91054e-07
9.43077e-07
-2.84818e-07
-9.42038e-07
2.79512e-07
-1.31369e-06
-5.21991e-09
1.0439e-08
0.00114681
-3.00456e-07
1.31981e-06
2.96828e-07
9.42535e-07
-2.85063e-07
-9.42465e-07
2.79058e-07
0.00114787
-7.0377e-09
-0.00114787
1.17242e-08
-1.27706e-06
2.911e-07
-2.95717e-07
-9.41997e-07
2.79634e-07
-2.85097e-07
9.43593e-07
1.32056e-06
0.0011468
-6.04725e-09
-0.0011468
1.01621e-08
-1.31384e-06
2.96723e-07
-3.0067e-07
-9.41986e-07
2.78881e-07
-2.85483e-07
9.43341e-07
-6.35993e-10
8.3756e-09
0.00114657
-2.94521e-07
1.3149e-06
2.9173e-07
9.39844e-07
-2.8223e-07
2.76545e-07
-9.3935e-07
2.47892e-10
-0.00114743
4.76348e-09
-1.27847e-06
2.89158e-07
-2.91381e-07
-9.39693e-07
2.75179e-07
9.38686e-07
-2.8322e-07
1.31448e-06
0.00114655
2.57597e-09
-0.00114656
9.14877e-09
-1.30839e-06
2.91439e-07
-2.94719e-07
-9.40018e-07
2.75512e-07
-2.83506e-07
9.39516e-07
-2.56806e-07
-2.64984e-07
0.0002727
-1.28087e-06
0.000274765
-0.0002727
2.64175e-07
2.7193e-07
-4.67626e-09
1.1714e-08
0.00114769
-2.92715e-07
1.2795e-06
2.88217e-07
9.40386e-07
-2.85392e-07
2.79326e-07
-9.39659e-07
-3.7236e-09
-0.00114722
5.01624e-09
-1.27322e-06
2.89319e-07
-2.91488e-07
-9.39837e-07
2.78433e-07
9.39568e-07
-2.86182e-07
1.27823e-06
0.00114769
-4.00798e-09
-0.00114769
1.66205e-08
-1.27561e-06
2.86917e-07
-2.93948e-07
-9.39647e-07
2.79107e-07
-2.85712e-07
9.40671e-07
-0.000272696
2.64838e-07
2.71941e-07
1.31316e-06
1.27698e-06
-2.57617e-07
-2.64613e-07
0.000272737
-1.32079e-06
-1.28272e-06
0.000274805
-0.000272737
2.63376e-07
2.7212e-07
4.73295e-09
0.00114674
-2.96377e-07
1.32087e-06
2.95428e-07
9.38871e-07
-2.82993e-07
-9.40449e-07
2.75706e-07
-1.31989e-06
-5.82771e-09
1.22022e-08
0.00114725
-3.01258e-07
1.3242e-06
2.96128e-07
9.46173e-07
-2.85729e-07
-9.45474e-07
2.79403e-07
0.00114674
-2.05003e-09
-0.00114674
6.05725e-09
-1.31326e-06
2.95021e-07
-2.97039e-07
-9.40226e-07
2.75397e-07
-2.83563e-07
9.39341e-07
1.32372e-06
0.00114724
-4.88431e-09
-0.00114725
1.45827e-08
-1.32051e-06
2.95605e-07
-3.02079e-07
-9.45217e-07
2.79489e-07
-2.85815e-07
9.46784e-07
-2.59253e-07
-2.6288e-07
0.000272737
-1.28548e-06
0.000274812
-0.000272737
2.66327e-07
2.67243e-07
9.99914e-09
0.00114787
-2.94978e-07
1.28261e-06
2.91488e-07
9.43314e-07
-2.84625e-07
-9.41967e-07
2.7977e-07
-1.31291e-06
-7.27962e-09
8.5463e-09
0.0011468
-3.00195e-07
1.32105e-06
2.97341e-07
9.42814e-07
-2.85119e-07
-9.42194e-07
2.79048e-07
0.00114787
-6.98854e-09
-0.00114787
1.10032e-08
-1.277e-06
2.91134e-07
-2.95686e-07
-9.41804e-07
2.79393e-07
-2.85239e-07
9.43643e-07
1.32024e-06
0.0011468
-6.58922e-09
-0.0011468
1.03825e-08
-1.31384e-06
2.96993e-07
-3.00568e-07
-9.41813e-07
2.7913e-07
-2.85242e-07
9.43589e-07
2.79074e-09
7.72975e-09
0.00114655
-2.94355e-07
1.31519e-06
2.92068e-07
9.38771e-07
-2.83418e-07
2.75303e-07
-9.4036e-07
2.42015e-09
-0.00114743
4.16713e-09
-1.27846e-06
2.89527e-07
-2.91179e-07
-9.40385e-07
2.74786e-07
9.38336e-07
-2.83942e-07
1.3145e-06
0.00114653
4.85488e-09
-0.00114653
9.70546e-09
-1.3085e-06
2.91418e-07
-2.94785e-07
-9.41046e-07
2.74573e-07
-2.84588e-07
9.38571e-07
-2.56462e-07
-2.64223e-07
0.000272701
-1.28081e-06
0.000274766
-0.000272701
2.64371e-07
2.71527e-07
-4.7637e-09
1.61854e-08
0.00114768
-2.93958e-07
1.27875e-06
2.87317e-07
9.40252e-07
-2.85559e-07
2.7924e-07
-9.39824e-07
-3.46175e-09
-0.00114723
4.94501e-09
-1.27297e-06
2.89625e-07
-2.91313e-07
-9.39884e-07
2.78647e-07
9.39522e-07
-2.85855e-07
1.27761e-06
0.00114768
-2.8808e-09
-0.00114768
1.84539e-08
-1.27648e-06
2.86489e-07
-2.94522e-07
-9.39943e-07
2.7878e-07
-2.86141e-07
9.40429e-07
-0.000272691
2.64159e-07
2.71788e-07
1.31326e-06
1.27685e-06
-2.57398e-07
-2.64662e-07
0.000272737
-1.32067e-06
-1.28241e-06
0.000274804
-0.000272737
2.63055e-07
2.72366e-07
4.64709e-09
0.00114674
-2.96425e-07
1.32093e-06
2.95377e-07
9.39017e-07
-2.83121e-07
-9.40265e-07
2.75614e-07
-1.32036e-06
-6.21045e-09
1.34809e-08
0.00114724
-3.01558e-07
1.32412e-06
2.95997e-07
9.46335e-07
-2.85435e-07
-9.45285e-07
2.79583e-07
0.00114674
-2.36936e-09
-0.00114674
6.70612e-09
-1.31345e-06
2.95037e-07
-2.97168e-07
-9.39886e-07
2.75787e-07
-2.83234e-07
9.39652e-07
1.32449e-06
0.00114724
-4.54979e-09
-0.00114724
1.41244e-08
-1.32086e-06
2.95588e-07
-3.02102e-07
-9.45148e-07
2.79543e-07
-2.85649e-07
9.46733e-07
-2.59476e-07
-2.63223e-07
0.000272736
-1.28583e-06
0.000274811
-0.000272735
2.66725e-07
2.67794e-07
9.27878e-09
0.00114787
-2.94919e-07
1.28288e-06
2.91651e-07
9.43195e-07
-2.84893e-07
-9.42002e-07
2.79541e-07
-1.31376e-06
-7.35541e-09
9.69657e-09
0.0011468
-3.00071e-07
1.32035e-06
2.9742e-07
9.43017e-07
-2.84938e-07
-9.4201e-07
2.79246e-07
0.00114787
-6.27893e-09
-0.00114787
1.01301e-08
-1.2771e-06
2.91616e-07
-2.95245e-07
-9.41943e-07
2.79625e-07
-2.85031e-07
9.43493e-07
1.31958e-06
0.00114679
-5.12579e-09
-0.00114679
1.2738e-08
-1.31452e-06
2.96627e-07
-3.01039e-07
-9.42181e-07
2.79171e-07
-2.85252e-07
9.43243e-07
4.10984e-09
8.29036e-09
0.00114653
-2.94654e-07
1.31515e-06
2.91816e-07
9.37999e-07
-2.84269e-07
2.74664e-07
-9.41226e-07
1.77312e-09
-0.00114742
4.89364e-09
-1.27915e-06
2.88998e-07
-2.91833e-07
-9.40267e-07
2.74628e-07
9.38577e-07
-2.84274e-07
1.31431e-06
0.00114652
3.87498e-09
-0.00114652
1.0047e-08
-1.30873e-06
2.90793e-07
-2.95652e-07
-9.4115e-07
2.74582e-07
-2.84652e-07
9.38538e-07
-2.5656e-07
-2.64899e-07
0.000272701
-1.28039e-06
0.000274764
-0.0002727
2.64264e-07
2.70937e-07
-3.97918e-09
1.66957e-08
0.00114768
-2.94409e-07
1.2785e-06
2.8704e-07
9.39949e-07
-2.85871e-07
2.78905e-07
-9.40163e-07
-1.38967e-09
-0.00114723
7.5456e-09
-1.27346e-06
2.89191e-07
-2.91777e-07
-9.4013e-07
2.78197e-07
9.3916e-07
-2.86199e-07
1.27845e-06
0.00114767
-1.46206e-09
-0.00114767
1.71461e-08
-1.27595e-06
2.86706e-07
-2.94668e-07
-9.40815e-07
2.78162e-07
-2.8675e-07
9.39561e-07
-0.00027269
2.64806e-07
2.71023e-07
1.31318e-06
1.27704e-06
-2.57594e-07
-2.6443e-07
0.000272736
-1.32076e-06
-1.28276e-06
0.000274801
-0.000272733
2.63504e-07
2.72324e-07
5.37838e-09
0.00114674
-2.9644e-07
1.32088e-06
2.9555e-07
9.39352e-07
-2.82678e-07
-9.39903e-07
2.76086e-07
-1.32001e-06
-5.59663e-09
1.23854e-08
0.00114724
-3.01795e-07
1.32562e-06
2.95859e-07
9.46171e-07
-2.85419e-07
-9.45285e-07
2.79446e-07
0.00114673
-1.571e-09
-0.00114673
7.17005e-09
-1.31342e-06
2.94656e-07
-2.97352e-07
-9.3967e-07
2.75793e-07
-2.83003e-07
9.39628e-07
1.32542e-06
0.00114723
-1.32528e-09
-0.00114723
1.30618e-08
-1.32011e-06
2.96123e-07
-3.01925e-07
-9.45771e-07
2.7887e-07
-2.8617e-07
9.45787e-07
-2.59663e-07
-2.63057e-07
0.000272735
-1.28532e-06
0.000274813
-0.000272737
2.65979e-07
2.68587e-07
8.89771e-09
0.00114787
-2.94663e-07
1.28274e-06
2.92212e-07
9.43065e-07
-2.84698e-07
-9.42102e-07
2.79861e-07
-1.31465e-06
-6.0551e-09
1.14969e-08
0.00114679
-3.00559e-07
1.31956e-06
2.96939e-07
9.42717e-07
-2.85001e-07
-9.42325e-07
2.79219e-07
0.00114786
-4.81516e-09
-0.00114786
1.03824e-08
-1.2772e-06
2.91356e-07
-2.95522e-07
-9.41909e-07
2.79408e-07
-2.85199e-07
9.43378e-07
1.31916e-06
0.00114678
-2.93221e-09
-0.00114678
1.26919e-08
-1.31501e-06
2.96317e-07
-3.01521e-07
-9.42472e-07
2.78781e-07
-2.85673e-07
9.42828e-07
2.40767e-09
8.38278e-09
0.00114652
-2.95315e-07
1.3145e-06
2.91336e-07
9.38384e-07
-2.84262e-07
2.74807e-07
-9.41045e-07
-7.50964e-10
-0.00114743
6.55111e-09
-1.27954e-06
2.88603e-07
-2.92395e-07
-9.40373e-07
2.74808e-07
9.386e-07
-2.84195e-07
1.31434e-06
0.00114652
2.08131e-09
-0.00114652
8.64066e-09
-1.30894e-06
2.90715e-07
-2.95948e-07
-9.40866e-07
2.7491e-07
-2.84309e-07
9.38719e-07
-2.56785e-07
-2.65769e-07
0.000272699
-1.27989e-06
0.000274761
-0.000272697
2.63875e-07
2.70556e-07
-1.87447e-09
1.53702e-08
0.00114767
-2.94031e-07
1.27905e-06
2.87639e-07
9.38945e-07
-2.86693e-07
2.78102e-07
-9.41254e-07
-6.8244e-10
-0.00114722
1.05466e-08
-1.27399e-06
2.88614e-07
-2.92394e-07
-9.40432e-07
2.77955e-07
9.38969e-07
-2.86498e-07
1.27926e-06
0.00114767
-7.57052e-10
-0.00114767
1.48709e-08
-1.27528e-06
2.87442e-07
-2.94159e-07
-9.41279e-07
2.77525e-07
-2.874e-07
9.39164e-07
-0.000272691
2.65377e-07
2.70764e-07
1.31318e-06
1.27669e-06
-2.57254e-07
-2.64529e-07
0.000272733
-1.32034e-06
-1.28248e-06
0.000274799
-0.000272732
2.63266e-07
2.71964e-07
6.09396e-09
0.00114673
-2.97119e-07
1.32121e-06
2.94946e-07
9.39263e-07
-2.82735e-07
-9.39853e-07
2.75946e-07
-1.31945e-06
-1.81552e-09
1.14017e-08
0.00114722
-3.01199e-07
1.3262e-06
2.96721e-07
9.45196e-07
-2.8595e-07
-9.46163e-07
2.78825e-07
0.00114672
-6.04108e-10
-0.00114673
6.97119e-09
-1.3138e-06
2.94548e-07
-2.97461e-07
-9.39772e-07
2.75663e-07
-2.83094e-07
9.39449e-07
1.3254e-06
0.00114721
1.68292e-09
-0.00114721
1.26165e-08
-1.32017e-06
2.96474e-07
-3.01454e-07
-9.46092e-07
2.78456e-07
-2.8642e-07
9.45416e-07
-2.60434e-07
-2.62607e-07
0.000272737
-1.28449e-06
0.000274815
-0.000272739
2.65486e-07
2.68554e-07
9.52742e-09
0.00114786
-2.95118e-07
1.28328e-06
2.91693e-07
9.42894e-07
-2.84881e-07
-9.42122e-07
2.79462e-07
-1.31448e-06
-4.45911e-09
1.04131e-08
0.00114678
-3.00916e-07