/*--------------------------------*- C++ -*----------------------------------*\
| =========                 |                                                 |
| \\      /  F ield         | OpenFOAM: The Open Source CFD Toolbox           |
|  \\    /   O peration     | Version:  v1906                                 |
|   \\  /    A nd           | Web:      www.OpenFOAM.com                      |
|    \\/     M anipulation  |                                                 |
\*---------------------------------------------------------------------------*/
FoamFile
{
    version     2.0;
    format      ascii;
    class       volScalarField;
    location    "100";
    object      k;
}
// * * * * * * * * * * * * * * * * * * * * * * * * * * * * * * * * * * * * * //

dimensions      [0 2 -2 0 0 0 0];


internalField   nonuniform List<scalar> 
42840
(
1.42565e-05
1.58512e-05
1.58204e-05
1.77358e-05
1.77445e-05
1.76664e-05
1.76619e-05
1.58235e-05
1.58411e-05
1.58261e-05
1.5846e-05
1.77089e-05
1.76987e-05
1.58413e-05
1.58547e-05
1.58456e-05
1.58574e-05
1.58546e-05
1.58543e-05
1.58572e-05
1.77046e-05
1.76938e-05
1.58527e-05
1.58255e-05
1.58565e-05
1.77297e-05
1.58579e-05
1.58575e-05
4.9117e-05
6.9261e-05
6.92624e-05
4.92236e-05
6.9161e-05
6.91645e-05
4.91567e-05
6.92795e-05
6.92808e-05
4.9162e-05
1.42592e-05
1.42569e-05
1.42598e-05
1.42576e-05
1.42604e-05
1.42576e-05
1.42603e-05
2.73316e-05
4.36588e-05
1.45082e-05
1.58528e-05
4.36523e-05
1.45079e-05
2.7343e-05
6.91976e-05
6.92073e-05
2.71463e-05
1.44966e-05
4.3609e-05
1.58224e-05
1.44964e-05
4.36108e-05
2.71588e-05
5.73548e-05
5.73771e-05
1.77264e-05
5.73317e-05
5.73336e-05
5.73314e-05
5.7337e-05
6.91503e-05
6.91556e-05
6.91736e-05
6.91851e-05
5.72741e-05
5.73569e-05
1.76587e-05
5.72613e-05
5.73462e-05
6.91523e-05
6.91472e-05
6.91924e-05
6.91787e-05
1.7674e-05
5.72253e-05
5.73886e-05
5.72627e-05
5.73435e-05
4.91012e-05
6.92798e-05
6.92806e-05
4.91367e-05
2.71764e-05
4.3622e-05
1.45051e-05
1.58245e-05
4.36109e-05
1.45052e-05
2.71834e-05
2.68877e-05
4.36414e-05
1.45034e-05
1.58431e-05
4.36314e-05
1.45039e-05
2.69187e-05
4.91067e-05
6.92638e-05
6.92618e-05
4.90745e-05
4.91432e-05
6.92791e-05
6.92793e-05
4.89883e-05
2.71835e-05
1.58252e-05
4.36027e-05
1.45059e-05
4.36158e-05
1.45056e-05
2.71737e-05
2.68941e-05
1.58445e-05
4.36262e-05
1.45051e-05
4.36362e-05
1.45048e-05
2.68012e-05
5.72483e-05
5.733e-05
1.76983e-05
5.72295e-05
5.73401e-05
6.91846e-05
6.91918e-05
6.916e-05
6.9155e-05
1.77131e-05
5.72245e-05
5.73776e-05
5.72243e-05
5.73501e-05
6.91894e-05
6.91829e-05
2.70935e-05
4.3649e-05
1.44985e-05
1.58429e-05
4.36447e-05
1.44982e-05
2.70875e-05
4.90889e-05
6.92855e-05
6.92862e-05
4.91229e-05
2.67041e-05
1.44931e-05
4.36294e-05
1.58559e-05
1.44934e-05
4.36234e-05
2.67433e-05
4.91257e-05
6.92794e-05
6.92794e-05
4.91824e-05
2.71058e-05
1.58442e-05
4.36492e-05
1.44993e-05
4.36519e-05
1.44989e-05
2.71105e-05
4.91761e-05
6.92855e-05
6.92847e-05
4.92029e-05
2.67885e-05
1.58565e-05
1.4495e-05
4.36259e-05
1.44942e-05
4.36307e-05
2.6741e-05
4.94132e-05
6.92864e-05
6.92861e-05
4.94537e-05
2.7311e-05
1.451e-05
4.36368e-05
1.58559e-05
1.451e-05
4.3637e-05
2.73182e-05
4.93438e-05
6.92808e-05
6.92886e-05
4.92675e-05
2.73372e-05
1.58533e-05
4.36525e-05
1.45088e-05
4.36586e-05
1.45086e-05
2.73258e-05
4.93615e-05
6.92864e-05
6.92848e-05
4.93927e-05
2.73188e-05
1.58566e-05
1.45104e-05
4.36412e-05
1.45102e-05
4.3645e-05
2.73091e-05
4.93033e-05
6.92934e-05
6.92895e-05
4.9211e-05
5.73573e-05
5.72626e-05
1.76893e-05
5.73288e-05
5.725e-05
6.91475e-05
6.91579e-05
6.92113e-05
6.92005e-05
1.77082e-05
5.73551e-05
5.73044e-05
5.73677e-05
5.72845e-05
6.91629e-05
6.91513e-05
2.71698e-05
1.45039e-05
4.36257e-05
1.58543e-05
1.4504e-05
4.36221e-05
2.71802e-05
4.90523e-05
6.92669e-05
6.92701e-05
4.90189e-05
4.91414e-05
6.92833e-05
6.92865e-05
4.91126e-05
2.71528e-05
1.58238e-05
1.44974e-05
4.36216e-05
1.44973e-05
4.36199e-05
2.71429e-05
2.71775e-05
1.58556e-05
1.45046e-05
4.36205e-05
1.45046e-05
4.36284e-05
2.71703e-05
4.90684e-05
6.92723e-05
6.92694e-05
4.90855e-05
4.9151e-05
6.92881e-05
6.92859e-05
4.92275e-05
6.91797e-05
6.91878e-05
6.9184e-05
6.91898e-05
1.7743e-05
5.73252e-05
5.73234e-05
5.73372e-05
5.73509e-05
6.91874e-05
6.91799e-05
6.91866e-05
6.91812e-05
1.45107e-05
4.36482e-05
2.7314e-05
6.92924e-05
4.92137e-05
4.36266e-05
6.92872e-05
6.918e-05
6.91789e-05
6.91798e-05
6.86475e-05
5.60166e-05
4.9142e-05
6.86463e-05
5.60602e-05
6.91836e-05
7.04056e-05
6.92618e-05
7.22565e-05
7.22674e-05
7.0392e-05
7.03934e-05
7.22932e-05
6.92609e-05
7.22641e-05
7.0408e-05
6.91828e-05
4.92105e-05
6.8647e-05
5.605e-05
6.86496e-05
5.60468e-05
6.91782e-05
6.91678e-05
6.91582e-05
6.91119e-05
5.60155e-05
6.86076e-05
4.91674e-05
5.59597e-05
6.86037e-05
6.91174e-05
7.04021e-05
6.92808e-05
7.23545e-05
7.23644e-05
7.03889e-05
7.03901e-05
7.2331e-05
6.92801e-05
7.23551e-05
7.04022e-05
6.9114e-05
4.91133e-05
5.59567e-05
6.86004e-05
5.59697e-05
6.86042e-05
6.91089e-05
6.9206e-05
6.91984e-05
8.59411e-05
7.21159e-05
7.21099e-05
7.21024e-05
7.20964e-05
8.59646e-05
5.43758e-05
3.7079e-05
5.73583e-05
6.79265e-05
3.70719e-05
6.79295e-05
5.44019e-05
5.44126e-05
3.70795e-05
5.73483e-05
6.79238e-05
3.70748e-05
6.79286e-05
5.44165e-05
5.43717e-05
6.79286e-05
5.7328e-05
3.70687e-05
3.70765e-05
6.79271e-05
5.43502e-05
5.44039e-05
6.79362e-05
5.73694e-05
3.70788e-05
3.70828e-05
6.79312e-05
5.44557e-05
8.59453e-05
7.20993e-05
7.20929e-05
7.21127e-05
7.21065e-05
8.5941e-05
5.43315e-05
3.70731e-05
6.79223e-05
5.73341e-05
5.43669e-05
3.7068e-05
6.79216e-05
5.44763e-05
3.70925e-05
6.79407e-05
5.73268e-05
5.4509e-05
3.70874e-05
6.79438e-05
8.59709e-05
7.21107e-05
7.21054e-05
8.59692e-05
7.2124e-05
7.21187e-05
6.91571e-05
6.91486e-05
6.91826e-05
6.91759e-05
8.58972e-05
7.20908e-05
7.20924e-05
7.20773e-05
7.20788e-05
8.59058e-05
5.4228e-05
3.64367e-05
5.72587e-05
6.786e-05
6.78659e-05
3.64307e-05
5.42169e-05
5.43475e-05
3.67016e-05
5.73578e-05
6.79102e-05
6.79134e-05
3.67395e-05
5.43698e-05
5.42432e-05
6.78743e-05
5.72646e-05
3.64132e-05
6.78694e-05
5.4236e-05
3.64351e-05
5.4339e-05
6.79138e-05
5.73503e-05
3.67827e-05
6.79121e-05
5.43005e-05
3.67759e-05
8.59002e-05
7.20738e-05
7.20754e-05
7.20873e-05
7.20889e-05
8.58984e-05
6.91452e-05
6.91537e-05
6.91823e-05
6.91885e-05
8.59063e-05
7.20807e-05
7.20822e-05
8.59041e-05
7.20938e-05
7.20955e-05
5.42308e-05
3.64663e-05
5.72385e-05
6.7878e-05
6.78761e-05
3.63935e-05
5.41877e-05
5.43608e-05
3.68289e-05
5.73608e-05
6.79191e-05
6.79119e-05
3.68271e-05
5.43872e-05
5.42337e-05
6.78745e-05
3.64008e-05
5.72292e-05
5.42704e-05
6.78775e-05
3.63965e-05
5.43314e-05
6.79118e-05
3.67986e-05
5.73723e-05
5.43659e-05
6.79136e-05
3.679e-05
8.58944e-05
7.20958e-05
7.20979e-05
7.20832e-05
7.2085e-05
8.58944e-05
6.91748e-05
6.86468e-05
5.59915e-05
4.9154e-05
6.86454e-05
5.60116e-05
6.91779e-05
7.042e-05
6.92807e-05
7.23433e-05
7.23397e-05
7.04074e-05
7.04078e-05
7.2364e-05
6.92797e-05
7.23558e-05
7.04207e-05
6.91787e-05
4.90876e-05
6.86474e-05
5.60164e-05
6.86482e-05
5.60261e-05
6.9175e-05
6.91826e-05
6.86439e-05
5.59917e-05
4.90711e-05
6.91795e-05
6.8645e-05
5.59526e-05
7.03964e-05
6.92623e-05
7.22998e-05
7.04103e-05
7.22778e-05
7.04093e-05
7.22922e-05
6.92631e-05
7.03957e-05
7.22984e-05
6.91791e-05
4.90763e-05
6.86431e-05
5.59777e-05
6.91833e-05
6.86414e-05
5.59837e-05
6.91778e-05
6.86445e-05
5.60033e-05
4.90913e-05
6.91743e-05
6.8645e-05
5.59838e-05
7.04091e-05
6.92785e-05
7.23666e-05
7.23661e-05
7.0422e-05
7.04215e-05
7.23656e-05
6.928e-05
7.04085e-05
7.23705e-05
6.91748e-05
4.90052e-05
6.86391e-05
5.60352e-05
6.86398e-05
5.60391e-05
6.91789e-05
8.58935e-05
7.20968e-05
7.2111e-05
7.20845e-05
7.2099e-05
8.58988e-05
5.42619e-05
3.65637e-05
5.72537e-05
6.78886e-05
6.78911e-05
3.65073e-05
5.42981e-05
5.44348e-05
3.70741e-05
5.7358e-05
6.79287e-05
3.70713e-05
6.79321e-05
5.44236e-05
5.43297e-05
6.78924e-05
5.72249e-05
3.6534e-05
6.78898e-05
3.65517e-05
5.4322e-05
5.44343e-05
6.79327e-05
5.737e-05
3.70771e-05
3.70806e-05
6.79308e-05
5.43963e-05
8.59088e-05
7.20841e-05
7.20989e-05
7.20962e-05
7.21107e-05
8.59309e-05
6.91928e-05
6.91845e-05
6.91528e-05
6.91616e-05
8.59071e-05
7.20859e-05
7.21001e-05
8.58933e-05
7.2099e-05
7.21131e-05
5.42983e-05
3.65361e-05
5.7233e-05
6.78924e-05
3.6541e-05
6.78905e-05
5.43041e-05
5.44286e-05
3.70901e-05
5.73754e-05
6.7938e-05
6.7931e-05
3.70928e-05
5.44642e-05
5.43253e-05
6.78908e-05
3.65281e-05
5.72284e-05
3.6514e-05
5.43358e-05
6.78931e-05
5.44516e-05
6.7931e-05
3.70862e-05
5.73379e-05
5.4449e-05
6.79327e-05
3.70833e-05
8.59114e-05
7.21021e-05
7.21162e-05
7.20887e-05
7.21029e-05
8.59136e-05
6.91818e-05
6.91902e-05
6.91412e-05
6.86235e-05
5.59183e-05
4.91195e-05
6.86203e-05
5.59541e-05
6.9144e-05
7.04092e-05
6.92865e-05
7.2321e-05
7.23043e-05
7.03971e-05
7.03952e-05
7.2309e-05
6.92853e-05
7.23064e-05
7.04077e-05
6.91453e-05
4.90829e-05
6.86185e-05
5.59633e-05
6.86215e-05
5.59743e-05
6.91415e-05
6.91217e-05
5.60254e-05
6.86064e-05
4.91548e-05
6.9116e-05
5.60362e-05
6.86104e-05
7.03898e-05
6.92786e-05
7.23251e-05
7.04031e-05
7.23191e-05
7.04021e-05
7.23284e-05
6.928e-05
7.03895e-05
7.23341e-05
6.912e-05
4.91166e-05
5.60179e-05
6.86142e-05
6.91253e-05
5.60212e-05
6.86094e-05
6.91434e-05
6.86231e-05
5.59631e-05
4.91788e-05
6.91402e-05
6.86271e-05
5.59354e-05
7.03935e-05
6.92842e-05
7.23102e-05
7.22873e-05
7.04073e-05
7.04067e-05
7.22927e-05
6.92855e-05
7.03939e-05
7.22972e-05
6.91401e-05
4.9201e-05
6.86297e-05
5.5968e-05
6.86262e-05
5.59988e-05
6.91428e-05
6.9169e-05
5.59473e-05
6.87106e-05
4.94491e-05
5.59891e-05
6.87086e-05
6.91704e-05
7.04106e-05
6.92868e-05
7.2355e-05
7.23443e-05
7.03993e-05
7.03969e-05
7.23483e-05
6.92852e-05
7.23262e-05
7.04094e-05
6.91742e-05
4.94478e-05
5.60274e-05
6.87087e-05
5.6031e-05
6.87111e-05
6.91713e-05
6.92002e-05
6.86989e-05
5.6089e-05
4.93363e-05
6.86966e-05
5.60264e-05
6.92053e-05
7.04371e-05
6.92828e-05
7.2318e-05
7.23317e-05
7.04227e-05
7.0426e-05
7.23552e-05
6.92816e-05
7.23353e-05
7.04404e-05
6.92026e-05
4.93119e-05
6.86965e-05
5.60086e-05
6.86989e-05
5.6032e-05
6.91975e-05
6.91669e-05
5.5904e-05
6.87072e-05
4.93908e-05
6.91646e-05
5.59514e-05
6.87092e-05
7.03984e-05
6.9285e-05
7.23723e-05
7.23438e-05
7.04125e-05
7.04102e-05
7.23465e-05
6.92859e-05
7.03969e-05
7.23519e-05
6.9162e-05
4.93822e-05
5.59343e-05
6.8708e-05
5.59383e-05
6.87062e-05
6.91644e-05
6.9206e-05
6.86959e-05
5.60526e-05
4.9347e-05
6.92023e-05
6.86982e-05
5.60326e-05
7.04298e-05
6.92917e-05
7.23685e-05
7.23553e-05
7.04422e-05
7.04425e-05
7.23623e-05
6.9292e-05
7.04292e-05
7.23708e-05
6.9202e-05
4.93138e-05
6.86963e-05
5.60332e-05
6.86953e-05
5.59945e-05
6.92062e-05
8.59704e-05
7.21356e-05
7.21139e-05
7.21222e-05
7.21004e-05
8.5971e-05
5.47104e-05
3.72044e-05
5.73326e-05
6.79891e-05
6.79941e-05
3.72014e-05
5.47061e-05
5.42419e-05
3.63639e-05
5.72611e-05
6.78622e-05
3.63696e-05
6.78648e-05
5.42493e-05
5.47075e-05
6.80002e-05
5.73424e-05
3.72083e-05
6.79963e-05
3.72116e-05
5.46782e-05
5.42547e-05
6.78661e-05
5.72649e-05
3.63808e-05
3.63751e-05
6.78635e-05
5.42545e-05
8.59646e-05
7.21185e-05
7.20966e-05
7.21321e-05
7.21102e-05
8.59644e-05
6.91562e-05
6.91493e-05
6.92022e-05
6.92096e-05
8.59713e-05
7.21254e-05
7.21038e-05
8.59659e-05
7.21389e-05
7.21175e-05
5.47644e-05
3.72247e-05
5.73633e-05
6.80149e-05
3.72274e-05
6.80106e-05
5.47761e-05
5.41805e-05
3.64568e-05
5.73018e-05
6.78663e-05
6.78648e-05
3.64704e-05
5.42342e-05
5.47323e-05
6.80045e-05
3.72196e-05
5.73606e-05
3.72169e-05
5.47352e-05
6.80103e-05
5.42011e-05
6.78629e-05
3.63774e-05
5.72927e-05
5.4238e-05
6.78662e-05
3.64454e-05
8.59664e-05
7.21419e-05
7.21211e-05
7.21284e-05
7.21074e-05
8.59881e-05
6.91538e-05
6.91604e-05
6.90855e-05
5.5884e-05
6.85984e-05
4.90744e-05
5.59039e-05
6.85971e-05
6.90895e-05
7.03885e-05
6.92689e-05
7.23077e-05
7.23188e-05
7.03749e-05
7.03764e-05
7.23119e-05
6.92686e-05
7.23069e-05
7.03892e-05
6.9089e-05
4.90588e-05
5.59158e-05
6.85991e-05
5.58975e-05
6.86005e-05
6.90854e-05
6.91755e-05
5.59654e-05
6.86263e-05
4.91398e-05
5.59987e-05
6.86238e-05
6.91802e-05
7.04335e-05
6.92853e-05
7.23245e-05
7.23291e-05
7.04185e-05
7.04217e-05
7.23339e-05
6.92848e-05
7.23287e-05
7.04366e-05
6.91776e-05
4.9072e-05
5.59802e-05
6.86243e-05
5.59518e-05
6.8626e-05
6.91725e-05
6.90912e-05
5.58784e-05
6.85952e-05
4.90727e-05
6.90865e-05
5.58545e-05
6.85972e-05
7.0378e-05
6.92704e-05
7.23297e-05
7.2304e-05
7.03922e-05
7.03898e-05
7.22972e-05
6.92709e-05
7.03767e-05
7.23101e-05
6.90896e-05
4.90838e-05
5.591e-05
6.85968e-05
5.59037e-05
6.85945e-05
6.90955e-05
6.91817e-05
5.59761e-05
6.86239e-05
4.91333e-05
6.91774e-05
5.59502e-05
6.86263e-05
7.04271e-05
6.92867e-05
7.23428e-05
7.234e-05
7.04412e-05
7.04393e-05
7.2334e-05
6.92876e-05
7.04247e-05
7.23395e-05
6.91791e-05
4.92285e-05
5.59907e-05
6.86274e-05
5.59944e-05
6.86246e-05
6.91837e-05
6.91881e-05
6.918e-05
6.91913e-05
6.91831e-05
8.59483e-05
7.21053e-05
7.20995e-05
8.59611e-05
7.2118e-05
7.21123e-05
5.43724e-05
3.7066e-05
5.73318e-05
6.7925e-05
5.43607e-05
3.70721e-05
6.79236e-05
5.44739e-05
3.70843e-05
5.73344e-05
6.79412e-05
5.44411e-05
3.7089e-05
6.79384e-05
5.43639e-05
6.79261e-05
3.70732e-05
5.7332e-05
5.43647e-05
3.70663e-05
6.79277e-05
5.44736e-05
6.7936e-05
3.70859e-05
5.73375e-05
5.44679e-05
3.70815e-05
6.79395e-05
8.59599e-05
7.21207e-05
7.21153e-05
8.59628e-05
7.21076e-05
7.21021e-05
6.91796e-05
6.91876e-05
6.91793e-05
6.9188e-05
7.04408e-05
7.23518e-05
6.92934e-05
7.04289e-05
7.23625e-05
6.92072e-05
4.92166e-05
6.86927e-05
5.60579e-05
6.92031e-05
6.86938e-05
5.6063e-05
6.92888e-05
6.91883e-05
6.91868e-05
1.41871e-05
1.41863e-05
1.42564e-05
1.41873e-05
1.41863e-05
1.43645e-05
1.43639e-05
3.55271e-05
2.38477e-05
2.38484e-05
1.77212e-05
2.38331e-05
2.38341e-05
3.55383e-05
3.55368e-05
2.38559e-05
2.38602e-05
1.77304e-05
3.55462e-05
2.38411e-05
2.38455e-05
3.54078e-05
2.36332e-05
2.37453e-05
1.76546e-05
2.362e-05
2.37347e-05
3.54148e-05
3.54444e-05
1.768e-05
2.3639e-05
2.37675e-05
2.36505e-05
2.37776e-05
3.5437e-05
3.54636e-05
2.37095e-05
2.38221e-05
1.76965e-05
2.38087e-05
2.36973e-05
3.54712e-05
3.54961e-05
1.77175e-05
2.37218e-05
2.3824e-05
2.3733e-05
2.38371e-05
3.54892e-05
3.55355e-05
2.38761e-05
2.36597e-05
1.76777e-05
2.36473e-05
2.38622e-05
3.55424e-05
3.55727e-05
1.77076e-05
2.38768e-05
2.3669e-05
2.38901e-05
2.36809e-05
3.55672e-05
3.55422e-05
1.77467e-05
2.38392e-05
2.38431e-05
3.55319e-05
2.38537e-05
2.38573e-05
1.41873e-05
1.41873e-05
1.42595e-05
1.4187e-05
1.41872e-05
1.43645e-05
1.43639e-05
1.41862e-05
1.41854e-05
1.42569e-05
1.41854e-05
1.41846e-05
1.43637e-05
1.43632e-05
1.41871e-05
1.41859e-05
1.42591e-05
1.41871e-05
1.41859e-05
1.43636e-05
1.43629e-05
1.42573e-05
1.41879e-05
1.41872e-05
1.41878e-05
1.4187e-05
1.43649e-05
1.43652e-05
1.426e-05
1.41878e-05
1.41878e-05
1.41874e-05
1.41874e-05
1.43642e-05
1.43647e-05
1.42573e-05
1.41864e-05
1.41857e-05
1.41861e-05
1.41856e-05
1.43639e-05
1.43643e-05
1.426e-05
1.41874e-05
1.41869e-05
1.41872e-05
1.41867e-05
1.43639e-05
1.43642e-05
1.90894e-05
3.12215e-05
1.76481e-05
2.73413e-05
3.12333e-05
1.76571e-05
1.90722e-05
2.18315e-05
2.6722e-05
4.3652e-05
3.77543e-05
2.67085e-05
3.77408e-05
2.18481e-05
2.18485e-05
3.77405e-05
4.36591e-05
2.67107e-05
2.67238e-05
3.77531e-05
2.18318e-05
1.90723e-05
2.7334e-05
3.12362e-05
1.76568e-05
3.12257e-05
1.76477e-05
1.90889e-05
1.9032e-05
1.75861e-05
3.1095e-05
2.71561e-05
1.75952e-05
3.11017e-05
1.90159e-05
2.17357e-05
2.65075e-05
4.36047e-05
3.7487e-05
2.6496e-05
3.74362e-05
2.17507e-05
2.17591e-05
3.75256e-05
4.36145e-05
2.65019e-05
2.65129e-05
3.75278e-05
2.17448e-05
1.90144e-05
2.71491e-05
1.75956e-05
3.1097e-05
1.75863e-05
3.1089e-05
1.90302e-05
3.55381e-05
1.77374e-05
2.38355e-05
2.38374e-05
2.38499e-05
2.38515e-05
3.55271e-05
3.54238e-05
1.76738e-05
2.36254e-05
2.37456e-05
3.54171e-05
2.36382e-05
2.37559e-05
3.54285e-05
1.76624e-05
2.36435e-05
2.37663e-05
3.54349e-05
2.36316e-05
2.3756e-05
1.90779e-05
3.12014e-05
1.76059e-05
2.71848e-05
3.1211e-05
1.76142e-05
1.90611e-05
2.17728e-05
2.65284e-05
4.36136e-05
3.76887e-05
3.76762e-05
2.65144e-05
2.17895e-05
2.17889e-05
3.76775e-05
4.36188e-05
2.6515e-05
3.7689e-05
2.65287e-05
2.1772e-05
1.90611e-05
2.71767e-05
3.121e-05
1.7612e-05
3.1201e-05
1.76037e-05
1.90777e-05
1.90763e-05
3.11827e-05
1.75568e-05
2.69026e-05
3.11913e-05
1.75644e-05
1.90602e-05
2.1817e-05
2.66006e-05
4.3634e-05
3.77565e-05
3.77439e-05
2.65884e-05
2.18332e-05
2.18346e-05
3.7744e-05
4.36392e-05
2.65932e-05
3.77565e-05
2.18183e-05
2.66052e-05
1.90585e-05
2.68775e-05
3.11893e-05
1.75605e-05
3.11807e-05
1.75526e-05
1.90742e-05
1.90612e-05
3.1209e-05
1.76158e-05
2.7174e-05
1.90778e-05
3.11988e-05
1.76074e-05
2.17877e-05
2.65188e-05
4.36118e-05
3.75859e-05
2.65311e-05
3.76092e-05
2.17687e-05
2.17719e-05
3.76899e-05
2.65291e-05
4.36076e-05
2.65162e-05
2.17885e-05
3.76801e-05
1.90774e-05
2.71816e-05
3.11956e-05
1.76089e-05
3.12065e-05
1.76174e-05
1.90608e-05
1.90619e-05
3.11926e-05
1.75683e-05
2.68176e-05
1.90778e-05
3.11835e-05
1.75599e-05
2.18378e-05
2.66036e-05
4.36338e-05
3.77425e-05
3.77554e-05
2.6615e-05
2.18213e-05
2.18199e-05
3.77559e-05
2.66095e-05
4.36284e-05
2.18362e-05
3.77432e-05
2.65979e-05
1.90789e-05
2.68387e-05
3.11853e-05
1.75623e-05
3.1194e-05
1.75705e-05
1.9063e-05
3.54789e-05
1.77127e-05
2.3705e-05
2.3814e-05
2.3827e-05
2.37169e-05
3.54712e-05
3.54802e-05
1.77012e-05
2.37243e-05
2.38317e-05
2.37129e-05
3.54874e-05
2.38187e-05
1.90413e-05
3.11269e-05
1.75572e-05
2.70978e-05
3.11295e-05
1.75649e-05
1.90261e-05
2.18113e-05
2.66594e-05
4.36429e-05
3.77328e-05
3.77215e-05
2.66487e-05
2.18276e-05
2.1829e-05
3.77231e-05
4.36504e-05
2.66563e-05
3.77351e-05
2.66668e-05
2.18127e-05
1.90226e-05
2.70837e-05
3.11059e-05
1.75612e-05
3.11078e-05
1.75535e-05
1.90371e-05
1.89475e-05
1.74928e-05
3.07633e-05
2.67545e-05
1.75002e-05
3.07688e-05
1.89322e-05
2.17882e-05
2.67586e-05
4.36226e-05
3.75936e-05
3.75829e-05
2.67449e-05
2.18043e-05
2.18053e-05
3.75864e-05
4.36297e-05
2.67468e-05
3.75971e-05
2.17891e-05
2.67602e-05
1.89295e-05
2.6746e-05
1.74942e-05
3.07556e-05
1.7487e-05
3.07537e-05
1.89443e-05
1.90288e-05
3.11411e-05
1.75684e-05
2.7102e-05
1.90442e-05
3.11363e-05
1.75606e-05
2.18324e-05
2.66717e-05
4.36543e-05
3.77238e-05
2.66819e-05
3.7736e-05
2.1816e-05
2.18143e-05
3.77355e-05
2.66739e-05
4.36465e-05
2.66634e-05
2.18307e-05
3.77232e-05
1.90465e-05
2.71146e-05
3.11431e-05
1.75644e-05
3.11495e-05
1.75721e-05
1.90311e-05
1.89348e-05
1.75076e-05
3.07791e-05
2.67985e-05
1.895e-05
1.75012e-05
3.07744e-05
2.18075e-05
2.67505e-05
4.36321e-05
3.75937e-05
3.76037e-05
2.67638e-05
2.17911e-05
2.17902e-05
3.75999e-05
2.67617e-05
4.36246e-05
2.18065e-05
3.75893e-05
2.67484e-05
1.8952e-05
2.67882e-05
1.75082e-05
3.07853e-05
1.75154e-05
3.07908e-05
1.89367e-05
1.91021e-05
1.76491e-05
3.12451e-05
2.73186e-05
1.76582e-05
3.12502e-05
1.9086e-05
2.18226e-05
2.67196e-05
4.36326e-05
3.75853e-05
2.67063e-05
3.75788e-05
2.1837e-05
2.18449e-05
3.76852e-05
4.36415e-05
2.67083e-05
2.67214e-05
3.76761e-05
2.18304e-05
1.90843e-05
2.73102e-05
1.76583e-05
3.12412e-05
1.76491e-05
3.12355e-05
1.91e-05
1.90721e-05
3.12279e-05
1.76568e-05
2.73281e-05
1.90891e-05
3.12169e-05
1.76478e-05
2.18496e-05
2.67141e-05
4.36591e-05
3.77428e-05
2.18326e-05
2.67273e-05
3.77531e-05
2.18324e-05
3.77524e-05
2.67253e-05
4.36519e-05
2.18491e-05
2.67122e-05
3.774e-05
1.90882e-05
2.73347e-05
3.12133e-05
1.76476e-05
1.90712e-05
3.12247e-05
1.76568e-05
1.90875e-05
1.76578e-05
3.12569e-05
2.73117e-05
1.91035e-05
1.76488e-05
3.12496e-05
2.18555e-05
2.67108e-05
4.36471e-05
3.77441e-05
3.77504e-05
2.67242e-05
2.18398e-05
2.18362e-05
3.77283e-05
2.67227e-05
4.36397e-05
2.18513e-05
3.77282e-05
2.67094e-05
1.91044e-05
2.73192e-05
1.76487e-05
3.12528e-05
1.76578e-05
3.12605e-05
1.90882e-05
3.55514e-05
1.77063e-05
2.38671e-05
2.36543e-05
2.36661e-05
2.38805e-05
3.55451e-05
3.55556e-05
1.76939e-05
2.3885e-05
2.36727e-05
2.38717e-05
3.55619e-05
2.36615e-05
1.90533e-05
1.76012e-05
3.10089e-05
2.71783e-05
1.76104e-05
3.10126e-05
1.90363e-05
2.17977e-05
2.67184e-05
4.36206e-05
3.75059e-05
2.67057e-05
3.75124e-05
2.18124e-05
2.18179e-05
3.75478e-05
4.36283e-05
2.67089e-05
2.67217e-05
3.75489e-05
2.18027e-05
1.90368e-05
2.71706e-05
1.76109e-05
3.09954e-05
1.76017e-05
3.09917e-05
1.90537e-05
1.90178e-05
1.75945e-05
3.11069e-05
2.71438e-05
1.90335e-05
1.75853e-05
3.11001e-05
2.17762e-05
2.65133e-05
4.36256e-05
3.7639e-05
2.17617e-05
2.65247e-05
3.76303e-05
2.17531e-05
3.75495e-05
2.65181e-05
4.3616e-05
2.17678e-05
2.65074e-05
3.75327e-05
1.90349e-05
2.71515e-05
1.75848e-05
3.11106e-05
1.90192e-05
1.7594e-05
3.1116e-05
1.90361e-05
1.76097e-05
3.10286e-05
2.71697e-05
1.90528e-05
1.76002e-05
3.10245e-05
2.18245e-05
2.67132e-05
4.36276e-05
3.75888e-05
3.75942e-05
2.67264e-05
2.18086e-05
2.18062e-05
3.75744e-05
2.67241e-05
4.36215e-05
2.18219e-05
3.75708e-05
2.67111e-05
1.90522e-05
2.71785e-05
1.75993e-05
3.10405e-05
1.76088e-05
3.10445e-05
1.90356e-05
3.55292e-05
1.77317e-05
2.38515e-05
2.38541e-05
3.55394e-05
2.3837e-05
2.384e-05
2.18422e-05
2.67251e-05
3.7761e-05
4.36425e-05
2.67119e-05
2.18582e-05
3.77513e-05
1.90891e-05
2.73037e-05
1.76572e-05
3.12637e-05
1.76478e-05
1.91055e-05
3.12556e-05
2.67278e-05
4.36199e-05
2.67144e-05
1.42663e-05
1.58588e-05
1.5835e-05
1.76298e-05
1.4268e-05
1.58626e-05
1.58414e-05
1.76501e-05
1.42682e-05
1.58657e-05
1.58499e-05
1.76678e-05
1.42683e-05
1.58676e-05
1.58576e-05
1.76881e-05
1.42682e-05
1.58659e-05
1.58579e-05
1.77096e-05
1.42673e-05
1.58623e-05
1.585e-05
1.76795e-05
1.42654e-05
1.586e-05
1.58371e-05
1.76899e-05
1.42634e-05
1.58582e-05
1.58253e-05
1.7678e-05
1.42616e-05
1.58561e-05
1.58192e-05
1.76674e-05
1.42597e-05
1.58523e-05
1.5815e-05
1.76388e-05
1.42579e-05
1.58486e-05
1.58112e-05
1.76251e-05
1.42564e-05
1.58459e-05
1.58104e-05
1.75944e-05
1.42552e-05
1.58433e-05
1.58129e-05
1.7617e-05
1.42538e-05
1.58394e-05
1.58158e-05
1.76337e-05
1.42526e-05
1.58345e-05
1.58211e-05
1.76383e-05
1.42515e-05
1.58305e-05
1.58277e-05
1.7647e-05
1.4251e-05
1.5827e-05
1.58303e-05
1.76505e-05
1.42511e-05
1.58253e-05
1.58275e-05
1.76606e-05
1.42512e-05
1.58261e-05
1.58206e-05
1.7666e-05
1.42511e-05
1.5828e-05
1.58149e-05
1.76748e-05
1.42504e-05
1.58303e-05
1.58107e-05
1.76921e-05
1.42494e-05
1.58326e-05
1.58064e-05
1.77008e-05
1.42503e-05
1.58364e-05
1.58039e-05
1.77033e-05
1.4252e-05
1.58411e-05
1.58062e-05
1.77172e-05
1.42545e-05
1.58463e-05
1.58126e-05
1.77336e-05
1.77346e-05
1.77302e-05
1.58662e-05
1.58554e-05
1.58687e-05
1.58604e-05
1.77397e-05
1.77363e-05
1.58494e-05
1.58441e-05
1.58551e-05
1.58504e-05
1.58365e-05
1.58616e-05
1.58378e-05
1.76601e-05
1.7662e-05
1.58174e-05
1.58397e-05
1.58235e-05
1.76314e-05
1.77459e-05
1.77401e-05
1.5869e-05
1.5862e-05
1.58687e-05
1.58666e-05
1.77527e-05
1.77361e-05
1.5857e-05
1.58529e-05
1.58621e-05
1.58606e-05
1.58382e-05
1.58651e-05
1.58396e-05
1.76822e-05
1.76927e-05
1.58262e-05
1.58476e-05
1.58341e-05
1.76486e-05
1.77546e-05
1.77438e-05
1.58684e-05
1.58682e-05
1.58674e-05
1.58724e-05
1.77601e-05
1.77343e-05
1.58638e-05
1.58633e-05
1.58682e-05
1.58714e-05
1.58402e-05
1.58675e-05
1.58414e-05
1.77118e-05
1.7732e-05
1.58371e-05
1.58566e-05
1.58452e-05
1.76682e-05
1.77363e-05
1.77043e-05
1.5867e-05
1.58734e-05
1.58652e-05
1.58738e-05
1.77304e-05
1.77146e-05
1.58693e-05
1.58736e-05
1.58712e-05
1.58791e-05
1.58419e-05
1.58668e-05
1.5843e-05
1.77292e-05
1.77125e-05
1.58477e-05
1.58588e-05
1.58545e-05
1.76768e-05
1.77018e-05
1.76573e-05
1.58646e-05
1.58728e-05
1.58607e-05
1.58686e-05
1.77303e-05
1.77029e-05
1.58711e-05
1.58803e-05
1.58687e-05
1.5882e-05
1.5843e-05
1.58633e-05
1.58427e-05
1.77025e-05
1.7681e-05
1.58563e-05
1.58525e-05
1.58609e-05
1.76837e-05
1.76754e-05
1.76545e-05
1.58589e-05
1.58672e-05
1.58529e-05
1.5863e-05
1.77262e-05
1.77097e-05
1.5867e-05
1.58821e-05
1.5861e-05
1.58797e-05
1.58424e-05
1.58605e-05
1.58421e-05
1.76965e-05
1.76571e-05
1.58619e-05
1.58408e-05
1.58618e-05
1.76667e-05
1.76733e-05
1.76336e-05
1.58508e-05
1.58618e-05
1.58435e-05
1.58562e-05
1.77216e-05
1.767e-05
1.58591e-05
1.58785e-05
1.58522e-05
1.58727e-05
1.58421e-05
1.58585e-05
1.58414e-05
1.76567e-05
1.76274e-05
1.58614e-05
1.58278e-05
1.58582e-05
1.76657e-05
1.76254e-05
1.76236e-05
1.58411e-05
1.58549e-05
1.58347e-05
1.58494e-05
1.7689e-05
1.76564e-05
1.585e-05
1.58709e-05
1.58429e-05
1.58634e-05
1.5841e-05
1.58569e-05
1.58388e-05
1.76454e-05
1.76437e-05
1.58574e-05
1.58203e-05
1.58533e-05
1.7646e-05
1.7618e-05
1.75938e-05
1.58328e-05
1.58482e-05
1.58275e-05
1.58432e-05
1.76757e-05
1.76534e-05
1.58406e-05
1.58611e-05
1.58339e-05
1.58521e-05
1.58377e-05
1.58535e-05
1.58339e-05
1.76559e-05
1.76234e-05
1.58515e-05
1.58163e-05
1.58439e-05
1.76245e-05
1.76093e-05
1.75932e-05
1.58265e-05
1.58417e-05
1.5823e-05
1.58358e-05
1.76464e-05
1.76266e-05
1.58322e-05
1.5849e-05
1.58264e-05
1.58412e-05
1.58326e-05
1.58496e-05
1.58297e-05
1.76166e-05
1.75986e-05
1.58411e-05
1.5812e-05
1.58338e-05
1.7607e-05
1.75881e-05
1.75905e-05
1.58222e-05
1.5834e-05
1.58195e-05
1.58281e-05
1.76532e-05
1.76245e-05
1.58249e-05
1.5839e-05
1.58216e-05
1.58334e-05
1.58294e-05
1.58469e-05
1.58293e-05
1.76248e-05
1.7596e-05
1.58317e-05
1.58102e-05
1.58268e-05
1.75995e-05
1.75846e-05
1.75466e-05
1.58186e-05
1.58263e-05
1.58145e-05
1.58215e-05
1.76209e-05
1.76263e-05
1.5821e-05
1.58319e-05
1.58186e-05
1.58286e-05
1.58293e-05
1.58442e-05
1.58293e-05
1.76146e-05
1.7612e-05
1.58252e-05
1.58121e-05
1.58215e-05
1.76018e-05
1.75723e-05
1.75729e-05
1.5813e-05
1.58201e-05
1.58091e-05
1.58151e-05
1.76204e-05
1.76108e-05
1.58178e-05
1.58278e-05
1.58148e-05
1.58257e-05
1.58292e-05
1.58405e-05
1.58283e-05
1.76305e-05
1.76099e-05
1.58208e-05
1.58149e-05
1.58193e-05
1.76195e-05
1.75922e-05
1.757e-05
1.58081e-05
1.58136e-05
1.58058e-05
1.58091e-05
1.76008e-05
1.75845e-05
1.5814e-05
1.58256e-05
1.58112e-05
1.5826e-05
1.58279e-05
1.58356e-05
1.58259e-05
1.76247e-05
1.76167e-05
1.58192e-05
1.58196e-05
1.58195e-05
1.76236e-05
1.75809e-05
1.7563e-05
1.58051e-05
1.58082e-05
1.58031e-05
1.58061e-05
1.76023e-05
1.7592e-05
1.58102e-05
1.58263e-05
1.58073e-05
1.58282e-05
1.58253e-05
1.58315e-05
1.58233e-05
1.76327e-05
1.76358e-05
1.58196e-05
1.58263e-05
1.58202e-05
1.76305e-05
1.75821e-05
1.75623e-05
1.58031e-05
1.58053e-05
1.5803e-05
1.58021e-05
1.7607e-05
1.75617e-05
1.58065e-05
1.58291e-05
1.58046e-05
1.58315e-05
1.58226e-05
1.58279e-05
1.5821e-05
1.76503e-05
1.76445e-05
1.58207e-05
1.58303e-05
1.58222e-05
1.76219e-05
1.75765e-05
1.75675e-05
1.58032e-05
1.5801e-05
1.58048e-05
1.57982e-05
1.75967e-05
1.75904e-05
1.58045e-05
1.58323e-05
1.58051e-05
1.58345e-05
1.58207e-05
1.58255e-05
1.582e-05
1.76417e-05
1.76362e-05
1.58229e-05
1.58287e-05
1.5825e-05
1.76422e-05
1.7584e-05
1.7576e-05
1.58057e-05
1.57976e-05
1.58076e-05
1.57959e-05
1.7603e-05
1.75975e-05
1.58056e-05
1.58354e-05
1.58074e-05
1.58373e-05
1.58197e-05
1.58257e-05
1.58193e-05
1.76589e-05
1.76455e-05
1.58257e-05
1.58225e-05
1.58274e-05
1.76518e-05
1.75943e-05
1.75871e-05
1.58085e-05
1.57957e-05
1.58108e-05
1.5796e-05
1.76132e-05
1.76048e-05
1.58083e-05
1.5838e-05
1.58099e-05
1.584e-05
1.58193e-05
1.58274e-05
1.58202e-05
1.76599e-05
1.76341e-05
1.58279e-05
1.58164e-05
1.58287e-05
1.76599e-05
1.76024e-05
1.75986e-05
1.58116e-05
1.57965e-05
1.5813e-05
1.57986e-05
1.76231e-05
1.7611e-05
1.58108e-05
1.58405e-05
1.58127e-05
1.58421e-05
1.58208e-05
1.58298e-05
1.58235e-05
1.76278e-05
1.76354e-05
1.5829e-05
1.58117e-05
1.58297e-05
1.76764e-05
1.76154e-05
1.76062e-05
1.58133e-05
1.58e-05
1.58128e-05
1.58038e-05
1.76323e-05
1.76306e-05
1.58138e-05
1.58427e-05
1.58162e-05
1.5844e-05
1.5825e-05
1.5832e-05
1.58295e-05
1.76519e-05
1.76403e-05
1.583e-05
1.58076e-05
1.58308e-05
1.76813e-05
1.76241e-05
1.76119e-05
1.58125e-05
1.58059e-05
1.58128e-05
1.58114e-05
1.76467e-05
1.76413e-05
1.58174e-05
1.58443e-05
1.58209e-05
1.58449e-05
1.58315e-05
1.58353e-05
1.58357e-05
1.76719e-05
1.76609e-05
1.58312e-05
1.58041e-05
1.58324e-05
1.76885e-05
1.76288e-05
1.76185e-05
1.58133e-05
1.5814e-05
1.58152e-05
1.58206e-05
1.76604e-05
1.76545e-05
1.58227e-05
1.58453e-05
1.58269e-05
1.58466e-05
1.5837e-05
1.58399e-05
1.5841e-05
1.7674e-05
1.76619e-05
1.58332e-05
1.5805e-05
1.5836e-05
1.76993e-05
1.76417e-05
1.76388e-05
1.58163e-05
1.58233e-05
1.58188e-05
1.58301e-05
1.76731e-05
1.7663e-05
1.58288e-05
1.58475e-05
1.58334e-05
1.58499e-05
1.58427e-05
1.58449e-05
1.58477e-05
1.7678e-05
1.76717e-05
1.58377e-05
1.58105e-05
1.58431e-05
1.7714e-05
1.76573e-05
1.76512e-05
1.582e-05
1.58326e-05
1.58226e-05
1.58391e-05
1.76895e-05
1.76913e-05
1.58353e-05
1.58511e-05
1.58398e-05
1.58539e-05
1.58494e-05
1.58502e-05
1.58536e-05
1.76894e-05
1.76858e-05
1.58454e-05
1.58185e-05
1.58511e-05
1.77134e-05
4.96042e-05
6.92908e-05
6.92957e-05
4.96546e-05
6.91744e-05
6.91827e-05
4.90616e-05
6.92841e-05
6.92871e-05
4.90287e-05
1.42654e-05
1.42639e-05
1.42597e-05
1.42678e-05
1.42668e-05
1.42651e-05
1.42615e-05
2.71936e-05
4.36546e-05
1.45112e-05
1.58597e-05
4.36516e-05
1.45112e-05
2.72221e-05
6.91959e-05
6.92026e-05
2.7284e-05
1.45073e-05
4.3579e-05
1.58363e-05
1.45075e-05
4.35699e-05
2.73044e-05
5.72944e-05
5.72312e-05
1.76197e-05
5.72763e-05
5.72526e-05
4.96686e-05
6.92949e-05
4.96618e-05
6.9295e-05
6.91701e-05
6.9176e-05
4.90554e-05
6.92869e-05
4.89911e-05
6.92876e-05
1.42665e-05
1.4265e-05
1.42614e-05
1.42681e-05
1.42673e-05
1.4266e-05
1.42624e-05
2.71674e-05
4.36609e-05
1.45108e-05
1.58636e-05
2.71776e-05
4.36535e-05
1.45103e-05
6.91923e-05
6.92013e-05
2.72583e-05
1.45083e-05
4.35698e-05
1.58434e-05
2.72745e-05
1.45083e-05
4.35621e-05
5.72698e-05
5.72726e-05
1.76427e-05
5.72549e-05
5.73008e-05
4.97902e-05
6.92943e-05
4.97224e-05
6.92952e-05
6.91718e-05
6.9183e-05
4.9045e-05
6.92802e-05
4.90374e-05
6.92793e-05
1.42672e-05
1.42662e-05
1.42624e-05
1.42684e-05
1.42677e-05
1.42674e-05
1.42632e-05
2.71531e-05
4.36524e-05
1.45095e-05
1.58665e-05
2.71706e-05
4.36414e-05
1.45089e-05
6.92e-05
6.9216e-05
2.72447e-05
1.45087e-05
4.35743e-05
1.58526e-05
2.72553e-05
1.45087e-05
4.35782e-05
5.72891e-05
5.7322e-05
1.76539e-05
5.73128e-05
5.73159e-05
4.97434e-05
6.92927e-05
4.97421e-05
6.92924e-05
6.91774e-05
6.91843e-05
4.90917e-05
6.92754e-05
4.91307e-05