/*--------------------------------*- C++ -*----------------------------------*\
| =========                 |                                                 |
| \\      /  F ield         | OpenFOAM: The Open Source CFD Toolbox           |
|  \\    /   O peration     | Version:  v1906                                 |
|   \\  /    A nd           | Web:      www.OpenFOAM.com                      |
|    \\/     M anipulation  |                                                 |
\*---------------------------------------------------------------------------*/
FoamFile
{
    version     2.0;
    format      ascii;
    class       volScalarField;
    location    "900";
    object      epsilon;
}
// * * * * * * * * * * * * * * * * * * * * * * * * * * * * * * * * * * * * * //

dimensions      [0 2 -3 0 0 0 0];


internalField   nonuniform List<scalar> 
42840
(
6.51831e-07
1.18285e-06
1.18292e-06
1.41519e-06
1.41811e-06
1.41517e-06
1.41588e-06
1.18292e-06
1.18295e-06
1.18525e-06
1.18527e-06
1.4151e-06
1.41586e-06
1.18283e-06
1.18297e-06
1.18516e-06
1.18529e-06
1.18299e-06
1.18517e-06
1.18531e-06
1.41517e-06
1.41593e-06
1.1829e-06
1.18524e-06
1.18522e-06
1.41595e-06
1.18603e-06
1.18595e-06
4.2363e-06
9.54912e-06
9.55427e-06
4.23572e-06
1.9061e-05
1.90715e-05
4.23649e-06
9.55112e-06
9.55628e-06
4.23582e-06
6.51848e-07
6.51942e-07
6.51932e-07
6.56492e-07
6.56506e-07
6.566e-07
6.56593e-07
2.29401e-06
3.64446e-06
9.29862e-07
1.18365e-06
3.6449e-06
9.30969e-07
2.29374e-06
1.90618e-05
1.90724e-05
2.29398e-06
9.29918e-07
3.64446e-06
1.18372e-06
9.31025e-07
3.64495e-06
2.29372e-06
5.64516e-06
5.6471e-06
1.41451e-06
5.64626e-06
5.64821e-06
5.64954e-06
5.65147e-06
1.90594e-05
1.90699e-05
1.90618e-05
1.90723e-05
5.64508e-06
5.64697e-06
1.41443e-06
5.64619e-06
5.64808e-06
1.90809e-05
1.90705e-05
1.90833e-05
1.90729e-05
1.41669e-06
5.64836e-06
5.65026e-06
5.6473e-06
5.64919e-06
4.2364e-06
9.55028e-06
9.55545e-06
4.23582e-06
2.29394e-06
3.64426e-06
9.29795e-07
1.18372e-06
3.64476e-06
9.30903e-07
2.29362e-06
2.29399e-06
3.64477e-06
9.29834e-07
1.18375e-06
3.64525e-06
9.30942e-07
2.29368e-06
4.23705e-06
9.56002e-06
9.55499e-06
4.23758e-06
4.23715e-06
9.56123e-06
9.55614e-06
4.23769e-06
2.29446e-06
1.18451e-06
3.64601e-06
9.33015e-07
3.64556e-06
9.31991e-07
2.29472e-06
2.29452e-06
1.18454e-06
3.64651e-06
9.33053e-07
3.64608e-06
9.32029e-07
2.29477e-06
5.64687e-06
5.64524e-06
1.41442e-06
5.64794e-06
5.64618e-06
1.90587e-05
1.90692e-05
1.90825e-05
1.90721e-05
1.41661e-06
5.65012e-06
5.64836e-06
5.64909e-06
5.64746e-06
1.90803e-05
1.90699e-05
2.2941e-06
3.64502e-06
9.29857e-07
1.18363e-06
3.64547e-06
9.30986e-07
2.29377e-06
4.23639e-06
9.55049e-06
9.55565e-06
4.23571e-06
2.29402e-06
9.29886e-07
3.64485e-06
1.18377e-06
9.30994e-07
3.64529e-06
2.29369e-06
4.23716e-06
9.56203e-06
9.55699e-06
4.23778e-06
2.29461e-06
1.18443e-06
3.64673e-06
9.33099e-07
3.64633e-06
9.32054e-07
2.29489e-06
4.23706e-06
9.56143e-06
9.55636e-06
4.23768e-06
2.29453e-06
1.18456e-06
9.33106e-07
3.64655e-06
9.32082e-07
3.64616e-06
2.2948e-06
4.23645e-06
9.55049e-06
9.55527e-06
4.23588e-06
2.29394e-06
9.29881e-07
3.64435e-06
1.18378e-06
9.30986e-07
3.64484e-06
2.29366e-06
4.23634e-06
9.55015e-06
9.55533e-06
4.23578e-06
2.29458e-06
1.18444e-06
3.64616e-06
9.3308e-07
3.64577e-06
9.32057e-07
2.29479e-06
4.23722e-06
9.56112e-06
9.55635e-06
4.23774e-06
2.29451e-06
1.18458e-06
9.33095e-07
3.6461e-06
9.32077e-07
3.64566e-06
2.29472e-06
4.23711e-06
9.56111e-06
9.55603e-06
4.23763e-06
5.64699e-06
5.64519e-06
1.41449e-06
5.64797e-06
5.64629e-06
1.90606e-05
1.9071e-05
1.90834e-05
1.9073e-05
1.41668e-06
5.65014e-06
5.64847e-06
5.64921e-06
5.64742e-06
1.90821e-05
1.90717e-05
2.29404e-06
9.29931e-07
3.64498e-06
1.1837e-06
9.31036e-07
3.64546e-06
2.29374e-06
4.23637e-06
9.55043e-06
9.5556e-06
4.23581e-06
4.23642e-06
9.55118e-06
9.55634e-06
4.23579e-06
2.29456e-06
1.18451e-06
9.33136e-07
3.64621e-06
9.32113e-07
3.64577e-06
2.29476e-06
2.29456e-06
1.18449e-06
9.33148e-07
3.64672e-06
9.32126e-07
3.64629e-06
2.29483e-06
4.23714e-06
9.56139e-06
9.5563e-06
4.23766e-06
4.23712e-06
9.5621e-06
9.55706e-06
4.2377e-06
1.90604e-05
1.90709e-05
1.90623e-05
1.90728e-05
1.4167e-06
5.64844e-06
5.65039e-06
5.64739e-06
5.64932e-06
1.9082e-05
1.90716e-05
1.90838e-05
1.90734e-05
9.34107e-07
3.64689e-06
2.29525e-06
9.56178e-06
4.23838e-06
3.64752e-06
9.56298e-06
1.90826e-05
1.90845e-05
1.26403e-05
1.12327e-05
4.8816e-06
4.23639e-06
1.12305e-05
4.88173e-06
1.26428e-05
2.2738e-05
9.55136e-06
7.23779e-06
7.23743e-06
2.27308e-05
2.27373e-05
7.23871e-06
9.55207e-06
7.23908e-06
2.27444e-05
1.2639e-05
4.23563e-06
1.1227e-05
4.88099e-06
1.12293e-05
4.88086e-06
1.26364e-05
1.90659e-05
1.90666e-05
1.26401e-05
4.88195e-06
1.12338e-05
4.2365e-06
4.88198e-06
1.12309e-05
1.26438e-05
2.27379e-05
9.55337e-06
7.23925e-06
7.23907e-06
2.2731e-05
2.27374e-05
7.24035e-06
9.55407e-06
7.24054e-06
2.27444e-05
1.26399e-05
4.2358e-06
4.88123e-06
1.12274e-05
4.88119e-06
1.12303e-05
1.26362e-05
1.90668e-05
1.90674e-05
9.95767e-06
2.23738e-05
2.2373e-05
2.23676e-05
2.23668e-05
9.95734e-06
4.70057e-06
2.97314e-06
5.64514e-06
9.91387e-06
2.97297e-06
9.91644e-06
4.7009e-06
4.70631e-06
2.97433e-06
5.6471e-06
9.91864e-06
2.97417e-06
9.92119e-06
4.70662e-06
4.70162e-06
9.91936e-06
5.64628e-06
2.97338e-06
2.97356e-06
9.91684e-06
4.70127e-06
4.70734e-06
9.92411e-06
5.64821e-06
2.97459e-06
2.97475e-06
9.92161e-06
4.70701e-06
9.95554e-06
2.23617e-05
2.23609e-05
2.2368e-05
2.23672e-05
9.95586e-06
4.70329e-06
2.9747e-06
9.92549e-06
5.6495e-06
4.70367e-06
2.97452e-06
9.92809e-06
4.70903e-06
2.9759e-06
9.93026e-06
5.65145e-06
4.70939e-06
2.97572e-06
9.93284e-06
9.96267e-06
2.23849e-05
2.23841e-05
9.96303e-06
2.23911e-05
2.23903e-05
1.90643e-05
1.9065e-05
1.90667e-05
1.90674e-05
9.95761e-06
2.23739e-05
2.23732e-05
2.23677e-05
2.2367e-05
9.95729e-06
4.70057e-06
2.97313e-06
5.64508e-06
9.91394e-06
9.91647e-06
2.97298e-06
4.70089e-06
4.70629e-06
2.9743e-06
5.64698e-06
9.91884e-06
9.92138e-06
2.97414e-06
4.7066e-06
4.70161e-06
9.91922e-06
5.64621e-06
2.9734e-06
9.91717e-06
4.70128e-06
2.97355e-06
4.70731e-06
9.92431e-06
5.64809e-06
2.97455e-06
9.92181e-06
4.707e-06
2.97472e-06
9.95548e-06
2.23619e-05
2.23611e-05
2.23681e-05
2.23674e-05
9.9558e-06
1.90761e-05
1.90754e-05
1.90785e-05
1.90778e-05
9.95908e-06
2.23735e-05
2.23728e-05
9.95942e-06
2.23797e-05
2.2379e-05
4.70299e-06
2.97417e-06
5.64839e-06
9.92493e-06
9.92308e-06
2.97434e-06
4.70264e-06
4.7087e-06
2.97533e-06
5.65028e-06
9.93013e-06
9.92762e-06
2.97551e-06
4.70836e-06
4.70197e-06
9.92015e-06
2.97396e-06
5.64728e-06
4.70231e-06
9.92208e-06
2.97379e-06
4.70769e-06
9.92475e-06
2.97512e-06
5.64918e-06
4.70801e-06
9.92721e-06
2.97495e-06
9.9612e-06
2.23855e-05
2.23848e-05
2.23793e-05
2.23786e-05
9.96086e-06
1.26399e-05
1.12332e-05
4.88189e-06
4.23649e-06
1.12303e-05
4.88197e-06
1.26435e-05
2.2738e-05
9.55253e-06
7.23932e-06
7.23913e-06
2.27311e-05
2.27376e-05
7.24041e-06
9.55323e-06
7.2406e-06
2.27445e-05
1.26397e-05
4.23573e-06
1.12268e-05
4.88122e-06
1.12297e-05
4.88115e-06
1.2636e-05
1.26467e-05
1.1234e-05
4.88246e-06
4.23695e-06
1.26441e-05
1.12363e-05
4.88232e-06
2.27501e-05
9.55786e-06
7.24123e-06
2.27572e-05
7.24161e-06
2.27508e-05
7.24035e-06
9.55715e-06
2.27437e-05
7.23998e-06
1.2648e-05
4.23769e-06
1.12397e-05
4.88303e-06
1.26505e-05
1.12375e-05
4.88318e-06
1.26474e-05
1.12338e-05
4.8827e-06
4.23705e-06
1.26438e-05
1.12368e-05
4.88262e-06
2.27504e-05
9.55903e-06
7.24293e-06
7.24313e-06
2.27572e-05
2.27509e-05
7.24187e-06
9.55834e-06
2.2744e-05
7.24167e-06
1.26475e-05
4.23779e-06
1.12403e-05
4.88333e-06
1.12373e-05
4.88341e-06
1.26512e-05
9.95722e-06
2.23725e-05
2.23733e-05
2.23662e-05
2.23671e-05
9.9569e-06
4.7061e-06
2.97419e-06
5.64683e-06
9.91836e-06
9.92088e-06
2.97401e-06
4.70644e-06
4.70038e-06
2.97308e-06
5.64506e-06
9.91417e-06
2.9729e-06
9.91606e-06
4.70072e-06
4.70715e-06
9.92383e-06
5.64799e-06
2.97443e-06
9.92137e-06
2.97461e-06
4.70681e-06
4.70143e-06
9.91899e-06
5.64636e-06
2.97332e-06
2.9735e-06
9.91712e-06
4.70109e-06
9.95508e-06
2.23604e-05
2.23612e-05
2.23667e-05
2.23675e-05
9.9554e-06
1.90637e-05
1.90643e-05
1.90777e-05
1.9077e-05
9.95869e-06
2.2372e-05
2.23729e-05
9.95902e-06
2.23783e-05
2.23791e-05
4.70854e-06
2.9752e-06
5.65018e-06
9.92932e-06
2.9754e-06
9.92748e-06
4.70817e-06
4.70282e-06
2.97409e-06
5.64855e-06
9.92481e-06
9.92298e-06
2.97428e-06
4.70246e-06
4.7075e-06
9.92437e-06
2.97501e-06
5.64904e-06
2.97482e-06
4.70786e-06
9.9266e-06
4.70179e-06
9.92009e-06
2.9739e-06
5.64728e-06
4.70213e-06
9.92197e-06
2.97371e-06
9.96081e-06
2.2384e-05
2.23849e-05
2.23778e-05
2.23787e-05
9.96047e-06
1.90754e-05
1.90748e-05
1.26402e-05
1.12336e-05
4.88173e-06
4.2364e-06
1.12307e-05
4.88184e-06
1.26439e-05
2.27381e-05
9.55273e-06
7.23799e-06
7.23764e-06
2.2731e-05
2.27374e-05
7.23892e-06
9.55344e-06
7.23928e-06
2.27446e-05
1.26401e-05
4.23571e-06
1.12272e-05
4.8811e-06
1.12301e-05
4.88099e-06
1.26363e-05
1.26476e-05
4.88271e-06
1.12344e-05
4.23713e-06
1.2644e-05
4.88266e-06
1.12373e-05
2.27502e-05
9.55988e-06
7.24287e-06
2.27571e-05
7.24307e-06
2.27508e-05
7.24181e-06
9.55916e-06
2.27439e-05
7.24161e-06
1.26478e-05
4.23781e-06
4.88339e-06
1.12408e-05
1.26515e-05
4.88342e-06
1.12379e-05
1.26477e-05
1.12342e-05
4.88257e-06
4.23704e-06
1.2644e-05
1.12371e-05
4.88246e-06
2.27502e-05
9.55924e-06
7.24144e-06
7.24181e-06
2.27573e-05
2.2751e-05
7.24055e-06
9.55854e-06
2.27439e-05
7.24019e-06
1.26478e-05
4.23771e-06
1.12406e-05
4.88317e-06
1.12377e-05
4.88329e-06
1.26515e-05
1.26404e-05
4.88177e-06
1.12332e-05
4.23656e-06
4.88187e-06
1.1231e-05
1.26429e-05
2.27372e-05
9.55236e-06
7.23886e-06
7.23867e-06
2.27302e-05
2.27367e-05
7.23995e-06
9.55342e-06
7.24014e-06
2.27436e-05
1.2639e-05
4.23578e-06
4.88112e-06
1.12275e-05
4.88103e-06
1.12298e-05
1.26365e-05
1.26401e-05
1.12331e-05
4.88159e-06
4.23645e-06
1.12309e-05
4.88164e-06
1.26437e-05
2.27377e-05
9.55241e-06
7.2374e-06
7.23721e-06
2.27308e-05
2.27372e-05
7.23849e-06
9.55311e-06
7.23868e-06
2.27441e-05
1.26399e-05
4.23567e-06
1.12274e-05
4.88089e-06
1.12296e-05
4.88085e-06
1.26362e-05
1.26467e-05
4.8826e-06
1.12345e-05
4.2371e-06
1.26442e-05
4.8825e-06
1.12368e-05
2.27495e-05
9.55922e-06
7.24247e-06
7.24267e-06
2.27564e-05
2.275e-05
7.24141e-06
9.55822e-06
2.27431e-05
7.24122e-06
1.26481e-05
4.23786e-06
4.88321e-06
1.12403e-05
4.88331e-06
1.1238e-05
1.26505e-05
1.26476e-05
1.12344e-05
4.88237e-06
4.23699e-06
1.2644e-05
1.12366e-05
4.88232e-06
2.275e-05
9.55891e-06
7.24101e-06
7.24122e-06
2.27569e-05
2.27505e-05
7.23996e-06
9.55822e-06
2.27436e-05
7.23976e-06
1.26478e-05
4.23775e-06
1.12401e-05
4.88303e-06
1.12379e-05
4.88308e-06
1.26514e-05
9.95808e-06
2.23736e-05
2.2374e-05
2.23673e-05
2.23678e-05
9.95775e-06
4.70643e-06
2.97429e-06
5.64685e-06
9.9184e-06
9.92097e-06
2.97409e-06
4.70678e-06
4.70074e-06
2.97323e-06
5.64518e-06
9.91391e-06
2.97307e-06
9.91643e-06
4.70109e-06
4.70749e-06
9.9239e-06
5.64811e-06
2.97451e-06
9.92137e-06
2.97471e-06
4.70714e-06
4.70181e-06
9.91924e-06
5.64631e-06
2.97348e-06
2.97365e-06
9.91706e-06
4.70145e-06
9.95594e-06
2.23614e-05
2.23619e-05
2.23677e-05
2.23682e-05
9.95627e-06
1.90655e-05
1.90662e-05
1.90785e-05
1.9078e-05
9.95955e-06
2.23731e-05
2.23736e-05
9.95989e-06
2.23793e-05
2.23798e-05
4.70888e-06
2.97529e-06
5.65029e-06
9.92973e-06
2.97549e-06
9.92718e-06
4.70851e-06
4.70319e-06
2.97426e-06
5.64851e-06
9.92489e-06
9.92304e-06
2.97444e-06
4.70282e-06
4.70783e-06
9.92432e-06
2.97511e-06
5.64907e-06
2.97491e-06
4.70819e-06
9.9268e-06
4.70214e-06
9.92009e-06
2.97405e-06
5.64739e-06
4.70251e-06
9.92204e-06
2.97388e-06
9.96168e-06
2.23851e-05
2.23856e-05
2.23789e-05
2.23794e-05
9.96133e-06
1.90772e-05
1.90766e-05
1.26405e-05
4.88161e-06
1.12331e-05
4.23649e-06
4.88176e-06
1.12309e-05
1.2643e-05
2.2738e-05
9.55268e-06
7.23755e-06
7.23737e-06
2.27311e-05
2.27375e-05
7.23865e-06
9.55338e-06
7.23883e-06
2.27444e-05
1.26392e-05
4.23568e-06
4.88102e-06
1.12274e-05
4.88085e-06
1.12296e-05
1.26366e-05
1.26401e-05
4.88182e-06
1.12332e-05
4.23646e-06
4.88198e-06
1.1231e-05
1.26427e-05
2.27372e-05
9.55343e-06
7.23932e-06
7.23894e-06
2.27301e-05
2.27365e-05
7.24022e-06
9.55413e-06
7.2406e-06
2.27437e-05
1.26389e-05
4.23575e-06
4.88123e-06
1.12274e-05
4.88108e-06
1.12297e-05
1.26363e-05
1.26468e-05
4.88249e-06
1.12344e-05
4.237e-06
1.26443e-05
4.88232e-06
1.12366e-05
2.27503e-05
9.55919e-06
7.24117e-06
7.24137e-06
2.27572e-05
2.27508e-05
7.24011e-06
9.5585e-06
2.2744e-05
7.23992e-06
1.26482e-05
4.23778e-06
4.88305e-06
1.12401e-05
4.88321e-06
1.12379e-05
1.26507e-05
1.26465e-05
4.8827e-06
1.12345e-05
4.23707e-06
1.2644e-05
4.88254e-06
1.12367e-05
2.27493e-05
9.55993e-06
7.24273e-06
7.24313e-06
2.27564e-05
2.27501e-05
7.24187e-06
9.55922e-06
2.27429e-05
7.24148e-06
1.26478e-05
4.23776e-06
4.88325e-06
1.12402e-05
4.88342e-06
1.1238e-05
1.26503e-05
1.90654e-05
1.9066e-05
1.90672e-05
1.90679e-05
9.95913e-06
2.23734e-05
2.23726e-05
9.95947e-06
2.23796e-05
2.23788e-05
4.703e-06
2.97416e-06
5.64847e-06
9.92513e-06
4.70264e-06
2.97434e-06
9.92265e-06
4.70872e-06
2.97536e-06
5.6504e-06
9.92988e-06
4.70837e-06
2.97554e-06
9.92743e-06
4.70197e-06
9.9198e-06
2.97396e-06
5.64736e-06
4.70232e-06
2.97378e-06
9.92225e-06
4.7077e-06
9.92457e-06
2.97516e-06
5.6493e-06
4.70804e-06
2.97499e-06
9.927e-06
9.96126e-06
2.23854e-05
2.23845e-05
9.96091e-06
2.23792e-05
2.23783e-05
1.90771e-05
1.90765e-05
1.9079e-05
1.90783e-05
2.27632e-05
7.24247e-06
9.56398e-06
2.27563e-05
7.24225e-06
1.26552e-05
4.23826e-06
1.12414e-05
4.88378e-06
1.26515e-05
1.12435e-05
4.88372e-06
9.56475e-06
1.90874e-05
1.90893e-05
4.41724e-07
4.41686e-07
6.53417e-07
4.43612e-07
4.43578e-07
2.35583e-07
2.33653e-07
2.8269e-06
1.96717e-06
1.96742e-06
1.41375e-06
1.9665e-06
1.96673e-06
2.82721e-06
2.82821e-06
1.96868e-06
1.96893e-06
1.41665e-06
2.82853e-06
1.96799e-06
1.96822e-06
2.82691e-06
1.96718e-06
1.96741e-06
1.41366e-06
1.96648e-06
1.96671e-06
2.82723e-06
2.82826e-06
1.41741e-06
1.96764e-06
1.96786e-06
1.96835e-06
1.96858e-06
2.82793e-06
2.8268e-06
1.96729e-06
1.96717e-06
1.41365e-06
1.96649e-06
1.96659e-06
2.82713e-06
2.82815e-06
1.41732e-06
1.96774e-06
1.96763e-06
1.96846e-06
1.96834e-06
2.82782e-06
2.82695e-06
1.96733e-06
1.96724e-06
1.41373e-06
1.96657e-06
1.96664e-06
2.82725e-06
2.82828e-06
1.4174e-06
1.96779e-06
1.96772e-06
1.9685e-06
1.96841e-06
2.82796e-06
2.82823e-06
1.41742e-06
1.96765e-06
1.96788e-06
2.82791e-06
1.96834e-06
1.96859e-06
4.41736e-07
4.41694e-07
6.53432e-07
4.43624e-07
4.43582e-07
2.35586e-07
2.33656e-07
4.41819e-07
4.4178e-07
6.53526e-07
4.43708e-07
4.43667e-07
2.35653e-07
2.33723e-07
4.41814e-07
4.41774e-07
6.53519e-07
4.43705e-07
4.43662e-07
2.35651e-07
2.3372e-07
6.54983e-07
4.47301e-07
4.47267e-07
4.45483e-07
4.45445e-07
2.37511e-07
2.39414e-07
6.54999e-07
4.47312e-07
4.47269e-07
4.45495e-07
4.45452e-07
2.37513e-07
2.39416e-07
6.55093e-07
4.47395e-07
4.47354e-07
4.45578e-07
4.45538e-07
2.37581e-07
2.39484e-07
6.55083e-07
4.47393e-07
4.4735e-07
4.45571e-07
4.45533e-07
2.37578e-07
2.39482e-07
1.66449e-06
2.53954e-06
1.5415e-06
2.29417e-06
2.53977e-06
1.54245e-06
1.66284e-06
1.84144e-06
2.22237e-06
3.64424e-06
3.02096e-06
2.22188e-06
3.02056e-06
1.84275e-06
1.84331e-06
3.02103e-06
3.64512e-06
2.22224e-06
2.22274e-06
3.02144e-06
1.8419e-06
1.66244e-06
2.29358e-06
2.53937e-06
1.54187e-06
2.53914e-06
1.54092e-06
1.66394e-06
1.66435e-06
1.54149e-06
2.53938e-06
2.29415e-06
1.54244e-06
2.5396e-06
1.66281e-06
1.84137e-06
2.22243e-06
3.6443e-06
3.02058e-06
2.22194e-06
3.02022e-06
1.84265e-06
1.84321e-06
3.02069e-06
3.64512e-06
2.2223e-06
2.22279e-06
3.02106e-06
1.84183e-06
1.66239e-06
2.29354e-06
1.54185e-06
2.5392e-06
1.54092e-06
2.53897e-06
1.66382e-06
2.82757e-06
1.41596e-06
1.96691e-06
1.96714e-06
1.96758e-06
1.96784e-06
2.82726e-06
2.82759e-06
1.41594e-06
1.96689e-06
1.96712e-06
2.82727e-06
1.9676e-06
1.96783e-06
2.82761e-06
1.41517e-06
1.96798e-06
1.96822e-06
2.82793e-06
1.96727e-06
1.9675e-06
1.6642e-06
2.53935e-06
1.54148e-06
2.29405e-06
2.53954e-06
1.54233e-06
1.66303e-06
1.84142e-06
2.22234e-06
3.6441e-06
3.02053e-06
3.0202e-06
2.22188e-06
1.8425e-06
1.84301e-06
3.02067e-06
3.64492e-06
2.22223e-06
3.02101e-06
2.2227e-06
1.84197e-06
1.66252e-06
2.29351e-06
2.53914e-06
1.54175e-06
2.53895e-06
1.5409e-06
1.66369e-06
1.66441e-06
2.53959e-06
1.54148e-06
2.29411e-06
2.53981e-06
1.5424e-06
1.66295e-06
1.84155e-06
2.22268e-06
3.6446e-06
3.02112e-06
3.02075e-06
2.22218e-06
1.84279e-06
1.84333e-06
3.02122e-06
3.64544e-06
2.22254e-06
3.0216e-06
1.84202e-06
2.22305e-06
1.66249e-06
2.29357e-06
2.53941e-06
1.54182e-06
2.5392e-06
1.5409e-06
1.66389e-06
1.66347e-06
2.53992e-06
1.54288e-06
2.29434e-06
1.66467e-06
2.53972e-06
1.54202e-06
1.84397e-06
2.22288e-06
3.64619e-06
3.02157e-06
2.22337e-06
3.02191e-06
1.84298e-06
1.8425e-06
3.02146e-06
2.22305e-06
3.64539e-06
2.22256e-06
1.8435e-06
3.02112e-06
1.66513e-06
2.29485e-06
2.54008e-06
1.54254e-06
2.54028e-06
1.5434e-06
1.66392e-06
1.66331e-06
2.54019e-06
1.54295e-06
2.29439e-06
1.66494e-06
2.53996e-06
1.54203e-06
1.84446e-06
2.22319e-06
3.64671e-06
3.02211e-06
3.02251e-06
2.22372e-06
1.84283e-06
1.84244e-06
3.02206e-06
2.22339e-06
3.64589e-06
1.84387e-06
3.02168e-06
2.22288e-06
1.66555e-06
2.2949e-06
2.54032e-06
1.54255e-06
2.54055e-06
1.54347e-06
1.66367e-06
2.82749e-06
1.41587e-06
1.967e-06
1.96689e-06
1.96759e-06
1.9677e-06
2.82716e-06
2.8275e-06
1.41515e-06
1.96809e-06
1.96798e-06
1.96738e-06
2.82783e-06
1.96728e-06
1.66441e-06
2.53964e-06
1.54161e-06
2.29421e-06
2.53983e-06
1.54245e-06
1.66314e-06
1.84162e-06
2.22276e-06
3.64481e-06
3.02114e-06
3.02078e-06
2.22226e-06
1.84274e-06
1.84326e-06
3.02126e-06
3.64568e-06
2.22263e-06
3.02162e-06
2.22312e-06
1.84216e-06
1.66258e-06
2.29366e-06
2.53943e-06
1.54187e-06
2.53922e-06
1.54102e-06
1.66391e-06
1.66428e-06
1.54155e-06
2.53942e-06
2.29412e-06
1.5424e-06
2.53962e-06
1.66303e-06
1.84148e-06
2.22264e-06
3.64463e-06
3.02065e-06
3.02031e-06
2.22215e-06
1.84258e-06
1.84309e-06
3.02078e-06
3.64552e-06
2.22251e-06
3.02113e-06
1.84202e-06
2.223e-06
1.66247e-06
2.29359e-06
1.54182e-06
2.53922e-06
1.54097e-06
2.53903e-06
1.66379e-06
1.66367e-06
2.54021e-06
1.543e-06
2.29449e-06
1.66488e-06
2.53999e-06
1.54215e-06
1.84421e-06
2.22327e-06
3.64695e-06
3.02215e-06
2.22379e-06
3.02252e-06
1.84321e-06
1.84269e-06
3.02208e-06
2.22346e-06
3.6461e-06
2.22296e-06
1.84375e-06
3.02171e-06
1.66531e-06
2.29501e-06
2.54037e-06
1.54268e-06
2.54057e-06
1.54352e-06
1.66411e-06
1.66356e-06
1.54295e-06
2.54e-06
2.29442e-06
1.66475e-06
1.5421e-06
2.5398e-06
1.84405e-06
2.22316e-06
3.64679e-06
3.02168e-06
3.02203e-06
2.22367e-06
1.84307e-06
1.84256e-06
3.02159e-06
2.22335e-06
3.64593e-06
1.84358e-06
3.02124e-06
2.22284e-06
1.66518e-06
2.29492e-06
1.54262e-06
2.54015e-06
1.54347e-06
2.54037e-06
1.66401e-06
1.66424e-06
1.54151e-06
2.53938e-06
2.2941e-06
1.54237e-06
2.53959e-06
1.66308e-06
1.84146e-06
2.22235e-06
3.64418e-06
3.02055e-06
2.22188e-06
3.0202e-06
1.84254e-06
1.84305e-06
3.02067e-06
3.64501e-06
2.22224e-06
2.22272e-06
3.02103e-06
1.842e-06
1.66255e-06
2.29351e-06
1.54179e-06
2.53919e-06
1.54094e-06
2.53898e-06
1.66373e-06
1.66321e-06
2.54015e-06
1.54301e-06
2.29441e-06
1.66511e-06
2.53991e-06
1.54204e-06
1.84451e-06
2.22289e-06
3.64639e-06
3.02192e-06
1.84279e-06
2.2234e-06
3.02234e-06
1.8423e-06
3.0219e-06
2.22308e-06
3.64554e-06
1.84389e-06
2.22257e-06
3.02149e-06
1.66573e-06
2.29497e-06
2.54027e-06
1.54256e-06
1.66372e-06
2.54051e-06
1.54354e-06
1.66352e-06
1.54291e-06
2.53997e-06
2.29434e-06
1.6647e-06
1.54206e-06
2.53975e-06
1.84401e-06
2.22289e-06
3.64628e-06
3.02157e-06
3.02193e-06
2.22338e-06
1.84303e-06
1.84253e-06
3.02149e-06
2.22306e-06
3.64548e-06
1.84354e-06
3.02113e-06
2.22257e-06
1.66514e-06
2.29489e-06
1.54258e-06
2.54011e-06
1.54344e-06
2.54033e-06
1.66398e-06
2.82762e-06
1.41594e-06
1.96705e-06
1.96697e-06
1.96766e-06
1.96775e-06
2.82731e-06
2.82765e-06
1.41522e-06
1.96813e-06
1.96805e-06
1.96743e-06
2.82796e-06
1.96736e-06
1.66439e-06
1.54157e-06
2.53958e-06
2.29416e-06
1.54243e-06
2.53979e-06
1.6631e-06
1.84164e-06
2.22277e-06
3.64481e-06
3.0211e-06
2.22229e-06
3.02073e-06
1.84274e-06
1.84326e-06
3.0212e-06
3.64565e-06
2.22265e-06
2.22314e-06
3.02158e-06
1.84218e-06
1.66256e-06
2.29361e-06
1.54185e-06
2.53939e-06
1.54099e-06
2.53918e-06
1.66389e-06
1.66316e-06
1.543e-06
2.53998e-06
2.29437e-06
1.66494e-06
1.54204e-06
2.53973e-06
1.84442e-06
2.22295e-06
3.6464e-06
3.02158e-06
1.84261e-06
2.22346e-06
3.02197e-06
1.84222e-06
3.02152e-06
2.22314e-06
3.64559e-06
1.84378e-06
2.22263e-06
3.02115e-06
1.6656e-06
2.29494e-06
1.54255e-06
2.54011e-06
1.66356e-06
1.54352e-06
2.54034e-06
1.66363e-06
1.54298e-06
2.54017e-06
2.29445e-06
1.66485e-06
1.54211e-06
2.53995e-06
1.84421e-06
2.2233e-06
3.64692e-06
3.0221e-06
3.02248e-06
2.22381e-06
1.8432e-06
1.84271e-06
3.02204e-06
2.22348e-06
3.6461e-06
1.84374e-06
3.02165e-06
2.22298e-06
1.66529e-06
2.29495e-06
1.54264e-06
2.54031e-06
1.5435e-06
2.54052e-06
1.66408e-06
2.82759e-06
1.41524e-06
1.96797e-06
1.96822e-06
2.82791e-06
1.96729e-06
1.96752e-06
1.84345e-06
2.22369e-06
3.02235e-06
3.6467e-06
2.22318e-06
1.84442e-06
3.02199e-06
1.66439e-06
2.29508e-06
1.54393e-06
2.54067e-06
1.54307e-06
1.66556e-06
2.54043e-06
2.22411e-06
3.64732e-06
2.22358e-06
3.23653e-07
8.68844e-07
8.68948e-07
1.15463e-06
3.39691e-07
8.92282e-07
8.9238e-07
1.1738e-06
3.55971e-07
9.14727e-07
9.14816e-07
1.19217e-06
3.72416e-07
9.36163e-07
9.36249e-07
1.20966e-06
3.88944e-07
9.56582e-07
9.56667e-07
1.22631e-06
4.05472e-07
9.76006e-07
9.76093e-07
1.24211e-06
4.21923e-07
9.94439e-07
9.94527e-07
1.25709e-06
4.38221e-07
1.01189e-06
1.01198e-06
1.27122e-06
4.54295e-07
1.02838e-06
1.02846e-06
1.28458e-06
4.70078e-07
1.04391e-06
1.04399e-06
1.29722e-06
4.8551e-07
1.05851e-06
1.0586e-06
1.30915e-06
5.0054e-07
1.07221e-06
1.07229e-06
1.32039e-06
5.15121e-07
1.08502e-06
1.08511e-06
1.33093e-06
5.2921e-07
1.09698e-06
1.09706e-06
1.34085e-06
5.42772e-07
1.10811e-06
1.10819e-06
1.35012e-06
5.55777e-07
1.11844e-06
1.11852e-06
1.35879e-06
5.68197e-07
1.128e-06
1.12807e-06
1.36686e-06
5.80013e-07
1.1368e-06
1.13687e-06
1.37436e-06
5.91211e-07
1.14487e-06
1.14494e-06
1.38129e-06
6.01781e-07
1.15223e-06
1.1523e-06
1.38766e-06
6.11715e-07
1.15891e-06
1.15898e-06
1.39351e-06
6.21008e-07
1.16493e-06
1.165e-06
1.39882e-06
6.29663e-07
1.17031e-06
1.17038e-06
1.40364e-06
6.3768e-07
1.17508e-06
1.17514e-06
1.40796e-06
6.45067e-07
1.17925e-06
1.17932e-06
1.41181e-06
1.1543e-06
1.168e-06
8.68987e-07
8.69018e-07
8.86635e-07
8.86684e-07
1.15391e-06
1.1681e-06
8.68868e-07
8.6906e-07
8.86549e-07
8.86716e-07
8.69062e-07
8.86513e-07
8.86735e-07
1.15453e-06
1.16794e-06
8.68957e-07
8.86611e-07
8.86623e-07
1.16798e-06
1.17354e-06
1.18669e-06
8.92402e-07
8.92449e-07
9.09328e-07
9.09373e-07
1.17332e-06
1.18666e-06
8.92322e-07
8.92479e-07
9.09239e-07
9.09397e-07
8.92502e-07
9.09207e-07
9.09433e-07
1.17372e-06
1.18653e-06
8.92391e-07
9.09299e-07
9.09319e-07
1.18657e-06
1.19184e-06
1.20441e-06
9.14844e-07
9.14885e-07
9.31017e-07
9.31054e-07
1.19174e-06
1.20434e-06
9.14761e-07
9.1491e-07
9.30926e-07
9.31077e-07
9.14949e-07
9.30897e-07
9.31118e-07
1.19205e-06
1.20423e-06
9.14836e-07
9.30983e-07
9.31009e-07
1.20427e-06
1.20934e-06
1.22125e-06
9.3628e-07
9.36315e-07
9.51696e-07
9.51723e-07
1.20927e-06
1.22115e-06
9.36196e-07
9.36339e-07
9.51603e-07
9.51748e-07
9.36382e-07
9.51572e-07
9.51792e-07
1.20954e-06
1.22104e-06
9.36274e-07
9.51657e-07
9.51686e-07
1.22112e-06
1.226e-06
1.23724e-06
9.56706e-07
9.5673e-07
9.71367e-07
9.71389e-07
1.22589e-06
1.23711e-06
9.56619e-07
9.56756e-07
9.71273e-07
9.71415e-07
9.56803e-07
9.71243e-07
9.71458e-07
1.22618e-06
1.23707e-06
9.56697e-07
9.7133e-07
9.71353e-07
1.23709e-06
1.2418e-06
1.25239e-06
9.76128e-07
9.76149e-07
9.90044e-07
9.90065e-07
1.2417e-06
1.25219e-06
9.76041e-07
9.76176e-07
9.89952e-07
9.9009e-07
9.76223e-07
9.89923e-07
9.90137e-07
1.24196e-06
1.25227e-06
9.76118e-07
9.90011e-07
9.90031e-07
1.25226e-06
1.25679e-06
1.26673e-06
9.94557e-07
9.94579e-07
1.00773e-06
1.00776e-06
1.25673e-06
1.26657e-06
9.94472e-07
9.94605e-07
1.00764e-06
1.00778e-06
9.94655e-07
1.00762e-06
1.00783e-06
1.25687e-06
1.26667e-06
9.9455e-07
1.00771e-06
1.00772e-06
1.26667e-06
1.27099e-06
1.2803e-06
1.012e-06
1.01203e-06
1.02445e-06
1.02448e-06
1.27095e-06
1.28015e-06
1.01192e-06
1.01205e-06
1.02436e-06
1.0245e-06
1.0121e-06
1.02434e-06
1.02454e-06
1.27103e-06
1.28026e-06
1.012e-06
1.02443e-06
1.02444e-06
1.28024e-06
1.28441e-06
1.29313e-06
1.02848e-06
1.02851e-06
1.04021e-06
1.04024e-06
1.28438e-06
1.29298e-06
1.0284e-06
1.02853e-06
1.04012e-06
1.04027e-06
1.02857e-06
1.04011e-06
1.0403e-06
1.28445e-06
1.29309e-06
1.02847e-06
1.0402e-06
1.04019e-06
1.29305e-06
1.29709e-06
1.30518e-06
1.04401e-06
1.04403e-06
1.05504e-06
1.05506e-06
1.29706e-06
1.30504e-06
1.04392e-06
1.04406e-06
1.05495e-06
1.0551e-06
1.0441e-06
1.05495e-06
1.05512e-06
1.29714e-06
1.30518e-06
1.04399e-06
1.05503e-06
1.05502e-06
1.30513e-06
1.30905e-06
1.31655e-06
1.0586e-06
1.05863e-06
1.06895e-06
1.06898e-06
1.30901e-06
1.31643e-06
1.05852e-06
1.05866e-06
1.06887e-06
1.06901e-06
1.05869e-06
1.06887e-06
1.06904e-06
1.30909e-06
1.31658e-06
1.05858e-06
1.06895e-06
1.06893e-06
1.31654e-06
1.32032e-06
1.32726e-06
1.07229e-06
1.07232e-06
1.08198e-06
1.08201e-06
1.32029e-06
1.32713e-06
1.07221e-06
1.07236e-06
1.0819e-06
1.08204e-06
1.07238e-06
1.0819e-06
1.08206e-06
1.32036e-06
1.32729e-06
1.07227e-06
1.08198e-06
1.08196e-06
1.32729e-06
1.33089e-06
1.33731e-06
1.0851e-06
1.08513e-06
1.09415e-06
1.09417e-06
1.33086e-06
1.33719e-06
1.08502e-06
1.08517e-06
1.09406e-06
1.09421e-06
1.08519e-06
1.09407e-06
1.09423e-06
1.33092e-06
1.33733e-06
1.08508e-06
1.09415e-06
1.09412e-06
1.33735e-06
1.34081e-06
1.34671e-06
1.09706e-06
1.09708e-06
1.10548e-06
1.10551e-06
1.34078e-06
1.34664e-06
1.09698e-06
1.09712e-06
1.10539e-06
1.10554e-06
1.09714e-06
1.1054e-06
1.10556e-06
1.34084e-06
1.34674e-06
1.09704e-06
1.10549e-06
1.10545e-06
1.34675e-06
1.35009e-06
1.35548e-06
1.10818e-06
1.10821e-06
1.116e-06
1.11603e-06
1.35003e-06
1.35543e-06
1.10811e-06
1.10825e-06
1.11592e-06
1.11607e-06
1.10827e-06
1.11593e-06
1.11608e-06
1.35013e-06
1.35553e-06
1.10816e-06
1.11601e-06
1.11598e-06
1.35553e-06
1.35877e-06
1.36367e-06
1.11851e-06
1.11854e-06
1.12574e-06
1.12578e-06
1.3587e-06
1.36362e-06
1.11843e-06
1.11858e-06
1.12566e-06
1.12581e-06
1.11859e-06
1.12568e-06
1.12582e-06
1.3588e-06
1.36372e-06
1.11849e-06
1.12575e-06
1.12572e-06
1.36372e-06
1.36684e-06
1.37126e-06
1.12806e-06
1.12809e-06
1.13473e-06
1.13476e-06
1.36678e-06
1.37123e-06
1.12798e-06
1.12813e-06
1.13464e-06
1.13479e-06
1.12814e-06
1.13467e-06
1.1348e-06
1.36687e-06
1.37132e-06
1.12803e-06
1.13474e-06
1.1347e-06
1.37133e-06
1.37434e-06
1.3783e-06
1.13686e-06
1.13689e-06
1.14298e-06
1.14301e-06
1.37428e-06
1.37827e-06
1.13678e-06
1.13692e-06
1.14289e-06
1.14304e-06
1.13694e-06
1.14292e-06
1.14305e-06
1.37436e-06
1.37835e-06
1.13683e-06
1.14298e-06
1.14294e-06
1.37836e-06
1.38127e-06
1.38478e-06
1.14493e-06
1.14496e-06
1.15051e-06
1.15055e-06
1.38121e-06
1.38475e-06
1.14485e-06
1.14499e-06
1.15043e-06
1.15057e-06
1.145e-06
1.15045e-06
1.15059e-06
1.38129e-06
1.38483e-06
1.1449e-06
1.15052e-06
1.15048e-06
1.38484e-06
1.38765e-06
1.39073e-06
1.15229e-06
1.15232e-06
1.15736e-06
1.15739e-06
1.38758e-06
1.39069e-06
1.15221e-06
1.15235e-06
1.15727e-06
1.15742e-06
1.15236e-06
1.1573e-06
1.15743e-06
1.38766e-06
1.39077e-06
1.15226e-06
1.15737e-06
1.15733e-06
1.39078e-06
1.39348e-06
1.39615e-06
1.15897e-06
1.159e-06
1.16355e-06
1.16358e-06
1.39342e-06
1.39611e-06
1.15889e-06
1.15903e-06
1.16345e-06
1.1636e-06
1.15904e-06
1.16348e-06
1.16361e-06
1.3935e-06
1.39619e-06
1.15894e-06
1.16355e-06
1.16352e-06
1.39621e-06
1.39879e-06
1.40108e-06
1.16499e-06
1.16502e-06
1.16909e-06
1.16912e-06
1.39874e-06
1.40103e-06
1.1649e-06
1.16505e-06
1.16899e-06
1.16914e-06
1.16506e-06
1.16902e-06
1.16915e-06
1.39882e-06
1.40109e-06
1.16497e-06
1.16909e-06
1.16906e-06
1.40113e-06
1.4036e-06
1.40549e-06
1.17038e-06
1.17041e-06
1.174e-06
1.17403e-06
1.40355e-06
1.40545e-06
1.17029e-06
1.17043e-06
1.17391e-06
1.17405e-06
1.17044e-06
1.17394e-06
1.17407e-06
1.40364e-06
1.40552e-06
1.17035e-06
1.174e-06
1.17398e-06
1.40555e-06
1.40792e-06
1.4094e-06
1.17514e-06
1.17517e-06
1.17832e-06
1.17835e-06
1.40787e-06
1.40939e-06
1.17505e-06
1.17519e-06
1.17823e-06
1.17837e-06
1.17521e-06
1.17825e-06
1.17839e-06
1.40794e-06
1.40946e-06
1.17512e-06
1.17832e-06
1.1783e-06
1.40949e-06
1.41178e-06
1.41287e-06
1.17932e-06
1.17935e-06
1.18206e-06
1.18209e-06
1.41172e-06
1.41285e-06
1.17923e-06
1.17937e-06
1.18197e-06
1.18211e-06
1.17938e-06
1.18199e-06
1.18213e-06
1.41178e-06
1.41293e-06
1.17929e-06
1.18206e-06
1.18204e-06
1.41295e-06
4.09767e-06
9.16222e-06
9.16922e-06
4.09534e-06
1.84293e-05
1.84398e-05
4.09768e-06
9.16398e-06
9.17112e-06
4.09561e-06
3.23644e-07
3.23727e-07
3.23722e-07
3.35655e-07
3.35646e-07
3.35727e-07
3.35729e-07
2.11423e-06
3.47714e-06
5.64095e-07
8.74795e-07
3.48052e-06
5.69961e-07
2.1097e-06
1.84301e-05
1.84407e-05
2.11422e-06
5.64201e-07
3.47745e-06
8.74898e-07
5.70073e-07
3.4804e-06
2.10974e-06
5.4641e-06
5.46617e-06
1.15823e-06
5.46682e-06
5.46838e-06
4.10523e-06
9.17826e-06
4.1029e-06
9.18537e-06
1.84516e-05
1.84625e-05
4.10523e-06
9.18035e-06
4.10317e-06
9.18752e-06
3.39681e-07
3.39762e-07
3.39765e-07
3.51882e-07
3.51873e-07
3.51954e-07
3.5196e-07
2.12806e-06
3.48815e-06
5.87434e-07
8.97987e-07
2.12376e-06
3.4913e-06
5.9323e-07
1.84524e-05
1.84633e-05
2.12804e-06
5.87538e-07
3.48842e-06
8.98082e-07
2.12379e-06
5.93333e-07
3.49103e-06
5.47327e-06
5.47536e-06
1.17733e-06
5.47603e-06
5.47793e-06
4.1127e-06
9.19466e-06
4.11044e-06
9.20184e-06
1.84747e-05
1.84859e-05
4.11267e-06
9.19682e-06
4.11084e-06
9.204e-06
3.55961e-07
3.56043e-07
3.5605e-07
3.68293e-07
3.68283e-07
3.68365e-07
3.68375e-07
2.14118e-06
3.4987e-06
6.10444e-07
9.20181e-07
2.13711e-06
3.5018e-06
6.1614e-07
1.84755e-05
1.84868e-05
2.14113e-06
6.10541e-07
3.49905e-06
9.20267e-07
2.13711e-06
6.16236e-07
3.50159e-06
5.48237e-06
5.48457e-06
1.19548e-06
5.48509e-06
5.48684e-06
4.1201e-06
9.21122e-06
4.11773e-06
9.21844e-06
1.84985e-05