/*--------------------------------*- C++ -*----------------------------------*\
| =========                 |                                                 |
| \\      /  F ield         | OpenFOAM: The Open Source CFD Toolbox           |
|  \\    /   O peration     | Version:  v1906                                 |
|   \\  /    A nd           | Web:      www.OpenFOAM.com                      |
|    \\/     M anipulation  |                                                 |
\*---------------------------------------------------------------------------*/
FoamFile
{
    version     2.0;
    format      ascii;
    class       volScalarField;
    location    "900";
    object      nut;
}
// * * * * * * * * * * * * * * * * * * * * * * * * * * * * * * * * * * * * * //

dimensions      [0 2 -1 0 0 0 0];


internalField   nonuniform List<scalar> 
42840
(
0.000203424
0.000198751
0.000198742
0.000180673
0.000181641
0.000180599
0.000181541
0.000198718
0.00019872
0.000199776
0.000199777
0.000180686
0.000181477
0.000198732
0.000198708
0.00019979
0.000199765
0.000198727
0.000199809
0.000199784
0.000180672
0.000181464
0.000198741
0.0001998
0.000199799
0.000181475
0.000200128
0.000200143
9.9714e-05
5.07154e-05
5.07219e-05
9.96511e-05
2.38792e-05
2.38836e-05
9.97229e-05
5.07124e-05
5.07188e-05
9.96624e-05
0.000203433
0.000203431
0.00020344
0.000205315
0.000205324
0.000205322
0.000205331
0.000143714
0.000103351
0.000207735
0.000199107
0.000103438
0.000208202
0.000143499
2.3877e-05
2.38814e-05
0.000143706
0.000207732
0.000103353
0.000199098
0.000208199
0.000103439
0.000143492
7.7813e-05
7.78115e-05
0.000180991
7.78377e-05
7.7837e-05
7.78757e-05
7.78742e-05
2.38799e-05
2.38842e-05
2.38786e-05
2.38829e-05
7.7815e-05
7.7811e-05
0.000181063
7.78415e-05
7.78359e-05
2.38889e-05
2.38845e-05
2.38875e-05
2.38832e-05
0.000181073
7.78728e-05
7.78672e-05
7.78464e-05
7.78434e-05
9.97199e-05
5.07158e-05
5.07222e-05
9.96514e-05
0.000143696
0.000103353
0.00020772
0.000199075
0.000103437
0.000208187
0.000143503
0.000143707
0.00010335
0.000207722
0.000199077
0.000103436
0.00020819
0.000143496
9.97134e-05
5.07328e-05
5.07256e-05
9.97735e-05
9.97137e-05
5.07325e-05
5.07262e-05
9.97783e-05
0.000143719
0.000199428
0.000103516
0.000209105
0.000103435
0.000208651
0.000143903
0.000143711
0.000199431
0.000103515
0.000209108
0.000103432
0.000208654
0.000143906
7.78111e-05
7.78057e-05
0.000181002
7.78372e-05
7.78356e-05
2.38797e-05
2.38842e-05
2.38882e-05
2.38839e-05
0.00018116
7.78683e-05
7.78663e-05
7.78427e-05
7.78381e-05
2.38888e-05
2.38843e-05
0.000143701
0.000103343
0.000207723
0.000199088
0.00010343
0.000208186
0.000143508
9.97188e-05
5.07082e-05
5.07146e-05
9.96582e-05
0.000143697
0.000207718
0.000103332
0.000199065
0.000208185
0.000103416
0.000143504
9.97244e-05
5.07298e-05
5.07226e-05
9.97825e-05
0.000143725
0.000199443
0.000103508
0.000209105
0.000103426
0.000208655
0.000143908
9.97203e-05
5.07249e-05
5.07186e-05
9.97785e-05
0.000143721
0.000199419
0.000209104
0.000103495
0.00020865
0.000103414
0.000143904
9.97213e-05
5.07125e-05
5.07238e-05
9.96525e-05
0.000143703
0.000207732
0.000103351
0.000199084
0.000208199
0.000103435
0.000143505
9.97183e-05
5.07115e-05
5.07179e-05
9.96496e-05
0.000143716
0.000199462
0.000103516
0.000209121
0.000103433
0.000208666
0.000143921
9.97148e-05
5.07334e-05
5.0723e-05
9.97812e-05
0.000143722
0.000199438
0.000209118
0.000103514
0.000208663
0.000103433
0.000143909
9.9712e-05
5.07282e-05
5.07218e-05
9.97776e-05
7.77958e-05
7.78133e-05
0.000180988
7.78214e-05
7.78406e-05
2.3879e-05
2.38833e-05
2.3886e-05
2.38817e-05
0.000181146
7.7852e-05
7.78715e-05
7.78282e-05
7.78454e-05
2.38879e-05
2.38836e-05
0.0001437
0.000207733
0.00010335
0.000199098
0.000208199
0.000103434
0.000143505
9.97162e-05
5.07114e-05
5.07179e-05
9.96481e-05
9.97197e-05
5.07117e-05
5.07182e-05
9.9658e-05
0.000143709
0.000199453
0.000209118
0.000103517
0.000208663
0.000103435
0.000143914
0.000143722
0.000199452
0.000209118
0.000103513
0.000208664
0.000103432
0.000143907
9.97105e-05
5.07282e-05
5.07217e-05
9.97757e-05
9.97202e-05
5.07291e-05
5.0722e-05
9.97793e-05
2.38787e-05
2.3883e-05
2.38783e-05
2.38826e-05
0.000181147
7.78689e-05
7.78681e-05
7.78453e-05
7.7844e-05
2.38876e-05
2.38834e-05
2.38872e-05
2.3883e-05
0.00020957
0.000103511
0.000143931
5.07321e-05
9.97739e-05
0.00010351
5.07297e-05
2.3888e-05
2.38875e-05
3.66931e-05
4.10402e-05
9.43506e-05
9.96827e-05
4.10338e-05
9.43242e-05
3.67002e-05
2.03078e-05
5.07168e-05
7.89838e-05
7.89942e-05
2.03057e-05
2.03076e-05
7.90062e-05
5.07205e-05
7.8996e-05
2.03097e-05
3.66964e-05
9.96834e-05
4.10298e-05
9.42993e-05
4.10358e-05
9.43265e-05
3.66893e-05
2.38812e-05
2.38816e-05
3.6699e-05
9.43642e-05
4.1037e-05
9.96939e-05
9.434e-05
4.1037e-05
3.6698e-05
2.0309e-05
5.07136e-05
7.90016e-05
7.90197e-05
2.03069e-05
2.03088e-05
7.90317e-05
5.07175e-05
7.90138e-05
2.03109e-05
3.66943e-05
9.96926e-05
9.43155e-05
4.10325e-05
9.43406e-05
4.10329e-05
3.66954e-05
2.3879e-05
2.38794e-05
8.1446e-05
2.17029e-05
2.16999e-05
2.17009e-05
2.16979e-05
8.1452e-05
0.000105057
0.000128364
7.78215e-05
4.86298e-05
0.000128425
4.86296e-05
0.000105037
0.000105065
0.000128347
7.78204e-05
4.86204e-05
0.000128411
4.86202e-05
0.000105045
0.000105069
4.86344e-05
7.78294e-05
0.000128498
0.000128438
4.86345e-05
0.00010509
0.000105078
4.8625e-05
7.7828e-05
0.000128484
0.000128421
4.8625e-05
0.000105098
8.14416e-05
2.1699e-05
2.1696e-05
2.1701e-05
2.1698e-05
8.14357e-05
0.000105185
0.000128652
4.86491e-05
7.78834e-05
0.000105163
0.000128708
4.86478e-05
0.000105192
0.000128634
4.86396e-05
7.78828e-05
0.000105171
0.000128693
4.86384e-05
8.14818e-05
2.17065e-05
2.17035e-05
8.14754e-05
2.17085e-05
2.17055e-05
2.38819e-05
2.38822e-05
2.38806e-05
2.38809e-05
8.14451e-05
2.17029e-05
2.16996e-05
2.17009e-05
2.16976e-05
8.14514e-05
0.000105061
0.000128363
7.78248e-05
4.86304e-05
4.86306e-05
0.000128428
0.000105039
0.000105062
0.000128345
7.78196e-05
4.86189e-05
4.86188e-05
0.000128409
0.000105043
0.000105072
4.86371e-05
7.78305e-05
0.000128502
4.86327e-05
0.000105094
0.000128437
0.000105075
4.86236e-05
7.78275e-05
0.000128482
4.86236e-05
0.000105095
0.000128419
8.1441e-05
2.1699e-05
2.16957e-05
2.1701e-05
2.16977e-05
8.14348e-05
2.38868e-05
2.38865e-05
2.38855e-05
2.38852e-05
8.14617e-05
2.17028e-05
2.16995e-05
8.14552e-05
2.17048e-05
2.17015e-05
0.000105135
0.000128642
7.78617e-05
4.86481e-05
4.86407e-05
0.000128581
0.000105157
0.000105139
0.000128623
7.78588e-05
4.86331e-05
4.86334e-05
0.000128562
0.000105158
0.000105125
4.86363e-05
0.00012851
7.7857e-05
0.000105104
4.86428e-05
0.000128573
0.000105126
4.86285e-05
0.000128491
7.7852e-05
0.000105107
4.86288e-05
0.000128553
8.14651e-05
2.17066e-05
2.17033e-05
2.17046e-05
2.17014e-05
8.14716e-05
3.6699e-05
4.10374e-05
9.4368e-05
9.96825e-05
4.10374e-05
9.43343e-05
3.66981e-05
2.03087e-05
5.07171e-05
7.90028e-05
7.9022e-05
2.03066e-05
2.03086e-05
7.9034e-05
5.07209e-05
7.9015e-05
2.03106e-05
3.66944e-05
9.9689e-05
4.10329e-05
9.43102e-05
4.10333e-05
9.43437e-05
3.66954e-05
3.6704e-05
4.10384e-05
9.43484e-05
9.97445e-05
3.6697e-05
4.10444e-05
9.43749e-05
2.03114e-05
5.07307e-05
7.90294e-05
2.03135e-05
7.90195e-05
2.03116e-05
7.90079e-05
5.07275e-05
2.03095e-05
7.90182e-05
3.67004e-05
9.97434e-05
4.10486e-05
9.43978e-05
3.67075e-05
4.10425e-05
9.4372e-05
3.67017e-05
4.10414e-05
9.43591e-05
9.975e-05
3.67025e-05
4.10418e-05
9.43923e-05
2.03124e-05
5.07314e-05
7.90572e-05
7.90387e-05
2.03144e-05
2.03125e-05
7.9027e-05
5.07277e-05
2.03105e-05
7.90458e-05
3.67065e-05
9.97448e-05
4.10458e-05
9.44154e-05
4.10457e-05
9.43829e-05
3.67056e-05
8.14453e-05
2.17003e-05
2.17029e-05
2.16983e-05
2.17009e-05
8.14516e-05
0.000105065
0.000128347
7.78207e-05
4.86208e-05
4.86208e-05
0.000128407
0.000105046
0.000105063
0.000128372
7.78193e-05
4.86255e-05
0.000128427
4.86329e-05
0.00010504
0.000105078
4.86258e-05
7.78268e-05
0.00012848
4.86252e-05
0.000128421
0.000105097
0.000105072
4.86377e-05
7.78223e-05
0.000128501
0.000128446
4.86305e-05
0.000105095
8.14411e-05
2.16964e-05
2.1699e-05
2.16984e-05
2.1701e-05
8.14349e-05
2.38819e-05
2.3882e-05
2.38862e-05
2.38859e-05
8.14619e-05
2.17002e-05
2.17028e-05
8.14553e-05
2.17022e-05
2.17048e-05
0.00010514
0.000128621
7.78581e-05
4.86381e-05
0.000128564
4.86312e-05
0.000105161
0.000105136
0.000128642
7.78535e-05
4.86469e-05
4.86396e-05
0.000128589
0.000105158
0.00010513
4.86297e-05
0.000128493
7.78531e-05
0.000128551
0.00010511
4.86321e-05
0.000105128
4.86352e-05
0.000128518
7.78508e-05
0.000105105
4.86421e-05
0.000128571
8.14652e-05
2.17041e-05
2.17066e-05
2.1702e-05
2.17046e-05
8.14718e-05
2.38867e-05
2.38865e-05
3.66965e-05
4.10368e-05
9.43475e-05
9.96897e-05
4.10368e-05
9.43217e-05
3.66953e-05
2.03073e-05
5.07095e-05
7.89781e-05
7.89889e-05
2.03052e-05
2.03071e-05
7.90011e-05
5.07133e-05
7.89902e-05
2.03092e-05
3.66917e-05
9.96882e-05
4.10323e-05
9.42967e-05
4.10327e-05
9.43233e-05
3.66928e-05
3.67017e-05
9.43642e-05
4.1041e-05
9.97538e-05
3.67025e-05
9.43889e-05
4.10414e-05
2.03126e-05
5.07276e-05
7.90552e-05
2.03147e-05
7.90372e-05
2.03128e-05
7.90258e-05
5.07244e-05
2.03107e-05
7.90436e-05
3.67065e-05
9.97545e-05
9.44119e-05
4.10456e-05
3.67055e-05
9.4388e-05
4.10454e-05
3.6699e-05
4.10408e-05
9.43459e-05
9.97495e-05
3.67e-05
4.10412e-05
9.43719e-05
2.03109e-05
5.07238e-05
7.90245e-05
7.90136e-05
2.0313e-05
2.03111e-05
7.90022e-05
5.07201e-05
2.0309e-05
7.9013e-05
3.6704e-05
9.97504e-05
4.10453e-05
9.43951e-05
4.10452e-05
9.43699e-05
3.67028e-05
3.66956e-05
9.43705e-05
4.10399e-05
9.96836e-05
9.43361e-05
4.10335e-05
3.67026e-05
2.03095e-05
5.07186e-05
7.9004e-05
7.90235e-05
2.03074e-05
2.03093e-05
7.90355e-05
5.07178e-05
7.90163e-05
2.03114e-05
3.66988e-05
9.96903e-05
9.4312e-05
4.10295e-05
9.43462e-05
4.10355e-05
3.66917e-05
3.66974e-05
4.10398e-05
9.43556e-05
9.96808e-05
4.10334e-05
9.4331e-05
3.66965e-05
2.03082e-05
5.07128e-05
7.89839e-05
7.90027e-05
2.03062e-05
2.03081e-05
7.90147e-05
5.07165e-05
7.89961e-05
2.03101e-05
3.66928e-05
9.96873e-05
4.10294e-05
9.43062e-05
4.10354e-05
9.43315e-05
3.66938e-05
3.67063e-05
9.4361e-05
4.10381e-05
9.97516e-05
3.66995e-05
9.43947e-05
4.10441e-05
2.03131e-05
5.07281e-05
7.90586e-05
7.90399e-05
2.03152e-05
2.03133e-05
7.90282e-05
5.07285e-05
2.03112e-05
7.90472e-05
3.6703e-05
9.97451e-05
9.44185e-05
4.10486e-05
9.43849e-05
4.10424e-05
3.67099e-05
3.67001e-05
4.1038e-05
9.43551e-05
9.97486e-05
3.67009e-05
4.1044e-05
9.438e-05
2.03119e-05
5.0727e-05
7.90379e-05
7.90198e-05
2.03139e-05
2.0312e-05
7.90081e-05
5.07234e-05
2.031e-05
7.90265e-05
3.67049e-05
9.97427e-05
4.10484e-05
9.44032e-05
4.10423e-05
9.4379e-05
3.67039e-05
8.1445e-05
2.16992e-05
2.17027e-05
2.16972e-05
2.17007e-05
8.1452e-05
0.000105057
0.000128339
7.78051e-05
4.86182e-05
4.8618e-05
0.000128392
0.000105036
0.000105058
0.000128365
7.7824e-05
4.86302e-05
0.000128429
4.86304e-05
0.000105038
0.000105069
4.86228e-05
7.78123e-05
0.000128465
4.86229e-05
0.000128413
0.000105089
0.000105071
4.86365e-05
7.78295e-05
0.000128502
0.000128439
4.86332e-05
0.000105091
8.14416e-05
2.16953e-05
2.16988e-05
2.16974e-05
2.17008e-05
8.14345e-05
2.3881e-05
2.38813e-05
2.3884e-05
2.38837e-05
8.1462e-05
2.16991e-05
2.17026e-05
8.14552e-05
2.17011e-05
2.17046e-05
0.000105133
0.000128606
7.78438e-05
4.86323e-05
0.000128556
4.86327e-05
0.000105152
0.000105134
0.000128644
7.78609e-05
4.86478e-05
4.86404e-05
0.000128583
0.000105154
0.000105121
4.86278e-05
0.000128485
7.78372e-05
0.000128536
0.000105101
4.8628e-05
0.000105122
4.86367e-05
0.000128512
7.7856e-05
0.000105103
4.86426e-05
0.000128573
8.14651e-05
2.1703e-05
2.17065e-05
2.1701e-05
2.17044e-05
8.14719e-05
2.38859e-05
2.38856e-05
3.66934e-05
9.43546e-05
4.10399e-05
9.96793e-05
9.43204e-05
4.10334e-05
3.67006e-05
2.03084e-05
5.07127e-05
7.89838e-05
7.90027e-05
2.03064e-05
2.03083e-05
7.90148e-05
5.07165e-05
7.8996e-05
2.03104e-05
3.66968e-05
9.96854e-05
9.42961e-05
4.10294e-05
9.43305e-05
4.10355e-05
3.66895e-05
3.66952e-05
9.43577e-05
4.10403e-05
9.96895e-05
9.4331e-05
4.10339e-05
3.67024e-05
2.03089e-05
5.07131e-05
7.89985e-05
7.9009e-05
2.03068e-05
2.03087e-05
7.9021e-05
5.07168e-05
7.90107e-05
2.03108e-05
3.66985e-05
9.9689e-05
9.43061e-05
4.10299e-05
9.43336e-05
4.10359e-05
3.66914e-05
3.67044e-05
9.43453e-05
4.10379e-05
9.97467e-05
3.66973e-05
9.43793e-05
4.10442e-05
2.03121e-05
5.07269e-05
7.9038e-05
7.90196e-05
2.03141e-05
2.03123e-05
7.9008e-05
5.07233e-05
2.03102e-05
7.90266e-05
3.67008e-05
9.97405e-05
9.44021e-05
4.10484e-05
9.4369e-05
4.1042e-05
3.6708e-05
3.67062e-05
9.43553e-05
4.10384e-05
9.97503e-05
3.66991e-05
9.43821e-05
4.10446e-05
2.03125e-05
5.07271e-05
7.90443e-05
7.90342e-05
2.03146e-05
2.03127e-05
7.90226e-05
5.07239e-05
2.03106e-05
7.90331e-05
3.67025e-05
9.97501e-05
9.44051e-05
4.10488e-05
9.4379e-05
4.10425e-05
3.67097e-05
2.38807e-05
2.3881e-05
2.38803e-05
2.38806e-05
8.14621e-05
2.17028e-05
2.16998e-05
8.1456e-05
2.17048e-05
2.17018e-05
0.000105133
0.000128639
7.78608e-05
4.86442e-05
0.000105152
0.000128582
4.86442e-05
0.000105141
0.000128625
7.78594e-05
4.86348e-05
0.00010516
0.000128565
4.86347e-05
0.000105121
4.86393e-05
0.000128511
7.78538e-05
0.000105101
0.00012857
4.86397e-05
0.000105129
4.86298e-05
0.000128493
7.78526e-05
0.00010511
0.000128555
4.86303e-05
8.14659e-05
2.17066e-05
2.17036e-05
8.14722e-05
2.17046e-05
2.17016e-05
2.38857e-05
2.38853e-05
2.38852e-05
2.38849e-05
2.03158e-05
7.90311e-05
5.07328e-05
2.03138e-05
7.90488e-05
3.67085e-05
9.98034e-05
4.10461e-05
9.44027e-05
3.67086e-05
4.1053e-05
9.44251e-05
5.07359e-05
2.38899e-05
2.38895e-05
0.000199187
0.000199186
0.00020406
0.000199996
0.000199995
0.000189286
0.000188264
0.000137901
0.000160915
0.0001609
0.00018075
0.000160966
0.000160955
0.000137861
0.00013824
0.000161548
0.000161533
0.000181684
0.000138202
0.000161588
0.000161571
0.000137902
0.000160895
0.000160883
0.000180824
0.000160984
0.000160972
0.000137858
0.000138118
0.000181319
0.000161458
0.000161443
0.000161372
0.000161363
0.00013816
0.000137904
0.000160902
0.00016092
0.000180763
0.000160976
0.000160958
0.000137867
0.000138125
0.000181407
0.00016143
0.000161451
0.000161373
0.000161394
0.00013816
0.000137896
0.000160898
0.000160912
0.000180749
0.000160965
0.000160952
0.000137856
0.000138115
0.000181393
0.00016142
0.000161447
0.000161363
0.000161391
0.000138151
0.00013812
0.000181395
0.000161449
0.000161433
0.000138158
0.000161392
0.000161373
0.00019919
0.000199196
0.000204069
0.000199999
0.000200005
0.00018929
0.000188267
0.000199194
0.0001992
0.000204067
0.000200003
0.00020001
0.000189296
0.000188273
0.000199204
0.000199202
0.000204076
0.000200013
0.000200012
0.0001893
0.000188277
0.000204692
0.0002016
0.000201598
0.000200802
0.000200801
0.000190308
0.000191326
0.000204701
0.000201603
0.000201609
0.000200805
0.000200811
0.000190311
0.000191329
0.000204699
0.000201606
0.000201613
0.000200809
0.000200815
0.000190317
0.000191335
0.000204708
0.000201616
0.000201615
0.000200819
0.000200818
0.000190321
0.000191339
0.000170419
0.000137233
0.000175655
0.000143609
0.000137136
0.00017552
0.000170556
0.000159997
0.000146885
0.000103397
0.000122356
0.000146962
0.000122426
0.000159863
0.000160019
0.000122492
0.000103393
0.000147085
0.000147011
0.000122423
0.00016016
0.000170341
0.000143606
0.000137044
0.000175289
0.000137141
0.000175425
0.00017022
0.000170416
0.000175649
0.000137221
0.000143601
0.000175516
0.000137124
0.000170541
0.00015999
0.000146881
0.000103398
0.000122349
0.000146958
0.000122419
0.000159858
0.000160015
0.000122485
0.000103395
0.000147081
0.000147007
0.000122415
0.000160153
0.000170328
0.000143599
0.000175287
0.000137032
0.000175419
0.000137129
0.000170215
0.000137949
0.000180913
0.000161127
0.000161118
0.000161077
0.00016106
0.000137988
0.000137947
0.000180842
0.000161142
0.000161136
0.000137989
0.000161057
0.00016104
0.000138075
0.000181295
0.000161213
0.000161197
0.000138033
0.000161297
0.000161287
0.000170429
0.000137206
0.000175584
0.000143613
0.000137133
0.000175568
0.000170477
0.000159932
0.000146893
0.000103396
0.000122348
0.000122407
0.00014693
0.000159896
0.000160053
0.000122473
0.000103395
0.000147055
0.000122414
0.000147018
0.000160088
0.000170276
0.000143589
0.00013704
0.000175333
0.000137115
0.00017536
0.000170229
0.000170415
0.000137225
0.000175636
0.000143604
0.000137127
0.000175513
0.000170527
0.000159976
0.000146864
0.000103395
0.000122348
0.000122417
0.000146941
0.000159847
0.000160006
0.000122483
0.000103391
0.000147064
0.000122414
0.000160137
0.00014699
0.000170319
0.000143599
0.000137036
0.000175288
0.000137132
0.000175411
0.000170213
0.000170686
0.000137224
0.000175782
0.000143802
0.000170631
0.000137298
0.000175798
0.00016037
0.000147295
0.000103475
0.000122602
0.000147261
0.000122545
0.000160398
0.000160239
0.00012248
0.000147138
0.000103477
0.000147177
0.000160213
0.000122539
0.000170827
0.000143823
0.000137386
0.000176005
0.000137314
0.000175998
0.000170883
0.000170736
0.00013722
0.000175723
0.00014381
0.000170608
0.000137316
0.000175829
0.000160308
0.000147305
0.000103471
0.000122613
0.000122545
0.000147233
0.000160466
0.000160303
0.000122481
0.000147111
0.000103476
0.000160163
0.000122548
0.000147183
0.000170788
0.000143823
0.000137404
0.000176024
0.00013731
0.000175966
0.00017094
0.000137954
0.000180924
0.000161121
0.000161138
0.000161081
0.000161062
0.000137992
0.000138077
0.000181246
0.000161217
0.000161236
0.000161279
0.000138041
0.000161297
0.000170432
0.000137215
0.00017559
0.000143618
0.000137141
0.000175576
0.0001705
0.000159931
0.000146863
0.000103389
0.000122351
0.000122411
0.000146938
0.000159892
0.00016005
0.000122477
0.000103385
0.000147061
0.000122418
0.000146989
0.000160089
0.000170305
0.000143595
0.000137048
0.000175341
0.000137124
0.000175363
0.000170228
0.000170424
0.000175586
0.000137202
0.000143614
0.000175572
0.000137128
0.000170491
0.000159917
0.000146868
0.000103375
0.000122333
0.000122397
0.000146903
0.00015988
0.000160038
0.000122463
0.000103373
0.000147029
0.000122401
0.000160074
0.000146993
0.000170296
0.00014359
0.000175338
0.000137034
0.000175359
0.00013711
0.00017022
0.000170695
0.000137234
0.000175788
0.000143808
0.000170633
0.000137308
0.000175804
0.000160368
0.000147302
0.000103465
0.000122607
0.000147231
0.000122549
0.000160395
0.000160239
0.000122484
0.000147109
0.00010347
0.00014718
0.000160209
0.000122543
0.000170832
0.000143829
0.000137395
0.000176009
0.000137323
0.000176004
0.000170893
0.000170686
0.000175785
0.00013722
0.000143803
0.000170625
0.0001758
0.000137294
0.000160356
0.000147268
0.000103454
0.000122592
0.000122531
0.000147238
0.00016038
0.000160225
0.000122465
0.000147113
0.000103456
0.000160198
0.000122529
0.00014715
0.000170824
0.000143825
0.000176006
0.000137382
0.000176
0.00013731
0.000170881
0.000170441
0.000175591
0.000137212
0.000143615
0.000175573
0.000137138
0.000170482
0.000159939
0.000146895
0.000103395
0.000122349
0.000146932
0.000122413
0.000159903
0.000160059
0.000122479
0.000103393
0.000147057
0.000147019
0.000122417
0.000160094
0.000170285
0.000143595
0.000175339
0.000137046
0.00017537
0.000137121
0.000170241
0.000170764
0.000137229
0.000175733
0.000143819
0.000170604
0.000137324
0.000175868
0.000160315
0.000147326
0.000103473
0.000122621
0.00016048
0.000147254
0.000122554
0.000160326
0.000122489
0.000147132
0.000103477
0.000160172
0.000147204
0.000122557
0.000170781
0.000143821
0.000137414
0.000176084
0.000170951
0.000137319
0.00017595
0.000170691
0.000175788
0.00013723
0.000143808
0.000170642
0.000175808
0.000137304
0.000160376
0.000147296
0.000103472
0.000122607
0.000122548
0.000147263
0.000160399
0.000160244
0.000122482
0.00014714
0.000103475
0.000160219
0.000122544
0.000147179
0.000170841
0.000143826
0.000176016
0.000137392
0.000176003
0.00013732
0.000170888
0.000137944
0.00018091
0.000161106
0.000161124
0.000161072
0.000161049
0.000137983
0.000138069
0.000181232
0.000161207
0.000161233
0.000161267
0.00013803
0.000161288
0.000170433
0.000175592
0.000137212
0.000143616
0.000175563
0.000137138
0.000170506
0.000159933
0.000146886
0.000103393
0.000122349
0.000146923
0.00012241
0.000159896
0.000160054
0.000122477
0.000103392
0.000147048
0.000147011
0.000122416
0.000160091
0.000170309
0.000143593
0.000175328
0.000137045
0.000175373
0.000137121
0.000170229
0.000170753
0.000175729
0.000137217
0.000143812
0.000170604
0.000175863
0.000137313
0.00016031
0.000147322
0.000103475
0.000122614
0.000160484
0.00014725
0.000122546
0.00016032
0.000122481
0.000147128
0.000103478
0.000160168
0.0001472
0.00012255
0.000170778
0.000143814
0.000176079
0.000137401
0.000170953
0.000175946
0.000137307
0.0001707
0.000175782
0.00013723
0.000143806
0.000170634
0.000175809
0.000137304
0.000160372
0.000147288
0.000103471
0.000122606
0.000122546
0.000147255
0.000160399
0.000160241
0.000122482
0.000147131
0.000103474
0.000160214
0.000122542
0.00014717
0.000170833
0.000143827
0.000176017
0.000137392
0.000175999
0.00013732
0.000170895
0.000138074
0.000181238
0.000161236
0.000161215
0.000138035
0.00016129
0.000161277
0.000160548
0.000147382
0.000122611
0.000103552
0.000147422
0.000160536
0.000122667
0.000171077
0.000144009
0.000176228
0.00013741
0.000176222
0.000171031
0.000137477
0.000147373
0.000103551
0.000147416
0.000123042
0.000139424
0.000139426
0.000137124
0.00012584
0.000142549
0.00014255
0.000139553
0.000128797
0.000145637
0.000145637
0.000141945
0.000131893
0.000148681
0.000148682
0.000144271
0.000135106
0.000151675
0.000151676
0.000146534
0.000138415
0.000154614
0.000154615
0.000148743
0.000141803
0.000157492
0.000157493
0.000150934
0.00014525
0.00016031
0.00016031
0.000153016
0.00014874
0.000163063
0.000163062
0.000155062
0.000152258
0.00016575
0.000165748
0.000157041
0.00015579
0.000168369
0.000168367
0.000158977
0.000159322
0.000170919
0.000170916
0.000160811
0.000162842
0.000173397
0.000173395
0.000162697
0.000166337
0.000175805
0.000175802
0.000164454
0.000169797
0.00017814
0.000178136
0.000166112
0.000173215
0.0001804
0.000180395
0.000167737
0.00017658
0.000182585
0.000182579
0.000169307
0.000179886
0.000184693
0.000184687
0.000170801
0.000183124
0.000186724
0.000186717
0.000172237
0.000186289
0.000188678
0.00018867
0.000173616
0.000189373
0.000190553
0.000190545
0.000174938
0.000192372
0.000192349
0.000192342
0.000176217
0.00019528
0.000194068
0.00019406
0.000177436
0.000198093
0.000195708
0.000195699
0.00017858
0.000200809
0.000197268
0.00019726
0.000179657
0.000137127
0.000139259
0.000139414
0.000139411
0.000141761
0.000141758
0.000137285
0.000139144
0.000139422
0.000139408
0.000141768
0.000141755
0.000139427
0.000141773
0.000141775
0.000137123
0.000139245
0.000139437
0.000141773
0.000141785
0.000139283
0.000139568
0.00014153
0.000142539
0.000142536
0.000144858
0.000144856
0.000139657
0.000141575
0.000142547
0.000142533
0.000144865
0.000144851
0.000142553
0.00014487
0.000144871
0.000139549
0.000141663
0.000142562
0.00014487
0.000144881
0.000141639
0.000142085
0.000143873
0.000145627
0.000145623
0.000147914
0.00014791
0.00014204
0.000143846
0.000145635
0.000145619
0.000147921
0.000147906
0.000145639
0.000147925
0.000147924
0.000141927
0.000143987
0.000145649
0.000147925
0.000147935
0.000143971
0.000144361
0.000146104
0.000148671
0.000148667
0.00015092
0.000150917
0.000144394
0.000146173
0.000148679
0.000148663
0.000150929
0.000150912
0.000148681
0.000150932
0.00015093
0.000144306
0.000146268
0.000148692
0.000150933
0.000150941
0.00014627
0.000146671
0.000148416
0.000151665
0.00015166
0.000153873
0.000153869
0.000146615
0.000148353
0.000151674
0.000151656
0.000153882
0.000153865
0.000151674
0.000153885
0.000153882
0.000146561
0.000148501
0.000151685
0.000153887
0.000153893
0.000148469
0.000148827
0.000150593
0.000154601
0.000154598
0.000156765
0.000156762
0.000148856
0.000150643
0.000154611
0.000154594
0.000156774
0.000156757
0.000154611
0.000156779
0.000156776
0.000148797
0.000150635
0.000154622
0.00015678
0.000156786
0.000150661
0.000150977
0.000152663
0.000157478
0.000157476
0.000159595
0.000159594
0.000150938
0.00015276
0.000157488
0.00015747
0.000159605
0.000159588
0.00015749
0.000159612
0.000159607
0.000150915
0.000152638
0.0001575
0.000159611
0.000159617
0.000152753
0.000153094
0.000154713
0.000160293
0.000160292
0.000162362
0.000162362
0.000153039
0.00015481
0.000160303
0.000160286
0.000162372
0.000162356
0.000160306
0.000162381
0.000162375
0.000153122
0.000154744
0.000160315
0.00016238
0.000162384
0.000154804
0.00015511
0.000156694
0.000163043
0.000163043
0.000165064
0.000165064
0.000155069
0.000156805
0.000163054
0.000163037
0.000165074
0.000165057
0.000163057
0.000165085
0.000165077
0.000155108
0.000156705
0.000163066
0.000165083
0.000165086
0.000156798
0.000157111
0.000158645
0.000165728
0.000165729
0.000167698
0.000167699
0.000157055
0.000158737
0.000165739
0.000165722
0.000167709
0.000167692
0.000165741
0.000167721
0.000167711
0.000157108
0.000158695
0.00016575
0.000167719
0.00016772
0.000158731
0.000159043
0.000160514
0.000168346
0.000168346
0.000170263
0.000170265
0.000158984
0.000160626
0.000168357
0.00016834
0.000170274
0.000170258
0.000168359
0.000170288
0.000170276
0.000159011
0.000160552
0.000168368
0.000170286
0.000170286
0.000160601
0.000160905
0.000162402
0.000170893
0.000170895
0.000172758
0.00017276
0.00016085
0.000162436
0.000170905
0.000170888
0.00017277
0.000172754
0.000170907
0.000172785
0.000172772
0.000160893
0.000162358
0.000170916
0.000172782
0.000172781
0.000162387
0.00016268
0.000164122
0.000173371
0.000173373
0.000175183
0.000175185
0.00016263
0.000164188
0.000173384
0.000173366
0.000175195
0.000175178
0.000173384
0.00017521
0.000175197
0.000162695
0.00016413
0.000173394
0.000175207
0.000175206
0.000164136
0.000164432
0.000165856
0.000175778
0.00017578
0.000177535
0.000177538
0.000164382
0.000165832
0.00017579
0.000175773
0.000177547
0.00017753
0.000175791
0.000177563
0.000177548
0.000164422
0.000165799
0.000175801
0.000177559
0.000177557
0.000165846
0.000166104
0.00016747
0.000178111
0.000178114
0.000179812
0.000179816
0.000166126
0.000167498
0.000178124
0.000178106
0.000179825
0.000179808
0.000178124
0.000179842
0.000179825
0.000166125
0.000167476
0.000178134
0.000179838
0.000179835
0.000167466
0.000167738
0.00016906
0.00018037
0.000180373
0.000182015
0.000182019
0.00016774
0.000169073
0.000180383
0.000180365
0.000182028
0.00018201
0.000180383
0.000182046
0.000182028
0.000167741
0.000169067
0.000180393
0.00018204
0.000182038
0.000169041
0.00016929
0.000170613
0.000182554
0.000182557
0.000184142
0.000184145
0.000169301
0.000170581
0.000182567
0.000182549
0.000184155
0.000184137
0.000182567
0.000184173
0.000184155
0.000169292
0.000170589
0.000182576
0.000184167
0.000184164
0.00017059
0.000170783
0.00017207
0.000184662
0.000184665
0.000186193
0.000186195
0.000170814
0.000172041
0.000184675
0.000184656
0.000186205
0.000186186
0.000184674
0.000186224
0.000186204
0.000170793
0.00017203
0.000184684
0.000186217
0.000186214
0.00017203
0.000172217
0.000173456
0.000186693
0.000186695
0.000188165
0.000188168
0.000172244
0.000173437
0.000186706
0.000186686
0.000188178
0.000188158
0.000186704
0.000188196
0.000188176
0.00017224
0.000173438
0.000186714
0.000188189
0.000188187
0.00017343
0.000173594
0.000174784
0.000188646
0.000188648
0.00019006
0.000190062
0.000173625
0.000174779
0.00018866
0.000188639
0.000190073
0.000190052
0.000188657
0.000190091
0.00019007
0.000173611
0.000174769
0.000188668
0.000190084
0.000190082
0.000174764
0.000174922
0.000176045
0.000190522
0.000190523
0.000191876
0.000191879
0.000174937
0.000176043
0.000190535
0.000190513
0.000191889
0.000191868
0.000190531
0.000191907
0.000191886
0.000174927
0.000176046
0.000190543
0.0001919
0.000191898
0.000176019
0.000176187
0.00017723
0.000192318
0.00019232
0.000193614
0.000193616
0.000176208
0.000177236
0.000192331
0.000192309
0.000193626
0.000193605
0.000192328
0.000193645
0.000193623
0.000176185
0.000177277
0.00019234
0.000193637
0.000193636
0.000177219
0.000177413
0.000178384
0.000194036
0.000194038
0.000195273
0.000195275
0.000177427
0.000178385
0.00019405
0.000194027
0.000195286
0.000195263
0.000194045
0.000195304
0.000195282
0.000177366
0.000178375
0.000194058
0.000195296
0.000195295
0.000178374
0.000178539
0.000179543
0.000195675
0.000195677
0.000196852
0.000196854
0.000178582
0.000179484
0.000195689
0.000195665
0.000196866
0.000196843
0.000195684
0.000196885
0.000196862
0.000178556
0.000179468
0.000195698
0.000196876
0.000196876
0.000179469
0.000179578
0.000180576
0.000197236
0.000197237
0.000198353
0.000198356
0.000179663
0.000180515
0.00019725
0.000197226
0.000198367
0.000198344
0.000197245
0.000198386
0.000198363
0.000179648
0.000180501
0.000197259
0.000198377
0.000198377
0.000180502
9.22999e-05
5.00207e-05
5.00302e-05
9.20748e-05
2.36123e-05
2.36167e-05
9.2312e-05
5.00195e-05
5.0028e-05
9.20803e-05
0.000123039
0.000123047
0.000123057
0.000125124
0.000125122
0.00012513
0.00012514
0.000122011
9.3853e-05
0.000134856
0.000140209
9.41248e-05
0.000135725
0.000121372
2.36102e-05
2.36148e-05
0.000122003
0.000134879
9.38374e-05
0.00014021
0.000135746
9.41351e-05
0.000121372
7.3771e-05
7.37653e-05
0.000138036
7.38654e-05
7.3874e-05
9.27746e-05
5.00505e-05
9.25573e-05
5.00602e-05
2.36218e-05
2.36264e-05
9.27872e-05
5.00478e-05
9.25606e-05
5.00572e-05
0.000125837
0.000125845
0.000125856
0.000128044
0.000128042
0.000128049
0.000128061
0.000123323
9.44563e-05
0.000138356
0.000143325
0.000122709
9.47217e-05
0.000139235
2.36197e-05
2.36245e-05
0.000123315
0.000138375
9.44421e-05
0.000143326
0.000122709
0.000139252
9.47358e-05
7.40366e-05
7.40307e-05
0.00014046
7.41257e-05
7.41284e-05
9.3231e-05
5.00803e-05
9.30211e-05
5.00901e-05
2.36316e-05
2.36363e-05
9.32444e-05
5.00773e-05
9.3022e-05
5.00871e-05
0.000128795
0.000128803
0.000128814
0.000131107
0.000131105
0.000131112
0.000131124
0.00012459
9.50371e-05
0.000141887
0.000146402
0.000123996
9.5292e-05
0.00014277
2.36296e-05
2.36345e-05
0.000124581
0.000141904
9.50223e-05
0.000146403
0.000123998
0.000142787
9.53055e-05
7.4291e-05
7.42843e-05
0.000142844
7.43772e-05
7.43807e-05
9.36687e-05
5.01103e-05
9.34693e-05
5.01202e-05
2.36418e-05
2.36466e-05
9.36806e-05
5.01073e-05