/*--------------------------------*- C++ -*----------------------------------*\
| =========                 |                                                 |
| \\      /  F ield         | OpenFOAM: The Open Source CFD Toolbox           |
|  \\    /   O peration     | Version:  v1906                                 |
|   \\  /    A nd           | Web:      www.OpenFOAM.com                      |
|    \\/     M anipulation  |                                                 |
\*---------------------------------------------------------------------------*/
FoamFile
{
    version     2.0;
    format      ascii;
    class       volVectorField;
    location    "900";
    object      U;
}
// * * * * * * * * * * * * * * * * * * * * * * * * * * * * * * * * * * * * * //

dimensions      [0 1 -1 0 0 0 0];


internalField   nonuniform List<vector> 
42840
(
(-9.60149e-06 -9.58736e-06 0.112516)
(1.11295e-05 -5.97786e-06 0.107501)
(-5.96534e-06 1.11415e-05 0.1075)
(-2.3986e-05 -2.40004e-05 0.104199)
(-2.38642e-05 -2.38784e-05 0.104201)
(2.39794e-05 2.39858e-05 0.104199)
(-4.16845e-05 -4.16722e-05 0.104316)
(-5.95835e-06 -1.11033e-05 0.107499)
(5.94519e-06 -1.11079e-05 0.107498)
(-6.05105e-06 -1.12193e-05 0.107492)
(6.04134e-06 -1.12215e-05 0.107491)
(-2.39888e-05 2.39523e-05 0.104199)
(4.16788e-05 -4.16722e-05 0.104317)
(-1.11394e-05 -5.96768e-06 0.107501)
(-1.11019e-05 5.96184e-06 0.107498)
(-1.12537e-05 -6.06143e-06 0.107493)
(-1.12144e-05 6.05853e-06 0.107491)
(1.11141e-05 5.94232e-06 0.107498)
(1.1245e-05 -6.07144e-06 0.107494)
(1.12278e-05 6.03727e-06 0.107491)
(2.39687e-05 -2.39991e-05 0.104199)
(-4.16526e-05 4.16952e-05 0.104316)
(5.98363e-06 1.11366e-05 0.1075)
(-6.05846e-06 1.12583e-05 0.107493)
(6.07952e-06 1.12502e-05 0.107493)
(4.16878e-05 4.16618e-05 0.104316)
(1.12702e-05 6.0711e-06 0.107489)
(6.11239e-06 1.12925e-05 0.107491)
(-2.98558e-07 -1.66152e-05 0.0913963)
(7.12547e-07 7.11794e-06 0.0821931)
(-1.21983e-06 -1.20726e-05 0.0822528)
(-2.46592e-07 5.00023e-06 0.0913435)
(-2.63686e-06 4.33331e-06 0.0715116)
(3.29288e-06 -5.94029e-06 0.0715733)
(-1.66462e-05 -2.84315e-07 0.0913958)
(7.12093e-06 6.77564e-07 0.0821922)
(-1.21035e-05 -1.15946e-06 0.0822532)
(5.03288e-06 -2.22037e-07 0.091344)
(9.59369e-06 -9.58873e-06 0.112516)
(-9.58321e-06 9.60433e-06 0.112515)
(9.59982e-06 9.59637e-06 0.112515)
(-9.87977e-06 -9.86476e-06 0.112489)
(9.87362e-06 -9.86688e-06 0.112489)
(-9.85981e-06 9.88348e-06 0.112488)
(9.87895e-06 9.87359e-06 0.112488)
(2.7272e-05 -6.99784e-07 0.09856)
(-8.73996e-06 3.12106e-06 0.0929749)
(1.39408e-05 -2.51592e-06 0.109933)
(1.11689e-05 -6.00778e-06 0.107499)
(2.04254e-05 -7.77061e-06 0.0930395)
(1.404e-05 -2.53482e-06 0.109928)
(-8.14865e-06 -4.49066e-07 0.0984983)
(4.27595e-06 -2.58748e-06 0.071509)
(-5.87431e-06 3.27679e-06 0.0715746)
(-6.91267e-07 2.7241e-05 0.09856)
(-2.49703e-06 1.39502e-05 0.109932)
(3.16652e-06 -8.77475e-06 0.0929755)
(-5.99534e-06 1.11822e-05 0.107498)
(-2.51601e-06 1.40506e-05 0.109927)
(-7.78178e-06 2.04789e-05 0.0930391)
(-4.17108e-07 -8.12212e-06 0.0984982)
(-3.52975e-06 -3.53623e-06 0.087518)
(-3.51825e-06 -3.53801e-06 0.0875167)
(4.17461e-05 4.17195e-05 0.104315)
(9.96069e-06 6.89723e-06 0.0875758)
(6.95623e-06 9.93597e-06 0.087574)
(-3.57208e-06 -3.49177e-06 0.0875499)
(-3.47957e-06 -3.57789e-06 0.0875486)
(2.65311e-06 4.2988e-06 0.0715127)
(-3.30968e-06 -5.90764e-06 0.0715738)
(4.30776e-06 2.66883e-06 0.0715116)
(-5.92652e-06 -3.31263e-06 0.0715733)
(3.51754e-06 3.53883e-06 0.087519)
(3.5383e-06 3.54419e-06 0.0875167)
(-4.17426e-05 -4.17296e-05 0.104315)
(-6.91233e-06 -9.94855e-06 0.0875757)
(-9.96415e-06 -6.93519e-06 0.0875741)
(-3.33562e-06 -5.88067e-06 0.071589)
(2.62117e-06 4.30988e-06 0.0715281)
(-5.89927e-06 -3.33823e-06 0.0715885)
(4.31895e-06 2.63693e-06 0.071527)
(2.39088e-05 2.3914e-05 0.1042)
(-6.92223e-06 -9.91363e-06 0.0875916)
(-9.92891e-06 -6.94597e-06 0.08759)
(3.49613e-06 3.5576e-06 0.087535)
(3.55646e-06 3.5226e-06 0.0875326)
(3.19657e-07 -1.66197e-05 0.0913961)
(-6.67371e-07 7.16265e-06 0.0821924)
(1.18103e-06 -1.21164e-05 0.0822522)
(2.39559e-07 5.01015e-06 0.0913434)
(-7.08948e-07 -2.72741e-05 0.0985601)
(3.16194e-06 8.75193e-06 0.0929752)
(-2.5066e-06 -1.39338e-05 0.109933)
(-5.98839e-06 -1.11432e-05 0.107497)
(-7.78955e-06 -2.04308e-05 0.0930382)
(-2.52629e-06 -1.40335e-05 0.109928)
(-4.03463e-07 8.14372e-06 0.0984981)
(7.03773e-07 -2.72774e-05 0.0985599)
(-3.15586e-06 8.80516e-06 0.0929737)
(2.49211e-06 -1.39338e-05 0.109932)
(5.97719e-06 -1.11464e-05 0.107496)
(7.77155e-06 -2.04665e-05 0.0930379)
(2.51369e-06 -1.40316e-05 0.109927)
(4.17862e-07 8.15347e-06 0.0984979)
(-2.4599e-07 4.98877e-06 0.0913591)
(-1.23134e-06 -1.20283e-05 0.0822696)
(6.90347e-07 7.12616e-06 0.08221)
(-2.98061e-07 -1.65954e-05 0.0914118)
(2.38137e-07 4.99664e-06 0.091359)
(1.19795e-06 -1.20857e-05 0.0822691)
(-6.45857e-07 7.17168e-06 0.0822093)
(3.18956e-07 -1.65997e-05 0.0914116)
(-4.06289e-07 8.09115e-06 0.0985086)
(-6.02432e-06 -1.11881e-05 0.107494)
(-7.79221e-06 -2.0408e-05 0.0930526)
(-2.56623e-06 -1.42242e-05 0.109918)
(3.14397e-06 8.7508e-06 0.0929897)
(-2.54768e-06 -1.4136e-05 0.109923)
(-7.09051e-07 -2.72789e-05 0.0985705)
(4.18051e-07 8.09982e-06 0.0985084)
(6.01287e-06 -1.11913e-05 0.107494)
(7.775e-06 -2.04423e-05 0.0930523)
(2.55732e-06 -1.42223e-05 0.109918)
(-3.13529e-06 8.80429e-06 0.0929882)
(2.53651e-06 -1.41353e-05 0.109922)
(7.05884e-07 -2.72799e-05 0.0985703)
(-3.51e-06 3.54253e-06 0.0875165)
(-3.49979e-06 3.475e-06 0.0875174)
(4.17351e-05 -4.17303e-05 0.104316)
(6.89427e-06 -9.94948e-06 0.0875746)
(9.89922e-06 -6.89635e-06 0.0875767)
(-4.27263e-06 2.57829e-06 0.0715096)
(5.88091e-06 -3.2599e-06 0.0715749)
(3.31837e-06 -5.91278e-06 0.0715886)
(-2.60567e-06 4.34415e-06 0.071527)
(-2.39155e-05 2.38806e-05 0.1042)
(6.90166e-06 -9.91345e-06 0.0875905)
(9.8635e-06 -6.90505e-06 0.0875926)
(-3.48892e-06 3.56053e-06 0.0875325)
(-3.51677e-06 3.4536e-06 0.0875334)
(5.85229e-06 -3.28536e-06 0.0715902)
(-4.28319e-06 2.54717e-06 0.071525)
(-2.7288e-05 -6.82124e-07 0.0985596)
(8.75306e-06 3.16913e-06 0.0929743)
(-1.39407e-05 -2.50058e-06 0.109933)
(-1.11793e-05 -5.99803e-06 0.107498)
(-2.04607e-05 -7.778e-06 0.0930387)
(-1.40471e-05 -2.51961e-06 0.109927)
(8.1594e-06 -4.06422e-07 0.098498)
(-1.66369e-05 2.99137e-07 0.0913957)
(7.12454e-06 -6.5012e-07 0.0821915)
(-1.20625e-05 1.19087e-06 0.0822532)
(5.03253e-06 3.01042e-07 0.091344)
(-2.72836e-05 7.08678e-07 0.0985596)
(-1.39339e-05 2.50207e-06 0.109932)
(8.7666e-06 -3.11528e-06 0.0929736)
(-1.11403e-05 5.99338e-06 0.107495)
(-1.40318e-05 2.52347e-06 0.109927)
(-2.04217e-05 7.76414e-06 0.0930384)
(8.16434e-06 4.46498e-07 0.098498)
(5.02141e-06 -2.19754e-07 0.0913595)
(-1.20596e-05 -1.17045e-06 0.08227)
(7.12865e-06 6.5538e-07 0.0822091)
(-1.66284e-05 -2.82814e-07 0.0914113)
(8.10747e-06 -4.05411e-07 0.0985084)
(-1.12229e-05 -6.03524e-06 0.107496)
(-2.04368e-05 -7.78102e-06 0.0930531)
(-1.42359e-05 -2.56088e-06 0.109917)
(8.75267e-06 3.15085e-06 0.0929888)
(-1.41413e-05 -2.54309e-06 0.109923)
(-2.72905e-05 -6.81108e-07 0.09857)
(5.02076e-06 3.00429e-07 0.0913596)
(-1.2031e-05 1.20782e-06 0.08227)
(7.13415e-06 -6.27434e-07 0.0822084)
(-1.6619e-05 2.99659e-07 0.0914112)
(8.11243e-06 4.4671e-07 0.0985085)
(-1.11848e-05 6.03084e-06 0.107493)
(-1.42202e-05 2.56724e-06 0.109917)
(-2.03973e-05 7.7678e-06 0.0930528)
(-1.41341e-05 2.54665e-06 0.109922)
(8.76646e-06 -3.09455e-06 0.0929881)
(-2.72858e-05 7.11306e-07 0.09857)
(1.66147e-05 -3.10397e-07 0.0913964)
(-7.1181e-06 6.43223e-07 0.0821921)
(1.20853e-05 -1.16647e-06 0.0822535)
(-5.00746e-06 -2.6153e-07 0.0913437)
(2.72637e-05 6.95137e-07 0.0985598)
(1.39402e-05 2.4846e-06 0.109932)
(-8.75301e-06 -3.17853e-06 0.0929749)
(1.11525e-05 5.97332e-06 0.107496)
(1.40388e-05 2.50632e-06 0.109927)
(2.04468e-05 7.76625e-06 0.0930385)
(-8.14386e-06 3.90281e-07 0.0984985)
(1.66083e-05 3.07106e-07 0.0913963)
(-7.13497e-06 -6.91925e-07 0.0821932)
(1.21066e-05 1.16949e-06 0.0822528)
(-5.00152e-06 2.18705e-07 0.0913437)
(-8.09562e-06 -4.46934e-07 0.0985088)
(1.1214e-05 -6.04484e-06 0.107496)
(2.04017e-05 -7.77291e-06 0.0930539)
(1.42299e-05 -2.57608e-06 0.109918)
(-8.73778e-06 3.1024e-06 0.0929893)
(1.41425e-05 -2.55823e-06 0.109923)
(2.72737e-05 -6.98239e-07 0.0985704)
(-4.99526e-06 -2.583e-07 0.0913593)
(1.20651e-05 -1.1871e-06 0.0822703)
(-7.13048e-06 6.23207e-07 0.082209)
(1.65953e-05 -3.08008e-07 0.0914119)
(-8.09163e-06 3.91914e-07 0.0985089)
(1.11983e-05 6.00945e-06 0.107494)
(1.42283e-05 2.54946e-06 0.109917)
(2.04222e-05 7.76901e-06 0.0930528)
(1.41421e-05 2.52825e-06 0.109922)
(-8.75221e-06 -3.15849e-06 0.0929894)
(2.72669e-05 7.00369e-07 0.0985703)
(-4.99018e-06 2.17935e-07 0.0913593)
(1.2075e-05 1.18729e-06 0.0822696)
(-7.14421e-06 -6.69195e-07 0.0822101)
(1.65896e-05 3.08786e-07 0.0914119)
(3.53093e-06 -3.51073e-06 0.0875149)
(3.51851e-06 -3.54499e-06 0.0875185)
(-4.17114e-05 4.17511e-05 0.104315)
(-9.91873e-06 6.92955e-06 0.0875748)
(-6.91456e-06 9.96931e-06 0.0875759)
(2.65087e-06 -4.30929e-06 0.0715126)
(-3.29997e-06 5.92778e-06 0.071574)
(-5.84593e-06 3.30238e-06 0.0715899)
(4.28723e-06 -2.55488e-06 0.0715243)
(2.38972e-05 -2.39245e-05 0.1042)
(-9.88264e-06 6.94042e-06 0.0875907)
(-6.92313e-06 9.9356e-06 0.0875918)
(3.54961e-06 -3.48785e-06 0.0875309)
(3.49816e-06 -3.56139e-06 0.0875345)
(-3.3251e-06 5.89926e-06 0.0715892)
(2.62043e-06 -4.31951e-06 0.071528)
(7.11654e-07 2.72448e-05 0.0985597)
(2.5091e-06 1.39474e-05 0.109932)
(-3.16366e-06 -8.77183e-06 0.0929744)
(6.01553e-06 1.1175e-05 0.107497)
(2.53104e-06 1.40447e-05 0.109927)
(7.82023e-06 2.04605e-05 0.0930385)
(4.26691e-07 -8.13244e-06 0.0984983)
(-2.96938e-07 1.65878e-05 0.0913968)
(6.88613e-07 -7.13209e-06 0.0821937)
(-1.17456e-06 1.21128e-05 0.0822532)
(-2.40642e-07 -4.9902e-06 0.0913434)
(3.14276e-07 1.65973e-05 0.0913963)
(-7.18547e-07 -7.12664e-06 0.0821928)
(1.24427e-06 1.20928e-05 0.082253)
(2.61062e-07 -5.0036e-06 0.0913438)
(-4.1465e-07 -8.06335e-06 0.0985087)
(-6.03167e-06 1.12264e-05 0.107495)
(-2.55789e-06 1.42401e-05 0.109917)
(-7.78415e-06 2.04558e-05 0.0930535)
(-2.53989e-06 1.41515e-05 0.109922)
(3.14831e-06 -8.77164e-06 0.0929899)
(-6.93461e-07 2.72403e-05 0.0985705)
(4.27155e-07 -8.07221e-06 0.0985088)
(6.05119e-06 1.12207e-05 0.107495)
(2.57401e-06 1.4234e-05 0.109917)
(7.8236e-06 2.04373e-05 0.0930529)
(2.55274e-06 1.41488e-05 0.109922)
(-3.1462e-06 -8.76937e-06 0.0929889)
(7.12337e-07 2.7243e-05 0.0985701)
(-2.34559e-07 -4.97213e-06 0.0913589)
(-1.19123e-06 1.20814e-05 0.08227)
(6.67826e-07 -7.14071e-06 0.0822106)
(-3.02728e-07 1.65629e-05 0.0914125)
(2.56483e-07 -4.98438e-06 0.0913593)
(1.25559e-06 1.20477e-05 0.0822698)
(-6.9894e-07 -7.1339e-06 0.0822097)
(3.15009e-07 1.65721e-05 0.091412)
(-4.3103e-06 -2.65352e-06 0.0715121)
(5.93312e-06 3.28294e-06 0.0715736)
(-2.65682e-06 -4.30495e-06 0.0715118)
(3.3488e-06 5.90277e-06 0.0715733)
(-2.39128e-05 -2.3927e-05 0.1042)
(9.92504e-06 6.90808e-06 0.0875917)
(6.96542e-06 9.90098e-06 0.0875898)
(-3.54855e-06 -3.51292e-06 0.087534)
(-3.49818e-06 -3.55584e-06 0.0875326)
(5.90487e-06 3.30989e-06 0.0715889)
(-4.32206e-06 -2.62064e-06 0.0715275)
(3.37396e-06 5.87554e-06 0.0715885)
(-2.62692e-06 -4.31515e-06 0.0715272)
(1.43234e-05 2.56805e-06 0.109912)
(-8.75808e-06 -3.13786e-06 0.0930039)
(-8.04773e-06 3.9382e-07 0.0985195)
(-7.16056e-06 -6.49214e-07 0.082227)
(-4.97991e-06 2.19137e-07 0.0913749)
(-3.12892e-06 -8.77451e-06 0.0930034)
(-6.78809e-07 -7.1416e-06 0.0822265)
(-4.33495e-06 -2.59067e-06 0.0715428)
(-2.59972e-06 -4.32618e-06 0.0715424)
(-6.72284e-07 4.21338e-06 0.076849)
(1.36342e-07 -7.43176e-06 0.0786691)
(-1.14259e-06 -1.59875e-05 0.0899176)
(-2.45861e-07 4.99295e-06 0.0913513)
(-1.84327e-07 3.8335e-06 0.078626)
(-5.21461e-07 5.485e-06 0.0898671)
(5.36207e-07 -7.4169e-06 0.0768988)
(2.35236e-07 -6.05326e-06 0.06844)
(-1.21068e-06 -1.20874e-05 0.0822443)
(-7.14495e-07 5.78254e-06 0.0857869)
(-1.36711e-06 -1.23189e-05 0.0858443)
(-8.5121e-07 4.84297e-06 0.0683752)
(-8.66975e-07 4.84421e-06 0.0683828)
(-1.37411e-06 -1.23017e-05 0.0858528)
(7.02113e-07 7.12238e-06 0.0822015)
(-7.2447e-07 5.78958e-06 0.0857954)
(2.22556e-07 -6.04457e-06 0.0684476)
(5.43485e-07 -7.422e-06 0.0768904)
(-2.99361e-07 -1.66276e-05 0.0913886)
(-1.83181e-07 3.83782e-06 0.0786175)
(-5.15691e-07 5.49231e-06 0.089859)
(1.3679e-07 -7.43495e-06 0.0786606)
(-1.14026e-06 -1.59969e-05 0.0899096)
(-6.63527e-07 4.21507e-06 0.0768406)
(3.27943e-06 -5.95339e-06 0.0715657)
(-2.62067e-06 4.33868e-06 0.0715193)
(4.26776e-06 -6.48716e-07 0.0768514)
(-1.60399e-05 -1.11264e-06 0.0899171)
(-7.47001e-06 1.48294e-07 0.0786685)
(5.02381e-06 -2.20066e-07 0.0913518)
(5.53889e-06 -5.04066e-07 0.0898676)
(3.87277e-06 -1.51789e-07 0.0786278)
(-7.46815e-06 5.70528e-07 0.0768983)
(-6.12997e-06 2.50942e-07 0.0684369)
(-1.21183e-05 -1.15031e-06 0.0822448)
(5.83293e-06 -7.05015e-07 0.0857867)
(-1.23927e-05 -1.3281e-06 0.0858431)
(4.91582e-06 -8.01927e-07 0.0683758)
(4.9161e-06 -8.17339e-07 0.0683834)
(-1.23773e-05 -1.33638e-06 0.0858516)
(7.12568e-06 6.66665e-07 0.0822007)
(5.83887e-06 -7.15012e-07 0.0857952)
(-6.12118e-06 2.37664e-07 0.0684445)
(-7.47233e-06 5.77383e-07 0.07689)
(-1.66561e-05 -2.86454e-07 0.0913881)
(5.54893e-06 -4.973e-07 0.0898594)
(3.87546e-06 -1.51395e-07 0.0786192)
(-1.60482e-05 -1.10928e-06 0.0899091)
(-7.47908e-06 1.46633e-07 0.07866)
(4.27148e-06 -6.39876e-07 0.076843)
(-5.88756e-06 3.2625e-06 0.071567)
(4.28144e-06 -2.57082e-06 0.0715167)
(-3.10101e-06 -3.13383e-06 0.0835872)
(3.6296e-06 5.12945e-06 0.0683537)
(5.16786e-06 3.60142e-06 0.0683476)
(-2.62405e-06 -4.09972e-06 0.0682976)
(-4.07139e-06 -2.64888e-06 0.0682918)
(7.29339e-06 7.2494e-06 0.0836337)
(1.68886e-05 1.02866e-05 0.091692)
(-1.09915e-05 -5.57706e-06 0.0962497)
(9.97842e-06 6.89125e-06 0.0875679)
(-3.80258e-06 -3.05998e-06 0.0815232)
(2.40946e-05 1.41954e-05 0.0962985)
(8.13823e-06 3.98293e-06 0.0815753)
(-7.75681e-06 -3.80298e-06 0.0916441)
(1.0355e-05 1.68641e-05 0.0916854)
(-5.5666e-06 -1.09921e-05 0.0962468)
(6.95085e-06 9.951e-06 0.087566)
(-3.05046e-06 -3.84564e-06 0.0815188)
(1.42592e-05 2.40759e-05 0.0962959)
(4.04646e-06 8.13528e-06 0.0815699)
(-3.79334e-06 -7.79105e-06 0.0916375)
(-7.7622e-06 -3.80063e-06 0.0916511)
(8.12268e-06 3.98737e-06 0.0815831)
(-3.53843e-06 -3.52383e-06 0.087526)
(2.40711e-05 1.41943e-05 0.0963043)
(-1.09916e-05 -5.56712e-06 0.0962555)
(-3.8097e-06 -3.04976e-06 0.081531)
(1.68663e-05 1.02779e-05 0.091699)
(-3.7921e-06 -7.79569e-06 0.0916445)
(4.05049e-06 8.12063e-06 0.0815777)
(-3.50773e-06 -3.54644e-06 0.0875246)
(1.42586e-05 2.40534e-05 0.0963017)
(-5.55717e-06 -1.09908e-05 0.0962527)
(-3.04135e-06 -3.85221e-06 0.0815266)
(1.0348e-05 1.68422e-05 0.0916924)
(7.30336e-06 7.25917e-06 0.0836262)
(-2.62196e-06 -4.10375e-06 0.0682909)
(-4.07465e-06 -2.64769e-06 0.0682851)
(3.6382e-06 5.13119e-06 0.0683469)
(5.17022e-06 3.60956e-06 0.0683409)
(-3.09826e-06 -3.13196e-06 0.0835797)
(1.67903e-05 1.02477e-05 0.09172)
(-1.10071e-05 -5.54565e-06 0.0962733)
(-3.84375e-06 -3.02784e-06 0.0815545)
(9.90372e-06 6.91399e-06 0.0875997)
(-7.78994e-06 -3.80516e-06 0.0916722)
(2.39965e-05 1.41888e-05 0.0963219)
(8.07153e-06 3.9984e-06 0.0816065)
(1.03172e-05 1.67676e-05 0.0917134)
(-5.53766e-06 -1.10044e-05 0.0962704)
(-3.02216e-06 -3.88409e-06 0.0815501)
(6.97185e-06 9.88086e-06 0.0875978)
(-3.79802e-06 -7.82178e-06 0.0916657)
(1.4253e-05 2.39793e-05 0.0963192)
(4.06018e-06 8.07118e-06 0.081601)
(7.26125e-06 7.21914e-06 0.0836562)
(-2.63179e-06 -4.08774e-06 0.0683178)
(-4.06192e-06 -2.65451e-06 0.068312)
(-3.11427e-06 -3.14505e-06 0.0836098)
(3.6044e-06 5.12289e-06 0.0683738)
(5.15953e-06 3.57814e-06 0.0683677)
(-3.29533e-06 -5.92128e-06 0.0715662)
(2.63716e-06 4.30417e-06 0.0715204)
(-5.93968e-06 -3.29895e-06 0.0715656)
(4.31293e-06 2.65266e-06 0.0715193)
(3.11736e-06 3.12032e-06 0.0835874)
(-5.13109e-06 -3.62857e-06 0.0683537)
(-3.61381e-06 -5.15788e-06 0.0683475)
(4.08022e-06 2.64006e-06 0.068298)
(2.6389e-06 4.08714e-06 0.0682917)
(-7.26005e-06 -7.28458e-06 0.0836338)
(-1.03131e-05 -1.6901e-05 0.0916922)
(5.56285e-06 1.10276e-05 0.0962501)
(-6.90705e-06 -9.96567e-06 0.0875677)
(3.04563e-06 3.83761e-06 0.0815244)
(-3.9936e-06 -8.14483e-06 0.0815753)
(-1.42184e-05 -2.4106e-05 0.0962988)
(3.79608e-06 7.80202e-06 0.0916444)
(-1.68899e-05 -1.03469e-05 0.0916855)
(1.09812e-05 5.57967e-06 0.0962469)
(-9.97986e-06 -6.92958e-06 0.0875661)
(3.83819e-06 3.06326e-06 0.0815186)
(-8.15669e-06 -4.02815e-06 0.0815698)
(-2.41054e-05 -1.42426e-05 0.0962962)
(7.7858e-06 3.81443e-06 0.0916377)
(3.79587e-06 7.80694e-06 0.0916514)
(-4.00521e-06 -8.13935e-06 0.0815831)
(3.50597e-06 3.54803e-06 0.087527)
(-1.42172e-05 -2.4084e-05 0.0963046)
(3.03684e-06 3.8463e-06 0.0815323)
(-1.03031e-05 -1.6878e-05 0.0916992)
(5.55472e-06 1.10271e-05 0.096256)
(7.79159e-06 3.81253e-06 0.0916447)
(-8.14195e-06 -4.03335e-06 0.0815776)
(3.54633e-06 3.53308e-06 0.0875247)
(-2.40831e-05 -1.42427e-05 0.096302)
(3.84584e-06 3.05413e-06 0.0815265)
(-1.68671e-05 -1.03404e-05 0.0916925)
(1.09803e-05 5.57049e-06 0.0962528)
(-7.27028e-06 -7.29509e-06 0.0836263)
(4.0842e-06 2.639e-06 0.0682913)
(2.63725e-06 4.09075e-06 0.0682849)
(-5.1334e-06 -3.63815e-06 0.068347)
(-3.62225e-06 -5.15989e-06 0.0683408)
(3.11496e-06 3.11894e-06 0.0835799)
(2.6057e-06 4.31602e-06 0.0715358)
(-3.32257e-06 -5.89368e-06 0.0715814)
(4.32489e-06 2.62223e-06 0.0715346)
(-5.91214e-06 -3.32541e-06 0.0715809)
(-7.2496e-06 -7.27362e-06 0.0836413)
(4.0767e-06 2.64321e-06 0.0683048)
(2.64166e-06 4.08329e-06 0.0682984)
(3.12039e-06 3.12371e-06 0.0835949)
(-5.12851e-06 -3.61986e-06 0.0683604)
(-3.6059e-06 -5.15475e-06 0.0683542)
(3.79784e-06 7.82212e-06 0.0916655)
(-1.42139e-05 -2.40363e-05 0.0963163)
(3.48556e-06 3.56859e-06 0.087543)
(-4.0136e-06 -8.10758e-06 0.0815987)
(3.02301e-06 3.86753e-06 0.0815479)
(5.5403e-06 1.10329e-05 0.0962677)
(-1.0284e-05 -1.683e-05 0.0917132)
(7.80785e-06 3.81366e-06 0.0916588)
(-2.40346e-05 -1.42397e-05 0.0963136)
(3.56611e-06 3.51198e-06 0.0875406)
(-8.10885e-06 -4.03997e-06 0.0815931)
(3.8652e-06 3.03849e-06 0.0815421)
(1.09874e-05 5.55536e-06 0.0962646)
(-1.68187e-05 -1.03203e-05 0.0917065)
(-1.02947e-05 -1.68545e-05 0.0917062)
(3.02973e-06 3.85513e-06 0.0815401)
(5.54811e-06 1.10292e-05 0.0962618)
(-6.91719e-06 -9.9316e-06 0.0875836)
(3.79579e-06 7.81267e-06 0.0916585)
(-4.01029e-06 -8.12492e-06 0.0815909)
(-1.42161e-05 -2.40607e-05 0.0963104)
(-1.68435e-05 -1.03301e-05 0.0916995)
(3.85334e-06 3.04523e-06 0.0815343)
(1.09834e-05 5.56341e-06 0.0962587)
(-9.94644e-06 -6.94024e-06 0.087582)
(7.79718e-06 3.81263e-06 0.0916517)
(-8.12662e-06 -4.03707e-06 0.0815854)
(-2.40594e-05 -1.42413e-05 0.0963078)
(3.12487e-06 3.12759e-06 0.0836025)
(-5.12665e-06 -3.61154e-06 0.0683671)
(-3.59844e-06 -5.15276e-06 0.0683609)
(4.07232e-06 2.6455e-06 0.0683115)
(2.6439e-06 4.07935e-06 0.0683051)
(-7.23949e-06 -7.26319e-06 0.0836488)
(6.72406e-07 4.27145e-06 0.0768506)
(-1.1702e-07 -7.43039e-06 0.078669)
(1.15932e-06 -1.60323e-05 0.089917)
(2.39148e-07 5.00303e-06 0.0913512)
(1.80972e-07 3.83963e-06 0.0786262)
(5.14681e-07 5.53535e-06 0.089867)
(-5.2654e-07 -7.46796e-06 0.076898)
(-2.13389e-07 -6.1223e-06 0.0684364)
(1.1721e-06 -1.21303e-05 0.0822438)
(7.28663e-07 5.8408e-06 0.0857863)
(1.36304e-06 -1.23743e-05 0.0858426)
(8.36933e-07 4.92368e-06 0.0683752)
(8.52959e-07 4.92405e-06 0.0683828)
(1.37042e-06 -1.23583e-05 0.085851)
(-6.56684e-07 7.16735e-06 0.0822009)
(7.38839e-07 5.84711e-06 0.0857948)
(-2.00696e-07 -6.11373e-06 0.0684439)
(-5.33386e-07 -7.47249e-06 0.0768896)
(3.21283e-07 -1.66297e-05 0.0913884)
(1.80989e-07 3.84207e-06 0.0786176)
(5.08366e-07 5.54317e-06 0.0898589)
(-1.16369e-07 -7.43996e-06 0.0786605)
(1.1552e-06 -1.60412e-05 0.0899089)
(6.63265e-07 4.27526e-06 0.0768422)
(5.29887e-07 -7.40797e-06 0.0769071)
(-1.84616e-07 3.83291e-06 0.0786345)
(-5.26487e-07 5.48246e-06 0.0898752)
(-2.98566e-07 -1.66056e-05 0.0914041)
(-6.81486e-07 4.21108e-06 0.0768574)
(1.35403e-07 -7.4225e-06 0.0786776)
(-1.14624e-06 -1.59752e-05 0.0899257)
(-8.9718e-07 4.84493e-06 0.0683979)
(6.78838e-07 7.12903e-06 0.0822184)
(-1.38967e-06 -1.2269e-05 0.0858696)
(1.97023e-07 -6.02598e-06 0.0684626)
(-7.43927e-07 5.80154e-06 0.0858124)
(2.10099e-07 -6.03506e-06 0.0684551)
(-7.33804e-07 5.79559e-06 0.0858039)
(-1.22836e-06 -1.20577e-05 0.0822612)
(-8.83058e-07 4.84356e-06 0.0683904)
(-1.38121e-06 -1.2286e-05 0.0858612)
(-6.89266e-07 4.21108e-06 0.0768658)
(-2.46506e-07 4.98285e-06 0.0913669)
(1.34214e-07 -7.42446e-06 0.0786861)
(-1.14992e-06 -1.59655e-05 0.0899337)
(5.21574e-07 -7.40449e-06 0.0769155)
(-1.86738e-07 3.83304e-06 0.078643)
(-5.3326e-07 5.47756e-06 0.0898833)
(-5.18558e-07 -7.46441e-06 0.0769063)
(1.80379e-07 3.83943e-06 0.0786347)
(5.20928e-07 5.53065e-06 0.0898751)
(3.1992e-07 -1.66117e-05 0.0914039)
(6.81052e-07 4.26986e-06 0.0768591)
(-1.17496e-07 -7.42589e-06 0.0786775)
(1.16383e-06 -1.60202e-05 0.089925)
(8.83485e-07 4.92377e-06 0.068398)
(-6.36772e-07 7.17977e-06 0.0822178)
(1.38525e-06 -1.23248e-05 0.0858679)
(7.59087e-07 5.85867e-06 0.0858117)
(-1.76397e-07 -6.09529e-06 0.068459)
(-1.88101e-07 -6.10418e-06 0.0684515)
(7.4935e-07 5.8526e-06 0.0858032)
(1.18884e-06 -1.21027e-05 0.0822607)
(8.69256e-07 4.9234e-06 0.0683904)
(1.37699e-06 -1.23415e-05 0.0858595)
(6.90393e-07 4.26555e-06 0.0768674)
(2.39058e-07 4.99251e-06 0.0913668)
(-1.17291e-07 -7.42121e-06 0.078686)
(1.16827e-06 -1.60108e-05 0.0899331)
(1.80281e-07 3.84014e-06 0.0786432)
(5.27943e-07 5.52539e-06 0.0898832)
(-5.11875e-07 -7.45811e-06 0.0769147)
(-3.13735e-06 3.1208e-06 0.0835872)
(5.13693e-06 -3.63732e-06 0.0683483)
(3.61363e-06 -5.15899e-06 0.0683537)
(-4.0917e-06 2.64232e-06 0.068292)
(-2.64872e-06 4.07753e-06 0.0682974)
(7.27697e-06 -7.29447e-06 0.083634)
(1.03328e-05 -1.68953e-05 0.0916859)
(-5.59375e-06 1.10179e-05 0.0962465)
(6.88847e-06 -9.96568e-06 0.0875666)
(-3.04908e-06 3.81615e-06 0.0815185)
(3.99356e-06 -8.13874e-06 0.0815708)
(1.42169e-05 -2.4105e-05 0.0962962)
(-3.83602e-06 7.78407e-06 0.0916374)
(1.68885e-05 -1.03447e-05 0.0916925)
(-1.09794e-05 5.55215e-06 0.0962499)
(9.91441e-06 -6.8909e-06 0.0875688)
(-3.80928e-06 3.04473e-06 0.0815231)
(2.40712e-05 -1.4238e-05 0.0962993)
(8.10851e-06 -4.02992e-06 0.0815756)
(-7.79392e-06 3.79081e-06 0.0916441)
(-3.83382e-06 7.7898e-06 0.0916444)
(3.9955e-06 -8.1207e-06 0.0815786)
(-3.49828e-06 3.55121e-06 0.0875245)
(1.42162e-05 -2.40824e-05 0.0963021)
(-3.03845e-06 3.82198e-06 0.0815263)
(-5.58378e-06 1.10174e-05 0.0962524)
(1.03257e-05 -1.68743e-05 0.0916929)
(-7.79929e-06 3.79005e-06 0.0916512)
(8.09338e-06 -4.03382e-06 0.0815834)
(-3.50805e-06 3.46371e-06 0.0875254)
(2.40497e-05 -1.42366e-05 0.0963051)
(-1.09779e-05 5.5433e-06 0.0962558)
(-3.81649e-06 3.03558e-06 0.081531)
(1.68681e-05 -1.03374e-05 0.0916995)
(7.28554e-06 -7.30339e-06 0.0836265)
(-4.09526e-06 2.64014e-06 0.0682853)
(-2.64715e-06 4.08137e-06 0.0682906)
(5.13858e-06 -3.64551e-06 0.0683415)
(3.62184e-06 -5.16065e-06 0.0683469)
(-3.13562e-06 3.11822e-06 0.0835797)
(5.89429e-06 -3.2465e-06 0.0715673)
(-4.27737e-06 2.5621e-06 0.0715173)
(-2.59147e-06 4.34925e-06 0.0715346)
(3.30508e-06 -5.92676e-06 0.071581)
(7.26771e-06 -7.28485e-06 0.0836415)
(-4.08765e-06 2.64524e-06 0.0682988)
(-2.651e-06 4.07393e-06 0.0683041)
(-3.13968e-06 3.12433e-06 0.0835948)
(5.13412e-06 -3.63042e-06 0.068355)
(3.60603e-06 -5.15644e-06 0.0683604)
(-3.83519e-06 7.80581e-06 0.0916585)
(1.42153e-05 -2.40343e-05 0.0963137)
(-3.47834e-06 3.57126e-06 0.0875405)
(4.0098e-06 -8.09987e-06 0.0815941)
(-5.56829e-06 1.10254e-05 0.0962642)
(-3.02149e-06 3.83818e-06 0.081542)
(1.03067e-05 -1.68254e-05 0.0917069)
(-7.81412e-06 3.7936e-06 0.0916653)
(2.40024e-05 -1.42333e-05 0.0963168)
(-3.52755e-06 3.44345e-06 0.0875414)
(8.06767e-06 -4.04586e-06 0.081599)
(-3.83609e-06 3.0212e-06 0.0815466)
(-1.09845e-05 5.52988e-06 0.0962676)
(1.68199e-05 -1.03165e-05 0.0917135)
(1.03188e-05 -1.68518e-05 0.0916999)
(-3.02592e-06 3.82372e-06 0.0815342)
(-5.57604e-06 1.10197e-05 0.0962583)
(6.89965e-06 -9.93299e-06 0.0875825)
(1.42157e-05 -2.40591e-05 0.0963079)
(-3.83288e-06 7.7954e-06 0.0916515)
(3.99351e-06 -8.09785e-06 0.0815863)
(1.68458e-05 -1.03278e-05 0.0917065)
(-3.82671e-06 3.02974e-06 0.0815388)
(-1.09799e-05 5.53711e-06 0.0962617)
(9.88191e-06 -6.90189e-06 0.0875847)
(-7.80403e-06 3.79076e-06 0.0916582)
(8.07547e-06 -4.03571e-06 0.0815912)
(2.40272e-05 -1.42352e-05 0.0963109)
(-3.14383e-06 3.12796e-06 0.0836023)
(5.13076e-06 -3.62026e-06 0.0683617)
(3.5963e-06 -5.15407e-06 0.0683671)
(-4.08429e-06 2.64653e-06 0.0683055)
(-2.65343e-06 4.07019e-06 0.0683109)
(7.25401e-06 -7.27136e-06 0.083649)
(-4.28879e-06 2.53236e-06 0.0715326)
(5.86747e-06 -3.27249e-06 0.0715826)
(4.22628e-06 7.31858e-07 0.0768492)
(-7.46138e-06 -1.308e-07 0.0786684)
(-1.5995e-05 1.12191e-06 0.0899174)
(5.02601e-06 3.01316e-07 0.0913518)
(3.87153e-06 2.36892e-07 0.0786275)
(5.51016e-06 5.86035e-07 0.089867)
(-7.42217e-06 -5.52083e-07 0.0768986)
(-6.06308e-06 -2.43472e-07 0.0684397)
(-1.20763e-05 1.18118e-06 0.0822448)
(5.81158e-06 7.75355e-07 0.0857862)
(-1.23317e-05 1.34865e-06 0.0858441)
(4.86387e-06 9.06401e-07 0.0683746)
(4.86414e-06 9.22002e-07 0.0683822)
(-1.23157e-05 1.35631e-06 0.0858525)
(7.12956e-06 -6.38829e-07 0.0821999)
(5.81883e-06 7.85607e-07 0.0857947)
(-6.05454e-06 -2.31068e-07 0.0684472)
(-7.42661e-06 -5.59174e-07 0.0768903)
(-1.6649e-05 2.9847e-07 0.091388)
(3.87341e-06 2.36003e-07 0.078619)
(5.51682e-06 5.79717e-07 0.0898589)
(-7.47099e-06 -1.31432e-07 0.0786599)
(-1.60047e-05 1.11814e-06 0.0899094)
(4.22972e-06 7.22301e-07 0.0768408)
(-7.46383e-06 5.64051e-07 0.0769067)
(5.53692e-06 -5.08292e-07 0.0898756)
(3.87358e-06 -1.50845e-07 0.0786363)
(-1.66349e-05 -2.8392e-07 0.0914035)
(4.26597e-06 -6.56882e-07 0.0768599)
(-1.60273e-05 -1.11569e-06 0.0899251)
(-7.46402e-06 1.48221e-07 0.078677)
(4.91601e-06 -8.48547e-07 0.0683986)
(7.13171e-06 6.44576e-07 0.0822176)
(-1.23441e-05 -1.35188e-06 0.0858684)
(-6.10303e-06 2.12292e-07 0.0684595)
(5.8505e-06 -7.344e-07 0.0858122)
(-6.11204e-06 2.25462e-07 0.068452)
(5.8457e-06 -7.24984e-07 0.0858037)
(-1.20877e-05 -1.16728e-06 0.0822616)
(4.91627e-06 -8.33435e-07 0.068391)
(-1.23588e-05 -1.3423e-06 0.08586)
(4.26101e-06 -6.66751e-07 0.0768682)
(5.01317e-06 -2.18604e-07 0.0913674)
(-1.60207e-05 -1.12035e-06 0.0899332)
(-7.45474e-06 1.49888e-07 0.0786854)
(-7.45898e-06 5.57574e-07 0.076915)
(5.52894e-06 -5.15395e-07 0.0898837)
(3.86975e-06 -1.52184e-07 0.0786448)
(-7.41864e-06 -5.44808e-07 0.076907)
(3.87103e-06 2.37021e-07 0.078636)
(5.50446e-06 5.92754e-07 0.0898751)
(-1.66281e-05 2.97808e-07 0.0914035)
(4.22352e-06 7.40896e-07 0.0768576)
(-7.45627e-06 -1.31935e-07 0.0786769)
(-1.59838e-05 1.12665e-06 0.0899255)
(4.86491e-06 9.52844e-07 0.0683974)
(7.14214e-06 -6.18024e-07 0.0822168)
(-1.22821e-05 1.37213e-06 0.0858694)
(5.8301e-06 8.0693e-07 0.0858117)
(-6.03601e-06 -2.05761e-07 0.0684623)
(-6.04492e-06 -2.1788e-07 0.0684548)
(5.82458e-06 7.96784e-07 0.0858032)
(-1.20487e-05 1.199e-06 0.0822616)
(4.86416e-06 9.38363e-07 0.0683898)
(-1.22991e-05 1.36343e-06 0.085861)
(4.21997e-06 7.50071e-07 0.076866)
(5.01511e-06 3.01021e-07 0.0913674)
(-7.44623e-06 -1.31968e-07 0.0786854)
(-1.59746e-05 1.13177e-06 0.0899335)
(3.86839e-06 2.37962e-07 0.0786446)
(5.49838e-06 5.98901e-07 0.0898832)
(-7.41373e-06 -5.38294e-07 0.0769153)
(-4.27332e-06 -6.82914e-07 0.0768512)
(1.6037e-05 -1.14779e-06 0.0899175)
(7.43118e-06 1.29434e-07 0.0786693)
(-5.00042e-06 -2.59897e-07 0.0913515)
(-5.54483e-06 -5.30314e-07 0.0898674)
(-3.83781e-06 -1.96126e-07 0.0786265)
(7.47238e-06 5.43294e-07 0.0768985)
(6.12736e-06 2.27706e-07 0.0684372)
(1.20992e-05 -1.15729e-06 0.0822451)
(-5.84238e-06 -7.40701e-07 0.0857869)
(1.2383e-05 -1.34804e-06 0.0858435)
(-4.92561e-06 -8.37582e-07 0.0683759)
(-4.92592e-06 -8.53236e-07 0.0683835)
(1.23671e-05 -1.35495e-06 0.085852)
(-7.12242e-06 6.32507e-07 0.0822005)
(-5.84822e-06 -7.50345e-07 0.0857954)
(6.11883e-06 2.15581e-07 0.0684448)
(7.4789e-06 5.49475e-07 0.0768902)
(1.66262e-05 -3.13762e-07 0.0913887)
(-5.55284e-06 -5.24955e-07 0.0898594)
(-3.84228e-06 -1.96124e-07 0.0786179)
(1.60463e-05 -1.14596e-06 0.0899095)
(7.43416e-06 1.28655e-07 0.0786608)
(-4.27409e-06 -6.7482e-07 0.0768428)
(-4.2632e-06 6.49122e-07 0.0768507)
(7.42692e-06 -1.23758e-07 0.0786692)
(1.60304e-05 1.14269e-06 0.0899174)
(-4.99561e-06 2.18069e-07 0.0913515)
(-3.83523e-06 1.60824e-07 0.0786264)
(-5.52305e-06 4.91384e-07 0.0898675)
(7.46536e-06 -5.40865e-07 0.076898)
(6.12006e-06 -2.26084e-07 0.0684389)
(1.21206e-05 1.15974e-06 0.0822443)
(-5.82491e-06 6.97743e-07 0.0857876)
(1.23733e-05 1.35225e-06 0.0858439)
(-4.911e-06 8.06028e-07 0.0683778)
(-4.91168e-06 8.23159e-07 0.0683854)
(1.23567e-05 1.35995e-06 0.0858523)
(-7.14002e-06 -6.80496e-07 0.0822016)
(-5.83204e-06 7.0887e-07 0.0857961)
(6.11111e-06 -2.12224e-07 0.0684464)
(7.47051e-06 -5.48389e-07 0.0768896)
(1.66207e-05 3.08055e-07 0.0913886)
(-3.83948e-06 1.60421e-07 0.0786179)
(-5.53063e-06 4.85657e-07 0.0898594)
(7.43092e-06 -1.24492e-07 0.0786607)
(1.60413e-05 1.14017e-06 0.0899093)
(-4.26657e-06 6.39863e-07 0.0768423)
(7.4651e-06 5.37494e-07 0.0769069)
(-5.53969e-06 -5.35525e-07 0.0898755)
(-3.83729e-06 -1.95219e-07 0.078635)
(1.66052e-05 -3.09254e-07 0.0914042)
(-4.27081e-06 -6.91698e-07 0.0768596)
(1.6027e-05 -1.15136e-06 0.0899256)
(7.42206e-06 1.30505e-07 0.0786778)
(-4.9254e-06 -8.84181e-07 0.0683987)
(-7.13838e-06 6.13967e-07 0.0822174)
(1.23349e-05 -1.3691e-06 0.0858689)
(-5.86e-06 -7.70699e-07 0.0858124)
(6.10078e-06 1.90688e-07 0.0684598)
(6.10937e-06 2.03122e-07 0.0684523)
(-5.85377e-06 -7.60725e-07 0.0858039)
(1.20703e-05 -1.1735e-06 0.0822619)
(-4.92545e-06 -8.69402e-07 0.0683911)
(1.23511e-05 -1.36185e-06 0.0858604)
(-4.26982e-06 -7.00077e-07 0.076868)
(-4.98845e-06 -2.57772e-07 0.0913671)
(1.60165e-05 -1.155e-06 0.0899336)
(7.41288e-06 1.30909e-07 0.0786862)
(-5.53419e-06 -5.41587e-07 0.0898836)
(-3.83374e-06 -1.95722e-07 0.0786435)
(7.4589e-06 5.30564e-07 0.0769153)
(7.4614e-06 -5.33547e-07 0.0769064)
(-3.83519e-06 1.61121e-07 0.0786349)