/*--------------------------------*- C++ -*----------------------------------*\
| =========                 |                                                 |
| \\      /  F ield         | OpenFOAM: The Open Source CFD Toolbox           |
|  \\    /   O peration     | Version:  v1906                                 |
|   \\  /    A nd           | Web:      www.OpenFOAM.com                      |
|    \\/     M anipulation  |                                                 |
\*---------------------------------------------------------------------------*/
FoamFile
{
    version     2.0;
    format      ascii;
    class       volScalarField;
    location    "300";
    object      k;
}
// * * * * * * * * * * * * * * * * * * * * * * * * * * * * * * * * * * * * * //

dimensions      [0 2 -2 0 0 0 0];


internalField   nonuniform List<scalar> 
43024
(
3.79077e-05
5.11265e-05
5.11256e-05
5.33015e-05
3.80554e-05
5.12166e-05
5.12134e-05
5.33797e-05
3.81682e-05
5.12866e-05
5.12836e-05
5.345e-05
3.8251e-05
5.13362e-05
5.13396e-05
5.34965e-05
3.83132e-05
5.13717e-05
5.1382e-05
5.35243e-05
3.83585e-05
5.13972e-05
5.14092e-05
5.35385e-05
3.83884e-05
5.14133e-05
5.14257e-05
5.35341e-05
3.84069e-05
5.1419e-05
5.143e-05
5.3538e-05
3.8413e-05
5.1419e-05
5.14288e-05
5.35174e-05
3.84144e-05
5.1417e-05
5.14273e-05
5.35188e-05
3.84156e-05
5.14137e-05
5.14263e-05
5.35248e-05
3.84162e-05
5.14112e-05
5.14231e-05
5.35336e-05
3.8417e-05
5.14087e-05
5.14201e-05
5.35225e-05
3.84172e-05
5.14067e-05
5.14186e-05
5.35196e-05
3.84171e-05
5.14054e-05
5.14188e-05
5.35388e-05
3.84176e-05
5.14066e-05
5.14206e-05
5.35536e-05
3.84194e-05
5.14087e-05
5.14242e-05
5.35628e-05
3.84222e-05
5.14103e-05
5.14291e-05
5.35687e-05
3.8425e-05
5.14125e-05
5.14339e-05
5.35582e-05
3.84162e-05
5.13955e-05
5.14188e-05
5.35164e-05
3.79188e-05
5.01229e-05
5.01369e-05
5.31248e-05
5.32992e-05
5.11019e-05
5.10872e-05
5.32999e-05
5.11008e-05
5.10852e-05
5.10999e-05
5.10743e-05
5.32998e-05
5.10992e-05
5.10764e-05
5.32691e-05
5.33385e-05
5.3388e-05
5.11272e-05
5.11111e-05
5.11959e-05
5.11787e-05
5.33258e-05
5.33714e-05
5.11268e-05
5.11106e-05
5.11961e-05
5.11817e-05
5.11003e-05
5.1195e-05
5.11736e-05
5.333e-05
5.33776e-05
5.11015e-05
5.11921e-05
5.11721e-05
5.33502e-05
5.34166e-05
5.3442e-05
5.12134e-05
5.11964e-05
5.12652e-05
5.12514e-05
5.33979e-05
5.34302e-05
5.12147e-05
5.12006e-05
5.12675e-05
5.12581e-05
5.11937e-05
5.12702e-05
5.12548e-05
5.34054e-05
5.34309e-05
5.11916e-05
5.12661e-05
5.12522e-05
5.34224e-05
5.34617e-05
5.34795e-05
5.12782e-05
5.12654e-05
5.13161e-05
5.13071e-05
5.34509e-05
5.34683e-05
5.12809e-05
5.12726e-05
5.13191e-05
5.13148e-05
5.12706e-05
5.13246e-05
5.1314e-05
5.34604e-05
5.34691e-05
5.1268e-05
5.13255e-05
5.13122e-05
5.34736e-05
5.35017e-05
5.35067e-05
5.1326e-05
5.13177e-05
5.13561e-05
5.13519e-05
5.34893e-05
5.34969e-05
5.13295e-05
5.13258e-05
5.13618e-05
5.13597e-05
5.13248e-05
5.13629e-05
5.13577e-05
5.34957e-05
5.35058e-05
5.13233e-05
5.13716e-05
5.13574e-05
5.35043e-05
5.35242e-05
5.35258e-05
5.13646e-05
5.13606e-05
5.13897e-05
5.13857e-05
5.35173e-05
5.3515e-05
5.13703e-05
5.13685e-05
5.13937e-05
5.13928e-05
5.13662e-05
5.13915e-05
5.13912e-05
5.35235e-05
5.35186e-05
5.13664e-05
5.14032e-05
5.13929e-05
5.35177e-05
5.35418e-05
5.35364e-05
5.13956e-05
5.13908e-05
5.14122e-05
5.14055e-05
5.35391e-05
5.35282e-05
5.13987e-05
5.13987e-05
5.14134e-05
5.14146e-05
5.13966e-05
5.14098e-05
5.14117e-05
5.35455e-05
5.35266e-05
5.13986e-05
5.14224e-05
5.14142e-05
5.35178e-05
5.35511e-05
5.35345e-05
5.14158e-05
5.14083e-05
5.14249e-05
5.14151e-05
5.35547e-05
5.35368e-05
5.14162e-05
5.14179e-05
5.14243e-05
5.14259e-05
5.14149e-05
5.1418e-05
5.14236e-05
5.35432e-05
5.35276e-05
5.14175e-05
5.14294e-05
5.14247e-05
5.35239e-05
5.35497e-05
5.35354e-05
5.14249e-05
5.14152e-05
5.1426e-05
5.14164e-05
5.35597e-05
5.3533e-05
5.14242e-05
5.14262e-05
5.14255e-05
5.14265e-05
5.14245e-05
5.14187e-05
5.14248e-05
5.35461e-05
5.35044e-05
5.14243e-05
5.14288e-05
5.14242e-05
5.35009e-05
5.35496e-05
5.35295e-05
5.14264e-05
5.14169e-05
5.14253e-05
5.14155e-05
5.35481e-05
5.35223e-05
5.1426e-05
5.14267e-05
5.14258e-05
5.14245e-05
5.14248e-05
5.1417e-05
5.14219e-05
5.35261e-05
5.34982e-05
5.14243e-05
5.14269e-05
5.14227e-05
5.35043e-05
5.35522e-05
5.35245e-05
5.14255e-05
5.14155e-05
5.14233e-05
5.14128e-05
5.35361e-05
5.35011e-05
5.14261e-05
5.14244e-05
5.14239e-05
5.14203e-05
5.14218e-05
5.14136e-05
5.14198e-05
5.35239e-05
5.35055e-05
5.1423e-05
5.14257e-05
5.14219e-05
5.3497e-05
5.35439e-05
5.35197e-05
5.14233e-05
5.14131e-05
5.14201e-05
5.14105e-05
5.35248e-05
5.34985e-05
5.14238e-05
5.14196e-05
5.14196e-05
5.1416e-05
5.14204e-05
5.14106e-05
5.14185e-05
5.35203e-05
5.3508e-05
5.14224e-05
5.14229e-05
5.14208e-05
5.35178e-05
5.35341e-05
5.3518e-05
5.14205e-05
5.1411e-05
5.14182e-05
5.14083e-05
5.35193e-05
5.34958e-05
5.14194e-05
5.14161e-05
5.14155e-05
5.14127e-05
5.14188e-05
5.1408e-05
5.14155e-05
5.35225e-05
5.35145e-05
5.14213e-05
5.14193e-05
5.14186e-05
5.35072e-05
5.35323e-05
5.35057e-05
5.14194e-05
5.14093e-05
5.1417e-05
5.14075e-05
5.35169e-05
5.35078e-05
5.14161e-05
5.14136e-05
5.14122e-05
5.14111e-05
5.14161e-05
5.14053e-05
5.14124e-05
5.35293e-05
5.35264e-05
5.14196e-05
5.1417e-05
5.14158e-05
5.35024e-05
5.3523e-05
5.35033e-05
5.14183e-05
5.14091e-05
5.14152e-05
5.14058e-05
5.35233e-05
5.34886e-05
5.14132e-05
5.14128e-05
5.14089e-05
5.14106e-05
5.14138e-05
5.14031e-05
5.14118e-05
5.35441e-05
5.35388e-05
5.14169e-05
5.14162e-05
5.14139e-05
5.35193e-05
5.35276e-05
5.35224e-05
5.14173e-05
5.14077e-05
5.14152e-05
5.14043e-05
5.3506e-05
5.35015e-05
5.14108e-05
5.14128e-05
5.14077e-05
5.14105e-05
5.14144e-05
5.1403e-05
5.14126e-05
5.35548e-05
5.35468e-05
5.14163e-05
5.14169e-05
5.14141e-05
5.3534e-05
5.3543e-05
5.35398e-05
5.14189e-05
5.14075e-05
5.14182e-05
5.14045e-05
5.35198e-05
5.35084e-05
5.14111e-05
5.14141e-05
5.14088e-05
5.14119e-05
5.14162e-05
5.14041e-05
5.14139e-05
5.3562e-05
5.3548e-05
5.14176e-05
5.14189e-05
5.14158e-05
5.3546e-05
5.35623e-05
5.35296e-05
5.14234e-05
5.14089e-05
5.14203e-05
5.14047e-05
5.35275e-05
5.34985e-05
5.14136e-05
5.14167e-05
5.14109e-05
5.14145e-05
5.14187e-05
5.14046e-05
5.14162e-05
5.35688e-05
5.35547e-05
5.14208e-05
5.14224e-05
5.1419e-05
5.35527e-05
5.35549e-05
5.35275e-05
5.14266e-05
5.14105e-05
5.14227e-05
5.14057e-05
5.35163e-05
5.35002e-05
5.14175e-05
5.14211e-05
5.14149e-05
5.14177e-05
5.14227e-05
5.14046e-05
5.14192e-05
5.3571e-05
5.35314e-05
5.14257e-05
5.14255e-05
5.14229e-05
5.35419e-05
5.35465e-05
5.35108e-05
5.14309e-05
5.14138e-05
5.14219e-05
5.14044e-05
5.35223e-05
5.34884e-05
5.14234e-05
5.14262e-05
5.14148e-05
5.14175e-05
5.14273e-05
5.14023e-05
5.14175e-05
5.35513e-05
5.35091e-05
5.14312e-05
5.1425e-05
5.14219e-05
5.35082e-05
5.35171e-05
5.33199e-05
5.14156e-05
5.13982e-05
5.1295e-05
5.12789e-05
5.34972e-05
5.3303e-05
5.14085e-05
5.14114e-05
5.12892e-05
5.12912e-05
5.14102e-05
5.12765e-05
5.12893e-05
5.35262e-05
5.33277e-05
5.14148e-05
5.12989e-05
5.12955e-05
5.33203e-05
5.31538e-05
5.01418e-05
5.01238e-05
5.31257e-05
5.01372e-05
5.01277e-05
3.79052e-05
3.79118e-05
3.79115e-05
5.01236e-05
5.31464e-05
5.01296e-05
6.86285e-05
7.31294e-05
7.0833e-05
6.85906e-05
7.31301e-05
3.78645e-05
3.78488e-05
3.78535e-05
3.78396e-05
6.05786e-05
5.10487e-05
6.48125e-05
4.60814e-05
7.08297e-05
6.05636e-05
5.10482e-05
4.60754e-05
6.48247e-05
5.32232e-05
6.98738e-05
6.99122e-05
6.86593e-05
7.31439e-05
6.86501e-05
7.31542e-05
7.08391e-05
7.08496e-05
6.86162e-05
7.31448e-05
6.86084e-05
7.31562e-05
3.78864e-05
3.78916e-05
3.78771e-05
3.80211e-05
3.80035e-05
3.80097e-05
3.79971e-05
6.06425e-05
6.48433e-05
4.61798e-05
5.11474e-05
6.06175e-05
6.48628e-05
4.62065e-05
7.0839e-05
7.08519e-05
6.06276e-05
4.61744e-05
6.48395e-05
5.11459e-05
6.06031e-05
4.62011e-05
6.48439e-05
6.98986e-05
6.99224e-05
5.33112e-05
6.99085e-05
6.9927e-05
6.86779e-05
7.31651e-05
6.86745e-05
7.31717e-05
7.08532e-05
7.0863e-05
6.86442e-05
7.31691e-05
6.8633e-05
7.31764e-05
3.80297e-05
3.80362e-05
3.80234e-05
3.81422e-05
3.8126e-05
3.81333e-05
3.81233e-05
6.07044e-05
6.48807e-05
4.6295e-05
5.12318e-05
6.06779e-05
6.48858e-05
4.63146e-05
7.08585e-05
7.08698e-05
6.06851e-05
4.62892e-05
6.48457e-05
5.1228e-05
6.06639e-05
4.63088e-05
6.48489e-05
6.99319e-05
6.99446e-05
5.3387e-05
6.99433e-05
6.99565e-05
6.86686e-05
7.31791e-05
6.86695e-05
7.31849e-05
7.08673e-05
7.08773e-05
6.86879e-05
7.31862e-05
6.86684e-05
7.31923e-05
3.81448e-05
3.81523e-05
3.81424e-05
3.82322e-05
3.82172e-05
3.82266e-05
3.82178e-05
6.07744e-05
6.48994e-05
4.63855e-05
5.12964e-05
6.07459e-05
6.49085e-05
4.63985e-05
7.08735e-05
7.08825e-05
6.07342e-05
4.63803e-05
6.48668e-05
5.12943e-05
6.07089e-05
4.63942e-05
6.48855e-05
6.996e-05
6.99743e-05
5.34516e-05
6.99717e-05
6.99773e-05
6.86866e-05
7.31917e-05
6.86727e-05
7.31978e-05
7.08805e-05
7.08896e-05
6.87138e-05
7.32015e-05
6.87097e-05
7.32107e-05
3.82298e-05
3.82397e-05
3.82308e-05
3.82991e-05
3.82858e-05
3.82975e-05
3.829e-05
6.07641e-05
6.49233e-05
4.64511e-05
5.13418e-05
6.07631e-05
6.49268e-05
4.64589e-05
7.08837e-05
7.08929e-05
6.076e-05
4.64509e-05
6.49127e-05
5.13472e-05
6.07416e-05
4.64599e-05
6.49269e-05
6.99805e-05
6.99764e-05
5.34906e-05
6.99798e-05
6.99831e-05
6.87198e-05
7.32048e-05
6.87053e-05
7.32111e-05
7.08907e-05
7.08984e-05
6.87152e-05
7.32134e-05
6.87114e-05
7.32201e-05
3.82948e-05
3.8307e-05
3.82998e-05
3.83492e-05
3.83369e-05
3.83502e-05
3.83466e-05
6.08057e-05
6.49342e-05
4.65012e-05
5.13745e-05
6.07754e-05
6.49434e-05
4.65066e-05
7.08941e-05
7.09022e-05
6.08004e-05
4.65036e-05
6.49439e-05
5.13854e-05
6.07949e-05
4.65089e-05
6.49525e-05
6.99791e-05
6.99991e-05
5.35122e-05
6.99839e-05
7.00029e-05
6.87517e-05
7.32194e-05
6.87397e-05
7.32235e-05
7.08972e-05
7.09037e-05
6.87446e-05
7.3226e-05
6.87327e-05
7.32296e-05
3.83418e-05
3.83554e-05
3.83528e-05
3.83838e-05
3.83697e-05
3.83853e-05
3.83859e-05
6.08319e-05
6.49538e-05
4.654e-05
5.13986e-05
6.08331e-05
6.49601e-05
4.65421e-05
7.09005e-05
7.09072e-05
6.08014e-05
4.65432e-05
6.49591e-05
5.14108e-05
6.07898e-05
4.65459e-05
6.49614e-05
7.0001e-05
7.00152e-05
5.3517e-05
7.00096e-05
7.00186e-05
6.87551e-05
7.32292e-05
6.87501e-05
7.32342e-05
7.09004e-05
7.0906e-05
6.87693e-05
7.32372e-05
6.87663e-05
7.32403e-05
3.83722e-05
3.83885e-05
3.83885e-05
3.84047e-05
3.83902e-05
3.8408e-05
3.84097e-05
6.08445e-05
6.49606e-05
4.65651e-05
5.14119e-05
6.08242e-05
6.49661e-05
4.65654e-05
7.09044e-05
7.09104e-05
6.08695e-05
4.65708e-05
6.49732e-05
5.14255e-05
6.0839e-05
4.6571e-05
6.49797e-05
7.00164e-05
7.00217e-05
5.35219e-05
7.00172e-05
7.0028e-05
6.87686e-05
7.3236e-05
6.87651e-05
7.32381e-05
7.09029e-05
7.09085e-05
6.87601e-05
7.32399e-05
6.876e-05
7.32418e-05
3.83899e-05
3.84077e-05
3.84102e-05
3.84117e-05
3.83992e-05
3.84196e-05
3.84216e-05
6.08783e-05
6.49678e-05
4.65793e-05
5.14183e-05
6.08738e-05
6.49712e-05
4.65782e-05
7.09058e-05
7.09112e-05
6.08707e-05
4.65838e-05
6.49809e-05
5.14293e-05
6.08751e-05
4.65822e-05
6.49779e-05
7.00179e-05
7.00339e-05
5.35207e-05
7.00167e-05
7.00332e-05
6.87581e-05
7.32383e-05
6.87621e-05
7.32406e-05
7.09043e-05
7.09102e-05
6.87682e-05
7.32426e-05
6.87539e-05
7.32453e-05
3.83976e-05
3.84167e-05
3.84202e-05
3.84136e-05
3.84026e-05
3.84209e-05
3.84248e-05
6.08562e-05
6.49699e-05
4.6582e-05
5.14181e-05
6.08605e-05
6.49659e-05
4.65818e-05
7.0906e-05
7.09114e-05
6.08447e-05
4.65882e-05
6.4981e-05
5.14277e-05
6.08519e-05
4.65875e-05
6.49834e-05
7.00165e-05
7.00309e-05
5.35019e-05
7.00142e-05
7.00269e-05
6.87756e-05
7.3241e-05
6.87628e-05
7.32435e-05
7.09062e-05
7.09118e-05
6.8804e-05
7.32458e-05
6.87937e-05
7.32475e-05
3.8401e-05
3.84224e-05
3.84251e-05
3.8415e-05
3.84036e-05
3.84229e-05
3.84278e-05
6.08416e-05
6.49728e-05
4.65832e-05
5.14153e-05
6.08373e-05
6.49746e-05
4.65826e-05
7.09061e-05
7.09114e-05
6.08601e-05
4.65921e-05
6.49712e-05
5.14263e-05
6.08516e-05
4.65921e-05
6.49765e-05
7.00121e-05
7.00258e-05
5.35015e-05
7.00129e-05
7.00272e-05
6.87971e-05
7.32429e-05
6.87931e-05
7.3244e-05
7.09074e-05
7.09137e-05
6.87943e-05
7.32454e-05
6.87972e-05
7.32458e-05
3.84043e-05
3.84231e-05
3.84285e-05
3.84155e-05
3.84046e-05
3.84227e-05
3.84285e-05
6.08891e-05
6.49682e-05
4.65828e-05
5.1412e-05
6.08643e-05
6.49651e-05
4.65816e-05
7.09066e-05
7.09131e-05
6.08505e-05
4.65966e-05
6.4978e-05
5.14248e-05
6.08504e-05
4.65965e-05
6.4975e-05
7.00209e-05
7.0031e-05
5.35125e-05
7.00122e-05
7.00299e-05
6.87953e-05
7.32421e-05
6.87954e-05
7.32436e-05
7.09094e-05
7.09155e-05
6.87832e-05
7.32428e-05
6.87854e-05
7.32438e-05
3.84052e-05
3.84226e-05
3.84289e-05
3.84162e-05
3.84058e-05
3.84212e-05
3.8428e-05
6.08856e-05
6.49646e-05
4.65808e-05
5.14094e-05
6.0892e-05
6.49644e-05
4.65788e-05
7.0907e-05
7.09132e-05
6.09059e-05
4.65988e-05
6.49754e-05
5.14209e-05
6.08824e-05
4.65975e-05
6.4979e-05
7.00123e-05
7.00311e-05
5.35071e-05
7.00094e-05
7.00283e-05
6.87843e-05
7.32417e-05
6.87888e-05
7.32432e-05
7.09094e-05
7.09164e-05
6.87754e-05
7.32422e-05
6.87763e-05
7.32443e-05
3.84064e-05
3.84212e-05
3.84282e-05
3.84165e-05
3.84071e-05
3.84194e-05
3.84267e-05
6.08656e-05
6.49663e-05
4.65771e-05
5.14065e-05
6.08697e-05
6.49661e-05
4.65747e-05
7.09077e-05
7.09157e-05
6.09014e-05
4.65961e-05
6.49816e-05
5.1418e-05
6.09059e-05
4.65932e-05
6.49773e-05
7.00125e-05
7.00316e-05
5.35053e-05
7.00092e-05
7.00281e-05
6.87645e-05
7.32407e-05
6.87677e-05
7.32424e-05
7.09096e-05
7.09182e-05
6.87897e-05
7.32434e-05
6.87872e-05
7.32463e-05
3.84082e-05
3.84195e-05
3.84269e-05
3.84162e-05
3.84085e-05
3.84176e-05
3.84252e-05
6.0836e-05
6.49702e-05
4.65741e-05
5.14041e-05
6.08474e-05
6.49688e-05
4.65721e-05
7.09089e-05
7.09179e-05
6.08881e-05
4.6589e-05
6.49817e-05
5.14163e-05
6.08899e-05
4.65849e-05
6.49823e-05
7.00135e-05
7.00323e-05
5.35096e-05
7.0009e-05
7.0027e-05
6.8751e-05
7.3239e-05
6.87531e-05
7.32417e-05
7.09093e-05
7.09203e-05
6.87784e-05
7.32438e-05
6.8781e-05
7.32466e-05
3.84095e-05
3.84179e-05
3.84255e-05
3.84163e-05
3.84097e-05
3.84162e-05
3.84238e-05
6.08238e-05
6.49775e-05
4.65744e-05
5.14027e-05
6.08179e-05
6.49755e-05
4.65726e-05
7.09085e-05
7.09199e-05
6.0871e-05
4.65825e-05
6.49882e-05
5.14164e-05
6.08762e-05
4.65791e-05
6.49845e-05
7.00194e-05
7.00352e-05
5.35274e-05
7.00127e-05
7.00279e-05
6.87626e-05
7.32386e-05
6.875e-05
7.32442e-05
7.0908e-05
7.09232e-05
6.87613e-05
7.32427e-05
6.87632e-05
7.32472e-05
3.84109e-05
3.84169e-05
3.84244e-05
3.84176e-05
3.84111e-05
3.84158e-05
3.84227e-05
6.08813e-05
6.49889e-05
4.65766e-05
5.14035e-05
6.08575e-05
6.49818e-05
4.6574e-05
7.09077e-05
7.09233e-05
6.08463e-05
4.6579e-05
6.49955e-05
5.14176e-05
6.08564e-05
4.65756e-05
6.4988e-05
7.00284e-05
7.00431e-05
5.35417e-05
7.00172e-05
7.00312e-05
6.87714e-05
7.32401e-05
6.87735e-05
7.32486e-05
7.09063e-05
7.09283e-05
6.8746e-05
7.32418e-05
6.87492e-05
7.32501e-05
3.84127e-05
3.84173e-05
3.84237e-05
3.84199e-05
3.84122e-05
3.8417e-05
3.84223e-05
6.08792e-05
6.50012e-05
4.65763e-05
5.14045e-05
6.08811e-05
6.49835e-05
4.65719e-05
7.09062e-05
7.09284e-05
6.0825e-05
4.65789e-05
6.50076e-05
5.14205e-05
6.08258e-05
4.65751e-05
6.49914e-05
7.00415e-05
7.00547e-05
5.35487e-05
7.00215e-05
7.00346e-05
6.87559e-05
7.32402e-05
6.87577e-05
7.32549e-05
7.09045e-05
7.09363e-05
6.87701e-05
7.32426e-05
6.87609e-05
7.32581e-05
3.84139e-05
3.8419e-05
3.84239e-05
3.84227e-05
3.84128e-05
3.84191e-05
3.84229e-05
6.08429e-05
6.50159e-05
4.65731e-05
5.14044e-05
6.08562e-05
6.49789e-05
4.65672e-05
7.09042e-05
7.09361e-05
6.08424e-05
4.65798e-05
6.50265e-05
5.14239e-05
6.08406e-05
4.65751e-05
6.4991e-05
7.00583e-05
7.00714e-05
5.35537e-05
7.00263e-05
7.00398e-05
6.87513e-05
7.32396e-05
6.87465e-05
7.32676e-05
7.0903e-05
7.0947e-05
6.87668e-05
7.3244e-05
6.87657e-05
7.32723e-05
3.84144e-05
3.84212e-05
3.84245e-05
3.84144e-05
3.84024e-05
3.84103e-05
3.84122e-05
6.083e-05
6.50437e-05
4.65692e-05
5.14047e-05
6.08437e-05
6.49665e-05
4.6561e-05
7.09026e-05
7.09469e-05
6.08318e-05
4.65803e-05
6.50568e-05
5.14267e-05
6.08418e-05
4.65727e-05
6.49798e-05
7.00816e-05
7.00963e-05
5.35257e-05
7.00327e-05
7.00483e-05
6.87331e-05
7.32366e-05
6.87385e-05
7.32928e-05
7.09027e-05
7.0962e-05
6.87338e-05
7.32411e-05
6.87441e-05
7.32971e-05
3.84037e-05
3.84119e-05
3.84131e-05
3.79755e-05
3.79628e-05
3.79698e-05
3.79694e-05
6.07667e-05
6.5094e-05
4.65535e-05
5.13967e-05
6.08356e-05
6.49108e-05
4.64941e-05
7.09029e-05
7.09625e-05
6.07789e-05
4.65684e-05
6.51077e-05
5.14201e-05
6.08446e-05
4.65092e-05
6.49247e-05
7.01008e-05
7.01173e-05
5.34838e-05
6.9991e-05
7.00077e-05
6.47833e-05
7.30737e-05
6.85501e-05
7.41209e-05
7.09188e-05
6.57046e-05
6.47785e-05
7.3076e-05
6.85454e-05
7.41265e-05
2.12231e-05
3.05096e-05
3.04994e-05
3.94539e-05
2.17514e-05
3.14096e-05
3.13565e-05
6.04958e-05
6.47837e-05
4.63001e-05
4.86177e-05
6.05706e-05
6.64434e-05
4.41029e-05
7.09198e-05
6.57049e-05
6.05099e-05
4.63169e-05
6.4796e-05
4.8663e-05
6.05851e-05
4.41152e-05
6.64543e-05
6.93873e-05
6.9405e-05
5.27134e-05
7.08144e-05
7.08318e-05
7.08341e-05
7.08358e-05
5.32622e-05
6.99086e-05
6.9915e-05
7.08447e-05
7.0832e-05
7.08467e-05
7.08338e-05
5.32968e-05
6.99267e-05
6.99326e-05
6.99154e-05
6.99203e-05
6.86326e-05
7.31322e-05
6.06198e-05
5.10495e-05
6.48117e-05
4.60732e-05
6.06335e-05
5.10373e-05
6.48371e-05
4.60708e-05
6.86361e-05
7.31437e-05
7.31297e-05
6.86484e-05
6.86394e-05
7.3142e-05
7.31323e-05
6.86583e-05
6.06355e-05
5.1075e-05
6.48383e-05
4.61381e-05
6.48175e-05
4.6103e-05
6.06552e-05
6.06483e-05
5.10608e-05
6.48493e-05
4.61349e-05
6.48382e-05
4.60995e-05
6.0665e-05
5.32518e-05
6.99234e-05
6.99095e-05
7.08366e-05
7.08418e-05
7.08305e-05
5.32854e-05
6.99355e-05
6.99234e-05
6.993e-05
6.99139e-05
7.08465e-05
7.0834e-05
6.05718e-05
5.10482e-05
6.48077e-05
4.60704e-05
6.85815e-05
7.31146e-05
6.05619e-05
5.10328e-05
4.60649e-05
6.47731e-05
6.85948e-05
7.31434e-05
7.31342e-05
6.8605e-05
6.05847e-05
5.1074e-05
6.48314e-05
4.61358e-05
6.48141e-05
4.61002e-05
6.06072e-05
6.85848e-05
7.3129e-05
7.3117e-05
6.8597e-05
6.05679e-05
5.10574e-05
4.613e-05
6.47991e-05
4.6094e-05
6.47795e-05
6.05847e-05
6.86029e-05
7.31375e-05
6.05827e-05
5.10214e-05
4.60697e-05
6.4779e-05
6.86029e-05
7.31203e-05
6.05893e-05
5.10753e-05
6.48372e-05
4.61463e-05
6.48194e-05
4.61147e-05
6.0613e-05
6.86098e-05
7.31509e-05
7.31406e-05
6.86277e-05
6.05949e-05
5.10462e-05
4.61363e-05
6.48001e-05
4.61004e-05
6.47844e-05
6.06236e-05
6.86104e-05
7.31359e-05
7.31217e-05
6.8629e-05
5.32531e-05
6.98928e-05
6.99108e-05
7.08336e-05
7.08413e-05
7.08275e-05
5.32851e-05
6.99085e-05
6.99187e-05
6.98994e-05
6.99145e-05
7.08429e-05
7.08312e-05
6.05673e-05
5.10242e-05
4.60667e-05
6.48066e-05
6.85891e-05
7.3128e-05
6.85946e-05
7.31288e-05
6.05784e-05
5.10748e-05
4.61408e-05
6.48335e-05
4.6109e-05
6.48287e-05
6.05958e-05
6.05814e-05
5.10489e-05
4.61322e-05
6.48293e-05
4.6097e-05
6.48173e-05
6.06013e-05
6.85964e-05
7.31386e-05
7.3131e-05
6.86086e-05
6.86014e-05
7.31425e-05
7.31314e-05
6.8616e-05
7.08261e-05
7.08354e-05
5.32543e-05
6.98947e-05
6.99209e-05
6.98799e-05
6.9917e-05
7.08384e-05
7.08244e-05
7.08455e-05
7.08332e-05
7.08423e-05
7.08542e-05
7.08444e-05
7.08566e-05
6.99315e-05
6.99363e-05
5.33487e-05
6.99473e-05
6.99511e-05
7.08621e-05
7.08516e-05
7.08647e-05
7.0854e-05
5.33806e-05
6.99606e-05
6.99648e-05
6.99495e-05
6.99536e-05
6.86694e-05
7.31422e-05
6.86575e-05
7.31521e-05
6.06637e-05
6.48447e-05
4.61685e-05
5.11515e-05
6.06534e-05
6.48621e-05
4.61991e-05
6.06648e-05
6.48498e-05
4.61645e-05
5.11348e-05
6.0657e-05
6.48556e-05
4.6195e-05
6.86608e-05
7.31652e-05
7.31542e-05
6.86741e-05
6.86691e-05
7.31591e-05
7.31493e-05
6.86717e-05
6.06691e-05
5.11761e-05
6.4883e-05
4.6255e-05
6.48687e-05
4.62289e-05
6.06876e-05
6.06615e-05
5.11587e-05
6.48635e-05
4.625e-05
6.48597e-05
4.62241e-05
6.06885e-05
6.99392e-05
6.99269e-05
5.33346e-05
6.99432e-05
6.99413e-05
7.08437e-05
7.08558e-05
7.08564e-05
7.08465e-05
5.33644e-05
6.99421e-05
6.99549e-05
6.99445e-05
6.99456e-05
7.08637e-05
7.08529e-05
6.06334e-05
6.48344e-05
4.61665e-05
5.11511e-05
6.06035e-05
6.48526e-05
4.61982e-05
6.86075e-05
7.31309e-05
6.85988e-05
7.31422e-05
6.06059e-05
4.61606e-05
6.48046e-05
5.11354e-05
6.05916e-05
4.61923e-05
6.48245e-05
6.86184e-05
7.31686e-05
7.31595e-05
6.8629e-05
6.06429e-05
5.11763e-05
6.48779e-05
4.62558e-05
6.48584e-05
4.62286e-05
6.06583e-05
6.86109e-05
7.3157e-05
7.31423e-05
6.86196e-05
6.06116e-05
5.11602e-05
4.625e-05
6.48439e-05
4.62229e-05
6.48278e-05
6.06291e-05
6.86439e-05
7.31503e-05
6.86257e-05
7.31622e-05
6.06638e-05
4.61685e-05
6.4804e-05
5.11257e-05
6.06331e-05
4.62004e-05
6.48249e-05
6.86493e-05
7.31343e-05
6.86291e-05
7.31483e-05
6.06461e-05
5.11743e-05
6.48751e-05
4.62674e-05
6.48645e-05
4.62408e-05
6.06722e-05
6.86481e-05
7.31692e-05
7.31616e-05
6.86569e-05
6.06745e-05
5.11514e-05
4.62593e-05
6.48435e-05
4.62322e-05
6.48249e-05
6.06816e-05
6.86509e-05
7.31598e-05
7.31514e-05
6.86633e-05
6.99154e-05
6.99254e-05
5.33405e-05
6.99256e-05
6.9929e-05
7.08404e-05
7.08515e-05
7.08614e-05
7.08492e-05
5.33706e-05
6.99396e-05
6.99264e-05
6.99285e-05
6.99299e-05
7.08596e-05
7.08488e-05
6.06346e-05
4.61638e-05
6.48297e-05
5.11259e-05
6.06037e-05
4.61951e-05
6.48333e-05
6.86264e-05
7.31379e-05
6.86122e-05
7.31475e-05
6.86368e-05
7.31423e-05
6.86191e-05
7.31546e-05
6.06345e-05
5.11723e-05
4.62618e-05
6.48494e-05
4.62353e-05
6.48428e-05
6.06545e-05
6.06428e-05
5.11507e-05
4.62537e-05
6.48479e-05
4.62267e-05
6.48379e-05
6.06709e-05
6.86293e-05
7.31591e-05
7.31469e-05
6.86472e-05
6.86411e-05
7.31657e-05
7.31535e-05
6.86562e-05
7.08365e-05
7.08496e-05
7.0843e-05
7.08551e-05
5.33425e-05
6.99276e-05
6.99415e-05
6.99137e-05
6.99296e-05
7.08598e-05
7.08475e-05
7.08645e-05
7.08527e-05
7.08591e-05
7.08685e-05
7.08617e-05
7.08713e-05
6.99628e-05
6.99678e-05
5.34189e-05
6.99636e-05
6.99658e-05
7.08738e-05
7.08652e-05
7.08776e-05
7.08681e-05
5.34446e-05
6.99691e-05
6.99704e-05
6.99693e-05
6.99689e-05
6.86704e-05
7.31579e-05
6.86706e-05
7.3167e-05
6.07033e-05
6.48818e-05
4.62764e-05
5.12314e-05
6.06876e-05
6.48938e-05
4.6301e-05
6.07058e-05
6.48591e-05
4.62712e-05
5.12155e-05
6.06906e-05
6.48596e-05
4.62968e-05
6.86767e-05
7.31794e-05
7.31734e-05
6.86712e-05
6.86686e-05
7.31779e-05
7.31677e-05
6.86735e-05
6.07053e-05
5.12509e-05
6.48969e-05
4.63451e-05
6.48914e-05
4.63251e-05
6.07288e-05
6.07002e-05
5.12353e-05
6.48705e-05
4.63421e-05
6.48645e-05
4.63213e-05
6.07062e-05
6.99397e-05
6.99572e-05
5.34064e-05
6.99392e-05
6.99585e-05
7.08603e-05
7.08701e-05
7.08703e-05
7.086e-05
5.34285e-05
6.99491e-05
6.9959e-05
6.99406e-05
6.99601e-05
7.08761e-05
7.08665e-05
6.06637e-05
6.4877e-05
4.62781e-05
5.12329e-05
6.06583e-05
6.4886e-05
4.63041e-05
6.86364e-05
7.31573e-05
6.86235e-05
7.31662e-05
6.06507e-05
4.62726e-05
6.48503e-05
5.12209e-05
6.06307e-05
4.62992e-05
6.48688e-05
6.86497e-05
7.31845e-05
7.31763e-05
6.8666e-05
6.0668e-05
5.12532e-05
6.49e-05
4.6351e-05
6.48858e-05
4.63293e-05
6.0692e-05
6.86411e-05
7.31755e-05
7.31653e-05
6.86578e-05
6.06552e-05
5.12415e-05
4.63467e-05
6.48842e-05
4.63248e-05
6.48697e-05
6.0681e-05
6.86768e-05
7.31686e-05
6.86613e-05
7.31788e-05
6.07159e-05
4.62827e-05
6.48471e-05
5.12152e-05
6.06893e-05
4.63087e-05
6.48658e-05
6.86784e-05
7.31597e-05
6.8667e-05
7.31711e-05
6.07131e-05
5.12541e-05
6.48942e-05
4.63642e-05
6.48855e-05
4.63433e-05
6.07426e-05
6.86824e-05
7.31869e-05
7.31801e-05
6.87014e-05
6.07182e-05
5.1237e-05
4.63555e-05
6.48893e-05
4.63346e-05
6.48699e-05
6.07336e-05
6.86807e-05
7.31789e-05
7.31728e-05
6.8695e-05
6.99444e-05
6.99306e-05
5.34094e-05
6.99526e-05
6.99332e-05
7.0857e-05
7.0868e-05
7.08771e-05
7.08666e-05
5.3436e-05
6.99702e-05
6.99452e-05
6.99567e-05
6.99354e-05
7.08763e-05
7.08653e-05
6.0698e-05
4.62772e-05
6.48503e-05
5.12128e-05
6.06819e-05
4.63036e-05
6.48675e-05
6.86612e-05
7.31578e-05
6.86481e-05
7.3169e-05
6.8671e-05
7.3167e-05
6.8662e-05
7.31752e-05
6.06895e-05
5.12502e-05
4.63583e-05
6.48636e-05
4.63375e-05
6.48543e-05
6.07084e-05
6.06923e-05
5.12345e-05
4.63515e-05
6.48873e-05
4.63299e-05
6.48696e-05
6.06968e-05
6.86627e-05
7.3181e-05
7.31717e-05
6.86687e-05
6.86704e-05
7.31848e-05
7.31762e-05
6.86714e-05
7.08573e-05
7.08686e-05
7.08619e-05
7.08728e-05
5.34167e-05
6.99557e-05
6.99686e-05
6.99452e-05
6.99604e-05
7.08762e-05
7.08658e-05
7.08797e-05
7.08699e-05
7.08703e-05
7.08788e-05
7.08744e-05
7.08838e-05
6.99702e-05
6.9971e-05
5.34589e-05
6.99707e-05
6.9971e-05
7.08839e-05
7.08754e-05
7.08902e-05
7.08805e-05
5.3482e-05
6.99695e-05
6.99778e-05
6.99714e-05
6.99707e-05
6.86759e-05
7.31782e-05
6.86731e-05
7.31867e-05
6.07348e-05
6.49007e-05
4.6361e-05
5.12907e-05
6.07292e-05
6.49065e-05
4.63793e-05
6.0735e-05
6.48745e-05
4.63585e-05
5.12798e-05
6.07127e-05
6.48782e-05
4.63779e-05
6.86677e-05
7.319e-05
7.3185e-05
6.86719e-05
6.86719e-05
7.31927e-05
7.31859e-05
6.86746e-05
6.07326e-05
5.13064e-05
6.49088e-05
4.64142e-05
6.49085e-05
4.63991e-05
6.07331e-05
6.073e-05
5.12958e-05
6.48896e-05
4.64133e-05
6.48839e-05
4.63981e-05
6.07412e-05
6.99508e-05
6.99578e-05
5.34505e-05
6.99583e-05
6.99593e-05
7.08723e-05
7.08818e-05
7.08838e-05
7.08741e-05
5.34715e-05
6.99707e-05
6.99718e-05
6.99615e-05
6.99638e-05
7.08877e-05
7.08782e-05
6.07231e-05
6.49017e-05
4.63681e-05
5.12934e-05
6.07008e-05
6.4904e-05
4.63878e-05
6.86817e-05
7.31746e-05
6.86622e-05
7.3185e-05
6.0719e-05
4.63643e-05
6.48866e-05
5.12872e-05
6.06918e-05
4.63848e-05
6.48935e-05
6.86907e-05
7.32012e-05
7.31926e-05
6.87092e-05
6.07311e-05
5.13094e-05
6.49088e-05
4.64244e-05
6.49035e-05
4.64084e-05
6.07667e-05
6.86863e-05
7.31931e-05
7.31852e-05
6.87007e-05
6.07242e-05
5.13034e-05
4.64223e-05
6.48966e-05
4.64061e-05
6.48938e-05
6.0753e-05
6.87042e-05
7.31886e-05
6.87021e-05
7.31953e-05
6.07619e-05
4.63727e-05
6.48901e-05
5.12859e-05
6.07354e-05
4.63915e-05
6.49016e-05
6.86948e-05
7.31803e-05
6.86953e-05
7.3188e-05
6.07745e-05
5.13135e-05
6.4917e-05
4.64356e-05
6.49089e-05
4.64209e-05
6.0775e-05
6.87028e-05
7.32022e-05
7.31969e-05
6.86948e-05
6.0762e-05
5.1303e-05
4.64264e-05
6.49068e-05
4.6412e-05
6.49064e-05
6.0764e-05
6.86916e-05
7.31956e-05
7.31858e-05
6.86868e-05
6.9973e-05
6.9951e-05
5.34482e-05
6.99707e-05
6.99605e-05
7.08735e-05
7.08838e-05
7.08875e-05
7.08786e-05
5.34781e-05
6.99682e-05
6.99761e-05
6.99703e-05
6.99638e-05
7.08905e-05
7.08808e-05
6.07198e-05
4.63697e-05
6.48931e-05
5.12834e-05
6.07037e-05
4.63897e-05
6.49038e-05
6.86881e-05
7.31813e-05
6.86684e-05
7.319e-05
6.86838e-05
7.31869e-05
6.86721e-05
7.31941e-05
6.07358e-05
5.13129e-05
4.64339e-05
6.49056e-05
4.64179e-05
6.48882e-05
6.07432e-05
6.07293e-05
5.13005e-05
4.64268e-05
6.49098e-05
4.64112e-05
6.49046e-05
6.07448e-05
6.86899e-05
7.31999e-05
7.31917e-05
6.86963e-05
6.86868e-05
7.31999e-05
7.31957e-05
6.86994e-05
7.08731e-05
7.08828e-05
7.08765e-05
7.08854e-05
5.34766e-05
6.99792e-05
6.99766e-05
6.99753e-05
6.99789e-05
7.08878e-05
7.08794e-05
7.08901e-05
7.08819e-05
7.08805e-05
7.08893e-05
7.0887e-05
7.08964e-05
6.99698e-05
6.99801e-05
5.34965e-05
6.99708e-05
6.99894e-05
7.0895e-05
7.0886e-05
7.09013e-05
7.08929e-05
5.35151e-05
6.99809e-05
7.00026e-05
6.99732e-05
6.99929e-05
6.86857e-05
7.31927e-05
6.8677e-05
7.31991e-05
6.07349e-05
6.49088e-05
4.64271e-05
5.13354e-05
6.07314e-05
6.49107e-05
4.64417e-05
6.07347e-05
6.4893e-05
4.64258e-05
5.13291e-05
6.07323e-05
6.49128e-05
4.64408e-05
6.869e-05
7.32034e-05
7.31974e-05
6.87038e-05
6.869e-05
7.32063e-05
7.32006e-05
6.87033e-05
6.07428e-05
5.13489e-05
6.49146e-05
4.64717e-05
6.49106e-05
4.64599e-05
6.07594e-05
6.07416e-05
5.13432e-05
6.49313e-05
4.64702e-05
6.49134e-05
4.64587e-05
6.07553e-05
6.99754e-05
6.99747e-05
5.34832e-05
6.99866e-05
6.99818e-05
7.08839e-05
7.08927e-05
7.08944e-05
7.08861e-05
5.35024e-05
6.99985e-05
6.99904e-05
6.99898e-05
6.99842e-05
7.0897e-05
7.08887e-05
6.07787e-05
6.49104e-05
4.64371e-05
5.13397e-05
6.0769e-05
6.49273e-05
4.6452e-05
6.87044e-05
7.31919e-05
6.8701e-05
7.32026e-05
6.07664e-05
4.64355e-05
6.4902e-05
5.13369e-05
6.07462e-05
4.64511e-05
6.49112e-05
6.87088e-05
7.32137e-05
7.32109e-05
6.87115e-05
6.07708e-05
5.13541e-05
6.49442e-05
4.64809e-05
6.49329e-05
4.64694e-05
6.07756e-05
6.87025e-05
7.32088e-05
7.32026e-05
6.87028e-05
6.07643e-05
5.13512e-05
4.64805e-05
6.49302e-05
4.64691e-05
6.49182e-05
6.07605e-05
6.8692e-05
7.32019e-05
6.86877e-05
7.32063e-05
6.07474e-05
4.64388e-05
6.49117e-05
5.13355e-05
6.07539e-05
4.6453e-05
6.49131e-05
6.86884e-05
7.31956e-05
6.86839e-05
7.32e-05
6.07583e-05
5.13551e-05
6.49349e-05
4.64886e-05
6.49272e-05
4.64773e-05
6.07717e-05
6.86926e-05
7.32116e-05
7.32075e-05
6.87089e-05
6.07524e-05
5.13493e-05
4.64817e-05
6.49112e-05
4.64709e-05
6.49124e-05
6.07654e-05
6.86922e-05
7.32081e-05
7.31989e-05
6.8706e-05
6.99726e-05
6.99806e-05
5.34848e-05
6.99787e-05
6.99918e-05
7.08871e-05
7.08955e-05
7.0898e-05
7.0889e-05
5.35111e-05
6.99936e-05
6.99999e-05
6.99817e-05
6.99927e-05
7.08993e-05
7.08917e-05
6.07704e-05
4.644e-05
6.49151e-05
5.13344e-05
6.0745e-05
4.64547e-05
6.4921e-05
6.87026e-05
7.32017e-05
6.86957e-05
7.32065e-05
6.86995e-05
7.32005e-05
6.86994e-05
7.32075e-05
6.07696e-05
5.13625e-05
4.64907e-05
6.49452e-05
4.64792e-05
6.49331e-05
6.07924e-05
6.07803e-05
5.13487e-05
4.64833e-05
6.49323e-05
4.64725e-05
6.49199e-05
6.07938e-05
6.87028e-05
7.32141e-05
7.32053e-05
6.87035e-05
6.86966e-05
7.32119e-05
7.32075e-05
6.87029e-05
7.08841e-05
7.08916e-05
7.08865e-05
7.08951e-05
5.35118e-05
6.99788e-05
6.99938e-05
6.99803e-05
6.99852e-05
7.08954e-05
7.08877e-05
7.09001e-05
7.08916e-05
7.08916e-05
7.09001e-05
7.08975e-05
7.09052e-05
6.99862e-05
7.0006e-05
5.35166e-05
6.99936e-05
7.00135e-05
7.09043e-05
7.08964e-05
7.09084e-05
7.09012e-05
5.35326e-05
7.00027e-05
7.00234e-05
6.99975e-05
7.00148e-05
6.8725e-05
7.32057e-05
6.87087e-05
7.32148e-05
6.0786e-05
6.49223e-05
4.64823e-05
5.13722e-05
6.07686e-05
6.49378e-05
4.64938e-05
6.07854e-05
6.49315e-05
4.64806e-05
5.13686e-05
6.07651e-05
6.4944e-05
4.64926e-05
6.87231e-05
7.32194e-05
7.32102e-05
6.87377e-05
6.8728e-05
7.32189e-05
7.32148e-05
6.87446e-05
6.07953e-05
5.13845e-05
6.49553e-05
4.65171e-05
6.49433e-05
4.65092e-05
6.08188e-05
6.07944e-05
5.13804e-05
6.49582e-05
4.6516e-05
6.495e-05
4.6508e-05
6.082e-05
7.00026e-05