/*--------------------------------*- C++ -*----------------------------------*\
| =========                 |                                                 |
| \\      /  F ield         | OpenFOAM: The Open Source CFD Toolbox           |
|  \\    /   O peration     | Version:  v1906                                 |
|   \\  /    A nd           | Web:      www.OpenFOAM.com                      |
|    \\/     M anipulation  |                                                 |
\*---------------------------------------------------------------------------*/
FoamFile
{
    version     2.0;
    format      ascii;
    class       volScalarField;
    location    "300";
    object      nut;
}
// * * * * * * * * * * * * * * * * * * * * * * * * * * * * * * * * * * * * * //

dimensions      [0 2 -1 0 0 0 0];


internalField   nonuniform List<scalar> 
43024
(
0.000198576
0.000196138
0.000196127
0.000178759
0.000199427
0.000196611
0.000196595
0.000179041
0.000200045
0.00019696
0.000196941
0.00017933
0.000200473
0.000197198
0.000197201
0.000179573
0.000200773
0.000197361
0.000197396
0.000179691
0.00020097
0.000197477
0.000197508
0.000179752
0.000201103
0.00019755
0.00019758
0.000179721
0.00020119
0.000197578
0.000197596
0.00017975
0.000201187
0.000197593
0.000197604
0.000179641
0.000201171
0.000197595
0.000197607
0.000179655
0.000201174
0.000197597
0.000197615
0.000179697
0.000201185
0.00019759
0.000197611
0.000179752
0.000201217
0.000197592
0.00019761
0.000179691
0.000201225
0.000197597
0.000197616
0.000179677
0.000201233
0.000197601
0.000197627
0.000179829
0.000201252
0.000197617
0.00019764
0.000179898
0.000201275
0.000197634
0.000197657
0.000179908
0.000201304
0.000197644
0.000197674
0.000179921
0.000201333
0.000197655
0.000197689
0.000179833
0.000201332
0.000197577
0.000197615
0.000179661
0.000202196
0.000197896
0.000197871
0.000182172
0.000178842
0.000195922
0.000195871
0.00017888
0.000195936
0.000195853
0.00019598
0.000195836
0.000178899
0.000195967
0.000195859
0.000178767
0.000178798
0.000179232
0.000196072
0.000196014
0.000196445
0.00019638
0.00017883
0.000179203
0.00019609
0.000196003
0.000196463
0.000196377
0.000195987
0.000196485
0.000196361
0.000178799
0.000179239
0.000196007
0.00019647
0.000196374
0.000179141
0.000179182
0.000179495
0.000196525
0.00019646
0.000196809
0.000196746
0.000179107
0.000179463
0.00019655
0.000196464
0.000196835
0.000196763
0.000196451
0.000196867
0.000196763
0.000179128
0.000179446
0.000196462
0.000196843
0.00019677
0.000179441
0.000179344
0.000179668
0.00019686
0.0001968
0.000197062
0.000197008
0.000179309
0.000179618
0.000196888
0.000196822
0.000197088
0.000197037
0.000196827
0.000197134
0.000197047
0.000179355
0.000179559
0.000196835
0.000197123
0.000197058
0.00017962
0.000179529
0.000179777
0.000197092
0.000197039
0.000197247
0.000197209
0.000179471
0.000179738
0.000197121
0.00019707
0.000197286
0.000197243
0.000197081
0.000197314
0.000197251
0.000179534
0.000179727
0.000197093
0.00019734
0.000197266
0.000179756
0.000179607
0.000179853
0.000197269
0.000197232
0.000197401
0.000197366
0.000179588
0.00017981
0.000197309
0.000197265
0.000197435
0.000197391
0.000197271
0.000197446
0.000197408
0.000179642
0.000179759
0.000197291
0.00019748
0.00019743
0.000179809
0.000179679
0.000179903
0.000197412
0.000197379
0.000197506
0.000197465
0.000179688
0.000179875
0.000197446
0.000197408
0.000197529
0.000197502
0.00019742
0.000197531
0.000197511
0.00017974
0.000179791
0.000197445
0.000197561
0.000197538
0.000179809
0.000179722
0.000179898
0.000197511
0.000197467
0.000197575
0.000197531
0.000179769
0.00017993
0.000197533
0.000197503
0.000197594
0.000197559
0.00019751
0.000197571
0.000197574
0.000179708
0.000179816
0.00019754
0.000197592
0.000197604
0.000179851
0.000179723
0.000179921
0.000197568
0.000197524
0.000197594
0.000197553
0.000179806
0.000179885
0.000197585
0.000197553
0.000197607
0.000197573
0.00019758
0.00019759
0.000197598
0.000179749
0.000179704
0.000197591
0.000197604
0.000197614
0.00017976
0.000179737
0.000179891
0.000197588
0.000197547
0.000197603
0.000197563
0.000179793
0.000179846
0.0001976
0.000197567
0.000197617
0.00019758
0.000197592
0.000197594
0.000197598
0.00017966
0.000179697
0.000197605
0.000197604
0.000197619
0.000179823
0.000179765
0.00017984
0.000197593
0.000197553
0.000197594
0.000197561
0.000179745
0.000179782
0.000197608
0.00019757
0.000197618
0.000197575
0.000197587
0.000197599
0.000197599
0.000179636
0.000179804
0.00019761
0.000197611
0.000197627
0.000179788
0.000179779
0.000179828
0.000197588
0.00019755
0.000197587
0.000197557
0.000179656
0.000179773
0.000197607
0.00019756
0.000197608
0.000197566
0.00019759
0.000197587
0.000197601
0.000179625
0.000179827
0.000197619
0.000197611
0.00019763
0.000179918
0.00017973
0.000179828
0.000197587
0.000197548
0.000197588
0.000197547
0.000179633
0.000179729
0.000197596
0.000197557
0.000197592
0.000197556
0.000197594
0.000197589
0.000197593
0.000179645
0.000179873
0.000197624
0.000197607
0.000197624
0.00017986
0.000179729
0.000179755
0.000197595
0.000197554
0.000197592
0.000197558
0.000179677
0.000179811
0.000197596
0.000197563
0.000197589
0.000197564
0.000197595
0.000197592
0.000197592
0.000179694
0.00017994
0.000197631
0.000197611
0.000197624
0.000179803
0.000179677
0.000179749
0.000197599
0.000197568
0.000197591
0.000197564
0.000179718
0.000179755
0.000197594
0.000197574
0.000197585
0.000197576
0.000197599
0.000197595
0.000197603
0.000179778
0.000179999
0.000197631
0.00019762
0.000197628
0.000179902
0.000179713
0.000179906
0.0001976
0.000197573
0.000197598
0.000197571
0.000179596
0.00017985
0.000197594
0.000197586
0.000197591
0.000197585
0.000197616
0.000197607
0.00019762
0.000179826
0.000180033
0.000197639
0.000197632
0.00019764
0.000179971
0.000179764
0.000179956
0.000197613
0.000197584
0.000197619
0.000197583
0.000179693
0.000179884
0.000197604
0.000197597
0.000197607
0.000197595
0.000197633
0.000197623
0.000197634
0.000179855
0.000179983
0.000197653
0.000197644
0.000197655
0.000180072
0.000179907
0.000179872
0.000197638
0.000197599
0.000197634
0.000197592
0.000179733
0.000179806
0.000197624
0.000197611
0.000197623
0.000197608
0.000197649
0.000197632
0.00019765
0.000179923
0.000180041
0.000197671
0.000197659
0.000197673
0.000180082
0.000179841
0.000179839
0.000197654
0.000197608
0.000197651
0.0001976
0.000179647
0.000179812
0.000197644
0.000197627
0.000197646
0.000197619
0.000197669
0.000197637
0.000197665
0.00017987
0.000179881
0.000197692
0.00019767
0.00019769
0.000179995
0.00017978
0.000179834
0.000197675
0.000197623
0.000197702
0.000197645
0.000179682
0.000179735
0.000197671
0.000197643
0.000197699
0.000197667
0.000197687
0.00019768
0.000197705
0.000179722
0.000179729
0.000197712
0.000197716
0.000197732
0.000179832
0.000179625
0.000180865
0.000197604
0.000197548
0.000200022
0.000199971
0.000179633
0.000180837
0.000197601
0.000197569
0.000200018
0.000199998
0.000197599
0.000199952
0.000200016
0.000179692
0.000180883
0.000197628
0.000199994
0.000200045
0.000180831
0.000182326
0.000197923
0.000197855
0.00018223
0.00019792
0.000197812
0.000202164
0.000202187
0.000202148
0.000197809
0.000182253
0.000197835
9.97023e-05
5.06504e-05
2.38381e-05
9.96335e-05
5.06439e-05
0.000198271
0.000198066
0.000198066
0.000198004
0.000142651
0.000195712
0.000103286
0.00020366
2.38349e-05
0.000142606
0.000195694
0.000203624
0.000103328
0.000178566
7.78461e-05
7.78895e-05
9.97689e-05
5.06543e-05
9.97396e-05
5.06589e-05
2.38394e-05
2.38413e-05
9.96852e-05
5.06498e-05
9.9663e-05
5.06524e-05
0.00019832
0.000198322
0.000198254
0.000199188
0.000199017
0.000199022
0.000198964
0.000142896
0.000103342
0.000204224
0.000196203
0.000142783
0.000103406
0.000204285
2.38367e-05
2.3839e-05
0.000142839
0.000204196
0.000103352
0.000196191
0.00014274
0.000204257
0.000103376
7.78718e-05
7.78913e-05
0.000178956
7.78896e-05
7.78998e-05
9.98175e-05
5.06666e-05
9.97975e-05
5.06658e-05
2.38418e-05
2.38434e-05
9.97374e-05
5.06615e-05
9.97089e-05
5.06637e-05
0.000199109
0.000199117
0.000199053
0.000199869
0.000199686
0.0001997
0.000199649
0.000143109
0.000103432
0.000204846
0.000196641
0.000142997
0.000103457
0.000204861
2.38404e-05
2.38425e-05
0.000143051
0.000204818
0.000103356
0.000196622
0.000142959
0.000204832
0.000103372
7.79132e-05
7.7913e-05
0.000179258
7.79367e-05
7.79376e-05
9.97919e-05
5.06711e-05
9.97862e-05
5.06717e-05
2.38441e-05
2.38458e-05
9.98253e-05
5.06669e-05
9.97747e-05
5.0669e-05
0.000199712
0.000199728
0.000199674
0.000200353
0.000200141
0.000200167
0.000200123
0.000143411
0.00010347
0.00020531
0.000196961
0.000143271
0.000103505
0.000205288
2.38435e-05
2.38451e-05
0.000143244
0.000205281
0.00010339
0.000196943
0.000143119
0.000205261
0.000103447
7.7951e-05
7.7958e-05
0.000179552
7.79779e-05
7.79696e-05
9.98161e-05
5.06735e-05
9.97788e-05
5.06765e-05
2.38465e-05
2.38482e-05
9.9884e-05
5.06728e-05
9.98658e-05
5.06753e-05
0.000200116
0.000200152
0.000200096
0.000200689
0.00020046
0.000200495
0.000200455
0.000143346
0.000103521
0.000205631
0.000197181
0.000143329
0.000103542
0.000205586
2.38451e-05
2.38467e-05
0.000143306
0.000205622
0.000103488
0.000197189
0.00014323
0.00020558
0.000103535
7.79829e-05
7.79541e-05
0.000179737
7.79889e-05
7.79705e-05
9.98808e-05
5.06778e-05
9.98393e-05
5.06793e-05
2.38486e-05
2.38501e-05
9.98756e-05
5.0675e-05
9.98628e-05
5.06769e-05
0.000200472
0.000200501
0.000200448
0.00020092
0.000200738
0.000200774
0.000200764
0.000143474
0.000103535
0.000205865
0.000197332
0.000143334
0.000103574
0.00020581
2.38471e-05
2.38487e-05
0.000143472
0.00020587
0.000103558
0.000197368
0.000143446
0.000205819
0.000103596
7.79741e-05
7.79858e-05
0.000179834
7.79877e-05
7.79973e-05
9.99542e-05
5.06839e-05
9.99141e-05
5.0686e-05
2.38501e-05
2.38513e-05
9.99342e-05
5.06817e-05
9.99019e-05
5.06812e-05
0.000200714
0.000200744
0.000200744
0.000201076
0.0002009
0.000200954
0.000200963
0.000143569
0.000103579
0.000206041
0.000197451
0.000143565
0.000103611
0.000205978
2.38486e-05
2.38498e-05
0.000143431
0.000206048
0.000103592
0.000197485
0.000143384
0.000205995
0.000103608
7.80055e-05
7.80081e-05
0.000179845
7.80285e-05
7.80213e-05
9.99574e-05
5.06863e-05
9.9936e-05
5.06891e-05
2.38509e-05
2.38518e-05
9.9991e-05
5.06852e-05
9.9974e-05
5.06871e-05
0.000200852
0.000200915
0.000200931
0.000201179
0.000201022
0.000201086
0.000201102
0.000143591
0.000103592
0.000206142
0.000197521
0.000143495
0.000103622
0.000206094
2.38495e-05
2.38506e-05
0.000143708
0.000206164
0.000103623
0.000197561
0.000143548
0.000206116
0.000103654
7.80304e-05
7.80166e-05
0.000179866
7.80404e-05
7.80361e-05
9.99871e-05
5.06905e-05
9.99682e-05
5.06912e-05
2.38512e-05
2.38523e-05
9.99681e-05
5.06871e-05
9.99582e-05
5.06874e-05
0.000200947
0.000201019
0.000201038
0.000201177
0.00020106
0.000201133
0.000201157
0.000143736
0.000103607
0.000206196
0.000197572
0.000143711
0.000103633
0.00020617
2.38499e-05
2.38508e-05
0.000143734
0.000206213
0.000103643
0.000197592
0.000143729
0.000206183
0.000103651
7.80338e-05
7.80386e-05
0.000179842
7.80406e-05
7.80459e-05
9.99575e-05
5.06911e-05
9.99593e-05
5.0692e-05
2.38515e-05
2.38525e-05
9.99729e-05
5.06875e-05
9.99332e-05
5.06883e-05
0.000201031
0.000201097
0.000201121
0.000201172
0.000201097
0.000201143
0.00020118
0.000143665
0.000103611
0.000206208
0.000197588
0.000143672
0.000103616
0.000206205
2.385e-05
2.38509e-05
0.000143625
0.000206229
0.000103643
0.0001976
0.000143639
0.000206216
0.000103667
7.80318e-05
7.80341e-05
0.000179743
7.80365e-05
7.80365e-05
9.99881e-05
5.06921e-05
9.99499e-05
5.06931e-05
2.38519e-05
2.38529e-05
0.000100055
5.06889e-05
0.00010002
5.06897e-05
0.000201064
0.000201147
0.000201168
0.000201167
0.000201118
0.000201177
0.000201219
0.000143571
0.000103619
0.000206226
0.000197583
0.000143552
0.000103643
0.000206228
2.385e-05
2.38508e-05
0.000143672
0.000206248
0.000103615
0.000197607
0.000143614
0.000206249
0.000103647
7.80225e-05
7.80267e-05
0.000179771
7.80311e-05
7.80376e-05
0.000100037
5.06936e-05
0.000100017
5.0694e-05
2.3852e-05
2.3853e-05
0.000100036
5.06893e-05
0.00010003
5.06895e-05
0.000201106
0.00020116
0.000201207
0.000201178
0.000201139
0.000201199
0.00020124
0.000143772
0.000103608
0.000206236
0.000197588
0.00014365
0.000103619
0.000206237
2.38499e-05
2.38511e-05
0.000143603
0.000206281
0.000103632
0.000197615
0.000143599
0.000206293
0.000103642
7.80363e-05
7.8035e-05
0.000179837
7.80299e-05
7.8042e-05
0.000100032
5.06932e-05
0.000100021
5.06937e-05
2.38525e-05
2.38536e-05
0.000100014
5.06884e-05
0.000100008
5.06886e-05
0.000201114
0.000201178
0.000201213
0.000201209
0.00020116
0.000201206
0.000201246
0.00014377
0.000103603
0.00020625
0.000197588
0.00014378
0.000103624
0.000206238
2.38501e-05
2.38511e-05
0.000143826
0.00020631
0.000103625
0.000197609
0.00014371
0.000206316
0.000103653
7.80233e-05
7.80343e-05
0.000179809
7.80294e-05
7.80392e-05
0.000100013
5.06931e-05
0.00010001
5.06937e-05
2.38525e-05
2.38537e-05
9.9991e-05
5.06879e-05
9.99872e-05
5.06885e-05
0.000201135
0.000201177
0.000201226
0.000201221
0.00020118
0.000201211
0.000201261
0.000143708
0.000103612
0.000206244
0.000197592
0.000143708
0.000103631
0.000206234
2.38501e-05
2.38515e-05
0.000143815
0.000206314
0.000103643
0.00019761
0.000143825
0.00020631
0.000103651
7.80251e-05
7.80342e-05
0.000179809
7.8031e-05
7.80391e-05
9.99736e-05
5.0693e-05
9.99657e-05
5.06936e-05
2.38526e-05
2.3854e-05
0.000100029
5.06882e-05
0.000100011
5.06894e-05
0.00020117
0.000201183
0.00020123
0.000201229
0.000201211
0.000201217
0.000201267
0.000143596
0.00010362
0.000206244
0.000197595
0.000143639
0.000103637
0.000206249
2.38504e-05
2.38519e-05
0.000143799
0.00020629
0.000103642
0.000197616
0.000143782
0.000206279
0.000103664
7.80264e-05
7.80342e-05
0.000179877
7.80321e-05
7.80382e-05
9.99448e-05
5.06923e-05
9.99386e-05
5.06931e-05
2.38525e-05
2.38544e-05
0.000100008
5.06888e-05
0.000100002
5.06898e-05
0.000201189
0.000201197
0.000201244
0.000201248
0.000201228
0.000201221
0.00020127
0.000143522
0.000103633
0.000206265
0.000197601
0.000143498
0.000103652
0.00020627
2.38504e-05
2.38523e-05
0.000143721
0.00020627
0.000103656
0.000197628
0.000143742
0.000206267
0.000103671
7.80342e-05
7.80373e-05
0.000179975
7.80385e-05
7.80412e-05
9.99617e-05
5.06918e-05
9.99229e-05
5.06936e-05
2.38523e-05
2.38548e-05
9.99711e-05
5.06884e-05
9.99627e-05
5.06899e-05
0.000201214
0.000201191
0.000201246
0.000201268
0.00020124
0.000201207
0.000201273
0.000143742
0.000103657
0.000206288
0.000197617
0.000143641
0.000103671
0.00020629
2.38503e-05
2.38529e-05
0.000143626
0.000206269
0.00010367
0.000197639
0.000143664
0.000206268
0.000103682
7.80445e-05
7.80473e-05
0.00018001
7.80472e-05
7.80484e-05
9.99877e-05
5.06923e-05
9.99798e-05
5.06954e-05
2.38519e-05
2.38556e-05
9.99297e-05
5.0688e-05
9.99311e-05
5.06907e-05
0.000201259
0.000201224
0.000201256
0.000201295
0.000201267
0.000201233
0.000201263
0.000143759
0.000103682
0.000206299
0.00019763
0.000143742
0.000103685
0.000206294
2.385e-05
2.38538e-05
0.000143525
0.000206278
0.000103693
0.000197654
0.000143524
0.000206275
0.000103698
7.80616e-05
7.80616e-05
0.000180031
7.8058e-05
7.80579e-05
9.99504e-05
5.06926e-05
9.99418e-05
5.06976e-05
2.38516e-05
2.38569e-05
9.99783e-05
5.06882e-05
9.99488e-05
5.06935e-05
0.000201284
0.000201252
0.000201272
0.000201323
0.000201281
0.000201254
0.000201289
0.000143594
0.000103714
0.000206295
0.000197636
0.000143635
0.000103697
0.000206286
2.38497e-05
2.38551e-05
0.000143574
0.000206282
0.000103734
0.000197667
0.000143557
0.000206276
0.000103719
7.80839e-05
7.80844e-05
0.000180034
7.80729e-05
7.8074e-05
9.99241e-05
5.06922e-05
9.99088e-05
5.07019e-05
2.38513e-05
2.38587e-05
9.99546e-05
5.0689e-05
9.99478e-05
5.06988e-05
0.000201291
0.000201273
0.000201289
0.000201348
0.000201318
0.000201264
0.000201315
0.000143564
0.000103767
0.000206288
0.000197644
0.00014358
0.00010368
0.000206272
2.38494e-05
2.38568e-05
0.000143545
0.000206288
0.000103789
0.00019768
0.000143546
0.000206274
0.0001037
7.81208e-05
7.81241e-05
0.000179849
7.80833e-05
7.80878e-05
9.99404e-05
5.06949e-05
9.98659e-05
5.07348e-05
2.3853e-05
2.38716e-05
9.99412e-05
5.06916e-05
9.98772e-05
5.07321e-05
0.000201275
0.000201245
0.000201253
0.00020009
0.000200024
0.000200036
0.000200027
0.000143549
0.00010379
0.000206236
0.000198103
0.000143559
0.000103589
0.000206158
2.3851e-05
2.38698e-05
0.000143574
0.000206247
0.000103812
0.000198143
0.00014357
0.000206178
0.000103612
7.81093e-05
7.81152e-05
0.000179975
7.79092e-05
7.79169e-05
0.000108297
5.48407e-05
0.000100405
8.43294e-05
2.68858e-05
4.60311e-05
0.000108284
5.48368e-05
0.000100392
8.43311e-05
0.000182703
0.000195865
0.000195789
0.000203541
0.000184665
0.000197885
0.000196943
0.000147187
0.000105608
0.000209624
0.00019607
0.000144467
0.000108054
0.000205107
2.68846e-05
4.60264e-05
0.00014722
0.000209653
0.000105562
0.000196304
0.000144511
0.000205107
0.00010807
7.74095e-05
7.7415e-05
0.000185406
8.57925e-05
8.59701e-05
2.38388e-05
2.38373e-05
0.000178684
7.78923e-05
7.78857e-05
2.38409e-05
2.38385e-05
2.38394e-05
2.3837e-05
0.000178628
7.79179e-05
7.79107e-05
7.78977e-05
7.78879e-05
9.97114e-05
5.06506e-05
0.000142783
0.000195663
0.000103283
0.000203609
0.000142846
0.000195617
0.000103348
0.000203578
9.97149e-05
5.06566e-05
5.06478e-05
9.97483e-05
9.97203e-05
5.06547e-05
5.06482e-05
9.97719e-05
0.000142856
0.0001958
0.000103344
0.000203931
0.000103284
0.000203771
0.000142964
0.000142905
0.000195746
0.00010338
0.000203895
0.000103338
0.00020373
0.000143005
0.000178645
7.79039e-05
7.78936e-05
2.38394e-05
2.38398e-05
2.38377e-05
0.000178667
7.79229e-05
7.79128e-05
7.79105e-05
7.7893e-05
2.38413e-05
2.3839e-05
0.000142636
0.000195676
0.000103262
0.000203593
9.96173e-05
5.06361e-05
0.000142611
0.000195595
0.00020355
0.000103197
9.9637e-05
5.06503e-05
5.06486e-05
9.96649e-05
0.000142675
0.000195815
0.000103317
0.000203918
0.000103264
0.000203757
0.000142802
9.96184e-05
5.06422e-05
5.06376e-05
9.96506e-05
0.000142622
0.000195726
0.00020387
0.000103255
0.000203705
0.000103198
0.000142718
9.96513e-05
5.06497e-05
0.000142674
0.00019558
0.000203594
0.000103223
9.9653e-05
5.06417e-05
0.00014268
0.000195861
0.000103344
0.000204009
0.000103289
0.000203855
0.000142784
9.96591e-05
5.06567e-05
5.06524e-05
9.97048e-05
0.000142702
0.000195711
0.000203914
0.000103269
0.000203756
0.000103223
0.000142827
9.9662e-05
5.06485e-05
5.06404e-05
9.97089e-05
0.000178679
7.78529e-05
7.79009e-05
2.3838e-05
2.3837e-05
2.38345e-05
0.000178577
7.78733e-05
7.79108e-05
7.78566e-05
7.79013e-05
2.38396e-05
2.38376e-05
0.000142618
0.000195599
0.000203573
0.000103275
9.96229e-05
5.0645e-05
9.96346e-05
5.06437e-05
0.000142655
0.000195845
0.000203979
0.00010335
0.000203823
0.000103328
0.00014273
0.000142661
0.000195733
0.000203894
0.000103333
0.000203737
0.000103293
0.000142749
9.96307e-05
5.06502e-05
5.06484e-05
9.96621e-05
9.96419e-05
5.06509e-05
5.06448e-05
9.96782e-05
2.38358e-05
2.3837e-05
0.000178551
7.7876e-05
7.78988e-05
7.78488e-05
7.78915e-05
2.3838e-05
2.38355e-05
2.38388e-05
2.38367e-05
2.38404e-05
2.38428e-05
2.38389e-05
2.38413e-05
7.79167e-05
7.79069e-05
0.000179071
7.79483e-05
7.79368e-05
2.38445e-05
2.38424e-05
2.38431e-05
2.38409e-05
0.000178984
7.79681e-05
7.79574e-05
7.79426e-05
7.79313e-05
9.97966e-05
5.06524e-05
9.97573e-05
5.06597e-05
0.000142981
0.000103344
0.000204125
0.000196171
0.00014293
0.000103398
0.000204244
0.000142984
0.000103365
0.000204085
0.000196114
0.00014294
0.000103393
0.000204208
9.97627e-05
5.06654e-05
5.06566e-05
9.98072e-05
9.97861e-05
5.06605e-05
5.06541e-05
9.98031e-05
0.000142972
0.000196336
0.000103449
0.000204609
0.0001034
0.000204466
0.000143074
0.000142944
0.000196273
0.000103413
0.00020457
0.00010339
0.000204427
0.000143074
7.7921e-05
7.79075e-05
0.000179016
7.79334e-05
7.79383e-05
2.38408e-05
2.38431e-05
2.38424e-05
2.38408e-05
0.000178995
7.79286e-05
7.79592e-05
7.79278e-05
7.79355e-05
2.38448e-05
2.38427e-05
0.000142873
0.000103305
0.000204114
0.000196189
0.00014274
0.000103364
0.000204235
9.96679e-05
5.06436e-05
9.96443e-05
5.06467e-05
0.000142781
0.000204064
0.00010325
0.000196105
0.000142711
0.00020419
0.00010331
9.96809e-05
5.06606e-05
5.06569e-05
9.97097e-05
0.000142898
0.000196356
0.000103428
0.000204604
0.000103362
0.000204461
0.00014297
9.96666e-05
5.06537e-05
5.06437e-05
9.96898e-05
0.000142777
0.000196267
0.00020456
0.000103349
0.000204413
0.000103299
0.000142865
9.9734e-05
5.06533e-05
9.96848e-05
5.06622e-05
0.000142986
0.000204117
0.00010326
0.000196088
0.000142849
0.000204235
0.000103323
9.97488e-05
5.06426e-05
9.96945e-05
5.065e-05
0.000142882
0.000196375
0.000103433
0.000204674
0.000103393
0.000204529
0.000142996
9.97332e-05
5.06638e-05
5.06624e-05
9.97587e-05
0.000143001
0.000196251
0.000204609
0.000103361
0.000204467
0.000103303
0.000143033
9.97399e-05
5.06574e-05
5.06535e-05
9.97748e-05
7.78755e-05
7.79154e-05
0.000179076
7.78968e-05
7.79268e-05
2.38392e-05
2.38412e-05
2.38408e-05
2.38386e-05
0.000178974
7.7914e-05
7.79153e-05
7.78906e-05
7.792e-05
2.38425e-05
2.38408e-05
0.000142861
0.000204094
0.000103317
0.000196106
0.000142728
0.000204213
0.000103331
9.96955e-05
5.0647e-05
9.96572e-05
5.06525e-05
9.97188e-05
5.06478e-05
9.96724e-05
5.06544e-05
0.000142849
0.000196364
0.000204646
0.000103386
0.000204502
0.000103357
0.000142936
0.000142875
0.000196267
0.000204586
0.000103359
0.000204443
0.000103327
0.000143012
9.96888e-05
5.06566e-05
5.06491e-05
9.97398e-05
9.97166e-05
5.06571e-05
5.06497e-05
9.97594e-05
2.38377e-05
2.38401e-05
2.38383e-05
2.38403e-05
0.000178932
7.79159e-05
7.79181e-05
7.78894e-05
7.78946e-05
2.38421e-05
2.38399e-05
2.38421e-05
2.384e-05
2.3844e-05
2.38457e-05
2.38426e-05
2.38443e-05
7.79636e-05
7.79552e-05
0.000179362
7.79689e-05
7.79564e-05
2.38468e-05
2.38452e-05
2.38453e-05
2.38437e-05
0.000179325
7.79794e-05
7.7963e-05
7.79729e-05
7.7955e-05
9.97992e-05
5.06567e-05
9.9791e-05
5.06629e-05
0.00014312
0.000103428
0.000204707
0.000196595
0.000143039
0.000103476
0.000204792
0.000143145
0.000103384
0.000204659
0.000196532
0.00014306
0.000103396
0.000204751
9.98062e-05
5.06706e-05
5.06678e-05
9.98014e-05
9.97846e-05
5.0667e-05
5.06618e-05
9.98038e-05
0.000143117
0.00019673
0.000103483
0.00020509
0.000103453
0.000204977
0.000143262
0.000143092
0.000196663
0.000103421
0.000205052
0.000103395
0.000204934
0.00014313
7.79148e-05
7.7954e-05
0.000179375
7.79181e-05
7.79631e-05
2.38443e-05
2.3846e-05
2.38445e-05
2.38428e-05
0.000179217
7.79311e-05
7.79606e-05
7.79117e-05
7.79566e-05
2.3847e-05
2.38454e-05
0.000142974
0.000103407
0.000204709
0.000196619
0.000142947
0.000103444
0.000204797
9.97223e-05
5.06545e-05
9.96893e-05
5.06565e-05
0.000142935
0.000204657
0.000103349
0.000196542
0.00014284
0.000204751
0.00010341
9.97413e-05
5.06647e-05
5.06646e-05
9.97821e-05
0.000142962
0.000196758
0.000103478
0.000205105
0.000103426
0.000204984
0.000143062
9.97233e-05
5.06594e-05
5.06526e-05
9.97648e-05
0.000142922
0.000196677
0.000205062
0.000103445
0.000204942
0.000103393
0.000143036
9.98009e-05
5.0661e-05
9.97584e-05
5.06657e-05
0.000143162
0.000204711
0.000103352
0.000196534
0.000143045
0.000204801
0.000103411
9.98069e-05
5.06546e-05
9.97732e-05
5.066e-05
0.000143133
0.000196782
0.000103474
0.00020518
0.000103439
0.000205065
0.000143273
9.98038e-05
5.06682e-05
5.06674e-05
9.98602e-05
0.000143161
0.000196671
0.000205112
0.000103467
0.000204996
0.000103404
0.000143234
9.98016e-05
5.06639e-05
5.0662e-05
9.98487e-05
7.79124e-05
7.79149e-05
0.000179381
7.79304e-05
7.79208e-05
2.3842e-05
2.38438e-05
2.3844e-05
2.38419e-05
0.000179257
7.7959e-05
7.79344e-05
7.79273e-05
7.79147e-05
2.38452e-05
2.38433e-05
0.000143104
0.000204689
0.000103347
0.000196543
0.000143032
0.000204779
0.0001034
9.97672e-05
5.06519e-05
9.97287e-05
5.06572e-05
9.9793e-05
5.06583e-05
9.97631e-05
5.06612e-05
0.000143052
0.000196762
0.000205148
0.000103401
0.000205035
0.000103372
0.000143149
0.000143057
0.00019668
0.000205093
0.000103446
0.000204975
0.000103387
0.000143088
9.97582e-05
5.06644e-05
5.06606e-05
9.97806e-05
9.97798e-05
5.06632e-05
5.06623e-05
9.97857e-05
2.38417e-05
2.38438e-05
2.38417e-05
2.38437e-05
0.000179228
7.7953e-05
7.79555e-05
7.79303e-05
7.79359e-05
2.38453e-05
2.38435e-05
2.38452e-05
2.38434e-05
2.38462e-05
2.38475e-05
2.38448e-05
2.38463e-05
7.79737e-05
7.79555e-05
0.000179582
7.79813e-05
7.79592e-05
2.38483e-05
2.3847e-05
2.38473e-05
2.38457e-05
0.000179435
7.79762e-05
7.79645e-05
7.79749e-05
7.79488e-05
9.98065e-05
5.06686e-05
9.97921e-05
5.06713e-05
0.000143257
0.00010348
0.000205146
0.000196901
0.000143223
0.000103509
0.000205194
0.000143241
0.000103416
0.000205101
0.000196845
0.000143128
0.000103431
0.000205156
9.97788e-05
5.06714e-05
5.06724e-05
9.97911e-05
9.97842e-05
5.06731e-05
5.06725e-05
9.97962e-05
0.000143218
0.000197008
0.000103513
0.000205429
0.0001035
0.000205342
0.000143232
0.00014319
0.000196951
0.000103449
0.000205392
0.00010343
0.000205308
0.000143265
7.79243e-05
7.79474e-05
0.000179551
7.79405e-05
7.79541e-05
2.38463e-05
2.38478e-05
2.3847e-05
2.38452e-05
0.000179394
7.79553e-05
7.7972e-05
7.79363e-05
7.79522e-05
2.38489e-05
2.38472e-05
0.000143165
0.000103466
0.000205167
0.000196927
0.000143077
0.000103484
0.000205219
9.9813e-05
5.06561e-05
9.97637e-05
5.06636e-05
0.000143168
0.00020512
0.000103434
0.000196869
0.00014305
0.000205178
0.000103464
9.98208e-05
5.06718e-05
5.067e-05
9.98748e-05
0.000143181
0.000197034
0.000103485
0.000205463
0.000103464
0.000205376
0.000143345
9.98139e-05
5.06658e-05
5.06648e-05
9.9855e-05
0.000143157
0.000196977
0.000205428
0.000103462
0.00020534
0.000103447
0.000143303
9.98689e-05
5.06706e-05
9.98521e-05
5.06713e-05
0.000143342
0.000205169
0.000103451
0.000196876
0.000143217
0.00020522
0.000103493
9.98495e-05
5.06648e-05
9.98395e-05
5.06682e-05
0.000143387
0.000197073
0.000103521
0.000205541
0.000103487
0.000205455
0.000143409
9.9856e-05
5.06767e-05
5.06733e-05
9.98445e-05
0.000143332
0.000196991
0.000205455
0.000103503
0.000205375
0.000103491
0.000143366
9.98317e-05
5.06708e-05
5.0663e-05
9.98276e-05
7.79547e-05
7.79359e-05
0.000179487
7.79569e-05
7.79555e-05
2.38448e-05
2.38467e-05
2.38458e-05
2.38444e-05
0.000179445
7.79473e-05
7.79768e-05
7.79464e-05
7.79514e-05
2.38481e-05
2.38462e-05
0.000143173
0.000205155
0.000103447
0.000196885
0.000143091
0.000205211
0.000103488
9.98247e-05
5.06653e-05
9.9766e-05
5.06662e-05
9.98104e-05
5.06657e-05
9.97736e-05
5.06668e-05
0.000143221
0.000197059
0.000205522
0.000103487
0.000205433
0.000103435
0.000143261
0.000143184
0.000196999
0.000205459
0.000103498
0.000205373
0.000103474
0.000143271
9.98167e-05
5.06692e-05
5.06679e-05
9.98423e-05
9.98054e-05
5.06704e-05
5.06688e-05
9.98497e-05
2.38449e-05
2.38467e-05
2.38447e-05
2.38464e-05
0.000179468
7.79893e-05
7.79648e-05
7.79766e-05
7.79648e-05
2.38479e-05
2.38462e-05
2.38471e-05
2.38458e-05
2.38476e-05
2.3849e-05
2.38467e-05
2.38485e-05
7.79679e-05
7.79584e-05
0.00017975
7.79721e-05
7.79777e-05
2.385e-05
2.38484e-05
2.38495e-05
2.38479e-05
0.000179579
7.79836e-05
7.79958e-05
7.79672e-05
7.79743e-05
9.98149e-05
5.06737e-05
9.9791e-05
5.0673e-05
0.00014321
0.000103497
0.000205459
0.000197117
0.000143192
0.000103512
0.000205488
0.000143201
0.00010344
0.000205413
0.000197072
0.000143188
0.000103502
0.000205454
9.98119e-05
5.06763e-05
5.06774e-05
9.98497e-05
9.98135e-05
5.06763e-05
5.06749e-05
9.98481e-05
0.000143213
0.000197215
0.000103508
0.000205694
0.000103494
0.000205634
0.000143281
0.000143211
0.000197167
0.000103542
0.000205654
0.000103483
0.00020559
0.000143265
7.79544e-05
7.79671e-05
0.000179685
7.79778e-05
7.79851e-05
2.38483e-05
2.38498e-05
2.38492e-05
2.38476e-05
0.000179519
7.7994e-05
7.79959e-05
7.79741e-05
7.79788e-05
2.38507e-05
2.38492e-05
0.000143386
0.00010347
0.000205492
0.000197148
0.000143337
0.000103524
0.00020553
9.98611e-05
5.06618e-05
9.98459e-05
5.06705e-05
0.000143333
0.000205451
0.00010346
0.000197102
0.000143238
0.000205497
0.000103493
9.98611e-05
5.06768e-05
5.0676e-05
9.98742e-05
0.000143335
0.000197249
0.000103563
0.000205727
0.000103522
0.000205663
0.000143362
9.98461e-05
5.067e-05
5.06709e-05
9.98503e-05
0.000143308
0.000197201
0.000205696
0.000103535
0.000205633
0.000103495
0.000143298
9.98317e-05
5.06769e-05
9.98146e-05
5.06754e-05
0.000143261
0.000205476
0.000103503
0.000197113
0.000143287
0.000205511
0.00010352
9.9823e-05
5.06713e-05
9.98083e-05
5.06715e-05
0.000143284
0.00019727
0.000103558
0.000205793
0.000103525
0.000205726
0.000143344
9.98207e-05
5.06777e-05
5.06768e-05
9.98653e-05
0.000143263
0.000197205
0.000205705
0.000103504
0.000205645
0.000103502
0.000143317
9.98205e-05
5.0675e-05
5.06682e-05
9.98578e-05
7.7946e-05
7.7976e-05
0.000179624
7.7962e-05
7.80023e-05
2.38476e-05
2.38492e-05
2.38477e-05
2.3846e-05
0.000179595
7.79844e-05
7.80136e-05
7.79568e-05
7.79941e-05
2.38501e-05
2.38486e-05
0.00014335
0.000205481
0.000103497
0.000197126
0.000143236
0.00020552
0.000103523
9.98572e-05
5.06714e-05
9.98288e-05
5.06734e-05
9.985e-05
5.06699e-05
9.98383e-05
5.06739e-05
0.000143339
0.00019729
0.000205795
0.00010358
0.000205727
0.000103537
0.00014346
0.000143384
0.000197222
0.000205714
0.000103545
0.000205655
0.000103501
0.000143477
9.98464e-05
5.06769e-05
5.06701e-05
9.98575e-05
9.98302e-05
5.0674e-05
5.06741e-05
9.98578e-05
2.38473e-05
2.38485e-05
2.38465e-05
2.38479e-05
0.000179602
7.79838e-05
7.79845e-05
7.7982e-05
7.79649e-05
2.3849e-05
2.38478e-05
2.38488e-05
2.38473e-05
2.38495e-05
2.3851e-05
2.38489e-05
2.38504e-05
7.79847e-05
7.79929e-05
0.00017982
7.80017e-05
7.80121e-05
2.38519e-05
2.38505e-05
2.38511e-05
2.38497e-05
0.000179634
7.8013e-05
7.80275e-05
7.80005e-05
7.80051e-05
9.9894e-05
5.06737e-05
9.98494e-05
5.06805e-05
0.000143375
0.000103512
0.000205713
0.00019729
0.000143298
0.000103561
0.000205732
0.000143369
0.000103523
0.000205666
0.000197253
0.00014329
0.000103565
0.000205697
9.98774e-05
5.06835e-05
5.06764e-05
9.99217e-05
9.98895e-05
5.06832e-05
5.06809e-05
9.99417e-05
0.000143398
0.000197368
0.000103601
0.000205897
0.00010356
0.000205864
0.000143522
0.000143387
0.000197333
0.000103597
0.000205866
0.000103565
0.000205812
0.000143534
7.79926e-05
7.80014e-05
0.000179782
7.8014e-05