/*--------------------------------*- C++ -*----------------------------------*\
| =========                 |                                                 |
| \\      /  F ield         | OpenFOAM: The Open Source CFD Toolbox           |
|  \\    /   O peration     | Version:  v1906                                 |
|   \\  /    A nd           | Web:      www.OpenFOAM.com                      |
|    \\/     M anipulation  |                                                 |
\*---------------------------------------------------------------------------*/
FoamFile
{
    version     2.0;
    format      ascii;
    class       volScalarField;
    location    "625";
    object      k;
}
// * * * * * * * * * * * * * * * * * * * * * * * * * * * * * * * * * * * * * //

dimensions      [0 2 -2 0 0 0 0];


internalField   nonuniform List<scalar> 
43024
(
3.58932e-05
3.58912e-05
3.58912e-05
3.59957e-05
3.39296e-05
3.3889e-05
3.3889e-05
3.39622e-05
3.21578e-05
3.20081e-05
3.20081e-05
3.19522e-05
3.05346e-05
3.02293e-05
3.02292e-05
2.99884e-05
2.90329e-05
2.8554e-05
2.85539e-05
2.81226e-05
2.76353e-05
2.69872e-05
2.69871e-05
2.63907e-05
2.63308e-05
2.5531e-05
2.55309e-05
2.48073e-05
2.51112e-05
2.4185e-05
2.41848e-05
2.33782e-05
2.39709e-05
2.29506e-05
2.29504e-05
2.21047e-05
2.29058e-05
2.18269e-05
2.18267e-05
2.0986e-05
2.1912e-05
2.08114e-05
2.08112e-05
2.00133e-05
2.09865e-05
1.99013e-05
1.99011e-05
1.91814e-05
2.01241e-05
1.90947e-05
1.90946e-05
1.84895e-05
1.93239e-05
1.83885e-05
1.83884e-05
1.79329e-05
1.85847e-05
1.77793e-05
1.77792e-05
1.75062e-05
1.79042e-05
1.72656e-05
1.72656e-05
1.72e-05
1.72798e-05
1.68465e-05
1.68466e-05
1.70225e-05
1.67097e-05
1.65212e-05
1.65214e-05
1.69822e-05
1.61923e-05
1.62895e-05
1.62899e-05
1.70791e-05
1.57254e-05
1.61517e-05
1.6152e-05
1.73042e-05
1.53073e-05
1.61072e-05
1.61076e-05
1.76567e-05
3.63068e-05
3.6291e-05
3.6291e-05
3.63068e-05
3.6291e-05
3.6291e-05
3.6423e-05
3.6423e-05
3.6423e-05
3.6423e-05
3.6291e-05
3.6291e-05
3.63068e-05
3.6291e-05
3.6291e-05
3.63068e-05
3.59957e-05
3.42687e-05
3.58912e-05
3.58912e-05
3.43767e-05
3.43766e-05
3.59957e-05
3.42687e-05
3.58911e-05
3.58912e-05
3.43767e-05
3.43766e-05
3.58912e-05
3.43767e-05
3.43767e-05
3.59957e-05
3.42687e-05
3.58912e-05
3.43767e-05
3.43767e-05
3.42687e-05
3.39623e-05
3.22635e-05
3.38889e-05
3.38889e-05
3.24684e-05
3.24683e-05
3.39623e-05
3.22635e-05
3.38889e-05
3.38889e-05
3.24684e-05
3.24683e-05
3.38889e-05
3.24685e-05
3.24684e-05
3.39623e-05
3.22634e-05
3.38889e-05
3.24685e-05
3.24684e-05
3.22634e-05
3.19522e-05
3.02993e-05
3.20079e-05
3.20078e-05
3.06643e-05
3.06642e-05
3.19522e-05
3.02994e-05
3.2008e-05
3.20078e-05
3.06644e-05
3.06641e-05
3.20079e-05
3.06646e-05
3.06643e-05
3.19522e-05
3.02992e-05
3.2008e-05
3.06645e-05
3.06644e-05
3.02992e-05
2.99885e-05
2.84253e-05
3.0229e-05
3.02288e-05
2.89624e-05
2.89622e-05
2.99886e-05
2.84255e-05
3.02291e-05
3.02287e-05
2.89626e-05
2.89621e-05
3.02289e-05
2.89628e-05
2.89623e-05
2.99884e-05
2.84252e-05
3.02291e-05
2.89627e-05
2.89626e-05
2.84252e-05
2.81227e-05
2.6674e-05
2.85536e-05
2.85534e-05
2.7368e-05
2.73678e-05
2.81228e-05
2.66741e-05
2.85538e-05
2.85533e-05
2.73683e-05
2.73676e-05
2.85535e-05
2.73685e-05
2.73679e-05
2.81226e-05
2.66739e-05
2.85538e-05
2.73684e-05
2.73683e-05
2.66739e-05
2.63908e-05
2.50663e-05
2.69866e-05
2.69864e-05
2.58841e-05
2.58838e-05
2.6391e-05
2.50665e-05
2.6987e-05
2.69862e-05
2.58845e-05
2.58836e-05
2.69865e-05
2.58848e-05
2.5884e-05
2.63907e-05
2.50661e-05
2.69869e-05
2.58846e-05
2.58844e-05
2.50661e-05
2.48075e-05
2.36125e-05
2.55304e-05
2.55301e-05
2.45102e-05
2.45099e-05
2.48077e-05
2.36127e-05
2.55308e-05
2.55299e-05
2.45107e-05
2.45097e-05
2.55302e-05
2.4511e-05
2.45102e-05
2.48073e-05
2.36123e-05
2.55307e-05
2.45108e-05
2.45107e-05
2.36123e-05
2.33784e-05
2.23125e-05
2.41842e-05
2.41838e-05
2.32478e-05
2.32475e-05
2.33785e-05
2.23126e-05
2.41847e-05
2.41836e-05
2.32484e-05
2.32473e-05
2.41841e-05
2.32487e-05
2.32478e-05
2.33782e-05
2.23122e-05
2.41846e-05
2.32485e-05
2.32484e-05
2.23122e-05
2.21049e-05
2.11681e-05
2.29497e-05
2.29494e-05
2.20965e-05
2.20962e-05
2.21051e-05
2.11683e-05
2.29503e-05
2.29491e-05
2.20972e-05
2.2096e-05
2.29496e-05
2.20976e-05
2.20965e-05
2.21047e-05
2.11678e-05
2.29503e-05
2.20973e-05
2.20972e-05
2.11678e-05
2.09863e-05
2.01707e-05
2.18259e-05
2.18255e-05
2.10542e-05
2.10538e-05
2.09865e-05
2.01709e-05
2.18266e-05
2.18253e-05
2.10549e-05
2.10536e-05
2.18258e-05
2.10552e-05
2.10541e-05
2.09861e-05
2.01705e-05
2.18265e-05
2.1055e-05
2.10549e-05
2.01704e-05
2.00137e-05
1.93146e-05
2.08103e-05
2.081e-05
2.0118e-05
2.01176e-05
2.00138e-05
1.93148e-05
2.08111e-05
2.08097e-05
2.01188e-05
2.01174e-05
2.08102e-05
2.01191e-05
2.01179e-05
2.00134e-05
1.93144e-05
2.08111e-05
2.01189e-05
2.01188e-05
1.93142e-05
1.91817e-05
1.85904e-05
1.99002e-05
1.98999e-05
1.92855e-05
1.92852e-05
1.91818e-05
1.85906e-05
1.9901e-05
1.98996e-05
1.92863e-05
1.9285e-05
1.99001e-05
1.92866e-05
1.92855e-05
1.91814e-05
1.85901e-05
1.9901e-05
1.92865e-05
1.92864e-05
1.859e-05
1.84898e-05
1.79977e-05
1.90936e-05
1.90933e-05
1.85545e-05
1.85542e-05
1.84899e-05
1.79979e-05
1.90945e-05
1.90931e-05
1.85553e-05
1.8554e-05
1.90936e-05
1.85555e-05
1.85544e-05
1.84895e-05
1.79976e-05
1.90945e-05
1.85554e-05
1.85553e-05
1.79974e-05
1.79333e-05
1.75391e-05
1.83874e-05
1.83871e-05
1.79213e-05
1.79211e-05
1.79333e-05
1.75392e-05
1.83883e-05
1.8387e-05
1.79221e-05
1.79209e-05
1.83874e-05
1.79223e-05
1.79213e-05
1.79331e-05
1.7539e-05
1.83883e-05
1.79222e-05
1.79222e-05
1.7539e-05
1.75063e-05
1.72176e-05
1.77783e-05
1.77781e-05
1.73838e-05
1.73836e-05
1.75064e-05
1.72176e-05
1.77791e-05
1.77779e-05
1.73845e-05
1.73834e-05
1.77783e-05
1.73846e-05
1.73837e-05
1.75063e-05
1.72174e-05
1.77792e-05
1.73846e-05
1.73845e-05
1.72173e-05
1.72003e-05
1.70261e-05
1.72648e-05
1.72646e-05
1.69411e-05
1.69409e-05
1.72002e-05
1.70259e-05
1.72655e-05
1.72645e-05
1.69418e-05
1.69408e-05
1.72647e-05
1.69418e-05
1.6941e-05
1.72001e-05
1.7026e-05
1.72656e-05
1.69418e-05
1.69418e-05
1.70258e-05
1.70229e-05
1.69729e-05
1.68459e-05
1.68457e-05
1.65922e-05
1.6592e-05
1.70226e-05
1.69726e-05
1.68466e-05
1.68456e-05
1.65928e-05
1.65921e-05
1.68458e-05
1.65927e-05
1.65922e-05
1.70227e-05
1.69729e-05
1.68466e-05
1.65928e-05
1.65929e-05
1.69728e-05
1.69823e-05
1.70439e-05
1.65207e-05
1.65206e-05
1.6337e-05
1.63369e-05
1.6982e-05
1.70437e-05
1.65214e-05
1.65206e-05
1.63376e-05
1.6337e-05
1.65207e-05
1.63374e-05
1.63369e-05
1.69823e-05
1.70441e-05
1.65214e-05
1.63376e-05
1.63376e-05
1.70437e-05
1.70793e-05
1.72436e-05
1.62892e-05
1.62891e-05
1.61754e-05
1.61753e-05
1.70791e-05
1.72432e-05
1.62898e-05
1.62893e-05
1.61759e-05
1.61755e-05
1.62891e-05
1.61754e-05
1.61753e-05
1.70795e-05
1.72438e-05
1.62898e-05
1.61758e-05
1.61759e-05
1.72438e-05
1.7304e-05
1.75721e-05
1.61516e-05
1.61515e-05
1.61071e-05
1.61072e-05
1.73034e-05
1.75717e-05
1.61521e-05
1.61518e-05
1.61076e-05
1.61074e-05
1.61516e-05
1.61071e-05
1.61071e-05
1.7304e-05
1.75722e-05
1.61522e-05
1.61075e-05
1.61077e-05
1.75723e-05
1.76567e-05
1.61071e-05
1.61074e-05
1.76562e-05
1.61077e-05
1.61076e-05
1.61072e-05
1.76568e-05
1.61078e-05
3.73773e-05
3.73765e-05
3.7377e-05
3.7377e-05
3.73701e-05
3.73777e-05
3.73043e-05
3.73768e-05
3.73702e-05
3.73777e-05
3.73768e-05
3.73043e-05
3.73741e-05
3.72959e-05
3.72959e-05
3.58798e-05
4.08721e-05
3.66033e-05
4.51467e-05
5.51147e-05
6.48951e-05
3.58803e-05
4.08712e-05
3.66034e-05
4.51465e-05
3.58932e-05
3.58933e-05
3.58932e-05
3.44005e-05
3.44005e-05
3.44005e-05
3.44005e-05
3.52758e-05
3.56384e-05
3.58929e-05
3.53771e-05
3.60475e-05
3.42365e-05
3.53822e-05
5.51168e-05
6.48994e-05
3.52758e-05
3.58929e-05
3.5638e-05
3.53771e-05
3.60475e-05
3.53822e-05
3.42375e-05
3.65971e-05
3.65977e-05
3.5279e-05
3.40642e-05
3.40633e-05
3.39657e-05
5.13534e-05
3.46793e-05
5.46248e-05
7.65447e-05
8.08614e-05
3.39682e-05
5.13543e-05
3.46789e-05
5.46254e-05
3.39296e-05
3.39297e-05
3.39297e-05
3.25855e-05
3.25854e-05
3.25855e-05
3.25855e-05
3.30541e-05
3.2475e-05
3.39295e-05
3.34087e-05
3.38961e-05
3.15754e-05
3.34678e-05
7.65458e-05
8.08655e-05
3.30541e-05
3.39295e-05
3.24739e-05
3.34087e-05
3.38958e-05
3.34678e-05
3.15773e-05
3.17169e-05
3.17162e-05
3.32638e-05
3.09255e-05
3.09239e-05
3.22498e-05
5.91694e-05
3.29238e-05
6.14406e-05
8.43919e-05
8.50677e-05
3.2252e-05
5.91712e-05
3.29217e-05
6.14427e-05
3.21578e-05
3.21578e-05
3.21578e-05
3.09282e-05
3.09282e-05
3.09281e-05
3.09282e-05
3.07893e-05
3.05137e-05
3.21376e-05
3.15541e-05
3.16368e-05
2.98864e-05
3.17101e-05
8.43937e-05
8.50702e-05
3.07892e-05
3.21376e-05
3.05135e-05
3.1554e-05
3.16363e-05
3.17101e-05
2.98874e-05
3.02179e-05
3.02169e-05
3.12731e-05
3.00048e-05
3.00034e-05
3.0753e-05
6.43513e-05
3.13503e-05
6.57272e-05
8.46111e-05
8.39117e-05
3.07539e-05
6.43529e-05
3.13504e-05
6.57306e-05
3.05346e-05
3.05346e-05
3.05346e-05
2.9398e-05
2.9398e-05
2.93979e-05
2.9398e-05
2.86006e-05
2.91415e-05
3.04694e-05
2.98005e-05
2.9413e-05
2.86746e-05
3.00687e-05
8.4611e-05
8.39146e-05
2.86005e-05
3.04694e-05
2.91421e-05
2.98004e-05
2.94126e-05
3.00687e-05
2.86756e-05
2.99417e-05
2.99406e-05
2.93483e-05
3.00363e-05
3.00353e-05
2.95178e-05
6.73198e-05
3.00007e-05
6.80351e-05
8.22129e-05
8.12213e-05
2.95188e-05
6.73219e-05
3.0001e-05
6.80379e-05
2.90329e-05
2.90328e-05
2.90328e-05
2.79756e-05
2.79756e-05
2.79756e-05
2.79756e-05
2.65676e-05
2.8123e-05
2.89027e-05
2.8152e-05
2.73171e-05
2.77811e-05
2.85257e-05
8.22116e-05
8.12238e-05
2.65676e-05
2.89027e-05
2.81235e-05
2.81519e-05
2.73166e-05
2.85256e-05
2.77821e-05
3.04401e-05
3.04403e-05
2.7533e-05
3.07821e-05
3.07814e-05
2.86038e-05
6.87424e-05
2.89474e-05
6.90379e-05
7.94344e-05
7.85339e-05
2.86048e-05
6.87458e-05
2.89476e-05
6.90408e-05
2.76353e-05
2.76353e-05
2.76353e-05
2.66486e-05
2.66487e-05
2.66486e-05
2.66486e-05
2.47435e-05
2.74061e-05
2.74287e-05
2.66128e-05
2.54141e-05
2.71909e-05
2.70743e-05
7.94325e-05
7.85362e-05
2.47437e-05
2.74286e-05
2.74065e-05
2.66126e-05
2.54136e-05
2.70741e-05
2.71919e-05
3.15596e-05
3.156e-05
2.58511e-05
3.21307e-05
3.21304e-05
2.80582e-05
6.92517e-05
2.82445e-05
6.93116e-05
7.70046e-05
7.62888e-05
2.8059e-05
6.9255e-05
2.82446e-05
6.9315e-05
2.63308e-05
2.63307e-05
2.63307e-05
2.54084e-05
2.54084e-05
2.54083e-05
2.54084e-05
2.31635e-05
2.70012e-05
2.60445e-05
2.51841e-05
2.37462e-05
2.6921e-05
2.57123e-05
7.70028e-05
7.62905e-05
2.31638e-05
2.60444e-05
2.70017e-05
2.51839e-05
2.37457e-05
2.57121e-05
2.69217e-05
3.3188e-05
3.31887e-05
2.432e-05
3.39209e-05
3.39219e-05
2.79138e-05
6.92999e-05
2.79275e-05
6.92721e-05
7.50726e-05
7.45363e-05
2.79141e-05
6.93034e-05
2.79276e-05
6.92757e-05
2.51112e-05
2.51111e-05
2.51111e-05
2.42488e-05
2.42488e-05
2.42486e-05
2.42487e-05
2.18465e-05
2.69347e-05
2.47489e-05
2.38659e-05
2.2337e-05
2.6982e-05
2.44388e-05
7.50714e-05
7.4537e-05
2.18468e-05
2.47488e-05
2.69347e-05
2.38657e-05
2.23365e-05
2.44386e-05
2.69828e-05
3.51878e-05
3.51892e-05
2.29424e-05
3.60295e-05
3.60333e-05
2.81583e-05
6.91977e-05
2.8032e-05
6.91652e-05
7.36076e-05
7.32125e-05
2.81586e-05
6.92013e-05
2.80314e-05
6.9169e-05
2.3971e-05
2.39708e-05
2.39709e-05
2.31652e-05
2.31652e-05
2.3165e-05
2.31651e-05
2.08003e-05
2.72003e-05
2.3541e-05
2.26594e-05
2.11953e-05
2.7355e-05
2.32523e-05
7.36079e-05
7.32127e-05
2.08006e-05
2.35409e-05
2.72004e-05
2.26592e-05
2.11947e-05
2.3252e-05
2.7356e-05
3.74349e-05
3.74385e-05
2.1721e-05
3.83455e-05
3.83499e-05
2.88214e-05
6.91153e-05
2.85548e-05
6.91033e-05
7.25282e-05
7.22428e-05
2.88255e-05
6.91185e-05
2.85543e-05
6.91077e-05
2.29058e-05
2.29056e-05
2.29057e-05
2.21538e-05
2.21538e-05
2.21536e-05
2.21537e-05
2.00274e-05
2.77801e-05
2.24172e-05
2.15629e-05
2.03182e-05
2.80346e-05
2.21492e-05
7.25286e-05
7.22433e-05
2.00275e-05
2.2417e-05
2.77805e-05
2.15627e-05
2.03181e-05
2.2149e-05
2.80357e-05
3.98189e-05
3.98231e-05
2.06511e-05
4.0759e-05
4.07656e-05
2.99292e-05
6.91015e-05
2.94788e-05
6.91156e-05
7.17509e-05
7.15497e-05
2.99382e-05
6.91055e-05
2.94711e-05
6.91208e-05
2.1912e-05
2.19118e-05
2.19119e-05
2.12114e-05
2.12115e-05
2.12112e-05
2.12114e-05
1.95211e-05
2.86495e-05
2.13769e-05
2.05741e-05
1.97027e-05
2.89934e-05
2.113e-05
7.17514e-05
7.15502e-05
1.95212e-05
2.13768e-05
2.86501e-05
2.05739e-05
1.97026e-05
2.11298e-05
2.89946e-05
4.22415e-05
4.22474e-05
1.97251e-05
4.31793e-05
4.31878e-05
3.14434e-05
6.91509e-05
3.08028e-05
6.91882e-05
7.12023e-05
7.10632e-05
3.14481e-05
6.91562e-05
3.08034e-05
6.91931e-05
2.09865e-05
2.09863e-05
2.09864e-05
2.03339e-05
2.0334e-05
2.03337e-05
2.03339e-05
1.92794e-05
2.97741e-05
2.042e-05
1.96899e-05
1.93513e-05
3.01942e-05
2.01934e-05
7.12027e-05
7.10636e-05
1.92796e-05
2.04199e-05
2.97747e-05
1.96897e-05
1.93513e-05
2.01931e-05
3.01958e-05
4.46197e-05
4.46269e-05
1.89357e-05
4.55216e-05
4.55318e-05
3.33279e-05
6.92458e-05
3.25279e-05
6.92926e-05
7.08195e-05
7.07233e-05
3.33262e-05
6.92512e-05
3.25324e-05
6.92977e-05
2.01241e-05
2.01239e-05
2.0124e-05
1.9518e-05
1.9518e-05
1.95178e-05
1.95179e-05
1.92975e-05
3.11126e-05
1.95433e-05
1.89087e-05
1.92658e-05
3.15947e-05
1.93363e-05
7.08198e-05
7.07238e-05
1.92978e-05
1.95432e-05
3.11136e-05
1.89085e-05
1.92659e-05
1.93362e-05
3.15962e-05
4.68766e-05
4.68853e-05
1.82772e-05
4.77297e-05
4.7741e-05
3.55323e-05
6.9357e-05
3.46084e-05
6.94044e-05
7.05507e-05
7.04832e-05
3.55292e-05
6.93625e-05
3.46089e-05
6.94099e-05
1.93239e-05
1.93237e-05
1.93238e-05
1.87638e-05
1.87638e-05
1.87636e-05
1.87637e-05
1.95665e-05
3.2619e-05
1.87441e-05
1.8227e-05
1.9449e-05
3.31457e-05
1.8556e-05
7.0551e-05
7.04836e-05
1.95668e-05
1.8744e-05
3.26201e-05
1.82269e-05
1.94493e-05
1.85558e-05
3.31474e-05
4.89689e-05
4.89785e-05
1.77512e-05
4.97537e-05
4.97658e-05
3.79578e-05
6.94662e-05
3.69685e-05
6.95104e-05
7.03562e-05
7.03066e-05
3.79624e-05
6.94718e-05
3.69681e-05
6.95159e-05
1.85848e-05
1.85845e-05
1.85847e-05
1.80687e-05
1.80688e-05
1.80685e-05
1.80687e-05
2.00908e-05
3.42412e-05
1.80197e-05
1.76416e-05
1.98897e-05
3.47949e-05
1.78499e-05
7.03565e-05
7.0307e-05
2.00912e-05
1.80196e-05
3.42424e-05
1.76415e-05
1.989e-05
1.78498e-05
3.47966e-05
5.08611e-05
5.08711e-05
1.73615e-05
5.15717e-05
5.15847e-05
4.05514e-05
6.95663e-05
3.94893e-05
6.96064e-05
7.02072e-05
7.01682e-05
4.05471e-05
6.95722e-05
3.94931e-05
6.96119e-05
1.79042e-05
1.7904e-05
1.79041e-05
1.74305e-05
1.74305e-05
1.74303e-05
1.74305e-05
2.08646e-05
3.59271e-05
1.73678e-05
1.71514e-05
2.0581e-05
3.64912e-05
1.72159e-05
7.02075e-05
7.01685e-05
2.08652e-05
1.73678e-05
3.59282e-05
1.71514e-05
2.05813e-05
1.72158e-05
3.64932e-05
5.25456e-05
5.25568e-05
1.71052e-05
5.31763e-05
5.3189e-05
4.31518e-05
6.96575e-05
4.21031e-05
6.96939e-05
7.00848e-05
7.00518e-05
4.31554e-05
6.96632e-05
4.21009e-05
6.96997e-05
1.72799e-05
1.72797e-05
1.72798e-05
1.6847e-05
1.6847e-05
1.68468e-05
1.68469e-05
2.18734e-05
3.76288e-05
1.67877e-05
1.67556e-05
2.15139e-05
3.81889e-05
1.66535e-05
7.0085e-05
7.00522e-05
2.18733e-05
1.67877e-05
3.76297e-05
1.67556e-05
2.15144e-05
1.66534e-05
3.81903e-05
5.40221e-05
5.40336e-05
1.69823e-05
5.45792e-05
5.45914e-05
4.56705e-05
6.97415e-05
4.46644e-05
6.97756e-05
6.9978e-05
6.99485e-05
4.56713e-05
6.97472e-05
4.4667e-05
6.97813e-05
1.67097e-05
1.67096e-05
1.67097e-05
1.63166e-05
1.63166e-05
1.63164e-05
1.63165e-05
2.30961e-05
3.93046e-05
1.62771e-05
1.64533e-05
2.2669e-05
3.98481e-05
1.61598e-05
6.99782e-05
6.9949e-05
2.30969e-05
1.62771e-05
3.93057e-05
1.64536e-05
2.26692e-05
1.61598e-05
3.98499e-05
5.53107e-05
5.53225e-05
1.69918e-05
5.57983e-05
5.58111e-05
4.80255e-05
6.98204e-05
4.7081e-05
6.98532e-05
6.98809e-05
6.98542e-05
4.80254e-05
6.98261e-05
4.70833e-05
6.98588e-05
1.61923e-05
1.61922e-05
1.61923e-05
1.58372e-05
1.58372e-05
1.58371e-05
1.58372e-05
2.45013e-05
4.09208e-05
1.58344e-05
1.62447e-05
2.40175e-05
4.14386e-05
1.5734e-05
6.98811e-05
6.98544e-05
2.45012e-05
1.58345e-05
4.09219e-05
1.6245e-05
2.40184e-05
1.57341e-05
4.14401e-05
5.64327e-05
5.64445e-05
1.71272e-05
5.68568e-05
5.68692e-05
5.01303e-05
6.98959e-05
4.9292e-05
6.99268e-05
6.97912e-05
6.97664e-05
5.01329e-05
6.99015e-05
4.92928e-05
6.99322e-05
1.57254e-05
1.57253e-05
1.57254e-05
1.54071e-05
1.54071e-05
1.5407e-05
1.54071e-05
2.60492e-05
4.24531e-05
1.54594e-05
1.61297e-05
2.55233e-05
4.29397e-05
1.53758e-05
6.97912e-05
6.97665e-05
2.60496e-05
1.54594e-05
4.24536e-05
1.61301e-05
2.5523e-05
1.53758e-05
4.2943e-05
5.74089e-05
5.74208e-05
1.73923e-05
5.77795e-05
5.77919e-05
5.19704e-05
6.99669e-05
5.124e-05
6.99956e-05
6.97072e-05
6.96841e-05
5.19725e-05
6.99724e-05
5.1242e-05
7.00012e-05
1.53073e-05
1.53073e-05
1.53074e-05
2.76945e-05
4.38865e-05
1.51518e-05
1.61103e-05
2.7142e-05
4.43395e-05
1.50848e-05
6.97075e-05
6.96846e-05
2.76947e-05
1.51519e-05
4.38817e-05
1.61108e-05
2.71425e-05
1.50849e-05
4.43474e-05
5.8261e-05
5.8273e-05
1.77829e-05
5.8586e-05
5.85982e-05
3.73741e-05
3.72958e-05
3.72959e-05
5.3112e-05
3.71932e-05
5.31139e-05
3.71932e-05
3.7093e-05
3.72394e-05
3.72406e-05
3.71762e-05
3.71762e-05
3.73701e-05
3.73777e-05
3.73043e-05
3.73768e-05
3.73701e-05
3.73777e-05
3.73043e-05
3.73768e-05
3.71732e-05
3.9412e-05
3.7168e-05
3.67256e-05
3.71732e-05
3.94119e-05
3.7168e-05
3.67257e-05
3.70959e-05
3.71022e-05
3.60247e-05
3.64211e-05
3.71636e-05
3.71109e-05
3.63055e-05
3.70958e-05
3.71022e-05
3.60252e-05
3.64211e-05
3.71636e-05
3.71109e-05
3.63055e-05
3.73741e-05
3.72958e-05
3.72958e-05
5.31122e-05
3.71933e-05
3.7093e-05
3.7241e-05
3.72388e-05
3.71762e-05
3.71762e-05
5.31137e-05
3.71933e-05
3.73701e-05
3.73777e-05
3.73043e-05
3.73768e-05
3.73701e-05
3.73777e-05
3.73768e-05
3.73043e-05
3.71732e-05
3.94124e-05
3.7168e-05
3.67258e-05
3.70958e-05
3.71022e-05
3.60249e-05
3.64211e-05
3.71636e-05
3.71109e-05
3.63055e-05
3.71732e-05
3.94127e-05
3.7168e-05
3.67256e-05
3.70958e-05
3.71022e-05
3.64211e-05
3.60248e-05
3.71109e-05
3.71636e-05
3.63055e-05
3.73773e-05
3.73765e-05
3.7377e-05
3.7377e-05
3.73773e-05
3.73765e-05
3.7377e-05
3.7377e-05
3.73773e-05
3.73765e-05
3.7377e-05
3.7377e-05
3.71133e-05
3.71099e-05
3.64241e-05
3.64241e-05
3.71125e-05
3.71125e-05
3.64261e-05
3.71133e-05
3.71099e-05
3.64241e-05
3.64241e-05
3.71125e-05
3.71125e-05
3.64261e-05
3.71133e-05
3.71099e-05
3.64241e-05
3.64241e-05
3.71125e-05
3.71125e-05
3.64261e-05
3.71133e-05
3.71099e-05
3.64241e-05
3.64241e-05
3.71125e-05
3.71125e-05
3.64261e-05
3.73701e-05
3.73777e-05
3.73768e-05
3.73043e-05
3.70958e-05
3.71022e-05
3.60246e-05
3.64211e-05
3.71636e-05
3.71109e-05
3.63055e-05
3.71732e-05
3.94121e-05
3.7168e-05
3.67258e-05
3.70958e-05
3.71022e-05
3.64211e-05
3.60252e-05
3.71109e-05
3.71636e-05
3.63055e-05
3.71732e-05
3.94127e-05
3.7168e-05
3.67255e-05
3.73741e-05
3.72959e-05
3.72959e-05
5.31144e-05
3.71933e-05
3.7093e-05
3.72397e-05
3.72408e-05
3.71762e-05
3.71762e-05
5.31145e-05
3.71933e-05
3.73702e-05
3.73777e-05
3.73768e-05
3.73043e-05
3.70958e-05
3.71022e-05
3.64211e-05
3.60252e-05
3.71109e-05
3.71636e-05
3.63056e-05
3.70958e-05
3.71022e-05
3.64211e-05
3.60252e-05
3.71109e-05
3.71636e-05
3.63056e-05
3.71732e-05
3.94126e-05
3.7168e-05
3.67256e-05
3.71732e-05
3.94126e-05
3.7168e-05
3.67258e-05
3.7093e-05
3.72406e-05
3.72412e-05
3.71762e-05
3.71762e-05
5.31143e-05
3.71933e-05
5.31142e-05
3.71933e-05
5.51147e-05
6.48949e-05
5.51165e-05
6.48979e-05
3.65983e-05
3.65983e-05
3.5279e-05
3.40626e-05
3.40629e-05
7.47296e-05
6.76705e-05
7.47334e-05
6.76744e-05
3.49729e-05
3.20402e-05
3.20402e-05
3.34711e-05
3.34701e-05
3.58797e-05
4.08715e-05
3.66035e-05
4.5145e-05
3.52756e-05
3.56385e-05
3.58929e-05
3.53771e-05
3.60476e-05
3.4237e-05
3.53822e-05
3.52757e-05
3.5638e-05
3.58929e-05
3.5377e-05
3.60475e-05
3.42379e-05
3.53822e-05
3.56333e-05
5.02153e-05
4.64544e-05
3.48928e-05
3.56336e-05
5.02141e-05
4.6454e-05
3.48934e-05
3.49993e-05
3.48726e-05
3.2731e-05
3.44018e-05
3.38643e-05
3.48857e-05
3.41796e-05
3.49994e-05
3.48725e-05
3.27319e-05
3.44018e-05
3.38632e-05
3.48857e-05
3.41798e-05
3.65974e-05
3.65995e-05
3.5279e-05
3.40641e-05
3.40604e-05
5.51158e-05
6.48975e-05
7.47303e-05
6.76729e-05
3.49729e-05
3.20413e-05
3.20376e-05
3.34693e-05
3.34728e-05
7.47324e-05
6.7672e-05
3.52759e-05
3.56382e-05
3.58929e-05
3.5377e-05
3.60475e-05
3.42371e-05
3.53822e-05
3.588e-05
4.08722e-05
3.66031e-05
4.51481e-05
3.52758e-05
3.58929e-05
3.56384e-05
3.5377e-05
3.60475e-05
3.53822e-05
3.42369e-05
3.5633e-05
5.02153e-05
4.6454e-05
3.48941e-05
3.49992e-05
3.48726e-05
3.27309e-05
3.44018e-05
3.38635e-05
3.48857e-05
3.41799e-05
3.56329e-05
5.02173e-05
4.64556e-05
3.48936e-05
3.49992e-05
3.48725e-05
3.44018e-05
3.27306e-05
3.48857e-05
3.38639e-05
3.41798e-05
3.58799e-05
4.08699e-05
3.66034e-05
4.51471e-05
3.52757e-05
3.58929e-05
3.56381e-05
3.53771e-05
3.60475e-05
3.53822e-05
3.42379e-05
3.58799e-05
4.0873e-05
3.6603e-05
4.51468e-05
3.49994e-05
3.48726e-05
3.273e-05
3.44018e-05
3.3864e-05
3.48857e-05
3.41798e-05
3.56335e-05
5.02149e-05
4.64518e-05
3.48934e-05
3.49993e-05
3.48726e-05
3.44018e-05
3.27318e-05
3.48857e-05
3.38631e-05
3.41797e-05
3.5633e-05
5.02155e-05
4.64563e-05
3.48932e-05
3.65987e-05
3.65973e-05
3.5279e-05
3.40615e-05
3.40634e-05
5.51169e-05
6.48965e-05
7.47349e-05
6.76734e-05
3.49729e-05
3.20385e-05
3.2042e-05
3.34713e-05
3.34696e-05
7.47318e-05
6.76744e-05
3.52759e-05
3.58929e-05
3.5638e-05
3.5377e-05
3.60475e-05
3.53822e-05
3.42376e-05
3.58806e-05
4.08723e-05
3.66029e-05
4.51473e-05
3.58809e-05
4.08715e-05
3.66032e-05
4.51462e-05
3.49992e-05
3.48726e-05
3.44018e-05
3.27317e-05
3.48857e-05
3.38633e-05
3.41799e-05
3.49992e-05
3.48726e-05
3.44018e-05
3.27316e-05
3.48857e-05
3.38629e-05
3.418e-05
3.56322e-05
5.02165e-05
4.6456e-05
3.48939e-05
3.56325e-05
5.02159e-05
4.6454e-05
3.48942e-05
5.51164e-05
6.48964e-05
5.51165e-05
6.4897e-05
3.49729e-05
3.20418e-05
3.20405e-05
3.3469e-05
3.34693e-05
7.47309e-05
6.76737e-05
7.47324e-05
6.76753e-05
7.65422e-05
8.08604e-05
7.65464e-05
8.08647e-05
3.1719e-05
3.17167e-05
3.32638e-05
3.09229e-05
3.09232e-05
8.40052e-05
8.18479e-05
8.40088e-05
8.18514e-05
3.29546e-05
3.03086e-05
3.03089e-05
3.07486e-05
3.07449e-05
3.39662e-05
5.13531e-05
3.46794e-05
5.46246e-05
3.30538e-05
3.2475e-05
3.39295e-05
3.34086e-05
3.3896e-05
3.15762e-05
3.34678e-05
3.3054e-05
3.24738e-05
3.39294e-05
3.34086e-05
3.38961e-05
3.15774e-05
3.34678e-05
3.378e-05
5.83691e-05
5.55975e-05
3.30821e-05
3.37801e-05
5.83693e-05
5.55969e-05
3.30825e-05
3.27692e-05
3.29353e-05
3.06508e-05
3.25726e-05
3.13931e-05
3.30158e-05
3.19181e-05
3.27693e-05
3.29352e-05
3.06515e-05
3.25726e-05
3.13914e-05
3.30158e-05
3.19183e-05
3.17164e-05
3.17201e-05
3.32638e-05
3.09243e-05
3.09196e-05
7.65436e-05
8.08626e-05
8.40061e-05
8.18499e-05
3.29546e-05
3.03096e-05
3.03059e-05
3.07453e-05
3.07495e-05
8.40071e-05
8.18491e-05
3.30542e-05
3.24741e-05
3.39295e-05
3.34087e-05
3.38959e-05
3.15766e-05
3.34678e-05
3.39677e-05
5.13551e-05
3.46788e-05
5.46282e-05
3.3054e-05
3.39295e-05
3.24748e-05
3.34086e-05
3.38958e-05
3.34678e-05
3.15757e-05
3.37779e-05
5.83702e-05
5.55989e-05
3.30848e-05
3.2769e-05
3.29353e-05
3.06506e-05
3.25726e-05
3.13915e-05
3.30158e-05
3.19185e-05
3.37778e-05
5.83729e-05
5.55991e-05
3.30843e-05
3.27689e-05
3.29351e-05
3.25726e-05
3.06501e-05
3.30158e-05
3.13929e-05
3.19182e-05
3.39666e-05
5.13521e-05
3.46793e-05
5.46249e-05
3.30539e-05
3.39295e-05
3.2474e-05
3.34086e-05
3.3896e-05
3.34678e-05
3.15777e-05
3.39658e-05
5.13551e-05
3.46794e-05
5.46259e-05
3.27693e-05
3.29354e-05
3.065e-05
3.25726e-05
3.13927e-05
3.30158e-05
3.19183e-05
3.37796e-05
5.83698e-05
5.5596e-05
3.30826e-05
3.27692e-05
3.29352e-05
3.25726e-05
3.06517e-05
3.30158e-05
3.13917e-05
3.19181e-05
3.37794e-05
5.83711e-05
5.55989e-05
3.30823e-05
3.17192e-05
3.17167e-05
3.32638e-05
3.09211e-05
3.09244e-05
7.65458e-05
8.08622e-05
8.40097e-05
8.18517e-05
3.29546e-05
3.03072e-05
3.03102e-05
3.07482e-05
3.07466e-05
8.40068e-05
8.18509e-05
3.30543e-05
3.39295e-05
3.24733e-05
3.34086e-05
3.38959e-05
3.34678e-05
3.15773e-05
3.39678e-05
5.13552e-05
3.46787e-05
5.46268e-05
3.39677e-05
5.13539e-05
3.46789e-05
5.46259e-05
3.27689e-05
3.29353e-05
3.25726e-05
3.06514e-05
3.30158e-05
3.13917e-05
3.19183e-05
3.2769e-05
3.29353e-05
3.25726e-05
3.06513e-05
3.30158e-05
3.13912e-05
3.19185e-05
3.37776e-05
5.83713e-05
5.5599e-05
3.30845e-05
3.37781e-05
5.83708e-05
5.55983e-05
3.30849e-05
7.65456e-05
8.08622e-05
7.65474e-05
8.08637e-05
3.29546e-05
3.03107e-05
3.03091e-05
3.07457e-05
3.07449e-05
8.40069e-05
8.18508e-05
8.40081e-05
8.18524e-05
8.43911e-05
8.50673e-05
8.43932e-05
8.50696e-05
3.02203e-05
3.02169e-05
3.12731e-05
3.00038e-05
3.00033e-05
8.48431e-05
8.50718e-05
8.48444e-05
8.50733e-05
3.09612e-05
2.99305e-05
2.99294e-05
2.99713e-05
2.99692e-05
3.22502e-05
5.91688e-05
3.2924e-05
6.14413e-05
3.07891e-05
3.05146e-05
3.21375e-05
3.15539e-05
3.16366e-05
2.98871e-05
3.17101e-05
3.07893e-05
3.05131e-05
3.21375e-05
3.15537e-05
3.16368e-05
2.98871e-05
3.17101e-05
3.21138e-05
6.38725e-05
6.20739e-05
3.14721e-05
3.21141e-05
6.38738e-05
6.20731e-05
3.14724e-05
3.05138e-05
3.1106e-05
2.9237e-05
3.08764e-05
2.97757e-05
3.12898e-05
2.96796e-05
3.05139e-05
3.11059e-05
2.92372e-05
3.08764e-05
2.97754e-05
3.12898e-05
2.96799e-05
3.02174e-05
3.02197e-05
3.12732e-05
3.0004e-05
3.00016e-05
8.43915e-05
8.50683e-05
8.48433e-05
8.50719e-05
3.09612e-05
2.993e-05
2.99285e-05
2.99697e-05
2.99701e-05
8.48434e-05
8.50722e-05
3.07894e-05
3.05133e-05
3.21376e-05
3.15539e-05
3.16365e-05
2.98866e-05
3.17101e-05
3.22515e-05
5.91711e-05
3.29215e-05
6.14449e-05
3.07891e-05
3.21375e-05
3.05139e-05
3.15537e-05
3.16363e-05
3.17101e-05
2.98865e-05
3.21126e-05
6.38755e-05
6.20754e-05
3.14731e-05
3.05137e-05
3.11061e-05
2.92371e-05
3.08763e-05
2.97752e-05
3.12899e-05
2.96799e-05
3.21123e-05
6.38772e-05
6.20753e-05
3.14727e-05
3.05135e-05
3.11058e-05
3.08763e-05
2.92365e-05
3.12898e-05
2.97751e-05
2.96797e-05
3.22502e-05
5.91682e-05
3.2924e-05
6.1442e-05
3.07891e-05
3.21375e-05
3.05133e-05
3.15538e-05
3.16366e-05
3.17101e-05
2.98873e-05
3.22499e-05
5.91706e-05
3.29237e-05
6.14429e-05
3.0514e-05
3.11062e-05
2.92364e-05
3.08764e-05
2.9775e-05
3.12899e-05
2.96799e-05
3.21141e-05
6.38747e-05
6.20726e-05
3.14724e-05
3.05138e-05
3.1106e-05
3.08764e-05
2.92373e-05
3.12898e-05
2.97755e-05
2.96796e-05
3.21137e-05
6.3875e-05
6.20746e-05
3.1472e-05
3.0219e-05
3.02184e-05
3.12731e-05
3.00025e-05
3.0005e-05
8.43927e-05
8.50683e-05
8.48446e-05
8.50738e-05
3.09611e-05
2.99294e-05
2.99309e-05
2.99702e-05
2.99706e-05
8.48439e-05
8.50726e-05
3.07895e-05
3.21375e-05
3.05128e-05
3.15539e-05
3.16365e-05
3.17101e-05
2.98868e-05
3.22516e-05
5.91707e-05
3.29214e-05
6.1443e-05
3.2252e-05
5.91705e-05
3.29218e-05
6.1443e-05
3.05135e-05
3.11062e-05
3.08763e-05
2.92374e-05
3.12899e-05
2.97756e-05
2.96798e-05
3.05137e-05
3.11061e-05
3.08763e-05
2.92369e-05
3.12898e-05
2.97751e-05
2.968e-05
3.21123e-05
6.38753e-05
6.20749e-05
3.14728e-05
3.21126e-05
6.38756e-05
6.20749e-05
3.14732e-05
8.43929e-05
8.50685e-05
8.4394e-05
8.50693e-05
3.09611e-05
2.99306e-05
2.99294e-05
2.99703e-05
2.99692e-05
8.48441e-05
8.50728e-05
8.48445e-05
8.50734e-05
8.46113e-05
8.39125e-05
8.46111e-05
8.39136e-05
2.99422e-05
2.99405e-05
2.93484e-05
3.00362e-05
3.00352e-05
8.26243e-05
8.35484e-05
8.26251e-05
8.35479e-05
2.90407e-05
3.03215e-05
3.03195e-05
3.01089e-05
3.0108e-05
3.07533e-05
6.43507e-05
3.13506e-05
6.57285e-05
2.86003e-05
2.91421e-05
3.04694e-05
2.98002e-05
2.94128e-05
2.86754e-05
3.00687e-05
2.86006e-05
2.9142e-05
3.04694e-05
2.98e-05
2.9413e-05
2.86756e-05
3.00687e-05
3.06424e-05
6.70856e-05
6.60722e-05
3.00989e-05
3.06427e-05
6.70864e-05
6.6072e-05
3.00992e-05
2.83442e-05
2.9378e-05
2.81914e-05
2.92854e-05
2.85942e-05
2.96741e-05
2.75607e-05
2.83444e-05
2.93778e-05
2.81916e-05
2.92854e-05
2.85944e-05
2.96741e-05
2.75609e-05
2.99411e-05
2.99409e-05
2.93485e-05
3.00357e-05
3.00344e-05
8.46103e-05
8.39135e-05
8.26234e-05
8.35483e-05
2.90407e-05
3.03223e-05
3.03184e-05
3.01085e-05
3.01082e-05
8.26255e-05
8.35474e-05
2.86006e-05
2.91418e-05
3.04694e-05
2.98003e-05
2.94128e-05
2.86753e-05
3.00687e-05
3.07535e-05
6.43525e-05
3.13501e-05
6.57315e-05
2.86004e-05
3.04693e-05
2.91417e-05
2.97999e-05
2.94126e-05
3.00686e-05
2.86748e-05
3.06427e-05
6.70889e-05
6.60741e-05
3.00998e-05
2.83441e-05
2.93781e-05
2.81912e-05
2.92854e-05
2.85942e-05
2.96741e-05
2.7561e-05
3.06423e-05
6.70894e-05
6.60734e-05
3.00994e-05
2.83439e-05
2.93777e-05
2.92853e-05
2.81907e-05
2.9674e-05
2.85941e-05
2.75607e-05
3.07533e-05
6.43502e-05
3.13506e-05
6.57295e-05
2.86003e-05
3.04694e-05
2.9142e-05
2.98001e-05
2.94128e-05
3.00687e-05
2.86755e-05
3.07529e-05
6.43519e-05
3.13502e-05
6.57294e-05
2.83444e-05
2.93783e-05
2.81905e-05
2.92855e-05
2.85939e-05
2.96741e-05
2.75609e-05
3.06426e-05
6.70876e-05
6.60717e-05
3.00991e-05
2.83442e-05
2.93779e-05
2.92854e-05
2.81914e-05
2.96741e-05
2.85943e-05
2.75606e-05
3.06422e-05
6.70869e-05
6.60729e-05
3.00987e-05
2.99413e-05
2.9942e-05
2.93483e-05
3.00354e-05
3.00367e-05
8.46118e-05
8.3912e-05
8.26261e-05
8.35476e-05
2.90406e-05
3.03197e-05
3.03247e-05
3.01089e-05
3.01094e-05
8.26237e-05
8.35491e-05
2.86008e-05
3.04694e-05
2.91416e-05
2.98003e-05
2.94128e-05
3.00687e-05
2.86752e-05
3.07536e-05
6.43522e-05
3.13501e-05
6.57297e-05
3.07539e-05
6.43526e-05
3.13505e-05
6.57303e-05
2.83439e-05
2.93783e-05
2.92854e-05
2.81915e-05
2.96741e-05
2.85944e-05
2.75608e-05
2.83441e-05
2.93781e-05
2.92854e-05
2.81912e-05
2.96741e-05
2.8594e-05
2.75611e-05
3.06423e-05
6.70874e-05
6.60733e-05
3.00995e-05
3.06427e-05
6.70883e-05
6.6074e-05
3.00998e-05
8.46119e-05
8.39122e-05
8.46123e-05
8.3912e-05
2.90406e-05
3.03211e-05
3.03205e-05
3.0109e-05
3.01081e-05
8.2624e-05
8.35492e-05
8.26234e-05
8.35492e-05
8.22133e-05
8.12223e-05
8.22121e-05
8.12228e-05
3.04421e-05
3.04468e-05
2.75331e-05
3.07837e-05
3.07772e-05
7.98364e-05
8.08053e-05
7.98367e-05
8.08034e-05
2.72388e-05
3.13924e-05
3.13862e-05
3.09287e-05
3.09343e-05
2.95181e-05
6.73202e-05
3.0001e-05
6.80354e-05
2.65674e-05
2.81234e-05
2.89026e-05
2.81515e-05
2.7317e-05
2.7782e-05
2.85256e-05
2.65676e-05
2.81236e-05
2.89026e-05
2.81513e-05
2.73171e-05
2.77822e-05
2.85256e-05
2.94332e-05
6.86603e-05
6.81819e-05
2.90173e-05
2.94335e-05
6.86605e-05
6.81831e-05
2.90176e-05
2.63383e-05
2.77563e-05