/*--------------------------------*- C++ -*----------------------------------*\
| =========                 |                                                 |
| \\      /  F ield         | OpenFOAM: The Open Source CFD Toolbox           |
|  \\    /   O peration     | Version:  v1906                                 |
|   \\  /    A nd           | Web:      www.OpenFOAM.com                      |
|    \\/     M anipulation  |                                                 |
\*---------------------------------------------------------------------------*/
FoamFile
{
    version     2.0;
    format      ascii;
    class       volScalarField;
    location    "625";
    object      nut;
}
// * * * * * * * * * * * * * * * * * * * * * * * * * * * * * * * * * * * * * //

dimensions      [0 2 -1 0 0 0 0];


internalField   nonuniform List<scalar> 
43024
(
0.000233973
0.000233116
0.000233116
0.000233423
0.000232532
0.000227802
0.000227801
0.000223866
0.000230516
0.00022032
0.000220318
0.000209109
0.000227799
0.000211665
0.000211661
0.000193785
0.000224433
0.00020265
0.000202644
0.000179709
0.000220552
0.000193772
0.000193765
0.000167339
0.000216304
0.000185275
0.000185267
0.000156587
0.00021182
0.000177234
0.000177226
0.000147206
0.000207207
0.000169688
0.00016968
0.00013895
0.000202545
0.000162611
0.000162603
0.000131615
0.000197889
0.000155949
0.000155941
0.000124953
0.000193275
0.000149647
0.000149638
0.000118816
0.000188683
0.000143665
0.000143657
0.000113168
0.000184151
0.000137952
0.000137943
0.000107932
0.000179706
0.000132462
0.000132454
0.000103055
0.000175338
0.000127189
0.00012718
9.84314e-05
0.000171035
0.00012215
0.000122139
9.42487e-05
0.000166785
0.000117372
0.000117362
9.06637e-05
0.000162586
0.000112888
0.000112878
8.77339e-05
0.000158416
0.000108756
0.000108746
8.5389e-05
0.000154264
0.000105026
0.000105015
8.36666e-05
0.000234266
0.000234448
0.000234449
0.000234267
0.000234448
0.000234449
0.000234274
0.000234274
0.000234274
0.000234274
0.000234448
0.000234448
0.000234266
0.000234448
0.000234448
0.000234266
0.000233423
0.000226204
0.000233116
0.000233114
0.000229361
0.000229357
0.000233423
0.000226205
0.000233114
0.000233114
0.000229359
0.000229356
0.000233116
0.000229364
0.000229361
0.000233423
0.000226202
0.000233114
0.000229363
0.000229359
0.000226202
0.000223867
0.00021223
0.000227799
0.000227794
0.000222332
0.000222326
0.000223868
0.000212234
0.000227797
0.000227792
0.000222332
0.000222323
0.000227798
0.000222339
0.000222331
0.000223866
0.000212227
0.000227797
0.000222336
0.000222331
0.000212228
0.000209111
0.000197061
0.000220313
0.000220307
0.000213879
0.000213874
0.000209112
0.000197066
0.000220314
0.000220304
0.000213883
0.000213869
0.000220311
0.00021389
0.000213877
0.000209107
0.000197057
0.000220313
0.000213886
0.000213882
0.000197058
0.000193788
0.000182876
0.000211654
0.000211648
0.00020489
0.000204884
0.000193792
0.000182883
0.000211658
0.000211643
0.000204897
0.000204879
0.000211651
0.000204905
0.000204887
0.000193784
0.000182872
0.000211657
0.000204899
0.000204896
0.000182873
0.000179713
0.000170268
0.000202634
0.000202628
0.000195943
0.000195937
0.000179717
0.000170274
0.000202643
0.000202622
0.000195954
0.000195931
0.000202631
0.000195962
0.00019594
0.000179708
0.000170263
0.000202641
0.000195955
0.000195953
0.000170264
0.000167344
0.000159242
0.000193753
0.000193747
0.000187336
0.000187331
0.000167349
0.000159249
0.000193765
0.00019374
0.000187351
0.000187324
0.00019375
0.000187359
0.000187333
0.000167339
0.000159238
0.000193764
0.000187351
0.00018735
0.000159238
0.000156592
0.000149614
0.000185253
0.000185247
0.000179173
0.000179167
0.000156597
0.00014962
0.000185268
0.00018524
0.000179191
0.00017916
0.000185249
0.000179198
0.00017917
0.000156587
0.000149608
0.000185267
0.000179189
0.00017919
0.000149608
0.000147211
0.000141107
0.000177208
0.000177203
0.000171501
0.000171496
0.000147217
0.000141114
0.000177227
0.000177195
0.000171521
0.000171488
0.000177205
0.000171529
0.000171498
0.000147206
0.000141102
0.000177225
0.00017152
0.000171521
0.000141101
0.000138956
0.000133547
0.00016966
0.000169655
0.000164309
0.000164304
0.000138962
0.000133554
0.000169682
0.000169647
0.000164332
0.000164296
0.000169658
0.000164339
0.000164307
0.000138951
0.000133542
0.00016968
0.000164331
0.000164332
0.000133541
0.000131621
0.000126686
0.000162581
0.000162576
0.000157546
0.000157541
0.000131627
0.000126693
0.000162605
0.000162567
0.000157572
0.000157533
0.000162578
0.000157579
0.000157545
0.000131615
0.00012668
0.000162604
0.00015757
0.000157571
0.000126679
0.00012496
0.000120362
0.000155916
0.000155912
0.000151157
0.000151152
0.000124966
0.000120369
0.000155942
0.000155903
0.000151184
0.000151144
0.000155915
0.000151192
0.000151156
0.000124954
0.000120356
0.000155942
0.000151183
0.000151184
0.000120355
0.000118823
0.000114426
0.000149612
0.000149607
0.000145095
0.000145091
0.000118828
0.000114433
0.000149639
0.000149599
0.000145124
0.000145083
0.000149611
0.000145132
0.000145096
0.000118816
0.000114419
0.000149639
0.000145123
0.000145124
0.000114418
0.000113175
0.000108835
0.00014363
0.000143624
0.000139318
0.000139313
0.00011318
0.000108842
0.000143658
0.000143616
0.000139347
0.000139305
0.000143629
0.000139356
0.000139319
0.000113168
0.000108829
0.000143658
0.000139347
0.000139348
0.000108828
0.000107939
0.0001037
0.000137916
0.000137909
0.000133775
0.000133769
0.000107944
0.000103706
0.000137944
0.000137901
0.000133804
0.000133762
0.000137915
0.000133814
0.000133776
0.000107932
0.000103694
0.000137944
0.000133805
0.000133806
0.000103694
0.00010306
9.91238e-05
0.000132424
0.000132418
0.000128445
0.000128437
0.000103067
9.91304e-05
0.000132453
0.00013241
0.000128472
0.000128429
0.000132424
0.000128484
0.000128445
0.000103056
9.91177e-05
0.000132454
0.000128474
0.000128475
9.91161e-05
9.84383e-05
9.4987e-05
0.00012715
0.000127143
0.000123344
0.000123336
9.84444e-05
9.49927e-05
0.000127178
0.000127135
0.00012337
0.000123327
0.000127151
0.000123383
0.000123346
9.84326e-05
9.49809e-05
0.00012718
0.000123373
0.000123374
9.49789e-05
9.42561e-05
9.14374e-05
0.000122111
0.000122103
0.000118477
0.00011847
9.4261e-05
9.14421e-05
0.000122137
0.000122095
0.000118503
0.000118462
0.000122113
0.000118517
0.000118481
9.42495e-05
9.14319e-05
0.00012214
0.000118507
0.000118508
9.14325e-05
9.06671e-05
8.83815e-05
0.000117332
0.000117325
0.000113922
0.000113918
9.06728e-05
8.83885e-05
0.000117357
0.000117316
0.000113947
0.000113908
0.000117336
0.000113964
0.000113927
9.06633e-05
8.83784e-05
0.000117362
0.000113954
0.000113953
8.83758e-05
8.77391e-05
8.59109e-05
0.000112847
0.000112842
0.000109691
0.000109685
8.77463e-05
8.59161e-05
0.000112871
0.000112832
0.000109714
0.000109676
0.000112851
0.000109731
0.000109697
8.77373e-05
8.59066e-05
0.000112877
0.000109721
0.000109721
8.59092e-05
8.53917e-05
8.4071e-05
0.000108718
0.00010871
0.000105849
0.000105841
8.53952e-05
8.40764e-05
0.00010874
0.000108701
0.000105869
0.000105831
0.000108723
0.000105886
0.000105853
8.53862e-05
8.40652e-05
0.000108747
0.000105876
0.000105876
8.40673e-05
8.36713e-05
0.000104988
0.00010498
8.36765e-05
0.000105008
0.00010497
0.000104992
8.3666e-05
0.000105015
0.00023473
0.000234746
0.000234729
0.000234729
0.000235117
0.000234798
0.000234701
0.000234727
0.000235118
0.000234798
0.000234727
0.000234701
0.000234867
0.000233566
0.000233566
0.000104651
3.87411e-05
0.000129118
3.98249e-05
2.16834e-05
2.28313e-05
0.000104643
3.87371e-05
0.000129114
3.98214e-05
0.000233973
0.000233973
0.000233973
0.000232935
0.000232935
0.000232935
0.000232935
0.000206196
9.36752e-05
0.000233969
0.000231994
0.000222614
8.72226e-05
0.000233611
2.16823e-05
2.28307e-05
0.00020619
0.000233969
9.36747e-05
0.000231994
0.000222622
0.000233611
8.72283e-05
4.78012e-05
4.77894e-05
0.000231345
4.40185e-05
4.4009e-05
7.25677e-05
4.2434e-05
8.14027e-05
4.37634e-05
2.47749e-05
2.54634e-05
7.25581e-05
4.24305e-05
8.13974e-05
4.37596e-05
0.000232532
0.000232532
0.000232532
0.000231084
0.000231084
0.000231083
0.000231084
0.000167491
7.94389e-05
0.000232081
0.000226097
0.000180211
7.45079e-05
0.000231376
2.47731e-05
2.54619e-05
0.000167487
0.000232081
7.94327e-05
0.000226096
0.000180204
0.000231375
7.4511e-05
3.91643e-05
3.91541e-05
0.000219593
3.65758e-05
3.65651e-05
5.62773e-05
4.55466e-05
6.11325e-05
4.64126e-05
2.60134e-05
2.61173e-05
5.62814e-05
4.55439e-05
6.11277e-05
4.64097e-05
0.000230516
0.000230515
0.000230515
0.000228543
0.000228543
0.000228541
0.000228542
0.000138601
6.74261e-05
0.000228643
0.000218231
0.000148065
6.35185e-05
0.000227537
2.60111e-05
2.61152e-05
0.000138596
0.000228643
6.74201e-05
0.000218228
0.000148057
0.000227534
6.35147e-05
3.32183e-05
3.32097e-05
0.000204613
3.19922e-05
3.19831e-05
4.69657e-05
4.74992e-05
4.99089e-05
4.80043e-05
2.60471e-05
2.59392e-05
4.69648e-05
4.74958e-05
4.99095e-05
4.80015e-05
0.000227799
0.000227797
0.000227798
0.000225328
0.000225329
0.000225326
0.000225327
0.000117548
5.82051e-05
0.000223721
0.00020942
0.000124602
5.54861e-05
0.00022231
2.60446e-05
2.59372e-05
0.000117545
0.000223719
5.82034e-05
0.000209415
0.000124595
0.000222306
5.54828e-05
3.0618e-05
3.06101e-05
0.000189779
3.03048e-05
3.0297e-05
4.14286e-05
4.85827e-05
4.32437e-05
4.884e-05
2.56753e-05
2.55199e-05
4.14276e-05
4.85791e-05
4.32442e-05
4.88367e-05
0.000224433
0.000224431
0.000224432
0.000221562
0.000221563
0.000221559
0.000221561
0.000102113
5.18773e-05
0.000217771
0.000200404
0.00010738
5.00766e-05
0.000216181
2.56727e-05
2.5518e-05
0.000102111
0.000217769
5.1876e-05
0.000200398
0.000107374
0.000216177
5.00742e-05
3.01772e-05
3.01717e-05
0.000176369
3.03996e-05
3.03921e-05
3.8156e-05
4.90933e-05
3.92421e-05
4.91987e-05
2.52376e-05
2.5094e-05
3.8155e-05
4.90901e-05
3.92423e-05
4.91953e-05
0.000220552
0.000220549
0.00022055
0.000217392
0.000217393
0.000217389
0.000217391
9.04958e-05
4.77382e-05
0.000211269
0.000191607
9.44602e-05
4.66134e-05
0.000209603
2.5235e-05
2.50922e-05
9.04948e-05
0.000211267
4.77371e-05
0.0001916
9.44544e-05
0.000209598
4.66111e-05
3.09633e-05
3.09577e-05
0.000164561
3.15653e-05
3.15581e-05
3.63745e-05
4.92748e-05
3.69397e-05
4.92961e-05
2.48485e-05
2.47327e-05
3.63734e-05
4.92716e-05
3.69396e-05
4.92929e-05
0.000216305
0.0002163
0.000216302
0.000212957
0.000212957
0.000212952
0.000212955
8.15888e-05
4.51677e-05
0.000204579
0.000183219
8.46716e-05
4.45536e-05
0.000202907
2.48461e-05
2.47309e-05
8.15885e-05
0.000204576
4.51672e-05
0.000183211
8.4666e-05
0.000202902
4.45508e-05
3.25137e-05
3.25077e-05
0.000154267
3.33387e-05
3.33326e-05
3.56768e-05
4.92919e-05
3.58212e-05
4.9282e-05
2.45348e-05
2.4447e-05
3.56746e-05
4.92888e-05
3.58208e-05
4.9279e-05
0.000211821
0.000211816
0.000211818
0.000208367
0.000208368
0.000208362
0.000208365
7.46449e-05
4.37722e-05
0.000197938
0.000175301
7.712e-05
4.35225e-05
0.000196304
2.45325e-05
2.4445e-05
7.46448e-05
0.000197935
4.37703e-05
0.000175292
7.71142e-05
0.000196298
4.35203e-05
3.45428e-05
3.4537e-05
0.00014522
3.54941e-05
3.54913e-05
3.57595e-05
4.92556e-05
3.5639e-05
4.9244e-05
2.42942e-05
2.42289e-05
3.57578e-05
4.92525e-05
3.56374e-05
4.9241e-05
0.000207208
0.000207202
0.000207204
0.000203711
0.000203712
0.000203705
0.000203708
6.91752e-05
4.32435e-05
0.000191483
0.000167877
7.12039e-05
4.3235e-05
0.000189901
2.42922e-05
2.42269e-05
6.91749e-05
0.00019148
4.32426e-05
0.000167868
7.11982e-05
0.000189895
4.32334e-05
3.68627e-05
3.68595e-05
0.000137218
3.78905e-05
3.78866e-05
3.65536e-05
4.92265e-05
3.62068e-05
4.92222e-05
2.41154e-05
2.40679e-05
3.65614e-05
4.92233e-05
3.62055e-05
4.92194e-05
0.000202546
0.000202539
0.000202542
0.000199049
0.00019905
0.000199043
0.000199047
6.48674e-05
4.33837e-05
0.00018524
0.000160909
6.65088e-05
4.35659e-05
0.000183717
2.41134e-05
2.4066e-05
6.48656e-05
0.000185237
4.33833e-05
0.0001609
6.65058e-05
0.000183711
4.35648e-05
3.93397e-05
3.93359e-05
0.000130034
4.03985e-05
4.03967e-05
3.80462e-05
4.92218e-05
3.73844e-05
4.92268e-05
2.39858e-05
2.39522e-05
3.80649e-05
4.92187e-05
3.73662e-05
4.92241e-05
0.000197891
0.000197883
0.000197887
0.000194421
0.000194422
0.000194415
0.000194419
6.15072e-05
4.40646e-05
0.000179254
0.000154342
6.2754e-05
4.44056e-05
0.000177803
2.39839e-05
2.39502e-05
6.15053e-05
0.000179251
4.40647e-05
0.000154333
6.27519e-05
0.000177796
4.44046e-05
4.18686e-05
4.18665e-05
0.000123457
4.29253e-05
4.29249e-05
4.01058e-05
4.92394e-05
3.91205e-05
4.92527e-05
2.3894e-05
2.38706e-05
4.01136e-05
4.92367e-05
3.91211e-05
4.92498e-05
0.000193277
0.000193269
0.000193273
0.00018983
0.000189831
0.000189823
0.000189827
5.90049e-05
4.51945e-05
0.000173549
0.000148122
5.98511e-05
4.56666e-05
0.000172164
2.3892e-05
2.38687e-05
5.90034e-05
0.000173547
4.51943e-05
0.000148113
5.98485e-05
0.000172157
4.56664e-05
4.4367e-05
4.43659e-05
0.000117344
4.53852e-05
4.53862e-05
4.26533e-05
4.92732e-05
4.14134e-05
4.92898e-05
2.38296e-05
2.38135e-05
4.26368e-05
4.92705e-05
4.14267e-05
4.92871e-05
0.000188684
0.000188676
0.00018868
0.000185274
0.000185275
0.000185267
0.000185271
5.72073e-05
4.66956e-05
0.000168096
0.000142213
5.77189e-05
4.72768e-05
0.000166769
2.38277e-05
2.38115e-05
5.7206e-05
0.000168094
4.66959e-05
0.000142204
5.77164e-05
0.000166763
4.72766e-05
4.67566e-05
4.67567e-05
0.000111572
4.77351e-05
4.77368e-05
4.55971e-05
4.93127e-05
4.42034e-05
4.93296e-05
2.37844e-05
2.3773e-05
4.55802e-05
4.93101e-05
4.42083e-05
4.93269e-05
0.000184152
0.000184143
0.000184148
0.000180808
0.00018081
0.000180801
0.000180805
5.60352e-05
4.84964e-05
0.000162861
0.000136559
5.63295e-05
4.91596e-05
0.000161583
2.37824e-05
2.3771e-05
5.60336e-05
0.000162859
4.84967e-05
0.00013655
5.63282e-05
0.000161576
4.91597e-05
4.90064e-05
4.9007e-05
0.000106193
4.99228e-05
4.99246e-05
4.88081e-05
4.93515e-05
4.7362e-05
4.93672e-05
2.37516e-05
2.37432e-05
4.88082e-05
4.93489e-05
4.73676e-05
4.93646e-05
0.000179707
0.000179698
0.000179703
0.000176421
0.000176423
0.000176414
0.000176419
5.55196e-05
5.05191e-05
0.00015781
0.000131121
5.56023e-05
5.12401e-05
0.000156574
2.37496e-05
2.37412e-05
5.55186e-05
0.000157809
5.05198e-05
0.000131112
5.56008e-05
0.000156568
5.12398e-05
5.10788e-05
5.10793e-05
0.000101349
5.1931e-05
5.19339e-05
5.2271e-05
4.9387e-05
5.07098e-05
4.94013e-05
2.37262e-05
2.37196e-05
5.22513e-05
4.93846e-05
5.07219e-05
4.93987e-05
0.00017534
0.00017533
0.000175336
0.000172103
0.000172105
0.000172095
0.000172101
5.56473e-05
5.26918e-05
0.000152914
0.000125904
5.55146e-05
5.34464e-05
0.000151715
2.37244e-05
2.37179e-05
5.56471e-05
0.000152913
5.26917e-05
0.000125894
5.55131e-05
0.000151709
5.3447e-05
5.29722e-05
5.29745e-05
9.69878e-05
5.37499e-05
5.37517e-05
5.57252e-05
4.94194e-05
5.42065e-05
4.94323e-05
2.37055e-05
2.37e-05
5.5724e-05
4.94168e-05
5.42051e-05
4.94298e-05
0.000171037
0.000171028
0.000171033
0.000167839
0.000167841
0.000167831
0.000167837
5.63839e-05
5.49471e-05
0.000148169
0.000120925
5.60558e-05
5.57165e-05
0.000147004
2.37037e-05
2.36982e-05
5.63805e-05
0.000148168
5.49469e-05
0.000120914
5.60553e-05
0.000146998
5.57155e-05
5.46801e-05
5.46825e-05
9.31328e-05
5.53926e-05
5.53936e-05
5.90942e-05
4.94492e-05
5.76319e-05
4.94613e-05
2.36875e-05
2.36828e-05
5.9085e-05
4.94466e-05
5.76431e-05
4.94587e-05
0.000166788
0.000166778
0.000166784
0.000163628
0.000163631
0.000163621
0.000163626
5.76933e-05
5.72269e-05
0.000143541
0.000116209
5.71829e-05
5.79925e-05
0.000142401
2.36857e-05
2.36807e-05
5.76949e-05
0.000143541
5.72271e-05
0.000116198
5.71801e-05
0.000142397
5.79925e-05
5.62239e-05
5.62264e-05
8.98299e-05
5.68725e-05
5.68744e-05
6.22884e-05
4.94775e-05
6.08909e-05
4.9489e-05
2.36712e-05
2.36664e-05
6.22777e-05
4.94746e-05
6.09004e-05
4.94862e-05
0.000162589
0.00016258
0.000162585
0.00015945
0.000159453
0.000159443
0.000159449
5.9507e-05
5.94826e-05
0.000139013
0.000111802
5.88376e-05
6.02306e-05
0.000137902
2.36692e-05
2.36647e-05
5.95036e-05
0.000139013
5.94827e-05
0.000111792
5.88394e-05
0.000137898
6.023e-05
5.76204e-05
5.76227e-05
8.70615e-05
5.8207e-05
5.82082e-05
6.518e-05
4.95039e-05
6.39242e-05
4.95146e-05
2.36558e-05
2.36518e-05
6.51758e-05
4.95013e-05
6.39294e-05
4.95122e-05
0.000158418
0.000158408
0.000158415
0.000155293
0.000155296
0.000155285
0.000155293
6.1743e-05
6.16772e-05
0.000134594
0.000107759
6.09448e-05
6.24004e-05
0.000133515
2.3654e-05
2.36498e-05
6.17424e-05
0.000134593
6.16759e-05
0.000107748
6.09406e-05
0.000133512
6.24053e-05
5.88831e-05
5.88856e-05
8.49097e-05
5.94173e-05
5.94183e-05
6.77736e-05
4.95288e-05
6.66518e-05
4.95387e-05
2.36419e-05
2.36381e-05
6.77685e-05
4.95266e-05
6.66599e-05
4.95368e-05
0.000154268
0.000154256
0.000154264
6.43064e-05
6.37877e-05
0.000130299
0.000104156
6.34131e-05
6.44823e-05
0.000129258
2.36398e-05
2.36359e-05
6.43051e-05
0.000130298
6.37715e-05
0.000104146
6.34126e-05
0.000129257
6.45002e-05
6.00283e-05
6.0031e-05
8.33761e-05
6.05162e-05
6.05169e-05
0.000234867
0.000233564
0.000233566
2.32575e-05
0.000214159
2.32564e-05
0.000214162
0.000234435
5.13349e-05
5.13185e-05
0.00022999
0.000229991
0.000235117
0.000234798
0.000234701
0.000234727
0.000235117
0.000234798
0.000234701
0.000234727
0.000234477
4.02624e-05
0.000218814
0.000147835
0.000234477
4.02619e-05
0.000218814
0.000147842
0.000233889
0.000234474
0.000100094
0.000234271
0.000233358
0.000234597
0.000228477
0.000233889
0.000234474
0.000100084
0.000234271
0.000233359
0.000234597
0.000228476
0.000234867
0.000233565
0.000233565
2.32572e-05
0.000214167
0.000234435
5.13294e-05
5.13202e-05
0.000229989
0.000229991
2.32571e-05
0.000214169
0.000235118
0.000234798
0.000234701
0.000234727
0.000235117
0.000234798
0.000234727
0.000234701
0.000234477
4.02592e-05
0.000218815
0.000147811
0.000233889
0.000234474
0.000100073
0.00023427
0.000233359
0.000234597
0.000228474
0.000234477
4.02587e-05
0.000218815
0.000147826
0.000233889
0.000234474
0.000234271
0.00010008
0.000234597
0.000233359
0.000228476
0.00023473
0.000234746
0.000234729
0.000234729
0.00023473
0.000234746
0.000234729
0.000234729
0.00023473
0.000234746
0.000234729
0.000234729
0.000234591
0.000234574
0.000234253
0.000234253
0.000234592
0.000234592
0.000234252
0.000234591
0.000234574
0.000234253
0.000234253
0.000234592
0.000234592
0.000234253
0.000234591
0.000234574
0.000234253
0.000234253
0.000234592
0.000234592
0.000234252
0.000234591
0.000234574
0.000234253
0.000234253
0.000234592
0.000234592
0.000234253
0.000235117
0.000234798
0.000234727
0.000234701
0.000233889
0.000234474
0.000100075
0.000234271
0.000233359
0.000234597
0.000228475
0.000234477
4.02599e-05
0.000218817
0.000147827
0.000233889
0.000234474
0.000234271
0.00010009
0.000234597
0.000233359
0.000228477
0.000234477
4.02595e-05
0.000218816
0.000147834
0.000234867
0.000233566
0.000233566
2.32565e-05
0.000214163
0.000234435
5.13198e-05
5.13262e-05
0.000229991
0.000229993
2.32569e-05
0.000214171
0.000235118
0.000234798
0.000234727
0.000234701
0.000233888
0.000234474
0.00023427
0.000100084
0.000234596
0.00023336
0.000228476
0.000233888
0.000234474
0.00023427
0.000100074
0.000234597
0.000233359
0.000228475
0.000234477
4.0259e-05
0.000218818
0.000147812
0.000234477
4.02589e-05
0.000218813
0.000147799
0.000234435
5.13299e-05
5.13174e-05
0.000229992
0.000229992
2.3257e-05
0.00021417
2.32564e-05
0.000214164
2.16838e-05
2.28324e-05
2.16825e-05
2.28308e-05
4.78052e-05
4.77913e-05
0.000231346
4.4021e-05
4.4008e-05
2.44812e-05
2.33048e-05
2.44796e-05
2.33036e-05
0.000229667
4.00646e-05
4.00532e-05
4.31025e-05
4.30863e-05
0.000104665
3.87402e-05
0.000129104
3.98229e-05
0.0002062
9.36854e-05
0.000233969
0.000231993
0.000222609
8.72304e-05
0.000233611
0.000206202
9.36685e-05
0.000233969
0.000231989
0.000222605
8.72173e-05
0.000233611
9.8425e-05
4.19626e-05
4.03774e-05
8.55716e-05
9.8418e-05
4.1961e-05
4.03764e-05
8.55737e-05
0.000200084
0.000230759
8.08051e-05
0.000232683
8.56698e-05
0.000233189
0.000185634
0.000200083
0.000230754
8.07973e-05
0.000232682
8.56528e-05
0.000233188
0.000185637
4.77938e-05
4.78041e-05
0.000231346
4.40133e-05
4.40131e-05
2.16834e-05
2.28325e-05
2.44802e-05
2.33042e-05
0.000229667
4.00583e-05
4.00542e-05
4.30883e-05
4.31005e-05
2.44815e-05
2.33049e-05
0.000206191
9.36636e-05
0.000233969
0.000231991
0.000222608
8.72111e-05
0.000233611
0.000104646
3.87366e-05
0.000129133
3.98209e-05
0.000206191
0.000233969
9.36678e-05
0.000231989
0.000222613
0.000233611
8.72104e-05
9.84216e-05
4.19588e-05
4.03739e-05
8.55669e-05
0.000200082
0.000230756
8.07914e-05
0.000232682
8.56531e-05
0.000233189
0.000185632
9.84228e-05
4.19581e-05
4.03731e-05
8.55651e-05
0.000200082
0.000230753
0.000232682
8.07866e-05
0.000233188
8.56518e-05
0.000185628
0.000104651
3.87375e-05
0.000129123
3.98238e-05
0.000206196
0.000233969
9.36761e-05
0.000231993
0.000222618
0.000233611
8.72256e-05
0.000104649
3.87383e-05
0.000129142
3.98219e-05
0.000200085
0.00023076
8.08006e-05
0.000232683
8.56682e-05
0.000233189
0.000185635
9.84235e-05
4.19612e-05
4.03749e-05
8.55677e-05
0.000200085
0.000230758
0.000232683
8.08053e-05
0.000233189
8.56646e-05
0.000185634
9.84288e-05
4.19599e-05
4.03754e-05
8.55689e-05
4.77938e-05
4.77995e-05
0.000231345
4.40044e-05
4.40234e-05
2.16828e-05
2.28314e-05
2.44791e-05
2.33026e-05
0.000229667
4.0048e-05
4.00661e-05
4.30906e-05
4.30952e-05
2.44802e-05
2.33041e-05
0.000206188
0.000233969
9.36626e-05
0.00023199
0.000222617
0.000233611
8.72144e-05
0.00010463
3.87373e-05
0.00012915
3.98221e-05
0.000104626
3.87367e-05
0.000129136
3.9821e-05
0.000200083
0.00023076
0.000232682
8.08052e-05
0.000233189
8.56607e-05
0.000185631
0.000200084
0.000230756
0.000232682
8.07964e-05
0.000233189
8.56519e-05
0.00018563
9.84375e-05
4.19595e-05
4.0375e-05
8.55645e-05
9.84368e-05
4.19588e-05
4.03736e-05
8.55642e-05
2.16832e-05
2.28314e-05
2.16823e-05
2.28308e-05
0.000229667
4.00665e-05
4.00544e-05
4.30992e-05
4.3085e-05
2.44804e-05
2.33044e-05
2.44795e-05
2.33037e-05
2.47755e-05
2.54645e-05
2.47738e-05
2.54627e-05
3.91722e-05
3.91548e-05
0.000219595
3.6574e-05
3.65653e-05
2.59544e-05
2.56194e-05
2.59529e-05
2.56176e-05
0.000216776
3.38486e-05
3.38413e-05
3.57367e-05
3.57197e-05
7.25704e-05
4.24329e-05
8.14047e-05
4.37621e-05
0.000167489
7.94401e-05
0.00023208
0.000226092
0.00018021
7.45101e-05
0.000231376
0.000167492
7.9424e-05
0.00023208
0.000226087
0.000180212
7.45047e-05
0.000231375
6.96291e-05
4.52376e-05
4.41511e-05
6.32359e-05
6.96315e-05
4.52372e-05
4.41498e-05
6.32388e-05
0.000162884
0.000224265
6.86682e-05
0.000229654
7.31611e-05
0.000230567
0.000151899
0.000162888
0.000224259
6.86647e-05
0.000229654
7.3144e-05
0.000230566
0.000151902
3.91577e-05
3.91717e-05
0.000219598
3.65702e-05
3.65644e-05
2.47756e-05
2.54647e-05
2.59538e-05
2.56186e-05
0.000216777
3.38448e-05
3.38437e-05
3.57227e-05
3.57335e-05
2.59548e-05
2.56193e-05
0.000167488
7.9422e-05
0.00023208
0.000226091
0.000180203
7.45008e-05
0.000231375
7.25561e-05
4.24293e-05
8.13969e-05
4.37588e-05
0.000167485
0.000232079
7.94242e-05
0.000226085
0.000180202
0.000231375
7.44921e-05
6.96324e-05
4.52346e-05
4.41478e-05
6.32358e-05
0.000162878
0.000224263
6.86602e-05
0.000229653
7.3144e-05
0.000230567
0.000151899
6.9632e-05
4.52334e-05
4.41457e-05
6.32334e-05
0.000162875
0.000224257
0.000229653
6.86547e-05
0.000230565
7.31426e-05
0.000151894
7.2563e-05
4.24321e-05
8.14052e-05
4.37621e-05
0.000167488
0.00023208
7.94326e-05
0.000226091
0.000180209
0.000231375
7.45109e-05
7.25661e-05
4.24318e-05
8.13993e-05
4.37604e-05
0.000162887
0.000224269
6.86691e-05
0.000229655
7.31585e-05
0.000230567
0.0001519
6.96337e-05
4.5237e-05
4.41491e-05
6.32361e-05
0.000162884
0.000224263
0.000229654
6.86698e-05
0.000230566
7.31496e-05
0.000151898
6.96316e-05
4.52353e-05
4.41482e-05
6.32343e-05
3.91599e-05
3.91678e-05
0.000219593
3.65587e-05
3.65752e-05
2.4775e-05
2.54631e-05
2.59519e-05
2.56164e-05
0.000216774
3.38366e-05
3.38506e-05
3.57213e-05
3.57296e-05
2.59535e-05
2.56183e-05
0.000167489
0.00023208
7.94225e-05
0.00022609
0.000180206
0.000231375
7.45027e-05
7.25568e-05
4.24314e-05
8.13969e-05
4.37606e-05
7.25628e-05
4.24302e-05
8.13984e-05
4.37594e-05
0.000162877
0.000224268
0.000229654
6.86697e-05
0.000230567
7.31515e-05
0.000151896
0.000162879
0.000224263
0.000229654
6.86622e-05
0.000230566
7.31415e-05
0.000151899
6.96324e-05
4.52355e-05
4.41482e-05
6.32343e-05
6.9633e-05
4.52342e-05
4.41469e-05
6.32352e-05
2.4775e-05
2.54629e-05
2.47742e-05
2.54622e-05
0.000216774
3.38505e-05
3.38404e-05
3.57267e-05
3.5718e-05
2.59533e-05
2.56181e-05
2.59525e-05
2.56174e-05
2.60139e-05
2.61179e-05
2.60122e-05
2.61162e-05
3.32228e-05
3.32115e-05
0.000204616
3.19928e-05
3.19839e-05
2.60836e-05
2.61186e-05
2.60816e-05
2.61168e-05
0.000201349
3.08804e-05
3.0871e-05
3.15697e-05
3.15613e-05
5.62797e-05
4.55459e-05
6.11344e-05
4.64123e-05
0.000138599
6.74255e-05
0.000228642
0.000218222
0.000148063
6.35177e-05
0.000227536
0.000138603
6.74156e-05
0.000228642
0.000218217
0.000148066
6.35111e-05
0.000227535
5.47707e-05
4.73222e-05
4.66511e-05
5.10055e-05
5.47726e-05
4.73222e-05
4.66504e-05
5.10074e-05
0.000135411
0.000216074
5.91336e-05
0.000225066
6.24208e-05
0.000226342
0.00012725
0.000135414
0.000216068
5.91272e-05
0.000225066
6.24153e-05
0.000226341
0.000127253
3.32137e-05
3.32217e-05
0.000204621
3.19867e-05
3.19894e-05
2.60141e-05
2.61182e-05
2.60828e-05
2.6118e-05
0.000201351
3.08731e-05
3.08784e-05
3.15633e-05
3.15679e-05
2.60837e-05
2.61188e-05
0.000138597
6.74157e-05
0.000228642
0.000218224
0.000148057
6.35078e-05
0.000227534
5.62799e-05
4.55417e-05
6.11271e-05
4.64084e-05
0.000138594
0.00022864
6.74113e-05
0.000218213
0.000148056
0.000227533
6.35048e-05
5.47674e-05
4.73193e-05
4.6648e-05
5.10053e-05
0.000135406
0.000216077
5.91245e-05
0.000225065
6.24106e-05
0.000226341
0.000127247
5.47664e-05
4.73181e-05
4.66459e-05
5.10041e-05
0.000135404
0.000216064
0.000225063
5.91213e-05
0.000226339
6.24074e-05
0.000127245
5.62773e-05
4.55454e-05
6.11318e-05
4.64123e-05
0.000138598
0.000228642
6.74205e-05
0.00021822
0.000148063
0.000227535
6.35153e-05
5.62759e-05
4.55441e-05
6.11302e-05
4.64103e-05
0.000135413
0.000216083
5.91339e-05
0.000225068
6.24211e-05
0.000226343
0.000127251
5.47703e-05
4.73222e-05
4.66498e-05
5.10053e-05
0.000135411
0.000216071
0.000225066
5.91307e-05
0.000226341
6.24194e-05
0.000127248
5.4769e-05
4.732e-05
4.66483e-05
5.10041e-05
3.32107e-05
3.32197e-05
0.000204612
3.19815e-05
3.19931e-05
2.6013e-05
2.61169e-05
2.60805e-05
2.61157e-05
0.000201345
3.08703e-05
3.08793e-05
3.15589e-05
3.15693e-05
2.60825e-05
2.61176e-05
0.000138599
0.000228641
6.74128e-05
0.000218223
0.000148058
0.000227534
6.35086e-05
5.62806e-05
4.5544e-05
6.1127e-05
4.641e-05
5.62815e-05
4.5543e-05
6.11279e-05
4.64093e-05
0.000135405
0.00021608
0.000225065
5.91303e-05
0.000226342
6.24195e-05
0.000127247
0.000135407
0.000216075
0.000225065
5.91247e-05
0.00022634
6.24125e-05
0.000127249
5.47666e-05
4.73197e-05
4.6648e-05
5.10046e-05
5.47674e-05
4.73191e-05
4.66473e-05
5.10054e-05
2.60128e-05
2.61168e-05
2.60121e-05
2.61159e-05
0.000201346
3.08784e-05
3.08701e-05
3.15683e-05
3.156e-05
2.60823e-05
2.61174e-05
2.60814e-05
2.61165e-05
2.6048e-05
2.59402e-05
2.60457e-05
2.59382e-05
3.06186e-05
3.06112e-05
0.000189782
3.03066e-05
3.02977e-05
2.57406e-05
2.58842e-05
2.57382e-05
2.58816e-05
0.00018655
3.01745e-05
3.01638e-05
3.02081e-05
3.01994e-05
4.69673e-05
4.74985e-05
4.99107e-05
4.80043e-05
0.000117547
5.82048e-05
0.000223719
0.000209407
0.000124601
5.54864e-05
0.000222308
0.00011755
5.81998e-05
0.000223718
0.000209402
0.000124603
5.548e-05
0.000222307
4.6155e-05
4.8498e-05
4.81303e-05
4.3844e-05
4.61565e-05
4.84976e-05
4.81296e-05
4.38454e-05
0.00011537
0.00020715
5.2498e-05
0.000219325
5.4724e-05
0.000220841
0.00010927
0.000115371
0.000207145
5.24914e-05
0.000219324
5.47169e-05
0.00022084
0.000109272
3.06129e-05
3.06169e-05
0.000189788
3.02995e-05
3.03052e-05
2.60478e-05
2.59403e-05
2.57393e-05
2.5883e-05
0.000186554
3.01701e-05
3.01709e-05
3.02008e-05
3.02049e-05
2.57405e-05
2.58837e-05
0.000117544
5.81974e-05
0.000223719
0.000209413
0.000124596
5.54775e-05
0.000222306
4.69638e-05
4.74938e-05
4.99085e-05
4.8e-05
0.000117542
0.000223716
5.81925e-05
0.000209396
0.000124594
0.000222304
5.54746e-05
4.61557e-05
4.84949e-05
4.81268e-05
4.38431e-05
0.000115364
0.000207157
5.24889e-05
0.000219323
5.47146e-05
0.000220841
0.000109267
4.61548e-05
4.84932e-05
4.81247e-05
4.38422e-05
0.000115362
0.000207139
0.000219321
5.24864e-05
0.000220837
5.47101e-05
0.000109266
4.69653e-05
4.7498e-05
4.99086e-05
4.80043e-05
0.000117546
0.000223718
5.82033e-05
0.000209405
0.0001246
0.000222307
5.54831e-05
4.69644e-05
4.74963e-05
4.99076e-05
4.80019e-05
0.00011537
0.000207164
5.24968e-05
0.000219327
5.47216e-05
0.000220842
0.000109271
4.61547e-05
4.84977e-05
4.81291e-05
4.38436e-05
0.000115368
0.000207147
0.000219324
5.2494e-05
0.00022084
5.47199e-05
0.000109269
4.61538e-05
4.84951e-05
4.81272e-05
4.38429e-05
3.06087e-05
3.06189e-05
0.000189778
3.02975e-05
3.03056e-05
2.60468e-05
2.59388e-05
2.57373e-05
2.58804e-05
0.000186546
3.01635e-05
3.01793e-05
3.01972e-05
3.02069e-05
2.57389e-05
2.58827e-05
0.000117547
0.000223718
5.8197e-05
0.000209412
0.000124596
0.000222307
5.54776e-05
4.69642e-05
4.7496e-05
4.99088e-05
4.80016e-05
4.69649e-05
4.74954e-05
4.99096e-05
4.80011e-05
0.000115364
0.000207159
0.000219323
5.24939e-05
0.000220841
5.47201e-05
0.000109268
0.000115364
0.000207155
0.000219324
5.2489e-05
0.00022084
5.47142e-05
0.00010927
4.61552e-05
4.84949e-05
4.81269e-05
4.38426e-05
4.61559e-05
4.84945e-05
4.81265e-05
4.38432e-05
2.60466e-05
2.59387e-05
2.60457e-05
2.59377e-05
0.000186546
3.01723e-05
3.01652e-05
3.0206e-05
3.01985e-05
2.57388e-05
2.58825e-05
2.57377e-05
2.58815e-05
2.56765e-05
2.55213e-05
2.56738e-05
2.55189e-05
3.01828e-05
3.01846e-05
0.000176373
3.04035e-05
3.03843e-05
2.53026e-05
2.54557e-05
2.53002e-05
2.54529e-05
0.000173313
3.08865e-05
3.08679e-05
3.04538e-05
3.04576e-05
4.14297e-05
4.85821e-05
4.32449e-05
4.88394e-05
0.000102113
5.18794e-05
0.000217769
0.000200387
0.00010738
5.00778e-05
0.000216179
0.000102114
5.18732e-05
0.000217768
0.000200382
0.000107381
5.00717e-05
0.000216177
4.09846e-05
4.90639e-05
4.88928e-05
3.95689e-05
4.09857e-05
4.90633e-05
4.88924e-05
3.95699e-05