/*--------------------------------*- C++ -*----------------------------------*\
| =========                 |                                                 |
| \\      /  F ield         | OpenFOAM: The Open Source CFD Toolbox           |
|  \\    /   O peration     | Version:  v1906                                 |
|   \\  /    A nd           | Web:      www.OpenFOAM.com                      |
|    \\/     M anipulation  |                                                 |
\*---------------------------------------------------------------------------*/
FoamFile
{
    version     2.0;
    format      ascii;
    class       volScalarField;
    location    "625";
    object      p;
}
// * * * * * * * * * * * * * * * * * * * * * * * * * * * * * * * * * * * * * //

dimensions      [0 2 -2 0 0 0 0];


internalField   nonuniform List<scalar> 
43024
(
0.00360461
0.00360494
0.00360494
0.00360799
0.00354925
0.00354967
0.00354967
0.00355266
0.0034985
0.00349847
0.00349847
0.00350122
0.00344611
0.00344613
0.00344613
0.0034489
0.00339476
0.00339477
0.00339477
0.00339752
0.00334478
0.0033448
0.00334479
0.00334752
0.00329626
0.00329627
0.00329627
0.00329896
0.00324903
0.00324905
0.00324905
0.0032517
0.0032029
0.00320292
0.00320292
0.00320555
0.00315767
0.00315769
0.00315769
0.00316029
0.00311316
0.00311318
0.00311318
0.00311575
0.00306925
0.00306927
0.00306927
0.00307182
0.00302586
0.00302588
0.00302588
0.00302839
0.00298293
0.00298295
0.00298295
0.00298545
0.00294043
0.00294044
0.00294044
0.00294294
0.00289834
0.00289835
0.00289835
0.00290084
0.00285664
0.00285663
0.00285663
0.00285911
0.00281529
0.00281528
0.00281528
0.00281775
0.00277427
0.00277426
0.00277426
0.00277672
0.00273357
0.00273355
0.00273355
0.00273601
0.00269316
0.00269313
0.00269313
0.00269558
0.00361802
0.00361824
0.00361824
0.00361802
0.00361824
0.00361824
0.00361901
0.003619
0.00361901
0.00361901
0.00361824
0.00361824
0.00361802
0.00361824
0.00361824
0.00361802
0.00360799
0.00355923
0.00360493
0.00360494
0.00356151
0.00356151
0.00360799
0.00355923
0.00360494
0.00360494
0.00356151
0.00356151
0.00360494
0.00356151
0.00356151
0.00360799
0.00355923
0.00360494
0.00356151
0.00356151
0.00355923
0.00355266
0.00350815
0.00354967
0.00354967
0.0035116
0.0035116
0.00355266
0.00350815
0.00354967
0.00354967
0.0035116
0.0035116
0.00354967
0.0035116
0.0035116
0.00355266
0.00350815
0.00354967
0.00351159
0.0035116
0.00350815
0.00350123
0.00345578
0.00349847
0.00349847
0.00345914
0.00345914
0.00350123
0.00345578
0.00349847
0.00349847
0.00345914
0.00345914
0.00349847
0.00345914
0.00345914
0.00350122
0.00345578
0.00349847
0.00345914
0.00345914
0.00345578
0.0034489
0.00340423
0.00344613
0.00344613
0.00340749
0.00340749
0.0034489
0.00340423
0.00344613
0.00344613
0.00340749
0.00340749
0.00344613
0.00340749
0.00340749
0.0034489
0.00340423
0.00344613
0.00340749
0.00340749
0.00340423
0.00339752
0.00335402
0.00339477
0.00339477
0.00335715
0.00335715
0.00339752
0.00335401
0.00339477
0.00339477
0.00335715
0.00335715
0.00339477
0.00335715
0.00335715
0.00339752
0.00335401
0.00339477
0.00335715
0.00335715
0.00335401
0.00334752
0.00330526
0.0033448
0.0033448
0.00330828
0.00330828
0.00334751
0.00330526
0.0033448
0.00334479
0.00330827
0.00330828
0.0033448
0.00330828
0.00330827
0.00334751
0.00330526
0.0033448
0.00330828
0.00330827
0.00330526
0.00329896
0.00325784
0.00329628
0.00329627
0.00326074
0.00326075
0.00329895
0.00325783
0.00329627
0.00329627
0.00326075
0.00326075
0.00329628
0.00326075
0.00326074
0.00329895
0.00325783
0.00329628
0.00326075
0.00326074
0.00325783
0.0032517
0.00321154
0.00324905
0.00324904
0.00321436
0.00321437
0.0032517
0.00321153
0.00324905
0.00324904
0.00321436
0.00321436
0.00324906
0.00321437
0.00321436
0.0032517
0.00321153
0.00324906
0.00321437
0.00321436
0.00321153
0.00320554
0.00316616
0.00320292
0.00320292
0.00316892
0.00316893
0.00320554
0.00316616
0.00320292
0.00320292
0.00316892
0.00316893
0.00320292
0.00316893
0.00316892
0.00320554
0.00316615
0.00320292
0.00316893
0.00316892
0.00316616
0.00316028
0.00312153
0.00315769
0.00315769
0.00312424
0.00312426
0.00316028
0.00312153
0.00315769
0.00315769
0.00312425
0.00312425
0.00315769
0.00312426
0.00312425
0.00316028
0.00312153
0.00315769
0.00312426
0.00312425
0.00312153
0.00311575
0.00307752
0.00311319
0.00311318
0.00308019
0.0030802
0.00311574
0.00307751
0.00311319
0.00311318
0.0030802
0.0030802
0.00311319
0.0030802
0.0030802
0.00311574
0.00307751
0.00311319
0.0030802
0.0030802
0.00307751
0.00307182
0.00303402
0.00306928
0.00306927
0.00303668
0.00303668
0.00307181
0.00303402
0.00306928
0.00306927
0.00303668
0.00303668
0.00306927
0.00303668
0.00303668
0.00307181
0.00303403
0.00306927
0.00303668
0.00303668
0.00303402
0.00302839
0.00299101
0.00302588
0.00302588
0.00299364
0.00299363
0.00302839
0.00299102
0.00302588
0.00302588
0.00299364
0.00299363
0.00302587
0.00299363
0.00299364
0.00302839
0.00299101
0.00302587
0.00299363
0.00299364
0.00299101
0.00298545
0.00294846
0.00298294
0.00298295
0.00295103
0.00295103
0.00298545
0.00294846
0.00298294
0.00298295
0.00295103
0.00295103
0.00298295
0.00295103
0.00295103
0.00298545
0.00294846
0.00298295
0.00295104
0.00295103
0.00294846
0.00294295
0.0029063
0.00294045
0.00294044
0.00290883
0.00290883
0.00294294
0.0029063
0.00294045
0.00294044
0.00290883
0.00290883
0.00294044
0.00290883
0.00290883
0.00294294
0.0029063
0.00294044
0.00290883
0.00290883
0.0029063
0.00290083
0.00286453
0.00289834
0.00289834
0.00286703
0.00286703
0.00290084
0.00286453
0.00289834
0.00289835
0.00286703
0.00286702
0.00289835
0.00286703
0.00286703
0.00290084
0.00286453
0.00289835
0.00286703
0.00286703
0.00286453
0.00285911
0.00282312
0.00285663
0.00285663
0.00282559
0.00282559
0.00285911
0.00282312
0.00285663
0.00285663
0.00282558
0.00282558
0.00285663
0.00282559
0.00282559
0.00285911
0.00282312
0.00285663
0.00282558
0.00282559
0.00282312
0.00281775
0.00278205
0.00281528
0.00281528
0.00278448
0.00278448
0.00281775
0.00278205
0.00281528
0.00281528
0.00278448
0.00278448
0.00281528
0.00278448
0.00278448
0.00281775
0.00278205
0.00281528
0.00278448
0.00278448
0.00278205
0.00277672
0.0027413
0.00277426
0.00277426
0.0027437
0.0027437
0.00277672
0.0027413
0.00277426
0.00277426
0.0027437
0.0027437
0.00277426
0.0027437
0.0027437
0.00277672
0.0027413
0.00277426
0.0027437
0.0027437
0.0027413
0.00273601
0.00270084
0.00273355
0.00273355
0.00270321
0.00270321
0.002736
0.00270084
0.00273355
0.00273355
0.00270321
0.00270321
0.00273355
0.00270321
0.00270321
0.00273601
0.00270084
0.00273355
0.00270321
0.00270321
0.00270084
0.00269558
0.00269313
0.00269313
0.00269558
0.00269313
0.00269313
0.00269313
0.00269558
0.00269313
0.00362639
0.00363616
0.00363095
0.00363096
0.00365334
0.00364012
0.00366873
0.00363417
0.00365334
0.00364012
0.00363417
0.00366873
0.00364469
0.00367247
0.00367247
0.00358175
0.0036009
0.00361009
0.00357383
0.00357457
0.00357734
0.00358173
0.00360087
0.00361008
0.00357381
0.00360461
0.00360461
0.00360461
0.00356121
0.00356121
0.0035612
0.0035612
0.00357925
0.00360507
0.00360501
0.00358808
0.0036081
0.00357815
0.00358896
0.00357467
0.00357734
0.00357926
0.00360501
0.00360509
0.00358808
0.0036081
0.00358896
0.00357815
0.00361095
0.00361094
0.00358248
0.00357779
0.00357779
0.00353512
0.0035544
0.00355576
0.00353366
0.0035533
0.00353321
0.00353511
0.00355439
0.00355576
0.00353365
0.00354925
0.00354925
0.00354925
0.00351166
0.00351166
0.00351166
0.00351166
0.0035337
0.00355447
0.00354925
0.00353738
0.00355326
0.00353425
0.00353711
0.0035533
0.00353321
0.0035337
0.00354925
0.00355447
0.00353738
0.00355326
0.00353711
0.00353424
0.00355549
0.00355549
0.00353393
0.00353458
0.00353458
0.00348285
0.00350166
0.00350273
0.00348183
0.00350129
0.00348155
0.00348285
0.00350166
0.00350273
0.00348183
0.0034985
0.0034985
0.0034985
0.00345912
0.00345912
0.00345912
0.00345912
0.00348195
0.00350206
0.00349837
0.00348533
0.0035015
0.00348232
0.00348524
0.00350129
0.00348155
0.00348195
0.00349837
0.00350206
0.00348533
0.0035015
0.00348524
0.00348232
0.0035023
0.0035023
0.00348194
0.00348238
0.00348238
0.00343033
0.00344898
0.00344984
0.00342956
0.00344878
0.00342938
0.00343033
0.00344898
0.00344984
0.00342956
0.00344611
0.00344611
0.00344611
0.00340748
0.00340748
0.00340748
0.00340748
0.00342982
0.00344939
0.00344608
0.00343318
0.0034491
0.00343
0.00343314
0.00344878
0.00342938
0.00342982
0.00344608
0.00344939
0.00343318
0.0034491
0.00343314
0.00343
0.00344943
0.00344943
0.00342986
0.00342994
0.00342994
0.00337913
0.00339748
0.00339812
0.00337857
0.00339734
0.00337844
0.00337913
0.00339748
0.00339812
0.00337857
0.00339476
0.00339476
0.00339476
0.00335714
0.00335714
0.00335714
0.00335714
0.00337886
0.00339783
0.00339474
0.00338214
0.00339766
0.00337897
0.00338211
0.00339734
0.00337844
0.00337886
0.00339474
0.00339783
0.00338214
0.00339766
0.00338211
0.00337897
0.00339782
0.00339782
0.00337894
0.00337888
0.00337888
0.00332948
0.00334743
0.00334789
0.00332909
0.00334733
0.00332897
0.00332948
0.00334743
0.00334789
0.00332909
0.00334478
0.00334478
0.00334478
0.00330826
0.00330826
0.00330826
0.00330826
0.00332937
0.00334773
0.00334477
0.00333253
0.00334762
0.00332944
0.00333251
0.00334732
0.00332898
0.00332937
0.00334477
0.00334773
0.00333253
0.00334762
0.00333251
0.00332944
0.00334772
0.00334772
0.00332946
0.00332935
0.00332935
0.00328131
0.00329886
0.00329918
0.00328104
0.00329876
0.00328093
0.00328131
0.00329886
0.00329918
0.00328103
0.00329626
0.00329626
0.00329626
0.00326073
0.00326073
0.00326073
0.00326073
0.00328129
0.00329912
0.00329624
0.00328436
0.00329903
0.00328135
0.00328432
0.00329876
0.00328093
0.00328129
0.00329624
0.00329912
0.00328436
0.00329903
0.00328432
0.00328135
0.00329912
0.00329912
0.00328139
0.00328127
0.00328127
0.00323442
0.0032516
0.00325184
0.00323422
0.00325151
0.00323412
0.00323442
0.0032516
0.00325184
0.00323422
0.00324903
0.00324903
0.00324903
0.00321434
0.00321434
0.00321434
0.00321434
0.00323446
0.00325183
0.00324902
0.00323743
0.00325175
0.00323452
0.00323739
0.00325151
0.00323412
0.00323446
0.00324902
0.00325183
0.00323743
0.00325175
0.00323739
0.00323451
0.00325183
0.00325183
0.00323456
0.00323443
0.00323443
0.00318858
0.00320545
0.00320563
0.00318842
0.00320536
0.00318833
0.00318858
0.00320545
0.00320563
0.00318842
0.0032029
0.0032029
0.0032029
0.0031689
0.0031689
0.0031689
0.0031689
0.00318866
0.00320566
0.00320289
0.00319154
0.00320559
0.00318871
0.00319151
0.00320537
0.00318833
0.00318866
0.00320289
0.00320566
0.00319154
0.00320559
0.00319151
0.00318871
0.00320566
0.00320566
0.00318874
0.00318862
0.00318862
0.0031436
0.0031602
0.00316035
0.00314346
0.00316011
0.00314337
0.0031436
0.0031602
0.00316035
0.00314346
0.00315767
0.00315767
0.00315767
0.00312423
0.00312423
0.00312423
0.00312423
0.0031437
0.0031604
0.00315766
0.00314651
0.00316034
0.00314374
0.00314647
0.00316011
0.00314337
0.0031437
0.00315766
0.0031604
0.00314651
0.00316034
0.00314648
0.00314374
0.00316039
0.00316039
0.00314376
0.00314364
0.00314364
0.00309929
0.00311567
0.0031158
0.00309916
0.00311558
0.00309908
0.00309929
0.00311567
0.0031158
0.00309916
0.00311316
0.00311316
0.00311316
0.00308018
0.00308018
0.00308018
0.00308018
0.00309941
0.00311586
0.00311316
0.00310216
0.00311581
0.00309944
0.00310213
0.00311559
0.00309908
0.00309941
0.00311316
0.00311586
0.00310216
0.00311581
0.00310213
0.00309944
0.00311584
0.00311584
0.00309945
0.00309933
0.00309933
0.00305555
0.00307173
0.00307186
0.00305543
0.00307165
0.00305535
0.00305555
0.00307173
0.00307186
0.00305543
0.00306925
0.00306925
0.00306925
0.00303666
0.00303666
0.00303666
0.00303666
0.0030557
0.00307192
0.00306925
0.00305838
0.00307189
0.0030557
0.00305836
0.00307165
0.00305535
0.0030557
0.00306925
0.00307192
0.00305838
0.00307189
0.00305836
0.0030557
0.00307189
0.00307189
0.00305571
0.00305558
0.00305558
0.00301231
0.00302831
0.00302843
0.00301218
0.00302824
0.00301211
0.00301231
0.00302831
0.00302843
0.00301218
0.00302586
0.00302586
0.00302586
0.00299362
0.00299362
0.00299362
0.00299362
0.00301247
0.00302849
0.00302586
0.0030151
0.00302849
0.00301246
0.00301509
0.00302824
0.00301211
0.00301247
0.00302586
0.00302849
0.0030151
0.00302849
0.00301509
0.00301245
0.00302846
0.00302846
0.00301245
0.00301232
0.00301232
0.00296952
0.00298535
0.00298547
0.00296939
0.00298528
0.00296932
0.00296952
0.00298535
0.00298548
0.00296939
0.00298293
0.00298293
0.00298293
0.00295102
0.00295102
0.00295102
0.00295102
0.0029697
0.00298552
0.00298293
0.00297228
0.00298554
0.00296966
0.00297228
0.00298528
0.00296932
0.0029697
0.00298294
0.00298552
0.00297228
0.00298554
0.00297228
0.00296966
0.00298548
0.00298548
0.00296969
0.00296951
0.00296951
0.00292714
0.00294282
0.00294295
0.00292702
0.00294277
0.00292697
0.00292715
0.00294282
0.00294295
0.00292702
0.00294043
0.00294043
0.00294043
0.00290883
0.00290883
0.00290883
0.00290883
0.00292736
0.00294299
0.00294045
0.00292988
0.00294304
0.00292728
0.00292988
0.00294276
0.00292696
0.00292736
0.00294045
0.00294299
0.00292988
0.00294304
0.00292988
0.00292728
0.00294295
0.00294295
0.00292733
0.00292713
0.00292713
0.00288517
0.00290071
0.00290083
0.00288505
0.00290065
0.002885
0.00288517
0.00290071
0.00290083
0.00288505
0.00289834
0.00289834
0.00289834
0.00286703
0.00286703
0.00286703
0.00286703
0.00288541
0.00290086
0.00289835
0.00288788
0.00290094
0.00288531
0.00288789
0.00290066
0.002885
0.00288541
0.00289835
0.00290087
0.00288788
0.00290094
0.00288789
0.00288531
0.00290082
0.00290082
0.00288537
0.00288515
0.00288515
0.00284357
0.00285898
0.00285909
0.00284346
0.00285893
0.00284342
0.00284357
0.00285898
0.00285909
0.00284346
0.00285664
0.00285664
0.00285664
0.00282559
0.00282559
0.00282559
0.00282559
0.00284383
0.00285912
0.00285665
0.00284626
0.00285922
0.0028437
0.00284628
0.00285893
0.00284342
0.00284383
0.00285665
0.00285912
0.00284626
0.00285922
0.00284628
0.0028437
0.00285908
0.00285908
0.00284378
0.00284355
0.00284355
0.00280233
0.00281761
0.00281772
0.00280222
0.00281757
0.00280218
0.00280233
0.00281761
0.00281772
0.00280222
0.00281529
0.00281529
0.00281529
0.00278449
0.00278449
0.00278449
0.00278449
0.0028026
0.00281774
0.00281531
0.002805
0.00281785
0.00280245
0.00280502
0.00281757
0.00280218
0.00280259
0.00281531
0.00281774
0.002805
0.00281785
0.00280502
0.00280245
0.0028177
0.0028177
0.00280255
0.0028023
0.0028023
0.00276141
0.00277658
0.00277668
0.0027613
0.00277654
0.00276127
0.00276141
0.00277658
0.00277668
0.0027613
0.00277427
0.00277427
0.00277427
0.00274372
0.00274372
0.00274372
0.00274372
0.00276168
0.00277669
0.00277429
0.00276405
0.00277682
0.00276152
0.00276408
0.00277654
0.00276127
0.00276168
0.00277429
0.00277669
0.00276405
0.00277681
0.00276408
0.00276152
0.00277666
0.00277666
0.00276164
0.00276138
0.00276138
0.00272079
0.00273586
0.00273595
0.0027207
0.00273582
0.00272068
0.00272079
0.00273586
0.00273595
0.0027207
0.00273357
0.00273357
0.00273357
0.00270324
0.00270324
0.00270324
0.00270324
0.00272107
0.00273596
0.00273358
0.00272342
0.00273608
0.0027209
0.00272345
0.00273583
0.00272067
0.00272107
0.00273358
0.00273596
0.00272342
0.00273609
0.00272345
0.0027209
0.00273593
0.00273593
0.00272103
0.00272076
0.00272076
0.00268046
0.00269543
0.00269551
0.00268037
0.00269539
0.00268035
0.00268046
0.00269543
0.00269551
0.00268037
0.00269316
0.00269316
0.00269316
0.00268073
0.00269551
0.00269316
0.00268307
0.00269564
0.00268056
0.0026831
0.0026954
0.00268035
0.00268073
0.00269316
0.00269551
0.00268307
0.00269564
0.0026831
0.00268056
0.00269549
0.00269549
0.00268071
0.00268043
0.00268043
0.00364469
0.00367245
0.00367247
0.00363682
0.00367199
0.00363679
0.00367201
0.00364154
0.0036286
0.00362861
0.00366727
0.00366728
0.00365332
0.00364012
0.00366871
0.00363416
0.00365332
0.00364012
0.00366872
0.00363416
0.00365784
0.00362889
0.00366912
0.00362369
0.00365784
0.00362887
0.00366912
0.0036237
0.00364892
0.00363764
0.00362006
0.00362047
0.00366399
0.0036326
0.00362069
0.00364892
0.00363764
0.00362006
0.00362046
0.00366399
0.0036326
0.00362069
0.00364468
0.00367246
0.00367247
0.00363678
0.00367199
0.00364154
0.00362859
0.00362861
0.00366727
0.00366727
0.00363681
0.003672
0.00365334
0.00364012
0.00366873
0.00363417
0.00365334
0.00364012
0.00363417
0.00366873
0.00365786
0.00362888
0.00366914
0.00362371
0.00364894
0.00363765
0.00362006
0.00362047
0.003664
0.00363261
0.0036207
0.00365786
0.00362889
0.00366913
0.0036237
0.00364894
0.00363765
0.00362047
0.00362007
0.00363261
0.003664
0.0036207
0.00362639
0.00363615
0.00363095
0.00363096
0.00362639
0.00363616
0.00363096
0.00363096
0.00362639
0.00363616
0.00363096
0.00363096
0.00362516
0.00363424
0.00361712
0.00361713
0.00362952
0.00362952
0.0036153
0.00362516
0.00363424
0.00361712
0.00361712
0.00362952
0.00362952
0.0036153
0.00362516
0.00363424
0.00361713
0.00361713
0.00362952
0.00362952
0.0036153
0.00362516
0.00363424
0.00361713
0.00361713
0.00362952
0.00362952
0.0036153
0.00365334
0.00364012
0.00363417
0.00366872
0.00364894
0.00363764
0.00362006
0.00362047
0.003664
0.00363261
0.0036207
0.00365786
0.00362888
0.00366913
0.0036237
0.00364894
0.00363765
0.00362047
0.00362007
0.00363261
0.003664
0.00362069
0.00365786
0.00362888
0.00366913
0.00362369
0.00364469
0.00367247
0.00367247
0.00363676
0.003672
0.00364154
0.0036286
0.0036286
0.00366728
0.00366728
0.00363676
0.003672
0.00365334
0.00364012
0.00363417
0.00366873
0.00364894
0.00363765
0.00362047
0.00362007
0.00363261
0.003664
0.0036207
0.00364894
0.00363765
0.00362047
0.00362007
0.00363261
0.003664
0.0036207
0.00365786
0.00362888
0.00366913
0.0036237
0.00365786
0.0036289
0.00366914
0.00362371
0.00364154
0.0036286
0.00362861
0.00366728
0.00366728
0.00363677
0.003672
0.00363679
0.00367201
0.00357456
0.00357733
0.00357467
0.00357731
0.00361091
0.00361095
0.00358249
0.00357779
0.00357779
0.00356008
0.00357698
0.00356008
0.00357699
0.00357583
0.00356268
0.00356268
0.00357594
0.00357594
0.00358175
0.00360088
0.00361009
0.00357383
0.00357927
0.00360508
0.00360501
0.00358807
0.0036081
0.00357816
0.00358896
0.00357927
0.00360508
0.00360501
0.00358807
0.0036081
0.00357816
0.00358896
0.0035772
0.00356181
0.00357472
0.00356256
0.0035772
0.00356181
0.00357473
0.00356256
0.00357424
0.00357377
0.00356149
0.00356125
0.00357532
0.00357418
0.00355984
0.00357424
0.00357377
0.0035615
0.00356125
0.00357532
0.00357418
0.00355984
0.0036109
0.00361095
0.0035825
0.00357779
0.00357779
0.00357472
0.00357732
0.00356008
0.00357698
0.00357583
0.00356268
0.00356268
0.00357594
0.00357594
0.00356007
0.00357699
0.00357925
0.00360508
0.00360501
0.00358808
0.0036081
0.00357815
0.00358896
0.00358173
0.00360089
0.00361007
0.00357383
0.00357926
0.00360501
0.00360508
0.00358807
0.0036081
0.00358896
0.00357816
0.00357719
0.00356181
0.00357473
0.00356256
0.00357423
0.00357377
0.00356149
0.00356124
0.00357531
0.00357418
0.00355984
0.0035772
0.0035618
0.00357474
0.00356256
0.00357424
0.00357377
0.00356124
0.00356149
0.00357418
0.00357532
0.00355983
0.00358173
0.00360088
0.00361007
0.00357382
0.00357926
0.00360501
0.00360509
0.00358807
0.0036081
0.00358896
0.00357815
0.00358173
0.0036009
0.00361007
0.00357382
0.00357423
0.00357377
0.00356149
0.00356124
0.00357531
0.00357418
0.00355984
0.00357719
0.00356181
0.00357472
0.00356256
0.00357424
0.00357377
0.00356124
0.00356149
0.00357418
0.00357531
0.00355984
0.0035772
0.00356181
0.00357472
0.00356256
0.00361094
0.00361095
0.00358248
0.00357779
0.00357779
0.00357468
0.00357731
0.00356007
0.003577
0.00357583
0.00356268
0.00356268
0.00357594
0.00357593
0.00356008
0.00357696
0.00357925
0.00360501
0.00360508
0.00358808
0.0036081
0.00358896
0.00357815
0.00358173
0.00360089
0.00361007
0.00357381
0.00358173
0.00360089
0.00361007
0.00357382
0.00357424
0.00357377
0.00356124
0.00356149
0.00357418
0.00357531
0.00355983
0.00357423
0.00357377
0.00356124
0.00356149
0.00357418
0.00357531
0.00355983
0.0035772
0.00356181
0.00357472
0.00356255
0.00357719
0.0035618
0.00357472
0.00356255
0.0035747
0.00357732
0.0035747
0.00357732
0.00357583
0.00356268
0.00356268
0.00357594
0.00357593
0.00356009
0.00357696
0.00356007
0.00357698
0.00355331
0.00353321
0.0035533
0.00353321
0.00355549
0.00355549
0.00353393
0.00353458
0.00353458
0.00350782
0.00352678
0.00350782
0.00352678
0.00352713
0.0035089
0.0035089
0.00352812
0.00352812
0.00353512
0.00355439
0.00355576
0.00353365
0.0035337
0.00355447
0.00354925
0.00353738
0.00355326
0.00353424
0.00353711
0.0035337
0.00355448
0.00354925
0.00353738
0.00355326
0.00353425
0.00353711
0.00352859
0.00350823
0.00352728
0.00350933
0.00352859
0.00350823
0.00352728
0.00350933
0.00352717
0.00352462
0.0035087
0.0035115
0.0035278
0.00352448
0.00350816
0.00352717
0.00352462
0.0035087
0.0035115
0.0035278
0.00352448
0.00350816
0.00355549
0.00355549
0.00353393
0.00353458
0.00353458
0.00355331
0.00353322
0.00350782
0.00352678
0.00352714
0.0035089
0.0035089
0.00352812
0.00352812
0.00350782
0.00352679
0.0035337
0.00355447
0.00354925
0.00353738
0.00355326
0.00353424
0.00353711
0.00353512
0.00355439
0.00355576
0.00353365
0.0035337
0.00354925
0.00355447
0.00353738
0.00355326
0.00353711
0.00353424
0.00352859
0.00350823
0.00352727
0.00350933
0.00352717
0.00352462
0.0035087
0.0035115
0.00352779
0.00352448
0.00350816
0.00352859
0.00350823
0.00352727
0.00350933
0.00352717
0.00352462
0.0035115
0.0035087
0.00352448
0.00352779
0.00350816
0.00353512
0.0035544
0.00355576
0.00353366
0.0035337
0.00354925
0.00355447
0.00353738
0.00355326
0.00353711
0.00353424
0.00353512
0.0035544
0.00355576
0.00353365
0.00352717
0.00352462
0.0035087
0.0035115
0.00352779
0.00352448
0.00350816
0.00352859
0.00350823
0.00352728
0.00350933
0.00352717
0.00352462
0.0035115
0.0035087
0.00352448
0.00352779
0.00350816
0.00352859
0.00350823
0.00352727
0.00350933
0.00355549
0.00355549
0.00353393
0.00353457
0.00353458
0.0035533
0.00353321
0.00350782
0.00352678
0.00352713
0.0035089
0.0035089
0.00352811
0.00352812
0.00350782
0.00352678
0.0035337
0.00354925
0.00355447
0.00353738
0.00355326
0.00353711
0.00353424
0.00353512
0.00355439
0.00355576
0.00353365
0.00353512
0.00355439
0.00355576
0.00353365
0.00352717
0.00352462
0.0035115
0.0035087
0.00352448
0.00352779
0.00350816
0.00352717
0.00352462
0.0035115
0.0035087
0.00352448
0.00352779
0.00350816
0.00352859
0.00350823
0.00352728
0.00350933
0.00352859
0.00350823
0.00352728
0.00350933
0.00355331
0.00353321
0.0035533
0.00353321
0.00352713
0.0035089
0.0035089
0.00352812
0.00352812
0.00350782
0.00352678
0.00350782
0.00352679
0.00350129
0.00348155
0.00350129
0.00348155
0.0035023
0.0035023
0.00348195
0.00348238
0.00348238
0.00345532
0.00347492
0.00345532
0.00347492
0.003475
0.00345599
0.00345599
0.00347572
0.00347572
0.00348285
0.00350166
0.00350273
0.00348183
0.00348195
0.00350206
0.00349837
0.00348533
0.0035015
0.00348232
0.00348524
0.00348195
0.00350206
0.00349837
0.00348533
0.0035015
0.00348232
0.00348524
0.00347618
0.00345554
0.00347518
0.00345643
0.00347618
0.00345554
0.00347518
0.00345643
0.00347524
0.00347221
0.00345601
0.00345908
0.00347561
0.00347213
0.00345576
0.00347524
0.00347221
0.00345601
0.00345908
0.00347561
0.00347213
0.00345576
0.0035023
0.0035023
0.00348195
0.00348238
0.00348238
0.00350129
0.00348155
0.00345532
0.00347492
0.003475
0.00345599
0.00345599
0.00347572
0.00347572
0.00345532
0.00347492
0.00348195
0.00350206
0.00349837
0.00348533
0.0035015
0.00348232
0.00348524
0.00348285
0.00350166
0.00350273
0.00348183
0.00348195
0.00349837
0.00350206
0.00348533
0.0035015
0.00348524
0.00348232
0.00347618
0.00345554
0.00347518
0.00345643
0.00347523
0.00347221
0.00345601
0.00345908
0.00347561
0.00347213
0.00345576
0.00347618
0.00345554
0.00347518
0.00345643
0.00347523
0.00347221
0.00345908
0.00345601
0.00347213
0.00347561
0.00345576
0.00348285
0.00350166
0.00350273
0.00348183
0.00348195
0.00349837
0.00350206
0.00348533
0.0035015
0.00348524
0.00348232
0.00348285
0.00350166
0.00350273
0.00348183
0.00347523
0.00347221
0.00345601
0.00345908
0.00347561
0.00347213
0.00345576
0.00347618
0.00345554
0.00347518
0.00345643
0.00347523
0.00347221
0.00345908
0.00345601
0.00347213
0.00347561
0.00345576
0.00347618
0.00345554
0.00347518
0.00345643
0.0035023
0.0035023
0.00348195
0.00348238
0.00348238
0.00350129
0.00348155
0.00345532
0.00347492
0.003475
0.00345599
0.00345599
0.00347572
0.00347572
0.00345532
0.00347492
0.00348195
0.00349837
0.00350206
0.00348533
0.0035015
0.00348524
0.00348232
0.00348285
0.00350166
0.00350273
0.00348183
0.00348285
0.00350166
0.00350273
0.00348183
0.00347524
0.00347221
0.00345908
0.00345601
0.00347213
0.00347561
0.00345576
0.00347524
0.00347221
0.00345908
0.00345601
0.00347213
0.00347561
0.00345576
0.00347618
0.00345554
0.00347518
0.00345643
0.00347618
0.00345554
0.00347518
0.00345643
0.00350129
0.00348155
0.00350129
0.00348155
0.003475
0.00345599
0.00345599
0.00347572
0.00347572
0.00345532
0.00347492
0.00345532
0.00347492
0.00344878
0.00342938
0.00344878
0.00342938
0.00344943
0.00344943
0.00342986
0.00342994
0.00342994
0.00340373
0.0034229
0.00340373
0.0034229
0.00342306
0.00340422
0.00340422
0.00342345
0.00342345
0.00343033
0.00344898
0.00344984
0.00342956
0.00342982
0.00344939
0.00344608
0.00343318
0.0034491
0.00343
0.00343314
0.00342982
0.00344939
0.00344608
0.00343318
0.0034491
0.00343
0.00343314
0.00342381
0.00340388
0.00342307
0.00340454
0.00342381
0.00340388
0.00342307
0.00340454
0.00342323
0.0034203
0.0034043
0.00340746
0.00342345
0.00342026
0.00340416
0.00342323
0.0034203
0.0034043
0.00340746
0.00342345
0.00342026
0.00340416
0.00344943
0.00344943
0.00342986
0.00342994
0.00342994
0.00344878
0.00342938
0.00340373
0.0034229
0.00342306
0.00340422
0.00340422
0.00342345
0.00342345
0.00340373
0.0034229
0.00342982
0.00344939
0.00344608
0.00343318
0.0034491
0.00343
0.00343314
0.00343033
0.00344898
0.00344984
0.00342956
0.00342982
0.00344608
0.00344939
0.00343318
0.0034491
0.00343314
0.00343
0.00342381
0.00340388
0.00342307
0.00340454
0.00342323
0.0034203
0.0034043
0.00340746
0.00342345
0.00342026
0.00340416
0.00342381
0.00340388
0.00342307
0.00340454
0.00342323
0.0034203
0.00340746
0.0034043
0.00342026
0.00342345
0.00340416
0.00343033
0.00344898
0.00344984
0.00342956
0.00342982
0.00344608
0.00344939
0.00343318
0.0034491
0.00343314
0.00343
0.00343033
0.00344898
0.00344984
0.00342956
0.00342323
0.0034203
0.0034043
0.00340746
0.00342345
0.00342026
0.00340416
0.00342381
0.00340388
0.00342307
0.00340454
0.00342323
0.0034203
0.00340746
0.0034043
0.00342026
0.00342345
0.00340416
0.00342381
0.00340388
0.00342307
0.00340454
0.00344943
0.00344943
0.00342986
0.00342994
0.00342994
0.00344878
0.00342938
0.00340373
0.0034229
0.00342306
0.00340422
0.00340422
0.00342345
0.00342345
0.00340373
0.0034229
0.00342982
0.00344608
0.00344939
0.00343318
0.0034491
0.00343314
0.00343
0.00343033
0.00344898
0.00344984
0.00342956
0.00343033
0.00344898
0.00344984
0.00342956
0.00342323
0.0034203
0.00340746
0.0034043
0.00342026
0.00342345
0.00340416
0.00342323
0.0034203
0.00340746
0.0034043
0.00342026
0.00342345
0.00340416
0.00342381
0.00340388
0.00342307
0.00340454
0.00342381
0.00340388
0.00342307
0.00340454
0.00344878
0.00342938
0.00344878
0.00342938
0.00342306
0.00340422
0.00340422
0.00342345
0.00342345
0.00340373
0.0034229
0.00340373
0.0034229
0.00339734
0.00337844
0.00339734
0.00337844
0.00339782
0.00339782
0.00337894
0.00337888
0.00337888
0.00335352
0.00337214
0.00335352
0.00337214
0.00337233
0.00335392
0.00335392
0.00337258
0.00337258
0.00337913
0.00339749
0.00339812
0.00337857
0.00337886
0.00339783
0.00339474
0.00338214
0.00339766
0.00337897
0.00338211
0.00337886
0.00339784
0.00339474
0.00338214
0.00339766
0.00337897
0.00338211
0.00337281
0.00335364
0.00337227
0.00335412
0.00337281
0.00335364
0.00337227
0.00335412
0.00337245
0.0033696
0.00335401
0.00335712
0.00337259
0.00336957
0.00335393
0.00337245
0.0033696
0.00335401
0.00335712
0.00337259
0.00336957
0.00335393
0.00339782
0.00339782
0.00337894
0.00337888
0.00337888
0.00339734
0.00337844
0.00335352
0.00337214
0.00337233
0.00335392
0.00335392
0.00337258
0.00337258
0.00335352
0.00337214
0.00337886
0.00339783
0.00339474
0.00338214
0.00339766
0.00337897
0.00338211
0.00337913
0.00339748
0.00339812
0.00337857
0.00337886
0.00339474
0.00339783
0.00338214
0.00339766
0.00338211
0.00337897
0.00337281
0.00335364
0.00337227
0.00335412
0.00337245
0.0033696
0.00335401
0.00335712
0.00337259
0.00336957
0.00335393
0.00337281
0.00335364
0.00337227
0.00335412
0.00337245
0.0033696
0.00335712
0.00335401
0.00336957
0.00337259
0.00335393
0.00337913
0.00339748
0.00339812
0.00337857
0.00337886
0.00339474
0.00339783
0.00338214
0.00339766
0.00338211
0.00337897
0.00337913
0.00339748
0.00339812
0.00337857
0.00337245
0.0033696
0.00335401
0.00335712
0.00337259
0.00336957
0.00335393
0.00337281
0.00335364
0.00337227
0.00335412
0.00337245
0.0033696
0.00335712
0.00335401
0.00336957
0.00337259
0.00335393
0.00337281
0.00335364
0.00337227
0.00335411
0.00339782
0.00339782
0.00337894
0.00337888
0.00337888
0.00339734
0.00337844
0.00335352
0.00337214
0.00337233
0.00335392
0.00335392
0.00337258
0.00337258
0.00335352
0.00337214
0.00337886
0.00339474
0.00339783
0.00338214
0.00339766
0.00338211
0.00337897
0.00337913
0.00339748
0.00339812
0.00337857
0.00337913
0.00339748
0.00339812
0.00337857
0.00337245
0.0033696
0.00335712
0.00335401
0.00336957
0.00337259
0.00335393
0.00337245
0.0033696
0.00335712
0.00335401
0.00336957
0.00337259
0.00335393
0.00337281
0.00335364
0.00337227
0.00335412
0.00337281
0.00335364
0.00337227
0.00335411
0.00339734
0.00337844
0.00339734
0.00337844
0.00337233
0.00335392
0.00335392
0.00337258
0.00337258
0.00335352
0.00337214
0.00335352
0.00337214
0.00334732
0.00332898
0.00334732
0.00332898
0.00334772
0.00334772
0.00332946
0.00332935
0.00332935
0.00330479
0.00332286
0.00330479
0.00332286
0.00332306
0.00330514
0.00330514
0.00332324
0.00332324
0.00332948
0.00334743
0.00334789
0.00332909
0.00332937
0.00334773
0.00334477
0.00333253
0.00334762
0.00332944
0.00333251
0.00332937
0.00334773
0.00334477
0.00333253
0.00334762
0.00332944
0.00333251
0.00332335
0.0033049
0.00332297
0.00330522
0.00332335
0.00330489
0.00332297
0.00330522
0.00332315
0.00332036
0.00330522
0.00330825
0.00332325
0.00332033
0.00330516
0.00332315
0.00332036
0.00330523
0.00330825
0.00332325