/*--------------------------------*- C++ -*----------------------------------*\
| =========                 |                                                 |
| \\      /  F ield         | OpenFOAM: The Open Source CFD Toolbox           |
|  \\    /   O peration     | Version:  v1906                                 |
|   \\  /    A nd           | Web:      www.OpenFOAM.com                      |
|    \\/     M anipulation  |                                                 |
\*---------------------------------------------------------------------------*/
FoamFile
{
    version     2.0;
    format      ascii;
    class       volVectorField;
    location    "625";
    object      U;
}
// * * * * * * * * * * * * * * * * * * * * * * * * * * * * * * * * * * * * * //

dimensions      [0 1 -1 0 0 0 0];


internalField   nonuniform List<vector> 
43024
(
(0.000107958 0.000107892 0.100299)
(-0.000190195 0.00011927 0.100385)
(0.000119341 -0.000190187 0.100385)
(-0.000239594 -0.000239612 0.100397)
(9.42792e-05 9.42319e-05 0.10086)
(-0.000158939 9.68065e-05 0.100942)
(9.68112e-05 -0.000158935 0.100942)
(-0.000201047 -0.0002011 0.100968)
(9.54246e-05 9.54125e-05 0.10137)
(-0.000155796 9.3467e-05 0.101449)
(9.34564e-05 -0.000155803 0.101449)
(-0.000201987 -0.000202039 0.101471)
(9.38832e-05 9.38737e-05 0.101892)
(-0.000152046 9.00874e-05 0.101957)
(9.00998e-05 -0.000152051 0.101957)
(-0.000198933 -0.000198979 0.101964)
(9.11287e-05 9.11264e-05 0.102398)
(-0.000146289 8.55707e-05 0.102446)
(8.55853e-05 -0.000146293 0.102446)
(-0.000193549 -0.000193596 0.102432)
(8.81489e-05 8.81532e-05 0.102885)
(-0.000140624 8.15997e-05 0.102912)
(8.16188e-05 -0.00014063 0.102912)
(-0.000188213 -0.000188262 0.10287)
(8.53135e-05 8.53296e-05 0.103353)
(-0.000135498 7.8399e-05 0.103354)
(7.84358e-05 -0.000135509 0.103354)
(-0.000183769 -0.000183822 0.103281)
(8.28335e-05 8.28422e-05 0.103803)
(-0.000131068 7.5946e-05 0.103774)
(7.59952e-05 -0.000131077 0.103774)
(-0.000180332 -0.00018041 0.103664)
(8.06238e-05 8.05849e-05 0.104237)
(-0.000127336 7.42472e-05 0.104174)
(7.42477e-05 -0.00012733 0.104174)
(-0.00017821 -0.000178252 0.104023)
(7.87146e-05 7.86846e-05 0.104658)
(-0.000124105 7.29117e-05 0.104557)
(7.29089e-05 -0.000124097 0.104557)
(-0.000177054 -0.000177106 0.104358)
(7.70889e-05 7.70696e-05 0.105066)
(-0.000121268 7.17481e-05 0.104924)
(7.17644e-05 -0.000121268 0.104924)
(-0.00017637 -0.000176429 0.104673)
(7.55883e-05 7.55733e-05 0.105464)
(-0.000118717 7.06422e-05 0.105277)
(7.06529e-05 -0.000118709 0.105277)
(-0.000175918 -0.000175992 0.104966)
(7.41572e-05 7.41482e-05 0.105851)
(-0.000116268 6.94525e-05 0.105615)
(6.94671e-05 -0.000116264 0.105615)
(-0.000175418 -0.000175526 0.105239)
(7.27369e-05 7.27331e-05 0.106229)
(-0.000113876 6.82222e-05 0.105938)
(6.82025e-05 -0.000113852 0.105938)
(-0.000175157 -0.000175177 0.105491)
(7.13435e-05 7.13355e-05 0.106598)
(-0.000111581 6.71742e-05 0.106248)
(6.71401e-05 -0.000111552 0.106248)
(-0.000174402 -0.000174424 0.10572)
(6.98881e-05 6.9892e-05 0.106957)
(-0.000109435 6.61558e-05 0.106543)
(6.61391e-05 -0.000109476 0.106543)
(-0.000173372 -0.000173404 0.105926)
(6.83547e-05 6.8354e-05 0.107308)
(-0.00010741 6.50937e-05 0.106822)
(6.50957e-05 -0.000107453 0.106822)
(-0.000172114 -0.000172158 0.106108)
(6.68424e-05 6.68531e-05 0.107649)
(-0.000105393 6.40227e-05 0.107086)
(6.399e-05 -0.000105406 0.107086)
(-0.000170285 -0.000170331 0.106264)
(6.53491e-05 6.53715e-05 0.107982)
(-0.000103528 6.29543e-05 0.107334)
(6.29166e-05 -0.000103511 0.107334)
(-0.000168182 -0.000168227 0.106394)
(6.38158e-05 6.383e-05 0.108306)
(-0.000101592 6.19073e-05 0.107565)
(6.18637e-05 -0.000101579 0.107565)
(-0.000165559 -0.000165606 0.106497)
(6.22856e-05 6.23026e-05 0.108622)
(-9.95898e-05 6.09108e-05 0.107779)
(6.08925e-05 -9.95712e-05 0.107779)
(-0.000162302 -0.000162355 0.106572)
(0.000134959 0.000134949 0.100282)
(0.000124248 0.000152867 0.100229)
(-0.000124241 0.000152848 0.100229)
(-0.000134955 0.000134917 0.100282)
(0.000152896 0.0001242 0.100229)
(0.000152868 -0.000124217 0.100229)
(9.08046e-05 9.0753e-05 0.100151)
(-9.07948e-05 9.07504e-05 0.100151)
(9.0779e-05 -9.07988e-05 0.100151)
(-9.07765e-05 -9.07968e-05 0.100151)
(-0.000152892 0.000124197 0.100229)
(-0.000152877 -0.000124213 0.100229)
(0.000134949 -0.000134968 0.100282)
(0.000124201 -0.000152897 0.100229)
(-0.000124198 -0.00015288 0.100229)
(-0.000134957 -0.000134941 0.100282)
(0.000239636 0.000239616 0.100397)
(0.000111304 0.000111178 0.100892)
(0.000119392 0.000190088 0.100385)
(-0.000119343 0.000190129 0.100385)
(8.91024e-05 0.000147213 0.100823)
(-8.90639e-05 0.00014721 0.100823)
(-0.000239646 0.000239564 0.100397)
(-0.000111265 0.000111146 0.100892)
(0.000190231 0.000119289 0.100385)
(0.00019017 -0.000119349 0.100385)
(0.000147189 8.90738e-05 0.100823)
(0.000147222 -8.90949e-05 0.100823)
(-0.000190151 -0.000119353 0.100385)
(-0.000147158 8.9075e-05 0.100823)
(-0.000147179 -8.9089e-05 0.100823)
(0.000239567 -0.000239657 0.100397)
(0.000111256 -0.000111269 0.100892)
(-0.000119321 -0.000190216 0.100385)
(8.90759e-05 -0.000147148 0.100823)
(-8.90553e-05 -0.000147173 0.100823)
(-0.000111253 -0.000111272 0.100892)
(0.000201135 0.000200969 0.100968)
(0.000105725 0.000105644 0.101395)
(9.68197e-05 0.000158993 0.100941)
(-9.67928e-05 0.000158989 0.100941)
(9.41998e-05 0.000156671 0.10132)
(-9.41999e-05 0.000156672 0.10132)
(-0.000201098 0.000200935 0.100967)
(-0.000105714 0.000105638 0.101395)
(0.000158972 9.68003e-05 0.100942)
(0.00015899 -9.68128e-05 0.100942)
(0.000156627 9.42041e-05 0.10132)
(0.000156667 -9.42072e-05 0.10132)
(-0.000158967 -9.68078e-05 0.100942)
(-0.000156624 9.42128e-05 0.10132)
(-0.000156645 -9.41975e-05 0.10132)
(0.000201044 -0.000201107 0.100968)
(0.000105689 -0.000105702 0.101395)
(-9.6793e-05 -0.000158961 0.100942)
(9.42008e-05 -0.000156624 0.10132)
(-9.4207e-05 -0.000156644 0.10132)
(-0.000105704 -0.000105711 0.101395)
(0.000202055 0.000201927 0.101471)
(9.66132e-05 9.65535e-05 0.101893)
(9.34492e-05 0.000155854 0.101449)
(-9.34542e-05 0.000155851 0.101449)
(9.11461e-05 0.000153335 0.101832)
(-9.11348e-05 0.000153325 0.101832)
(-0.000202045 0.000201912 0.101471)
(-9.66e-05 9.65506e-05 0.101893)
(0.000155804 9.34628e-05 0.101449)
(0.000155845 -9.34583e-05 0.101449)
(0.000153277 9.1149e-05 0.101832)
(0.00015331 -9.11338e-05 0.101832)
(-0.000155827 -9.34519e-05 0.101449)
(-0.000153272 9.11411e-05 0.101832)
(-0.00015331 -9.11379e-05 0.101832)
(0.000201969 -0.000202045 0.101471)
(9.65705e-05 -9.66044e-05 0.101893)
(-9.34643e-05 -0.000155826 0.101449)
(9.11489e-05 -0.000153275 0.101832)
(-9.11383e-05 -0.000153284 0.101832)
(-9.66278e-05 -9.66295e-05 0.101893)
(0.000198967 0.000198864 0.101964)
(8.60519e-05 8.60175e-05 0.102366)
(9.00958e-05 0.00015211 0.101957)
(-9.00832e-05 0.000152099 0.101957)
(8.66919e-05 0.000147832 0.102326)
(-8.66807e-05 0.000147826 0.102326)
(-0.000198953 0.000198847 0.101964)
(-8.60552e-05 8.60284e-05 0.102366)
(0.000152053 9.00971e-05 0.101957)
(0.000152084 -9.00809e-05 0.101957)
(0.000147776 8.66921e-05 0.102326)
(0.000147806 -8.6672e-05 0.102326)
(-0.000152086 -9.00856e-05 0.101957)
(-0.00014777 8.66851e-05 0.102326)
(-0.000147814 -8.66815e-05 0.102326)
(0.000198872 -0.000198971 0.101964)
(8.60231e-05 -8.60582e-05 0.102366)
(-9.00852e-05 -0.000152056 0.101957)
(8.66965e-05 -0.000147774 0.102326)
(-8.66773e-05 -0.000147773 0.102326)
(-8.60786e-05 -8.60839e-05 0.102366)
(0.000193586 0.000193493 0.102432)
(7.60667e-05 7.60472e-05 0.102812)
(8.55778e-05 0.000146351 0.102446)
(-8.55686e-05 0.000146347 0.102446)
(8.25262e-05 0.000142063 0.102797)
(-8.25142e-05 0.000142066 0.102797)
(-0.000193561 0.000193476 0.102432)
(-7.60579e-05 7.60663e-05 0.102812)
(0.000146295 8.55773e-05 0.102446)
(0.000146326 -8.55575e-05 0.102446)
(0.000142007 8.25287e-05 0.102798)
(0.000142032 -8.2495e-05 0.102798)
(-0.000146333 -8.55668e-05 0.102446)
(-0.000141999 8.25219e-05 0.102798)
(-0.000142048 -8.25136e-05 0.102798)
(0.000193475 -0.000193578 0.102432)
(7.59945e-05 -7.60449e-05 0.102812)
(-8.55644e-05 -0.00014629 0.102446)
(8.25296e-05 -0.000142001 0.102798)
(-8.25095e-05 -0.000141998 0.102798)
(-7.60526e-05 -7.60566e-05 0.102812)
(0.000188232 0.00018814 0.10287)
(6.71539e-05 6.71329e-05 0.103229)
(8.15986e-05 0.000140683 0.102912)
(-8.15951e-05 0.000140691 0.102912)
(7.91319e-05 0.000136775 0.103245)
(-7.90979e-05 0.000136767 0.103245)
(-0.000188132 0.000188071 0.10287)
(-6.7064e-05 6.70748e-05 0.103229)
(0.000140626 8.15981e-05 0.102912)
(0.000140663 -8.15805e-05 0.102912)
(0.000136724 7.91354e-05 0.103245)
(0.000136742 -7.90848e-05 0.103245)
(-0.00014067 -8.15912e-05 0.102912)
(-0.000136708 7.91139e-05 0.103245)
(-0.000136768 -7.91246e-05 0.103245)
(0.000188048 -0.000188155 0.10287)
(6.69645e-05 -6.70364e-05 0.103229)
(-8.15896e-05 -0.000140619 0.102912)
(7.91332e-05 -0.000136713 0.103245)
(-7.91205e-05 -0.000136715 0.103245)
(-6.71156e-05 -6.71172e-05 0.103229)
(0.000183692 0.000183605 0.103281)
(5.92854e-05 5.92265e-05 0.10362)
(7.8394e-05 0.00013555 0.103354)
(-7.83872e-05 0.000135554 0.103354)
(7.64792e-05 0.000132163 0.103671)
(-7.64408e-05 0.000132145 0.103671)
(-0.000183542 0.000183468 0.103281)
(-5.91307e-05 5.91002e-05 0.103621)
(0.000135499 7.83989e-05 0.103354)
(0.000135537 -7.83795e-05 0.103354)
(0.000132114 7.65135e-05 0.103671)
(0.00013212 -7.64285e-05 0.103671)
(-0.000135538 -7.83854e-05 0.103354)
(-0.000132088 7.64684e-05 0.103671)
(-0.000132154 -7.64951e-05 0.103671)
(0.000183485 -0.000183607 0.103281)
(5.89792e-05 -5.90593e-05 0.103621)
(-7.8386e-05 -0.000135485 0.103354)
(7.64984e-05 -0.000132096 0.103671)
(-7.64946e-05 -0.000132101 0.103671)
(-5.91903e-05 -5.91977e-05 0.10362)
(0.000180178 0.000180056 0.103664)
(5.27691e-05 5.27888e-05 0.103987)
(7.59443e-05 0.000131112 0.103774)
(-7.59481e-05 0.000131128 0.103774)
(7.47127e-05 0.000128276 0.104076)
(-7.46774e-05 0.000128263 0.104076)
(-0.000179981 0.00017988 0.103664)
(-5.2601e-05 5.26524e-05 0.103988)
(0.000131062 7.5941e-05 0.103774)
(0.000131107 -7.59378e-05 0.103774)
(0.000128222 7.46489e-05 0.104076)
(0.00012824 -7.46685e-05 0.104076)
(-0.000131089 -7.59139e-05 0.103774)
(-0.000128195 7.46025e-05 0.104076)
(-0.000128256 -7.46449e-05 0.104076)
(0.000179901 -0.000180093 0.103664)
(5.25062e-05 -5.24533e-05 0.103988)
(-7.59201e-05 -0.000131035 0.103774)
(7.45949e-05 -0.000128184 0.104076)
(-7.46003e-05 -0.00012819 0.104076)
(-5.25758e-05 -5.25443e-05 0.103987)
(0.000178134 0.00017809 0.104023)
(4.70063e-05 4.70266e-05 0.104332)
(7.43189e-05 0.000127384 0.104174)
(-7.43261e-05 0.000127407 0.104174)
(7.33002e-05 0.000124929 0.104463)
(-7.32651e-05 0.000124921 0.104463)
(-0.000177974 0.000177908 0.104023)
(-4.68365e-05 4.68952e-05 0.104333)
(0.000127331 7.4251e-05 0.104174)
(0.000127382 -7.43226e-05 0.104174)
(0.000124872 7.32459e-05 0.104463)
(0.000124903 -7.32646e-05 0.104463)
(-0.000127363 -7.4258e-05 0.104174)
(-0.000124847 7.31949e-05 0.104463)
(-0.000124923 -7.32506e-05 0.104463)
(0.000177944 -0.000177968 0.104023)
(4.67587e-05 -4.67424e-05 0.104333)
(-7.42087e-05 -0.000127296 0.104175)
(7.31957e-05 -0.000124842 0.104463)
(-7.32022e-05 -0.000124853 0.104463)
(-4.68362e-05 -4.68164e-05 0.104332)
(0.000176971 0.000176937 0.104359)
(4.1663e-05 4.16561e-05 0.104656)
(7.2979e-05 0.000124156 0.104557)
(-7.29839e-05 0.000124181 0.104557)
(7.21351e-05 0.00012203 0.104834)
(-7.20788e-05 0.000122 0.104834)
(-0.000176821 0.000176769 0.104358)
(-4.155e-05 4.16075e-05 0.104657)
(0.000124099 7.29183e-05 0.104557)
(0.000124156 -7.29776e-05 0.104557)
(0.00012196 7.20811e-05 0.104834)
(0.000121984 -7.2079e-05 0.104834)
(-0.000124138 -7.29195e-05 0.104557)
(-0.000121922 7.20055e-05 0.104834)
(-0.000122005 -7.20604e-05 0.104834)
(0.000176795 -0.000176837 0.104358)
(4.14422e-05 -4.14416e-05 0.104657)
(-7.28676e-05 -0.000124067 0.104557)
(7.20063e-05 -0.000121917 0.104834)
(-7.20123e-05 -0.000121932 0.104834)
(-4.14222e-05 -4.14163e-05 0.104657)
(0.000176427 0.00017638 0.104673)
(3.64426e-05 3.64144e-05 0.104961)
(7.18282e-05 0.000121328 0.104924)
(-7.18258e-05 0.000121343 0.104924)
(7.10113e-05 0.000119406 0.10519)
(-7.09717e-05 0.000119386 0.10519)
(-0.000176151 0.000176101 0.104673)
(-3.64226e-05 3.64557e-05 0.104961)
(0.000121264 7.17752e-05 0.104924)
(0.000121332 -7.18231e-05 0.104924)
(0.000119344 7.09553e-05 0.10519)
(0.000119381 -7.09714e-05 0.10519)
(-0.000121318 -7.17825e-05 0.104924)
(-0.000119316 7.08962e-05 0.10519)
(-0.000119401 -7.0957e-05 0.10519)
(0.000176094 -0.000176167 0.104673)
(3.63418e-05 -3.63408e-05 0.104961)
(-7.17295e-05 -0.000121243 0.104924)
(7.09073e-05 -0.000119313 0.10519)
(-7.09087e-05 -0.000119325 0.10519)
(-3.63122e-05 -3.63159e-05 0.104961)
(0.000175997 0.000175906 0.104967)
(3.13123e-05 3.12751e-05 0.105246)
(7.07068e-05 0.000118762 0.105276)
(-7.0716e-05 0.000118787 0.105276)
(6.98592e-05 0.000116957 0.105531)
(-6.98443e-05 0.000116952 0.105531)
(-0.000175796 0.000175728 0.104967)
(-3.15135e-05 3.15419e-05 0.105246)
(0.000118704 7.06614e-05 0.105277)
(0.000118776 -7.07146e-05 0.105276)
(0.000116893 6.98113e-05 0.105531)
(0.000116933 -6.98344e-05 0.105531)
(-0.00011876 -7.0664e-05 0.105277)
(-0.000116885 6.9781e-05 0.105531)
(-0.000116933 -6.97836e-05 0.105531)
(0.000175706 -0.000175809 0.104967)
(3.14865e-05 -3.14989e-05 0.105246)
(-7.06109e-05 -0.000118681 0.105277)
(6.9783e-05 -0.000116864 0.105531)
(-6.97405e-05 -0.000116854 0.105531)
(-3.12902e-05 -3.132e-05 0.105246)
(0.000175638 0.000175521 0.105239)
(2.63983e-05 2.64191e-05 0.105512)
(6.95496e-05 0.000116337 0.105614)
(-6.95158e-05 0.000116337 0.105614)
(6.85864e-05 0.000114557 0.105859)
(-6.86088e-05 0.000114568 0.105858)
(-0.000175661 0.00017557 0.105239)
(-2.63927e-05 2.65094e-05 0.105511)
(0.000116278 6.95152e-05 0.105615)
(0.000116332 -6.95179e-05 0.105614)
(0.000114484 6.85423e-05 0.105859)
(0.00011456 -6.861e-05 0.105858)
(-0.000116345 -6.94915e-05 0.105614)
(-0.000114493 6.85272e-05 0.105859)
(-0.000114536 -6.8555e-05 0.105859)
(0.000175449 -0.000175602 0.10524)
(2.65528e-05 -2.64856e-05 0.105511)
(-6.9448e-05 -0.000116263 0.105615)
(6.8549e-05 -0.000114475 0.105859)
(-6.84847e-05 -0.000114446 0.105859)
(-2.66022e-05 -2.65455e-05 0.105511)
(0.000175153 0.000175095 0.105491)
(2.14841e-05 2.15405e-05 0.105755)
(6.83305e-05 0.000113982 0.105938)
(-6.83204e-05 0.000113956 0.105938)
(6.7553e-05 0.000112226 0.106171)
(-6.7541e-05 0.000112215 0.106172)
(-0.000175315 0.000175324 0.105491)
(-2.13533e-05 2.14865e-05 0.105756)
(0.000113905 6.82627e-05 0.105938)
(0.000113939 -6.82999e-05 0.105938)
(0.00011216 6.74817e-05 0.106172)
(0.000112208 -6.75245e-05 0.106172)
(-0.000113971 -6.82908e-05 0.105938)
(-0.000112149 6.74373e-05 0.106172)
(-0.000112239 -6.74993e-05 0.106172)
(0.000175321 -0.000175357 0.105491)
(2.14277e-05 -2.1306e-05 0.105755)
(-6.82092e-05 -0.000113873 0.105938)
(6.73969e-05 -0.000112112 0.106172)
(-6.74058e-05 -0.000112143 0.106172)
(-2.12949e-05 -2.12273e-05 0.105755)
(0.000174527 0.000174496 0.10572)
(1.63433e-05 1.6419e-05 0.105978)
(6.72481e-05 0.00011162 0.106248)
(-6.72738e-05 0.000111652 0.106248)
(6.65004e-05 0.000110055 0.10647)
(-6.65352e-05 0.000110084 0.10647)
(-0.000174316 0.000174323 0.10572)
(-1.63327e-05 1.64605e-05 0.105977)
(0.000111563 6.71796e-05 0.106248)
(0.000111645 -6.72553e-05 0.106247)
(0.00011 6.6433e-05 0.10647)
(0.000110068 -6.6517e-05 0.10647)
(-0.000111662 -6.72587e-05 0.106248)
(-0.000109942 6.64153e-05 0.10647)
(-0.000110017 -6.64883e-05 0.10647)
(0.0001743 -0.000174329 0.10572)
(1.65038e-05 -1.63995e-05 0.105977)
(-6.71647e-05 -0.00011156 0.106248)
(6.63971e-05 -0.000109981 0.10647)
(-6.63923e-05 -0.000109917 0.10647)
(-1.64875e-05 -1.64309e-05 0.105977)
(0.000173336 0.000173309 0.105926)
(1.18258e-05 1.18875e-05 0.106176)
(6.62581e-05 0.000109552 0.106542)
(-6.62813e-05 0.000109572 0.106542)
(6.54641e-05 0.000108022 0.106753)
(-6.54812e-05 0.000108033 0.106753)
(-0.000173397 0.000173393 0.105926)
(-1.1763e-05 1.18295e-05 0.106176)
(0.000109506 6.61909e-05 0.106543)
(0.000109572 -6.62637e-05 0.106542)
(0.000107984 6.53952e-05 0.106754)
(0.000108055 -6.54757e-05 0.106753)
(-0.000109507 -6.62068e-05 0.106542)
(-0.000107923 6.53647e-05 0.106754)
(-0.000108018 -6.54745e-05 0.106753)
(0.000173425 -0.000173458 0.105926)
(1.18387e-05 -1.17455e-05 0.106176)
(-6.61115e-05 -0.000109399 0.106543)
(6.53579e-05 -0.000107954 0.106754)
(-6.53736e-05 -0.000107913 0.106754)
(-1.18875e-05 -1.18414e-05 0.106176)
(0.000172103 0.000172074 0.106108)
(7.50607e-06 7.57578e-06 0.10635)
(6.51921e-05 0.000107513 0.106822)
(-6.52074e-05 0.000107526 0.106822)
(6.43811e-05 0.000105974 0.107021)
(-6.43941e-05 0.000105995 0.107021)
(-0.000172063 0.000172018 0.106108)
(-7.49966e-06 7.57125e-06 0.10635)
(0.000107482 6.51178e-05 0.106822)
(0.000107549 -6.52111e-05 0.106822)
(0.000105946 6.43188e-05 0.107022)
(0.000106009 -6.43958e-05 0.107021)
(-0.0001075 -6.51706e-05 0.106822)
(-0.000105878 6.42865e-05 0.107022)
(-0.000105968 -6.43455e-05 0.107021)
(0.000172108 -0.000172149 0.106108)
(7.63396e-06 -7.54715e-06 0.10635)
(-6.50732e-05 -0.000107386 0.106822)
(6.42647e-05 -0.000105913 0.107022)
(-6.42423e-05 -0.000105849 0.107022)
(-7.52463e-06 -7.48102e-06 0.10635)
(0.000170435 0.000170412 0.106264)
(3.64104e-06 3.70357e-06 0.106498)
(6.4111e-05 0.000105494 0.107086)
(-6.4124e-05 0.000105492 0.107086)
(6.32732e-05 0.000104089 0.107273)
(-6.32926e-05 0.000104092 0.107273)
(-0.000170366 0.000170325 0.106264)
(-3.52547e-06 3.59782e-06 0.106498)
(0.000105442 6.40551e-05 0.107086)
(0.000105501 -6.41235e-05 0.107086)
(0.000104027 6.32258e-05 0.107274)
(0.000104103 -6.32945e-05 0.107273)
(-0.000105476 -6.40882e-05 0.107086)
(-0.000103997 6.31989e-05 0.107274)
(-0.000104075 -6.32647e-05 0.107273)
(0.000170398 -0.000170455 0.106264)
(3.66222e-06 -3.57136e-06 0.106498)
(-6.39798e-05 -0.00010537 0.107086)
(6.31791e-05 -0.000103985 0.107274)
(-6.31692e-05 -0.000103964 0.107274)
(-3.56089e-06 -3.51905e-06 0.106498)
(0.000168276 0.000168243 0.106394)
(1.60797e-07 2.30574e-07 0.106619)
(6.30155e-05 0.000103633 0.107334)
(-6.30428e-05 0.000103628 0.107334)
(6.22467e-05 0.000102144 0.107508)
(-6.22607e-05 0.000102178 0.107508)
(-0.000168187 0.000168151 0.106394)
(-7.85621e-08 1.65106e-07 0.10662)
(0.000103557 6.29715e-05 0.107334)
(0.000103621 -6.30277e-05 0.107333)
(0.000102097 6.21901e-05 0.107509)
(0.000102182 -6.22665e-05 0.107508)
(-0.000103621 -6.30395e-05 0.107334)
(-0.000102078 6.21593e-05 0.107509)
(-0.000102143 -6.22209e-05 0.107508)
(0.000168232 -0.000168274 0.106394)
(2.30908e-07 -1.47653e-07 0.106619)
(-6.29522e-05 -0.00010351 0.107334)
(6.21429e-05 -0.000102075 0.107509)
(-6.21216e-05 -0.00010204 0.107509)
(-1.14622e-07 -7.55675e-08 0.106619)
(0.000165601 0.000165568 0.106497)
(-3.04173e-06 -2.98063e-06 0.106713)
(6.19674e-05 0.000101641 0.107565)
(-6.20139e-05 0.000101676 0.107565)
(6.11795e-05 0.000100117 0.107727)
(-6.11938e-05 0.000100164 0.107726)
(-0.000165552 0.000165527 0.106497)
(3.10655e-06 -3.06147e-06 0.106713)
(0.000101602 6.19094e-05 0.107565)
(0.000101677 -6.19919e-05 0.107564)
(0.000100089 6.11244e-05 0.107727)
(0.000100184 -6.12331e-05 0.107726)
(-0.000101659 -6.19761e-05 0.107565)
(-0.000100071 6.11024e-05 0.107727)
(-0.000100134 -6.11673e-05 0.107726)
(0.000165606 -0.000165663 0.106497)
(-2.95589e-06 3.02326e-06 0.106713)
(-6.18643e-05 -0.000101561 0.107565)
(6.11123e-05 -0.00010008 0.107727)
(-6.10634e-05 -0.000100034 0.107727)
(3.05988e-06 3.09751e-06 0.106713)
(0.000162362 0.000162308 0.106572)
(6.09468e-05 9.9607e-05 0.107778)
(-6.10066e-05 9.96837e-05 0.107778)
(-0.000162327 0.000162266 0.106572)
(9.95847e-05 6.08913e-05 0.107779)
(9.96807e-05 -6.10076e-05 0.107778)
(-9.96431e-05 -6.0962e-05 0.107778)
(0.000162387 -0.000162447 0.106572)
(-6.08586e-05 -9.95322e-05 0.107779)
(-3.34126e-07 -3.36783e-07 0.0999988)
(1.68283e-05 1.68229e-05 0.100003)
(-4.5061e-07 1.39328e-05 0.1)
(1.39404e-05 -4.53156e-07 0.1)
(-4.66041e-05 5.72833e-06 0.100009)
(-1.52709e-05 1.55875e-05 0.0999999)
(-0.000127914 6.04507e-05 0.100058)
(-1.31109e-05 -8.63776e-07 0.0999958)
(5.72263e-06 -4.6588e-05 0.100009)
(1.5591e-05 -1.52709e-05 0.0999999)
(-8.619e-07 -1.31089e-05 0.0999958)
(6.04611e-05 -0.000127844 0.100058)
(-1.87247e-05 -1.87278e-05 0.100003)
(-0.000134955 -8.10573e-05 0.100055)
(-8.1065e-05 -0.000134935 0.100055)
(-3.47628e-05 0.00013605 0.100724)
(0.000177042 0.000388503 0.0994165)
(2.38619e-06 0.000305452 0.100516)
(-8.40132e-05 0.000243389 0.0991476)
(-0.000303487 0.000837903 0.0977722)
(-0.000129194 0.000304519 0.0957183)
(0.00013578 -3.49089e-05 0.100724)
(0.000389119 0.000176003 0.0994172)
(0.000306204 2.24687e-06 0.100517)
(0.000243512 -8.39113e-05 0.099148)
(-0.000107942 0.000107894 0.100299)
(0.000107929 -0.000107939 0.100299)
(-0.00010792 -0.000107948 0.100299)
(9.17524e-05 9.16833e-05 0.100739)
(-9.17083e-05 9.17007e-05 0.100739)
(9.17376e-05 -9.1751e-05 0.100739)
(-9.17168e-05 -9.17613e-05 0.100739)
(-0.00028071 6.40017e-06 0.100754)
(-0.000399056 0.000229237 0.100526)
(-0.000175286 3.73829e-05 0.100332)
(-0.000153241 9.45078e-05 0.100558)
(-0.000358992 1.56361e-05 0.100479)
(-0.000148844 0.000198779 0.100739)
(-0.000152721 3.32782e-05 0.100497)
(0.000836865 -0.000301612 0.0977703)
(0.00030453 -0.0001288 0.0957195)
(6.35206e-06 -0.000280625 0.100754)
(3.74181e-05 -0.000175261 0.100332)
(0.000229336 -0.000399038 0.100526)
(9.44673e-05 -0.00015323 0.100558)
(1.56328e-05 -0.000358868 0.100479)
(3.33272e-05 -0.000152706 0.100497)
(0.000198816 -0.000148839 0.100739)
(-0.000372642 -0.000141968 0.100361)
(-0.000142172 -0.000372889 0.100361)
(-0.000111978 -0.000112053 0.100655)
(1.10719e-05 -7.89046e-05 0.10059)
(-7.91626e-05 1.10912e-05 0.10059)
(-1.65359e-05 0.000198348 0.100868)
(-5.49139e-05 0.000288095 0.0983199)
(-2.02849e-05 0.00020874 0.100777)
(-4.47986e-05 0.000271113 0.0979454)
(-0.000150382 0.000313463 0.0926213)
(-0.000137209 0.000273091 0.0909996)
(0.00019827 -1.66923e-05 0.100867)
(0.000288345 -5.47977e-05 0.0983202)
(0.000208787 -2.04235e-05 0.100778)
(0.00027125 -4.47302e-05 0.0979456)
(-9.42335e-05 9.42494e-05 0.10086)
(9.42898e-05 -9.42834e-05 0.10086)
(-9.42674e-05 -9.4282e-05 0.10086)
(9.61986e-05 9.61822e-05 0.101239)
(-9.61703e-05 9.61984e-05 0.101239)
(9.62121e-05 -9.62078e-05 0.101239)
(-9.62058e-05 -9.62021e-05 0.101239)
(-0.000263626 1.32865e-05 0.101153)
(-0.000219017 0.000214167 0.100818)
(-0.000164512 3.10415e-05 0.100897)
(-0.000160205 9.74312e-05 0.101064)
(-0.000297969 1.41207e-05 0.100977)
(-0.00018331 0.0001979 0.100945)
(-0.000168725 3.24797e-05 0.101019)
(0.000313435 -0.000150093 0.0926194)
(0.0002732 -0.000137052 0.0910013)
(1.33587e-05 -0.000263604 0.101153)
(3.11141e-05 -0.000164509 0.100897)
(0.000214241 -0.000219091 0.100819)
(9.74273e-05 -0.000160204 0.101064)
(1.42132e-05 -0.000297939 0.100977)
(3.25464e-05 -0.000168722 0.101019)
(0.000197862 -0.000183249 0.100945)
(-8.3874e-05 -9.71632e-05 0.100438)
(-9.7273e-05 -8.3892e-05 0.100438)
(-0.000112482 -0.000112481 0.101144)
(-8.66471e-05 -8.26159e-05 0.10043)
(-8.27496e-05 -8.66983e-05 0.10043)
(-9.36618e-06 0.000210796 0.100957)
(-2.19408e-05 0.000281547 0.0971362)
(-1.16061e-05 0.000230431 0.100902)
(-1.22778e-05 0.00025701 0.0967129)
(-0.000117395 0.000225947 0.0883852)
(-9.69168e-05 0.000187302 0.0870651)
(0.000210723 -9.4871e-06 0.100956)
(0.000281673 -2.18773e-05 0.0971363)
(0.000230485 -1.1728e-05 0.100903)
(0.000257091 -1.21927e-05 0.0967131)
(-9.53971e-05 9.54289e-05 0.10137)
(9.5438e-05 -9.5434e-05 0.10137)
(-9.54304e-05 -9.54291e-05 0.10137)
(9.43486e-05 9.43387e-05 0.101763)
(-9.43271e-05 9.43617e-05 0.101763)
(9.43744e-05 -9.43539e-05 0.101763)
(-9.4356e-05 -9.43565e-05 0.101763)
(-0.000251008 1.22054e-05 0.10158)
(-0.000222526 0.000190503 0.101028)
(-0.000167313 3.27723e-05 0.101407)
(-0.00015516 9.2866e-05 0.101577)
(-0.00029018 1.20935e-05 0.101414)
(-0.000182283 0.000169375 0.101124)
(-0.000167151 3.27082e-05 0.101537)
(0.000225787 -0.000117149 0.0883823)
(0.000187375 -9.68411e-05 0.0870667)
(1.22557e-05 -0.000250994 0.10158)
(3.28136e-05 -0.000167324 0.101407)
(0.000190533 -0.000222578 0.101028)
(9.28617e-05 -0.000155165 0.101577)
(1.21478e-05 -0.000290183 0.101414)
(3.27443e-05 -0.000167149 0.101537)
(0.000169321 -0.000182224 0.101123)
(-0.000116103 -9.15157e-05 0.100182)
(-9.16168e-05 -0.000116177 0.100182)
(-0.000101489 -0.000101494 0.101646)
(-0.000111985 -7.23387e-05 0.100086)
(-7.24201e-05 -0.000112058 0.100086)
(-6.94888e-06 0.000210203 0.100953)
(5.52786e-06 0.000258104 0.0958568)
(-7.87187e-06 0.00023627 0.100926)
(1.02182e-05 0.000229614 0.0954233)
(-7.73524e-05 0.000150022 0.084977)
(-5.9161e-05 0.000118908 0.083966)
(0.00021013 -7.05672e-06 0.100952)
(0.000258221 5.57687e-06 0.0958567)
(0.00023635 -7.95655e-06 0.100928)
(0.000229723 1.03144e-05 0.0954236)
(-9.38637e-05 9.38986e-05 0.101892)
(9.3912e-05 -9.38872e-05 0.101892)
(-9.38916e-05 -9.38921e-05 0.101892)
(9.18699e-05 9.1867e-05 0.102273)
(-9.18564e-05 9.18956e-05 0.102273)
(9.19073e-05 -9.18721e-05 0.102273)
(-9.18825e-05 -9.18812e-05 0.102273)
(-0.00023854 1.11556e-05 0.101978)
(-0.000219861 0.000162774 0.101141)
(-0.000165096 3.20931e-05 0.101923)
(-0.000150695 8.89753e-05 0.102081)
(-0.000282653 1.10181e-05 0.101822)
(-0.000175007 0.000141241 0.101214)
(-0.000163802 3.17588e-05 0.10205)
(0.000149865 -7.71562e-05 0.0849738)
(0.000118999 -5.91412e-05 0.0839675)
(1.11974e-05 -0.000238533 0.101978)
(3.2113e-05 -0.000165095 0.101923)
(0.000162823 -0.000219931 0.101142)
(8.89872e-05 -0.000150699 0.102081)
(1.10575e-05 -0.000282669 0.101822)
(3.17744e-05 -0.000163787 0.10205)
(0.000141196 -0.000174967 0.101213)
(-0.000133053 -7.94038e-05 0.0997189)
(-7.94731e-05 -0.000133123 0.0997187)
(-9.13883e-05 -9.13924e-05 0.102133)
(-0.000123723 -6.02042e-05 0.0995708)
(-6.02606e-05 -0.000123799 0.0995699)
(-6.39505e-06 0.000202281 0.100852)
(1.9101e-05 0.000226764 0.0945603)
(-6.87518e-06 0.00023124 0.100852)
(1.86826e-05 0.000197368 0.0941436)
(-4.54849e-05 9.54394e-05 0.0823424)
(-3.13345e-05 7.20565e-05 0.0815917)
(0.000202222 -6.49318e-06 0.100851)
(0.000226837 1.90436e-05 0.0945595)
(0.000231323 -6.88633e-06 0.100853)
(0.000197491 1.87821e-05 0.094144)
(-9.11162e-05 9.1156e-05 0.102398)
(9.11666e-05 -9.11279e-05 0.102398)
(-9.11435e-05 -9.11403e-05 0.102398)
(8.88936e-05 8.88994e-05 0.102765)
(-8.88868e-05 8.89333e-05 0.102765)
(8.89403e-05 -8.88917e-05 0.102765)
(-8.89079e-05 -8.89013e-05 0.102765)
(-0.000223546 1.02761e-05 0.102335)
(-0.000210931 0.000137458 0.101161)
(-0.000159035 3.06775e-05 0.102424)
(-0.000144832 8.45072e-05 0.102565)
(-0.000271034 9.92087e-06 0.102189)
(-0.000164218 0.000117104 0.101213)
(-0.00015734 3.03254e-05 0.102546)
(9.52148e-05 -4.5272e-05 0.0823391)
(7.21439e-05 -3.1265e-05 0.0815935)
(1.03221e-05 -0.000223544 0.102335)
(3.06818e-05 -0.000159026 0.102424)
(0.000137483 -0.000210994 0.101162)
(8.45147e-05 -0.000144834 0.102565)
(9.95082e-06 -0.000271053 0.102189)
(3.03277e-05 -0.00015732 0.102546)
(0.000116967 -0.000164177 0.101212)
(-0.000137981 -6.8614e-05 0.0991148)
(-6.86608e-05 -0.000138023 0.0991145)
(-8.09344e-05 -8.09398e-05 0.102592)
(-0.000125487 -5.07115e-05 0.0989324)
(-5.07546e-05 -0.000125556 0.0989312)
(-6.10049e-06 0.000190605 0.100665)
(2.07153e-05 0.000194393 0.0933112)
(-6.68771e-06 0.000220992 0.100688)
(1.72932e-05 0.000165548 0.0929274)
(-2.42958e-05 6.00968e-05 0.0803358)
(-1.35597e-05 4.23739e-05 0.0797849)
(0.000190532 -6.13255e-06 0.100664)
(0.000194403 2.06048e-05 0.09331)
(0.000221064 -6.63685e-06 0.100689)
(0.000165632 1.73285e-05 0.0929281)
(-8.81409e-05 8.81863e-05 0.102885)
(8.81978e-05 -8.81442e-05 0.102885)
(-8.81718e-05 -8.81642e-05 0.102885)
(8.59995e-05 8.60108e-05 0.103238)
(-8.59893e-05 8.60405e-05 0.103238)
(8.60505e-05 -8.59868e-05 0.103238)
(-8.60139e-05 -8.60033e-05 0.103238)
(-0.000207823 9.74341e-06 0.10265)
(-0.000199431 0.00011651 0.101096)
(-0.000152215 2.93351e-05 0.102904)
(-0.000139279 8.07258e-05 0.103024)
(-0.000257497 9.18502e-06 0.102513)
(-0.000152115 9.7392e-05 0.101132)
(-0.000150516 2.90377e-05 0.10302)
(5.97124e-05 -2.40055e-05 0.0803325)
(4.23995e-05 -1.34658e-05 0.079787)
(9.78484e-06 -0.000207822 0.102649)
(2.93307e-05 -0.000152203 0.102904)
(0.000116643 -0.000199555 0.101097)
(8.07336e-05 -0.000139281 0.103024)
(9.19799e-06 -0.000257517 0.102514)
(2.90309e-05 -0.000150494 0.103021)
(9.73996e-05 -0.000152143 0.101131)
(-0.000135339 -6.09051e-05 0.0984178)
(-6.09444e-05 -0.000135402 0.0984172)
(-7.14445e-05 -7.14461e-05 0.103024)
(-0.000121381 -4.41478e-05 0.0982141)
(-4.41727e-05 -0.00012143 0.0982126)
(-4.99704e-06 0.00017692 0.100405)
(1.56781e-05 0.00016462 0.0921467)
(-5.87569e-06 0.000207986 0.100448)
(1.09123e-05 0.000136933 0.0918035)
(-1.14764e-05 3.85464e-05 0.0788054)
(-2.96047e-06 2.44364e-05 0.0784012)
(0.000176853 -4.96119e-06 0.100404)
(0.000164582 1.56634e-05 0.0921454)
(0.000208085 -5.86536e-06 0.100449)
(0.000136973 1.09389e-05 0.0918044)
(-8.53048e-05 8.53546e-05 0.103353)
(8.53823e-05 -8.53077e-05 0.103353)
(-8.5341e-05 -8.53298e-05 0.103353)
(8.34344e-05 8.3463e-05 0.103692)
(-8.34259e-05 8.34773e-05 0.103692)
(8.34889e-05 -8.34145e-05 0.103692)
(-8.34475e-05 -8.34323e-05 0.103692)
(-0.000192488 9.59373e-06 0.102924)
(-0.000187266 9.98234e-05 0.100959)
(-0.000145578 2.82371e-05 0.103363)
(-0.000134308 7.77035e-05 0.103461)
(-0.000243668 8.80222e-06 0.102795)
(-0.000140125 8.17641e-05 0.100981)
(-0.000144011 2.80183e-05 0.103474)
(3.82555e-05 -1.13315e-05 0.0788016)
(2.46773e-05 -3.07789e-06 0.0784036)
(9.61596e-06 -0.000192489 0.102923)
(2.82357e-05 -0.000145566 0.103363)
(9.99403e-05 -0.000187368 0.100959)
(7.77275e-05 -0.000134315 0.103461)
(8.80646e-06 -0.000243683 0.102796)
(2.80066e-05 -0.000143989 0.103474)
(8.18735e-05 -0.000140212 0.100979)
(-0.000128506 -5.54825e-05 0.0976632)
(-5.55125e-05 -0.000128561 0.0976624)
(-6.30416e-05 -6.30454e-05 0.103428)
(-0.000113808 -3.93068e-05 0.0974494)
(-3.93174e-05 -0.00011383 0.0974477)
(-3.12913e-06 0.000162593 0.100087)
(7.96785e-06 0.000139024 0.0910833)
(-4.15621e-06 0.000193636 0.100145)
(2.89149e-06 0.00011272 0.0907814)