/*--------------------------------*- C++ -*----------------------------------*\
| =========                 |                                                 |
| \\      /  F ield         | OpenFOAM: The Open Source CFD Toolbox           |
|  \\    /   O peration     | Version:  v1906                                 |
|   \\  /    A nd           | Web:      www.OpenFOAM.com                      |
|    \\/     M anipulation  |                                                 |
\*---------------------------------------------------------------------------*/
FoamFile
{
    version     2.0;
    format      ascii;
    class       volVectorField;
    location    "625";
    object      U;
}
// * * * * * * * * * * * * * * * * * * * * * * * * * * * * * * * * * * * * * //

dimensions      [0 1 -1 0 0 0 0];


internalField   nonuniform List<vector> 
42840
(
(-5.69495e-06 -8.61677e-06 0.112502)
(8.94216e-06 -8.81706e-06 0.107509)
(-8.72128e-06 8.2238e-06 0.107505)
(-2.5666e-05 -2.69655e-05 0.104206)
(-2.83943e-05 -2.61961e-05 0.104198)
(2.72952e-05 2.61001e-05 0.104183)
(-4.64876e-05 -4.42504e-05 0.104308)
(-6.09912e-06 -9.94462e-06 0.107485)
(1.52873e-07 -1.23403e-05 0.107499)
(-1.00482e-05 -1.20546e-05 0.107486)
(-1.48874e-06 -1.44127e-05 0.107485)
(-3.10306e-05 2.32031e-05 0.104196)
(3.90555e-05 -4.85315e-05 0.104306)
(-8.87768e-06 -7.6485e-06 0.107487)
(-1.19531e-05 4.75372e-08 0.107496)
(-1.34592e-05 -7.22127e-06 0.107487)
(-1.48425e-05 9.32097e-08 0.107486)
(1.29067e-05 5.00527e-06 0.107517)
(7.68361e-06 -1.14141e-05 0.107494)
(1.12103e-05 4.92309e-06 0.107502)
(2.3302e-05 -3.12211e-05 0.104193)
(-4.9013e-05 3.96992e-05 0.104308)
(6.67165e-06 1.16776e-05 0.107518)
(-1.27597e-05 8.26737e-06 0.107494)
(1.90611e-06 1.27792e-05 0.107502)
(4.24461e-05 4.48364e-05 0.104313)
(1.0551e-05 4.50247e-06 0.107495)
(1.4857e-06 1.23656e-05 0.107496)
(-6.56071e-07 -1.16689e-05 0.0913893)
(5.21172e-07 4.12866e-06 0.0822068)
(-5.51554e-07 -8.37654e-06 0.0822539)
(-2.24487e-06 8.27069e-07 0.0913469)
(-2.35253e-06 1.87514e-06 0.0715269)
(2.36349e-06 -3.273e-06 0.0715746)
(-1.13872e-05 -2.70858e-07 0.0913891)
(4.01538e-06 1.14211e-06 0.0822061)
(-8.342e-06 -1.53406e-07 0.0822544)
(1.22505e-06 -1.73113e-06 0.0913477)
(1.00597e-05 -7.53648e-06 0.112525)
(-6.41233e-06 8.67244e-06 0.112523)
(1.34763e-05 1.02832e-05 0.112536)
(-1.42708e-05 -1.28285e-05 0.112474)
(4.11296e-06 -1.34215e-05 0.112493)
(-1.48891e-05 5.78882e-06 0.11249)
(8.1488e-06 9.78049e-06 0.112513)
(2.1593e-05 -4.22036e-06 0.0985533)
(-4.74435e-06 -3.62508e-06 0.0929783)
(1.26929e-05 -3.23024e-06 0.109946)
(8.25831e-06 -9.98234e-06 0.107504)
(1.47385e-05 -9.02752e-06 0.0930336)
(1.23935e-05 -4.5766e-06 0.10994)
(-1.09599e-06 -4.20522e-06 0.0984993)
(1.91853e-06 -2.5725e-06 0.0715266)
(-3.13392e-06 1.87764e-06 0.0715753)
(-5.20356e-06 2.08082e-05 0.0985527)
(-2.41444e-06 1.14516e-05 0.109945)
(-3.25248e-06 -5.58354e-06 0.0929786)
(-1.05565e-05 7.87369e-06 0.107501)
(-5.33521e-06 1.16094e-05 0.109938)
(-8.49442e-06 1.39985e-05 0.0930331)
(-4.76666e-06 -1.85068e-06 0.0984977)
(4.38046e-07 -1.98995e-06 0.087525)
(-2.9545e-06 9.11345e-07 0.0875238)
(4.40811e-05 4.51645e-05 0.104319)
(7.11023e-06 5.71502e-06 0.0875692)
(4.88023e-06 7.42586e-06 0.0875671)
(-5.09305e-07 -1.03271e-06 0.0875582)
(-5.12998e-07 -9.24295e-07 0.0875563)
(1.57283e-06 2.24559e-06 0.0715341)
(-1.797e-06 -3.42715e-06 0.0715781)
(2.05982e-06 2.09639e-06 0.0715331)
(-3.4334e-06 -1.56962e-06 0.0715773)
(1.68166e-06 6.36707e-07 0.0875299)
(2.39113e-07 2.50332e-06 0.0875277)
(-4.5273e-05 -4.42687e-05 0.104301)
(-4.78347e-06 -6.89097e-06 0.0875722)
(-7.1961e-06 -4.01846e-06 0.0875703)
(-1.4614e-06 -3.39023e-06 0.0715901)
(2.04353e-06 2.22933e-06 0.071547)
(-3.06664e-06 -2.03682e-06 0.071589)
(2.30659e-06 2.10785e-06 0.0715455)
(2.48545e-05 2.63496e-05 0.104189)
(-4.08961e-06 -7.55514e-06 0.0875872)
(-7.3363e-06 -4.29665e-06 0.0875851)
(2.49873e-06 6.43311e-08 0.0875452)
(-1.58856e-07 3.10922e-06 0.0875425)
(-3.71032e-07 -1.18394e-05 0.0913892)
(-1.65853e-06 4.00864e-06 0.0822031)
(9.8453e-07 -8.22452e-06 0.0822531)
(-1.88726e-06 4.5727e-07 0.0913469)
(-3.65813e-06 -2.06889e-05 0.098548)
(-5.22103e-07 4.58636e-06 0.0929773)
(-4.80736e-06 -1.09495e-05 0.109921)
(-8.01923e-06 -1.06456e-05 0.107484)
(-5.39796e-06 -1.54034e-05 0.0930325)
(-7.20958e-06 -1.18621e-05 0.109916)
(-4.88704e-06 2.31306e-06 0.0984914)
(-3.01429e-06 -2.12967e-05 0.0985479)
(-4.06684e-06 2.15557e-06 0.092975)
(-1.19457e-06 -1.19347e-05 0.109929)
(-1.17766e-06 -1.31993e-05 0.107494)
(3.08884e-06 -1.68359e-05 0.0930306)
(-3.62603e-06 -1.27664e-05 0.109922)
(-4.14489e-06 1.46977e-06 0.098492)
(-2.3001e-07 7.51975e-07 0.0913634)
(7.83861e-08 -8.23964e-06 0.0822695)
(1.39502e-06 4.20815e-06 0.0822224)
(9.74284e-07 -1.1822e-05 0.0914063)
(1.21799e-07 6.43383e-07 0.0913633)
(2.29766e-06 -7.74715e-06 0.0822711)
(-4.48466e-07 4.48398e-06 0.0822223)
(1.3717e-06 -1.17741e-05 0.091406)
(-3.07399e-06 1.77871e-06 0.0985024)
(-9.35673e-06 -1.13813e-05 0.107485)
(-3.81793e-06 -1.61927e-05 0.0930477)
(-9.4537e-06 -1.40908e-05 0.109908)
(1.12091e-06 3.81237e-06 0.0929928)
(-8.75733e-06 -1.2983e-05 0.109911)
(-1.12159e-06 -2.1288e-05 0.0985605)
(-2.40376e-06 1.27446e-06 0.098502)
(-1.74123e-06 -1.3947e-05 0.107489)
(5.09557e-06 -1.59738e-05 0.0930463)
(-5.58482e-06 -1.474e-05 0.10991)
(-2.50495e-06 2.76766e-06 0.0929899)
(-5.10715e-06 -1.37633e-05 0.109915)
(-4.31068e-07 -2.14745e-05 0.0985597)
(-3.82235e-06 -1.22981e-06 0.0875242)
(-1.7108e-06 -1.43421e-06 0.0875251)
(3.88415e-05 -4.86227e-05 0.104309)
(4.17842e-06 -7.52137e-06 0.0875688)
(5.79615e-06 -7.54616e-06 0.0875719)
(-2.77148e-06 -8.53145e-07 0.0715254)
(3.14151e-06 -3.44753e-06 0.0715773)
(3.61851e-06 -2.71953e-06 0.0715907)
(-1.04255e-06 2.55217e-06 0.0715439)
(-3.1934e-05 2.20115e-05 0.104193)
(5.75219e-06 -6.32547e-06 0.0875855)
(6.64444e-06 -5.6955e-06 0.0875893)
(-2.4946e-06 -1.86552e-07 0.0875409)
(-9.75449e-07 -1.39379e-07 0.0875431)
(3.70915e-06 -1.94448e-06 0.0715944)
(-2.1918e-06 5.48639e-07 0.0715436)
(-2.02588e-05 -2.41574e-06 0.0985472)
(4.4674e-06 5.17156e-07 0.0929764)
(-9.96929e-06 -6.71342e-06 0.109922)
(-1.05913e-05 -7.56037e-06 0.107485)
(-1.56022e-05 -4.04451e-06 0.093033)
(-1.14937e-05 -7.10028e-06 0.109915)
(2.82425e-06 -4.24856e-06 0.0984905)
(-1.14146e-05 -1.5349e-07 0.0913889)
(4.11646e-06 -1.84772e-06 0.0822034)
(-7.99326e-06 5.3586e-07 0.0822535)
(1.02301e-06 -1.5662e-06 0.0913477)
(-2.05726e-05 -1.94746e-06 0.0985471)
(-1.1044e-05 -1.98057e-06 0.109928)
(2.91225e-06 -4.26127e-06 0.0929746)
(-1.30324e-05 -5.26548e-07 0.107491)
(-1.2252e-05 -2.80052e-06 0.10992)
(-1.60998e-05 2.59676e-06 0.0930312)
(2.20496e-06 -3.61202e-06 0.0984908)
(1.07548e-06 4.55177e-08 0.0913641)
(-7.98444e-06 -3.61599e-07 0.08227)
(4.24302e-06 1.58826e-06 0.0822217)
(-1.17709e-05 6.00195e-07 0.0914059)
(2.17104e-06 -1.82678e-06 0.0985021)
(-1.21899e-05 -7.37658e-06 0.107486)
(-1.62539e-05 -3.54707e-06 0.0930485)
(-1.47222e-05 -6.51526e-06 0.109907)
(3.59567e-06 2.31452e-06 0.0929919)
(-1.31338e-05 -6.96487e-06 0.109911)
(-2.12458e-05 -4.30737e-07 0.0985607)
(1.06419e-06 2.48568e-07 0.0913641)
(-7.52337e-06 1.69145e-06 0.08227)
(4.60509e-06 -9.29286e-07 0.0822203)
(-1.17019e-05 9.2727e-07 0.0914058)
(1.94642e-06 -1.37094e-06 0.0985019)
(-1.40468e-05 -4.97731e-07 0.107488)
(-1.49995e-05 -2.77266e-06 0.109909)
(-1.60025e-05 4.1569e-06 0.093047)
(-1.36276e-05 -3.02343e-06 0.109913)
(3.3215e-06 -3.11574e-06 0.0929897)
(-2.12801e-05 1.27912e-08 0.0985604)
(1.24187e-05 -2.68436e-06 0.0913906)
(-4.61091e-06 -1.90549e-06 0.0822032)
(8.21736e-06 -2.6078e-06 0.0822538)
(-3.57482e-08 -3.44221e-06 0.0913496)
(2.22401e-05 -2.54818e-06 0.0985538)
(1.3847e-05 1.78667e-06 0.10995)
(-2.34769e-06 -2.03282e-06 0.0929788)
(1.25551e-05 5.2927e-06 0.107513)
(1.3783e-05 1.10048e-06 0.109945)
(1.68141e-05 4.94454e-06 0.0930331)
(-5.27862e-07 -2.68494e-06 0.0984998)
(1.27081e-05 -1.6671e-06 0.0913908)
(-4.30805e-06 -8.51852e-07 0.0822026)
(8.18723e-06 1.47642e-06 0.0822515)
(2.65016e-07 -2.35489e-06 0.0913497)
(-1.08168e-06 -4.09853e-06 0.0985069)
(7.82625e-06 -1.09245e-05 0.107499)
(1.51331e-05 -6.96188e-06 0.0930476)
(1.18379e-05 -7.3738e-06 0.109925)
(-4.52329e-06 -2.57306e-06 0.092992)
(1.21128e-05 -6.05678e-06 0.109933)
(2.13201e-05 -3.20965e-06 0.0985611)
(-8.98482e-08 -2.31616e-06 0.0913643)
(8.59067e-06 -1.05826e-06 0.0822711)
(-4.14008e-06 -5.02741e-07 0.0822211)
(1.21523e-05 -8.76964e-07 0.0914056)
(-4.41942e-07 -2.4206e-06 0.0985077)
(1.19376e-05 5.2337e-06 0.107508)
(1.31292e-05 -7.10182e-07 0.10993)
(1.62232e-05 5.75683e-06 0.0930466)
(1.35488e-05 2.02154e-07 0.109938)
(-2.71336e-06 -8.8067e-07 0.0929926)
(2.18152e-05 -1.68578e-06 0.0985614)
(1.69039e-07 -1.30078e-06 0.0913646)
(8.18583e-06 1.95815e-06 0.0822699)
(-4.37834e-06 -1.22118e-07 0.0822206)
(1.22926e-05 -8.3434e-08 0.0914058)
(-8.16836e-07 -4.21339e-06 0.0875237)
(-8.11157e-07 -2.15319e-06 0.0875272)
(-4.87766e-05 3.89785e-05 0.104306)
(-7.31556e-06 3.57006e-06 0.0875689)
(-6.89825e-06 5.63413e-06 0.0875709)
(-4.33013e-07 -2.88516e-06 0.0715305)
(-3.03184e-06 3.14812e-06 0.0715762)
(-2.5485e-06 3.16968e-06 0.0715885)
(2.50819e-06 -1.46022e-06 0.0715401)
(2.17527e-05 -3.16569e-05 0.104192)
(-6.69538e-06 5.14877e-06 0.0875841)
(-5.13537e-06 7.02904e-06 0.087587)
(-1.01561e-07 -3.17439e-06 0.0875388)
(6.20585e-07 -1.14516e-06 0.0875435)
(-1.61456e-06 3.64631e-06 0.0715903)
(1.11767e-06 -2.37001e-06 0.0715454)
(-3.8504e-06 2.17685e-05 0.0985531)
(3.80617e-06 1.256e-05 0.10995)
(-3.27902e-06 -2.19007e-06 0.0929781)
(4.82172e-06 1.24209e-05 0.107514)
(1.07671e-06 1.31887e-05 0.109944)
(3.51553e-06 1.69723e-05 0.093033)
(-3.39619e-06 -1.10952e-06 0.0984985)
(-2.8947e-06 1.19029e-05 0.0913912)
(-1.61772e-06 -4.7758e-06 0.0822061)
(-2.22702e-06 8.06829e-06 0.0822531)
(-3.7546e-06 -5.39472e-07 0.0913494)
(-2.11254e-06 1.23483e-05 0.091391)
(-1.64692e-06 -4.15584e-06 0.0822026)
(1.11932e-06 8.1171e-06 0.0822519)
(-2.94425e-06 -1.2248e-07 0.0913499)
(-5.04575e-06 -1.7722e-06 0.0985064)
(-1.19667e-05 7.87366e-06 0.107497)
(-1.00722e-05 1.21875e-05 0.109924)
(-6.11288e-06 1.52126e-05 0.0930473)
(-8.03539e-06 1.1865e-05 0.109931)
(-1.92945e-06 -5.21507e-06 0.0929924)
(-3.63184e-06 2.10369e-05 0.098562)
(-3.68139e-06 -8.25839e-07 0.0985072)
(3.12451e-06 1.28118e-05 0.107509)
(-3.71904e-06 1.39128e-05 0.109929)
(5.51833e-06 1.6221e-05 0.0930468)
(-1.58583e-06 1.36866e-05 0.109937)
(-2.14759e-06 -2.60467e-06 0.092992)
(-2.33359e-06 2.17345e-05 0.098562)
(-2.42379e-06 -5.12335e-07 0.0913642)
(-5.08436e-07 8.41149e-06 0.0822688)
(-2.86545e-08 -4.39187e-06 0.0822218)
(-4.84747e-07 1.19871e-05 0.0914065)
(-1.59164e-06 -1.48262e-07 0.0913649)
(2.52483e-06 7.88835e-06 0.08227)
(-2.77757e-07 -4.50541e-06 0.0822203)
(2.49709e-07 1.21854e-05 0.0914062)
(-2.43848e-06 -1.27497e-06 0.0715241)
(3.19903e-06 2.92437e-06 0.0715713)
(-1.9013e-06 -2.23486e-06 0.071524)
(2.69245e-06 3.17938e-06 0.0715706)
(-2.73344e-05 -2.56997e-05 0.104203)
(6.65254e-06 6.06287e-06 0.0875859)
(6.26508e-06 6.38634e-06 0.0875835)
(-1.07704e-07 -1.25343e-06 0.0875414)
(-1.88881e-06 9.28096e-08 0.0875397)
(3.26798e-06 3.19372e-06 0.0715895)
(-2.4382e-06 -7.21544e-07 0.0715409)
(3.76332e-06 2.92761e-06 0.0715884)
(-7.61724e-07 -2.53872e-06 0.0715401)
(1.26719e-05 -1.376e-06 0.109921)
(-3.33223e-06 -1.98524e-07 0.0930061)
(-9.80285e-07 -1.29053e-06 0.0985154)
(-4.36357e-06 2.62729e-07 0.0822392)
(-2.92327e-07 3.4743e-07 0.0913797)
(2.9411e-10 -3.44111e-06 0.0930059)
(1.02313e-06 -4.68378e-06 0.0822387)
(-2.36641e-06 -5.52743e-07 0.0715595)
(1.95064e-07 -2.73848e-06 0.0715584)
(-2.07507e-07 1.55933e-06 0.0768661)
(2.25042e-07 -5.22525e-06 0.0786712)
(-4.66565e-07 -1.12919e-05 0.089912)
(-1.17671e-06 7.96349e-07 0.091355)
(-1.46308e-07 1.2361e-06 0.0786411)
(-8.37439e-07 1.29644e-06 0.0898735)
(1.11899e-06 -5.07861e-06 0.0769011)
(6.83348e-07 -3.28572e-06 0.0684438)
(-9.90384e-07 -8.42571e-06 0.0822461)
(-1.0328e-06 2.53725e-06 0.0857982)
(-1.21228e-06 -8.36725e-06 0.0858421)
(-9.0351e-07 2.25545e-06 0.0683963)
(-8.01261e-07 2.31445e-06 0.0684032)
(-6.53831e-07 -8.45115e-06 0.0858501)
(1.00976e-06 4.14204e-06 0.0822147)
(-3.58971e-07 2.41047e-06 0.0858063)
(7.20995e-07 -3.23424e-06 0.0684506)
(9.53113e-07 -5.22891e-06 0.0768925)
(-1.6734e-06 -1.16364e-05 0.0913811)
(-4.97488e-07 1.14708e-06 0.078632)
(-1.90839e-06 1.46507e-06 0.0898651)
(-6.01123e-08 -5.31848e-06 0.0786623)
(-1.41225e-06 -1.11609e-05 0.0899036)
(-4.94867e-07 1.40934e-06 0.0768573)
(1.70486e-06 -3.62472e-06 0.0715662)
(-1.7147e-06 2.21614e-06 0.0715356)
(1.73594e-06 -3.60996e-08 0.0768681)
(-1.10838e-05 7.41485e-08 0.0899118)
(-5.17714e-06 2.66181e-07 0.0786701)
(1.17638e-06 -7.11668e-07 0.0913558)
(1.57734e-06 -2.22163e-07 0.0898742)
(1.42881e-06 -3.40023e-08 0.0786427)
(-5.07321e-06 1.2254e-06 0.0769001)
(-3.38098e-06 8.51243e-07 0.0684409)
(-8.46106e-06 -3.72465e-07 0.0822467)
(2.5589e-06 -4.84522e-07 0.0857985)
(-8.39646e-06 -7.13568e-07 0.0858415)
(2.33578e-06 -6.48469e-07 0.0683976)
(2.37962e-06 -5.54761e-07 0.0684043)
(-8.43104e-06 -3.05796e-07 0.0858495)
(4.09469e-06 1.49555e-06 0.082214)
(2.48428e-06 1.09895e-07 0.0858066)
(-3.33382e-06 8.31977e-07 0.0684476)
(-5.13069e-06 1.14828e-06 0.076892)
(-1.13073e-05 -1.16952e-06 0.0913809)
(1.70395e-06 -1.27673e-06 0.0898659)
(1.39189e-06 -3.0285e-07 0.0786342)
(-1.09694e-05 -7.79567e-07 0.0899035)
(-5.20403e-06 9.20415e-08 0.0786618)
(1.6621e-06 -2.68003e-07 0.0768598)
(-3.43283e-06 1.32122e-06 0.0715685)
(2.21843e-06 -2.06399e-06 0.0715335)
(-3.59053e-07 2.31846e-07 0.0835965)
(1.89525e-06 2.24798e-06 0.0683467)
(2.12939e-06 1.97599e-06 0.0683402)
(-1.02415e-06 -1.40779e-06 0.0683126)
(-1.64995e-06 -8.56762e-07 0.0683064)
(4.72801e-06 5.18766e-06 0.0836265)
(1.20653e-05 7.20266e-06 0.091683)
(-3.29188e-06 -2.20269e-06 0.0962537)
(7.39989e-06 5.35527e-06 0.087561)
(-1.17853e-06 -1.4491e-06 0.0815327)
(1.8213e-05 1.0404e-05 0.0962923)
(5.18829e-06 2.37821e-06 0.0815668)
(-2.88579e-06 -1.73989e-08 0.0916493)
(6.1492e-06 1.29523e-05 0.0916762)
(-3.0473e-06 -2.62406e-06 0.0962506)
(4.3407e-06 7.85134e-06 0.0875591)
(-2.07493e-06 -8.62047e-07 0.0815281)
(9.11868e-06 1.90769e-05 0.0962894)
(1.83149e-06 5.49655e-06 0.081561)
(-9.26048e-07 -2.14312e-06 0.0916427)
(-3.09535e-06 1.52735e-07 0.0916557)
(5.19163e-06 2.54269e-06 0.0815751)
(1.55892e-07 -1.55713e-06 0.0875331)
(1.78999e-05 1.07804e-05 0.0962971)
(-3.59323e-06 -1.68193e-06 0.0962586)
(-1.24089e-06 -1.27444e-06 0.0815408)
(1.19071e-05 7.29298e-06 0.0916894)
(-9.91716e-07 -2.18152e-06 0.091649)
(2.23379e-06 5.3218e-06 0.081569)
(-2.51542e-06 5.59782e-07 0.0875316)
(9.04347e-06 1.8881e-05 0.0962942)
(-3.29082e-06 -2.63343e-06 0.0962554)
(-1.75481e-06 -1.04948e-06 0.0815359)
(6.21498e-06 1.27934e-05 0.0916825)
(4.75203e-06 5.42807e-06 0.0836193)
(-1.05988e-06 -1.45412e-06 0.068306)
(-1.85592e-06 -7.76012e-07 0.0682998)
(1.83e-06 2.21044e-06 0.0683397)
(1.8753e-06 2.06751e-06 0.0683333)
(-3.16506e-07 3.73422e-07 0.0835893)
(1.1747e-05 6.91223e-06 0.0917091)
(-4.30588e-06 -1.40426e-06 0.0962725)
(-8.74012e-07 -8.43919e-07 0.0815675)
(6.49917e-06 6.02162e-06 0.0875943)
(-3.24725e-06 -6.02538e-08 0.0916754)
(1.71794e-05 1.07887e-05 0.0963107)
(5.58702e-06 2.88022e-06 0.0816022)
(7.45285e-06 1.12513e-05 0.0917023)
(-1.95899e-06 -4.17723e-06 0.0962697)
(-2.31374e-07 -1.39959e-06 0.0815623)
(6.84277e-06 5.93441e-06 0.087592)
(9.96724e-08 -3.45172e-06 0.0916686)
(1.07646e-05 1.69952e-05 0.0963082)
(3.67482e-06 5.02359e-06 0.081596)
(4.70289e-06 3.9202e-06 0.0836495)
(-8.18431e-07 -1.27439e-06 0.0683365)
(-7.63315e-07 -1.1969e-06 0.0683304)
(-4.06059e-07 -1.00182e-06 0.083619)
(2.05266e-06 2.3555e-06 0.0683712)
(2.93085e-06 1.61852e-06 0.0683651)
(-2.03055e-06 -3.41931e-06 0.0715716)
(1.83881e-06 2.2179e-06 0.0715407)
(-3.56412e-06 -1.56604e-06 0.0715711)
(2.13432e-06 2.2141e-06 0.0715395)
(4.80833e-07 1.04169e-06 0.0836009)
(-2.10707e-06 -1.77146e-06 0.068355)
(-1.83454e-06 -1.99099e-06 0.0683484)
(1.3834e-06 1.12109e-06 0.0683224)
(9.76065e-07 1.61768e-06 0.0683157)
(-4.67464e-06 -4.24119e-06 0.0836309)
(-7.38719e-06 -1.09987e-05 0.0916844)
(7.73131e-07 5.47124e-06 0.0962482)
(-5.20187e-06 -6.60981e-06 0.0875646)
(1.07077e-06 7.59164e-07 0.0815424)
(-2.52917e-06 -5.66704e-06 0.0815748)
(-1.15768e-05 -1.62579e-05 0.0962879)
(-2.80707e-07 4.09937e-06 0.0916502)
(-1.17782e-05 -6.45775e-06 0.0916776)
(4.8773e-06 1.46903e-06 0.0962451)
(-7.00829e-06 -4.32309e-06 0.0875629)
(4.95053e-07 1.59857e-06 0.0815364)
(-5.92319e-06 -2.03753e-06 0.0815689)
(-1.7034e-05 -1.04583e-05 0.0962852)
(3.45971e-06 4.86517e-07 0.0916435)
(-2.03419e-07 4.02841e-06 0.0916579)
(-2.15415e-06 -5.56745e-06 0.0815816)
(2.10397e-06 3.53923e-07 0.0875377)
(-1.14959e-05 -1.65707e-05 0.0962951)
(1.39698e-06 8.44385e-07 0.0815495)
(-7.23554e-06 -1.1134e-05 0.0916919)
(7.49197e-07 5.2166e-06 0.0962553)
(3.16412e-06 8.23846e-07 0.091651)
(-5.69442e-06 -1.84302e-06 0.0815755)
(-1.94216e-08 2.97372e-06 0.0875352)
(-1.74977e-05 -9.941e-06 0.0962923)
(6.41674e-07 1.83435e-06 0.0815433)
(-1.19779e-05 -6.22951e-06 0.0916851)
(4.30873e-06 2.14292e-06 0.096252)
(-4.56138e-06 -3.95156e-06 0.0836235)
(1.16747e-06 1.11448e-06 0.0683166)
(8.71867e-07 1.51728e-06 0.06831)
(-2.36513e-06 -1.76458e-06 0.0683497)
(-1.96867e-06 -2.06797e-06 0.0683431)
(6.14469e-07 1.23457e-06 0.0835935)
(2.22179e-06 2.26611e-06 0.0715529)
(-1.60602e-06 -3.39487e-06 0.0715842)
(2.5135e-06 1.86766e-06 0.0715513)
(-3.22839e-06 -1.74975e-06 0.0715832)
(-4.76526e-06 -4.70301e-06 0.0836382)
(1.67034e-06 1.09647e-06 0.0683273)
(1.12682e-06 1.66731e-06 0.0683206)
(3.64241e-07 6.43342e-07 0.0836082)
(-1.81608e-06 -1.8263e-06 0.0683596)
(-1.69256e-06 -1.97505e-06 0.0683529)
(3.64172e-07 3.49436e-06 0.0916728)
(-1.08079e-05 -1.75266e-05 0.0963093)
(2.84219e-06 -2.87825e-07 0.0875527)
(-1.36448e-06 -5.47101e-06 0.0815942)
(2.2397e-06 1.01258e-06 0.0815623)
(1.26386e-06 4.40048e-06 0.0962697)
(-6.59114e-06 -1.18262e-05 0.0917067)
(3.11526e-06 8.34144e-07 0.0916659)
(-1.79021e-05 -9.91536e-06 0.0963066)
(-2.43552e-07 2.95241e-06 0.0875499)
(-5.07604e-06 -1.81536e-06 0.081588)
(1.27497e-06 2.01151e-06 0.0815559)
(3.76524e-06 2.4859e-06 0.0962664)
(-1.19076e-05 -6.44764e-06 0.0916999)
(-6.94689e-06 -1.13938e-05 0.0916993)
(1.82435e-06 9.58404e-07 0.0815561)
(9.20881e-07 4.87203e-06 0.0962625)
(-4.41835e-06 -7.2187e-06 0.0875796)
(3.30161e-08 3.84299e-06 0.0916654)
(-1.70992e-06 -5.46661e-06 0.081588)
(-1.12389e-05 -1.69806e-05 0.0963022)
(-1.19903e-05 -6.23003e-06 0.0916925)
(9.47095e-07 1.99418e-06 0.0815498)
(3.96273e-06 2.4955e-06 0.0962592)
(-7.31694e-06 -4.0434e-06 0.0875776)
(3.07283e-06 9.53644e-07 0.0916585)
(-5.35272e-06 -1.74164e-06 0.0815819)
(-1.77585e-05 -9.76877e-06 0.0962994)
(3.50442e-07 1.92509e-07 0.0836155)
(-1.61614e-06 -1.97443e-06 0.0683639)
(-1.64844e-06 -2.05304e-06 0.0683573)
(1.92496e-06 9.90282e-07 0.0683316)
(1.22494e-06 1.63316e-06 0.0683249)
(-4.73108e-06 -5.13947e-06 0.0836453)
(6.12299e-07 1.78358e-06 0.0768664)
(1.95261e-07 -5.27686e-06 0.0786706)
(1.86614e-08 -1.13754e-05 0.089911)
(-8.49148e-07 5.62628e-07 0.091355)
(2.78436e-07 1.20585e-06 0.0786407)
(-5.13198e-07 1.11199e-06 0.0898729)
(-4.71568e-07 -5.03504e-06 0.0768991)
(-6.96602e-07 -3.39495e-06 0.0684383)
(3.81161e-07 -8.4705e-06 0.0822435)
(-4.19429e-07 1.83927e-06 0.0857963)
(4.46654e-07 -8.91548e-06 0.0858397)
(5.76222e-07 2.28075e-06 0.0683939)
(8.97458e-07 2.39466e-06 0.0684023)
(1.01979e-06 -8.62896e-06 0.0858489)
(-1.08023e-06 4.22077e-06 0.0822128)
(1.55496e-07 2.11964e-06 0.0858055)
(-3.64895e-07 -3.28827e-06 0.0684464)
(-8.28261e-07 -5.06439e-06 0.0768903)
(-1.39018e-06 -1.19449e-05 0.091381)
(-1.1169e-07 1.14458e-06 0.0786318)
(-1.40417e-06 8.81371e-07 0.0898645)
(-1.41445e-07 -5.34282e-06 0.0786618)
(-8.74309e-07 -1.1603e-05 0.0899024)
(2.29496e-07 1.73783e-06 0.0768574)
(1.19229e-06 -4.99405e-06 0.0769094)
(9.91934e-08 1.31365e-06 0.0786499)
(-2.88636e-08 1.20109e-06 0.089882)
(2.25618e-07 -1.17322e-05 0.0913978)
(-1.13652e-07 1.68131e-06 0.0768745)
(4.6583e-07 -5.16891e-06 0.0786798)
(2.12848e-07 -1.13753e-05 0.0899205)
(-7.13733e-07 2.35603e-06 0.0684169)
(1.71404e-06 4.27574e-06 0.0822302)
(-5.97924e-08 -8.70188e-06 0.0858667)
(8.49379e-07 -3.20596e-06 0.0684644)
(3.63715e-07 2.23739e-06 0.0858227)
(7.46501e-07 -3.21595e-06 0.0684575)
(8.38533e-08 2.35668e-06 0.0858144)
(-2.01563e-07 -8.30456e-06 0.0822616)
(-7.81428e-07 2.34306e-06 0.06841)
(-3.08987e-07 -8.52157e-06 0.0858583)
(-8.05635e-09 1.72604e-06 0.0768827)
(5.86238e-07 6.74732e-07 0.0913719)
(7.53474e-07 -5.16601e-06 0.0786882)
(7.23218e-07 -1.1498e-05 0.089929)
(1.34744e-06 -4.96501e-06 0.0769175)
(3.53588e-07 1.34273e-06 0.0786583)
(5.54193e-07 1.11357e-06 0.0898905)
(-1.31757e-07 -5.04928e-06 0.0769077)
(5.84132e-07 1.26329e-06 0.0786495)
(3.64044e-07 1.31858e-06 0.0898816)
(5.47965e-07 -1.17869e-05 0.0913976)
(9.50384e-07 1.78415e-06 0.0768751)
(4.87952e-07 -5.2315e-06 0.0786792)
(8.73643e-07 -1.1189e-05 0.0899197)
(1.61715e-06 2.60078e-06 0.0684177)
(2.17519e-07 4.72841e-06 0.0822313)
(2.19424e-06 -8.11463e-06 0.0858667)
(1.3242e-06 2.65708e-06 0.0858236)
(4.05952e-07 -3.10604e-06 0.0684613)
(1.02007e-09 -3.18853e-06 0.068454)
(7.3638e-07 2.40162e-06 0.0858147)
(1.63881e-06 -7.96096e-06 0.0822623)
(1.23748e-06 2.50514e-06 0.0684102)
(1.60358e-06 -8.35718e-06 0.085858)
(1.30981e-06 1.74687e-06 0.0768837)
(9.89329e-07 6.77785e-07 0.0913718)
(8.07012e-07 -5.22345e-06 0.0786877)
(1.69675e-06 -1.10692e-05 0.0899285)
(8.8947e-07 1.2908e-06 0.078658)
(1.20197e-06 1.47426e-06 0.0898905)
(2.53014e-07 -5.09354e-06 0.0769163)
(-1.70548e-06 -6.26481e-07 0.0835976)
(2.24508e-06 -2.03809e-06 0.0683452)
(1.79655e-06 -2.6061e-06 0.068351)
(-1.64374e-06 6.62276e-07 0.0683109)
(-1.23453e-06 7.78033e-07 0.0683166)
(3.65961e-06 -5.37369e-06 0.0836282)
(4.45777e-06 -1.44764e-05 0.0916757)
(-5.90042e-06 1.42378e-06 0.0962462)
(3.5138e-06 -8.04544e-06 0.0875604)
(-2.47018e-06 -2.94328e-07 0.0815306)
(1.48467e-06 -6.46685e-06 0.0815652)
(6.57588e-06 -2.00528e-05 0.0962856)
(-2.86464e-06 3.41194e-07 0.0916412)
(9.27901e-06 -9.98828e-06 0.0916824)
(-6.8304e-06 -2.6144e-06 0.0962513)
(5.42136e-06 -8.21048e-06 0.0875629)
(-2.07463e-06 -4.79494e-07 0.0815348)
(1.4861e-05 -1.49753e-05 0.0962904)
(4.54937e-06 -3.95483e-06 0.0815696)
(-5.95664e-06 -3.01163e-06 0.091648)
(-2.42875e-06 8.89165e-07 0.0916483)
(2.07543e-06 -6.00649e-06 0.081574)
(-3.21226e-06 -7.49592e-07 0.0875325)
(7.08761e-06 -1.95146e-05 0.0962908)
(-1.92914e-06 1.31752e-07 0.0815396)
(-5.49893e-06 1.81933e-06 0.0962512)
(4.9585e-06 -1.37927e-05 0.0916829)
(-5.59102e-06 -2.63196e-06 0.0916551)
(5.03597e-06 -3.46175e-06 0.0815786)
(-1.3676e-06 -9.14327e-07 0.0875341)
(1.51635e-05 -1.47375e-05 0.0962954)
(-6.57198e-06 -2.60946e-06 0.0962563)
(-1.59632e-06 -2.56653e-08 0.0815439)
(9.70886e-06 -9.45764e-06 0.0916896)
(3.14561e-06 -6.09293e-06 0.0836202)
(-2.16965e-06 3.08589e-07 0.0683032)
(-1.52498e-06 3.51672e-07 0.0683087)
(1.70988e-06 -2.39843e-06 0.0683375)
(1.49001e-06 -3.02665e-06 0.0683431)
(-2.16923e-06 -1.30184e-06 0.0835896)
(2.84708e-06 -4.15368e-06 0.0715683)
(-2.48766e-06 -1.93334e-07 0.0715347)
(-4.00374e-07 2.82458e-06 0.071552)
(3.03016e-06 -2.95546e-06 0.0715827)
(4.22082e-06 -4.61758e-06 0.0836363)
(-1.11812e-06 1.02649e-06 0.0683186)
(-9.2882e-07 1.20871e-06 0.0683244)
(-1.16694e-06 1.21226e-07 0.0836057)
(2.73824e-06 -1.68096e-06 0.0683529)
(2.10297e-06 -2.18622e-06 0.0683588)
(-1.11764e-06 2.56228e-06 0.091663)
(8.92816e-06 -1.79077e-05 0.0963027)
(-1.69703e-06 4.14024e-07 0.0875493)
(3.29856e-06 -5.06891e-06 0.081591)
(-3.91913e-06 3.23431e-06 0.0962626)
(-6.77361e-07 1.10232e-06 0.0815569)
(6.4274e-06 -1.20113e-05 0.0916976)
(-4.43757e-06 -1.15771e-06 0.0916698)
(1.61635e-05 -1.30891e-05 0.0963065)
(-5.48844e-07 7.95828e-07 0.0875519)
(5.95154e-06 -2.33041e-06 0.081596)
(-6.5159e-07 1.06901e-06 0.0815616)
(-5.68693e-06 -1.33031e-06 0.0962671)
(1.0959e-05 -7.82417e-06 0.0917043)
(5.61698e-06 -1.29324e-05 0.0916902)
(-1.3028e-06 6.1978e-07 0.0815483)
(-4.84601e-06 2.43842e-06 0.0962567)
(4.94741e-06 -6.9316e-06 0.0875772)
(7.87319e-06 -1.87817e-05 0.0962965)
(-1.85351e-06 1.66404e-06 0.0916556)
(2.71385e-06 -5.51614e-06 0.0815826)
(1.02775e-05 -8.70456e-06 0.0916969)
(-1.10861e-06 4.97676e-07 0.0815529)
(-6.19097e-06 -2.16098e-06 0.0962615)
(6.20906e-06 -6.67518e-06 0.0875808)
(-5.07468e-06 -1.98262e-06 0.0916624)
(5.50665e-06 -2.91115e-06 0.0815875)
(1.56012e-05 -1.408e-05 0.0963008)
(-5.97272e-07 8.55168e-07 0.0836137)
(3.13488e-06 -1.36317e-06 0.0683607)
(2.39214e-06 -1.78138e-06 0.0683665)
(-6.60319e-07 1.36127e-06 0.0683264)
(-6.29446e-07 1.62785e-06 0.0683322)
(4.79144e-06 -3.912e-06 0.0836442)
(-1.909e-06 1.31755e-06 0.0715521)
(3.43586e-06 -2.69417e-06 0.071586)
(1.97166e-06 4.71756e-07 0.0768653)
(-5.13695e-06 3.19539e-07 0.0786699)
(-1.0954e-05 -2.02067e-07 0.0899114)
(1.09067e-06 -5.39268e-07 0.0913557)
(1.45422e-06 4.3964e-07 0.0786422)
(1.54913e-06 -6.36005e-07 0.0898728)
(-4.7582e-06 -6.33589e-07 0.0768999)
(-3.19308e-06 -8.99278e-07 0.0684421)
(-8.23619e-06 9.18547e-08 0.0822451)
(2.18719e-06 -7.31362e-07 0.0857965)
(-8.5293e-06 6.8433e-08 0.0858409)
(2.29958e-06 4.26401e-07 0.0683943)
(2.43863e-06 7.9071e-07 0.0684014)
(-8.35513e-06 5.88328e-07 0.0858494)
(4.35891e-06 -1.41305e-06 0.0822119)
(2.39065e-06 -1.96476e-07 0.085805)
(-3.07346e-06 -5.32115e-07 0.068449)
(-4.78905e-06 -9.65533e-07 0.0768917)
(-1.14398e-05 -1.07773e-06 0.0913807)
(1.425e-06 7.36109e-08 0.0786339)
(1.35864e-06 -1.47894e-06 0.0898645)
(-5.15731e-06 4.5347e-08 0.0786617)
(-1.10846e-05 -1.00325e-06 0.0899029)
(1.90057e-06 9.90753e-08 0.0768569)
(-5.06673e-06 1.14266e-06 0.0769082)
(1.48046e-06 4.03077e-07 0.0898826)
(1.4207e-06 7.73789e-08 0.0786509)
(-1.15263e-05 3.20095e-07 0.0913975)
(1.7613e-06 -6.78677e-08 0.0768762)
(-1.11987e-05 4.60519e-07 0.0899202)
(-5.22116e-06 3.49858e-07 0.0786783)
(2.48496e-06 -7.82351e-07 0.0684177)
(4.42773e-06 1.48426e-06 0.0822294)
(-8.58538e-06 -3.82072e-07 0.0858658)
(-3.20949e-06 5.82313e-07 0.0684611)
(2.39348e-06 2.85124e-07 0.0858228)
(-3.2795e-06 7.0284e-07 0.0684543)
(2.46732e-06 3.33794e-07 0.0858146)
(-8.16972e-06 -1.69434e-07 0.0822622)
(2.42083e-06 -6.49732e-07 0.0684109)
(-8.46667e-06 -2.39152e-07 0.0858575)
(1.75896e-06 -1.52387e-07 0.0768843)
(8.8076e-07 4.62827e-07 0.0913726)
(-1.14152e-05 4.76851e-07 0.0899286)
(-5.28499e-06 4.68566e-07 0.0786865)
(-5.0674e-06 1.08239e-06 0.0769163)
(1.31344e-06 5.76314e-07 0.0898911)
(1.35063e-06 1.65998e-07 0.0786591)
(-4.83395e-06 -3.62374e-07 0.0769081)
(1.44717e-06 6.42448e-07 0.0786504)
(1.62876e-06 8.16665e-08 0.0898815)
(-1.15023e-05 4.92311e-07 0.0913973)
(1.94538e-06 7.64035e-07 0.0768734)
(-5.1794e-06 4.76312e-07 0.0786781)
(-1.09334e-05 4.32119e-07 0.0899201)
(2.57164e-06 1.53226e-06 0.0684148)
(4.84174e-06 -3.49064e-07 0.0822285)
(-8.17211e-06 1.67208e-06 0.0858664)
(2.64321e-06 8.59697e-07 0.085822)
(-2.96154e-06 2.47086e-07 0.0684623)
(-3.01759e-06 -1.6337e-07 0.0684556)
(2.54682e-06 3.15945e-07 0.0858135)
(-7.74436e-06 1.07233e-06 0.0822617)
(2.5252e-06 1.15232e-06 0.0684081)
(-8.22181e-06 1.11021e-06 0.085858)
(1.83684e-06 1.03978e-06 0.0768816)
(9.2028e-07 7.74392e-07 0.0913725)
(-5.2616e-06 6.16418e-07 0.0786863)
(-1.10656e-05 9.85538e-07 0.0899288)
(1.36955e-06 7.83686e-07 0.0786586)
(1.57954e-06 6.60575e-07 0.0898902)
(-4.9321e-06 -6.1087e-08 0.0769163)
(-1.38991e-06 -2.00026e-06 0.0768669)
(1.1536e-05 -3.71584e-06 0.0899126)
(5.42817e-06 -4.2778e-07 0.0786705)
(-1.39946e-08 -3.0249e-06 0.0913569)
(-1.08473e-06 -3.99244e-06 0.0898748)
(-1.05639e-06 -9.48301e-07 0.0786404)
(5.44182e-06 -4.11645e-07 0.0768999)
(3.16496e-06 -1.09272e-06 0.0684385)
(7.98438e-06 -3.32038e-06 0.0822449)
(-2.74997e-06 -3.59434e-06 0.0857972)
(8.19323e-06 -3.91695e-06 0.0858408)
(-2.62989e-06 -2.75551e-06 0.0683937)
(-2.51029e-06 -2.23889e-06 0.0684025)
(8.30509e-06 -3.22934e-06 0.0858498)
(-4.35823e-06 -1.26108e-06 0.0822122)
(-2.63544e-06 -3.02533e-06 0.0858062)
(3.28099e-06 -5.41873e-07 0.068447)
(5.40982e-06 -1.05553e-06 0.076891)
(1.24605e-05 -3.2485e-06 0.0913833)
(-1.17468e-06 -4.45401e-06 0.0898671)
(-1.02618e-06 -1.44523e-06 0.0786312)
(1.14742e-05 -4.35888e-06 0.0899048)
(5.4831e-06 -9.66177e-07 0.0786614)
(-1.45281e-06 -2.58599e-06 0.076858)
(-1.68471e-06 5.27105e-07 0.0768663)
(5.36771e-06 -4.95835e-07 0.0786706)
(1.22368e-05 -2.19906e-07 0.0899124)
(2.82114e-07 -1.93929e-06 0.0913571)
(-1.11207e-06 -4.90752e-07 0.0786406)
(-2.86758e-07 -6.54014e-07 0.0898747)
(5.10332e-06 -4.58146e-07 0.0768991)
(3.2194e-06 -3.33133e-07 0.0684376)
(8.2274e-06 1.11027e-06 0.0822424)
(-1.67022e-06 -3.94452e-08 0.0857968)
(9.19044e-06 7.78746e-07 0.08584)
(-2.47791e-06 8.95586e-07 0.0683935)
(-2.54419e-06 1.28364e-06 0.0684014)
(9.02726e-06 1.26914e-06 0.0858488)
(-4.36223e-06 -4.5723e-07 0.0822115)
(-1.79052e-06 4.45008e-07 0.0858055)
(3.1755e-06 4.21914e-08 0.0684458)
(5.16919e-06 -1.00262e-06 0.0768904)
(1.27689e-05 -2.1932e-06 0.0913833)
(-1.06418e-06 -9.08164e-07 0.0786315)
(-2.21987e-07 -1.24062e-06 0.0898668)
(5.43204e-06 -9.57711e-07 0.0786616)
(1.23793e-05 -8.73575e-07 0.0899045)
(-1.61337e-06 1.49341e-09 0.0768575)
(5.44078e-06 2.53707e-07 0.0769086)
(-1.03349e-06 -3.18556e-06 0.0898827)
(-1.12042e-06 -3.91473e-07 0.0786495)
(1.23021e-05 -1.85046e-06 0.0913981)
(-1.37744e-06 -1.3287e-06 0.0768758)
(1.15701e-05 -2.77513e-06 0.0899206)
(5.35812e-06 1.22525e-07 0.0786796)
(-2.28002e-06 -1.13961e-06 0.068419)
(-3.9546e-06 2.90411e-07 0.0822298)
(8.53855e-06 -1.53068e-06 0.0858673)
(-2.39206e-06 -1.38541e-06 0.0858239)
(3.50663e-06 5.22651e-07 0.0684632)
(3.39539e-06 1.74786e-08 0.0684552)
(-2.51313e-06 -2.24862e-06 0.0858152)
(8.41645e-06 -1.82384e-06 0.0822626)
(-2.39296e-06 -1.67608e-06 0.0684109)
(8.42788e-06 -2.38859e-06 0.0858587)
(-1.38825e-06 -6.92595e-07 0.0768845)
(-2.18525e-07 -1.39209e-06 0.0913719)
(1.15826e-05 -1.68721e-06 0.0899285)
(5.2998e-06 5.82826e-07 0.0786885)
(-1.00692e-06 -2.15317e-06 0.0898907)
(-1.18469e-06 1.26992e-07 0.0786586)