/*--------------------------------*- C++ -*----------------------------------*\
| =========                 |                                                 |
| \\      /  F ield         | OpenFOAM: The Open Source CFD Toolbox           |
|  \\    /   O peration     | Version:  v1906                                 |
|   \\  /    A nd           | Web:      www.OpenFOAM.com                      |
|    \\/     M anipulation  |                                                 |
\*---------------------------------------------------------------------------*/
FoamFile
{
    version     2.0;
    format      ascii;
    class       volScalarField;
    location    "625";
    object      k;
}
// * * * * * * * * * * * * * * * * * * * * * * * * * * * * * * * * * * * * * //

dimensions      [0 2 -2 0 0 0 0];


internalField   nonuniform List<scalar> 
42840
(
2.58778e-05
4.3719e-05
4.15538e-05
4.40054e-05
2.16125e-05
3.60091e-05
3.61746e-05
4.07142e-05
1.93099e-05
3.56883e-05
3.59915e-05
4.35629e-05
2.27741e-05
4.03648e-05
4.01563e-05
4.50631e-05
2.6965e-05
3.934e-05
4.25025e-05
4.32161e-05
2.64141e-05
3.91945e-05
4.2892e-05
4.7268e-05
2.50683e-05
4.45574e-05
3.97717e-05
4.68545e-05
2.5296e-05
4.40581e-05
4.0549e-05
4.47657e-05
3.05074e-05
4.59701e-05
4.5725e-05
5.15676e-05
3.38075e-05
4.69649e-05
4.61347e-05
4.97623e-05
3.19809e-05
4.23542e-05
4.69352e-05
4.53799e-05
2.7036e-05
4.22961e-05
4.67662e-05
4.80317e-05
2.67954e-05
4.89109e-05
4.57823e-05
5.15089e-05
3.37068e-05
5.09944e-05
4.59643e-05
5.22854e-05
3.6787e-05
4.82535e-05
4.71708e-05
5.07135e-05
3.57178e-05
4.58789e-05
4.83537e-05
5.03261e-05
3.27603e-05
4.63726e-05
4.88801e-05
5.05867e-05
3.24108e-05
4.88993e-05
4.88835e-05
5.0537e-05
3.46329e-05
4.98106e-05
4.87599e-05
5.16874e-05
3.63741e-05
4.99859e-05
4.92062e-05
5.25191e-05
3.72333e-05
5.02482e-05
5.02867e-05
5.26494e-05
3.75085e-05
5.04702e-05
5.08393e-05
5.28968e-05
3.7475e-05
5.07787e-05
5.09022e-05
5.3228e-05
3.79183e-05
5.10474e-05
5.09175e-05
5.3316e-05
3.8692e-05
5.11722e-05
5.12902e-05
5.32967e-05
3.9115e-05
5.15336e-05
5.15434e-05
5.35012e-05
4.71682e-05
4.25625e-05
4.43771e-05
5.00122e-05
4.24576e-05
4.25619e-05
4.411e-05
4.10799e-05
4.67811e-05
4.22957e-05
4.08528e-05
4.45738e-05
4.644e-05
4.03312e-05
4.20681e-05
4.40024e-05
3.70266e-05
3.76134e-05
4.90711e-05
4.03006e-05
4.19302e-05
4.18863e-05
3.70394e-05
3.7027e-05
4.0168e-05
3.74885e-05
3.69294e-05
4.60068e-05
4.05551e-05
3.97087e-05
3.7001e-05
3.67238e-05
4.07451e-05
3.9947e-05
3.93737e-05
3.57895e-05
3.60262e-05
3.46259e-05
3.50654e-05
3.97109e-05
4.02511e-05
3.5877e-05
3.61045e-05
3.47879e-05
3.54786e-05
3.64699e-05
3.52352e-05
3.66764e-05
4.03164e-05
4.07677e-05
3.63874e-05
3.57119e-05
3.68831e-05
4.26864e-05
3.99023e-05
4.49038e-05
3.47553e-05
3.5403e-05
3.93309e-05
3.96262e-05
4.12119e-05
4.55388e-05
3.49092e-05
3.56578e-05
3.91816e-05
3.89283e-05
3.76672e-05
3.99092e-05
4.00205e-05
4.13453e-05
4.42821e-05
3.80892e-05
3.93104e-05
4.00058e-05
4.51583e-05
4.57307e-05
4.79342e-05
4.09573e-05
4.03092e-05
4.30373e-05
4.03634e-05
4.56974e-05
4.37957e-05
4.06932e-05
3.99844e-05
4.30469e-05
4.2474e-05
4.00696e-05
4.00428e-05
3.96821e-05
4.47281e-05
4.67623e-05
4.00067e-05
4.19508e-05
3.968e-05
4.32025e-05
4.79726e-05
4.5219e-05
4.30399e-05
3.98475e-05
4.15246e-05
3.90912e-05
4.33795e-05
4.19833e-05
4.31299e-05
4.30591e-05
4.21743e-05
4.33527e-05
3.96703e-05
3.8836e-05
4.11606e-05
4.72641e-05
4.79534e-05
3.97101e-05
4.3019e-05
4.19933e-05
4.65883e-05
4.48953e-05
4.37021e-05
4.08975e-05
3.92833e-05
4.03772e-05
4.34493e-05
4.25229e-05
4.85371e-05
4.14202e-05
4.3056e-05
4.01874e-05
4.00453e-05
4.23164e-05
4.39754e-05
4.3266e-05
4.76383e-05
4.29817e-05
4.2869e-05
4.03828e-05
4.31285e-05
4.72493e-05
4.37982e-05
4.50972e-05
4.04008e-05
4.42441e-05
4.13213e-05
4.43194e-05
4.88767e-05
4.77945e-05
4.00546e-05
3.95435e-05
4.03975e-05
3.97319e-05
4.31091e-05
4.42388e-05
4.19855e-05
4.26462e-05
4.39739e-05
4.2653e-05
3.97216e-05
4.15113e-05
4.46605e-05
4.56144e-05
4.9749e-05
4.19974e-05
4.41928e-05
4.52705e-05
4.47224e-05
4.76864e-05
4.92787e-05
4.14825e-05
4.08968e-05
4.56343e-05
4.50564e-05
4.2024e-05
4.47568e-05
4.53277e-05
4.52144e-05
4.9559e-05
4.16156e-05
4.5091e-05
4.57146e-05
5.07893e-05
5.05985e-05
5.38872e-05
4.66214e-05
4.57932e-05
4.94576e-05
4.71845e-05
5.01457e-05
5.15926e-05
4.68791e-05
4.55873e-05
4.92405e-05
4.60711e-05
4.66634e-05
4.71702e-05
4.72675e-05
4.97067e-05
4.89685e-05
4.68896e-05
4.61021e-05
4.71845e-05
5.05667e-05
5.39568e-05
4.91994e-05
4.95381e-05
4.70625e-05
4.70548e-05
4.36971e-05
5.10961e-05
4.51498e-05
4.93113e-05
4.62663e-05
4.71627e-05
4.72012e-05
4.67382e-05
4.33045e-05
4.3301e-05
4.89805e-05
5.03044e-05
4.64641e-05
4.6734e-05
4.35172e-05
4.54363e-05
4.82396e-05
4.38884e-05
4.50541e-05
4.2593e-05
4.14358e-05
4.17572e-05
4.46332e-05
4.46465e-05
4.53936e-05
4.7269e-05
4.18847e-05
4.6969e-05
4.28859e-05
4.183e-05
4.30446e-05
5.05914e-05
5.061e-05
4.32735e-05
4.69501e-05
4.37308e-05
4.72706e-05
4.38048e-05
4.62706e-05
4.11626e-05
4.20492e-05
4.21463e-05
4.69962e-05
4.55717e-05
5.161e-05
4.15191e-05
4.64227e-05
4.20307e-05
4.53984e-05
4.39221e-05
4.75274e-05
4.73787e-05
5.04302e-05
4.89596e-05
4.4757e-05
4.58509e-05
4.72637e-05
5.10642e-05
4.73878e-05
5.18307e-05
4.41816e-05
4.84965e-05
4.86917e-05
5.08599e-05
5.24387e-05
5.47227e-05
4.3586e-05
4.53518e-05
4.81048e-05
4.55377e-05
4.81762e-05
5.09466e-05
4.92384e-05
4.89566e-05
4.88672e-05
4.78404e-05
4.58263e-05
4.86785e-05
5.23128e-05
5.24255e-05
5.44447e-05
4.96657e-05
5.09637e-05
5.11627e-05
4.97638e-05
5.47556e-05
5.16221e-05
4.91468e-05
4.59271e-05
5.09235e-05
4.73196e-05
4.92495e-05
4.9356e-05
4.84485e-05
4.89809e-05
4.98184e-05
4.8696e-05
4.6861e-05
4.81802e-05
5.08042e-05
5.45099e-05
5.19339e-05
5.11881e-05
4.86655e-05
4.95474e-05
4.63439e-05
5.10996e-05
4.83796e-05
5.09959e-05
4.7708e-05
4.98558e-05
4.8444e-05
4.805e-05
4.61583e-05
4.74469e-05
5.00356e-05
5.09633e-05
4.79379e-05
4.80974e-05
4.76253e-05
5.02861e-05
5.14693e-05
4.92636e-05
4.84951e-05
4.59707e-05
4.66886e-05
4.58179e-05
4.82773e-05
4.87306e-05
4.88332e-05
4.85519e-05
4.69722e-05
4.86515e-05
4.73904e-05
4.58892e-05
4.74312e-05
5.11358e-05
5.15391e-05
4.76194e-05
4.88187e-05
4.78735e-05
5.05447e-05
4.92201e-05
4.96961e-05
4.65189e-05
4.60899e-05
4.66891e-05
4.8292e-05
4.91801e-05
5.13926e-05
4.67664e-05
4.86575e-05
4.68085e-05
4.86913e-05
4.75415e-05
4.84589e-05
4.78014e-05
5.16034e-05
5.16278e-05
4.79276e-05
4.88997e-05
4.79237e-05
5.04888e-05
5.00562e-05
5.14338e-05
4.72696e-05
4.8826e-05
4.88738e-05
4.97227e-05
5.17067e-05
5.23586e-05
4.71947e-05
4.87283e-05
4.86931e-05
4.87521e-05
4.79823e-05
4.96748e-05
4.88841e-05
5.16362e-05
5.13547e-05
4.79459e-05
4.87721e-05
4.86789e-05
5.14389e-05
5.16295e-05
5.23775e-05
4.91868e-05
4.98541e-05
4.98865e-05
4.99839e-05
5.24255e-05
5.24657e-05
4.90022e-05
4.87475e-05
4.97643e-05
4.89458e-05
4.92107e-05
4.9973e-05
4.99245e-05
5.1354e-05
5.14775e-05
4.90185e-05
4.89214e-05
4.98195e-05
5.24268e-05
5.25562e-05
5.30493e-05
5.00927e-05
4.99952e-05
5.05473e-05
5.01639e-05
5.24797e-05
5.25755e-05
5.00058e-05
4.92218e-05
5.05437e-05
5.01036e-05
5.00473e-05
5.0145e-05
5.0198e-05
5.16636e-05
5.25362e-05
4.9973e-05
5.00538e-05
5.01866e-05
5.26198e-05
5.30974e-05
5.2921e-05
5.06169e-05
5.02901e-05
5.06325e-05
5.04754e-05
5.26542e-05
5.27762e-05
5.06304e-05
5.03487e-05
5.06678e-05
5.07938e-05
5.02321e-05
5.04361e-05
5.04499e-05
5.27056e-05
5.30989e-05
5.02354e-05
5.07547e-05
5.04966e-05
5.28064e-05
5.29096e-05
5.26465e-05
5.05908e-05
5.04842e-05
5.04434e-05
5.05877e-05
5.28014e-05
5.29249e-05
5.06394e-05
5.08512e-05
5.04834e-05
5.08623e-05
5.05576e-05
5.06759e-05
5.08689e-05
5.31509e-05
5.31412e-05
5.06136e-05
5.09073e-05
5.09117e-05
5.31724e-05
5.26622e-05
5.30296e-05
5.0442e-05
5.06934e-05
5.07635e-05
5.09698e-05
5.30093e-05
5.32138e-05
5.04771e-05
5.08396e-05
5.07303e-05
5.08298e-05
5.09491e-05
5.1013e-05
5.10949e-05
5.31481e-05
5.30758e-05
5.09744e-05
5.08914e-05
5.10703e-05
5.32962e-05
5.31645e-05
5.3545e-05
5.09456e-05
5.10216e-05
5.13458e-05
5.11491e-05
5.32483e-05
5.3289e-05
5.09167e-05
5.08712e-05
5.13451e-05
5.12171e-05
5.11138e-05
5.11199e-05
5.11228e-05
5.31215e-05
5.33986e-05
5.10842e-05
5.11898e-05
5.11196e-05
5.32789e-05
5.36149e-05
5.37089e-05
5.14394e-05
5.1218e-05
5.1594e-05
5.14902e-05
5.33355e-05
5.35923e-05
5.1449e-05
5.13307e-05
5.16142e-05
5.15612e-05
5.11309e-05
5.14362e-05
5.12976e-05
5.34794e-05
5.36383e-05
5.1143e-05
5.15107e-05
5.132e-05
5.342e-05
5.37262e-05
5.16062e-05
5.15747e-05
5.3671e-05
5.16196e-05
5.15845e-05
5.1406e-05
5.36675e-05
5.14176e-05
6.85141e-05
7.18606e-05
7.01668e-05
6.80942e-05
7.18274e-05
2.59419e-05
2.74749e-05
2.60287e-05
2.49396e-05
5.7553e-05
4.38357e-05
6.6005e-05
3.42196e-05
6.9648e-05
5.696e-05
4.24393e-05
3.36807e-05
6.427e-05
4.69728e-05
6.89676e-05
6.84164e-05
6.42875e-05
7.09153e-05
6.61185e-05
7.06499e-05
6.9044e-05
6.88047e-05
6.44104e-05
7.10024e-05
6.59631e-05
7.07395e-05
2.74517e-05
2.59317e-05
2.47205e-05
2.28739e-05
2.42705e-05
2.28552e-05
2.20592e-05
5.41271e-05
6.25095e-05
3.49417e-05
4.22804e-05
5.60682e-05
5.97969e-05
3.45959e-05
6.90255e-05
6.89471e-05
5.36622e-05
3.38018e-05
6.12004e-05
3.98654e-05
5.50845e-05
3.32067e-05
5.95711e-05
6.55819e-05
6.5502e-05
4.20444e-05
6.45252e-05
6.46565e-05
6.29263e-05
7.0761e-05
6.27576e-05
7.10548e-05
6.90521e-05
6.93944e-05
6.30702e-05
7.07695e-05
6.29365e-05
7.10493e-05
2.25121e-05
2.17381e-05
2.13953e-05
1.94233e-05
1.98546e-05
2.00561e-05
2.08992e-05
5.17041e-05
5.77036e-05
3.01527e-05
3.53084e-05
5.18393e-05
5.81865e-05
2.91428e-05
6.92093e-05
6.94893e-05
5.2141e-05
2.97988e-05
5.844e-05
3.57715e-05
5.21278e-05
2.91919e-05
5.89027e-05
6.4824e-05
6.51003e-05
4.08537e-05
6.63699e-05
6.66135e-05
6.52954e-05
7.15461e-05
6.43601e-05
7.17902e-05
6.97931e-05
6.99057e-05
6.5175e-05
7.15358e-05
6.4471e-05
7.17739e-05
1.97914e-05
1.99903e-05
2.10393e-05
2.076e-05
2.13153e-05
2.11518e-05
2.30439e-05
5.5194e-05
6.08604e-05
2.86214e-05
3.71974e-05
5.3807e-05
6.21686e-05
2.89461e-05
6.97083e-05
6.97386e-05
5.49343e-05
2.89475e-05
6.04144e-05
3.69721e-05
5.40276e-05
2.92822e-05
6.09351e-05
6.92096e-05
6.91885e-05
4.48779e-05
6.94928e-05
6.93541e-05
6.66114e-05
7.20293e-05
6.64832e-05
7.20205e-05
6.972e-05
6.94713e-05
6.63512e-05
7.19911e-05
6.58841e-05
7.20674e-05
2.24591e-05
2.25721e-05
2.35068e-05
2.65922e-05
2.40115e-05
2.58705e-05
2.40156e-05
5.53257e-05
6.24047e-05
3.26084e-05
4.04306e-05
5.58397e-05
6.14241e-05
3.3198e-05
6.98059e-05
6.99672e-05
5.50065e-05
3.26347e-05
6.10672e-05
4.07975e-05
5.52125e-05
3.32399e-05
6.12348e-05
6.69001e-05
6.66555e-05
4.40168e-05
6.52977e-05
6.53541e-05
6.51821e-05
7.17045e-05
6.572e-05
7.15831e-05
6.91812e-05
6.93988e-05
6.67146e-05
7.18706e-05
6.68233e-05
7.16763e-05
2.40065e-05
2.65696e-05
2.40784e-05
2.68732e-05
2.3868e-05
2.71765e-05
2.50701e-05
5.39617e-05
5.90585e-05
3.32241e-05
3.88996e-05
5.4053e-05
5.86812e-05
3.30255e-05
7.01672e-05
7.00207e-05
5.63389e-05
3.4354e-05
6.29658e-05
4.28807e-05
5.52624e-05
3.48388e-05
6.3889e-05
6.55529e-05
6.63784e-05
4.37243e-05
6.7538e-05
6.82969e-05
6.61923e-05
7.1628e-05
6.53812e-05
7.17576e-05
7.00965e-05
7.03637e-05
6.52468e-05
7.15098e-05
6.57915e-05
7.1537e-05
2.39251e-05
2.71255e-05
2.59226e-05
2.52517e-05
2.6733e-05
2.54971e-05
2.73022e-05
5.72141e-05
6.11103e-05
3.31929e-05
4.05724e-05
5.58961e-05
6.286e-05
3.39057e-05
6.94635e-05
6.93022e-05
5.66702e-05
3.57201e-05
6.29437e-05
4.23879e-05
5.70739e-05
3.57117e-05
6.1091e-05
7.01356e-05
6.98304e-05
4.78832e-05
7.0114e-05
6.90228e-05
6.5906e-05
7.18491e-05
6.64615e-05
7.18376e-05
7.02566e-05
7.00796e-05
6.48738e-05
7.17371e-05
6.47236e-05
7.19503e-05
2.80001e-05
2.49481e-05
2.7299e-05
2.50166e-05
2.93086e-05
2.45348e-05
2.69908e-05
5.61936e-05
6.34236e-05
3.73663e-05
4.46411e-05
5.74305e-05
6.22015e-05
3.75249e-05
6.95702e-05
6.99915e-05
5.40077e-05
3.47719e-05
5.85622e-05
3.95382e-05
5.46924e-05
3.43579e-05
5.85361e-05
6.65457e-05
6.57027e-05
4.52534e-05
6.48998e-05
6.49121e-05
6.57919e-05
7.21684e-05
6.51556e-05
7.25807e-05
7.01344e-05
7.04549e-05
6.69532e-05
7.23772e-05
6.60563e-05
7.26458e-05
2.93369e-05
2.4665e-05
2.70011e-05
2.91885e-05
2.96199e-05
2.80112e-05
2.862e-05
5.58791e-05
6.12966e-05
3.71475e-05
4.40625e-05
5.51031e-05
6.25258e-05
3.71291e-05
7.05059e-05
7.05508e-05
5.72194e-05
3.42463e-05
6.20346e-05
4.23844e-05
5.51552e-05
3.46887e-05
6.39233e-05
6.64384e-05
6.76843e-05
4.66426e-05
6.98319e-05
7.06913e-05
6.95822e-05
7.31354e-05
6.84336e-05
7.31891e-05
7.07412e-05
7.04716e-05
6.84523e-05
7.29557e-05
6.80239e-05
7.29839e-05
3.00987e-05
2.90929e-05
2.98804e-05
3.34959e-05
3.10573e-05
3.08925e-05
3.11897e-05
6.05397e-05
6.61338e-05
3.85239e-05
4.68391e-05
5.96427e-05
6.6581e-05
3.96339e-05
7.02131e-05
7.01113e-05
5.93774e-05
3.90067e-05
6.43934e-05
4.5995e-05
5.93625e-05
3.97988e-05
6.31806e-05
7.3321e-05
7.29403e-05
5.21711e-05
7.22986e-05
7.13036e-05
6.72934e-05
7.24354e-05
6.89268e-05
7.19027e-05
6.96217e-05
6.93773e-05
6.80109e-05
7.25197e-05
6.85737e-05
7.21014e-05
3.10486e-05
3.13029e-05
3.11445e-05
3.32954e-05
2.95007e-05
3.23515e-05
2.95147e-05
5.67638e-05
6.33167e-05
4.04234e-05
4.61707e-05
5.87265e-05
6.10447e-05
4.02235e-05
7.02192e-05
7.03707e-05
5.72886e-05
4.03042e-05
6.22449e-05
4.62067e-05
5.77654e-05
4.02606e-05
6.26266e-05
6.68833e-05
6.71555e-05
4.71591e-05
6.52164e-05
6.60142e-05
6.45737e-05
7.14759e-05
6.50139e-05
7.15484e-05
6.95642e-05
6.99721e-05
6.58003e-05
7.15676e-05
6.65567e-05
7.14811e-05
2.85965e-05
3.2502e-05
2.89772e-05
2.78468e-05
2.73373e-05
3.24591e-05
2.85633e-05
5.51523e-05
5.923e-05
3.75537e-05
4.18712e-05
5.51272e-05
5.94347e-05
3.69808e-05
7.0427e-05
7.03808e-05
5.7683e-05
3.99604e-05
6.38872e-05
4.69979e-05
5.7408e-05
3.99261e-05
6.41382e-05
6.57609e-05
6.63056e-05
4.55895e-05
6.67863e-05
6.6943e-05
6.61963e-05
7.20095e-05
6.52755e-05
7.23472e-05
7.05644e-05
7.08595e-05
6.57496e-05
7.17836e-05
6.53934e-05
7.21798e-05
2.73564e-05
3.2248e-05
2.86875e-05
2.65057e-05
3.04557e-05
3.08824e-05
3.14441e-05
5.77385e-05
6.15627e-05
3.6821e-05
4.38807e-05
5.65657e-05
6.31132e-05
3.73416e-05
7.03033e-05
7.03058e-05
5.78294e-05
3.98854e-05
6.37266e-05
4.63586e-05
5.77563e-05
3.99049e-05
6.34469e-05
6.83079e-05
6.80112e-05
4.94241e-05
6.94147e-05
6.89327e-05
6.83138e-05
7.28008e-05
6.76312e-05
7.30107e-05
7.11022e-05
7.10808e-05
6.74359e-05
7.27613e-05
6.67709e-05
7.29912e-05
3.22833e-05
3.06287e-05
3.24094e-05
3.20818e-05
3.57441e-05
3.04445e-05
3.41088e-05
6.05066e-05
6.55877e-05
4.19848e-05
4.99652e-05
5.96221e-05
6.66361e-05
4.30679e-05
7.03138e-05
7.03182e-05
5.86834e-05
4.00742e-05
6.31653e-05
4.57741e-05
5.82874e-05
4.02148e-05
6.30877e-05
7.10583e-05
7.05472e-05
5.20954e-05
7.12213e-05
7.088e-05
6.9177e-05
7.32534e-05
6.90112e-05
7.32869e-05
7.06777e-05
7.03982e-05
6.8628e-05
7.32052e-05
6.82297e-05
7.32405e-05
3.6128e-05
3.04764e-05
3.42992e-05
3.65254e-05
3.59847e-05
3.14829e-05
3.42794e-05
6.02962e-05
6.66536e-05
4.43819e-05
5.09106e-05
6.08785e-05
6.54788e-05
4.43827e-05
7.03109e-05
7.03237e-05
5.89731e-05
4.09717e-05
6.29503e-05
4.62573e-05
5.8988e-05
4.12541e-05
6.29213e-05
6.9873e-05
7.01124e-05
5.16916e-05
6.90633e-05
6.94313e-05
6.79751e-05
7.29552e-05
6.86191e-05
7.2682e-05
7.00262e-05
6.99795e-05
6.83496e-05
7.29626e-05
6.87515e-05
7.27054e-05
3.52861e-05
3.20636e-05
3.40446e-05
3.65161e-05
3.26393e-05
3.36374e-05
3.33381e-05
5.84208e-05
6.34963e-05
4.2981e-05
4.73437e-05
5.89517e-05
6.26286e-05
4.2231e-05
7.03804e-05
7.04472e-05
5.87295e-05
4.18652e-05
6.3093e-05
4.74892e-05
5.87689e-05
4.20163e-05
6.33754e-05
6.85596e-05
6.88509e-05
5.03595e-05
6.86863e-05
6.88921e-05
6.67111e-05
7.23838e-05
6.6989e-05
7.23454e-05
7.01429e-05
7.03575e-05
6.72362e-05
7.24053e-05
6.75478e-05
7.23521e-05
3.20524e-05
3.40252e-05
3.32148e-05
3.32284e-05
3.1428e-05
3.47246e-05
3.31052e-05
5.7946e-05
6.19491e-05
4.09712e-05
4.57765e-05
5.79544e-05
6.20566e-05
4.08652e-05
7.0548e-05
7.06172e-05
5.90409e-05
4.2554e-05
6.37712e-05
4.85595e-05
5.88745e-05
4.27632e-05
6.39615e-05
6.90491e-05
6.91926e-05
5.03945e-05
6.91193e-05
6.91996e-05
6.71701e-05
7.24606e-05
6.67899e-05
7.26138e-05
7.06159e-05
7.07378e-05
6.72365e-05
7.24464e-05
6.70879e-05
7.25966e-05
3.14599e-05
3.48199e-05
3.3118e-05
3.23633e-05
3.32113e-05
3.48934e-05
3.34575e-05
5.87575e-05
6.29255e-05
4.10903e-05
4.71903e-05
5.83728e-05
6.35001e-05
4.16904e-05
7.0674e-05
7.06891e-05
5.91574e-05
4.32282e-05
6.41285e-05
4.89023e-05
5.91489e-05
4.32949e-05
6.41679e-05
6.88695e-05
6.87385e-05
5.05329e-05
6.86564e-05
6.84755e-05
6.79364e-05
7.28086e-05
6.77084e-05
7.29028e-05
7.08107e-05
7.08275e-05
6.77646e-05
7.2806e-05
6.75919e-05
7.29023e-05
3.40128e-05
3.48934e-05
3.3651e-05
3.39858e-05
3.5646e-05
3.48761e-05
3.45938e-05
5.95035e-05
6.41672e-05
4.32885e-05
4.92339e-05
5.92194e-05
6.43919e-05
4.36396e-05
7.06732e-05
7.06644e-05
5.91752e-05
4.33172e-05
6.41116e-05
4.8845e-05
5.91472e-05
4.33135e-05
6.40059e-05
6.8721e-05
6.8577e-05
5.07692e-05
6.90207e-05
6.89515e-05
6.80792e-05
7.30011e-05
6.80539e-05
7.30793e-05
7.08326e-05
7.08456e-05
6.78814e-05
7.29913e-05
6.78317e-05
7.30669e-05
3.59769e-05
3.48757e-05
3.49887e-05
3.60379e-05
3.652e-05
3.50295e-05
3.60855e-05
5.99267e-05
6.44917e-05
4.43903e-05
4.98996e-05
5.98085e-05
6.4472e-05
4.45542e-05
7.06848e-05
7.07454e-05
5.95432e-05
4.34043e-05
6.38078e-05
4.87624e-05
5.9354e-05
4.35683e-05
6.37989e-05
6.94763e-05
6.9479e-05
5.20505e-05
6.96611e-05
6.96768e-05
6.83781e-05
7.31781e-05
6.82249e-05
7.32123e-05
7.08773e-05
7.09031e-05
6.83574e-05
7.31717e-05
6.8152e-05
7.32111e-05
3.65767e-05
3.52906e-05
3.63464e-05
3.70835e-05
3.6754e-05
3.63096e-05
3.67972e-05
6.00404e-05
6.44079e-05
4.48193e-05
5.00052e-05
5.99918e-05
6.44261e-05
4.48805e-05
7.0847e-05
7.09082e-05
5.99406e-05
4.42732e-05
6.40078e-05
4.95019e-05
5.97904e-05
4.45224e-05
6.4237e-05
6.97668e-05
6.9787e-05
5.25719e-05
6.97468e-05
6.97711e-05
6.84646e-05
7.32017e-05
6.84732e-05
7.31752e-05
7.09184e-05
7.09276e-05
6.84966e-05
7.3208e-05
6.84904e-05
7.31851e-05
3.68702e-05
3.66565e-05
3.6892e-05
3.74955e-05
3.72058e-05
3.74889e-05
3.72221e-05
6.01985e-05
6.45255e-05
4.51577e-05
5.03354e-05
6.01411e-05
6.45305e-05
4.52614e-05
7.09564e-05
7.09803e-05
6.02659e-05
4.51914e-05
6.45355e-05
5.0481e-05
6.01446e-05
4.53759e-05
6.46596e-05
6.9657e-05
6.96945e-05
5.26682e-05
6.9657e-05
6.9703e-05
6.82289e-05
7.31407e-05
6.82987e-05
7.31519e-05
7.09514e-05
7.09917e-05
6.83209e-05
7.31527e-05
6.83932e-05
7.31612e-05
3.72832e-05
3.76688e-05
3.73598e-05
3.74786e-05
3.75295e-05
3.79231e-05
3.77923e-05
6.02799e-05
6.45019e-05
4.55084e-05
5.05159e-05
6.02387e-05
6.45302e-05
4.55872e-05
7.09965e-05
7.10068e-05
6.04171e-05
4.57941e-05
6.47322e-05
5.08887e-05
6.03766e-05
4.58865e-05
6.47333e-05
6.97876e-05
6.98175e-05
5.3015e-05
6.98647e-05
6.98734e-05
6.83903e-05
7.32183e-05
6.82784e-05
7.32731e-05
7.10346e-05
7.10532e-05
6.83372e-05
7.32206e-05
6.8286e-05
7.32748e-05
3.76457e-05
3.79413e-05
3.79182e-05
3.76842e-05
3.80165e-05
3.80026e-05
3.81961e-05
6.04603e-05
6.46605e-05
4.58954e-05
5.08757e-05
6.03916e-05
6.46945e-05
4.60042e-05
7.10143e-05
7.1034e-05
6.04198e-05
4.60326e-05
6.46571e-05
5.08907e-05
6.04224e-05
4.60534e-05
6.46093e-05
6.99256e-05
6.99106e-05
5.32603e-05
6.9931e-05
6.99139e-05
6.84896e-05
7.33341e-05
6.84598e-05
7.33717e-05
7.10661e-05
7.10871e-05
6.85072e-05
7.33424e-05
6.84242e-05
7.33816e-05
3.81181e-05
3.8067e-05
3.82582e-05
3.85249e-05
3.83767e-05
3.83951e-05
3.83951e-05
6.04721e-05
6.4665e-05
4.62396e-05
5.10681e-05
6.04752e-05
6.46364e-05
4.62831e-05
7.10764e-05
7.11117e-05
6.04516e-05
4.61464e-05
6.46001e-05
5.09944e-05
6.04178e-05
4.62051e-05
6.46751e-05
6.98884e-05
6.98912e-05
5.32961e-05
6.98393e-05
6.98635e-05
6.85963e-05
7.34065e-05
6.85519e-05
7.34213e-05
7.11296e-05
7.11661e-05
6.86312e-05
7.34135e-05
6.86055e-05
7.34277e-05
3.84748e-05
3.85346e-05
3.844e-05
3.90486e-05
3.88449e-05
3.89313e-05
3.8689e-05
6.05162e-05
6.46462e-05
4.64036e-05
5.12483e-05
6.04711e-05
6.47246e-05
4.6471e-05
7.11429e-05
7.11617e-05
6.05975e-05
4.64547e-05
6.47886e-05
5.13815e-05
6.05405e-05
4.65517e-05
6.48306e-05
6.97584e-05
6.97933e-05
5.33093e-05
6.97532e-05
6.97805e-05
6.86192e-05
7.34363e-05
6.86155e-05
7.34507e-05
7.12045e-05
7.12308e-05
6.85977e-05
7.34406e-05
6.86182e-05
7.34519e-05
3.89771e-05
3.90245e-05
3.88189e-05
6.07459e-05
6.48558e-05
4.67662e-05
5.16231e-05
6.06438e-05
6.49294e-05
4.68752e-05
7.11791e-05
7.12034e-05
6.06898e-05
4.68035e-05
6.48227e-05
5.15642e-05
6.06513e-05
4.68649e-05
6.48141e-05
6.98872e-05
6.9881e-05
5.363e-05
7.00005e-05
6.99925e-05
6.96603e-05
6.96393e-05
4.84233e-05
7.11314e-05
7.07026e-05
6.90704e-05
6.94676e-05
6.91301e-05
6.94696e-05
4.84574e-05
6.7632e-05
6.76439e-05
7.02789e-05
6.99456e-05
6.85142e-05
7.22509e-05
5.82211e-05
4.25087e-05
6.51774e-05
3.40758e-05
5.83229e-05
4.40388e-05
6.6487e-05
3.45731e-05
6.84311e-05
7.10724e-05
7.16404e-05
6.67978e-05
6.84536e-05
7.13194e-05
7.20182e-05
6.6921e-05
5.8234e-05
4.2644e-05
6.23625e-05
3.47891e-05
6.46918e-05
3.46512e-05
5.71911e-05
5.83477e-05
4.44042e-05
6.37736e-05
3.55297e-05
6.63864e-05
3.53267e-05
5.73908e-05
5.04227e-05
7.38101e-05
7.33499e-05
7.01225e-05
6.92249e-05
6.98945e-05
5.0607e-05
6.92805e-05
6.92121e-05
7.3094e-05
7.26579e-05
6.92606e-05
6.98725e-05
5.77335e-05
4.24492e-05
6.47691e-05
3.39563e-05
6.81018e-05
7.1816e-05
5.77456e-05
4.2656e-05
3.40946e-05
6.48473e-05
6.79476e-05
7.11443e-05
7.16341e-05
6.65201e-05
5.77159e-05
4.25519e-05
6.22237e-05
3.44568e-05
6.42361e-05
3.43845e-05
5.65122e-05
6.7938e-05
7.11183e-05
7.16143e-05
6.65027e-05
5.77227e-05
4.27055e-05
3.45375e-05
6.20518e-05
3.44868e-05
6.41784e-05
5.64719e-05
6.78127e-05
7.21192e-05
5.73465e-05
4.13817e-05
3.34568e-05
6.34025e-05
6.77427e-05
7.16157e-05
5.75649e-05
4.41481e-05
6.35028e-05
3.49938e-05
6.58985e-05
3.48392e-05
5.67472e-05
6.77601e-05
7.13221e-05
7.19164e-05
6.65878e-05
5.7344e-05
4.13499e-05
3.38746e-05
6.10854e-05
3.38153e-05
6.28076e-05
5.64336e-05
6.76546e-05
7.10606e-05
7.14493e-05
6.63814e-05
4.84994e-05
7.07765e-05
7.03839e-05
6.96564e-05
6.91156e-05
6.94667e-05
4.84822e-05
6.74671e-05
6.74875e-05
6.99309e-05
6.96568e-05
6.91785e-05
6.94975e-05
5.68729e-05
4.13708e-05
3.33095e-05
6.28474e-05
6.73388e-05
7.17323e-05
6.72516e-05
7.14768e-05
5.68644e-05
4.24633e-05
3.39418e-05
6.18367e-05
3.39328e-05
6.36506e-05
5.56022e-05
5.67268e-05
4.12877e-05
3.34321e-05
6.06594e-05
3.34508e-05
6.22474e-05
5.54205e-05
6.70321e-05
7.11624e-05
7.15657e-05
6.59664e-05
6.68807e-05
7.10022e-05
7.133e-05
6.57746e-05
6.93853e-05
6.93322e-05
4.66342e-05
6.6125e-05
6.59406e-05
6.81725e-05
6.76764e-05
6.90301e-05
6.92492e-05
6.90572e-05
6.92197e-05
6.89683e-05
6.88655e-05
6.90394e-05
6.89439e-05
6.67757e-05
6.69074e-05
4.3376e-05
6.48162e-05
6.51881e-05
6.90213e-05
6.88669e-05
6.90642e-05
6.8942e-05
4.25767e-05
6.3848e-05
6.42194e-05
6.43955e-05
6.47956e-05
6.44517e-05
7.11168e-05
6.62567e-05
7.07313e-05
5.40132e-05
6.15258e-05
3.47298e-05
4.0522e-05
5.63619e-05
5.9345e-05
3.43594e-05
5.41597e-05
6.26699e-05
3.54819e-05
4.25949e-05
5.65441e-05
5.97534e-05
3.51265e-05
6.37655e-05
7.06965e-05
7.06205e-05
6.28607e-05
6.39255e-05
7.06871e-05
7.06733e-05
6.29967e-05
5.3274e-05
3.86389e-05
5.76973e-05
3.14402e-05
5.87557e-05
3.31336e-05
5.17213e-05
5.34062e-05
3.99263e-05
5.77273e-05
3.19083e-05
5.89792e-05
3.38738e-05
5.1814e-05
6.79847e-05
6.80108e-05
4.50171e-05
6.48354e-05
6.49444e-05
6.90846e-05
6.88375e-05
6.89764e-05
6.87939e-05
4.36767e-05
6.35123e-05
6.35293e-05
6.41755e-05
6.42668e-05
6.89835e-05
6.88213e-05
5.39287e-05
6.15006e-05
3.43706e-05
4.03639e-05
5.58249e-05
5.96038e-05
3.39229e-05
6.44016e-05
7.0979e-05
6.59475e-05
7.07414e-05
5.38965e-05
3.4433e-05
6.13176e-05
4.01547e-05
5.57868e-05
3.39314e-05
5.94337e-05
6.39343e-05
7.07161e-05
7.06975e-05
6.30499e-05
5.3317e-05
3.85662e-05
5.80407e-05
3.11171e-05
5.90663e-05
3.26165e-05
5.19982e-05
6.39335e-05
7.0809e-05
7.07162e-05
6.30876e-05
5.3291e-05
3.8405e-05
3.10816e-05
5.81454e-05
3.25589e-05
5.89339e-05
5.20116e-05
6.45903e-05
7.11455e-05
6.60677e-05
7.07902e-05
5.3933e-05
3.38025e-05
6.05133e-05
3.89073e-05
5.57888e-05
3.34483e-05
5.90652e-05
6.43945e-05
7.0952e-05
6.5856e-05
7.07719e-05
5.34889e-05
3.96951e-05
5.78025e-05
3.16417e-05
5.90496e-05
3.34153e-05
5.20962e-05
6.41188e-05
7.07247e-05
7.07296e-05
6.32219e-05
5.33266e-05
3.77757e-05
3.11012e-05
5.81731e-05
3.23972e-05
5.86812e-05
5.20404e-05
6.39503e-05
7.08862e-05
7.07575e-05
6.31707e-05
6.67003e-05
6.67963e-05
4.30947e-05
6.49811e-05
6.52407e-05
6.90923e-05
6.90096e-05
6.91458e-05
6.89545e-05
4.23858e-05
6.43559e-05
6.46962e-05
6.46399e-05
6.49376e-05
6.91771e-05
6.9013e-05
5.34977e-05
3.32442e-05
6.01605e-05
3.84776e-05
5.49066e-05
3.2565e-05
5.89455e-05
6.43318e-05
7.10473e-05
6.55377e-05
7.08506e-05
6.41379e-05
7.09131e-05
6.53374e-05
7.07807e-05
5.32017e-05
3.82619e-05
3.07433e-05
5.8477e-05
3.19361e-05
5.91394e-05
5.22728e-05
5.3049e-05
3.74379e-05
3.04458e-05
5.8328e-05
3.1445e-05
5.86477e-05
5.21783e-05
6.39584e-05
7.09013e-05
7.08291e-05
6.33148e-05
6.3786e-05
7.09232e-05
7.07753e-05
6.32402e-05
6.89854e-05
6.89846e-05
6.9025e-05
6.9038e-05
4.16741e-05
6.44718e-05
6.4735e-05
6.4372e-05
6.45443e-05
6.92314e-05
6.90095e-05
6.928e-05
6.90627e-05
6.90709e-05
6.93476e-05
6.91061e-05
6.93645e-05
6.38395e-05
6.41922e-05
3.91034e-05
6.44375e-05
6.46759e-05
6.96492e-05
6.94043e-05
6.9651e-05
6.94181e-05
3.90946e-05
6.5873e-05
6.59731e-05
6.47338e-05
6.4959e-05
6.30412e-05
7.07513e-05
6.28865e-05
7.10542e-05
5.12498e-05
5.75599e-05
2.99736e-05
3.50041e-05
5.14365e-05
5.76551e-05
2.88611e-05
5.13321e-05
5.76288e-05
3.02213e-05
3.52287e-05
5.15216e-05
5.80825e-05
2.89956e-05
6.31788e-05
7.14613e-05
7.11505e-05
6.40902e-05
6.33024e-05
7.14815e-05
7.11579e-05
6.41982e-05
5.13406e-05
3.46657e-05
5.90926e-05
2.79244e-05
5.79508e-05
2.81847e-05
5.25004e-05
5.14268e-05
3.50253e-05
6.00065e-05
2.80686e-05
5.8551e-05
2.83017e-05
5.26225e-05
6.35826e-05
6.35812e-05
3.90167e-05
6.50579e-05
6.51129e-05
6.90581e-05
6.9413e-05
6.97395e-05
6.94713e-05
3.90984e-05
6.72731e-05
6.7591e-05
6.55978e-05
6.57205e-05
6.97711e-05
6.94965e-05
5.15749e-05
5.78863e-05
2.98578e-05
3.51426e-05
5.17446e-05
5.79062e-05
2.89263e-05
6.31376e-05
7.08802e-05
6.29847e-05
7.1191e-05
5.16398e-05
2.98776e-05
5.80949e-05
3.56206e-05
5.17763e-05
2.90245e-05
5.85365e-05
6.33197e-05
7.14544e-05
7.11422e-05
6.42442e-05
5.16591e-05
3.48259e-05
5.91908e-05
2.81459e-05
5.81523e-05
2.83657e-05
5.2701e-05
6.33675e-05
7.15126e-05
7.12723e-05
6.4229e-05
5.17412e-05
3.547e-05
2.83609e-05
5.98397e-05
2.85381e-05
5.88612e-05
5.27768e-05
6.32514e-05
7.07851e-05
6.31075e-05
7.10875e-05
5.17473e-05
3.0043e-05
5.81734e-05
3.6349e-05
5.18201e-05
2.93635e-05
5.90765e-05
6.33587e-05
7.09765e-05
6.30923e-05
7.13557e-05
5.18356e-05
3.51638e-05
6.03357e-05
2.85679e-05
5.87114e-05
2.8663e-05
5.32986e-05
6.35756e-05
7.15364e-05
7.1197e-05
6.47392e-05
5.19225e-05
3.6387e-05
2.90632e-05
6.13981e-05
2.90868e-05
5.96302e-05
5.34374e-05
6.3687e-05
7.17496e-05
7.14737e-05
6.4836e-05
6.44576e-05
6.48021e-05
3.9973e-05
6.55082e-05
6.58257e-05
6.92343e-05
6.94861e-05
6.96958e-05
6.95387e-05
4.00673e-05
6.66799e-05
6.68985e-05
6.58358e-05
6.61333e-05
6.96637e-05
6.95289e-05
5.21563e-05
2.97064e-05
5.8356e-05
3.63322e-05
5.20613e-05
2.92991e-05
5.94044e-05
6.35528e-05
7.09579e-05
6.32533e-05
7.12182e-05
6.37102e-05
7.10144e-05
6.32109e-05
7.13888e-05
5.23816e-05
3.56754e-05
2.88876e-05
6.01655e-05
2.8927e-05
5.9221e-05
5.36441e-05
5.24809e-05
3.64165e-05
2.9205e-05
6.15362e-05
2.91835e-05
5.99178e-05
5.38448e-05
6.38751e-05
7.15096e-05
7.12927e-05
6.49265e-05
6.40567e-05
7.17761e-05
7.15061e-05
6.5171e-05
6.9306e-05
6.96432e-05
6.93523e-05
6.96778e-05
4.12849e-05
6.88383e-05
6.88823e-05
6.7021e-05
6.72331e-05
6.99314e-05
6.97321e-05
6.99399e-05
6.9761e-05
6.96909e-05
6.98599e-05
6.9691e-05
6.98322e-05
6.6261e-05
6.63178e-05
4.16584e-05
6.73152e-05
6.72056e-05
7.00502e-05
6.98924e-05
7.00058e-05
6.98536e-05
4.28494e-05
6.87957e-05
6.82917e-05
6.76361e-05
6.7406e-05
6.53621e-05
7.15695e-05
6.44554e-05
7.17805e-05
5.42557e-05
5.95027e-05
2.79079e-05
3.54428e-05
5.29191e-05
6.07369e-05
2.80361e-05
5.43662e-05
6.04854e-05
2.80683e-05
3.66656e-05
5.30427e-05
6.18622e-05
2.82278e-05
6.55789e-05
7.20062e-05
7.18515e-05
6.63453e-05
6.56349e-05
7.17928e-05
7.18081e-05
6.63197e-05
5.46638e-05
3.73547e-05
6.22058e-05
3.04694e-05
6.10906e-05
2.86566e-05
5.57956e-05
5.47663e-05
3.83936e-05
6.26587e-05
3.06201e-05
6.21994e-05
2.89153e-05
5.5817e-05
6.78144e-05
6.81549e-05
4.35621e-05
6.91599e-05
6.92815e-05
6.98177e-05
6.9881e-05
6.98084e-05
6.99033e-05
4.44755e-05
6.95523e-05
6.91149e-05
6.9408e-05
6.93983e-05
6.97209e-05
6.98609e-05
5.4087e-05
5.95349e-05
2.81293e-05
3.55625e-05
5.3042e-05
6.06102e-05
2.82415e-05
6.51243e-05
7.15559e-05
6.44422e-05
7.16707e-05
5.40969e-05
2.83537e-05
6.01021e-05
3.63936e-05
5.31011e-05
2.8469e-05
6.06843e-05
6.53202e-05
7.19543e-05
7.18184e-05
6.5782e-05
5.4364e-05
3.73647e-05
6.17457e-05
3.04089e-05
6.08947e-05
2.88004e-05
5.51818e-05
6.52681e-05
7.17938e-05
7.16891e-05
6.57641e-05
5.43505e-05
3.7699e-05
3.04644e-05
6.11762e-05
2.90095e-05
6.07649e-05
5.51263e-05
6.60086e-05
7.16242e-05
6.51063e-05
7.17797e-05
5.5282e-05
2.91552e-05
6.18653e-05
3.88551e-05
5.39482e-05
2.95758e-05
6.25296e-05
6.60234e-05
7.17873e-05
6.51917e-05
7.17782e-05
5.54935e-05
3.8862e-05
6.25284e-05
3.1536e-05
6.23972e-05
3.00704e-05
5.58473e-05
6.61491e-05
7.16974e-05
7.17854e-05
6.62401e-05
5.55485e-05
3.96654e-05
3.19057e-05
6.18903e-05
3.07354e-05
6.25364e-05
5.58285e-05
6.61439e-05
7.15183e-05
7.17183e-05
6.62122e-05
6.68647e-05
6.70484e-05
4.26163e-05
6.71172e-05
6.7198e-05
6.96729e-05
6.96902e-05
6.97847e-05
6.97384e-05
4.33271e-05
6.72626e-05
6.70536e-05
6.71336e-05
6.71838e-05
6.97041e-05
6.96863e-05
5.51649e-05
2.9393e-05
6.19303e-05
3.91608e-05
5.4258e-05
3.01066e-05
6.2405e-05
6.57496e-05
7.15529e-05
6.5202e-05
7.16502e-05
6.59234e-05
7.1811e-05
6.54473e-05
7.18022e-05
5.50893e-05
3.8239e-05
3.16887e-05
6.10609e-05
3.03822e-05
6.09975e-05