/*--------------------------------*- C++ -*----------------------------------*\
| =========                 |                                                 |
| \\      /  F ield         | OpenFOAM: The Open Source CFD Toolbox           |
|  \\    /   O peration     | Version:  v1906                                 |
|   \\  /    A nd           | Web:      www.OpenFOAM.com                      |
|    \\/     M anipulation  |                                                 |
\*---------------------------------------------------------------------------*/
FoamFile
{
    version     2.0;
    format      ascii;
    class       volScalarField;
    location    "625";
    object      nut;
}
// * * * * * * * * * * * * * * * * * * * * * * * * * * * * * * * * * * * * * //

dimensions      [0 2 -1 0 0 0 0];


internalField   nonuniform List<scalar> 
42840
(
0.000194384
0.000203303
0.000181904
0.000152065
0.000130823
0.000131761
0.000131967
0.000127259
8.91281e-05
0.000124591
0.000123691
0.000142963
0.000115844
0.00015852
0.000149846
0.000150204
0.000164858
0.000141794
0.000169856
0.000134956
0.000154552
0.000135421
0.000173637
0.000160529
0.000125588
0.000174247
0.000140286
0.000154004
0.000115524
0.000166107
0.000140181
0.000136871
0.000163884
0.000182448
0.000174826
0.000184749
0.000220451
0.000194015
0.000177075
0.000173978
0.000204039
0.000149331
0.000185818
0.00013997
0.000128877
0.000142006
0.000184065
0.000152288
0.000113416
0.000191045
0.000172101
0.000174247
0.000175264
0.000213585
0.00016995
0.000181003
0.000220267
0.000191561
0.000177148
0.000171115
0.000211691
0.000168738
0.000185956
0.000168154
0.000170768
0.000169247
0.000189968
0.000168582
0.000159354
0.000186666
0.000188421
0.000166249
0.000176427
0.000192656
0.000185022
0.000172241
0.00019188
0.000192945
0.000186351
0.000177033
0.000199892
0.000194077
0.000193836
0.000177243
0.000200621
0.000194957
0.00019792
0.000178428
0.000196977
0.000196763
0.000197757
0.000180557
0.000198906
0.000198181
0.000197038
0.000180866
0.000205493
0.000198348
0.000199408
0.000180148
0.000208303
0.000200628
0.000200796
0.000180907
0.000178494
0.000192367
0.000208664
0.000199161
0.000191172
0.000190932
0.000205931
0.000175435
0.000173959
0.000188123
0.000173577
0.000156436
0.000173018
0.000128353
0.000188924
0.000206404
0.000142559
0.000146971
0.000191785
0.000127762
0.00018735
0.000185408
0.000142443
0.000141121
0.000167681
0.000145232
0.000137875
0.000168097
0.000128407
0.000163669
0.000140103
0.000135945
0.000128218
0.000124462
0.000115442
0.000130227
0.000132466
0.000115176
0.000121043
0.000122926
0.000123257
0.000130854
0.000132116
0.00011644
0.000121683
0.000133229
0.000122151
0.000131911
0.000125775
0.000124169
0.000132373
0.000123331
0.000133409
0.000137786
0.000117363
0.000146811
0.000114439
0.000122494
0.000143949
0.000152142
0.000128662
0.000157655
0.00011561
0.000121165
0.000142625
0.000140425
0.000138453
0.000155058
0.000153725
0.000126568
0.000142457
0.000141675
0.000143987
0.000152851
0.000151958
0.000152189
0.000170306
0.000156558
0.00015731
0.000175342
0.000152424
0.000158486
0.000141418
0.000154006
0.000147762
0.00017485
0.000168756
0.000152195
0.000149552
0.000144854
0.000144915
0.00016098
0.000150808
0.000164528
0.000144299
0.000135466
0.000170439
0.000150474
0.000175456
0.000146064
0.000160008
0.000135922
0.000137279
0.000124535
0.000175863
0.000174662
0.000166767
0.000178328
0.000143948
0.000133673
0.000153707
0.00016445
0.000171704
0.000143943
0.000175091
0.000160664
0.000156162
0.000147284
0.000134914
0.00015355
0.000136416
0.000144143
0.000165639
0.000126878
0.000163944
0.00015899
0.000175227
0.000143127
0.000143976
0.000162337
0.000169791
0.000167632
0.000168846
0.000132891
0.000167593
0.000146792
0.000166709
0.000158051
0.000134074
0.000136827
0.000142249
0.00017162
0.000143176
0.000169026
0.000165741
0.000156666
0.000139942
0.000138372
0.000136732
0.000135513
0.000163805
0.000168357
0.000150633
0.000129603
0.000133486
0.000160229
0.000135544
0.000146955
0.000136703
0.0001389
0.000165207
0.000146531
0.000167185
0.00016912
0.000170898
0.000155393
0.000168039
0.000142821
0.000142577
0.000172054
0.000169902
0.000150335
0.000171424
0.000176538
0.00014016
0.000166167
0.000147196
0.000170711
0.00017965
0.000179115
0.000171255
0.000204394
0.000181181
0.000180485
0.000214127
0.000195372
0.000174197
0.000189862
0.000183624
0.000173115
0.000211474
0.000175876
0.000188615
0.000195637
0.000195312
0.000166531
0.00016115
0.000190316
0.000176793
0.000193711
0.000180344
0.000205374
0.000174224
0.000217255
0.000194609
0.000197708
0.000162759
0.000186104
0.000141264
0.000214231
0.000177536
0.000197812
0.000187991
0.000190461
0.000158859
0.000157818
0.000161048
0.000171899
0.000186747
0.000183667
0.000158611
0.000141417
0.000166397
0.000132135
0.00017916
0.000151947
0.000142833
0.000140151
0.000136447
0.000130537
0.0001818
0.000189281
0.000146823
0.000187134
0.00015311
0.000140063
0.000150467
0.000173752
0.000174988
0.000155499
0.000186176
0.000155823
0.000148238
0.000130123
0.000139188
0.000138616
0.000140808
0.000139931
0.000174596
0.000134836
0.000172366
0.000141941
0.000181862
0.000139962
0.000169862
0.000155775
0.000178793
0.000180312
0.000173351
0.000162138
0.000162549
0.000173655
0.000180396
0.000171438
0.000144928
0.000173017
0.000152677
0.00018716
0.000185675
0.000210717
0.00017802
0.000199625
0.000149267
0.00016827
0.000181137
0.0001667
0.000186668
0.000212121
0.000196028
0.000161512
0.000159394
0.000184804
0.000169701
0.000191435
0.000181313
0.000177071
0.000196083
0.00019503
0.000212752
0.000212031
0.000204365
0.000200005
0.000181084
0.000190438
0.000168899
0.000209378
0.000178386
0.00019632
0.000201071
0.000190064
0.000159543
0.000163829
0.000191564
0.000175072
0.00018715
0.000171953
0.000196628
0.000181248
0.000213379
0.000195222
0.0002009
0.00017372
0.000177132
0.00015707
0.000211113
0.000181292
0.000203015
0.000187126
0.000186706
0.000171818
0.000181352
0.000164838
0.000170652
0.000185083
0.000183966
0.000182368
0.000168216
0.000177663
0.000161315
0.000191718
0.000169807
0.00017424
0.000165943
0.0001556
0.000155899
0.000194349
0.000187987
0.000176631
0.000188439
0.000180613
0.000166383
0.000179358
0.000171547
0.000174371
0.000182174
0.000189572
0.000182925
0.000168837
0.000160352
0.000161386
0.000172019
0.000167203
0.000170937
0.000182178
0.00015804
0.000171132
0.000174155
0.000188255
0.000172124
0.00018744
0.000179503
0.000183562
0.000179371
0.000174546
0.000174471
0.000182721
0.000189062
0.000180615
0.000166517
0.000163049
0.000170698
0.000174544
0.000185993
0.000185152
0.000192191
0.000172832
0.000176885
0.00017427
0.000187216
0.000183895
0.000185547
0.000180121
0.000191889
0.000185647
0.000174144
0.00017141
0.000180137
0.000185737
0.000184191
0.000171008
0.000171531
0.000176024
0.000187211
0.00019292
0.00019195
0.000193077
0.000177017
0.000177105
0.000185865
0.000184862
0.000190957
0.000184678
0.00018786
0.000193082
0.000192629
0.000170895
0.000170536
0.000186443
0.000184606
0.000191763
0.000176751
0.000176957
0.000180624
0.00019344
0.000192949
0.00019685
0.000193702
0.000176907
0.000177408
0.000192696
0.000186375
0.000196738
0.000192519
0.000193312
0.000193505
0.0001936
0.000171296
0.000176601
0.000192663
0.000192133
0.000193432
0.000177372
0.000180749
0.000179614
0.000197364
0.000194482
0.000196908
0.000195291
0.000177639
0.000178285
0.000197394
0.000194348
0.000197204
0.000197737
0.000193584
0.000194881
0.00019464
0.000177463
0.000180297
0.000193546
0.000197336
0.000195019
0.000178092
0.000179223
0.000177025
0.000196283
0.000195156
0.000194228
0.000195409
0.000178154
0.000178812
0.000196701
0.00019813
0.000194589
0.000197652
0.000195347
0.0001961
0.000197545
0.000180399
0.000180269
0.000195822
0.000198002
0.000197936
0.00018041
0.000176754
0.000178784
0.00019394
0.000196052
0.000195761
0.00019765
0.00017909
0.000180329
0.000194251
0.000197237
0.000195505
0.000196447
0.00019811
0.000198106
0.000198935
0.000180019
0.000179295
0.000198352
0.000197025
0.000198741
0.000181019
0.000179389
0.000181973
0.000197043
0.00019786
0.000199933
0.0001983
0.000180258
0.000180293
0.000196807
0.000196574
0.00019994
0.000198904
0.000198907
0.000198136
0.000198278
0.000179292
0.000181043
0.000198666
0.000198744
0.000198264
0.000180365
0.000182215
0.000182832
0.000200591
0.000198671
0.000201454
0.000200428
0.00018029
0.000181872
0.000200695
0.000199703
0.000201661
0.00020115
0.000198084
0.000199954
0.000198744
0.000181322
0.00018233
0.000198205
0.000200698
0.000198966
0.000180662
0.000182661
0.000201381
0.00020101
0.000182141
0.000201525
0.000201181
0.000199458
0.00018224
0.000199591
0.000102262
5.02086e-05
2.37267e-05
0.000101152
5.01903e-05
0.000192516
0.000211628
0.000191226
0.000173986
0.000140498
0.000197982
0.000110975
0.000180582
2.36349e-05
0.000137947
0.000186691
0.000177504
0.000106195
0.000172524
7.88434e-05
7.77208e-05
9.2169e-05
4.98721e-05
9.69682e-05
4.9773e-05
2.35327e-05
2.34884e-05
9.24105e-05
4.9897e-05
9.64249e-05
4.98e-05
0.000215777
0.000192005
0.000171214
0.000151947
0.000170688
0.000148228
0.000131243
0.000126021
0.000102062
0.000196323
0.0001901
0.000135125
9.40717e-05
0.000193228
2.35257e-05
2.35104e-05
0.000123648
0.000182899
9.78649e-05
0.000167052
0.000130227
0.000176612
9.31286e-05
7.2161e-05
7.19561e-05
0.000138279
6.97608e-05
6.99863e-05
8.75115e-05
4.98049e-05
8.75858e-05
4.99068e-05
2.35272e-05
2.35859e-05
8.7834e-05
4.98034e-05
8.80209e-05
4.98999e-05
0.000142878
0.000130193
0.000121035
9.31134e-05
0.0001019
0.000100597
0.000110399
0.000113192
8.71463e-05
0.000140982
0.000124945
0.000114604
8.78349e-05
0.00012868
2.35527e-05
2.36009e-05
0.000115214
0.00013601
8.92442e-05
0.000127195
0.00011593
0.000127923
9.00902e-05
6.9432e-05
6.9948e-05
0.000127414
7.20813e-05
7.25503e-05
9.2942e-05
5.00803e-05
9.06632e-05
5.01673e-05
2.36551e-05
2.36757e-05
9.26108e-05
5.00716e-05
9.09361e-05
5.01568e-05
9.93675e-05
9.69193e-05
0.000110808
9.68762e-05
0.000111259
0.000101159
0.000127168
0.000127884
9.50569e-05
0.000118207
0.000134874
0.000121617
9.91629e-05
0.000119628
2.36394e-05
2.36449e-05
0.000126116
0.000119726
9.3813e-05
0.000129097
0.000122497
0.000120579
9.51051e-05
7.79742e-05
7.7975e-05
0.000151551
7.9097e-05
7.88586e-05
9.67162e-05
5.02544e-05
9.6185e-05
5.02541e-05
2.36462e-05
2.3604e-05
9.56348e-05
5.02344e-05
9.43587e-05
5.02633e-05
0.000122679
0.000113764
0.000129359
0.000159738
0.000131318
0.000148845
0.000126724
0.000128035
0.00010051
0.000149254
0.000158327
0.000130835
9.77793e-05
0.00015364
2.36558e-05
2.36828e-05
0.000125445
0.000144011
9.50064e-05
0.000154583
0.000126682
0.000148286
9.52973e-05
7.42641e-05
7.36932e-05
0.000142201
7.07225e-05
7.07082e-05
9.28142e-05
5.01445e-05
9.44233e-05
5.00998e-05
2.35515e-05
2.35858e-05
9.71157e-05
5.01985e-05
9.7187e-05
5.01297e-05
0.000126775
0.000158623
0.000125605
0.0001627
0.000115805
0.000168657
0.000132994
0.000120176
9.02617e-05
0.000145319
0.000136638
0.000121192
8.84538e-05
0.000141185
2.37187e-05
2.36962e-05
0.000131487
0.000156782
0.000100527
0.000173604
0.000126362
0.000161153
0.000103967
7.01783e-05
7.17951e-05
0.00013779
7.38443e-05
7.55003e-05
9.51422e-05
5.01123e-05
9.29538e-05
5.01573e-05
2.37044e-05
2.37519e-05
9.32028e-05
5.00681e-05
9.47505e-05
5.00756e-05
0.000114588
0.000167863
0.000141774
0.000131284
0.000139632
0.000138011
0.000154858
0.000134492
9.44006e-05
0.000138264
0.00014464
0.000128325
9.95524e-05
0.000143455
2.36007e-05
2.35711e-05
0.000133411
0.00016948
0.000102179
0.000167671
0.000135416
0.000168968
9.67206e-05
7.95286e-05
7.92228e-05
0.000164811
8.00925e-05
7.80906e-05
9.43762e-05
5.0191e-05
9.59628e-05
5.01859e-05
2.37364e-05
2.37055e-05
9.12696e-05
5.01432e-05
9.13383e-05
5.02167e-05
0.000152842
0.000127983
0.000151018
0.000115332
0.000164456
0.000115666
0.000138726
0.000128716
0.00010142
0.00017305
0.000174271
0.000135136
9.76171e-05
0.000173381
2.36132e-05
2.36845e-05
0.000119157
0.00015152
8.83566e-05
0.000136933
0.000123161
0.000144966
8.73466e-05
7.30656e-05
7.12386e-05
0.000142127
6.92095e-05
6.89394e-05
9.27159e-05
5.02951e-05
9.1579e-05
5.04392e-05
2.37124e-05
2.37661e-05
9.58878e-05
5.03652e-05
9.37102e-05
5.04598e-05
0.000163645
0.000114935
0.000137344
0.000149597
0.0001658
0.000141398
0.000153386
0.000125216
9.39481e-05
0.000163704
0.000165694
0.000122306
9.7093e-05
0.000162416
2.37739e-05
2.37832e-05
0.000131626
0.000137966
9.63146e-05
0.000152305
0.00012268
0.000140258
0.000101995
7.07251e-05
7.31303e-05
0.000149084
7.72489e-05
7.91302e-05
0.000103488
5.06373e-05
9.97389e-05
5.06614e-05
2.38181e-05
2.37761e-05
0.000100222
5.05712e-05
9.87969e-05
5.05843e-05
0.000172022
0.00015077
0.000168542
0.000211821
0.000187585
0.000166714
0.000186018
0.000149087
0.000108892
0.000174441
0.000191009
0.00014344
0.000111696
0.000186054
2.37271e-05
2.37085e-05
0.000142504
0.000175283
0.000103984
0.000176377
0.000142008
0.000182382
0.000100423
8.57766e-05
8.51535e-05
0.000191276
8.49516e-05
8.27185e-05
9.88441e-05
5.04084e-05
0.000102977
5.02193e-05
2.36306e-05
2.35863e-05
0.000100202
5.04297e-05
0.000101288
5.02831e-05
0.000187807
0.000170966
0.000185262
0.000221266
0.000163306
0.000185867
0.000158206
0.000132334
0.000103035
0.000196005
0.00018685
0.000141798
9.6177e-05
0.000193884
2.37253e-05
2.37514e-05
0.000132829
0.000186474
9.72332e-05
0.000177952
0.000135142
0.000185821
9.81445e-05
7.42709e-05
7.45462e-05
0.000155113
7.05534e-05
7.19997e-05
9.08999e-05
5.00614e-05
9.24993e-05
5.00817e-05
2.36141e-05
2.36825e-05
9.44155e-05
5.00915e-05
9.65763e-05
5.00572e-05
0.000147996
0.000189292
0.000149313
0.000141927
0.000124106
0.000191306
0.000138027
0.000122559
8.97326e-05
0.000160854
0.000143711
0.000123479
8.93909e-05
0.000152938
2.37621e-05
2.37547e-05
0.000134165
0.000182545
0.000101893
0.000186622
0.000133091
0.000181891
0.000102813
7.06935e-05
7.18521e-05
0.000139843
7.23127e-05
7.27317e-05
9.39423e-05
5.02405e-05
9.19082e-05
5.03586e-05
2.37837e-05
2.38344e-05
9.32229e-05
5.01567e-05
9.27261e-05
5.02938e-05
0.000121929
0.000188819
0.000137634
0.000113286
0.000147091
0.000168701
0.000162292
0.000131949
9.40387e-05
0.000145258
0.000152085
0.000127294
9.80371e-05
0.000148104
2.37411e-05
2.37414e-05
0.000133907
0.000178987
0.000101797
0.000179752
0.000133962
0.000177875
0.000101058
7.46848e-05
7.42021e-05
0.00016078
7.66741e-05
7.58046e-05
9.91576e-05
5.05182e-05
9.73528e-05
5.05923e-05
2.38774e-05
2.38753e-05
9.7007e-05
5.04986e-05
9.53823e-05
5.05806e-05
0.000165618
0.000163648
0.000172216
0.00015836
0.00021128
0.000154718
0.000191264
0.000144768
0.000105213
0.000186611
0.000201133
0.00014031
0.000108892
0.000197888
2.37427e-05
2.37434e-05
0.000137279
0.000175354
0.000100287
0.00017107
0.000135533
0.000175401
0.000100071
8.02117e-05
7.91291e-05
0.000178986
8.09722e-05
8.01111e-05
0.000102007
5.06789e-05
0.000101241
5.06929e-05
2.38092e-05
2.37617e-05
0.000100362
5.06572e-05
9.9123e-05
5.06715e-05
0.000218318
0.000152948
0.000193505
0.00021463
0.000220497
0.000158069
0.000192985
0.000145284
0.000110263
0.000214035
0.000213614
0.000147497
0.000107366
0.000214696
2.37421e-05
2.3744e-05
0.000138752
0.000179024
9.95352e-05
0.000171462
0.00013875
0.000180667
9.93414e-05
7.86697e-05
7.9e-05
0.000177757
7.70901e-05
7.77363e-05
9.94988e-05
5.05827e-05
0.000101041
5.04869e-05
2.36969e-05
2.36878e-05
0.000100264
5.05798e-05
0.000101134
5.04899e-05
0.000212063
0.000162847
0.000189748
0.000221156
0.000175647
0.000177388
0.000179964
0.000137017
0.000101897
0.000201005
0.000183141
0.000139424
9.93552e-05
0.000192511
2.37533e-05
2.37645e-05
0.000137657
0.000184146
9.95626e-05
0.000179408
0.000137843
0.000185079
0.000100318
7.59842e-05
7.65401e-05
0.000168892
7.6199e-05
7.65821e-05
9.60245e-05
5.03797e-05
9.68814e-05
5.03645e-05
2.37139e-05
2.375e-05
9.73634e-05
5.03826e-05
9.82342e-05
5.03622e-05
0.00016673
0.000181233
0.000177872
0.000178094
0.00015373
0.000188146
0.000173532
0.000134317
9.69322e-05
0.000176722
0.000167091
0.000134661
9.6892e-05
0.000174536
2.37815e-05
2.37934e-05
0.000138945
0.000189202
0.00010135
0.000187573
0.000138237
0.000190942
0.000101895
7.6944e-05
7.72369e-05
0.000168531
7.71223e-05
7.73251e-05
9.6779e-05
5.04022e-05
9.59267e-05
5.04552e-05
2.37942e-05
2.38153e-05
9.70435e-05
5.03925e-05
9.67892e-05
5.04441e-05
0.000152351
0.000188912
0.000172267
0.000160579
0.000165785
0.000188089
0.000171065
0.000137063
9.8813e-05
0.000173373
0.00017474
0.000135653
0.000100319
0.000177663
2.38032e-05
2.38059e-05
0.000139113
0.000194375
0.000102359
0.000189895
0.00013923
0.000194471
0.000102497
7.66336e-05
7.63891e-05
0.000167833
7.61223e-05
7.57587e-05
9.85712e-05
5.05236e-05
9.80197e-05
5.05568e-05
2.38281e-05
2.3831e-05
9.8204e-05
5.05176e-05
9.78189e-05
5.05517e-05
0.0001731
0.000187183
0.000171545
0.000170872
0.000188411
0.000183294
0.000177611
0.000139832
0.000102076
0.000189902
0.000188998
0.000138718
0.000102735
0.000192602
2.38034e-05
2.38017e-05
0.000138669
0.000192374
0.000102358
0.000187547
0.000138738
0.000191429
0.00010205
7.59843e-05
7.56495e-05
0.000167354
7.64723e-05
7.62939e-05
9.87979e-05
5.0591e-05
9.87853e-05
5.06181e-05
2.38319e-05
2.3834e-05
9.82819e-05
5.05827e-05
9.82519e-05
5.06087e-05
0.000191366
0.000181865
0.000180821
0.000188812
0.000195212
0.000179317
0.000190163
0.000141497
0.000103023
0.000198062
0.000193055
0.000141022
0.000102975
0.000199078
2.38047e-05
2.38147e-05
0.000139849
0.000189522
0.000101328
0.000184449
0.000139148
0.000190135
0.000101189
7.72494e-05
7.72252e-05
0.000174586
7.76063e-05
7.76076e-05
9.95192e-05
5.06529e-05
9.91045e-05
5.06654e-05
2.38393e-05
2.38437e-05
9.94375e-05
5.06456e-05
9.88932e-05
5.06599e-05
0.000195151
0.000180823
0.000192248
0.000198564
0.000195128
0.000188856
0.000194846
0.000141834
0.000102742
0.000200067
0.000192872
0.000141667
0.000102779
0.000200166
2.38319e-05
2.38424e-05
0.000141317
0.000194319
0.000101552
0.000188285
0.000140727
0.000196022
0.000102159
7.78127e-05
7.78217e-05
0.000177388
7.7779e-05
7.7796e-05
9.98186e-05
5.06624e-05
9.98043e-05
5.06533e-05
2.38463e-05
2.38479e-05
9.98687e-05
5.06595e-05
9.98211e-05
5.06517e-05
0.000195725
0.000191962
0.000195111
0.000201209
0.000197324
0.000199702
0.000196644
0.000142438
0.000103048
0.000201323
0.000194528
0.000142196
0.000103067
0.000201825
2.38507e-05
2.38547e-05
0.000142671
0.000200923
0.000102953
0.000195284
0.000142124
0.000202346
0.000103332
7.75628e-05
7.76117e-05
0.000177396
7.75329e-05
7.76004e-05
9.91621e-05
5.06407e-05
9.93789e-05
5.0644e-05
2.38517e-05
2.38584e-05
9.94089e-05
5.06399e-05
9.96155e-05
5.06423e-05
0.000197498
0.000201277
0.000197579
0.000197831
0.000198332
0.000202616
0.000200866
0.000142732
0.000102931
0.000202885
0.000195144
0.000142559
0.000102995
0.000203275
2.38575e-05
2.38593e-05
0.000143375
0.000205537
0.000103562
0.00019819
0.000143166
0.000206159
0.000103594
7.77473e-05
7.77898e-05
0.000179367
7.79005e-05
7.79001e-05
9.94864e-05
5.06665e-05
9.92022e-05
5.06856e-05
2.38657e-05
2.38689e-05
9.9344e-05
5.06624e-05
9.92441e-05
5.06812e-05
0.00019901
0.000202225
0.000201826
0.000197012
0.000201219
0.000200919
0.000203513
0.000143531
0.000103353
0.000205256
0.000197373
0.000143207
0.000103466
0.000205989
2.38605e-05
2.38637e-05
0.000143337
0.000206661
0.000103366
0.000197449
0.000143363
0.000206517
0.00010321
7.8022e-05
7.7969e-05
0.000180928
7.80411e-05
7.79817e-05
9.96933e-05
5.07069e-05
9.96298e-05
5.072e-05
2.38711e-05
2.38745e-05
9.97167e-05
5.07047e-05
9.95137e-05
5.07185e-05
0.000201686
0.000200966
0.000203648
0.000204065
0.000202603
0.000202854
0.000203206
0.000143487
0.000103346
0.000207243
0.000198141
0.000143538
0.000103238
0.000207302
2.38707e-05
2.38767e-05
0.000143352
0.0002063
0.000103094
0.000197473
0.000143231
0.000206501
0.000103294
7.79602e-05
7.79349e-05
0.000180791
7.78577e-05
7.78757e-05
9.99328e-05
5.07323e-05
9.98188e-05
5.07375e-05
2.38816e-05
2.38877e-05
0.000100034
5.07298e-05
9.99637e-05
5.07347e-05
0.000203062
0.000203882
0.000202998
0.000208098
0.000205459
0.000206688
0.000203676
0.000143486
0.000103156
0.000207329
0.000198765
0.000143341
0.000103359
0.000207602
2.3882e-05
2.38852e-05
0.000143899
0.000207882
0.000103586
0.000199991
0.000143662
0.000208477
0.000103713
7.76409e-05
7.76881e-05
0.000180225
7.75862e-05
7.76224e-05
9.99555e-05
5.07426e-05
9.99575e-05
5.07475e-05
2.38942e-05
2.38987e-05
9.99083e-05
5.07392e-05
9.99799e-05
5.07429e-05
0.000206444
0.000207168
0.000204512
0.000144438
0.000103688
0.000209461
0.000201264
0.000143972
0.000103913
0.000210267
2.38881e-05
2.38921e-05
0.000144211
0.000209913
0.000103655
0.000200812
0.000144057
0.000210222
0.00010361
7.77641e-05
7.77306e-05
0.000181867
7.79744e-05
7.79339e-05
2.36402e-05
2.36343e-05
0.000184056
8.30974e-05
8.20974e-05
2.35374e-05
2.3607e-05
2.35455e-05
2.3605e-05
0.000184691
7.6704e-05
7.65771e-05
8.15925e-05
8.07702e-05
0.000102163
5.03439e-05
0.000143847
0.000187813
0.000109184
0.000180726
0.000144242
0.000199601
0.000112442
0.000184246
0.000102399
4.99291e-05
5.01317e-05
9.86838e-05
0.000102343
5.00174e-05
5.02641e-05
9.88713e-05
0.000144524
0.00019132
0.000101924
0.00019439
0.000108101
0.000190127
0.000140958
0.000144961
0.000206431
0.000105887
0.000202184
0.000112738
0.000196467
0.000141769
0.000197465
8.81364e-05
8.71672e-05
2.37199e-05
2.35648e-05
2.36808e-05
0.000199466
8.00382e-05
7.98374e-05
8.7152e-05
8.61819e-05
2.35718e-05
2.36777e-05
0.000141561
0.000187278
0.000107815
0.000180182
0.000101165
5.01849e-05
0.000141629
0.000188648
0.0001815
0.000108079
0.000101063
4.99483e-05
5.01226e-05
9.78016e-05
0.000141998
0.000190365
0.000101254
0.000190617
0.000106515
0.000187535
0.000137392
0.000101021
4.99371e-05
5.0114e-05
9.77194e-05
0.000142031
0.000190969
0.00019113
0.000100592
0.000188408
0.00010631
0.000137149
0.000100245
5.02958e-05
0.00013963
0.000176918
0.000174
0.000103954
0.000100168
5.01156e-05
0.000141023
0.00020406
0.000104928
0.000195022
0.000111187
0.000190562
0.000138192
0.000100372
5.00161e-05
5.02261e-05
9.77733e-05
0.000140083
0.000177394
0.000181789
9.76342e-05
0.000179668
0.000102342
0.000136776
0.000100194
4.99175e-05
5.00568e-05
9.72835e-05
0.000183964
8.22661e-05
8.13499e-05
2.36375e-05
2.35419e-05
2.36035e-05
0.000184066
7.61236e-05
7.60199e-05
8.07289e-05
8.00518e-05
2.35542e-05
2.36101e-05
0.000137674
0.000177373
0.000174272
0.000102345
9.91845e-05
5.01561e-05
9.908e-05
5.00648e-05
0.000137854
0.000188571
0.000183634
9.96907e-05
0.000182101
0.000104539
0.000132553
0.000137336
0.000177169
0.000177578
9.62955e-05
0.000176986
0.000100676
0.000131792
9.85419e-05
4.99534e-05
5.00973e-05
9.61204e-05
9.82416e-05
4.98946e-05
5.00125e-05
9.566e-05
2.35907e-05
2.35801e-05
0.000170033
7.3304e-05
7.2879e-05
7.73326e-05
7.62962e-05
2.35276e-05
2.35668e-05
2.3531e-05
2.35603e-05
2.35191e-05
2.34995e-05
2.35293e-05
2.35113e-05
7.5017e-05
7.51424e-05
0.000151485
7.10195e-05
7.16617e-05
2.3524e-05
2.34993e-05
2.35299e-05
2.35105e-05
0.000145013
6.86004e-05
6.92671e-05
7.00919e-05
7.08004e-05
9.24528e-05
4.99444e-05
9.71909e-05
4.98023e-05
0.000126303
9.95235e-05
0.000195746
0.000175399
0.000137237
9.31622e-05
0.000192592
0.000126784
0.000102683
0.000204163
0.000193511
0.000137938
9.40486e-05
0.000201386
9.07261e-05
4.97826e-05
4.97608e-05
8.79981e-05
9.1003e-05
4.9779e-05
4.97797e-05
8.82376e-05
0.00012276
0.000158461
8.78018e-05
0.000159733
9.13365e-05
0.000179088
0.000114944
0.000123167
0.000168805
8.75177e-05
0.000164782
9.1665e-05
0.000187355
0.00011519
7.74871e-05
7.74924e-05
0.000162118
7.1021e-05
7.12368e-05
2.35408e-05
2.34954e-05
2.35146e-05
2.34858e-05
0.000151657
6.76261e-05
6.76738e-05
6.9566e-05
6.97542e-05
2.35171e-05
2.34918e-05
0.000125613
9.9198e-05
0.00019127
0.000173677
0.00013434
9.37213e-05
0.00018701
9.23609e-05
4.98866e-05
9.63484e-05
4.97979e-05
0.000125386
0.000191409
9.84682e-05
0.000170186
0.000134096
0.000186407
9.29604e-05
9.11067e-05
4.97856e-05
4.97835e-05
8.84529e-05
0.000122716
0.0001575
8.86847e-05
0.000155472
9.20659e-05
0.000172729
0.000116116
9.10866e-05
4.98149e-05
4.97874e-05
8.85659e-05
0.000122523
0.000154194
0.00015421
8.87295e-05
0.000171361
9.14043e-05
0.000116128
9.26502e-05
4.99526e-05
9.64766e-05
4.98224e-05
0.000125169
0.000181898
9.5946e-05
0.000156467
0.000133874
0.0001783
9.15758e-05
9.21375e-05
4.98781e-05
9.59567e-05
4.98104e-05
0.000122949
0.00016604
8.76709e-05
0.000159416
9.17777e-05
0.000180065
0.000115998
9.1362e-05
4.97922e-05
4.9799e-05
8.87228e-05
0.000122234
0.000145782
0.000151318
8.8297e-05
0.000166764
9.03049e-05
0.00011574
9.09115e-05
4.98441e-05
4.9804e-05
8.85716e-05
7.45882e-05
7.46543e-05
0.000147455
7.10224e-05
7.144e-05
2.35388e-05
2.3523e-05
2.35421e-05
2.35111e-05
0.000141675
6.9251e-05
6.98907e-05
7.02293e-05
7.07501e-05
2.35496e-05
2.35231e-05
0.000122897
0.000175846
9.48186e-05
0.0001523
0.00012947
0.000168521
9.11275e-05
9.19748e-05
4.99117e-05
9.50693e-05
4.98384e-05
9.13986e-05
4.98621e-05
9.45578e-05
4.98116e-05
0.000121458
0.000152131
0.000147976
8.95499e-05
0.00016259
9.17955e-05
0.000116781
0.000120739
0.000142618
0.000143155
8.86364e-05
0.000155652
9.01065e-05
0.000116267
9.09539e-05
4.98507e-05
4.98294e-05
8.89865e-05
9.0412e-05
4.98562e-05
4.98088e-05
8.86507e-05
2.35193e-05
2.35177e-05
2.35249e-05
2.35258e-05
0.000134979
6.89305e-05
6.9406e-05
6.92829e-05
6.96037e-05
2.35581e-05
2.35215e-05
2.35656e-05
2.35297e-05
2.35323e-05
2.35792e-05
2.35368e-05
2.35805e-05
6.83948e-05
6.90365e-05
0.000117146
6.90161e-05
6.94397e-05
2.36311e-05
2.35889e-05
2.36297e-05
2.35897e-05
0.000115699
7.11711e-05
7.13721e-05
6.94097e-05
6.9815e-05
8.77685e-05
4.98006e-05
8.78198e-05
4.99054e-05
0.000111425
8.71409e-05
0.000141045
0.000121973
0.000113356
8.6642e-05
0.000126779
0.000111709
8.69809e-05
0.000143807
0.000124791
0.000113584
8.7572e-05
0.000128664
8.80301e-05
5.00502e-05
4.99404e-05
9.00548e-05
8.83353e-05
5.00567e-05
4.9942e-05
9.04012e-05
0.000111458
0.000117364
8.98042e-05
0.000112543
8.72042e-05
0.000117536
0.000115572
0.00011179
0.000121889
9.25402e-05
0.00011507
8.87021e-05
0.000119536
0.000116175
6.74948e-05
6.7506e-05
0.000117425
6.98174e-05
6.98986e-05
2.35295e-05
2.35902e-05
2.36456e-05
2.35991e-05
0.00011703
7.38211e-05
7.44987e-05
7.07256e-05
7.09452e-05
2.36525e-05
2.36046e-05
0.000112922
8.79989e-05
0.000139397
0.000123049
0.000114721
8.73437e-05
0.000127333
8.80646e-05
4.98396e-05
8.81737e-05
4.99483e-05
0.00011321
0.000139086
8.83385e-05
0.000126565
0.00011483
0.000128123
8.90499e-05
8.83516e-05
5.00428e-05
4.99325e-05
9.04223e-05
0.000112935
0.000118621
9.01103e-05
0.000114464
8.77617e-05
0.000119224
0.000116445
8.85366e-05
5.00631e-05
4.99772e-05
9.04186e-05
0.000113313
0.00012351
0.000116537
9.21724e-05
0.000120866
8.9755e-05
0.000116822
8.82202e-05
4.98117e-05
8.82972e-05
4.99163e-05
0.000113334
0.000138119
8.80267e-05
0.000131287
0.000114497
0.000129444
9.00042e-05
8.84958e-05
4.98752e-05
8.82408e-05
5.00079e-05
0.000113514
0.000122614
9.35564e-05
0.000119312
8.91471e-05
0.000122058
0.000119427
8.89541e-05
5.00755e-05
4.99549e-05
9.18017e-05
0.00011384
0.00013064
0.000123018
9.65589e-05
0.000124936
9.14447e-05
0.000119983
8.9242e-05
5.01503e-05
5.00499e-05
9.20467e-05
6.9254e-05
6.99412e-05
0.000122116
7.10067e-05
7.16671e-05
2.35591e-05
2.36025e-05
2.36371e-05
2.36095e-05
0.000121512
7.30243e-05
7.35343e-05
7.15355e-05
7.21783e-05
2.36337e-05
2.361e-05
0.00011515
0.000133923
8.8465e-05
0.000131022
0.00011552
0.000128181
9.09094e-05
8.89962e-05
4.98702e-05
8.87017e-05
4.9961e-05
8.92892e-05
4.98873e-05
8.84412e-05
5.00185e-05
0.000116009
0.00012475
0.000121083
9.32355e-05
0.000123373
9.08239e-05
0.000120952
0.000116319
0.000130785
0.000124143
9.69577e-05
0.000125366
9.2256e-05
0.000121776
8.97219e-05
5.0065e-05
4.99875e-05
9.22323e-05
9.00963e-05
5.01586e-05
5.00603e-05
9.28678e-05
2.35707e-05
2.36283e-05
2.35778e-05
2.36334e-05
0.000129395
7.71026e-05
7.7225e-05
7.33094e-05
7.37333e-05
2.36795e-05
2.36437e-05
2.36802e-05
2.36479e-05
2.36383e-05
2.36675e-05
2.36367e-05
2.36613e-05
7.18109e-05
7.19196e-05
0.000126659
7.36472e-05
7.34404e-05
2.37005e-05
2.36731e-05
2.36907e-05
2.3665e-05
0.000133341
7.65073e-05
7.53831e-05
7.42168e-05
7.37481e-05
9.32529e-05
5.00881e-05
9.09954e-05
5.0165e-05
0.000122707
9.07812e-05
0.000110094
0.000117735
0.000117193
9.40053e-05
0.000109225
0.000123409
9.38542e-05
0.00011303
0.000130711
0.000117843
9.80214e-05
0.000112642
9.36621e-05
5.02455e-05
5.01892e-05
9.5777e-05
9.39584e-05
5.01736e-05
5.01758e-05
9.58777e-05
0.000124475
0.000129986
9.8193e-05
0.00012615
9.4944e-05
0.000112584
0.000129636
0.000125173
0.000142956
0.00010097
0.000129905
9.9119e-05
0.000116796
0.00013003
7.49007e-05
7.56645e-05
0.000143848
7.7887e-05
7.83246e-05
2.36609e-05
2.36731e-05
2.36609e-05
2.36756e-05
0.000149748
7.9418e-05
7.87242e-05
7.85502e-05
7.87109e-05
2.36474e-05
2.36702e-05
0.000121603
9.08709e-05
0.000111783
0.000118614
0.000117671
9.36184e-05
0.000110498
9.24551e-05
5.00788e-05
9.08854e-05
5.01202e-05
0.000121673
0.000113892
9.27667e-05
0.000124648
0.000117978
0.000112529
9.41591e-05
9.29508e-05
5.02212e-05
5.01729e-05
9.4109e-05
0.000122676
0.000130002
9.66928e-05
0.000124579
9.43196e-05
0.00011307
0.000126038
9.2782e-05
5.01632e-05
5.01266e-05
9.40149e-05
0.00012263
0.000132486
0.000125016
9.51836e-05
0.000114848
9.42542e-05
0.000125759
9.52273e-05
5.01073e-05
9.2746e-05
5.01656e-05
0.0001282
0.00012238
9.8006e-05
0.00014681
0.000122184
0.000124747
0.000100346
9.52155e-05
5.01649e-05
9.29534e-05
5.01652e-05
0.000129282
0.000147058
0.000100808
0.000140161
9.99458e-05
0.000128078
0.000130941
9.56388e-05
5.01407e-05
5.01683e-05
9.60324e-05
0.000129438
0.000152363
0.000143168
9.87999e-05
0.000133797
0.000100472
0.00013071
9.55621e-05
5.00753e-05
5.01455e-05
9.5865e-05
7.33176e-05
7.37663e-05
0.000133237
7.36457e-05
7.3928e-05
2.36354e-05
2.36387e-05
2.36523e-05
2.36449e-05
0.000136881
7.36027e-05
7.33244e-05
7.3593e-05
7.38147e-05
2.36407e-05
2.3638e-05
0.000127257
0.000124526
9.81791e-05
0.000149228
0.000123509
0.000129232
9.99062e-05
9.43314e-05
5.00808e-05
9.29194e-05
5.01163e-05
9.48793e-05
5.01722e-05
9.35873e-05
5.01723e-05
0.000126668
0.000136971
0.000137194
9.51115e-05
0.000127804