/*--------------------------------*- C++ -*----------------------------------*\
| =========                 |                                                 |
| \\      /  F ield         | OpenFOAM: The Open Source CFD Toolbox           |
|  \\    /   O peration     | Version:  v1906                                 |
|   \\  /    A nd           | Web:      www.OpenFOAM.com                      |
|    \\/     M anipulation  |                                                 |
\*---------------------------------------------------------------------------*/
FoamFile
{
    version     2.0;
    format      ascii;
    class       volScalarField;
    location    "625";
    object      p;
}
// * * * * * * * * * * * * * * * * * * * * * * * * * * * * * * * * * * * * * //

dimensions      [0 2 -2 0 0 0 0];


internalField   nonuniform List<scalar> 
42840
(
0.00163525
0.00163465
0.00163573
0.00163846
0.00159867
0.00160053
0.00160024
0.00160228
0.00156524
0.00156579
0.00156502
0.00156706
0.0015311
0.00152887
0.00152961
0.00153102
0.00149408
0.00149456
0.00149474
0.00149729
0.00145874
0.00146052
0.00145794
0.00146096
0.00142365
0.00142184
0.00142418
0.00142458
0.00138973
0.00138906
0.00139005
0.00139213
0.00135513
0.0013548
0.00135305
0.00135551
0.00131628
0.0013156
0.00131705
0.00131825
0.00127888
0.00128125
0.00128014
0.0012835
0.00124576
0.00124638
0.00124491
0.00124748
0.00121232
0.00121005
0.00121129
0.00121222
0.00117599
0.00117454
0.00117608
0.00117714
0.00113867
0.0011395
0.00113943
0.00114175
0.00110245
0.0011039
0.00110281
0.0011056
0.00106786
0.00106785
0.00106725
0.00106949
0.00103307
0.00103219
0.00103256
0.00103442
0.000997811
0.000997476
0.000997934
0.000999609
0.00096278
0.000962668
0.000962805
0.0009646
0.000927349
0.000927371
0.000927236
0.00092935
0.000891774
0.000891822
0.000891658
0.000893808
0.000856328
0.000856219
0.000856172
0.000858177
0.000820846
0.000820654
0.000820747
0.000822692
0.00078527
0.000785241
0.00078523
0.000787268
0.000749761
0.000749769
0.000749741
0.000751803
0.00164281
0.0016449
0.0016442
0.00164209
0.00164503
0.00164494
0.00164442
0.0016456
0.00164307
0.00164516
0.00164575
0.00164362
0.00163768
0.0016071
0.00163523
0.00163445
0.00160865
0.00160884
0.00163698
0.00160736
0.00163541
0.00163554
0.00160873
0.00160896
0.00163601
0.00160889
0.00160873
0.00163807
0.00160729
0.00163624
0.001609
0.00160883
0.00160697
0.00160243
0.00157242
0.00160009
0.00160052
0.00157439
0.0015748
0.00160269
0.00157272
0.00160007
0.00160027
0.00157424
0.00157401
0.00160002
0.00157471
0.00157404
0.00160253
0.00157196
0.00160003
0.0015739
0.00157386
0.00157192
0.00156779
0.00153641
0.00156577
0.00156595
0.00153883
0.00153824
0.00156792
0.00153592
0.0015656
0.00156518
0.00153881
0.00153854
0.00156504
0.00153797
0.00153785
0.00156721
0.00153613
0.00156481
0.00153829
0.0015378
0.00153572
0.0015315
0.00150039
0.00152963
0.00152902
0.00150239
0.00150255
0.00153106
0.00150075
0.00152975
0.00152976
0.0015025
0.00150334
0.0015291
0.00150284
0.0015039
0.00153145
0.00150143
0.00152918
0.00150368
0.00150416
0.0015019
0.00149561
0.00146595
0.0014935
0.00149416
0.00146792
0.00146921
0.00149627
0.0014673
0.00149344
0.00149425
0.0014675
0.00146685
0.00149545
0.00146951
0.00146856
0.0014966
0.00146495
0.00149559
0.00146712
0.00146806
0.00146602
0.00146135
0.00143098
0.00145953
0.00146048
0.00143301
0.00143163
0.00146249
0.00142926
0.00145904
0.00145791
0.00143305
0.00143285
0.00145901
0.00143115
0.00143101
0.00146013
0.00143075
0.00145845
0.00143239
0.00143112
0.00142916
0.00142613
0.00139548
0.00142382
0.00142224
0.00139731
0.00139672
0.00142435
0.00139504
0.00142424
0.00142458
0.00139804
0.00139888
0.00142231
0.00139684
0.0013981
0.00142622
0.0013968
0.00142272
0.00139897
0.00139871
0.00139648
0.0013909
0.00136069
0.00138883
0.00138882
0.0013633
0.00136409
0.00139077
0.00136183
0.0013893
0.00138977
0.00136276
0.00136202
0.00139014
0.0013643
0.00136338
0.00139194
0.00135984
0.00139059
0.00136214
0.00136286
0.00136065
0.00135582
0.00132333
0.00135433
0.00135482
0.00132551
0.00132535
0.00135669
0.00132288
0.0013538
0.00135306
0.00132554
0.00132625
0.00135362
0.00132517
0.0013249
0.00135499
0.00132391
0.00135305
0.00132612
0.00132497
0.00132297
0.00131814
0.00128712
0.00131578
0.00131562
0.00128851
0.00128932
0.00131774
0.00128784
0.00131598
0.00131708
0.00128853
0.00128905
0.00131598
0.00128973
0.00129031
0.00131892
0.0012872
0.00131621
0.00128939
0.00129031
0.00128833
0.00128256
0.00125323
0.00128024
0.00128096
0.00125535
0.00125541
0.00128324
0.00125338
0.00128004
0.00127983
0.00125494
0.00125355
0.00128153
0.0012553
0.0012547
0.00128232
0.0012518
0.00128136
0.00125341
0.00125423
0.0012523
0.00124856
0.0012179
0.00124677
0.00124666
0.00122027
0.00121944
0.00124857
0.00121693
0.00124643
0.00124521
0.00122049
0.00122017
0.0012457
0.00121898
0.00121887
0.00124727
0.00121798
0.00124527
0.0012198
0.00121906
0.00121692
0.001213
0.00118171
0.00121108
0.00121038
0.00118371
0.00118333
0.00121208
0.00118126
0.00121149
0.0012116
0.00118422
0.001185
0.00121006
0.00118341
0.00118382
0.00121328
0.0011827
0.00121045
0.00118506
0.00118428
0.00118194
0.00117685
0.00114555
0.00117474
0.00117441
0.00114753
0.00114788
0.00117644
0.00114623
0.00117515
0.00117594
0.00114762
0.00114831
0.00117503
0.00114818
0.00114858
0.00117781
0.00114624
0.00117541
0.00114864
0.00114866
0.00114661
0.00114065
0.00111008
0.00113847
0.00113917
0.00111193
0.00111274
0.00114146
0.00111082
0.00113846
0.00113909
0.0011116
0.00111168
0.00113971
0.00111292
0.00111266
0.00114128
0.00110978
0.00113966
0.00111189
0.00111238
0.00111051
0.00110536
0.00107504
0.00110334
0.00110383
0.00107718
0.00107705
0.00110596
0.00107491
0.00110298
0.00110271
0.00107695
0.00107623
0.00110357
0.00107687
0.00107648
0.00110493
0.00107423
0.00110326
0.00107603
0.00107621
0.00107431
0.00107023
0.0010395
0.0010683
0.00106809
0.00104164
0.00104113
0.00107004
0.00103899
0.00106815
0.00106751
0.00104172
0.00104137
0.00106755
0.00104096
0.00104114
0.00106949
0.00103932
0.00106735
0.0010412
0.00104123
0.00103913
0.00103468
0.00100412
0.0010327
0.00103228
0.00100609
0.00100605
0.00103422
0.00100407
0.00103286
0.00103266
0.00100627
0.00100654
0.00103244
0.00100614
0.00100632
0.0010346
0.00100453
0.00103258
0.00100663
0.0010065
0.00100434
0.000999409
0.000969315
0.000997376
0.000997385
0.000971317
0.00097138
0.000999362
0.000969357
0.000997526
0.00099784
0.000971363
0.000971628
0.000997588
0.000971405
0.000971344
0.000999805
0.000969519
0.000997739
0.000971649
0.000971396
0.000969351
0.00096457
0.00093406
0.000962575
0.000962659
0.000936129
0.000936226
0.000964616
0.000934167
0.000962595
0.000962802
0.000936084
0.000936126
0.000962591
0.000936244
0.000936222
0.000964728
0.000934042
0.000962606
0.000936148
0.000936181
0.000934156
0.000929248
0.000898597
0.000927266
0.000927344
0.000900655
0.000900692
0.000929352
0.000898663
0.000927216
0.000927213
0.000900612
0.000900513
0.000927384
0.00090071
0.000900745
0.00092922
0.000898508
0.000927338
0.000900546
0.000900698
0.000898645
0.000893787
0.000863168
0.000891794
0.000891818
0.000865212
0.000865179
0.000893845
0.000863106
0.000891754
0.000891661
0.000865189
0.000865077
0.00089183
0.000865129
0.000865056
0.000893699
0.00086304
0.000891784
0.000865035
0.00086504
0.000863002
0.000858351
0.000827529
0.000856335
0.000856271
0.000829587
0.00082954
0.000858269
0.00082749
0.000856322
0.000856217
0.000829614
0.000829622
0.00085615
0.000829525
0.00082951
0.000858227
0.000827573
0.000856146
0.000829605
0.000829535
0.000827501
0.000822695
0.00079198
0.000820672
0.000820653
0.000794019
0.000794061
0.000822671
0.000792034
0.0008207
0.000820749
0.000794027
0.00079408
0.000820651
0.00079409
0.000794105
0.000822754
0.00079204
0.000820677
0.000794116
0.000794114
0.000792077
0.000787165
0.000756545
0.000785152
0.000785206
0.000758579
0.000758619
0.000787226
0.000756586
0.000785151
0.000785193
0.000758568
0.000758574
0.00078526
0.000758648
0.000758685
0.000787217
0.000756557
0.000785259
0.000758601
0.000758673
0.000756623
0.000751736
0.000749725
0.000749749
0.000751768
0.000749717
0.000749723
0.000749809
0.000751749
0.000749801
0.00166223
0.00166254
0.00166202
0.00166255
0.00166274
0.00164551
0.00164506
0.00164549
0.00164564
0.00166256
0.00166487
0.00166215
0.00166557
0.00166306
0.00166288
0.001665
0.00166545
0.00166285
0.00166279
0.00166375
0.00166393
0.00162585
0.00163978
0.00163933
0.00162614
0.00164027
0.00162672
0.0016259
0.0016399
0.00163957
0.00162616
0.00163486
0.00163538
0.00163555
0.00160715
0.00160695
0.00160759
0.00160786
0.00162528
0.00163941
0.00163515
0.00162562
0.00163874
0.00162603
0.00162562
0.00164024
0.00162635
0.00162547
0.00163574
0.00163975
0.00162664
0.00163927
0.0016263
0.00162595
0.00164005
0.00164008
0.00162497
0.0016257
0.00162567
0.00158964
0.00160322
0.00160324
0.00158954
0.00160325
0.00158923
0.00158939
0.00160311
0.00160301
0.00158939
0.00159882
0.00159903
0.00159933
0.00157359
0.001574
0.00157337
0.00157377
0.00158953
0.00160311
0.0015997
0.00159197
0.00160275
0.00158944
0.0015913
0.00160292
0.00158912
0.0015892
0.00159974
0.00160274
0.00159147
0.00160246
0.00159112
0.00158913
0.00160225
0.00160213
0.00158964
0.00158848
0.00158838
0.00155347
0.00156682
0.00156695
0.00155323
0.00156646
0.00155307
0.00155351
0.00156674
0.00156686
0.00155329
0.0015656
0.00156484
0.00156507
0.00154014
0.00153907
0.00153944
0.00153822
0.00155348
0.00156655
0.00156573
0.00155663
0.00156687
0.0015532
0.00155684
0.00156665
0.00155338
0.00155337
0.00156513
0.00156649
0.00155608
0.00156657
0.00155631
0.00155325
0.00156613
0.00156615
0.00155363
0.00155331
0.00155338
0.00151802
0.00153076
0.00153103
0.00151778
0.00153145
0.00151887
0.00151794
0.00153095
0.00153117
0.00151779
0.00152983
0.00153074
0.00152946
0.00150307
0.00150273
0.00150419
0.00150406
0.00151857
0.00153143
0.00152925
0.00151997
0.00153129
0.00151883
0.00152029
0.00153111
0.0015178
0.00151881
0.00152968
0.00153139
0.00152103
0.00153149
0.00152104
0.00151849
0.00153228
0.0015323
0.0015186
0.00151937
0.00151928
0.00148377
0.0014966
0.00149662
0.00148384
0.00149771
0.00148426
0.00148303
0.00149602
0.00149597
0.00148331
0.00149425
0.00149502
0.00149551
0.00146741
0.00146906
0.00146714
0.0014687
0.00148434
0.00149741
0.0014947
0.0014864
0.00149717
0.00148436
0.00148637
0.00149573
0.001483
0.00148342
0.00149509
0.00149636
0.00148562
0.00149694
0.00148612
0.00148309
0.00149701
0.00149681
0.00148472
0.00148315
0.00148296
0.00144819
0.00146199
0.0014618
0.00144852
0.00146098
0.00144702
0.00144872
0.00146194
0.00146164
0.00144893
0.00146037
0.0014579
0.00145923
0.00143252
0.00143233
0.00143193
0.00143116
0.0014474
0.00146115
0.00146027
0.00145089
0.00146137
0.00144711
0.00145089
0.00146207
0.00144918
0.00144754
0.00145833
0.00146112
0.00144913
0.00146063
0.00144916
0.0014483
0.00146041
0.00146059
0.00144725
0.00144744
0.00144767
0.00141226
0.00142589
0.00142551
0.00141258
0.00142477
0.00141212
0.00141334
0.00142671
0.00142671
0.0014132
0.00142279
0.00142382
0.00142246
0.00139797
0.00139696
0.00139879
0.00139831
0.001412
0.00142454
0.00142214
0.001413
0.00142456
0.00141197
0.00141328
0.00142688
0.00141315
0.00141351
0.00142341
0.00142667
0.0014159
0.00142607
0.00141524
0.00141361
0.00142616
0.00142633
0.00141257
0.00141318
0.00141324
0.00137768
0.00139057
0.00139074
0.00137711
0.00139079
0.00137758
0.00137714
0.00139037
0.00139068
0.00137679
0.00138906
0.00139023
0.00139022
0.00136409
0.00136434
0.00136307
0.00136406
0.00137877
0.00139098
0.00138922
0.0013812
0.00139127
0.00137818
0.00138127
0.00139027
0.00137706
0.00137799
0.00139038
0.00139085
0.00138079
0.00139165
0.00138161
0.00137734
0.00139074
0.00139064
0.0013796
0.00137692
0.00137689
0.00134146
0.00135449
0.00135507
0.001341
0.00135508
0.00134185
0.00134157
0.00135448
0.00135489
0.0013412
0.00135518
0.00135381
0.0013543
0.00132611
0.00132562
0.00132653
0.00132532
0.00134183
0.00135544
0.0013549
0.00134493
0.00135564
0.00134194
0.00134502
0.00135549
0.00134217
0.00134165
0.0013534
0.0013551
0.00134402
0.00135495
0.00134402
0.00134202
0.00135477
0.00135481
0.00134147
0.00134207
0.00134218
0.00130588
0.00131898
0.00131894
0.00130612
0.00132017
0.00130691
0.00130537
0.00131887
0.0013189
0.00130573
0.00131595
0.00131739
0.00131605
0.00128769
0.00128847
0.00128937
0.00128955
0.0013061
0.00131977
0.00131586
0.0013067
0.00131906
0.0013066
0.00130672
0.00131895
0.0013049
0.00130592
0.00131671
0.00131932
0.00130793
0.00131936
0.00130772
0.00130549
0.00132053
0.00132041
0.0013058
0.00130693
0.00130672
0.00127086
0.00128448
0.00128411
0.00127118
0.00128424
0.00127047
0.00127002
0.00128386
0.00128312
0.00127065
0.00128011
0.00128002
0.00128081
0.00125404
0.00125493
0.00125329
0.00125447
0.00127051
0.00128405
0.00128104
0.00127267
0.00128385
0.0012705
0.00127247
0.00128222
0.00126922
0.00126932
0.00128052
0.00128235
0.00127103
0.00128285
0.00127147
0.00126902
0.00128368
0.00128345
0.00127048
0.00126976
0.00126959
0.00123469
0.00124854
0.00124831
0.00123488
0.00124733
0.00123352
0.00123516
0.00124855
0.00124821
0.00123515
0.00124647
0.00124473
0.00124597
0.00122073
0.00122054
0.00121968
0.00121971
0.00123405
0.00124731
0.00124633
0.00123726
0.00124758
0.0012336
0.00123752
0.00124793
0.00123519
0.00123438
0.00124501
0.00124735
0.00123656
0.00124713
0.00123645
0.0012347
0.00124684
0.00124681
0.00123439
0.00123339
0.00123353
0.0011985
0.00121191
0.00121187
0.00119839
0.00121106
0.00119811
0.00119962
0.00121259
0.00121304
0.00119907
0.00121151
0.00121125
0.00121091
0.0011852
0.00118402
0.0011852
0.00118428
0.00119874
0.00121119
0.00121032
0.00120114
0.00121166
0.00119834
0.00120133
0.00121355
0.00120034
0.00120004
0.001211
0.00121326
0.00120266
0.00121288
0.00120242
0.00120031
0.0012117
0.00121198
0.00119949
0.00119902
0.00119927
0.00116339
0.00117615
0.00117649
0.00116299
0.00117693
0.00116431
0.00116355
0.00117654
0.00117706
0.00116314
0.00117491
0.00117626
0.0011754
0.00114794
0.00114763
0.0011489
0.00114848
0.0011642
0.00117699
0.00117471
0.00116564
0.00117699
0.00116442
0.00116583
0.00117778
0.00116414
0.00116455
0.00117597
0.00117802
0.001167
0.00117785
0.00116695
0.00116454
0.0011777
0.00117782
0.0011643
0.0011646
0.00116463
0.00112848
0.00114128
0.00114155
0.0011284
0.00114259
0.00112918
0.00112774
0.00114097
0.00114105
0.00112793
0.00113866
0.00113966
0.00113946
0.00111127
0.00111217
0.00111203
0.00111238
0.00112884
0.00114254
0.00113932
0.00113076
0.00114217
0.00112913
0.00113056
0.00114123
0.00112759
0.00112815
0.00113961
0.00114157
0.00113023
0.00114172
0.00113045
0.00112787
0.00114214
0.00114203
0.00112864
0.0011285
0.00112835
0.00109282
0.00110643
0.00110628
0.001093
0.0011063
0.00109253
0.00109229
0.00110597
0.00110556
0.00109268
0.00110338
0.00110293
0.00110329
0.00107662
0.00107686
0.00107613
0.00107631
0.00109249
0.00110618
0.00110382
0.00109487
0.00110598
0.00109252
0.0010948
0.00110502
0.00109169
0.00109176
0.00110303
0.00110496
0.0010938
0.00110516
0.00109397
0.00109159
0.00110572
0.00110555
0.00109234
0.00109219
0.00109204
0.00105673
0.00107041
0.00107022
0.00105689
0.00106971
0.00105626
0.00105684
0.00107033
0.00107008
0.00105695
0.0010681
0.00106738
0.00106746
0.00104175
0.00104156
0.00104123
0.00104132
0.00105645
0.00106962
0.00106789
0.00105882
0.00106973
0.00105625
0.00105896
0.00106969
0.00105664
0.00105649
0.00106725
0.00106946
0.00105853
0.00106946
0.00105848
0.00105649
0.00106985
0.00106979
0.00105659
0.0010566
0.00105662
0.00102128
0.0010345
0.0010344
0.00102131
0.00103423
0.00102125
0.00102164
0.00103472
0.00103477
0.00102154
0.00103267
0.00103258
0.00103267
0.00100662
0.00100637
0.0010066
0.00100666
0.00102139
0.0010342
0.00103224
0.00102348
0.00103432
0.00102128
0.00102354
0.00103492
0.00102193
0.00102182
0.0010325
0.00103478
0.00102393
0.00103468
0.00102389
0.00102189
0.00103455
0.00103465
0.00102177
0.0010214
0.00102149
0.00098654
0.000999489
0.000999524
0.000986453
0.000999609
0.000986633
0.000986712
0.00099966
0.000999795
0.00098656
0.000997641
0.00099792
0.000997918
0.000971564
0.00097146
0.00097179
0.000971557
0.000986674
0.00099958
0.000997528
0.0009888
0.000999558
0.000986667
0.00098884
0.00100009
0.000986922
0.0009869
0.000997933
0.00100005
0.000989207
0.000999904
0.000989211
0.000986968
0.00099958
0.000999643
0.000986859
0.000986545
0.000986591
0.000951552
0.000964602
0.000964698
0.000951493
0.000964799
0.000951638
0.000951485
0.000964603
0.000964691
0.000951444
0.000962715
0.000963028
0.000962744
0.000936239
0.000936322
0.000936397
0.000936274
0.000951723
0.000964792
0.000962683
0.000953897
0.000964742
0.000951704
0.000953916
0.000964738
0.000951467
0.000951671
0.000962834
0.000964783
0.000953935
0.000964771
0.000953982
0.00095158
0.000964751
0.000964759
0.000951796
0.00095164
0.00095163
0.000916248
0.000929484
0.000929477
0.000916282
0.000929518
0.000916268
0.000916135
0.000929413
0.000929367
0.000916207
0.00092745
0.000927475
0.000927436
0.000900658
0.000900759
0.000900674
0.00090083
0.000916327
0.000929507
0.000927427
0.000918484
0.000929498
0.000916294
0.000918543
0.000929295
0.000916045
0.000916201
0.000927339
0.000929319
0.000918337
0.000929383
0.000918441
0.000916099
0.00092957
0.00092954
0.000916431
0.000916261
0.000916226
0.000880796
0.000894136
0.000894083
0.00088083
0.000894065
0.000880734
0.000880736
0.000894074
0.000893989
0.000880792
0.000891877
0.00089176
0.000891925
0.000865193
0.000865227
0.000865069
0.000865154
0.000880737
0.000893992
0.000891865
0.00088293
0.000893957
0.000880717
0.000882961
0.000893908
0.000880669
0.000880654
0.000891733
0.000893844
0.00088278
0.000893845
0.00088283
0.00088063
0.000893952
0.000893926
0.000880817
0.000880602
0.00088059
0.000845118
0.000858504
0.000858482
0.00084512
0.000858427
0.000845113
0.000845167
0.000858515
0.000858499
0.000845152
0.000856328
0.000856197
0.000856237
0.000829739
0.00082961
0.000829647
0.000829567
0.000845123
0.000858351
0.000856227
0.000847309
0.000858325
0.000845105
0.000847316
0.000858497
0.000845196
0.000845158
0.000856166
0.000858384
0.000847315
0.000858322
0.000847299
0.000845169
0.000858353
0.000858358
0.000845232
0.000845067
0.000845076
0.000809553
0.000822814
0.000822836
0.000809521
0.000822897
0.000809614
0.000809559
0.000822833
0.000822866
0.000809526
0.000820723
0.000820808
0.000820698
0.000794158
0.00079415
0.000794207
0.000794136
0.000809666
0.000822851
0.000820659
0.000811793
0.000822811
0.000809649
0.000811799
0.00082291
0.000809589
0.000809699
0.000820736
0.000822892
0.000811879
0.000822861
0.000811879
0.000809655
0.000822915
0.000822923
0.000809787
0.000809664
0.000809665
0.000774107
0.000787355
0.00078736
0.000774113
0.000787393
0.000774111
0.000774096
0.000787346
0.000787345
0.000774103
0.000785304
0.000785323
0.000785296
0.000758629
0.000758728
0.000758661
0.000758768
0.000774231
0.000787402
0.000785266
0.000776385
0.000787391
0.000774176
0.000776419
0.000787377
0.000774121
0.000774209
0.000785274
0.00078738
0.000776346
0.000787379
0.000776398
0.000774165
0.000787498
0.000787493
0.000774356
0.000774198
0.000774196
0.000738693
0.000751979
0.000751947
0.000738721
0.000751932
0.000738668
0.000738719
0.000751986
0.000751957
0.000738741
0.000749857
0.000749789
0.000749907
0.000738714
0.000751901
0.000749824
0.000740889
0.000751901
0.000738675
0.000740942
0.000751984
0.000738728
0.000738733
0.000749784
0.00075193
0.000740883
0.000751899
0.000740919
0.000738721
0.000751938
0.000751945
0.000738863
0.000738619
0.000738627
0.00166291
0.001663
0.00166276
0.00166289
0.00166296
0.00164469
0.00165835
0.00164472
0.00165844
0.00165722
0.00164465
0.00164466
0.00165836
0.00165842
0.00166213
0.00166196
0.00166238
0.00166525
0.00166254
0.00166568
0.0016623
0.00166479
0.00166197
0.00166566
0.00165752
0.0016444
0.001658
0.00164389
0.00165743
0.00164426
0.00165745
0.00164385
0.00165736
0.00165503
0.00164416
0.00164502
0.00165779
0.00165535
0.00164328
0.00165727
0.00165454
0.00164396
0.00164484
0.00165723
0.00165517
0.00164322
0.00166242
0.00166199
0.00166208
0.00166214
0.00164474
0.00165769
0.00165698
0.00164471
0.00164465
0.00165758
0.00165765
0.00164469
0.00165777
0.00166263
0.00166524
0.00166267
0.00166559
0.00166253
0.00166275
0.00166259
0.00166497
0.00166548
0.00166264
0.00165787
0.00164452
0.0016582
0.00164421
0.00165765
0.00165514
0.0016443
0.00164526
0.00165796
0.00165541
0.00164374
0.00165786
0.00164458
0.00165823
0.00164421
0.00165762
0.00165488
0.0016453
0.00164437
0.00165535
0.00165798
0.00164375
0.00166243
0.00166218
0.00166268
0.00166529
0.00166563
0.00166317
0.00166257
0.00166313
0.00165756
0.00165464
0.00164398
0.00164513
0.0016574
0.0016553
0.0016435
0.00165771
0.00164429
0.00165764
0.00164399
0.00165769
0.00165539
0.00164542
0.00164442
0.00165552
0.00165842
0.0016436
0.00165785
0.00164456
0.00165848
0.00164405
0.00166257
0.00166302
0.00166311
0.00166316
0.00164487
0.00165853
0.00165713
0.00164484
0.00164483
0.00165852
0.00165859
0.00164487
0.00165861
0.00166294
0.00166525
0.00166549
0.00166346
0.00166292
0.001663
0.00166301
0.00166352
0.00165796
0.00165502
0.00164547
0.0016445
0.00165546
0.00165819
0.00164411
0.00165803
0.00165544
0.00164558
0.00164468
0.00165552
0.00165871
0.00164415
0.00165828
0.00164465
0.00165844
0.00164444
0.00165837
0.00164482
0.00165884
0.00164446
0.00166365
0.0016639
0.00165746
0.00164495
0.00164493
0.0016591
0.00165923
0.0016449
0.00165895
0.00164494
0.00165926
0.0016401
0.00162629
0.00164008
0.00162625
0.00164003
0.00164003
0.00162462
0.00162624
0.00162621
0.00160782
0.00162164
0.00160774
0.0016216
0.00161987
0.00160778
0.00160771
0.00162159
0.00162157
0.00162585
0.00163975
0.0016393
0.00162633
0.00162529
0.00163945
0.00163498
0.00162604
0.00163857
0.00162589
0.00162547
0.00162529
0.00163935
0.00163471
0.00162546
0.00163851
0.00162607
0.00162529
0.00162132
0.00160782
0.00162154
0.0016078
0.00162134
0.00160802
0.00162175
0.00160783
0.00162072
0.00161725
0.00160773
0.00160796
0.00162126
0.00161652
0.00160759
0.00162073
0.00161703
0.00160791
0.00160792
0.00162149
0.0016164
0.00160762
0.00164023
0.0016402
0.0016243
0.00162672
0.00162667
0.00164022
0.00162666
0.00160801
0.00162209
0.00161972
0.00160798
0.00160789
0.00162207
0.00162203
0.0016079
0.00162196
0.00162539
0.00163959
0.00163532
0.00162622
0.00163897
0.00162594
0.00162585
0.00162591
0.00163997
0.00163958
0.00162619
0.00162544
0.00163537
0.00163966
0.00162646
0.00163898
0.00162592
0.00162596
0.00162128
0.00160773
0.00162153
0.00160759
0.00162074
0.00161738
0.00160763
0.00160807
0.00162125
0.00161681
0.00160739
0.0016213
0.00160764
0.00162154
0.00160761
0.00162078
0.00161765
0.00160822
0.00160759
0.00161692
0.00162127
0.00160743
0.00162575
0.00163975
0.00163938
0.00162624
0.00162525
0.0016355
0.0016396
0.00162668
0.00163882
0.00162598
0.00162559
0.00162569
0.00163986
0.0016394
0.00162581
0.00162064
0.00161713
0.0016078
0.00160808
0.00162142
0.00161662
0.00160738
0.00162117
0.00160787
0.00162167
0.00160753
0.00162059
0.00161761
0.00160819
0.0016071
0.00161689
0.00162083
0.00160729
0.00162109
0.00160717
0.0016211
0.00160743
0.0016402
0.00164019
0.00162503
0.00162632
0.00162623
0.00164021
0.00162625
0.00160762
0.00162164
0.00162021
0.0016076
0.00160748
0.00162161
0.00162151
0.00160745
0.00162152
0.00162543
0.00163587
0.00163982
0.00162693
0.00163928
0.00162641
0.00162569
0.00162581
0.00164
0.00163974
0.00162607
0.00162575
0.00164006
0.00163974
0.00162585
0.00162071
0.00161777
0.0016084
0.00160743
0.00161723
0.00162122
0.00160714
0.00162066
0.0016178
0.00160844
0.00160696
0.00161729
0.00162085
0.00160708
0.00162112
0.00160741
0.00162137
0.00160722
0.00162105
0.00160697
0.00162107
0.00160714
0.00164007
0.00162579
0.00164011
0.00162574
0.00162005
0.0016069
0.00160678
0.00162094
0.00162088
0.00160696
0.00162103
0.0016068
0.00162094
0.00160319
0.00158944
0.00160309
0.00158936
0.00160316
0.00160308
0.0015897
0.00158945
0.0015894
0.00157127
0.00158485
0.00157128
0.00158478
0.00158509
0.00157133
0.00157135
0.00158488
0.00158483
0.00158966
0.00160336
0.00160326
0.00158946
0.00158977
0.00160309
0.00159959
0.00159152
0.00160298
0.00158963
0.00159125
0.00158981
0.00160322
0.00159964
0.00159204
0.00160302
0.0015896
0.00159147
0.00158505
0.0015714
0.00158495
0.00157148
0.00158507
0.00157122
0.00158483
0.00157149
0.00158519
0.00158295
0.00157155
0.00157438
0.00158501
0.00158283
0.00157183
0.00158523
0.00158348
0.00157142
0.00157449
0.0015849
0.00158296
0.00157185
0.00160324
0.00160315
0.00159013
0.00158921
0.00158909
0.00160313
0.00158905
0.00157101
0.00158461
0.00158556
0.001571
0.00157088
0.00158458
0.00158444
0.0015708
0.00158439
0.00158951
0.00160298
0.00159957
0.00159144
0.00160273
0.00158948
0.00159109
0.00158938
0.00160299
0.00160302
0.00158921
0.00158952
0.00159967
0.00160292
0.00159153
0.00160277
0.00159113
0.00158934
0.00158482
0.00157125
0.00158479
0.00157135
0.00158493
0.00158283
0.0015714
0.00157407
0.00158486
0.00158258
0.00157162
0.00158481
0.0015712
0.00158464
0.00157132
0.00158492
0.00158279
0.00157396
0.00157129
0.00158256
0.0015847
0.00157157
0.00158928
0.00160321
0.00160292
0.00158923
0.0015895
0.0015997
0.00160246
0.00159141
0.00160267
0.00159128
0.00158897
0.00158922
0.00160253
0.00160283
0.00158875
0.00158496
0.00158342
0.00157117
0.00157442
0.00158472
0.00158289
0.00157154
0.00158467
0.0015709
0.00158457
0.0015711
0.00158491
0.0015828
0.00157425
0.00157091
0.00158277
0.00158434
0.00157147
0.00158461
0.00157071
0.00158417
0.00157103
0.00160293
0.00160282
0.00158966
0.00158912
0.001589
0.00160274
0.00158894
0.00157112
0.00158455
0.00158498
0.00157112
0.00157102
0.00158456
0.00158443
0.00157097
0.00158437
0.00158918
0.00159977
0.00160229
0.00159135
0.0016024
0.00159115
0.00158872
0.00158892
0.00160275
0.00160258
0.00158896
0.00158886
0.0016023
0.00160251
0.00158848
0.00158459
0.00158272
0.00157385
0.00157106
0.0015825
0.00158448
0.00157121
0.00158457
0.00158267
0.00157394
0.00157074
0.00158258
0.00158411
0.00157119
0.00158433
0.00157093
0.00158439
0.00157089
0.00158428
0.00157055
0.00158392
0.00157085
0.00160229
0.00158848
0.00160211
0.00158832
0.00158502
0.00157051
0.00157053
0.00158393
0.00158385
0.00157046
0.00158389
0.00157048
0.00158377
0.00156673
0.00155316
0.00156676
0.00155329
0.0015668
0.00156683
0.00155455
0.00155322
0.00155329
0.00153511
0.0015486
0.00153523
0.00154875
0.00154968
0.00153517
0.00153522
0.00154868
0.00154874
0.00155348
0.00156668
0.00156696
0.00155324
0.00155387
0.00156693
0.00156587
0.00155704
0.00156719
0.00155345
0.00155727
0.00155387
0.00156683
0.00156594
0.00155689
0.0015672
0.00155347
0.00155721
0.00154891
0.00153519
0.00154866
0.00153548
0.00154892
0.00153564
0.00154878
0.00153551
0.00154921
0.00154803
0.00153542
0.00153937
0.00154883
0.00154845
0.00153581
0.0015492
0.00154759
0.00153576
0.00153909
0.00154895
0.00154826
0.00153579
0.00156647
0.00156636
0.00155436
0.00155309
0.00155307
0.00156628
0.00155305
0.00153571
0.00154862
0.00154939
0.00153577
0.00153591
0.00154863
0.0015487
0.00153598
0.00154868
0.00155378
0.00156683
0.00156551
0.00155687
0.00156701
0.00155345
0.00155692
0.00155347
0.00156672
0.00156682
0.00155341
0.00155372
0.00156534
0.00156673
0.00155635
0.00156695
0.00155669
0.00155347
0.00154901
0.00153542
0.00154879
0.00153564
0.00154917
0.00154792
0.00153558
0.00153933
0.00154887
0.00154821
0.00153595
0.00154897
0.00153561
0.00154893
0.00153565
0.00154912
0.00154744
0.00153918
0.00153575
0.00154798
0.00154894
0.00153595
0.00155323
0.00156636
0.00156657
0.00155301
0.0015534
0.00156552
0.00156635
0.00155589
0.00156679
0.00155656
0.00155326
0.00155317
0.00156625
0.0015665
0.00155319
0.00154884
0.00154719
0.0015358
0.00153847
0.00154869
0.00154771
0.00153579
0.00154877
0.00153584
0.00154863
0.0015358
0.00154877
0.00154678
0.00153825
0.00153605
0.00154743
0.00154883
0.00153578
0.00154874
0.00153617
0.00154886
0.00153583
0.00156665
0.00156655
0.00155385
0.00155337
0.00155334
0.00156651
0.00155332
0.00153559
0.00154891
0.00154906
0.00153563
0.0015358
0.00154893
0.00154893
0.00153585
0.0015489
0.00155334
0.00156514
0.00156622
0.00155563
0.00156655
0.00155617
0.00155328
0.00155326
0.00156645
0.00156642
0.00155319
0.00155324
0.00156614
0.00156638
0.00155324
0.00154882
0.00154714
0.00153849
0.00153582
0.00154741
0.00154877
0.00153593
0.00154879
0.00154662
0.00153814
0.00153619
0.00154709
0.00154888
0.00153591
0.00154887
0.00153583
0.00154878
0.00153594
0.00154886
0.00153636
0.00154897
0.00153599
0.0015661
0.00155328
0.00156612
0.00155339
0.00154881
0.00153653
0.00153657
0.00154906
0.00154914
0.00153654
0.00154906
0.00153663
0.00154919
0.00153065
0.00151763
0.0015307
0.0015174
0.00153068
0.00153071
0.00151834
0.00151755
0.00151745
0.00150078
0.00151334
0.00150036
0.0015131
0.00151348
0.00150061
0.00150035
0.00151326
0.00151311
0.0015181
0.0015313
0.00153108
0.00151853
0.00151805
0.00153086
0.00153002
0.00152039
0.00153116
0.00151776
0.00152065
0.00151809
0.0015313
0.00152975
0.00151995
0.00153115
0.00151845
0.00152046
0.00151368
0.00150083
0.00151348
0.00150092
0.00151377
0.00150149
0.00151424
0.00150103
0.00151353
0.00151134
0.0015006
0.00150248
0.00151336
0.00151148
0.00150068
0.00151357
0.00151115
0.00150134
0.00150252
0.00151408
0.00151133
0.00150077
0.0015315
0.00153169
0.00151794
0.0015189
0.00151909
0.00153176
0.00151921
0.00150198
0.00151465
0.00151327
0.00150195
0.00150203
0.00151466
0.00151485
0.00150209
0.00151496
0.00151825
0.00153105
0.00153025
0.00152067
0.00153138
0.00151788
0.00152115
0.001518
0.00153115
0.00153119
0.00151789
0.0015183
0.00153022
0.00153123
0.00152103
0.00153138
0.00152126
0.00151809
0.00151351
0.00150034
0.00151337
0.00150036
0.00151366
0.00151156
0.00150036
0.00150295
0.00151339
0.00151205
0.00150051
0.00151356
0.0015002
0.00151342
0.00150039
0.00151373
0.00151224
0.0015033
0.0015004
0.00151231
0.00151358
0.00150058
0.00151884
0.00153161
0.0015315
0.00151906
0.00151864
0.00152924
0.00153173
0.0015206
0.0015313
0.00152045
0.00151905
0.00151888
0.00153191
0.00153153
0.00151916
0.00151419
0.0015113
0.0015018
0.00150304
0.00151449
0.00151155
0.0015016
0.00151456
0.00150195
0.00151481
0.00150171
0.00151427
0.00151223
0.00150343
0.00150175
0.00151187
0.00151471
0.00150168
0.00151461
0.00150172
0.00151483