/*--------------------------------*- C++ -*----------------------------------*\
| =========                 |                                                 |
| \\      /  F ield         | OpenFOAM: The Open Source CFD Toolbox           |
|  \\    /   O peration     | Version:  v1906                                 |
|   \\  /    A nd           | Web:      www.OpenFOAM.com                      |
|    \\/     M anipulation  |                                                 |
\*---------------------------------------------------------------------------*/
FoamFile
{
    version     2.0;
    format      ascii;
    class       volScalarField;
    location    "625";
    object      p;
}
// * * * * * * * * * * * * * * * * * * * * * * * * * * * * * * * * * * * * * //

dimensions      [0 2 -2 0 0 0 0];


internalField   nonuniform List<scalar> 
43248
(
0.00168251
0.00168491
0.00168503
0.00168251
0.00168488
0.00168488
0.00168499
0.00168473
0.00168242
0.00168485
0.00168468
0.00168239
0.00168557
0.00168617
0.00168597
0.00168532
0.00168089
0.00168088
0.001681
0.00168099
0.00169481
0.00168088
0.00168099
0.00169479
0.00168044
0.00169441
0.00168089
0.00169526
0.00168121
0.00168542
0.0016945
0.00168162
0.00169527
0.00169429
0.00168084
0.00168557
0.00169468
0.00169473
0.00168161
0.00168014
0.00169412
0.00169593
0.00168021
0.00168029
0.00169418
0.00169422
0.00168025
0.0016942
0.00168085
0.00168093
0.00168118
0.00168535
0.00168155
0.00168038
0.00168085
0.00168543
0.00168077
0.00168153
0.00169526
0.00169422
0.00168095
0.00168542
0.00169471
0.00169455
0.0016817
0.00169488
0.00168062
0.00169451
0.00168109
0.00169525
0.00169376
0.00168524
0.00168143
0.00169429
0.00169484
0.00168172
0.0016949
0.00168113
0.00169466
0.00168119
0.00168012
0.00168023
0.0016803
0.00168025
0.00169514
0.0016853
0.00168089
0.00169443
0.00168162
0.00169515
0.00169371
0.00168515
0.00168139
0.00169422
0.00169477
0.00168164
0.00169475
0.00168059
0.00168105
0.00169478
0.00168114
0.00169459
0.00168114
0.00169571
0.00168132
0.00168134
0.00169457
0.00169457
0.00168122
0.00169452
0.00168125
0.0016945
0.00168538
0.00168536
0.00168572
0.00168152
0.00168549
0.00168095
0.00168544
0.00168605
0.00168122
0.00168571
0.00168146
0.00168548
0.00168094
0.00168542
0.00168602
0.00168122
0.00168544
0.00168093
0.00168093
0.0016854
0.00168538
0.00168097
0.00169003
0.00169464
0.00169478
0.00169024
0.00169463
0.00169003
0.00169021
0.00168533
0.00168543
0.00168091
0.00168546
0.00168078
0.00168539
0.00168558
0.00168076
0.00168098
0.00168538
0.00168557
0.00168078
0.00168995
0.00169463
0.00169471
0.00169021
0.00169459
0.00169
0.00169012
0.00168507
0.00168507
0.0016805
0.00168516
0.00168045
0.00168978
0.00169447
0.00168978
0.00169442
0.00168985
0.00168527
0.00168553
0.00168071
0.00168078
0.00168533
0.00168542
0.00168064
0.00168476
0.00168946
0.00168932
0.0016938
0.00169381
0.00169402
0.00168914
0.00168914
0.00168532
0.00168121
0.00168485
0.00168009
0.00168585
0.00168473
0.00168067
0.00168536
0.00168125
0.00168492
0.00168022
0.00168482
0.00168588
0.00168073
0.00169003
0.00169409
0.00169507
0.00168954
0.0016905
0.00169462
0.00168944
0.00169005
0.00169413
0.00169509
0.00168958
0.00169463
0.0016895
0.00169055
0.00168463
0.00167984
0.00167988
0.00168443
0.00168446
0.00167999
0.00168488
0.00168956
0.00168529
0.00168538
0.00168087
0.00168541
0.00168075
0.00168532
0.00168551
0.00168092
0.00168072
0.00168549
0.0016853
0.00168073
0.00168496
0.00168498
0.00168046
0.00168507
0.00168037
0.00168518
0.00168545
0.00168065
0.00168073
0.00168524
0.00168533
0.00168058
0.00169013
0.0016948
0.00169476
0.00169034
0.00169473
0.00169025
0.00169017
0.00168527
0.00168524
0.00168068
0.00168532
0.00168066
0.00168996
0.00169458
0.00168991
0.00169456
0.00168999
0.00168549
0.0016857
0.00168098
0.00168093
0.0016856
0.00168554
0.00168088
0.00169019
0.00169477
0.00169488
0.00169037
0.00169475
0.0016902
0.00169036
0.00168553
0.00168564
0.00168117
0.00168567
0.00168103
0.0016901
0.00169469
0.00169018
0.0016946
0.0016902
0.00168558
0.00168575
0.001681
0.0016812
0.00168558
0.00168575
0.00168101
0.00168467
0.00168521
0.00168112
0.00168477
0.00168012
0.00168576
0.00168467
0.00168062
0.00168525
0.00168117
0.00168485
0.00168018
0.00168473
0.00168578
0.00168065
0.00168456
0.0016799
0.00167992
0.0016844
0.00168442
0.00168001
0.00168479
0.00168999
0.00169466
0.00169461
0.00169023
0.00169456
0.00169013
0.00169004
0.00168517
0.00168516
0.00168066
0.00168524
0.00168061
0.00168981
0.00168985
0.00168538
0.00168562
0.00168093
0.00168088
0.00168551
0.00168545
0.00168081
0.00169011
0.00169477
0.00169464
0.00169028
0.00169464
0.00169026
0.00169009
0.00168553
0.00168561
0.00168117
0.00168564
0.00168106
0.00169006
0.00169462
0.00169013
0.00169452
0.00169016
0.00168553
0.00168568
0.00168116
0.00168097
0.00168569
0.00168552
0.00168099
0.00169015
0.00169448
0.00169448
0.0016945
0.00169014
0.00169014
0.00168587
0.00168161
0.00168574
0.00168129
0.00168611
0.00168571
0.00168143
0.00168586
0.0016816
0.00168574
0.0016813
0.00168608
0.00168571
0.00168144
0.00169037
0.00169454
0.00169507
0.0016902
0.00169476
0.00169062
0.00169016
0.00169036
0.00169452
0.00169507
0.00169019
0.00169473
0.0016906
0.00169014
0.00168575
0.00168136
0.00168137
0.00168573
0.00168574
0.00168136
0.00168565
0.00169012
0.00168566
0.00169011
0.00168604
0.00168681
0.00168206
0.00168202
0.00168645
0.00168643
0.0016817
0.00168588
0.00168678
0.00168181
0.00168178
0.00168625
0.00168622
0.00168143
0.00168577
0.0016867
0.00168174
0.0016817
0.00168618
0.00168613
0.00168134
0.00168605
0.00168668
0.00168205
0.00168202
0.00168642
0.00168638
0.00168178
0.00168589
0.00168585
0.00169488
0.00169483
0.00168587
0.00169531
0.00168614
0.00168605
0.00169506
0.00169501
0.00169482
0.00168593
0.00168602
0.00168592
0.00169498
0.00169485
0.00168589
0.00169439
0.00168573
0.00168566
0.00169472
0.00169468
0.00169471
0.00168576
0.00169124
0.0016952
0.00169571
0.00169083
0.00169562
0.00169078
0.00169133
0.00168643
0.00168163
0.00168569
0.00168143
0.00168616
0.0016859
0.00168194
0.00168647
0.00168609
0.00168157
0.00168211
0.00168604
0.00168656
0.00168202
0.00169125
0.00169516
0.00169575
0.00169082
0.00169567
0.0016907
0.00169133
0.00168627
0.00168151
0.00168541
0.00168121
0.00168572
0.00168609
0.00168178
0.00169105
0.00169495
0.00169531
0.00169015
0.00169549
0.00169047
0.00169079
0.00168642
0.00168607
0.00168147
0.00168206
0.00168594
0.00168652
0.00168198
0.00169074
0.00169172
0.00169541
0.00169538
0.00169105
0.00169509
0.00169103
0.00168635
0.00168161
0.00168566
0.00168139
0.00168616
0.00168584
0.00168191
0.00168638
0.00168601
0.00168151
0.00168205
0.00168596
0.00168649
0.00168195
0.00168619
0.00168142
0.00168531
0.00168114
0.00168563
0.00168599
0.00168172
0.00168634
0.00168598
0.00168198
0.00168139
0.00168643
0.00168586
0.0016819
0.00169123
0.00169516
0.00169568
0.00169085
0.00169561
0.00169073
0.0016913
0.00168632
0.0016816
0.0016855
0.00168129
0.00168617
0.00168579
0.00168185
0.00169107
0.00169498
0.00169533
0.00169021
0.00169549
0.00169084
0.00169051
0.00168646
0.00168613
0.00168155
0.00168212
0.00168601
0.00168655
0.00168204
0.00169121
0.00169564
0.0016952
0.00169086
0.00169556
0.00169128
0.00169085
0.00168638
0.00168172
0.00168585
0.00168158
0.001686
0.0016862
0.00168197
0.00169105
0.00169502
0.00169525
0.00169044
0.00169541
0.00169061
0.0016908
0.00168647
0.00168615
0.00168212
0.00168169
0.00168655
0.00168612
0.00168206
0.00169114
0.00169558
0.00169503
0.00169074
0.00169549
0.00169121
0.00169062
0.00168623
0.0016815
0.00168541
0.00168123
0.00168605
0.0016857
0.00168177
0.00169096
0.00169039
0.00168637
0.00168604
0.00168203
0.00168148
0.00168647
0.00168591
0.00168196
0.00169114
0.00169557
0.00169511
0.00169076
0.00169549
0.00169121
0.00169072
0.00168634
0.00168161
0.00168581
0.00168153
0.00168594
0.00168615
0.00168195
0.00169101
0.00169493
0.00169519
0.00169039
0.00169536
0.00169057
0.00169075
0.0016864
0.00168607
0.00168206
0.00168162
0.00168649
0.00168603
0.001682
0.00169076
0.00169148
0.00169535
0.00169535
0.00169498
0.00169106
0.00169104
0.00265307
0.00265302
0.00265302
0.00265547
0.0026607
0.00266304
0.00266304
0.0026607
0.00266303
0.00266304
0.00266304
0.00266304
0.0026607
0.00266304
0.00266304
0.0026607
0.00265547
0.00262077
0.00265302
0.00265302
0.00262308
0.00262308
0.00265547
0.00262077
0.00265302
0.00265302
0.00262308
0.00262308
0.00265302
0.00262308
0.00262308
0.00265547
0.00262077
0.00265302
0.00262308
0.00262308
0.00262077
0.00266308
0.00266308
0.00266308
0.00266308
0.00264044
0.00265531
0.00265539
0.00264035
0.00265529
0.00264033
0.00264044
0.00265531
0.00265539
0.00264035
0.00265307
0.00265307
0.00265307
0.00262313
0.00262313
0.00262313
0.00262313
0.0026407
0.00265539
0.00265305
0.00264303
0.00265551
0.00264053
0.00264305
0.00265529
0.00264033
0.0026407
0.00265305
0.00265539
0.00264303
0.00265551
0.00264305
0.00264053
0.00265537
0.00265537
0.0026407
0.0026404
0.0026404
0.00266033
0.00267533
0.00266033
0.00267533
0.00267551
0.0026604
0.0026604
0.00267542
0.00267542
0.00267544
0.00266035
0.00267536
0.00266044
0.00267544
0.00266035
0.00267536
0.00266044
0.00267557
0.00267306
0.00266053
0.00266306
0.00267544
0.00267309
0.00266071
0.00267557
0.00267306
0.00266053
0.00266307
0.00267544
0.00267309
0.00266071
0.00266033
0.00267534
0.00267551
0.0026604
0.00266041
0.00267542
0.00267542
0.00266033
0.00267533
0.00267544
0.00266035
0.00267536
0.00266044
0.00267557
0.00267306
0.00266053
0.00266306
0.00267544
0.00267309
0.0026607
0.00267544
0.00266035
0.00267536
0.00266044
0.00267557
0.00267306
0.00266307
0.00266053
0.00267309
0.00267544
0.0026607
0.00267557
0.00267306
0.00266053
0.00266306
0.00267544
0.00267309
0.00266071
0.00267544
0.00266035
0.00267536
0.00266044
0.00267557
0.00267306
0.00266306
0.00266053
0.00267309
0.00267544
0.00266071
0.00267544
0.00266035
0.00267536
0.00266044
0.00266033
0.00267533
0.00267551
0.0026604
0.0026604
0.00267542
0.00267542
0.00266033
0.00267533
0.00267557
0.00267306
0.00266306
0.00266053
0.00267309
0.00267544
0.00266071
0.00267557
0.00267307
0.00266307
0.00266053
0.00267309
0.00267544
0.00266071
0.00267544
0.00266035
0.00267536
0.00266044
0.00267544
0.00266035
0.00267536
0.00266044
0.00267551
0.0026604
0.0026604
0.00267542
0.00267542
0.00266033
0.00267533
0.00266033
0.00267533
0.00265529
0.00264033
0.00265529
0.00264033
0.00265537
0.00265537
0.0026407
0.0026404
0.0026404
0.00262039
0.00263531
0.00262039
0.00263531
0.00263549
0.00262046
0.00262046
0.00263538
0.00263538
0.00264044
0.00265531
0.00265539
0.00264035
0.0026407
0.00265539
0.00265305
0.00264303
0.00265551
0.00264053
0.00264305
0.0026407
0.00265539
0.00265305
0.00264303
0.00265551
0.00264053
0.00264305
0.00263541
0.00262042
0.00263533
0.00262049
0.00263541
0.00262042
0.00263533
0.00262049
0.00263552
0.00263305
0.00262058
0.00262311
0.0026354
0.00263307
0.00262076
0.00263552
0.00263305
0.00262059
0.00262311
0.0026354
0.00263307
0.00262076
0.00265537
0.00265537
0.0026407
0.0026404
0.0026404
0.00265529
0.00264033
0.00262039
0.00263531
0.00263549
0.00262046
0.00262046
0.00263538
0.00263538
0.00262039
0.00263531
0.0026407
0.00265539
0.00265305
0.00264303
0.00265551
0.00264053
0.00264305
0.00264044
0.00265531
0.00265539
0.00264035
0.0026407
0.00265305
0.00265539
0.00264303
0.00265551
0.00264305
0.00264053
0.00263541
0.00262042
0.00263533
0.00262049
0.00263552
0.00263304
0.00262058
0.00262311
0.0026354
0.00263307
0.00262075
0.00263541
0.00262042
0.00263533
0.00262049
0.00263552
0.00263305
0.00262311
0.00262059
0.00263307
0.0026354
0.00262075
0.00264044
0.00265531
0.00265539
0.00264035
0.0026407
0.00265305
0.00265539
0.00264303
0.00265551
0.00264305
0.00264053
0.00264044
0.00265531
0.00265539
0.00264035
0.00263552
0.00263305
0.00262059
0.00262311
0.0026354
0.00263307
0.00262075
0.00263541
0.00262041
0.00263533
0.00262049
0.00263552
0.00263305
0.00262311
0.00262059
0.00263307
0.0026354
0.00262076
0.00263541
0.00262042
0.00263533
0.00262049
0.00265537
0.00265537
0.0026407
0.0026404
0.0026404
0.00265529
0.00264033
0.00262039
0.00263531
0.00263549
0.00262046
0.00262046
0.00263538
0.00263538
0.00262039
0.00263531
0.0026407
0.00265305
0.00265539
0.00264303
0.00265551
0.00264305
0.00264053
0.00264044
0.00265531
0.00265539
0.00264035
0.00264044
0.00265531
0.00265539
0.00264035
0.00263552
0.00263305
0.00262311
0.00262059
0.00263307
0.0026354
0.00262075
0.00263552
0.00263305
0.00262311
0.00262059
0.00263307
0.0026354
0.00262075
0.0026354
0.00262042
0.00263533
0.00262049
0.0026354
0.00262042
0.00263533
0.00262049
0.00265529
0.00264033
0.00265529
0.00264033
0.00263549
0.00262046
0.00262046
0.00263538
0.00263538
0.00262039
0.00263531
0.00262039
0.0026353
0.00264531
0.00264539
0.00264034
0.00264042
0.00264531
0.00264537
0.00264034
0.00265033
0.00265534
0.00265035
0.00265528
0.00265037
0.00265033
0.00265043
0.00265531
0.00265537
0.00265531
0.00265033
0.00265041
0.00264528
0.00264038
0.00264531
0.00264535
0.00264034
0.00265032
0.00264529
0.00264531
0.00264539
0.00264042
0.00264034
0.00264537
0.00264531
0.00264034
0.00265033
0.00265535
0.00265035
0.00265528
0.00265037
0.00265033
0.00265043
0.00265537
0.00265531
0.00265531
0.00265041
0.00265033
0.00264528
0.00264038
0.00264531
0.00264535
0.00264034
0.00265032
0.00264529
0.00264536
0.00264032
0.00264032
0.00264528
0.00264528
0.00264038
0.00265045
0.00265549
0.00265532
0.0026504
0.0026554
0.00265053
0.00265035
0.00265045
0.00265549
0.00265532
0.0026504
0.0026554
0.00265053
0.00265035
0.00265038
0.00265528
0.00265528
0.00265536
0.00265031
0.00265031
0.0026454
0.00264036
0.00264537
0.00264053
0.00264549
0.00264532
0.00264046
0.0026454
0.00264036
0.00264537
0.00264053
0.00264549
0.00264532
0.00264046
0.0026653
0.00267035
0.0026653
0.00267035
0.00267041
0.00267532
0.00267532
0.00267541
0.00267034
0.00267034
0.00266542
0.00266054
0.00266539
0.00266036
0.00266533
0.0026655
0.00266046
0.00266541
0.00266053
0.00266539
0.00266036
0.00266533
0.0026655
0.00266046
0.00267049
0.00267537
0.00267554
0.00267043
0.00267545
0.00267038
0.00267056
0.00267049
0.00267537
0.00267554
0.00267043
0.00267545
0.00267038
0.00267056
0.00266538
0.00266032
0.00266032
0.00266529
0.00266529
0.00266039
0.00267036
0.00267535
0.00267542
0.00267046
0.00267535
0.00267036
0.00267044
0.0026653
0.00266533
0.00266038
0.00266033
0.00266536
0.00267035
0.00267539
0.00267037
0.00267532
0.0026704
0.00266532
0.00266541
0.00266034
0.00266042
0.00266034
0.00266532
0.00266539
0.00267036
0.00267535
0.00267542
0.00267046
0.00267535
0.00267036
0.00267044
0.0026653
0.00266533
0.00266038
0.00266536
0.00266033
0.00267036
0.00267539
0.00267038
0.00267533
0.00267041
0.00266532
0.00266541
0.00266034
0.00266042
0.00266532
0.00266539
0.00266034
0.0026653
0.00267035
0.00267041
0.00267532
0.00267532
0.00267541
0.00267034
0.00267034
0.00266542
0.00266053
0.00266539
0.00266036
0.00266551
0.00266534
0.00266046
0.00266542
0.00266053
0.00266539
0.00266036
0.00266534
0.0026655
0.00266046
0.00267049
0.00267536
0.00267554
0.00267043
0.00267056
0.00267545
0.00267038
0.00267049
0.00267537
0.00267554
0.00267043
0.00267545
0.00267038
0.00267056
0.00266538
0.00266032
0.00266032
0.00266529
0.00266529
0.00266039
0.0026653
0.00267035
0.00267036
0.00267542
0.00267535
0.00267046
0.00267535
0.00267044
0.00267036
0.0026653
0.00266533
0.00266038
0.00266033
0.00266536
0.00267035
0.00267539
0.00267038
0.00267532
0.0026704
0.00266532
0.00266541
0.00266042
0.00266033
0.00266034
0.00266539
0.00266532
0.00267036
0.00267535
0.00267542
0.00267046
0.00267535
0.00267036
0.00267044
0.0026653
0.00266533
0.00266038
0.00266536
0.00266033
0.00267035
0.00267539
0.00267038
0.00267533
0.0026704
0.00266532
0.00266541
0.00266033
0.00266042
0.00266532
0.00266539
0.00266034
0.00267036
0.00267542
0.00267535
0.00267046
0.00267535
0.00267044
0.00267036
0.0026653
0.00266533
0.00266038
0.00266536
0.00266033
0.00267035
0.00267539
0.00267038
0.00267532
0.0026704
0.00266532
0.00266541
0.00266042
0.00266033
0.00266539
0.00266532
0.00266034
0.00267036
0.00267535
0.00267542
0.00267046
0.00267535
0.00267036
0.00267044
0.0026653
0.00266533
0.00266038
0.00266536
0.00266033
0.00267035
0.00267539
0.00267038
0.00267532
0.0026704
0.00266532
0.00266541
0.00266033
0.00266042
0.00266532
0.00266539
0.00266034
0.0026653
0.00267035
0.00267041
0.00267532
0.00267532
0.00267541
0.00267034
0.00267034
0.00266542
0.00266053
0.00266539
0.00266036
0.0026655
0.00266534
0.00266046
0.00266542
0.00266053
0.00266539
0.00266036
0.00266534
0.0026655
0.00266046
0.00267049
0.00267537
0.00267554
0.00267043
0.00267056
0.00267545
0.00267038
0.00267049
0.00267537
0.00267554
0.00267043
0.00267545
0.00267038
0.00267056
0.00266538
0.00266032
0.00266032
0.00266529
0.00266529
0.00266039
0.0026653
0.00267035
0.00267036
0.00267542
0.00267535
0.00267046
0.00267535
0.00267044
0.00267036
0.00266529
0.00266533
0.00266038
0.00266536
0.00266033
0.00267035
0.00267539
0.00267038
0.00267532
0.0026704
0.00266532
0.00266541
0.00266042
0.00266033
0.00266539
0.00266532
0.00266034
0.00267036
0.00267542
0.00267535
0.00267046
0.00267535
0.00267044
0.00267036
0.0026653
0.00266533
0.00266038
0.00266536
0.00266033
0.00267035
0.00267539
0.00267038
0.00267532
0.0026704
0.00266532
0.00266541
0.00266042
0.00266033
0.00266539
0.00266532
0.00266034
0.00267041
0.00267532
0.00267532
0.00267541
0.00267034
0.00267034
0.00266542
0.00266053
0.00266539
0.00266036
0.00266046
0.0026655
0.00266533
0.00266542
0.00266053
0.00266539
0.00266036
0.00266046
0.00266551
0.00266533
0.00267049
0.00267537
0.00267554
0.00267043
0.00267545
0.00267056
0.00267038
0.00267049
0.00267537
0.00267554
0.00267043
0.00267545
0.00267056
0.00267038
0.00266538
0.00266032
0.00266032
0.00266039
0.00266529
0.00266529
0.0026653
0.00267035
0.0026653
0.00267035
0.00265032
0.00264529
0.00265032
0.00264529
0.00264536
0.00264032
0.00264032
0.00264528
0.00264528
0.00264038
0.00265045
0.00265549
0.00265532
0.0026504
0.0026554
0.00265035
0.00265053
0.00265045
0.00265549
0.00265532
0.0026504
0.0026554
0.00265035
0.00265053
0.00265038
0.00265528
0.00265528
0.00265536
0.00265031
0.00265031
0.0026454
0.00264036
0.00264537
0.00264053
0.00264532
0.00264046
0.00264549
0.0026454
0.00264036
0.00264537
0.00264053
0.00264532
0.00264046
0.00264549
0.00262534
0.00263035
0.00262534
0.00263035
0.00263041
0.00263529
0.00263529
0.00263537
0.00263034
0.00263034
0.00262544
0.0026206
0.00262542
0.00262042
0.00262536
0.00262553
0.00262052
0.00262543
0.00262059
0.00262541
0.00262042
0.00262536
0.00262553
0.00262051
0.00263048
0.00263533
0.0026355
0.00263043
0.00263541
0.00263038
0.00263055
0.00263048
0.00263533
0.0026355
0.00263043
0.00263541
0.00263038
0.00263056
0.0026254
0.00262038
0.00262038
0.00262533
0.00262533
0.00262045
0.00264531
0.00264539
0.00264034
0.00264042
0.00264531
0.00264537
0.00264034
0.00265033
0.00265535
0.00265035
0.00265528
0.00265037
0.00265033
0.00265043
0.00265531
0.00265537
0.00265033
0.00265531
0.00265041
0.00264528
0.00264038
0.00264531
0.00264535
0.00264034
0.00263037
0.00263533
0.00263539
0.00263046
0.00263533
0.00263036
0.00263044
0.00262533
0.00262536
0.00262044
0.00262539
0.0026204
0.00263036
0.00263536
0.00263038
0.0026353
0.0026304
0.00262536
0.00262543
0.0026204
0.00262048
0.00262536
0.00262542
0.00262041
0.00263037
0.00263533
0.00263539
0.00263046
0.00263533
0.00263036
0.00263044
0.00262534
0.00262536
0.00262044
0.00262539
0.0026204
0.00263036
0.00263536
0.00263038
0.0026353
0.0026304
0.00262536
0.00262543
0.0026204
0.00262048
0.00262536
0.00262542
0.00262041
0.00264536
0.00264032
0.00264032
0.00264528
0.00264528
0.00264038
0.00265045
0.00265549
0.00265532
0.0026504
0.00265035
0.0026554
0.00265053
0.00265045
0.00265549
0.00265532
0.0026504
0.00265053
0.0026554
0.00265035
0.00265038
0.00265528
0.00265528
0.00265031
0.00265536
0.00265031
0.0026454
0.00264036
0.00264537
0.00264053
0.00264532
0.00264549
0.00264046
0.0026454
0.00264036
0.00264537
0.00264053
0.00264549
0.00264532
0.00264046
0.00265032
0.00264529
0.00262534
0.00263035
0.00263041
0.00263529
0.00263529
0.00263537
0.00263034
0.00263034
0.00262544
0.00262059
0.00262542
0.00262042
0.00262553
0.00262536
0.00262052
0.00262544
0.00262059
0.00262541
0.00262042
0.00262537
0.00262553
0.00262052
0.00263048
0.00263533
0.0026355
0.00263043
0.00263055
0.00263541
0.00263038
0.00263048
0.00263533
0.0026355
0.00263043
0.00263541
0.00263038
0.00263055
0.0026254
0.00262038
0.00262038
0.00262533
0.00262533
0.00262045
0.00262534
0.00263035
0.00264531
0.00264539
0.00264034
0.00264042
0.00264531
0.00264537
0.00264034
0.00265033
0.00265534
0.00265035
0.00265528
0.00265037
0.00265033
0.00265043
0.00265531
0.00265537
0.00265033
0.00265531
0.00265041
0.00264528
0.00264038
0.00264531
0.00264535
0.00264034
0.00263037
0.00263539
0.00263533
0.00263046
0.00263533
0.00263044
0.00263036
0.00262533
0.00262536
0.00262044
0.00262539
0.0026204
0.00263036
0.00263536
0.00263038
0.0026353
0.0026304
0.00262536
0.00262543
0.00262048
0.0026204
0.00262542
0.00262536
0.00262041
0.00263037
0.00263533
0.00263539
0.00263046
0.00263533
0.00263036
0.00263044
0.00262533
0.00262536
0.00262044
0.00262539
0.0026204
0.00263036
0.00263536
0.00263038
0.0026353
0.0026304
0.00262536
0.00262543
0.0026204
0.00262048
0.00262536
0.00262542
0.00262041
0.00264531
0.00264539
0.00264042
0.00264034
0.00264537
0.00264531
0.00264034
0.00265033
0.00265535
0.00265035
0.00265037
0.00265528
0.00265033
0.00265043
0.00265537
0.00265531
0.00265041
0.00265531
0.00265033
0.00264528
0.00264038
0.00264531
0.00264535
0.00264034
0.00264531
0.00264539
0.00264034
0.00264042
0.00264531
0.00264537
0.00264034
0.00265033
0.00265534
0.00265035
0.00265528
0.00265037
0.00265033
0.00265043
0.00265531
0.00265537
0.00265531
0.00265033
0.00265041
0.00264528
0.00264038
0.00264531
0.00264535
0.00264034
0.00263037
0.00263539
0.00263533
0.00263046
0.00263533
0.00263044
0.00263036
0.00262533
0.00262536
0.00262044
0.00262539
0.0026204
0.00263036
0.00263536
0.00263038
0.0026353
0.0026304
0.00262536
0.00262543
0.00262048
0.0026204
0.00262542
0.00262536
0.0026204
0.00263037
0.00263533
0.00263539
0.00263046
0.00263533
0.00263036
0.00263044
0.00262533
0.00262536
0.00262044
0.00262539
0.0026204
0.00263036
0.00263536
0.00263038
0.0026353
0.0026304
0.00262536
0.00262543
0.0026204
0.00262048
0.00262536
0.00262542
0.00262041
0.00264536
0.00264032
0.00264032
0.00264528
0.00264528
0.00264038
0.00265045
0.00265549
0.00265532
0.0026504
0.00265035
0.0026554
0.00265053
0.00265045
0.00265549
0.00265532
0.00265039
0.00265053
0.0026554
0.00265035
0.00265038
0.00265528
0.00265528
0.00265031
0.00265536
0.00265031
0.0026454
0.00264036
0.00264537
0.00264053
0.00264532
0.00264549
0.00264046
0.0026454
0.00264036
0.00264537
0.00264053
0.00264549
0.00264532
0.00264046
0.00265032
0.00264529
0.00262534
0.00263035
0.00263041
0.00263529
0.00263529
0.00263537
0.00263034
0.00263034
0.00262544
0.00262059
0.00262541
0.00262042
0.00262553
0.00262537
0.00262052
0.00262544
0.00262059
0.00262542
0.00262042
0.00262537
0.00262553
0.00262052
0.00263048
0.00263533
0.0026355
0.00263043
0.00263055
0.00263541
0.00263038
0.00263048
0.00263533
0.0026355
0.00263043
0.00263541
0.00263038
0.00263055
0.00262541
0.00262038
0.00262038
0.00262533
0.00262533
0.00262045
0.00262534
0.00263035
0.00264531
0.00264539
0.00264042
0.00264034
0.00264537
0.00264531
0.00264034
0.00265033
0.00265534
0.00265035
0.00265037
0.00265528
0.00265033
0.00265043
0.00265537
0.00265531
0.00265041
0.00265531
0.00265033
0.00264528
0.00264038
0.00264531
0.00264535
0.00264034
0.00264531
0.00264539
0.00264042
0.00264034
0.00264537
0.00264531
0.00264034
0.00265033
0.00265535
0.00265035
0.00265528
0.00265037
0.00265033
0.00265043
0.00265537
0.00265531
0.00265531
0.00265041
0.00265033
0.00264528
0.00264038
0.00264531
0.00264535
0.00264034
0.00263037
0.00263539
0.00263533
0.00263046
0.00263533
0.00263044
0.00263036
0.00262533
0.00262536
0.00262044
0.00262539
0.0026204
0.00263036
0.00263536
0.00263038
0.0026353
0.0026304
0.00262536
0.00262543
0.00262048
0.0026204
0.00262542
0.00262536
0.00262041
0.00263037
0.00263539
0.00263533
0.00263046
0.00263533
0.00263044
0.00263036
0.00262533
0.00262536
0.00262044
0.00262539
0.0026204
0.00263036
0.00263536
0.00263038
0.0026353
0.0026304
0.00262536
0.00262543
0.00262048
0.0026204
0.00262542
0.00262536
0.0026204
0.00265032
0.00264529
0.00265032
0.00264529
0.00263041
0.00263529
0.00263529
0.00263537
0.00263034
0.00263034
0.00262544
0.00262059
0.00262541
0.00262042
0.00262553
0.00262536
0.00262052
0.00262544
0.00262059
0.00262541
0.00262042
0.00262553
0.00262536
0.00262052
0.00263048
0.00263533
0.0026355
0.00263042
0.00263541
0.00263055
0.00263038
0.00263048
0.00263533
0.0026355
0.00263042
0.00263541
0.00263055
0.00263038
0.0026254
0.00262038
0.00262038
0.00262533
0.00262533
0.00262045
0.00262534
0.00263035
0.00262534
0.00263035
0.00265305
0.00265305
0.00264307
0.00264305
0.00264305
0.00264305
0.00265305
0.00265069
0.00265545
0.00265545
0.00265069
0.00265538
0.00265064
0.00265064
0.0026654
0.00266548
0.00266065
0.00266065
0.00266547
0.00266547
0.0026607
0.0026654
0.00266548
0.00266065
0.00266065
0.00266547
0.00266547
0.0026607
0.0026654
0.00266548
0.00266065
0.00266065
0.00266547
0.00266547
0.0026607
0.0026654
0.00266548
0.00266065
0.00266065
0.0026607
0.00266547
0.00266547
0.00265069
0.00265545
0.00265545
0.00265069
0.00265538
0.00265065
0.00265065
0.00262539
0.00262552
0.00262074
0.00262074
0.0026255
0.00262552
0.0026207
0.00265069
0.00265545
0.00265545
0.00265069
0.00265065
0.00265538
0.00265065
0.00262541
0.00262552
0.00262072
0.00262072
0.0026255
0.0026255
0.00262074
0.00265069
0.00265545
0.00265545
0.00265069
0.00265065
0.00265538
0.00265065
0.00262541
0.00262552
0.00262072
0.00262072
0.0026255
0.0026255
0.00262074
0.00262541
0.00262552
0.00262072
0.00262072
0.0026255
0.0026255
0.00262074
0.0026731
0.00266306
0.00266306
0.00267309
0.00267309
0.00267309
0.00266306
0.0026731
0.00266306
0.00266306
0.00267309
0.00267309
0.00267309
0.00266306
0.0026731
0.00266306
0.00266306
0.00267309
0.00267309
0.00267309
0.00266306
0.0026731
0.00266306
0.00266306
0.00267309
0.00267309
0.00267309
0.00266306
0.00265305
0.00265305
0.00264307
0.00264305
0.00264305
0.00264305
0.00265305
0.00265305
0.00265305
0.00264307
0.00264305
0.00264305
0.00264305
0.00265305
0.00265305
0.00265305
0.00264307
0.00264305
0.00264305
0.00264305
0.00265305
0.00263309
0.00262311
0.00262311
0.00263307
0.00263307
0.00263307
0.00262311
0.00263309
0.00262311
0.00262311
0.00263307
0.00263307
0.00263307
0.00262311
0.00263309
0.00262311
0.00262311
0.00263307
0.00263307
0.00263307
0.0026231
0.00263309
0.00262311
0.00262311
0.00263307
0.00263307
0.00263307
0.00262311
0.00264551
0.00264551
0.00264067
0.00264062
0.00264547
0.00264551
0.00264063
0.00265063
0.0026555
0.00265543
0.00265052
0.00265553
0.00265055
0.0026506
0.00265062
0.0026507
0.00265548
0.00265551
0.00265551
0.00265066
0.00265062
0.00264553
0.00264061
0.00264539
0.00264055
0.0026455
0.00264543
0.00264064
0.00264551
0.00264551
0.00264062
0.00264067
0.0026455
0.00264547
0.00264063
0.00265063
0.0026555
0.00265543
0.00265052
0.00265553
0.00265055
0.0026506
0.00265062
0.0026507
0.0026555
0.00265548
0.00265551
0.00265061
0.00265066
0.00264553
0.00264061
0.00264539
0.00264055
0.0026455
0.00264543
0.00264064
0.00264538
0.00264547
0.00264066
0.00264066
0.00264545
0.00264545
0.00264069
0.00267073
0.00267072
0.0026755
0.0026755
0.00267544
0.00267068
0.00267068
0.00267065
0.00267553
0.00267555
0.00267073
0.00267555
0.0026707
0.00267065
0.00266554
0.00266056
0.00266541
0.00266061
0.00266552
0.00266545
0.00266064
0.00267066
0.00267548
0.00267555
0.00267056
0.00267058
0.00267557
0.00267064
0.00266552
0.00266553
0.00266067
0.00266062
0.0026655
0.00266552
0.00266063
0.00267065
0.00267553
0.00267555
0.00267073
0.00267555
0.0026707
0.00267065
0.00266554
0.00266056
0.00266541
0.00266061
0.00266545
0.00266552
0.00266064
0.00267066
0.00267548
0.00267555
0.00267056
0.00267557
0.00267064
0.00267058
0.00266552
0.00266553
0.00266067
0.00266062
0.0026655
0.00266552
0.00266063
0.00267073
0.00267072
0.0026755
0.0026755
0.00267068
0.00267544
0.00267068
0.00267065
0.00267553
0.00267555
0.00267073
0.00267555
0.0026707
0.00267065
0.00266554
0.00266056
0.0026654
0.00266061
0.00266552
0.00266545
0.00266064
0.00267066
0.00267548
0.00267555
0.00267056
0.00267058
0.00267557
0.00267064
0.00266552
0.00266553
0.00266067
0.00266062
0.0026655
0.00266552
0.00266063
0.00267065
0.00267555
0.00267553
0.00267073
0.00267555
0.00267065
0.0026707
0.00266554
0.00266056
0.00266541
0.00266061
0.00266545
0.00266552
0.00266064
0.00267066
0.00267548
0.00267555
0.00267056
0.00267557
0.00267064
0.00267058
0.00266552
0.00266553
0.00266062
0.00266067
0.00266552
0.0026655
0.00266063
0.00267065
0.00267553
0.00267555
0.00267073
0.00267555
0.0026707
0.00267065
0.00266554
0.00266056
0.00266541
0.00266061
0.00266064
0.00266552
0.00266545
0.00267066
0.00267548
0.00267555
0.00267056
0.00267557
0.00267058
0.00267064
0.00266552
0.00266553
0.00266067
0.00266062
0.00266063
0.0026655
0.00266552
0.00267065
0.00267555
0.00267553
0.00267073
0.00267555
0.00267065
0.0026707
0.00266554
0.00266056
0.00266541
0.00266061
0.00266545
0.00266552
0.00266064
0.00267066
0.00267548
0.00267555
0.00267056
0.00267557
0.00267064
0.00267058
0.00266552
0.00266553
0.00266062
0.00266068
0.00266552
0.0026655
0.00266063
0.00267073
0.00267072
0.0026755
0.0026755
0.00267068
0.00267544
0.00267068
0.00267065
0.00267555
0.00267553
0.00267073
0.00267555
0.00267065
0.0026707
0.00266554
0.00266056
0.00266541
0.00266061
0.00266064
0.00266552
0.00266545
0.00267066
0.00267548
0.00267555
0.00267056
0.00267557
0.00267058
0.00267064
0.00266552
0.00266553
0.00266062
0.00266067
0.00266063
0.00266552
0.0026655
0.00267065
0.00267555
0.00267553
0.00267073
0.00267555
0.00267065
0.0026707
0.00266554
0.00266056
0.00266541
0.00266061
0.00266545
0.00266552
0.00266064
0.00267066
0.00267548
0.00267555
0.00267056
0.00267557
0.00267064
0.00267058
0.00266552
0.00266553
0.00266062
0.00266067
0.00266552
0.0026655
0.00266063
0.00267073
0.00267072
0.0026755
0.0026755
0.00267544
0.00267068
0.00267068
0.00264538
0.00264547
0.00264066
0.00264065
0.00264069
0.00264545
0.00264545
0.00263069
0.00263073
0.00263547
0.00263547