/*--------------------------------*- C++ -*----------------------------------*\
| =========                 |                                                 |
| \\      /  F ield         | OpenFOAM: The Open Source CFD Toolbox           |
|  \\    /   O peration     | Version:  v1906                                 |
|   \\  /    A nd           | Web:      www.OpenFOAM.com                      |
|    \\/     M anipulation  |                                                 |
\*---------------------------------------------------------------------------*/
FoamFile
{
    version     2.0;
    format      ascii;
    class       volVectorField;
    location    "625";
    object      U;
}
// * * * * * * * * * * * * * * * * * * * * * * * * * * * * * * * * * * * * * //

dimensions      [0 1 -1 0 0 0 0];


internalField   nonuniform List<vector> 
42840
(
(-7.20355e-06 -3.36127e-05 0.113113)
(-1.9229e-05 -8.92679e-05 0.108187)
(-2.56643e-05 -4.05069e-05 0.108344)
(-7.33107e-05 -0.000127968 0.104847)
(4.55527e-05 2.39745e-06 0.113321)
(-3.50867e-05 5.19716e-05 0.108514)
(4.28334e-05 -5.1026e-05 0.108373)
(-5.65072e-05 -7.56534e-05 0.104579)
(6.39013e-05 8.72419e-05 0.113478)
(-2.67733e-05 5.41927e-05 0.10815)
(2.29992e-05 9.0216e-07 0.108087)
(-4.82646e-05 2.90189e-06 0.104451)
(5.14859e-05 4.54136e-05 0.113159)
(4.54189e-05 -3.80504e-06 0.107998)
(4.57588e-05 5.47615e-05 0.107964)
(4.7667e-06 -1.43797e-05 0.104599)
(4.09625e-07 -7.31315e-05 0.112936)
(6.87324e-06 -8.67166e-05 0.108261)
(-6.33869e-05 -6.52305e-05 0.107917)
(-4.35514e-05 -8.1946e-05 0.104567)
(-0.000132352 1.77082e-05 0.113152)
(-5.73056e-05 8.28135e-05 0.107951)
(-8.90439e-05 1.03731e-05 0.108056)
(-0.000113691 3.33391e-05 0.104308)
(6.70433e-06 8.71907e-05 0.113333)
(2.83826e-05 4.88788e-05 0.107564)
(0.000135955 7.15557e-05 0.108199)
(3.43825e-05 -3.94022e-05 0.104475)
(0.00013436 -5.52652e-05 0.113083)
(2.75361e-05 -9.25721e-05 0.107858)
(-1.48686e-05 -6.16932e-05 0.107804)
(9.01372e-06 -0.000122693 0.104449)
(5.75426e-06 4.89982e-05 0.11284)
(-1.28802e-05 2.13961e-05 0.107921)
(-4.38619e-05 4.19579e-05 0.107794)
(-8.09713e-05 2.91732e-05 0.104233)
(1.72986e-05 -3.70772e-05 0.112743)
(1.95831e-05 -6.71992e-06 0.107933)
(9.15611e-05 -6.42231e-06 0.107789)
(9.03349e-06 -5.84116e-05 0.104525)
(-6.25963e-05 -0.00011245 0.113036)
(-5.33331e-05 -3.91126e-05 0.108048)
(-7.5717e-05 -9.7979e-05 0.10757)
(-8.16388e-05 -5.59487e-05 0.104438)
(-6.2996e-05 0.00011525 0.113428)
(-1.58075e-05 6.98498e-05 0.107616)
(-4.9697e-05 4.4324e-05 0.107722)
(-0.000103039 3.592e-05 0.104111)
(1.61366e-05 0.000106066 0.113215)
(3.65053e-05 4.67053e-05 0.10738)
(5.2151e-05 8.55441e-05 0.107941)
(1.52121e-05 -4.48111e-05 0.104154)
(9.3935e-05 -2.25398e-05 0.112703)
(4.28868e-05 -4.90434e-05 0.107604)
(3.6905e-05 2.24572e-05 0.10787)
(4.18477e-05 -8.56658e-05 0.104316)
(4.44944e-05 -7.88714e-05 0.112541)
(-1.25844e-05 -5.884e-05 0.107937)
(-1.72342e-05 -4.79135e-05 0.107682)
(-3.8691e-05 -5.36718e-05 0.104338)
(-6.2945e-05 -5.12456e-05 0.112787)
(-3.7072e-05 9.51504e-06 0.107845)
(-2.28788e-05 -4.15081e-05 0.107525)
(-7.67696e-05 9.08407e-07 0.104244)
(-4.42591e-05 4.35296e-05 0.113045)
(3.62991e-06 4.65047e-05 0.107554)
(1.26265e-05 2.18143e-05 0.107518)
(-5.2018e-05 2.76256e-06 0.1042)
(-8.23676e-06 3.36982e-05 0.112975)
(2.48736e-05 -4.11695e-07 0.107482)
(-6.9797e-06 3.70118e-05 0.107616)
(-1.6494e-05 -3.84388e-05 0.104186)
(3.07376e-06 -1.48843e-05 0.112748)
(2.29659e-05 -2.65177e-05 0.107538)
(-1.6483e-05 2.56144e-05 0.10765)
(-8.14938e-06 -4.29721e-05 0.104164)
(4.96438e-06 -2.60812e-05 0.112642)
(1.81035e-05 -7.78219e-06 0.10757)
(4.03501e-06 1.40068e-05 0.107585)
(-1.80693e-05 -2.89186e-05 0.104189)
(-1.24005e-05 -2.41273e-05 0.112625)
(6.97695e-06 -9.62234e-06 0.107564)
(-6.2539e-06 2.71774e-06 0.107527)
(-2.9847e-05 -2.40199e-05 0.104213)
(-1.75113e-05 -1.32004e-05 0.112635)
(5.07126e-06 -7.11064e-06 0.107551)
(-1.07989e-05 3.72342e-06 0.107516)
(-3.62434e-05 -2.55366e-05 0.104196)
(-9.76387e-06 2.76151e-06 0.112627)
(1.10015e-05 3.69379e-06 0.107528)
(-5.89847e-07 1.37911e-05 0.107526)
(-3.11224e-05 -2.62271e-05 0.104185)
(-1.17436e-06 -2.02747e-06 0.112563)
(1.40715e-05 -1.74909e-06 0.107515)
(6.73958e-07 1.39214e-05 0.107521)
(-2.32115e-05 -2.89021e-05 0.104195)
(-8.64518e-06 -1.17337e-05 0.112499)
(1.01671e-05 -8.47822e-06 0.107506)
(-8.85902e-06 9.20476e-06 0.1075)
(-2.51957e-05 -2.59359e-05 0.104204)
(-1.78051e-05 -1.38055e-05 0.112471)
(7.99156e-06 -1.12668e-05 0.107487)
(-1.32397e-05 9.81868e-06 0.107492)
(-2.89785e-05 -2.62135e-05 0.104196)
(6.51578e-06 -3.11741e-05 0.104946)
(4.10207e-05 6.54934e-06 0.108263)
(3.49441e-05 1.31015e-06 0.108036)
(3.21887e-05 -7.69245e-05 0.104825)
(2.82936e-05 1.8309e-06 0.108271)
(1.93568e-06 -1.68715e-05 0.10825)
(-3.1115e-05 -8.47867e-05 0.108061)
(-1.21389e-05 -7.66499e-05 0.108393)
(-4.79029e-05 2.3474e-06 0.104962)
(-3.09971e-05 -3.33689e-05 0.10827)
(-3.42795e-05 -3.23769e-05 0.108434)
(1.93553e-05 -2.6657e-05 0.105041)
(0.000103375 5.90148e-05 0.104787)
(-1.19675e-05 -3.10068e-05 0.104952)
(6.08303e-05 4.33368e-06 0.10831)
(2.76581e-05 -1.67407e-05 0.108163)
(5.54679e-05 3.18932e-05 0.108399)
(-5.11767e-05 8.98517e-06 0.108501)
(-5.81694e-05 1.13915e-05 0.104726)
(3.62058e-06 -1.74448e-05 0.105098)
(3.79084e-05 8.19501e-07 0.108326)
(6.06238e-07 -3.79513e-05 0.108325)
(5.0215e-05 1.60705e-05 0.108414)
(3.15704e-05 -7.25579e-05 0.108416)
(-1.72732e-05 -0.000112266 0.108388)
(-2.52096e-05 1.87388e-05 0.108504)
(-3.84655e-05 -8.99491e-05 0.108261)
(4.53404e-05 -9.378e-05 0.104814)
(-2.54036e-05 6.74722e-06 0.104952)
(-4.35708e-05 -5.48666e-05 0.10844)
(3.02816e-05 -5.3601e-05 0.108413)
(-3.67406e-05 -7.3563e-05 0.108281)
(3.27281e-05 1.72002e-07 0.104779)
(7.18664e-05 6.28067e-05 0.104755)
(-8.11468e-05 -4.61657e-05 0.104741)
(4.16856e-05 4.24004e-05 0.108397)
(-6.71682e-05 2.80359e-05 0.108523)
(-1.15055e-05 4.04217e-05 0.10826)
(-2.3018e-05 4.67663e-05 0.108295)
(-8.50678e-05 7.92362e-05 0.104893)
(6.82975e-05 -3.35839e-05 0.104724)
(4.855e-05 2.40861e-05 0.108404)
(4.2855e-05 -6.61778e-05 0.108386)
(1.79965e-05 2.77239e-05 0.108246)
(4.34446e-05 9.60791e-06 0.108181)
(-4.62005e-05 -5.93988e-05 0.108206)
(-3.47948e-05 5.74917e-05 0.108266)
(-6.02729e-05 3.30372e-05 0.108044)
(6.85192e-05 -7.82781e-05 0.104743)
(-3.89145e-05 8.17506e-05 0.10467)
(-3.32479e-05 -6.61755e-05 0.108204)
(2.98522e-05 -1.98825e-05 0.108155)
(-1.59002e-05 -3.08905e-05 0.108001)
(3.11072e-05 8.18e-05 0.104603)
(3.96097e-06 4.03395e-05 0.104551)
(-3.53847e-05 -4.41941e-05 0.104545)
(-1.93249e-05 3.13087e-05 0.108177)
(1.63515e-06 4.96247e-05 0.108181)
(2.60512e-05 -4.23792e-06 0.107934)
(7.83814e-05 1.54037e-05 0.108004)
(-1.19036e-05 5.37951e-05 0.104524)
(9.85438e-05 -3.48317e-05 0.104611)
(4.0928e-06 2.83548e-05 0.10816)
(2.90955e-05 4.01166e-05 0.108115)
(-1.21474e-05 2.15003e-05 0.107936)
(-7.81363e-06 5.80705e-05 0.107998)
(-4.30822e-05 6.07805e-05 0.108017)
(3.67596e-05 1.79827e-05 0.107979)
(4.31736e-05 6.63276e-05 0.108075)
(4.62588e-05 2.72941e-06 0.104492)
(-2.76906e-05 9.01339e-05 0.104612)
(2.39525e-06 -7.26421e-06 0.107975)
(4.28691e-05 6.04337e-05 0.107979)
(6.00731e-05 5.53304e-05 0.108069)
(8.74977e-05 8.26087e-05 0.104731)
(5.77921e-05 3.50879e-05 0.104385)
(-3.63654e-05 -8.07e-05 0.104527)
(4.82699e-05 -1.09061e-05 0.107874)
(8.43906e-05 -8.16645e-07 0.108014)
(4.97953e-06 -2.64512e-05 0.107833)
(5.29122e-06 -6.75404e-05 0.108157)
(9.87023e-06 4.33375e-05 0.104474)
(3.23738e-05 -0.00011513 0.104838)
(4.38833e-06 7.96365e-06 0.107888)
(-1.02038e-05 3.61628e-05 0.107975)
(2.04339e-05 -6.78283e-05 0.107854)
(-7.99914e-07 -6.90714e-05 0.107878)
(6.536e-05 3.25819e-05 0.108122)
(3.01736e-05 -8.81866e-05 0.108204)
(5.01198e-05 -8.69987e-05 0.108164)
(5.55292e-05 -4.51989e-06 0.104462)
(-6.7517e-05 -1.81708e-05 0.104541)
(6.52016e-05 5.54243e-05 0.108134)
(-1.84544e-05 -4.11631e-05 0.107925)
(-5.98214e-07 -2.75056e-06 0.108193)
(5.74998e-05 -3.69072e-07 0.104755)
(2.89011e-05 4.37844e-06 0.104408)
(-0.000129939 7.63687e-06 0.104794)
(-3.695e-05 -2.39508e-05 0.107883)
(-5.44389e-05 -8.06464e-05 0.108195)
(-0.000124063 1.59707e-05 0.108143)
(-0.000149553 -1.15897e-05 0.108071)
(-7.2138e-05 -3.00604e-05 0.10469)
(-2.24844e-05 -3.73264e-05 0.10463)
(5.95521e-07 -6.98268e-05 0.107892)
(-1.03542e-05 -7.9099e-05 0.107853)
(-7.04183e-05 4.62555e-05 0.108087)
(-3.66322e-05 9.07079e-06 0.107951)
(1.27602e-05 -8.72855e-05 0.108115)
(-5.2788e-05 3.53903e-05 0.108104)
(-9.73788e-05 5.84939e-05 0.107883)
(6.87734e-07 -0.00010405 0.104394)
(-0.000104013 4.76315e-05 0.104666)
(-4.3935e-05 -2.19429e-05 0.108127)
(-0.000117353 -2.75427e-05 0.10799)
(-0.000116844 -4.01147e-06 0.10783)
(-4.01791e-05 0.000104195 0.104459)
(-3.93887e-05 0.000104752 0.104647)
(-2.18082e-05 -4.69976e-05 0.104662)
(-0.000112842 3.57183e-05 0.108199)
(-0.000116644 3.68053e-05 0.10795)
(3.28775e-05 2.08459e-05 0.108094)
(6.66259e-05 8.75159e-05 0.107649)
(-9.10214e-05 6.90589e-05 0.104418)
(0.000104062 2.48225e-05 0.104288)
(-7.33408e-05 9.30052e-05 0.108135)
(-3.65091e-05 5.40171e-05 0.108048)
(-3.54387e-06 5.74383e-05 0.108119)
(4.63475e-06 6.78574e-05 0.108284)
(-9.38183e-05 0.000104349 0.107838)
(2.63722e-06 9.05885e-05 0.107589)
(1.92846e-05 7.33521e-05 0.107867)
(-4.39449e-06 -1.81252e-05 0.104551)
(1.98428e-05 0.000114306 0.104854)
(-0.000100203 1.66229e-05 0.107778)
(9.18911e-05 8.60872e-05 0.108222)
(5.61647e-05 3.97741e-05 0.107883)
(9.51179e-05 6.47419e-05 0.104589)
(8.48788e-05 1.07151e-05 0.104471)
(3.28311e-05 -0.000134499 0.104434)
(8.91675e-05 -1.05922e-05 0.107997)
(0.000107297 6.0473e-05 0.107623)
(0.000126089 -7.0027e-05 0.107761)
(6.82167e-05 -5.33e-05 0.107753)
(3.44965e-05 8.66592e-05 0.10416)
(6.20143e-05 -9.77484e-05 0.104524)
(3.06035e-05 -6.93168e-06 0.108065)
(2.18095e-05 2.63598e-05 0.108259)
(6.47901e-05 -0.000103092 0.107852)
(3.32202e-05 -6.33935e-05 0.107888)
(7.02523e-05 7.00942e-06 0.107912)
(4.5272e-05 -8.21642e-05 0.107763)
(8.99707e-05 -0.000153474 0.107959)
(0.00011346 1.56543e-05 0.104666)
(-4.73492e-05 9.00711e-06 0.104441)
(0.000104837 2.61378e-05 0.107969)
(5.2513e-05 -4.44275e-05 0.107901)
(7.89504e-05 -4.1246e-05 0.108048)
(0.000112981 -5.52602e-05 0.104625)
(9.33591e-05 -3.45964e-05 0.10429)
(-8.85049e-05 2.02263e-05 0.104372)
(8.46922e-05 -5.23061e-05 0.107729)
(2.45749e-05 -6.89632e-05 0.107827)
(-4.48293e-05 3.39673e-05 0.107708)
(-3.51053e-05 -1.05835e-05 0.107926)
(-3.14215e-05 -2.47624e-05 0.104423)
(2.21432e-05 -4.72099e-05 0.104583)
(4.15002e-05 -7.48967e-05 0.107788)
(1.6884e-05 -5.18325e-05 0.107773)
(-3.14669e-05 6.31664e-05 0.107664)
(-3.64165e-05 4.42285e-05 0.107731)
(4.65217e-05 -0.000139529 0.107919)
(-1.97561e-05 -9.62015e-06 0.107952)
(-7.04615e-05 4.5789e-05 0.107746)
(1.46958e-05 -7.39055e-05 0.10427)
(-8.95445e-05 7.0196e-05 0.104461)
(2.52453e-05 -4.79427e-05 0.107974)
(-8.23806e-05 9.37813e-06 0.107757)
(-5.8263e-05 -3.53199e-06 0.107698)
(-1.30137e-05 9.53273e-05 0.104356)
(-1.2166e-05 9.82093e-05 0.104244)
(-9.19174e-06 -5.60838e-05 0.104372)
(-4.62469e-05 5.12303e-05 0.107689)
(-1.03182e-05 1.69806e-05 0.107912)
(8.92393e-06 1.56845e-05 0.107645)
(4.36213e-05 1.7624e-05 0.107904)
(-4.46695e-05 4.35656e-05 0.104433)
(6.68985e-05 -2.8545e-05 0.104559)
(-2.6748e-05 7.94053e-05 0.107637)
(-3.47115e-05 6.11725e-05 0.107785)
(3.52679e-05 -3.19137e-05 0.107645)
(1.22974e-05 -2.69961e-05 0.107837)
(-6.01232e-05 9.31947e-05 0.107732)
(2.43321e-05 1.94205e-05 0.10789)
(4.27741e-05 4.11206e-05 0.107889)
(3.92439e-06 -2.52568e-07 0.104355)
(1.55102e-05 2.52175e-05 0.104509)
(-3.0322e-05 1.93997e-05 0.107675)
(9.27977e-05 3.1079e-05 0.107829)
(8.09156e-05 2.33623e-05 0.107883)
(9.02098e-05 4.23512e-05 0.104631)
(6.90558e-05 1.57503e-06 0.104273)
(-6.23745e-05 -6.60913e-05 0.104702)
(1.25739e-05 -1.1142e-05 0.107684)
(1.94524e-05 -2.68101e-06 0.107933)
(-4.16204e-05 -3.84316e-05 0.107984)
(-9.88897e-05 -4.16651e-05 0.108016)
(-2.64716e-05 4.18134e-05 0.104436)
(-3.01945e-05 -9.01532e-05 0.104664)
(4.22831e-05 -8.14243e-05 0.107699)
(2.51816e-05 -7.73801e-05 0.107782)
(-6.97142e-06 -7.71033e-05 0.107976)
(2.28789e-05 -0.000117837 0.107552)
(6.3085e-05 -1.2454e-05 0.107974)
(-4.01585e-05 -5.40242e-05 0.108067)
(7.38009e-07 -8.55993e-05 0.108045)
(9.00144e-05 -7.16272e-05 0.104345)
(-7.20952e-05 -4.68002e-05 0.104249)
(8.17836e-05 9.4534e-06 0.107986)
(-3.41561e-05 -0.000103106 0.107604)
(-4.49026e-05 -2.86659e-05 0.108032)
(1.57697e-05 1.01786e-05 0.104633)
(7.78042e-06 3.48873e-05 0.104579)
(-0.000118608 3.52629e-05 0.104678)
(-6.05872e-05 -1.95487e-05 0.108088)
(-0.000118792 -3.2104e-05 0.108003)
(-6.35088e-05 4.62841e-05 0.108157)
(-4.64265e-05 3.18686e-05 0.107772)
(-0.000113807 -2.67879e-06 0.104492)
(5.22729e-05 -1.61306e-05 0.104338)
(-3.00823e-05 -2.31514e-05 0.108056)
(1.39133e-05 -7.9594e-05 0.107523)
(-5.92861e-05 0.000136459 0.108088)
(-1.13334e-05 8.51222e-05 0.107673)
(-3.41469e-05 -5.66186e-05 0.107981)
(-3.26342e-05 4.9221e-05 0.107745)
(-8.15575e-05 6.67244e-05 0.107668)
(-6.86883e-06 -0.000107636 0.104115)
(-6.68515e-05 0.000101898 0.104417)
(-9.23505e-05 -2.269e-05 0.107941)
(-8.05122e-05 5.72818e-06 0.107651)
(-0.000131993 1.84463e-05 0.107597)
(-3.7455e-05 0.000114618 0.104258)
(-2.81071e-05 0.000114515 0.104481)
(-2.78084e-05 -6.67537e-05 0.104315)
(-4.93464e-05 4.60836e-05 0.108075)
(-2.16383e-06 4.92011e-05 0.107662)
(2.56509e-05 -2.3654e-06 0.107696)
(7.45342e-05 3.69593e-05 0.107446)
(-9.65823e-06 7.19278e-05 0.104166)
(9.68312e-05 7.24212e-06 0.10415)
(-5.33166e-05 0.000143528 0.108022)
(-1.45871e-05 0.000118126 0.107767)
(-7.50449e-06 3.63576e-05 0.10773)
(-1.86804e-05 0.000106864 0.107973)
(-6.98817e-05 8.16299e-05 0.107583)
(3.08744e-05 6.67582e-05 0.107391)
(7.00412e-06 3.631e-05 0.107496)
(2.04694e-05 3.97225e-05 0.104323)
(-1.42604e-05 0.000124559 0.104615)
(-0.000105649 2.94388e-05 0.107527)
(3.93405e-05 9.02971e-05 0.107912)
(2.71842e-05 1.77581e-05 0.107528)
(7.35153e-05 3.98277e-05 0.104257)
(6.45488e-05 -9.74859e-07 0.104164)
(3.82858e-05 -9.07763e-05 0.104206)
(5.30615e-05 -2.2279e-05 0.107592)
(7.77925e-05 2.40103e-05 0.107425)
(0.000100222 -3.3784e-05 0.107434)
(7.55173e-05 -1.35399e-05 0.107506)
(2.20839e-05 6.92885e-05 0.104039)
(6.75495e-05 -5.37598e-05 0.104303)
(9.71941e-06 -5.95288e-06 0.107648)
(-2.11922e-05 8.15686e-05 0.107989)
(4.73031e-05 -6.47251e-05 0.107513)
(-1.38973e-05 2.89622e-06 0.1079)
(3.12853e-05 1.12712e-05 0.107514)
(4.45657e-05 -3.02711e-05 0.107515)
(7.24096e-05 -4.93582e-05 0.107645)
(6.40981e-05 3.49332e-05 0.104475)
(-3.70589e-05 4.93951e-05 0.104512)
(6.79673e-05 6.58504e-06 0.107572)
(4.67868e-05 4.16065e-05 0.107909)
(0.000117757 -1.30684e-05 0.107726)
(0.000124186 -1.01457e-05 0.104426)
(0.00010672 -1.44032e-05 0.104087)
(-2.06261e-05 -5.86172e-05 0.104251)
(9.75014e-05 -2.48486e-05 0.107417)
(6.60133e-05 -2.54901e-05 0.10758)
(2.06632e-05 -7.05016e-06 0.107467)
(-1.88074e-05 -4.79428e-05 0.107829)
(-1.01163e-05 1.11759e-05 0.104223)
(4.95908e-06 -8.5281e-05 0.10458)
(5.47394e-05 -6.58736e-05 0.107488)
(-9.68549e-06 -1.91338e-05 0.107844)
(3.7562e-05 -6.36032e-05 0.107481)
(-5.73709e-06 -8.01352e-05 0.107673)
(7.03537e-05 -6.20269e-05 0.107695)
(5.60145e-06 -6.54358e-05 0.107883)
(2.35152e-05 -5.44158e-05 0.107792)
(3.77114e-05 -3.94855e-05 0.104356)
(-6.22005e-05 -1.80991e-05 0.104359)
(0.000106637 -1.62797e-05 0.107766)
(-3.95959e-06 -3.2932e-05 0.107731)
(2.97578e-05 -1.99365e-05 0.107805)
(4.87481e-05 1.43604e-05 0.104478)
(3.61942e-05 1.78461e-05 0.104157)
(-9.5138e-05 -1.8827e-05 0.104486)
(-1.60616e-05 -6.12924e-06 0.107526)
(-5.17641e-05 -4.37301e-05 0.107878)
(-7.97163e-05 -1.00023e-06 0.107763)
(-8.55952e-05 -9.41824e-06 0.107874)
(-8.01285e-05 -6.17877e-06 0.104453)
(-1.14955e-06 -5.55536e-05 0.104509)
(1.94296e-05 -5.73552e-05 0.107517)
(-5.47906e-06 -9.26098e-05 0.107622)
(-3.45561e-05 -3.93408e-06 0.107707)
(2.99424e-06 -6.55904e-05 0.107519)
(2.65488e-06 -3.86514e-05 0.107798)
(-4.01995e-05 -1.02085e-05 0.107908)
(-3.77121e-05 2.08112e-05 0.107748)
(1.2079e-05 -9.82739e-05 0.104213)
(-5.5197e-05 -1.6379e-06 0.104251)
(2.26538e-06 -1.93721e-05 0.107788)
(-2.98814e-05 -5.40018e-05 0.107553)
(-4.88526e-05 -4.70541e-06 0.10769)
(-2.57972e-07 7.16444e-05 0.104386)
(-1.94606e-05 6.13671e-05 0.104371)
(-7.49134e-05 -1.08272e-05 0.104483)
(-7.71849e-05 3.83994e-06 0.107823)
(-7.13703e-05 4.698e-06 0.107831)
(-3.34678e-05 1.15749e-05 0.107849)
(6.12068e-06 3.34325e-05 0.107651)
(-7.11277e-05 3.13115e-05 0.104341)
(6.83648e-05 -9.90614e-06 0.104288)
(-4.17612e-05 1.91475e-05 0.107762)
(8.19815e-06 -3.77218e-05 0.107509)
(-3.51013e-05 6.02967e-05 0.107808)
(1.7104e-05 4.67268e-05 0.107539)
(-4.02012e-05 3.77877e-05 0.107719)
(-7.51672e-06 4.63333e-05 0.107615)
(-1.77383e-05 5.42481e-05 0.107644)
(2.41032e-05 -6.32735e-05 0.104123)
(-1.99081e-05 7.83203e-05 0.104271)
(-5.40414e-05 3.18197e-06 0.107657)
(7.50728e-06 9.02966e-06 0.107505)
(-4.06741e-05 2.84774e-05 0.107603)
(1.65392e-05 8.25003e-05 0.104329)
(7.98184e-06 6.15175e-05 0.104328)
(-3.92239e-05 -5.31952e-05 0.104307)
(-1.81024e-05 8.7725e-06 0.107808)
(2.68406e-05 3.41087e-05 0.107594)
(1.1307e-05 -9.64036e-06 0.10763)
(4.08893e-05 4.21184e-06 0.1075)
(-1.53321e-06 6.58181e-05 0.104145)
(6.69576e-05 -3.37444e-05 0.104238)
(-2.90309e-05 5.78953e-05 0.107783)
(1.50928e-05 6.24762e-05 0.107559)
(-1.34435e-05 1.56354e-05 0.107646)
(-8.72889e-06 5.57002e-05 0.107613)
(-4.87281e-06 4.62645e-05 0.107627)
(2.34562e-05 1.48833e-05 0.107479)
(2.06931e-05 2.37761e-06 0.107589)
(5.33306e-05 1.03785e-05 0.104157)
(-4.07639e-05 7.62469e-05 0.104347)
(-3.02221e-05 3.36589e-05 0.107601)
(1.68295e-06 3.74612e-05 0.107591)
(1.34901e-07 2.65127e-05 0.107605)
(5.42827e-05 3.97345e-05 0.104314)
(3.85888e-05 1.70955e-05 0.104168)
(-2.66463e-05 -6.31325e-05 0.104264)
(1.56705e-05 -1.65257e-05 0.107579)
(3.28515e-05 -8.68989e-06 0.107492)
(1.74508e-05 -2.5554e-05 0.107507)
(1.01043e-05 -3.08725e-05 0.107511)
(-9.92903e-06 3.1862e-05 0.104121)
(4.39784e-05 -6.16824e-05 0.104286)
(-1.04829e-05 -2.04477e-07 0.107603)
(-1.95079e-05 4.1567e-05 0.107626)
(-5.754e-06 -2.58845e-05 0.107537)
(-3.57969e-05 1.81239e-06 0.10764)
(2.37873e-05 -8.80778e-06 0.107575)
(2.36698e-05 -2.69521e-05 0.107523)
(2.47341e-05 -1.74099e-05 0.107534)
(2.7372e-05 -3.04278e-06 0.10423)
(-6.28428e-05 4.42268e-05 0.104372)
(8.23594e-06 1.92657e-05 0.1076)
(-1.96552e-05 2.85668e-05 0.107653)
(2.63161e-05 3.57105e-06 0.107565)
(6.52349e-05 2.82941e-05 0.104286)
(4.4858e-05 1.0518e-05 0.104145)
(-3.86961e-05 -5.30581e-05 0.104286)
(1.50291e-05 -2.4288e-05 0.107503)
(7.60717e-06 -3.12506e-05 0.107525)
(2.34642e-06 -1.62027e-05 0.107514)
(8.70971e-06 -2.11813e-05 0.10756)
(-2.8499e-05 1.11953e-05 0.104172)
(4.74164e-05 -4.8403e-05 0.104325)
(-4.14422e-06 -2.77278e-05 0.10753)
(-3.38944e-05 -3.98448e-06 0.107636)
(-2.8866e-06 -2.35322e-05 0.107527)
(-1.77112e-05 -4.18661e-06 0.107599)
(2.34988e-05 -1.43222e-05 0.107527)
(2.03196e-05 -1.19385e-05 0.107566)
(1.93331e-05 1.22036e-06 0.107533)
(1.26075e-05 -3.10129e-05 0.104245)
(-4.4968e-05 4.40904e-05 0.104333)
(2.91803e-05 2.13107e-06 0.107555)
(1.21867e-06 1.70073e-05 0.107605)
(2.7056e-05 5.84765e-06 0.107546)
(5.61655e-05 4.15359e-05 0.104304)
(3.09981e-05 2.0431e-05 0.104171)
(-5.04444e-05 -4.56323e-05 0.104316)
(-2.68916e-06 -1.41723e-05 0.10752)
(8.19455e-06 -1.74074e-05 0.107565)
(-1.39968e-05 -1.34425e-05 0.107543)
(6.24574e-07 -1.20118e-05 0.107561)
(-2.5082e-05 2.5386e-05 0.104206)
(4.05015e-05 -4.73534e-05 0.104326)
(-4.32189e-06 -2.06671e-05 0.107528)
(-1.31451e-05 -3.231e-06 0.107581)
(-1.22619e-05 -1.28063e-05 0.107539)
(-8.15021e-06 -4.8389e-06 0.107531)
(1.82722e-05 5.60431e-06 0.107542)
(9.11765e-06 -7.30813e-06 0.107567)
(1.49029e-05 9.06438e-06 0.107565)
(2.95943e-05 -2.92159e-05 0.104205)
(-4.40054e-05 3.70176e-05 0.104294)
(2.33792e-05 8.42112e-06 0.107549)
(-2.13942e-06 4.91816e-06 0.107537)
(8.263e-06 1.37497e-05 0.107561)
(4.39913e-05 4.85354e-05 0.104331)
(2.10524e-05 2.71028e-05 0.104202)
(-4.95933e-05 -3.9436e-05 0.104342)
(-1.48357e-05 -1.33998e-05 0.107551)
(-1.51416e-06 -1.22898e-05 0.107557)
(-1.21243e-05 -1.07674e-05 0.10757)
(-1.50577e-06 -1.18906e-05 0.107551)
(-3.27665e-05 2.43485e-05 0.104205)
(3.98378e-05 -4.63074e-05 0.104324)
(-1.42913e-05 -1.00303e-05 0.107545)
(-8.56272e-06 -5.08224e-06 0.10752)
(-1.57057e-05 -8.73702e-07 0.107563)
(-8.71061e-06 7.21435e-07 0.107512)
(1.30804e-05 7.56059e-06 0.107566)
(4.63617e-06 -1.0152e-05 0.107555)
(6.01204e-06 4.97668e-06 0.10755)
(2.70551e-05 -3.55282e-05 0.104175)
(-4.56356e-05 3.95918e-05 0.104297)
(3.12344e-06 1.3751e-05 0.107561)
(-1.20364e-05 1.89183e-06 0.107516)
(-6.78666e-06 1.10463e-05 0.107543)
(3.57751e-05 4.63327e-05 0.104317)
(2.3096e-05 3.33777e-05 0.104224)
(-4.56403e-05 -3.86062e-05 0.104329)
(-1.08467e-05 -9.29852e-06 0.107572)
(4.94783e-07 -1.00029e-05 0.107549)
(-5.62428e-06 -5.40246e-06 0.107556)
(8.95955e-06 -3.69317e-06 0.107538)
(-3.11112e-05 2.72261e-05 0.104205)
(4.87076e-05 -3.72862e-05 0.104317)
(-1.52313e-05 1.91155e-06 0.107565)
(-8.03399e-06 4.50841e-06 0.107515)
(-1.16271e-05 5.74679e-06 0.107553)
(-6.46107e-06 1.42848e-05 0.107528)
(4.04882e-06 5.88845e-06 0.107541)
(9.32011e-06 2.61188e-06 0.107534)
(3.19292e-06 8.82748e-06 0.107518)
(2.67758e-05 -3.0257e-05 0.104182)
(-3.9524e-05 5.06407e-05 0.104316)
(-7.44284e-06 1.02661e-05 0.107534)
(-2.84709e-06 1.16617e-05 0.107524)
(-2.10857e-06 9.56051e-06 0.107515)
(3.88646e-05 4.55684e-05 0.104302)
(2.73918e-05 3.25938e-05 0.104206)
(-3.95365e-05 -4.47828e-05 0.104298)
(-3.29358e-06 -5.21973e-06 0.107544)
(1.10192e-05 -3.40333e-06 0.107532)
(1.37178e-06 -8.14463e-06 0.107506)
(1.10613e-05 -7.57143e-06 0.107516)
(-2.2419e-05 3.43761e-05 0.104198)
(4.75174e-05 -4.10595e-05 0.10431)
(-1.00486e-05 4.54296e-06 0.107544)
(-6.73165e-06 1.52085e-05 0.10753)
(-6.29476e-06 -3.42678e-06 0.10751)
(-8.36684e-06 9.95016e-06 0.107525)
(4.74213e-06 8.58897e-06 0.107514)
(1.40012e-05 2.73346e-07 0.107517)
(1.11125e-05 5.56527e-06 0.107511)
(3.23388e-05 -2.06017e-05 0.104201)
(-4.05606e-05 4.72579e-05 0.104317)
(1.24567e-06 9.59494e-06 0.107513)
(1.59501e-06 1.50422e-05 0.107525)
(1.02205e-05 9.43815e-06 0.107515)
(4.75492e-05 4.2364e-05 0.10431)
(3.14768e-05 2.57617e-05 0.10418)
(-4.35563e-05 -4.53112e-05 0.104295)
(7.5899e-07 -9.43561e-06 0.107497)
(9.49546e-06 -9.32668e-06 0.107512)
(-5.35941e-06 -1.13482e-05 0.107484)
(2.69193e-06 -1.25347e-05 0.107501)
(-2.45877e-05 2.91442e-05 0.104194)
(4.11923e-05 -4.68931e-05 0.104309)
(-6.24524e-06 -6.00688e-06 0.107501)
(-8.84747e-06 7.16613e-06 0.107519)
(-9.19454e-06 -8.7882e-06 0.107487)
(-1.14353e-05 1.65086e-06 0.107497)
(1.27222e-05 4.966e-06 0.107512)
(1.15079e-05 -6.97956e-06 0.107509)
(1.45799e-05 5.77127e-06 0.107515)
(2.99296e-05 -2.52406e-05 0.104199)
(-4.66745e-05 4.06391e-05 0.104304)
(1.15975e-05 9.59129e-06 0.107516)
(-6.19516e-06 1.01117e-05 0.107505)
(9.42616e-06 1.21502e-05 0.107517)
(4.66732e-05 4.47306e-05 0.104319)
(2.62352e-05 2.56183e-05 0.104182)
(-4.70607e-05 -4.39595e-05 0.10431)
(-7.6069e-06 -1.16826e-05 0.107484)
(6.49418e-07 -1.31568e-05 0.107497)
(-1.08328e-05 -1.23748e-05 0.107489)
(-7.9845e-07 -1.43757e-05 0.107484)
(-3.03712e-05 2.35132e-05 0.104193)
(3.94855e-05 -4.82548e-05 0.104304)
(-1.08265e-05 -8.37659e-06 0.107486)
(-1.24843e-05 8.81382e-07 0.107491)
(-1.46174e-05 -6.74213e-06 0.107489)
(-1.54269e-05 1.61333e-06 0.107486)
(1.42005e-05 6.17822e-06 0.107514)
(7.80417e-06 -1.13953e-05 0.107492)
(1.08497e-05 5.18556e-06 0.1075)
(2.34266e-05 -3.05874e-05 0.104189)
(-4.91355e-05 4.05628e-05 0.104308)
(7.11857e-06 1.3206e-05 0.107515)
(-1.35782e-05 9.15599e-06 0.107493)
(8.79238e-07 1.33081e-05 0.1075)
(4.16566e-05 4.48974e-05 0.104312)
(2.37453e-05 2.64123e-05 0.104198)
(-1.04399e-05 -1.27048e-05 0.10749)
(4.59142e-07 -1.42367e-05 0.107481)
(-3.03843e-05 2.26464e-05 0.10419)
(-1.49576e-05 -6.85611e-06 0.107491)
(-1.57919e-05 2.57148e-06 0.107486)
(1.00195e-05 4.53731e-06 0.107492)
(2.18415e-05 -2.94129e-05 0.104195)
(8.20743e-07 1.24313e-05 0.107493)
(4.34278e-05 3.3232e-05 0.091046)
(3.80778e-05 2.93188e-06 0.0816463)
(-4.13562e-05 -3.34708e-06 0.0710438)
(2.94685e-05 -1.97905e-06 0.0910598)
(9.73127e-06 1.28354e-05 0.0816525)
(-1.72559e-05 -1.77278e-05 0.113077)
(2.35275e-05 -4.11209e-05 0.112813)
(-3.72707e-05 2.37139e-05 0.113033)
(7.57287e-06 1.63366e-05 0.113236)
(-5.6424e-05 -6.8141e-05 0.0985651)
(-5.5046e-05 -1.2138e-05 0.10793)
(-5.10187e-05 1.12203e-05 0.0927093)
(-7.1536e-05 2.02125e-05 0.11062)
(-9.73376e-07 -2.48831e-05 0.0709139)
(-2.81606e-05 -4.28765e-05 0.098614)
(-1.99906e-05 -2.24941e-05 0.108128)
(-1.49822e-05 -4.02316e-05 0.110699)
(2.85881e-05 -2.77218e-05 0.0927356)
(3.46181e-05 4.30086e-05 0.105022)
(1.53988e-05 -5.64278e-05 0.0870402)
(-2.08648e-05 -7.02335e-06 0.0870299)
(-2.92127e-05 -2.44233e-06 0.0909617)
(-5.92744e-06 3.15786e-05 0.081448)
(-1.61255e-06 3.19462e-05 0.0909545)
(-2.95194e-05 1.45791e-05 0.0814516)
(-3.35369e-05 2.83766e-06 0.0706999)
(1.21417e-06 -4.42404e-07 0.0706668)
(-2.94692e-06 -1.14312e-05 0.090955)
(2.4572e-05 -4.93105e-06 0.0814599)
(2.73056e-05 -1.30642e-05 0.0909602)
(3.51814e-06 -1.05207e-05 0.0814591)
(4.76661e-05 -8.70286e-05 0.112853)
(-4.78134e-05 1.02128e-05 0.113086)
(-3.77504e-06 -2.68921e-05 0.113276)
(3.43517e-05 -1.80676e-05 0.113262)
(1.95941e-05 -7.5415e-05 0.113153)
(-7.36084e-06 -5.66581e-05 0.113263)
(-3.93757e-05 -0.000109637 0.113286)
(-9.79646e-06 1.0833e-05 0.0986052)
(-2.89821e-05 6.22531e-05 0.0926552)
(-4.65069e-05 -0.000141372 0.11062)
(-1.22799e-05 -6.84658e-05 0.108322)
(-6.90733e-05 -4.5506e-05 0.0985304)
(2.35452e-05 4.86572e-05 0.0926794)
(-3.5431e-05 -0.00013956 0.110679)
(9.25205e-06 -6.92954e-06 0.0706908)
(3.23841e-06 1.19111e-05 0.070708)
(1.54772e-05 -9.04717e-06 0.0985828)
(-5.49648e-05 -5.22251e-05 0.110776)
(2.81156e-05 -2.94086e-05 0.0926106)
(-1.10254e-05 -4.72115e-05 0.108399)
(-8.15343e-06 -5.64499e-05 0.0985532)
(-4.58767e-05 -5.62433e-05 0.110817)
(1.08377e-05 7.69861e-06 0.0926106)
(-2.46033e-05 -2.63834e-06 0.0868637)
(8.06357e-06 -2.81887e-05 0.0868648)
(2.38865e-05 -4.00221e-05 0.104927)
(-2.16017e-05 3.72539e-05 0.0868728)
(2.10818e-05 -9.5203e-06 0.08688)
(-1.96447e-05 -3.11166e-05 0.090908)
(-3.36854e-05 1.43895e-05 0.0814377)
(-3.31139e-05 -1.17569e-05 0.0908859)
(-2.27164e-05 -6.70019e-06 0.0815245)
(2.15112e-05 3.96251e-06 0.0706983)
(1.83092e-05 -3.47136e-06 0.0708258)
(-3.03472e-05 1.49714e-05 0.0908969)
(1.98884e-06 -8.59983e-07 0.0814288)
(-1.08701e-05 4.6722e-06 0.0908713)
(-1.80225e-05 3.70506e-06 0.0815115)
(-1.71079e-05 -3.1087e-05 0.113269)
(1.87873e-05 -7.49881e-05 0.11331)
(-5.34425e-05 -0.000115151 0.113266)
(6.83563e-05 7.4198e-05 0.113474)
(-9.8111e-05 8.79566e-05 0.113488)
(7.09391e-05 -7.94407e-05 0.113396)
(-8.19657e-05 -7.96674e-05 0.113201)
(4.33129e-05 4.84311e-05 0.0984851)
(7.43383e-06 -2.6016e-06 0.0925166)
(-2.79362e-05 -2.17313e-07 0.110904)
(-3.93129e-05 6.4793e-05 0.108468)
(7.36627e-06 6.18749e-05 0.0984915)
(2.73874e-05 -2.41314e-05 0.0925253)
(-3.08475e-05 3.81677e-05 0.110951)
(7.75331e-06 2.23227e-05 0.0707482)
(3.1288e-06 2.47003e-05 0.0708716)
(1.93374e-05 3.53145e-05 0.0984265)
(1.39459e-05 -5.4977e-05 0.110887)
(-2.08014e-06 1.43909e-06 0.0924686)
(4.51254e-05 -4.41252e-05 0.108309)
(2.98856e-05 -1.31242e-06 0.0984219)
(2.34193e-05 -4.95262e-05 0.110885)
(-1.08558e-05 2.37526e-05 0.0925014)
(-1.84275e-05 4.86928e-05 0.086861)
(5.02652e-06 8.16621e-06 0.0868704)
(2.92117e-05 4.72997e-05 0.104661)
(-2.90943e-06 4.43068e-05 0.0869346)
(6.39978e-06 1.90889e-05 0.0869409)
(1.33399e-05 -1.53643e-05 0.0909338)
(8.36171e-06 -6.24778e-06 0.0815677)
(4.04961e-06 -9.17417e-06 0.090883)
(1.16234e-05 -2.4358e-05 0.0816426)
(5.03598e-06 -5.80987e-08 0.0709042)
(-3.58416e-06 -8.94407e-06 0.0709755)
(-1.81622e-05 3.83399e-06 0.0909347)
(-2.10999e-06 1.09401e-06 0.0815599)
(-1.05715e-05 1.57984e-05 0.0908794)
(-7.83633e-06 -1.52282e-05 0.0816389)
(-9.091e-05 0.000104837 0.11349)
(6.75315e-05 -5.1219e-05 0.113394)
(-6.4695e-05 -4.17821e-05 0.113184)
(4.57125e-05 6.71112e-05 0.113263)
(2.96774e-05 6.96138e-05 0.113346)
(5.55434e-05 4.73211e-05 0.113269)
(4.68624e-05 7.6567e-05 0.113199)
(1.30786e-05 1.05412e-05 0.0983619)
(2.70581e-06 4.38679e-06 0.0924783)
(-3.15678e-05 7.66962e-05 0.110887)
(-7.36965e-06 4.70475e-05 0.108055)
(6.14914e-06 2.12653e-05 0.0983146)
(1.11829e-05 6.21672e-06 0.0925528)
(-2.64472e-05 7.47919e-05 0.110809)
(3.30931e-06 1.9724e-06 0.0709015)
(-1.03892e-05 -9.81368e-06 0.0709475)
(1.1444e-05 2.31369e-05 0.0983901)
(2.33e-05 -1.6772e-05 0.110779)
(1.37789e-05 -7.8403e-07 0.092492)
(2.34635e-05 2.74007e-05 0.108036)
(9.52609e-06 6.73363e-06 0.0983146)
(3.2512e-05 -2.01284e-06 0.110717)
(1.11013e-05 2.02751e-05 0.092593)
(4.75719e-06 -1.5179e-05 0.0869493)
(-1.25474e-05 4.72193e-06 0.0869498)
(6.00562e-05 0.000100113 0.104636)
(2.55458e-05 -3.65574e-05 0.0870066)
(-9.73697e-06 1.06194e-05 0.0870096)
(-2.67994e-05 -9.80913e-07 0.0909597)
(-9.92347e-06 4.40645e-06 0.0816309)
(-1.77246e-06 9.41376e-06 0.0909137)
(-2.1074e-05 4.21582e-06 0.0816648)
(-3.467e-05 -4.86045e-06 0.0709061)
(-3.35846e-05 -6.50205e-06 0.0708795)
(-3.38013e-06 -3.14636e-05 0.0909565)
(8.63337e-06 -2.76185e-05 0.0816184)
(4.47481e-06 -2.61738e-05 0.0909228)
(-9.08233e-06 -3.1161e-06 0.0816568)
(6.97405e-05 3.97869e-05 0.113304)
(5.7362e-05 5.72985e-05 0.113204)
(7.92252e-05 8.66903e-05 0.113227)
(3.45108e-05 -4.8875e-05 0.112949)
(8.82633e-05 -7.26581e-05 0.113293)
(3.88715e-05 -2.7407e-05 0.11303)
(6.32576e-05 -1.86668e-05 0.113308)
(1.76443e-05 -5.39395e-05 0.0984747)
(-2.47941e-05 -1.76161e-06 0.0925455)
(2.87549e-05 1.49885e-05 0.11062)
(4.77067e-05 -3.39222e-05 0.10805)
(-1.54327e-05 -3.0128e-05 0.0983567)
(-6.13422e-06 -2.15519e-05 0.0926431)
(4.23908e-05 -2.70539e-05 0.110611)
(-1.12518e-05 -1.96591e-05 0.070913)
(-1.35539e-05 -8.2196e-06 0.070996)
(-3.17191e-05 2.4588e-05 0.0984781)
(7.61815e-05 5.38263e-05 0.110585)
(-2.23619e-05 -1.12952e-05 0.0925963)