/*--------------------------------*- C++ -*----------------------------------*\
| =========                 |                                                 |
| \\      /  F ield         | OpenFOAM: The Open Source CFD Toolbox           |
|  \\    /   O peration     | Version:  v1906                                 |
|   \\  /    A nd           | Web:      www.OpenFOAM.com                      |
|    \\/     M anipulation  |                                                 |
\*---------------------------------------------------------------------------*/
FoamFile
{
    version     2.0;
    format      ascii;
    class       volScalarField;
    location    "600";
    object      k;
}
// * * * * * * * * * * * * * * * * * * * * * * * * * * * * * * * * * * * * * //

dimensions      [0 2 -2 0 0 0 0];


internalField   nonuniform List<scalar> 
43248
(
4.17688e-05
3.6458e-05
3.64584e-05
4.17582e-05
3.64555e-05
3.64597e-05
3.64561e-05
3.64627e-05
4.17647e-05
3.6459e-05
3.64602e-05
4.17687e-05
2.08481e-05
2.08478e-05
2.08511e-05
2.08525e-05
6.95306e-05
6.95334e-05
6.68946e-05
6.69044e-05
6.46105e-05
7.13521e-05
6.47072e-05
6.46125e-05
7.13568e-05
7.13232e-05
6.47094e-05
5.3089e-05
6.01853e-05
2.88242e-05
2.8579e-05
5.3292e-05
5.30911e-05
3.62266e-05
6.01909e-05
2.88258e-05
6.00674e-05
2.85807e-05
5.32934e-05
6.95334e-05
6.95074e-05
4.15652e-05
6.69059e-05
6.68895e-05
6.68414e-05
6.68297e-05
6.95294e-05
6.95033e-05
7.13584e-05
6.47127e-05
6.01901e-05
2.88293e-05
5.32932e-05
7.1353e-05
6.47094e-05
2.883e-05
6.01839e-05
5.32934e-05
5.30941e-05
3.62242e-05
6.01842e-05
2.8826e-05
6.0066e-05
2.85812e-05
5.32945e-05
6.46143e-05
7.13555e-05
7.13219e-05
6.47096e-05
5.30934e-05
3.62307e-05
2.88297e-05
6.01872e-05
2.85847e-05
6.00655e-05
5.32942e-05
6.46128e-05
7.13534e-05
7.13195e-05
6.47085e-05
6.9532e-05
6.68971e-05
6.68943e-05
6.95317e-05
5.30936e-05
2.88313e-05
6.01882e-05
2.85862e-05
5.32937e-05
5.30941e-05
3.62283e-05
2.8832e-05
6.01917e-05
2.85871e-05
6.00687e-05
5.32951e-05
6.4612e-05
7.13549e-05
6.47121e-05
6.46149e-05
7.13575e-05
7.1324e-05
6.47117e-05
4.15708e-05
6.6894e-05
6.69065e-05
6.68335e-05
6.68432e-05
6.95316e-05
6.95057e-05
6.95343e-05
6.95084e-05
6.95181e-05
6.95209e-05
7.00283e-05
5.93319e-05
6.68774e-05
7.11348e-05
7.11199e-05
5.92674e-05
7.00685e-05
7.00887e-05
5.93256e-05
6.68855e-05
7.11447e-05
7.11304e-05
5.92857e-05
7.00985e-05
9.2341e-05
7.20366e-05
7.20299e-05
7.20225e-05
7.20161e-05
9.23483e-05
7.01242e-05
6.98214e-05
6.8118e-05
6.46485e-05
7.01142e-05
6.98301e-05
6.81503e-05
7.01836e-05
7.13367e-05
7.73849e-05
7.73657e-05
7.01981e-05
7.0127e-05
6.46691e-05
6.98437e-05
6.82008e-05
6.9835e-05
6.81663e-05
7.01374e-05
7.01267e-05
6.98222e-05
6.8126e-05
6.46506e-05
7.0117e-05
6.98309e-05
6.81579e-05
7.01869e-05
7.13439e-05
7.7408e-05
7.73874e-05
7.02009e-05
7.01911e-05
7.73583e-05
7.13363e-05
7.01771e-05
7.73787e-05
7.01301e-05
6.46708e-05
6.98445e-05
6.8207e-05
6.98358e-05
6.81761e-05
7.01396e-05
6.95209e-05
6.95198e-05
9.23151e-05
7.20057e-05
7.2011e-05
9.23034e-05
7.20196e-05
7.20249e-05
7.00852e-05
5.93318e-05
6.68866e-05
7.11453e-05
5.92812e-05
7.11307e-05
7.0106e-05
7.00336e-05
5.93214e-05
6.6875e-05
7.11355e-05
7.11173e-05
5.92725e-05
7.00548e-05
7.00406e-05
7.11072e-05
5.91825e-05
6.68612e-05
5.92336e-05
7.00195e-05
7.11221e-05
6.99894e-05
7.1094e-05
5.91736e-05
6.68446e-05
6.9968e-05
7.11119e-05
5.92232e-05
9.23387e-05
7.20307e-05
7.2036e-05
7.20167e-05
7.20221e-05
9.23476e-05
6.95168e-05
6.95159e-05
7.01868e-05
7.1343e-05
7.74065e-05
7.73854e-05
7.02009e-05
7.01293e-05
6.46719e-05
6.82077e-05
6.98484e-05
6.81749e-05
6.98353e-05
7.0142e-05
7.01839e-05
7.13389e-05
7.73844e-05
7.73652e-05
7.01985e-05
7.01281e-05
6.46705e-05
6.98475e-05
6.82006e-05
6.98344e-05
6.81674e-05
7.01383e-05
7.01263e-05
6.81254e-05
6.98226e-05
6.46516e-05
7.01166e-05
6.81574e-05
6.98312e-05
7.0186e-05
7.13426e-05
7.74043e-05
7.73855e-05
7.02e-05
7.01902e-05
7.73563e-05
7.1335e-05
7.01763e-05
7.73752e-05
7.01296e-05
6.46729e-05
6.82079e-05
6.98448e-05
6.81735e-05
6.98361e-05
7.01403e-05
7.01254e-05
6.98221e-05
6.81205e-05
6.46503e-05
7.01157e-05
6.98308e-05
6.81533e-05
7.01851e-05
7.13402e-05
7.7387e-05
7.7368e-05
7.01991e-05
7.01892e-05
7.73387e-05
7.13328e-05
7.01753e-05
7.73579e-05
7.01288e-05
6.46711e-05
6.98444e-05
6.82027e-05
6.98357e-05
6.81704e-05
7.01395e-05
6.95193e-05
7.00855e-05
5.93295e-05
6.6882e-05
7.11455e-05
5.92817e-05
7.11269e-05
7.01068e-05
7.00362e-05
5.93255e-05
6.68768e-05
7.11348e-05
7.11202e-05
5.92742e-05
7.00571e-05
9.23422e-05
7.20307e-05
7.20369e-05
7.20167e-05
7.2023e-05
9.2355e-05
6.95193e-05
7.01264e-05
6.81183e-05
6.9823e-05
6.46535e-05
7.01154e-05
6.81542e-05
6.98324e-05
7.01857e-05
7.13391e-05
7.73877e-05
7.73672e-05
7.01997e-05
7.01898e-05
7.73584e-05
7.01282e-05
6.4671e-05
6.82041e-05
6.98471e-05
6.81683e-05
6.98356e-05
7.01397e-05
7.01267e-05
6.81245e-05
6.98236e-05
6.4653e-05
7.01169e-05
6.81563e-05
6.98323e-05
7.01862e-05
7.13446e-05
7.74029e-05
7.73838e-05
7.02008e-05
7.0191e-05
7.73551e-05
7.13371e-05
7.01765e-05
7.73738e-05
7.01298e-05
6.46727e-05
6.82056e-05
6.98459e-05
6.81741e-05
6.98371e-05
7.01397e-05
9.23186e-05
7.20122e-05
7.20062e-05
9.23068e-05
7.20261e-05
7.202e-05
7.00351e-05
5.93244e-05
6.68787e-05
7.11368e-05
5.9274e-05
7.11184e-05
7.00563e-05
7.00875e-05
5.93354e-05
6.68882e-05
7.11461e-05
5.92835e-05
7.11314e-05
7.01086e-05
6.99909e-05
7.10951e-05
5.91751e-05
6.6849e-05
6.99693e-05
5.92263e-05
7.1113e-05
7.00432e-05
7.11078e-05
5.91847e-05
6.68618e-05
7.00219e-05
5.92374e-05
7.11229e-05
9.23422e-05
7.20372e-05
7.20311e-05
7.20233e-05
7.20173e-05
9.2351e-05
6.95192e-05
6.9518e-05
6.95219e-05
6.95208e-05
5.95187e-05
4.17731e-05
5.051e-05
5.05062e-05
5.04659e-05
5.04732e-05
5.95503e-05
5.9518e-05
4.17537e-05
5.04992e-05
5.04963e-05
5.0468e-05
5.04669e-05
5.9549e-05
5.9519e-05
4.17696e-05
5.04992e-05
5.05087e-05
5.04735e-05
5.04689e-05
5.95507e-05
5.95201e-05
4.1762e-05
5.05003e-05
5.05032e-05
5.04687e-05
5.04726e-05
5.95519e-05
1.49184e-05
1.49189e-05
1.48071e-05
1.07942e-05
1.08211e-05
2.06629e-05
1.49185e-05
1.49172e-05
1.48072e-05
1.48059e-05
1.07939e-05
1.08208e-05
1.49216e-05
1.49206e-05
1.48091e-05
1.07953e-05
1.08223e-05
2.06675e-05
1.49213e-05
1.49208e-05
1.48099e-05
1.48094e-05
1.07953e-05
1.08222e-05
4.55334e-05
5.54144e-05
4.35593e-05
5.317e-05
4.55352e-05
5.54858e-05
4.36063e-05
4.80424e-05
5.25108e-05
6.01377e-05
5.85109e-05
5.24759e-05
5.84522e-05
4.80853e-05
4.57083e-05
5.32116e-05
5.55977e-05
4.37944e-05
5.55242e-05
4.37417e-05
4.57265e-05
4.55409e-05
5.5421e-05
4.35632e-05
5.31717e-05
4.55408e-05
5.5491e-05
4.36075e-05
4.80597e-05
5.25238e-05
6.01419e-05
5.85195e-05
5.84614e-05
5.2483e-05
4.80716e-05
4.79218e-05
5.8368e-05
5.23533e-05
6.01164e-05
4.79066e-05
5.84269e-05
5.23854e-05
4.57123e-05
5.32135e-05
5.56005e-05
4.37942e-05
5.55333e-05
4.37433e-05
4.56993e-05
5.94452e-05
4.15903e-05
5.03194e-05
5.03173e-05
5.03609e-05
5.94119e-05
5.03591e-05
4.80604e-05
5.2514e-05
6.01433e-05
5.85186e-05
5.2488e-05
5.84617e-05
4.80718e-05
4.57156e-05
5.32186e-05
5.55997e-05
4.37767e-05
5.55355e-05
4.37612e-05
4.57027e-05
4.80564e-05
5.25145e-05
6.01414e-05
5.85105e-05
5.84522e-05
5.24829e-05
4.80689e-05
4.5711e-05
5.32142e-05
4.37762e-05
5.55978e-05
4.37603e-05
5.55264e-05
4.56987e-05
4.55348e-05
5.54201e-05
4.35772e-05
5.31729e-05
4.55272e-05
5.54904e-05
4.36031e-05
4.8053e-05
5.25228e-05
6.01407e-05
5.85177e-05
5.24746e-05
5.84592e-05
4.80856e-05
4.79193e-05
5.83657e-05
5.23441e-05
6.011e-05
4.79044e-05
5.23875e-05
5.8425e-05
4.56929e-05
5.32164e-05
5.56024e-05
4.37953e-05
5.55292e-05
4.3745e-05
4.57222e-05
4.55336e-05
4.35773e-05
5.54181e-05
5.31723e-05
4.55315e-05
4.35992e-05
5.54889e-05
4.8059e-05
5.25135e-05
6.01403e-05
5.85136e-05
5.84556e-05
5.24843e-05
4.80706e-05
4.79204e-05
5.83621e-05
5.23518e-05
6.01131e-05
4.79061e-05
5.8421e-05
5.23829e-05
4.57067e-05
5.32145e-05
4.37947e-05
5.55999e-05
4.37472e-05
5.55295e-05
4.57e-05
4.55464e-05
4.35656e-05
5.54161e-05
5.31738e-05
4.55203e-05
4.36105e-05
5.54901e-05
4.80504e-05
5.25109e-05
6.01396e-05
5.85134e-05
5.24813e-05
5.84547e-05
4.80662e-05
4.79298e-05
5.84207e-05
4.56912e-05
5.32173e-05
4.37737e-05
5.56009e-05
4.3753e-05
5.55273e-05
4.57046e-05
4.55438e-05
4.35706e-05
5.54201e-05
5.31736e-05
4.5544e-05
4.36091e-05
5.54919e-05
4.80613e-05
5.2522e-05
6.01434e-05
5.85183e-05
5.84608e-05
5.24865e-05
4.80719e-05
4.79227e-05
5.83673e-05
5.2355e-05
6.01175e-05
4.79081e-05
5.84258e-05
5.23876e-05
4.57127e-05
5.32163e-05
4.37951e-05
5.56017e-05
4.3745e-05
5.55323e-05
4.56988e-05
5.94473e-05
4.15978e-05
5.03198e-05
5.03241e-05
5.94134e-05
5.0361e-05
5.03648e-05
1.49181e-05
1.61042e-05
1.61053e-05
1.80887e-05
1.79696e-05
1.60861e-05
1.6085e-05
1.79818e-05
1.60857e-05
1.60856e-05
1.6085e-05
1.6085e-05
1.79822e-05
1.6086e-05
1.60856e-05
1.79669e-05
1.80876e-05
1.85379e-05
1.61049e-05
1.61043e-05
1.61969e-05
1.61957e-05
1.80759e-05
1.8555e-05
1.61055e-05
1.6105e-05
1.61957e-05
1.61962e-05
1.61043e-05
1.61955e-05
1.61956e-05
1.8077e-05
1.85538e-05
1.61048e-05
1.61965e-05
1.61961e-05
1.85365e-05
1.50066e-05
1.50061e-05
1.50064e-05
1.50063e-05
5.35074e-05
7.00365e-05
5.29536e-05
7.00649e-05
6.96366e-05
6.96165e-05
5.35162e-05
7.00454e-05
5.29516e-05
7.00701e-05
1.49176e-05
1.49179e-05
1.49178e-05
1.46698e-05
1.46694e-05
1.46697e-05
1.46695e-05
2.93444e-05
4.5205e-05
1.48825e-05
1.6129e-05
2.87857e-05
4.56151e-05
1.48316e-05
6.96358e-05
6.96157e-05
2.93471e-05
1.48829e-05
4.52081e-05
1.613e-05
2.87883e-05
1.4832e-05
4.5618e-05
5.90534e-05
5.9064e-05
1.82387e-05
5.92784e-05
5.92894e-05
6.9652e-05
6.96728e-05
6.96542e-05
6.96752e-05
1.78352e-05
5.89334e-05
5.89449e-05
5.86911e-05
5.87051e-05
5.21517e-05
7.00346e-05
7.00047e-05
5.27517e-05
5.2153e-05
7.00393e-05
7.00141e-05
5.27543e-05
2.7937e-05
1.60727e-05
4.49902e-05
1.49367e-05
4.45531e-05
1.4996e-05
2.84933e-05
2.79349e-05
1.60715e-05
4.49887e-05
1.49361e-05
4.45623e-05
1.49955e-05
2.84925e-05
6.96542e-05
6.96753e-05
1.78195e-05
5.89453e-05
5.89314e-05
5.87055e-05
5.86917e-05
6.96516e-05
6.96726e-05
5.21493e-05
7.00396e-05
7.00143e-05
5.27615e-05
2.79366e-05
1.60728e-05
4.49895e-05
1.49368e-05
4.45611e-05
1.49962e-05
2.84991e-05
5.21486e-05
7.00344e-05
7.00096e-05
5.27602e-05
2.79392e-05
1.60723e-05
1.49365e-05
4.49864e-05
1.49959e-05
4.45607e-05
2.84943e-05
2.79386e-05
1.60716e-05
4.49833e-05
1.49364e-05
4.45565e-05
1.49958e-05
2.84917e-05
5.21526e-05
7.00399e-05
7.00106e-05
5.27551e-05
2.79304e-05
1.60716e-05
1.49361e-05
4.49903e-05
1.49955e-05
4.45536e-05
2.8498e-05
5.21525e-05
7.00359e-05
7.00065e-05
5.27528e-05
6.96536e-05
6.96747e-05
1.7821e-05
5.89413e-05
5.89347e-05
5.8702e-05
5.86951e-05
6.96527e-05
6.96739e-05
2.79408e-05
1.60727e-05
1.49368e-05
4.49876e-05
1.49962e-05
4.4561e-05
2.84966e-05
2.79371e-05
1.60724e-05
1.49369e-05
4.49894e-05
1.49962e-05
4.456e-05
2.84958e-05
5.21481e-05
7.00349e-05
7.00097e-05
5.27661e-05
5.21491e-05
7.00395e-05
7.00142e-05
5.27667e-05
1.78354e-05
5.89345e-05
5.89449e-05
5.86952e-05
5.87054e-05
6.96524e-05
6.96734e-05
6.96542e-05
6.96752e-05
6.9634e-05
6.96139e-05
6.96365e-05
6.96164e-05
5.90498e-05
5.90633e-05
1.82382e-05
5.92757e-05
5.92896e-05
6.95774e-05
6.95965e-05
6.95799e-05
6.95991e-05
1.83708e-05
5.96019e-05
5.9611e-05
5.93882e-05
5.94009e-05
5.35102e-05
7.0045e-05
5.29547e-05
7.007e-05
2.93434e-05
4.52015e-05
1.48827e-05
1.61302e-05
2.87847e-05
4.56213e-05
1.48318e-05
2.9346e-05
4.52112e-05
1.48822e-05
1.6129e-05
2.87847e-05
4.56248e-05
1.48312e-05
5.36895e-05
7.00937e-05
7.00669e-05
5.41993e-05
5.3691e-05
7.00989e-05
7.00755e-05
5.42023e-05
2.9637e-05
1.61601e-05
4.62277e-05
1.4744e-05
4.5825e-05
1.47865e-05
3.01972e-05
2.96351e-05
1.61597e-05
4.62299e-05
1.47433e-05
4.58314e-05
1.47859e-05
3.0201e-05
5.90634e-05
5.90508e-05
1.82538e-05
5.92902e-05
5.92766e-05
6.96338e-05
6.96137e-05
6.95803e-05
6.95995e-05
1.83584e-05
5.9614e-05
5.96006e-05
5.94006e-05
5.93888e-05
6.95774e-05
6.95965e-05
2.93506e-05
4.52103e-05
1.4883e-05
1.61295e-05
2.8782e-05
4.56247e-05
1.48319e-05
5.35154e-05
7.00405e-05
5.29504e-05
7.00649e-05
2.93468e-05
1.48827e-05
4.52089e-05
1.61296e-05
2.87857e-05
1.48317e-05
4.56193e-05
5.36882e-05
7.00988e-05
7.00756e-05
5.42078e-05
2.96349e-05
1.61609e-05
4.62291e-05
1.4744e-05
4.58303e-05
1.47866e-05
3.02029e-05
5.36869e-05
7.00936e-05
7.00708e-05
5.42069e-05
2.96379e-05
1.61602e-05
1.47438e-05
4.62268e-05
1.47864e-05
4.58319e-05
3.01993e-05
5.35104e-05
7.00423e-05
5.29545e-05
7.00705e-05
2.93471e-05
1.48822e-05
4.5204e-05
1.6129e-05
2.87794e-05
1.48312e-05
4.56224e-05
5.35083e-05
7.00382e-05
5.29544e-05
7.00664e-05
2.96379e-05
1.61595e-05
4.62228e-05
1.47437e-05
4.5828e-05
1.47862e-05
3.0198e-05
5.36918e-05
7.00991e-05
7.00725e-05
5.42024e-05
2.96344e-05
1.61596e-05
1.47434e-05
4.6228e-05
1.47859e-05
4.58271e-05
3.01988e-05
5.36911e-05
7.0095e-05
7.00684e-05
5.42e-05
5.90606e-05
5.90535e-05
1.82537e-05
5.92856e-05
5.92789e-05
6.96351e-05
6.96149e-05
6.95793e-05
6.95984e-05
1.83599e-05
5.96091e-05
5.9603e-05
5.93982e-05
5.93909e-05
6.95784e-05
6.95977e-05
2.9348e-05
1.4883e-05
4.52119e-05
1.61295e-05
2.87871e-05
1.4832e-05
4.56226e-05
5.35205e-05
7.00407e-05
5.29507e-05
7.00654e-05
5.35214e-05
7.00453e-05
5.29517e-05
7.00701e-05
2.96415e-05
1.61606e-05
1.47441e-05
4.62235e-05
1.47867e-05
4.58302e-05
3.02005e-05
2.96411e-05
1.61601e-05
1.47442e-05
4.62283e-05
1.47867e-05
4.58347e-05
3.02015e-05
5.36875e-05
7.00941e-05
7.0071e-05
5.42114e-05
5.36886e-05
7.00987e-05
7.00756e-05
5.42124e-05
6.96346e-05
6.96145e-05
6.96365e-05
6.96164e-05
1.83721e-05
5.96025e-05
5.96136e-05
5.93907e-05
5.94014e-05
6.9578e-05
6.95972e-05
6.958e-05
6.95993e-05
6.98485e-05
5.33294e-05
6.91836e-05
5.95598e-05
6.91624e-05
5.93933e-05
6.986e-05
7.09918e-05
7.40057e-05
7.005e-05
7.09885e-05
7.40806e-05
6.98474e-05
5.31377e-05
6.91406e-05
5.91213e-05
6.98356e-05
6.91607e-05
5.92928e-05
7.09682e-05
7.41779e-05
7.00519e-05
7.41079e-05
7.09714e-05
6.96352e-05
6.96179e-05
6.98517e-05
5.33277e-05
5.95702e-05
6.91854e-05
5.93969e-05
6.91641e-05
6.98633e-05
7.09958e-05
7.40317e-05
7.00552e-05
7.09929e-05
7.41005e-05
6.98506e-05
5.31471e-05
5.91243e-05
6.91422e-05
6.98387e-05
5.93035e-05
6.91625e-05
7.09726e-05
7.4197e-05
7.00605e-05
7.41335e-05
7.09754e-05
6.96345e-05
6.96169e-05
8.75181e-05
7.24405e-05
7.24346e-05
7.24398e-05
7.24339e-05
8.75888e-05
5.70385e-05
3.89738e-05
6.88097e-05
5.91091e-05
5.6949e-05
3.90998e-05
6.88339e-05
5.71018e-05
3.89935e-05
6.88215e-05
5.91199e-05
5.70147e-05
3.91188e-05
6.88458e-05
8.74822e-05
7.24619e-05
7.2456e-05
8.74097e-05
7.24625e-05
7.24566e-05
5.72328e-05
6.88704e-05
5.92245e-05
3.94859e-05
3.93639e-05
6.8847e-05
5.73191e-05
5.72979e-05
6.88824e-05
5.92351e-05
3.95057e-05
3.93824e-05
6.88589e-05
5.73843e-05
6.96532e-05
6.96714e-05
6.96557e-05
6.96736e-05
8.7258e-05
7.25067e-05
7.25003e-05
8.71738e-05
7.25073e-05
7.2501e-05
5.66525e-05
3.87087e-05
5.88736e-05
6.8797e-05
6.87682e-05
3.85782e-05
5.67509e-05
5.67211e-05
3.87248e-05
5.8887e-05
6.8808e-05
6.87829e-05
3.85983e-05
5.68178e-05
5.64544e-05
6.87281e-05
3.81772e-05
5.87529e-05
5.63534e-05
6.87576e-05
3.83097e-05
5.65207e-05
6.87432e-05
3.81955e-05
5.87649e-05
5.64225e-05
6.87689e-05
3.83269e-05
8.72921e-05
7.24848e-05
7.24786e-05
7.24842e-05
7.24778e-05
8.73723e-05
6.98211e-05
6.90965e-05
5.85391e-05
5.23491e-05
6.98088e-05
6.91163e-05
5.87207e-05
7.10087e-05
7.00206e-05
7.39776e-05
7.10122e-05
7.39003e-05
7.10325e-05
7.37846e-05
7.00184e-05
7.10288e-05
7.38679e-05
6.98223e-05
5.25609e-05
6.91389e-05
5.90133e-05
6.98344e-05
6.91179e-05
5.88366e-05
6.98242e-05
6.90972e-05
5.8543e-05
5.23523e-05
6.98117e-05
6.91174e-05
5.8733e-05
7.10135e-05
7.00294e-05
7.39985e-05
7.39281e-05
7.10165e-05
7.10367e-05
7.38188e-05
7.00236e-05
7.10337e-05
7.38892e-05
6.98254e-05
5.25622e-05
6.91392e-05
5.90246e-05
6.91187e-05
5.88404e-05
6.98377e-05
6.96558e-05
6.96735e-05
8.72558e-05
7.25014e-05
7.25065e-05
8.71779e-05
7.2502e-05
7.25071e-05
5.67212e-05
3.87276e-05
5.88873e-05
6.881e-05
3.85944e-05
6.87808e-05
5.68166e-05
5.66556e-05
3.87046e-05
5.88739e-05
6.87974e-05
6.87686e-05
3.85781e-05
5.67496e-05
5.65165e-05
6.87404e-05
3.81958e-05
5.87652e-05
3.83289e-05
5.64221e-05
6.87706e-05
5.6449e-05
6.87286e-05
3.81774e-05
5.8752e-05
5.63561e-05
6.87581e-05
3.83058e-05
8.72944e-05
7.24796e-05
7.24847e-05
7.2479e-05
7.24841e-05
8.737e-05
6.9653e-05
6.96711e-05
6.98241e-05
5.85414e-05
6.90981e-05
5.23598e-05
6.98117e-05
5.87328e-05
6.9118e-05
7.10131e-05
7.00297e-05
7.39962e-05
7.10161e-05
7.39266e-05
7.10364e-05
7.38119e-05
7.0024e-05
7.10332e-05
7.38893e-05
6.98253e-05
5.25585e-05
5.90247e-05
6.91406e-05
6.98376e-05
5.88389e-05
6.91196e-05
6.98221e-05
6.90971e-05
5.85411e-05
5.23584e-05
6.98098e-05
6.91174e-05
5.87228e-05
7.10095e-05
7.00251e-05
7.39735e-05
7.39061e-05
7.1013e-05
7.10334e-05
7.37928e-05
7.0019e-05
7.10297e-05
7.38665e-05
6.98233e-05
5.25577e-05
6.9139e-05
5.90152e-05
6.91186e-05
5.88382e-05
6.98354e-05
6.98225e-05
5.85412e-05
6.91007e-05
5.23522e-05
6.98104e-05
5.87316e-05
6.91137e-05
7.10123e-05
7.00264e-05
7.39996e-05
7.39208e-05
7.10154e-05
7.10357e-05
7.38088e-05
7.00242e-05
7.10325e-05
7.3891e-05
6.98239e-05
5.25619e-05
5.90238e-05
6.9135e-05
5.88391e-05
6.9121e-05
6.98359e-05
6.98214e-05
6.90959e-05
5.85389e-05
5.23502e-05
6.98092e-05
6.9116e-05
5.87266e-05
7.101e-05
7.00223e-05
7.39794e-05
7.39015e-05
7.10131e-05
7.10334e-05
7.37906e-05
7.00202e-05
7.10303e-05
7.38705e-05
6.98227e-05
5.25619e-05
6.91375e-05
5.90188e-05
6.91172e-05
5.8836e-05
6.98348e-05
6.96551e-05
6.96731e-05
8.72617e-05
7.25014e-05
7.2507e-05
8.71798e-05
7.2502e-05
7.25076e-05
5.67231e-05
3.87269e-05
5.88842e-05
6.88074e-05
3.85968e-05
6.87824e-05
5.68185e-05
5.66595e-05
3.87102e-05
5.88775e-05
6.87979e-05
6.87691e-05
3.85794e-05
5.67535e-05
5.65205e-05
6.87428e-05
3.81974e-05
5.87612e-05
3.8328e-05
5.6423e-05
6.87684e-05
5.64531e-05
6.8729e-05
3.81793e-05
5.87551e-05
5.63598e-05
6.87585e-05
3.83117e-05
8.72961e-05
7.24795e-05
7.24852e-05
7.24789e-05
7.24846e-05
8.73764e-05
6.96543e-05
6.96722e-05
6.98221e-05
5.85386e-05
6.91017e-05
5.23641e-05
6.981e-05
5.87304e-05
6.91148e-05
7.10111e-05
7.00251e-05
7.39763e-05
7.3907e-05
7.10141e-05
7.10344e-05
7.37964e-05
7.00193e-05
7.10314e-05
7.38679e-05
6.98235e-05
5.25577e-05
5.90221e-05
6.9136e-05
5.88361e-05
6.9122e-05
6.98355e-05
6.98238e-05
5.85417e-05
6.90978e-05
5.23645e-05
6.98114e-05
5.87351e-05
6.91181e-05
7.10123e-05
7.00298e-05
7.39954e-05
7.39251e-05
7.10152e-05
7.10355e-05
7.38125e-05
7.0024e-05
7.10325e-05
7.38879e-05
6.98249e-05
5.25588e-05
5.9027e-05
6.91397e-05
5.88396e-05
6.91192e-05
6.98371e-05
8.72568e-05
7.25066e-05
7.25006e-05
8.71798e-05
7.25071e-05
7.25012e-05
5.6658e-05
3.87088e-05
5.88772e-05
6.8796e-05
5.67498e-05
3.8579e-05
6.87708e-05
5.67231e-05
3.8726e-05
5.88875e-05
6.88078e-05
5.68137e-05
3.85996e-05
6.87825e-05
5.64507e-05
6.87316e-05
3.81779e-05
5.87545e-05
5.63586e-05
3.83099e-05
6.87568e-05
5.65159e-05
6.87432e-05
3.81992e-05
5.87652e-05
5.64232e-05
3.83262e-05
6.87686e-05
8.72972e-05
7.24847e-05
7.24788e-05
8.7372e-05
7.24842e-05
7.24782e-05
6.96538e-05
6.96719e-05
6.96557e-05
6.96736e-05
6.96328e-05
6.9615e-05
6.96351e-05
6.96176e-05
8.75133e-05
7.24404e-05
7.24343e-05
7.24398e-05
7.24334e-05
8.75879e-05
5.7041e-05
3.89728e-05
6.88072e-05
5.91076e-05
5.69448e-05
6.8835e-05
3.91006e-05
5.71065e-05
3.89932e-05
6.88215e-05
5.91199e-05
5.7012e-05
6.88462e-05
3.91178e-05
8.74824e-05
7.24619e-05
7.24555e-05
8.74047e-05
7.24625e-05
7.24563e-05
5.72278e-05
6.88715e-05
5.92209e-05
3.94883e-05
6.88446e-05
5.73193e-05
3.93618e-05
5.72956e-05
6.88827e-05
5.92346e-05
3.95048e-05
6.88591e-05
5.73874e-05
3.93825e-05
6.95781e-05
6.95955e-05
6.95811e-05
6.9598e-05
8.769e-05
7.24179e-05
7.24115e-05
8.76185e-05
7.24186e-05
7.24124e-05
5.77628e-05
4.02529e-05
5.95479e-05
6.89422e-05
6.89154e-05
4.01168e-05
5.78798e-05
5.78468e-05
4.02485e-05
5.95622e-05
6.8952e-05
6.89308e-05
4.01462e-05
5.79059e-05
5.75978e-05
6.88808e-05
3.97418e-05
5.94415e-05
5.75002e-05
6.89072e-05
3.98698e-05
5.76554e-05
6.88953e-05
3.97648e-05
5.9454e-05
5.75714e-05
6.89184e-05
3.98844e-05
8.77194e-05
7.2397e-05
7.23905e-05
7.23962e-05
7.23898e-05
8.77847e-05
6.98518e-05
5.33308e-05
6.91846e-05
5.95704e-05
6.91632e-05
5.93978e-05
6.98635e-05
7.09963e-05
7.4035e-05
7.0055e-05
7.09934e-05
7.41014e-05
6.98508e-05
5.31407e-05
6.91411e-05
5.91251e-05
6.91616e-05
6.98388e-05
5.93039e-05
7.09732e-05
7.41991e-05
7.00605e-05
7.41362e-05
7.0976e-05
6.98721e-05
6.91859e-05
5.96539e-05
5.38614e-05
6.98609e-05
6.92071e-05
5.98149e-05
7.09272e-05
7.00808e-05
7.43586e-05
7.42933e-05
7.09302e-05
7.09508e-05
7.42034e-05
7.00795e-05
7.09478e-05
7.42705e-05
6.98728e-05
5.40341e-05
6.92303e-05
6.00587e-05
6.92092e-05
5.9903e-05
6.98836e-05
6.98756e-05
6.9187e-05
5.96586e-05
5.38644e-05
6.98643e-05
6.92082e-05
5.98254e-05
7.09325e-05
7.009e-05
7.43794e-05
7.43236e-05
7.0935e-05
7.09556e-05
7.42323e-05
7.00849e-05
7.09529e-05
7.42923e-05
6.98763e-05
5.40357e-05
6.92314e-05
6.00688e-05
6.92103e-05
5.99083e-05
6.98871e-05
8.75171e-05
7.24352e-05
7.24403e-05
7.24346e-05
7.24397e-05
8.75854e-05
5.7107e-05
3.89893e-05
6.88197e-05
5.91204e-05
6.8848e-05
5.70104e-05
3.91205e-05
5.70379e-05
3.89729e-05
6.88076e-05
5.91066e-05
3.90968e-05
5.69447e-05
6.88355e-05
8.74795e-05
7.24567e-05
7.24618e-05
7.24573e-05
8.74077e-05
7.24624e-05
5.72933e-05
6.88846e-05
5.92344e-05
3.95067e-05
6.88573e-05
3.93776e-05
5.73869e-05
5.72286e-05
6.88722e-05
5.92222e-05
3.94843e-05
3.93617e-05
6.8845e-05
5.73195e-05
6.96325e-05
6.9615e-05
6.95814e-05
6.95982e-05
8.76872e-05
7.24127e-05
7.24177e-05
8.76212e-05
7.24134e-05
7.24184e-05
5.78376e-05
4.02617e-05
5.95616e-05
6.89546e-05
4.01368e-05
6.89286e-05
5.79253e-05
5.77734e-05
4.02398e-05
5.95496e-05
6.8942e-05
6.89162e-05
4.01213e-05
5.78597e-05
5.76604e-05
6.88937e-05
3.97612e-05
5.94545e-05
3.98868e-05
5.75691e-05
6.892e-05
5.75928e-05
6.88812e-05
3.97446e-05
5.9441e-05
5.75042e-05
6.89075e-05
3.98653e-05
8.77222e-05
7.23918e-05
7.23968e-05
7.2391e-05
7.2396e-05
8.7786e-05
6.95783e-05
6.95954e-05
6.98494e-05
5.33267e-05
6.91844e-05
5.95617e-05
6.91631e-05
5.93946e-05
6.9861e-05
7.09926e-05
7.40118e-05
7.005e-05
7.09891e-05
7.40765e-05
6.98484e-05
5.31463e-05
6.91409e-05
5.91224e-05
6.91614e-05
6.98366e-05
5.92945e-05
7.09687e-05
7.41741e-05
7.00558e-05
7.41129e-05
7.09721e-05
6.98754e-05
5.96577e-05
6.91877e-05
5.38702e-05
6.98642e-05
5.9825e-05
6.9209e-05
7.09318e-05
7.009e-05
7.43775e-05
7.43214e-05
7.09343e-05
7.09549e-05
7.42292e-05
7.0085e-05
7.09523e-05
7.42909e-05
6.98761e-05
5.40329e-05
6.0068e-05
6.92323e-05
5.99073e-05
6.9211e-05
6.98869e-05
6.98731e-05
6.91868e-05
5.96547e-05
5.3869e-05
6.98619e-05
6.92081e-05
5.98167e-05
7.09278e-05
7.00851e-05
7.43547e-05
7.42993e-05
7.09309e-05
7.09515e-05
7.42088e-05
7.00798e-05
7.09483e-05
7.42671e-05
6.98738e-05
5.40318e-05
6.92313e-05
6.00603e-05
6.92101e-05
5.99036e-05
6.98846e-05
6.98502e-05
5.33312e-05
5.95697e-05
6.91804e-05
5.93967e-05
6.91658e-05
6.98617e-05
7.0995e-05
7.40281e-05
7.00556e-05
7.41028e-05
7.0992e-05
6.9849e-05
5.31405e-05
5.91238e-05
6.91432e-05
5.93029e-05
6.98372e-05
6.91579e-05
7.09717e-05
7.42005e-05
7.00575e-05
7.41287e-05
7.09746e-05
6.98488e-05
5.33307e-05
6.91829e-05
5.95646e-05
6.91617e-05
5.9393e-05
6.98604e-05
7.09927e-05
7.4009e-05
7.00515e-05
7.09898e-05
7.4083e-05
6.98478e-05
5.31384e-05
6.91396e-05
5.91207e-05
6.98359e-05
6.91599e-05
5.92978e-05
7.09694e-05
7.41805e-05
7.00534e-05
7.41096e-05
7.09722e-05
6.98738e-05
5.96576e-05
6.91888e-05
5.38641e-05
6.98627e-05
5.98244e-05
6.9204e-05
7.09309e-05
7.00866e-05
7.43808e-05
7.43152e-05
7.09336e-05
7.09541e-05
7.42249e-05
7.0085e-05
7.09513e-05
7.42929e-05
6.98746e-05
5.40365e-05
6.00677e-05
6.92272e-05
5.99075e-05
6.92123e-05
6.98853e-05
6.98725e-05
6.91853e-05
5.96539e-05
5.38619e-05
6.98612e-05
6.92065e-05
5.98194e-05
7.09284e-05
7.00823e-05
7.43607e-05
7.42956e-05
7.09311e-05
7.09517e-05
7.42056e-05
7.00809e-05
7.09489e-05
7.42728e-05
6.98731e-05
5.40358e-05
6.92297e-05
6.00627e-05
6.92086e-05
5.99033e-05
6.98839e-05
8.75179e-05
7.24352e-05
7.24409e-05
7.24345e-05
7.24402e-05
8.75922e-05
5.71062e-05
3.89915e-05
6.88211e-05
5.91157e-05
6.88455e-05
5.70133e-05
3.91195e-05
5.70433e-05
3.89746e-05
6.8808e-05
5.91096e-05
3.91025e-05
5.69481e-05
6.8836e-05
8.74867e-05
7.24566e-05
7.24623e-05
7.24573e-05
8.74092e-05
7.2463e-05
5.72972e-05
6.8882e-05
5.92319e-05
3.95048e-05
6.88586e-05
3.93801e-05
5.73877e-05
5.72312e-05
6.88727e-05
5.92247e-05
3.94889e-05
3.93638e-05
6.88454e-05
5.73241e-05
6.96336e-05
6.96162e-05
6.95803e-05
6.95973e-05
8.76941e-05
7.24126e-05
7.24183e-05
8.76228e-05
7.24133e-05
7.2419e-05
5.78413e-05
4.02611e-05
5.95588e-05
6.8952e-05
4.01399e-05
6.89301e-05
5.79281e-05
5.77774e-05
4.02444e-05
5.95515e-05
6.89426e-05
6.89167e-05
4.01239e-05
5.78636e-05
5.76607e-05
6.88948e-05
3.97635e-05
5.94507e-05
3.98852e-05
5.75722e-05
6.89179e-05
5.7596e-05
6.88818e-05
3.9747e-05
5.94437e-05
5.75069e-05
6.89081e-05
3.98696e-05
8.7723e-05
7.23917e-05
7.23974e-05
7.23909e-05
7.23966e-05
8.77924e-05
6.95795e-05
6.95965e-05
6.98497e-05
5.33272e-05
5.95674e-05
6.91815e-05
5.93935e-05
6.91668e-05
6.98611e-05
7.09937e-05
7.40145e-05
7.00505e-05
7.4079e-05
7.09909e-05
6.98485e-05
5.31515e-05
5.9121e-05
6.91441e-05
5.93009e-05
6.98368e-05
6.91589e-05
7.09705e-05
7.41767e-05
7.0056e-05
7.41151e-05
7.09732e-05
6.98511e-05
5.33281e-05
5.95721e-05
6.9185e-05
5.93975e-05
6.91637e-05
6.98628e-05
7.09948e-05
7.4031e-05
7.00552e-05
7.0992e-05
7.40988e-05
6.98502e-05
5.31522e-05
5.91246e-05
6.91415e-05
6.98382e-05
5.93058e-05
6.91621e-05
7.09716e-05
7.41955e-05
7.00607e-05
7.41331e-05
7.09744e-05
6.98732e-05
5.96545e-05
6.91897e-05
5.38736e-05
6.98621e-05
5.98217e-05
6.92051e-05
7.09296e-05
7.00854e-05
7.43571e-05
7.43019e-05
7.09321e-05
7.09527e-05
7.42112e-05
7.00803e-05
7.09501e-05
7.42699e-05
6.9874e-05
5.40323e-05
6.00645e-05
6.92283e-05
5.99041e-05
6.92132e-05
6.98847e-05
6.98748e-05
5.96586e-05
6.91873e-05
5.38747e-05
6.98636e-05
5.98265e-05
6.92086e-05
7.09308e-05
7.009e-05
7.43755e-05
7.43202e-05
7.09333e-05
7.09539e-05
7.42288e-05
7.00849e-05
7.09513e-05
7.42886e-05
6.98755e-05
5.40332e-05
6.00693e-05
6.92318e-05
5.99084e-05
6.92106e-05
6.98863e-05
6.96332e-05
6.96157e-05
6.96351e-05
6.96177e-05
8.76901e-05
7.2418e-05
7.24121e-05
8.7622e-05
7.24187e-05
7.24127e-05
5.7777e-05
4.02423e-05
5.95519e-05
6.89405e-05
4.0124e-05
6.89187e-05
5.7859e-05
5.7842e-05
4.02601e-05
5.95626e-05
6.89526e-05
4.01424e-05
6.89307e-05
5.79235e-05
5.75941e-05
6.88833e-05
3.97468e-05
5.94431e-05
5.7508e-05
3.98672e-05
6.89064e-05
5.76583e-05
6.88953e-05
3.9765e-05
5.94542e-05
5.75732e-05
3.98861e-05
6.89184e-05
8.77218e-05
7.2397e-05
7.23911e-05
7.23962e-05
7.23904e-05
8.77895e-05
6.9579e-05
6.9596e-05
6.95811e-05
6.9598e-05
1.50404e-05
1.50406e-05
1.48323e-05
1.49325e-05
1.49327e-05
1.52915e-05
1.54094e-05
3.78543e-05
2.48828e-05
2.48881e-05
1.80988e-05
3.7734e-05
2.49563e-05
2.4962e-05
3.7319e-05
1.79593e-05
2.46518e-05
2.46534e-05
2.4573e-05
2.4581e-05
3.74437e-05
3.73136e-05
1.79453e-05
2.46586e-05
2.46647e-05
2.45656e-05
2.45589e-05
3.74501e-05
3.73172e-05
1.79466e-05
2.46626e-05
2.46615e-05
2.4569e-05
2.45637e-05
3.74484e-05
3.73195e-05
1.79587e-05
2.46453e-05
2.4647e-05
3.74441e-05
2.45737e-05
2.45795e-05
3.78597e-05
2.48812e-05
2.4889e-05
1.80991e-05
3.77291e-05
2.49625e-05
2.49632e-05
3.89317e-05
1.85247e-05
2.59278e-05
2.59118e-05
2.58308e-05
2.58508e-05
3.90621e-05
3.786e-05
2.48774e-05
2.48682e-05
1.81132e-05
2.49762e-05
3.77218e-05
2.49769e-05
3.89309e-05
1.85074e-05
2.59367e-05
2.59349e-05
2.5822e-05
2.58188e-05
3.90612e-05
3.78598e-05
2.48801e-05
2.48749e-05
1.81136e-05
2.49745e-05
3.77297e-05
2.49751e-05
3.89352e-05
1.85091e-05
2.59329e-05
2.5929e-05
2.58295e-05
2.5826e-05
3.90655e-05
3.89404e-05
1.85251e-05
2.5914e-05
2.5917e-05
2.58397e-05
2.58465e-05
3.90549e-05
1.50982e-05
1.51504e-05
1.51506e-05
1.52628e-05
1.5263e-05
1.56503e-05
1.5529e-05
1.50976e-05
1.51501e-05
1.51504e-05
1.52626e-05
1.52628e-05
1.56502e-05
1.55289e-05
1.5098e-05
1.51502e-05
1.51506e-05
1.52627e-05
1.5263e-05
1.56502e-05
1.55288e-05
1.50978e-05
1.51502e-05
1.51505e-05
1.52626e-05
1.52629e-05
1.56502e-05
1.55288e-05
1.50401e-05
1.50404e-05
1.48319e-05
1.49323e-05
1.49326e-05
1.52914e-05
1.54093e-05
1.50402e-05
1.50405e-05
1.48322e-05
1.49324e-05
1.49327e-05
1.52913e-05
1.54092e-05
1.50401e-05
1.50405e-05
1.48321e-05
1.49323e-05
1.49327e-05
1.52913e-05
1.54092e-05
1.47497e-05
1.47237e-05
1.47239e-05
1.4827e-05
1.48272e-05
1.51753e-05
1.50607e-05
1.47493e-05
1.47235e-05
1.47238e-05
1.48268e-05
1.48271e-05
1.51752e-05
1.50607e-05
1.47496e-05
1.47236e-05
1.47239e-05
1.48269e-05
1.48272e-05
1.51751e-05
1.50606e-05
1.47494e-05
1.47235e-05
1.47239e-05
1.48268e-05
1.48272e-05
1.51751e-05
1.50606e-05
1.95995e-05
2.92119e-05
3.35478e-05
1.79993e-05
3.34192e-05
1.79652e-05
1.96638e-05
2.23827e-05
2.75821e-05
3.95907e-05
4.53017e-05
2.23293e-05
2.76775e-05
3.96977e-05
1.94682e-05
2.89173e-05
3.29968e-05
1.78114e-05
1.94071e-05
3.31269e-05
1.7843e-05
2.25848e-05
4.00729e-05
4.55197e-05
2.80237e-05
2.7927e-05
3.99694e-05
2.2638e-05
1.96151e-05
2.92157e-05
1.8003e-05
3.35509e-05
1.79675e-05
3.34188e-05
1.96454e-05
2.23795e-05
2.7583e-05
3.95866e-05
4.53068e-05
2.23301e-05
2.76821e-05
3.96964e-05
1.94519e-05
2.89211e-05
1.78134e-05
3.29975e-05
1.94247e-05
1.78465e-05
3.31299e-05
2.25849e-05
4.00739e-05
4.55224e-05
2.8028e-05
2.7929e-05
3.99652e-05
2.26388e-05
3.81414e-05
1.82274e-05
2.5274e-05
2.52769e-05
2.51989e-05
2.52042e-05
3.82613e-05
3.70237e-05
1.78441e-05
2.42686e-05
2.42764e-05
3.68996e-05
2.43442e-05
2.43467e-05
1.91066e-05
3.21385e-05
1.75223e-05
2.8071e-05
1.9054e-05
3.22821e-05
1.75668e-05
2.20671e-05
2.73419e-05
4.48807e-05
3.93088e-05
2.72323e-05
3.92029e-05
2.21391e-05
2.18962e-05
3.88137e-05
2.68922e-05
4.4663e-05
2.70041e-05
2.18196e-05
3.89243e-05
1.92233e-05
2.83596e-05
3.27063e-05
1.77062e-05
3.25645e-05
1.76603e-05
1.92809e-05
1.91056e-05
3.21486e-05
1.75215e-05
2.80689e-05
1.90532e-05
3.22782e-05
1.75665e-05
2.20808e-05
2.73481e-05