/*--------------------------------*- C++ -*----------------------------------*\
| =========                 |                                                 |
| \\      /  F ield         | OpenFOAM: The Open Source CFD Toolbox           |
|  \\    /   O peration     | Version:  v1906                                 |
|   \\  /    A nd           | Web:      www.OpenFOAM.com                      |
|    \\/     M anipulation  |                                                 |
\*---------------------------------------------------------------------------*/
FoamFile
{
    version     2.0;
    format      ascii;
    class       volVectorField;
    location    "600";
    object      U;
}
// * * * * * * * * * * * * * * * * * * * * * * * * * * * * * * * * * * * * * //

dimensions      [0 1 -1 0 0 0 0];


internalField   nonuniform List<vector> 
43248
(
(-3.83336e-05 -3.85416e-05 0.104906)
(1.01279e-05 1.76712e-05 0.10828)
(-1.02553e-05 1.77927e-05 0.10828)
(3.83951e-05 -3.83699e-05 0.104907)
(1.7832e-05 1.02724e-05 0.108283)
(1.77681e-05 -1.02386e-05 0.108279)
(-1.77355e-05 1.01964e-05 0.108283)
(-1.77445e-05 -1.02107e-05 0.10828)
(-3.83835e-05 3.84084e-05 0.104906)
(1.0175e-05 -1.77294e-05 0.108282)
(-1.01718e-05 -1.77159e-05 0.108282)
(3.84186e-05 3.8415e-05 0.104906)
(2.27366e-05 2.27325e-05 0.113134)
(-2.27503e-05 2.27489e-05 0.113135)
(2.27445e-05 -2.27414e-05 0.113134)
(-2.27282e-05 -2.2722e-05 0.113134)
(-2.05531e-06 -6.88271e-06 0.0709174)
(-6.88201e-06 -2.04978e-06 0.0709174)
(-5.14686e-06 -8.26219e-06 0.0870347)
(-8.34812e-06 -5.19955e-06 0.087036)
(-4.21367e-07 1.26886e-05 0.0909879)
(-1.60337e-06 -1.14255e-05 0.0816196)
(-6.09417e-07 -1.39776e-05 0.0910343)
(3.68494e-07 1.26996e-05 0.090988)
(1.54525e-06 -1.14613e-05 0.0816198)
(-5.85151e-07 1.12193e-05 0.081562)
(5.90094e-07 -1.39864e-05 0.0910342)
(1.11193e-07 2.50075e-05 0.0985537)
(-6.78546e-06 -1.35011e-05 0.0926819)
(4.7226e-06 2.7716e-05 0.110832)
(4.86825e-06 2.84694e-05 0.110843)
(-4.75798e-07 -1.71937e-05 0.0986109)
(-1.21378e-07 2.50154e-05 0.0985535)
(-1.06167e-05 1.83854e-05 0.108294)
(6.75559e-06 -1.36497e-05 0.0926824)
(-4.72727e-06 2.7738e-05 0.110832)
(-6.8022e-06 1.93841e-05 0.0926203)
(-4.88274e-06 2.84739e-05 0.110842)
(4.56387e-07 -1.72046e-05 0.0986108)
(2.03002e-06 -6.91628e-06 0.0709174)
(-4.61868e-06 5.59704e-06 0.0708531)
(-4.50117e-05 4.49696e-05 0.104759)
(5.13702e-06 -8.32897e-06 0.0870353)
(8.28059e-06 -5.14158e-06 0.0870373)
(-7.09093e-06 7.45615e-06 0.0869789)
(-7.40861e-06 7.04265e-06 0.0869797)
(6.85321e-06 -2.00045e-06 0.0709186)
(-5.53768e-06 4.55466e-06 0.0708511)
(-1.1476e-05 -1.54518e-06 0.0816202)
(-1.40056e-05 -5.77872e-07 0.0910337)
(-1.37608e-05 -6.77255e-06 0.0926833)
(2.77364e-05 4.69621e-06 0.110831)
(-1.71966e-05 -4.40556e-07 0.0986105)
(-1.13984e-05 1.53591e-06 0.0816208)
(-1.40003e-05 5.75785e-07 0.0910337)
(2.77271e-05 -4.75374e-06 0.110831)
(-1.36218e-05 6.7377e-06 0.0926831)
(-1.72013e-05 4.67483e-07 0.0986104)
(-2.50365e-05 1.07644e-07 0.0985534)
(-1.83262e-05 1.05516e-05 0.108297)
(1.36203e-05 -6.75293e-06 0.0926839)
(-2.77441e-05 4.71565e-06 0.110833)
(-1.93014e-05 6.77029e-06 0.0926211)
(-2.84812e-05 4.85722e-06 0.110843)
(1.71742e-05 -4.36844e-07 0.0986104)
(-1.27037e-05 -3.78563e-07 0.0909878)
(1.14323e-05 -1.51495e-06 0.0816206)
(-1.11557e-05 5.74125e-07 0.0815614)
(1.3973e-05 -5.73125e-07 0.0910339)
(-2.50308e-05 -1.33665e-07 0.0985537)
(-1.83418e-05 -1.05665e-05 0.108294)
(-2.77295e-05 -4.74321e-06 0.110832)
(1.36362e-05 6.7679e-06 0.0926829)
(-2.84675e-05 -4.88294e-06 0.110842)
(-1.93343e-05 -6.80849e-06 0.0926215)
(1.71688e-05 4.88243e-07 0.0986103)
(-1.26987e-05 3.86646e-07 0.0909879)
(1.14488e-05 1.53874e-06 0.0816201)
(-1.11889e-05 -6.00417e-07 0.0815626)
(1.39677e-05 6.20853e-07 0.0910339)
(-6.84732e-06 2.01525e-06 0.0709187)
(-8.3079e-06 5.16891e-06 0.0870356)
(-5.18053e-06 8.34058e-06 0.0870366)
(-2.05269e-06 6.89956e-06 0.0709178)
(1.18849e-07 -2.50484e-05 0.098553)
(4.72258e-06 -2.77197e-05 0.110831)
(-6.78676e-06 1.36769e-05 0.0926834)
(4.86283e-06 -2.8463e-05 0.110841)
(-4.7362e-07 1.71655e-05 0.0986105)
(-1.06862e-07 -2.50352e-05 0.0985529)
(-1.05271e-05 -1.83098e-05 0.108296)
(-4.71187e-06 -2.7719e-05 0.110831)
(6.79626e-06 1.3668e-05 0.092683)
(-4.859e-06 -2.84522e-05 0.110841)
(-6.84482e-06 -1.93433e-05 0.0926209)
(4.22747e-07 1.71617e-05 0.0986104)
(-3.942e-07 -1.27579e-05 0.090988)
(-1.53938e-06 1.14593e-05 0.0816204)
(-6.18015e-07 1.39958e-05 0.0910338)
(4.19054e-07 -1.2746e-05 0.0909878)
(1.58131e-06 1.1455e-05 0.0816205)
(-6.53674e-07 -1.11801e-05 0.0815622)
(5.29968e-07 1.39851e-05 0.0910339)
(-4.499e-05 -4.49947e-05 0.104759)
(8.33951e-06 5.15069e-06 0.0870366)
(5.18786e-06 8.33653e-06 0.0870347)
(-7.44242e-06 -7.09508e-06 0.0869805)
(-7.11429e-06 -7.43355e-06 0.0869791)
(6.90702e-06 2.0313e-06 0.0709176)
(-5.58072e-06 -4.62326e-06 0.0708539)
(2.06766e-06 6.89265e-06 0.0709174)
(-4.65284e-06 -5.56482e-06 0.0708535)
(4.5814e-06 5.52588e-06 0.0708562)
(5.51349e-06 4.64605e-06 0.0708552)
(8.44907e-06 1.38387e-05 0.0912638)
(-8.07506e-06 -2.04272e-05 0.0961247)
(7.009e-06 7.34392e-06 0.0869804)
(-3.95956e-06 -7.661e-06 0.0810009)
(4.47556e-06 6.51922e-06 0.0809459)
(1.41985e-05 2.12212e-05 0.0960745)
(-8.186e-06 -1.6422e-05 0.0913112)
(1.37507e-05 8.37811e-06 0.0912504)
(-2.06898e-05 -8.29686e-06 0.0961321)
(7.31839e-06 7.04538e-06 0.0869769)
(-7.50474e-06 -3.81375e-06 0.080999)
(6.43892e-06 4.38921e-06 0.0809381)
(2.11871e-05 1.4173e-05 0.0960654)
(-1.64053e-05 -8.2793e-06 0.0913148)
(5.72939e-06 5.75635e-06 0.0830577)
(-5.56878e-06 -4.08273e-06 0.0678215)
(-4.11715e-06 -5.48877e-06 0.0678165)
(5.52258e-06 3.49871e-06 0.0677587)
(3.46391e-06 5.4753e-06 0.067752)
(-6.75204e-06 -6.5935e-06 0.0831101)
(2.90349e-08 -6.74878e-06 0.0762633)
(-6.57222e-07 6.33956e-06 0.0780009)
(3.27791e-09 1.26563e-05 0.0894186)
(-6.15911e-07 -1.38965e-05 0.0910393)
(-9.18652e-07 7.0509e-06 0.0762068)
(-4.32607e-07 -7.02553e-06 0.0780495)
(-1.12141e-06 -1.33474e-05 0.0894766)
(-7.3437e-07 6.39616e-06 0.0677437)
(6.23268e-07 1.1089e-05 0.0815625)
(-1.55578e-06 -1.1693e-05 0.0852753)
(-4.87939e-07 9.66962e-06 0.0852105)
(7.04317e-08 -6.64134e-06 0.0678181)
(-9.04698e-07 6.99135e-06 0.0762074)
(-4.13102e-07 1.25233e-05 0.090983)
(-4.19644e-07 -7.03891e-06 0.0780496)
(-1.11858e-06 -1.34402e-05 0.089473)
(-6.49845e-07 6.29542e-06 0.078001)
(2.08202e-09 1.24855e-05 0.0894152)
(4.77448e-08 -6.7586e-06 0.0762639)
(-6.43481e-08 -6.81608e-06 0.0762629)
(6.11524e-07 6.34196e-06 0.0780012)
(-4.97044e-08 1.26972e-05 0.089419)
(5.92916e-07 -1.39041e-05 0.0910392)
(8.79354e-07 7.09472e-06 0.0762089)
(3.98984e-07 -7.03097e-06 0.0780495)
(1.09915e-06 -1.34138e-05 0.0894762)
(6.91961e-07 6.47492e-06 0.0677446)
(-6.16474e-07 1.11136e-05 0.0815624)
(1.53142e-06 -1.17437e-05 0.0852741)
(4.76381e-07 9.71175e-06 0.0852105)
(-7.96286e-08 -6.71747e-06 0.0678147)
(-6.00412e-08 -6.72265e-06 0.067813)
(4.8707e-07 9.81822e-06 0.0852115)
(1.58013e-06 -1.14194e-05 0.0816195)
(7.06328e-07 6.50714e-06 0.0677427)
(1.54788e-06 -1.17002e-05 0.0852751)
(8.64327e-07 7.0462e-06 0.0762095)
(3.65347e-07 1.25222e-05 0.090983)
(3.87484e-07 -7.04312e-06 0.0780496)
(1.0949e-06 -1.3486e-05 0.0894726)
(5.96312e-07 6.30075e-06 0.0780013)
(-4.71672e-08 1.25296e-05 0.0894155)
(-8.18279e-08 -6.82535e-06 0.0762634)
(-4.62231e-06 5.5494e-06 0.0708555)
(2.04764e-06 -6.91098e-06 0.0709151)
(6.60941e-06 -6.63817e-06 0.0831111)
(-5.54494e-06 3.50921e-06 0.0677521)
(-3.52106e-06 5.51907e-06 0.0677574)
(-5.84363e-06 5.81344e-06 0.0830587)
(5.51334e-06 -4.10769e-06 0.0678158)
(4.08149e-06 -5.54535e-06 0.0678211)
(-8.45147e-06 1.3739e-05 0.0912537)
(8.18797e-06 -2.05965e-05 0.0961275)
(-7.04298e-06 7.33931e-06 0.0869778)
(3.85069e-06 -7.56633e-06 0.0809983)
(-1.42227e-05 2.12353e-05 0.0960681)
(-4.44423e-06 6.45679e-06 0.0809395)
(8.25616e-06 -1.63374e-05 0.0913103)
(-1.37552e-05 8.40362e-06 0.0912608)
(2.05574e-05 -8.21574e-06 0.0961307)
(-7.30016e-06 7.00885e-06 0.0869786)
(7.53664e-06 -3.88625e-06 0.0810031)
(-6.4425e-06 4.43577e-06 0.0809441)
(-2.11939e-05 1.41738e-05 0.0960718)
(1.63264e-05 -8.26739e-06 0.0913171)
(8.19485e-06 -1.62603e-05 0.0913136)
(-4.45132e-06 6.54352e-06 0.0809393)
(-1.4397e-05 2.15048e-05 0.0960743)
(5.12508e-06 -8.25932e-06 0.0870365)
(8.05838e-06 -2.04574e-05 0.0961339)
(-8.56384e-06 1.39273e-05 0.0912569)
(3.86719e-06 -7.51356e-06 0.0809982)
(1.62484e-05 -8.20395e-06 0.0913204)
(-6.5358e-06 4.44302e-06 0.0809439)
(-2.14664e-05 1.4349e-05 0.096078)
(8.21033e-06 -5.13232e-06 0.0870385)
(-1.39444e-05 8.51093e-06 0.091264)
(7.48034e-06 -3.89728e-06 0.0810029)
(2.04174e-05 -8.08464e-06 0.0961371)
(-5.76835e-06 5.74064e-06 0.083058)
(5.51028e-06 -4.1128e-06 0.0678167)
(4.0869e-06 -5.54039e-06 0.067822)
(-5.51475e-06 3.48332e-06 0.0677531)
(-3.49256e-06 5.49131e-06 0.0677584)
(6.64964e-06 -6.67828e-06 0.0831104)
(-5.49167e-06 4.55968e-06 0.0708534)
(6.84476e-06 -2.01342e-06 0.0709164)
(6.46344e-06 -6.59911e-07 0.0677451)
(1.1068e-05 6.39285e-07 0.0815624)
(-1.17458e-05 -1.51209e-06 0.0852741)
(9.69886e-06 -4.50618e-07 0.0852111)
(-6.71176e-06 9.56507e-08 0.0678149)
(7.04232e-06 -8.57428e-07 0.0762101)
(1.25599e-05 -3.66278e-07 0.0909835)
(-1.34905e-05 -1.07213e-06 0.0894725)
(-7.07565e-06 -3.94087e-07 0.0780489)
(1.25506e-05 4.94722e-08 0.0894159)
(6.33826e-06 -5.96795e-07 0.0780029)
(-6.80876e-06 9.61638e-08 0.0762636)
(6.4081e-06 7.44822e-07 0.0677436)
(1.10582e-05 -6.03657e-07 0.0815616)
(-1.16975e-05 1.50165e-06 0.0852755)
(9.69224e-06 5.0709e-07 0.0852105)
(-6.65911e-06 -1.20767e-07 0.0678182)
(7.01958e-06 9.19641e-07 0.0762079)
(1.25605e-05 4.45445e-07 0.0909836)
(-7.06718e-06 3.82238e-07 0.0780488)
(-1.34381e-05 1.05821e-06 0.0894729)
(6.33673e-06 6.63525e-07 0.0780027)
(1.25262e-05 2.77209e-08 0.0894154)
(-6.78012e-06 -1.01511e-07 0.076264)
(6.81646e-06 9.18261e-08 0.0762628)
(-1.27064e-05 5.1354e-08 0.0894187)
(-6.35095e-06 -6.1852e-07 0.0780011)
(1.38812e-05 -5.7535e-07 0.0910389)
(-7.09981e-06 -8.75963e-07 0.0762088)
(1.34063e-05 -1.07175e-06 0.089476)
(7.02159e-06 -3.84062e-07 0.0780493)
(-6.47102e-06 -6.75605e-07 0.0677447)
(-1.10632e-05 6.02515e-07 0.0815617)
(1.17572e-05 -1.49252e-06 0.0852744)
(-9.71275e-06 -4.6825e-07 0.0852105)
(6.7264e-06 1.09482e-07 0.067815)
(6.72847e-06 8.82059e-08 0.0678133)
(-9.81709e-06 -4.77615e-07 0.0852115)
(1.13959e-05 -1.54773e-06 0.0816203)
(-6.50786e-06 -6.94093e-07 0.0677428)
(1.17078e-05 -1.51086e-06 0.0852754)
(-7.04996e-06 -8.60708e-07 0.0762094)
(-1.25334e-05 -3.78758e-07 0.0909828)
(1.34894e-05 -1.06866e-06 0.0894724)
(7.03653e-06 -3.75784e-07 0.0780493)
(-1.25453e-05 4.58497e-08 0.0894152)
(-6.3004e-06 -6.10375e-07 0.0780012)
(6.82707e-06 1.08898e-07 0.0762634)
(6.80374e-06 -4.74627e-08 0.0762625)
(-6.3462e-06 6.29403e-07 0.0780011)
(-1.26859e-05 -4.05759e-08 0.089419)
(1.3874e-05 6.22327e-07 0.0910389)
(-7.09967e-06 8.89139e-07 0.0762085)
(7.01757e-06 4.30269e-07 0.0780493)
(1.33991e-05 1.11435e-06 0.0894761)
(-6.46667e-06 6.79549e-07 0.0677468)
(-1.10852e-05 -6.32957e-07 0.081563)
(1.1736e-05 1.52862e-06 0.085275)
(-9.70561e-06 4.58311e-07 0.0852116)
(6.71098e-06 -7.77018e-08 0.0678169)
(6.71394e-06 -5.443e-08 0.0678151)
(-9.80837e-06 4.73381e-07 0.0852125)
(1.1413e-05 1.57487e-06 0.0816198)
(-6.50128e-06 6.9802e-07 0.067745)
(1.16917e-05 1.55234e-06 0.085276)
(-7.05509e-06 8.71888e-07 0.0762092)
(-1.25214e-05 3.8967e-07 0.0909829)
(7.03286e-06 4.19973e-07 0.0780493)
(1.34659e-05 1.11181e-06 0.0894726)
(-6.29721e-06 6.16284e-07 0.0780012)
(-1.25349e-05 -3.51196e-08 0.0894156)
(6.81169e-06 -6.59246e-08 0.076263)
(5.49308e-06 -4.57474e-06 0.0708532)
(1.36933e-05 -8.45088e-06 0.0912533)
(-2.05723e-05 8.19953e-06 0.0961274)
(7.31954e-06 -7.05136e-06 0.0869763)
(-7.54941e-06 3.90893e-06 0.0809977)
(2.11913e-05 -1.4214e-05 0.0960678)
(6.43675e-06 -4.48442e-06 0.0809383)
(-1.63145e-05 8.27275e-06 0.0913098)
(8.36912e-06 -1.37459e-05 0.0912604)
(-8.23054e-06 2.05757e-05 0.0961301)
(7.01383e-06 -7.33886e-06 0.0869795)
(-3.85259e-06 7.55598e-06 0.081003)
(4.39395e-06 -6.4605e-06 0.0809441)
(1.41679e-05 -2.12105e-05 0.0960714)
(-8.23818e-06 1.63149e-05 0.0913166)
(5.7159e-06 -5.76932e-06 0.0830576)
(-4.08233e-06 5.55009e-06 0.0678158)
(-5.51968e-06 4.098e-06 0.0678218)
(3.46695e-06 -5.5346e-06 0.0677521)
(5.47838e-06 -3.50207e-06 0.0677583)
(-6.65236e-06 6.66323e-06 0.08311)
(4.60792e-06 -5.54286e-06 0.0708564)
(4.85983e-08 6.80152e-06 0.0762626)
(3.75901e-08 -1.27155e-05 0.0894191)
(-6.29856e-07 -6.39124e-06 0.0780026)
(-6.23774e-07 1.39112e-05 0.0910388)
(-8.83423e-07 -7.10677e-06 0.076209)
(-1.11179e-06 1.3406e-05 0.0894763)
(-4.35177e-07 7.04876e-06 0.0780488)
(-6.69501e-07 -6.46306e-06 0.0677475)
(6.1064e-07 -1.10881e-05 0.0815633)
(-1.53164e-06 1.1739e-05 0.0852749)
(-4.63059e-07 -9.72104e-06 0.0852122)
(6.69908e-08 6.70574e-06 0.0678172)
(5.04174e-08 6.71051e-06 0.0678154)
(-1.55045e-06 1.16962e-05 0.085276)
(-8.70657e-07 -7.0557e-06 0.0762096)
(-3.94719e-07 -1.25839e-05 0.0909831)
(-1.10831e-06 1.34862e-05 0.0894726)
(-4.22584e-07 7.06717e-06 0.0780488)
(3.18584e-08 -1.25674e-05 0.0894157)
(-6.22324e-07 -6.34572e-06 0.0780027)
(6.20285e-08 6.82237e-06 0.0762632)
(-1.28735e-07 6.77857e-06 0.0762644)
(-1.59023e-08 -1.26917e-05 0.0894179)
(6.43931e-07 -6.39853e-06 0.0780023)
(5.36066e-07 1.3907e-05 0.0910389)
(8.95025e-07 -7.0748e-06 0.0762076)
(1.03063e-06 1.33775e-05 0.089477)
(3.52648e-07 7.06416e-06 0.0780489)
(6.86892e-07 -6.41446e-06 0.0677423)
(-6.88037e-07 -1.10751e-05 0.0815626)
(1.50717e-06 1.17146e-05 0.0852756)
(4.33356e-07 -9.67439e-06 0.0852097)
(-1.44759e-07 6.66893e-06 0.0678174)
(-1.22007e-07 6.67205e-06 0.0678157)
(4.50044e-07 -9.77809e-06 0.0852107)
(1.61793e-06 1.14125e-05 0.0816202)
(7.04897e-07 -6.44738e-06 0.0677405)
(1.52987e-06 1.167e-05 0.0852765)
(8.75729e-07 -7.02537e-06 0.0762083)
(4.13897e-07 -1.25738e-05 0.0909829)
(1.02152e-06 1.34413e-05 0.0894735)
(3.44391e-07 7.07419e-06 0.078049)
(-1.75431e-08 -1.253e-05 0.0894144)
(6.28325e-07 -6.35522e-06 0.0780024)
(-1.48193e-07 6.78779e-06 0.076265)
(6.62571e-06 6.60251e-06 0.083111)
(-3.49691e-06 -5.53772e-06 0.0677578)
(-5.52837e-06 -3.50989e-06 0.067752)
(-5.80911e-06 -5.8165e-06 0.0830588)
(4.09363e-06 5.52179e-06 0.0678213)
(5.54455e-06 4.07727e-06 0.0678153)
(-1.37145e-05 -8.39975e-06 0.091261)
(2.05924e-05 8.17863e-06 0.09613)
(-7.32773e-06 -7.05604e-06 0.0869794)
(7.56754e-06 3.84494e-06 0.0810029)
(-2.1197e-05 -1.41873e-05 0.0960718)
(-6.43196e-06 -4.44519e-06 0.0809443)
(1.633e-05 8.21375e-06 0.0913168)
(-8.40701e-06 -1.37231e-05 0.0912541)
(8.23945e-06 2.05914e-05 0.0961272)
(-7.0645e-06 -7.31895e-06 0.086978)
(3.89576e-06 7.579e-06 0.0809976)
(-1.41924e-05 -2.11793e-05 0.0960687)
(-4.45432e-06 -6.47025e-06 0.0809399)
(8.28436e-06 1.63288e-05 0.0913099)
(1.62449e-05 8.15575e-06 0.0913201)
(-6.52847e-06 -4.45128e-06 0.0809441)
(-2.14734e-05 -1.436e-05 0.096078)
(8.27486e-06 5.14834e-06 0.0870378)
(-1.39085e-05 -8.51049e-06 0.0912641)
(2.04441e-05 8.0606e-06 0.0961364)
(7.50892e-06 3.85887e-06 0.0810028)
(8.21318e-06 1.62459e-05 0.0913131)
(-4.46466e-06 -6.55484e-06 0.0809397)
(-1.4368e-05 -2.14483e-05 0.0960749)
(5.17769e-06 8.26375e-06 0.0870359)
(-8.52708e-06 -1.39121e-05 0.0912573)
(8.10882e-06 2.04471e-05 0.0961336)
(3.90989e-06 7.52873e-06 0.0809975)
(-5.73045e-06 -5.74541e-06 0.0830582)
(4.10138e-06 5.51275e-06 0.0678222)
(5.54404e-06 4.08039e-06 0.0678162)
(-3.46783e-06 -5.51124e-06 0.0677588)
(-5.49447e-06 -3.48621e-06 0.067753)
(6.6695e-06 6.63909e-06 0.0831103)
(-5.53115e-06 -4.62887e-06 0.0708563)
(6.89722e-06 2.04376e-06 0.0709153)
(-4.6554e-06 -5.51762e-06 0.0708558)
(2.08122e-06 6.88241e-06 0.0709152)
(1.87951e-05 1.8829e-05 0.0974182)
(4.45354e-05 4.45697e-05 0.104745)
(-3.98711e-05 -2.12602e-05 0.101727)
(-2.11504e-05 -3.98773e-05 0.101732)
(4.32231e-05 2.43378e-05 0.101643)
(2.42803e-05 4.32213e-05 0.101636)
(-1.97966e-05 -2.00968e-05 0.0974882)
(-1.88602e-05 1.8795e-05 0.0974182)
(-4.45515e-05 4.45071e-05 0.104745)
(3.99539e-05 -2.11987e-05 0.101728)
(2.12097e-05 -3.99792e-05 0.101732)
(-4.32776e-05 2.42996e-05 0.101638)
(-2.43173e-05 4.32388e-05 0.101642)
(2.00073e-05 -1.99878e-05 0.097489)
(1.87649e-05 -1.88612e-05 0.0974182)
(4.45031e-05 -4.45707e-05 0.104745)
(-2.11834e-05 3.99667e-05 0.101728)
(-3.99889e-05 2.12077e-05 0.101731)
(2.42494e-05 -4.32653e-05 0.101637)
(4.32008e-05 -2.42965e-05 0.101641)
(-1.99643e-05 1.99991e-05 0.0974882)
(-1.88051e-05 -1.8799e-05 0.0974186)
(-4.45149e-05 -4.45152e-05 0.104745)
(2.12291e-05 3.99829e-05 0.101731)
(3.99957e-05 2.12269e-05 0.101728)
(-2.42887e-05 -4.32598e-05 0.101642)
(-4.32071e-05 -2.42589e-05 0.101638)
(2.00107e-05 1.99806e-05 0.0974885)
(1.04059e-05 3.15494e-05 0.115006)
(3.15265e-05 1.03958e-05 0.115006)
(1.05545e-05 3.19739e-05 0.11498)
(1.32115e-05 1.32118e-05 0.116309)
(1.30934e-05 1.31005e-05 0.116357)
(-2.31973e-05 2.31941e-05 0.113129)
(-1.04132e-05 3.1557e-05 0.115006)
(-3.15323e-05 1.04177e-05 0.115007)
(-1.05617e-05 3.19909e-05 0.11498)
(-3.19726e-05 1.05627e-05 0.114981)
(-1.32022e-05 1.32223e-05 0.11631)
(-1.30881e-05 1.31059e-05 0.116357)
(3.15451e-05 -1.04262e-05 0.115005)
(1.043e-05 -3.15197e-05 0.115006)
(1.0585e-05 -3.19567e-05 0.11498)
(1.3226e-05 -1.31887e-05 0.116309)
(1.31008e-05 -1.30799e-05 0.116357)
(-2.31799e-05 -2.3171e-05 0.113128)
(-3.15322e-05 -1.04031e-05 0.115005)
(-1.04004e-05 -3.15108e-05 0.115006)
(-3.19735e-05 -1.05464e-05 0.114979)
(-1.0549e-05 -3.19518e-05 0.11498)
(-1.32009e-05 -1.31826e-05 0.116309)
(-1.30864e-05 -1.30742e-05 0.116357)
(8.8885e-07 -4.18252e-05 0.103364)
(1.59739e-06 2.49996e-05 0.0974885)
(8.51889e-07 5.81535e-05 0.103957)
(-4.84364e-07 -1.69863e-05 0.0986219)
(4.12692e-06 5.77714e-05 0.103208)
(-1.09438e-06 -1.74039e-05 0.0975671)
(6.62953e-07 -3.99808e-05 0.104085)
(8.1344e-06 5.56395e-05 0.101539)
(-5.73038e-06 -4.37614e-05 0.099618)
(6.71314e-06 1.91388e-05 0.0926171)
(-3.54379e-06 -1.83778e-05 0.0954619)
(1.2405e-05 5.27954e-05 0.0995443)
(3.33096e-06 2.17177e-05 0.0953825)
(-2.00837e-06 -4.54647e-05 0.101674)
(4.0155e-06 5.70961e-05 0.103195)
(1.15066e-07 2.46915e-05 0.0985428)
(-1.11237e-06 -1.76163e-05 0.0975574)
(6.37055e-07 -4.02445e-05 0.104071)
(1.56216e-06 2.46933e-05 0.0974792)
(8.24326e-07 5.74961e-05 0.103943)
(8.14389e-07 -4.21051e-05 0.10335)
(-9.38197e-07 -4.18714e-05 0.103363)
(-1.6098e-06 2.50276e-05 0.0974877)
(-8.42724e-07 5.81444e-05 0.103957)
(4.45644e-07 -1.69884e-05 0.0986218)
(-4.12153e-06 5.77875e-05 0.103207)
(1.05069e-06 -1.74464e-05 0.0975667)
(-6.96346e-07 -3.99777e-05 0.104085)
(-8.14687e-06 5.56648e-05 0.101538)
(5.66251e-06 -4.37728e-05 0.0996183)
(-6.74419e-06 1.91685e-05 0.092616)
(3.4906e-06 -1.84332e-05 0.0954615)
(-3.34554e-06 2.17433e-05 0.0953811)
(-1.23895e-05 5.28009e-05 0.0995416)
(1.85017e-06 -4.54347e-05 0.101674)
(1.76471e-06 -4.52971e-05 0.101686)
(-3.40424e-06 2.19804e-05 0.0953882)
(-1.25568e-05 5.3277e-05 0.0995506)
(6.74705e-06 -1.34971e-05 0.0926869)
(-8.2794e-06 5.61901e-05 0.10155)
(3.46967e-06 -1.82848e-05 0.0954688)
(5.54593e-06 -4.36002e-05 0.0996276)
(-4.03812e-06 5.71752e-05 0.103194)
(-1.18352e-07 2.46948e-05 0.0985426)
(1.07393e-06 -1.76444e-05 0.0975572)
(-6.70364e-07 -4.0239e-05 0.10407)
(-1.57155e-06 2.47232e-05 0.0974784)
(-8.16752e-07 5.75001e-05 0.103943)
(-8.67098e-07 -4.21048e-05 0.10335)
(1.98903e-05 -1.9871e-05 0.0974962)
(3.8261e-05 -3.82362e-05 0.104922)
(-4.3651e-05 2.46249e-05 0.101648)
(-2.46578e-05 4.36267e-05 0.101652)
(3.98545e-05 -2.10241e-05 0.101739)
(-1.91213e-05 1.90547e-05 0.0974252)
(2.10307e-05 -3.98745e-05 0.101742)
(5.56477e-05 8.1857e-06 0.101538)
(-4.38348e-05 -5.69489e-06 0.0996201)
(1.90794e-05 6.7532e-06 0.0926163)
(-1.84676e-05 -3.48701e-06 0.095462)
(5.27696e-05 1.23878e-05 0.0995419)
(2.17174e-05 3.38086e-06 0.0953817)
(-4.54797e-05 -1.78708e-06 0.101675)
(5.7229e-05 4.05133e-06 0.103194)
(2.47138e-05 1.2324e-07 0.0985423)
(-1.76474e-05 -1.06453e-06 0.0975571)
(-4.02391e-05 6.70722e-07 0.10407)
(2.47383e-05 1.58671e-06 0.0974785)
(5.75157e-05 8.05656e-07 0.103943)
(-4.21522e-05 8.74801e-07 0.10335)
(5.5662e-05 -8.13767e-06 0.101538)
(-4.37804e-05 5.66875e-06 0.0996183)
(1.91067e-05 -6.71464e-06 0.0926159)
(-1.84069e-05 3.46879e-06 0.0954622)
(2.17279e-05 -3.32893e-06 0.095382)
(5.27749e-05 -1.2386e-05 0.0995418)
(-4.54372e-05 1.85349e-06 0.101674)
(5.72432e-05 -4.02125e-06 0.103194)
(2.47137e-05 -7.05336e-08 0.0985425)
(-4.02543e-05 -6.60787e-07 0.10407)
(-1.76199e-05 1.07007e-06 0.0975573)
(5.75251e-05 -7.99774e-07 0.103943)
(2.4718e-05 -1.53374e-06 0.097479)
(-4.21281e-05 -8.67224e-07 0.10335)
(4.18046e-05 9.44044e-07 0.103364)
(-2.50439e-05 1.59445e-06 0.0974874)
(-5.8164e-05 8.12243e-07 0.103957)
(1.69513e-05 -4.24247e-07 0.0986215)
(-5.78123e-05 4.09491e-06 0.103207)
(1.74179e-05 -1.02451e-06 0.0975668)
(3.99402e-05 7.1322e-07 0.104085)
(-5.56073e-05 8.13636e-06 0.101539)
(4.37719e-05 -5.70737e-06 0.0996205)
(-1.90824e-05 6.71203e-06 0.0926168)
(1.84313e-05 -3.48508e-06 0.0954625)
(-5.27546e-05 1.23783e-05 0.0995443)
(-2.17154e-05 3.33216e-06 0.0953815)
(4.54603e-05 -1.89277e-06 0.101676)
(4.52787e-05 -1.79484e-06 0.101688)
(-2.1962e-05 3.39866e-06 0.0953886)
(-5.3192e-05 1.25305e-05 0.0995533)
(1.34588e-05 -6.73494e-06 0.0926883)
(-5.61618e-05 8.27887e-06 0.101551)
(4.35923e-05 -5.58599e-06 0.0996298)
(1.82774e-05 -3.45293e-06 0.0954699)
(-5.71551e-05 4.00317e-06 0.103194)
(-2.47083e-05 9.54666e-08 0.0985425)
(1.76308e-05 -1.05459e-06 0.0975573)
(4.02338e-05 6.76791e-07 0.104071)
(-2.47379e-05 1.54927e-06 0.0974782)
(-5.74901e-05 7.81456e-07 0.103943)
(4.2065e-05 8.71668e-07 0.103351)
(4.18408e-05 -9.29233e-07 0.103363)
(-5.81605e-05 -8.64773e-07 0.103957)
(-2.50226e-05 -1.60457e-06 0.0974881)
(1.69459e-05 4.61411e-07 0.0986214)
(-5.77722e-05 -4.12316e-06 0.103208)
(3.99482e-05 -6.64148e-07 0.104084)
(1.74017e-05 1.05898e-06 0.0975668)
(-5.56553e-05 -8.16142e-06 0.101539)
(4.37854e-05 5.69443e-06 0.0996193)
(-1.91077e-05 -6.75294e-06 0.0926172)
(1.84196e-05 3.50285e-06 0.0954624)
(-2.17219e-05 -3.36344e-06 0.0953822)
(-5.27717e-05 -1.23837e-05 0.0995438)
(4.54401e-05 1.87794e-06 0.101674)
(4.53009e-05 1.78991e-06 0.101687)
(-2.19554e-05 -3.40776e-06 0.0953893)
(-5.32361e-05 -1.2539e-05 0.0995528)
(1.34791e-05 6.75805e-06 0.0926874)
(-5.6183e-05 -8.28795e-06 0.101551)
(1.82731e-05 3.48834e-06 0.0954697)
(4.36268e-05 5.59047e-06 0.0996286)
(-5.72012e-05 -4.04301e-06 0.103195)
(-2.47038e-05 -1.0871e-07 0.0985428)
(4.02477e-05 -6.33909e-07 0.10407)
(1.76067e-05 1.09474e-06 0.0975573)
(-5.74811e-05 -8.28452e-07 0.103943)
(-2.47234e-05 -1.56053e-06 0.0974788)
(4.20706e-05 -8.58475e-07 0.10335)
(9.24752e-07 4.18338e-05 0.103364)
(8.27687e-07 -5.81797e-05 0.103957)
(1.60982e-06 -2.50394e-05 0.0974877)
(-4.68948e-07 1.69541e-05 0.0986215)
(4.09481e-06 -5.77993e-05 0.103207)
(6.79825e-07 3.99531e-05 0.104084)
(-1.07384e-06 1.74208e-05 0.097567)
(8.13775e-06 -5.56803e-05 0.101539)
(-5.72753e-06 4.38205e-05 0.0996202)
(6.73686e-06 -1.91288e-05 0.0926174)
(-3.52175e-06 1.84405e-05 0.0954627)
(1.23656e-05 -5.27504e-05 0.0995439)
(3.36464e-06 -2.17518e-05 0.0953826)
(-1.89903e-06 4.54767e-05 0.101675)
(-1.79801e-06 4.53111e-05 0.101688)
(-3.49923e-06 1.82968e-05 0.09547)
(4.01691e-06 -5.72439e-05 0.103194)
(9.3285e-08 -2.47234e-05 0.098542)
(6.52488e-07 4.02205e-05 0.10407)
(-1.09703e-06 1.76292e-05 0.0975574)
(8.02319e-07 -5.75499e-05 0.103943)
(1.56555e-06 -2.47391e-05 0.0974785)
(8.43083e-07 4.21198e-05 0.10335)
(-9.50816e-07 4.18393e-05 0.103363)
(-8.3308e-07 -5.81444e-05 0.103957)
(-1.60726e-06 -2.50081e-05 0.0974872)
(4.16828e-07 1.69436e-05 0.0986214)
(-4.09002e-06 -5.77709e-05 0.103207)
(-7.08788e-07 3.99396e-05 0.104084)
(1.02137e-06 1.7388e-05 0.0975669)
(-8.13291e-06 -5.56029e-05 0.101538)
(5.71221e-06 4.38098e-05 0.0996189)
(-6.78074e-06 -1.9113e-05 0.0926166)
(3.49881e-06 1.84113e-05 0.0954624)
(-3.38797e-06 -2.16919e-05 0.0953813)
(-1.23809e-05 -5.27329e-05 0.0995425)
(1.86942e-06 4.54529e-05 0.101675)
(1.78326e-06 4.53079e-05 0.101687)
(-3.44385e-06 -2.19287e-05 0.0953884)
(-1.2546e-05 -5.321e-05 0.0995515)
(6.78764e-06 1.35145e-05 0.0926875)
(-8.26579e-06 -5.61312e-05 0.10155)
(3.48293e-06 1.82657e-05 0.0954696)
(5.60731e-06 4.36468e-05 0.0996282)
(-4.01371e-06 -5.72045e-05 0.103194)
(-1.04479e-07 -2.47147e-05 0.098542)
(-6.77357e-07 4.02078e-05 0.10407)
(1.04199e-06 1.75883e-05 0.0975575)
(-8.05127e-07 -5.75182e-05 0.103943)
(-1.56751e-06 -2.47076e-05 0.0974779)
(-8.74729e-07 4.2089e-05 0.10335)
(1.98847e-05 1.98543e-05 0.0974956)
(3.82768e-05 3.82667e-05 0.104921)
(-2.46245e-05 -4.36415e-05 0.101652)
(-4.36023e-05 -2.46035e-05 0.101648)
(-1.90571e-05 -1.90495e-05 0.0974255)
(2.10441e-05 3.98767e-05 0.101741)
(3.98858e-05 2.10435e-05 0.101739)
(6.10396e-05 6.10281e-05 0.108908)
(-9.17416e-05 5.68815e-05 0.107966)
(5.69173e-05 -9.17802e-05 0.107966)
(-0.000146113 -0.000146214 0.106634)
(9.84167e-06 9.73041e-06 0.106791)
(5.74028e-05 9.21489e-05 0.107918)
(-5.75063e-05 9.22915e-05 0.107918)
(-9.77955e-06 9.72629e-06 0.106792)
(9.23511e-05 5.74127e-05 0.107919)
(9.23274e-05 -5.74348e-05 0.107918)
(-9.22445e-05 5.71938e-05 0.107919)
(-9.2266e-05 -5.73154e-05 0.107918)
(9.77797e-06 -9.68423e-06 0.106791)
(5.72115e-05 -9.22675e-05 0.107918)
(-5.71617e-05 -9.21514e-05 0.107918)
(-9.65295e-06 -9.67608e-06 0.106791)
(0.000146156 0.000146166 0.106634)
(7.16037e-06 7.1485e-06 0.10683)
(5.70832e-05 9.17931e-05 0.107966)
(-5.71967e-05 9.18044e-05 0.107965)
(5.6223e-05 8.99749e-05 0.1081)
(-5.62785e-05 9.02766e-05 0.1081)
(-0.000146201 0.000146068 0.106635)
(-6.9681e-06 6.94327e-06 0.106831)
(9.1752e-05 5.69686e-05 0.107966)
(9.18382e-05 -5.7125e-05 0.107965)
(9.03789e-05 5.63302e-05 0.108101)
(9.0306e-05 -5.6232e-05 0.1081)
(-9.17648e-05 -5.70091e-05 0.107965)
(-9.01788e-05 5.60023e-05 0.108101)
(-9.02096e-05 -5.61075e-05 0.1081)
(0.000146158 -0.000146225 0.106634)
(7.0331e-06 -6.89786e-06 0.10683)
(-5.68492e-05 -9.16549e-05 0.107966)
(5.60401e-05 -9.02341e-05 0.108101)
(-5.59487e-05 -9.01137e-05 0.108101)
(-6.87948e-06 -6.92463e-06 0.10683)
(6.13476e-05 6.13438e-05 0.108832)
(-6.14189e-05 6.12902e-05 0.108832)
(6.12947e-05 -6.13542e-05 0.108832)
(-6.13564e-05 -6.13398e-05 0.108832)
(1.2438e-06 1.07831e-05 0.0940542)
(-1.47294e-06 3.26457e-05 0.0835753)
(1.95086e-06 5.77626e-05 0.0940777)
(-4.18888e-06 -4.84777e-06 0.0835802)
(-3.63589e-06 1.48155e-05 0.0721606)
(5.47289e-06 -5.58266e-06 0.0721981)
(1.07404e-05 1.17628e-06 0.0940539)
(3.2736e-05 -1.48467e-06 0.0835765)
(5.78715e-05 1.91763e-06 0.0940784)
(-4.8982e-06 -4.14125e-06 0.0835798)
(-6.11044e-05 6.09811e-05 0.108908)
(6.09922e-05 -6.10511e-05 0.108908)
(-6.1041e-05 -6.10312e-05 0.108908)
(6.0133e-05 6.0159e-05 0.109132)
(-6.01521e-05 6.00575e-05 0.109132)
(6.00729e-05 -6.01177e-05 0.109132)
(-6.00981e-05 -6.00982e-05 0.109132)
(-4.89841e-05 3.88831e-06 0.102491)
(-6.49831e-05 2.62627e-05 0.0957158)
(-0.000101832 2.00629e-05 0.108605)
(-9.12355e-05 5.65754e-05 0.108012)
(-0.000111159 5.56864e-06 0.102466)
(-2.15492e-05 -3.83444e-07 0.0957348)
(-0.000101473 1.99125e-05 0.108671)
(1.47334e-05 -3.53167e-06 0.0721574)
(-5.58113e-06 5.48856e-06 0.0721998)
(3.95706e-06 -4.89859e-05 0.102491)
(2.01066e-05 -0.00010174 0.108605)
(2.63786e-05 -6.4961e-05 0.0957164)
(5.66305e-05 -9.12775e-05 0.108012)
(5.7507e-06 -0.000111169 0.102465)
(1.99657e-05 -0.000101371 0.10867)
(-3.8598e-07 -2.13496e-05 0.0957331)
(-3.18208e-05 -1.7419e-05 0.0893932)
(-1.7223e-05 -3.19455e-05 0.0893915)
(-8.24477e-06 -8.28935e-06 0.106814)
(-1.07115e-05 2.95672e-06 0.0893983)
(3.20021e-06 -1.08387e-05 0.0893958)
(-5.54534e-06 -5.43865e-06 0.0722794)
(3.52386e-06 1.51125e-05 0.0722397)
(-5.4155e-06 -5.55003e-06 0.072277)
(1.51994e-05 3.55713e-06 0.0722402)
(0.000147889 0.000147936 0.106613)
(-2.77604e-06 1.19642e-05 0.0895315)
(1.18132e-05 -2.84894e-06 0.0895289)
(1.7814e-05 3.29817e-05 0.0895287)
(3.3125e-05 1.7777e-05 0.0895264)
(2.16078e-06 6.05795e-05 0.0942444)
(-4.34519e-06 -4.11451e-06 0.0836964)
(-1.66763e-06 3.38451e-05 0.083695)
(1.4402e-06 1.29524e-05 0.0942166)
(-2.18659e-06 6.05865e-05 0.0942447)
(4.26887e-06 -4.19047e-06 0.0836955)
(1.63106e-06 3.38512e-05 0.0836964)
(-1.35501e-06 1.29697e-05 0.0942167)
(6.11534e-06 0.000114858 0.102598)
(5.7699e-05 9.27682e-05 0.10787)
(1.57052e-07 2.35701e-05 0.0958847)
(2.02589e-05 0.000102055 0.108539)
(2.73082e-05 6.7352e-05 0.0958686)
(2.03964e-05 0.000102425 0.108472)
(4.54825e-06 5.21127e-05 0.102625)
(-6.21562e-06 0.000114887 0.102598)
(-5.78078e-05 9.27739e-05 0.10787)
(-2.12201e-07 2.33502e-05 0.0958834)
(-2.03054e-05 0.000102092 0.108539)
(-2.74399e-05 6.73742e-05 0.0958688)
(-2.04586e-05 0.000102436 0.108472)
(-4.51343e-06 5.20896e-05 0.102625)
(5.52444e-06 -5.43276e-06 0.0722771)
(-3.65697e-06 1.51436e-05 0.0722414)
(-0.000147972 0.000147807 0.106613)
(2.78084e-06 1.17938e-05 0.0895288)
(-1.19065e-05 -2.80607e-06 0.0895323)
(-1.78688e-05 3.30159e-05 0.0895275)
(-3.30194e-05 1.7763e-05 0.0895285)
(5.46473e-06 -5.54506e-06 0.0722794)
(-1.51223e-05 3.50046e-06 0.0722391)
(6.06523e-05 2.1039e-06 0.0942452)
(-4.15867e-06 -4.28577e-06 0.0836959)
(3.39044e-05 -1.72169e-06 0.083696)
(1.29488e-05 1.37146e-06 0.0942162)
(0.000114886 6.11435e-06 0.102598)
(9.27277e-05 5.75789e-05 0.10787)
(2.33752e-05 1.41415e-07 0.0958842)
(0.000102089 2.02628e-05 0.108539)
(6.74269e-05 2.731e-05 0.0958685)
(0.000102457 2.04096e-05 0.108472)
(5.2099e-05 4.51269e-06 0.102625)
(6.06503e-05 -2.17811e-06 0.0942452)
(-4.14268e-06 4.3118e-06 0.0836967)
(3.38186e-05 1.65205e-06 0.0836946)
(1.29534e-05 -1.49818e-06 0.094216)
(0.000114867 -6.16574e-06 0.102598)
(9.2812e-05 -5.77367e-05 0.107869)
(0.000102067 -2.02681e-05 0.108539)
(2.34186e-05 -2.16305e-07 0.0958849)
(0.000102421 -2.04039e-05 0.108472)
(6.73302e-05 -2.73481e-05 0.0958676)
(5.20749e-05 -4.58582e-06 0.102625)
(-0.000114951 6.04641e-06 0.102597)
(-9.27349e-05 5.74936e-05 0.10787)
(-2.35358e-05 1.91741e-07 0.0958863)
(-0.000102195 2.02161e-05 0.108539)
(-6.73712e-05 2.73113e-05 0.0958691)
(-0.000102557 2.03709e-05 0.108472)
(-5.21849e-05 4.47054e-06 0.102625)