/*--------------------------------*- C++ -*----------------------------------*\
| =========                 |                                                 |
| \\      /  F ield         | OpenFOAM: The Open Source CFD Toolbox           |
|  \\    /   O peration     | Version:  v1906                                 |
|   \\  /    A nd           | Web:      www.OpenFOAM.com                      |
|    \\/     M anipulation  |                                                 |
\*---------------------------------------------------------------------------*/
FoamFile
{
    version     2.0;
    format      ascii;
    class       volScalarField;
    location    "800";
    object      epsilon;
}
// * * * * * * * * * * * * * * * * * * * * * * * * * * * * * * * * * * * * * //

dimensions      [0 2 -3 0 0 0 0];


internalField   nonuniform List<scalar> 
42616
(
4.95569e-07
4.97405e-07
4.97399e-07
4.99624e-07
4.45581e-07
4.53878e-07
4.53863e-07
4.63955e-07
4.0377e-07
4.1867e-07
4.18654e-07
4.39609e-07
3.68386e-07
3.88672e-07
3.88668e-07
4.17676e-07
3.38035e-07
3.62167e-07
3.62171e-07
3.95971e-07
3.11658e-07
3.38282e-07
3.38288e-07
3.7433e-07
2.88472e-07
3.16595e-07
3.16599e-07
3.53365e-07
2.67909e-07
2.9693e-07
2.96934e-07
3.33739e-07
2.4955e-07
2.79233e-07
2.79236e-07
3.15807e-07
2.33092e-07
2.63501e-07
2.63504e-07
3.00352e-07
2.18307e-07
2.49741e-07
2.49747e-07
2.87613e-07
2.05018e-07
2.3795e-07
2.37959e-07
2.7783e-07
1.93085e-07
2.28129e-07
2.28142e-07
2.71122e-07
1.82397e-07
2.20285e-07
2.20303e-07
2.67501e-07
1.72865e-07
2.14419e-07
2.14438e-07
2.66941e-07
1.64412e-07
2.1054e-07
2.10563e-07
2.69733e-07
1.56976e-07
2.08659e-07
2.08687e-07
2.75843e-07
1.50505e-07
2.08785e-07
2.08816e-07
2.85223e-07
1.44953e-07
2.10974e-07
2.11008e-07
2.98048e-07
1.40286e-07
2.15237e-07
2.15275e-07
3.14307e-07
1.36471e-07
2.21593e-07
2.21636e-07
3.33999e-07
5.06413e-07
5.05551e-07
5.05551e-07
5.06411e-07
5.05553e-07
5.05555e-07
5.09644e-07
5.09644e-07
5.09645e-07
5.09645e-07
5.05558e-07
5.05549e-07
5.06416e-07
5.05558e-07
5.05546e-07
5.06404e-07
4.99613e-07
4.67451e-07
4.97413e-07
4.97419e-07
4.63841e-07
4.6386e-07
4.99631e-07
4.67487e-07
4.97412e-07
4.97409e-07
4.6383e-07
4.63845e-07
4.97403e-07
4.63836e-07
4.63834e-07
4.99607e-07
4.67434e-07
4.97414e-07
4.63823e-07
4.63852e-07
4.67441e-07
4.63963e-07
4.41608e-07
4.53886e-07
4.53907e-07
4.26897e-07
4.26919e-07
4.64004e-07
4.41627e-07
4.53875e-07
4.53892e-07
4.26883e-07
4.26902e-07
4.53884e-07
4.26888e-07
4.26903e-07
4.63943e-07
4.41586e-07
4.53901e-07
4.26873e-07
4.26916e-07
4.41608e-07
4.39602e-07
4.19318e-07
4.18679e-07
4.187e-07
3.95811e-07
3.95824e-07
4.39624e-07
4.19304e-07
4.18665e-07
4.18684e-07
3.95796e-07
3.95816e-07
4.18687e-07
3.95798e-07
3.95822e-07
4.39582e-07
4.19322e-07
4.18696e-07
3.9579e-07
3.95822e-07
4.19339e-07
4.17698e-07
3.97498e-07
3.88689e-07
3.88699e-07
3.68544e-07
3.6855e-07
4.17676e-07
3.97546e-07
3.88674e-07
3.88695e-07
3.6853e-07
3.6855e-07
3.88699e-07
3.68525e-07
3.68554e-07
4.17652e-07
3.97577e-07
3.88697e-07
3.68528e-07
3.68545e-07
3.97507e-07
3.95968e-07
3.7578e-07
3.62187e-07
3.62193e-07
3.44057e-07
3.44062e-07
3.95842e-07
3.75886e-07
3.62174e-07
3.62193e-07
3.44043e-07
3.44061e-07
3.62197e-07
3.44038e-07
3.44066e-07
3.95877e-07
3.75907e-07
3.62187e-07
3.44043e-07
3.44049e-07
3.75816e-07
3.74376e-07
3.54706e-07
3.38303e-07
3.38307e-07
3.21846e-07
3.21844e-07
3.74228e-07
3.54768e-07
3.38289e-07
3.38307e-07
3.21829e-07
3.21847e-07
3.38312e-07
3.21825e-07
3.21854e-07
3.74232e-07
3.5485e-07
3.38292e-07
3.2183e-07
3.21828e-07
3.5474e-07
3.53417e-07
3.34896e-07
3.16618e-07
3.16615e-07
3.01688e-07
3.01679e-07
3.53295e-07
3.34982e-07
3.16599e-07
3.16619e-07
3.01664e-07
3.01683e-07
3.16626e-07
3.01661e-07
3.01694e-07
3.53259e-07
3.34899e-07
3.16598e-07
3.01665e-07
3.01663e-07
3.34939e-07
3.33778e-07
3.17101e-07
2.96957e-07
2.96947e-07
2.83504e-07
2.83492e-07
3.33623e-07
3.16982e-07
2.96932e-07
2.96952e-07
2.83475e-07
2.83493e-07
2.96963e-07
2.83473e-07
2.83508e-07
3.33818e-07
3.17098e-07
2.96932e-07
2.83476e-07
2.83478e-07
3.17141e-07
3.1591e-07
3.01342e-07
2.79263e-07
2.79251e-07
2.67281e-07
2.6727e-07
3.16007e-07
3.01286e-07
2.79234e-07
2.79251e-07
2.67252e-07
2.67266e-07
2.79266e-07
2.6725e-07
2.67282e-07
3.15917e-07
3.01421e-07
2.79237e-07
2.67252e-07
2.67256e-07
3.01496e-07
3.00598e-07
2.88462e-07
2.63533e-07
2.63521e-07
2.53031e-07
2.53021e-07
3.00575e-07
2.88433e-07
2.63505e-07
2.63517e-07
2.53004e-07
2.53017e-07
2.63533e-07
2.52997e-07
2.53028e-07
3.00459e-07
2.88289e-07
2.63508e-07
2.53002e-07
2.53005e-07
2.88437e-07
2.87619e-07
2.78261e-07
2.49774e-07
2.49765e-07
2.40748e-07
2.4074e-07
2.87593e-07
2.78152e-07
2.49749e-07
2.49763e-07
2.40725e-07
2.4074e-07
2.49771e-07
2.40713e-07
2.40743e-07
2.87892e-07
2.78023e-07
2.4975e-07
2.40721e-07
2.40723e-07
2.78162e-07
2.77784e-07
2.71202e-07
2.37984e-07
2.37976e-07
2.30435e-07
2.30427e-07
2.77836e-07
2.71184e-07
2.37961e-07
2.37978e-07
2.30412e-07
2.30432e-07
2.37978e-07
2.30398e-07
2.30427e-07
2.77935e-07
2.71046e-07
2.37959e-07
2.3041e-07
2.30409e-07
2.71191e-07
2.71238e-07
2.67187e-07
2.28166e-07
2.28159e-07
2.22099e-07
2.22091e-07
2.71129e-07
2.67183e-07
2.28145e-07
2.28166e-07
2.22074e-07
2.22101e-07
2.28158e-07
2.22058e-07
2.22089e-07
2.71344e-07
2.6719e-07
2.2814e-07
2.22075e-07
2.22071e-07
2.67207e-07
2.67492e-07
2.66293e-07
2.20325e-07
2.20319e-07
2.15736e-07
2.1573e-07
2.67481e-07
2.66267e-07
2.20301e-07
2.2033e-07
2.1571e-07
2.15744e-07
2.20316e-07
2.15692e-07
2.15726e-07
2.67509e-07
2.66312e-07
2.20298e-07
2.15712e-07
2.15707e-07
2.663e-07
2.66946e-07
2.68415e-07
2.14463e-07
2.14459e-07
2.11362e-07
2.11359e-07
2.66922e-07
2.68394e-07
2.14438e-07
2.14473e-07
2.11337e-07
2.11375e-07
2.14452e-07
2.1131e-07
2.1135e-07
2.66964e-07
2.68423e-07
2.14433e-07
2.11333e-07
2.11328e-07
2.68424e-07
2.69755e-07
2.73872e-07
2.10595e-07
2.10592e-07
2.08981e-07
2.08978e-07
2.69717e-07
2.73795e-07
2.10569e-07
2.10609e-07
2.08955e-07
2.08997e-07
2.10581e-07
2.08918e-07
2.08966e-07
2.6977e-07
2.73871e-07
2.10559e-07
2.08946e-07
2.0894e-07
2.73889e-07
2.75879e-07
2.82807e-07
2.08723e-07
2.0872e-07
2.08654e-07
2.08644e-07
2.75848e-07
2.82353e-07
2.08696e-07
2.0874e-07
2.08619e-07
2.08667e-07
2.08707e-07
2.08582e-07
2.08637e-07
2.75899e-07
2.82786e-07
2.08683e-07
2.08606e-07
2.08604e-07
2.82878e-07
2.85289e-07
2.94908e-07
2.08851e-07
2.08857e-07
2.1031e-07
2.10304e-07
2.85562e-07
2.94563e-07
2.08832e-07
2.08881e-07
2.10272e-07
2.1033e-07
2.08835e-07
2.10231e-07
2.10287e-07
2.85321e-07
2.94895e-07
2.0881e-07
2.10262e-07
2.10257e-07
2.95058e-07
2.98151e-07
3.10551e-07
2.11052e-07
2.11054e-07
2.14067e-07
2.14061e-07
2.98362e-07
3.10269e-07
2.1103e-07
2.11082e-07
2.14021e-07
2.14086e-07
2.11034e-07
2.13975e-07
2.14037e-07
2.98194e-07
3.1066e-07
2.11004e-07
2.1401e-07
2.14007e-07
3.10541e-07
3.14479e-07
3.29563e-07
2.1532e-07
2.1533e-07
2.19908e-07
2.19912e-07
3.14533e-07
3.29098e-07
2.15302e-07
2.15356e-07
2.19857e-07
2.19933e-07
2.15302e-07
2.1981e-07
2.19878e-07
3.14523e-07
3.29812e-07
2.15271e-07
2.19848e-07
2.19847e-07
3.29485e-07
3.33878e-07
2.21671e-07
2.21699e-07
3.34273e-07
2.21665e-07
2.21725e-07
2.21663e-07
3.34072e-07
2.21631e-07
5.35663e-07
5.35602e-07
5.35656e-07
5.35656e-07
5.34612e-07
5.35515e-07
5.33328e-07
5.35656e-07
5.34614e-07
5.35515e-07
5.35656e-07
5.33534e-07
5.35249e-07
5.35815e-07
5.35428e-07
1.10626e-06
3.86459e-06
9.39126e-07
4.591e-06
1.27353e-05
1.66577e-05
1.10673e-06
3.86475e-06
9.41206e-07
4.59153e-06
4.95568e-07
4.95569e-07
4.95568e-07
4.57235e-07
4.57236e-07
4.57235e-07
4.57235e-07
5.43402e-07
1.22684e-06
4.95574e-07
4.85571e-07
5.25947e-07
1.21435e-06
4.82308e-07
1.27437e-05
1.66571e-05
5.43453e-07
4.95579e-07
1.22581e-06
4.85567e-07
5.26191e-07
4.82312e-07
1.21591e-06
2.54819e-06
2.5405e-06
4.84302e-07
2.38681e-06
2.3855e-06
1.42779e-06
5.5818e-06
1.33004e-06
6.1317e-06
2.13219e-05
2.31414e-05
1.4282e-06
5.58227e-06
1.33028e-06
6.13229e-06
4.45582e-07
4.45581e-07
4.45582e-07
4.13558e-07
4.1356e-07
4.13558e-07
4.13561e-07
5.87435e-07
1.19973e-06
4.4647e-07
4.44443e-07
5.74392e-07
1.20828e-06
4.35735e-07
2.1323e-05
2.31449e-05
5.87332e-07
4.46463e-07
1.19943e-06
4.44427e-07
5.74243e-07
4.35728e-07
1.20934e-06
2.3077e-06
2.30629e-06
4.53708e-07
2.34441e-06
2.34349e-06
1.65873e-06
6.91428e-06
1.59224e-06
7.32124e-06
2.46464e-05
2.49394e-05
1.65947e-06
6.91502e-06
1.59226e-06
7.32235e-06
4.03772e-07
4.0377e-07
4.03773e-07
3.76711e-07
3.76713e-07
3.76712e-07
3.76716e-07
6.15394e-07
1.24782e-06
4.06607e-07
4.10771e-07
6.08286e-07
1.2699e-06
3.97793e-07
2.46495e-05
2.49426e-05
6.15398e-07
4.06604e-07
1.24686e-06
4.10757e-07
6.08222e-07
3.97792e-07
1.2712e-06
2.46223e-06
2.46184e-06
4.30296e-07
2.52025e-06
2.52044e-06
1.80797e-06
7.84489e-06
1.76746e-06
8.10163e-06
2.47295e-05
2.44308e-05
1.8076e-06
7.84605e-06
1.76805e-06
8.10319e-06
3.68387e-07
3.68386e-07
3.6839e-07
3.45214e-07
3.45215e-07
3.45215e-07
3.45218e-07
6.2572e-07
1.31822e-06
3.73544e-07
3.81765e-07
6.24355e-07
1.33775e-06
3.66092e-07
2.47325e-05
2.44329e-05
6.25656e-07
3.73545e-07
1.31826e-06
3.81764e-07
6.24437e-07
3.66095e-07
1.33794e-06
2.62553e-06
2.62537e-06
4.08453e-07
2.67e-06
2.67059e-06
1.88945e-06
8.39367e-06
1.86827e-06
8.53038e-06
2.36825e-05
2.32662e-05
1.88811e-06
8.39501e-06
1.86952e-06
8.53205e-06
3.38035e-07
3.38036e-07
3.38039e-07
3.17926e-07
3.17927e-07
3.17928e-07
3.1793e-07
6.21122e-07
1.37725e-06
3.45291e-07
3.55974e-07
6.24827e-07
1.39057e-06
3.38811e-07
2.36834e-05
2.32686e-05
6.2103e-07
3.45292e-07
1.3772e-06
3.55979e-07
6.24712e-07
3.38814e-07
1.39063e-06
2.75804e-06
2.75849e-06
3.8662e-07
2.80055e-06
2.8009e-06
1.92571e-06
8.66083e-06
1.9177e-06
8.71728e-06
2.24946e-05
2.21233e-05
1.92636e-06
8.66231e-06
1.91833e-06
8.71871e-06
3.11658e-07
3.11659e-07
3.11661e-07
2.94004e-07
2.94004e-07
2.94006e-07
2.94006e-07
6.07692e-07
1.42051e-06
3.20521e-07
3.32667e-07
6.1447e-07
1.43025e-06
3.14768e-07
2.2495e-05
2.21253e-05
6.07605e-07
3.2052e-07
1.42099e-06
3.32672e-07
6.14362e-07
3.14768e-07
1.43001e-06
2.89364e-06
2.89477e-06
3.65156e-07
2.94133e-06
2.94249e-06
1.94401e-06
8.75684e-06
1.93995e-06
8.76873e-06
2.14735e-05
2.11826e-05
1.94413e-06
8.75811e-06
1.94023e-06
8.76976e-06
2.88472e-07
2.88474e-07
2.88475e-07
2.72829e-07
2.72828e-07
2.7283e-07
2.72831e-07
5.90567e-07
1.45666e-06
2.98413e-07
3.11494e-07
5.98343e-07
1.46585e-06
2.93239e-07
2.14741e-05
2.11841e-05
5.90694e-07
2.98408e-07
1.45626e-06
3.11499e-07
5.98236e-07
2.93235e-07
1.46598e-06
3.0503e-06
3.05145e-06
3.44653e-07
3.10525e-06
3.10645e-06
1.96239e-06
8.76514e-06
1.95639e-06
8.76052e-06
2.06745e-05
2.04553e-05
1.96182e-06
8.76597e-06
1.95647e-06
8.76119e-06
2.67907e-07
2.6791e-07
2.67911e-07
2.53951e-07
2.53949e-07
2.53952e-07
2.53954e-07
5.74337e-07
1.49468e-06
2.78477e-07
2.92322e-07
5.81203e-07
1.50691e-06
2.73795e-07
2.06752e-05
2.04568e-05
5.73992e-07
2.78469e-07
1.4953e-06
2.92326e-07
5.80772e-07
2.73789e-07
1.50711e-06
3.22958e-06
3.23018e-06
3.25721e-07
3.2908e-06
3.29296e-06
1.99394e-06
8.74512e-06
1.98172e-06
8.73984e-06
2.00752e-05
1.99134e-05
1.99227e-06
8.74577e-06
1.98197e-06
8.7406e-06
2.49548e-07
2.49551e-07
2.49553e-07
2.37042e-07
2.3704e-07
2.37042e-07
2.37045e-07
5.61829e-07
1.54354e-06
2.60423e-07
2.75116e-07
5.66377e-07
1.55927e-06
2.56181e-07
2.00752e-05
1.99148e-05
5.61412e-07
2.60415e-07
1.5433e-06
2.75119e-07
5.66654e-07
2.56176e-07
1.55915e-06
3.4263e-06
3.42685e-06
3.0905e-07
3.49188e-06
3.49389e-06
2.04507e-06
8.72983e-06
2.02443e-06
8.72824e-06
1.96367e-05
1.95189e-05
2.04323e-06
8.73089e-06
2.02595e-06
8.72953e-06
2.3309e-07
2.33092e-07
2.33095e-07
2.21856e-07
2.21854e-07
2.21855e-07
2.21858e-07
5.5557e-07
1.60466e-06
2.44078e-07
2.59877e-07
5.57487e-07
1.62527e-06
2.40245e-07
1.96361e-05
1.95215e-05
5.55469e-07
2.4407e-07
1.60303e-06
2.5988e-07
5.57591e-07
2.4024e-07
1.62706e-06
3.63329e-06
3.63413e-06
2.9467e-07
3.70031e-06
3.70251e-06
2.11969e-06
8.72807e-06
2.0905e-06
8.73123e-06
1.93224e-05
1.92391e-05
2.11775e-06
8.72952e-06
2.09188e-06
8.73295e-06
2.18304e-07
2.18306e-07
2.18309e-07
2.08207e-07
2.08204e-07
2.08206e-07
2.08208e-07
5.56786e-07
1.68016e-06
2.2933e-07
2.4661e-07
5.55902e-07
1.70535e-06
2.25884e-07
1.93218e-05
1.92426e-05
5.56719e-07
2.29325e-07
1.67811e-06
2.46616e-07
5.55884e-07
2.25882e-07
1.70739e-06
3.84244e-06
3.84398e-06
2.83056e-07
3.91054e-06
3.91108e-06
2.21781e-06
8.73853e-06
2.18342e-06
8.74537e-06
1.91016e-05
1.90434e-05
2.21788e-06
8.73945e-06
2.18304e-06
8.74773e-06
2.05015e-07
2.05017e-07
2.05018e-07
1.95946e-07
1.95943e-07
1.95946e-07
1.95947e-07
5.66033e-07
1.76902e-06
2.16105e-07
2.35309e-07
5.62466e-07
1.79832e-06
2.13031e-07
1.91007e-05
1.90473e-05
5.66022e-07
2.16103e-07
1.76709e-06
2.35319e-07
5.62363e-07
2.13031e-07
1.8004e-06
4.04466e-06
4.04775e-06
2.74318e-07
4.11068e-06
4.11261e-06
2.34238e-06
8.75735e-06
2.29993e-06
8.76594e-06
1.89479e-05
1.89073e-05
2.34278e-06
8.75846e-06
2.2998e-06
8.76836e-06
1.93082e-07
1.93085e-07
1.93085e-07
1.84956e-07
1.84952e-07
1.84957e-07
1.84956e-07
5.85125e-07
1.86932e-06
2.04343e-07
2.25981e-07
5.78329e-07
1.90184e-06
2.01623e-07
1.89467e-05
1.89112e-05
5.85264e-07
2.04343e-07
1.86742e-06
2.25995e-07
5.78329e-07
2.01627e-07
1.9039e-06
4.23669e-06
4.23773e-06
2.68841e-07
4.29648e-06
4.29873e-06
2.48913e-06
8.77911e-06
2.44023e-06
8.78779e-06
1.88401e-05
1.88113e-05
2.48963e-06
8.78037e-06
2.43983e-06
8.79022e-06
1.82394e-07
1.82399e-07
1.82397e-07
1.75141e-07
1.75137e-07
1.75143e-07
1.7514e-07
6.14538e-07
1.97807e-06
1.93987e-07
2.18628e-07
6.03672e-07
2.01281e-06
1.91611e-07
1.88385e-05
1.88153e-05
6.14007e-07
1.9399e-07
1.97625e-06
2.18647e-07
6.0407e-07
1.91619e-07
2.01483e-06
4.41096e-06
4.41228e-06
2.6637e-07
4.46435e-06
4.46679e-06
2.65284e-06
8.80034e-06
2.59901e-06
8.80837e-06
1.8762e-05
1.8741e-05
2.65281e-06
8.80174e-06
2.59911e-06
8.81081e-06
1.7286e-07
1.72867e-07
1.72863e-07
1.66425e-07
1.6642e-07
1.66427e-07
1.66423e-07
6.53932e-07
2.09043e-06
1.84995e-07
2.13254e-07
6.39685e-07
2.12998e-06
1.82952e-07
1.87604e-05
1.87442e-05
6.53486e-07
1.85e-07
2.09189e-06
2.13276e-07
6.40024e-07
1.82961e-07
2.12809e-06
4.56459e-06
4.56745e-06
2.66956e-07
4.61182e-06
4.61234e-06
2.82733e-06
8.81977e-06
2.7703e-06
8.82704e-06
1.87021e-05
1.86861e-05
2.82699e-06
8.82126e-06
2.77057e-06
8.82947e-06
1.64407e-07
1.64414e-07
1.6441e-07
1.5874e-07
1.58734e-07
1.58742e-07
1.58738e-07
7.03978e-07
2.20596e-06
1.77326e-07
2.09867e-07
6.85767e-07
2.24562e-06
1.75608e-07
1.87017e-05
1.86878e-05
7.03013e-07
1.77331e-07
2.2078e-06
2.0989e-07
6.86305e-07
1.75617e-07
2.24394e-06
4.69726e-06
4.70041e-06
2.7073e-07
4.73774e-06
4.73808e-06
3.00381e-06
8.8374e-06
2.94533e-06
8.84407e-06
1.86528e-05
1.86398e-05
3.00395e-06
8.83891e-06
2.94545e-06
8.8465e-06
1.5697e-07
1.56978e-07
1.56973e-07
1.52033e-07
1.52027e-07
1.52035e-07
1.5203e-07
7.6328e-07
2.32206e-06
1.70951e-07
2.08479e-07
7.41965e-07
2.35758e-06
1.69554e-07
1.86535e-05
1.86411e-05
7.62565e-07
1.70956e-07
2.32231e-06
2.08506e-07
7.42628e-07
1.69562e-07
2.35744e-06
4.80945e-06
4.81149e-06
2.78048e-07
4.84344e-06
4.84526e-06
3.17384e-06
8.85369e-06
3.11747e-06
8.85989e-06
1.86099e-05
1.85982e-05
3.17289e-06
8.85522e-06
3.11866e-06
8.86231e-06
1.50497e-07
1.50507e-07
1.505e-07
1.46255e-07
1.46248e-07
1.46257e-07
1.46252e-07
8.31438e-07
2.43249e-06
1.65854e-07
2.09137e-07
8.07506e-07
2.4661e-06
1.64772e-07
1.86108e-05
1.85997e-05
8.30972e-07
1.65859e-07
2.43272e-06
2.09167e-07
8.08171e-07
1.64783e-07
2.46598e-06
4.90411e-06
4.90589e-06
2.88545e-07
4.92936e-06
4.93121e-06
3.32997e-06
8.86885e-06
3.27897e-06
8.87474e-06
1.85707e-05
1.85606e-05
3.33012e-06
8.87054e-06
3.27952e-06
8.87721e-06
1.44945e-07
1.44955e-07
1.44948e-07
1.41371e-07
1.41363e-07
1.41372e-07
1.41367e-07
9.07036e-07
2.53657e-06
1.6203e-07
2.11845e-07
8.81162e-07
2.56758e-06
1.61263e-07
1.85719e-05
1.85617e-05
9.06883e-07
1.62037e-07
2.53551e-06
2.11877e-07
8.81157e-07
1.61273e-07
2.56938e-06
4.98094e-06
4.98273e-06
3.02422e-07
5.00112e-06
5.00298e-06
3.46731e-06
8.8833e-06
3.42459e-06
8.88886e-06
1.85347e-05
1.85252e-05
3.46772e-06
8.88496e-06
3.42474e-06
8.89125e-06
1.40276e-07
1.40288e-07
1.40279e-07
1.37346e-07
1.37339e-07
1.37348e-07
1.37343e-07
9.88113e-07
2.63281e-06
1.5948e-07
2.16632e-07
9.60691e-07
2.66092e-06
1.59025e-07
1.85358e-05
1.85264e-05
9.88158e-07
1.59487e-07
2.63156e-06
2.16667e-07
9.608e-07
1.59034e-07
2.6627e-06
5.04369e-06
5.04554e-06
3.19618e-07
5.05965e-06
5.0616e-06
3.58471e-06
8.89683e-06
3.54897e-06
8.902e-06
1.85007e-05
1.84918e-05
8.89839e-06
3.54929e-06
8.90434e-06
1.36462e-07
1.36475e-07
1.36465e-07
1.07253e-06
2.72046e-06
1.58212e-07
2.23517e-07
1.04415e-06
2.7473e-06
1.58068e-07
1.85021e-05
1.07183e-06
1.58222e-07
2.71933e-06
1.04432e-06
1.58077e-07
5.09494e-06
5.09684e-06
3.40385e-07
5.10711e-06
5.10908e-06
5.35249e-07
5.35745e-07
5.35484e-07
1.0851e-05
5.81157e-07
1.08581e-05
5.81239e-07
5.28225e-07
2.49442e-06
2.50952e-06
5.42624e-07
5.40386e-07
5.34621e-07
5.35515e-07
5.33207e-07
5.35656e-07
5.34617e-07
5.35514e-07
5.33173e-07
5.35656e-07
5.30341e-07
3.46141e-06
5.73157e-07
8.24958e-07
5.3023e-07
3.46125e-06
5.7325e-07
8.25762e-07
5.2935e-07
5.28385e-07
1.18142e-06
5.09595e-07
5.33393e-07
5.2835e-07
5.19544e-07
5.29358e-07
5.28387e-07
1.18292e-06
5.09596e-07
5.33427e-07
5.2835e-07
5.19599e-07
5.35246e-07
5.36123e-07
5.35285e-07
1.08516e-05
5.81023e-07
5.28226e-07
2.48771e-06
2.49113e-06
5.42423e-07
5.4195e-07
1.08496e-05
5.79967e-07
5.34625e-07
5.35514e-07
5.33493e-07
5.35656e-07
5.34623e-07
5.35513e-07
5.35656e-07
5.33167e-07
5.30318e-07
3.46352e-06
5.63289e-07
8.2695e-07
5.29335e-07
5.28385e-07
1.18734e-06
5.09598e-07
5.32345e-07
5.28351e-07
5.19823e-07
5.30232e-07
3.4613e-06
5.73166e-07
8.24909e-07
5.29355e-07
5.28387e-07
5.09595e-07
1.18291e-06
5.2835e-07
5.3336e-07
5.19481e-07
5.35663e-07
5.35602e-07
5.35656e-07
5.35656e-07
5.35663e-07
5.35602e-07
5.35656e-07
5.35656e-07
5.35663e-07
5.35603e-07
5.35656e-07
5.35656e-07
5.28434e-07
5.28375e-07
5.09725e-07
5.09725e-07
5.28408e-07
5.28408e-07
5.09781e-07
5.28434e-07
5.28374e-07
5.09725e-07
5.09725e-07
5.28408e-07
5.28408e-07
5.09781e-07
5.28434e-07
5.28374e-07
5.09725e-07
5.09725e-07
5.28408e-07
5.28408e-07
5.09782e-07
5.28434e-07
5.28373e-07
5.09725e-07
5.09725e-07
5.28408e-07
5.28408e-07
5.09782e-07
5.34617e-07
5.35518e-07
5.35656e-07
5.33342e-07
5.29383e-07
5.28383e-07
1.17989e-06
5.09596e-07
5.33202e-07
5.2835e-07
5.19493e-07
5.30329e-07
3.46119e-06
5.73019e-07
8.25144e-07
5.29374e-07
5.28381e-07
5.09596e-07
1.17578e-06
5.2835e-07
5.3333e-07
5.19557e-07
5.3024e-07
3.46131e-06
5.73397e-07
8.25801e-07
5.35247e-07
5.35941e-07
5.35319e-07
1.08519e-05
5.80464e-07
5.28228e-07
2.51176e-06
2.50679e-06
5.40385e-07
5.40219e-07
1.08537e-05
5.80169e-07
5.34618e-07
5.35518e-07
5.35656e-07
5.33327e-07
5.29373e-07
5.28383e-07
5.09597e-07
1.18441e-06
5.28351e-07
5.3239e-07
5.19636e-07
5.2937e-07
5.28381e-07
5.09595e-07
1.17621e-06
5.2835e-07
5.33251e-07
5.19506e-07
5.30334e-07
3.46308e-06
5.63443e-07
8.26085e-07
5.30239e-07
3.46157e-06
5.73339e-07
8.25127e-07
5.28224e-07
2.50237e-06
2.4864e-06
5.43852e-07
5.43019e-07
1.08502e-05
5.81414e-07
1.0851e-05
5.81457e-07
1.2734e-05
1.66658e-05
1.27342e-05
1.66708e-05
2.54718e-06
2.55243e-06
4.84304e-07
2.38551e-06
2.38865e-06
2.0584e-05
1.77346e-05
2.05877e-05
1.77402e-05
4.79464e-07
2.30299e-06
2.30462e-06
2.35096e-06
2.35475e-06
1.10599e-06
3.86434e-06
9.40644e-07
4.59047e-06
5.43382e-07
1.23572e-06
4.95576e-07
4.85575e-07
5.25943e-07
1.21605e-06
4.8231e-07
5.43369e-07
1.23707e-06
4.95577e-07
4.85587e-07
5.2611e-07
1.217e-06
4.8231e-07
1.16252e-06
5.39791e-06
4.7934e-06
1.28063e-06
1.16275e-06
5.39726e-06
4.79195e-06
1.28057e-06
5.51429e-07
4.74387e-07
1.1989e-06
4.57784e-07
1.21047e-06
4.69721e-07
5.66891e-07
5.5146e-07
4.74404e-07
1.19945e-06
4.57783e-07
1.21108e-06
4.69722e-07
5.66862e-07
2.54704e-06
2.54465e-06
4.84333e-07
2.38602e-06
2.38316e-06
1.27349e-05
1.66642e-05
2.05818e-05
1.77379e-05
4.79498e-07
2.30261e-06
2.30187e-06
2.35033e-06
2.34894e-06
2.05823e-05
1.77324e-05
5.43482e-07
1.23654e-06
4.95578e-07
4.85572e-07
5.2621e-07
1.2157e-06
4.82312e-07
1.10597e-06
3.86494e-06
9.39102e-07
4.59102e-06
5.43386e-07
4.95575e-07
1.23609e-06
4.85575e-07
5.25957e-07
4.82308e-07
1.2167e-06
1.16302e-06
5.39821e-06
4.79357e-06
1.28094e-06
5.51527e-07
4.74382e-07
1.19889e-06
4.57785e-07
1.21087e-06
4.69723e-07
5.66964e-07
1.16232e-06
5.39809e-06
4.79246e-06
1.28053e-06
5.51403e-07
4.74391e-07
4.57783e-07
1.1994e-06
4.69721e-07
1.2106e-06
5.66867e-07
1.10609e-06
3.86542e-06
9.39204e-07
4.59176e-06
5.43528e-07
4.95577e-07
1.238e-06
4.85568e-07
5.26049e-07
4.82311e-07
1.21846e-06
1.10653e-06
3.86609e-06
9.3999e-07
4.5917e-06
5.51463e-07
4.74383e-07
1.19806e-06
4.57786e-07
1.20883e-06
4.6972e-07
5.66997e-07
1.16257e-06
5.39844e-06
4.79252e-06
1.28074e-06
5.51579e-07
4.7438e-07
4.57788e-07
1.19975e-06
4.69724e-07
1.21195e-06
5.67056e-07
1.16282e-06
5.39865e-06
4.7933e-06
1.28086e-06
2.55245e-06
2.54725e-06
4.84292e-07
2.38796e-06
2.38742e-06
1.27283e-05
1.66651e-05
2.05839e-05
1.7737e-05
4.7945e-07
2.3041e-06
2.30387e-06
2.35432e-06
2.35416e-06
2.0585e-05
1.77358e-05
5.43362e-07
4.95575e-07
1.2392e-06
4.85584e-07
5.25954e-07
4.82307e-07
1.2191e-06
1.1063e-06
3.86497e-06
9.40109e-07
4.59127e-06
1.10607e-06
3.8655e-06
9.39158e-07
4.59161e-06
5.5147e-07
4.74373e-07
4.57782e-07
1.198e-06
4.69721e-07
1.2098e-06
5.66852e-07
5.51375e-07
4.74397e-07
4.57782e-07
1.19989e-06
4.69719e-07
1.21259e-06
5.66851e-07
1.16231e-06
5.39841e-06
4.79288e-06
1.28054e-06
1.16204e-06
5.39858e-06
4.79286e-06
1.28046e-06
1.27357e-05
1.66661e-05
1.27402e-05
1.66677e-05
4.79455e-07
2.30343e-06
2.30198e-06
2.34926e-06
2.34846e-06
2.0585e-05
1.77356e-05
2.05846e-05
1.77371e-05
2.13235e-05
2.31431e-05
2.13274e-05
2.31471e-05
2.30715e-06
2.30869e-06
4.53708e-07
2.34395e-06
2.34459e-06
2.44867e-05
2.35553e-05
2.44905e-05
2.35589e-05
4.51132e-07
2.4302e-06
2.43059e-06
2.37083e-06
2.37176e-06
1.42772e-06
5.58114e-06
1.32997e-06
6.13112e-06
5.87287e-07
1.20051e-06
4.46467e-07
4.4445e-07
5.74281e-07
1.20861e-06
4.3573e-07
5.87289e-07
1.20078e-06
4.46465e-07
4.44472e-07
5.74247e-07
1.21004e-06
4.3573e-07
1.47249e-06
6.77712e-06
6.29429e-06
1.55374e-06
1.47239e-06
6.77657e-06
6.29351e-06
1.55377e-06
5.93456e-07
4.35472e-07
1.23554e-06
4.15835e-07
1.21743e-06
4.25533e-07
6.0349e-07
5.93447e-07
4.35494e-07
1.23664e-06
4.15839e-07
1.21692e-06
4.25535e-07
6.03514e-07
2.30678e-06
2.30614e-06
4.53738e-07
2.34332e-06
2.34312e-06
2.13214e-05
2.31427e-05
2.44856e-05
2.35542e-05
4.51167e-07
2.42982e-06
2.42973e-06
2.37069e-06
2.37073e-06
2.44871e-05
2.35547e-05
5.87355e-07
1.20037e-06
4.46467e-07
4.44437e-07
5.74341e-07
1.20981e-06
4.35732e-07
1.42797e-06
5.58182e-06
1.32998e-06
6.1322e-06
5.87256e-07
4.46466e-07
1.20096e-06
4.44456e-07
5.74265e-07
4.35728e-07
1.20888e-06
1.47242e-06
6.77775e-06
6.29488e-06
1.55412e-06
5.93504e-07
4.35459e-07
1.23675e-06
4.15838e-07
1.21672e-06
4.25535e-07
6.03573e-07
1.4722e-06
6.77775e-06
6.29454e-06
1.55379e-06
5.93466e-07
4.35477e-07
4.15835e-07
1.2356e-06
4.25533e-07
1.21774e-06
6.03493e-07
1.42787e-06
5.58205e-06
1.33003e-06
6.1323e-06
5.87423e-07
4.46473e-07
1.20118e-06
4.44451e-07
5.74447e-07
4.35738e-07
1.2104e-06
1.42779e-06
5.58263e-06
1.33023e-06
6.13268e-06
5.93532e-07
4.35464e-07
1.23541e-06
4.15844e-07
1.21716e-06
4.2554e-07
6.03675e-07
1.47227e-06
6.77775e-06
6.29448e-06
1.55388e-06
5.93605e-07
4.35475e-07
4.15848e-07
1.23687e-06
4.25544e-07
1.21726e-06
6.03605e-07
1.47231e-06
6.77825e-06
6.29519e-06
1.55384e-06
2.30811e-06
2.30774e-06
4.53689e-07
2.34381e-06
2.34409e-06
2.13251e-05
2.31447e-05
2.44893e-05
2.3557e-05
4.5111e-07
2.43003e-06
2.43012e-06
2.37162e-06
2.37117e-06
2.44883e-05
2.35575e-05
5.87269e-07
4.46465e-07
1.20126e-06
4.44467e-07
5.7423e-07
4.3573e-07
1.21039e-06
1.42778e-06
5.58224e-06
1.32992e-06
6.13243e-06
1.42767e-06
5.58228e-06
1.32982e-06
6.13242e-06
5.9344e-07
4.35447e-07
4.15839e-07
1.23652e-06
4.25533e-07
1.21636e-06
6.0364e-07
5.93453e-07
4.35489e-07
4.1584e-07
1.23687e-06
4.25535e-07
1.21723e-06
6.03512e-07
1.47201e-06
6.77774e-06
6.2948e-06
1.55346e-06
1.47206e-06
6.77776e-06
6.29476e-06
1.55359e-06
2.13256e-05
2.31456e-05
2.13257e-05
2.31457e-05
4.51129e-07
2.43048e-06
2.43056e-06
2.37137e-06
2.37053e-06
2.4489e-05
2.35583e-05
2.44896e-05
2.35585e-05
2.46474e-05
2.49398e-05
2.46507e-05
2.4943e-05
2.46176e-06
2.46218e-06
4.30294e-07
2.51981e-06
2.52017e-06
2.48364e-05
2.49392e-05
2.4841e-05
2.49422e-05
4.28591e-07
2.59945e-06
2.59967e-06
2.54902e-06
2.54922e-06
1.65894e-06
6.91355e-06
1.592e-06
7.32097e-06
6.1521e-07
1.24792e-06
4.06597e-07
4.1078e-07
6.08279e-07
1.2697e-06
3.97782e-07
6.15208e-07
1.24719e-06
4.06603e-07
4.10799e-07
6.08286e-07
1.27092e-06
3.97789e-07
1.69046e-06
7.76109e-06
7.43155e-06
1.7432e-06
1.68998e-06
7.76104e-06
7.43091e-06
1.74331e-06
6.18558e-07
4.03167e-07
1.30607e-06
3.81282e-07
1.28336e-06
3.89355e-07
6.22471e-07
6.18556e-07
4.03183e-07
1.30616e-06
3.81288e-07
1.28245e-06
3.89361e-07
6.22475e-07
2.46146e-06
2.46136e-06
4.30294e-07
2.51934e-06
2.51914e-06
2.46472e-05
2.49401e-05
2.48373e-05
2.49387e-05
4.28593e-07
2.59942e-06
2.5985e-06
2.54862e-06
2.54847e-06
2.48381e-05
2.49394e-05
6.15293e-07
1.24714e-06
4.06599e-07
4.10766e-07
6.0832e-07
1.27118e-06
3.97786e-07
1.65853e-06
6.91458e-06
1.5919e-06
7.32199e-06
6.15229e-07
4.066e-07
1.24804e-06
4.10784e-07
6.08271e-07
3.97786e-07
1.26979e-06
1.69022e-06
7.76253e-06
7.43246e-06
1.74294e-06
6.18599e-07
4.03152e-07
1.30648e-06
3.81285e-07
1.28262e-06
3.89357e-07
6.22548e-07
1.69e-06
7.76199e-06
7.4318e-06
1.7426e-06
6.18521e-07
4.03172e-07
3.81289e-07
1.30619e-06
3.8936e-07
1.28347e-06
6.22457e-07
1.65909e-06
6.91451e-06
1.59192e-06
7.32212e-06
6.15247e-07
4.06612e-07
1.24748e-06
4.10789e-07
6.08377e-07
3.97798e-07
1.27115e-06
1.65899e-06
6.91527e-06
1.59191e-06
7.3227e-06
6.18506e-07
4.03155e-07
1.30495e-06
3.81292e-07
1.2834e-06
3.89365e-07
6.22712e-07
1.68997e-06
7.76209e-06
7.43183e-06
1.74284e-06
6.18602e-07
4.03177e-07
3.81297e-07
1.30637e-06
3.89371e-07
1.2827e-06
6.22485e-07
1.68978e-06
7.76273e-06
7.4326e-06
1.74316e-06
2.46235e-06
2.46178e-06
4.30275e-07
2.51995e-06
2.51995e-06
2.46492e-05
2.49416e-05
2.48396e-05
2.4942e-05
4.28574e-07
2.59953e-06
2.60012e-06
2.5496e-06
2.54905e-06
2.48339e-05
2.49409e-05
6.15208e-07
4.06605e-07
1.24747e-06
4.10797e-07
6.08295e-07
3.97793e-07
1.2712e-06
1.6582e-06
6.91463e-06
1.59164e-06
7.32177e-06
1.65841e-06
6.91474e-06
1.59176e-06
7.32219e-06
6.18406e-07
4.03143e-07
3.81294e-07
1.3048e-06
3.89365e-07
1.28255e-06
6.22382e-07
6.18565e-07
4.03181e-07
3.81295e-07
1.30634e-06
3.89367e-07
1.28269e-06
6.22482e-07
1.68984e-06
7.76151e-06
7.43168e-06
1.74214e-06
1.69001e-06
7.76215e-06
7.43208e-06
1.74236e-06
2.46497e-05
2.4942e-05
2.46505e-05
2.49426e-05
4.28599e-07
2.59975e-06
2.60033e-06
2.54942e-06
2.5493e-06
2.484e-05
2.49412e-05
2.48395e-05
2.49418e-05
2.473e-05
2.44304e-05
2.47315e-05
2.44331e-05
2.62518e-06
2.62545e-06
4.08397e-07
2.66962e-06
2.6699e-06
2.38697e-05
2.42607e-05
2.38724e-05
2.42624e-05
4.06846e-07
2.7366e-06
2.7354e-06
2.69307e-06
2.69364e-06
1.80676e-06
7.84447e-06
1.7674e-06
8.10174e-06
6.25702e-07
1.31715e-06
3.73534e-07
3.81781e-07
6.24489e-07
1.33889e-06
3.66083e-07
6.25685e-07
1.3172e-06
3.73541e-07
3.8179e-07
6.24487e-07
1.33899e-06
3.6609e-07
1.82591e-06
8.35343e-06
8.16169e-06
1.85581e-06
1.82668e-06
8.35377e-06
8.16151e-06
1.85461e-06
6.26107e-07
3.75071e-07
1.36745e-06
3.51979e-07
1.3485e-06
3.58906e-07
6.24878e-07
6.26134e-07
3.75078e-07
1.36765e-06
3.51986e-07
1.34869e-06
3.58912e-07
6.24859e-07
2.62467e-06
2.62432e-06
4.08383e-07
2.66986e-06
2.66975e-06
2.47292e-05
2.44308e-05
2.38704e-05
2.42613e-05
4.06818e-07
2.73515e-06
2.73533e-06
2.69319e-06
2.69192e-06
2.38709e-05
2.42602e-05
6.2568e-07
1.31738e-06
3.73536e-07
3.81767e-07
6.24539e-07
1.33925e-06
3.66087e-07
1.80699e-06
7.84519e-06
1.76754e-06
8.10255e-06
6.2565e-07
3.73542e-07
1.31729e-06
3.81788e-07
6.2446e-07
3.66092e-07
1.33905e-06
1.82684e-06
8.35513e-06
8.16297e-06
1.85454e-06
6.26184e-07
3.75057e-07
1.36785e-06
3.51983e-07
1.34885e-06
3.58908e-07
6.24882e-07
1.82634e-06
8.35439e-06
8.16214e-06
1.85448e-06
6.26095e-07
3.75077e-07
3.51988e-07
1.3676e-06
3.58915e-07
1.34872e-06
6.24804e-07
1.80727e-06
7.84531e-06
1.76788e-06
8.10272e-06
6.25676e-07
3.73549e-07
1.31739e-06
3.81792e-07
6.24489e-07
3.66096e-07
1.33914e-06
1.80652e-06
7.84615e-06
1.76724e-06
8.10332e-06
6.26098e-07
3.75052e-07
1.36607e-06
3.51986e-07
1.34988e-06
3.58913e-07
6.24814e-07
1.82676e-06
8.35466e-06
8.16229e-06
1.85467e-06
6.26099e-07
3.75081e-07
3.5199e-07
1.36772e-06
3.58918e-07
1.3488e-06
6.24818e-07
1.82648e-06
8.35514e-06
8.16306e-06
1.85438e-06
2.6257e-06
2.62526e-06
4.08455e-07
2.66952e-06
2.67028e-06
2.47348e-05
2.44322e-05
2.38731e-05
2.42628e-05
4.06756e-07
2.73552e-06
2.73568e-06
2.69366e-06
2.69357e-06
2.3871e-05
2.42631e-05
6.25706e-07
3.73548e-07
1.31739e-06
3.81788e-07
6.24489e-07
3.66097e-07
1.33913e-06
1.80774e-06
7.84489e-06
1.7674e-06
8.10196e-06
1.80793e-06
7.84554e-06
1.76762e-06
8.10267e-06
6.26069e-07
3.75053e-07
3.51989e-07
1.36618e-06
3.58915e-07
1.34992e-06
6.24788e-07
6.26129e-07
3.75074e-07
3.51992e-07
1.36773e-06
3.58919e-07
1.3488e-06
6.24899e-07
1.82533e-06
8.35373e-06
8.16171e-06
1.85555e-06
1.82563e-06
8.35453e-06
8.16241e-06
1.85594e-06
2.47315e-05
2.44326e-05
2.4732e-05
2.44327e-05
4.06795e-07
2.73564e-06
2.73555e-06
2.6935e-06
2.69372e-06
2.38717e-05
2.42633e-05
2.38717e-05
2.42634e-05
2.36814e-05
2.32652e-05
2.36831e-05
2.32677e-05
2.7567e-06
2.75838e-06
3.866e-07
2.80188e-06
2.80085e-06
2.26733e-05
2.30764e-05
2.26755e-05
2.30778e-05
3.85135e-07
2.87003e-06
2.86848e-06
2.82254e-06
2.82451e-06
1.88797e-06
8.39377e-06
1.86959e-06
8.53088e-06
6.21112e-07
1.37577e-06
3.45285e-07
3.55993e-07
6.2459e-07
1.39191e-06
3.38805e-07
6.21111e-07
1.37597e-06
3.45292e-07
3.55999e-07
6.24801e-07
1.39213e-06
3.38812e-07
1.89791e-06
8.64703e-06
8.55515e-06
1.91126e-06
1.89936e-06
8.64753e-06
8.5555e-06
1.91022e-06
6.20753e-07
3.49952e-07
1.41308e-06
3.26434e-07
1.39899e-06
3.32527e-07
6.1512e-07