/*--------------------------------*- C++ -*----------------------------------*\
| =========                 |                                                 |
| \\      /  F ield         | OpenFOAM: The Open Source CFD Toolbox           |
|  \\    /   O peration     | Version:  v1906                                 |
|   \\  /    A nd           | Web:      www.OpenFOAM.com                      |
|    \\/     M anipulation  |                                                 |
\*---------------------------------------------------------------------------*/
FoamFile
{
    version     2.0;
    format      ascii;
    class       volScalarField;
    location    "800";
    object      nut;
}
// * * * * * * * * * * * * * * * * * * * * * * * * * * * * * * * * * * * * * //

dimensions      [0 2 -1 0 0 0 0];


internalField   nonuniform List<scalar> 
42616
(
0.000233972
0.000233084
0.000233087
0.0002334
0.000232523
0.000227711
0.000227721
0.000223717
0.000230493
0.000220188
0.000220201
0.000208925
0.000227761
0.000211515
0.000211522
0.00019365
0.000224381
0.0002025
0.000202499
0.000179602
0.000220489
0.000193632
0.000193625
0.000167278
0.000216235
0.00018515
0.000185141
0.000156556
0.000211749
0.000177125
0.000177115
0.000147195
0.000207137
0.000169594
0.000169586
0.000139055
0.000202478
0.000162529
0.000162522
0.000131772
0.000197824
0.000155874
0.000155866
0.00012513
0.000193212
0.000149574
0.000149566
0.000118969
0.000188623
0.000143588
0.00014358
0.000113241
0.000184091
0.000137863
0.000137855
0.000107914
0.000179646
0.000132361
0.000132353
0.000102994
0.000175277
0.000127071
0.000127063
9.83397e-05
0.000170972
0.000122013
0.000122003
9.41284e-05
0.000166718
0.000117217
0.000117207
9.05168e-05
0.000162515
0.00011271
0.000112699
8.75865e-05
0.000158338
0.000108552
0.000108541
8.52652e-05
0.000154179
0.000104792
0.000104782
8.35476e-05
0.000234259
0.00023446
0.00023446
0.00023426
0.000234459
0.000234458
0.000234275
0.000234275
0.000234275
0.000234275
0.000234456
0.000234461
0.000234258
0.000234457
0.000234462
0.000234264
0.000233406
0.000226076
0.00023308
0.000233077
0.000229283
0.000229271
0.000233397
0.00022605
0.000233081
0.000233083
0.00022929
0.00022928
0.000233086
0.000229286
0.000229288
0.000233409
0.000226083
0.00023308
0.000229294
0.000229277
0.000226079
0.000223715
0.000212061
0.000227706
0.000227692
0.000222208
0.00022219
0.000223687
0.000212044
0.000227714
0.000227702
0.000222219
0.000222203
0.000227708
0.000222215
0.000222205
0.000223724
0.000212075
0.000227697
0.000222227
0.000222193
0.00021206
0.000208929
0.000196914
0.00022018
0.000220162
0.000213731
0.000213714
0.00020891
0.000196907
0.000220192
0.000220176
0.000213746
0.000213725
0.000220175
0.000213741
0.000213724
0.000208943
0.00019692
0.000220165
0.00021375
0.000213719
0.000196906
0.000193637
0.000182786
0.000211503
0.000211486
0.000204736
0.000204722
0.000193632
0.00018275
0.000211519
0.000211496
0.000204756
0.000204729
0.000211496
0.000204753
0.000204731
0.000193667
0.000182754
0.000211493
0.000204753
0.000204734
0.000182783
0.000179603
0.000170237
0.000202481
0.000202468
0.000195796
0.000195785
0.000179647
0.000170176
0.000202501
0.000202473
0.000195817
0.000195788
0.000202477
0.000195817
0.000195793
0.000179648
0.000170176
0.000202482
0.000195812
0.000195803
0.000170221
0.000167262
0.000159252
0.000193609
0.000193599
0.000187204
0.000187196
0.000167325
0.000159208
0.00019363
0.000193601
0.000187226
0.000187195
0.000193606
0.000187228
0.0001872
0.000167328
0.000159166
0.000193617
0.000187219
0.000187216
0.000159237
0.000156539
0.000149662
0.000185125
0.000185117
0.000179057
0.00017905
0.000156597
0.000149605
0.000185147
0.000185115
0.000179082
0.000179047
0.00018512
0.000179084
0.000179052
0.000156624
0.000149636
0.000185137
0.000179075
0.000179073
0.00014965
0.000147189
0.000141121
0.000177097
0.00017709
0.000171401
0.000171394
0.000147264
0.000141153
0.000177123
0.000177087
0.000171429
0.000171391
0.000177092
0.000171431
0.000171395
0.000147186
0.000141109
0.000177113
0.000171422
0.000171418
0.000141102
0.000139018
0.000133644
0.000169565
0.000169558
0.000164224
0.000164216
0.000138986
0.000133649
0.000169593
0.000169555
0.000164252
0.000164214
0.000169559
0.000164254
0.000164218
0.00013902
0.00013359
0.000169582
0.000164247
0.000164242
0.000133572
0.000131674
0.000126744
0.000162498
0.000162491
0.000157469
0.000157461
0.000131694
0.000126744
0.000162527
0.000162489
0.000157497
0.000157459
0.000162492
0.000157502
0.000157464
0.000131742
0.00012681
0.000162517
0.000157494
0.000157491
0.00012675
0.000125137
0.000120448
0.000155842
0.000155834
0.000151084
0.000151076
0.000125151
0.00012049
0.000155869
0.00015583
0.000151111
0.000151073
0.000155837
0.000151118
0.000151081
0.000125017
0.000120547
0.000155863
0.00015111
0.000151109
0.000120482
0.000118999
0.00011445
0.000149541
0.000149532
0.000145022
0.000145014
0.00011897
0.000114451
0.000149567
0.000149528
0.00014505
0.00014501
0.000149537
0.000145056
0.00014502
0.000118928
0.000114512
0.000149565
0.000145049
0.000145048
0.000114443
0.000113202
0.00010883
0.000143555
0.000143546
0.000139238
0.00013923
0.00011324
0.000108823
0.000143581
0.000143541
0.000139267
0.000139225
0.000143552
0.000139272
0.000139235
0.000113152
0.000108822
0.000143581
0.000139263
0.000139265
0.00010881
0.00010793
0.000103649
0.000137831
0.000137821
0.000133685
0.000133677
0.000107924
0.000103648
0.000137859
0.000137817
0.000133715
0.000133672
0.000137827
0.000133719
0.000133683
0.000107916
0.000103634
0.000137857
0.000133711
0.000133712
0.00010363
0.000103004
9.90334e-05
0.000132328
0.000132319
0.000128341
0.000128332
0.000103003
9.90383e-05
0.000132356
0.000132313
0.00012837
0.000128327
0.000132325
0.000128376
0.000128339
0.00010299
9.90345e-05
0.000132355
0.000128368
0.000128369
9.90183e-05
9.83488e-05
9.48253e-05
0.000127036
0.000127027
0.000123223
0.000123214
9.83367e-05
9.4874e-05
0.000127064
0.000127021
0.000123252
0.000123209
0.000127035
0.000123261
0.000123223
9.83179e-05
9.48532e-05
0.000127064
0.000123251
0.000123254
9.48039e-05
9.4134e-05
9.12094e-05
0.000121977
0.000121967
0.000118328
0.000118324
9.40897e-05
9.13583e-05
0.000122003
0.000121961
0.00011836
0.000118317
0.000121976
0.000118366
0.000118328
9.40763e-05
9.12225e-05
0.000122005
0.00011836
0.000118361
9.11695e-05
9.05101e-05
8.81465e-05
0.000117185
0.00011717
0.000113754
0.000113747
9.042e-05
8.82637e-05
0.000117203
0.000117162
0.000113784
0.00011374
0.000117182
0.000113791
0.000113756
9.05017e-05
8.81716e-05
0.00011721
0.000113782
0.000113784
8.8085e-05
8.75724e-05
8.56072e-05
0.000112676
0.000112663
0.000109497
0.00010949
8.74751e-05
8.57672e-05
0.000112692
0.000112655
0.000109527
0.000109484
0.000112674
0.000109535
0.000109501
8.75349e-05
8.5669e-05
0.000112701
0.000109526
0.000109527
8.55811e-05
8.52232e-05
8.37708e-05
0.000108521
0.000108505
0.00010563
0.000105619
8.51422e-05
8.39853e-05
0.000108533
0.000108498
0.000105658
0.000105614
0.000108517
0.000105665
0.000105633
8.51521e-05
8.3821e-05
0.000108543
0.000105657
0.000105657
8.37848e-05
8.35811e-05
0.000104767
0.000104746
8.33821e-05
0.000104772
0.000104739
0.00010476
8.34557e-05
0.000104784
0.00023473
0.000234746
0.000234729
0.000234729
0.000235102
0.000234799
0.000234845
0.000234726
0.000235101
0.000234799
0.000234727
0.000234747
0.000234871
0.000233653
0.000233822
0.000104648
3.84828e-05
0.000128343
3.97795e-05
2.14757e-05
2.28633e-05
0.000104595
3.85092e-05
0.00012802
3.97687e-05
0.000233972
0.000233972
0.000233972
0.000232929
0.000232928
0.000232929
0.000232929
0.000206051
9.30194e-05
0.000233968
0.000231965
0.000222375
8.66276e-05
0.000233608
2.14675e-05
2.28628e-05
0.000206035
0.000233966
9.30983e-05
0.000231967
0.000222258
0.000233605
8.65118e-05
4.73093e-05
4.74198e-05
0.000231285
4.36749e-05
4.3669e-05
7.26225e-05
4.24048e-05
8.13386e-05
4.37525e-05
2.47896e-05
2.54751e-05
7.26011e-05
4.24004e-05
8.13121e-05
4.37481e-05
0.000232522
0.000232523
0.000232522
0.000231065
0.000231064
0.000231065
0.000231063
0.000167262
7.89636e-05
0.000232057
0.000225994
0.000179954
7.40832e-05
0.000231345
2.47873e-05
2.54733e-05
0.000167309
0.000232062
7.89806e-05
0.000226005
0.000180022
0.00023135
7.40284e-05
3.90967e-05
3.90716e-05
0.000219432
3.65296e-05
3.65085e-05
5.63708e-05
4.55386e-05
6.12413e-05
4.64154e-05
2.60156e-05
2.61182e-05
5.63414e-05
4.55358e-05
6.12264e-05
4.6412e-05
0.000230491
0.000230493
0.00023049
0.000228509
0.000228506
0.000228508
0.000228504
0.000138502
6.70409e-05
0.00022859
0.000218091
0.000147982
6.31905e-05
0.000227476
2.60133e-05
2.61159e-05
0.000138468
0.000228591
6.71009e-05
0.000218102
0.000147975
0.000227475
6.31359e-05
3.32792e-05
3.32657e-05
0.000204452
3.20537e-05
3.20333e-05
4.70189e-05
4.74962e-05
4.9999e-05
4.80086e-05
2.60494e-05
2.59396e-05
4.70387e-05
4.74933e-05
4.99754e-05
4.8006e-05
0.000227758
0.00022776
0.000227756
0.00022528
0.000225277
0.000225278
0.000225275
0.000117511
5.78784e-05
0.000223645
0.000209268
0.000124612
5.52475e-05
0.000222229
2.60463e-05
2.59377e-05
0.000117484
0.000223637
5.79017e-05
0.000209272
0.000124549
0.000222219
5.52235e-05
3.06981e-05
3.06855e-05
0.000189644
3.04068e-05
3.0383e-05
4.14375e-05
4.85792e-05
4.33061e-05
4.88413e-05
2.56717e-05
2.55205e-05
4.14894e-05
4.85763e-05
4.32672e-05
4.88386e-05
0.000224378
0.000224379
0.000224377
0.000221502
0.000221499
0.000221499
0.000221497
0.000102121
5.1608e-05
0.000217681
0.000200255
0.0001074
4.98923e-05
0.000216089
2.5669e-05
2.5518e-05
0.000102107
0.00021767
5.16218e-05
0.000200252
0.000107385
0.000216075
4.98841e-05
3.02822e-05
3.02683e-05
0.000176304
3.04684e-05
3.04547e-05
3.8175e-05
4.90896e-05
3.92808e-05
4.91955e-05
2.5235e-05
2.50954e-05
3.81868e-05
4.90867e-05
3.92507e-05
4.91925e-05
0.000220487
0.000220486
0.000220485
0.000217325
0.000217323
0.00021732
0.000217321
9.05257e-05
4.74983e-05
0.000211173
0.000191469
9.45359e-05
4.64603e-05
0.000209507
2.52322e-05
2.50929e-05
9.05095e-05
0.000211162
4.7471e-05
0.000191461
9.45192e-05
0.000209493
4.64658e-05
3.10945e-05
3.10853e-05
0.000164543
3.15862e-05
3.15705e-05
3.63908e-05
4.92748e-05
3.69681e-05
4.92884e-05
2.4847e-05
2.47343e-05
3.6404e-05
4.9271e-05
3.69485e-05
4.9285e-05
0.000216233
0.00021623
0.000216231
0.000212886
0.000212885
0.00021288
0.000212881
8.16352e-05
4.49552e-05
0.000204484
0.000183097
8.4779e-05
4.44271e-05
0.000202814
2.48446e-05
2.4732e-05
8.15923e-05
0.000204474
4.49551e-05
0.000183088
8.47626e-05
0.000202801
4.44112e-05
3.26609e-05
3.26557e-05
0.000154283
3.33309e-05
3.33239e-05
3.56978e-05
4.92867e-05
3.58378e-05
4.92705e-05
2.45347e-05
2.44488e-05
3.57041e-05
4.92827e-05
3.58269e-05
4.92661e-05
0.000211748
0.000211743
0.000211744
0.000208297
0.000208295
0.00020829
0.000208291
7.46755e-05
4.36314e-05
0.00019785
0.000175195
7.72338e-05
4.34336e-05
0.000196219
2.45326e-05
2.44447e-05
7.47022e-05
0.000197841
4.35994e-05
0.000175186
7.72677e-05
0.000196207
4.34096e-05
3.46935e-05
3.46961e-05
0.000145269
3.54732e-05
3.54528e-05
3.57574e-05
4.92528e-05
3.56778e-05
4.9233e-05
2.42941e-05
2.42319e-05
3.58051e-05
4.92486e-05
3.56467e-05
4.9228e-05
0.000207135
0.00020713
0.000207131
0.000203643
0.000203641
0.000203636
0.000203636
6.92294e-05
4.30861e-05
0.000191405
0.000167786
7.13508e-05
4.31787e-05
0.000189826
2.42933e-05
2.4227e-05
6.92694e-05
0.000191397
4.31065e-05
0.000167778
7.12996e-05
0.000189815
4.31221e-05
3.70064e-05
3.70116e-05
0.000137216
3.78521e-05
3.78355e-05
3.65463e-05
4.92209e-05
3.62593e-05
4.92169e-05
2.41149e-05
2.4072e-05
3.65857e-05
4.92163e-05
3.62063e-05
4.92126e-05
0.000202475
0.00020247
0.00020247
0.000198984
0.000198982
0.000198976
0.000198977
6.49077e-05
4.32478e-05
0.000185172
0.000160829
6.65898e-05
4.35264e-05
0.000183652
2.41155e-05
2.40659e-05
6.49133e-05
0.000185167
4.33155e-05
0.000160821
6.65693e-05
0.000183643
4.34216e-05
3.94719e-05
3.94721e-05
0.000130065
4.03465e-05
4.03332e-05
3.79613e-05
4.92163e-05
3.74712e-05
4.92235e-05
2.39848e-05
2.39569e-05
3.79951e-05
4.92131e-05
3.74221e-05
4.92182e-05
0.000197822
0.000197817
0.000197818
0.000194358
0.000194357
0.000194351
0.000194353
6.15113e-05
4.39251e-05
0.000179195
0.000154267
6.27887e-05
4.437e-05
0.000177745
2.39878e-05
2.39487e-05
6.15277e-05
0.000179192
4.40236e-05
0.00015426
6.27758e-05
0.000177738
4.42703e-05
4.1995e-05
4.19926e-05
0.000123506
4.28428e-05
4.28459e-05
3.99671e-05
4.92304e-05
3.9242e-05
4.92538e-05
2.38924e-05
2.38759e-05
3.9979e-05
4.92375e-05
3.92154e-05
4.92423e-05
0.000193211
0.000193204
0.000193206
0.00018977
0.000189769
0.000189763
0.000189765
5.90056e-05
4.50599e-05
0.000173496
0.000148048
5.98268e-05
4.56231e-05
0.00017211
2.38974e-05
2.38666e-05
5.90102e-05
0.000173494
4.51539e-05
0.00014804
5.98417e-05
0.000172105
4.55345e-05
4.45051e-05
4.44833e-05
0.000117409
4.53077e-05
4.52985e-05
4.24615e-05
4.92663e-05
4.15723e-05
4.92921e-05
2.38278e-05
2.38191e-05
4.24703e-05
4.92726e-05
4.15595e-05
4.92813e-05
0.000188622
0.000188615
0.000188618
0.000185216
0.000185215
0.000185208
0.000185211
5.71836e-05
4.65666e-05
0.000168044
0.000142134
5.76691e-05
4.72264e-05
0.000166717
2.38334e-05
2.38094e-05
5.71722e-05
0.000168043
4.66541e-05
0.000142126
5.76727e-05
0.000166712
4.71475e-05
4.68819e-05
4.68905e-05
0.000111566
4.7653e-05
4.76447e-05
4.53819e-05
4.93076e-05
4.43469e-05
4.93327e-05
2.37822e-05
2.3779e-05
4.53951e-05
4.93131e-05
4.43445e-05
4.93227e-05
0.00018409
0.000184083
0.000184087
0.00018075
0.000180749
0.000180742
0.000180746
5.59825e-05
4.83731e-05
0.000162806
0.00013647
5.62723e-05
4.91179e-05
0.000161527
2.37882e-05
2.3769e-05
5.60227e-05
0.000162805
4.84539e-05
0.000136461
5.62446e-05
0.000161522
4.90316e-05
4.91231e-05
4.91288e-05
0.000106157
4.98367e-05
4.98228e-05
4.86355e-05
4.93477e-05
4.74872e-05
4.93707e-05
2.37493e-05
2.37486e-05
4.86378e-05
4.93524e-05
4.74804e-05
4.93618e-05
0.000179646
0.000179638
0.000179642
0.000176363
0.000176362
0.000176355
0.000176358
5.54365e-05
5.04331e-05
0.000157748
0.00013102
5.55216e-05
5.11524e-05
0.000156511
2.37552e-05
2.37401e-05
5.54818e-05
0.000157748
5.04347e-05
0.000131011
5.54919e-05
0.000156507
5.11646e-05
5.11927e-05
5.11833e-05
0.00010127
5.18337e-05
5.18454e-05
5.20464e-05
4.93842e-05
5.08621e-05
4.94054e-05
2.37259e-05
2.37227e-05
5.20819e-05
4.93885e-05
5.08541e-05
4.93968e-05
0.000175277
0.000175269
0.000175273
0.000172042
0.000172041
0.000172035
0.000172038
5.55011e-05
5.26211e-05
0.000152843
0.000125788
5.54323e-05
5.33481e-05
0.000151642
2.3728e-05
2.37187e-05
5.5608e-05
0.000152844
5.26115e-05
0.000125779
5.53937e-05
0.000151639
5.3369e-05
5.30746e-05
5.30611e-05
9.68689e-05
5.36522e-05
5.36655e-05
5.5538e-05
4.94173e-05
5.43349e-05
4.9437e-05
2.37068e-05
2.37022e-05
5.55808e-05
4.94215e-05
5.42983e-05
4.94285e-05
0.000170972
0.000170964
0.000170969
0.000167775
0.000167774
0.000167767
0.00016777
5.62463e-05
5.485e-05
0.000148087
0.000120792
5.59755e-05
5.56481e-05
0.000146918
2.37059e-05
2.36996e-05
5.63165e-05
0.000148089
5.48661e-05
0.000120783
5.59189e-05
0.000146918
5.56395e-05
5.47758e-05
5.47735e-05
9.2874e-05
5.52941e-05
5.52929e-05
5.89497e-05
4.94479e-05
5.77371e-05
4.94661e-05
2.36891e-05
2.36846e-05
5.90076e-05
4.94517e-05
5.76898e-05
4.94582e-05
0.000166718
0.000166709
0.000166715
0.000163558
0.000163557
0.00016355
0.000163554
5.75658e-05
5.71305e-05
0.000143446
0.000116048
5.70753e-05
5.79275e-05
0.000142304
2.36875e-05
2.36823e-05
5.76085e-05
0.00014345
5.71458e-05
0.000116039
5.7032e-05
0.000142303
5.79135e-05
5.62949e-05
5.6296e-05
8.95574e-05
5.67953e-05
5.679e-05
6.21598e-05
4.94769e-05
6.09859e-05
4.94937e-05
2.36729e-05
2.36681e-05
6.21926e-05
4.94799e-05
6.09581e-05
4.94862e-05
0.000162515
0.000162506
0.000162512
0.000159377
0.000159375
0.000159369
0.000159372
5.93681e-05
5.93758e-05
0.000138903
0.000111618
5.87215e-05
6.01759e-05
0.000137788
2.36708e-05
2.36662e-05
5.93985e-05
0.000138906
5.94265e-05
0.000111609
5.87148e-05
0.000137789
6.01192e-05
5.76785e-05
5.76785e-05
8.67388e-05
5.81324e-05
5.81283e-05
6.50968e-05
4.95034e-05
6.39776e-05
4.95194e-05
2.36574e-05
2.36533e-05
6.51216e-05
4.95066e-05
6.39626e-05
4.95123e-05
0.000158338
0.000158328
0.000158335
0.000155215
0.000155213
0.000155206
0.00015521
6.16067e-05
6.15835e-05
0.000134464
0.000107548
6.08286e-05
6.23328e-05
0.000133382
2.36554e-05
2.36512e-05
6.16165e-05
0.000134467
6.16278e-05
0.00010754
6.08135e-05
0.000133384
6.22896e-05
5.89292e-05
5.89291e-05
8.45936e-05
5.93454e-05
5.93417e-05
6.77046e-05
4.95281e-05
6.66947e-05
4.95438e-05
2.36432e-05
2.36395e-05
4.95316e-05
6.66809e-05
4.95365e-05
0.00015418
0.000154169
0.000154177
6.41793e-05
6.36871e-05
0.000130143
0.000103921
6.32948e-05
6.43822e-05
0.0001291
2.36411e-05
6.42073e-05
0.000130145
6.37327e-05
6.32849e-05
0.000129103
6.00654e-05
6.00647e-05
8.30506e-05
6.04498e-05
6.04484e-05
0.000234871
0.000233679
0.000233795
2.34124e-05
0.00021422
2.33988e-05
0.000214186
0.000234425
4.99693e-05
4.97528e-05
0.000229227
0.000230185
0.000235098
0.000234799
0.000234899
0.000234726
0.000235099
0.0002348
0.000234918
0.000234726
0.000234498
4.00876e-05
0.000216767
0.000147214
0.000234549
4.01094e-05
0.000216729
0.000147067
0.000233963
0.000234471
9.86939e-05
0.000234271
0.000233052
0.000234597
0.000228323
0.000233959
0.000234471
9.85686e-05
0.00023427
0.000233035
0.000234597
0.000228298
0.000234872
0.000233521
0.000233881
2.34093e-05
0.000214271
0.000234425
5.01049e-05
5.0067e-05
0.000229303
0.000229519
2.3414e-05
0.000214662
0.000235096
0.000234799
0.000234764
0.000234727
0.000235097
0.0002348
0.000234726
0.000234919
0.000234508
3.99419e-05
0.000220658
0.000146832
0.000233969
0.000234471
9.81919e-05
0.000234269
0.000233534
0.000234597
0.000228195
0.000234548
4.01015e-05
0.000216761
0.00014723
0.00023396
0.00023447
0.000234271
9.8572e-05
0.000234597
0.000233064
0.000228354
0.00023473
0.000234746
0.000234729
0.000234729
0.00023473
0.000234746
0.000234729
0.000234729
0.00023473
0.000234746
0.000234729
0.000234729
0.000234591
0.000234573
0.000234253
0.000234253
0.000234592
0.000234592
0.000234252
0.000234591
0.000234573
0.000234253
0.000234253
0.000234592
0.000234592
0.000234252
0.000234591
0.000234573
0.000234253
0.000234253
0.000234592
0.000234592
0.000234252
0.000234591
0.000234574
0.000234253
0.000234253
0.000234592
0.000234592
0.000234252
0.0002351
0.000234798
0.000234726
0.000234839
0.000233948
0.000234472
9.88153e-05
0.00023427
0.000233135
0.000234597
0.000228349
0.000234503
4.01266e-05
0.000216814
0.00014719
0.000233952
0.000234473
0.000234271
9.92057e-05
0.000234597
0.000233082
0.000228319
0.000234544
4.01027e-05
0.000216675
0.000147056
0.000234871
0.000233595
0.000233865
2.34052e-05
0.000214475
0.000234425
4.96838e-05
4.97916e-05
0.00023018
0.000230262
2.34007e-05
0.000214584
0.000235099
0.000234798
0.000234726
0.000234844
0.000233952
0.000234473
0.00023427
9.8416e-05
0.000234597
0.000233509
0.000228282
0.000233953
0.000234473
0.000234271
9.91625e-05
0.000234597
0.00023312
0.000228345
0.000234502
3.99541e-05
0.000220596
0.000146992
0.000234545
4.00997e-05
0.000216697
0.000147191
0.000234426
4.98834e-05
5.01699e-05
0.000228705
0.000229052
2.34093e-05
0.000214126
2.34094e-05
0.000214108
2.14794e-05
2.28527e-05
2.14754e-05
2.28539e-05
4.72747e-05
4.72385e-05
0.000231284
4.36699e-05
4.36371e-05
2.45026e-05
2.33361e-05
2.4502e-05
2.33375e-05
0.00022958
3.99239e-05
3.98899e-05
4.28024e-05
4.27482e-05
0.00010468
3.84782e-05
0.000128085
3.97622e-05
0.000206061
9.23166e-05
0.000233967
0.000231963
0.000222376
8.64657e-05
0.000233606
0.000206069
9.21967e-05
0.000233966
0.000231956
0.000222298
8.63757e-05
0.000233606
9.82807e-05
4.19357e-05
4.0331e-05
8.54881e-05
9.82678e-05
4.19327e-05
4.03398e-05
8.55042e-05
0.000199898
0.000230702
8.01799e-05
0.000232668
8.50546e-05
0.00023318
0.000185401
0.000199889
0.000230693
8.0111e-05
0.000232668
8.49789e-05
0.00023318
0.000185418
4.72606e-05
4.73608e-05
0.000231267
4.36426e-05
4.37384e-05
2.14771e-05
2.28528e-05
2.45003e-05
2.33183e-05
0.000229559
3.98904e-05
3.99589e-05
4.27768e-05
4.28745e-05
2.4502e-05
2.33359e-05
0.00020602
9.22598e-05
0.000233966
0.000231965
0.000222251
8.65061e-05
0.000233605
0.00010468
3.84723e-05
0.000128311
3.97605e-05
0.000206061
0.000233967
9.228e-05
0.000231963
0.000222368
0.000233607
8.6395e-05
9.8226e-05
4.19314e-05
4.03321e-05
8.54645e-05
0.000199855
0.000230706
8.01911e-05
0.000232667
8.50366e-05
0.000233179
0.000185373
9.83051e-05
4.19293e-05
4.03365e-05
8.55145e-05
0.00019991
0.0002307
0.000232669
8.01124e-05
0.00023318
8.50203e-05
0.00018542
0.00010466
3.84929e-05
0.000128306
3.97674e-05
0.000205995
0.000233967
9.21678e-05
0.000231968
0.000222326
0.000233606
8.62969e-05
0.000104601
3.84665e-05
0.000128179
3.97646e-05
0.000199881
0.000230705
8.02748e-05
0.000232667
8.52082e-05
0.00023318
0.000185349
9.82685e-05
4.1936e-05
4.03429e-05
8.54616e-05
0.000199828
0.000230707
0.000232665
8.01077e-05
0.000233178
8.49379e-05
0.000185322
9.82284e-05
4.19345e-05
4.0343e-05
8.54448e-05
4.72114e-05
4.73167e-05
0.000231289
4.35833e-05
4.36053e-05
2.14792e-05
2.28508e-05
2.44986e-05
2.33163e-05
0.000229587
3.98278e-05
3.98856e-05
4.26933e-05
4.27033e-05
2.45014e-05
2.33349e-05
0.000206073
0.000233968
9.20614e-05
0.000231959
0.000222369
0.000233608
8.62305e-05
0.000104649
3.85117e-05
0.000128148
3.97604e-05
0.000104676
3.84683e-05
0.000128303
3.97631e-05
0.00019988
0.000230711
0.000232669
8.02849e-05
0.00023318
8.51367e-05
0.000185423
0.00019992
0.000230698
0.000232669
8.00707e-05
0.000233181
8.48698e-05
0.00018542
9.82943e-05
4.19317e-05
4.03399e-05
8.55049e-05
9.83241e-05
4.19326e-05
4.03414e-05
8.55109e-05
2.14763e-05
2.28516e-05
2.14756e-05
2.28518e-05
0.000229585
3.99298e-05
3.99025e-05
4.28536e-05
4.28369e-05
2.45016e-05
2.33359e-05
2.45004e-05
2.33363e-05
2.47913e-05
2.54773e-05
2.47903e-05
2.54755e-05
3.91039e-05
3.90675e-05
0.000219434
3.65228e-05
3.65104e-05
2.59602e-05
2.56273e-05
2.59586e-05
2.56255e-05
0.000216596
3.38595e-05
3.3855e-05
3.57552e-05
3.5729e-05
7.26233e-05
4.2402e-05
8.13503e-05
4.37491e-05
0.00016734
7.88688e-05
0.000232059
0.000225989
0.000180009
7.40237e-05
0.000231349
0.000167337
7.8812e-05
0.00023206
0.000225973
0.000180027
7.39066e-05
0.000231349
6.97029e-05
4.52358e-05
4.41351e-05
6.33155e-05
6.97008e-05
4.52334e-05
4.41322e-05
6.33022e-05
0.00016279
0.00022415
6.82601e-05
0.000229617
7.26827e-05
0.000230534
0.00015184
0.000162786
0.000224133
6.81707e-05
0.000229613
7.2677e-05
0.000230532
0.000151821
3.90685e-05
3.91506e-05
0.000219411
3.6515e-05
3.65506e-05
2.47904e-05
2.54766e-05
2.59589e-05
2.56255e-05
0.00021657
3.38572e-05
3.38785e-05
3.57292e-05
3.57833e-05
2.59604e-05
2.56264e-05
0.000167315
7.88856e-05
0.000232059
0.000225999
0.000179982
7.39607e-05
0.000231347
7.26273e-05
4.23979e-05
8.13536e-05
4.37457e-05
0.000167356
0.00023206
7.88068e-05
0.000225985
0.000180023
0.00023135
7.39777e-05
6.96883e-05
4.5232e-05
4.41316e-05
6.32972e-05
0.000162765
0.00022416
6.82021e-05
0.000229614
7.27291e-05
0.000230533
0.000151809
6.97063e-05
4.52298e-05
4.41276e-05
6.32983e-05
0.000162782
0.000224146
0.000229616
6.82334e-05
0.000230535
7.26361e-05
0.000151817
7.25831e-05
4.24037e-05
8.13149e-05
4.3752e-05
0.000167257
0.000232055
7.88014e-05
0.000225989
0.000179929
0.000231342
7.38949e-05
7.25792e-05
4.24035e-05
8.12944e-05
4.37499e-05
0.00016273
0.000224156
6.8301e-05
0.000229609
7.27398e-05
0.000230528
0.000151748
6.96732e-05
4.52357e-05
4.41338e-05
6.32738e-05
0.0001627
0.000224149
0.000229605
6.81653e-05
0.000230525
7.26648e-05
0.000151754
6.96642e-05
4.52337e-05
4.4133e-05
6.32655e-05
3.90239e-05
3.90657e-05
0.000219444
3.64822e-05
3.65225e-05
2.47905e-05
2.54757e-05
2.59569e-05
2.56231e-05
0.000216608
3.38451e-05
3.3875e-05
3.57034e-05
3.57434e-05
2.59592e-05
2.5626e-05
0.000167336
0.00023206
7.87674e-05
0.000225977
0.000180027
0.000231348
7.38711e-05
7.26071e-05
4.24008e-05
8.13478e-05
4.37486e-05
7.26233e-05
4.24009e-05
8.13539e-05
4.37479e-05
0.00016276
0.000224169
0.000229612
6.8248e-05
0.000230534
7.27882e-05
0.000151744
0.000162765
0.000224137
0.000229611
6.8146e-05
0.000230532
7.26428e-05
0.000151789
6.96837e-05
4.52332e-05
4.41316e-05
6.3281e-05
6.96933e-05
4.5231e-05
4.41306e-05
6.32905e-05
2.47906e-05
2.54757e-05
2.47895e-05
2.54741e-05
0.000216595
3.38744e-05
3.385e-05
3.57466e-05
3.57267e-05
2.59592e-05
2.5626e-05
2.59579e-05
2.56245e-05
2.60168e-05
2.61193e-05
2.60151e-05
2.61176e-05
3.32767e-05
3.32615e-05
0.000204451
3.20388e-05
3.20292e-05
2.6079e-05
2.61191e-05
2.60725e-05
2.61174e-05
0.000201181
3.09553e-05
3.09458e-05
3.16355e-05
3.16247e-05
5.63503e-05
4.55365e-05
6.12356e-05
4.64136e-05
0.000138584
6.70043e-05
0.000228599
0.000218083
0.000148029
6.31795e-05
0.000227487
0.000138568
6.70136e-05
0.000228594
0.000218065
0.000148012
6.30894e-05
0.00022748
5.48628e-05
4.73264e-05
4.6647e-05
5.10814e-05
5.48653e-05
4.73255e-05
4.66453e-05
5.10709e-05
0.000135409
0.000215929
5.87964e-05
0.000225008
6.20407e-05
0.000226288
0.000127248
0.000135392
0.000215912
5.87594e-05
0.000224999
6.20691e-05
0.00022628
0.000127236
3.32626e-05
3.32915e-05
0.000204441
3.20347e-05
3.20412e-05
2.60168e-05
2.61196e-05
2.60761e-05
2.6118e-05
0.000201168
3.09452e-05
3.09543e-05
3.16268e-05
3.16359e-05
2.60749e-05
2.61195e-05
0.000138554
6.70541e-05
0.000228597
0.000218096
0.000148005
6.3109e-05
0.000227484
5.63455e-05
4.55319e-05
6.12255e-05
4.64096e-05
0.000138537
0.000228596
6.69752e-05
0.000218078
0.000148004
0.000227482
6.31575e-05
5.4866e-05
4.73236e-05
4.6644e-05
5.10936e-05
0.000135388
0.000215944
5.8778e-05
0.000225004
6.2095e-05
0.000226286
0.000127228
5.48438e-05
4.73204e-05
4.66402e-05
5.10703e-05
0.00013537
0.000215924
0.000224996
5.87775e-05
0.000226279
6.20195e-05
0.000127203
5.63309e-05
4.55378e-05
6.12142e-05
4.64159e-05
0.000138518
0.000228585
6.70055e-05
0.000218077
0.000147945
0.000227471
6.30893e-05
5.63207e-05
4.55367e-05
6.12054e-05
4.64135e-05
0.000135384
0.000215939
5.88634e-05
0.000224996
6.20636e-05
0.000226276
0.000127176
5.48548e-05
4.73275e-05
4.66464e-05
5.10804e-05
0.000135344
0.000215923
0.00022499
5.87596e-05
0.00022627
6.20652e-05
0.000127202
5.48483e-05
4.73251e-05
4.66451e-05
5.10529e-05
3.32562e-05
3.32838e-05
0.000204467
3.20346e-05
3.20559e-05
2.60158e-05
2.61183e-05
2.60749e-05
2.61158e-05
0.000201196
3.09496e-05
3.09645e-05
3.16251e-05
3.16495e-05
2.60876e-05
2.61179e-05
0.000138523
0.00022859
6.69884e-05
0.000218068
0.000147972
0.000227474
6.30704e-05
5.63364e-05
4.55357e-05
6.12039e-05
4.64119e-05
5.63413e-05
4.55341e-05
6.12127e-05
4.64108e-05
0.000135368
0.00021595
0.000224989
5.88683e-05
0.000226274
6.21189e-05
0.000127202
0.000135345
0.000215916
0.000224989
5.87524e-05
0.000226271
6.20541e-05
0.000127199
5.48307e-05
4.73232e-05
4.66435e-05
5.10764e-05
5.48371e-05
4.73226e-05
4.66422e-05
5.10808e-05
2.60158e-05
2.61182e-05
2.60145e-05
2.61171e-05
0.000201179
3.09697e-05
3.09472e-05
3.16458e-05
3.16313e-05
2.60745e-05
2.6118e-05
2.60754e-05
2.61169e-05
2.6049e-05
2.59409e-05
2.60498e-05
2.59377e-05
3.06902e-05
3.06747e-05
0.000189668
3.03861e-05
3.0388e-05
2.57408e-05
2.58808e-05
2.57386e-05
2.58793e-05
0.000186414
3.02371e-05
3.02574e-05
3.02897e-05
3.02664e-05
4.70507e-05
4.74947e-05
4.99902e-05
4.80079e-05
0.000117525
5.79155e-05
0.000223655
0.000209255
0.000124606
5.51801e-05
0.000222238
0.000117525
5.79106e-05
0.000223646
0.000209239
0.000124595
5.51512e-05
0.00022223
4.62303e-05
4.85011e-05
4.81274e-05
4.38692e-05
4.62129e-05
4.85006e-05
4.81261e-05
4.39077e-05
0.000115401
0.000206997
5.22255e-05
0.000219246
5.44682e-05
0.000220766
0.000109253
0.000115397
0.000206982
5.21933e-05
0.000219238
5.44667e-05
0.000220757
0.000109266
3.06816e-05
3.06879e-05
0.00018966
3.03846e-05
3.03731e-05
2.60518e-05
2.59395e-05
2.57396e-05
2.58798e-05
0.000186412
3.02594e-05
3.02455e-05
3.02741e-05
3.02932e-05
2.57406e-05
2.58816e-05
0.000117531
5.79244e-05
0.000223653
0.000209272
0.000124589
5.51647e-05
0.000222236
4.70274e-05
4.74891e-05
4.99566e-05
4.80025e-05
0.000117495
0.000223641
5.78921e-05
0.000209247
0.000124562
0.000222223
5.5162e-05
4.62007e-05
4.84985e-05
4.81244e-05
4.39228e-05
0.000115387
0.000207015
5.22034e-05
0.000219244
5.44777e-05
0.000220766
0.000109259
4.61907e-05
4.84949e-05
4.81201e-05
4.38939e-05
0.000115364
0.000206989
0.000219229
5.22058e-05
0.00022075
5.44492e-05
0.000109241
4.70406e-05
4.74956e-05
4.99686e-05
4.80098e-05
0.0001175
0.000223637
5.79101e-05
0.000209248
0.000124563
0.000222222
5.51506e-05
4.70398e-05
4.74943e-05
4.99767e-05
4.80072e-05
0.000115396
0.000207012
5.22912e-05
0.00021924
5.44261e-05
0.000220759
0.000109265
4.61968e-05
4.85023e-05
4.81267e-05
4.39034e-05
0.000115378
0.000206991
0.000219232
5.21948e-05
0.00022075
5.44675e-05
0.000109252
4.61992e-05
4.84997e-05
4.81256e-05
4.38989e-05
3.06779e-05
3.07012e-05
0.000189648
3.03801e-05
3.04051e-05
2.6041e-05
2.59391e-05
2.57372e-05
2.58768e-05
0.000186463
3.02339e-05
3.02731e-05
3.02736e-05
3.02907e-05
2.57393e-05
2.58787e-05
0.000117497
0.000223635
5.78934e-05
0.000209247
0.000124556
0.000222219
5.5142e-05
4.70041e-05
4.74916e-05
4.9953e-05
4.80045e-05
4.70104e-05
4.74917e-05
4.99633e-05
4.80047e-05
0.00011536
0.000207015
0.000219227
5.22698e-05
0.000220748
5.44449e-05
0.000109236
0.000115373
0.000206992
0.000219229
5.21855e-05
0.000220748
5.44595e-05
0.000109244
4.6213e-05
4.84968e-05
4.81223e-05
4.38714e-05
4.62282e-05
4.84969e-05
4.81229e-05
4.38711e-05
2.60497e-05
2.59398e-05
2.60472e-05
2.59382e-05
0.00018644
3.02674e-05
3.02515e-05
3.02906e-05
3.02755e-05
2.57394e-05
2.58796e-05
2.57379e-05
2.58781e-05
2.5673e-05
2.55215e-05
2.56701e-05
2.55194e-05
3.02972e-05
3.02606e-05
0.000176313
3.04404e-05
3.04542e-05
2.53032e-05
2.54525e-05
2.5301e-05
2.54495e-05
0.000173217
3.08977e-05
3.09259e-05
3.05935e-05
3.05583e-05
4.14804e-05
4.85784e-05
4.32826e-05
4.88411e-05
0.00010212
5.16447e-05
0.000217685
0.000200236
0.000107442
4.98302e-05
0.000216091
0.000102134
5.16557e-05
0.000217678
0.000200223
0.000107415
4.97962e-05
0.000216085
4.10305e-05
4.90628e-05
4.88888e-05
3.95827e-05
4.10097e-05
4.90629e-05
4.88886e-05
3.96173e-05
0.0001005
0.000198006
4.7892e-05
0.000212829
4.93691e-05
0.00021447
9.59367e-05