/*--------------------------------*- C++ -*----------------------------------*\
| =========                 |                                                 |
| \\      /  F ield         | OpenFOAM: The Open Source CFD Toolbox           |
|  \\    /   O peration     | Version:  v1912                                 |
|   \\  /    A nd           | Website:  www.openfoam.com                      |
|    \\/     M anipulation  |                                                 |
\*---------------------------------------------------------------------------*/
FoamFile
{
    version     2.0;
    format      ascii;
    class       volScalarField;
    location    "0.4";
    object      nut;
}
// * * * * * * * * * * * * * * * * * * * * * * * * * * * * * * * * * * * * * //

dimensions      [0 2 -1 0 0 0 0];


internalField   nonuniform List<scalar> 
171728
(
4.00218e-07
4.74518e-07
4.74464e-07
1.90187e-07
2.54605e-08
3.23738e-08
3.25424e-08
4.47282e-08
1.72939e-09
2.74925e-09
2.7413e-09
4.34619e-08
3.47083e-10
1.69271e-09
1.68734e-09
4.34879e-08
2.99295e-10
1.61151e-09
1.62089e-09
4.34918e-08
2.97495e-10
1.6187e-09
1.61833e-09
4.34918e-08
2.87881e-10
1.62195e-09
1.61638e-09
4.34927e-08
2.96192e-10
1.61884e-09
1.61862e-09
4.34926e-08
2.97991e-10
1.61847e-09
1.61352e-09
4.34936e-08
2.89132e-10
1.61615e-09
1.61737e-09
4.3493e-08
3.09516e-10
1.61457e-09
1.618e-09
4.34933e-08
3.02705e-10
1.61348e-09
1.6177e-09
4.34939e-08
3.09909e-10
1.62746e-09
1.61943e-09
4.34937e-08
3.10444e-10
1.63048e-09
1.61873e-09
4.34939e-08
2.92653e-10
1.60657e-09
1.61914e-09
4.34937e-08
2.98633e-10
1.6238e-09
1.61783e-09
4.3494e-08
3.03488e-10
1.61815e-09
1.61911e-09
4.34942e-08
2.96112e-10
1.61018e-09
1.61799e-09
4.3494e-08
3.22868e-10
1.60559e-09
1.61666e-09
4.34937e-08
2.93411e-10
1.6293e-09
1.61317e-09
4.34924e-08
3.61276e-10
1.62397e-09
1.61801e-09
4.34955e-08
2.99361e-10
1.62046e-09
1.61925e-09
4.34958e-08
3.00753e-10
1.61862e-09
1.61879e-09
4.34963e-08
3.01013e-10
1.6195e-09
1.61988e-09
4.3496e-08
3.02037e-10
1.61904e-09
1.61972e-09
4.34961e-08
3.01622e-10
1.61897e-09
1.61917e-09
4.34962e-08
3.01693e-10
1.61971e-09
1.61996e-09
4.34962e-08
3.0219e-10
1.6187e-09
1.61895e-09
4.3496e-08
3.01847e-10
1.61946e-09
1.61971e-09
4.34961e-08
3.01751e-10
1.61959e-09
1.61994e-09
4.3496e-08
3.01318e-10
1.61963e-09
1.61956e-09
4.34958e-08
3.01844e-10
1.61681e-09
1.61937e-09
4.3496e-08
3.02397e-10
1.62025e-09
1.62003e-09
4.3496e-08
3.01757e-10
1.61957e-09
1.62058e-09
4.3496e-08
3.01911e-10
1.61967e-09
1.62042e-09
4.34961e-08
3.01844e-10
1.62002e-09
1.62132e-09
4.34959e-08
3.01953e-10
1.61954e-09
1.62082e-09
4.34961e-08
3.02306e-10
1.61946e-09
1.62075e-09
4.34962e-08
3.02777e-10
1.61956e-09
1.62472e-09
4.34963e-08
3.12844e-10
1.62397e-09
1.6237e-09
4.3487e-08
3.98068e-10
1.6015e-09
1.62096e-09
4.34961e-08
2.98432e-10
1.62435e-09
1.61657e-09
4.3496e-08
3.01039e-10
1.62137e-09
1.61766e-09
4.34963e-08
3.02344e-10
1.61829e-09
1.61728e-09
4.34966e-08
3.03191e-10
1.61825e-09
1.61991e-09
4.34968e-08
3.02655e-10
1.61792e-09
1.6183e-09
4.34967e-08
3.02894e-10
1.61829e-09
1.62011e-09
4.34969e-08
3.02786e-10
1.61824e-09
1.62144e-09
4.3497e-08
3.02479e-10
1.61856e-09
1.62178e-09
4.34969e-08
3.02836e-10
1.61803e-09
1.62128e-09
4.34968e-08
3.03307e-10
1.61784e-09
1.62223e-09
4.34971e-08
3.03175e-10
1.61826e-09
1.62047e-09
4.34968e-08
3.03565e-10
1.61861e-09
1.6208e-09
4.34966e-08
3.04868e-10
1.62616e-09
1.62133e-09
4.34969e-08
3.08065e-10
1.61254e-09
1.62199e-09
4.34969e-08
3.03832e-10
1.61692e-09
1.6179e-09
4.34953e-08
3.03689e-10
1.6183e-09
1.61824e-09
4.34919e-08
3.03551e-10
1.61852e-09
1.61818e-09
4.34919e-08
3.03619e-10
1.6189e-09
1.61868e-09
4.34919e-08
3.03284e-10
1.61837e-09
1.61752e-09
4.34921e-08
3.0332e-10
1.61871e-09
1.61877e-09
4.34919e-08
3.03469e-10
1.61873e-09
1.61833e-09
4.34924e-08
3.03808e-10
1.61865e-09
1.61828e-09
4.34922e-08
3.03821e-10
1.61874e-09
1.61852e-09
4.34922e-08
3.03168e-10
1.61891e-09
1.61854e-09
4.34921e-08
3.03524e-10
1.61898e-09
1.61863e-09
4.34919e-08
3.02751e-10
1.61834e-09
1.61801e-09
4.3492e-08
3.01201e-10
1.61791e-09
1.61786e-09
4.34917e-08
2.9519e-10
1.61687e-09
1.61908e-09
4.34925e-08
2.91103e-10
1.61796e-09
1.60114e-09
4.34945e-08
2.97024e-10
1.62001e-09
1.61263e-09
4.34909e-08
3.02022e-10
1.61926e-09
1.61855e-09
4.34913e-08
3.03345e-10
1.61848e-09
1.61837e-09
4.34918e-08
3.03102e-10
1.61806e-09
1.61745e-09
4.34911e-08
3.03563e-10
1.6182e-09
1.61709e-09
4.34911e-08
3.03503e-10
1.61862e-09
1.61761e-09
4.34909e-08
3.03041e-10
1.61838e-09
1.61725e-09
4.3491e-08
3.03256e-10
1.61848e-09
1.61753e-09
4.34911e-08
3.0341e-10
1.61863e-09
1.61821e-09
4.34909e-08
3.03442e-10
1.61848e-09
1.61808e-09
4.34913e-08
3.03743e-10
1.61856e-09
1.61818e-09
4.34911e-08
3.03365e-10
1.61872e-09
1.61834e-09
4.34911e-08
3.03079e-10
1.61873e-09
1.61834e-09
4.3491e-08
3.04114e-10
1.61851e-09
1.61814e-09
4.34911e-08
3.03953e-10
1.61889e-09
1.61848e-09
4.34909e-08
3.04025e-10
1.61849e-09
1.61849e-09
4.34908e-08
3.04562e-10
1.61886e-09
1.6184e-09
4.34909e-08
3.03294e-10
1.61825e-09
1.61786e-09
4.34908e-08
3.03258e-10
1.61824e-09
1.61761e-09
4.34908e-08
3.04652e-10
1.61864e-09
1.61834e-09
4.34908e-08
3.09011e-10
1.61895e-09
1.61841e-09
4.34914e-08
3.91692e-10
1.65772e-09
1.66349e-09
4.34916e-08
2.25301e-09
2.74077e-09
2.78978e-09
4.35297e-08
3.4297e-08
3.40337e-08
3.40575e-08
4.42757e-08
2.26909e-07
1.22426e-07
1.22474e-07
1.56374e-07
1.55712e-07
2.82142e-07
2.82186e-07
1.5564e-07
2.82151e-07
2.82235e-07
6.41555e-07
6.41563e-07
6.41552e-07
6.41568e-07
2.82067e-07
2.82154e-07
1.55587e-07
2.82103e-07
2.82131e-07
1.55557e-07
1.90251e-07
1.1678e-07
4.74321e-07
4.74379e-07
7.17463e-08
7.16109e-08
1.90184e-07
1.16582e-07
4.74571e-07
4.74489e-07
7.18285e-08
7.17455e-08
4.74471e-07
7.18725e-08
7.17574e-08
1.90233e-07
1.1677e-07
4.74529e-07
7.19027e-08
7.19053e-08
1.1671e-07
4.47558e-08
1.13047e-07
3.24277e-08
3.24439e-08
4.14406e-09
4.20202e-09
4.46707e-08
1.13119e-07
3.24496e-08
3.24622e-08
4.12963e-09
4.18435e-09
3.24855e-08
4.09125e-09
4.15265e-09
4.48098e-08
1.13109e-07
3.26189e-08
4.15091e-09
4.14887e-09
1.13101e-07
4.33984e-08
1.1297e-07
2.74563e-09
2.75189e-09
1.76623e-09
1.76794e-09
4.33988e-08
1.1296e-07
2.7686e-09
2.75899e-09
1.75506e-09
1.77168e-09
2.79305e-09
1.75322e-09
1.77325e-09
4.34298e-08
1.12976e-07
2.79611e-09
1.73656e-09
1.74296e-09
1.12955e-07
4.34664e-08
1.12962e-07
1.70382e-09
1.71693e-09
1.64524e-09
1.62886e-09
4.3459e-08
1.12944e-07
1.68178e-09
1.71002e-09
1.6236e-09
1.64833e-09
1.70823e-09
1.6164e-09
1.64067e-09
4.34772e-08
1.12963e-07
1.68735e-09
1.61546e-09
1.6166e-09
1.12939e-07
4.34728e-08
1.12958e-07
1.64136e-09
1.61872e-09
1.64056e-09
1.62147e-09
4.34667e-08
1.12939e-07
1.61216e-09
1.6443e-09
1.62231e-09
1.64193e-09
1.63753e-09
1.60674e-09
1.63582e-09
4.34801e-08
1.12962e-07
1.61373e-09
1.60811e-09
1.60883e-09
1.12938e-07
4.34741e-08
1.12958e-07
1.64018e-09
1.63663e-09
1.62682e-09
1.66627e-09
4.34704e-08
1.12946e-07
1.60646e-09
1.64198e-09
1.61879e-09
1.6416e-09
1.63567e-09
1.62654e-09
1.63331e-09
4.348e-08
1.12964e-07
1.6107e-09
1.60669e-09
1.60833e-09
1.12939e-07
4.34774e-08
1.12959e-07
1.59335e-09
1.65758e-09
1.65861e-09
1.64832e-09
4.34644e-08
1.1295e-07
1.6015e-09
1.64172e-09
1.62982e-09
1.64151e-09
1.63251e-09
1.61887e-09
1.63241e-09
4.34806e-08
1.12965e-07
1.61004e-09
1.60687e-09
1.60966e-09
1.12941e-07
4.34779e-08
1.12964e-07
1.63604e-09
1.64892e-09
1.64208e-09
1.64886e-09
4.34628e-08
1.12948e-07
1.61446e-09
1.6417e-09
1.62821e-09
1.64308e-09
1.63257e-09
1.61921e-09
1.63372e-09
4.34807e-08
1.12963e-07
1.61245e-09
1.60607e-09
1.61122e-09
1.12939e-07
4.34677e-08
1.12957e-07
1.64058e-09
1.64854e-09
1.62608e-09
1.63813e-09
4.34637e-08
1.12955e-07
1.61049e-09
1.64326e-09
1.61552e-09
1.64233e-09
1.63327e-09
1.61577e-09
1.63181e-09
4.34817e-08
1.12966e-07
1.61103e-09
1.60648e-09
1.60952e-09
1.12942e-07
4.3469e-08
1.12944e-07
1.61966e-09
1.62017e-09
1.65794e-09
1.61656e-09
4.34594e-08
1.12955e-07
1.6094e-09
1.6433e-09
1.62779e-09
1.64398e-09
1.63197e-09
1.6136e-09
1.63325e-09
4.34813e-08
1.12966e-07
1.61161e-09
1.60752e-09
1.61094e-09
1.1294e-07
4.3478e-08
1.12955e-07
1.67947e-09
1.63008e-09
1.64166e-09
1.62389e-09
4.34624e-08
1.12951e-07
1.62834e-09
1.64333e-09
1.62166e-09
1.64133e-09
1.63305e-09
1.61539e-09
1.63183e-09
4.34815e-08
1.12966e-07
1.61271e-09
1.60713e-09
1.60967e-09
1.12942e-07
4.34699e-08
1.12956e-07
1.63878e-09
1.61438e-09
1.6368e-09
1.61952e-09
4.34628e-08
1.12965e-07
1.61779e-09
1.64104e-09
1.61851e-09
1.64125e-09
1.63156e-09
1.62061e-09
1.63347e-09
4.34823e-08
1.12967e-07
1.61138e-09
1.60835e-09
1.6113e-09
1.12942e-07
4.34691e-08
1.12961e-07
1.63775e-09
1.61922e-09
1.63427e-09
1.65062e-09
4.34635e-08
1.12965e-07
1.61675e-09
1.64174e-09
1.61233e-09
1.64166e-09
1.63401e-09
1.62647e-09
1.63378e-09
4.34819e-08
1.12965e-07
1.61378e-09
1.60869e-09
1.61114e-09
1.12942e-07
4.34583e-08
1.1295e-07
1.63373e-09
1.65428e-09
1.66204e-09
1.63837e-09
4.34673e-08
1.12957e-07
1.60585e-09
1.64157e-09
1.60327e-09
1.64169e-09
1.63344e-09
1.61356e-09
1.63532e-09
4.3482e-08
1.12967e-07
1.61237e-09
1.6088e-09
1.6106e-09
1.12942e-07
4.34748e-08
1.12951e-07
1.63733e-09
1.62107e-09
1.6433e-09
1.68823e-09
4.34711e-08
1.1295e-07
1.61603e-09
1.64202e-09
1.61944e-09
1.64062e-09
1.63583e-09
1.62943e-09
1.63398e-09
4.34819e-08
1.12967e-07
1.61225e-09
1.60752e-09
1.60843e-09
1.12943e-07
4.34741e-08
1.12951e-07
1.64111e-09
1.67159e-09
1.64518e-09
1.64797e-09
4.34832e-08
1.12935e-07
1.61761e-09
1.64072e-09
1.61882e-09
1.64129e-09
1.63284e-09
1.61544e-09
1.63384e-09
4.34821e-08
1.12968e-07
1.60994e-09
1.60811e-09
1.60999e-09
1.12943e-07
4.34758e-08
1.12949e-07
1.63639e-09
1.6484e-09
1.64832e-09
1.63957e-09
4.3481e-08
1.12967e-07
1.6184e-09
1.64223e-09
1.6188e-09
1.64218e-09
1.63434e-09
1.61591e-09
1.63428e-09
4.34821e-08
1.12968e-07
1.61257e-09
1.60736e-09
1.60961e-09
1.12944e-07
4.34738e-08
1.12966e-07
1.6287e-09
1.63025e-09
1.59118e-09
1.60785e-09
4.34853e-08
1.12971e-07
1.6145e-09
1.64308e-09
1.60364e-09
1.64517e-09
1.63488e-09
1.59806e-09
1.63639e-09
4.34821e-08
1.12969e-07
1.61133e-09
1.60693e-09
1.60865e-09
1.12944e-07
4.34736e-08
1.12942e-07
1.5904e-09
1.61972e-09
1.67736e-09
1.7363e-09
4.35081e-08
1.13003e-07
1.60766e-09
1.645e-09
1.63952e-09
1.64169e-09
1.63429e-09
1.65769e-09
1.63421e-09
4.34823e-08
1.12972e-07
1.60857e-09
1.60267e-09
1.60991e-09
1.12953e-07
4.35042e-08
1.1299e-07
1.63167e-09
1.67704e-09
1.6236e-09
1.68777e-09
4.34648e-08
1.12944e-07
1.63614e-09
1.64125e-09
1.55393e-09
1.64436e-09
1.64032e-09
1.60359e-09
1.63298e-09
4.34831e-08
1.12972e-07
1.61805e-09
1.60627e-09
1.611e-09
1.12946e-07
4.34655e-08
1.12966e-07
1.6544e-09
1.66123e-09
1.65403e-09
1.6452e-09
4.34851e-08
1.12962e-07
1.59627e-09
1.64273e-09
1.62714e-09
1.64138e-09
1.63238e-09
1.62301e-09
1.63232e-09
4.34837e-08
1.12971e-07
1.61266e-09
1.60801e-09
1.61073e-09
1.12947e-07
4.34897e-08
1.12966e-07
1.64837e-09
1.65039e-09
1.63873e-09
1.64708e-09
4.34755e-08
1.12963e-07
1.62203e-09
1.64183e-09
1.62059e-09
1.6411e-09
1.63296e-09
1.61935e-09
1.63247e-09
4.3484e-08
1.12972e-07
1.6133e-09
1.60849e-09
1.61082e-09
1.12947e-07
4.3489e-08
1.12966e-07
1.64133e-09
1.64948e-09
1.64e-09
1.64759e-09
4.34758e-08
1.12962e-07
1.61639e-09
1.64053e-09
1.62118e-09
1.64157e-09
1.63211e-09
1.62028e-09
1.6325e-09
4.34843e-08
1.12971e-07
1.61206e-09
1.60952e-09
1.62118e-09
1.12946e-07
4.34891e-08
1.12968e-07
1.64172e-09
1.64987e-09
1.63844e-09
1.64681e-09
4.34758e-08
1.12963e-07
1.61719e-09
1.64082e-09
1.61967e-09
1.6408e-09
1.63204e-09
1.61944e-09
1.6325e-09
4.34844e-08
1.12972e-07
1.61892e-09
1.60886e-09
1.614e-09
1.12946e-07
4.34887e-08
1.12968e-07
1.64149e-09
1.64988e-09
1.63925e-09
1.64734e-09
4.34756e-08
1.12963e-07
1.617e-09
1.64087e-09
1.62046e-09
1.64143e-09
1.6325e-09
1.62004e-09
1.63301e-09
4.34842e-08
1.12972e-07
1.61632e-09
1.609e-09
1.61325e-09
1.12947e-07
4.34889e-08
1.12966e-07
1.64127e-09
1.64962e-09
1.64007e-09
1.64771e-09
4.34758e-08
1.12962e-07
1.61677e-09
1.64066e-09
1.62128e-09
1.64175e-09
1.63288e-09
1.62004e-09
1.63288e-09
4.34844e-08
1.12971e-07
1.61537e-09
1.60917e-09
1.61358e-09
1.12947e-07
4.34889e-08
1.12968e-07
1.64241e-09
1.65049e-09
1.6384e-09
1.64647e-09
4.34757e-08
1.12964e-07
1.6179e-09
1.64151e-09
1.61962e-09
1.64051e-09
1.63299e-09
1.61896e-09
1.63195e-09
4.34843e-08
1.12973e-07
1.61561e-09
1.6081e-09
1.61267e-09
1.12948e-07
4.34886e-08
1.12967e-07
1.64128e-09
1.64951e-09
1.63986e-09
1.64775e-09
4.34755e-08
1.12963e-07
1.61678e-09
1.64053e-09
1.62106e-09
1.64179e-09
1.63219e-09
1.62032e-09
1.63345e-09
4.34841e-08
1.12972e-07
1.6148e-09
1.60946e-09
1.61415e-09
1.12947e-07
4.34888e-08
1.12967e-07
1.64213e-09
1.65009e-09
1.63941e-09
1.6475e-09
4.34757e-08
1.12963e-07
1.61761e-09
1.64111e-09
1.6206e-09
1.64148e-09
1.63294e-09
1.62008e-09
1.63316e-09
4.34842e-08
1.12971e-07
1.61556e-09
1.60924e-09
1.61386e-09
1.12947e-07
4.34889e-08
1.12968e-07
1.64191e-09
1.65033e-09
1.63952e-09
1.64527e-09
4.34756e-08
1.12963e-07
1.61738e-09
1.64113e-09
1.62044e-09
1.64127e-09
1.63314e-09
1.61979e-09
1.63265e-09
4.34842e-08
1.12972e-07
1.61574e-09
1.60901e-09
1.61335e-09
1.12947e-07
4.34888e-08
1.12967e-07
1.64142e-09
1.63067e-09
1.63969e-09
1.65662e-09
4.34763e-08
1.12963e-07
1.61692e-09
1.64087e-09
1.62077e-09
1.64149e-09
1.63302e-09
1.6222e-09
1.63248e-09
4.34842e-08
1.12972e-07
1.61566e-09
1.60905e-09
1.6131e-09
1.12947e-07
4.34887e-08
1.12967e-07
1.64219e-09
1.64317e-09
1.63967e-09
1.65014e-09
4.34768e-08
1.12967e-07
1.61753e-09
1.64099e-09
1.62087e-09
1.64171e-09
1.63228e-09
1.62064e-09
1.63335e-09
4.34842e-08
1.12972e-07
1.61494e-09
1.60938e-09
1.61398e-09
1.12947e-07
4.34886e-08
1.12967e-07
1.6422e-09
1.65305e-09
1.63928e-09
1.64954e-09
4.34723e-08
1.12967e-07
1.61768e-09
1.64162e-09
1.62049e-09
1.64103e-09
1.6333e-09
1.61993e-09
1.63209e-09
4.34841e-08
1.12972e-07
1.61598e-09
1.60917e-09
1.61332e-09
1.12948e-07
4.34888e-08
1.12968e-07
1.64155e-09
1.65216e-09
1.63905e-09
1.64933e-09
4.34723e-08
1.12967e-07
1.61704e-09
1.64058e-09
1.62025e-09
1.64151e-09
1.6321e-09
1.61984e-09
1.63321e-09
4.34842e-08
1.12972e-07
1.61616e-09
1.60512e-09
1.60977e-09
1.12947e-07
4.34887e-08
1.12968e-07
1.64171e-09
1.65236e-09
1.63958e-09
1.64999e-09
4.34722e-08
1.12967e-07
1.61719e-09
1.64103e-09
1.62079e-09
1.64171e-09
1.63279e-09
1.62039e-09
1.63329e-09
4.34842e-08
1.12972e-07
1.61629e-09
1.60765e-09
1.6123e-09
1.12947e-07
4.34885e-08
1.12967e-07
1.64208e-09
1.65275e-09
1.63916e-09
1.64962e-09
4.34721e-08
1.12967e-07
1.61758e-09
1.64121e-09
1.62037e-09
1.64134e-09
1.6331e-09
1.61998e-09
1.63262e-09
4.34841e-08
1.12972e-07
1.61738e-09
1.60725e-09
1.61165e-09
1.12947e-07
4.34886e-08
1.12968e-07
1.64166e-09
1.65226e-09
1.63895e-09
1.64954e-09
4.34722e-08
1.12967e-07
1.61715e-09
1.6407e-09
1.62015e-09
1.64125e-09
1.63225e-09
1.61999e-09
1.63279e-09
4.34843e-08
1.12972e-07
1.61654e-09
1.60726e-09
1.61182e-09
1.12947e-07
4.34884e-08
1.12968e-07
1.64179e-09
1.65224e-09
1.63929e-09
1.64925e-09
4.34722e-08
1.12967e-07
1.61729e-09
1.64067e-09
1.62042e-09
1.64078e-09
1.632e-09
1.6203e-09
1.6328e-09
4.34842e-08
1.12972e-07
1.61629e-09
1.60819e-09
1.61212e-09
1.12947e-07
4.34885e-08
1.12968e-07
1.64188e-09
1.65128e-09
1.65006e-09
1.64209e-09
4.34724e-08
1.12967e-07
1.61709e-09
1.63966e-09
1.61879e-09
1.64133e-09
1.63136e-09
1.62204e-09
1.61589e-09
4.34842e-08
1.12973e-07
1.61641e-09
1.60534e-09
1.59663e-09
1.12949e-07
4.34868e-08
1.12977e-07
1.64998e-09
1.65099e-09
1.58658e-09
1.65429e-09
4.34716e-08
1.12987e-07
1.60879e-09
1.64049e-09
1.593e-09
1.64526e-09
1.61599e-09
1.6037e-09
1.656e-09
4.34837e-08
1.12974e-07
1.55884e-09
1.60786e-09
1.61917e-09
1.1295e-07
4.34792e-08
1.12969e-07
1.64362e-09
1.62269e-09
1.63754e-09
1.62026e-09
4.34811e-08
1.12996e-07
1.56963e-09
1.64533e-09
1.63058e-09
1.64161e-09
1.64163e-09
1.6063e-09
1.63534e-09
4.34835e-08
1.12974e-07
1.6284e-09
1.61013e-09
1.61124e-09
1.12948e-07
4.34801e-08
1.12964e-07
1.64309e-09
1.6608e-09
1.63459e-09
1.65913e-09
4.3506e-08
1.12984e-07
1.60894e-09
1.64094e-09
1.6255e-09
1.64153e-09
1.6345e-09
1.62404e-09
1.63357e-09
4.34836e-08
1.12974e-07
1.61481e-09
1.61011e-09
1.61055e-09
1.12948e-07
4.34774e-08
1.12963e-07
1.64263e-09
1.65332e-09
1.63315e-09
1.64802e-09
4.34852e-08
1.12985e-07
1.60886e-09
1.64113e-09
1.62619e-09
1.64144e-09
1.63315e-09
1.61874e-09
1.63321e-09
4.34837e-08
1.12975e-07
1.61561e-09
1.61015e-09
1.61148e-09
1.12948e-07
4.34776e-08
1.12963e-07
1.64109e-09
1.64751e-09
1.63311e-09
1.64758e-09
4.34842e-08
1.12985e-07
1.60914e-09
1.64086e-09
1.62582e-09
1.64158e-09
1.63274e-09
1.61868e-09
1.63302e-09
4.3484e-08
1.12974e-07
1.61617e-09
1.60852e-09
1.61161e-09
1.12948e-07
4.34779e-08
1.12963e-07
1.64086e-09
1.64736e-09
1.63261e-09
1.6472e-09
4.34842e-08
1.12986e-07
1.60966e-09
1.64095e-09
1.62724e-09
1.64141e-09
1.63253e-09
1.61822e-09
1.63237e-09
4.34842e-08
1.12975e-07
1.61615e-09
1.61104e-09
1.61354e-09
1.12949e-07
4.34777e-08
1.12964e-07
1.6408e-09
1.64718e-09
1.63233e-09
1.64698e-09
4.3484e-08
1.12986e-07
1.60942e-09
1.64105e-09
1.62825e-09
1.64187e-09
1.63193e-09
1.61811e-09
1.63331e-09
4.3484e-08
1.12975e-07
1.61749e-09
1.60918e-09
1.60941e-09
1.12949e-07
4.34775e-08
1.12963e-07
1.64093e-09
1.64731e-09
1.63308e-09
1.64744e-09
4.34839e-08
1.12985e-07
1.61021e-09
1.64167e-09
1.62768e-09
1.64188e-09
1.6329e-09
1.61853e-09
1.633e-09
4.34841e-08
1.12975e-07
1.6173e-09
1.60717e-09
1.61132e-09
1.12949e-07
4.34779e-08
1.12963e-07
1.64094e-09
1.64711e-09
1.63308e-09
1.64759e-09
4.34841e-08
1.12985e-07
1.60957e-09
1.64106e-09
1.62759e-09
1.64192e-09
1.63225e-09
1.6189e-09
1.63341e-09
4.34844e-08
1.12975e-07
1.61649e-09
1.60766e-09
1.61218e-09
1.12948e-07
4.34778e-08
1.12964e-07
1.64101e-09
1.6473e-09
1.63247e-09
1.64688e-09
4.3484e-08
1.12986e-07
1.60963e-09
1.64119e-09
1.62696e-09
1.64117e-09
1.63266e-09
1.61811e-09
1.63263e-09
4.34842e-08
1.12975e-07
1.61698e-09
1.60689e-09
1.61144e-09
1.12949e-07
4.34777e-08
1.12963e-07
1.64046e-09
1.64683e-09
1.63314e-09
1.64768e-09
4.3484e-08
1.12986e-07
1.60907e-09
1.64069e-09
1.6277e-09
1.64191e-09
1.63243e-09
1.61877e-09
1.63315e-09
4.34842e-08
1.12975e-07
1.61685e-09
1.60836e-09
1.61387e-09
1.12948e-07
4.34778e-08
1.12963e-07
1.64067e-09
1.64695e-09
1.63313e-09
1.6478e-09
4.34841e-08
1.12985e-07
1.60937e-09
1.64078e-09
1.62784e-09
1.64218e-09
1.63224e-09
1.619e-09
1.63352e-09
4.34844e-08
1.12974e-07
1.62098e-09
1.60832e-09
1.61258e-09
1.12948e-07
4.34776e-08
1.12963e-07
1.6409e-09
1.64736e-09
1.63268e-09
1.64762e-09
4.3484e-08
1.12986e-07
1.6098e-09
1.6413e-09
1.62803e-09
1.64171e-09
1.6325e-09
1.61891e-09
1.63229e-09
4.34842e-08
1.12974e-07
1.61563e-09
1.60855e-09
1.61301e-09
1.12949e-07
4.34776e-08
1.12962e-07
1.64023e-09
1.64718e-09
1.63034e-09
1.65157e-09
4.34837e-08
1.12988e-07
1.61002e-09
1.64082e-09
1.62315e-09
1.64117e-09
1.63174e-09
1.6223e-09
1.63075e-09
4.34842e-08
1.12974e-07
1.61685e-09
1.60847e-09
1.61388e-09
1.12948e-07
4.3478e-08
1.12961e-07
1.63786e-09
1.6603e-09
1.62752e-09
1.62283e-09
4.34825e-08
1.13001e-07
1.61955e-09
1.64121e-09
1.62141e-09
1.64164e-09
1.6307e-09
1.61383e-09
1.63105e-09
4.34844e-08
1.12973e-07
1.61769e-09
1.60912e-09
1.61464e-09
1.12946e-07
4.34781e-08
1.12961e-07
1.63693e-09
1.60473e-09
1.63083e-09
1.64105e-09
4.34724e-08
1.12985e-07
1.6186e-09
1.64132e-09
1.62118e-09
1.64224e-09
1.63173e-09
1.61621e-09
1.63069e-09
4.34844e-08
1.12972e-07
1.6184e-09
1.60817e-09
1.61152e-09
1.12947e-07
4.34773e-08
1.12961e-07
1.63943e-09
1.64394e-09
1.63197e-09
1.6475e-09
4.34825e-08
1.12984e-07
1.6178e-09
1.64211e-09
1.62005e-09
1.64096e-09
1.62635e-09
1.61897e-09
1.63911e-09
4.34838e-08
1.12972e-07
1.6062e-09
1.60908e-09
1.61566e-09
1.12952e-07
4.3477e-08
1.12961e-07
1.6402e-09
1.64746e-09
1.63238e-09
1.64776e-09
4.34831e-08
1.12984e-07
1.6169e-09
1.64056e-09
1.61998e-09
1.64075e-09
1.63906e-09
1.61903e-09
1.63931e-09
4.34835e-08
1.12972e-07
1.61494e-09
1.60871e-09
1.61561e-09
1.12952e-07
4.34773e-08
1.12961e-07
1.64031e-09
1.64759e-09
1.6328e-09
1.64801e-09
4.34835e-08
1.12984e-07
1.6167e-09
1.64047e-09
1.6203e-09
1.64093e-09
1.63996e-09
1.61905e-09
1.63888e-09
4.34837e-08
1.12972e-07
1.61575e-09
1.60869e-09
1.61516e-09
1.12953e-07
4.34772e-08
1.12961e-07
1.64079e-09
1.64793e-09
1.63245e-09
1.64759e-09
4.34834e-08
1.12985e-07
1.6171e-09
1.64074e-09
1.61994e-09
1.64059e-09
1.63953e-09
1.61885e-09
1.63875e-09
4.34836e-08
1.12972e-07
1.61539e-09
1.60832e-09
1.61528e-09
1.12953e-07
4.34774e-08
1.12961e-07
1.64034e-09
1.64723e-09
1.63243e-09
1.64763e-09
4.34836e-08
1.12984e-07
1.61665e-09
1.6402e-09
1.6199e-09
1.64063e-09
1.63893e-09
1.61901e-09
1.63901e-09
4.34837e-08
1.12972e-07
1.61479e-09
1.60828e-09
1.61439e-09
1.12953e-07
4.34774e-08
1.12961e-07
1.64037e-09
1.64754e-09
1.63259e-09
1.64801e-09
4.34835e-08
1.12984e-07
1.61667e-09
1.64042e-09
1.62007e-09
1.64096e-09
1.63947e-09
1.61946e-09
1.63979e-09
4.34837e-08
1.12972e-07
1.61667e-09
1.60893e-09
1.61596e-09
1.12952e-07
4.34774e-08
1.12961e-07
1.64055e-09
1.64758e-09
1.63229e-09
1.64771e-09
4.34837e-08
1.12984e-07
1.61684e-09
1.64042e-09
1.61978e-09
1.6406e-09
1.63914e-09
1.61886e-09
1.63928e-09
4.34839e-08
1.12972e-07
1.6149e-09
1.60842e-09
1.61559e-09
1.12952e-07
4.34772e-08
1.12961e-07
1.64056e-09
1.6479e-09
1.63269e-09
1.64804e-09
4.34835e-08
1.12985e-07
1.61688e-09
1.64069e-09
1.62021e-09
1.64088e-09
1.63928e-09
1.61916e-09
1.63934e-09
4.34837e-08
1.12972e-07
1.61504e-09
1.60871e-09
1.61509e-09
1.12953e-07
4.34774e-08
1.1296e-07
1.64081e-09
1.6478e-09
1.63251e-09
1.64778e-09
4.34837e-08
1.12984e-07
1.61716e-09
1.64056e-09
1.62013e-09
1.64074e-09
1.63924e-09
1.61918e-09
1.63961e-09
4.34839e-08
1.12972e-07
1.61584e-09
1.60876e-09
1.61639e-09
1.12952e-07
4.3477e-08
1.12962e-07
1.64026e-09
1.64774e-09
1.63212e-09
1.64756e-09
4.34836e-08
1.12984e-07
1.61644e-09
1.64058e-09
1.61979e-09
1.64046e-09
1.63974e-09
1.61906e-09
1.6391e-09
4.34837e-08
1.12972e-07
1.61594e-09
1.60865e-09
1.61583e-09
1.12952e-07
4.34772e-08
1.12962e-07
1.64031e-09
1.64757e-09
1.63255e-09
1.64766e-09
4.34836e-08
1.12984e-07
1.61643e-09
1.64049e-09
1.62011e-09
1.64069e-09
1.64019e-09
1.61927e-09
1.63949e-09
4.34838e-08
1.12971e-07
1.6164e-09
1.60887e-09
1.61617e-09
1.12952e-07
4.34773e-08
1.12962e-07
1.64025e-09
1.6472e-09
1.63266e-09
1.64739e-09
4.34837e-08
1.12984e-07
1.6162e-09
1.64029e-09
1.61969e-09
1.64094e-09
1.6398e-09
1.61828e-09
1.6393e-09
4.34839e-08
1.12972e-07
1.61592e-09
1.60779e-09
1.61577e-09
1.12953e-07
4.34772e-08
1.12961e-07
1.64061e-09
1.6474e-09
1.63414e-09
1.64709e-09
4.34834e-08
1.12983e-07
1.61582e-09
1.64129e-09
1.61944e-09
1.64408e-09
1.64079e-09
1.61753e-09
1.64062e-09
4.34834e-08
1.12972e-07
1.61671e-09
1.60875e-09
1.61599e-09
1.12953e-07
4.34775e-08
1.1296e-07
1.64233e-09
1.64667e-09
1.63357e-09
1.6474e-09
4.34836e-08
1.12982e-07
1.61562e-09
1.64508e-09
1.61894e-09
1.64456e-09
1.64108e-09
1.61839e-09
1.64336e-09
4.34838e-08
1.12966e-07
1.61449e-09
1.58375e-09
1.60639e-09
1.12948e-07
4.34777e-08
1.12959e-07
1.64193e-09
1.6473e-09
1.635e-09
1.64866e-09
4.34837e-08
1.12981e-07
1.61603e-09
1.64301e-09
1.62091e-09
1.64293e-09
1.64187e-09
1.62065e-09
1.64199e-09
4.34859e-08
1.12967e-07
1.60491e-09
1.60065e-09
1.60829e-09
1.12948e-07
4.34772e-08
1.12959e-07
1.64278e-09
1.64813e-09
1.63347e-09
1.64786e-09
4.34831e-08
1.12981e-07
1.61715e-09
1.64236e-09
1.62025e-09
1.64094e-09
1.64181e-09
1.61918e-09
1.63889e-09
4.34825e-08
1.12969e-07
1.61226e-09
1.60523e-09
1.60316e-09
1.12951e-07
4.3476e-08
1.1296e-07
1.64161e-09
1.64801e-09
1.63196e-09
1.64751e-09
4.34822e-08
1.12981e-07
1.6171e-09
1.64086e-09
1.61941e-09
1.64033e-09
1.63924e-09
1.61902e-09
1.63886e-09
4.34821e-08
1.12969e-07
1.62138e-09
1.60844e-09
1.61081e-09
1.1295e-07
4.34758e-08
1.12959e-07
1.64035e-09
1.64733e-09
1.63251e-09
1.64752e-09
4.34824e-08
1.12981e-07
1.61634e-09
1.64012e-09
1.62016e-09
1.64044e-09
1.63905e-09
1.61872e-09
1.63899e-09
4.34825e-08
1.12969e-07
1.62777e-09
1.60908e-09
1.6152e-09
1.12949e-07
4.34761e-08
1.12959e-07
1.64003e-09
1.64705e-09
1.63262e-09
1.64807e-09
4.34824e-08
1.12981e-07
1.61615e-09
1.63998e-09
1.62033e-09
1.64096e-09
1.63893e-09
1.61902e-09
1.63942e-09
4.34826e-08
1.12969e-07
1.61498e-09
1.60912e-09
1.61599e-09
1.12949e-07
4.34758e-08
1.12959e-07
1.64058e-09
1.64761e-09
1.63243e-09
1.64764e-09
4.34824e-08
1.12981e-07
1.61676e-09
1.64049e-09
1.62015e-09
1.64049e-09
1.63905e-09
1.61866e-09
1.63894e-09
4.34825e-08
1.12969e-07
1.61472e-09
1.60894e-09
1.61578e-09
1.1295e-07
4.3476e-08
1.12959e-07
1.64032e-09
1.6475e-09
1.63256e-09
1.64773e-09
4.34823e-08
1.12981e-07
1.61649e-09
1.64038e-09
1.62027e-09
1.64061e-09
1.63964e-09
1.61867e-09
1.63896e-09
4.34825e-08
1.12969e-07
1.61547e-09
1.60907e-09
1.61567e-09
1.12949e-07
4.3476e-08
1.1296e-07
1.64051e-09
1.64722e-09
1.63206e-09
1.64746e-09
4.34824e-08
1.12982e-07
1.61666e-09
1.64015e-09
1.61977e-09
1.6403e-09
1.63901e-09
1.61896e-09
1.63905e-09
4.34825e-08
1.12969e-07
1.6143e-09
1.61019e-09
1.61621e-09
1.12949e-07
4.34759e-08
1.1296e-07
1.64018e-09
1.64741e-09
1.63244e-09
1.64741e-09
4.34823e-08
1.12982e-07
1.61636e-09
1.64035e-09
1.62014e-09
1.6403e-09
1.63931e-09
1.61862e-09
1.63885e-09
4.34825e-08
1.1297e-07
1.61523e-09
1.60815e-09
1.61542e-09
1.1295e-07
4.3476e-08
1.1296e-07
1.64023e-09
1.6475e-09
1.63228e-09
1.64793e-09
4.34823e-08
1.12982e-07
1.6164e-09
1.64035e-09
1.62001e-09
1.64081e-09
1.63949e-09
1.61911e-09
1.63924e-09
4.34825e-08
1.12969e-07
1.61558e-09
1.60869e-09
1.61583e-09
1.1295e-07
4.34759e-08
1.12959e-07
1.64035e-09
1.64754e-09
1.63229e-09
1.64778e-09
4.34825e-08
1.12981e-07
1.61655e-09
1.64042e-09
1.62e-09
1.64059e-09
1.63907e-09
1.61878e-09
1.63893e-09
4.34827e-08
1.12969e-07
1.61512e-09
1.60836e-09
1.61552e-09
1.12949e-07
4.3476e-08
1.1296e-07
1.64026e-09
1.64777e-09
1.63289e-09
1.6479e-09
4.34824e-08
1.12982e-07
1.61644e-09
1.64057e-09
1.62061e-09
1.64076e-09
1.63944e-09
1.6191e-09
1.6393e-09
4.34826e-08
1.1297e-07
1.61553e-09
1.60872e-09
1.61592e-09
1.1295e-07
4.3476e-08
1.12959e-07
1.64048e-09
1.64754e-09
1.63241e-09
1.64734e-09
4.34823e-08
1.12982e-07
1.61666e-09
1.6404e-09
1.62044e-09
1.64023e-09
1.63919e-09
1.61905e-09
1.63912e-09
4.34825e-08
1.12969e-07
1.61528e-09
1.60862e-09
1.61571e-09
1.12949e-07
4.34761e-08
1.1296e-07
1.64043e-09
1.64734e-09
1.63227e-09
1.64765e-09
4.34824e-08
1.12982e-07
1.61683e-09
1.64027e-09
1.62725e-09
1.64046e-09
1.63961e-09
1.61917e-09
1.63969e-09
4.34826e-08
1.12969e-07
1.61567e-09
1.60876e-09
1.61635e-09
1.12949e-07
4.34758e-08
1.1296e-07
1.64057e-09
1.64762e-09
1.63233e-09
1.64773e-09
4.34823e-08
1.12982e-07
1.60943e-09
1.64042e-09
1.62751e-09
1.64063e-09
1.6395e-09
1.61909e-09
1.63902e-09
4.34825e-08
1.12969e-07
1.61566e-09
1.60867e-09
1.61561e-09
1.12949e-07
4.34756e-08
1.1296e-07
1.64065e-09
1.64793e-09
1.63282e-09
1.64781e-09
4.34822e-08
1.12982e-07
1.60957e-09
1.64076e-09
1.62799e-09
1.6411e-09
1.63923e-09
1.61901e-09
1.63937e-09
4.34824e-08
1.12968e-07
1.61528e-09
1.60862e-09
1.61594e-09
1.1295e-07
4.34756e-08
1.12959e-07
1.64075e-09
1.64766e-09
1.63287e-09
1.64783e-09
4.34821e-08
1.12982e-07
1.60969e-09
1.64277e-09
1.62802e-09
1.64546e-09
1.63961e-09
1.61905e-09
1.639e-09
4.34819e-08
1.12998e-07
1.61567e-09
1.60875e-09
1.61565e-09
1.1295e-07
4.34757e-08
1.12959e-07
1.64104e-09
1.6478e-09
1.63259e-09
1.64796e-09
4.34822e-08
1.12981e-07
1.61e-09
1.63569e-09
1.6277e-09
1.6457e-09
1.63941e-09
1.61907e-09
1.6389e-09
4.34768e-08
1.12998e-07
1.61556e-09
1.60881e-09
1.61551e-09
1.12949e-07
4.34758e-08
1.1296e-07
1.64014e-09
1.64744e-09
1.63235e-09
1.64715e-09
4.34823e-08
1.12982e-07
1.6091e-09
1.6354e-09
1.62743e-09
1.64495e-09
1.63928e-09
1.61895e-09
1.63904e-09
4.34768e-08
1.12998e-07
1.61535e-09
1.60848e-09
1.61564e-09
1.12949e-07
4.34759e-08
1.1296e-07
1.64004e-09
1.64691e-09
1.63208e-09
1.64762e-09
4.34821e-08
1.12982e-07
1.60897e-09
1.63491e-09
1.62708e-09
1.64768e-09
1.63904e-09
1.6191e-09
1.63943e-09
4.34767e-08
1.12996e-07
1.61497e-09
1.60892e-09
1.61585e-09
1.12949e-07
4.34755e-08
1.1296e-07
1.64057e-09
1.64734e-09
1.63292e-09
1.64797e-09
4.34822e-08
1.12982e-07
1.60934e-09
1.63702e-09
1.62765e-09
1.64044e-09
1.63976e-09
1.61892e-09
1.64064e-09
4.34812e-08
1.12979e-07
1.61575e-09
1.60846e-09
1.61768e-09
1.1295e-07
4.34752e-08
1.12959e-07
1.64164e-09
1.64805e-09
1.64597e-09
1.66092e-09
4.34819e-08
1.1298e-07
1.61014e-09
1.64019e-09
1.6372e-09
1.66216e-09
1.64575e-09
1.63401e-09
1.64998e-09
4.34822e-08
1.12966e-07
1.62287e-09
1.6258e-09
1.62817e-09
1.12943e-07
4.34751e-08
1.12927e-07
1.67441e-09
1.66608e-09
2.13805e-09
2.13555e-09
4.34816e-08
1.12925e-07
1.62056e-09
1.68168e-09
2.16967e-09
2.17087e-09
1.66178e-09
2.10048e-09
2.08152e-09
4.34822e-08
1.12914e-07
1.63614e-09
2.13299e-09
2.07578e-09
1.12869e-07
4.35614e-08
1.11773e-07
2.76676e-09
2.80617e-09
1.59206e-08
1.5857e-08
4.35528e-08
1.1177e-07
2.79811e-09
2.75329e-09
1.59267e-08
1.59772e-08
2.75221e-09
1.58477e-08
1.58862e-08
4.35528e-08
1.11799e-07
2.77001e-09
1.59116e-08
1.58336e-08
1.11734e-07
4.42733e-08
1.43418e-07
3.39428e-08
3.3909e-08
1.66995e-07
1.67143e-07
4.42911e-08
1.43407e-07
3.391e-08
3.40575e-08
1.67457e-07
1.67282e-07
3.40144e-08
1.67375e-07
1.67202e-07
4.43323e-08
1.43431e-07
3.40812e-08
1.67394e-07
1.67526e-07
1.43393e-07
1.56396e-07
1.22376e-07
1.22341e-07
1.5634e-07
1.22425e-07
1.22386e-07
2.26909e-07
2.27004e-07
2.27019e-07
1.22402e-07
1.56381e-07
1.22451e-07
9.22405e-08
2.53222e-07
1.72317e-07
1.7238e-07
3.88618e-07
3.14119e-07
1.93101e-07
2.14623e-07
3.88562e-07
3.1414e-07
2.14614e-07
1.93033e-07
3.7938e-07
2.14908e-07
2.14919e-07
8.41556e-07
0.000118173
8.79504e-07
0.000121838
0.000247198
0.000255218
8.41967e-07
0.000118191
8.78585e-07
0.000121857
4.00272e-07
4.00141e-07
4.00248e-07
5.42684e-08
5.42064e-08
5.42376e-08
5.43018e-08
1.14977e-07
8.7723e-07
4.11186e-07
2.45788e-07
1.0109e-07
1.1489e-06
2.28198e-07
0.000247191
0.000255203
1.15171e-07
4.1107e-07
8.76895e-07
2.45511e-07
1.01123e-07
2.28067e-07
1.14879e-06
2.6241e-06
2.62373e-06
1.15747e-07
2.43658e-06
2.4375e-06
8.32874e-07
0.00012178
8.30504e-07
0.000121781
0.000255207
0.000255204
8.32991e-07
0.000121798
8.30641e-07
0.0001218
2.54414e-08
2.54296e-08
2.54585e-08
3.16182e-09
3.15924e-09