/*--------------------------------*- C++ -*----------------------------------*\
| =========                 |                                                 |
| \\      /  F ield         | OpenFOAM: The Open Source CFD Toolbox           |
|  \\    /   O peration     | Version:  v1912                                 |
|   \\  /    A nd           | Website:  www.openfoam.com                      |
|    \\/     M anipulation  |                                                 |
\*---------------------------------------------------------------------------*/
FoamFile
{
    version     2.0;
    format      ascii;
    class       volScalarField;
    location    "0.4";
    object      p;
}
// * * * * * * * * * * * * * * * * * * * * * * * * * * * * * * * * * * * * * //

dimensions      [0 2 -2 0 0 0 0];


internalField   nonuniform List<scalar> 
171728
(
0.0218419
0.0218454
0.0218454
0.021862
0.0216105
0.0216106
0.0216106
0.0216249
0.0213792
0.0213792
0.0213792
0.0213935
0.0211478
0.0211478
0.0211478
0.0211621
0.0209164
0.0209164
0.0209164
0.0209307
0.020685
0.020685
0.020685
0.0206993
0.0204536
0.0204536
0.0204536
0.0204679
0.0202222
0.0202222
0.0202222
0.0202365
0.0199908
0.0199908
0.0199908
0.0200051
0.0197594
0.0197594
0.0197594
0.0197737
0.019528
0.019528
0.019528
0.0195423
0.0192966
0.0192966
0.0192966
0.0193109
0.0190652
0.0190652
0.0190652
0.0190795
0.0188338
0.0188338
0.0188338
0.0188481
0.0186024
0.0186024
0.0186024
0.0186167
0.018371
0.018371
0.018371
0.0183853
0.0181396
0.0181396
0.0181396
0.0181539
0.0179082
0.0179082
0.0179082
0.0179225
0.0176768
0.0176768
0.0176768
0.0176911
0.0174455
0.0174454
0.0174454
0.0174597
0.0172141
0.017214
0.017214
0.0172283
0.0169827
0.0169826
0.0169826
0.0169969
0.0167513
0.0167512
0.0167512
0.0167655
0.0165199
0.0165198
0.0165198
0.0165341
0.0162885
0.0162884
0.0162884
0.0163027
0.0160571
0.016057
0.016057
0.0160713
0.0158257
0.0158256
0.0158256
0.0158399
0.0155943
0.0155942
0.0155942
0.0156085
0.0153629
0.0153628
0.0153628
0.0153771
0.0151315
0.0151315
0.0151315
0.0151458
0.0149001
0.0149001
0.0149001
0.0149144
0.0146687
0.0146687
0.0146687
0.014683
0.0144373
0.0144373
0.0144373
0.0144516
0.0142059
0.0142059
0.0142059
0.0142202
0.0139745
0.0139745
0.0139745
0.0139888
0.0137431
0.0137431
0.0137431
0.0137574
0.0135117
0.0135117
0.0135117
0.013526
0.0132803
0.0132803
0.0132803
0.0132946
0.0130489
0.0130489
0.0130489
0.0130632
0.0128175
0.0128175
0.0128175
0.0128318
0.0125861
0.0125861
0.0125861
0.0126004
0.0123548
0.0123547
0.0123547
0.012369
0.0121234
0.0121233
0.0121233
0.0121376
0.011892
0.0118919
0.0118919
0.0119062
0.0116606
0.0116605
0.0116605
0.0116748
0.0114292
0.0114291
0.0114291
0.0114434
0.0111978
0.0111977
0.0111977
0.011212
0.0109664
0.0109663
0.0109663
0.0109806
0.010735
0.010735
0.010735
0.0107492
0.0105036
0.0105036
0.0105036
0.0105179
0.0102722
0.0102722
0.0102722
0.0102865
0.0100408
0.0100408
0.0100408
0.0100551
0.00980941
0.00980937
0.00980937
0.00982367
0.00957801
0.00957798
0.00957798
0.00959228
0.00934662
0.00934658
0.00934658
0.00936088
0.00911522
0.00911519
0.00911519
0.00912949
0.00888383
0.00888379
0.00888379
0.00889809
0.00865243
0.0086524
0.0086524
0.0086667
0.00842104
0.008421
0.008421
0.0084353
0.00818964
0.0081896
0.0081896
0.0082039
0.00795824
0.00795821
0.00795821
0.0079725
0.00772685
0.00772681
0.00772681
0.00774111
0.00749545
0.00749541
0.00749541
0.00750971
0.00726405
0.00726401
0.00726401
0.00727831
0.00703265
0.00703261
0.00703261
0.00704691
0.00680125
0.00680121
0.00680122
0.00681551
0.00656985
0.00656982
0.00656982
0.00658412
0.00633846
0.00633842
0.00633842
0.00635272
0.00610706
0.00610702
0.00610702
0.00612132
0.00587566
0.00587562
0.00587562
0.00588992
0.00564426
0.00564423
0.00564423
0.00565853
0.00541287
0.00541283
0.00541283
0.00542713
0.00518147
0.00518144
0.00518144
0.00519573
0.00495008
0.00495004
0.00495004
0.00496434
0.00471868
0.00471864
0.00471864
0.00473294
0.00448728
0.00448725
0.00448725
0.00450155
0.00425589
0.00425585
0.00425585
0.00427015
0.00402449
0.00402445
0.00402445
0.00403875
0.00379309
0.00379305
0.00379305
0.00380735
0.00356169
0.00356165
0.00356166
0.00357595
0.00333029
0.00333026
0.00333026
0.00334456
0.00309889
0.00309886
0.00309886
0.00311316
0.0028675
0.00286746
0.00286746
0.00288176
0.0026361
0.00263606
0.00263606
0.00265036
0.0024047
0.00240466
0.00240466
0.00241896
0.0021733
0.00217326
0.00217326
0.00218756
0.0019419
0.00194186
0.00194186
0.00195616
0.0017105
0.00171047
0.00171047
0.00172476
0.00147911
0.00147907
0.00147907
0.00149337
0.00124772
0.00124768
0.00124768
0.00126198
0.00101632
0.00101628
0.00101628
0.00103058
0.000784921
0.000784886
0.000784886
0.000799186
0.000553544
0.000553505
0.000553504
0.000567801
0.000322726
0.000322355
0.000322345
0.000336515
0.0001003
0.000111074
0.000111072
0.000112279
0.0218951
0.0218912
0.0218912
0.0218951
0.0218912
0.0218912
0.0218977
0.0218977
0.0218977
0.0218977
0.0218912
0.0218912
0.0218951
0.0218912
0.0218912
0.0218951
0.021862
0.0216541
0.0218454
0.0218454
0.0216684
0.0216684
0.021862
0.0216541
0.0218454
0.0218454
0.0216684
0.0216684
0.0218454
0.0216684
0.0216684
0.021862
0.0216541
0.0218454
0.0216684
0.0216684
0.0216541
0.0216249
0.0214227
0.0216106
0.0216106
0.021437
0.021437
0.0216249
0.0214227
0.0216106
0.0216106
0.021437
0.021437
0.0216106
0.021437
0.021437
0.0216249
0.0214227
0.0216106
0.021437
0.021437
0.0214227
0.0213935
0.0211913
0.0213792
0.0213792
0.0212056
0.0212056
0.0213935
0.0211913
0.0213792
0.0213792
0.0212056
0.0212056
0.0213792
0.0212056
0.0212056
0.0213935
0.0211913
0.0213792
0.0212056
0.0212056
0.0211913
0.0211621
0.0209599
0.0211478
0.0211478
0.0209742
0.0209742
0.0211621
0.0209599
0.0211478
0.0211478
0.0209742
0.0209742
0.0211478
0.0209742
0.0209742
0.0211621
0.0209599
0.0211478
0.0209742
0.0209742
0.0209599
0.0209307
0.0207285
0.0209164
0.0209164
0.0207428
0.0207428
0.0209307
0.0207285
0.0209164
0.0209164
0.0207428
0.0207428
0.0209164
0.0207428
0.0207428
0.0209307
0.0207285
0.0209164
0.0207428
0.0207428
0.0207285
0.0206993
0.0204971
0.020685
0.020685
0.0205114
0.0205114
0.0206993
0.0204971
0.020685
0.020685
0.0205114
0.0205114
0.020685
0.0205114
0.0205114
0.0206993
0.0204971
0.020685
0.0205114
0.0205114
0.0204971
0.0204679
0.0202657
0.0204536
0.0204536
0.02028
0.02028
0.0204679
0.0202657
0.0204536
0.0204536
0.02028
0.02028
0.0204536
0.02028
0.02028
0.0204679
0.0202657
0.0204536
0.02028
0.02028
0.0202657
0.0202365
0.0200343
0.0202222
0.0202222
0.0200486
0.0200486
0.0202365
0.0200343
0.0202222
0.0202222
0.0200486
0.0200486
0.0202222
0.0200486
0.0200486
0.0202365
0.0200343
0.0202222
0.0200486
0.0200486
0.0200343
0.0200051
0.0198029
0.0199908
0.0199908
0.0198172
0.0198172
0.0200051
0.0198029
0.0199908
0.0199908
0.0198172
0.0198172
0.0199908
0.0198172
0.0198172
0.0200051
0.0198029
0.0199908
0.0198172
0.0198172
0.0198029
0.0197737
0.0195715
0.0197594
0.0197594
0.0195858
0.0195858
0.0197737
0.0195716
0.0197594
0.0197594
0.0195858
0.0195858
0.0197594
0.0195858
0.0195858
0.0197737
0.0195715
0.0197594
0.0195858
0.0195858
0.0195716
0.0195423
0.0193402
0.019528
0.019528
0.0193544
0.0193544
0.0195423
0.0193402
0.019528
0.019528
0.0193544
0.0193544
0.019528
0.0193544
0.0193544
0.0195423
0.0193402
0.019528
0.0193544
0.0193544
0.0193402
0.0193109
0.0191088
0.0192966
0.0192966
0.019123
0.019123
0.0193109
0.0191088
0.0192966
0.0192966
0.019123
0.019123
0.0192966
0.019123
0.019123
0.0193109
0.0191088
0.0192966
0.019123
0.019123
0.0191088
0.0190795
0.0188774
0.0190652
0.0190652
0.0188916
0.0188916
0.0190795
0.0188774
0.0190652
0.0190652
0.0188916
0.0188916
0.0190652
0.0188916
0.0188916
0.0190795
0.0188774
0.0190652
0.0188916
0.0188916
0.0188774
0.0188481
0.018646
0.0188338
0.0188338
0.0186602
0.0186602
0.0188481
0.018646
0.0188338
0.0188338
0.0186602
0.0186602
0.0188338
0.0186602
0.0186602
0.0188481
0.018646
0.0188338
0.0186602
0.0186602
0.018646
0.0186167
0.0184146
0.0186024
0.0186024
0.0184288
0.0184288
0.0186167
0.0184146
0.0186024
0.0186024
0.0184288
0.0184288
0.0186024
0.0184288
0.0184288
0.0186167
0.0184146
0.0186024
0.0184288
0.0184288
0.0184146
0.0183853
0.0181832
0.018371
0.018371
0.0181974
0.0181974
0.0183853
0.0181832
0.018371
0.018371
0.0181974
0.0181974
0.018371
0.0181974
0.0181974
0.0183853
0.0181832
0.018371
0.0181974
0.0181974
0.0181832
0.0181539
0.0179518
0.0181396
0.0181396
0.0179661
0.0179661
0.0181539
0.0179518
0.0181396
0.0181396
0.0179661
0.0179661
0.0181396
0.0179661
0.0179661
0.0181539
0.0179518
0.0181396
0.0179661
0.0179661
0.0179518
0.0179225
0.0177204
0.0179082
0.0179082
0.0177347
0.0177347
0.0179225
0.0177204
0.0179082
0.0179082
0.0177347
0.0177347
0.0179082
0.0177347
0.0177347
0.0179225
0.0177204
0.0179082
0.0177347
0.0177347
0.0177204
0.0176911
0.017489
0.0176768
0.0176768
0.0175033
0.0175033
0.0176911
0.017489
0.0176768
0.0176768
0.0175033
0.0175033
0.0176768
0.0175033
0.0175033
0.0176911
0.017489
0.0176768
0.0175033
0.0175033
0.017489
0.0174597
0.0172576
0.0174454
0.0174454
0.0172719
0.0172719
0.0174597
0.0172576
0.0174454
0.0174454
0.0172719
0.0172719
0.0174454
0.0172719
0.0172719
0.0174597
0.0172576
0.0174454
0.0172719
0.0172719
0.0172576
0.0172283
0.0170262
0.017214
0.017214
0.0170405
0.0170405
0.0172283
0.0170262
0.017214
0.017214
0.0170405
0.0170405
0.017214
0.0170405
0.0170405
0.0172283
0.0170262
0.017214
0.0170405
0.0170405
0.0170262
0.0169969
0.0167948
0.0169826
0.0169826
0.0168091
0.0168091
0.0169969
0.0167948
0.0169826
0.0169826
0.0168091
0.0168091
0.0169826
0.0168091
0.0168091
0.0169969
0.0167948
0.0169826
0.0168091
0.0168091
0.0167948
0.0167655
0.0165634
0.0167512
0.0167512
0.0165777
0.0165777
0.0167655
0.0165634
0.0167512
0.0167512
0.0165777
0.0165777
0.0167512
0.0165777
0.0165777
0.0167655
0.0165634
0.0167512
0.0165777
0.0165777
0.0165634
0.0165341
0.016332
0.0165198
0.0165198
0.0163463
0.0163463
0.0165341
0.016332
0.0165198
0.0165198
0.0163463
0.0163463
0.0165198
0.0163463
0.0163463
0.0165341
0.016332
0.0165198
0.0163463
0.0163463
0.016332
0.0163027
0.0161006
0.0162884
0.0162884
0.0161149
0.0161149
0.0163027
0.0161006
0.0162884
0.0162884
0.0161149
0.0161149
0.0162884
0.0161149
0.0161149
0.0163027
0.0161006
0.0162884
0.0161149
0.0161149
0.0161006
0.0160713
0.0158692
0.016057
0.016057
0.0158835
0.0158835
0.0160713
0.0158692
0.016057
0.016057
0.0158835
0.0158835
0.016057
0.0158835
0.0158835
0.0160713
0.0158692
0.016057
0.0158835
0.0158835
0.0158692
0.0158399
0.0156378
0.0158256
0.0158256
0.0156521
0.0156521
0.0158399
0.0156378
0.0158256
0.0158256
0.0156521
0.0156521
0.0158256
0.0156521
0.0156521
0.0158399
0.0156378
0.0158256
0.0156521
0.0156521
0.0156378
0.0156085
0.0154064
0.0155942
0.0155942
0.0154207
0.0154207
0.0156085
0.0154064
0.0155942
0.0155942
0.0154207
0.0154207
0.0155942
0.0154207
0.0154207
0.0156085
0.0154064
0.0155942
0.0154207
0.0154207
0.0154064
0.0153771
0.015175
0.0153628
0.0153628
0.0151893
0.0151893
0.0153771
0.015175
0.0153628
0.0153628
0.0151893
0.0151893
0.0153628
0.0151893
0.0151893
0.0153771
0.015175
0.0153628
0.0151893
0.0151893
0.015175
0.0151458
0.0149436
0.0151315
0.0151315
0.0149579
0.0149579
0.0151458
0.0149436
0.0151315
0.0151315
0.0149579
0.0149579
0.0151315
0.0149579
0.0149579
0.0151458
0.0149436
0.0151315
0.0149579
0.0149579
0.0149436
0.0149144
0.0147122
0.0149001
0.0149001
0.0147265
0.0147265
0.0149144
0.0147122
0.0149001
0.0149001
0.0147265
0.0147265
0.0149001
0.0147265
0.0147265
0.0149144
0.0147122
0.0149001
0.0147265
0.0147265
0.0147122
0.014683
0.0144808
0.0146687
0.0146687
0.0144951
0.0144951
0.014683
0.0144808
0.0146687
0.0146687
0.0144951
0.0144951
0.0146687
0.0144951
0.0144951
0.014683
0.0144808
0.0146687
0.0144951
0.0144951
0.0144808
0.0144516
0.0142494
0.0144373
0.0144373
0.0142637
0.0142637
0.0144516
0.0142494
0.0144373
0.0144373
0.0142637
0.0142637
0.0144373
0.0142637
0.0142637
0.0144516
0.0142494
0.0144373
0.0142637
0.0142637
0.0142495
0.0142202
0.0140181
0.0142059
0.0142059
0.0140323
0.0140323
0.0142202
0.0140181
0.0142059
0.0142059
0.0140323
0.0140323
0.0142059
0.0140323
0.0140323
0.0142202
0.0140181
0.0142059
0.0140323
0.0140323
0.0140181
0.0139888
0.0137867
0.0139745
0.0139745
0.0138009
0.0138009
0.0139888
0.0137867
0.0139745
0.0139745
0.0138009
0.0138009
0.0139745
0.0138009
0.0138009
0.0139888
0.0137867
0.0139745
0.0138009
0.0138009
0.0137867
0.0137574
0.0135553
0.0137431
0.0137431
0.0135695
0.0135695
0.0137574
0.0135553
0.0137431
0.0137431
0.0135695
0.0135695
0.0137431
0.0135695
0.0135695
0.0137574
0.0135553
0.0137431
0.0135695
0.0135695
0.0135553
0.013526
0.0133239
0.0135117
0.0135117
0.0133381
0.0133381
0.013526
0.0133239
0.0135117
0.0135117
0.0133381
0.0133381
0.0135117
0.0133381
0.0133381
0.013526
0.0133239
0.0135117
0.0133381
0.0133381
0.0133239
0.0132946
0.0130925
0.0132803
0.0132803
0.0131068
0.0131068
0.0132946
0.0130925
0.0132803
0.0132803
0.0131068
0.0131068
0.0132803
0.0131068
0.0131068
0.0132946
0.0130925
0.0132803
0.0131068
0.0131068
0.0130925
0.0130632
0.0128611
0.0130489
0.0130489
0.0128754
0.0128754
0.0130632
0.0128611
0.0130489
0.0130489
0.0128754
0.0128754
0.0130489
0.0128754
0.0128754
0.0130632
0.0128611
0.0130489
0.0128754
0.0128754
0.0128611
0.0128318
0.0126297
0.0128175
0.0128175
0.012644
0.012644
0.0128318
0.0126297
0.0128175
0.0128175
0.012644
0.012644
0.0128175
0.012644
0.012644
0.0128318
0.0126297
0.0128175
0.012644
0.012644
0.0126297
0.0126004
0.0123983
0.0125861
0.0125861
0.0124126
0.0124126
0.0126004
0.0123983
0.0125861
0.0125861
0.0124126
0.0124126
0.0125861
0.0124126
0.0124126
0.0126004
0.0123983
0.0125861
0.0124126
0.0124126
0.0123983
0.012369
0.0121669
0.0123547
0.0123547
0.0121812
0.0121812
0.012369
0.0121669
0.0123547
0.0123547
0.0121812
0.0121812
0.0123547
0.0121812
0.0121812
0.012369
0.0121669
0.0123547
0.0121812
0.0121812
0.0121669
0.0121376
0.0119355
0.0121233
0.0121233
0.0119498
0.0119498
0.0121376
0.0119355
0.0121233
0.0121233
0.0119498
0.0119498
0.0121233
0.0119498
0.0119498
0.0121376
0.0119355
0.0121233
0.0119498
0.0119498
0.0119355
0.0119062
0.0117041
0.0118919
0.0118919
0.0117184
0.0117184
0.0119062
0.0117041
0.0118919
0.0118919
0.0117184
0.0117184
0.0118919
0.0117184
0.0117184
0.0119062
0.0117041
0.0118919
0.0117184
0.0117184
0.0117041
0.0116748
0.0114727
0.0116605
0.0116605
0.011487
0.011487
0.0116748
0.0114727
0.0116605
0.0116605
0.011487
0.011487
0.0116605
0.011487
0.011487
0.0116748
0.0114727
0.0116605
0.011487
0.011487
0.0114727
0.0114434
0.0112413
0.0114291
0.0114291
0.0112556
0.0112556
0.0114434
0.0112413
0.0114291
0.0114291
0.0112556
0.0112556
0.0114291
0.0112556
0.0112556
0.0114434
0.0112413
0.0114291
0.0112556
0.0112556
0.0112413
0.011212
0.0110099
0.0111977
0.0111977
0.0110242
0.0110242
0.011212
0.0110099
0.0111977
0.0111977
0.0110242
0.0110242
0.0111977
0.0110242
0.0110242
0.011212
0.0110099
0.0111977
0.0110242
0.0110242
0.0110099
0.0109806
0.0107785
0.0109663
0.0109663
0.0107928
0.0107928
0.0109806
0.0107785
0.0109663
0.0109663
0.0107928
0.0107928
0.0109663
0.0107928
0.0107928
0.0109806
0.0107785
0.0109663
0.0107928
0.0107928
0.0107785
0.0107493
0.0105471
0.010735
0.010735
0.0105614
0.0105614
0.0107493
0.0105471
0.010735
0.010735
0.0105614
0.0105614
0.010735
0.0105614
0.0105614
0.0107493
0.0105471
0.010735
0.0105614
0.0105614
0.0105471
0.0105179
0.0103157
0.0105036
0.0105036
0.01033
0.01033
0.0105179
0.0103157
0.0105036
0.0105036
0.01033
0.01033
0.0105036
0.01033
0.01033
0.0105179
0.0103157
0.0105036
0.01033
0.01033
0.0103157
0.0102865
0.0100843
0.0102722
0.0102722
0.0100986
0.0100986
0.0102865
0.0100843
0.0102722
0.0102722
0.0100986
0.0100986
0.0102722
0.0100986
0.0100986
0.0102865
0.0100843
0.0102722
0.0100986
0.0100986
0.0100843
0.0100551
0.00985295
0.0100408
0.0100408
0.00986722
0.00986722
0.0100551
0.00985295
0.0100408
0.0100408
0.00986722
0.00986722
0.0100408
0.00986722
0.00986722
0.0100551
0.00985295
0.0100408
0.00986722
0.00986722
0.00985295
0.00982367
0.00962155
0.00980937
0.00980937
0.00963582
0.00963582
0.00982367
0.00962155
0.00980937
0.00980937
0.00963582
0.00963582
0.00980937
0.00963582
0.00963582
0.00982367
0.00962155
0.00980937
0.00963582
0.00963582
0.00962155
0.00959228
0.00939016
0.00957798
0.00957798
0.00940443
0.00940443
0.00959228
0.00939016
0.00957798
0.00957798
0.00940443
0.00940443
0.00957798
0.00940443
0.00940443
0.00959228
0.00939016
0.00957798
0.00940443
0.00940443
0.00939016
0.00936088
0.00915876
0.00934658
0.00934658
0.00917304
0.00917304
0.00936088
0.00915876
0.00934658
0.00934658
0.00917304
0.00917304
0.00934658
0.00917304
0.00917304
0.00936088
0.00915876
0.00934658
0.00917304
0.00917304
0.00915876
0.00912949
0.00892737
0.00911519
0.00911519
0.00894164
0.00894164
0.00912949
0.00892737
0.00911519
0.00911519
0.00894164
0.00894164
0.00911519
0.00894164
0.00894164
0.00912949
0.00892737
0.00911519
0.00894164
0.00894164
0.00892737
0.00889809
0.00869597
0.00888379
0.00888379
0.00871025
0.00871024
0.00889809
0.00869597
0.00888379
0.00888379
0.00871025
0.00871025
0.00888379
0.00871025
0.00871025
0.00889809
0.00869597
0.00888379
0.00871025
0.00871024
0.00869597
0.0086667
0.00846458
0.0086524
0.0086524
0.00847885
0.00847885
0.0086667
0.00846457
0.0086524
0.0086524
0.00847885
0.00847885
0.0086524
0.00847885
0.00847885
0.0086667
0.00846458
0.0086524
0.00847885
0.00847885
0.00846458
0.0084353
0.00823318
0.008421
0.008421
0.00824745
0.00824745
0.0084353
0.00823318
0.008421
0.008421
0.00824745
0.00824745
0.008421
0.00824745
0.00824745
0.0084353
0.00823318
0.008421
0.00824745
0.00824745
0.00823318
0.0082039
0.00800178
0.0081896
0.0081896
0.00801606
0.00801605
0.0082039
0.00800178
0.0081896
0.0081896
0.00801606
0.00801606
0.0081896
0.00801606
0.00801606
0.0082039
0.00800178
0.0081896
0.00801606
0.00801605
0.00800178
0.00797251
0.00777039
0.00795821
0.00795821
0.00778466
0.00778466
0.00797251
0.00777038
0.00795821
0.00795821
0.00778466
0.00778466
0.00795821
0.00778466
0.00778466
0.00797251
0.00777039
0.0079582
0.00778466
0.00778466
0.00777039
0.00774111
0.00753899
0.00772681
0.00772681
0.00755326
0.00755326
0.00774111
0.00753899
0.00772681
0.00772681
0.00755326
0.00755326
0.00772681
0.00755326
0.00755326
0.00774111
0.00753899
0.00772681
0.00755326
0.00755326
0.00753899
0.00750971
0.00730759
0.00749541
0.00749541
0.00732186
0.00732186
0.00750971
0.00730759
0.00749541
0.00749541
0.00732186
0.00732186
0.00749541
0.00732186
0.00732186
0.00750971
0.00730759
0.00749541
0.00732186
0.00732186
0.00730759
0.00727831
0.00707619
0.00726401
0.00726401
0.00709046
0.00709046
0.00727831
0.00707619
0.00726401
0.00726401
0.00709046
0.00709046
0.00726401
0.00709046
0.00709046
0.00727831
0.00707619
0.00726401
0.00709046
0.00709046
0.00707619
0.00704691
0.00684479
0.00703261
0.00703261
0.00685906
0.00685906
0.00704691
0.00684479
0.00703261
0.00703261
0.00685906
0.00685906
0.00703261
0.00685906
0.00685906
0.00704691
0.00684479
0.00703261
0.00685906
0.00685906
0.00684479
0.00681552
0.00661339
0.00680121
0.00680121
0.00662767
0.00662766
0.00681552
0.00661339
0.00680121
0.00680122
0.00662767
0.00662767
0.00680121
0.00662767
0.00662767
0.00681552
0.00661339
0.00680121
0.00662767
0.00662766
0.00661339
0.00658412
0.00638199
0.00656982
0.00656982
0.00639627
0.00639627
0.00658412
0.00638199
0.00656982
0.00656982
0.00639627
0.00639627
0.00656982
0.00639627
0.00639627
0.00658412
0.00638199
0.00656981
0.00639627
0.00639627
0.00638199
0.00635272
0.0061506
0.00633842
0.00633842
0.00616487
0.00616487
0.00635272
0.0061506
0.00633842
0.00633842
0.00616487
0.00616487
0.00633842
0.00616487
0.00616487
0.00635272
0.0061506
0.00633842
0.00616487
0.00616487
0.0061506
0.00612132
0.0059192
0.00610702
0.00610702
0.00593347
0.00593347
0.00612132
0.0059192
0.00610702
0.00610702
0.00593347
0.00593347
0.00610702
0.00593347
0.00593347
0.00612132
0.0059192
0.00610702
0.00593347
0.00593347
0.0059192
0.00588992
0.0056878
0.00587562
0.00587562
0.00570208
0.00570208
0.00588992
0.0056878
0.00587562
0.00587562
0.00570208
0.00570208
0.00587562
0.00570208
0.00570208
0.00588992
0.0056878
0.00587562
0.00570208
0.00570208
0.0056878
0.00565853
0.00545641
0.00564423
0.00564423
0.00547068
0.00547068
0.00565853
0.00545641
0.00564423
0.00564423
0.00547068
0.00547068
0.00564423
0.00547068
0.00547068
0.00565853
0.00545641
0.00564423
0.00547068
0.00547068
0.00545641
0.00542713
0.00522501
0.00541283
0.00541283
0.00523928
0.00523928
0.00542713
0.00522501
0.00541283
0.00541283
0.00523928
0.00523928
0.00541283
0.00523928
0.00523928
0.00542713
0.00522501
0.00541283
0.00523928
0.00523928
0.00522501
0.00519574
0.00499362
0.00518144
0.00518143
0.00500789
0.00500789
0.00519574
0.00499361
0.00518144
0.00518144
0.00500789
0.00500789
0.00518144
0.00500789
0.00500789
0.00519574
0.00499362
0.00518143
0.00500789
0.00500789
0.00499361
0.00496434
0.00476222
0.00495004
0.00495004
0.00477649
0.00477649
0.00496434
0.00476222
0.00495004
0.00495004
0.00477649
0.00477649
0.00495004
0.00477649
0.00477649
0.00496434
0.00476222
0.00495004
0.00477649
0.00477649
0.00476222
0.00473294
0.00453082
0.00471864
0.00471864
0.0045451
0.00454509
0.00473294
0.00453082
0.00471864
0.00471864
0.0045451
0.0045451
0.00471864
0.0045451
0.0045451
0.00473294
0.00453082
0.00471864
0.0045451
0.00454509
0.00453082
0.00450155
0.00429943
0.00448725
0.00448725
0.0043137
0.0043137
0.00450155
0.00429943
0.00448725
0.00448725
0.0043137
0.0043137
0.00448725
0.0043137
0.0043137
0.00450155
0.00429943
0.00448724
0.0043137
0.0043137
0.00429943
0.00427015
0.00406803
0.00425585
0.00425585
0.0040823
0.0040823
0.00427015
0.00406803
0.00425585
0.00425585
0.0040823
0.0040823
0.00425585
0.0040823
0.0040823
0.00427015
0.00406803
0.00425585
0.0040823
0.0040823
0.00406803
0.00403875
0.00383663
0.00402445
0.00402445
0.0038509
0.0038509
0.00403875
0.00383663
0.00402445
0.00402445
0.0038509
0.0038509
0.00402445
0.0038509
0.0038509
0.00403875
0.00383663
0.00402445
0.0038509
0.0038509
0.00383663
0.00380736
0.00360523
0.00379305
0.00379305
0.00361951
0.0036195
0.00380735
0.00360523
0.00379305
0.00379305
0.00361951
0.00361951
0.00379305
0.0036195
0.0036195
0.00380736
0.00360523
0.00379305
0.00361951
0.0036195
0.00360523
0.00357596
0.00337383
0.00356166
0.00356165
0.00338811
0.00338811
0.00357596
0.00337383
0.00356166
0.00356166
0.00338811
0.00338811
0.00356165
0.00338811
0.00338811
0.00357596
0.00337383
0.00356165
0.00338811
0.00338811
0.00337383
0.00334456
0.00314243
0.00333026
0.00333026
0.00315671
0.00315671
0.00334456
0.00314243
0.00333026
0.00333026
0.00315671
0.00315671
0.00333026
0.00315671
0.00315671
0.00334456
0.00314243
0.00333026
0.00315671
0.00315671
0.00314243
0.00311316
0.00291103
0.00309886
0.00309886
0.00292531
0.00292531
0.00311316
0.00291103
0.00309886
0.00309886
0.00292531
0.00292531
0.00309886
0.00292531
0.00292531
0.00311316
0.00291104
0.00309886
0.00292531
0.00292531
0.00291103
0.00288176
0.00267964
0.00286746
0.00286746
0.00269391
0.00269391
0.00288176
0.00267963
0.00286746
0.00286746
0.00269391
0.00269391
0.00286746
0.00269391
0.00269391
0.00288176
0.00267964
0.00286746
0.00269391
0.00269391
0.00267964
0.00265036
0.00244824
0.00263606
0.00263606
0.00246251
0.00246251
0.00265036
0.00244823
0.00263606
0.00263606
0.00246251
0.00246251
0.00263606
0.00246251
0.00246251
0.00265036
0.00244824
0.00263606
0.00246251
0.00246251
0.00244824
0.00241896
0.00221684
0.00240466
0.00240466
0.00223111
0.00223111
0.00241896
0.00221684
0.00240466
0.00240466
0.00223111
0.00223111
0.00240466
0.00223111
0.00223111
0.00241896
0.00221684
0.00240466
0.00223111
0.00223111
0.00221684
0.00218756
0.00198544
0.00217326
0.00217326
0.00199971
0.00199971
0.00218756
0.00198544
0.00217326
0.00217326
0.00199971
0.00199971
0.00217326
0.00199971
0.00199971
0.00218756
0.00198544
0.00217326
0.00199971
0.00199971
0.00198544
0.00195617
0.00175404
0.00194186
0.00194186
0.00176832
0.00176831
0.00195617
0.00175404
0.00194186
0.00194186
0.00176832
0.00176832
0.00194186
0.00176832
0.00176832
0.00195617
0.00175404
0.00194186
0.00176832
0.00176831
0.00175404
0.00172477
0.00152265
0.00171047
0.00171047
0.00153692
0.00153692
0.00172477
0.00152265
0.00171047
0.00171047
0.00153692
0.00153692
0.00171047
0.00153692
0.00153692
0.00172477
0.00152265
0.00171046
0.00153692
0.00153692
0.00152265
0.00149337
0.00129125
0.00147907
0.00147907
0.00130553
0.00130553
0.00149337
0.00129125
0.00147907
0.00147907
0.00130553
0.00130553
0.00147907
0.00130553
0.00130553
0.00149337
0.00129125
0.00147907
0.00130553
0.00130553
0.00129125
0.00126198
0.00105986
0.00124768
0.00124768
0.00107413
0.00107413
0.00126198
0.00105986
0.00124768
0.00124768
0.00107413
0.00107413
0.00124768
0.00107413
0.00107413
0.00126198
0.00105986
0.00124768
0.00107413
0.00107413
0.00105986
0.00103058
0.000828461
0.00101628
0.00101628
0.000842734
0.000842734
0.00103058
0.000828461
0.00101628
0.00101628
0.000842734
0.000842734
0.00101628
0.000842734
0.000842735
0.00103058
0.000828461
0.00101628
0.000842735
0.000842734
0.000828462
0.000799186
0.00059707
0.000784886
0.000784886
0.000611345
0.000611347
0.000799187
0.000597072
0.000784887
0.000784886
0.000611344
0.000611346
0.000784887
0.000611348
0.000611348
0.000799186
0.000597073
0.000784887
0.000611347
0.000611349
0.000597076
0.000567797
0.000365754
0.000553502
0.000553504
0.000380057
0.000380058
0.000567799
0.000365758
0.000553502
0.000553502
0.00038005
0.00038005
0.000553505
0.000380057
0.000380057
0.000567798
0.000365754
0.000553506
0.000380055
0.000380059
0.00036576
0.000336511
0.000138427
0.000322354
0.000322353
0.000152135
0.000152135
0.000336516
0.000138431
0.00032234
0.000322348
0.00015213
0.000152129
0.000322345
0.000152136
0.000152121
0.000336509
0.000138424
0.00032235
0.000152122
0.000152119
0.000138421
0.000112282
0.000111077
0.000111076
0.000112285
0.000111072
0.000111075
0.000100298
0.000100299
0.000100294
0.00011107
0.000112282
0.000111068
0.0219259
0.0219652
0.0219437
0.0219437
0.0220249
0.0219805
0.0220935
0.0219564
0.0220248
0.0219804
0.0219564
0.0220934
0.0219976
0.0221126
0.0221124
0.0217712
0.0218789
0.0218741
0.021771
0.0217711
0.0217669
0.0217711
0.0218789
0.0218741
0.021771
0.0218419
0.0218419
0.0218419
0.0216683
0.0216683
0.0216683
0.0216683
0.0217713
0.021869
0.0218441
0.0217844
0.0218655
0.0217711
0.0217844
0.0217712
0.0217669
0.0217713
0.0218441
0.0218689
0.0217844
0.0218655
0.0217844
0.0217711
0.0218692
0.0218691
0.0217708
0.0217702
0.0217702
0.0215384
0.0216252
0.0216252
0.0215384
0.0216252
0.0215384
0.0215384
0.0216252
0.0216252
0.0215384
0.0216105
0.0216105
0.0216105
0.021437
0.021437
0.021437
0.021437
0.0215388
0.0216249
0.0216105
0.0215527
0.0216248
0.0215388
0.0215527
0.0216252
0.0215384
0.0215388
0.0216105
0.0216249
0.0215527
0.0216248
0.0215527
0.0215388
0.0216252
0.0216252
0.0215384
0.0215384
0.0215384
0.0213069
0.0213936
0.0213936
0.0213069
0.0213936
0.0213069
0.0213069
0.0213936
0.0213936
0.0213069
0.0213792
0.0213792
0.0213792
0.0212056
0.0212056
0.0212056
0.0212056
0.0213073
0.0213932
0.0213792
0.0213213
0.0213932
0.0213073
0.0213213
0.0213936
0.0213069
0.0213073
0.0213792
0.0213932
0.0213213
0.0213932
0.0213213
0.0213073
0.0213936
0.0213936
0.021307
0.0213069
0.0213069
0.0210755
0.0211622
0.0211622
0.0210755
0.0211622
0.0210755
0.0210755
0.0211622
0.0211622
0.0210755
0.0211478
0.0211478
0.0211478
0.0209743
0.0209743
0.0209743
0.0209743
0.0210759
0.0211618
0.0211478
0.0210899
0.0211618
0.0210759
0.0210899
0.0211622
0.0210755
0.0210759
0.0211478
0.0211618
0.0210899
0.0211618
0.0210899
0.0210759
0.0211622
0.0211622
0.0210756
0.0210755
0.0210755
0.0208441
0.0209308
0.0209308
0.0208441
0.0209308
0.0208441
0.0208441
0.0209308
0.0209308
0.0208441
0.0209164
0.0209164
0.0209164
0.0207429
0.0207429
0.0207429
0.0207429
0.0208445
0.0209304
0.0209164
0.0208585
0.0209304
0.0208445
0.0208585
0.0209308
0.0208441
0.0208445
0.0209164
0.0209304
0.0208585
0.0209304
0.0208585
0.0208445
0.0209308
0.0209308
0.0208442
0.0208441
0.0208441
0.0206127
0.0206994
0.0206994
0.0206127
0.0206994
0.0206127
0.0206127
0.0206994
0.0206994
0.0206127
0.020685
0.020685
0.020685
0.0205115
0.0205115
0.0205115
0.0205115
0.0206131
0.020699
0.020685
0.0206271
0.020699
0.0206131
0.0206271
0.0206994
0.0206127
0.0206131
0.020685
0.020699
0.0206271
0.020699
0.0206271
0.0206131
0.0206994
0.0206994
0.0206128
0.0206127
0.0206127
0.0203813
0.020468
0.020468
0.0203813
0.020468
0.0203813
0.0203813
0.020468
0.020468
0.0203813
0.0204536
0.0204536
0.0204536
0.0202801
0.0202801
0.0202801
0.0202801
0.0203817
0.0204676
0.0204536
0.0203957
0.0204676
0.0203817
0.0203957
0.020468
0.0203813
0.0203817
0.0204536
0.0204676
0.0203957
0.0204676
0.0203957
0.0203817
0.020468
0.020468
0.0203814
0.0203813
0.0203813
0.0201499
0.0202366
0.0202366
0.0201499
0.0202366
0.0201499
0.0201499
0.0202366
0.0202366
0.0201499
0.0202222
0.0202222
0.0202222
0.0200487
0.0200487
0.0200487
0.0200487
0.0201503
0.0202362
0.0202222
0.0201643
0.0202362
0.0201503
0.0201643
0.0202366
0.0201499
0.0201503
0.0202222
0.0202362
0.0201643
0.0202362
0.0201643
0.0201503
0.0202366
0.0202366
0.02015
0.0201499
0.0201499
0.0199185
0.0200052
0.0200052
0.0199185
0.0200052
0.0199185
0.0199185
0.0200052
0.0200052
0.0199185
0.0199908
0.0199908
0.0199908
0.0198173
0.0198173
0.0198173
0.0198173
0.0199189
0.0200048
0.0199908
0.0199329
0.0200048
0.0199189
0.0199329
0.0200052
0.0199185
0.0199189
0.0199908
0.0200048
0.0199329
0.0200048
0.0199329
0.0199189
0.0200052
0.0200052
0.0199186
0.0199185
0.0199185
0.0196871
0.0197738
0.0197738
0.0196871
0.0197738
0.0196871
0.0196871
0.0197738
0.0197738
0.0196871
0.0197594
0.0197594
0.0197594
0.0195859
0.0195859
0.0195859
0.0195859
0.0196875
0.0197734
0.0197594
0.0197015
0.0197734
0.0196875
0.0197015
0.0197738
0.0196871
0.0196875
0.0197594
0.0197734
0.0197015
0.0197734
0.0197015
0.0196875
0.0197738
0.0197738
0.0196872
0.0196871
0.0196871
0.0194557
0.0195424
0.0195424
0.0194557
0.0195424
0.0194557
0.0194557
0.0195424
0.0195424
0.0194557
0.019528
0.019528
0.019528
0.0193545
0.0193545
0.0193545
0.0193545
0.0194561
0.019542
0.019528
0.0194701
0.019542
0.0194561
0.0194701
0.0195424
0.0194557
0.0194561
0.019528
0.019542
0.0194701
0.019542
0.0194701
0.0194561
0.0195424
0.0195424
0.0194559
0.0194557
0.0194557
0.0192243
0.019311
0.019311
0.0192243
0.019311
0.0192243
0.0192243
0.019311
0.019311
0.0192243
0.0192966