/*--------------------------------*- C++ -*----------------------------------*\
| =========                 |                                                 |
| \\      /  F ield         | OpenFOAM: The Open Source CFD Toolbox           |
|  \\    /   O peration     | Version:  v1906                                 |
|   \\  /    A nd           | Web:      www.OpenFOAM.com                      |
|    \\/     M anipulation  |                                                 |
\*---------------------------------------------------------------------------*/
FoamFile
{
    version     2.0;
    format      ascii;
    class       volScalarField;
    location    "850";
    object      p;
}
// * * * * * * * * * * * * * * * * * * * * * * * * * * * * * * * * * * * * * //

dimensions      [0 2 -2 0 0 0 0];


internalField   nonuniform List<scalar> 
43024
(
0.000710773
0.000710722
0.000710721
0.000712297
0.000675414
0.000675365
0.000675365
0.000676943
0.000640027
0.000639981
0.000639981
0.000641562
0.000604612
0.000604568
0.000604568
0.000606152
0.000569166
0.000569125
0.000569125
0.000570712
0.000533689
0.000533651
0.000533651
0.00053524
0.00049818
0.000498144
0.000498144
0.000499736
0.000462636
0.000462602
0.000462602
0.000464197
0.000427057
0.000427026
0.000427026
0.000428624
0.000391444
0.000391415
0.000391415
0.000393015
0.000355795
0.000355768
0.000355768
0.000357371
0.000320111
0.000320086
0.000320086
0.000321692
0.000284391
0.000284368
0.000284368
0.000285976
0.000248634
0.000248613
0.000248613
0.000250223
0.00021284
0.000212822
0.000212822
0.000214433
0.000177011
0.000176995
0.000176995
0.000178606
0.000141144
0.000141131
0.000141131
0.000142738
0.000105238
0.000105228
0.000105227
0.000106823
6.93009e-05
6.92848e-05
6.92833e-05
7.08342e-05
3.39053e-05
3.34522e-05
3.34488e-05
3.47024e-05
6.8258e-06
7.84498e-06
7.84031e-06
5.75376e-06
0.000717945
0.000719557
0.000719557
0.000717945
0.000719557
0.000719557
0.000719557
0.000719557
0.000717945
0.000719557
0.000719557
0.000717945
0.000712297
0.000682595
0.000710721
0.000710722
0.000684207
0.000684207
0.000712297
0.000682595
0.000710721
0.000710722
0.000684206
0.000684206
0.000710721
0.000684206
0.000684206
0.000712297
0.000682595
0.000710721
0.000684206
0.000684207
0.000682594
0.000676943
0.000647217
0.000675365
0.000675365
0.000648829
0.000648829
0.000676943
0.000647217
0.000675365
0.000675365
0.000648829
0.000648829
0.000675365
0.000648829
0.000648829
0.000676943
0.000647217
0.000675365
0.000648829
0.000648829
0.000647217
0.000641562
0.000611811
0.000639981
0.000639981
0.000613424
0.000613424
0.000641561
0.000611811
0.000639981
0.000639981
0.000613424
0.000613424
0.000639981
0.000613424
0.000613424
0.000641562
0.000611811
0.000639981
0.000613424
0.000613424
0.000611811
0.000606152
0.000576375
0.000604568
0.000604568
0.000577989
0.000577989
0.000606151
0.000576375
0.000604568
0.000604568
0.000577989
0.000577989
0.000604568
0.000577989
0.000577989
0.000606152
0.000576375
0.000604568
0.000577989
0.000577989
0.000576375
0.000570712
0.000540908
0.000569125
0.000569125
0.000542523
0.000542523
0.000570711
0.000540908
0.000569125
0.000569126
0.000542523
0.000542523
0.000569125
0.000542522
0.000542523
0.000570712
0.000540908
0.000569125
0.000542523
0.000542523
0.000540908
0.00053524
0.000505408
0.000533651
0.000533651
0.000507023
0.000507023
0.00053524
0.000505408
0.000533651
0.000533651
0.000507023
0.000507024
0.000533651
0.000507023
0.000507023
0.00053524
0.000505408
0.000533651
0.000507023
0.000507023
0.000505408
0.000499736
0.000469874
0.000498144
0.000498144
0.000471491
0.000471491
0.000499735
0.000469875
0.000498144
0.000498144
0.000471491
0.000471491
0.000498144
0.000471491
0.000471491
0.000499736
0.000469874
0.000498144
0.000471491
0.000471491
0.000469874
0.000464197
0.000434306
0.000462602
0.000462602
0.000435923
0.000435923
0.000464197
0.000434306
0.000462602
0.000462602
0.000435923
0.000435923
0.000462602
0.000435923
0.000435923
0.000464197
0.000434306
0.000462602
0.000435923
0.000435923
0.000434306
0.000428624
0.000398703
0.000427026
0.000427026
0.00040032
0.00040032
0.000428623
0.000398703
0.000427026
0.000427026
0.00040032
0.00040032
0.000427026
0.00040032
0.00040032
0.000428623
0.000398703
0.000427026
0.00040032
0.00040032
0.000398702
0.000393015
0.000363064
0.000391415
0.000391415
0.000364683
0.000364683
0.000393015
0.000363064
0.000391415
0.000391415
0.000364683
0.000364683
0.000391415
0.000364682
0.000364683
0.000393015
0.000363064
0.000391415
0.000364683
0.000364683
0.000363064
0.000357371
0.000327389
0.000355768
0.000355768
0.000329009
0.000329009
0.000357371
0.00032739
0.000355768
0.000355769
0.000329009
0.000329009
0.000355768
0.000329009
0.000329009
0.000357371
0.000327389
0.000355768
0.000329009
0.000329009
0.000327389
0.000321692
0.000291679
0.000320086
0.000320086
0.000293299
0.000293299
0.000321691
0.000291679
0.000320086
0.000320086
0.000293299
0.000293299
0.000320086
0.000293299
0.000293299
0.000321692
0.000291679
0.000320086
0.000293299
0.000293299
0.000291679
0.000285976
0.000255932
0.000284368
0.000284368
0.000257553
0.000257553
0.000285976
0.000255933
0.000284368
0.000284368
0.000257553
0.000257553
0.000284368
0.000257553
0.000257553
0.000285976
0.000255932
0.000284368
0.000257553
0.000257553
0.000255932
0.000250223
0.000220149
0.000248613
0.000248613
0.000221769
0.000221769
0.000250223
0.000220149
0.000248613
0.000248613
0.000221769
0.000221769
0.000248613
0.000221769
0.000221769
0.000250223
0.000220149
0.000248613
0.000221769
0.000221769
0.000220149
0.000214433
0.000184329
0.000212822
0.000212822
0.000185949
0.000185949
0.000214433
0.000184329
0.000212822
0.000212822
0.000185949
0.000185949
0.000212822
0.000185949
0.000185949
0.000214433
0.000184329
0.000212822
0.000185949
0.000185949
0.000184329
0.000178606
0.000148473
0.000176995
0.000176995
0.000150091
0.000150091
0.000178605
0.000148473
0.000176995
0.000176995
0.000150091
0.000150091
0.000176995
0.000150091
0.000150091
0.000178606
0.000148473
0.000176995
0.000150091
0.000150091
0.000148473
0.000142738
0.000112578
0.000141131
0.000141131
0.000114192
0.000114192
0.000142738
0.000112579
0.000141131
0.000141131
0.000114192
0.000114192
0.000141131
0.000114192
0.000114192
0.000142738
0.000112578
0.000141131
0.000114192
0.000114192
0.000112578
0.000106823
7.66423e-05
0.000105228
0.000105228
7.82495e-05
7.82495e-05
0.000106823
7.66429e-05
0.000105227
0.000105227
7.82492e-05
7.82484e-05
0.000105227
7.82495e-05
7.82486e-05
0.000106822
7.6641e-05
0.000105227
7.82485e-05
7.82487e-05
7.66412e-05
7.08349e-05
4.06699e-05
6.92847e-05
6.92846e-05
4.23066e-05
4.23074e-05
7.08347e-05
4.0672e-05
6.92842e-05
6.92831e-05
4.2305e-05
4.2303e-05
6.92836e-05
4.23063e-05
4.23032e-05
7.08339e-05
4.06668e-05
6.92836e-05
4.2303e-05
4.23023e-05
4.06665e-05
3.47074e-05
8.49447e-06
3.34543e-05
3.34544e-05
1.09467e-05
1.09477e-05
3.47077e-05
8.49512e-06
3.3452e-05
3.34492e-05
1.09469e-05
1.09383e-05
3.34491e-05
1.09464e-05
1.09372e-05
3.47034e-05
8.48794e-06
3.34478e-05
1.094e-05
1.09409e-05
8.48686e-06
5.75814e-06
7.8435e-06
7.84544e-06
5.76021e-06
7.84395e-06
7.83863e-06
6.82596e-06
6.82183e-06
6.82197e-06
7.83992e-06
5.75147e-06
7.84258e-06
0.00073506
0.000735061
0.00073506
0.000735059
0.000735061
0.000719609
0.000719609
0.000719609
0.000719609
0.000735142
0.000737222
0.000735097
0.000737243
0.00073506
0.000735142
0.000737223
0.000737243
0.000735097
0.000735611
0.000735055
0.000735055
0.000699724
0.000712865
0.000712852
0.000699726
0.000712872
0.000699725
0.000699724
0.000712865
0.000712852
0.000699726
0.000710773
0.000710773
0.000710773
0.000684256
0.000684256
0.000684256
0.000684256
0.000699805
0.000712817
0.000710741
0.000701885
0.000712768
0.000699761
0.000701904
0.000712872
0.000699725
0.000699805
0.000710741
0.000712818
0.000701885
0.000712768
0.000701904
0.000699761
0.000712864
0.000712865
0.000700273
0.000699719
0.000699719
0.000664362
0.000677513
0.0006775
0.000664364
0.000677521
0.000664363
0.000664362
0.000677513
0.000677501
0.000664364
0.000675414
0.000675414
0.000675414
0.000648876
0.000648876
0.000648876
0.000648876
0.000664442
0.000677465
0.000675383
0.000666521
0.000677416
0.000664399
0.000666539
0.000677521
0.000664363
0.000664442
0.000675383
0.000677466
0.000666521
0.000677416
0.000666539
0.000664399
0.000677513
0.000677513
0.000664909
0.000664357
0.000664357
0.000628972
0.000642134
0.000642122
0.000628975
0.000642142
0.000628974
0.000628972
0.000642134
0.000642122
0.000628975
0.000640027
0.000640027
0.000640027
0.000613468
0.000613468
0.000613468
0.000613468
0.000629051
0.000642086
0.000639998
0.00063113
0.000642036
0.000629009
0.000631147
0.000642142
0.000628974
0.000629051
0.000639998
0.000642087
0.00063113
0.000642036
0.000631147
0.000629009
0.000642134
0.000642134
0.000629517
0.000628968
0.000628968
0.000593553
0.000606727
0.000606714
0.000593556
0.000606734
0.000593555
0.000593553
0.000606727
0.000606714
0.000593556
0.000604612
0.000604612
0.000604612
0.00057803
0.00057803
0.00057803
0.00057803
0.000593631
0.000606678
0.000604584
0.00059571
0.000606628
0.00059359
0.000595726
0.000606734
0.000593555
0.000593631
0.000604584
0.000606679
0.00059571
0.000606628
0.000595726
0.00059359
0.000606726
0.000606726
0.000594096
0.000593549
0.000593549
0.000558104
0.000571289
0.000571276
0.000558107
0.000571296
0.000558106
0.000558103
0.000571289
0.000571276
0.000558107
0.000569166
0.000569166
0.000569166
0.000542562
0.000542562
0.000542562
0.000542561
0.000558181
0.00057124
0.00056914
0.00056026
0.000571189
0.00055814
0.000560274
0.000571296
0.000558106
0.000558181
0.00056914
0.000571241
0.00056026
0.000571189
0.000560274
0.00055814
0.000571288
0.000571288
0.000558645
0.000558099
0.000558099
0.000522622
0.00053582
0.000535806
0.000522625
0.000535827
0.000522624
0.000522621
0.000535819
0.000535807
0.000522625
0.000533689
0.000533689
0.000533689
0.00050706
0.00050706
0.00050706
0.00050706
0.000522698
0.000535771
0.000533665
0.000524777
0.000535719
0.000522658
0.000524791
0.000535827
0.000522624
0.000522698
0.000533665
0.000535771
0.000524777
0.000535719
0.000524791
0.000522658
0.000535819
0.000535819
0.000523162
0.000522618
0.000522618
0.000487106
0.000500317
0.000500303
0.00048711
0.000500324
0.000487109
0.000487106
0.000500317
0.000500304
0.00048711
0.00049818
0.00049818
0.00049818
0.000471525
0.000471525
0.000471525
0.000471525
0.000487182
0.000500268
0.000498157
0.000489261
0.000500216
0.000487143
0.000489274
0.000500324
0.000487109
0.000487182
0.000498157
0.000500268
0.000489261
0.000500216
0.000489274
0.000487143
0.000500316
0.000500316
0.000487645
0.000487103
0.000487103
0.000451557
0.00046478
0.000464767
0.00045156
0.000464787
0.000451559
0.000451556
0.00046478
0.000464767
0.00045156
0.000462636
0.000462636
0.000462636
0.000435955
0.000435955
0.000435955
0.000435955
0.000451632
0.000464731
0.000462614
0.000453711
0.000464679
0.000451593
0.000453723
0.000464787
0.000451559
0.000451632
0.000462614
0.000464731
0.000453711
0.000464679
0.000453723
0.000451593
0.000464779
0.00046478
0.000452094
0.000451553
0.000451553
0.000415972
0.000429208
0.000429195
0.000415975
0.000429215
0.000415974
0.000415971
0.000429208
0.000429195
0.000415975
0.000427057
0.000427057
0.000427057
0.00040035
0.00040035
0.00040035
0.00040035
0.000416046
0.000429159
0.000427037
0.000418126
0.000429106
0.000416008
0.000418137
0.000429215
0.000415974
0.000416046
0.000427037
0.000429159
0.000418126
0.000429106
0.000418137
0.000416008
0.000429208
0.000429208
0.000416508
0.000415968
0.000415968
0.000380352
0.000393601
0.000393588
0.000380355
0.000393608
0.000380354
0.000380351
0.000393601
0.000393588
0.000380355
0.000391444
0.000391444
0.000391444
0.00036471
0.00036471
0.00036471
0.00036471
0.000380426
0.000393552
0.000391425
0.000382506
0.000393499
0.000380388
0.000382516
0.000393608
0.000380354
0.000380426
0.000391425
0.000393552
0.000382506
0.000393499
0.000382516
0.000380388
0.000393601
0.000393601
0.000380888
0.000380348
0.000380348
0.000344696
0.000357959
0.000357945
0.0003447
0.000357966
0.000344698
0.000344696
0.000357958
0.000357945
0.0003447
0.000355795
0.000355795
0.000355795
0.000329034
0.000329034
0.000329034
0.000329034
0.00034477
0.000357909
0.000355778
0.00034685
0.000357856
0.000344733
0.000346859
0.000357966
0.000344698
0.00034477
0.000355778
0.00035791
0.00034685
0.000357856
0.000346859
0.000344732
0.000357958
0.000357958
0.000345231
0.000344693
0.000344693
0.000309005
0.00032228
0.000322267
0.000309008
0.000322287
0.000309007
0.000309004
0.00032228
0.000322267
0.000309008
0.000320111
0.000320111
0.000320111
0.000293323
0.000293323
0.000293323
0.000293323
0.000309078
0.00032223
0.000320094
0.000311158
0.000322177
0.000309041
0.000311167
0.000322287
0.000309007
0.000309078
0.000320094
0.000322231
0.000311158
0.000322177
0.000311167
0.000309041
0.000322279
0.00032228
0.000309539
0.000309002
0.000309002
0.000273277
0.000286565
0.000286552
0.000273281
0.000286572
0.000273279
0.000273277
0.000286565
0.000286552
0.000273281
0.000284391
0.000284391
0.000284391
0.000257575
0.000257575
0.000257575
0.000257575
0.000273351
0.000286515
0.000284375
0.00027543
0.000286462
0.000273314
0.000275438
0.000286572
0.000273279
0.000273351
0.000284375
0.000286516
0.00027543
0.000286462
0.000275438
0.000273314
0.000286565
0.000286565
0.00027381
0.000273274
0.000273274
0.000237513
0.000250812
0.0002508
0.000237516
0.00025082
0.000237514
0.000237512
0.000250812
0.0002508
0.000237516
0.000248634
0.000248634
0.000248634
0.00022179
0.00022179
0.00022179
0.00022179
0.000237586
0.000250763
0.00024862
0.000239665
0.00025071
0.00023755
0.000239672
0.00025082
0.000237514
0.000237586
0.00024862
0.000250763
0.000239665
0.00025071
0.000239672
0.000237549
0.000250812
0.000250812
0.000238045
0.00023751
0.00023751
0.000201712
0.000215022
0.00021501
0.000201716
0.000215031
0.000201712
0.000201711
0.000215022
0.000215011
0.000201716
0.00021284
0.00021284
0.00021284
0.000185968
0.000185968
0.000185968
0.000185968
0.000201786
0.000214972
0.000212828
0.000203863
0.00021492
0.00020175
0.000203869
0.000215031
0.000201712
0.000201785
0.000212828
0.000214973
0.000203863
0.00021492
0.000203869
0.000201749
0.000215022
0.000215022
0.000202243
0.00020171
0.000201709
0.000165873
0.000179193
0.000179184
0.000165879
0.000179205
0.000165873
0.000165872
0.000179193
0.000179184
0.000165879
0.000177011
0.000177011
0.000177011
0.000150109
0.000150109
0.000150109
0.000150109
0.000165949
0.000179143
0.000176999
0.000168024
0.000179092
0.000165915
0.00016803
0.000179205
0.000165873
0.000165949
0.000176999
0.000179143
0.000168024
0.000179092
0.00016803
0.000165915
0.000179194
0.000179194
0.000166405
0.000165873
0.000165873
0.000129994
0.000143324
0.000143319
0.000130006
0.000143342
0.000129992
0.000129993
0.000143324
0.000143319
0.000130006
0.000141144
0.000141144
0.000141144
0.00011421
0.00011421
0.00011421
0.00011421
0.000130076
0.000143272
0.000141134
0.000132147
0.000143226
0.000130045
0.000132152
0.000143342
0.000129991
0.000130076
0.000141134
0.000143272
0.000132147
0.000143226
0.000132152
0.000130045
0.000143327
0.000143327
0.000130531
0.000129999
0.000129999
9.40674e-05
0.000107409
0.000107414
9.40944e-05
0.000107443
9.40501e-05
9.40665e-05
0.000107408
0.000107414
9.40937e-05
0.000105238
0.000105237
0.000105237
7.82694e-05
7.82695e-05
7.82686e-05
7.82688e-05
9.41648e-05
0.00010735
0.000105231
9.62266e-05
0.000107317
9.41447e-05
9.62308e-05
0.000107442
9.4049e-05
9.41642e-05
0.000105231
0.00010735
9.62261e-05
0.000107317
9.62304e-05
9.41436e-05
0.000107415
0.000107415
9.46148e-05
9.40769e-05
9.40763e-05
5.8074e-05
7.14296e-05
7.14559e-05
5.81141e-05
7.15288e-05
5.79674e-05
5.8072e-05
7.14296e-05
7.14551e-05
5.81129e-05
6.93011e-05
6.92999e-05
6.93002e-05
4.25178e-05
4.25185e-05
4.25156e-05
4.25152e-05
5.82002e-05
7.13505e-05
6.92899e-05
6.02647e-05
7.13512e-05
5.81988e-05
6.02787e-05
7.15214e-05
5.79641e-05
5.81983e-05
6.92887e-05
7.13484e-05
6.02625e-05
7.13502e-05
6.02773e-05
5.81966e-05
7.14354e-05
7.14332e-05
5.86542e-05
5.81072e-05
5.81053e-05
2.15688e-05
3.51739e-05
3.52679e-05
2.11766e-05
3.56006e-05
2.00905e-05
2.15565e-05
3.51666e-05
3.52623e-05
2.11712e-05
3.39059e-05
3.39018e-05
3.39015e-05
1.21171e-05
1.21167e-05
1.21118e-05
1.21123e-05
2.2094e-05
3.50318e-05
3.36991e-05
2.47471e-05
3.52276e-05
2.16425e-05
2.5247e-05
3.55844e-05
2.0097e-05
2.20946e-05
3.36966e-05
3.5026e-05
2.47429e-05
3.52268e-05
2.52436e-05
2.16409e-05
3.50664e-05
3.50664e-05
2.29073e-05
2.14614e-05
2.14603e-05
6.52237e-07
3.27549e-06
3.62752e-06
2.55843e-06
5.61808e-06
-1.87661e-06
6.55407e-07
3.24981e-06
3.60796e-06
2.55153e-06
1.958e-06
7.70936e-06
7.70793e-06
7.72657e-06
8.01333e-06
4.39387e-06
4.39434e-06
2.96606e-06
2.64925e-06
7.22004e-06
2.44995e-06
5.31035e-06
6.75994e-06
-6.57112e-08
5.5993e-06
-1.87194e-06
2.96961e-06
7.21746e-06
2.6474e-06
2.45055e-06
5.30897e-06
-6.50428e-08
6.75996e-06
-3.60334e-07
-3.61043e-07
1.59127e-06
6.53089e-06
6.5403e-06
0.00073506
0.00073506
0.000735611
0.000735055
0.000735055
0.000717396
0.000730538
0.000717396
0.000730538
0.000729965
0.00071739
0.00071739
0.000730531
0.000730531
0.00073506
0.000735061
0.000735142
0.000737222
0.000735097
0.000737243
0.000735142
0.000737222
0.000735097
0.000737243
0.000730518
0.000717397
0.000730531
0.000717395
0.000730518
0.000717397
0.000730531
0.000717395
0.000730435
0.00072839
0.000717432
0.000719576
0.000730484
0.00072841
0.000717476
0.000730435
0.00072839
0.000717432
0.000719576
0.000730483
0.00072841
0.000717476
0.000735611
0.000735055
0.000735055
0.00073506
0.000717396
0.000730538
0.000729965
0.00071739
0.000717391
0.00073053
0.00073053
0.000717396
0.000730538
0.000735142
0.000737222
0.000735097
0.000737243
0.000735059
0.000735061
0.000735142
0.000737223
0.000737243
0.000735097
0.000730519
0.000717397
0.000730531
0.000717394
0.000730435
0.00072839
0.000717432
0.000719576
0.000730483
0.00072841
0.000717476
0.000730519
0.000717397
0.000730531
0.000717394
0.000730435
0.00072839
0.000719576
0.000717432
0.00072841
0.000730483
0.000717476
0.00073506
0.000735062
0.000735142
0.000737223
0.000737243
0.000735097
0.00073506
0.000735061
0.000730435
0.00072839
0.000717432
0.000719576
0.000730483
0.00072841
0.000717476
0.000730519
0.000717397
0.000730531
0.000717395
0.000730435
0.00072839
0.000719576
0.000717432
0.00072841
0.000730484
0.000717476
0.000730519
0.000717397
0.000730531
0.000717395
0.000735611
0.000735055
0.000735055
0.00073506
0.000717396
0.000730538
0.000729965
0.000717391
0.00071739
0.00073053
0.000730531
0.000717396
0.000730538
0.000735142
0.000737222
0.000737243
0.000735097
0.00073506
0.000735061
0.00073506
0.000735062
0.000730435
0.00072839
0.000719576
0.000717432
0.00072841
0.000730484
0.000717477
0.000730435
0.00072839
0.000719576
0.000717432
0.00072841
0.000730484
0.000717476
0.000730518
0.000717397
0.000730531
0.000717395
0.000730518
0.000717397
0.000730531
0.000717395
0.00073506
0.00073506
0.000729965
0.00071739
0.00071739
0.000730531
0.000730531
0.000717396
0.000730538
0.000717396
0.000730538
0.000712872
0.000699725
0.000712872
0.000699725
0.000712865
0.000712865
0.000700273
0.000699719
0.000699719
0.000682047
0.0006952
0.000682047
0.0006952
0.000694624
0.000682041
0.000682042
0.000695192
0.000695192
0.000699724
0.000712865
0.000712852
0.000699726
0.000699805
0.000712818
0.000710741
0.000701885
0.000712768
0.000699761
0.000701904
0.000699805
0.000712817
0.000710741
0.000701885
0.000712768
0.000699761
0.000701904
0.00069518
0.000682048
0.000695192
0.000682046
0.00069518
0.000682048
0.000695192
0.000682046
0.000695095
0.000693046
0.000682083
0.000684225
0.000695145
0.000693065
0.000682127
0.000695095
0.000693046
0.000682083
0.000684225
0.000695145
0.000693065
0.000682127
0.000712864
0.000712864
0.000700273
0.000699719
0.00069972
0.000712872
0.000699725
0.000682047
0.0006952
0.000694623
0.000682042
0.000682042
0.000695192
0.000695191
0.000682047
0.0006952
0.000699805
0.000712817
0.000710741
0.000701885
0.000712768
0.000699761
0.000701904
0.000699724
0.000712865
0.000712852
0.000699726
0.000699805
0.000710741
0.000712817
0.000701885
0.000712768
0.000701904
0.000699761
0.00069518
0.000682048
0.000695192
0.000682046
0.000695095
0.000693047
0.000682083
0.000684225
0.000695144
0.000693065
0.000682127
0.00069518
0.000682049
0.000695192
0.000682046
0.000695095
0.000693046
0.000684225
0.000682084
0.000693065
0.000695144
0.000682127
0.000699724
0.000712865
0.000712852
0.000699726
0.000699805
0.000710741
0.000712817
0.000701885
0.000712768
0.000701904
0.000699761
0.000699724
0.000712865
0.000712852
0.000699726
0.000695095
0.000693046
0.000682084
0.000684225
0.000695144
0.000693065
0.000682127
0.00069518
0.000682049
0.000695192
0.000682046
0.000695096
0.000693047
0.000684225
0.000682083
0.000693065
0.000695145
0.000682127
0.00069518
0.000682048
0.000695192
0.000682046
0.000712864
0.000712865
0.000700273
0.00069972
0.000699719
0.000712872
0.000699725
0.000682047
0.0006952
0.000694624
0.000682042
0.000682042
0.000695191
0.000695192
0.000682048
0.0006952
0.000699805
0.000710741
0.000712817
0.000701885
0.000712768
0.000701904
0.000699761
0.000699724
0.000712865
0.000712852
0.000699726
0.000699724
0.000712865
0.000712852
0.000699726
0.000695095
0.000693046
0.000684225
0.000682083
0.000693065
0.000695145
0.000682127
0.000695095
0.000693047
0.000684225
0.000682083
0.000693065
0.000695145
0.000682127
0.000695179
0.000682049
0.000695193
0.000682047
0.00069518
0.000682048
0.000695192
0.000682047
0.000712872
0.000699725
0.000712872
0.000699725
0.000694624
0.000682042
0.000682042
0.000695192
0.000695192
0.000682047
0.0006952
0.000682047
0.0006952
0.000677521
0.000664363
0.000677521
0.000664363
0.000677513
0.000677513
0.000664909
0.000664357
0.000664357
0.000646672
0.000659835
0.000646672
0.000659835
0.000659256
0.000646666
0.000646666
0.000659827
0.000659827
0.000664362
0.000677513
0.0006775
0.000664364
0.000664442
0.000677466
0.000675383
0.000666521
0.000677416
0.000664399
0.000666539
0.000664442
0.000677465
0.000675383
0.000666521
0.000677416
0.000664399
0.000666539
0.000659814
0.000646673
0.000659827
0.000646671
0.000659814
0.000646673
0.000659827
0.000646671
0.000659729
0.000657676
0.000646707
0.000648847
0.00065978
0.000657694
0.00064675
0.000659729
0.000657676
0.000646707
0.000648847
0.000659779
0.000657694
0.00064675
0.000677513
0.000677512
0.000664909
0.000664358
0.000664358
0.000677521
0.000664363
0.000646672
0.000659835
0.000659256
0.000646666
0.000646667
0.000659827
0.000659826
0.000646672
0.000659835
0.000664442
0.000677465
0.000675383
0.000666521
0.000677416
0.000664399
0.000666539
0.000664362
0.000677513
0.000677501
0.000664364
0.000664442
0.000675383
0.000677465
0.000666521
0.000677416
0.000666539
0.000664399
0.000659815
0.000646673
0.000659827
0.00064667
0.00065973
0.000657676
0.000646708
0.000648847
0.000659779
0.000657694
0.00064675
0.000659815
0.000646673
0.000659827
0.00064667
0.00065973
0.000657676
0.000648847
0.000646708
0.000657694
0.000659779
0.00064675
0.000664362
0.000677513
0.000677501
0.000664364
0.000664442
0.000675383
0.000677466
0.000666521
0.000677416
0.000666539
0.000664399
0.000664362
0.000677513
0.000677501
0.000664364
0.00065973
0.000657676
0.000646708
0.000648847
0.000659779
0.000657694
0.00064675
0.000659815
0.000646673
0.000659827
0.000646671
0.00065973
0.000657676
0.000648847
0.000646707
0.000657694
0.00065978
0.00064675
0.000659815
0.000646673
0.000659827
0.000646671
0.000677512
0.000677513
0.000664909
0.000664358
0.000664358
0.000677521
0.000664363
0.000646672
0.000659835
0.000659256
0.000646667
0.000646666
0.000659826
0.000659827
0.000646672
0.000659835
0.000664442
0.000675383
0.000677465
0.000666521
0.000677416
0.000666539
0.000664399
0.000664362
0.000677513
0.0006775
0.000664364
0.000664362
0.000677513
0.0006775
0.000664364
0.000659729
0.000657676
0.000648847
0.000646707
0.000657694
0.00065978
0.00064675
0.000659729
0.000657676
0.000648847
0.000646707
0.000657694
0.00065978
0.00064675
0.000659814
0.000646673
0.000659828
0.000646671
0.000659814
0.000646673
0.000659827
0.000646671
0.000677521
0.000664363
0.000677521
0.000664363
0.000659256
0.000646666
0.000646666
0.000659827
0.000659827
0.000646672
0.000659835
0.000646672
0.000659835
0.000642142
0.000628974
0.000642142
0.000628974
0.000642134
0.000642134
0.000629517
0.000628968
0.000628968
0.000611268
0.000624442
0.000611268
0.000624442
0.00062386
0.000611262
0.000611262
0.000624434
0.000624434
0.000628972
0.000642134
0.000642122
0.000628975
0.000629051
0.000642087
0.000639998
0.00063113
0.000642036
0.000629009
0.000631147
0.000629051
0.000642086
0.000639998
0.00063113
0.000642036
0.000629009
0.000631147
0.000624421
0.000611269
0.000624434
0.000611266
0.000624421
0.000611269
0.000624434
0.000611266
0.000624335
0.000622278
0.000611303
0.00061344
0.000624386
0.000622295
0.000611345
0.000624335
0.000622278
0.000611303
0.00061344
0.000624386
0.000622295
0.000611345
0.000642134
0.000642133
0.000629518
0.000628968
0.000628968
0.000642142
0.000628974
0.000611268
0.000624441
0.00062386
0.000611262
0.000611263
0.000624433
0.000624433
0.000611268
0.000624442
0.000629051
0.000642086
0.000639998
0.00063113
0.000642036
0.000629009
0.000631147
0.000628972
0.000642134
0.000642122
0.000628975
0.000629051
0.000639998
0.000642086
0.00063113
0.000642036
0.000631147
0.000629009
0.000624422
0.000611269
0.000624434
0.000611266
0.000624336
0.000622278
0.000611303
0.00061344
0.000624386
0.000622295
0.000611345
0.000624422
0.000611269
0.000624434
0.000611266
0.000624336
0.000622278
0.00061344
0.000611303
0.000622295
0.000624386
0.000611345
0.000628972
0.000642134
0.000642122
0.000628975
0.000629051
0.000639998
0.000642086
0.00063113
0.000642036
0.000631147
0.000629009
0.000628972
0.000642135
0.000642121
0.000628975
0.000624336
0.000622278
0.000611303
0.00061344
0.000624386
0.000622295
0.000611345
0.000624421
0.000611269
0.000624434
0.000611266
0.000624336
0.000622278
0.00061344
0.000611303
0.000622295
0.000624386
0.000611345
0.000624421
0.000611269
0.000624434
0.000611266
0.000642133
0.000642134
0.000629517
0.000628968
0.000628968
0.000642142
0.000628974
0.000611268
0.000624441
0.00062386
0.000611263
0.000611262
0.000624433
0.000624434
0.000611268
0.000624442
0.000629051
0.000639998
0.000642086
0.00063113
0.000642036
0.000631147
0.000629009
0.000628973
0.000642135
0.000642121
0.000628975
0.000628973
0.000642134
0.000642121
0.000628975
0.000624335
0.000622278
0.00061344
0.000611303
0.000622295
0.000624386
0.000611345
0.000624335
0.000622278
0.00061344
0.000611303
0.000622295
0.000624386
0.000611345
0.000624421
0.000611269
0.000624434
0.000611267
0.000624421
0.000611269
0.000624434
0.000611267
0.000642142
0.000628974
0.000642142
0.000628974
0.00062386
0.000611262
0.000611262
0.000624434
0.000624434
0.000611268
0.000624441
0.000611268
0.000624442
0.000606734
0.000593555
0.000606734
0.000593555
0.000606726
0.000606726
0.000594097
0.000593549
0.000593549
0.000575834
0.000589019
0.000575834
0.000589019
0.000588436
0.000575828
0.000575828
0.000589011
0.000589011
0.000593553
0.000606727
0.000606714
0.000593556
0.000593631
0.000606679
0.000604584
0.00059571
0.000606628
0.00059359
0.000595726
0.000593631
0.000606678
0.000604584
0.00059571
0.000606628
0.00059359
0.000595726
0.000588999
0.000575835
0.000589012
0.000575832
0.000588999
0.000575835
0.000589012
0.000575832
0.000588912
0.000586851
0.000575869
0.000578004
0.000588964
0.000586866
0.00057591
0.000588912
0.000586851
0.000575869
0.000578004
0.000588963
0.000586866
0.00057591
0.000606726
0.000606726
0.000594097
0.000593549
0.00059355
0.000606734
0.000593555
0.000575834
0.000589019
0.000588435
0.000575828
0.000575829
0.000589011
0.000589011
0.000575834
0.000589019
0.000593631
0.000606678
0.000604584
0.00059571
0.000606628
0.00059359
0.000595726
0.000593553
0.000606726
0.000606714
0.000593556
0.000593631
0.000604584
0.000606678
0.00059571
0.000606628
0.000595726
0.00059359
0.000588999
0.000575835
0.000589012
0.000575832
0.000588912
0.000586851
0.000575869
0.000578004
0.000588963
0.000586866
0.00057591
0.000588999
0.000575835
0.000589011
0.000575832
0.000588912
0.000586851
0.000578004
0.000575869
0.000586866
0.000588963
0.00057591
0.000593553
0.000606727
0.000606714
0.000593556
0.000593631
0.000604584
0.000606679
0.00059571
0.000606628
0.000595726
0.00059359
0.000593553
0.000606727
0.000606714
0.000593556
0.000588912
0.000586851
0.000575869
0.000578004
0.000588963
0.000586866
0.00057591
0.000588998
0.000575835
0.000589012
0.000575832
0.000588912
0.000586851
0.000578004
0.000575869
0.000586866
0.000588963
0.00057591
0.000588999
0.000575835
0.000589012
0.000575832
0.000606726
0.000606726
0.000594097
0.00059355
0.000593549
0.000606734
0.000593555
0.000575834
0.000589019
0.000588436
0.000575829
0.000575828
0.000589011
0.000589011
0.000575834
0.000589019
0.000593631
0.000604584
0.000606678
0.00059571
0.000606628
0.000595726
0.00059359
0.000593554
0.000606727
0.000606713
0.000593556
0.000593554
0.000606727
0.000606713
0.000593556
0.000588912
0.000586851
0.000578004
0.000575869
0.000586866
0.000588964
0.00057591
0.000588912
0.000586851
0.000578004
0.000575869
0.000586866
0.000588963
0.00057591
0.000588998
0.000575835
0.000589012
0.000575833
0.000588998
0.000575835
0.000589012
0.000575833
0.000606734
0.000593555
0.000606734
0.000593555
0.000588436
0.000575828
0.000575828
0.000589011
0.000589011
0.000575834
0.000589019
0.000575834
0.000589019
0.000571296
0.000558106
0.000571296
0.000558106
0.000571289
0.000571288
0.000558646
0.000558099
0.0005581
0.000540369
0.000553566
0.000540369
0.000553566
0.00055298
0.000540363
0.000540363
0.000553558
0.000553558
0.000558104
0.000571289
0.000571276
0.000558107
0.000558181
0.000571241
0.00056914
0.00056026
0.000571189
0.00055814
0.000560274
0.000558181
0.000571241
0.00056914
0.00056026
0.000571189
0.00055814
0.000560274
0.000553545
0.00054037
0.000553558
0.000540367
0.000553545
0.00054037
0.000553558
0.000540367
0.000553458
0.000551392
0.000540403
0.000542537
0.00055351
0.000551407
0.000540444
0.000553458
0.000551392
0.000540403
0.000542537
0.00055351
0.000551407
0.000540444
0.000571288
0.000571288