/*--------------------------------*- C++ -*----------------------------------*\
| =========                 |                                                 |
| \\      /  F ield         | OpenFOAM: The Open Source CFD Toolbox           |
|  \\    /   O peration     | Version:  v1906                                 |
|   \\  /    A nd           | Web:      www.OpenFOAM.com                      |
|    \\/     M anipulation  |                                                 |
\*---------------------------------------------------------------------------*/
FoamFile
{
    version     2.0;
    format      ascii;
    class       surfaceScalarField;
    location    "850";
    object      phi;
}
// * * * * * * * * * * * * * * * * * * * * * * * * * * * * * * * * * * * * * //

dimensions      [0 3 -1 0 0 0 0];
oriented        oriented;


internalField   nonuniform List<scalar> 
124908
(
1.2411e-07
1.24594e-07
-0.00118365
-7.72014e-08
-7.70838e-08
0.00118356
-0.00113214
-1.19623e-06
-1.2438e-07
-5.07263e-08
0.00113212
-2.33866e-07
1.24102e-06
2.7189e-07
9.11109e-07
-2.12209e-07
-8.52347e-07
2.66208e-07
-0.00113178
-1.1908e-06
-1.24558e-07
-5.06067e-08
0.00113176
-2.33912e-07
1.2355e-06
2.71877e-07
9.10977e-07
-2.14886e-07
-8.52187e-07
2.6896e-07
-0.000270098
1.22488e-06
1.19092e-06
-1.9796e-07
-2.03264e-07
0.000268083
1.25696e-07
1.2618e-07
-0.00118328
-7.94794e-08
-7.93662e-08
0.00118319
-0.00113206
-1.19603e-06
-1.25971e-07
-5.13826e-08
0.00113204
-2.33784e-07
1.24083e-06
2.71704e-07
9.10985e-07
-2.12146e-07
-8.522e-07
2.66041e-07
-0.0011317
-1.19061e-06
-1.26157e-07
-5.12553e-08
0.00113168
-2.3383e-07
1.23532e-06
2.71691e-07
9.10858e-07
-2.14819e-07
-8.52051e-07
2.68789e-07
-0.000270108
1.22468e-06
1.19072e-06
-1.97912e-07
-2.03219e-07
0.000268094
1.2676e-07
1.27236e-07
-0.00118291
-8.12773e-08
-8.11668e-08
0.00118282
-0.00113199
-1.19593e-06
-1.27042e-07
-5.18433e-08
0.00113198
-2.33779e-07
1.24062e-06
2.71493e-07
9.10813e-07
-2.12179e-07
-8.52183e-07
2.65808e-07
-0.00113163
-1.19051e-06
-1.27238e-07
-5.17067e-08
0.00113161
-2.33826e-07
1.23511e-06
2.71479e-07
9.10684e-07
-2.14846e-07
-8.52032e-07
2.6856e-07
-0.000270121
1.22458e-06
1.19061e-06
-1.9793e-07
-2.03244e-07
0.000268107
1.27319e-07
1.27793e-07
-0.00118255
-8.26153e-08
-8.25117e-08
0.00118246
-0.00113193
-1.19592e-06
-1.27622e-07
-5.20871e-08
0.00113192
-2.33848e-07
1.24039e-06
2.71253e-07
9.10584e-07
-2.12313e-07
-8.52278e-07
2.65524e-07
-0.00113157
-1.19049e-06
-1.2782e-07
-5.19436e-08
0.00113156
-2.33894e-07
1.23489e-06
2.71241e-07
9.10458e-07
-2.14984e-07
-8.52126e-07
2.68276e-07
-0.000270135
1.22456e-06
1.19059e-06
-1.98014e-07
-2.03332e-07
0.000268122
1.27407e-07
1.27868e-07
-0.00118219
-8.35205e-08
-8.34296e-08
0.0011821
-0.00113188
-1.19599e-06
-1.27726e-07
-5.21392e-08
0.00113187
-2.3398e-07
1.24013e-06
2.70988e-07
9.10299e-07
-2.12546e-07
-8.52488e-07
2.65187e-07
-0.00113152
-1.19058e-06
-1.27925e-07
-5.19836e-08
0.00113151
-2.34019e-07
1.23463e-06
2.70975e-07
9.10177e-07
-2.15212e-07
-8.52332e-07
2.67943e-07
-0.000270152
1.22463e-06
1.19066e-06
-1.9816e-07
-2.03484e-07
0.000268138
1.27043e-07
1.27485e-07
-0.00118184
-8.4015e-08
-8.39414e-08
0.00118175
-0.00113184
-1.19616e-06
-1.27378e-07
-5.20045e-08
0.00113183
-2.3417e-07
1.23987e-06
2.70701e-07
9.09965e-07
-2.12867e-07
-8.52797e-07
2.64803e-07
-0.00113147
-1.19072e-06
-1.27572e-07
-5.18421e-08
0.00113146
-2.34217e-07
1.23435e-06
2.70689e-07
9.09842e-07
-2.15536e-07
-8.52644e-07
2.67556e-07
-0.00027017
1.22479e-06
1.1908e-06
-1.98361e-07
-2.03694e-07
0.000268156
1.26288e-07
1.26708e-07
-0.00118149
-8.41504e-08
-8.40972e-08
0.00118141
-0.0011318
-1.19637e-06
-1.26633e-07
-5.17274e-08
0.00113179
-2.34424e-07
1.23956e-06
2.70395e-07
9.09591e-07
-2.13271e-07
-8.53205e-07
2.64374e-07
-0.00113144
-1.19095e-06
-1.26811e-07
-5.15487e-08
0.00113143
-2.34471e-07
1.23405e-06
2.70382e-07
9.09465e-07
-2.15944e-07
-8.53053e-07
2.67126e-07
-0.000270189
1.22502e-06
1.19102e-06
-1.98618e-07
-2.03962e-07
0.000268175
1.25154e-07
1.25546e-07
-0.00118116
-8.39422e-08
-8.39123e-08
0.00118108
-0.00113177
-1.19667e-06
-1.25496e-07
-5.12913e-08
0.00113176
-2.34735e-07
1.23923e-06
2.70062e-07
9.09165e-07
-2.13757e-07
-8.53706e-07
2.63901e-07
-0.0011314
-1.19125e-06
-1.25656e-07
-5.11027e-08
0.0011314
-2.34781e-07
1.23372e-06
2.7005e-07
9.09039e-07
-2.16434e-07
-8.53556e-07
2.6665e-07
-0.000270209
1.22533e-06
1.19132e-06
-1.98931e-07
-2.04284e-07
0.000268196
1.23684e-07
1.24042e-07
-0.00118083
-8.34251e-08
-8.34249e-08
0.00118075
-0.00113174
-1.19704e-06
-1.24012e-07
-5.07137e-08
0.00113173
-2.35099e-07
1.23889e-06
2.69705e-07
9.08694e-07
-2.14311e-07
-8.54285e-07
2.63384e-07
-0.00113138
-1.19162e-06
-1.2415e-07
-5.05139e-08
0.00113137
-2.35144e-07
1.23337e-06
2.69693e-07
9.08561e-07
-2.16991e-07
-8.5414e-07
2.66129e-07
-0.000270231
1.22571e-06
1.19169e-06
-1.99295e-07
-2.04655e-07
0.000268217
1.21906e-07
1.22238e-07
-0.00118051
-8.26353e-08
-8.26668e-08
0.00118043
-0.00113172
-1.19747e-06
-1.22224e-07
-5.00037e-08
0.00113172
-2.35508e-07
1.23851e-06
2.6932e-07
9.08175e-07
-2.14921e-07
-8.54936e-07
2.62825e-07
-0.00113136
-1.19204e-06
-1.22337e-07
-4.97975e-08
0.00113135
-2.35552e-07
1.233e-06
2.69308e-07
9.08035e-07
-2.17604e-07
-8.54792e-07
2.65566e-07
-0.000270253
1.22614e-06
1.19212e-06
-1.99703e-07
-2.05066e-07
0.000268239
1.19878e-07
1.20184e-07
-0.0011802
-8.16108e-08
-8.16722e-08
0.00118012
-0.0011317
-1.19795e-06
-1.20185e-07
-4.91825e-08
0.0011317
-2.35957e-07
1.23811e-06
2.68914e-07
9.07614e-07
-2.15576e-07
-8.55642e-07
2.62215e-07
-0.00113134
-1.19252e-06
-1.20272e-07
-4.89696e-08
0.00113134
-2.36001e-07
1.2326e-06
2.68901e-07
9.07472e-07
-2.18265e-07
-8.55507e-07
2.64951e-07
-0.000270276
1.22662e-06
1.1926e-06
-2.00147e-07
-2.05509e-07
0.000268262
1.17645e-07
1.17931e-07
-0.0011799
-8.03881e-08
-8.04729e-08
0.00117982
-0.00113169
-1.19847e-06
-1.17941e-07
-4.82743e-08
0.00113169
-2.36435e-07
1.23768e-06
2.68473e-07
9.06991e-07
-2.16256e-07
-8.56382e-07
2.61542e-07
-0.00113133
-1.19305e-06
-1.18005e-07
-4.80622e-08
0.00113133
-2.36479e-07
1.23217e-06
2.68462e-07
9.06843e-07
-2.18951e-07
-8.56252e-07
2.64275e-07
-0.000270299
1.22715e-06
1.19313e-06
-2.0063e-07
-2.05986e-07
0.000268286
1.15317e-07
1.15593e-07
-0.00117961
-7.90656e-08
-7.91666e-08
0.00117953
-0.00113168
-1.19903e-06
-1.15597e-07
-4.73321e-08
0.00113169
-2.36934e-07
1.23722e-06
2.67983e-07
9.06272e-07
-2.16918e-07
-8.5712e-07
2.60779e-07
-0.00113132
-1.19361e-06
-1.15638e-07
-4.71241e-08
0.00113132
-2.36947e-07
1.2317e-06
2.67972e-07
9.06119e-07
-2.19619e-07
-8.56998e-07
2.63508e-07
-0.000270323
1.22771e-06
1.1937e-06
-2.01121e-07
-2.06468e-07
0.000268309
1.12983e-07
1.13256e-07
-0.00117932
-7.77137e-08
-7.78211e-08
0.00117925
-0.00113168
-1.1996e-06
-1.13252e-07
-4.63401e-08
0.00113168
-2.37421e-07
1.2367e-06
2.67431e-07
9.05401e-07
-2.1749e-07
-8.57791e-07
2.59856e-07
-0.00113132
-1.19418e-06
-1.13279e-07
-4.61467e-08
0.00113132
-2.37435e-07
1.23119e-06
2.6742e-07
9.05244e-07
-2.20196e-07
-8.57676e-07
2.6258e-07
-0.000270348
1.22827e-06
1.19427e-06
-2.01594e-07
-2.06929e-07
0.000268333
1.10864e-07
1.11144e-07
-0.00117905
-7.65123e-08
-7.66143e-08
0.00117898
-0.00113168
-1.20013e-06
-1.11132e-07
-4.53763e-08
0.00113169
-2.37844e-07
1.23607e-06
2.66765e-07
9.04282e-07
-2.1781e-07
-8.58246e-07
2.58624e-07
-0.00113132
-1.19471e-06
-1.11148e-07
-4.51985e-08
0.00113132
-2.37852e-07
1.23056e-06
2.66762e-07
9.04112e-07
-2.20509e-07
-8.58143e-07
2.6135e-07
-0.000270372
1.2288e-06
1.19481e-06
-2.01988e-07
-2.07313e-07
0.000268358
1.09316e-07
1.09605e-07
-0.00117879
-7.57807e-08
-7.58714e-08
0.00117872
-0.00113169
-1.20052e-06
-1.09576e-07
-4.43916e-08
0.00113169
-2.38084e-07
1.23522e-06
2.65844e-07
9.02613e-07
-2.17489e-07
-8.58256e-07
2.56715e-07
-0.00113132
-1.1951e-06
-1.09606e-07
-4.42618e-08
0.00113133
-2.38088e-07
1.22973e-06
2.65818e-07
9.02458e-07
-2.20185e-07
-8.58135e-07
2.59435e-07
-0.000270397
1.22918e-06
1.1952e-06
-2.0215e-07
-2.07467e-07
0.000268382
1.08973e-07
1.09278e-07
-0.00117853
-7.62106e-08
-7.62849e-08
0.00117847
-0.00113169
-1.20046e-06
-1.09246e-07
-4.32357e-08
0.0011317
-2.37753e-07
1.23377e-06
2.64175e-07
8.99802e-07
-2.15526e-07
-8.57201e-07
2.53047e-07
-0.00113133
-1.19503e-06
-1.09281e-07
-4.31469e-08
0.00113134
-2.37758e-07
1.22828e-06
2.64154e-07
8.99641e-07
-2.1822e-07
-8.57074e-07
2.55758e-07
-0.000270422
1.22911e-06
1.19514e-06
-2.01632e-07
-2.06948e-07
0.000268406
1.11008e-07
1.11338e-07
-0.00117829
-7.94467e-08
-7.94897e-08
0.00117823
-0.0011317
-1.19882e-06
-1.11302e-07
-4.06986e-08
0.00113172
-2.35397e-07
1.23029e-06
2.59913e-07
8.9406e-07
-2.08985e-07
-8.53588e-07
2.44311e-07
-0.00113134
-1.19338e-06
-1.11358e-07
-4.06665e-08
0.00113136
-2.35425e-07
1.22481e-06
2.59941e-07
8.93883e-07
-2.11691e-07
-8.53399e-07
2.47015e-07
-0.000270448
1.22747e-06
1.19349e-06
-1.98842e-07
-2.04166e-07
0.00026843
1.34389e-07
1.35015e-07
-0.00117807
-9.60475e-08
-1.01813e-07
0.001178
-0.00113171
-1.19156e-06
-1.29242e-07
-4.49556e-08
0.00113175
-2.25154e-07
1.22273e-06
2.51421e-07
8.84406e-07
-1.91661e-07
-8.44679e-07
2.22981e-07
-0.00113136
-1.18341e-06
-1.35007e-07
-3.96512e-08
0.0011314
-2.25106e-07
1.21454e-06
2.48655e-07
8.81622e-07
-1.91671e-07
-8.41831e-07
2.25789e-07
-0.000270482
1.22291e-06
1.1862e-06
-1.85284e-07
-1.90622e-07
0.000268448
1.05276e-06
1.06027e-06
-0.00117774
-9.08587e-07
-8.97478e-07
0.00117744
-0.00113201
-1.08753e-06
-1.05428e-06
-4.41241e-07
0.0011325
-1.18737e-07
1.37608e-06
3.14308e-07
1.00646e-06
-5.27233e-08
-7.21305e-07
2.92169e-07
-0.00113166
-1.07924e-06
-1.06548e-06
-4.52644e-07
0.00113217
-1.1856e-07
1.37072e-06
3.17238e-07
1.00351e-06
-5.89585e-08
-7.18385e-07
2.95008e-07
-0.0002706
1.12145e-06
1.07939e-06
-7.9392e-08
-8.19128e-08
0.00026856
5.51326e-06
5.50617e-06
-0.00116443
-1.16869e-05
-1.15799e-05
0.000283409
0.000285664
0.000285391
0.000285391
4.52783e-06
6.71955e-06
7.15984e-06
4.53178e-06
6.72045e-06
7.16344e-06
-0.000280655
5.41715e-06
-5.50317e-06
5.96546e-06
-3.38968e-06
0.000278166
-0.00028063
-5.50561e-06
5.42257e-06
-3.39804e-06
5.96248e-06
0.000278149
-0.000271535
-5.41385e-06
-5.42537e-06
5.74691e-06
5.73498e-06
0.000270892
-1.27498e-06
-1.23833e-06
0.000270115
-0.000268087
2.38882e-07
2.46815e-07
0.0011313
-1.23568e-07
-0.00113133
-5.04676e-08
-1.23029e-06
2.77314e-07
-2.39417e-07
-8.52413e-07
2.66186e-07
-2.12284e-07
9.11074e-07
1.28042e-06
0.00113175
-1.23688e-07
-0.00113177
-5.01031e-08
-1.23585e-06
2.80074e-07
-2.42343e-07
-8.57901e-07
2.68992e-07
-2.15048e-07
9.16624e-07
-1.24106e-06
0.000270145
-0.000268109
2.41727e-07
2.44015e-07
0.00113241
-1.2407e-07
-0.00113243
-5.02794e-08
-1.1937e-06
2.74759e-07
-2.36832e-07
-8.55054e-07
2.69072e-07
-2.15001e-07
9.13935e-07
1.27501e-06
0.00113141
-1.23618e-07
-0.00113143
-5.03534e-08
-1.23037e-06
2.8012e-07
-2.42293e-07
-8.5507e-07
2.68915e-07
-2.15004e-07
9.13742e-07
-1.23858e-07
-0.00113216
-5.04971e-08
-1.19629e-06
2.71928e-07
-2.33891e-07
-8.52384e-07
2.66242e-07
9.11126e-07
-2.12245e-07
1.26953e-06
0.0011312
-1.2367e-07
-0.00113122
-5.02443e-08
-1.22495e-06
2.74481e-07
-2.3667e-07
-8.52406e-07
2.66189e-07
-2.12243e-07
9.11087e-07
-1.23555e-06
0.000270093
-0.000268068
2.39037e-07
2.46621e-07
-1.24031e-07
-0.0011318
-5.03855e-08
-1.19087e-06
2.71915e-07
-2.33936e-07
-8.52188e-07
2.68964e-07
9.11054e-07
-2.14941e-07
1.23568e-06
0.00113231
-1.24011e-07
-0.00113233
-5.04e-08
-1.19098e-06
2.72033e-07
-2.34026e-07
-8.52448e-07
2.69017e-07
-2.14992e-07
9.11275e-07
-0.000268081
2.4149e-07
2.46784e-07
1.23022e-06
1.19363e-06
-1.95409e-07
-2.03182e-07
0.00026809
-1.27481e-06
-1.23816e-06
0.000270126
-0.000268098
2.38585e-07
2.46513e-07
-5.07096e-08
0.00113128
-2.39392e-07
1.27494e-06
2.77274e-07
9.11046e-07
-2.12232e-07
-8.52359e-07
2.66157e-07
-1.23579e-06
-1.24227e-07
-5.03272e-08
0.00113173
-2.42314e-07
1.28037e-06
2.80038e-07
9.16605e-07
-2.15009e-07
-8.57856e-07
2.68955e-07
0.00113123
-1.25268e-07
-0.00113125
-5.1167e-08
-1.23007e-06
2.77139e-07
-2.39318e-07
-8.52246e-07
2.66019e-07
-2.12191e-07
9.10958e-07
1.28024e-06
0.00113167
-1.25366e-07
-0.00113169
-5.083e-08
-1.23562e-06
2.79906e-07
-2.42235e-07
-8.57741e-07
2.68819e-07
-2.14975e-07
9.16508e-07
-1.98067e-07
-2.0056e-07
0.000268111
-1.24087e-06
0.000270155
-0.000268119
2.41416e-07
2.43714e-07
-5.05517e-08
0.00113239
-2.36809e-07
1.23829e-06
2.74718e-07
9.139e-07
-2.14951e-07
-8.54995e-07
2.69036e-07
-1.23031e-06
-1.24148e-07
-5.05645e-08
0.00113139
-2.42265e-07
1.27497e-06
2.80086e-07
9.13722e-07
-2.14955e-07
-8.55024e-07
2.68876e-07
0.00113233
-1.25766e-07
-0.00113235
-5.09895e-08
-1.19347e-06
2.74584e-07
-2.36733e-07
-8.54895e-07
2.68903e-07
-2.14903e-07
9.13812e-07
1.27483e-06
0.00113133
-1.25294e-07
-0.00113135
-5.10732e-08
-1.23014e-06
2.79955e-07
-2.42184e-07
-8.54911e-07
2.68738e-07
-2.14921e-07
9.13623e-07
-1.242e-07
-5.04509e-08
0.00113118
-2.36645e-07
1.26949e-06
2.74448e-07
9.11062e-07
-2.12212e-07
2.66157e-07
-8.52361e-07
-1.25557e-07
-0.00113208
-5.11885e-08
-1.19607e-06
2.71748e-07
-2.33796e-07
-8.52227e-07
2.66082e-07
9.11007e-07
-2.12151e-07
1.26934e-06
0.00113112
-1.25357e-07
-0.00113114
-5.09518e-08
-1.22473e-06
2.74307e-07
-2.3657e-07
-8.52243e-07
2.6603e-07
-2.12141e-07
9.10982e-07
-1.95472e-07
-2.03095e-07
0.000268071
-1.23536e-06
0.000270104
-0.000268078
2.38725e-07
2.46322e-07
-1.24554e-07
-5.06057e-08
0.00113229
-2.34002e-07
1.23563e-06
2.71998e-07
9.11252e-07
-2.14963e-07
2.68983e-07
-8.52399e-07
-1.25739e-07
-0.00113172
-5.10712e-08
-1.19065e-06
2.71735e-07
-2.33842e-07
-8.52024e-07
2.68801e-07
9.10946e-07
-2.1485e-07
1.23549e-06
0.00113223
-1.25689e-07
-0.00113225
-5.11158e-08
-1.19077e-06
2.71862e-07
-2.33925e-07
-8.52279e-07
2.68852e-07
-2.14892e-07
9.1116e-07
-0.000268091
2.41182e-07
2.46473e-07
1.23003e-06
1.19343e-06
-1.95366e-07
-2.03144e-07
0.000268101
-1.27461e-06
-1.23796e-06
0.000270138
-0.00026811
2.38268e-07
2.46193e-07
-5.13614e-08
0.00113121
-2.39306e-07
1.27477e-06
2.77097e-07
9.10918e-07
-2.12164e-07
-8.52228e-07
2.65981e-07
-1.23558e-06
-1.25792e-07
-5.10181e-08
0.00113166
-2.42219e-07
1.2802e-06
2.79866e-07
9.16474e-07
-2.14949e-07
-8.57719e-07
2.68775e-07
0.00113116
-1.26431e-07
-0.00113117
-5.16657e-08
-1.22994e-06
2.76934e-07
-2.39296e-07
-8.52201e-07
2.65798e-07
-2.12194e-07
9.10791e-07
1.28004e-06
0.0011316
-1.26526e-07
-0.00113162
-5.13595e-08
-1.23549e-06
2.79709e-07
-2.42204e-07
-8.57695e-07
2.68589e-07
-2.14982e-07
9.16339e-07
-1.98026e-07
-2.00508e-07
0.000268122
-1.24067e-06
0.000270168
-0.000268131
2.41091e-07
2.434e-07
-5.12147e-08
0.00113232
-2.3672e-07
1.23812e-06
2.74544e-07
9.13777e-07
-2.14895e-07
-8.54872e-07
2.68859e-07
-1.2301e-06
-1.25717e-07
-5.12476e-08
0.00113131
-2.42169e-07
1.27479e-06
2.79915e-07
9.13586e-07
-2.1491e-07
-8.54898e-07
2.68701e-07
0.00113227
-1.26924e-07
-0.00113228
-5.14833e-08
-1.19334e-06
2.74382e-07
-2.36707e-07
-8.54852e-07
2.68676e-07
-2.14923e-07
9.13644e-07
1.27464e-06
0.00113126
-1.26443e-07
-0.00113128
-5.15886e-08
-1.23e-06
2.79761e-07
-2.42151e-07
-8.54874e-07
2.68512e-07
-2.14938e-07
9.13451e-07
-1.25781e-07
-5.11211e-08
0.00113111
-2.36557e-07
1.2693e-06
2.74266e-07
9.10951e-07
-2.12138e-07
2.65988e-07
-8.52228e-07
-1.26722e-07
-0.00113201
-5.16881e-08
-1.19594e-06
2.71541e-07
-2.33774e-07
-8.52183e-07
2.65859e-07
9.10845e-07
-2.12162e-07
1.26914e-06
0.00113105
-1.26526e-07
-0.00113107
-5.14391e-08
-1.2246e-06
2.74105e-07
-2.36545e-07
-8.52199e-07
2.65808e-07
-2.12153e-07
9.10812e-07
-1.95431e-07
-2.03042e-07
0.000268081
-1.23516e-06
0.000270116
-0.000268091
2.38401e-07
2.4601e-07
-1.26119e-07
-5.12828e-08
0.00113221
-2.3391e-07
1.23545e-06
2.7182e-07
9.11125e-07
-2.14895e-07
2.68812e-07
-8.52265e-07
-1.26915e-07
-0.00113165
-5.15551e-08
-1.19052e-06
2.71526e-07
-2.33821e-07
-8.51979e-07
2.68586e-07
9.10782e-07
-2.14858e-07
1.23529e-06
0.00113216
-1.26848e-07
-0.00113218
-5.161e-08
-1.19063e-06
2.71663e-07
-2.33896e-07
-8.52237e-07
2.68628e-07
-2.14911e-07
9.1099e-07
-0.000268103
2.4087e-07
2.46156e-07
1.22993e-06
1.19333e-06
-1.95385e-07
-2.03167e-07
0.000268114
-1.27439e-06
-1.23774e-06
0.000270153
-0.000268124
2.37924e-07
2.45848e-07
-5.18164e-08
0.00113114
-2.39298e-07
1.27457e-06
2.76889e-07
9.1074e-07
-2.12202e-07
-8.52211e-07
2.65747e-07
-1.23547e-06
-1.26843e-07
-5.14944e-08
0.00113159
-2.42205e-07
1.28e-06
2.79665e-07
9.16294e-07
-2.15001e-07
-8.57708e-07
2.68532e-07
0.0011311
-1.27078e-07
-0.00113111
-5.19342e-08
-1.22991e-06
2.76698e-07
-2.39344e-07
-8.52274e-07
2.65519e-07
-2.12307e-07
9.10568e-07
1.27983e-06
0.00113154
-1.27153e-07
-0.00113156
-5.16693e-08
-1.23545e-06
2.79484e-07
-2.42247e-07
-8.57775e-07
2.68301e-07
-2.15111e-07
9.16113e-07
-1.98052e-07
-2.00524e-07
0.000268135
-1.24045e-06
0.000270182
-0.000268146
2.4074e-07
2.43061e-07
-5.16662e-08
0.00113225
-2.3671e-07
1.23792e-06
2.74338e-07
9.13596e-07
-2.14934e-07
-8.5486e-07
2.68621e-07
-1.22999e-06
-1.26766e-07
-5.1728e-08
0.00113124
-2.42153e-07
1.2746e-06
2.79716e-07
9.13405e-07
-2.14947e-07
-8.54886e-07
2.68461e-07
0.00113221
-1.2757e-07
-0.00113222
-5.17672e-08
-1.19331e-06
2.74149e-07
-2.36752e-07
-8.54927e-07
2.68398e-07
-2.15031e-07
9.1342e-07
1.27443e-06
0.0011312
-1.27079e-07
-0.00113121
-5.19041e-08
-1.22996e-06
2.79539e-07
-2.42193e-07
-8.54948e-07
2.6823e-07
-2.15053e-07
9.13228e-07
-1.26837e-07
-5.15622e-08
0.00113104
-2.36548e-07
1.2691e-06
2.74059e-07
9.10764e-07
-2.12173e-07
2.65756e-07
-8.52213e-07
-1.27387e-07
-0.00113195
-5.19687e-08
-1.19591e-06
2.71306e-07
-2.33827e-07
-8.52251e-07
2.65586e-07
9.10629e-07
-2.1227e-07
1.26893e-06
0.00113099
-1.27177e-07
-0.00113101
-5.17393e-08
-1.22456e-06
2.73872e-07
-2.3659e-07
-8.52272e-07
2.6553e-07
-2.12266e-07
9.10587e-07
-1.95456e-07
-2.03057e-07
0.000268094
-1.23493e-06
0.000270131
-0.000268105
2.38053e-07
2.45672e-07
-1.27177e-07
-5.17425e-08
0.00113214
-2.33897e-07
1.23525e-06
2.71617e-07
9.10945e-07
-2.14931e-07
2.68575e-07
-8.52251e-07
-1.27583e-07
-0.00113158
-5.18288e-08
-1.19049e-06
2.71292e-07
-2.33873e-07
-8.52047e-07
2.68313e-07
9.10566e-07
-2.14966e-07
1.23508e-06
0.0011321
-1.27492e-07
-0.00113211
-5.19223e-08
-1.19059e-06
2.71433e-07
-2.33937e-07
-8.52313e-07
2.68343e-07
-2.15033e-07
9.10765e-07
-0.000268118
2.40529e-07
2.45812e-07
1.22992e-06
1.19332e-06
-1.95471e-07
-2.03256e-07
0.000268128
-1.27413e-06
-1.23749e-06
0.000270169
-0.000268141
2.37548e-07
2.45466e-07
-5.20481e-08
0.00113108
-2.39363e-07
1.27434e-06
2.76649e-07
9.10508e-07
-2.12341e-07
-8.5231e-07
2.65457e-07
-1.23545e-06
-1.27389e-07
-5.17748e-08
0.00113153
-2.42266e-07
1.27978e-06
2.79436e-07
9.16056e-07
-2.15149e-07
-8.57815e-07
2.68238e-07
0.00113105
-1.27245e-07
-0.00113106
-5.20029e-08
-1.22996e-06
2.76438e-07
-2.39455e-07
-8.52457e-07
2.6519e-07
-2.12513e-07
9.10292e-07
1.27958e-06
0.00113149
-1.27302e-07
-0.0011315
-5.17885e-08
-1.23549e-06
2.79233e-07
-2.42352e-07
-8.57963e-07
2.67967e-07
-2.15325e-07
9.15833e-07
-1.98144e-07
-2.00605e-07
0.00026815
-1.24019e-06
0.000270199
-0.000268162
2.4036e-07
2.4269e-07
-5.1916e-08
0.00113219
-2.36771e-07
1.2377e-06
2.74102e-07
9.13364e-07
-2.15078e-07
-8.54963e-07
2.68331e-07
-1.22996e-06
-1.27317e-07
-5.20112e-08
0.00113119
-2.42211e-07
1.27438e-06
2.79494e-07
9.1317e-07
-2.15091e-07
-8.54988e-07
2.68168e-07
0.00113215
-1.27725e-07
-0.00113217
-5.18537e-08
-1.19335e-06
2.73895e-07
-2.36856e-07
-8.55114e-07
2.68064e-07
-2.15249e-07
9.13142e-07
1.27419e-06
0.00113115
-1.27225e-07
-0.00113116
-5.20129e-08
-1.23e-06
2.79283e-07
-2.42299e-07
-8.55132e-07
2.67901e-07
-2.15262e-07
9.12951e-07
-1.27407e-07
-5.18322e-08
0.00113098
-2.3661e-07
1.26888e-06
2.73821e-07
9.10532e-07
-2.12312e-07
2.65466e-07
-8.52312e-07
-1.27564e-07
-0.00113189
-5.20418e-08
-1.19596e-06
2.71044e-07
-2.3394e-07
-8.52433e-07
2.65258e-07
9.10355e-07
-2.12481e-07
1.26867e-06
0.00113094
-1.27349e-07
-0.00113095
-5.18298e-08
-1.2246e-06
2.73613e-07
-2.36699e-07
-8.52454e-07
2.65198e-07
-2.12482e-07
9.10312e-07
-1.95546e-07
-2.03137e-07
0.000268109
-1.23468e-06
0.000270147
-0.000268121
2.37679e-07
2.45306e-07
-1.27735e-07
-5.20249e-08
0.00113209
-2.33956e-07
1.23503e-06
2.71382e-07
9.1071e-07
-2.15073e-07
2.68282e-07
-8.52354e-07
-1.27768e-07
-0.00113153
-5.18964e-08
-1.19054e-06
2.71031e-07
-2.33981e-07
-8.52225e-07
2.6799e-07
9.10293e-07
-2.15169e-07
1.23483e-06
0.00113205
-1.27656e-07
-0.00113206
-5.20399e-08
-1.19063e-06
2.71178e-07
-2.34041e-07
-8.52499e-07
2.68011e-07
-2.15245e-07
9.10486e-07
-0.000268134
2.40153e-07
2.45432e-07
1.22999e-06
1.19338e-06
-1.95618e-07
-2.03411e-07
0.000268145
-1.27385e-06
-1.23722e-06
0.000270187
-0.000268158
2.37154e-07
2.45065e-07
-5.20902e-08
0.00113103
-2.39497e-07
1.27408e-06
2.76383e-07
9.10222e-07
-2.12576e-07
-8.52521e-07
2.65119e-07
-1.23552e-06
-1.2746e-07
-5.18694e-08
0.00113148
-2.42388e-07
1.27953e-06
2.79181e-07
9.15765e-07
-2.15388e-07
-8.58031e-07
2.67896e-07
0.001131
-1.26949e-07
-0.00113101
-5.18869e-08
-1.2301e-06
2.76151e-07
-2.39642e-07
-8.52741e-07
2.64815e-07
-2.12813e-07
9.09969e-07
1.27932e-06
0.00113145
-1.26998e-07
-0.00113146
-5.17196e-08
-1.23562e-06
2.78957e-07
-2.42524e-07
-8.5825e-07
2.67592e-07
-2.15625e-07
9.15508e-07
-1.98298e-07
-2.00753e-07
0.000268166
-1.23992e-06
0.000270216
-0.000268179
2.39965e-07
2.42298e-07
-5.19781e-08
0.00113214
-2.36898e-07
1.23744e-06
2.73842e-07
9.13073e-07
-2.15317e-07
-8.55178e-07
2.67989e-07
-1.23005e-06
-1.27385e-07
-5.20886e-08
0.00113114
-2.42332e-07
1.27413e-06
2.7923e-07
9.12885e-07
-2.15325e-07
-8.55199e-07
2.6783e-07
0.00113211
-1.27412e-07
-0.00113212
-5.17594e-08
-1.19348e-06
2.73617e-07
-2.37035e-07
-8.55404e-07
2.67683e-07
-2.15556e-07
9.12813e-07
1.27391e-06
0.0011311
-1.26921e-07
-0.00113111
-5.19282e-08
-1.23013e-06
2.79002e-07
-2.42476e-07
-8.55419e-07
2.67525e-07
-2.15563e-07
9.12626e-07
-1.27504e-07
-5.18952e-08
0.00113093
-2.3674e-07
1.26861e-06
2.73558e-07
9.10247e-07
-2.12543e-07
2.65129e-07
-8.52521e-07
-1.27288e-07
-0.00113185
-5.19394e-08
-1.19609e-06
2.70763e-07
-2.34118e-07
-8.52714e-07
2.64885e-07
9.10033e-07
-2.12779e-07
1.26839e-06
0.0011309
-1.27068e-07
-0.00113091
-5.17301e-08
-1.22474e-06
2.73328e-07
-2.36882e-07
-8.52735e-07
2.64827e-07
-2.12777e-07
9.09994e-07
-1.95708e-07
-2.03293e-07
0.000268126
-1.2344e-06
0.000270165
-0.000268139
2.37277e-07
2.44906e-07
-1.27819e-07
-5.21134e-08
0.00113204
-2.3408e-07
1.23477e-06
2.71126e-07
9.10422e-07
-2.15308e-07
2.67941e-07
-8.52567e-07
-1.27484e-07
-0.00113148
-5.17829e-08
-1.19067e-06
2.70748e-07
-2.34164e-07
-8.5251e-07
2.67615e-07
9.09974e-07
-2.15467e-07
1.23456e-06
0.001132
-1.27356e-07
-0.00113201
-5.19702e-08
-1.19075e-06
2.70903e-07
-2.34215e-07
-8.52784e-07
2.67634e-07
-2.15546e-07
9.10163e-07
-0.000268152
2.39764e-07
2.45035e-07
1.23015e-06
1.19353e-06
-1.95823e-07
-2.03626e-07
0.000268163
-1.27355e-06
-1.23692e-06
0.000270206
-0.000268177
2.36736e-07
2.44641e-07
-5.19421e-08
0.00113099
-2.39699e-07
1.27379e-06
2.76091e-07
9.0989e-07
-2.12899e-07
-8.52833e-07
2.64733e-07
-1.23568e-06
-1.27088e-07
-5.17646e-08
0.00113144
-2.42575e-07
1.27927e-06
2.78896e-07
9.15435e-07
-2.1571e-07
-8.58344e-07
2.67512e-07
0.00113096
-1.2621e-07
-0.00113097
-5.1586e-08
-1.23031e-06
2.75837e-07
-2.39887e-07
-8.53122e-07
2.64392e-07
-2.13195e-07
9.09598e-07
1.27902e-06
0.00113141
-1.26254e-07
-0.00113142
-5.14599e-08
-1.23582e-06
2.78652e-07
-2.42759e-07
-8.58633e-07
2.6717e-07
-2.16006e-07
9.15139e-07
-1.98515e-07
-2.00967e-07
0.000268184
-1.23961e-06
0.000270236
-0.000268198
2.39545e-07
2.41879e-07
-5.18532e-08
0.0011321
-2.37091e-07
1.23716e-06
2.73558e-07
9.12737e-07
-2.15648e-07
-8.55496e-07
2.67597e-07
-1.23018e-06
-1.27014e-07
-5.19678e-08
0.00113109
-2.42531e-07
1.27385e-06
2.78942e-07
9.12551e-07
-2.15648e-07
-8.55513e-07
2.67444e-07
0.00113207
-1.26653e-07
-0.00113208
-5.14888e-08
-1.19368e-06
2.73312e-07
-2.37269e-07
-8.55794e-07
2.67255e-07
-2.15946e-07
9.12437e-07
1.27361e-06
0.00113107
-1.26176e-07
-0.00113108
-5.16424e-08
-1.23034e-06
2.78691e-07
-2.42717e-07
-8.55801e-07
2.67102e-07
-2.15944e-07
9.12255e-07
-1.27156e-07
-5.17611e-08
0.00113089
-2.36938e-07
1.26833e-06
2.73269e-07
9.09919e-07
-2.12862e-07
2.64746e-07
-8.52828e-07
-1.26561e-07
-0.00113181
-5.16665e-08
-1.1963e-06
2.70457e-07
-2.34352e-07
-8.53095e-07
2.64462e-07
9.09663e-07
-2.13161e-07
1.26809e-06
0.00113086
-1.26346e-07
-0.00113087
-5.14398e-08
-1.22495e-06
2.73016e-07
-2.37124e-07
-8.53113e-07
2.64407e-07
-2.13155e-07
9.09626e-07
-1.95905e-07
-2.03492e-07
0.000268144
-1.2341e-06
0.000270184
-0.000268158
2.3686e-07
2.44484e-07
-1.27449e-07
-5.20108e-08
0.00113199
-2.34268e-07
1.2345e-06
2.70846e-07
9.10088e-07
-2.15634e-07
2.67552e-07
-8.5288e-07
-1.26744e-07
-0.00113144
-5.14944e-08
-1.19088e-06
2.70442e-07
-2.34399e-07
-8.52891e-07
2.67189e-07
9.09599e-07
-2.15853e-07
1.23426e-06
0.00113197
-1.26605e-07
-0.00113197
-5.17158e-08
-1.19095e-06
2.706e-07
-2.34447e-07
-8.53169e-07
2.67207e-07
-2.15933e-07
9.09789e-07
-0.00026817
2.39351e-07
2.44612e-07
1.23038e-06
1.19376e-06
-1.96083e-07
-2.03896e-07
0.000268182
-1.27321e-06
-1.23659e-06
0.000270227
-0.000268197
2.36295e-07
2.44192e-07
-5.16359e-08
0.00113095
-2.3996e-07
1.27349e-06
2.75777e-07
9.09516e-07
-2.13303e-07
-8.53239e-07
2.64307e-07
-1.23589e-06
-1.2633e-07
-5.1498e-08
0.0011314
-2.4283e-07
1.27896e-06
2.78591e-07
9.15059e-07
-2.16115e-07
-8.58753e-07
2.67085e-07
0.00113093
-1.25054e-07
-0.00113094
-5.11101e-08
-1.23059e-06
2.75498e-07
-2.40187e-07
-8.53593e-07
2.63923e-07
-2.13654e-07
9.09178e-07
1.27869e-06
0.00113138
-1.25096e-07
-0.00113139
-5.10119e-08
-1.2361e-06
2.78316e-07
-2.43055e-07
-8.59106e-07
2.66699e-07
-2.16469e-07
9.14716e-07
-1.98768e-07
-2.01218e-07
0.000268203
-1.23929e-06
0.000270256
-0.000268218
2.39102e-07
2.41435e-07
-5.15806e-08
0.00113206
-2.37342e-07
1.23686e-06
2.73254e-07
9.12358e-07
-2.16062e-07
-8.55912e-07
2.67166e-07
-1.23042e-06
-1.26252e-07
-5.1671e-08
0.00113106
-2.42791e-07
1.27355e-06
2.78629e-07
9.12177e-07
-2.16053e-07
-8.5592e-07
2.67018e-07
0.00113204
-1.25473e-07
-0.00113205
-5.10489e-08
-1.19395e-06
2.72982e-07
-2.37559e-07
-8.56274e-07
2.66784e-07
-2.16417e-07
9.12015e-07
1.27328e-06
0.00113103
-1.25015e-07
-0.00113104
-5.11648e-08
-1.23063e-06
2.78348e-07
-2.4302e-07
-8.56273e-07
2.66634e-07
-2.16404e-07
9.11835e-07
-1.26417e-07
-5.14626e-08
0.00113085
-2.37197e-07
1.26803e-06
2.72955e-07
9.09549e-07
-2.13263e-07
2.64323e-07
-8.53232e-07
-1.25406e-07
-0.00113177
-5.12183e-08
-1.19658e-06
2.70123e-07
-2.34645e-07
-8.53568e-07
2.63989e-07
9.09241e-07
-2.13624e-07
1.26776e-06
0.00113083
-1.25202e-07
-0.00113084
-5.09637e-08
-1.22523e-06
2.72675e-07
-2.37425e-07
-8.53583e-07
2.6394e-07
-2.13613e-07
9.09208e-07
-1.96166e-07
-2.03759e-07
0.000268163
-1.23378e-06
0.000270205
-0.000268178
2.36418e-07
2.44034e-07
-1.2668e-07
-5.17487e-08
0.00113196
-2.34517e-07
1.2342e-06
2.70542e-07
9.09711e-07
-2.16043e-07
2.67122e-07
-8.5329e-07
-1.2557e-07
-0.00113141
-5.10355e-08
-1.19115e-06
2.70109e-07
-2.34691e-07
-8.53367e-07
2.66714e-07
9.09173e-07
-2.16319e-07
1.23394e-06
0.00113193
-1.25429e-07
-0.00113194
-5.12782e-08
-1.19123e-06
2.70268e-07
-2.34738e-07
-8.53645e-07
2.66733e-07
-2.16398e-07
9.09364e-07
-0.000268191
2.3891e-07
2.44163e-07
1.23069e-06
1.19406e-06
-1.96396e-07
-2.04219e-07
0.000268202
-1.27286e-06
-1.23625e-06
0.000270248
-0.000268218
2.35831e-07
2.43721e-07
-5.11702e-08
0.00113092
-2.40279e-07
1.27316e-06
2.75438e-07
9.09095e-07
-2.13785e-07
-8.53735e-07
2.63836e-07
-1.2362e-06
-1.25195e-07
-5.10588e-08
0.00113137
-2.43145e-07
1.27864e-06
2.78256e-07
9.14637e-07
-2.166e-07
-8.59251e-07
2.66614e-07
0.00113091
-1.23501e-07
-0.00113091
-5.04598e-08
-1.23095e-06
2.75131e-07
-2.40539e-07
-8.54143e-07
2.63407e-07
-2.14183e-07
9.08708e-07
1.27834e-06
0.00113135
-1.2354e-07
-0.00113136
-5.03807e-08
-1.23645e-06
2.77953e-07
-2.43404e-07
-8.59659e-07
2.66184e-07
-2.16998e-07
9.14246e-07
-1.99083e-07
-2.01537e-07
0.000268224
-1.23894e-06
0.000270277
-0.00026824
2.38635e-07
2.40964e-07
-5.11517e-08
0.00113203
-2.37651e-07
1.23654e-06
2.72923e-07
9.11934e-07
-2.16555e-07
-8.56417e-07
2.66695e-07
-1.23073e-06
-1.25115e-07
-5.12009e-08
0.00113103
-2.43113e-07
1.27322e-06
2.78286e-07
9.11756e-07
-2.16535e-07
-8.56417e-07
2.66548e-07
0.00113201
-1.23891e-07
-0.00113202
-5.04357e-08
-1.1943e-06
2.72623e-07
-2.37902e-07
-8.56835e-07
2.6627e-07
-2.16958e-07
9.11544e-07
1.27292e-06
0.00113101
-1.23457e-07
-0.00113101
-5.05025e-08
-1.23098e-06
2.77978e-07
-2.43376e-07
-8.56824e-07
2.66119e-07
-2.16932e-07
9.11366e-07
-1.25293e-07
-5.09974e-08
0.00113082
-2.37516e-07
1.2677e-06
2.72616e-07
9.09128e-07
-2.13744e-07
2.63854e-07
-8.53727e-07
-1.23841e-07
-0.00113175
-5.05997e-08
-1.19692e-06
2.69763e-07
-2.3499e-07
-8.5412e-07
2.6347e-07
9.08767e-07
-2.14157e-07
1.2674e-06
0.0011308
-1.23652e-07
-0.00113081
-5.03091e-08
-1.22558e-06
2.72308e-07
-2.37777e-07
-8.54133e-07
2.63424e-07
-2.14142e-07
9.08738e-07
-1.9648e-07
-2.04084e-07
0.000268183
-1.23343e-06
0.000270226
-0.000268199
2.35951e-07
2.43559e-07
-1.25525e-07
-5.13214e-08
0.00113193
-2.34826e-07
1.23388e-06
2.70211e-07
9.09284e-07
-2.16531e-07
2.66646e-07
-8.53791e-07
-1.23985e-07
-0.00113138
-5.04057e-08
-1.1915e-06
2.6975e-07
-2.35035e-07
-8.53925e-07
2.66191e-07
9.08698e-07
-2.16855e-07
1.23359e-06
0.00113191
-1.23847e-07
-0.00113191
-5.0659e-08
-1.19157e-06
2.69908e-07
-2.35082e-07
-8.54201e-07
2.66212e-07
-2.16933e-07
9.0889e-07
-0.000268212
2.38444e-07
2.43691e-07
1.23107e-06
1.19442e-06
-1.96758e-07
-2.0459e-07
0.000268224
-1.27247e-06
-1.23587e-06
0.00027027
-0.00026824
2.35337e-07
2.4322e-07
-5.05612e-08
0.0011309
-2.40649e-07
1.27281e-06
2.75074e-07
9.08626e-07
-2.14336e-07
-8.54312e-07
2.63322e-07
-1.23657e-06
-1.23721e-07
-5.04686e-08
0.00113135
-2.43513e-07
1.27829e-06
2.77896e-07
9.14169e-07
-2.17149e-07
-8.59828e-07
2.661e-07
0.00113088
-1.21563e-07
-0.00113089
-4.96533e-08
-1.23136e-06
2.74733e-07
-2.40935e-07
-8.54758e-07
2.62841e-07
-2.14768e-07
9.0818e-07
1.27796e-06
0.00113133
-1.21602e-07
-0.00113134
-4.95911e-08
-1.23686e-06
2.77559e-07
-2.43797e-07
-8.60275e-07
2.6562e-07
-2.17582e-07
9.13719e-07
-1.99448e-07
-2.01906e-07
0.000268245
-1.23856e-06