/*--------------------------------*- C++ -*----------------------------------*\
| =========                 |                                                 |
| \\      /  F ield         | OpenFOAM: The Open Source CFD Toolbox           |
|  \\    /   O peration     | Version:  v1906                                 |
|   \\  /    A nd           | Web:      www.OpenFOAM.com                      |
|    \\/     M anipulation  |                                                 |
\*---------------------------------------------------------------------------*/
FoamFile
{
    version     2.0;
    format      ascii;
    class       volVectorField;
    location    "850";
    object      U;
}
// * * * * * * * * * * * * * * * * * * * * * * * * * * * * * * * * * * * * * //

dimensions      [0 1 -1 0 0 0 0];


internalField   nonuniform List<vector> 
43024
(
(-1.02836e-05 -1.02624e-05 0.112443)
(1.13872e-05 -6.20744e-06 0.107483)
(-6.19766e-06 1.14063e-05 0.107483)
(-2.37684e-05 -2.37723e-05 0.104205)
(-1.05365e-05 -1.05153e-05 0.112408)
(1.1458e-05 -6.27982e-06 0.107476)
(-6.26997e-06 1.1478e-05 0.107475)
(-2.37082e-05 -2.37132e-05 0.10421)
(-1.0732e-05 -1.0711e-05 0.112373)
(1.1487e-05 -6.3265e-06 0.10747)
(-6.31602e-06 1.15083e-05 0.107469)
(-2.36772e-05 -2.36849e-05 0.104215)
(-1.08747e-05 -1.08541e-05 0.112338)
(1.1478e-05 -6.34808e-06 0.107464)
(-6.33795e-06 1.14998e-05 0.107463)
(-2.36753e-05 -2.36839e-05 0.104221)
(-1.09674e-05 -1.09476e-05 0.112305)
(1.14303e-05 -6.34774e-06 0.107459)
(-6.33658e-06 1.14526e-05 0.107459)
(-2.37013e-05 -2.37116e-05 0.104228)
(-1.10128e-05 -1.09945e-05 0.112272)
(1.13456e-05 -6.32463e-06 0.107455)
(-6.31255e-06 1.13674e-05 0.107455)
(-2.37526e-05 -2.37661e-05 0.104235)
(-1.10147e-05 -1.09982e-05 0.112239)
(1.12314e-05 -6.28344e-06 0.107452)
(-6.27089e-06 1.1252e-05 0.107451)
(-2.38297e-05 -2.3847e-05 0.104243)
(-1.09762e-05 -1.09619e-05 0.112208)
(1.10856e-05 -6.22319e-06 0.107449)
(-6.21032e-06 1.11048e-05 0.107448)
(-2.39322e-05 -2.3953e-05 0.104251)
(-1.09017e-05 -1.089e-05 0.112177)
(1.09125e-05 -6.14579e-06 0.107447)
(-6.13234e-06 1.09301e-05 0.107446)
(-2.40587e-05 -2.40819e-05 0.10426)
(-1.07946e-05 -1.07858e-05 0.112147)
(1.0717e-05 -6.05281e-06 0.107445)
(-6.03931e-06 1.07326e-05 0.107444)
(-2.42067e-05 -2.42311e-05 0.104268)
(-1.06588e-05 -1.06526e-05 0.112118)
(1.05026e-05 -5.94806e-06 0.107444)
(-5.93403e-06 1.05161e-05 0.107443)
(-2.43728e-05 -2.43968e-05 0.104278)
(-1.04994e-05 -1.04953e-05 0.11209)
(1.02749e-05 -5.83391e-06 0.107443)
(-5.82033e-06 1.02862e-05 0.107443)
(-2.45605e-05 -2.45824e-05 0.104287)
(-1.03278e-05 -1.03249e-05 0.112063)
(1.00454e-05 -5.71557e-06 0.107443)
(-5.7021e-06 1.00548e-05 0.107442)
(-2.47582e-05 -2.47764e-05 0.104296)
(-1.01589e-05 -1.01561e-05 0.112038)
(9.8158e-06 -5.59303e-06 0.107444)
(-5.57962e-06 9.82375e-06 0.107443)
(-2.49583e-05 -2.49715e-05 0.104306)
(-1.00159e-05 -1.00126e-05 0.112014)
(9.60456e-06 -5.47319e-06 0.107445)
(-5.46173e-06 9.61342e-06 0.107444)
(-2.51445e-05 -2.5153e-05 0.104315)
(-9.95257e-06 -9.94827e-06 0.111992)
(9.43359e-06 -5.34725e-06 0.107447)
(-5.33944e-06 9.44234e-06 0.107446)
(-2.5259e-05 -2.52638e-05 0.104325)
(-1.00884e-05 -1.00824e-05 0.111973)
(9.31041e-06 -5.17209e-06 0.10745)
(-5.1673e-06 9.31845e-06 0.107449)
(-2.51299e-05 -2.51334e-05 0.104335)
(-1.07138e-05 -1.07048e-05 0.111956)
(9.17132e-06 -4.78982e-06 0.107455)
(-4.78951e-06 9.18022e-06 0.107454)
(-2.41259e-05 -2.41323e-05 0.104348)
(-1.25055e-05 -1.24901e-05 0.111943)
(8.66243e-06 -3.59926e-06 0.107461)
(-3.61234e-06 8.67902e-06 0.10746)
(-1.99813e-05 -1.99969e-05 0.104368)
(-2.16982e-05 -2.16382e-05 0.111932)
(1.06154e-05 -2.11623e-06 0.107472)
(-2.19188e-06 1.06979e-05 0.107471)
(-4.89982e-06 -4.86218e-06 0.104422)
(-2.50244e-05 -2.4877e-05 0.112035)
(0.000121489 -5.98707e-05 0.10773)
(-5.99709e-05 0.000121484 0.10773)
(4.0909e-05 4.09456e-05 0.10478)
(-4.15686e-05 -4.15452e-05 0.104319)
(-6.16545e-06 -1.1335e-05 0.107483)
(6.13271e-06 -1.13495e-05 0.107483)
(4.15496e-05 -4.1563e-05 0.104319)
(-1.13758e-05 -6.16313e-06 0.107485)
(-1.13417e-05 6.15772e-06 0.107482)
(1.13576e-05 -6.1808e-06 0.107485)
(1.13433e-05 6.14551e-06 0.107483)
(-4.15445e-05 4.15722e-05 0.104319)
(-6.17146e-06 1.1377e-05 0.107485)
(6.17464e-06 1.13736e-05 0.107484)
(4.15661e-05 4.15508e-05 0.104318)
(2.37481e-05 2.37636e-05 0.104205)
(-4.14375e-05 -4.14152e-05 0.104322)
(-6.19185e-06 -1.13656e-05 0.107482)
(6.15959e-06 -1.13798e-05 0.107481)
(-6.24461e-06 -1.14132e-05 0.107476)
(6.21307e-06 -1.14251e-05 0.107475)
(-2.37773e-05 2.37247e-05 0.104205)
(4.14166e-05 -4.14261e-05 0.104323)
(-1.14055e-05 -6.18979e-06 0.107483)
(-1.13724e-05 6.18485e-06 0.10748)
(-1.14531e-05 -6.24232e-06 0.107477)
(-1.1418e-05 6.2393e-06 0.107475)
(1.13737e-05 6.17151e-06 0.107481)
(1.1435e-05 -6.25814e-06 0.107478)
(1.14222e-05 6.22697e-06 0.107475)
(2.37408e-05 -2.37797e-05 0.104205)
(-4.14071e-05 4.14399e-05 0.104322)
(6.20031e-06 1.14037e-05 0.107482)
(-6.24794e-06 1.14556e-05 0.107477)
(6.25692e-06 1.14509e-05 0.107477)
(4.14289e-05 4.14126e-05 0.104322)
(2.36927e-05 2.37067e-05 0.10421)
(-4.13014e-05 -4.12803e-05 0.104327)
(-6.26745e-06 -1.14365e-05 0.107474)
(6.23712e-06 -1.14487e-05 0.107473)
(-6.29505e-06 -1.14487e-05 0.107469)
(6.26877e-06 -1.1458e-05 0.107468)
(-2.37151e-05 2.36665e-05 0.10421)
(4.12819e-05 -4.12885e-05 0.104327)
(-1.14756e-05 -6.26612e-06 0.107476)
(-1.14414e-05 6.26272e-06 0.107473)
(-1.14874e-05 -6.29365e-06 0.107471)
(-1.1452e-05 6.29325e-06 0.107468)
(1.14453e-05 6.24868e-06 0.107474)
(1.14707e-05 -6.30847e-06 0.107471)
(1.14573e-05 6.27697e-06 0.107469)
(2.36829e-05 -2.37167e-05 0.10421)
(-4.12694e-05 4.13064e-05 0.104327)
(6.27857e-06 1.14741e-05 0.107475)
(-6.29737e-06 1.14926e-05 0.10747)
(6.30774e-06 1.14851e-05 0.10747)
(4.12957e-05 4.1277e-05 0.104326)
(2.36628e-05 2.36761e-05 0.104215)
(-4.11582e-05 -4.11378e-05 0.104332)
(-6.31409e-06 -1.14653e-05 0.107468)
(6.28749e-06 -1.14741e-05 0.107467)
(-6.31996e-06 -1.14427e-05 0.107463)
(6.29555e-06 -1.145e-05 0.107463)
(-2.36834e-05 2.36378e-05 0.104215)
(4.11394e-05 -4.11422e-05 0.104332)
(-1.15033e-05 -6.31332e-06 0.107469)
(-1.14685e-05 6.31276e-06 0.107467)
(-1.14811e-05 -6.31913e-06 0.107465)
(-1.1445e-05 6.3219e-06 0.107462)
(1.14741e-05 6.29523e-06 0.107467)
(1.14666e-05 -6.33356e-06 0.107465)
(1.14518e-05 6.30303e-06 0.107463)
(2.36541e-05 -2.36837e-05 0.104215)
(-4.1124e-05 4.11651e-05 0.104332)
(6.3263e-06 1.15016e-05 0.107469)
(-6.32213e-06 1.1489e-05 0.107465)
(6.3351e-06 1.1478e-05 0.107464)
(4.1155e-05 4.11355e-05 0.104331)
(2.36636e-05 2.36758e-05 0.104221)
(-4.09982e-05 -4.09799e-05 0.104338)
(-6.33573e-06 -1.14543e-05 0.107462)
(6.31107e-06 -1.14612e-05 0.107461)
(-6.32008e-06 -1.13979e-05 0.107458)
(6.29976e-06 -1.14035e-05 0.107458)
(-2.36801e-05 2.36384e-05 0.104221)
(4.09854e-05 -4.09847e-05 0.104338)
(-1.14921e-05 -6.336e-06 0.107464)
(-1.14565e-05 6.3383e-06 0.107461)
(-1.14354e-05 -6.32096e-06 0.10746)
(-1.13993e-05 6.32565e-06 0.107457)
(1.14635e-05 6.31881e-06 0.107462)
(1.1423e-05 -6.33406e-06 0.10746)
(1.14073e-05 6.30453e-06 0.107458)
(2.36538e-05 -2.3679e-05 0.104221)
(-4.09702e-05 4.10139e-05 0.104338)
(6.3509e-06 1.14896e-05 0.107463)
(-6.32219e-06 1.14462e-05 0.10746)
(6.33836e-06 1.14324e-05 0.107459)
(4.09978e-05 4.09771e-05 0.104337)
(2.36924e-05 2.37022e-05 0.104228)
(-4.08333e-05 -4.08182e-05 0.104345)
(-6.3345e-06 -1.14053e-05 0.107457)
(6.31446e-06 -1.14108e-05 0.107457)
(-6.29796e-06 -1.13179e-05 0.107454)
(6.28199e-06 -1.13231e-05 0.107453)
(-2.37065e-05 2.3668e-05 0.104228)
(4.08248e-05 -4.08225e-05 0.104345)
(-1.14418e-05 -6.33665e-06 0.107459)
(-1.14066e-05 6.34058e-06 0.107456)
(-1.13537e-05 -6.30139e-06 0.107455)
(-1.13184e-05 6.30583e-06 0.107453)
(1.14149e-05 6.31916e-06 0.107457)
(1.13443e-05 -6.31313e-06 0.107456)
(1.13287e-05 6.28356e-06 0.107453)
(2.36914e-05 -2.37142e-05 0.104228)
(-4.08032e-05 4.08475e-05 0.104344)
(6.35347e-06 1.14398e-05 0.107458)
(-6.30057e-06 1.1367e-05 0.107455)
(6.32025e-06 1.1352e-05 0.107455)
(4.08373e-05 4.08136e-05 0.104344)
(2.37487e-05 2.37552e-05 0.104235)
(-4.06608e-05 -4.06483e-05 0.104352)
(-6.30971e-06 -1.13194e-05 0.107453)
(6.29407e-06 -1.13246e-05 0.107453)
(-6.25283e-06 -1.12025e-05 0.10745)
(6.24057e-06 -1.12075e-05 0.107449)
(-2.37667e-05 2.37298e-05 0.104235)
(4.06539e-05 -4.06509e-05 0.104352)
(-1.13537e-05 -6.3143e-06 0.107455)
(-1.13199e-05 6.31785e-06 0.107452)
(-1.12362e-05 -6.25916e-06 0.107452)
(-1.12025e-05 6.26192e-06 0.107449)
(1.13303e-05 6.29518e-06 0.107453)
(1.12296e-05 -6.27049e-06 0.107452)
(1.12146e-05 6.23886e-06 0.10745)
(2.37377e-05 -2.37604e-05 0.104235)
(-4.06331e-05 4.06758e-05 0.104351)
(6.33248e-06 1.13532e-05 0.107454)
(-6.25727e-06 1.1251e-05 0.107451)
(6.279e-06 1.12353e-05 0.107451)
(4.0669e-05 4.06417e-05 0.104351)
(2.38303e-05 2.38337e-05 0.104243)
(-4.04797e-05 -4.04702e-05 0.104359)
(-6.26639e-06 -1.12051e-05 0.10745)
(6.25367e-06 -1.12097e-05 0.107449)
(-6.18551e-06 -1.10526e-05 0.107447)
(6.17498e-06 -1.10568e-05 0.107446)
(-2.38377e-05 2.38015e-05 0.104243)
(4.04747e-05 -4.04725e-05 0.104359)
(-1.12371e-05 -6.27404e-06 0.107451)
(-1.1205e-05 6.27499e-06 0.107449)
(-1.10842e-05 -6.19522e-06 0.107448)
(-1.10521e-05 6.19398e-06 0.107446)
(1.12172e-05 6.25187e-06 0.107449)
(1.1079e-05 -6.20525e-06 0.107449)
(1.10654e-05 6.17111e-06 0.107446)
(2.38166e-05 -2.3841e-05 0.104243)
(-4.0455e-05 4.04945e-05 0.104359)
(6.29264e-06 1.12374e-05 0.107451)
(-6.19203e-06 1.10991e-05 0.107448)
(6.21486e-06 1.10833e-05 0.107448)
(4.04915e-05 4.04607e-05 0.104358)
(2.39364e-05 2.39366e-05 0.104251)
(-4.02916e-05 -4.02852e-05 0.104367)
(-6.20331e-06 -1.106e-05 0.107447)
(6.19246e-06 -1.10641e-05 0.107446)
(-6.09626e-06 -1.08702e-05 0.107444)
(6.08766e-06 -1.08739e-05 0.107444)
(-2.39424e-05 2.39052e-05 0.104251)
(4.02866e-05 -4.02858e-05 0.104367)
(-1.10894e-05 -6.21429e-06 0.107448)
(-1.10597e-05 6.21122e-06 0.107446)
(-1.08995e-05 -6.10946e-06 0.107446)
(-1.08695e-05 6.10387e-06 0.107443)
(1.10728e-05 6.18867e-06 0.107446)
(1.08952e-05 -6.11929e-06 0.107446)
(1.08831e-05 6.08201e-06 0.107444)
(2.39197e-05 -2.39476e-05 0.104251)
(-4.02688e-05 4.03044e-05 0.104367)
(6.23307e-06 1.10902e-05 0.107448)
(-6.10564e-06 1.09137e-05 0.107446)
(6.12891e-06 1.08984e-05 0.107445)
(4.0305e-05 4.02717e-05 0.104366)
(2.40651e-05 2.40621e-05 0.10426)
(-4.00934e-05 -4.00898e-05 0.104375)
(-6.12245e-06 -1.08881e-05 0.107445)
(6.1135e-06 -1.08921e-05 0.107444)
(-5.9866e-06 -1.06564e-05 0.107442)
(5.97954e-06 -1.06602e-05 0.107441)
(-2.40706e-05 2.40319e-05 0.10426)
(4.00898e-05 -4.00902e-05 0.104376)
(-1.09146e-05 -6.1369e-06 0.107446)
(-1.08878e-05 6.1294e-06 0.107444)
(-1.06835e-05 -6.00314e-06 0.107443)
(-1.06556e-05 5.99292e-06 0.107441)
(1.09009e-05 6.10785e-06 0.107444)
(1.06806e-05 -6.01215e-06 0.107444)
(1.06693e-05 5.97239e-06 0.107442)
(2.40459e-05 -2.40777e-05 0.10426)
(-4.00732e-05 4.01055e-05 0.104375)
(6.15531e-06 1.09159e-05 0.107446)
(-5.99822e-06 1.06973e-05 0.107443)
(6.0218e-06 1.06827e-05 0.107443)
(4.01087e-05 4.00742e-05 0.104375)
(2.42152e-05 2.42094e-05 0.104269)
(-3.9885e-05 -3.9883e-05 0.104384)
(-6.02721e-06 -1.0693e-05 0.107443)
(6.01984e-06 -1.0697e-05 0.107442)
(-5.85552e-06 -1.04088e-05 0.10744)
(5.84965e-06 -1.04126e-05 0.10744)
(-2.42193e-05 2.41795e-05 0.104269)
(3.98823e-05 -3.98839e-05 0.104384)
(-1.07169e-05 -6.04471e-06 0.107444)
(-1.06925e-05 6.03266e-06 0.107442)
(-1.04337e-05 -5.87459e-06 0.107442)
(-1.04075e-05 5.86033e-06 0.107439)
(1.07058e-05 6.01251e-06 0.107443)
(1.04325e-05 -5.88349e-06 0.107442)
(1.04218e-05 5.84179e-06 0.10744)
(2.41935e-05 -2.42285e-05 0.104269)
(-3.98668e-05 3.98959e-05 0.104384)
(6.06224e-06 1.07189e-05 0.107444)
(-5.86934e-06 1.0447e-05 0.107442)
(5.89199e-06 1.04337e-05 0.107441)
(3.99009e-05 3.98667e-05 0.104383)
(2.43804e-05 2.43729e-05 0.104278)
(-3.96656e-05 -3.96644e-05 0.104393)
(-5.91996e-06 -1.04791e-05 0.107442)
(5.91332e-06 -1.04832e-05 0.107441)
(-5.70206e-06 -1.0124e-05 0.107439)
(5.69666e-06 -1.01281e-05 0.107438)
(-2.43851e-05 2.43441e-05 0.104278)
(3.96611e-05 -3.96639e-05 0.104393)
(-1.05013e-05 -5.9399e-06 0.107443)
(-1.04783e-05 5.9235e-06 0.107441)
(-1.01476e-05 -5.72292e-06 0.10744)
(-1.01225e-05 5.70553e-06 0.107438)
(1.04919e-05 5.90603e-06 0.107441)
(1.0147e-05 -5.73105e-06 0.107441)
(1.01361e-05 5.6894e-06 0.107438)
(2.43579e-05 -2.43967e-05 0.104278)
(-3.9646e-05 3.96728e-05 0.104392)
(5.95601e-06 1.0504e-05 0.107443)
(-5.71746e-06 1.01592e-05 0.10744)
(5.73857e-06 1.01482e-05 0.10744)
(3.96783e-05 3.96463e-05 0.104392)
(2.4568e-05 2.45598e-05 0.104287)
(-3.94322e-05 -3.94309e-05 0.104402)
(-5.80467e-06 -1.0252e-05 0.107441)
(5.79861e-06 -1.02567e-05 0.107441)
(-5.52274e-06 -9.80009e-06 0.107438)
(5.5175e-06 -9.80506e-06 0.107437)
(-2.45715e-05 2.45291e-05 0.104287)
(3.94253e-05 -3.94293e-05 0.104402)
(-1.02731e-05 -5.82603e-06 0.107443)
(-1.02512e-05 5.80656e-06 0.10744)
(-9.82299e-06 -5.5443e-06 0.107439)
(-9.79866e-06 5.52518e-06 0.107436)
(1.02638e-05 5.79202e-06 0.107441)
(9.82263e-06 -5.55337e-06 0.10744)
(9.81056e-06 5.5111e-06 0.107437)
(2.45419e-05 -2.45842e-05 0.104287)
(-3.94122e-05 3.94363e-05 0.104401)
(5.84052e-06 1.02763e-05 0.107442)
(-5.53984e-06 9.83244e-06 0.107439)
(5.55723e-06 9.82371e-06 0.107438)
(3.94443e-05 3.94161e-05 0.104401)
(2.4762e-05 2.47539e-05 0.104297)
(-3.91735e-05 -3.9171e-05 0.104411)
(-5.6855e-06 -1.00234e-05 0.107441)
(5.6785e-06 -1.00287e-05 0.107441)
(-5.31894e-06 -9.43348e-06 0.107437)
(5.31143e-06 -9.43921e-06 0.107436)
(-2.47649e-05 2.47218e-05 0.104297)
(3.91694e-05 -3.91741e-05 0.104411)
(-1.00439e-05 -5.70706e-06 0.107443)
(-1.00227e-05 5.68515e-06 0.10744)
(-9.45644e-06 -5.34027e-06 0.107438)
(-9.43204e-06 5.31805e-06 0.107435)
(1.00331e-05 5.67328e-06 0.107441)
(9.45521e-06 -5.34883e-06 0.107439)
(9.44188e-06 5.30743e-06 0.107436)
(2.47356e-05 -2.47795e-05 0.104296)
(-3.91573e-05 3.918e-05 0.104411)
(5.71831e-06 1.0047e-05 0.107442)
(-5.33506e-06 9.46345e-06 0.107438)
(5.34908e-06 9.45728e-06 0.107437)
(3.91817e-05 3.91585e-05 0.10441)
(2.49612e-05 2.49538e-05 0.104306)
(-3.88696e-05 -3.88657e-05 0.10442)
(-5.56402e-06 -9.79441e-06 0.107442)
(5.55404e-06 -9.80011e-06 0.107441)
(-5.09227e-06 -9.01829e-06 0.107436)
(5.08338e-06 -9.0241e-06 0.107435)
(-2.49642e-05 2.49206e-05 0.104306)
(3.8866e-05 -3.88699e-05 0.104421)
(-9.81514e-06 -5.5847e-06 0.107443)
(-9.79368e-06 5.55992e-06 0.107441)
(-9.04207e-06 -5.11259e-06 0.107437)
(-9.01648e-06 5.09009e-06 0.107434)
(9.80187e-06 5.55149e-06 0.107441)
(9.03914e-06 -5.12074e-06 0.107438)
(9.02433e-06 5.08199e-06 0.107435)
(2.49343e-05 -2.49788e-05 0.104306)
(-3.88535e-05 3.88759e-05 0.10442)
(5.59185e-06 9.81807e-06 0.107443)
(-5.10814e-06 9.04676e-06 0.107437)
(5.11807e-06 9.04259e-06 0.107436)
(3.8875e-05 3.8858e-05 0.10442)
(2.51406e-05 2.51343e-05 0.104316)
(-3.84752e-05 -3.84692e-05 0.10443)
(-5.44528e-06 -9.58477e-06 0.107443)
(5.43433e-06 -9.59028e-06 0.107442)
(-4.8497e-06 -8.54529e-06 0.107435)
(4.84176e-06 -8.55153e-06 0.107434)
(-2.51461e-05 2.51038e-05 0.104316)
(3.84714e-05 -3.84726e-05 0.10443)
(-9.60647e-06 -5.46446e-06 0.107444)
(-9.58426e-06 5.44046e-06 0.107442)
(-8.56941e-06 -4.86865e-06 0.107436)
(-8.54357e-06 4.8483e-06 0.107433)
(9.58979e-06 5.43414e-06 0.107443)
(8.56526e-06 -4.87539e-06 0.107436)
(8.54966e-06 4.84218e-06 0.107434)
(2.5116e-05 -2.51605e-05 0.104316)
(-3.84595e-05 3.84812e-05 0.104429)
(5.46887e-06 9.60901e-06 0.107444)
(-4.8654e-06 8.57324e-06 0.107436)
(4.87283e-06 8.57139e-06 0.107435)
(3.84766e-05 3.84655e-05 0.104429)
(2.52516e-05 2.52466e-05 0.104326)
(-3.78552e-05 -3.78481e-05 0.104439)
(-5.32202e-06 -9.41299e-06 0.107445)
(5.31061e-06 -9.41826e-06 0.107444)
(-4.62838e-06 -8.01503e-06 0.107433)
(4.6217e-06 -8.02155e-06 0.107432)
(-2.52581e-05 2.5219e-05 0.104325)
(3.78517e-05 -3.78524e-05 0.104439)
(-9.43474e-06 -5.33922e-06 0.107446)
(-9.41271e-06 5.31736e-06 0.107444)
(-8.03956e-06 -4.64519e-06 0.107434)
(-8.01259e-06 4.62853e-06 0.107432)
(9.41658e-06 5.31357e-06 0.107445)
(8.03633e-06 -4.65111e-06 0.107435)
(8.01774e-06 4.6232e-06 0.107433)
(2.52295e-05 -2.52714e-05 0.104325)
(-3.78413e-05 3.78597e-05 0.104438)
(5.34349e-06 9.43886e-06 0.107446)
(-4.64335e-06 8.04305e-06 0.107434)
(4.64896e-06 8.04285e-06 0.107434)
(3.78523e-05 3.78473e-05 0.104438)
(2.51219e-05 2.51182e-05 0.104336)
(-3.64894e-05 -3.64807e-05 0.104446)
(-5.14927e-06 -9.28716e-06 0.107448)
(5.13708e-06 -9.29119e-06 0.107448)
(-4.56892e-06 -7.47602e-06 0.107431)
(4.56461e-06 -7.48178e-06 0.10743)
(-2.51274e-05 2.50914e-05 0.104336)
(3.64877e-05 -3.64886e-05 0.104446)
(-9.30984e-06 -5.16478e-06 0.10745)
(-9.28666e-06 5.14479e-06 0.107447)
(-7.50184e-06 -4.58207e-06 0.107432)
(-7.47287e-06 4.57164e-06 0.10743)
(9.29e-06 5.14337e-06 0.107448)
(7.49857e-06 -4.58875e-06 0.107433)
(7.47743e-06 4.56638e-06 0.107431)
(2.51034e-05 -2.51383e-05 0.104336)
(-3.64827e-05 3.64922e-05 0.104445)
(5.1692e-06 9.31543e-06 0.107449)
(-4.58255e-06 7.50527e-06 0.107432)
(4.58574e-06 7.50498e-06 0.107432)
(3.64836e-05 3.64885e-05 0.104445)
(2.41174e-05 2.41181e-05 0.104348)
(-3.26008e-05 -3.25794e-05 0.104446)
(-4.76999e-06 -9.14386e-06 0.107453)
(4.75562e-06 -9.14701e-06 0.107452)
(-5.07145e-06 -7.09342e-06 0.107428)
(5.07166e-06 -7.10188e-06 0.107427)
(-2.41215e-05 2.40947e-05 0.104348)
(3.25832e-05 -3.25984e-05 0.104447)
(-9.17367e-06 -4.784e-06 0.107454)
(-9.14629e-06 4.76627e-06 0.107451)
(-7.12588e-06 -5.07331e-06 0.107429)
(-7.10035e-06 5.0798e-06 0.107427)
(9.15099e-06 4.76809e-06 0.107452)
(7.11685e-06 -5.08542e-06 0.10743)
(7.09889e-06 5.07092e-06 0.107428)
(2.41084e-05 -2.41291e-05 0.104348)
(-3.25968e-05 3.25874e-05 0.104446)
(4.78936e-06 9.18082e-06 0.107453)
(-5.08097e-06 7.12781e-06 0.107429)
(5.07486e-06 7.12586e-06 0.107429)
(3.25781e-05 3.25913e-05 0.104446)
(1.9975e-05 1.99874e-05 0.104368)
(-2.21625e-05 -2.21764e-05 0.104422)
(-3.58685e-06 -8.63579e-06 0.107459)
(3.56382e-06 -8.6356e-06 0.107458)
(-8.07082e-06 -9.12215e-06 0.107424)
(8.04876e-06 -9.11627e-06 0.107423)
(-1.99716e-05 1.99736e-05 0.104368)
(2.2105e-05 -2.21824e-05 0.104423)
(-8.66663e-06 -3.60376e-06 0.10746)
(-8.64731e-06 3.58312e-06 0.107458)
(-9.14044e-06 -8.02131e-06 0.107425)
(-9.14861e-06 8.07631e-06 0.107423)
(8.64927e-06 3.59221e-06 0.107458)
(9.10043e-06 -8.01466e-06 0.107426)
(9.13656e-06 8.05427e-06 0.107423)
(1.99899e-05 -1.99735e-05 0.104368)
(-2.22057e-05 2.21376e-05 0.104422)
(3.60228e-06 8.66983e-06 0.10746)
(-8.04395e-06 9.1338e-06 0.107425)
(8.02206e-06 9.1139e-06 0.107425)
(2.21622e-05 2.21378e-05 0.104422)
(4.84187e-06 4.9136e-06 0.104423)
(-4.13e-05 -4.11651e-05 0.104382)
(-2.18012e-06 -1.06089e-05 0.10747)
(2.11685e-06 -1.05861e-05 0.107469)
(-3.76147e-05 -5.54761e-05 0.107479)
(3.76021e-05 -5.55037e-05 0.107479)
(-4.87477e-06 4.92374e-06 0.104423)
(4.12596e-05 -4.11832e-05 0.104382)
(-1.06997e-05 -2.14306e-06 0.107471)
(-1.06832e-05 2.16655e-06 0.107469)
(-5.56245e-05 -3.74613e-05 0.107481)
(-5.55787e-05 3.76172e-05 0.107479)
(1.06653e-05 2.18664e-06 0.107469)
(5.55739e-05 -3.74602e-05 0.107481)
(5.55667e-05 3.76142e-05 0.107479)
(4.88023e-06 -4.85348e-06 0.104423)
(-4.12608e-05 4.12548e-05 0.104381)
(2.15727e-06 1.06729e-05 0.107471)
(-3.75537e-05 5.55891e-05 0.107481)
(3.75568e-05 5.55906e-05 0.10748)
(4.1262e-05 4.12859e-05 0.104381)
(-4.10065e-05 -4.08338e-05 0.104781)
(-6.00609e-05 -0.000121342 0.107729)
(6.00526e-05 -0.000121393 0.107728)
(4.09636e-05 -4.08445e-05 0.10478)
(-0.000121573 -5.98929e-05 0.10773)
(-0.000121486 6.0057e-05 0.107728)
(2.50116e-05 -2.48613e-05 0.112034)
(-2.49877e-05 2.50676e-05 0.112034)
(2.50022e-05 2.50557e-05 0.112034)
(0.000121443 6.00286e-05 0.107729)
(-4.09671e-05 4.09529e-05 0.10478)
(5.99664e-05 0.00012152 0.10773)
(-3.15337e-07 -1.65664e-05 0.0914273)
(-1.26233e-06 -1.20042e-05 0.0822863)
(3.325e-06 -5.89367e-06 0.0716037)
(-1.65979e-05 -2.93303e-07 0.0914268)
(-1.20394e-05 -1.19312e-06 0.0822867)
(-1.02069e-05 -1.0184e-05 0.112452)
(1.01889e-05 -1.01934e-05 0.112452)
(-1.01907e-05 1.02079e-05 0.112451)
(1.01949e-05 1.02026e-05 0.112451)
(2.72575e-05 -6.96263e-07 0.0985809)
(1.13006e-05 -6.13095e-06 0.10749)
(2.03646e-05 -7.77994e-06 0.0930683)
(1.43952e-05 -2.61357e-06 0.109908)
(-5.82663e-06 3.31213e-06 0.0716051)
(-6.98351e-07 2.72254e-05 0.0985811)
(-6.12253e-06 1.13213e-05 0.107489)
(-2.60395e-06 1.44122e-05 0.109907)
(-7.79123e-06 2.04193e-05 0.093068)
(4.16237e-05 4.16097e-05 0.104317)
(9.88301e-06 6.91198e-06 0.0876075)
(6.97272e-06 9.85951e-06 0.0876057)
(-3.10355e-07 -1.65062e-05 0.0914585)
(6.24305e-07 7.17365e-06 0.0822603)
(-2.6379e-07 4.97229e-06 0.0914059)
(-1.28989e-06 -1.19435e-05 0.0823195)
(-2.53368e-06 4.37233e-06 0.0715725)
(3.3732e-06 -5.83849e-06 0.0716336)
(-1.65391e-05 -2.86723e-07 0.091458)
(7.17243e-06 5.96192e-07 0.0822595)
(5.00217e-06 -2.28321e-07 0.0914065)
(-1.19766e-05 -1.22336e-06 0.08232)
(1.02652e-05 -1.02705e-05 0.112443)
(-1.0268e-05 1.0285e-05 0.112443)
(1.02715e-05 1.02812e-05 0.112443)
(-1.04738e-05 -1.04506e-05 0.112417)
(1.04545e-05 -1.04579e-05 0.112417)
(-1.04553e-05 1.04748e-05 0.112416)
(1.04614e-05 1.04683e-05 0.112416)
(2.72263e-05 -6.93992e-07 0.0986024)
(-8.76651e-06 3.05098e-06 0.0930328)
(1.46273e-05 -2.667e-06 0.109894)
(1.14002e-05 -6.22155e-06 0.107481)
(-7.98804e-06 -4.50999e-07 0.0985409)
(2.02997e-05 -7.77007e-06 0.0930972)
(1.46848e-05 -2.6806e-06 0.109889)
(4.31649e-06 -2.47993e-06 0.0715699)
(-5.77188e-06 3.3598e-06 0.0716351)
(-6.93395e-07 2.71913e-05 0.0986026)
(-2.65729e-06 1.4643e-05 0.109893)
(3.09632e-06 -8.79819e-06 0.0930336)
(-6.21087e-06 1.14203e-05 0.107481)
(-4.16376e-07 -7.94934e-06 0.0985409)
(-2.67029e-06 1.47016e-05 0.109889)
(-7.78281e-06 2.03555e-05 0.0930969)
(-3.61375e-06 -3.4595e-06 0.0875817)
(-3.44341e-06 -3.61908e-06 0.0875804)
(4.14952e-05 4.14793e-05 0.10432)
(9.80694e-06 6.92277e-06 0.0876391)
(6.98528e-06 9.7811e-06 0.0876373)
(-3.04877e-07 -1.64356e-05 0.0914897)
(5.90156e-07 7.21095e-06 0.0822935)
(-2.6024e-07 4.987e-06 0.0914373)
(-1.3161e-06 -1.18752e-05 0.0823524)
(-2.48114e-06 4.39982e-06 0.0716022)
(3.41672e-06 -5.78574e-06 0.0716631)
(-1.64673e-05 -2.83575e-07 0.0914892)
(7.21098e-06 5.60225e-07 0.0822926)
(5.01859e-06 -2.26031e-07 0.0914378)
(-1.19075e-05 -1.25217e-06 0.0823529)
(1.0518e-05 -1.05214e-05 0.112408)
(-1.05192e-05 1.05385e-05 0.112407)
(1.0523e-05 1.05324e-05 0.112407)
(-1.06808e-05 -1.06581e-05 0.112381)
(1.06623e-05 -1.06648e-05 0.112381)
(-1.06619e-05 1.0683e-05 0.11238)
(1.06691e-05 1.06749e-05 0.11238)
(2.71736e-05 -6.9011e-07 0.0986243)
(-8.80997e-06 3.03665e-06 0.0930619)
(1.48652e-05 -2.72581e-06 0.109876)
(1.1458e-05 -6.28492e-06 0.107474)
(-7.96075e-06 -4.48797e-07 0.0985629)
(2.02227e-05 -7.75298e-06 0.093126)
(1.49023e-05 -2.73453e-06 0.109872)
(4.34381e-06 -2.42802e-06 0.0715997)
(-5.7196e-06 3.40333e-06 0.0716646)
(-6.92462e-07 2.71374e-05 0.0986245)
(-2.71465e-06 1.48815e-05 0.109875)
(3.08254e-06 -8.84053e-06 0.0930626)
(-6.2743e-06 1.14789e-05 0.107474)
(-4.1262e-07 -7.91976e-06 0.0985629)
(-2.72325e-06 1.49196e-05 0.109871)
(-7.76577e-06 2.02797e-05 0.0931258)
(-3.67211e-06 -3.43474e-06 0.0876133)
(-3.41746e-06 -3.67869e-06 0.087612)
(4.13645e-05 4.13471e-05 0.104324)
(9.72254e-06 6.93123e-06 0.0876705)
(6.99554e-06 9.69579e-06 0.0876687)
(-3.02218e-07 -1.63521e-05 0.0915207)
(5.58685e-07 7.25578e-06 0.0823262)
(-2.59457e-07 5.02107e-06 0.0914685)
(-1.34076e-06 -1.18041e-05 0.0823849)
(-2.4332e-06 4.42884e-06 0.0716314)
(3.45778e-06 -5.73402e-06 0.0716921)
(-1.63836e-05 -2.81791e-07 0.0915202)
(7.25835e-06 5.24538e-07 0.0823253)
(5.05254e-06 -2.27009e-07 0.0914691)
(-1.18339e-05 -1.28025e-06 0.0823854)
(1.07145e-05 -1.07172e-05 0.112373)
(-1.07143e-05 1.07356e-05 0.112372)
(1.07191e-05 1.07269e-05 0.112372)
(-1.08339e-05 -1.08113e-05 0.112347)
(1.08167e-05 -1.08178e-05 0.112347)
(-1.08143e-05 1.08384e-05 0.112346)
(1.08225e-05 1.08277e-05 0.112346)
(2.70911e-05 -6.86471e-07 0.0986465)
(-8.87043e-06 3.03454e-06 0.0930908)
(1.50344e-05 -2.77029e-06 0.109859)
(1.14734e-05 -6.32289e-06 0.107468)
(-7.96652e-06 -4.49431e-07 0.0985853)
(2.01334e-05 -7.72909e-06 0.0931548)
(1.50497e-05 -2.77517e-06 0.109855)
(4.37227e-06 -2.38095e-06 0.0716289)
(-5.66888e-06 3.44096e-06 0.0716935)
(-6.86922e-07 2.70577e-05 0.0986467)
(-2.75803e-06 1.50514e-05 0.109858)
(3.08005e-06 -8.90116e-06 0.0930916)
(-6.31118e-06 1.1495e-05 0.107467)
(-4.06873e-07 -7.92686e-06 0.0985854)
(-2.76219e-06 1.50675e-05 0.109854)
(-7.74209e-06 2.01907e-05 0.0931546)
(-3.73487e-06 -3.41739e-06 0.0876446)
(-3.39784e-06 -3.74323e-06 0.0876433)
(4.12264e-05 4.12078e-05 0.104329)
(9.63728e-06 6.93012e-06 0.0877016)
(6.99765e-06 9.60826e-06 0.0876998)
(-2.96447e-07 -1.62553e-05 0.0915515)
(5.28241e-07 7.30835e-06 0.0823583)
(-2.5739e-07 5.07349e-06 0.0914995)
(-1.36228e-06 -1.17302e-05 0.0824168)
(-2.39036e-06 4.45894e-06 0.07166)
(3.49219e-06 -5.68441e-06 0.0717205)
(-1.62862e-05 -2.78626e-07 0.0915511)
(7.31309e-06 4.9018e-07 0.0823575)
(5.10523e-06 -2.25641e-07 0.0915001)
(-1.17585e-05 -1.30623e-06 0.0824173)
(1.08585e-05 -1.086e-05 0.112338)
(-1.08562e-05 1.08807e-05 0.112338)
(1.08629e-05 1.08704e-05 0.112338)
(-1.09349e-05 -1.09131e-05 0.112313)
(1.09202e-05 -1.09186e-05 0.112313)
(-1.09145e-05 1.09418e-05 0.112312)
(1.09256e-05 1.09302e-05 0.112312)
(2.69866e-05 -6.79213e-07 0.098669)
(-8.94703e-06 3.03956e-06 0.0931197)
(1.51377e-05 -2.80131e-06 0.109842)
(1.14492e-05 -6.33465e-06 0.107463)
(-8.00401e-06 -4.46692e-07 0.0986079)
(2.00326e-05 -7.70268e-06 0.0931835)
(1.51303e-05 -2.80248e-06 0.109838)
(4.40062e-06 -2.34181e-06 0.0716575)
(-5.6204e-06 3.47216e-06 0.0717219)
(-6.78515e-07 2.69553e-05 0.0986692)
(-2.78829e-06 1.51561e-05 0.109842)
(3.08494e-06 -8.97789e-06 0.0931205)
(-6.32393e-06 1.14714e-05 0.107462)
(-4.00725e-07 -7.96449e-06 0.0986081)
(-2.78862e-06 1.51489e-05 0.109837)
(-7.71552e-06 2.00903e-05 0.0931833)
(-3.80131e-06 -3.41451e-06 0.0876756)
(-3.39169e-06 -3.81073e-06 0.0876743)
(4.10756e-05 4.10558e-05 0.104334)
(9.54901e-06 6.91846e-06 0.0877324)
(6.99013e-06 9.51829e-06 0.0877305)
(-2.89286e-07 -1.61481e-05 0.0915821)
(5.0216e-07 7.36573e-06 0.0823899)
(-2.54159e-07 5.14174e-06 0.0915303)
(-1.37922e-06 -1.16561e-05 0.0824482)
(-2.35682e-06 4.48833e-06 0.071688)
(3.51874e-06 -5.63744e-06 0.0717482)
(-1.6179e-05 -2.77861e-07 0.0915817)
(7.37346e-06 4.5856e-07 0.0823891)
(5.17374e-06 -2.26763e-07 0.0915309)
(-1.16819e-05 -1.32852e-06 0.0824486)
(1.09543e-05 -1.09525e-05 0.112305)
(-1.0948e-05 1.09757e-05 0.112304)
(1.0958e-05 1.09644e-05 0.112304)
(-1.09861e-05 -1.09659e-05 0.112279)
(1.09752e-05 -1.09705e-05 0.112279)
(-1.09661e-05 1.09961e-05 0.112278)
(1.09798e-05 1.09826e-05 0.112278)
(2.68618e-05 -6.71153e-07 0.0986916)
(-9.03971e-06 3.05023e-06 0.0931483)
(1.51786e-05 -2.82192e-06 0.109827)
(1.13875e-05 -6.32491e-06 0.107458)
(-8.06991e-06 -4.42317e-07 0.0986307)
(1.99208e-05 -7.6731e-06 0.0932119)
(1.51481e-05 -2.81873e-06 0.109822)
(4.42908e-06 -2.30969e-06 0.0716855)
(-5.57471e-06 3.49733e-06 0.0717497)
(-6.68448e-07 2.68305e-05 0.0986919)
(-2.80691e-06 1.51972e-05 0.109826)
(3.0966e-06 -9.06952e-06 0.0931491)
(-6.31294e-06 1.141e-05 0.107457)
(-3.94314e-07 -8.03036e-06 0.0986309)
(-2.80336e-06 1.51667e-05 0.109822)
(-7.68414e-06 1.99788e-05 0.0932117)
(-3.87274e-06 -3.41908e-06 0.0877061)
(-3.39162e-06 -3.88501e-06 0.0877048)
(4.09164e-05 4.08943e-05 0.104341)
(9.45752e-06 6.90302e-06 0.0877627)
(6.97924e-06 9.42353e-06 0.0877609)
(-2.83206e-07 -1.60316e-05 0.0916123)
(4.77099e-07 7.42795e-06 0.0824208)
(-2.50479e-07 5.22378e-06 0.0915608)
(-1.39353e-06 -1.15798e-05 0.082479)
(-2.32795e-06 4.51788e-06 0.0717152)
(3.54131e-06 -5.59182e-06 0.0717753)
(-1.6062e-05 -2.77688e-07 0.0916119)
(7.4389e-06 4.28324e-07 0.0824201)
(5.25713e-06 -2.28942e-07 0.0915614)
(-1.1604e-05 -1.34702e-06 0.0824793)
(1.10033e-05 -1.09987e-05 0.112271)
(-1.09943e-05 1.10242e-05 0.112271)
(1.10064e-05 1.10108e-05 0.112271)
(-1.09904e-05 -1.09718e-05 0.112246)
(1.09825e-05 -1.09755e-05 0.112246)
(-1.09711e-05 1.10022e-05 0.112246)
(1.09872e-05 1.09876e-05 0.112246)
(2.67154e-05 -6.62863e-07 0.0987143)
(-9.14615e-06 3.06713e-06 0.0931766)
(1.51613e-05 -2.83129e-06 0.109812)
(1.12913e-05 -6.29399e-06 0.107454)
(-8.16525e-06 -4.37722e-07 0.0986536)
(1.97989e-05 -7.63857e-06 0.0932401)
(1.51071e-05 -2.82414e-06 0.109807)
(4.45775e-06 -2.28329e-06 0.0717126)
(-5.5305e-06 3.51695e-06 0.0717768)
(-6.58056e-07 2.66834e-05 0.0987146)
(-2.81508e-06 1.51796e-05 0.109811)
(3.1143e-06 -9.17585e-06 0.0931774)
(-6.28082e-06 1.13133e-05 0.107453)
(-3.87313e-07 -8.12525e-06 0.0986538)
(-2.80712e-06 1.51251e-05 0.109807)
(-7.64827e-06 1.98564e-05 0.0932399)
(-3.94853e-06 -3.4299e-06 0.0877361)
(-3.3973e-06 -3.96418e-06 0.0877349)
(4.07519e-05 4.07263e-05 0.104347)
(9.36344e-06 6.88288e-06 0.0877925)
(6.96294e-06 9.32634e-06 0.0877907)
(-2.75172e-07 -1.59047e-05 0.0916421)
(4.52315e-07 7.49442e-06 0.082451)
(-2.46397e-07 5.32023e-06 0.0915908)
(-1.40409e-06 -1.15022e-05 0.0825091)
(-2.30365e-06 4.54687e-06 0.0717415)
(3.55772e-06 -5.5483e-06 0.0718018)
(-1.59346e-05 -2.75408e-07 0.0916417)
(7.5076e-06 3.99789e-07 0.0824503)
(5.35466e-06 -2.30076e-07 0.0915914)
(-1.15254e-05 -1.35969e-06 0.0825094)
(1.10083e-05 -1.10017e-05 0.112239)
(-1.09971e-05 1.10277e-05 0.112238)
(1.10115e-05 1.10133e-05 0.112238)
(-1.09509e-05 -1.09344e-05 0.112214)
(1.09457e-05 -1.0938e-05 0.112214)
(-1.09327e-05 1.09633e-05 0.112213)
(1.09508e-05 1.09484e-05 0.112213)
(2.65507e-05 -6.53022e-07 0.098737)
(-9.26487e-06 3.09012e-06 0.0932046)
(1.5088e-05 -2.83039e-06 0.109797)
(1.11583e-05 -6.23972e-06 0.10745)
(-8.28964e-06 -4.3173e-07 0.0986765)
(1.96654e-05 -7.59806e-06 0.0932679)
(1.50106e-05 -2.81954e-06 0.109793)
(4.48599e-06 -2.26282e-06 0.071739)
(-5.48746e-06 3.53075e-06 0.0718032)
(-6.46295e-07 2.65159e-05 0.0987373)
(-2.81238e-06 1.51056e-05 0.109797)
(3.13669e-06 -9.29556e-06 0.0932054)
(-6.22649e-06 1.1179e-05 0.10745)
(-3.79103e-07 -8.25028e-06 0.0986767)
(-2.80069e-06 1.50275e-05 0.109792)
(-7.60813e-06 1.97227e-05 0.0932677)