/*--------------------------------*- C++ -*----------------------------------*\
| =========                 |                                                 |
| \\      /  F ield         | OpenFOAM: The Open Source CFD Toolbox           |
|  \\    /   O peration     | Version:  v1906                                 |
|   \\  /    A nd           | Web:      www.OpenFOAM.com                      |
|    \\/     M anipulation  |                                                 |
\*---------------------------------------------------------------------------*/
FoamFile
{
    version     2.0;
    format      ascii;
    class       volScalarField;
    location    "125";
    object      p;
}
// * * * * * * * * * * * * * * * * * * * * * * * * * * * * * * * * * * * * * //

dimensions      [0 2 -2 0 0 0 0];


internalField   nonuniform List<scalar> 
171728
(
0.00358289
0.00358322
0.00358322
0.00358627
0.00352754
0.00352796
0.00352796
0.00353095
0.00347679
0.00347676
0.00347676
0.00347951
0.00342441
0.00342442
0.00342442
0.0034272
0.00337306
0.00337307
0.00337307
0.00337582
0.00332309
0.0033231
0.0033231
0.00332582
0.00327457
0.00327459
0.00327459
0.00327727
0.00322735
0.00322737
0.00322737
0.00323002
0.00318123
0.00318125
0.00318125
0.00318387
0.003136
0.00313602
0.00313602
0.00313861
0.0030915
0.00309152
0.00309152
0.00309408
0.00304759
0.00304761
0.00304761
0.00305015
0.00300421
0.00300422
0.00300422
0.00300674
0.00296129
0.0029613
0.0029613
0.00296381
0.0029188
0.00291881
0.00291881
0.00292131
0.00287672
0.00287672
0.00287672
0.00287921
0.00283502
0.00283501
0.00283501
0.00283749
0.00279368
0.00279367
0.00279367
0.00279614
0.00275267
0.00275266
0.00275266
0.00275512
0.00271198
0.00271195
0.00271195
0.00271441
0.00267158
0.00267154
0.00267154
0.00267399
0.00263144
0.0026314
0.0026314
0.00263385
0.00259157
0.00259152
0.00259152
0.00259396
0.00255197
0.00255191
0.00255191
0.00255434
0.00251267
0.00251259
0.00251259
0.00251499
0.00247382
0.00247373
0.00247373
0.0024761
0.00243545
0.00243535
0.00243535
0.00243767
0.00239776
0.00239766
0.00239766
0.00239991
0.00236075
0.00236067
0.00236067
0.00236286
0.00232429
0.00232424
0.00232424
0.0023264
0.0022882
0.00228815
0.00228815
0.00229029
0.00225231
0.00225226
0.00225226
0.00225438
0.0022165
0.00221645
0.00221645
0.00221857
0.00218072
0.00218066
0.00218066
0.00218278
0.00214493
0.00214488
0.00214488
0.002147
0.00210914
0.00210909
0.00210909
0.00211121
0.00207336
0.0020733
0.0020733
0.00207542
0.00203757
0.00203752
0.00203752
0.00203964
0.00200178
0.00200173
0.00200173
0.00200385
0.001966
0.00196594
0.00196594
0.00196806
0.00193021
0.00193016
0.00193016
0.00193228
0.00189442
0.00189437
0.00189437
0.00189649
0.00185863
0.00185858
0.00185858
0.0018607
0.00182284
0.00182279
0.00182279
0.00182491
0.00178705
0.00178699
0.00178699
0.00178911
0.00175126
0.0017512
0.0017512
0.00175332
0.00171546
0.00171541
0.00171541
0.00171753
0.00167967
0.00167962
0.00167962
0.00168174
0.00164388
0.00164382
0.00164382
0.00164595
0.00160809
0.00160803
0.00160803
0.00161015
0.00157229
0.00157224
0.00157224
0.00157436
0.0015365
0.00153644
0.00153644
0.00153856
0.0015007
0.00150065
0.00150065
0.00150277
0.00146491
0.00146485
0.00146485
0.00146697
0.00142911
0.00142905
0.00142905
0.00143118
0.00139331
0.00139326
0.00139326
0.00139538
0.00135752
0.00135746
0.00135746
0.00135958
0.00132172
0.00132167
0.00132167
0.00132379
0.00128592
0.00128587
0.00128587
0.00128799
0.00125013
0.00125007
0.00125007
0.00125219
0.00121433
0.00121427
0.00121427
0.0012164
0.00117853
0.00117848
0.00117848
0.0011806
0.00114274
0.00114268
0.00114268
0.0011448
0.00110694
0.00110689
0.00110688
0.00110901
0.00107115
0.00107109
0.00107109
0.00107321
0.00103535
0.0010353
0.0010353
0.00103742
0.000999563
0.000999507
0.000999507
0.00100163
0.000963771
0.000963716
0.000963716
0.000965838
0.000927979
0.000927924
0.000927924
0.000930045
0.000892186
0.000892131
0.000892131
0.000894252
0.000856393
0.000856338
0.000856338
0.000858459
0.000820599
0.000820544
0.000820544
0.000822665
0.000784806
0.00078475
0.000784751
0.000786872
0.000749013
0.000748958
0.000748958
0.00075108
0.00071322
0.000713166
0.000713165
0.000715287
0.000677428
0.000677373
0.000677373
0.000679494
0.000641635
0.000641581
0.00064158
0.000643701
0.000605843
0.000605788
0.000605787
0.000607909
0.000570052
0.000569996
0.000569996
0.000572118
0.000534261
0.000534206
0.000534206
0.000536328
0.000498471
0.000498415
0.000498416
0.000500537
0.00046268
0.000462625
0.000462625
0.000464746
0.00042689
0.000426835
0.000426834
0.000428956
0.000391101
0.000391045
0.000391045
0.000393165
0.000355312
0.000355257
0.000355257
0.000357376
0.000319524
0.000319468
0.000319468
0.000321586
0.000283735
0.000283679
0.000283679
0.000285795
0.000247944
0.000247889
0.000247889
0.000250002
0.000212151
0.000212099
0.000212099
0.000214206
0.000176356
0.000176307
0.000176306
0.000178406
0.000140552
0.000140507
0.000140507
0.000142593
0.000104729
0.000104696
0.000104695
0.000106763
6.89169e-05
6.88656e-05
6.88639e-05
7.09065e-05
3.39834e-05
3.35296e-05
3.3526e-05
3.52813e-05
4.51929e-06
3.56279e-06
3.56269e-06
3.94202e-06
0.0035963
0.00359652
0.00359652
0.0035963
0.00359652
0.00359652
0.00359729
0.00359729
0.00359729
0.00359729
0.00359652
0.00359652
0.0035963
0.00359653
0.00359653
0.0035963
0.00358627
0.00353752
0.00358322
0.00358322
0.0035398
0.0035398
0.00358627
0.00353752
0.00358322
0.00358322
0.00353979
0.0035398
0.00358322
0.00353979
0.0035398
0.00358627
0.00353752
0.00358322
0.00353979
0.00353979
0.00353752
0.00353095
0.00348644
0.00352796
0.00352796
0.00348989
0.00348989
0.00353095
0.00348644
0.00352796
0.00352796
0.00348988
0.00348988
0.00352796
0.00348988
0.00348988
0.00353095
0.00348644
0.00352795
0.00348988
0.00348988
0.00348644
0.00347952
0.00343408
0.00347676
0.00347676
0.00343744
0.00343744
0.00347952
0.00343408
0.00347676
0.00347676
0.00343744
0.00343744
0.00347676
0.00343744
0.00343744
0.00347952
0.00343408
0.00347676
0.00343743
0.00343744
0.00343408
0.0034272
0.00338253
0.00342442
0.00342442
0.00338579
0.00338579
0.0034272
0.00338253
0.00342442
0.00342442
0.00338579
0.00338579
0.00342442
0.00338579
0.00338579
0.0034272
0.00338253
0.00342442
0.00338579
0.00338579
0.00338253
0.00337582
0.00333232
0.00337307
0.00337307
0.00333545
0.00333546
0.00337582
0.00333232
0.00337307
0.00337307
0.00333545
0.00333546
0.00337307
0.00333545
0.00333546
0.00337582
0.00333232
0.00337307
0.00333545
0.00333545
0.00333232
0.00332582
0.00328357
0.0033231
0.0033231
0.00328659
0.00328659
0.00332582
0.00328357
0.0033231
0.0033231
0.00328659
0.00328659
0.0033231
0.00328659
0.00328659
0.00332582
0.00328357
0.0033231
0.00328658
0.00328659
0.00328357
0.00327727
0.00323615
0.00327459
0.00327459
0.00323906
0.00323906
0.00327727
0.00323615
0.00327459
0.00327459
0.00323906
0.00323906
0.00327459
0.00323906
0.00323906
0.00327727
0.00323615
0.00327459
0.00323906
0.00323906
0.00323615
0.00323002
0.00318986
0.00322737
0.00322737
0.00319268
0.00319268
0.00323002
0.00318985
0.00322737
0.00322737
0.00319268
0.00319268
0.00322737
0.00319268
0.00319268
0.00323002
0.00318986
0.00322737
0.00319269
0.00319268
0.00318986
0.00318387
0.00314449
0.00318124
0.00318124
0.00314725
0.00314725
0.00318387
0.00314449
0.00318125
0.00318124
0.00314725
0.00314725
0.00318124
0.00314725
0.00314725
0.00318387
0.00314449
0.00318125
0.00314725
0.00314725
0.00314449
0.00313861
0.00309987
0.00313602
0.00313602
0.00310259
0.00310259
0.00313861
0.00309986
0.00313602
0.00313602
0.00310259
0.00310259
0.00313602
0.00310259
0.00310259
0.00313861
0.00309986
0.00313602
0.00310259
0.00310259
0.00309986
0.00309408
0.00305586
0.00309152
0.00309152
0.00305854
0.00305854
0.00309408
0.00305586
0.00309152
0.00309152
0.00305854
0.00305854
0.00309152
0.00305854
0.00305854
0.00309408
0.00305586
0.00309152
0.00305854
0.00305854
0.00305586
0.00305015
0.00301237
0.00304761
0.00304761
0.00301503
0.00301503
0.00305015
0.00301237
0.00304761
0.00304761
0.00301503
0.00301503
0.00304761
0.00301503
0.00301503
0.00305015
0.00301237
0.00304761
0.00301503
0.00301503
0.00301237
0.00300674
0.00296937
0.00300422
0.00300423
0.00297199
0.00297199
0.00300674
0.00296937
0.00300422
0.00300423
0.00297199
0.00297199
0.00300423
0.00297199
0.00297199
0.00300674
0.00296937
0.00300423
0.00297199
0.00297199
0.00296937
0.00296381
0.00292682
0.0029613
0.0029613
0.00292939
0.00292939
0.00296381
0.00292682
0.0029613
0.0029613
0.00292939
0.00292939
0.0029613
0.00292939
0.00292939
0.0029638
0.00292682
0.0029613
0.00292939
0.00292939
0.00292682
0.00292131
0.00288467
0.00291881
0.00291881
0.0028872
0.0028872
0.00292131
0.00288467
0.00291881
0.00291881
0.0028872
0.0028872
0.00291881
0.00288721
0.00288721
0.00292131
0.00288467
0.00291881
0.0028872
0.00288721
0.00288467
0.00287921
0.00284291
0.00287672
0.00287672
0.00284541
0.00284541
0.00287921
0.00284291
0.00287672
0.00287672
0.00284541
0.00284541
0.00287672
0.00284541
0.00284541
0.00287921
0.00284291
0.00287672
0.00284541
0.00284541
0.00284291
0.00283749
0.00280151
0.00283501
0.00283501
0.00280397
0.00280397
0.00283749
0.00280151
0.00283501
0.00283501
0.00280397
0.00280397
0.00283501
0.00280397
0.00280397
0.00283749
0.00280151
0.00283501
0.00280397
0.00280397
0.00280151
0.00279614
0.00276045
0.00279367
0.00279367
0.00276288
0.00276288
0.00279614
0.00276045
0.00279367
0.00279367
0.00276288
0.00276288
0.00279367
0.00276288
0.00276288
0.00279614
0.00276045
0.00279367
0.00276288
0.00276288
0.00276045
0.00275512
0.0027197
0.00275266
0.00275266
0.0027221
0.0027221
0.00275512
0.0027197
0.00275266
0.00275266
0.0027221
0.0027221
0.00275266
0.0027221
0.0027221
0.00275512
0.0027197
0.00275266
0.0027221
0.0027221
0.0027197
0.00271441
0.00267925
0.00271195
0.00271195
0.00268162
0.00268162
0.00271441
0.00267925
0.00271195
0.00271195
0.00268162
0.00268162
0.00271195
0.00268162
0.00268162
0.00271441
0.00267925
0.00271195
0.00268162
0.00268162
0.00267925
0.00267399
0.00263907
0.00267154
0.00267154
0.00264141
0.00264141
0.00267399
0.00263907
0.00267154
0.00267154
0.00264141
0.00264141
0.00267154
0.00264141
0.00264141
0.00267399
0.00263907
0.00267154
0.00264141
0.00264141
0.00263907
0.00263385
0.00259915
0.0026314
0.0026314
0.00260147
0.00260147
0.00263385
0.00259915
0.0026314
0.0026314
0.00260147
0.00260147
0.0026314
0.00260147
0.00260147
0.00263385
0.00259915
0.0026314
0.00260147
0.00260147
0.00259915
0.00259396
0.0025595
0.00259152
0.00259152
0.00256179
0.00256179
0.00259396
0.0025595
0.00259152
0.00259152
0.00256179
0.00256179
0.00259152
0.00256179
0.00256179
0.00259396
0.0025595
0.00259152
0.00256179
0.00256179
0.0025595
0.00255434
0.00252011
0.00255191
0.00255191
0.00252238
0.00252238
0.00255433
0.00252011
0.00255191
0.00255191
0.00252238
0.00252238
0.00255191
0.00252238
0.00252238
0.00255434
0.00252011
0.00255191
0.00252238
0.00252238
0.00252011
0.00251499
0.00248117
0.00251259
0.00251259
0.0024834
0.0024834
0.00251499
0.00248117
0.00251259
0.00251259
0.0024834
0.0024834
0.00251259
0.0024834
0.0024834
0.00251499
0.00248117
0.00251259
0.0024834
0.0024834
0.00248117
0.0024761
0.00244268
0.00247373
0.00247373
0.00244489
0.00244489
0.0024761
0.00244268
0.00247373
0.00247373
0.00244489
0.00244489
0.00247373
0.00244489
0.00244489
0.0024761
0.00244268
0.00247373
0.00244489
0.00244489
0.00244268
0.00243767
0.00240482
0.00243535
0.00243535
0.00240701
0.00240701
0.00243767
0.00240482
0.00243535
0.00243535
0.00240701
0.00240701
0.00243535
0.00240701
0.00240701
0.00243767
0.00240482
0.00243535
0.00240701
0.00240701
0.00240482
0.00239991
0.00236768
0.00239766
0.00239766
0.00236986
0.00236986
0.00239991
0.00236768
0.00239766
0.00239766
0.00236986
0.00236986
0.00239766
0.00236986
0.00236986
0.00239991
0.00236768
0.00239766
0.00236986
0.00236986
0.00236768
0.00236286
0.00233117
0.00236067
0.00236067
0.00233331
0.00233331
0.00236286
0.00233117
0.00236067
0.00236067
0.00233331
0.00233331
0.00236067
0.00233331
0.00233331
0.00236286
0.00233117
0.00236067
0.00233331
0.00233331
0.00233117
0.0023264
0.00229502
0.00232424
0.00232424
0.00229715
0.00229715
0.0023264
0.00229502
0.00232424
0.00232424
0.00229715
0.00229715
0.00232424
0.00229715
0.00229715
0.0023264
0.00229502
0.00232424
0.00229715
0.00229715
0.00229502
0.00229029
0.00225909
0.00228815
0.00228815
0.00226122
0.00226122
0.00229029
0.00225909
0.00228815
0.00228815
0.00226122
0.00226122
0.00228815
0.00226122
0.00226122
0.00229029
0.00225909
0.00228815
0.00226122
0.00226122
0.00225909
0.00225438
0.00222327
0.00225226
0.00225226
0.00222539
0.00222539
0.00225438
0.00222327
0.00225226
0.00225226
0.00222539
0.00222539
0.00225226
0.00222539
0.0022254
0.00225438
0.00222327
0.00225226
0.00222539
0.0022254
0.00222327
0.00221857
0.00218749
0.00221645
0.00221645
0.00218961
0.00218961
0.00221857
0.00218749
0.00221645
0.00221645
0.00218961
0.00218961
0.00221645
0.00218961
0.00218961
0.00221857
0.00218749
0.00221645
0.00218961
0.00218961
0.00218749
0.00218278
0.0021517
0.00218066
0.00218066
0.00215382
0.00215382
0.00218278
0.0021517
0.00218066
0.00218066
0.00215382
0.00215382
0.00218066
0.00215382
0.00215382
0.00218278
0.0021517
0.00218066
0.00215382
0.00215382
0.0021517
0.002147
0.00211592
0.00214488
0.00214488
0.00211804
0.00211804
0.002147
0.00211592
0.00214488
0.00214488
0.00211804
0.00211804
0.00214488
0.00211804
0.00211804
0.002147
0.00211592
0.00214488
0.00211804
0.00211804
0.00211592
0.00211121
0.00208013
0.00210909
0.00210909
0.00208225
0.00208225
0.00211121
0.00208013
0.00210909
0.00210909
0.00208225
0.00208225
0.00210909
0.00208225
0.00208225
0.00211121
0.00208013
0.00210909
0.00208225
0.00208225
0.00208013
0.00207542
0.00204434
0.0020733
0.0020733
0.00204646
0.00204646
0.00207542
0.00204434
0.0020733
0.0020733
0.00204646
0.00204646
0.0020733
0.00204646
0.00204646
0.00207542
0.00204434
0.0020733
0.00204646
0.00204646
0.00204434
0.00203964
0.00200856
0.00203752
0.00203752
0.00201068
0.00201068
0.00203964
0.00200856
0.00203752
0.00203752
0.00201068
0.00201068
0.00203752
0.00201068
0.00201068
0.00203964
0.00200856
0.00203752
0.00201068
0.00201068
0.00200856
0.00200385
0.00197277
0.00200173
0.00200173
0.00197489
0.00197489
0.00200385
0.00197277
0.00200173
0.00200173
0.00197489
0.00197489
0.00200173
0.00197489
0.00197489
0.00200385
0.00197277
0.00200173
0.00197489
0.00197489
0.00197277
0.00196806
0.00193698
0.00196594
0.00196594
0.0019391
0.0019391
0.00196806
0.00193698
0.00196594
0.00196594
0.0019391
0.0019391
0.00196594
0.0019391
0.0019391
0.00196806
0.00193698
0.00196594
0.0019391
0.0019391
0.00193698
0.00193228
0.0019012
0.00193016
0.00193016
0.00190332
0.00190332
0.00193228
0.0019012
0.00193016
0.00193016
0.00190332
0.00190332
0.00193016
0.00190332
0.00190332
0.00193228
0.0019012
0.00193016
0.00190332
0.00190332
0.0019012
0.00189649
0.0018654
0.00189437
0.00189437
0.00186753
0.00186752
0.00189649
0.0018654
0.00189437
0.00189437
0.00186753
0.00186753
0.00189437
0.00186752
0.00186753
0.00189649
0.0018654
0.00189437
0.00186753
0.00186753
0.0018654
0.0018607
0.00182961
0.00185858
0.00185858
0.00183173
0.00183173
0.0018607
0.00182961
0.00185858
0.00185858
0.00183173
0.00183173
0.00185858
0.00183173
0.00183173
0.0018607
0.00182961
0.00185858
0.00183173
0.00183173
0.00182961
0.00182491
0.00179382
0.00182279
0.00182279
0.00179594
0.00179594
0.00182491
0.00179382
0.00182279
0.00182279
0.00179594
0.00179594
0.00182279
0.00179594
0.00179594
0.00182491
0.00179382
0.00182279
0.00179594
0.00179594
0.00179382
0.00178911
0.00175803
0.00178699
0.00178699
0.00176015
0.00176015
0.00178911
0.00175803
0.00178699
0.00178699
0.00176015
0.00176015
0.00178699
0.00176015
0.00176015
0.00178911
0.00175803
0.00178699
0.00176015
0.00176015
0.00175803
0.00175332
0.00172224
0.0017512
0.0017512
0.00172436
0.00172436
0.00175332
0.00172224
0.0017512
0.0017512
0.00172436
0.00172436
0.0017512
0.00172436
0.00172436
0.00175332
0.00172224
0.0017512
0.00172436
0.00172436
0.00172224
0.00171753
0.00168644
0.00171541
0.00171541
0.00168857
0.00168857
0.00171753
0.00168644
0.00171541
0.00171541
0.00168857
0.00168857
0.00171541
0.00168857
0.00168857
0.00171753
0.00168644
0.00171541
0.00168857
0.00168857
0.00168644
0.00168174
0.00165065
0.00167962
0.00167962
0.00165277
0.00165277
0.00168174
0.00165065
0.00167962
0.00167962
0.00165277
0.00165277
0.00167962
0.00165277
0.00165277
0.00168174
0.00165065
0.00167962
0.00165277
0.00165277
0.00165065
0.00164595
0.00161486
0.00164383
0.00164382
0.00161698
0.00161698
0.00164595
0.00161486
0.00164382
0.00164382
0.00161698
0.00161698
0.00164382
0.00161698
0.00161698
0.00164595
0.00161486
0.00164382
0.00161698
0.00161698
0.00161486
0.00161015
0.00157907
0.00160803
0.00160803
0.00158119
0.00158119
0.00161015
0.00157907
0.00160803
0.00160803
0.00158119
0.00158119
0.00160803
0.00158119
0.00158119
0.00161015
0.00157907
0.00160803
0.00158119
0.00158119
0.00157907
0.00157436
0.00154327
0.00157224
0.00157224
0.00154539
0.00154539
0.00157436
0.00154327
0.00157224
0.00157224
0.00154539
0.00154539
0.00157224
0.00154539
0.00154539
0.00157436
0.00154327
0.00157224
0.00154539
0.00154539
0.00154327
0.00153856
0.00150748
0.00153644
0.00153644
0.0015096
0.0015096
0.00153856
0.00150748
0.00153644
0.00153644
0.0015096
0.0015096
0.00153644
0.0015096
0.0015096
0.00153856
0.00150748
0.00153644
0.0015096
0.0015096
0.00150748
0.00150277
0.00147168
0.00150065
0.00150065
0.0014738
0.0014738
0.00150277
0.00147168
0.00150065
0.00150065
0.0014738
0.0014738
0.00150065
0.0014738
0.0014738
0.00150277
0.00147168
0.00150065
0.0014738
0.0014738
0.00147168
0.00146697
0.00143588
0.00146485
0.00146485
0.001438
0.001438
0.00146697
0.00143588
0.00146485
0.00146485
0.001438
0.001438
0.00146485
0.001438
0.001438
0.00146697
0.00143588
0.00146485
0.001438
0.001438
0.00143588
0.00143118
0.00140009
0.00142905
0.00142905
0.00140221
0.00140221
0.00143118
0.00140009
0.00142905
0.00142905
0.00140221
0.00140221
0.00142905
0.00140221
0.00140221
0.00143118
0.00140009
0.00142905
0.00140221
0.00140221
0.00140009
0.00139538
0.00136429
0.00139326
0.00139326
0.00136641
0.00136641
0.00139538
0.00136429
0.00139326
0.00139326
0.00136641
0.00136641
0.00139326
0.00136641
0.00136641
0.00139538
0.00136429
0.00139326
0.00136641
0.00136641
0.00136429
0.00135958
0.00132849
0.00135746
0.00135746
0.00133061
0.00133061
0.00135958
0.00132849
0.00135746
0.00135746
0.00133061
0.00133061
0.00135746
0.00133061
0.00133061
0.00135958
0.00132849
0.00135746
0.00133061
0.00133061
0.00132849
0.00132379
0.0012927
0.00132167
0.00132167
0.00129482
0.00129482
0.00132379
0.0012927
0.00132167
0.00132167
0.00129482
0.00129482
0.00132167
0.00129482
0.00129482
0.00132379
0.0012927
0.00132167
0.00129482
0.00129482
0.0012927
0.00128799
0.0012569
0.00128587
0.00128587
0.00125902
0.00125902
0.00128799
0.0012569
0.00128587
0.00128587
0.00125902
0.00125902
0.00128587
0.00125902
0.00125902
0.00128799
0.0012569
0.00128587
0.00125902
0.00125902
0.0012569
0.00125219
0.0012211
0.00125007
0.00125007
0.00122322
0.00122322
0.00125219
0.0012211
0.00125007
0.00125007
0.00122322
0.00122322
0.00125007
0.00122322
0.00122322
0.00125219
0.0012211
0.00125007
0.00122322
0.00122322
0.0012211
0.0012164
0.0011853
0.00121427
0.00121427
0.00118742
0.00118743
0.0012164
0.00118531
0.00121427
0.00121427
0.00118742
0.00118743
0.00121427
0.00118743
0.00118743
0.0012164
0.0011853
0.00121427
0.00118743
0.00118743
0.00118531
0.0011806
0.00114951
0.00117848
0.00117848
0.00115163
0.00115163
0.0011806
0.00114951
0.00117848
0.00117848
0.00115163
0.00115163
0.00117848
0.00115163
0.00115163
0.0011806
0.00114951
0.00117848
0.00115163
0.00115163
0.00114951
0.0011448
0.00111371
0.00114268
0.00114268
0.00111583
0.00111583
0.0011448
0.00111371
0.00114268
0.00114268
0.00111583
0.00111583
0.00114268
0.00111583
0.00111583
0.0011448
0.00111371
0.00114268
0.00111583
0.00111583
0.00111371
0.00110901
0.00107792
0.00110689
0.00110689
0.00108004
0.00108004
0.00110901
0.00107792
0.00110688
0.00110689
0.00108004
0.00108004
0.00110689
0.00108004
0.00108004
0.00110901
0.00107792
0.00110689
0.00108004
0.00108004
0.00107792
0.00107321
0.00104213
0.00107109
0.00107109
0.00104425
0.00104425
0.00107321
0.00104213
0.00107109
0.00107109
0.00104425
0.00104425
0.00107109
0.00104425
0.00104425
0.00107321
0.00104213
0.00107109
0.00104425
0.00104425
0.00104213
0.00103742
0.00100634
0.0010353
0.0010353
0.00100846
0.00100846
0.00103742
0.00100634
0.0010353
0.0010353
0.00100846
0.00100846
0.0010353
0.00100846
0.00100846
0.00103742
0.00100633
0.0010353
0.00100846
0.00100846
0.00100634
0.00100163
0.000970544
0.000999508
0.000999507
0.000972665
0.000972665
0.00100163
0.000970544
0.000999507
0.000999507
0.000972665
0.000972665
0.000999508
0.000972665
0.000972664
0.00100163
0.000970544
0.000999508
0.000972665
0.000972664
0.000970544
0.000965837
0.000934752
0.000963716
0.000963716
0.000936873
0.000936873
0.000965837
0.000934752
0.000963716
0.000963716
0.000936873
0.000936873
0.000963717
0.000936873
0.000936872
0.000965837
0.000934752
0.000963717
0.000936873
0.000936872
0.000934752
0.000930045
0.000898959
0.000927924
0.000927924
0.00090108
0.00090108
0.000930045
0.00089896
0.000927924
0.000927924
0.00090108
0.00090108
0.000927924
0.00090108
0.00090108
0.000930045
0.000898959
0.000927924
0.00090108
0.000901079
0.000898959
0.000894252
0.000863166
0.000892131
0.000892131
0.000865287
0.000865286
0.000894252
0.000863166
0.000892131
0.000892131
0.000865286
0.000865287
0.000892131
0.000865286
0.000865287
0.000894252
0.000863166
0.000892131
0.000865287
0.000865287
0.000863166
0.000858459
0.000827372
0.000856338
0.000856338
0.000829493
0.000829493
0.000858459
0.000827372
0.000856337
0.000856337
0.000829493
0.000829493
0.000856338
0.000829493
0.000829493
0.000858459
0.000827372
0.000856338
0.000829493
0.000829493
0.000827372
0.000822665
0.000791578
0.000820544
0.000820544
0.0007937
0.000793699
0.000822665
0.000791578
0.000820544
0.000820544
0.000793699
0.000793699
0.000820544
0.000793699
0.000793699
0.000822665
0.000791579
0.000820544
0.000793699
0.000793699
0.000791579
0.000786872
0.000755786
0.000784751
0.00078475
0.000757907
0.000757907
0.000786871
0.000755786
0.00078475
0.000784751
0.000757907
0.000757907
0.000784751
0.000757907
0.000757907
0.000786872
0.000755786
0.000784751
0.000757907
0.000757907
0.000755786
0.000751079
0.000719993
0.000748958
0.000748958
0.000722114
0.000722114
0.000751079
0.000719994
0.000748958
0.000748958
0.000722114
0.000722114
0.000748958
0.000722114
0.000722114
0.000751079
0.000719993
0.000748958
0.000722114
0.000722114
0.000719993
0.000715286
0.000684201
0.000713166
0.000713165
0.000686321
0.000686321
0.000715286
0.000684201
0.000713165
0.000713165
0.000686321
0.000686321
0.000713165
0.000686321
0.000686321
0.000715286
0.0006842
0.000713165
0.000686321
0.000686321
0.0006842
0.000679494
0.000648408
0.000677373
0.000677373
0.000650529
0.000650528
0.000679494
0.000648408
0.000677373
0.000677373
0.000650529
0.000650529
0.000677373
0.000650528
0.000650529
0.000679494
0.000648408
0.000677373
0.000650529
0.000650529
0.000648408
0.000643701
0.000612616
0.00064158
0.000641581
0.000614737
0.000614736
0.000643702
0.000612616
0.00064158
0.00064158
0.000614736
0.000614736
0.00064158
0.000614736
0.000614736
0.000643701
0.000612615
0.00064158
0.000614736
0.000614736
0.000612616
0.000607909
0.000576824
0.000605788
0.000605788
0.000578945
0.000578944
0.000607909
0.000576824
0.000605788
0.000605787
0.000578945
0.000578945
0.000605788
0.000578944
0.000578944
0.000607908
0.000576824
0.000605788
0.000578945
0.000578944
0.000576824
0.000572117
0.000541033
0.000569997
0.000569996
0.000543154
0.000543154
0.000572117
0.000541033
0.000569996
0.000569996
0.000543154
0.000543154
0.000569997
0.000543154
0.000543154
0.000572117
0.000541033
0.000569997
0.000543154
0.000543154
0.000541034
0.000536327
0.000505243
0.000534206
0.000534206
0.000507364
0.000507364
0.000536326
0.000505243
0.000534206
0.000534206
0.000507364
0.000507364
0.000534207
0.000507364
0.000507363
0.000536327
0.000505243
0.000534207
0.000507364
0.000507363
0.000505243
0.000500536
0.000469452
0.000498416
0.000498415
0.000471573
0.000471573
0.000500536
0.000469452
0.000498416
0.000498416
0.000471573
0.000471573
0.000498416
0.000471573
0.000471573
0.000500536
0.000469452
0.000498416
0.000471573
0.000471572
0.000469453
0.000464746
0.000433662
0.000462625
0.000462625
0.000435783
0.000435783
0.000464745
0.000433662
0.000462625
0.000462625
0.000435782
0.000435783
0.000462625
0.000435783
0.000435782
0.000464746
0.000433662
0.000462625
0.000435782
0.000435782
0.000433662
0.000428955
0.000397873
0.000426835
0.000426835
0.000399993
0.000399993
0.000428955
0.000397873
0.000426835
0.000426835
0.000399993
0.000399993
0.000426835
0.000399993
0.000399992
0.000428955
0.000397872
0.000426835
0.000399992
0.000399992
0.000397873
0.000393165
0.000362084
0.000391046
0.000391045
0.000364204
0.000364204
0.000393165
0.000362085
0.000391045
0.000391045
0.000364204
0.000364204
0.000391045
0.000364204
0.000364204
0.000393165
0.000362084
0.000391045
0.000364204
0.000364203
0.000362084
0.000357376
0.000326296
0.000355257
0.000355257
0.000328415
0.000328415
0.000357376
0.000326296
0.000355257
0.000355257
0.000328415
0.000328416
0.000355257
0.000328415
0.000328415
0.000357376
0.000326296
0.000355257
0.000328415
0.000328415
0.000326296
0.000321586
0.000290508
0.000319469
0.000319468
0.000292626
0.000292626
0.000321586
0.000290508
0.000319468
0.000319469
0.000292626
0.000292626
0.000319469
0.000292626
0.000292626
0.000321586
0.000290508
0.000319468
0.000292626
0.000292626
0.000290508
0.000285795
0.000254718
0.000283679
0.000283679
0.000256835
0.000256835
0.000285795
0.000254719
0.000283679
0.000283679
0.000256835
0.000256835
0.00028368
0.000256835
0.000256835
0.000285795
0.000254719
0.00028368
0.000256835
0.000256835
0.000254719
0.000250001
0.000218929
0.000247889
0.000247889
0.000221044
0.000221044
0.000250001
0.00021893
0.000247889
0.000247889
0.000221044
0.000221044
0.00024789
0.000221044
0.000221044
0.000250002
0.000218929
0.000247889
0.000221044
0.000221044
0.00021893
0.000214206
0.00018314
0.000212099
0.000212099
0.000185251
0.000185251
0.000214206
0.00018314
0.000212099
0.000212099
0.000185251
0.00018525
0.0002121
0.000185251
0.00018525
0.000214206
0.000183139
0.000212099
0.00018525
0.00018525
0.00018314
0.000178405
0.000147344
0.000176307
0.000176307
0.000149451
0.000149451
0.000178405
0.000147344
0.000176306
0.000176306
0.000149451
0.000149451
0.000176307
0.000149451
0.00014945
0.000178405
0.000147344
0.000176307
0.000149451
0.00014945
0.000147344
0.000142593
0.000111539
0.000140508
0.000140507
0.00011364
0.00011364
0.000142593
0.000111539
0.000140507
0.000140507
0.000113639
0.000113639
0.000140508
0.00011364
0.000113639
0.000142593
0.000111538
0.000140507
0.000113639
0.000113639
0.000111539
0.000106762
7.57142e-05
0.000104696
0.000104696
7.7808e-05
7.78082e-05
0.000106762
7.57152e-05
0.000104695
0.000104695
7.78073e-05
7.78072e-05
0.000104696
7.7808e-05
7.7807e-05
0.000106762
7.57134e-05
0.000104696
7.7807e-05
7.78066e-05
7.57138e-05
7.09072e-05
4.0026e-05
6.88653e-05
6.88659e-05
4.21427e-05
4.21434e-05
7.09073e-05
4.0027e-05
6.88644e-05
6.88639e-05
4.21416e-05
4.214e-05
6.88649e-05
4.21424e-05
4.21391e-05
7.09065e-05
4.00234e-05
6.88642e-05
4.21396e-05
4.21386e-05
4.00233e-05
3.52845e-05
7.31073e-06
3.353e-05
3.35311e-05
9.89755e-06
9.89605e-06
3.52851e-05
7.30969e-06
3.35291e-05
3.35266e-05
9.89588e-06
9.89218e-06
3.35257e-05
9.89441e-06
9.89076e-06
3.52815e-05
7.30698e-06
3.35258e-05
9.89328e-06
9.89244e-06
7.30568e-06
3.94566e-06
3.56621e-06
3.56378e-06
3.94558e-06
3.56244e-06
3.56081e-06
4.51851e-06
4.51696e-06
4.51666e-06
3.5609e-06
3.94323e-06
3.5607e-06
0.00360468
0.00361444
0.00360924
0.00360924
0.00363162
0.0036184
0.00364701
0.00361245
0.00363162
0.0036184
0.00361245
0.00364701
0.00362297
0.00365075
0.00365075
0.00356003
0.00357918
0.00358837
0.00355211
0.00355285
0.00355562
0.00356001
0.00357916
0.00358836
0.00355209
0.00358289
0.00358289
0.00358289
0.00353949
0.00353949
0.00353949
0.00353949
0.00355753
0.00358336
0.00358329
0.00356636
0.00358638
0.00355644
0.00356724
0.00355295
0.00355562
0.00355754
0.00358329
0.00358337
0.00356636
0.00358638
0.00356724
0.00355643
0.00358923
0.00358922
0.00356076
0.00355607
0.00355607
0.00351341
0.00353268
0.00353404
0.00351194
0.00353159
0.0035115
0.0035134
0.00353268
0.00353404
0.00351194
0.00352754
0.00352754
0.00352754
0.00348995
0.00348995
0.00348995
0.00348995
0.00351199
0.00353276
0.00352754
0.00351567
0.00353155
0.00351253
0.0035154
0.00353159
0.00351149
0.00351199
0.00352753
0.00353276
0.00351567
0.00353155
0.0035154
0.00351253
0.00353378
0.00353377
0.00351222
0.00351286
0.00351287
0.00346115
0.00347995
0.00348102
0.00346012
0.00347958
0.00345984
0.00346115
0.00347995
0.00348102
0.00346012
0.00347679
0.00347679
0.00347679
0.00343741
0.00343741
0.00343741
0.00343741
0.00346025
0.00348035
0.00347667
0.00346362
0.00347979
0.00346061
0.00346353
0.00347958
0.00345984
0.00346025
0.00347667
0.00348035
0.00346362
0.00347979
0.00346353
0.00346061
0.00348059
0.00348059
0.00346024
0.00346067
0.00346067
0.00340863
0.00342728
0.00342814
0.00340786
0.00342707
0.00340768
0.00340862
0.00342728
0.00342814
0.00340786
0.00342441
0.00342441
0.00342441
0.00338578
0.00338578
0.00338578
0.00338578
0.00340812
0.00342768
0.00342437
0.00341147
0.0034274
0.0034083
0.00341144
0.00342707
0.00340768
0.00340812
0.00342437
0.00342768
0.00341147
0.0034274
0.00341144
0.0034083
0.00342772
0.00342772
0.00340816
0.00340824
0.00340824
0.00335743
0.00337579
0.00337642
0.00335688
0.00337564
0.00335674
0.00335743
0.00337579
0.00337642
0.00335688
0.00337306
0.00337306
0.00337306
0.00333544
0.00333544
0.00333544
0.00333544
0.00335716
0.00337614
0.00337304
0.00336044
0.00337597
0.00335727
0.00336041
0.00337564
0.00335674
0.00335716
0.00337304
0.00337614
0.00336044
0.00337597
0.00336041
0.00335727
0.00337612
0.00337612
0.00335724
0.00335718
0.00335718
0.00330779
0.00332574
0.0033262
0.0033074
0.00332563
0.00330727
0.00330779
0.00332574
0.0033262
0.0033074
0.00332309
0.00332309
0.00332309
0.00328657
0.00328657
0.00328657
0.00328657
0.00330768
0.00332604
0.00332308
0.00331084
0.00332593