/*--------------------------------*- C++ -*----------------------------------*\
| =========                 |                                                 |
| \\      /  F ield         | OpenFOAM: The Open Source CFD Toolbox           |
|  \\    /   O peration     | Version:  v1906                                 |
|   \\  /    A nd           | Web:      www.OpenFOAM.com                      |
|    \\/     M anipulation  |                                                 |
\*---------------------------------------------------------------------------*/
FoamFile
{
    version     2.0;
    format      ascii;
    class       volScalarField;
    location    "300";
    object      p;
}
// * * * * * * * * * * * * * * * * * * * * * * * * * * * * * * * * * * * * * //

dimensions      [0 2 -2 0 0 0 0];


internalField   nonuniform List<scalar> 
42616
(
0.00359415
0.00359397
0.00359397
0.00359679
0.0035406
0.00354073
0.00354073
0.00354294
0.00348931
0.00348935
0.00348935
0.00349166
0.00343741
0.00343738
0.00343738
0.00343965
0.00338634
0.00338629
0.00338629
0.00338852
0.00333663
0.00333659
0.00333659
0.00333878
0.00328836
0.00328832
0.00328832
0.00329048
0.00324137
0.00324135
0.00324135
0.00324348
0.00319548
0.00319547
0.00319547
0.00319756
0.00315048
0.00315048
0.00315048
0.00315255
0.00310621
0.00310622
0.00310622
0.00310826
0.00306253
0.00306254
0.00306254
0.00306456
0.00301936
0.00301937
0.00301937
0.00302137
0.00297666
0.00297667
0.00297667
0.00297865
0.00293439
0.0029344
0.0029344
0.00293636
0.00289252
0.00289253
0.00289253
0.00289447
0.00285103
0.00285104
0.00285104
0.00285297
0.0028099
0.00280991
0.0028099
0.00281182
0.0027691
0.0027691
0.0027691
0.00277101
0.00272861
0.00272861
0.00272861
0.0027305
0.0026884
0.00268841
0.00268841
0.00269028
0.00360754
0.00360773
0.00360772
0.00360754
0.00360773
0.00360773
0.00360846
0.00360846
0.00360846
0.00360847
0.00360773
0.00360774
0.00360754
0.00360773
0.00360774
0.00360755
0.00359678
0.00355061
0.00359397
0.00359396
0.00355311
0.00355311
0.00359678
0.00355061
0.00359397
0.00359397
0.00355311
0.00355311
0.00359397
0.00355311
0.00355311
0.00359678
0.00355061
0.00359397
0.00355311
0.00355311
0.00355061
0.00354293
0.00349969
0.00354073
0.00354073
0.00350235
0.00350235
0.00354294
0.00349969
0.00354073
0.00354073
0.00350235
0.00350235
0.00354073
0.00350235
0.00350235
0.00354293
0.00349969
0.00354073
0.00350235
0.00350235
0.00349969
0.00349165
0.00344765
0.00348935
0.00348935
0.00345032
0.00345032
0.00349165
0.00344764
0.00348935
0.00348935
0.00345032
0.00345032
0.00348935
0.00345032
0.00345032
0.00349165
0.00344765
0.00348935
0.00345032
0.00345032
0.00344765
0.00343965
0.00339632
0.00343738
0.00343738
0.00339894
0.00339894
0.00343965
0.00339632
0.00343738
0.00343738
0.00339894
0.00339894
0.00343738
0.00339894
0.00339894
0.00343965
0.00339632
0.00343738
0.00339894
0.00339894
0.00339632
0.00338852
0.00334636
0.00338629
0.00338629
0.00334887
0.00334887
0.00338852
0.00334636
0.00338629
0.00338629
0.00334887
0.00334887
0.00338629
0.00334887
0.00334887
0.00338852
0.00334636
0.00338629
0.00334887
0.00334887
0.00334636
0.00333878
0.00329785
0.00333659
0.00333659
0.00330026
0.00330026
0.00333878
0.00329784
0.00333659
0.00333659
0.00330026
0.00330026
0.00333659
0.00330026
0.00330026
0.00333878
0.00329785
0.00333659
0.00330026
0.00330026
0.00329784
0.00329048
0.00325066
0.00328832
0.00328832
0.00325298
0.00325299
0.00329048
0.00325066
0.00328832
0.00328832
0.00325298
0.00325298
0.00328832
0.00325298
0.00325298
0.00329048
0.00325066
0.00328832
0.00325298
0.00325298
0.00325066
0.00324348
0.00320459
0.00324135
0.00324135
0.00320685
0.00320685
0.00324348
0.00320459
0.00324135
0.00324135
0.00320685
0.00320685
0.00324135
0.00320685
0.00320685
0.00324347
0.00320459
0.00324135
0.00320685
0.00320685
0.00320459
0.00319757
0.00315946
0.00319547
0.00319547
0.00316166
0.00316166
0.00319757
0.00315946
0.00319547
0.00319547
0.00316166
0.00316166
0.00319547
0.00316166
0.00316166
0.00319757
0.00315946
0.00319547
0.00316166
0.00316166
0.00315946
0.00315255
0.00311507
0.00315048
0.00315048
0.00311722
0.00311722
0.00315255
0.00311507
0.00315048
0.00315048
0.00311722
0.00311722
0.00315048
0.00311722
0.00311722
0.00315255
0.00311507
0.00315048
0.00311722
0.00311722
0.00311507
0.00310826
0.00307129
0.00310621
0.00310621
0.00307341
0.00307341
0.00310826
0.00307129
0.00310621
0.00310621
0.00307341
0.00307341
0.00310622
0.00307341
0.00307341
0.00310826
0.00307129
0.00310622
0.00307341
0.00307341
0.00307129
0.00306456
0.00302802
0.00306254
0.00306254
0.00303012
0.00303012
0.00306456
0.00302802
0.00306254
0.00306254
0.00303012
0.00303012
0.00306254
0.00303012
0.00303012
0.00306456
0.00302802
0.00306254
0.00303012
0.00303012
0.00302802
0.00302137
0.00298523
0.00301937
0.00301937
0.0029873
0.00298731
0.00302137
0.00298523
0.00301937
0.00301937
0.0029873
0.0029873
0.00301937
0.00298731
0.0029873
0.00302137
0.00298523
0.00301937
0.0029873
0.0029873
0.00298523
0.00297865
0.0029429
0.00297667
0.00297667
0.00294493
0.00294493
0.00297865
0.0029429
0.00297667
0.00297667
0.00294493
0.00294493
0.00297667
0.00294493
0.00294493
0.00297865
0.0029429
0.00297667
0.00294493
0.00294493
0.0029429
0.00293636
0.00290097
0.0029344
0.0029344
0.00290296
0.00290296
0.00293636
0.00290097
0.0029344
0.0029344
0.00290296
0.00290296
0.0029344
0.00290296
0.00290296
0.00293636
0.00290097
0.0029344
0.00290296
0.00290296
0.00290097
0.00289447
0.00285943
0.00289253
0.00289253
0.00286138
0.00286138
0.00289447
0.00285943
0.00289253
0.00289253
0.00286138
0.00286138
0.00289253
0.00286138
0.00286138
0.00289447
0.00285943
0.00289253
0.00286138
0.00286138
0.00285943
0.00285297
0.00281824
0.00285104
0.00285104
0.00282016
0.00282016
0.00285297
0.00281824
0.00285104
0.00285104
0.00282016
0.00282016
0.00285104
0.00282016
0.00282016
0.00285297
0.00281824
0.00285104
0.00282016
0.00282016
0.00281824
0.00281182
0.00277739
0.0028099
0.00280991
0.00277927
0.00277927
0.00281182
0.00277739
0.0028099
0.0028099
0.00277927
0.00277927
0.00280991
0.00277927
0.00277927
0.00281182
0.00277739
0.00280991
0.00277927
0.00277927
0.00277739
0.00277101
0.00273685
0.0027691
0.0027691
0.00273871
0.0027387
0.00277101
0.00273685
0.0027691
0.0027691
0.00273871
0.00273871
0.0027691
0.00273871
0.00273871
0.00277101
0.00273685
0.0027691
0.00273871
0.00273871
0.00273685
0.0027305
0.0026966
0.00272861
0.00272861
0.00269843
0.00269843
0.0027305
0.0026966
0.00272861
0.00272861
0.00269843
0.00269843
0.00272861
0.00269843
0.00269843
0.0027305
0.0026966
0.00272861
0.00269843
0.00269843
0.0026966
0.00269028
0.00268841
0.00268841
0.00269028
0.00268841
0.00268841
0.00268841
0.00269028
0.00268841
0.00361668
0.00362665
0.00362126
0.00362126
0.0036437
0.00363064
0.00365913
0.00362455
0.0036437
0.00363065
0.00362455
0.00365916
0.00363516
0.00366324
0.00366322
0.00357562
0.00357567
0.00359401
0.00357393
0.00355373
0.00357289
0.00357562
0.00357576
0.00359398
0.00357392
0.00359414
0.00359415
0.00359415
0.00355299
0.00355299
0.00355299
0.00355299
0.00357429
0.00359107
0.00359422
0.00357846
0.00359638
0.00357525
0.0035791
0.00355379
0.00357292
0.0035743
0.00359422
0.0035911
0.00357847
0.00359637
0.0035791
0.00357525
0.00358778
0.00358776
0.00357532
0.0035756
0.00357561
0.00352596
0.00354382
0.00354484
0.00352505
0.00354319
0.00352458
0.00352596
0.00354381
0.00354484
0.00352505
0.0035406
0.0035406
0.0035406
0.00350229
0.00350229
0.00350229
0.00350229
0.00352505
0.00354431
0.00354067
0.00352811
0.0035436
0.00352552
0.00352805
0.0035432
0.00352458
0.00352505
0.00354067
0.0035443
0.00352811
0.0035436
0.00352806
0.00352552
0.00354458
0.00354458
0.00352548
0.00352565
0.00352565
0.00347369
0.00349228
0.00349312
0.00347291
0.00349199
0.00347267
0.00347369
0.00349228
0.00349313
0.00347291
0.00348931
0.00348931
0.00348931
0.00345035
0.00345035
0.00345035
0.00345035
0.00347317
0.00349266
0.00348932
0.00347633
0.00349236
0.00347334
0.00347631
0.00349199
0.00347267
0.00347317
0.00348932
0.00349266
0.00347633
0.00349237
0.00347631
0.00347334
0.00349273
0.00349273
0.00347365
0.00347329
0.00347328
0.00342158
0.00344007
0.00344075
0.00342097
0.0034399
0.00342081
0.00342158
0.00344007
0.00344075
0.00342097
0.00343741
0.00343741
0.00343741
0.00339899
0.00339899
0.00339899
0.00339899
0.0034213
0.00344037
0.00343738
0.00342449
0.00344027
0.00342134
0.0034245
0.0034399
0.00342081
0.0034213
0.00343738
0.00344037
0.00342449
0.00344027
0.0034245
0.00342134
0.00344037
0.00344037
0.00342184
0.00342123
0.00342123
0.00337071
0.00338884
0.00338935
0.00337027
0.00338873
0.00337013
0.00337071
0.00338884
0.00338935
0.00337027
0.00338634
0.00338634
0.00338634
0.00334892
0.00334892
0.00334892
0.00334892
0.00337059
0.00338908
0.00338629
0.00337372
0.00338905
0.0033706
0.00337373
0.00338873
0.00337014
0.00337059
0.00338629
0.00338908
0.00337372
0.00338905
0.00337373
0.00337059
0.00338907
0.00338907
0.00337116
0.00337047
0.00337047
0.00332136
0.00333907
0.00333942
0.00332105
0.00333899
0.00332093
0.00332136
0.00333907
0.00333942
0.00332105
0.00333663
0.00333663
0.00333663
0.0033003
0.0033003
0.0033003
0.0033003
0.00332135
0.00333925
0.00333659
0.00332439
0.00333924
0.00332134
0.00332439
0.00333897
0.00332094
0.00332135
0.00333659
0.00333925
0.00332439
0.00333924
0.00332439
0.00332134
0.00333926
0.00333926
0.00332193
0.00332123
0.00332123
0.00327347
0.00329076
0.003291
0.00327325
0.00329067
0.00327314
0.00327347
0.00329076
0.003291
0.00327325
0.00328835
0.00328836
0.00328835
0.00325301
0.00325301
0.00325301
0.00325301
0.00327352
0.0032909
0.00328831
0.00327647
0.00329089
0.00327352
0.00327645
0.00329067
0.00327314
0.00327352
0.00328831
0.0032909
0.00327647
0.00329089
0.00327646
0.00327352
0.00329092
0.00329092
0.0032741
0.00327341
0.00327341
0.00322684
0.00324375
0.00324392
0.00322668
0.00324367
0.00322657
0.00322684
0.00324375
0.00324392
0.00322668
0.00324137
0.00324137
0.00324137
0.00320686
0.00320686
0.00320686
0.00320686
0.00322694
0.00324386
0.00324134
0.00322979
0.00324385
0.00322693
0.00322977
0.00324367
0.00322657
0.00322694
0.00324134
0.00324386
0.00322979
0.00324385
0.00322977
0.00322693
0.0032439
0.0032439
0.0032275
0.00322682
0.00322682
0.00318126
0.00319784
0.00319797
0.00318112
0.00319777
0.00318102
0.00318126
0.00319784
0.00319797
0.00318112
0.00319548
0.00319548
0.00319548
0.00316166
0.00316166
0.00316166
0.00316166
0.00318139
0.00319793
0.00319545
0.00318415
0.00319792
0.00318138
0.00318413
0.00319777
0.00318102
0.00318139
0.00319545
0.00319793
0.00318415
0.00319792
0.00318413
0.00318138
0.00319797
0.00319797
0.00318192
0.00318126
0.00318126
0.00313651
0.00315283
0.00315294
0.0031364
0.00315276
0.0031363
0.00313651
0.00315283
0.00315294
0.0031364
0.00315048
0.00315048
0.00315048
0.00311722
0.00311722
0.00311722
0.00311722
0.00313667
0.00315291
0.00315046
0.00313935
0.0031529
0.00313665
0.00313933
0.00315275
0.0031363
0.00313667
0.00315046
0.00315291
0.00313936
0.0031529
0.00313933
0.00313665
0.00315295
0.00315295
0.00313718
0.00313652
0.00313652
0.00309245
0.00310853
0.00310863
0.00309234
0.00310847
0.00309225
0.00309245
0.00310854
0.00310863
0.00309234
0.00310621
0.00310621
0.00310621
0.0030734
0.0030734
0.0030734
0.0030734
0.00309262
0.00310861
0.00310619
0.00309524
0.00310861
0.00309259
0.00309522
0.00310847
0.00309225
0.00309262
0.00310619
0.00310861
0.00309525
0.00310861
0.00309522
0.00309259
0.00310865
0.00310865
0.00309311
0.00309245
0.00309245
0.00304895
0.00306484
0.00306493
0.00304883
0.00306477
0.00304875
0.00304895
0.00306484
0.00306493
0.00304883
0.00306253
0.00306253
0.00306253
0.00303011
0.00303011
0.00303011
0.00303011
0.00304914
0.0030649
0.00306252
0.0030517
0.00306491
0.00304909
0.00305168
0.00306477
0.00304875
0.00304914
0.00306252
0.0030649
0.0030517
0.00306491
0.00305168
0.00304909
0.00306494
0.00306494
0.00304959
0.00304894
0.00304894
0.00300594
0.00302165
0.00302175
0.00300582
0.00302159
0.00300575
0.00300594
0.00302165
0.00302175
0.00300582
0.00301936
0.00301936
0.00301936
0.00298729
0.00298729
0.00298729
0.00298729
0.00300615
0.0030217
0.00301936
0.00300866
0.00302173
0.00300608
0.00300864
0.00302159
0.00300574
0.00300615
0.00301936
0.0030217
0.00300866
0.00302173
0.00300864
0.00300608
0.00302174
0.00302174
0.00300657
0.00300592
0.00300592
0.00296338
0.00297893
0.00297903
0.00296326
0.00297887
0.00296319
0.00296338
0.00297892
0.00297903
0.00296326
0.00297666
0.00297666
0.00297666
0.00294492
0.00294492
0.00294492
0.00294492
0.00296361
0.00297897
0.00297666
0.00296606
0.00297901
0.00296351
0.00296605
0.00297887
0.00296319
0.00296361
0.00297666
0.00297897
0.00296606
0.00297901
0.00296605
0.00296351
0.002979
0.002979
0.00296401
0.00296335
0.00296335
0.00292124
0.00293663
0.00293674
0.00292112
0.00293658
0.00292105
0.00292124
0.00293663
0.00293674
0.00292112
0.00293439
0.00293439
0.00293439
0.00290295
0.00290295
0.00290295
0.00290295
0.00292149
0.00293667
0.00293439
0.00292389
0.00293673
0.00292137
0.00292389
0.00293658
0.00292105
0.00292149
0.00293439
0.00293667
0.00292389
0.00293673
0.00292389
0.00292137
0.0029367
0.0029367
0.00292189
0.00292119
0.00292119
0.0028795
0.00289474
0.00289485
0.00287937
0.00289469
0.00287931
0.0028795
0.00289474
0.00289485
0.00287937
0.00289252
0.00289252
0.00289252
0.00286137
0.00286137
0.00286137
0.00286137
0.00287977
0.00289477
0.00289252
0.00288212
0.00289484
0.00287961
0.00288212
0.0028947
0.00287931
0.00287976
0.00289252
0.00289478
0.00288212
0.00289485
0.00288212
0.00287961
0.0028948
0.0028948
0.00288015
0.00287944
0.00287944
0.00283813
0.00285324
0.00285334
0.002838
0.0028532
0.00283794
0.00283813
0.00285324
0.00285334
0.002838
0.00285103
0.00285103
0.00285103
0.00282015
0.00282015
0.00282015
0.00282015
0.00283841
0.00285326
0.00285104
0.00284072
0.00285334
0.00283824
0.00284072
0.0028532
0.00283794
0.00283841
0.00285104
0.00285326
0.00284072
0.00285334
0.00284072
0.00283824
0.00285329
0.00285329
0.00283879
0.00283806
0.00283806
0.00279711
0.0028121
0.0028122
0.00279698
0.00281206
0.00279693
0.00279711
0.0028121
0.0028122
0.00279698
0.0028099
0.0028099
0.0028099
0.00277927
0.00277927
0.00277927
0.00277927
0.0027974
0.00281212
0.00280991
0.00279967
0.0028122
0.00279721
0.00279968
0.00281206
0.00279693
0.0027974
0.00280991
0.00281212
0.00279967
0.0028122
0.00279968
0.00279721
0.00281214
0.00281214
0.00279777
0.00279704
0.00279704
0.00275641
0.0027713
0.00277139
0.00275628
0.00277126
0.00275625
0.00275641
0.00277129
0.00277139
0.00275629
0.0027691
0.0027691
0.0027691
0.0027387
0.0027387
0.0027387
0.0027387
0.00275671
0.0027713
0.00276911
0.00275895
0.00277139
0.00275651
0.00275895
0.00277126
0.00275624
0.00275671
0.00276911
0.0027713
0.00275895
0.00277139
0.00275896
0.00275651
0.00277133
0.00277133
0.00275708
0.00275634
0.00275634
0.00271602
0.0027308
0.00273088
0.0027159
0.00273076
0.00271587
0.00271602
0.0027308
0.00273088
0.0027159
0.00272861
0.00272861
0.00272861
0.00269843
0.00269843
0.00269843
0.00269843
0.00271631
0.0027308
0.00272861
0.00271853
0.00273088
0.00271611
0.00271854
0.00273077
0.00271586
0.00271631
0.00272861
0.0027308
0.00271854
0.00273088
0.00271854
0.00271611
0.00273083
0.00273083
0.00271669
0.00271594
0.00271594
0.0026759
0.00269059
0.00269067
0.00267578
0.00269055
0.00267575
0.00269059
0.00269067
0.00267579
0.0026884
0.0026884
0.0026884
0.00267619
0.00269058
0.00268841
0.0026784
0.00269066
0.00267599
0.0026784
0.00269056
0.00267619
0.00268841
0.00269058
0.00269066
0.0026784
0.00269061
0.00269061
0.00267658
0.00267582
0.00267582
0.00363515
0.00366318
0.00366321
0.0036178
0.00366305
0.00361781
0.00366319
0.00363179
0.00361602
0.00361603
0.0036574
0.00365749
0.00364369
0.00363065
0.00365912
0.00362455
0.0036437
0.00363065
0.00365924
0.00362455
0.0036474
0.0036115
0.00365951
0.00360916
0.00364741
0.00361144
0.00365991
0.00360916
0.00363908
0.0036278
0.00361092
0.00360978
0.00365365
0.00362265
0.0036093
0.00363908
0.0036278
0.00361095
0.00360978
0.00365388
0.00362265
0.0036093
0.00363514
0.00366334
0.0036632
0.0036177
0.00366334
0.00363179
0.00361603
0.00361602
0.00365761
0.00365742
0.00361785
0.0036631
0.00364371
0.00363065
0.00365914
0.00362455
0.00364371
0.00363065
0.00362455
0.00365917
0.00364745
0.00361146
0.00365979
0.00360916
0.0036391
0.0036278
0.00361098
0.00360978
0.00365378
0.00362265
0.0036093
0.00364744
0.0036115
0.0036598
0.00360915
0.0036391
0.0036278
0.00360978
0.00361097
0.00362265
0.00365379
0.0036093
0.00361668
0.00362665
0.00362126
0.00362126
0.00361668
0.00362665
0.00362126
0.00362126
0.00361668
0.00362666
0.00362126
0.00362126
0.00361536
0.00362428
0.00360684
0.00360684
0.0036196
0.0036196
0.00360521
0.00361536
0.00362428
0.00360684
0.00360684
0.0036196
0.0036196
0.00360521
0.00361536
0.00362428
0.00360684
0.00360684
0.0036196
0.00361961
0.00360521
0.00361536
0.00362429
0.00360684
0.00360684
0.0036196
0.00361961
0.00360521
0.0036437
0.00363065
0.00362455
0.00365916
0.00363909
0.0036278
0.00361092
0.00360978
0.00365367
0.00362265
0.00360932
0.00364742
0.00361152
0.00365955
0.00360917
0.00363909
0.00362781
0.00360978
0.00361093
0.00362265
0.00365369
0.00360931
0.00364742
0.00361153
0.00365956
0.00360916
0.00363515
0.00366324
0.00366326
0.00361758
0.00366319
0.0036318
0.00361597
0.00361605
0.00365748
0.00365754
0.00361767
0.00366327
0.0036437
0.00363065
0.00362455
0.00365915
0.0036391
0.0036278
0.00360978
0.00361098
0.00362265
0.00365381
0.00360932
0.00363909
0.00362781
0.00360979
0.00361093
0.00362265
0.00365369
0.00360932
0.00364743
0.00361148
0.00365984
0.00360916
0.00364743
0.00361153
0.00365957
0.00360917
0.0036318
0.00361608
0.00361608
0.00365746
0.00365745
0.00361771
0.0036631
0.00361777
0.00366311
0.00355363
0.0035729
0.00355379
0.00357289
0.00358774
0.00358777
0.00357533
0.00357561
0.0035756
0.00354959
0.00356612
0.00354959
0.00356618
0.00356775
0.00355111
0.0035511
0.00356877
0.00356878
0.00357562
0.00357576
0.003594
0.00357394
0.0035743
0.00359108
0.00359422
0.00357846
0.00359637
0.00357525
0.0035791
0.0035743
0.00359108
0.00359422
0.00357846
0.00359637
0.00357525
0.0035791
0.00356924
0.00355028
0.00356725
0.00355131
0.00356924
0.00355028
0.00356725
0.00355131
0.00356789
0.00356545
0.00355084
0.00355309
0.00356855
0.00356564
0.00355012
0.00356789
0.00356545
0.00355085
0.00355309
0.00356855
0.00356564
0.00355012
0.00358776
0.00358775
0.00357534
0.00357561
0.00357562
0.0035538
0.00357294
0.00354959
0.00356611
0.00356775
0.0035511
0.00355111
0.00356877
0.00356877
0.00354961
0.00356616
0.00357429
0.00359109
0.00359422
0.00357847
0.00359637
0.00357524
0.0035791
0.00357562
0.00357578
0.00359399
0.00357396
0.0035743
0.00359422
0.00359109
0.00357846
0.00359637
0.0035791
0.00357526
0.00356924
0.00355027
0.00356727
0.00355131
0.00356789
0.00356545
0.00355084
0.00355308
0.00356855
0.00356563
0.00355011
0.00356923
0.00355027
0.00356727
0.00355131
0.00356789
0.00356545
0.00355308
0.00355084
0.00356563
0.00356855
0.00355011
0.00357561
0.00357567
0.00359399
0.00357395
0.00357429
0.00359422
0.00359108
0.00357846
0.00359638
0.0035791
0.00357525
0.00357561
0.00357569
0.00359399
0.00357394
0.00356789
0.00356545
0.00355085
0.00355308
0.00356854
0.00356564
0.00355011
0.00356923
0.00355028
0.00356725
0.00355131
0.00356789
0.00356545
0.00355309
0.00355085
0.00356564
0.00356854
0.00355012
0.00356923
0.00355028
0.00356724
0.00355131
0.00358774
0.00358777
0.00357531
0.00357561
0.0035756
0.00355382
0.00357288
0.00354959
0.00356614
0.00356775
0.0035511
0.0035511
0.00356878
0.00356877
0.00354958
0.00356612
0.0035743
0.00359422
0.00359107
0.00357847
0.00359638
0.0035791
0.00357525
0.00357562
0.00357578
0.00359399
0.00357393
0.00357562
0.00357566
0.00359399
0.00357395
0.00356789
0.00356545
0.00355308
0.00355084
0.00356564
0.00356855
0.00355011
0.00356789
0.00356545
0.00355308
0.00355084
0.00356564
0.00356855
0.00355011
0.00356923
0.00355027
0.00356727
0.00355131
0.00356923
0.00355027
0.00356725
0.00355131
0.00355382
0.0035729
0.00355381
0.00357292
0.00356775
0.00355111
0.0035511
0.00356877
0.00356877
0.0035496
0.00356612
0.00354957
0.00356615
0.00354319
0.00352458
0.00354318
0.00352458
0.00354458
0.00354458
0.00352548
0.00352564
0.00352564
0.00349876
0.00351792
0.00349876
0.00351792
0.00351756
0.00349954
0.00349955
0.00351891
0.00351891
0.00352596
0.00354382
0.00354484
0.00352505
0.00352505
0.0035443
0.00354067
0.00352811
0.0035436
0.00352552
0.00352805
0.00352505
0.00354431
0.00354067
0.00352811
0.0035436
0.00352552
0.00352806
0.00351925
0.00349908
0.00351834
0.00349992
0.00351925
0.00349908
0.00351834
0.00349992
0.00351829
0.00351529
0.00349953
0.00350231
0.00351875
0.00351524
0.00349924
0.00351829
0.00351529
0.00349953
0.00350231
0.00351875
0.00351524
0.00349924
0.00354458
0.00354459
0.00352548
0.00352565
0.00352565
0.00354321
0.00352459
0.00349876
0.00351792
0.00351756
0.00349955
0.00349955
0.00351891
0.00351891
0.00349876
0.00351792
0.00352505
0.0035443
0.00354067
0.00352811
0.0035436
0.00352552
0.00352805
0.00352595
0.00354382
0.00354484
0.00352505
0.00352505
0.00354067
0.0035443
0.00352811
0.0035436
0.00352805
0.00352552
0.00351925
0.00349908
0.00351834
0.00349992
0.00351829
0.00351529
0.00349953
0.00350231
0.00351875
0.00351524
0.00349924
0.00351925
0.00349908
0.00351834
0.00349992
0.00351829
0.00351529
0.00350231
0.00349953
0.00351524
0.00351875
0.00349924
0.00352596
0.00354383
0.00354484
0.00352505
0.00352505
0.00354067
0.0035443
0.00352811
0.0035436
0.00352806
0.00352552
0.00352596
0.00354381
0.00354484
0.00352505
0.00351829
0.00351529
0.00349953
0.00350231
0.00351875
0.00351524
0.00349924
0.00351925
0.00349908
0.00351834
0.00349992
0.00351829
0.00351529
0.00350231
0.00349953
0.00351524
0.00351875
0.00349924
0.00351925
0.00349908
0.00351834
0.00349992
0.00354458
0.00354458
0.00352548
0.00352564
0.00352565
0.00354319
0.00352458
0.00349876
0.00351792
0.00351756
0.00349955
0.00349955
0.00351891
0.00351891
0.00349876
0.00351792
0.00352505
0.00354067
0.0035443
0.00352811
0.0035436
0.00352806
0.00352552
0.00352596
0.00354382
0.00354484
0.00352505
0.00352596
0.00354382
0.00354485
0.00352505
0.00351829
0.00351529
0.00350231
0.00349953
0.00351524
0.00351875
0.00349924
0.00351829
0.00351529
0.00350231
0.00349953
0.00351524
0.00351875
0.00349924
0.00351926
0.00349908
0.00351834
0.00349993
0.00351926
0.00349908
0.00351834
0.00349993
0.00354318
0.00352458
0.00354319
0.00352458
0.00351756
0.00349955
0.00349955
0.00351891
0.00351892
0.00349876
0.00351792
0.00349876
0.00351792
0.00349199
0.00347267
0.00349199
0.00347267
0.00349273
0.00349273
0.00347365
0.00347328
0.00347328
0.00344664
0.00346589
0.00344664
0.00346589
0.00346561
0.00344713
0.00344713
0.00346647
0.00346647
0.00347369
0.00349228
0.00349313
0.00347291
0.00347317
0.00349266
0.00348932
0.00347633
0.00349236
0.00347334
0.00347631
0.00347317
0.00349266
0.00348932
0.00347633
0.00349236
0.00347334
0.00347631
0.00346688
0.00344682
0.00346611
0.00344752
0.00346688
0.00344682
0.00346611
0.00344752
0.00346628
0.00346331
0.00344722
0.00345032
0.00346645
0.00346331
0.00344713
0.00346628
0.00346332
0.00344722
0.00345032
0.00346645
0.00346331
0.00344713
0.00349273
0.00349273
0.00347365
0.00347328
0.00347328
0.00349199
0.00347267
0.00344664
0.00346589
0.00346561
0.00344713
0.00344713
0.00346647
0.00346647
0.00344663
0.00346589
0.00347317
0.00349266
0.00348932
0.00347633
0.00349236
0.00347334
0.00347631
0.00347368
0.00349228
0.00349312
0.00347291
0.00347317
0.00348932
0.00349265
0.00347633
0.00349236
0.00347631
0.00347333
0.00346688
0.00344682
0.00346611
0.00344752
0.00346628
0.00346331
0.00344722
0.00345032
0.00346645
0.00346331
0.00344713
0.00346688
0.00344682
0.00346611
0.00344752
0.00346627
0.00346332
0.00345032
0.00344722
0.00346331
0.00346645
0.00344713
0.00347369
0.00349228
0.00349313
0.00347291
0.00347317
0.00348932
0.00349266
0.00347633
0.00349237
0.00347631
0.00347334
0.00347369
0.00349228
0.00349313
0.00347291
0.00346628
0.00346331
0.00344722
0.00345032
0.00346645
0.00346331
0.00344713
0.00346688
0.00344682
0.00346611
0.00344752
0.00346628
0.00346331
0.00345032
0.00344722
0.00346331
0.00346645
0.00344713
0.00346688
0.00344682
0.00346611
0.00344752
0.00349273
0.00349273
0.00347365
0.00347328
0.00347328
0.00349199
0.00347267
0.00344664
0.00346589
0.00346561
0.00344713
0.00344713
0.00346647
0.00346647
0.00344663
0.0034659
0.00347317
0.00348932
0.00349266
0.00347633
0.00349237
0.00347631
0.00347334
0.00347369
0.00349228
0.00349313
0.00347291
0.00347369
0.00349228
0.00349313
0.00347291
0.00346628
0.00346331
0.00345032
0.00344722
0.00346331
0.00346645
0.00344713
0.00346628
0.00346331
0.00345032
0.00344722
0.00346331
0.00346645
0.00344713
0.00346688
0.00344682
0.00346611
0.00344752
0.00346688
0.00344682
0.00346611
0.00344752
0.00349199
0.00347267
0.00349199
0.00347268
0.00346561
0.00344713
0.00344713
0.00346647
0.00346647
0.00344664
0.0034659
0.00344664
0.0034659
0.0034399
0.00342081
0.0034399
0.00342081
0.00344037
0.00344037
0.00342184
0.00342123
0.00342123
0.0033953
0.00341415
0.0033953
0.00341415
0.00341393
0.00339566
0.00339566
0.00341454
0.00341454
0.00342158
0.00344007
0.00344075
0.00342097
0.0034213
0.00344037
0.00343738
0.00342449
0.00344027
0.00342134
0.0034245
0.0034213
0.00344037
0.00343738
0.00342449
0.00344027
0.00342134
0.0034245
0.00341488
0.00339544
0.00341429
0.00339596
0.00341488
0.00339544
0.00341429
0.00339596
0.0034145
0.00341167
0.00339579
0.00339894
0.00341456
0.00341168
0.00339577
0.0034145
0.00341167
0.00339579
0.00339895
0.00341456
0.00341168
0.00339577
0.00344037
0.00344037
0.00342184
0.00342123
0.00342123
0.0034399
0.00342081
0.0033953
0.00341415
0.00341393
0.00339566
0.00339566
0.00341454
0.00341454
0.0033953
0.00341415
0.0034213
0.00344037
0.00343738
0.00342449
0.00344027
0.00342134
0.0034245
0.00342158
0.00344007
0.00344075
0.00342097
0.0034213
0.00343738
0.00344037
0.00342449
0.00344027
0.0034245
0.00342134
0.00341488
0.00339544
0.00341428
0.00339595
0.0034145
0.00341167
0.00339579
0.00339894
0.00341456
0.00341168
0.00339577
0.00341488
0.00339544
0.00341429
0.00339596
0.0034145
0.00341167
0.00339894
0.00339579
0.00341168
0.00341456
0.00339577
0.00342158
0.00344007
0.00344075
0.00342097
0.0034213
0.00343738
0.00344038
0.00342449
0.00344027
0.0034245
0.00342134
0.00342158
0.00344007
0.00344075
0.00342097
0.0034145
0.00341167
0.00339579
0.00339895
0.00341456
0.00341168
0.00339577
0.00341488
0.00339544
0.00341429
0.00339596
0.0034145
0.00341167
0.00339895
0.00339579
0.00341168
0.00341456
0.00339577
0.00341488
0.00339544
0.00341429
0.00339596
0.00344037
0.00344037
0.00342184
0.00342123
0.00342123
0.0034399
0.00342081
0.0033953
0.00341415
0.00341393
0.00339566
0.00339566
0.00341454
0.00341454
0.0033953
0.00341415
0.0034213
0.00343738
0.00344038
0.00342449
0.00344027
0.0034245
0.00342134
0.00342157
0.00344007
0.00344075
0.00342097
0.00342157
0.00344007
0.00344075
0.00342097
0.0034145
0.00341167
0.00339895
0.00339579
0.00341168
0.00341456
0.00339577
0.0034145
0.00341167
0.00339895
0.00339579
0.00341168
0.00341456
0.00339577
0.00341488
0.00339544
0.00341429
0.00339595
0.00341488
0.00339544
0.00341429
0.00339595
0.0034399
0.00342081
0.0034399
0.00342081
0.00341393
0.00339566
0.00339566
0.00341454
0.00341454
0.0033953
0.00341415
0.0033953
0.00341415
0.00338873
0.00337014
0.00338873
0.00337014
0.00338907
0.00338907
0.00337116
0.00337047
0.00337047
0.00334536
0.00336367
0.00334536
0.00336366
0.00336347
0.00334566
0.00334566
0.00336397
0.00336397
0.00337071
0.00338884
0.00338935
0.00337026
0.00337059
0.00338908
0.00338629
0.00337372
0.00338905
0.00337059
0.00337373
0.00337059
0.00338909
0.00338629
0.00337372
0.00338905
0.00337059
0.00337373
0.00336419
0.00334547
0.00336377
0.00334584
0.00336419
0.00334548
0.00336376
0.00334584
0.00336396
0.00336125
0.00334578
0.00334887
0.00336398
0.00336126
0.00334578
0.00336396
0.00336125
0.00334578
0.00334887
0.00336398
0.00336126
0.00334578
0.00338907
0.00338907
0.00337116
0.00337047
0.00337047
0.00338873
0.00337014
0.00334536
0.00336366
0.00336347
0.00334567
0.00334566
0.00336397
0.00336397
0.00334536
0.00336366
0.00337059
0.00338908
0.00338629
0.00337372
0.00338905
0.00337059
0.00337373
0.00337071
0.00338884
0.00338935
0.00337027
0.00337059
0.00338629
0.00338908
0.00337372
0.00338905
0.00337373
0.00337059
0.00336419
0.00334547
0.00336377
0.00334584
0.00336396
0.00336125
0.00334578
0.00334887
0.00336398
0.00336126
0.00334578
0.00336419
0.00334547
0.00336377
0.00334584
0.00336396
0.00336125
0.00334887
0.00334578
0.00336126
0.00336398
0.00334578
0.00337071
0.00338884
0.00338935
0.00337027
0.00337059
0.00338629
0.00338908
0.00337372
0.00338905
0.00337373
0.0033706
0.00337071
0.00338884
0.00338935
0.00337027
0.00336396
0.00336125
0.00334578
0.00334887
0.00336398
0.00336126
0.00334578
0.00336419
0.00334547
0.00336377
0.00334584
0.00336396
0.00336125
0.00334887
0.00334578
0.00336126
0.00336398
0.00334578
0.00336419
0.00334547
0.00336377
0.00334584
0.00338907
0.00338907
0.00337116
0.00337047
0.00337047
0.00338873
0.00337014
0.00334536
0.00336366
0.00336347
0.00334566
0.00334566
0.00336397
0.00336397
0.00334536
0.00336366
0.00337059
0.00338629
0.00338908
0.00337372
0.00338905
0.00337373
0.00337059
0.0033707
0.00338884
0.00338935
0.00337027
0.0033707
0.00338884
0.00338935
0.00337027
0.00336396
0.00336125
0.00334888
0.00334578
0.00336126
0.00336398
0.00334578
0.00336396
0.00336125
0.00334887
0.00334578
0.00336126
0.00336398
0.00334578
0.00336419
0.00334547
0.00336377
0.00334584
0.00336419
0.00334547
0.00336377
0.00334584
0.00338873
0.00337014
0.00338873
0.00337014
0.00336347
0.00334566
0.00334566
0.00336397
0.00336397
0.00334536
0.00336366
0.00334536
0.00336366
0.00333898
0.00332094
0.00333897
0.00332094
0.00333926
0.00333926
0.00332193
0.00332123
0.00332123
0.00329688
0.00331465
0.00329688
0.00331465
0.00331446
0.00329715
0.00329715
0.00331492
0.00331492
0.00332136
0.00333907
0.00333942
0.00332104
0.00332135
0.00333925
0.00333659
0.00332439
0.00333924
0.00332134
0.00332439
0.00332135
0.00333926
0.00333659
0.00332439
0.00333924
0.00332134
0.00332439
0.00331503
0.00329698
0.00331474
0.00329724
0.00331503
0.00329698
0.00331474
0.00329724
0.00331489
0.00331228
0.00329726
0.00330025
0.0033149
0.00331228
0.00329727
0.00331489
0.00331228
0.00329726
0.00330025
0.0033149