/*--------------------------------*- C++ -*----------------------------------*\
| =========                 |                                                 |
| \\      /  F ield         | OpenFOAM: The Open Source CFD Toolbox           |
|  \\    /   O peration     | Version:  v1912                                 |
|   \\  /    A nd           | Website:  www.openfoam.com                      |
|    \\/     M anipulation  |                                                 |
\*---------------------------------------------------------------------------*/
FoamFile
{
    version     2.0;
    format      ascii;
    class       volScalarField;
    location    "1.65";
    object      nut;
}
// * * * * * * * * * * * * * * * * * * * * * * * * * * * * * * * * * * * * * //

dimensions      [0 2 -1 0 0 0 0];


internalField   nonuniform List<scalar> 
171728
(
1.31464e-06
1.32961e-06
1.33027e-06
5.55734e-07
8.87945e-08
1.01631e-07
1.01814e-07
1.11313e-07
6.97588e-09
8.20461e-09
8.20906e-09
1.08558e-07
2.14767e-09
4.49383e-09
4.46634e-09
1.08741e-07
2.26993e-09
4.22589e-09
4.22976e-09
1.08745e-07
2.27174e-09
4.21672e-09
4.22226e-09
1.08746e-07
2.26248e-09
4.22245e-09
4.21428e-09
1.08746e-07
2.27753e-09
4.22934e-09
4.22488e-09
1.08744e-07
2.27782e-09
4.22465e-09
4.21618e-09
1.08748e-07
2.2759e-09
4.22484e-09
4.21818e-09
1.08746e-07
2.27139e-09
4.22383e-09
4.22137e-09
1.08747e-07
2.27955e-09
4.22188e-09
4.22114e-09
1.08746e-07
2.28181e-09
4.2551e-09
4.2236e-09
1.08746e-07
2.287e-09
4.24979e-09
4.21802e-09
1.08746e-07
2.26821e-09
4.21238e-09
4.22321e-09
1.08746e-07
2.27026e-09
4.2107e-09
4.21868e-09
1.08747e-07
2.27987e-09
4.22697e-09
4.22126e-09
1.08748e-07
2.27316e-09
4.21498e-09
4.21975e-09
1.08747e-07
2.28158e-09
4.20249e-09
4.22185e-09
1.08746e-07
2.2659e-09
4.24173e-09
4.2176e-09
1.08738e-07
2.38494e-09
4.2183e-09
4.22057e-09
1.08749e-07
2.27155e-09
4.22633e-09
4.22011e-09
1.08749e-07
2.2769e-09
4.2246e-09
4.22069e-09
1.08749e-07
2.27543e-09
4.22589e-09
4.22252e-09
1.08749e-07
2.27773e-09
4.22283e-09
4.21974e-09
1.0875e-07
2.27481e-09
4.22374e-09
4.21984e-09
1.08749e-07
2.27779e-09
4.2266e-09
4.22293e-09
1.0875e-07
2.27629e-09
4.22459e-09
4.22092e-09
1.0875e-07
2.27595e-09
4.22328e-09
4.21962e-09
1.08749e-07
2.27699e-09
4.22579e-09
4.22228e-09
1.08748e-07
2.27664e-09
4.2254e-09
4.22116e-09
1.08749e-07
2.27701e-09
4.22318e-09
4.2205e-09
1.0875e-07
2.27669e-09
4.22663e-09
4.22122e-09
1.0875e-07
2.27569e-09
4.22617e-09
4.22104e-09
1.08749e-07
2.27751e-09
4.22714e-09
4.22175e-09
1.0875e-07
2.27619e-09
4.22358e-09
4.21894e-09
1.08749e-07
2.27761e-09
4.22605e-09
4.22144e-09
1.0875e-07
2.27697e-09
4.22573e-09
4.22111e-09
1.0875e-07
2.27692e-09
4.22736e-09
4.22801e-09
1.0875e-07
2.2942e-09
4.23306e-09
4.22647e-09
1.08735e-07
2.44009e-09
4.21106e-09
4.22182e-09
1.08748e-07
2.27518e-09
4.21243e-09
4.21713e-09
1.08749e-07
2.27758e-09
4.22407e-09
4.21534e-09
1.08751e-07
2.27835e-09
4.22145e-09
4.21515e-09
1.0875e-07
2.28103e-09
4.22258e-09
4.21994e-09
1.0875e-07
2.27952e-09
4.22057e-09
4.21526e-09
1.0875e-07
2.27795e-09
4.21984e-09
4.21867e-09
1.08752e-07
2.2796e-09
4.22234e-09
4.22405e-09
1.08751e-07
2.27923e-09
4.22314e-09
4.22508e-09
1.0875e-07
2.27953e-09
4.22146e-09
4.22341e-09
1.08751e-07
2.2778e-09
4.2196e-09
4.22186e-09
1.0875e-07
2.27979e-09
4.22151e-09
4.22248e-09
1.0875e-07
2.28014e-09
4.22225e-09
4.22328e-09
1.0875e-07
2.28137e-09
4.23082e-09
4.22315e-09
1.0875e-07
2.28249e-09
4.22604e-09
4.22346e-09
1.08749e-07
2.27714e-09
4.22088e-09
4.22395e-09
1.08745e-07
2.27438e-09
4.22659e-09
4.22483e-09
1.08735e-07
2.2744e-09
4.22556e-09
4.22319e-09
1.08736e-07
2.27494e-09
4.22796e-09
4.22574e-09
1.08734e-07
2.27606e-09
4.22641e-09
4.22315e-09
1.08735e-07
2.27588e-09
4.22824e-09
4.22624e-09
1.08734e-07
2.27427e-09
4.2259e-09
4.22335e-09
1.08735e-07
2.27418e-09
4.22818e-09
4.22571e-09
1.08734e-07
2.27565e-09
4.22783e-09
4.22571e-09
1.08734e-07
2.27491e-09
4.22775e-09
4.22546e-09
1.08734e-07
2.27456e-09
4.22687e-09
4.22452e-09
1.08734e-07
2.27466e-09
4.22596e-09
4.22363e-09
1.08734e-07
2.27462e-09
4.22688e-09
4.22505e-09
1.08735e-07
2.27018e-09
4.22546e-09
4.22415e-09
1.08735e-07
2.26743e-09
4.2263e-09
4.20614e-09
1.08736e-07
2.27179e-09
4.23051e-09
4.22361e-09
1.08732e-07
2.27575e-09
4.22712e-09
4.22491e-09
1.08734e-07
2.27405e-09
4.22593e-09
4.22319e-09
1.08734e-07
2.27379e-09
4.22699e-09
4.22422e-09
1.08733e-07
2.27645e-09
4.22763e-09
4.22489e-09
1.08733e-07
2.2733e-09
4.22658e-09
4.22392e-09
1.08733e-07
2.27437e-09
4.22677e-09
4.22392e-09
1.08733e-07
2.2756e-09
4.22715e-09
4.22448e-09
1.08733e-07
2.27519e-09
4.22599e-09
4.22357e-09
1.08733e-07
2.27444e-09
4.22782e-09
4.22548e-09
1.08734e-07
2.27387e-09
4.22628e-09
4.22401e-09
1.08733e-07
2.27488e-09
4.22726e-09
4.22485e-09
1.08733e-07
2.2755e-09
4.2279e-09
4.22553e-09
1.08734e-07
2.27724e-09
4.22694e-09
4.22467e-09
1.08733e-07
2.27745e-09
4.22741e-09
4.22504e-09
1.08734e-07
2.27801e-09
4.22666e-09
4.22474e-09
1.08732e-07
2.27776e-09
4.2292e-09
4.22718e-09
1.08733e-07
2.27544e-09
4.22521e-09
4.22341e-09
1.08733e-07
2.27686e-09
4.22564e-09
4.22283e-09
1.08733e-07
2.27829e-09
4.22791e-09
4.22521e-09
1.08734e-07
2.28005e-09
4.22387e-09
4.21926e-09
1.08737e-07
2.34387e-09
4.24447e-09
4.24897e-09
1.08734e-07
4.79071e-09
5.17673e-09
5.22965e-09
1.08629e-07
5.37905e-08
4.77551e-08
4.77161e-08
1.07196e-07
5.24598e-07
2.41241e-07
2.4127e-07
5.5395e-07
4.72219e-07
7.82699e-07
7.8301e-07
4.72331e-07
7.82775e-07
7.82775e-07
2.20967e-06
2.2097e-06
2.20968e-06
2.20971e-06
7.82626e-07
7.8252e-07
4.7205e-07
7.82446e-07
7.82787e-07
4.71964e-07
5.55803e-07
2.84354e-07
1.33025e-06
1.3303e-06
2.24084e-07
2.24087e-07
5.5577e-07
2.84297e-07
1.33017e-06
1.33083e-06
2.24257e-07
2.24161e-07
1.33048e-06
2.24125e-07
2.23992e-07
5.55715e-07
2.84373e-07
1.33047e-06
2.24134e-07
2.24139e-07
2.84385e-07
1.11364e-07
2.75988e-07
1.01716e-07
1.01738e-07
1.29388e-08
1.30299e-08
1.11355e-07
2.76049e-07
1.01734e-07
1.01708e-07
1.28895e-08
1.29434e-08
1.01679e-07
1.28271e-08
1.29273e-08
1.11392e-07
2.75999e-07
1.0185e-07
1.29074e-08
1.2849e-08
2.7599e-07
1.08473e-07
2.75343e-07
8.25698e-09
8.24728e-09
4.76329e-09
4.7547e-09
1.08482e-07
2.75355e-07
8.26947e-09
8.25653e-09
4.72613e-09
4.76576e-09
8.2667e-09
4.73302e-09
4.78148e-09
1.08536e-07
2.75374e-07
8.2716e-09
4.69632e-09
4.68154e-09
2.75331e-07
1.08724e-07
2.75311e-07
4.51444e-09
4.55187e-09
4.2863e-09
4.29537e-09
1.08698e-07
2.75313e-07
4.45312e-09
4.51361e-09
4.23518e-09
4.29397e-09
4.53116e-09
4.23405e-09
4.28043e-09
1.08748e-07
2.75341e-07
4.46954e-09
4.218e-09
4.22413e-09
2.75286e-07
1.08724e-07
2.75305e-07
4.28418e-09
4.28954e-09
4.2747e-09
4.28956e-09
1.08705e-07
2.75304e-07
4.21892e-09
4.28566e-09
4.23779e-09
4.27872e-09
4.26986e-09
4.2156e-09
4.2636e-09
1.08744e-07
2.75333e-07
4.216e-09
4.2028e-09
4.20793e-09
2.75279e-07
1.08724e-07
2.75314e-07
4.28085e-09
4.29827e-09
4.2559e-09
4.3142e-09
1.08708e-07
2.75316e-07
4.20457e-09
4.27778e-09
4.22719e-09
4.27074e-09
4.26251e-09
4.22665e-09
4.25522e-09
1.08745e-07
2.75345e-07
4.20877e-09
4.19457e-09
4.19983e-09
2.75291e-07
1.08728e-07
2.75314e-07
4.23219e-09
4.3049e-09
4.29325e-09
4.29541e-09
1.08702e-07
2.75313e-07
4.19225e-09
4.27071e-09
4.23254e-09
4.27466e-09
4.25429e-09
4.22716e-09
4.26056e-09
1.08744e-07
2.75341e-07
4.20096e-09
4.19976e-09
4.20523e-09
2.75284e-07
1.08729e-07
2.75311e-07
4.28264e-09
4.30028e-09
4.27837e-09
4.29789e-09
1.08698e-07
2.75308e-07
4.21084e-09
4.27916e-09
4.23976e-09
4.27707e-09
4.26362e-09
4.22792e-09
4.26256e-09
1.08743e-07
2.75336e-07
4.21094e-09
4.20266e-09
4.20752e-09
2.75279e-07
1.08709e-07
2.75317e-07
4.27594e-09
4.29565e-09
4.24835e-09
4.27972e-09
1.08701e-07
2.75331e-07
4.20549e-09
4.27622e-09
4.21887e-09
4.27233e-09
4.25972e-09
4.22086e-09
4.25646e-09
1.08746e-07
2.75348e-07
4.20448e-09
4.19503e-09
4.20115e-09
2.75291e-07
1.08718e-07
2.75303e-07
4.26175e-09
4.25309e-09
4.28169e-09
4.23034e-09
1.08693e-07
2.75313e-07
4.21068e-09
4.27513e-09
4.21178e-09
4.27648e-09
4.25717e-09
4.22498e-09
4.26087e-09
1.08744e-07
2.7534e-07
4.20444e-09
4.20049e-09
4.2062e-09
2.75283e-07
1.08731e-07
2.75313e-07
4.32825e-09
4.25784e-09
4.27793e-09
4.2364e-09
1.087e-07
2.75314e-07
4.21625e-09
4.27606e-09
4.22438e-09
4.27505e-09
4.25862e-09
4.22397e-09
4.2587e-09
1.08745e-07
2.75343e-07
4.20625e-09
4.1991e-09
4.20283e-09
2.75288e-07
1.08717e-07
2.75304e-07
4.27807e-09
4.22915e-09
4.27685e-09
4.22279e-09
1.08701e-07
2.75341e-07
4.21996e-09
4.27577e-09
4.218e-09
4.27491e-09
4.25954e-09
4.24133e-09
4.26636e-09
1.08745e-07
2.7534e-07
4.20441e-09
4.20176e-09
4.20268e-09
2.75285e-07
1.0872e-07
2.75303e-07
4.28005e-09
4.24168e-09
4.26356e-09
4.29421e-09
1.08694e-07
2.75339e-07
4.21547e-09
4.27622e-09
4.20613e-09
4.27045e-09
4.2671e-09
4.24282e-09
4.26234e-09
1.08746e-07
2.75345e-07
4.206e-09
4.1971e-09
4.20118e-09
2.75293e-07
1.08722e-07
2.75301e-07
4.26674e-09
4.30212e-09
4.28471e-09
4.28912e-09
1.087e-07
2.7532e-07
4.20496e-09
4.2714e-09
4.20128e-09
4.27625e-09
4.26052e-09
4.21911e-09
4.26327e-09
1.08746e-07
2.75341e-07
4.20352e-09
4.20037e-09
4.20759e-09
2.75284e-07
1.0872e-07
2.7531e-07
4.2963e-09
4.27955e-09
4.27766e-09
4.34005e-09
1.0871e-07
2.75302e-07
4.22485e-09
4.27856e-09
4.22383e-09
4.27259e-09
4.26402e-09
4.21613e-09
4.25787e-09
1.08745e-07
2.75347e-07
4.21045e-09
4.19706e-09
4.20264e-09
2.75292e-07
1.08718e-07
2.75299e-07
4.27828e-09
4.30874e-09
4.28592e-09
4.29747e-09
1.08728e-07
2.7529e-07
4.22228e-09
4.27397e-09
4.22524e-09
4.27669e-09
4.25631e-09
4.22237e-09
4.26323e-09
1.08746e-07
2.75341e-07
4.20357e-09
4.20032e-09
4.20731e-09
2.75283e-07
1.0872e-07
2.75307e-07
4.26807e-09
4.29565e-09
4.28161e-09
4.27858e-09
1.08721e-07
2.75337e-07
4.22498e-09
4.27702e-09
4.22153e-09
4.27213e-09
4.26105e-09
4.22192e-09
4.25898e-09
1.08747e-07
2.75349e-07
4.20743e-09
4.19608e-09
4.2028e-09
2.75291e-07
1.08716e-07
2.7532e-07
4.26199e-09
4.26871e-09
4.25811e-09
4.26105e-09
1.08733e-07
2.75336e-07
4.2214e-09
4.27614e-09
4.21668e-09
4.27689e-09
4.2612e-09
4.19771e-09
4.25901e-09
1.08745e-07
2.75345e-07
4.20691e-09
4.19997e-09
4.20048e-09
2.75293e-07
1.08718e-07
2.75297e-07
4.25745e-09
4.29181e-09
4.31286e-09
4.37904e-09
1.08765e-07
2.75372e-07
4.21411e-09
4.27752e-09
4.22862e-09
4.27108e-09
4.25777e-09
4.24466e-09
4.27361e-09
1.08746e-07
2.75345e-07
4.19786e-09
4.19816e-09
4.19319e-09
2.75304e-07
1.08756e-07
2.75367e-07
4.29136e-09
4.31721e-09
4.25094e-09
4.34935e-09
1.08704e-07
2.75339e-07
4.23603e-09
4.27161e-09
4.06283e-09
4.27636e-09
4.28694e-09
4.21169e-09
4.26247e-09
1.08748e-07
2.7535e-07
4.21199e-09
4.1953e-09
4.20373e-09
2.75294e-07
1.08711e-07
2.75329e-07
4.32703e-09
4.33831e-09
4.29683e-09
4.29181e-09
1.08708e-07
2.75324e-07
4.13997e-09
4.27365e-09
4.23617e-09
4.27312e-09
4.26021e-09
4.23103e-09
4.25894e-09
1.08747e-07
2.75349e-07
4.20405e-09
4.19849e-09
4.20463e-09
2.75294e-07
1.08739e-07
2.75327e-07
4.28901e-09
4.29587e-09
4.27762e-09
4.29786e-09
1.08717e-07
2.75324e-07
4.22109e-09
4.27445e-09
4.22559e-09
4.27464e-09
4.25912e-09
4.22575e-09
4.26025e-09
1.08748e-07
2.75349e-07
4.20619e-09
4.19891e-09
4.20486e-09
2.75291e-07
1.08738e-07
2.75324e-07
4.28261e-09
4.29969e-09
4.27606e-09
4.29939e-09
1.08716e-07
2.75321e-07
4.22163e-09
4.27561e-09
4.22514e-09
4.27606e-09
4.26037e-09
4.22761e-09
4.26072e-09
1.08747e-07
2.75346e-07
4.20738e-09
4.20105e-09
4.21309e-09
2.7529e-07
1.08739e-07
2.75327e-07
4.2815e-09
4.30015e-09
4.2727e-09
4.29657e-09
1.08717e-07
2.75324e-07
4.21993e-09
4.27601e-09
4.22182e-09
4.27318e-09
4.26145e-09
4.22426e-09
4.25847e-09
1.08748e-07
2.75349e-07
4.21613e-09
4.19797e-09
4.20845e-09
2.75292e-07
1.08738e-07
2.7533e-07
4.28256e-09
4.29897e-09
4.27219e-09
4.29659e-09
1.08717e-07
2.75324e-07
4.22104e-09
4.27479e-09
4.2213e-09
4.27343e-09
4.25736e-09
4.22592e-09
4.2604e-09
1.08748e-07
2.75349e-07
4.21051e-09
4.19853e-09
4.20779e-09
2.75291e-07
1.08738e-07
2.75323e-07
4.27854e-09
4.29716e-09
4.27693e-09
4.3004e-09
1.08717e-07
2.7532e-07
4.21704e-09
4.27317e-09
4.22601e-09
4.27709e-09
4.26032e-09
4.22771e-09
4.26092e-09
1.08748e-07
2.75345e-07
4.21083e-09
4.20094e-09
4.20976e-09
2.7529e-07
1.08738e-07
2.75328e-07
4.28507e-09
4.30189e-09
4.27223e-09
4.29658e-09
1.08717e-07
2.75323e-07
4.22352e-09
4.27783e-09
4.22134e-09
4.27328e-09
4.2598e-09
4.22562e-09
4.26107e-09
1.08748e-07
2.75348e-07
4.21091e-09
4.19892e-09
4.20994e-09
2.75289e-07
1.08738e-07
2.75328e-07
4.28083e-09
4.29906e-09
4.2737e-09
4.29733e-09
1.08717e-07
2.75324e-07
4.21931e-09
4.27498e-09
4.2228e-09
4.27403e-09
4.26085e-09
4.22496e-09
4.25862e-09
1.08748e-07
2.75349e-07
4.21196e-09
4.19826e-09
4.20753e-09
2.75293e-07
1.08738e-07
2.75327e-07
4.28068e-09
4.29787e-09
4.27386e-09
4.29792e-09
1.08717e-07
2.75323e-07
4.21917e-09
4.2738e-09
4.22293e-09
4.27459e-09
4.25941e-09
4.22584e-09
4.25952e-09
1.08748e-07
2.75348e-07
4.21054e-09
4.19918e-09
4.20838e-09
2.75292e-07
1.08738e-07
2.75327e-07
4.28243e-09
4.30059e-09
4.27499e-09
4.29818e-09
1.08716e-07
2.75324e-07
4.22092e-09
4.27618e-09
4.22366e-09
4.27505e-09
4.2618e-09
4.22619e-09
4.26003e-09
1.08747e-07
2.75348e-07
4.21285e-09
4.19959e-09
4.20896e-09
2.75292e-07
1.08738e-07
2.75325e-07
4.28219e-09
4.28412e-09
4.27374e-09
4.29706e-09
1.08717e-07
2.75313e-07
4.22045e-09
4.27544e-09
4.22293e-09
4.27436e-09
4.25997e-09
4.22883e-09
4.25943e-09
1.08748e-07
2.75347e-07
4.21105e-09
4.1991e-09
4.20831e-09
2.75291e-07
1.08738e-07
2.75329e-07
4.28304e-09
4.30606e-09
4.27187e-09
4.30522e-09
1.08718e-07
2.75331e-07
4.22123e-09
4.27487e-09
4.22104e-09
4.27402e-09
4.25858e-09
4.2278e-09
4.26094e-09
1.08748e-07
2.75347e-07
4.20968e-09
4.1996e-09
4.20985e-09
2.7529e-07
1.08738e-07
2.75328e-07
4.2811e-09
4.30597e-09
4.2739e-09
4.30386e-09
1.08713e-07
2.75333e-07
4.21962e-09
4.27543e-09
4.223e-09
4.27373e-09
4.25888e-09
4.22651e-09
4.25843e-09
1.08748e-07
2.75349e-07
4.20997e-09
4.19884e-09
4.2078e-09
2.75294e-07
1.08738e-07
2.75326e-07
4.28028e-09
4.30534e-09
4.27468e-09
4.30477e-09
1.08713e-07
2.75331e-07
4.21882e-09
4.27441e-09
4.2238e-09
4.27555e-09
4.25865e-09
4.22696e-09
4.25999e-09
1.08747e-07
2.75348e-07
4.20994e-09
4.19612e-09
4.20528e-09
2.75293e-07
1.08738e-07
2.75327e-07
4.28377e-09
4.30783e-09
4.27345e-09
4.3034e-09
1.08713e-07
2.75333e-07
4.22226e-09
4.27692e-09
4.22256e-09
4.27381e-09
4.25897e-09
4.22497e-09
4.25688e-09
1.08748e-07
2.7535e-07
4.21014e-09
4.19647e-09
4.20487e-09
2.75297e-07
1.08738e-07
2.75328e-07
4.28094e-09
4.30416e-09
4.27305e-09
4.30431e-09
1.08713e-07
2.75331e-07
4.21944e-09
4.27304e-09
4.22218e-09
4.27467e-09
4.25691e-09
4.22682e-09
4.25932e-09
1.08748e-07
2.75348e-07
4.20899e-09
4.19838e-09
4.2074e-09
2.75293e-07
1.08737e-07
2.75327e-07
4.28211e-09
4.30649e-09
4.27414e-09
4.30488e-09
1.08712e-07
2.75331e-07
4.22061e-09
4.2753e-09
4.22321e-09
4.27523e-09
4.25817e-09
4.22747e-09
4.26195e-09
1.08748e-07
2.75348e-07
4.2103e-09
4.19907e-09
4.21003e-09
2.7529e-07
1.08738e-07
2.75328e-07
4.2815e-09
4.30527e-09
4.27348e-09
4.30453e-09
1.08713e-07
2.7533e-07
4.21999e-09
4.27404e-09
4.22249e-09
4.2746e-09
4.25994e-09
4.2282e-09
4.26162e-09
1.08748e-07
2.75347e-07
4.21211e-09
4.19995e-09
4.21062e-09
2.75289e-07
1.08738e-07
2.75326e-07
4.28301e-09
4.30609e-09
4.28274e-09
4.29707e-09
1.08713e-07
2.75329e-07
4.22104e-09
4.27448e-09
4.2181e-09
4.272e-09
4.25733e-09
4.22799e-09
4.23341e-09
1.08748e-07
2.7535e-07
4.21213e-09
4.19431e-09
4.19209e-09
2.75295e-07
1.08732e-07
2.75324e-07
4.27441e-09
4.30365e-09
4.22313e-09
4.29992e-09
1.08718e-07
2.75351e-07
4.20324e-09
4.27126e-09
4.19275e-09
4.28088e-09
4.23046e-09
4.22158e-09
4.30409e-09
1.08747e-07
2.75351e-07
4.1185e-09
4.1974e-09
4.19245e-09
2.75299e-07
1.08737e-07
2.75317e-07
4.24901e-09
4.25959e-09
4.28056e-09
4.30236e-09
1.08721e-07
2.75351e-07
4.10492e-09
4.28372e-09
4.24023e-09
4.27672e-09
4.27654e-09
4.21957e-09
4.26172e-09
1.08747e-07
2.75348e-07
4.2304e-09
4.2067e-09
4.21028e-09
2.75292e-07
1.08729e-07
2.75314e-07
4.27294e-09
4.29443e-09
4.26553e-09
4.31076e-09
1.08765e-07
2.75348e-07
4.20289e-09
4.27669e-09
4.23569e-09
4.27529e-09
4.2619e-09
4.22649e-09
4.2609e-09
1.08747e-07
2.75348e-07
4.21347e-09
4.20607e-09
4.20855e-09
2.75291e-07
1.08726e-07
2.75311e-07
4.27013e-09
4.30308e-09
4.26644e-09
4.29763e-09
1.08735e-07
2.7535e-07
4.2033e-09
4.27566e-09
4.23794e-09
4.27606e-09
4.259e-09
4.22228e-09
4.26046e-09
1.08748e-07
2.75348e-07
4.2104e-09
4.20636e-09
4.20816e-09
2.75293e-07
1.08727e-07
2.75312e-07
4.26958e-09
4.29685e-09
4.26566e-09
4.29667e-09
1.08733e-07
2.75349e-07
4.2037e-09
4.2757e-09
4.23477e-09
4.27584e-09
4.25878e-09
4.22338e-09
4.26096e-09
1.08748e-07
2.75348e-07
4.21013e-09
4.20514e-09
4.20896e-09
2.75292e-07
1.08726e-07
2.75312e-07
4.27049e-09
4.2973e-09
4.26519e-09
4.29671e-09
1.08733e-07
2.75349e-07
4.20329e-09
4.27672e-09
4.23815e-09
4.27585e-09
4.26066e-09
4.22234e-09
4.26085e-09
1.08748e-07
2.75348e-07
4.21237e-09
4.20702e-09
4.21125e-09
2.75291e-07
1.08727e-07
2.75312e-07
4.26985e-09
4.29557e-09
4.26505e-09
4.29587e-09
1.08734e-07
2.75349e-07
4.20427e-09
4.27532e-09
4.2382e-09
4.27575e-09
4.25991e-09
4.22245e-09
4.26045e-09
1.08748e-07
2.75348e-07
4.20962e-09
4.20747e-09
4.21016e-09
2.75293e-07
1.08727e-07
2.75312e-07
4.26893e-09
4.29485e-09
4.2659e-09
4.29693e-09
1.08734e-07
2.7535e-07
4.20294e-09
4.27502e-09
4.23862e-09
4.2767e-09
4.25576e-09
4.22235e-09
4.26052e-09
1.08749e-07
2.75349e-07
4.21297e-09
4.1988e-09
4.20857e-09
2.75295e-07
1.08727e-07
2.75312e-07
4.27134e-09
4.29706e-09
4.26531e-09
4.2968e-09
1.08733e-07
2.75349e-07
4.20564e-09
4.27683e-09
4.23794e-09
4.27626e-09
4.25892e-09
4.22246e-09
4.26161e-09
1.08748e-07
2.75348e-07
4.20962e-09
4.19951e-09
4.21045e-09
2.75292e-07
1.08726e-07
2.75313e-07
4.27062e-09
4.29768e-09
4.26442e-09
4.29579e-09
1.08733e-07
2.7535e-07
4.20482e-09
4.27725e-09
4.23704e-09
4.27519e-09
4.2613e-09
4.2213e-09
4.26008e-09
1.08748e-07
2.7535e-07
4.21218e-09
4.1983e-09
4.20901e-09
2.75295e-07
1.08726e-07
2.75316e-07
4.2701e-09
4.29654e-09
4.26372e-09
4.29575e-09
1.08733e-07
2.75351e-07
4.20428e-09
4.27606e-09
4.23638e-09
4.27511e-09
4.25782e-09
4.22153e-09
4.25999e-09
1.08748e-07
2.75351e-07
4.20885e-09
4.19892e-09
4.20902e-09
2.75296e-07
1.08727e-07
2.75312e-07
4.26735e-09
4.29481e-09
4.26654e-09
4.2974e-09
1.08734e-07
2.7535e-07
4.2016e-09
4.27428e-09
4.23927e-09
4.27686e-09
4.2584e-09
4.2231e-09
4.26024e-09
1.08748e-07
2.75349e-07
4.21251e-09
4.20014e-09
4.20885e-09
2.75294e-07
1.08726e-07
2.75312e-07
4.2708e-09
4.29692e-09
4.26509e-09
4.29762e-09
1.08733e-07
2.75349e-07
4.20512e-09
4.27663e-09
4.23798e-09
4.2766e-09
4.26051e-09
4.22319e-09
4.2611e-09
1.08748e-07
2.75347e-07
4.21063e-09
4.20055e-09
4.21102e-09
2.7529e-07
1.08726e-07
2.75312e-07
4.26926e-09
4.29732e-09
4.26402e-09
4.30183e-09
1.08733e-07
2.75353e-07
4.20384e-09
4.27648e-09
4.22813e-09
4.275e-09
4.25994e-09
4.22608e-09
4.25825e-09
1.08748e-07
2.75349e-07
4.21122e-09
4.19939e-09
4.20942e-09
2.75294e-07
1.08727e-07
2.75312e-07
4.26968e-09
4.3109e-09
4.25972e-09
4.28631e-09
1.08731e-07
2.75362e-07
4.22312e-09
4.27673e-09
4.22127e-09
4.27405e-09
4.25783e-09
4.23136e-09
4.25785e-09
1.08748e-07
2.7535e-07
4.20965e-09
4.19829e-09
4.20833e-09
2.75295e-07
1.08728e-07
2.75314e-07
4.26678e-09
4.25158e-09
4.26373e-09
4.28707e-09
1.08718e-07
2.75352e-07
4.21935e-09
4.27553e-09
4.22183e-09
4.27638e-09
4.26042e-09
4.21974e-09
4.25733e-09
1.08747e-07
2.75348e-07
4.21081e-09
4.20179e-09
4.20083e-09
2.75296e-07
1.08727e-07
2.75313e-07
4.26914e-09
4.28904e-09
4.26564e-09
4.29231e-09
1.08731e-07
2.75352e-07
4.21819e-09
4.27794e-09
4.2196e-09
4.27092e-09
4.25118e-09
4.228e-09
4.28203e-09
1.08747e-07
2.75343e-07
4.18657e-09
4.20397e-09
4.20259e-09
2.75302e-07
1.08727e-07
2.75312e-07
4.26928e-09
4.2921e-09
4.26667e-09
4.29378e-09
1.08731e-07
2.75353e-07
4.2151e-09
4.27062e-09
4.21993e-09
4.26972e-09
4.28295e-09
4.22873e-09
4.28401e-09
1.0875e-07
2.75343e-07
4.19955e-09
4.20339e-09
4.20425e-09
2.75305e-07
1.08728e-07
2.7531e-07
4.27051e-09
4.29201e-09
4.26672e-09
4.29376e-09
1.08732e-07
2.75353e-07
4.21594e-09
4.26917e-09
4.21989e-09
4.2695e-09
4.28195e-09
4.22841e-09
4.28192e-09
1.08751e-07
2.75343e-07
4.19856e-09
4.20305e-09
4.20219e-09
2.75309e-07
1.08727e-07
2.75311e-07
4.27159e-09
4.29404e-09
4.26665e-09
4.29318e-09
1.08731e-07
2.75354e-07
4.21697e-09
4.27107e-09
4.21982e-09
4.26897e-09
4.28327e-09
4.22687e-09
4.27979e-09
1.0875e-07
2.75344e-07
4.19999e-09
4.2008e-09
4.20054e-09
2.75312e-07
1.08727e-07
2.75308e-07
4.27177e-09
4.2933e-09
4.26699e-09
4.29362e-09
1.08731e-07
2.75352e-07
4.21716e-09
4.27041e-09
4.22016e-09
4.26951e-09
4.28025e-09
4.22778e-09
4.28105e-09
1.0875e-07
2.75342e-07
4.19691e-09
4.20159e-09
4.19928e-09
2.7531e-07
1.08727e-07
2.7531e-07
4.27334e-09
4.29436e-09
4.26628e-09
4.29399e-09
1.08731e-07
2.75351e-07
4.21867e-09
4.27147e-09
4.21944e-09
4.26986e-09
4.28315e-09
4.22819e-09
4.28309e-09
1.0875e-07
2.75341e-07
4.20165e-09
4.20252e-09
4.20264e-09
2.75306e-07
1.08728e-07
2.75312e-07
4.27071e-09
4.29259e-09
4.26544e-09
4.29256e-09
1.08731e-07
2.75353e-07
4.21603e-09
4.26975e-09
4.21862e-09
4.26832e-09
4.28209e-09
4.22738e-09
4.28161e-09
1.08751e-07
2.75343e-07
4.19846e-09
4.20191e-09
4.20164e-09
2.75308e-07
1.08727e-07
2.75312e-07
4.27096e-09
4.29373e-09
4.26605e-09
4.29228e-09
1.0873e-07
2.75354e-07
4.21631e-09
4.27082e-09
4.21922e-09
4.26812e-09
4.28503e-09
4.22759e-09
4.282e-09
1.0875e-07
2.75344e-07
4.20143e-09
4.2021e-09
4.20128e-09
2.75309e-07
1.08727e-07
2.75311e-07
4.27239e-09
4.29376e-09
4.2659e-09
4.29366e-09
1.0873e-07
2.75351e-07
4.21773e-09
4.27081e-09
4.21892e-09
4.26942e-09
4.28367e-09
4.22846e-09
4.28373e-09
1.0875e-07
2.75341e-07
4.20147e-09
4.20321e-09
4.2052e-09
2.75303e-07
1.08727e-07
2.75315e-07
4.27146e-09
4.29383e-09
4.26356e-09
4.29181e-09
1.08731e-07
2.75355e-07
4.21728e-09
4.27097e-09
4.21368e-09
4.26746e-09
4.28454e-09
4.22704e-09
4.28027e-09
1.0875e-07
2.75345e-07
4.20238e-09
4.20167e-09
4.20171e-09
2.7531e-07
1.08727e-07
2.75311e-07
4.26924e-09
4.29194e-09
4.26688e-09
4.29402e-09
1.08731e-07
2.75353e-07
4.21525e-09
4.26898e-09
4.21688e-09
4.26967e-09
4.28278e-09
4.22839e-09
4.28072e-09
1.0875e-07
2.75343e-07
4.20055e-09
4.20303e-09
4.20212e-09
2.75311e-07
1.08727e-07
2.75308e-07
4.27077e-09
4.2924e-09
4.26701e-09
4.29415e-09
1.08731e-07
2.75352e-07
4.21666e-09
4.26945e-09
4.21683e-09
4.27008e-09
4.28275e-09
4.2282e-09
4.28294e-09
1.08751e-07
2.75343e-07
4.20044e-09
4.20279e-09
4.20406e-09
2.75308e-07
1.08727e-07
2.7531e-07
4.27186e-09
4.29412e-09
4.2667e-09
4.29292e-09
1.08731e-07
2.75353e-07
4.21746e-09
4.27169e-09
4.21584e-09
4.27102e-09
4.28324e-09
4.22769e-09
4.28192e-09
1.0875e-07
2.75344e-07
4.20066e-09
4.20423e-09
4.20097e-09
2.75312e-07
1.08728e-07
2.75314e-07
4.2709e-09
4.29172e-09
4.26426e-09
4.29279e-09
1.08731e-07
2.75353e-07
4.21583e-09
4.27232e-09
4.2132e-09
4.27217e-09
4.28201e-09
4.22742e-09
4.28716e-09
1.08751e-07
2.75338e-07
4.19539e-09
4.16286e-09
4.18524e-09
2.75301e-07
1.08727e-07
2.75304e-07
4.27048e-09
4.29338e-09
4.27079e-09
4.2962e-09
1.0873e-07
2.75349e-07
4.21562e-09
4.27193e-09
4.22012e-09
4.26931e-09
4.28575e-09
4.23083e-09
4.28246e-09
1.08753e-07
2.75338e-07
4.1827e-09
4.20178e-09
4.20486e-09
2.75303e-07
1.08726e-07
2.75308e-07
4.2752e-09
4.29584e-09
4.26637e-09
4.29398e-09
1.0873e-07
2.75351e-07
4.22064e-09
4.27008e-09
4.21616e-09
4.26849e-09
4.28506e-09
4.2271e-09
4.27973e-09
1.08749e-07
2.75341e-07
4.19889e-09
4.19875e-09
4.1853e-09
2.75313e-07
1.08726e-07
2.7531e-07
4.27347e-09
4.29464e-09
4.26464e-09
4.2925e-09
1.08729e-07
2.75351e-07
4.21926e-09
4.27068e-09
4.21463e-09
4.26781e-09
4.27886e-09
4.22743e-09
4.28253e-09
1.08749e-07
2.75341e-07
4.20662e-09
4.20166e-09
4.19244e-09
2.75308e-07
1.08726e-07
2.75307e-07
4.26883e-09
4.2913e-09
4.26713e-09
4.29409e-09
1.0873e-07
2.7535e-07
4.21474e-09
4.26811e-09
4.21716e-09
4.26957e-09
4.28031e-09
4.22767e-09
4.28028e-09
1.08749e-07
2.7534e-07
4.21371e-09
4.20276e-09
4.20133e-09
2.75306e-07
1.08727e-07
2.75307e-07
4.26981e-09
4.29345e-09
4.26696e-09
4.29454e-09
1.08729e-07
2.75349e-07
4.21573e-09
4.27056e-09
4.21705e-09
4.27007e-09
4.28297e-09
4.22801e-09
4.28259e-09
1.08749e-07
2.75339e-07
4.1997e-09
4.20321e-09
4.20371e-09
2.75304e-07
1.08726e-07
2.75309e-07
4.27332e-09
4.29483e-09
4.26543e-09
4.29246e-09
1.0873e-07
2.7535e-07
4.21926e-09
4.27199e-09
4.21549e-09
4.26789e-09
4.285e-09
4.22758e-09
4.28089e-09
1.08749e-07
2.7534e-07
4.20184e-09
4.20289e-09
4.20242e-09
2.75306e-07
1.08727e-07
2.75309e-07
4.26841e-09
4.29184e-09
4.26657e-09
4.29472e-09
1.0873e-07
2.7535e-07
4.21437e-09
4.26891e-09
4.21665e-09
4.27016e-09
4.28275e-09
4.22785e-09
4.2818e-09
1.08749e-07
2.7534e-07
4.19996e-09
4.20333e-09
4.2024e-09
2.75305e-07
1.08726e-07
2.75311e-07
4.27151e-09
4.29267e-09
4.26482e-09
4.29265e-09
1.0873e-07
2.75351e-07
4.21747e-09
4.2698e-09
4.21491e-09
4.26808e-09
4.28253e-09
4.22745e-09
4.28216e-09
1.08749e-07
2.75341e-07
4.19888e-09
4.20459e-09
4.20392e-09
2.75305e-07
1.08726e-07
2.75306e-07
4.27079e-09
4.294e-09
4.2671e-09
4.29227e-09
1.08729e-07
2.75352e-07
4.21679e-09
4.271e-09
4.21714e-09
4.26796e-09
4.28474e-09
4.22618e-09
4.27972e-09
1.08749e-07
2.75342e-07
4.20201e-09
4.2007e-09
4.20062e-09
2.75309e-07
1.08727e-07
2.75307e-07
4.27069e-09
4.29251e-09
4.26623e-09
4.29502e-09
1.0873e-07
2.75347e-07
4.21666e-09
4.26948e-09
4.2163e-09
4.27063e-09
4.2826e-09
4.22979e-09
4.28335e-09
1.08749e-07
2.75337e-07
4.1999e-09
4.20449e-09
4.20435e-09
2.75301e-07
1.08726e-07
2.7531e-07
4.27103e-09
4.29354e-09
4.26538e-09
4.29214e-09
1.0873e-07
2.75351e-07
4.21698e-09
4.2705e-09
4.21541e-09
4.26772e-09
4.28329e-09
4.22671e-09
4.28046e-09
1.0875e-07
2.75341e-07
4.20068e-09
4.20145e-09
4.20152e-09
2.75307e-07
1.08726e-07
2.75311e-07
4.26965e-09
4.29271e-09
4.26576e-09
4.29278e-09
1.0873e-07
2.75352e-07
4.21556e-09
4.26967e-09
4.21585e-09
4.26836e-09
4.28301e-09
4.22833e-09
4.28152e-09
1.08749e-07
2.75342e-07
4.20037e-09
4.20305e-09
4.20256e-09
2.75307e-07
1.08726e-07
2.75307e-07
4.27067e-09
4.29236e-09
4.26663e-09
4.29335e-09
1.08729e-07
2.75349e-07
4.21666e-09
4.26924e-09
4.21683e-09
4.26894e-09
4.28144e-09
4.22898e-09
4.28257e-09
1.08749e-07
2.75339e-07
4.19883e-09
4.20362e-09
4.20359e-09
2.75304e-07
1.08726e-07
2.75308e-07
4.27168e-09
4.2937e-09
4.26495e-09
4.29237e-09
1.0873e-07
2.75351e-07
4.22133e-09
4.2708e-09
4.23035e-09
4.26791e-09
4.28358e-09
4.22688e-09
4.28148e-09
1.0875e-07
2.75341e-07
4.20097e-09
4.20167e-09
4.2025e-09
2.75305e-07
1.08724e-07
2.75307e-07
4.27137e-09
4.29418e-09
4.26598e-09
4.29339e-09
1.08729e-07
2.7535e-07
4.20195e-09
4.271e-09
4.2316e-09
4.26904e-09
4.28255e-09
4.2283e-09
4.28126e-09
1.08749e-07
2.7534e-07
4.19996e-09
4.20301e-09
4.20233e-09
2.75307e-07
1.08724e-07
2.75306e-07
4.27269e-09
4.29332e-09
4.26614e-09
4.29278e-09
1.0873e-07
2.75352e-07
4.20345e-09
4.27024e-09
4.23171e-09
4.26825e-09
4.28082e-09
4.22684e-09
4.28043e-09
1.08749e-07
2.75341e-07
4.1982e-09
4.20157e-09
4.20148e-09
2.75308e-07
1.08725e-07
2.75304e-07
4.27229e-09
4.29204e-09
4.26797e-09
4.29449e-09
1.08729e-07
2.75348e-07
4.2031e-09
4.27162e-09
4.23354e-09
4.2763e-09
4.28351e-09
4.2293e-09
4.28311e-09
1.08749e-07
2.75368e-07
4.20086e-09
4.20309e-09
4.20407e-09
2.75301e-07
1.08725e-07
2.75309e-07
4.27377e-09
4.29502e-09
4.26448e-09
4.29268e-09
1.0873e-07
2.75351e-07
4.20464e-09
4.26572e-09
4.23002e-09
4.27485e-09
4.28505e-09
4.22719e-09
4.27994e-09
1.08754e-07
2.75371e-07
4.20238e-09
4.2013e-09
4.20104e-09
2.75307e-07
1.08725e-07
2.75312e-07
4.26906e-09
4.29219e-09
4.26394e-09
4.29193e-09
1.0873e-07
2.75353e-07
4.19996e-09
4.26311e-09
4.22946e-09
4.27406e-09
4.28236e-09
4.22682e-09
4.27996e-09
1.08754e-07
2.75373e-07
4.19978e-09
4.20096e-09
4.20119e-09
2.75307e-07
1.08725e-07
2.75306e-07
4.27043e-09
4.29201e-09
4.26606e-09
4.29467e-09
1.0873e-07
2.75347e-07
4.20124e-09
4.2631e-09
4.23172e-09
4.27945e-09
4.28235e-09
4.2291e-09
4.28341e-09
1.08754e-07
2.75373e-07
4.19969e-09
4.20317e-09
4.20438e-09
2.75303e-07
1.08725e-07
2.75306e-07
4.27232e-09
4.2943e-09
4.26468e-09
4.2952e-09
1.0873e-07
2.75349e-07
4.20339e-09
4.26487e-09
4.23145e-09
4.26899e-09
4.28447e-09
4.2265e-09
4.28182e-09
1.08754e-07
2.7535e-07
4.20218e-09
4.19964e-09
4.20905e-09
2.75305e-07
1.08725e-07
2.75312e-07
4.27132e-09
4.29558e-09
4.26798e-09
4.3e-09
1.0873e-07
2.75348e-07
4.20441e-09
4.27002e-09
4.23266e-09
4.29135e-09
4.28977e-09
4.23256e-09
4.27204e-09
1.0875e-07
2.75346e-07
4.21763e-09
4.21335e-09
4.21735e-09
2.75293e-07
1.08717e-07
2.75317e-07
4.28038e-09
4.28509e-09
4.69589e-09
4.66681e-09
1.08724e-07
2.75328e-07
4.20175e-09
4.29918e-09
4.67876e-09
4.71192e-09
4.25636e-09
4.53529e-09
4.60213e-09
1.08742e-07
2.75347e-07
4.1911e-09
4.5752e-09
4.58012e-09
2.75292e-07
1.08679e-07
2.74835e-07
5.27095e-09
5.32186e-09
2.41896e-08
2.42566e-08
1.08635e-07
2.74846e-07
5.25298e-09
5.23084e-09
2.42272e-08
2.42669e-08
5.22201e-09
2.40848e-08
2.41849e-08
1.08687e-07
2.74801e-07
5.16745e-09
2.40964e-08
2.40637e-08
2.74838e-07
1.07242e-07
1.13396e-07
4.78807e-08
4.78936e-08
2.31433e-07
2.30981e-07
1.07226e-07
1.13436e-07
4.77368e-08
4.79571e-08
2.31004e-07
2.30883e-07
4.79265e-08
2.31521e-07
2.31309e-07
1.07242e-07
1.13332e-07
4.77565e-08
2.31199e-07
2.30954e-07
1.13341e-07
5.53982e-07
2.40927e-07
2.40715e-07
5.53932e-07
2.41089e-07
2.40795e-07
5.2458e-07
5.24679e-07
5.24627e-07
2.40949e-07
5.539e-07
2.41083e-07
5.38822e-08
2.418e-07
1.6094e-07
1.60962e-07
5.34631e-07
3.31591e-07
5.92346e-07
2.17165e-07
5.34586e-07
3.31635e-07
2.17181e-07
5.92175e-07
4.38314e-07
4.75412e-07
4.75316e-07
3.53872e-06
0.000120041
3.44597e-06
0.000121457
0.000240432
0.000247076
3.53929e-06
0.000120058
3.44711e-06
0.000121475
1.31483e-06
1.31419e-06
1.3145e-06
1.83776e-07
1.83696e-07
1.83739e-07
1.83805e-07
2.90684e-07
5.64405e-06
9.51121e-07
8.10506e-07
1.82341e-07
4.14888e-06
6.39924e-07
0.000240425
0.000247061
2.90008e-07
9.50333e-07
5.64289e-06
8.10405e-07
1.82229e-07
6.39657e-07
4.14802e-06
8.15955e-06
8.16052e-06
2.7713e-07
8.97969e-06
8.98148e-06
3.39474e-06
0.000120744
3.38626e-06
0.000120734
0.000247842
0.000247834
3.39522e-06
0.00012076
3.38669e-06
0.00012075
8.87769e-08
8.87703e-08
8.8814e-08
1.24344e-08
1.24314e-08
1.24328e-08
1.24589e-08
3.53966e-07