/*--------------------------------*- C++ -*----------------------------------*\
| =========                 |                                                 |
| \\      /  F ield         | OpenFOAM: The Open Source CFD Toolbox           |
|  \\    /   O peration     | Version:  v1906                                 |
|   \\  /    A nd           | Web:      www.OpenFOAM.com                      |
|    \\/     M anipulation  |                                                 |
\*---------------------------------------------------------------------------*/
FoamFile
{
    version     2.0;
    format      ascii;
    class       volScalarField;
    location    "450";
    object      p;
}
// * * * * * * * * * * * * * * * * * * * * * * * * * * * * * * * * * * * * * //

dimensions      [0 2 -2 0 0 0 0];


internalField   nonuniform List<scalar> 
43024
(
0.000710609
0.000710558
0.000710558
0.000712134
0.00067525
0.000675201
0.000675201
0.00067678
0.000639864
0.000639818
0.000639818
0.000641399
0.00060445
0.000604406
0.000604406
0.00060599
0.000569006
0.000568965
0.000568965
0.000570551
0.000533531
0.000533492
0.000533492
0.000535081
0.000498024
0.000497988
0.000497988
0.00049958
0.000462484
0.00046245
0.00046245
0.000464045
0.00042691
0.000426879
0.000426879
0.000428476
0.000391303
0.000391274
0.000391274
0.000392874
0.000355662
0.000355635
0.000355635
0.000357237
0.000319987
0.000319962
0.000319962
0.000321567
0.000284277
0.000284254
0.000284254
0.000285861
0.000248532
0.000248511
0.000248511
0.000250121
0.000212752
0.000212733
0.000212733
0.000214344
0.000176937
0.00017692
0.00017692
0.000178531
0.000141085
0.000141071
0.000141071
0.000142678
0.000105193
0.000105183
0.000105182
0.000106777
6.92708e-05
6.92538e-05
6.92522e-05
7.08023e-05
3.38885e-05
3.34341e-05
3.34309e-05
3.46827e-05
6.82023e-06
7.83822e-06
7.83379e-06
5.74428e-06
0.000717781
0.000719393
0.000719392
0.000717781
0.000719393
0.000719393
0.000719393
0.000719393
0.000717781
0.000719393
0.000719393
0.000717781
0.000712133
0.000682431
0.000710558
0.000710558
0.000684043
0.000684043
0.000712133
0.000682431
0.000710558
0.000710558
0.000684043
0.000684043
0.000710558
0.000684043
0.000684043
0.000712133
0.000682431
0.000710558
0.000684043
0.000684043
0.000682431
0.00067678
0.000647054
0.000675201
0.000675201
0.000648666
0.000648666
0.000676779
0.000647054
0.000675201
0.000675201
0.000648666
0.000648666
0.000675201
0.000648666
0.000648666
0.00067678
0.000647054
0.000675201
0.000648666
0.000648666
0.000647054
0.000641399
0.000611649
0.000639818
0.000639818
0.000613262
0.000613262
0.000641399
0.000611649
0.000639818
0.000639818
0.000613262
0.000613262
0.000639818
0.000613262
0.000613262
0.000641399
0.000611649
0.000639818
0.000613262
0.000613262
0.000611648
0.00060599
0.000576214
0.000604406
0.000604406
0.000577828
0.000577828
0.000605989
0.000576214
0.000604406
0.000604406
0.000577828
0.000577828
0.000604406
0.000577828
0.000577828
0.00060599
0.000576214
0.000604406
0.000577828
0.000577828
0.000576214
0.000570551
0.000540749
0.000568965
0.000568965
0.000542363
0.000542363
0.000570551
0.000540749
0.000568965
0.000568965
0.000542363
0.000542363
0.000568965
0.000542363
0.000542363
0.000570551
0.000540749
0.000568965
0.000542363
0.000542363
0.000540748
0.000535081
0.000505252
0.000533492
0.000533492
0.000506867
0.000506867
0.000535081
0.000505252
0.000533492
0.000533492
0.000506867
0.000506867
0.000533492
0.000506867
0.000506867
0.000535081
0.000505251
0.000533492
0.000506867
0.000506867
0.000505251
0.000499579
0.000469721
0.000497988
0.000497988
0.000471338
0.000471338
0.000499579
0.000469722
0.000497988
0.000497988
0.000471337
0.000471338
0.000497988
0.000471337
0.000471337
0.000499579
0.000469721
0.000497988
0.000471337
0.000471337
0.000469721
0.000464045
0.000434158
0.00046245
0.00046245
0.000435775
0.000435775
0.000464044
0.000434158
0.00046245
0.00046245
0.000435775
0.000435775
0.00046245
0.000435775
0.000435775
0.000464045
0.000434158
0.00046245
0.000435775
0.000435775
0.000434158
0.000428476
0.00039856
0.000426879
0.000426879
0.000400178
0.000400178
0.000428476
0.000398561
0.000426879
0.000426879
0.000400178
0.000400178
0.000426879
0.000400178
0.000400178
0.000428476
0.00039856
0.000426879
0.000400178
0.000400178
0.00039856
0.000392874
0.000362929
0.000391274
0.000391274
0.000364547
0.000364547
0.000392874
0.000362929
0.000391274
0.000391274
0.000364547
0.000364547
0.000391274
0.000364547
0.000364547
0.000392874
0.000362929
0.000391274
0.000364547
0.000364547
0.000362928
0.000357237
0.000327263
0.000355635
0.000355635
0.000328882
0.000328882
0.000357237
0.000327263
0.000355635
0.000355635
0.000328882
0.000328882
0.000355635
0.000328882
0.000328882
0.000357237
0.000327263
0.000355635
0.000328882
0.000328882
0.000327263
0.000321567
0.000291563
0.000319962
0.000319962
0.000293182
0.000293182
0.000321566
0.000291563
0.000319962
0.000319962
0.000293182
0.000293182
0.000319962
0.000293182
0.000293182
0.000321567
0.000291563
0.000319962
0.000293182
0.000293182
0.000291563
0.000285861
0.000255827
0.000284254
0.000284254
0.000257447
0.000257447
0.000285861
0.000255828
0.000284254
0.000284254
0.000257447
0.000257448
0.000284254
0.000257447
0.000257447
0.000285861
0.000255827
0.000284254
0.000257447
0.000257447
0.000255827
0.00025012
0.000220057
0.000248511
0.000248511
0.000221677
0.000221677
0.00025012
0.000220057
0.000248511
0.000248511
0.000221677
0.000221677
0.000248511
0.000221677
0.000221677
0.00025012
0.000220057
0.000248511
0.000221677
0.000221677
0.000220057
0.000214344
0.000184251
0.000212733
0.000212733
0.000185871
0.000185871
0.000214343
0.000184252
0.000212733
0.000212733
0.000185871
0.000185871
0.000212733
0.000185871
0.000185871
0.000214344
0.000184251
0.000212733
0.000185871
0.000185871
0.000184251
0.00017853
0.00014841
0.00017692
0.00017692
0.000150027
0.000150027
0.00017853
0.00014841
0.00017692
0.00017692
0.000150027
0.000150027
0.00017692
0.000150027
0.000150027
0.00017853
0.00014841
0.00017692
0.000150027
0.000150027
0.00014841
0.000142678
0.00011253
0.000141071
0.000141071
0.000114144
0.000114144
0.000142677
0.00011253
0.000141071
0.000141071
0.000114144
0.000114144
0.000141071
0.000114144
0.000114144
0.000142678
0.00011253
0.000141071
0.000114144
0.000114144
0.00011253
0.000106777
7.66079e-05
0.000105183
0.000105183
7.82151e-05
7.82152e-05
0.000106777
7.66086e-05
0.000105182
0.000105182
7.82149e-05
7.82142e-05
0.000105183
7.82153e-05
7.82145e-05
0.000106776
7.66067e-05
0.000105183
7.82143e-05
7.82146e-05
7.66071e-05
7.08027e-05
4.06482e-05
6.92535e-05
6.92535e-05
4.22853e-05
4.22861e-05
7.08025e-05
4.06504e-05
6.9253e-05
6.9252e-05
4.22838e-05
4.2282e-05
6.92526e-05
4.22852e-05
4.22824e-05
7.08018e-05
4.06453e-05
6.92527e-05
4.22821e-05
4.22814e-05
4.06451e-05
3.46874e-05
8.48315e-06
3.3436e-05
3.34363e-05
1.09359e-05
1.0937e-05
3.46876e-05
8.48394e-06
3.34338e-05
3.34312e-05
1.09355e-05
1.09278e-05
3.34312e-05
1.09352e-05
1.09271e-05
3.46835e-05
8.4769e-06
3.34301e-05
1.09296e-05
1.09311e-05
8.47621e-06
5.74973e-06
7.83605e-06
7.83788e-06
5.75153e-06
7.83691e-06
7.8316e-06
6.82045e-06
6.81651e-06
6.81667e-06
7.83296e-06
5.74342e-06
7.83526e-06
0.000734895
0.000734897
0.000734896
0.000734895
0.000734897
0.000719445
0.000719445
0.000719445
0.000719445
0.000734978
0.000737058
0.000734933
0.000737079
0.000734896
0.000734978
0.000737058
0.000737079
0.000734933
0.000735447
0.000734891
0.000734891
0.00069956
0.000712701
0.000712688
0.000699562
0.000712708
0.000699561
0.00069956
0.000712701
0.000712688
0.000699562
0.000710609
0.000710609
0.000710609
0.000684093
0.000684093
0.000684093
0.000684093
0.000699641
0.000712653
0.000710577
0.000701721
0.000712604
0.000699597
0.00070174
0.000712708
0.000699561
0.000699641
0.000710577
0.000712654
0.000701721
0.000712604
0.00070174
0.000699597
0.000712701
0.000712701
0.000700109
0.000699556
0.000699555
0.000664199
0.00067735
0.000677337
0.000664201
0.000677357
0.0006642
0.000664198
0.00067735
0.000677337
0.000664201
0.00067525
0.00067525
0.00067525
0.000648713
0.000648713
0.000648713
0.000648713
0.000664279
0.000677302
0.00067522
0.000666358
0.000677252
0.000664236
0.000666376
0.000677357
0.0006642
0.000664279
0.00067522
0.000677302
0.000666358
0.000677252
0.000666376
0.000664235
0.000677349
0.00067735
0.000664746
0.000664194
0.000664194
0.000628809
0.000641972
0.000641958
0.000628812
0.000641979
0.000628811
0.000628809
0.000641971
0.000641959
0.000628812
0.000639864
0.000639864
0.000639864
0.000613306
0.000613306
0.000613306
0.000613306
0.000628888
0.000641923
0.000639835
0.000630968
0.000641873
0.000628846
0.000630985
0.000641979
0.000628811
0.000628888
0.000639835
0.000641924
0.000630968
0.000641873
0.000630984
0.000628846
0.000641971
0.000641971
0.000629355
0.000628805
0.000628805
0.000593391
0.000606565
0.000606552
0.000593394
0.000606572
0.000593393
0.000593391
0.000606565
0.000606552
0.000593394
0.00060445
0.00060445
0.00060445
0.000577869
0.000577869
0.000577869
0.000577869
0.000593469
0.000606516
0.000604422
0.000595548
0.000606466
0.000593428
0.000595564
0.000606572
0.000593393
0.000593469
0.000604422
0.000606516
0.000595548
0.000606466
0.000595564
0.000593428
0.000606564
0.000606564
0.000593935
0.000593387
0.000593387
0.000557943
0.000571128
0.000571115
0.000557946
0.000571135
0.000557945
0.000557943
0.000571128
0.000571115
0.000557946
0.000569006
0.000569006
0.000569006
0.000542402
0.000542402
0.000542402
0.000542402
0.00055802
0.000571079
0.00056898
0.000560099
0.000571028
0.00055798
0.000560114
0.000571135
0.000557945
0.00055802
0.00056898
0.00057108
0.000560099
0.000571028
0.000560114
0.00055798
0.000571127
0.000571127
0.000558485
0.000557939
0.000557939
0.000522464
0.00053566
0.000535647
0.000522467
0.000535668
0.000522466
0.000522463
0.00053566
0.000535647
0.000522467
0.000533531
0.000533531
0.000533531
0.000506903
0.000506903
0.000506903
0.000506903
0.00052254
0.000535611
0.000533506
0.000524619
0.00053556
0.0005225
0.000524633
0.000535668
0.000522466
0.00052254
0.000533506
0.000535612
0.000524619
0.00053556
0.000524633
0.0005225
0.00053566
0.00053566
0.000523004
0.00052246
0.00052246
0.000486951
0.000500161
0.000500147
0.000486955
0.000500168
0.000486954
0.000486951
0.000500161
0.000500148
0.000486955
0.000498024
0.000498024
0.000498024
0.000471372
0.000471372
0.000471372
0.000471372
0.000487027
0.000500112
0.000498001
0.000489106
0.00050006
0.000486988
0.000489119
0.000500168
0.000486954
0.000487027
0.000498001
0.000500112
0.000489106
0.000500059
0.000489119
0.000486988
0.00050016
0.00050016
0.00048749
0.000486948
0.000486948
0.000451406
0.000464628
0.000464614
0.000451409
0.000464635
0.000451409
0.000451406
0.000464628
0.000464615
0.000451409
0.000462484
0.000462484
0.000462484
0.000435807
0.000435807
0.000435807
0.000435807
0.000451481
0.000464579
0.000462462
0.00045356
0.000464526
0.000451443
0.000453572
0.000464635
0.000451408
0.000451481
0.000462462
0.000464579
0.00045356
0.000464526
0.000453572
0.000451442
0.000464627
0.000464627
0.000451944
0.000451403
0.000451403
0.000415827
0.000429061
0.000429047
0.00041583
0.000429068
0.000415829
0.000415826
0.000429061
0.000429048
0.00041583
0.00042691
0.00042691
0.00042691
0.000400208
0.000400208
0.000400208
0.000400208
0.000415901
0.000429012
0.00042689
0.00041798
0.000428959
0.000415863
0.000417991
0.000429068
0.000415829
0.000415901
0.00042689
0.000429012
0.00041798
0.000428959
0.000417991
0.000415863
0.00042906
0.00042906
0.000416363
0.000415823
0.000415823
0.000380213
0.00039346
0.000393447
0.000380217
0.000393467
0.000380216
0.000380213
0.00039346
0.000393447
0.000380217
0.000391303
0.000391303
0.000391303
0.000364575
0.000364575
0.000364575
0.000364575
0.000380287
0.000393411
0.000391284
0.000382367
0.000393358
0.00038025
0.000382377
0.000393467
0.000380216
0.000380287
0.000391284
0.000393411
0.000382367
0.000393358
0.000382377
0.000380249
0.00039346
0.00039346
0.000380749
0.00038021
0.00038021
0.000344566
0.000357825
0.000357811
0.000344569
0.000357832
0.000344568
0.000344565
0.000357825
0.000357812
0.000344569
0.000355662
0.000355662
0.000355662
0.000328908
0.000328908
0.000328908
0.000328908
0.000344639
0.000357775
0.000355644
0.000346719
0.000357722
0.000344602
0.000346728
0.000357832
0.000344568
0.000344639
0.000355644
0.000357776
0.000346719
0.000357722
0.000346728
0.000344602
0.000357824
0.000357824
0.0003451
0.000344562
0.000344562
0.000308884
0.000322155
0.000322142
0.000308887
0.000322163
0.000308886
0.000308883
0.000322155
0.000322142
0.000308887
0.000319987
0.000319987
0.000319987
0.000293206
0.000293206
0.000293206
0.000293206
0.000308957
0.000322105
0.00031997
0.000311036
0.000322052
0.00030892
0.000311045
0.000322162
0.000308886
0.000308957
0.00031997
0.000322106
0.000311037
0.000322052
0.000311045
0.00030892
0.000322155
0.000322155
0.000309417
0.00030888
0.00030888
0.000273167
0.000286451
0.000286437
0.000273171
0.000286458
0.000273169
0.000273167
0.00028645
0.000286438
0.000273171
0.000284277
0.000284277
0.000284277
0.00025747
0.00025747
0.00025747
0.00025747
0.00027324
0.000286401
0.000284261
0.000275319
0.000286347
0.000273204
0.000275327
0.000286458
0.000273169
0.00027324
0.000284261
0.000286401
0.000275319
0.000286347
0.000275327
0.000273203
0.00028645
0.00028645
0.000273699
0.000273164
0.000273164
0.000237415
0.00025071
0.000250697
0.000237419
0.000250718
0.000237416
0.000237414
0.00025071
0.000250697
0.000237419
0.000248532
0.000248532
0.000248532
0.000221698
0.000221698
0.000221698
0.000221698
0.000237488
0.00025066
0.000248518
0.000239567
0.000250607
0.000237452
0.000239573
0.000250718
0.000237416
0.000237488
0.000248518
0.000250661
0.000239567
0.000250607
0.000239573
0.000237452
0.00025071
0.00025071
0.000237946
0.000237412
0.000237412
0.000201627
0.000214933
0.000214921
0.000201631
0.000214942
0.000201628
0.000201627
0.000214933
0.000214921
0.000201631
0.000212752
0.000212752
0.000212752
0.00018589
0.00018589
0.00018589
0.00018589
0.000201701
0.000214883
0.000212739
0.000203778
0.00021483
0.000201666
0.000203784
0.000214942
0.000201628
0.000201701
0.000212739
0.000214883
0.000203778
0.00021483
0.000203785
0.000201665
0.000214933
0.000214933
0.000202158
0.000201625
0.000201625
0.000165803
0.000179118
0.000179108
0.000165809
0.00017913
0.000165803
0.000165802
0.000179118
0.000179108
0.000165809
0.000176937
0.000176937
0.000176937
0.000150046
0.000150046
0.000150046
0.000150046
0.000165879
0.000179068
0.000176925
0.000167954
0.000179017
0.000165845
0.000167959
0.000179129
0.000165803
0.000165879
0.000176925
0.000179068
0.000167954
0.000179017
0.000167959
0.000165845
0.000179119
0.000179119
0.000166335
0.000165803
0.000165803
0.000129938
0.000143263
0.000143258
0.000129951
0.000143281
0.000129936
0.000129937
0.000143263
0.000143258
0.000129951
0.000141085
0.000141085
0.000141085
0.000114162
0.000114162
0.000114162
0.000114162
0.000130021
0.000143211
0.000141075
0.000132091
0.000143165
0.00012999
0.000132096
0.000143281
0.000129936
0.000130021
0.000141075
0.000143211
0.000132091
0.000143165
0.000132096
0.000129989
0.000143266
0.000143266
0.000130475
0.000129944
0.000129944
9.40257e-05
0.000107362
0.000107368
9.40531e-05
0.000107397
9.40093e-05
9.40249e-05
0.000107362
0.000107367
9.40525e-05
0.000105194
0.000105193
0.000105194
7.82359e-05
7.82361e-05
7.82352e-05
7.82356e-05
9.41237e-05
0.000107304
0.000105187
9.61854e-05
0.000107271
9.41036e-05
9.61901e-05
0.000107396
9.40081e-05
9.4123e-05
0.000105186
0.000107304
9.61849e-05
0.00010727
9.61897e-05
9.41024e-05
0.000107369
0.000107369
9.45738e-05
9.40357e-05
9.4035e-05
5.8046e-05
7.13964e-05
7.14229e-05
5.80865e-05
7.14955e-05
5.794e-05
5.8044e-05
7.13965e-05
7.14222e-05
5.80853e-05
6.92711e-05
6.927e-05
6.92704e-05
4.24975e-05
4.24983e-05
4.24955e-05
4.24953e-05
5.81725e-05
7.13176e-05
6.92596e-05
6.0237e-05
7.13185e-05
5.81709e-05
6.02514e-05
7.14877e-05
5.79368e-05
5.81704e-05
6.92583e-05
7.13153e-05
6.02348e-05
7.13174e-05
6.025e-05
5.81691e-05
7.14025e-05
7.14002e-05
5.86268e-05
5.80795e-05
5.80777e-05
2.15501e-05
3.51537e-05
3.52475e-05
2.11566e-05
3.55793e-05
2.00707e-05
2.15382e-05
3.51466e-05
3.5242e-05
2.11517e-05
3.38893e-05
3.38853e-05
3.38852e-05
1.21085e-05
1.21082e-05
1.21036e-05
1.21046e-05
2.20773e-05
3.50114e-05
3.36821e-05
2.47318e-05
3.5207e-05
2.16244e-05
2.52321e-05
3.55634e-05
2.00775e-05
2.20782e-05
3.36797e-05
3.50057e-05
2.47278e-05
3.52064e-05
2.52288e-05
2.16229e-05
3.50457e-05
3.50458e-05
2.28917e-05
2.14431e-05
2.1442e-05
6.47257e-07
3.25733e-06
3.61623e-06
2.54414e-06
5.60761e-06
-1.88812e-06
6.50894e-07
3.23585e-06
3.59665e-06
2.54315e-06
1.95801e-06
7.70424e-06
7.70294e-06
7.72567e-06
8.01048e-06
4.39446e-06
4.39516e-06
2.96106e-06
2.63943e-06
7.21318e-06
2.44786e-06
5.29945e-06
6.75417e-06
-6.76873e-08
5.59096e-06
-1.88419e-06
2.96517e-06
7.21089e-06
2.63686e-06
2.44845e-06
5.2989e-06
-6.71467e-08
6.75374e-06
-3.72288e-07
-3.71926e-07
1.58771e-06
6.52548e-06
6.53467e-06
0.000734896
0.000734896
0.000735447
0.000734891
0.000734891
0.000717232
0.000730374
0.000717232
0.000730374
0.000729801
0.000717226
0.000717226
0.000730367
0.000730367
0.000734895
0.000734897
0.000734978
0.000737058
0.000734933
0.000737079
0.000734978
0.000737058
0.000734933
0.000737079
0.000730354
0.000717233
0.000730367
0.000717231
0.000730354
0.000717233
0.000730367
0.000717231
0.000730271
0.000728226
0.000717268
0.000719412
0.00073032
0.000728246
0.000717312
0.000730271
0.000728226
0.000717268
0.000719412
0.00073032
0.000728246
0.000717312
0.000735447
0.000734891
0.000734891
0.000734896
0.000717232
0.000730374
0.000729801
0.000717226
0.000717227
0.000730367
0.000730366
0.000717232
0.000730374
0.000734978
0.000737058
0.000734933
0.000737079
0.000734895
0.000734897
0.000734978
0.000737058
0.000737079
0.000734933
0.000730355
0.000717233
0.000730367
0.000717231
0.000730271
0.000728226
0.000717268
0.000719412
0.000730319
0.000728246
0.000717312
0.000730355
0.000717233
0.000730367
0.000717231
0.000730271
0.000728226
0.000719412
0.000717268
0.000728246
0.000730319
0.000717312
0.000734896
0.000734898
0.000734978
0.000737058
0.000737079
0.000734933
0.000734896
0.000734897
0.000730271
0.000728226
0.000717268
0.000719412
0.000730319
0.000728246
0.000717312
0.000730355
0.000717233
0.000730367
0.000717231
0.000730271
0.000728226
0.000719412
0.000717268
0.000728246
0.00073032
0.000717312
0.000730355
0.000717233
0.000730367
0.000717231
0.000735447
0.000734891
0.000734891
0.000734896
0.000717232
0.000730374
0.000729801
0.000717227
0.000717226
0.000730366
0.000730367
0.000717232
0.000730374
0.000734978
0.000737058
0.000737079
0.000734933
0.000734896
0.000734897
0.000734896
0.000734897
0.000730271
0.000728226
0.000719412
0.000717268
0.000728246
0.00073032
0.000717313
0.000730271
0.000728226
0.000719412
0.000717268
0.000728246
0.000730319
0.000717312
0.000730354
0.000717233
0.000730367
0.000717231
0.000730354
0.000717233
0.000730367
0.000717231
0.000734896
0.000734896
0.000729801
0.000717226
0.000717226
0.000730367
0.000730367
0.000717232
0.000730374
0.000717232
0.000730374
0.000712708
0.000699561
0.000712708
0.000699561
0.000712701
0.000712701
0.000700109
0.000699555
0.000699555
0.000681884
0.000695036
0.000681884
0.000695036
0.00069446
0.000681878
0.000681878
0.000695028
0.000695028
0.00069956
0.000712701
0.000712688
0.000699562
0.000699641
0.000712654
0.000710577
0.000701721
0.000712604
0.000699597
0.00070174
0.000699641
0.000712653
0.000710577
0.000701721
0.000712604
0.000699597
0.00070174
0.000695016
0.000681885
0.000695029
0.000681883
0.000695016
0.000681885
0.000695029
0.000681883
0.000694932
0.000692883
0.000681919
0.000684062
0.000694981
0.000692902
0.000681963
0.000694931
0.000692883
0.00068192
0.000684062
0.000694981
0.000692902
0.000681963
0.0007127
0.0007127
0.00070011
0.000699555
0.000699556
0.000712708
0.000699561
0.000681884
0.000695036
0.00069446
0.000681878
0.000681879
0.000695028
0.000695028
0.000681884
0.000695036
0.000699641
0.000712653
0.000710577
0.000701721
0.000712604
0.000699597
0.00070174
0.00069956
0.000712701
0.000712688
0.000699562
0.000699641
0.000710577
0.000712653
0.000701721
0.000712604
0.00070174
0.000699597
0.000695016
0.000681885
0.000695029
0.000681882
0.000694931
0.000692883
0.00068192
0.000684061
0.000694981
0.000692902
0.000681963
0.000695016
0.000681885
0.000695028
0.000681882
0.000694931
0.000692883
0.000684061
0.00068192
0.000692902
0.00069498
0.000681963
0.00069956
0.000712701
0.000712688
0.000699562
0.000699641
0.000710577
0.000712653
0.000701721
0.000712604
0.00070174
0.000699597
0.00069956
0.000712701
0.000712688
0.000699562
0.000694932
0.000692883
0.00068192
0.000684062
0.000694981
0.000692902
0.000681963
0.000695016
0.000681885
0.000695029
0.000681883
0.000694932
0.000692883
0.000684062
0.00068192
0.000692902
0.000694981
0.000681963
0.000695016
0.000681885
0.000695029
0.000681883
0.0007127
0.000712701
0.000700109
0.000699556
0.000699555
0.000712708
0.000699561
0.000681884
0.000695036
0.00069446
0.000681879
0.000681878
0.000695028
0.000695028
0.000681884
0.000695036
0.000699641
0.000710577
0.000712653
0.000701721
0.000712604
0.00070174
0.000699597
0.000699561
0.000712701
0.000712688
0.000699562
0.00069956
0.000712701
0.000712688
0.000699562
0.000694932
0.000692883
0.000684062
0.00068192
0.000692902
0.000694981
0.000681963
0.000694932
0.000692883
0.000684062
0.00068192
0.000692902
0.000694981
0.000681963
0.000695016
0.000681885
0.000695029
0.000681883
0.000695016
0.000681885
0.000695029
0.000681883
0.000712708
0.000699561
0.000712708
0.000699561
0.00069446
0.000681878
0.000681878
0.000695028
0.000695028
0.000681884
0.000695036
0.000681884
0.000695036
0.000677357
0.0006642
0.000677357
0.0006642
0.000677349
0.000677349
0.000664746
0.000664194
0.000664194
0.000646509
0.000659671
0.000646509
0.000659671
0.000659093
0.000646503
0.000646503
0.000659664
0.000659664
0.000664199
0.00067735
0.000677337
0.000664201
0.000664279
0.000677302
0.00067522
0.000666358
0.000677252
0.000664235
0.000666376
0.000664279
0.000677302
0.00067522
0.000666358
0.000677252
0.000664236
0.000666376
0.000659651
0.00064651
0.000659664
0.000646508
0.000659651
0.00064651
0.000659664
0.000646508
0.000659566
0.000657513
0.000646544
0.000648684
0.000659616
0.000657531
0.000646587
0.000659566
0.000657513
0.000646544
0.000648684
0.000659616
0.000657531
0.000646587
0.000677349
0.000677349
0.000664746
0.000664194
0.000664195
0.000677357
0.0006642
0.000646509
0.000659671
0.000659093
0.000646503
0.000646504
0.000659663
0.000659663
0.000646509
0.000659672
0.000664278
0.000677302
0.00067522
0.000666358
0.000677253
0.000664236
0.000666376
0.000664198
0.00067735
0.000677337
0.000664201
0.000664278
0.00067522
0.000677302
0.000666358
0.000677253
0.000666376
0.000664236
0.000659651
0.00064651
0.000659664
0.000646507
0.000659566
0.000657513
0.000646544
0.000648684
0.000659616
0.000657531
0.000646587
0.000659651
0.00064651
0.000659664
0.000646507
0.000659566
0.000657513
0.000648684
0.000646545
0.000657531
0.000659616
0.000646587
0.000664199
0.00067735
0.000677337
0.000664201
0.000664279
0.00067522
0.000677302
0.000666358
0.000677252
0.000666376
0.000664235
0.000664199
0.00067735
0.000677337
0.000664201
0.000659566
0.000657513
0.000646545
0.000648684
0.000659616
0.000657531
0.000646587
0.000659651
0.00064651
0.000659664
0.000646508
0.000659566
0.000657513
0.000648684
0.000646544
0.000657531
0.000659616
0.000646587
0.000659651
0.00064651
0.000659664
0.000646508
0.000677349
0.000677349
0.000664746
0.000664195
0.000664194
0.000677357
0.0006642
0.000646509
0.000659671
0.000659093
0.000646504
0.000646503
0.000659663
0.000659664
0.000646509
0.000659671
0.000664279
0.00067522
0.000677302
0.000666358
0.000677252
0.000666376
0.000664236
0.000664199
0.00067735
0.000677337
0.000664201
0.000664199
0.00067735
0.000677337
0.000664201
0.000659566
0.000657513
0.000648684
0.000646544
0.000657531
0.000659616
0.000646587
0.000659566
0.000657513
0.000648684
0.000646544
0.000657531
0.000659616
0.000646587
0.000659651
0.00064651
0.000659664
0.000646508
0.000659651
0.00064651
0.000659664
0.000646508
0.000677357
0.0006642
0.000677357
0.0006642
0.000659093
0.000646503
0.000646503
0.000659664
0.000659664
0.000646509
0.000659672
0.000646509
0.000659672
0.000641979
0.000628811
0.000641979
0.000628811
0.000641971
0.000641971
0.000629355
0.000628805
0.000628805
0.000611106
0.000624279
0.000611106
0.000624279
0.000623698
0.0006111
0.0006111
0.000624271
0.000624271
0.000628809
0.000641971
0.000641959
0.000628812
0.000628888
0.000641924
0.000639835
0.000630968
0.000641873
0.000628846
0.000630984
0.000628889
0.000641923
0.000639835
0.000630968
0.000641873
0.000628846
0.000630984
0.000624259
0.000611107
0.000624272
0.000611104
0.000624259
0.000611107
0.000624272
0.000611104
0.000624173
0.000622116
0.000611141
0.000613278
0.000624224
0.000622132
0.000611183
0.000624173
0.000622116
0.000611141
0.000613278
0.000624223
0.000622132
0.000611183
0.000641971
0.00064197
0.000629355
0.000628805
0.000628806
0.000641979
0.000628811
0.000611106
0.000624279
0.000623698
0.0006111
0.0006111
0.000624271
0.000624271
0.000611106
0.000624279
0.000628888
0.000641923
0.000639835
0.000630968
0.000641873
0.000628846
0.000630985
0.000628809
0.000641971
0.000641959
0.000628812
0.000628888
0.000639835
0.000641923
0.000630968
0.000641873
0.000630985
0.000628846
0.000624259
0.000611107
0.000624272
0.000611104
0.000624173
0.000622116
0.000611141
0.000613278
0.000624223
0.000622132
0.000611182
0.000624259
0.000611107
0.000624271
0.000611104
0.000624173
0.000622116
0.000613278
0.000611141
0.000622132
0.000624223
0.000611183
0.000628809
0.000641971
0.000641959
0.000628812
0.000628888
0.000639835
0.000641924
0.000630968
0.000641873
0.000630984
0.000628846
0.000628809
0.000641972
0.000641959
0.000628812
0.000624173
0.000622116
0.000611141
0.000613278
0.000624223
0.000622132
0.000611183
0.000624259
0.000611107
0.000624272
0.000611104
0.000624173
0.000622116
0.000613278
0.000611141
0.000622132
0.000624224
0.000611183
0.000624259
0.000611107
0.000624272
0.000611104
0.00064197
0.000641971
0.000629355
0.000628806
0.000628805
0.000641979
0.000628811
0.000611106
0.000624279
0.000623698
0.0006111
0.0006111
0.00062427
0.000624271
0.000611106
0.000624279
0.000628888
0.000639835
0.000641923
0.000630968
0.000641873
0.000630984
0.000628846
0.00062881
0.000641972
0.000641958
0.000628812
0.00062881
0.000641971
0.000641958
0.000628812
0.000624173
0.000622116
0.000613278
0.000611141
0.000622132
0.000624223
0.000611183
0.000624173
0.000622116
0.000613278
0.000611141
0.000622132
0.000624223
0.000611183
0.000624258
0.000611107
0.000624272
0.000611105
0.000624258
0.000611107
0.000624272
0.000611105
0.000641979
0.000628811
0.000641979
0.000628811
0.000623698
0.0006111
0.0006111
0.000624271
0.000624271
0.000611106
0.000624279
0.000611106
0.000624279
0.000606572
0.000593393
0.000606572
0.000593393
0.000606564
0.000606564
0.000593935
0.000593387
0.000593387
0.000575673
0.000588858
0.000575673
0.000588858
0.000588274
0.000575667
0.000575667
0.00058885
0.00058885
0.000593391
0.000606565
0.000606551
0.000593394
0.00059347
0.000606516
0.000604422
0.000595548
0.000606466
0.000593428
0.000595564
0.00059347
0.000606516
0.000604422
0.000595548
0.000606466
0.000593428
0.000595564
0.000588837
0.000575674
0.00058885
0.000575671
0.000588837
0.000575674
0.00058885
0.000575671
0.000588751
0.000586689
0.000575708
0.000577843
0.000588802
0.000586705
0.000575749
0.000588751
0.000586689
0.000575708
0.000577843
0.000588802
0.000586705
0.000575749
0.000606564
0.000606563
0.000593935
0.000593388
0.000593388
0.000606572
0.000593393
0.000575673
0.000588857
0.000588274
0.000575667
0.000575668
0.000588849
0.000588849
0.000575673
0.000588857
0.000593469
0.000606516
0.000604422
0.000595548
0.000606466
0.000593428
0.000595564
0.000593391
0.000606564
0.000606552
0.000593394
0.000593469
0.000604422
0.000606516
0.000595548
0.000606466
0.000595564
0.000593428
0.000588837
0.000575674
0.00058885
0.000575671
0.000588751
0.000586689
0.000575708
0.000577843
0.000588802
0.000586705
0.000575749
0.000588837
0.000575674
0.00058885
0.000575671
0.000588751
0.000586689
0.000577843
0.000575708
0.000586705
0.000588801
0.000575749
0.000593391
0.000606564
0.000606552
0.000593394
0.000593469
0.000604422
0.000606516
0.000595548
0.000606466
0.000595564
0.000593428
0.000593391
0.000606565
0.000606552
0.000593394
0.00058875
0.000586689
0.000575708
0.000577843
0.000588801
0.000586705
0.000575749
0.000588837
0.000575674
0.00058885
0.000575671
0.000588751
0.000586689
0.000577843
0.000575707
0.000586705
0.000588802
0.000575749
0.000588837
0.000575674
0.00058885
0.000575671
0.000606563
0.000606564
0.000593935
0.000593388
0.000593387
0.000606572
0.000593393
0.000575673
0.000588857
0.000588274
0.000575668
0.000575667
0.000588849
0.00058885
0.000575673
0.000588858
0.000593469
0.000604422
0.000606516
0.000595548
0.000606465
0.000595564
0.000593428
0.000593392
0.000606565
0.000606551
0.000593394
0.000593392
0.000606565
0.000606551
0.000593394
0.000588751
0.000586689
0.000577843
0.000575708
0.000586705
0.000588802
0.000575749
0.000588751
0.000586689
0.000577843
0.000575708
0.000586705
0.000588802
0.000575749
0.000588836
0.000575674
0.00058885
0.000575672
0.000588836
0.000575674
0.00058885
0.000575672
0.000606572
0.000593393
0.000606572
0.000593393
0.000588274
0.000575667
0.000575667
0.00058885
0.00058885
0.000575673
0.000588857
0.000575673
0.000588857
0.000571135
0.000557945
0.000571135
0.000557945
0.000571128
0.000571128
0.000558485
0.000557939
0.000557939
0.00054021
0.000553406
0.00054021
0.000553406
0.00055282
0.000540203
0.000540203
0.000553398
0.000553398
0.000557943
0.000571128
0.000571115
0.000557946
0.000558021
0.00057108
0.00056898
0.000560099
0.000571028
0.000557979
0.000560114
0.000558021
0.00057108
0.00056898
0.000560099
0.000571028
0.00055798
0.000560114
0.000553385
0.000540211
0.000553398
0.000540207
0.000553385
0.00054021
0.000553398
0.000540207
0.000553298
0.000551232
0.000540243
0.000542377
0.00055335
0.000551247
0.000540284
0.000553298
0.000551232
0.000540244
0.000542377
0.00055335
0.000551247
0.000540284
0.000571127
0.000571127