/*--------------------------------*- C++ -*----------------------------------*\
| =========                 |                                                 |
| \\      /  F ield         | OpenFOAM: The Open Source CFD Toolbox           |
|  \\    /   O peration     | Version:  v1906                                 |
|   \\  /    A nd           | Web:      www.OpenFOAM.com                      |
|    \\/     M anipulation  |                                                 |
\*---------------------------------------------------------------------------*/
FoamFile
{
    version     2.0;
    format      ascii;
    class       volScalarField;
    location    "100";
    object      nut;
}
// * * * * * * * * * * * * * * * * * * * * * * * * * * * * * * * * * * * * * //

dimensions      [0 2 -1 0 0 0 0];


internalField   nonuniform List<scalar> 
43024
(
0.000148715
0.00010226
0.000102206
8.40076e-05
0.000148705
0.000102279
0.000102234
8.39411e-05
0.000148709
0.000102283
0.000102253
8.3814e-05
0.000148706
0.000102286
0.000102255
8.34589e-05
0.000148689
0.000102283
0.000102264
8.35947e-05
0.000148678
0.000102258
0.000102275
8.3352e-05
0.000148672
0.000102255
0.00010227
8.33244e-05
0.000148677
0.000102265
0.000102239
8.32031e-05
0.000148688
0.000102269
0.000102232
8.32599e-05
0.000148687
0.000102272
0.000102231
8.32949e-05
0.000148692
0.000102277
0.000102225
8.3291e-05
0.000148693
0.00010228
0.000102215
8.32887e-05
0.000148699
0.000102261
0.000102216
8.32679e-05
0.000148711
0.000102255
0.000102233
8.33021e-05
0.00014871
0.000102258
0.000102258
8.34307e-05
0.000148702
0.000102258
0.000102269
8.34828e-05
0.000148691
0.000102263
0.000102275
8.34777e-05
0.000148688
0.000102282
0.000102302
8.31462e-05
0.000148683
0.000102322
0.000102327
8.31063e-05
0.000148774
0.000102336
0.000102352
8.35002e-05
0.000151714
0.000105146
0.000105159
8.69399e-05
8.37502e-05
0.000102214
0.000102204
8.38194e-05
0.00010224
0.000102191
0.000102257
0.000102224
8.37357e-05
0.00010221
0.000102223
8.40612e-05
8.36883e-05
8.37599e-05
0.000102233
0.000102214
0.000102227
0.000102216
8.36707e-05
8.38481e-05
0.000102251
0.000102198
0.000102252
0.000102205
0.000102241
0.000102277
0.000102251
8.37088e-05
8.38241e-05
0.000102245
0.000102243
0.000102257
8.40761e-05
8.36784e-05
8.38164e-05
0.00010224
0.000102243
0.000102243
0.000102244
8.37819e-05
8.39151e-05
0.000102277
0.000102224
0.000102278
0.000102221
0.000102264
0.000102284
0.000102264
8.38027e-05
8.38074e-05
0.000102273
0.000102265
0.000102273
8.39938e-05
8.37116e-05
8.37933e-05
0.000102264
0.000102247
0.000102246
0.000102237
8.37421e-05
8.36748e-05
0.000102293
0.000102231
0.00010229
0.000102229
0.000102274
0.000102285
0.000102263
8.37319e-05
8.38859e-05
0.000102278
0.000102268
0.000102259
8.37408e-05
8.37267e-05
8.36267e-05
0.000102253
0.000102234
0.00010225
0.000102223
8.36781e-05
8.3564e-05
0.000102295
0.000102234
0.000102279
0.000102221
0.000102269
0.000102286
0.000102261
8.37782e-05
8.39255e-05
0.000102248
0.000102282
0.000102232
8.36534e-05
8.3335e-05
8.36833e-05
0.00010226
0.000102226
0.000102251
0.000102224
8.3499e-05
8.36839e-05
0.000102279
0.000102225
0.000102274
0.000102212
0.000102265
0.00010226
0.00010225
8.35625e-05
8.37556e-05
0.000102241
0.00010228
0.000102229
8.36266e-05
8.3531e-05
8.35834e-05
0.00010226
0.000102229
0.000102255
0.00010223
8.36861e-05
8.37314e-05
0.000102279
0.000102214
0.000102272
0.0001022
0.000102243
0.000102256
0.000102236
8.34063e-05
8.35291e-05
0.000102239
0.000102273
0.00010223
8.36269e-05
8.34164e-05
8.35572e-05
0.000102254
0.00010223
0.000102245
0.000102223
8.37222e-05
8.35543e-05
0.000102283
0.000102194
0.000102275
0.000102179
0.000102256
0.000102263
0.000102233
8.33875e-05
8.35209e-05
0.000102236
0.000102241
0.000102225
8.32645e-05
8.34946e-05
8.36457e-05
0.000102249
0.000102225
0.000102245
0.000102215
8.33529e-05
8.34884e-05
0.000102274
0.000102193
0.000102268
0.000102168
0.000102249
0.00010227
0.000102222
8.34327e-05
8.35864e-05
0.000102233
0.000102233
0.000102226
8.33055e-05
8.33954e-05
8.36631e-05
0.000102246
0.000102233
0.000102243
0.000102215
8.32473e-05
8.3588e-05
0.000102286
0.000102171
0.000102273
0.000102174
0.000102227
0.000102273
0.000102224
8.32437e-05
8.33577e-05
0.000102245
0.00010223
0.000102236
8.33911e-05
8.33642e-05
8.35188e-05
0.000102247
0.00010223
0.000102247
0.000102206
8.34582e-05
8.35361e-05
0.000102277
0.000102189
0.000102277
0.000102165
0.000102232
0.000102276
0.00010223
8.32604e-05
8.32266e-05
0.000102252
0.000102226
0.000102241
8.34223e-05
8.34236e-05
8.37552e-05
0.000102269
0.000102225
0.000102253
0.000102211
8.34502e-05
8.35541e-05
0.000102276
0.000102178
0.000102276
0.000102162
0.000102233
0.000102282
0.000102221
8.31516e-05
8.3394e-05
0.000102252
0.000102216
0.000102243
8.34112e-05
8.35717e-05
8.37822e-05
0.000102277
0.000102225
0.000102276
0.000102216
8.32091e-05
8.34859e-05
0.000102294
0.000102176
0.000102283
0.000102166
0.000102226
0.000102264
0.000102204
8.32468e-05
8.34669e-05
0.000102241
0.000102215
0.000102233
8.32247e-05
8.34054e-05
8.35224e-05
0.000102269
0.000102223
0.000102257
0.000102213
8.32211e-05
8.35539e-05
0.000102303
0.000102189
0.000102293
0.000102185
0.000102205
0.000102252
0.000102193
8.34161e-05
8.35847e-05
0.000102249
0.000102228
0.000102236
8.338e-05
8.34034e-05
8.37077e-05
0.000102279
0.000102222
0.000102268
0.000102209
8.33948e-05
8.35267e-05
0.000102295
0.000102187
0.000102295
0.000102187
0.000102205
0.00010226
0.000102202
8.34419e-05
8.36074e-05
0.000102262
0.000102253
0.000102252
8.34823e-05
8.35653e-05
8.36669e-05
0.000102279
0.000102234
0.000102273
0.000102207
8.34183e-05
8.32988e-05
0.000102305
0.000102201
0.000102303
0.000102198
0.000102222
0.000102257
0.000102231
8.35268e-05
8.34367e-05
0.000102251
0.000102267
0.000102258
8.36045e-05
8.36339e-05
8.3753e-05
0.000102273
0.000102207
0.000102257
0.000102204
8.3231e-05
8.33975e-05
0.000102304
0.000102199
0.000102301
0.000102193
0.000102237
0.00010226
0.000102233
8.34332e-05
8.34864e-05
0.000102272
0.000102271
0.00010226
8.35652e-05
8.34411e-05
8.35516e-05
0.000102267
0.000102209
0.000102265
0.000102217
8.32966e-05
8.34435e-05
0.000102304
0.000102202
0.000102301
0.000102198
0.000102241
0.000102275
0.000102232
8.33795e-05
8.32816e-05
0.000102263
0.000102296
0.000102257
8.32368e-05
8.34812e-05
8.34851e-05
0.000102282
0.000102223
0.000102292
0.000102261
8.33054e-05
8.34533e-05
0.000102308
0.000102208
0.000102317
0.000102223
0.000102252
0.000102314
0.000102265
8.30272e-05
8.32773e-05
0.000102271
0.000102315
0.000102287
8.32949e-05
8.31387e-05
8.32227e-05
0.000102303
0.000102269
0.000102389
0.000102349
8.31076e-05
8.32637e-05
0.000102329
0.000102243
0.000102408
0.000102343
0.000102295
0.000102377
0.000102381
8.31231e-05
8.33477e-05
0.0001023
0.000102394
0.000102379
8.33628e-05
8.35584e-05
8.56685e-05
0.000102354
0.00010231
0.000103856
0.000103843
8.30967e-05
8.55653e-05
0.00010237
0.000102304
0.000103921
0.000103843
0.000102341
0.000103887
0.000103885
8.32946e-05
8.55072e-05
0.00010234
0.000103897
0.000103894
8.58109e-05
8.72675e-05
0.000105236
0.000105213
8.70298e-05
0.00010524
0.000105183
0.000151699
0.000151721
0.000151635
0.000105127
8.6959e-05
0.000105223
6.41677e-05
4.93008e-05
2.35415e-05
6.43754e-05
4.93021e-05
0.000148711
0.000148672
0.000148676
0.000148633
6.52431e-05
0.000102252
6.41753e-05
0.000125862
2.35482e-05
6.47148e-05
0.000102185
0.000125879
6.41045e-05
8.34691e-05
5.92773e-05
5.92652e-05
6.4282e-05
4.93009e-05
6.42823e-05
4.93015e-05
2.35408e-05
2.35434e-05
6.41878e-05
4.93034e-05
6.4286e-05
4.9303e-05
0.000148662
0.000148661
0.000148618
0.000148699
0.000148668
0.000148671
0.000148627
6.51698e-05
6.41724e-05
0.000125869
0.000102273
6.52069e-05
6.4179e-05
0.000125885
2.35468e-05
2.35482e-05
6.49526e-05
0.000125915
6.4122e-05
0.000102232
6.50308e-05
0.000125914
6.41395e-05
5.9319e-05
5.92552e-05
8.41588e-05
5.93817e-05
5.92422e-05
6.44801e-05
4.93e-05
6.43818e-05
4.93013e-05
2.35441e-05
2.3546e-05
6.42393e-05
4.93047e-05
6.42e-05
4.93046e-05
0.000148651
0.000148671
0.000148621
0.000148702
0.000148658
0.000148682
0.000148626
6.50864e-05
6.41625e-05
0.000125899
0.000102284
6.51045e-05
6.41716e-05
0.000125905
2.35481e-05
2.35503e-05
6.4938e-05
0.000125933
6.41403e-05
0.000102252
6.49242e-05
0.000125926
6.41508e-05
5.94113e-05
5.93263e-05
8.40603e-05
5.93135e-05
5.9315e-05
6.43179e-05
4.93057e-05
6.43887e-05
4.93043e-05
2.35438e-05
2.3545e-05
6.4389e-05
4.93035e-05
6.43066e-05
4.93062e-05
0.000148651
0.000148654
0.00014862
0.000148705
0.000148657
0.000148668
0.000148629
6.49844e-05
6.41537e-05
0.000125907
0.000102287
6.50052e-05
6.41598e-05
0.000125907
2.3549e-05
2.35503e-05
6.48795e-05
0.000125933
6.41438e-05
0.000102266
6.48938e-05
0.00012593
6.41526e-05
5.92104e-05
5.9273e-05
8.39615e-05
5.92424e-05
5.92633e-05
6.43968e-05
4.92995e-05
6.4313e-05
4.92974e-05
2.35442e-05
2.35456e-05
6.45505e-05
4.93075e-05
6.45418e-05
4.93084e-05
0.000148652
0.00014866
0.000148628
0.000148691
0.000148652
0.000148649
0.000148637
6.49543e-05
6.41488e-05
0.000125908
0.00010229
6.49535e-05
6.41558e-05
0.000125901
2.35489e-05
2.35507e-05
6.48104e-05
0.000125922
6.41479e-05
0.00010228
6.48211e-05
0.000125919
6.41649e-05
5.92207e-05
5.93224e-05
8.36026e-05
5.92787e-05
5.93237e-05
6.42497e-05
4.92978e-05
6.43826e-05
4.92964e-05
2.35442e-05
2.35462e-05
6.44969e-05
4.93096e-05
6.44012e-05
4.93104e-05
0.000148648
0.000148632
0.000148637
0.000148673
0.000148649
0.000148632
0.000148638
6.49435e-05
6.4116e-05
0.000125898
0.000102282
6.49663e-05
6.4094e-05
0.000125891
2.35497e-05
2.35504e-05
6.48286e-05
0.000125912
6.4167e-05
0.000102275
6.4823e-05
0.00012591
6.41824e-05
5.92815e-05
5.93146e-05
8.35089e-05
5.92765e-05
5.93498e-05
6.44519e-05
4.92899e-05
6.42428e-05
4.92977e-05
2.35466e-05
2.35483e-05
6.43866e-05
4.93084e-05
6.44963e-05
4.9307e-05
0.00014865
0.000148626
0.000148626
0.000148673
0.000148657
0.000148622
0.000148637
6.48559e-05
6.40387e-05
0.000125884
0.000102287
6.48909e-05
6.40308e-05
0.000125886
2.35488e-05
2.35501e-05
6.43663e-05
0.000125904
6.41823e-05
0.000102275
6.48016e-05
0.000125903
6.41921e-05
5.93081e-05
5.92855e-05
8.34834e-05
5.92406e-05
5.92773e-05
6.40468e-05
4.92989e-05
6.41965e-05
4.93e-05
2.35464e-05
2.35475e-05
6.42642e-05
4.93072e-05
6.41622e-05
4.93078e-05
0.000148651
0.000148619
0.000148639
0.000148672
0.000148663
0.000148625
0.000148641
6.47362e-05
6.40129e-05
0.000125882
0.000102288
6.47524e-05
6.40256e-05
0.000125886
2.3546e-05
2.3546e-05
6.4408e-05
0.000125898
6.41814e-05
0.00010227
6.43846e-05
0.000125896
6.41833e-05
5.92481e-05
5.92331e-05
8.33015e-05
5.92715e-05
5.91978e-05
6.39727e-05
4.93005e-05
6.39805e-05
4.93023e-05
2.35469e-05
2.35481e-05
6.43518e-05
4.93065e-05
6.42544e-05
4.9306e-05
0.00014866
0.000148625
0.00014864
0.000148685
0.00014867
0.000148644
0.000148648
6.47091e-05
6.40176e-05
0.000125884
0.000102285
6.47184e-05
6.40233e-05
0.000125888
2.35419e-05
2.35418e-05
6.44781e-05
0.000125892
6.41633e-05
0.000102268
6.44547e-05
0.000125892
6.41629e-05
5.93061e-05
5.91545e-05
8.33915e-05
5.93128e-05
5.91815e-05
6.41234e-05
4.93026e-05
6.42163e-05
4.93022e-05
2.35454e-05
2.3546e-05
6.42565e-05
4.9305e-05
6.43459e-05
4.93058e-05
0.000148664
0.000148643
0.000148647
0.00014868
0.000148672
0.000148645
0.000148658
6.46844e-05
6.40061e-05
0.000125892
0.000102278
6.46827e-05
6.40134e-05
0.000125895
2.35388e-05
2.35401e-05
6.44653e-05
0.000125884
6.41326e-05
0.000102267
6.44673e-05
0.000125893
6.39343e-05
5.92982e-05
5.92504e-05
8.3492e-05
5.92212e-05
5.92603e-05
6.41609e-05
4.93015e-05
6.41449e-05
4.93031e-05
2.3544e-05
2.35452e-05
6.43505e-05
4.93051e-05
6.43229e-05
4.93048e-05
0.000148668
0.000148639
0.000148656
0.000148685
0.000148669
0.000148656
0.000148667
6.46746e-05
6.40059e-05
0.000125896
0.000102278
6.46808e-05
6.40138e-05
0.000125897
2.3539e-05
2.35413e-05
6.44178e-05
0.000125884
6.3698e-05
0.000102261
6.44452e-05
0.000125886
6.3725e-05
5.92737e-05
5.925e-05
8.35609e-05
5.92585e-05
5.92681e-05
6.41692e-05
4.93047e-05
6.42108e-05
4.93064e-05
2.35454e-05
2.35473e-05
6.41593e-05
4.93021e-05
6.39232e-05
4.93018e-05
0.000148661
0.000148645
0.000148662
0.000148685
0.000148669
0.000148646
0.000148668
6.46285e-05
6.40118e-05
0.000125898
0.000102283
6.46371e-05
6.40236e-05
0.000125898
2.35406e-05
2.35426e-05
6.43509e-05
0.000125879
6.379e-05
0.00010225
6.43641e-05
0.000125883
6.38455e-05
5.93725e-05
5.93464e-05
8.35406e-05
5.93738e-05
5.93577e-05
6.44067e-05
4.93038e-05
6.44102e-05
4.93034e-05
2.35436e-05
2.35449e-05
6.41171e-05
4.93003e-05
6.41307e-05
4.93006e-05
0.00014867
0.000148648
0.000148666
0.000148689
0.000148672
0.000148658
0.000148678
6.46116e-05
6.40238e-05
0.000125897
0.000102278
6.46111e-05
6.40384e-05
0.000125901
2.35417e-05
2.35432e-05
6.43643e-05
0.00012588
6.38998e-05
0.000102241
6.43578e-05
0.000125882
6.39356e-05
5.9347e-05
5.93404e-05
8.32546e-05
5.9312e-05
5.93204e-05
6.42956e-05
4.93043e-05
6.44534e-05
4.93069e-05
2.3543e-05
2.3545e-05
6.436e-05
4.93013e-05
6.4519e-05
4.93036e-05
0.000148674
0.000148647
0.000148677
0.000148705
0.000148689
0.000148663
0.00014868
6.46035e-05
6.40573e-05
0.0001259
0.000102274
6.46023e-05
6.4092e-05
0.000125899
2.35412e-05
2.35439e-05
6.43538e-05
0.000125884
6.39378e-05
0.000102242
6.43489e-05
0.000125891
6.39148e-05
5.93355e-05
5.93446e-05
8.3277e-05
5.92952e-05
5.93391e-05
6.45262e-05
4.9308e-05
6.44299e-05
4.93057e-05
2.35442e-05
2.35464e-05
6.41066e-05
4.93025e-05
6.42302e-05
4.93024e-05
0.000148682
0.000148648
0.000148676
0.000148705
0.000148696
0.000148668
0.000148682
6.45975e-05
6.41256e-05
0.000125895
0.000102276
6.45988e-05
6.41412e-05
0.000125897
2.35429e-05
2.35453e-05
6.43404e-05
0.000125895
6.38646e-05
0.00010226
6.43347e-05
0.0001259
6.38549e-05
5.92559e-05
5.94292e-05
8.34008e-05
5.9382e-05
5.94487e-05
6.44023e-05
4.93123e-05
6.43644e-05
4.93169e-05
2.3543e-05
2.35457e-05
6.44216e-05
4.93101e-05
6.4246e-05
4.93152e-05
0.00014868
0.000148659
0.000148679
0.000148702
0.000148696
0.00014867
0.000148683
6.46315e-05
6.41451e-05
0.0001259
0.000102265
6.46115e-05
6.41545e-05
0.000125907
2.35439e-05
2.35477e-05
6.43846e-05
0.000125909
6.38559e-05
0.000102274
6.4362e-05
0.000125914
6.38636e-05
5.94509e-05
5.94089e-05
8.36571e-05
5.94714e-05
5.93546e-05
6.46838e-05
4.93173e-05
6.44427e-05
4.93209e-05
2.35439e-05
2.35506e-05
6.44588e-05
4.9316e-05
6.44973e-05
4.93198e-05
0.000148682
0.000148674
0.000148678
0.000148691
0.000148689
0.00014869
0.000148677
6.46914e-05
6.41602e-05
0.000125911
0.000102264
6.4673e-05
6.41602e-05
0.000125912
2.35447e-05
2.35486e-05
6.44427e-05
0.000125923
6.36996e-05
0.000102283
6.441e-05
0.000125925
6.36183e-05
5.9507e-05
5.94195e-05
8.3568e-05
5.95213e-05
5.94169e-05
6.4736e-05
4.93212e-05
6.47495e-05
4.93276e-05
2.35486e-05
2.35528e-05
6.42353e-05
4.9321e-05
6.44492e-05
4.93271e-05
0.000148684
0.000148674
0.000148677
0.000148687
0.000148688
0.000148684
0.000148673
6.46863e-05
6.41678e-05
0.000125917
0.000102275
6.47036e-05
6.4149e-05
0.000125917
2.35451e-05
2.35508e-05
6.45627e-05
0.00012593
6.3641e-05
0.000102292
6.45246e-05
0.000125929
6.36614e-05
5.95529e-05
5.94278e-05
8.34918e-05
5.95567e-05
5.94465e-05
6.48682e-05
4.93278e-05
6.47639e-05
4.9337e-05
2.35451e-05
2.35511e-05
6.43739e-05
4.93267e-05
6.42899e-05
4.93358e-05
0.000148685
0.00014868
0.000148673
0.000148682
0.000148685
0.000148678
0.000148657
6.46614e-05
6.41632e-05
0.000125921
0.000102302
6.46737e-05
6.41351e-05
0.00012592
2.35458e-05
2.35528e-05
6.46902e-05
0.000125932
6.37598e-05
0.000102303
6.46442e-05
0.00012593
6.37758e-05
5.96032e-05
5.95548e-05
8.33346e-05
5.96125e-05
5.95877e-05
6.49963e-05
4.93311e-05
6.4891e-05
4.93435e-05
2.35465e-05
2.35568e-05
6.4456e-05
4.93317e-05
6.43512e-05
4.93451e-05
0.000148677
0.000148663
0.000148646
0.000148682
0.000148656
0.000148647
0.00014863
6.47387e-05
6.41811e-05
0.000125922
0.000102328
6.47193e-05
6.41089e-05
0.000125921
2.35472e-05
2.35563e-05
6.47856e-05
0.000125931
6.38711e-05
0.000102335
6.479e-05
0.000125926
6.3816e-05
5.96969e-05
5.96841e-05
8.34655e-05
5.96865e-05
5.96748e-05
6.45925e-05
4.93325e-05
6.46528e-05
4.93751e-05
2.35532e-05
2.35733e-05
6.48142e-05
4.93342e-05
6.4595e-05
4.9377e-05
0.000148736
0.000148731
0.000148706
0.000149538
0.000149489
0.000149489
0.00014947
6.4869e-05
6.42131e-05
0.000126068
0.000102619
6.48697e-05
6.40926e-05
0.000125832
2.3551e-05
2.35708e-05
6.48191e-05
0.000126066
6.39377e-05
0.000102634
6.4843e-05
0.000125821
6.38504e-05
5.9722e-05
5.97267e-05
8.4479e-05
5.95579e-05
5.95797e-05
6.21648e-05
5.30585e-05
6.45645e-05
9.03e-05
2.65238e-05
4.00236e-05
6.21082e-05
5.30583e-05
6.49877e-05
9.02988e-05
0.000191072
0.000173173
0.00017318
0.00014803
0.00019105
0.000170412
0.00017036
6.39073e-05
6.40714e-05
0.000129038
0.000107654
6.47215e-05
7.02046e-05
0.000133274
2.65202e-05
3.99575e-05
6.38993e-05
0.000129031
6.38859e-05
0.000107418
6.46836e-05
0.000133195
7.01934e-05
6.01037e-05
6.01614e-05
8.91553e-05
6.20121e-05
6.20748e-05
2.35403e-05
2.35475e-05
8.37252e-05
5.90605e-05
5.94174e-05
2.35413e-05
2.35391e-05
2.35489e-05
2.35467e-05
8.36421e-05
5.91672e-05
5.93455e-05
5.91421e-05
5.94107e-05
6.40691e-05
4.9305e-05
6.46647e-05
0.000102208
6.40494e-05
0.000125848
6.35432e-05
0.000102204
6.41318e-05
0.00012584
6.40541e-05
4.9301e-05
4.93005e-05
6.4245e-05
6.4084e-05
4.92991e-05
4.93009e-05
6.41908e-05
6.47318e-05
0.00010221
6.40598e-05
0.000125863
6.40547e-05
0.00012586
6.49089e-05
6.34303e-05
0.000102199
6.41515e-05
0.000125859
6.41388e-05
0.000125855
6.35955e-05
8.38079e-05
5.91935e-05
5.93941e-05
2.35488e-05
2.35421e-05
2.35403e-05
8.36701e-05
5.92059e-05
5.941e-05
5.91968e-05
5.93704e-05
2.35481e-05
2.3547e-05
6.45303e-05
0.000102215
6.41824e-05
0.000125899
6.43413e-05
4.93005e-05
6.34533e-05
0.000102185
0.000125879
6.41349e-05
6.44251e-05
4.93024e-05
4.93017e-05
6.43012e-05
6.45794e-05
0.000102231
6.42063e-05
0.000125934
6.41914e-05
0.000125918
6.47801e-05
6.43415e-05
4.93001e-05
4.92999e-05
6.42644e-05
6.36446e-05
0.000102194
0.000125922
6.41516e-05
0.000125909
6.41419e-05
6.36032e-05
6.46272e-05
4.9308e-05
6.50935e-05
0.000102182
0.000125806
6.41765e-05
6.4458e-05
4.93073e-05
6.5191e-05
0.000102255
6.41823e-05
0.000125865
6.41782e-05
0.000125861
6.52502e-05
6.46114e-05
4.93056e-05
4.93048e-05
6.43265e-05
6.53198e-05
0.000102211
0.000125815
6.41999e-05
0.000125809
6.41846e-05
6.53994e-05
6.44414e-05
4.9306e-05
4.93069e-05
6.4477e-05
8.36838e-05
5.9327e-05
5.92092e-05
2.35423e-05
2.35482e-05
2.3547e-05
8.37077e-05
5.92671e-05
5.91648e-05
5.93583e-05
5.92476e-05
2.35429e-05
2.35411e-05
6.49313e-05
0.000102219
0.000125837
6.41185e-05
6.40388e-05
4.93005e-05
6.43012e-05
4.93029e-05
6.47928e-05
0.000102207
0.000125907
6.41296e-05
0.000125896
6.41152e-05
6.52197e-05
6.48906e-05
0.000102211
0.00012584
6.41376e-05
0.000125838
6.41265e-05
6.47294e-05
6.40966e-05
4.93003e-05
4.93002e-05
6.39724e-05
6.44722e-05
4.93023e-05
4.93035e-05
6.40265e-05
2.35464e-05
2.35451e-05
8.37534e-05
5.93279e-05
5.925e-05
5.93166e-05
5.93597e-05
2.35468e-05
2.3545e-05
2.35452e-05
2.35438e-05
2.35402e-05
2.3542e-05
2.35475e-05
2.35483e-05
5.91733e-05
5.93463e-05
8.37337e-05
5.91424e-05
5.93535e-05
2.35437e-05
2.35411e-05
2.35461e-05
2.35466e-05
8.36368e-05
5.92558e-05
5.92302e-05
5.91996e-05
5.9266e-05
6.4255e-05
4.93e-05
6.42089e-05
4.93007e-05
6.52742e-05
6.40555e-05
0.000125865
0.000102236
6.50974e-05
6.40633e-05
0.000125867
6.4081e-05
6.41493e-05
0.000125857
0.000102228
6.39791e-05
6.41664e-05
0.000125857
6.43357e-05
4.93003e-05
4.93017e-05
6.43115e-05
6.42649e-05
4.93057e-05
4.92986e-05
6.43795e-05
6.53222e-05
0.000102241
6.40672e-05
0.000125876
6.4055e-05
0.000125871
6.53643e-05
6.40268e-05
0.000102212
6.41753e-05
0.000125864
6.41602e-05
0.000125858
6.42076e-05
5.91873e-05
5.94203e-05
8.37986e-05
5.92531e-05
5.93986e-05
2.35468e-05
2.3548e-05
2.35454e-05
2.35424e-05
8.37462e-05
5.92647e-05
5.93248e-05
5.92622e-05
5.93903e-05
2.35476e-05
2.35465e-05
6.45261e-05
6.42019e-05
0.000125947
0.000102263
6.48809e-05
6.42082e-05
0.000125946
6.44873e-05
4.93006e-05
6.44529e-05
4.92972e-05
6.40334e-05
0.000125932
6.41477e-05
0.000102206
6.37719e-05
0.000125936
6.41608e-05
6.43218e-05
4.93052e-05
4.93036e-05
6.41607e-05
6.41966e-05
0.000102256
6.4196e-05
0.000125969
6.41954e-05
0.000125964
6.40516e-05
6.44853e-05
4.92978e-05
4.92984e-05
6.43499e-05
6.38801e-05
0.000102208
0.000125962
6.41556e-05
0.00012595
6.41503e-05
6.38988e-05
6.42499e-05
4.93054e-05
6.42986e-05
4.93046e-05
6.53587e-05
0.000125835
6.41975e-05
0.000102257
6.54053e-05
0.000125849
6.42123e-05
6.45091e-05
4.93054e-05
6.43858e-05
4.93031e-05
6.51427e-05
0.000102278
6.41721e-05
0.000125893
6.41683e-05
0.000125888
6.51163e-05
6.44779e-05
4.93038e-05
4.93042e-05
6.4446e-05
6.52799e-05
0.000102256
0.000125873
6.42173e-05
0.000125863
6.42044e-05
6.52063e-05
6.45473e-05
4.93049e-05
4.9303e-05
6.45824e-05
5.92764e-05
5.91424e-05
8.38768e-05
5.93383e-05
5.92466e-05
2.35414e-05
2.35435e-05
2.35489e-05
2.35471e-05
8.37733e-05
5.9325e-05
5.9271e-05
5.93425e-05
5.925e-05
2.35452e-05
2.35427e-05
6.46551e-05
0.000125852
6.41334e-05
0.00010226
6.46404e-05
0.000125864
6.41433e-05
6.4142e-05
4.93006e-05
6.412e-05
4.93002e-05
6.41969e-05
4.93019e-05
6.41244e-05
4.92972e-05
6.49139e-05
0.000102246
0.000125929
6.41475e-05
0.00012592
6.41328e-05
6.49187e-05
6.46693e-05
0.000102253
0.000125881
6.41489e-05
0.000125871
6.41344e-05
6.49382e-05
6.42832e-05
4.92964e-05
4.92995e-05
6.45394e-05
6.4192e-05
4.92904e-05
4.92932e-05
6.44475e-05
2.35454e-05
2.35474e-05
2.35437e-05
2.35444e-05
8.39925e-05
5.93471e-05
5.93203e-05
5.93585e-05
5.9217e-05
2.35478e-05
2.35462e-05
2.35445e-05
2.35427e-05
2.35426e-05
2.35451e-05
2.35444e-05
2.35444e-05
5.92313e-05
5.92277e-05
8.37735e-05
5.92828e-05
5.91604e-05
2.35463e-05
2.35443e-05
2.35444e-05
2.3543e-05
8.36875e-05
5.92349e-05
5.91616e-05
5.92943e-05
5.92292e-05
6.45759e-05
4.93063e-05
6.44999e-05
4.93084e-05
6.51286e-05
6.40625e-05
0.00012588
0.000102256
6.52464e-05
6.40753e-05
0.000125884
6.48299e-05
6.41688e-05
0.000125877
0.00010225
6.44605e-05
6.41771e-05
0.000125873
6.44963e-05
4.93041e-05
4.93021e-05
6.4561e-05
6.44636e-05
4.93098e-05
4.93085e-05
6.43936e-05
6.50995e-05
0.000102243
6.40783e-05
0.000125887
6.40702e-05
0.000125881
6.50711e-05
6.49246e-05
0.000102247
6.41738e-05
0.000125883
6.41687e-05
0.000125881
6.49735e-05
5.92166e-05
5.93369e-05
8.38801e-05
5.92537e-05
5.93372e-05
2.35461e-05
2.35483e-05
2.35451e-05
2.35444e-05
8.37661e-05
5.91874e-05
5.92983e-05
5.91933e-05
5.93225e-05
2.35479e-05
2.3547e-05
6.42987e-05
6.41869e-05
0.000125966
0.000102288
6.4437e-05
6.41896e-05
0.00012597
6.4383e-05
4.92978e-05
6.43506e-05
4.92998e-05
6.45258e-05
0.000125964
6.41482e-05
0.000102234
6.4289e-05
0.000125966
6.41484e-05
6.42146e-05
4.93015e-05
4.93015e-05
6.41628e-05
6.4518e-05
0.000102277
6.41871e-05
0.000125972
6.41821e-05
0.00012597
6.47573e-05
6.42572e-05
4.9303e-05
4.93008e-05
6.44236e-05
6.45541e-05
0.000102226
0.000125968
6.41347e-05
0.000125969
6.41376e-05
6.45874e-05
6.44215e-05
4.93045e-05
6.43747e-05
4.93066e-05
6.51643e-05
0.000125877
6.42123e-05
0.000102276
6.51879e-05
0.000125876
6.42173e-05
6.43705e-05
4.93049e-05
6.45742e-05
4.93057e-05
6.5078e-05
0.000102287
6.4165e-05
0.000125908
6.4163e-05
0.000125907
6.50189e-05
6.41668e-05
4.93071e-05
4.93065e-05
6.416e-05
6.51668e-05
0.000102268
0.000125887
6.42097e-05
0.000125886
6.42083e-05
6.52006e-05
6.42875e-05
4.93049e-05
4.9305e-05
6.4324e-05
5.93946e-05
5.92687e-05
8.37422e-05
5.93607e-05
5.91578e-05
2.35441e-05
2.35452e-05
2.35504e-05
2.35487e-05
8.37618e-05
5.93735e-05
5.92302e-05
5.93246e-05
5.92074e-05
2.35451e-05
2.35438e-05
6.49296e-05
0.000125887
6.41444e-05
0.00010228
6.48524e-05
0.000125888
6.41566e-05
6.46007e-05
4.92985e-05
6.45608e-05
4.92995e-05
6.44297e-05
4.92893e-05
6.44217e-05
4.92882e-05
6.49333e-05
0.00010226
0.00012593
6.4153e-05
0.00012593
6.41441e-05
6.49039e-05
6.48037e-05
0.000102272
0.000125893
6.41617e-05
0.00012589
6.41505e-05
6.48632e-05
6.45109e-05
4.93027e-05
4.92967e-05
6.41588e-05
6.42995e-05
4.92883e-05
4.92875e-05
6.42489e-05
2.35468e-05
2.3548e-05
2.35434e-05
2.35448e-05
8.39508e-05
5.92364e-05
5.92927e-05
5.93058e-05
5.92735e-05
2.35469e-05
2.35464e-05
2.35448e-05
2.35432e-05
2.3545e-05
2.35456e-05
2.35433e-05
2.35447e-05
5.9225e-05
5.921e-05
8.37099e-05
5.91648e-05
5.91776e-05
2.35447e-05
2.35441e-05
2.35437e-05
2.35433e-05
8.36544e-05
5.92026e-05
5.91362e-05
5.91826e-05
5.92076e-05
6.41656e-05
4.93095e-05
6.43842e-05
4.93099e-05
6.50298e-05
6.40643e-05
0.000125887
0.000102263
6.50617e-05
6.40526e-05
0.000125882
6.49575e-05
6.41662e-05
0.000125878
0.000102248
6.4979e-05
6.41721e-05
0.000125875
6.4445e-05
4.9301e-05
4.93048e-05
6.44664e-05
6.42569e-05
4.93097e-05
4.93094e-05
6.42352e-05
6.50266e-05
0.000102262
6.40408e-05
0.000125876
6.40411e-05
0.00012588
6.49925e-05
6.49547e-05
0.000102244
6.41601e-05
0.000125868
6.41614e-05
0.000125871
6.49258e-05
5.92314e-05
5.92686e-05
8.36742e-05
5.9226e-05
5.9307e-05
2.35461e-05
2.35469e-05
2.35453e-05
2.35434e-05
8.35233e-05
5.92966e-05
5.93498e-05
5.91919e-05
5.92868e-05
2.35472e-05
2.35454e-05
6.46337e-05
6.41791e-05
0.000125975
0.000102291
6.46966e-05
6.4183e-05
0.000125971
6.42981e-05
4.93028e-05
6.44142e-05
4.93034e-05
6.4579e-05
0.000125967
6.41238e-05
0.000102239
6.45984e-05
0.000125967
6.41208e-05
6.44445e-05
4.93075e-05
4.93061e-05
6.44125e-05
6.45541e-05
0.000102289
6.41758e-05
0.000125964
6.41741e-05
0.000125966
6.42535e-05
6.44893e-05
4.92999e-05
4.93e-05
6.45224e-05
6.45815e-05
0.000102237
0.000125958
6.41084e-05
0.000125958
6.41105e-05
6.45726e-05
6.42768e-05
4.93064e-05
6.42331e-05
4.93065e-05
6.52877e-05
0.000125884
6.41994e-05
0.000102277
6.52297e-05
0.00012588
6.41997e-05
6.4203e-05
4.93043e-05
6.4259e-05
4.93042e-05
6.4981e-05
0.000102285
6.41586e-05
0.000125909
6.41518e-05
0.000125907
6.4958e-05
6.4094e-05
4.93076e-05
4.93063e-05
6.42527e-05
6.53199e-05
0.000102269
0.000125881
6.41919e-05
0.000125881
6.41912e-05
6.53315e-05
6.44046e-05
4.93029e-05
4.93035e-05
6.42822e-05
5.93684e-05
5.92279e-05
8.38277e-05
5.93654e-05
5.92232e-05
2.35435e-05
2.35441e-05
2.35504e-05
2.35489e-05
8.37716e-05
5.93517e-05
5.92222e-05
5.93645e-05
5.91859e-05
2.35434e-05
2.35423e-05
6.51849e-05
0.000125894
6.41553e-05
0.000102281
6.48385e-05
0.000125888
6.41647e-05
6.4122e-05
4.93032e-05
6.41939e-05
4.93049e-05
6.42419e-05
4.92882e-05
6.42633e-05
4.92869e-05
6.48737e-05
0.000102275
0.000125924
6.41549e-05
0.000125928
6.4145e-05
6.48318e-05
6.53413e-05
0.000102271
0.000125891
6.41681e-05
0.000125896
6.4158e-05
6.50551e-05
6.41869e-05
4.93046e-05
4.93046e-05
6.41684e-05
6.42001e-05
4.9286e-05
4.92885e-05
6.42709e-05
2.35452e-05
2.35453e-05
2.35434e-05
2.35447e-05
8.36464e-05
5.91913e-05
5.93008e-05
5.92601e-05
5.9275e-05
2.35446e-05
2.3544e-05
2.35453e-05
2.35435e-05
2.35432e-05
2.35442e-05
2.35424e-05
2.3544e-05
5.92023e-05
5.91791e-05
8.38296e-05
5.9228e-05
5.91865e-05
2.35443e-05
2.35429e-05
2.35443e-05
2.35428e-05
8.37375e-05
5.91899e-05
5.91741e-05
5.91583e-05
5.91698e-05
6.42688e-05
4.93093e-05
6.42688e-05
4.93097e-05
6.49562e-05
6.40329e-05
0.000125874
0.000102266
6.49861e-05
6.40396e-05
0.000125875
6.48933e-05
6.415e-05
0.000125869
0.000102235
6.49218e-05
6.41481e-05
0.000125869
6.44378e-05
4.92972e-05
4.92969e-05
6.4324e-05
6.4429e-05
4.93086e-05
4.9309e-05
6.45662e-05
6.49562e-05
0.000102256
6.40336e-05
0.000125873
6.40316e-05
0.000125874
6.4935e-05
6.48938e-05
0.000102228
6.41416e-05
0.000125866
6.41383e-05
0.000125866
6.48779e-05
5.93043e-05
5.93552e-05
8.34492e-05
5.92786e-05
5.93721e-05
2.35459e-05
2.35474e-05
2.35453e-05
2.35441e-05
8.32981e-05
5.92853e-05
5.93082e-05
5.92734e-05
5.93657e-05
2.35471e-05
2.35459e-05
6.45042e-05
6.41676e-05
0.000125967
0.000102297
6.44222e-05
6.41738e-05
0.000125961
6.44774e-05
4.92948e-05
6.45259e-05
4.93017e-05
6.45755e-05
0.000125952
6.40984e-05
0.000102234
6.45834e-05
0.000125944
6.40995e-05
6.43639e-05
4.93098e-05
4.93083e-05
6.4218e-05
6.45155e-05
0.000102291
6.41702e-05
0.000125956
6.41655e-05
0.000125958
6.45276e-05
6.44664e-05
4.93023e-05
4.93016e-05
6.40967e-05
6.45711e-05
0.000102226
0.000125922
6.4089e-05
0.00012593
6.40906e-05
6.45162e-05
6.41611e-05
4.93073e-05
6.42588e-05
4.93072e-05
6.53219e-05
0.000125879
6.41836e-05
0.000102269
6.53352e-05
0.000125876
6.41883e-05
6.43986e-05
4.93026e-05
6.43612e-05
4.93033e-05
6.49612e-05
0.000102289
6.41323e-05
0.000125904
6.41453e-05
0.000125905
6.49729e-05
6.42507e-05
4.93072e-05
4.93069e-05
6.45478e-05
6.53373e-05
0.000102265
0.000125869
6.41845e-05
0.000125873
6.41799e-05
6.53756e-05
6.44172e-05
4.93043e-05
4.9303e-05
6.4285e-05
5.9333e-05
5.92337e-05
8.37937e-05
5.93831e-05
5.92802e-05
2.35422e-05
2.35443e-05
2.35513e-05
2.35498e-05
8.37767e-05
5.93231e-05
5.92848e-05
5.94108e-05
5.92985e-05
2.35457e-05
2.35435e-05
6.48971e-05
0.000125885
6.41628e-05
0.000102266
6.49924e-05
0.000125881
6.4174e-05
6.41901e-05
4.93043e-05
6.42267e-05
4.93054e-05
6.43303e-05
4.92904e-05
6.41371e-05
4.92929e-05
6.48159e-05
0.000102286
0.000125916
6.41741e-05
0.000125921
6.41608e-05
6.48219e-05
6.48743e-05
0.000102245
0.00012588
6.41779e-05
0.000125886
6.41683e-05
6.48559e-05
6.43599e-05
4.9306e-05
4.93052e-05
6.45651e-05
6.43628e-05
4.92913e-05
4.92881e-05
6.44845e-05
2.3543e-05
2.35443e-05
2.35441e-05
2.35462e-05
8.35572e-05
5.92512e-05
5.92937e-05
5.92371e-05
5.93421e-05
2.3544e-05
2.35428e-05
2.35465e-05
2.35449e-05
2.35429e-05
2.35437e-05
2.3543e-05
2.35448e-05
5.919e-05
5.91698e-05
8.35691e-05
5.91735e-05
5.91775e-05
2.35444e-05
2.35423e-05
2.35436e-05
2.35431e-05
8.34452e-05
5.92347e-05
5.91595e-05
5.91624e-05
5.91789e-05
6.45518e-05
4.93078e-05
6.45866e-05
4.93067e-05
6.49062e-05
6.40242e-05
0.000125875
0.000102263
6.49345e-05
6.40223e-05
0.000125874
6.4841e-05
6.41346e-05
0.000125871
0.000102226
6.48784e-05
6.41431e-05
0.000125866
6.43093e-05
4.92956e-05
4.92973e-05
6.42912e-05
6.46276e-05
4.93058e-05
4.9306e-05
6.43081e-05
6.4904e-05
0.000102254
6.4005e-05
0.000125875
6.40097e-05
0.000125874
6.48665e-05
6.4834e-05
0.000102227
6.41457e-05
0.00012587
6.41368e-05
0.00012587
6.47683e-05
5.92886e-05
5.93251e-05
8.35742e-05
5.92553e-05