/*--------------------------------*- C++ -*----------------------------------*\
| =========                 |                                                 |
| \\      /  F ield         | OpenFOAM: The Open Source CFD Toolbox           |
|  \\    /   O peration     | Version:  v1906                                 |
|   \\  /    A nd           | Web:      www.OpenFOAM.com                      |
|    \\/     M anipulation  |                                                 |
\*---------------------------------------------------------------------------*/
FoamFile
{
    version     2.0;
    format      ascii;
    class       surfaceScalarField;
    location    "100";
    object      phi;
}
// * * * * * * * * * * * * * * * * * * * * * * * * * * * * * * * * * * * * * //

dimensions      [0 3 -1 0 0 0 0];
oriented        oriented;


internalField   nonuniform List<scalar> 
124908
(
1.27665e-09
-1.28382e-10
-0.00114644
-1.80917e-09
-1.90714e-09
0.00114645
-0.00113607
-1.29227e-06
-6.17195e-10
8.16329e-09
0.00113607
-3.12319e-07
1.29586e-06
3.08167e-07
9.73464e-07
-3.12753e-07
-9.7221e-07
3.06279e-07
-0.00113575
-1.2858e-06
-1.08553e-09
7.55211e-09
0.00113575
-3.12477e-07
1.29112e-06
3.08163e-07
9.73674e-07
-3.15515e-07
-9.71833e-07
3.09511e-07
-0.000276008
1.32076e-06
1.28613e-06
-2.69337e-07
-2.7509e-07
0.000273945
2.90188e-10
-1.93314e-10
-0.00114645
-1.60664e-09
-1.89067e-09
0.00114645
-0.00113607
-1.29197e-06
-2.31091e-09
7.73545e-09
0.00113607
-3.12434e-07
1.29651e-06
3.07908e-07
9.7331e-07
-3.12773e-07
-9.72388e-07
3.06167e-07
-0.00113574
-1.28566e-06
-8.81899e-10
8.30977e-09
0.00113574
-3.12458e-07
1.29133e-06
3.08119e-07
9.7294e-07
-3.15833e-07
-9.72477e-07
3.08898e-07
-0.000276002
1.32076e-06
1.28606e-06
-2.69788e-07
-2.75153e-07
0.00027394
-1.41387e-09
3.0671e-10
-0.00114645
-6.79755e-10
-1.49534e-09
0.00114645
-0.00113607
-1.29173e-06
-3.53926e-09
9.12696e-09
0.00113607
-3.12749e-07
1.29666e-06
3.07572e-07
9.73367e-07
-3.12887e-07
-9.72593e-07
3.0622e-07
-0.00113573
-1.28647e-06
8.37029e-10
9.89567e-09
0.00113573
-3.12817e-07
1.29075e-06
3.07632e-07
9.72602e-07
-3.16509e-07
-9.72948e-07
3.08257e-07
-0.000276001
1.32033e-06
1.28572e-06
-2.69726e-07
-2.7492e-07
0.000273939
-9.77872e-10
-8.54585e-10
-0.00114645
2.32872e-10
-1.51952e-09
0.00114645
-0.00113607
-1.2915e-06
-4.22249e-09
8.57856e-09
0.00113607
-3.12853e-07
1.2971e-06
3.07824e-07
9.73683e-07
-3.12827e-07
-9.72361e-07
3.06572e-07
-0.00113572
-1.28665e-06
-5.21557e-10
1.10102e-08
0.00113572
-3.12922e-07
1.2905e-06
3.07675e-07
9.73055e-07
-3.16029e-07
-9.72463e-07
3.08665e-07
-0.000276003
1.3204e-06
1.28592e-06
-2.69899e-07
-2.75256e-07
0.000273942
-2.19284e-10
-2.22218e-09
-0.00114645
8.70517e-10
-2.08922e-09
0.00114646
-0.00113608
-1.29169e-06
-2.02723e-09
6.70127e-09
0.00113608
-3.1228e-07
1.29689e-06
3.0836e-07
9.73295e-07
-3.13651e-07
-9.72971e-07
3.05548e-07
-0.00113571
-1.28689e-06
-9.95222e-10
1.11955e-08
0.00113571
-3.13044e-07
1.29045e-06
3.07543e-07
9.73025e-07
-3.16151e-07
-9.72533e-07
3.08622e-07
-0.000276007
1.32001e-06
1.28613e-06
-2.69453e-07
-2.75414e-07
0.000273946
5.05338e-10
-2.42809e-09
-0.00114646
6.37798e-10
-2.43969e-09
0.00114646
-0.00113608
-1.29185e-06
-8.92351e-10
7.83438e-09
0.00113609
-3.12492e-07
1.29668e-06
3.08384e-07
9.72693e-07
-3.14538e-07
-9.7382e-07
3.05131e-07
-0.00113571
-1.28731e-06
-9.4117e-10
1.1588e-08
0.00113571
-3.1357e-07
1.29034e-06
3.07252e-07
9.72769e-07
-3.16202e-07
-9.72682e-07
3.08524e-07
-0.000276012
1.32035e-06
1.28577e-06
-2.6968e-07
-2.75403e-07
0.000273951
1.42705e-09
-1.67226e-09
-0.00114646
-2.66511e-10
-2.77197e-09
0.00114646
-0.00113609
-1.29157e-06
-1.66676e-09
6.71835e-09
0.0011361
-3.11832e-07
1.29711e-06
3.09371e-07
9.7263e-07
-3.14324e-07
-9.73626e-07
3.05182e-07
-0.00113571
-1.286e-06
-5.085e-10
8.57644e-09
0.00113571
-3.12286e-07
1.29174e-06
3.08877e-07
9.71618e-07
-3.17604e-07
-9.739e-07
3.07317e-07
-0.000276018
1.32005e-06
1.28522e-06
-2.69071e-07
-2.7514e-07
0.000273956
1.66559e-09
2.94789e-10
-0.00114646
-1.78923e-09
-2.93135e-09
0.00114646
-0.0011361
-1.29069e-06
-2.57353e-10
4.64144e-09
0.0011361
-3.11375e-07
1.29818e-06
3.09835e-07
9.72207e-07
-3.14878e-07
-9.73862e-07
3.04391e-07
-0.00113572
-1.28473e-06
-1.6119e-09
4.40251e-09
0.00113572
-3.11733e-07
1.29293e-06
3.09839e-07
9.71427e-07
-3.17623e-07
-9.74144e-07
3.07734e-07
-0.000276024
1.3207e-06
1.28577e-06
-2.69394e-07
-2.75968e-07
0.000273963
-2.23266e-11
1.47356e-09
-0.00114646
-2.64748e-09
-1.76341e-09
0.00114646
-0.0011361
-1.29113e-06
-1.77889e-09
6.42144e-09
0.0011361
-3.11511e-07
1.29754e-06
3.09307e-07
9.7254e-07
-3.14282e-07
-9.7328e-07
3.04755e-07
-0.00113573
-1.2845e-06
-2.11977e-09
3.47513e-09
0.00113573
-3.1086e-07
1.29322e-06
3.10487e-07
9.71535e-07
-3.17539e-07
-9.73792e-07
3.07566e-07
-0.000276029
1.32013e-06
1.28594e-06
-2.70053e-07
-2.74822e-07
0.000273968
6.73578e-10
1.19278e-09
-0.00114646
-2.70789e-09
-1.83189e-09
0.00114646
-0.0011361
-1.29109e-06
-2.29942e-09
7.38285e-09
0.0011361
-3.1165e-07
1.29748e-06
3.09243e-07
9.72404e-07
-3.13721e-07
-9.72843e-07
3.04778e-07
-0.00113574
-1.28521e-06
-1.41306e-09
5.28209e-09
0.00113574
-3.11416e-07
1.29236e-06
3.09878e-07
9.71401e-07
-3.17731e-07
-9.73672e-07
3.07043e-07
-0.000276034
1.32042e-06
1.28592e-06
-2.70039e-07
-2.7499e-07
0.000273973
1.156e-09
1.32864e-09
-0.00114646
-2.77265e-09
-2.46922e-09
0.00114647
-0.0011361
-1.29117e-06
-2.01879e-09
7.62907e-09
0.0011361
-3.11263e-07
1.29727e-06
3.09378e-07
9.71808e-07
-3.13782e-07
-9.72879e-07
3.04129e-07
-0.00113575
-1.28535e-06
-2.67611e-09
4.69505e-09
0.00113575
-3.11329e-07
1.29216e-06
3.0981e-07
9.7133e-07
-3.17054e-07
-9.73218e-07
3.0725e-07
-0.00027604
1.32006e-06
1.28587e-06
-2.7033e-07
-2.74366e-07
0.000273979
1.34112e-09
3.07721e-09
-0.00114646
-3.6682e-09
-2.39843e-09
0.00114647
-0.0011361
-1.29105e-06
-2.98101e-09
7.04405e-09
0.00113611
-3.11382e-07
1.29687e-06
3.08659e-07
9.71352e-07
-3.12487e-07
-9.72119e-07
3.04212e-07
-0.00113576
-1.28468e-06
-3.30738e-09
3.43867e-09
0.00113576
-3.109e-07
1.29223e-06
3.0969e-07
9.7112e-07
-3.16029e-07
-9.72286e-07
3.06964e-07
-0.000276047
1.32015e-06
1.28531e-06
-2.69183e-07
-2.75105e-07
0.000273986
1.03333e-09
5.77293e-09
-0.00114646
-4.24425e-09
-2.83429e-09
0.00114646
-0.00113611
-1.29049e-06
-4.48238e-09
6.80318e-09
0.00113611
-3.11156e-07
1.29675e-06
3.08305e-07
9.70141e-07
-3.11019e-07
-9.71283e-07
3.03629e-07
-0.00113577
-1.28457e-06
-4.4749e-09
4.16769e-09
0.00113577
-3.10886e-07
1.29141e-06
3.08841e-07
9.70782e-07
-3.14428e-07
-9.70818e-07
3.06494e-07
-0.000276054
1.31963e-06
1.28463e-06
-2.6788e-07
-2.74744e-07
0.000273993
3.35211e-09
4.99317e-09
-0.00114646
-3.79786e-09
-2.88222e-09
0.00114646
-0.00113611
-1.28892e-06
-7.63245e-09
5.30967e-09
0.00113611
-3.0971e-07
1.29647e-06
3.08364e-07
9.69377e-07
-3.09249e-07
-9.69136e-07
3.02102e-07
-0.00113577
-1.28403e-06
-6.86458e-09
5.10568e-09
0.00113577
-3.09816e-07
1.29025e-06
3.08154e-07
9.69838e-07
-3.11987e-07
-9.68585e-07
3.05393e-07
-0.000276059
1.31927e-06
1.28426e-06
-2.6768e-07
-2.7338e-07
0.000273997
3.00179e-09
4.87919e-09
-0.00114645
-2.93197e-09
-2.27457e-09
0.00114645
-0.00113611
-1.28803e-06
-9.63561e-09
7.04669e-09
0.00113611
-3.0922e-07
1.29434e-06
3.05417e-07
9.67681e-07
-3.05389e-07
-9.65353e-07
2.99398e-07
-0.00113577
-1.28276e-06
-1.02248e-08
7.01446e-09
0.00113577
-3.08949e-07
1.28839e-06
3.06161e-07
9.68109e-07
-3.08247e-07
-9.64964e-07
3.02726e-07
-0.00027606
1.31631e-06
1.28255e-06
-2.65875e-07
-2.69706e-07
0.000273997
4.52285e-09
6.74677e-09
-0.00114645
-3.89155e-09
-2.81895e-09
0.00114644
-0.00113611
-1.28565e-06
-8.91614e-09
8.02409e-09
0.00113611
-3.06157e-07
1.2906e-06
3.02223e-07
9.62779e-07
-2.99583e-07
-9.61282e-07
2.93045e-07
-0.00113577
-1.28042e-06
-1.36016e-08
6.63134e-09
0.00113577
-3.06453e-07
1.28477e-06
3.02099e-07
9.63921e-07
-3.01112e-07
-9.6004e-07
2.97822e-07
-0.00027606
1.31265e-06
1.27985e-06
-2.62013e-07
-2.65648e-07
0.000273996
4.18815e-09
8.95508e-09
-0.00114645
-4.96889e-09
-3.06416e-09
0.00114644
-0.00113611
-1.28023e-06
-9.32439e-09
9.00481e-09
0.00113612
-2.9977e-07
1.28407e-06
2.94392e-07
9.54997e-07
-2.8836e-07
-9.53841e-07
2.81319e-07
-0.00113577
-1.2735e-06
-1.4857e-08
5.4018e-09
0.00113578
-2.986e-07
1.27961e-06
2.95875e-07
9.55472e-07
-2.90189e-07
-9.5291e-07
2.85415e-07
-0.000276059
1.30782e-06
1.27468e-06
-2.55342e-07
-2.59551e-07
0.000273991
8.29911e-09
1.12207e-08
-0.00114645
-6.45228e-09
-5.21118e-09
0.00114644
-0.00113612
-1.26755e-06
-1.38525e-08
9.51052e-09
0.00113613
-2.84182e-07
1.27317e-06
2.79963e-07
9.41804e-07
-2.66159e-07
-9.40243e-07
2.59127e-07
-0.00113578
-1.26167e-06
-1.42021e-08
8.51328e-09
0.00113579
-2.83921e-07
1.26804e-06
2.80531e-07
9.4126e-07
-2.68784e-07
-9.40124e-07
2.62118e-07
-0.000276054
1.29763e-06
1.26396e-06
-2.42927e-07
-2.47164e-07
0.000273983
3.46878e-08
3.48922e-08
-0.00114646
-1.75312e-08
-2.23514e-08
0.00114643
-0.00113612
-1.24687e-06
-2.99188e-08
4.44768e-09
0.00113615
-2.52864e-07
1.25276e-06
2.52546e-07
9.21014e-07
-2.2692e-07
-9.17327e-07
2.20662e-07
-0.0011358
-1.23834e-06
-3.46047e-08
1.07623e-08
0.00113582
-2.53016e-07
1.24489e-06
2.49622e-07
9.17741e-07
-2.27309e-07
-9.14879e-07
2.23454e-07
-0.000276057
1.28049e-06
1.24332e-06
-2.15466e-07
-2.21269e-07
0.00027397
9.52814e-07
9.59772e-07
-0.00114636
-7.93857e-07
-7.82654e-07
0.00114602
-0.00113643
-1.13041e-06
-9.50293e-07
-3.94109e-07
0.00113685
-1.22858e-07
1.39884e-06
3.02954e-07
1.03106e-06
-7.46404e-08
-7.74326e-07
2.90963e-07
-0.0011361
-1.12193e-06
-9.63058e-07
-4.04498e-07
0.00113654
-1.22846e-07
1.39345e-06
3.05323e-07
1.0293e-06
-8.01115e-08
-7.69516e-07
2.94231e-07
-0.000276141
1.1655e-06
1.12283e-06
-9.75296e-08
-1.01073e-07
0.000274051
5.30906e-06
5.30189e-06
-0.00113214
-1.12139e-05
-1.11114e-05
0.000274877
0.000278306
0.00027742
0.00027742
4.29928e-06
6.65198e-06
6.96288e-06
4.30308e-06
6.65261e-06
6.9662e-06
-0.000281258
5.37012e-06
-5.29771e-06
6.02773e-06
-3.41278e-06
0.000278571
-0.000281235
-5.29953e-06
5.37575e-06
-3.42111e-06
6.02415e-06
0.000278556
-0.000276827
-5.36689e-06
-5.37792e-06
5.88925e-06
5.87688e-06
0.000275806
-1.33044e-06
-1.2937e-06
0.000276047
-0.000273975
2.72729e-07
2.79966e-07
0.00113529
-3.70937e-09
-0.00113529
9.05815e-09
-1.3266e-06
3.13651e-07
-3.18771e-07
-9.71825e-07
3.07044e-07
-3.1321e-07
9.74474e-07
1.33571e-06
0.00113571
-3.40506e-09
-0.00113571
1.05427e-08
-1.33213e-06
3.15429e-07
-3.22219e-07
-9.77221e-07
3.09779e-07
-3.15367e-07
9.79671e-07
-1.29585e-06
0.000276064
-0.000273984
2.74636e-07
2.77214e-07
0.00113636
-1.86493e-09
-0.00113636
8.4086e-09
-1.28881e-06
3.10888e-07
-3.15515e-07
-9.74904e-07
3.09266e-07
-3.15488e-07
9.7617e-07
1.33028e-06
0.00113535
-3.74854e-09
-0.00113535
8.88586e-09
-1.32655e-06
3.16604e-07
-3.20591e-07
-9.7502e-07
3.09243e-07
-3.15216e-07
9.76459e-07
-1.88464e-09
-0.00113607
8.62356e-09
-1.2916e-06
3.07588e-07
-3.12723e-07
-9.72509e-07
3.0568e-07
9.73222e-07
-3.13252e-07
1.32507e-06
0.00113514
-1.98785e-09
-0.00113514
9.29045e-09
-1.32024e-06
3.10402e-07
-3.15021e-07
-9.72217e-07
3.05921e-07
-3.13036e-07
9.73226e-07
-1.29091e-06
0.000276014
-0.000273946
2.73381e-07
2.79332e-07
-2.3329e-09
-0.00113575
8.26887e-09
-1.28564e-06
3.08129e-07
-3.12867e-07
-9.72029e-07
3.09244e-07
9.73645e-07
-3.16073e-07
1.29066e-06
0.00113624
-1.85077e-09
-0.00113624
9.79887e-09
-1.28584e-06
3.07962e-07
-3.12382e-07
-9.72907e-07
3.08789e-07
-3.16163e-07
9.73191e-07
-0.000273947
2.74587e-07
2.80141e-07
1.32687e-06
1.28914e-06
-2.66544e-07
-2.75488e-07
0.000273973
-1.33099e-06
-1.29317e-06
0.000276039
-0.000273968
2.71517e-07
2.81446e-07
8.50749e-09
0.00113529
-3.18615e-07
1.33052e-06
3.13511e-07
9.7451e-07
-3.12854e-07
-9.71706e-07
3.07027e-07
-1.33241e-06
-6.00424e-10
9.64578e-09
0.0011357
-3.21897e-07
1.33595e-06
3.15573e-07
9.79536e-07
-3.15248e-07
-9.77285e-07
3.09462e-07
0.00113528
-2.27842e-09
-0.00113528
9.43136e-09
-1.3263e-06
3.13224e-07
-3.19263e-07
-9.72256e-07
3.06587e-07
-3.13453e-07
9.73831e-07
1.3363e-06
0.0011357
-1.28e-09
-0.0011357
9.50227e-09
-1.33151e-06
3.16286e-07
-3.21539e-07
-9.78099e-07
3.08894e-07
-3.16276e-07
9.78742e-07
-2.70603e-07
-2.71987e-07
0.000273982
-1.29557e-06
0.000276057
-0.000273978
2.74487e-07
2.77823e-07
7.80222e-09
0.00113635
-3.1534e-07
1.29381e-06
3.1087e-07
9.75983e-07
-3.155e-07
-9.75107e-07
3.08972e-07
-1.32665e-06
-1.11806e-09
7.51571e-09
0.00113535
-3.20322e-07
1.33076e-06
3.16631e-07
9.76198e-07
-3.15139e-07
-9.75112e-07
3.08924e-07
0.00113635
-1.25403e-09
-0.00113635
8.29568e-09
-1.28913e-06
3.11198e-07
-3.15315e-07
-9.7537e-07
3.08977e-07
-3.1599e-07
9.75738e-07
1.33042e-06
0.00113534
-1.98057e-09
-0.00113534
8.49922e-09
-1.32637e-06
3.16538e-07
-3.2083e-07
-9.75614e-07
3.08469e-07
-3.16187e-07
9.76007e-07
-9.30502e-11
9.12398e-09
0.00113514
-3.14858e-07
1.32487e-06
3.10659e-07
9.73067e-07
-3.12857e-07
3.05917e-07
-9.72182e-07
-3.12465e-09
-0.00113607
8.87694e-09
-1.29225e-06
3.07625e-07
-3.12775e-07
-9.72457e-07
3.05847e-07
9.73136e-07
-3.1313e-07
1.32498e-06
0.00113514
-1.48707e-09
-0.00113514
1.03718e-08
-1.32054e-06
3.09937e-07
-3.15737e-07
-9.72803e-07
3.05522e-07
-3.13616e-07
9.72618e-07
-2.65866e-07
-2.75361e-07
0.000273943
-1.29101e-06
0.000276008
-0.000273939
2.73481e-07
2.79317e-07
-2.35755e-10
9.2559e-09
0.00113623
-3.12284e-07
1.29043e-06
3.07927e-07
9.73532e-07
-3.15845e-07
3.08809e-07
-9.72504e-07
-1.70174e-09
-0.00113574
9.24035e-09
-1.2857e-06
3.07721e-07
-3.13165e-07
-9.72411e-07
3.08739e-07
9.72968e-07
-3.16164e-07
1.29059e-06
0.00113623
-1.23065e-09
-0.00113623
8.84067e-09
-1.28601e-06
3.07668e-07
-3.1322e-07
-9.72796e-07
3.08858e-07
-3.16397e-07
9.73085e-07
-0.000273941
2.74333e-07
2.79993e-07
1.32584e-06
1.28947e-06
-2.67819e-07
-2.73839e-07
0.000273966
-1.33153e-06
-1.29295e-06
0.000276035
-0.000273964
2.7096e-07
2.819e-07
8.28695e-09
0.00113528
-3.18666e-07
1.3318e-06
3.13543e-07
9.73681e-07
-3.13238e-07
-9.72354e-07
3.06402e-07
-1.33155e-06
-1.70149e-10
7.63826e-09
0.0011357
-3.20899e-07
1.33688e-06
3.16541e-07
9.78686e-07
-3.15975e-07
-9.78112e-07
3.08856e-07
0.00113528
2.65538e-10
-0.00113528
9.54174e-09
-1.32533e-06
3.1363e-07
-3.18786e-07
-9.73818e-07
3.05567e-07
-3.14562e-07
9.72781e-07
1.33689e-06
0.0011357
2.94685e-12
-0.0011357
7.39279e-09
-1.33106e-06
3.16946e-07
-3.21118e-07
-9.79539e-07
3.08098e-07
-3.17264e-07
9.77537e-07
-2.70069e-07
-2.7173e-07
0.000273976
-1.29617e-06
0.000276056
-0.000273976
2.75307e-07
2.77539e-07
7.26961e-09
0.00113635
-3.15265e-07
1.29361e-06
3.11265e-07
9.76199e-07
-3.15768e-07
-9.75049e-07
3.09181e-07
-1.3266e-06
-3.30968e-10
8.07113e-09
0.00113534
-3.20566e-07
1.33099e-06
3.16693e-07
9.76305e-07
-3.15874e-07
-9.75386e-07
3.08631e-07
0.00113635
-2.43345e-09
-0.00113635
7.93831e-09
-1.28961e-06
3.11051e-07
-3.15866e-07
-9.75199e-07
3.09297e-07
-3.16143e-07
9.76041e-07
1.32993e-06
0.00113534
-7.79359e-10
-0.00113534
1.11773e-08
-1.32694e-06
3.15953e-07
-3.2183e-07
-9.75684e-07
3.08484e-07
-3.166e-07
9.76176e-07
-8.52245e-10
9.52189e-09
0.00113513
-3.15252e-07
1.32541e-06
3.10488e-07
9.72998e-07
-3.12964e-07
3.05987e-07
-9.72445e-07
-4.04619e-09
-0.00113607
1.02756e-08
-1.29155e-06
3.0732e-07
-3.13286e-07
-9.73013e-07
3.05744e-07
9.7283e-07
-3.13509e-07
1.3256e-06
0.00113514
-3.82784e-09
-0.00113513
1.03243e-08
-1.32028e-06
3.09331e-07
-3.16496e-07
-9.72496e-07
3.06098e-07
-3.13185e-07
9.72998e-07
-2.65991e-07
-2.75435e-07
0.000273937
-1.29024e-06
0.000276003
-0.000273935
2.72629e-07
2.78989e-07
-2.47078e-10
7.27202e-09
0.00113623
-3.12328e-07
1.29096e-06
3.08516e-07
9.73154e-07
-3.15727e-07
3.09177e-07
-9.72604e-07
3.1619e-10
-0.00113573
1.0816e-08
-1.28622e-06
3.07563e-07
-3.13273e-07
-9.73151e-07
3.07959e-07
9.72352e-07
-3.16965e-07
1.29131e-06
0.00113623
-1.95158e-10
-0.00113623
6.57088e-09
-1.28549e-06
3.08193e-07
-3.12851e-07
-9.73544e-07
3.0852e-07
-3.16897e-07
9.72402e-07
-0.000273939
2.74582e-07
2.8066e-07
1.32564e-06
1.28969e-06
-2.68179e-07
-2.73686e-07
0.000273962
-1.33078e-06
-1.29354e-06
0.000276032
-0.00027396
2.71602e-07
2.81089e-07
8.79791e-09
0.00113527
-3.18229e-07
1.33178e-06
3.13827e-07
9.72958e-07
-3.14159e-07
-9.73233e-07
3.05445e-07
-1.33116e-06
1.04883e-09
5.8692e-09
0.0011357
-3.20214e-07
1.33733e-06
3.17543e-07
9.77737e-07
-3.16969e-07
-9.79379e-07
3.08209e-07
0.00113527
-1.43296e-10
-0.00113527
1.06986e-08
-1.3262e-06
3.12968e-07
-3.19161e-07
-9.73458e-07
3.05605e-07
-3.14386e-07
9.73039e-07
1.33699e-06
0.00113571
-2.5251e-10
-0.0011357
6.55065e-09
-1.33119e-06
3.17221e-07
-3.20915e-07
-9.79665e-07
3.08129e-07
-3.17541e-07
9.77645e-07
-2.69595e-07
-2.72053e-07
0.000273975
-1.29645e-06
0.000276057
-0.000273976
2.75587e-07
2.77436e-07
7.16712e-09
0.00113635
-3.15456e-07
1.29349e-06
3.11096e-07
9.76311e-07
-3.15618e-07
-9.74961e-07
3.09453e-07
-1.3269e-06
3.13548e-10
9.5474e-09
0.00113534
-3.21043e-07
1.33052e-06
3.16395e-07
9.76318e-07
-3.15988e-07
-9.75329e-07
3.08648e-07
0.00113635
-7.16174e-10
-0.00113635
7.26297e-09
-1.28918e-06
3.11023e-07
-3.1619e-07
-9.75495e-07
3.09315e-07
-3.16242e-07
9.75762e-07
1.33037e-06
0.00113534
4.62333e-10
-0.00113534
9.16111e-09
-1.32663e-06
3.16628e-07
-3.21321e-07
-9.76343e-07
3.08038e-07
-3.1704e-07
9.7549e-07
-2.77412e-09
9.64606e-09
0.00113514
-3.16035e-07
1.32588e-06
3.09792e-07
9.73394e-07
-3.12442e-07
3.06581e-07
-9.72002e-07
-4.97628e-09
-0.00113607
1.00465e-08
-1.29134e-06
3.07223e-07
-3.13445e-07
-9.72559e-07
3.05998e-07
9.73379e-07
-3.13287e-07
1.32574e-06
0.00113514
-4.6043e-09
-0.00113514
1.01621e-08
-1.3202e-06
3.09676e-07
-3.16375e-07
-9.72312e-07
3.06098e-07
-3.13144e-07
9.73084e-07
-2.6664e-07
-2.75831e-07
0.000273932
-1.29013e-06
0.000275998
-0.00027393
2.72556e-07
2.79303e-07
3.1514e-10
5.42771e-09
0.00113623
-3.12496e-07
1.29159e-06
3.0875e-07
9.7275e-07
-3.16542e-07
3.08833e-07
-9.73256e-07
-5.83821e-10
-0.00113572
1.22643e-08
-1.28638e-06
3.07236e-07
-3.13457e-07
-9.72775e-07
3.08221e-07
9.72712e-07
-3.16553e-07
1.29126e-06
0.00113624
-1.48425e-09
-0.00113624
6.02068e-09
-1.28591e-06
3.08341e-07
-3.12945e-07
-9.73454e-07
3.08509e-07
-3.17105e-07
9.72617e-07
-0.000273941
2.74548e-07
2.80403e-07
1.3262e-06
1.28906e-06
-2.67755e-07
-2.74215e-07
0.000273959
-1.33097e-06
-1.29409e-06
0.000276032
-0.000273959
2.7168e-07
2.81204e-07
9.79444e-09
0.00113527
-3.18931e-07
1.33156e-06
3.1333e-07
9.73462e-07
-3.13976e-07
-9.73057e-07
3.05856e-07
-1.33109e-06
2.05477e-10
5.34518e-09
0.00113571
-3.2026e-07
1.33757e-06
3.17367e-07
9.78107e-07
-3.16851e-07
-9.79229e-07
3.08473e-07
0.00113527
-9.52986e-10
-0.00113527
1.18038e-08
-1.32628e-06
3.1283e-07
-3.19597e-07
-9.73285e-07
3.05491e-07
-3.14496e-07
9.73088e-07
1.33681e-06
0.00113571
-1.76186e-09
-0.00113571
7.75228e-09
-1.33114e-06
3.16338e-07
-3.21701e-07
-9.78856e-07
3.08651e-07
-3.16975e-07
9.78686e-07
-2.69448e-07
-2.7206e-07
0.000273976
-1.29645e-06
0.000276058
-0.000273978
2.74977e-07
2.7783e-07
5.5324e-09
0.00113635
-3.15385e-07
1.29404e-06
3.11481e-07
9.75761e-07
-3.15927e-07
-9.75421e-07
3.09088e-07
-1.32665e-06
1.84173e-09
7.54056e-09
0.00113534
-3.20337e-07
1.331e-06
3.17616e-07
9.7559e-07
-3.16732e-07
-9.76195e-07
3.08185e-07
0.00113636
9.50471e-10
-0.00113635
5.99992e-09
-1.28875e-06
3.11819e-07
-3.15487e-07
-9.767e-07
3.08152e-07
-3.17329e-07
9.74593e-07
1.33102e-06
0.00113534
2.18204e-09
-0.00113534
8.36226e-09
-1.32613e-06
3.1754e-07
-3.20566e-07
-9.77188e-07
3.07278e-07
-3.17957e-07
9.74775e-07
-2.97818e-09
8.77102e-09
0.00113514
-3.15623e-07
1.32617e-06
3.10385e-07
9.73283e-07
-3.12636e-07
3.06429e-07
-9.72092e-07
-2.41753e-09
-0.00113607
8.12872e-09
-1.2914e-06
3.07947e-07
-3.13001e-07
-9.73215e-07
3.05541e-07
9.72936e-07
-3.13929e-07
1.32629e-06
0.00113514
-2.5717e-09
-0.00113514
7.92507e-09
-1.31991e-06
3.11327e-07
-3.15174e-07
-9.73461e-07
3.05243e-07
-3.14217e-07
9.72008e-07
-2.66801e-07
-2.75743e-07
0.000273928
-1.28999e-06
0.000275994
-0.000273925
2.72489e-07
2.79781e-07
-9.77243e-10
4.93972e-09
0.00113624
-3.12289e-07
1.29178e-06
3.09059e-07
9.73137e-07
-3.16384e-07
3.09072e-07
-9.72941e-07
-1.33233e-09
-0.00113571
1.22591e-08
-1.28669e-06
3.07365e-07
-3.13502e-07
-9.72742e-07
3.08298e-07
9.7278e-07
-3.16514e-07
1.29145e-06
0.00113625
-3.18108e-09
-0.00113625
5.84146e-09
-1.28579e-06
3.08737e-07
-3.12688e-07
-9.73249e-07
3.08785e-07
-3.1693e-07
9.72864e-07
-0.000273945
2.75027e-07
2.80416e-07
1.32624e-06
1.28875e-06
-2.67701e-07
-2.74451e-07
0.000273959
-1.3304e-06
-1.29457e-06
0.000276034
-0.000273961
2.72397e-07
2.80267e-07
1.0687e-08
0.00113527
-3.18945e-07
1.3314e-06
3.1346e-07
9.73343e-07
-3.1414e-07
-9.73179e-07
3.05674e-07
-1.3317e-06
-7.55742e-10
7.43237e-09
0.00113571
-3.21171e-07
1.33687e-06
3.16415e-07
9.79371e-07
-3.16402e-07
-9.7824e-07
3.08823e-07
0.00113527
-1.79367e-09
-0.00113527
1.1622e-08
-1.32676e-06
3.13573e-07
-3.19001e-07
-9.73605e-07
3.05474e-07
-3.14592e-07
9.72961e-07
1.33641e-06
0.00113571
-8.52435e-10
-0.00113571
1.0396e-08
-1.33187e-06
3.15788e-07
-3.22237e-07
-9.79015e-07
3.08262e-07
-3.17235e-07
9.78369e-07
-2.70072e-07
-2.71994e-07
0.000273977
-1.29624e-06
0.000276059
-0.000273978
2.74479e-07
2.77679e-07
4.5596e-09
0.00113636
-3.14798e-07
1.29471e-06
3.12324e-07
9.74689e-07
-3.17242e-07
-9.76677e-07
3.0795e-07
-1.32594e-06
3.04801e-09
7.1489e-09
0.00113534
-3.19759e-07
1.33167e-06
3.17983e-07
9.74807e-07
-3.1774e-07
-9.7705e-07
3.07169e-07
0.00113636
1.55947e-09
-0.00113636
5.45491e-09
-1.28826e-06
3.12548e-07
-3.14839e-07
-9.77079e-07
3.07589e-07
-3.18001e-07
9.74426e-07
1.3311e-06
0.00113534
3.53321e-09
-0.00113534
9.29721e-09
-1.32612e-06
3.17467e-07
-3.20665e-07
-9.77859e-07
3.06566e-07
-3.18956e-07
9.74179e-07
-1.21994e-09
6.26063e-09
0.00113514
-3.14024e-07
1.32656e-06
3.12544e-07
9.72041e-07
-3.13792e-07
3.05452e-07
-9.73426e-07
-1.14676e-09
-0.00113608
9.02523e-09
-1.29179e-06
3.08101e-07
-3.12922e-07
-9.74149e-07
3.04643e-07
9.72351e-07
-3.15161e-07
1.32622e-06
0.00113515
-1.1315e-09
-0.00113514
7.19553e-09
-1.32023e-06
3.11736e-07
-3.14855e-07
-9.74293e-07
3.04659e-07
-3.15114e-07
9.71525e-07
-2.67068e-07
-2.75174e-07
0.000273924
-1.28954e-06
0.000275993
-0.000273924
2.71661e-07
2.79781e-07
-1.91011e-09
5.13168e-09
0.00113625
-3.12228e-07
1.29182e-06
3.09247e-07
9.73226e-07
-3.16284e-07
3.09172e-07
-9.72861e-07
-1.27392e-09
-0.00113571
1.34711e-08
-1.28736e-06
3.06907e-07
-3.14144e-07
-9.72809e-07
3.0834e-07
9.72748e-07
-3.16741e-07
1.29192e-06
0.00113626
-3.22962e-09
-0.00113626
6.89691e-09
-1.28573e-06
3.08367e-07
-3.13249e-07
-9.73235e-07
3.08745e-07
-3.16878e-07
9.7285e-07
-0.000273949
2.75277e-07
2.80384e-07
1.32698e-06
1.28847e-06
-2.67112e-07
-2.75376e-07
0.000273961
-1.33043e-06
-1.29506e-06
0.000276035
-0.000273963
2.73463e-07
2.79629e-07
1.00908e-08
0.00113527
-3.18474e-07
1.33102e-06
3.13957e-07
9.73336e-07
-3.14191e-07
-9.73297e-07
3.05702e-07
-1.33168e-06
-5.80908e-11
9.37186e-09
0.00113571
-3.21769e-07
1.33711e-06
3.16101e-07
9.78447e-07
-3.16844e-07
-9.78925e-07
3.08351e-07
0.00113527
-2.96716e-09
-0.00113527
1.1166e-08
-1.3268e-06
3.13983e-07
-3.18551e-07
-9.73539e-07
3.05677e-07
-3.1433e-07
9.72846e-07
1.33641e-06
0.00113572
-1.89856e-09
-0.00113572
1.04357e-08
-1.33163e-06
3.16203e-07
-3.2218e-07
-9.79053e-07
3.08302e-07
-3.17341e-07
9.78741e-07
-2.70578e-07
-2.7171e-07
0.000273978
-1.29636e-06
0.000276061
-0.00027398
2.74793e-07
2.77441e-07
4.48452e-09
0.00113636
-3.14163e-07
1.29492e-06
3.12757e-07
9.74838e-07
-3.17514e-07
-9.76646e-07
3.07674e-07
-1.32612e-06
4.26183e-09
8.28005e-09
0.00113534
-3.20295e-07
1.33196e-06
3.17664e-07
9.74349e-07
-3.18445e-07
-9.77506e-07
3.06689e-07
0.00113637
1.00124e-09
-0.00113636
6.16538e-09
-1.28785e-06
3.12534e-07
-3.14715e-07
-9.76763e-07
3.07312e-07
-3.18092e-07
9.74601e-07
1.33132e-06
0.00113534
2.35581e-09
-0.00113534
9.22145e-09
-1.32616e-06
3.17928e-07
-3.20524e-07
-9.77964e-07
3.06841e-07
-3.18834e-07
9.73958e-07
-7.34153e-10
6.38568e-09
0.00113515
-3.14614e-07
1.32667e-06
3.12297e-07
9.72162e-07
-3.14506e-07
3.05254e-07
-9.73828e-07
-1.81373e-09
-0.00113609
8.86407e-09
-1.29177e-06
3.08444e-07
-3.12872e-07
-9.73965e-07
3.04788e-07
9.72385e-07
-3.14817e-07
1.32663e-06
0.00113516
-3.81328e-09
-0.00113516
7.69042e-09
-1.31995e-06
3.12192e-07
-3.14866e-07
-9.73485e-07
3.04756e-07
-3.15138e-07
9.72361e-07
-2.67974e-07
-2.75225e-07
0.000273923
-1.29076e-06
0.000275995
-0.000273926
2.72535e-07
2.79831e-07
-1.90235e-09
5.69715e-09
0.00113626
-3.12749e-07
1.29232e-06
3.08979e-07
9.73102e-07
-3.16322e-07
3.09082e-07
-9.72911e-07
-4.51236e-10
-0.00113571
1.1367e-08
-1.28651e-06
3.08351e-07
-3.13005e-07
-9.73756e-07
3.07299e-07
9.71584e-07
-3.17591e-07
1.29251e-06
0.00113627
-1.96575e-09
-0.00113627
5.26396e-09
-1.28521e-06
3.09396e-07
-3.12378e-07
-9.73664e-07
3.08054e-07
-3.17425e-07
9.723e-07
-0.000273955
2.75768e-07
2.80876e-07
1.32696e-06
1.28815e-06
-2.66113e-07
-2.75981e-07
0.000273962
-1.33106e-06
-1.29449e-06
0.000276037
-0.000273964
2.7322e-07
2.79936e-07
1.00409e-08
0.00113527
-3.18052e-07
1.33098e-06
3.14341e-07
9.73237e-07
-3.13704e-07
-9.73162e-07
3.0608e-07
-1.33207e-06
-1.46324e-09
9.08595e-09
0.00113572
-3.21283e-07
1.33679e-06
3.16843e-07
9.79387e-07
-3.16631e-07
-9.7804e-07
3.08458e-07
0.00113527
-3.35041e-09
-0.00113527
1.01928e-08
-1.3261e-06
3.14503e-07
-3.18239e-07
-9.73402e-07
3.05735e-07
-3.14016e-07
9.72618e-07
1.33673e-06
0.00113572
-5.07838e-09
-0.00113572
9.93781e-09
-1.33182e-06
3.16673e-07
-3.21877e-07
-9.7814e-07
3.08611e-07
-3.16828e-07
9.7913e-07
-2.69974e-07
-2.72484e-07
0.000273979
-1.2978e-06
0.000276063
-0.000273982
2.76412e-07
2.77241e-07
5.33553e-09
0.00113636
-3.14091e-07
1.2951e-06
3.12688e-07
9.75112e-07
-3.17433e-07
-9.76291e-07
3.07654e-07
-1.32603e-06
2.351e-09
7.49503e-09
0.00113534
-3.20157e-07
1.33205e-06
3.18266e-07
9.74174e-07
-3.18386e-07
-9.7758e-07
3.07202e-07
0.00113636
-7.81365e-10
-0.00113636
6.64583e-09
-1.28827e-06
3.12139e-07
-3.14885e-07
-9.7594e-07
3.07837e-07
-3.17259e-07
9.75178e-07
1.3322e-06
0.00113535
-1.35677e-09
-0.00113535
7.46806e-09
-1.32535e-06
3.17205e-07
-3.21562e-07
-9.77385e-07
3.08096e-07
-3.1784e-07
9.74148e-07
-2.64467e-09
6.66712e-09
0.00113516
-3.14347e-07
1.32686e-06
3.12585e-07
9.72783e-07
-3.14438e-07
3.05252e-07
-9.73008e-07
-4.81161e-10
-0.0011361
6.16161e-09
-1.29047e-06
3.09392e-07
-3.1194e-07
-9.7419e-07
3.04119e-07
9.71873e-07
-3.15121e-07
1.32617e-06
0.00113517
-1.83862e-09
-0.00113516
8.04628e-09
-1.32038e-06
3.12517e-07
-3.14748e-07
-9.73767e-07
3.04523e-07
-3.15314e-07
9.7183e-07
-2.67112e-07
-2.75323e-07
0.000273926
-1.29255e-06
0.000276004
-0.000273933
2.7345e-07
2.80633e-07
-8.56823e-10
4.14205e-09
0.00113627
-3.11846e-07
1.29284e-06
3.09771e-07
9.72601e-07
-3.16921e-07
3.08357e-07
-9.73323e-07
-1.58121e-09
-0.00113571
6.38877e-09
-1.28451e-06
3.09013e-07
-3.12337e-07
-9.74289e-07
3.07091e-07
9.71127e-07
-3.17998e-07
1.2922e-06
0.00113627
-4.75053e-10
-0.00113627
6.87756e-09
-1.28535e-06
3.09107e-07
-3.12567e-07
-9.73822e-07
3.07481e-07
-3.17809e-07
9.71925e-07
-0.000273961
2.75552e-07
2.80055e-07
1.32608e-06
1.28824e-06
-2.65922e-07
-2.75604e-07
0.000273964
-1.33149e-06
-1.29403e-06
0.00027604
-0.000273967
2.72644e-07
2.80232e-07
7.71425e-09
0.00113527
-3.17335e-07
1.33167e-06
3.15122e-07
9.72566e-07
-3.13664e-07
-9.73226e-07
3.05743e-07
-1.33181e-06
-3.71287e-09
8.26381e-09
0.00113572
-3.20957e-07
1.33718e-06
3.17212e-07
9.79293e-07
-3.16196e-07
-9.77885e-07
3.08826e-07
0.00113528
-1.09242e-09
-0.00113527
7.21516e-09
-1.32566e-06
3.15024e-07
-3.17591e-07
-9.73921e-07
3.05019e-07
-3.14496e-07
9.71812e-07
1.33691e-06
0.00113573
-2.3024e-09
-0.00113572
8.58971e-09
-1.33149e-06
3.17732e-07
-3.20729e-07
-9.79073e-07
3.0788e-07
-3.17269e-07
9.779e-07
-2.68917e-07
-2.72625e-07
0.000273982
-1.29706e-06
0.000276067
-0.000273986
2.7566e-07
2.77458e-07
5.60319e-09
0.00113636
-3.14344e-07
1.29508e-06
3.12468e-07
9.75528e-07
-3.16793e-07
-9.75589e-07
3.0801e-07
-1.3253e-06
-1.13543e-09
5.87149e-09
0.00113535
-3.20856e-07
1.33259e-06
3.1777e-07
9.74444e-07
-3.16949e-07
-9.77148e-07
3.08634e-07
0.00113637
-2.6734e-09
-0.00113636
8.50461e-09
-1.2885e-06
3.11587e-07
-3.15366e-07
-9.75565e-07
3.07958e-07
-3.16921e-07
9.7527e-07
1.33186e-06
0.00113536
-4.12567e-09
-0.00113536
6.64956e-09
-1.32544e-06
3.17809e-07
-3.21151e-07
-9.76776e-07
3.08953e-07
-3.16732e-07
9.7453e-07
-8.71263e-10
6.84336e-09
0.00113517
-3.14297e-07
1.32645e-06
3.13226e-07
9.71873e-07
-3.14814e-07
3.04713e-07
-9.73677e-07
-1.35531e-09
-0.0011361
7.44174e-09
-1.29106e-06
3.0947e-07
-3.11677e-07
-9.73796e-07
3.04319e-07
9.72031e-07
-3.14867e-07
1.32638e-06
0.00113518
-1.16758e-09
-0.00113517
7.49646e-09
-1.32007e-06
3.13174e-07
-3.1418e-07
-9.74168e-07
3.04258e-07
-3.1553e-07
9.71434e-07
-2.66552e-07
-2.74584e-07
0.000273935
-1.2926e-06
0.000276015
-0.000273945
2.73458e-07
2.80488e-07
-1.36397e-10
6.62874e-09
0.00113627
-3.12252e-07
1.29239e-06
3.09856e-07
9.72392e-07
-3.17109e-07
3.08026e-07
-9.73436e-07
-2.2604e-09
-0.00113572
5.15142e-09
-1.28454e-06
3.1004e-07
-3.1164e-07
-9.74087e-07
3.07144e-07
9.71312e-07
-3.18088e-07
1.29171e-06
0.00113628
-1.69806e-09
-0.00113627
7.79976e-09
-1.28585e-06
3.09855e-07
-3.12055e-07
-9.73364e-07
3.075e-07
-3.17658e-07
9.7215e-07
-0.000273967
2.74659e-07
2.8093e-07
1.3256e-06
1.28865e-06
-2.66529e-07
-2.75124e-07
0.000273968
-1.33114e-06
-1.29416e-06
0.000276045
-0.000273972
2.72804e-07
2.79735e-07
5.51431e-09
0.00113528
-3.17116e-07
1.33199e-06
3.15296e-07
9.72081e-07
-3.14216e-07
-9.73538e-07
3.04936e-07
-1.33129e-06
-1.17801e-09
6.56361e-09
0.00113573
-3.20072e-07
1.33759e-06
3.18043e-07
9.77991e-07
-3.17056e-07
-9.78924e-07
3.07781e-07
0.00113528
-1.00341e-09
-0.00113528
6.7526e-09
-1.32565e-06
3.14945e-07
-3.175e-07
-9.7333e-07
3.04663e-07
-3.14484e-07
9.71948e-07
1.33683e-06
0.00113573
-9.76217e-10
-0.00113573
7.53007e-09
-1.33133e-06
3.17887e-07
-3.20514e-07
-9.79397e-07
3.0737e-07
-3.17666e-07
9.77329e-07
-2.69375e-07
-2.72175e-07
0.000273986
-1.2969e-06
0.000276072
-0.000273991
2.75537e-07
2.77131e-07
7.48013e-09
0.00113637
-3.14984e-07
1.29451e-06
3.11719e-07
9.75499e-07
-3.16389e-07
-9.75343e-07
3.08096e-07
-1.32564e-06
-3.72427e-09
4.85617e-09