/*--------------------------------*- C++ -*----------------------------------*\
| =========                 |                                                 |
| \\      /  F ield         | OpenFOAM: The Open Source CFD Toolbox           |
|  \\    /   O peration     | Version:  v1906                                 |
|   \\  /    A nd           | Web:      www.OpenFOAM.com                      |
|    \\/     M anipulation  |                                                 |
\*---------------------------------------------------------------------------*/
FoamFile
{
    version     2.0;
    format      ascii;
    class       volScalarField;
    location    "0.115";
    object      p;
}
// * * * * * * * * * * * * * * * * * * * * * * * * * * * * * * * * * * * * * //

dimensions      [0 2 -2 0 0 0 0];


internalField   nonuniform List<scalar> 
247104
(
1.66091e-12
-3.26912e-10
-3.92715e-10
-5.95697e-10
-8.28717e-10
-5.49024e-10
-3.77577e-10
-4.12009e-10
-3.54981e-10
-2.68183e-10
-2.25694e-10
-4.60423e-10
-6.24044e-10
-4.24191e-10
-2.11174e-10
-3.00219e-10
-4.28778e-10
-2.44134e-10
-5.14927e-10
-9.14695e-10
-1.08239e-09
-8.71153e-10
-4.65585e-10
-2.4123e-10
-4.74424e-10
-6.70411e-10
-4.97509e-10
-9.29484e-10
-1.41127e-09
-1.59119e-09
-1.36261e-09
-8.62329e-10
-4.72646e-10
-7.40407e-10
-1.12754e-09
-9.41074e-10
-6.73172e-10
-1.10713e-09
-1.60117e-09
-1.78324e-09
-1.55151e-09
-1.03769e-09
-6.52501e-10
-1.02858e-09
-6.33227e-10
-4.73942e-10
-9.0065e-10
-1.37874e-09
-1.55817e-09
-1.33002e-09
-8.33911e-10
-4.49377e-10
-7.01815e-10
-4.41721e-10
-2.56461e-10
-4.96061e-10
-8.81667e-10
-1.0485e-09
-8.38353e-10
-4.48857e-10
-2.54853e-10
-4.76077e-10
-4.60832e-10
-3.39501e-10
-2.70524e-10
-4.93305e-10
-6.65518e-10
-4.56336e-10
-2.57627e-10
-3.7208e-10
-5.01472e-10
-7.61719e-10
-1.04206e-09
-7.09371e-10
-4.79876e-10
-3.48348e-08
-3.69887e-08
-3.65475e-08
-3.77381e-08
-3.82669e-08
-3.8257e-08
-3.83168e-08
-3.61462e-08
-3.59756e-08
-3.65637e-08
-3.87794e-08
-4.22095e-08
-4.24413e-08
-4.24422e-08
-4.22096e-08
-3.83897e-08
-3.81416e-08
-3.77469e-08
-4.22144e-08
-4.23223e-08
-4.23264e-08
-4.23264e-08
-4.23219e-08
-4.22116e-08
-3.78268e-08
-3.66547e-08
-3.48534e-08
-3.82919e-08
-4.24465e-08
-4.23282e-08
-4.2205e-08
-4.22051e-08
-4.23282e-08
-4.24457e-08
-3.8206e-08
-3.60449e-08
-3.69673e-08
-3.82675e-08
-4.24472e-08
-4.23293e-08
-4.22063e-08
-4.22064e-08
-4.23295e-08
-4.24464e-08
-3.81e-08
-3.85149e-08
-3.83173e-08
-4.22164e-08
-4.2326e-08
-4.23302e-08
-4.23305e-08
-4.23263e-08
-4.22155e-08
-3.81221e-08
-3.71357e-08
-3.61758e-08
-3.83997e-08
-4.22171e-08
-4.24481e-08
-4.245e-08
-4.22195e-08
-3.84303e-08
-3.78723e-08
-3.61135e-08
-3.59723e-08
-3.81491e-08
-3.78273e-08
-3.82e-08
-3.81016e-08
-3.8129e-08
-3.78787e-08
-3.48628e-08
-3.66831e-08
-3.60223e-08
-3.85104e-08
-3.71363e-08
-3.61314e-08
-5.50512e-08
-5.52556e-08
-5.54609e-08
-5.77022e-08
-5.7726e-08
-5.77206e-08
-5.77073e-08
-5.51683e-08
-5.51275e-08
-5.54508e-08
-5.82657e-08
-6.14924e-08
-6.17221e-08
-6.17237e-08
-6.14954e-08
-5.72527e-08
-5.72348e-08
-5.77043e-08
-6.15005e-08
-6.2019e-08
-6.2048e-08
-6.20484e-08
-6.20188e-08
-6.14916e-08
-5.65151e-08
-5.45758e-08
-5.50533e-08
-5.77273e-08
-6.17251e-08
-6.20502e-08
-6.20554e-08
-6.20553e-08
-6.20495e-08
-6.17229e-08
-5.6613e-08
-5.51311e-08
-5.52565e-08
-5.77218e-08
-6.17252e-08
-6.2051e-08
-6.20564e-08
-6.20562e-08
-6.20498e-08
-6.17237e-08
-5.67481e-08
-5.73858e-08
-5.77093e-08
-6.1498e-08
-6.20207e-08
-6.20512e-08
-6.20517e-08
-6.20208e-08
-6.14972e-08
-5.65022e-08
-5.46867e-08
-5.51731e-08
-5.72571e-08
-6.14979e-08
-6.17264e-08
-6.17299e-08
-6.14987e-08
-5.67645e-08
-5.68264e-08
-5.47357e-08
-5.51295e-08
-5.72422e-08
-5.65233e-08
-5.66192e-08
-5.67528e-08
-5.65048e-08
-5.68256e-08
-5.46023e-08
-5.45844e-08
-5.51332e-08
-5.73912e-08
-5.46865e-08
-5.47359e-08
-7.54449e-08
-7.56108e-08
-7.56412e-08
-7.80527e-08
-7.80418e-08
-7.81582e-08
-7.79605e-08
-7.53824e-08
-7.53516e-08
-7.56394e-08
-7.89816e-08
-8.19761e-08
-8.20536e-08
-8.20547e-08
-8.19753e-08
-7.76652e-08
-7.73109e-08
-7.8056e-08
-8.1976e-08
-8.2169e-08
-8.21796e-08
-8.21795e-08
-8.21674e-08
-8.1975e-08
-7.66636e-08
-7.48684e-08
-7.54439e-08
-7.80392e-08
-8.20549e-08
-8.21811e-08
-8.21871e-08
-8.21865e-08
-8.21786e-08
-8.20506e-08
-7.65667e-08
-7.55207e-08
-7.56104e-08
-7.81545e-08
-8.20552e-08
-8.21812e-08
-8.21875e-08
-8.2187e-08
-8.2179e-08
-8.20526e-08
-7.66608e-08
-7.75743e-08
-7.79611e-08
-8.19768e-08
-8.21696e-08
-8.21812e-08
-8.21812e-08
-8.21684e-08
-8.19753e-08
-7.65447e-08
-7.50736e-08
-7.53757e-08
-7.76725e-08
-8.19797e-08
-8.20556e-08
-8.20561e-08
-8.19734e-08
-7.66609e-08
-7.69386e-08
-7.49391e-08
-7.53375e-08
-7.73391e-08
-7.66709e-08
-7.65724e-08
-7.66648e-08
-7.65478e-08
-7.69391e-08
-7.50301e-08
-7.48743e-08
-7.55279e-08
-7.75784e-08
-7.50728e-08
-7.49377e-08
-9.57213e-08
-9.5869e-08
-9.60205e-08
-9.84801e-08
-9.84709e-08
-9.8669e-08
-9.83701e-08
-9.57482e-08
-9.56767e-08
-9.6025e-08
-9.96672e-08
-1.02521e-07
-1.02542e-07
-1.02542e-07
-1.02521e-07
-9.82427e-08
-9.76405e-08
-9.84831e-08
-1.02524e-07
-1.02572e-07
-1.02575e-07
-1.02574e-07
-1.02572e-07
-1.02521e-07
-9.6965e-08
-9.51653e-08
-9.57159e-08
-9.84732e-08
-1.02543e-07
-1.02575e-07
-1.02576e-07
-1.02575e-07
-1.02574e-07
-1.02542e-07
-9.67134e-08
-9.57436e-08
-9.58719e-08
-9.86703e-08
-1.02542e-07
-1.02575e-07
-1.02576e-07
-1.02575e-07
-1.02574e-07
-1.02541e-07
-9.6788e-08
-9.77553e-08
-9.83713e-08
-1.02522e-07
-1.02573e-07
-1.02575e-07
-1.02575e-07
-1.02572e-07
-1.02521e-07
-9.67731e-08
-9.53054e-08
-9.57505e-08
-9.82433e-08
-1.02521e-07
-1.02543e-07
-1.02543e-07
-1.02522e-07
-9.68566e-08
-9.72346e-08
-9.52576e-08
-9.56835e-08
-9.76425e-08
-9.69675e-08
-9.67174e-08
-9.67907e-08
-9.67748e-08
-9.72348e-08
-9.5328e-08
-9.51697e-08
-9.57487e-08
-9.77581e-08
-9.5302e-08
-9.52544e-08
-1.16107e-07
-1.16249e-07
-1.16449e-07
-1.18923e-07
-1.18906e-07
-1.19153e-07
-1.18807e-07
-1.16174e-07
-1.16105e-07
-1.16451e-07
-1.20174e-07
-1.23003e-07
-1.23008e-07
-1.23009e-07
-1.23002e-07
-1.18744e-07
-1.18054e-07
-1.18926e-07
-1.23001e-07
-1.23015e-07
-1.23015e-07
-1.23015e-07
-1.23013e-07
-1.23e-07
-1.17369e-07
-1.15567e-07
-1.16101e-07
-1.18907e-07
-1.23009e-07
-1.23016e-07
-1.23015e-07
-1.23015e-07
-1.23014e-07
-1.23007e-07
-1.17073e-07
-1.16105e-07
-1.16247e-07
-1.19159e-07
-1.23009e-07
-1.23016e-07
-1.23015e-07
-1.23015e-07
-1.23014e-07
-1.23006e-07
-1.17137e-07
-1.18106e-07
-1.18807e-07
-1.23002e-07
-1.23015e-07
-1.23015e-07
-1.23015e-07
-1.23014e-07
-1.23002e-07
-1.17155e-07
-1.15675e-07
-1.16174e-07
-1.18752e-07
-1.23002e-07
-1.23008e-07
-1.23008e-07
-1.23001e-07
-1.17215e-07
-1.17631e-07
-1.15667e-07
-1.16108e-07
-1.18053e-07
-1.17369e-07
-1.17064e-07
-1.17135e-07
-1.17154e-07
-1.17633e-07
-1.1575e-07
-1.15566e-07
-1.161e-07
-1.18102e-07
-1.1567e-07
-1.15665e-07
-1.36538e-07
-1.36675e-07
-1.36892e-07
-1.39371e-07
-1.39354e-07
-1.39615e-07
-1.39255e-07
-1.36618e-07
-1.36549e-07
-1.3689e-07
-1.40634e-07
-1.43461e-07
-1.43462e-07
-1.43462e-07
-1.4346e-07
-1.39212e-07
-1.38491e-07
-1.39377e-07
-1.43461e-07
-1.43463e-07
-1.43464e-07
-1.43463e-07
-1.43463e-07
-1.43459e-07
-1.37809e-07
-1.36002e-07
-1.36532e-07
-1.39351e-07
-1.43462e-07
-1.43464e-07
-1.43463e-07
-1.43463e-07
-1.43463e-07
-1.43461e-07
-1.3749e-07
-1.36529e-07
-1.36676e-07
-1.39614e-07
-1.43462e-07
-1.43464e-07
-1.43463e-07
-1.43463e-07
-1.43463e-07
-1.43462e-07
-1.37552e-07
-1.38525e-07
-1.39256e-07
-1.43461e-07
-1.43463e-07
-1.43463e-07
-1.43463e-07
-1.43463e-07
-1.43459e-07
-1.37592e-07
-1.36102e-07
-1.36617e-07
-1.39218e-07
-1.43461e-07
-1.43461e-07
-1.43462e-07
-1.4346e-07
-1.37637e-07
-1.38065e-07
-1.36103e-07
-1.36552e-07
-1.38495e-07
-1.37808e-07
-1.37488e-07
-1.37556e-07
-1.37588e-07
-1.38068e-07
-1.36193e-07
-1.36007e-07
-1.36527e-07
-1.38527e-07
-1.36105e-07
-1.36103e-07
-1.56982e-07
-1.57119e-07
-1.5734e-07
-1.59818e-07
-1.59802e-07
-1.60063e-07
-1.59703e-07
-1.57065e-07
-1.56998e-07
-1.57336e-07
-1.6109e-07
-1.63912e-07
-1.63913e-07
-1.63913e-07
-1.63912e-07
-1.59666e-07
-1.58937e-07
-1.59825e-07
-1.63914e-07
-1.63914e-07
-1.63914e-07
-1.63913e-07
-1.63914e-07
-1.63913e-07
-1.58259e-07
-1.5645e-07
-1.56975e-07
-1.59798e-07
-1.63913e-07
-1.63914e-07
-1.63913e-07
-1.63913e-07
-1.63913e-07
-1.63913e-07
-1.57932e-07
-1.56976e-07
-1.57119e-07
-1.60062e-07
-1.63913e-07
-1.63913e-07
-1.63913e-07
-1.63913e-07
-1.63913e-07
-1.63914e-07
-1.57995e-07
-1.58969e-07
-1.59708e-07
-1.63913e-07
-1.63914e-07
-1.63914e-07
-1.63913e-07
-1.63913e-07
-1.63913e-07
-1.58038e-07
-1.56548e-07
-1.57069e-07
-1.59669e-07
-1.63912e-07
-1.63915e-07
-1.63913e-07
-1.63912e-07
-1.58082e-07
-1.58517e-07
-1.56551e-07
-1.57002e-07
-1.5894e-07
-1.58256e-07
-1.57931e-07
-1.57993e-07
-1.58041e-07
-1.58515e-07
-1.5664e-07
-1.56451e-07
-1.56971e-07
-1.58968e-07
-1.5655e-07
-1.56547e-07
-1.77429e-07
-1.77566e-07
-1.77789e-07
-1.8027e-07
-1.80249e-07
-1.80513e-07
-1.80156e-07
-1.77516e-07
-1.77448e-07
-1.77785e-07
-1.81539e-07
-1.84364e-07
-1.84364e-07
-1.84364e-07
-1.84364e-07
-1.8012e-07
-1.79387e-07
-1.80274e-07
-1.84364e-07
-1.84364e-07
-1.84364e-07
-1.84364e-07
-1.84364e-07
-1.84363e-07
-1.78705e-07
-1.769e-07
-1.77424e-07
-1.80249e-07
-1.84363e-07
-1.84364e-07
-1.84364e-07
-1.84364e-07
-1.84364e-07
-1.84364e-07
-1.78382e-07
-1.77425e-07
-1.77568e-07
-1.80514e-07
-1.84364e-07
-1.84364e-07
-1.84364e-07
-1.84364e-07
-1.84364e-07
-1.84364e-07
-1.78443e-07
-1.79419e-07
-1.80155e-07
-1.84364e-07
-1.84364e-07
-1.84364e-07
-1.84364e-07
-1.84364e-07
-1.84364e-07
-1.78486e-07
-1.76997e-07
-1.77517e-07
-1.80124e-07
-1.84363e-07
-1.84363e-07
-1.84363e-07
-1.84364e-07
-1.78526e-07
-1.78961e-07
-1.77e-07
-1.77451e-07
-1.79391e-07
-1.78708e-07
-1.78382e-07
-1.78443e-07
-1.78489e-07
-1.78964e-07
-1.77088e-07
-1.76902e-07
-1.77421e-07
-1.79416e-07
-1.76998e-07
-1.76997e-07
-1.9788e-07
-1.98017e-07
-1.9824e-07
-2.00718e-07
-2.00699e-07
-2.00963e-07
-2.00606e-07
-1.97966e-07
-1.97899e-07
-1.98235e-07
-2.01988e-07
-2.04814e-07
-2.04814e-07
-2.04814e-07
-2.04814e-07
-2.00572e-07
-1.99837e-07
-2.00724e-07
-2.04813e-07
-2.04815e-07
-2.04814e-07
-2.04814e-07
-2.04814e-07
-2.04814e-07
-1.99155e-07
-1.9735e-07
-1.97873e-07
-2.007e-07
-2.04814e-07
-2.04815e-07
-2.04814e-07
-2.04814e-07
-2.04814e-07
-2.04814e-07
-1.98832e-07
-1.97874e-07
-1.98018e-07
-2.00968e-07
-2.04814e-07
-2.04815e-07
-2.04814e-07
-2.04814e-07
-2.04814e-07
-2.04814e-07
-1.98893e-07
-1.99869e-07
-2.00606e-07
-2.04814e-07
-2.04815e-07
-2.04815e-07
-2.04814e-07
-2.04814e-07
-2.04814e-07
-1.98937e-07
-1.97448e-07
-1.97967e-07
-2.00574e-07
-2.04814e-07
-2.04814e-07
-2.04814e-07
-2.04814e-07
-1.98976e-07
-1.99412e-07
-1.9745e-07
-1.97901e-07
-1.99841e-07
-1.99155e-07
-1.98829e-07
-1.98889e-07
-1.98939e-07
-1.99414e-07
-1.97538e-07
-1.97351e-07
-1.97869e-07
-1.99863e-07
-1.97447e-07
-1.97447e-07
-2.18331e-07
-2.18467e-07
-2.18691e-07
-2.21174e-07
-2.2115e-07
-2.21414e-07
-2.21057e-07
-2.18415e-07
-2.18349e-07
-2.18685e-07
-2.2244e-07
-2.25266e-07
-2.25264e-07
-2.25265e-07
-2.25264e-07
-2.21022e-07
-2.20288e-07
-2.21176e-07
-2.25265e-07
-2.25265e-07
-2.25265e-07
-2.25265e-07
-2.25265e-07
-2.25265e-07
-2.19605e-07
-2.178e-07
-2.18324e-07
-2.21151e-07
-2.25265e-07
-2.25265e-07
-2.25265e-07
-2.25265e-07
-2.25265e-07
-2.25265e-07
-2.19282e-07
-2.18324e-07
-2.18468e-07
-2.21419e-07
-2.25265e-07
-2.25265e-07
-2.25265e-07
-2.25265e-07
-2.25265e-07
-2.25265e-07
-2.19344e-07
-2.2032e-07
-2.21057e-07
-2.25265e-07
-2.25265e-07
-2.25265e-07
-2.25265e-07
-2.25265e-07
-2.25265e-07
-2.19387e-07
-2.17898e-07
-2.18418e-07
-2.21025e-07
-2.25265e-07
-2.25265e-07
-2.25265e-07
-2.25265e-07
-2.19427e-07
-2.19862e-07
-2.17901e-07
-2.18352e-07
-2.20292e-07
-2.19606e-07
-2.19279e-07
-2.19339e-07
-2.19391e-07
-2.19865e-07
-2.17989e-07
-2.17802e-07
-2.1832e-07
-2.20313e-07
-2.17898e-07
-2.17898e-07
-2.3878e-07
-2.38917e-07
-2.39149e-07
-2.41621e-07
-2.416e-07
-2.41865e-07
-2.41508e-07
-2.38865e-07
-2.38798e-07
-2.39138e-07
-2.42894e-07
-2.45716e-07
-2.45715e-07
-2.45714e-07
-2.45715e-07
-2.41471e-07
-2.40738e-07
-2.41625e-07
-2.45715e-07
-2.45715e-07
-2.45715e-07
-2.45715e-07
-2.45715e-07
-2.45715e-07
-2.40056e-07
-2.38251e-07
-2.38774e-07
-2.41601e-07
-2.45715e-07
-2.45715e-07
-2.45715e-07
-2.45715e-07
-2.45715e-07
-2.45715e-07
-2.39732e-07
-2.38774e-07
-2.38918e-07
-2.41869e-07
-2.45715e-07
-2.45715e-07
-2.45715e-07
-2.45715e-07
-2.45715e-07
-2.45715e-07
-2.39794e-07
-2.4077e-07
-2.41507e-07
-2.45715e-07
-2.45715e-07
-2.45715e-07
-2.45715e-07
-2.45715e-07
-2.45715e-07
-2.39837e-07
-2.38348e-07
-2.38868e-07
-2.41476e-07
-2.45715e-07
-2.45715e-07
-2.45715e-07
-2.45715e-07
-2.39877e-07
-2.40312e-07
-2.38351e-07
-2.38803e-07
-2.40743e-07
-2.40056e-07
-2.39729e-07
-2.39789e-07
-2.39841e-07
-2.40315e-07
-2.38439e-07
-2.38252e-07
-2.3877e-07
-2.40764e-07
-2.38348e-07
-2.38348e-07
-2.5923e-07
-2.59367e-07
-2.59598e-07
-2.62071e-07
-2.6205e-07
-2.62315e-07
-2.61957e-07
-2.59313e-07
-2.59254e-07
-2.59587e-07
-2.63343e-07
-2.66165e-07
-2.66165e-07
-2.66165e-07
-2.66165e-07
-2.61919e-07
-2.61189e-07
-2.62075e-07
-2.66165e-07
-2.66164e-07
-2.66164e-07
-2.66164e-07
-2.66165e-07
-2.66165e-07
-2.60506e-07
-2.58701e-07
-2.59224e-07
-2.62051e-07
-2.66165e-07
-2.66164e-07
-2.66165e-07
-2.66165e-07
-2.66165e-07
-2.66165e-07
-2.60182e-07
-2.59224e-07
-2.59368e-07
-2.62319e-07
-2.66164e-07
-2.66164e-07
-2.66164e-07
-2.66164e-07
-2.66164e-07
-2.66165e-07
-2.60244e-07
-2.6122e-07
-2.61956e-07
-2.66164e-07
-2.66164e-07
-2.66164e-07
-2.66164e-07
-2.66164e-07
-2.66164e-07
-2.60287e-07
-2.58798e-07
-2.59318e-07
-2.61926e-07
-2.66164e-07
-2.66164e-07
-2.66164e-07
-2.66164e-07
-2.60327e-07
-2.60762e-07
-2.58801e-07
-2.59252e-07
-2.61192e-07
-2.60506e-07
-2.60178e-07
-2.60238e-07
-2.60291e-07
-2.60764e-07
-2.58889e-07
-2.58702e-07
-2.5922e-07
-2.61213e-07
-2.58797e-07
-2.58798e-07
-2.7968e-07
-2.79817e-07
-2.80047e-07
-2.8252e-07
-2.825e-07
-2.82765e-07
-2.82404e-07
-2.79763e-07
-2.79703e-07
-2.80036e-07
-2.83791e-07
-2.86614e-07
-2.86614e-07
-2.86614e-07
-2.86613e-07
-2.82368e-07
-2.81638e-07
-2.82524e-07
-2.86613e-07
-2.86614e-07
-2.86614e-07
-2.86614e-07
-2.86614e-07
-2.86614e-07
-2.80955e-07
-2.7915e-07
-2.79673e-07
-2.825e-07
-2.86614e-07
-2.86614e-07
-2.86614e-07
-2.86614e-07
-2.86614e-07
-2.86614e-07
-2.80631e-07
-2.79673e-07
-2.79817e-07
-2.82768e-07
-2.86614e-07
-2.86614e-07
-2.86614e-07
-2.86614e-07
-2.86614e-07
-2.86614e-07
-2.80693e-07
-2.81669e-07
-2.82405e-07
-2.86614e-07
-2.86614e-07
-2.86613e-07
-2.86613e-07
-2.86613e-07
-2.86614e-07
-2.80736e-07
-2.79247e-07
-2.79767e-07
-2.82375e-07
-2.86613e-07
-2.86613e-07
-2.86613e-07
-2.86613e-07
-2.80776e-07
-2.81211e-07
-2.7925e-07
-2.79701e-07
-2.81641e-07
-2.80955e-07
-2.80627e-07
-2.80687e-07
-2.8074e-07
-2.81213e-07
-2.79338e-07
-2.79151e-07
-2.79669e-07
-2.81662e-07
-2.79246e-07
-2.79246e-07
-3.00129e-07
-3.00266e-07
-3.00496e-07
-3.02969e-07
-3.02949e-07
-3.03214e-07
-3.02852e-07
-3.00213e-07
-3.00151e-07
-3.00485e-07
-3.04241e-07
-3.07063e-07
-3.07062e-07
-3.07062e-07
-3.07062e-07
-3.02816e-07
-3.02086e-07
-3.02972e-07
-3.07062e-07
-3.07062e-07
-3.07062e-07
-3.07062e-07
-3.07062e-07
-3.07062e-07
-3.01404e-07
-2.99599e-07
-3.00122e-07
-3.02948e-07
-3.07062e-07
-3.07062e-07
-3.07062e-07
-3.07062e-07
-3.07062e-07
-3.07062e-07
-3.0108e-07
-3.00122e-07
-3.00265e-07
-3.03217e-07
-3.07062e-07
-3.07062e-07
-3.07062e-07
-3.07062e-07
-3.07062e-07
-3.07062e-07
-3.01142e-07
-3.02118e-07
-3.02854e-07
-3.07062e-07
-3.07062e-07
-3.07062e-07
-3.07062e-07
-3.07062e-07
-3.07062e-07
-3.01185e-07
-2.99696e-07
-3.00216e-07
-3.02824e-07
-3.07062e-07
-3.07062e-07
-3.07063e-07
-3.07062e-07
-3.01224e-07
-3.0166e-07
-2.99699e-07
-3.0015e-07
-3.0209e-07
-3.01403e-07
-3.01076e-07
-3.01135e-07
-3.01188e-07
-3.01662e-07
-2.99787e-07
-2.996e-07
-3.00117e-07
-3.02111e-07
-2.99694e-07
-2.99695e-07
-3.20578e-07
-3.20715e-07
-3.20945e-07
-3.23417e-07
-3.23397e-07
-3.23663e-07
-3.233e-07
-3.20661e-07
-3.206e-07
-3.20934e-07
-3.24689e-07
-3.27512e-07
-3.27511e-07
-3.27511e-07
-3.27511e-07
-3.23266e-07
-3.22535e-07
-3.23421e-07
-3.27511e-07
-3.27511e-07
-3.27511e-07
-3.27511e-07
-3.27511e-07
-3.27511e-07
-3.21852e-07
-3.20047e-07
-3.2057e-07
-3.23397e-07
-3.27511e-07
-3.27511e-07
-3.27511e-07
-3.27511e-07
-3.27511e-07
-3.27511e-07
-3.21529e-07
-3.20571e-07
-3.20714e-07
-3.23665e-07
-3.27511e-07
-3.27511e-07
-3.27511e-07
-3.27511e-07
-3.27511e-07
-3.27511e-07
-3.2159e-07
-3.22567e-07
-3.23303e-07
-3.27511e-07
-3.27511e-07
-3.27511e-07
-3.27511e-07
-3.27511e-07
-3.27511e-07
-3.21634e-07
-3.20145e-07
-3.20664e-07
-3.23272e-07
-3.27511e-07
-3.27511e-07
-3.27511e-07
-3.27511e-07
-3.21673e-07
-3.22109e-07
-3.20147e-07
-3.20599e-07
-3.22539e-07
-3.21852e-07
-3.21525e-07
-3.21586e-07
-3.21635e-07
-3.22111e-07
-3.20235e-07
-3.20048e-07
-3.20566e-07
-3.22564e-07
-3.20143e-07
-3.20143e-07
-3.41026e-07
-3.41164e-07
-3.41392e-07
-3.43864e-07
-3.43846e-07
-3.44112e-07
-3.43749e-07
-3.4111e-07
-3.41049e-07
-3.41383e-07
-3.45139e-07
-3.4796e-07
-3.4796e-07
-3.4796e-07
-3.4796e-07
-3.43715e-07
-3.42984e-07
-3.4387e-07
-3.4796e-07
-3.4796e-07
-3.4796e-07
-3.4796e-07
-3.4796e-07
-3.4796e-07
-3.42301e-07
-3.40496e-07
-3.41019e-07
-3.43846e-07
-3.4796e-07
-3.4796e-07
-3.4796e-07
-3.4796e-07
-3.4796e-07
-3.4796e-07
-3.41978e-07
-3.4102e-07
-3.41163e-07
-3.44114e-07
-3.4796e-07
-3.4796e-07
-3.4796e-07
-3.4796e-07
-3.4796e-07
-3.4796e-07
-3.42039e-07
-3.43015e-07
-3.43752e-07
-3.4796e-07
-3.4796e-07
-3.4796e-07
-3.4796e-07
-3.4796e-07
-3.4796e-07
-3.42083e-07
-3.40594e-07
-3.41113e-07
-3.43721e-07
-3.4796e-07
-3.4796e-07
-3.4796e-07
-3.4796e-07
-3.42123e-07
-3.42558e-07
-3.40596e-07
-3.41048e-07
-3.42987e-07
-3.42301e-07
-3.41973e-07
-3.42032e-07
-3.42086e-07
-3.4256e-07
-3.40684e-07
-3.40497e-07
-3.41015e-07
-3.43008e-07
-3.40592e-07
-3.40593e-07
-3.61475e-07
-3.61612e-07
-3.61843e-07
-3.64313e-07
-3.64295e-07
-3.6456e-07
-3.64198e-07
-3.61559e-07
-3.61499e-07
-3.61832e-07
-3.65587e-07
-3.68408e-07
-3.68409e-07
-3.68408e-07
-3.68408e-07
-3.64162e-07
-3.63433e-07
-3.64319e-07
-3.68408e-07
-3.68408e-07
-3.68408e-07
-3.68408e-07
-3.68408e-07
-3.68408e-07
-3.6275e-07
-3.60945e-07
-3.61468e-07
-3.64295e-07
-3.68408e-07
-3.68408e-07
-3.68408e-07
-3.68408e-07
-3.68408e-07
-3.68408e-07
-3.62426e-07
-3.61468e-07
-3.61612e-07
-3.64563e-07
-3.68408e-07
-3.68408e-07
-3.68408e-07
-3.68408e-07
-3.68408e-07
-3.68408e-07
-3.62487e-07
-3.63464e-07
-3.64201e-07
-3.68408e-07
-3.68408e-07
-3.68408e-07
-3.68408e-07
-3.68408e-07
-3.68408e-07
-3.62531e-07
-3.61042e-07
-3.61562e-07
-3.6417e-07
-3.68408e-07
-3.68409e-07
-3.68409e-07
-3.68408e-07
-3.62571e-07
-3.63006e-07
-3.61045e-07
-3.61496e-07
-3.63436e-07
-3.6275e-07
-3.62423e-07
-3.62483e-07
-3.62533e-07
-3.63008e-07
-3.61132e-07
-3.60946e-07
-3.61464e-07
-3.63458e-07
-3.6104e-07
-3.61041e-07
-3.81924e-07
-3.8206e-07
-3.8229e-07
-3.84761e-07
-3.84743e-07
-3.85008e-07
-3.84645e-07
-3.82007e-07
-3.81947e-07
-3.82279e-07
-3.86035e-07
-3.88856e-07
-3.88856e-07
-3.88856e-07
-3.88856e-07
-3.8461e-07
-3.8388e-07
-3.84767e-07
-3.88857e-07
-3.88856e-07
-3.88856e-07
-3.88856e-07
-3.88856e-07
-3.88856e-07
-3.83197e-07
-3.81392e-07
-3.81916e-07
-3.84743e-07
-3.88856e-07
-3.88856e-07
-3.88856e-07
-3.88856e-07
-3.88856e-07
-3.88856e-07
-3.82874e-07
-3.81916e-07
-3.8206e-07
-3.85011e-07
-3.88856e-07
-3.88856e-07
-3.88856e-07
-3.88856e-07
-3.88856e-07
-3.88856e-07
-3.82935e-07
-3.83912e-07
-3.84648e-07
-3.88856e-07
-3.88856e-07
-3.88856e-07
-3.88856e-07
-3.88856e-07
-3.88856e-07
-3.82979e-07
-3.8149e-07
-3.8201e-07
-3.84618e-07
-3.88856e-07
-3.88856e-07
-3.88856e-07
-3.88856e-07
-3.83019e-07
-3.83454e-07
-3.81492e-07
-3.81944e-07
-3.83884e-07
-3.83198e-07
-3.82872e-07
-3.82932e-07
-3.8298e-07
-3.83456e-07
-3.8158e-07
-3.81394e-07
-3.81912e-07
-3.83906e-07
-3.81488e-07
-3.81488e-07
-4.02371e-07
-4.02508e-07
-4.02738e-07
-4.0521e-07
-4.0519e-07
-4.05455e-07
-4.05093e-07
-4.02455e-07
-4.02394e-07
-4.02727e-07
-4.06482e-07
-4.09303e-07
-4.09303e-07
-4.09303e-07
-4.09304e-07
-4.05058e-07
-4.04328e-07
-4.05214e-07
-4.09303e-07
-4.09303e-07
-4.09303e-07
-4.09303e-07
-4.09303e-07
-4.09304e-07
-4.03645e-07
-4.0184e-07
-4.02364e-07
-4.0519e-07
-4.09303e-07
-4.09303e-07
-4.09303e-07
-4.09303e-07
-4.09303e-07
-4.09304e-07
-4.03321e-07
-4.02364e-07
-4.02507e-07
-4.05458e-07
-4.09304e-07
-4.09303e-07
-4.09303e-07
-4.09303e-07
-4.09303e-07
-4.09304e-07
-4.03383e-07
-4.04359e-07
-4.05096e-07
-4.09304e-07
-4.09303e-07
-4.09303e-07
-4.09303e-07
-4.09303e-07
-4.09304e-07
-4.03427e-07
-4.01938e-07
-4.02458e-07
-4.05065e-07
-4.09304e-07
-4.09304e-07
-4.09304e-07
-4.09303e-07
-4.03467e-07
-4.03902e-07
-4.0194e-07
-4.02392e-07
-4.04332e-07
-4.03646e-07
-4.03319e-07
-4.03378e-07
-4.0343e-07
-4.03904e-07
-4.02028e-07
-4.01842e-07
-4.0236e-07
-4.04355e-07
-4.01937e-07
-4.01937e-07
-4.22818e-07
-4.22955e-07
-4.23185e-07
-4.25657e-07
-4.25637e-07
-4.25902e-07
-4.25539e-07
-4.22901e-07
-4.22839e-07
-4.23174e-07
-4.26928e-07
-4.29749e-07
-4.2975e-07
-4.2975e-07
-4.2975e-07
-4.25505e-07
-4.24775e-07
-4.2566e-07
-4.29749e-07
-4.2975e-07
-4.2975e-07
-4.2975e-07
-4.2975e-07
-4.2975e-07
-4.24092e-07
-4.22287e-07
-4.2281e-07
-4.25636e-07
-4.2975e-07
-4.2975e-07
-4.2975e-07
-4.2975e-07
-4.2975e-07
-4.2975e-07
-4.23768e-07
-4.22812e-07
-4.22954e-07
-4.25905e-07
-4.2975e-07
-4.2975e-07
-4.2975e-07
-4.2975e-07
-4.2975e-07
-4.2975e-07
-4.2383e-07
-4.24806e-07
-4.25542e-07
-4.2975e-07
-4.2975e-07
-4.2975e-07
-4.2975e-07
-4.2975e-07
-4.2975e-07
-4.23873e-07
-4.22385e-07
-4.22904e-07
-4.25512e-07
-4.2975e-07
-4.2975e-07
-4.2975e-07
-4.2975e-07
-4.23913e-07
-4.24348e-07
-4.22387e-07
-4.22838e-07
-4.24778e-07
-4.24092e-07
-4.23765e-07
-4.23825e-07
-4.23877e-07
-4.24351e-07
-4.22475e-07
-4.22288e-07
-4.22807e-07
-4.24801e-07
-4.22383e-07
-4.22386e-07
-4.43263e-07
-4.434e-07
-4.43631e-07
-4.46103e-07
-4.46083e-07
-4.46348e-07
-4.45985e-07
-4.43347e-07
-4.43285e-07
-4.43619e-07
-4.47375e-07
-4.50196e-07
-4.50196e-07
-4.50196e-07
-4.50196e-07
-4.45951e-07
-4.45221e-07
-4.46106e-07
-4.50196e-07
-4.50196e-07
-4.50196e-07
-4.50197e-07
-4.50197e-07
-4.50197e-07
-4.44538e-07
-4.42733e-07
-4.43256e-07
-4.46082e-07
-4.50196e-07
-4.50196e-07
-4.50197e-07
-4.50197e-07
-4.50197e-07
-4.50197e-07
-4.44214e-07
-4.43258e-07
-4.434e-07
-4.46351e-07
-4.50196e-07
-4.50196e-07
-4.50197e-07
-4.50197e-07
-4.50197e-07
-4.50197e-07
-4.44276e-07
-4.45252e-07
-4.45989e-07
-4.50196e-07
-4.50196e-07
-4.50197e-07
-4.50197e-07
-4.50197e-07
-4.50197e-07
-4.44319e-07
-4.4283e-07
-4.4335e-07
-4.45958e-07
-4.50196e-07
-4.50196e-07
-4.50197e-07
-4.50197e-07
-4.4436e-07
-4.44794e-07
-4.42833e-07
-4.43284e-07
-4.45224e-07
-4.44538e-07
-4.44211e-07
-4.44271e-07
-4.44323e-07
-4.44797e-07
-4.42921e-07
-4.42734e-07
-4.43253e-07
-4.45247e-07
-4.42829e-07
-4.42831e-07
-4.63711e-07
-4.63848e-07
-4.64078e-07
-4.66551e-07
-4.66531e-07
-4.66796e-07
-4.66433e-07
-4.63795e-07
-4.63733e-07
-4.64067e-07
-4.67823e-07
-4.70644e-07
-4.70644e-07
-4.70644e-07
-4.70644e-07
-4.66399e-07
-4.65669e-07
-4.66554e-07
-4.70644e-07
-4.70644e-07
-4.70644e-07
-4.70644e-07
-4.70644e-07
-4.70644e-07
-4.64985e-07
-4.6318e-07
-4.63704e-07
-4.6653e-07
-4.70644e-07
-4.70644e-07
-4.70644e-07
-4.70644e-07
-4.70644e-07
-4.70644e-07
-4.64662e-07
-4.63705e-07
-4.63847e-07
-4.66799e-07
-4.70644e-07
-4.70644e-07
-4.70644e-07
-4.70644e-07
-4.70644e-07
-4.70644e-07
-4.64723e-07
-4.657e-07
-4.66436e-07
-4.70644e-07
-4.70644e-07
-4.70644e-07
-4.70644e-07
-4.70644e-07
-4.70644e-07
-4.64767e-07
-4.63278e-07
-4.63798e-07
-4.66406e-07
-4.70644e-07
-4.70644e-07
-4.70644e-07
-4.70644e-07
-4.64807e-07
-4.65242e-07
-4.63281e-07
-4.63732e-07
-4.65672e-07
-4.64986e-07
-4.64659e-07
-4.64718e-07
-4.6477e-07
-4.65245e-07
-4.63369e-07
-4.63182e-07
-4.637e-07
-4.65694e-07
-4.63276e-07
-4.63279e-07
-4.84159e-07
-4.84296e-07
-4.84526e-07
-4.86998e-07
-4.86978e-07
-4.87243e-07
-4.8688e-07
-4.84241e-07
-4.8418e-07
-4.84515e-07
-4.8827e-07
-4.91091e-07
-4.91091e-07
-4.91091e-07
-4.91091e-07
-4.86847e-07
-4.86116e-07
-4.87002e-07
-4.91091e-07
-4.91091e-07
-4.91091e-07
-4.91091e-07
-4.91091e-07
-4.91091e-07
-4.85433e-07
-4.83628e-07
-4.84152e-07
-4.86978e-07
-4.91091e-07
-4.91091e-07
-4.91091e-07
-4.91091e-07
-4.91091e-07
-4.91091e-07
-4.85109e-07
-4.84153e-07
-4.84295e-07
-4.87246e-07
-4.91091e-07
-4.91091e-07
-4.91091e-07
-4.91091e-07
-4.91091e-07
-4.91091e-07
-4.85171e-07
-4.86147e-07
-4.86884e-07
-4.91091e-07
-4.91091e-07
-4.91091e-07
-4.91091e-07
-4.91091e-07
-4.91091e-07
-4.85214e-07
-4.83726e-07
-4.84245e-07
-4.86853e-07
-4.91091e-07
-4.91091e-07
-4.91091e-07
-4.91091e-07
-4.85254e-07
-4.85689e-07
-4.83728e-07
-4.8418e-07
-4.86119e-07
-4.85433e-07
-4.85106e-07
-4.85166e-07
-4.85218e-07
-4.85692e-07
-4.83816e-07
-4.83629e-07
-4.84148e-07
-4.86142e-07
-4.83724e-07
-4.83727e-07
-5.04605e-07
-5.04742e-07
-5.04972e-07
-5.07444e-07
-5.07424e-07
-5.07689e-07
-5.07327e-07
-5.04688e-07
-5.04625e-07
-5.04961e-07
-5.08716e-07
-5.11537e-07
-5.11537e-07
-5.11537e-07
-5.11537e-07
-5.07292e-07
-5.0656e-07
-5.07448e-07
-5.11537e-07
-5.11537e-07
-5.11537e-07
-5.11537e-07
-5.11537e-07
-5.11537e-07
-5.05878e-07
-5.04074e-07
-5.04598e-07
-5.07424e-07
-5.11537e-07
-5.11537e-07
-5.11537e-07
-5.11537e-07
-5.11537e-07
-5.11537e-07
-5.05555e-07
-5.04599e-07
-5.04741e-07
-5.07692e-07
-5.11537e-07
-5.11537e-07
-5.11537e-07
-5.11537e-07
-5.11537e-07
-5.11537e-07
-5.05616e-07
-5.06593e-07
-5.0733e-07
-5.11537e-07
-5.11537e-07
-5.11537e-07
-5.11537e-07
-5.11537e-07
-5.11537e-07
-5.0566e-07
-5.04171e-07
-5.04691e-07
-5.07299e-07
-5.11537e-07
-5.11537e-07
-5.11537e-07
-5.11537e-07
-5.057e-07
-5.06135e-07
-5.04174e-07
-5.04626e-07
-5.06565e-07
-5.05879e-07
-5.05552e-07
-5.05611e-07
-5.05663e-07
-5.06138e-07
-5.04262e-07
-5.04075e-07
-5.04594e-07
-5.06588e-07
-5.0417e-07
-5.04172e-07
-5.25051e-07
-5.25188e-07
-5.25417e-07
-5.27888e-07
-5.27872e-07
-5.28135e-07
-5.27773e-07
-5.25132e-07
-5.25072e-07
-5.25405e-07
-5.29162e-07
-5.31983e-07
-5.31983e-07
-5.31983e-07
-5.31983e-07
-5.27738e-07
-5.27007e-07
-5.27893e-07
-5.31983e-07
-5.31983e-07
-5.31983e-07
-5.31983e-07
-5.31983e-07
-5.31983e-07
-5.26324e-07
-5.24519e-07
-5.25044e-07
-5.2787e-07
-5.31983e-07
-5.31983e-07
-5.31983e-07
-5.31983e-07
-5.31983e-07
-5.31983e-07
-5.26001e-07
-5.25044e-07
-5.25187e-07
-5.28138e-07
-5.31983e-07
-5.31983e-07
-5.31983e-07
-5.31983e-07
-5.31983e-07
-5.31983e-07
-5.26062e-07
-5.27039e-07
-5.27776e-07
-5.31983e-07
-5.31983e-07
-5.31983e-07
-5.31983e-07
-5.31983e-07
-5.31983e-07
-5.26106e-07
-5.24617e-07
-5.25137e-07
-5.27745e-07
-5.31983e-07
-5.31983e-07
-5.31983e-07
-5.31983e-07
-5.26146e-07
-5.26581e-07
-5.2462e-07
-5.25071e-07
-5.27011e-07
-5.26325e-07
-5.25998e-07
-5.26057e-07
-5.26109e-07
-5.26584e-07
-5.24708e-07
-5.24521e-07
-5.2504e-07
-5.27034e-07
-5.24616e-07
-5.24618e-07
-5.45498e-07
-5.45634e-07
-5.45863e-07
-5.48337e-07
-5.48319e-07
-5.48582e-07
-5.4822e-07
-5.45579e-07
-5.45518e-07
-5.45853e-07
-5.49609e-07
-5.5243e-07
-5.5243e-07
-5.5243e-07
-5.5243e-07
-5.48185e-07
-5.47455e-07
-5.48341e-07
-5.5243e-07
-5.5243e-07
-5.5243e-07
-5.5243e-07
-5.5243e-07
-5.5243e-07
-5.46771e-07
-5.44967e-07
-5.4549e-07
-5.48316e-07
-5.5243e-07
-5.5243e-07
-5.5243e-07
-5.5243e-07
-5.5243e-07
-5.5243e-07
-5.46448e-07
-5.45491e-07
-5.45634e-07
-5.48585e-07
-5.5243e-07
-5.5243e-07
-5.5243e-07
-5.5243e-07
-5.5243e-07
-5.5243e-07
-5.46509e-07
-5.47486e-07
-5.48222e-07
-5.5243e-07
-5.5243e-07
-5.5243e-07
-5.5243e-07
-5.5243e-07
-5.5243e-07
-5.46552e-07
-5.45064e-07
-5.45584e-07
-5.48191e-07
-5.5243e-07
-5.5243e-07
-5.5243e-07
-5.5243e-07
-5.46593e-07
-5.47028e-07
-5.45067e-07
-5.45518e-07
-5.47458e-07
-5.46772e-07
-5.46445e-07
-5.46504e-07
-5.46556e-07
-5.4703e-07
-5.45155e-07
-5.44968e-07
-5.45486e-07
-5.4748e-07
-5.45062e-07
-5.45065e-07
-5.65944e-07
-5.6608e-07
-5.66309e-07
-5.68782e-07
-5.68765e-07
-5.69028e-07
-5.68666e-07
-5.66026e-07
-5.65965e-07
-5.66299e-07
-5.70055e-07
-5.72876e-07
-5.72876e-07
-5.72876e-07
-5.72876e-07
-5.68631e-07
-5.679e-07
-5.68788e-07
-5.72876e-07
-5.72875e-07
-5.72876e-07
-5.72876e-07
-5.72876e-07
-5.72876e-07
-5.67217e-07
-5.65412e-07
-5.65936e-07
-5.68761e-07
-5.72876e-07
-5.72876e-07
-5.72876e-07
-5.72876e-07
-5.72876e-07
-5.72876e-07
-5.66893e-07
-5.65937e-07
-5.6608e-07
-5.69031e-07
-5.72876e-07
-5.72876e-07
-5.72876e-07
-5.72876e-07
-5.72876e-07
-5.72876e-07
-5.66955e-07
-5.67932e-07
-5.68668e-07
-5.72876e-07
-5.72876e-07
-5.72876e-07
-5.72876e-07
-5.72876e-07
-5.72876e-07
-5.66998e-07
-5.6551e-07
-5.6603e-07
-5.68637e-07
-5.72876e-07
-5.72876e-07
-5.72876e-07
-5.72876e-07
-5.67039e-07
-5.67474e-07
-5.65513e-07
-5.65964e-07
-5.67904e-07
-5.67217e-07
-5.6689e-07
-5.6695e-07
-5.67002e-07
-5.67476e-07
-5.65601e-07
-5.65414e-07
-5.65932e-07
-5.67926e-07
-5.65508e-07
-5.65511e-07
-5.8639e-07
-5.86526e-07
-5.86755e-07
-5.89228e-07
-5.89211e-07
-5.89474e-07
-5.89111e-07
-5.8647e-07
-5.86411e-07
-5.86745e-07
-5.90501e-07
-5.93323e-07
-5.93322e-07
-5.93323e-07
-5.93322e-07
-5.89078e-07
-5.88347e-07
-5.89233e-07
-5.93322e-07
-5.93321e-07
-5.93321e-07
-5.93321e-07
-5.93321e-07
-5.93322e-07
-5.87663e-07
-5.85859e-07
-5.86383e-07
-5.89209e-07
-5.93322e-07
-5.93322e-07
-5.93322e-07
-5.93322e-07
-5.93322e-07
-5.93322e-07
-5.87339e-07
-5.86383e-07
-5.86526e-07
-5.89477e-07
-5.93322e-07
-5.93322e-07
-5.93322e-07
-5.93322e-07
-5.93322e-07
-5.93322e-07
-5.87401e-07
-5.88378e-07
-5.89115e-07
-5.93322e-07
-5.93322e-07
-5.93322e-07
-5.93322e-07
-5.93322e-07
-5.93322e-07
-5.87444e-07
-5.85956e-07
-5.86476e-07
-5.89084e-07
-5.93322e-07
-5.93322e-07
-5.93322e-07
-5.93322e-07
-5.87485e-07
-5.8792e-07
-5.85959e-07
-5.8641e-07
-5.8835e-07
-5.87664e-07
-5.87336e-07
-5.87396e-07
-5.87448e-07
-5.87922e-07
-5.86047e-07
-5.8586e-07
-5.86378e-07
-5.88372e-07
-5.85954e-07
-5.85957e-07
-6.06836e-07
-6.06972e-07
-6.07201e-07
-6.09674e-07
-6.09656e-07
-6.09919e-07
-6.09556e-07
-6.06916e-07
-6.06856e-07
-6.0719e-07
-6.10946e-07
-6.13766e-07
-6.13766e-07
-6.13767e-07
-6.13767e-07
-6.09523e-07
-6.08792e-07
-6.09677e-07
-6.13767e-07
-6.13766e-07
-6.13766e-07
-6.13766e-07
-6.13767e-07
-6.13767e-07
-6.08109e-07
-6.06303e-07
-6.06827e-07
-6.09653e-07
-6.13767e-07
-6.13767e-07
-6.13767e-07