/*--------------------------------*- C++ -*----------------------------------*\
| =========                 |                                                 |
| \\      /  F ield         | OpenFOAM: The Open Source CFD Toolbox           |
|  \\    /   O peration     | Version:  v1906                                 |
|   \\  /    A nd           | Web:      www.OpenFOAM.com                      |
|    \\/     M anipulation  |                                                 |
\*---------------------------------------------------------------------------*/
FoamFile
{
    version     2.0;
    format      ascii;
    class       volScalarField;
    location    "0.2";
    object      p;
}
// * * * * * * * * * * * * * * * * * * * * * * * * * * * * * * * * * * * * * //

dimensions      [0 2 -2 0 0 0 0];


internalField   nonuniform List<scalar> 
247104
(
-2.23139e-11
1.40673e-09
1.44608e-09
1.27226e-09
1.0548e-09
1.31665e-09
1.44855e-09
1.33327e-09
1.43722e-09
1.48088e-09
1.51157e-09
1.29886e-09
1.16275e-09
1.33014e-09
1.52572e-09
1.45388e-09
1.53755e-09
1.55583e-09
1.24191e-09
8.46977e-10
6.87859e-10
8.88047e-10
1.29166e-09
1.56954e-09
1.52577e-09
1.43679e-09
1.38815e-09
8.86145e-10
3.88249e-10
2.06889e-10
4.3593e-10
9.54667e-10
1.42359e-09
1.40518e-09
1.26665e-09
1.2837e-09
1.28392e-09
7.56584e-10
2.37055e-10
5.04155e-11
2.85888e-10
8.2789e-10
1.31851e-09
1.23367e-09
1.50582e-09
1.45955e-09
9.7452e-10
4.87556e-10
3.08877e-10
5.33636e-10
1.03968e-09
1.4911e-09
1.47598e-09
1.60438e-09
1.65157e-09
1.38654e-09
1.02031e-09
8.67688e-10
1.05764e-09
1.42831e-09
1.65555e-09
1.58759e-09
1.46943e-09
1.57321e-09
1.66683e-09
1.49726e-09
1.36999e-09
1.52275e-09
1.66995e-09
1.53324e-09
1.62027e-09
1.48117e-09
1.29229e-09
1.51785e-09
1.61302e-09
-3.26838e-08
-3.47667e-08
-3.4873e-08
-3.6029e-08
-3.61704e-08
-3.62451e-08
-3.6241e-08
-3.47984e-08
-3.44298e-08
-3.48668e-08
-3.69411e-08
-3.99137e-08
-4.00146e-08
-4.00151e-08
-3.9913e-08
-3.65387e-08
-3.63284e-08
-3.60156e-08
-3.99086e-08
-3.99824e-08
-3.99423e-08
-3.99422e-08
-3.99822e-08
-3.99071e-08
-3.60931e-08
-3.51743e-08
-3.26539e-08
-3.61534e-08
-4.00051e-08
-3.99371e-08
-3.98303e-08
-3.98303e-08
-3.9937e-08
-4.00041e-08
-3.62205e-08
-3.45473e-08
-3.47199e-08
-3.62204e-08
-4.00008e-08
-3.99325e-08
-3.98255e-08
-3.98255e-08
-3.99323e-08
-3.99996e-08
-3.607e-08
-3.6298e-08
-3.62104e-08
-3.98964e-08
-3.9969e-08
-3.99281e-08
-3.9928e-08
-3.99685e-08
-3.98953e-08
-3.62203e-08
-3.53496e-08
-3.47641e-08
-3.65157e-08
-3.9892e-08
-3.9992e-08
-3.99928e-08
-3.98921e-08
-3.64026e-08
-3.60973e-08
-3.46917e-08
-3.4391e-08
-3.6304e-08
-3.60679e-08
-3.62004e-08
-3.60564e-08
-3.62131e-08
-3.60948e-08
-3.38424e-08
-3.51403e-08
-3.45255e-08
-3.62825e-08
-3.53405e-08
-3.46827e-08
-5.28537e-08
-5.30583e-08
-5.32121e-08
-5.54091e-08
-5.54697e-08
-5.5475e-08
-5.5426e-08
-5.31312e-08
-5.29563e-08
-5.31963e-08
-5.61099e-08
-5.9151e-08
-5.93213e-08
-5.93219e-08
-5.91525e-08
-5.53848e-08
-5.49404e-08
-5.5405e-08
-5.91615e-08
-5.95693e-08
-5.95711e-08
-5.95708e-08
-5.9568e-08
-5.91518e-08
-5.45774e-08
-5.25832e-08
-5.28446e-08
-5.54643e-08
-5.93214e-08
-5.95713e-08
-5.95539e-08
-5.95534e-08
-5.95697e-08
-5.93178e-08
-5.45566e-08
-5.29252e-08
-5.30482e-08
-5.54673e-08
-5.93203e-08
-5.95704e-08
-5.95528e-08
-5.95521e-08
-5.95679e-08
-5.93167e-08
-5.46318e-08
-5.49317e-08
-5.54185e-08
-5.91541e-08
-5.95662e-08
-5.95678e-08
-5.9567e-08
-5.95635e-08
-5.91489e-08
-5.45174e-08
-5.25528e-08
-5.31229e-08
-5.53796e-08
-5.915e-08
-5.93146e-08
-5.93157e-08
-5.91459e-08
-5.48886e-08
-5.47155e-08
-5.26378e-08
-5.29463e-08
-5.49333e-08
-5.45713e-08
-5.45513e-08
-5.46275e-08
-5.4514e-08
-5.47148e-08
-5.26244e-08
-5.25768e-08
-5.29159e-08
-5.49264e-08
-5.25438e-08
-5.26386e-08
-7.24679e-08
-7.26437e-08
-7.27446e-08
-7.5049e-08
-7.5095e-08
-7.51996e-08
-7.50028e-08
-7.27009e-08
-7.24983e-08
-7.27449e-08
-7.59176e-08
-7.88559e-08
-7.8917e-08
-7.89178e-08
-7.88573e-08
-7.51043e-08
-7.44183e-08
-7.50442e-08
-7.88536e-08
-7.90269e-08
-7.90321e-08
-7.90323e-08
-7.90269e-08
-7.88547e-08
-7.41345e-08
-7.21778e-08
-7.24608e-08
-7.50895e-08
-7.89152e-08
-7.90321e-08
-7.90314e-08
-7.90313e-08
-7.90314e-08
-7.89145e-08
-7.40332e-08
-7.25564e-08
-7.26378e-08
-7.51943e-08
-7.89158e-08
-7.90315e-08
-7.90308e-08
-7.90307e-08
-7.90307e-08
-7.89151e-08
-7.40761e-08
-7.44227e-08
-7.50003e-08
-7.88555e-08
-7.90252e-08
-7.90302e-08
-7.90305e-08
-7.90251e-08
-7.88536e-08
-7.405e-08
-7.21894e-08
-7.26976e-08
-7.5104e-08
-7.88522e-08
-7.89119e-08
-7.8913e-08
-7.88506e-08
-7.42625e-08
-7.42227e-08
-7.21947e-08
-7.24983e-08
-7.44176e-08
-7.41312e-08
-7.40292e-08
-7.40721e-08
-7.40468e-08
-7.42224e-08
-7.22182e-08
-7.21744e-08
-7.25506e-08
-7.44106e-08
-7.21828e-08
-7.21923e-08
-9.20758e-08
-9.22453e-08
-9.24174e-08
-9.47251e-08
-9.47832e-08
-9.49392e-08
-9.4686e-08
-9.23621e-08
-9.21708e-08
-9.2419e-08
-9.5648e-08
-9.85646e-08
-9.85842e-08
-9.85846e-08
-9.8567e-08
-9.48558e-08
-9.40539e-08
-9.47272e-08
-9.85662e-08
-9.8614e-08
-9.86168e-08
-9.86171e-08
-9.8615e-08
-9.85656e-08
-9.3751e-08
-9.18037e-08
-9.20708e-08
-9.47833e-08
-9.85837e-08
-9.86162e-08
-9.86165e-08
-9.86167e-08
-9.86166e-08
-9.85845e-08
-9.35844e-08
-9.21223e-08
-9.22449e-08
-9.4938e-08
-9.85831e-08
-9.86158e-08
-9.8616e-08
-9.86163e-08
-9.86164e-08
-9.85841e-08
-9.3608e-08
-9.39781e-08
-9.46827e-08
-9.85639e-08
-9.86127e-08
-9.86153e-08
-9.86158e-08
-9.86139e-08
-9.85658e-08
-9.36422e-08
-9.17655e-08
-9.23543e-08
-9.48481e-08
-9.85619e-08
-9.85821e-08
-9.85831e-08
-9.85654e-08
-9.3795e-08
-9.38251e-08
-9.18306e-08
-9.21576e-08
-9.4046e-08
-9.37457e-08
-9.35814e-08
-9.36069e-08
-9.36424e-08
-9.38322e-08
-9.1878e-08
-9.17977e-08
-9.21177e-08
-9.39743e-08
-9.17617e-08
-9.18295e-08
-1.11716e-07
-1.11882e-07
-1.12072e-07
-1.1439e-07
-1.14449e-07
-1.14615e-07
-1.14353e-07
-1.12016e-07
-1.11816e-07
-1.12073e-07
-1.15323e-07
-1.18241e-07
-1.18246e-07
-1.18247e-07
-1.18242e-07
-1.14548e-07
-1.13736e-07
-1.14394e-07
-1.1824e-07
-1.18253e-07
-1.18254e-07
-1.18254e-07
-1.18254e-07
-1.18241e-07
-1.13402e-07
-1.11453e-07
-1.11711e-07
-1.1445e-07
-1.18246e-07
-1.18254e-07
-1.18254e-07
-1.18254e-07
-1.18254e-07
-1.18246e-07
-1.13216e-07
-1.11745e-07
-1.1188e-07
-1.14615e-07
-1.18245e-07
-1.18253e-07
-1.18253e-07
-1.18254e-07
-1.18254e-07
-1.18245e-07
-1.13226e-07
-1.13601e-07
-1.1435e-07
-1.18238e-07
-1.18252e-07
-1.18253e-07
-1.18254e-07
-1.18253e-07
-1.18241e-07
-1.13285e-07
-1.11392e-07
-1.12009e-07
-1.14547e-07
-1.18238e-07
-1.18245e-07
-1.18245e-07
-1.18241e-07
-1.13411e-07
-1.13465e-07
-1.11483e-07
-1.11806e-07
-1.13734e-07
-1.13399e-07
-1.13214e-07
-1.13225e-07
-1.13283e-07
-1.13472e-07
-1.11533e-07
-1.11448e-07
-1.1174e-07
-1.13599e-07
-1.1139e-07
-1.11483e-07
-1.31375e-07
-1.3154e-07
-1.31734e-07
-1.34055e-07
-1.34116e-07
-1.34283e-07
-1.3402e-07
-1.31679e-07
-1.31478e-07
-1.31731e-07
-1.34987e-07
-1.37907e-07
-1.37909e-07
-1.37909e-07
-1.37908e-07
-1.34222e-07
-1.33393e-07
-1.34058e-07
-1.37907e-07
-1.3791e-07
-1.3791e-07
-1.3791e-07
-1.3791e-07
-1.37907e-07
-1.33065e-07
-1.31113e-07
-1.3137e-07
-1.34115e-07
-1.37908e-07
-1.3791e-07
-1.37909e-07
-1.3791e-07
-1.3791e-07
-1.37909e-07
-1.32871e-07
-1.31399e-07
-1.31539e-07
-1.34283e-07
-1.37908e-07
-1.3791e-07
-1.37909e-07
-1.3791e-07
-1.3791e-07
-1.37909e-07
-1.32879e-07
-1.33255e-07
-1.34021e-07
-1.37908e-07
-1.37909e-07
-1.3791e-07
-1.3791e-07
-1.3791e-07
-1.37907e-07
-1.32946e-07
-1.31047e-07
-1.31677e-07
-1.34227e-07
-1.37907e-07
-1.37908e-07
-1.37908e-07
-1.37908e-07
-1.33059e-07
-1.33121e-07
-1.31144e-07
-1.31444e-07
-1.33397e-07
-1.33062e-07
-1.32872e-07
-1.32879e-07
-1.32947e-07
-1.3313e-07
-1.31196e-07
-1.31111e-07
-1.31396e-07
-1.33255e-07
-1.3105e-07
-1.31144e-07
-1.51035e-07
-1.51199e-07
-1.51394e-07
-1.53712e-07
-1.53774e-07
-1.53941e-07
-1.53678e-07
-1.51339e-07
-1.51139e-07
-1.5139e-07
-1.54645e-07
-1.57561e-07
-1.57562e-07
-1.57561e-07
-1.57562e-07
-1.53879e-07
-1.5305e-07
-1.53718e-07
-1.57562e-07
-1.57562e-07
-1.57561e-07
-1.57561e-07
-1.57562e-07
-1.57562e-07
-1.52723e-07
-1.50773e-07
-1.5103e-07
-1.53775e-07
-1.57562e-07
-1.57561e-07
-1.57561e-07
-1.5756e-07
-1.57561e-07
-1.57562e-07
-1.52525e-07
-1.51057e-07
-1.51199e-07
-1.53943e-07
-1.57562e-07
-1.57561e-07
-1.57561e-07
-1.5756e-07
-1.57561e-07
-1.57562e-07
-1.52532e-07
-1.52912e-07
-1.53681e-07
-1.57561e-07
-1.57562e-07
-1.57561e-07
-1.57561e-07
-1.57562e-07
-1.57562e-07
-1.52601e-07
-1.50706e-07
-1.51339e-07
-1.53886e-07
-1.57561e-07
-1.57562e-07
-1.57562e-07
-1.57562e-07
-1.52714e-07
-1.52778e-07
-1.50804e-07
-1.51105e-07
-1.53055e-07
-1.52722e-07
-1.52525e-07
-1.52533e-07
-1.52602e-07
-1.52786e-07
-1.50855e-07
-1.50771e-07
-1.51055e-07
-1.52912e-07
-1.50708e-07
-1.50804e-07
-1.70672e-07
-1.70836e-07
-1.7103e-07
-1.73349e-07
-1.73409e-07
-1.73578e-07
-1.73315e-07
-1.70975e-07
-1.70775e-07
-1.71027e-07
-1.7428e-07
-1.77197e-07
-1.77198e-07
-1.77198e-07
-1.77197e-07
-1.73517e-07
-1.72686e-07
-1.73354e-07
-1.77197e-07
-1.77198e-07
-1.77197e-07
-1.77197e-07
-1.77197e-07
-1.77197e-07
-1.72356e-07
-1.7041e-07
-1.70667e-07
-1.73411e-07
-1.77197e-07
-1.77197e-07
-1.77197e-07
-1.77197e-07
-1.77197e-07
-1.77198e-07
-1.7216e-07
-1.70693e-07
-1.70836e-07
-1.73579e-07
-1.77197e-07
-1.77197e-07
-1.77197e-07
-1.77197e-07
-1.77197e-07
-1.77197e-07
-1.72168e-07
-1.72547e-07
-1.73317e-07
-1.77197e-07
-1.77197e-07
-1.77197e-07
-1.77197e-07
-1.77198e-07
-1.77197e-07
-1.72237e-07
-1.70343e-07
-1.70975e-07
-1.73523e-07
-1.77197e-07
-1.77197e-07
-1.77197e-07
-1.77197e-07
-1.72346e-07
-1.72412e-07
-1.70441e-07
-1.70742e-07
-1.72691e-07
-1.72359e-07
-1.72162e-07
-1.72169e-07
-1.72238e-07
-1.72421e-07
-1.70491e-07
-1.70408e-07
-1.70692e-07
-1.72547e-07
-1.70344e-07
-1.70441e-07
-1.90301e-07
-1.90466e-07
-1.90662e-07
-1.92981e-07
-1.93041e-07
-1.9321e-07
-1.92947e-07
-1.90606e-07
-1.90406e-07
-1.90659e-07
-1.93912e-07
-1.96832e-07
-1.96832e-07
-1.96832e-07
-1.96832e-07
-1.93151e-07
-1.92318e-07
-1.92986e-07
-1.96831e-07
-1.96832e-07
-1.96832e-07
-1.96832e-07
-1.96832e-07
-1.96832e-07
-1.91989e-07
-1.90041e-07
-1.90297e-07
-1.93043e-07
-1.96832e-07
-1.96832e-07
-1.96832e-07
-1.96832e-07
-1.96832e-07
-1.96832e-07
-1.91794e-07
-1.90324e-07
-1.90466e-07
-1.93212e-07
-1.96832e-07
-1.96832e-07
-1.96832e-07
-1.96832e-07
-1.96832e-07
-1.96832e-07
-1.91801e-07
-1.92179e-07
-1.92949e-07
-1.96832e-07
-1.96832e-07
-1.96832e-07
-1.96832e-07
-1.96832e-07
-1.96832e-07
-1.91869e-07
-1.89973e-07
-1.90606e-07
-1.93156e-07
-1.96832e-07
-1.96832e-07
-1.96832e-07
-1.96832e-07
-1.9198e-07
-1.92044e-07
-1.90071e-07
-1.90373e-07
-1.92324e-07
-1.91991e-07
-1.91794e-07
-1.91801e-07
-1.91871e-07
-1.92053e-07
-1.90122e-07
-1.90038e-07
-1.90322e-07
-1.92178e-07
-1.89974e-07
-1.90071e-07
-2.09944e-07
-2.10108e-07
-2.10303e-07
-2.12624e-07
-2.12682e-07
-2.12851e-07
-2.12588e-07
-2.10246e-07
-2.10048e-07
-2.103e-07
-2.13551e-07
-2.16469e-07
-2.16469e-07
-2.16469e-07
-2.16469e-07
-2.12791e-07
-2.11958e-07
-2.12627e-07
-2.16469e-07
-2.16469e-07
-2.16469e-07
-2.16469e-07
-2.16469e-07
-2.1647e-07
-2.1163e-07
-2.09683e-07
-2.09939e-07
-2.12684e-07
-2.16469e-07
-2.16469e-07
-2.16468e-07
-2.16468e-07
-2.16469e-07
-2.16469e-07
-2.11434e-07
-2.09966e-07
-2.10108e-07
-2.12853e-07
-2.16469e-07
-2.16469e-07
-2.16468e-07
-2.16468e-07
-2.16469e-07
-2.16469e-07
-2.11441e-07
-2.1182e-07
-2.1259e-07
-2.1647e-07
-2.16469e-07
-2.16469e-07
-2.16469e-07
-2.16469e-07
-2.1647e-07
-2.11509e-07
-2.09615e-07
-2.10248e-07
-2.12796e-07
-2.1647e-07
-2.16469e-07
-2.16469e-07
-2.1647e-07
-2.11619e-07
-2.11685e-07
-2.09713e-07
-2.10015e-07
-2.11965e-07
-2.11631e-07
-2.11434e-07
-2.11441e-07
-2.1151e-07
-2.11694e-07
-2.09764e-07
-2.0968e-07
-2.09964e-07
-2.11819e-07
-2.09616e-07
-2.09713e-07
-2.29574e-07
-2.29738e-07
-2.2992e-07
-2.32251e-07
-2.3231e-07
-2.32478e-07
-2.32215e-07
-2.29874e-07
-2.29677e-07
-2.29917e-07
-2.33189e-07
-2.36094e-07
-2.36093e-07
-2.36092e-07
-2.36092e-07
-2.32415e-07
-2.31585e-07
-2.32253e-07
-2.36094e-07
-2.36093e-07
-2.36092e-07
-2.36092e-07
-2.36092e-07
-2.36092e-07
-2.31256e-07
-2.29312e-07
-2.29569e-07
-2.32311e-07
-2.36093e-07
-2.36092e-07
-2.36092e-07
-2.36091e-07
-2.36092e-07
-2.36092e-07
-2.31059e-07
-2.29595e-07
-2.29738e-07
-2.3248e-07
-2.36093e-07
-2.36092e-07
-2.36091e-07
-2.36091e-07
-2.36092e-07
-2.36092e-07
-2.31066e-07
-2.31448e-07
-2.32217e-07
-2.36093e-07
-2.36092e-07
-2.36092e-07
-2.36092e-07
-2.36092e-07
-2.36092e-07
-2.31135e-07
-2.29244e-07
-2.29877e-07
-2.32422e-07
-2.36092e-07
-2.36092e-07
-2.36092e-07
-2.36092e-07
-2.31244e-07
-2.31311e-07
-2.29343e-07
-2.29645e-07
-2.31592e-07
-2.31257e-07
-2.3106e-07
-2.31067e-07
-2.31136e-07
-2.3132e-07
-2.29393e-07
-2.2931e-07
-2.29593e-07
-2.31447e-07
-2.29245e-07
-2.29343e-07
-2.49184e-07
-2.49347e-07
-2.49544e-07
-2.51862e-07
-2.5192e-07
-2.52088e-07
-2.51824e-07
-2.49484e-07
-2.49288e-07
-2.49543e-07
-2.52791e-07
-2.55703e-07
-2.55703e-07
-2.55703e-07
-2.55703e-07
-2.52024e-07
-2.51195e-07
-2.51861e-07
-2.55703e-07
-2.55703e-07
-2.55703e-07
-2.55703e-07
-2.55703e-07
-2.55703e-07
-2.50865e-07
-2.48921e-07
-2.49178e-07
-2.5192e-07
-2.55703e-07
-2.55703e-07
-2.55703e-07
-2.55703e-07
-2.55703e-07
-2.55703e-07
-2.50669e-07
-2.49204e-07
-2.49348e-07
-2.52089e-07
-2.55703e-07
-2.55703e-07
-2.55703e-07
-2.55703e-07
-2.55703e-07
-2.55703e-07
-2.50676e-07
-2.51057e-07
-2.51826e-07
-2.55703e-07
-2.55703e-07
-2.55703e-07
-2.55703e-07
-2.55703e-07
-2.55703e-07
-2.50745e-07
-2.48853e-07
-2.49487e-07
-2.52032e-07
-2.55703e-07
-2.55703e-07
-2.55703e-07
-2.55703e-07
-2.50854e-07
-2.50921e-07
-2.48952e-07
-2.49254e-07
-2.51201e-07
-2.50867e-07
-2.5067e-07
-2.50677e-07
-2.50746e-07
-2.5093e-07
-2.49002e-07
-2.48919e-07
-2.49203e-07
-2.51056e-07
-2.48854e-07
-2.48952e-07
-2.68795e-07
-2.68959e-07
-2.69155e-07
-2.71472e-07
-2.71531e-07
-2.71699e-07
-2.71435e-07
-2.69097e-07
-2.689e-07
-2.69153e-07
-2.724e-07
-2.75312e-07
-2.75312e-07
-2.75312e-07
-2.75312e-07
-2.71635e-07
-2.70806e-07
-2.71472e-07
-2.75312e-07
-2.75312e-07
-2.75311e-07
-2.75312e-07
-2.75312e-07
-2.75313e-07
-2.70477e-07
-2.68533e-07
-2.68789e-07
-2.71531e-07
-2.75312e-07
-2.75311e-07
-2.75311e-07
-2.75311e-07
-2.75312e-07
-2.75312e-07
-2.7028e-07
-2.68816e-07
-2.68959e-07
-2.717e-07
-2.75312e-07
-2.75312e-07
-2.75311e-07
-2.75312e-07
-2.75312e-07
-2.75313e-07
-2.70288e-07
-2.70669e-07
-2.71438e-07
-2.75313e-07
-2.75312e-07
-2.75312e-07
-2.75312e-07
-2.75312e-07
-2.75313e-07
-2.70356e-07
-2.68465e-07
-2.69098e-07
-2.71643e-07
-2.75313e-07
-2.75313e-07
-2.75313e-07
-2.75313e-07
-2.70465e-07
-2.70532e-07
-2.68564e-07
-2.68866e-07
-2.70813e-07
-2.70478e-07
-2.70281e-07
-2.70288e-07
-2.70357e-07
-2.70541e-07
-2.68614e-07
-2.68531e-07
-2.68814e-07
-2.70668e-07
-2.68466e-07
-2.68564e-07
-2.88398e-07
-2.88562e-07
-2.88743e-07
-2.91072e-07
-2.91131e-07
-2.91299e-07
-2.91035e-07
-2.887e-07
-2.88504e-07
-2.88738e-07
-2.92007e-07
-2.94909e-07
-2.94909e-07
-2.94909e-07
-2.9491e-07
-2.91235e-07
-2.90408e-07
-2.91074e-07
-2.94909e-07
-2.94909e-07
-2.94909e-07
-2.94909e-07
-2.94909e-07
-2.9491e-07
-2.90077e-07
-2.88137e-07
-2.88393e-07
-2.91132e-07
-2.94909e-07
-2.94909e-07
-2.94909e-07
-2.94909e-07
-2.94909e-07
-2.9491e-07
-2.89881e-07
-2.88419e-07
-2.88563e-07
-2.91302e-07
-2.9491e-07
-2.94909e-07
-2.94909e-07
-2.94909e-07
-2.94909e-07
-2.9491e-07
-2.89888e-07
-2.90271e-07
-2.91039e-07
-2.9491e-07
-2.9491e-07
-2.94909e-07
-2.94909e-07
-2.9491e-07
-2.9491e-07
-2.89957e-07
-2.88069e-07
-2.88701e-07
-2.91244e-07
-2.9491e-07
-2.9491e-07
-2.9491e-07
-2.9491e-07
-2.90065e-07
-2.90134e-07
-2.88168e-07
-2.88469e-07
-2.90414e-07
-2.90079e-07
-2.89881e-07
-2.89888e-07
-2.89957e-07
-2.90143e-07
-2.88217e-07
-2.88135e-07
-2.88418e-07
-2.9027e-07
-2.88069e-07
-2.88168e-07
-3.07984e-07
-3.08148e-07
-3.08335e-07
-3.10659e-07
-3.10717e-07
-3.10885e-07
-3.10621e-07
-3.08286e-07
-3.08089e-07
-3.08331e-07
-3.11595e-07
-3.14495e-07
-3.14495e-07
-3.14495e-07
-3.14495e-07
-3.10821e-07
-3.09993e-07
-3.10661e-07
-3.14495e-07
-3.14494e-07
-3.14495e-07
-3.14495e-07
-3.14495e-07
-3.14495e-07
-3.09662e-07
-3.07722e-07
-3.07979e-07
-3.10718e-07
-3.14495e-07
-3.14495e-07
-3.14494e-07
-3.14494e-07
-3.14495e-07
-3.14495e-07
-3.09466e-07
-3.08004e-07
-3.08148e-07
-3.10887e-07
-3.14495e-07
-3.14495e-07
-3.14494e-07
-3.14494e-07
-3.14495e-07
-3.14495e-07
-3.09473e-07
-3.09855e-07
-3.10624e-07
-3.14495e-07
-3.14495e-07
-3.14495e-07
-3.14495e-07
-3.14495e-07
-3.14495e-07
-3.09542e-07
-3.07654e-07
-3.08287e-07
-3.10829e-07
-3.14495e-07
-3.14495e-07
-3.14495e-07
-3.14495e-07
-3.0965e-07
-3.09718e-07
-3.07753e-07
-3.08055e-07
-3.09999e-07
-3.09664e-07
-3.09467e-07
-3.09475e-07
-3.09543e-07
-3.09728e-07
-3.07802e-07
-3.0772e-07
-3.08002e-07
-3.09856e-07
-3.07655e-07
-3.07753e-07
-3.27567e-07
-3.27731e-07
-3.27919e-07
-3.30241e-07
-3.30299e-07
-3.30467e-07
-3.30203e-07
-3.27869e-07
-3.27672e-07
-3.27916e-07
-3.31177e-07
-3.34075e-07
-3.34075e-07
-3.34075e-07
-3.34075e-07
-3.30402e-07
-3.29575e-07
-3.30243e-07
-3.34075e-07
-3.34074e-07
-3.34074e-07
-3.34074e-07
-3.34074e-07
-3.34075e-07
-3.29244e-07
-3.27304e-07
-3.27562e-07
-3.303e-07
-3.34075e-07
-3.34074e-07
-3.34074e-07
-3.34074e-07
-3.34074e-07
-3.34075e-07
-3.29047e-07
-3.27587e-07
-3.27731e-07
-3.30469e-07
-3.34075e-07
-3.34074e-07
-3.34074e-07
-3.34074e-07
-3.34074e-07
-3.34075e-07
-3.29054e-07
-3.29437e-07
-3.30206e-07
-3.34075e-07
-3.34074e-07
-3.34074e-07
-3.34074e-07
-3.34074e-07
-3.34075e-07
-3.29123e-07
-3.27237e-07
-3.27869e-07
-3.3041e-07
-3.34075e-07
-3.34075e-07
-3.34075e-07
-3.34075e-07
-3.29231e-07
-3.293e-07
-3.27336e-07
-3.27637e-07
-3.29581e-07
-3.29245e-07
-3.29048e-07
-3.29055e-07
-3.29123e-07
-3.29309e-07
-3.27384e-07
-3.27302e-07
-3.27585e-07
-3.29436e-07
-3.27237e-07
-3.27336e-07
-3.47138e-07
-3.47302e-07
-3.47489e-07
-3.49811e-07
-3.49869e-07
-3.50037e-07
-3.49772e-07
-3.47439e-07
-3.47243e-07
-3.47485e-07
-3.50748e-07
-3.53645e-07
-3.53646e-07
-3.53645e-07
-3.53645e-07
-3.49972e-07
-3.49145e-07
-3.49812e-07
-3.53645e-07
-3.53646e-07
-3.53646e-07
-3.53646e-07
-3.53646e-07
-3.53645e-07
-3.48814e-07
-3.46875e-07
-3.47133e-07
-3.4987e-07
-3.53645e-07
-3.53646e-07
-3.53646e-07
-3.53646e-07
-3.53646e-07
-3.53646e-07
-3.48618e-07
-3.47157e-07
-3.47302e-07
-3.50039e-07
-3.53645e-07
-3.53646e-07
-3.53646e-07
-3.53646e-07
-3.53646e-07
-3.53646e-07
-3.48625e-07
-3.49007e-07
-3.49776e-07
-3.53645e-07
-3.53646e-07
-3.53646e-07
-3.53646e-07
-3.53646e-07
-3.53645e-07
-3.48693e-07
-3.46807e-07
-3.4744e-07
-3.4998e-07
-3.53645e-07
-3.53646e-07
-3.53646e-07
-3.53645e-07
-3.48801e-07
-3.4887e-07
-3.46906e-07
-3.47208e-07
-3.4915e-07
-3.48815e-07
-3.48618e-07
-3.48625e-07
-3.48694e-07
-3.48879e-07
-3.46954e-07
-3.46873e-07
-3.47156e-07
-3.49006e-07
-3.46808e-07
-3.46906e-07
-3.66707e-07
-3.66871e-07
-3.67059e-07
-3.69383e-07
-3.69442e-07
-3.6961e-07
-3.69346e-07
-3.6701e-07
-3.66812e-07
-3.67055e-07
-3.70322e-07
-3.73225e-07
-3.73225e-07
-3.73225e-07
-3.73225e-07
-3.69547e-07
-3.68718e-07
-3.69385e-07
-3.73225e-07
-3.73225e-07
-3.73226e-07
-3.73226e-07
-3.73225e-07
-3.73225e-07
-3.68388e-07
-3.66445e-07
-3.66702e-07
-3.69443e-07
-3.73225e-07
-3.73226e-07
-3.73226e-07
-3.73226e-07
-3.73226e-07
-3.73225e-07
-3.68193e-07
-3.66728e-07
-3.66871e-07
-3.69612e-07
-3.73225e-07
-3.73226e-07
-3.73226e-07
-3.73226e-07
-3.73226e-07
-3.73225e-07
-3.682e-07
-3.68579e-07
-3.69349e-07
-3.73225e-07
-3.73225e-07
-3.73226e-07
-3.73226e-07
-3.73225e-07
-3.73225e-07
-3.68268e-07
-3.66377e-07
-3.6701e-07
-3.69555e-07
-3.73225e-07
-3.73225e-07
-3.73225e-07
-3.73225e-07
-3.68378e-07
-3.68444e-07
-3.66476e-07
-3.66778e-07
-3.68723e-07
-3.6839e-07
-3.68193e-07
-3.68201e-07
-3.68269e-07
-3.68453e-07
-3.66526e-07
-3.66443e-07
-3.66726e-07
-3.68578e-07
-3.66378e-07
-3.66476e-07
-3.86307e-07
-3.86471e-07
-3.86658e-07
-3.88983e-07
-3.89042e-07
-3.89209e-07
-3.88945e-07
-3.86609e-07
-3.86411e-07
-3.86654e-07
-3.8992e-07
-3.92821e-07
-3.9282e-07
-3.9282e-07
-3.92821e-07
-3.89145e-07
-3.88317e-07
-3.88985e-07
-3.92821e-07
-3.9282e-07
-3.9282e-07
-3.9282e-07
-3.9282e-07
-3.92821e-07
-3.87987e-07
-3.86044e-07
-3.86301e-07
-3.89042e-07
-3.9282e-07
-3.9282e-07
-3.92819e-07
-3.92819e-07
-3.9282e-07
-3.9282e-07
-3.8779e-07
-3.86327e-07
-3.86471e-07
-3.89211e-07
-3.9282e-07
-3.9282e-07
-3.92819e-07
-3.92819e-07
-3.9282e-07
-3.9282e-07
-3.87797e-07
-3.88179e-07
-3.88948e-07
-3.92821e-07
-3.9282e-07
-3.9282e-07
-3.9282e-07
-3.9282e-07
-3.92821e-07
-3.87866e-07
-3.85977e-07
-3.86609e-07
-3.89153e-07
-3.92821e-07
-3.9282e-07
-3.9282e-07
-3.92821e-07
-3.87975e-07
-3.88043e-07
-3.86075e-07
-3.86377e-07
-3.88323e-07
-3.87988e-07
-3.87791e-07
-3.87798e-07
-3.87867e-07
-3.88052e-07
-3.86125e-07
-3.86042e-07
-3.86326e-07
-3.88179e-07
-3.85978e-07
-3.86075e-07
-4.05899e-07
-4.06062e-07
-4.06249e-07
-4.0857e-07
-4.08628e-07
-4.08795e-07
-4.08531e-07
-4.06199e-07
-4.06002e-07
-4.06245e-07
-4.09506e-07
-4.12399e-07
-4.12399e-07
-4.12399e-07
-4.12399e-07
-4.08729e-07
-4.07904e-07
-4.08572e-07
-4.12399e-07
-4.12399e-07
-4.12398e-07
-4.12398e-07
-4.12398e-07
-4.12399e-07
-4.07572e-07
-4.05635e-07
-4.05893e-07
-4.08629e-07
-4.12399e-07
-4.12398e-07
-4.12397e-07
-4.12397e-07
-4.12398e-07
-4.12399e-07
-4.07375e-07
-4.05917e-07
-4.06062e-07
-4.08797e-07
-4.12399e-07
-4.12398e-07
-4.12397e-07
-4.12397e-07
-4.12398e-07
-4.12399e-07
-4.07382e-07
-4.07767e-07
-4.08535e-07
-4.12399e-07
-4.12398e-07
-4.12398e-07
-4.12398e-07
-4.12398e-07
-4.12399e-07
-4.07451e-07
-4.05567e-07
-4.062e-07
-4.08737e-07
-4.12399e-07
-4.12399e-07
-4.12399e-07
-4.12399e-07
-4.07558e-07
-4.07629e-07
-4.05667e-07
-4.05968e-07
-4.0791e-07
-4.07573e-07
-4.07375e-07
-4.07382e-07
-4.07451e-07
-4.07637e-07
-4.05714e-07
-4.05633e-07
-4.05916e-07
-4.07766e-07
-4.05568e-07
-4.05666e-07
-4.25455e-07
-4.25619e-07
-4.25807e-07
-4.28126e-07
-4.28183e-07
-4.28351e-07
-4.28087e-07
-4.25754e-07
-4.25559e-07
-4.25803e-07
-4.29061e-07
-4.31954e-07
-4.31953e-07
-4.31953e-07
-4.31954e-07
-4.28285e-07
-4.27459e-07
-4.28127e-07
-4.31954e-07
-4.31953e-07
-4.31953e-07
-4.31953e-07
-4.31953e-07
-4.31954e-07
-4.27127e-07
-4.25192e-07
-4.2545e-07
-4.28184e-07
-4.31953e-07
-4.31953e-07
-4.31953e-07
-4.31953e-07
-4.31953e-07
-4.31953e-07
-4.2693e-07
-4.25474e-07
-4.25619e-07
-4.28353e-07
-4.31953e-07
-4.31953e-07
-4.31953e-07
-4.31953e-07
-4.31953e-07
-4.31953e-07
-4.26937e-07
-4.27322e-07
-4.2809e-07
-4.31954e-07
-4.31953e-07
-4.31953e-07
-4.31953e-07
-4.31953e-07
-4.31954e-07
-4.27006e-07
-4.25123e-07
-4.25756e-07
-4.28293e-07
-4.31954e-07
-4.31953e-07
-4.31953e-07
-4.31954e-07
-4.27113e-07
-4.27184e-07
-4.25223e-07
-4.25525e-07
-4.27465e-07
-4.27129e-07
-4.26931e-07
-4.26938e-07
-4.27007e-07
-4.27193e-07
-4.2527e-07
-4.2519e-07
-4.25472e-07
-4.27321e-07
-4.25125e-07
-4.25223e-07
-4.44999e-07
-4.45163e-07
-4.4535e-07
-4.4767e-07
-4.47728e-07
-4.47896e-07
-4.47632e-07
-4.45299e-07
-4.45103e-07
-4.45346e-07
-4.48607e-07
-4.51501e-07
-4.51501e-07
-4.51501e-07
-4.51501e-07
-4.47831e-07
-4.47004e-07
-4.47672e-07
-4.51501e-07
-4.51501e-07
-4.51501e-07
-4.51501e-07
-4.51501e-07
-4.51501e-07
-4.46673e-07
-4.44736e-07
-4.44994e-07
-4.47729e-07
-4.51501e-07
-4.51501e-07
-4.51502e-07
-4.51502e-07
-4.51501e-07
-4.51501e-07
-4.46476e-07
-4.45018e-07
-4.45163e-07
-4.47898e-07
-4.51501e-07
-4.51501e-07
-4.51502e-07
-4.51502e-07
-4.51501e-07
-4.51501e-07
-4.46483e-07
-4.46867e-07
-4.47635e-07
-4.51501e-07
-4.51501e-07
-4.51501e-07
-4.51501e-07
-4.51501e-07
-4.51501e-07
-4.46552e-07
-4.44668e-07
-4.45301e-07
-4.47839e-07
-4.51501e-07
-4.51501e-07
-4.51501e-07
-4.51501e-07
-4.46659e-07
-4.46729e-07
-4.44768e-07
-4.4507e-07
-4.4701e-07
-4.46674e-07
-4.46477e-07
-4.46484e-07
-4.46552e-07
-4.46738e-07
-4.44815e-07
-4.44734e-07
-4.45017e-07
-4.46866e-07
-4.44669e-07
-4.44767e-07
-4.64548e-07
-4.64711e-07
-4.64899e-07
-4.67221e-07
-4.6728e-07
-4.67447e-07
-4.67183e-07
-4.64847e-07
-4.64652e-07
-4.64895e-07
-4.68159e-07
-4.71057e-07
-4.71058e-07
-4.71058e-07
-4.71057e-07
-4.67384e-07
-4.66555e-07
-4.67223e-07
-4.71057e-07
-4.71058e-07
-4.71059e-07
-4.71059e-07
-4.71058e-07
-4.71057e-07
-4.66225e-07
-4.64285e-07
-4.64542e-07
-4.67281e-07
-4.71058e-07
-4.71059e-07
-4.71059e-07
-4.71059e-07
-4.71059e-07
-4.71058e-07
-4.66029e-07
-4.64568e-07
-4.64711e-07
-4.67449e-07
-4.71058e-07
-4.71059e-07
-4.71059e-07
-4.71059e-07
-4.71059e-07
-4.71058e-07
-4.66036e-07
-4.66417e-07
-4.67186e-07
-4.71057e-07
-4.71058e-07
-4.71059e-07
-4.71059e-07
-4.71058e-07
-4.71057e-07
-4.66104e-07
-4.64217e-07
-4.6485e-07
-4.67391e-07
-4.71057e-07
-4.71058e-07
-4.71058e-07
-4.71057e-07
-4.66213e-07
-4.66281e-07
-4.64316e-07
-4.64619e-07
-4.66561e-07
-4.66227e-07
-4.6603e-07
-4.66036e-07
-4.66105e-07
-4.66289e-07
-4.64365e-07
-4.64283e-07
-4.64566e-07
-4.66417e-07
-4.64218e-07
-4.64316e-07
-4.84121e-07
-4.84285e-07
-4.84472e-07
-4.86796e-07
-4.86855e-07
-4.87022e-07
-4.86758e-07
-4.84421e-07
-4.84225e-07
-4.84468e-07
-4.87734e-07
-4.90633e-07
-4.90633e-07
-4.90633e-07
-4.90633e-07
-4.86958e-07
-4.8613e-07
-4.86798e-07
-4.90633e-07
-4.90633e-07
-4.90633e-07
-4.90633e-07
-4.90633e-07
-4.90633e-07
-4.858e-07
-4.83858e-07
-4.84116e-07
-4.86856e-07
-4.90633e-07
-4.90633e-07
-4.90633e-07
-4.90633e-07
-4.90633e-07
-4.90633e-07
-4.85603e-07
-4.84141e-07
-4.84285e-07
-4.87024e-07
-4.90633e-07
-4.90633e-07
-4.90633e-07
-4.90633e-07
-4.90633e-07
-4.90633e-07
-4.8561e-07
-4.85992e-07
-4.86761e-07
-4.90633e-07
-4.90633e-07
-4.90633e-07
-4.90633e-07
-4.90633e-07
-4.90633e-07
-4.85679e-07
-4.83791e-07
-4.84424e-07
-4.86966e-07
-4.90633e-07
-4.90633e-07
-4.90633e-07
-4.90633e-07
-4.85788e-07
-4.85856e-07
-4.8389e-07
-4.84192e-07
-4.86136e-07
-4.85801e-07
-4.85604e-07
-4.85611e-07
-4.8568e-07
-4.85864e-07
-4.83939e-07
-4.83856e-07
-4.8414e-07
-4.85992e-07
-4.83792e-07
-4.83889e-07
-5.03703e-07
-5.03866e-07
-5.04054e-07
-5.06375e-07
-5.06434e-07
-5.06601e-07
-5.06337e-07
-5.04001e-07
-5.03806e-07
-5.04049e-07
-5.07312e-07
-5.10208e-07
-5.10208e-07
-5.10208e-07
-5.10208e-07
-5.06536e-07
-5.05709e-07
-5.06377e-07
-5.10208e-07
-5.10208e-07
-5.10207e-07
-5.10207e-07
-5.10207e-07
-5.10208e-07
-5.05378e-07
-5.03439e-07
-5.03698e-07
-5.06434e-07
-5.10208e-07
-5.10207e-07
-5.10207e-07
-5.10207e-07
-5.10207e-07
-5.10208e-07
-5.05181e-07
-5.03722e-07
-5.03866e-07
-5.06603e-07
-5.10208e-07
-5.10207e-07
-5.10207e-07
-5.10207e-07
-5.10207e-07
-5.10208e-07
-5.05188e-07
-5.05572e-07
-5.06341e-07
-5.10208e-07
-5.10207e-07
-5.10207e-07
-5.10207e-07
-5.10207e-07
-5.10208e-07
-5.05257e-07
-5.03371e-07
-5.04004e-07
-5.06544e-07
-5.10208e-07
-5.10208e-07
-5.10208e-07
-5.10208e-07
-5.05365e-07
-5.05435e-07
-5.03471e-07
-5.03773e-07
-5.05715e-07
-5.0538e-07
-5.05182e-07
-5.05189e-07
-5.05257e-07
-5.05443e-07
-5.03519e-07
-5.03437e-07
-5.03721e-07
-5.05571e-07
-5.03373e-07
-5.03471e-07
-5.23269e-07
-5.23432e-07
-5.23619e-07
-5.2594e-07
-5.26e-07
-5.26166e-07
-5.25902e-07
-5.23567e-07
-5.23372e-07
-5.23616e-07
-5.26877e-07
-5.29771e-07
-5.29771e-07
-5.29771e-07
-5.29771e-07
-5.26101e-07
-5.25275e-07
-5.25942e-07
-5.29771e-07
-5.29771e-07
-5.2977e-07
-5.2977e-07
-5.29771e-07
-5.29771e-07
-5.24943e-07
-5.23006e-07
-5.23264e-07
-5.26e-07
-5.29771e-07
-5.2977e-07
-5.2977e-07
-5.2977e-07
-5.2977e-07
-5.29771e-07
-5.24746e-07
-5.23288e-07
-5.23433e-07
-5.26168e-07
-5.29771e-07
-5.2977e-07
-5.2977e-07
-5.2977e-07
-5.2977e-07
-5.29771e-07
-5.24753e-07
-5.25137e-07
-5.25906e-07
-5.29771e-07
-5.29771e-07
-5.2977e-07
-5.2977e-07
-5.29771e-07
-5.29771e-07
-5.24822e-07
-5.22937e-07
-5.2357e-07
-5.26109e-07
-5.29771e-07
-5.29771e-07
-5.29771e-07
-5.29771e-07
-5.24929e-07
-5.24999e-07
-5.23037e-07
-5.2334e-07
-5.2528e-07
-5.24944e-07
-5.24747e-07
-5.24753e-07
-5.24822e-07
-5.25008e-07
-5.23085e-07
-5.23004e-07
-5.23287e-07
-5.25137e-07
-5.22939e-07
-5.23037e-07
-5.42825e-07
-5.42988e-07
-5.43175e-07
-5.45495e-07
-5.45555e-07
-5.45721e-07
-5.45457e-07
-5.43123e-07
-5.42928e-07
-5.43171e-07
-5.46432e-07
-5.49325e-07
-5.49325e-07
-5.49325e-07
-5.49325e-07
-5.45656e-07
-5.4483e-07
-5.45498e-07
-5.49325e-07
-5.49325e-07
-5.49324e-07
-5.49324e-07
-5.49324e-07
-5.49325e-07
-5.44497e-07
-5.42561e-07
-5.4282e-07
-5.45554e-07
-5.49325e-07
-5.49325e-07
-5.49324e-07
-5.49324e-07
-5.49324e-07
-5.49325e-07
-5.44301e-07
-5.42844e-07
-5.42989e-07
-5.45724e-07
-5.49325e-07
-5.49324e-07
-5.49324e-07
-5.49324e-07
-5.49324e-07
-5.49325e-07
-5.44308e-07
-5.44692e-07
-5.45461e-07
-5.49325e-07
-5.49325e-07
-5.49324e-07
-5.49324e-07
-5.49324e-07
-5.49325e-07
-5.44376e-07
-5.42493e-07
-5.43126e-07
-5.45663e-07
-5.49325e-07
-5.49325e-07
-5.49325e-07
-5.49325e-07
-5.44484e-07
-5.44554e-07
-5.42593e-07
-5.42896e-07
-5.44835e-07
-5.44499e-07
-5.44301e-07
-5.44308e-07
-5.44377e-07
-5.44563e-07
-5.4264e-07
-5.42559e-07
-5.42842e-07
-5.44692e-07
-5.42495e-07
-5.42592e-07
-5.62374e-07
-5.62537e-07
-5.62724e-07
-5.65043e-07
-5.65102e-07
-5.65269e-07
-5.65005e-07
-5.62671e-07
-5.62477e-07
-5.6272e-07
-5.65979e-07
-5.68871e-07
-5.68871e-07
-5.68871e-07
-5.68871e-07
-5.65203e-07
-5.64377e-07
-5.65045e-07
-5.68871e-07
-5.6887e-07
-5.6887e-07
-5.6887e-07
-5.6887e-07
-5.68871e-07
-5.64045e-07
-5.6211e-07
-5.62369e-07
-5.65102e-07
-5.68871e-07
-5.68871e-07
-5.6887e-07
-5.68871e-07
-5.6887e-07
-5.68871e-07
-5.63848e-07
-5.62392e-07
-5.62537e-07
-5.65271e-07
-5.68871e-07
-5.6887e-07
-5.6887e-07
-5.6887e-07
-5.6887e-07
-5.68871e-07
-5.63855e-07
-5.6424e-07
-5.65008e-07
-5.68871e-07
-5.68871e-07
-5.6887e-07
-5.6887e-07
-5.68871e-07
-5.68871e-07
-5.63924e-07
-5.62042e-07
-5.62674e-07
-5.6521e-07
-5.68871e-07
-5.68871e-07
-5.68871e-07
-5.68871e-07
-5.6403e-07
-5.64102e-07
-5.62142e-07
-5.62445e-07
-5.64383e-07
-5.64046e-07
-5.63848e-07
-5.63855e-07
-5.63924e-07
-5.64111e-07
-5.62188e-07
-5.62108e-07
-5.6239e-07
-5.64239e-07
-5.62043e-07
-5.62141e-07
-5.81911e-07
-5.82074e-07
-5.82261e-07
-5.84581e-07
-5.8464e-07
-5.84807e-07
-5.84543e-07
-5.82209e-07
-5.82014e-07
-5.82258e-07
-5.85517e-07
-5.88411e-07
-5.88412e-07
-5.88412e-07
-5.88412e-07
-5.84742e-07
-5.83915e-07
-5.84582e-07
-5.88412e-07
-5.88412e-07
-5.88412e-07
-5.88412e-07
-5.88412e-07
-5.88412e-07
-5.83584e-07
-5.81647e-07
-5.81905e-07
-5.8464e-07
-5.88412e-07
-5.88412e-07
-5.88413e-07
-5.88413e-07
-5.88412e-07
-5.88412e-07