/*--------------------------------*- C++ -*----------------------------------*\
| =========                 |                                                 |
| \\      /  F ield         | OpenFOAM: The Open Source CFD Toolbox           |
|  \\    /   O peration     | Version:  v1906                                 |
|   \\  /    A nd           | Web:      www.OpenFOAM.com                      |
|    \\/     M anipulation  |                                                 |
\*---------------------------------------------------------------------------*/
FoamFile
{
    version     2.0;
    format      ascii;
    class       volScalarField;
    location    "450";
    object      epsilon;
}
// * * * * * * * * * * * * * * * * * * * * * * * * * * * * * * * * * * * * * //

dimensions      [0 2 -3 0 0 0 0];


internalField   nonuniform List<scalar> 
42616
(
4.95569e-07
4.97406e-07
4.97398e-07
4.99628e-07
4.4558e-07
4.53872e-07
4.53866e-07
4.63933e-07
4.03771e-07
4.18664e-07
4.18661e-07
4.39538e-07
3.68388e-07
3.88677e-07
3.88677e-07
4.17618e-07
3.38038e-07
3.62176e-07
3.62181e-07
3.95884e-07
3.11661e-07
3.3829e-07
3.38299e-07
3.74223e-07
2.88475e-07
3.16602e-07
3.16612e-07
3.53236e-07
2.67912e-07
2.96939e-07
2.96949e-07
3.3361e-07
2.49554e-07
2.79245e-07
2.79255e-07
3.16113e-07
2.33098e-07
2.63513e-07
2.63525e-07
3.00714e-07
2.18312e-07
2.49753e-07
2.49767e-07
2.87926e-07
2.05023e-07
2.37961e-07
2.37977e-07
2.78078e-07
1.93091e-07
2.28139e-07
2.2816e-07
2.71341e-07
1.82404e-07
2.20297e-07
2.20319e-07
2.67504e-07
1.72871e-07
2.1443e-07
2.14455e-07
2.66963e-07
1.64418e-07
2.10554e-07
2.10582e-07
2.69759e-07
1.56981e-07
2.08673e-07
2.08705e-07
2.75902e-07
1.5051e-07
2.088e-07
2.08835e-07
2.85702e-07
1.44958e-07
2.10993e-07
2.11028e-07
2.98611e-07
1.40291e-07
2.1526e-07
2.15296e-07
3.14764e-07
1.36477e-07
2.21617e-07
2.21656e-07
3.34274e-07
5.06398e-07
5.05558e-07
5.05554e-07
5.06413e-07
5.05558e-07
5.05557e-07
5.09644e-07
5.09644e-07
5.09644e-07
5.09644e-07
5.05554e-07
5.05551e-07
5.06414e-07
5.05555e-07
5.05549e-07
5.06401e-07
4.99629e-07
4.67396e-07
4.97397e-07
4.97409e-07
4.63827e-07
4.63859e-07
4.99647e-07
4.67448e-07
4.97401e-07
4.97408e-07
4.63826e-07
4.63839e-07
4.97395e-07
4.63832e-07
4.63847e-07
4.99634e-07
4.67415e-07
4.97401e-07
4.63824e-07
4.63844e-07
4.67438e-07
4.63903e-07
4.4156e-07
4.53873e-07
4.53905e-07
4.26895e-07
4.26913e-07
4.63952e-07
4.41568e-07
4.53871e-07
4.53884e-07
4.26885e-07
4.26903e-07
4.53897e-07
4.26881e-07
4.26907e-07
4.63922e-07
4.41572e-07
4.53892e-07
4.26879e-07
4.26904e-07
4.41551e-07
4.39556e-07
4.19303e-07
4.1868e-07
4.18695e-07
3.95817e-07
3.95827e-07
4.39565e-07
4.19306e-07
4.1867e-07
4.18687e-07
3.95808e-07
3.95825e-07
4.18687e-07
3.95799e-07
3.95817e-07
4.39569e-07
4.19299e-07
4.18685e-07
3.95799e-07
3.95815e-07
4.19304e-07
4.17661e-07
3.97552e-07
3.88697e-07
3.88704e-07
3.68553e-07
3.68556e-07
4.17637e-07
3.97481e-07
3.88688e-07
3.88705e-07
3.68545e-07
3.68562e-07
3.88697e-07
3.68534e-07
3.68563e-07
4.17678e-07
3.97502e-07
3.88693e-07
3.68537e-07
3.68552e-07
3.97586e-07
3.95913e-07
3.75928e-07
3.62197e-07
3.62199e-07
3.44067e-07
3.44066e-07
3.95944e-07
3.758e-07
3.6219e-07
3.62207e-07
3.44058e-07
3.44077e-07
3.62208e-07
3.44047e-07
3.44078e-07
3.95965e-07
3.75795e-07
3.62196e-07
3.44055e-07
3.44063e-07
3.75942e-07
3.74259e-07
3.54891e-07
3.38313e-07
3.38311e-07
3.21856e-07
3.21853e-07
3.74338e-07
3.54743e-07
3.38303e-07
3.38322e-07
3.21843e-07
3.21861e-07
3.38322e-07
3.21832e-07
3.21857e-07
3.74365e-07
3.54715e-07
3.38307e-07
3.21842e-07
3.21842e-07
3.54892e-07
3.53284e-07
3.34971e-07
3.16627e-07
3.16625e-07
3.01696e-07
3.01695e-07
3.53378e-07
3.34941e-07
3.16614e-07
3.16632e-07
3.01681e-07
3.01696e-07
3.16627e-07
3.0167e-07
3.0169e-07
3.53424e-07
3.35048e-07
3.16612e-07
3.0168e-07
3.01673e-07
3.35101e-07
3.33798e-07
3.17025e-07
2.96965e-07
2.96965e-07
2.83511e-07
2.83512e-07
3.33774e-07
3.17139e-07
2.96951e-07
2.96965e-07
2.83497e-07
2.83509e-07
2.9696e-07
2.83484e-07
2.83506e-07
3.33684e-07
3.17031e-07
2.96942e-07
2.83495e-07
2.83485e-07
3.17003e-07
3.16049e-07
3.01527e-07
2.79271e-07
2.79271e-07
2.6729e-07
2.67288e-07
3.15835e-07
3.01512e-07
2.79257e-07
2.79269e-07
2.67277e-07
2.67288e-07
2.79267e-07
2.67261e-07
2.67286e-07
3.16022e-07
3.01356e-07
2.79245e-07
2.67273e-07
2.67264e-07
3.01306e-07
3.00402e-07
2.88317e-07
2.63542e-07
2.63539e-07
2.53042e-07
2.53037e-07
3.00428e-07
2.88297e-07
2.63529e-07
2.63541e-07
2.53028e-07
2.53042e-07
2.63539e-07
2.53009e-07
2.53038e-07
3.00624e-07
2.8849e-07
2.63517e-07
2.53022e-07
2.53016e-07
2.8828e-07
2.87953e-07
2.78065e-07
2.49787e-07
2.49781e-07
2.40763e-07
2.40755e-07
2.87936e-07
2.7804e-07
2.49773e-07
2.49787e-07
2.40748e-07
2.40765e-07
2.49782e-07
2.40725e-07
2.40757e-07
2.87644e-07
2.78205e-07
2.49762e-07
2.4074e-07
2.40736e-07
2.78063e-07
2.77968e-07
2.71187e-07
2.38e-07
2.3799e-07
2.30452e-07
2.30441e-07
2.77949e-07
2.71119e-07
2.37984e-07
2.38002e-07
2.30434e-07
2.30455e-07
2.37994e-07
2.30408e-07
2.30443e-07
2.7788e-07
2.7128e-07
2.37972e-07
2.30428e-07
2.3042e-07
2.71095e-07
2.71141e-07
2.67288e-07
2.28184e-07
2.28173e-07
2.22115e-07
2.22104e-07
2.71302e-07
2.67233e-07
2.28165e-07
2.28189e-07
2.22095e-07
2.22123e-07
2.28175e-07
2.22068e-07
2.22106e-07
2.71159e-07
2.67319e-07
2.2815e-07
2.22091e-07
2.22075e-07
2.67217e-07
2.67548e-07
2.66345e-07
2.20342e-07
2.20332e-07
2.15751e-07
2.15743e-07
2.67515e-07
2.66314e-07
2.20322e-07
2.20352e-07
2.15729e-07
2.15764e-07
2.20334e-07
2.15703e-07
2.15742e-07
2.67571e-07
2.66362e-07
2.20303e-07
2.15729e-07
2.15706e-07
2.66319e-07
2.66981e-07
2.68478e-07
2.14478e-07
2.14471e-07
2.11376e-07
2.11371e-07
2.66961e-07
2.68436e-07
2.14457e-07
2.14493e-07
2.11356e-07
2.11391e-07
2.14469e-07
2.11325e-07
2.11364e-07
2.66992e-07
2.68473e-07
2.14432e-07
2.1135e-07
2.11326e-07
2.68442e-07
2.69772e-07
2.73901e-07
2.10609e-07
2.10604e-07
2.08994e-07
2.08992e-07
2.6975e-07
2.73887e-07
2.10589e-07
2.10624e-07
2.08975e-07
2.09012e-07
2.10595e-07
2.08935e-07
2.08975e-07
2.69779e-07
2.73885e-07
2.10556e-07
2.08963e-07
2.0894e-07
2.73849e-07
2.75907e-07
2.82614e-07
2.08736e-07
2.08733e-07
2.0866e-07
2.08661e-07
2.75857e-07
2.82877e-07
2.08717e-07
2.08755e-07
2.08645e-07
2.08687e-07
2.08718e-07
2.08593e-07
2.08638e-07
2.75912e-07
2.82504e-07
2.08681e-07
2.08628e-07
2.08608e-07
2.82356e-07
2.85442e-07
2.94711e-07
2.08869e-07
2.08865e-07
2.10324e-07
2.10315e-07
2.85225e-07
2.95009e-07
2.08854e-07
2.08893e-07
2.10297e-07
2.10347e-07
2.08853e-07
2.10247e-07
2.103e-07
2.85557e-07
2.94733e-07
2.08814e-07
2.10283e-07
2.10267e-07
2.94486e-07
2.98325e-07
3.10309e-07
2.11066e-07
2.11066e-07
2.1408e-07
2.14071e-07
2.98089e-07
3.10502e-07
2.11055e-07
2.11098e-07
2.14049e-07
2.14104e-07
2.11045e-07
2.13995e-07
2.14053e-07
2.98295e-07
3.10179e-07
2.11013e-07
2.14029e-07
2.14019e-07
3.10114e-07
3.14641e-07
3.29063e-07
2.15334e-07
2.15342e-07
2.19925e-07
2.19924e-07
3.14449e-07
3.29596e-07
2.1533e-07
2.15374e-07
2.19889e-07
2.19955e-07
2.15316e-07
2.19836e-07
2.19897e-07
3.14713e-07
3.29362e-07
2.15283e-07
2.19869e-07
2.1986e-07
3.29119e-07
3.34399e-07
2.21688e-07
2.21713e-07
3.34009e-07
2.21697e-07
2.21745e-07
2.21679e-07
3.34361e-07
2.21643e-07
5.35663e-07
5.35602e-07
5.35656e-07
5.35656e-07
5.34556e-07
5.35515e-07
5.329e-07
5.35656e-07
5.34546e-07
5.35515e-07
5.35656e-07
5.33363e-07
5.35245e-07
5.35781e-07
5.36231e-07
1.10594e-06
3.85273e-06
9.38754e-07
4.59086e-06
1.26154e-05
1.66427e-05
1.1066e-06
3.85089e-06
9.39169e-07
4.5919e-06
4.95569e-07
4.95569e-07
4.95569e-07
4.57234e-07
4.57235e-07
4.57235e-07
4.57235e-07
5.43603e-07
1.22609e-06
4.95577e-07
4.85579e-07
5.26091e-07
1.21495e-06
4.82313e-07
1.26032e-05
1.66398e-05
5.4345e-07
4.95576e-07
1.22044e-06
4.85572e-07
5.26e-07
4.8231e-07
1.21491e-06
2.52702e-06
2.53504e-06
4.84306e-07
2.38252e-06
2.38379e-06
1.4276e-06
5.58366e-06
1.32998e-06
6.13333e-06
2.13124e-05
2.31332e-05
1.42809e-06
5.58462e-06
1.33046e-06
6.13428e-06
4.45581e-07
4.4558e-07
4.45582e-07
4.13558e-07
4.13559e-07
4.13559e-07
4.13561e-07
5.87427e-07
1.19987e-06
4.46474e-07
4.44436e-07
5.74487e-07
1.20972e-06
4.35739e-07
2.13076e-05
2.31435e-05
5.87282e-07
4.46465e-07
1.19995e-06
4.44431e-07
5.74276e-07
4.35729e-07
1.2086e-06
2.30514e-06
2.30577e-06
4.53677e-07
2.34253e-06
2.34571e-06
1.65899e-06
6.91572e-06
1.59163e-06
7.32266e-06
2.46463e-05
2.49415e-05
1.65903e-06
6.91672e-06
1.59172e-06
7.32391e-06
4.03771e-07
4.03771e-07
4.03773e-07
3.76713e-07
3.76714e-07
3.76714e-07
3.76716e-07
6.15178e-07
1.24671e-06
4.06614e-07
4.10766e-07
6.08309e-07
1.27094e-06
3.978e-07
2.46507e-05
2.49441e-05
6.15234e-07
4.06599e-07
1.24827e-06
4.10765e-07
6.08254e-07
3.97787e-07
1.27032e-06
2.4557e-06
2.46227e-06
4.30237e-07
2.51526e-06
2.52245e-06
1.8067e-06
7.84621e-06
1.7676e-06
8.10277e-06
2.47356e-05
2.44324e-05
1.80865e-06
7.84719e-06
1.7669e-06
8.10407e-06
3.68388e-07
3.68388e-07
3.6839e-07
3.45217e-07
3.45217e-07
3.45217e-07
3.45221e-07
6.25633e-07
1.3167e-06
3.73555e-07
3.81771e-07
6.24411e-07
1.33889e-06
3.66104e-07
2.4738e-05
2.44345e-05
6.25744e-07
3.7354e-07
1.31775e-06
3.81773e-07
6.24348e-07
3.66092e-07
1.33971e-06
2.62246e-06
2.62645e-06
4.08451e-07
2.66881e-06
2.6736e-06
1.88771e-06
8.39444e-06
1.86934e-06
8.53089e-06
2.36834e-05
2.32672e-05
1.88956e-06
8.39583e-06
1.86828e-06
8.53269e-06
3.38038e-07
3.38039e-07
3.38042e-07
3.17929e-07
3.17929e-07
3.17931e-07
3.17934e-07
6.21383e-07
1.37566e-06
3.45303e-07
3.55984e-07
6.24561e-07
1.39215e-06
3.38822e-07
2.36857e-05
2.32707e-05
6.21441e-07
3.45293e-07
1.37631e-06
3.5599e-07
6.24686e-07
3.38817e-07
1.39271e-06
2.75772e-06
2.75874e-06
3.8674e-07
2.8032e-06
2.80437e-06
1.92503e-06
8.66113e-06
1.91811e-06
8.71735e-06
2.24956e-05
2.21244e-05
1.92589e-06
8.66297e-06
1.91771e-06
8.71923e-06
3.1166e-07
3.11662e-07
3.11665e-07
2.94007e-07
2.94005e-07
2.94008e-07
2.9401e-07
6.07992e-07
1.41977e-06
3.20529e-07
3.32674e-07
6.14191e-07
1.43097e-06
3.14775e-07
2.24971e-05
2.21271e-05
6.08006e-07
3.20525e-07
1.42055e-06
3.32683e-07
6.1422e-07
3.14774e-07
1.43224e-06
2.89296e-06
2.8935e-06
3.65305e-07
2.94489e-06
2.94575e-06
1.94361e-06
8.75735e-06
1.93981e-06
8.76803e-06
2.14747e-05
2.11839e-05
1.94407e-06
8.75921e-06
1.93998e-06
8.76986e-06
2.88474e-07
2.88477e-07
2.88478e-07
2.72832e-07
2.7283e-07
2.72833e-07
2.72833e-07
5.90832e-07
1.45594e-06
2.98416e-07
3.11502e-07
5.98014e-07
1.46679e-06
2.93241e-07
2.14758e-05
2.11856e-05
5.90559e-07
2.98415e-07
1.45616e-06
3.11512e-07
5.98046e-07
2.93243e-07
1.46721e-06
3.04914e-06
3.04971e-06
3.44819e-07
3.10902e-06
3.10917e-06
1.96167e-06
8.76502e-06
1.9562e-06
8.75937e-06
2.06756e-05
2.04565e-05
1.96258e-06
8.76688e-06
1.95627e-06
8.76125e-06
2.67911e-07
2.67913e-07
2.67913e-07
2.53955e-07
2.53953e-07
2.53956e-07
2.53955e-07
5.74121e-07
1.49409e-06
2.78477e-07
2.92332e-07
5.80858e-07
1.50841e-06
2.73795e-07
2.06772e-05
2.04573e-05
5.74339e-07
2.78477e-07
1.49417e-06
2.92342e-07
5.81188e-07
2.73798e-07
1.50877e-06
3.23e-06
3.22978e-06
3.25899e-07
3.29224e-06
3.2947e-06
1.99163e-06
8.74555e-06
1.98221e-06
8.73906e-06
2.0075e-05
1.99155e-05
1.99442e-06
8.74758e-06
1.98161e-06
8.74098e-06
2.49553e-07
2.49555e-07
2.49554e-07
2.37047e-07
2.37045e-07
2.37047e-07
2.37046e-07
5.61504e-07
1.54172e-06
2.60423e-07
2.75128e-07
5.66754e-07
1.56138e-06
2.56182e-07
2.00778e-05
1.99152e-05
5.61867e-07
2.60425e-07
1.54186e-06
2.75138e-07
5.664e-07
2.56186e-07
1.56141e-06
3.42651e-06
3.42777e-06
3.08846e-07
3.49325e-06
3.49377e-06
2.04298e-06
8.73011e-06
2.02596e-06
8.72848e-06
1.96356e-05
1.95215e-05
2.04543e-06
8.73201e-06
2.02474e-06
8.73039e-06
2.33095e-07
2.33098e-07
2.33097e-07
2.21862e-07
2.21858e-07
2.21862e-07
2.21861e-07
5.55518e-07
1.60279e-06
2.44078e-07
2.59889e-07
5.5765e-07
1.6274e-06
2.40245e-07
1.96372e-05
1.95231e-05
5.55631e-07
2.44082e-07
1.60408e-06
2.59901e-07
5.57548e-07
2.40252e-07
1.62534e-06
3.63343e-06
3.63493e-06
2.9446e-07
3.70173e-06
3.70238e-06
2.11756e-06
8.7283e-06
2.09215e-06
8.73165e-06
1.9321e-05
1.9242e-05
2.11965e-06
8.73024e-06
2.09073e-06
8.73338e-06
2.18309e-07
2.18313e-07
2.18312e-07
2.08213e-07
2.08208e-07
2.08213e-07
2.08212e-07
5.56751e-07
1.67815e-06
2.29331e-07
2.46621e-07
5.55923e-07
1.70766e-06
2.25885e-07
1.93239e-05
1.92413e-05
5.56865e-07
2.29338e-07
1.68011e-06
2.46635e-07
5.55979e-07
2.25895e-07
1.70562e-06
3.84261e-06
3.84432e-06
2.82871e-07
3.90987e-06
3.91066e-06
2.21919e-06
8.73803e-06
2.18213e-06
8.74623e-06
1.90997e-05
1.90462e-05
2.21952e-06
8.74064e-06
2.18223e-06
8.7474e-06
2.05018e-07
2.05024e-07
2.05023e-07
1.95953e-07
1.95947e-07
1.95953e-07
1.95951e-07
5.66593e-07
1.76687e-06
2.16108e-07
2.3532e-07
5.62265e-07
1.80078e-06
2.13033e-07
1.91038e-05
1.90454e-05
5.66682e-07
2.16115e-07
1.76918e-06
2.35337e-07
5.62319e-07
2.13044e-07
1.79865e-06
4.04566e-06
4.04662e-06
2.74162e-07
4.11132e-06
4.11266e-06
2.34361e-06
8.75685e-06
2.29889e-06
8.76678e-06
1.89457e-05
1.891e-05
2.34492e-06
8.75943e-06
2.29854e-06
8.76795e-06
1.93085e-07
1.93092e-07
1.9309e-07
1.84963e-07
1.84956e-07
1.84964e-07
1.8496e-07
5.85761e-07
1.86698e-06
2.04347e-07
2.25992e-07
5.77968e-07
1.90419e-06
2.01627e-07
1.895e-05
1.89091e-05
5.85836e-07
2.04355e-07
1.86939e-06
2.26013e-07
5.77978e-07
2.01639e-07
1.9024e-06
4.2376e-06
4.2391e-06
2.68797e-07
4.29583e-06
4.29762e-06
2.49044e-06
8.7787e-06
2.43907e-06
8.78859e-06
1.88376e-05
1.88141e-05
2.49118e-06
8.78118e-06
2.43843e-06
8.78988e-06
1.82397e-07
1.82405e-07
1.82401e-07
1.75148e-07
1.75141e-07
1.7515e-07
1.75144e-07
6.14078e-07
1.97602e-06
1.93993e-07
2.18641e-07
6.04081e-07
2.01501e-06
1.91617e-07
1.88419e-05
1.8813e-05
6.1462e-07
1.94e-07
1.9767e-06
2.18664e-07
6.037e-07
1.91628e-07
2.01547e-06
4.41057e-06
4.41355e-06
2.66407e-07
4.4651e-06
4.46544e-06
2.65548e-06
8.8e-06
2.59768e-06
8.80907e-06
1.87595e-05
1.87432e-05
2.6555e-06
8.80252e-06
2.59756e-06
8.81052e-06
1.72864e-07
1.72873e-07
1.72867e-07
1.66431e-07
1.66424e-07
1.66433e-07
1.66426e-07
6.5374e-07
2.09183e-06
1.85002e-07
2.13266e-07
6.40078e-07
2.12797e-06
1.82959e-07
1.87637e-05
1.87426e-05
6.53991e-07
1.85008e-07
2.09034e-06
2.13293e-07
6.39713e-07
1.82969e-07
2.13045e-06
4.56581e-06
4.56647e-06
2.66976e-07
4.61045e-06
4.61398e-06
2.82922e-06
8.81941e-06
2.76883e-06
8.82763e-06
1.87008e-05
1.86868e-05
2.82929e-06
8.82196e-06
2.76913e-06
8.82918e-06
1.64411e-07
1.6442e-07
1.64412e-07
1.58746e-07
1.58739e-07
1.58748e-07
1.5874e-07
7.03225e-07
2.20773e-06
1.77334e-07
2.0988e-07
6.8634e-07
2.24373e-06
1.75615e-07
1.87036e-05
1.86876e-05
7.0389e-07
1.7734e-07
2.20626e-06
2.0991e-07
6.86026e-07
1.75625e-07
2.24619e-06
4.69879e-06
4.69905e-06
2.70744e-07
4.73778e-06
4.73969e-06
3.00277e-06
8.837e-06
2.94649e-06
8.84457e-06
1.86525e-05
1.864e-05
3.00319e-06
8.83957e-06
2.94637e-06
8.84616e-06
1.56974e-07
1.56984e-07
1.56975e-07
1.52039e-07
1.52031e-07
1.52041e-07
1.52032e-07
7.62746e-07
2.32079e-06
1.7096e-07
2.08492e-07
7.4262e-07
2.35927e-06
1.69562e-07
1.86542e-05
1.86412e-05
7.6338e-07
1.70966e-07
2.32082e-06
2.08526e-07
7.42052e-07
1.69571e-07
2.35955e-06
4.81089e-06
4.81263e-06
2.77633e-07
4.84186e-06
4.84372e-06
3.17279e-06
8.85322e-06
3.11886e-06
8.86035e-06
1.86098e-05
1.85983e-05
3.17362e-06
8.8558e-06
3.11816e-06
8.86198e-06
1.50502e-07
1.50512e-07
1.50503e-07
1.46261e-07
1.46253e-07
1.46263e-07
1.46254e-07
8.3078e-07
2.431e-06
1.65865e-07
2.09151e-07
8.08236e-07
2.46777e-06
1.64783e-07
1.86113e-05
1.85998e-05
8.31141e-07
1.6587e-07
2.43128e-06
2.09186e-07
8.08096e-07
1.64793e-07
2.46786e-06
4.90291e-06
4.90483e-06
2.87973e-07
4.93085e-06
4.93272e-06
3.32919e-06
8.86844e-06
3.28011e-06
8.87517e-06
1.85708e-05
1.85607e-05
3.32954e-06
8.87107e-06
3.28017e-06
8.8769e-06
1.44949e-07
1.44961e-07
1.4495e-07
1.41376e-07
1.41368e-07
1.41378e-07
1.4137e-07
9.06449e-07
2.53512e-06
1.62042e-07
2.11864e-07
8.81585e-07
2.56924e-06
1.61275e-07
1.85722e-05
1.85618e-05
9.06663e-07
1.62048e-07
2.53686e-06
2.11897e-07
8.81676e-07
1.61284e-07
2.56787e-06
4.97943e-06
4.98139e-06
3.01847e-07
5.00255e-06
5.00449e-06
3.46838e-06
8.88294e-06
3.42406e-06
8.88932e-06
1.85349e-05
1.85253e-05
3.46846e-06
8.8855e-06
3.42426e-06
8.89097e-06
1.40282e-07
1.40294e-07
1.40283e-07
1.37352e-07
1.37345e-07
1.37354e-07
1.37346e-07
9.8781e-07
2.63137e-06
1.59495e-07
2.16654e-07
9.61243e-07
2.66264e-06
1.5904e-07
1.85361e-05
1.85265e-05
9.87725e-07
1.59498e-07
2.63309e-06
2.16688e-07
9.61341e-07
1.59043e-07
2.6613e-06
5.04227e-06
5.04421e-06
3.19156e-07
5.06114e-06
5.06308e-06
3.58604e-06
8.8965e-06
3.54853e-06
8.90256e-06
1.8501e-05
1.8492e-05
8.89893e-06
3.54872e-06
8.90403e-06
1.36468e-07
1.36481e-07
1.36469e-07
1.07184e-06
2.71909e-06
1.58228e-07
2.23547e-07
1.04468e-06
2.74499e-06
1.58085e-07
1.85024e-05
1.07298e-06
1.5823e-07
2.72069e-06
1.04483e-06
1.58083e-07
5.09358e-06
5.09551e-06
3.40586e-07
5.10909e-06
5.11105e-06
5.35255e-07
5.36138e-07
5.35295e-07
1.09271e-05
5.79951e-07
1.09325e-05
5.80759e-07
5.28212e-07
2.44894e-06
2.45698e-06
5.42912e-07
5.43497e-07
5.34552e-07
5.35514e-07
5.32225e-07
5.35656e-07
5.34557e-07
5.35513e-07
5.33153e-07
5.35656e-07
5.30718e-07
3.44432e-06
5.82092e-07
8.24557e-07
5.30713e-07
3.45539e-06
5.68859e-07
8.26172e-07
5.29655e-07
5.28386e-07
1.17115e-06
5.09596e-07
5.34755e-07
5.2835e-07
5.19594e-07
5.29639e-07
5.28388e-07
1.19063e-06
5.09596e-07
5.32697e-07
5.2835e-07
5.19743e-07
5.35247e-07
5.35325e-07
5.36154e-07
1.09269e-05
5.8061e-07
5.28225e-07
2.45849e-06
2.46831e-06
5.40211e-07
5.43151e-07
1.09179e-05
5.80899e-07
5.34544e-07
5.35514e-07
5.33135e-07
5.35656e-07
5.34539e-07
5.35512e-07
5.35656e-07
5.33175e-07
5.30731e-07
3.45444e-06
5.68898e-07
8.24636e-07
5.29665e-07
5.28387e-07
1.18829e-06
5.09595e-07
5.32965e-07
5.2835e-07
5.19457e-07
5.30704e-07
3.45559e-06
5.6883e-07
8.24814e-07
5.2968e-07
5.28388e-07
5.09596e-07
1.18818e-06
5.2835e-07
5.32903e-07
5.19587e-07
5.35663e-07
5.35602e-07
5.35656e-07
5.35656e-07
5.35663e-07
5.35602e-07
5.35656e-07
5.35656e-07
5.35663e-07
5.35603e-07
5.35656e-07
5.35656e-07
5.28434e-07
5.28374e-07
5.09725e-07
5.09725e-07
5.28408e-07
5.28408e-07
5.09781e-07
5.28434e-07
5.28374e-07
5.09725e-07
5.09725e-07
5.28408e-07
5.28408e-07
5.09781e-07
5.28434e-07
5.28374e-07
5.09725e-07
5.09725e-07
5.28408e-07
5.28408e-07
5.09782e-07
5.28434e-07
5.28373e-07
5.09725e-07
5.09725e-07
5.28408e-07
5.28408e-07
5.09782e-07
5.34544e-07
5.35517e-07
5.35656e-07
5.32917e-07
5.29637e-07
5.28385e-07
1.17112e-06
5.09595e-07
5.33141e-07
5.2835e-07
5.19616e-07
5.30697e-07
3.44491e-06
5.82099e-07
8.26175e-07
5.29668e-07
5.28381e-07
5.09597e-07
1.16748e-06
5.2835e-07
5.33068e-07
5.19762e-07
5.30723e-07
3.44505e-06
5.81306e-07
8.25972e-07
5.35247e-07
5.3616e-07
5.35493e-07
1.09241e-05
5.81485e-07
5.28223e-07
2.46119e-06
2.45086e-06
5.43637e-07
5.42388e-07
1.09325e-05
5.81332e-07
5.34591e-07
5.35517e-07
5.35656e-07
5.32921e-07
5.29668e-07
5.28385e-07
5.09595e-07
1.18657e-06
5.2835e-07
5.32808e-07
5.19609e-07
5.29447e-07
5.28382e-07
5.09595e-07
1.168e-06
5.2835e-07
5.33095e-07
5.19644e-07
5.30725e-07
3.45622e-06
5.68982e-07
8.25391e-07
5.3065e-07
3.44613e-06
5.81862e-07
8.26484e-07
5.28225e-07
2.44639e-06
2.46817e-06
5.41044e-07
5.40935e-07
1.09336e-05
5.80997e-07
1.09396e-05
5.81074e-07
1.26066e-05
1.66438e-05
1.26122e-05
1.66434e-05
2.53492e-06
2.5476e-06
4.84276e-07
2.38709e-06
2.39109e-06
2.0573e-05
1.77242e-05
2.05722e-05
1.77243e-05
4.79418e-07
2.30221e-06
2.30357e-06
2.34891e-06
2.35135e-06
1.10662e-06
3.85066e-06
9.40593e-07
4.59008e-06
5.43329e-07
1.22987e-06
4.95575e-07
4.85568e-07
5.25965e-07
1.21454e-06
4.82308e-07
5.43573e-07
1.227e-06
4.95577e-07
4.85596e-07
5.26129e-07
1.21572e-06
4.82313e-07
1.16218e-06
5.39962e-06
4.79475e-06
1.28053e-06
1.16307e-06
5.40021e-06
4.79458e-06
1.28085e-06
5.51375e-07
4.74376e-07
1.19913e-06
4.57781e-07
1.21138e-06
4.69719e-07
5.66859e-07
5.51626e-07
4.74409e-07
1.19963e-06
4.57791e-07
1.21207e-06
4.69727e-07
5.67064e-07
2.52887e-06
2.56889e-06
4.8432e-07
2.38427e-06
2.39511e-06
1.25949e-05
1.66444e-05
2.05712e-05
1.7718e-05
4.79482e-07
2.30212e-06
2.30403e-06
2.35e-06
2.35601e-06
2.05677e-05
1.77229e-05
5.43506e-07
1.22622e-06
4.95576e-07
4.85571e-07
5.25983e-07
1.21538e-06
4.8231e-07
1.10611e-06
3.85155e-06
9.39211e-07
4.59134e-06
5.43392e-07
4.95576e-07
1.22652e-06
4.85582e-07
5.26011e-07
4.8231e-07
1.21504e-06
1.16279e-06
5.40049e-06
4.79458e-06
1.2811e-06
5.51531e-07
4.74378e-07
1.1992e-06
4.57787e-07
1.21085e-06
4.69723e-07
5.67049e-07
1.16237e-06
5.40056e-06
4.7956e-06
1.2807e-06
5.51451e-07
4.7439e-07
4.57785e-07
1.19935e-06
4.69722e-07
1.21143e-06
5.66972e-07
1.10665e-06
3.85166e-06
9.39933e-07
4.59059e-06
5.43602e-07
4.95577e-07
1.23255e-06
4.85581e-07
5.26118e-07
4.82313e-07
1.2179e-06
1.10677e-06
3.85246e-06
9.40222e-07
4.59089e-06
5.51655e-07
4.74384e-07
1.1984e-06
4.5779e-07
1.21149e-06
4.69726e-07
5.67105e-07
1.16297e-06
5.39995e-06
4.795e-06
1.28094e-06
5.51645e-07
4.74394e-07
4.57791e-07
1.20007e-06
4.69726e-07
1.21347e-06
5.67106e-07
1.16285e-06
5.40072e-06
4.79608e-06
1.28092e-06
2.56028e-06
2.54069e-06
4.84291e-07
2.39197e-06
2.39042e-06
1.26122e-05
1.66469e-05
2.05652e-05
1.7717e-05
4.79435e-07
2.30311e-06
2.30285e-06
2.35268e-06
2.35112e-06
2.05687e-05
1.77263e-05
5.43493e-07
4.95575e-07
1.2327e-06
4.85585e-07
5.25849e-07
4.8231e-07
1.21761e-06
1.1065e-06
3.85243e-06
9.39261e-07
4.5916e-06
1.10666e-06
3.85298e-06
9.39253e-07
4.59128e-06
5.51439e-07
4.74373e-07
4.57783e-07
1.1983e-06
4.6972e-07
1.20898e-06
5.66892e-07
5.51477e-07
4.74394e-07
4.57786e-07
1.19993e-06
4.69722e-07
1.21332e-06
5.66943e-07
1.16225e-06
5.40085e-06
4.79586e-06
1.28065e-06
1.16243e-06
5.40094e-06
4.79609e-06
1.28077e-06
1.26113e-05
1.66442e-05
1.2613e-05
1.6647e-05
4.79461e-07
2.30167e-06
2.30208e-06
2.34868e-06
2.34922e-06
2.05659e-05
1.7724e-05
2.0572e-05
1.77252e-05
2.13128e-05
2.31349e-05
2.13117e-05
2.31342e-05
2.30586e-06
2.30731e-06
4.53655e-07
2.34492e-06
2.34491e-06
2.44844e-05
2.35486e-05
2.44858e-05
2.35474e-05
4.51071e-07
2.43133e-06
2.43148e-06
2.36946e-06
2.37092e-06
1.42765e-06
5.58384e-06
1.3302e-06
6.13379e-06
5.87323e-07
1.20057e-06
4.46464e-07
4.4444e-07
5.74258e-07
1.21013e-06
4.35729e-07
5.87447e-07
1.20123e-06
4.46475e-07
4.44468e-07
5.74444e-07
1.2093e-06
4.3574e-07
1.47229e-06
6.77858e-06
6.29585e-06
1.55378e-06
1.47229e-06
6.779e-06
6.29614e-06
1.55346e-06
5.93424e-07
4.35466e-07
1.23704e-06
4.15839e-07
1.21699e-06
4.25534e-07
6.03649e-07
5.93531e-07
4.35489e-07
1.23604e-06
4.15849e-07
1.21812e-06
4.25545e-07
6.03656e-07
2.30577e-06
2.3073e-06
4.5368e-07
2.34509e-06
2.34545e-06
2.13113e-05
2.31403e-05
2.44835e-05
2.35468e-05
4.51098e-07
2.43142e-06
2.43199e-06
2.36966e-06
2.37048e-06
2.44875e-05
2.35528e-05
5.87473e-07
1.20089e-06
4.46471e-07
4.44436e-07
5.7444e-07
1.20907e-06
4.35736e-07
1.42785e-06
5.5845e-06
1.33011e-06
6.1355e-06
5.87467e-07
4.46469e-07
1.20078e-06
4.4445e-07
5.74356e-07
4.35735e-07
1.21037e-06
1.47227e-06
6.77945e-06
6.29679e-06
1.55376e-06
5.93548e-07
4.3546e-07
1.23588e-06
4.15846e-07
1.21796e-06
4.25541e-07
6.03676e-07
1.47209e-06
6.78058e-06
6.29755e-06
1.55365e-06
5.93511e-07
4.35475e-07
4.15849e-07
1.23728e-06
4.25543e-07
1.21731e-06
6.03749e-07
1.42771e-06
5.58304e-06
1.33019e-06
6.13237e-06
5.87518e-07
4.46476e-07
1.20171e-06
4.44464e-07
5.74489e-07
4.35742e-07
1.20945e-06
1.42771e-06
5.58453e-06
1.33029e-06
6.13427e-06
5.93598e-07
4.35457e-07
1.23661e-06
4.15849e-07
1.2166e-06
4.25545e-07
6.0355e-07
1.472e-06
6.77681e-06
6.29465e-06
1.55335e-06
5.93575e-07
4.35484e-07
4.15852e-07
1.23565e-06
4.25548e-07
1.21816e-06
6.03744e-07
1.47222e-06
6.77944e-06
6.2968e-06
1.55351e-06
2.30667e-06
2.30627e-06
4.53671e-07
2.34541e-06
2.34452e-06
2.13121e-05
2.31392e-05
2.44902e-05
2.35554e-05
4.51087e-07
2.4322e-06
2.43099e-06
2.37104e-06
2.37014e-06
2.44862e-05
2.35522e-05
5.8735e-07
4.46468e-07
1.20158e-06
4.44458e-07
5.74321e-07
4.35732e-07
1.20959e-06
1.42791e-06
5.58459e-06
1.33006e-06
6.13458e-06
1.42776e-06
5.58456e-06
1.33013e-06
6.13474e-06
5.93454e-07
4.35452e-07
4.15836e-07
1.23571e-06
4.25532e-07
1.21752e-06
6.03521e-07
5.93429e-07
4.35478e-07
4.1584e-07
1.23617e-06
4.25536e-07
1.21838e-06
6.03614e-07
1.47212e-06
6.77974e-06
6.29682e-06
1.55371e-06
1.47212e-06
6.77996e-06
6.29707e-06
1.55359e-06
2.13098e-05
2.31369e-05
2.13164e-05
2.31429e-05
4.51089e-07
2.42585e-06
2.43224e-06
2.36748e-06
2.37054e-06
2.44841e-05
2.35504e-05
2.44889e-05
2.35556e-05
2.46454e-05
2.49397e-05
2.46473e-05
2.49433e-05
2.46198e-06
2.46234e-06
4.30264e-07
2.52173e-06
2.52208e-06
2.48329e-05
2.49393e-05
2.48369e-05
2.49427e-05
4.28557e-07
2.60193e-06
2.60243e-06
2.54979e-06
2.55019e-06
1.65844e-06
6.91602e-06
1.59178e-06
7.32336e-06
6.15427e-07
1.24744e-06
4.06604e-07
4.10783e-07
6.08172e-07
1.27134e-06
3.9779e-07
6.15379e-07
1.24846e-06
4.06612e-07
4.10796e-07
6.08269e-07
1.27038e-06
3.97798e-07
1.68965e-06
7.76239e-06
7.43277e-06
1.74232e-06
1.68996e-06
7.76307e-06
7.43324e-06
1.74233e-06
6.18411e-07
4.03172e-07
1.30494e-06
3.81293e-07
1.28293e-06
3.89364e-07
6.22711e-07
6.18456e-07
4.03182e-07
1.30554e-06
3.81299e-07
1.28387e-06
3.89372e-07
6.22696e-07
2.4617e-06
2.46227e-06
4.30256e-07
2.5217e-06
2.52205e-06
2.46474e-05
2.49396e-05
2.48341e-05
2.4941e-05
4.28553e-07
2.60189e-06
2.60163e-06
2.5496e-06
2.55011e-06
2.48324e-05
2.49389e-05
6.1544e-07
1.24836e-06
4.06609e-07
4.10772e-07
6.08288e-07
1.27027e-06
3.97796e-07
1.65893e-06
6.91733e-06
1.59162e-06
7.3246e-06
6.15501e-07
4.06614e-07
1.24773e-06
4.10791e-07
6.08243e-07
3.978e-07
1.27161e-06
1.68967e-06
7.76369e-06
7.434e-06
1.74388e-06
6.18474e-07
4.03161e-07
1.30561e-06
3.81297e-07
1.28392e-06
3.89368e-07
6.22775e-07
1.68965e-06
7.76428e-06
7.43426e-06
1.74353e-06
6.18454e-07
4.03179e-07
3.81301e-07
1.30517e-06
3.89374e-07
1.28321e-06
6.22782e-07
1.65832e-06
6.91331e-06
1.59133e-06
7.32035e-06
6.15417e-07
4.06616e-07
1.24797e-06
4.10785e-07
6.08268e-07
3.97802e-07
1.26968e-06
1.65839e-06
6.91635e-06
1.59182e-06
7.32338e-06
6.18514e-07
4.03152e-07
1.30599e-06
3.81302e-07
1.28213e-06
3.89374e-07
6.22385e-07
1.68929e-06
7.76028e-06
7.42986e-06
1.74181e-06
6.18456e-07
4.03171e-07
3.81303e-07
1.30487e-06
3.89376e-07
1.28314e-06
6.22694e-07
1.68992e-06
7.76302e-06
7.43322e-06
1.74231e-06
2.4629e-06
2.46159e-06
4.30268e-07
2.52229e-06
2.52129e-06
2.46479e-05
2.49418e-05
2.48363e-05
2.49435e-05
4.28563e-07
2.60226e-06
2.60135e-06
2.55051e-06
2.54937e-06
2.48406e-05
2.49411e-05
6.15397e-07
4.06604e-07
1.24861e-06
4.10785e-07
6.08179e-07
3.9779e-07
1.27039e-06
1.65905e-06
6.91673e-06
1.59173e-06
7.32406e-06
1.6589e-06
6.91696e-06
1.59174e-06
7.32423e-06
6.1856e-07
4.03152e-07
3.81288e-07
1.30686e-06
3.89359e-07
1.2839e-06
6.22705e-07
6.18402e-07
4.03171e-07
3.81293e-07
1.30554e-06
3.89364e-07
1.28392e-06
6.22715e-07
1.68971e-06
7.7639e-06
7.43395e-06
1.74349e-06
1.68971e-06
7.76393e-06
7.43413e-06
1.74341e-06
2.46456e-05
2.49386e-05
2.46503e-05
2.49434e-05
4.28525e-07
2.5974e-06
2.60263e-06
2.544e-06
2.55018e-06
2.48319e-05
2.49379e-05
2.48362e-05
2.49427e-05
2.47337e-05
2.44317e-05
2.47362e-05
2.44347e-05
2.62594e-06
2.62643e-06
4.08435e-07
2.67202e-06
2.67285e-06
2.3871e-05
2.42623e-05
2.38741e-05
2.42642e-05
4.0679e-07
2.73617e-06
2.73656e-06
2.69392e-06
2.69465e-06
1.80814e-06
7.84647e-06
1.76769e-06
8.10343e-06
6.25673e-07
1.31847e-06
3.73545e-07
3.8179e-07
6.24316e-07
1.3379e-06
3.66095e-07
6.25679e-07
1.31865e-06
3.73552e-07
3.81796e-07
6.24319e-07
1.33805e-06
3.661e-07
1.82662e-06
8.35428e-06
8.16281e-06
1.85409e-06
1.82552e-06
8.35519e-06
8.16319e-06
1.85592e-06
6.26072e-07
3.7508e-07
1.36634e-06
3.5199e-07
1.35001e-06
3.58917e-07
6.24817e-07
6.26062e-07
3.75084e-07
1.36646e-06
3.51994e-07
1.35017e-06
3.58922e-07
6.24792e-07
2.62556e-06
2.62644e-06
4.08429e-07
2.67245e-06
2.67132e-06
2.47321e-05
2.44307e-05
2.38714e-05
2.42632e-05
4.06757e-07
2.73728e-06
2.73611e-06
2.69349e-06
2.69505e-06
2.38714e-05
2.42611e-05
6.25744e-07
1.31874e-06
3.73548e-07
3.81782e-07
6.24349e-07
1.33823e-06
3.66098e-07
1.80836e-06
7.84746e-06
1.76701e-06
8.10461e-06
6.25757e-07
3.73553e-07
1.31875e-06
3.81798e-07
6.24364e-07
3.66102e-07
1.33815e-06
1.82558e-06
8.35586e-06
8.16382e-06
1.85603e-06
6.26126e-07
3.75072e-07
1.36666e-06
3.51993e-07
1.35035e-06
3.58919e-07
6.24925e-07
1.82576e-06
8.35624e-06
8.16412e-06
1.85613e-06
6.26146e-07
3.75089e-07
3.51996e-07
1.36662e-06
3.58923e-07
1.35042e-06
6.24955e-07
1.80796e-06
7.84367e-06
1.7672e-06
8.10165e-06
6.25673e-07
3.73555e-07
1.31806e-06
3.81793e-07
6.24312e-07
3.66104e-07
1.33767e-06
1.80814e-06
7.84647e-06
1.76763e-06
8.1035e-06
6.2605e-07
3.75059e-07
1.36745e-06
3.51998e-07
1.34841e-06
3.58925e-07
6.24771e-07
1.82522e-06
8.35384e-06
8.16108e-06
1.8559e-06
6.26056e-07
3.75086e-07
3.51999e-07
1.36626e-06
3.58927e-07
1.34983e-06
6.24874e-07
1.82544e-06
8.35519e-06
8.16324e-06
1.85583e-06
2.62681e-06
2.62597e-06
4.08401e-07
2.673e-06
2.672e-06
2.47319e-05
2.44334e-05
2.38753e-05
2.42659e-05
4.06832e-07
2.7365e-06
2.73822e-06
2.69488e-06
2.69416e-06
2.38729e-05
2.42641e-05
6.25705e-07
3.73546e-07
1.3187e-06
3.81787e-07
6.24327e-07
3.66096e-07
1.33815e-06
1.80693e-06
7.84722e-06
1.76727e-06
8.10423e-06
1.80678e-06
7.84728e-06
1.76719e-06
8.10417e-06
6.26127e-07
3.75062e-07
3.51989e-07
1.36815e-06
3.58913e-07
1.34923e-06
6.24952e-07
6.26107e-07
3.75077e-07
3.51993e-07
1.3666e-06
3.58919e-07
1.35029e-06
6.24907e-07
1.82672e-06
8.35586e-06
8.16393e-06
1.85483e-06
1.8266e-06
8.35585e-06
8.16391e-06
1.85465e-06
2.47326e-05
2.44319e-05
2.47362e-05
2.44343e-05
4.06765e-07
2.73718e-06
2.73905e-06
2.69286e-06
2.69447e-06
2.38723e-05
2.42629e-05
2.38734e-05
2.4265e-05
2.36828e-05
2.32665e-05
2.36847e-05
2.32694e-05
2.75927e-06
2.76001e-06
3.86691e-07
2.80134e-06
2.80175e-06
2.26746e-05
2.30779e-05
2.26773e-05
2.30795e-05
3.85047e-07
2.8693e-06
2.87057e-06
2.82511e-06
2.82594e-06
1.8894e-06
8.39515e-06
1.86822e-06
8.53196e-06
6.21265e-07
1.3773e-06
3.45295e-07
3.56004e-07
6.24735e-07
1.39062e-06
3.38815e-07
6.21316e-07
1.37739e-06
3.45299e-07
3.56004e-07
6.24593e-07
1.39076e-06
3.38818e-07
1.89917e-06
8.64727e-06
8.55564e-06
1.91085e-06
1.89792e-06
8.64833e-06
8.55658e-06
1.91171e-06
6.20396e-07
3.49962e-07
1.41162e-06
3.26441e-07
1.4006e-06
3.32535e-07