/*--------------------------------*- C++ -*----------------------------------*\
| =========                 |                                                 |
| \\      /  F ield         | OpenFOAM: The Open Source CFD Toolbox           |
|  \\    /   O peration     | Version:  v1906                                 |
|   \\  /    A nd           | Web:      www.OpenFOAM.com                      |
|    \\/     M anipulation  |                                                 |
\*---------------------------------------------------------------------------*/
FoamFile
{
    version     2.0;
    format      ascii;
    class       volScalarField;
    location    "450";
    object      p;
}
// * * * * * * * * * * * * * * * * * * * * * * * * * * * * * * * * * * * * * //

dimensions      [0 2 -2 0 0 0 0];


internalField   nonuniform List<scalar> 
42616
(
0.00358574
0.00358555
0.00358557
0.00358835
0.00353222
0.00353235
0.00353236
0.00353456
0.00348094
0.00348097
0.00348098
0.00348328
0.00342904
0.003429
0.003429
0.00343128
0.00337796
0.00337791
0.00337791
0.00338015
0.00332825
0.00332821
0.00332821
0.00333041
0.00327998
0.00327995
0.00327995
0.0032821
0.00323299
0.00323298
0.00323298
0.0032351
0.0031871
0.0031871
0.0031871
0.00318919
0.0031421
0.00314211
0.00314211
0.00314418
0.00309783
0.00309784
0.00309784
0.00309988
0.00305415
0.00305416
0.00305416
0.00305618
0.00301098
0.00301099
0.00301099
0.00301299
0.00296828
0.00296829
0.00296829
0.00297027
0.002926
0.00292601
0.00292601
0.00292798
0.00288414
0.00288414
0.00288414
0.00288609
0.00284265
0.00284265
0.00284265
0.00284458
0.00280151
0.00280152
0.00280152
0.00280344
0.00276071
0.00276072
0.00276072
0.00276262
0.00272022
0.00272023
0.00272023
0.00272212
0.00268002
0.00268002
0.00268002
0.0026819
0.00359911
0.00359931
0.00359931
0.00359911
0.00359931
0.00359931
0.00360004
0.00360004
0.00360004
0.00360004
0.00359931
0.00359931
0.00359911
0.00359931
0.00359932
0.00359911
0.00358834
0.00354223
0.00358555
0.00358555
0.00354472
0.00354472
0.00358835
0.00354222
0.00358556
0.00358557
0.00354472
0.00354473
0.00358556
0.00354472
0.00354473
0.00358835
0.00354223
0.00358557
0.00354473
0.00354473
0.00354223
0.00353455
0.00349131
0.00353235
0.00353235
0.00349397
0.00349397
0.00353455
0.00349131
0.00353235
0.00353236
0.00349397
0.00349397
0.00353235
0.00349397
0.00349397
0.00353456
0.00349131
0.00353235
0.00349397
0.00349397
0.00349131
0.00348328
0.00343927
0.00348098
0.00348098
0.00344195
0.00344195
0.00348328
0.00343927
0.00348098
0.00348098
0.00344195
0.00344195
0.00348098
0.00344195
0.00344195
0.00348328
0.00343927
0.00348098
0.00344195
0.00344195
0.00343927
0.00343128
0.00338795
0.003429
0.003429
0.00339056
0.00339056
0.00343128
0.00338795
0.003429
0.003429
0.00339056
0.00339056
0.003429
0.00339056
0.00339056
0.00343128
0.00338795
0.003429
0.00339056
0.00339056
0.00338795
0.00338015
0.00333798
0.00337791
0.00337791
0.0033405
0.0033405
0.00338015
0.00333798
0.00337791
0.00337791
0.0033405
0.0033405
0.00337791
0.0033405
0.0033405
0.00338015
0.00333798
0.00337791
0.0033405
0.0033405
0.00333798
0.00333041
0.00328947
0.00332821
0.00332821
0.00329188
0.00329188
0.00333041
0.00328947
0.00332821
0.00332821
0.00329188
0.00329188
0.00332821
0.00329188
0.00329188
0.00333041
0.00328947
0.00332821
0.00329188
0.00329188
0.00328947
0.0032821
0.00324228
0.00327995
0.00327995
0.00324461
0.00324461
0.0032821
0.00324228
0.00327995
0.00327995
0.00324461
0.00324461
0.00327995
0.00324461
0.00324461
0.0032821
0.00324228
0.00327995
0.00324461
0.00324461
0.00324228
0.0032351
0.00319622
0.00323298
0.00323298
0.00319848
0.00319848
0.0032351
0.00319622
0.00323298
0.00323298
0.00319848
0.00319848
0.00323298
0.00319848
0.00319848
0.0032351
0.00319622
0.00323298
0.00319848
0.00319848
0.00319622
0.00318919
0.00315108
0.0031871
0.0031871
0.00315328
0.00315328
0.00318919
0.00315108
0.0031871
0.0031871
0.00315328
0.00315328
0.0031871
0.00315328
0.00315328
0.00318919
0.00315108
0.0031871
0.00315328
0.00315328
0.00315108
0.00314418
0.00310669
0.00314211
0.0031421
0.00310884
0.00310884
0.00314417
0.00310669
0.00314211
0.00314211
0.00310884
0.00310884
0.00314211
0.00310884
0.00310884
0.00314418
0.00310669
0.00314211
0.00310884
0.00310884
0.00310669
0.00309988
0.00306291
0.00309783
0.00309783
0.00306503
0.00306503
0.00309988
0.00306291
0.00309784
0.00309784
0.00306503
0.00306503
0.00309784
0.00306503
0.00306503
0.00309988
0.00306291
0.00309784
0.00306503
0.00306503
0.00306291
0.00305618
0.00301964
0.00305416
0.00305416
0.00302174
0.00302174
0.00305618
0.00301964
0.00305416
0.00305416
0.00302174
0.00302174
0.00305416
0.00302174
0.00302174
0.00305618
0.00301964
0.00305416
0.00302174
0.00302174
0.00301964
0.00301299
0.00297685
0.00301099
0.00301099
0.00297892
0.00297892
0.00301299
0.00297685
0.00301099
0.00301099
0.00297892
0.00297892
0.00301099
0.00297892
0.00297892
0.00301299
0.00297685
0.00301099
0.00297892
0.00297892
0.00297685
0.00297027
0.00293452
0.00296829
0.00296829
0.00293654
0.00293654
0.00297027
0.00293452
0.00296829
0.00296829
0.00293654
0.00293654
0.00296829
0.00293654
0.00293654
0.00297027
0.00293451
0.00296829
0.00293654
0.00293654
0.00293452
0.00292798
0.00289259
0.00292601
0.00292601
0.00289457
0.00289457
0.00292798
0.00289259
0.00292601
0.00292601
0.00289457
0.00289457
0.00292601
0.00289457
0.00289457
0.00292798
0.00289259
0.00292601
0.00289457
0.00289457
0.00289259
0.00288609
0.00285104
0.00288414
0.00288414
0.00285299
0.00285299
0.00288609
0.00285104
0.00288414
0.00288414
0.00285299
0.00285299
0.00288414
0.00285299
0.00285299
0.00288609
0.00285104
0.00288414
0.00285299
0.00285299
0.00285104
0.00284458
0.00280986
0.00284265
0.00284265
0.00281177
0.00281177
0.00284458
0.00280985
0.00284265
0.00284265
0.00281177
0.00281177
0.00284265
0.00281177
0.00281177
0.00284458
0.00280985
0.00284265
0.00281177
0.00281177
0.00280985
0.00280344
0.00276901
0.00280152
0.00280152
0.00277089
0.00277089
0.00280344
0.002769
0.00280152
0.00280152
0.00277089
0.00277089
0.00280152
0.00277089
0.00277089
0.00280344
0.002769
0.00280152
0.00277089
0.00277089
0.002769
0.00276262
0.00272847
0.00276072
0.00276072
0.00273032
0.00273032
0.00276262
0.00272846
0.00276072
0.00276072
0.00273032
0.00273032
0.00276072
0.00273032
0.00273032
0.00276262
0.00272847
0.00276072
0.00273032
0.00273032
0.00272847
0.00272212
0.00268822
0.00272023
0.00272022
0.00269005
0.00269005
0.00272211
0.00268822
0.00272023
0.00272023
0.00269005
0.00269005
0.00272023
0.00269005
0.00269005
0.00272212
0.00268822
0.00272023
0.00269005
0.00269005
0.00268822
0.0026819
0.00268002
0.00268002
0.0026819
0.00268002
0.00268002
0.00268002
0.0026819
0.00268002
0.00360824
0.00361821
0.00361283
0.00361282
0.00363529
0.00362219
0.00365064
0.00361611
0.00363507
0.00362215
0.00361606
0.00365055
0.00362663
0.00365467
0.00365435
0.00356724
0.00356725
0.00358561
0.00356554
0.00354535
0.00356451
0.00356726
0.00356732
0.00358562
0.00356554
0.00358574
0.00358575
0.00358575
0.0035446
0.0035446
0.00354461
0.0035446
0.00356591
0.00358273
0.00358582
0.00357006
0.00358798
0.00356687
0.0035707
0.00354556
0.00356457
0.00356596
0.00358584
0.00358277
0.00357008
0.00358805
0.00357072
0.00356688
0.00357921
0.00357924
0.00356692
0.00356721
0.00356724
0.00351758
0.00353544
0.00353646
0.00351667
0.0035348
0.00351621
0.00351758
0.00353543
0.00353646
0.00351667
0.00353221
0.00353222
0.00353222
0.00349392
0.00349392
0.00349392
0.00349392
0.00351667
0.00353593
0.00353229
0.00351973
0.00353522
0.00351714
0.00351968
0.00353482
0.0035162
0.00351668
0.00353229
0.00353593
0.00351974
0.00353523
0.00351968
0.00351715
0.0035362
0.00353621
0.0035171
0.00351727
0.00351727
0.00346531
0.00348391
0.00348475
0.00346454
0.00348361
0.0034643
0.00346531
0.00348391
0.00348475
0.00346454
0.00348094
0.00348094
0.00348094
0.00344197
0.00344197
0.00344197
0.00344197
0.00346479
0.00348428
0.00348094
0.00346795
0.00348399
0.00346496
0.00346794
0.00348361
0.0034643
0.00346479
0.00348095
0.00348428
0.00346796
0.00348399
0.00346794
0.00346496
0.00348436
0.00348436
0.00346528
0.00346491
0.00346491
0.0034132
0.00343169
0.00343238
0.00341259
0.00343152
0.00341244
0.0034132
0.00343169
0.00343238
0.00341259
0.00342904
0.00342904
0.00342904
0.00339061
0.00339061
0.00339061
0.00339061
0.00341293
0.003432
0.00342901
0.00341611
0.0034319
0.00341297
0.00341612
0.00343152
0.00341244
0.00341293
0.00342901
0.003432
0.00341611
0.0034319
0.00341612
0.00341297
0.003432
0.00343199
0.00341346
0.00341286
0.00341285
0.00336233
0.00338047
0.00338097
0.00336189
0.00338035
0.00336176
0.00336233
0.00338047
0.00338097
0.00336189
0.00337796
0.00337796
0.00337796
0.00334054
0.00334054
0.00334054
0.00334054
0.00336222
0.00338071
0.00337792
0.00336535
0.00338068
0.00336222
0.00336535
0.00338035
0.00336176
0.00336221
0.00337792
0.00338071
0.00336535
0.00338067
0.00336535
0.00336222
0.0033807
0.0033807
0.00336278
0.0033621
0.0033621
0.00331298
0.00333069
0.00333105
0.00331267
0.00333061
0.00331255
0.00331298
0.00333069
0.00333105
0.00331267
0.00332825
0.00332825
0.00332825
0.00329192
0.00329192
0.00329192
0.00329192
0.00331297
0.00333088
0.00332821
0.00331601
0.00333086
0.00331297
0.00331601
0.0033306
0.00331256
0.00331297
0.00332821
0.00333088
0.00331601
0.00333086
0.00331601
0.00331297
0.00333088
0.00333088
0.00331355
0.00331285
0.00331285
0.00326509
0.00328238
0.00328263
0.00326488
0.0032823
0.00326477
0.00326509
0.00328238
0.00328263
0.00326487
0.00327998
0.00327998
0.00327998
0.00324463
0.00324463
0.00324463
0.00324463
0.00326515
0.00328252
0.00327994
0.00326809
0.00328251
0.00326514
0.00326808
0.0032823
0.00326477
0.00326514
0.00327994
0.00328252
0.00326809
0.00328251
0.00326808
0.00326514
0.00328255
0.00328255
0.00326572
0.00326503
0.00326503
0.00321846
0.00323537
0.00323555
0.0032183
0.0032353
0.0032182
0.00321846
0.00323537
0.00323555
0.0032183
0.00323299
0.00323299
0.00323299
0.00319848
0.00319848
0.00319848
0.00319849
0.00321856
0.00323549
0.00323296
0.00322141
0.00323548
0.00321856
0.00322139
0.00323529
0.0032182
0.00321856
0.00323296
0.00323549
0.00322141
0.00323548
0.00322139
0.00321856
0.00323552
0.00323552
0.00321912
0.00321845
0.00321845
0.00317288
0.00318946
0.0031896
0.00317275
0.00318939
0.00317265
0.00317288
0.00318946
0.0031896
0.00317275
0.0031871
0.0031871
0.0031871
0.00315328
0.00315328
0.00315328
0.00315328
0.00317301
0.00318956
0.00318707
0.00317577
0.00318955
0.003173
0.00317575
0.00318939
0.00317265
0.00317301
0.00318708
0.00318956
0.00317577
0.00318955
0.00317575
0.003173
0.0031896
0.0031896
0.00317354
0.00317288
0.00317288
0.00312814
0.00314445
0.00314456
0.00312802
0.00314438
0.00312793
0.00312814
0.00314445
0.00314456
0.00312802
0.0031421
0.0031421
0.0031421
0.00310884
0.00310884
0.00310884
0.00310884
0.00312829
0.00314453
0.00314208
0.00313098
0.00314452
0.00312827
0.00313095
0.00314438
0.00312793
0.00312829
0.00314208
0.00314453
0.00313098
0.00314452
0.00313095
0.00312827
0.00314457
0.00314457
0.0031288
0.00312814
0.00312814
0.00308407
0.00310015
0.00310025
0.00308396
0.00310009
0.00308387
0.00308407
0.00310016
0.00310026
0.00308396
0.00309783
0.00309783
0.00309783
0.00306502
0.00306502
0.00306502
0.00306502
0.00308424
0.00310023
0.00309781
0.00308687
0.00310023
0.00308421
0.00308684
0.00310009
0.00308387
0.00308424
0.00309781
0.00310023
0.00308687
0.00310023
0.00308684
0.00308421
0.00310027
0.00310027
0.00308473
0.00308407
0.00308407
0.00304057
0.00305646
0.00305655
0.00304045
0.00305639
0.00304037
0.00304057
0.00305646
0.00305655
0.00304045
0.00305415
0.00305415
0.00305415
0.00302173
0.00302173
0.00302173
0.00302173
0.00304076
0.00305652
0.00305414
0.00304332
0.00305653
0.00304071
0.0030433
0.00305639
0.00304037
0.00304076
0.00305414
0.00305652
0.00304332
0.00305653
0.0030433
0.00304071
0.00305655
0.00305656
0.00304121
0.00304056
0.00304056
0.00299756
0.00301327
0.00301337
0.00299744
0.00301321
0.00299736
0.00299756
0.00301327
0.00301337
0.00299744
0.00301098
0.00301098
0.00301098
0.00297891
0.00297891
0.00297891
0.00297891
0.00299777
0.00301332
0.00301098
0.00300027
0.00301335
0.0029977
0.00300026
0.00301321
0.00299736
0.00299777
0.00301098
0.00301332
0.00300027
0.00301335
0.00300026
0.0029977
0.00301336
0.00301336
0.00299818
0.00299754
0.00299754
0.002955
0.00297054
0.00297064
0.00295488
0.00297049
0.0029548
0.002955
0.00297054
0.00297064
0.00295488
0.00296828
0.00296828
0.00296828
0.00293653
0.00293653
0.00293653
0.00293653
0.00295523
0.00297059
0.00296828
0.00295768
0.00297063
0.00295513
0.00295767
0.00297049
0.0029548
0.00295523
0.00296828
0.00297059
0.00295768
0.00297063
0.00295767
0.00295513
0.00297062
0.00297062
0.00295563
0.00295496
0.00295496
0.00291286
0.00292825
0.00292835
0.00291273
0.0029282
0.00291267
0.00291286
0.00292825
0.00292835
0.00291273
0.00292601
0.002926
0.002926
0.00289457
0.00289457
0.00289457
0.00289457
0.00291311
0.00292829
0.00292601
0.00291551
0.00292834
0.00291298
0.0029155
0.0029282
0.00291266
0.00291311
0.00292601
0.00292829
0.00291551
0.00292834
0.0029155
0.00291298
0.00292832
0.00292832
0.0029135
0.00291281
0.00291281
0.00287112
0.00288636
0.00288646
0.00287099
0.00288631
0.00287092
0.00287112
0.00288636
0.00288646
0.00287098
0.00288414
0.00288414
0.00288414
0.00285299
0.00285299
0.00285299
0.00285299
0.00287138
0.00288639
0.00288414
0.00287374
0.00288646
0.00287123
0.00287373
0.00288631
0.00287093
0.00287138
0.00288414
0.00288639
0.00287374
0.00288646
0.00287373
0.00287123
0.00288642
0.00288642
0.00287177
0.00287106
0.00287106
0.00282975
0.00284485
0.00284496
0.00282961
0.00284482
0.00282956
0.00282974
0.00284485
0.00284496
0.00282961
0.00284265
0.00284265
0.00284265
0.00281176
0.00281177
0.00281176
0.00281177
0.00283002
0.00284488
0.00284265
0.00283234
0.00284496
0.00282985
0.00283234
0.00284482
0.00282956
0.00283002
0.00284265
0.00284488
0.00283234
0.00284496
0.00283234
0.00282985
0.00284491
0.00284491
0.0028304
0.00282968
0.00282968
0.00278873
0.00280371
0.00280381
0.0027886
0.00280368
0.00278855
0.00278873
0.00280371
0.00280381
0.0027886
0.00280151
0.00280151
0.00280151
0.00277088
0.00277088
0.00277088
0.00277088
0.00278901
0.00280373
0.00280152
0.00279129
0.00280381
0.00278883
0.00279129
0.00280368
0.00278855
0.00278901
0.00280152
0.00280373
0.00279129
0.00280381
0.00279129
0.00278883
0.00280376
0.00280376
0.00278939
0.00278865
0.00278865
0.00274803
0.00276291
0.002763
0.0027479
0.00276287
0.00274786
0.00274803
0.00276291
0.002763
0.00274791
0.00276071
0.00276071
0.00276071
0.00273032
0.00273032
0.00273032
0.00273032
0.00274832
0.00276292
0.00276072
0.00275057
0.002763
0.00274813
0.00275057
0.00276288
0.00274786
0.00274832
0.00276072
0.00276292
0.00275057
0.002763
0.00275057
0.00274813
0.00276294
0.00276295
0.0027487
0.00274795
0.00274795
0.00270763
0.00272241
0.0027225
0.00270751
0.00272238
0.00270749
0.00270763
0.00272241
0.0027225
0.00270751
0.00272022
0.00272022
0.00272022
0.00269004
0.00269004
0.00269004
0.00269004
0.00270793
0.00272241
0.00272023
0.00271015
0.00272249
0.00270773
0.00271015
0.00272238
0.00270747
0.00270793
0.00272023
0.00272241
0.00271015
0.00272249
0.00271015
0.00270773
0.00272244
0.00272244
0.00270831
0.00270756
0.00270756
0.00266751
0.0026822
0.00268228
0.0026674
0.00268216
0.00266736
0.0026822
0.00268228
0.0026674
0.00268002
0.00268002
0.00268002
0.00266781
0.0026822
0.00268002
0.00267001
0.00268227
0.0026676
0.00267002
0.00268217
0.00266781
0.00268002
0.0026822
0.00268227
0.00267002
0.00268223
0.00268223
0.0026682
0.00266744
0.00266744
0.0036267
0.00365471
0.00365468
0.00360881
0.00365432
0.0036089
0.00365426
0.00362334
0.00360756
0.00360762
0.00364891
0.00364886
0.00363529
0.00362221
0.00365065
0.00361612
0.00363529
0.00362219
0.00365061
0.00361612
0.00363905
0.00360307
0.00365105
0.00360084
0.00363905
0.0036031
0.00365103
0.00360084
0.00363069
0.00361936
0.0036027
0.00360138
0.0036452
0.00361422
0.00360093
0.00363068
0.00361934
0.00360274
0.00360137
0.00364517
0.00361422
0.00360094
0.00362667
0.00365467
0.00365471
0.0036088
0.00365431
0.00362332
0.00360757
0.00360764
0.00364887
0.0036489
0.00360898
0.00365434
0.00363526
0.0036222
0.00365061
0.00361611
0.00363522
0.00362215
0.0036161
0.00365036
0.00363904
0.00360312
0.003651
0.00360085
0.00363068
0.00361936
0.00360275
0.00360138
0.00364516
0.00361421
0.00360094
0.00363902
0.00360318
0.00365071
0.00360087
0.00363065
0.00361931
0.00360138
0.0036028
0.0036142
0.00364494
0.00360096
0.00360824
0.0036182
0.00361283
0.00361282
0.00360823
0.00361817
0.00361281
0.00361279
0.00360823
0.00361816
0.00361282
0.00361278
0.00360693
0.00361584
0.00359843
0.00359843
0.00361117
0.00361116
0.00359679
0.00360693
0.00361583
0.00359842
0.00359842
0.00361117
0.00361117
0.00359679
0.00360692
0.00361581
0.00359843
0.00359842
0.00361116
0.00361114
0.00359679
0.00360692
0.0036158
0.00359842
0.00359843
0.00361116
0.00361114
0.00359679
0.00363529
0.00362216
0.00361611
0.0036506
0.00363068
0.00361934
0.00360272
0.00360138
0.00364518
0.00361422
0.00360094
0.00363905
0.00360308
0.00365106
0.00360083
0.00363069
0.00361932
0.00360137
0.00360271
0.00361421
0.00364517
0.00360093
0.00363906
0.00360308
0.00365103
0.00360082
0.00362663
0.00365446
0.00365461
0.00360906
0.00365403
0.00362328
0.00360769
0.00360761
0.00364868
0.00364885
0.00360885
0.00365428
0.00363496
0.00362213
0.00361605
0.00365025
0.00363054
0.00361931
0.00360138
0.00360277
0.00361417
0.00364513
0.00360101
0.00363045
0.0036193
0.00360139
0.00360283
0.00361416
0.00364484
0.00360106
0.00363881
0.00360317
0.00365098
0.00360094
0.0036387
0.00360324
0.00365061
0.00360101
0.00362328
0.00360758
0.00360765
0.00364886
0.00364855
0.00360878
0.00365428
0.00360895
0.0036539
0.0035453
0.00356448
0.00354545
0.00356448
0.00357916
0.00357923
0.00356693
0.00356721
0.00356722
0.00354121
0.00355772
0.0035412
0.00355779
0.00355935
0.00354272
0.00354272
0.00356037
0.0035604
0.00356724
0.00356733
0.00358562
0.00356555
0.00356592
0.00358272
0.00358582
0.00357006
0.00358798
0.00356686
0.0035707
0.00356592
0.00358273
0.00358582
0.00357006
0.00358799
0.00356687
0.00357071
0.00356086
0.00354189
0.00355886
0.00354293
0.00356086
0.00354189
0.00355886
0.00354293
0.00355951
0.00355706
0.00354246
0.0035447
0.00356016
0.00355724
0.00354173
0.00355951
0.00355706
0.00354246
0.0035447
0.00356016
0.00355724
0.00354173
0.00357917
0.00357923
0.00356694
0.00356722
0.00356724
0.00354548
0.00356451
0.0035412
0.00355774
0.00355935
0.00354272
0.00354273
0.00356038
0.00356039
0.00354122
0.00355775
0.00356593
0.00358274
0.00358582
0.00357007
0.00358799
0.00356686
0.00357071
0.00356727
0.00356738
0.00358563
0.00356559
0.00356593
0.00358583
0.00358278
0.00357007
0.003588
0.00357072
0.0035669
0.00356087
0.00354189
0.00355889
0.00354293
0.00355952
0.00355706
0.00354246
0.0035447
0.00356017
0.00355725
0.00354173
0.00356087
0.0035419
0.0035589
0.00354294
0.00355952
0.00355707
0.0035447
0.00354246
0.00355725
0.00356018
0.00354174
0.00356724
0.00356725
0.00358559
0.00356556
0.00356591
0.00358582
0.00358274
0.00357006
0.00358797
0.00357071
0.00356686
0.00356724
0.00356728
0.00358558
0.00356555
0.0035595
0.00355706
0.00354246
0.0035447
0.00356016
0.00355724
0.00354173
0.00356085
0.0035419
0.00355886
0.00354293
0.00355951
0.00355706
0.0035447
0.00354246
0.00355725
0.00356016
0.00354173
0.00356086
0.0035419
0.00355885
0.00354293
0.00357929
0.00357925
0.00356693
0.00356725
0.00356723
0.00354548
0.00356449
0.00354122
0.00355778
0.00355937
0.00354273
0.00354273
0.00356041
0.0035604
0.00354121
0.00355775
0.00356595
0.00358584
0.00358281
0.00357008
0.00358807
0.00357073
0.0035669
0.0035673
0.00356737
0.00358568
0.00356556
0.00356728
0.00356737
0.00358572
0.00356559
0.00355954
0.00355708
0.00354471
0.00354247
0.00355726
0.00356018
0.00354174
0.00355953
0.00355707
0.00354471
0.00354246
0.00355726
0.00356019
0.00354173
0.00356089
0.0035419
0.0035589
0.00354294
0.00356088
0.00354189
0.00355888
0.00354293
0.00354543
0.00356448
0.00354549
0.00356452
0.00355936
0.00354272
0.00354272
0.00356039
0.0035604
0.00354122
0.00355772
0.0035412
0.00355777
0.00353481
0.00351621
0.00353479
0.00351621
0.0035362
0.0035362
0.0035171
0.00351727
0.00351727
0.00349038
0.00350954
0.00349038
0.00350954
0.00350918
0.00349117
0.00349117
0.00351054
0.00351054
0.00351758
0.00353543
0.00353646
0.00351667
0.00351667
0.00353592
0.00353229
0.00351973
0.00353522
0.00351714
0.00351968
0.00351667
0.00353592
0.00353229
0.00351973
0.00353522
0.00351714
0.00351968
0.00351087
0.00349071
0.00350996
0.00349155
0.00351087
0.00349071
0.00350996
0.00349155
0.00350991
0.00350691
0.00349115
0.00349393
0.00351037
0.00350686
0.00349086
0.00350991
0.00350691
0.00349115
0.00349393
0.00351038
0.00350686
0.00349086
0.0035362
0.00353621
0.0035171
0.00351727
0.00351727
0.00353483
0.0035162
0.00349038
0.00350954
0.00350918
0.00349117
0.00349117
0.00351054
0.00351054
0.00349038
0.00350954
0.00351667
0.00353592
0.00353229
0.00351973
0.00353522
0.00351714
0.00351968
0.00351758
0.00353544
0.00353646
0.00351667
0.00351668
0.00353229
0.00353592
0.00351974
0.00353522
0.00351968
0.00351714
0.00351088
0.00349071
0.00350996
0.00349155
0.00350991
0.00350691
0.00349115
0.00349393
0.00351037
0.00350686
0.00349086
0.00351088
0.0034907
0.00350997
0.00349155
0.00350991
0.00350692
0.00349393
0.00349115
0.00350686
0.00351037
0.00349086
0.00351758
0.00353545
0.00353646
0.00351667
0.00351667
0.00353229
0.00353592
0.00351973
0.00353522
0.00351968
0.00351714
0.00351758
0.00353543
0.00353646
0.00351667
0.00350991
0.00350691
0.00349115
0.00349393
0.00351037
0.00350686
0.00349086
0.00351088
0.00349071
0.00350997
0.00349155
0.00350991
0.00350692
0.00349393
0.00349115
0.00350686
0.00351037
0.00349086
0.00351088
0.00349071
0.00350997
0.00349155
0.00353621
0.00353621
0.0035171
0.00351727
0.00351727
0.00353482
0.00351621
0.00349038
0.00350954
0.00350919
0.00349117
0.00349117
0.00351054
0.00351054
0.00349038
0.00350954
0.00351668
0.00353229
0.00353593
0.00351974
0.00353523
0.00351968
0.00351715
0.00351759
0.00353544
0.00353648
0.00351667
0.00351758
0.00353544
0.00353647
0.00351668
0.00350992
0.00350692
0.00349393
0.00349115
0.00350687
0.00351038
0.00349087
0.00350992
0.00350692
0.00349393
0.00349115
0.00350687
0.00351038
0.00349086
0.00351088
0.0034907
0.00350997
0.00349155
0.00351088
0.00349071
0.00350997
0.00349155
0.0035348
0.00351621
0.00353481
0.00351621
0.00350918
0.00349117
0.00349117
0.00351054
0.00351054
0.00349038
0.00350954
0.00349038
0.00350954
0.00348361
0.0034643
0.00348361
0.0034643
0.00348436
0.00348436
0.00346528
0.00346491
0.00346491
0.00343826
0.00345752
0.00343826
0.00345752
0.00345724
0.00343875
0.00343875
0.0034581
0.0034581
0.00346531
0.00348391
0.00348475
0.00346454
0.00346479
0.00348428
0.00348094
0.00346796
0.00348399
0.00346496
0.00346794
0.00346479
0.00348428
0.00348094
0.00346796
0.00348399
0.00346496
0.00346794
0.0034585
0.00343845
0.00345774
0.00343914
0.0034585
0.00343845
0.00345773
0.00343914
0.0034579
0.00345494
0.00343885
0.00344195
0.00345808
0.00345493
0.00343876
0.0034579
0.00345494
0.00343885
0.00344195
0.00345808
0.00345493
0.00343876
0.00348436
0.00348436
0.00346528
0.00346491
0.00346491
0.00348361
0.0034643
0.00343826
0.00345752
0.00345724
0.00343875
0.00343875
0.0034581
0.0034581
0.00343826
0.00345752
0.00346479
0.00348428
0.00348094
0.00346796
0.00348399
0.00346496
0.00346794
0.00346531
0.00348391
0.00348475
0.00346454
0.00346479
0.00348094
0.00348428
0.00346796
0.00348399
0.00346794
0.00346496
0.0034585
0.00343845
0.00345774
0.00343914
0.0034579
0.00345494
0.00343885
0.00344195
0.00345808
0.00345493
0.00343876
0.0034585
0.00343845
0.00345773
0.00343914
0.0034579
0.00345494
0.00344195
0.00343885
0.00345493
0.00345808
0.00343876
0.00346531
0.00348391
0.00348475
0.00346454
0.0034648
0.00348094
0.00348428
0.00346796
0.00348399
0.00346794
0.00346496
0.00346531
0.00348391
0.00348475
0.00346454
0.0034579
0.00345494
0.00343885
0.00344195
0.00345808
0.00345493
0.00343876
0.00345851
0.00343845
0.00345774
0.00343914
0.0034579
0.00345494
0.00344195
0.00343885
0.00345493
0.00345808
0.00343876
0.00345851
0.00343845
0.00345774
0.00343914
0.00348436
0.00348436
0.00346528
0.00346491
0.00346491
0.00348361
0.0034643
0.00343826
0.00345752
0.00345724
0.00343875
0.00343875
0.0034581
0.0034581
0.00343826
0.00345752
0.00346479
0.00348095
0.00348428
0.00346796
0.00348399
0.00346794
0.00346496
0.00346531
0.00348391
0.00348475
0.00346454
0.00346531
0.00348391
0.00348475
0.00346454
0.0034579
0.00345494
0.00344195
0.00343885
0.00345493
0.00345808
0.00343876
0.0034579
0.00345494
0.00344195
0.00343885
0.00345493
0.00345808
0.00343876
0.00345851
0.00343845
0.00345773
0.00343914
0.00345851
0.00343845
0.00345774
0.00343914
0.00348361
0.0034643
0.00348361
0.0034643
0.00345724
0.00343876
0.00343875
0.0034581
0.0034581
0.00343826
0.00345752
0.00343826
0.00345752
0.00343152
0.00341244
0.00343152
0.00341244
0.00343199
0.00343199
0.00341346
0.00341285
0.00341285
0.00338692
0.00340578
0.00338692
0.00340578
0.00340555
0.00338729
0.00338729
0.00340617
0.00340617
0.0034132
0.00343169
0.00343238
0.00341259
0.00341293
0.003432
0.00342901
0.00341611
0.0034319
0.00341297
0.00341612
0.00341293
0.003432
0.00342901
0.00341611
0.0034319
0.00341297
0.00341612
0.0034065
0.00338706
0.00340591
0.00338758
0.0034065
0.00338706
0.00340591
0.00338758
0.00340613
0.0034033
0.00338741
0.00339057
0.00340619
0.00340331
0.00338739
0.00340613
0.0034033
0.00338741
0.00339057
0.00340619
0.00340331
0.00338739
0.00343199
0.00343199
0.00341346
0.00341285
0.00341285
0.00343152
0.00341244
0.00338692
0.00340577
0.00340555
0.00338729
0.00338729
0.00340617
0.00340617
0.00338692
0.00340578
0.00341293
0.003432
0.00342901
0.00341611
0.0034319
0.00341297
0.00341612
0.0034132
0.00343169
0.00343238
0.00341259
0.00341293
0.00342901
0.003432
0.00341611
0.0034319
0.00341612
0.00341297
0.0034065
0.00338706
0.00340591
0.00338758
0.00340613
0.0034033
0.00338741
0.00339057
0.00340619
0.00340331
0.00338739
0.0034065
0.00338706
0.00340591
0.00338758
0.00340613
0.0034033
0.00339057
0.00338741
0.00340331
0.00340618
0.00338739
0.0034132
0.00343169
0.00343238
0.00341259
0.00341293
0.00342901
0.003432
0.00341612
0.0034319
0.00341612
0.00341297
0.0034132
0.00343169
0.00343238
0.00341259
0.00340613
0.0034033
0.00338741
0.00339057
0.00340618
0.00340331
0.0033874
0.00340651
0.00338706
0.00340591
0.00338758
0.00340613
0.0034033
0.00339057
0.00338741
0.00340331
0.00340619
0.0033874
0.00340651
0.00338706
0.00340591
0.00338758
0.00343199
0.00343199
0.00341346
0.00341285
0.00341285
0.00343153
0.00341244
0.00338692
0.00340577
0.00340555
0.00338729
0.00338729
0.00340617
0.00340617
0.00338692
0.00340577
0.00341293
0.00342901
0.003432
0.00341611
0.0034319
0.00341612
0.00341297
0.0034132
0.00343169
0.00343238
0.00341259
0.0034132
0.00343169
0.00343238
0.00341259
0.00340613
0.0034033
0.00339057
0.00338741
0.00340331
0.00340619
0.00338739
0.00340613
0.0034033
0.00339057
0.00338741
0.00340331
0.00340619
0.00338739
0.0034065
0.00338706
0.00340591
0.00338758
0.0034065
0.00338706
0.00340591
0.00338758
0.00343152
0.00341244
0.00343152
0.00341244
0.00340556
0.00338729
0.00338729
0.00340617
0.00340617
0.00338692
0.00340578
0.00338692
0.00340578
0.00338035
0.00336177
0.00338035
0.00336176
0.00338069
0.00338069
0.00336278
0.0033621
0.0033621
0.00333698
0.00335529
0.00333698
0.00335529
0.00335509
0.00333729
0.00333729
0.0033556
0.0033556
0.00336233
0.00338047
0.00338097
0.00336189
0.00336222
0.00338071
0.00337792
0.00336535
0.00338067
0.00336222
0.00336535
0.00336222
0.00338071
0.00337792
0.00336535
0.00338067
0.00336222
0.00336535
0.00335582
0.0033371
0.00335539
0.00333747
0.00335581
0.0033371
0.00335539
0.00333747
0.00335558
0.00335288
0.00333741
0.0033405
0.0033556
0.00335288
0.00333741
0.00335558
0.00335288
0.00333741
0.0033405
0.0033556
0.00335288
0.00333741
0.0033807
0.00338069
0.00336278
0.00336209
0.0033621
0.00338035
0.00336177
0.00333698
0.00335528
0.00335509
0.00333729
0.00333729
0.00335559
0.0033556
0.00333698
0.00335529
0.00336221
0.00338071
0.00337792
0.00336535
0.00338067
0.00336222
0.00336535
0.00336233
0.00338047
0.00338097
0.00336189
0.00336221
0.00337792
0.00338071
0.00336535
0.00338067
0.00336535
0.00336222
0.00335581
0.0033371
0.00335539
0.00333746
0.00335558
0.00335288
0.00333741
0.0033405
0.0033556
0.00335288
0.00333741
0.00335581
0.0033371
0.00335539
0.00333747
0.00335558
0.00335288
0.0033405
0.00333741
0.00335288
0.0033556
0.00333741
0.00336233
0.00338047
0.00338097
0.00336189
0.00336222
0.00337792
0.00338071
0.00336535
0.00338068
0.00336535
0.00336222
0.00336233
0.00338047
0.00338097
0.00336189
0.00335558
0.00335288
0.00333741
0.0033405
0.0033556
0.00335288
0.00333741
0.00335582
0.0033371
0.00335539
0.00333747
0.00335558
0.00335288
0.0033405
0.0033374
0.00335288
0.0033556
0.00333741
0.00335582
0.0033371
0.00335539
0.00333747
0.00338069
0.00338069
0.00336278
0.0033621
0.0033621
0.00338035
0.00336176
0.00333698
0.00335529
0.00335509
0.00333729
0.00333729
0.0033556
0.0033556
0.00333698
0.00335529
0.00336221
0.00337792
0.00338071
0.00336535
0.00338067
0.00336535
0.00336222
0.00336233
0.00338047
0.00338097
0.00336189
0.00336233
0.00338047
0.00338097
0.00336189
0.00335558
0.00335288
0.0033405
0.0033374
0.00335288
0.0033556
0.00333741
0.00335558
0.00335288
0.0033405
0.0033374
0.00335288
0.0033556
0.00333741
0.00335581
0.0033371
0.00335539
0.00333746
0.00335581
0.0033371
0.00335539
0.00333746
0.00338035
0.00336177
0.00338035
0.00336177
0.00335509
0.00333729
0.00333729
0.0033556
0.0033556
0.00333698
0.00335529
0.00333698
0.00335529
0.0033306
0.00331256
0.0033306
0.00331256
0.00333088
0.00333088
0.00331355
0.00331285
0.00331285
0.0032885
0.00330627
0.0032885
0.00330627
0.00330608
0.00328878
0.00328878
0.00330654
0.00330654
0.00331298
0.0033307
0.00333105
0.00331267
0.00331297
0.00333088
0.00332821
0.00331601
0.00333086
0.00331297
0.00331601
0.00331297
0.00333088
0.00332821
0.00331601
0.00333086
0.00331296
0.00331601
0.00330665
0.00328861
0.00330636
0.00328887
0.00330665
0.00328861
0.00330636
0.00328887
0.00330651
0.0033039
0.00328889
0.00329188
0.00330652
0.0033039
0.00328889
0.00330651
0.0033039
0.00328888
0.00329188
0.00330652
0.0033039
0.00328889
0.00333089
0.00333088
0.00331355
0.00331284