/*--------------------------------*- C++ -*----------------------------------*\
| =========                 |                                                 |
| \\      /  F ield         | OpenFOAM: The Open Source CFD Toolbox           |
|  \\    /   O peration     | Version:  v1906                                 |
|   \\  /    A nd           | Web:      www.OpenFOAM.com                      |
|    \\/     M anipulation  |                                                 |
\*---------------------------------------------------------------------------*/
FoamFile
{
    version     2.0;
    format      ascii;
    class       volScalarField;
    location    "875";
    object      k;
}
// * * * * * * * * * * * * * * * * * * * * * * * * * * * * * * * * * * * * * //

dimensions      [0 2 -2 0 0 0 0];


internalField   nonuniform List<scalar> 
171728
(
3.58932e-05
3.58912e-05
3.58912e-05
3.59957e-05
3.39296e-05
3.3889e-05
3.3889e-05
3.39622e-05
3.21578e-05
3.20081e-05
3.20081e-05
3.19522e-05
3.05346e-05
3.02293e-05
3.02292e-05
2.99884e-05
2.90329e-05
2.8554e-05
2.85539e-05
2.81227e-05
2.76353e-05
2.69872e-05
2.69871e-05
2.63907e-05
2.63308e-05
2.5531e-05
2.55309e-05
2.48073e-05
2.51112e-05
2.4185e-05
2.41848e-05
2.33782e-05
2.39709e-05
2.29507e-05
2.29505e-05
2.21048e-05
2.29058e-05
2.18269e-05
2.18267e-05
2.09857e-05
2.1912e-05
2.08115e-05
2.08113e-05
2.00137e-05
2.09865e-05
1.99015e-05
1.99013e-05
1.91825e-05
2.01241e-05
1.90953e-05
1.90948e-05
1.84882e-05
1.9324e-05
1.83887e-05
1.83887e-05
1.79384e-05
1.85847e-05
1.77801e-05
1.778e-05
1.75103e-05
1.79047e-05
1.72716e-05
1.7271e-05
1.72352e-05
1.72808e-05
1.68577e-05
1.68565e-05
1.71009e-05
1.67136e-05
1.65447e-05
1.6539e-05
1.70262e-05
1.61935e-05
1.631e-05
1.62965e-05
1.71669e-05
1.57296e-05
1.61739e-05
1.6165e-05
1.73762e-05
1.53045e-05
1.61064e-05
1.61251e-05
1.75414e-05
1.49476e-05
1.61582e-05
1.61527e-05
1.8537e-05
1.461e-05
1.62994e-05
1.63278e-05
1.88887e-05
1.43285e-05
1.64694e-05
1.648e-05
1.94202e-05
1.41113e-05
1.68631e-05
1.68576e-05
2.00375e-05
1.39208e-05
1.72778e-05
1.72639e-05
2.08202e-05
1.37853e-05
1.76677e-05
1.76471e-05
2.20037e-05
1.36833e-05
1.82659e-05
1.82907e-05
2.30467e-05
1.36442e-05
1.88692e-05
1.88744e-05
2.41077e-05
1.36415e-05
1.96022e-05
1.96167e-05
2.51257e-05
1.36791e-05
2.03684e-05
2.03521e-05
2.61598e-05
1.37676e-05
2.11541e-05
2.11593e-05
2.72889e-05
1.39061e-05
2.20313e-05
2.20359e-05
2.83674e-05
1.40858e-05
2.29407e-05
2.29422e-05
2.94207e-05
1.43133e-05
2.38823e-05
2.38839e-05
3.0485e-05
1.45875e-05
2.48569e-05
2.48589e-05
3.15193e-05
1.49085e-05
2.58534e-05
2.58575e-05
3.25375e-05
1.52759e-05
2.68726e-05
2.68732e-05
3.35352e-05
1.56886e-05
2.78972e-05
2.79013e-05
3.45001e-05
1.61461e-05
2.89327e-05
2.89342e-05
3.54538e-05
1.66473e-05
2.99679e-05
2.99711e-05
3.63689e-05
1.71898e-05
3.10009e-05
3.10033e-05
3.72768e-05
1.77729e-05
3.20216e-05
3.20245e-05
3.81338e-05
1.83942e-05
3.30376e-05
3.30409e-05
3.89932e-05
1.905e-05
3.40343e-05
3.40359e-05
3.98112e-05
1.97389e-05
3.50079e-05
3.50114e-05
4.06046e-05
2.04556e-05
3.59687e-05
3.5971e-05
4.13852e-05
2.11994e-05
3.6899e-05
3.6902e-05
4.21234e-05
2.19626e-05
3.7808e-05
3.78104e-05
4.28512e-05
2.27464e-05
3.86906e-05
3.86931e-05
4.35522e-05
2.35426e-05
3.95425e-05
3.9545e-05
4.42242e-05
2.43469e-05
4.03684e-05
4.03704e-05
4.48638e-05
2.51609e-05
4.11654e-05
4.11682e-05
4.55021e-05
2.59769e-05
4.19373e-05
4.19389e-05
4.61063e-05
2.67902e-05
4.26722e-05
4.26744e-05
4.66706e-05
2.75979e-05
4.33832e-05
4.33847e-05
4.72352e-05
2.84029e-05
4.4066e-05
4.40685e-05
4.7771e-05
2.91933e-05
4.47197e-05
4.4721e-05
4.82726e-05
2.99738e-05
4.53422e-05
4.53434e-05
4.87728e-05
3.07376e-05
4.59422e-05
4.5945e-05
4.92332e-05
3.14825e-05
4.65073e-05
4.65063e-05
4.96805e-05
3.2214e-05
4.70596e-05
4.70644e-05
5.01221e-05
3.2913e-05
4.75427e-05
4.75411e-05
5.04619e-05
3.35907e-05
4.80519e-05
4.80529e-05
5.09071e-05
3.42685e-05
4.8535e-05
4.85386e-05
5.12835e-05
3.48995e-05
4.89394e-05
4.89377e-05
5.15796e-05
3.54977e-05
4.9355e-05
4.93574e-05
5.19193e-05
3.60855e-05
4.97477e-05
4.97481e-05
5.22261e-05
3.66406e-05
5.00972e-05
5.00977e-05
5.25091e-05
3.717e-05
5.04455e-05
5.04479e-05
5.27847e-05
3.76667e-05
5.07397e-05
5.07367e-05
5.29832e-05
3.81282e-05
5.10237e-05
5.1027e-05
5.32581e-05
3.86027e-05
5.13569e-05
5.13565e-05
5.35362e-05
3.90101e-05
5.15416e-05
5.15439e-05
5.36215e-05
3.93678e-05
5.17259e-05
5.17262e-05
5.37761e-05
3.97407e-05
5.19876e-05
5.19815e-05
5.40197e-05
4.00864e-05
5.21527e-05
5.21624e-05
5.41513e-05
4.03951e-05
5.23253e-05
5.23204e-05
5.42614e-05
4.06518e-05
5.23904e-05
5.23945e-05
5.42997e-05
4.09299e-05
5.2643e-05
5.26387e-05
5.45972e-05
4.11832e-05
5.26855e-05
5.26742e-05
5.45404e-05
4.12861e-05
5.26157e-05
5.26332e-05
5.4375e-05
4.15336e-05
5.28919e-05
5.28668e-05
5.48502e-05
4.17632e-05
5.29384e-05
5.2925e-05
5.47751e-05
4.18155e-05
5.28415e-05
5.28788e-05
5.46202e-05
4.1885e-05
5.28463e-05
5.2834e-05
5.46381e-05
4.21021e-05
5.30247e-05
5.3006e-05
5.4959e-05
4.21583e-05
5.28737e-05
5.2987e-05
5.46392e-05
4.21148e-05
5.27882e-05
5.26816e-05
5.44197e-05
4.2202e-05
5.28736e-05
5.29629e-05
5.48761e-05
4.24311e-05
5.29981e-05
5.31074e-05
5.49741e-05
4.25129e-05
5.32032e-05
5.30257e-05
5.54259e-05
4.16645e-05
5.14208e-05
5.14017e-05
5.18606e-05
4.14237e-05
5.10863e-05
5.11479e-05
5.20655e-05
4.33337e-05
5.42736e-05
5.4848e-05
6.07705e-05
3.63068e-05
3.6291e-05
3.6291e-05
3.63068e-05
3.6291e-05
3.6291e-05
3.6423e-05
3.6423e-05
3.6423e-05
3.6423e-05
3.6291e-05
3.6291e-05
3.63068e-05
3.6291e-05
3.6291e-05
3.63068e-05
3.59957e-05
3.42687e-05
3.58912e-05
3.58912e-05
3.43767e-05
3.43766e-05
3.59957e-05
3.42687e-05
3.58911e-05
3.58912e-05
3.43767e-05
3.43766e-05
3.58912e-05
3.43767e-05
3.43767e-05
3.59957e-05
3.42687e-05
3.58912e-05
3.43767e-05
3.43767e-05
3.42687e-05
3.39623e-05
3.22635e-05
3.38889e-05
3.38889e-05
3.24684e-05
3.24683e-05
3.39623e-05
3.22635e-05
3.38889e-05
3.38889e-05
3.24684e-05
3.24683e-05
3.38889e-05
3.24685e-05
3.24684e-05
3.39623e-05
3.22634e-05
3.38889e-05
3.24685e-05
3.24684e-05
3.22634e-05
3.19522e-05
3.02993e-05
3.20079e-05
3.20078e-05
3.06643e-05
3.06642e-05
3.19522e-05
3.02994e-05
3.2008e-05
3.20078e-05
3.06644e-05
3.06641e-05
3.20079e-05
3.06646e-05
3.06643e-05
3.19522e-05
3.02992e-05
3.2008e-05
3.06645e-05
3.06644e-05
3.02992e-05
2.99885e-05
2.84253e-05
3.0229e-05
3.02288e-05
2.89624e-05
2.89622e-05
2.99886e-05
2.84254e-05
3.02291e-05
3.02287e-05
2.89626e-05
2.89621e-05
3.02289e-05
2.89628e-05
2.89623e-05
2.99885e-05
2.84251e-05
3.02291e-05
2.89627e-05
2.89626e-05
2.84252e-05
2.81227e-05
2.6674e-05
2.85536e-05
2.85534e-05
2.7368e-05
2.73678e-05
2.81228e-05
2.66742e-05
2.85538e-05
2.85533e-05
2.73683e-05
2.73676e-05
2.85535e-05
2.73686e-05
2.73679e-05
2.81226e-05
2.66739e-05
2.85538e-05
2.73684e-05
2.73683e-05
2.66738e-05
2.63908e-05
2.50663e-05
2.69866e-05
2.69864e-05
2.58841e-05
2.58838e-05
2.63909e-05
2.50665e-05
2.69869e-05
2.69862e-05
2.58845e-05
2.58836e-05
2.69865e-05
2.58848e-05
2.5884e-05
2.63907e-05
2.50661e-05
2.69869e-05
2.58846e-05
2.58844e-05
2.50661e-05
2.48075e-05
2.36126e-05
2.55304e-05
2.55301e-05
2.45102e-05
2.45099e-05
2.48077e-05
2.36127e-05
2.55308e-05
2.55299e-05
2.45107e-05
2.45097e-05
2.55303e-05
2.45111e-05
2.45102e-05
2.48074e-05
2.36123e-05
2.55307e-05
2.45108e-05
2.45107e-05
2.36122e-05
2.33784e-05
2.23125e-05
2.41842e-05
2.41839e-05
2.32479e-05
2.32475e-05
2.33784e-05
2.23126e-05
2.41847e-05
2.41837e-05
2.32484e-05
2.32473e-05
2.41841e-05
2.32488e-05
2.32478e-05
2.33781e-05
2.23122e-05
2.41846e-05
2.32486e-05
2.32484e-05
2.23122e-05
2.21049e-05
2.11679e-05
2.29497e-05
2.29494e-05
2.20966e-05
2.20963e-05
2.21051e-05
2.11685e-05
2.29503e-05
2.29492e-05
2.20972e-05
2.2096e-05
2.29496e-05
2.20976e-05
2.20965e-05
2.21047e-05
2.11682e-05
2.29503e-05
2.20974e-05
2.20972e-05
2.11677e-05
2.09866e-05
2.01712e-05
2.18259e-05
2.18255e-05
2.10543e-05
2.10539e-05
2.09868e-05
2.0171e-05
2.18266e-05
2.18253e-05
2.1055e-05
2.10536e-05
2.18258e-05
2.10553e-05
2.10542e-05
2.09863e-05
2.01704e-05
2.18266e-05
2.1055e-05
2.1055e-05
2.01703e-05
2.00142e-05
1.93151e-05
2.08104e-05
2.08101e-05
2.01179e-05
2.01177e-05
2.00136e-05
1.93151e-05
2.08111e-05
2.08098e-05
2.01188e-05
2.01175e-05
2.08103e-05
2.01192e-05
2.01182e-05
2.00133e-05
1.93147e-05
2.08112e-05
2.0119e-05
2.0119e-05
1.93154e-05
1.91812e-05
1.85882e-05
1.99002e-05
1.99001e-05
1.92856e-05
1.92855e-05
1.9182e-05
1.85905e-05
1.9901e-05
1.98998e-05
1.92863e-05
1.92854e-05
1.99002e-05
1.92869e-05
1.92858e-05
1.91816e-05
1.85915e-05
1.9901e-05
1.92868e-05
1.92865e-05
1.85919e-05
1.84883e-05
1.80013e-05
1.90941e-05
1.90939e-05
1.85554e-05
1.85548e-05
1.84915e-05
1.80009e-05
1.90947e-05
1.90934e-05
1.85561e-05
1.85544e-05
1.90937e-05
1.85559e-05
1.85555e-05
1.84919e-05
1.80031e-05
1.90945e-05
1.85558e-05
1.85565e-05
1.80022e-05
1.794e-05
1.75457e-05
1.83879e-05
1.83876e-05
1.79216e-05
1.7922e-05
1.79376e-05
1.75484e-05
1.83889e-05
1.83873e-05
1.79227e-05
1.79216e-05
1.83887e-05
1.79235e-05
1.79218e-05
1.79377e-05
1.75469e-05
1.83896e-05
1.7923e-05
1.79226e-05
1.75399e-05
1.75131e-05
1.72576e-05
1.77781e-05
1.77788e-05
1.73894e-05
1.73869e-05
1.75118e-05
1.72381e-05
1.77791e-05
1.77787e-05
1.73903e-05
1.73856e-05
1.7779e-05
1.73878e-05
1.73877e-05
1.75112e-05
1.72386e-05
1.77799e-05
1.73868e-05
1.73886e-05
1.7244e-05
1.72438e-05
1.71003e-05
1.72706e-05
1.72707e-05
1.69547e-05
1.69502e-05
1.72256e-05
1.70752e-05
1.72715e-05
1.72699e-05
1.69553e-05
1.69497e-05
1.72729e-05
1.69513e-05
1.69571e-05
1.72257e-05
1.70856e-05
1.72739e-05
1.69507e-05
1.69578e-05
1.71064e-05
1.70982e-05
1.71208e-05
1.68546e-05
1.68566e-05
1.66217e-05
1.66025e-05
1.70726e-05
1.70479e-05
1.68553e-05
1.68556e-05
1.66224e-05
1.66167e-05
1.68614e-05
1.66031e-05
1.6599e-05
1.70829e-05
1.70999e-05
1.68621e-05
1.66173e-05
1.65997e-05
1.70071e-05
1.71564e-05
1.71311e-05
1.65547e-05
1.65441e-05
1.63518e-05
1.63744e-05
1.70877e-05
1.72313e-05
1.65552e-05
1.65384e-05
1.63524e-05
1.63465e-05
1.65326e-05
1.63749e-05
1.63535e-05
1.71025e-05
1.70859e-05
1.65332e-05
1.63471e-05
1.63541e-05
1.71285e-05
1.71633e-05
1.74135e-05
1.63006e-05
1.63096e-05
1.62182e-05
1.61965e-05
1.72337e-05
1.73234e-05
1.63013e-05
1.62959e-05
1.62187e-05
1.61868e-05
1.63032e-05
1.61965e-05
1.61968e-05
1.71222e-05
1.72967e-05
1.63039e-05
1.61871e-05
1.61974e-05
1.73299e-05
1.74374e-05
1.74171e-05
1.61841e-05
1.61741e-05
1.60831e-05
1.61025e-05
1.73928e-05
1.75306e-05
1.61845e-05
1.61648e-05
1.60837e-05
1.61231e-05
1.61676e-05
1.61025e-05
1.60885e-05
1.73581e-05
1.76402e-05
1.61681e-05
1.61233e-05
1.60892e-05
1.74676e-05
1.7515e-05
1.84526e-05
1.60888e-05
1.61064e-05
1.62144e-05
1.61501e-05
1.7624e-05
1.80988e-05
1.60895e-05
1.6125e-05
1.62148e-05
1.61418e-05
1.60898e-05
1.61495e-05
1.61789e-05
1.77313e-05
1.80458e-05
1.60905e-05
1.61414e-05
1.61792e-05
1.83114e-05
1.85612e-05
1.85226e-05
1.62387e-05
1.6159e-05
1.62523e-05
1.62437e-05
1.81586e-05
1.85762e-05
1.62391e-05
1.61531e-05
1.62528e-05
1.62833e-05
1.62373e-05
1.62432e-05
1.63163e-05
1.81189e-05
1.87411e-05
1.62377e-05
1.62831e-05
1.6317e-05
1.88623e-05
1.85451e-05
1.90344e-05
1.62594e-05
1.63e-05
1.63963e-05
1.64087e-05
1.87187e-05
1.91105e-05
1.62599e-05
1.63281e-05
1.63963e-05
1.64051e-05
1.63269e-05
1.64078e-05
1.64563e-05
1.88663e-05
1.90565e-05
1.63276e-05
1.64045e-05
1.64567e-05
1.92735e-05
1.91668e-05
2.01579e-05
1.64409e-05
1.64703e-05
1.67627e-05
1.6773e-05
1.92277e-05
2.01975e-05
1.64412e-05
1.64804e-05
1.67628e-05
1.67665e-05
1.65138e-05
1.67723e-05
1.67211e-05
1.91962e-05
2.01791e-05
1.65143e-05
1.67662e-05
1.67215e-05
1.98975e-05
2.04328e-05
2.08875e-05
1.68753e-05
1.68643e-05
1.714e-05
1.71816e-05
2.04015e-05
2.10996e-05
1.68754e-05
1.68584e-05
1.71404e-05
1.71705e-05
1.67971e-05
1.71795e-05
1.70584e-05
2.03597e-05
2.1029e-05
1.67972e-05
1.71686e-05
1.70588e-05
2.06128e-05
2.09874e-05
2.1763e-05
1.72049e-05
1.72797e-05
1.75763e-05
1.75577e-05
2.12656e-05
2.16496e-05
1.72052e-05
1.72652e-05
1.75755e-05
1.75111e-05
1.71732e-05
1.75561e-05
1.75735e-05
2.11683e-05
2.15397e-05
1.71737e-05
1.75099e-05
1.75731e-05
2.17907e-05
2.20479e-05
2.26645e-05
1.77371e-05
1.76698e-05
1.80801e-05
1.80956e-05
2.1806e-05
2.27122e-05
1.77365e-05
1.76485e-05
1.808e-05
1.81562e-05
1.76981e-05
1.80935e-05
1.81233e-05
2.17389e-05
2.29094e-05
1.76975e-05
1.81542e-05
1.81237e-05
2.28065e-05
2.28172e-05
2.39208e-05
1.82186e-05
1.82677e-05
1.87532e-05
1.87228e-05
2.2975e-05
2.37811e-05
1.82185e-05
1.82922e-05
1.87523e-05
1.8705e-05
1.82782e-05
1.87205e-05
1.87487e-05
2.31169e-05
2.36895e-05
1.82785e-05
1.87031e-05
1.87479e-05
2.38883e-05
2.41653e-05
2.49173e-05
1.89221e-05
1.88717e-05
1.94283e-05
1.94062e-05
2.3956e-05
2.48745e-05
1.89212e-05
1.88763e-05
1.94276e-05
1.94242e-05
1.89125e-05
1.94035e-05
1.9433e-05
2.39308e-05
2.4932e-05
1.89117e-05
1.94221e-05
1.94326e-05
2.49188e-05
2.51398e-05
2.59188e-05
1.96101e-05
1.96048e-05
2.01517e-05
2.01837e-05
2.51443e-05
2.60247e-05
1.96094e-05
1.96188e-05
2.01504e-05
2.01716e-05
1.95994e-05
2.01804e-05
2.01478e-05
2.51783e-05
2.59748e-05
1.9599e-05
2.01691e-05
2.01468e-05
2.59079e-05
2.61294e-05
2.70285e-05
2.03374e-05
2.03713e-05
2.09514e-05
2.09523e-05
2.62324e-05
2.70002e-05
2.03359e-05
2.03545e-05
2.09496e-05
2.09485e-05
2.03471e-05
2.09495e-05
2.09637e-05
2.61727e-05
2.70049e-05
2.03459e-05
2.09463e-05
2.09622e-05
2.70517e-05
2.72814e-05
2.81484e-05
2.11665e-05
2.11568e-05
2.18225e-05
2.18116e-05
2.72315e-05
2.81208e-05
2.11648e-05
2.11614e-05
2.18208e-05
2.18186e-05
2.11739e-05
2.18084e-05
2.18192e-05
2.72519e-05
2.81375e-05
2.11724e-05
2.1816e-05
2.18179e-05
2.81325e-05
2.83795e-05
2.91857e-05
2.20411e-05
2.20346e-05
2.27119e-05
2.27136e-05
2.83633e-05
2.91957e-05
2.20394e-05
2.20385e-05
2.27096e-05
2.27141e-05
2.20398e-05
2.27103e-05
2.27124e-05
2.83703e-05
2.91961e-05
2.20384e-05
2.27114e-05
2.27106e-05
2.91902e-05
2.94181e-05
3.02514e-05
2.29392e-05
2.29439e-05
2.36463e-05
2.36472e-05
2.94298e-05
3.02484e-05
2.29372e-05
2.29448e-05
2.36436e-05
2.3648e-05
2.29413e-05
2.3644e-05
2.36461e-05
2.94317e-05
3.02506e-05
2.29394e-05
2.36453e-05
2.36439e-05
3.025e-05
3.04875e-05
3.12851e-05
2.38873e-05
2.38855e-05
2.46127e-05
2.46134e-05
3.04796e-05
3.12885e-05
2.38849e-05
2.38864e-05
2.461e-05
2.46159e-05
2.38868e-05
2.46102e-05
2.46157e-05
3.04816e-05
3.12928e-05
2.38847e-05
2.46132e-05
2.46134e-05
3.12922e-05
3.15118e-05
3.23118e-05
2.48576e-05
2.48601e-05
2.56061e-05
2.5605e-05
3.15187e-05
3.23052e-05
2.48551e-05
2.48615e-05
2.56032e-05
2.56082e-05
2.48611e-05
2.56019e-05
2.56077e-05
3.15213e-05
3.23118e-05
2.48587e-05
2.56056e-05
2.56052e-05
3.23112e-05
3.25396e-05
3.33077e-05
2.58589e-05
2.58566e-05
2.6619e-05
2.66209e-05
3.25312e-05
3.33133e-05
2.58562e-05
2.586e-05
2.6616e-05
2.6619e-05
2.58596e-05
2.66179e-05
2.6622e-05
3.25374e-05
3.3308e-05
2.58571e-05
2.66165e-05
2.66192e-05
3.33141e-05
3.35279e-05
3.42852e-05
2.68738e-05
2.68755e-05
2.76439e-05
2.7642e-05
3.35328e-05
3.4278e-05
2.68709e-05
2.68755e-05
2.7641e-05
2.76469e-05
2.68776e-05
2.76392e-05
2.76457e-05
3.35313e-05
3.42882e-05
2.68749e-05
2.76447e-05
2.76429e-05
3.42839e-05
3.45022e-05
3.52374e-05
2.79019e-05
2.79001e-05
2.86769e-05
2.86765e-05
3.44963e-05
3.52364e-05
2.78993e-05
2.79034e-05
2.8674e-05
2.86768e-05
2.79032e-05
2.86737e-05
2.86795e-05
3.45016e-05
3.52359e-05
2.79006e-05
2.86748e-05
2.86765e-05
3.52415e-05
3.54491e-05
3.61645e-05
2.89357e-05
2.89355e-05
2.97123e-05
2.97125e-05
3.54483e-05
3.61638e-05
2.89329e-05
2.89362e-05
2.97094e-05
2.97146e-05
2.8939e-05
2.97099e-05
2.97144e-05
3.54492e-05
3.61679e-05
2.89362e-05
2.97128e-05
2.97116e-05
3.61639e-05
3.63702e-05
3.70686e-05
2.99704e-05
2.99705e-05
3.0745e-05
3.07448e-05
3.63694e-05
3.70675e-05
2.99679e-05
2.99728e-05
3.07424e-05
3.07464e-05
2.99723e-05
3.07423e-05
3.07489e-05
3.63731e-05
3.70691e-05
2.99695e-05
3.07449e-05
3.07462e-05
3.70753e-05
3.72698e-05
3.79412e-05
3.10032e-05
3.10034e-05
3.17702e-05
3.17706e-05
3.72702e-05
3.79375e-05
3.10009e-05
3.10047e-05
3.17677e-05
3.17719e-05
3.10078e-05
3.17683e-05
3.17728e-05
3.72712e-05
3.79402e-05
3.1005e-05
3.17707e-05
3.177e-05
3.79386e-05
3.8138e-05
3.87981e-05
3.20255e-05
3.20239e-05
3.27875e-05
3.27864e-05
3.81306e-05
3.87992e-05
3.20233e-05
3.20257e-05
3.27852e-05
3.2789e-05
3.20266e-05
3.27841e-05
3.27914e-05
3.81341e-05
3.88031e-05
3.20239e-05
3.27879e-05
3.27888e-05
3.88052e-05
3.89852e-05
3.96266e-05
3.30384e-05
3.30397e-05
3.37876e-05
3.37896e-05
3.89911e-05
3.96256e-05
3.30364e-05
3.30419e-05
3.37853e-05
3.37899e-05
3.30434e-05
3.37877e-05
3.37911e-05
3.89936e-05
3.96251e-05
3.30409e-05
3.37892e-05
3.37885e-05
3.96261e-05
3.98119e-05
4.0424e-05
3.40355e-05
3.40363e-05
3.47695e-05
3.47673e-05
3.98084e-05
4.04189e-05
3.40335e-05
3.40366e-05
3.47673e-05
3.47693e-05
3.40383e-05
3.47654e-05
3.47721e-05
3.98086e-05
4.04232e-05
3.40358e-05
3.47687e-05
3.47696e-05
4.04254e-05
4.06025e-05
4.12093e-05
3.50116e-05
3.50098e-05
3.57322e-05
3.57324e-05
4.05984e-05
4.12091e-05
3.50097e-05
3.5012e-05
3.57302e-05
3.57336e-05
3.50148e-05
3.57307e-05
3.57366e-05
4.06021e-05
4.12101e-05
3.50125e-05
3.57333e-05
3.57343e-05
4.12134e-05
4.13815e-05
4.19565e-05
3.59697e-05
3.59704e-05
3.66711e-05
3.66714e-05
4.13823e-05
4.19541e-05
3.59679e-05
3.59712e-05
3.66691e-05
3.66723e-05
3.59739e-05
3.66698e-05
3.66737e-05
4.13828e-05
4.19566e-05
3.59717e-05
3.66722e-05
3.66716e-05
4.1956e-05
4.2124e-05
4.26855e-05
3.69015e-05
3.69006e-05
3.75835e-05
3.75836e-05
4.21193e-05
4.26875e-05
3.68997e-05
3.6902e-05
3.75816e-05
3.75848e-05
3.69039e-05
3.75821e-05
3.75872e-05
4.21224e-05
4.26885e-05
3.69018e-05
3.75849e-05
3.75853e-05
4.26902e-05
4.28466e-05
4.33951e-05
3.78081e-05
3.78095e-05
3.84743e-05
3.84746e-05
4.28516e-05
4.339e-05
3.78065e-05
3.78102e-05
3.84724e-05
3.84752e-05
3.78122e-05
3.84733e-05
3.84772e-05
4.28515e-05
4.33926e-05
3.78103e-05
3.84756e-05
3.84754e-05
4.33946e-05
4.35531e-05
4.40705e-05
3.86929e-05
3.86919e-05
3.93353e-05
3.93329e-05
4.35454e-05
4.4068e-05
3.86913e-05
3.86928e-05
3.93336e-05
3.93339e-05
3.86954e-05
3.93316e-05
3.93384e-05
4.35483e-05
4.40689e-05
3.86936e-05
3.93343e-05
3.93368e-05
4.4075e-05
4.42183e-05
4.47164e-05
3.95449e-05
3.95438e-05
4.0162e-05
4.0166e-05
4.42183e-05
4.47228e-05
3.95435e-05
3.95445e-05
4.01603e-05
4.0166e-05
3.95491e-05
4.0165e-05
4.0167e-05
4.42189e-05
4.47239e-05
3.95476e-05
4.01669e-05
4.01655e-05
4.47197e-05
4.48632e-05
4.53617e-05
4.03656e-05
4.03693e-05
4.09717e-05
4.09692e-05
4.48682e-05
4.53526e-05
4.03641e-05
4.03695e-05
4.09701e-05
4.09702e-05
4.03693e-05
4.09682e-05
4.09718e-05
4.48693e-05
4.53551e-05
4.03678e-05
4.0971e-05
4.09704e-05
4.53589e-05
4.55031e-05
4.59668e-05
4.11701e-05
4.11664e-05
4.17487e-05
4.17482e-05
4.54938e-05
4.59679e-05
4.11687e-05
4.11675e-05
4.17473e-05
4.17483e-05
4.11707e-05
4.17473e-05
4.17534e-05
4.54961e-05
4.59681e-05
4.11694e-05
4.17493e-05
4.17521e-05
4.59734e-05
4.60998e-05
4.6541e-05
4.1937e-05
4.1938e-05
4.24909e-05
4.24925e-05
4.61023e-05
4.65417e-05
4.19357e-05
4.19379e-05
4.24894e-05
4.24925e-05
4.19425e-05
4.24919e-05
4.24942e-05
4.61021e-05
4.65434e-05
4.19412e-05
4.24938e-05
4.2493e-05
4.65421e-05
4.66705e-05
4.7107e-05
4.26718e-05
4.26728e-05
4.32072e-05
4.32074e-05
4.66708e-05
4.71055e-05
4.26705e-05
4.26732e-05
4.32059e-05
4.32074e-05
4.26743e-05
4.32067e-05
4.32092e-05
4.66726e-05
4.71057e-05
4.26731e-05
4.32086e-05
4.32082e-05
4.71082e-05
4.72332e-05
4.76479e-05
4.33837e-05
4.33838e-05
4.39003e-05
4.38994e-05
4.72313e-05
4.76456e-05
4.33827e-05
4.33835e-05
4.3899e-05
4.38996e-05
4.33864e-05
4.3899e-05
4.3904e-05
4.72312e-05
4.76478e-05
4.33854e-05
4.3901e-05
4.3903e-05
4.76519e-05
4.77671e-05
4.81576e-05
4.40669e-05
4.40664e-05
4.45569e-05
4.45588e-05
4.77657e-05
4.81604e-05
4.40658e-05
4.40671e-05
4.45558e-05
4.4559e-05
4.40709e-05
4.45585e-05
4.45597e-05
4.77683e-05
4.81606e-05
4.40699e-05
4.45606e-05
4.45589e-05
4.81584e-05
4.82726e-05
4.86588e-05
4.4718e-05
4.472e-05
4.51902e-05
4.51895e-05
4.82753e-05
4.86544e-05
4.47171e-05
4.47195e-05
4.5189e-05
4.51883e-05
4.47202e-05
4.51893e-05
4.5192e-05
4.82742e-05
4.86544e-05
4.47194e-05
4.51899e-05
4.51911e-05
4.86596e-05
4.87713e-05
4.91267e-05
4.5344e-05
4.53424e-05
4.57962e-05
4.57953e-05
4.87659e-05
4.91261e-05
4.53429e-05
4.53419e-05
4.57953e-05
4.57963e-05
4.53463e-05
4.57952e-05
4.58001e-05
4.8767e-05
4.91292e-05
4.53454e-05
4.57982e-05
4.57993e-05
4.91313e-05
4.92284e-05
4.95714e-05
4.59415e-05
4.59422e-05
4.63628e-05
4.6367e-05
4.92305e-05
4.95772e-05
4.59409e-05
4.59431e-05
4.63617e-05
4.63649e-05
4.59461e-05
4.63672e-05
4.63662e-05
4.92323e-05
4.95734e-05
4.59454e-05
4.63668e-05
4.63656e-05
4.95734e-05
4.96793e-05
5.00301e-05
4.65039e-05
4.65072e-05
4.69301e-05
4.69267e-05
4.96828e-05
5.00203e-05
4.65027e-05
4.65047e-05
4.6929e-05
4.69279e-05
4.65065e-05
4.69267e-05
4.69316e-05
4.96796e-05
5.00268e-05
4.65058e-05
4.69297e-05
4.69308e-05
5.00299e-05
5.01222e-05
5.03737e-05
4.70643e-05
4.70596e-05
4.74242e-05
4.74242e-05
5.0112e-05
5.03761e-05
4.70638e-05
4.70624e-05
4.74238e-05
4.74235e-05
4.70659e-05
4.74244e-05
4.74264e-05
5.01193e-05
5.03717e-05
4.70653e-05
4.74257e-05
4.74262e-05
5.03749e-05
5.046e-05
5.07979e-05
4.75398e-05
4.75423e-05
4.7916e-05
4.79202e-05
5.04653e-05
5.08035e-05
4.75392e-05
4.7539e-05
4.79146e-05
4.79169e-05
4.75425e-05
4.79206e-05
4.79203e-05
5.0458e-05
5.08035e-05
4.75421e-05
4.79188e-05
4.79194e-05
5.0804e-05
5.09004e-05
5.12052e-05
4.80483e-05
4.80515e-05
4.84226e-05
4.84232e-05
5.09051e-05
5.12034e-05
4.80473e-05
4.80509e-05
4.84224e-05
4.84265e-05
4.80532e-05
4.84239e-05
4.84266e-05
5.09081e-05
5.1208e-05
4.80524e-05
4.8429e-05
4.84266e-05
5.12065e-05
5.12847e-05
5.15069e-05
4.85348e-05
4.85343e-05
4.88447e-05
4.88401e-05
5.12808e-05
5.14971e-05
4.85347e-05
4.85361e-05
4.88436e-05
4.88366e-05
4.85374e-05
4.88403e-05
4.88433e-05
5.12827e-05
5.14927e-05
4.85374e-05
4.88385e-05
4.88427e-05
5.15033e-05
5.15812e-05
5.18308e-05
4.89438e-05
4.89393e-05
4.92449e-05
4.9248e-05
5.15728e-05
5.18397e-05
4.89429e-05
4.89359e-05
4.92445e-05
4.92483e-05
4.89433e-05
4.92488e-05
4.92505e-05
5.1569e-05
5.18422e-05
4.89426e-05
4.92506e-05
4.92502e-05
5.18388e-05
5.19115e-05
5.21568e-05
4.93483e-05
4.93539e-05
4.96516e-05
4.96557e-05
5.19226e-05
5.21591e-05
4.9348e-05
4.93547e-05
4.96508e-05
4.96547e-05
4.93548e-05
4.96565e-05
4.9654e-05
5.19254e-05
5.21583e-05
4.93546e-05
4.96575e-05
4.96537e-05
5.21561e-05
5.22276e-05
5.24342e-05
4.97457e-05
4.97471e-05
5.00109e-05
5.0008e-05
5.22266e-05
5.24278e-05
4.97453e-05
4.97457e-05
5.00109e-05
5.00067e-05
4.97469e-05
5.0009e-05
5.00141e-05
5.22247e-05
5.24274e-05
4.97467e-05
5.0009e-05
5.00138e-05
5.24382e-05
5.25042e-05
5.27243e-05
5.00986e-05
5.00961e-05
5.03617e-05
5.03607e-05
5.24984e-05
5.2723e-05
5.00986e-05
5.00952e-05
5.03604e-05
5.03615e-05
5.01029e-05
5.03614e-05
5.03638e-05
5.24994e-05
5.27258e-05
5.01026e-05
5.03641e-05
5.03637e-05
5.27232e-05
5.27874e-05
5.29313e-05
5.04454e-05
5.0445e-05
5.06684e-05
5.06721e-05
5.27876e-05
5.2938e-05
5.04445e-05
5.04457e-05
5.06684e-05
5.06681e-05
5.04459e-05
5.06727e-05
5.06682e-05
5.27886e-05
5.29319e-05
5.04459e-05
5.06703e-05
5.06679e-05
5.29309e-05
5.2981e-05
5.31736e-05
5.07338e-05
5.07388e-05
5.09402e-05
5.09411e-05
5.29881e-05
5.3171e-05
5.07343e-05
5.07339e-05
5.09402e-05
5.09419e-05
5.07358e-05
5.09433e-05
5.09477e-05
5.29823e-05
5.31756e-05
5.07356e-05
5.09451e-05
5.09477e-05
5.31818e-05
5.32517e-05
5.34886e-05
5.10235e-05
5.10217e-05
5.12852e-05
5.12829e-05
5.32465e-05
5.34869e-05
5.10234e-05
5.10244e-05
5.12841e-05
5.12824e-05
5.10299e-05
5.12834e-05
5.12854e-05
5.32523e-05
5.34852e-05
5.10298e-05
5.12842e-05
5.1285e-05
5.34868e-05
5.3537e-05
5.35892e-05
5.13568e-05
5.13565e-05
5.15013e-05
5.15047e-05
5.35377e-05
5.35926e-05
5.13559e-05
5.13543e-05
5.15015e-05
5.15026e-05
5.13571e-05
5.1506e-05
5.15059e-05
5.35347e-05
5.35939e-05
5.13568e-05
5.15067e-05
5.15065e-05
5.35953e-05
5.36157e-05
5.37263e-05
5.15373e-05
5.15399e-05
5.16684e-05
5.16653e-05
5.36173e-05
5.37183e-05
5.15382e-05
5.15399e-05
5.16699e-05
5.16686e-05
5.1543e-05
5.16674e-05
5.16685e-05
5.36206e-05
5.37213e-05
5.15438e-05
5.16702e-05
5.16686e-05
5.37181e-05
5.37874e-05
5.39625e-05
5.17278e-05
5.17245e-05
5.19233e-05
5.19268e-05
5.37799e-05
5.39744e-05
5.17287e-05
5.17253e-05
5.19208e-05
5.19181e-05
5.17248e-05
5.19267e-05
5.19229e-05
5.37792e-05
5.39621e-05
5.17245e-05
5.19202e-05
5.19217e-05
5.39704e-05
5.40058e-05
5.41006e-05
5.19806e-05
5.19872e-05
5.21085e-05
5.21113e-05
5.4019e-05
5.40983e-05
5.19778e-05
5.19778e-05
5.2109e-05
5.21156e-05
5.19859e-05
5.21145e-05
5.21221e-05
5.40101e-05
5.41121e-05
5.19849e-05
5.21209e-05
5.21229e-05
5.41134e-05
5.41475e-05
5.4252e-05
5.21519e-05
5.21489e-05
5.22892e-05
5.22837e-05
5.41382e-05
5.42472e-05
5.21545e-05
5.21588e-05
5.22918e-05
5.22855e-05
5.21597e-05
5.2285e-05
5.22818e-05
5.41549e-05
5.42379e-05
5.21614e-05
5.22859e-05
5.22829e-05
5.42374e-05
5.42715e-05
5.42396e-05
5.23264e-05
5.2325e-05
5.23679e-05
5.23743e-05
5.42722e-05
5.4249e-05
5.23269e-05
5.23189e-05
5.23643e-05
5.23624e-05
5.23201e-05
5.23745e-05
5.23771e-05
5.42565e-05
5.42515e-05
5.23198e-05
5.23691e-05
5.23754e-05
5.42657e-05
5.42739e-05
5.45665e-05
5.23851e-05
5.23891e-05
5.25648e-05
5.25601e-05
5.42792e-05
5.45577e-05
5.23822e-05
5.23883e-05
5.25687e-05
5.25739e-05
5.2398e-05
5.25622e-05
5.25544e-05
5.42912e-05
5.4562e-05
5.23979e-05
5.25701e-05
5.25578e-05
5.45357e-05
5.46384e-05
5.45347e-05
5.26472e-05
5.26424e-05
5.27049e-05
5.27028e-05
5.46297e-05
5.45286e-05
5.265e-05
5.26441e-05
5.27031e-05
5.26856e-05
5.26265e-05
5.27029e-05
5.2702e-05
5.46153e-05
5.44997e-05
5.26277e-05
5.26876e-05
5.26985e-05
5.45507e-05
5.45116e-05
5.42988e-05
5.26844e-05
5.26843e-05
5.25913e-05
5.26062e-05
5.45091e-05
5.43356e-05
5.26813e-05
5.26672e-05
5.25929e-05
5.26175e-05
5.26931e-05
5.26119e-05
5.26206e-05
5.44895e-05
5.43793e-05
5.26895e-05
5.26283e-05
5.26233e-05
5.43539e-05
5.43353e-05
5.4804e-05
5.25945e-05
5.26101e-05
5.28006e-05
5.28e-05
5.43775e-05
5.47812e-05
5.25968e-05
5.26234e-05
5.28057e-05
5.28015e-05
5.26213e-05
5.28005e-05
5.27779e-05
5.4425e-05
5.47469e-05
5.26245e-05
5.27969e-05
5.27843e-05
5.47512e-05
5.49078e-05
5.48368e-05
5.29126e-05
5.28943e-05
5.29881e-05
5.29572e-05
5.48617e-05
5.47717e-05
5.29117e-05
5.28724e-05
5.29807e-05
5.29299e-05
5.28815e-05
5.29528e-05
5.29605e-05
5.48052e-05
5.47493e-05
5.2883e-05
5.29299e-05
5.2955e-05
5.47933e-05
5.48134e-05
5.45401e-05
5.2969e-05
5.29424e-05
5.28209e-05
5.28468e-05
5.47584e-05
5.46086e-05
5.29623e-05
5.29241e-05
5.28263e-05
5.28829e-05
5.29459e-05
5.2851e-05
5.28491e-05
5.47501e-05
5.46839e-05
5.29397e-05
5.28847e-05
5.28503e-05
5.46023e-05
5.45474e-05
5.45376e-05
5.27973e-05
5.28347e-05
5.27898e-05
5.28298e-05
5.46213e-05
5.46078e-05
5.28049e-05
5.28751e-05
5.27971e-05
5.28241e-05
5.28424e-05
5.2839e-05
5.28435e-05
5.46982e-05
5.45457e-05
5.28463e-05
5.28372e-05
5.28495e-05
5.46242e-05
5.45748e-05
5.50758e-05
5.28015e-05
5.28366e-05
5.30505e-05
5.29975e-05
5.46315e-05
5.49326e-05
5.28073e-05
5.28209e-05
5.30347e-05
5.2907e-05
5.28504e-05
5.29909e-05
5.29682e-05
5.45511e-05
5.48391e-05
5.28565e-05
5.29064e-05
5.29608e-05
5.4879e-05
5.51516e-05
5.46528e-05
5.3108e-05
5.30386e-05
5.3034e-05
5.29807e-05
5.49864e-05
5.46004e-05
5.30957e-05
5.30167e-05
5.3038e-05
5.30564e-05
5.30172e-05
5.29661e-05
5.29941e-05
5.49805e-05
5.48745e-05
5.30117e-05
5.3043e-05
5.2994e-05
5.47165e-05
5.45213e-05
5.42518e-05
5.28736e-05
5.28754e-05
5.26595e-05
5.27571e-05
5.45384e-05
5.45057e-05
5.28949e-05
5.29956e-05
5.26641e-05
5.2668e-05
5.2911e-05
5.27749e-05
5.2721e-05
5.47835e-05
5.42288e-05
5.29161e-05
5.26818e-05
5.27164e-05
5.43369e-05
5.43934e-05
5.48295e-05
5.26786e-05
5.27712e-05
5.28863e-05
5.28643e-05
5.46159e-05
5.47308e-05
5.26782e-05
5.26668e-05
5.28656e-05
5.28413e-05
5.27294e-05
5.28579e-05
5.288e-05
5.4266e-05
5.48499e-05
5.27244e-05
5.28603e-05
5.28912e-05
5.48363e-05
5.48339e-05
5.48275e-05
5.29179e-05
5.28837e-05
5.29816e-05
5.29364e-05
5.47285e-05
5.47549e-05
5.29053e-05
5.29418e-05
5.29871e-05
5.30654e-05
5.29331e-05
5.29294e-05
5.30049e-05
5.49495e-05
5.50157e-05
5.29533e-05
5.30774e-05
5.30264e-05
5.49051e-05
5.49785e-05
5.5958e-05
5.30828e-05
5.29993e-05
5.33608e-05
5.32264e-05
5.4869e-05
5.56162e-05
5.31024e-05
5.31075e-05
5.33704e-05
5.31329e-05
5.30703e-05
5.32322e-05
5.31765e-05
5.5037e-05
5.52451e-05
5.30855e-05
5.30823e-05
5.31407e-05
5.54478e-05
5.59239e-05
5.20169e-05
5.33125e-05
5.31966e-05
5.18605e-05
5.22055e-05
5.56126e-05
5.27947e-05
5.33212e-05
5.30852e-05
5.18742e-05
5.21261e-05
5.31317e-05
5.22287e-05
5.20181e-05
5.52341e-05
5.28039e-05
5.30882e-05
5.21058e-05
5.19549e-05
5.24638e-05
5.13074e-05
5.09276e-05
5.10025e-05
5.13939e-05
5.05722e-05
5.08249e-05
5.21495e-05
5.1326e-05
5.10072e-05
5.13594e-05
5.05498e-05
5.07973e-05
5.12617e-05
5.08298e-05
5.07878e-05
5.22071e-05
5.12795e-05
5.12494e-05
5.08965e-05
5.08452e-05
5.12854e-05
5.20216e-05
6.10729e-05
5.09672e-05
5.10943e-05
5.54406e-05
5.46067e-05
5.20666e-05
5.91918e-05
5.09308e-05
5.1055e-05
5.54406e-05
5.50054e-05
5.10779e-05
5.45247e-05
5.50778e-05
5.18686e-05
6.04258e-05
5.11422e-05
5.49642e-05
5.51349e-05
6.06625e-05
6.11062e-05
5.52273e-05
5.43298e-05
5.92573e-05
5.52658e-05
5.49035e-05
4.29089e-05
4.31536e-05
4.32001e-05
5.49488e-05
6.05545e-05
5.49931e-05
3.73773e-05
3.73765e-05
3.7377e-05
3.7377e-05
3.73701e-05
3.73777e-05
3.73043e-05
3.73768e-05
3.73702e-05
3.73777e-05
3.73768e-05
3.73043e-05
3.73741e-05
3.72959e-05
3.72959e-05
3.58797e-05
4.08723e-05
3.66034e-05
4.51463e-05
5.51147e-05
6.4895e-05
3.58803e-05
4.08713e-05
3.66034e-05
4.51463e-05
3.58932e-05
3.58933e-05
3.58932e-05
3.44005e-05
3.44005e-05
3.44005e-05
3.44005e-05
3.52757e-05
3.56384e-05
3.58929e-05
3.53771e-05
3.60476e-05
3.42364e-05
3.53822e-05
5.51168e-05
6.48993e-05
3.52758e-05
3.58929e-05
3.5638e-05
3.53771e-05
3.60475e-05
3.53822e-05
3.42374e-05
3.65972e-05
3.65977e-05
3.5279e-05
3.40641e-05
3.40633e-05
3.39657e-05
5.13542e-05
3.46793e-05
5.46243e-05
7.65449e-05
8.08612e-05
3.39682e-05
5.13549e-05
3.46789e-05
5.46247e-05
3.39296e-05
3.39297e-05
3.39297e-05