/*--------------------------------*- C++ -*----------------------------------*\
| =========                 |                                                 |
| \\      /  F ield         | OpenFOAM: The Open Source CFD Toolbox           |
|  \\    /   O peration     | Version:  v1906                                 |
|   \\  /    A nd           | Web:      www.OpenFOAM.com                      |
|    \\/     M anipulation  |                                                 |
\*---------------------------------------------------------------------------*/
FoamFile
{
    version     2.0;
    format      ascii;
    class       volScalarField;
    location    "875";
    object      p;
}
// * * * * * * * * * * * * * * * * * * * * * * * * * * * * * * * * * * * * * //

dimensions      [0 2 -2 0 0 0 0];


internalField   nonuniform List<scalar> 
171728
(
0.00360369
0.00360402
0.00360402
0.00360707
0.00354834
0.00354876
0.00354876
0.00355175
0.00349759
0.00349756
0.00349756
0.00350032
0.00344521
0.00344523
0.00344523
0.003448
0.00339386
0.00339388
0.00339387
0.00339663
0.00334389
0.0033439
0.00334389
0.00334662
0.00329538
0.00329537
0.00329538
0.00329808
0.00324815
0.00324817
0.00324818
0.00325082
0.00320203
0.00320205
0.00320205
0.00320465
0.0031568
0.00315681
0.00315683
0.00315943
0.0031123
0.0031123
0.00311231
0.00311485
0.0030684
0.00306847
0.00306846
0.00307092
0.00302502
0.00302503
0.00302498
0.00302757
0.00298207
0.00298205
0.00298206
0.00298459
0.00293964
0.00293964
0.00293964
0.00294213
0.0028976
0.00289769
0.00289769
0.00290024
0.0028559
0.00285591
0.00285594
0.00285827
0.00281444
0.00281463
0.00281432
0.002817
0.00277337
0.00277322
0.00277331
0.00277584
0.00273243
0.00273245
0.00273255
0.00273475
0.00269241
0.0026923
0.00269217
0.00269485
0.00265183
0.00265192
0.00265203
0.00265447
0.00261187
0.00261182
0.00261174
0.00261425
0.00257252
0.00257242
0.00257245
0.00257467
0.00253292
0.00253296
0.00253295
0.00253518
0.00249368
0.00249351
0.00249348
0.00249617
0.00245466
0.0024547
0.00245483
0.00245703
0.00241601
0.00241591
0.00241583
0.00241827
0.00237735
0.00237734
0.00237737
0.00237964
0.00233892
0.00233891
0.00233889
0.00234116
0.0023007
0.00230063
0.00230065
0.00230297
0.00226265
0.00226262
0.00226262
0.00226489
0.00222474
0.00222472
0.00222472
0.00222698
0.00218701
0.00218699
0.00218699
0.00218923
0.00214944
0.00214943
0.00214943
0.00215165
0.00211202
0.00211201
0.00211201
0.00211421
0.00207475
0.00207474
0.00207473
0.00207692
0.00203762
0.0020376
0.00203761
0.00203977
0.00200063
0.00200061
0.00200061
0.00200277
0.00196376
0.00196374
0.00196374
0.00196588
0.00192703
0.00192699
0.00192699
0.00192913
0.0018904
0.00189036
0.00189036
0.00189247
0.00185389
0.00185385
0.00185385
0.00185597
0.00181749
0.00181743
0.00181743
0.00181953
0.00178118
0.00178111
0.00178112
0.00178321
0.00174498
0.00174491
0.00174491
0.001747
0.00170885
0.00170877
0.00170877
0.00171085
0.00167281
0.00167273
0.00167273
0.0016748
0.00163685
0.00163675
0.00163676
0.00163882
0.00160095
0.00160085
0.00160085
0.00160292
0.00156512
0.00156502
0.00156502
0.00156707
0.00152936
0.00152925
0.00152925
0.0015313
0.00149365
0.00149354
0.00149354
0.00149558
0.00145799
0.00145787
0.00145787
0.0014599
0.00142238
0.00142226
0.00142226
0.00142429
0.00138682
0.00138669
0.00138669
0.00138872
0.00135128
0.00135116
0.00135116
0.00135318
0.00131579
0.00131566
0.00131566
0.00131768
0.00128033
0.0012802
0.0012802
0.00128222
0.00124487
0.00124475
0.00124475
0.00124676
0.00120948
0.00120936
0.00120937
0.00121138
0.00117402
0.0011739
0.0011739
0.0011759
0.00113868
0.00113858
0.00113858
0.00114059
0.00110334
0.00110323
0.00110323
0.00110524
0.00106792
0.0010678
0.0010678
0.0010698
0.00103256
0.00103247
0.00103247
0.00103447
0.000997214
0.000997114
0.000997113
0.000999116
0.000961826
0.000961726
0.000961725
0.000963733
0.000926471
0.000926384
0.000926385
0.000928386
0.000891051
0.000890961
0.000890955
0.000892958
0.000855663
0.000855572
0.000855578
0.000857584
0.000820356
0.000820285
0.000820281
0.000822291
0.000784802
0.000784713
0.000784716
0.000786722
0.000749302
0.00074922
0.000749221
0.000751225
0.000713933
0.000713881
0.00071387
0.000715894
0.000678402
0.000678315
0.000678333
0.000680336
0.000642892
0.000642834
0.000642821
0.000644843
0.000607204
0.000607126
0.00060713
0.000609145
0.000571824
0.000571779
0.000571791
0.000573796
0.000536095
0.000536039
0.000536007
0.000538075
0.000500115
0.000500037
0.000500089
0.000502051
0.000464906
0.000464884
0.000464846
0.000466896
0.000429145
0.000429075
0.000429057
0.000431129
0.000393031
0.000392984
0.000393053
0.000394999
0.000357331
0.00035731
0.000357263
0.000359369
0.000321774
0.000321694
0.000321627
0.000323658
0.000285693
0.000285633
0.000285845
0.000287816
0.000249336
0.000249421
0.000249153
0.000251291
0.000214155
0.000214022
0.000214149
0.00021619
0.000178069
0.000177932
0.000178092
0.000179965
0.000142436
0.000142557
0.000142222
0.000144651
0.000103448
0.000103885
0.000104032
0.000105938
6.73671e-05
6.66383e-05
6.66913e-05
6.83295e-05
4.07257e-05
3.96944e-05
4.01234e-05
4.19299e-05
9.17291e-06
1.05589e-05
1.13808e-05
8.62512e-06
0.00361709
0.00361732
0.00361732
0.00361709
0.00361732
0.00361732
0.00361808
0.00361808
0.00361809
0.00361809
0.00361732
0.00361732
0.0036171
0.00361732
0.00361732
0.0036171
0.00360707
0.00355832
0.00360401
0.00360402
0.0035606
0.0035606
0.00360707
0.00355832
0.00360402
0.00360402
0.00356059
0.0035606
0.00360402
0.00356059
0.0035606
0.00360707
0.00355832
0.00360402
0.00356059
0.00356059
0.00355832
0.00355175
0.00350724
0.00354876
0.00354876
0.00351069
0.00351069
0.00355175
0.00350724
0.00354876
0.00354876
0.00351069
0.00351069
0.00354876
0.00351069
0.00351069
0.00355175
0.00350724
0.00354875
0.00351069
0.00351069
0.00350724
0.00350032
0.00345488
0.00349757
0.00349757
0.00345824
0.00345824
0.00350032
0.00345488
0.00349756
0.00349757
0.00345824
0.00345824
0.00349756
0.00345824
0.00345824
0.00350032
0.00345488
0.00349756
0.00345824
0.00345824
0.00345488
0.003448
0.00340333
0.00344523
0.00344523
0.0034066
0.0034066
0.003448
0.00340333
0.00344523
0.00344522
0.0034066
0.0034066
0.00344523
0.00340659
0.00340659
0.003448
0.00340333
0.00344523
0.0034066
0.00340659
0.00340333
0.00339663
0.00335312
0.00339387
0.00339387
0.00335626
0.00335627
0.00339662
0.00335312
0.00339387
0.00339387
0.00335626
0.00335627
0.00339388
0.00335626
0.00335626
0.00339662
0.00335312
0.00339388
0.00335627
0.00335626
0.00335312
0.00334663
0.00330438
0.0033439
0.0033439
0.00330738
0.0033074
0.00334662
0.00330437
0.0033439
0.0033439
0.00330738
0.0033074
0.0033439
0.00330741
0.00330739
0.00334662
0.00330437
0.0033439
0.0033074
0.00330739
0.00330437
0.00329808
0.00325695
0.0032954
0.00329538
0.00325987
0.00325986
0.00329806
0.00325696
0.00329541
0.00329539
0.00325986
0.00325985
0.00329539
0.00325987
0.00325989
0.00329806
0.00325695
0.00329538
0.00325986
0.00325988
0.00325696
0.00325082
0.00321066
0.00324816
0.00324817
0.00321348
0.0032135
0.00325082
0.00321067
0.00324818
0.00324819
0.00321347
0.00321349
0.00324816
0.0032135
0.00321351
0.00325083
0.00321067
0.00324816
0.00321351
0.00321351
0.00321064
0.00320469
0.00316529
0.00320206
0.00320205
0.0031681
0.00316806
0.00320467
0.00316528
0.00320206
0.00320206
0.00316809
0.00316804
0.00320201
0.00316806
0.00316807
0.00320467
0.00316529
0.00320201
0.00316805
0.00316807
0.00316531
0.00315941
0.00312064
0.00315681
0.00315682
0.00312339
0.0031234
0.00315942
0.00312067
0.00315682
0.00315683
0.00312339
0.0031234
0.00315684
0.00312341
0.00312344
0.00315943
0.00312068
0.00315684
0.0031234
0.00312344
0.00312066
0.00311488
0.00307668
0.00311229
0.0031123
0.00307928
0.00307932
0.00311488
0.0030767
0.0031123
0.00311232
0.00307928
0.00307932
0.00311229
0.00307931
0.00307935
0.00311489
0.00307669
0.0031123
0.00307934
0.00307935
0.00307659
0.00307102
0.00303321
0.00306846
0.00306847
0.00303584
0.00303588
0.00307098
0.00303318
0.00306845
0.00306847
0.00303584
0.00303585
0.00306834
0.00303587
0.00303576
0.00307097
0.00303311
0.00306834
0.00303585
0.00303576
0.00303317
0.00302756
0.00299012
0.00302508
0.00302502
0.00299281
0.0029928
0.00302753
0.00299015
0.00302507
0.00302498
0.00299281
0.00299278
0.00302506
0.00299281
0.00299279
0.0030275
0.00299015
0.00302506
0.00299278
0.00299279
0.00299015
0.00298456
0.00294762
0.00298207
0.00298204
0.00295024
0.00295016
0.00298457
0.00294764
0.00298207
0.00298206
0.00295024
0.00295016
0.00298211
0.00295015
0.00295022
0.00298458
0.00294764
0.00298211
0.00295016
0.00295023
0.00294765
0.00294211
0.00290551
0.00293963
0.00293965
0.00290812
0.00290808
0.00294215
0.00290565
0.00293962
0.00293964
0.00290812
0.00290809
0.00293965
0.00290809
0.00290817
0.00294215
0.00290567
0.00293965
0.0029081
0.00290817
0.00290571
0.00290005
0.00286375
0.00289754
0.00289767
0.0028663
0.00286624
0.00290019
0.00286378
0.00289755
0.00289768
0.0028663
0.00286626
0.00289773
0.00286624
0.00286625
0.00290023
0.00286387
0.00289773
0.00286626
0.00286625
0.00286369
0.00285835
0.00282233
0.00285583
0.00285592
0.00282484
0.00282495
0.00285839
0.00282265
0.00285584
0.00285595
0.00282482
0.0028247
0.00285585
0.00282495
0.00282484
0.00285849
0.00282216
0.00285585
0.00282469
0.00282482
0.00282237
0.0028169
0.00278128
0.00281442
0.00281463
0.0027836
0.00278343
0.00281723
0.00278096
0.0028144
0.00281432
0.0027836
0.00278354
0.00281453
0.00278343
0.00278363
0.00281677
0.00278114
0.00281451
0.00278354
0.00278363
0.0027812
0.00277592
0.00273995
0.00277338
0.00277322
0.00274244
0.00274262
0.00277565
0.00274019
0.00277339
0.00277331
0.00274245
0.00274265
0.00277334
0.00274263
0.00274256
0.00277582
0.00274032
0.00277335
0.00274265
0.00274257
0.00274007
0.00273465
0.00270033
0.00273232
0.00273245
0.00270244
0.00270231
0.00273487
0.00270006
0.00273233
0.00273255
0.00270244
0.00270223
0.00273234
0.00270229
0.00270226
0.00273503
0.00269988
0.00273235
0.00270222
0.00270225
0.00269998
0.00269515
0.00265942
0.00269254
0.00269231
0.00266192
0.00266192
0.00269481
0.00265956
0.00269254
0.00269217
0.00266192
0.00266199
0.00269233
0.00266194
0.00266216
0.00269461
0.00265971
0.00269232
0.00266201
0.00266217
0.00265986
0.00265406
0.00261938
0.0026517
0.00265189
0.00262168
0.0026218
0.00265433
0.00261945
0.00265171
0.00265201
0.00262168
0.00262173
0.00265196
0.00262181
0.00262175
0.0026545
0.00261928
0.00265197
0.00262174
0.00262174
0.00261944
0.00261416
0.0025801
0.00261178
0.00261181
0.00258219
0.00258221
0.00261423
0.00258004
0.00261177
0.00261173
0.00258219
0.00258226
0.00261185
0.0025822
0.00258214
0.00261407
0.00258005
0.00261185
0.00258225
0.00258214
0.00257984
0.00257503
0.00254048
0.00257249
0.00257244
0.00254281
0.0025428
0.00257491
0.00254061
0.00257249
0.00257247
0.0025428
0.00254282
0.00257225
0.00254278
0.00254263
0.00257492
0.00254059
0.00257224
0.0025428
0.00254263
0.0025403
0.00253523
0.00250102
0.00253281
0.00253297
0.00250333
0.00250331
0.00253545
0.00250097
0.00253281
0.00253296
0.00250332
0.00250323
0.00253279
0.00250332
0.00250348
0.0025354
0.00250089
0.00253279
0.00250325
0.00250347
0.00250129
0.00249597
0.00246212
0.00249359
0.0024935
0.0024644
0.00246436
0.00249582
0.00246214
0.00249358
0.00249347
0.00246441
0.0024645
0.0024937
0.00246436
0.00246438
0.00249578
0.00246238
0.00249369
0.0024645
0.00246439
0.00246212
0.00245696
0.00242346
0.00245458
0.0024547
0.00242558
0.00242561
0.00245709
0.00242341
0.00245459
0.00245482
0.00242557
0.00242551
0.00245464
0.00242562
0.00242561
0.00245728
0.00242321
0.00245465
0.00242551
0.0024256
0.00242336
0.00241842
0.00238471
0.00241601
0.00241591
0.00238693
0.00238691
0.00241829
0.00238472
0.002416
0.00241583
0.00238694
0.00238701
0.00241589
0.0023869
0.00238693
0.00241814
0.00238481
0.00241589
0.002387
0.00238694
0.00238471
0.00237964
0.00234625
0.00237729
0.00237734
0.00234847
0.00234852
0.00237969
0.00234632
0.0023773
0.00237737
0.00234847
0.0023485
0.0023773
0.00234852
0.00234845
0.00237975
0.00234628
0.0023773
0.0023485
0.00234845
0.0023462
0.0023412
0.00230797
0.00233887
0.00233891
0.00231016
0.00231016
0.00234126
0.00230793
0.00233887
0.00233889
0.00231016
0.00231015
0.00233886
0.00231016
0.00231022
0.00234122
0.00230795
0.00233885
0.00231016
0.00231022
0.00230801
0.00230297
0.00226991
0.00230066
0.00230063
0.00227212
0.0022721
0.00230292
0.00226991
0.00230066
0.00230065
0.00227212
0.00227212
0.00230066
0.0022721
0.00227211
0.00230294
0.00226993
0.00230066
0.00227212
0.00227211
0.0022699
0.0022649
0.00223196
0.00226261
0.00226262
0.00223417
0.00223418
0.00226491
0.00223197
0.00226261
0.00226262
0.00223417
0.00223417
0.00226261
0.00223418
0.00223418
0.00226491
0.00223197
0.00226261
0.00223417
0.00223418
0.00223197
0.00222696
0.00219421
0.00222471
0.00222472
0.00219641
0.00219641
0.00222698
0.00219421
0.00222471
0.00222472
0.00219641
0.00219641
0.00222472
0.00219641
0.00219641
0.00222698
0.00219421
0.00222472
0.00219641
0.00219641
0.00219421
0.00218924
0.0021566
0.00218699
0.00218699
0.0021588
0.0021588
0.00218923
0.00215661
0.00218699
0.00218699
0.0021588
0.0021588
0.00218699
0.0021588
0.00215881
0.00218923
0.00215661
0.00218699
0.0021588
0.00215881
0.00215661
0.00215164
0.00211916
0.00214942
0.00214943
0.00212135
0.00212135
0.00215165
0.00211916
0.00214942
0.00214943
0.00212135
0.00212135
0.00214943
0.00212135
0.00212135
0.00215165
0.00211915
0.00214942
0.00212135
0.00212135
0.00211916
0.00211421
0.00208186
0.00211201
0.00211201
0.00208404
0.00208405
0.00211421
0.00208187
0.00211201
0.00211201
0.00208404
0.00208404
0.00211201
0.00208405
0.00208404
0.00211421
0.00208185
0.00211201
0.00208404
0.00208404
0.00208186
0.00207692
0.0020447
0.00207474
0.00207474
0.00204687
0.00204687
0.00207693
0.00204469
0.00207473
0.00207473
0.00204687
0.00204688
0.00207474
0.00204687
0.00204687
0.00207692
0.0020447
0.00207474
0.00204688
0.00204687
0.00204469
0.00203978
0.00200767
0.00203761
0.0020376
0.00200984
0.00200985
0.00203977
0.00200768
0.00203761
0.00203761
0.00200984
0.00200984
0.0020376
0.00200985
0.00200985
0.00203978
0.00200767
0.0020376
0.00200984
0.00200985
0.00200768
0.00200276
0.00197078
0.00200061
0.00200061
0.00197294
0.00197294
0.00200277
0.00197078
0.00200061
0.00200061
0.00197294
0.00197295
0.00200061
0.00197294
0.00197294
0.00200276
0.00197078
0.00200061
0.00197295
0.00197294
0.00197078
0.00196588
0.00193401
0.00196374
0.00196374
0.00193617
0.00193616
0.00196588
0.00193401
0.00196374
0.00196374
0.00193617
0.00193616
0.00196374
0.00193617
0.00193617
0.00196588
0.00193401
0.00196374
0.00193616
0.00193617
0.00193402
0.00192912
0.00189736
0.00192699
0.00192699
0.00189951
0.00189951
0.00192912
0.00189736
0.00192699
0.00192699
0.00189951
0.00189951
0.001927
0.00189951
0.00189951
0.00192912
0.00189736
0.001927
0.00189951
0.00189951
0.00189735
0.00189248
0.00186083
0.00189036
0.00189036
0.00186297
0.00186296
0.00189248
0.00186083
0.00189036
0.00189036
0.00186297
0.00186296
0.00189035
0.00186296
0.00186297
0.00189248
0.00186083
0.00189035
0.00186296
0.00186297
0.00186084
0.00185596
0.00182439
0.00185385
0.00185385
0.00182652
0.00182653
0.00185596
0.00182439
0.00185385
0.00185385
0.00182652
0.00182653
0.00185385
0.00182653
0.00182652
0.00185597
0.00182439
0.00185385
0.00182653
0.00182652
0.00182439
0.00181954
0.00178806
0.00181743
0.00181743
0.00179019
0.00179018
0.00181953
0.00178806
0.00181743
0.00181743
0.00179019
0.00179019
0.00181743
0.00179018
0.00179019
0.00181953
0.00178806
0.00181743
0.00179019
0.00179019
0.00178806
0.00178321
0.00175184
0.00178112
0.00178111
0.00175395
0.00175395
0.00178321
0.00175184
0.00178112
0.00178112
0.00175395
0.00175395
0.00178112
0.00175395
0.00175395
0.00178321
0.00175184
0.00178112
0.00175395
0.00175395
0.00175184
0.001747
0.00171568
0.00174491
0.00174491
0.0017178
0.0017178
0.001747
0.00171568
0.00174491
0.00174491
0.0017178
0.0017178
0.00174491
0.0017178
0.00171779
0.001747
0.00171568
0.00174491
0.0017178
0.00171779
0.00171568
0.00171085
0.00167963
0.00170877
0.00170877
0.00168173
0.00168173
0.00171085
0.00167963
0.00170877
0.00170877
0.00168173
0.00168173
0.00170877
0.00168173
0.00168173
0.00171085
0.00167963
0.00170877
0.00168173
0.00168173
0.00167963
0.0016748
0.00164364
0.00167273
0.00167273
0.00164574
0.00164574
0.0016748
0.00164364
0.00167273
0.00167273
0.00164574
0.00164574
0.00167273
0.00164574
0.00164574
0.0016748
0.00164364
0.00167273
0.00164574
0.00164574
0.00164364
0.00163882
0.00160773
0.00163676
0.00163675
0.00160983
0.00160982
0.00163882
0.00160773
0.00163676
0.00163676
0.00160983
0.00160982
0.00163676
0.00160982
0.00160983
0.00163882
0.00160773
0.00163675
0.00160982
0.00160983
0.00160773
0.00160291
0.00157188
0.00160085
0.00160085
0.00157397
0.00157397
0.00160291
0.00157188
0.00160085
0.00160085
0.00157397
0.00157397
0.00160086
0.00157397
0.00157397
0.00160291
0.00157188
0.00160086
0.00157397
0.00157397
0.00157188
0.00156707
0.00153611
0.00156501
0.00156502
0.00153819
0.00153819
0.00156707
0.0015361
0.00156501
0.00156502
0.00153819
0.00153819
0.00156502
0.00153819
0.00153819
0.00156707
0.0015361
0.00156502
0.00153819
0.00153819
0.0015361
0.0015313
0.00150038
0.00152926
0.00152925
0.00150246
0.00150247
0.0015313
0.00150039
0.00152926
0.00152925
0.00150246
0.00150246
0.00152925
0.00150247
0.00150247
0.0015313
0.00150039
0.00152925
0.00150247
0.00150247
0.00150039
0.00149558
0.0014647
0.00149354
0.00149354
0.00146678
0.00146678
0.00149559
0.0014647
0.00149354
0.00149354
0.00146678
0.00146678
0.00149354
0.00146678
0.00146678
0.00149558
0.0014647
0.00149354
0.00146678
0.00146678
0.0014647
0.0014599
0.00142909
0.00145787
0.00145787
0.00143116
0.00143116
0.0014599
0.00142909
0.00145787
0.00145787
0.00143116
0.00143116
0.00145787
0.00143116
0.00143116
0.0014599
0.00142909
0.00145787
0.00143116
0.00143116
0.00142909
0.00142429
0.00139351
0.00142226
0.00142226
0.00139558
0.00139558
0.00142429
0.00139351
0.00142226
0.00142226
0.00139558
0.00139558
0.00142226
0.00139558
0.00139558
0.00142429
0.00139351
0.00142226
0.00139558
0.00139558
0.00139351
0.00138872
0.00135797
0.00138669
0.00138669
0.00136004
0.00136004
0.00138872
0.00135797
0.00138669
0.00138669
0.00136004
0.00136004
0.00138669
0.00136004
0.00136003
0.00138872
0.00135797
0.00138669
0.00136004
0.00136003
0.00135797
0.00135318
0.00132247
0.00135116
0.00135116
0.00132453
0.00132453
0.00135318
0.00132247
0.00135116
0.00135116
0.00132453
0.00132453
0.00135115
0.00132453
0.00132453
0.00135318
0.00132247
0.00135115
0.00132453
0.00132453
0.00132247
0.00131768
0.00128701
0.00131566
0.00131566
0.00128907
0.00128907
0.00131768
0.00128701
0.00131566
0.00131566
0.00128907
0.00128907
0.00131566
0.00128907
0.00128907
0.00131768
0.00128701
0.00131566
0.00128907
0.00128907
0.00128701
0.00128222
0.00125154
0.0012802
0.0012802
0.0012536
0.00125361
0.00128222
0.00125155
0.0012802
0.0012802
0.0012536
0.0012536
0.0012802
0.00125361
0.0012536
0.00128222
0.00125154
0.0012802
0.0012536
0.0012536
0.00125154
0.00124676
0.00121617
0.00124475
0.00124475
0.00121822
0.00121822
0.00124676
0.00121617
0.00124475
0.00124475
0.00121822
0.00121822
0.00124475
0.00121821
0.00121822
0.00124676
0.00121617
0.00124475
0.00121822
0.00121822
0.00121617
0.00121139
0.00118069
0.00120937
0.00120936
0.00118276
0.00118276
0.00121138
0.0011807
0.00120937
0.00120937
0.00118276
0.00118276
0.00120937
0.00118276
0.00118276
0.00121138
0.00118069
0.00120937
0.00118276
0.00118276
0.00118069
0.0011759
0.00114536
0.0011739
0.0011739
0.00114739
0.00114739
0.0011759
0.00114536
0.0011739
0.0011739
0.00114739
0.00114739
0.0011739
0.00114739
0.00114739
0.0011759
0.00114536
0.0011739
0.00114739
0.00114739
0.00114536
0.00114058
0.00111003
0.00113857
0.00113857
0.00111208
0.00111208
0.00114058
0.00111003
0.00113857
0.00113858
0.00111208
0.00111209
0.00113858
0.00111208
0.00111208
0.00114059
0.00111004
0.00113858
0.00111209
0.00111209
0.00111003
0.00110524
0.0010746
0.00110323
0.00110323
0.00107666
0.00107665
0.00110524
0.0010746
0.00110323
0.00110323
0.00107666
0.00107665
0.00110323
0.00107665
0.00107665
0.00110524
0.00107459
0.00110323
0.00107665
0.00107665
0.0010746
0.00106981
0.00103925
0.00106781
0.0010678
0.00104129
0.00104129
0.0010698
0.00103926
0.00106781
0.0010678
0.00104129
0.00104129
0.0010678
0.00104129
0.00104129
0.0010698
0.00103926
0.0010678
0.0010413
0.00104129
0.00103925
0.00103446
0.00100392
0.00103246
0.00103246
0.00100596
0.00100596
0.00103447
0.00100391
0.00103246
0.00103247
0.00100596
0.00100596
0.00103246
0.00100596
0.00100596
0.00103448
0.00100391
0.00103246
0.00100596
0.00100596
0.00100391
0.000999121
0.000968524
0.000997117
0.000997115
0.000970571
0.000970567
0.000999117
0.000968521
0.000997117
0.000997113
0.000970571
0.000970566
0.000997113
0.000970567
0.000970572
0.000999116
0.000968519
0.000997113
0.000970566
0.000970572
0.000968526
0.000963729
0.000933184
0.000961727
0.000961726
0.000935222
0.000935222
0.000963728
0.000933185
0.000961728
0.000961725
0.000935221
0.000935225
0.000961731
0.000935222
0.000935221
0.000963727
0.000933188
0.000961731
0.000935225
0.000935222
0.000933182
0.00092839
0.000897771
0.000926384
0.000926384
0.000899824
0.000899827
0.00092839
0.000897776
0.000926383
0.000926386
0.000899824
0.000899822
0.000926381
0.000899826
0.000899821
0.000928393
0.000897768
0.000926381
0.000899821
0.00089982
0.000897768
0.000892959
0.000862361
0.000890956
0.00089096
0.000864398
0.000864398
0.000892963
0.000862359
0.000890956
0.000890955
0.000864398
0.0008644
0.000890956
0.000864399
0.000864405
0.000892957
0.000862365
0.000890956
0.000864402
0.000864405
0.00086237
0.000857576
0.000827104
0.000855574
0.000855571
0.000829132
0.000829128
0.000857572
0.000827102
0.000855575
0.000855577
0.000829131
0.000829128
0.00085558
0.000829127
0.000829125
0.00085758
0.000827098
0.000855581
0.000829126
0.000829125
0.000827095
0.000822299
0.000791548
0.000820287
0.000820286
0.000793616
0.000793621
0.000822298
0.000791555
0.000820286
0.000820283
0.000793616
0.000793619
0.00082028
0.000793622
0.000793621
0.000822294
0.000791555
0.00082028
0.000793621
0.000793622
0.000791557
0.000786713
0.000756036
0.000784708
0.000784712
0.000758071
0.000758066
0.000786717
0.000756028
0.000784709
0.000784714
0.000758073
0.000758072
0.000784716
0.000758066
0.000758068
0.00078672
0.000756033
0.000784717
0.000758071
0.000758069
0.000756028
0.000751236
0.000720702
0.000749227
0.000749221
0.00072273
0.000722734
0.000751227
0.000720712
0.000749228
0.000749224
0.000722726
0.000722722
0.000749219
0.000722732
0.000722725
0.00075123
0.000720696
0.000749218
0.00072272
0.000722723
0.000720701
0.000715888
0.000685151
0.000713873
0.000713882
0.000687206
0.000687208
0.0007159
0.000685149
0.00071387
0.000713869
0.000687208
0.000687219
0.000713878
0.000687211
0.000687223
0.000715886
0.000685167
0.000713876
0.000687223
0.000687225
0.000685167
0.000680328
0.000649697
0.000678319
0.000678313
0.00065172
0.000651709
0.000680319
0.000649684
0.000678323
0.000678331
0.000651723
0.000651714
0.000678327
0.000651706
0.000651698
0.000680341
0.00064968
0.000678329
0.000651708
0.000651699
0.000649668
0.000644867
0.000613961
0.000642839
0.000642837
0.000616043
0.000616058
0.000644862
0.000613981
0.000642838
0.000642827
0.000616037
0.000616039
0.00064282
0.000616059
0.000616063
0.000644849
0.000613969
0.000642819
0.000616045
0.000616059
0.000613991
0.000609113
0.000578603
0.000607116
0.000607123
0.000580587
0.000580574
0.000609126
0.000578584
0.000607113
0.000607123
0.000580594
0.000580606
0.00060714
0.000580574
0.000580577
0.000609127
0.000578616
0.000607139
0.000580602
0.000580583
0.000578582
0.000573827
0.000542993
0.000571792
0.000571782
0.000545082
0.000545083
0.000573809
0.000542994
0.000571799
0.0005718
0.000545074
0.00054504
0.000571766
0.000545078
0.000545063
0.000573831
0.000542944
0.00057177
0.000545036
0.000545054
0.00054298
0.000538069
0.000506823
0.000536039
0.00053604
0.000508909
0.000508924
0.00053807
0.000506851
0.000536031
0.000536004
0.000508914
0.000508967
0.000536047
0.000508936
0.000508973
0.000538031
0.000506914
0.000536039
0.000508984
0.000508981
0.000506895
0.000502
0.00047173
0.000500008
0.000500027
0.000473678
0.000473673
0.000502028
0.000471712
0.000500018
0.000500079
0.000473682
0.00047367
0.000500047
0.000473665
0.000473624
0.000502092
0.000471687
0.000500059
0.000473654
0.000473625
0.000471654
0.00046697
0.000436075
0.000464915
0.000464896
0.000438167
0.000438138
0.00046694
0.000436041
0.000464913
0.000464864
0.000438152
0.000438089
0.000464857
0.000438133
0.000438153
0.000466899
0.000436
0.000464852
0.000438092
0.000438144
0.000436068
0.000431134
0.000399802
0.000429098
0.000429077
0.000401883
0.000401913
0.000431109
0.000399849
0.000429088
0.000429052
0.000401898
0.000401985
0.000429092
0.000401919
0.000401908
0.000431086
0.000399938
0.000429086
0.000401984
0.000401917
0.000399834
0.000394954
0.000364187
0.000392934
0.000392974
0.000366231
0.000366258
0.000395004
0.000364219
0.000392954
0.000393053
0.000366232
0.000366248
0.00039298
0.000366269
0.000366292
0.000395092
0.000364189
0.000392992
0.000366261
0.000366296
0.000364257
0.000359314
0.000328569
0.000357284
0.000357302
0.000330571
0.000330544
0.000359339
0.000328526
0.000357277
0.000357251
0.000330547
0.000330439
0.000357327
0.000330531
0.000330486
0.000359286
0.000328414
0.000357323
0.000330426
0.000330466
0.000328449
0.000323802
0.000292798
0.000321771
0.000321714
0.000294905
0.000294833
0.000323737
0.000292703
0.000321741
0.000321649
0.00029493
0.000295023
0.00032164
0.000294815
0.000294874
0.000323656
0.00029297
0.000321625
0.000295006
0.000294899
0.000292813
0.000287748
0.000255979
0.000285659
0.000285632
0.000258062
0.000258225
0.00028769
0.000256224
0.000285695
0.000285845
0.000258067
0.000258102
0.000285723
0.00025827
0.000258221
0.000287947
0.00025595
0.000285753
0.000258133
0.000258207
0.000256107
0.000251227
0.000221178
0.000249244
0.000249388
0.000223119
0.00022303
0.000251446
0.000221011
0.000249214
0.000249131
0.000223073
0.000222938
0.000249311
0.000223003
0.000222987
0.000251108
0.000221009
0.000249274
0.000222928
0.000222971
0.000221036
0.000216276
0.000184694
0.000214185
0.000214056
0.000186877
0.000186888
0.000216088
0.000184731
0.000214169
0.000214156
0.000186929
0.000187164
0.000214107
0.000186895
0.000187003
0.000216231
0.00018504
0.000214121
0.000187183
0.000187053
0.000184878
0.000179821
0.000149861
0.000177883
0.000177918
0.000151577
0.000151397
0.000179873
0.000149559
0.000177929
0.000178082
0.000151551
0.000151164
0.000177974
0.000151378
0.000151297
0.000180085
0.0001492
0.000178009
0.00015111
0.000151255
0.000149434
0.000145118
0.000111255
0.000142841
0.000142589
0.000113868
0.0001141
0.000144784
0.000111759
0.000142776
0.000142297
0.000113862
0.000114075
0.000142463
0.000114113
0.000114017
0.000144399
0.000111817
0.000142403
0.000114069
0.000113974
0.000111606
0.000105394
7.24779e-05
0.00010333
0.000103844
7.44865e-05
7.46063e-05
0.000106065
7.24797e-05
0.000103348
0.000103969
7.44776e-05
7.47101e-05
0.000103804
7.46568e-05
7.47848e-05
0.000106229
7.25663e-05
0.000103803
7.48665e-05
7.48937e-05
7.27057e-05
6.82738e-05
4.62118e-05
6.67219e-05
6.66257e-05
4.70568e-05
4.6436e-05
6.81682e-05
4.53145e-05
6.66978e-05
6.66032e-05
4.70438e-05
4.64716e-05
6.67357e-05
4.63383e-05
4.64556e-05
6.81567e-05
4.54227e-05
6.68153e-05
4.63726e-05
4.64615e-05
4.5508e-05
4.25504e-05
1.26433e-05
4.06254e-05
3.98014e-05
1.71477e-05
1.66664e-05
4.15803e-05
1.22543e-05
4.06574e-05
4.02673e-05
1.7452e-05
1.79447e-05
4.00729e-05
1.67525e-05
1.767e-05
4.20029e-05
1.35443e-05
4.00972e-05
1.79498e-05
1.78748e-05
1.34503e-05
7.75732e-06
1.07087e-05
1.04857e-05
7.75849e-06
1.08173e-05
1.13764e-05
9.19347e-06
9.58564e-06
9.57818e-06
1.13817e-05
8.5657e-06
1.14108e-05
0.00362547
0.00363523
0.00363003
0.00363003
0.00365241
0.00363919
0.0036678
0.00363324
0.00365241
0.0036392
0.00363324
0.0036678
0.00364377
0.00367154
0.00367154
0.00358083
0.00359998
0.00360917
0.00357291
0.00357365
0.00357642
0.00358081
0.00359995
0.00360916
0.00357289
0.00360369
0.00360369
0.00360369
0.00356029
0.00356029
0.00356029
0.00356029
0.00357833
0.00360415
0.00360409
0.00358716
0.00360718
0.00357724
0.00358804
0.00357375
0.00357642
0.00357834
0.00360409
0.00360417
0.00358716
0.00360718
0.00358804
0.00357723
0.00361003
0.00361001
0.00358156
0.00357687
0.00357687
0.00353421
0.00355348
0.00355484
0.00353274
0.00355239
0.0035323
0.0035342
0.00355348
0.00355484
0.00353274
0.00354834
0.00354834
0.00354834
0.00351075
0.00351075
0.00351075
0.00351075
0.00353279
0.00355356
0.00354834
0.00353647
0.00355235
0.00353333
0.0035362
0.00355239
0.00353229
0.00353279
0.00354834
0.00355356
0.00353647
0.00355235
0.0035362
0.00353333
0.00355458
0.00355457
0.00353302
0.00353366
0.00353367
0.00348195
0.00350075
0.00350182
0.00348093
0.00350039
0.00348064
0.00348195
0.00350075
0.00350182
0.00348092
0.00349759
0.00349759
0.00349759
0.00345822
0.00345822
0.00345822
0.00345822
0.00348105
0.00350115
0.00349747
0.00348443
0.00350059
0.00348141
0.00348433
0.00350039
0.00348064
0.00348105
0.00349747
0.00350115
0.00348442
0.00350059
0.00348433
0.00348141
0.00350139
0.00350139
0.00348104
0.00348148
0.00348148
0.00342943
0.00344808
0.00344894
0.00342866
0.00344788
0.00342848
0.00342943
0.00344808
0.00344894
0.00342866
0.00344521
0.00344521
0.00344521
0.00340659
0.00340659
0.00340659
0.00340659
0.00342892
0.00344849
0.00344518
0.00343228
0.0034482
0.00342911
0.00343224
0.00344787
0.00342848
0.00342892
0.00344518
0.00344849
0.00343228
0.0034482
0.00343224
0.00342911
0.00344853
0.00344853
0.00342896
0.00342904
0.00342904
0.00337824
0.00339659
0.00339722
0.00337768
0.00339645
0.00337755
0.00337824
0.00339659
0.00339722
0.00337768
0.00339387
0.00339386
0.00339387
0.00335625
0.00335625
0.00335625
0.00335625
0.00337797
0.00339694
0.00339385
0.00338125
0.00339677
0.00337808
0.00338122
0.00339644
0.00337755
0.00337797
0.00339384
0.00339694
0.00338125
0.00339677
0.00338122
0.00337807
0.00339693
0.00339693
0.00337804
0.00337798
0.00337798
0.0033286
0.00334655
0.003347
0.0033282
0.00334643
0.00332808
0.00332859
0.00334655
0.003347
0.0033282
0.00334389
0.00334389
0.00334389
0.00330737
0.00330738
0.00330738
0.00330738
0.00332848
0.00334684
0.00334388
0.00333166