/*--------------------------------*- C++ -*----------------------------------*\
| =========                 |                                                 |
| \\      /  F ield         | OpenFOAM: The Open Source CFD Toolbox           |
|  \\    /   O peration     | Version:  v1906                                 |
|   \\  /    A nd           | Web:      www.OpenFOAM.com                      |
|    \\/     M anipulation  |                                                 |
\*---------------------------------------------------------------------------*/
FoamFile
{
    version     2.0;
    format      ascii;
    class       volScalarField;
    location    "500";
    object      k;
}
// * * * * * * * * * * * * * * * * * * * * * * * * * * * * * * * * * * * * * //

dimensions      [0 2 -2 0 0 0 0];


internalField   nonuniform List<scalar> 
43024
(
3.91914e-05
5.15784e-05
5.15784e-05
5.3661e-05
3.95541e-05
5.17808e-05
5.17807e-05
5.38217e-05
3.98895e-05
5.19622e-05
5.19622e-05
5.39684e-05
4.01983e-05
5.21233e-05
5.21233e-05
5.40971e-05
4.0481e-05
5.22646e-05
5.22646e-05
5.4209e-05
4.07381e-05
5.23867e-05
5.23865e-05
5.4305e-05
4.09705e-05
5.24901e-05
5.24899e-05
5.43858e-05
4.11789e-05
5.25756e-05
5.25754e-05
5.44523e-05
4.13641e-05
5.26438e-05
5.26437e-05
5.4505e-05
4.15271e-05
5.26953e-05
5.26953e-05
5.45441e-05
4.16687e-05
5.27309e-05
5.27309e-05
5.45704e-05
4.17898e-05
5.27514e-05
5.27515e-05
5.45917e-05
4.18914e-05
5.27576e-05
5.27578e-05
5.45917e-05
4.19741e-05
5.27514e-05
5.27515e-05
5.45815e-05
4.2039e-05
5.27329e-05
5.2733e-05
5.45598e-05
4.20873e-05
5.27025e-05
5.27025e-05
5.45273e-05
4.21201e-05
5.26611e-05
5.26611e-05
5.44876e-05
4.21382e-05
5.26097e-05
5.26095e-05
5.44394e-05
4.21415e-05
5.25493e-05
5.2549e-05
5.43827e-05
4.21245e-05
5.24612e-05
5.24605e-05
5.431e-05
4.17265e-05
5.1312e-05
5.13052e-05
5.39328e-05
5.36202e-05
5.15209e-05
5.15218e-05
5.36122e-05
5.15208e-05
5.15204e-05
5.15238e-05
5.15227e-05
5.36221e-05
5.15238e-05
5.15227e-05
5.3621e-05
5.36603e-05
5.37813e-05
5.15755e-05
5.15764e-05
5.17284e-05
5.17293e-05
5.36707e-05
5.37805e-05
5.15756e-05
5.1575e-05
5.17283e-05
5.17278e-05
5.15774e-05
5.17313e-05
5.17302e-05
5.36613e-05
5.37815e-05
5.15774e-05
5.17311e-05
5.17302e-05
5.37797e-05
5.38235e-05
5.3928e-05
5.17779e-05
5.17789e-05
5.19147e-05
5.19157e-05
5.38268e-05
5.39285e-05
5.1778e-05
5.17773e-05
5.19146e-05
5.1914e-05
5.17798e-05
5.19175e-05
5.19165e-05
5.38237e-05
5.39277e-05
5.17798e-05
5.19175e-05
5.19165e-05
5.39276e-05
5.39675e-05
5.40582e-05
5.19594e-05
5.19604e-05
5.20804e-05
5.20814e-05
5.39697e-05
5.40595e-05
5.19595e-05
5.19588e-05
5.20804e-05
5.20797e-05
5.19612e-05
5.20832e-05
5.20822e-05
5.39678e-05
5.40583e-05
5.19613e-05
5.20831e-05
5.20824e-05
5.40589e-05
5.40956e-05
5.41731e-05
5.21206e-05
5.21216e-05
5.22262e-05
5.22272e-05
5.40972e-05
5.41744e-05
5.21207e-05
5.21199e-05
5.22261e-05
5.22255e-05
5.21224e-05
5.22289e-05
5.2228e-05
5.40959e-05
5.41733e-05
5.21226e-05
5.22288e-05
5.22283e-05
5.41744e-05
5.42074e-05
5.42726e-05
5.22619e-05
5.22629e-05
5.23525e-05
5.23536e-05
5.42087e-05
5.42737e-05
5.2262e-05
5.22612e-05
5.23525e-05
5.23518e-05
5.22638e-05
5.23553e-05
5.23545e-05
5.42075e-05
5.42726e-05
5.22641e-05
5.23551e-05
5.23548e-05
5.42741e-05
5.43035e-05
5.43568e-05
5.23839e-05
5.2385e-05
5.24602e-05
5.24613e-05
5.43046e-05
5.43578e-05
5.23841e-05
5.23833e-05
5.24602e-05
5.24595e-05
5.2386e-05
5.2463e-05
5.24622e-05
5.43035e-05
5.43568e-05
5.23863e-05
5.24628e-05
5.24625e-05
5.43582e-05
5.43846e-05
5.44263e-05
5.24874e-05
5.24884e-05
5.25498e-05
5.25509e-05
5.43856e-05
5.44272e-05
5.24875e-05
5.24867e-05
5.25498e-05
5.25491e-05
5.24894e-05
5.25525e-05
5.25518e-05
5.43845e-05
5.44263e-05
5.24897e-05
5.25524e-05
5.25521e-05
5.44278e-05
5.44512e-05
5.44817e-05
5.25729e-05
5.25739e-05
5.2622e-05
5.2623e-05
5.4452e-05
5.44824e-05
5.2573e-05
5.25722e-05
5.26221e-05
5.26214e-05
5.25749e-05
5.26247e-05
5.26241e-05
5.44511e-05
5.44816e-05
5.25752e-05
5.26246e-05
5.26243e-05
5.44832e-05
5.45037e-05
5.45234e-05
5.26411e-05
5.26421e-05
5.26776e-05
5.26785e-05
5.45044e-05
5.4524e-05
5.26413e-05
5.26405e-05
5.26778e-05
5.2677e-05
5.26433e-05
5.26803e-05
5.26798e-05
5.45037e-05
5.45234e-05
5.26435e-05
5.26803e-05
5.268e-05
5.45248e-05
5.45426e-05
5.45522e-05
5.26927e-05
5.26936e-05
5.27177e-05
5.27185e-05
5.45433e-05
5.45528e-05
5.26929e-05
5.26921e-05
5.27179e-05
5.27172e-05
5.26949e-05
5.27204e-05
5.27199e-05
5.45426e-05
5.45522e-05
5.26951e-05
5.27204e-05
5.27202e-05
5.45533e-05
5.45688e-05
5.45709e-05
5.27282e-05
5.2729e-05
5.27431e-05
5.27439e-05
5.45694e-05
5.45717e-05
5.27284e-05
5.27277e-05
5.27434e-05
5.27427e-05
5.27305e-05
5.27458e-05
5.27452e-05
5.45688e-05
5.45709e-05
5.27307e-05
5.27458e-05
5.27455e-05
5.45675e-05
5.45846e-05
5.45762e-05
5.27487e-05
5.27495e-05
5.27541e-05
5.27548e-05
5.45846e-05
5.45763e-05
5.2749e-05
5.27483e-05
5.27544e-05
5.27536e-05
5.27513e-05
5.27568e-05
5.27564e-05
5.45847e-05
5.45759e-05
5.27515e-05
5.27569e-05
5.27566e-05
5.45752e-05
5.45872e-05
5.45671e-05
5.27549e-05
5.27556e-05
5.27501e-05
5.27508e-05
5.45883e-05
5.45676e-05
5.27552e-05
5.27545e-05
5.27505e-05
5.27497e-05
5.27574e-05
5.27529e-05
5.27526e-05
5.45876e-05
5.45668e-05
5.27576e-05
5.2753e-05
5.27528e-05
5.45647e-05
5.45769e-05
5.45462e-05
5.27486e-05
5.27493e-05
5.27333e-05
5.2734e-05
5.45774e-05
5.45466e-05
5.2749e-05
5.27482e-05
5.27338e-05
5.27329e-05
5.27511e-05
5.27362e-05
5.27359e-05
5.45767e-05
5.45461e-05
5.27512e-05
5.27363e-05
5.27361e-05
5.45428e-05
5.45551e-05
5.4516e-05
5.273e-05
5.27308e-05
5.27044e-05
5.27051e-05
5.45555e-05
5.45165e-05
5.27305e-05
5.27296e-05
5.27048e-05
5.27039e-05
5.27326e-05
5.27073e-05
5.27071e-05
5.45556e-05
5.45133e-05
5.27327e-05
5.27073e-05
5.27072e-05
5.45143e-05
5.45254e-05
5.44762e-05
5.26996e-05
5.27003e-05
5.26642e-05
5.26649e-05
5.45259e-05
5.44767e-05
5.27001e-05
5.26991e-05
5.26646e-05
5.26636e-05
5.27022e-05
5.26671e-05
5.26669e-05
5.45255e-05
5.44755e-05
5.27022e-05
5.26671e-05
5.26669e-05
5.44764e-05
5.44863e-05
5.44284e-05
5.26582e-05
5.26589e-05
5.26136e-05
5.26142e-05
5.44869e-05
5.44289e-05
5.26586e-05
5.26576e-05
5.2614e-05
5.26129e-05
5.26608e-05
5.26165e-05
5.26162e-05
5.44861e-05
5.4428e-05
5.26608e-05
5.26163e-05
5.26162e-05
5.44291e-05
5.44383e-05
5.43725e-05
5.26068e-05
5.26074e-05
5.25535e-05
5.2554e-05
5.44388e-05
5.43729e-05
5.26072e-05
5.26061e-05
5.25539e-05
5.25528e-05
5.26093e-05
5.25564e-05
5.25559e-05
5.4438e-05
5.43721e-05
5.26093e-05
5.25561e-05
5.25559e-05
5.43733e-05
5.43817e-05
5.43067e-05
5.25464e-05
5.2547e-05
5.24907e-05
5.24911e-05
5.43822e-05
5.4307e-05
5.25468e-05
5.25457e-05
5.2491e-05
5.24899e-05
5.25487e-05
5.24934e-05
5.24929e-05
5.43813e-05
5.43061e-05
5.25487e-05
5.24931e-05
5.24929e-05
5.43072e-05
5.43098e-05
5.40841e-05
5.24584e-05
5.24588e-05
5.22683e-05
5.22693e-05
5.43102e-05
5.40861e-05
5.24588e-05
5.24572e-05
5.227e-05
5.22666e-05
5.24602e-05
5.22724e-05
5.22701e-05
5.43088e-05
5.40968e-05
5.24601e-05
5.22718e-05
5.22713e-05
5.41017e-05
5.39454e-05
5.13079e-05
5.1308e-05
5.3945e-05
5.13097e-05
5.13006e-05
4.17281e-05
4.17263e-05
4.17281e-05
5.13031e-05
5.39342e-05
5.13047e-05
6.85693e-05
7.34388e-05
7.11954e-05
6.85742e-05
7.34442e-05
3.90958e-05
3.9097e-05
3.90994e-05
3.90999e-05
6.06284e-05
5.1412e-05
6.47923e-05
4.67102e-05
7.11941e-05
6.06262e-05
5.1412e-05
4.6711e-05
6.47935e-05
5.35328e-05
6.9934e-05
6.99455e-05
6.86228e-05
7.34703e-05
6.86022e-05
7.34946e-05
7.12235e-05
7.12482e-05
6.86274e-05
7.34757e-05
6.86047e-05
7.34999e-05
3.91926e-05
3.9195e-05
3.91953e-05
3.94651e-05
3.94663e-05
3.94686e-05
3.94692e-05
6.07216e-05
6.48295e-05
4.69211e-05
5.16302e-05
6.0683e-05
6.4854e-05
4.69871e-05
7.1222e-05
7.12468e-05
6.07177e-05
4.69219e-05
6.48304e-05
5.16302e-05
6.06823e-05
4.69879e-05
6.48547e-05
6.99671e-05
6.99785e-05
5.37046e-05
6.99821e-05
6.99944e-05
6.86693e-05
7.35245e-05
6.86515e-05
7.35477e-05
7.12752e-05
7.12991e-05
6.86738e-05
7.35299e-05
6.86538e-05
7.35531e-05
3.95552e-05
3.95575e-05
3.95578e-05
3.98071e-05
3.98083e-05
3.98105e-05
3.98111e-05
6.08022e-05
6.48868e-05
4.71789e-05
5.1827e-05
6.07689e-05
6.4908e-05
4.72383e-05
7.12737e-05
7.12978e-05
6.0798e-05
4.71796e-05
6.48876e-05
5.18269e-05
6.07681e-05
4.72389e-05
6.49086e-05
7.0013e-05
7.0024e-05
5.38564e-05
7.00261e-05
7.00382e-05
6.87089e-05
7.3576e-05
6.8694e-05
7.3598e-05
7.1325e-05
7.13481e-05
6.87136e-05
7.35814e-05
6.86964e-05
7.36034e-05
3.98907e-05
3.98929e-05
3.98932e-05
4.01222e-05
4.01234e-05
4.01256e-05
4.01261e-05
6.08713e-05
6.49363e-05
4.74116e-05
5.20029e-05
6.08427e-05
6.49545e-05
4.74644e-05
7.13235e-05
7.13468e-05
6.08673e-05
4.74124e-05
6.49374e-05
5.20028e-05
6.08421e-05
4.74652e-05
6.49552e-05
7.00531e-05
7.00645e-05
5.3995e-05
7.00657e-05
7.00772e-05
6.87419e-05
7.36246e-05
6.87296e-05
7.36455e-05
7.13729e-05
7.13952e-05
6.87466e-05
7.36299e-05
6.87322e-05
7.36502e-05
4.01995e-05
4.02016e-05
4.02019e-05
4.04111e-05
4.04122e-05
4.04143e-05
4.04149e-05
6.09291e-05
6.49786e-05
4.762e-05
5.21585e-05
6.0905e-05
6.49938e-05
4.76663e-05
7.13714e-05
7.13938e-05
6.09249e-05
4.76208e-05
6.49796e-05
5.21584e-05
6.09044e-05
4.76672e-05
6.49945e-05
7.0089e-05
7.01007e-05
5.41183e-05
7.00992e-05
7.01109e-05
6.87685e-05
7.36704e-05
6.87588e-05
7.36901e-05
7.14188e-05
7.14403e-05
6.87728e-05
7.3676e-05
6.87613e-05
7.36955e-05
4.04821e-05
4.04842e-05
4.04845e-05
4.06742e-05
4.06754e-05
4.06774e-05
4.06781e-05
6.09739e-05
6.50137e-05
4.78048e-05
5.22945e-05
6.09566e-05
6.5026e-05
4.78449e-05
7.14173e-05
7.14389e-05
6.09713e-05
4.78057e-05
6.50148e-05
5.22944e-05
6.0955e-05
4.78457e-05
6.50269e-05
7.01208e-05
7.01324e-05
5.4226e-05
7.0129e-05
7.01407e-05
6.87886e-05
7.37134e-05
6.87813e-05
7.37319e-05
7.14626e-05
7.14833e-05
6.87924e-05
7.37188e-05
6.8784e-05
7.37373e-05
4.07393e-05
4.07413e-05
4.07417e-05
4.09124e-05
4.09136e-05
4.09155e-05
4.09162e-05
6.10092e-05
6.5042e-05
4.79669e-05
5.24114e-05
6.09961e-05
6.50514e-05
4.80008e-05
7.14611e-05
7.14819e-05
6.10066e-05
4.79677e-05
6.5043e-05
5.24113e-05
6.09941e-05
4.80015e-05
6.50524e-05
7.01476e-05
7.01591e-05
5.4318e-05
7.01542e-05
7.01658e-05
6.88026e-05
7.37535e-05
6.87973e-05
7.37707e-05
7.15044e-05
7.15242e-05
6.88062e-05
7.37589e-05
6.88005e-05
7.37762e-05
4.09717e-05
4.09736e-05
4.0974e-05
4.11262e-05
4.11274e-05
4.11292e-05
4.113e-05
6.10349e-05
6.50636e-05
4.81071e-05
5.251e-05
6.10253e-05
6.50702e-05
4.8135e-05
7.15029e-05
7.15228e-05
6.1032e-05
4.81077e-05
6.50647e-05
5.25098e-05
6.10227e-05
4.81356e-05
6.50714e-05
7.017e-05
7.01815e-05
5.43949e-05
7.01749e-05
7.01865e-05
6.88107e-05
7.37915e-05
6.88075e-05
7.38065e-05
7.15441e-05
7.15631e-05
6.88143e-05
7.37969e-05
6.88108e-05
7.38114e-05
4.11801e-05
4.11819e-05
4.11824e-05
4.13166e-05
4.13178e-05
4.13196e-05
4.13204e-05
6.10504e-05
6.50789e-05
4.82261e-05
5.25907e-05
6.1044e-05
6.50825e-05
4.82485e-05
7.15424e-05
7.15616e-05
6.10474e-05
4.82267e-05
6.50799e-05
5.25906e-05
6.10412e-05
4.82491e-05
6.5084e-05
7.01877e-05
7.01992e-05
5.44573e-05
7.01915e-05
7.0203e-05
6.88132e-05
7.3825e-05
6.8812e-05
7.38402e-05
7.15816e-05
7.15997e-05
6.88169e-05
7.38315e-05
6.88154e-05
7.38448e-05
4.13653e-05
4.13671e-05
4.13676e-05
4.14844e-05
4.14855e-05
4.14873e-05
4.14881e-05
6.10562e-05
6.50878e-05
4.83249e-05
5.26545e-05
6.10532e-05
6.50889e-05
4.83422e-05
7.15797e-05
7.15982e-05
6.10532e-05
4.83254e-05
6.50887e-05
5.26544e-05
6.10504e-05
4.83426e-05
6.50904e-05
7.02008e-05
7.02125e-05
5.45058e-05
7.02035e-05
7.02152e-05
6.88106e-05
7.38566e-05
6.88113e-05
7.38708e-05
7.16168e-05
7.16343e-05
6.88144e-05
7.38625e-05
6.88148e-05
7.38761e-05
4.15282e-05
4.153e-05
4.15305e-05
4.16304e-05
4.16315e-05
4.16334e-05
4.16342e-05
6.10532e-05
6.50903e-05
4.84045e-05
5.27022e-05
6.10535e-05
6.50894e-05
4.84169e-05
7.16149e-05
7.16328e-05
6.10502e-05
4.8405e-05
6.50912e-05
5.27022e-05
6.10506e-05
4.84173e-05
6.50905e-05
7.02101e-05
7.02217e-05
5.45408e-05
7.02112e-05
7.02228e-05
6.88032e-05
7.38853e-05
6.88059e-05
7.3898e-05
7.16497e-05
7.16667e-05
6.88069e-05
7.38912e-05
6.88093e-05
7.39035e-05
4.16698e-05
4.16716e-05
4.16721e-05
4.17558e-05
4.17569e-05
4.17587e-05
4.17595e-05
6.10418e-05
6.50873e-05
4.84656e-05
5.27349e-05
6.10452e-05
6.50837e-05
4.84739e-05
7.16479e-05
7.16652e-05
6.10388e-05
4.84661e-05
6.50883e-05
5.2735e-05
6.10424e-05
4.84743e-05
6.50848e-05
7.02156e-05
7.02271e-05
5.45616e-05
7.02148e-05
7.02264e-05
6.87915e-05
7.39121e-05
6.87957e-05
7.39224e-05
7.16804e-05
7.16971e-05
6.87952e-05
7.39179e-05
6.87993e-05
7.39282e-05
4.17908e-05
4.17927e-05
4.17932e-05
4.18616e-05
4.18626e-05
4.18645e-05
4.18653e-05
6.10222e-05
6.50788e-05
4.85091e-05
5.27531e-05
6.10294e-05
6.50726e-05
4.85142e-05
7.16786e-05
7.16956e-05
6.10192e-05
4.85095e-05
6.50798e-05
5.27531e-05
6.10267e-05
4.85146e-05
6.50736e-05
7.02175e-05
7.0229e-05
5.45718e-05
7.02147e-05
7.02263e-05
6.87755e-05
7.39352e-05
6.87808e-05
7.39449e-05
7.17088e-05
7.17256e-05
6.8779e-05
7.3941e-05
6.87845e-05
7.39508e-05
4.18924e-05
4.18943e-05
4.18948e-05
4.19488e-05
4.19498e-05
4.19516e-05
4.19524e-05
6.0995e-05
6.50649e-05
4.8536e-05
5.27564e-05
6.10054e-05
6.5056e-05
4.85383e-05
7.17069e-05
7.17241e-05
6.09921e-05
4.85366e-05
6.50659e-05
5.27566e-05
6.10026e-05
4.85386e-05
6.5057e-05
7.02161e-05
7.02276e-05
5.45699e-05
7.02107e-05
7.02223e-05
6.87542e-05
7.39557e-05
6.87613e-05
7.39649e-05
7.17347e-05
7.17523e-05
6.87585e-05
7.39615e-05
6.87651e-05
7.39708e-05
4.19751e-05
4.1977e-05
4.19777e-05
4.20186e-05
4.20197e-05
4.20215e-05
4.20223e-05
6.09606e-05
6.5046e-05
4.85474e-05
5.27461e-05
6.09731e-05
6.50341e-05
4.85468e-05
7.17329e-05
7.17508e-05
6.09571e-05
4.85479e-05
6.50469e-05
5.27462e-05
6.09704e-05
4.85472e-05
6.50351e-05
7.02116e-05
7.02231e-05
5.45531e-05
7.02028e-05
7.02144e-05
6.87288e-05
7.39732e-05
6.87373e-05
7.39822e-05
7.17581e-05
7.17775e-05
6.87329e-05
7.39791e-05
6.87412e-05
7.39881e-05
4.20398e-05
4.20418e-05
4.20424e-05
4.20719e-05
4.20733e-05
4.20748e-05
4.20759e-05
6.09191e-05
6.50229e-05
4.85442e-05
5.27232e-05
6.09332e-05
6.50069e-05
4.85398e-05
7.17563e-05
7.1776e-05
6.09144e-05
4.85446e-05
6.50238e-05
5.27233e-05
6.0931e-05
4.85402e-05
6.5008e-05
7.02044e-05
7.02159e-05
5.45292e-05
7.0191e-05
7.02026e-05
6.86991e-05
7.39879e-05
6.8709e-05
7.39977e-05
7.17786e-05
7.18015e-05
6.8703e-05
7.39938e-05
6.87127e-05
7.40036e-05
4.20879e-05
4.20901e-05
4.20905e-05
4.21092e-05
4.21109e-05
4.2112e-05
4.21136e-05
6.08696e-05
6.49967e-05
4.85286e-05
5.26886e-05
6.08863e-05
6.49742e-05
4.85196e-05
7.17768e-05
7.18e-05
6.08652e-05
4.8529e-05
6.49975e-05
5.26886e-05
6.08843e-05
4.85199e-05
6.49752e-05
7.01953e-05
7.02068e-05
5.44967e-05
7.01752e-05
7.01868e-05
6.86654e-05
7.39999e-05
6.86762e-05
7.4012e-05
7.17961e-05
7.18249e-05
6.86691e-05
7.40057e-05
6.86797e-05
7.40178e-05
4.21205e-05
4.21229e-05
4.21231e-05
4.21321e-05
4.21334e-05
4.21347e-05
4.21359e-05
6.08132e-05
6.49687e-05
4.85005e-05
5.26431e-05
6.08337e-05
6.49354e-05
4.84869e-05
7.17943e-05
7.18234e-05
6.081e-05
4.85007e-05
6.49694e-05
5.26429e-05
6.08312e-05
4.8487e-05
6.49362e-05
7.01853e-05
7.01968e-05
5.44539e-05
7.01554e-05
7.01669e-05
6.86272e-05
7.40091e-05
6.86385e-05
7.4027e-05
7.18105e-05
7.18482e-05
6.86309e-05
7.40148e-05
6.86422e-05
7.40327e-05
4.21388e-05
4.21408e-05
4.21415e-05
4.214e-05
4.21409e-05
4.21426e-05
4.21434e-05
6.07479e-05
6.49424e-05
4.84608e-05
5.25876e-05
6.07786e-05
6.48892e-05
4.84427e-05
7.18087e-05
7.18467e-05
6.07448e-05
4.84608e-05
6.4943e-05
5.25874e-05
6.07756e-05
4.84427e-05
6.489e-05
7.01757e-05
7.01872e-05
5.44023e-05
7.01327e-05
7.01442e-05
6.85824e-05
7.40153e-05
6.85949e-05
7.40456e-05
7.18225e-05
7.18718e-05
6.8586e-05
7.4021e-05
6.85985e-05
7.40513e-05
4.21424e-05
4.2144e-05
4.21448e-05
4.21251e-05
4.21261e-05
4.21274e-05
4.21282e-05
6.06763e-05
6.49258e-05
4.84104e-05
5.25223e-05
6.07136e-05
6.48317e-05
4.83867e-05
7.18209e-05
7.18702e-05
6.06737e-05
4.84103e-05
6.49263e-05
5.2522e-05
6.07108e-05
4.83866e-05
6.4832e-05
7.01697e-05
7.01812e-05
5.43421e-05
7.01101e-05
7.01216e-05
6.85153e-05
7.40155e-05
6.85369e-05
7.40734e-05
7.18339e-05
7.18982e-05
6.85182e-05
7.4021e-05
6.854e-05
7.40789e-05
4.21254e-05
4.21267e-05
4.21275e-05
4.1761e-05
4.17623e-05
4.17615e-05
4.17628e-05
6.05599e-05
6.49287e-05
4.8344e-05
5.24488e-05
6.0647e-05
6.47296e-05
4.82731e-05
7.18325e-05
7.18971e-05
6.05576e-05
4.83443e-05
6.49284e-05
5.24492e-05
6.06446e-05
4.82728e-05
6.4729e-05
7.01593e-05
7.01707e-05
5.42623e-05
7.00407e-05
7.0052e-05
6.45453e-05
7.37821e-05
6.82821e-05
7.46236e-05
7.17816e-05
6.61392e-05
6.45467e-05
7.37865e-05
6.82839e-05
7.4666e-05
2.98288e-05
3.62016e-05
3.62003e-05
4.31081e-05
3.01221e-05
3.7058e-05
3.70572e-05
6.02288e-05
6.45604e-05
4.80748e-05
5.00557e-05
6.03367e-05
6.6355e-05
4.62579e-05
7.17794e-05
6.61435e-05
6.02265e-05
4.80739e-05
6.45615e-05
5.00863e-05
6.03352e-05
4.62519e-05
6.63586e-05
6.94231e-05
6.94343e-05
5.35293e-05
7.07825e-05
7.07917e-05
7.11934e-05
7.11959e-05
5.35337e-05
6.99348e-05
6.99439e-05
7.122e-05
7.11949e-05
7.12224e-05
7.11974e-05
5.35718e-05
6.99599e-05
6.99688e-05
6.9943e-05
6.99531e-05
6.85715e-05
7.34428e-05
6.0624e-05
5.14091e-05
6.47909e-05
4.67067e-05
6.06256e-05
5.14101e-05
6.47951e-05
4.67082e-05
6.85749e-05
7.34671e-05
7.34422e-05
6.85971e-05
6.85771e-05
7.34711e-05
7.3448e-05
6.85991e-05
6.06353e-05
5.14662e-05
6.48229e-05
4.68485e-05
6.47967e-05
4.67791e-05
6.06722e-05
6.06369e-05
5.14672e-05
6.48271e-05
4.68499e-05
6.48011e-05
4.67806e-05
6.06739e-05
5.3525e-05
6.99442e-05
6.99311e-05
7.1192e-05
7.1222e-05
7.11969e-05
5.35843e-05
6.99692e-05
6.9956e-05
6.99524e-05
6.99411e-05
7.12186e-05
7.11934e-05
6.06281e-05
5.1409e-05
6.47948e-05
4.67087e-05
6.85723e-05
7.34381e-05
6.06263e-05
5.14086e-05
4.67086e-05
6.47893e-05
6.85772e-05
7.34725e-05
7.34476e-05
6.8602e-05
6.0635e-05
5.14663e-05
6.48267e-05
4.68504e-05
6.48004e-05
4.67811e-05
6.06754e-05
6.85753e-05
7.34664e-05
7.34434e-05
6.85999e-05
6.0633e-05
5.14658e-05
4.68503e-05
6.48211e-05
4.6781e-05
6.47954e-05
6.06746e-05
6.8573e-05
7.34421e-05
6.06252e-05
5.1411e-05
4.67099e-05
6.4791e-05
6.85703e-05
7.34391e-05
6.06353e-05
5.14692e-05
6.48241e-05
4.68519e-05
6.4798e-05
4.67825e-05
6.06767e-05
6.85763e-05
7.34703e-05
7.34473e-05
6.86005e-05
6.06362e-05
5.14681e-05
4.68516e-05
6.48227e-05
4.67823e-05
6.47967e-05
6.06733e-05
6.85758e-05
7.34675e-05
7.34445e-05
6.85979e-05
5.35348e-05
6.9937e-05
6.99347e-05
7.11944e-05
7.12207e-05
7.11955e-05
5.35769e-05
6.99619e-05
6.99596e-05
6.9947e-05
6.99441e-05
7.1221e-05
7.1196e-05
6.06272e-05
5.14109e-05
4.67112e-05
6.47965e-05
6.85699e-05
7.34404e-05
6.85723e-05
7.34442e-05
6.06342e-05
5.14692e-05
4.68527e-05
6.48251e-05
4.67833e-05
6.47988e-05
6.06731e-05
6.06357e-05
5.14681e-05
4.68529e-05
6.48283e-05
4.67836e-05
6.48019e-05
6.06742e-05
6.8575e-05
7.34686e-05
7.34456e-05
6.85969e-05
6.85774e-05
7.34725e-05
7.34476e-05
6.85994e-05
7.11937e-05
7.11966e-05
5.35719e-05
6.99588e-05
6.99705e-05
6.99424e-05
6.9954e-05
7.12203e-05
7.11953e-05
7.12232e-05
7.11981e-05
7.12215e-05
7.12462e-05
7.12239e-05
7.12486e-05
6.99676e-05
6.99777e-05
5.37016e-05
6.99836e-05
6.99926e-05
7.12719e-05
7.12475e-05
7.12743e-05
7.125e-05
5.37446e-05
7.00061e-05
7.00151e-05
6.9991e-05
7.00011e-05
6.8625e-05
7.34761e-05
6.86042e-05
7.34986e-05
6.07176e-05
6.48282e-05
4.69178e-05
5.16274e-05
6.06824e-05
6.48527e-05
4.69839e-05
6.07192e-05
6.48325e-05
4.69192e-05
5.16282e-05
6.06841e-05
6.48569e-05
4.69853e-05
6.86275e-05
7.35215e-05
7.34978e-05
6.8647e-05
6.86296e-05
7.35255e-05
7.35036e-05
6.86491e-05
6.07269e-05
5.16794e-05
6.48807e-05
4.71127e-05
6.48578e-05
4.705e-05
6.07595e-05
6.07286e-05
5.16803e-05
6.48849e-05
4.71141e-05
6.48617e-05
4.70515e-05
6.07611e-05
6.99771e-05
6.99656e-05
5.36963e-05
6.99929e-05
6.99798e-05
7.12199e-05
7.12447e-05
7.12738e-05
7.12496e-05
5.37501e-05
7.00148e-05
7.00023e-05
7.00005e-05
6.9989e-05
7.12704e-05
7.1246e-05
6.0719e-05
6.4832e-05
4.69197e-05
5.16272e-05
6.06835e-05
6.48564e-05
4.69857e-05
6.86255e-05
7.34715e-05
6.86027e-05
7.34939e-05
6.07174e-05
4.69197e-05
6.48269e-05
5.16268e-05
6.06806e-05
4.69856e-05
6.48509e-05
6.86299e-05
7.35269e-05
7.35031e-05
6.86517e-05
6.07283e-05
5.16794e-05
6.48844e-05
4.71145e-05
6.48615e-05
4.70518e-05
6.07609e-05
6.8628e-05
7.35208e-05
7.3499e-05
6.86495e-05
6.07266e-05
5.16788e-05
4.71144e-05
6.48788e-05
4.70518e-05
6.48563e-05
6.07591e-05
6.86263e-05
7.34754e-05
6.86036e-05
7.34978e-05
6.07185e-05
4.69209e-05
6.48282e-05
5.16292e-05
6.06833e-05
4.69869e-05
6.48526e-05
6.86237e-05
7.34725e-05
6.86029e-05
7.3495e-05
6.07274e-05
5.16822e-05
6.4882e-05
4.71159e-05
6.48591e-05
4.70532e-05
6.07637e-05
6.86291e-05
7.35248e-05
7.35029e-05
6.86503e-05
6.07277e-05
5.16813e-05
4.71157e-05
6.48806e-05
4.70531e-05
6.48579e-05
6.07603e-05
6.86283e-05
7.35219e-05
7.35e-05
6.86477e-05
6.99715e-05
6.99686e-05
5.37022e-05
6.99856e-05
6.99834e-05
7.12225e-05
7.12472e-05
7.12725e-05
7.12481e-05
5.37451e-05
7.00081e-05
7.00059e-05
6.99948e-05
6.9992e-05
7.12728e-05
7.12486e-05
6.0719e-05
4.69222e-05
6.48334e-05
5.16292e-05
6.06837e-05
4.69881e-05
6.48582e-05
6.86224e-05
7.34736e-05
6.86019e-05
7.34961e-05
6.86248e-05
7.34758e-05
6.86043e-05
7.35001e-05
6.07266e-05
5.16822e-05
4.71166e-05
6.48825e-05
4.70539e-05
6.48599e-05
6.07593e-05
6.07281e-05
5.16813e-05
4.71169e-05
6.4886e-05
4.70543e-05
6.4863e-05
6.07605e-05
6.86269e-05
7.3523e-05
7.35011e-05
6.86459e-05
6.86294e-05
7.3527e-05
7.35032e-05
6.86483e-05
7.12218e-05
7.12464e-05
7.12246e-05
7.12494e-05
5.3742e-05
7.00047e-05
7.00169e-05
6.99908e-05
7.0002e-05
7.12721e-05
7.12479e-05
7.12751e-05
7.12507e-05
7.12732e-05
7.12971e-05
7.12756e-05
7.12995e-05
7.00132e-05
7.00232e-05
5.38568e-05
7.00274e-05
7.00364e-05
7.13219e-05
7.12983e-05
7.13243e-05
7.13008e-05
5.38975e-05
7.00475e-05
7.00565e-05
7.00341e-05
7.00442e-05
6.86715e-05
7.35303e-05
6.86535e-05
7.35517e-05
6.07985e-05
6.48854e-05
4.71759e-05
5.18242e-05
6.07685e-05
6.49068e-05
4.72353e-05
6.08001e-05
6.48893e-05
4.71773e-05
5.18251e-05
6.07701e-05
6.4911e-05
4.72367e-05
6.86734e-05
7.35733e-05
7.35506e-05
6.86901e-05
6.86755e-05
7.35779e-05
7.35565e-05
6.86921e-05
6.08066e-05
5.18713e-05
6.49309e-05
4.73516e-05
6.49112e-05
4.72954e-05
6.08343e-05
6.08082e-05
5.18722e-05
6.49352e-05
4.73529e-05
6.49151e-05
4.72968e-05
6.08359e-05
7.0023e-05
7.00111e-05
5.38567e-05
7.00362e-05
7.00236e-05
7.12716e-05
7.12957e-05
7.13239e-05
7.13004e-05
5.39002e-05
7.00563e-05
7.00437e-05
7.0044e-05
7.00321e-05
7.13205e-05
7.12968e-05
6.08e-05
6.48893e-05
4.71776e-05
5.18241e-05
6.07697e-05
6.49104e-05
4.7237e-05
6.86718e-05
7.35257e-05
6.86517e-05
7.3547e-05
6.07982e-05
4.71776e-05
6.48839e-05
5.18235e-05
6.07679e-05
4.72369e-05
6.49048e-05
6.86757e-05
7.35787e-05
7.3556e-05
6.86949e-05
6.08081e-05
5.18713e-05
6.49348e-05
4.73532e-05
6.49151e-05
4.72971e-05
6.08361e-05
6.86737e-05
7.35725e-05
7.35518e-05
6.86926e-05
6.08063e-05
5.18706e-05
4.73531e-05
6.4929e-05
4.7297e-05
6.49096e-05
6.08343e-05
6.86726e-05
7.35296e-05
6.86528e-05
7.3551e-05
6.07995e-05
4.71788e-05
6.48855e-05
5.18259e-05
6.07693e-05
4.72382e-05
6.49066e-05
6.86701e-05
7.35267e-05
6.86521e-05
7.35482e-05
6.0807e-05
5.18741e-05
6.49321e-05
4.73544e-05
6.49124e-05
4.72984e-05
6.08386e-05
6.86749e-05
7.35773e-05
7.35557e-05
6.86933e-05
6.08076e-05
5.18731e-05
4.73544e-05
6.4931e-05
4.72984e-05
6.49114e-05
6.08353e-05
6.86741e-05
7.35744e-05
7.35527e-05
6.86907e-05
7.00169e-05
7.0014e-05
5.38566e-05
7.00293e-05
7.00272e-05
7.12742e-05
7.12981e-05
7.13225e-05
7.12988e-05
5.38977e-05
7.00494e-05
7.00473e-05
7.00378e-05
7.0035e-05
7.13228e-05
7.12994e-05
6.07994e-05
4.71801e-05
6.48908e-05
5.1826e-05
6.07693e-05
4.72393e-05
6.49118e-05
6.86679e-05
7.35278e-05
6.86503e-05
7.35492e-05
6.86704e-05
7.353e-05
6.86527e-05
7.35532e-05
6.08062e-05
5.1874e-05
4.73551e-05
6.49329e-05
4.72991e-05
6.49134e-05
6.08343e-05
6.08075e-05
5.18732e-05
4.73555e-05
6.49361e-05
4.72995e-05
6.49165e-05
6.08354e-05
6.8672e-05
7.35753e-05
7.35539e-05
6.86884e-05
6.86744e-05
7.35787e-05
7.35561e-05
6.86907e-05
7.12735e-05
7.12974e-05
7.12763e-05
7.13003e-05
5.38972e-05
7.00466e-05
7.00582e-05
7.0034e-05
7.00449e-05
7.13222e-05
7.12987e-05
7.1325e-05
7.13015e-05
7.1323e-05
7.13462e-05
7.13255e-05
7.13486e-05
7.00538e-05
7.00639e-05
5.3995e-05
7.00664e-05
7.00759e-05
7.13699e-05
7.13472e-05
7.13724e-05
7.13497e-05
5.40336e-05
7.00841e-05
7.00937e-05
7.00723e-05
7.0082e-05
6.8711e-05
7.35807e-05
6.86959e-05
7.36029e-05
6.08674e-05
6.49352e-05
4.74088e-05
5.20001e-05
6.08421e-05
6.49532e-05
4.74617e-05
6.08689e-05
6.4939e-05
4.74102e-05
5.20011e-05
6.08437e-05
6.49577e-05
4.7463e-05
6.87124e-05
7.36222e-05
7.36007e-05
6.87264e-05
6.87145e-05
7.36269e-05
7.36055e-05
6.87283e-05
6.08744e-05
5.20425e-05
6.49739e-05
4.75657e-05
6.49573e-05
4.75161e-05
6.08976e-05
6.08759e-05
5.20435e-05
6.4978e-05
4.7567e-05
6.49612e-05
4.75174e-05
6.08991e-05
7.00637e-05
7.00518e-05
5.39959e-05
7.00752e-05
7.00625e-05
7.13214e-05
7.13447e-05
7.13719e-05
7.13492e-05
5.40355e-05
7.0093e-05
7.00803e-05
7.00823e-05
7.00703e-05
7.13685e-05
7.13456e-05
6.08693e-05
6.4939e-05
4.74104e-05
5.2e-05
6.08438e-05
6.49572e-05
4.74633e-05
6.87115e-05
7.35771e-05
6.86942e-05
7.35972e-05
6.08675e-05
4.74104e-05
6.49334e-05
5.19994e-05
6.0842e-05
4.74632e-05
6.49514e-05
6.87149e-05
7.36276e-05
7.36061e-05
6.87313e-05
6.08762e-05
5.20426e-05
6.49778e-05
4.75673e-05
6.49612e-05
4.75176e-05
6.08999e-05
6.87129e-05
7.36213e-05
7.36018e-05
6.8729e-05
6.08743e-05
5.20418e-05
4.75672e-05
6.4972e-05
4.75176e-05
6.49555e-05
6.08982e-05
6.87122e-05
7.358e-05
6.86952e-05
7.36021e-05
6.08684e-05
4.74117e-05
6.49351e-05
5.20018e-05
6.0843e-05
4.74644e-05
6.49532e-05
6.87097e-05
7.35771e-05
6.86945e-05
7.35993e-05
6.0875e-05
5.20453e-05
6.4975e-05
4.75684e-05
6.49583e-05
4.75188e-05
6.0902e-05
6.87139e-05
7.36262e-05
7.36048e-05
6.87296e-05
6.08753e-05
5.20443e-05
4.75684e-05
6.49738e-05
4.75188e-05
6.49572e-05
6.08986e-05
6.87131e-05
7.36233e-05
7.36019e-05
6.8727e-05
7.00575e-05
7.00546e-05
5.39948e-05
7.00682e-05
7.00661e-05
7.1324e-05
7.13471e-05
7.13706e-05
7.13477e-05
5.4034e-05
7.0086e-05
7.00839e-05
7.0076e-05
7.00732e-05
7.13709e-05
7.13482e-05
6.08685e-05
4.74128e-05
6.49404e-05
5.2002e-05
6.08431e-05
4.74656e-05
6.49586e-05
6.87072e-05
7.35781e-05
6.86922e-05
7.36003e-05
6.87093e-05
7.35814e-05
6.86945e-05
7.36035e-05
6.08744e-05
5.20452e-05
4.75692e-05
6.49758e-05
4.75196e-05
6.49594e-05
6.08979e-05
6.08755e-05
5.20445e-05
4.75696e-05
6.49793e-05
4.75201e-05
6.49626e-05
6.08986e-05
6.87106e-05
7.36243e-05
7.36029e-05
6.87243e-05
6.87127e-05
7.36276e-05
7.36061e-05
6.87261e-05
7.13233e-05
7.13465e-05
7.13261e-05
7.13493e-05
5.4035e-05
7.00834e-05
7.00947e-05
7.00716e-05
7.00832e-05
7.13703e-05
7.13475e-05
7.13731e-05
7.13503e-05
7.13709e-05
7.13932e-05
7.13734e-05
7.13957e-05
7.00896e-05
7.00993e-05
5.41174e-05
7.01006e-05
7.01103e-05
7.1416e-05
7.13941e-05
7.14185e-05
7.13966e-05
5.41536e-05
7.01161e-05
7.01257e-05
7.01058e-05
7.01155e-05
6.87439e-05
7.36294e-05
6.87315e-05
7.36503e-05
6.09249e-05
6.49775e-05
4.76173e-05
5.21557e-05
6.09042e-05
6.49927e-05
4.76637e-05
6.09264e-05
6.49817e-05
4.76187e-05
5.21568e-05
6.09057e-05
6.49968e-05
4.76651e-05
6.87448e-05
7.36682e-05
7.36479e-05
6.87562e-05
6.87467e-05
7.36729e-05
7.36527e-05
6.8758e-05
6.09307e-05
5.21937e-05
6.50098e-05
4.77559e-05
6.4996e-05
4.77127e-05
6.09496e-05
6.09322e-05
5.21947e-05
6.5014e-05
4.77572e-05
6.50002e-05
4.7714e-05
6.09511e-05
7.00996e-05
7.00877e-05
5.41187e-05
7.01095e-05
7.00967e-05
7.13693e-05
7.13918e-05
7.1418e-05
7.13961e-05
5.41551e-05
7.0125e-05
7.01122e-05
7.01158e-05
7.01038e-05
7.14146e-05
7.13925e-05
6.09279e-05
6.49814e-05
4.76189e-05
5.21557e-05
6.09046e-05
6.49968e-05
4.76654e-05
6.87446e-05
7.36257e-05
6.87299e-05
7.36447e-05
6.09262e-05
4.76189e-05
6.49759e-05
5.2155e-05
6.0902e-05
4.76652e-05
6.49908e-05
6.87474e-05
7.3673e-05
7.36542e-05
6.87609e-05
6.09305e-05
5.21938e-05
6.50138e-05
4.77576e-05
6.49999e-05
4.77142e-05
6.09527e-05
6.87452e-05
7.36674e-05
7.3649e-05
6.87587e-05
6.09288e-05
5.2193e-05
4.77574e-05
6.50079e-05
4.77142e-05
6.49944e-05
6.09508e-05
6.87452e-05
7.36287e-05
6.8731e-05
7.36496e-05
6.0926e-05
4.762e-05
6.49774e-05
5.21575e-05
6.09051e-05
4.76664e-05
6.49927e-05
6.87427e-05
7.36258e-05
6.87302e-05
7.36467e-05
6.09317e-05
5.21964e-05
6.50108e-05
4.77585e-05
6.4997e-05
4.77153e-05
6.09532e-05
6.87463e-05
7.36722e-05
7.3652e-05
6.87593e-05
6.09316e-05
5.21956e-05
4.77585e-05
6.50098e-05
4.77154e-05
6.49959e-05
6.09506e-05
6.87455e-05
7.36694e-05
7.36491e-05
6.87568e-05
7.00934e-05
7.00905e-05
5.41175e-05
7.01025e-05
7.01004e-05
7.13719e-05
7.13941e-05
7.14166e-05
7.13946e-05
5.41539e-05
7.0118e-05
7.01158e-05
7.01096e-05
7.01067e-05
7.14169e-05
7.13951e-05
6.09258e-05
4.76213e-05
6.4983e-05
5.21578e-05
6.09052e-05
4.76676e-05
6.49981e-05
6.87399e-05
7.36269e-05
6.87276e-05
7.36477e-05
6.87414e-05
7.36301e-05
6.87293e-05
7.3651e-05
6.09309e-05
5.21964e-05
4.77593e-05
6.50116e-05
4.77161e-05
6.49981e-05
6.09498e-05
6.09317e-05
5.21958e-05
4.77597e-05
6.50152e-05
4.77166e-05
6.50016e-05
6.09504e-05
6.87427e-05
7.36703e-05
7.36501e-05
6.87538e-05
6.87442e-05
7.36736e-05
7.36533e-05
6.8755e-05
7.13712e-05
7.13935e-05
7.13741e-05
7.13964e-05
5.41554e-05
7.01147e-05
7.01264e-05
7.01056e-05
7.01172e-05
7.14163e-05
7.13944e-05
7.14192e-05
7.13973e-05
7.14168e-05
7.14383e-05
7.14193e-05
7.14408e-05
7.01209e-05
7.01306e-05
5.42247e-05
7.01303e-05
7.014e-05
7.14601e-05
7.1439e-05
7.14626e-05
7.14415e-05
5.42574e-05
7.01432e-05
7.01532e-05
7.01348e-05
7.01445e-05
6.87704e-05
7.36752e-05
6.87605e-05
7.36949e-05
6.09712e-05
6.50128e-05
4.78022e-05
5.22917e-05
6.09548e-05
6.50251e-05
4.78423e-05
6.09727e-05
6.5017e-05
4.78036e-05
5.22928e-05
6.09562e-05
6.50293e-05
4.78436e-05
6.87707e-05
7.37114e-05
7.36923e-05
6.87796e-05
6.87725e-05
7.37161e-05
7.3697e-05
6.87813e-05
6.09755e-05
5.23253e-05
6.50387e-05
4.79231e-05
6.50279e-05
4.78861e-05
6.09903e-05
6.0977e-05
5.23263e-05
6.5043e-05
4.79244e-05
6.50321e-05
4.78874e-05
6.09918e-05
7.01309e-05
7.01189e-05
5.42259e-05