/*--------------------------------*- C++ -*----------------------------------*\
| =========                 |                                                 |
| \\      /  F ield         | OpenFOAM: The Open Source CFD Toolbox           |
|  \\    /   O peration     | Version:  v1906                                 |
|   \\  /    A nd           | Web:      www.OpenFOAM.com                      |
|    \\/     M anipulation  |                                                 |
\*---------------------------------------------------------------------------*/
FoamFile
{
    version     2.0;
    format      ascii;
    class       surfaceScalarField;
    location    "500";
    object      phi;
}
// * * * * * * * * * * * * * * * * * * * * * * * * * * * * * * * * * * * * * //

dimensions      [0 3 -1 0 0 0 0];
oriented        oriented;


internalField   nonuniform List<scalar> 
124908
(
1.24096e-07
1.24458e-07
-0.00118365
-7.70774e-08
-7.70697e-08
0.00118356
-0.00113214
-1.19628e-06
-1.24469e-07
-5.05713e-08
0.00113212
-2.33918e-07
1.24098e-06
2.7186e-07
9.11146e-07
-2.12211e-07
-8.52348e-07
2.6625e-07
-0.00113178
-1.19082e-06
-1.24497e-07
-5.06076e-08
0.00113176
-2.33923e-07
1.23551e-06
2.71889e-07
9.10973e-07
-2.14928e-07
-8.5222e-07
2.68955e-07
-0.000270098
1.2249e-06
1.19094e-06
-1.97975e-07
-2.03282e-07
0.000268084
1.2569e-07
1.26037e-07
-0.00118328
-7.93387e-08
-7.93686e-08
0.00118319
-0.00113206
-1.19608e-06
-1.26063e-07
-5.1253e-08
0.00113204
-2.33829e-07
1.2408e-06
2.71684e-07
9.11014e-07
-2.12143e-07
-8.52208e-07
2.66073e-07
-0.0011317
-1.19061e-06
-1.2606e-07
-5.12453e-08
0.00113168
-2.3383e-07
1.23534e-06
2.71719e-07
9.10846e-07
-2.1486e-07
-8.52116e-07
2.6878e-07
-0.000270109
1.2247e-06
1.19073e-06
-1.97927e-07
-2.0324e-07
0.000268095
1.26767e-07
1.27083e-07
-0.00118291
-8.11311e-08
-8.11819e-08
0.00118282
-0.00113199
-1.19597e-06
-1.27128e-07
-5.17356e-08
0.00113198
-2.33816e-07
1.24061e-06
2.71482e-07
9.10841e-07
-2.12183e-07
-8.5219e-07
2.65838e-07
-0.00113163
-1.19051e-06
-1.27136e-07
-5.17339e-08
0.00113161
-2.33824e-07
1.23513e-06
2.71506e-07
9.10674e-07
-2.14897e-07
-8.5207e-07
2.68547e-07
-0.000270121
1.22459e-06
1.19062e-06
-1.97942e-07
-2.03258e-07
0.000268107
1.27333e-07
1.27661e-07
-0.00118254
-8.24718e-08
-8.25442e-08
0.00118245
-0.00113193
-1.19594e-06
-1.27705e-07
-5.2018e-08
0.00113192
-2.3387e-07
1.24039e-06
2.71253e-07
9.10612e-07
-2.1232e-07
-8.52286e-07
2.6555e-07
-0.00113157
-1.19049e-06
-1.27694e-07
-5.19916e-08
0.00113156
-2.3388e-07
1.23492e-06
2.71276e-07
9.10446e-07
-2.15033e-07
-8.52172e-07
2.6826e-07
-0.000270136
1.22458e-06
1.19061e-06
-1.98027e-07
-2.03341e-07
0.000268122
1.27421e-07
1.27766e-07
-0.00118219
-8.34023e-08
-8.34714e-08
0.0011821
-0.00113188
-1.19601e-06
-1.2779e-07
-5.21021e-08
0.00113187
-2.3399e-07
1.24014e-06
2.71e-07
9.10324e-07
-2.12556e-07
-8.52498e-07
2.6521e-07
-0.00113152
-1.19056e-06
-1.27781e-07
-5.20582e-08
0.00113151
-2.34006e-07
1.23466e-06
2.71016e-07
9.10158e-07
-2.15271e-07
-8.52384e-07
2.6792e-07
-0.000270152
1.22464e-06
1.19067e-06
-1.98176e-07
-2.03484e-07
0.000268139
1.27048e-07
1.27422e-07
-0.00118184
-8.39405e-08
-8.39814e-08
0.00118175
-0.00113184
-1.19615e-06
-1.27409e-07
-5.19891e-08
0.00113183
-2.34177e-07
1.23987e-06
2.70721e-07
9.09985e-07
-2.12885e-07
-8.52813e-07
2.64817e-07
-0.00113147
-1.19071e-06
-1.27412e-07
-5.19453e-08
0.00113146
-2.34198e-07
1.23438e-06
2.70733e-07
9.09825e-07
-2.15595e-07
-8.52698e-07
2.67531e-07
-0.00027017
1.22479e-06
1.19083e-06
-1.98389e-07
-2.0369e-07
0.000268157
1.26284e-07
1.26688e-07
-0.00118149
-8.41287e-08
-8.41271e-08
0.00118141
-0.0011318
-1.19638e-06
-1.26623e-07
-5.17154e-08
0.00113179
-2.34427e-07
1.23957e-06
2.70418e-07
9.09602e-07
-2.13298e-07
-8.53228e-07
2.64382e-07
-0.00113143
-1.19093e-06
-1.26656e-07
-5.16751e-08
0.00113143
-2.3445e-07
1.23408e-06
2.70426e-07
9.0945e-07
-2.16e-07
-8.53108e-07
2.67104e-07
-0.000270189
1.22501e-06
1.19106e-06
-1.98651e-07
-2.0395e-07
0.000268176
1.25148e-07
1.25552e-07
-0.00118116
-8.39564e-08
-8.39352e-08
0.00118108
-0.00113177
-1.19667e-06
-1.2545e-07
-5.12909e-08
0.00113176
-2.34735e-07
1.23925e-06
2.70086e-07
9.09171e-07
-2.13789e-07
-8.53734e-07
2.63901e-07
-0.0011314
-1.19123e-06
-1.25518e-07
-5.12386e-08
0.0011314
-2.34763e-07
1.23376e-06
2.7009e-07
9.0902e-07
-2.16483e-07
-8.53604e-07
2.66633e-07
-0.00027021
1.22532e-06
1.19136e-06
-1.98971e-07
-2.04275e-07
0.000268196
1.23683e-07
1.24058e-07
-0.00118083
-8.34537e-08
-8.34497e-08
0.00118075
-0.00113174
-1.19704e-06
-1.2394e-07
-5.07279e-08
0.00113173
-2.35095e-07
1.23891e-06
2.69731e-07
9.08695e-07
-2.14346e-07
-8.54318e-07
2.6338e-07
-0.00113138
-1.19159e-06
-1.24041e-07
-5.0644e-08
0.00113137
-2.35131e-07
1.2334e-06
2.69731e-07
9.08556e-07
-2.17033e-07
-8.54179e-07
2.66119e-07
-0.000270231
1.2257e-06
1.19173e-06
-1.99333e-07
-2.04647e-07
0.000268218
1.21927e-07
1.22256e-07
-0.00118051
-8.26677e-08
-8.27036e-08
0.00118043
-0.00113172
-1.19746e-06
-1.22141e-07
-5.00336e-08
0.00113172
-2.35501e-07
1.23854e-06
2.6935e-07
9.08167e-07
-2.14958e-07
-8.54968e-07
2.6282e-07
-0.00113136
-1.19203e-06
-1.22258e-07
-4.99107e-08
0.00113135
-2.35544e-07
1.23303e-06
2.69338e-07
9.08037e-07
-2.17639e-07
-8.5483e-07
2.65564e-07
-0.000270253
1.22613e-06
1.19216e-06
-1.99739e-07
-2.05062e-07
0.00026824
1.19914e-07
1.20207e-07
-0.0011802
-8.16449e-08
-8.17141e-08
0.00118012
-0.0011317
-1.19793e-06
-1.20103e-07
-4.92265e-08
0.0011317
-2.35949e-07
1.23814e-06
2.68945e-07
9.07613e-07
-2.15611e-07
-8.55674e-07
2.62213e-07
-0.00113134
-1.19251e-06
-1.20223e-07
-4.90623e-08
0.00113134
-2.35998e-07
1.23262e-06
2.68926e-07
9.07482e-07
-2.1829e-07
-8.55533e-07
2.64959e-07
-0.000270276
1.22662e-06
1.19263e-06
-2.00178e-07
-2.05506e-07
0.000268263
1.17693e-07
1.17973e-07
-0.0011799
-8.04297e-08
-8.05181e-08
0.00117982
-0.00113169
-1.19846e-06
-1.17875e-07
-4.83179e-08
0.00113169
-2.36424e-07
1.23771e-06
2.68507e-07
9.06988e-07
-2.16286e-07
-8.56425e-07
2.61544e-07
-0.00113133
-1.19305e-06
-1.1799e-07
-4.81328e-08
0.00113133
-2.3648e-07
1.23219e-06
2.68483e-07
9.06862e-07
-2.18967e-07
-8.5627e-07
2.64291e-07
-0.0002703
1.22715e-06
1.19316e-06
-2.00653e-07
-2.05984e-07
0.000268286
1.1537e-07
1.15651e-07
-0.0011796
-7.91077e-08
-7.92106e-08
0.00117953
-0.00113168
-1.19902e-06
-1.15547e-07
-4.73751e-08
0.00113168
-2.3693e-07
1.23724e-06
2.68009e-07
9.06283e-07
-2.16947e-07
-8.57144e-07
2.60783e-07
-0.00113132
-1.19361e-06
-1.15659e-07
-4.71816e-08
0.00113132
-2.3695e-07
1.23173e-06
2.67992e-07
9.06146e-07
-2.19627e-07
-8.57007e-07
2.63531e-07
-0.000270323
1.22771e-06
1.19371e-06
-2.01134e-07
-2.06464e-07
0.00026831
1.13043e-07
1.13345e-07
-0.00117932
-7.77754e-08
-7.786e-08
0.00117925
-0.00113168
-1.19958e-06
-1.13244e-07
-4.64071e-08
0.00113168
-2.37415e-07
1.23673e-06
2.67459e-07
9.05411e-07
-2.1751e-07
-8.57811e-07
2.59867e-07
-0.00113132
-1.19417e-06
-1.13336e-07
-4.62008e-08
0.00113132
-2.37437e-07
1.23121e-06
2.67442e-07
9.05279e-07
-2.20195e-07
-8.57676e-07
2.62611e-07
-0.000270348
1.22827e-06
1.19428e-06
-2.01598e-07
-2.06927e-07
0.000268334
1.10946e-07
1.11266e-07
-0.00117905
-7.65934e-08
-7.66635e-08
0.00117898
-0.00113168
-1.20011e-06
-1.11149e-07
-4.54299e-08
0.00113169
-2.37834e-07
1.2361e-06
2.66797e-07
9.04295e-07
-2.17812e-07
-8.5827e-07
2.58652e-07
-0.00113132
-1.19471e-06
-1.1125e-07
-4.52491e-08
0.00113132
-2.37854e-07
1.23059e-06
2.66778e-07
9.04157e-07
-2.20497e-07
-8.58129e-07
2.61391e-07
-0.000270372
1.22879e-06
1.19481e-06
-2.01983e-07
-2.07309e-07
0.000268358
1.09441e-07
1.09762e-07
-0.00117878
-7.58992e-08
-7.59347e-08
0.00117872
-0.00113168
-1.2005e-06
-1.09654e-07
-4.44723e-08
0.00113169
-2.38064e-07
1.23526e-06
2.65884e-07
9.02651e-07
-2.17478e-07
-8.58249e-07
2.56756e-07
-0.00113132
-1.19509e-06
-1.09767e-07
-4.43099e-08
0.00113133
-2.3809e-07
1.22975e-06
2.65836e-07
9.02516e-07
-2.20161e-07
-8.5811e-07
2.59488e-07
-0.000270397
1.22917e-06
1.19519e-06
-2.02136e-07
-2.0746e-07
0.000268382
1.09142e-07
1.09492e-07
-0.00117853
-7.63601e-08
-7.63632e-08
0.00117847
-0.00113169
-1.20043e-06
-1.09396e-07
-4.33338e-08
0.0011317
-2.37733e-07
1.23381e-06
2.64214e-07
8.99859e-07
-2.15501e-07
-8.57175e-07
2.53103e-07
-0.00113133
-1.19502e-06
-1.09519e-07
-4.32013e-08
0.00113134
-2.37757e-07
1.22831e-06
2.64176e-07
8.99715e-07
-2.18179e-07
-8.57033e-07
2.5583e-07
-0.000270422
1.22909e-06
1.19511e-06
-2.01611e-07
-2.06932e-07
0.000268406
1.11229e-07
1.11633e-07
-0.00117829
-7.96429e-08
-7.9593e-08
0.00117823
-0.0011317
-1.19879e-06
-1.11537e-07
-4.07887e-08
0.00113172
-2.35382e-07
1.23034e-06
2.5995e-07
8.9413e-07
-2.08947e-07
-8.53547e-07
2.44383e-07
-0.00113134
-1.19337e-06
-1.117e-07
-4.07342e-08
0.00113136
-2.35419e-07
1.22485e-06
2.59968e-07
8.93976e-07
-2.1163e-07
-8.53337e-07
2.47109e-07
-0.000270448
1.22743e-06
1.19345e-06
-1.98816e-07
-2.0414e-07
0.00026843
1.34662e-07
1.35377e-07
-0.00117806
-9.6298e-08
-1.01955e-07
0.00117799
-0.00113171
-1.19153e-06
-1.29566e-07
-4.49755e-08
0.00113175
-2.25137e-07
1.22275e-06
2.51433e-07
8.84457e-07
-1.91592e-07
-8.44592e-07
2.23048e-07
-0.00113136
-1.18338e-06
-1.35451e-07
-3.96748e-08
0.0011314
-2.2509e-07
1.21456e-06
2.48663e-07
8.81699e-07
-1.91571e-07
-8.41718e-07
2.25881e-07
-0.000270482
1.22285e-06
1.18614e-06
-1.85227e-07
-1.9056e-07
0.000268449
1.0528e-06
1.06038e-06
-0.00117774
-9.08724e-07
-8.97507e-07
0.00117743
-0.00113201
-1.08756e-06
-1.05442e-06
-4.4097e-07
0.0011325
-1.18854e-07
1.37614e-06
3.14402e-07
1.00651e-06
-5.27598e-08
-7.21221e-07
2.9233e-07
-0.00113166
-1.07926e-06
-1.06576e-06
-4.52382e-07
0.00113217
-1.1868e-07
1.37078e-06
3.17336e-07
1.0036e-06
-5.89661e-08
-7.18276e-07
2.95209e-07
-0.0002706
1.12143e-06
1.07937e-06
-7.93856e-08
-8.1903e-08
0.000268561
5.51318e-06
5.50609e-06
-0.00116442
-1.16871e-05
-1.158e-05
0.000283407
0.000285663
0.000285389
0.000285389
4.52795e-06
6.71967e-06
7.16002e-06
4.53192e-06
6.72057e-06
7.16363e-06
-0.000280655
5.41709e-06
-5.50313e-06
5.96543e-06
-3.38959e-06
0.000278165
-0.00028063
-5.50572e-06
5.4225e-06
-3.39798e-06
5.96257e-06
0.000278149
-0.000271535
-5.4139e-06
-5.42544e-06
5.74688e-06
5.73497e-06
0.000270893
-1.27496e-06
-1.23837e-06
0.000270115
-0.000268088
2.38916e-07
2.46791e-07
0.00113131
-1.23564e-07
-0.00113133
-5.028e-08
-1.23035e-06
2.77279e-07
-2.39479e-07
-8.52426e-07
2.66206e-07
-2.12282e-07
9.11093e-07
1.28045e-06
0.00113175
-1.2351e-07
-0.00113177
-5.02988e-08
-1.23583e-06
2.80128e-07
-2.42313e-07
-8.5794e-07
2.68967e-07
-2.15122e-07
9.16612e-07
-1.24102e-06
0.000270144
-0.000268109
2.41687e-07
2.4405e-07
0.00113241
-1.23943e-07
-0.00113243
-5.03317e-08
-1.1937e-06
2.74787e-07
-2.3683e-07
-8.55106e-07
2.69054e-07
-2.15051e-07
9.13917e-07
1.275e-06
0.00113141
-1.23558e-07
-0.00113143
-5.02722e-08
-1.2304e-06
2.80106e-07
-2.42324e-07
-8.55097e-07
2.68922e-07
-2.1503e-07
9.13752e-07
-1.23947e-07
-0.00113216
-5.03309e-08
-1.19635e-06
2.71898e-07
-2.3395e-07
-8.52387e-07
2.6628e-07
9.1116e-07
-2.12249e-07
1.26953e-06
0.0011312
-1.23651e-07
-0.00113122
-5.02849e-08
-1.22495e-06
2.745e-07
-2.36678e-07
-8.52426e-07
2.66198e-07
-2.12258e-07
9.11106e-07
-1.23555e-06
0.000270093
-0.000268068
2.39041e-07
2.4661e-07
-1.23969e-07
-0.0011318
-5.03658e-08
-1.19088e-06
2.71928e-07
-2.33946e-07
-8.52229e-07
2.68962e-07
9.11065e-07
-2.14978e-07
1.23568e-06
0.00113231
-1.24002e-07
-0.00113233
-5.03848e-08
-1.191e-06
2.72045e-07
-2.34041e-07
-8.52469e-07
2.69029e-07
-2.15018e-07
9.11289e-07
-0.000268081
2.41498e-07
2.46789e-07
1.23028e-06
1.19364e-06
-1.95411e-07
-2.03242e-07
0.00026809
-1.27478e-06
-1.23819e-06
0.000270126
-0.000268098
2.38613e-07
2.46486e-07
-5.0507e-08
0.00113128
-2.39452e-07
1.27492e-06
2.77244e-07
9.11069e-07
-2.12254e-07
-8.52385e-07
2.66174e-07
-1.23576e-06
-1.24037e-07
-5.0518e-08
0.00113173
-2.42284e-07
1.28042e-06
2.80089e-07
9.16584e-07
-2.15079e-07
-8.57905e-07
2.68928e-07
0.00113123
-1.25267e-07
-0.00113125
-5.0977e-08
-1.23012e-06
2.77106e-07
-2.39377e-07
-8.52266e-07
2.66045e-07
-2.12191e-07
9.10973e-07
1.28028e-06
0.00113167
-1.25211e-07
-0.00113169
-5.10011e-08
-1.2356e-06
2.79953e-07
-2.42214e-07
-8.5779e-07
2.68797e-07
-2.15019e-07
9.16494e-07
-1.98122e-07
-2.00542e-07
0.000268111
-1.24084e-06
0.000270155
-0.000268119
2.41392e-07
2.43753e-07
-5.05981e-08
0.00113239
-2.36804e-07
1.23832e-06
2.74752e-07
9.13886e-07
-2.15011e-07
-8.55051e-07
2.69017e-07
-1.23033e-06
-1.24088e-07
-5.04844e-08
0.00113139
-2.42303e-07
1.27496e-06
2.80066e-07
9.13723e-07
-2.14993e-07
-8.55051e-07
2.68889e-07
0.00113233
-1.25625e-07
-0.00113235
-5.10547e-08
-1.19347e-06
2.74618e-07
-2.36724e-07
-8.54947e-07
2.6888e-07
-2.14958e-07
9.13799e-07
1.27482e-06
0.00113133
-1.2526e-07
-0.00113135
-5.0965e-08
-1.23018e-06
2.79932e-07
-2.42231e-07
-8.54939e-07
2.68756e-07
-2.14935e-07
9.13635e-07
-1.24179e-07
-5.04992e-08
0.00113118
-2.36653e-07
1.2695e-06
2.7446e-07
9.11087e-07
-2.1222e-07
2.66184e-07
-8.52383e-07
-1.25643e-07
-0.00113208
-5.10551e-08
-1.19612e-06
2.71725e-07
-2.33846e-07
-8.52227e-07
2.6611e-07
9.11045e-07
-2.12166e-07
1.26936e-06
0.00113113
-1.25361e-07
-0.00113114
-5.0968e-08
-1.22474e-06
2.74322e-07
-2.36584e-07
-8.52271e-07
2.66037e-07
-2.1217e-07
9.10993e-07
-1.95485e-07
-2.03127e-07
0.000268071
-1.23538e-06
0.000270104
-0.000268078
2.38742e-07
2.46311e-07
-1.24533e-07
-5.06035e-08
0.00113229
-2.34013e-07
1.23564e-06
2.72009e-07
9.11261e-07
-2.14985e-07
2.69e-07
-8.52422e-07
-1.25648e-07
-0.00113172
-5.10494e-08
-1.19066e-06
2.71757e-07
-2.3385e-07
-8.5207e-07
2.68793e-07
9.10933e-07
-2.14886e-07
1.2355e-06
0.00113223
-1.25683e-07
-0.00113225
-5.11004e-08
-1.19077e-06
2.71873e-07
-2.33941e-07
-8.52315e-07
2.68859e-07
-2.14922e-07
9.11162e-07
-0.000268092
2.41199e-07
2.46485e-07
1.23008e-06
1.19343e-06
-1.95362e-07
-2.03195e-07
0.000268101
-1.27458e-06
-1.23799e-06
0.000270138
-0.00026811
2.38294e-07
2.4617e-07
-5.11647e-08
0.00113121
-2.39363e-07
1.27474e-06
2.77066e-07
9.10937e-07
-2.12183e-07
-8.52247e-07
2.6599e-07
-1.23556e-06
-1.25637e-07
-5.11723e-08
0.00113166
-2.42197e-07
1.28024e-06
2.79912e-07
9.16464e-07
-2.15015e-07
-8.5777e-07
2.68754e-07
0.00113116
-1.2644e-07
-0.00113117
-5.14777e-08
-1.22999e-06
2.76908e-07
-2.39346e-07
-8.52225e-07
2.65821e-07
-2.12203e-07
9.10806e-07
1.28008e-06
0.0011316
-1.26377e-07
-0.00113162
-5.15046e-08
-1.23547e-06
2.7975e-07
-2.42188e-07
-8.57741e-07
2.68577e-07
-2.1503e-07
9.16327e-07
-1.9807e-07
-2.00494e-07
0.000268122
-1.24065e-06
0.000270168
-0.000268131
2.41077e-07
2.43434e-07
-5.12867e-08
0.00113232
-2.3671e-07
1.23815e-06
2.74578e-07
9.13763e-07
-2.14952e-07
-8.5492e-07
2.68838e-07
-1.23014e-06
-1.25689e-07
-5.11391e-08
0.00113131
-2.42218e-07
1.27478e-06
2.79892e-07
9.13604e-07
-2.14924e-07
-8.54917e-07
2.68713e-07
0.00113227
-1.26782e-07
-0.00113228
-5.15767e-08
-1.19334e-06
2.74417e-07
-2.36698e-07
-8.54898e-07
2.68658e-07
-2.14974e-07
9.13654e-07
1.27462e-06
0.00113126
-1.26421e-07
-0.00113128
-5.14651e-08
-1.23005e-06
2.79733e-07
-2.42203e-07
-8.54892e-07
2.68532e-07
-2.14947e-07
9.13471e-07
-1.25783e-07
-5.11375e-08
0.00113111
-2.36569e-07
1.26931e-06
2.74281e-07
9.10969e-07
-2.12155e-07
2.66003e-07
-8.52255e-07
-1.26808e-07
-0.00113201
-5.15783e-08
-1.19598e-06
2.71526e-07
-2.33815e-07
-8.52184e-07
2.65889e-07
9.10878e-07
-2.12168e-07
1.26915e-06
0.00113106
-1.26532e-07
-0.00113107
-5.14514e-08
-1.22461e-06
2.74115e-07
-2.3656e-07
-8.52224e-07
2.65821e-07
-2.12173e-07
9.10826e-07
-1.95436e-07
-2.03079e-07
0.000268081
-1.23518e-06
0.000270116
-0.000268091
2.38425e-07
2.45988e-07
-1.26101e-07
-5.12808e-08
0.00113221
-2.33924e-07
1.23546e-06
2.71835e-07
9.11133e-07
-2.1492e-07
2.68817e-07
-8.52295e-07
-1.26816e-07
-0.00113165
-5.15766e-08
-1.19052e-06
2.71552e-07
-2.33819e-07
-8.52012e-07
2.6857e-07
9.1078e-07
-2.14898e-07
1.23531e-06
0.00113216
-1.26822e-07
-0.00113218
-5.16317e-08
-1.19064e-06
2.71676e-07
-2.33908e-07
-8.52264e-07
2.68634e-07
-2.14935e-07
9.11002e-07
-0.000268104
2.40884e-07
2.46167e-07
1.22998e-06
1.19332e-06
-1.95384e-07
-2.03215e-07
0.000268114
-1.27437e-06
-1.23778e-06
0.000270153
-0.000268125
2.37954e-07
2.45835e-07
-5.16353e-08
0.00113114
-2.39353e-07
1.27454e-06
2.76862e-07
9.10759e-07
-2.12216e-07
-8.52232e-07
2.65762e-07
-1.23545e-06
-1.26707e-07
-5.16424e-08
0.00113159
-2.42189e-07
1.28004e-06
2.79704e-07
9.16287e-07
-2.15048e-07
-8.57749e-07
2.68525e-07
0.0011311
-1.27093e-07
-0.00113111
-5.17841e-08
-1.22995e-06
2.76681e-07
-2.39388e-07
-8.52296e-07
2.65538e-07
-2.1232e-07
9.10585e-07
1.27986e-06
0.00113154
-1.2704e-07
-0.00113156
-5.17923e-08
-1.23544e-06
2.79516e-07
-2.42234e-07
-8.57814e-07
2.68309e-07
-2.15133e-07
9.16109e-07
-1.98087e-07
-2.00515e-07
0.000268135
-1.24044e-06
0.000270182
-0.000268146
2.4074e-07
2.43091e-07
-5.17679e-08
0.00113225
-2.367e-07
1.23795e-06
2.74376e-07
9.13591e-07
-2.14985e-07
-8.54928e-07
2.68607e-07
-1.23003e-06
-1.26745e-07
-5.15996e-08
0.00113124
-2.42204e-07
1.27458e-06
2.79691e-07
9.13424e-07
-2.14961e-07
-8.54901e-07
2.68478e-07
0.00113221
-1.27434e-07
-0.00113222
-5.18782e-08
-1.1933e-06
2.74189e-07
-2.36738e-07
-8.54976e-07
2.68389e-07
-2.15075e-07
9.1341e-07
1.2744e-06
0.0011312
-1.27074e-07
-0.00113121
-5.17603e-08
-1.23001e-06
2.79502e-07
-2.42246e-07
-8.5496e-07
2.68256e-07
-2.15058e-07
9.13247e-07
-1.26849e-07
-5.15836e-08
0.00113104
-2.36563e-07
1.26911e-06
2.7407e-07
9.10784e-07
-2.12187e-07
2.65774e-07
-8.52236e-07
-1.27472e-07
-0.00113195
-5.18919e-08
-1.19594e-06
2.713e-07
-2.33853e-07
-8.52254e-07
2.65612e-07
9.1066e-07
-2.12282e-07
1.26894e-06
0.001131
-1.27192e-07
-0.00113101
-5.17356e-08
-1.22457e-06
2.73889e-07
-2.366e-07
-8.5229e-07
2.65549e-07
-2.12285e-07
9.1061e-07
-1.95455e-07
-2.03104e-07
0.000268094
-1.23496e-06
0.000270131
-0.000268105
2.38085e-07
2.45647e-07
-1.27152e-07
-5.17651e-08
0.00113215
-2.33911e-07
1.23527e-06
2.7163e-07
9.10954e-07
-2.14949e-07
2.68589e-07
-8.52276e-07
-1.27457e-07
-0.00113158
-5.18693e-08
-1.19049e-06
2.71324e-07
-2.33862e-07
-8.52094e-07
2.683e-07
9.10552e-07
-2.15008e-07
1.23509e-06
0.0011321
-1.27468e-07
-0.00113212
-5.19224e-08
-1.1906e-06
2.71442e-07
-2.33952e-07
-8.52332e-07
2.68361e-07
-2.15046e-07
9.10779e-07
-0.000268118
2.40542e-07
2.45827e-07
1.22996e-06
1.19331e-06
-1.95467e-07
-2.03293e-07
0.000268128
-1.27412e-06
-1.23752e-06
0.000270169
-0.000268141
2.37572e-07
2.45464e-07
-5.19075e-08
0.00113108
-2.39405e-07
1.27432e-06
2.76634e-07
9.10526e-07
-2.12359e-07
-8.52334e-07
2.65471e-07
-1.23544e-06
-1.27287e-07
-5.1888e-08
0.00113153
-2.42253e-07
1.27982e-06
2.79467e-07
9.16056e-07
-2.15177e-07
-8.57852e-07
2.68246e-07
0.00113105
-1.2726e-07
-0.00113106
-5.18946e-08
-1.22999e-06
2.76432e-07
-2.39487e-07
-8.52477e-07
2.65206e-07
-2.12532e-07
9.10307e-07
1.27961e-06
0.00113149
-1.27235e-07
-0.0011315
-5.18794e-08
-1.23548e-06
2.79255e-07
-2.42346e-07
-8.57984e-07
2.67982e-07
-2.15344e-07
9.15845e-07
-1.98166e-07
-2.00602e-07
0.00026815
-1.24019e-06
0.000270199
-0.000268162
2.4037e-07
2.4271e-07
-5.20285e-08
0.00113219
-2.36759e-07
1.23773e-06
2.74139e-07
9.13358e-07
-2.1512e-07
-8.5501e-07
2.68324e-07
-1.23002e-06
-1.27314e-07
-5.18599e-08
0.00113119
-2.42268e-07
1.27435e-06
2.79452e-07
9.13225e-07
-2.15098e-07
-8.54996e-07
2.68197e-07
0.00113215
-1.27614e-07
-0.00113217
-5.196e-08
-1.19334e-06
2.73928e-07
-2.36849e-07
-8.55151e-07
2.68063e-07
-2.15285e-07
9.13141e-07
1.27415e-06
0.00113115
-1.27235e-07
-0.00113116
-5.18434e-08
-1.23005e-06
2.79248e-07
-2.42354e-07
-8.55144e-07
2.67931e-07
-2.15265e-07
9.12975e-07
-1.27425e-07
-5.18367e-08
0.00113098
-2.36618e-07
1.26889e-06
2.73839e-07
9.10558e-07
-2.12325e-07
2.65484e-07
-8.52329e-07
-1.27637e-07
-0.00113189
-5.20012e-08
-1.19598e-06
2.71052e-07
-2.33951e-07
-8.52438e-07
2.65283e-07
9.10384e-07
-2.12491e-07
1.26869e-06
0.00113094
-1.27361e-07
-0.00113096
-5.18372e-08
-1.22461e-06
2.73636e-07
-2.36702e-07
-8.52471e-07
2.65218e-07
-2.12496e-07
9.10334e-07
-1.95538e-07
-2.03189e-07
0.000268109
-1.23471e-06
0.000270147
-0.000268121
2.3771e-07
2.45271e-07
-1.27712e-07
-5.20208e-08
0.00113209
-2.33974e-07
1.23504e-06
2.71389e-07
9.10757e-07
-2.15087e-07
2.68301e-07
-8.52367e-07
-1.27627e-07
-0.00113153
-5.19551e-08
-1.19052e-06
2.7107e-07
-2.33966e-07
-8.52278e-07
2.67968e-07
9.10276e-07
-2.15225e-07
1.23484e-06
0.00113205
-1.27637e-07
-0.00113206
-5.20094e-08
-1.19064e-06
2.71184e-07
-2.34061e-07
-8.52514e-07
2.68036e-07
-2.15253e-07
9.10509e-07
-0.000268134
2.40163e-07
2.45455e-07
1.23002e-06
1.19338e-06
-1.95619e-07
-2.03436e-07
0.000268145
-1.27385e-06
-1.23724e-06
0.000270187
-0.000268158
2.37173e-07
2.45072e-07
-5.20002e-08
0.00113103
-2.39526e-07
1.27407e-06
2.7638e-07
9.10241e-07
-2.12595e-07
-8.52544e-07
2.65134e-07
-1.23552e-06
-1.27404e-07
-5.19462e-08
0.00113148
-2.42389e-07
1.27955e-06
2.79199e-07
9.1578e-07
-2.15404e-07
-8.5805e-07
2.67914e-07
0.001131
-1.26955e-07
-0.00113101
-5.18386e-08
-1.23012e-06
2.76158e-07
-2.39661e-07
-8.52764e-07
2.6483e-07
-2.12832e-07
9.09985e-07
1.27933e-06
0.00113145
-1.26966e-07
-0.00113146
-5.1752e-08
-1.23562e-06
2.78967e-07
-2.42536e-07
-8.58265e-07
2.67613e-07
-2.15636e-07
9.15527e-07
-1.98307e-07
-2.00755e-07
0.000268166
-1.23993e-06
0.000270216
-0.000268179
2.39982e-07
2.42307e-07
-5.20851e-08
0.00113214
-2.36893e-07
1.23747e-06
2.73872e-07
9.13077e-07
-2.15351e-07
-8.55216e-07
2.67991e-07
-1.23009e-06
-1.274e-07
-5.19156e-08
0.00113114
-2.42395e-07
1.2741e-06
2.79193e-07
9.12913e-07
-2.15328e-07
-8.55212e-07
2.6786e-07
0.00113211
-1.27337e-07
-0.00113212
-5.18513e-08
-1.19348e-06
2.73642e-07
-2.37035e-07
-8.55438e-07
2.67692e-07
-2.15583e-07
9.12821e-07
1.27387e-06
0.0011311
-1.26949e-07
-0.00113111
-5.17417e-08
-1.23019e-06
2.78966e-07
-2.42537e-07
-8.55429e-07
2.67556e-07
-2.15565e-07
9.12653e-07
-1.27512e-07
-5.1913e-08
0.00113093
-2.36742e-07
1.26863e-06
2.73583e-07
9.10273e-07
-2.1256e-07
2.65146e-07
-8.52538e-07
-1.27327e-07
-0.00113185
-5.19227e-08
-1.1961e-06
2.70779e-07
-2.34125e-07
-8.52725e-07
2.64903e-07
9.10055e-07
-2.12795e-07
1.26842e-06
0.0011309
-1.27048e-07
-0.00113091
-5.17593e-08
-1.22474e-06
2.73358e-07
-2.36879e-07
-8.5276e-07
2.64837e-07
-2.12802e-07
9.10008e-07
-1.95683e-07
-2.03337e-07
0.000268126
-1.23444e-06
0.000270165
-0.000268139
2.37315e-07
2.44873e-07
-1.27805e-07
-5.20725e-08
0.00113204
-2.34103e-07
1.23478e-06
2.71128e-07
9.10447e-07
-2.15317e-07
2.67966e-07
-8.52586e-07
-1.27325e-07
-0.00113148
-5.18735e-08
-1.19066e-06
2.70792e-07
-2.34145e-07
-8.52566e-07
2.6759e-07
9.09952e-07
-2.15527e-07
1.23456e-06
0.001132
-1.2735e-07
-0.00113201
-5.18876e-08
-1.19078e-06
2.70895e-07
-2.34248e-07
-8.52801e-07
2.67658e-07
-2.15557e-07
9.10183e-07
-0.000268152
2.39762e-07
2.45062e-07
1.23017e-06
1.19354e-06
-1.95829e-07
-2.03642e-07
0.000268163
-1.27356e-06
-1.23694e-06
0.000270206
-0.000268177
2.36752e-07
2.44654e-07
-5.19094e-08
0.00113099
-2.39715e-07
1.2738e-06
2.761e-07
9.09907e-07
-2.12919e-07
-8.52856e-07
2.64747e-07
-1.23568e-06
-1.27064e-07
-5.17827e-08
0.00113144
-2.42593e-07
1.27927e-06
2.78904e-07
9.15456e-07
-2.15721e-07
-8.58358e-07
2.67533e-07
0.00113096
-1.26208e-07
-0.00113097
-5.1588e-08
-1.23032e-06
2.75854e-07
-2.39896e-07
-8.53144e-07
2.64406e-07
-2.13215e-07
9.09611e-07
1.27902e-06
0.00113141
-1.26243e-07
-0.00113142
-5.14303e-08
-1.23584e-06
2.78648e-07
-2.42784e-07
-8.58652e-07
2.67192e-07
-2.16016e-07
9.15174e-07
-1.98508e-07
-2.00971e-07
0.000268184
-1.23963e-06
0.000270236
-0.000268198
2.39567e-07
2.41878e-07
-5.19415e-08
0.0011321
-2.37092e-07
1.23718e-06
2.73581e-07
9.12749e-07
-2.15673e-07
-8.55526e-07
2.67606e-07
-1.23024e-06
-1.27049e-07
-5.17841e-08
0.00113109
-2.42592e-07
1.27382e-06
2.78906e-07
9.12582e-07
-2.15651e-07
-8.55522e-07
2.67474e-07
0.00113207
-1.26621e-07
-0.00113208
-5.15647e-08
-1.19369e-06
2.73333e-07
-2.37273e-07
-8.55817e-07
2.6727e-07
-2.15966e-07
9.12454e-07
1.27357e-06
0.00113107
-1.26226e-07
-0.00113107
-5.14762e-08
-1.2304e-06
2.78658e-07
-2.42774e-07
-8.55807e-07
2.67134e-07
-2.15945e-07
9.12282e-07
-1.27128e-07
-5.18022e-08
0.00113089
-2.36933e-07
1.26836e-06
2.733e-07
9.09934e-07
-2.12889e-07
2.64753e-07
-8.52856e-07
-1.26559e-07
-0.00113181
-5.16563e-08
-1.1963e-06
2.70477e-07
-2.34355e-07
-8.53114e-07
2.64469e-07
9.09677e-07
-2.13186e-07
1.26812e-06
0.00113086
-1.26287e-07
-0.00113087
-5.14917e-08
-1.22494e-06
2.7305e-07
-2.37116e-07
-8.53146e-07
2.64409e-07
-2.13188e-07
9.09631e-07
-1.9589e-07
-2.03548e-07
0.000268143
-1.23414e-06
0.000270184
-0.000268158
2.36897e-07
2.44454e-07
-1.27449e-07
-5.19186e-08
0.00113199
-2.34305e-07
1.23449e-06
2.70834e-07
9.10112e-07
-2.15644e-07
2.67575e-07
-8.52898e-07
-1.26586e-07
-0.00113144
-5.16129e-08
-1.19086e-06
2.70486e-07
-2.34378e-07
-8.5295e-07
2.67167e-07
9.09584e-07
-2.15909e-07
1.23425e-06
0.00113197
-1.26619e-07
-0.00113198
-5.15895e-08
-1.19099e-06
2.7058e-07
-2.34493e-07
-8.53185e-07
2.67234e-07
-2.15941e-07
9.09811e-07
-0.000268171
2.39335e-07
2.44639e-07
1.23039e-06
1.19376e-06
-1.96092e-07
-2.03906e-07
0.000268182
-1.27323e-06
-1.23661e-06
0.000270227
-0.000268197
2.3631e-07
2.44209e-07
-5.16501e-08
0.00113096
-2.39968e-07
1.2735e-06
2.75793e-07
9.09532e-07
-2.13324e-07
-8.53262e-07
2.64319e-07
-1.23591e-06
-1.26319e-07
-5.14678e-08
0.0011314
-2.42858e-07
1.27896e-06
2.78587e-07
9.15095e-07
-2.16122e-07
-8.58785e-07
2.67109e-07
0.00113093
-1.25047e-07
-0.00113094
-5.11454e-08
-1.2306e-06
2.75517e-07
-2.40192e-07
-8.53617e-07
2.63935e-07
-2.13675e-07
9.0919e-07
1.27868e-06
0.00113138
-1.25091e-07
-0.00113139
-5.09418e-08
-1.23613e-06
2.78306e-07
-2.43088e-07
-8.59121e-07
2.66723e-07
-2.16476e-07
9.14735e-07
-1.98767e-07
-2.01243e-07
0.000268203
-1.23931e-06
0.000270256
-0.000268218
2.39125e-07
2.41427e-07
-5.1653e-08
0.00113206
-2.37347e-07
1.23688e-06
2.73273e-07
9.12376e-07
-2.1608e-07
-8.55934e-07
2.67181e-07
-1.23047e-06
-1.26308e-07
-5.15121e-08
0.00113106
-2.42846e-07
1.27352e-06
2.78598e-07
9.12209e-07
-2.16054e-07
-8.55925e-07
2.67048e-07
0.00113204
-1.25472e-07
-0.00113205
-5.11009e-08
-1.19397e-06
2.72999e-07
-2.37566e-07
-8.56291e-07
2.66802e-07
-2.16434e-07
9.12029e-07
1.27325e-06
0.00113103
-1.25076e-07
-0.00113104
-5.10166e-08
-1.23067e-06
2.78325e-07
-2.43068e-07
-8.56282e-07
2.66664e-07
-2.16406e-07
9.11848e-07
-1.2635e-07
-5.15228e-08
0.00113085
-2.3719e-07
1.26805e-06
2.72991e-07
9.09556e-07
-2.13298e-07
2.64323e-07
-8.53266e-07
-1.25366e-07
-0.00113177
-5.12129e-08
-1.19658e-06
2.70145e-07
-2.34646e-07
-8.53592e-07
2.63991e-07
9.09247e-07
-2.13654e-07
1.26779e-06
0.00113083
-1.25111e-07
-0.00113084
-5.10297e-08
-1.22522e-06
2.72711e-07
-2.37413e-07
-8.53618e-07
2.63938e-07
-2.13649e-07
9.09209e-07
-1.96151e-07
-2.03811e-07
0.000268163
-1.23381e-06
0.000270205
-0.000268178
2.36452e-07
2.44012e-07
-1.267e-07
-5.16149e-08
0.00113196
-2.34566e-07
1.23418e-06
2.70521e-07
9.09737e-07
-2.16051e-07
2.67148e-07
-8.53305e-07
-1.25428e-07
-0.00113141
-5.11682e-08
-1.19113e-06
2.7015e-07
-2.34672e-07
-8.53418e-07
2.66696e-07
9.09162e-07
-2.1637e-07
1.23392e-06
0.00113193
-1.25463e-07
-0.00113194
-5.11238e-08
-1.19127e-06
2.70244e-07
-2.34787e-07
-8.53658e-07
2.66761e-07
-2.16403e-07
9.0939e-07
-0.000268191
2.38893e-07
2.44195e-07
1.2307e-06
1.19406e-06
-1.96405e-07
-2.04225e-07
0.000268203
-1.27287e-06
-1.23625e-06
0.000270248
-0.000268219
2.35839e-07
2.43729e-07
-5.12096e-08
0.00113093
-2.40283e-07
1.27318e-06
2.75456e-07
9.09108e-07
-2.13806e-07
-8.5376e-07
2.63846e-07
-1.23623e-06
-1.25193e-07
-5.09831e-08
0.00113137
-2.4318e-07
1.27863e-06
2.78243e-07
9.14659e-07
-2.16608e-07
-8.59266e-07
2.66636e-07
0.00113091
-1.23496e-07
-0.00113091
-5.05004e-08
-1.23094e-06
2.75153e-07
-2.40543e-07
-8.54166e-07
2.6342e-07
-2.14203e-07
9.0872e-07
1.27832e-06
0.00113135
-1.23545e-07
-0.00113136
-5.02927e-08
-1.23647e-06
2.77941e-07
-2.43441e-07
-8.59671e-07
2.66207e-07
-2.17006e-07
9.14266e-07
-1.99082e-07
-2.01567e-07
0.000268224
-1.23895e-06
0.000270277
-0.00026824
2.38652e-07
2.40946e-07
-5.12014e-08
0.00113203
-2.37657e-07
1.23656e-06
2.7294e-07
9.11951e-07
-2.1657e-07
-8.56432e-07
2.66712e-07
-1.23077e-06
-1.25186e-07
-5.10749e-08
0.00113103
-2.4316e-07
1.27319e-06
2.78262e-07
9.11795e-07
-2.1654e-07
-8.56411e-07
2.66575e-07
0.00113201
-1.23906e-07
-0.00113202
-5.04819e-08
-1.1943e-06
2.72643e-07
-2.37908e-07
-8.56851e-07
2.66286e-07
-2.16974e-07
9.11566e-07
1.27289e-06
0.00113101
-1.23521e-07
-0.00113101
-5.03856e-08
-1.23102e-06
2.77962e-07
-2.43416e-07
-8.56833e-07
2.66144e-07
-2.16938e-07
9.11391e-07
-1.25198e-07
-5.10703e-08
0.00113082
-2.37505e-07
1.26774e-06
2.7265e-07
9.09131e-07
-2.1378e-07
2.6385e-07
-8.53764e-07
-1.23773e-07
-0.00113175
-5.06095e-08
-1.19691e-06
2.6979e-07
-2.34987e-07
-8.54151e-07
2.63467e-07
9.08769e-07
-2.14191e-07
1.26744e-06
0.0011308
-1.23545e-07
-0.00113081
-5.0375e-08
-1.22558e-06
2.72341e-07
-2.37767e-07
-8.54169e-07
2.6342e-07
-2.14178e-07
9.08736e-07
-1.96468e-07
-2.04128e-07
0.000268183
-1.23345e-06
0.000270226
-0.000268199
2.35977e-07
2.43541e-07
-1.25563e-07
-5.11652e-08
0.00113193
-2.34877e-07
1.23386e-06
2.70184e-07
9.09312e-07
-2.16536e-07
2.66673e-07
-8.53804e-07
-1.23868e-07
-0.00113138
-5.05344e-08
-1.19148e-06
2.69786e-07
-2.3502e-07
-8.53966e-07
2.6618e-07
9.08687e-07
-2.16899e-07
1.23357e-06
0.00113191
-1.23889e-07
-0.00113191
-5.04971e-08
-1.19161e-06
2.69883e-07
-2.35131e-07
-8.54212e-07
2.66239e-07
-2.16938e-07
9.08913e-07
-0.000268212
2.38428e-07
2.43722e-07
1.23107e-06
1.19443e-06
-1.96768e-07
-2.04599e-07
0.000268224
-1.27249e-06
-1.23589e-06
0.00027027
-0.000268241
2.35355e-07
2.43236e-07
-5.06047e-08
0.0011309
-2.40654e-07
1.27282e-06
2.75091e-07
9.08642e-07
-2.14355e-07
-8.54334e-07
2.63335e-07
-1.2366e-06
-1.23729e-07
-5.03816e-08
0.00113135
-2.43551e-07
1.27827e-06
2.77879e-07
9.14193e-07
-2.17158e-07
-8.59841e-07
2.66122e-07
0.00113089
-1.21578e-07
-0.00113089
-4.96876e-08
-1.23136e-06
2.7475e-07
-2.40942e-07
-8.54781e-07
2.62858e-07
-2.14785e-07
9.08198e-07
1.27794e-06
0.00113133
-1.21624e-07
-0.00113134
-4.94989e-08
-1.23689e-06
2.77543e-07
-2.43835e-07
-8.6029e-07
2.65644e-07
-2.17589e-07
9.13745e-07
-1.99447e-07
-2.01941e-07
0.000268245
-1.23858e-06
0.0002703
-0.000268262
2.38168e-07
2.40456e-07
-5.06296e-08