/*--------------------------------*- C++ -*----------------------------------*\
| =========                 |                                                 |
| \\      /  F ield         | OpenFOAM: The Open Source CFD Toolbox           |
|  \\    /   O peration     | Version:  v1906                                 |
|   \\  /    A nd           | Web:      www.OpenFOAM.com                      |
|    \\/     M anipulation  |                                                 |
\*---------------------------------------------------------------------------*/
FoamFile
{
    version     2.0;
    format      ascii;
    class       volScalarField;
    location    "375";
    object      k;
}
// * * * * * * * * * * * * * * * * * * * * * * * * * * * * * * * * * * * * * //

dimensions      [0 2 -2 0 0 0 0];


internalField   nonuniform List<scalar> 
42616
(
3.95041e-05
5.18306e-05
5.18287e-05
5.38765e-05
3.96065e-05
5.18496e-05
5.185e-05
5.39e-05
4.01711e-05
5.22364e-05
5.22367e-05
5.42158e-05
4.03992e-05
5.22989e-05
5.22981e-05
5.42312e-05
4.0684e-05
5.24448e-05
5.24457e-05
5.44401e-05
4.07349e-05
5.23191e-05
5.23175e-05
5.40305e-05
4.16494e-05
5.34534e-05
5.34569e-05
5.57166e-05
4.11042e-05
5.15944e-05
5.1594e-05
5.30732e-05
4.01185e-05
5.08616e-05
5.0856e-05
5.23232e-05
4.43768e-05
5.72634e-05
5.72668e-05
5.98156e-05
4.58936e-05
5.69164e-05
5.69221e-05
5.7987e-05
3.80998e-05
4.62068e-05
4.62052e-05
4.72036e-05
3.44052e-05
4.46323e-05
4.46312e-05
4.67934e-05
4.14588e-05
5.53756e-05
5.53766e-05
5.76667e-05
5.07071e-05
6.16686e-05
6.1668e-05
6.37321e-05
5.14619e-05
6.04756e-05
6.04744e-05
6.13049e-05
4.31014e-05
5.15042e-05
5.1505e-05
5.30114e-05
3.70301e-05
4.70947e-05
4.70955e-05
4.90136e-05
3.55531e-05
4.65115e-05
4.65119e-05
4.88353e-05
3.70703e-05
4.79846e-05
4.79842e-05
5.03227e-05
3.83635e-05
4.76815e-05
4.76804e-05
5.06147e-05
5.38502e-05
5.18112e-05
5.18168e-05
5.38575e-05
5.18113e-05
5.18131e-05
5.18196e-05
5.18216e-05
5.38542e-05
5.18183e-05
5.18212e-05
5.3861e-05
5.38637e-05
5.38354e-05
5.18199e-05
5.1827e-05
5.18191e-05
5.18243e-05
5.38722e-05
5.38333e-05
5.18202e-05
5.18227e-05
5.18192e-05
5.1821e-05
5.18332e-05
5.18278e-05
5.18302e-05
5.38686e-05
5.38338e-05
5.18329e-05
5.18264e-05
5.183e-05
5.38353e-05
5.39091e-05
5.41915e-05
5.1848e-05
5.18477e-05
5.21914e-05
5.2188e-05
5.39005e-05
5.41895e-05
5.18478e-05
5.18468e-05
5.21914e-05
5.21887e-05
5.18507e-05
5.21875e-05
5.21867e-05
5.39034e-05
5.41899e-05
5.18508e-05
5.21895e-05
5.21869e-05
5.41899e-05
5.42129e-05
5.41635e-05
5.22339e-05
5.22353e-05
5.22596e-05
5.22649e-05
5.42145e-05
5.41712e-05
5.22342e-05
5.22338e-05
5.22601e-05
5.22619e-05
5.22367e-05
5.22677e-05
5.22688e-05
5.42134e-05
5.41682e-05
5.22369e-05
5.22666e-05
5.22691e-05
5.41737e-05
5.42256e-05
5.4452e-05
5.22908e-05
5.22954e-05
5.24571e-05
5.24555e-05
5.42297e-05
5.44461e-05
5.22912e-05
5.22934e-05
5.24569e-05
5.24554e-05
5.22998e-05
5.24564e-05
5.24576e-05
5.42285e-05
5.44488e-05
5.23001e-05
5.24575e-05
5.24574e-05
5.44483e-05
5.44419e-05
5.39983e-05
5.24454e-05
5.2444e-05
5.22921e-05
5.22932e-05
5.44371e-05
5.40017e-05
5.24452e-05
5.24434e-05
5.22919e-05
5.22895e-05
5.24461e-05
5.22941e-05
5.2294e-05
5.4439e-05
5.39966e-05
5.24459e-05
5.22925e-05
5.22941e-05
5.40021e-05
5.4028e-05
5.55935e-05
5.2317e-05
5.2318e-05
5.33133e-05
5.33128e-05
5.40312e-05
5.55912e-05
5.23169e-05
5.23146e-05
5.33143e-05
5.33156e-05
5.23184e-05
5.3315e-05
5.33139e-05
5.40261e-05
5.55964e-05
5.23185e-05
5.33175e-05
5.33144e-05
5.55918e-05
5.57168e-05
5.36319e-05
5.34519e-05
5.34514e-05
5.26088e-05
5.26098e-05
5.57145e-05
5.36333e-05
5.3453e-05
5.34546e-05
5.26093e-05
5.26093e-05
5.34541e-05
5.26121e-05
5.26173e-05
5.57202e-05
5.36334e-05
5.34547e-05
5.26152e-05
5.26186e-05
5.3642e-05
5.30637e-05
5.18091e-05
5.15895e-05
5.15913e-05
5.06383e-05
5.06413e-05
5.30661e-05
5.18154e-05
5.15893e-05
5.15883e-05
5.06373e-05
5.0636e-05
5.15967e-05
5.06447e-05
5.06424e-05
5.30642e-05
5.18075e-05
5.15974e-05
5.06396e-05
5.06419e-05
5.18099e-05
5.23254e-05
5.91181e-05
5.08551e-05
5.08584e-05
5.60262e-05
5.60257e-05
5.2333e-05
5.91151e-05
5.0854e-05
5.08532e-05
5.60258e-05
5.60272e-05
5.08586e-05
5.60258e-05
5.6026e-05
5.2324e-05
5.91177e-05
5.08577e-05
5.60264e-05
5.60251e-05
5.91169e-05
5.98183e-05
5.93292e-05
5.72666e-05
5.72642e-05
5.78214e-05
5.7817e-05
5.98136e-05
5.932e-05
5.72669e-05
5.72677e-05
5.78226e-05
5.78224e-05
5.72658e-05
5.78171e-05
5.78197e-05
5.98177e-05
5.9329e-05
5.72655e-05
5.78229e-05
5.78203e-05
5.93252e-05
5.79885e-05
4.81053e-05
5.69189e-05
5.69141e-05
4.81371e-05
4.81387e-05
5.79811e-05
4.81115e-05
5.6921e-05
5.69196e-05
4.81394e-05
4.81378e-05
5.69173e-05
4.81454e-05
4.81418e-05
5.79887e-05
4.81091e-05
5.69189e-05
4.81449e-05
4.81449e-05
4.81115e-05
4.71951e-05
4.59253e-05
4.61965e-05
4.61997e-05
4.44127e-05
4.44166e-05
4.72023e-05
4.59304e-05
4.61983e-05
4.61975e-05
4.44132e-05
4.44139e-05
4.62028e-05
4.44206e-05
4.44199e-05
4.7199e-05
4.59278e-05
4.62056e-05
4.4419e-05
4.44215e-05
4.59315e-05
4.67882e-05
5.61352e-05
4.4626e-05
4.46295e-05
5.24258e-05
5.24252e-05
4.67911e-05
5.61323e-05
4.46259e-05
4.46272e-05
5.2423e-05
5.24261e-05
4.46327e-05
5.24211e-05
5.24264e-05
4.67898e-05
5.6134e-05
4.46338e-05
5.24227e-05
5.24237e-05
5.6135e-05
5.76699e-05
6.3349e-05
5.53807e-05
5.53797e-05
6.09184e-05
6.09175e-05
5.76672e-05
6.33472e-05
5.53785e-05
5.53806e-05
6.09175e-05
6.09174e-05
5.53803e-05
6.09173e-05
6.09174e-05
5.76684e-05
6.33473e-05
5.5378e-05
6.0917e-05
6.09161e-05
6.33466e-05
6.3735e-05
6.23848e-05
6.16691e-05
6.16683e-05
6.16741e-05
6.16741e-05
6.37336e-05
6.23865e-05
6.16685e-05
6.1668e-05
6.16746e-05
6.16733e-05
6.16684e-05
6.16768e-05
6.16749e-05
6.37333e-05
6.23853e-05
6.16674e-05
6.16758e-05
6.16751e-05
6.23863e-05
6.1301e-05
5.39026e-05
6.04683e-05
6.04694e-05
5.33907e-05
5.33912e-05
6.13032e-05
5.39043e-05
6.04705e-05
6.0468e-05
5.3393e-05
5.33914e-05
6.04718e-05
5.33973e-05
5.33954e-05
6.13018e-05
5.3905e-05
6.04737e-05
5.33978e-05
5.33983e-05
5.3907e-05
5.30059e-05
4.92222e-05
5.14975e-05
5.14977e-05
4.77152e-05
4.77151e-05
5.30075e-05
4.92225e-05
5.14995e-05
5.14984e-05
4.77161e-05
4.7716e-05
5.15018e-05
4.77187e-05
4.7718e-05
5.30081e-05
4.92236e-05
5.15047e-05
4.77195e-05
4.77197e-05
4.92244e-05
4.90114e-05
4.86623e-05
4.70916e-05
4.70916e-05
4.64774e-05
4.64779e-05
4.90116e-05
4.86623e-05
4.70921e-05
4.70922e-05
4.64772e-05
4.64777e-05
4.7094e-05
4.64791e-05
4.64793e-05
4.90125e-05
4.86627e-05
4.70952e-05
4.64796e-05
4.64794e-05
4.86633e-05
4.88344e-05
5.01016e-05
4.65099e-05
4.65105e-05
4.76174e-05
4.76192e-05
4.88346e-05
5.01029e-05
4.65096e-05
4.65102e-05
4.76174e-05
4.76181e-05
4.65118e-05
4.76199e-05
4.762e-05
4.88347e-05
5.01026e-05
4.65117e-05
4.76194e-05
4.76195e-05
5.01035e-05
5.03209e-05
5.07275e-05
4.79825e-05
4.79841e-05
4.84373e-05
4.84383e-05
5.03224e-05
5.07285e-05
4.79822e-05
4.79833e-05
4.84382e-05
4.84367e-05
4.79852e-05
4.84408e-05
4.84395e-05
5.03218e-05
5.07279e-05
4.79846e-05
4.84399e-05
4.84405e-05
5.07293e-05
5.06129e-05
4.76776e-05
4.76784e-05
5.06139e-05
4.76789e-05
4.76766e-05
3.83651e-05
3.83634e-05
3.83655e-05
4.76795e-05
5.06131e-05
4.76811e-05
3.94174e-05
3.942e-05
3.94217e-05
3.94236e-05
6.85853e-05
7.34724e-05
6.86175e-05
7.35174e-05
7.12319e-05
7.12765e-05
6.85897e-05
7.34779e-05
6.86231e-05
7.35212e-05
3.95119e-05
3.95118e-05
3.95177e-05
3.95772e-05
3.95885e-05
3.95872e-05
3.95966e-05
6.07569e-05
6.48457e-05
4.72199e-05
5.18297e-05
6.08023e-05
6.48209e-05
4.72333e-05
7.12309e-05
7.12765e-05
6.07543e-05
4.72193e-05
6.48458e-05
5.18278e-05
6.07998e-05
4.72323e-05
6.48212e-05
6.99214e-05
6.9933e-05
5.38258e-05
6.99248e-05
6.99366e-05
6.88112e-05
7.35874e-05
6.87167e-05
7.35956e-05
7.13212e-05
7.13287e-05
6.88149e-05
7.35928e-05
6.87193e-05
7.36018e-05
3.96127e-05
3.96131e-05
3.96193e-05
4.00243e-05
4.00129e-05
4.002e-05
4.0012e-05
6.09702e-05
6.49982e-05
4.72485e-05
5.19428e-05
6.0804e-05
6.50834e-05
4.7305e-05
7.13189e-05
7.13261e-05
6.09685e-05
4.72487e-05
6.49994e-05
5.19478e-05
6.08041e-05
4.7308e-05
6.50852e-05
7.01482e-05
7.01593e-05
5.40383e-05
7.01821e-05
7.01933e-05
6.86939e-05
7.35797e-05
6.87695e-05
7.36097e-05
7.13305e-05
7.13727e-05
6.86972e-05
7.35862e-05
6.87724e-05
7.36147e-05
4.01655e-05
4.01704e-05
4.01661e-05
4.03712e-05
4.03772e-05
4.03776e-05
4.03813e-05
6.09655e-05
6.50013e-05
4.77096e-05
5.2253e-05
6.10227e-05
6.49377e-05
4.77608e-05
7.13282e-05
7.13718e-05
6.09626e-05
4.77113e-05
6.50008e-05
5.22523e-05
6.10203e-05
4.77615e-05
6.49366e-05
7.00203e-05
7.00324e-05
5.41795e-05
6.99856e-05
6.9998e-05
6.89167e-05
7.37012e-05
6.87786e-05
7.37068e-05
7.1433e-05
7.14297e-05
6.89226e-05
7.37062e-05
6.87838e-05
7.37121e-05
4.0406e-05
4.04065e-05
4.04114e-05
4.06277e-05
4.06288e-05
4.06314e-05
4.06338e-05
6.1119e-05
6.5101e-05
4.78058e-05
5.23835e-05
6.09528e-05
6.52374e-05
4.78534e-05
7.14316e-05
7.14279e-05
6.11161e-05
4.78059e-05
6.51014e-05
5.2384e-05
6.09506e-05
4.7854e-05
6.52405e-05
7.02741e-05
7.02853e-05
5.43647e-05
7.03649e-05
7.03758e-05
6.84538e-05
7.35944e-05
6.87637e-05
7.36032e-05
7.13693e-05
7.14262e-05
6.84503e-05
7.35998e-05
6.87608e-05
7.36085e-05
4.06835e-05
4.0686e-05
4.06873e-05
4.07145e-05
4.07128e-05
4.07149e-05
4.07151e-05
6.07972e-05
6.50035e-05
4.80022e-05
5.23808e-05
6.11233e-05
6.46778e-05
4.79942e-05
7.13662e-05
7.14245e-05
6.07949e-05
4.80032e-05
6.50039e-05
5.23806e-05
6.11217e-05
4.7995e-05
6.46757e-05
6.99299e-05
6.99411e-05
5.4153e-05
6.96572e-05
6.96688e-05
6.94693e-05
7.39677e-05
6.85687e-05
7.41203e-05
7.16704e-05
7.17248e-05
6.9479e-05
7.39739e-05
6.85737e-05
7.41268e-05
4.0733e-05
4.0735e-05
4.07348e-05
4.14499e-05
4.14497e-05
4.14534e-05
4.1452e-05
6.14812e-05
6.48497e-05
4.79585e-05
5.24882e-05
6.0657e-05
6.58001e-05
4.80397e-05
7.16708e-05
7.17254e-05
6.14774e-05
4.79588e-05
6.48446e-05
5.24868e-05
6.06529e-05
4.80399e-05
6.58005e-05
7.02583e-05
7.02702e-05
5.45929e-05
7.11008e-05
7.11135e-05
6.89545e-05
7.37369e-05
7.0082e-05
7.32076e-05
7.13843e-05
7.1112e-05
6.89534e-05
7.37422e-05
7.00908e-05
7.32116e-05
4.16499e-05
4.1654e-05
4.16534e-05
4.15666e-05
4.15679e-05
4.15714e-05
4.15728e-05
6.20537e-05
6.64328e-05
4.89081e-05
5.34517e-05
6.24524e-05
6.53657e-05
4.89398e-05
7.13823e-05
7.11109e-05
6.20595e-05
4.89109e-05
6.64385e-05
5.34555e-05
6.24549e-05
4.89428e-05
6.53737e-05
7.14007e-05
7.14138e-05
5.56548e-05
6.97897e-05
6.98018e-05
6.58517e-05
7.29749e-05
6.62464e-05
7.3577e-05
7.11785e-05
7.16521e-05
6.58475e-05
7.29788e-05
6.62405e-05
7.35818e-05
4.11064e-05
4.11084e-05
4.11118e-05
4.01105e-05
4.01137e-05
4.01128e-05
4.0116e-05
5.78891e-05
6.26327e-05
4.77174e-05
5.09356e-05
5.87815e-05
6.21508e-05
4.70595e-05
7.1176e-05
7.16522e-05
5.78808e-05
4.77186e-05
6.26274e-05
5.09325e-05
5.87782e-05
4.70583e-05
6.21418e-05
6.76068e-05
6.76166e-05
5.19003e-05
6.74916e-05
6.75012e-05
7.1852e-05
7.50783e-05
6.92073e-05
7.56139e-05
7.24973e-05
7.26986e-05
7.18556e-05
7.50841e-05
6.92085e-05
7.56202e-05
4.01217e-05
4.01207e-05
4.01238e-05
4.28737e-05
4.28736e-05
4.28763e-05
4.28748e-05
6.35148e-05
6.5111e-05
4.67609e-05
5.18926e-05
6.02504e-05
6.77756e-05
4.73118e-05
7.24971e-05
7.26998e-05
6.35112e-05
4.67578e-05
6.51012e-05
5.18862e-05
6.02412e-05
4.73086e-05
6.77723e-05
7.09573e-05
7.09683e-05
5.52131e-05
7.31828e-05
7.31945e-05
7.34657e-05
7.51691e-05
7.4216e-05
7.4006e-05
7.21627e-05
7.14013e-05
7.34727e-05
7.51752e-05
7.42217e-05
7.4012e-05
4.43754e-05
4.43801e-05
4.43779e-05
4.60124e-05
4.60087e-05
4.60154e-05
4.60128e-05
6.72012e-05
7.04165e-05
5.2357e-05
5.78647e-05
6.70586e-05
7.0226e-05
5.30859e-05
7.21633e-05
7.1403e-05
6.72054e-05
5.23602e-05
7.04211e-05
5.78697e-05
6.70621e-05
5.30903e-05
7.02341e-05
7.5014e-05
7.50254e-05
6.06218e-05
7.39257e-05
7.39371e-05
6.41903e-05
7.20561e-05
6.73963e-05
7.15373e-05
7.03291e-05
7.01583e-05
6.41908e-05
7.20613e-05
6.73971e-05
7.15425e-05
4.58899e-05
4.58966e-05
4.5894e-05
4.04118e-05
4.04128e-05
4.04157e-05
4.04165e-05
5.7169e-05
6.45862e-05
5.27454e-05
5.41496e-05
6.14403e-05
6.11599e-05
5.08936e-05
7.03282e-05
7.01576e-05
5.71665e-05
5.27498e-05
6.45873e-05
5.4154e-05
6.14407e-05
5.0897e-05
6.1158e-05
6.87349e-05
6.8747e-05
5.35176e-05
6.60869e-05
6.60998e-05
6.21818e-05
7.1864e-05
6.18108e-05
7.2693e-05
7.0596e-05
7.12509e-05
6.21839e-05
7.18692e-05
6.1811e-05
7.26984e-05
3.81014e-05
3.8103e-05
3.8105e-05
3.45537e-05
3.45575e-05
3.45581e-05
3.45613e-05
5.25303e-05
5.81815e-05
4.28421e-05
4.50279e-05
5.28897e-05
5.81116e-05
4.14723e-05
7.05938e-05
7.12512e-05
5.25298e-05
4.28425e-05
5.81766e-05
4.5026e-05
5.28884e-05
4.14727e-05
5.8108e-05
6.42241e-05
6.4237e-05
4.57374e-05
6.46624e-05
6.46746e-05
6.86117e-05
7.44719e-05
6.58649e-05
7.5517e-05
7.24003e-05
7.30528e-05
6.86134e-05
7.44766e-05
6.58654e-05
7.55216e-05
3.44085e-05
3.44093e-05
3.44124e-05
3.77318e-05
3.77302e-05
3.77346e-05
3.77345e-05
5.94528e-05
6.15263e-05
4.0652e-05
4.5797e-05
5.60835e-05
6.43047e-05
4.12697e-05
7.2399e-05
7.30534e-05
5.94517e-05
4.06529e-05
6.15242e-05
4.57977e-05
5.60841e-05
4.12713e-05
6.43046e-05
6.78203e-05
6.78304e-05
5.01837e-05
7.01198e-05
7.01297e-05
7.45805e-05
7.6712e-05
7.28096e-05
7.69396e-05
7.36788e-05
7.37474e-05
7.45807e-05
7.67164e-05
7.28094e-05
7.69443e-05
4.14577e-05
4.14619e-05
4.14608e-05
4.9354e-05
4.93525e-05
4.93551e-05
4.93539e-05
6.74938e-05
6.87818e-05
5.0404e-05
5.77929e-05
6.50293e-05
7.07404e-05
5.30262e-05
7.36783e-05
7.3747e-05
6.74904e-05
5.04053e-05
6.87796e-05
5.77934e-05
6.5027e-05
5.30269e-05
7.07382e-05
7.37597e-05
7.3769e-05
6.07397e-05
7.53341e-05
7.53441e-05
7.44515e-05
7.63098e-05
7.55276e-05
7.54545e-05
7.31616e-05
7.26032e-05
7.44533e-05
7.63153e-05
7.55279e-05
7.5461e-05
5.07068e-05
5.0709e-05
5.0708e-05
5.17575e-05
5.17574e-05
5.17591e-05
5.17589e-05
6.8993e-05
7.21031e-05
5.73472e-05
6.19602e-05
6.93212e-05
7.14412e-05
5.7724e-05
7.31608e-05
7.26033e-05
6.89895e-05
5.73468e-05
7.21002e-05
6.19594e-05
6.93175e-05
5.77236e-05
7.14392e-05
7.62257e-05
7.62369e-05
6.4021e-05
7.51547e-05
7.51676e-05
6.89238e-05
7.39181e-05
7.09911e-05
7.32567e-05
7.15782e-05
7.12169e-05
6.89276e-05
7.39247e-05
7.09937e-05
7.32628e-05
5.14623e-05
5.14639e-05
5.1464e-05
4.53579e-05
4.53599e-05
4.53619e-05
4.53639e-05
6.22823e-05
6.80201e-05
5.68201e-05
5.80011e-05
6.50792e-05
6.56506e-05
5.46387e-05
7.15774e-05
7.12166e-05
6.22815e-05
5.68199e-05
6.80181e-05
5.80004e-05
6.50776e-05
5.46392e-05
6.56512e-05
7.22344e-05
7.22476e-05
5.80715e-05
7.03211e-05
7.0335e-05
6.54816e-05
7.26066e-05
6.63324e-05
7.25243e-05
7.08449e-05
7.08368e-05
6.54836e-05
7.26116e-05
6.63349e-05
7.25289e-05
4.31021e-05
4.31046e-05
4.31063e-05
3.8051e-05
3.80517e-05
3.80548e-05
3.80555e-05
5.69821e-05
6.28767e-05
4.78239e-05
4.98994e-05
5.8427e-05
6.17271e-05
4.61052e-05
7.08452e-05
7.08371e-05
5.69825e-05
4.78259e-05
6.28759e-05
4.99003e-05
5.84275e-05
4.61074e-05
6.17261e-05
6.8271e-05
6.82837e-05
5.09174e-05
6.74595e-05
6.74718e-05
6.51562e-05
7.2634e-05
6.50014e-05
7.28504e-05
7.09485e-05
7.11341e-05
6.51566e-05
7.26392e-05
6.50021e-05
7.28557e-05
3.70303e-05
3.70331e-05
3.70338e-05
3.56165e-05
3.56171e-05
3.56196e-05
3.56198e-05
5.58022e-05
6.11475e-05
4.30438e-05
4.66991e-05
5.58806e-05
6.11529e-05
4.25859e-05
7.09479e-05
7.11333e-05
5.58021e-05
4.30456e-05
6.11453e-05
4.66997e-05
5.58806e-05
4.25875e-05
6.11512e-05
6.71877e-05
6.7199e-05
4.86153e-05
6.72752e-05
6.72864e-05
6.61803e-05
7.31634e-05
6.57514e-05
7.3378e-05
7.1358e-05
7.15255e-05
6.61805e-05
7.31686e-05
6.57516e-05
7.3383e-05
3.55538e-05
3.5556e-05
3.55562e-05
3.63408e-05
3.63424e-05
3.63435e-05
3.63437e-05
5.68167e-05
6.17876e-05
4.22772e-05
4.66944e-05
5.63978e-05
6.20995e-05
4.23698e-05
7.13574e-05
7.15253e-05
5.68154e-05
4.22783e-05
6.17857e-05
4.66943e-05
5.63971e-05
4.23705e-05
6.20971e-05
6.7881e-05
6.78922e-05
4.93033e-05
6.81413e-05
6.81525e-05
6.67571e-05
7.35164e-05
6.65953e-05
7.36437e-05
7.16239e-05
7.17444e-05
6.67593e-05
7.35211e-05
6.65961e-05
7.36483e-05
3.7072e-05
3.70726e-05
3.70733e-05
3.8198e-05
3.81996e-05
3.8199e-05
3.82003e-05
5.76671e-05
6.26921e-05
4.3687e-05
4.82501e-05
5.75161e-05
6.26694e-05
4.39683e-05
7.1624e-05
7.17446e-05
5.76655e-05
4.36877e-05
6.26893e-05
4.82496e-05
5.75142e-05
4.39685e-05
6.26668e-05
6.85782e-05
6.85897e-05
5.0617e-05
6.86007e-05
6.86124e-05
6.27928e-05
7.33371e-05
6.65911e-05
7.42482e-05
7.15761e-05
6.56741e-05
6.27942e-05
7.33401e-05
6.65926e-05
7.42534e-05
2.80567e-05
3.32644e-05
3.3263e-05
3.98567e-05
2.7708e-05
3.44126e-05
3.44116e-05
5.75342e-05
6.26167e-05
4.42883e-05
4.66221e-05
5.76039e-05
6.45118e-05
4.27507e-05
7.1576e-05
6.56735e-05
5.75328e-05
4.42882e-05
6.26142e-05
4.66207e-05
5.76024e-05
4.27503e-05
6.4509e-05
6.82599e-05
6.82708e-05
5.02042e-05
6.91766e-05
6.91868e-05
7.12258e-05
7.12072e-05
7.12284e-05
7.121e-05
5.3842e-05
6.99285e-05
6.99398e-05
7.00023e-05
7.00134e-05
6.86732e-05
7.34676e-05
7.34626e-05
6.86469e-05
6.86761e-05
7.34727e-05
7.347e-05
6.86506e-05
6.08045e-05
5.17732e-05
6.48635e-05
4.71699e-05
6.49234e-05
4.70899e-05
6.08034e-05
6.0807e-05
5.17756e-05
6.48763e-05
4.71727e-05
6.49333e-05
4.70912e-05
6.08063e-05
7.12272e-05
7.12105e-05
5.38458e-05
6.99443e-05
6.9931e-05
7.00221e-05
7.00085e-05
7.12237e-05
7.12067e-05
6.86761e-05
7.34735e-05
7.34696e-05
6.86519e-05
6.08063e-05
5.17731e-05
6.48694e-05
4.71712e-05
6.49282e-05
4.70914e-05
6.08056e-05
6.86741e-05
7.34677e-05
7.34634e-05
6.86494e-05
6.08044e-05
5.17733e-05
4.71718e-05
6.48641e-05
4.70915e-05
6.49238e-05
6.08037e-05
6.08119e-05
5.17769e-05
6.48736e-05
4.71765e-05
6.49313e-05
4.70911e-05
6.08132e-05
6.8681e-05
7.34722e-05
7.34698e-05
6.86576e-05
6.08106e-05
5.17774e-05
4.71773e-05
6.48769e-05
4.70913e-05
6.49319e-05
6.08121e-05
6.86795e-05
7.34695e-05
7.34674e-05
6.86561e-05
7.12262e-05
7.12078e-05
5.38437e-05
6.99333e-05
6.99343e-05
7.00068e-05
7.0012e-05
7.1226e-05
7.12092e-05
6.08099e-05
5.17765e-05
4.71766e-05
6.4875e-05
4.7092e-05
6.49306e-05
6.08108e-05
6.08111e-05
5.17771e-05
4.71779e-05
6.48814e-05
4.70925e-05
6.49364e-05
6.08121e-05
6.86791e-05
7.34702e-05
7.34677e-05
6.86537e-05
6.86813e-05
7.34735e-05
7.34707e-05
6.86563e-05
5.38476e-05
6.99368e-05
6.99485e-05
7.00158e-05
7.00271e-05
7.12252e-05
7.12091e-05
7.12282e-05
7.12119e-05
7.12308e-05
7.12768e-05
7.12333e-05
7.1279e-05
6.99156e-05
6.99266e-05
5.38123e-05
6.99311e-05
6.99408e-05
7.13188e-05
7.12846e-05
7.13213e-05
7.12868e-05
5.38227e-05
7.0129e-05
7.01375e-05
6.99801e-05
6.99887e-05
6.85872e-05
7.34766e-05
6.86209e-05
7.35185e-05
6.07497e-05
6.48369e-05
4.72092e-05
5.18187e-05
6.07917e-05
6.4818e-05
4.72206e-05
6.07517e-05
6.48472e-05
4.72132e-05
5.1826e-05
6.07947e-05
6.48229e-05
4.7225e-05
6.85842e-05
7.35816e-05
7.35312e-05
6.86836e-05
6.85857e-05
7.35852e-05
7.35321e-05
6.86833e-05
6.07371e-05
5.18156e-05
6.49681e-05
4.72248e-05
6.48249e-05
4.7222e-05
6.0778e-05
6.07385e-05
5.18222e-05
6.49612e-05
4.72286e-05
6.48271e-05
4.72263e-05
6.07775e-05
6.99293e-05
6.99171e-05
5.38206e-05
6.99358e-05
6.99238e-05
7.12282e-05
7.12731e-05
7.13207e-05
7.12844e-05
5.38304e-05
7.01293e-05
7.0116e-05
6.99775e-05
6.99666e-05
7.13171e-05
7.12808e-05
6.07527e-05
6.48427e-05
4.72102e-05
5.18189e-05
6.07942e-05
6.48228e-05
4.72216e-05
6.85876e-05
7.34723e-05
6.86205e-05
7.35162e-05
6.07509e-05
4.72115e-05
6.48382e-05
5.18217e-05
6.07923e-05
4.72229e-05
6.48176e-05
6.85883e-05
7.35866e-05
7.35349e-05
6.86863e-05
6.07398e-05
5.18158e-05
6.49701e-05
4.72259e-05
6.48293e-05
4.72229e-05
6.07802e-05
6.85863e-05
7.35812e-05
7.35298e-05
6.86847e-05
6.07381e-05
5.18182e-05
4.72271e-05
6.49621e-05
4.72243e-05
6.48236e-05
6.07785e-05
6.85881e-05
7.34759e-05
6.86271e-05
7.35169e-05
6.07556e-05
4.72212e-05
6.48473e-05
5.18326e-05
6.08012e-05
4.72347e-05
6.48206e-05
6.85864e-05
7.34729e-05
6.86256e-05
7.35134e-05
6.07408e-05
5.18259e-05
6.4956e-05
4.72361e-05
6.48248e-05
4.72346e-05
6.07714e-05
6.8585e-05
7.35841e-05
7.35303e-05
6.8674e-05
6.07394e-05
5.18287e-05
4.72375e-05
6.49522e-05
4.7236e-05
6.48236e-05
6.07696e-05
6.85833e-05
7.35809e-05
7.35269e-05
6.8672e-05
6.99209e-05
6.99194e-05
5.38174e-05
6.99334e-05
6.99265e-05
7.12307e-05
7.12755e-05
7.13189e-05
7.12841e-05
5.38273e-05
7.01273e-05
7.01214e-05
6.99808e-05
6.99691e-05
7.13197e-05
7.12835e-05
6.07563e-05
4.72214e-05
6.4852e-05
5.18322e-05
6.08012e-05
4.72348e-05
6.48262e-05
6.85854e-05
7.34739e-05
6.86231e-05
7.35152e-05
6.85881e-05
7.34773e-05
6.86258e-05
7.35186e-05
6.0739e-05
5.18242e-05
4.72355e-05
6.49582e-05
4.72337e-05
6.48251e-05
6.07704e-05
6.07408e-05
5.18285e-05
4.72379e-05
6.49586e-05
4.72362e-05
6.48295e-05
6.07719e-05
6.85828e-05
7.35822e-05
7.35287e-05
6.86726e-05
6.85854e-05
7.35852e-05
7.35321e-05
6.86748e-05
7.12297e-05
7.12738e-05
7.12327e-05
7.12768e-05
5.38354e-05
7.01161e-05
7.01276e-05
6.99634e-05
6.99753e-05
7.13188e-05
7.12817e-05
7.13217e-05
7.12848e-05
7.1319e-05
7.13251e-05
7.13215e-05
7.1328e-05
7.01584e-05
7.0167e-05
5.40549e-05
7.01857e-05
7.01949e-05
7.13247e-05
7.13211e-05
7.13277e-05
7.1324e-05
5.41459e-05
7.00429e-05
7.00544e-05
7.01757e-05
7.01854e-05
6.8813e-05
7.35918e-05
6.87168e-05
7.36023e-05
6.09741e-05
6.50082e-05
4.72417e-05
5.19589e-05
6.0813e-05
6.50865e-05
4.73127e-05
6.09745e-05
6.50025e-05
4.72439e-05
5.19455e-05
6.08122e-05
6.50881e-05
4.73098e-05
6.88176e-05
7.35807e-05
7.35925e-05
6.88083e-05
6.88197e-05
7.35885e-05
7.36e-05
6.88116e-05
6.09949e-05
5.21013e-05
6.5036e-05
4.76187e-05
6.50882e-05
4.74779e-05
6.10238e-05
6.09958e-05
5.20917e-05
6.50492e-05
4.76168e-05
6.50911e-05
4.74731e-05
6.1026e-05
7.01603e-05
7.01481e-05
5.40412e-05
7.01925e-05
7.01789e-05
7.13174e-05
7.13252e-05
7.13288e-05
7.1325e-05
5.41357e-05
7.00634e-05
7.00499e-05
7.01858e-05
7.01722e-05
7.13256e-05
7.13213e-05
6.09766e-05
6.50107e-05
4.72431e-05
5.19581e-05
6.08149e-05
6.50899e-05
4.73151e-05
6.88126e-05
7.35871e-05
6.87175e-05
7.3596e-05
6.09744e-05
4.72436e-05
6.50034e-05
5.19508e-05
6.0813e-05
4.73133e-05
6.50827e-05
6.88209e-05
7.35873e-05
7.35992e-05
6.88113e-05
6.09971e-05
5.21009e-05
6.50412e-05
4.76211e-05
6.50918e-05
4.74807e-05
6.10257e-05
6.88186e-05
7.35821e-05
7.35934e-05
6.88089e-05
6.09948e-05
5.20953e-05
4.76198e-05
6.50361e-05
4.74783e-05
6.50849e-05
6.10235e-05
6.88121e-05
7.35907e-05
6.87096e-05
7.36017e-05
6.09686e-05
4.72495e-05
6.49943e-05
5.19403e-05
6.08022e-05
4.7305e-05
6.50829e-05
6.88103e-05
7.35879e-05
6.87077e-05
7.35993e-05
6.09934e-05
5.20894e-05
6.50452e-05
4.76108e-05
6.50867e-05
4.74615e-05
6.10293e-05
6.88201e-05
7.35888e-05
7.35996e-05
6.88168e-05
6.09919e-05
5.20872e-05
4.76104e-05
6.50482e-05
4.74606e-05
6.50865e-05
6.10281e-05
6.88184e-05
7.35861e-05
7.35972e-05
6.88152e-05
7.0158e-05
7.01525e-05
5.4046e-05
7.01854e-05
7.01842e-05
7.13202e-05
7.13273e-05
7.13265e-05
7.1322e-05
5.41392e-05
7.00487e-05
7.00519e-05
7.01767e-05
7.0177e-05
7.13272e-05
7.13236e-05
6.09692e-05
4.72504e-05
6.5e-05
5.19409e-05
6.0805e-05
4.73075e-05
6.50874e-05
6.88082e-05
7.35889e-05
6.87085e-05
7.35998e-05
6.88101e-05
7.35919e-05
6.87106e-05
7.36029e-05
6.09918e-05
5.20935e-05
4.76139e-05
6.50464e-05
4.74666e-05
6.50881e-05
6.10269e-05
6.09924e-05
5.20877e-05
4.76129e-05
6.50528e-05
4.74642e-05
6.50909e-05
6.1028e-05
6.88164e-05
7.35865e-05
7.35976e-05
6.88123e-05
6.88185e-05
7.35904e-05
7.36008e-05
6.88146e-05
7.13194e-05
7.13271e-05
7.13223e-05
7.133e-05
5.41334e-05
7.00555e-05
7.00676e-05
7.01762e-05
7.01874e-05
7.1327e-05
7.13235e-05
7.13302e-05
7.13265e-05
7.13269e-05
7.13713e-05
7.13298e-05
7.13737e-05
7.00078e-05
7.00194e-05
5.41667e-05
6.99763e-05
6.99879e-05
7.14322e-05
7.13813e-05
7.14343e-05
7.13836e-05
5.41745e-05
7.02209e-05
7.02298e-05
6.99896e-05
7.00007e-05
6.86971e-05
7.3587e-05
6.87735e-05
7.36135e-05
6.09525e-05
6.49894e-05
4.77105e-05
5.22469e-05
6.10155e-05
6.4926e-05
4.77564e-05
6.09557e-05
6.50032e-05
4.77109e-05
5.2251e-05
6.1018e-05
6.4938e-05
4.77585e-05
6.86805e-05
7.3691e-05
7.36253e-05
6.87257e-05
6.86833e-05
7.36933e-05
7.36282e-05
6.87268e-05
6.09237e-05
5.22512e-05
6.50369e-05
4.77813e-05
6.49225e-05
4.77729e-05
6.09227e-05
6.09266e-05
5.2256e-05
6.50361e-05
4.77844e-05
6.49336e-05
4.77759e-05
6.09247e-05
7.00284e-05
7.00167e-05
5.41761e-05
6.9995e-05
6.99836e-05
7.13271e-05
7.13691e-05
7.14326e-05
7.13822e-05
5.41841e-05
7.02241e-05
7.02103e-05
7.00052e-05
6.99942e-05
7.14284e-05
7.13784e-05
6.09546e-05
6.49953e-05
4.77124e-05
5.22474e-05
6.10172e-05
6.49318e-05
4.77582e-05
6.86955e-05
7.35811e-05
6.87701e-05
7.36101e-05
6.09531e-05
4.77122e-05
6.49916e-05
5.22483e-05
6.10152e-05
4.77585e-05
6.49287e-05
6.86838e-05
7.36959e-05
7.363e-05
6.87313e-05
6.09257e-05
5.22517e-05
6.50408e-05
4.77829e-05
6.49284e-05
4.77745e-05
6.09255e-05
6.86822e-05
7.36905e-05
7.36253e-05
6.87298e-05
6.09243e-05
5.2253e-05
4.77838e-05
6.50359e-05
4.77753e-05
6.49255e-05
6.09242e-05
6.8705e-05
7.35873e-05
6.87823e-05
7.36133e-05
6.09641e-05
4.77098e-05
6.50028e-05
5.22539e-05
6.10214e-05
4.77612e-05
6.49373e-05
6.87032e-05
7.35844e-05
6.87808e-05
7.36098e-05
6.09357e-05
5.22584e-05
6.50347e-05
4.7789e-05
6.49337e-05
4.778e-05
6.09312e-05
6.86904e-05
7.36917e-05
7.36276e-05
6.87267e-05
6.09342e-05
5.22594e-05
4.77897e-05
6.503e-05
4.77806e-05
6.49326e-05
6.09295e-05
6.86886e-05
7.36884e-05
7.36241e-05
6.87245e-05
7.00156e-05
7.00167e-05
5.41722e-05
6.99842e-05
6.99836e-05
7.13289e-05
7.13714e-05
7.14315e-05
7.13813e-05
5.41801e-05
7.02215e-05
7.02158e-05
6.9997e-05
6.99945e-05
7.14314e-05
7.1381e-05
6.09646e-05
4.77115e-05
6.5008e-05
5.22541e-05
6.10215e-05
4.77625e-05
6.49438e-05
6.87013e-05
7.3585e-05
6.87779e-05
7.36112e-05
6.87037e-05
7.3589e-05
6.87805e-05
7.36149e-05
6.09336e-05
5.22574e-05
4.77891e-05
6.50352e-05
4.77802e-05
6.49324e-05
6.09291e-05
6.09355e-05
5.22597e-05
4.77907e-05
6.50364e-05
4.77817e-05
6.49392e-05
6.09306e-05
6.86874e-05
7.369e-05
7.36257e-05
6.87229e-05
6.86899e-05
7.36924e-05
7.3629e-05
6.87245e-05
7.13286e-05
7.13701e-05
7.13317e-05
7.13732e-05
5.41875e-05
7.02102e-05
7.02219e-05
6.9995e-05
7.00073e-05
7.14301e-05
7.13796e-05
7.14329e-05
7.13826e-05
7.14326e-05
7.1428e-05
7.14347e-05
7.14304e-05
7.02855e-05
7.02941e-05
5.43686e-05
7.03748e-05
7.03832e-05
7.13716e-05
7.14103e-05
7.13744e-05
7.14129e-05
5.44441e-05
7.00656e-05
7.00758e-05
7.03726e-05
7.03811e-05
6.89176e-05
7.37037e-05
6.87793e-05
7.37105e-05
6.1124e-05
6.51052e-05
4.77979e-05
5.23793e-05
6.09481e-05
6.52464e-05
4.78468e-05
6.11241e-05
6.51031e-05
4.78008e-05
5.23806e-05
6.09494e-05
6.52431e-05
4.78487e-05
6.89298e-05
7.36138e-05
7.36914e-05
6.88883e-05
6.89307e-05
7.36206e-05
7.36964e-05
6.88901e-05
6.11524e-05
5.2443e-05
6.51532e-05
4.79921e-05
6.52552e-05
4.79383e-05
6.11691e-05
6.11524e-05
5.24419e-05
6.51579e-05
4.79925e-05
6.52521e-05
4.7939e-05
6.11695e-05
7.02875e-05
7.02746e-05
5.43637e-05
7.03767e-05
7.0362e-05
7.14286e-05
7.14258e-05
7.13753e-05
7.14129e-05
5.4438e-05
7.00792e-05
7.00635e-05
7.0375e-05
7.03605e-05
7.13723e-05
7.14092e-05
6.11281e-05
6.51088e-05
4.77995e-05
5.23793e-05
6.09514e-05
6.52492e-05
4.78488e-05
6.89205e-05
7.37005e-05
6.87823e-05
7.3706e-05
6.11263e-05
4.78006e-05
6.51041e-05
5.23805e-05
6.095e-05
4.78498e-05
6.52425e-05
6.8935e-05
7.36194e-05
7.36969e-05
6.88898e-05
6.11561e-05
5.24428e-05
6.51568e-05
4.79935e-05
6.5258e-05
4.79401e-05
6.11717e-05
6.89329e-05
7.36131e-05
7.36905e-05
6.88874e-05
6.11542e-05
5.24421e-05
4.79933e-05
6.51485e-05
4.79405e-05
6.52512e-05
6.11696e-05
6.89111e-05
7.37017e-05
6.87762e-05
7.37083e-05
6.11175e-05
4.78064e-05
6.50968e-05
5.23842e-05
6.09509e-05
4.7854e-05
6.52367e-05
6.89095e-05
7.36988e-05
6.87743e-05
7.37061e-05
6.11464e-05
5.24433e-05
6.51506e-05
4.79924e-05
6.52463e-05
4.79409e-05
6.11637e-05
6.89239e-05
7.36197e-05
7.36944e-05
6.88861e-05
6.11449e-05
5.24443e-05
4.79931e-05
6.5156e-05
4.79416e-05
6.52461e-05
6.11626e-05
6.89224e-05
7.36177e-05
7.36927e-05
6.88851e-05
7.02865e-05
7.02796e-05
5.43667e-05
7.03739e-05
7.03688e-05
7.14319e-05
7.14282e-05
7.13726e-05
7.14105e-05
5.44412e-05
7.00654e-05
7.00674e-05
7.03719e-05
7.03671e-05
7.13731e-05
7.14112e-05
6.11166e-05
4.78075e-05
6.51023e-05
5.23844e-05
6.09519e-05
4.78552e-05
6.52408e-05
6.89061e-05
7.37002e-05
6.87731e-05
7.37069e-05
6.8907e-05
7.37025e-05
6.87749e-05
7.37096e-05
6.11437e-05
5.24444e-05
4.79935e-05
6.51536e-05
4.7942e-05
6.52494e-05
6.11613e-05
6.11441e-05
5.24442e-05
4.79941e-05
6.51601e-05
4.79426e-05
6.525e-05
6.11618e-05
6.89194e-05
7.36173e-05
7.36929e-05
6.88828e-05
6.89204e-05
7.36218e-05
7.36962e-05
6.8884e-05
7.14307e-05
7.14279e-05
7.14335e-05
7.14306e-05
5.44392e-05
7.00732e-05
7.00844e-05
7.03638e-05
7.03746e-05
7.13736e-05
7.14115e-05
7.13766e-05
7.14143e-05
7.13657e-05
7.14235e-05
7.13685e-05
7.14262e-05
6.99212e-05
6.99315e-05
5.41479e-05
6.96506e-05
6.96611e-05
7.16314e-05
7.14524e-05
7.16343e-05
7.14551e-05
5.41018e-05
6.99454e-05
6.99552e-05
6.96259e-05
6.96363e-05
6.84567e-05
7.36011e-05
6.87661e-05
7.36092e-05
6.0792e-05
6.50017e-05
4.80026e-05
5.23805e-05
6.11261e-05
6.46717e-05
4.79945e-05
6.07944e-05
6.50088e-05
4.8003e-05
5.23803e-05
6.11272e-05
6.46816e-05
4.7995e-05
6.83927e-05
7.38847e-05
7.36453e-05
6.84041e-05
6.83954e-05
7.38883e-05
7.36504e-05
6.84065e-05
6.06948e-05
5.23086e-05
6.46448e-05
4.79494e-05
6.46121e-05
4.79633e-05
6.06148e-05
6.06971e-05
5.23095e-05
6.46521e-05
4.79503e-05
6.46219e-05
4.79642e-05
6.06169e-05
6.99363e-05
6.99227e-05
5.41497e-05
6.96674e-05
6.96535e-05
7.13659e-05
7.14233e-05
7.16328e-05
7.14547e-05
5.41048e-05
6.99542e-05
6.99435e-05
6.96422e-05
6.96291e-05
7.16307e-05
7.14513e-05
6.07888e-05
6.50058e-05
4.80037e-05
5.23803e-05
6.11264e-05
6.46757e-05
4.79955e-05
6.8448e-05
7.35936e-05
6.87582e-05
7.3603e-05
6.07865e-05
4.80033e-05
6.49981e-05
5.23779e-05
6.11241e-05
4.79949e-05
6.46674e-05
6.83889e-05
7.38908e-05
7.36508e-05
6.84038e-05
6.06912e-05
5.23085e-05
6.46486e-05
4.79501e-05
6.46163e-05
4.7964e-05
6.06122e-05
6.83868e-05
7.38868e-05
7.36457e-05
6.84018e-05
6.06889e-05
5.2306e-05
4.79494e-05
6.46421e-05
4.79633e-05
6.46085e-05
6.06101e-05
6.84604e-05
7.36005e-05
6.87661e-05
7.36094e-05
6.07964e-05
4.80029e-05
6.50076e-05
5.23822e-05
6.11225e-05
4.79948e-05
6.46792e-05
6.84591e-05
7.35981e-05
6.87655e-05