/*--------------------------------*- C++ -*----------------------------------*\
| =========                 |                                                 |
| \\      /  F ield         | OpenFOAM: The Open Source CFD Toolbox           |
|  \\    /   O peration     | Version:  v1906                                 |
|   \\  /    A nd           | Web:      www.OpenFOAM.com                      |
|    \\/     M anipulation  |                                                 |
\*---------------------------------------------------------------------------*/
FoamFile
{
    version     2.0;
    format      ascii;
    class       volScalarField;
    location    "375";
    object      nut;
}
// * * * * * * * * * * * * * * * * * * * * * * * * * * * * * * * * * * * * * //

dimensions      [0 2 -1 0 0 0 0];


internalField   nonuniform List<scalar> 
42616
(
0.00021053
0.000202749
0.000202726
0.00018341
0.000210153
0.000202436
0.000202423
0.000183165
0.0002145
0.000205239
0.000205234
0.000185126
0.000215822
0.000205492
0.000205474
0.000184991
0.00021845
0.000207252
0.000207253
0.000186938
0.000217185
0.000205095
0.00020507
0.000183193
0.000225641
0.000213723
0.000213734
0.000193521
0.000225609
0.000206429
0.000206431
0.000184243
0.000208228
0.000191659
0.000191614
0.000169655
0.000242596
0.000234135
0.000234139
0.000209976
0.000282611
0.000257055
0.000257091
0.000220574
0.000215487
0.000182841
0.000182822
0.000161868
0.000165687
0.000157865
0.000157848
0.000145537
0.000204416
0.000215163
0.000215161
0.000192854
0.000297643
0.000263979
0.000263963
0.000229791
0.000340243
0.000278107
0.000278081
0.000231805
0.000270286
0.000221415
0.000221409
0.00019265
0.000210558
0.000192469
0.000192463
0.000171954
0.000194685
0.000188016
0.000188008
0.000169641
0.000206776
0.000197792
0.000197779
0.000176994
0.000225818
0.000204357
0.00020435
0.000183571
0.000183457
0.000202587
0.000202612
0.000183494
0.000202602
0.000202587
0.000202649
0.000202632
0.000183469
0.000202631
0.000202645
0.000183493
0.000183359
0.00018307
0.000202665
0.000202706
0.000202368
0.000202423
0.000183405
0.000183083
0.000202682
0.000202674
0.000202385
0.000202384
0.000202739
0.000202474
0.000202472
0.000183378
0.000183069
0.000202752
0.000202446
0.000202484
0.000183088
0.000183206
0.000185177
0.00020239
0.000202397
0.000204865
0.000204825
0.000183176
0.000185148
0.000202405
0.000202381
0.000204879
0.000204831
0.000202423
0.000204839
0.000204804
0.000183178
0.000185149
0.000202437
0.000204846
0.000204822
0.000185129
0.000185145
0.000184877
0.00020522
0.000205215
0.000205273
0.000205311
0.000185138
0.000184938
0.000205237
0.000205204
0.000205292
0.000205283
0.000205213
0.000205353
0.000205335
0.000185131
0.000184906
0.00020523
0.000205332
0.000205352
0.000184941
0.000184952
0.000187144
0.00020541
0.000205445
0.000207029
0.00020701
0.000184994
0.000187111
0.000205429
0.000205424
0.000207043
0.000207011
0.000205473
0.000207038
0.00020702
0.000184971
0.000187124
0.000205491
0.00020704
0.000207035
0.000187108
0.000186963
0.000183846
0.000207246
0.000207226
0.000205795
0.000205798
0.000186935
0.000183873
0.00020726
0.000207225
0.000205808
0.000205766
0.000207236
0.000205823
0.000205803
0.000186944
0.000183833
0.000207251
0.000205803
0.000205819
0.000183871
0.00018317
0.000192475
0.000205063
0.000205069
0.000211836
0.000211827
0.000183199
0.000192469
0.000205076
0.000205032
0.000211857
0.000211836
0.000205072
0.000211862
0.000211826
0.000183154
0.00019248
0.000205087
0.000211864
0.000211844
0.000192445
0.000193544
0.000188049
0.0002137
0.000213689
0.000213771
0.000213766
0.000193536
0.000188053
0.000213723
0.000213705
0.000213794
0.000213769
0.000213695
0.000213799
0.000213818
0.000193553
0.000188057
0.000213714
0.000213826
0.000213844
0.000188101
0.000184194
0.000169629
0.00020639
0.000206392
0.000194351
0.000194365
0.000184203
0.000169665
0.000206407
0.000206374
0.000194361
0.000194322
0.00020643
0.000194406
0.000194376
0.000184197
0.000169616
0.000206451
0.000194369
0.000194389
0.000169635
0.000169666
0.000205311
0.000191599
0.000191617
0.00022388
0.00022388
0.000169715
0.000205316
0.000191606
0.000191571
0.000223893
0.000223872
0.000191618
0.000223907
0.000223874
0.000169655
0.000205305
0.000191629
0.00022389
0.000223885
0.000205303
0.000209994
0.000227227
0.00023413
0.000234114
0.000256121
0.00025608
0.000209989
0.000227171
0.000234148
0.000234122
0.000256145
0.00025611
0.000234118
0.000256097
0.000256089
0.000209987
0.000227211
0.000234133
0.000256128
0.000256106
0.000227185
0.000220606
0.000167985
0.00025708
0.000257029
0.000197587
0.000197585
0.000220555
0.000168014
0.00025711
0.000257065
0.000197616
0.000197575
0.000257042
0.000197646
0.000197599
0.000220593
0.000167996
0.000257065
0.000197635
0.00019763
0.000168002
0.000161836
0.000144156
0.000182766
0.000182778
0.00016195
0.000161972
0.000161871
0.000144192
0.000182791
0.000182758
0.00016197
0.000161947
0.000182791
0.000162021
0.000161987
0.000161848
0.000144166
0.000182819
0.000162
0.000162014
0.000144182
0.000145512
0.000185879
0.0001578
0.00015782
0.000196634
0.000196626
0.000145536
0.000185872
0.000157817
0.000157798
0.000196634
0.000196624
0.000157837
0.000196624
0.000196631
0.000145519
0.000185869
0.00015786
0.000196627
0.000196632
0.000185875
0.000192874
0.000226893
0.000215175
0.000215163
0.000256319
0.000256304
0.000192868
0.000226891
0.00021518
0.000215161
0.000256333
0.000256293
0.000215165
0.000256332
0.0002563
0.000192862
0.000226877
0.000215169
0.000256319
0.000256312
0.000226872
0.000229815
0.000237888
0.000263964
0.000263949
0.000281407
0.000281398
0.000229814
0.000237903
0.000263979
0.000263936
0.000281428
0.000281378
0.000263946
0.000281442
0.000281395
0.000229799
0.000237881
0.000263958
0.000281419
0.000281411
0.000237882
0.000231798
0.000198164
0.000278036
0.000278038
0.000233702
0.000233702
0.000231814
0.000198181
0.000278071
0.000278011
0.000233737
0.000233691
0.000278047
0.000233768
0.000233727
0.000231795
0.00019817
0.000278077
0.000233759
0.000233762
0.000198179
0.000192627
0.000173471
0.000221352
0.000221348
0.000196619
0.000196612
0.000192643
0.000173479
0.000221383
0.000221342
0.000196641
0.00019661
0.000221373
0.000196659
0.000196628
0.000192632
0.000173473
0.000221407
0.000196654
0.000196655
0.000173476
0.000171949
0.000169255
0.000192432
0.000192425
0.000188136
0.000188131
0.000171956
0.00016926
0.000192451
0.000192422
0.00018815
0.000188124
0.000192437
0.000188164
0.000188138
0.000171949
0.000169251
0.000192461
0.000188156
0.000188154
0.000169252
0.000169643
0.000176066
0.000187988
0.000187983
0.000195149
0.000195153
0.000169648
0.000176079
0.000188001
0.000187975
0.000195164
0.000195139
0.00018799
0.000195184
0.000195155
0.000169639
0.000176064
0.000188005
0.000195169
0.000195168
0.000176068
0.000176992
0.000181454
0.000197759
0.000197762
0.000204744
0.000204745
0.000177005
0.000181463
0.000197773
0.000197751
0.000204758
0.000204738
0.000197767
0.000204773
0.000204753
0.00017699
0.000181454
0.00019778
0.000204766
0.000204769
0.000181461
0.000183565
0.000204331
0.000204332
0.000183572
0.000204344
0.000204325
0.000225828
0.000225818
0.000225829
0.00020434
0.000183564
0.000204354
0.000209858
0.00020986
0.000209856
0.000209856
9.98891e-05
5.07549e-05
9.99848e-05
5.07698e-05
2.38987e-05
2.39061e-05
9.98973e-05
5.07518e-05
9.99981e-05
5.07662e-05
0.000210591
0.000210568
0.000210614
0.000210324
0.000210457
0.000210409
0.000210514
0.000144642
0.000103741
0.00021311
0.000202736
0.000144812
0.000103649
0.000213153
2.38966e-05
2.39042e-05
0.000144632
0.000213095
0.000103742
0.000202711
0.000144801
0.000213132
0.000103648
7.7896e-05
7.78952e-05
0.000183337
7.78437e-05
7.78423e-05
0.000100324
5.07946e-05
0.000100079
5.07978e-05
2.39139e-05
2.39152e-05
0.000100331
5.07914e-05
0.000100085
5.0795e-05
0.000210239
0.000210207
0.000210287
0.000213232
0.000213107
0.000213153
0.000213068
0.000145303
0.000103973
0.000212622
0.000203004
0.000144593
0.000104243
0.000212858
2.39116e-05
2.39129e-05
0.000145298
0.000212607
0.000103975
0.000203029
0.000144593
0.000212868
0.000104246
7.81696e-05
7.8168e-05
0.000184113
7.82581e-05
7.82561e-05
0.00010011
5.07922e-05
0.000100299
5.08017e-05
2.39154e-05
2.39222e-05
0.000100116
5.07895e-05
0.000100306
5.07985e-05
0.000214428
0.000214455
0.000214405
0.000215824
0.00021588
0.000215857
0.000215888
0.000145515
0.000104107
0.000216183
0.000205378
0.0001457
0.000103928
0.000216619
2.3913e-05
2.39201e-05
0.000145503
0.000216188
0.000104109
0.000205364
0.00014569
0.000216615
0.000103925
7.8017e-05
7.80168e-05
0.000185214
7.79123e-05
7.79124e-05
0.000100532
5.08337e-05
0.000100165
5.08364e-05
2.39326e-05
2.39323e-05
0.000100544
5.08304e-05
0.000100176
5.08332e-05
0.000215889
0.000215868
0.000215913
0.000217859
0.000217869
0.000217873
0.000217893
0.00014596
0.000104165
0.000216642
0.000206139
0.000145219
0.000104595
0.00021699
2.39304e-05
2.39301e-05
0.000145951
0.000216632
0.000104165
0.00020613
0.000145211
0.000216984
0.0001046
7.82918e-05
7.82905e-05
0.000185994
7.84997e-05
7.84976e-05
9.97255e-05
5.07978e-05
0.000100471
5.07989e-05
2.3922e-05
2.39306e-05
9.97147e-05
5.07947e-05
0.000100465
5.07957e-05
0.000218444
0.000218447
0.000218457
0.000217912
0.000217902
0.000217889
0.000217906
0.000145399
0.000104357
0.00021866
0.000206871
0.000146617
0.000103492
0.000218725
2.39195e-05
2.39284e-05
0.000145393
0.000218661
0.000104362
0.000206864
0.000146612
0.000218724
0.000103488
7.79758e-05
7.79743e-05
0.000185625
7.74399e-05
7.7439e-05
0.000101171
5.09219e-05
9.92739e-05
5.09779e-05
2.39714e-05
2.39817e-05
0.000101186
5.0919e-05
9.92814e-05
5.09752e-05
0.000217172
0.000217157
0.000217166
0.000223272
0.000223268
0.000223274
0.00022326
0.00014626
0.000103021
0.000217459
0.000205616
0.000143601
0.000105294
0.000217329
2.39695e-05
2.39798e-05
0.000146242
0.000217447
0.000103008
0.000205589
0.000143585
0.000217314
0.000105289
7.78674e-05
7.78671e-05
0.000185868
7.92522e-05
7.92522e-05
0.000101944
5.08555e-05
0.000103328
5.06713e-05
2.39273e-05
2.38803e-05
0.000101941
5.08523e-05
0.000103352
5.06677e-05
0.000225641
0.000225653
0.000225645
0.000229702
0.000229701
0.000229723
0.000229728
0.000152846
0.000107882
0.000225167
0.000216051
0.000151567
0.000106585
0.000227232
2.3925e-05
2.38782e-05
0.000152874
0.000225175
0.000107895
0.000216069
0.000151569
0.000227248
0.000106605
8.05764e-05
8.05779e-05
0.00019724
7.84578e-05
7.84577e-05
9.40713e-05
5.0579e-05
9.58859e-05
5.07766e-05
2.38871e-05
2.39645e-05
9.40547e-05
5.05754e-05
9.58717e-05
5.07732e-05
0.000225619
0.000225624
0.000225654
0.00021245
0.000212478
0.000212443
0.000212479
0.000135638
9.98163e-05
0.000221414
0.000201164
0.000140688
9.75945e-05
0.000215435
2.38847e-05
2.39626e-05
0.000135619
0.000221426
9.98068e-05
0.000201145
0.000140686
0.000215426
9.75739e-05
7.46729e-05
7.46704e-05
0.000176334
7.36143e-05
7.36106e-05
0.000104285
5.12936e-05
9.90252e-05
5.1485e-05
2.41073e-05
2.41436e-05
0.000104285
5.12905e-05
9.90265e-05
5.14818e-05
0.000208259
0.000208219
0.000208257
0.000226916
0.000226926
0.000226912
0.000226909
0.00014951
0.000101837
0.000204432
0.00019555
0.000138534
0.000107675
0.000205184
2.41053e-05
2.41418e-05
0.000149492
0.000204396
0.000101813
0.000195492
0.000138496
0.000205142
0.00010766
7.78437e-05
7.78424e-05
0.00018282
8.1142e-05
8.11402e-05
0.000111328
5.13544e-05
0.000110393
5.09636e-05
2.40603e-05
2.39347e-05
0.000111335
5.13512e-05
0.000110402
5.09604e-05
0.000242592
0.000242599
0.000242587
0.000274244
0.000274196
0.000274239
0.000274206
0.000171555
0.000115065
0.000246586
0.000241396
0.000165311
0.000117518
0.000255695
2.40585e-05
2.39331e-05
0.000171572
0.000246592
0.00011507
0.000241412
0.000165319
0.000255713
0.000117527
8.48287e-05
8.48257e-05
0.000221278
8.47127e-05
8.47085e-05
9.37099e-05
5.02784e-05
0.000100241
5.00865e-05
2.37502e-05
2.37183e-05
9.37071e-05
5.0275e-05
0.000100243
5.00831e-05
0.000282561
0.000282608
0.000282571
0.000239784
0.000239782
0.000239787
0.000239787
0.000141139
0.00010671
0.000278033
0.000240495
0.000156244
9.90955e-05
0.000267871
2.37481e-05
2.37162e-05
0.000141129
0.000278064
0.000106716
0.000240523
0.000156246
0.000267893
9.90898e-05
7.77386e-05
7.77381e-05
0.000199657
7.36962e-05
7.36974e-05
8.74757e-05
5.01844e-05
8.79985e-05
5.04668e-05
2.37873e-05
2.38958e-05
8.74745e-05
5.0181e-05
8.79968e-05
5.04634e-05
0.000215495
0.000215486
0.000215501
0.000173784
0.000173821
0.000173801
0.000173832
0.000119522
9.13022e-05
0.000198693
0.000173385
0.000123534
8.97453e-05
0.000185876
2.3785e-05
2.38939e-05
0.00011952
0.000198683
9.129e-05
0.000173363
0.000123527
0.000185867
8.97302e-05
7.02437e-05
7.02466e-05
0.000151122
7.00591e-05
7.00605e-05
9.80883e-05
5.10787e-05
9.3313e-05
5.14386e-05
2.40879e-05
2.41974e-05
9.80868e-05
5.1075e-05
9.33144e-05
5.14349e-05
0.00016572
0.000165702
0.000165734
0.000174822
0.000174812
0.000174829
0.000174832
0.00013663
9.51251e-05
0.000164713
0.00015999
0.000126997
0.000100358
0.000163202
2.40858e-05
2.41956e-05
0.000136628
0.000164708
9.51207e-05
0.000159985
0.000126999
0.000163204
0.000100353
7.3672e-05
7.36715e-05
0.000158612
7.65942e-05
7.65914e-05
0.000109523
5.18537e-05
0.000105857
5.19381e-05
2.43041e-05
2.43176e-05
0.000109519
5.18499e-05
0.000105857
5.19343e-05
0.000204406
0.000204421
0.000204416
0.000281086
0.000281069
0.000281066
0.000281057
0.000163531
0.000109353
0.000222936
0.000231726
0.000154445
0.000113845
0.000244311
2.43021e-05
2.43156e-05
0.00016352
0.000222939
0.000109348
0.000231721
0.000154438
0.000244308
0.000113837
8.14609e-05
8.14568e-05
0.000210118
8.38841e-05
8.38793e-05
0.000111225
5.17393e-05
0.000112345
5.14528e-05
2.42255e-05
2.41336e-05
0.000111218
5.17358e-05
0.000112347
5.14497e-05
0.000297637
0.000297629
0.000297621
0.000333012
0.000333005
0.000332986
0.000332984
0.000174932
0.000117909
0.00028794
0.000270909
0.000172635
0.000118073
0.000298035
2.42234e-05
2.41317e-05
0.000174918
0.000287923
0.0001179
0.000270891
0.00017262
0.000298015
0.000118064
8.59393e-05
8.59354e-05
0.000237736
8.51512e-05
8.51494e-05
0.000101598
5.09238e-05
0.000105269
5.06915e-05
2.39614e-05
2.38996e-05
0.000101598
5.09209e-05
0.000105276
5.06884e-05
0.000340247
0.000340224
0.000340228
0.000291939
0.000291961
0.000291946
0.000291974
0.00015568
0.000111695
0.000313183
0.000263102
0.000164301
0.00010717
0.000298554
2.39593e-05
2.38976e-05
0.000155675
0.00031316
0.00011169
0.000263081
0.000164293
0.000298537
0.000107165
8.14913e-05
8.14917e-05
0.000218793
7.89877e-05
7.89893e-05
9.5052e-05
5.04589e-05
9.67093e-05
5.04272e-05
2.38346e-05
2.38325e-05
9.50537e-05
5.04554e-05
9.67156e-05
5.04236e-05
0.000270295
0.000270288
0.000270312
0.000220787
0.000220792
0.000220797
0.000220809
0.000138093
0.000101337
0.000244561
0.000210995
0.000142934
9.88964e-05
0.000230531
2.38327e-05
2.38306e-05
0.000138093
0.000244563
0.000101334
0.00021099
0.000142934
0.000230537
9.88936e-05
7.60566e-05
7.60576e-05
0.000182748
7.48217e-05
7.48226e-05
9.40278e-05
5.04618e-05
9.39326e-05
5.05358e-05
2.38501e-05
2.3881e-05
9.40255e-05
5.04587e-05
9.39317e-05
5.05327e-05
0.000210557
0.000210562
0.000210571
0.000195824
0.000195827
0.000195828
0.000195832
0.000133491
9.73725e-05
0.000205096
0.000189819
0.000134001
9.72641e-05
0.000201276
2.38481e-05
2.38789e-05
0.000133489
0.0002051
9.73652e-05
0.000189813
0.000133999
0.000201278
9.72564e-05
7.42496e-05
7.42491e-05
0.000169797
7.42447e-05
7.42438e-05
9.57168e-05
5.06444e-05
9.49954e-05
5.07193e-05
2.39186e-05
2.3947e-05
9.57145e-05
5.06415e-05
9.49942e-05
5.07164e-05
0.000194687
0.000194688
0.000194691
0.000199672
0.000199684
0.000199674
0.000199676
0.000136297
9.82529e-05
0.000198327
0.000188889
0.000134979
9.89189e-05
0.000198746
2.39166e-05
2.3945e-05
0.000136292
0.000198326
9.82461e-05
0.000188878
0.000134976
0.000198743
9.89106e-05
7.48773e-05
7.48765e-05
0.000171981
7.5165e-05
7.51642e-05
9.66904e-05
5.07721e-05
9.64012e-05
5.0837e-05
2.39655e-05
2.39945e-05
9.66941e-05
5.07686e-05
9.64016e-05
5.08341e-05
0.000206791
0.000206778
0.000206783
0.000220669
0.000220679
0.000220671
0.00022068
0.0001392
9.99145e-05
0.00021032
0.000200156
0.000138496
0.000100052
0.000212995
2.39635e-05
2.39926e-05
0.000139194
0.000210316
9.99049e-05
0.000200144
0.000138488
0.000212988
0.000100044
7.56086e-05
7.56083e-05
0.000178941
7.55635e-05
7.55646e-05
0.000104927
5.49191e-05
9.72718e-05
8.65219e-05
2.69969e-05
4.57258e-05
0.000104928
5.49154e-05
9.72723e-05
8.65205e-05
0.000237043
0.000230659
0.000230659
0.000227149
0.000229213
0.000236582
0.00023658
0.000143844
0.000102184
0.000222486
0.000205056
0.000140467
0.000105476
0.000222517
2.69955e-05
4.57253e-05
0.000143839
0.000222483
0.000102178
0.00020505
0.000140462
0.000222515
0.000105471
7.58123e-05
7.58095e-05
0.000188007
8.34343e-05
8.34409e-05
2.38987e-05
2.38958e-05
2.38974e-05
2.38945e-05
0.000183079
7.79192e-05
7.79173e-05
7.80464e-05
7.80436e-05
0.000100079
5.07533e-05
5.07519e-05
0.000100062
0.000100084
5.07539e-05
5.07532e-05
0.000100069
0.000144711
0.000202284
0.000103811
0.000212733
0.000103919
0.000212067
0.000144816
0.000144716
0.000202283
0.000103832
0.000212742
0.000103926
0.000212062
0.000144824
2.3898e-05
2.38953e-05
0.000183097
7.79279e-05
7.79225e-05
7.8058e-05
7.8049e-05
2.38985e-05
2.38958e-05
0.000100087
5.07504e-05
5.07493e-05
0.00010007
0.000144711
0.000202297
0.000103807
0.000212728
0.00010391
0.000212067
0.000144816
0.000100084
5.07462e-05
5.0745e-05
0.000100065
0.000144708
0.00020227
0.000212728
0.000103794
0.00021206
0.0001039
0.000144812
0.000144726
0.000202308
0.000103832
0.000212759
0.000103928
0.000212045
0.000144847
0.00010009
5.07532e-05
5.07525e-05
0.000100084
0.000144724
0.000202281
0.000212756
0.000103843
0.000212038
0.00010393
0.000144845
0.000100088
5.07498e-05
5.07492e-05
0.000100082
2.38959e-05
2.3893e-05
0.000183079
7.79041e-05
7.79285e-05
7.80255e-05
7.80592e-05
2.38977e-05
2.38951e-05
0.000144718
0.000202298
0.000212751
0.000103836
0.000212045
0.000103927
0.000144839
0.000144723
0.000202295
0.000212753
0.00010384
0.00021204
0.000103927
0.000144841
0.000100084
5.07496e-05
5.07489e-05
0.000100075
0.000100091
5.07499e-05
5.07492e-05
0.000100081
0.00018309
7.79333e-05
7.79324e-05
7.8064e-05
7.80632e-05
2.38974e-05
2.38949e-05
2.3897e-05
2.38945e-05
2.38995e-05
2.39071e-05
2.38982e-05
2.39057e-05
7.7886e-05
7.78838e-05
0.000183253
7.78456e-05
7.78423e-05
2.39144e-05
2.39085e-05
2.39131e-05
2.39071e-05
0.00018301
7.81423e-05
7.81363e-05
7.78976e-05
7.78918e-05
9.98933e-05
5.07551e-05
9.99919e-05
5.0769e-05
0.000144609
0.000103723
0.00021304
0.000202643
0.000144774
0.000103636
0.000213051
0.000144616
0.000103738
0.000213062
0.00020269
0.000144783
0.000103644
0.000213083
9.98498e-05
5.07924e-05
5.07746e-05
0.000100021
9.98539e-05
5.07924e-05
5.07736e-05
0.000100019
0.000144503
0.00020254
0.000103923
0.000212682
0.000103596
0.000212895
0.000144535
0.000144508
0.000202595
0.000103896
0.000212714
0.000103599
0.000212929
0.000144531
7.78911e-05
7.7886e-05
0.000183319
7.78412e-05
7.78418e-05
2.38992e-05
2.39066e-05
2.39137e-05
2.39074e-05
0.000183084
7.81243e-05
7.81213e-05
7.78765e-05
7.78744e-05
2.39143e-05
2.39079e-05
0.000144613
0.000103718
0.000213036
0.00020266
0.000144776
0.000103632
0.000213045
9.98933e-05
5.07476e-05
9.99931e-05
5.07622e-05
0.00014461
0.00021304
0.000103707
0.000202656
0.000144772
0.000213053
0.000103622
9.98612e-05
5.07892e-05
5.07709e-05
0.000100024
0.000144506
0.000202558
0.000103912
0.000212676
0.00010359
0.00021289
0.000144536
9.98575e-05
5.0785e-05
5.07669e-05
0.000100022
0.000144503
0.000202557
0.000212686
0.000103894
0.000212898
0.000103579
0.000144533
9.98985e-05
5.07543e-05
0.000100006
5.07679e-05
0.00014464
0.000213112
0.000103748
0.000202729
0.000144811
0.000213158
0.000103651
9.98961e-05
5.07508e-05
0.000100004
5.07642e-05
0.000144527
0.000202645
0.000103893
0.000212788
0.000103603
0.000213005
0.000144512
9.98587e-05
5.07914e-05
5.07724e-05
9.99974e-05
0.000144526
0.000202641
0.000212795
0.000103883
0.000213012
0.000103604
0.000144508
9.98563e-05
5.07878e-05
5.07687e-05
9.99944e-05
7.78698e-05
7.78922e-05
0.000183286
7.7833e-05
7.78425e-05
2.38985e-05
2.39059e-05
2.39115e-05
2.39055e-05
0.000183048
7.81189e-05
7.81284e-05
7.78752e-05
7.78797e-05
2.39135e-05
2.39072e-05
0.000144637
0.000213105
0.000103745
0.000202741
0.000144805
0.000213147
0.00010365
9.98901e-05
5.07507e-05
9.99925e-05
5.07644e-05
9.98969e-05
5.07511e-05
0.000100001
5.07648e-05
0.000144518
0.000202618
0.000212766
0.000103896
0.000212982
0.000103603
0.000144509
0.000144524
0.000202653
0.000212785
0.000103886
0.000213
0.000103604
0.000144513
9.98487e-05
5.07878e-05
5.0769e-05
9.99956e-05
9.98572e-05
5.07881e-05
5.07694e-05
0.0001
2.38981e-05
2.39054e-05
2.38978e-05
2.3905e-05
0.000183107
7.81199e-05
7.81187e-05
7.78718e-05
7.78718e-05
2.39132e-05
2.39067e-05
2.39128e-05
2.39064e-05
2.39145e-05
2.39156e-05
2.39132e-05
2.39143e-05
7.819e-05
7.81837e-05
0.000184216
7.82719e-05
7.82657e-05
2.39155e-05
2.3915e-05
2.39142e-05
2.39137e-05
0.000184573
7.80733e-05
7.80713e-05
7.82707e-05
7.8265e-05
0.000100326
5.07948e-05
0.000100078
5.07988e-05
0.000145329
0.000104004
0.000212554
0.000203106
0.00014463
0.000104257
0.000212923
0.000145326
0.000103975
0.000212571
0.000203002
0.000144624
0.000104245
0.000212893
0.000100342
5.07927e-05
5.07969e-05
0.000100389
0.000100344
5.07942e-05
5.07982e-05
0.000100395
0.000145421
0.00020416
0.000104229
0.000215412
0.000104268
0.000214224
0.000145697
0.00014542
0.000204075
0.000104244
0.000215381
0.000104257
0.000214172
0.0001457
7.81724e-05
7.81694e-05
0.000184143
7.82589e-05
7.82548e-05
2.39143e-05
2.39157e-05
2.39152e-05
2.39146e-05
0.000184514
7.8086e-05
7.80802e-05
7.82613e-05
7.82536e-05
2.39157e-05
2.39151e-05
0.000145332
0.000103991
0.000212551
0.000203115
0.00014463
0.000104248
0.000212928
0.000100327
5.07872e-05
0.000100083
5.07907e-05
0.000145327
0.000212554
0.000103975
0.000203038
0.000144627
0.000212911
0.000104231
0.000100349
5.079e-05
5.07942e-05
0.000100393
0.000145423
0.000204171
0.000104222
0.000215417
0.000104256
0.000214234
0.000145696
0.000100345
5.0786e-05
5.07899e-05
0.000100389
0.000145418
0.000204102
0.0002154
0.000104207
0.000214208
0.000104239
0.000145691
0.000100321
5.07938e-05
0.000100059
5.0798e-05
0.0001453
0.000212626
0.000103964
0.00020296
0.000144589
0.000212853
0.000104241
0.000100318
5.07903e-05
0.000100056
5.07947e-05
0.000145403
0.000204076
0.00010424
0.00021532
0.000104254
0.000214067
0.000145703
0.000100342
5.07937e-05
5.07974e-05
0.0001004
0.0001454
0.000204033
0.000215309
0.000104248
0.000214052
0.000104253
0.0001457
0.000100339
5.07903e-05
5.07941e-05
0.000100398
7.81653e-05
7.81775e-05
0.000184161
7.82471e-05
7.82636e-05
2.39136e-05
2.39149e-05
2.39128e-05
2.39122e-05
0.000184527
7.80581e-05
7.80846e-05
7.8243e-05
7.82658e-05
2.39148e-05
2.39143e-05
0.000145299
0.000212621
0.000103964
0.00020298
0.000144596
0.000212862
0.000104238
0.000100311
5.07903e-05
0.000100054
5.07945e-05
0.000100316
5.07906e-05
0.000100061
5.07948e-05
0.000145398
0.000204098
0.000215337
0.000104244
0.000214099
0.000104258
0.000145695
0.000145399
0.000204052
0.000215321
0.000104245
0.000214073
0.00010425
0.000145696
0.000100331
5.079e-05
5.07938e-05
0.000100389
0.000100338
5.07906e-05
5.07942e-05
0.000100395
2.39133e-05
2.39147e-05
2.39129e-05
2.39143e-05
0.000184487
7.80901e-05
7.80896e-05
7.82614e-05
7.82599e-05
2.39146e-05
2.39141e-05
2.39143e-05
2.39137e-05
2.39157e-05
2.39229e-05
2.39145e-05
2.39216e-05
7.8e-05
7.79982e-05
0.000185157
7.78935e-05
7.78926e-05
2.39334e-05
2.39246e-05
2.3932e-05
2.39232e-05
0.000184957
7.82035e-05
7.81984e-05
7.78568e-05
7.78555e-05
0.000100116
5.07935e-05
0.000100306
5.08018e-05
0.000145471
0.00010409
0.000216215
0.000205329
0.000145687
0.000103903
0.000216602
0.000145481
0.000104107
0.000216204
0.000205345
0.000145692
0.000103922
0.000216608
0.000100057
5.08299e-05
5.08069e-05
0.000100064
0.000100063
5.08294e-05
5.08067e-05
0.000100066
0.000145311
0.000205331
0.000104029
0.000216585
0.000103843
0.000216677
0.000145151
0.00014532
0.000205358
0.000104021
0.000216605
0.000103863
0.000216692
0.000145158
7.8013e-05
7.80086e-05
0.00018521
7.79095e-05
7.79081e-05
2.39159e-05
2.39227e-05
2.39325e-05
2.39238e-05
0.00018502
7.8193e-05
7.81895e-05
7.78697e-05
7.78677e-05
2.39329e-05
2.39242e-05
0.000145471
0.000104083
0.000216218
0.000205347
0.000145687
0.0001039
0.000216603
0.000100112
5.07855e-05
0.000100302
5.07946e-05
0.000145468
0.000216208
0.000104073
0.000205325
0.000145682
0.000216599
0.000103892
0.000100064
5.08266e-05
5.08036e-05
0.000100072
0.000145311
0.00020535
0.000104024
0.000216584
0.000103839
0.000216676
0.000145152
0.000100061
5.08225e-05
5.07997e-05
0.00010007
0.000145308
0.000205333
0.000216588
0.000104015
0.000216677
0.000103833
0.00014515
0.000100132
5.0793e-05
0.000100322
5.08012e-05
0.000145513
0.000216176
0.000104114
0.000205356
0.000145699
0.000216615
0.000103929
0.00010013
5.07895e-05
0.00010032
5.07975e-05
0.000145354
0.000205394
0.000104029
0.000216645
0.00010387
0.000216723
0.000145192
0.000100078
5.08283e-05
5.08059e-05
0.000100069
0.000145352
0.000205374
0.000216645
0.000104017
0.000216721
0.000103871
0.000145188
0.000100075
5.08246e-05
5.08022e-05
0.000100065
7.79864e-05
7.80113e-05
0.00018518
7.78855e-05
7.79063e-05
2.3915e-05
2.39219e-05
2.39304e-05
2.39217e-05
0.000184986
7.81844e-05
7.81961e-05
7.78469e-05
7.78677e-05
2.39322e-05
2.39235e-05
0.000145509
0.000216182
0.000104112
0.000205373
0.000145693
0.000216616
0.000103931
0.000100122
5.07893e-05
0.000100307
5.07975e-05
0.000100126
5.07899e-05
0.000100312
5.07981e-05
0.000145346
0.000205377
0.000216634
0.000104026
0.000216713
0.000103867
0.000145185
0.000145351
0.000205391
0.000216642
0.00010402
0.000216719
0.000103873
0.00014519
0.000100066
5.08248e-05
5.08024e-05
0.000100061
0.000100071
5.08249e-05
5.08028e-05
0.000100065
2.39148e-05
2.39215e-05
2.39144e-05
2.39211e-05
0.000185027
7.81882e-05
7.81874e-05
7.78724e-05
7.78727e-05
2.39318e-05
2.39231e-05
2.39314e-05
2.39227e-05
2.39335e-05
2.39331e-05
2.39321e-05
2.39317e-05
7.83099e-05
7.83038e-05
0.000186016
7.85184e-05
7.85118e-05
2.39235e-05
2.39303e-05
2.39223e-05
2.39289e-05
0.000186334
7.82129e-05
7.82091e-05
7.85672e-05
7.856e-05
0.000100533
5.08333e-05
0.000100166
5.08364e-05
0.000145978
0.000104174
0.000216577
0.000206085
0.000145192
0.000104616
0.000216933
0.000145976
0.00010416
0.000216597
0.000206095
0.000145196
0.000104598
0.000216945
0.000100583
5.08051e-05
5.08319e-05
0.000100729
0.000100584
5.08062e-05
5.08323e-05
0.00010073
0.000146135
0.000206646
0.000104743
0.000218331
0.000104677
0.000217759
0.000146674
0.000146132
0.000206636
0.000104738
0.000218327
0.000104656
0.00021776
0.000146671
7.82962e-05
7.82918e-05
0.000186003
7.8503e-05
7.84981e-05
2.3933e-05
2.39328e-05
2.39232e-05
2.39297e-05
0.000186311
7.8214e-05
7.82067e-05
7.8549e-05
7.85405e-05
2.39238e-05
2.39302e-05
0.000145987
0.000104165
0.000216578
0.000206102
0.000145197
0.000104607
0.000216938
0.000100541
5.08262e-05
0.000100174
5.08289e-05
0.000145984
0.000216583
0.000104155
0.000206089
0.000145195
0.000216944
0.000104593
0.000100596
5.0802e-05
5.08288e-05
0.000100732
0.000146144
0.000206661
0.000104734
0.000218331
0.000104665
0.000217763
0.000146682
0.000100592
5.07976e-05
5.08243e-05
0.000100728
0.00014614
0.000206634
0.000218328
0.000104717
0.000217764
0.000104651
0.000146677
0.00010052
5.0832e-05
0.000100162
5.0835e-05
0.000145957
0.000216642
0.000104156
0.000206118
0.000145215
0.000216989
0.000104591
0.000100518
5.08285e-05
0.000100158
5.08318e-05
0.000146111
0.000206668
0.00010473
0.000218329
0.000104652
0.00021778
0.000146642
0.00010057
5.08052e-05
5.0831e-05
0.000100718
0.000146108
0.000206648
0.000218329
0.000104742
0.00021778
0.000104651
0.00014664
0.000100567
5.08021e-05
5.08279e-05
0.000100716
7.82881e-05
7.83002e-05
0.000186007
7.84956e-05
7.85071e-05
2.39324e-05
2.3932e-05
2.39208e-05
2.39273e-05
0.000186319
7.81914e-05
7.82138e-05
7.85394e-05
7.85543e-05
2.39227e-05
2.39293e-05
0.000145951
0.000216641
0.000104156
0.000206135
0.000145215
0.00021699
0.000104588
0.000100507
5.08286e-05
0.000100151
5.08316e-05
0.000100508
5.08286e-05
0.000100154
5.08318e-05
0.000146102
0.000206666
0.000218329
0.000104737
0.000217778
0.000104659
0.000146634
0.000146101
0.000206664
0.00021833
0.000104737
0.00021778
0.000104647
0.000146633
0.000100556
5.08015e-05
5.08276e-05
0.00010071
0.000100557
5.08023e-05
5.08279e-05
0.000100711
2.3932e-05
2.39318e-05
2.39315e-05
2.39313e-05
0.000186304
7.82219e-05
7.82199e-05
7.8545e-05
7.85434e-05
2.39227e-05
2.39292e-05
2.39223e-05
2.39288e-05
2.39223e-05
2.39311e-05
2.39211e-05
2.39299e-05
7.79651e-05
7.79615e-05
0.000185605
7.74302e-05
7.74274e-05
2.39656e-05
2.39358e-05
2.39643e-05
2.39345e-05
0.000185017
7.74286e-05
7.74244e-05
7.73211e-05
7.73183e-05
9.97304e-05
5.07989e-05
0.000100475
5.07997e-05
0.000145388
0.000104363
0.000218673
0.000206859
0.00014664
0.000103482
0.00021874
0.000145394
0.000104363
0.000218666
0.000206848
0.00014664
0.000103493
0.000218735
9.95356e-05
5.08929e-05
5.08118e-05
9.91032e-05
9.95402e-05
5.08929e-05
5.08123e-05
9.91078e-05
0.000144912
0.000206259
0.000102756
0.000218133
0.000103262
0.000218456
0.000143876
0.000144917
0.000206257
0.000102766
0.000218132
0.000103272
0.000218453
0.000143883
7.79685e-05
7.79617e-05
0.000185615
7.74389e-05
7.74333e-05
2.39225e-05
2.39312e-05
2.39649e-05
2.39352e-05
0.000185035
7.74262e-05
7.74268e-05
7.733e-05
7.73225e-05
2.39656e-05
2.39358e-05
0.000145371
0.000104352
0.000218671
0.000206873
0.00014664
0.000103475
0.000218735
9.97104e-05
5.07904e-05
0.000100461
5.07916e-05
0.000145365
0.000218664
0.000104335
0.000206832
0.000146635
0.000218727
0.000103456
9.95246e-05
5.089e-05
5.08087e-05
9.9091e-05
0.000144892
0.000206273
0.000102749
0.000218121
0.000103253
0.000218448
0.00014385
9.95209e-05
5.08863e-05
5.08047e-05
9.90871e-05
0.000144886
0.000206231
0.000218111
0.000102732
0.000218437
0.000103235
0.000143844
9.97362e-05
5.07981e-05
0.000100471
5.07992e-05
0.000145399
0.00021866
0.00010437
0.000206858
0.000146617
0.000218726
0.000103497
9.97348e-05
5.07948e-05
0.000100471