/*--------------------------------*- C++ -*----------------------------------*\
| =========                 |                                                 |
| \\      /  F ield         | OpenFOAM: The Open Source CFD Toolbox           |
|  \\    /   O peration     | Version:  v1906                                 |
|   \\  /    A nd           | Web:      www.OpenFOAM.com                      |
|    \\/     M anipulation  |                                                 |
\*---------------------------------------------------------------------------*/
FoamFile
{
    version     2.0;
    format      ascii;
    class       volScalarField;
    location    "375";
    object      p;
}
// * * * * * * * * * * * * * * * * * * * * * * * * * * * * * * * * * * * * * //

dimensions      [0 2 -2 0 0 0 0];


internalField   nonuniform List<scalar> 
42616
(
0.000709579
0.000709512
0.000709514
0.000711517
0.00067409
0.000674056
0.000674054
0.000676088
0.000638522
0.000638421
0.000638421
0.000640416
0.000603028
0.000602987
0.000602988
0.000605022
0.00056719
0.000567108
0.000567107
0.000569118
0.000532215
0.000532212
0.000532213
0.000534213
0.000495701
0.000495605
0.000495602
0.000497663
0.000459881
0.000460011
0.000460006
0.000462
0.0004272
0.000427601
0.000427593
0.000429597
0.000390675
0.000389983
0.000389978
0.000391894
0.000350296
0.000349975
0.000349968
0.00035223
0.000314255
0.000315391
0.000315392
0.000317784
0.000283052
0.000283671
0.000283665
0.000285664
0.000253611
0.000251852
0.000251854
0.000253043
0.000218031
0.000217261
0.000217261
0.000218945
0.000176434
0.000176662
0.000176663
0.000179185
0.000134882
0.000136083
0.00013608
0.000138829
9.73194e-05
9.78457e-05
9.78478e-05
0.000100163
6.3414e-05
6.3448e-05
6.34467e-05
6.52878e-05
3.17969e-05
3.09509e-05
3.0948e-05
3.24383e-05
5.62407e-06
6.38301e-06
6.38118e-06
4.79489e-06
0.000716332
0.000718373
0.000718371
0.000716329
0.000718373
0.000718373
0.000718369
0.000718369
0.00071633
0.00071837
0.00071837
0.000716327
0.000711523
0.000680923
0.000709518
0.000709515
0.000682949
0.000682949
0.000711519
0.000680925
0.000709518
0.000709517
0.000682949
0.000682948
0.000709511
0.000682949
0.000682948
0.000711521
0.000680924
0.000709512
0.000682949
0.000682948
0.000680925
0.000676081
0.000645231
0.00067405
0.000674053
0.000647287
0.000647288
0.000676086
0.000645233
0.000674049
0.000674051
0.000647287
0.000647287
0.000674057
0.000647288
0.000647289
0.000676085
0.000645232
0.000674056
0.000647288
0.000647289
0.000645233
0.000640416
0.000609871
0.000638422
0.000638421
0.000611899
0.000611896
0.000640416
0.000609866
0.000638423
0.000638422
0.000611899
0.000611897
0.00063842
0.000611894
0.000611893
0.000640416
0.000609867
0.000638421
0.000611895
0.000611893
0.000609864
0.000605027
0.000573966
0.00060299
0.000602988
0.000576028
0.000576031
0.000605023
0.00057397
0.00060299
0.000602988
0.000576028
0.000576029
0.000602987
0.000576032
0.000576032
0.000605024
0.000573968
0.000602987
0.00057603
0.000576032
0.000573971
0.000569114
0.000538941
0.000567105
0.000567108
0.000540917
0.000540916
0.000569117
0.00053894
0.000567106
0.000567106
0.000540918
0.000540917
0.000567108
0.000540916
0.000540915
0.000569115
0.00053894
0.000567109
0.000540917
0.000540916
0.000538938
0.000534217
0.000502735
0.000532214
0.000532212
0.000504911
0.000504912
0.000534215
0.000502737
0.000532213
0.000532214
0.00050491
0.000504909
0.000532211
0.000504912
0.000504912
0.000534216
0.000502734
0.000532211
0.000504909
0.000504911
0.000502736
0.000497661
0.000466514
0.000495604
0.000495605
0.000468317
0.000468319
0.000497663
0.000466517
0.000495603
0.000495602
0.000468317
0.000468314
0.000495605
0.000468318
0.000468314
0.000497659
0.00046651
0.000495604
0.000468312
0.000468313
0.000466511
0.000462003
0.00043408
0.00046001
0.000460012
0.000435775
0.000435777
0.000462005
0.000434085
0.000460009
0.000460007
0.000435767
0.000435764
0.000460008
0.000435776
0.000435772
0.000461999
0.000434075
0.000460007
0.000435764
0.000435767
0.000434079
0.000429596
0.000397196
0.000427602
0.000427603
0.000399748
0.000399748
0.0004296
0.000397197
0.000427596
0.000427594
0.000399746
0.000399743
0.0004276
0.000399749
0.000399748
0.000429592
0.000397192
0.000427597
0.000399744
0.000399746
0.000397195
0.000391896
0.000357358
0.000389985
0.000389982
0.000359729
0.000359734
0.000391895
0.000357364
0.000389983
0.00038998
0.000359729
0.000359729
0.000389984
0.000359734
0.000359732
0.000391891
0.000357357
0.00038998
0.000359728
0.000359734
0.000357363
0.000352224
0.000322386
0.000349969
0.00034998
0.000323741
0.000323741
0.00035223
0.000322385
0.000349973
0.000349974
0.000323741
0.000323741
0.000349973
0.000323738
0.00032374
0.000352224
0.000322385
0.000349977
0.00032374
0.00032374
0.000322384
0.000317786
0.000289878
0.000315393
0.000315395
0.000291315
0.000291304
0.000317785
0.000289878
0.000315394
0.000315395
0.000291303
0.000291301
0.000315393
0.000291314
0.000291315
0.000317785
0.000289874
0.000315394
0.0002913
0.000291303
0.000289878
0.000285662
0.000257391
0.000283675
0.000283671
0.00025993
0.000259932
0.000285662
0.000257394
0.000283668
0.000283671
0.00025993
0.000259931
0.000283673
0.000259934
0.000259933
0.000285655
0.000257393
0.000283668
0.000259932
0.000259934
0.000257394
0.000253039
0.00022396
0.000251849
0.000251851
0.000226455
0.000226454
0.000253041
0.000223965
0.000251849
0.000251852
0.000226452
0.000226455
0.000251853
0.000226457
0.000226454
0.000253044
0.000223964
0.000251853
0.000226459
0.000226455
0.000223961
0.000218944
0.000184745
0.000217259
0.000217259
0.000187054
0.000187057
0.000218949
0.000184745
0.00021726
0.000217259
0.000187057
0.000187056
0.000217258
0.000187055
0.000187054
0.000218948
0.000184743
0.00021726
0.000187058
0.000187058
0.000184744
0.000179186
0.000144339
0.000176662
0.000176663
0.000146119
0.000146119
0.000179185
0.00014434
0.000176663
0.000176662
0.000146117
0.000146118
0.000176662
0.000146119
0.000146119
0.000179185
0.000144338
0.000176663
0.000146117
0.000146118
0.00014434
0.000138829
0.000105204
0.000136083
0.000136082
0.000107039
0.000107039
0.000138829
0.000105203
0.00013608
0.000136081
0.000107039
0.000107039
0.000136082
0.000107038
0.00010704
0.000138829
0.000105203
0.000136081
0.000107038
0.000107039
0.000105204
0.000100164
6.98458e-05
9.78517e-05
9.7848e-05
7.17157e-05
7.1716e-05
0.000100159
6.9846e-05
9.78519e-05
9.78513e-05
7.17141e-05
7.17151e-05
9.78516e-05
7.17148e-05
7.17152e-05
0.000100163
6.98451e-05
9.78482e-05
7.17127e-05
7.17121e-05
6.98449e-05
6.5289e-05
3.69242e-05
6.34492e-05
6.34462e-05
3.89503e-05
3.89504e-05
6.52871e-05
3.69248e-05
6.34475e-05
6.34479e-05
3.89481e-05
3.89461e-05
6.34478e-05
3.89482e-05
3.89463e-05
6.52889e-05
3.69217e-05
6.34448e-05
3.8946e-05
3.89458e-05
3.69206e-05
3.24433e-05
7.61463e-06
3.0954e-05
3.09535e-05
1.03752e-05
1.03746e-05
3.24421e-05
7.61398e-06
3.09512e-05
3.09486e-05
1.03762e-05
1.03693e-05
3.09483e-05
1.03741e-05
1.03672e-05
3.24405e-05
7.60942e-06
3.09471e-05
1.03717e-05
1.03717e-05
7.60822e-06
4.79974e-06
6.38291e-06
6.38251e-06
4.79984e-06
6.38384e-06
6.37816e-06
5.62311e-06
5.62233e-06
5.62118e-06
6.37717e-06
4.79627e-06
6.38042e-06
0.000718456
0.000718456
0.000718456
0.000718456
0.000698505
0.000711769
0.000711743
0.000698505
0.000711769
0.000698502
0.000698505
0.000711769
0.000711744
0.000698506
0.000709576
0.000709577
0.000709575
0.000682964
0.000682963
0.000682963
0.000682962
0.000698536
0.000711711
0.000709533
0.000700663
0.000711658
0.000698522
0.000700678
0.000711769
0.0006985
0.000698536
0.000709534
0.000711712
0.000700665
0.000711658
0.000700679
0.000698522
0.000711757
0.000711757
0.000698639
0.000698489
0.000698489
0.000662858
0.00067621
0.000676218
0.000662863
0.000676213
0.000662873
0.000662857
0.00067621
0.000676217
0.000662863
0.000674089
0.00067409
0.000674089
0.000647404
0.000647407
0.000647406
0.000647409
0.000662925
0.000676187
0.000674072
0.000665126
0.000676198
0.000662889
0.000665162
0.000676212
0.000662873
0.000662923
0.000674071
0.000676185
0.000665123
0.000676196
0.00066516
0.000662887
0.000676215
0.000676215
0.000663058
0.000662866
0.000662865
0.000627439
0.000640688
0.000640648
0.00062745
0.000640691
0.000627443
0.00062744
0.000640688
0.000640649
0.00062745
0.000638522
0.000638522
0.000638523
0.000611933
0.000611931
0.000611932
0.000611931
0.000627454
0.000640619
0.000638446
0.000629583
0.000640559
0.000627451
0.000629599
0.000640692
0.000627444
0.000627455
0.000638446
0.00064062
0.000629584
0.00064056
0.0006296
0.000627452
0.000640677
0.000640677
0.000627548
0.00062742
0.00062742
0.000591725
0.000605139
0.000605165
0.000591719
0.000605124
0.000591722
0.000591724
0.000605139
0.000605165
0.000591718
0.000603027
0.000603027
0.000603026
0.000576099
0.0005761
0.000576099
0.0005761
0.000591807
0.000605121
0.000603009
0.000594008
0.000605147
0.000591754
0.000594046
0.000605122
0.00059172
0.000591806
0.000603009
0.000605121
0.000594007
0.000605147
0.000594045
0.000591752
0.000605123
0.000605124
0.00059195
0.000591718
0.000591718
0.000556316
0.000569508
0.000569422
0.000556357
0.000569541
0.000556374
0.000556316
0.000569509
0.000569423
0.000556359
0.000567191
0.00056719
0.00056719
0.000540952
0.000540951
0.000540952
0.000540951
0.000556272
0.000569403
0.00056713
0.000558316
0.000569283
0.00055633
0.000558321
0.000569542
0.000556376
0.000556272
0.000567129
0.000569402
0.000558316
0.000569282
0.000558321
0.000556331
0.000569515
0.000569516
0.000556312
0.000556344
0.000556344
0.000520655
0.000534171
0.000534284
0.000520555
0.000534125
0.000520527
0.000520652
0.000534169
0.000534284
0.000520553
0.000532214
0.000532215
0.000532214
0.000505017
0.000505019
0.000505016
0.000505019
0.000520924
0.000534254
0.000532203
0.000523355
0.000534354
0.000520693
0.00052339
0.000534122
0.000520523
0.000520923
0.000532204
0.000534256
0.000523354
0.000534355
0.000523388
0.000520691
0.000534169
0.000534168
0.000521231
0.000520557
0.000520556
0.000484335
0.000497737
0.000497682
0.000484625
0.000497771
0.000484663
0.000484371
0.000497734
0.000497679
0.000484631
0.000495703
0.0004957
0.000495702
0.000468359
0.00046836
0.000468355
0.000468357
0.000483974
0.00049766
0.000495645
0.000486231
0.000497691
0.000484338
0.000486317
0.000497767
0.000484652
0.000483973
0.000495642
0.000497654
0.000486227
0.000497687
0.000486313
0.000484338
0.000497724
0.000497723
0.000483998
0.000484542
0.000484542
0.00045043
0.000463126
0.000463025
0.000450406
0.000463117
0.00045039
0.000450426
0.000463127
0.000463025
0.000450403
0.000459884
0.000459878
0.00045988
0.000435415
0.000435422
0.000435404
0.000435416
0.000450307
0.000462916
0.000459882
0.000451857
0.000462589
0.000450409
0.000451784
0.000463116
0.000450386
0.000450302
0.000459877
0.000462914
0.000451851
0.000462585
0.000451778
0.000450405
0.000463055
0.000463052
0.000450118
0.000450392
0.000450389
0.000414807
0.000428291
0.000428513
0.000414582
0.0004283
0.000414597
0.000414799
0.000428285
0.000428505
0.000414575
0.000427204
0.000427194
0.000427199
0.0004006
0.000400598
0.000400597
0.000400598
0.000415452
0.000428625
0.000427621
0.00041877
0.000429065
0.000414955
0.000418999
0.000428291
0.00041459
0.000415445
0.000427612
0.000428619
0.000418765
0.000429058
0.000418994
0.000414946
0.000428439
0.000428439
0.000416357
0.00041472
0.000414723
0.000377238
0.000391349
0.000391356
0.000377488
0.000391322
0.000377473
0.000377233
0.000391346
0.00039135
0.000377486
0.000390675
0.000390672
0.000390674
0.000360633
0.000360636
0.000360632
0.000360635
0.000377066
0.000391443
0.000390187
0.000380112
0.00039162
0.000377187
0.000380254
0.000391308
0.000377463
0.000377063
0.000390182
0.000391437
0.000380108
0.000391615
0.00038025
0.000377182
0.000391368
0.000391372
0.00037741
0.00037727
0.000377271
0.000341191
0.000354816
0.000354535
0.000341367
0.000354786
0.00034137
0.000341189
0.00035482
0.000354533
0.000341366
0.000350299
0.000350296
0.000350299
0.000322427
0.000322426
0.000322427
0.000322427
0.000340432
0.000354287
0.000349891
0.000340842
0.000353587
0.000341035
0.000340349
0.00035478
0.000341367
0.000340435
0.000349894
0.000354288
0.000340842
0.000353588
0.00034035
0.000341035
0.000354593
0.000354599
0.00033949
0.000341235
0.000341245
0.00030563
0.000318718
0.000318651
0.000305572
0.000318781
0.000305637
0.000305609
0.000318718
0.000318649
0.000305565
0.000314254
0.000314255
0.000314255
0.000290539
0.000290538
0.000290536
0.000290539
0.000305672
0.00031857
0.000315062
0.000307134
0.000318334
0.000305684
0.000306954
0.000318784
0.000305636
0.000305674
0.000315063
0.000318574
0.000307135
0.000318336
0.000306955
0.000305686
0.000318738
0.000318737
0.000305703
0.000305696
0.000305698
0.000272305
0.00028446
0.000284539
0.000272189
0.00028453
0.000272215
0.000272303
0.000284458
0.000284535
0.000272187
0.000283052
0.00028305
0.000283052
0.00026161
0.000261613
0.000261612
0.000261614
0.000272807
0.000284673
0.000283588
0.000275949
0.000284872
0.000272479
0.000276046
0.000284528
0.000272212
0.000272805
0.000283586
0.000284673
0.000275946
0.000284872
0.000276045
0.000272477
0.000284613
0.000284614
0.000273674
0.0002723
0.000272299
0.000240495
0.000252269
0.000252389
0.000240371
0.000252237
0.000240303
0.000240495
0.000252272
0.000252388
0.000240376
0.000253613
0.000253614
0.000253614
0.00022743
0.000227431
0.000227432
0.000227431
0.000240869
0.000252491
0.00025235
0.000243674
0.000252769
0.000240586
0.000244147
0.00025223
0.000240287
0.000240869
0.00025235
0.000252488
0.000243682
0.000252768
0.000244149
0.000240581
0.000252301
0.000252305
0.000241179
0.000240336
0.000240348
0.000205109
0.000219024
0.000219053
0.000205175
0.000218896
0.000205038
0.000205108
0.000219019
0.000219051
0.000205177
0.000218031
0.000218031
0.000218031
0.000187409
0.000187409
0.000187409
0.000187409
0.000204969
0.000219041
0.000217564
0.00020759
0.000219142
0.000205034
0.000207816
0.000218904
0.000205038
0.000204971
0.000217567
0.000219033
0.000207587
0.000219142
0.000207819
0.000205028
0.000218899
0.000218898
0.000204972
0.000204976
0.000204979
0.000165334
0.00018059
0.000180511
0.000165407
0.000180567
0.000165395
0.000165333
0.000180589
0.000180511
0.000165407
0.000176434
0.000176435
0.000176434
0.000144886
0.000144886
0.000144885
0.000144886
0.000165022
0.000180356
0.000176485
0.000166434
0.000180072
0.000165263
0.000166005
0.000180566
0.000165394
0.000165022
0.000176486
0.000180355
0.000166434
0.000180071
0.000166005
0.000165262
0.000180502
0.000180501
0.000164628
0.000165364
0.000165364
0.000124451
0.000139608
0.000139546
0.000124501
0.000139677
0.000124559
0.000124451
0.000139608
0.000139547
0.000124501
0.000134882
0.000134882
0.000134882
0.000106315
0.000106314
0.000106314
0.000106314
0.000124346
0.000139461
0.000135714
0.000126178
0.000139245
0.000124485
0.000125875
0.00013968
0.000124562
0.000124346
0.000135713
0.000139461
0.000126177
0.000139245
0.000125875
0.000124484
0.000139645
0.000139645
0.000124364
0.000124592
0.000124593
8.69123e-05
0.00010045
0.000100434
8.69617e-05
0.000100592
8.69768e-05
8.69113e-05
0.000100454
0.000100427
8.69597e-05
9.73166e-05
9.73177e-05
9.73176e-05
7.15632e-05
7.1564e-05
7.15622e-05
7.15626e-05
8.691e-05
0.000100365
9.76804e-05
8.88837e-05
0.000100293
8.69904e-05
8.87406e-05
0.000100592
8.69667e-05
8.6924e-05
9.76816e-05
0.000100367
8.88852e-05
0.000100297
8.87419e-05
8.69908e-05
0.000100532
0.000100537
8.70302e-05
8.70315e-05
8.70413e-05
5.31037e-05
6.55201e-05
6.54802e-05
5.31752e-05
6.5654e-05
5.30141e-05
5.31004e-05
6.55154e-05
6.54734e-05
5.31731e-05
6.3414e-05
6.34128e-05
6.34128e-05
3.95295e-05
3.95293e-05
3.95275e-05
3.9527e-05
5.31342e-05
6.54246e-05
6.33415e-05
5.5246e-05
6.53918e-05
5.32275e-05
5.5216e-05
6.56453e-05
5.3015e-05
5.31342e-05
6.33396e-05
6.5422e-05
5.52425e-05
6.53976e-05
5.5215e-05
5.32261e-05
6.54767e-05
6.54808e-05
5.32538e-05
5.31855e-05
5.31873e-05
1.96429e-05
3.23198e-05
3.24301e-05
1.90737e-05
3.26783e-05
1.84935e-05
1.96308e-05
3.23132e-05
3.24232e-05
1.90723e-05
3.17967e-05
3.17941e-05
3.17933e-05
1.08183e-05
1.08166e-05
1.08151e-05
1.0814e-05
2.01107e-05
3.22652e-05
3.12419e-05
2.31878e-05
3.2544e-05
1.95995e-05
2.35759e-05
3.26651e-05
1.84988e-05
2.01116e-05
3.12405e-05
3.22617e-05
2.31845e-05
3.25432e-05
2.35732e-05
1.96002e-05
3.21548e-05
3.21519e-05
2.09942e-05
1.93597e-05
1.93565e-05
3.17663e-06
3.66649e-06
3.13636e-06
-1.4317e-07
1.03789e-06
-3.78091e-06
3.18675e-06
3.6515e-06
3.12254e-06
-1.31736e-07
3.40229e-07
6.65898e-06
6.6583e-06
6.90266e-06
7.28791e-06
3.36194e-06
3.36245e-06
1.82038e-06
2.78924e-06
5.90315e-06
1.34585e-06
4.24413e-06
5.44984e-06
-1.69218e-06
1.00751e-06
-3.78046e-06
1.82609e-06
5.90276e-06
2.78698e-06
1.34601e-06
4.24463e-06
-1.68975e-06
5.46488e-06
-6.00702e-08
-6.00726e-08
7.89151e-07
3.44943e-06
3.47397e-06
0.000716223
0.000729471
0.000716223
0.00072947
0.000729246
0.000716206
0.000716206
0.000729458
0.000729458
0.000729444
0.000716216
0.000729464
0.000716194
0.000729443
0.000716214
0.000729461
0.000716194
0.000729381
0.000727242
0.000716223
0.000718397
0.000729412
0.000727272
0.000716224
0.000729381
0.000727242
0.000716219
0.000718396
0.000729411
0.000727272
0.000716224
0.00071622
0.000729467
0.000729246
0.000716202
0.000716202
0.000729455
0.000729455
0.000716218
0.000729467
0.000729444
0.000716217
0.000729463
0.000716195
0.000729381
0.000727242
0.000716223
0.000718398
0.000729412
0.000727272
0.000716225
0.000729444
0.000716216
0.000729463
0.000716195
0.000729381
0.000727242
0.000718397
0.000716222
0.000727272
0.000729412
0.000716225
0.00072938
0.000727241
0.000716217
0.000718395
0.00072941
0.000727274
0.00071622
0.000729441
0.000716212
0.00072946
0.00071619
0.00072938
0.000727241
0.000718395
0.000716216
0.000727274
0.00072941
0.000716219
0.000729441
0.000716211
0.000729459
0.000716189
0.000716221
0.000729469
0.000729246
0.000716204
0.000716202
0.000729457
0.000729456
0.00071622
0.000729468
0.00072938
0.000727241
0.000718395
0.000716218
0.000727274
0.00072941
0.00071622
0.00072938
0.000727242
0.000718395
0.000716216
0.000727274
0.00072941
0.00071622
0.000729441
0.000716213
0.00072946
0.000716191
0.000729441
0.000716211
0.00072946
0.00071619
0.000729246
0.0007162
0.0007162
0.000729454
0.000729454
0.000716217
0.000729466
0.000716217
0.000729466
0.000711771
0.0006985
0.000711771
0.000698501
0.000711762
0.000711762
0.000698646
0.000698492
0.000698492
0.000680693
0.000694028
0.000680693
0.000694029
0.000693839
0.000680684
0.000680685
0.000694031
0.000694032
0.000698504
0.000711767
0.000711742
0.000698505
0.00069854
0.000711716
0.000709537
0.000700669
0.000711663
0.000698524
0.000700683
0.00069854
0.000711714
0.000709536
0.000700666
0.000711663
0.000698524
0.000700682
0.000694041
0.000680694
0.000694039
0.000680717
0.000694041
0.000680698
0.000694041
0.000680718
0.000693977
0.000691814
0.000680729
0.000682956
0.000694006
0.000691824
0.000680791
0.000693977
0.000691812
0.000680734
0.000682956
0.000694006
0.000691823
0.000680791
0.000711759
0.000711758
0.000698642
0.000698491
0.00069849
0.000711767
0.0006985
0.000680697
0.00069403
0.000693835
0.000680689
0.00068069
0.000694033
0.000694032
0.000680698
0.00069403
0.000698541
0.000711716
0.000709538
0.000700669
0.000711664
0.000698525
0.000700684
0.000698505
0.000711768
0.000711743
0.000698505
0.000698541
0.000709538
0.000711715
0.000700667
0.000711664
0.000700683
0.000698524
0.000694042
0.000680695
0.00069404
0.000680716
0.000693977
0.000691814
0.00068073
0.000682956
0.000694006
0.000691824
0.00068079
0.000694042
0.000680696
0.000694039
0.000680716
0.000693977
0.000691813
0.000682956
0.000680732
0.000691824
0.000694005
0.00068079
0.000698502
0.000711765
0.000711738
0.000698504
0.000698535
0.000709532
0.00071171
0.000700662
0.000711657
0.000700677
0.000698521
0.000698502
0.000711764
0.000711738
0.000698504
0.000693974
0.00069181
0.000680736
0.000682955
0.000694005
0.00069182
0.000680795
0.00069404
0.0006807
0.000694041
0.000680723
0.000693973
0.000691809
0.000682955
0.000680737
0.00069182
0.000694004
0.000680795
0.00069404
0.000680701
0.000694041
0.000680723
0.00071176
0.000711759
0.000698643
0.000698491
0.000698491
0.000711768
0.000698501
0.000680695
0.000694029
0.000693836
0.000680687
0.000680688
0.000694032
0.000694033
0.000680697
0.00069403
0.000698536
0.000709533
0.00071171
0.000700663
0.000711658
0.000700678
0.000698521
0.000698503
0.000711766
0.000711738
0.000698505
0.000698502
0.000711764
0.000711738
0.000698503
0.000693974
0.000691811
0.000682955
0.000680735
0.000691821
0.000694005
0.000680795
0.000693974
0.000691809
0.000682955
0.000680737
0.00069182
0.000694004
0.000680795
0.00069404
0.000680699
0.000694041
0.000680722
0.00069404
0.000680701
0.00069404
0.000680723
0.000711766
0.0006985
0.000711766
0.0006985
0.000693833
0.000680691
0.000680691
0.000694033
0.000694033
0.000680699
0.00069403
0.000680699
0.00069403
0.000676209
0.000662872
0.000676209
0.000662871
0.000676207
0.000676208
0.000663047
0.00066286
0.00066286
0.000645143
0.000658403
0.000645143
0.000658402
0.000658195
0.000645123
0.000645123
0.000658395
0.000658395
0.000662859
0.000676213
0.000676218
0.000662865
0.000662918
0.000676179
0.000674069
0.000665117
0.000676191
0.000662883
0.000665155
0.000662919
0.000676184
0.00067407
0.000665123
0.000676192
0.000662886
0.000665157
0.000658374
0.00064513
0.000658392
0.000645098
0.000658374
0.000645127
0.000658393
0.000645098
0.000658321
0.000656186
0.000645127
0.000647321
0.000658347
0.000656228
0.000645125
0.000658321
0.00065619
0.000645124
0.000647321
0.000658348
0.00065623
0.000645125
0.000676212
0.000676213
0.000663055
0.000662863
0.000662865
0.000676215
0.000662875
0.00064514
0.000658403
0.000658199
0.000645119
0.000645119
0.000658395
0.000658397
0.000645139
0.000658404
0.000662917
0.00067618
0.000674068
0.000665116
0.000676189
0.000662883
0.000665154
0.000662857
0.000676211
0.000676217
0.000662864
0.000662917
0.000674069
0.00067618
0.000665119
0.00067619
0.000665155
0.000662884
0.000658374
0.00064513
0.000658391
0.000645098
0.00065832
0.000656186
0.000645127
0.00064732
0.000658346
0.000656228
0.000645125
0.000658374
0.000645129
0.000658392
0.000645098
0.00065832
0.000656188
0.000647321
0.000645126
0.000656228
0.000658347
0.000645125
0.000662863
0.000676216
0.000676225
0.000662867
0.000662925
0.000674072
0.000676188
0.000665128
0.000676198
0.000665163
0.000662889
0.000662863
0.000676217
0.000676225
0.000662868
0.000658326
0.000656192
0.000645124
0.000647324
0.00065835
0.000656235
0.000645124
0.000658377
0.000645126
0.000658394
0.000645096
0.000658326
0.000656194
0.000647324
0.000645124
0.000656236
0.000658351
0.000645124
0.000658377
0.000645125
0.000658395
0.000645096
0.000676209
0.000676212
0.000663051
0.000662862
0.000662863
0.000676213
0.000662874
0.000645141
0.000658403
0.000658198
0.000645121
0.00064512
0.000658395
0.000658396
0.00064514
0.000658403
0.000662924
0.000674071
0.000676188
0.000665127
0.000676197
0.000665161
0.000662889
0.000662862
0.000676215
0.000676223
0.000662866
0.000662862
0.000676217
0.000676224
0.000662868
0.000658324
0.00065619
0.000647323
0.000645124
0.000656234
0.000658349
0.000645124
0.000658325
0.000656193
0.000647324
0.000645123
0.000656235
0.000658351
0.000645124
0.000658376
0.000645126
0.000658393
0.000645096
0.000658377
0.000645125
0.000658395
0.000645096
0.000676216
0.000662876
0.000676216
0.000662876
0.000658202
0.000645118
0.000645118
0.000658398
0.000658398
0.000645139
0.000658404
0.000645139
0.000658404
0.000640694
0.000627446
0.000640695
0.000627446
0.000640682
0.000640683
0.000627554
0.000627425
0.000627425
0.000609621
0.000622981
0.000609621
0.000622982
0.000622756
0.000609615
0.000609615
0.000622975
0.000622976
0.000627439
0.000640685
0.000640648
0.000627448
0.000627459
0.000640625
0.000638446
0.000629587
0.000640562
0.000627456
0.000629602
0.000627459
0.000640621
0.000638446
0.000629585
0.000640561
0.000627454
0.000629601
0.000622987
0.000609641
0.000622996
0.000609677
0.000622987
0.000609641
0.000622994
0.000609677
0.000622908
0.000620753
0.000609685
0.000611909
0.000622948
0.000620763
0.00060975
0.000622907
0.00062075
0.000609686
0.000611908
0.000622945
0.000620762
0.000609749
0.000640678
0.000640677
0.00062755
0.000627422
0.000627421
0.00064069
0.000627442
0.000609622
0.000622981
0.000622751
0.000609617
0.000609617
0.000622973
0.000622971
0.000609623
0.000622979
0.00062746
0.000640627
0.000638447
0.000629588
0.000640562
0.000627457
0.000629602
0.00062744
0.000640686
0.000640649
0.000627449
0.00062746
0.000638447
0.000640622
0.000629586
0.000640562
0.000629602
0.000627456
0.000622988
0.000609641
0.000622996
0.000609677
0.000622908
0.000620753
0.000609686
0.00061191
0.000622948
0.000620764
0.00060975
0.000622987
0.00060964
0.000622994
0.000609677
0.000622908
0.000620751
0.000611909
0.000609685
0.000620763
0.000622946
0.00060975
0.000627434
0.000640683
0.000640644
0.000627445
0.000627454
0.000638446
0.00064062
0.000629582
0.000640559
0.000629598
0.000627451
0.000627434
0.000640683
0.000640644
0.000627445
0.000622903
0.000620748
0.000609686
0.000611904
0.000622943
0.000620759
0.000609746
0.000622982
0.000609643
0.000622991
0.000609677
0.000622902
0.000620747
0.000611904
0.000609686
0.000620759
0.000622942
0.000609746
0.000622982
0.000609643
0.000622991
0.000609677
0.00064068
0.000640678
0.000627551
0.000627424
0.000627422
0.000640691
0.000627443
0.000609621
0.00062298
0.000622753
0.000609615
0.000609615
0.000622974
0.000622972
0.000609622
0.000622979
0.000627455
0.000638446
0.00064062
0.000629583
0.000640559
0.000629599
0.000627451
0.000627435
0.000640684
0.000640644
0.000627446
0.000627435
0.000640682
0.000640644
0.000627444
0.000622903
0.000620749
0.000611906
0.000609685
0.00062076
0.000622944
0.000609746
0.000622903
0.000620748
0.000611905
0.000609686
0.000620759
0.000622942
0.000609746
0.000622983
0.000609643
0.000622993
0.000609677
0.000622982
0.000609643
0.000622991
0.000609677
0.000640689
0.000627441
0.000640689
0.000627441
0.00062275
0.000609616
0.000609617
0.000622971
0.000622971
0.000609622
0.000622979
0.000609623
0.000622979
0.000605122
0.00059172
0.000605122
0.00059172
0.000605122
0.000605122
0.000591948
0.000591715
0.000591715
0.000573974
0.000587224
0.000573974
0.000587224
0.000587057
0.000573939
0.000573937
0.000587224
0.000587224
0.000591726
0.000605139
0.000605165
0.00059172
0.000591804
0.000605119
0.000603012
0.000594008
0.000605149
0.00059175
0.000594047
0.000591804
0.000605121
0.000603011
0.000594008
0.000605149
0.000591752
0.000594047
0.000587206
0.000573927
0.000587215
0.000573858
0.000587206
0.000573927
0.000587217
0.000573858
0.000587169
0.000585008
0.000573892
0.000576051
0.000587181
0.000585043
0.000573861
0.00058717
0.00058501
0.000573893
0.000576052
0.000587184
0.000585043
0.000573862
0.000605123
0.000605124
0.00059195
0.000591718
0.000591718
0.000605125
0.000591723
0.000573973
0.000587225
0.000587059
0.000573937
0.000573938
0.000587226
0.000587226
0.000573973
0.000587226
0.000591803
0.00060512
0.000603012
0.000594007
0.000605149
0.00059175
0.000594046
0.000591724
0.000605138
0.000605165
0.000591719
0.000591803
0.000603011
0.000605119
0.000594007
0.000605149
0.000594046
0.00059175
0.000587205
0.000573928
0.000587215
0.000573858
0.000587167
0.000585008
0.000573893
0.00057605
0.000587181
0.000585042
0.00057386
0.000587205
0.000573928
0.000587216
0.000573858
0.000587168
0.000585009
0.000576051
0.000573894
0.000585042
0.000587181
0.00057386
0.000591728
0.000605141
0.000605166
0.000591722
0.000591807
0.000603009
0.000605121
0.000594008
0.000605147
0.000594046
0.000591753
0.000591728
0.000605141
0.000605166
0.000591722
0.000587172
0.000585011
0.000573893
0.000576054
0.000587185
0.000585044
0.000573864
0.000587209
0.000573927
0.000587219
0.00057386
0.000587172
0.000585011
0.000576054
0.000573892
0.000585044
0.000587185
0.000573864
0.000587209
0.000573925
0.000587218
0.00057386
0.000605122
0.000605122
0.000591948
0.000591716
0.000591717
0.000605123
0.000591721
0.000573974
0.000587224
0.000587058
0.000573938
0.000573938
0.000587224
0.000587225
0.000573973
0.000587225
0.000591806
0.000603009
0.000605121
0.000594008
0.000605147
0.000594045
0.000591753
0.000591728
0.000605141
0.000605166
0.000591721
0.000591728
0.000605142
0.000605166
0.000591722
0.000587171
0.000585009
0.000576053
0.000573892
0.000585043
0.000587184
0.000573864
0.000587171
0.000585011
0.000576054
0.000573893
0.000585043
0.000587185
0.000573865
0.000587208
0.000573925
0.000587217
0.00057386
0.000587208
0.000573926
0.000587219
0.000573859
0.000605124
0.000591723
0.000605125
0.000591723
0.00058706
0.000573936
0.000573936
0.000587226
0.000587226
0.000573972
0.000587226
0.000573972
0.000587226
0.000569542
0.000556378
0.000569542
0.000556376
0.000569518
0.000569517
0.000556313
0.000556348
0.000556345
0.000538665
0.000551963
0.000538663
0.000551962
0.000551586
0.000538704
0.000538703
0.000551942
0.000551942
0.000556317
0.000569507
0.000569422
0.000556358
0.000556273
0.000569403
0.000567127
0.000558316
0.00056928
0.000556331
0.000558319
0.000556273
0.000569403
0.000567128
0.000558316
0.000569281
0.000556333
0.00055832
0.000551915
0.000538713
0.00055195
0.000538782
0.000551916
0.000538714
0.000551949
0.000538782
0.000551781
0.000549612
0.000538809
0.00054092
0.000551876
0.000549611
0.000538857
0.000551781
0.000549611
0.000538808
0.000540919
0.000551875
0.000549611
0.000538856
0.000569516
0.000569516
0.000556313
0.000556343
0.000556346
0.000569541
0.000556376
0.000538665
0.000551961
0.000551585
0.000538704
0.000538703
0.00055194
0.00055194
0.000538664
0.000551961
0.000556276
0.000569403
0.000567127
0.000558316
0.00056928
0.000556335
0.00055832
0.000556317
0.000569509
0.000569423
0.00055636
0.000556275
0.000567127
0.000569404
0.000558317
0.00056928
0.00055832
0.000556336
0.000551917
0.000538712
0.000551951
0.000538783
0.000551783
0.000549613
0.000538808
0.000540921
0.000551877
0.000549612
0.000538858
0.000551917
0.000538712
0.000551951
0.000538782
0.000551783
0.000549613
0.000540921
0.000538809
0.000549612
0.000551878
0.000538858
0.000556315
0.000569507
0.000569422
0.000556356
0.000556272
0.00056713
0.000569402
0.000558316
0.000569283
0.000558321
0.000556333
0.000556315
0.000569506