/*--------------------------------*- C++ -*----------------------------------*\
| =========                 |                                                 |
| \\      /  F ield         | OpenFOAM: The Open Source CFD Toolbox           |
|  \\    /   O peration     | Version:  v1906                                 |
|   \\  /    A nd           | Web:      www.OpenFOAM.com                      |
|    \\/     M anipulation  |                                                 |
\*---------------------------------------------------------------------------*/
FoamFile
{
    version     2.0;
    format      ascii;
    class       surfaceScalarField;
    location    "375";
    object      phi;
}
// * * * * * * * * * * * * * * * * * * * * * * * * * * * * * * * * * * * * * //

dimensions      [0 3 -1 0 0 0 0];
oriented        oriented;


internalField   nonuniform List<scalar> 
123728
(
-0.00104221
-1.45815e-05
-1.44777e-05
9.34771e-06
9.17762e-06
0.00105274
-0.00026146
-5.64183e-06
1.44583e-05
6.83957e-06
0.00105941
-4.53274e-06
-1.62486e-06
-2.21805e-06
-2.57554e-06
-6.59143e-06
-7.04427e-06
-3.16375e-06
-0.000263303
-0.000259727
-0.000262829
-0.000261437
-5.64682e-06
1.44873e-05
6.92911e-06
0.0010592
-4.53785e-06
-1.63504e-06
-2.22565e-06
-2.57985e-06
-6.58553e-06
-7.04034e-06
-3.16594e-06
-0.000259699
-0.000263274
-0.000262793
-0.000260564
5.61732e-06
5.65742e-06
-4.87815e-06
-4.87221e-06
0.00025904
-1.63187e-06
-1.63376e-06
-0.00106073
8.98537e-07
8.99307e-07
0.0010622
-0.00106267
-1.60665e-06
1.62783e-06
8.28416e-07
0.00106395
-6.53884e-07
7.84506e-07
-1.48152e-07
3.78012e-07
-8.00667e-07
-1.39484e-06
-2.90552e-07
-0.00106235
-1.60156e-06
1.63834e-06
8.23605e-07
0.00106363
-6.53861e-07
7.79016e-07
-1.482e-07
3.75395e-07
-8.03195e-07
-1.39453e-06
-2.88006e-07
-0.000261533
1.63927e-06
1.60171e-06
-7.13267e-07
-7.16417e-07
0.000259722
-1.36113e-06
-1.36255e-06
-0.0010664
6.82252e-07
6.83062e-07
0.00106775
-0.0010679
-1.55714e-06
1.3673e-06
6.90355e-07
0.00106925
-6.21808e-07
8.38621e-07
-1.06579e-07
4.24393e-07
-7.80409e-07
-1.35997e-06
-2.45167e-07
-0.00106758
-1.55189e-06
1.36211e-06
6.95678e-07
0.00106892
-6.21808e-07
8.33208e-07
-1.06553e-07
4.24339e-07
-7.80332e-07
-1.35442e-06
-2.42614e-07
-0.000262766
1.58732e-06
1.55204e-06
-6.74948e-07
-6.83125e-07
0.000260984
-1.34097e-06
-1.34228e-06
-0.00107186
6.64407e-07
6.65259e-07
0.00107322
-0.00107326
-1.55556e-06
1.34198e-06
6.67285e-07
0.00107457
-6.19922e-07
8.63769e-07
-8.16608e-08
4.38219e-07
-7.79453e-07
-1.36935e-06
-2.20248e-07
-0.00107292
-1.55023e-06
1.34187e-06
6.67361e-07
0.00107424
-6.17218e-07
8.58343e-07
-8.41123e-08
4.38163e-07
-7.81917e-07
-1.36912e-06
-2.17687e-07
-0.000264044
1.58327e-06
1.55045e-06
-6.64651e-07
-6.70306e-07
0.000262245
-1.29596e-06
-1.29714e-06
-0.00107721
6.42272e-07
6.43164e-07
0.00107852
-0.00107844
-1.54748e-06
1.29689e-06
6.34139e-07
0.00107969
-6.0757e-07
8.91701e-07
-5.61668e-08
4.60175e-07
-7.68212e-07
-1.37186e-06
-1.88971e-07
-0.0010781
-1.5421e-06
1.29672e-06
6.34148e-07
0.00107936
-6.04834e-07
8.86275e-07
-5.85983e-08
4.60106e-07
-7.70679e-07
-1.37163e-06
-1.86395e-07
-0.000265263
1.5752e-06
1.5422e-06
-6.47566e-07
-6.53235e-07
0.000263446
-1.24846e-06
-1.24955e-06
-0.00108237
6.20393e-07
6.2131e-07
0.00108362
-0.00108337
-1.53911e-06
1.24924e-06
6.04444e-07
0.00108457
-5.95345e-07
9.17471e-07
-3.35478e-08
4.84362e-07
-7.53953e-07
-1.3693e-06
-1.58489e-07
-0.00108303
-1.53371e-06
1.24903e-06
6.04413e-07
0.00108423
-5.92635e-07
9.12048e-07
-3.59345e-08
4.84296e-07
-7.56405e-07
-1.36908e-06
-1.55916e-07
-0.000266409
1.56686e-06
1.5337e-06
-6.30446e-07
-6.36118e-07
0.000264575
-1.20442e-06
-1.20531e-06
-0.00108732
6.0088e-07
6.01775e-07
0.00108852
-0.00108806
-1.53246e-06
1.20488e-06
5.80481e-07
0.00108919
-5.85661e-07
9.40448e-07
-1.47468e-08
5.09044e-07
-7.40142e-07
-1.36505e-06
-1.30604e-07
-0.00108772
-1.5271e-06
1.20467e-06
5.80534e-07
0.00108885
-5.83058e-07
9.34935e-07
-1.71115e-08
5.09004e-07
-7.42601e-07
-1.36483e-06
-1.28013e-07
-0.00026748
1.56035e-06
1.52703e-06
-6.15699e-07
-6.21394e-07
0.00026563
-1.16569e-06
-1.16686e-06
-0.00109208
5.84418e-07
5.85374e-07
0.00109324
-0.00109251
-1.52798e-06
1.16654e-06
5.6241e-07
0.00109359
-5.79083e-07
9.60467e-07
-3.15362e-10
5.33101e-07
-7.27961e-07
-1.36099e-06
-1.05786e-07
-0.00109217
-1.52254e-06
1.16637e-06
5.62583e-07
0.00109325
-5.76295e-07
9.54931e-07
-2.54786e-09
5.33062e-07
-7.30464e-07
-1.36077e-06
-1.03176e-07
-0.000268483
1.55611e-06
1.52259e-06
-6.03771e-07
-6.09527e-07
0.000266618
-1.13203e-06
-1.13329e-06
-0.00109667
5.7038e-07
5.71059e-07
0.00109779
-0.00109676
-1.52686e-06
1.13282e-06
5.48618e-07
0.00109779
-5.7621e-07
9.77154e-07
1.77741e-08
5.55849e-07
-7.17398e-07
-1.35768e-06
-8.40487e-08
-0.00109641
-1.52111e-06
1.13271e-06
5.48625e-07
0.00109744
-5.72699e-07
9.71697e-07
1.48531e-08
5.55652e-07
-7.20005e-07
-1.35748e-06
-8.1555e-08
-0.000269423
1.5546e-06
1.52098e-06
-5.95124e-07
-6.00792e-07
0.000267544
-1.10308e-06
-1.10419e-06
-0.00110111
5.58524e-07
5.59186e-07
0.0011022
-0.00110081
-1.52697e-06
1.10422e-06
5.38039e-07
0.0011018
-5.73738e-07
9.92028e-07
3.1572e-08
5.77126e-07
-7.08251e-07
-1.3553e-06
-6.5168e-08
-0.00110047
-1.52156e-06
1.10417e-06
5.38125e-07
0.00110145
-5.71235e-07
9.8648e-07
2.81339e-08
5.77234e-07
-7.10565e-07
-1.3549e-06
-6.24744e-08
-0.000270304
1.55545e-06
1.52169e-06
-5.89588e-07
-5.95319e-07
0.000268412
-1.07853e-06
-1.07951e-06
-0.00110542
5.4877e-07
5.49453e-07
0.00110648
-0.0011047
-1.52844e-06
1.07926e-06
5.28828e-07
0.00110564
-5.71619e-07
1.00657e-06
4.14253e-08
5.97534e-07
-6.98576e-07
-1.35218e-06
-4.88036e-08
-0.00110435
-1.52258e-06
1.07905e-06
5.28733e-07
0.0011053
-5.70213e-07
1.00087e-06
4.12274e-08
5.97185e-07
-7.01382e-07
-1.35215e-06
-4.64037e-08
-0.000271132
1.55666e-06
1.52278e-06
-5.83873e-07
-5.89641e-07
0.000269226
-1.05568e-06
-1.05666e-06
-0.00110962
5.39626e-07
5.403e-07
0.00111065
-0.00110843
-1.52992e-06
1.05682e-06
5.20197e-07
0.00110934
-5.70234e-07
1.01964e-06
5.09676e-08
6.16023e-07
-6.8907e-07
-1.34914e-06
-3.47242e-08
-0.00110808
-1.52441e-06
1.0566e-06
5.20145e-07
0.00110899
-5.70466e-07
1.01423e-06
5.12112e-08
6.16093e-07
-6.91456e-07
-1.3487e-06
-3.2169e-08
-0.000271907
1.55828e-06
1.52426e-06
-5.78999e-07
-5.84814e-07
0.000269989
-1.03426e-06
-1.03519e-06
-0.00111371
5.30937e-07
5.3161e-07
0.00111472
-0.00111201
-1.53118e-06
1.03484e-06
5.10486e-07
0.00111288
-5.68831e-07
1.03335e-06
6.27858e-08
6.32937e-07
-6.77754e-07
-1.34418e-06
-2.27211e-08
-0.00111166
-1.52544e-06
1.03455e-06
5.10354e-07
0.00111252
-5.68047e-07
1.02781e-06
6.32315e-08
6.32721e-07
-6.80369e-07
-1.34399e-06
-2.0391e-08
-0.00027263
1.56017e-06
1.52603e-06
-5.75392e-07
-5.81268e-07
0.000270701
-1.013e-06
-1.01389e-06
-0.0011177
5.22138e-07
5.22869e-07
0.00111868
-0.00111543
-1.53314e-06
1.01427e-06
5.00809e-07
0.00111627
-5.67468e-07
1.04591e-06
7.06204e-08
6.49036e-07
-6.65089e-07
-1.33809e-06
-1.16637e-08
-0.00111508
-1.52754e-06
1.01412e-06
5.00942e-07
0.00111592
-5.67998e-07
1.04046e-06
7.0418e-08
6.49235e-07
-6.675e-07
-1.33773e-06
-9.13677e-09
-0.0002733
1.56145e-06
1.52728e-06
-5.69336e-07
-5.7497e-07
0.000271355
-9.92794e-07
-9.9354e-07
-0.00112159
5.1348e-07
5.14211e-07
0.00112255
-0.00111871
-1.53299e-06
9.92988e-07
4.90043e-07
0.00111951
-5.61567e-07
1.05885e-06
8.04348e-08
6.62222e-07
-6.51241e-07
-1.33042e-06
-3.3824e-09
-0.00111836
-1.52746e-06
9.92932e-07
4.90114e-07
0.00111916
-5.61493e-07
1.05309e-06
8.0005e-08
6.62251e-07
-6.53827e-07
-1.33023e-06
-1.2902e-09
-0.000273915
1.56199e-06
1.52774e-06
-5.62333e-07
-5.68031e-07
0.000271956
-9.71067e-07
-9.71815e-07
-0.00112539
5.04049e-07
5.04782e-07
0.00112633
-0.00112184
-1.53337e-06
9.71919e-07
4.77918e-07
0.00112259
-5.57998e-07
1.07127e-06
8.78525e-08
6.7507e-07
-6.35661e-07
-1.32099e-06
7.68713e-09
-0.00112148
-1.52786e-06
9.71605e-07
4.77281e-07
0.00112224
-5.5822e-07
1.06575e-06
8.81135e-08
6.7511e-07
-6.38071e-07
-1.32061e-06
1.11736e-08
-0.000274471
1.56217e-06
1.52783e-06
-5.5518e-07
-5.60908e-07
0.000272497
-9.50523e-07
-9.51242e-07
-0.00112909
4.94877e-07
4.95547e-07
0.00113
-0.0011248
-1.5319e-06
9.50754e-07
4.66186e-07
0.00112552
-5.48865e-07
1.08234e-06
9.45171e-08
6.84849e-07
-6.20348e-07
-1.31123e-06
1.7136e-08
-0.00112445
-1.52618e-06
9.50509e-07
4.65764e-07
0.00112516
-5.48163e-07
1.07668e-06
9.4985e-08
6.84511e-07
-6.23075e-07
-1.31109e-06
2.00421e-08
-0.000274965
1.56106e-06
1.52663e-06
-5.46355e-07
-5.52081e-07
0.000272976
-9.27839e-07
-9.28545e-07
-0.0011327
4.84262e-07
4.8492e-07
0.00113359
-0.0011276
-1.53045e-06
9.28639e-07
4.5533e-07
0.00112828
-5.41581e-07
1.09314e-06
1.01833e-07
6.94729e-07
-6.02865e-07
-1.29892e-06
2.62315e-08
-0.00112725
-1.52519e-06
9.2893e-07
4.5534e-07
0.00112792
-5.42272e-07
1.08711e-06
1.0061e-07
6.94905e-07
-6.0542e-07
-1.2988e-06
2.97551e-08
-0.000275394
1.55948e-06
1.52495e-06
-5.37888e-07
-5.43633e-07
0.000273391
-9.06816e-07
-9.07307e-07
-0.00113622
4.74456e-07
4.75201e-07
0.00113708
-0.00113024
-1.52682e-06
9.07167e-07
4.44513e-07
0.00113087
-5.28794e-07
1.10287e-06
1.08765e-07
7.02116e-07
-5.86586e-07
-1.28599e-06
3.29321e-08
-0.00112988
-1.52149e-06
9.06708e-07
4.43911e-07
0.00113051
-5.29306e-07
1.09744e-06
1.0967e-07
7.02318e-07
-5.88695e-07
-1.28529e-06
3.60796e-08
-0.000275757
1.55592e-06
1.52134e-06
-5.26714e-07
-5.32452e-07
0.000273738
-8.86393e-07
-8.86918e-07
-0.00113964
4.65313e-07
4.66013e-07
0.00114048
-0.00113269
-1.5229e-06
8.8679e-07
4.34856e-07
0.00113328
-5.18774e-07
1.11077e-06
1.12176e-07
7.10168e-07
-5.69364e-07
-1.27182e-06
4.07593e-08
-0.00113233
-1.51708e-06
8.86344e-07
4.34318e-07
0.00113292
-5.17779e-07
1.10536e-06
1.1306e-07
7.09682e-07
-5.72168e-07
-1.27169e-06
4.34425e-08
-0.000276047
1.55219e-06
1.51755e-06
-5.16281e-07
-5.2199e-07
0.000274015
-8.70993e-07
-8.65862e-07
-0.00114296
4.56023e-07
4.5668e-07
0.00114379
-0.00113497
-1.51805e-06
8.60402e-07
4.2532e-07
0.00113551
-5.10561e-07
1.11845e-06
1.21148e-07
7.20572e-07
-5.51759e-07
-1.25522e-06
4.71866e-08
-0.00113461
-1.51234e-06
8.65776e-07
4.1422e-07
-5.07425e-07
1.11259e-06
1.17814e-07
7.17485e-07
-5.54454e-07
-1.25528e-06
5.03123e-08
0.00113516
-0.000276267
1.54733e-06
1.50985e-06
-5.05528e-07
-5.11254e-07
0.000274226
5.22146e-06
5.23231e-06
0.000260567
-0.000259171
-5.93189e-06
-5.91777e-06
5.08158e-06
0.000261409
-0.000258686
-5.96204e-06
3.37916e-06
-5.22153e-06
5.07656e-06
0.000261442
-0.000258702
-5.97005e-06
3.37432e-06
5.22214e-06
0.000260579
-0.000259173
-5.90328e-06
-5.94651e-06
5.07467e-06
0.000261473
-0.000258717
-5.96755e-06
3.369e-06
5.0814e-06
-5.22378e-06
0.000261417
-0.000258686
3.38421e-06
-5.97225e-06
1.07111e-05
1.06174e-05
-0.000252649
-0.000256079
-0.000255118
-0.000255118
-6.41734e-06
-4.12515e-06
-6.6623e-06
-6.41771e-06
-4.12609e-06
-6.66784e-06
-5.06963e-06
0.00104223
1.06707e-05
1.06227e-05
-0.000252651
-0.000256076
-0.000255121
-0.000255121
-6.41996e-06
-4.12544e-06
-6.66504e-06
-6.41517e-06
-4.12087e-06
-6.66025e-06
-5.06927e-06
0.00104211
1.0731e-05
1.06833e-05
-0.000252643
-0.000256071
-0.000255118
-0.000255113
-6.41981e-06
-4.13282e-06
-6.66497e-06
-6.42001e-06
-4.12309e-06
-6.66258e-06
-5.08397e-06
-5.07209e-06
0.00104217
1.07263e-05
1.06276e-05
-0.000252646
-0.000256074
-0.000255118
-0.000255118
-6.4147e-06
-4.12777e-06
-6.65997e-06
-6.42014e-06
-4.12593e-06
-6.6653e-06
-0.000258712
-5.95991e-06
3.36394e-06
-5.22138e-06
0.000261404
-0.000258684
3.37919e-06
-5.96198e-06
5.22453e-06
0.000260559
-0.000259158
-5.9056e-06
-5.94373e-06
-0.000258697
3.37148e-06
-5.95704e-06
-5.23228e-06
0.000261471
-0.000258712
3.36649e-06
-5.96502e-06
-0.000259168
-5.93177e-06
-5.9178e-06
5.61757e-06
5.65479e-06
-4.87838e-06
-4.87223e-06
0.000259045
-7.8048e-07
-7.44602e-07
0.000261544
-0.000259462
-2.82247e-07
-2.74854e-07
7.09203e-06
0.00105882
-4.53008e-06
-1.57833e-06
-2.21273e-06
-2.57666e-06
-6.60588e-06
-7.05009e-06
-3.17074e-06
-0.000263264
-0.000259684
-0.000262793
-5.62803e-06
1.4555e-05
7.03143e-06
0.00105919
-4.5492e-06
-1.57072e-06
-2.21587e-06
-2.58757e-06
-6.6374e-06
-7.067e-06
-3.18641e-06
-0.000263338
-0.000259715
-0.000262834
0.00106192
2.02401e-06
-0.00106086
9.73753e-07
-1.71809e-06
-1.6911e-07
-6.92238e-07
-1.46543e-06
-3.07557e-07
-8.28052e-07
3.43223e-07
7.88561e-07
0.00106234
2.02437e-06
-0.00106128
9.68688e-07
-1.7285e-06
-1.61616e-07
-6.97736e-07
-1.47114e-06
-3.07707e-07
-8.28418e-07
3.48638e-07
-4.87646e-06
-4.86912e-06
0.000259055
-7.47275e-07
0.000261569
-0.000259482
-2.79602e-07
-2.71987e-07
6.81326e-06
0.00105966
-4.55437e-06
-1.63766e-06
-2.22893e-06
-2.58587e-06
-6.61991e-06
-7.06238e-06
-3.18164e-06
-0.000263359
-0.000259742
-0.000262847
-5.62773e-06
1.45894e-05
7.12547e-06
0.00105896
-4.54903e-06
-1.58079e-06
-2.2209e-06
-2.58953e-06
-6.6367e-06
-7.06587e-06
-3.18603e-06
-0.000259684
-0.000263315
-0.000262806
0.00106294
2.03159e-06
-0.00106187
9.6225e-07
-1.68817e-06
-1.71619e-07
-6.92516e-07
-1.46847e-06
-3.07668e-07
-8.25819e-07
3.45597e-07
7.77941e-07
0.00106203
2.0346e-06
-0.00106099
9.84064e-07
-1.71815e-06
-1.66661e-07
-6.92434e-07
-1.46825e-06
-3.0509e-07
-8.30807e-07
3.43167e-07
1.45864e-05
7.11279e-06
0.00105877
-4.53002e-06
-1.57822e-06
-2.2101e-06
-2.57669e-06
-6.60589e-06
-3.17079e-06
-7.04777e-06
-0.000259679
-0.000263259
-0.000262788
2.03091e-06
-0.00106161
9.67484e-07
-1.68807e-06
-1.68947e-07
-6.89596e-07
-1.46576e-06
-3.10041e-07
3.40406e-07
-8.25541e-07
7.77916e-07
0.00106182
2.03422e-06
-0.00106078
9.84099e-07
-1.71806e-06
-1.66544e-07
-6.92193e-07
-1.46811e-06
-3.07529e-07
-8.28007e-07
3.45757e-07
-4.88128e-06
-4.8689e-06
0.000259035
-7.39133e-07
0.000261521
-0.000259444
-2.82649e-07
-2.77214e-07
1.44875e-05
6.83175e-06
0.00105961
-4.55451e-06
-1.63767e-06
-2.22898e-06
-2.58569e-06
-6.61978e-06
-3.18154e-06
-7.05965e-06
-0.000259732
-0.000263356
-0.000262842
2.03595e-06
-0.00106131
9.83007e-07
-1.68558e-06
-1.71495e-07
-6.92266e-07
-1.46262e-06
-3.05022e-07
3.40449e-07
-8.28068e-07
7.39228e-07
0.00106284
2.03659e-06
-0.00106179
9.72565e-07
-1.68313e-06
-1.71647e-07
-6.89937e-07
-1.4657e-06
-3.07508e-07
-8.28235e-07
3.40607e-07
-0.000259459
-2.79779e-07
-2.77428e-07
1.63935e-06
1.60415e-06
-7.10558e-07
-7.19028e-07
0.00025973
-8.66327e-07
-8.27634e-07
0.000262778
-0.000260667
-2.12632e-07
-2.0506e-07
8.29639e-07
0.00106319
-6.56437e-07
8.17756e-07
-1.43307e-07
3.78169e-07
-8.00557e-07
-1.39714e-06
-2.90469e-07
-1.64463e-06
1.63226e-06
8.24415e-07
0.00106362
-6.59292e-07
8.25831e-07
-1.4331e-07
3.83593e-07
-8.03531e-07
-1.40283e-06
-2.88163e-07
0.00106713
1.38301e-06
-0.0010658
7.02153e-07
-1.59181e-06
-1.03507e-07
-6.28646e-07
-1.35465e-06
-2.49025e-07
-7.76786e-07
4.22399e-07
8.71694e-07
0.00106757
1.38328e-06
-0.00106623
6.97078e-07
-1.59715e-06
-1.03624e-07
-6.28887e-07
-1.35764e-06
-2.49137e-07
-7.77135e-07
4.25207e-07
-7.1105e-07
-7.18359e-07
0.000259748
-8.32892e-07
0.000262804
-0.000260679
-2.12671e-07
-2.07558e-07
8.23145e-07
0.00106421
-6.54075e-07
7.81855e-07
-1.45762e-07
3.80615e-07
-8.03599e-07
-1.40028e-06
-2.88113e-07
-1.63935e-06
1.63748e-06
8.29699e-07
0.0010633
-6.59278e-07
8.1786e-07
-1.43347e-07
3.78183e-07
-8.03265e-07
-1.39733e-06
-2.87988e-07
0.00106816
1.38438e-06
-0.00106684
7.01113e-07
-1.5539e-06
-1.0844e-07
-6.23644e-07
-1.35235e-06
-2.466e-07
-7.77127e-07
4.25054e-07
8.61111e-07
0.00106725
1.38304e-06
-0.00106591
7.02236e-07
-1.58922e-06
-1.06088e-07
-6.28801e-07
-1.35478e-06
-2.48991e-07
-7.7684e-07
4.25178e-07
1.63205e-06
8.29733e-07
0.0010631
-6.59064e-07
8.15184e-07
-1.45744e-07
3.78104e-07
-8.03182e-07
-2.88027e-07
-1.39723e-06
1.38399e-06
-0.00106657
7.06472e-07
-1.56169e-06
-1.10859e-07
-6.235e-07
-1.35226e-06
-2.46619e-07
4.24923e-07
-7.76931e-07
8.6371e-07
0.00106704
1.37773e-06
-0.0010657
7.02253e-07
-1.58914e-06
-1.05956e-07
-6.28628e-07
-1.35472e-06
-2.49057e-07
-7.76779e-07
4.22415e-07
-7.13819e-07
-7.15801e-07
0.000259709
-8.24827e-07
0.000262753
-0.000260646
-2.12858e-07
-2.07512e-07
1.63355e-06
8.18033e-07
0.00106413
-6.54134e-07
7.76438e-07
-1.50873e-07
3.75479e-07
-8.00812e-07
-2.92947e-07
-1.39476e-06
1.38398e-06
-0.00106625
7.01388e-07
-1.55117e-06
-1.10859e-07
-6.23457e-07
-1.34669e-06
-2.49032e-07
4.16864e-07
-7.76854e-07
8.27504e-07
0.00106807
1.38438e-06
-0.00106674
7.01192e-07
-1.55136e-06
-1.11003e-07
-6.23726e-07
-1.35492e-06
-2.49052e-07
-7.7971e-07
4.22389e-07
-0.000260654
-2.12726e-07
-2.07642e-07
1.58996e-06
1.55722e-06
-6.72243e-07
-6.80579e-07
0.000260984
-8.90463e-07
-8.54252e-07
0.00026406
-0.000261937
-1.91669e-07
-1.86609e-07
6.91218e-07
0.00106848
-6.29698e-07
8.72077e-07
-9.92428e-08
4.24537e-07
-7.77653e-07
-1.35445e-06
-2.47568e-07
-1.59532e-06
1.36146e-06
7.01847e-07
0.00106891
-6.29893e-07
8.77477e-07
-9.932e-08
4.30068e-07
-7.8062e-07
-1.36007e-06
-2.42708e-07
0.00107249
1.34953e-06
-0.00107117
6.75832e-07
-1.58991e-06
-8.56009e-08
-6.24927e-07
-1.367e-06
-2.29923e-07
-7.78111e-07
4.3386e-07
8.95955e-07
0.00107292
1.34981e-06
-0.00107159
6.76034e-07
-1.59526e-06
-8.30566e-08
-6.27793e-07
-1.37529e-06
-2.25043e-07
-7.83674e-07
4.42088e-07
-6.75272e-07
-6.77484e-07
0.000261005
-8.56968e-07
0.000264088
-0.000261963
-1.8896e-07
-1.8376e-07
6.90229e-07
0.00106952
-6.27357e-07
8.35996e-07
-1.04169e-07
4.27151e-07
-7.80585e-07
-1.36003e-06
-2.42665e-07
-1.58734e-06
1.36128e-06
6.96572e-07
0.00106859
-6.29842e-07
8.69495e-07
-9.92946e-08
4.27292e-07
-7.80301e-07
-1.35721e-06
-2.4254e-07
0.00107352
1.35085e-06
-0.0010722
6.74842e-07
-1.55439e-06
-8.80373e-08
-6.2253e-07
-1.36993e-06
-2.24987e-07
-7.83676e-07
4.36521e-07
8.90588e-07
0.0010726
1.34961e-06
-0.00107127
6.75978e-07
-1.58993e-06
-8.30218e-08
-6.27724e-07
-1.36968e-06
-2.24883e-07
-7.83371e-07
4.36603e-07
1.36626e-06
6.91332e-07
0.00106839
-6.27005e-07
8.66802e-07
-1.0417e-07
4.27183e-07
-7.8025e-07
-2.45101e-07
-1.35716e-06
1.3505e-06
-0.00107193
6.74948e-07
-1.55696e-06
-8.78046e-08
-6.22369e-07
-1.36723e-06
-2.27528e-07
4.33716e-07
-7.80918e-07
8.85153e-07
0.0010724
1.34943e-06
-0.00107107
6.75937e-07
-1.58461e-06
-8.79885e-08
-6.22147e-07
-1.36707e-06
-2.27452e-07
-7.80715e-07
4.33838e-07
-6.75363e-07
-6.80003e-07
0.000260969
-8.51541e-07
0.000264039
-0.000261921
-1.91657e-07
-1.83772e-07
1.36252e-06
6.95527e-07
0.00106942
-6.22098e-07
8.27949e-07
-1.09181e-07
4.24573e-07
-7.77911e-07
-2.45114e-07
-1.35476e-06
1.35041e-06
-0.0010716
6.75026e-07
-1.55164e-06
-9.02683e-08
-6.19663e-07
-1.36693e-06
-2.24983e-07
4.33714e-07
-7.83406e-07
8.51492e-07
0.00107344
1.35086e-06
-0.00107211
6.7488e-07
-1.55184e-06
-9.05001e-08
-6.19891e-07
-1.36469e-06
-2.27463e-07
-7.81004e-07
4.31216e-07
-0.000261934
-1.89167e-07
-1.83971e-07
1.58852e-06
1.55296e-06
-6.6187e-07
-6.676e-07
0.000262248
-9.18503e-07
-8.82145e-07
0.000265279
-0.000263155
-1.6392e-07
-1.5879e-07
6.68133e-07
0.00107381
-6.22438e-07
8.97394e-07
-7.91952e-08
4.38285e-07
-7.76662e-07
-1.36912e-06
-2.22715e-07
-1.59391e-06
1.3413e-06
6.68363e-07
0.00107423
-6.25351e-07
9.02799e-07
-7.69194e-08
4.46598e-07
-7.82209e-07
-1.37744e-06
-2.17749e-07
0.00107767
1.30797e-06
-0.0010764
6.43185e-07
-1.5828e-06
-6.0081e-08
-6.13424e-07
-1.37166e-06
-1.99334e-07
-7.68751e-07
4.54437e-07
9.23932e-07
0.00107809
1.30827e-06
-0.00107682
6.43407e-07
-1.58807e-06
-5.77042e-08
-6.15948e-07
-1.38008e-06
-1.94408e-07
-7.74404e-07
4.62643e-07
-6.65029e-07
-6.69729e-07
0.000262274
-8.84765e-07
0.000265307
-0.000263181
-1.61354e-07
-1.56084e-07
6.67148e-07
0.00107484
-6.20033e-07
8.61141e-07
-8.16292e-08
4.40974e-07
-7.82225e-07
-1.37206e-06
-2.17763e-07
-1.58857e-06
1.34109e-06
6.68305e-07
0.00107391
-6.25288e-07
8.97431e-07
-7.68726e-08
4.41097e-07
-7.81909e-07
-1.3718e-06
-2.17606e-07
0.0010787
1.30919e-06
-0.00107743
6.42213e-07
-1.54711e-06
-6.24868e-08
-6.11006e-07
-1.37461e-06
-1.94354e-07
-7.74332e-07
4.57127e-07
9.18541e-07
0.00107777
1.30803e-06
-0.0010765
6.43304e-07
-1.5827e-06
-5.7661e-08
-6.15882e-07
-1.37438e-06
-1.94262e-07
-7.74095e-07
4.57171e-07
1.3409e-06
6.6823e-07
0.00107371
-6.19793e-07
8.92075e-07
-8.16132e-08
4.38309e-07
-7.79228e-07
-2.20219e-07
-1.36917e-06
1.30888e-06
-0.00107716
6.42316e-07
-1.54959e-06
-6.24307e-08
-6.10508e-07
-1.37194e-06
-1.96905e-07
4.54284e-07
-7.71646e-07
9.13059e-07
0.00107757
1.30791e-06
-0.0010763
6.43296e-07
-1.57746e-06
-6.26739e-08
-6.10541e-07
-1.37179e-06
-1.96798e-07
-7.71392e-07
4.54433e-07
-6.62454e-07
-6.69676e-07
0.000262232
-8.79352e-07
0.000265258
-0.00026314
-1.64002e-07
-1.56099e-07
1.34229e-06
6.67189e-07
0.00107475
-6.17526e-07
8.58388e-07
-8.41123e-08
4.35682e-07
-7.79519e-07
-2.20228e-07
-1.36678e-06
1.30872e-06
-0.00107683
6.4233e-07
-1.54421e-06
-6.48468e-08
-6.0778e-07
-1.37167e-06
-1.94355e-07
4.54273e-07
-7.74138e-07
8.79288e-07
0.00107861
1.30918e-06
-0.00107734
6.42252e-07
-1.54451e-06
-6.51421e-08
-6.08244e-07
-1.36938e-06
-1.96794e-07
-7.71675e-07
4.51813e-07
-0.000263153
-1.61606e-07
-1.56355e-07
1.58046e-06
1.54474e-06
-6.44771e-07
-6.50486e-07
0.000263449
-9.45108e-07
-9.08608e-07
0.000266424
-0.000264302
-1.366e-07
-1.31395e-07
6.34952e-07
0.00107892
-6.09711e-07
9.25333e-07
-5.40279e-08
4.60215e-07
-7.65505e-07
-1.37178e-06
-1.91387e-07
-1.58601e-06
1.29631e-06
6.35208e-07
0.00107935
-6.13011e-07
9.30895e-07
-5.14639e-08
4.68584e-07
-7.70967e-07
-1.38e-06
-1.86462e-07
0.0010826
1.26009e-06
-0.00108139
6.12103e-07
-1.57429e-06
-3.65729e-08
-6.00772e-07
-1.36985e-06
-1.68379e-07
-7.54672e-07
4.7833e-07
9.50285e-07
0.00108302
1.26053e-06
-0.00108182
6.12471e-07
-1.57956e-06
-3.48251e-08
-6.03206e-07
-1.37844e-06
-1.63314e-07
-7.60403e-07
4.86713e-07
-6.48252e-07
-6.52939e-07
0.000263475
-9.10959e-07
0.000266453
-0.000264328
-1.34585e-07
-1.29282e-07
6.33982e-07
0.00107996
-6.073e-07
8.88915e-07
-5.64459e-08
4.62949e-07
-7.71062e-07
-1.37463e-06
-1.86421e-07
-1.58063e-06
1.29605e-06
6.35108e-07
0.00107903
-6.1293e-07
9.25514e-07
-5.14222e-08
4.63085e-07
-7.70678e-07
-1.37436e-06
-1.86296e-07
0.00108364
1.26119e-06
-0.00108243
6.11164e-07
-1.53844e-06
-3.89462e-08
-5.98339e-07
-1.37282e-06
-1.63368e-07
-7.6024e-07
4.81127e-07
9.44887e-07
0.0010827
1.26023e-06
-0.00108149
6.12324e-07
-1.57417e-06
-3.47568e-08
-6.03105e-07
-1.37267e-06
-1.63184e-07
-7.60073e-07
4.81164e-07
1.29585e-06
6.34984e-07
0.00107883
-6.07072e-07
9.20067e-07
-5.61636e-08
4.60208e-07
-7.68054e-07
-1.88962e-07
-1.37173e-06
1.261e-06
-0.00108216
6.11406e-07
-1.54093e-06
-3.9501e-08
-5.97774e-07
-1.37023e-06
-1.65827e-07
4.78336e-07
-7.57599e-07
9.39536e-07
0.0010825
1.26009e-06
-0.00108129
6.12282e-07
-1.56905e-06
-3.93862e-08
-5.98147e-07
-1.37001e-06
-1.6575e-07
-7.57276e-07
4.78486e-07
-6.45636e-07
-6.5288e-07
0.000263434
-9.05546e-07
0.000266403
-0.000264286
-1.37217e-07
-1.29267e-07
1.29708e-06
6.33962e-07
0.00107987
-6.04767e-07
8.86271e-07
-5.86172e-08
4.57579e-07
-7.68341e-07
-1.88951e-07
-1.36933e-06
1.26078e-06
-0.00108182
6.11339e-07
-1.53548e-06
-4.18521e-08
-5.94965e-07
-1.36997e-06
-1.63275e-07
4.7832e-07
-7.60122e-07
9.05654e-07
0.00108355
1.26121e-06
-0.00108234
6.11263e-07
-1.53593e-06
-4.18054e-08
-5.95819e-07
-1.36759e-06
-1.6573e-07
-7.57551e-07
4.75888e-07
-0.0002643
-1.34511e-07
-1.29199e-07
1.57224e-06
1.53636e-06
-6.27898e-07
-6.33609e-07
0.000264577
-9.68892e-07
-9.32253e-07
0.000267496
-0.000265376
-1.11976e-07
-1.06701e-07
6.053e-07
0.00108379
-5.97503e-07
9.50983e-07
-3.20084e-08
4.84555e-07
-7.51236e-07
-1.36933e-06
-1.608e-07
-1.57781e-06
1.24878e-06
6.05493e-07
0.00108422
-6.00796e-07
9.56824e-07
-2.89175e-08
4.92784e-07
-7.56704e-07
-1.37748e-06
-1.55992e-07
0.00108728
1.21473e-06
-0.00108613
5.86761e-07
-1.56731e-06
-1.68925e-08
-5.90401e-07
-1.36594e-06
-1.39687e-07
-7.40586e-07
5.03081e-07
9.73899e-07
0.00108771
1.21519e-06
-0.00108656
5.8708e-07
-1.57265e-06
-1.56514e-08
-5.92942e-07
-1.37454e-06
-1.34485e-07
-7.46284e-07
5.11635e-07
-6.31385e-07
-6.36093e-07
0.000264603
-9.34441e-07
0.000267525
-0.000265401
-1.10344e-07
-1.05046e-07
6.04366e-07
0.00108483
-5.95077e-07
9.14444e-07
-3.43697e-08
4.87246e-07
-7.56836e-07
-1.37217e-06
-1.55817e-07
-1.57241e-06
1.24849e-06
6.05373e-07
0.0010839
-6.0075e-07
9.51411e-07
-2.88903e-08
4.87349e-07
-7.56395e-07
-1.3718e-06
-1.55801e-07
0.00108833
1.21569e-06
-0.00108718
5.85754e-07
-1.53131e-06
-1.91921e-08
-5.87957e-07
-1.36887e-06
-1.34691e-07
-7.46163e-07
5.05869e-07
9.68463e-07
0.00108739
1.21497e-06
-0.00108624
5.87018e-07
-1.56722e-06
-1.55979e-08
-5.92785e-07
-1.36886e-06
-1.3439e-07
-7.46028e-07
5.06053e-07
1.2483e-06
6.05265e-07
0.00108369
-5.94543e-07
9.45744e-07
-3.39006e-08
4.84385e-07
-7.53863e-07
-1.58455e-07
-1.36927e-06
1.21558e-06
-0.00108691
5.86045e-07
-1.53384e-06
-2.01809e-08
-5.87502e-07
-1.36635e-06
-1.37059e-07
5.03162e-07
-7.43524e-07
9.63203e-07
0.00108718
1.21474e-06
-0.00108603
5.86937e-07
-1.56219e-06
-1.98121e-08
-5.88065e-07
-1.36604e-06
-1.37024e-07
-7.43167e-07
5.03303e-07
-6.28791e-07
-6.36054e-07
0.000264562
-9.2898e-07
0.000267475
-0.000265359
-1.13009e-07
-1.05045e-07
1.2494e-06
6.04269e-07
0.00108474
-5.92213e-07
9.11841e-07
-3.62965e-08
4.81725e-07
-7.54147e-07
-1.58437e-07
-1.36685e-06
1.21533e-06
-0.00108657
5.86008e-07
-1.52837e-06
-2.24847e-08
-5.84633e-07
-1.36609e-06
-1.3454e-07
5.03111e-07
-7.46095e-07
9.29215e-07
0.00108824
1.21575e-06
-0.00108709
5.85899e-07
-1.5289e-06
-2.21505e-08
-5.85706e-07
-1.36361e-06
-1.37004e-07
-7.43436e-07
5.0072e-07
-0.000265373
-1.10057e-07
-1.04689e-07
1.56581e-06
1.52978e-06
-6.13292e-07
-6.19049e-07
0.000265632
-9.92538e-07
-9.5312e-07
0.000268501
-0.00026638
-9.03596e-08
-8.50568e-08
5.81667e-07
0.00108841
-5.87905e-07
9.76543e-07
-1.14581e-08
5.0928e-07
-7.37449e-07
-1.36511e-06
-1.32825e-07
-1.57134e-06
1.20451e-06
5.81534e-07
0.00108884
-5.91129e-07
9.79917e-07
-1.03391e-08
5.17557e-07
-7.42839e-07
-1.3732e-06
-1.28009e-07
0.00109173
1.17483e-06
-0.00109064
5.67317e-07
-1.56527e-06
7.72615e-10
-5.86003e-07
-1.36167e-06
-1.14096e-07
-7.27969e-07
5.27379e-07
9.94805e-07
0.00109216
1.17521e-06
-0.00109107
5.67519e-07
-1.56788e-06
-6.15073e-10
-5.85594e-07
-1.36769e-06
-1.08931e-07
-7.33756e-07
5.33097e-07
-6.16692e-07
-6.21474e-07
0.000265659
-9.55222e-07
0.000268528
-0.000266406
-8.88989e-08
-8.35179e-08
5.80581e-07
0.00108946
-5.85479e-07
9.37176e-07
-1.6014e-08
5.12027e-07
-7.43078e-07
-1.368e-06
-1.27855e-07
-1.56598e-06
1.20436e-06
5.81548e-07
0.00108852
-5.91205e-07
9.74466e-07
-1.03498e-08
5.12001e-07
-7.42573e-07
-1.36748e-06
-1.27893e-07
0.00109278
1.17584e-06
-0.00109169
5.66454e-07
-1.52635e-06
-3.67269e-09
-5.80813e-07
-1.36461e-06
-1.09103e-07
-7.33589e-07
5.30062e-07
9.8932e-07
0.00109184
1.17498e-06
-0.00109074
5.6751e-07
-1.56245e-06
-5.93863e-10
-5.85467e-07
-1.36468e-06
-1.088e-07
-7.3349e-07
5.30372e-07
1.2041e-06
5.81439e-07
0.00108831
-5.84727e-07
9.6861e-07
-1.53638e-08
5.09068e-07
-7.40114e-07
-1.30548e-07
-1.36511e-06
1.17571e-06
-0.00109142
5.66653e-07
-1.52882e-06
-4.67237e-09
-5.80088e-07
-1.36214e-06
-1.11491e-07
5.27352e-07
-7.31007e-07
9.84064e-07
0.00109163
1.1749e-06
-0.00109054
5.67679e-07
-1.55747e-06
-4.31846e-09
-5.80882e-07
-1.36181e-06
-1.11433e-07
-7.30626e-07
5.27513e-07
-6.14172e-07
-6.21523e-07
0.000265618
-9.49749e-07
0.000268478
-0.000266364
-9.1537e-08
-8.35803e-08
1.2051e-06
5.80428e-07
0.00108937
-5.82366e-07
9.34611e-07
-1.7654e-08
5.06367e-07
-7.40408e-07
-1.30524e-07
-1.36272e-06
1.17547e-06
-0.00109108
5.66668e-07
-1.52337e-06
-6.7789e-09
-5.77276e-07
-1.36189e-06
-1.09009e-07
5.27285e-07
-7.3356e-07
9.49968e-07
0.00109269
1.17582e-06
-0.0010916
5.66612e-07
-1.52402e-06
-6.42494e-09
-5.78494e-07
-1.35934e-06
-1.11425e-07
-7.3089e-07
5.24925e-07
-0.000266378
-8.85814e-08
-8.31635e-08
1.56426e-06
1.52524e-06
-6.01375e-07
-6.07044e-07
0.00026662
-1.01004e-06
-9.70479e-07
0.000269441
-0.000267321
-7.25298e-08
-6.70708e-08
5.63215e-07
0.0010928
-5.84075e-07
9.96713e-07
4.58398e-09
5.33219e-07
-7.25324e-07
-1.3611e-06
-1.05556e-07
-1.56719e-06
1.16563e-06
5.62974e-07
0.00109324
-5.84741e-07
1.00003e-06
6.38812e-09
5.38869e-07
-7.30747e-07
-1.36651e-06
-1.03256e-07
0.00109596
1.1396e-06
-0.00109492
5.52472e-07
-1.56321e-06
1.97218e-08
-5.81981e-07
-1.35835e-06
-8.93529e-08
-7.19969e-07
5.50174e-07
1.01219e-06
0.0010964
1.14014e-06
-0.00109536
5.52877e-07
-1.56598e-06
1.77012e-08
-5.81601e-07
-1.36447e-06
-8.66637e-08
-7.23147e-07
5.55844e-07
-6.04867e-07
-6.09522e-07
0.000266647
-9.72477e-07
0.000269468
-0.000267346
-7.13061e-08
-6.57817e-08
5.62487e-07
0.00109386
-5.78791e-07
9.57252e-07
-1.61184e-09
5.36116e-07
-7.30919e-07
-1.36398e-06
-1.03055e-07
-1.56184e-06
1.16545e-06
5.6301e-07
0.00109292
-5.84709e-07
9.94557e-07
6.41565e-09
5.35851e-07
-7.30497e-07
-1.3635e-06
-1.03172e-07
0.00109702
1.141e-06
-0.00109598
5.51619e-07
-1.5242e-06
1.36357e-08
-5.7665e-07
-1.36116e-06
-8.67677e-08
-7.22851e-07
5.52952e-07
1.0069e-06
0.00109608
1.13986e-06
-0.00109504
5.52767e-07
-1.56058e-06
1.78183e-08
-5.81997e-07
-1.36137e-06
-8.6523e-08
-7.22784e-07
5.53243e-07
1.1656e-06
5.63324e-07
0.00109271
-5.78078e-07
9.88764e-07
-1.11607e-09
5.33167e-07
-7.27912e-07
-1.05691e-07
-1.36105e-06
1.14108e-06
-0.00109571
5.51984e-07
-1.52679e-06
1.16948e-08
-5.7594e-07
-1.35877e-06
-8.90959e-08
5.50228e-07
-7.20294e-07
1.0019e-06
0.00109587
1.13994e-06
-0.00109483
5.52653e-07
-1.55527e-06
1.27092e-08
-5.77142e-07
-1.35825e-06
-8.90548e-08
-7.19753e-07
5.50455e-07
-6.02192e-07
-6.09546e-07
0.000266605
-9.6714e-07
0.000269418
-0.000267304
-7.3893e-08
-6.55907e-08
1.16663e-06
5.62408e-07
0.00109377
-5.7567e-07
9.54689e-07
-3.06631e-09
5.30454e-07
-7.282e-07
-1.05659e-07
-1.35868e-06
1.14106e-06
-0.00109537
5.52097e-07
-1.52141e-06
8.59222e-09
-5.73591e-07
-1.35833e-06
-8.64547e-08
5.5041e-07
-7.22622e-07
9.67706e-07
0.00109694
1.14116e-06
-0.00109589
5.5174e-07
-1.52169e-06
9.58945e-09
-5.74648e-07
-1.35572e-06
-8.89534e-08
-7.19949e-07
5.4791e-07
-0.000267318
-7.03735e-08
-6.48014e-08
1.56308e-06
1.52401e-06
-5.93085e-07
-5.98739e-07
0.000267546
-1.0255e-06
-9.85827e-07
0.000270324
-0.000268203
-5.73886e-08
-5.19015e-08
5.498e-07
0.001097
-5.80798e-07
1.01342e-06
2.18828e-08
5.55661e-07
-7.1771e-07
-1.35806e-06
-8.4017e-08
-1.56606e-06
1.13198e-06
5.4952e-07
0.00109743