/*--------------------------------*- C++ -*----------------------------------*\
| =========                 |                                                 |
| \\      /  F ield         | OpenFOAM: The Open Source CFD Toolbox           |
|  \\    /   O peration     | Version:  v1906                                 |
|   \\  /    A nd           | Web:      www.OpenFOAM.com                      |
|    \\/     M anipulation  |                                                 |
\*---------------------------------------------------------------------------*/
FoamFile
{
    version     2.0;
    format      ascii;
    class       volVectorField;
    location    "375";
    object      U;
}
// * * * * * * * * * * * * * * * * * * * * * * * * * * * * * * * * * * * * * //

dimensions      [0 1 -1 0 0 0 0];


internalField   nonuniform List<vector> 
42616
(
(-1.29201e-05 -1.29659e-05 0.112443)
(1.26622e-05 -6.07557e-06 0.107486)
(-5.99388e-06 1.26915e-05 0.107485)
(-2.59438e-05 -2.60307e-05 0.104202)
(-8.137e-06 -8.10034e-06 0.112412)
(9.48297e-06 -5.97777e-06 0.107475)
(-6.07746e-06 9.42304e-06 0.107474)
(-2.68867e-05 -2.6784e-05 0.104203)
(-1.75043e-05 -1.74858e-05 0.112368)
(1.68969e-05 -7.86205e-06 0.107469)
(-7.8005e-06 1.69792e-05 0.107468)
(-2.43151e-05 -2.43653e-05 0.10421)
(-5.6565e-06 -5.65994e-06 0.112339)
(5.44451e-06 -4.14965e-06 0.107466)
(-4.18175e-06 5.33543e-06 0.107465)
(-2.85989e-05 -2.85492e-05 0.104219)
(-1.99727e-05 -1.98027e-05 0.112305)
(2.09693e-05 -1.08852e-05 0.107458)
(-1.09348e-05 2.11395e-05 0.107458)
(-2.13618e-05 -2.1327e-05 0.104223)
(-6.0169e-06 -6.37002e-06 0.11225)
(5.30451e-06 -1.75397e-06 0.10745)
(-1.62117e-06 5.17516e-06 0.107449)
(-2.90069e-05 -2.91808e-05 0.104231)
(-6.80519e-06 -6.44979e-06 0.112254)
(9.63827e-06 -6.95777e-06 0.107434)
(-7.09809e-06 9.61146e-06 0.107433)
(-2.89482e-05 -2.86704e-05 0.104221)
(-4.7342e-05 -4.72643e-05 0.11217)
(3.6749e-05 -2.07832e-05 0.107487)
(-2.08028e-05 3.69976e-05 0.107487)
(-1.25421e-05 -1.26609e-05 0.104295)
(1.59462e-05 1.5521e-05 0.112119)
(6.27274e-06 -7.73592e-06 0.107391)
(-7.60696e-06 6.08223e-06 0.10739)
(-1.33414e-05 -1.35902e-05 0.104228)
(-1.85445e-05 -1.84264e-05 0.112046)
(1.97773e-05 -4.54589e-06 0.10732)
(-4.55506e-06 1.96932e-05 0.107319)
(-3.74418e-05 -3.71326e-05 0.104189)
(-4.8162e-05 -4.78571e-05 0.112046)
(-2.35238e-06 3.07036e-06 0.1076)
(2.90526e-06 -2.1844e-06 0.1076)
(-5.96815e-05 -5.97251e-05 0.104448)
(4.60448e-05 4.57771e-05 0.112232)
(-4.11254e-05 1.37388e-05 0.10769)
(1.39001e-05 -4.11742e-05 0.10769)
(-3.11493e-05 -3.141e-05 0.10447)
(1.78436e-05 1.7776e-05 0.112128)
(7.14841e-05 -3.63011e-05 0.107262)
(-3.62367e-05 7.13729e-05 0.107261)
(3.89501e-05 3.90342e-05 0.104112)
(-0.000140335 -0.000140177 0.111639)
(0.0001395 -7.19122e-05 0.107074)
(-7.19805e-05 0.000139487 0.107073)
(4.19443e-05 4.20159e-05 0.104067)
(-9.58673e-05 -9.58881e-05 0.111473)
(4.19411e-05 -3.05171e-05 0.107318)
(-3.05335e-05 4.19442e-05 0.107318)
(-2.95619e-05 -2.96053e-05 0.104367)
(3.17419e-05 3.1668e-05 0.11167)
(-8.22191e-05 4.47302e-05 0.107666)
(4.47512e-05 -8.22239e-05 0.107665)
(-0.000100647 -0.000100653 0.10465)
(0.00011407 0.000114139 0.112029)
(-0.000103506 5.8368e-05 0.107727)
(5.83362e-05 -0.000103487 0.107727)
(-8.61606e-05 -8.61e-05 0.104599)
(5.84672e-05 5.8558e-05 0.112112)
(-1.1944e-05 1.61192e-05 0.107519)
(1.60819e-05 -1.19635e-05 0.107519)
(-2.97408e-05 -2.97553e-05 0.104379)
(-5.89588e-05 -5.89757e-05 0.111906)
(7.09998e-05 -3.57342e-05 0.107363)
(-3.57448e-05 7.10089e-05 0.107363)
(1.39397e-05 1.38819e-05 0.104295)
(-0.000103457 -0.00010345 0.111705)
(7.45444e-05 -4.38056e-05 0.107409)
(-4.38341e-05 7.45347e-05 0.107408)
(2.27307e-05 2.27209e-05 0.10444)
(-8.0888e-05 -8.08151e-05 0.111725)
(0.000119898 -7.61192e-05 0.107747)
(-7.62e-05 0.000119886 0.107747)
(6.06335e-05 6.06546e-05 0.104894)
(-4.44161e-05 -4.44924e-05 0.104315)
(-6.69908e-06 -1.34988e-05 0.107485)
(7.09098e-06 -1.33647e-05 0.107484)
(4.47218e-05 -4.42613e-05 0.104315)
(-1.3481e-05 -6.82571e-06 0.107487)
(-1.33175e-05 7.07805e-06 0.107484)
(1.35611e-05 -6.6079e-06 0.107487)
(1.3447e-05 6.78063e-06 0.107484)
(-4.41675e-05 4.4758e-05 0.104314)
(-6.52261e-06 1.36065e-05 0.107486)
(6.88668e-06 1.34262e-05 0.107486)
(4.45013e-05 4.44248e-05 0.104314)
(2.60845e-05 2.5993e-05 0.104203)
(-4.30506e-05 -4.29687e-05 0.104315)
(-6.17105e-06 -1.24235e-05 0.107484)
(6.71957e-06 -1.232e-05 0.107483)
(-5.30361e-06 -8.85406e-06 0.107476)
(5.06349e-06 -9.05628e-06 0.107475)
(-2.57308e-05 2.62086e-05 0.104202)
(4.28157e-05 -4.32268e-05 0.104316)
(-1.24124e-05 -6.32164e-06 0.107486)
(-1.22278e-05 6.6673e-06 0.107483)
(-8.91957e-06 -5.23926e-06 0.107477)
(-9.04227e-06 5.02734e-06 0.107475)
(1.25288e-05 6.36283e-06 0.107483)
(9.01875e-06 -5.46448e-06 0.107478)
(9.0642e-06 5.32618e-06 0.107476)
(2.63064e-05 -2.57282e-05 0.104202)
(-4.32995e-05 4.27436e-05 0.104315)
(6.49542e-06 1.24842e-05 0.107485)
(-5.53317e-06 8.94407e-06 0.107477)
(5.28957e-06 9.1019e-06 0.107477)
(4.29905e-05 4.30691e-05 0.104315)
(2.67512e-05 2.68348e-05 0.104203)
(-4.55692e-05 -4.56185e-05 0.10432)
(-5.80069e-06 -9.55352e-06 0.107472)
(5.23428e-06 -9.74352e-06 0.107472)
(-8.18473e-06 -1.66341e-05 0.107467)
(8.10449e-06 -1.64443e-05 0.107466)
(-2.7109e-05 2.65363e-05 0.104204)
(4.56224e-05 -4.54458e-05 0.10432)
(-9.63518e-06 -5.6671e-06 0.107474)
(-9.80336e-06 5.2614e-06 0.107471)
(-1.66298e-05 -8.23098e-06 0.107469)
(-1.65194e-05 8.20162e-06 0.107466)
(9.57122e-06 5.67841e-06 0.107472)
(1.63707e-05 -8.08756e-06 0.107469)
(1.63359e-05 8.07671e-06 0.107466)
(2.64455e-05 -2.71804e-05 0.104203)
(-4.54232e-05 4.57001e-05 0.10432)
(5.56904e-06 9.64987e-06 0.107473)
(-8.09311e-06 1.64577e-05 0.107468)
(8.08785e-06 1.63673e-05 0.107468)
(4.55251e-05 4.55148e-05 0.104319)
(2.43679e-05 2.42723e-05 0.104211)
(-4.12769e-05 -4.12268e-05 0.104329)
(-7.94154e-06 -1.69179e-05 0.107468)
(8.29833e-06 -1.67083e-05 0.107466)
(-4.44479e-06 -7.45273e-06 0.107466)
(4.78196e-06 -7.56242e-06 0.107465)
(-2.41682e-05 2.44888e-05 0.104211)
(4.14401e-05 -4.12847e-05 0.104329)
(-1.6878e-05 -8.09625e-06 0.107469)
(-1.66968e-05 8.32242e-06 0.107466)
(-7.47845e-06 -4.47286e-06 0.107467)
(-7.45682e-06 4.67318e-06 0.107465)
(1.68174e-05 8.04066e-06 0.107466)
(7.83017e-06 -4.48965e-06 0.107468)
(7.77304e-06 4.58209e-06 0.107465)
(2.45411e-05 -2.412e-05 0.104211)
(-4.12596e-05 4.13523e-05 0.104329)
(8.14608e-06 1.68079e-05 0.107468)
(-4.4474e-06 7.7521e-06 0.107467)
(4.63903e-06 7.78438e-06 0.107467)
(4.13274e-05 4.13343e-05 0.104328)
(2.8551e-05 2.86353e-05 0.104219)
(-4.68379e-05 -4.68057e-05 0.104331)
(-4.11982e-06 -5.18528e-06 0.107464)
(4.04888e-06 -5.3851e-06 0.107463)
(-9.12495e-06 -1.57024e-05 0.107457)
(8.62513e-06 -1.56853e-05 0.107456)
(-2.85464e-05 2.84937e-05 0.104219)
(4.65476e-05 -4.68552e-05 0.104331)
(-5.28488e-06 -3.99967e-06 0.107465)
(-5.35302e-06 3.99115e-06 0.107463)
(-1.58176e-05 -9.00146e-06 0.107458)
(-1.58535e-05 8.78791e-06 0.107456)
(5.39982e-06 4.07655e-06 0.107464)
(1.54419e-05 -9.07725e-06 0.107459)
(1.54216e-05 8.97878e-06 0.107456)
(2.84876e-05 -2.86471e-05 0.104219)
(-4.69311e-05 4.6655e-05 0.104331)
(4.01665e-06 5.45862e-06 0.107465)
(-9.20072e-06 1.55362e-05 0.107458)
(8.85236e-06 1.55252e-05 0.107458)
(4.66739e-05 4.67656e-05 0.10433)
(2.13222e-05 2.12663e-05 0.104224)
(-4.23918e-05 -4.26253e-05 0.10434)
(-1.08796e-05 -2.1226e-05 0.107456)
(1.06664e-05 -2.11019e-05 0.107455)
(-5.50659e-06 -1.44443e-05 0.107453)
(5.97504e-06 -1.43484e-05 0.107452)
(-2.14965e-05 2.12734e-05 0.104223)
(4.27106e-05 -4.24962e-05 0.10434)
(-2.12383e-05 -1.09455e-05 0.107458)
(-2.12189e-05 1.0822e-05 0.107455)
(-1.42207e-05 -5.88682e-06 0.107454)
(-1.41778e-05 5.85722e-06 0.107451)
(2.09895e-05 1.09131e-05 0.107456)
(1.45091e-05 -5.72142e-06 0.107454)
(1.46216e-05 5.73266e-06 0.107452)
(2.12308e-05 -2.13957e-05 0.104223)
(-4.23772e-05 4.26585e-05 0.10434)
(1.09026e-05 2.10487e-05 0.107457)
(-5.55733e-06 1.45148e-05 0.107454)
(6.02259e-06 1.44973e-05 0.107454)
(4.27356e-05 4.25315e-05 0.10434)
(2.92462e-05 2.907e-05 0.104231)
(-3.76169e-05 -3.72803e-05 0.104324)
(-1.56444e-06 -5.16098e-06 0.107448)
(1.9221e-06 -5.16365e-06 0.107448)
(-1.91141e-06 6.4626e-07 0.10743)
(1.61342e-06 4.9504e-07 0.10743)
(-2.89895e-05 2.91393e-05 0.104231)
(3.7391e-05 -3.74673e-05 0.104324)
(-5.00215e-06 -1.80965e-06 0.10745)
(-4.99449e-06 1.73753e-06 0.107447)
(4.00443e-07 -1.54913e-06 0.107431)
(4.28267e-07 1.59128e-06 0.107429)
(5.35799e-06 1.62165e-06 0.107448)
(-5.03148e-07 -1.74907e-06 0.107432)
(-7.09204e-07 1.64162e-06 0.10743)
(2.92337e-05 -2.91014e-05 0.104231)
(-3.7546e-05 3.73309e-05 0.104323)
(1.87121e-06 5.2307e-06 0.107449)
(-1.85288e-06 -6.61691e-07 0.107431)
(1.42549e-06 -5.87691e-07 0.107431)
(3.71942e-05 3.74447e-05 0.104323)
(2.85327e-05 2.88551e-05 0.104222)
(-5.42475e-05 -5.43747e-05 0.104398)
(-7.21147e-06 -9.53937e-06 0.107432)
(6.83848e-06 -9.66353e-06 0.107431)
(-2.07717e-05 -3.93112e-05 0.107473)
(2.06769e-05 -3.92484e-05 0.107472)
(-2.87754e-05 2.86746e-05 0.104222)
(5.4237e-05 -5.42743e-05 0.104397)
(-9.83671e-06 -6.80072e-06 0.107433)
(-9.769e-06 6.93139e-06 0.10743)
(-3.93651e-05 -2.08421e-05 0.107474)
(-3.93123e-05 2.08933e-05 0.107472)
(9.43814e-06 7.03246e-06 0.107431)
(3.92136e-05 -2.07143e-05 0.107475)
(3.9331e-05 2.09635e-05 0.107472)
(2.85961e-05 -2.88013e-05 0.104221)
(-5.42573e-05 5.44013e-05 0.104397)
(6.70927e-06 9.65019e-06 0.107432)
(-2.07783e-05 3.95007e-05 0.107474)
(2.0903e-05 3.94753e-05 0.107474)
(5.43973e-05 5.43736e-05 0.104397)
(1.27713e-05 1.25488e-05 0.104295)
(-5.75411e-05 -5.78086e-05 0.104351)
(-2.06837e-05 -3.69129e-05 0.107486)
(2.07276e-05 -3.67959e-05 0.107485)
(-1.18817e-05 -1.18213e-05 0.107435)
(1.21978e-05 -1.17076e-05 0.107434)
(-1.27296e-05 1.2662e-05 0.104295)
(5.77553e-05 -5.76962e-05 0.10435)
(-3.68198e-05 -2.09591e-05 0.107487)
(-3.68405e-05 2.08605e-05 0.107485)
(-1.15977e-05 -1.22878e-05 0.107436)
(-1.16949e-05 1.20032e-05 0.107434)
(3.69622e-05 2.08569e-05 0.107485)
(1.1742e-05 -1.21865e-05 0.107436)
(1.18222e-05 1.178e-05 0.107434)
(1.26778e-05 -1.2629e-05 0.104295)
(-5.771e-05 5.76064e-05 0.10435)
(2.10206e-05 3.69586e-05 0.107487)
(-1.20816e-05 1.16348e-05 0.107436)
(1.22705e-05 1.15347e-05 0.107436)
(5.77709e-05 5.74497e-05 0.10435)
(1.34932e-05 1.32883e-05 0.104228)
(-3.42037e-05 -3.39127e-05 0.104269)
(-7.49146e-06 -6.22854e-06 0.107389)
(7.81305e-06 -6.16488e-06 0.107388)
(-2.16979e-06 -1.50208e-05 0.107302)
(2.14581e-06 -1.51685e-05 0.107302)
(-1.32888e-05 1.3343e-05 0.104228)
(3.41155e-05 -3.40882e-05 0.10427)
(-6.06418e-06 -7.76666e-06 0.10739)
(-6.099e-06 7.5702e-06 0.107388)
(-1.51873e-05 -1.94195e-06 0.107303)
(-1.50182e-05 2.07383e-06 0.107301)
(6.2156e-06 7.37228e-06 0.107388)
(1.5322e-05 -2.09152e-06 0.107305)
(1.50555e-05 2.18597e-06 0.107302)
(1.33501e-05 -1.34847e-05 0.104228)
(-3.40128e-05 3.40726e-05 0.104269)
(7.75437e-06 5.98838e-06 0.10739)
(-2.01872e-06 1.51396e-05 0.107303)
(1.9637e-06 1.5224e-05 0.107303)
(3.39255e-05 3.42131e-05 0.104269)
(3.71493e-05 3.74535e-05 0.104189)
(-1.05643e-05 -1.05135e-05 0.104524)
(-4.70562e-06 -1.9513e-05 0.107318)
(4.48816e-06 -1.96846e-05 0.107317)
(8.51088e-09 -9.57127e-06 0.107509)
(-4.47777e-07 -9.57782e-06 0.107509)
(-3.73091e-05 3.72613e-05 0.10419)
(1.03665e-05 -1.05675e-05 0.104524)
(-1.97641e-05 -4.37269e-06 0.107319)
(-1.95719e-05 4.51738e-06 0.107316)
(-9.72304e-06 2.19523e-07 0.107511)
(-9.71021e-06 -2.81357e-07 0.107508)
(1.95522e-05 4.73758e-06 0.107317)
(9.42507e-06 1.18354e-07 0.107511)
(9.5102e-06 -7.44863e-08 0.107509)
(3.73125e-05 -3.73227e-05 0.104189)
(-1.0649e-05 1.04325e-05 0.104523)
(4.38623e-06 1.9831e-05 0.107319)
(-5.6124e-08 9.57638e-06 0.10751)
(-2.66479e-07 9.6758e-06 0.10751)
(1.05172e-05 1.05721e-05 0.104523)
(5.96999e-05 5.96673e-05 0.104449)
(-3.05717e-05 -3.09064e-05 0.10462)
(3.05893e-06 2.10257e-06 0.107599)
(-3.35596e-06 2.18202e-06 0.107598)
(1.43913e-05 4.42117e-05 0.107722)
(-1.39753e-05 4.44128e-05 0.10772)
(-5.98364e-05 5.96554e-05 0.104449)
(3.09418e-05 -3.06633e-05 0.10462)
(2.07183e-06 3.07593e-06 0.1076)
(2.01874e-06 -3.23017e-06 0.107598)
(4.44203e-05 1.39687e-05 0.107723)
(4.43846e-05 -1.40738e-05 0.10772)
(-2.19984e-06 -3.15271e-06 0.107598)
(-4.42636e-05 1.41817e-05 0.107723)
(-4.42687e-05 -1.43815e-05 0.10772)
(5.95833e-05 -5.97821e-05 0.104449)
(-3.06055e-05 3.08803e-05 0.104619)
(-3.15779e-06 -2.17581e-06 0.107599)
(1.42785e-05 -4.42557e-05 0.107722)
(-1.39842e-05 -4.44734e-05 0.107722)
(3.08795e-05 3.05748e-05 0.104619)
(3.14302e-05 3.11064e-05 0.104471)
(-9.75546e-05 -9.75216e-05 0.104259)
(1.39215e-05 4.11688e-05 0.107689)
(-1.3394e-05 4.1332e-05 0.107688)
(-2.02195e-05 -3.52831e-05 0.107381)
(2.04456e-05 -3.53113e-05 0.107381)
(-3.10407e-05 3.13265e-05 0.10447)
(9.7613e-05 -9.7559e-05 0.104259)
(4.13947e-05 1.35069e-05 0.10769)
(4.13697e-05 -1.35281e-05 0.107687)
(-3.52523e-05 -2.02589e-05 0.107383)
(-3.51902e-05 2.03767e-05 0.10738)
(-4.11853e-05 -1.38563e-05 0.107688)
(3.54999e-05 -2.02185e-05 0.107384)
(3.53628e-05 2.03445e-05 0.107381)
(3.14115e-05 -3.11391e-05 0.10447)
(-9.7474e-05 9.755e-05 0.104258)
(-1.34878e-05 -4.13798e-05 0.107689)
(-2.00928e-05 3.53738e-05 0.107383)
(2.03377e-05 3.53824e-05 0.107382)
(9.74981e-05 9.75642e-05 0.104258)
(-3.90314e-05 -3.8972e-05 0.104112)
(-0.000110614 -0.00011048 0.104128)
(-3.63231e-05 -7.12566e-05 0.107259)
(3.63748e-05 -7.13558e-05 0.107259)
(-6.86747e-05 -0.000141601 0.10706)
(6.84301e-05 -0.000141724 0.10706)
(3.90183e-05 -3.90672e-05 0.104112)
(0.000110384 -0.000110672 0.104129)
(-7.13245e-05 -3.62509e-05 0.107261)
(-7.12415e-05 3.63382e-05 0.107258)
(-0.000141737 -6.85208e-05 0.107061)
(-0.000141702 6.84698e-05 0.107059)
(7.13567e-05 3.64291e-05 0.107259)
(0.000141646 -6.86687e-05 0.107062)
(0.000141668 6.86718e-05 0.10706)
(-3.90078e-05 3.89736e-05 0.104112)
(-0.000110685 0.000110392 0.104128)
(3.6329e-05 7.14564e-05 0.10726)
(-6.87295e-05 0.000141616 0.107062)
(6.85308e-05 0.00014179 0.107061)
(0.00011048 0.000110571 0.104128)
(-4.20716e-05 -4.19597e-05 0.104067)
(-4.86349e-05 -4.86568e-05 0.104403)
(-7.18865e-05 -0.000139498 0.107072)
(7.16324e-05 -0.000139592 0.107071)
(-4.83301e-05 -7.4036e-05 0.107229)
(4.82111e-05 -7.40136e-05 0.107228)
(4.1832e-05 -4.21379e-05 0.104067)
(4.85851e-05 -4.86679e-05 0.104404)
(-0.000139618 -7.17834e-05 0.107073)
(-0.000139598 7.16727e-05 0.107071)
(-7.40525e-05 -4.83978e-05 0.10723)
(-7.40503e-05 4.82246e-05 0.107227)
(0.000139539 7.18453e-05 0.107072)
(7.39659e-05 -4.84113e-05 0.10723)
(7.39748e-05 4.82483e-05 0.107228)
(-4.2164e-05 4.18469e-05 0.104067)
(-4.86861e-05 4.85892e-05 0.104403)
(7.17561e-05 0.000139637 0.107073)
(-4.84451e-05 7.39843e-05 0.10723)
(4.83174e-05 7.39916e-05 0.10723)
(4.86147e-05 4.85993e-05 0.104403)
(2.95727e-05 2.95286e-05 0.104367)
(2.52727e-05 2.5271e-05 0.104731)
(-3.04408e-05 -4.19917e-05 0.107317)
(3.03803e-05 -4.19504e-05 0.107316)
(3.0529e-05 5.66825e-05 0.107582)
(-3.04206e-05 5.67307e-05 0.107581)
(-2.96022e-05 2.95257e-05 0.104367)
(-2.51351e-05 2.53391e-05 0.104731)
(-4.19877e-05 -3.05314e-05 0.107318)
(-4.19744e-05 3.03754e-05 0.107315)
(5.66748e-05 3.04612e-05 0.107583)
(5.67411e-05 -3.04496e-05 0.10758)
(4.19262e-05 3.03745e-05 0.107316)
(-5.66189e-05 3.05244e-05 0.107583)
(-5.67018e-05 -3.05158e-05 0.107581)
(2.95147e-05 -2.96056e-05 0.104367)
(2.53524e-05 -2.51621e-05 0.10473)
(3.0465e-05 4.19219e-05 0.107317)
(3.05456e-05 -5.66235e-05 0.107582)
(-3.04408e-05 -5.66984e-05 0.107582)
(-2.52301e-05 -2.52293e-05 0.10473)
(0.000100699 0.000100687 0.10465)
(2.02279e-05 2.02713e-05 0.104738)
(4.47142e-05 8.23344e-05 0.107665)
(-4.45878e-05 8.23554e-05 0.107664)
(6.14939e-05 0.000113268 0.107735)
(-6.14445e-05 0.00011322 0.107734)
(-0.000100566 0.000100737 0.10465)
(-2.01436e-05 2.02801e-05 0.104738)
(8.22997e-05 4.46749e-05 0.107666)
(8.23785e-05 -4.46137e-05 0.107663)
(0.000113197 6.15524e-05 0.107736)
(0.000113243 -6.14381e-05 0.107733)
(-8.23114e-05 -4.46719e-05 0.107664)
(-0.000113148 6.15466e-05 0.107737)
(-0.000113184 -6.14181e-05 0.107734)
(0.000100757 -0.000100601 0.10465)
(2.02884e-05 -2.01717e-05 0.104737)
(-4.46259e-05 -8.22876e-05 0.107665)
(6.15316e-05 -0.000113118 0.107736)
(-6.14671e-05 -0.000113112 0.107735)
(-2.02254e-05 -2.01562e-05 0.104737)
(8.61373e-05 8.61919e-05 0.104599)
(-3.13686e-05 -3.13542e-05 0.104515)
(5.83258e-05 0.000103597 0.107726)
(-5.83269e-05 0.000103545 0.107725)
(2.82957e-05 3.74804e-05 0.10756)
(-2.83841e-05 3.7454e-05 0.10756)
(-8.61121e-05 8.61671e-05 0.104599)
(3.13141e-05 -3.14157e-05 0.104515)
(0.00010354 5.83954e-05 0.107727)
(0.000103555 -5.83124e-05 0.107724)
(3.74597e-05 2.83225e-05 0.107562)
(3.74163e-05 -2.83646e-05 0.107559)
(-0.000103513 -5.82566e-05 0.107725)
(-3.74806e-05 2.82575e-05 0.107562)
(-3.74622e-05 -2.82835e-05 0.10756)
(8.61835e-05 -8.61262e-05 0.104599)
(-3.14513e-05 3.12901e-05 0.104515)
(-5.83254e-05 -0.000103451 0.107726)
(2.82111e-05 -3.74829e-05 0.107562)
(-2.83126e-05 -3.74129e-05 0.107561)
(3.13566e-05 3.13662e-05 0.104515)
(2.97473e-05 2.97326e-05 0.104379)
(-7.28715e-05 -7.2948e-05 0.104379)
(1.61865e-05 1.19334e-05 0.107517)
(-1.62808e-05 1.19079e-05 0.107517)
(-2.9028e-05 -6.05024e-05 0.107359)
(2.89814e-05 -6.04842e-05 0.107358)
(-2.97977e-05 2.96728e-05 0.104379)
(7.28442e-05 -7.29418e-05 0.104379)
(1.1906e-05 1.61913e-05 0.107519)
(1.18684e-05 -1.62608e-05 0.107516)
(-6.05154e-05 -2.91169e-05 0.107361)
(-6.0516e-05 2.90053e-05 0.107358)
(-1.19354e-05 -1.61907e-05 0.107517)
(6.04813e-05 -2.91205e-05 0.107361)
(6.04754e-05 2.90004e-05 0.107359)
(2.96354e-05 -2.98375e-05 0.104379)
(-7.29708e-05 7.28481e-05 0.104378)
(-1.61921e-05 -1.18898e-05 0.107518)
(-2.91396e-05 6.04772e-05 0.10736)
(2.90631e-05 6.04857e-05 0.10736)
(7.28965e-05 7.2842e-05 0.104378)
(-1.39244e-05 -1.39755e-05 0.104295)
(-7.02027e-05 -7.0192e-05 0.10443)
(-3.56482e-05 -7.10294e-05 0.107362)
(3.5617e-05 -7.09808e-05 0.107361)
(-5.58237e-05 -8.87461e-05 0.107349)
(5.58287e-05 -8.87192e-05 0.107348)
(1.38975e-05 -1.39659e-05 0.104295)
(7.01631e-05 -7.01853e-05 0.10443)
(-7.103e-05 -3.57509e-05 0.107363)
(-7.1009e-05 3.56341e-05 0.10736)
(-8.87883e-05 -5.58708e-05 0.10735)
(-8.87224e-05 5.58193e-05 0.107348)
(7.09711e-05 3.56315e-05 0.107361)
(8.87846e-05 -5.58182e-05 0.107351)
(8.87352e-05 5.57969e-05 0.107348)
(-1.39897e-05 1.38988e-05 0.104295)
(-7.01813e-05 7.01511e-05 0.10443)
(3.57024e-05 7.09996e-05 0.107362)
(-5.58272e-05 8.87828e-05 0.10735)
(5.58481e-05 8.87698e-05 0.10735)
(7.01756e-05 7.015e-05 0.10443)
(-2.27779e-05 -2.27309e-05 0.10444)
(-7.05824e-05 -7.04374e-05 0.104521)
(-4.38264e-05 -7.44924e-05 0.107407)
(4.38392e-05 -7.44555e-05 0.107406)
(-6.95102e-05 -0.000102205 0.107493)
(6.95371e-05 -0.000102218 0.107493)
(2.27207e-05 -2.27082e-05 0.10444)
(7.05891e-05 -7.0443e-05 0.104521)
(-7.45409e-05 -4.38531e-05 0.107408)
(-7.44836e-05 4.38435e-05 0.107406)
(-0.000102394 -6.9419e-05 0.107495)
(-0.000102316 6.95217e-05 0.107492)
(7.45018e-05 4.3824e-05 0.107406)
(0.000102412 -6.94253e-05 0.107495)
(0.000102325 6.95281e-05 0.107493)
(-2.27386e-05 2.2718e-05 0.10444)
(-7.05291e-05 7.05674e-05 0.104521)
(4.38555e-05 7.452e-05 0.107408)
(-6.94815e-05 0.000102392 0.107494)
(6.95061e-05 0.000102401 0.107494)
(7.05375e-05 7.0574e-05 0.104521)
(-6.06656e-05 -6.05218e-05 0.104894)
(-7.62361e-05 -0.000119708 0.107746)
(7.62514e-05 -0.00011975 0.107745)
(6.06584e-05 -6.05264e-05 0.104894)
(-0.000119912 -7.61171e-05 0.107747)
(-0.000119865 7.62399e-05 0.107745)
(8.09326e-05 -8.08064e-05 0.111724)
(-8.08902e-05 8.09332e-05 0.111724)
(8.09368e-05 8.0925e-05 0.111724)
(0.000119852 7.62528e-05 0.107746)
(-6.06317e-05 6.06392e-05 0.104894)
(7.6221e-05 0.00011993 0.107747)
(-1.37932e-05 -1.37871e-05 0.112452)
(1.36173e-05 -1.37189e-05 0.112452)
(-1.37099e-05 1.36664e-05 0.112451)
(1.35708e-05 1.35765e-05 0.112451)
(-6.63639e-07 -1.30705e-05 0.0914546)
(-2.64978e-07 4.57441e-06 0.0822705)
(-4.07919e-07 -1.5761e-07 0.0914135)
(-2.07996e-06 -8.64784e-06 0.0823214)
(-8.1471e-07 2.34881e-06 0.0715875)
(2.68612e-06 -3.77141e-06 0.0716383)
(-1.31145e-05 -5.57816e-07 0.0914541)
(4.52512e-06 -2.78409e-07 0.0822697)
(-1.34334e-07 -3.89147e-07 0.091414)
(-8.63427e-06 -2.03482e-06 0.0823218)
(1.31316e-05 -1.28616e-05 0.112442)
(-1.278e-05 1.31387e-05 0.112442)
(1.29981e-05 1.29518e-05 0.112441)
(-7.69928e-06 -7.73298e-06 0.11242)
(8.18875e-06 -7.79892e-06 0.11242)
(-7.73191e-06 8.08839e-06 0.112419)
(8.12887e-06 8.07632e-06 0.112419)
(2.22462e-05 -5.39478e-07 0.0985981)
(-3.10288e-06 7.19411e-07 0.0930383)
(1.66198e-05 -2.68999e-06 0.109895)
(1.11958e-05 -5.51812e-06 0.107484)
(-3.69993e-07 -2.9799e-07 0.0985419)
(1.63645e-05 -6.78396e-06 0.0930932)
(1.50989e-05 -2.46344e-06 0.109892)
(2.23871e-06 -7.37532e-07 0.0715851)
(-3.69411e-06 2.65249e-06 0.07164)
(-6.00131e-07 2.22261e-05 0.0985982)
(-2.59802e-06 1.66402e-05 0.109894)
(6.83906e-07 -3.12838e-06 0.0930389)
(-5.47517e-06 1.11899e-05 0.107483)
(-3.02703e-07 -3.37295e-07 0.0985419)
(-2.38887e-06 1.50992e-05 0.109891)
(-6.89384e-06 1.63659e-05 0.0930929)
(1.46454e-07 -1.09868e-06 0.0875909)
(-1.099e-06 1.76641e-07 0.0875897)
(4.35808e-05 4.35187e-05 0.104316)
(7.00723e-06 6.38794e-06 0.0876354)
(6.34365e-06 7.05116e-06 0.0876336)
(6.49036e-08 -1.067e-05 0.091485)
(1.2783e-06 4.12255e-06 0.082311)
(-3.00185e-07 1.01587e-06 0.0914426)
(-4.71411e-07 -7.53742e-06 0.0823564)
(-1.69012e-06 2.40267e-06 0.0716247)
(2.56675e-06 -2.57072e-06 0.0716658)
(-1.06985e-05 1.41893e-08 0.0914844)
(4.08215e-06 1.29343e-06 0.08231)
(1.0705e-06 -2.39696e-07 0.091443)
(-7.52919e-06 -4.56558e-07 0.0823568)
(8.19796e-06 -8.19892e-06 0.112412)
(-8.22763e-06 8.14135e-06 0.112411)
(8.23403e-06 8.25001e-06 0.112412)
(-1.60705e-05 -1.59705e-05 0.11238)
(1.53894e-05 -1.58907e-05 0.112381)
(-1.60241e-05 1.55283e-05 0.11238)
(1.54843e-05 1.5595e-05 0.11238)
(2.01145e-05 -4.5835e-07 0.0986124)
(-3.67508e-06 8.02235e-07 0.0930655)
(1.05177e-05 -2.94533e-06 0.109877)
(1.13685e-05 -6.72254e-06 0.107472)
(-2.10895e-06 -8.35329e-07 0.0985581)
(1.52043e-05 -3.51471e-06 0.0931219)
(1.19406e-05 -3.30025e-06 0.109871)
(2.34646e-06 -1.64388e-06 0.071622)
(-2.48144e-06 2.51152e-06 0.0716669)
(-4.65076e-07 2.00896e-05 0.0986125)
(-3.04944e-06 1.04993e-05 0.109876)
(8.30741e-07 -3.78013e-06 0.0930661)
(-6.82513e-06 1.13672e-05 0.107471)
(-8.91539e-07 -2.12624e-06 0.098558)
(-3.42641e-06 1.19432e-05 0.10987)
(-3.47098e-06 1.52375e-05 0.0931215)
(-5.29818e-07 -2.47181e-06 0.0876255)
(-2.506e-06 -5.06048e-07 0.0876242)
(4.42619e-05 4.43822e-05 0.104315)
(6.34634e-06 4.10281e-06 0.0876682)
(4.10127e-06 6.35118e-06 0.0876664)
(-6.34973e-07 -1.33411e-05 0.0915207)
(-9.5719e-07 5.39043e-06 0.0823375)
(-2.21988e-07 -4.8767e-08 0.0914787)
(-3.23566e-06 -8.07973e-06 0.0823875)
(3.85536e-07 3.04045e-06 0.071646)
(3.79001e-06 -3.49448e-06 0.0716977)
(-1.33878e-05 -6.18545e-07 0.0915202)
(5.35051e-06 -1.00209e-06 0.0823367)
(-3.14878e-08 -3.03574e-07 0.0914792)
(-8.05771e-06 -3.2164e-06 0.0823879)
(1.7144e-05 -1.73282e-05 0.112369)
(-1.73813e-05 1.72693e-05 0.112368)
(1.71528e-05 1.72102e-05 0.112368)
(-9.2145e-06 -9.31384e-06 0.112343)
(9.88138e-06 -9.34877e-06 0.112342)
(-9.18427e-06 9.76032e-06 0.112342)
(9.74057e-06 9.65689e-06 0.112341)
(2.35004e-05 -4.52769e-07 0.0986468)
(-2.86789e-06 1.11975e-06 0.0930989)
(2.17897e-05 -3.36627e-06 0.109854)
(1.51995e-05 -6.90956e-06 0.107469)
(6.80157e-07 -2.32743e-07 0.0985863)
(1.64022e-05 -7.62057e-06 0.0931555)
(2.15819e-05 -2.93687e-06 0.109851)
(2.93241e-06 4.7217e-07 0.0716433)
(-3.44757e-06 3.79638e-06 0.0716992)
(-4.43861e-07 2.35098e-05 0.0986469)
(-3.31425e-06 2.18492e-05 0.109853)
(1.1688e-06 -2.85461e-06 0.0930996)
(-6.81061e-06 1.5245e-05 0.107468)
(-1.73936e-07 7.27028e-07 0.0985863)
(-2.818e-06 2.163e-05 0.109851)
(-7.70111e-06 1.64434e-05 0.0931552)
(-2.7438e-07 -7.06931e-07 0.0876557)
(-6.70002e-07 -2.63495e-07 0.0876545)
(4.42313e-05 4.41289e-05 0.104325)
(6.59805e-06 7.62693e-06 0.0877013)
(7.6487e-06 6.60433e-06 0.0876996)
(1.61554e-07 -8.61715e-06 0.0915445)
(2.01815e-06 3.21792e-06 0.0823778)
(-4.94659e-07 1.63066e-06 0.0915053)
(2.04061e-06 -8.29177e-06 0.0824215)
(-3.02306e-06 1.54959e-06 0.0716871)
(-7.37601e-08 -3.2661e-06 0.071724)
(-8.62234e-06 1.64596e-07 0.091544)
(3.19967e-06 1.9999e-06 0.0823769)
(1.68519e-06 -3.79449e-07 0.0915057)
(-8.26713e-06 2.01812e-06 0.0824218)
(6.16e-06 -5.80374e-06 0.112339)
(-5.70013e-06 6.01384e-06 0.112338)
(6.03573e-06 6.00104e-06 0.112338)
(-1.35426e-05 -1.32821e-05 0.11232)
(1.29971e-05 -1.33257e-05 0.11232)
(-1.3558e-05 1.31335e-05 0.112319)
(1.30051e-05 1.3197e-05 0.112319)
(1.66656e-05 -5.24596e-07 0.0986563)
(-5.12363e-06 -4.62057e-07 0.0931257)
(7.12272e-06 -2.3831e-06 0.109847)
(5.97285e-06 -4.87269e-06 0.107464)
(-3.92768e-06 -9.43005e-07 0.0986079)
(1.34056e-05 -2.11417e-06 0.0931785)
(5.29346e-06 -2.72302e-06 0.109843)
(1.48731e-06 -2.96383e-06 0.0716846)
(-3.17259e-06 -1.31566e-07 0.0717253)
(-6.2868e-07 1.66192e-05 0.0986564)
(-2.39345e-06 7.07096e-06 0.109846)
(-5.07955e-07 -5.22577e-06 0.0931265)
(-4.97426e-06 5.8909e-06 0.107463)
(-1.04061e-06 -3.92715e-06 0.098608)
(-2.84494e-06 5.23831e-06 0.109842)
(-2.1157e-06 1.34038e-05 0.0931783)
(-1.1995e-06 -2.53358e-06 0.0876913)
(-2.54628e-06 -1.20102e-06 0.08769)
(4.16517e-05 4.18062e-05 0.104328)
(5.99574e-06 1.61476e-06 0.0877317)
(1.59553e-06 5.98872e-06 0.0877298)
(-4.95809e-07 -1.85299e-05 0.0915898)
(4.36983e-08 6.06201e-06 0.0823954)
(2.30367e-07 -5.9128e-07 0.0915415)
(-5.32222e-06 -7.90309e-06 0.0824501)
(-2.12642e-07 3.55876e-06 0.0716915)
(6.01721e-06 -3.0114e-06 0.0717511)
(-1.85925e-05 -5.58051e-07 0.0915892)
(6.02769e-06 -3.24398e-08 0.0823945)
(-5.689e-07 9.50726e-08 0.091542)
(-7.93011e-06 -5.27823e-06 0.0824505)
(1.94441e-05 -1.97164e-05 0.112306)
(-1.99277e-05 1.96653e-05 0.112305)
(1.94929e-05 1.96678e-05 0.112305)
(-1.61124e-05 -1.64447e-05 0.112256)
(1.64708e-05 -1.62952e-05 0.112256)
(-1.60806e-05 1.64556e-05 0.112255)
(1.66181e-05 1.64295e-05 0.112255)
(2.95208e-05 -1.97625e-07 0.0986951)
(-1.54442e-06 4.77355e-06 0.0931556)
(2.40389e-05 -4.62223e-06 0.109821)
(2.35826e-05 -1.11637e-05 0.107458)
(1.67522e-06 3.4032e-08 0.0986288)
(2.16854e-05 -7.45334e-06 0.0932163)
(2.95692e-05 -4.63715e-06 0.109813)
(3.46025e-06 -1.72429e-07 0.0716887)
(-2.99073e-06 5.96988e-06 0.0717525)
(-5.61771e-08 2.95732e-05 0.0986953)
(-4.74081e-06 2.41652e-05 0.10982)
(4.89105e-06 -1.52709e-06 0.0931564)
(-1.11168e-05 2.3768e-05 0.107457)
(1.00003e-07 1.71677e-06 0.0986289)
(-4.61318e-06 2.97384e-05 0.109813)
(-7.45171e-06 2.17526e-05 0.0932161)
(1.92663e-06 -2.78905e-06 0.0877141)
(-2.74584e-06 1.90991e-06 0.0877128)
(4.89992e-05 4.88732e-05 0.104338)
(1.05768e-05 9.97113e-06 0.0877613)
(1.00237e-05 1.05649e-05 0.0877595)
(-5.81922e-07 -6.29966e-06 0.0916173)
(-2.83461e-06 2.98786e-07 0.0824719)
(-1.59827e-06 -4.77734e-06 0.0915804)
(-8.39259e-08 -8.62289e-06 0.0825279)
(1.38706e-06 1.05601e-06 0.0717828)
(2.23042e-06 -2.43347e-06 0.0718266)
(-6.2827e-06 -4.54535e-07 0.0916167)
(2.22619e-07 -2.73636e-06 0.0824711)
(-4.73121e-06 -1.45713e-06 0.0915806)
(-8.61216e-06 -3.29538e-09 0.0825284)
(6.49354e-06 -6.32496e-06 0.11225)
(-6.03855e-06 6.3166e-06 0.112249)
(6.5898e-06 6.32418e-06 0.11225)
(4.31318e-06 4.49285e-06 0.112257)
(-4.38211e-06 4.31411e-06 0.112258)
(4.30549e-06 -4.58842e-06 0.112256)
(-4.59163e-06 -4.56413e-06 0.112257)
(1.54498e-05 -1.06948e-06 0.0986997)
(1.0741e-06 -8.85499e-06 0.0931912)
(1.00222e-05 -1.01581e-06 0.109803)
(-2.26605e-06 9.92406e-07 0.107443)
(3.90825e-06 -1.36373e-06 0.0986611)
(1.17723e-05 -7.70241e-06 0.0932429)
(-1.62332e-06 3.01775e-08 0.109801)
(9.55771e-07 1.45497e-06 0.0717808)
(-2.32972e-06 2.23066e-06 0.0718285)
(-1.20064e-06 1.53641e-05 0.0986998)
(-7.60837e-07 9.94756e-06 0.109802)
(-8.97838e-06 9.94317e-07 0.0931919)
(1.04803e-06 -2.48739e-06 0.107442)
(-1.32852e-06 3.92412e-06 0.0986613)
(1.9624e-07 -1.80887e-06 0.1098)
(-7.82038e-06 1.17515e-05 0.0932426)
(-8.08491e-07 4.89927e-06 0.0877656)
(4.8625e-06 -7.53682e-07 0.0877645)
(3.62651e-05 3.62559e-05 0.104328)
(-4.39643e-09 4.17746e-06 0.0878152)
(4.09565e-06 4.97363e-08 0.0878135)
(7.26652e-07 -5.16147e-07 0.0916476)
(4.9434e-06 1.51202e-05 0.0824564)
(9.82692e-07 2.09633e-05 0.0916035)
(-7.92627e-07 2.73772e-06 0.0824489)
(-3.18313e-06 9.40894e-06 0.071721)
(2.53584e-06 9.58343e-07 0.071709)
(-5.68639e-07 6.05371e-07 0.0916473)
(1.51804e-05 4.82201e-06 0.0824557)
(2.1033e-05 9.54578e-07 0.0916041)
(2.76472e-06 -8.93654e-07 0.0824492)
(6.52919e-06 -6.60474e-06 0.112254)
(-6.74527e-06 6.48889e-06 0.112253)
(6.2885e-06 6.50659e-06 0.112253)
(-4.77079e-05 -4.74357e-05 0.112193)
(4.73822e-05 -4.73843e-05 0.112193)
(-4.76042e-05 4.77747e-05 0.112192)
(4.74698e-05 4.7831e-05 0.112192)
(1.22592e-05 7.73296e-07 0.0987538)
(-2.25662e-05 1.55646e-05 0.0932158)
(9.15644e-06 -3.09783e-06 0.109791)
(2.25467e-05 -1.25146e-05 0.107442)
(-1.79862e-05 -3.34543e-08 0.0986676)
(6.06929e-07 7.53811e-06 0.0932787)
(2.78814e-05 -5.65895e-06 0.109786)
(9.37341e-06 -3.09694e-06 0.0717186)
(1.02808e-06 2.42486e-06 0.0717106)
(6.70076e-07 1.22486e-05 0.0987539)
(-3.34817e-06 9.08611e-06 0.10979)
(1.56393e-05 -2.26288e-05 0.0932165)
(-1.26498e-05 2.26695e-05 0.107441)
(-2.1872e-07 -1.80098e-05 0.0986676)
(-5.96191e-06 2.79762e-05 0.109785)
(7.61456e-06 6.27231e-07 0.0932787)
(-1.14108e-05 -1.37414e-05 0.0877851)
(-1.3747e-05 -1.14222e-05 0.0877839)
(4.68648e-05 4.71275e-05 0.10435)
(1.43884e-06 -2.22778e-06 0.0878082)
(-2.14036e-06 1.36661e-06 0.0878064)
(-2.17872e-06 -5.09331e-05 0.0916731)
(-1.86321e-06 -2.08566e-06 0.0824338)
(-1.51005e-06 -2.3401e-05 0.0916301)
(-2.71508e-06 -2.73255e-05 0.0825619)
(-2.07685e-06 -4.0637e-06 0.0717341)
(5.15103e-07 -1.64635e-05 0.07189)
(-5.09938e-05 -2.22848e-06 0.0916726)
(-2.1298e-06 -1.88285e-06 0.082433)
(-2.33975e-05 -1.59065e-06 0.0916305)
(-2.73688e-05 -2.63929e-06 0.0825622)
(4.71388e-05 -4.71571e-05 0.112169)
(-4.73115e-05 4.75001e-05 0.112169)
(4.73411e-05 4.75411e-05 0.112169)
(3.16131e-06 2.75945e-06 0.112129)