/*--------------------------------*- C++ -*----------------------------------*\
| =========                 |                                                 |
| \\      /  F ield         | OpenFOAM: The Open Source CFD Toolbox           |
|  \\    /   O peration     | Version:  v1906                                 |
|   \\  /    A nd           | Web:      www.OpenFOAM.com                      |
|    \\/     M anipulation  |                                                 |
\*---------------------------------------------------------------------------*/
FoamFile
{
    version     2.0;
    format      ascii;
    class       volScalarField;
    location    "350";
    object      k;
}
// * * * * * * * * * * * * * * * * * * * * * * * * * * * * * * * * * * * * * //

dimensions      [0 2 -2 0 0 0 0];


internalField   nonuniform List<scalar> 
42616
(
3.58933e-05
3.58914e-05
3.58914e-05
3.59958e-05
3.39293e-05
3.38877e-05
3.38877e-05
3.39602e-05
3.2157e-05
3.20049e-05
3.20048e-05
3.19456e-05
3.0533e-05
3.02239e-05
3.02236e-05
2.99782e-05
2.90305e-05
2.85467e-05
2.85465e-05
2.81102e-05
2.76321e-05
2.69783e-05
2.69783e-05
2.63784e-05
2.63268e-05
2.55212e-05
2.55211e-05
2.47952e-05
2.51065e-05
2.41743e-05
2.41738e-05
2.33651e-05
2.39656e-05
2.29388e-05
2.29382e-05
2.20907e-05
2.28997e-05
2.1814e-05
2.18133e-05
2.097e-05
2.19052e-05
2.07974e-05
2.07968e-05
1.99969e-05
2.09789e-05
1.9886e-05
1.98856e-05
1.9164e-05
2.0116e-05
1.90778e-05
1.90775e-05
1.847e-05
1.9315e-05
1.83695e-05
1.83694e-05
1.79096e-05
1.85752e-05
1.77581e-05
1.77579e-05
1.74781e-05
1.78937e-05
1.72417e-05
1.72415e-05
1.71664e-05
1.72683e-05
1.68195e-05
1.68192e-05
1.69819e-05
1.66969e-05
1.64907e-05
1.64906e-05
1.69384e-05
1.61781e-05
1.6255e-05
1.62552e-05
1.70299e-05
1.57096e-05
1.61128e-05
1.61132e-05
1.72504e-05
1.52898e-05
1.60634e-05
1.60641e-05
1.7599e-05
3.63062e-05
3.62907e-05
3.62907e-05
3.63062e-05
3.62907e-05
3.62907e-05
3.6423e-05
3.6423e-05
3.6423e-05
3.6423e-05
3.62907e-05
3.62907e-05
3.63062e-05
3.62907e-05
3.62907e-05
3.63062e-05
3.59959e-05
3.42673e-05
3.58914e-05
3.58914e-05
3.43756e-05
3.43754e-05
3.59958e-05
3.4267e-05
3.58914e-05
3.58914e-05
3.43757e-05
3.43755e-05
3.58914e-05
3.43757e-05
3.43755e-05
3.59958e-05
3.4267e-05
3.58914e-05
3.43757e-05
3.43756e-05
3.4267e-05
3.39606e-05
3.22584e-05
3.38876e-05
3.38874e-05
3.24655e-05
3.2465e-05
3.39603e-05
3.2258e-05
3.38877e-05
3.38875e-05
3.24656e-05
3.24655e-05
3.38875e-05
3.24658e-05
3.2465e-05
3.39603e-05
3.22581e-05
3.38875e-05
3.24657e-05
3.24652e-05
3.22575e-05
3.19467e-05
3.02912e-05
3.20045e-05
3.20039e-05
3.06593e-05
3.0658e-05
3.19462e-05
3.02904e-05
3.20047e-05
3.20045e-05
3.06595e-05
3.0659e-05
3.20039e-05
3.06597e-05
3.06583e-05
3.19463e-05
3.02903e-05
3.20041e-05
3.06594e-05
3.06585e-05
3.02893e-05
2.99801e-05
2.8415e-05
3.02235e-05
3.0222e-05
2.89556e-05
2.89535e-05
2.99792e-05
2.84139e-05
3.02237e-05
3.02231e-05
2.89557e-05
2.89548e-05
3.02223e-05
2.89559e-05
2.89541e-05
2.99792e-05
2.8414e-05
3.02226e-05
2.89557e-05
2.89543e-05
2.84128e-05
2.81124e-05
2.66624e-05
2.85464e-05
2.85441e-05
2.73597e-05
2.73574e-05
2.8111e-05
2.66614e-05
2.85465e-05
2.85455e-05
2.73598e-05
2.73588e-05
2.85449e-05
2.736e-05
2.73583e-05
2.81113e-05
2.66613e-05
2.8545e-05
2.73599e-05
2.73584e-05
2.66608e-05
2.63796e-05
2.50539e-05
2.69781e-05
2.69758e-05
2.58748e-05
2.58728e-05
2.63788e-05
2.50527e-05
2.69782e-05
2.69772e-05
2.5875e-05
2.58739e-05
2.69766e-05
2.58751e-05
2.58732e-05
2.63791e-05
2.5052e-05
2.69768e-05
2.5875e-05
2.58737e-05
2.50518e-05
2.4796e-05
2.35987e-05
2.55208e-05
2.55189e-05
2.44999e-05
2.44983e-05
2.4796e-05
2.35981e-05
2.55211e-05
2.55199e-05
2.45004e-05
2.44989e-05
2.55192e-05
2.45005e-05
2.44983e-05
2.47955e-05
2.3597e-05
2.55198e-05
2.45002e-05
2.44991e-05
2.35975e-05
2.33659e-05
2.22963e-05
2.41735e-05
2.4172e-05
2.32362e-05
2.32351e-05
2.33661e-05
2.22965e-05
2.41741e-05
2.41725e-05
2.32371e-05
2.32352e-05
2.4172e-05
2.32372e-05
2.32351e-05
2.33651e-05
2.22957e-05
2.41729e-05
2.32366e-05
2.3236e-05
2.22967e-05
2.20917e-05
2.11517e-05
2.29377e-05
2.29368e-05
2.20835e-05
2.2083e-05
2.20917e-05
2.11527e-05
2.29387e-05
2.29368e-05
2.20848e-05
2.20828e-05
2.29368e-05
2.20849e-05
2.20831e-05
2.20904e-05
2.11505e-05
2.29376e-05
2.20843e-05
2.2084e-05
2.11529e-05
2.09709e-05
2.0153e-05
2.18125e-05
2.18121e-05
2.10398e-05
2.10398e-05
2.09711e-05
2.01542e-05
2.18138e-05
2.18119e-05
2.10412e-05
2.10394e-05
2.18122e-05
2.10415e-05
2.104e-05
2.0971e-05
2.01533e-05
2.18131e-05
2.10409e-05
2.10409e-05
2.01544e-05
1.99969e-05
1.92962e-05
2.07956e-05
2.07957e-05
2.01023e-05
2.01026e-05
1.99979e-05
1.9297e-05
2.07971e-05
2.07952e-05
2.01038e-05
2.01021e-05
2.07959e-05
2.01041e-05
2.01029e-05
1.99967e-05
1.92961e-05
2.07968e-05
2.01036e-05
2.01037e-05
1.92971e-05
1.91634e-05
1.85697e-05
1.98842e-05
1.98845e-05
1.92685e-05
1.92688e-05
1.91644e-05
1.85704e-05
1.98856e-05
1.98839e-05
1.92698e-05
1.92682e-05
1.98849e-05
1.92701e-05
1.92692e-05
1.91635e-05
1.85696e-05
1.98857e-05
1.92698e-05
1.927e-05
1.85703e-05
1.84696e-05
1.79737e-05
1.90762e-05
1.90765e-05
1.85358e-05
1.8536e-05
1.84701e-05
1.79739e-05
1.90774e-05
1.90759e-05
1.85369e-05
1.85355e-05
1.90769e-05
1.85372e-05
1.85364e-05
1.84695e-05
1.79733e-05
1.90777e-05
1.8537e-05
1.85372e-05
1.79739e-05
1.79095e-05
1.75112e-05
1.83682e-05
1.83683e-05
1.79006e-05
1.79007e-05
1.79096e-05
1.75113e-05
1.83692e-05
1.83678e-05
1.79016e-05
1.79002e-05
1.83688e-05
1.79018e-05
1.7901e-05
1.79091e-05
1.75105e-05
1.83695e-05
1.79016e-05
1.79017e-05
1.75112e-05
1.74782e-05
1.71868e-05
1.77569e-05
1.7757e-05
1.73605e-05
1.73606e-05
1.74785e-05
1.71856e-05
1.77578e-05
1.77565e-05
1.73614e-05
1.73602e-05
1.77574e-05
1.73616e-05
1.73609e-05
1.74779e-05
1.71851e-05
1.77581e-05
1.73614e-05
1.73615e-05
1.71865e-05
1.71658e-05
1.6988e-05
1.72407e-05
1.72407e-05
1.69149e-05
1.69149e-05
1.71677e-05
1.69847e-05
1.72414e-05
1.72403e-05
1.69156e-05
1.69146e-05
1.72411e-05
1.69158e-05
1.69152e-05
1.71679e-05
1.69843e-05
1.72417e-05
1.69155e-05
1.69157e-05
1.69895e-05
1.69824e-05
1.69306e-05
1.68188e-05
1.68186e-05
1.65626e-05
1.65623e-05
1.69856e-05
1.69284e-05
1.68193e-05
1.68184e-05
1.65632e-05
1.65624e-05
1.6819e-05
1.65633e-05
1.65629e-05
1.69853e-05
1.69288e-05
1.68196e-05
1.65631e-05
1.65634e-05
1.69301e-05
1.69387e-05
1.69981e-05
1.64902e-05
1.64897e-05
1.63038e-05
1.63032e-05
1.69377e-05
1.69939e-05
1.64905e-05
1.64899e-05
1.63043e-05
1.63035e-05
1.64904e-05
1.63041e-05
1.6304e-05
1.69381e-05
1.69948e-05
1.64909e-05
1.63041e-05
1.63044e-05
1.69977e-05
1.7031e-05
1.71971e-05
1.6255e-05
1.62543e-05
1.6138e-05
1.61375e-05
1.70314e-05
1.71838e-05
1.62552e-05
1.62547e-05
1.61387e-05
1.6138e-05
1.62551e-05
1.61381e-05
1.61384e-05
1.70321e-05
1.71866e-05
1.62555e-05
1.61384e-05
1.61386e-05
1.71934e-05
1.72487e-05
1.75255e-05
1.61129e-05
1.61123e-05
1.60653e-05
1.60648e-05
1.7256e-05
1.75125e-05
1.61132e-05
1.61128e-05
1.60658e-05
1.60655e-05
1.61132e-05
1.60652e-05
1.60658e-05
1.72576e-05
1.75144e-05
1.61135e-05
1.60657e-05
1.6066e-05
1.75257e-05
1.75983e-05
1.60637e-05
1.60632e-05
1.76088e-05
1.60641e-05
1.6064e-05
1.60642e-05
1.76063e-05
1.60643e-05
3.73774e-05
3.73766e-05
3.7377e-05
3.7377e-05
3.73702e-05
3.73777e-05
3.73051e-05
3.73768e-05
3.73702e-05
3.73777e-05
3.73769e-05
3.73046e-05
3.73741e-05
3.72972e-05
3.72969e-05
3.58646e-05
4.07782e-05
3.66066e-05
4.50606e-05
5.56049e-05
6.51599e-05
3.58696e-05
4.07769e-05
3.66078e-05
4.50579e-05
3.58933e-05
3.58933e-05
3.58933e-05
3.44002e-05
3.44001e-05
3.44002e-05
3.44002e-05
3.52725e-05
3.56134e-05
3.58931e-05
3.53767e-05
3.60493e-05
3.41851e-05
3.53822e-05
5.56936e-05
6.51423e-05
3.52716e-05
3.58931e-05
3.56093e-05
3.53767e-05
3.60487e-05
3.53821e-05
3.41862e-05
3.6611e-05
3.65812e-05
3.52786e-05
3.40289e-05
3.40314e-05
3.39332e-05
5.12996e-05
3.46647e-05
5.46121e-05
7.66337e-05
8.09468e-05
3.39496e-05
5.13026e-05
3.46766e-05
5.46104e-05
3.39293e-05
3.39293e-05
3.39293e-05
3.25848e-05
3.25848e-05
3.25848e-05
3.25847e-05
3.30459e-05
3.2442e-05
3.39292e-05
3.34071e-05
3.38925e-05
3.15361e-05
3.34674e-05
7.66286e-05
8.09574e-05
3.30434e-05
3.39291e-05
3.24406e-05
3.3407e-05
3.38899e-05
3.34673e-05
3.15369e-05
3.1687e-05
3.16813e-05
3.326e-05
3.08658e-05
3.08609e-05
3.22228e-05
5.9156e-05
3.29018e-05
6.14561e-05
8.44139e-05
8.508e-05
3.22331e-05
5.91608e-05
3.29148e-05
6.14604e-05
3.21569e-05
3.2157e-05
3.21569e-05
3.09268e-05
3.09267e-05
3.09268e-05
3.09266e-05
3.07776e-05
3.0488e-05
3.21366e-05
3.15503e-05
3.16298e-05
2.98622e-05
3.17088e-05
8.44161e-05
8.50827e-05
3.07735e-05
3.21363e-05
3.04875e-05
3.15501e-05
3.16261e-05
3.17085e-05
2.98617e-05
3.01851e-05
3.01883e-05
3.12651e-05
2.99702e-05
2.99701e-05
3.07399e-05
6.43518e-05
3.13299e-05
6.57462e-05
8.45981e-05
8.39135e-05
3.07367e-05
6.43527e-05
3.1336e-05
6.575e-05
3.05329e-05
3.0533e-05
3.05328e-05
2.93958e-05
2.93956e-05
2.93957e-05
2.93954e-05
2.85854e-05
2.91169e-05
3.04672e-05
2.97946e-05
2.94043e-05
2.86563e-05
3.00662e-05
8.46014e-05
8.39163e-05
2.85829e-05
3.04668e-05
2.91198e-05
2.97943e-05
2.94007e-05
3.00658e-05
2.86583e-05
2.99325e-05
2.993e-05
2.93369e-05
3.00352e-05
3.00321e-05
2.95043e-05
6.73148e-05
2.99867e-05
6.80431e-05
8.21901e-05
8.12237e-05
2.95e-05
6.73172e-05
2.9988e-05
6.80471e-05
2.90302e-05
2.90304e-05
2.90301e-05
2.79726e-05
2.79723e-05
2.79725e-05
2.79721e-05
2.65486e-05
2.81088e-05
2.88992e-05
2.81442e-05
2.73081e-05
2.7757e-05
2.85218e-05
8.21899e-05
8.12275e-05
2.6547e-05
2.88989e-05
2.81091e-05
2.81441e-05
2.73055e-05
2.85214e-05
2.77615e-05
3.04724e-05
3.04686e-05
2.75203e-05
3.07971e-05
3.07975e-05
2.85887e-05
6.87338e-05
2.89313e-05
6.90318e-05
7.94192e-05
7.85434e-05
2.85867e-05
6.87371e-05
2.89372e-05
6.90354e-05
2.76318e-05
2.7632e-05
2.76316e-05
2.66449e-05
2.66445e-05
2.66447e-05
2.66443e-05
2.47216e-05
2.73888e-05
2.74238e-05
2.66036e-05
2.54048e-05
2.71619e-05
2.70691e-05
7.94184e-05
7.85466e-05
2.47227e-05
2.74236e-05
2.7393e-05
2.66036e-05
2.54041e-05
2.70688e-05
2.71648e-05
3.16395e-05
3.1637e-05
2.5837e-05
3.21416e-05
3.214e-05
2.80417e-05
6.92388e-05
2.82228e-05
6.92998e-05
7.69977e-05
7.63004e-05
2.8039e-05
6.92434e-05
2.82338e-05
6.93053e-05
2.63264e-05
2.63266e-05
2.63262e-05
2.5404e-05
2.54036e-05
2.54037e-05
2.54033e-05
2.31424e-05
2.69767e-05
2.60384e-05
2.51741e-05
2.37386e-05
2.68982e-05
2.5706e-05
7.69974e-05
7.63021e-05
2.31432e-05
2.60384e-05
2.69831e-05
2.51739e-05
2.37392e-05
2.57059e-05
2.6896e-05
3.32858e-05
3.32836e-05
2.43067e-05
3.39204e-05
3.39145e-05
2.7899e-05
6.92816e-05
2.79101e-05
6.92577e-05
7.50733e-05
7.45424e-05
2.79001e-05
6.92874e-05
2.79155e-05
6.92638e-05
2.51062e-05
2.51063e-05
2.51059e-05
2.42436e-05
2.42433e-05
2.42433e-05
2.4243e-05
2.18291e-05
2.69174e-05
2.47421e-05
2.38549e-05
2.23316e-05
2.69577e-05
2.44318e-05
7.50739e-05
7.45443e-05
2.18275e-05
2.4742e-05
2.69151e-05
2.38544e-05
2.23302e-05
2.44316e-05
2.69613e-05
3.52877e-05
3.52866e-05
2.29279e-05
3.60148e-05
3.60183e-05
2.81563e-05
6.91754e-05
2.80221e-05
6.91475e-05
7.36128e-05
7.32176e-05
2.81487e-05
6.91818e-05
2.80296e-05
6.91543e-05
2.39653e-05
2.39652e-05
2.3965e-05
2.31593e-05
2.31591e-05
2.31589e-05
2.31588e-05
2.07896e-05
2.71934e-05
2.35337e-05
2.26473e-05
2.11901e-05
2.73357e-05
2.32448e-05
7.36124e-05
7.32213e-05
2.07879e-05
2.35333e-05
2.71784e-05
2.26467e-05
2.11881e-05
2.32443e-05
2.73459e-05
3.75433e-05
3.75396e-05
2.17052e-05
3.83212e-05
3.83255e-05
2.88249e-05
6.90944e-05
2.85515e-05
6.90855e-05
7.25354e-05
7.22532e-05
2.88155e-05
6.91007e-05
2.85601e-05
6.90933e-05
2.28995e-05
2.28993e-05
2.28992e-05
2.21472e-05
2.21472e-05
2.21468e-05
2.21469e-05
2.00201e-05
2.77763e-05
2.24093e-05
2.15498e-05
2.03108e-05
2.80207e-05
2.21412e-05
7.25378e-05
7.22551e-05
2.00183e-05
2.24088e-05
2.77664e-05
2.15491e-05
2.03105e-05
2.21406e-05
2.80389e-05
3.99246e-05
3.99285e-05
2.06359e-05
4.07327e-05
4.07363e-05
2.99117e-05
6.90849e-05
2.94959e-05
6.91016e-05
7.17625e-05
7.15566e-05
2.99024e-05
6.90917e-05
2.95043e-05
6.91091e-05
2.19052e-05
2.19048e-05
2.19049e-05
2.12041e-05
2.12042e-05
2.12038e-05
2.12041e-05
1.95122e-05
2.86502e-05
2.13685e-05
2.05597e-05
1.96963e-05
2.89879e-05
2.11214e-05
7.17579e-05
7.15629e-05
1.95104e-05
2.1368e-05
2.86418e-05
2.05592e-05
1.96958e-05
2.11208e-05
2.89886e-05
4.23486e-05
4.23546e-05
1.97086e-05
4.3147e-05
4.31561e-05
3.13971e-05
6.91404e-05
3.08521e-05
6.91771e-05
7.12151e-05
7.10707e-05
3.13879e-05
6.91429e-05
3.08543e-05
6.9187e-05
2.09791e-05
2.09787e-05
2.09789e-05
2.0326e-05
2.03262e-05
2.03258e-05
2.03261e-05
1.92674e-05
2.97789e-05
2.04109e-05
1.96742e-05
1.93393e-05
3.01843e-05
2.01841e-05
7.121e-05
7.10778e-05
1.92637e-05
2.04105e-05
2.97735e-05
1.96738e-05
1.9342e-05
2.01836e-05
3.01893e-05
4.47255e-05
4.4732e-05
1.89174e-05
4.54909e-05
4.55005e-05
3.32584e-05
6.92404e-05
3.25927e-05
6.92865e-05
7.08331e-05
7.07323e-05
3.32486e-05
6.92429e-05
3.25936e-05
6.92954e-05
2.01162e-05
2.01158e-05
2.01161e-05
1.95094e-05
1.95096e-05
1.95092e-05
1.95095e-05
1.92781e-05
3.11192e-05
1.95334e-05
1.88914e-05
1.92541e-05
3.15933e-05
1.93262e-05
7.08271e-05
7.07393e-05
1.92777e-05
1.95331e-05
3.11102e-05
1.88911e-05
1.9253e-05
1.93259e-05
3.16037e-05
4.6983e-05
4.69912e-05
1.82558e-05
4.76978e-05
4.77064e-05
3.54318e-05
6.93557e-05
3.4675e-05
6.94021e-05
7.05651e-05
7.04933e-05
3.54312e-05
6.93582e-05
3.46766e-05
6.94103e-05
1.93153e-05
1.93149e-05
1.93152e-05
1.87544e-05
1.87546e-05
1.87543e-05
1.87546e-05
1.95474e-05
3.26237e-05
1.87332e-05
1.82076e-05
1.94361e-05
3.31371e-05
1.85448e-05
7.05577e-05
7.05001e-05
1.95443e-05
1.87329e-05
3.26155e-05
1.82074e-05
1.94364e-05
1.85445e-05
3.31462e-05
4.90713e-05
4.90798e-05
1.77255e-05
4.97206e-05
4.97305e-05
3.78594e-05
6.94678e-05
3.70358e-05
6.95105e-05
7.03701e-05
7.03165e-05
3.78609e-05
6.94705e-05
3.70353e-05
6.95188e-05
1.85754e-05
1.8575e-05
1.85754e-05
1.80585e-05
1.80587e-05
1.80584e-05
1.80587e-05
2.00679e-05
3.42442e-05
1.80075e-05
1.76198e-05
1.98723e-05
3.47848e-05
1.78375e-05
7.03629e-05
7.03221e-05
2.00672e-05
1.80072e-05
3.42335e-05
1.76196e-05
1.98722e-05
1.78371e-05
3.47926e-05
5.09575e-05
5.09687e-05
1.7332e-05
5.15373e-05
5.15482e-05
4.04358e-05
6.95703e-05
3.95737e-05
6.96089e-05
7.0219e-05
7.0178e-05
4.04484e-05
6.95732e-05
3.9568e-05
6.96172e-05
1.78939e-05
1.78935e-05
1.78939e-05
1.74193e-05
1.74195e-05
1.74191e-05
1.74194e-05
2.08336e-05
3.59293e-05
1.73541e-05
1.71269e-05
2.05614e-05
3.64851e-05
1.72018e-05
7.02157e-05
7.01805e-05
2.08342e-05
1.73538e-05
3.5922e-05
1.71267e-05
2.05596e-05
1.72015e-05
3.64858e-05
5.26349e-05
5.26451e-05
1.70723e-05
5.31438e-05
5.31558e-05
4.30553e-05
6.9663e-05
4.21706e-05
6.96985e-05
7.00944e-05
7.0062e-05
4.3074e-05
6.96664e-05
4.21572e-05
6.97068e-05
1.72684e-05
1.72681e-05
1.72684e-05
1.68346e-05
1.68347e-05
1.68344e-05
1.68347e-05
2.18421e-05
3.76309e-05
1.67722e-05
1.67279e-05
2.14876e-05
3.8182e-05
1.66375e-05
7.00941e-05
7.00629e-05
2.1841e-05
1.67718e-05
3.76259e-05
1.67276e-05
2.14857e-05
1.66371e-05
3.8189e-05
5.4106e-05
5.41164e-05
1.69425e-05
5.45498e-05
5.45617e-05
4.55959e-05
6.97485e-05
4.4722e-05
6.97815e-05
6.99875e-05
6.99593e-05
4.56127e-05
6.97523e-05
4.47132e-05
6.979e-05
1.6697e-05
1.66967e-05
1.6697e-05
1.63028e-05
1.63028e-05
1.63026e-05
1.63028e-05
2.306e-05
3.93025e-05
1.62594e-05
1.64221e-05
2.26381e-05
3.98418e-05
1.61416e-05
6.99871e-05
6.99591e-05
2.30581e-05
1.6259e-05
3.92986e-05
1.6422e-05
2.26389e-05
1.61413e-05
3.98495e-05
5.5387e-05
5.53983e-05
1.69465e-05
5.57733e-05
5.57844e-05
4.79592e-05
6.98285e-05
4.7139e-05
6.98596e-05
6.98906e-05
6.9865e-05
4.79734e-05
6.98325e-05
4.71323e-05
6.98682e-05
1.61781e-05
1.6178e-05
1.61783e-05
1.58219e-05
1.58219e-05
1.58218e-05
1.5822e-05
2.44622e-05
4.0919e-05
1.58144e-05
1.62094e-05
2.39837e-05
4.14297e-05
1.57134e-05
6.98895e-05
6.9864e-05
2.44627e-05
1.5814e-05
4.09186e-05
1.62096e-05
2.39844e-05
1.57131e-05
4.1443e-05
5.65004e-05
5.65106e-05
1.70796e-05
5.68361e-05
5.68464e-05
5.00813e-05
6.99038e-05
4.93416e-05
6.9933e-05
6.98007e-05
6.9777e-05
5.00935e-05
6.99085e-05
4.93367e-05
6.99418e-05
1.57096e-05
1.57095e-05
1.57098e-05
1.53901e-05
1.53901e-05
1.539e-05
1.53902e-05
2.60065e-05
4.24503e-05
1.54367e-05
1.60901e-05
2.54881e-05
4.29303e-05
1.53525e-05
6.97989e-05
6.97754e-05
2.60059e-05
1.54365e-05
4.24488e-05
1.60905e-05
2.54874e-05
1.53523e-05
4.29403e-05
5.74686e-05
5.74794e-05
1.73447e-05
5.77605e-05
5.77717e-05
5.19319e-05
6.99745e-05
5.12846e-05
7.00011e-05
6.97164e-05
6.96945e-05
6.99811e-05
5.12814e-05
7.00082e-05
1.52897e-05
1.52897e-05
1.52899e-05
2.76504e-05
4.388e-05
1.51261e-05
1.60658e-05
2.71055e-05
4.43289e-05
1.50585e-05
6.97143e-05
2.76544e-05
1.5126e-05
4.38799e-05
2.71051e-05
1.50584e-05
5.83133e-05
5.83246e-05
1.7739e-05
5.857e-05
5.85811e-05
3.73741e-05
3.72971e-05
3.72968e-05
5.27854e-05
3.71924e-05
5.32332e-05
3.71925e-05
3.70929e-05
3.72478e-05
3.72714e-05
3.71749e-05
3.71749e-05
3.73702e-05
3.73777e-05
3.73052e-05
3.73768e-05
3.73702e-05
3.73777e-05
3.73047e-05
3.73768e-05
3.71717e-05
3.93595e-05
3.71563e-05
3.67222e-05
3.71719e-05
3.93268e-05
3.7156e-05
3.67197e-05
3.70959e-05
3.71021e-05
3.59972e-05
3.64209e-05
3.71646e-05
3.71108e-05
3.6305e-05
3.70959e-05
3.71021e-05
3.59978e-05
3.64209e-05
3.71654e-05
3.71108e-05
3.63048e-05
3.73741e-05
3.72968e-05
3.72972e-05
5.2473e-05
3.71927e-05
3.70929e-05
3.72089e-05
3.72461e-05
3.71759e-05
3.71753e-05
5.2854e-05
3.71926e-05
3.73702e-05
3.73777e-05
3.73048e-05
3.73769e-05
3.73702e-05
3.73777e-05
3.73768e-05
3.73048e-05
3.71717e-05
3.93566e-05
3.71562e-05
3.67229e-05
3.70959e-05
3.71021e-05
3.60017e-05
3.64209e-05
3.71654e-05
3.71108e-05
3.63051e-05
3.71718e-05
3.93358e-05
3.71561e-05
3.67233e-05
3.70959e-05
3.71021e-05
3.64209e-05
3.60001e-05
3.71108e-05
3.71654e-05
3.63051e-05
3.73774e-05
3.73766e-05
3.7377e-05
3.7377e-05
3.73774e-05
3.73766e-05
3.7377e-05
3.7377e-05
3.73774e-05
3.73766e-05
3.7377e-05
3.7377e-05
3.71133e-05
3.71098e-05
3.64241e-05
3.64241e-05
3.71125e-05
3.71125e-05
3.64261e-05
3.71133e-05
3.71098e-05
3.64241e-05
3.64241e-05
3.71125e-05
3.71125e-05
3.64261e-05
3.71133e-05
3.71098e-05
3.64241e-05
3.64241e-05
3.71125e-05
3.71125e-05
3.64261e-05
3.71133e-05
3.71098e-05
3.64241e-05
3.64241e-05
3.71125e-05
3.71125e-05
3.64261e-05
3.73702e-05
3.73777e-05
3.73768e-05
3.7305e-05
3.70959e-05
3.71021e-05
3.59948e-05
3.64209e-05
3.71646e-05
3.71108e-05
3.63051e-05
3.71717e-05
3.93649e-05
3.71563e-05
3.67228e-05
3.70959e-05
3.71021e-05
3.64209e-05
3.59982e-05
3.71108e-05
3.71648e-05
3.6305e-05
3.71718e-05
3.93744e-05
3.71566e-05
3.67208e-05
3.73741e-05
3.72969e-05
3.72972e-05
5.26594e-05
3.71925e-05
3.70929e-05
3.72323e-05
3.72459e-05
3.71747e-05
3.71751e-05
5.32568e-05
3.71927e-05
3.73702e-05
3.73777e-05
3.73769e-05
3.7305e-05
3.70959e-05
3.71021e-05
3.64209e-05
3.59985e-05
3.71108e-05
3.71654e-05
3.6305e-05
3.70959e-05
3.71021e-05
3.64209e-05
3.60003e-05
3.71108e-05
3.71648e-05
3.63051e-05
3.71718e-05
3.93531e-05
3.71562e-05
3.67199e-05
3.71719e-05
3.93691e-05
3.71563e-05
3.67214e-05
3.70929e-05
3.72663e-05
3.72497e-05
3.71762e-05
3.71757e-05
5.32206e-05
3.71926e-05
5.32599e-05
3.71924e-05
5.56513e-05
6.50379e-05
5.53567e-05
6.49883e-05
3.66238e-05
3.66168e-05
3.52787e-05
3.40424e-05
3.40309e-05
7.48734e-05
6.77733e-05
7.49206e-05
6.78054e-05
3.49725e-05
3.19832e-05
3.19933e-05
3.34559e-05
3.34523e-05
3.58645e-05
4.07802e-05
3.66042e-05
4.50684e-05
3.52718e-05
3.56089e-05
3.58931e-05
3.53767e-05
3.60492e-05
3.41787e-05
3.53822e-05
3.52719e-05
3.56031e-05
3.58931e-05
3.53766e-05
3.60488e-05
3.41778e-05
3.53821e-05
3.56276e-05
5.01656e-05
4.63585e-05
3.4873e-05
3.56306e-05
5.01651e-05
4.63708e-05
3.488e-05
3.49963e-05
3.48716e-05
3.2679e-05
3.44014e-05
3.38201e-05
3.48854e-05
3.41717e-05
3.49969e-05
3.48715e-05
3.26753e-05
3.44015e-05
3.38174e-05
3.48855e-05
3.41739e-05
3.65953e-05
3.66239e-05
3.52786e-05
3.40514e-05
3.40371e-05
5.56521e-05
6.50243e-05
7.48439e-05
6.78251e-05
3.49724e-05
3.1984e-05
3.19815e-05
3.3462e-05
3.34567e-05
7.48697e-05
6.77628e-05
3.52732e-05
3.56065e-05
3.58931e-05
3.53766e-05
3.60492e-05
3.41786e-05
3.53822e-05
3.58685e-05
4.07902e-05
3.66066e-05
4.50733e-05
3.52729e-05
3.58931e-05
3.56073e-05
3.53767e-05
3.60493e-05
3.53822e-05
3.41814e-05
3.56339e-05
5.01712e-05
4.63595e-05
3.48851e-05
3.4998e-05
3.48716e-05
3.26813e-05
3.44016e-05
3.38191e-05
3.48855e-05
3.41758e-05
3.56328e-05
5.0167e-05
4.63729e-05
3.48836e-05
3.49978e-05
3.48716e-05
3.44015e-05
3.26785e-05
3.48855e-05
3.38221e-05
3.41753e-05
3.58669e-05
4.07888e-05
3.66065e-05
4.50644e-05
3.52713e-05
3.58931e-05
3.56077e-05
3.53766e-05
3.6049e-05
3.53821e-05
3.41736e-05
3.5862e-05
4.07887e-05
3.6605e-05
4.5057e-05
3.49973e-05
3.48716e-05
3.26865e-05
3.44015e-05
3.3827e-05
3.48855e-05
3.41743e-05
3.56316e-05
5.01676e-05
4.63617e-05
3.4881e-05
3.49958e-05
3.48716e-05
3.44015e-05
3.26727e-05
3.48854e-05
3.38121e-05
3.41716e-05
3.56255e-05
5.01741e-05
4.63652e-05
3.4873e-05
3.66246e-05
3.6587e-05
3.52786e-05
3.40541e-05
3.40387e-05
5.51831e-05
6.51119e-05
7.48357e-05
6.77974e-05
3.49724e-05
3.19711e-05
3.19939e-05
3.34633e-05
3.3464e-05
7.48827e-05
6.78972e-05
3.52727e-05
3.58931e-05
3.56075e-05
3.53766e-05
3.60492e-05
3.53822e-05
3.41755e-05
3.58632e-05
4.0776e-05
3.66025e-05
4.5064e-05
3.58677e-05
4.07716e-05
3.66067e-05
4.50618e-05
3.49958e-05
3.48717e-05
3.44014e-05
3.26889e-05
3.48855e-05
3.38279e-05
3.41722e-05
3.49974e-05
3.48716e-05
3.44015e-05
3.26745e-05
3.48855e-05
3.38148e-05
3.41746e-05
3.56248e-05
5.01721e-05
4.63764e-05
3.48743e-05
3.56307e-05
5.01749e-05
4.63709e-05
3.48814e-05
5.53876e-05
6.49851e-05
5.51665e-05
6.51232e-05
3.49723e-05
3.19907e-05
3.19895e-05
3.34476e-05
3.34561e-05
7.49167e-05
6.78037e-05
7.49096e-05
6.79198e-05
7.66772e-05
8.09562e-05
7.66909e-05
8.09476e-05
3.16885e-05
3.16914e-05
3.32604e-05
3.08725e-05
3.08708e-05
8.40351e-05
8.19022e-05
8.40471e-05
8.18976e-05
3.29509e-05
3.0266e-05
3.02687e-05
3.07193e-05
3.07131e-05
3.39391e-05
5.12961e-05
3.46717e-05
5.4613e-05
3.3041e-05
3.24337e-05
3.39291e-05
3.34068e-05
3.38894e-05
3.15284e-05
3.34672e-05
3.30434e-05
3.24274e-05
3.39292e-05
3.34066e-05
3.38918e-05
3.15244e-05
3.34673e-05
3.3758e-05
5.83716e-05
5.55702e-05
3.30481e-05
3.37635e-05
5.83765e-05
5.5572e-05
3.30491e-05
3.27583e-05
3.29329e-05
3.06113e-05
3.25714e-05
3.13552e-05
3.30149e-05
3.19017e-05
3.27605e-05
3.29326e-05
3.06061e-05
3.25715e-05
3.13496e-05
3.30151e-05
3.19024e-05
3.16804e-05
3.16911e-05
3.32602e-05
3.08737e-05
3.08703e-05
7.66682e-05
8.09575e-05
8.40463e-05
8.19062e-05
3.29505e-05
3.02689e-05
3.02647e-05
3.07177e-05
3.07222e-05
8.40474e-05
8.19068e-05
3.30474e-05
3.24348e-05
3.39292e-05
3.3407e-05
3.38938e-05
3.15293e-05
3.34675e-05
3.39488e-05
5.12978e-05
3.46757e-05
5.46177e-05
3.30471e-05
3.39292e-05
3.24322e-05
3.34068e-05
3.38935e-05
3.34674e-05
3.15282e-05
3.37719e-05
5.83751e-05
5.55695e-05
3.30647e-05
3.2765e-05
3.2933e-05
3.06132e-05
3.25718e-05
3.13543e-05
3.30153e-05
3.19095e-05
3.37715e-05
5.83813e-05
5.55766e-05
3.30646e-05
3.27647e-05
3.29329e-05
3.25718e-05
3.06128e-05
3.30152e-05
3.13567e-05
3.19094e-05
3.39457e-05
5.12993e-05
3.46738e-05
5.46141e-05
3.30419e-05
3.39291e-05
3.24254e-05
3.34066e-05
3.38895e-05
3.34672e-05
3.1519e-05
3.39351e-05
5.13065e-05
3.46652e-05
5.46146e-05
3.27638e-05
3.29332e-05
3.06191e-05
3.25718e-05
3.13636e-05
3.30152e-05
3.19083e-05
3.3771e-05
5.83775e-05
5.55709e-05
3.30617e-05
3.27597e-05
3.29326e-05
3.25715e-05
3.06008e-05
3.3015e-05
3.13432e-05
3.19038e-05
3.37607e-05
5.83788e-05
5.55728e-05
3.30517e-05
3.16732e-05
3.16854e-05
3.32603e-05
3.0865e-05
3.0873e-05
7.66385e-05
8.09441e-05
8.4051e-05
8.19139e-05
3.29507e-05
3.02656e-05
3.0269e-05
3.07184e-05
3.07176e-05
8.40497e-05
8.19085e-05
3.30442e-05
3.39292e-05
3.24253e-05
3.34067e-05
3.38921e-05
3.34674e-05
3.15195e-05
3.39399e-05
5.12983e-05
3.46657e-05
5.46135e-05
3.39413e-05
5.13008e-05
3.46715e-05
5.4613e-05
3.2761e-05
3.29331e-05
3.25716e-05
3.06194e-05
3.30151e-05
3.13623e-05
3.19052e-05
3.27611e-05
3.29327e-05
3.25716e-05
3.06024e-05
3.30151e-05
3.13443e-05
3.19043e-05
3.3763e-05
5.83794e-05
5.55732e-05
3.30559e-05
3.37629e-05
5.83806e-05
5.55726e-05
3.30537e-05
7.66888e-05
8.09453e-05
7.66541e-05
8.09387e-05
3.29502e-05
3.02568e-05
3.02595e-05
3.07046e-05
3.07046e-05
8.40463e-05
8.18983e-05
8.40533e-05
8.19033e-05
8.44027e-05
8.50783e-05
8.44172e-05
8.5083e-05
3.01969e-05
3.01992e-05
3.12665e-05
2.99796e-05
2.99825e-05
8.48494e-05
8.5078e-05
8.48492e-05
8.50808e-05
3.09541e-05
2.99288e-05
2.99237e-05
2.9962e-05
2.99607e-05
3.22167e-05
5.91594e-05
3.29009e-05
6.1458e-05
3.07724e-05
3.04799e-05
3.2136e-05
3.15498e-05
3.16234e-05
2.98552e-05
3.17083e-05
3.07698e-05
3.04739e-05
3.2136e-05
3.15491e-05
3.16231e-05
2.98475e-05
3.17082e-05
3.20917e-05
6.38934e-05
6.20721e-05
3.14535e-05
3.20864e-05
6.38911e-05
6.20703e-05
3.14435e-05
3.05011e-05
3.11014e-05
2.9211e-05
3.0874e-05
2.97468e-05
3.12878e-05
2.96635e-05
3.04978e-05
3.11005e-05
2.92006e-05
3.08735e-05
2.97364e-05
3.12875e-05
2.96586e-05
3.01961e-05
3.0199e-05
3.12659e-05
2.9977e-05
2.9975e-05
8.44135e-05
8.50802e-05
8.48475e-05
8.50781e-05
3.09534e-05
2.99188e-05
2.99206e-05
2.9955e-05
2.99567e-05
8.48481e-05
8.50787e-05
3.07785e-05
3.0481e-05
3.21366e-05
3.15501e-05
3.16307e-05
2.9858e-05
3.17088e-05
3.2232e-05
5.9163e-05
3.29147e-05
6.14631e-05
3.07782e-05
3.21365e-05
3.04817e-05
3.15498e-05
3.16307e-05
3.17088e-05
2.98548e-05
3.21016e-05
6.3896e-05
6.20741e-05
3.14571e-05
3.05065e-05
3.11017e-05
2.92133e-05
3.08745e-05
2.97462e-05
3.12883e-05
2.96672e-05
3.21004e-05
6.38986e-05
6.20754e-05
3.14542e-05
3.05061e-05
3.11013e-05
3.08744e-05
2.92072e-05
3.12883e-05
2.9747e-05
2.96658e-05
3.22313e-05
5.916e-05
3.29146e-05
6.14612e-05
3.07738e-05
3.21361e-05
3.0469e-05
3.15491e-05
3.16254e-05
3.17083e-05
2.9845e-05
3.2224e-05
5.91629e-05
3.29049e-05
6.14626e-05
3.05058e-05
3.11019e-05
2.92172e-05
3.08745e-05
2.97494e-05
3.12883e-05
2.96664e-05
3.20995e-05
6.38967e-05
6.20728e-05
3.1456e-05
3.05023e-05
3.11006e-05
3.0874e-05
2.92014e-05
3.12877e-05
2.97349e-05
2.96641e-05
3.20938e-05
6.38977e-05
6.20754e-05
3.14521e-05
3.01971e-05
3.01957e-05
3.12658e-05
2.9974e-05
2.9976e-05
8.44146e-05
8.50789e-05
8.48509e-05
8.50814e-05
3.09534e-05
2.99186e-05
2.99226e-05
2.99548e-05
2.99553e-05
8.48361e-05
8.50773e-05
3.07725e-05
3.21362e-05
3.0471e-05
3.15493e-05
3.1625e-05
3.17084e-05
2.98461e-05
3.22239e-05
5.91617e-05
3.29055e-05
6.1461e-05
3.22216e-05
5.91646e-05
3.29033e-05
6.14638e-05
3.05013e-05
3.11016e-05
3.08741e-05
2.92177e-05
3.12879e-05
2.97487e-05
2.96629e-05
3.05004e-05
3.11009e-05
3.08739e-05
2.92019e-05
3.12877e-05
2.97351e-05
2.96613e-05
3.20923e-05
6.38978e-05
6.20742e-05
3.14498e-05
3.20904e-05
6.38976e-05
6.20761e-05
3.14463e-05
8.44181e-05
8.50832e-05
8.44224e-05
8.50832e-05
3.09526e-05
2.99158e-05
2.99138e-05
2.99496e-05
2.99486e-05
8.48473e-05
8.50811e-05
8.4846e-05
8.50807e-05
8.46011e-05
8.39164e-05
8.45991e-05
8.39167e-05
2.99449e-05
2.99397e-05
2.93391e-05
3.00485e-05
3.00435e-05
8.26284e-05
8.3528e-05
8.26289e-05
8.35265e-05
2.90312e-05
3.03458e-05
3.03418e-05
3.01227e-05
3.01156e-05
3.07284e-05
6.43464e-05
3.13204e-05
6.5742e-05
2.85844e-05
2.91189e-05
3.04668e-05
2.97942e-05
2.9402e-05
2.86504e-05
3.00659e-05
2.85789e-05
2.9104e-05
3.04661e-05
2.97925e-05
2.93966e-05
2.86429e-05
3.0065e-05
3.06236e-05
6.70999e-05
6.60703e-05
3.00875e-05
3.06207e-05
6.70943e-05
6.60637e-05
3.00766e-05
2.83347e-05
2.93716e-05
2.81691e-05
2.92821e-05
2.85767e-05
2.9671e-05
2.75443e-05
2.83293e-05
2.93696e-05
2.81635e-05
2.9281e-05
2.8555e-05
2.967e-05
2.75396e-05
2.99348e-05
2.99367e-05
2.93381e-05
3.00364e-05
3.00423e-05
8.4599e-05
8.39166e-05
8.26245e-05
8.35258e-05
2.90299e-05
3.03336e-05
3.03388e-05
3.01162e-05
3.01153e-05
8.26294e-05
8.3526e-05
2.85858e-05
2.91133e-05
3.04673e-05
2.97944e-05
2.94046e-05
2.86556e-05
3.00662e-05
3.07342e-05
6.43534e-05
3.13318e-05
6.57503e-05
2.85838e-05
3.04671e-05
2.91182e-05
2.97937e-05
2.9403e-05
3.0066e-05
2.86471e-05
3.06307e-05
6.71041e-05
6.60723e-05
3.00825e-05
2.83355e-05
2.93717e-05
2.81737e-05
2.92822e-05
2.85662e-05
2.96713e-05
2.75443e-05
3.06231e-05
6.71028e-05
6.60714e-05
3.00795e-05
2.83333e-05
2.93709e-05
2.9282e-05
2.81655e-05
2.9671e-05
2.85723e-05
2.75426e-05
3.07356e-05
6.43514e-05
3.13332e-05
6.57497e-05
2.85846e-05
3.04667e-05
2.91037e-05
2.97929e-05
2.94025e-05
3.00657e-05
2.86461e-05
3.07372e-05
6.43535e-05
3.13301e-05
6.57502e-05
2.83355e-05
2.93719e-05
2.81697e-05
2.92823e-05
2.85808e-05
2.96713e-05
2.7544e-05
3.06275e-05
6.7104e-05
6.60712e-05
3.00804e-05
2.8335e-05
2.93702e-05
2.92819e-05
2.81661e-05
2.96708e-05
2.85586e-05
2.75438e-05
3.06256e-05
6.71031e-05
6.60724e-05
3.00836e-05
2.99343e-05
2.994e-05
2.93381e-05
3.00383e-05
3.00426e-05
8.46094e-05
8.39176e-05
8.26284e-05
8.35259e-05
2.90301e-05
3.0335e-05
3.03398e-05
3.01129e-05
3.01245e-05
8.26268e-05
8.35288e-05
2.85804e-05
3.04665e-05
2.91045e-05
2.97931e-05
2.93987e-05
3.00654e-05
2.86429e-05
3.07327e-05
6.43543e-05
3.13293e-05
6.57506e-05
3.07301e-05
6.43531e-05
3.13248e-05
6.57483e-05
2.83328e-05
2.93717e-05
2.92819e-05
2.81729e-05
2.96709e-05
2.85742e-05
2.75419e-05
2.83299e-05
2.93704e-05
2.92814e-05
2.81629e-05
2.96704e-05
2.85586e-05
2.75392e-05
3.06254e-05
6.71026e-05
6.60726e-05
3.00791e-05
3.06175e-05
6.71004e-05
6.60699e-05
3.00759e-05
8.45996e-05
8.3915e-05
8.45993e-05
8.39133e-05
2.9029e-05
3.03346e-05
3.0333e-05
3.01151e-05
3.01126e-05
8.26261e-05
8.35273e-05
8.26237e-05
8.35257e-05
8.21931e-05
8.12277e-05
8.21908e-05
8.12269e-05
3.04735e-05
3.04667e-05
2.75222e-05
3.08058e-05
3.07954e-05
7.98441e-05
8.07876e-05
7.98431e-05
8.07841e-05
2.72277e-05
3.14088e-05
3.14043e-05
3.09818e-05
3.09783e-05
2.95002e-05
6.73073e-05
2.99791e-05
6.8037e-05
2.65504e-05
2.81065e-05
2.8899e-05
2.81439e-05
2.73088e-05
2.77611e-05
2.85217e-05
2.65469e-05
2.80827e-05
2.88979e-05
2.81416e-05
2.73044e-05
2.77557e-05
2.85206e-05
2.94146e-05
6.86609e-05
6.81742e-05
2.90049e-05
2.94145e-05
6.86557e-05
6.81673e-05
2.89976e-05
2.63311e-05
2.77484e-05
2.74309e-05
2.77842e-05
2.77016e-05
2.81502e-05
2.5609e-05