/*--------------------------------*- C++ -*----------------------------------*\
| =========                 |                                                 |
| \\      /  F ield         | OpenFOAM: The Open Source CFD Toolbox           |
|  \\    /   O peration     | Version:  v1906                                 |
|   \\  /    A nd           | Web:      www.OpenFOAM.com                      |
|    \\/     M anipulation  |                                                 |
\*---------------------------------------------------------------------------*/
FoamFile
{
    version     2.0;
    format      ascii;
    class       surfaceScalarField;
    location    "350";
    object      phi;
}
// * * * * * * * * * * * * * * * * * * * * * * * * * * * * * * * * * * * * * //

dimensions      [0 3 -1 0 0 0 0];
oriented        oriented;


internalField   nonuniform List<scalar> 
123728
(
-0.00104218
-1.46315e-05
-1.45281e-05
9.38396e-06
9.2142e-06
0.00105274
-0.00026149
-5.68386e-06
1.45089e-05
6.88917e-06
0.00105925
-4.59281e-06
-1.59757e-06
-2.12094e-06
-2.49024e-06
-6.62447e-06
-7.11477e-06
-2.9862e-06
-0.000263332
-0.000259761
-0.000262856
-0.000261467
-5.6889e-06
1.45375e-05
6.97839e-06
0.00105904
-4.59812e-06
-1.60786e-06
-2.12861e-06
-2.49477e-06
-6.61786e-06
-7.11084e-06
-2.98782e-06
-0.000259733
-0.000263304
-0.00026282
-0.000260564
5.65926e-06
5.69937e-06
-4.9533e-06
-4.94729e-06
0.000259106
-1.65205e-06
-1.65436e-06
-0.0010608
9.3388e-07
9.34516e-07
0.00106224
-0.00106274
-1.61821e-06
1.64849e-06
8.30679e-07
0.00106394
-6.79785e-07
8.3526e-07
-9.89716e-08
4.22746e-07
-8.50475e-07
-1.43204e-06
-2.55054e-07
-0.00106242
-1.61343e-06
1.65905e-06
8.26195e-07
0.00106362
-6.80006e-07
8.29519e-07
-9.92785e-08
4.20869e-07
-8.52694e-07
-1.43105e-06
-2.52309e-07
-0.000261566
1.65082e-06
1.61375e-06
-6.98253e-07
-7.01248e-07
0.000259701
-1.37495e-06
-1.37638e-06
-0.00106636
6.96213e-07
6.97057e-07
0.00106772
-0.00106788
-1.57234e-06
1.38089e-06
6.9038e-07
0.00106923
-6.56999e-07
8.78653e-07
-7.30927e-08
4.61654e-07
-8.37381e-07
-1.39903e-06
-2.2153e-07
-0.00106756
-1.56708e-06
1.37581e-06
6.95794e-07
0.0010689
-6.56979e-07
8.73346e-07
-7.30599e-08
4.61541e-07
-8.37378e-07
-1.39362e-06
-2.19083e-07
-0.000262803
1.60225e-06
1.56749e-06
-6.63538e-07
-6.71465e-07
0.000260968
-1.35005e-06
-1.35124e-06
-0.00107181
6.75742e-07
6.76769e-07
0.00107316
-0.00107323
-1.57212e-06
1.3503e-06
6.66149e-07
0.00107454
-6.53252e-07
9.00995e-07
-5.29398e-08
4.75771e-07
-8.28157e-07
-1.40441e-06
-1.9471e-07
-0.00107289
-1.56694e-06
1.35044e-06
6.6662e-07
0.0010742
-6.50764e-07
8.95482e-07
-5.51416e-08
4.75697e-07
-8.30682e-07
-1.40422e-06
-1.92285e-07
-0.00026408
1.59961e-06
1.56728e-06
-6.55691e-07
-6.61199e-07
0.00026223
-1.30345e-06
-1.30473e-06
-0.00107714
6.51429e-07
6.52371e-07
0.00107845
-0.0010784
-1.56374e-06
1.30385e-06
6.34855e-07
0.00107965
-6.38292e-07
9.25293e-07
-3.45317e-08
4.95051e-07
-8.09688e-07
-1.40319e-06
-1.64819e-07
-0.00107806
-1.55851e-06
1.30437e-06
6.35427e-07
0.00107931
-6.35744e-07
9.19794e-07
-3.66189e-08
4.94624e-07
-8.12371e-07
-1.40335e-06
-1.62558e-07
-0.000265298
1.59155e-06
1.55891e-06
-6.40076e-07
-6.45739e-07
0.000263434
-1.25307e-06
-1.25424e-06
-0.00108228
6.26596e-07
6.27476e-07
0.00108354
-0.00108332
-1.55482e-06
1.25335e-06
6.05538e-07
0.00108452
-6.23978e-07
9.47197e-07
-1.37271e-08
5.16368e-07
-7.88877e-07
-1.3967e-06
-1.36731e-07
-0.00108298
-1.54951e-06
1.25418e-06
6.06313e-07
0.00108418
-6.21324e-07
9.4173e-07
-1.64699e-08
5.15951e-07
-7.91692e-07
-1.3969e-06
-1.34588e-07
-0.000266443
1.58258e-06
1.54976e-06
-6.24055e-07
-6.29624e-07
0.000264564
-1.20663e-06
-1.20781e-06
-0.00108722
6.04769e-07
6.0549e-07
0.00108843
-0.001088
-1.5473e-06
1.20688e-06
5.82118e-07
0.00108913
-6.11937e-07
9.66603e-07
3.65913e-09
5.37698e-07
-7.69487e-07
-1.3887e-06
-1.12095e-07
-0.00108766
-1.54208e-06
1.20755e-06
5.83045e-07
0.00108879
-6.0938e-07
9.61026e-07
8.02054e-10
5.37489e-07
-7.72255e-07
-1.38873e-06
-1.09894e-07
-0.000267514
1.57521e-06
1.54221e-06
-6.09954e-07
-6.15593e-07
0.000265622
-1.16637e-06
-1.16732e-06
-0.00109197
5.86444e-07
5.87182e-07
0.00109313
-0.00109245
-1.54172e-06
1.16648e-06
5.63694e-07
0.00109353
-6.0262e-07
9.83724e-07
1.80389e-08
5.58459e-07
-7.52633e-07
-1.3808e-06
-9.09549e-08
-0.00109211
-1.5365e-06
1.1668e-06
5.64555e-07
0.00109319
-6.00077e-07
9.78104e-07
1.51412e-08
5.58437e-07
-7.55203e-07
-1.38062e-06
-8.86509e-08
-0.000268516
1.56975e-06
1.53658e-06
-5.98179e-07
-6.03911e-07
0.000266612
-1.13135e-06
-1.13276e-06
-0.00109655
5.7089e-07
5.71859e-07
0.00109767
-0.00109669
-1.53794e-06
1.13233e-06
5.49192e-07
0.00109772
-5.95905e-07
9.98722e-07
2.98448e-08
5.78459e-07
-7.38126e-07
-1.37345e-06
-7.28304e-08
-0.00109635
-1.5326e-06
1.13229e-06
5.49796e-07
0.00109737
-5.93247e-07
9.93184e-07
2.70102e-08
5.78558e-07
-7.40562e-07
-1.37314e-06
-7.04876e-08
-0.000269455
1.5661e-06
1.5328e-06
-5.88585e-07
-5.94333e-07
0.000267539
-1.10099e-06
-1.10241e-06
-0.00110098
5.57428e-07
5.58514e-07
0.00110207
-0.00110074
-1.53627e-06
1.10236e-06
5.37072e-07
0.00110173
-5.91825e-07
1.01171e-06
4.377e-08
5.97407e-07
-7.25621e-07
-1.36689e-06
-5.76054e-08
-0.0011004
-1.53076e-06
1.10238e-06
5.37731e-07
0.00110138
-5.8899e-07
1.00633e-06
3.98659e-08
5.97656e-07
-7.27917e-07
-1.36644e-06
-5.52407e-08
-0.000270337
1.56423e-06
1.53088e-06
-5.81084e-07
-5.86666e-07
0.000268409
-1.07443e-06
-1.07581e-06
-0.00110529
5.4591e-07
5.46741e-07
0.00110635
-0.00110462
-1.5355e-06
1.07609e-06
5.27965e-07
0.00110557
-5.86082e-07
1.02397e-06
5.17679e-08
6.15373e-07
-7.13976e-07
-1.36063e-06
-4.46625e-08
-0.00110428
-1.53005e-06
1.07579e-06
5.28364e-07
0.00110522
-5.86097e-07
1.01847e-06
5.16681e-08
6.15561e-07
-7.16341e-07
-1.36023e-06
-4.23658e-08
-0.000271164
1.56368e-06
1.53019e-06
-5.74917e-07
-5.80572e-07
0.000269226
-1.04992e-06
-1.05156e-06
-0.00110948
5.35237e-07
5.35733e-07
0.00111051
-0.00110835
-1.53509e-06
1.05182e-06
5.19278e-07
0.00110926
-5.83592e-07
1.03573e-06
6.16243e-08
6.32345e-07
-7.02254e-07
-1.35399e-06
-3.35459e-08
-0.001108
-1.52966e-06
1.05169e-06
5.19759e-07
0.00110891
-5.83592e-07
1.03019e-06
6.15573e-08
6.32442e-07
-7.04725e-07
-1.3537e-06
-3.13595e-08
-0.00027194
1.56345e-06
1.52975e-06
-5.6922e-07
-5.75025e-07
0.000269991
-1.02631e-06
-1.02774e-06
-0.00111356
5.24488e-07
5.24872e-07
0.00111456
-0.00111192
-1.53481e-06
1.02798e-06
5.10043e-07
0.00111279
-5.80811e-07
1.04728e-06
7.03882e-08
6.47897e-07
-6.90346e-07
-1.34697e-06
-2.1013e-08
-0.00111157
-1.52936e-06
1.02794e-06
5.10287e-07
0.00111244
-5.80794e-07
1.04164e-06
7.03481e-08
6.47837e-07
-6.92996e-07
-1.34682e-06
-1.82206e-08
-0.000272663
1.56337e-06
1.5294e-06
-5.63991e-07
-5.69968e-07
0.000270704
-1.00392e-06
-1.0051e-06
-0.00111754
5.14226e-07
5.14749e-07
0.00111852
-0.00111535
-1.53479e-06
1.00526e-06
4.99964e-07
0.00111618
-5.76943e-07
1.05788e-06
7.89048e-08
6.6216e-07
-6.77555e-07
-1.33912e-06
-8.86295e-09
-0.001115
-1.52925e-06
1.00526e-06
5.00197e-07
0.00111583
-5.76907e-07
1.05235e-06
7.88681e-08
6.62073e-07
-6.80262e-07
-1.33902e-06
-6.12315e-09
-0.000273333
1.56335e-06
1.52937e-06
-5.58621e-07
-5.64455e-07
0.000271363
-9.82082e-07
-9.82828e-07
-0.00112143
5.04057e-07
5.04818e-07
0.00112238
-0.00111862
-1.53437e-06
9.83178e-07
4.89388e-07
0.00111942
-5.71849e-07
1.06777e-06
8.73485e-08
6.7513e-07
-6.63785e-07
-1.33029e-06
2.33301e-09
-0.00111827
-1.52885e-06
9.82939e-07
4.89486e-07
0.00111907
-5.718e-07
1.06225e-06
8.73256e-08
6.75142e-07
-6.66428e-07
-1.33013e-06
5.1615e-09
-0.000273948
1.56288e-06
1.52896e-06
-5.52182e-07
-5.57819e-07
0.000271966
-9.60286e-07
-9.6084e-07
-0.00112521
4.93918e-07
4.94797e-07
0.00112615
-0.00112175
-1.53312e-06
9.61319e-07
4.78576e-07
0.0011225
-5.65626e-07
1.07755e-06
9.53957e-08
6.86989e-07
-6.4925e-07
-1.32052e-06
1.26152e-08
-0.00112139
-1.52761e-06
9.60884e-07
4.78502e-07
0.00112215
-5.65561e-07
1.07196e-06
9.53577e-08
6.87035e-07
-6.51788e-07
-1.32025e-06
1.55671e-08
-0.000274505
1.56167e-06
1.5277e-06
-5.44901e-07
-5.50532e-07
0.000272511
-9.38821e-07
-9.39333e-07
-0.00112891
4.84073e-07
4.84961e-07
0.00112982
-0.00112471
-1.53124e-06
9.39841e-07
4.67495e-07
0.00112543
-5.58066e-07
1.08686e-06
1.03159e-07
6.97693e-07
-6.3407e-07
-1.30967e-06
2.21466e-08
-0.00112436
-1.52574e-06
9.3938e-07
4.67588e-07
0.00112507
-5.58067e-07
1.08124e-06
1.03143e-07
6.97817e-07
-6.36604e-07
-1.30944e-06
2.51188e-08
-0.000275
1.55991e-06
1.5258e-06
-5.37078e-07
-5.428e-07
0.000272994
-9.17657e-07
-9.17797e-07
-0.00113251
4.74197e-07
4.75125e-07
0.0011334
-0.00112751
-1.52876e-06
9.18531e-07
4.56218e-07
0.00112819
-5.49459e-07
1.09545e-06
1.10716e-07
7.07755e-07
-6.18652e-07
-1.29798e-06
3.21244e-08
-0.00112716
-1.52333e-06
9.17896e-07
4.5603e-07
0.00112783
-5.49542e-07
1.0897e-06
1.10573e-07
7.07541e-07
-6.21379e-07
-1.29787e-06
3.65587e-08
-0.00027543
1.55755e-06
1.52329e-06
-5.28696e-07
-5.34529e-07
0.000273412
-8.96857e-07
-8.97083e-07
-0.00113602
4.64979e-07
4.65776e-07
0.00113688
-0.00113015
-1.52562e-06
8.97392e-07
4.44832e-07
0.00113078
-5.39983e-07
1.1033e-06
1.17843e-07
7.16489e-07
-6.0336e-07
-1.28608e-06
4.42839e-08
-0.00112979
-1.5202e-06
8.97224e-07
4.44835e-07
0.00113042
-5.4006e-07
1.09756e-06
1.1773e-07
7.16272e-07
-6.06083e-07
-1.28596e-06
4.81694e-08
-0.000275792
1.55453e-06
1.52012e-06
-5.19757e-07
-5.25645e-07
0.000273763
-8.76865e-07
-8.76772e-07
-0.00113944
4.56418e-07
4.56971e-07
0.00114028
-0.0011326
-1.5215e-06
8.77195e-07
4.3424e-07
0.00113319
-5.29428e-07
1.11066e-06
1.24888e-07
7.24531e-07
-5.87914e-07
-1.27324e-06
5.47618e-08
-0.00113224
-1.51617e-06
8.77133e-07
4.34577e-07
0.00113283
-5.29677e-07
1.10482e-06
1.24667e-07
7.24354e-07
-5.90668e-07
-1.27314e-06
5.84024e-08
-0.000276084
1.5506e-06
1.51611e-06
-5.10081e-07
-5.15995e-07
0.000274043
-8.62902e-07
-8.57215e-07
-0.00114276
4.48352e-07
4.4886e-07
0.00114358
-0.00113488
-1.51634e-06
8.52076e-07
4.2371e-07
0.00113542
-5.21269e-07
1.11743e-06
1.34587e-07
7.35031e-07
-5.72608e-07
-1.25941e-06
6.42038e-08
-0.00113452
-1.51109e-06
8.57598e-07
4.13428e-07
-5.18639e-07
1.11154e-06
1.31353e-07
7.31987e-07
-5.75282e-07
-1.25926e-06
6.77735e-08
0.00113507
-0.000276305
1.54563e-06
1.50837e-06
-4.99636e-07
-5.0553e-07
0.000274256
5.22571e-06
5.2366e-06
0.000260566
-0.000259153
-5.94502e-06
-5.93096e-06
5.05352e-06
0.000261439
-0.000258684
-5.96347e-06
3.38093e-06
-5.22575e-06
5.04846e-06
0.000261472
-0.000258699
-5.97149e-06
3.37599e-06
5.22636e-06
0.000260579
-0.000259155
-5.9163e-06
-5.95955e-06
5.04661e-06
0.000261503
-0.000258715
-5.96907e-06
3.37076e-06
5.05329e-06
-5.22769e-06
0.000261446
-0.000258684
3.38567e-06
-5.97368e-06
1.06918e-05
1.0598e-05
-0.000252646
-0.000256096
-0.000255126
-0.000255126
-6.41903e-06
-4.11051e-06
-6.65454e-06
-6.4194e-06
-4.11144e-06
-6.66009e-06
-5.04149e-06
0.0010422
1.06512e-05
1.06031e-05
-0.000252649
-0.000256094
-0.000255129
-0.000255129
-6.42159e-06
-4.11072e-06
-6.6572e-06
-6.41684e-06
-4.10615e-06
-6.65242e-06
-5.04099e-06
0.00104208
1.07111e-05
1.06637e-05
-0.000252641
-0.000256089
-0.000255126
-0.000255121
-6.42138e-06
-4.11816e-06
-6.65711e-06
-6.4215e-06
-4.10825e-06
-6.65462e-06
-5.05586e-06
-5.04384e-06
0.00104214
1.07068e-05
1.06081e-05
-0.000252644
-0.000256091
-0.000255126
-0.000255126
-6.41642e-06
-4.1131e-06
-6.65215e-06
-6.42168e-06
-4.11115e-06
-6.65738e-06
-0.000258709
-5.96129e-06
3.36563e-06
-5.22536e-06
0.000261434
-0.000258681
3.38076e-06
-5.9634e-06
5.2286e-06
0.000260558
-0.00025914
-5.91864e-06
-5.95607e-06
-0.000258694
3.37307e-06
-5.95822e-06
-5.23643e-06
0.0002615
-0.000258709
3.36812e-06
-5.96622e-06
-0.00025915
-5.94491e-06
-5.9303e-06
5.65979e-06
5.69697e-06
-4.95396e-06
-4.94761e-06
0.000259111
-8.12286e-07
-7.76759e-07
0.000261577
-0.000259444
-2.75752e-07
-2.6846e-07
7.14127e-06
0.00105866
-4.59058e-06
-1.55065e-06
-2.11579e-06
-2.49167e-06
-6.63863e-06
-7.12071e-06
-2.99258e-06
-0.000263293
-0.000259718
-0.00026282
-5.67004e-06
1.46042e-05
7.07989e-06
0.00105902
-4.60919e-06
-1.54291e-06
-2.11859e-06
-2.50241e-06
-6.66943e-06
-7.13731e-06
-3.00823e-06
-0.000263368
-0.000259749
-0.000262861
0.00106199
2.12327e-06
-0.00106095
1.04444e-06
-1.75877e-06
-1.32197e-07
-7.47073e-07
-1.54172e-06
-2.91764e-07
-9.12185e-07
3.64292e-07
8.2049e-07
0.00106241
2.12359e-06
-0.00106137
1.03909e-06
-1.76889e-06
-1.24842e-07
-7.52115e-07
-1.54775e-06
-2.91898e-07
-9.1274e-07
3.69543e-07
-4.95188e-06
-4.94419e-06
0.000259121
-7.79713e-07
0.000261602
-0.000259464
-2.72862e-07
-2.65412e-07
6.86324e-06
0.0010595
-4.61479e-06
-1.61065e-06
-2.13205e-06
-2.50095e-06
-6.65236e-06
-7.13296e-06
-3.00317e-06
-0.000263388
-0.000259777
-0.000262874
-5.66974e-06
1.46392e-05
7.17391e-06
0.0010588
-4.60912e-06
-1.55304e-06
-2.12363e-06
-2.5046e-06
-6.66907e-06
-7.13644e-06
-3.00816e-06
-0.000259718
-0.000263344
-0.000262833
0.00106301
2.13154e-06
-0.00106196
1.03273e-06
-1.72897e-06
-1.34411e-07
-7.47307e-07
-1.54521e-06
-2.92253e-07
-9.10668e-07
3.6635e-07
8.09779e-07
0.0010621
2.13414e-06
-0.00106108
1.05455e-06
-1.75877e-06
-1.29688e-07
-7.47032e-07
-1.54474e-06
-2.89204e-07
-9.14857e-07
3.64064e-07
1.4636e-05
7.16158e-06
0.00105861
-4.59028e-06
-1.55035e-06
-2.1129e-06
-2.49181e-06
-6.63879e-06
-2.99239e-06
-7.11853e-06
-0.000259713
-0.000263288
-0.000262815
2.13043e-06
-0.0010617
1.03738e-06
-1.72867e-06
-1.31559e-07
-7.43981e-07
-1.5427e-06
-2.94441e-07
3.606e-07
-9.09991e-07
8.09894e-07
0.00106189
2.13424e-06
-0.00106087
1.05468e-06
-1.75855e-06
-1.2956e-07
-7.4676e-07
-1.54504e-06
-2.92186e-07
-9.12808e-07
3.66252e-07
-4.95688e-06
-4.94394e-06
0.000259101
-7.71381e-07
0.000261554
-0.000259425
-2.76122e-07
-2.7083e-07
1.45377e-05
6.88132e-06
0.00105945
-4.61464e-06
-1.61046e-06
-2.13177e-06
-2.50076e-06
-6.65241e-06
-3.0035e-06
-7.13046e-06
-0.000259766
-0.000263386
-0.000262869
2.13603e-06
-0.0010614
1.05338e-06
-1.72638e-06
-1.34192e-07
-7.46838e-07
-1.53947e-06
-2.89609e-07
3.61141e-07
-9.12857e-07
7.71374e-07
0.00106291
2.13608e-06
-0.00106188
1.04288e-06
-1.72398e-06
-1.34397e-07
-7.44699e-07
-1.54244e-06
-2.91817e-07
-9.13042e-07
3.61414e-07
-0.000259441
-2.73291e-07
-2.70969e-07
1.65092e-06
1.61599e-06
-6.95472e-07
-7.03791e-07
0.000259709
-9.07397e-07
-8.68908e-07
0.000262816
-0.00026065
-1.98476e-07
-1.91179e-07
8.32276e-07
0.00106318
-6.82619e-07
8.67992e-07
-9.4864e-08
4.23785e-07
-8.49925e-07
-1.43339e-06
-2.54561e-07
-1.65606e-06
1.65269e-06
8.26912e-07
0.00106361
-6.85328e-07
8.75986e-07
-9.47689e-08
4.29135e-07
-8.5298e-07
-1.43928e-06
-2.52393e-07
0.00106711
1.38942e-06
-0.00106578
6.99672e-07
-1.60496e-06
-7.00055e-08
-6.6308e-07
-1.39354e-06
-2.26036e-07
-8.34561e-07
4.59445e-07
9.12734e-07
0.00106755
1.38979e-06
-0.00106621
6.94476e-07
-1.61021e-06
-7.00103e-08
-6.63281e-07
-1.39648e-06
-2.26326e-07
-8.35233e-07
4.62481e-07
-6.95828e-07
-7.03035e-07
0.000259727
-8.74255e-07
0.000262842
-0.000260663
-1.98373e-07
-1.93624e-07
8.25714e-07
0.0010642
-6.80283e-07
8.3235e-07
-9.70523e-08
4.2616e-07
-8.53115e-07
-1.43665e-06
-2.52293e-07
-1.65098e-06
1.65777e-06
8.32296e-07
0.00106329
-6.85444e-07
8.68002e-07
-9.48707e-08
4.23718e-07
-8.52514e-07
-1.43367e-06
-2.52219e-07
0.00106815
1.39092e-06
-0.00106682
6.98689e-07
-1.5675e-06
-7.44295e-08
-6.58388e-07
-1.39109e-06
-2.23834e-07
-8.34998e-07
4.62241e-07
9.0212e-07
0.00106723
1.38921e-06
-0.00106589
6.99646e-07
-1.60249e-06
-7.22731e-08
-6.63361e-07
-1.39332e-06
-2.26064e-07
-8.34664e-07
4.62504e-07
1.65295e-06
8.32226e-07
0.00106309
-6.85105e-07
8.65473e-07
-9.6916e-08
4.23405e-07
-8.53053e-07
-2.52326e-07
-1.43412e-06
1.39045e-06
-0.00106655
7.03778e-07
-1.57512e-06
-7.63487e-08
-6.57944e-07
-1.39127e-06
-2.24031e-07
4.61891e-07
-8.35013e-07
9.04761e-07
0.00106703
1.38467e-06
-0.00106568
6.99914e-07
-1.60238e-06
-7.21528e-08
-6.63156e-07
-1.39359e-06
-2.2636e-07
-8.34995e-07
4.59537e-07
-6.9873e-07
-7.0072e-07
0.000259689
-8.66303e-07
0.00026279
-0.000260629
-1.9863e-07
-1.93586e-07
1.65377e-06
8.20567e-07
0.00106413
-6.80497e-07
8.26853e-07
-1.01733e-07
4.21096e-07
-8.5027e-07
-2.56826e-07
-1.43127e-06
1.39053e-06
-0.00106622
6.98748e-07
-1.56465e-06
-7.63731e-08
-6.57948e-07
-1.38568e-06
-2.26411e-07
4.53848e-07
-8.35071e-07
8.68695e-07
0.00106805
1.39049e-06
-0.00106671
6.98711e-07
-1.56508e-06
-7.66882e-08
-6.58546e-07
-1.39345e-06
-2.26133e-07
-8.37689e-07
4.59924e-07
-0.000260637
-1.98733e-07
-1.93656e-07
1.60484e-06
1.57252e-06
-6.60741e-07
-6.68988e-07
0.000260968
-9.28036e-07
-8.91986e-07
0.000264095
-0.000261921
-1.79843e-07
-1.74825e-07
6.91411e-07
0.00106846
-6.64857e-07
9.11798e-07
-6.68365e-08
4.61806e-07
-8.34383e-07
-1.39357e-06
-2.23592e-07
-1.6101e-06
1.37536e-06
7.0183e-07
0.00106889
-6.64982e-07
9.1721e-07
-6.67643e-08
4.6764e-07
-8.37583e-07
-1.39906e-06
-2.19052e-07
0.00107247
1.35954e-06
-0.00107114
6.74814e-07
-1.60611e-06
-5.60042e-08
-6.58969e-07
-1.4031e-06
-2.0436e-07
-8.28822e-07
4.71607e-07
9.33627e-07
0.00107289
1.35967e-06
-0.00107156
6.7437e-07
-1.61123e-06
-5.37703e-08
-6.61579e-07
-1.4111e-06
-1.99583e-07
-8.34336e-07
4.8027e-07
-6.63653e-07
-6.65841e-07
0.000260989
-8.94958e-07
0.000264124
-0.000261946
-1.76853e-07
-1.71952e-07
6.90598e-07
0.0010695
-6.6279e-07
8.75866e-07
-7.12215e-08
4.64561e-07
-8.37411e-07
-1.39895e-06
-2.19004e-07
-1.60229e-06
1.37484e-06
6.96699e-07
0.00106857
-6.65032e-07
9.09226e-07
-6.68229e-08
4.6482e-07
-8.36943e-07
-1.39598e-06
-2.18749e-07
0.0010735
1.36077e-06
-0.00107217
6.74041e-07
-1.57106e-06
-5.8179e-08
-6.56831e-07
-1.40588e-06
-1.99573e-07
-8.34247e-07
4.74423e-07
9.28228e-07
0.00107257
1.3594e-06
-0.00107125
6.74756e-07
-1.60601e-06
-5.38188e-08
-6.61616e-07
-1.40555e-06
-1.99425e-07
-8.33844e-07
4.7455e-07
1.38048e-06
6.91589e-07
0.00106837
-6.62229e-07
9.06616e-07
-7.10492e-08
4.64447e-07
-8.3743e-07
-2.21523e-07
-1.39632e-06
1.35988e-06
-0.00107191
6.73625e-07
-1.57336e-06
-5.77805e-08
-6.5623e-07
-1.40321e-06
-2.02039e-07
4.71599e-07
-8.31555e-07
9.22905e-07
0.00107237
1.35949e-06
-0.00107104
6.74888e-07
-1.60076e-06
-5.79273e-08
-6.56155e-07
-1.4033e-06
-2.02096e-07
-8.31629e-07
4.71563e-07
-6.63682e-07
-6.68404e-07
0.000260953
-8.89475e-07
0.000264075
-0.000261905
-1.79571e-07
-1.7213e-07
1.3757e-06
6.95623e-07
0.0010694
-6.57644e-07
8.67853e-07
-7.55823e-08
4.62367e-07
-8.34792e-07
-2.21212e-07
-1.39348e-06
1.35996e-06
-0.00107157
6.74034e-07
-1.56816e-06
-5.99905e-08
-6.53719e-07
-1.40296e-06
-1.99624e-07
4.71618e-07
-8.34107e-07
8.89313e-07
0.00107341
1.36018e-06
-0.00107208
6.73823e-07
-1.56852e-06
-6.02105e-08
-6.54215e-07
-1.40049e-06
-2.01851e-07
-8.31604e-07
4.69377e-07
-0.000261918
-1.77312e-07
-1.7212e-07
1.60496e-06
1.56984e-06
-6.53087e-07
-6.58709e-07
0.000262232
-9.52418e-07
-9.16291e-07
0.000265314
-0.000263142
-1.54094e-07
-1.49126e-07
6.67508e-07
0.00107378
-6.56016e-07
9.34058e-07
-5.12081e-08
4.75748e-07
-8.2545e-07
-1.40433e-06
-1.97033e-07
-1.61006e-06
1.35008e-06
6.66933e-07
0.0010742
-6.58616e-07
9.39678e-07
-4.90035e-08
4.84438e-07
-8.30883e-07
-1.4123e-06
-1.92213e-07
0.00107763
1.31594e-06
-0.00107636
6.44519e-07
-1.59924e-06
-3.73148e-08
-6.45085e-07
-1.40416e-06
-1.74545e-07
-8.12053e-07
4.89871e-07
9.58102e-07
0.00107805
1.31565e-06
-0.00107678
6.43611e-07
-1.6043e-06
-3.52535e-08
-6.47658e-07
-1.41205e-06
-1.69624e-07
-8.17315e-07
4.98645e-07
-6.55866e-07
-6.60594e-07
0.000262258
-9.19331e-07
0.000265342
-0.000263168
-1.50974e-07
-1.46199e-07
6.66676e-07
0.00107481
-6.53868e-07
8.98003e-07
-5.33416e-08
4.78558e-07
-8.30855e-07
-1.40711e-06
-1.92261e-07
-1.60484e-06
1.34985e-06
6.6739e-07
0.00107388
-6.58652e-07
9.34264e-07
-4.90504e-08
4.78736e-07
-8.30441e-07
-1.40676e-06
-1.9208e-07
0.00107866
1.31708e-06
-0.00107739
6.4363e-07
-1.56393e-06
-3.92981e-08
-6.4285e-07
-1.40698e-06
-1.69844e-07
-8.17509e-07
4.92662e-07
9.52634e-07
0.00107773
1.3155e-06
-0.00107646
6.4416e-07
-1.59912e-06
-3.5298e-08
-6.47719e-07
-1.40645e-06
-1.69544e-07
-8.16955e-07
4.93008e-07
1.3499e-06
6.67513e-07
0.00107368
-6.53214e-07
9.28911e-07
-5.31166e-08
4.7574e-07
-8.28204e-07
-1.94748e-07
-1.4045e-06
1.31616e-06
-0.00107713
6.42758e-07
-1.56614e-06
-3.89006e-08
-6.42206e-07
-1.40419e-06
-1.7225e-07
4.89926e-07
-8.14769e-07
9.47258e-07
0.00107753
1.31566e-06
-0.00107626
6.44402e-07
-1.59388e-06
-3.91147e-08
-6.42257e-07
-1.40429e-06
-1.72239e-07
-8.1474e-07
4.8987e-07
-6.53333e-07
-6.60684e-07
0.000262217
-9.13819e-07
0.000265293
-0.000263126
-1.53708e-07
-1.46441e-07
1.35071e-06
6.66423e-07
0.00107472
-6.51218e-07
8.95335e-07
-5.53255e-08
4.73425e-07
-8.28279e-07
-1.94589e-07
-1.40181e-06
1.31656e-06
-0.00107679
6.43191e-07
-1.56093e-06
-4.09763e-08
-6.39691e-07
-1.40422e-06
-1.69948e-07
4.89614e-07
-8.17425e-07
9.13687e-07
0.00107857
1.31665e-06
-0.0010773
6.43036e-07
-1.5613e-06
-4.11268e-08
-6.40104e-07
-1.4018e-06
-1.7218e-07
-8.14953e-07
4.87399e-07
-0.000263139
-1.51505e-07
-1.4643e-07
1.59695e-06
1.56155e-06
-6.37561e-07
-6.43234e-07
0.000263436
-9.75242e-07
-9.3899e-07
0.000266459
-0.000264291
-1.29218e-07
-1.2401e-07
6.36612e-07
0.00107888
-6.41234e-07
9.58402e-07
-3.23584e-08
4.9498e-07
-8.06992e-07
-1.40317e-06
-1.67135e-07
-1.60204e-06
1.30298e-06
6.35439e-07
0.00107931
-6.43895e-07
9.64041e-07
-2.95138e-08
5.03742e-07
-8.1223e-07
-1.41106e-06
-1.62215e-07
0.00108255
1.26544e-06
-0.00108135
6.14071e-07
-1.59016e-06
-1.63656e-08
-6.30282e-07
-1.39865e-06
-1.4586e-07
-7.91459e-07
5.10803e-07
9.80882e-07
0.00108298
1.26479e-06
-0.00108177
6.13045e-07
-1.59527e-06
-1.35392e-08
-6.32951e-07
-1.40658e-06
-1.40959e-07
-7.96596e-07
5.19505e-07
-6.40266e-07
-6.45075e-07
0.000263462
-9.41965e-07
0.000266487
-0.000264317
-1.26278e-07
-1.21088e-07
6.35862e-07
0.00107992
-6.38922e-07
9.22263e-07
-3.49803e-08
4.97788e-07
-8.12433e-07
-1.40599e-06
-1.62425e-07
-1.59687e-06
1.30284e-06
6.36044e-07
0.00107899
-6.43952e-07
9.5857e-07
-2.95826e-08
4.98115e-07
-8.11885e-07
-1.40544e-06
-1.62137e-07
0.00108359
1.26665e-06
-0.00108238
6.13223e-07
-1.55468e-06
-1.90417e-08
-6.27953e-07
-1.40138e-06
-1.41127e-07
-7.96814e-07
5.13706e-07
9.75406e-07
0.00108266
1.26477e-06
-0.00108145
6.13625e-07
-1.59009e-06
-1.35875e-08
-6.3301e-07
-1.40099e-06
-1.40936e-07
-7.96367e-07
5.13857e-07
1.30327e-06
6.36597e-07
0.00107878
-6.38323e-07
9.53286e-07
-3.47623e-08
4.9497e-07
-8.09654e-07
-1.64816e-07
-1.40331e-06
1.26578e-06
-0.00108212
6.12259e-07
-1.55693e-06
-1.85951e-08
-6.27367e-07
-1.39856e-06
-1.43457e-07
5.10986e-07
-7.9402e-07
9.70149e-07
0.00108245
1.26523e-06
-0.00108125
6.13911e-07
-1.58469e-06
-1.87718e-08
-6.27341e-07
-1.39877e-06
-1.43544e-07
-7.9408e-07
5.10831e-07
-6.37705e-07
-6.45241e-07
0.000263421
-9.36512e-07
0.000266438
-0.000264275
-1.28985e-07
-1.21257e-07
1.30426e-06
6.35219e-07
0.00107983
-6.36144e-07
9.19684e-07
-3.6745e-08
4.92523e-07
-8.09844e-07
-1.64735e-07
-1.40079e-06
1.26659e-06
-0.00108178
6.13025e-07
-1.55164e-06
-2.13244e-08
-6.24721e-07
-1.39872e-06
-1.41316e-07
5.10599e-07
-7.96859e-07
9.36483e-07
0.0010835
1.26627e-06
-0.00108229
6.12529e-07
-1.55192e-06
-2.1448e-08
-6.25074e-07
-1.39614e-06
-1.43359e-07
-7.94143e-07
5.08464e-07
-0.000264288
-1.26492e-07
-1.21169e-07
1.58805e-06
1.55253e-06
-6.21572e-07
-6.27182e-07
0.000264567
-9.95386e-07
-9.59038e-07
0.00026753
-0.000265367
-1.06872e-07
-1.01621e-07
6.07313e-07
0.00108374
-6.2686e-07
9.80524e-07
-1.147e-08
5.16158e-07
-7.86346e-07
-1.39682e-06
-1.3916e-07
-1.59317e-06
1.25254e-06
6.06326e-07
0.00108417
-6.29542e-07
9.86169e-07
-8.64213e-09
5.2483e-07
-7.91529e-07
-1.4048e-06
-1.34317e-07
0.00108723
1.21772e-06
-0.00108608
5.8917e-07
-1.58234e-06
1.88674e-09
-6.1757e-07
-1.39085e-06
-1.20327e-07
-7.71636e-07
5.32252e-07
1.00107e-06
0.00108765
1.21715e-06
-0.00108651
5.88205e-07
-1.58744e-06
4.76779e-09
-6.20179e-07
-1.39888e-06
-1.15505e-07
-7.76801e-07
5.40878e-07
-6.24362e-07
-6.29026e-07
0.000264592
-9.61968e-07
0.000267558
-0.000265392
-1.03943e-07
-9.86923e-08
6.06417e-07
0.00108479
-6.24523e-07
9.44244e-07
-1.41439e-08
5.19088e-07
-7.91678e-07
-1.39952e-06
-1.34421e-07
-1.58798e-06
1.25249e-06
6.06904e-07
0.00108385
-6.2959e-07
9.8069e-07
-8.69356e-09
5.19171e-07
-7.91286e-07
-1.3992e-06
-1.34286e-07
0.00108827
1.21886e-06
-0.00108712
5.88161e-07
-1.54669e-06
-7.72492e-10
-6.15189e-07
-1.39351e-06
-1.15644e-07
-7.7694e-07
5.35208e-07
9.95571e-07
0.00108733
1.21742e-06
-0.00108619
5.88812e-07
-1.58225e-06
4.69218e-09
-6.2027e-07
-1.39335e-06
-1.15598e-07
-7.76686e-07
5.35161e-07
1.25284e-06
6.07139e-07
0.00108364
-6.23927e-07
9.75416e-07
-1.38997e-08
5.16219e-07
-7.88957e-07
-1.36842e-07
-1.39691e-06
1.21793e-06
-0.00108686
5.87462e-07
-1.54901e-06
-3.89385e-10
-6.14678e-07
-1.39072e-06
-1.17899e-07
5.32426e-07
-7.74096e-07
9.90237e-07
0.00108713
1.21735e-06
-0.00108598
5.88939e-07
-1.57687e-06
-5.99796e-10
-6.14654e-07
-1.3908e-06
-1.17971e-07
-7.74163e-07
5.32413e-07
-6.21771e-07
-6.29211e-07
0.000264551
-9.56418e-07
0.000267509
-0.000265351
-1.06761e-07
-9.88506e-08
1.25382e-06
6.05704e-07
0.00108469
-6.21649e-07
9.41726e-07
-1.65693e-08
5.13851e-07
-7.88991e-07
-1.36633e-07
-1.39427e-06
1.21866e-06
-0.00108652
5.8836e-07
-1.54376e-06
-3.22285e-09
-6.12099e-07
-1.39074e-06
-1.15748e-07
5.32206e-07
-7.76922e-07
9.56504e-07
0.00108818
1.21833e-06
-0.00108703
5.87489e-07
-1.54392e-06
-3.23567e-09
-6.12331e-07
-1.38821e-06
-1.1779e-07
-7.7422e-07
5.29987e-07
-0.000265364
-1.04148e-07
-9.8804e-08
1.58069e-06
1.54499e-06
-6.07488e-07
-6.13117e-07
0.000265624
-1.01579e-06
-9.76667e-07
0.000268535
-0.000266373
-8.71788e-08
-8.19277e-08
5.83877e-07
0.00108835
-6.14856e-07
1.00269e-06
8.58089e-09
5.37563e-07
-7.67029e-07
-1.38881e-06
-1.14513e-07
-1.58578e-06
1.20607e-06
5.82869e-07
0.00108879
-6.17446e-07
1.00572e-06
8.82233e-09
5.46196e-07
-7.72186e-07
-1.39684e-06
-1.09689e-07
0.00109167
1.17583e-06
-0.00109058
5.69699e-07
-1.57913e-06
1.96136e-08
-6.10373e-07
-1.38276e-06
-9.82495e-08
-7.54072e-07
5.53261e-07
1.01884e-06
0.0010921
1.17517e-06
-0.00109101
5.68649e-07
-1.58155e-06
1.98715e-08
-6.10245e-07
-1.38814e-06
-9.3514e-08
-7.59239e-07
5.59191e-07
-6.10298e-07
-6.14951e-07
0.00026565
-9.79638e-07
0.00026856
-0.000266399
-8.4237e-08
-7.89974e-08
5.82819e-07
0.00108941
-6.12452e-07
9.63658e-07
3.27454e-09
5.4052e-07
-7.72333e-07
-1.39146e-06
-1.09834e-07
-1.58058e-06
1.20638e-06
5.83437e-07
0.00108846
-6.17532e-07
1.00023e-06
8.75508e-09
5.40463e-07
-7.72087e-07
-1.39132e-06
-1.09793e-07
0.00109272
1.17689e-06
-0.00109163
5.68697e-07
-1.54065e-06
1.42862e-08
-6.05238e-07
-1.38541e-06
-9.36914e-08
-7.59413e-07
5.56212e-07
1.01337e-06
0.00109178
1.17548e-06
-0.00109069
5.69028e-07
-1.57631e-06
1.98461e-08
-6.10291e-07
-1.38526e-06
-9.36216e-08
-7.59147e-07
5.56184e-07
1.2062e-06
5.83527e-07
0.00108826
-6.11924e-07
9.94878e-07
3.43922e-09
5.37759e-07
-7.69507e-07
-1.1211e-07
-1.38872e-06
1.17599e-06
-0.00109136
5.67907e-07
-1.54293e-06
1.46953e-08
-6.04692e-07
-1.38273e-06
-9.59362e-08
5.53329e-07
-7.56622e-07
1.00798e-06
0.00109157
1.17518e-06
-0.00109048
5.69051e-07
-1.57093e-06
1.44685e-08
-6.04699e-07
-1.38261e-06
-9.58451e-08
-7.56474e-07
5.53483e-07
-6.07787e-07
-6.15126e-07
0.000265609
-9.7402e-07
0.000268511
-0.000266357
-8.71166e-08
-7.90854e-08
1.20722e-06
5.82098e-07
0.00108931
-6.09584e-07
9.61137e-07
8.17331e-10
5.353e-07
-7.69591e-07
-1.11966e-07
-1.38616e-06
1.17639e-06
-0.00109102
5.68801e-07
-1.53772e-06
1.17956e-08
-6.02164e-07
-1.38254e-06
-9.36659e-08
5.53325e-07
-7.59264e-07
9.74182e-07
0.00109263
1.1762e-06
-0.00109154
5.67822e-07
-1.5378e-06
1.18642e-08
-6.0231e-07
-1.3801e-06
-9.5774e-08
-7.56653e-07
5.50977e-07
-0.00026637
-8.44065e-08
-7.90926e-08
1.57795e-06
1.53942e-06
-5.95793e-07
-6.01445e-07
0.000266614
-1.03156e-06
-9.92195e-07
0.000269474
-0.000267316
-7.00034e-08
-6.44989e-08
5.6548e-07
0.00109274
-6.08302e-07
1.01992e-06
2.30038e-08
5.5842e-07
-7.50039e-07
-1.38078e-06
-9.10002e-08
-1.58039e-06
1.16564e-06
5.64488e-07
0.00109318
-6.08187e-07
1.02296e-06
2.32247e-08
5.64325e-07
-7.55243e-07
-1.3862e-06
-8.8523e-08
0.0010959
1.13978e-06
-0.00109486
5.54009e-07
-1.5751e-06
3.25608e-08
-6.03083e-07
-1.37519e-06
-7.7126e-08
-7.41608e-07
5.73512e-07
1.03453e-06
0.00109634
1.13908e-06
-0.0010953
5.53288e-07
-1.57759e-06
3.28066e-08
-6.02993e-07
-1.38069e-06
-7.47303e-08
-7.44185e-07
5.79356e-07
-5.98565e-07
-6.03284e-07
0.00026664
-9.95166e-07
0.0002695
-0.000267341
-6.70718e-08
-6.16501e-08
5.64489e-07
0.0010938
-6.03152e-07
9.80748e-07
1.76312e-08
5.61357e-07
-7.55411e-07
-1.38346e-06
-8.86995e-08
-1.57513e-06
1.16591e-06
5.64786e-07
0.00109285
-6.08214e-07
1.0175e-06
2.32081e-08
5.61352e-07
-7.55128e-07
-1.38329e-06
-8.8617e-08
0.00109696
1.1408e-06
-0.00109592
5.53396e-07
-1.53642e-06
2.67359e-08
-5.97857e-07
-1.37779e-06
-7.47974e-08
-7.44233e-07
5.76531e-07
1.02912e-06
0.00109601
1.13904e-06
-0.00109497
5.53295e-07
-1.57229e-06
3.2818e-08
-6.02997e-07
-1.37761e-06
-7.47297e-08
-7.43945e-07
5.76532e-07
1.16564e-06
5.64779e-07
0.00109265
-6.02622e-07
1.01209e-06
1.78209e-08
5.58626e-07
-7.52448e-07
-9.08284e-08
-1.38065e-06
1.14023e-06
-0.00109565
5.52531e-07
-1.53872e-06
2.71321e-08
-5.97338e-07
-1.3752e-06
-7.70855e-08
5.73552e-07
-7.41534e-07
1.02376e-06
0.00109581
1.13925e-06
-0.00109477
5.53518e-07
-1.56686e-06
2.69988e-08
-5.97301e-07
-1.37509e-06
-7.69472e-08
-7.41311e-07
5.7367e-07
-5.96071e-07
-6.03392e-07
0.000266599
-9.896e-07
0.00026945
-0.0002673
-6.9893e-08
-6.16482e-08
1.16666e-06
5.63623e-07
0.00109371
-6.00219e-07
9.78272e-07
1.52167e-08
5.56112e-07
-7.52657e-07
-9.07798e-08
-1.37815e-06
1.14024e-06
-0.0010953
5.53163e-07
-1.53343e-06
2.42757e-08
-5.94714e-07
-1.37488e-06
-7.47658e-08
5.73676e-07
-7.44027e-07
9.89813e-07
0.00109687
1.14009e-06
-0.00109583
5.52569e-07
-1.5336e-06
2.43553e-08
-5.94883e-07
-1.37255e-06
-7.69026e-08
-7.41516e-07
5.71205e-07
-0.000267313
-6.70775e-08
-6.16842e-08
1.5744e-06
1.53563e-06
-5.86277e-07
-5.91809e-07
0.000267542
-1.04509e-06
-1.00562e-06
0.000270356
-0.0002682
-5.55934e-08
-4.95916e-08
5.50175e-07
0.00109693
-6.01776e-07
1.03512e-06
3.69135e-08
5.78391e-07
-7.3823e-07
-1.37345e-06
-7.29013e-08
-1.57692e-06
1.13071e-06
5.49599e-07
0.00109737
-6.01697e-07
1.03806e-06