/*--------------------------------*- C++ -*----------------------------------*\
| =========                 |                                                 |
| \\      /  F ield         | OpenFOAM: The Open Source CFD Toolbox           |
|  \\    /   O peration     | Version:  v1906                                 |
|   \\  /    A nd           | Web:      www.OpenFOAM.com                      |
|    \\/     M anipulation  |                                                 |
\*---------------------------------------------------------------------------*/
FoamFile
{
    version     2.0;
    format      ascii;
    class       volScalarField;
    location    "50";
    object      epsilon;
}
// * * * * * * * * * * * * * * * * * * * * * * * * * * * * * * * * * * * * * //

dimensions      [0 2 -3 0 0 0 0];


internalField   nonuniform List<scalar> 
43024
(
2.00427e-07
2.36603e-07
2.365e-07
2.79169e-07
2.00454e-07
2.36632e-07
2.36547e-07
2.79259e-07
2.00454e-07
2.36619e-07
2.36598e-07
2.79068e-07
2.00458e-07
2.3662e-07
2.36611e-07
2.78951e-07
2.00454e-07
2.36624e-07
2.36596e-07
2.7895e-07
2.00477e-07
2.36627e-07
2.36599e-07
2.79093e-07
2.00477e-07
2.36658e-07
2.366e-07
2.79193e-07
2.00501e-07
2.36705e-07
2.36648e-07
2.79699e-07
2.00572e-07
2.36672e-07
2.36743e-07
2.79444e-07
2.00548e-07
2.36647e-07
2.36718e-07
2.79274e-07
2.00524e-07
2.3665e-07
2.36661e-07
2.7979e-07
2.00511e-07
2.36649e-07
2.36666e-07
2.79454e-07
2.00513e-07
2.36594e-07
2.36638e-07
2.79271e-07
2.00503e-07
2.36569e-07
2.36612e-07
2.79196e-07
2.0049e-07
2.36566e-07
2.36598e-07
2.79106e-07
2.00484e-07
2.36549e-07
2.36591e-07
2.79041e-07
2.00493e-07
2.3655e-07
2.36549e-07
2.78949e-07
2.00501e-07
2.36511e-07
2.36534e-07
2.78949e-07
2.00496e-07
2.36487e-07
2.36508e-07
2.78995e-07
2.00444e-07
2.3646e-07
2.36476e-07
2.78886e-07
1.99252e-07
2.32297e-07
2.32274e-07
2.73165e-07
2.78713e-07
2.3653e-07
2.36603e-07
2.78799e-07
2.36535e-07
2.36661e-07
2.36596e-07
2.36607e-07
2.78859e-07
2.36491e-07
2.36545e-07
2.7883e-07
2.79147e-07
2.78763e-07
2.36516e-07
2.36608e-07
2.3656e-07
2.36578e-07
2.79189e-07
2.7884e-07
2.36556e-07
2.36652e-07
2.36546e-07
2.36645e-07
2.3662e-07
2.36637e-07
2.36609e-07
2.79272e-07
2.78886e-07
2.36531e-07
2.36544e-07
2.36573e-07
2.78877e-07
2.79101e-07
2.78768e-07
2.36615e-07
2.36609e-07
2.36629e-07
2.36609e-07
2.7917e-07
2.78756e-07
2.36554e-07
2.36663e-07
2.36581e-07
2.36613e-07
2.36636e-07
2.36625e-07
2.36623e-07
2.7921e-07
2.78691e-07
2.36604e-07
2.36595e-07
2.36623e-07
2.78741e-07
2.79108e-07
2.78706e-07
2.36632e-07
2.36613e-07
2.36608e-07
2.36632e-07
2.79098e-07
2.78778e-07
2.36608e-07
2.36622e-07
2.36577e-07
2.36628e-07
2.36624e-07
2.36624e-07
2.36637e-07
2.79046e-07
2.7878e-07
2.3664e-07
2.36634e-07
2.36605e-07
2.78632e-07
2.79057e-07
2.78646e-07
2.36615e-07
2.36638e-07
2.36569e-07
2.36638e-07
2.79107e-07
2.78682e-07
2.3658e-07
2.36643e-07
2.36581e-07
2.36644e-07
2.3664e-07
2.36623e-07
2.36637e-07
2.79127e-07
2.78793e-07
2.36617e-07
2.36604e-07
2.36565e-07
2.78589e-07
2.78974e-07
2.7868e-07
2.36577e-07
2.36635e-07
2.36571e-07
2.36635e-07
2.79034e-07
2.78643e-07
2.36587e-07
2.36657e-07
2.36612e-07
2.36647e-07
2.36639e-07
2.36624e-07
2.3665e-07
2.79122e-07
2.78727e-07
2.36565e-07
2.36604e-07
2.36567e-07
2.78738e-07
2.79057e-07
2.78718e-07
2.3658e-07
2.36677e-07
2.36607e-07
2.36697e-07
2.78976e-07
2.78652e-07
2.36619e-07
2.36654e-07
2.3663e-07
2.36635e-07
2.36655e-07
2.36654e-07
2.36672e-07
2.79066e-07
2.786e-07
2.36619e-07
2.36598e-07
2.36609e-07
2.78822e-07
2.79067e-07
2.78854e-07
2.3661e-07
2.36704e-07
2.3665e-07
2.36726e-07
2.79013e-07
2.78703e-07
2.36632e-07
2.36635e-07
2.36703e-07
2.36646e-07
2.36687e-07
2.3671e-07
2.3672e-07
2.78927e-07
2.78666e-07
2.36648e-07
2.36621e-07
2.3664e-07
2.79379e-07
2.79196e-07
2.78969e-07
2.36658e-07
2.36727e-07
2.36712e-07
2.36744e-07
2.79093e-07
2.78773e-07
2.36737e-07
2.3668e-07
2.36774e-07
2.36699e-07
2.36724e-07
2.36691e-07
2.36741e-07
2.79063e-07
2.78813e-07
2.36689e-07
2.36741e-07
2.36701e-07
2.79109e-07
2.79301e-07
2.78936e-07
2.36788e-07
2.36803e-07
2.36753e-07
2.36777e-07
2.79119e-07
2.78857e-07
2.36778e-07
2.3674e-07
2.36739e-07
2.3672e-07
2.36748e-07
2.36659e-07
2.36742e-07
2.79184e-07
2.788e-07
2.36709e-07
2.36744e-07
2.36682e-07
2.78953e-07
2.79296e-07
2.79026e-07
2.36755e-07
2.36767e-07
2.36762e-07
2.36745e-07
2.79219e-07
2.78912e-07
2.36739e-07
2.36707e-07
2.36712e-07
2.36652e-07
2.36753e-07
2.36649e-07
2.36757e-07
2.79158e-07
2.78718e-07
2.36687e-07
2.36681e-07
2.36651e-07
2.79475e-07
2.79362e-07
2.78924e-07
2.36767e-07
2.36751e-07
2.36743e-07
2.3672e-07
2.79271e-07
2.78972e-07
2.36722e-07
2.36661e-07
2.36666e-07
2.36612e-07
2.36766e-07
2.36655e-07
2.36735e-07
2.79046e-07
2.78567e-07
2.36677e-07
2.3667e-07
2.36674e-07
2.79123e-07
2.79252e-07
2.78828e-07
2.36746e-07
2.36755e-07
2.36714e-07
2.36685e-07
2.79318e-07
2.78855e-07
2.36681e-07
2.36616e-07
2.3664e-07
2.36592e-07
2.36754e-07
2.36612e-07
2.36714e-07
2.78925e-07
2.78554e-07
2.3668e-07
2.36658e-07
2.3662e-07
2.7891e-07
2.79157e-07
2.78803e-07
2.36715e-07
2.36688e-07
2.36677e-07
2.36604e-07
2.79186e-07
2.78713e-07
2.36641e-07
2.36596e-07
2.36626e-07
2.3659e-07
2.36717e-07
2.36583e-07
2.36682e-07
2.78902e-07
2.78549e-07
2.36631e-07
2.36618e-07
2.36603e-07
2.7884e-07
2.79125e-07
2.78731e-07
2.36691e-07
2.36608e-07
2.3665e-07
2.36569e-07
2.7904e-07
2.78586e-07
2.36637e-07
2.36592e-07
2.3662e-07
2.36602e-07
2.36697e-07
2.3657e-07
2.36651e-07
2.78871e-07
2.78555e-07
2.36611e-07
2.36602e-07
2.36594e-07
2.78778e-07
2.79055e-07
2.78749e-07
2.36647e-07
2.36588e-07
2.36643e-07
2.36575e-07
2.78974e-07
2.78609e-07
2.36637e-07
2.36661e-07
2.36618e-07
2.3665e-07
2.3665e-07
2.3656e-07
2.3661e-07
2.78943e-07
2.7862e-07
2.366e-07
2.36605e-07
2.36579e-07
2.78717e-07
2.79115e-07
2.78826e-07
2.36648e-07
2.36591e-07
2.36632e-07
2.36607e-07
2.78951e-07
2.78618e-07
2.36638e-07
2.36653e-07
2.36625e-07
2.36674e-07
2.36622e-07
2.36553e-07
2.36568e-07
2.7898e-07
2.78701e-07
2.36585e-07
2.36564e-07
2.36547e-07
2.78621e-07
2.79153e-07
2.78773e-07
2.36632e-07
2.36615e-07
2.36605e-07
2.36573e-07
2.78982e-07
2.78589e-07
2.36625e-07
2.36678e-07
2.36634e-07
2.36641e-07
2.36593e-07
2.36535e-07
2.36564e-07
2.79056e-07
2.78681e-07
2.36563e-07
2.36546e-07
2.36542e-07
2.78589e-07
2.79141e-07
2.78672e-07
2.36612e-07
2.36583e-07
2.36556e-07
2.3653e-07
2.78923e-07
2.78495e-07
2.36673e-07
2.36646e-07
2.36617e-07
2.36617e-07
2.36573e-07
2.36489e-07
2.36523e-07
2.79051e-07
2.78686e-07
2.36567e-07
2.36508e-07
2.36582e-07
2.78641e-07
2.79033e-07
2.78625e-07
2.36558e-07
2.36548e-07
2.36458e-07
2.36435e-07
2.7886e-07
2.78342e-07
2.36614e-07
2.36621e-07
2.36487e-07
2.36526e-07
2.3653e-07
2.36401e-07
2.36433e-07
2.79036e-07
2.78537e-07
2.36584e-07
2.36417e-07
2.36475e-07
2.78573e-07
2.78929e-07
2.76117e-07
2.36518e-07
2.36495e-07
2.32823e-07
2.32881e-07
2.78661e-07
2.75883e-07
2.36542e-07
2.36587e-07
2.32838e-07
2.32919e-07
2.36492e-07
2.32845e-07
2.32852e-07
2.78844e-07
2.76156e-07
2.36531e-07
2.32875e-07
2.32911e-07
2.76262e-07
2.73491e-07
2.32398e-07
2.32149e-07
2.7307e-07
2.32401e-07
2.32405e-07
1.99169e-07
1.9918e-07
1.99174e-07
2.31582e-07
2.73088e-07
2.31585e-07
2.02063e-06
8.67498e-06
1.97107e-05
2.01309e-06
8.67728e-06
2.00419e-07
2.00477e-07
2.00455e-07
2.00449e-07
5.46591e-07
2.3662e-07
1.63048e-06
2.13077e-07
1.97436e-05
5.46615e-07
2.36509e-07
2.13008e-07
1.62849e-06
2.78666e-07
3.68787e-06
3.69584e-06
2.02043e-06
8.678e-06
2.02126e-06
8.67825e-06
1.97089e-05
1.97104e-05
2.01619e-06
8.67713e-06
2.01529e-06
8.67671e-06
2.00488e-07
2.00478e-07
2.00449e-07
2.00453e-07
2.00463e-07
2.00463e-07
2.00454e-07
5.46456e-07
1.63184e-06
2.13094e-07
2.36659e-07
5.46717e-07
1.6308e-06
2.13112e-07
1.9736e-05
1.97307e-05
5.46862e-07
2.13026e-07
1.62959e-06
2.3654e-07
5.47053e-07
2.13038e-07
1.62869e-06
3.68454e-06
3.69598e-06
2.78834e-07
3.68332e-06
3.69579e-06
2.02168e-06
8.67515e-06
2.02222e-06
8.67429e-06
1.97098e-05
1.97109e-05
2.02071e-06
8.67733e-06
2.02018e-06
8.67631e-06
2.00475e-07
2.00473e-07
2.00481e-07
2.00455e-07
2.00474e-07
2.00474e-07
2.00474e-07
5.46311e-07
1.63203e-06
2.13115e-07
2.36652e-07
5.46701e-07
1.63056e-06
2.1312e-07
1.97192e-05
1.97166e-05
5.47218e-07
2.13045e-07
1.63062e-06
2.36589e-07
5.47385e-07
2.1306e-07
1.62967e-06
3.68915e-06
3.70049e-06
2.78849e-07
3.68951e-06
3.68806e-06
2.02203e-06
8.67199e-06
2.02305e-06
8.67192e-06
1.97112e-05
1.97126e-05
2.02179e-06
8.67613e-06
2.02275e-06
8.67654e-06
2.00482e-07
2.00475e-07
2.0049e-07
2.00461e-07
2.00471e-07
2.00482e-07
2.00469e-07
5.46009e-07
1.63158e-06
2.13075e-07
2.36625e-07
5.46349e-07
1.63045e-06
2.13097e-07
1.97137e-05
1.97125e-05
5.47136e-07
2.13075e-07
1.63119e-06
2.3663e-07
5.47485e-07
2.1308e-07
1.63e-06
3.68998e-06
3.69491e-06
2.78677e-07
3.69271e-06
3.69665e-06
2.02172e-06
8.67298e-06
2.02281e-06
8.6733e-06
1.97135e-05
1.97166e-05
2.02158e-06
8.67785e-06
2.02259e-06
8.67648e-06
2.00493e-07
2.00487e-07
2.00494e-07
2.00454e-07
2.00478e-07
2.00485e-07
2.00479e-07
5.46005e-07
1.63215e-06
2.13061e-07
2.36623e-07
5.46153e-07
1.63125e-06
2.13081e-07
1.9711e-05
1.97118e-05
5.46882e-07
2.13077e-07
1.63103e-06
2.36622e-07
5.47221e-07
2.13083e-07
1.62932e-06
3.69553e-06
3.70078e-06
2.78618e-07
3.69568e-06
3.70268e-06
2.02135e-06
8.67672e-06
2.02271e-06
8.67701e-06
1.97154e-05
1.97151e-05
2.02136e-06
8.67591e-06
2.02242e-06
8.67671e-06
2.00494e-07
2.00485e-07
2.00476e-07
2.00476e-07
2.00478e-07
2.00493e-07
2.00483e-07
5.46667e-07
1.63327e-06
2.13068e-07
2.3663e-07
5.466e-07
1.63235e-06
2.13074e-07
1.97124e-05
1.97154e-05
5.4703e-07
2.13084e-07
1.63008e-06
2.366e-07
5.4716e-07
2.13109e-07
1.62964e-06
3.70108e-06
3.7031e-06
2.78688e-07
3.70095e-06
3.69481e-06
2.02118e-06
8.6781e-06
2.02217e-06
8.67456e-06
1.97172e-05
1.97185e-05
2.02104e-06
8.67545e-06
2.02202e-06
8.67518e-06
2.00479e-07
2.00497e-07
2.00489e-07
2.00477e-07
2.00495e-07
2.00503e-07
2.00487e-07
5.47283e-07
1.63373e-06
2.13079e-07
2.36655e-07
5.4736e-07
1.6325e-06
2.13101e-07
1.97164e-05
1.97177e-05
5.47115e-07
2.13109e-07
1.63226e-06
2.36601e-07
5.47396e-07
2.13124e-07
1.63147e-06
3.69815e-06
3.69561e-06
2.78764e-07
3.69657e-06
3.69451e-06
2.02119e-06
8.67414e-06
2.02217e-06
8.67219e-06
1.97168e-05
1.9718e-05
2.02122e-06
8.6773e-06
2.02196e-06
8.67731e-06
2.00545e-07
2.00504e-07
2.00508e-07
2.00497e-07
2.00539e-07
2.00534e-07
2.00546e-07
5.47423e-07
1.6338e-06
2.13107e-07
2.367e-07
5.47697e-07
1.63251e-06
2.13143e-07
1.97171e-05
1.9718e-05
5.47215e-07
2.13135e-07
1.63288e-06
2.36625e-07
5.47421e-07
2.13165e-07
1.63178e-06
3.69607e-06
3.69462e-06
2.79279e-07
3.69645e-06
3.69201e-06
2.02145e-06
8.67306e-06
2.02232e-06
8.67285e-06
1.97173e-05
1.97186e-05
2.0224e-06
8.67953e-06
2.02301e-06
8.67875e-06
2.0056e-07
2.0054e-07
2.00556e-07
2.00568e-07
2.00582e-07
2.00588e-07
2.00589e-07
5.47662e-07
1.63345e-06
2.13159e-07
2.36719e-07
5.47774e-07
1.63198e-06
2.1318e-07
1.97176e-05
1.97187e-05
5.47445e-07
2.13177e-07
1.63331e-06
2.36713e-07
5.47743e-07
2.13229e-07
1.63214e-06
3.70277e-06
3.69188e-06
2.79224e-07
3.70153e-06
3.69913e-06
2.02139e-06
8.67417e-06
2.02256e-06
8.67422e-06
1.97173e-05
1.97163e-05
2.0229e-06
8.67737e-06
2.02363e-06
8.67736e-06
2.00606e-07
2.00598e-07
2.00595e-07
2.00563e-07
2.00568e-07
2.00581e-07
2.00572e-07
5.47671e-07
1.63241e-06
2.132e-07
2.3668e-07
5.4796e-07
1.63078e-06
2.13202e-07
1.97161e-05
1.97166e-05
5.47491e-07
2.13215e-07
1.63322e-06
2.36748e-07
5.4777e-07
2.13222e-07
1.63198e-06
3.70174e-06
3.70294e-06
2.79044e-07
3.69896e-06
3.70171e-06
2.02192e-06
8.67492e-06
2.02269e-06
8.67479e-06
1.9712e-05
1.97112e-05
2.02315e-06
8.67884e-06
2.02413e-06
8.67791e-06
2.0059e-07
2.00581e-07
2.0058e-07
2.00533e-07
2.00546e-07
2.00548e-07
2.00544e-07
5.47571e-07
1.6314e-06
2.13187e-07
2.36648e-07
5.47878e-07
1.63013e-06
2.13186e-07
1.97156e-05
1.9717e-05
5.4731e-07
2.13172e-07
1.63309e-06
2.3673e-07
5.47618e-07
2.13172e-07
1.63205e-06
3.69615e-06
3.69762e-06
2.78919e-07
3.6898e-06
3.69492e-06
2.02215e-06
8.67491e-06
2.02319e-06
8.67438e-06
1.97098e-05
1.97107e-05
2.02319e-06
8.67787e-06
2.02416e-06
8.67866e-06
2.00553e-07
2.00557e-07
2.00565e-07
2.00524e-07
2.00529e-07
2.0052e-07
2.00525e-07
5.47248e-07
1.63163e-06
2.13123e-07
2.36655e-07
5.47619e-07
1.63053e-06
2.1312e-07
1.9718e-05
1.97205e-05
5.47262e-07
2.13165e-07
1.63349e-06
2.36698e-07
5.47444e-07
2.13167e-07
1.6321e-06
3.68929e-06
3.69598e-06
2.79269e-07
3.69093e-06
3.69677e-06
2.02215e-06
8.67795e-06
2.02306e-06
8.6783e-06
1.9707e-05
1.97085e-05
2.02264e-06
8.67986e-06
2.02385e-06
8.67912e-06
2.00546e-07
2.00523e-07
2.00534e-07
2.00517e-07
2.00512e-07
2.00498e-07
2.00506e-07
5.47019e-07
1.63209e-06
2.13091e-07
2.36651e-07
5.47277e-07
1.63104e-06
2.13091e-07
1.97227e-05
1.97271e-05
5.47123e-07
2.1317e-07
1.63309e-06
2.36673e-07
5.47525e-07
2.13179e-07
1.63189e-06
3.69178e-06
3.69839e-06
2.79008e-07
3.68999e-06
3.6925e-06
2.02202e-06
8.68075e-06
2.0232e-06
8.68119e-06
1.97099e-05
1.97164e-05
2.02186e-06
8.68134e-06
2.02316e-06
8.68288e-06
2.00519e-07
2.00499e-07
2.00526e-07
2.00511e-07
2.00489e-07
2.00484e-07
2.00499e-07
5.4682e-07
1.6325e-06
2.13083e-07
2.36614e-07
5.47115e-07
1.63116e-06
2.13086e-07
1.97286e-05
1.97338e-05
5.46633e-07
2.13168e-07
1.63303e-06
2.36661e-07
5.47118e-07
2.13171e-07
1.63146e-06
3.69447e-06
3.69452e-06
2.78855e-07
3.6926e-06
3.69462e-06
2.02161e-06
8.67944e-06
2.02284e-06
8.67927e-06
1.97138e-05
1.97169e-05
2.02134e-06
8.6813e-06
2.0226e-06
8.68226e-06
2.00503e-07
2.00499e-07
2.00505e-07
2.00496e-07
2.00481e-07
2.00492e-07
2.00493e-07
5.46333e-07
1.63257e-06
2.13079e-07
2.36582e-07
5.46769e-07
1.63084e-06
2.1308e-07
1.97312e-05
1.97383e-05
5.46233e-07
2.13113e-07
1.6323e-06
2.36622e-07
5.46588e-07
2.13115e-07
1.63058e-06
3.69514e-06
3.70081e-06
2.78873e-07
3.69494e-06
3.69924e-06
2.02153e-06
8.67683e-06
2.0225e-06
8.676e-06
1.97117e-05
1.97201e-05
2.02173e-06
8.68106e-06
2.02274e-06
8.68144e-06
2.0048e-07
2.00496e-07
2.00498e-07
2.00491e-07
2.0048e-07
2.00495e-07
2.00485e-07
5.46145e-07
1.6319e-06
2.13074e-07
2.36569e-07
5.46565e-07
1.63e-06
2.13076e-07
1.97365e-05
1.97457e-05
5.4599e-07
2.13095e-07
1.63188e-06
2.36604e-07
5.46444e-07
2.13115e-07
1.63017e-06
3.70208e-06
3.69737e-06
2.78774e-07
3.70099e-06
3.69684e-06
2.02249e-06
8.67489e-06
2.02323e-06
8.67681e-06
1.97148e-05
1.97235e-05
2.02254e-06
8.68157e-06
2.0233e-06
8.68481e-06
2.0048e-07
2.00497e-07
2.00496e-07
2.00488e-07
2.00483e-07
2.00489e-07
2.00471e-07
5.45936e-07
1.63148e-06
2.13067e-07
2.36549e-07
5.46241e-07
1.62968e-06
2.13075e-07
1.9741e-05
1.97514e-05
5.45813e-07
2.13076e-07
1.63181e-06
2.36593e-07
5.46141e-07
2.13096e-07
1.6299e-06
3.703e-06
3.70473e-06
2.7867e-07
3.70178e-06
3.70091e-06
2.02365e-06
8.67471e-06
2.02464e-06
8.67916e-06
1.97131e-05
1.97238e-05
2.02325e-06
8.68299e-06
2.02425e-06
8.68588e-06
2.00486e-07
2.00496e-07
2.00495e-07
2.00502e-07
2.00482e-07
2.00486e-07
2.00479e-07
5.46237e-07
1.63155e-06
2.13077e-07
2.3655e-07
5.4644e-07
1.62909e-06
2.13085e-07
1.97421e-05
1.97537e-05
5.45916e-07
2.13078e-07
1.6318e-06
2.3655e-07
5.46299e-07
2.13075e-07
1.62958e-06
3.7075e-06
3.70047e-06
2.78575e-07
3.70938e-06
3.69584e-06
2.02492e-06
8.68289e-06
2.02589e-06
8.69098e-06
1.97129e-05
1.97261e-05
2.02421e-06
8.68448e-06
2.02504e-06
8.68996e-06
2.00482e-07
2.00493e-07
2.00483e-07
2.00498e-07
2.00474e-07
2.0048e-07
2.00486e-07
5.46716e-07
1.63055e-06
2.13093e-07
2.36503e-07
5.47003e-07
1.62785e-06
2.13095e-07
1.97423e-05
1.97567e-05
5.45606e-07
2.13047e-07
1.63142e-06
2.3653e-07
5.46117e-07
2.13059e-07
1.62889e-06
3.71522e-06
3.70231e-06
2.78661e-07
3.71322e-06
3.70403e-06
2.02615e-06
8.68993e-06
2.02693e-06
8.69899e-06
1.97082e-05
1.97249e-05
2.02587e-06
8.68551e-06
2.02643e-06
8.69347e-06
2.00477e-07
2.00485e-07
2.0049e-07
2.00484e-07
2.00461e-07
2.00466e-07
2.00479e-07
5.46247e-07
1.63229e-06
2.13078e-07
2.3647e-07
5.4694e-07
1.6309e-06
2.13076e-07
1.97436e-05
1.97607e-05
5.45194e-07
2.13001e-07
1.63232e-06
2.36491e-07
5.45783e-07
2.13004e-07
1.63028e-06
3.71823e-06
3.71595e-06
2.7859e-07
3.71739e-06
3.71624e-06
2.0151e-06
8.68589e-06
2.02693e-06
8.69344e-06
1.97064e-05
1.97119e-05
2.015e-06
8.68008e-06
2.02628e-06
8.68806e-06
2.00429e-07
2.00446e-07
2.00442e-07
2.00099e-07
2.00091e-07
2.00107e-07
2.00111e-07
5.43925e-07
1.63742e-06
2.12993e-07
2.3606e-07
5.46172e-07
1.6327e-06
2.13073e-07
1.9737e-05
1.97366e-05
5.43449e-07
2.12922e-07
1.63701e-06
2.36064e-07
5.45345e-07
2.13002e-07
1.63291e-06
3.71311e-06
3.71358e-06
2.78053e-07
3.71329e-06
3.7125e-06
1.40623e-06
7.51645e-06
1.9669e-06
4.12418e-06
1.66623e-05
7.6466e-06
1.40686e-06
7.5132e-06
1.96709e-06
4.12296e-06
1.89877e-07
1.92536e-07
1.92727e-07
2.03859e-07
1.89301e-07
1.95583e-07
1.95591e-07
5.00329e-07
1.52486e-06
2.10967e-07
2.29011e-07
5.30964e-07
1.55249e-06
2.08855e-07
1.66591e-05
7.63924e-06
5.00423e-07
2.11014e-07
1.52562e-06
2.28858e-07
5.31059e-07
2.0869e-07
1.55294e-06
3.63246e-06
3.63796e-06
2.63252e-07
3.14679e-06
3.1494e-06
1.97106e-05
1.97124e-05
2.78592e-07
3.68639e-06
3.69379e-06
1.97086e-05
1.97088e-05
1.97126e-05
1.9712e-05
2.79074e-07
3.68619e-06
3.69432e-06
3.68555e-06
3.69498e-06
2.01935e-06
8.6724e-06
5.47043e-07
2.36518e-07
1.62918e-06
2.13056e-07
5.4669e-07
2.36602e-07
1.62957e-06
2.13018e-07
2.0208e-06
8.67736e-06
8.67618e-06
2.02013e-06
2.01945e-06
8.67251e-06
8.67268e-06
2.01847e-06
5.47236e-07
2.36527e-07
1.62886e-06
2.13003e-07
1.62959e-06
2.13e-07
5.47009e-07
5.46876e-07
2.3659e-07
1.62921e-06
2.12994e-07
1.63004e-06
2.13003e-07
5.468e-07
2.78665e-07
3.69016e-06
3.69125e-06
1.9716e-05
1.97102e-05
1.97099e-05
2.79125e-07
3.69004e-06
3.69579e-06
3.69487e-06
3.69522e-06
1.97158e-05
1.97151e-05
5.46431e-07
2.36571e-07
1.63e-06
2.12985e-07
2.01955e-06
8.69908e-06
5.47018e-07
2.36666e-07
2.13093e-07
1.63636e-06
2.01349e-06
8.67674e-06
8.67769e-06
2.01396e-06
5.46633e-07
2.36538e-07
1.6297e-06
2.12997e-07
1.63052e-06
2.12989e-07
5.46463e-07
2.01973e-06
8.69474e-06
8.69948e-06
2.01951e-06
5.47174e-07
2.36664e-07
2.13064e-07
1.63516e-06
2.13076e-07
1.63662e-06
5.46899e-07
2.01902e-06
8.67623e-06
5.46552e-07
2.36612e-07
2.13029e-07
1.62977e-06
2.01873e-06
8.67876e-06
5.46739e-07
2.36611e-07
1.63044e-06
2.13093e-07
1.63104e-06
2.13092e-07
5.46458e-07
2.01909e-06
8.67692e-06
8.67681e-06
2.01803e-06
5.46706e-07
2.36615e-07
2.13047e-07
1.62928e-06
2.13042e-07
1.63019e-06
5.46426e-07
2.01879e-06
8.67959e-06
8.6793e-06
2.01783e-06
2.78713e-07
3.71981e-06
3.68257e-06
1.97042e-05
1.9739e-05
1.97418e-05
2.79174e-07
3.71162e-06
3.68501e-06
3.71218e-06
3.68153e-06
1.97053e-05
1.97038e-05
5.46407e-07
2.36492e-07
2.12982e-07
1.63105e-06
2.0197e-06
8.6746e-06
2.01476e-06
8.67903e-06
5.4682e-07
2.36496e-07
2.13023e-07
1.62824e-06
2.1302e-07
1.62892e-06
5.46757e-07
5.46649e-07
2.36523e-07
2.13017e-07
1.63067e-06
2.13003e-07
1.63145e-06
5.46566e-07
2.02014e-06
8.67585e-06
8.67524e-06
2.02022e-06
2.01538e-06
8.67942e-06
8.68064e-06
2.01605e-06
1.97127e-05
1.97224e-05
2.79208e-07
3.67989e-06
3.69376e-06
3.68821e-06
3.69763e-06
1.97103e-05
1.97112e-05
1.97205e-05
1.97211e-05
1.97075e-05
1.97094e-05
1.97117e-05
1.9713e-05
3.68279e-06
3.69441e-06
2.78809e-07
3.68897e-06
3.69393e-06
1.97095e-05
1.97084e-05
1.97145e-05
1.97126e-05
2.79152e-07
3.68856e-06
3.69055e-06
3.68992e-06
3.69525e-06
2.01853e-06
8.67291e-06
2.01907e-06
8.67704e-06
5.4697e-07
1.62976e-06
2.13034e-07
2.3657e-07
5.47234e-07
1.6292e-06
2.13027e-07
5.47003e-07
1.63008e-06
2.13006e-07
2.36619e-07
5.47072e-07
1.62941e-06
2.13017e-07
2.02144e-06
8.67673e-06
8.67761e-06
2.02106e-06
2.01962e-06
8.67567e-06
8.67722e-06
2.01952e-06
5.47181e-07
2.36518e-07
1.62958e-06
2.13027e-07
1.63043e-06
2.13026e-07
5.46862e-07
5.47282e-07
2.36586e-07
1.62975e-06
2.13025e-07
1.63067e-06
2.13021e-07
5.47029e-07
3.6909e-06
3.69688e-06
2.78837e-07
3.69103e-06
3.69328e-06
1.9715e-05
1.97147e-05
1.97107e-05
1.97097e-05
2.79174e-07
3.6855e-06
3.69112e-06
3.69286e-06
3.69438e-06
1.97137e-05
1.97137e-05
5.46671e-07
1.63062e-06
2.13018e-07
2.36555e-07
5.46734e-07
1.6299e-06
2.1303e-07
2.01987e-06
8.6948e-06
2.02027e-06
8.69364e-06
5.46962e-07
2.13053e-07
1.63581e-06
2.36667e-07
5.47125e-07
2.13054e-07
1.63408e-06
2.0178e-06
8.67705e-06
8.67721e-06
2.01877e-06
5.46988e-07
2.3655e-07
1.63036e-06
2.13029e-07
1.6312e-06
2.13028e-07
5.47018e-07
2.02085e-06
8.68762e-06
8.69354e-06
2.0202e-06
5.47254e-07
2.36645e-07
2.1304e-07
1.63316e-06
2.13047e-07
1.63509e-06
5.47158e-07
2.01712e-06
8.67757e-06
2.01847e-06
8.67612e-06
5.46352e-07
2.13064e-07
1.63017e-06
2.36626e-07
5.46635e-07
2.13072e-07
1.62937e-06
2.0173e-06
8.67936e-06
2.01839e-06
8.67699e-06
5.46709e-07
2.36615e-07
1.63081e-06
2.13116e-07
1.63201e-06
2.13098e-07
5.46457e-07
2.01789e-06
8.67379e-06
8.67689e-06
2.01638e-06
5.46553e-07
2.36593e-07
2.13056e-07
1.62964e-06
2.13063e-07
1.63057e-06
5.46152e-07
2.01813e-06
8.67525e-06
8.67689e-06
2.01633e-06
3.70143e-06
3.68624e-06
2.78924e-07
3.69848e-06
3.68196e-06
1.97053e-05
1.97085e-05
1.97235e-05
1.97276e-05
2.79284e-07
3.69277e-06
3.68926e-06
3.69962e-06
3.68209e-06
1.97097e-05
1.97084e-05
5.46733e-07
2.13013e-07
1.63158e-06
2.36567e-07
5.46842e-07
2.13037e-07
1.63079e-06
2.02122e-06
8.67656e-06
2.02118e-06
8.67733e-06
2.01835e-06
8.68004e-06
2.01729e-06
8.6775e-06
5.47116e-07
2.36541e-07
2.13044e-07
1.6293e-06
2.13044e-07
1.62996e-06
5.47046e-07
5.47014e-07
2.36569e-07
2.13036e-07
1.63112e-06
2.13036e-07
1.63203e-06
5.46905e-07
2.02245e-06
8.67814e-06
8.67796e-06
2.02159e-06
2.01981e-06
8.67593e-06
8.67781e-06
2.02005e-06
1.97088e-05
1.97092e-05
1.97195e-05
1.972e-05
2.79186e-07
3.68658e-06
3.69607e-06
3.68419e-06
3.69495e-06
1.97099e-05
1.97083e-05
1.97215e-05
1.97198e-05
1.97084e-05
1.97089e-05
1.97134e-05
1.97143e-05
3.68989e-06
3.68952e-06
2.78734e-07
3.6851e-06
3.69857e-06
1.97103e-05
1.97082e-05
1.97142e-05
1.97134e-05
2.79127e-07
3.68543e-06
3.69499e-06
3.68675e-06
3.70004e-06
2.02007e-06
8.67557e-06
2.02064e-06
8.67487e-06
5.46813e-07
1.6307e-06
2.13035e-07
2.36632e-07
5.47101e-07
1.62966e-06
2.13062e-07
5.46992e-07
1.63087e-06
2.13043e-07
2.36614e-07
5.47278e-07
1.62997e-06
2.13053e-07
2.02268e-06
8.67156e-06
8.67324e-06
2.02194e-06
2.02097e-06
8.6751e-06
8.675e-06
2.02016e-06
5.47071e-07
2.36631e-07
1.62972e-06
2.13021e-07
1.63074e-06
2.1303e-07
5.46863e-07
5.47204e-07
2.3661e-07
1.63012e-06
2.13052e-07
1.63111e-06
2.13054e-07
5.46785e-07
3.68785e-06
3.69562e-06
2.78794e-07
3.69587e-06
3.69328e-06
1.97125e-05
1.97114e-05
1.97117e-05
1.97104e-05
2.79125e-07
3.69922e-06
3.69129e-06
3.69809e-06
3.69404e-06
1.97099e-05
1.97101e-05
5.47269e-07
1.63154e-06
2.13038e-07
2.36591e-07
5.47348e-07
1.63065e-06
2.13052e-07
2.02036e-06
8.68661e-06
2.02111e-06
8.68168e-06
5.47144e-07
2.13053e-07
1.63399e-06
2.36652e-07
5.47423e-07
2.1306e-07
1.63211e-06
2.02194e-06
8.67561e-06
8.67644e-06
2.02168e-06
5.47495e-07
2.36569e-07
1.63073e-06
2.13046e-07
1.63181e-06
2.13052e-07
5.47265e-07
2.02116e-06
8.67939e-06
8.68089e-06
2.01871e-06
5.47329e-07
2.36625e-07
2.1305e-07
1.63147e-06
2.13053e-07
1.63307e-06
5.46891e-07
2.01578e-06
8.67492e-06
2.01714e-06
8.67217e-06
5.45918e-07
2.13067e-07
1.63079e-06
2.36628e-07
5.46335e-07
2.13077e-07
1.62988e-06
2.01403e-06
8.67499e-06
2.01675e-06
8.67395e-06
5.46493e-07
2.36638e-07
1.63033e-06
2.13097e-07
1.6316e-06
2.13119e-07
5.46119e-07
2.01654e-06
8.67318e-06
8.67275e-06
2.0153e-06
5.46105e-07
2.36624e-07
2.13062e-07
1.63013e-06
2.13075e-07
1.63104e-06
5.45726e-07
2.01448e-06
8.67577e-06
8.67436e-06
2.01264e-06
3.69306e-06
3.69048e-06
2.78792e-07
3.69173e-06
3.68287e-06
1.97089e-05
1.97111e-05
1.97154e-05
1.97154e-05
2.79117e-07
3.69346e-06
3.68204e-06
3.69416e-06
3.68602e-06
1.9714e-05
1.97109e-05
5.46934e-07
2.13063e-07
1.6322e-06
2.36633e-07
5.47192e-07
2.13073e-07
1.63086e-06
2.02157e-06
8.67868e-06
2.02249e-06
8.67814e-06
2.02074e-06
8.67575e-06
2.02126e-06
8.67474e-06
5.47475e-07
2.36594e-07
2.13074e-07
1.62994e-06
2.13072e-07
1.63082e-06
5.47211e-07
5.47154e-07
2.36624e-07
2.13068e-07
1.63072e-06
2.13071e-07
1.63188e-06
5.46916e-07
2.02249e-06
8.67874e-06
8.67828e-06
2.02152e-06
2.02171e-06
8.67541e-06
8.67507e-06
2.02102e-06
1.97097e-05
1.97123e-05
1.97202e-05
1.97181e-05
2.79165e-07
3.68596e-06
3.6913e-06
3.69179e-06
3.68821e-06
1.97142e-05
1.97121e-05
1.97171e-05
1.97165e-05
1.97102e-05
1.97128e-05
1.97131e-05
1.97132e-05
3.68202e-06
3.69511e-06
2.78755e-07
3.68343e-06
3.6934e-06
1.9715e-05
1.97129e-05
1.97126e-05
1.9712e-05
2.79085e-07
3.69463e-06
3.69269e-06
3.69212e-06
3.69366e-06
2.02061e-06
8.67628e-06
2.02113e-06
8.67394e-06
5.46871e-07
1.63082e-06
2.13076e-07
2.3663e-07
5.47135e-07
1.62997e-06
2.13089e-07
5.46584e-07
1.63122e-06
2.13053e-07
2.36627e-07
5.46982e-07
1.63002e-06
2.13053e-07
2.02294e-06
8.67133e-06
8.6727e-06
2.02181e-06
2.02157e-06
8.67325e-06
8.67398e-06
2.02096e-06
5.47062e-07
2.36619e-07
1.63029e-06
2.13052e-07
1.63116e-06
2.13052e-07
5.46806e-07
5.46807e-07
2.36629e-07
1.62995e-06
2.13044e-07
1.63108e-06
2.13051e-07
5.46505e-07
3.70051e-06
3.69318e-06
2.78773e-07
3.69608e-06
3.69388e-06
1.97095e-05
1.97115e-05
1.97141e-05
1.97121e-05
2.79149e-07
3.69109e-06
3.69564e-06
3.69645e-06
3.69624e-06
1.97136e-05
1.97114e-05
5.47251e-07
1.63182e-06
2.13049e-07
2.36602e-07
5.47511e-07
1.63056e-06
2.13052e-07
2.01682e-06
8.67881e-06
2.0191e-06
8.67736e-06
5.46748e-07
2.13065e-07
1.63242e-06
2.36633e-07
5.471e-07
2.13069e-07
1.63087e-06
2.02258e-06
8.67848e-06
8.67715e-06
2.02157e-06
5.47452e-07
2.36592e-07
1.6305e-06
2.13034e-07
1.63165e-06
2.13043e-07
5.47033e-07
2.01742e-06
8.67837e-06
8.6781e-06
2.01623e-06
5.46965e-07
2.36631e-07
2.13069e-07
1.63059e-06
2.13068e-07
1.6319e-06
5.46606e-07
2.01477e-06
8.67354e-06
2.01613e-06
8.6721e-06
5.45656e-07
2.13063e-07
1.63127e-06
2.36636e-07
5.45897e-07
2.13064e-07
1.63056e-06
2.01185e-06
8.67717e-06
2.01323e-06
8.67813e-06
5.46189e-07
2.36626e-07
1.63083e-06
2.13054e-07
1.63164e-06
2.13058e-07
5.45882e-07
2.01551e-06
8.67234e-06
8.67239e-06
2.01499e-06
5.45905e-07
2.36637e-07
2.13061e-07
1.63113e-06
2.13064e-07
1.63179e-06
5.45714e-07
2.01279e-06
8.67816e-06
8.67929e-06
2.01297e-06
3.6941e-06
3.68977e-06
2.78733e-07
3.69256e-06
3.68838e-06
1.97134e-05
1.97157e-05
1.97121e-05
1.97116e-05
2.79069e-07
3.69084e-06
3.69218e-06
3.69363e-06
3.68914e-06
1.9717e-05
1.97153e-05
5.46821e-07
2.13069e-07
1.63185e-06
2.36643e-07
5.47142e-07
2.13073e-07
1.63086e-06
2.02105e-06
8.67803e-06
2.0224e-06
8.67609e-06
2.02092e-06
8.67609e-06
2.02199e-06
8.67679e-06
5.47307e-07
2.36637e-07
2.13076e-07
1.62991e-06
2.13082e-07
1.63106e-06
5.46963e-07
5.4702e-07
2.36624e-07
2.13053e-07
1.63098e-06
2.13059e-07
1.63199e-06
5.4668e-07
2.02188e-06
8.67447e-06
8.67612e-06
2.0202e-06
2.02183e-06
8.67763e-06
8.67743e-06
2.01987e-06
1.97141e-05
1.97173e-05
1.97169e-05
1.97183e-05
2.79027e-07
3.69127e-06
3.69871e-06
3.69602e-06
3.69793e-06
1.97194e-05
1.97168e-05
1.97177e-05
1.97171e-05
1.97148e-05
1.9716e-05
1.97118e-05
1.97125e-05
3.69806e-06
3.69362e-06
2.78673e-07
3.69813e-06
3.69191e-06
1.97165e-05
1.97152e-05
1.97138e-05
1.9712e-05
2.79009e-07
3.69355e-06
3.69252e-06
3.69899e-06
3.69292e-06
2.02122e-06
8.67365e-06
2.022e-06
8.67397e-06
5.46865e-07
1.63146e-06
2.1307e-07
2.36609e-07
5.47034e-07
1.63045e-06
2.13078e-07
5.46557e-07
1.63108e-06
2.13048e-07
2.36641e-07
5.4674e-07
1.63037e-06
2.13046e-07
2.0226e-06
8.6755e-06
8.67517e-06
2.02175e-06
2.02215e-06
8.6745e-06
8.67478e-06
2.02158e-06
5.47126e-07
2.36589e-07
1.63041e-06
2.13017e-07
1.63153e-06
2.13027e-07
5.46897e-07
5.46865e-07
2.36639e-07
1.63083e-06
2.13043e-07
1.6316e-06
2.13044e-07
5.46743e-07
3.69153e-06
3.69539e-06
2.78715e-07
3.69755e-06
3.69387e-06
1.97128e-05
1.97146e-05
1.97166e-05
1.97163e-05
2.79043e-07
3.69986e-06
3.69377e-06
3.70012e-06
3.69565e-06
1.97168e-05
1.97143e-05
5.46848e-07
1.63162e-06
2.13036e-07
2.36589e-07
5.47197e-07
1.63049e-06
2.13041e-07
2.01681e-06
8.67877e-06
2.01736e-06
8.67822e-06
5.4657e-07
2.13075e-07
1.63165e-06
2.3666e-07
5.46821e-07
2.13075e-07
1.63046e-06
2.0224e-06
8.67573e-06
8.67648e-06
2.02147e-06
5.47079e-07
2.36586e-07
1.6306e-06
2.13036e-07
1.63164e-06
2.1304e-07
5.4695e-07
2.01766e-06
8.67674e-06
8.67813e-06
2.01775e-06
5.46832e-07
2.36648e-07
2.13059e-07
1.63056e-06
2.13068e-07
1.63159e-06
5.46763e-07
2.0156e-06
8.6742e-06
2.01603e-06
8.67745e-06
5.45817e-07
2.13063e-07
1.63233e-06
2.3664e-07
5.45983e-07
2.1307e-07
1.63137e-06
2.01492e-06
8.6786e-06
2.01437e-06
8.67794e-06
5.46266e-07
2.36624e-07
1.63187e-06
2.13069e-07
1.63251e-06
2.13074e-07
5.46201e-07
2.01661e-06
8.67771e-06
8.67792e-06
2.01671e-06
5.46117e-07
2.36638e-07
2.13062e-07
1.63125e-06
2.13069e-07
1.63246e-06
5.46153e-07
2.01631e-06
8.67413e-06
8.67681e-06
2.01682e-06
3.69094e-06
3.6949e-06
2.78775e-07
3.68995e-06
3.69602e-06
1.97164e-05
1.97172e-05
1.97129e-05
1.97112e-05
2.79128e-07
3.68669e-06
3.69939e-06
3.69166e-06
3.69382e-06
1.97173e-05
1.97162e-05
5.46668e-07
2.13063e-07
1.63209e-06
2.36598e-07
5.46902e-07
2.13066e-07
1.63109e-06
2.01809e-06
8.6742e-06
2.02092e-06
8.67305e-06
2.01888e-06
8.67824e-06
2.02058e-06
8.6791e-06
5.47094e-07
2.36616e-07
2.1308e-07
1.62886e-06
2.1308e-07
1.63022e-06
5.46875e-07
5.46921e-07
2.36577e-07
2.13064e-07
1.63115e-06
2.13063e-07
1.6322e-06
5.46692e-07
2.01836e-06
8.67255e-06
8.67323e-06
2.0163e-06
2.01964e-06
8.68042e-06
8.67983e-06
2.01789e-06
1.97191e-05
1.97196e-05
1.97171e-05
1.97186e-05
2.78957e-07
3.69927e-06
3.70299e-06
3.6981e-06
3.70349e-06
1.97176e-05
1.97183e-05
1.97191e-05
1.97178e-05
1.97159e-05
1.97176e-05
1.97129e-05
1.97135e-05
3.69504e-06
3.69301e-06
2.78664e-07
3.69037e-06
3.68896e-06
1.97177e-05
1.97171e-05
1.9715e-05
1.97132e-05
2.79017e-07
3.6956e-06
3.69664e-06
3.6896e-06
3.68824e-06
2.02174e-06
8.67467e-06
2.02256e-06
8.67375e-06
5.46841e-07
1.63149e-06
2.13053e-07
2.3658e-07
5.47121e-07
1.63044e-06
2.13041e-07
5.46834e-07
1.63197e-06
2.13047e-07
2.3666e-07
5.47009e-07
1.631e-06
2.13055e-07
2.02215e-06
8.67721e-06
8.67746e-06
2.02114e-06
2.02268e-06
8.6743e-06
8.67425e-06
2.02193e-06
5.47073e-07
2.36573e-07
1.63054e-06
2.13023e-07
1.63154e-06
2.13035e-07
5.46759e-07
5.47083e-07
2.36636e-07
1.63137e-06
2.13052e-07
1.63216e-06
2.13053e-07
5.46825e-07
3.70083e-06
3.69659e-06
2.78647e-07