/*--------------------------------*- C++ -*----------------------------------*\
| =========                 |                                                 |
| \\      /  F ield         | OpenFOAM: The Open Source CFD Toolbox           |
|  \\    /   O peration     | Version:  v1906                                 |
|   \\  /    A nd           | Web:      www.OpenFOAM.com                      |
|    \\/     M anipulation  |                                                 |
\*---------------------------------------------------------------------------*/
FoamFile
{
    version     2.0;
    format      ascii;
    class       volVectorField;
    location    "150";
    object      U;
}
// * * * * * * * * * * * * * * * * * * * * * * * * * * * * * * * * * * * * * //

dimensions      [0 1 -1 0 0 0 0];


internalField   nonuniform List<vector> 
43248
(
(-5.72976e-05 -5.70745e-05 0.106197)
(2.06138e-06 1.49963e-06 0.108956)
(-2.15744e-06 1.33243e-06 0.108956)
(5.71252e-05 -5.69531e-05 0.106194)
(1.39212e-06 2.17163e-06 0.108959)
(1.49557e-06 -1.82541e-06 0.108956)
(-1.29587e-06 2.10214e-06 0.108952)
(-1.30518e-06 -2.19806e-06 0.108963)
(-5.72623e-05 5.71365e-05 0.106195)
(1.66226e-06 -1.50038e-06 0.10896)
(-2.02223e-06 -1.45697e-06 0.108957)
(5.71827e-05 5.70051e-05 0.106198)
(-1.53618e-06 -1.33236e-06 0.111808)
(1.46894e-06 -1.52354e-06 0.111807)
(-1.81925e-06 1.68978e-06 0.111809)
(1.53585e-06 1.4148e-06 0.111809)
(-3.94938e-06 -8.3781e-06 0.070965)
(-8.42118e-06 -3.69359e-06 0.0709575)
(-7.68514e-06 -9.32321e-06 0.0874904)
(-9.34272e-06 -7.80076e-06 0.0874859)
(-3.02122e-08 1.66539e-05 0.0916973)
(-1.89107e-06 -1.45065e-05 0.0818891)
(-5.70172e-07 -1.89031e-05 0.0917811)
(-3.62715e-07 1.69022e-05 0.0916947)
(2.18826e-06 -1.42072e-05 0.0818787)
(-3.926e-07 1.50828e-05 0.0817968)
(2.3149e-07 -1.88268e-05 0.0917786)
(5.25225e-07 2.42852e-05 0.0998805)
(-1.01488e-05 -1.82674e-05 0.0934766)
(-5.07403e-08 1.49513e-06 0.11072)
(-1.26895e-07 1.23274e-06 0.11072)
(-7.59021e-07 -2.66999e-05 0.0999941)
(-5.42479e-07 2.46135e-05 0.0998792)
(-1.88533e-06 1.12296e-06 0.108957)
(1.04308e-05 -1.79752e-05 0.0934716)
(3.10112e-07 1.42333e-06 0.110719)
(-8.59761e-06 1.95876e-05 0.0933641)
(2.80571e-07 1.19146e-06 0.110719)
(7.2139e-07 -2.65125e-05 0.0999928)
(4.60299e-06 -8.06601e-06 0.0709502)
(-3.36527e-06 8.74338e-06 0.0708598)
(-5.20415e-05 5.2193e-05 0.10597)
(8.35462e-06 -8.56614e-06 0.0874806)
(9.31007e-06 -7.51191e-06 0.0874997)
(-7.19815e-06 9.74861e-06 0.0873909)
(-8.89227e-06 8.03062e-06 0.0874082)
(8.37786e-06 -3.81553e-06 0.0709739)
(-8.02144e-06 4.25077e-06 0.0708783)
(-1.47607e-05 -1.2642e-06 0.0818908)
(-1.95196e-05 -4.46425e-07 0.091777)
(-1.88241e-05 -1.00318e-05 0.093476)
(1.70736e-06 -1.87144e-07 0.110721)
(-2.70876e-05 -6.33211e-07 0.0999962)
(-1.485e-05 1.27597e-06 0.0818867)
(-1.94729e-05 3.08322e-07 0.0917767)
(1.68135e-06 3.73569e-07 0.110722)
(-1.85694e-05 9.59585e-06 0.0934737)
(-2.7196e-05 6.99668e-07 0.0999963)
(-2.40102e-05 5.3193e-07 0.0998838)
(-1.01787e-06 1.78831e-06 0.108953)
(1.85877e-05 -9.86411e-06 0.0934817)
(-1.60398e-06 -3.18538e-07 0.110719)
(-1.87713e-05 9.15824e-06 0.0933739)
(-1.26481e-06 -2.71134e-07 0.11072)
(2.69976e-05 -7.80105e-07 0.0999975)
(-1.63783e-05 3.07632e-07 0.09169)
(1.48039e-05 -1.6265e-06 0.0818964)
(-1.41566e-05 1.04604e-06 0.0818109)
(1.93081e-05 -3.17346e-07 0.091775)
(-2.42887e-05 -4.96924e-07 0.099886)
(-1.08276e-06 -1.83653e-06 0.108963)
(-1.627e-06 1.18908e-07 0.110726)
(1.87612e-05 9.91673e-06 0.0934706)
(-1.34648e-06 1.30831e-07 0.110727)
(-1.88832e-05 -9.34109e-06 0.0933635)
(2.69486e-05 7.10844e-07 0.0999996)
(-1.64806e-05 -3.99422e-08 0.0916877)
(1.46898e-05 1.70131e-06 0.0818712)
(-1.43558e-05 -9.11754e-07 0.0817873)
(1.91536e-05 3.74851e-07 0.0917726)
(-8.53818e-06 3.33908e-06 0.0709584)
(-9.45034e-06 7.20439e-06 0.0874829)
(-7.56933e-06 9.19828e-06 0.0874802)
(-3.76481e-06 8.45338e-06 0.0709533)
(5.18809e-07 -2.4351e-05 0.0998809)
(-6.06209e-07 -1.60412e-06 0.110721)
(-9.93153e-06 1.84275e-05 0.093472)
(-6.45542e-07 -1.2751e-06 0.110722)
(-6.39057e-07 2.65601e-05 0.0999945)
(-4.3137e-07 -2.44662e-05 0.0998787)
(-1.66211e-06 -1.28908e-06 0.108958)
(9.17119e-08 -1.64911e-06 0.110717)
(1.05672e-05 1.83282e-05 0.0934731)
(4.59232e-08 -1.44589e-06 0.110718)
(-8.61366e-06 -1.91754e-05 0.0933658)
(9.05805e-07 2.65065e-05 0.0999919)
(4.1831e-07 -1.66501e-05 0.0916946)
(-1.57049e-06 1.45574e-05 0.0818823)
(-2.41364e-07 1.89812e-05 0.0917781)
(2.62834e-07 -1.65568e-05 0.0916994)
(2.31334e-06 1.4296e-05 0.0818878)
(-5.87133e-07 -1.47378e-05 0.0818041)
(4.72147e-07 1.88977e-05 0.0917834)
(-5.21399e-05 -5.22808e-05 0.105974)
(9.44408e-06 7.5382e-06 0.0874784)
(8.46219e-06 8.78213e-06 0.0874784)
(-8.9679e-06 -8.1292e-06 0.0873878)
(-7.32075e-06 -9.45995e-06 0.0873894)
(8.42014e-06 3.79887e-06 0.0709488)
(-8.08982e-06 -4.31211e-06 0.0708566)
(4.5694e-06 7.96275e-06 0.0709529)
(-3.72308e-06 -8.44149e-06 0.0708619)
(4.01594e-06 8.155e-06 0.0708746)
(8.1084e-06 4.39507e-06 0.0708667)
(1.00745e-05 1.92309e-05 0.0919151)
(-1.22738e-05 -2.68149e-05 0.0971127)
(7.84183e-06 9.02336e-06 0.0874045)
(-5.17769e-06 -8.90679e-06 0.0813029)
(5.37885e-06 8.19231e-06 0.0812178)
(1.28757e-05 2.6064e-05 0.0970252)
(-1.01991e-05 -2.0595e-05 0.0919956)
(1.9288e-05 9.89602e-06 0.0918991)
(-2.69598e-05 -1.24612e-05 0.0971199)
(8.95423e-06 7.80455e-06 0.0873949)
(-8.55965e-06 -5.41014e-06 0.0812945)
(8.21683e-06 4.93506e-06 0.0812037)
(2.59125e-05 1.28104e-05 0.0970142)
(-2.04559e-05 -1.05e-05 0.0919981)
(7.68152e-06 7.22883e-06 0.0834334)
(-7.10115e-06 -4.85972e-06 0.0680022)
(-4.4165e-06 -7.66343e-06 0.0679938)
(7.50529e-06 4.31115e-06 0.06791)
(4.72028e-06 6.89409e-06 0.0679)
(-7.95904e-06 -8.30667e-06 0.0835117)
(-4.75479e-07 -8.67341e-06 0.0764176)
(-3.7198e-07 8.20474e-06 0.0781548)
(1.68619e-07 1.59313e-05 0.0899886)
(-6.14623e-07 -1.8844e-05 0.0917805)
(-1.05368e-06 8.39016e-06 0.0763354)
(-3.44108e-07 -8.47365e-06 0.0782271)
(-1.89709e-06 -1.80349e-05 0.0900778)
(-1.4368e-06 8.3469e-06 0.0677879)
(7.18e-07 1.45524e-05 0.0818067)
(-2.0474e-06 -1.40373e-05 0.0856522)
(-3.62828e-07 1.30734e-05 0.0855592)
(-7.02208e-07 -8.21157e-06 0.0678912)
(-1.09361e-06 8.4447e-06 0.0763362)
(-1.48181e-08 1.67527e-05 0.0916984)
(-2.98979e-07 -8.45809e-06 0.0782276)
(-1.79234e-06 -1.80917e-05 0.0900783)
(-3.01744e-07 8.23983e-06 0.0781554)
(1.57907e-07 1.58766e-05 0.0899895)
(-4.19482e-07 -8.66699e-06 0.0764182)
(-3.00657e-07 -8.79024e-06 0.076418)
(-1.07241e-07 8.20988e-06 0.0781504)
(-7.74951e-07 1.61584e-05 0.0899887)
(2.18278e-07 -1.87259e-05 0.0917779)
(3.19338e-07 8.41036e-06 0.0763388)
(-1.12404e-07 -8.49483e-06 0.0782224)
(1.27573e-06 -1.78919e-05 0.0900772)
(9.97134e-07 8.40231e-06 0.067786)
(-3.77848e-07 1.50254e-05 0.0817967)
(1.78596e-06 -1.38101e-05 0.085645)
(6.3016e-08 1.3462e-05 0.0855533)
(3.87566e-07 -8.3412e-06 0.0678844)
(3.27488e-07 -8.29425e-06 0.0678847)
(7.41108e-08 1.34715e-05 0.0855534)
(2.13694e-06 -1.41057e-05 0.0818789)
(8.75347e-07 8.39842e-06 0.067786)
(1.77231e-06 -1.3748e-05 0.0856451)
(3.48688e-07 8.55379e-06 0.0763392)
(-3.09636e-07 1.68816e-05 0.0916958)
(-1.07403e-07 -8.43252e-06 0.078223)
(1.27163e-06 -1.79537e-05 0.0900775)
(-9.7947e-08 8.26022e-06 0.0781511)
(-7.52273e-07 1.61656e-05 0.0899894)
(-2.6761e-07 -8.71906e-06 0.0764181)
(-3.41287e-06 8.6407e-06 0.0708596)
(4.63977e-06 -7.9321e-06 0.0709501)
(8.44762e-06 -7.64025e-06 0.0835126)
(-6.77063e-06 5.01162e-06 0.0679007)
(-4.28609e-06 7.53461e-06 0.0679113)
(-7.20212e-06 7.95421e-06 0.0834343)
(7.83677e-06 -4.22575e-06 0.0679937)
(4.94799e-06 -7.04242e-06 0.0680044)
(-9.76394e-06 1.97322e-05 0.0919023)
(1.2687e-05 -2.65913e-05 0.0971134)
(-7.25063e-06 9.81384e-06 0.0873914)
(5.90456e-06 -8.02672e-06 0.0812928)
(-1.26023e-05 2.64147e-05 0.0970152)
(-4.62853e-06 8.89973e-06 0.0812038)
(1.06942e-05 -2.00173e-05 0.0919928)
(-1.89294e-05 1.02251e-05 0.0919138)
(2.6917e-05 -1.21257e-05 0.097118)
(-8.94842e-06 8.02894e-06 0.0874091)
(8.80336e-06 -5.05551e-06 0.0813108)
(-8.04624e-06 5.42739e-06 0.0812218)
(-2.58089e-05 1.30251e-05 0.0970213)
(2.07803e-05 -1.01321e-05 0.0920042)
(1.06662e-05 -2.00177e-05 0.0919923)
(-4.61611e-06 9.00248e-06 0.0812031)
(-1.26634e-05 2.65312e-05 0.0970146)
(8.35039e-06 -8.55872e-06 0.0874804)
(1.26051e-05 -2.64957e-05 0.0971132)
(-9.69407e-06 1.97116e-05 0.0919019)
(5.85946e-06 -7.93049e-06 0.081292)
(2.07865e-05 -1.00744e-05 0.0920034)
(-8.06557e-06 5.45037e-06 0.0812207)
(-2.57779e-05 1.30157e-05 0.0970207)
(9.32674e-06 -7.43219e-06 0.0874989)
(-1.89904e-05 1.02562e-05 0.0919133)
(8.79526e-06 -4.98543e-06 0.0813098)
(2.70976e-05 -1.22276e-05 0.0971179)
(-7.15835e-06 7.90887e-06 0.0834352)
(7.82467e-06 -4.19304e-06 0.0679945)
(4.86231e-06 -7.05419e-06 0.0680053)
(-6.81061e-06 4.96375e-06 0.0679014)
(-4.2883e-06 7.49762e-06 0.0679122)
(8.48566e-06 -7.65332e-06 0.0835137)
(-8.02727e-06 4.18991e-06 0.0708793)
(8.40667e-06 -3.66383e-06 0.0709727)
(8.18405e-06 -5.54563e-07 0.0677991)
(1.4319e-05 1.32829e-06 0.081808)
(-1.43369e-05 -1.2952e-06 0.0856587)
(1.27835e-05 4.49637e-07 0.0855674)
(-8.45968e-06 1.30275e-08 0.067898)
(8.30757e-06 -4.86303e-07 0.0763414)
(1.61451e-05 1.80752e-07 0.0916949)
(-1.84326e-05 -1.23015e-06 0.0900815)
(-8.61407e-06 -1.64156e-07 0.0782192)
(1.55785e-05 8.16876e-07 0.0899935)
(8.14251e-06 -8.15476e-08 0.0781491)
(-8.90944e-06 6.26929e-08 0.0764208)
(8.14694e-06 7.71804e-07 0.0677922)
(1.41811e-05 -1.2803e-06 0.0818019)
(-1.43482e-05 1.37775e-06 0.0856545)
(1.27485e-05 -2.83275e-07 0.085561)
(-8.42015e-06 7.95228e-08 0.067896)
(8.1866e-06 5.29288e-07 0.0763399)
(1.61579e-05 -1.65934e-07 0.0916948)
(-8.69481e-06 1.00562e-07 0.07822)
(-1.84035e-05 1.18129e-06 0.0900817)
(8.07985e-06 1.67746e-07 0.0781497)
(1.55186e-05 -7.45846e-07 0.0899926)
(-8.90073e-06 -1.67353e-07 0.076422)
(8.8057e-06 4.08245e-07 0.0764149)
(-1.57134e-05 8.57836e-07 0.0899882)
(-8.04514e-06 1.66592e-07 0.0781445)
(1.93028e-05 -3.37399e-07 0.0917736)
(-8.44431e-06 -7.70432e-08 0.0763348)
(1.83315e-05 -1.22068e-06 0.0900773)
(8.64811e-06 8.46082e-08 0.0782171)
(-8.24954e-06 -5.98477e-07 0.0677945)
(-1.41346e-05 9.28578e-07 0.0818123)
(1.43513e-05 -1.5227e-06 0.0856573)
(-1.28403e-05 2.5201e-07 0.0855652)
(8.43944e-06 -8.72733e-08 0.0678935)
(8.38071e-06 -1.46513e-08 0.0678926)
(-1.27975e-05 3.43698e-07 0.0855638)
(1.48582e-05 -1.52046e-06 0.0818952)
(-8.26743e-06 -5.02852e-07 0.0677934)
(1.43411e-05 -1.4223e-06 0.0856561)
(-8.41924e-06 -2.22182e-07 0.0763364)
(-1.63488e-05 2.01191e-07 0.0916918)
(1.83755e-05 -1.23441e-06 0.0900784)
(8.60772e-06 1.67427e-07 0.0782184)
(-1.57241e-05 8.59416e-07 0.0899899)
(-8.13399e-06 2.03657e-07 0.078146)
(8.96225e-06 2.80035e-07 0.0764163)
(8.82713e-06 -1.34561e-07 0.0764033)
(-8.2527e-06 1.55135e-07 0.0781396)
(-1.57729e-05 -8.81813e-07 0.0899782)
(1.91203e-05 4.41067e-07 0.0917716)
(-8.57518e-06 4.12378e-07 0.076323)
(8.52232e-06 1.50224e-07 0.0782123)
(1.83254e-05 1.20834e-06 0.0900676)
(-8.26068e-06 7.33471e-07 0.0677742)
(-1.44079e-05 -8.50698e-07 0.0817887)
(1.42874e-05 1.60925e-06 0.0856357)
(-1.29895e-05 -1.4805e-07 0.0855434)
(8.46951e-06 2.44184e-07 0.0678734)
(8.38854e-06 1.72986e-07 0.0678722)
(-1.30024e-05 -3.05039e-07 0.0855422)
(1.47861e-05 1.67771e-06 0.0818699)
(-8.32844e-06 6.32228e-07 0.0677727)
(1.42292e-05 1.54993e-06 0.0856346)
(-8.39595e-06 4.56753e-07 0.0763246)
(-1.66808e-05 -1.67368e-07 0.0916893)
(8.69534e-06 2.52311e-07 0.0782142)
(1.83208e-05 1.28951e-06 0.0900687)
(-8.0812e-06 2.54152e-07 0.0781415)
(-1.58642e-05 -7.72108e-07 0.0899799)
(8.96395e-06 -1.36623e-07 0.0764048)
(7.92891e-06 -4.58511e-06 0.0708633)
(1.90576e-05 -1.04117e-05 0.0918998)
(-2.69087e-05 1.21601e-05 0.0971116)
(8.89066e-06 -8.36989e-06 0.0873912)
(-8.87131e-06 4.87735e-06 0.0812905)
(2.61089e-05 -1.31687e-05 0.097013)
(8.0592e-06 -5.65895e-06 0.081201)
(-2.07062e-05 1.00908e-05 0.0919909)
(9.99994e-06 -1.95529e-05 0.0919067)
(-1.23993e-05 2.65383e-05 0.0971149)
(7.94508e-06 -9.23163e-06 0.087391)
(-5.13786e-06 8.55014e-06 0.0812935)
(5.22803e-06 -8.4333e-06 0.0812044)
(1.27283e-05 -2.63008e-05 0.0970175)
(-1.03543e-05 2.02624e-05 0.0919972)
(7.50553e-06 -7.90306e-06 0.0834285)
(-4.83253e-06 7.25202e-06 0.0679883)
(-7.38114e-06 4.6842e-06 0.0679935)
(4.3699e-06 -7.47205e-06 0.0678952)
(7.21606e-06 -4.58577e-06 0.0679006)
(-8.08868e-06 7.76998e-06 0.0835067)
(4.28397e-06 -8.20878e-06 0.0708626)
(5.46472e-08 8.68671e-06 0.0764175)
(7.18598e-07 -1.58952e-05 0.0899881)
(1.97462e-07 -8.21541e-06 0.0781532)
(-2.01746e-07 1.89859e-05 0.0917775)
(-4.74492e-07 -8.51664e-06 0.0763385)
(-1.31236e-06 1.81505e-05 0.0900769)
(1.0069e-07 8.53219e-06 0.0782233)
(-8.41121e-07 -8.32598e-06 0.0677912)
(9.53338e-07 -1.45962e-05 0.0818001)
(-1.449e-06 1.40815e-05 0.0856488)
(2.48009e-07 -1.3145e-05 0.085558)
(-2.35232e-07 8.40851e-06 0.0678897)
(-2.96986e-07 8.28058e-06 0.0678887)
(-1.47555e-06 1.40624e-05 0.0856482)
(-5.59898e-07 -8.59165e-06 0.0763392)
(2.92077e-07 -1.66972e-05 0.0916956)
(-1.26306e-06 1.81237e-05 0.0900777)
(5.98329e-08 8.54013e-06 0.078224)
(7.51784e-07 -1.59483e-05 0.0899896)
(9.6525e-08 -8.30555e-06 0.0781541)
(5.52827e-08 8.76736e-06 0.0764182)
(6.25314e-08 8.52084e-06 0.0764286)
(-3.89331e-07 -1.59397e-05 0.0899956)
(3.87697e-07 -8.3613e-06 0.0781587)
(6.4183e-07 1.89705e-05 0.0917826)
(8.17425e-07 -8.64869e-06 0.076346)
(1.46413e-06 1.79205e-05 0.0900863)
(2.59812e-07 8.35512e-06 0.078229)
(1.02639e-06 -8.35238e-06 0.0677951)
(-3.90895e-07 -1.47981e-05 0.0818049)
(1.99273e-06 1.38133e-05 0.0856575)
(2.53713e-07 -1.33264e-05 0.0855633)
(2.85044e-07 8.30362e-06 0.0678989)
(4.81975e-07 8.16166e-06 0.0678988)
(2.10369e-07 -1.32213e-05 0.0855627)
(2.12503e-06 1.43448e-05 0.0818871)
(1.1696e-06 -8.389e-06 0.0677945)
(1.94053e-06 1.38719e-05 0.0856571)
(6.59467e-07 -8.68317e-06 0.0763468)
(1.29636e-07 -1.6813e-05 0.0917009)
(1.34531e-06 1.78294e-05 0.0900869)
(1.61659e-07 8.39728e-06 0.07823)
(-4.85494e-07 -1.61035e-05 0.0899969)
(2.98254e-07 -8.41534e-06 0.0781596)
(-1.53616e-07 8.62208e-06 0.0764291)
(8.56598e-06 7.4479e-06 0.0835009)
(-4.16144e-06 -7.77058e-06 0.0678979)
(-6.64333e-06 -5.08823e-06 0.0678925)
(-7.03214e-06 -8.14494e-06 0.0834227)
(5.07999e-06 6.87726e-06 0.0679911)
(7.99367e-06 4.15778e-06 0.0679853)
(-1.89858e-05 -1.04436e-05 0.0919022)
(2.69849e-05 1.20073e-05 0.0971136)
(-8.96079e-06 -8.08244e-06 0.0873887)
(8.90403e-06 4.95168e-06 0.0812907)
(-2.59197e-05 -1.31649e-05 0.097017)
(-7.92551e-06 -5.49727e-06 0.0812016)
(2.08465e-05 9.92269e-06 0.0919927)
(-9.51114e-06 -1.97334e-05 0.0918956)
(1.27715e-05 2.64021e-05 0.0971107)
(-7.22e-06 -9.55653e-06 0.0873899)
(6.00179e-06 8.03467e-06 0.081287)
(-1.24587e-05 -2.64339e-05 0.0970135)
(-4.52669e-06 -8.84409e-06 0.0811993)
(1.09126e-05 2.00179e-05 0.0919858)
(2.07954e-05 9.8893e-06 0.091992)
(-7.94677e-06 -5.51967e-06 0.0812003)
(-2.5924e-05 -1.30852e-05 0.0970164)
(9.41201e-06 7.47243e-06 0.0874777)
(-1.90084e-05 -1.03789e-05 0.0919017)
(2.71599e-05 1.21734e-05 0.0971137)
(8.95975e-06 4.92309e-06 0.0812895)
(1.08534e-05 2.00647e-05 0.0919853)
(-4.57192e-06 -8.79469e-06 0.0811987)
(-1.24515e-05 -2.63651e-05 0.0970131)
(8.32479e-06 8.8448e-06 0.0874783)
(-9.58476e-06 -1.97482e-05 0.0918951)
(1.2792e-05 2.65247e-05 0.0971108)
(5.92515e-06 8.12491e-06 0.0812865)
(-7.00712e-06 -8.14064e-06 0.0834236)
(4.99873e-06 6.90689e-06 0.0679922)
(8.04588e-06 4.08343e-06 0.0679861)
(-4.16074e-06 -7.74065e-06 0.0678989)
(-6.6192e-06 -5.09545e-06 0.0678932)
(8.57613e-06 7.39464e-06 0.0835018)
(-8.16923e-06 -4.28438e-06 0.0708579)
(8.49363e-06 3.72149e-06 0.0709475)
(-3.5898e-06 -8.55726e-06 0.0708623)
(4.46158e-06 8.07163e-06 0.0709526)
(2.34594e-05 2.35959e-05 0.098406)
(5.17688e-05 5.21899e-05 0.105973)
(-5.24807e-05 -2.86678e-05 0.102941)
(-2.88809e-05 -5.2312e-05 0.102947)
(5.11051e-05 2.77343e-05 0.102804)
(2.73964e-05 5.13093e-05 0.102797)
(-2.54935e-05 -2.56263e-05 0.0985242)
(-2.34214e-05 2.38816e-05 0.0984048)
(-5.19278e-05 5.21093e-05 0.105969)
(5.25177e-05 -2.84903e-05 0.102942)
(2.88652e-05 -5.22382e-05 0.102941)
(-5.11077e-05 2.78172e-05 0.102797)
(-2.73931e-05 5.13135e-05 0.102798)
(2.57443e-05 -2.52161e-05 0.0985236)
(2.33599e-05 -2.38553e-05 0.0984002)
(5.20175e-05 -5.22411e-05 0.10597)
(-2.87205e-05 5.23715e-05 0.102937)
(-5.2662e-05 2.84795e-05 0.102941)
(2.75734e-05 -5.14129e-05 0.102792)
(5.11532e-05 -2.79119e-05 0.102798)
(-2.57577e-05 2.5403e-05 0.0985192)
(-2.34527e-05 -2.39719e-05 0.0984009)
(-5.20492e-05 -5.22523e-05 0.105974)
(2.88648e-05 5.22874e-05 0.102944)
(5.25886e-05 2.85027e-05 0.102941)
(-2.75149e-05 -5.15115e-05 0.102802)
(-5.11424e-05 -2.7844e-05 0.102797)
(2.5707e-05 2.51065e-05 0.0985193)
(5.38048e-07 -6.17837e-07 0.1126)
(-6.96018e-07 6.75848e-07 0.1126)
(4.84957e-07 -6.00859e-07 0.1126)
(4.48369e-07 5.75221e-07 0.113103)
(5.06899e-07 5.62838e-07 0.113103)
(1.47191e-06 -1.54876e-06 0.111807)
(-6.35764e-07 -6.68172e-07 0.112599)
(6.00717e-07 5.69801e-07 0.1126)
(-6.80086e-07 -6.52141e-07 0.112599)
(6.0576e-07 5.75628e-07 0.1126)
(-6.93208e-07 5.648e-07 0.113103)
(-6.2419e-07 5.39545e-07 0.113102)
(-7.43119e-07 -3.58824e-07 0.1126)
(1.63889e-07 6.97707e-07 0.112601)
(1.08716e-07 7.20126e-07 0.1126)
(3.38264e-07 -6.57718e-07 0.113103)
(3.87708e-07 -6.21273e-07 0.113103)
(1.57341e-06 1.44548e-06 0.111809)
(5.79239e-07 -6.69506e-07 0.112601)
(-6.5066e-07 6.05315e-07 0.1126)
(6.01949e-07 -6.49468e-07 0.112601)
(-6.65342e-07 6.03238e-07 0.1126)
(-6.94389e-07 -7.27799e-07 0.113103)
(-6.43689e-07 -6.93189e-07 0.113102)
(-1.51026e-06 -6.65519e-05 0.104783)
(1.91425e-06 2.40807e-05 0.0986595)
(2.28999e-07 6.2767e-05 0.105394)
(-7.26385e-07 -2.67767e-05 0.0999943)
(2.17775e-06 6.26772e-05 0.10457)
(-2.66493e-06 -2.66335e-05 0.0987851)
(1.81809e-08 -6.61784e-05 0.10557)
(6.1759e-06 6.34538e-05 0.102862)
(-1.00472e-05 -5.91427e-05 0.100806)
(8.77157e-06 1.89907e-05 0.093372)
(-6.1538e-06 -2.4083e-05 0.0964814)
(1.0591e-05 6.02427e-05 0.100687)
(4.36527e-06 2.2917e-05 0.0963557)
(-5.83115e-06 -6.53675e-05 0.10306)
(2.37803e-06 6.25401e-05 0.104569)
(5.87447e-07 2.4424e-05 0.0998815)
(-2.61252e-06 -2.6492e-05 0.0987848)
(-2.56326e-08 -6.61823e-05 0.105569)
(2.04041e-06 2.38722e-05 0.0986602)
(3.33827e-07 6.25803e-05 0.105394)
(-1.5328e-06 -6.65534e-05 0.104783)
(1.96254e-06 -6.65416e-05 0.104777)
(-1.81838e-06 2.43296e-05 0.0986538)
(3.63177e-08 6.28927e-05 0.105393)
(6.73048e-07 -2.65266e-05 0.0999932)
(-1.74173e-06 6.27297e-05 0.104563)
(2.71338e-06 -2.62958e-05 0.0987801)
(2.41903e-07 -6.60862e-05 0.10557)
(-5.81265e-06 6.36045e-05 0.102858)
(1.00987e-05 -5.89263e-05 0.100805)
(-8.60112e-06 1.95738e-05 0.0933645)
(6.32085e-06 -2.38376e-05 0.0964773)
(-4.17075e-06 2.33098e-05 0.0963498)
(-1.0563e-05 6.06655e-05 0.100682)
(6.08433e-06 -6.53112e-05 0.103058)
(6.0495e-06 -6.53044e-05 0.103058)
(-4.11719e-06 2.32668e-05 0.0963496)
(-1.07081e-05 6.07881e-05 0.100682)
(1.0421e-05 -1.79825e-05 0.0934716)
(-5.90078e-06 6.37551e-05 0.102858)
(6.33104e-06 -2.39038e-05 0.0964777)
(1.0067e-05 -5.88667e-05 0.100806)
(-1.80669e-06 6.25746e-05 0.104563)
(-5.73995e-07 2.46917e-05 0.09988)
(2.72433e-06 -2.62314e-05 0.0987797)
(3.11083e-07 -6.60783e-05 0.105569)
(-1.90809e-06 2.44322e-05 0.0986545)
(-2.71632e-08 6.27451e-05 0.105393)
(2.02048e-06 -6.65629e-05 0.104777)
(2.57172e-05 -2.51601e-05 0.0985232)
(5.70976e-05 -5.68779e-05 0.106195)
(-5.12088e-05 2.79024e-05 0.102797)
(-2.75219e-05 5.13858e-05 0.102798)
(5.24885e-05 -2.85246e-05 0.102942)
(-2.34272e-05 2.38781e-05 0.0984047)
(2.88981e-05 -5.22155e-05 0.102942)
(6.32025e-05 5.72996e-06 0.102856)
(-5.93744e-05 -1.0148e-05 0.100807)
(1.86992e-05 8.97712e-06 0.0933687)
(-2.42559e-05 -6.03154e-06 0.0964791)
(6.00474e-05 1.04717e-05 0.100683)
(2.25252e-05 4.3652e-06 0.0963524)
(-6.5457e-05 -6.05471e-06 0.103056)
(6.2491e-05 1.9316e-06 0.104566)
(2.40383e-05 6.34852e-07 0.0998829)
(-2.67069e-05 -2.5166e-06 0.098782)
(-6.6254e-05 -1.29778e-08 0.105576)
(2.38052e-05 2.07208e-06 0.0986567)
(6.26821e-05 1.97038e-07 0.1054)
(-6.65205e-05 -1.77626e-06 0.104779)
(6.34063e-05 -5.88089e-06 0.10286)
(-5.91686e-05 9.83053e-06 0.100805)
(1.88138e-05 -9.3157e-06 0.0933661)
(-2.43483e-05 5.83905e-06 0.0964814)
(2.26002e-05 -4.53074e-06 0.0963545)
(6.02281e-05 -1.07229e-05 0.100682)
(-6.53676e-05 5.9093e-06 0.103059)
(6.24802e-05 -1.84406e-06 0.104568)
(2.40842e-05 -5.29024e-07 0.0998834)
(-6.62608e-05 2.17987e-07 0.105576)
(-2.67315e-05 2.45136e-06 0.0987839)
(6.26828e-05 -1.61728e-08 0.105401)
(2.36688e-05 -2.02702e-06 0.0986587)
(-6.65856e-05 1.82997e-06 0.104781)
(6.66963e-05 -1.81786e-06 0.104781)
(-2.39671e-05 2.00358e-06 0.0986574)
(-6.28036e-05 -1.88141e-08 0.105402)
(2.70168e-05 -7.17625e-07 0.0999979)
(-6.24993e-05 1.86888e-06 0.104567)
(2.69109e-05 -2.60063e-06 0.0987845)
(6.63403e-05 -1.67832e-07 0.105579)
(-6.30161e-05 5.98533e-06 0.102855)
(5.92989e-05 -9.82899e-06 0.100804)
(-1.87042e-05 9.1358e-06 0.0933745)
(2.44607e-05 -5.99409e-06 0.0964823)
(-5.98933e-05 1.07686e-05 0.100682)
(-2.24339e-05 4.48594e-06 0.0963544)
(6.55746e-05 -5.83865e-06 0.103055)
(6.56009e-05 -5.96576e-06 0.103055)
(-2.24107e-05 4.41645e-06 0.0963538)
(-5.99771e-05 1.08442e-05 0.100682)
(1.8563e-05 -9.75308e-06 0.0934815)
(-6.31379e-05 5.98028e-06 0.102856)
(5.92756e-05 -9.88336e-06 0.100804)
(2.45974e-05 -6.02557e-06 0.0964824)
(-6.23217e-05 1.9077e-06 0.104566)
(-2.423e-05 5.77783e-07 0.0998846)
(2.69517e-05 -2.61176e-06 0.0987842)
(6.64033e-05 -2.42417e-07 0.105577)
(-2.36783e-05 2.05442e-06 0.0986583)
(-6.25943e-05 9.72946e-08 0.105402)
(6.67283e-05 -1.85182e-06 0.10478)
(6.69665e-05 1.89058e-06 0.104796)
(-6.28905e-05 -2.61404e-07 0.105409)
(-2.38569e-05 -1.94026e-06 0.0986617)
(2.72096e-05 7.40919e-07 0.1)
(-6.26603e-05 -1.82344e-06 0.104583)
(6.64471e-05 5.40013e-08 0.105585)
(2.69901e-05 2.64987e-06 0.0987886)
(-6.33451e-05 -6.12086e-06 0.102873)
(5.93922e-05 9.64367e-06 0.100811)
(-1.88103e-05 -9.27611e-06 0.0933642)
(2.44949e-05 6.03109e-06 0.096483)
(-2.2521e-05 -4.54546e-06 0.096355)
(-6.02473e-05 -1.10137e-05 0.10069)
(6.57761e-05 5.80139e-06 0.103072)
(6.57928e-05 5.89231e-06 0.103072)
(-2.25591e-05 -4.49755e-06 0.0963543)
(-6.03545e-05 -1.10404e-05 0.10069)
(1.86569e-05 9.77633e-06 0.0934703)
(-6.34619e-05 -6.0246e-06 0.102873)
(2.46343e-05 6.02451e-06 0.0964828)
(5.93566e-05 9.71733e-06 0.100812)
(-6.25089e-05 -1.96177e-06 0.104582)
(-2.40705e-05 -5.11558e-07 0.0998869)
(6.64539e-05 1.44141e-07 0.105583)
(2.68983e-05 2.69679e-06 0.0987886)
(-6.27318e-05 -2.16683e-07 0.105408)
(-2.37341e-05 -1.97171e-06 0.0986628)
(6.69805e-05 1.88304e-06 0.104796)
(-1.86197e-06 6.63194e-05 0.104783)
(-1.2141e-07 -6.30336e-05 0.105397)
(1.97932e-06 -2.42081e-05 0.0986571)
(-6.4645e-07 2.68159e-05 0.0999952)
(1.77073e-06 -6.29106e-05 0.10457)
(-2.46857e-07 6.58781e-05 0.105573)
(-2.52565e-06 2.64308e-05 0.0987841)
(5.74623e-06 -6.36758e-05 0.102862)
(-1.00593e-05 5.89549e-05 0.100808)
(9.12319e-06 -1.91719e-05 0.0933655)
(-6.01565e-06 2.41344e-05 0.0964804)
(1.05701e-05 -6.06093e-05 0.100686)
(4.45932e-06 -2.29076e-05 0.096353)
(-6.10983e-06 6.52243e-05 0.103062)
(-6.17257e-06 6.52465e-05 0.103063)
(-6.04305e-06 2.41131e-05 0.0964808)
(1.90562e-06 -6.28131e-05 0.104569)
(6.14312e-07 -2.43894e-05 0.0998814)
(-2.20707e-07 6.58319e-05 0.105572)
(-2.56627e-06 2.65595e-05 0.0987835)
(9.97656e-08 -6.29244e-05 0.105397)
(2.10478e-06 -2.41521e-05 0.0986577)
(-1.88614e-06 6.62878e-05 0.104783)
(1.95084e-06 6.61539e-05 0.104773)
(-2.63844e-07 -6.3e-05 0.105391)
(-1.74671e-06 -2.41827e-05 0.0986541)
(8.03868e-07 2.65923e-05 0.0999927)
(-1.7396e-06 -6.28375e-05 0.10456)
(9.24648e-09 6.57436e-05 0.105567)
(2.73256e-06 2.62172e-05 0.0987812)
(-5.60574e-06 -6.36224e-05 0.102854)
(1.02241e-05 5.88648e-05 0.100804)
(-8.64473e-06 -1.93256e-05 0.093366)
(6.42258e-06 2.4047e-05 0.0964792)
(-4.09153e-06 -2.29717e-05 0.0963509)
(-1.03962e-05 -6.06025e-05 0.100681)
(6.19585e-06 6.51502e-05 0.103054)
(6.30898e-06 6.51845e-05 0.103055)
(-4.08752e-06 -2.30068e-05 0.0963507)
(-1.03707e-05 -6.06087e-05 0.100682)
(1.04722e-05 1.82695e-05 0.0934733)
(-5.59345e-06 -6.37481e-05 0.102855)
(6.40235e-06 2.40943e-05 0.0964795)
(1.03783e-05 5.89463e-05 0.100804)
(-1.67801e-06 -6.27432e-05 0.104559)
(-3.75516e-07 -2.44802e-05 0.0998791)
(2.48636e-07 6.56699e-05 0.105565)
(2.93449e-06 2.64693e-05 0.0987809)
(-1.62602e-07 -6.29173e-05 0.105391)
(-1.69044e-06 -2.40907e-05 0.0986545)
(2.16448e-06 6.6134e-05 0.104772)
(2.56577e-05 2.51212e-05 0.0985189)
(5.71845e-05 5.6983e-05 0.106199)
(-2.76376e-05 -5.15326e-05 0.102801)
(-5.12081e-05 -2.78773e-05 0.102797)
(-2.35895e-05 -2.40125e-05 0.0984009)
(2.89018e-05 5.22927e-05 0.102945)
(5.25782e-05 2.85708e-05 0.102942)
(6.11088e-05 6.11182e-05 0.108908)
(-9.16973e-05 5.70027e-05 0.107966)
(5.6946e-05 -9.18046e-05 0.107966)
(-0.000146243 -0.000146306 0.106634)
(9.70787e-06 9.61002e-06 0.106791)
(5.7429e-05 9.22132e-05 0.107918)
(-5.73773e-05 9.24258e-05 0.107918)
(-9.44407e-06 9.65786e-06 0.106792)
(9.23853e-05 5.74429e-05 0.107919)
(9.23737e-05 -5.73638e-05 0.107918)
(-9.21475e-05 5.73012e-05 0.107919)
(-9.22304e-05 -5.72391e-05 0.107918)
(9.6229e-06 -9.46044e-06 0.106791)
(5.72227e-05 -9.22501e-05 0.107919)
(-5.71304e-05 -9.21051e-05 0.107919)
(-9.4523e-06 -9.43822e-06 0.106792)
(0.000146362 0.000146392 0.106633)
(6.9656e-06 6.96441e-06 0.106831)
(5.71261e-05 9.1931e-05 0.107966)
(-5.70837e-05 9.20105e-05 0.107965)
(5.62995e-05 9.01689e-05 0.1081)
(-5.62125e-05 9.05263e-05 0.1081)
(-0.000146259 0.000146392 0.106634)
(-6.63233e-06 6.82776e-06 0.106832)
(9.18528e-05 5.70206e-05 0.107965)
(9.19538e-05 -5.70703e-05 0.107965)
(9.05502e-05 5.64041e-05 0.108101)
(9.04772e-05 -5.6216e-05 0.108101)
(-9.17938e-05 -5.6927e-05 0.107966)
(-9.02368e-05 5.61329e-05 0.108101)
(-9.03063e-05 -5.60567e-05 0.108101)
(0.000146341 -0.000146344 0.106634)
(6.83914e-06 -6.63819e-06 0.106831)
(-5.68197e-05 -9.16698e-05 0.107966)
(5.60846e-05 -9.0341e-05 0.108101)
(-5.59664e-05 -9.01836e-05 0.108101)
(-6.61116e-06 -6.60415e-06 0.106831)
(6.13914e-05 6.14027e-05 0.108832)
(-6.13237e-05 6.13996e-05 0.108832)
(6.13293e-05 -6.13031e-05 0.108832)
(-6.12967e-05 -6.12701e-05 0.108832)
(1.40191e-06 1.07401e-05 0.0940569)
(-1.34442e-06 3.27534e-05 0.0835744)
(2.09313e-06 5.7917e-05 0.094077)
(-3.98192e-06 -5.04644e-06 0.083583)
(-3.78036e-06 1.48969e-05 0.0721581)
(5.40127e-06 -5.68171e-06 0.0721999)
(1.06723e-05 1.3076e-06 0.0940565)
(3.2851e-05 -1.36072e-06 0.0835748)
(5.79815e-05 2.07715e-06 0.0940777)
(-5.06552e-06 -3.97684e-06 0.0835817)
(-6.10281e-05 6.11149e-05 0.108908)
(6.1051e-05 -6.10146e-05 0.108908)
(-6.1007e-05 -6.09785e-05 0.108908)
(6.02396e-05 6.028e-05 0.109132)
(-6.01384e-05 6.02244e-05 0.109132)
(6.01713e-05 -6.01373e-05 0.109132)
(-6.012e-05 -6.00885e-05 0.109132)
(-4.88417e-05 4.05942e-06 0.102492)
(-6.50077e-05 2.65783e-05 0.0957135)
(-0.000101774 2.01454e-05 0.108605)
(-9.12027e-05 5.66969e-05 0.108012)
(-0.000111127 5.68665e-06 0.102464)
(-2.14143e-05 -2.05134e-07 0.0957364)
(-0.000101431 1.99952e-05 0.108671)
(1.47968e-05 -3.75116e-06 0.0721558)
(-5.70617e-06 5.35744e-06 0.0722027)
(3.92819e-06 -4.88828e-05 0.102492)
(2.01001e-05 -0.000101722 0.108605)
(2.65389e-05 -6.50677e-05 0.0957142)
(5.66617e-05 -9.13067e-05 0.108012)
(5.63929e-06 -0.000111166 0.102464)
(1.99568e-05 -0.000101365 0.10867)
(-3.11093e-07 -2.12782e-05 0.0957348)
(-3.18152e-05 -1.75827e-05 0.0893925)
(-1.75217e-05 -3.1898e-05 0.0893909)
(-8.02225e-06 -8.01557e-06 0.106815)
(-1.06953e-05 2.87195e-06 0.0894011)
(3.00004e-06 -1.07791e-05 0.0893985)
(-5.43679e-06 -5.60573e-06 0.0722829)
(3.71023e-06 1.51421e-05 0.0722389)
(-5.56962e-06 -5.43542e-06 0.0722797)
(1.52169e-05 3.76254e-06 0.0722385)
(0.000148059 0.000148115 0.106612)
(-2.66124e-06 1.19417e-05 0.0895339)
(1.1773e-05 -2.70933e-06 0.0895307)
(1.79988e-05 3.29581e-05 0.0895279)
(3.30821e-05 1.79733e-05 0.0895249)
(2.2706e-06 6.06493e-05 0.0942437)
(-4.22006e-06 -4.3339e-06 0.0836992)
(-1.58856e-06 3.38974e-05 0.0836943)
(1.58416e-06 1.28464e-05 0.0942187)
(-2.07334e-06 6.06677e-05 0.0942435)
(4.26247e-06 -4.30914e-06 0.0836966)
(1.69301e-06 3.4015e-05 0.0836941)
(-1.26468e-06 1.28867e-05 0.0942182)
(6.19159e-06 0.00011491 0.102597)
(5.77283e-05 9.28669e-05 0.10787)
(2.41895e-07 2.34953e-05 0.095887)
(2.02881e-05 0.000102117 0.108539)
(2.74473e-05 6.74059e-05 0.0958675)
(2.04321e-05 0.000102518 0.108472)
(4.68359e-06 5.20725e-05 0.102626)
(-6.04062e-06 0.00011493 0.102596)
(-5.76848e-05 9.29426e-05 0.10787)
(-1.2257e-07 2.3354e-05 0.0958841)
(-2.02015e-05 0.000102181 0.108539)
(-2.73928e-05 6.75489e-05 0.0958663)
(-2.03504e-05 0.000102559 0.108472)
(-4.41515e-06 5.20761e-05 0.102625)
(5.53989e-06 -5.52012e-06 0.0722793)
(-3.70107e-06 1.52286e-05 0.0722394)
(-0.000147946 0.000148072 0.106613)
(2.8086e-06 1.18565e-05 0.0895302)
(-1.17669e-05 -2.64358e-06 0.0895337)
(-1.78942e-05 3.31199e-05 0.0895258)
(-3.28784e-05 1.80425e-05 0.0895266)
(5.64873e-06 -5.38488e-06 0.072282)
(-1.51057e-05 3.76639e-06 0.0722375)
(6.06833e-05 2.27019e-06 0.0942444)
(-4.37504e-06 -4.15793e-06 0.0836978)
(3.3951e-05 -1.60191e-06 0.0836945)
(1.28264e-05 1.52906e-06 0.0942182)
(0.000114882 6.20046e-06 0.102596)
(9.27997e-05 5.76239e-05 0.10787)
(2.32628e-05 2.60382e-07 0.0958855)
(0.000102106 2.0298e-05 0.108539)
(6.74874e-05 2.74829e-05 0.0958665)
(0.000102497 2.04433e-05 0.108472)
(5.19912e-05 4.62962e-06 0.102626)
(6.06764e-05 -2.01143e-06 0.0942445)
(-4.30956e-06 4.27573e-06 0.0836986)
(3.39623e-05 1.6706e-06 0.0836929)
(1.28321e-05 -1.37444e-06 0.094218)
(0.000114875 -5.98926e-06 0.102597)
(9.28998e-05 -5.76746e-05 0.10787)
(0.000102085 -2.0178e-05 0.108539)
(2.33496e-05 -1.63784e-07 0.0958862)
(0.000102473 -2.03283e-05 0.108472)
(6.74147e-05 -2.73409e-05 0.0958655)
(5.19683e-05 -4.48814e-06 0.102626)
(-0.000114848 6.16373e-06 0.102596)
(-9.26498e-05 5.76058e-05 0.10787)
(-2.3333e-05 3.42159e-07 0.0958874)
(-0.00010208 2.02956e-05 0.108539)
(-6.73272e-05 2.75574e-05 0.0958668)
(-0.000102446 2.04498e-05 0.108472)
(-5.1979e-05 4.6314e-06 0.102626)
(-6.06354e-05 2.23908e-06 0.0942433)