/*--------------------------------*- C++ -*----------------------------------*\
| =========                 |                                                 |
| \\      /  F ield         | OpenFOAM: The Open Source CFD Toolbox           |
|  \\    /   O peration     | Version:  v1906                                 |
|   \\  /    A nd           | Web:      www.OpenFOAM.com                      |
|    \\/     M anipulation  |                                                 |
\*---------------------------------------------------------------------------*/
FoamFile
{
    version     2.0;
    format      ascii;
    class       volScalarField;
    location    "375";
    object      nut;
}
// * * * * * * * * * * * * * * * * * * * * * * * * * * * * * * * * * * * * * //

dimensions      [0 2 -1 0 0 0 0];


internalField   nonuniform List<scalar> 
43024
(
0.000210537
0.000202746
0.000202718
0.000183405
0.000210167
0.000202436
0.000202421
0.000183169
0.000214486
0.000205239
0.000205234
0.000185127
0.000215838
0.000205494
0.000205471
0.000184991
0.000218445
0.000207252
0.000207254
0.00018694
0.00021718
0.000205085
0.000205061
0.000183179
0.000225641
0.000213732
0.000213743
0.000193535
0.000225601
0.00020642
0.00020642
0.000184232
0.000208227
0.000191648
0.000191602
0.000169653
0.000242611
0.00023414
0.000234145
0.000209979
0.000282607
0.000257054
0.000257088
0.000220565
0.000215473
0.000182833
0.000182815
0.000161865
0.000165702
0.000157871
0.000157855
0.000145546
0.000204413
0.000215165
0.000215162
0.000192855
0.000297639
0.000263974
0.000263956
0.000229786
0.000340242
0.000278109
0.000278086
0.000231807
0.000270294
0.000221414
0.000221411
0.000192647
0.00021055
0.000192464
0.000192458
0.000171949
0.000194676
0.000188012
0.000188002
0.000169639
0.000206769
0.00019779
0.000197777
0.000176994
0.00022582
0.000204358
0.000204352
0.000183572
0.00018346
0.000202592
0.00020261
0.00018349
0.000202606
0.000202582
0.000202645
0.000202627
0.000183462
0.000202624
0.00020264
0.000183488
0.000183366
0.000183071
0.000202676
0.000202706
0.000202386
0.000202427
0.000183402
0.000183085
0.00020269
0.000202668
0.000202399
0.00020238
0.000202733
0.000202472
0.000202465
0.000183371
0.00018307
0.000202745
0.000202438
0.000202475
0.000183086
0.000183194
0.000185163
0.000202392
0.000202399
0.00020485
0.000204821
0.000183177
0.000185146
0.000202405
0.000202381
0.000204868
0.000204834
0.000202421
0.000204839
0.000204809
0.000183184
0.000185151
0.000202435
0.000204852
0.000204828
0.000185132
0.000185139
0.0001849
0.000205218
0.000205212
0.00020529
0.000205314
0.000185136
0.00018494
0.000205236
0.000205204
0.000205307
0.00020528
0.000205214
0.000205352
0.00020533
0.000185131
0.000184902
0.000205231
0.000205327
0.000205346
0.000184938
0.000184969
0.000187125
0.000205429
0.000205452
0.000207021
0.000207012
0.000184998
0.000187114
0.000205445
0.000205423
0.000207035
0.000207013
0.000205472
0.00020704
0.000207023
0.000184971
0.000187129
0.000205489
0.000207042
0.000207038
0.000187113
0.000186943
0.000183851
0.000207236
0.000207226
0.000205792
0.000205791
0.000186935
0.000183863
0.000207249
0.000207225
0.000205807
0.00020576
0.000207238
0.000205816
0.000205796
0.000186946
0.000183824
0.000207252
0.000205797
0.000205812
0.00018386
0.000183176
0.000192477
0.00020506
0.000205059
0.00021184
0.000211834
0.000183188
0.00019248
0.000205075
0.000205024
0.000211861
0.000211842
0.00020506
0.00021187
0.000211836
0.000183143
0.00019249
0.000205076
0.000211872
0.000211854
0.000192458
0.000193543
0.000188033
0.000213701
0.000213696
0.000213759
0.000213765
0.000193547
0.000188046
0.000213724
0.000213712
0.00021378
0.000213765
0.000213706
0.000213798
0.000213815
0.000193563
0.000188049
0.000213725
0.000213821
0.00021384
0.000188092
0.000184181
0.00016963
0.000206378
0.000206384
0.00019435
0.000194358
0.000184194
0.000169657
0.000206395
0.000206365
0.000194359
0.000194315
0.000206419
0.000194396
0.000194364
0.000184187
0.000169607
0.00020644
0.000194359
0.000194377
0.000169624
0.000169678
0.000205319
0.000191597
0.000191607
0.000223896
0.000223892
0.000169713
0.000205322
0.000191604
0.000191561
0.000223909
0.000223884
0.000191605
0.00022392
0.000223888
0.000169653
0.000205313
0.000191616
0.000223905
0.000223899
0.000205311
0.000209995
0.000227206
0.000234133
0.000234119
0.000256114
0.00025608
0.000209991
0.000227165
0.000234151
0.000234126
0.000256137
0.000256109
0.000234125
0.000256098
0.000256091
0.00020999
0.000227202
0.00023414
0.000256128
0.000256108
0.000227177
0.000220585
0.000167978
0.000257067
0.000257027
0.000197572
0.000197573
0.000220547
0.000168006
0.000257097
0.000257061
0.000197602
0.000197563
0.000257041
0.000197634
0.000197587
0.000220583
0.000167989
0.000257065
0.000197623
0.000197618
0.000167996
0.000161834
0.00014417
0.00018276
0.00018277
0.000161964
0.000161982
0.000161866
0.000144201
0.000182785
0.000182752
0.000161985
0.000161959
0.000182784
0.000162031
0.000161997
0.000161845
0.000144178
0.000182813
0.000162012
0.000162024
0.000144191
0.000145526
0.000185878
0.00015781
0.000157826
0.000196634
0.000196629
0.000145546
0.000185875
0.000157827
0.000157806
0.000196633
0.000196625
0.000157842
0.000196627
0.000196633
0.000145531
0.00018587
0.000157866
0.000196629
0.000196634
0.000185877
0.000192872
0.000226886
0.000215174
0.000215166
0.000256316
0.000256304
0.00019287
0.000226888
0.000215177
0.00021516
0.00025633
0.000256291
0.000215167
0.000256333
0.000256301
0.000192862
0.000226871
0.00021517
0.000256318
0.000256312
0.00022687
0.000229807
0.000237892
0.000263956
0.000263944
0.000281405
0.000281395
0.000229809
0.000237903
0.000263972
0.000263929
0.000281426
0.000281375
0.000263942
0.000281439
0.000281394
0.000229792
0.000237882
0.000263954
0.000281415
0.000281409
0.000237883
0.000231803
0.000198164
0.000278044
0.00027804
0.000233706
0.000233703
0.000231814
0.00019818
0.000278081
0.000278017
0.000233741
0.000233695
0.000278051
0.000233768
0.000233727
0.000231797
0.000198171
0.000278081
0.000233763
0.000233763
0.000198177
0.000192626
0.000173466
0.000221352
0.000221348
0.000196614
0.000196608
0.00019264
0.000173475
0.000221383
0.000221344
0.000196635
0.000196606
0.000221371
0.000196655
0.000196623
0.000192633
0.000173469
0.000221406
0.00019665
0.000196649
0.000173472
0.000171944
0.000169251
0.000192426
0.00019242
0.000188131
0.000188127
0.000171953
0.000169258
0.000192444
0.000192416
0.000188144
0.000188117
0.000192432
0.000188161
0.000188134
0.000171945
0.000169246
0.000192455
0.00018815
0.00018815
0.00016925
0.000169639
0.000176064
0.000187982
0.000187979
0.000195146
0.00019515
0.000169646
0.000176078
0.000187994
0.000187968
0.000195161
0.000195135
0.000187986
0.000195181
0.000195154
0.000169634
0.000176062
0.000188001
0.000195166
0.000195166
0.000176068
0.00017699
0.000181455
0.000197756
0.00019776
0.000204744
0.000204745
0.000177004
0.000181463
0.00019777
0.000197748
0.000204758
0.00020474
0.000197766
0.000204773
0.000204753
0.000176989
0.000181455
0.000197779
0.000204767
0.000204769
0.000181461
0.000183566
0.000204332
0.000204333
0.000183573
0.000204345
0.000204327
0.000225829
0.000225821
0.000225829
0.00020434
0.000183566
0.000204355
0.000100078
5.07525e-05
2.38956e-05
0.000100082
5.07497e-05
0.000209851
0.000209853
0.00020985
0.000209854
0.000144696
0.000201651
0.000103935
0.000211049
2.38932e-05
0.000144689
0.000201655
0.00021106
0.000103932
0.000182956
7.81014e-05
7.81001e-05
9.98931e-05
5.07549e-05
9.99901e-05
5.07695e-05
2.38987e-05
2.39061e-05
9.98999e-05
5.07519e-05
0.0001
5.0766e-05
0.000210585
0.000210555
0.000210603
0.000210349
0.000210453
0.00021039
0.000210493
0.000144643
0.000103741
0.000213103
0.000202734
0.00014481
0.00010365
0.000213144
2.38967e-05
2.39042e-05
0.00014463
0.000213084
0.000103741
0.000202703
0.000144797
0.000213116
0.000103648
7.78957e-05
7.78949e-05
0.000183332
7.78442e-05
7.78429e-05
0.000100319
5.07944e-05
0.000100072
5.07979e-05
2.39139e-05
2.39152e-05
0.000100328
5.07912e-05
0.000100082
5.0795e-05
0.000210238
0.000210196
0.000210273
0.000213206
0.000213111
0.000213173
0.000213091
0.000145303
0.000103974
0.000212619
0.000203008
0.000144595
0.000104242
0.000212864
2.39115e-05
2.39128e-05
0.000145301
0.0002126
0.000103978
0.000203046
0.000144598
0.000212881
0.000104246
7.81704e-05
7.81688e-05
0.000184122
7.82581e-05
7.82561e-05
0.000100117
5.07927e-05
0.000100303
5.08019e-05
2.39154e-05
2.39222e-05
0.00010012
5.07898e-05
0.000100308
5.07986e-05
0.00021443
0.000214466
0.000214418
0.000215839
0.000215876
0.000215849
0.000215878
0.000145514
0.000104107
0.000216185
0.000205376
0.000145698
0.000103928
0.000216617
2.3913e-05
2.39201e-05
0.0001455
0.000216194
0.000104106
0.000205361
0.000145687
0.000216613
0.000103924
7.80159e-05
7.80155e-05
0.000185209
7.79115e-05
7.79115e-05
0.000100529
5.08333e-05
0.000100166
5.0836e-05
2.39326e-05
2.39323e-05
0.000100542
5.083e-05
0.000100177
5.08328e-05
0.000215888
0.000215859
0.000215903
0.000217857
0.000217873
0.000217872
0.000217894
0.000145963
0.000104167
0.00021664
0.000206143
0.000145221
0.000104596
0.000216993
2.39304e-05
2.39301e-05
0.000145954
0.000216625
0.000104167
0.00020613
0.000145212
0.000216982
0.000104602
7.82936e-05
7.82924e-05
0.000185999
7.8501e-05
7.8499e-05
9.97241e-05
5.07979e-05
0.000100466
5.07991e-05
2.39219e-05
2.39306e-05
9.97138e-05
5.07948e-05
0.000100461
5.0796e-05
0.000218445
0.000218447
0.000218458
0.000217907
0.000217898
0.000217889
0.000217903
0.000145392
0.000104354
0.000218661
0.000206867
0.000146617
0.000103488
0.000218724
2.39195e-05
2.39284e-05
0.000145386
0.000218662
0.000104359
0.000206861
0.000146612
0.000218724
0.000103483
7.79728e-05
7.79714e-05
0.000185617
7.7437e-05
7.74362e-05
0.000101175
5.09222e-05
9.9277e-05
5.0978e-05
2.39715e-05
2.39817e-05
0.00010119
5.09193e-05
9.92859e-05
5.09752e-05
0.000217165
0.000217156
0.000217161
0.000223275
0.000223271
0.000223278
0.000223266
0.000146268
0.000103022
0.000217449
0.000205613
0.000143591
0.000105299
0.000217321
2.39697e-05
2.39799e-05
0.000146251
0.000217439
0.00010301
0.000205588
0.000143576
0.00021731
0.000105295
7.78701e-05
7.78698e-05
0.000185874
7.92563e-05
7.92562e-05
0.000101939
5.0855e-05
0.000103332
5.06707e-05
2.39271e-05
2.38802e-05
0.000101935
5.08517e-05
0.000103355
5.06672e-05
0.000225645
0.000225657
0.000225652
0.000229704
0.000229711
0.000229731
0.00022974
0.000152851
0.00010789
0.000225175
0.000216066
0.00015158
0.000106582
0.000227247
2.39248e-05
2.38781e-05
0.000152876
0.000225184
0.000107903
0.000216084
0.000151583
0.000227262
0.000106601
8.05805e-05
8.05819e-05
0.00019726
7.8454e-05
7.84539e-05
9.40682e-05
5.05789e-05
9.58824e-05
5.07771e-05
2.38871e-05
2.39646e-05
9.40525e-05
5.05753e-05
9.58686e-05
5.07737e-05
0.000225617
0.000225619
0.00022565
0.000212453
0.000212475
0.000212439
0.000212472
0.000135629
9.98113e-05
0.000221405
0.000201157
0.000140677
9.75901e-05
0.000215426
2.38848e-05
2.39627e-05
0.00013561
0.000221415
9.98013e-05
0.000201137
0.000140673
0.000215416
9.75694e-05
7.46703e-05
7.46678e-05
0.000176324
7.36112e-05
7.36078e-05
0.000104289
5.12942e-05
9.90324e-05
5.14854e-05
2.41075e-05
2.41436e-05
0.000104289
5.12911e-05
9.90338e-05
5.14822e-05
0.000208251
0.00020821
0.000208245
0.000226936
0.00022694
0.000226928
0.000226924
0.000149521
0.000101842
0.000204418
0.000195554
0.000138544
0.000107679
0.000205177
2.41055e-05
2.41419e-05
0.000149503
0.000204381
0.000101819
0.000195497
0.000138507
0.000205135
0.000107665
7.78474e-05
7.7846e-05
0.000182832
8.11436e-05
8.11416e-05
0.000111319
5.1354e-05
0.000110389
5.0963e-05
2.40602e-05
2.39346e-05
0.000111325
5.13508e-05
0.000110397
5.09599e-05
0.000242606
0.000242614
0.000242602
0.000274235
0.000274196
0.000274238
0.000274208
0.000171552
0.000115061
0.000246596
0.000241393
0.000165308
0.000117514
0.000255697
2.40584e-05
2.39329e-05
0.000171569
0.000246603
0.000115066
0.00024141
0.000165316
0.000255715
0.000117523
8.48263e-05
8.48231e-05
0.000221274
8.4708e-05
8.47038e-05
9.37069e-05
5.0278e-05
0.000100234
5.00863e-05
2.37501e-05
2.37182e-05
9.37046e-05
5.02746e-05
0.000100237
5.00829e-05
0.000282566
0.000282612
0.000282579
0.000239766
0.00023977
0.000239774
0.000239776
0.000141131
0.000106705
0.000278038
0.000240483
0.000156234
9.90921e-05
0.000267864
2.3748e-05
2.37162e-05
0.000141121
0.000278068
0.000106709
0.000240507
0.000156235
0.000267883
9.90861e-05
7.77358e-05
7.77354e-05
0.000199646
7.36952e-05
7.36965e-05
8.74815e-05
5.01844e-05
8.80025e-05
5.04668e-05
2.37873e-05
2.38958e-05
8.74806e-05
5.01811e-05
8.80014e-05
5.04635e-05
0.000215483
0.000215474
0.000215489
0.000173797
0.00017383
0.000173811
0.000173841
0.000119528
9.13052e-05
0.000198683
0.000173385
0.000123538
8.97485e-05
0.000185874
2.3785e-05
2.3894e-05
0.000119527
0.000198674
9.12939e-05
0.000173365
0.000123531
0.000185865
8.97345e-05
7.02462e-05
7.02492e-05
0.000151128
7.00621e-05
7.00634e-05
9.80905e-05
5.10788e-05
9.33167e-05
5.14387e-05
2.4088e-05
2.41976e-05
9.80883e-05
5.10751e-05
9.33177e-05
5.1435e-05
0.000165731
0.000165714
0.000165744
0.000174821
0.000174814
0.000174828
0.000174832
0.000136633
9.51283e-05
0.00016472
0.000159994
0.000127003
0.00010036
0.000163205
2.40858e-05
2.41957e-05
0.000136632
0.000164716
9.51243e-05
0.000159991
0.000127006
0.000163208
0.000100355
7.36736e-05
7.3673e-05
0.000158617
7.65951e-05
7.65924e-05
0.000109522
5.1854e-05
0.000105857
5.19384e-05
2.43042e-05
2.43177e-05
0.000109517
5.18501e-05
0.000105857
5.19346e-05
0.000204408
0.000204419
0.000204416
0.000281085
0.000281073
0.000281067
0.000281061
0.00016353
0.000109353
0.000222938
0.00023173
0.000154446
0.000113844
0.000244314
2.43022e-05
2.43157e-05
0.000163518
0.000222939
0.000109348
0.000231721
0.000154438
0.000244309
0.000113835
8.14608e-05
8.14567e-05
0.000210119
8.38835e-05
8.38786e-05
0.000111224
5.17395e-05
0.000112343
5.14529e-05
2.42255e-05
2.41336e-05
0.000111218
5.17361e-05
0.000112346
5.14499e-05
0.000297637
0.000297626
0.000297622
0.000333003
0.000332997
0.000332976
0.000332977
0.000174931
0.000117908
0.000287934
0.0002709
0.000172631
0.000118072
0.000298026
2.42235e-05
2.41317e-05
0.000174917
0.000287915
0.000117897
0.000270879
0.000172615
0.000298004
0.000118064
8.59387e-05
8.59346e-05
0.000237731
8.5151e-05
8.5149e-05
0.000101597
5.09238e-05
0.000105268
5.06914e-05
2.39613e-05
2.38995e-05
0.000101597
5.09208e-05
0.000105275
5.06882e-05
0.000340244
0.000340222
0.000340227
0.000291952
0.000291967
0.000291959
0.00029198
0.000155678
0.000111694
0.000313186
0.000263104
0.0001643
0.000107169
0.00029856
2.39593e-05
2.38976e-05
0.000155674
0.000313164
0.000111691
0.000263088
0.000164293
0.000298548
0.000107165
8.14907e-05
8.14911e-05
0.000218794
7.8987e-05
7.89887e-05
9.50513e-05
5.04587e-05
9.67085e-05
5.0427e-05
2.38346e-05
2.38324e-05
9.50527e-05
5.04553e-05
9.67148e-05
5.04234e-05
0.000270299
0.000270297
0.000270317
0.000220782
0.000220789
0.000220794
0.000220805
0.00013809
0.000101336
0.000244561
0.000210992
0.000142932
9.88955e-05
0.000230529
2.38327e-05
2.38305e-05
0.000138091
0.000244568
0.000101333
0.00021099
0.000142932
0.000230537
9.88929e-05
7.60558e-05
7.60569e-05
0.000182744
7.48211e-05
7.4822e-05
9.40273e-05
5.04617e-05
9.39321e-05
5.05357e-05
2.38501e-05
2.3881e-05
9.40247e-05
5.04586e-05
9.39309e-05
5.05326e-05
0.000210552
0.000210555
0.000210564
0.000195814
0.00019582
0.000195818
0.000195825
0.00013349
9.73721e-05
0.00020509
0.000189815
0.000134
9.72637e-05
0.00020127
2.3848e-05
2.38789e-05
0.000133487
0.000205094
9.73642e-05
0.000189807
0.000133997
0.000201271
9.72554e-05
7.42493e-05
7.42488e-05
0.000169794
7.42446e-05
7.42437e-05
9.57164e-05
5.06444e-05
9.49949e-05
5.07193e-05
2.39186e-05
2.3947e-05
9.57141e-05
5.06415e-05
9.49935e-05
5.07163e-05
0.000194682
0.000194679
0.000194686
0.000199664
0.000199677
0.000199664
0.000199671
0.000136296
9.82527e-05
0.000198322
0.000188885
0.000134979
9.89187e-05
0.00019874
2.39166e-05
2.3945e-05
0.00013629
0.000198319
9.82452e-05
0.000188871
0.000134974
0.000198735
9.89097e-05
7.48774e-05
7.48766e-05
0.00017198
7.51651e-05
7.51643e-05
9.66905e-05
5.07721e-05
9.6401e-05
5.0837e-05
2.39655e-05
2.39945e-05
9.66942e-05
5.07686e-05
9.64014e-05
5.08342e-05
0.000206785
0.000206772
0.000206779
0.000220668
0.000220678
0.000220671
0.000220679
0.000139201
9.99144e-05
0.000210318
0.000200154
0.000138496
0.000100052
0.000212993
2.39635e-05
2.39927e-05
0.000139194
0.000210312
9.99048e-05
0.000200142
0.000138487
0.000212986
0.000100044
7.56087e-05
7.56083e-05
0.00017894
7.55636e-05
7.55647e-05
0.000104927
5.49192e-05
9.7272e-05
8.65218e-05
2.6997e-05
4.57258e-05
0.000104928
5.49154e-05
9.72727e-05
8.65205e-05
0.000237045
0.000230659
0.000230661
0.000227151
0.000229213
0.000236585
0.000236583
0.000143845
0.000102184
0.000222486
0.000205058
0.000140467
0.000105476
0.000222518
2.69955e-05
4.57251e-05
0.000143839
0.000222483
0.000102178
0.000205052
0.000140463
0.000222517
0.000105472
7.58124e-05
7.58095e-05
0.000188008
8.34345e-05
8.34411e-05
2.38961e-05
2.38948e-05
0.000182969
7.80983e-05
7.80935e-05
2.38987e-05
2.38959e-05
2.38974e-05
2.38946e-05
0.000183078
7.79239e-05
7.79211e-05
7.80504e-05
7.80462e-05
0.000100082
5.07536e-05
0.000144688
0.000201662
0.00010393
0.000211094
0.000144691
0.000201634
0.000103932
0.00021108
0.000100078
5.07534e-05
5.07521e-05
0.000100065
0.000100083
5.0754e-05
5.07533e-05
0.000100072
0.00014471
0.000202279
0.000103818
0.000212731
0.000103921
0.000212055
0.000144818
0.000144715
0.000202277
0.000103833
0.000212738
0.000103925
0.000212051
0.000144825
0.000182969
7.80996e-05
7.80942e-05
2.38961e-05
2.3898e-05
2.38954e-05
0.000183094
7.79289e-05
7.79231e-05
7.80572e-05
7.80481e-05
2.38985e-05
2.38958e-05
0.000144689
0.000201676
0.000103923
0.000211104
0.000100078
5.07453e-05
0.000144686
0.000201644
0.000211099
0.00010391
0.000100086
5.07505e-05
5.07495e-05
0.000100071
0.000144711
0.000202293
0.000103812
0.000212726
0.000103911
0.00021206
0.000144816
0.000100083
5.07462e-05
5.07449e-05
0.000100066
0.000144707
0.000202265
0.000212723
0.000103792
0.000212054
0.000103898
0.000144811
0.000100087
5.07528e-05
0.000144693
0.000201616
0.00021104
0.000103934
0.000100085
5.07495e-05
0.000144724
0.000202304
0.000103832
0.000212754
0.000103927
0.000212042
0.000144844
0.000100089
5.07532e-05
5.07525e-05
0.000100083
0.000144723
0.000202278
0.000212752
0.000103841
0.000212037
0.000103929
0.000144842
0.000100087
5.07498e-05
5.07492e-05
0.000100081
0.00018296
7.80751e-05
7.81003e-05
2.38953e-05
2.38959e-05
2.3893e-05
0.000183076
7.79038e-05
7.79279e-05
7.80237e-05
7.80562e-05
2.38978e-05
2.38951e-05
0.000144693
0.000201633
0.00021105
0.000103932
0.000100084
5.07491e-05
0.000100089
5.07495e-05
0.000144715
0.000202294
0.000212745
0.000103833
0.000212045
0.000103925
0.000144835
0.00014472
0.000202292
0.000212748
0.000103837
0.00021204
0.000103926
0.000144837
0.000100083
5.07496e-05
5.07488e-05
0.000100073
0.00010009
5.07499e-05
5.07491e-05
0.000100079
2.38951e-05
2.38947e-05
0.000183088
7.79328e-05
7.79318e-05
7.80618e-05
7.80608e-05
2.38974e-05
2.38949e-05
2.38971e-05
2.38944e-05
2.38995e-05
2.3907e-05
2.38982e-05
2.39056e-05
7.78899e-05
7.7887e-05
0.00018327
7.78458e-05
7.78431e-05
2.39144e-05
2.39083e-05
2.39131e-05
2.3907e-05
0.000183029
7.81363e-05
7.81314e-05
7.78925e-05
7.78884e-05
9.98971e-05
5.07552e-05
9.99965e-05
5.07689e-05
0.00014462
0.00010373
0.000213049
0.000202657
0.00014478
0.000103642
0.000213067
0.000144625
0.00010374
0.000213065
0.000202692
0.000144787
0.000103646
0.000213091
9.9854e-05
5.07921e-05
5.07741e-05
0.000100015
9.9858e-05
5.07922e-05
5.07735e-05
0.000100014
0.000144511
0.000202558
0.000103914
0.000212702
0.0001036
0.000212914
0.000144532
0.000144516
0.000202599
0.000103894
0.000212726
0.000103601
0.00021294
0.00014453
7.78921e-05
7.78867e-05
0.00018332
7.78421e-05
7.78428e-05
2.38992e-05
2.39066e-05
2.39137e-05
2.39074e-05
0.000183086
7.81235e-05
7.81213e-05
7.78767e-05
7.78755e-05
2.39142e-05
2.39079e-05
0.000144619
0.000103723
0.000213038
0.000202671
0.000144778
0.000103636
0.000213051
9.98955e-05
5.07477e-05
9.99947e-05
5.07623e-05
0.000144614
0.000213036
0.000103707
0.00020265
0.000144773
0.00021305
0.000103623
9.98639e-05
5.07889e-05
5.07706e-05
0.000100022
0.000144512
0.000202571
0.000103905
0.000212685
0.000103593
0.000212899
0.000144536
9.98599e-05
5.0785e-05
5.07669e-05
0.00010002
0.000144507
0.000202552
0.000212685
0.000103896
0.000212897
0.00010358
0.000144535
9.98995e-05
5.07543e-05
0.000100006
5.07679e-05
0.000144641
0.000213104
0.000103747
0.000202722
0.000144808
0.000213148
0.000103651
9.98971e-05
5.07508e-05
0.000100004
5.07643e-05
0.000144529
0.000202643
0.000103893
0.000212782
0.000103604
0.000212997
0.000144515
9.98599e-05
5.07913e-05
5.07724e-05
9.99985e-05
0.000144527
0.000202634
0.000212786
0.000103886
0.000213002
0.000103605
0.000144511
9.98575e-05
5.07878e-05
5.07688e-05
9.99957e-05
7.78698e-05
7.78921e-05
0.000183281
7.78342e-05
7.78437e-05
2.38985e-05
2.39059e-05
2.39115e-05
2.39055e-05
0.000183042
7.81199e-05
7.81299e-05
7.78774e-05
7.78828e-05
2.39135e-05
2.39072e-05
0.000144635
0.000213094
0.000103743
0.000202734
0.000144801
0.000213132
0.00010365
9.98908e-05
5.07508e-05
9.99914e-05
5.07645e-05
9.98976e-05
5.07512e-05
0.0001
5.07649e-05
0.000144518
0.000202609
0.000212753
0.000103899
0.000212967
0.000103603
0.000144514
0.000144524
0.000202645
0.000212771
0.000103889
0.000212985
0.000103604
0.000144517
9.98496e-05
5.07878e-05
5.07691e-05
9.99986e-05
9.9858e-05
5.07881e-05
5.07695e-05
0.000100003
2.38982e-05
2.39054e-05
2.38978e-05
2.3905e-05
0.0001831
7.8121e-05
7.81199e-05
7.78737e-05
7.78739e-05
2.39132e-05
2.39068e-05
2.39128e-05
2.39064e-05
2.39145e-05
2.39157e-05
2.39132e-05
2.39144e-05
7.81841e-05
7.81787e-05
0.000184192
7.82667e-05
7.82612e-05
2.39156e-05
2.39151e-05
2.39143e-05
2.39138e-05
0.000184552
7.80788e-05
7.80759e-05
7.82672e-05
7.82615e-05
0.000100322
5.07947e-05
0.000100072
5.07988e-05
0.000145318
0.000103994
0.000212566
0.000203071
0.000144621
0.000104251
0.000212907
0.000145317
0.000103973
0.000212579
0.000202999
0.000144617
0.000104243
0.000212887
0.000100337
5.07932e-05
5.07971e-05
0.000100388
0.00010034
5.07943e-05
5.07981e-05
0.000100393
0.00014541
0.00020413
0.000104232
0.000215389
0.000104261
0.000214191
0.00014569
0.000145411
0.00020407
0.000104243
0.000215368
0.000104255
0.000214153
0.000145694
7.81715e-05
7.81691e-05
0.000184143
7.82579e-05
7.8254e-05
2.39143e-05
2.39157e-05
2.39152e-05
2.39146e-05
0.000184513
7.8086e-05
7.80797e-05
7.82603e-05
7.82527e-05
2.39157e-05
2.39151e-05
0.000145326
0.000103984
0.000212557
0.000203087
0.000144627
0.000104243
0.00021292
0.000100325
5.07872e-05
0.000100081
5.07906e-05
0.000145323
0.000212555
0.000103976
0.000203049
0.000144626
0.000212915
0.00010423
0.000100346
5.07904e-05
5.07943e-05
0.000100391
0.000145417
0.000204148
0.000104224
0.000215406
0.000104251
0.000214218
0.000145691
0.000100343
5.0786e-05
5.07898e-05
0.000100387
0.000145414
0.00020411
0.000215399
0.000104205
0.000214209
0.000104238
0.000145686
0.00010032
5.07938e-05
0.00010006
5.0798e-05
0.0001453
0.000212621
0.000103966
0.000202974
0.000144592
0.000212861
0.000104241
0.000100317
5.07903e-05
0.000100057
5.07946e-05
0.000145402
0.000204079
0.000104238
0.000215326
0.000104253
0.000214081
0.0001457
0.00010034
5.07937e-05
5.07974e-05
0.000100399
0.0001454
0.000204044
0.000215319
0.000104246
0.000214071
0.000104253
0.000145698
0.000100338
5.07902e-05
5.0794e-05
0.000100397
7.8166e-05
7.81786e-05
0.00018417
7.82471e-05
7.82636e-05
2.39136e-05
2.39149e-05
2.39128e-05
2.39121e-05
0.000184534
7.80566e-05
7.80826e-05
7.82425e-05
7.82653e-05
2.39148e-05
2.39143e-05
0.000145302
0.000212613
0.000103967
0.000202995
0.000144601
0.000212873
0.000104239
0.000100311
5.07902e-05
0.000100056
5.07944e-05
0.000100316
5.07905e-05
0.000100063
5.07947e-05
0.000145399
0.000204112
0.000215352
0.000104241
0.000214126
0.000104257
0.000145693
0.0001454
0.000204065
0.000215336
0.000104242
0.0002141
0.00010425
0.000145694
0.00010033
5.07899e-05
5.07937e-05
0.000100387
0.000100337
5.07905e-05
5.07941e-05
0.000100393
2.39133e-05
2.39147e-05
2.39129e-05
2.39143e-05
0.000184494
7.80887e-05
7.8088e-05
7.82611e-05
7.82595e-05
2.39146e-05
2.39141e-05
2.39142e-05
2.39137e-05
2.39159e-05
2.39229e-05
2.39146e-05
2.39216e-05
7.80066e-05
7.80039e-05
0.000185174
7.79018e-05
7.79001e-05
2.39332e-05
2.39245e-05
2.39318e-05
2.39232e-05
0.000184978
7.82021e-05
7.81973e-05
7.78648e-05
7.78628e-05
0.000100122
5.07936e-05
0.000100309
5.0802e-05
0.000145483
0.000104096
0.000216205
0.000205336
0.000145683
0.000103914
0.000216604
0.00014549
0.000104107
0.000216197
0.000205344
0.000145688
0.000103924
0.000216607
0.000100064
5.08296e-05
5.0807e-05
0.000100068
0.000100068
5.08294e-05
5.08068e-05
0.00010007
0.000145324
0.000205342
0.000104032
0.000216597
0.000103855
0.000216684
0.000145166
0.00014533
0.000205358
0.000104024
0.000216611
0.000103865
0.000216695
0.000145171
7.80133e-05
7.80085e-05
0.00018521
7.79101e-05
7.79084e-05
2.39159e-05
2.39227e-05
2.39324e-05
2.39238e-05
0.00018502
7.8194e-05
7.81909e-05
7.78704e-05
7.78681e-05
2.39329e-05
2.39243e-05
0.000145478
0.000104088
0.000216213
0.000205353
0.000145683
0.000103909
0.000216604
0.000100115
5.07855e-05
0.000100302
5.07947e-05
0.000145473
0.000216207
0.000104071
0.000205323
0.000145678
0.000216599
0.000103892
0.000100068
5.08263e-05
5.08036e-05
0.000100076
0.000145319
0.00020536
0.000104027
0.000216592
0.000103849
0.000216681
0.000145162
0.000100064
5.08226e-05
5.07998e-05
0.000100073
0.000145314
0.000205331
0.000216589
0.000104018
0.000216677
0.000103832
0.000145158
0.000100132
5.0793e-05
0.000100321
5.08013e-05
0.000145512
0.00021618
0.000104112
0.000205353
0.000145696
0.000216613
0.000103928
0.00010013
5.07895e-05
0.000100319
5.07976e-05
0.000145354
0.000205392
0.000104032
0.000216641
0.00010387
0.000216718
0.000145193
0.000100078
5.08283e-05
5.0806e-05
0.000100071
0.000145351
0.00020537
0.000216639
0.00010402
0.000216716
0.00010387
0.000145189
0.000100076
5.08247e-05
5.08023e-05
0.000100067
7.79852e-05
7.80097e-05
0.000185175
7.78844e-05
7.7905e-05
2.3915e-05
2.39219e-05
2.39304e-05
2.39217e-05
0.00018498
7.81859e-05
7.81981e-05
7.78461e-05
7.78668e-05
2.39322e-05
2.39235e-05
0.000145505
0.000216187
0.000104109
0.00020537
0.00014569
0.000216614
0.00010393
0.000100121
5.07893e-05
0.000100304
5.07976e-05
0.000100126
5.07899e-05
0.00010031
5.07982e-05
0.000145344
0.000205373
0.000216626
0.000104029
0.000216707
0.000103865
0.000145184
0.000145349
0.000205387
0.000216635
0.000104023
0.000216713
0.000103872
0.000145189
0.000100066
5.08249e-05
5.08025e-05
0.000100063
0.000100071
5.0825e-05
5.08029e-05
0.000100066
2.39148e-05
2.39216e-05
2.39144e-05
2.39212e-05
0.000185021
7.819e-05
7.81893e-05
7.78718e-05
7.7872e-05
2.39318e-05
2.39231e-05
2.39314e-05
2.39227e-05
2.39334e-05
2.39329e-05
2.3932e-05
2.39316e-05
7.83066e-05
7.83009e-05
0.000186008
7.85122e-05
7.85059e-05
2.39236e-05
2.39302e-05
2.39223e-05
2.39289e-05
0.000186321
7.821e-05
7.82062e-05
7.85606e-05
7.85537e-05
0.000100531
5.08332e-05
0.000100167
5.08363e-05
0.000145974
0.000104174
0.000216592
0.000206094
0.000145204
0.000104609
0.000216949
0.000145974
0.000104163
0.000216606
0.000206102
0.000145206
0.000104598
0.000216958
0.000100579
5.0805e-05
5.08315e-05
0.000100724
0.000100581
5.0806e-05
5.08321e-05
0.000100726
0.000146128
0.000206642
0.000104735
0.000218328
0.000104669
0.000217764
0.000146665
0.000146128
0.000206638
0.000104736
0.000218327
0.000104656
0.000217766
0.000146664
7.82969e-05
7.82931e-05
0.000186007
7.85033e-05
7.84989e-05
2.3933e-05
2.39327e-05
2.39231e-05
2.39296e-05
0.000186314
7.82123e-05
7.82044e-05
7.85498e-05
7.85417e-05
2.39237e-05
2.39301e-05
0.000145984
0.000104165
0.000216588
0.000206107
0.000145205
0.0001046
0.000216946
0.000100539
5.08262e-05
0.000100176
5.08289e-05
0.000145983
0.000216585
0.000104158
0.000206091
0.000145202
0.000216948
0.000104594
0.000100592
5.0802e-05
5.08284e-05
0.000100728
0.000146139
0.000206656
0.000104727
0.000218327
0.000104657
0.000217763
0.000146674
0.00010059
5.07974e-05
5.08242e-05
0.000100725
0.000146137
0.000206635
0.000218326
0.000104715
0.000217765
0.000104652
0.000146673
0.000100521
5.0832e-05
0.000100164
5.0835e-05
0.00014596
0.000216638
0.000104158
0.00020612
0.000145217
0.000216991
0.000104593
0.000100519
5.08286e-05
0.00010016
5.08317e-05
0.000146114
0.00020667
0.000104728
0.000218331
0.000104653
0.000217783
0.000146645
0.000100571
5.0805e-05
5.08308e-05
0.000100718
0.000146111
0.00020665
0.000218331
0.00010474
0.000217783
0.000104653
0.000146643
0.000100568
5.08018e-05
5.08277e-05
0.000100716
7.82896e-05
7.83023e-05
0.000186011
7.8497e-05
7.85087e-05
2.39324e-05
2.3932e-05
2.39207e-05
2.39273e-05
0.000186323
7.81895e-05
7.82111e-05
7.85412e-05
7.85566e-05
2.39227e-05
2.39293e-05
0.000145954
0.000216635
0.000104159
0.000206136
0.000145216
0.000216989
0.00010459
0.000100509
5.08287e-05
0.000100154
5.08316e-05
0.00010051
5.08287e-05
0.000100157
5.08318e-05
0.000146105
0.000206667
0.00021833
0.000104735
0.000217779
0.000104661
0.000146638
0.000146105
0.000206665
0.000218331
0.000104736
0.000217781
0.000104649
0.000146637
0.000100558
5.08013e-05
5.08275e-05
0.00010071
0.000100559
5.08021e-05
5.08278e-05
0.000100712
2.3932e-05
2.39317e-05
2.39315e-05
2.39313e-05
0.000186308
7.82193e-05
7.82173e-05
7.8547e-05
7.85455e-05
2.39226e-05
2.39291e-05
2.39222e-05
2.39287e-05
2.39224e-05
2.39313e-05
2.39211e-05
2.393e-05
7.79641e-05
7.79605e-05
0.0001856
7.74332e-05
7.74307e-05
2.39657e-05
2.39359e-05
2.39644e-05
2.39346e-05
0.000185016
7.74343e-05
7.74305e-05
7.73242e-05
7.73217e-05
9.97284e-05
5.07987e-05
0.000100471
5.07997e-05
0.000145384
0.000104358
0.000218667
0.000206849
0.00014663
0.000103484
0.000218732
0.000145388
0.00010436
0.000218664
0.000206843
0.000146632
0.00010349
0.00021873
9.9535e-05
5.08932e-05
5.08121e-05
9.91025e-05
9.9539e-05
5.08932e-05
5.08124e-05
9.91062e-05
0.000144909
0.000206255
0.000102759
0.000218125
0.000103265
0.000218448
0.000143873
0.000144914
0.000206251
0.000102763
0.000218124
0.000103269
0.000218447
0.000143878
7.79666e-05
7.79591e-05
0.000185609
7.7437e-05
7.74309e-05