/*--------------------------------*- C++ -*----------------------------------*\
| =========                 |                                                 |
| \\      /  F ield         | OpenFOAM: The Open Source CFD Toolbox           |
|  \\    /   O peration     | Version:  v1906                                 |
|   \\  /    A nd           | Web:      www.OpenFOAM.com                      |
|    \\/     M anipulation  |                                                 |
\*---------------------------------------------------------------------------*/
FoamFile
{
    version     2.0;
    format      ascii;
    class       volScalarField;
    location    "375";
    object      p;
}
// * * * * * * * * * * * * * * * * * * * * * * * * * * * * * * * * * * * * * //

dimensions      [0 2 -2 0 0 0 0];


internalField   nonuniform List<scalar> 
43024
(
0.00070962
0.000709555
0.000709557
0.00071156
0.000674136
0.000674101
0.000674099
0.000676133
0.000638571
0.000638471
0.000638471
0.000640466
0.000603076
0.000603036
0.000603036
0.000605071
0.000567237
0.000567155
0.000567153
0.000569164
0.000532259
0.000532257
0.000532258
0.000534259
0.000495741
0.000495643
0.00049564
0.000497701
0.000459922
0.000460051
0.000460047
0.000462041
0.000427241
0.00042764
0.000427634
0.000429638
0.000390714
0.00039002
0.000390016
0.000391932
0.000350338
0.000350017
0.000350011
0.000352272
0.0003143
0.000315435
0.000315437
0.000317828
0.000283099
0.000283719
0.000283713
0.000285712
0.000253659
0.000251899
0.000251901
0.00025309
0.000218077
0.000217307
0.000217307
0.000218991
0.000176479
0.000176707
0.000176708
0.000179231
0.000134922
0.000136124
0.000136121
0.00013887
9.73554e-05
9.78822e-05
9.78842e-05
0.0001002
6.34429e-05
6.3477e-05
6.34757e-05
6.53173e-05
3.18163e-05
3.09702e-05
3.09673e-05
3.24582e-05
5.63185e-06
6.39215e-06
6.39051e-06
4.80463e-06
0.000716373
0.000718414
0.000718413
0.000716371
0.000718415
0.000718415
0.000718412
0.000718411
0.000716372
0.000718413
0.000718412
0.00071637
0.000711565
0.000680968
0.000709559
0.000709557
0.000682994
0.000682993
0.000711561
0.00068097
0.00070956
0.000709559
0.000682993
0.000682993
0.000709554
0.000682993
0.000682993
0.000711564
0.000680968
0.000709555
0.000682993
0.000682993
0.000680969
0.000676128
0.000645281
0.000674097
0.000674099
0.000647336
0.000647337
0.000676132
0.000645282
0.000674096
0.000674097
0.000647336
0.000647337
0.000674102
0.000647338
0.000647338
0.000676129
0.000645281
0.000674101
0.000647337
0.000647338
0.000645282
0.000640466
0.000609918
0.000638472
0.000638471
0.000611946
0.000611944
0.000640466
0.000609915
0.000638472
0.000638472
0.000611947
0.000611946
0.00063847
0.000611943
0.000611943
0.000640466
0.000609917
0.000638471
0.000611945
0.000611943
0.000609914
0.000605074
0.000574014
0.000603038
0.000603036
0.000576076
0.000576078
0.000605072
0.000574017
0.000603037
0.000603037
0.000576076
0.000576076
0.000603036
0.000576078
0.000576078
0.000605073
0.000574014
0.000603036
0.000576076
0.000576078
0.000574017
0.000569162
0.000538986
0.000567153
0.000567154
0.000540962
0.000540962
0.000569163
0.000538985
0.000567153
0.000567153
0.000540963
0.000540963
0.000567155
0.000540961
0.000540962
0.000569162
0.000538986
0.000567155
0.000540963
0.000540962
0.000538984
0.000534261
0.000502775
0.000532258
0.000532257
0.000504951
0.000504951
0.00053426
0.000502776
0.000532258
0.000532259
0.00050495
0.000504949
0.000532257
0.000504951
0.000504951
0.000534261
0.000502773
0.000532257
0.000504949
0.00050495
0.000502775
0.0004977
0.000466555
0.000495643
0.000495644
0.000468357
0.000468358
0.000497701
0.000466556
0.000495642
0.000495641
0.000468357
0.000468354
0.000495642
0.000468357
0.000468354
0.000497698
0.00046655
0.000495642
0.000468352
0.000468353
0.000466551
0.000462044
0.000434121
0.00046005
0.000460052
0.000435816
0.000435816
0.000462045
0.000434124
0.00046005
0.000460048
0.000435809
0.000435807
0.000460048
0.000435814
0.000435813
0.00046204
0.000434116
0.000460047
0.000435805
0.000435809
0.00043412
0.000429637
0.000397235
0.000427642
0.000427643
0.000399788
0.000399786
0.000429639
0.000397235
0.000427637
0.000427636
0.000399786
0.000399782
0.000427641
0.000399787
0.000399786
0.000429633
0.00039723
0.000427638
0.000399782
0.000399784
0.000397232
0.000391935
0.0003574
0.000390024
0.00039002
0.000359771
0.000359775
0.000391933
0.000357405
0.000390023
0.000390019
0.000359771
0.00035977
0.000390023
0.000359775
0.000359773
0.00039193
0.000357399
0.000390018
0.00035977
0.000359774
0.000357404
0.000352268
0.000322431
0.000350013
0.000350022
0.000323785
0.000323785
0.000352272
0.000322429
0.000350016
0.000350015
0.000323785
0.000323785
0.000350015
0.000323782
0.000323784
0.000352266
0.000322429
0.000350019
0.000323783
0.000323784
0.000322428
0.000317831
0.000289926
0.000315438
0.00031544
0.000291362
0.000291351
0.00031783
0.000289926
0.000315439
0.00031544
0.00029135
0.000291349
0.000315438
0.000291361
0.000291363
0.00031783
0.000289922
0.000315439
0.000291347
0.000291351
0.000289926
0.000285708
0.000257439
0.000283722
0.000283719
0.000259978
0.00025998
0.00028571
0.000257441
0.000283715
0.000283719
0.000259978
0.000259979
0.000283721
0.000259981
0.000259981
0.0002857
0.000257441
0.000283716
0.00025998
0.000259982
0.000257442
0.000253086
0.000224006
0.000251897
0.000251898
0.000226502
0.0002265
0.000253088
0.000224011
0.000251897
0.0002519
0.000226499
0.000226501
0.0002519
0.000226503
0.0002265
0.000253091
0.00022401
0.0002519
0.000226505
0.000226501
0.000224007
0.000218991
0.00018479
0.000217305
0.000217305
0.0001871
0.000187103
0.000218995
0.000184791
0.000217306
0.000217305
0.000187103
0.000187102
0.000217304
0.0001871
0.000187099
0.000218995
0.000184789
0.000217306
0.000187103
0.000187104
0.00018479
0.000179231
0.000144381
0.000176707
0.000176708
0.000146161
0.000146161
0.000179231
0.000144382
0.000176708
0.000176707
0.000146159
0.00014616
0.000176707
0.000146161
0.000146161
0.00017923
0.00014438
0.000176708
0.000146159
0.00014616
0.000144382
0.00013887
0.000105242
0.000136124
0.000136123
0.000107077
0.000107077
0.00013887
0.000105241
0.000136121
0.000136122
0.000107077
0.000107077
0.000136123
0.000107076
0.000107077
0.00013887
0.000105241
0.000136122
0.000107076
0.000107077
0.000105242
0.000100201
6.98761e-05
9.78882e-05
9.78845e-05
7.17464e-05
7.17469e-05
0.000100196
6.98765e-05
9.78885e-05
9.78878e-05
7.17448e-05
7.1746e-05
9.78882e-05
7.17457e-05
7.17461e-05
0.0001002
6.98756e-05
9.78849e-05
7.17435e-05
7.17428e-05
6.98755e-05
6.53182e-05
3.69455e-05
6.34782e-05
6.34753e-05
3.89723e-05
3.89725e-05
6.53166e-05
3.69462e-05
6.34764e-05
6.34769e-05
3.897e-05
3.89681e-05
6.34768e-05
3.89703e-05
3.89685e-05
6.53183e-05
3.6943e-05
6.34739e-05
3.8968e-05
3.89679e-05
3.69421e-05
3.24629e-05
7.62597e-06
3.09733e-05
3.09728e-05
1.03868e-05
1.03863e-05
3.24618e-05
7.62542e-06
3.09705e-05
3.09678e-05
1.03878e-05
1.03809e-05
3.09677e-05
1.03858e-05
1.0379e-05
3.24601e-05
7.62106e-06
3.09665e-05
1.03836e-05
1.03835e-05
7.61992e-06
4.80931e-06
6.3921e-06
6.39163e-06
4.80943e-06
6.39293e-06
6.38738e-06
5.63094e-06
5.6302e-06
5.62913e-06
6.38652e-06
4.80616e-06
6.38976e-06
0.000733947
0.000733957
0.000733962
0.000733948
0.000733957
0.000718498
0.000718498
0.000718498
0.000718498
0.000733996
0.00073617
0.00073397
0.000736212
0.000733964
0.000733996
0.000736169
0.000736211
0.00073397
0.000734111
0.000733944
0.000733944
0.000698547
0.00071181
0.000711784
0.000698548
0.000711811
0.000698545
0.000698547
0.000711811
0.000711785
0.000698549
0.000709619
0.00070962
0.000709618
0.000683008
0.000683007
0.000683008
0.000683007
0.000698579
0.000711753
0.000709575
0.000700707
0.0007117
0.000698565
0.000700721
0.000711812
0.000698544
0.00069858
0.000709577
0.000711755
0.000700708
0.000711701
0.000700722
0.000698566
0.0007118
0.0007118
0.000698683
0.000698533
0.000698533
0.000662907
0.000676258
0.000676265
0.000662912
0.00067626
0.000662921
0.000662905
0.000676257
0.000676263
0.000662911
0.000674135
0.000674135
0.000674135
0.000647454
0.000647457
0.000647455
0.000647457
0.000662971
0.000676232
0.000674117
0.000665172
0.000676243
0.000662936
0.000665208
0.000676257
0.00066292
0.000662969
0.000674116
0.00067623
0.000665169
0.000676241
0.000665206
0.000662934
0.00067626
0.000676259
0.000663103
0.000662912
0.000662912
0.000627488
0.000640736
0.000640697
0.000627498
0.00064074
0.000627493
0.000627489
0.000640736
0.000640698
0.000627499
0.000638572
0.000638572
0.000638572
0.000611982
0.00061198
0.000611981
0.00061198
0.000627504
0.000640669
0.000638496
0.000629633
0.00064061
0.000627502
0.000629649
0.000640742
0.000627494
0.000627506
0.000638496
0.00064067
0.000629635
0.00064061
0.00062965
0.000627503
0.000640726
0.000640727
0.000627598
0.00062747
0.000627471
0.000591774
0.000605189
0.000605214
0.000591768
0.000605173
0.00059177
0.000591773
0.000605188
0.000605215
0.000591767
0.000603075
0.000603075
0.000603075
0.000576146
0.000576147
0.000576146
0.000576146
0.000591854
0.00060517
0.000603057
0.000594055
0.000605196
0.000591802
0.000594093
0.000605171
0.000591768
0.000591853
0.000603058
0.00060517
0.000594055
0.000605196
0.000594093
0.0005918
0.000605172
0.000605173
0.000591997
0.000591766
0.000591766
0.000556362
0.000569554
0.000569469
0.000556403
0.000569587
0.00055642
0.000556362
0.000569555
0.00056947
0.000556404
0.000567237
0.000567237
0.000567237
0.000540997
0.000540996
0.000540998
0.000540997
0.000556319
0.000569449
0.000567176
0.000558363
0.000569329
0.000556376
0.000558368
0.000569589
0.000556422
0.000556319
0.000567175
0.000569449
0.000558363
0.000569329
0.000558367
0.000556377
0.000569562
0.000569562
0.000556358
0.00055639
0.00055639
0.000520697
0.000534214
0.000534328
0.000520597
0.000534169
0.000520569
0.000520695
0.000534213
0.000534328
0.000520595
0.000532259
0.000532261
0.00053226
0.000505057
0.000505059
0.000505056
0.000505058
0.000520965
0.000534298
0.000532248
0.000523397
0.000534399
0.000520734
0.000523431
0.000534166
0.000520565
0.000520965
0.000532249
0.000534301
0.000523398
0.0005344
0.000523431
0.000520733
0.000534213
0.000534212
0.000521274
0.000520598
0.000520598
0.000484373
0.000497776
0.000497721
0.000484665
0.00049781
0.000484702
0.000484411
0.000497774
0.000497718
0.00048467
0.000495742
0.000495739
0.00049574
0.000468398
0.000468399
0.000468395
0.000468396
0.000484011
0.000497697
0.000495683
0.000486268
0.000497728
0.000484376
0.000486353
0.000497807
0.000484691
0.000484011
0.000495681
0.000497693
0.000486264
0.000497725
0.00048635
0.000484378
0.000497762
0.000497761
0.000484035
0.000484582
0.000484581
0.00045047
0.000463166
0.000463064
0.000450446
0.000463157
0.00045043
0.000450467
0.000463167
0.000463065
0.000450444
0.000459923
0.000459919
0.00045992
0.000435455
0.000435458
0.000435446
0.000435459
0.000450347
0.000462956
0.000459922
0.000451897
0.000462629
0.00045045
0.000451824
0.000463157
0.000450427
0.000450344
0.000459918
0.000462955
0.000451892
0.000462626
0.000451819
0.000450446
0.000463095
0.000463092
0.00045016
0.000450433
0.000450431
0.000414846
0.000428331
0.000428552
0.000414621
0.000428339
0.000414637
0.000414838
0.000428324
0.000428546
0.000414616
0.000427243
0.000427236
0.00042724
0.000400639
0.000400637
0.000400636
0.000400637
0.00041549
0.000428664
0.000427659
0.000418808
0.000429103
0.000414993
0.000419038
0.000428331
0.00041463
0.000415484
0.000427653
0.000428659
0.000418805
0.000429098
0.000419034
0.000414986
0.000428479
0.000428479
0.000416396
0.000414759
0.000414763
0.000377279
0.000391389
0.000391396
0.000377529
0.000391362
0.000377513
0.000377274
0.000391386
0.00039139
0.000377528
0.000390713
0.000390711
0.000390713
0.000360675
0.000360677
0.000360673
0.000360676
0.000377105
0.000391482
0.000390225
0.000380151
0.000391659
0.000377227
0.000380293
0.000391347
0.000377504
0.000377103
0.000390221
0.000391477
0.000380148
0.000391655
0.00038029
0.000377223
0.000391407
0.000391411
0.000377449
0.000377309
0.000377311
0.000341233
0.000354859
0.000354577
0.00034141
0.000354827
0.000341411
0.000341231
0.000354862
0.000354575
0.000341407
0.000350341
0.000350338
0.00035034
0.000322471
0.00032247
0.000322471
0.000322471
0.000340474
0.000354329
0.000349932
0.000340885
0.000353629
0.000341077
0.000340391
0.000354822
0.000341409
0.000340478
0.000349935
0.00035433
0.000340885
0.000353631
0.000340392
0.000341078
0.000354635
0.00035464
0.000339533
0.000341277
0.000341288
0.000305676
0.000318761
0.000318694
0.000305617
0.000318825
0.000305682
0.000305654
0.000318761
0.000318692
0.000305611
0.000314299
0.0003143
0.0003143
0.000290587
0.000290586
0.000290584
0.000290586
0.000305718
0.000318613
0.000315106
0.00030718
0.000318377
0.00030573
0.000307
0.000318827
0.000305681
0.000305719
0.000315108
0.000318616
0.00030718
0.000318379
0.000307001
0.000305732
0.000318781
0.00031878
0.000305748
0.000305742
0.000305743
0.000272354
0.000284508
0.000284587
0.000272238
0.000284578
0.000272263
0.000272351
0.000284506
0.000284583
0.000272236
0.000283099
0.000283097
0.0002831
0.000261658
0.000261661
0.000261659
0.000261661
0.000272855
0.000284721
0.000283636
0.000275997
0.00028492
0.000272527
0.000276095
0.000284577
0.000272261
0.000272854
0.000283633
0.000284721
0.000275994
0.00028492
0.000276093
0.000272525
0.000284662
0.000284663
0.000273722
0.000272348
0.000272347
0.000240543
0.000252318
0.000252437
0.000240418
0.000252285
0.000240351
0.000240543
0.00025232
0.000252436
0.000240423
0.000253661
0.000253661
0.000253662
0.000227476
0.000227477
0.000227478
0.000227477
0.000240916
0.000252539
0.000252397
0.00024372
0.000252816
0.000240633
0.000244193
0.000252278
0.000240334
0.000240916
0.000252397
0.000252536
0.000243728
0.000252816
0.000244196
0.000240628
0.000252348
0.000252352
0.000241226
0.000240382
0.000240395
0.000205155
0.00021907
0.0002191
0.000205222
0.000218942
0.000205083
0.000205153
0.000219065
0.000219097
0.000205223
0.000218077
0.000218078
0.000218077
0.000187455
0.000187455
0.000187455
0.000187455
0.000205014
0.000219087
0.00021761
0.000207637
0.000219188
0.00020508
0.000207862
0.000218951
0.000205083
0.000205017
0.000217613
0.000219079
0.000207633
0.000219188
0.000207865
0.000205074
0.000218944
0.000218944
0.000205018
0.000205022
0.000205025
0.000165378
0.000180636
0.000180556
0.000165452
0.000180612
0.000165439
0.000165377
0.000180635
0.000180556
0.000165451
0.00017648
0.00017648
0.00017648
0.000144928
0.000144928
0.000144927
0.000144927
0.000165067
0.000180402
0.00017653
0.000166478
0.000180117
0.000165308
0.000166049
0.000180612
0.000165438
0.000165066
0.000176531
0.0001804
0.000166478
0.000180117
0.000166049
0.000165306
0.000180548
0.000180547
0.000164672
0.000165409
0.000165408
0.000124489
0.000139649
0.000139587
0.00012454
0.000139717
0.000124598
0.00012449
0.000139648
0.000139588
0.00012454
0.000134923
0.000134922
0.000134922
0.000106352
0.000106352
0.000106352
0.000106352
0.000124385
0.000139501
0.000135754
0.000126217
0.000139286
0.000124523
0.000125914
0.000139721
0.000124601
0.000124384
0.000135753
0.000139502
0.000126216
0.000139285
0.000125914
0.000124523
0.000139685
0.000139686
0.000124403
0.00012463
0.000124632
8.6947e-05
0.000100488
0.000100472
8.69966e-05
0.00010063
8.70118e-05
8.69461e-05
0.000100492
0.000100465
8.69945e-05
9.73527e-05
9.73539e-05
9.73536e-05
7.1594e-05
7.15948e-05
7.1593e-05
7.15933e-05
8.69447e-05
0.000100403
9.77168e-05
8.89185e-05
0.000100331
8.7025e-05
8.87754e-05
0.00010063
8.70016e-05
8.69585e-05
9.7718e-05
0.000100405
8.89199e-05
0.000100335
8.87766e-05
8.70257e-05
0.00010057
0.000100575
8.70649e-05
8.70666e-05
8.70763e-05
5.31306e-05
6.55498e-05
6.55096e-05
5.3202e-05
6.56835e-05
5.30412e-05
5.31272e-05
6.55448e-05
6.55028e-05
5.31999e-05
6.3443e-05
6.34418e-05
6.34418e-05
3.95515e-05
3.95514e-05
3.95495e-05
3.95491e-05
5.3161e-05
6.54543e-05
6.33705e-05
5.52731e-05
6.54215e-05
5.32545e-05
5.52431e-05
6.56749e-05
5.3042e-05
5.3161e-05
6.33687e-05
6.54516e-05
5.52696e-05
6.54271e-05
5.52421e-05
5.32529e-05
6.55063e-05
6.55102e-05
5.32805e-05
5.32125e-05
5.32142e-05
1.96595e-05
3.23399e-05
3.24503e-05
1.90908e-05
3.26987e-05
1.85102e-05
1.96472e-05
3.23333e-05
3.24432e-05
1.90888e-05
3.18161e-05
3.18135e-05
3.18127e-05
1.08294e-05
1.08278e-05
1.08264e-05
1.08254e-05
2.01273e-05
3.22853e-05
3.12613e-05
2.32046e-05
3.25641e-05
1.96162e-05
2.35927e-05
3.26852e-05
1.85153e-05
2.01281e-05
3.12598e-05
3.22818e-05
2.32014e-05
3.25632e-05
2.35899e-05
1.96169e-05
3.2175e-05
3.21721e-05
2.10107e-05
1.93764e-05
1.93732e-05
3.17942e-06
3.67644e-06
3.1459e-06
-1.39996e-07
1.04787e-06
-3.77808e-06
3.18911e-06
3.66112e-06
3.13151e-06
-1.28995e-07
3.4175e-07
6.66632e-06
6.66558e-06
6.90575e-06
7.2948e-06
3.3643e-06
3.36482e-06
1.82377e-06
2.79913e-06
5.91121e-06
1.34907e-06
4.25375e-06
5.45275e-06
-1.68949e-06
1.01787e-06
-3.77675e-06
1.82957e-06
5.91091e-06
2.7972e-06
1.34944e-06
4.25436e-06
-1.68701e-06
5.4679e-06
-4.99019e-08
-4.99665e-08
7.92487e-07
3.45238e-06
3.47688e-06
0.000733964
0.000733964
0.000734111
0.000733946
0.000733947
0.000716263
0.000729511
0.000716264
0.000729511
0.000729287
0.000716246
0.000716247
0.000729499
0.000729499
0.000733947
0.000733956
0.000733996
0.000736168
0.000733971
0.000736208
0.000733996
0.00073617
0.00073397
0.000736209
0.000729484
0.000716257
0.000729504
0.000716235
0.000729484
0.000716256
0.000729502
0.000716235
0.000729422
0.000727283
0.000716263
0.000718439
0.000729453
0.000727314
0.000716265
0.000729422
0.000727283
0.000716261
0.000718438
0.000729452
0.000727314
0.000716265
0.000734111
0.000733945
0.000733945
0.000733962
0.000716261
0.000729508
0.000729286
0.000716244
0.000716243
0.000729496
0.000729496
0.00071626
0.000729508
0.000733996
0.000736168
0.000733972
0.000736208
0.000733948
0.000733957
0.000733996
0.000736169
0.000736208
0.000733972
0.000729485
0.000716258
0.000729504
0.000716236
0.000729422
0.000727283
0.000716264
0.000718439
0.000729453
0.000727314
0.000716267
0.000729485
0.000716257
0.000729504
0.000716236
0.000729423
0.000727283
0.000718439
0.000716264
0.000727314
0.000729453
0.000716266
0.000733946
0.000733955
0.000733996
0.000736171
0.000736212
0.00073397
0.000733946
0.000733955
0.000729421
0.000727282
0.000716259
0.000718437
0.000729451
0.000727315
0.000716262
0.000729482
0.000716254
0.000729501
0.000716232
0.000729421
0.000727282
0.000718437
0.000716258
0.000727315
0.000729451
0.000716262
0.000729482
0.000716253
0.0007295
0.000716232
0.000734111
0.000733947
0.000733946
0.000733962
0.000716263
0.000729511
0.000729287
0.000716246
0.000716245
0.000729498
0.000729497
0.000716262
0.000729509
0.000733996
0.000736171
0.000736212
0.00073397
0.000733947
0.000733955
0.000733946
0.000733955
0.000729421
0.000727283
0.000718438
0.00071626
0.000727314
0.000729452
0.000716263
0.000729421
0.000727283
0.000718437
0.000716259
0.000727314
0.000729451
0.000716263
0.000729482
0.000716255
0.000729501
0.000716233
0.000729482
0.000716254
0.000729501
0.000716233
0.000733961
0.000733961
0.000729287
0.000716242
0.000716242
0.000729495
0.000729495
0.000716259
0.000729507
0.00071626
0.000729507
0.000711812
0.000698544
0.000711813
0.000698544
0.000711804
0.000711804
0.000698688
0.000698534
0.000698535
0.000680739
0.000694072
0.000680739
0.000694073
0.000693881
0.000680731
0.000680731
0.000694075
0.000694076
0.000698547
0.000711809
0.000711784
0.000698548
0.000698582
0.000711757
0.000709579
0.00070071
0.000711704
0.000698567
0.000700725
0.000698582
0.000711755
0.000709578
0.000700708
0.000711704
0.000698566
0.000700724
0.000694084
0.000680741
0.000694084
0.000680764
0.000694084
0.000680743
0.000694085
0.000680764
0.00069402
0.000691857
0.000680776
0.000683
0.000694049
0.000691867
0.000680836
0.00069402
0.000691855
0.000680779
0.000683
0.000694049
0.000691866
0.000680837
0.000711802
0.0007118
0.000698685
0.000698534
0.000698533
0.00071181
0.000698544
0.000680742
0.000694075
0.000693878
0.000680734
0.000680735
0.000694077
0.000694076
0.000680743
0.000694074
0.000698583
0.000711758
0.00070958
0.000700711
0.000711705
0.000698568
0.000700726
0.000698547
0.00071181
0.000711785
0.000698548
0.000698583
0.00070958
0.000711758
0.00070071
0.000711706
0.000700726
0.000698568
0.000694085
0.000680741
0.000694084
0.000680762
0.00069402
0.000691857
0.000680776
0.000683
0.000694049
0.000691867
0.000680835
0.000694085
0.000680741
0.000694083
0.000680762
0.00069402
0.000691857
0.000683001
0.000680776
0.000691867
0.000694049
0.000680835
0.000698546
0.000711807
0.00071178
0.000698548
0.000698579
0.000709575
0.000711753
0.000700706
0.0007117
0.000700721
0.000698565
0.000698545
0.000711807
0.00071178
0.000698547
0.000694018
0.000691854
0.000680781
0.000682999
0.000694048
0.000691864
0.00068084
0.000694084
0.000680745
0.000694085
0.000680768
0.000694017
0.000691854
0.000682999
0.000680782
0.000691864
0.000694048
0.00068084
0.000694084
0.000680746
0.000694085
0.000680768
0.000711803
0.000711802
0.000698687
0.000698535
0.000698535
0.000711811
0.000698545
0.00068074
0.000694073
0.00069388
0.000680732
0.000680733
0.000694076
0.000694076
0.000680741
0.000694074
0.00069858
0.000709576
0.000711753
0.000700707
0.000711701
0.000700722
0.000698565
0.000698546
0.000711809
0.000711781
0.000698548
0.000698546
0.000711807
0.000711781
0.000698547
0.000694018
0.000691855
0.000683
0.000680779
0.000691865
0.000694049
0.000680839
0.000694018
0.000691854
0.000683
0.000680781
0.000691865
0.000694048
0.000680839
0.000694084
0.000680744
0.000694085
0.000680767
0.000694084
0.000680745
0.000694085
0.000680767
0.000711809
0.000698544
0.000711809
0.000698544
0.000693877
0.000680736
0.000680736
0.000694077
0.000694077
0.000680744
0.000694074
0.000680744
0.000694074
0.000676257
0.00066292
0.000676256
0.000662919
0.000676255
0.000676254
0.000663096
0.000662908
0.000662908
0.000645191
0.000658451
0.000645191
0.00065845
0.000658244
0.000645171
0.000645171
0.000658443
0.000658443
0.000662907
0.00067626
0.000676265
0.000662913
0.000662967
0.000676227
0.000674115
0.000665166
0.000676237
0.000662932
0.000665203
0.000662967
0.00067623
0.000674116
0.00066517
0.000676238
0.000662934
0.000665205
0.000658423
0.000645178
0.000658441
0.000645147
0.000658423
0.000645176
0.000658441
0.000645147
0.00065837
0.000656236
0.000645175
0.000647371
0.000658396
0.000656278
0.000645175
0.00065837
0.000656239
0.000645174
0.000647371
0.000658397
0.000656279
0.000645174
0.000676258
0.000676259
0.000663102
0.00066291
0.000662912
0.000676261
0.000662923
0.000645189
0.000658451
0.000658248
0.000645168
0.000645168
0.000658444
0.000658445
0.000645188
0.000658452
0.000662965
0.000676226
0.000674114
0.000665165
0.000676235
0.000662931
0.000665202
0.000662905
0.000676257
0.000676263
0.000662912
0.000662965
0.000674115
0.000676226
0.000665166
0.000676236
0.000665202
0.000662932
0.000658422
0.000645178
0.00065844
0.000645147
0.000658368
0.000656235
0.000645175
0.00064737
0.000658395
0.000656277
0.000645175
0.000658422
0.000645178
0.000658441
0.000645147
0.000658368
0.000656236
0.00064737
0.000645176
0.000656277
0.000658395
0.000645174
0.00066291
0.000676262
0.00067627
0.000662915
0.000662971
0.000674117
0.000676233
0.000665173
0.000676243
0.000665209
0.000662936
0.00066291
0.000676262
0.00067627
0.000662915
0.000658373
0.00065624
0.000645173
0.000647373
0.000658398
0.000656283
0.000645174
0.000658425
0.000645175
0.000658442
0.000645145
0.000658373
0.000656241
0.000647373
0.000645173
0.000656283
0.000658398
0.000645174
0.000658425
0.000645174
0.000658442
0.000645145
0.000676255
0.000676257
0.000663098
0.000662909
0.00066291
0.000676258
0.000662921
0.000645191
0.000658451
0.000658245
0.000645171
0.000645169
0.000658443
0.000658444
0.00064519
0.000658451
0.00066297
0.000674117
0.000676232
0.000665172
0.000676241
0.000665207
0.000662935
0.000662909
0.00067626
0.000676268
0.000662913
0.000662909
0.000676262
0.000676268
0.000662914
0.000658371
0.000656238
0.000647372
0.000645173
0.000656281
0.000658397
0.000645174
0.000658372
0.00065624
0.000647372
0.000645173
0.000656282
0.000658398
0.000645174
0.000658424
0.000645176
0.000658441
0.000645146
0.000658424
0.000645174
0.000658442
0.000645145
0.000676261
0.000662923
0.000676261
0.000662922
0.000658249
0.000645168
0.000645167
0.000658445
0.000658445
0.000645188
0.000658452
0.000645188
0.000658451
0.000640742
0.000627495
0.000640743
0.000627495
0.00064073
0.000640731
0.000627603
0.000627474
0.000627474
0.000609671
0.00062303
0.000609671
0.000623031
0.000622805
0.000609665
0.000609665
0.000623024
0.000623025
0.000627487
0.000640734
0.000640696
0.000627497
0.000627508
0.000640673
0.000638496
0.000629636
0.000640611
0.000627505
0.000629651
0.000627508
0.000640671
0.000638496
0.000629634
0.000640611
0.000627503
0.000629651
0.000623036
0.00060969
0.000623044
0.000609726
0.000623035
0.00060969
0.000623043
0.000609727
0.000622956
0.000620801
0.000609734
0.000611957
0.000622996
0.000620812
0.000609798
0.000622956
0.000620799
0.000609735
0.000611956
0.000622994
0.000620811
0.000609798
0.000640728
0.000640727
0.0006276
0.000627472
0.000627471
0.000640739
0.000627492
0.000609671
0.00062303
0.000622801
0.000609666
0.000609666
0.000623023
0.000623021
0.000609672
0.000623029
0.000627509
0.000640673
0.000638497
0.000629637
0.000640611
0.000627506
0.000629652
0.000627489
0.000640736
0.000640698
0.000627499
0.000627509
0.000638497
0.000640672
0.000629636
0.000640612
0.000629652
0.000627506
0.000623037
0.00060969
0.000623045
0.000609726
0.000622957
0.000620802
0.000609735
0.000611958
0.000622996
0.000620813
0.000609799
0.000623037
0.000609689
0.000623044
0.000609726
0.000622958
0.000620801
0.000611958
0.000609734
0.000620813
0.000622996
0.000609799
0.000627485
0.000640732
0.000640694
0.000627495
0.000627504
0.000638496
0.000640668
0.000629633
0.000640609
0.000629649
0.000627501
0.000627484
0.000640732
0.000640694
0.000627495
0.000622953
0.000620798
0.000609735
0.000611954
0.000622993
0.000620809
0.000609795
0.000623033
0.000609692
0.000623041
0.000609726
0.000622953
0.000620798
0.000611954
0.000609735
0.000620809
0.000622992
0.000609795
0.000623033
0.000609692
0.000623042
0.000609726
0.00064073
0.000640728
0.000627601
0.000627474
0.000627472
0.000640741
0.000627493
0.00060967
0.00062303
0.000622804
0.000609664
0.000609665
0.000623024
0.000623023
0.000609671
0.00062303
0.000627505
0.000638496
0.00064067
0.000629634
0.00064061
0.00062965
0.000627502
0.000627486
0.000640734
0.000640694
0.000627497
0.000627485
0.000640732
0.000640694
0.000627495
0.000622954
0.0006208
0.000611955
0.000609735
0.00062081
0.000622994
0.000609796
0.000622954
0.000620798
0.000611955
0.000609735
0.00062081
0.000622993
0.000609796
0.000623033
0.000609692
0.000623043
0.000609727
0.000623033
0.000609692
0.000623042
0.000609727
0.000640739
0.000627492
0.000640739
0.000627492
0.000622801
0.000609666
0.000609666
0.000623022
0.000623022
0.000609672
0.000623029
0.000609672
0.000623029
0.000605172
0.000591769
0.000605172
0.000591768
0.000605171
0.000605171
0.000591996
0.000591764
0.000591764
0.000574021
0.000587273
0.00057402
0.000587272
0.000587105
0.000573985
0.000573984
0.000587273
0.000587272
0.000591774
0.000605188
0.000605215
0.000591768
0.000591852
0.000605169
0.000603059
0.000594055
0.000605197
0.000591799
0.000594094
0.000591853
0.000605169
0.000603059
0.000594056
0.000605197
0.0005918
0.000594094
0.000587254
0.000573974
0.000587264
0.000573906
0.000587255
0.000573974
0.000587265
0.000573906
0.000587217
0.000585056
0.000573939
0.000576099
0.00058723
0.00058509
0.000573909
0.000587218
0.000585057
0.00057394
0.000576099
0.000587231
0.000585091
0.000573909
0.000605172
0.000605173
0.000591997
0.000591765
0.000591766
0.000605174
0.000591771
0.00057402
0.000587273
0.000587106
0.000573984
0.000573985
0.000587273
0.000587274
0.000574021
0.000587274
0.000591851
0.000605169
0.00060306
0.000594055
0.000605198
0.000591799
0.000594094
0.000591773
0.000605187
0.000605214
0.000591767
0.000591851
0.00060306
0.000605168
0.000594055
0.000605198
0.000594093
0.000591798
0.000587253
0.000573975
0.000587264
0.000573906
0.000587216
0.000585056
0.00057394
0.000576098
0.00058723
0.000585089
0.000573907
0.000587253
0.000573976
0.000587264
0.000573906
0.000587216
0.000585056
0.000576098
0.000573941
0.000585089
0.000587229
0.000573907
0.000591776
0.00060519
0.000605215
0.00059177
0.000591854
0.000603057
0.00060517
0.000594056
0.000605196
0.000594093
0.000591801
0.000591776
0.00060519
0.000605215
0.000591769
0.000587219
0.000585058
0.00057394
0.0005761
0.000587232
0.000585091
0.000573911
0.000587256
0.000573974
0.000587266
0.000573907
0.000587219
0.000585058
0.0005761
0.000573939
0.000585091
0.000587232
0.000573911
0.000587256
0.000573972
0.000587266
0.000573907
0.00060517
0.000605171
0.000591996
0.000591764
0.000591764
0.000605172
0.000591769
0.000574022
0.000587272
0.000587105
0.000573985
0.000573985
0.000587272
0.000587273
0.000574021
0.000587272
0.000591854
0.000603058
0.000605171
0.000594055
0.000605196
0.000594093
0.000591801
0.000591776
0.00060519
0.000605215
0.000591769
0.000591776
0.000605191
0.000605215
0.00059177
0.000587218
0.000585056
0.000576099
0.000573939
0.000585089
0.000587231
0.00057391
0.000587219
0.000585057
0.0005761
0.00057394
0.00058509
0.000587232
0.000573911
0.000587255
0.000573973
0.000587264
0.000573907
0.000587255
0.000573973
0.000587266
0.000573906
0.000605173
0.00059177
0.000605174
0.00059177
0.000587107
0.000573983
0.000573983
0.000587273
0.000587273
0.000574019
0.000587273
0.00057402
0.000587273
0.000569588
0.000556423
0.000569588
0.000556421
0.000569564
0.000569563
0.000556359
0.000556393
0.00055639
0.000538709
0.000552008
0.000538708
0.000552008
0.000551632
0.000538748
0.000538747
0.000551988
0.000551987
0.000556363
0.000569554
0.000569469
0.000556403
0.000556319
0.00056945
0.000567175
0.000558363
0.000569328
0.000556377
0.000558367
0.000556319
0.00056945
0.000567175
0.000558363
0.000569328
0.000556379
0.000558367
0.000551961
0.000538757
0.000551995
0.000538827
0.000551962
0.000538758
0.000551995
0.000538827
0.000551827
0.000549658
0.000538853
0.000540965
0.000551922
0.000549658
0.000538901
0.000551827
0.000549657
0.000538853
0.000540965
0.000551921
0.000549657
0.000538901
0.000569563
0.000569563
0.000556359
0.000556389
0.000556391