/*--------------------------------*- C++ -*----------------------------------*\
| =========                 |                                                 |
| \\      /  F ield         | OpenFOAM: The Open Source CFD Toolbox           |
|  \\    /   O peration     | Version:  v1906                                 |
|   \\  /    A nd           | Web:      www.OpenFOAM.com                      |
|    \\/     M anipulation  |                                                 |
\*---------------------------------------------------------------------------*/
FoamFile
{
    version     2.0;
    format      ascii;
    class       volVectorField;
    location    "375";
    object      U;
}
// * * * * * * * * * * * * * * * * * * * * * * * * * * * * * * * * * * * * * //

dimensions      [0 1 -1 0 0 0 0];


internalField   nonuniform List<vector> 
43248
(
(6.08288e-05 6.08647e-05 0.108928)
(-9.73327e-05 5.97925e-05 0.107975)
(5.98089e-05 -9.73342e-05 0.107975)
(-0.000158453 -0.000158504 0.106622)
(5.9386e-05 5.94042e-05 0.109226)
(-9.49448e-05 5.88025e-05 0.108152)
(5.8758e-05 -9.494e-05 0.108152)
(-0.000153895 -0.000153961 0.106645)
(5.78861e-05 5.78985e-05 0.109515)
(-9.2541e-05 5.78251e-05 0.108311)
(5.77656e-05 -9.25143e-05 0.108311)
(-0.000149282 -0.000149318 0.106643)
(5.63523e-05 5.63688e-05 0.109794)
(-8.99028e-05 5.67123e-05 0.108451)
(5.66788e-05 -8.98919e-05 0.108451)
(-0.000144339 -0.000144358 0.106619)
(5.48832e-05 5.48972e-05 0.110064)
(-8.70571e-05 5.54664e-05 0.108572)
(5.54648e-05 -8.70828e-05 0.108572)
(-0.000138991 -0.000139001 0.106575)
(5.35077e-05 5.35313e-05 0.110324)
(-8.40706e-05 5.41146e-05 0.108675)
(5.397e-05 -8.40355e-05 0.108675)
(-0.000133357 -0.000133366 0.106515)
(5.21947e-05 5.22142e-05 0.110574)
(-8.09606e-05 5.25849e-05 0.10876)
(5.24829e-05 -8.09156e-05 0.108759)
(-0.000127452 -0.000127472 0.10644)
(5.09314e-05 5.09427e-05 0.110813)
(-7.7703e-05 5.08485e-05 0.108827)
(5.08793e-05 -7.7726e-05 0.108826)
(-0.000121319 -0.000121335 0.106355)
(4.97467e-05 4.97683e-05 0.111042)
(-7.43164e-05 4.8904e-05 0.108877)
(4.88754e-05 -7.43316e-05 0.108877)
(-0.000115521 -0.000115523 0.106261)
(4.87135e-05 4.87391e-05 0.11126)
(-7.08858e-05 4.68691e-05 0.108912)
(4.67388e-05 -7.08246e-05 0.108911)
(-0.000109958 -0.000109978 0.106162)
(4.74033e-05 4.74133e-05 0.111466)
(-6.71964e-05 4.44738e-05 0.108932)
(4.44855e-05 -6.72124e-05 0.108931)
(-0.000104369 -0.000104395 0.10606)
(4.62152e-05 4.62269e-05 0.111661)
(-6.34396e-05 4.20293e-05 0.108939)
(4.21186e-05 -6.34927e-05 0.108938)
(-9.89031e-05 -9.89167e-05 0.105956)
(4.52261e-05 4.52478e-05 0.111843)
(-6.01005e-05 3.99646e-05 0.108934)
(3.97479e-05 -6.00293e-05 0.108933)
(-9.38221e-05 -9.38592e-05 0.105852)
(4.4184e-05 4.42141e-05 0.112014)
(-5.6383e-05 3.7192e-05 0.108917)
(3.73189e-05 -5.64144e-05 0.108917)
(-8.92096e-05 -8.92391e-05 0.10575)
(4.28411e-05 4.28645e-05 0.112172)
(-5.29838e-05 3.46133e-05 0.108892)
(3.44305e-05 -5.29241e-05 0.108891)
(-8.48004e-05 -8.48295e-05 0.10565)
(4.25277e-05 4.2488e-05 0.112318)
(-4.94838e-05 3.2466e-05 0.108859)
(3.26722e-05 -4.965e-05 0.108858)
(-8.00897e-05 -8.01328e-05 0.105552)
(4.00157e-05 4.01707e-05 0.112452)
(-4.62911e-05 2.96449e-05 0.108818)
(2.93386e-05 -4.59839e-05 0.108818)
(-7.62476e-05 -7.62627e-05 0.105459)
(4.07067e-05 4.04256e-05 0.112573)
(-4.25714e-05 2.73853e-05 0.108773)
(2.77177e-05 -4.30431e-05 0.108772)
(-7.25682e-05 -7.26347e-05 0.105368)
(3.69599e-05 3.75522e-05 0.112681)
(-3.99233e-05 2.49996e-05 0.108723)
(2.45342e-05 -3.92271e-05 0.108723)
(-6.88453e-05 -6.87231e-05 0.10528)
(3.78904e-05 3.70528e-05 0.11278)
(-3.59716e-05 2.2649e-05 0.10867)
(2.33307e-05 -3.68066e-05 0.108668)
(-6.55118e-05 -6.57979e-05 0.105197)
(3.44769e-05 3.55179e-05 0.112863)
(-3.36687e-05 2.10328e-05 0.108614)
(1.9909e-05 -3.27125e-05 0.108613)
(-6.27567e-05 -6.23582e-05 0.105118)
(3.39099e-05 3.31421e-05 0.112937)
(-2.99446e-05 1.78641e-05 0.108556)
(1.90921e-05 -3.07639e-05 0.108556)
(-5.93785e-05 -5.9852e-05 0.105042)
(3.17015e-05 3.18855e-05 0.113)
(-2.74344e-05 1.70642e-05 0.1085)
(1.61914e-05 -2.69374e-05 0.108496)
(-5.70174e-05 -5.6766e-05 0.10497)
(2.98208e-05 3.01142e-05 0.113052)
(-2.45738e-05 1.47985e-05 0.10844)
(1.50924e-05 -2.47017e-05 0.10844)
(-5.4479e-05 -5.45203e-05 0.104902)
(2.80578e-05 2.78115e-05 0.113094)
(-2.17276e-05 1.3014e-05 0.108382)
(1.2998e-05 -2.17518e-05 0.108381)
(-5.20116e-05 -5.21155e-05 0.104837)
(2.598e-05 2.6095e-05 0.113127)
(-1.92007e-05 1.16307e-05 0.108325)
(1.15371e-05 -1.91355e-05 0.108324)
(-4.9961e-05 -4.98844e-05 0.104777)
(2.4029e-05 2.40056e-05 0.113151)
(-1.6763e-05 1.01499e-05 0.108269)
(1.02149e-05 -1.68e-05 0.108268)
(-4.78556e-05 -4.79083e-05 0.10472)
(-5.70275e-06 -5.70536e-06 0.106779)
(6.01872e-05 9.8001e-05 0.107927)
(-6.01899e-05 9.80236e-05 0.107927)
(5.68852e-06 -5.61179e-06 0.106779)
(9.79714e-05 6.01743e-05 0.107927)
(9.80422e-05 -6.02265e-05 0.107926)
(-9.79107e-05 6.00928e-05 0.107927)
(-9.79765e-05 -6.01309e-05 0.107927)
(-5.69281e-06 5.7539e-06 0.106778)
(6.012e-05 -9.79339e-05 0.107927)
(-6.003e-05 -9.78597e-05 0.107927)
(5.59731e-06 5.63171e-06 0.106778)
(0.000158673 0.000158544 0.106621)
(-8.4664e-06 -8.31167e-06 0.106817)
(5.98866e-05 9.73992e-05 0.107974)
(-5.98916e-05 9.74478e-05 0.107974)
(5.91841e-05 9.56542e-05 0.108109)
(-5.91729e-05 9.56855e-05 0.108109)
(-0.00015854 0.000158515 0.106621)
(8.42453e-06 -8.35659e-06 0.106817)
(9.73722e-05 5.98568e-05 0.107975)
(9.74462e-05 -5.99117e-05 0.107974)
(9.56178e-05 5.91072e-05 0.108109)
(9.56894e-05 -5.91969e-05 0.108108)
(-9.74239e-05 -5.98492e-05 0.107974)
(-9.55519e-05 5.90748e-05 0.10811)
(-9.56277e-05 -5.90951e-05 0.108109)
(0.00015867 -0.000158758 0.106621)
(-8.31054e-06 8.43199e-06 0.106816)
(-5.97487e-05 -9.73067e-05 0.107974)
(5.90514e-05 -9.55795e-05 0.108109)
(-5.89825e-05 -9.54872e-05 0.108109)
(8.37398e-06 8.39329e-06 0.106817)
(0.000154218 0.000154244 0.106644)
(-1.06147e-05 -1.04868e-05 0.106829)
(5.89054e-05 9.50196e-05 0.108151)
(-5.89043e-05 9.50656e-05 0.108151)
(5.81759e-05 9.32083e-05 0.108272)
(-5.81852e-05 9.32723e-05 0.108272)
(-0.000154052 0.000154009 0.106644)
(1.0723e-05 -1.06598e-05 0.10683)
(9.49807e-05 5.88248e-05 0.108152)
(9.50448e-05 -5.89079e-05 0.108151)
(9.31646e-05 5.80813e-05 0.108273)
(9.3247e-05 -5.81838e-05 0.108272)
(-9.50485e-05 -5.88669e-05 0.108151)
(-9.31703e-05 5.80728e-05 0.108273)
(-9.31895e-05 -5.80848e-05 0.108272)
(0.000154222 -0.000154244 0.106644)
(-1.05232e-05 1.06373e-05 0.106829)
(-5.8759e-05 -9.49397e-05 0.108152)
(5.80461e-05 -9.31531e-05 0.108273)
(-5.79974e-05 -9.31119e-05 0.108273)
(1.0646e-05 1.0685e-05 0.106829)
(0.000149538 0.000149537 0.106642)
(-1.26726e-05 -1.25684e-05 0.106817)
(5.78792e-05 9.25693e-05 0.10831)
(-5.79424e-05 9.26444e-05 0.10831)
(5.70737e-05 9.06111e-05 0.108417)
(-5.71116e-05 9.06791e-05 0.108417)
(-0.000149421 0.00014938 0.106643)
(1.27722e-05 -1.27145e-05 0.106818)
(9.25256e-05 5.77829e-05 0.108311)
(9.26055e-05 -5.79022e-05 0.10831)
(9.056e-05 5.69757e-05 0.108418)
(9.06555e-05 -5.71082e-05 0.108417)
(-9.25819e-05 -5.78229e-05 0.10831)
(-9.0576e-05 5.6991e-05 0.108418)
(-9.06307e-05 -5.7067e-05 0.108417)
(0.000149504 -0.000149534 0.106643)
(-1.26221e-05 1.27215e-05 0.106817)
(-5.77433e-05 -9.251e-05 0.108311)
(5.69748e-05 -9.05657e-05 0.108418)
(-5.69898e-05 -9.05638e-05 0.108418)
(1.26074e-05 1.26569e-05 0.106817)
(0.000144361 0.000144343 0.106619)
(-1.46123e-05 -1.45218e-05 0.106784)
(5.67705e-05 8.9947e-05 0.10845)
(-5.68315e-05 9.00066e-05 0.10845)
(5.5928e-05 8.78312e-05 0.108543)
(-5.59419e-05 8.78936e-05 0.108543)
(-0.000144312 0.000144272 0.106619)
(1.47282e-05 -1.46653e-05 0.106784)
(8.9896e-05 5.66704e-05 0.108451)
(8.99778e-05 -5.68085e-05 0.10845)
(8.77758e-05 5.58319e-05 0.108544)
(8.78543e-05 -5.58756e-05 0.108542)
(-8.99428e-05 -5.67352e-05 0.10845)
(-8.77843e-05 5.5824e-05 0.108544)
(-8.78611e-05 -5.59264e-05 0.108543)
(0.000144299 -0.000144335 0.106619)
(-1.46662e-05 1.47648e-05 0.106783)
(-5.66578e-05 -8.98755e-05 0.108451)
(5.57507e-05 -8.77638e-05 0.108544)
(-5.58527e-05 -8.77923e-05 0.108543)
(1.45643e-05 1.4619e-05 0.106783)
(0.000138909 0.000138884 0.106575)
(-1.66228e-05 -1.65388e-05 0.106731)
(5.55195e-05 8.70938e-05 0.108571)
(-5.55853e-05 8.71638e-05 0.108571)
(5.46597e-05 8.49257e-05 0.10865)
(-5.46439e-05 8.49619e-05 0.10865)
(-0.000138845 0.000138815 0.106575)
(1.67547e-05 -1.66904e-05 0.106732)
(8.70369e-05 5.54147e-05 0.108572)
(8.71674e-05 -5.55897e-05 0.108571)
(8.48721e-05 5.45663e-05 0.108651)
(8.48676e-05 -5.4508e-05 0.10865)
(-8.71128e-05 -5.55126e-05 0.108571)
(-8.48499e-05 5.4527e-05 0.108651)
(-8.49294e-05 -5.46256e-05 0.10865)
(0.000138766 -0.000138797 0.106575)
(-1.6627e-05 1.67291e-05 0.106731)
(-5.5434e-05 -8.70448e-05 0.108572)
(5.43855e-05 -8.47761e-05 0.108651)
(-5.45543e-05 -8.48632e-05 0.108651)
(1.65704e-05 1.66173e-05 0.106731)
(0.00013326 0.000133231 0.106515)
(-1.88139e-05 -1.87417e-05 0.106663)
(5.42096e-05 8.41313e-05 0.108674)
(-5.42284e-05 8.41813e-05 0.108674)
(5.31211e-05 8.18433e-05 0.108739)
(-5.31755e-05 8.18904e-05 0.108739)
(-0.000133204 0.00013318 0.106515)
(1.88285e-05 -1.87748e-05 0.106663)
(8.4071e-05 5.41131e-05 0.108675)
(8.41212e-05 -5.4088e-05 0.108673)
(8.17892e-05 5.30131e-05 0.10874)
(8.18516e-05 -5.3182e-05 0.108738)
(-8.41325e-05 -5.41547e-05 0.108674)
(-8.17809e-05 5.30544e-05 0.10874)
(-8.18492e-05 -5.31289e-05 0.108739)
(0.000133014 -0.000133038 0.106515)
(-1.85107e-05 1.86084e-05 0.106662)
(-5.40846e-05 -8.40624e-05 0.108675)
(5.30543e-05 -8.17626e-05 0.10874)
(-5.30482e-05 -8.17886e-05 0.10874)
(1.86832e-05 1.87201e-05 0.106662)
(0.000127294 0.000127254 0.10644)
(-2.09394e-05 -2.08697e-05 0.106582)
(5.27211e-05 8.10522e-05 0.108759)
(-5.27098e-05 8.1067e-05 0.108758)
(5.12674e-05 7.8544e-05 0.10881)
(-5.14134e-05 7.86441e-05 0.10881)
(-0.000127423 0.000127387 0.10644)
(2.0948e-05 -2.09002e-05 0.106582)
(8.09986e-05 5.26147e-05 0.108759)
(8.09955e-05 -5.261e-05 0.108758)
(7.84837e-05 5.11571e-05 0.108811)
(7.86522e-05 -5.14605e-05 0.10881)
(-8.10493e-05 -5.27034e-05 0.108758)
(-7.85352e-05 5.12979e-05 0.108812)
(-7.85724e-05 -5.12913e-05 0.10881)
(0.00012739 -0.000127417 0.10644)
(-2.07827e-05 2.08769e-05 0.106581)
(-5.26264e-05 -8.09872e-05 0.108759)
(5.13402e-05 -7.85659e-05 0.108811)
(-5.1209e-05 -7.8511e-05 0.108811)
(2.08746e-05 2.09164e-05 0.106581)
(0.000121225 0.000121191 0.106355)
(-2.26854e-05 -2.26154e-05 0.106491)
(5.08891e-05 7.77795e-05 0.108826)
(-5.09687e-05 7.78126e-05 0.108825)
(4.9445e-05 7.51984e-05 0.108865)
(-4.95413e-05 7.53135e-05 0.108864)
(-0.00012149 0.000121451 0.106355)
(2.29671e-05 -2.29177e-05 0.106492)
(7.772e-05 5.07775e-05 0.108826)
(7.78064e-05 -5.10027e-05 0.108825)
(7.51351e-05 4.93528e-05 0.108866)
(7.52495e-05 -4.94369e-05 0.108864)
(-7.77653e-05 -5.08656e-05 0.108825)
(-7.52057e-05 4.94311e-05 0.108866)
(-7.52266e-05 -4.94285e-05 0.108865)
(0.000121476 -0.000121504 0.106354)
(-2.3038e-05 2.31309e-05 0.10649)
(-5.07866e-05 -7.77057e-05 0.108826)
(4.93189e-05 -7.51623e-05 0.108866)
(-4.93615e-05 -7.51589e-05 0.108865)
(2.27387e-05 2.27891e-05 0.10649)
(0.000115525 0.000115493 0.106261)
(-2.44628e-05 -2.43936e-05 0.106394)
(4.87667e-05 7.42942e-05 0.108876)
(-4.90285e-05 7.44257e-05 0.108876)
(4.76158e-05 7.18483e-05 0.108903)
(-4.74339e-05 7.18416e-05 0.108903)
(-0.000115563 0.000115521 0.106261)
(2.49478e-05 -2.48869e-05 0.106394)
(7.42248e-05 4.86698e-05 0.108877)
(7.44113e-05 -4.90016e-05 0.108875)
(7.17931e-05 4.75187e-05 0.108904)
(7.17586e-05 -4.73447e-05 0.108902)
(-7.43604e-05 -4.88627e-05 0.108876)
(-7.17413e-05 4.73305e-05 0.108905)
(-7.17814e-05 -4.74254e-05 0.108903)
(0.000115378 -0.0001154 0.106261)
(-2.49061e-05 2.4988e-05 0.106393)
(-4.87976e-05 -7.42911e-05 0.108876)
(4.72429e-05 -7.16877e-05 0.108904)
(-4.73577e-05 -7.17165e-05 0.108904)
(2.46003e-05 2.46319e-05 0.106393)
(0.000110176 0.000110136 0.106162)
(-2.67725e-05 -2.6696e-05 0.106291)
(4.6986e-05 7.09106e-05 0.10891)
(-4.69695e-05 7.09863e-05 0.10891)
(4.51099e-05 6.81495e-05 0.108927)
(-4.51003e-05 6.81504e-05 0.108926)
(-0.000109751 0.000109725 0.106162)
(2.67834e-05 -2.67213e-05 0.106292)
(7.08623e-05 4.6891e-05 0.108912)
(7.08981e-05 -4.68404e-05 0.10891)
(6.80857e-05 4.49923e-05 0.108928)
(6.81742e-05 -4.52082e-05 0.108926)
(-7.08646e-05 -4.68105e-05 0.10891)
(-6.8045e-05 4.49687e-05 0.108928)
(-6.82109e-05 -4.52172e-05 0.108926)
(0.000109643 -0.000109665 0.106162)
(-2.6587e-05 2.66575e-05 0.106291)
(-4.674e-05 -7.07982e-05 0.108911)
(4.50853e-05 -6.81073e-05 0.108928)
(-4.51328e-05 -6.81524e-05 0.108927)
(2.65782e-05 2.66058e-05 0.106291)
(0.000104266 0.000104247 0.10606)
(-2.84212e-05 -2.83591e-05 0.106187)
(4.4641e-05 6.72868e-05 0.10893)
(-4.46005e-05 6.72891e-05 0.10893)
(4.2805e-05 6.4464e-05 0.108937)
(-4.28754e-05 6.45604e-05 0.108936)
(-0.000104113 0.00010409 0.10606)
(2.83037e-05 -2.82581e-05 0.106188)
(6.72299e-05 4.45303e-05 0.108931)
(6.72625e-05 -4.46127e-05 0.108929)
(6.44062e-05 4.27144e-05 0.108938)
(6.44918e-05 -4.28069e-05 0.108936)
(-6.7274e-05 -4.46445e-05 0.10893)
(-6.44451e-05 4.27735e-05 0.108938)
(-6.45232e-05 -4.27975e-05 0.108936)
(0.000104218 -0.000104263 0.10606)
(-2.83164e-05 2.84248e-05 0.106186)
(-4.45614e-05 -6.72164e-05 0.108931)
(4.27013e-05 -6.44151e-05 0.108938)
(-4.27273e-05 -6.44555e-05 0.108937)
(2.8448e-05 2.84827e-05 0.106186)
(9.89289e-05 9.89015e-05 0.105956)
(-2.99419e-05 -2.98915e-05 0.106082)
(4.21802e-05 6.3539e-05 0.108937)
(-4.21298e-05 6.35613e-05 0.108937)
(4.05856e-05 6.09925e-05 0.108934)
(-4.06553e-05 6.10453e-05 0.108934)
(-9.89642e-05 9.89416e-05 0.105956)
(2.98649e-05 -2.98428e-05 0.106082)
(6.34829e-05 4.20804e-05 0.108938)
(6.3566e-05 -4.22246e-05 0.108936)
(6.09306e-05 4.04805e-05 0.108935)
(6.1009e-05 -4.05828e-05 0.108933)
(-6.36409e-05 -4.2265e-05 0.108937)
(-6.09693e-05 4.05611e-05 0.108936)
(-6.08618e-05 -4.03763e-05 0.108934)
(9.89813e-05 -9.89768e-05 0.105956)
(-2.9919e-05 3.00033e-05 0.106081)
(-4.21936e-05 -6.35726e-05 0.108938)
(4.04754e-05 -6.09485e-05 0.108935)
(-4.03062e-05 -6.0801e-05 0.108935)
(3.00318e-05 3.00265e-05 0.106081)
(9.40353e-05 9.40126e-05 0.105852)
(-3.16589e-05 -3.16026e-05 0.105977)
(3.98478e-05 6.00226e-05 0.108932)
(-4.00658e-05 6.01851e-05 0.108931)
(3.79729e-05 5.73713e-05 0.108921)
(-3.7758e-05 5.72622e-05 0.10892)
(-9.41415e-05 9.40947e-05 0.105853)
(3.17786e-05 -3.17263e-05 0.105977)
(5.99682e-05 3.97659e-05 0.108933)
(6.00914e-05 -3.98586e-05 0.10893)
(5.72959e-05 3.78945e-05 0.108922)
(5.721e-05 -3.77923e-05 0.10892)
(-6.00368e-05 -3.97779e-05 0.108931)
(-5.71813e-05 3.76676e-05 0.108922)
(-5.73476e-05 -3.78795e-05 0.10892)
(9.3935e-05 -9.39543e-05 0.105852)
(-3.15563e-05 3.16235e-05 0.105976)
(-3.97268e-05 -5.99692e-05 0.108932)
(3.77084e-05 -5.71616e-05 0.108922)
(-3.7838e-05 -5.72788e-05 0.108921)
(3.14168e-05 3.14363e-05 0.105976)
(8.914e-05 8.91184e-05 0.10575)
(-3.32159e-05 -3.31898e-05 0.105874)
(3.75503e-05 5.66197e-05 0.108916)
(-3.72611e-05 5.64467e-05 0.108915)
(3.5184e-05 5.37658e-05 0.108897)
(-3.56781e-05 5.40321e-05 0.108897)
(-8.89634e-05 8.89431e-05 0.10575)
(3.28468e-05 -3.2835e-05 0.105874)
(5.65531e-05 3.74429e-05 0.108917)
(5.64649e-05 -3.73857e-05 0.108915)
(5.37258e-05 3.50927e-05 0.108899)
(5.40227e-05 -3.55914e-05 0.108896)
(-5.63561e-05 -3.71516e-05 0.108915)
(-5.39535e-05 3.54971e-05 0.108899)
(-5.40754e-05 -3.57412e-05 0.108897)
(8.91582e-05 -8.91928e-05 0.10575)
(-3.29761e-05 3.30329e-05 0.105873)
(-3.70783e-05 -5.62969e-05 0.108917)
(3.54161e-05 -5.39725e-05 0.108898)
(-3.56815e-05 -5.40216e-05 0.108898)
(3.28206e-05 3.28259e-05 0.105873)
(8.42893e-05 8.42568e-05 0.10565)
(-3.38993e-05 -3.38702e-05 0.105773)
(3.44567e-05 5.28003e-05 0.10889)
(-3.48254e-05 5.30559e-05 0.10889)
(3.34537e-05 5.06872e-05 0.108866)
(-3.27628e-05 5.03849e-05 0.108865)
(-8.46226e-05 8.45546e-05 0.10565)
(3.43391e-05 -3.42133e-05 0.105773)
(5.27361e-05 3.4394e-05 0.108892)
(5.29371e-05 -3.46297e-05 0.108889)
(5.06257e-05 3.3356e-05 0.108867)
(5.03984e-05 -3.28484e-05 0.108865)
(-5.32509e-05 -3.50699e-05 0.10889)
(-5.0275e-05 3.28472e-05 0.108868)
(-5.01886e-05 -3.25429e-05 0.108865)
(8.44194e-05 -8.44772e-05 0.10565)
(-3.40993e-05 3.42608e-05 0.105772)
(-3.50448e-05 -5.31868e-05 0.108891)
(3.29319e-05 -5.02729e-05 0.108867)
(-3.24731e-05 -5.01264e-05 0.108866)
(3.46154e-05 3.46191e-05 0.105771)
(8.06771e-05 8.06161e-05 0.105553)
(-3.59236e-05 -3.58915e-05 0.105675)
(3.27729e-05 4.9917e-05 0.108857)
(-3.23601e-05 4.96258e-05 0.108857)
(2.97873e-05 4.66906e-05 0.108827)
(-3.07349e-05 4.71657e-05 0.108827)
(-8.04315e-05 8.05051e-05 0.105553)
(3.55852e-05 -3.56483e-05 0.105675)
(4.98807e-05 3.26431e-05 0.108858)
(4.98036e-05 -3.25644e-05 0.108856)
(4.66521e-05 2.9745e-05 0.108828)
(4.69884e-05 -3.0455e-05 0.108826)
(-4.94041e-05 -3.21268e-05 0.108856)
(-4.71483e-05 3.04335e-05 0.108829)
(-4.72335e-05 -3.06294e-05 0.108827)
(8.06533e-05 -8.05539e-05 0.105553)
(-3.58276e-05 3.57318e-05 0.105674)
(-3.20288e-05 -4.93507e-05 0.108858)
(3.01703e-05 -4.69936e-05 0.108828)
(-3.06088e-05 -4.71915e-05 0.108829)
(3.54118e-05 3.54266e-05 0.105674)
(7.60271e-05 7.59998e-05 0.105459)
(-3.61627e-05 -3.61753e-05 0.10558)
(2.9302e-05 4.57711e-05 0.108817)
(-2.9957e-05 4.62752e-05 0.108816)
(2.89364e-05 4.4181e-05 0.108783)
(-2.76871e-05 4.35909e-05 0.108782)
(-7.6177e-05 7.60293e-05 0.105458)
(3.67665e-05 -3.6581e-05 0.10558)
(4.57015e-05 2.92727e-05 0.108818)
(4.5944e-05 -2.96439e-05 0.108815)
(4.41404e-05 2.87342e-05 0.108785)
(4.39587e-05 -2.8174e-05 0.108782)
(-4.6261e-05 -2.97815e-05 0.108816)
(-4.34214e-05 2.78498e-05 0.108785)
(-4.3573e-05 -2.7969e-05 0.108782)
(7.58521e-05 -7.60527e-05 0.105458)
(-3.62898e-05 3.65041e-05 0.105579)
(-2.97743e-05 -4.62063e-05 0.108818)
(2.83433e-05 -4.37546e-05 0.108784)
(-2.78005e-05 -4.35437e-05 0.108784)
(3.66932e-05 3.66612e-05 0.105579)
(7.29127e-05 7.28269e-05 0.105368)
(-3.8426e-05 -3.82575e-05 0.105488)
(2.81153e-05 4.33823e-05 0.108771)
(-2.72142e-05 4.27519e-05 0.108771)
(2.46354e-05 3.9974e-05 0.108733)
(-2.61694e-05 4.06617e-05 0.108733)
(-7.24381e-05 7.2575e-05 0.105368)
(3.75388e-05 -3.7707e-05 0.105489)
(4.33916e-05 2.7936e-05 0.108773)
(4.3228e-05 -2.75324e-05 0.10877)
(3.98221e-05 2.48456e-05 0.108734)
(3.99684e-05 -2.52578e-05 0.108732)
(-4.28873e-05 -2.75608e-05 0.108771)
(-4.07237e-05 2.57789e-05 0.108736)
(-4.04864e-05 -2.55567e-05 0.108733)
(7.2828e-05 -7.26873e-05 0.105368)
(-3.81905e-05 3.80021e-05 0.105488)
(-2.74093e-05 -4.2871e-05 0.108772)
(2.48704e-05 -4.00433e-05 0.108735)
(-2.57878e-05 -4.03521e-05 0.108735)
(3.77152e-05 3.78794e-05 0.105487)
(6.84181e-05 6.85298e-05 0.105281)
(-3.8024e-05 -3.83261e-05 0.105402)
(2.43316e-05 3.91866e-05 0.108721)
(-2.54324e-05 3.9849e-05 0.10872)
(2.4241e-05 3.74846e-05 0.108682)
(-2.27867e-05 3.69192e-05 0.10868)
(-6.90691e-05 6.88238e-05 0.105281)
(3.89595e-05 -3.87682e-05 0.105401)
(3.9014e-05 2.44718e-05 0.108722)
(3.91551e-05 -2.49713e-05 0.10872)
(3.76457e-05 2.36701e-05 0.108684)
(3.779e-05 -2.40579e-05 0.10868)
(-3.9593e-05 -2.49342e-05 0.10872)
(-3.67522e-05 2.28964e-05 0.108683)
(-3.72154e-05 -2.36074e-05 0.10868)
(6.85496e-05 -6.88232e-05 0.105281)
(-3.81551e-05 3.83438e-05 0.1054)
(-2.51033e-05 -3.94558e-05 0.108721)
(2.41761e-05 -3.7613e-05 0.108683)
(-2.30588e-05 -3.73656e-05 0.108682)
(3.87134e-05 3.84347e-05 0.1054)
(6.60716e-05 6.57444e-05 0.105198)
(-3.99674e-05 -3.95167e-05 0.105316)
(2.34722e-05 3.66558e-05 0.108668)
(-2.23994e-05 3.61741e-05 0.108668)
(2.05879e-05 3.40159e-05 0.108625)
(-2.17636e-05 3.44986e-05 0.108626)
(-6.5434e-05 6.5591e-05 0.105198)
(3.92782e-05 -3.92313e-05 0.105317)
(3.68001e-05 2.29732e-05 0.10867)
(3.69904e-05 -2.30711e-05 0.108666)
(3.3696e-05 2.11798e-05 0.108626)
(3.35648e-05 -2.02148e-05 0.108623)
(-3.63855e-05 -2.28628e-05 0.108667)
(-3.43933e-05 2.18111e-05 0.108629)
(-3.39579e-05 -2.05593e-05 0.108626)
(6.58879e-05 -6.5754e-05 0.105197)
(-3.99444e-05 3.99841e-05 0.105316)
(-2.23869e-05 -3.65196e-05 0.108668)
(2.02582e-05 -3.34859e-05 0.108626)
(-2.11741e-05 -3.36437e-05 0.108627)
(3.9399e-05 3.98314e-05 0.105317)
(6.21976e-05 6.26049e-05 0.105117)
(-4.00259e-05 -4.04148e-05 0.105237)
(2.01511e-05 3.33305e-05 0.108611)
(-2.11557e-05 3.3712e-05 0.108611)
(1.94353e-05 3.09732e-05 0.108569)
(-1.87401e-05 3.07564e-05 0.108567)
(-6.26846e-05 6.26225e-05 0.105118)
(4.04597e-05 -4.06399e-05 0.105236)
(3.29932e-05 2.07645e-05 0.108612)
(3.27495e-05 -2.0038e-05 0.10861)
(3.11835e-05 1.88055e-05 0.108571)
(3.13856e-05 -2.0038e-05 0.108569)
(-3.33257e-05 -2.03122e-05 0.108612)
(-3.08111e-05 1.83645e-05 0.10857)
(-3.11661e-05 -1.97919e-05 0.108569)
(6.22111e-05 -6.22963e-05 0.105118)
(-3.99273e-05 3.97629e-05 0.105237)
(-2.09512e-05 -3.30029e-05 0.108613)
(1.96629e-05 -3.1445e-05 0.108572)
(-1.91803e-05 -3.13714e-05 0.10857)
(4.03646e-05 3.99696e-05 0.105236)
(5.98434e-05 5.93638e-05 0.105043)
(-4.10766e-05 -4.08763e-05 0.10516)
(1.89492e-05 3.01014e-05 0.108554)
(-1.81805e-05 2.99184e-05 0.108553)
(1.70681e-05 2.80634e-05 0.108511)
(-1.72506e-05 2.81521e-05 0.108511)
(-5.94842e-05 5.92759e-05 0.105042)
(4.08652e-05 -4.07427e-05 0.105162)
(3.03819e-05 1.81079e-05 0.108556)
(3.07181e-05 -1.94036e-05 0.108554)
(2.79459e-05 1.71416e-05 0.108512)
(2.79012e-05 -1.65971e-05 0.108507)
(-3.02838e-05 -1.91925e-05 0.108553)
(-2.80263e-05 1.73325e-05 0.108514)
(-2.79816e-05 -1.68051e-05 0.108509)
(5.98073e-05 -6.00288e-05 0.105042)
(-4.1244e-05 4.13784e-05 0.105159)
(-1.83677e-05 -3.05657e-05 0.108555)
(1.66784e-05 -2.7781e-05 0.10851)
(-1.68963e-05 -2.78731e-05 0.10851)
(4.09756e-05 4.11542e-05 0.105159)
(5.68464e-05 5.71064e-05 0.10497)
(-4.16008e-05 -4.15126e-05 0.105088)
(1.65265e-05 2.75135e-05 0.108496)
(-1.69056e-05 2.75888e-05 0.108497)
(1.52536e-05 2.53629e-05 0.108452)
(-1.54308e-05 2.54192e-05 0.108451)
(-5.70681e-05 5.71556e-05 0.104971)
(4.15883e-05 -4.15794e-05 0.105088)
(2.72622e-05 1.69313e-05 0.108498)
(2.70928e-05 -1.60334e-05 0.108493)
(2.52571e-05 1.54033e-05 0.108454)
(2.53497e-05 -1.54717e-05 0.108452)
(-2.73592e-05 -1.62129e-05 0.108495)
(-2.53414e-05 1.54297e-05 0.108454)
(-2.53224e-05 -1.52327e-05 0.108452)
(5.67051e-05 -5.66236e-05 0.104969)
(-4.13116e-05 4.13266e-05 0.105089)
(-1.66347e-05 -2.712e-05 0.108496)
(1.54676e-05 -2.52898e-05 0.108455)
(-1.53924e-05 -2.52218e-05 0.108454)
(4.14436e-05 4.15179e-05 0.105088)
(5.44267e-05 5.43881e-05 0.104902)
(-4.21034e-05 -4.22226e-05 0.10502)
(1.48771e-05 2.45486e-05 0.108438)
(-1.48998e-05 2.46122e-05 0.108436)
(1.36825e-05 2.23763e-05 0.108394)
(-1.35372e-05 2.24137e-05 0.108393)
(-5.44109e-05 5.43354e-05 0.104902)
(4.21335e-05 -4.21966e-05 0.10502)
(2.45449e-05 1.47557e-05 0.108439)
(2.47264e-05 -1.51961e-05 0.108437)
(2.24307e-05 1.33738e-05 0.108396)
(2.25061e-05 -1.36703e-05 0.108392)
(-2.45678e-05 -1.49554e-05 0.108438)
(-2.23977e-05 1.33581e-05 0.108396)
(-2.24451e-05 -1.37762e-05 0.108394)
(5.46162e-05 -5.47043e-05 0.104903)
(-4.22722e-05 4.22212e-05 0.105018)
(-1.48447e-05 -2.45749e-05 0.108439)
(1.34902e-05 -2.24998e-05 0.108395)
(-1.3479e-05 -2.25039e-05 0.108395)
(4.22149e-05 4.20826e-05 0.105019)
(5.21097e-05 5.2007e-05 0.104838)
(-4.26551e-05 -4.25324e-05 0.104955)
(1.32572e-05 2.17762e-05 0.10838)
(-1.31531e-05 2.17676e-05 0.108379)
(1.19635e-05 1.99199e-05 0.108337)
(-1.20155e-05 1.99059e-05 0.108336)
(-5.20942e-05 5.19986e-05 0.104838)
(4.26289e-05 -4.25881e-05 0.104955)
(2.17666e-05 1.30735e-05 0.108381)
(2.1787e-05 -1.31385e-05 0.108378)
(1.98098e-05 1.20465e-05 0.108338)
(1.98458e-05 -1.19011e-05 0.108335)
(-2.17995e-05 -1.32898e-05 0.108379)
(-1.9816e-05 1.19901e-05 0.108339)
(-1.9926e-05 -1.19222e-05 0.108336)
(5.1906e-05 -5.20071e-05 0.104837)
(-4.25666e-05 4.2617e-05 0.104954)
(-1.31171e-05 -2.17985e-05 0.108381)
(1.18719e-05 -1.97671e-05 0.108338)
(-1.20126e-05 -1.98189e-05 0.108337)
(4.25354e-05 4.26438e-05 0.104954)
(4.9866e-05 4.99454e-05 0.104777)
(-4.30107e-05 -4.30224e-05 0.104894)
(1.15677e-05 1.92868e-05 0.108322)
(-1.16389e-05 1.92929e-05 0.108322)
(1.05352e-05 1.74248e-05 0.10828)
(-1.05083e-05 1.7462e-05 0.10828)
(-4.99001e-05 4.98959e-05 0.104777)
(4.30401e-05 -4.29915e-05 0.104894)
(1.91744e-05 1.16365e-05 0.108324)
(1.92201e-05 -1.1549e-05 0.108321)
(1.73789e-05 1.04497e-05 0.108282)
(1.74553e-05 -1.05481e-05 0.108279)
(-1.92914e-05 -1.15256e-05 0.108322)
(-1.73656e-05 1.05216e-05 0.108283)
(-1.73864e-05 -1.04594e-05 0.10828)
(4.99277e-05 -4.99404e-05 0.104777)
(-4.29826e-05 4.30359e-05 0.104893)
(-1.16032e-05 -1.91903e-05 0.108323)
(1.0555e-05 -1.7369e-05 0.108282)
(-1.03811e-05 -1.7347e-05 0.108281)
(4.30524e-05 4.3027e-05 0.104893)
(4.79191e-05 4.7868e-05 0.10472)
(1.01959e-05 1.68268e-05 0.108266)
(-1.01535e-05 1.68557e-05 0.108266)
(-4.78881e-05 4.78825e-05 0.10472)
(1.67902e-05 1.00795e-05 0.108268)
(1.68855e-05 -1.02239e-05 0.108265)
(-1.67742e-05 -1.01399e-05 0.108266)
(4.79086e-05 -4.79275e-05 0.10472)
(-1.0031e-05 -1.67478e-05 0.108267)
(6.11978e-05 6.12301e-05 0.108853)
(-6.12164e-05 6.12116e-05 0.108853)
(6.12013e-05 -6.11955e-05 0.108853)
(-6.12312e-05 -6.12323e-05 0.108853)
(1.8044e-06 2.13583e-05 0.0940162)
(-1.43949e-06 1.96051e-05 0.0835893)
(1.94216e-06 4.42095e-05 0.0940749)
(-3.59122e-06 -4.19119e-08 0.0835676)
(-1.96883e-06 6.68006e-06 0.0721748)
(3.37985e-06 -1.78764e-06 0.0721782)
(2.13681e-05 1.79853e-06 0.0940153)
(1.96664e-05 -1.43303e-06 0.0835898)
(4.42855e-05 1.94852e-06 0.0940753)
(-7.57482e-08 -3.58895e-06 0.0835672)
(-6.08206e-05 6.08102e-05 0.108928)
(6.08439e-05 -6.08395e-05 0.108928)
(-6.0798e-05 -6.07986e-05 0.108928)
(5.9734e-05 5.97628e-05 0.109153)
(-5.97497e-05 5.97356e-05 0.109153)
(5.97491e-05 -5.97474e-05 0.109153)
(-5.97561e-05 -5.97602e-05 0.109153)
(-6.15259e-05 4.33332e-06 0.102462)
(-6.08615e-05 1.61696e-05 0.0957203)
(-0.000101124 1.8654e-05 0.10862)
(-9.67758e-05 5.95676e-05 0.108021)
(-0.000105375 4.71879e-06 0.102453)
(-2.86914e-05 5.05853e-06 0.0957153)
(-0.000100823 1.84925e-05 0.108686)
(6.66524e-06 -1.79232e-06 0.0721722)
(-1.76454e-06 3.26515e-06 0.0721803)
(4.34495e-06 -6.15923e-05 0.102462)
(1.8674e-05 -0.000101073 0.10862)
(1.62993e-05 -6.06562e-05 0.0957212)
(5.95069e-05 -9.67465e-05 0.108021)
(4.66155e-06 -0.000105429 0.102452)
(1.84734e-05 -0.000100746 0.108686)
(4.84364e-06 -2.87557e-05 0.0957135)
(-2.90169e-05 -1.28337e-05 0.0894005)
(-1.28203e-05 -2.90347e-05 0.0893987)
(7.42576e-06 7.45235e-06 0.106801)
(-1.79787e-05 -8.97633e-07 0.0893674)
(-8.3056e-07 -1.79813e-05 0.0893648)
(1.47975e-06 1.75023e-05 0.0937163)
(-1.15497e-06 1.80259e-05 0.0833667)
(1.64734e-06 3.9583e-05 0.0937644)
(-3.37645e-06 -1.18596e-06 0.0833525)
(-2.06612e-06 6.41437e-06 0.0720242)
(3.28568e-06 -1.90569e-06 0.0720314)
(1.74458e-05 1.49019e-06 0.0937155)
(1.80727e-05 -1.17395e-06 0.0833672)
(3.96104e-05 1.63374e-06 0.0937648)
(-1.22548e-06 -3.36851e-06 0.0833521)
(-5.93745e-05 5.93581e-05 0.109226)
(5.93884e-05 -5.93893e-05 0.109226)
(-5.93519e-05 -5.93533e-05 0.109226)
(5.82876e-05 5.83004e-05 0.109444)
(-5.82701e-05 5.82602e-05 0.109444)
(5.82878e-05 -5.8287e-05 0.109443)
(-5.82974e-05 -5.82802e-05 0.109444)
(-5.49835e-05 3.49549e-06 0.10219)
(-5.63251e-05 1.49014e-05 0.0954291)
(-9.98789e-05 1.80879e-05 0.108878)
(-9.43593e-05 5.85475e-05 0.108194)
(-9.79448e-05 3.80057e-06 0.102184)
(-2.50242e-05 3.66606e-06 0.0954286)
(-9.96048e-05 1.79426e-05 0.10894)
(6.39572e-06 -1.87697e-06 0.0720216)
(-1.89215e-06 3.14368e-06 0.0720333)
(3.57699e-06 -5.4952e-05 0.10219)
(1.80893e-05 -9.98786e-05 0.108878)
(1.48546e-05 -5.61863e-05 0.09543)
(5.84857e-05 -9.43312e-05 0.108193)
(3.82083e-06 -9.78767e-05 0.102183)
(1.79157e-05 -9.95991e-05 0.10894)
(3.63974e-06 -2.50976e-05 0.095427)
(-2.64976e-05 -1.21678e-05 0.0891484)
(-1.21092e-05 -2.64981e-05 0.0891466)
(9.56639e-06 9.58431e-06 0.106826)
(-1.59079e-05 -1.67718e-07 0.0891224)
(-1.57575e-07 -1.58893e-05 0.0891198)
(1.15055e-06 1.44935e-05 0.0934454)
(-1.12123e-06 1.68387e-05 0.0831659)
(1.33203e-06 3.59718e-05 0.0934839)
(-3.24551e-06 -1.84485e-06 0.0831582)
(-2.08252e-06 6.28789e-06 0.0718873)
(3.11842e-06 -1.97221e-06 0.0718979)
(1.44411e-05 1.16982e-06 0.0934445)
(1.68892e-05 -1.12305e-06 0.0831663)
(3.60026e-05 1.34614e-06 0.0934843)
(-1.8874e-06 -3.23447e-06 0.0831578)
(-5.79016e-05 5.78905e-05 0.109515)
(5.78969e-05 -5.78966e-05 0.109515)
(-5.7892e-05 -5.78697e-05 0.109515)
(5.67612e-05 5.67784e-05 0.109725)
(-5.67576e-05 5.67485e-05 0.109725)
(5.67707e-05 -5.67737e-05 0.109725)
(-5.68015e-05 -5.67792e-05 0.109725)
(-4.86176e-05 2.94223e-06 0.101918)
(-5.20099e-05 1.36317e-05 0.0951591)
(-9.87444e-05 1.76055e-05 0.109122)
(-9.18948e-05 5.75497e-05 0.108348)
(-9.03347e-05 3.18706e-06 0.101912)
(-2.1688e-05 2.6959e-06 0.0951627)
(-9.84286e-05 1.74866e-05 0.109181)
(6.20331e-06 -1.99491e-06 0.0718846)
(-1.90281e-06 3.04231e-06 0.0718998)
(2.96153e-06 -4.86015e-05 0.101918)
(1.76061e-05 -9.87455e-05 0.109122)
(1.35485e-05 -5.20812e-05 0.0951599)
(5.75058e-05 -9.18793e-05 0.108348)
(3.25919e-06 -9.03084e-05 0.101912)
(1.74751e-05 -9.84235e-05 0.10918)
(2.77169e-06 -2.16347e-05 0.0951612)
(-2.43643e-05 -1.12412e-05 0.088919)
(-1.12292e-05 -2.43562e-05 0.0889172)
(1.17902e-05 1.18445e-05 0.106826)
(-1.39329e-05 5.92362e-08 0.0888995)
(6.11175e-08 -1.39179e-05 0.088897)
(8.63577e-07 1.20452e-05 0.0932006)
(-1.08425e-06 1.60884e-05 0.0829845)
(1.03075e-06 3.30053e-05 0.0932307)
(-3.29738e-06 -2.20161e-06 0.0829826)
(-2.11094e-06 6.16559e-06 0.0717629)
(3.07723e-06 -1.93656e-06 0.0717766)
(1.19956e-05 8.81973e-07 0.0931998)
(1.61404e-05 -1.08243e-06 0.082985)
(3.30421e-05 1.05008e-06 0.093231)
(-2.23895e-06 -3.27847e-06 0.0829823)
(-5.63682e-05 5.63615e-05 0.109794)
(5.63583e-05 -5.63579e-05 0.109794)
(-5.63877e-05 -5.63654e-05 0.109794)
(5.52906e-05 5.53123e-05 0.109998)
(-5.52856e-05 5.52804e-05 0.109998)
(5.52767e-05 -5.52781e-05 0.109997)
(-5.53234e-05 -5.5299e-05 0.109997)
(-4.26654e-05 2.43435e-06 0.101651)
(-4.84369e-05 1.24259e-05 0.0949091)
(-9.74255e-05 1.71964e-05 0.109352)
(-8.92279e-05 5.64617e-05 0.108483)
(-8.31764e-05 2.71055e-06 0.101645)
(-1.87167e-05 1.99433e-06 0.0949167)