/*--------------------------------*- C++ -*----------------------------------*\
| =========                 |                                                 |
| \\      /  F ield         | OpenFOAM: The Open Source CFD Toolbox           |
|  \\    /   O peration     | Version:  v1906                                 |
|   \\  /    A nd           | Web:      www.OpenFOAM.com                      |
|    \\/     M anipulation  |                                                 |
\*---------------------------------------------------------------------------*/
FoamFile
{
    version     2.0;
    format      ascii;
    class       volScalarField;
    location    "500";
    object      epsilon;
}
// * * * * * * * * * * * * * * * * * * * * * * * * * * * * * * * * * * * * * //

dimensions      [0 2 -3 0 0 0 0];


internalField   nonuniform List<scalar> 
43248
(
1.14841e-06
8.63008e-07
8.62999e-07
1.14859e-06
8.62768e-07
8.63061e-07
8.62823e-07
8.63058e-07
1.14847e-06
8.62943e-07
8.62924e-07
1.14875e-06
3.197e-07
3.19706e-07
3.19783e-07
3.19789e-07
1.84275e-05
1.84293e-05
5.46241e-06
5.46362e-06
4.09136e-06
9.16111e-06
4.09341e-06
4.09151e-06
9.16234e-06
9.15536e-06
4.09381e-06
2.10213e-06
3.47457e-06
5.58193e-07
5.5229e-07
2.10677e-06
2.10219e-06
8.56926e-07
3.47477e-06
5.5825e-07
3.47175e-06
5.52358e-07
2.10691e-06
1.84289e-05
1.84185e-05
1.144e-06
5.46385e-06
5.4619e-06
5.46103e-06
5.45934e-06
1.84263e-05
1.84159e-05
9.16309e-06
4.09396e-06
3.47539e-06
5.58293e-07
2.10698e-06
9.16254e-06
4.0938e-06
5.58313e-07
3.47543e-06
2.10692e-06
2.10235e-06
8.56751e-07
3.4746e-06
5.58247e-07
3.4716e-06
5.5236e-07
2.10689e-06
4.09162e-06
9.16198e-06
9.15524e-06
4.09372e-06
2.10224e-06
8.56976e-07
5.58311e-07
3.47508e-06
5.52419e-07
3.47127e-06
2.10682e-06
4.09153e-06
9.16207e-06
9.15531e-06
4.09379e-06
1.84297e-05
5.46372e-06
5.46217e-06
1.84282e-05
2.10237e-06
5.58346e-07
3.47459e-06
5.52439e-07
2.10694e-06
2.10239e-06
8.56849e-07
5.58343e-07
3.47555e-06
5.52453e-07
3.47207e-06
2.10695e-06
4.09168e-06
9.16225e-06
4.09369e-06
4.09174e-06
9.16305e-06
9.15656e-06
4.09373e-06
1.14387e-06
5.46221e-06
5.4641e-06
5.45937e-06
5.46127e-06
1.84284e-05
1.84181e-05
1.84302e-05
1.84199e-05
1.84223e-05
1.84246e-05
4.53788e-06
2.812e-06
5.46164e-06
9.50071e-06
9.49665e-06
2.81005e-06
4.5408e-06
4.5443e-06
2.81125e-06
5.46346e-06
9.50383e-06
9.50087e-06
2.81213e-06
4.54286e-06
9.73616e-06
2.17308e-05
2.17286e-05
2.1724e-05
2.17228e-05
9.7357e-06
1.22032e-05
1.08244e-05
4.74415e-06
4.0918e-06
1.22006e-05
1.08265e-05
4.74417e-06
2.20539e-05
9.1584e-06
7.08831e-06
7.08885e-06
2.20607e-05
1.2204e-05
4.09343e-06
1.08296e-05
4.74578e-06
1.08275e-05
4.74578e-06
1.22066e-05
1.22036e-05
1.08241e-05
4.74437e-06
4.09197e-06
1.22007e-05
1.08271e-05
4.7446e-06
2.20545e-05
9.15931e-06
7.09005e-06
7.09042e-06
2.20611e-05
2.20565e-05
7.08944e-06
9.15832e-06
2.20499e-05
7.08905e-06
1.22039e-05
4.0935e-06
1.08303e-05
4.74625e-06
1.08273e-05
4.74585e-06
1.22072e-05
1.84239e-05
1.84235e-05
9.7334e-06
2.17174e-05
2.17181e-05
9.73378e-06
2.17237e-05
2.17244e-05
4.54437e-06
2.81241e-06
5.4635e-06
9.50436e-06
2.81137e-06
9.50068e-06
4.54483e-06
4.53835e-06
2.81124e-06
5.46166e-06
9.49973e-06
9.49604e-06
2.81018e-06
4.53883e-06
4.54219e-06
9.49603e-06
2.80817e-06
5.46158e-06
2.80917e-06
4.54175e-06
9.49962e-06
4.53618e-06
9.49138e-06
2.80699e-06
5.45957e-06
4.53577e-06
9.49498e-06
2.80798e-06
9.73575e-06
2.17288e-05
2.17295e-05
2.17225e-05
2.17231e-05
9.73539e-06
1.84213e-05
1.84209e-05
2.20544e-05
9.16014e-06
7.08998e-06
7.09033e-06
2.2061e-05
1.22041e-05
4.09338e-06
4.74617e-06
1.08308e-05
4.74589e-06
1.08277e-05
1.22075e-05
2.20543e-05
9.15957e-06
7.08855e-06
7.08905e-06
2.20612e-05
1.22043e-05
4.09338e-06
1.08306e-05
4.74602e-06
1.08276e-05
4.74586e-06
1.22074e-05
1.22032e-05
4.7443e-06
1.08244e-05
4.09203e-06
1.22005e-05
4.74439e-06
1.08273e-05
2.20533e-05
9.15947e-06
7.08958e-06
7.08994e-06
2.20599e-05
2.20553e-05
7.08895e-06
9.15817e-06
2.20487e-05
7.08858e-06
1.22039e-05
4.09356e-06
4.74601e-06
1.08306e-05
4.74591e-06
1.08275e-05
1.22065e-05
1.22038e-05
1.08243e-05
4.74406e-06
4.0919e-06
1.22008e-05
1.08272e-05
4.74435e-06
2.20542e-05
9.15947e-06
7.0882e-06
7.08857e-06
2.20608e-05
2.20562e-05
7.08758e-06
9.15824e-06
2.20496e-05
7.08719e-06
1.22042e-05
4.09343e-06
1.08305e-05
4.74592e-06
1.08274e-05
4.74566e-06
1.22073e-05
1.84247e-05
4.5449e-06
2.81215e-06
5.46353e-06
9.50446e-06
2.81159e-06
9.50081e-06
4.54502e-06
4.53879e-06
2.81109e-06
5.4617e-06
9.49982e-06
9.49623e-06
2.81051e-06
4.53913e-06
9.73665e-06
2.17299e-05
2.17303e-05
2.17236e-05
2.1724e-05
9.73625e-06
1.84233e-05
1.22035e-05
4.74421e-06
1.0825e-05
4.09178e-06
1.2201e-05
4.74421e-06
1.0827e-05
2.20542e-05
9.15957e-06
7.08822e-06
7.08857e-06
2.20608e-05
2.20562e-05
7.08719e-06
1.22044e-05
4.09355e-06
4.74574e-06
1.08302e-05
4.74575e-06
1.08282e-05
1.22069e-05
1.22034e-05
4.74445e-06
1.08251e-05
4.09182e-06
1.22008e-05
4.74437e-06
1.08271e-05
2.20539e-05
9.16057e-06
7.08987e-06
7.09038e-06
2.20608e-05
2.20562e-05
7.08939e-06
9.15913e-06
2.20494e-05
7.08887e-06
1.22042e-05
4.09362e-06
4.74607e-06
1.08303e-05
4.7461e-06
1.08282e-05
1.22067e-05
9.73407e-06
2.17191e-05
2.17184e-05
9.73446e-06
2.17254e-05
2.17247e-05
4.53884e-06
2.8114e-06
5.46171e-06
9.49986e-06
2.81048e-06
9.49653e-06
4.53887e-06
4.54486e-06
2.81261e-06
5.46372e-06
9.5047e-06
2.81155e-06
9.50124e-06
4.545e-06
4.5363e-06
9.4917e-06
2.80734e-06
5.45987e-06
4.53621e-06
2.80793e-06
9.49527e-06
4.54233e-06
9.49677e-06
2.80837e-06
5.46181e-06
4.54224e-06
2.80935e-06
9.49987e-06
9.73643e-06
2.17304e-05
2.17297e-05
2.17241e-05
2.17234e-05
9.73607e-06
1.84235e-05
1.8423e-05
1.84252e-05
1.84248e-05
2.66785e-06
1.14921e-06
1.76877e-06
1.76727e-06
1.76719e-06
1.76793e-06
2.66855e-06
2.6678e-06
1.14904e-06
1.76825e-06
1.76809e-06
1.76775e-06
1.76758e-06
2.66849e-06
2.66828e-06
1.14944e-06
1.7678e-06
1.7677e-06
1.76813e-06
1.76791e-06
2.66812e-06
2.66832e-06
1.149e-06
1.76799e-06
1.76832e-06
1.76755e-06
1.76783e-06
2.66813e-06
1.66603e-07
1.66594e-07
1.64493e-07
7.94011e-08
7.99433e-08
3.15766e-07
1.66612e-07
1.66571e-07
1.645e-07
1.64461e-07
7.9399e-08
7.99407e-08
1.66655e-07
1.66625e-07
1.64509e-07
7.94175e-08
7.99605e-08
3.15845e-07
1.66652e-07
1.66624e-07
1.64538e-07
1.64512e-07
7.94172e-08
7.996e-08
1.41071e-06
2.36141e-06
1.27341e-06
2.1031e-06
1.41055e-06
2.36228e-06
1.27396e-06
1.61678e-06
2.03221e-06
3.47443e-06
2.85988e-06
2.03167e-06
2.85972e-06
1.61711e-06
1.41562e-06
2.10582e-06
2.36567e-06
1.27941e-06
2.36477e-06
1.27872e-06
1.41576e-06
1.41094e-06
2.36171e-06
1.27335e-06
2.10321e-06
1.41077e-06
2.36255e-06
1.27413e-06
1.6172e-06
2.03215e-06
3.47484e-06
2.86046e-06
2.86029e-06
2.03186e-06
1.61746e-06
1.61289e-06
2.85732e-06
2.0275e-06
3.47248e-06
1.61245e-06
2.85755e-06
2.0286e-06
1.41588e-06
2.10585e-06
2.36592e-06
1.27941e-06
2.36505e-06
1.27867e-06
1.41593e-06
2.66524e-06
1.14347e-06
1.76362e-06
1.76337e-06
1.76395e-06
2.66427e-06
1.76377e-06
1.61702e-06
2.03196e-06
3.47497e-06
2.86076e-06
2.03221e-06
2.86015e-06
1.6173e-06
1.41592e-06
2.10595e-06
2.36594e-06
1.27958e-06
2.36504e-06
1.27884e-06
1.41582e-06
1.61697e-06
2.03282e-06
3.47492e-06
2.85997e-06
2.85975e-06
2.03177e-06
1.61728e-06
1.41632e-06
2.10587e-06
1.27956e-06
2.36578e-06
1.27885e-06
2.36489e-06
1.41606e-06
1.40963e-06
2.36178e-06
1.27445e-06
2.10325e-06
1.41248e-06
2.36256e-06
1.27309e-06
1.61855e-06
2.03181e-06
3.47449e-06
2.86031e-06
2.03193e-06
2.86018e-06
1.61595e-06
1.61181e-06
2.85722e-06
2.02792e-06
3.47189e-06
1.61364e-06
2.02776e-06
2.85741e-06
1.41758e-06
2.10602e-06
2.3659e-06
1.27813e-06
2.36517e-06
1.27981e-06
1.41443e-06
1.41089e-06
1.27389e-06
2.36158e-06
2.10319e-06
1.41071e-06
1.27324e-06
2.3624e-06
1.61706e-06
2.03241e-06
3.47427e-06
2.8603e-06
2.85956e-06
2.03136e-06
1.61734e-06
1.61277e-06
2.85661e-06
2.02746e-06
3.47224e-06
1.61233e-06
2.85729e-06
2.02822e-06
1.41578e-06
2.10593e-06
1.27819e-06
2.36576e-06
1.2795e-06
2.36493e-06
1.41592e-06
1.40972e-06
1.27451e-06
2.36169e-06
2.1033e-06
1.4124e-06
1.27317e-06
2.36244e-06
1.61822e-06
2.03238e-06
3.4747e-06
2.86027e-06
2.03165e-06
2.8597e-06
1.61591e-06
1.61149e-06
2.85703e-06
1.41739e-06
2.10603e-06
1.27823e-06
2.36582e-06
1.27984e-06
2.36505e-06
1.41475e-06
1.41101e-06
1.27403e-06
2.36178e-06
2.1033e-06
1.41086e-06
1.27331e-06
2.36258e-06
1.61727e-06
2.03263e-06
3.47494e-06
2.86039e-06
2.86017e-06
2.03196e-06
1.61751e-06
1.61294e-06
2.85711e-06
2.02787e-06
3.47266e-06
1.61253e-06
2.85775e-06
2.02859e-06
1.41592e-06
2.10605e-06
1.27827e-06
2.36595e-06
1.27963e-06
2.36515e-06
1.41605e-06
2.66494e-06
1.14356e-06
1.7634e-06
1.76365e-06
2.66484e-06
1.76375e-06
1.76405e-06
1.33492e-07
2.30078e-07
2.30133e-07
3.57907e-07
3.51957e-07
2.27874e-07
2.27891e-07
3.51308e-07
2.27822e-07
2.27913e-07
2.27766e-07
2.27848e-07
3.52032e-07
2.27817e-07
2.2781e-07
3.51189e-07
3.5751e-07
3.76601e-07
2.30151e-07
2.30205e-07
2.37933e-07
2.37941e-07
3.57328e-07
3.76535e-07
2.30177e-07
2.30225e-07
2.37841e-07
2.37963e-07
2.30159e-07
2.37803e-07
2.37893e-07
3.56993e-07
3.77751e-07
2.3012e-07
2.37863e-07
2.37853e-07
3.77135e-07
1.34162e-07
1.34156e-07
1.34168e-07
1.34159e-07
3.68105e-06
8.9093e-06
3.65234e-06
8.91393e-06
1.84694e-05
1.84614e-05
3.68115e-06
8.91082e-06
3.6525e-06
8.91624e-06
1.33483e-07
1.33496e-07
1.33485e-07
1.31788e-07
1.31782e-07
1.31796e-07
1.31786e-07
1.15771e-06
2.79798e-06
1.58222e-07
2.32527e-07
1.12932e-06
2.82269e-06
1.58428e-07
1.84709e-05
1.8463e-05
1.15769e-06
1.58238e-07
2.79946e-06
2.3258e-07
1.12957e-06
1.5845e-07
2.82156e-06
5.13693e-06
5.13888e-06
3.63515e-07
5.14656e-06
5.14855e-06
1.84753e-05
1.84837e-05
1.84774e-05
1.84857e-05
3.45578e-07
5.12787e-06
5.13003e-06
5.1171e-06
5.11869e-06
3.60344e-06
8.90814e-06
8.9034e-06
3.63536e-06
3.60351e-06
8.90964e-06
8.90403e-06
3.63552e-06
1.08723e-06
2.25653e-07
2.78465e-06
1.58123e-07
2.76139e-06
1.5808e-07
1.11482e-06
1.08669e-06
2.257e-07
2.78519e-06
1.58126e-07
2.76172e-06
1.58086e-07
1.11548e-06
1.84764e-05
1.84847e-05
3.45692e-07
5.1313e-06
5.1293e-06
5.11714e-06
5.11537e-06
1.84749e-05
1.84833e-05
3.60333e-06
8.91045e-06
8.90475e-06
3.6356e-06
1.08728e-06
2.25668e-07
2.78531e-06
1.5814e-07
2.76176e-06
1.58093e-07
1.11467e-06
3.60349e-06
8.90989e-06
8.90426e-06
3.63552e-06
1.08723e-06
2.2572e-07
1.58135e-07
2.78671e-06
1.58095e-07
2.76008e-06
1.1147e-06
1.08667e-06
2.2558e-07
2.78602e-06
1.58116e-07
2.75959e-06
1.58073e-07
1.1153e-06
3.60379e-06
8.90943e-06
8.90464e-06
3.63631e-06
1.08659e-06
2.25651e-07
1.58121e-07
2.78625e-06
1.58082e-07
2.75963e-06
1.1153e-06
3.60356e-06
8.90902e-06
8.90416e-06
3.63568e-06
1.8478e-05
1.84863e-05
3.45172e-07
5.12984e-06
5.1282e-06
5.11887e-06
5.11711e-06
1.84762e-05
1.84846e-05
1.08727e-06
2.2563e-07
1.58128e-07
2.78478e-06
1.58087e-07
2.76114e-06
1.11514e-06
1.08678e-06
2.25615e-07
1.58117e-07
2.78534e-06
1.58077e-07
2.76187e-06
1.11568e-06
3.60365e-06
8.90953e-06
8.90388e-06
3.6363e-06
3.60355e-06
8.91058e-06
8.90497e-06
3.63578e-06
3.4553e-07
5.12809e-06
5.13008e-06
5.11705e-06
5.11899e-06
1.8476e-05
1.84845e-05
1.84777e-05
1.8486e-05
1.84682e-05
1.84602e-05
1.84702e-05
1.84622e-05
5.13696e-06
5.13851e-06
3.63766e-07
5.14698e-06
5.14841e-06
1.84459e-05
1.84534e-05
1.84475e-05
1.84554e-05
3.70022e-07
5.16378e-06
5.16494e-06
5.15433e-06
5.15646e-06
3.68117e-06
8.91008e-06
3.65248e-06
8.91547e-06
1.15721e-06
2.79937e-06
1.58229e-07
2.32638e-07
1.12978e-06
2.82121e-06
1.58434e-07
1.15785e-06
2.79968e-06
1.58239e-07
2.32653e-07
1.12924e-06
2.82181e-06
1.5844e-07
3.69632e-06
8.9195e-06
8.91506e-06
3.7216e-06
3.69635e-06
8.92094e-06
8.91584e-06
3.72176e-06
1.17226e-06
2.35173e-07
2.85606e-06
1.59098e-07
2.83533e-06
1.58727e-07
1.19926e-06
1.17175e-06
2.35232e-07
2.85648e-06
1.59104e-07
2.83565e-06
1.58736e-07
1.19996e-06
5.13723e-06
5.13533e-06
3.63399e-07
5.14965e-06
5.14766e-06
1.84679e-05
1.84599e-05
1.84469e-05
1.84545e-05
3.70278e-07
5.16664e-06
5.16466e-06
5.15523e-06
5.15338e-06
1.84454e-05
1.8453e-05
1.15742e-06
2.79974e-06
1.58245e-07
2.32576e-07
1.12996e-06
2.82186e-06
1.58456e-07
3.68108e-06
8.91034e-06
3.65253e-06
8.91572e-06
1.15727e-06
1.5825e-07
2.79865e-06
2.32675e-07
1.12996e-06
1.58449e-07
2.8233e-06
3.69649e-06
8.92165e-06
8.91659e-06
3.72204e-06
1.17235e-06
2.35206e-07
2.85636e-06
1.59122e-07
2.83576e-06
1.58745e-07
1.19967e-06
3.69635e-06
8.92117e-06
8.91611e-06
3.72243e-06
1.17241e-06
2.35254e-07
1.59112e-07
2.85788e-06
1.58747e-07
2.8347e-06
1.19941e-06
3.68188e-06
8.91056e-06
3.65207e-06
8.91526e-06
1.15781e-06
1.58232e-07
2.79814e-06
2.32609e-07
1.12929e-06
1.58433e-07
2.82285e-06
3.68111e-06
8.91009e-06
3.65255e-06
8.91485e-06
1.17186e-06
2.35097e-07
2.85713e-06
1.5909e-07
2.83393e-06
1.58721e-07
1.20001e-06
3.69593e-06
8.92071e-06
8.91634e-06
3.72281e-06
1.17178e-06
2.35183e-07
1.59095e-07
2.85564e-06
1.58728e-07
2.83428e-06
1.2e-06
3.69649e-06
8.92031e-06
8.91587e-06
3.72182e-06
5.13876e-06
5.1368e-06
3.64207e-07
5.1482e-06
5.14656e-06
1.84692e-05
1.84611e-05
1.84485e-05
1.84561e-05
3.69637e-07
5.16532e-06
5.16361e-06
5.15671e-06
5.15472e-06
1.84467e-05
1.84543e-05
1.15799e-06
1.58232e-07
2.79986e-06
2.32571e-07
1.12937e-06
1.58435e-07
2.82193e-06
3.68194e-06
8.90998e-06
3.65213e-06
8.91539e-06
3.68147e-06
8.91101e-06
3.6526e-06
8.9164e-06
1.17214e-06
2.35157e-07
1.59114e-07
2.85611e-06
1.58732e-07
2.83537e-06
1.1999e-06
1.17193e-06
2.35143e-07
1.59098e-07
2.85659e-06
1.58728e-07
2.83581e-06
1.20035e-06
3.69607e-06
8.92084e-06
8.91574e-06
3.72212e-06
3.69647e-06
8.92185e-06
8.91675e-06
3.7222e-06
1.8469e-05
1.8461e-05
1.84706e-05
1.84626e-05
3.70421e-07
5.16358e-06
5.16555e-06
5.15475e-06
5.15669e-06
1.84465e-05
1.84541e-05
1.84481e-05
1.84558e-05
1.21312e-05
3.67499e-06
1.06755e-05
4.49164e-06
1.06722e-05
4.48666e-06
1.21342e-05
2.24356e-05
7.21547e-06
8.91109e-06
2.2434e-05
7.21498e-06
1.21309e-05
3.659e-06
1.0667e-05
4.471e-06
1.21278e-05
1.06703e-05
4.47631e-06
2.24244e-05
7.2163e-06
8.91218e-06
7.217e-06
2.24259e-05
1.84688e-05
1.84619e-05
1.21315e-05
3.67532e-06
4.49186e-06
1.0676e-05
4.48707e-06
1.06727e-05
1.21345e-05
2.24362e-05
7.2172e-06
8.91339e-06
2.24349e-05
7.21692e-06
1.21312e-05
3.65914e-06
4.47143e-06
1.06675e-05
1.21281e-05
4.4766e-06
1.06708e-05
2.24252e-05
7.21825e-06
8.91376e-06
7.21876e-06
2.24266e-05
1.84704e-05
1.84634e-05
9.7311e-06
2.1913e-05
2.19124e-05
2.19127e-05
2.19121e-05
9.72942e-06
3.96209e-06
1.927e-06
9.03723e-06
5.13754e-06
3.95859e-06
1.93331e-06
9.04278e-06
3.97027e-06
1.92862e-06
9.04205e-06
5.13953e-06
3.96412e-06
1.93522e-06
9.0476e-06
9.72895e-06
2.19227e-05
2.19221e-05
9.73049e-06
2.1923e-05
2.19224e-05
3.97479e-06
9.04998e-06
5.14606e-06
1.95453e-06
1.94832e-06
9.0446e-06
3.97821e-06
3.98062e-06
9.05481e-06
5.148e-06
1.95657e-06
1.94946e-06
9.04947e-06
3.98624e-06
1.84759e-05
1.8483e-05
1.8478e-05
1.84851e-05
9.72692e-06
2.19424e-05
2.19424e-05
9.72821e-06
2.19426e-05
2.19428e-05
3.9403e-06
1.91143e-06
5.12756e-06
9.03459e-06
9.02967e-06
1.90537e-06
3.94616e-06
3.94771e-06
1.91352e-06
5.12909e-06
9.04035e-06
9.03462e-06
1.90635e-06
3.95167e-06
3.92901e-06
9.02194e-06
1.8829e-06
5.11775e-06
3.92235e-06
9.02686e-06
1.88934e-06
3.93561e-06
9.02671e-06
1.88429e-06
5.11988e-06
3.92951e-06
9.03258e-06
1.89146e-06
9.72934e-06
2.19324e-05
2.19326e-05
2.19322e-05
2.19323e-05
9.7279e-06
1.2124e-05
1.06571e-05
4.43745e-06
3.61095e-06
1.21209e-05
1.06601e-05
4.44226e-06
2.24436e-05
8.90628e-06
7.21308e-06
2.24452e-05
7.21347e-06
2.24549e-05
7.21101e-06
8.90515e-06
2.24532e-05
7.21066e-06
1.21244e-05
3.62845e-06
1.06651e-05
4.46016e-06
1.21275e-05
1.06618e-05
4.45486e-06
1.21242e-05
1.06573e-05
4.43764e-06
3.61112e-06
1.21211e-05
1.06602e-05
4.44299e-06
2.24449e-05
8.90701e-06
7.21535e-06
7.21543e-06
2.24464e-05
2.2456e-05
7.21298e-06
8.90664e-06
2.24545e-05
7.21307e-06
1.21246e-05
3.62865e-06
1.06652e-05
4.46012e-06
1.0662e-05
4.45529e-06
1.21277e-05
1.8477e-05
1.84841e-05
9.72679e-06
2.1942e-05
2.19427e-05
9.72805e-06
2.19423e-05
2.1943e-05
3.948e-06
1.91314e-06
5.1277e-06
9.0397e-06
1.90677e-06
9.03474e-06
3.95322e-06
3.94016e-06
1.91214e-06
5.12584e-06
9.03496e-06
9.03001e-06
1.90425e-06
3.94613e-06
3.93433e-06
9.02689e-06
1.88452e-06
5.12113e-06
1.89101e-06
3.93025e-06
9.03198e-06
3.92898e-06
9.0221e-06
1.88202e-06
5.11915e-06
3.92228e-06
9.02729e-06
1.88991e-06
9.72917e-06
2.19321e-05
2.19328e-05
2.19318e-05
2.19325e-05
9.72776e-06
1.84755e-05
1.84827e-05
1.21243e-05
4.43771e-06
1.06576e-05
3.61094e-06
1.21212e-05
4.4428e-06
1.06606e-05
2.24445e-05
8.90779e-06
7.21512e-06
2.24459e-05
7.21517e-06
2.24555e-05
7.21264e-06
8.90738e-06
2.2454e-05
7.21279e-06
1.21246e-05
3.62879e-06
4.46048e-06
1.06656e-05
1.21278e-05
4.45518e-06
1.06623e-05
1.21244e-05
1.06574e-05
4.43762e-06
3.61089e-06
1.21213e-05
1.06604e-05
4.44252e-06
2.24441e-05
8.90729e-06
7.21344e-06
7.21372e-06
2.24458e-05
2.24554e-05
7.21122e-06
8.90688e-06
2.24537e-05
7.21107e-06
1.21248e-05
3.62877e-06
1.06653e-05
4.45998e-06
1.06621e-05
4.45511e-06
1.21279e-05
1.2124e-05
4.43701e-06
1.06563e-05
3.61077e-06
1.21207e-05
4.44324e-06
1.0661e-05
2.2444e-05
8.90759e-06
7.21479e-06
7.21505e-06
2.24455e-05
2.24551e-05
7.21262e-06
8.90648e-06
2.24536e-05
7.21243e-06
1.21243e-05
3.62852e-06
4.46033e-06
1.0666e-05
4.45463e-06
1.06613e-05
1.21275e-05
1.21241e-05
1.06572e-05
4.4369e-06
3.61093e-06
1.2121e-05
1.06602e-05
4.44297e-06
2.24437e-05
8.90712e-06
7.21299e-06
7.21325e-06
2.24451e-05
2.24547e-05
7.21082e-06
8.90605e-06
2.24532e-05
7.21059e-06
1.21245e-05
3.62863e-06
1.06651e-05
4.46003e-06
1.06619e-05
4.45456e-06
1.21276e-05
1.84786e-05
1.84858e-05
9.72772e-06
2.19433e-05
2.19434e-05
9.72902e-06
2.19436e-05
2.19437e-05
3.94863e-06
1.91386e-06
5.12936e-06
9.04026e-06
1.90645e-06
9.03451e-06
3.95234e-06
3.94169e-06
1.91204e-06
5.12746e-06
9.03517e-06
9.02966e-06
1.90489e-06
3.94532e-06
3.93469e-06
9.02658e-06
1.88387e-06
5.11967e-06
1.89155e-06
3.93079e-06
9.0325e-06
3.9276e-06
9.02217e-06
1.88254e-06
5.11813e-06
3.92391e-06
9.02732e-06
1.8899e-06
9.73015e-06
2.19334e-05
2.19335e-05
2.19332e-05
2.19333e-05
9.72869e-06
1.84768e-05
1.8484e-05
1.21242e-05
4.43702e-06
1.06564e-05
3.61105e-06
1.2121e-05
4.44282e-06
1.06611e-05
2.2444e-05
8.90692e-06
7.21303e-06
7.21312e-06
2.24455e-05
2.24551e-05
7.21067e-06
8.90652e-06
2.24536e-05
7.21075e-06
1.21245e-05
3.62849e-06
4.4601e-06
1.06661e-05
4.45459e-06
1.06614e-05
1.21277e-05
1.2124e-05
4.43763e-06
1.06575e-05
3.61148e-06
1.21208e-05
4.44288e-06
1.06605e-05
2.24437e-05
8.90797e-06
7.21505e-06
7.21514e-06
2.24452e-05
2.24548e-05
7.21275e-06
8.90759e-06
2.24534e-05
7.21281e-06
1.21243e-05
3.62875e-06
4.46003e-06
1.06655e-05
4.45537e-06
1.06622e-05
1.21275e-05
9.72724e-06
2.1943e-05
2.19424e-05
9.72851e-06
2.19433e-05
2.19426e-05
3.94146e-06
1.91159e-06
5.12737e-06
9.03528e-06
3.94524e-06
1.90521e-06
9.02956e-06
3.94725e-06
1.91329e-06
5.12932e-06
9.04011e-06
3.95318e-06
1.90685e-06
9.03437e-06
3.92755e-06
9.0217e-06
1.88297e-06
5.11821e-06
3.92371e-06
1.88957e-06
9.02749e-06
3.93607e-06
9.02637e-06
1.88464e-06
5.12021e-06
3.92939e-06
1.89112e-06
9.03232e-06
9.72964e-06
2.19331e-05
2.19325e-05
9.72823e-06
2.19328e-05
2.19322e-05
1.84767e-05
1.84838e-05
1.84783e-05
1.84854e-05
1.84677e-05
1.84607e-05
1.84697e-05
1.84627e-05
9.73081e-06
2.19123e-05
2.19125e-05
2.19121e-05
2.19121e-05
9.72905e-06
3.9632e-06
1.92701e-06
9.03731e-06
5.13703e-06
3.95731e-06
9.04208e-06
1.93318e-06
3.96883e-06
1.92832e-06
9.04229e-06
5.1393e-06
3.96536e-06
9.04786e-06
1.93473e-06
9.7286e-06
2.19221e-05
2.19222e-05
9.73021e-06
2.19223e-05
2.19225e-05
3.9736e-06
9.04929e-06
5.14635e-06
1.95429e-06
9.04472e-06
3.97916e-06
1.94837e-06
3.98168e-06
9.05511e-06
5.1478e-06
1.95578e-06
9.0497e-06
3.98513e-06
1.94991e-06
1.84461e-05
1.84529e-05
1.84482e-05
1.84549e-05
9.72923e-06
2.19021e-05
2.19022e-05
9.73116e-06
2.19026e-05
2.19022e-05
4.00378e-06
1.99629e-06
5.1633e-06
9.06417e-06
9.0591e-06
1.9891e-06
4.01153e-06
4.01389e-06
1.9956e-06
5.16544e-06
9.06782e-06
9.06343e-06
1.9918e-06
4.01356e-06
3.99444e-06
9.05189e-06
1.96921e-06
5.15478e-06
3.98943e-06
9.05652e-06
1.97509e-06
3.99999e-06
9.05685e-06
1.97079e-06
5.15708e-06
3.99747e-06
9.06194e-06
1.97653e-06
9.73132e-06
2.18934e-05
2.18919e-05
2.18927e-05
2.18917e-05
9.7293e-06
1.21314e-05
3.67506e-06
1.06757e-05
4.49176e-06
1.06723e-05
4.48734e-06
1.21344e-05
2.24367e-05
7.21745e-06
8.91263e-06
2.24353e-05
7.21715e-06
1.21311e-05
3.65922e-06
1.06671e-05
4.47189e-06
1.06705e-05
1.2128e-05
4.47637e-06
2.24257e-05
7.21847e-06
8.91298e-06
7.219e-06
2.2427e-05
1.21374e-05
1.06775e-05
4.50111e-06
3.70187e-06
1.21344e-05
1.0681e-05
4.50579e-06
2.24054e-05
8.91782e-06
7.21774e-06
7.21881e-06
2.24068e-05
2.24166e-05
7.2181e-06
8.91681e-06
2.24148e-05
7.21727e-06
1.21376e-05
3.71654e-06
1.06863e-05
4.51911e-06
1.06829e-05
4.51472e-06
1.21404e-05
1.21376e-05
1.06776e-05
4.50163e-06
3.70217e-06
1.21347e-05
1.06811e-05
4.50607e-06
2.24064e-05
8.91852e-06
7.21989e-06
7.2208e-06
2.24076e-05
2.24173e-05
7.2201e-06
8.91825e-06
2.24161e-05
7.21938e-06
1.21378e-05
3.71665e-06
1.06865e-05
4.51946e-06
1.06831e-05
4.51518e-06
1.21405e-05
9.73063e-06
2.1912e-05
2.19127e-05
2.19117e-05
2.19124e-05
9.72892e-06
3.96995e-06
1.92846e-06
9.04236e-06
5.14054e-06
9.0472e-06
3.96401e-06
1.93516e-06
3.96313e-06
1.92621e-06
9.0376e-06
5.13853e-06
1.93379e-06
3.95713e-06
9.04246e-06
9.72847e-06
2.19217e-05
2.19224e-05
2.1922e-05
9.73003e-06
2.19227e-05
3.98056e-06
9.05442e-06
5.1464e-06
1.95632e-06
9.04979e-06
1.94942e-06
3.98603e-06
3.97345e-06
9.04965e-06
5.14453e-06
1.95495e-06
1.94745e-06
9.04505e-06
3.97913e-06
1.84673e-05
1.84604e-05
1.84473e-05
1.84541e-05
9.72916e-06
2.19017e-05
2.19024e-05
9.731e-06
2.1902e-05
2.19028e-05
4.01246e-06
1.99717e-06
5.16371e-06
9.06823e-06
1.99072e-06
9.06391e-06
4.01526e-06
4.00434e-06
1.99578e-06
5.16197e-06
9.06344e-06
9.05916e-06
1.98867e-06
4.00969e-06
4.00005e-06
9.05691e-06
1.97033e-06
5.15816e-06
1.97687e-06
3.99662e-06
9.06149e-06
3.99477e-06
9.0522e-06
1.96842e-06
5.15618e-06
3.98922e-06
9.05669e-06
1.97541e-06
9.73116e-06
2.18922e-05
2.18929e-05
2.18919e-05
2.18926e-05
9.72921e-06
1.84458e-05
1.84526e-05
1.21316e-05
3.67523e-06
1.06758e-05
4.49132e-06
1.06724e-05
4.48719e-06
1.21346e-05
2.24361e-05
7.21572e-06
8.91287e-06
2.24345e-05
7.21525e-06
1.21313e-05
3.65911e-06
1.06672e-05
4.47172e-06
1.06706e-05
1.21282e-05
4.47606e-06
2.24248e-05
7.21657e-06
8.91325e-06
7.21727e-06
2.24264e-05
1.21376e-05
4.50151e-06
1.0678e-05
3.70227e-06
1.21347e-05
4.50593e-06
1.06815e-05
2.24059e-05
8.91931e-06
7.21966e-06
7.22055e-06
2.24071e-05
2.24168e-05
7.21986e-06
8.919e-06
2.24155e-05
7.21914e-06
1.21378e-05
3.71666e-06
4.51947e-06
1.06869e-05
4.51511e-06
1.06834e-05
1.21406e-05
1.21377e-05
1.06778e-05
4.50177e-06
3.70278e-06
1.21348e-05
1.06813e-05
4.50547e-06
2.24054e-05
8.91877e-06
7.21798e-06
7.21905e-06
2.2407e-05
2.24167e-05
7.21837e-06
8.91848e-06
2.24151e-05
7.21747e-06
1.21379e-05
3.71606e-06
1.06867e-05
4.51877e-06
1.06832e-05
4.51542e-06
1.21407e-05
1.21311e-05
3.67459e-06
4.49169e-06
1.06765e-05
4.48673e-06
1.06716e-05
1.21342e-05
2.24358e-05
7.21699e-06
8.91242e-06
7.21662e-06
2.24344e-05
1.21309e-05
3.6595e-06
4.47131e-06
1.06665e-05
4.47649e-06
1.21277e-05
1.06712e-05
2.24248e-05
7.21793e-06
8.91349e-06
7.2185e-06
2.24261e-05
1.21313e-05
3.67511e-06
1.06757e-05
4.49093e-06
1.06723e-05
4.48676e-06
1.21343e-05
2.24354e-05
7.21523e-06
8.91201e-06
2.24341e-05
7.21486e-06
1.2131e-05
3.65893e-06
1.0667e-05
4.47128e-06
1.21279e-05
1.06704e-05
4.47625e-06
2.24244e-05
7.21618e-06
8.91303e-06
7.21677e-06
2.24258e-05
1.21373e-05
4.50149e-06
1.06771e-05
3.70272e-06
1.21344e-05
4.50541e-06
1.0682e-05
2.24054e-05
8.91907e-06
7.21932e-06
7.22028e-06
2.24066e-05
2.24164e-05
7.21959e-06
8.91808e-06
2.24151e-05
7.21882e-06
1.21375e-05
3.71606e-06
4.51875e-06
1.06874e-05
4.51536e-06
1.06825e-05
1.21403e-05
1.21374e-05
1.06776e-05
4.50159e-06
3.70189e-06
1.21345e-05
1.06811e-05
4.5053e-06
2.24051e-05
8.91865e-06
7.21761e-06
7.21858e-06
2.24063e-05
2.2416e-05
7.21787e-06
8.91767e-06
2.24148e-05
7.2171e-06
1.21376e-05
3.71667e-06
1.06865e-05
4.51868e-06
1.0683e-05
4.51522e-06
1.21404e-05
9.73158e-06
2.19133e-05
2.19134e-05
2.1913e-05
2.19131e-05
9.72985e-06
3.96911e-06
1.92835e-06
9.0422e-06
5.13909e-06
9.04776e-06
3.9656e-06
1.93471e-06
3.96206e-06
1.9268e-06
9.0372e-06
5.13746e-06
1.93313e-06
3.95872e-06
9.04273e-06
9.72938e-06
2.1923e-05
2.19231e-05
2.19234e-05
9.731e-06
2.19234e-05
3.98197e-06
9.055e-06
5.14803e-06
1.956e-06
9.04961e-06
1.95004e-06
3.98531e-06
3.97506e-06
9.05004e-06
5.14606e-06
1.95462e-06
1.94831e-06
9.04465e-06
3.97833e-06
1.84686e-05
1.84617e-05
1.84489e-05
1.84557e-05
9.73006e-06
2.19031e-05
2.19032e-05
9.73192e-06
2.19034e-05
2.19035e-05
4.01285e-06
1.99702e-06
5.1655e-06
9.0688e-06
1.99126e-06
9.06368e-06
4.01568e-06
4.00586e-06
1.99557e-06
5.16343e-06
9.06381e-06
9.05871e-06
1.9895e-06
4.00875e-06
4.00065e-06
9.05679e-06
1.97084e-06
5.15698e-06
1.97702e-06
3.99764e-06
9.06198e-06
3.99365e-06
9.05183e-06
1.96916e-06
5.1553e-06
3.9907e-06
9.05701e-06
1.9753e-06
9.73206e-06
2.18936e-05
2.18937e-05
2.18932e-05
2.18933e-05
9.7301e-06
1.84471e-05
1.84538e-05
1.21313e-05
3.67459e-06
4.49153e-06
1.06766e-05
4.48657e-06
1.06717e-05
1.21344e-05
2.24358e-05
7.21513e-06
8.91253e-06
7.21483e-06
2.24344e-05
1.21311e-05
3.65964e-06
4.47119e-06
1.06665e-05
4.47631e-06
1.2128e-05
1.06713e-05
2.24248e-05
7.21616e-06
8.91288e-06
7.21668e-06
2.24261e-05
1.21312e-05
3.67519e-06
4.49142e-06
1.0676e-05
4.48746e-06
1.06726e-05
1.21342e-05
2.24355e-05
7.2171e-06
8.91356e-06
2.24341e-05
7.21682e-06
1.21309e-05
3.65948e-06
4.47189e-06
1.06674e-05
1.21278e-05
4.47642e-06
1.06708e-05
2.24245e-05
7.21813e-06
8.9139e-06
7.21864e-06
2.24258e-05
1.21375e-05
4.50125e-06
1.06771e-05
3.70212e-06
1.21346e-05
4.50526e-06
1.06821e-05
2.24054e-05
8.91842e-06
7.21758e-06
7.21848e-06
2.24067e-05
2.24164e-05
7.21779e-06
8.91815e-06
2.24151e-05
7.21706e-06
1.21377e-05
3.71646e-06
4.51875e-06
1.06875e-05
4.51509e-06
1.06825e-05
1.21405e-05
1.21373e-05
4.50184e-06
1.06779e-05
3.70242e-06
1.21344e-05
4.50614e-06
1.06815e-05
2.24051e-05
8.91942e-06
7.21951e-06
7.2204e-06
2.24064e-05
2.24161e-05
7.21973e-06
8.91916e-06
2.24148e-05
7.21902e-06
1.21375e-05
3.71664e-06
4.51945e-06
1.06869e-05
4.51514e-06
1.06834e-05
1.21403e-05
1.84684e-05
1.84615e-05
1.84701e-05
1.84631e-05
9.72965e-06
2.19028e-05
2.19022e-05
9.73147e-06
2.19031e-05
2.19025e-05
4.00564e-06
1.9955e-06
5.16343e-06
9.06377e-06
1.98952e-06
9.05863e-06
4.00862e-06
4.01145e-06
1.99752e-06
5.16537e-06
9.06861e-06
1.99062e-06
9.06351e-06
4.01678e-06
3.99358e-06
9.05176e-06
1.96919e-06
5.15528e-06
3.99047e-06
1.97519e-06
9.05696e-06
4.00193e-06
9.05662e-06
1.97038e-06
5.15725e-06
3.99636e-06
1.97718e-06
9.0618e-06
9.73159e-06
2.18933e-05
2.18927e-05
2.18929e-05
2.18923e-05
9.72968e-06
1.84469e-05
1.84536e-05
1.84486e-05
1.84553e-05
1.1759e-07
1.17588e-07
1.32874e-07
1.16485e-07
1.16485e-07
1.09884e-07
1.11178e-07
1.74009e-06
7.6704e-07
7.67374e-07
3.57535e-07
1.73382e-06
7.70119e-07
7.70379e-07
1.71162e-06
3.51952e-07
7.55013e-07
7.55277e-07
7.52185e-07
7.52444e-07
1.71733e-06
1.71139e-06
3.51499e-07
7.55648e-07
7.56395e-07
7.52182e-07
7.50995e-07
1.7175e-06
1.71104e-06
3.51087e-07
7.5663e-07
7.5483e-07
7.5134e-07
7.52371e-07
1.71735e-06
1.71128e-06
3.51528e-07
7.55131e-07
7.55353e-07
1.71748e-06
7.52038e-07
7.52372e-07
1.73956e-06
7.67004e-07
7.673e-07
3.57638e-07
1.73419e-06
7.69963e-07
7.70203e-07
1.79824e-06
3.76832e-07
8.16192e-07
8.15248e-07
8.12008e-07
8.13191e-07
1.80499e-06
1.73983e-06
7.67031e-07
7.65857e-07
3.56966e-07
7.70961e-07
1.73376e-06
7.70363e-07
1.79876e-06
3.77029e-07
8.15874e-07
8.16679e-07
8.12624e-07
8.11232e-07
1.80424e-06
1.7397e-06
7.66337e-07
7.67147e-07
3.57953e-07
7.69813e-07
1.73415e-06
7.71319e-07
1.79915e-06
3.76164e-07
8.17038e-07
8.15399e-07
8.11775e-07
8.12767e-07
1.80438e-06
1.7989e-06
3.77065e-07
8.15597e-07
8.15855e-07
8.12552e-07
8.12918e-07
1.80444e-06
1.34881e-07
1.18729e-07
1.18729e-07
1.19906e-07
1.19904e-07
1.13849e-07
1.12499e-07
1.34873e-07
1.18728e-07
1.18724e-07
1.19905e-07
1.199e-07
1.13849e-07
1.12498e-07
1.34884e-07
1.18733e-07
1.18729e-07
1.19909e-07
1.19904e-07
1.1385e-07
1.125e-07
1.34874e-07
1.18729e-07
1.18726e-07
1.19905e-07
1.19902e-07
1.1385e-07
1.12499e-07
1.17589e-07
1.17584e-07
1.32868e-07
1.16484e-07
1.1648e-07
1.09884e-07
1.11177e-07
1.17594e-07
1.17588e-07
1.32881e-07
1.1649e-07
1.16486e-07
1.09886e-07
1.11178e-07
1.17589e-07
1.17586e-07
1.32872e-07
1.16486e-07
1.16482e-07
1.09885e-07
1.11178e-07
1.32305e-07
1.14384e-07
1.14384e-07
1.15418e-07
1.15416e-07
1.0862e-07
1.07382e-07
1.32296e-07
1.14383e-07
1.14378e-07
1.15417e-07
1.15412e-07
1.08619e-07
1.07381e-07
1.32309e-07
1.14389e-07
1.14384e-07
1.15422e-07
1.15416e-07
1.08621e-07
1.07383e-07
1.32299e-07
1.14384e-07
1.14381e-07
1.15418e-07
1.15414e-07
1.0862e-07
1.07382e-07
4.7596e-07
1.15059e-06
1.47522e-06
3.88899e-07
1.46816e-06
3.86646e-07
4.78773e-07
6.55571e-07
9.99482e-07
2.07466e-06
2.80445e-06
6.54573e-07
1.00593e-06
2.08109e-06
4.69773e-07
1.13642e-06
1.44644e-06
3.79527e-07
4.67083e-07
1.45337e-06
3.81756e-07
6.66127e-07
2.10192e-06
2.81633e-06
1.02306e-06
1.01675e-06
2.0951e-06
6.67254e-07
4.77144e-07
1.151e-06
3.88182e-07
1.47488e-06
3.87313e-07
1.46884e-06
4.77512e-07
6.55625e-07
1.00004e-06
2.07514e-06
2.80345e-06
6.54626e-07
1.0056e-06
2.08016e-06
4.68642e-07
1.13641e-06
3.80176e-07
1.44678e-06
4.68366e-07
3.81068e-07
1.45294e-06
6.66169e-07
2.10166e-06
2.81769e-06
1.02263e-06
1.01711e-06
2.09545e-06
6.67331e-07
1.756e-06
3.63929e-07
7.85286e-07
7.85485e-07
7.82174e-07
7.82521e-07
1.762e-06
1.69432e-06
3.45411e-07
7.37273e-07
7.37582e-07
1.6885e-06
7.40169e-07
7.40386e-07
4.51519e-07
1.40211e-06
3.66062e-07
1.09327e-06
4.51312e-07
1.40807e-06
3.68138e-07
6.42875e-07
9.87522e-07
2.78079e-06
2.05876e-06
9.84012e-07
2.05307e-06
6.43807e-07
6.32193e-07
2.03115e-06
9.66971e-07
2.76545e-06
9.70673e-07
6.31326e-07
2.03811e-06
4.59438e-07
1.10844e-06
1.43034e-06
3.74816e-07
1.42452e-06
3.72767e-07
4.59782e-07
4.52641e-07
1.4018e-06
3.66694e-07
1.09387e-06
4.49847e-07
1.40892e-06