/*--------------------------------*- C++ -*----------------------------------*\
| =========                 |                                                 |
| \\      /  F ield         | OpenFOAM: The Open Source CFD Toolbox           |
|  \\    /   O peration     | Version:  v1906                                 |
|   \\  /    A nd           | Web:      www.OpenFOAM.com                      |
|    \\/     M anipulation  |                                                 |
\*---------------------------------------------------------------------------*/
FoamFile
{
    version     2.0;
    format      ascii;
    class       volScalarField;
    location    "500";
    object      k;
}
// * * * * * * * * * * * * * * * * * * * * * * * * * * * * * * * * * * * * * //

dimensions      [0 2 -2 0 0 0 0];


internalField   nonuniform List<scalar> 
43248
(
4.17894e-05
3.6459e-05
3.64595e-05
4.17669e-05
3.64566e-05
3.64605e-05
3.64575e-05
3.64638e-05
4.17675e-05
3.64603e-05
3.64614e-05
4.17556e-05
2.08497e-05
2.08499e-05
2.08527e-05
2.08543e-05
6.95313e-05
6.95341e-05
6.68947e-05
6.69046e-05
6.46092e-05
7.13528e-05
6.47087e-05
6.4613e-05
7.13571e-05
7.13235e-05
6.47102e-05
5.309e-05
6.01857e-05
2.88269e-05
2.85817e-05
5.32927e-05
5.30933e-05
3.62277e-05
6.01908e-05
2.88287e-05
6.00676e-05
2.85836e-05
5.32937e-05
6.95336e-05
6.95077e-05
4.15776e-05
6.69053e-05
6.68891e-05
6.68409e-05
6.68296e-05
6.95297e-05
6.95036e-05
7.13581e-05
6.47106e-05
6.01907e-05
2.88307e-05
5.32934e-05
7.13534e-05
6.47085e-05
2.88311e-05
6.01837e-05
5.32922e-05
5.30943e-05
3.62257e-05
6.01853e-05
2.88295e-05
6.00667e-05
2.85846e-05
5.32967e-05
6.46135e-05
7.13573e-05
7.13225e-05
6.47116e-05
5.30934e-05
3.62318e-05
2.88324e-05
6.01862e-05
2.85874e-05
6.0065e-05
5.32944e-05
6.46126e-05
7.1355e-05
7.13203e-05
6.47087e-05
6.95323e-05
6.68962e-05
6.68947e-05
6.95323e-05
5.3095e-05
2.88333e-05
6.01889e-05
2.85881e-05
5.32957e-05
5.3095e-05
3.62295e-05
2.8834e-05
6.01925e-05
2.8589e-05
6.00693e-05
5.32964e-05
6.46126e-05
7.13553e-05
6.47122e-05
6.46137e-05
7.13596e-05
7.13232e-05
6.47127e-05
4.15824e-05
6.68937e-05
6.6907e-05
6.68334e-05
6.68436e-05
6.95323e-05
6.95064e-05
6.95351e-05
6.95091e-05
6.95188e-05
6.95217e-05
7.00285e-05
5.9332e-05
6.68775e-05
7.11362e-05
7.11195e-05
5.92674e-05
7.00687e-05
7.00889e-05
5.93258e-05
6.68857e-05
7.11452e-05
7.11309e-05
5.92858e-05
7.00987e-05
9.23415e-05
7.20372e-05
7.20304e-05
7.20231e-05
7.20167e-05
9.23488e-05
7.01258e-05
6.98208e-05
6.81152e-05
6.46501e-05
7.01147e-05
6.98331e-05
6.8152e-05
7.01845e-05
7.13374e-05
7.7385e-05
7.73653e-05
7.01991e-05
7.01275e-05
6.4668e-05
6.98472e-05
6.82019e-05
6.9834e-05
6.81653e-05
7.01391e-05
7.01277e-05
6.98234e-05
6.81254e-05
6.4651e-05
7.01179e-05
6.98321e-05
6.81576e-05
7.01874e-05
7.13443e-05
7.74062e-05
7.73877e-05
7.02014e-05
7.01916e-05
7.73576e-05
7.13366e-05
7.01777e-05
7.7378e-05
7.01309e-05
6.46702e-05
6.98457e-05
6.82064e-05
6.98369e-05
6.81756e-05
7.01417e-05
6.95211e-05
6.95201e-05
9.23127e-05
7.20055e-05
7.20108e-05
9.23037e-05
7.20193e-05
7.20247e-05
7.0084e-05
5.9331e-05
6.68859e-05
7.1145e-05
5.92804e-05
7.11304e-05
7.01048e-05
7.00326e-05
5.9321e-05
6.68747e-05
7.11334e-05
7.11189e-05
5.9272e-05
7.00537e-05
7.00396e-05
7.11069e-05
5.91816e-05
6.68605e-05
5.92329e-05
7.00185e-05
7.11218e-05
6.99882e-05
7.10953e-05
5.91733e-05
6.68443e-05
6.99669e-05
7.11102e-05
5.9223e-05
9.23386e-05
7.20305e-05
7.20358e-05
7.20165e-05
7.20219e-05
9.23471e-05
6.95171e-05
6.95161e-05
7.01877e-05
7.13452e-05
7.74064e-05
7.73854e-05
7.02017e-05
7.01313e-05
6.46729e-05
6.82069e-05
6.98467e-05
6.81753e-05
6.98382e-05
7.01422e-05
7.01845e-05
7.13398e-05
7.73839e-05
7.73654e-05
7.01991e-05
7.01291e-05
6.46709e-05
6.9846e-05
6.82e-05
6.98375e-05
6.81671e-05
7.01388e-05
7.01278e-05
6.81225e-05
6.98237e-05
6.46525e-05
7.0117e-05
6.81599e-05
6.98324e-05
7.01867e-05
7.13415e-05
7.74047e-05
7.73855e-05
7.02007e-05
7.01909e-05
7.73568e-05
7.13358e-05
7.0177e-05
7.73753e-05
7.01297e-05
6.46711e-05
6.821e-05
6.9846e-05
6.81723e-05
6.98372e-05
7.01414e-05
7.01265e-05
6.98233e-05
6.81213e-05
6.46504e-05
7.01169e-05
6.98319e-05
6.8153e-05
7.01861e-05
7.13398e-05
7.73866e-05
7.73684e-05
7.02001e-05
7.01903e-05
7.73392e-05
7.13338e-05
7.01764e-05
7.73576e-05
7.01298e-05
6.46712e-05
6.98456e-05
6.82025e-05
6.98369e-05
6.81706e-05
7.01397e-05
6.95197e-05
7.00845e-05
5.93285e-05
6.68818e-05
7.11437e-05
5.92809e-05
7.11288e-05
7.01056e-05
7.00355e-05
5.9325e-05
6.68771e-05
7.11354e-05
7.112e-05
5.92738e-05
7.00566e-05
9.23419e-05
7.20307e-05
7.2037e-05
7.20167e-05
7.20231e-05
9.23541e-05
6.95198e-05
7.01276e-05
6.81185e-05
6.98222e-05
6.46537e-05
7.01158e-05
6.8155e-05
6.98348e-05
7.01864e-05
7.13398e-05
7.73883e-05
7.73668e-05
7.02004e-05
7.01905e-05
7.73589e-05
7.01285e-05
6.46715e-05
6.82047e-05
6.98488e-05
6.81684e-05
6.98359e-05
7.01411e-05
7.01284e-05
6.81226e-05
6.98225e-05
6.46545e-05
7.0117e-05
6.81582e-05
6.98351e-05
7.0187e-05
7.13439e-05
7.74032e-05
7.73839e-05
7.02016e-05
7.01919e-05
7.73548e-05
7.13387e-05
7.01773e-05
7.73742e-05
7.01298e-05
6.46728e-05
6.82074e-05
6.98491e-05
6.81727e-05
6.98362e-05
7.01417e-05
9.23167e-05
7.20126e-05
7.20066e-05
9.23077e-05
7.20265e-05
7.20204e-05
7.00351e-05
5.93242e-05
6.68785e-05
7.1136e-05
5.92736e-05
7.11198e-05
7.00564e-05
7.00877e-05
5.93358e-05
6.68887e-05
7.11473e-05
5.92835e-05
7.11311e-05
7.01088e-05
6.99909e-05
7.1097e-05
5.91748e-05
6.68488e-05
6.99694e-05
5.9226e-05
7.11122e-05
7.00434e-05
7.11068e-05
5.91847e-05
6.68621e-05
7.0022e-05
5.92375e-05
7.11246e-05
9.23431e-05
7.20376e-05
7.20316e-05
7.20237e-05
7.20177e-05
9.23515e-05
6.95199e-05
6.95187e-05
6.95226e-05
6.95215e-05
5.9518e-05
4.17631e-05
5.05117e-05
5.05108e-05
5.04652e-05
5.04708e-05
5.95524e-05
5.95164e-05
4.17657e-05
5.05011e-05
5.04984e-05
5.04659e-05
5.04649e-05
5.95478e-05
5.95174e-05
4.17581e-05
5.0498e-05
5.04992e-05
5.04675e-05
5.04668e-05
5.95488e-05
5.95206e-05
4.17698e-05
5.05029e-05
5.05079e-05
5.04719e-05
5.04754e-05
5.95513e-05
1.49203e-05
1.49203e-05
1.4809e-05
1.07951e-05
1.08221e-05
2.0665e-05
1.49206e-05
1.49193e-05
1.48092e-05
1.4808e-05
1.0795e-05
1.08219e-05
1.49229e-05
1.4922e-05
1.48105e-05
1.07961e-05
1.08231e-05
2.06693e-05
1.49233e-05
1.49223e-05
1.48118e-05
1.48109e-05
1.07962e-05
1.08232e-05
4.55453e-05
5.54125e-05
4.356e-05
5.31709e-05
4.55226e-05
5.54863e-05
4.36105e-05
4.80419e-05
5.25123e-05
6.0138e-05
5.85107e-05
5.24762e-05
5.84518e-05
4.80861e-05
4.56918e-05
5.3212e-05
5.55976e-05
4.37965e-05
5.55234e-05
4.37436e-05
4.57203e-05
4.55332e-05
5.54215e-05
4.35755e-05
5.31713e-05
4.55376e-05
5.54897e-05
4.35946e-05
4.80597e-05
5.25246e-05
6.01422e-05
5.85187e-05
5.84612e-05
5.24837e-05
4.80718e-05
4.79209e-05
5.83678e-05
5.23533e-05
6.01164e-05
4.7906e-05
5.84264e-05
5.23851e-05
4.57173e-05
5.32138e-05
5.56001e-05
4.37964e-05
5.55333e-05
4.37527e-05
4.57135e-05
5.94438e-05
4.15793e-05
5.03188e-05
5.03169e-05
5.03588e-05
5.94106e-05
5.03573e-05
4.8061e-05
5.2514e-05
6.01438e-05
5.85192e-05
5.24886e-05
5.8461e-05
4.80723e-05
4.571e-05
5.32161e-05
5.56001e-05
4.37756e-05
5.55334e-05
4.37599e-05
4.56992e-05
4.80554e-05
5.2511e-05
6.01412e-05
5.851e-05
5.8452e-05
5.24843e-05
4.80671e-05
4.57065e-05
5.32136e-05
4.37745e-05
5.55964e-05
4.37582e-05
5.55255e-05
4.56938e-05
4.55571e-05
5.54199e-05
4.35656e-05
5.3175e-05
4.55176e-05
5.54935e-05
4.36146e-05
4.80463e-05
5.252e-05
6.01415e-05
5.85189e-05
5.24783e-05
5.84603e-05
4.80923e-05
4.79327e-05
5.83669e-05
5.23477e-05
6.01108e-05
4.78943e-05
5.23874e-05
5.84261e-05
4.56999e-05
5.32165e-05
5.5605e-05
4.38014e-05
5.55306e-05
4.37485e-05
4.57272e-05
4.55315e-05
4.35633e-05
5.54194e-05
5.3173e-05
4.55362e-05
4.36129e-05
5.54878e-05
4.80583e-05
5.25136e-05
6.01395e-05
5.85129e-05
5.8455e-05
5.24834e-05
4.80701e-05
4.79198e-05
5.83617e-05
5.23517e-05
6.01123e-05
4.79053e-05
5.84204e-05
5.2382e-05
4.57175e-05
5.32157e-05
4.37995e-05
5.55995e-05
4.3748e-05
5.55294e-05
4.57064e-05
4.55517e-05
4.35681e-05
5.54176e-05
5.31748e-05
4.55195e-05
4.36129e-05
5.5491e-05
4.80517e-05
5.25135e-05
6.01407e-05
5.85141e-05
5.24825e-05
5.84553e-05
4.80678e-05
4.79308e-05
5.8421e-05
4.56936e-05
5.32175e-05
4.3776e-05
5.56016e-05
4.37565e-05
5.55284e-05
4.57072e-05
4.55527e-05
4.35657e-05
5.54195e-05
5.3175e-05
4.55255e-05
4.3616e-05
5.54935e-05
4.80469e-05
5.25275e-05
6.0144e-05
5.8519e-05
5.84608e-05
5.248e-05
4.80935e-05
4.79341e-05
5.83673e-05
5.23488e-05
6.01182e-05
4.78948e-05
5.84263e-05
5.23936e-05
4.56958e-05
5.32181e-05
4.38017e-05
5.56043e-05
4.37505e-05
5.55306e-05
4.57266e-05
5.94469e-05
4.15833e-05
5.03254e-05
5.03294e-05
5.94146e-05
5.03571e-05
5.03624e-05
1.49182e-05
1.61048e-05
1.61061e-05
1.80895e-05
1.79709e-05
1.60862e-05
1.60862e-05
1.79833e-05
1.60866e-05
1.60866e-05
1.60856e-05
1.60855e-05
1.79856e-05
1.60867e-05
1.60861e-05
1.79677e-05
1.80885e-05
1.85399e-05
1.61051e-05
1.61055e-05
1.61972e-05
1.6197e-05
1.80767e-05
1.85556e-05
1.61064e-05
1.6106e-05
1.61968e-05
1.61973e-05
1.61048e-05
1.6196e-05
1.61962e-05
1.80775e-05
1.85569e-05
1.61054e-05
1.61973e-05
1.61967e-05
1.85374e-05
1.50066e-05
1.50065e-05
1.50067e-05
1.50064e-05
5.35081e-05
7.00368e-05
5.29545e-05
7.00653e-05
6.96366e-05
6.96164e-05
5.35183e-05
7.00454e-05
5.29528e-05
7.007e-05
1.4918e-05
1.49182e-05
1.49179e-05
1.46699e-05
1.46698e-05
1.467e-05
1.46697e-05
2.93458e-05
4.52019e-05
1.48826e-05
1.61295e-05
2.8785e-05
4.56165e-05
1.48316e-05
6.96359e-05
6.9616e-05
2.93478e-05
1.48832e-05
4.52056e-05
1.61307e-05
2.87899e-05
1.48322e-05
4.56198e-05
5.90529e-05
5.90642e-05
1.82401e-05
5.92782e-05
5.92899e-05
6.96522e-05
6.9673e-05
6.96543e-05
6.96752e-05
1.78358e-05
5.89335e-05
5.89459e-05
5.8692e-05
5.87053e-05
5.21528e-05
7.00349e-05
7.00051e-05
5.27526e-05
5.21546e-05
7.00391e-05
7.00139e-05
5.27559e-05
2.79317e-05
1.60729e-05
4.49899e-05
1.49367e-05
4.45526e-05
1.4996e-05
2.84983e-05
2.79389e-05
1.60728e-05
4.49899e-05
1.49366e-05
4.45655e-05
1.49959e-05
2.84947e-05
6.96541e-05
6.96753e-05
1.78205e-05
5.89463e-05
5.89322e-05
5.87064e-05
5.86923e-05
6.9652e-05
6.96729e-05
5.21504e-05
7.00396e-05
7.00144e-05
5.27638e-05
2.79431e-05
1.60736e-05
4.49936e-05
1.49375e-05
4.45593e-05
1.49968e-05
2.84993e-05
5.21492e-05
7.00345e-05
7.00095e-05
5.27619e-05
2.7938e-05
1.60731e-05
1.49371e-05
4.49939e-05
1.49964e-05
4.4561e-05
2.85018e-05
2.79395e-05
1.60722e-05
4.49859e-05
1.49365e-05
4.4548e-05
1.49958e-05
2.84945e-05
5.21543e-05
7.00405e-05
7.00108e-05
5.27561e-05
2.79354e-05
1.6072e-05
1.49364e-05
4.49879e-05
1.49957e-05
4.45569e-05
2.84994e-05
5.21545e-05
7.0036e-05
7.00062e-05
5.27539e-05
6.96538e-05
6.96748e-05
1.78214e-05
5.89428e-05
5.89341e-05
5.87031e-05
5.86953e-05
6.96529e-05
6.9674e-05
2.79416e-05
1.60734e-05
1.4937e-05
4.4992e-05
1.49964e-05
4.45555e-05
2.8494e-05
2.79419e-05
1.60729e-05
1.4937e-05
4.49942e-05
1.49964e-05
4.45595e-05
2.84974e-05
5.2148e-05
7.0035e-05
7.00096e-05
5.2766e-05
5.215e-05
7.00397e-05
7.00145e-05
5.27672e-05
1.78358e-05
5.8934e-05
5.89465e-05
5.86938e-05
5.87057e-05
6.96522e-05
6.96732e-05
6.96545e-05
6.96755e-05
6.96342e-05
6.96142e-05
6.96365e-05
6.96164e-05
5.90503e-05
5.90636e-05
1.82403e-05
5.92768e-05
5.92904e-05
6.95778e-05
6.95968e-05
6.958e-05
6.95992e-05
1.83722e-05
5.96025e-05
5.96118e-05
5.93881e-05
5.94016e-05
5.35114e-05
7.00449e-05
5.2956e-05
7.00696e-05
2.93474e-05
4.52031e-05
1.48828e-05
1.61304e-05
2.87829e-05
4.56218e-05
1.48319e-05
2.93467e-05
4.5213e-05
1.48828e-05
1.61303e-05
2.87881e-05
4.56228e-05
1.48318e-05
5.36904e-05
7.00941e-05
7.00671e-05
5.42001e-05
5.36921e-05
7.00984e-05
7.00752e-05
5.42031e-05
2.96367e-05
1.61604e-05
4.62286e-05
1.4744e-05
4.58258e-05
1.47865e-05
3.01975e-05
2.964e-05
1.61609e-05
4.62294e-05
1.4744e-05
4.58352e-05
1.47866e-05
3.02005e-05
5.90643e-05
5.90501e-05
1.82547e-05
5.92907e-05
5.92762e-05
6.96341e-05
6.96141e-05
6.95801e-05
6.95993e-05
1.836e-05
5.96147e-05
5.96003e-05
5.94017e-05
5.93883e-05
6.95777e-05
6.95968e-05
2.93489e-05
4.52086e-05
1.48836e-05
1.61305e-05
2.87902e-05
4.56249e-05
1.48326e-05
5.35168e-05
7.00404e-05
5.29512e-05
7.0065e-05
2.9348e-05
1.48833e-05
4.52065e-05
1.61307e-05
2.8786e-05
1.48323e-05
4.56262e-05
5.36893e-05
7.00987e-05
7.00756e-05
5.42091e-05
2.96437e-05
1.61619e-05
4.62298e-05
1.47449e-05
4.58324e-05
1.47874e-05
3.02024e-05
5.36881e-05
7.00936e-05
7.00706e-05
5.42078e-05
2.96424e-05
1.61613e-05
1.47446e-05
4.62313e-05
1.47871e-05
4.58289e-05
3.02027e-05
5.35114e-05
7.00428e-05
5.29565e-05
7.0071e-05
2.93503e-05
1.48824e-05
4.52075e-05
1.61296e-05
2.87827e-05
1.48315e-05
4.56188e-05
5.35095e-05
7.00382e-05
5.29562e-05
7.00665e-05
2.96389e-05
1.61599e-05
4.62225e-05
1.47437e-05
4.5825e-05
1.47863e-05
3.01986e-05
5.36929e-05
7.00995e-05
7.0073e-05
5.42033e-05
2.96359e-05
1.61603e-05
1.47436e-05
4.62278e-05
1.47862e-05
4.58309e-05
3.02018e-05
5.36926e-05
7.00952e-05
7.00685e-05
5.42012e-05
5.90608e-05
5.90534e-05
1.82564e-05
5.92873e-05
5.92787e-05
6.96352e-05
6.9615e-05
6.95796e-05
6.95986e-05
1.83607e-05
5.96116e-05
5.96028e-05
5.93986e-05
5.93907e-05
6.95786e-05
6.95978e-05
2.93497e-05
1.48832e-05
4.52097e-05
1.61301e-05
2.87893e-05
1.48322e-05
4.56217e-05
5.35205e-05
7.00406e-05
5.29507e-05
7.00655e-05
5.35218e-05
7.00454e-05
5.29523e-05
7.00701e-05
2.96415e-05
1.61614e-05
1.47443e-05
4.62247e-05
1.47869e-05
4.58302e-05
3.02018e-05
2.96416e-05
1.61608e-05
1.47444e-05
4.62291e-05
1.47869e-05
4.58345e-05
3.02014e-05
5.36874e-05
7.00941e-05
7.00711e-05
5.42112e-05
5.36891e-05
7.00987e-05
7.00756e-05
5.42125e-05
6.96344e-05
6.96143e-05
6.96368e-05
6.96166e-05
1.83731e-05
5.96023e-05
5.96142e-05
5.93902e-05
5.94019e-05
6.95779e-05
6.9597e-05
6.95802e-05
6.95994e-05
6.9849e-05
5.33305e-05
6.91839e-05
5.95603e-05
6.91627e-05
5.93938e-05
6.98606e-05
7.09921e-05
7.4005e-05
7.00504e-05
7.09887e-05
7.40814e-05
6.9848e-05
5.31384e-05
6.9141e-05
5.91219e-05
6.98362e-05
6.91611e-05
5.92934e-05
7.09684e-05
7.41787e-05
7.00522e-05
7.41068e-05
7.09717e-05
6.96351e-05
6.96177e-05
6.98514e-05
5.33291e-05
5.95711e-05
6.91852e-05
5.93981e-05
6.9164e-05
6.9863e-05
7.09955e-05
7.40353e-05
7.00551e-05
7.09927e-05
7.40989e-05
6.98504e-05
5.31488e-05
5.91256e-05
6.91422e-05
6.98385e-05
5.93045e-05
6.91624e-05
7.09724e-05
7.41963e-05
7.00605e-05
7.41349e-05
7.09751e-05
6.96347e-05
6.96171e-05
8.75189e-05
7.24406e-05
7.24348e-05
7.244e-05
7.24342e-05
8.75876e-05
5.7038e-05
3.8973e-05
6.88095e-05
5.91089e-05
5.69466e-05
3.91021e-05
6.88339e-05
5.71041e-05
3.8994e-05
6.88219e-05
5.91207e-05
5.70143e-05
3.91202e-05
6.88462e-05
8.74813e-05
7.2462e-05
7.24562e-05
8.74107e-05
7.24626e-05
7.24568e-05
5.72307e-05
6.88703e-05
5.92239e-05
3.94891e-05
3.93621e-05
6.88469e-05
5.73186e-05
5.72985e-05
6.88828e-05
5.92357e-05
3.95052e-05
3.93828e-05
6.88592e-05
5.73835e-05
6.96534e-05
6.96716e-05
6.96557e-05
6.96737e-05
8.72561e-05
7.25067e-05
7.25004e-05
8.71755e-05
7.25073e-05
7.25011e-05
5.66569e-05
3.87093e-05
5.88739e-05
6.87971e-05
6.87685e-05
3.85792e-05
5.67493e-05
5.67196e-05
3.87277e-05
5.88872e-05
6.88083e-05
6.8783e-05
3.8598e-05
5.68178e-05
5.64496e-05
6.87286e-05
3.8178e-05
5.87533e-05
5.6357e-05
6.87578e-05
3.83103e-05
5.65225e-05
6.87431e-05
3.81958e-05
5.87657e-05
5.642e-05
6.87692e-05
3.8329e-05
8.7293e-05
7.24849e-05
7.24787e-05
7.24843e-05
7.24779e-05
8.73702e-05
6.98217e-05
6.90969e-05
5.85403e-05
5.23497e-05
6.98094e-05
6.91167e-05
5.87216e-05
7.10088e-05
7.00207e-05
7.39782e-05
7.10124e-05
7.38973e-05
7.10327e-05
7.3787e-05
7.00187e-05
7.1029e-05
7.38684e-05
6.98229e-05
5.25621e-05
6.91393e-05
5.90141e-05
6.9835e-05
6.91183e-05
5.88374e-05
6.9824e-05
6.90974e-05
5.85447e-05
5.23533e-05
6.98117e-05
6.91176e-05
5.87345e-05
7.10132e-05
7.00295e-05
7.39982e-05
7.39312e-05
7.10161e-05
7.10364e-05
7.38169e-05
7.00237e-05
7.10334e-05
7.38918e-05
6.98252e-05
5.25638e-05
6.91392e-05
5.90264e-05
6.91189e-05
5.88419e-05
6.98374e-05
6.96558e-05
6.96735e-05
8.72552e-05
7.25014e-05
7.25064e-05
8.71773e-05
7.2502e-05
7.2507e-05
5.67212e-05
3.87264e-05
5.88881e-05
6.88101e-05
3.85977e-05
6.8781e-05
5.68166e-05
5.66559e-05
3.87074e-05
5.88741e-05
6.87976e-05
6.87686e-05
3.85783e-05
5.67506e-05
5.65154e-05
6.87408e-05
3.81976e-05
5.8766e-05
3.8327e-05
5.64221e-05
6.87707e-05
5.64507e-05
6.87282e-05
3.81796e-05
5.87513e-05
5.63563e-05
6.87582e-05
3.83085e-05
8.72938e-05
7.24795e-05
7.24846e-05
7.24789e-05
7.24839e-05
8.73694e-05
6.96533e-05
6.96714e-05
6.9824e-05
5.85428e-05
6.90981e-05
5.2361e-05
6.98117e-05
5.87339e-05
6.9118e-05
7.10129e-05
7.00296e-05
7.39964e-05
7.10158e-05
7.39267e-05
7.10361e-05
7.38178e-05
7.0024e-05
7.10332e-05
7.38875e-05
6.98252e-05
5.25598e-05
5.90258e-05
6.91405e-05
6.98373e-05
5.88404e-05
6.91196e-05
6.9822e-05
6.90972e-05
5.85417e-05
5.23593e-05
6.98098e-05
6.91174e-05
5.87231e-05
7.1009e-05
7.00248e-05
7.39744e-05
7.39035e-05
7.10126e-05
7.10329e-05
7.37907e-05
7.0019e-05
7.10292e-05
7.38663e-05
6.98232e-05
5.25586e-05
6.9139e-05
5.90152e-05
6.91186e-05
5.88386e-05
6.98354e-05
6.98236e-05
5.85423e-05
6.91017e-05
5.2354e-05
6.98115e-05
5.87327e-05
6.91147e-05
7.10131e-05
7.00268e-05
7.40005e-05
7.39204e-05
7.10163e-05
7.10366e-05
7.38071e-05
7.00247e-05
7.10333e-05
7.38918e-05
6.9825e-05
5.25635e-05
5.90246e-05
6.9136e-05
5.884e-05
6.91221e-05
6.9837e-05
6.98219e-05
6.90967e-05
5.85393e-05
5.23516e-05
6.98096e-05
6.91168e-05
5.87272e-05
7.101e-05
7.00222e-05
7.39807e-05
7.39011e-05
7.10131e-05
7.10333e-05
7.37862e-05
7.00201e-05
7.10301e-05
7.38714e-05
6.98231e-05
5.25637e-05
6.91384e-05
5.90193e-05
6.91181e-05
5.88368e-05
6.98352e-05
6.96552e-05
6.96732e-05
8.72626e-05
7.25015e-05
7.25072e-05
8.71783e-05
7.25021e-05
7.25079e-05
5.67223e-05
3.87289e-05
5.88849e-05
6.88077e-05
3.85967e-05
6.87827e-05
5.68193e-05
5.66558e-05
3.87088e-05
5.88773e-05
6.87969e-05
6.87705e-05
3.85828e-05
5.67529e-05
5.65227e-05
6.8743e-05
3.81975e-05
5.87618e-05
3.83304e-05
5.64239e-05
6.87686e-05
5.64575e-05
6.87291e-05
3.81819e-05
5.87544e-05
5.63551e-05
6.87585e-05
3.83099e-05
8.72964e-05
7.24797e-05
7.24854e-05
7.2479e-05
7.24848e-05
8.73762e-05
6.96544e-05
6.96724e-05
6.98223e-05
5.85375e-05
6.91018e-05
5.2364e-05
6.98102e-05
5.87293e-05
6.91149e-05
7.10111e-05
7.00251e-05
7.39751e-05
7.39061e-05
7.1014e-05
7.10343e-05
7.37943e-05
7.00194e-05
7.10313e-05
7.38673e-05
6.98237e-05
5.25576e-05
5.90211e-05
6.91362e-05
5.88352e-05
6.91222e-05
6.98357e-05
6.98237e-05
5.85429e-05
6.90977e-05
5.2365e-05
6.98113e-05
5.87362e-05
6.9118e-05
7.10125e-05
7.003e-05
7.39947e-05
7.39272e-05
7.10153e-05
7.10357e-05
7.38141e-05
7.00243e-05
7.10327e-05
7.3888e-05
6.98248e-05
5.25596e-05
5.90279e-05
6.91396e-05
5.88406e-05
6.91192e-05
6.9837e-05
8.72581e-05
7.25067e-05
7.25008e-05
8.71786e-05
7.25072e-05
7.25014e-05
5.66541e-05
3.87104e-05
5.88762e-05
6.87959e-05
5.67507e-05
3.85788e-05
6.87707e-05
5.67217e-05
3.87255e-05
5.88878e-05
6.88081e-05
5.68136e-05
3.85997e-05
6.87829e-05
5.64554e-05
6.87307e-05
3.81775e-05
5.87544e-05
5.63544e-05
3.83102e-05
6.87571e-05
5.65187e-05
6.87438e-05
3.81996e-05
5.87663e-05
5.64204e-05
3.83272e-05
6.87688e-05
8.72961e-05
7.24849e-05
7.2479e-05
8.73721e-05
7.24843e-05
7.24784e-05
6.96536e-05
6.96717e-05
6.96559e-05
6.96739e-05
6.9633e-05
6.96153e-05
6.96352e-05
6.96177e-05
8.75137e-05
7.24406e-05
7.24344e-05
7.244e-05
7.24335e-05
8.75868e-05
5.70392e-05
3.89738e-05
6.88075e-05
5.91081e-05
5.69463e-05
6.88352e-05
3.90994e-05
5.71076e-05
3.89929e-05
6.88217e-05
5.91208e-05
5.70112e-05
6.88464e-05
3.9121e-05
8.74807e-05
7.24621e-05
7.24557e-05
8.7406e-05
7.24627e-05
7.24565e-05
5.72293e-05
6.88718e-05
5.92213e-05
3.94877e-05
6.88449e-05
5.73194e-05
3.93639e-05
5.72947e-05
6.88829e-05
5.92351e-05
3.9508e-05
6.88594e-05
5.73859e-05
3.93812e-05
6.95785e-05
6.95958e-05
6.95812e-05
6.95981e-05
8.76897e-05
7.24181e-05
7.24116e-05
8.76178e-05
7.24188e-05
7.24126e-05
5.77628e-05
4.02536e-05
5.95489e-05
6.89427e-05
6.89157e-05
4.01178e-05
5.788e-05
5.78463e-05
4.02513e-05
5.95627e-05
6.89522e-05
6.89312e-05
4.01456e-05
5.79077e-05
5.75979e-05
6.88811e-05
3.97444e-05
5.94417e-05
5.75006e-05
6.89076e-05
3.98707e-05
5.76555e-05
6.88958e-05
3.97638e-05
5.94549e-05
5.75724e-05
6.89185e-05
3.98857e-05
8.77188e-05
7.23972e-05
7.23907e-05
7.23964e-05
7.23899e-05
8.77845e-05
6.98515e-05
5.33323e-05
6.91846e-05
5.9572e-05
6.91633e-05
5.9399e-05
6.98631e-05
7.09958e-05
7.40365e-05
7.00548e-05
7.0993e-05
7.41019e-05
6.98505e-05
5.31417e-05
6.91412e-05
5.91267e-05
6.91616e-05
6.98385e-05
5.93054e-05
7.09726e-05
7.41991e-05
7.00604e-05
7.41377e-05
7.09753e-05
6.98727e-05
6.91863e-05
5.96543e-05
5.3862e-05
6.98614e-05
6.92075e-05
5.98154e-05
7.09276e-05
7.00812e-05
7.43587e-05
7.42938e-05
7.09306e-05
7.09511e-05
7.42022e-05
7.00799e-05
7.0948e-05
7.42705e-05
6.98733e-05
5.40349e-05
6.92306e-05
6.00592e-05
6.92095e-05
5.99034e-05
6.98842e-05
6.98752e-05
6.9187e-05
5.966e-05
5.3865e-05
6.9864e-05
6.92082e-05
5.98266e-05
7.09319e-05
7.00897e-05
7.43799e-05
7.43242e-05
7.09343e-05
7.09549e-05
7.4233e-05
7.00845e-05
7.09523e-05
7.42925e-05
6.98759e-05
5.40366e-05
6.92313e-05
6.00697e-05
6.92102e-05
5.99094e-05
6.98867e-05
8.75136e-05
7.24352e-05
7.24402e-05
7.24345e-05
7.24395e-05
8.75864e-05
5.71046e-05
3.89913e-05
6.882e-05
5.91214e-05
6.88482e-05
5.70098e-05
3.91197e-05
5.70412e-05
3.89726e-05
6.88075e-05
5.91069e-05
3.90991e-05
5.69446e-05
6.88356e-05
8.748e-05
7.24566e-05
7.24616e-05
7.24573e-05
8.74058e-05
7.24623e-05
5.72942e-05
6.88849e-05
5.92353e-05
3.95066e-05
6.88574e-05
3.93797e-05
5.73872e-05
5.72275e-05
6.88721e-05
5.92215e-05
3.94869e-05
3.9362e-05
6.88451e-05
5.73206e-05
6.96329e-05
6.96153e-05
6.95812e-05
6.9598e-05
8.76889e-05
7.24126e-05
7.24176e-05
8.76174e-05
7.24133e-05
7.24183e-05
5.78372e-05
4.02613e-05
5.95629e-05
6.89548e-05
4.01389e-05
6.89287e-05
5.79268e-05
5.77726e-05
4.02422e-05
5.9549e-05
6.89421e-05
6.89163e-05
4.01207e-05
5.78597e-05
5.76609e-05
6.88938e-05
3.97626e-05
5.94551e-05
3.98869e-05
5.75685e-05
6.89203e-05
5.75949e-05
6.88815e-05
3.97445e-05
5.94412e-05
5.75039e-05
6.89075e-05
3.98674e-05
8.7719e-05
7.23917e-05
7.23967e-05
7.23909e-05
7.23959e-05
8.77881e-05
6.95787e-05
6.95957e-05
6.98493e-05
5.33276e-05
6.91843e-05
5.95618e-05
6.9163e-05
5.9395e-05
6.98609e-05
7.09922e-05
7.40091e-05
7.00502e-05
7.09888e-05
7.40779e-05
6.98483e-05
5.31472e-05
6.91409e-05
5.91229e-05
6.91614e-05
6.98365e-05
5.92948e-05
7.09684e-05
7.41749e-05
7.00558e-05
7.41114e-05
7.09718e-05
6.98751e-05
5.96588e-05
6.91875e-05
5.38714e-05
6.98638e-05
5.98258e-05
6.92088e-05
7.09315e-05
7.00899e-05
7.43772e-05
7.43221e-05
7.0934e-05
7.09546e-05
7.42316e-05
7.00848e-05
7.0952e-05
7.42898e-05
6.98757e-05
5.4034e-05
6.00688e-05
6.9232e-05
5.99081e-05
6.92108e-05
6.98865e-05
6.98729e-05
6.91867e-05
5.96551e-05
5.38699e-05
6.98617e-05
6.92079e-05
5.98171e-05
7.09275e-05
7.0085e-05
7.43547e-05
7.42985e-05
7.09306e-05
7.09512e-05
7.42067e-05
7.00798e-05
7.0948e-05
7.42678e-05
6.98736e-05
5.4033e-05
6.92312e-05
6.00607e-05
6.92099e-05
5.99041e-05
6.98843e-05
6.98513e-05
5.33327e-05
5.95702e-05
6.91815e-05
5.93973e-05
6.91669e-05
6.98627e-05
7.09959e-05
7.4027e-05
7.00561e-05
7.41034e-05
7.09929e-05
6.98501e-05
5.31419e-05
5.91246e-05
6.91442e-05
5.93036e-05
6.98383e-05
6.91589e-05
7.09725e-05
7.4201e-05
7.0058e-05
7.41285e-05
7.09754e-05
6.98493e-05
5.33325e-05
6.91838e-05
5.95652e-05
6.91625e-05
5.93939e-05
6.98609e-05
7.09927e-05
7.40076e-05
7.00516e-05
7.09897e-05
7.40838e-05
6.98483e-05
5.314e-05
6.91404e-05
5.91212e-05
6.98364e-05
6.91608e-05
5.92985e-05
7.09694e-05
7.41814e-05
7.00535e-05
7.41093e-05
7.09723e-05
6.98748e-05
5.96581e-05
6.91898e-05
5.3865e-05
6.98637e-05
5.98247e-05
6.92051e-05
7.09316e-05
7.0087e-05
7.43806e-05
7.43149e-05
7.09343e-05
7.09549e-05
7.42243e-05
7.00855e-05
7.09521e-05
7.4293e-05
6.98756e-05
5.40374e-05
6.00681e-05
6.92282e-05
5.99078e-05
6.92134e-05
6.98863e-05
6.9873e-05
6.91862e-05
5.96545e-05
5.38633e-05
6.98617e-05
6.92074e-05
5.982e-05
7.09286e-05
7.00825e-05
7.43614e-05
7.42956e-05
7.09313e-05
7.09518e-05
7.42052e-05
7.00811e-05
7.0949e-05
7.42736e-05
6.98736e-05
5.40371e-05
6.92305e-05
6.00634e-05
6.92095e-05
5.9904e-05
6.98844e-05
8.75186e-05
7.24354e-05
7.24411e-05
7.24347e-05
7.24404e-05
8.75923e-05
5.71078e-05
3.89926e-05
6.88213e-05
5.91179e-05
6.88458e-05
5.70132e-05
3.91212e-05
5.70436e-05
3.89774e-05
6.88099e-05
5.91091e-05
3.91019e-05
5.69479e-05
6.88345e-05
8.74863e-05
7.24568e-05
7.24626e-05
7.24575e-05
8.74106e-05
7.24632e-05
5.72964e-05
6.88824e-05
5.9232e-05
3.95087e-05
6.88588e-05
3.93815e-05
5.73889e-05
5.72308e-05
6.88711e-05
5.92246e-05
3.94889e-05
3.93658e-05
6.88473e-05
5.7324e-05
6.96338e-05
6.96163e-05
6.95805e-05
6.95976e-05
8.76939e-05
7.24128e-05
7.24185e-05
8.76231e-05
7.24135e-05
7.24192e-05
5.7841e-05
4.02643e-05
5.95591e-05
6.89525e-05
4.0141e-05
6.89304e-05
5.79304e-05
5.77749e-05
4.02458e-05
5.95517e-05
6.8941e-05
6.8919e-05
4.0125e-05
5.78634e-05
5.76634e-05
6.88951e-05
3.97642e-05
5.94522e-05
3.98881e-05
5.75721e-05
6.89183e-05
5.75985e-05
6.88838e-05
3.97486e-05
5.94436e-05
5.75067e-05
6.89069e-05
3.98705e-05
8.77238e-05
7.23919e-05
7.23976e-05
7.23911e-05
7.23968e-05
8.77923e-05
6.95797e-05
6.95966e-05
6.98499e-05
5.3327e-05
5.95666e-05
6.91817e-05
5.93928e-05
6.91669e-05
6.98613e-05
7.09937e-05
7.40123e-05
7.00506e-05
7.40784e-05
7.09908e-05
6.98487e-05
5.31514e-05
5.912e-05
6.91443e-05
5.93e-05
6.9837e-05
6.91591e-05
7.09704e-05
7.41756e-05
7.00561e-05
7.41139e-05
7.09732e-05
6.9851e-05
5.33289e-05
5.95729e-05
6.9185e-05
5.93982e-05
6.91636e-05
6.98627e-05
7.09949e-05
7.40328e-05
7.00553e-05
7.09921e-05
7.40977e-05
6.985e-05
5.31527e-05
5.91255e-05
6.91415e-05
6.98381e-05
5.93064e-05
6.91621e-05
7.09717e-05
7.41955e-05
7.00608e-05
7.41337e-05
7.09744e-05
6.98734e-05
5.96537e-05
6.91899e-05
5.38736e-05
6.98623e-05
5.98209e-05
6.92053e-05
7.09296e-05
7.00854e-05
7.43559e-05
7.4301e-05
7.09321e-05
7.09527e-05
7.42097e-05
7.00803e-05
7.09501e-05
7.42688e-05
6.98742e-05
5.40323e-05
6.00638e-05
6.92285e-05
5.99035e-05
6.92134e-05
6.98849e-05
6.98747e-05
5.96591e-05
6.91873e-05
5.38749e-05
6.98635e-05
5.98269e-05
6.92087e-05
7.09309e-05
7.009e-05
7.43758e-05
7.43204e-05
7.09333e-05
7.09539e-05
7.42297e-05
7.00849e-05
7.09513e-05
7.42885e-05
6.98754e-05
5.40338e-05
6.00696e-05
6.92319e-05
5.99089e-05
6.92106e-05
6.98862e-05
6.96331e-05
6.96155e-05
6.96353e-05
6.96179e-05
8.76892e-05
7.24181e-05
7.24123e-05
8.76231e-05
7.24187e-05
7.24129e-05
5.7776e-05
4.02441e-05
5.95512e-05
6.89404e-05
4.01217e-05
6.89186e-05
5.78588e-05
5.78432e-05
4.02615e-05
5.95631e-05
6.89529e-05
4.01425e-05
6.8931e-05
5.79232e-05
5.75928e-05
6.88832e-05
3.97449e-05
5.94429e-05
5.75069e-05
3.98692e-05
6.89063e-05
5.76575e-05
6.88956e-05
3.97658e-05
5.94547e-05
5.75743e-05
3.98881e-05
6.89187e-05
8.77243e-05
7.23971e-05
7.23913e-05
7.23964e-05
7.23906e-05
8.77876e-05
6.95789e-05
6.95959e-05
6.95813e-05
6.95982e-05
1.50403e-05
1.50407e-05
1.48324e-05
1.49325e-05
1.49328e-05
1.52915e-05
1.54094e-05
3.78556e-05
2.4885e-05
2.48911e-05
1.80995e-05
3.77328e-05
2.4957e-05
2.4963e-05
3.73122e-05
1.79598e-05
2.4653e-05
2.46599e-05
2.45741e-05
2.45785e-05
3.74489e-05
3.73172e-05
1.79464e-05
2.46599e-05
2.46684e-05
2.45684e-05
2.45582e-05
3.74504e-05
3.73176e-05
1.79473e-05
2.46758e-05
2.46715e-05
2.4564e-05
2.45583e-05
3.74504e-05
3.73187e-05
1.79595e-05
2.46459e-05
2.46497e-05
3.7444e-05
2.45747e-05
2.45824e-05
3.78629e-05
2.48838e-05
2.48889e-05
1.81007e-05
3.7726e-05
2.49626e-05
2.49681e-05
3.89322e-05
1.85257e-05
2.59281e-05
2.59201e-05
2.58333e-05
2.58472e-05
3.90617e-05
3.78637e-05
2.48792e-05
2.48688e-05
1.81141e-05
2.49773e-05
3.77234e-05
2.49739e-05
3.89308e-05
1.85095e-05
2.59281e-05
2.59373e-05
2.58297e-05
2.58209e-05
3.90645e-05
3.78615e-05
2.48745e-05
2.48718e-05
1.81158e-05
2.49808e-05
3.77295e-05
2.49842e-05
3.89345e-05
1.85097e-05
2.59414e-05
2.59391e-05
2.5828e-05
2.58227e-05
3.90693e-05
3.89418e-05
1.85259e-05
2.59145e-05
2.5921e-05
2.58419e-05
2.5846e-05
3.90561e-05
1.50983e-05
1.51503e-05
1.51507e-05
1.52627e-05
1.52631e-05
1.56503e-05
1.5529e-05
1.50981e-05
1.51503e-05
1.51505e-05
1.52627e-05
1.5263e-05
1.56503e-05
1.55289e-05
1.50983e-05
1.51503e-05
1.51506e-05
1.52628e-05
1.5263e-05
1.56502e-05
1.55288e-05
1.5098e-05
1.51502e-05
1.51506e-05
1.52626e-05
1.5263e-05
1.56502e-05
1.55288e-05
1.50403e-05
1.50405e-05
1.48323e-05
1.49324e-05
1.49327e-05
1.52915e-05
1.54093e-05
1.50404e-05
1.50406e-05
1.48325e-05
1.49325e-05
1.49327e-05
1.52914e-05
1.54093e-05
1.50402e-05
1.50406e-05
1.48322e-05
1.49324e-05
1.49327e-05
1.52913e-05
1.54092e-05
1.47499e-05
1.47237e-05
1.47241e-05
1.4827e-05
1.48274e-05
1.51753e-05
1.50607e-05
1.47496e-05
1.47237e-05
1.47239e-05
1.4827e-05
1.48272e-05
1.51752e-05
1.50607e-05
1.47498e-05
1.47238e-05
1.4724e-05
1.48271e-05
1.48273e-05
1.51751e-05
1.50606e-05
1.47496e-05
1.47236e-05
1.47239e-05
1.48269e-05
1.48272e-05
1.51751e-05
1.50606e-05
1.95981e-05
2.92112e-05
3.35485e-05
1.79947e-05
3.34199e-05
1.79674e-05
1.96629e-05
2.23781e-05
2.75737e-05
3.95903e-05
4.53062e-05
2.23277e-05
2.7686e-05
3.96989e-05
1.94679e-05
2.89219e-05
3.2997e-05
1.78134e-05
1.94063e-05
3.31287e-05
1.7841e-05
2.25829e-05
4.00741e-05
4.55151e-05
2.80303e-05
2.79188e-05
3.99674e-05
2.2635e-05
1.96175e-05
2.92153e-05
1.79968e-05
3.35504e-05
1.79709e-05
3.34202e-05
1.96434e-05
2.23731e-05
2.75887e-05
3.95804e-05
4.53072e-05
2.23354e-05
2.76793e-05
3.97063e-05
1.94508e-05
2.89225e-05
1.78161e-05
3.29986e-05
1.94274e-05
1.78427e-05
3.31305e-05
2.25893e-05
4.00806e-05
4.55222e-05
2.80245e-05
2.79333e-05
3.99587e-05
2.26334e-05
3.81413e-05
1.82284e-05
2.52744e-05
2.52774e-05
2.52003e-05
2.52053e-05
3.82604e-05
3.70363e-05
1.78455e-05
2.42701e-05
2.42736e-05
3.68919e-05
2.43479e-05
2.43539e-05
1.91085e-05
3.21423e-05
1.75234e-05
2.80743e-05
1.90498e-05
3.22838e-05
1.75667e-05
2.20629e-05
2.73464e-05
4.48799e-05
3.93229e-05
2.7235e-05
3.91908e-05
2.21419e-05
2.19034e-05
3.88003e-05
2.68904e-05
4.46646e-05
2.70051e-05
2.18175e-05
3.89333e-05
1.92236e-05
2.83581e-05
3.27081e-05
1.77047e-05
3.2566e-05
1.76622e-05
1.92825e-05
1.91081e-05
3.21518e-05
1.75235e-05
2.80714e-05
1.90511e-05
3.22815e-05
1.75671e-05
2.20846e-05