/*--------------------------------*- C++ -*----------------------------------*\
| =========                 |                                                 |
| \\      /  F ield         | OpenFOAM: The Open Source CFD Toolbox           |
|  \\    /   O peration     | Version:  v1906                                 |
|   \\  /    A nd           | Web:      www.OpenFOAM.com                      |
|    \\/     M anipulation  |                                                 |
\*---------------------------------------------------------------------------*/
FoamFile
{
    version     2.0;
    format      ascii;
    class       surfaceScalarField;
    location    "500";
    object      phi;
}
// * * * * * * * * * * * * * * * * * * * * * * * * * * * * * * * * * * * * * //

dimensions      [0 3 -1 0 0 0 0];
oriented        oriented;


internalField   nonuniform List<scalar> 
124860
(
-1.2563e-06
-1.24619e-06
-0.000269536
2.65019e-07
1.99926e-07
1.80058e-07
8.44985e-08
-1.29966e-06
2.49349e-07
-2.95114e-07
-9.37027e-07
2.05014e-07
-2.93549e-07
8.77833e-07
-0.00113979
1.26969e-06
2.19354e-07
-0.00114023
7.83057e-08
-1.29998e-06
2.65848e-07
-2.89952e-07
-9.34773e-07
2.35337e-07
-2.83021e-07
8.85871e-07
-1.22998e-06
-0.000269555
2.31154e-07
2.3615e-07
2.29752e-07
1.10595e-07
-1.24955e-06
2.76981e-07
-2.76002e-07
-9.23972e-07
2.65594e-07
-2.6676e-07
8.88573e-07
-0.00114087
1.2642e-06
2.2484e-07
7.27649e-08
-1.29449e-06
2.65879e-07
-2.89881e-07
-9.31942e-07
2.35328e-07
-2.82872e-07
8.83051e-07
-0.00113989
2.19176e-07
-0.00114062
7.78234e-08
-1.26025e-06
2.57583e-07
-2.8156e-07
-9.29099e-07
2.32655e-07
-2.80105e-07
8.80463e-07
1.25873e-06
2.24527e-07
-0.00113968
7.81943e-08
-1.28901e-06
2.60236e-07
-2.84217e-07
-9.31792e-07
2.32657e-07
-2.82775e-07
8.83101e-07
-1.22448e-06
-0.000269514
2.31057e-07
2.36155e-07
2.19201e-07
8.87839e-08
-1.25472e-06
2.57618e-07
-2.81511e-07
-9.2895e-07
2.355e-07
-2.82788e-07
8.80365e-07
-0.00114027
1.22192e-06
2.19057e-07
-0.0011408
8.3091e-08
-1.25752e-06
2.57763e-07
-2.84298e-07
-9.29094e-07
2.35526e-07
-2.82816e-07
8.8059e-07
-0.00026953
2.3098e-07
2.363e-07
1.8871e-07
2.18644e-07
-0.00119083
-0.00119085
1.88915e-07
1.89249e-07
1.82931e-07
2.12731e-07
-0.00119045
-0.00119065
1.88665e-07
2.00665e-07
-2.15243e-08
-5.79651e-09
-9.70807e-05
-2.38017e-08
-5.85057e-09
-9.70826e-05
-1.76209e-08
-9.38201e-09
-0.000276412
8.21637e-09
-2.20705e-08
-7.1791e-08
-0.000276392
1.12817e-08
1.56226e-10
6.17786e-08
-2.59774e-08
3.13019e-10
0.000228353
-0.00022839
-3.5163e-08
-0.000192043
3.92638e-09
-1.03722e-10
-5.42743e-08
-0.000228341
2.82406e-08
2.51337e-09
6.18312e-08
-2.60154e-08
4.87271e-10
0.00022839
-0.000228426
-3.52016e-08
5.74491e-09
-0.000192083
1.58249e-09
4.14928e-08
-7.8885e-09
-6.38739e-09
0.000192082
-0.000192109
-5.42973e-08
-0.000228377
2.82544e-08
2.56733e-09
1.52274e-09
-1.72834e-09
2.00315e-07
0.000250188
-0.000250326
-7.46159e-08
-0.000244407
-1.13978e-08
-0.00116202
-3.28554e-09
3.30064e-07
-1.04009e-06
7.83597e-07
-8.64555e-07
9.62096e-07
3.96009e-09
3.42824e-07
9.61138e-07
-8.63855e-07
-1.03933e-06
7.82596e-07
-0.00116212
-8.13857e-08
-1.38348e-09
-0.00025016
1.74392e-09
-1.59503e-07
-1.96523e-09
2.00369e-07
0.000250219
-0.000250354
8.1112e-08
-1.30137e-06
2.25391e-07
8.8527e-07
-2.84481e-07
-9.36416e-07
2.34499e-07
1.26929e-06
-2.91077e-07
2.65385e-07
-0.00114038
1.97707e-08
-8.68499e-08
-0.000244423
-1.37138e-08
-0.00116217
3.36011e-07
-1.0377e-06
7.83653e-07
-8.61917e-07
9.64922e-07
-2.21911e-08
1.28165e-08
1.08274e-07
0.000244435
-0.000244492
3.42927e-07
9.63954e-07
-8.6398e-07
-1.03963e-06
7.82623e-07
-0.00116227
-0.000250191
2.46719e-09
-1.62114e-07
-2.15609e-08
-9.70852e-05
1.63839e-08
9.7082e-05
-9.71063e-05
1.26162e-06
0.000269593
-2.43678e-07
-2.48623e-07
-0.000271664
-4.16119e-08
-0.000276367
1.09265e-08
2.37563e-08
-1.73749e-08
-4.14782e-08
-0.000276472
1.10621e-08
-1.5186e-08
4.20563e-08
0.000276371
-0.000276403
-1.85998e-08
1.97466e-08
-1.51768e-08
4.18564e-08
0.000276476
-0.000276503
-5.77113e-09
-9.70877e-05
7.90474e-09
9.70845e-05
-9.7111e-05
-3.7445e-08
-0.00019207
1.67725e-09
-5.43279e-08
-1.8808e-10
-0.000228369
2.48508e-09
2.61815e-08
-9.67781e-08
-0.000244433
-1.61069e-08
6.82867e-10
3.35442e-07
-1.03217e-06
7.80811e-07
-8.56445e-07
9.61991e-07
-0.0011619
-1.71313e-09
-0.000250174
1.94623e-09
-1.64688e-07
-3.73166e-08
5.80269e-09
-0.000192016
1.60459e-09
-5.43218e-08
-0.000228331
2.61619e-08
2.41482e-09
3.41609e-07
-1.03492e-06
7.80867e-07
-8.56485e-07
9.62168e-07
-0.00116188
1.98353e-08
-8.19918e-08
-0.000244359
-1.61078e-08
-0.00025015
-1.62085e-07
2.12174e-09
-6.18482e-08
1.59135e-09
-1.42653e-09
1.97768e-07
0.000250215
-0.000250351
8.05931e-08
2.30884e-07
1.22958e-06
-2.82655e-07
2.57127e-07
8.7983e-07
-2.81621e-07
-9.30782e-07
2.31851e-07
-0.00114078
3.7363e-08
-8.68185e-08
-0.000244466
-1.36873e-08
-0.00116195
-3.83276e-09
3.35726e-07
-1.03482e-06
7.80759e-07
-8.59154e-07
9.62038e-07
-4.3529e-08
1.27926e-08
1.08065e-07
0.000244478
-0.000244535
3.59394e-09
3.48491e-07
9.61051e-07
-8.61175e-07
-1.03674e-06
7.79753e-07
-0.00116206
5.42346e-08
-1.65088e-09
-0.000250187
1.39808e-09
-1.62023e-07
1.13381e-10
5.16021e-10
-2.6026e-08
0.000228387
-0.000228423
-0.000192079
1.67753e-09
-6.38924e-09
0.000192078
-0.000192107
-1.77101e-10
-0.000228374
2.28221e-09
2.82219e-08
-6.18251e-08
1.95155e-07
-2.24517e-09
0.000250191
-0.00025032
8.09631e-08
-1.2904e-06
2.30556e-07
8.82499e-07
-2.84231e-07
-9.33442e-07
2.34587e-07
1.25843e-06
-2.85389e-07
2.59789e-07
-0.00113983
-0.00116188
3.35603e-07
-1.03474e-06
7.80822e-07
-8.59159e-07
9.62067e-07
3.51984e-08
1.98142e-08
-8.44704e-08
-0.000244404
-1.37462e-08
3.48399e-07
9.6108e-07
-8.61173e-07
-1.03663e-06
7.79811e-07
-0.00116199
-4.13315e-08
-2.22353e-08
1.29253e-08
1.05666e-07
0.000244415
-0.00024447
5.4208e-08
-0.000250163
-1.59437e-07
2.14699e-09
-2.59998e-08
1.68463e-10
0.000228352
-0.000228387
5.71002e-09
-0.000192029
1.66249e-09
-7.92284e-09
-6.24192e-09
0.000192028
-0.000192055
-0.000228339
2.8209e-08
2.48958e-09
-2.37535e-08
-9.70669e-05
-4.14813e-08
-0.000276335
8.08384e-09
2.15978e-08
-1.97863e-08
-4.3961e-08
-0.00027643
1.03927e-08
-5.68462e-09
-9.70766e-05
1.19106e-09
-6.43643e-08
2.00355e-07
-1.76462e-09
0.000250176
-0.000250311
-0.00116161
-9.52521e-09
3.3542e-07
-1.03185e-06
7.75224e-07
-8.56382e-07
9.56379e-07
3.53001e-08
-8.69943e-08
-0.000244409
-1.36912e-08
-1.09842e-08
3.42295e-07
9.58165e-07
-8.55621e-07
-1.03105e-06
7.76982e-07
-0.0011617
-9.16094e-08
-1.403e-09
5.67192e-08
-0.000250149
-1.64602e-07
1.95616e-09
-6.43496e-08
2.00367e-07
-2.94189e-09
0.000250208
-0.00025034
8.03871e-08
-1.25622e-06
2.25048e-07
8.7995e-07
-2.84288e-07
-9.30779e-07
2.34709e-07
1.22433e-06
-2.82681e-07
2.57297e-07
-0.00114095
-0.00116177
3.35304e-07
-1.02926e-06
7.75294e-07
-8.5369e-07
9.5651e-07
3.52459e-08
1.99019e-08
-8.69654e-08
-0.000244418
-1.37798e-08
3.42141e-07
9.55568e-07
-8.55692e-07
-1.0311e-06
7.74286e-07
-0.00116188
-4.13448e-08
-2.23147e-08
1.29438e-08
1.08093e-07
0.00024443
-0.000244487
5.66934e-08
-0.00025018
-1.64595e-07
2.59364e-09
1.61824e-10
1.88417e-10
-2.39912e-08
0.000228341
-0.000228381
-0.000192032
1.74181e-09
-2.12873e-10
-0.000228328
2.52122e-09
2.61784e-08
3.17572e-10
-2.39921e-08
0.000228377
-0.000228418
5.80296e-09
-0.000192069
1.56693e-09
-8.01235e-09
-6.12141e-09
0.000192068
-0.000192095
-0.000228365
2.34892e-09
2.6164e-08
0.00026957
-2.43412e-07
-2.48752e-07
-0.000271625
2.15459e-08
-4.38643e-08
-0.000276425
7.88673e-09
2.1496e-08
-4.15919e-08
-0.000276373
8.48539e-09
-1.63145e-08
-1.21234e-08
4.4218e-08
0.000276429
-0.000276467
-1.62437e-08
-1.26806e-08
4.18969e-08
0.000276376
-0.000276412
-9.70765e-05
9.70733e-05
-9.70976e-05
-9.70807e-05
9.70775e-05
-9.71018e-05
1.84407e-08
7.97655e-09
-9.71071e-05
1.61069e-08
7.98991e-09
-9.71067e-05
-3.01423e-08
4.78269e-08
0.000220929
-3.06877e-08
6.19444e-08
-0.000220978
-0.000250162
-1.8152e-08
4.16397e-08
-2.48339e-08
-1.6829e-08
4.84015e-08
2.4314e-08
-0.00027645
-0.000181688
-1.06039e-08
9.35117e-09
-1.48253e-08
-0.00018172
1.2114e-07
6.14571e-08
-0.000250248
-3.64398e-08
-9.69434e-09
-2.11551e-08
2.10042e-08
0.000220896
-1.43729e-08
3.86382e-08
-0.000220921
-0.000250109
7.13935e-08
-2.23472e-07
-4.76388e-08
-1.0852e-08
3.21872e-08
1.97901e-08
-0.000276417
-0.000181657
-4.90226e-08
1.73813e-08
-1.31003e-08
-0.000181676
6.32882e-08
4.85514e-08
-0.000250168
8.14427e-08
-1.04342e-07
-1.07778e-08
-1.06955e-08
0.000212362
-0.000212385
-7.98914e-05
-1.41639e-08
-7.98816e-05
-1.08991e-08
-7.9917e-05
-7.99054e-05
-0.000142091
-8.17725e-10
-2.67119e-08
0.000142116
2.18606e-09
1.43131e-09
0.000169661
5.93204e-12
-0.000169688
-2.68848e-08
0.000222145
6.16126e-08
-0.000222179
-3.40631e-10
2.81134e-08
2.52335e-09
0.000228377
7.44368e-11
-5.39024e-08
-0.000142115
-1.00635e-09
0.000169688
2.50051e-11
0.00022217
-5.38268e-08
4.60853e-09
2.60154e-08
7.84793e-05
1.02215e-09
-7.85064e-05
-6.15361e-09
4.3136e-08
-0.000192072
-0.000261307
2.70156e-08
-4.61221e-09
-5.31148e-08
4.0109e-10
5.41826e-08
-0.000261342
-2.15506e-09
-1.41118e-09
2.66371e-08
0.000142092
-2.56986e-08
5.10469e-11
1.38732e-11
6.11202e-08
-0.000169661
7.91148e-10
4.6252e-12
-0.000222133
2.68288e-08
-5.65962e-08
-2.16115e-12
6.33937e-08
-0.000142161
-8.38308e-10
-2.47374e-08
1.98177e-09
0.000142185
1.38971e-09
0.000169695
-0.000169722
-2.49147e-08
0.000222229
-3.89628e-10
6.42109e-08
-0.000222268
2.81199e-08
2.57581e-09
0.000228413
-5.39008e-08
-8.24425e-10
-0.000142184
0.000169722
4.5944e-09
0.000222259
-5.63422e-08
2.38992e-08
7.85239e-05
-7.85486e-05
8.46578e-10
-6.25546e-09
-0.000192109
-7.91566e-09
4.1079e-08
-0.000261419
2.49189e-08
-4.58107e-09
-5.30953e-08
-0.000261456
3.90524e-10
5.43652e-08
-1.94709e-09
-7.85218e-05
-2.48597e-08
-2.40793e-08
0.000261422
5.48364e-08
-0.00026146
1.46959e-09
5.79349e-09
-3.49695e-08
-7.85467e-05
-5.28761e-08
-1.36613e-09
2.46828e-08
0.000142162
-2.57427e-08
2.59503e-10
6.11481e-08
-0.000169695
8.13832e-10
-0.00022222
2.48471e-08
-5.67003e-08
6.35759e-08
-9.71093e-05
1.6185e-08
-2.14727e-08
-0.00021237
1.25278e-08
1.24582e-08
-2.3423e-08
-2.13657e-08
0.00021239
1.08365e-08
7.98811e-05
1.31928e-08
-7.99052e-05
1.0876e-08
7.98946e-05
1.31487e-08
-7.99186e-05
2.28829e-08
2.07154e-08
-0.000212392
-1.24846e-08
7.99061e-05
-1.25505e-08
7.99196e-05
3.56559e-08
-2.55746e-08
0.000220882
-0.000220921
-2.26166e-08
5.16405e-08
-0.000250078
2.78964e-08
-9.10515e-08
-3.74388e-08
4.15562e-08
-1.51954e-08
-0.000276399
2.20617e-08
-0.00018165
-2.9686e-08
1.24562e-08
-0.000250153
9.60268e-08
5.6321e-08
-0.000181678
-1.31475e-08
2.356e-08
-5.6855e-08
-2.55517e-08
3.55634e-08
0.000220953
-0.000220997
-2.044e-08
5.37772e-08
-0.000250231
2.79591e-08
-9.09736e-08
-3.2421e-08
-1.51562e-08
4.13623e-08
-0.000276499
-1.84067e-08
1.95728e-08
-0.000181702
-2.96465e-08
1.25375e-08
-0.00018173
-1.30908e-08
-0.000250301
9.59184e-08
5.11359e-08
2.15199e-08
-5.89377e-08
-2.76394e-08
-0.00022089
2.95216e-08
-5.65969e-08
2.59202e-08
0.00018165
-0.000181678
0.000250094
-3.60211e-08
5.67941e-08
9.68491e-08
-0.00025017
-4.13303e-08
1.09795e-08
-1.9753e-08
-3.70869e-08
-9.05986e-08
5.22438e-08
-0.000220929
-0.000220961
2.94959e-08
-2.76904e-08
-5.86881e-08
2.58862e-08
0.000181702
-0.00018173
-3.59427e-08
0.000250247
9.6714e-08
5.16447e-08
-0.000250318
1.10852e-08
-4.1211e-08
2.36898e-08
-1.73418e-08
5.43643e-08
-0.000221005
-9.05293e-08
-3.20713e-08
-1.07223e-08
-1.07717e-08
0.000212368
-7.98823e-05
-1.25784e-08
-7.98958e-05
-1.24947e-08
-9.7114e-05
7.91357e-09
-5.80086e-09
2.37932e-08
7.85251e-05
9.14195e-10
-7.85498e-05
-6.13401e-09
4.09677e-08
-0.000192097
-0.000261424
2.49475e-08
-4.46769e-09
-5.07859e-08
4.25628e-10
5.1944e-08
-0.000261459
-1.89572e-09
2.46827e-08
-1.3231e-09
0.000142161
-0.000142183
2.19229e-10
-2.36981e-08
1.07433e-10
6.12597e-08
-0.000228407
-0.000222221
2.48419e-08
-5.42798e-08
-0.000169693
7.61692e-10
-2.29703e-11
6.12107e-08
-0.000222257
7.96225e-11
-0.000169718
2.60699e-08
7.84775e-05
9.88791e-10
-7.85045e-05
-6.27956e-09
-7.91994e-09
4.31359e-08
-0.000192045
-0.000261302
2.70932e-08
-4.47412e-09
-5.06056e-08
2.32486e-10
5.19018e-08
-0.000261335
-2.09389e-09
-1.48956e-09
2.67002e-08
0.000142088
-0.000142112
-2.36927e-08
4.4033e-10
6.12501e-08
-0.000228369
-0.000169658
7.33445e-10
-0.000222126
2.6837e-08
-5.42092e-08
-0.000169683
6.1106e-08
-0.00022216
-0.000142161
-2.4748e-08
-8.01993e-10
1.9398e-09
0.000142185
-2.49369e-08
0.000222233
-4.01027e-10
6.424e-08
-0.000222272
1.41309e-09
0.000169691
-4.19672e-11
-0.000169719
2.5178e-09
2.80923e-08
0.00022841
-2.54324e-11
-5.38586e-08
-8.37417e-10
-0.000142184
4.5219e-09
0.000222263
-5.63704e-08
0.000169719
-1.08568e-11
2.38856e-08
7.85266e-05
-7.85514e-05
8.55536e-10
-6.27044e-09
-0.000192108
4.30952e-08
-0.000261435
2.49709e-08
-4.51364e-09
-5.3139e-08
-0.000261472
3.97693e-10
5.4312e-08
-1.90413e-09
-7.85245e-05
-2.49093e-08
-2.40655e-08
0.000261438
5.47962e-08
-0.000261475
1.57283e-09
-3.71199e-08
-7.85494e-05
-5.29173e-08
2.4685e-08
-1.3973e-09
0.000142162
2.82523e-10
-2.57509e-08
-3.19807e-11
6.11826e-08
-0.000222225
2.48553e-08
-5.67215e-08
-0.000169691
7.80344e-10
-2.75752e-11
6.3615e-08
-5.28234e-11
-0.000142091
-7.8996e-10
-2.47142e-08
1.92944e-09
0.000142115
1.32175e-09
0.000169657
-0.000169685
-2.4867e-08
0.000222142
-5.01738e-10
6.4114e-08
-0.00022218
2.80847e-08
2.73409e-09
0.000228375
-5.38372e-08
-8.78806e-10
-0.000142114
0.000169685
4.51829e-09
0.000222172
-5.62902e-08
2.38e-08
7.84833e-05
-7.8508e-05
9.01407e-10
-6.10186e-09
-0.000192056
-7.94812e-09
4.09106e-08
-0.000261313
2.49435e-08
-4.50359e-09
-5.30954e-08
-0.00026135
5.1766e-10
5.42472e-08
-1.89089e-09
-7.84811e-05
-2.48817e-08
-2.39844e-08
0.000261316
5.47197e-08
-0.000261353
1.55495e-09
5.75857e-09
-3.49646e-08
-7.8506e-05
-5.28726e-08
-1.30514e-09
2.46209e-08
0.000142092
-2.57244e-08
-6.54549e-11
6.11581e-08
-0.000169658
7.55262e-10
-0.000222133
2.4824e-08
-5.66506e-08
6.35065e-08
1.84255e-08
-9.70932e-05
3.31454e-08
-2.72768e-08
0.000220865
-2.05047e-08
5.37276e-08
-0.000220904
-0.000250043
2.55367e-08
-9.09661e-08
-3.74951e-08
4.14088e-08
-1.2171e-08
2.19946e-08
-0.000276368
-0.000181641
-3.13389e-08
1.26045e-08
9.59234e-08
5.62512e-08
-0.00025012
-1.31781e-08
-0.000181667
2.15842e-08
-5.89092e-08
-2.7508e-08
3.55579e-08
0.000220941
-2.24935e-08
4.92264e-08
-0.000220976
-0.000250193
2.78789e-08
-8.85395e-08
-3.49817e-08
-1.46787e-08
4.37297e-08
-1.60965e-08
2.2101e-08
-0.000276465
-0.000181699
-3.16799e-08
1.24258e-08
-1.31109e-08
-0.000181728
9.33957e-08
5.37357e-08
-0.000250261
2.34599e-08
-5.44701e-08
-1.07196e-08
-1.07324e-08
0.000212355
-0.000212376
-7.98764e-05
-1.24526e-08
-7.98944e-05
-1.25824e-08
-7.99003e-05
-7.99182e-05
7.98049e-09
-9.71007e-05
-0.00014209
-2.47385e-08
-8.20253e-10
1.94202e-09
0.000142114
-2.4919e-08
0.000222136
6.41883e-08
-0.000222174
-4.56178e-10
1.3504e-09
0.000169658
4.13767e-11
-0.000169683
2.74792e-09
2.60612e-08
0.000228368
-6.1749e-11
-5.63682e-08
-0.000142113
-8.99442e-10
4.52526e-09
0.000222168
-5.87743e-08
0.000169683
-6.2902e-11
2.37782e-08
7.84831e-05
-7.85078e-05
9.12469e-10
-6.09782e-09
4.09404e-08
-0.000192058
-0.00026131
2.49365e-08
-4.4589e-09
-5.07827e-08
-0.000261347
5.04136e-10
5.43049e-08
-1.90975e-09
-2.48823e-08
-7.8481e-05
-5.29361e-08
-0.000261313
-1.61265e-09
2.46653e-08
-1.33068e-09
0.000142092
-5.2607e-11
-2.37131e-08
1.57539e-11
6.37099e-08
-0.000222127
2.486e-08
-5.66855e-08
-0.000169658
7.83424e-10
-7.51575e-11
6.59755e-08
2.52759e-11
-0.000142159
-2.67819e-08
-6.6655e-10
2.06502e-09
0.000142184
-2.69729e-08
0.000222227
-4.38602e-10
6.40906e-08
-0.000222263
1.42721e-09
0.000169691
-0.000169717
2.36655e-09
2.60388e-08
0.000228405
-5.63278e-08
-1.07637e-09
-0.000142184
4.44462e-09
0.000222254
-5.62675e-08
0.000169717
2.60145e-08
7.85234e-05
-7.85506e-05
1.09692e-09
-5.98495e-09
-0.000192096
-8.03651e-09
4.09241e-08
-0.000261422
2.71764e-08
-4.4209e-09
-5.06901e-08
-0.000261454
4.56219e-10
5.18056e-08
-2.02663e-09
-7.85214e-05
-2.71081e-08
-2.61926e-08
0.000261425
5.22793e-08
-0.000261458
1.45887e-09
5.84825e-09
-3.50165e-08
-7.85486e-05
-5.04659e-08
2.67227e-08
-1.39746e-09
0.00014216
3.20006e-10
-2.37201e-08
6.36882e-08
-0.000222218
2.69056e-08
-5.66046e-08
-0.000169692
6.29482e-10
6.34979e-08
-0.000212364
1.24903e-08
1.24452e-08
-2.12727e-08
-2.34579e-08
0.000212384
1.08192e-08
7.98922e-05
1.31792e-08
-7.99162e-05
1.08216e-08
7.9881e-05
1.32087e-08
-7.9905e-05
2.06927e-08
2.27953e-08
-0.000212386
-1.24975e-08
7.99172e-05
-1.25748e-08
7.9906e-05
3.31273e-08
-2.72307e-08
0.000220943
-0.000220979
-2.04237e-08
5.13345e-08
-0.000250184
2.54084e-08
-8.6055e-08
-3.49128e-08
4.3703e-08
-1.21231e-08
-0.000276463
-1.61112e-08
2.20992e-08
-0.000181697
-3.1387e-08
1.24825e-08
-0.000250254
9.34074e-08
5.37347e-08
-0.000181724
-1.31283e-08
2.14101e-08
-5.66159e-08
3.3138e-08
-2.53022e-08
0.000220881
-0.000220918
-2.25185e-08
5.15831e-08
-0.000250088
2.55583e-08
-9.09625e-08
-3.50679e-08
4.139e-08
-1.26734e-08
-0.000276408
-1.60475e-08
2.21695e-08
-0.000181653
-2.94467e-08
1.25512e-08
-0.000250163
9.58163e-08
5.37454e-08
-0.000181678
-1.3152e-08
2.35928e-08
-5.68152e-08
-0.00022095
-2.51531e-08
3.12157e-08
-5.63733e-08
2.75813e-08
0.000181697
-0.000181724
-3.34988e-08
0.0002502
5.41921e-08
9.42435e-08
-0.000250271
-4.36027e-08
7.93193e-09
2.14694e-08
-1.97975e-08
5.19541e-08
-0.000220988
-3.45705e-08
-8.81038e-08
-0.000220889
-2.53026e-08
2.92957e-08
-5.65806e-08
2.5648e-08
0.000181652
-0.000181678
-3.35036e-08
0.000250104
5.42284e-08
9.66181e-08
-0.00025018
-4.13348e-08
8.5309e-09
2.14189e-08
-1.98793e-08
5.22026e-08
-0.000220926
-3.4719e-08
-9.05484e-08
-1.07074e-08
-1.07169e-08
0.000212362
-7.98933e-05
-1.25269e-08
-7.98821e-05
-1.2487e-08
-9.71006e-05
-9.71048e-05
1.20095e-07
9.1931e-08
0.000242592
-0.000242704
-2.37226e-07
-2.47663e-07
-0.000271601
-0.000261325
2.60528e-08
-0.000261664
1.80704e-07
-0.000261616
-0.000262033
1.09964e-07
1.07237e-07
0.000242605
-0.000242717
-2.42628e-07
-2.47586e-07
-0.000271625
-0.000261694
1.06456e-07
-0.000261339
1.03829e-07
-0.00026202
-0.000261665
1.07424e-07
1.07092e-07
0.000242578
-0.000242689
-2.42523e-07
-2.47565e-07
-0.000271573
-0.000261657
1.03981e-07
-0.0002613
1.03673e-07
-0.000261986
-0.000261628
1.07109e-07
1.07299e-07
0.000242588
-0.0002427
-2.42351e-07
-2.47727e-07
-0.000271586
-0.00026128
1.03672e-07
-0.000261704
1.03967e-07
-0.000261606
-0.000262033
-0.00121473
2.53195e-07
-2.00452e-09
2.59168e-07
4.48362e-09
-0.0012152
2.62044e-07
-1.66321e-09
-0.00121445
-1.98007e-07
0.00123679
-1.86622e-08
-1.3135e-09
-0.00123623
-2.74186e-07
-7.79783e-09
1.16489e-09
1.92255e-07
1.92609e-07
-0.00119078
-0.00121478
2.53291e-07
-0.00121529
2.59247e-07
-6.04324e-10
2.56212e-07
-0.0012145
2.62147e-07
6.75871e-10
-0.00121501
0.00123684
3.15848e-10
-0.00123634
2.48684e-10
2.76917e-07
-0.00121435
-0.00121478
2.53003e-07
-2.47177e-08
2.55779e-07
-1.21593e-07
-0.00121427
-3.04758e-07
0.00123611
-1.27572e-07
-0.00123536
-3.69851e-07
-2.57927e-08
1.91983e-07
2.09929e-07
-0.0011906
-0.00121443
2.64784e-07
-0.0012149
2.52929e-07
2.79633e-07
-0.00121417
2.55818e-07
-0.00121472
0.00123622
-0.00123581
-0.000266538
1.79433e-07
3.54351e-10
0.000267317
2.27664e-09
2.12429e-07
0.000249314
-0.00024946
-6.95747e-09
-5.29159e-09
0.000266981
4.95504e-09
-0.000267644
2.6892e-09
-1.61435e-07
0.000250292
4.46312e-11
-0.000267352
-1.85661e-08
0.000249436
6.31134e-09
0.000267604
-1.88311e-09
-3.06991e-08
-1.90739e-07
0.000264512
2.08276e-08
-0.000265249
-0.000260358
-1.08297e-08
1.12177e-07
1.50354e-08
-0.000244467
-0.000250099
-1.65119e-07
-6.36768e-09
-0.000260509
6.85667e-09
-0.000250227
-2.52338e-09
-2.13763e-07
8.46362e-09
0.000266503
-3.34769e-09
1.96401e-07
1.87868e-10
-0.000249289
-1.77524e-07
-0.000266942
-2.779e-09
-4.76986e-09
2.2431e-09
-0.000266588
1.79463e-07
1.15378e-09
2.19099e-09
0.000267369
2.12551e-07
0.000249379
-7.00355e-09
-0.000249522
-6.06078e-09
0.000267008
-0.000267661
2.68235e-09
-1.61406e-07
0.000250324
-1.86139e-08
-0.000267402
6.20233e-09
0.000249499
0.000267629
-1.85893e-07
-2.83173e-08
0.000264558
-0.000265297
1.83057e-08
-0.000260372
-1.29978e-08
1.26989e-08
1.07384e-07
-0.00024448
-0.000250159
-1.67694e-07
-6.31775e-09
-0.000250285
6.87491e-09
-0.00026052
-2.43836e-09
-0.00026459
1.67282e-07
1.27272e-08
1.86896e-07
0.000250178
-0.000250304
2.86812e-08
0.000260396
-0.000260544
-1.37011e-08
-8.63768e-08
-0.000265329
-2.11326e-07
6.68008e-09
0.000266554
-2.59529e-09
1.96424e-07
-0.000249355
-1.80131e-07
-0.000266972
-1.54487e-09
-1.06121e-07
-0.000242622
-1.03491e-07
2.307e-07
2.35702e-07
0.000261721
-1.10814e-07
-0.000262048
-1.08073e-07
0.000261366
-0.000261693
-0.000242735
-2.85549e-08
-1.83262e-07
0.000264581
2.85708e-08
-0.000265322
-0.000260401
-1.79627e-08
9.98528e-08
1.27852e-08
-0.000244485
-0.000250168
-1.728e-07
-6.26817e-09
-0.000260548
6.94279e-09
-0.000250293
-1.00364e-08
-2.11392e-07
9.9969e-09
0.000266548
-0.000267351
-3.11775e-09
1.99074e-07
4.16069e-10
-0.000250309
-0.000249349
-1.82716e-07
-0.000266955
-8.25034e-10
-6.84415e-09
-0.000249495
4.3986e-09
-0.000267607
-1.85747e-07
-3.08466e-08
0.000264492
1.56578e-08
-0.000265223
-0.000260309
-1.56649e-08
1.50662e-08
1.02395e-07
-0.000244412
-0.000250074
-1.67553e-07
-6.26204e-09
6.82181e-09
-0.000250199
-0.000260464
6.75134e-11
6.10754e-09
-2.11346e-07
0.000266485
-0.000267299
1.96495e-07
-2.28383e-09
-0.000250282
-0.00026694
-2.08583e-09
-0.000249267
-1.80105e-07
-0.000267589
-0.000249413
-0.000266591
1.81983e-07
-1.89488e-09
1.24234e-08
0.00026736
2.15115e-07
0.000249387
-9.38434e-09
-0.000249529
-6.47674e-09
0.000266995
6.40774e-09
-0.000267658
3.08099e-09
-1.61349e-07
0.000250319
-2.77497e-10
-2.88239e-08
-0.00026739
8.56429e-09
0.000249507
0.000267615
-3.667e-09
-3.08741e-08
-1.88223e-07
0.000264593
-0.000265332
2.85147e-08
-0.000260434
-1.56846e-08
1.07144e-07
1.26488e-08
-0.000244523
-0.000250187
-1.70169e-07
-8.66267e-09
-0.000260587
-0.000250318
9.25603e-09
-1.26785e-08
-0.000264625
1.542e-08
1.69732e-07
1.89236e-07
0.000250206
-0.000250337
3.12619e-08
0.000260458
-0.000260611
-8.63653e-08
-1.36556e-08
-0.000265364
-2.13886e-07
9.67586e-09
0.000266558
-3.04089e-09
1.96462e-07
2.35371e-10
-0.000249363
-1.82675e-07
-0.000266958
-1.33466e-09
-6.45635e-09
3.62022e-09
-0.000266529
1.66829e-09
1.79375e-07
-3.6748e-10
0.00026731
-5.81815e-09
0.000266979
-0.000267633
2.12424e-07
0.000249309
-7.05567e-09
-0.000249453
-1.58757e-07
2.61796e-09
0.000250293
-1.60117e-08
-0.000267343
0.000267598
6.16162e-09
0.000249429
-1.85719e-07
-2.83377e-08
0.000264507
-0.000265241
1.57212e-08
-0.000260354
-1.30952e-08
1.27882e-08
1.0477e-07
-0.000244458
-0.000250097
-1.67698e-07
-6.26686e-09
-0.000250222
6.93388e-09
-0.000260506
9.19596e-11
-0.000264538
1.67274e-07
1.28142e-08
1.8673e-07
0.000250115
-0.000250242
2.86996e-08
0.000260377
-0.000260531
-1.37215e-08
-8.40407e-08
-0.000265272
6.19027e-09
-2.11233e-07
0.000266496
1.93846e-07
-2.65151e-09
-0.000266943
-2.05267e-09
-0.000249285
-1.80048e-07
-0.000266527
-1.37907e-09
1.81958e-07
1.49637e-08
0.00026729
-6.24814e-09
0.000266964
2.79761e-09
-0.000267616
2.15039e-07
0.000249304
-0.000249447
-9.45979e-09
-1.61332e-07
3.11651e-09
0.000250278
-3.38946e-11
-0.000267318
-3.13714e-08
0.000267579
-1.14371e-09
8.60433e-09
0.000249422
-3.08673e-08
-1.88248e-07
0.000264521
-0.000265261
3.1072e-08
-0.000260372
-1.56503e-08
1.072e-07
1.2791e-08
-0.000244466
-0.000250099
-1.70282e-07
-6.26554e-09
-0.000260525
-0.00025023
9.33762e-09
-1.00453e-08
1.69772e-07
-8.79681e-07
-0.000264552
1.53852e-08
-0.000250118
1.36732e-08
9.45049e-09
-2.1378e-07
0.000266493
1.9646e-07
-3.37901e-09
-1.12963e-10
-0.000266928
-1.33178e-09
-4.03617e-09
-0.00024928
-1.82652e-07
6.90177e-10
-0.000266575
-8.5874e-10
1.8192e-07
1.50037e-08
0.000267334
-8.81438e-09
0.000266994
-0.000267638
2.14948e-07
0.000249369
-9.44422e-09
-0.000249513
-1.61301e-07
2.80808e-09
0.00025031
-3.13779e-08
-0.000267369
0.000267605
8.57251e-09
0.000249489
-1.88138e-07
-2.8292e-08
0.000264567
-0.000265311
3.1093e-08
-0.00026039
-1.30934e-08
1.28061e-08
1.07199e-07
-0.000244475
-0.000250155
-1.70202e-07
-8.65528e-09
-0.000250288
9.34484e-09
-0.00026054
-1.52353e-08
-0.000264599
1.69765e-07
1.28375e-08
1.89165e-07
0.000250174
-0.000250308
2.86491e-08
0.000260414
-0.000260564
-1.37546e-08
-8.65068e-08
-0.000265343
8.92529e-09
-2.1378e-07
0.000266541
1.96447e-07
-2.84883e-09
-0.000266957
1.84811e-10
-0.000249345
-1.8256e-07
-0.000242606
-1.03366e-07
-1.03659e-07
2.30583e-07
2.3592e-07
-1.07984e-07
0.000261307
-0.000261634
-1.08136e-07
0.000261734
-0.00026206
-0.000242717
-8.38265e-07
-8.38388e-07
-0.00114599
4.41082e-07
4.46879e-07
0.00114678
-0.00113696
-1.5102e-06
8.38163e-07
4.14027e-07
0.00113746
-5.10002e-07
1.12362e-06
1.40972e-07
7.39781e-07
-5.57182e-07
-1.24469e-06
7.30983e-08
-0.0011366
-1.50483e-06
8.38397e-07
4.14318e-07
0.0011371
-5.0739e-07
1.11789e-06
1.37759e-07
7.39552e-07
-5.59979e-07
-1.24459e-06
7.64371e-08
-0.000276455
1.53938e-06
1.50482e-06
-4.8832e-07
-4.94194e-07
0.000274393
-1.15908e-06
-1.11908e-06
0.000276471
-0.000274367
8.35927e-08
9.09023e-08
0.00113613
8.42038e-07
-0.00113563
4.18882e-07
-1.54928e-06
1.45058e-07
-5.18584e-07
-1.2511e-06
6.76567e-08
-5.58263e-07
7.40652e-07
1.16492e-06
0.0011366
8.41985e-07
-0.00113609
4.17674e-07
-1.55486e-06
1.47955e-07
-5.21424e-07
-1.25698e-06
7.43274e-08
-5.64001e-07
7.46326e-07
-1.12204e-06
0.000276499
-0.00027439
8.62423e-08
9.13315e-08
0.00113725
8.44184e-07
-0.00113675
4.17344e-07
-1.50956e-06
1.39009e-07
-5.13278e-07
-1.25414e-06
7.41917e-08
-5.64023e-07
7.40571e-07
1.15662e-06
0.00113625
8.48029e-07
-0.00113575
4.17967e-07
-1.54671e-06
1.44982e-07
-5.18684e-07
-1.25126e-06
7.41312e-08
-5.63788e-07
7.40512e-07
8.48547e-07
-0.00113646
4.16258e-07
-1.51187e-06
1.3934e-07
-5.12846e-07
-1.25114e-06
7.09634e-08
7.3791e-07
-5.6099e-07
1.15126e-06
0.00113605
8.48081e-07
-0.00113554
4.18133e-07
-1.54107e-06
1.39023e-07
-5.12971e-07
-1.25127e-06
7.10168e-08
-5.63694e-07
7.40562e-07
-1.11634e-06
0.000276446
-0.000274351
8.5999e-08
9.13862e-08
8.43126e-07
-0.00113611
4.28027e-07
-1.50651e-06
1.36251e-07
-5.10154e-07
-1.24832e-06
7.43488e-08
7.37684e-07
-5.63801e-07
1.11399e-06
0.00113715
8.42909e-07
-0.00113665
4.22044e-07
-1.50923e-06
1.36418e-07
-5.12853e-07
-1.24581e-06
7.10911e-08
-5.61029e-07
7.35331e-07
-0.000274367
8.62798e-08
9.15346e-08
1.54762e-06
1.50776e-06
-4.85978e-07
-4.94106e-07
0.000274395
-1.15468e-06
-1.13863e-06
-0.000274463
1.29275e-07
6.41968e-08
0.000276563
4.15873e-07
0.00113662
-5.15846e-07
1.16064e-06
1.46692e-07
7.42425e-07
-5.54565e-07
-1.24741e-06
6.95986e-08
-1.5532e-06
8.37218e-07
4.15383e-07
0.00113709
-5.18593e-07
1.1665e-06
1.49566e-07
7.48182e-07
-5.60185e-07
-1.25326e-06
7.64173e-08
7.9341e-07
-0.00113758
4.13587e-07
-1.54469e-06
1.36176e-07
-5.16473e-07
-1.24104e-06
4.55317e-08
-5.61542e-07
7.40327e-07
0.00113816
1.17112e-06
8.23025e-07
-0.00113803
4.08065e-07
-1.54767e-06
1.54267e-07
-5.10233e-07
-1.23911e-06
8.26537e-08
-5.48828e-07
7.5097e-07
0.00113849
-4.8883e-07
-4.93659e-07
0.000274418
-1.12822e-06
-0.000274478
9.6127e-08
1.01227e-07
0.00027658
4.19358e-07
0.00113774
-5.10401e-07
1.12075e-06
1.40805e-07
7.45308e-07
-5.60164e-07
-1.24763e-06
7.63952e-08
-1.54502e-06
8.37662e-07
4.15614e-07
0.00113674
-5.15864e-07
1.1582e-06
1.46616e-07
7.42324e-07
-5.59986e-07
-1.24757e-06
7.62565e-08
8.33967e-07
-0.00113867
4.36651e-07
-1.49125e-06
1.59828e-07
-4.916e-07
-1.22825e-06
1.16709e-07
-5.32867e-07
7.53399e-07
0.00113897
1.16281e-06
8.23391e-07
-0.00113769
4.02923e-07
-1.53949e-06
1.51336e-07
-5.07453e-07
-1.23622e-06
8.24331e-08
-5.48674e-07
7.47941e-07
0.00113815
8.3767e-07
4.15876e-07
0.00113654
-5.1009e-07
1.15278e-06
1.40659e-07
7.42391e-07
-5.5723e-07
7.31002e-08
-1.24754e-06
8.23884e-07
-0.00113841
4.06809e-07
-1.50466e-06
1.45722e-07
-5.01659e-07
-1.23328e-06
7.93446e-08
-5.45843e-07
7.45314e-07
0.00113886
1.15738e-06
8.23228e-07
-0.00113748
4.08432e-07
-1.53378e-06
1.45432e-07
-5.01684e-07
-1.23335e-06
7.93667e-08
-5.45818e-07
7.45239e-07
0.00113794
-4.88838e-07
-4.93842e-07
0.000274379
-1.12246e-06
-0.000274439
9.32066e-08
1.01244e-07
0.00027653
8.38051e-07
4.19739e-07
0.00113764
-5.07238e-07
1.11827e-06
1.38068e-07
7.37227e-07
-5.57239e-07
7.32621e-08
-1.24204e-06
8.23869e-07
-0.00113804
4.07528e-07
-1.49924e-06
1.42615e-07
-4.98913e-07
-1.23321e-06
8.26306e-08
-5.48575e-07
7.45079e-07
0.0011385
1.12283e-06
8.2385e-07
-0.00113859
4.06839e-07
-1.49925e-06
1.42802e-07
-4.98876e-07
-1.23066e-06
7.95754e-08
-5.45869e-07
7.42819e-07
0.00113904
-0.000274453
9.6128e-08
1.01416e-07
0.000276536
-0.00114519
4.42973e-07
4.43286e-07
0.001146
-0.00114519
4.42278e-07
4.42631e-07
0.0011456
-0.00114482
4.42649e-07
4.65641e-07
0.00114581
-0.00114502
4.4257e-07
4.59703e-07
-1.69559e-10
6.25143e-08
0.000235846
-0.000235903
-9.76673e-11
-5.00421e-09
-0.000196886
-5.40526e-09
1.32914e-07
-1.64148e-08
0.000196775
-0.000236249
-5.54199e-11
2.39512e-07
0.000236105
-8.50626e-08
-9.66205e-09
1.34956e-08
1.37953e-08
0.000196616
-2.96987e-09
-0.00019664
-9.89438e-05
5.58442e-09
5.9594e-08
9.88786e-05
-1.32189e-08
1.73996e-09
9.88367e-05
-9.88252e-05
6.0056e-08
-2.366e-10
0.000235877
-0.00023593
-5.08412e-09
-2.27391e-09
-0.000196916
-5.48318e-09
1.30803e-07
-1.62169e-08
0.000196806
-0.000236278
2.39721e-07
2.89409e-10
0.000236131
-1.01041e-08
-8.31001e-08
1.32649e-08
1.56926e-08
0.000196645
-2.51574e-09
-0.000196671
4.40436e-07
4.40773e-07
0.00114679
4.40756e-07
4.4144e-07
0.0011464
4.40684e-07
4.41117e-07
0.0011466
-0.00114835
4.36247e-07
4.64049e-07
0.00114907
-0.00114837
4.35004e-07
4.35369e-07
0.00114915
-0.00114797
4.29702e-07
4.35823e-07
0.00114875
-0.00114818
4.35202e-07
4.3551e-07
0.00114896
-6.26868e-08
-1.67344e-09
0.000260056
-0.000259994
-1.77896e-08
1.99691e-08
-0.000252843
-6.11586e-08
-1.32774e-07
3.07019e-07
6.29328e-08
0.000252667
0.00113889
-0.00113821
2.84563e-09
8.99504e-07
7.9236e-07
-1.19449e-06
-1.36366e-06
5.95673e-07
4.11587e-07
1.12517e-06
0.00113794
8.33456e-07
-1.24092e-06
7.51875e-08
-5.53404e-07
7.4162e-07