/*--------------------------------*- C++ -*----------------------------------*\
| =========                 |                                                 |
| \\      /  F ield         | OpenFOAM: The Open Source CFD Toolbox           |
|  \\    /   O peration     | Version:  v1906                                 |
|   \\  /    A nd           | Web:      www.OpenFOAM.com                      |
|    \\/     M anipulation  |                                                 |
\*---------------------------------------------------------------------------*/
FoamFile
{
    version     2.0;
    format      ascii;
    class       volScalarField;
    location    "850";
    object      epsilon;
}
// * * * * * * * * * * * * * * * * * * * * * * * * * * * * * * * * * * * * * //

dimensions      [0 2 -3 0 0 0 0];


internalField   nonuniform List<scalar> 
42616
(
4.95569e-07
4.97416e-07
4.97395e-07
4.99628e-07
4.45581e-07
4.53947e-07
4.53861e-07
4.63963e-07
4.03771e-07
4.18685e-07
4.18652e-07
4.39607e-07
3.68385e-07
3.88677e-07
3.88668e-07
4.17711e-07
3.38033e-07
3.62171e-07
3.62177e-07
3.95873e-07
3.11655e-07
3.38284e-07
3.38296e-07
3.74207e-07
2.88471e-07
3.16595e-07
3.16608e-07
3.53266e-07
2.67907e-07
2.96929e-07
2.96944e-07
3.33606e-07
2.49549e-07
2.79232e-07
2.79248e-07
3.16028e-07
2.33091e-07
2.63503e-07
2.63515e-07
3.00692e-07
2.18306e-07
2.49744e-07
2.49755e-07
2.87888e-07
2.05018e-07
2.37953e-07
2.37961e-07
2.78065e-07
1.93085e-07
2.28132e-07
2.28138e-07
2.71318e-07
1.82398e-07
2.20288e-07
2.20293e-07
2.67475e-07
1.72864e-07
2.1442e-07
2.14426e-07
2.66937e-07
1.6441e-07
2.10543e-07
2.1055e-07
2.69734e-07
1.56974e-07
2.08664e-07
2.08674e-07
2.75881e-07
1.50502e-07
2.0879e-07
2.08802e-07
2.85681e-07
1.4495e-07
2.10977e-07
2.10999e-07
2.98577e-07
1.40283e-07
2.15236e-07
2.15267e-07
3.14697e-07
1.36469e-07
2.21589e-07
2.21627e-07
3.34613e-07
5.06407e-07
5.05552e-07
5.05553e-07
5.06408e-07
5.05555e-07
5.05556e-07
5.09644e-07
5.09644e-07
5.09645e-07
5.09644e-07
5.05544e-07
5.05548e-07
5.06407e-07
5.05556e-07
5.05547e-07
5.06404e-07
4.9963e-07
4.67465e-07
4.97407e-07
4.97408e-07
4.63842e-07
4.63851e-07
4.99638e-07
4.67476e-07
4.97406e-07
4.97402e-07
4.63837e-07
4.63838e-07
4.97401e-07
4.63919e-07
4.63845e-07
4.99619e-07
4.67435e-07
4.97405e-07
4.63819e-07
4.63847e-07
4.67458e-07
4.6397e-07
4.4159e-07
4.53889e-07
4.53899e-07
4.26904e-07
4.26917e-07
4.63988e-07
4.41629e-07
4.53881e-07
4.53885e-07
4.26881e-07
4.26901e-07
4.53895e-07
4.26914e-07
4.26912e-07
4.63943e-07
4.41592e-07
4.53895e-07
4.26872e-07
4.26911e-07
4.41614e-07
4.3958e-07
4.19308e-07
4.18685e-07
4.187e-07
3.95814e-07
3.95826e-07
4.39626e-07
4.19337e-07
4.18661e-07
4.18685e-07
3.95788e-07
3.95823e-07
4.18695e-07
3.95803e-07
3.95824e-07
4.39592e-07
4.19326e-07
4.18693e-07
3.9579e-07
3.95821e-07
4.19319e-07
4.17629e-07
3.97514e-07
3.8869e-07
3.88702e-07
3.68539e-07
3.68552e-07
4.1767e-07
3.97501e-07
3.88663e-07
3.88703e-07
3.68508e-07
3.68562e-07
3.88701e-07
3.68529e-07
3.68552e-07
4.17725e-07
3.97514e-07
3.88696e-07
3.68533e-07
3.68544e-07
3.97567e-07
3.95838e-07
3.75872e-07
3.62182e-07
3.62195e-07
3.44051e-07
3.44064e-07
3.95934e-07
3.75778e-07
3.62151e-07
3.62207e-07
3.44022e-07
3.44076e-07
3.62195e-07
3.4404e-07
3.44064e-07
3.95999e-07
3.75804e-07
3.62185e-07
3.44051e-07
3.4405e-07
3.75923e-07
3.74204e-07
3.5484e-07
3.38298e-07
3.38309e-07
3.21843e-07
3.21847e-07
3.74344e-07
3.54707e-07
3.38269e-07
3.38322e-07
3.21815e-07
3.21859e-07
3.38309e-07
3.21825e-07
3.21848e-07
3.74389e-07
3.54719e-07
3.38293e-07
3.21839e-07
3.21832e-07
3.54834e-07
3.53262e-07
3.35004e-07
3.16615e-07
3.16617e-07
3.01685e-07
3.01679e-07
3.53354e-07
3.34889e-07
3.16587e-07
3.16629e-07
3.01655e-07
3.01692e-07
3.16618e-07
3.01661e-07
3.0168e-07
3.53408e-07
3.35024e-07
3.16602e-07
3.01675e-07
3.01666e-07
3.35051e-07
3.33633e-07
3.16997e-07
2.96954e-07
2.96947e-07
2.83499e-07
2.83488e-07
3.33737e-07
3.17079e-07
2.96924e-07
2.96961e-07
2.83469e-07
2.83504e-07
2.96949e-07
2.83473e-07
2.83491e-07
3.33684e-07
3.17015e-07
2.96935e-07
2.83489e-07
2.83476e-07
3.1697e-07
3.15995e-07
3.01485e-07
2.79258e-07
2.79246e-07
2.67277e-07
2.67263e-07
3.15825e-07
3.01421e-07
2.79228e-07
2.79263e-07
2.67249e-07
2.67279e-07
2.79251e-07
2.6725e-07
2.67268e-07
3.16019e-07
3.01322e-07
2.79234e-07
2.67264e-07
2.67248e-07
3.01285e-07
3.00369e-07
2.88275e-07
2.63528e-07
2.63515e-07
2.53028e-07
2.53015e-07
3.00425e-07
2.88248e-07
2.63502e-07
2.63531e-07
2.53003e-07
2.5303e-07
2.63521e-07
2.52999e-07
2.5302e-07
3.00606e-07
2.88463e-07
2.63499e-07
2.53011e-07
2.52994e-07
2.88248e-07
2.87918e-07
2.7804e-07
2.49773e-07
2.49759e-07
2.40747e-07
2.40736e-07
2.87856e-07
2.78009e-07
2.49749e-07
2.49774e-07
2.40725e-07
2.40747e-07
2.49764e-07
2.40716e-07
2.4074e-07
2.8763e-07
2.78262e-07
2.49737e-07
2.40725e-07
2.40709e-07
2.78032e-07
2.78049e-07
2.7112e-07
2.37984e-07
2.37972e-07
2.30434e-07
2.30425e-07
2.78024e-07
2.71062e-07
2.37961e-07
2.37983e-07
2.30412e-07
2.30433e-07
2.37977e-07
2.30401e-07
2.30428e-07
2.77794e-07
2.71245e-07
2.37945e-07
2.30407e-07
2.30394e-07
2.71068e-07
2.71166e-07
2.67209e-07
2.28165e-07
2.28158e-07
2.22095e-07
2.2209e-07
2.71253e-07
2.67187e-07
2.28143e-07
2.28165e-07
2.22074e-07
2.22096e-07
2.28161e-07
2.2206e-07
2.22092e-07
2.71128e-07
2.67273e-07
2.28126e-07
2.22064e-07
2.22056e-07
2.6719e-07
2.67481e-07
2.66297e-07
2.20322e-07
2.20318e-07
2.15731e-07
2.1573e-07
2.6747e-07
2.66283e-07
2.20301e-07
2.20324e-07
2.15709e-07
2.15736e-07
2.20321e-07
2.15694e-07
2.1573e-07
2.67527e-07
2.66323e-07
2.20284e-07
2.15698e-07
2.15693e-07
2.66292e-07
2.66933e-07
2.68433e-07
2.14459e-07
2.14458e-07
2.11356e-07
2.11359e-07
2.66914e-07
2.68414e-07
2.14436e-07
2.14464e-07
2.11331e-07
2.11364e-07
2.14459e-07
2.11313e-07
2.11355e-07
2.66951e-07
2.6845e-07
2.1442e-07
2.1132e-07
2.11317e-07
2.68416e-07
2.69725e-07
2.73856e-07
2.10589e-07
2.10591e-07
2.08973e-07
2.0898e-07
2.69698e-07
2.7385e-07
2.10564e-07
2.10596e-07
2.08948e-07
2.08983e-07
2.10586e-07
2.08924e-07
2.0897e-07
2.69731e-07
2.73903e-07
2.10547e-07
2.08932e-07
2.08935e-07
2.73825e-07
2.75861e-07
2.82513e-07
2.08716e-07
2.08721e-07
2.08639e-07
2.0865e-07
2.75811e-07
2.82853e-07
2.08689e-07
2.08725e-07
2.08616e-07
2.08657e-07
2.08713e-07
2.08583e-07
2.08635e-07
2.7585e-07
2.82557e-07
2.08677e-07
2.08599e-07
2.08603e-07
2.82336e-07
2.8544e-07
2.94739e-07
2.08852e-07
2.08855e-07
2.10305e-07
2.10304e-07
2.85194e-07
2.94999e-07
2.08823e-07
2.08863e-07
2.10266e-07
2.10317e-07
2.08849e-07
2.10233e-07
2.10296e-07
2.85439e-07
2.94678e-07
2.08807e-07
2.10251e-07
2.10257e-07
2.94473e-07
2.98238e-07
3.10376e-07
2.11046e-07
2.11055e-07
2.14062e-07
2.1406e-07
2.98054e-07
3.10457e-07
2.11023e-07
2.11068e-07
2.14015e-07
2.14075e-07
2.11043e-07
2.13975e-07
2.14046e-07
2.98281e-07
3.10226e-07
2.11003e-07
2.13998e-07
2.14009e-07
3.10121e-07
3.14628e-07
3.28972e-07
2.15314e-07
2.15329e-07
2.19906e-07
2.1991e-07
3.1436e-07
3.29702e-07
2.15295e-07
2.15345e-07
2.19853e-07
2.19926e-07
2.1531e-07
2.1981e-07
2.19885e-07
3.14616e-07
3.29356e-07
2.15272e-07
2.1984e-07
2.19851e-07
3.28903e-07
3.34431e-07
2.21667e-07
2.21699e-07
3.33949e-07
2.21661e-07
2.21717e-07
2.21669e-07
3.3433e-07
2.21633e-07
5.35663e-07
5.35602e-07
5.35656e-07
5.35656e-07
5.34544e-07
5.3551e-07
5.32929e-07
5.35656e-07
5.34551e-07
5.35515e-07
5.35656e-07
5.3335e-07
5.35251e-07
5.36292e-07
5.36134e-07
1.10613e-06
3.85143e-06
9.39127e-07
4.59094e-06
1.2611e-05
1.66583e-05
1.10621e-06
3.84956e-06
9.39391e-07
4.59138e-06
4.95569e-07
4.95569e-07
4.95569e-07
4.57235e-07
4.57239e-07
4.57235e-07
4.57236e-07
5.43659e-07
1.2247e-06
4.95577e-07
4.85641e-07
5.25928e-07
1.2152e-06
4.82321e-07
1.26083e-05
1.66588e-05
5.4349e-07
4.95578e-07
1.22002e-06
4.85569e-07
5.26026e-07
4.82312e-07
1.21478e-06
2.53239e-06
2.5273e-06
4.84316e-07
2.38557e-06
2.38212e-06
1.42778e-06
5.58155e-06
1.33001e-06
6.13124e-06
2.132e-05
2.31407e-05
1.42818e-06
5.58228e-06
1.33017e-06
6.13213e-06
4.45585e-07
4.4558e-07
4.45582e-07
4.13559e-07
4.13562e-07
4.13558e-07
4.13562e-07
5.87411e-07
1.19947e-06
4.46485e-07
4.445e-07
5.74438e-07
1.20929e-06
4.35746e-07
2.13215e-05
2.31445e-05
5.87249e-07
4.46462e-07
1.19943e-06
4.44425e-07
5.74214e-07
4.35724e-07
1.20826e-06
2.30708e-06
2.30554e-06
4.53717e-07
2.34499e-06
2.34435e-06
1.65904e-06
6.9138e-06
1.59197e-06
7.32092e-06
2.46458e-05
2.49385e-05
1.65861e-06
6.91494e-06
1.59204e-06
7.32221e-06
4.03774e-07
4.0377e-07
4.03774e-07
3.76712e-07
3.76714e-07
3.76712e-07
3.76716e-07
6.15287e-07
1.24685e-06
4.06604e-07
4.10782e-07
6.08327e-07
1.27106e-06
3.97788e-07
2.46507e-05
2.49438e-05
6.15232e-07
4.06595e-07
1.24783e-06
4.10756e-07
6.0826e-07
3.97783e-07
1.26992e-06
2.46114e-06
2.46224e-06
4.303e-07
2.52092e-06
2.52132e-06
1.80742e-06
7.84457e-06
1.768e-06
8.10126e-06
2.47319e-05
2.443e-05
1.80823e-06
7.84585e-06
1.767e-06
8.10276e-06
3.68388e-07
3.68387e-07
3.6839e-07
3.45212e-07
3.45215e-07
3.45216e-07
3.45218e-07
6.2576e-07
1.31713e-06
3.73538e-07
3.8177e-07
6.24523e-07
1.33931e-06
3.66087e-07
2.47375e-05
2.4433e-05
6.25678e-07
3.73537e-07
1.31736e-06
3.81766e-07
6.24305e-07
3.66088e-07
1.33928e-06
2.62409e-06
2.62507e-06
4.08407e-07
2.67146e-06
2.67218e-06
1.88841e-06
8.39344e-06
1.86982e-06
8.53028e-06
2.36825e-05
2.32666e-05
1.8898e-06
8.39433e-06
1.8683e-06
8.53117e-06
3.38036e-07
3.38038e-07
3.38039e-07
3.17924e-07
3.17927e-07
3.1793e-07
3.1793e-07
6.21453e-07
1.37594e-06
3.45289e-07
3.55978e-07
6.24659e-07
1.39237e-06
3.3881e-07
2.36842e-05
2.32693e-05
6.21319e-07
3.45289e-07
1.37605e-06
3.55986e-07
6.24581e-07
3.38812e-07
1.39247e-06
2.7566e-06
2.75735e-06
3.86717e-07
2.80241e-06
2.80279e-06
1.92586e-06
8.66097e-06
1.91938e-06
8.71724e-06
2.24949e-05
2.21237e-05
1.92603e-06
8.66155e-06
1.91787e-06
8.71782e-06
3.11658e-07
3.11662e-07
3.11661e-07
2.94002e-07
2.94004e-07
2.94008e-07
2.94007e-07
6.07986e-07
1.41983e-06
3.20521e-07
3.32668e-07
6.14247e-07
1.43101e-06
3.14768e-07
2.24959e-05
2.2126e-05
6.07907e-07
3.2052e-07
1.42035e-06
3.3268e-07
6.14134e-07
3.14769e-07
1.43206e-06
2.89211e-06
2.89259e-06
3.65274e-07
2.94432e-06
2.94443e-06
1.94404e-06
8.75742e-06
1.9403e-06
8.76825e-06
2.14735e-05
2.11825e-05
1.94386e-06
8.75804e-06
1.93981e-06
8.76882e-06
2.88472e-07
2.88476e-07
2.88475e-07
2.72827e-07
2.72828e-07
2.72832e-07
2.7283e-07
5.90802e-07
1.45518e-06
2.98412e-07
3.11494e-07
5.98063e-07
1.46702e-06
2.93238e-07
2.14748e-05
2.11847e-05
5.90537e-07
2.98412e-07
1.45594e-06
3.11509e-07
5.97999e-07
2.93241e-07
1.46699e-06
3.04836e-06
3.04916e-06
3.44752e-07
3.10782e-06
3.10872e-06
1.96193e-06
8.76527e-06
1.95652e-06
8.75959e-06
2.06739e-05
2.04555e-05
1.96217e-06
8.76588e-06
1.95594e-06
8.76026e-06
2.67907e-07
2.67912e-07
2.6791e-07
2.5395e-07
2.53949e-07
2.53954e-07
2.53952e-07
5.74095e-07
1.49425e-06
2.78474e-07
2.92322e-07
5.80841e-07
1.50865e-06
2.73792e-07
2.06762e-05
2.04563e-05
5.74331e-07
2.78476e-07
1.49336e-06
2.92337e-07
5.81182e-07
2.73797e-07
1.50887e-06
3.22786e-06
3.22822e-06
3.25843e-07
3.29287e-06
3.29425e-06
1.992e-06
8.74566e-06
1.98237e-06
8.73907e-06
2.00736e-05
1.9914e-05
1.99324e-06
8.74667e-06
1.9816e-06
8.74013e-06
2.49548e-07
2.49553e-07
2.49551e-07
2.37041e-07
2.37039e-07
2.37045e-07
2.37042e-07
5.61427e-07
1.54175e-06
2.6042e-07
2.75116e-07
5.66711e-07
1.56136e-06
2.56178e-07
2.00764e-05
1.99139e-05
5.61813e-07
2.60423e-07
1.5418e-06
2.75131e-07
5.66352e-07
2.56184e-07
1.56135e-06
3.42456e-06
3.42519e-06
3.08865e-07
3.4939e-06
3.49532e-06
2.04307e-06
8.72988e-06
2.02613e-06
8.72815e-06
1.96342e-05
1.95208e-05
2.04504e-06
8.73129e-06
2.02422e-06
8.72974e-06
2.3309e-07
2.33095e-07
2.33092e-07
2.21856e-07
2.21853e-07
2.21859e-07
2.21855e-07
5.55496e-07
1.60289e-06
2.44076e-07
2.59878e-07
5.57514e-07
1.62734e-06
2.40243e-07
1.96381e-05
1.95197e-05
5.55499e-07
2.44077e-07
1.60407e-06
2.59891e-07
5.57412e-07
2.40246e-07
1.62521e-06
3.63207e-06
3.63251e-06
2.94443e-07
3.70256e-06
3.7033e-06
2.11742e-06
8.72785e-06
2.09226e-06
8.73117e-06
1.932e-05
1.92412e-05
2.11935e-06
8.72971e-06
2.09038e-06
8.73292e-06
2.18304e-07
2.18309e-07
2.18306e-07
2.08207e-07
2.08203e-07
2.08208e-07
2.08205e-07
5.56781e-07
1.67829e-06
2.2933e-07
2.46612e-07
5.55955e-07
1.70743e-06
2.25885e-07
1.93237e-05
1.92403e-05
5.56761e-07
2.29329e-07
1.67992e-06
2.46622e-07
5.55877e-07
2.25885e-07
1.70556e-06
3.84111e-06
3.84247e-06
2.82847e-07
3.90888e-06
3.91179e-06
2.21905e-06
8.73757e-06
2.18204e-06
8.74583e-06
1.90992e-05
1.90457e-05
2.21928e-06
8.74029e-06
2.18183e-06
8.74709e-06
2.05014e-07
2.05019e-07
2.05015e-07
1.95947e-07
1.95943e-07
1.95947e-07
1.95944e-07
5.66577e-07
1.76707e-06
2.16108e-07
2.35312e-07
5.6229e-07
1.80032e-06
2.13034e-07
1.91029e-05
1.90446e-05
5.6645e-07
2.16102e-07
1.7688e-06
2.35319e-07
5.62125e-07
2.1303e-07
1.79865e-06
4.046e-06
4.04631e-06
2.74199e-07
4.10958e-06
4.11237e-06
2.34377e-06
8.75651e-06
2.29873e-06
8.76646e-06
1.89454e-05
1.89097e-05
2.34383e-06
8.75914e-06
2.29855e-06
8.76767e-06
1.93082e-07
1.93086e-07
1.93083e-07
1.84956e-07
1.84952e-07
1.84956e-07
1.84953e-07
5.85733e-07
1.86719e-06
2.04347e-07
2.25985e-07
5.77978e-07
1.90396e-06
2.01628e-07
1.89492e-05
1.89084e-05
5.85575e-07
2.04338e-07
1.86913e-06
2.25989e-07
5.77885e-07
2.01621e-07
1.9022e-06
4.23776e-06
4.23897e-06
2.68771e-07
4.29554e-06
4.29705e-06
2.49107e-06
8.77842e-06
2.43881e-06
8.78833e-06
1.88373e-05
1.88138e-05
2.49101e-06
8.78089e-06
2.43858e-06
8.78953e-06
1.82394e-07
1.82397e-07
1.82395e-07
1.75141e-07
1.75138e-07
1.7514e-07
1.75139e-07
6.14186e-07
1.97584e-06
1.93993e-07
2.18631e-07
6.04078e-07
2.01505e-06
1.91618e-07
1.88413e-05
1.88124e-05
6.14914e-07
1.93982e-07
1.97798e-06
2.18635e-07
6.03531e-07
1.91609e-07
2.01331e-06
4.41195e-06
4.41351e-06
2.6638e-07
4.46308e-06
4.465e-06
2.65523e-06
8.79979e-06
2.59722e-06
8.80891e-06
1.87592e-05
1.87429e-05
2.65423e-06
8.80213e-06
2.59814e-06
8.81021e-06
1.72861e-07
1.72863e-07
1.72862e-07
1.66423e-07
1.6642e-07
1.66423e-07
1.66422e-07
6.53774e-07
2.09173e-06
1.85002e-07
2.13256e-07
6.40049e-07
2.1279e-06
1.8296e-07
1.87632e-05
1.87421e-05
6.53885e-07
1.8499e-07
2.09058e-06
2.13261e-07
6.39503e-07
1.8295e-07
2.12961e-06
4.56588e-06
4.56641e-06
2.66949e-07
4.61007e-06
4.61338e-06
2.82829e-06
8.81931e-06
2.76898e-06
8.8276e-06
1.87006e-05
1.86866e-05
2.82905e-06
8.82162e-06
2.7691e-06
8.82892e-06
1.64407e-07
1.6441e-07
1.64409e-07
1.58738e-07
1.58735e-07
1.58737e-07
1.58737e-07
7.03391e-07
2.20777e-06
1.77334e-07
2.0987e-07
6.86288e-07
2.2438e-06
1.75617e-07
1.87032e-05
1.86872e-05
7.03724e-07
1.77321e-07
2.20621e-06
2.09879e-07
6.85836e-07
1.75607e-07
2.24552e-06
4.69866e-06
4.69902e-06
2.70721e-07
4.73603e-06
4.73953e-06
3.00306e-06
8.837e-06
2.94616e-06
8.84457e-06
1.86523e-05
1.86398e-05
3.00305e-06
8.83935e-06
2.94623e-06
8.84601e-06
1.56971e-07
1.56973e-07
1.56972e-07
1.52031e-07
1.52028e-07
1.5203e-07
1.52031e-07
7.62534e-07
2.32087e-06
1.70961e-07
2.08484e-07
7.42638e-07
2.3591e-06
1.69562e-07
1.86539e-05
1.86409e-05
7.63225e-07
1.70947e-07
2.32073e-06
2.08495e-07
7.41975e-07
1.69553e-07
2.35905e-06
4.81082e-06
4.81252e-06
2.77614e-07
4.84175e-06
4.84361e-06
3.17277e-06
8.85325e-06
3.11856e-06
8.86036e-06
1.86098e-05
1.85982e-05
3.17354e-06
8.85571e-06
3.11812e-06
8.8619e-06
1.50499e-07
1.50502e-07
1.50501e-07
1.46253e-07
1.4625e-07
1.46252e-07
1.46253e-07
8.31001e-07
2.43084e-06
1.65865e-07
2.09141e-07
8.08115e-07
2.46759e-06
1.64783e-07
1.86111e-05
1.85996e-05
8.31449e-07
1.65852e-07
2.43117e-06
2.09157e-07
8.07711e-07
1.64775e-07
2.46777e-06
4.90293e-06
4.90479e-06
2.87956e-07
4.93075e-06
4.93263e-06
3.32896e-06
8.86839e-06
3.28003e-06
8.87513e-06
1.85708e-05
1.85606e-05
3.32932e-06
8.87104e-06
3.2801e-06
8.87689e-06
1.44946e-07
1.4495e-07
1.44949e-07
1.41368e-07
1.41364e-07
1.41367e-07
1.41368e-07
9.0658e-07
2.53503e-06
1.62041e-07
2.11846e-07
8.81552e-07
2.56908e-06
1.61273e-07
1.85721e-05
1.85618e-05
9.06639e-07
1.6203e-07
2.53675e-06
2.11868e-07
8.81509e-07
1.61266e-07
2.56765e-06
4.97945e-06
4.98136e-06
3.01836e-07
5.00252e-06
5.00443e-06
3.46829e-06
8.88283e-06
3.42392e-06
8.88921e-06
1.85349e-05
1.85253e-05
3.46819e-06
8.88548e-06
3.42432e-06
8.89093e-06
1.40277e-07
1.40284e-07
1.40281e-07
1.37344e-07
1.3734e-07
1.37345e-07
1.37345e-07
9.87594e-07
2.63141e-06
1.5949e-07
2.16632e-07
9.61172e-07
2.66238e-06
1.59034e-07
1.8536e-05
1.85265e-05
9.87667e-07
1.59483e-07
2.63317e-06
2.16659e-07
9.61202e-07
1.59031e-07
2.66124e-06
5.04224e-06
5.04413e-06
3.19155e-07
5.06107e-06
5.06299e-06
3.58544e-06
8.89635e-06
3.54854e-06
8.90242e-06
1.85009e-05
1.84919e-05
8.89885e-06
3.54856e-06
8.90393e-06
1.36463e-07
1.36472e-07
1.36467e-07
1.07206e-06
2.71917e-06
1.5822e-07
2.23518e-07
1.04458e-06
2.74493e-06
1.58076e-07
1.85023e-05
1.07285e-06
1.58218e-07
2.72068e-06
1.04474e-06
1.58074e-07
5.09354e-06
5.09543e-06
3.3956e-07
5.10907e-06
5.111e-06
5.35247e-07
5.36137e-07
5.3597e-07
1.09191e-05
5.80082e-07
1.09196e-05
5.80682e-07
5.28223e-07
2.44735e-06
2.44133e-06
5.40656e-07
5.4295e-07
5.34548e-07
5.35514e-07
5.32274e-07
5.35656e-07
5.34555e-07
5.35513e-07
5.32066e-07
5.35656e-07
5.30715e-07
3.44431e-06
5.81913e-07
8.24739e-07
5.30673e-07
3.44425e-06
5.83334e-07
8.25394e-07
5.29664e-07
5.28386e-07
1.17234e-06
5.09596e-07
5.34603e-07
5.2835e-07
5.19619e-07
5.29638e-07
5.28387e-07
1.17311e-06
5.09595e-07
5.34981e-07
5.2835e-07
5.19498e-07
5.35246e-07
5.35862e-07
5.35994e-07
1.09224e-05
5.81055e-07
5.28225e-07
2.44664e-06
2.44211e-06
5.42285e-07
5.40822e-07
1.09221e-05
5.80424e-07
5.34552e-07
5.35513e-07
5.33183e-07
5.35656e-07
5.3455e-07
5.35514e-07
5.35656e-07
5.32101e-07
5.30724e-07
3.45315e-06
5.68909e-07
8.25599e-07
5.2964e-07
5.28387e-07
1.18857e-06
5.09595e-07
5.32915e-07
5.2835e-07
5.19496e-07
5.30666e-07
3.44448e-06
5.83218e-07
8.26068e-07
5.29656e-07
5.28387e-07
5.09596e-07
1.1729e-06
5.2835e-07
5.34927e-07
5.19698e-07
5.35663e-07
5.35602e-07
5.35656e-07
5.35656e-07
5.35663e-07
5.35602e-07
5.35656e-07
5.35656e-07
5.35663e-07
5.35603e-07
5.35656e-07
5.35656e-07
5.28434e-07
5.28374e-07
5.09725e-07
5.09725e-07
5.28408e-07
5.28408e-07
5.09781e-07
5.28434e-07
5.28374e-07
5.09725e-07
5.09725e-07
5.28408e-07
5.28408e-07
5.09781e-07
5.28434e-07
5.28374e-07
5.09725e-07
5.09725e-07
5.28408e-07
5.28408e-07
5.09782e-07
5.28434e-07
5.28373e-07
5.09725e-07
5.09725e-07
5.28408e-07
5.28408e-07
5.09782e-07
5.34549e-07
5.35517e-07
5.35656e-07
5.32874e-07
5.29667e-07
5.28393e-07
1.17072e-06
5.09592e-07
5.33047e-07
5.2835e-07
5.19543e-07
5.30721e-07
3.44246e-06
5.81825e-07
8.24955e-07
5.29659e-07
5.28381e-07
5.09595e-07
1.1675e-06
5.2835e-07
5.3314e-07
5.19543e-07
5.30663e-07
3.44501e-06
5.81839e-07
8.246e-07
5.35251e-07
5.36302e-07
5.3609e-07
1.09195e-05
5.81797e-07
5.28222e-07
2.44713e-06
2.45004e-06
5.43441e-07
5.43146e-07
1.09208e-05
5.81471e-07
5.3455e-07
5.35517e-07
5.35656e-07
5.32889e-07
5.29649e-07
5.28385e-07
5.09595e-07
1.18664e-06
5.2835e-07
5.32913e-07
5.19624e-07
5.29649e-07
5.28381e-07
5.09596e-07
1.16823e-06
5.2835e-07
5.33087e-07
5.19502e-07
5.30706e-07
3.4543e-06
5.68889e-07
8.25516e-07
5.30671e-07
3.4453e-06
5.81735e-07
8.26308e-07
5.2822e-07
2.45242e-06
2.45352e-06
5.427e-07
5.40557e-07
1.09259e-05
5.80874e-07
1.09199e-05
5.8111e-07
1.26092e-05
1.66593e-05
1.26142e-05
1.66614e-05
2.52496e-06
2.52463e-06
4.84313e-07
2.38331e-06
2.38337e-06
2.05825e-05
1.77394e-05
2.05854e-05
1.77416e-05
4.79474e-07
2.30166e-06
2.3019e-06
2.34909e-06
2.34824e-06
1.1064e-06
3.85107e-06
9.39994e-07
4.58856e-06
5.43368e-07
1.23002e-06
4.95576e-07
4.85588e-07
5.26015e-07
1.21554e-06
4.8231e-07
5.43484e-07
1.23055e-06
4.95576e-07
4.85593e-07
5.26036e-07
1.21599e-06
4.82311e-07
1.16239e-06
5.39784e-06
4.79453e-06
1.28058e-06
1.16298e-06
5.39698e-06
4.79304e-06
1.28087e-06
5.51417e-07
4.74393e-07
1.19864e-06
4.57781e-07
1.2117e-06
4.6972e-07
5.66861e-07
5.51567e-07
4.74401e-07
1.19897e-06
4.57789e-07
1.2121e-06
4.69724e-07
5.67036e-07
2.526e-06
2.52485e-06
4.84321e-07
2.38411e-06
2.38386e-06
1.26117e-05
1.66612e-05
2.05793e-05
1.77304e-05
4.79485e-07
2.30234e-06
2.30214e-06
2.34858e-06
2.34876e-06
2.05816e-05
1.77392e-05
5.43359e-07
1.22597e-06
4.95576e-07
4.85584e-07
5.25922e-07
1.2155e-06
4.82309e-07
1.10608e-06
3.85188e-06
9.40049e-07
4.58933e-06
5.43381e-07
4.95576e-07
1.23067e-06
4.85581e-07
5.26087e-07
4.8231e-07
1.2154e-06
1.16243e-06
5.39834e-06
4.7939e-06
1.28071e-06
5.51378e-07
4.74389e-07
1.19849e-06
4.57781e-07
1.21143e-06
4.69719e-07
5.66833e-07
1.1624e-06
5.39792e-06
4.79376e-06
1.28062e-06
5.5142e-07
4.74388e-07
4.57782e-07
1.19891e-06
4.6972e-07
1.21165e-06
5.6687e-07
1.10619e-06
3.84541e-06
9.39145e-07
4.58492e-06
5.43351e-07
4.95574e-07
1.23279e-06
4.85591e-07
5.25938e-07
4.82309e-07
1.21798e-06
1.10584e-06
3.85196e-06
9.38833e-07
4.59008e-06
5.51628e-07
4.74467e-07
1.19808e-06
4.57806e-07
1.21201e-06
4.69739e-07
5.67097e-07
1.16231e-06
5.39432e-06
4.78779e-06
1.28051e-06
5.51395e-07
4.74396e-07
4.57782e-07
1.19938e-06
4.69719e-07
1.21374e-06
5.6688e-07
1.16205e-06
5.3979e-06
4.79451e-06
1.28048e-06
2.53199e-06
2.5375e-06
4.84282e-07
2.38707e-06
2.38871e-06
1.26158e-05
1.66605e-05
2.05819e-05
1.77299e-05
4.79431e-07
2.30322e-06
2.30364e-06
2.3494e-06
2.35058e-06
2.05853e-05
1.77419e-05
5.43426e-07
4.95577e-07
1.23311e-06
4.85599e-07
5.26048e-07
4.8231e-07
1.21799e-06
1.10657e-06
3.84973e-06
9.39737e-07
4.5904e-06
1.10649e-06
3.85209e-06
9.3997e-07
4.59003e-06
5.51479e-07
4.74368e-07
4.57783e-07
1.19773e-06
4.69722e-07
1.20945e-06
5.66848e-07
5.51455e-07
4.744e-07
4.57783e-07
1.19933e-06
4.69721e-07
1.2138e-06
5.66882e-07
1.16228e-06
5.39859e-06
4.79468e-06
1.2806e-06
1.16233e-06
5.39843e-06
4.79423e-06
1.28064e-06
1.26168e-05
1.66652e-05
1.26089e-05
1.66585e-05
4.79472e-07
2.30352e-06
2.3017e-06
2.35196e-06
2.34817e-06
2.05855e-05
1.77452e-05
2.05835e-05
1.77393e-05
2.1322e-05
2.31417e-05
2.13252e-05
2.31455e-05
2.30534e-06
2.30547e-06
4.53705e-07
2.34382e-06
2.34416e-06
2.44859e-05
2.35538e-05
2.44896e-05
2.35574e-05
4.5112e-07
2.43026e-06
2.42979e-06
2.36863e-06
2.36872e-06
1.42782e-06
5.58056e-06
1.33023e-06
6.13007e-06
5.87314e-07
1.20014e-06
4.46464e-07
4.44455e-07
5.74258e-07
1.20964e-06
4.35728e-07
5.87438e-07
1.20062e-06
4.46473e-07
4.44465e-07
5.74415e-07
1.20869e-06
4.35738e-07
1.47247e-06
6.77656e-06
6.29366e-06
1.55392e-06
1.47241e-06
6.77534e-06
6.29245e-06
1.55367e-06
5.93434e-07
4.35477e-07
1.23656e-06
4.15837e-07
1.21657e-06
4.25533e-07
6.03597e-07
5.93513e-07
4.3549e-07
1.23543e-06
4.15847e-07
1.21762e-06
4.25543e-07
6.03632e-07
2.30606e-06
2.30589e-06
4.53738e-07
2.34413e-06
2.34495e-06
2.13207e-05
2.31425e-05
2.44852e-05
2.35535e-05
4.51158e-07
2.43068e-06
2.43094e-06
2.37023e-06
2.36963e-06
2.44872e-05
2.35544e-05
5.87321e-07
1.20027e-06
4.46462e-07
4.44441e-07
5.74229e-07
1.20839e-06
4.35725e-07
1.42802e-06
5.58167e-06
1.33005e-06
6.13208e-06
5.8736e-07
4.46464e-07
1.20031e-06
4.4445e-07
5.74254e-07
4.35728e-07
1.20984e-06
1.47238e-06
6.7776e-06
6.29472e-06
1.55386e-06
5.93393e-07
4.3546e-07
1.23533e-06
4.15832e-07
1.21737e-06
4.25528e-07
6.03632e-07
1.47221e-06
6.77774e-06
6.2943e-06
1.55372e-06
5.93437e-07
4.35473e-07
4.1584e-07
1.23673e-06
4.25535e-07
1.21688e-06
6.03633e-07
1.42796e-06
5.57858e-06
1.32983e-06
6.13064e-06
5.87388e-07
4.46466e-07
1.20112e-06
4.44461e-07
5.74285e-07
4.35731e-07
1.20914e-06
1.42773e-06
5.58196e-06
1.32996e-06
6.13196e-06
5.93556e-07
4.35503e-07
1.23643e-06
4.15843e-07
1.21634e-06
4.25545e-07
6.03579e-07
1.47238e-06
6.77709e-06
6.29271e-06
1.55396e-06
5.93468e-07
4.35485e-07
4.15843e-07
1.23577e-06
4.25538e-07
1.21801e-06
6.03703e-07
1.47229e-06
6.77772e-06
6.29442e-06
1.55378e-06
2.30686e-06
2.30694e-06
4.5369e-07
2.34454e-06
2.34433e-06
2.1325e-05
2.31449e-05
2.44903e-05
2.35567e-05
4.51109e-07
2.43092e-06
2.43004e-06
2.37088e-06
2.37011e-06
2.44884e-05
2.35576e-05
5.87363e-07
4.46465e-07
1.20107e-06
4.44461e-07
5.74255e-07
4.35729e-07
1.20916e-06
1.42794e-06
5.58237e-06
1.33e-06
6.13252e-06
1.42778e-06
5.58211e-06
1.32997e-06
6.13239e-06
5.93423e-07
4.35446e-07
4.15832e-07
1.23527e-06
4.25527e-07
1.21716e-06
6.03522e-07
5.93416e-07
4.35483e-07
4.15841e-07
1.23581e-06
4.25535e-07
1.21803e-06
6.03657e-07
1.47217e-06
6.77812e-06
6.29491e-06
1.55377e-06
1.47214e-06
6.77796e-06
6.29482e-06
1.5537e-06
2.13257e-05
2.31454e-05
2.13245e-05
2.31455e-05
4.51133e-07
2.43126e-06
2.43096e-06
2.37089e-06
2.37054e-06
2.44889e-05
2.35581e-05
2.44897e-05
2.35583e-05
2.46467e-05
2.49396e-05
2.46499e-05
2.49427e-05
2.46057e-06
2.4605e-06
4.3027e-07
2.52028e-06
2.51969e-06
2.48316e-05
2.49391e-05
2.48355e-05
2.49419e-05
4.28563e-07
2.6001e-06
2.59816e-06
2.54821e-06
2.54715e-06
1.65834e-06
6.91239e-06
1.59189e-06
7.31997e-06
6.15322e-07
1.24705e-06
4.066e-07
4.10787e-07
6.08206e-07
1.27098e-06
3.97786e-07
6.15303e-07
1.24792e-06
4.06609e-07
4.108e-07
6.0822e-07
1.26957e-06
3.97794e-07
1.69001e-06
7.76076e-06
7.43117e-06
1.74248e-06
1.69006e-06
7.7601e-06
7.43e-06
1.74226e-06
6.18453e-07
4.03171e-07
1.30449e-06
3.81285e-07
1.28245e-06
3.89358e-07
6.22718e-07
6.18416e-07
4.03185e-07
1.30466e-06
3.81291e-07
1.28311e-06
3.89365e-07
6.22667e-07
2.46147e-06
2.46099e-06
4.30305e-07
2.52073e-06
2.52093e-06
2.46473e-05
2.49404e-05
2.48312e-05
2.49377e-05
4.28602e-07
2.60064e-06
2.60039e-06
2.54864e-06
2.54835e-06
2.48335e-05
2.49399e-05
6.15379e-07
1.24794e-06
4.06596e-07
4.10761e-07
6.08179e-07
1.26962e-06
3.97783e-07
1.65874e-06
6.91462e-06
1.59175e-06
7.3223e-06
6.15366e-07
4.06606e-07
1.24733e-06
4.10788e-07
6.08219e-07
3.97793e-07
1.27125e-06
1.69021e-06
7.76234e-06
7.43236e-06
1.74353e-06
6.18418e-07
4.03146e-07
1.30485e-06
3.81286e-07
1.28341e-06
3.89356e-07
6.22735e-07
1.68958e-06
7.76232e-06
7.43208e-06
1.74283e-06
6.18423e-07
4.03177e-07
3.81295e-07
1.3048e-06
3.89367e-07
1.28275e-06
6.22707e-07
1.65882e-06
6.914e-06
1.59226e-06
7.32206e-06
6.15371e-07
4.06609e-07
1.24827e-06
4.10797e-07
6.08231e-07
3.97796e-07
1.26996e-06
1.65865e-06
6.91475e-06
1.59198e-06
7.32225e-06
6.18605e-07
4.03161e-07
1.30644e-06
3.81287e-07
1.28254e-06
3.8936e-07
6.22507e-07
1.69041e-06
7.76222e-06
7.43179e-06
1.74366e-06
6.18481e-07
4.03182e-07
3.81297e-07
1.30516e-06
3.8937e-07
1.28353e-06
6.2271e-07
1.69016e-06
7.76223e-06
7.4322e-06
1.74242e-06
2.46233e-06
2.46077e-06
4.30295e-07
2.52136e-06
2.52028e-06
2.46493e-05
2.49416e-05
2.48352e-05
2.49432e-05
4.28592e-07
2.60128e-06
2.60053e-06
2.54962e-06
2.54778e-06
2.4839e-05
2.49407e-05
6.15386e-07
4.06607e-07
1.24834e-06
4.10794e-07
6.08203e-07
3.97794e-07
1.27005e-06
1.65914e-06
6.91515e-06
1.59182e-06
7.32262e-06
1.6589e-06
6.91497e-06
1.59169e-06
7.32234e-06
6.18555e-07
4.03142e-07
3.81285e-07
1.30634e-06
3.89356e-07
1.28343e-06
6.22687e-07
6.18419e-07
4.03179e-07
3.81296e-07
1.30522e-06
3.89368e-07
1.28364e-06
6.22704e-07
1.68961e-06
7.76258e-06
7.43262e-06
1.74344e-06
1.68946e-06
7.76234e-06
7.43233e-06
1.7432e-06
2.46497e-05
2.49419e-05
2.46506e-05
2.4943e-05
4.28599e-07
2.60077e-06
2.60165e-06
2.54835e-06
2.54959e-06
2.48342e-05
2.49411e-05
2.48356e-05
2.49422e-05
2.47333e-05
2.44304e-05
2.47336e-05
2.44315e-05
2.62456e-06
2.62229e-06
4.08407e-07
2.67058e-06
2.66802e-06
2.38698e-05
2.42614e-05
2.38698e-05
2.42606e-05
4.06736e-07
2.73493e-06
2.73364e-06
2.69246e-06
2.68986e-06
1.80778e-06
7.84362e-06
1.76774e-06
8.10092e-06
6.2574e-07
1.31808e-06
3.73537e-07
3.81781e-07
6.24346e-07
1.33754e-06
3.66086e-07
6.25677e-07
1.31778e-06
3.73542e-07
3.81792e-07
6.24288e-07
1.33725e-06
3.6609e-07
1.82693e-06
8.35311e-06
8.16132e-06
1.85464e-06
1.82591e-06
8.35312e-06
8.16071e-06
1.85607e-06
6.26152e-07
3.75067e-07
1.36609e-06
3.51982e-07
1.34968e-06
3.58908e-07
6.24936e-07
6.26084e-07
3.75079e-07
1.36587e-06
3.51986e-07
1.34938e-06
3.58913e-07
6.2493e-07
2.6247e-06
2.6249e-06
4.08437e-07
2.67082e-06
2.66946e-06
2.4733e-05
2.4431e-05
2.38702e-05
2.4261e-05
4.06788e-07
2.73657e-06
2.7348e-06
2.69307e-06
2.69376e-06
2.38714e-05
2.42615e-05
6.25699e-07
1.31804e-06
3.73537e-07
3.81752e-07
6.243e-07
1.33733e-06
3.66088e-07
1.80754e-06
7.84553e-06
1.76712e-06
8.10282e-06
6.25674e-07
3.73547e-07
1.31837e-06
3.81797e-07
6.24289e-07
3.66096e-07
1.33778e-06
1.8257e-06
8.35442e-06
8.16262e-06
1.85612e-06
6.26093e-07
3.75038e-07
1.36582e-06
3.51984e-07
1.34952e-06
3.58909e-07
6.24934e-07
1.82585e-06
8.35463e-06
8.16241e-06
1.85598e-06
6.26076e-07
3.75088e-07
3.51992e-07
1.36632e-06
3.58918e-07
1.35007e-06
6.24906e-07
1.80835e-06
7.84538e-06
1.7674e-06
8.10283e-06
6.25699e-07
3.73548e-07
1.31827e-06
3.81792e-07
6.24334e-07
3.66096e-07
1.33773e-06
1.80777e-06
7.8457e-06
1.76787e-06
8.10284e-06
6.26192e-07
3.75055e-07
1.36784e-06
3.51983e-07
1.34883e-06
3.5891e-07
6.24966e-07
1.8261e-06
8.35473e-06
8.16233e-06
1.85642e-06
6.2609e-07
3.7508e-07
3.5199e-07
1.36624e-06
3.58917e-07
1.34986e-06
6.24915e-07
1.82589e-06
8.35469e-06
8.16263e-06
1.85595e-06
2.62577e-06
2.62392e-06
4.08421e-07
2.67192e-06
2.67088e-06
2.4731e-05
2.44319e-05
2.38738e-05
2.42648e-05
4.06873e-07
2.73528e-06
2.73677e-06
2.69382e-06
2.69226e-06
2.3871e-05
2.42626e-05
6.25651e-07
3.73547e-07
1.31837e-06
3.81786e-07
6.24285e-07
3.66096e-07
1.33777e-06
1.80669e-06
7.84592e-06
1.76706e-06
8.10299e-06
1.80664e-06
7.84575e-06
1.7669e-06
8.10282e-06
6.2605e-07
3.75056e-07
3.51985e-07
1.36789e-06
3.58909e-07
1.34895e-06
6.24852e-07
6.26045e-07
3.75073e-07
3.5199e-07
1.36627e-06
3.58917e-07
1.34991e-06
6.24843e-07
1.82646e-06
8.35475e-06
8.16272e-06
1.85444e-06
1.82631e-06
8.35463e-06
8.16263e-06
1.85443e-06
2.47347e-05
2.44326e-05
2.47356e-05
2.44335e-05
4.06845e-07
2.73709e-06
2.73754e-06
2.69222e-06
2.69309e-06
2.38716e-05
2.42632e-05
2.38721e-05
2.42642e-05
2.36817e-05
2.32654e-05
2.36806e-05
2.32657e-05
2.75781e-06
2.75474e-06
3.86656e-07
2.80028e-06
2.79991e-06
2.26735e-05
2.30768e-05
2.26744e-05
2.30757e-05
3.84981e-07
2.86814e-06
2.86932e-06
2.82387e-06
2.82148e-06
1.88979e-06
8.3933e-06
1.86863e-06
8.53064e-06
6.21439e-07
1.37703e-06
3.45288e-07
3.55988e-07
6.24872e-07
1.39042e-06
3.38809e-07
6.21458e-07
1.37686e-06
3.45293e-07
3.56001e-07
6.24679e-07
1.39037e-06
3.38814e-07
1.89962e-06
8.64704e-06
8.55507e-06
1.91026e-06
1.89835e-06
8.64747e-06
8.55532e-06
1.91173e-06
6.20597e-07
3.49945e-07
1.41145e-06
3.26438e-07
1.40041e-06
3.3253e-07