/*--------------------------------*- C++ -*----------------------------------*\
| =========                 |                                                 |
| \\      /  F ield         | OpenFOAM: The Open Source CFD Toolbox           |
|  \\    /   O peration     | Version:  v1906                                 |
|   \\  /    A nd           | Web:      www.OpenFOAM.com                      |
|    \\/     M anipulation  |                                                 |
\*---------------------------------------------------------------------------*/
FoamFile
{
    version     2.0;
    format      ascii;
    class       volScalarField;
    location    "850";
    object      k;
}
// * * * * * * * * * * * * * * * * * * * * * * * * * * * * * * * * * * * * * //

dimensions      [0 2 -2 0 0 0 0];


internalField   nonuniform List<scalar> 
42616
(
3.58933e-05
3.58914e-05
3.58914e-05
3.59957e-05
3.39293e-05
3.38866e-05
3.38878e-05
3.39599e-05
3.21569e-05
3.20042e-05
3.20048e-05
3.19454e-05
3.05329e-05
3.02235e-05
3.02237e-05
2.99782e-05
2.90302e-05
2.85466e-05
2.85465e-05
2.81104e-05
2.76318e-05
2.69783e-05
2.69782e-05
2.63776e-05
2.63264e-05
2.55211e-05
2.55211e-05
2.47938e-05
2.51062e-05
2.41741e-05
2.41742e-05
2.33648e-05
2.39653e-05
2.29388e-05
2.2939e-05
2.20902e-05
2.28995e-05
2.1814e-05
2.18143e-05
2.09709e-05
2.19053e-05
2.07975e-05
2.07976e-05
1.99971e-05
2.09792e-05
1.98861e-05
1.98861e-05
1.91637e-05
2.01163e-05
1.90779e-05
1.90777e-05
1.84694e-05
1.93154e-05
1.83696e-05
1.83693e-05
1.79092e-05
1.85755e-05
1.77581e-05
1.77576e-05
1.74779e-05
1.7894e-05
1.72416e-05
1.72412e-05
1.71667e-05
1.72686e-05
1.68194e-05
1.68189e-05
1.69812e-05
1.66971e-05
1.64904e-05
1.64901e-05
1.69378e-05
1.61784e-05
1.62548e-05
1.62546e-05
1.70298e-05
1.57099e-05
1.61123e-05
1.61124e-05
1.72496e-05
1.529e-05
1.60628e-05
1.60632e-05
1.75977e-05
3.63062e-05
3.62907e-05
3.62907e-05
3.63061e-05
3.62907e-05
3.62907e-05
3.6423e-05
3.6423e-05
3.6423e-05
3.6423e-05
3.62907e-05
3.62907e-05
3.63061e-05
3.62907e-05
3.62907e-05
3.63062e-05
3.59957e-05
3.42662e-05
3.58914e-05
3.58914e-05
3.43755e-05
3.43754e-05
3.59957e-05
3.42663e-05
3.58914e-05
3.58914e-05
3.43755e-05
3.43755e-05
3.58914e-05
3.43745e-05
3.43755e-05
3.59958e-05
3.42669e-05
3.58914e-05
3.43757e-05
3.43755e-05
3.42667e-05
3.39593e-05
3.22565e-05
3.38874e-05
3.38873e-05
3.24649e-05
3.24648e-05
3.39594e-05
3.22565e-05
3.38874e-05
3.38875e-05
3.24653e-05
3.24653e-05
3.38874e-05
3.2465e-05
3.24652e-05
3.39602e-05
3.22575e-05
3.38875e-05
3.24658e-05
3.24652e-05
3.22572e-05
3.19447e-05
3.02885e-05
3.20038e-05
3.20036e-05
3.06586e-05
3.06578e-05
3.19447e-05
3.0289e-05
3.20044e-05
3.20042e-05
3.0659e-05
3.06587e-05
3.20041e-05
3.06592e-05
3.06586e-05
3.19457e-05
3.02896e-05
3.20041e-05
3.06595e-05
3.06587e-05
3.02893e-05
2.99772e-05
2.84113e-05
3.02228e-05
3.02219e-05
2.89547e-05
2.8954e-05
2.99778e-05
2.84128e-05
3.02231e-05
3.02228e-05
2.89546e-05
2.89547e-05
3.02228e-05
2.89558e-05
2.89548e-05
2.99785e-05
2.84135e-05
3.02228e-05
2.89557e-05
2.89547e-05
2.84131e-05
2.81087e-05
2.66591e-05
2.85455e-05
2.85448e-05
2.73588e-05
2.73582e-05
2.811e-05
2.66605e-05
2.85453e-05
2.85455e-05
2.73586e-05
2.73588e-05
2.85456e-05
2.736e-05
2.73588e-05
2.81108e-05
2.66614e-05
2.85455e-05
2.73599e-05
2.73587e-05
2.66605e-05
2.63769e-05
2.50511e-05
2.69771e-05
2.69766e-05
2.58739e-05
2.58732e-05
2.6377e-05
2.50522e-05
2.69769e-05
2.69771e-05
2.58737e-05
2.58738e-05
2.69771e-05
2.58751e-05
2.58736e-05
2.63778e-05
2.50533e-05
2.69771e-05
2.5875e-05
2.58738e-05
2.5052e-05
2.47942e-05
2.35965e-05
2.552e-05
2.55192e-05
2.44993e-05
2.44983e-05
2.4793e-05
2.3599e-05
2.55198e-05
2.55198e-05
2.44992e-05
2.4499e-05
2.55196e-05
2.45003e-05
2.44987e-05
2.47938e-05
2.35992e-05
2.55199e-05
2.45004e-05
2.44992e-05
2.35971e-05
2.33657e-05
2.22964e-05
2.4173e-05
2.4172e-05
2.32361e-05
2.32349e-05
2.33627e-05
2.22976e-05
2.4173e-05
2.41727e-05
2.32361e-05
2.32356e-05
2.41723e-05
2.32371e-05
2.32353e-05
2.33641e-05
2.2298e-05
2.4173e-05
2.32373e-05
2.32361e-05
2.2297e-05
2.20914e-05
2.11516e-05
2.29378e-05
2.29366e-05
2.2084e-05
2.20828e-05
2.20895e-05
2.11528e-05
2.29379e-05
2.29372e-05
2.20842e-05
2.20834e-05
2.29369e-05
2.2085e-05
2.20831e-05
2.20902e-05
2.11532e-05
2.29378e-05
2.20852e-05
2.20841e-05
2.1152e-05
2.09722e-05
2.01542e-05
2.18131e-05
2.18119e-05
2.10407e-05
2.10395e-05
2.09706e-05
2.01547e-05
2.18134e-05
2.18124e-05
2.10412e-05
2.104e-05
2.18122e-05
2.10416e-05
2.10399e-05
2.0971e-05
2.0155e-05
2.18132e-05
2.10418e-05
2.10408e-05
2.0154e-05
1.9998e-05
1.92973e-05
2.07965e-05
2.07954e-05
2.01033e-05
2.01023e-05
1.99972e-05
1.92971e-05
2.07971e-05
2.07959e-05
2.0104e-05
2.01026e-05
2.07957e-05
2.01042e-05
2.01026e-05
1.99974e-05
1.92972e-05
2.07967e-05
2.01043e-05
2.01035e-05
1.92967e-05
1.91644e-05
1.85705e-05
1.98851e-05
1.98842e-05
1.92693e-05
1.92685e-05
1.91641e-05
1.85705e-05
1.98859e-05
1.98845e-05
1.92702e-05
1.92687e-05
1.98845e-05
1.92703e-05
1.92688e-05
1.91642e-05
1.85703e-05
1.98854e-05
1.92701e-05
1.92696e-05
1.85697e-05
1.84702e-05
1.79742e-05
1.9077e-05
1.90762e-05
1.85364e-05
1.85357e-05
1.847e-05
1.7974e-05
1.90778e-05
1.90763e-05
1.85373e-05
1.85357e-05
1.90764e-05
1.85374e-05
1.8536e-05
1.84699e-05
1.79737e-05
1.90772e-05
1.8537e-05
1.85367e-05
1.79734e-05
1.79099e-05
1.75118e-05
1.83688e-05
1.83681e-05
1.7901e-05
1.79004e-05
1.79096e-05
1.75113e-05
1.83696e-05
1.8368e-05
1.79019e-05
1.79003e-05
1.83684e-05
1.79019e-05
1.79008e-05
1.79093e-05
1.7511e-05
1.8369e-05
1.79014e-05
1.79013e-05
1.75109e-05
1.74787e-05
1.71867e-05
1.77573e-05
1.77567e-05
1.73608e-05
1.73603e-05
1.74782e-05
1.71849e-05
1.77581e-05
1.77565e-05
1.73617e-05
1.73601e-05
1.7757e-05
1.73616e-05
1.73606e-05
1.74779e-05
1.7185e-05
1.77575e-05
1.73611e-05
1.73611e-05
1.71856e-05
1.71673e-05
1.69898e-05
1.7241e-05
1.72404e-05
1.69151e-05
1.69146e-05
1.71683e-05
1.69862e-05
1.72418e-05
1.72402e-05
1.69159e-05
1.69144e-05
1.72407e-05
1.69157e-05
1.69149e-05
1.71678e-05
1.69863e-05
1.72412e-05
1.69152e-05
1.69154e-05
1.69887e-05
1.69826e-05
1.69305e-05
1.6819e-05
1.68184e-05
1.65627e-05
1.65622e-05
1.69857e-05
1.69285e-05
1.68196e-05
1.68182e-05
1.65635e-05
1.65621e-05
1.68187e-05
1.65631e-05
1.65626e-05
1.69857e-05
1.69287e-05
1.68191e-05
1.65627e-05
1.65629e-05
1.69297e-05
1.69389e-05
1.69979e-05
1.64903e-05
1.64896e-05
1.63037e-05
1.63032e-05
1.69373e-05
1.69943e-05
1.64907e-05
1.64895e-05
1.63043e-05
1.63032e-05
1.64899e-05
1.63038e-05
1.63035e-05
1.69376e-05
1.69948e-05
1.64904e-05
1.63036e-05
1.63038e-05
1.69966e-05
1.70311e-05
1.71966e-05
1.62549e-05
1.62543e-05
1.61379e-05
1.61375e-05
1.70308e-05
1.71906e-05
1.62552e-05
1.62542e-05
1.61384e-05
1.61375e-05
1.62545e-05
1.61377e-05
1.61376e-05
1.70315e-05
1.71892e-05
1.62549e-05
1.61377e-05
1.61379e-05
1.71941e-05
1.72506e-05
1.75244e-05
1.61128e-05
1.61123e-05
1.6065e-05
1.60648e-05
1.72534e-05
1.75129e-05
1.6113e-05
1.61123e-05
1.60655e-05
1.60649e-05
1.61123e-05
1.60646e-05
1.60647e-05
1.72541e-05
1.75137e-05
1.61127e-05
1.6065e-05
1.60651e-05
1.75254e-05
1.75996e-05
1.60633e-05
1.60632e-05
1.7608e-05
1.60637e-05
1.60632e-05
1.6063e-05
1.76082e-05
1.60634e-05
3.73774e-05
3.73766e-05
3.7377e-05
3.7377e-05
3.73703e-05
3.73777e-05
3.73045e-05
3.73768e-05
3.73703e-05
3.73777e-05
3.73768e-05
3.73049e-05
3.73741e-05
3.72966e-05
3.72966e-05
3.58669e-05
4.07539e-05
3.66072e-05
4.50484e-05
5.54972e-05
6.50348e-05
3.58659e-05
4.07488e-05
3.66083e-05
4.50499e-05
3.58933e-05
3.58933e-05
3.58933e-05
3.44001e-05
3.44001e-05
3.44002e-05
3.44001e-05
3.52691e-05
3.56109e-05
3.58931e-05
3.53761e-05
3.60487e-05
3.41711e-05
3.5382e-05
5.54869e-05
6.50326e-05
3.52714e-05
3.58931e-05
3.5614e-05
3.53767e-05
3.60484e-05
3.53821e-05
3.41885e-05
3.66111e-05
3.65919e-05
3.52784e-05
3.40355e-05
3.40239e-05
3.39443e-05
5.12821e-05
3.46743e-05
5.45944e-05
7.66303e-05
8.09318e-05
3.3946e-05
5.1283e-05
3.46736e-05
5.45963e-05
3.39292e-05
3.39293e-05
3.39293e-05
3.25847e-05
3.25847e-05
3.25848e-05
3.25847e-05
3.30434e-05
3.2428e-05
3.39288e-05
3.34059e-05
3.38897e-05
3.15263e-05
3.34671e-05
7.66295e-05
8.09356e-05
3.30454e-05
3.39292e-05
3.24438e-05
3.34071e-05
3.38926e-05
3.34674e-05
3.15384e-05
3.16656e-05
3.16619e-05
3.32597e-05
3.08483e-05
3.08498e-05
3.22311e-05
5.91453e-05
3.2914e-05
6.14448e-05
8.44047e-05
8.50715e-05
3.22246e-05
5.91487e-05
3.29074e-05
6.14492e-05
3.21568e-05
3.2157e-05
3.21569e-05
3.09267e-05
3.09266e-05
3.09267e-05
3.09266e-05
3.07764e-05
3.04843e-05
3.21363e-05
3.15496e-05
3.16282e-05
2.98607e-05
3.17087e-05
8.44096e-05
8.50776e-05
3.0775e-05
3.21365e-05
3.04877e-05
3.15502e-05
3.16273e-05
3.17087e-05
2.98628e-05
3.01702e-05
3.01773e-05
3.12648e-05
2.99545e-05
2.99619e-05
3.07402e-05
6.43413e-05
3.13339e-05
6.57373e-05
8.45923e-05
8.39103e-05
3.07321e-05
6.43446e-05
3.13283e-05
6.57422e-05
3.05328e-05
3.0533e-05
3.05329e-05
2.93956e-05
2.93956e-05
2.93957e-05
2.93956e-05
2.85855e-05
2.91243e-05
3.04672e-05
2.97943e-05
2.94039e-05
2.86566e-05
3.00662e-05
8.45986e-05
8.39136e-05
2.85808e-05
3.0467e-05
2.9119e-05
2.97944e-05
2.94e-05
3.00659e-05
2.8659e-05
2.99211e-05
2.99272e-05
2.93372e-05
3.00252e-05
3.00288e-05
2.95056e-05
6.73085e-05
2.99867e-05
6.80382e-05
8.21899e-05
8.12246e-05
2.94985e-05
6.73096e-05
2.99843e-05
6.80396e-05
2.90302e-05
2.90304e-05
2.90302e-05
2.79723e-05
2.79724e-05
2.79725e-05
2.79723e-05
2.65504e-05
2.81107e-05
2.88993e-05
2.81442e-05
2.73092e-05
2.77625e-05
2.8522e-05
8.21889e-05
8.12263e-05
2.65447e-05
2.88987e-05
2.81029e-05
2.81441e-05
2.73028e-05
2.85213e-05
2.77638e-05
3.04641e-05
3.04645e-05
2.75202e-05
3.07868e-05
3.07834e-05
2.85902e-05
6.8731e-05
2.89323e-05
6.90296e-05
7.94192e-05
7.85423e-05
2.85786e-05
6.87302e-05
2.89309e-05
6.90286e-05
2.76319e-05
2.7632e-05
2.76318e-05
2.66445e-05
2.66446e-05
2.66447e-05
2.66445e-05
2.47248e-05
2.73911e-05
2.74242e-05
2.66036e-05
2.54077e-05
2.71657e-05
2.70695e-05
7.94162e-05
7.85436e-05
2.47217e-05
2.74234e-05
2.73922e-05
2.66035e-05
2.54028e-05
2.70686e-05
2.71668e-05
3.16272e-05
3.16247e-05
2.58372e-05
3.21274e-05
3.21229e-05
2.8044e-05
6.9238e-05
2.82245e-05
6.93004e-05
7.69962e-05
7.62989e-05
2.80298e-05
6.92371e-05
2.82224e-05
6.92992e-05
2.63265e-05
2.63266e-05
2.63263e-05
2.54036e-05
2.54036e-05
2.54037e-05
2.54034e-05
2.31447e-05
2.69778e-05
2.60389e-05
2.51739e-05
2.37416e-05
2.68988e-05
2.57065e-05
7.69945e-05
7.62998e-05
2.31442e-05
2.60383e-05
2.69848e-05
2.51739e-05
2.37396e-05
2.57059e-05
2.68978e-05
3.3278e-05
3.32763e-05
2.43055e-05
3.39114e-05
3.39079e-05
2.78992e-05
6.92811e-05
2.79105e-05
6.92566e-05
7.5073e-05
7.45413e-05
2.78917e-05
6.92803e-05
2.79021e-05
6.9256e-05
2.51062e-05
2.51063e-05
2.5106e-05
2.42433e-05
2.42433e-05
2.42434e-05
2.42431e-05
2.18289e-05
2.69195e-05
2.47425e-05
2.38547e-05
2.23323e-05
2.69622e-05
2.44322e-05
7.50728e-05
7.45425e-05
2.18295e-05
2.47422e-05
2.69194e-05
2.38549e-05
2.23321e-05
2.44318e-05
2.69637e-05
3.52897e-05
3.52858e-05
2.2927e-05
3.60139e-05
3.60132e-05
2.81603e-05
6.91753e-05
2.80206e-05
6.91476e-05
7.36152e-05
7.32173e-05
2.81462e-05
6.91761e-05
2.80207e-05
6.91493e-05
2.39653e-05
2.39654e-05
2.39651e-05
2.31591e-05
2.3159e-05
2.31592e-05
2.31588e-05
2.07879e-05
2.7195e-05
2.35338e-05
2.26473e-05
2.11888e-05
2.73379e-05
2.32449e-05
7.36121e-05
7.32203e-05
2.0788e-05
2.35338e-05
2.71822e-05
2.26475e-05
2.11894e-05
2.32448e-05
2.73485e-05
3.75415e-05
3.75396e-05
2.17056e-05
3.83213e-05
3.83216e-05
2.88304e-05
6.90948e-05
2.85495e-05
6.90864e-05
7.25394e-05
7.22484e-05
2.88136e-05
6.90985e-05
2.85543e-05
6.90911e-05
2.28995e-05
2.28996e-05
2.28993e-05
2.21472e-05
2.21471e-05
2.21472e-05
2.21469e-05
2.00182e-05
2.77818e-05
2.24092e-05
2.15499e-05
2.03091e-05
2.80212e-05
2.21411e-05
7.25348e-05
7.22524e-05
2.00168e-05
2.24093e-05
2.7768e-05
2.15501e-05
2.0308e-05
2.21411e-05
2.80319e-05
3.99261e-05
3.99283e-05
2.0635e-05
4.07296e-05
4.07324e-05
2.99059e-05
6.90855e-05
2.9496e-05
6.9102e-05
7.17636e-05
7.15571e-05
2.9896e-05
6.90907e-05
2.94982e-05
6.91086e-05
2.19051e-05
2.19052e-05
2.19049e-05
2.12043e-05
2.12042e-05
2.12043e-05
2.1204e-05
1.95111e-05
2.86503e-05
2.13683e-05
2.05599e-05
1.96924e-05
2.89826e-05
2.11211e-05
7.17576e-05
7.15621e-05
1.95069e-05
2.13683e-05
2.8642e-05
2.056e-05
1.96918e-05
2.1121e-05
2.8993e-05
4.2349e-05
4.23531e-05
1.97081e-05
4.31465e-05
4.31516e-05
3.13918e-05
6.91405e-05
3.08459e-05
6.91766e-05
7.12161e-05
7.10714e-05
3.13826e-05
6.91426e-05
3.08506e-05
6.9186e-05
2.0979e-05
2.09791e-05
2.09788e-05
2.03264e-05
2.03262e-05
2.03262e-05
2.0326e-05
1.92629e-05
2.97759e-05
2.04106e-05
1.96744e-05
1.93417e-05
3.01814e-05
2.01838e-05
7.12093e-05
7.10767e-05
1.92602e-05
2.04104e-05
2.97679e-05
1.96743e-05
1.93377e-05
2.01835e-05
3.01924e-05
4.47252e-05
4.47305e-05
1.89168e-05
4.54894e-05
4.54965e-05
3.32519e-05
6.92401e-05
3.25851e-05
6.92855e-05
7.08336e-05
7.07323e-05
3.32449e-05
6.92424e-05
3.2591e-05
6.92943e-05
2.01161e-05
2.01161e-05
2.01159e-05
1.95097e-05
1.95095e-05
1.95094e-05
1.95093e-05
1.92776e-05
3.11129e-05
1.95331e-05
1.88915e-05
1.92524e-05
3.15798e-05
1.9326e-05
7.08263e-05
7.07378e-05
1.92743e-05
1.95328e-05
3.11058e-05
1.88913e-05
1.92493e-05
1.93255e-05
3.15867e-05
4.69809e-05
4.69892e-05
1.82552e-05
4.76934e-05
4.7704e-05
3.54339e-05
6.93552e-05
3.46695e-05
6.94009e-05
7.05645e-05
7.04926e-05
3.5428e-05
6.93572e-05
3.46745e-05
6.94093e-05
1.93152e-05
1.93151e-05
1.9315e-05
1.87548e-05
1.87546e-05
1.87544e-05
1.87544e-05
1.95467e-05
3.26167e-05
1.87329e-05
1.82077e-05
1.94342e-05
3.31354e-05
1.85446e-05
7.05566e-05
7.04985e-05
1.95436e-05
1.87325e-05
3.26109e-05
1.82073e-05
1.94321e-05
1.85441e-05
3.31369e-05
4.90689e-05
4.90781e-05
1.77252e-05
4.97167e-05
4.97275e-05
3.78625e-05
6.94673e-05
3.70284e-05
6.95097e-05
7.03693e-05
7.03166e-05
3.78583e-05
6.94694e-05
3.70318e-05
6.95176e-05
1.85753e-05
1.85751e-05
1.85751e-05
1.80589e-05
1.80587e-05
1.80584e-05
1.80585e-05
2.00646e-05
3.42398e-05
1.80074e-05
1.76199e-05
1.98723e-05
3.4782e-05
1.78373e-05
7.03617e-05
7.03212e-05
2.00643e-05
1.80068e-05
3.42309e-05
1.76194e-05
1.98691e-05
1.78367e-05
3.47876e-05
5.09557e-05
5.09654e-05
1.73316e-05
5.15335e-05
5.1544e-05
4.04356e-05
6.95699e-05
3.95672e-05
6.96081e-05
7.02191e-05
7.0179e-05
4.04454e-05
6.95722e-05
3.95658e-05
6.96157e-05
1.78938e-05
1.78935e-05
1.78936e-05
1.74196e-05
1.74194e-05
1.74191e-05
1.74193e-05
2.08338e-05
3.59251e-05
1.7354e-05
1.71269e-05
2.05591e-05
3.64759e-05
1.72017e-05
7.0215e-05
7.01801e-05
2.0834e-05
1.73534e-05
3.59136e-05
1.71264e-05
2.05575e-05
1.72011e-05
3.6484e-05
5.26314e-05
5.26418e-05
1.70717e-05
5.31411e-05
5.31515e-05
4.30533e-05
6.96626e-05
4.21686e-05
6.96976e-05
7.00956e-05
7.0063e-05
4.30712e-05
6.96654e-05
4.21541e-05
6.97056e-05
1.72684e-05
1.72681e-05
1.72682e-05
1.68348e-05
1.68347e-05
1.68344e-05
1.68345e-05
2.18388e-05
3.76252e-05
1.6772e-05
1.67278e-05
2.1487e-05
3.81735e-05
1.66373e-05
7.00942e-05
7.0063e-05
2.18388e-05
1.67715e-05
3.76196e-05
1.67273e-05
2.14845e-05
1.66368e-05
3.81834e-05
5.4103e-05
5.41132e-05
1.69424e-05
5.4547e-05
5.45583e-05
4.55936e-05
6.97479e-05
4.47202e-05
6.97804e-05
6.99882e-05
6.99597e-05
4.56097e-05
6.97515e-05
4.47105e-05
6.97888e-05
1.6697e-05
1.66967e-05
1.66968e-05
1.6303e-05
1.63028e-05
1.63026e-05
1.63027e-05
2.30566e-05
3.92988e-05
1.62592e-05
1.64218e-05
2.26357e-05
3.98343e-05
1.61415e-05
6.99873e-05
6.99594e-05
2.30555e-05
1.62587e-05
3.92933e-05
1.64215e-05
2.26362e-05
1.6141e-05
3.98444e-05
5.53854e-05
5.53955e-05
1.6946e-05
5.57706e-05
5.57813e-05
4.79569e-05
6.98277e-05
4.71366e-05
6.98585e-05
6.98906e-05
6.98648e-05
4.79713e-05
6.98321e-05
4.71307e-05
6.98674e-05
1.61782e-05
1.61779e-05
1.61781e-05
1.58222e-05
1.5822e-05
1.58218e-05
1.58219e-05
2.44572e-05
4.0915e-05
1.58141e-05
1.62091e-05
2.3981e-05
4.1427e-05
1.57132e-05
6.98899e-05
6.98644e-05
2.44586e-05
1.58138e-05
4.09103e-05
1.6209e-05
2.39818e-05
1.57129e-05
4.14325e-05
5.64989e-05
5.65084e-05
1.70788e-05
5.68339e-05
5.68452e-05
5.00791e-05
6.9903e-05
4.93394e-05
6.99319e-05
6.98001e-05
6.97764e-05
5.0092e-05
6.9908e-05
4.93356e-05
6.9941e-05
1.57096e-05
1.57095e-05
1.57096e-05
1.53903e-05
1.53902e-05
1.539e-05
1.53902e-05
2.60043e-05
4.2448e-05
1.54364e-05
1.60896e-05
2.54845e-05
4.29252e-05
1.53522e-05
6.97993e-05
6.97758e-05
2.60062e-05
1.54362e-05
4.24434e-05
1.60898e-05
2.54846e-05
1.5352e-05
4.2931e-05
5.74674e-05
5.74767e-05
1.73459e-05
5.77595e-05
5.777e-05
5.19295e-05
6.99736e-05
5.12826e-05
7.00003e-05
6.97154e-05
6.96934e-05
6.99786e-05
5.12807e-05
7.00097e-05
1.52898e-05
1.52897e-05
1.52898e-05
2.7649e-05
4.38804e-05
1.51257e-05
1.60651e-05
2.7102e-05
4.43292e-05
1.50581e-05
6.97147e-05
2.76487e-05
1.51257e-05
4.38778e-05
2.71022e-05
1.50581e-05
5.83125e-05
5.83227e-05
1.77408e-05
5.85684e-05
5.85791e-05
3.73742e-05
3.72967e-05
3.72966e-05
5.29014e-05
3.7193e-05
5.29145e-05
3.71928e-05
3.70929e-05
3.72393e-05
3.72336e-05
3.71761e-05
3.71757e-05
3.73703e-05
3.73777e-05
3.73048e-05
3.73768e-05
3.73703e-05
3.73777e-05
3.73047e-05
3.73768e-05
3.71722e-05
3.932e-05
3.7157e-05
3.67204e-05
3.71721e-05
3.93251e-05
3.71563e-05
3.67197e-05
3.70957e-05
3.71021e-05
3.59987e-05
3.64209e-05
3.7165e-05
3.71108e-05
3.63049e-05
3.70957e-05
3.71021e-05
3.59967e-05
3.64209e-05
3.71651e-05
3.71108e-05
3.6305e-05
3.73742e-05
3.72957e-05
3.72964e-05
5.29139e-05
3.7193e-05
3.70928e-05
3.72294e-05
3.72374e-05
3.7177e-05
3.7176e-05
5.28998e-05
3.7193e-05
3.73703e-05
3.73777e-05
3.73049e-05
3.73769e-05
3.73703e-05
3.73777e-05
3.73768e-05
3.73051e-05
3.71723e-05
3.93374e-05
3.7156e-05
3.67209e-05
3.70957e-05
3.71021e-05
3.59959e-05
3.64209e-05
3.7165e-05
3.71108e-05
3.63052e-05
3.71721e-05
3.93215e-05
3.71565e-05
3.67174e-05
3.70956e-05
3.71021e-05
3.64209e-05
3.59985e-05
3.71108e-05
3.71647e-05
3.63048e-05
3.73774e-05
3.73766e-05
3.7377e-05
3.7377e-05
3.73774e-05
3.73766e-05
3.7377e-05
3.7377e-05
3.73774e-05
3.73766e-05
3.7377e-05
3.7377e-05
3.71133e-05
3.71098e-05
3.64241e-05
3.64241e-05
3.71125e-05
3.71125e-05
3.64261e-05
3.71133e-05
3.71098e-05
3.64241e-05
3.64241e-05
3.71125e-05
3.71125e-05
3.64261e-05
3.71133e-05
3.71098e-05
3.64241e-05
3.64241e-05
3.71125e-05
3.71125e-05
3.64261e-05
3.71133e-05
3.71098e-05
3.64241e-05
3.64241e-05
3.71125e-05
3.71125e-05
3.64261e-05
3.73703e-05
3.73777e-05
3.73768e-05
3.73047e-05
3.70957e-05
3.71021e-05
3.59988e-05
3.64209e-05
3.71654e-05
3.71108e-05
3.63054e-05
3.71722e-05
3.93141e-05
3.71564e-05
3.67204e-05
3.70957e-05
3.71021e-05
3.64209e-05
3.60028e-05
3.71108e-05
3.71653e-05
3.63052e-05
3.71721e-05
3.93266e-05
3.71571e-05
3.67202e-05
3.73741e-05
3.72968e-05
3.72967e-05
5.28975e-05
3.71927e-05
3.70929e-05
3.72448e-05
3.72423e-05
3.71753e-05
3.71753e-05
5.29149e-05
3.71928e-05
3.73703e-05
3.73777e-05
3.73768e-05
3.73046e-05
3.70956e-05
3.71021e-05
3.64209e-05
3.59963e-05
3.71108e-05
3.71648e-05
3.6305e-05
3.70956e-05
3.71021e-05
3.64209e-05
3.6001e-05
3.71108e-05
3.71655e-05
3.6305e-05
3.71723e-05
3.93414e-05
3.7156e-05
3.67186e-05
3.71722e-05
3.93294e-05
3.7157e-05
3.67192e-05
3.70929e-05
3.72531e-05
3.72273e-05
3.71756e-05
3.71762e-05
5.29071e-05
3.71928e-05
5.28981e-05
3.71927e-05
5.54833e-05
6.50604e-05
5.54604e-05
6.50618e-05
3.66104e-05
3.66009e-05
3.52784e-05
3.40281e-05
3.40126e-05
7.48563e-05
6.77944e-05
7.48588e-05
6.77972e-05
3.4972e-05
3.19523e-05
3.19491e-05
3.34442e-05
3.3431e-05
3.58618e-05
4.07565e-05
3.66071e-05
4.50408e-05
3.52721e-05
3.56086e-05
3.58931e-05
3.53766e-05
3.6049e-05
3.41798e-05
3.53821e-05
3.52712e-05
3.56054e-05
3.58931e-05
3.53765e-05
3.60489e-05
3.41768e-05
3.53821e-05
3.56326e-05
5.01518e-05
4.63487e-05
3.48814e-05
3.56257e-05
5.01454e-05
4.63351e-05
3.48721e-05
3.49971e-05
3.48715e-05
3.26808e-05
3.44015e-05
3.38207e-05
3.48855e-05
3.41739e-05
3.49955e-05
3.48715e-05
3.26803e-05
3.44014e-05
3.38155e-05
3.48854e-05
3.41712e-05
3.65955e-05
3.66042e-05
3.52784e-05
3.40249e-05
3.40232e-05
5.5495e-05
6.5068e-05
7.48469e-05
6.77972e-05
3.4972e-05
3.19664e-05
3.19397e-05
3.34366e-05
3.34403e-05
7.48533e-05
6.77958e-05
3.52722e-05
3.56089e-05
3.58931e-05
3.53766e-05
3.60492e-05
3.4179e-05
3.53821e-05
3.58647e-05
4.07569e-05
3.66049e-05
4.50433e-05
3.52718e-05
3.58931e-05
3.56079e-05
3.53766e-05
3.60486e-05
3.53821e-05
3.41789e-05
3.5631e-05
5.01514e-05
4.6346e-05
3.48813e-05
3.49971e-05
3.48715e-05
3.26825e-05
3.44015e-05
3.38199e-05
3.48855e-05
3.41743e-05
3.56291e-05
5.01477e-05
4.63367e-05
3.48786e-05
3.49965e-05
3.48716e-05
3.44015e-05
3.26805e-05
3.48855e-05
3.38188e-05
3.41734e-05
3.58579e-05
4.07326e-05
3.66089e-05
4.50101e-05
3.52719e-05
3.58931e-05
3.561e-05
3.53766e-05
3.6049e-05
3.53821e-05
3.4179e-05
3.58666e-05
4.07634e-05
3.66084e-05
4.50495e-05
3.49939e-05
3.48707e-05
3.26697e-05
3.44012e-05
3.38054e-05
3.48852e-05
3.41708e-05
3.56243e-05
5.01228e-05
4.62959e-05
3.48751e-05
3.49967e-05
3.48715e-05
3.44015e-05
3.26803e-05
3.48854e-05
3.38161e-05
3.41733e-05
3.56312e-05
5.01494e-05
4.63427e-05
3.48796e-05
3.66111e-05
3.66038e-05
3.52786e-05
3.40266e-05
3.40208e-05
5.54705e-05
6.50629e-05
7.4849e-05
6.77922e-05
3.49724e-05
3.19556e-05
3.19555e-05
3.34423e-05
3.34313e-05
7.48602e-05
6.78e-05
3.52719e-05
3.58931e-05
3.56077e-05
3.53766e-05
3.60485e-05
3.53821e-05
3.41765e-05
3.58628e-05
4.07596e-05
3.6606e-05
4.50493e-05
3.5865e-05
4.07626e-05
3.66065e-05
4.50495e-05
3.4996e-05
3.48717e-05
3.44015e-05
3.2692e-05
3.48854e-05
3.3828e-05
3.41745e-05
3.49964e-05
3.48715e-05
3.44015e-05
3.26789e-05
3.48855e-05
3.38141e-05
3.41739e-05
3.56271e-05
5.01528e-05
4.63437e-05
3.48816e-05
3.56279e-05
5.01513e-05
4.63401e-05
3.48797e-05
5.55106e-05
6.50778e-05
5.54849e-05
6.5057e-05
3.49721e-05
3.19721e-05
3.19661e-05
3.3445e-05
3.34376e-05
7.48623e-05
6.78102e-05
7.48532e-05
6.77915e-05
7.66372e-05
8.0937e-05
7.66398e-05
8.09403e-05
3.16486e-05
3.16434e-05
3.32589e-05
3.08249e-05
3.08271e-05
8.40399e-05
8.18948e-05
8.40438e-05
8.18979e-05
3.29491e-05
3.0227e-05
3.02275e-05
3.06729e-05
3.06674e-05
3.3935e-05
5.1275e-05
3.4664e-05
5.45872e-05
3.30449e-05
3.24324e-05
3.39291e-05
3.34065e-05
3.38922e-05
3.15234e-05
3.34673e-05
3.30415e-05
3.24302e-05
3.3929e-05
3.34064e-05
3.38891e-05
3.15228e-05
3.34671e-05
3.37707e-05
5.83598e-05
5.55545e-05
3.30606e-05
3.37617e-05
5.83528e-05
5.55466e-05
3.30539e-05
3.27629e-05
3.29324e-05
3.06067e-05
3.25716e-05
3.13499e-05
3.30151e-05
3.19073e-05
3.27595e-05
3.29324e-05
3.06027e-05
3.25714e-05
3.13475e-05
3.30149e-05
3.19043e-05
3.16619e-05
3.1644e-05
3.3259e-05
3.08499e-05
3.08202e-05
7.66335e-05
8.09376e-05
8.40374e-05
8.18916e-05
3.29492e-05
3.02466e-05
3.02284e-05
3.06929e-05
3.0674e-05
8.4043e-05
8.18946e-05
3.30457e-05
3.24344e-05
3.39292e-05
3.34067e-05
3.38923e-05
3.15283e-05
3.34674e-05
3.39397e-05
5.1278e-05
3.467e-05
5.4594e-05
3.30433e-05
3.39291e-05
3.24331e-05
3.34067e-05
3.38913e-05
3.34673e-05
3.15253e-05
3.37671e-05
5.83631e-05
5.55569e-05
3.30587e-05
3.27627e-05
3.29327e-05
3.0611e-05
3.25717e-05
3.13534e-05
3.30152e-05
3.19062e-05
3.37602e-05
5.83617e-05
5.55527e-05
3.30504e-05
3.276e-05
3.29327e-05
3.25715e-05
3.0608e-05
3.30151e-05
3.13526e-05
3.19027e-05
3.39412e-05
5.12576e-05
3.46668e-05
5.45862e-05
3.30429e-05
3.39291e-05
3.24308e-05
3.34067e-05
3.38914e-05
3.34673e-05
3.15244e-05
3.39383e-05
5.12818e-05
3.46719e-05
5.45953e-05
3.27615e-05
3.29322e-05
3.06152e-05
3.25716e-05
3.13538e-05
3.30149e-05
3.19066e-05
3.37664e-05
5.836e-05
5.55434e-05
3.30583e-05
3.27602e-05
3.29327e-05
3.25715e-05
3.06061e-05
3.3015e-05
3.13487e-05
3.19031e-05
3.37628e-05
5.83635e-05
5.55549e-05
3.30506e-05
3.16575e-05
3.16501e-05
3.32599e-05
3.08383e-05
3.08362e-05
7.66424e-05
8.09408e-05
8.40427e-05
8.18931e-05
3.29503e-05
3.02374e-05
3.02332e-05
3.06884e-05
3.06813e-05
8.40435e-05
8.19003e-05
3.3044e-05
3.39292e-05
3.24289e-05
3.34067e-05
3.38918e-05
3.34673e-05
3.15231e-05
3.39449e-05
5.12838e-05
3.46729e-05
5.45989e-05
3.39408e-05
5.12816e-05
3.46708e-05
5.45973e-05
3.27626e-05
3.29332e-05
3.25718e-05
3.06198e-05
3.30152e-05
3.13634e-05
3.19064e-05
3.27609e-05
3.29327e-05
3.25716e-05
3.06057e-05
3.30151e-05
3.13478e-05
3.19041e-05
3.37667e-05
5.83665e-05
5.55582e-05
3.3058e-05
3.37626e-05
5.83646e-05
5.55567e-05
3.3053e-05
7.66447e-05
8.09418e-05
7.66381e-05
8.09393e-05
3.295e-05
3.02427e-05
3.02483e-05
3.06903e-05
3.06925e-05
8.40443e-05
8.1901e-05
8.40439e-05
8.18991e-05
8.44076e-05
8.50749e-05
8.44104e-05
8.50776e-05
3.01618e-05
3.01526e-05
3.12643e-05
2.99487e-05
2.99295e-05
8.48409e-05
8.50736e-05
8.4845e-05
8.50757e-05
3.09518e-05
2.9901e-05
2.98685e-05
2.99319e-05
2.99103e-05
3.22259e-05
5.9137e-05
3.29071e-05
6.14393e-05
3.07771e-05
3.0476e-05
3.21363e-05
3.15492e-05
3.16289e-05
2.98521e-05
3.17086e-05
3.07743e-05
3.04702e-05
3.2136e-05
3.15487e-05
3.16258e-05
2.98451e-05
3.17082e-05
3.21005e-05
6.38824e-05
6.20604e-05
3.14575e-05
3.2095e-05
6.38783e-05
6.20532e-05
3.14519e-05
3.05055e-05
3.11008e-05
2.92081e-05
3.08743e-05
2.9744e-05
3.12881e-05
2.96665e-05
3.05027e-05
3.11002e-05
2.92009e-05
3.08738e-05
2.97347e-05
3.12876e-05
2.96641e-05
3.01742e-05
3.01659e-05
3.12644e-05
2.99574e-05
2.99525e-05
8.44093e-05
8.50773e-05
8.48386e-05
8.50698e-05
3.09519e-05
2.99057e-05
2.99053e-05
2.99384e-05
2.99363e-05
8.48454e-05
8.50758e-05
3.0774e-05
3.04788e-05
3.21364e-05
3.15497e-05
3.16274e-05
2.98537e-05
3.17086e-05
3.2218e-05
5.91451e-05
3.29002e-05
6.14475e-05
3.07708e-05
3.21361e-05
3.04774e-05
3.15494e-05
3.16239e-05
3.17083e-05
2.98514e-05
3.20927e-05
6.38876e-05
6.20636e-05
3.14487e-05
3.05018e-05
3.11013e-05
2.92061e-05
3.08741e-05
2.97398e-05
3.1288e-05
2.96626e-05
3.20867e-05
6.38856e-05
6.20605e-05
3.14446e-05
3.04989e-05
3.1101e-05
3.08738e-05
2.92063e-05
3.12876e-05
2.97431e-05
2.96603e-05
3.22292e-05
5.91439e-05
3.29114e-05
6.145e-05
3.0772e-05
3.21361e-05
3.04742e-05
3.15493e-05
3.16245e-05
3.17083e-05
2.98513e-05
3.22205e-05
5.91475e-05
3.29035e-05
6.14497e-05
3.05047e-05
3.11014e-05
2.92158e-05
3.08744e-05
2.97519e-05
3.12881e-05
2.96659e-05
3.20988e-05
6.38891e-05
6.20626e-05
3.14541e-05
3.05004e-05
3.11009e-05
3.08739e-05
2.92071e-05
3.12877e-05
2.97395e-05
2.96615e-05
3.20894e-05
6.38875e-05
6.20631e-05
3.14469e-05
3.0171e-05
3.01627e-05
3.12651e-05
2.99535e-05
2.99483e-05
8.44113e-05
8.5077e-05
8.48426e-05
8.50761e-05
3.09527e-05
2.99045e-05
2.98994e-05
2.99366e-05
2.99296e-05
8.48322e-05
8.50755e-05
3.07725e-05
3.21362e-05
3.04737e-05
3.15494e-05
3.16251e-05
3.17084e-05
2.98508e-05
3.22258e-05
5.91501e-05
3.29084e-05
6.14518e-05
3.2221e-05
5.91484e-05
3.29034e-05
6.14496e-05
3.05025e-05
3.11018e-05
3.08743e-05
2.92182e-05
3.12881e-05
2.975e-05
2.96627e-05
3.05002e-05
3.11009e-05
3.08739e-05
2.92083e-05
3.12877e-05
2.97388e-05
2.96608e-05
3.20939e-05
6.3889e-05
6.20654e-05
3.1448e-05
3.20895e-05
6.38873e-05
6.20631e-05
3.14447e-05
8.44118e-05
8.50775e-05
8.44116e-05
8.50779e-05
3.09524e-05
2.99029e-05
2.99094e-05
2.99353e-05
2.99426e-05
8.48435e-05
8.50757e-05
8.48445e-05
8.50761e-05
8.45976e-05
8.39134e-05
8.45953e-05
8.39112e-05
2.99185e-05
2.98834e-05
2.93357e-05
3.00265e-05
2.99824e-05
8.26256e-05
8.3525e-05
8.26201e-05
8.35198e-05
2.90277e-05
3.03264e-05
3.02829e-05
3.01014e-05
3.00634e-05
3.07365e-05
6.43355e-05
3.13306e-05
6.5735e-05
2.85861e-05
2.9117e-05
3.0467e-05
2.97934e-05
2.94046e-05
2.86504e-05
3.00661e-05
2.85841e-05
2.91065e-05
3.04666e-05
2.97926e-05
2.94021e-05
2.8645e-05
3.00656e-05
3.06269e-05
6.70928e-05
6.60619e-05
3.00869e-05
3.06243e-05
6.70921e-05
6.60578e-05
3.00841e-05
2.83364e-05
2.93708e-05
2.81671e-05
2.92822e-05
2.85733e-05
2.96712e-05
2.75457e-05
2.83345e-05
2.93699e-05
2.81648e-05
2.92818e-05
2.85635e-05
2.96707e-05
2.75444e-05
2.99237e-05
2.99237e-05
2.93368e-05
3.00257e-05
3.00343e-05
8.45976e-05
8.39157e-05
8.26234e-05
8.35218e-05
2.90288e-05
3.03236e-05
3.03347e-05
3.01087e-05
3.01076e-05
8.26286e-05
8.35245e-05
2.85827e-05
2.91072e-05
3.04668e-05
2.97936e-05
2.94002e-05
2.86462e-05
3.00657e-05
3.07291e-05
6.43413e-05
3.13244e-05
6.57404e-05
2.8581e-05
3.04665e-05
2.91159e-05
2.97934e-05
2.9398e-05
3.00654e-05
2.8648e-05
3.06245e-05
6.70967e-05
6.60653e-05
3.00809e-05
2.83329e-05
2.93708e-05
2.81636e-05
2.92818e-05
2.85581e-05
2.96708e-05
2.75432e-05
3.0622e-05
6.70954e-05
6.60622e-05
3.00792e-05
2.83315e-05
2.93707e-05
2.92816e-05
2.81654e-05
2.96705e-05
2.85715e-05
2.75425e-05
3.07357e-05
6.43449e-05
3.13351e-05
6.57447e-05
2.85814e-05
3.04666e-05
2.91116e-05
2.97935e-05
2.93996e-05
3.00656e-05
2.86501e-05
3.07318e-05
6.43443e-05
3.13249e-05
6.57429e-05
2.83357e-05
2.93717e-05
2.81725e-05
2.92824e-05
2.85799e-05
2.96713e-05
2.75448e-05
3.06285e-05
6.71003e-05
6.60666e-05
3.0083e-05
2.83317e-05
2.93708e-05
2.92817e-05
2.81669e-05
2.96707e-05
2.8566e-05
2.75409e-05
3.06182e-05
6.70982e-05
6.60655e-05
3.00796e-05
2.99222e-05
2.99187e-05
2.93375e-05
3.00287e-05
3.00246e-05
8.46053e-05
8.39147e-05
8.26271e-05
8.35238e-05
2.90296e-05
3.03283e-05
3.03249e-05
3.01064e-05
3.01071e-05
8.26248e-05
8.35269e-05
2.85799e-05
3.04666e-05
2.91096e-05
2.97935e-05
2.93985e-05
3.00655e-05
2.86495e-05
3.0728e-05
6.43457e-05
3.13275e-05
6.57434e-05
3.07276e-05
6.43438e-05
3.1325e-05
6.57421e-05
2.83304e-05
2.93718e-05
2.92818e-05
2.81757e-05
2.96709e-05
2.85737e-05
2.7539e-05
2.83294e-05
2.93708e-05
2.92815e-05
2.81641e-05
2.96705e-05
2.85639e-05
2.75388e-05
3.062e-05
6.70981e-05
6.60662e-05
3.00728e-05
3.06173e-05
6.70971e-05
6.60648e-05
3.00748e-05
8.45981e-05
8.39145e-05
8.45985e-05
8.39144e-05
2.90292e-05
3.03237e-05
3.03237e-05
3.01073e-05
3.01107e-05
8.26254e-05
8.35263e-05
8.26248e-05
8.35266e-05
8.21908e-05
8.12251e-05
8.21832e-05
8.12198e-05
3.04564e-05
3.04252e-05
2.75187e-05
3.07869e-05
3.07576e-05
7.98415e-05
8.07851e-05
7.98375e-05
8.07771e-05
2.72244e-05
3.13937e-05
3.13766e-05
3.09684e-05
3.09502e-05
2.95042e-05
6.73068e-05
2.99852e-05
6.80394e-05
2.65518e-05
2.81048e-05
2.88992e-05
2.8143e-05
2.73101e-05
2.77577e-05
2.85218e-05
2.6551e-05
2.80944e-05
2.88987e-05
2.81424e-05
2.73089e-05
2.77587e-05
2.85214e-05
2.94186e-05
6.86579e-05
6.81698e-05
2.90052e-05
2.94177e-05
6.86595e-05
6.81703e-05
2.90053e-05
2.63327e-05
2.77475e-05
2.74288e-05
2.77843e-05
2.77091e-05
2.81503e-05
2.56107e-05