/*--------------------------------*- C++ -*----------------------------------*\
| =========                 |                                                 |
| \\      /  F ield         | OpenFOAM: The Open Source CFD Toolbox           |
|  \\    /   O peration     | Version:  v1906                                 |
|   \\  /    A nd           | Web:      www.OpenFOAM.com                      |
|    \\/     M anipulation  |                                                 |
\*---------------------------------------------------------------------------*/
FoamFile
{
    version     2.0;
    format      ascii;
    class       volScalarField;
    location    "850";
    object      nut;
}
// * * * * * * * * * * * * * * * * * * * * * * * * * * * * * * * * * * * * * //

dimensions      [0 2 -1 0 0 0 0];


internalField   nonuniform List<scalar> 
42616
(
0.000233972
0.000233079
0.00023309
0.000233398
0.000232522
0.000227663
0.000227723
0.000223713
0.000230492
0.000220175
0.000220201
0.000208926
0.00022776
0.000211516
0.000211524
0.000193632
0.000224381
0.000202506
0.000202501
0.000179647
0.000220489
0.000193638
0.00019363
0.00016734
0.000216234
0.000185155
0.000185148
0.000156612
0.000211748
0.000177128
0.000177122
0.000147276
0.000207135
0.000169596
0.00016959
0.000138968
0.000202474
0.000162529
0.000162524
0.00013163
0.000197821
0.000155872
0.000155868
0.000125013
0.00019321
0.000149572
0.000149567
0.000118865
0.000188621
0.000143588
0.000143581
0.000113154
0.00018409
0.000137865
0.000137856
0.000107922
0.000179646
0.000132363
0.000132353
0.000102994
0.000175278
0.000127074
0.000127063
9.83284e-05
0.000170973
0.000122015
0.000122003
9.40716e-05
0.000166719
0.000117219
0.000117207
9.03807e-05
0.000162515
0.000112712
0.000112697
8.74193e-05
0.000158337
0.000108553
0.000108539
8.50959e-05
0.000154178
0.000104794
0.000104781
8.32933e-05
0.000234263
0.000234459
0.000234459
0.000234262
0.000234458
0.000234457
0.000234276
0.000234276
0.000234275
0.000234275
0.000234463
0.000234461
0.000234262
0.000234457
0.000234462
0.000234264
0.000233398
0.000226061
0.000233083
0.000233083
0.000229281
0.000229276
0.000233393
0.000226056
0.000233084
0.000233086
0.000229284
0.000229285
0.000233087
0.000229232
0.00022928
0.000233403
0.000226085
0.000233084
0.000229297
0.00022928
0.00022607
0.000223702
0.00021206
0.000227703
0.000227697
0.000222198
0.000222189
0.000223695
0.000212041
0.000227708
0.000227707
0.000222216
0.000222204
0.000227701
0.000222194
0.000222197
0.000223726
0.000212072
0.000227701
0.000222227
0.000222198
0.000212057
0.000208931
0.000196909
0.00022017
0.000220159
0.000213725
0.000213708
0.000208908
0.000196901
0.00022019
0.000220175
0.000213745
0.000213721
0.000220168
0.00021374
0.00021372
0.000208937
0.000196915
0.00022017
0.000213751
0.000213722
0.000196914
0.000193658
0.000182757
0.000211499
0.000211481
0.000204738
0.00020472
0.000193645
0.000182782
0.000211517
0.000211492
0.000204753
0.000204725
0.000211493
0.000204758
0.000204732
0.00019363
0.000182785
0.000211496
0.000204755
0.000204735
0.000182755
0.000179641
0.000170174
0.000202484
0.000202467
0.0001958
0.000195785
0.000179615
0.000170234
0.000202499
0.00020247
0.000195814
0.000195786
0.000202477
0.000195824
0.000195793
0.000179595
0.000170234
0.000202482
0.000195816
0.0001958
0.000170169
0.000167333
0.000159171
0.000193613
0.000193599
0.000187207
0.000187195
0.000167272
0.000159244
0.000193627
0.0001936
0.000187221
0.000187196
0.000193606
0.000187234
0.0001872
0.000167262
0.000159253
0.000193615
0.000187226
0.000187212
0.000159186
0.000156619
0.000149584
0.000185127
0.000185116
0.000179059
0.000179048
0.000156564
0.000149668
0.000185142
0.000185117
0.000179075
0.00017905
0.00018512
0.000179088
0.000179052
0.000156549
0.00014961
0.000185134
0.000179081
0.00017907
0.000149571
0.000147275
0.000141142
0.000177099
0.000177088
0.000171402
0.000171392
0.000147192
0.000141121
0.000177116
0.000177089
0.000171421
0.000171392
0.000177091
0.000171433
0.000171395
0.000147233
0.000141155
0.00017711
0.000171426
0.000171417
0.000141161
0.000138999
0.000133557
0.000169566
0.000169556
0.000164224
0.000164214
0.000139049
0.000133599
0.000169586
0.000169555
0.000164245
0.000164213
0.000169558
0.000164255
0.000164217
0.000138972
0.000133649
0.000169581
0.00016425
0.000164242
0.00013365
0.000131788
0.000126814
0.000162498
0.000162489
0.000157468
0.00015746
0.000131744
0.000126832
0.00016252
0.000162487
0.000157492
0.000157458
0.00016249
0.000157501
0.000157462
0.000131669
0.000126741
0.000162517
0.000157496
0.000157491
0.000126824
0.000125011
0.000120539
0.000155839
0.000155833
0.000151083
0.000151075
0.000125028
0.000120551
0.000155864
0.00015583
0.000151108
0.000151073
0.000155834
0.000151117
0.000151078
0.000125129
0.000120442
0.000155864
0.000151111
0.00015111
0.000120535
0.000118881
0.00011448
0.000149538
0.000149532
0.00014502
0.000145014
0.000118888
0.000114504
0.000149564
0.000149529
0.000145047
0.000145011
0.000149533
0.000145056
0.000145017
0.000118988
0.000114424
0.000149566
0.000145049
0.000145049
0.000114493
0.000113227
0.000108816
0.000143553
0.000143546
0.000139237
0.00013923
0.000113188
0.000108822
0.000143579
0.000143543
0.000139264
0.000139226
0.000143548
0.000139273
0.000139234
0.000113239
0.000108783
0.000143581
0.000139266
0.000139266
0.000108814
0.000107929
0.000103643
0.00013783
0.000137822
0.000133686
0.000133677
0.000107929
0.000103642
0.000137856
0.000137818
0.000133713
0.000133673
0.000137825
0.000133722
0.000133682
0.000107903
0.000103623
0.000137858
0.000133712
0.000133714
0.000103634
0.000103005
9.90359e-05
0.000132329
0.000132319
0.000128343
0.000128332
0.000103007
9.90219e-05
0.000132355
0.000132314
0.000128371
0.000128327
0.000132323
0.000128379
0.00012834
0.000102989
9.90098e-05
0.000132356
0.000128368
0.00012837
9.90294e-05
9.83382e-05
9.48624e-05
0.000127038
0.000127028
0.000123225
0.000123214
9.83601e-05
9.48245e-05
0.000127064
0.000127022
0.000123253
0.00012321
0.000127035
0.000123263
0.000123225
9.83427e-05
9.48073e-05
0.000127066
0.000123251
0.000123252
9.48609e-05
9.40942e-05
9.13153e-05
0.000121979
0.000121968
0.000118334
0.000118321
9.41454e-05
9.11839e-05
0.000122004
0.000121963
0.000118358
0.000118315
0.000121977
0.000118372
0.000118334
9.41316e-05
9.12815e-05
0.000122005
0.000118357
0.000118358
9.13635e-05
9.04687e-05
8.82256e-05
0.000117182
0.000117171
0.000113753
0.000113747
9.05296e-05
8.81109e-05
0.000117205
0.000117165
0.000113784
0.00011374
0.000117179
0.000113794
0.000113755
9.04547e-05
8.82123e-05
0.000117209
0.000113782
0.000113781
8.82922e-05
8.75317e-05
8.57513e-05
0.000112676
0.000112663
0.000109495
0.000109491
8.75828e-05
8.5669e-05
0.000112693
0.000112656
0.000109527
0.000109484
0.000112672
0.000109538
0.0001095
8.75229e-05
8.57189e-05
0.000112699
0.000109526
0.000109523
8.57963e-05
8.51247e-05
8.40177e-05
0.00010852
0.000108506
0.000105626
0.000105621
8.52247e-05
8.37215e-05
0.000108533
0.000108498
0.000105657
0.000105614
0.000108516
0.000105666
0.000105631
8.51625e-05
8.38176e-05
0.000108541
0.000105656
0.000105652
8.40452e-05
8.33565e-05
0.000104764
0.000104748
8.35573e-05
0.000104771
0.000104739
0.000104759
8.3464e-05
0.000104781
0.00023473
0.000234746
0.000234729
0.000234729
0.000235132
0.000234802
0.000235016
0.000234726
0.000235129
0.000234799
0.000234726
0.000234835
0.00023487
0.000233442
0.000233511
0.00010467
3.88114e-05
0.000128426
3.97831e-05
2.19803e-05
2.28509e-05
0.000104658
3.88206e-05
0.000128397
3.9782e-05
0.000233972
0.000233972
0.000233972
0.000232929
0.000232926
0.000232929
0.000232929
0.000205923
9.31922e-05
0.000233967
0.000231925
0.00022238
8.64792e-05
0.000233599
2.1977e-05
2.28486e-05
0.000206014
0.000233966
9.35656e-05
0.000231967
0.000222334
0.000233605
8.65977e-05
4.76363e-05
4.76821e-05
0.000231277
4.37035e-05
4.37368e-05
7.26296e-05
4.24051e-05
8.13586e-05
4.37513e-05
2.47889e-05
2.54744e-05
7.26167e-05
4.24012e-05
8.13453e-05
4.3748e-05
0.000232519
0.000232523
0.000232522
0.000231064
0.000231062
0.000231066
0.000231063
0.00016729
7.89034e-05
0.000232045
0.000225953
0.000179943
7.39706e-05
0.000231337
2.47866e-05
2.54726e-05
0.000167357
0.000232063
7.89825e-05
0.000226007
0.000180044
0.000231353
7.40906e-05
3.91161e-05
3.91331e-05
0.000219428
3.65227e-05
3.65363e-05
5.63556e-05
4.55372e-05
6.12447e-05
4.64138e-05
2.60155e-05
2.61181e-05
5.63473e-05
4.55349e-05
6.12178e-05
4.64122e-05
0.000230489
0.000230493
0.00023049
0.000228507
0.000228504
0.000228508
0.000228504
0.000138548
6.70784e-05
0.000228593
0.000218082
0.000147997
6.31358e-05
0.000227482
2.60134e-05
2.61162e-05
0.000138547
0.0002286
6.70405e-05
0.000218103
0.000148005
0.000227485
6.32013e-05
3.32861e-05
3.32868e-05
0.000204448
3.20337e-05
3.20446e-05
4.70541e-05
4.74956e-05
4.99791e-05
4.8008e-05
2.60404e-05
2.59387e-05
4.70082e-05
4.74927e-05
4.99895e-05
4.80064e-05
0.000227757
0.00022776
0.000227756
0.000225279
0.000225277
0.000225278
0.000225275
0.000117524
5.79593e-05
0.000223651
0.00020927
0.000124596
5.51839e-05
0.000222236
2.60384e-05
2.59376e-05
0.000117501
0.000223649
5.7928e-05
0.000209274
0.000124607
0.000222231
5.51941e-05
3.07056e-05
3.07068e-05
0.000189664
3.03715e-05
3.03705e-05
4.14913e-05
4.85783e-05
4.32812e-05
4.8841e-05
2.56716e-05
2.55202e-05
4.14406e-05
4.85748e-05
4.33095e-05
4.88379e-05
0.000224378
0.000224379
0.000224377
0.000221501
0.0002215
0.0002215
0.000221497
0.000102088
5.16875e-05
0.000217688
0.000200261
0.000107452
4.98203e-05
0.000216096
2.5669e-05
2.55184e-05
0.000102067
0.000217679
5.16549e-05
0.000200255
0.000107416
0.000216083
4.98214e-05
3.03002e-05
3.02928e-05
0.00017626
3.04397e-05
3.04288e-05
3.8199e-05
4.90887e-05
3.92505e-05
4.91965e-05
2.52353e-05
2.50953e-05
3.81647e-05
4.90842e-05
3.92778e-05
4.91919e-05
0.000220488
0.000220487
0.000220485
0.000217324
0.000217325
0.000217323
0.00021732
9.04932e-05
4.75581e-05
0.00021118
0.000191475
9.45869e-05
4.64131e-05
0.000209514
2.52323e-05
2.50935e-05
9.04818e-05
0.000211168
4.75446e-05
0.000191467
9.45677e-05
0.000209499
4.63828e-05
3.11279e-05
3.11177e-05
0.000164481
3.15507e-05
3.15407e-05
3.64098e-05
4.9267e-05
3.69511e-05
4.92947e-05
2.48472e-05
2.47344e-05
3.63762e-05
4.92621e-05
3.69548e-05
4.929e-05
0.000216235
0.000216233
0.00021623
0.000212885
0.000212886
0.000212884
0.00021288
8.16028e-05
4.50132e-05
0.00020449
0.000183102
8.48235e-05
4.43888e-05
0.00020282
2.48447e-05
2.47325e-05
8.16356e-05
0.000204479
4.50127e-05
0.000183094
8.48179e-05
0.000202807
4.43862e-05
3.26957e-05
3.26838e-05
0.000154221
3.33025e-05
3.32862e-05
3.57062e-05
4.92841e-05
3.58339e-05
4.92811e-05
2.45351e-05
2.4447e-05
3.56825e-05
4.92795e-05
3.58229e-05
4.92766e-05
0.000211748
0.000211747
0.000211743
0.000208295
0.000208295
0.000208293
0.000208289
7.47002e-05
4.36467e-05
0.000197854
0.000175198
7.72771e-05
4.33676e-05
0.000196221
2.45323e-05
2.44469e-05
7.46739e-05
0.000197847
4.36724e-05
0.000175191
7.72305e-05
0.000196212
4.33661e-05
3.47235e-05
3.47121e-05
0.000145187
3.54493e-05
3.54331e-05
3.58285e-05
4.92439e-05
3.5646e-05
4.92415e-05
2.4297e-05
2.42277e-05
3.57703e-05
4.92393e-05
3.56603e-05
4.9238e-05
0.000207135
0.000207133
0.000207129
0.00020364
0.00020364
0.000203638
0.000203634
6.92738e-05
4.31723e-05
0.000191405
0.000167787
7.13004e-05
4.30794e-05
0.000189826
2.42916e-05
2.42297e-05
6.92268e-05
0.000191402
4.31304e-05
0.000167782
7.135e-05
0.00018982
4.3113e-05
3.70392e-05
3.70285e-05
0.000137283
3.78279e-05
3.78131e-05
3.66152e-05
4.92181e-05
3.62053e-05
4.92159e-05
2.41201e-05
2.40658e-05
3.65371e-05
4.92155e-05
3.62517e-05
4.92136e-05
0.000202474
0.000202472
0.000202469
0.000198981
0.000198981
0.000198978
0.000198975
6.49251e-05
4.33369e-05
0.00018517
0.000160828
6.65837e-05
4.34247e-05
0.000183649
2.41122e-05
2.40699e-05
6.49153e-05
0.000185171
4.32624e-05
0.000160823
6.65888e-05
0.000183646
4.35148e-05
3.95005e-05
3.95001e-05
0.000130152
4.03237e-05
4.03213e-05
3.80145e-05
4.92163e-05
3.74243e-05
4.92212e-05
2.39907e-05
2.39506e-05
3.79547e-05
4.92132e-05
3.74636e-05
4.92206e-05
0.000197821
0.000197818
0.000197816
0.000194356
0.000194356
0.000194353
0.000194351
6.15351e-05
4.40186e-05
0.000179192
0.000154266
6.2777e-05
4.42766e-05
0.000177742
2.39822e-05
2.39551e-05
6.15104e-05
0.000179194
4.39502e-05
0.000154261
6.27816e-05
0.00017774
4.43568e-05
4.20216e-05
4.20147e-05
0.000123589
4.2863e-05
4.28411e-05
3.99675e-05
4.92399e-05
3.92441e-05
4.92448e-05
2.38992e-05
2.3869e-05
3.994e-05
4.92275e-05
3.92599e-05
4.92511e-05
0.00019321
0.000193206
0.000193205
0.000189768
0.000189768
0.000189765
0.000189764
5.89424e-05
4.51564e-05
0.000173493
0.000148047
5.98787e-05
4.55378e-05
0.000172107
2.389e-05
2.3874e-05
5.89392e-05
0.000173495
4.50878e-05
0.000148041
5.98713e-05
0.000172106
4.56131e-05
4.44961e-05
4.45031e-05
0.000117455
4.53175e-05
4.53008e-05
4.24582e-05
4.9275e-05
4.15713e-05
4.92837e-05
2.38352e-05
2.38118e-05
4.2439e-05
4.92635e-05
4.15894e-05
4.92894e-05
0.000188621
0.000188617
0.000188616
0.000185215
0.000185215
0.00018521
0.000185209
5.71015e-05
4.66589e-05
0.000168042
0.000142134
5.77169e-05
4.71414e-05
0.000166715
2.38254e-05
2.38172e-05
5.70977e-05
0.000168044
4.65894e-05
0.000142127
5.77076e-05
0.000166712
4.72058e-05
4.68758e-05
4.68791e-05
0.000111592
4.76586e-05
4.7663e-05
4.53621e-05
4.93156e-05
4.43566e-05
4.9325e-05
2.379e-05
2.37713e-05
4.53482e-05
4.93046e-05
4.43736e-05
4.93301e-05
0.00018409
0.000184085
0.000184085
0.00018075
0.00018075
0.000180744
0.000180744
5.59873e-05
4.84584e-05
0.000162805
0.000136471
5.62708e-05
4.90389e-05
0.000161526
2.37798e-05
2.3777e-05
5.59032e-05
0.000162806
4.83888e-05
0.000136463
5.63098e-05
0.000161523
4.90859e-05
4.91162e-05
4.91172e-05
0.000106151
4.98439e-05
4.98442e-05
4.85914e-05
4.9355e-05
4.7512e-05
4.93641e-05
2.37572e-05
2.37422e-05
4.85989e-05
4.93449e-05
4.75041e-05
4.9368e-05
0.000179646
0.000179639
0.000179641
0.000176364
0.000176363
0.000176356
0.000176357
5.54214e-05
5.04428e-05
0.000157749
0.000131022
5.55295e-05
5.11681e-05
0.000156511
2.3747e-05
2.37463e-05
5.54102e-05
0.000157749
5.04442e-05
0.000131013
5.55594e-05
0.000156508
5.11435e-05
5.11803e-05
5.11939e-05
0.000101273
5.18457e-05
5.18298e-05
5.20293e-05
4.93913e-05
5.08853e-05
4.93992e-05
2.373e-05
2.37206e-05
5.20403e-05
4.93816e-05
5.08796e-05
4.94026e-05
0.000175278
0.00017527
0.000175272
0.000172043
0.000172043
0.000172035
0.000172037
5.55372e-05
5.26118e-05
0.000152844
0.000125791
5.54298e-05
5.33667e-05
0.000151642
2.3724e-05
2.37206e-05
5.55119e-05
0.000152845
5.26153e-05
0.000125779
5.54576e-05
0.000151639
5.33494e-05
5.30589e-05
5.30758e-05
9.68887e-05
5.36648e-05
5.3646e-05
5.55509e-05
4.94238e-05
5.43206e-05
4.94312e-05
2.37078e-05
2.37016e-05
5.55972e-05
4.94147e-05
5.42821e-05
4.94345e-05
0.000170973
0.000170964
0.000170968
0.000167776
0.000167775
0.000167767
0.00016777
5.62915e-05
5.48971e-05
0.000148087
0.000120794
5.59523e-05
5.5593e-05
0.00014692
2.37048e-05
2.37003e-05
5.62404e-05
0.00014809
5.48842e-05
0.000120782
5.5989e-05
0.000146918
5.56231e-05
5.47603e-05
5.47617e-05
9.30573e-05
5.53072e-05
5.53089e-05
5.89672e-05
4.94541e-05
5.77158e-05
4.94605e-05
2.36892e-05
2.36847e-05
5.89947e-05
4.94455e-05
5.7699e-05
4.94637e-05
0.000166719
0.00016671
0.000166714
0.000163558
0.000163558
0.000163551
0.000163553
5.75748e-05
5.71801e-05
0.000143446
0.00011605
5.70635e-05
5.7874e-05
0.000142304
2.3687e-05
2.36826e-05
5.75381e-05
0.000143448
5.71562e-05
0.000116037
5.70945e-05
0.000142302
5.78993e-05
5.6309e-05
5.63082e-05
8.9753e-05
5.67727e-05
5.67729e-05
6.21779e-05
4.94826e-05
6.09651e-05
4.94887e-05
2.36728e-05
2.36683e-05
6.22086e-05
4.94741e-05
6.09485e-05
4.94915e-05
0.000162516
0.000162506
0.000162511
0.000159376
0.000159376
0.000159369
0.000159371
5.93812e-05
5.94324e-05
0.000138903
0.00011162
5.87123e-05
6.01216e-05
0.000137788
2.36706e-05
2.36665e-05
5.93844e-05
0.000138905
5.93787e-05
0.000111607
5.87193e-05
0.000137788
6.01711e-05
5.76953e-05
5.76927e-05
8.69733e-05
5.81123e-05
5.81133e-05
6.50788e-05
4.95089e-05
6.3989e-05
4.95142e-05
2.36573e-05
2.36535e-05
6.51143e-05
4.95012e-05
6.39719e-05
4.95175e-05
0.000158339
0.000158328
0.000158334
0.000155213
0.000155214
0.000155206
0.000155209
6.16248e-05
6.16266e-05
0.000134462
0.00010755
6.08124e-05
6.22869e-05
0.00013338
2.36553e-05
2.36515e-05
6.1629e-05
0.000134465
6.15719e-05
0.000107539
6.08112e-05
0.00013338
6.23304e-05
5.89471e-05
5.89439e-05
8.48461e-05
5.93262e-05
5.93254e-05
6.76907e-05
4.95336e-05
6.67013e-05
4.95375e-05
2.36432e-05
2.36398e-05
4.95266e-05
6.66957e-05
4.95423e-05
0.000154181
0.000154169
0.000154176
6.41771e-05
6.37305e-05
0.000130141
0.00010392
6.32853e-05
6.44303e-05
0.000129098
2.36409e-05
6.41287e-05
0.000130142
6.36878e-05
6.32768e-05
0.0001291
6.00823e-05
6.0081e-05
8.34204e-05
6.04265e-05
6.04258e-05
0.000234872
0.000233511
0.000233582
2.30668e-05
0.000214623
2.30772e-05
0.000214398
0.000234426
5.09976e-05
5.11075e-05
0.000230064
0.000229087
0.00023513
0.0002348
0.000235308
0.000234726
0.000235127
0.0002348
0.000235399
0.000234726
0.000234325
4.03987e-05
0.000213534
0.000147143
0.000234342
4.04099e-05
0.000213006
0.000147021
0.000233824
0.000234471
9.94862e-05
0.00023427
0.00023253
0.000234597
0.00022829
0.000233835
0.00023447
9.94099e-05
0.000234271
0.000232368
0.000234597
0.000228345
0.000234872
0.000233619
0.00023357
2.30709e-05
0.000214263
0.000234425
5.09852e-05
5.11018e-05
0.000229384
0.000229993
2.30592e-05
0.000214497
0.000235128
0.0002348
0.000234909
0.000234726
0.00023513
0.0002348
0.000234726
0.000235388
0.000234322
4.03309e-05
0.000218403
0.000146994
0.000233835
0.00023447
9.81126e-05
0.000234271
0.000233267
0.000234597
0.000228349
0.000234346
4.03997e-05
0.000213051
0.000146882
0.000233827
0.00023447
0.00023427
9.94372e-05
0.000234597
0.000232386
0.000228255
0.00023473
0.000234747
0.000234729
0.000234729
0.00023473
0.000234746
0.000234729
0.000234729
0.00023473
0.000234746
0.000234729
0.000234729
0.000234591
0.000234573
0.000234253
0.000234253
0.000234592
0.000234592
0.000234252
0.000234591
0.000234573
0.000234253
0.000234253
0.000234592
0.000234592
0.000234252
0.000234591
0.000234573
0.000234253
0.000234253
0.000234592
0.000234592
0.000234252
0.000234591
0.000234574
0.000234253
0.000234253
0.000234592
0.000234592
0.000234252
0.00023513
0.000234798
0.000234726
0.000235042
0.000233823
0.000234467
9.96246e-05
0.000234272
0.000233214
0.000234597
0.000228331
0.000234322
4.04082e-05
0.000213559
0.000147105
0.000233826
0.000234473
0.000234271
9.99215e-05
0.000234597
0.000233172
0.000228327
0.000234346
4.04041e-05
0.000213561
0.000147167
0.00023487
0.00023344
0.000233531
2.30628e-05
0.000213987
0.000234427
5.10172e-05
5.09499e-05
0.000228875
0.000229
2.30752e-05
0.000214107
0.00023513
0.000234798
0.000234726
0.000235033
0.00023383
0.000234471
0.000234271
9.82747e-05
0.000234597
0.000233265
0.000228289
0.00023383
0.000234473
0.000234271
9.98486e-05
0.000234597
0.000233198
0.000228344
0.000234329
4.03256e-05
0.00021841
0.00014699
0.000234343
4.04063e-05
0.000213599
0.000146854
0.000234427
5.09298e-05
5.08366e-05
0.000229192
0.000230108
2.30575e-05
0.000214328
2.30625e-05
0.00021424
2.19725e-05
2.28675e-05
2.19457e-05
2.28655e-05
4.77746e-05
4.7756e-05
0.000231277
4.37258e-05
4.36849e-05
2.4502e-05
2.3318e-05
2.45002e-05
2.33171e-05
0.000229572
3.99213e-05
3.99092e-05
4.28532e-05
4.28349e-05
0.000104615
3.882e-05
0.000128306
3.97905e-05
0.000206069
9.27772e-05
0.000233967
0.000231956
0.000222346
8.64993e-05
0.000233606
0.000206013
9.27207e-05
0.000233967
0.000231953
0.000222336
8.64521e-05
0.000233606
9.8307e-05
4.19369e-05
4.03247e-05
8.55114e-05
9.82196e-05
4.19327e-05
4.03135e-05
8.54463e-05
0.000199907
0.0002307
8.01932e-05
0.000232669
8.496e-05
0.000233181
0.00018542
0.000199834
0.000230694
8.01689e-05
0.000232664
8.4905e-05
0.000233178
0.000185332
4.77162e-05
4.77605e-05
0.000231273
4.37029e-05
4.3703e-05
2.19774e-05
2.28703e-05
2.44996e-05
2.33317e-05
0.000229567
3.99447e-05
3.98817e-05
4.28433e-05
4.28493e-05
2.4501e-05
2.33192e-05
0.000206072
9.30852e-05
0.000233967
0.000231958
0.000222389
8.64977e-05
0.000233607
0.000104662
3.88126e-05
0.000128284
3.97882e-05
0.000206059
0.000233967
9.27244e-05
0.00023196
0.000222311
0.000233606
8.65045e-05
9.82954e-05
4.19323e-05
4.03253e-05
8.55024e-05
0.00019992
0.000230701
8.02121e-05
0.000232669
8.49744e-05
0.000233181
0.000185433
9.82873e-05
4.19293e-05
4.03103e-05
8.54948e-05
0.000199899
0.000230702
0.000232669
8.0174e-05
0.00023318
8.49536e-05
0.000185411
0.000104613
3.88314e-05
0.000128435
3.97678e-05
0.000206072
0.000233968
9.2576e-05
0.000231955
0.000222379
0.000233607
8.63214e-05
0.000104697
3.8824e-05
0.000128474
3.97926e-05
0.000199793
0.000230652
8.01768e-05
0.000232652
8.48611e-05
0.000233167
0.000185309
9.82685e-05
4.19157e-05
4.02895e-05
8.54852e-05
0.00019991
0.000230698
0.000232669
8.01415e-05
0.000233181
8.47935e-05
0.000185407
9.8328e-05
4.19324e-05
4.03144e-05
8.55089e-05
4.76439e-05
4.75214e-05
0.000231296
4.36529e-05
4.36082e-05
2.1951e-05
2.28677e-05
2.44979e-05
2.33289e-05
0.000229598
3.99027e-05
3.98949e-05
4.28427e-05
4.27931e-05
2.45012e-05
2.33186e-05
0.000206045
0.000233967
9.25395e-05
0.000231951
0.000222327
0.000233606
8.63086e-05
0.000104605
3.88393e-05
0.000128334
3.97894e-05
0.000104625
3.88212e-05
0.000128305
3.97931e-05
0.000199872
0.000230714
0.000232669
8.03091e-05
0.000233179
8.51542e-05
0.00018543
0.000199885
0.000230696
0.000232669
8.01383e-05
0.00023318
8.47791e-05
0.000185412
9.82859e-05
4.19327e-05
4.03148e-05
8.55109e-05
9.8287e-05
4.19315e-05
4.03124e-05
8.54993e-05
2.1981e-05
2.28717e-05
2.19743e-05
2.28662e-05
0.000229574
3.99386e-05
3.99552e-05
4.28031e-05
4.28533e-05
2.45023e-05
2.33212e-05
2.44988e-05
2.33162e-05
2.4791e-05
2.54766e-05
2.4789e-05
2.54745e-05
3.91036e-05
3.90885e-05
0.000219425
3.64857e-05
3.64854e-05
2.59596e-05
2.56268e-05
2.59581e-05
2.56248e-05
0.00021659
3.3836e-05
3.38437e-05
3.57482e-05
3.57341e-05
7.25878e-05
4.2401e-05
8.1297e-05
4.37481e-05
0.000167333
7.88805e-05
0.000232061
0.000225984
0.000180026
7.39352e-05
0.00023135
0.000167263
7.8838e-05
0.000232054
0.000225978
0.000179943
7.39908e-05
0.000231342
6.97069e-05
4.52335e-05
4.41344e-05
6.33043e-05
6.96728e-05
4.52308e-05
4.41304e-05
6.32893e-05
0.000162793
0.000224143
6.81804e-05
0.000229614
7.27076e-05
0.000230534
0.000151802
0.000162737
0.000224135
6.82255e-05
0.000229605
7.26335e-05
0.000230525
0.000151764
3.91241e-05
3.9083e-05
0.00021941
3.654e-05
3.64569e-05
2.47901e-05
2.54761e-05
2.59587e-05
2.56251e-05
0.000216573
3.38742e-05
3.38298e-05
3.57707e-05
3.57356e-05
2.59602e-05
2.5626e-05
0.000167339
7.88817e-05
0.000232062
0.000225993
0.000180036
7.40345e-05
0.000231352
7.25977e-05
4.23976e-05
8.13359e-05
4.37447e-05
0.000167303
0.000232061
7.88729e-05
0.000225989
0.000180018
0.000231349
7.39322e-05
6.96964e-05
4.52318e-05
4.41308e-05
6.32999e-05
0.000162802
0.000224156
6.82675e-05
0.000229618
7.26755e-05
0.000230538
0.000151782
6.9676e-05
4.52287e-05
4.41271e-05
6.32737e-05
0.000162763
0.000224149
0.000229611
6.8177e-05
0.000230532
7.27017e-05
0.000151749
7.26077e-05
4.23873e-05
8.13346e-05
4.37423e-05
0.000167292
0.000232059
7.88082e-05
0.000225983
0.000180009
0.000231348
7.39708e-05
7.26067e-05
4.24016e-05
8.13505e-05
4.37476e-05
0.000162745
0.000224127
6.82255e-05
0.00022961
7.27393e-05
0.000230525
0.000151799
6.96938e-05
4.52304e-05
4.41234e-05
6.32942e-05
0.000162757
0.000224142
0.000229609
6.82217e-05
0.00023053
7.26159e-05
0.000151735
6.96829e-05
4.52316e-05
4.41298e-05
6.32721e-05
3.90997e-05
3.90803e-05
0.000219445
3.6506e-05
3.65045e-05
2.47908e-05
2.54755e-05
2.59567e-05
2.56226e-05
0.00021661
3.38503e-05
3.3853e-05
3.57503e-05
3.57455e-05
2.59591e-05
2.56261e-05
0.00016731
0.000232061
7.88021e-05
0.000225983
0.000180022
0.000231349
7.39633e-05
7.26244e-05
4.24018e-05
8.13527e-05
4.37493e-05
7.26149e-05
4.24001e-05
8.13449e-05
4.37477e-05
0.000162793
0.00022417
0.000229619
6.83103e-05
0.000230539
7.27347e-05
0.000151812
0.000162778
0.000224144
0.000229611
6.82174e-05
0.000230532
7.26103e-05
0.000151756
6.97051e-05
4.52335e-05
4.41316e-05
6.33004e-05
6.96894e-05
4.52317e-05
4.41299e-05
6.32847e-05
2.47915e-05
2.54755e-05
2.47887e-05
2.54739e-05
0.000216595
3.38574e-05
3.38741e-05
3.57546e-05
3.57653e-05
2.59591e-05
2.56261e-05
2.5958e-05
2.56246e-05
2.60164e-05
2.6119e-05
2.60147e-05
2.61174e-05
3.32752e-05
3.32559e-05
0.000204455
3.20295e-05
3.19959e-05
2.60885e-05
2.61187e-05
2.60868e-05
2.6117e-05
0.000201187
3.09474e-05
3.09032e-05
3.16429e-05
3.16104e-05
5.63611e-05
4.55336e-05
6.12222e-05
4.64115e-05
0.000138546
6.70311e-05
0.000228595
0.000218073
0.000148034
6.31033e-05
0.000227482
0.000138526
6.69587e-05
0.000228586
0.00021806
0.000148001
6.3144e-05
0.000227472
5.48753e-05
4.73261e-05
4.6646e-05
5.11121e-05
5.4855e-05
4.7324e-05
4.66425e-05
5.11003e-05
0.000135423
0.000215921
5.88583e-05
0.000225002
6.20869e-05
0.000226282
0.000127199
0.000135406
0.000215906
5.88216e-05
0.000224992
6.20163e-05
0.000226272
0.000127189
3.32905e-05
3.32786e-05
0.00020444
3.20425e-05
3.20294e-05
2.60167e-05
2.61196e-05
2.60875e-05
2.61178e-05
0.000201169
3.09508e-05
3.09529e-05
3.16513e-05
3.16505e-05
2.60892e-05
2.61193e-05
0.000138505
6.69954e-05
0.000228599
0.000218094
0.000148026
6.31782e-05
0.000227484
5.63199e-05
4.55314e-05
6.12017e-05
4.64092e-05
0.00013848
0.000228589
6.70218e-05
0.000218076
0.000147983
0.000227474
6.30868e-05
5.48423e-05
4.73241e-05
4.66433e-05
5.10525e-05
0.000135398
0.000215942
5.88343e-05
0.000225
6.20232e-05
0.000226283
0.000127162
5.48419e-05
4.73213e-05
4.66404e-05
5.10599e-05
0.00013537
0.000215921
0.000224989
5.88371e-05
0.000226271
6.20687e-05
0.000127148
5.63562e-05
4.55338e-05
6.12236e-05
4.64144e-05
0.00013849
0.000228587
6.69576e-05
0.00021807
0.000147986
0.000227472
6.31509e-05
5.63316e-05
4.55344e-05
6.12053e-05
4.64128e-05
0.000135382
0.000215935
5.88014e-05
0.000225003
6.21154e-05
0.000226283
0.000127237
5.48564e-05
4.73272e-05
4.66454e-05
5.10664e-05
0.000135371
0.000215917
0.000224989
5.8824e-05
0.00022627
6.2016e-05
0.000127158
5.48324e-05
4.73246e-05
4.66435e-05
5.10793e-05
3.32719e-05
3.32745e-05
0.000204455
3.20259e-05
3.20286e-05
2.60159e-05
2.61182e-05
2.60857e-05
2.6116e-05
0.000201185
3.09407e-05
3.0939e-05
3.16352e-05
3.16433e-05
2.60753e-05
2.61181e-05
0.000138491
0.00022859
6.69514e-05
0.000218072
0.000147999
0.000227474
6.31443e-05
5.63335e-05
4.55357e-05
6.123e-05
4.64136e-05
5.63249e-05
4.55343e-05
6.1216e-05
4.64121e-05
0.000135373
0.000215951
0.000225002
5.88156e-05
0.000226285
6.20645e-05
0.000127173
0.000135384
0.000215919
0.00022499
5.88266e-05
0.000226272
6.20074e-05
0.000127153
5.48656e-05
4.73248e-05
4.66445e-05
5.1053e-05
5.48556e-05
4.73237e-05
4.66428e-05
5.10493e-05
2.60158e-05
2.61182e-05
2.60148e-05
2.61172e-05
0.000201177
3.09433e-05
3.09464e-05
3.16484e-05
3.16483e-05
2.60873e-05
2.61178e-05
2.60865e-05
2.61169e-05
2.60421e-05
2.59403e-05
2.60404e-05
2.59377e-05
3.06949e-05
3.06494e-05
0.000189645
3.03841e-05
3.03241e-05
2.57409e-05
2.58798e-05
2.57374e-05
2.58773e-05
0.000186447
3.02648e-05
3.01923e-05
3.02878e-05
3.02405e-05
4.70333e-05
4.74927e-05
4.99758e-05
4.80067e-05
0.000117533
5.78888e-05
0.00022365
0.000209252
0.000124637
5.52328e-05
0.000222235
0.000117528
5.786e-05
0.00022364
0.000209234
0.000124628
5.52239e-05
0.000222225
4.62088e-05
4.85005e-05
4.81266e-05
4.39276e-05
4.6227e-05
4.84994e-05
4.8124e-05
4.38857e-05
0.000115413
0.000206997
5.22696e-05
0.000219246
5.4442e-05
0.000220764
0.000109274
0.00011541
0.000206979
5.22692e-05
0.000219236
5.44164e-05
0.000220754
0.000109264
3.07039e-05
3.07015e-05
0.000189646
3.03797e-05
3.04127e-05
2.60424e-05
2.5941e-05
2.5739e-05
2.58782e-05
0.000186437
3.02411e-05
3.02827e-05
3.02955e-05
3.02855e-05
2.5741e-05
2.58793e-05
0.000117512
5.78514e-05
0.000223647
0.00020927
0.000124609
5.52253e-05
0.000222229
4.70169e-05
4.74897e-05
4.99737e-05
4.80032e-05
0.000117503
0.000223636
5.78715e-05
0.000209243
0.000124593
0.000222219
5.52135e-05
4.62329e-05
4.84985e-05
4.81237e-05
4.38753e-05
0.000115395
0.000207013
5.22665e-05
0.000219238
5.43902e-05
0.000220759
0.000109254
4.62217e-05
4.84954e-05
4.81205e-05
4.38734e-05
0.000115387
0.000206985
0.00021923
5.22544e-05
0.000220748
5.44193e-05
0.000109253
4.70162e-05
4.7496e-05
5e-05
4.80096e-05
0.000117502
0.000223637
5.78591e-05
0.000209246
0.000124597
0.000222222
5.52239e-05
4.70191e-05
4.74932e-05
4.99542e-05
4.80068e-05
0.000115399
0.000207017
5.22227e-05
0.000219247
5.45011e-05
0.000220765
0.000109261
4.62349e-05
4.85019e-05
4.81273e-05
4.3874e-05
0.000115386
0.00020699
0.000219233
5.22631e-05
0.000220751
5.4407e-05
0.000109239
4.62091e-05
4.84992e-05
4.81241e-05
4.38753e-05
3.06883e-05
3.07028e-05
0.000189663
3.03734e-05
3.03769e-05
2.60493e-05
2.59394e-05
2.57375e-05
2.58753e-05
0.000186408
3.02647e-05
3.02414e-05
3.02825e-05
3.03014e-05
2.5739e-05
2.58796e-05
0.000117498
0.000223637
5.78465e-05
0.000209249
0.000124597
0.00022222
5.522e-05
4.70357e-05
4.74939e-05
4.99855e-05
4.80067e-05
4.70359e-05
4.74922e-05
4.99817e-05
4.80058e-05
0.000115382
0.000207017
0.000219238
5.22321e-05
0.00022076
5.44727e-05
0.000109235
0.000115375
0.000206994
0.000219229
5.22514e-05
0.000220749
5.43967e-05
0.000109235
4.62e-05
4.84986e-05
4.81244e-05
4.38912e-05
4.61956e-05
4.84979e-05
4.8123e-05
4.38972e-05
2.6041e-05
2.59386e-05
2.60402e-05
2.59376e-05
0.000186416
3.02356e-05
3.02304e-05
3.03023e-05
3.02993e-05
2.57388e-05
2.58786e-05
2.57379e-05
2.58777e-05
2.5673e-05
2.55219e-05
2.56694e-05
2.55181e-05
3.02716e-05
3.02434e-05
0.000176269
3.0463e-05
3.04092e-05
2.53035e-05
2.54524e-05
2.53e-05
2.54486e-05
0.000173268
3.09263e-05
3.08798e-05
3.05658e-05
3.05557e-05
4.14568e-05
4.85767e-05
4.33046e-05
4.88408e-05
0.000102101
5.1625e-05
0.000217686
0.000200239
0.000107423
4.98729e-05
0.000216094
0.000102092
5.15934e-05
0.000217677
0.000200222
0.000107447
4.98782e-05
0.000216085
4.10033e-05
4.90632e-05
4.88881e-05
3.96371e-05
4.10284e-05
4.90631e-05
4.88874e-05
3.96068e-05
0.000100559
0.000198011
4.79725e-05
0.000212834
4.93438e-05
0.000214475
9.59023e-05
0.000100566
0.000197994
4.796e-05