/*--------------------------------*- C++ -*----------------------------------*\
| =========                 |                                                 |
| \\      /  F ield         | OpenFOAM: The Open Source CFD Toolbox           |
|  \\    /   O peration     | Version:  v1906                                 |
|   \\  /    A nd           | Web:      www.OpenFOAM.com                      |
|    \\/     M anipulation  |                                                 |
\*---------------------------------------------------------------------------*/
FoamFile
{
    version     2.0;
    format      ascii;
    class       volScalarField;
    location    "850";
    object      p;
}
// * * * * * * * * * * * * * * * * * * * * * * * * * * * * * * * * * * * * * //

dimensions      [0 2 -2 0 0 0 0];


internalField   nonuniform List<scalar> 
42616
(
0.00358589
0.00358571
0.00358572
0.0035885
0.00353236
0.00353249
0.0035325
0.0035347
0.00348109
0.00348112
0.00348112
0.00348343
0.00342919
0.00342915
0.00342915
0.00343143
0.00337811
0.00337806
0.00337806
0.00338029
0.0033284
0.00332836
0.00332836
0.00333055
0.00328013
0.00328009
0.00328009
0.00328225
0.00323314
0.00323312
0.00323312
0.00323525
0.00318725
0.00318724
0.00318724
0.00318933
0.00314225
0.00314225
0.00314225
0.00314432
0.00309797
0.00309798
0.00309798
0.00310003
0.0030543
0.00305431
0.00305431
0.00305633
0.00301113
0.00301114
0.00301114
0.00301314
0.00296843
0.00296844
0.00296844
0.00297041
0.00292615
0.00292616
0.00292616
0.00292813
0.00288428
0.00288429
0.00288429
0.00288624
0.0028428
0.0028428
0.0028428
0.00284473
0.00280166
0.00280167
0.00280167
0.00280358
0.00276086
0.00276087
0.00276087
0.00276277
0.00272037
0.00272038
0.00272038
0.00272227
0.00268017
0.00268017
0.00268017
0.00268205
0.00359927
0.00359947
0.00359947
0.00359928
0.00359947
0.00359947
0.0036002
0.00360021
0.00360021
0.00360021
0.00359948
0.00359947
0.00359927
0.00359947
0.00359947
0.00359927
0.0035885
0.00354237
0.00358571
0.00358571
0.00354487
0.00354487
0.0035885
0.00354238
0.00358571
0.00358571
0.00354487
0.00354487
0.00358571
0.00354486
0.00354487
0.0035885
0.00354238
0.00358571
0.00354487
0.00354487
0.00354238
0.0035347
0.00349146
0.0035325
0.0035325
0.00349412
0.00349412
0.00353471
0.00349146
0.0035325
0.0035325
0.00349412
0.00349412
0.0035325
0.00349412
0.00349412
0.0035347
0.00349146
0.0035325
0.00349412
0.00349412
0.00349146
0.00348343
0.00343942
0.00348112
0.00348112
0.0034421
0.0034421
0.00348343
0.00343942
0.00348112
0.00348112
0.0034421
0.0034421
0.00348112
0.0034421
0.0034421
0.00348343
0.00343942
0.00348112
0.0034421
0.0034421
0.00343942
0.00343143
0.0033881
0.00342915
0.00342915
0.00339071
0.00339071
0.00343143
0.0033881
0.00342915
0.00342915
0.00339071
0.00339071
0.00342915
0.00339071
0.00339071
0.00343143
0.0033881
0.00342915
0.00339071
0.00339071
0.0033881
0.00338029
0.00333813
0.00337806
0.00337806
0.00334064
0.00334064
0.0033803
0.00333813
0.00337806
0.00337806
0.00334065
0.00334064
0.00337806
0.00334064
0.00334064
0.00338029
0.00333813
0.00337806
0.00334065
0.00334064
0.00333813
0.00333055
0.00328962
0.00332836
0.00332836
0.00329203
0.00329203
0.00333055
0.00328962
0.00332836
0.00332836
0.00329203
0.00329203
0.00332836
0.00329203
0.00329203
0.00333055
0.00328962
0.00332836
0.00329203
0.00329203
0.00328962
0.00328225
0.00324242
0.00328009
0.00328009
0.00324475
0.00324475
0.00328225
0.00324242
0.00328009
0.00328009
0.00324475
0.00324475
0.00328009
0.00324475
0.00324475
0.00328225
0.00324243
0.00328009
0.00324476
0.00324475
0.00324243
0.00323524
0.00319636
0.00323312
0.00323312
0.00319862
0.00319862
0.00323524
0.00319636
0.00323312
0.00323312
0.00319862
0.00319862
0.00323312
0.00319862
0.00319862
0.00323525
0.00319636
0.00323312
0.00319862
0.00319862
0.00319636
0.00318934
0.00315123
0.00318724
0.00318724
0.00315343
0.00315343
0.00318934
0.00315123
0.00318724
0.00318724
0.00315343
0.00315342
0.00318724
0.00315343
0.00315343
0.00318934
0.00315123
0.00318724
0.00315343
0.00315343
0.00315123
0.00314432
0.00310684
0.00314225
0.00314225
0.00310899
0.00310899
0.00314432
0.00310684
0.00314225
0.00314225
0.00310899
0.00310899
0.00314225
0.00310899
0.00310899
0.00314432
0.00310684
0.00314225
0.00310899
0.00310899
0.00310684
0.00310003
0.00306306
0.00309798
0.00309798
0.00306517
0.00306517
0.00310003
0.00306305
0.00309798
0.00309798
0.00306517
0.00306517
0.00309798
0.00306517
0.00306517
0.00310003
0.00306305
0.00309798
0.00306517
0.00306517
0.00306305
0.00305633
0.00301979
0.0030543
0.0030543
0.00302189
0.00302188
0.00305633
0.00301979
0.00305431
0.0030543
0.00302189
0.00302188
0.00305431
0.00302189
0.00302189
0.00305633
0.00301979
0.00305431
0.00302189
0.00302189
0.00301978
0.00301314
0.002977
0.00301114
0.00301114
0.00297907
0.00297907
0.00301314
0.002977
0.00301114
0.00301114
0.00297907
0.00297907
0.00301114
0.00297907
0.00297907
0.00301314
0.002977
0.00301114
0.00297907
0.00297907
0.002977
0.00297041
0.00293467
0.00296844
0.00296844
0.00293669
0.00293669
0.00297041
0.00293467
0.00296844
0.00296844
0.00293669
0.00293669
0.00296844
0.00293669
0.00293669
0.00297041
0.00293466
0.00296844
0.00293669
0.00293669
0.00293467
0.00292813
0.00289274
0.00292616
0.00292616
0.00289472
0.00289472
0.00292813
0.00289274
0.00292616
0.00292616
0.00289472
0.00289472
0.00292616
0.00289472
0.00289472
0.00292812
0.00289274
0.00292616
0.00289472
0.00289472
0.00289274
0.00288624
0.00285119
0.00288429
0.00288429
0.00285314
0.00285314
0.00288624
0.00285119
0.00288429
0.00288429
0.00285314
0.00285314
0.00288429
0.00285314
0.00285314
0.00288624
0.00285119
0.00288429
0.00285314
0.00285314
0.00285119
0.00284473
0.00281
0.0028428
0.0028428
0.00281192
0.00281192
0.00284473
0.00281
0.0028428
0.0028428
0.00281192
0.00281192
0.0028428
0.00281192
0.00281192
0.00284473
0.00281
0.0028428
0.00281192
0.00281192
0.00281
0.00280359
0.00276916
0.00280167
0.00280167
0.00277104
0.00277104
0.00280358
0.00276915
0.00280167
0.00280167
0.00277104
0.00277104
0.00280167
0.00277104
0.00277104
0.00280358
0.00276915
0.00280167
0.00277104
0.00277104
0.00276915
0.00276277
0.00272862
0.00276087
0.00276087
0.00273047
0.00273047
0.00276277
0.00272861
0.00276087
0.00276087
0.00273047
0.00273047
0.00276087
0.00273047
0.00273047
0.00276277
0.00272862
0.00276087
0.00273047
0.00273047
0.00272862
0.00272227
0.00268837
0.00272038
0.00272037
0.0026902
0.0026902
0.00272226
0.00268837
0.00272038
0.00272038
0.0026902
0.0026902
0.00272038
0.0026902
0.0026902
0.00272227
0.00268837
0.00272038
0.0026902
0.0026902
0.00268837
0.00268205
0.00268017
0.00268017
0.00268205
0.00268017
0.00268017
0.00268017
0.00268205
0.00268017
0.00360842
0.00361837
0.00361299
0.003613
0.00363551
0.00362237
0.00365083
0.0036163
0.00363547
0.00362237
0.00361629
0.00365078
0.00362686
0.00365485
0.00365484
0.0035674
0.00356745
0.00358578
0.00356569
0.0035455
0.00356466
0.00356739
0.00356747
0.00358573
0.00356568
0.00358589
0.0035859
0.0035859
0.00354475
0.00354475
0.00354475
0.00354475
0.00356606
0.00358283
0.00358597
0.00357021
0.00358812
0.003567
0.00357085
0.00354562
0.0035647
0.00356607
0.00358598
0.00358291
0.00357022
0.00358815
0.00357086
0.00356702
0.00357939
0.00357935
0.00356707
0.00356736
0.00356736
0.00351773
0.00353558
0.00353661
0.00351682
0.00353496
0.00351635
0.00351773
0.00353558
0.00353661
0.00351682
0.00353237
0.00353236
0.00353236
0.00349407
0.00349407
0.00349407
0.00349407
0.00351683
0.00353606
0.00353243
0.00351988
0.00353537
0.00351729
0.00351983
0.00353496
0.00351636
0.00351682
0.00353243
0.00353607
0.00351988
0.00353537
0.00351983
0.00351729
0.00353635
0.00353635
0.00351725
0.00351742
0.00351742
0.00346546
0.00348405
0.0034849
0.00346469
0.00348376
0.00346445
0.00346546
0.00348405
0.0034849
0.00346469
0.00348109
0.00348109
0.00348109
0.00344212
0.00344212
0.00344212
0.00344212
0.00346494
0.00348443
0.00348109
0.0034681
0.00348414
0.00346511
0.00346809
0.00348376
0.00346445
0.00346494
0.00348109
0.00348443
0.0034681
0.00348414
0.00346809
0.00346511
0.00348451
0.00348451
0.00346543
0.00346506
0.00346506
0.00341335
0.00343184
0.00343253
0.00341274
0.00343167
0.00341259
0.00341335
0.00343184
0.00343252
0.00341274
0.00342919
0.00342919
0.00342919
0.00339076
0.00339076
0.00339076
0.00339076
0.00341308
0.00343215
0.00342916
0.00341626
0.00343205
0.00341312
0.00341627
0.00343167
0.00341258
0.00341308
0.00342916
0.00343215
0.00341626
0.00343205
0.00341627
0.00341312
0.00343214
0.00343214
0.00341361
0.003413
0.003413
0.00336248
0.00338062
0.00338112
0.00336204
0.0033805
0.00336191
0.00336248
0.00338062
0.00338112
0.00336204
0.00337811
0.00337811
0.00337811
0.00334069
0.00334069
0.00334069
0.00334069
0.00336236
0.00338086
0.00337807
0.0033655
0.00338082
0.00336237
0.0033655
0.0033805
0.00336191
0.00336236
0.00337807
0.00338086
0.0033655
0.00338082
0.0033655
0.00336237
0.00338084
0.00338084
0.00336293
0.00336224
0.00336224
0.00331313
0.00333084
0.00333119
0.00331282
0.00333076
0.0033127
0.00331313
0.00333084
0.00333119
0.00331282
0.0033284
0.0033284
0.0033284
0.00329207
0.00329207
0.00329207
0.00329207
0.00331312
0.00333102
0.00332836
0.00331616
0.00333101
0.00331311
0.00331616
0.00333075
0.00331271
0.00331312
0.00332836
0.00333102
0.00331616
0.00333101
0.00331616
0.00331311
0.00333103
0.00333103
0.0033137
0.003313
0.003313
0.00326524
0.00328253
0.00328277
0.00326502
0.00328244
0.00326491
0.00326524
0.00328253
0.00328277
0.00326502
0.00328012
0.00328013
0.00328013
0.00324478
0.00324478
0.00324478
0.00324478
0.00326529
0.00328267
0.00328008
0.00326824
0.00328266
0.00326529
0.00326822
0.00328244
0.00326491
0.00326529
0.00328008
0.00328267
0.00326824
0.00328266
0.00326823
0.00326529
0.00328269
0.0032827
0.00326587
0.00326518
0.00326518
0.00321861
0.00323552
0.00323569
0.00321844
0.00323544
0.00321834
0.00321861
0.00323552
0.00323569
0.00321845
0.00323314
0.00323314
0.00323314
0.00319863
0.00319863
0.00319863
0.00319863
0.00321871
0.00323563
0.00323311
0.00322156
0.00323562
0.0032187
0.00322154
0.00323544
0.00321834
0.00321871
0.00323311
0.00323563
0.00322156
0.00323562
0.00322154
0.0032187
0.00323567
0.00323567
0.00321927
0.00321859
0.00321859
0.00317303
0.00318961
0.00318974
0.00317289
0.00318954
0.00317279
0.00317303
0.00318961
0.00318974
0.00317289
0.00318725
0.00318725
0.00318725
0.00315343
0.00315343
0.00315343
0.00315343
0.00317316
0.0031897
0.00318722
0.00317592
0.00318969
0.00317315
0.0031759
0.00318954
0.00317279
0.00317316
0.00318722
0.0031897
0.00317592
0.00318969
0.0031759
0.00317315
0.00318974
0.00318974
0.00317369
0.00317303
0.00317303
0.00312828
0.0031446
0.00314471
0.00312817
0.00314453
0.00312807
0.00312828
0.0031446
0.00314471
0.00312817
0.00314225
0.00314225
0.00314225
0.00310898
0.00310898
0.00310898
0.00310898
0.00312843
0.00314468
0.00314223
0.00313112
0.00314467
0.00312842
0.0031311
0.00314453
0.00312807
0.00312843
0.00314223
0.00314468
0.00313112
0.00314467
0.0031311
0.00312842
0.00314472
0.00314472
0.00312895
0.00312829
0.00312829
0.00308422
0.0031003
0.0031004
0.0030841
0.00310024
0.00308401
0.00308422
0.0031003
0.0031004
0.0030841
0.00309798
0.00309798
0.00309798
0.00306516
0.00306516
0.00306516
0.00306516
0.00308439
0.00310037
0.00309796
0.00308701
0.00310037
0.00308436
0.00308699
0.00310023
0.00308401
0.00308439
0.00309796
0.00310037
0.00308701
0.00310037
0.00308699
0.00308436
0.00310041
0.00310041
0.00308488
0.00308422
0.00308422
0.00304072
0.0030566
0.0030567
0.0030406
0.00305654
0.00304052
0.00304072
0.0030566
0.0030567
0.0030406
0.0030543
0.0030543
0.0030543
0.00302187
0.00302187
0.00302187
0.00302187
0.00304091
0.00305666
0.00305429
0.00304347
0.00305668
0.00304086
0.00304345
0.00305654
0.00304051
0.00304091
0.00305429
0.00305666
0.00304347
0.00305668
0.00304345
0.00304086
0.0030567
0.0030567
0.00304136
0.00304071
0.00304071
0.00299771
0.00301342
0.00301351
0.00299759
0.00301336
0.00299751
0.00299771
0.00301342
0.00301351
0.00299759
0.00301113
0.00301113
0.00301113
0.00297906
0.00297906
0.00297906
0.00297906
0.00299792
0.00301347
0.00301112
0.00300042
0.0030135
0.00299784
0.00300041
0.00301336
0.00299751
0.00299792
0.00301112
0.00301347
0.00300042
0.0030135
0.00300041
0.00299784
0.0030135
0.00301351
0.00299833
0.00299768
0.00299768
0.00295515
0.00297069
0.00297079
0.00295502
0.00297064
0.00295495
0.00295515
0.00297069
0.00297079
0.00295502
0.00296843
0.00296843
0.00296843
0.00293668
0.00293668
0.00293668
0.00293668
0.00295538
0.00297074
0.00296842
0.00295783
0.00297078
0.00295528
0.00295782
0.00297064
0.00295495
0.00295538
0.00296842
0.00297074
0.00295783
0.00297078
0.00295782
0.00295528
0.00297077
0.00297077
0.00295578
0.00295511
0.00295511
0.00291301
0.0029284
0.0029285
0.00291288
0.00292835
0.00291282
0.00291301
0.0029284
0.0029285
0.00291288
0.00292615
0.00292615
0.00292615
0.00289472
0.00289472
0.00289472
0.00289472
0.00291326
0.00292844
0.00292616
0.00291566
0.00292849
0.00291313
0.00291565
0.00292835
0.00291281
0.00291326
0.00292615
0.00292844
0.00291566
0.00292849
0.00291565
0.00291313
0.00292847
0.00292847
0.00291365
0.00291296
0.00291296
0.00287126
0.00288651
0.00288661
0.00287113
0.00288646
0.00287107
0.00287126
0.00288651
0.00288661
0.00287113
0.00288428
0.00288428
0.00288428
0.00285313
0.00285313
0.00285313
0.00285313
0.00287153
0.00288654
0.00288429
0.00287389
0.00288661
0.00287138
0.00287388
0.00288646
0.00287107
0.00287153
0.00288429
0.00288654
0.00287389
0.00288661
0.00287388
0.00287138
0.00288657
0.00288657
0.00287192
0.0028712
0.0028712
0.00282989
0.002845
0.00284511
0.00282976
0.00284497
0.00282971
0.00282989
0.002845
0.00284511
0.00282976
0.0028428
0.0028428
0.0028428
0.00281191
0.00281191
0.00281191
0.00281191
0.00283017
0.00284503
0.0028428
0.00283249
0.00284511
0.00283
0.00283249
0.00284497
0.00282971
0.00283017
0.0028428
0.00284503
0.00283249
0.00284511
0.00283249
0.00283
0.00284506
0.00284506
0.00283055
0.00282983
0.00282983
0.00278888
0.00280386
0.00280396
0.00278875
0.00280383
0.0027887
0.00278887
0.00280386
0.00280396
0.00278875
0.00280166
0.00280166
0.00280166
0.00277103
0.00277103
0.00277103
0.00277103
0.00278916
0.00280388
0.00280167
0.00279144
0.00280396
0.00278898
0.00279144
0.00280383
0.0027887
0.00278916
0.00280167
0.00280388
0.00279144
0.00280396
0.00279144
0.00278898
0.00280391
0.00280391
0.00278954
0.0027888
0.0027888
0.00274818
0.00276306
0.00276315
0.00274805
0.00276302
0.00274801
0.00274818
0.00276306
0.00276315
0.00274806
0.00276086
0.00276086
0.00276086
0.00273047
0.00273047
0.00273047
0.00273047
0.00274847
0.00276307
0.00276087
0.00275072
0.00276315
0.00274828
0.00275072
0.00276303
0.00274801
0.00274847
0.00276087
0.00276307
0.00275072
0.00276315
0.00275072
0.00274828
0.00276309
0.0027631
0.00274885
0.0027481
0.0027481
0.00270778
0.00272256
0.00272265
0.00270766
0.00272253
0.00270764
0.00270778
0.00272256
0.00272265
0.00270766
0.00272037
0.00272037
0.00272037
0.00269019
0.00269019
0.00269019
0.00269019
0.00270808
0.00272256
0.00272038
0.0027103
0.00272264
0.00270788
0.0027103
0.00272253
0.00270762
0.00270808
0.00272038
0.00272256
0.0027103
0.00272264
0.0027103
0.00270788
0.00272259
0.00272259
0.00270846
0.00270771
0.00270771
0.00266766
0.00268235
0.00268243
0.00266755
0.00268232
0.00266751
0.00268235
0.00268243
0.00266755
0.00268017
0.00268017
0.00268017
0.00266796
0.00268235
0.00268017
0.00267016
0.00268242
0.00266775
0.00267017
0.00268233
0.00266796
0.00268017
0.00268235
0.00268242
0.00267017
0.00268238
0.00268238
0.00266835
0.00266759
0.00266759
0.00362684
0.00365478
0.00365479
0.00360891
0.00365441
0.00360891
0.00365439
0.00362349
0.00360774
0.00360777
0.00364899
0.00364899
0.00363544
0.00362235
0.00365074
0.00361628
0.00363545
0.00362236
0.00365078
0.00361628
0.0036392
0.00360329
0.00365114
0.00360101
0.00363922
0.00360323
0.00365118
0.003601
0.00363084
0.00361951
0.0036029
0.00360154
0.00364529
0.00361438
0.0036011
0.00363085
0.00361952
0.00360287
0.00360154
0.00364533
0.00361439
0.00360109
0.00362685
0.00365483
0.00365487
0.00360885
0.00365439
0.0036235
0.00360775
0.00360776
0.00364899
0.00364906
0.00360889
0.00365449
0.00363548
0.00362235
0.00365072
0.00361629
0.00363549
0.00362237
0.00361629
0.00365082
0.00363928
0.00360328
0.00365112
0.00360098
0.00363089
0.00361951
0.00360291
0.00360154
0.0036453
0.00361439
0.00360108
0.00363928
0.00360323
0.00365124
0.00360097
0.00363089
0.00361952
0.00360154
0.00360285
0.0036144
0.00364537
0.00360108
0.00360842
0.00361838
0.00361299
0.003613
0.00360842
0.00361838
0.003613
0.003613
0.00360842
0.00361838
0.003613
0.003613
0.0036071
0.003616
0.00359859
0.00359859
0.00361134
0.00361134
0.00359696
0.0036071
0.00361601
0.00359859
0.00359859
0.00361134
0.00361135
0.00359696
0.0036071
0.00361601
0.00359859
0.00359859
0.00361134
0.00361134
0.00359696
0.00360711
0.00361601
0.00359859
0.00359859
0.00361135
0.00361134
0.00359696
0.0036355
0.00362237
0.0036163
0.00365078
0.0036309
0.00361952
0.00360284
0.00360154
0.00364538
0.0036144
0.00360108
0.0036393
0.00360324
0.00365125
0.00360097
0.0036309
0.00361953
0.00360154
0.00360285
0.0036144
0.00364535
0.00360108
0.00363929
0.00360323
0.00365121
0.00360097
0.00362686
0.00365488
0.00365485
0.00360885
0.0036545
0.0036235
0.00360777
0.00360779
0.00364908
0.00364906
0.00360891
0.00365446
0.00363547
0.00362237
0.00361629
0.00365079
0.00363086
0.00361952
0.00360154
0.00360292
0.00361439
0.00364534
0.0036011
0.00363087
0.00361953
0.00360154
0.00360288
0.00361439
0.00364534
0.0036011
0.00363924
0.00360332
0.00365117
0.003601
0.00363924
0.00360324
0.0036512
0.003601
0.00362351
0.00360777
0.00360778
0.00364906
0.00364904
0.00360886
0.00365448
0.0036089
0.00365447
0.0035455
0.00356462
0.00354562
0.00356462
0.00357931
0.00357935
0.00356708
0.00356737
0.00356737
0.00354136
0.00355787
0.00354136
0.00355793
0.0035595
0.00354287
0.00354287
0.00356053
0.00356054
0.00356739
0.00356742
0.00358577
0.0035657
0.00356608
0.00358289
0.00358597
0.00357021
0.00358815
0.00356701
0.00357086
0.00356607
0.00358288
0.00358597
0.00357021
0.00358814
0.00356702
0.00357086
0.00356102
0.00354204
0.00355901
0.00354308
0.00356101
0.00354204
0.00355901
0.00354307
0.00355967
0.00355721
0.00354261
0.00354485
0.00356031
0.0035574
0.00354188
0.00355966
0.00355721
0.00354261
0.00354485
0.00356031
0.0035574
0.00354188
0.00357932
0.00357933
0.0035671
0.00356736
0.00356738
0.0035456
0.00356467
0.00354135
0.00355789
0.0035595
0.00354287
0.00354288
0.00356052
0.00356053
0.00354139
0.00355792
0.00356606
0.00358289
0.00358597
0.00357021
0.00358812
0.00356701
0.00357086
0.00356739
0.00356742
0.00358573
0.00356572
0.00356607
0.00358597
0.00358288
0.00357021
0.00358812
0.00357086
0.00356702
0.00356101
0.00354204
0.00355904
0.00354308
0.00355966
0.00355721
0.0035426
0.00354485
0.00356032
0.00355739
0.00354188
0.003561
0.00354204
0.00355903
0.00354308
0.00355966
0.00355721
0.00354485
0.00354261
0.0035574
0.00356031
0.00354188
0.00356739
0.0035674
0.00358573
0.00356573
0.00356606
0.00358597
0.00358289
0.00357021
0.00358812
0.00357086
0.00356701
0.00356739
0.00356744
0.00358573
0.0035657
0.00355965
0.0035572
0.0035426
0.00354484
0.00356029
0.00355739
0.00354188
0.00356101
0.00354206
0.00355902
0.00354309
0.00355966
0.00355721
0.00354485
0.00354261
0.00355739
0.00356031
0.00354189
0.00356101
0.00354206
0.003559
0.00354309
0.00357938
0.00357939
0.00356707
0.00356737
0.00356737
0.00354568
0.00356462
0.00354136
0.00355792
0.00355951
0.00354287
0.00354287
0.00356054
0.00356053
0.00354135
0.00355788
0.00356607
0.00358598
0.00358289
0.00357022
0.00358814
0.00357086
0.00356702
0.0035674
0.00356752
0.00358577
0.00356569
0.0035674
0.00356742
0.00358575
0.0035657
0.00355966
0.00355721
0.00354485
0.0035426
0.0035574
0.00356032
0.00354188
0.00355966
0.00355721
0.00354485
0.0035426
0.0035574
0.00356031
0.00354188
0.00356101
0.00354204
0.00355903
0.00354307
0.003561
0.00354203
0.00355901
0.00354307
0.00354565
0.00356462
0.00354563
0.00356463
0.0035595
0.00354287
0.00354286
0.00356053
0.00356053
0.00354137
0.00355787
0.00354134
0.00355789
0.00353496
0.00351635
0.00353495
0.00351636
0.00353635
0.00353635
0.00351725
0.00351742
0.00351742
0.00349053
0.00350969
0.00349053
0.00350969
0.00350933
0.00349132
0.00349132
0.00351069
0.00351069
0.00351773
0.00353559
0.0035366
0.00351682
0.00351682
0.00353607
0.00353243
0.00351988
0.00353537
0.00351729
0.00351982
0.00351682
0.00353607
0.00353243
0.00351988
0.00353537
0.00351729
0.00351982
0.00351102
0.00349085
0.00351011
0.0034917
0.00351102
0.00349086
0.00351011
0.0034917
0.00351006
0.00350706
0.0034913
0.00349408
0.00351052
0.00350701
0.00349101
0.00351006
0.00350706
0.0034913
0.00349408
0.00351052
0.00350701
0.00349101
0.00353635
0.00353637
0.00351725
0.00351742
0.00351742
0.00353499
0.00351636
0.00349053
0.00350969
0.00350933
0.00349132
0.00349132
0.00351069
0.00351069
0.00349053
0.0035097
0.00351683
0.00353607
0.00353244
0.00351988
0.00353537
0.00351729
0.00351983
0.00351773
0.00353559
0.00353661
0.00351682
0.00351683
0.00353244
0.00353607
0.00351988
0.00353537
0.00351983
0.00351729
0.00351103
0.00349085
0.00351011
0.0034917
0.00351007
0.00350706
0.0034913
0.00349408
0.00351053
0.00350701
0.00349101
0.00351103
0.00349085
0.00351012
0.0034917
0.00351006
0.00350706
0.00349408
0.0034913
0.00350701
0.00351052
0.00349101
0.00351774
0.0035356
0.00353662
0.00351682
0.00351683
0.00353244
0.00353607
0.00351988
0.00353537
0.00351983
0.00351729
0.00351773
0.00353558
0.00353662
0.00351682
0.00351007
0.00350706
0.0034913
0.00349408
0.00351052
0.00350701
0.00349101
0.00351103
0.00349085
0.00351011
0.0034917
0.00351006
0.00350706
0.00349408
0.0034913
0.00350701
0.00351052
0.00349101
0.00351103
0.00349085
0.00351012
0.0034917
0.00353635
0.00353635
0.00351725
0.00351742
0.00351742
0.00353496
0.00351636
0.00349053
0.00350969
0.00350933
0.00349132
0.00349132
0.00351069
0.00351069
0.00349053
0.00350969
0.00351683
0.00353243
0.00353607
0.00351988
0.00353537
0.00351983
0.00351729
0.00351773
0.00353559
0.00353661
0.00351682
0.00351773
0.00353558
0.00353661
0.00351682
0.00351006
0.00350706
0.00349408
0.0034913
0.00350701
0.00351053
0.00349101
0.00351006
0.00350706
0.00349408
0.0034913
0.00350701
0.00351052
0.00349101
0.00351103
0.00349086
0.00351012
0.0034917
0.00351103
0.00349086
0.00351012
0.0034917
0.00353495
0.00351636
0.00353496
0.00351636
0.00350933
0.00349132
0.00349132
0.00351069
0.00351069
0.00349053
0.00350969
0.00349053
0.00350969
0.00348376
0.00346445
0.00348376
0.00346445
0.0034845
0.00348451
0.00346543
0.00346506
0.00346506
0.00343841
0.00345767
0.00343841
0.00345767
0.00345739
0.0034389
0.0034389
0.00345825
0.00345825
0.00346546
0.00348406
0.0034849
0.00346469
0.00346494
0.00348443
0.00348109
0.0034681
0.00348414
0.00346511
0.00346809
0.00346494
0.00348443
0.00348109
0.00346811
0.00348414
0.00346511
0.00346809
0.00345865
0.0034386
0.00345789
0.00343929
0.00345865
0.0034386
0.00345789
0.00343929
0.00345805
0.00345509
0.003439
0.0034421
0.00345823
0.00345508
0.00343891
0.00345805
0.00345509
0.003439
0.0034421
0.00345823
0.00345508
0.00343891
0.0034845
0.0034845
0.00346542
0.00346506
0.00346506
0.00348376
0.00346445
0.00343841
0.00345767
0.00345738
0.0034389
0.0034389
0.00345825
0.00345825
0.00343841
0.00345767
0.00346494
0.00348443
0.00348109
0.0034681
0.00348414
0.00346511
0.00346809
0.00346546
0.00348406
0.0034849
0.00346469
0.00346494
0.00348109
0.00348443
0.00346811
0.00348414
0.00346809
0.00346511
0.00345865
0.0034386
0.00345788
0.00343929
0.00345805
0.00345509
0.003439
0.0034421
0.00345823
0.00345508
0.00343891
0.00345865
0.0034386
0.00345788
0.00343929
0.00345805
0.00345509
0.0034421
0.003439
0.00345508
0.00345823
0.00343891
0.00346546
0.00348405
0.0034849
0.00346468
0.00346494
0.00348109
0.00348443
0.0034681
0.00348414
0.00346809
0.00346511
0.00346546
0.00348405
0.0034849
0.00346469
0.00345805
0.00345509
0.003439
0.0034421
0.00345822
0.00345508
0.00343891
0.00345865
0.0034386
0.00345788
0.00343929
0.00345805
0.00345509
0.0034421
0.003439
0.00345508
0.00345823
0.00343891
0.00345865
0.0034386
0.00345788
0.00343929
0.00348451
0.00348451
0.00346542
0.00346506
0.00346506
0.00348376
0.00346445
0.00343841
0.00345767
0.00345738
0.0034389
0.0034389
0.00345825
0.00345825
0.00343841
0.00345767
0.00346494
0.00348109
0.00348443
0.0034681
0.00348414
0.00346809
0.00346511
0.00346546
0.00348406
0.0034849
0.00346469
0.00346546
0.00348406
0.0034849
0.00346469
0.00345805
0.00345509
0.0034421
0.003439
0.00345508
0.00345823
0.00343891
0.00345805
0.00345509
0.0034421
0.003439
0.00345508
0.00345823
0.00343891
0.00345865
0.0034386
0.00345788
0.00343929
0.00345865
0.0034386
0.00345788
0.00343929
0.00348376
0.00346445
0.00348376
0.00346445
0.00345739
0.0034389
0.0034389
0.00345825
0.00345825
0.00343841
0.00345767
0.00343841
0.00345767
0.00343167
0.00341259
0.00343167
0.00341259
0.00343214
0.00343214
0.00341361
0.003413
0.003413
0.00338707
0.00340593
0.00338707
0.00340593
0.0034057
0.00338744
0.00338744
0.00340632
0.00340632
0.00341335
0.00343184
0.00343253
0.00341274
0.00341308
0.00343215
0.00342916
0.00341626
0.00343205
0.00341312
0.00341627
0.00341308
0.00343215
0.00342916
0.00341626
0.00343205
0.00341312
0.00341627
0.00340666
0.00338721
0.00340606
0.00338773
0.00340666
0.00338721
0.00340606
0.00338773
0.00340628
0.00340345
0.00338756
0.00339072
0.00340634
0.00340346
0.00338755
0.00340628
0.00340345
0.00338756
0.00339072
0.00340634
0.00340346
0.00338755
0.00343214
0.00343214
0.00341361
0.003413
0.003413
0.00343167
0.00341259
0.00338707
0.00340593
0.0034057
0.00338744
0.00338744
0.00340632
0.00340632
0.00338707
0.00340592
0.00341308
0.00343215
0.00342916
0.00341626
0.00343205
0.00341312
0.00341627
0.00341335
0.00343184
0.00343252
0.00341274
0.00341308
0.00342916
0.00343215
0.00341626
0.00343205
0.00341627
0.00341312
0.00340665
0.00338721
0.00340606
0.00338773
0.00340628
0.00340345
0.00338756
0.00339072
0.00340633
0.00340346
0.00338754
0.00340665
0.00338721
0.00340606
0.00338773
0.00340628
0.00340345
0.00339072
0.00338756
0.00340346
0.00340633
0.00338754
0.00341335
0.00343184
0.00343252
0.00341274
0.00341308
0.00342916
0.00343215
0.00341626
0.00343205
0.00341627
0.00341312
0.00341335
0.00343184
0.00343252
0.00341274
0.00340628
0.00340345
0.00338756
0.00339072
0.00340633
0.00340346
0.00338754
0.00340665
0.00338721
0.00340606
0.00338773
0.00340628
0.00340345
0.00339072
0.00338756
0.00340346
0.00340633
0.00338754
0.00340665
0.00338721
0.00340606
0.00338773
0.00343214
0.00343214
0.00341361
0.003413
0.003413
0.00343168
0.00341259
0.00338707
0.00340592
0.0034057
0.00338744
0.00338744
0.00340632
0.00340632
0.00338707
0.00340592
0.00341308
0.00342916
0.00343215
0.00341626
0.00343205
0.00341627
0.00341312
0.00341335
0.00343184
0.00343253
0.00341274
0.00341335
0.00343184
0.00343253
0.00341274
0.00340628
0.00340345
0.00339072
0.00338756
0.00340346
0.00340634
0.00338754
0.00340628
0.00340345
0.00339072
0.00338756
0.00340346
0.00340633
0.00338754
0.00340665
0.00338721
0.00340606
0.00338773
0.00340665
0.00338721
0.00340606
0.00338773
0.00343167
0.00341259
0.00343167
0.00341259
0.0034057
0.00338744
0.00338744
0.00340632
0.00340632
0.00338707
0.00340592
0.00338707
0.00340593
0.0033805
0.00336191
0.0033805
0.00336191
0.00338084
0.00338084
0.00336293
0.00336224
0.00336224
0.00333713
0.00335544
0.00333713
0.00335544
0.00335524
0.00333744
0.00333744
0.00335575
0.00335575
0.00336248
0.00338062
0.00338112
0.00336204
0.00336236
0.00338086
0.00337807
0.0033655
0.00338082
0.00336237
0.0033655
0.00336236
0.00338086
0.00337807
0.0033655
0.00338082
0.00336237
0.0033655
0.00335596
0.00333725
0.00335554
0.00333761
0.00335596
0.00333725
0.00335554
0.00333761
0.00335573
0.00335302
0.00333755
0.00334065
0.00335575
0.00335303
0.00333756
0.00335573
0.00335302
0.00333756
0.00334065
0.00335575
0.00335303
0.00333756
0.00338085
0.00338084
0.00336293
0.00336224
0.00336225
0.0033805
0.00336191
0.00333713
0.00335543
0.00335524
0.00333744
0.00333744
0.00335574
0.00335575
0.00333713
0.00335544
0.00336236
0.00338086
0.00337807
0.0033655
0.00338082
0.00336237
0.0033655
0.00336248
0.00338062
0.00338112
0.00336204
0.00336236
0.00337807
0.00338086
0.0033655
0.00338082
0.0033655
0.00336237
0.00335596
0.00333725
0.00335554
0.00333761
0.00335573
0.00335302
0.00333755
0.00334065
0.00335575
0.00335303
0.00333756
0.00335596
0.00333725
0.00335554
0.00333761
0.00335573
0.00335302
0.00334065
0.00333755
0.00335303
0.00335575
0.00333756
0.00336248
0.00338062
0.00338112
0.00336204
0.00336236
0.00337807
0.00338086
0.0033655
0.00338082
0.0033655
0.00336237
0.00336248
0.00338062
0.00338112
0.00336204
0.00335573
0.00335302
0.00333755
0.00334065
0.00335575
0.00335303
0.00333756
0.00335596
0.00333725
0.00335554
0.00333761
0.00335573
0.00335302
0.00334065
0.00333755
0.00335303
0.00335575
0.00333756
0.00335596
0.00333725
0.00335554
0.00333761
0.00338084
0.00338084
0.00336293
0.00336224
0.00336224
0.0033805
0.00336191
0.00333713
0.00335544
0.00335524
0.00333744
0.00333743
0.00335575
0.00335575
0.00333713
0.00335544
0.00336236
0.00337807
0.00338086
0.0033655
0.00338082
0.0033655
0.00336237
0.00336248
0.00338062
0.00338112
0.00336204
0.00336248
0.00338062
0.00338112
0.00336204
0.00335573
0.00335302
0.00334065
0.00333755
0.00335303
0.00335575
0.00333755
0.00335573
0.00335302
0.00334065
0.00333755
0.00335303
0.00335575
0.00333755
0.00335596
0.00333724
0.00335554
0.00333761
0.00335596
0.00333724
0.00335554
0.00333761
0.0033805
0.00336191
0.0033805
0.00336191
0.00335524
0.00333744
0.00333743
0.00335575
0.00335575
0.00333713
0.00335544
0.00333713
0.00335544
0.00333075
0.00331271
0.00333075
0.00331271
0.00333103
0.00333103
0.0033137
0.003313
0.003313
0.00328865
0.00330642
0.00328865
0.00330642
0.00330623
0.00328892
0.00328892
0.00330669
0.00330669
0.00331313
0.00333084
0.00333119
0.00331281
0.00331312
0.00333103
0.00332836
0.00331616
0.00333101
0.00331311
0.00331616
0.00331312
0.00333103
0.00332836
0.00331616
0.00333101
0.00331311
0.00331616
0.0033068
0.00328875
0.00330651
0.00328901
0.0033068
0.00328875
0.00330651
0.00328901
0.00330666
0.00330405
0.00328903
0.00329202
0.00330667
0.00330405
0.00328904
0.00330666
0.00330405
0.00328903
0.00329202
0.00330667
0.00330405
0.00328904
0.00333104
0.00333103
0.0033137
0.00331299
0.003313
0.00333075
0.00331271