/*--------------------------------*- C++ -*----------------------------------*\
| =========                 |                                                 |
| \\      /  F ield         | OpenFOAM: The Open Source CFD Toolbox           |
|  \\    /   O peration     | Version:  v1906                                 |
|   \\  /    A nd           | Web:      www.OpenFOAM.com                      |
|    \\/     M anipulation  |                                                 |
\*---------------------------------------------------------------------------*/
FoamFile
{
    version     2.0;
    format      ascii;
    class       surfaceScalarField;
    location    "850";
    object      phi;
}
// * * * * * * * * * * * * * * * * * * * * * * * * * * * * * * * * * * * * * //

dimensions      [0 3 -1 0 0 0 0];
oriented        oriented;


internalField   nonuniform List<scalar> 
123728
(
-0.00104218
-1.46306e-05
-1.45275e-05
9.38378e-06
9.21333e-06
0.00105274
-0.000261489
-5.6837e-06
1.45064e-05
6.88821e-06
0.00105925
-4.59306e-06
-1.59744e-06
-2.12104e-06
-2.48905e-06
-6.62389e-06
-7.11497e-06
-2.98428e-06
-0.000263331
-0.000259761
-0.000262856
-0.000261466
-5.68856e-06
1.45383e-05
6.97901e-06
0.00105904
-4.59791e-06
-1.60753e-06
-2.12835e-06
-2.49615e-06
-6.61833e-06
-7.11209e-06
-2.98816e-06
-0.000259733
-0.000263303
-0.000262819
-0.000260563
5.65929e-06
5.69947e-06
-4.95352e-06
-4.94731e-06
0.000259105
-1.65243e-06
-1.65508e-06
-0.00106079
9.34757e-07
9.34604e-07
0.00106223
-0.00106273
-1.61864e-06
1.64653e-06
8.25326e-07
0.00106393
-6.8014e-07
8.35011e-07
-9.90964e-08
4.23371e-07
-8.4606e-07
-1.43073e-06
-2.51593e-07
-0.00106242
-1.61338e-06
1.65944e-06
8.25819e-07
0.00106361
-6.7987e-07
8.29536e-07
-9.91476e-08
4.20573e-07
-8.5276e-07
-1.43119e-06
-2.52467e-07
-0.000261565
1.65129e-06
1.614e-06
-6.98649e-07
-7.01638e-07
0.0002597
-1.37401e-06
-1.37689e-06
-0.00106635
6.96469e-07
6.96547e-07
0.00106771
-0.00106788
-1.57191e-06
1.38253e-06
6.88261e-07
0.00106923
-6.56449e-07
8.79041e-07
-7.26403e-08
4.6046e-07
-8.37464e-07
-1.40022e-06
-2.21792e-07
-0.00106756
-1.56726e-06
1.37587e-06
6.95417e-07
0.0010689
-6.57048e-07
8.7314e-07
-7.3123e-08
4.61814e-07
-8.37075e-07
-1.39321e-06
-2.18913e-07
-0.000262802
1.60248e-06
1.56785e-06
-6.63878e-07
-6.71735e-07
0.000260967
-1.35012e-06
-1.35098e-06
-0.00107181
6.75556e-07
6.76769e-07
0.00107316
-0.00107323
-1.572e-06
1.3513e-06
6.65659e-07
0.00107454
-6.53007e-07
9.01082e-07
-5.2764e-08
4.75402e-07
-8.28409e-07
-1.4047e-06
-1.95012e-07
-0.00107289
-1.56709e-06
1.35027e-06
6.66538e-07
0.0010742
-6.50799e-07
8.95305e-07
-5.51825e-08
4.75778e-07
-8.30465e-07
-1.40401e-06
-1.92199e-07
-0.000264079
1.59976e-06
1.56754e-06
-6.55901e-07
-6.6138e-07
0.000262229
-1.30424e-06
-1.304e-06
-0.00107714
6.50987e-07
6.52705e-07
0.00107844
-0.00107839
-1.56379e-06
1.30381e-06
6.34829e-07
0.00107965
-6.38146e-07
9.25196e-07
-3.44321e-08
4.94932e-07
-8.09685e-07
-1.4032e-06
-1.64907e-07
-0.00107806
-1.55872e-06
1.30422e-06
6.35704e-07
0.00107931
-6.35845e-07
9.19549e-07
-3.67068e-08
4.94706e-07
-8.12311e-07
-1.40317e-06
-1.62594e-07
-0.000265298
1.59164e-06
1.5591e-06
-6.40245e-07
-6.45854e-07
0.000263433
-1.25341e-06
-1.25396e-06
-0.00108228
6.2636e-07
6.27615e-07
0.00108353
-0.00108332
-1.55496e-06
1.25334e-06
6.05813e-07
0.00108451
-6.24001e-07
9.47012e-07
-1.3804e-08
5.16193e-07
-7.88886e-07
-1.39674e-06
-1.36856e-07
-0.00108298
-1.54968e-06
1.25402e-06
6.06544e-07
0.00108417
-6.21413e-07
9.41521e-07
-1.66141e-08
5.15982e-07
-7.91538e-07
-1.39673e-06
-1.34568e-07
-0.000266442
1.58266e-06
1.54985e-06
-6.24122e-07
-6.29737e-07
0.000264564
-1.20684e-06
-1.20766e-06
-0.00108722
6.04577e-07
6.05637e-07
0.00108842
-0.001088
-1.54744e-06
1.20694e-06
5.82388e-07
0.00108913
-6.12015e-07
9.66408e-07
3.51249e-09
5.3763e-07
-7.69487e-07
-1.38865e-06
-1.1221e-07
-0.00108766
-1.54207e-06
1.20734e-06
5.82874e-07
0.00108879
-6.09329e-07
9.60966e-07
7.69888e-10
5.37517e-07
-7.72052e-07
-1.38855e-06
-1.0987e-07
-0.000267513
1.57522e-06
1.54226e-06
-6.09989e-07
-6.15625e-07
0.000265621
-1.16631e-06
-1.16685e-06
-0.00109197
5.86092e-07
5.87122e-07
0.00109313
-0.00109245
-1.54181e-06
1.16641e-06
5.63829e-07
0.00109353
-6.02667e-07
9.83564e-07
1.79074e-08
5.58524e-07
-7.52486e-07
-1.38058e-06
-9.09551e-08
-0.00109211
-1.5364e-06
1.16681e-06
5.64235e-07
0.00109318
-5.99947e-07
9.78117e-07
1.51675e-08
5.58401e-07
-7.55077e-07
-1.38048e-06
-8.86832e-08
-0.000268516
1.5698e-06
1.5366e-06
-5.98172e-07
-6.03946e-07
0.000266611
-1.13085e-06
-1.13253e-06
-0.00109655
5.70729e-07
5.71456e-07
0.00109767
-0.00109669
-1.53791e-06
1.13216e-06
5.49141e-07
0.00109772
-5.95859e-07
9.98667e-07
2.97874e-08
5.78521e-07
-7.3792e-07
-1.37322e-06
-7.28064e-08
-0.00109634
-1.53255e-06
1.13246e-06
5.49699e-07
0.00109737
-5.93153e-07
9.93135e-07
2.69906e-08
5.78471e-07
-7.405e-07
-1.37307e-06
-7.05739e-08
-0.000269455
1.56617e-06
1.53278e-06
-5.8854e-07
-5.94393e-07
0.000267539
-1.10041e-06
-1.10249e-06
-0.00110098
5.57486e-07
5.58093e-07
0.00110207
-0.00110074
-1.5362e-06
1.10214e-06
5.37046e-07
0.00110172
-5.91739e-07
1.01169e-06
4.37106e-08
5.97435e-07
-7.25413e-07
-1.36669e-06
-5.75861e-08
-0.00110039
-1.53078e-06
1.10239e-06
5.37927e-07
0.00110138
-5.88959e-07
1.0062e-06
3.97154e-08
5.97612e-07
-7.27808e-07
-1.36631e-06
-5.52804e-08
-0.000270336
1.56427e-06
1.53083e-06
-5.81009e-07
-5.86688e-07
0.000268409
-1.07425e-06
-1.07596e-06
-0.00110528
5.46049e-07
5.46658e-07
0.00110634
-0.00110462
-1.53547e-06
1.07581e-06
5.28117e-07
0.00110556
-5.86039e-07
1.0239e-06
5.16493e-08
6.15384e-07
-7.13779e-07
-1.36044e-06
-4.46497e-08
-0.00110427
-1.53009e-06
1.07553e-06
5.28665e-07
0.00110522
-5.86099e-07
1.01832e-06
5.14834e-08
6.15582e-07
-7.16165e-07
-1.36003e-06
-4.23774e-08
-0.000271164
1.56363e-06
1.53015e-06
-5.74849e-07
-5.80496e-07
0.000269225
-1.05011e-06
-1.05176e-06
-0.00110947
5.35424e-07
5.35954e-07
0.0011105
-0.00110834
-1.5351e-06
1.05152e-06
5.19516e-07
0.00110925
-5.83577e-07
1.03562e-06
6.14854e-08
6.32331e-07
-7.02085e-07
-1.35383e-06
-3.34909e-08
-0.001108
-1.52968e-06
1.05133e-06
5.20059e-07
0.0011089
-5.83581e-07
1.03007e-06
6.13825e-08
6.32443e-07
-7.04592e-07
-1.35352e-06
-3.13417e-08
-0.000271939
1.56334e-06
1.52973e-06
-5.692e-07
-5.74894e-07
0.00026999
-1.02654e-06
-1.02801e-06
-0.00111356
5.24691e-07
5.25121e-07
0.00111456
-0.00111192
-1.53479e-06
1.02784e-06
5.10229e-07
0.00111279
-5.80769e-07
1.04718e-06
7.02829e-08
6.47811e-07
-6.90235e-07
-1.34686e-06
-2.10909e-08
-0.00111157
-1.52938e-06
1.02762e-06
5.10612e-07
0.00111244
-5.80782e-07
1.0415e-06
7.01718e-08
6.47818e-07
-6.92877e-07
-1.34666e-06
-1.82535e-08
-0.000272662
1.56322e-06
1.52939e-06
-5.63979e-07
-5.69794e-07
0.000270703
-1.00391e-06
-1.00533e-06
-0.00111754
5.14368e-07
5.14805e-07
0.00111852
-0.00111534
-1.53471e-06
1.00532e-06
4.99948e-07
0.00111618
-5.76842e-07
1.05786e-06
7.88606e-08
6.61997e-07
-6.77504e-07
-1.33907e-06
-9.00799e-09
-0.00111499
-1.52925e-06
1.00501e-06
5.00433e-07
0.00111583
-5.76902e-07
1.05223e-06
7.87104e-08
6.62027e-07
-6.80153e-07
-1.33889e-06
-6.13507e-09
-0.000273332
1.56322e-06
1.52933e-06
-5.58567e-07
-5.64317e-07
0.000271363
-9.81843e-07
-9.82967e-07
-0.00112142
5.04108e-07
5.04684e-07
0.00112238
-0.00111862
-1.53425e-06
9.83294e-07
4.89187e-07
0.00111942
-5.71696e-07
1.06777e-06
8.73404e-08
6.74975e-07
-6.63742e-07
-1.33022e-06
2.18602e-09
-0.00111827
-1.52879e-06
9.82892e-07
4.89578e-07
0.00111906
-5.71733e-07
1.06219e-06
8.72413e-08
6.75007e-07
-6.66361e-07
-1.33004e-06
5.08166e-09
-0.000273948
1.56282e-06
1.52886e-06
-5.52048e-07
-5.57776e-07
0.000271966
-9.60036e-07
-9.60843e-07
-0.00112521
4.93875e-07
4.9464e-07
0.00112614
-0.00112174
-1.53299e-06
9.61448e-07
4.78273e-07
0.0011225
-5.65422e-07
1.07756e-06
9.53713e-08
6.86818e-07
-6.49191e-07
-1.32046e-06
1.2505e-08
-0.00112139
-1.52749e-06
9.60925e-07
4.78423e-07
0.00112215
-5.65429e-07
1.07195e-06
9.53527e-08
6.86904e-07
-6.51744e-07
-1.32022e-06
1.54234e-08
-0.000274504
1.56163e-06
1.52757e-06
-5.44737e-07
-5.50517e-07
0.00027251
-9.38812e-07
-9.39183e-07
-0.00112891
4.8395e-07
4.84958e-07
0.00112981
-0.00112471
-1.53113e-06
9.40027e-07
4.67288e-07
0.00112542
-5.57938e-07
1.08686e-06
1.03126e-07
6.97576e-07
-6.34043e-07
-1.30968e-06
2.20491e-08
-0.00112435
-1.52559e-06
9.39348e-07
4.67316e-07
0.00112507
-5.57899e-07
1.08126e-06
1.03198e-07
6.97679e-07
-6.36559e-07
-1.30942e-06
2.50361e-08
-0.000274999
1.55986e-06
1.52573e-06
-5.37003e-07
-5.42756e-07
0.000272994
-9.17889e-07
-9.17611e-07
-0.00113251
4.74041e-07
4.7532e-07
0.00113339
-0.00112751
-1.52868e-06
9.18769e-07
4.56125e-07
0.00112818
-5.49356e-07
1.0954e-06
1.10631e-07
7.07575e-07
-6.18629e-07
-1.29798e-06
3.19896e-08
-0.00112715
-1.52317e-06
9.17789e-07
4.55717e-07
0.00112783
-5.4937e-07
1.08974e-06
1.10647e-07
7.07464e-07
-6.21328e-07
-1.29783e-06
3.63988e-08
-0.000275429
1.55748e-06
1.52328e-06
-5.28699e-07
-5.34463e-07
0.000273412
-8.97223e-07
-8.96992e-07
-0.00113602
4.64873e-07
4.66098e-07
0.00113688
-0.00113014
-1.52562e-06
8.97512e-07
4.44883e-07
0.00113077
-5.39961e-07
1.10317e-06
1.1771e-07
7.16338e-07
-6.03319e-07
-1.28603e-06
4.42355e-08
-0.00112979
-1.52007e-06
8.96984e-07
4.44508e-07
0.00113042
-5.39894e-07
1.09757e-06
1.17796e-07
7.16213e-07
-6.05969e-07
-1.28589e-06
4.80908e-08
-0.000275792
1.55446e-06
1.52013e-06
-5.19754e-07
-5.25605e-07
0.000273762
-8.77177e-07
-8.76917e-07
-0.00113944
4.56475e-07
4.57284e-07
0.00114028
-0.0011326
-1.52157e-06
8.77121e-07
4.34457e-07
0.00113319
-5.29526e-07
1.11048e-06
1.24712e-07
7.24433e-07
-5.87787e-07
-1.27312e-06
5.47764e-08
-0.00113224
-1.51605e-06
8.76845e-07
4.34423e-07
0.00113283
-5.29594e-07
1.10479e-06
1.24688e-07
7.24319e-07
-5.90533e-07
-1.27307e-06
5.83646e-08
-0.000276084
1.55054e-06
1.51606e-06
-5.10029e-07
-5.15964e-07
0.000274043
-8.63106e-07
-8.57589e-07
-0.00114275
4.48566e-07
4.49119e-07
0.00114358
-0.00113488
-1.5165e-06
8.51892e-07
4.24171e-07
0.00113542
-5.21355e-07
1.11715e-06
1.3433e-07
7.34931e-07
-5.72426e-07
-1.25925e-06
6.42342e-08
-0.00113452
-1.51104e-06
8.57333e-07
4.13348e-07
-5.18596e-07
1.11149e-06
1.31293e-07
7.32014e-07
-5.75153e-07
-1.25917e-06
6.77668e-08
0.00113507
-0.000276305
1.54557e-06
1.50822e-06
-4.99516e-07
-5.05502e-07
0.000274256
5.22563e-06
5.2363e-06
0.000260565
-0.000259152
-5.9444e-06
-5.93074e-06
5.05312e-06
0.000261438
-0.000258683
-5.96274e-06
3.38086e-06
-5.22563e-06
5.04845e-06
0.000261472
-0.000258699
-5.97154e-06
3.37602e-06
5.22619e-06
0.000260578
-0.000259155
-5.9163e-06
-5.95917e-06
5.04659e-06
0.000261502
-0.000258714
-5.96891e-06
3.37046e-06
5.0532e-06
-5.22786e-06
0.000261446
-0.000258684
3.38576e-06
-5.97346e-06
1.06913e-05
1.05968e-05
-0.000252646
-0.000256096
-0.000255126
-0.000255126
-6.41831e-06
-4.11003e-06
-6.6537e-06
-6.41918e-06
-4.11135e-06
-6.65981e-06
-5.04172e-06
0.0010422
1.0651e-05
1.0602e-05
-0.000252648
-0.000256093
-0.000255128
-0.000255129
-6.42142e-06
-4.11067e-06
-6.65702e-06
-6.41644e-06
-4.10623e-06
-6.65208e-06
-5.04104e-06
0.00104208
1.07111e-05
1.06634e-05
-0.000252641
-0.000256088
-0.000255126
-0.000255121
-6.4212e-06
-4.11802e-06
-6.65688e-06
-6.42133e-06
-4.10835e-06
-6.65436e-06
-5.05609e-06
-5.04392e-06
0.00104214
1.07065e-05
1.06084e-05
-0.000252643
-0.000256091
-0.000255126
-0.000255126
-6.41637e-06
-4.11328e-06
-6.6522e-06
-6.42153e-06
-4.11107e-06
-6.65723e-06
-0.000258709
-5.96132e-06
3.36553e-06
-5.22539e-06
0.000261433
-0.000258681
3.38077e-06
-5.96362e-06
5.22848e-06
0.000260558
-0.00025914
-5.9184e-06
-5.95629e-06
-0.000258694
3.373e-06
-5.95814e-06
-5.23659e-06
0.0002615
-0.000258709
3.3683e-06
-5.96636e-06
-0.00025915
-5.94483e-06
-5.93052e-06
5.65959e-06
5.69671e-06
-4.9534e-06
-4.94764e-06
0.00025911
-8.12255e-07
-7.76601e-07
0.000261576
-0.000259442
-2.7592e-07
-2.68518e-07
7.14142e-06
0.00105865
-4.59061e-06
-1.5504e-06
-2.11553e-06
-2.49287e-06
-6.63763e-06
-7.12073e-06
-2.99199e-06
-0.000263292
-0.000259717
-0.000262818
-5.66982e-06
1.46046e-05
7.08015e-06
0.00105902
-4.60919e-06
-1.54278e-06
-2.11855e-06
-2.50264e-06
-6.66945e-06
-7.13752e-06
-3.0081e-06
-0.000263367
-0.000259748
-0.000262861
0.00106199
2.12391e-06
-0.00106095
1.04528e-06
-1.75867e-06
-1.31983e-07
-7.46781e-07
-1.54317e-06
-2.91804e-07
-9.12274e-07
3.6295e-07
8.20951e-07
0.00106241
2.12361e-06
-0.00106136
1.03731e-06
-1.76835e-06
-1.23814e-07
-7.51006e-07
-1.54794e-06
-2.92135e-07
-9.12928e-07
3.6933e-07
-4.95183e-06
-4.9438e-06
0.000259121
-7.79052e-07
0.000261599
-0.000259461
-2.73218e-07
-2.65044e-07
6.86255e-06
0.00105949
-4.61464e-06
-1.61047e-06
-2.13184e-06
-2.50039e-06
-6.65204e-06
-7.13238e-06
-3.00325e-06
-0.000263388
-0.000259776
-0.000262874
-5.66978e-06
1.46379e-05
7.17392e-06
0.0010588
-4.60924e-06
-1.55322e-06
-2.12378e-06
-2.50407e-06
-6.66835e-06
-7.13566e-06
-3.00754e-06
-0.000259718
-0.000263344
-0.000262832
0.001063
2.13143e-06
-0.00106195
1.03248e-06
-1.7291e-06
-1.34415e-07
-7.47292e-07
-1.54519e-06
-2.91719e-07
-9.0985e-07
3.65967e-07
8.09571e-07
0.0010621
2.13366e-06
-0.00106108
1.05483e-06
-1.7589e-06
-1.29797e-07
-7.47111e-07
-1.54453e-06
-2.88906e-07
-9.14464e-07
3.64065e-07
1.46364e-05
7.16141e-06
0.00105861
-4.59034e-06
-1.55039e-06
-2.11302e-06
-2.49142e-06
-6.63842e-06
-2.99272e-06
-7.11817e-06
-0.000259713
-0.000263288
-0.000262815
2.12565e-06
-0.00106169
1.03185e-06
-1.72932e-06
-1.32036e-07
-7.44591e-07
-1.54009e-06
-2.89532e-07
3.62976e-07
-9.04642e-07
8.09348e-07
0.00106189
2.13391e-06
-0.00106087
1.05561e-06
-1.75896e-06
-1.29922e-07
-7.47021e-07
-1.54446e-06
-2.9173e-07
-9.12086e-07
3.66488e-07
-4.95649e-06
-4.94407e-06
0.0002591
-7.71367e-07
0.000261553
-0.000259425
-2.76012e-07
-2.71117e-07
1.4537e-05
6.88183e-06
0.00105944
-4.61483e-06
-1.61064e-06
-2.13199e-06
-2.50037e-06
-6.65204e-06
-3.00336e-06
-7.12959e-06
-0.000259766
-0.000263385
-0.000262869
2.13638e-06
-0.00106139
1.05335e-06
-1.72634e-06
-1.34145e-07
-7.46777e-07
-1.53958e-06
-2.89724e-07
3.60803e-07
-9.12713e-07
7.71101e-07
0.00106291
2.13747e-06
-0.00106187
1.04338e-06
-1.72418e-06
-1.34443e-07
-7.44691e-07
-1.543e-06
-2.91984e-07
-9.1291e-07
3.60678e-07
-0.00025944
-2.73639e-07
-2.71442e-07
1.6511e-06
1.61608e-06
-6.95623e-07
-7.03974e-07
0.000259708
-9.07034e-07
-8.69088e-07
0.000262815
-0.000260649
-1.9829e-07
-1.91529e-07
8.33292e-07
0.00106318
-6.82568e-07
8.67704e-07
-9.48769e-08
4.23094e-07
-8.49774e-07
-1.43429e-06
-2.54417e-07
-1.65573e-06
1.65144e-06
8.25357e-07
0.0010636
-6.84204e-07
8.76172e-07
-9.38784e-08
4.29322e-07
-8.52892e-07
-1.43915e-06
-2.52295e-07
0.00106711
1.38857e-06
-0.00106578
7.00137e-07
-1.60533e-06
-7.01213e-08
-6.63258e-07
-1.39301e-06
-2.25679e-07
-8.34115e-07
4.59904e-07
9.1228e-07
0.00106755
1.38763e-06
-0.0010662
6.94418e-07
-1.6106e-06
-6.9928e-08
-6.63101e-07
-1.39569e-06
-2.25879e-07
-8.34616e-07
4.63029e-07
-6.96002e-07
-7.02879e-07
0.000259724
-8.74736e-07
0.00026284
-0.000260661
-1.97904e-07
-1.94258e-07
8.25723e-07
0.0010642
-6.80273e-07
8.32288e-07
-9.70335e-08
4.25349e-07
-8.52687e-07
-1.43713e-06
-2.52201e-07
-1.65114e-06
1.65747e-06
8.32301e-07
0.00106329
-6.85489e-07
8.67797e-07
-9.4935e-08
4.23596e-07
-8.52039e-07
-1.43365e-06
-2.51815e-07
0.00106814
1.39159e-06
-0.00106681
6.98407e-07
-1.56731e-06
-7.41722e-08
-6.58061e-07
-1.39176e-06
-2.23965e-07
-8.35091e-07
4.61536e-07
9.01981e-07
0.00106723
1.38905e-06
-0.00106589
6.9963e-07
-1.60261e-06
-7.22797e-08
-6.63369e-07
-1.39339e-06
-2.25861e-07
-8.34327e-07
4.62401e-07
1.65372e-06
8.33225e-07
0.00106308
-6.85471e-07
8.64969e-07
-9.72626e-08
4.23126e-07
-8.52635e-07
-2.5224e-07
-1.43406e-06
1.39186e-06
-0.00106654
7.00841e-07
-1.57464e-06
-7.58068e-08
-6.57344e-07
-1.39258e-06
-2.2398e-07
4.60471e-07
-8.34617e-07
9.04516e-07
0.00106702
1.38589e-06
-0.00106568
6.99749e-07
-1.60259e-06
-7.21824e-08
-6.6317e-07
-1.39404e-06
-2.26465e-07
-8.34987e-07
4.5904e-07
-6.98613e-07
-7.00925e-07
0.000259688
-8.66135e-07
0.000262789
-0.000260628
-1.98802e-07
-1.93774e-07
1.65492e-06
8.21305e-07
0.00106412
-6.80543e-07
8.26531e-07
-1.01799e-07
4.2051e-07
-8.50385e-07
-2.57117e-07
-1.43177e-06
1.3906e-06
-0.00106622
6.98261e-07
-1.56477e-06
-7.639e-08
-6.57945e-07
-1.38536e-06
-2.26236e-07
4.54079e-07
-8.34779e-07
8.68287e-07
0.00106805
1.39078e-06
-0.00106671
6.99628e-07
-1.56545e-06
-7.6794e-08
-6.58648e-07
-1.39363e-06
-2.26162e-07
-8.37591e-07
4.59602e-07
-0.000260636
-1.99153e-07
-1.93954e-07
1.60515e-06
1.57235e-06
-6.60519e-07
-6.69303e-07
0.000260967
-9.27867e-07
-8.91874e-07
0.000264094
-0.00026192
-1.79977e-07
-1.74993e-07
6.91643e-07
0.00106846
-6.64971e-07
9.11487e-07
-6.69098e-08
4.62248e-07
-8.33917e-07
-1.39299e-06
-2.23227e-07
-1.61058e-06
1.3734e-06
7.02138e-07
0.00106888
-6.65018e-07
9.16691e-07
-6.68405e-08
4.68083e-07
-8.36951e-07
-1.39838e-06
-2.18587e-07
0.00107246
1.35928e-06
-0.00107114
6.74811e-07
-1.60627e-06
-5.60366e-08
-6.58999e-07
-1.40286e-06
-2.04191e-07
-8.28507e-07
4.71656e-07
9.33141e-07
0.00107288
1.35819e-06
-0.00107156
6.74691e-07
-1.61171e-06
-5.40143e-08
-6.61874e-07
-1.4104e-06
-1.9893e-07
-8.33492e-07
4.80822e-07
-6.63184e-07
-6.66488e-07
0.000260987
-8.95089e-07
0.000264123
-0.000261945
-1.76664e-07
-1.72499e-07
6.90258e-07
0.0010695
-6.62462e-07
8.7601e-07
-7.0979e-08
4.64035e-07
-8.3741e-07
-1.39944e-06
-2.19059e-07
-1.60244e-06
1.37472e-06
6.96841e-07
0.00106857
-6.65061e-07
9.09052e-07
-6.68509e-08
4.64789e-07
-8.36716e-07
-1.39599e-06
-2.18618e-07
0.00107349
1.36074e-06
-0.00107217
6.74165e-07
-1.57112e-06
-5.8145e-08
-6.56733e-07
-1.4059e-06
-1.99556e-07
-8.34139e-07
4.74358e-07
9.28047e-07
0.00107256
1.35935e-06
-0.00107124
6.75026e-07
-1.60617e-06
-5.38818e-08
-6.61683e-07
-1.40541e-06
-1.99387e-07
-8.33703e-07
4.74598e-07
1.3815e-06
6.91365e-07
0.00106837
-6.62254e-07
9.06342e-07
-7.11019e-08
4.6412e-07
-8.37326e-07
-2.21548e-07
-1.39659e-06
1.3612e-06
-0.0010719
6.72949e-07
-1.5732e-06
-5.75823e-08
-6.55963e-07
-1.40367e-06
-2.02411e-07
4.71089e-07
-8.31877e-07
9.22681e-07
0.00107236
1.36013e-06
-0.00107104
6.74751e-07
-1.60096e-06
-5.79815e-08
-6.5619e-07
-1.40333e-06
-2.02111e-07
-8.31485e-07
4.71396e-07
-6.63839e-07
-6.68567e-07
0.000260952
-8.89296e-07
0.000264074
-0.000261904
-1.79812e-07
-1.72245e-07
1.37609e-06
6.96689e-07
0.0010694
-6.57769e-07
8.67465e-07
-7.57038e-08
4.61985e-07
-8.34739e-07
-2.21312e-07
-1.39371e-06
1.35983e-06
-0.00107157
6.73849e-07
-1.56832e-06
-6.00335e-08
-6.53762e-07
-1.40269e-06
-1.99492e-07
4.71737e-07
-8.33844e-07
8.88993e-07
0.0010734
1.36048e-06
-0.00107208
6.74866e-07
-1.5688e-06
-6.03291e-08
-6.54325e-07
-1.40065e-06
-2.01951e-07
-8.31605e-07
4.69145e-07
-0.000261917
-1.77592e-07
-1.72393e-07
1.60506e-06
1.56999e-06
-6.53248e-07
-6.58794e-07
0.000262231
-9.52537e-07
-9.16036e-07
0.000265313
-0.000263141
-1.54424e-07
-1.48983e-07
6.67456e-07
0.00107377
-6.56017e-07
9.33959e-07
-5.12166e-08
4.75636e-07
-8.25269e-07
-1.40426e-06
-1.96992e-07
-1.61046e-06
1.34882e-06
6.67027e-07
0.00107419
-6.58892e-07
9.39275e-07
-4.92194e-08
4.84935e-07
-8.3e-07
-1.4116e-06
-1.91542e-07
0.00107763
1.31672e-06
-0.00107636
6.44026e-07
-1.59913e-06
-3.71696e-08
-6.449e-07
-1.40446e-06
-1.748e-07
-8.12221e-07
4.89433e-07
9.58056e-07
0.00107805
1.31554e-06
-0.00107678
6.43129e-07
-1.60436e-06
-3.52024e-08
-6.4765e-07
-1.41205e-06
-1.69322e-07
-8.16767e-07
4.98355e-07
-6.55659e-07
-6.61051e-07
0.000262257
-9.1928e-07
0.000265341
-0.000263167
-1.51033e-07
-1.46277e-07
6.66925e-07
0.0010748
-6.53859e-07
8.97808e-07
-5.33759e-08
4.78631e-07
-8.30707e-07
-1.40699e-06
-1.92201e-07
-1.60499e-06
1.34985e-06
6.67697e-07
0.00107388
-6.58719e-07
9.34098e-07
-4.91112e-08
4.78729e-07
-8.30356e-07
-1.40664e-06
-1.92101e-07
0.00107866
1.31637e-06
-0.00107739
6.43828e-07
-1.56417e-06
-3.93786e-08
-6.42941e-07
-1.40663e-06
-1.69674e-07
-8.17228e-07
4.92923e-07
9.52502e-07
0.00107773
1.31584e-06
-0.00107646
6.44567e-07
-1.59922e-06
-3.53221e-08
-6.4776e-07
-1.40657e-06
-1.69761e-07
-8.17086e-07
4.92747e-07
1.35048e-06
6.67378e-07
0.00107368
-6.53214e-07
9.28733e-07
-5.31456e-08
4.7555e-07
-8.28096e-07
-1.9479e-07
-1.40454e-06
1.31628e-06
-0.00107712
6.42619e-07
-1.56615e-06
-3.87793e-08
-6.42017e-07
-1.40423e-06
-1.72369e-07
4.8978e-07
-8.14808e-07
9.4712e-07
0.00107753
1.31607e-06
-0.00107626
6.44357e-07
-1.59397e-06
-3.9137e-08
-6.42236e-07
-1.40434e-06
-1.72327e-07
-8.14709e-07
4.89705e-07
-6.53538e-07
-6.60756e-07
0.000262216
-9.13592e-07
0.000265292
-0.000263126
-1.54007e-07
-1.46572e-07
1.35084e-06
6.67321e-07
0.00107472
-6.51331e-07
8.95029e-07
-5.54493e-08
4.73314e-07
-8.28206e-07
-1.94619e-07
-1.40184e-06
1.31639e-06
-0.00107678
6.434e-07
-1.56112e-06
-4.10581e-08
-6.39769e-07
-1.40405e-06
-1.69989e-07
4.8969e-07
-8.1736e-07
9.13436e-07
0.00107857
1.3166e-06
-0.0010773
6.43536e-07
-1.56151e-06
-4.12425e-08
-6.40224e-07
-1.40167e-06
-1.7217e-07
-8.14821e-07
4.87404e-07
-0.000263139
-1.51745e-07
-1.46606e-07
1.59678e-06
1.56176e-06
-6.37829e-07
-6.43018e-07
0.000263436
-9.75371e-07
-9.38888e-07
0.000266458
-0.00026429
-1.29379e-07
-1.23886e-07
6.3596e-07
0.00107888
-6.40994e-07
9.58559e-07
-3.21315e-08
4.94541e-07
-8.07201e-07
-1.4035e-06
-1.67409e-07
-1.60199e-06
1.30321e-06
6.34933e-07
0.0010793
-6.43777e-07
9.64093e-07
-2.93925e-08
5.03199e-07
-8.11922e-07
-1.41135e-06
-1.62119e-07
0.00108255
1.2659e-06
-0.00108134
6.13383e-07
-1.58998e-06
-1.61741e-08
-6.30032e-07
-1.39881e-06
-1.46065e-07
-7.91585e-07
5.1055e-07
9.80989e-07
0.00108297
1.26559e-06
-0.00108177
6.1279e-07
-1.59512e-06
-1.33508e-08
-6.32712e-07
-1.40721e-06
-1.41282e-07
-7.96836e-07
5.18762e-07
-6.40306e-07
-6.45067e-07
0.000263461
-9.41792e-07
0.000266486
-0.000264316
-1.26511e-07
-1.21052e-07
6.35947e-07
0.00107992
-6.38979e-07
9.22045e-07
-3.50366e-08
4.98024e-07
-8.12139e-07
-1.40564e-06
-1.62253e-07
-1.59696e-06
1.30328e-06
6.36455e-07
0.00107898
-6.43975e-07
9.58457e-07
-2.96313e-08
4.97802e-07
-8.1207e-07
-1.40564e-06
-1.62395e-07
0.00108359
1.26624e-06
-0.00108238
6.1307e-07
-1.55475e-06
-1.90377e-08
-6.27902e-07
-1.4012e-06
-1.41068e-07
-7.96628e-07
5.13763e-07
9.7535e-07
0.00108265
1.26534e-06
-0.00108145
6.13822e-07
-1.59011e-06
-1.35841e-08
-6.32967e-07
-1.40122e-06
-1.41239e-07
-7.966e-07
5.13529e-07
1.30358e-06
6.36597e-07
0.00107878
-6.3832e-07
9.53142e-07
-3.48034e-08
4.94853e-07
-8.09623e-07
-1.64893e-07
-1.40333e-06
1.26572e-06
-0.00108211
6.12493e-07
-1.55707e-06
-1.86359e-08
-6.27356e-07
-1.39859e-06
-1.4356e-07
5.1083e-07
-7.94018e-07
9.70011e-07
0.00108245
1.26534e-06
-0.00108124
6.13884e-07
-1.58479e-06
-1.88512e-08
-6.27363e-07
-1.3987e-06
-1.43577e-07
-7.94007e-07
5.10771e-07
-6.37953e-07
-6.45311e-07
0.00026342
-9.36279e-07
0.000266437
-0.000264275
-1.29271e-07
-1.21317e-07
1.30425e-06
6.35635e-07
0.00107983
-6.3625e-07
9.19459e-07
-3.68328e-08
4.92498e-07
-8.09752e-07
-1.64761e-07
-1.40069e-06
1.26647e-06
-0.00108177
6.13318e-07
-1.55184e-06
-2.14834e-08
-6.24836e-07
-1.39856e-06
-1.41308e-07
5.10642e-07
-7.9673e-07
9.36333e-07
0.0010835
1.26641e-06
-0.00108229
6.12814e-07
-1.55203e-06
-2.1541e-08
-6.25118e-07
-1.39612e-06
-1.43464e-07
-7.94156e-07
5.08357e-07
-0.000264288
-1.26639e-07
-1.21358e-07
1.5879e-06
1.55258e-06
-6.21656e-07
-6.27027e-07
0.000264566
-9.95338e-07
-9.58883e-07
0.000267529
-0.000265366
-1.07017e-07
-1.01733e-07
6.06724e-07
0.00108374
-6.26655e-07
9.80604e-07
-1.13387e-08
5.15977e-07
-7.86419e-07
-1.3969e-06
-1.39317e-07
-1.59305e-06
1.25338e-06
6.06193e-07
0.00108417
-6.2933e-07
9.86237e-07
-8.49485e-09
5.24152e-07
-7.91843e-07
-1.40539e-06
-1.3469e-07
0.00108723
1.21795e-06
-0.00108608
5.88885e-07
-1.58232e-06
1.85924e-09
-6.17516e-07
-1.3908e-06
-1.20419e-07
-7.71593e-07
5.3215e-07
1.00103e-06
0.00108765
1.21795e-06
-0.00108651
5.88291e-07
-1.58742e-06
4.79464e-09
-6.20083e-07
-1.39922e-06
-1.15861e-07
-7.77108e-07
5.40439e-07
-6.24543e-07
-6.28951e-07
0.000264592
-9.61776e-07
0.000267558
-0.000265392
-1.04187e-07
-9.87738e-08
6.06294e-07
0.00108478
-6.24471e-07
9.44149e-07
-1.41541e-08
5.19092e-07
-7.91548e-07
-1.3994e-06
-1.34415e-07
-1.58798e-06
1.25301e-06
6.06991e-07
0.00108385
-6.29517e-07
9.80646e-07
-8.6788e-09
5.18888e-07
-7.91493e-07
-1.39939e-06
-1.34561e-07
0.00108827
1.21876e-06
-0.00108712
5.88331e-07
-1.54678e-06
-9.05952e-10
-6.15243e-07
-1.39339e-06
-1.15702e-07
-7.76889e-07
5.35217e-07
9.95535e-07
0.00108733
1.21755e-06
-0.00108618
5.88705e-07
-1.58222e-06
4.70555e-09
-6.20174e-07
-1.39332e-06
-1.15734e-07
-7.76709e-07
5.35072e-07
1.25294e-06
6.07073e-07
0.00108364
-6.23939e-07
9.75293e-07
-1.3968e-08
5.16138e-07
-7.88877e-07
-1.36887e-07
-1.39684e-06
1.21801e-06
-0.00108685
5.87747e-07
-1.54915e-06
-5.25462e-10
-6.14754e-07
-1.39072e-06
-1.18037e-07
5.32305e-07
-7.74121e-07
9.90156e-07
0.00108713
1.21752e-06
-0.00108598
5.88817e-07
-1.5769e-06
-6.30845e-10
-6.14619e-07
-1.39081e-06
-1.18046e-07
-7.74128e-07
5.32267e-07
-6.21966e-07
-6.29192e-07
0.000264551
-9.56323e-07
0.000267508
-0.000265351
-1.06871e-07
-9.88881e-08
1.25398e-06
6.05985e-07
0.00108469
-6.21681e-07
9.41591e-07
-1.66518e-08
5.13729e-07
-7.89017e-07
-1.36757e-07
-1.39426e-06
1.21845e-06
-0.00108651
5.88284e-07
-1.54381e-06
-3.2791e-09
-6.12088e-07
-1.39057e-06
-1.15717e-07
5.32228e-07
-7.76735e-07
9.56385e-07
0.00108818
1.21848e-06
-0.00108703
5.87779e-07
-1.54398e-06
-3.31156e-09
-6.12342e-07
-1.38822e-06
-1.17913e-07
-7.74238e-07
5.29851e-07
-0.000265364
-1.04267e-07
-9.89291e-08
1.58069e-06
1.5451e-06
-6.07555e-07
-6.13154e-07
0.000265624
-1.01575e-06
-9.76486e-07
0.000268534
-0.000266373
-8.73129e-08
-8.20047e-08
5.83636e-07
0.00108835
-6.1482e-07
1.00263e-06
8.53218e-09
5.37469e-07
-7.66953e-07
-1.38874e-06
-1.14577e-07
-1.58578e-06
1.20681e-06
5.8298e-07
0.00108879
-6.17363e-07
1.00567e-06
8.82581e-09
5.45824e-07
-7.72453e-07
-1.39712e-06
-1.10006e-07
0.00109166
1.17587e-06
-0.00109057
5.69439e-07
-1.5791e-06
1.95905e-08
-6.10299e-07
-1.38263e-06
-9.82733e-08
-7.5392e-07
5.53216e-07
1.01878e-06
0.0010921
1.17563e-06
-0.00109101
5.68763e-07
-1.58155e-06
1.98623e-08
-6.10167e-07
-1.38823e-06
-9.37346e-08
-7.59385e-07
5.58988e-07
-6.10455e-07
-6.14961e-07
0.00026565
-9.79469e-07
0.000268561
-0.000266399
-8.4418e-08
-7.90769e-08
5.83078e-07
0.0010894
-6.12539e-07
9.63477e-07
3.10113e-09
5.4058e-07
-7.72247e-07
-1.3913e-06
-1.09869e-07
-1.58055e-06
1.20636e-06
5.83348e-07
0.00108846
-6.17438e-07
1.00019e-06
8.74837e-09
5.40451e-07
-7.72039e-07
-1.39122e-06
-1.09865e-07
0.00109272
1.17648e-06
-0.00109163
5.6895e-07
-1.54075e-06
1.41064e-08
-6.05335e-07
-1.3851e-06
-9.35935e-08
-7.5916e-07
5.56388e-07
1.01327e-06
0.00109177
1.17512e-06
-0.00109068
5.69166e-07
-1.57632e-06
1.9762e-08
-6.10255e-07
-1.385e-06
-9.35779e-08
-7.5894e-07
5.56297e-07
1.20639e-06
5.83447e-07
0.00108826
-6.11875e-07
9.94802e-07
3.40962e-09
5.37605e-07
-7.69478e-07
-1.12217e-07
-1.38873e-06
1.17593e-06
-0.00109136
5.68078e-07
-1.54304e-06
1.45535e-08
-6.0476e-07
-1.38254e-06
-9.5963e-08
5.53378e-07
-7.56495e-07
1.00787e-06
0.00109157
1.17525e-06
-0.00109048
5.69183e-07
-1.57097e-06
1.44142e-08
-6.0467e-07
-1.38256e-06
-9.59314e-08
-7.5643e-07
5.53404e-07
-6.0778e-07
-6.15077e-07
0.000265608
-9.74032e-07
0.00026851
-0.000266357
-8.7097e-08
-7.91876e-08
1.20736e-06
5.82387e-07
0.00108931
-6.09585e-07
9.6102e-07
7.39485e-10
5.35171e-07
-7.69593e-07
-1.12071e-07
-1.38616e-06
1.17633e-06
-0.00109102
5.68467e-07
-1.53763e-06
1.18193e-08
-6.02044e-07
-1.38238e-06
-9.36891e-08
5.53308e-07
-7.59107e-07
9.74091e-07
0.00109263
1.17642e-06
-0.00109154
5.68038e-07
-1.53782e-06
1.18051e-08
-6.02297e-07
-1.38009e-06
-9.58856e-08
-7.56646e-07
5.50851e-07
-0.00026637
-8.44979e-08
-7.92161e-08
1.57791e-06
1.5395e-06
-5.95811e-07
-6.01405e-07
0.000266614
-1.03151e-06
-9.92168e-07
0.000269473
-0.000267315
-6.99949e-08
-6.45478e-08
5.65223e-07
0.00109274
-6.08205e-07
1.01988e-06
2.29934e-08
5.58404e-07
-7.49853e-07
-1.38063e-06
-9.09986e-08
-1.58039e-06
1.16596e-06
5.6461e-07
0.00109318
-6.08109e-07
1.02288e-06
2.32085e-08
5.64183e-07
-7.55336e-07
-1.38622e-06
-8.87028e-08
0.0010959
1.13939e-06
-0.00109486
5.5386e-07
-1.57505e-06
3.25062e-08
-6.02989e-07
-1.37492e-06
-7.70535e-08
-7.41331e-07
5.73597e-07
1.03447e-06
0.00109634
1.13904e-06
-0.0010953
5.53346e-07
-1.57758e-06
3.27528e-08
-6.02909e-07
-1.38052e-06
-7.47886e-08
-7.44121e-07
5.79377e-07
-5.98643e-07
-6.03268e-07
0.00026664
-9.95088e-07
0.0002695
-0.000267342
-6.71405e-08
-6.1697e-08
5.64664e-07
0.0010938
-6.03216e-07
9.80594e-07
1.74787e-08
5.61535e-07
-7.55113e-07
-1.38312e-06
-8.85824e-08
-1.57516e-06
1.16552e-06
5.65028e-07
0.00109285
-6.08205e-07
1.01737e-06
2.31092e-08
5.61466e-07
-7.54921e-07
-1.38302e-06
-8.85766e-08
0.00109696
1.14049e-06
-0.00109592
5.5321e-07
-1.53637e-06
2.67173e-08
-5.9779e-07
-1.37755e-06
-7.47318e-08
-7.43972e-07
5.76583e-07
1.02898e-06
0.00109601
1.13886e-06
-0.00109497
5.53663e-07
-1.57233e-06
3.26238e-08
-6.02995e-07
-1.37743e-06
-7.47271e-08
-7.43768e-07
5.76546e-07
1.16564e-06
5.64994e-07
0.00109265
-6.02599e-07
1.01197e-06
1.77399e-08
5.58578e-07
-7.52396e-07
-9.09031e-08
-1.38057e-06
1.14009e-06
-0.00109565
5.52515e-07
-1.53873e-06
2.70562e-08
-5.97313e-07
-1.37498e-06
-7.70463e-08
5.73617e-07
-7.41335e-07
1.0236e-06
0.0010958
1.13908e-06
-0.00109476
5.53838e-07
-1.56693e-06
2.68866e-08
-5.97315e-07
-1.37492e-06
-7.6983e-08
-7.41199e-07
5.73709e-07
-5.95947e-07
-6.03395e-07
0.000266598
-9.8957e-07
0.000269449
-0.000267299
-6.99134e-08
-6.17832e-08
1.16688e-06
5.63803e-07
0.00109371
-6.00197e-07
9.78185e-07
1.51519e-08
5.55991e-07
-7.52644e-07
-9.08873e-08
-1.37813e-06
1.14043e-06
-0.0010953
5.52989e-07
-1.53335e-06
2.42621e-08
-5.94607e-07
-1.3748e-06
-7.48411e-08
5.73579e-07
-7.43953e-07
9.89754e-07
0.00109687
1.14036e-06
-0.00109583
5.5257e-07
-1.53358e-06
2.43097e-08
-5.94841e-07
-1.3725e-06
-7.69858e-08
-7.41489e-07
5.71102e-07
-0.000267313
-6.71381e-08
-6.18425e-08
1.57436e-06
1.53553e-06
-5.86142e-07
-5.91753e-07
0.000267541
-1.04499e-06
-1.00569e-06
0.000270355
-0.000268199
-5.5502e-08
-4.96897e-08
5.50091e-07
0.00109693
-6.01692e-07
1.03506e-06
3.68234e-08
5.7853e-07
-7.37938e-07
-1.37315e-06
-7.28074e-08
-1.5769e-06
1.13053e-06
5.49615e-07
0.00109737
-6.01619e-07
1.038e-06