/*--------------------------------*- C++ -*----------------------------------*\
| =========                 |                                                 |
| \\      /  F ield         | OpenFOAM: The Open Source CFD Toolbox           |
|  \\    /   O peration     | Version:  v1906                                 |
|   \\  /    A nd           | Web:      www.OpenFOAM.com                      |
|    \\/     M anipulation  |                                                 |
\*---------------------------------------------------------------------------*/
FoamFile
{
    version     2.0;
    format      ascii;
    class       volVectorField;
    location    "850";
    object      U;
}
// * * * * * * * * * * * * * * * * * * * * * * * * * * * * * * * * * * * * * //

dimensions      [0 1 -1 0 0 0 0];


internalField   nonuniform List<vector> 
42616
(
(0.000106175 0.000106104 0.100294)
(-0.000184175 0.000115373 0.10039)
(0.000115524 -0.000184963 0.10039)
(-0.000247821 -0.000247751 0.100398)
(9.72765e-05 9.71687e-05 0.100854)
(-0.000151755 9.319e-05 0.100937)
(9.3592e-05 -0.000151502 0.100938)
(-0.000194456 -0.000194489 0.100971)
(9.71128e-05 9.70043e-05 0.101368)
(-0.000152536 9.07166e-05 0.101447)
(9.09327e-05 -0.000152256 0.101447)
(-0.000194938 -0.000194849 0.101474)
(9.48248e-05 9.48496e-05 0.101886)
(-0.000149378 8.71101e-05 0.101954)
(8.72649e-05 -0.000149237 0.101954)
(-0.000192291 -0.000192218 0.101967)
(9.13962e-05 9.14992e-05 0.102391)
(-0.000143632 8.23993e-05 0.102442)
(8.25233e-05 -0.000143661 0.102442)
(-0.000186995 -0.000186982 0.102435)
(8.7954e-05 8.79956e-05 0.102877)
(-0.000137708 7.83725e-05 0.102907)
(7.84253e-05 -0.000137749 0.102907)
(-0.000181563 -0.000181561 0.102874)
(8.48242e-05 8.4848e-05 0.103344)
(-0.000132311 7.51196e-05 0.103348)
(7.51547e-05 -0.000132323 0.103348)
(-0.000176916 -0.000176917 0.103285)
(8.21077e-05 8.21314e-05 0.103793)
(-0.000127582 7.25472e-05 0.103768)
(7.25738e-05 -0.000127592 0.103768)
(-0.000173139 -0.000173183 0.103668)
(7.98348e-05 7.98143e-05 0.104226)
(-0.000123502 7.05342e-05 0.104168)
(7.05753e-05 -0.000123488 0.104168)
(-0.000170195 -0.000170271 0.104027)
(7.79022e-05 7.78231e-05 0.104645)
(-0.000120011 6.91903e-05 0.10455)
(6.91713e-05 -0.000119933 0.10455)
(-0.000168069 -0.000168077 0.104363)
(7.617e-05 7.60893e-05 0.105053)
(-0.000116868 6.81203e-05 0.104917)
(6.81435e-05 -0.000116759 0.104917)
(-0.000166532 -0.000166517 0.104678)
(7.45993e-05 7.45142e-05 0.105449)
(-0.000113903 6.71294e-05 0.105269)
(6.71538e-05 -0.000113799 0.105269)
(-0.000165196 -0.000165195 0.104972)
(7.31248e-05 7.30429e-05 0.105836)
(-0.000111216 6.61331e-05 0.105606)
(6.61727e-05 -0.00011117 0.105606)
(-0.000164031 -0.000164108 0.105245)
(7.16524e-05 7.15872e-05 0.106213)
(-0.000108737 6.50532e-05 0.10593)
(6.50979e-05 -0.000108701 0.10593)
(-0.000162993 -0.000163032 0.105497)
(7.02054e-05 7.01613e-05 0.106581)
(-0.000106309 6.40083e-05 0.106239)
(6.40291e-05 -0.000106274 0.106239)
(-0.000161745 -0.00016175 0.105727)
(6.87741e-05 6.87568e-05 0.10694)
(-0.000103938 6.30084e-05 0.106534)
(6.3015e-05 -0.000103896 0.106533)
(-0.000160249 -0.000160273 0.105934)
(6.73734e-05 6.73858e-05 0.10729)
(-0.000101612 6.2009e-05 0.106813)
(6.19912e-05 -0.000101558 0.106813)
(-0.000158627 -0.000158652 0.106117)
(6.60343e-05 6.60775e-05 0.107631)
(-9.93292e-05 6.10045e-05 0.107077)
(6.10106e-05 -9.93837e-05 0.107077)
(-0.00015681 -0.00015684 0.106274)
(6.47506e-05 6.47999e-05 0.107963)
(-9.73238e-05 6.00665e-05 0.107325)
(6.00676e-05 -9.74159e-05 0.107325)
(-0.000154725 -0.000154789 0.106405)
(6.35073e-05 6.35184e-05 0.108287)
(-9.54499e-05 5.90748e-05 0.107556)
(5.91138e-05 -9.55435e-05 0.107556)
(-0.000152276 -0.000152379 0.106508)
(6.22812e-05 6.22591e-05 0.108602)
(-9.36135e-05 5.8065e-05 0.10777)
(5.80848e-05 -9.37063e-05 0.10777)
(-0.000149407 -0.000149528 0.106585)
(0.000138078 0.000137972 0.10028)
(0.000126483 0.000159795 0.100229)
(-0.000126467 0.000159942 0.100229)
(-0.00013801 0.000137974 0.10028)
(0.000159995 0.000126346 0.100229)
(0.000159914 -0.000126408 0.100229)
(9.38083e-05 9.36567e-05 0.100152)
(-9.38309e-05 9.36971e-05 0.100152)
(9.37554e-05 -9.37846e-05 0.100152)
(-9.38251e-05 -9.37786e-05 0.100152)
(-0.0001601 0.000126379 0.100229)
(-0.000160046 -0.000126385 0.100229)
(0.000137974 -0.000137998 0.10028)
(0.000126333 -0.000159911 0.100229)
(-0.000126474 -0.000159952 0.100229)
(-0.000138074 -0.000137977 0.100281)
(0.000247844 0.000247767 0.100398)
(0.000112801 0.000112709 0.100896)
(0.000115594 0.000184745 0.10039)
(-0.000115552 0.000184864 0.10039)
(9.32098e-05 0.000149076 0.100817)
(-9.28922e-05 0.000149139 0.100817)
(-0.000247712 0.000247735 0.100398)
(-0.000112437 0.000112812 0.100896)
(0.000184927 0.000115458 0.10039)
(0.000184811 -0.000115597 0.10039)
(0.000148957 9.31881e-05 0.100817)
(0.000148952 -9.31683e-05 0.100817)
(-0.000184838 -0.000115599 0.10039)
(-0.000148982 9.27483e-05 0.100816)
(-0.000149125 -9.3233e-05 0.100817)
(0.000247696 -0.000247828 0.100398)
(0.000112691 -0.000112864 0.100896)
(-0.000115618 -0.000184876 0.10039)
(9.31424e-05 -0.000149028 0.100817)
(-9.31676e-05 -0.000149106 0.100817)
(-0.000112846 -0.000112906 0.100896)
(0.000194436 0.000194266 0.100971)
(0.000105533 0.000105272 0.101399)
(9.3666e-05 0.000151501 0.100938)
(-9.34017e-05 0.000151501 0.100938)
(9.14621e-05 0.000152028 0.101319)
(-9.13879e-05 0.000151999 0.101319)
(-0.000194114 0.000194338 0.10097)
(-0.000105592 0.000105103 0.101399)
(0.000151482 9.36046e-05 0.100938)
(0.000151441 -9.36033e-05 0.100938)
(0.000152172 9.13729e-05 0.101319)
(0.000152108 -9.14192e-05 0.101319)
(-0.000151715 -9.36756e-05 0.100938)
(-0.000152455 9.11352e-05 0.101318)
(-0.000152384 -9.14228e-05 0.101319)
(0.000194263 -0.000194446 0.100971)
(0.000105392 -0.000105485 0.101399)
(-9.36802e-05 -0.000151586 0.100938)
(9.14133e-05 -0.00015214 0.101319)
(-9.15608e-05 -0.000152167 0.101319)
(-0.000105599 -0.000105491 0.101399)
(0.000194907 0.000194648 0.101474)
(9.7839e-05 9.78105e-05 0.101896)
(9.09438e-05 0.000152181 0.101447)
(-9.09157e-05 0.000152133 0.101447)
(8.83619e-05 0.000150491 0.101828)
(-8.83113e-05 0.000150334 0.101828)
(-0.000194968 0.000194489 0.101474)
(-9.78975e-05 9.75445e-05 0.101896)
(0.000152302 9.0886e-05 0.101447)
(0.000152249 -9.09165e-05 0.101447)
(0.000150436 8.83998e-05 0.101828)
(0.000150441 -8.83113e-05 0.101828)
(-0.000152487 -9.09411e-05 0.101447)
(-0.000150576 8.82341e-05 0.101828)
(-0.000150589 -8.83612e-05 0.101828)
(0.000194754 -0.000194849 0.101474)
(9.77312e-05 -9.78128e-05 0.101896)
(-9.10979e-05 -0.000152302 0.101447)
(8.83921e-05 -0.000150392 0.101828)
(-8.8501e-05 -0.000150459 0.101828)
(-9.7919e-05 -9.78168e-05 0.101896)
(0.000192253 0.000192227 0.101967)
(8.84458e-05 8.85685e-05 0.10237)
(8.72199e-05 0.00014938 0.101953)
(-8.7157e-05 0.000149198 0.101953)
(8.36053e-05 0.00014533 0.102322)
(-8.34696e-05 0.000145148 0.102322)
(-0.000192297 0.00019197 0.101967)
(-8.84256e-05 8.82973e-05 0.10237)
(0.000149258 8.72918e-05 0.101954)
(0.000149284 -8.71794e-05 0.101954)
(0.000145067 8.37572e-05 0.102322)
(0.000145149 -8.35932e-05 0.102322)
(-0.000149418 -8.72266e-05 0.101954)
(-0.000145143 8.35676e-05 0.102322)
(-0.000145251 -8.36752e-05 0.102322)
(0.000192148 -0.000192221 0.101967)
(8.84281e-05 -8.85224e-05 0.10237)
(-8.7361e-05 -0.000149294 0.101954)
(8.36927e-05 -0.00014514 0.102322)
(-8.37599e-05 -0.000145148 0.102322)
(-8.85693e-05 -8.85128e-05 0.10237)
(0.000186926 0.000187006 0.102435)
(7.96559e-05 7.97822e-05 0.102816)
(8.2422e-05 0.000143842 0.102442)
(-8.22923e-05 0.00014369 0.102442)
(7.93196e-05 0.000139352 0.102793)
(-7.92008e-05 0.000139282 0.102793)
(-0.000186884 0.000186755 0.102435)
(-7.95944e-05 7.96838e-05 0.102816)
(0.000143573 8.25612e-05 0.102442)
(0.000143664 -8.24385e-05 0.102442)
(0.000139135 7.93841e-05 0.102793)
(0.000139223 -7.93226e-05 0.102793)
(-0.000143748 -8.24861e-05 0.102442)
(-0.000139148 7.9298e-05 0.102793)
(-0.000139262 -7.9345e-05 0.102793)
(0.000186869 -0.000187001 0.102435)
(7.97334e-05 -7.96949e-05 0.102816)
(-8.25612e-05 -0.000143656 0.102442)
(7.93636e-05 -0.000139199 0.102793)
(-7.93588e-05 -0.000139182 0.102793)
(-7.97492e-05 -7.96892e-05 0.102816)
(0.000181538 0.000181597 0.102874)
(7.19742e-05 7.20376e-05 0.103234)
(7.84007e-05 0.000137895 0.102907)
(-7.82901e-05 0.000137857 0.102907)
(7.59307e-05 0.000133765 0.10324)
(-7.58179e-05 0.000133719 0.10324)
(-0.00018145 0.000181493 0.102874)
(-7.18809e-05 7.19526e-05 0.103234)
(0.000137708 7.8443e-05 0.102907)
(0.000137785 -7.83845e-05 0.102907)
(0.000133612 7.59537e-05 0.10324)
(0.000133654 -7.58678e-05 0.10324)
(-0.000137818 -7.84073e-05 0.102907)
(-0.000133598 7.58656e-05 0.10324)
(-0.000133696 -7.58907e-05 0.10324)
(0.000181532 -0.000181567 0.102874)
(7.19687e-05 -7.19249e-05 0.103234)
(-7.84139e-05 -0.000137735 0.102907)
(7.5906e-05 -0.000133615 0.10324)
(-7.58895e-05 -0.000133609 0.10324)
(-7.19893e-05 -7.19294e-05 0.103234)
(0.000176972 0.000176978 0.103285)
(6.51688e-05 6.52356e-05 0.103626)
(7.51981e-05 0.000132472 0.103348)
(-7.50837e-05 0.000132418 0.103348)
(7.32224e-05 0.000128852 0.103665)
(-7.31197e-05 0.000128769 0.103665)
(-0.000176844 0.000176866 0.103285)
(-6.50847e-05 6.51288e-05 0.103626)
(0.000132322 7.52242e-05 0.103348)
(0.00013235 -7.5126e-05 0.103348)
(0.000128685 7.32623e-05 0.103665)
(0.0001287 -7.31583e-05 0.103665)
(-0.000132401 -7.51453e-05 0.103348)
(-0.000128698 7.31376e-05 0.103665)
(-0.000128767 -7.31727e-05 0.103665)
(0.000176874 -0.000176915 0.103285)
(6.51309e-05 -6.5129e-05 0.103626)
(-7.51393e-05 -0.000132317 0.103348)
(7.31625e-05 -0.000128709 0.103665)
(-7.31479e-05 -0.000128714 0.103665)
(-6.51544e-05 -6.51349e-05 0.103625)
(0.00017322 0.000173214 0.103668)
(5.91971e-05 5.92784e-05 0.103993)
(7.26358e-05 0.000127714 0.103768)
(-7.25444e-05 0.000127636 0.103768)
(7.10825e-05 0.000124545 0.104069)
(-7.10091e-05 0.00012447 0.10407)
(-0.000173102 0.000173092 0.103668)
(-5.91446e-05 5.92074e-05 0.103993)
(0.000127561 7.2672e-05 0.103768)
(0.000127576 -7.25831e-05 0.103768)
(0.000124425 7.1087e-05 0.10407)
(0.000124438 -7.10338e-05 0.10407)
(-0.000127641 -7.25927e-05 0.103768)
(-0.000124459 7.09825e-05 0.10407)
(-0.000124497 -7.10376e-05 0.10407)
(0.000173092 -0.000173181 0.103668)
(5.9232e-05 -5.91721e-05 0.103993)
(-7.25607e-05 -0.000127598 0.103768)
(7.1018e-05 -0.000124457 0.10407)
(-7.09965e-05 -0.000124464 0.10407)
(-5.91863e-05 -5.9182e-05 0.103993)
(0.000170289 0.000170202 0.104027)
(5.42118e-05 5.43615e-05 0.104338)
(7.06719e-05 0.000123575 0.104168)
(-7.0604e-05 0.000123501 0.104168)
(6.97114e-05 0.000120895 0.104456)
(-6.96522e-05 0.00012082 0.104456)
(-0.000170187 0.000170104 0.104027)
(-5.41819e-05 5.43202e-05 0.104338)
(0.000123465 7.06399e-05 0.104168)
(0.00012348 -7.06202e-05 0.104168)
(0.000120795 6.9558e-05 0.104456)
(0.000120813 -6.96267e-05 0.104456)
(-0.000123528 -7.05771e-05 0.104168)
(-0.000120838 6.94888e-05 0.104456)
(-0.000120842 -6.94829e-05 0.104456)
(0.000170131 -0.000170273 0.104027)
(5.43542e-05 -5.409e-05 0.104338)
(-7.05336e-05 -0.000123493 0.104168)
(6.9464e-05 -0.000120774 0.104456)
(-6.94105e-05 -0.000120769 0.104456)
(-5.41809e-05 -5.40792e-05 0.104338)
(0.000168173 0.000168148 0.104363)
(4.9782e-05 4.99053e-05 0.104663)
(6.94251e-05 0.000120067 0.10455)
(-6.93693e-05 0.000119989 0.10455)
(6.8663e-05 0.000117716 0.104826)
(-6.85791e-05 0.000117619 0.104827)
(-0.000168092 0.000168067 0.104363)
(-4.96944e-05 4.98507e-05 0.104663)
(0.000119966 6.92635e-05 0.10455)
(0.000119986 -6.93437e-05 0.10455)
(0.000117595 6.84908e-05 0.104827)
(0.000117619 -6.85624e-05 0.104827)
(-0.000120019 -6.91943e-05 0.10455)
(-0.000117632 6.83776e-05 0.104827)
(-0.000117661 -6.84048e-05 0.104827)
(0.000168108 -0.000168092 0.104363)
(4.98887e-05 -4.96702e-05 0.104663)
(-6.91218e-05 -0.000119932 0.10455)
(6.83962e-05 -0.000117531 0.104827)
(-6.8346e-05 -0.000117534 0.104827)
(-4.97592e-05 -4.96529e-05 0.104663)
(0.000166622 0.000166593 0.104678)
(4.55778e-05 4.56375e-05 0.104968)
(6.84005e-05 0.000116945 0.104917)
(-6.83236e-05 0.000116854 0.104917)
(6.76449e-05 0.000114712 0.105182)
(-6.75701e-05 0.00011463 0.105182)
(-0.00016652 0.00016651 0.104678)
(-4.55104e-05 4.56382e-05 0.104968)
(0.000116826 6.82319e-05 0.104917)
(0.000116851 -6.83069e-05 0.104917)
(0.000114598 6.74801e-05 0.105182)
(0.000114612 -6.75554e-05 0.105182)
(-0.000116905 -6.81495e-05 0.104917)
(-0.000114623 6.73751e-05 0.105182)
(-0.000114673 -6.73998e-05 0.105182)
(0.000166557 -0.000166542 0.104678)
(4.5648e-05 -4.55126e-05 0.104968)
(-6.80936e-05 -0.000116769 0.104917)
(6.74027e-05 -0.000114528 0.105182)
(-6.73432e-05 -0.000114532 0.105182)
(-4.55462e-05 -4.54865e-05 0.104968)
(0.000165287 0.000165228 0.104972)
(4.16268e-05 4.16174e-05 0.105253)
(6.73912e-05 0.000113989 0.105268)
(-6.73188e-05 0.000113903 0.105269)
(6.66357e-05 0.000111931 0.105523)
(-6.65557e-05 0.000111884 0.105523)
(-0.000165185 0.000165185 0.104972)
(-4.1588e-05 4.16613e-05 0.105253)
(0.000113868 6.72331e-05 0.105269)
(0.000113878 -6.73051e-05 0.105268)
(0.000111857 6.64961e-05 0.105523)
(0.000111863 -6.65446e-05 0.105523)
(-0.000113953 -6.71523e-05 0.105269)
(-0.000111849 6.63896e-05 0.105523)
(-0.00011189 -6.63855e-05 0.105523)
(0.000165205 -0.000165229 0.104972)
(4.16315e-05 -4.15935e-05 0.105253)
(-6.70943e-05 -0.000113812 0.105269)
(6.64266e-05 -0.000111802 0.105523)
(-6.63487e-05 -0.000111769 0.105523)
(-4.15601e-05 -4.15627e-05 0.105253)
(0.000164138 0.000164027 0.105245)
(3.7672e-05 3.77495e-05 0.105519)
(6.63673e-05 0.000111288 0.105606)
(-6.62954e-05 0.000111253 0.105606)
(6.5571e-05 0.000109422 0.10585)
(-6.55276e-05 0.000109388 0.10585)
(-0.000164097 0.000164024 0.105245)
(-3.75892e-05 3.77425e-05 0.105519)
(0.000111227 6.62447e-05 0.105606)
(0.000111231 -6.62848e-05 0.105606)
(0.00010937 6.54286e-05 0.10585)
(0.00010938 -6.55132e-05 0.10585)
(-0.000111255 -6.61282e-05 0.105606)
(-0.000109347 6.5321e-05 0.10585)
(-0.000109387 -6.53558e-05 0.10585)
(0.000164035 -0.000164149 0.105245)
(3.77726e-05 -3.75843e-05 0.105519)
(-6.60937e-05 -0.000111137 0.105606)
(6.53659e-05 -0.000109315 0.10585)
(-6.5289e-05 -0.000109274 0.10585)
(-3.76522e-05 -3.75569e-05 0.105519)
(0.000163076 0.000162992 0.105497)
(3.35112e-05 3.36321e-05 0.105764)
(6.53027e-05 0.0001088 0.10593)
(-6.52664e-05 0.000108778 0.10593)
(6.45413e-05 0.000106976 0.106163)
(-6.45281e-05 0.00010695 0.106163)
(-0.000163024 0.000162978 0.105497)
(-3.34146e-05 3.3602e-05 0.105764)
(0.000108752 6.51602e-05 0.10593)
(0.000108771 -6.5253e-05 0.105929)
(0.000106923 6.43799e-05 0.106163)
(0.000106956 -6.45107e-05 0.106163)
(-0.000108776 -6.50963e-05 0.10593)
(-0.000106907 6.42614e-05 0.106163)
(-0.000106952 -6.4351e-05 0.106163)
(0.000163002 -0.000163058 0.105497)
(3.36908e-05 -3.34128e-05 0.105764)
(-6.50261e-05 -0.000108662 0.10593)
(6.42922e-05 -0.000106879 0.106163)
(-6.42396e-05 -0.00010684 0.106163)
(-3.35138e-05 -3.3373e-05 0.105764)
(0.000161797 0.000161768 0.105727)
(2.94008e-05 2.95095e-05 0.105986)
(6.42877e-05 0.000106362 0.106239)
(-6.42826e-05 0.000106355 0.106239)
(6.35316e-05 0.000104589 0.106461)
(-6.35602e-05 0.000104576 0.106461)
(-0.000161751 0.000161732 0.105728)
(-2.93361e-05 2.94751e-05 0.105987)
(0.000106311 6.41233e-05 0.106239)
(0.000106354 -6.42623e-05 0.106239)
(0.00010452 6.33934e-05 0.106461)
(0.000104569 -6.35191e-05 0.106461)
(-0.00010635 -6.41059e-05 0.106239)
(-0.000104525 6.32704e-05 0.106461)
(-0.000104567 -6.33667e-05 0.106461)
(0.000161787 -0.000161781 0.105727)
(2.95301e-05 -2.93249e-05 0.105986)
(-6.39877e-05 -0.00010624 0.106239)
(6.32687e-05 -0.000104487 0.106461)
(-6.32468e-05 -0.000104453 0.106461)
(-2.93805e-05 -2.92816e-05 0.105986)
(0.000160298 0.000160278 0.105934)
(2.55222e-05 2.56468e-05 0.106186)
(6.32788e-05 0.000103984 0.106533)
(-6.32975e-05 0.000103981 0.106533)
(6.25108e-05 0.00010226 0.106744)
(-6.25483e-05 0.000102235 0.106744)
(-0.000160273 0.000160238 0.105935)
(-2.55012e-05 2.5556e-05 0.106186)
(0.000103915 6.31406e-05 0.106533)
(0.000103973 -6.32669e-05 0.106533)
(0.00010216 6.24078e-05 0.106745)
(0.000102221 -6.25043e-05 0.106744)
(-0.000103985 -6.3115e-05 0.106533)
(-0.000102188 6.22611e-05 0.106745)
(-0.000102241 -6.23589e-05 0.106744)
(0.000160276 -0.000160307 0.105934)
(2.56245e-05 -2.54612e-05 0.106186)
(-6.29969e-05 -0.000103866 0.106533)
(6.22507e-05 -0.000102144 0.106745)
(-6.22452e-05 -0.000102103 0.106745)
(-2.55024e-05 -2.54168e-05 0.106186)
(0.000158657 0.000158672 0.106117)
(2.19596e-05 2.21057e-05 0.106361)
(6.22554e-05 0.000101665 0.106813)
(-6.22821e-05 0.00010166 0.106813)
(6.14953e-05 0.000100013 0.107012)
(-6.15084e-05 9.99466e-05 0.107012)
(-0.000158676 0.000158602 0.106117)
(-2.1932e-05 2.19772e-05 0.106361)
(0.000101562 6.21461e-05 0.106813)
(0.000101634 -6.22441e-05 0.106813)
(9.98981e-05 6.14304e-05 0.107013)
(9.99573e-05 -6.14933e-05 0.107012)
(-0.000101669 -6.21027e-05 0.106813)
(-9.98742e-05 6.12491e-05 0.107013)
(-9.99466e-05 -6.13417e-05 0.107012)
(0.000158626 -0.000158678 0.106117)
(2.20463e-05 -2.19119e-05 0.10636)
(-6.19917e-05 -0.000101526 0.106813)
(6.12478e-05 -9.98861e-05 0.107013)
(-6.12395e-05 -9.97951e-05 0.107013)
(-2.19377e-05 -2.18617e-05 0.10636)
(0.000156839 0.000156888 0.106274)
(1.86607e-05 1.87936e-05 0.106509)
(6.12591e-05 9.95126e-05 0.107077)
(-6.12483e-05 9.94103e-05 0.107077)
(6.05355e-05 9.80225e-05 0.107264)
(-6.05223e-05 9.79018e-05 0.107264)
(-0.00015684 0.000156783 0.106274)
(-1.86233e-05 1.86728e-05 0.10651)
(9.93794e-05 6.11782e-05 0.107077)
(9.94573e-05 -6.1254e-05 0.107077)
(9.79221e-05 6.04977e-05 0.107265)
(9.79707e-05 -6.05369e-05 0.107264)
(-9.94065e-05 -6.10942e-05 0.107077)
(-9.78007e-05 6.03041e-05 0.107265)
(-9.78756e-05 -6.0387e-05 0.107264)
(0.000156809 -0.000156867 0.106274)
(1.87341e-05 -1.86133e-05 0.106509)
(-6.09925e-05 -9.92532e-05 0.107077)
(6.03065e-05 -9.78934e-05 0.107264)
(-6.02701e-05 -9.77523e-05 0.107264)
(-1.86164e-05 -1.85806e-05 0.106509)
(0.000154783 0.000154835 0.106405)
(1.55645e-05 1.56423e-05 0.106631)
(6.02986e-05 9.75871e-05 0.107325)
(-6.02722e-05 9.74286e-05 0.107324)
(5.95757e-05 9.60789e-05 0.107499)
(-5.95346e-05 9.60366e-05 0.107499)
(-0.000154763 0.000154727 0.106405)
(-1.54858e-05 1.55718e-05 0.106631)
(9.74226e-05 6.02304e-05 0.107325)
(9.7495e-05 -6.02953e-05 0.107324)
(9.60437e-05 5.95205e-05 0.1075)
(9.6077e-05 -5.9565e-05 0.107499)
(-9.73979e-05 -6.01463e-05 0.107324)
(-9.59027e-05 5.93272e-05 0.1075)
(-9.59585e-05 -5.94368e-05 0.107499)
(0.000154746 -0.000154806 0.106405)
(1.56115e-05 -1.54941e-05 0.106631)
(-6.00254e-05 -9.72753e-05 0.107325)
(5.93483e-05 -9.60022e-05 0.1075)
(-5.92901e-05 -9.58779e-05 0.1075)
(-1.5495e-05 -1.55086e-05 0.106631)
(0.000152361 0.000152391 0.106508)
(1.2688e-05 1.26634e-05 0.106725)
(5.93354e-05 9.5646e-05 0.107556)
(-5.9284e-05 9.55741e-05 0.107556)
(5.85594e-05 9.41237e-05 0.107717)
(-5.85257e-05 9.42099e-05 0.107718)
(-0.000152302 0.000152297 0.106509)
(-1.25805e-05 1.26125e-05 0.106726)
(9.55507e-05 5.9215e-05 0.107556)
(9.56182e-05 -5.93207e-05 0.107555)
(9.42246e-05 5.84915e-05 0.107718)
(9.42365e-05 -5.85433e-05 0.107717)
(-9.55063e-05 -5.91918e-05 0.107556)
(-9.40647e-05 5.83251e-05 0.107718)
(-9.41e-05 -5.8444e-05 0.107718)
(0.000152315 -0.000152373 0.106508)
(1.2682e-05 -1.25593e-05 0.106725)
(-5.9043e-05 -9.54286e-05 0.107556)
(5.83464e-05 -9.41598e-05 0.107718)
(-5.82646e-05 -9.40551e-05 0.107718)
(-1.25344e-05 -1.2581e-05 0.106725)
(0.000149518 0.00014953 0.106585)
(5.82959e-05 9.37347e-05 0.10777)
(-5.82548e-05 9.37537e-05 0.107769)
(-0.000149456 0.000149416 0.106585)
(9.37105e-05 5.81403e-05 0.10777)
(9.37844e-05 -5.82773e-05 0.107769)
(-9.36711e-05 -5.81827e-05 0.107769)
(0.000149477 -0.000149528 0.106585)
(-5.80016e-05 -9.36062e-05 0.10777)
(-4.027e-07 -4.03932e-07 0.0999987)
(1.81854e-05 1.81714e-05 0.100004)
(-1.99798e-07 1.34213e-05 0.1)
(1.3431e-05 -2.00679e-07 0.1)
(-5.17463e-05 7.06357e-06 0.100012)
(-2.01348e-05 1.84516e-05 0.100002)
(-0.00013642 5.8806e-05 0.10007)
(-1.25118e-05 -5.50529e-07 0.0999962)
(7.05193e-06 -5.17759e-05 0.100012)
(1.84642e-05 -2.01342e-05 0.100002)
(-5.60117e-07 -1.24771e-05 0.0999962)
(6.00951e-05 -0.000135131 0.100068)
(-2.44925e-05 -2.44947e-05 0.100007)
(-0.00013403 -8.01335e-05 0.100056)
(-7.9989e-05 -0.000134049 0.100056)
(-1.36313e-05 0.000147723 0.100668)
(0.000226043 0.000576511 0.0996072)
(1.02456e-05 0.000335546 0.100559)
(-4.05318e-05 0.000366303 0.099038)
(-0.000412886 0.000954749 0.0979414)
(-0.000209247 0.00040095 0.0956691)
(0.000146639 -1.3639e-05 0.100668)
(0.000576489 0.000225529 0.0996113)
(0.000335938 1.13182e-05 0.100561)
(0.000365814 -3.74691e-05 0.0990404)
(-0.00010632 0.000106089 0.100294)
(0.00010615 -0.000106235 0.100294)
(-0.000106231 -0.000106189 0.100294)
(9.48727e-05 9.47967e-05 0.100733)
(-9.44628e-05 9.4661e-05 0.100732)
(9.47883e-05 -9.4877e-05 0.100733)
(-9.48403e-05 -9.49501e-05 0.100733)
(-0.00025336 4.97507e-06 0.100718)
(-0.00038736 0.000205376 0.100573)
(-0.000168635 3.99367e-05 0.100331)
(-0.000144469 8.84104e-05 0.100561)
(-0.000335671 2.65087e-05 0.100497)
(-0.000148999 0.000171158 0.10066)
(-0.000140784 3.2182e-05 0.100497)
(0.000952952 -0.000409665 0.0979385)
(0.000400467 -0.000207892 0.0956701)
(5.96528e-06 -0.000252737 0.100719)
(4.00901e-05 -0.000168969 0.100331)
(0.000204819 -0.000387223 0.100572)
(8.85966e-05 -0.000145324 0.100561)
(2.67398e-05 -0.000335038 0.100496)
(3.24013e-05 -0.000141071 0.100497)
(0.000168718 -0.000150449 0.100661)
(-0.000416686 -0.000169564 0.100452)
(-0.000169486 -0.000417054 0.100453)
(-0.000112664 -0.000112647 0.100646)
(-2.1604e-05 -9.10404e-05 0.100491)
(-9.09579e-05 -2.18581e-05 0.10049)
(9.76375e-07 0.000177746 0.100867)
(-4.58126e-05 0.00035645 0.0983229)
(-3.47637e-06 0.000192545 0.100779)
(-3.95288e-05 0.000318765 0.0979421)
(-0.000195358 0.000323039 0.0926296)
(-0.000170728 0.000277905 0.0910083)
(0.000177936 4.64394e-07 0.100867)
(0.000356613 -4.52205e-05 0.098323)
(0.000192438 -3.93154e-06 0.100779)
(0.000319151 -3.9697e-05 0.0979423)
(-9.6868e-05 9.69854e-05 0.100853)
(9.7183e-05 -9.72482e-05 0.100854)
(-9.72554e-05 -9.72855e-05 0.100854)
(9.72821e-05 9.71527e-05 0.101238)
(-9.7179e-05 9.70215e-05 0.101238)
(9.71894e-05 -9.72454e-05 0.101238)
(-9.73183e-05 -9.7226e-05 0.101238)
(-0.000249796 1.9593e-05 0.101154)
(-0.000203126 0.000199438 0.100819)
(-0.00015711 2.99568e-05 0.100888)
(-0.000152239 9.23603e-05 0.101062)
(-0.000290207 1.76445e-05 0.100984)
(-0.000170694 0.000183149 0.100945)
(-0.000159111 3.01462e-05 0.101014)
(0.000323076 -0.000194916 0.0926262)
(0.00027798 -0.000170315 0.0910092)
(1.98588e-05 -0.000248253 0.101155)
(3.04519e-05 -0.000156704 0.100889)
(0.000198821 -0.000205167 0.100824)
(9.27507e-05 -0.000151895 0.101063)
(1.83456e-05 -0.00028858 0.100985)
(3.05431e-05 -0.000158661 0.101015)
(0.000183954 -0.000171528 0.100947)
(-5.91065e-05 -9.20979e-05 0.100439)
(-9.16537e-05 -5.89396e-05 0.10044)
(-0.000108865 -0.000108804 0.101146)
(-6.35974e-05 -7.30463e-05 0.100439)
(-7.27881e-05 -6.34132e-05 0.100439)
(3.83915e-06 0.000195758 0.100967)
(-2.02936e-05 0.000325919 0.097121)
(2.33339e-06 0.000223164 0.100897)
(-1.1442e-05 0.000284287 0.0967111)
(-0.000146693 0.000232614 0.088381)
(-0.000119168 0.000189409 0.0870806)
(0.000195745 3.80207e-06 0.100967)
(0.000326442 -2.03732e-05 0.0971216)
(0.0002234 2.24032e-06 0.100898)
(0.000284767 -1.12382e-05 0.0967116)
(-9.70765e-05 9.69087e-05 0.101368)
(9.7037e-05 -9.70833e-05 0.101368)
(-9.71628e-05 -9.70665e-05 0.101368)
(9.55922e-05 9.5581e-05 0.101757)
(-9.56114e-05 9.54831e-05 0.101757)
(9.55751e-05 -9.55793e-05 0.101757)
(-9.56596e-05 -9.55764e-05 0.101757)
(-0.000242432 1.83903e-05 0.101587)
(-0.000220845 0.000187497 0.101025)
(-0.000161353 3.05076e-05 0.101404)
(-0.00015226 9.01036e-05 0.101575)
(-0.000288345 1.86713e-05 0.101417)
(-0.000177359 0.000163902 0.101133)
(-0.000161607 3.04914e-05 0.101534)
(0.00023269 -0.000146345 0.0883771)
(0.000189659 -0.000118883 0.0870818)
(1.83914e-05 -0.000241767 0.101586)
(3.06444e-05 -0.000161025 0.101404)
(0.000188318 -0.000220802 0.101026)
(9.02885e-05 -0.000152008 0.101575)
(1.86999e-05 -0.000287479 0.101417)
(3.05851e-05 -0.000161306 0.101534)
(0.000164271 -0.00017714 0.101132)
(-9.79364e-05 -8.59223e-05 0.100179)
(-8.58251e-05 -9.78994e-05 0.10018)
(-0.000102163 -0.00010205 0.10165)
(-9.44767e-05 -6.3142e-05 0.100112)
(-6.30594e-05 -9.45683e-05 0.100111)
(2.73375e-06 0.00019819 0.100968)
(4.95742e-06 0.000289853 0.0958337)
(2.43273e-06 0.000234345 0.10092)
(9.44856e-06 0.000245319 0.0954189)
(-9.8402e-05 0.000157109 0.0849685)
(-7.38531e-05 0.000120098 0.0839829)
(0.000197732 2.88219e-06 0.100968)
(0.000290185 5.38385e-06 0.0958332)
(0.000234157 2.52908e-06 0.100922)
(0.000245444 1.01323e-05 0.0954183)
(-9.48333e-05 9.47294e-05 0.101886)
(9.48245e-05 -9.48213e-05 0.101886)
(-9.48948e-05 -9.48168e-05 0.101886)
(9.22761e-05 9.23782e-05 0.102266)
(-9.22429e-05 9.22465e-05 0.102266)
(9.23208e-05 -9.23103e-05 0.102266)
(-9.23435e-05 -9.22922e-05 0.102266)
(-0.00023084 1.60701e-05 0.101987)
(-0.0002199 0.000165957 0.101137)
(-0.000159922 2.99355e-05 0.101919)
(-0.000148047 8.59476e-05 0.102078)
(-0.00028183 1.6244e-05 0.101825)
(-0.000171301 0.000138697 0.101225)
(-0.000158888 2.967e-05 0.102046)
(0.000157262 -9.77846e-05 0.0849651)
(0.000120275 -7.32243e-05 0.0839848)
(1.62424e-05 -0.000230609 0.101986)
(2.99975e-05 -0.000159732 0.101919)
(0.000166225 -0.000219822 0.101137)
(8.60895e-05 -0.000147953 0.102078)
(1.63117e-05 -0.000281468 0.101825)
(2.97392e-05 -0.000158725 0.102045)
(0.000138798 -0.000171215 0.101223)
(-0.000118744 -7.57503e-05 0.0997175)
(-7.56737e-05 -0.000118901 0.099717)
(-9.32961e-05 -9.32119e-05 0.102136)
(-0.000109651 -5.16807e-05 0.0996046)
(-5.16089e-05 -0.000109812 0.0996034)
(4.91236e-07 0.000191443 0.100873)
(1.81566e-05 0.000251859 0.0945332)
(3.62624e-07 0.000233699 0.100846)
(1.80946e-05 0.000206044 0.0941382)
(-6.08438e-05 0.000103414 0.0823359)
(-4.07972e-05 7.28756e-05 0.0816123)
(0.000191028 9.19468e-07 0.100873)
(0.000251787 1.85719e-05 0.0945311)
(0.00023331 8.13195e-07 0.100848)
(0.000205993 1.84115e-05 0.0941374)
(-9.1354e-05 9.13853e-05 0.102391)
(9.14461e-05 -9.14378e-05 0.102391)
(-9.14543e-05 -9.14137e-05 0.102391)
(8.87923e-05 8.88504e-05 0.102757)
(-8.87389e-05 8.88042e-05 0.102757)
(8.8834e-05 -8.88312e-05 0.102757)
(-8.88168e-05 -8.88045e-05 0.102757)
(-0.000216103 1.40986e-05 0.102345)
(-0.000211279 0.000143436 0.101154)
(-0.000154989 2.88585e-05 0.102419)
(-0.000142119 8.13124e-05 0.10256)
(-0.000270652 1.395e-05 0.102193)
(-0.000160587 0.000114997 0.101226)
(-0.000153527 2.86037e-05 0.10254)
(0.00010334 -6.01139e-05 0.0823318)
(7.28287e-05 -4.01024e-05 0.0816133)
(1.4305e-05 -0.000216111 0.102346)
(2.89471e-05 -0.00015494 0.102419)
(0.000143606 -0.000211404 0.101155)
(8.14028e-05 -0.000142164 0.10256)
(1.41856e-05 -0.00027067 0.102193)
(2.86905e-05 -0.000153484 0.10254)
(0.000114977 -0.000160628 0.101224)
(-0.000127014 -6.69354e-05 0.0991144)
(-6.68112e-05 -0.000127153 0.0991136)
(-8.40033e-05 -8.39449e-05 0.102597)
(-0.000114008 -4.29875e-05 0.0989729)
(-4.28462e-05 -0.000114157 0.0989713)
(-7.23258e-07 0.000179809 0.100691)
(2.04865e-05 0.000215611 0.0932814)
(-1.2189e-06 0.000226185 0.100682)
(1.7263e-05 0.000169688 0.0929222)
(-3.55252e-05 6.87719e-05 0.0803309)
(-1.92834e-05 4.26889e-05 0.0798078)
(0.00017969 -5.05018e-07 0.100691)
(0.000215602 2.04205e-05 0.0932792)
(0.000226143 -8.15742e-07 0.100684)
(0.000169736 1.73688e-05 0.0929221)
(-8.78982e-05 8.79655e-05 0.102877)
(8.79893e-05 -8.79837e-05 0.102877)
(-8.79677e-05 -8.79585e-05 0.102877)
(8.55692e-05 8.55913e-05 0.103229)
(-8.55106e-05 8.5567e-05 0.103229)
(8.55793e-05 -8.55738e-05 0.103229)
(-8.5561e-05 -8.55543e-05 0.103229)
(-0.000200362 1.27055e-05 0.102662)
(-0.000199791 0.00012424 0.101087)
(-0.000148998 2.79066e-05 0.102898)
(-0.0001363 7.74937e-05 0.103019)
(-0.000257263 1.22033e-05 0.102517)
(-0.000148445 9.52072e-05 0.101146)
(-0.000147484 2.76941e-05 0.103014)
(6.88744e-05 -3.50757e-05 0.0803265)
(4.2776e-05 -1.8814e-05 0.0798087)
(1.27813e-05 -0.000200326 0.102662)
(2.7984e-05 -0.000148979 0.102898)
(0.000124298 -0.000199899 0.101089)
(7.75385e-05 -0.000136333 0.103019)
(1.23137e-05 -0.000257296 0.102518)
(2.77648e-05 -0.000147453 0.103014)
(9.50969e-05 -0.000148419 0.101145)
(-0.000126988 -6.11152e-05 0.0984173)
(-6.09758e-05 -0.000127091 0.0984164)
(-7.57483e-05 -7.56841e-05 0.103028)
(-0.000111471 -3.72352e-05 0.0982591)
(-3.71098e-05 -0.000111574 0.0982573)
(-9.73553e-07 0.000166002 0.100437)
(1.58935e-05 0.000183883 0.0921157)
(-1.68949e-06 0.000215329 0.100442)
(1.10672e-05 0.000138321 0.0917996)
(-2.0239e-05 4.81102e-05 0.0787996)
(-6.3255e-06 2.44961e-05 0.0784246)
(0.000165831 -1.07905e-06 0.100436)
(0.000183804 1.60146e-05 0.0921137)
(0.000215347 -1.6238e-06 0.100444)
(0.000138229 1.142e-05 0.0917997)
(-8.47671e-05 8.48175e-05 0.103344)
(8.48257e-05 -8.48264e-05 0.103344)
(-8.48117e-05 -8.48082e-05 0.103344)
(8.27461e-05 8.27749e-05 0.103682)
(-8.26996e-05 8.27332e-05 0.103682)
(8.2735e-05 -8.27572e-05 0.103682)
(-8.27298e-05 -8.27417e-05 0.103682)
(-0.000184934 1.18737e-05 0.102938)
(-0.000187684 0.000108678 0.100948)
(-0.000143067 2.71278e-05 0.103356)
(-0.000131066 7.44211e-05 0.103455)
(-0.000243485 1.10439e-05 0.1028)
(-0.000136291 7.90176e-05 0.100996)
(-0.000141655 2.69611e-05 0.103467)
(4.80909e-05 -1.98728e-05 0.0787958)
(2.46368e-05 -6.14509e-06 0.0784267)
(1.19164e-05 -0.000184899 0.102938)
(2.71857e-05 -0.000143048 0.103356)
(0.000108725 -0.000187748 0.100949)
(7.44507e-05 -0.000131073 0.103455)
(1.1089e-05 -0.000243492 0.1028)
(2.70145e-05 -0.000141628 0.103467)
(7.89177e-05 -0.000136261 0.100995)
(-0.000122126 -5.72492e-05 0.0976624)
(-5.70995e-05 -0.000122196 0.0976614)
(-6.84593e-05 -6.84167e-05 0.103433)
(-0.000104999 -3.31517e-05 0.0974971)
(-3.29865e-05 -0.000105115 0.0974951)
(-4.38303e-07 0.000151426 0.100123)
(8.35376e-06 0.000157338 0.0910521)
(-1.31692e-06 0.000202881 0.100139)
(3.27889e-06 0.000112335 0.0907792)
(-1.13784e-05 3.6245e-05 0.0776175)