/*--------------------------------*- C++ -*----------------------------------*\
| =========                 |                                                 |
| \\      /  F ield         | OpenFOAM: The Open Source CFD Toolbox           |
|  \\    /   O peration     | Version:  v1912                                 |
|   \\  /    A nd           | Website:  www.openfoam.com                      |
|    \\/     M anipulation  |                                                 |
\*---------------------------------------------------------------------------*/
FoamFile
{
    version     2.0;
    format      ascii;
    class       volScalarField;
    location    "0.6";
    object      p;
}
// * * * * * * * * * * * * * * * * * * * * * * * * * * * * * * * * * * * * * //

dimensions      [0 2 -2 0 0 0 0];


internalField   nonuniform List<scalar> 
171728
(
0.0216233
0.0216269
0.0216269
0.0216427
0.0213957
0.0213958
0.0213958
0.0214099
0.0211666
0.0211666
0.0211666
0.0211807
0.0209374
0.0209374
0.0209374
0.0209515
0.0207082
0.0207082
0.0207082
0.0207223
0.020479
0.020479
0.020479
0.0204931
0.0202499
0.0202498
0.0202498
0.0202639
0.0200207
0.0200206
0.0200206
0.0200347
0.0197915
0.0197914
0.0197914
0.0198055
0.0195623
0.0195622
0.0195622
0.0195764
0.0193331
0.019333
0.019333
0.0193472
0.0191039
0.0191038
0.0191038
0.019118
0.0188747
0.0188747
0.0188747
0.0188888
0.0186455
0.0186455
0.0186455
0.0186596
0.0184163
0.0184163
0.0184163
0.0184304
0.0181871
0.0181871
0.0181871
0.0182012
0.0179579
0.0179579
0.0179579
0.017972
0.0177288
0.0177287
0.0177287
0.0177428
0.0174996
0.0174995
0.0174995
0.0175136
0.0172704
0.0172703
0.0172703
0.0172845
0.0170412
0.0170411
0.0170411
0.0170553
0.016812
0.0168119
0.0168119
0.0168261
0.0165828
0.0165827
0.0165827
0.0165969
0.0163536
0.0163536
0.0163536
0.0163677
0.0161244
0.0161244
0.0161244
0.0161385
0.0158952
0.0158952
0.0158952
0.0159093
0.015666
0.015666
0.015666
0.0156801
0.0154368
0.0154368
0.0154368
0.0154509
0.0152076
0.0152076
0.0152076
0.0152217
0.0149785
0.0149784
0.0149784
0.0149925
0.0147493
0.0147492
0.0147492
0.0147633
0.0145201
0.01452
0.01452
0.0145342
0.0142909
0.0142908
0.0142908
0.014305
0.0140617
0.0140617
0.0140617
0.0140758
0.0138325
0.0138325
0.0138325
0.0138466
0.0136033
0.0136033
0.0136033
0.0136174
0.0133741
0.0133741
0.0133741
0.0133882
0.0131449
0.0131449
0.0131449
0.013159
0.0129158
0.0129157
0.0129157
0.0129298
0.0126866
0.0126865
0.0126865
0.0127006
0.0124574
0.0124573
0.0124573
0.0124715
0.0122282
0.0122281
0.0122281
0.0122423
0.011999
0.0119989
0.0119989
0.0120131
0.0117698
0.0117698
0.0117698
0.0117839
0.0115406
0.0115406
0.0115406
0.0115547
0.0113114
0.0113114
0.0113114
0.0113255
0.0110822
0.0110822
0.0110822
0.0110963
0.010853
0.010853
0.010853
0.0108671
0.0106238
0.0106238
0.0106238
0.0106379
0.0103947
0.0103946
0.0103946
0.0104087
0.0101655
0.0101654
0.0101654
0.0101795
0.00993628
0.00993623
0.00993623
0.00995036
0.00970709
0.00970704
0.00970704
0.00972117
0.0094779
0.00947785
0.00947785
0.00949198
0.00924871
0.00924866
0.00924866
0.00926279
0.00901952
0.00901947
0.00901947
0.0090336
0.00879033
0.00879028
0.00879028
0.00880441
0.00856114
0.00856109
0.00856109
0.00857522
0.00833195
0.0083319
0.0083319
0.00834603
0.00810276
0.00810271
0.00810271
0.00811684
0.00787357
0.00787352
0.00787352
0.00788765
0.00764438
0.00764432
0.00764432
0.00765845
0.00741518
0.00741513
0.00741513
0.00742926
0.00718599
0.00718594
0.00718594
0.00720007
0.0069568
0.00695675
0.00695675
0.00697088
0.0067276
0.00672755
0.00672755
0.00674168
0.00649841
0.00649836
0.00649836
0.00651249
0.00626922
0.00626917
0.00626917
0.0062833
0.00604003
0.00603998
0.00603998
0.00605411
0.00581084
0.00581079
0.00581079
0.00582492
0.00558165
0.0055816
0.0055816
0.00559573
0.00535246
0.00535241
0.00535241
0.00536654
0.00512327
0.00512322
0.00512322
0.00513735
0.00489408
0.00489403
0.00489403
0.00490816
0.00466489
0.00466484
0.00466484
0.00467897
0.0044357
0.00443565
0.00443565
0.00444978
0.00420651
0.00420646
0.00420646
0.00422058
0.00397732
0.00397727
0.00397727
0.00399139
0.00374813
0.00374807
0.00374808
0.0037622
0.00351893
0.00351888
0.00351888
0.00353301
0.00328974
0.00328969
0.00328969
0.00330382
0.00306055
0.0030605
0.0030605
0.00307463
0.00283136
0.00283131
0.00283131
0.00284544
0.00260216
0.00260211
0.00260211
0.00261624
0.00237297
0.00237292
0.00237292
0.00238705
0.00214378
0.00214373
0.00214373
0.00215786
0.00191459
0.00191454
0.00191454
0.00192867
0.0016854
0.00168535
0.00168535
0.00169947
0.00145621
0.00145616
0.00145616
0.00147028
0.00122702
0.00122696
0.00122697
0.00124109
0.000997825
0.000997775
0.000997775
0.0010119
0.000768635
0.000768586
0.000768586
0.000782715
0.000539458
0.000539406
0.000539405
0.000553528
0.000310917
0.000310405
0.000310408
0.000324414
9.43529e-05
0.000102978
0.00010298
0.000103814
0.0216747
0.0216707
0.0216707
0.0216747
0.0216707
0.0216707
0.0216777
0.0216777
0.0216777
0.0216777
0.0216707
0.0216707
0.0216747
0.0216707
0.0216707
0.0216747
0.0216427
0.021439
0.0216269
0.0216269
0.0214531
0.0214531
0.0216427
0.021439
0.0216269
0.0216269
0.0214531
0.0214531
0.0216269
0.0214531
0.0214531
0.0216427
0.021439
0.0216269
0.0214531
0.0214531
0.021439
0.0214099
0.0212098
0.0213958
0.0213958
0.0212239
0.0212239
0.0214099
0.0212098
0.0213958
0.0213958
0.0212239
0.0212239
0.0213958
0.0212239
0.0212239
0.0214099
0.0212098
0.0213958
0.0212239
0.0212239
0.0212098
0.0211807
0.0209806
0.0211666
0.0211666
0.0209947
0.0209947
0.0211807
0.0209806
0.0211666
0.0211666
0.0209947
0.0209947
0.0211666
0.0209947
0.0209947
0.0211807
0.0209806
0.0211666
0.0209947
0.0209947
0.0209806
0.0209515
0.0207514
0.0209374
0.0209374
0.0207655
0.0207655
0.0209515
0.0207514
0.0209374
0.0209374
0.0207655
0.0207655
0.0209374
0.0207655
0.0207655
0.0209515
0.0207514
0.0209374
0.0207655
0.0207655
0.0207514
0.0207223
0.0205222
0.0207082
0.0207082
0.0205363
0.0205363
0.0207223
0.0205222
0.0207082
0.0207082
0.0205363
0.0205363
0.0207082
0.0205363
0.0205363
0.0207223
0.0205222
0.0207082
0.0205363
0.0205363
0.0205222
0.0204931
0.020293
0.020479
0.020479
0.0203071
0.0203071
0.0204931
0.020293
0.020479
0.020479
0.0203071
0.0203071
0.020479
0.0203071
0.0203071
0.0204931
0.020293
0.020479
0.0203071
0.0203071
0.020293
0.0202639
0.0200638
0.0202498
0.0202498
0.0200779
0.0200779
0.0202639
0.0200638
0.0202498
0.0202498
0.0200779
0.0200779
0.0202498
0.0200779
0.0200779
0.0202639
0.0200638
0.0202498
0.0200779
0.0200779
0.0200638
0.0200347
0.0198346
0.0200206
0.0200206
0.0198487
0.0198487
0.0200347
0.0198346
0.0200206
0.0200206
0.0198487
0.0198487
0.0200206
0.0198487
0.0198487
0.0200347
0.0198346
0.0200206
0.0198487
0.0198487
0.0198346
0.0198055
0.0196054
0.0197914
0.0197914
0.0196195
0.0196195
0.0198055
0.0196054
0.0197914
0.0197914
0.0196195
0.0196195
0.0197914
0.0196195
0.0196195
0.0198055
0.0196054
0.0197914
0.0196195
0.0196195
0.0196054
0.0195764
0.0193762
0.0195622
0.0195622
0.0193903
0.0193903
0.0195764
0.0193762
0.0195622
0.0195622
0.0193903
0.0193903
0.0195622
0.0193903
0.0193903
0.0195764
0.0193762
0.0195622
0.0193903
0.0193903
0.0193762
0.0193472
0.019147
0.019333
0.019333
0.0191611
0.0191611
0.0193472
0.019147
0.019333
0.019333
0.0191611
0.0191611
0.019333
0.0191611
0.0191611
0.0193472
0.019147
0.019333
0.0191611
0.0191611
0.019147
0.019118
0.0189179
0.0191038
0.0191038
0.0189319
0.0189319
0.019118
0.0189179
0.0191038
0.0191038
0.0189319
0.0189319
0.0191038
0.0189319
0.0189319
0.019118
0.0189179
0.0191038
0.0189319
0.0189319
0.0189179
0.0188888
0.0186887
0.0188747
0.0188747
0.0187028
0.0187028
0.0188888
0.0186887
0.0188747
0.0188747
0.0187028
0.0187028
0.0188747
0.0187028
0.0187028
0.0188888
0.0186887
0.0188747
0.0187028
0.0187028
0.0186887
0.0186596
0.0184595
0.0186455
0.0186455
0.0184736
0.0184736
0.0186596
0.0184595
0.0186455
0.0186455
0.0184736
0.0184736
0.0186455
0.0184736
0.0184736
0.0186596
0.0184595
0.0186455
0.0184736
0.0184736
0.0184595
0.0184304
0.0182303
0.0184163
0.0184163
0.0182444
0.0182444
0.0184304
0.0182303
0.0184163
0.0184163
0.0182444
0.0182444
0.0184163
0.0182444
0.0182444
0.0184304
0.0182303
0.0184163
0.0182444
0.0182444
0.0182303
0.0182012
0.0180011
0.0181871
0.0181871
0.0180152
0.0180152
0.0182012
0.0180011
0.0181871
0.0181871
0.0180152
0.0180152
0.0181871
0.0180152
0.0180152
0.0182012
0.0180011
0.0181871
0.0180152
0.0180152
0.0180011
0.017972
0.0177719
0.0179579
0.0179579
0.017786
0.017786
0.017972
0.0177719
0.0179579
0.0179579
0.017786
0.017786
0.0179579
0.017786
0.017786
0.017972
0.0177719
0.0179579
0.017786
0.017786
0.0177719
0.0177428
0.0175427
0.0177287
0.0177287
0.0175568
0.0175568
0.0177428
0.0175427
0.0177287
0.0177287
0.0175568
0.0175568
0.0177287
0.0175568
0.0175568
0.0177428
0.0175427
0.0177287
0.0175568
0.0175568
0.0175427
0.0175136
0.0173135
0.0174995
0.0174995
0.0173276
0.0173276
0.0175136
0.0173135
0.0174995
0.0174995
0.0173276
0.0173276
0.0174995
0.0173276
0.0173276
0.0175136
0.0173135
0.0174995
0.0173276
0.0173276
0.0173135
0.0172845
0.0170843
0.0172703
0.0172703
0.0170984
0.0170984
0.0172845
0.0170843
0.0172703
0.0172703
0.0170984
0.0170984
0.0172703
0.0170984
0.0170984
0.0172845
0.0170843
0.0172703
0.0170984
0.0170984
0.0170843
0.0170553
0.0168551
0.0170411
0.0170411
0.0168692
0.0168692
0.0170553
0.0168551
0.0170411
0.0170411
0.0168692
0.0168692
0.0170411
0.0168692
0.0168692
0.0170553
0.0168551
0.0170411
0.0168692
0.0168692
0.0168551
0.0168261
0.016626
0.0168119
0.0168119
0.01664
0.01664
0.0168261
0.016626
0.0168119
0.0168119
0.01664
0.01664
0.0168119
0.01664
0.01664
0.0168261
0.016626
0.0168119
0.01664
0.01664
0.016626
0.0165969
0.0163968
0.0165827
0.0165827
0.0164109
0.0164109
0.0165969
0.0163968
0.0165827
0.0165827
0.0164109
0.0164109
0.0165827
0.0164109
0.0164109
0.0165969
0.0163968
0.0165827
0.0164109
0.0164109
0.0163968
0.0163677
0.0161676
0.0163536
0.0163536
0.0161817
0.0161817
0.0163677
0.0161676
0.0163536
0.0163536
0.0161817
0.0161817
0.0163536
0.0161817
0.0161817
0.0163677
0.0161676
0.0163536
0.0161817
0.0161817
0.0161676
0.0161385
0.0159384
0.0161244
0.0161244
0.0159525
0.0159525
0.0161385
0.0159384
0.0161244
0.0161244
0.0159525
0.0159525
0.0161244
0.0159525
0.0159525
0.0161385
0.0159384
0.0161244
0.0159525
0.0159525
0.0159384
0.0159093
0.0157092
0.0158952
0.0158952
0.0157233
0.0157233
0.0159093
0.0157092
0.0158952
0.0158952
0.0157233
0.0157233
0.0158952
0.0157233
0.0157233
0.0159093
0.0157092
0.0158952
0.0157233
0.0157233
0.0157092
0.0156801
0.01548
0.015666
0.015666
0.0154941
0.0154941
0.0156801
0.01548
0.015666
0.015666
0.0154941
0.0154941
0.015666
0.0154941
0.0154941
0.0156801
0.01548
0.015666
0.0154941
0.0154941
0.01548
0.0154509
0.0152508
0.0154368
0.0154368
0.0152649
0.0152649
0.0154509
0.0152508
0.0154368
0.0154368
0.0152649
0.0152649
0.0154368
0.0152649
0.0152649
0.0154509
0.0152508
0.0154368
0.0152649
0.0152649
0.0152508
0.0152217
0.0150216
0.0152076
0.0152076
0.0150357
0.0150357
0.0152217
0.0150216
0.0152076
0.0152076
0.0150357
0.0150357
0.0152076
0.0150357
0.0150357
0.0152217
0.0150216
0.0152076
0.0150357
0.0150357
0.0150216
0.0149925
0.0147924
0.0149784
0.0149784
0.0148065
0.0148065
0.0149925
0.0147924
0.0149784
0.0149784
0.0148065
0.0148065
0.0149784
0.0148065
0.0148065
0.0149925
0.0147924
0.0149784
0.0148065
0.0148065
0.0147924
0.0147633
0.0145632
0.0147492
0.0147492
0.0145773
0.0145773
0.0147633
0.0145632
0.0147492
0.0147492
0.0145773
0.0145773
0.0147492
0.0145773
0.0145773
0.0147633
0.0145632
0.0147492
0.0145773
0.0145773
0.0145632
0.0145342
0.014334
0.01452
0.01452
0.0143481
0.0143481
0.0145342
0.014334
0.01452
0.01452
0.0143481
0.0143481
0.01452
0.0143481
0.0143481
0.0145342
0.014334
0.01452
0.0143481
0.0143481
0.014334
0.014305
0.0141049
0.0142908
0.0142908
0.0141189
0.0141189
0.014305
0.0141049
0.0142908
0.0142908
0.0141189
0.0141189
0.0142908
0.0141189
0.0141189
0.014305
0.0141049
0.0142908
0.0141189
0.0141189
0.0141049
0.0140758
0.0138757
0.0140617
0.0140617
0.0138898
0.0138898
0.0140758
0.0138757
0.0140617
0.0140617
0.0138898
0.0138898
0.0140617
0.0138898
0.0138898
0.0140758
0.0138757
0.0140617
0.0138898
0.0138898
0.0138757
0.0138466
0.0136465
0.0138325
0.0138325
0.0136606
0.0136606
0.0138466
0.0136465
0.0138325
0.0138325
0.0136606
0.0136606
0.0138325
0.0136606
0.0136606
0.0138466
0.0136465
0.0138325
0.0136606
0.0136606
0.0136465
0.0136174
0.0134173
0.0136033
0.0136033
0.0134314
0.0134314
0.0136174
0.0134173
0.0136033
0.0136033
0.0134314
0.0134314
0.0136033
0.0134314
0.0134314
0.0136174
0.0134173
0.0136033
0.0134314
0.0134314
0.0134173
0.0133882
0.0131881
0.0133741
0.0133741
0.0132022
0.0132022
0.0133882
0.0131881
0.0133741
0.0133741
0.0132022
0.0132022
0.0133741
0.0132022
0.0132022
0.0133882
0.0131881
0.0133741
0.0132022
0.0132022
0.0131881
0.013159
0.0129589
0.0131449
0.0131449
0.012973
0.012973
0.013159
0.0129589
0.0131449
0.0131449
0.012973
0.012973
0.0131449
0.012973
0.012973
0.013159
0.0129589
0.0131449
0.012973
0.012973
0.0129589
0.0129298
0.0127297
0.0129157
0.0129157
0.0127438
0.0127438
0.0129298
0.0127297
0.0129157
0.0129157
0.0127438
0.0127438
0.0129157
0.0127438
0.0127438
0.0129298
0.0127297
0.0129157
0.0127438
0.0127438
0.0127297
0.0127006
0.0125005
0.0126865
0.0126865
0.0125146
0.0125146
0.0127006
0.0125005
0.0126865
0.0126865
0.0125146
0.0125146
0.0126865
0.0125146
0.0125146
0.0127006
0.0125005
0.0126865
0.0125146
0.0125146
0.0125005
0.0124715
0.0122713
0.0124573
0.0124573
0.0122854
0.0122854
0.0124715
0.0122713
0.0124573
0.0124573
0.0122854
0.0122854
0.0124573
0.0122854
0.0122854
0.0124715
0.0122713
0.0124573
0.0122854
0.0122854
0.0122713
0.0122423
0.0120422
0.0122281
0.0122281
0.0120562
0.0120562
0.0122423
0.0120422
0.0122281
0.0122281
0.0120562
0.0120562
0.0122281
0.0120562
0.0120562
0.0122423
0.0120422
0.0122281
0.0120562
0.0120562
0.0120422
0.0120131
0.011813
0.0119989
0.0119989
0.0118271
0.0118271
0.0120131
0.011813
0.0119989
0.0119989
0.0118271
0.0118271
0.0119989
0.0118271
0.0118271
0.0120131
0.011813
0.0119989
0.0118271
0.0118271
0.011813
0.0117839
0.0115838
0.0117698
0.0117698
0.0115979
0.0115979
0.0117839
0.0115838
0.0117698
0.0117698
0.0115979
0.0115979
0.0117698
0.0115979
0.0115979
0.0117839
0.0115838
0.0117698
0.0115979
0.0115979
0.0115838
0.0115547
0.0113546
0.0115406
0.0115406
0.0113687
0.0113687
0.0115547
0.0113546
0.0115406
0.0115406
0.0113687
0.0113687
0.0115406
0.0113687
0.0113687
0.0115547
0.0113546
0.0115406
0.0113687
0.0113687
0.0113546
0.0113255
0.0111254
0.0113114
0.0113114
0.0111395
0.0111395
0.0113255
0.0111254
0.0113114
0.0113114
0.0111395
0.0111395
0.0113114
0.0111395
0.0111395
0.0113255
0.0111254
0.0113114
0.0111395
0.0111395
0.0111254
0.0110963
0.0108962
0.0110822
0.0110822
0.0109103
0.0109103
0.0110963
0.0108962
0.0110822
0.0110822
0.0109103
0.0109103
0.0110822
0.0109103
0.0109103
0.0110963
0.0108962
0.0110822
0.0109103
0.0109103
0.0108962
0.0108671
0.010667
0.010853
0.010853
0.0106811
0.0106811
0.0108671
0.010667
0.010853
0.010853
0.0106811
0.0106811
0.010853
0.0106811
0.0106811
0.0108671
0.010667
0.010853
0.0106811
0.0106811
0.010667
0.0106379
0.0104378
0.0106238
0.0106238
0.0104519
0.0104519
0.0106379
0.0104378
0.0106238
0.0106238
0.0104519
0.0104519
0.0106238
0.0104519
0.0104519
0.0106379
0.0104378
0.0106238
0.0104519
0.0104519
0.0104378
0.0104087
0.0102086
0.0103946
0.0103946
0.0102227
0.0102227
0.0104087
0.0102086
0.0103946
0.0103946
0.0102227
0.0102227
0.0103946
0.0102227
0.0102227
0.0104087
0.0102086
0.0103946
0.0102227
0.0102227
0.0102086
0.0101795
0.00997943
0.0101654
0.0101654
0.00999352
0.00999352
0.0101795
0.00997943
0.0101654
0.0101654
0.00999352
0.00999352
0.0101654
0.00999352
0.00999352
0.0101795
0.00997943
0.0101654
0.00999352
0.00999352
0.00997943
0.00995036
0.00975024
0.00993623
0.00993623
0.00976433
0.00976433
0.00995036
0.00975024
0.00993623
0.00993623
0.00976433
0.00976433
0.00993623
0.00976433
0.00976433
0.00995036
0.00975024
0.00993623
0.00976433
0.00976433
0.00975024
0.00972117
0.00952105
0.00970704
0.00970704
0.00953514
0.00953514
0.00972117
0.00952105
0.00970704
0.00970704
0.00953514
0.00953514
0.00970704
0.00953514
0.00953514
0.00972117
0.00952105
0.00970704
0.00953514
0.00953514
0.00952105
0.00949198
0.00929186
0.00947785
0.00947785
0.00930596
0.00930596
0.00949198
0.00929186
0.00947785
0.00947785
0.00930596
0.00930596
0.00947785
0.00930596
0.00930596
0.00949198
0.00929186
0.00947785
0.00930596
0.00930596
0.00929187
0.00926279
0.00906268
0.00924866
0.00924866
0.00907677
0.00907677
0.00926279
0.00906267
0.00924866
0.00924866
0.00907677
0.00907677
0.00924866
0.00907677
0.00907677
0.00926279
0.00906268
0.00924866
0.00907677
0.00907677
0.00906268
0.0090336
0.00883349
0.00901947
0.00901947
0.00884758
0.00884758
0.0090336
0.00883348
0.00901947
0.00901947
0.00884758
0.00884758
0.00901947
0.00884758
0.00884758
0.0090336
0.00883349
0.00901947
0.00884758
0.00884758
0.00883349
0.00880441
0.0086043
0.00879028
0.00879028
0.00861839
0.00861839
0.00880441
0.00860429
0.00879028
0.00879028
0.00861839
0.00861839
0.00879028
0.00861839
0.00861839
0.00880441
0.0086043
0.00879028
0.00861839
0.00861839
0.0086043
0.00857522
0.00837511
0.00856109
0.00856109
0.0083892
0.0083892
0.00857522
0.0083751
0.00856109
0.00856109
0.0083892
0.0083892
0.00856109
0.0083892
0.0083892
0.00857522
0.00837511
0.00856109
0.0083892
0.0083892
0.00837511
0.00834603
0.00814591
0.0083319
0.0083319
0.00816001
0.00816001
0.00834603
0.00814591
0.0083319
0.0083319
0.00816001
0.00816001
0.0083319
0.00816001
0.00816001
0.00834603
0.00814592
0.0083319
0.00816001
0.00816
0.00814591
0.00811684
0.00791672
0.00810271
0.00810271
0.00793081
0.00793081
0.00811684
0.00791672
0.00810271
0.00810271
0.00793081
0.00793081
0.00810271
0.00793081
0.00793081
0.00811684
0.00791672
0.00810271
0.00793082
0.00793081
0.00791672
0.00788765
0.00768753
0.00787352
0.00787352
0.00770162
0.00770162
0.00788765
0.00768753
0.00787352
0.00787352
0.00770162
0.00770162
0.00787352
0.00770162
0.00770162
0.00788765
0.00768753
0.00787352
0.00770162
0.00770162
0.00768753
0.00765845
0.00745834
0.00764433
0.00764432
0.00747243
0.00747243
0.00765845
0.00745834
0.00764432
0.00764432
0.00747243
0.00747243
0.00764433
0.00747243
0.00747243
0.00765845
0.00745834
0.00764432
0.00747243
0.00747243
0.00745834
0.00742926
0.00722915
0.00741513
0.00741513
0.00724324
0.00724324
0.00742926
0.00722915
0.00741513
0.00741513
0.00724324
0.00724324
0.00741513
0.00724324
0.00724324
0.00742926
0.00722915
0.00741513
0.00724324
0.00724324
0.00722915
0.00720007
0.00699995
0.00718594
0.00718594
0.00701405
0.00701404
0.00720007
0.00699995
0.00718594
0.00718594
0.00701405
0.00701405
0.00718594
0.00701404
0.00701405
0.00720007
0.00699995
0.00718594
0.00701405
0.00701404
0.00699995
0.00697088
0.00677076
0.00695675
0.00695675
0.00678485
0.00678485
0.00697088
0.00677076
0.00695675
0.00695675
0.00678485
0.00678485
0.00695675
0.00678485
0.00678485
0.00697088
0.00677076
0.00695675
0.00678485
0.00678485
0.00677076
0.00674168
0.00654157
0.00672755
0.00672755
0.00655566
0.00655566
0.00674168
0.00654157
0.00672755
0.00672755
0.00655566
0.00655566
0.00672755
0.00655566
0.00655566
0.00674168
0.00654157
0.00672755
0.00655566
0.00655566
0.00654157
0.00651249
0.00631238
0.00649836
0.00649836
0.00632647
0.00632647
0.00651249
0.00631238
0.00649836
0.00649836
0.00632647
0.00632647
0.00649836
0.00632647
0.00632647
0.00651249
0.00631238
0.00649836
0.00632647
0.00632647
0.00631238
0.0062833
0.00608318
0.00626917
0.00626917
0.00609728
0.00609728
0.0062833
0.00608318
0.00626917
0.00626917
0.00609728
0.00609728
0.00626917
0.00609728
0.00609728
0.0062833
0.00608318
0.00626917
0.00609728
0.00609727
0.00608318
0.00605411
0.00585399
0.00603998
0.00603998
0.00586809
0.00586808
0.00605411
0.00585399
0.00603998
0.00603998
0.00586809
0.00586809
0.00603998
0.00586808
0.00586808
0.00605411
0.00585399
0.00603998
0.00586809
0.00586808
0.00585399
0.00582492
0.0056248
0.00581079
0.00581079
0.00563889
0.00563889
0.00582492
0.0056248
0.00581079
0.00581079
0.00563889
0.0056389
0.00581079
0.00563889
0.0056389
0.00582492
0.0056248
0.00581079
0.0056389
0.00563889
0.0056248
0.00559573
0.00539561
0.0055816
0.0055816
0.0054097
0.0054097
0.00559573
0.00539561
0.0055816
0.0055816
0.0054097
0.0054097
0.0055816
0.0054097
0.0054097
0.00559573
0.00539561
0.0055816
0.0054097
0.0054097
0.00539561
0.00536654
0.00516642
0.00535241
0.00535241
0.00518051
0.00518051
0.00536654
0.00516642
0.00535241
0.00535241
0.00518051
0.00518051
0.00535241
0.00518051
0.00518051
0.00536654
0.00516642
0.00535241
0.00518051
0.00518051
0.00516642
0.00513735
0.00493723
0.00512322
0.00512322
0.00495132
0.00495132
0.00513735
0.00493723
0.00512322
0.00512322
0.00495132
0.00495132
0.00512322
0.00495132
0.00495132
0.00513735
0.00493723
0.00512322
0.00495132
0.00495132
0.00493723
0.00490816
0.00470804
0.00489403
0.00489403
0.00472213
0.00472213
0.00490816
0.00470804
0.00489403
0.00489403
0.00472213
0.00472213
0.00489403
0.00472213
0.00472213
0.00490816
0.00470804
0.00489403
0.00472213
0.00472213
0.00470804
0.00467897
0.00447885
0.00466484
0.00466484
0.00449294
0.00449294
0.00467897
0.00447885
0.00466484
0.00466484
0.00449294
0.00449294
0.00466484
0.00449294
0.00449294
0.00467897
0.00447885
0.00466484
0.00449294
0.00449294
0.00447885
0.00444978
0.00424966
0.00443565
0.00443565
0.00426375
0.00426375
0.00444978
0.00424966
0.00443565
0.00443565
0.00426375
0.00426375
0.00443565
0.00426375
0.00426375
0.00444978
0.00424966
0.00443565
0.00426375
0.00426375
0.00424966
0.00422059
0.00402047
0.00420646
0.00420646
0.00403456
0.00403456
0.00422059
0.00402047
0.00420646
0.00420646
0.00403456
0.00403456
0.00420646
0.00403456
0.00403456
0.00422059
0.00402047
0.00420646
0.00403456
0.00403456
0.00402047
0.0039914
0.00379128
0.00397727
0.00397727
0.00380537
0.00380537
0.0039914
0.00379128
0.00397727
0.00397727
0.00380537
0.00380537
0.00397727
0.00380537
0.00380537
0.0039914
0.00379128
0.00397726
0.00380537
0.00380537
0.00379128
0.0037622
0.00356209
0.00374808
0.00374807
0.00357618
0.00357618
0.0037622
0.00356209
0.00374807
0.00374808
0.00357618
0.00357618
0.00374808
0.00357618
0.00357618
0.0037622
0.00356209
0.00374807
0.00357618
0.00357618
0.00356209
0.00353301
0.0033329
0.00351888
0.00351888
0.00334699
0.00334699
0.00353301
0.0033329
0.00351888
0.00351888
0.00334699
0.00334699
0.00351888
0.00334699
0.00334699
0.00353301
0.0033329
0.00351888
0.00334699
0.00334699
0.0033329
0.00330382
0.00310371
0.00328969
0.00328969
0.0031178
0.0031178
0.00330382
0.0031037
0.00328969
0.00328969
0.0031178
0.0031178
0.00328969
0.0031178
0.0031178
0.00330382
0.00310371
0.00328969
0.0031178
0.0031178
0.00310371
0.00307463
0.00287451
0.0030605
0.0030605
0.00288861
0.0028886
0.00307463
0.00287451
0.0030605
0.0030605
0.00288861
0.00288861
0.0030605
0.0028886
0.00288861
0.00307463
0.00287451
0.0030605
0.00288861
0.0028886
0.00287451
0.00284544
0.00264532
0.00283131
0.00283131
0.00265941
0.00265941
0.00284544
0.00264532
0.00283131
0.00283131
0.00265941
0.00265941
0.00283131
0.00265941
0.00265941
0.00284544
0.00264532
0.00283131
0.00265941
0.00265941
0.00264532
0.00261624
0.00241613
0.00260211
0.00260211
0.00243022
0.00243022
0.00261624
0.00241613
0.00260211
0.00260211
0.00243022
0.00243022
0.00260211
0.00243022
0.00243022
0.00261624
0.00241613
0.00260211
0.00243022
0.00243022
0.00241613
0.00238705
0.00218694
0.00237292
0.00237292
0.00220103
0.00220103
0.00238705
0.00218694
0.00237292
0.00237292
0.00220103
0.00220103
0.00237292
0.00220103
0.00220103
0.00238705
0.00218694
0.00237292
0.00220103
0.00220103
0.00218694
0.00215786
0.00195774
0.00214373
0.00214373
0.00197184
0.00197183
0.00215786
0.00195774
0.00214373
0.00214373
0.00197184
0.00197184
0.00214373
0.00197184
0.00197184
0.00215786
0.00195774
0.00214373
0.00197184
0.00197183
0.00195774
0.00192867
0.00172855
0.00191454
0.00191454
0.00174264
0.00174264
0.00192867
0.00172855
0.00191454
0.00191454
0.00174264
0.00174264
0.00191454
0.00174264
0.00174264
0.00192867
0.00172855
0.00191454
0.00174264
0.00174264
0.00172855
0.00169948
0.00149936
0.00168535
0.00168535
0.00151345
0.00151345
0.00169948
0.00149936
0.00168535
0.00168535
0.00151345
0.00151345
0.00168535
0.00151345
0.00151345
0.00169948
0.00149936
0.00168534
0.00151345
0.00151345
0.00149936
0.00147029
0.00127017
0.00145616
0.00145615
0.00128426
0.00128426
0.00147029
0.00127017
0.00145616
0.00145616
0.00128426
0.00128426
0.00145616
0.00128426
0.00128426
0.00147029
0.00127017
0.00145615
0.00128426
0.00128426
0.00127017
0.00124109
0.00104098
0.00122697
0.00122696
0.00105507
0.00105507
0.00124109
0.00104098
0.00122696
0.00122697
0.00105507
0.00105507
0.00122697
0.00105507
0.00105507
0.00124109
0.00104098
0.00122696
0.00105507
0.00105507
0.00104098
0.0010119
0.000811792
0.000997775
0.000997774
0.000825883
0.000825882
0.0010119
0.000811791
0.000997775
0.000997775
0.000825883
0.000825883
0.000997775
0.000825883
0.000825883
0.0010119
0.000811792
0.000997774
0.000825883
0.000825883
0.000811792
0.000782715
0.000582604
0.000768585
0.000768585
0.000596697
0.000596697
0.000782716
0.000582603
0.000768586
0.000768586
0.000596696
0.000596697
0.000768586
0.000596698
0.000596697
0.000782715
0.000582605
0.000768586
0.000596698
0.000596698
0.000582605
0.000553529
0.00035347
0.000539404
0.000539405
0.000367591
0.000367591
0.000553529
0.000353472
0.000539406
0.000539405
0.000367589
0.000367589
0.000539405
0.00036759
0.000367588
0.000553528
0.000353471
0.000539404
0.000367588
0.000367587
0.000353467
0.00032442
0.000129027
0.00031041
0.000310403
0.000142604
0.000142602
0.000324419
0.000129026
0.000310405
0.000310408
0.000142597
0.000142603
0.000310404
0.000142594
0.000142597
0.000324419
0.000129028
0.000310406
0.000142596
0.000142595
0.000129024
0.000103817
0.000102982
0.00010298
0.000103816
0.000102978
0.000102982
9.43519e-05
9.43527e-05
9.43501e-05
0.000102978
0.000103818
0.000102976
0.0217046
0.0217423
0.0217219
0.0217219
0.0218003
0.0217568
0.0218667
0.0217341
0.0218003
0.0217568
0.0217341
0.0218667
0.0217729
0.0218845
0.0218845
0.0215561
0.0216715
0.0216631
0.0215566
0.0215473
0.0215522
0.021556
0.0216715
0.021663
0.0215565
0.0216233
0.0216233
0.0216233
0.0214529
0.0214529
0.0214529
0.0214529
0.0215553
0.0216551
0.0216259
0.0215674
0.0216456
0.0215559
0.0215675
0.0215475
0.0215522
0.0215553
0.0216259
0.0216551
0.0215674
0.0216456
0.0215675
0.0215559
0.021657
0.021657
0.0215539
0.0215552
0.0215551
0.0213243
0.0214103
0.0214103
0.0213243
0.0214103
0.0213243
0.0213243
0.0214103
0.0214103
0.0213243
0.0213957
0.0213957
0.0213957
0.0212239
0.0212239
0.0212239
0.0212239
0.0213248
0.0214099
0.0213957
0.0213385
0.0214098
0.0213248
0.0213385
0.0214102
0.0213243
0.0213248
0.0213957
0.0214098
0.0213385
0.0214098
0.0213385
0.0213248
0.0214103
0.0214103
0.0213244
0.0213243
0.0213243
0.021095
0.0211809
0.0211809
0.021095
0.0211809
0.021095
0.021095
0.0211809
0.0211809
0.021095
0.0211666
0.0211666
0.0211666
0.0209947
0.0209947
0.0209947
0.0209947
0.0210955
0.0211804
0.0211666
0.0211093
0.0211804
0.0210955
0.0211093
0.0211809
0.021095
0.0210955
0.0211666
0.0211804
0.0211093
0.0211804
0.0211093
0.0210955
0.0211809
0.0211809
0.0210952
0.021095
0.021095
0.0208658
0.0209517
0.0209517
0.0208658
0.0209517
0.0208658
0.0208658
0.0209517
0.0209517
0.0208658
0.0209374
0.0209374
0.0209374
0.0207655
0.0207655
0.0207655
0.0207655
0.0208663
0.0209512
0.0209374
0.0208801
0.0209512
0.0208663
0.0208801
0.0209517
0.0208658
0.0208663
0.0209374
0.0209512
0.0208801
0.0209512
0.0208801
0.0208663
0.0209517
0.0209517
0.020866
0.0208658
0.0208658
0.0206366
0.0207225
0.0207225
0.0206366
0.0207225
0.0206366
0.0206366
0.0207225
0.0207225
0.0206366
0.0207082
0.0207082
0.0207082
0.0205363
0.0205363
0.0205363
0.0205363
0.0206371
0.020722
0.0207082
0.0206509
0.020722
0.0206371
0.0206509
0.0207225
0.0206366
0.0206371
0.0207082
0.020722
0.0206509
0.020722
0.0206509
0.0206371
0.0207225
0.0207225
0.0206368
0.0206366
0.0206366
0.0204074
0.0204933
0.0204933
0.0204074
0.0204933
0.0204074
0.0204074
0.0204933
0.0204933
0.0204074
0.020479
0.020479
0.020479
0.0203071
0.0203071
0.0203071
0.0203071
0.020408
0.0204928
0.020479
0.0204217
0.0204928
0.0204079
0.0204217
0.0204933
0.0204074
0.020408
0.020479
0.0204928
0.0204217
0.0204928
0.0204217
0.0204079
0.0204933
0.0204933
0.0204076
0.0204075
0.0204075
0.0201782
0.0202641
0.0202641
0.0201782
0.0202641
0.0201783
0.0201782
0.0202641
0.0202641
0.0201782
0.0202498
0.0202498
0.0202498
0.020078
0.020078
0.020078
0.020078
0.0201788
0.0202636
0.0202498
0.0201925
0.0202636
0.0201787
0.0201925
0.0202641
0.0201783
0.0201788
0.0202498
0.0202636
0.0201925
0.0202636
0.0201925
0.0201787
0.0202641
0.0202641
0.0201784
0.0201783
0.0201783
0.019949
0.0200349
0.0200349
0.019949
0.0200349
0.0199491
0.019949
0.0200349
0.0200349
0.019949
0.0200207
0.0200207
0.0200207
0.0198488
0.0198488
0.0198488
0.0198488
0.0199496
0.0200344
0.0200206
0.0199633
0.0200344
0.0199495
0.0199633
0.0200349
0.0199491
0.0199496
0.0200206
0.0200344
0.0199633
0.0200344
0.0199633
0.0199495
0.0200349
0.0200349
0.0199492
0.0199491
0.0199491
0.0197198
0.0198057
0.0198057
0.0197198
0.0198057
0.0197199
0.0197198
0.0198057
0.0198057
0.0197198
0.0197915
0.0197915
0.0197915
0.0196196
0.0196196
0.0196196
0.0196196
0.0197204
0.0198053
0.0197914
0.0197341
0.0198052
0.0197203
0.0197341
0.0198057
0.0197199
0.0197204
0.0197914
0.0198053
0.0197341
0.0198052
0.0197341
0.0197203
0.0198057
0.0198057
0.01972
0.0197199
0.0197199
0.0194907
0.0195766
0.0195766
0.0194907
0.0195765
0.0194907
0.0194907
0.0195765
0.0195766
0.0194907
0.0195623
0.0195623
0.0195623
0.0193904
0.0193904
0.0193904
0.0193904
0.0194912
0.0195761
0.0195622
0.0195049
0.019576
0.0194911
0.0195049
0.0195765
0.0194907
0.0194912
0.0195622
0.0195761
0.0195049
0.019576
0.0195049
0.0194911
0.0195765
0.0195765
0.0194908
0.0194907
0.0194907
0.0192615
0.0193474
0.0193474
0.0192615
0.0193473
0.0192615
0.0192615
0.0193474
0.0193474
0.0192615
0.0193331
0.0193331
0.0193331
0.0191612
0.0191612
0.0191612
0.0191612
0.019262
0.0193469
0.019333
0.0192757
0.0193468
0.019262
0.0192757
0.0193473
0.0192615
0.019262
0.019333
0.0193469
0.0192757
0.0193468
0.0192757
0.019262
0.0193473
0.0193473
0.0192616
0.0192615
0.0192615
0.0190323
0.0191182
0.0191182
0.0190323
0.0191181