/*--------------------------------*- C++ -*----------------------------------*\
| =========                 |                                                 |
| \\      /  F ield         | OpenFOAM: The Open Source CFD Toolbox           |
|  \\    /   O peration     | Version:  v1906                                 |
|   \\  /    A nd           | Web:      www.OpenFOAM.com                      |
|    \\/     M anipulation  |                                                 |
\*---------------------------------------------------------------------------*/
FoamFile
{
    version     2.0;
    format      ascii;
    class       volScalarField;
    location    "250";
    object      nut;
}
// * * * * * * * * * * * * * * * * * * * * * * * * * * * * * * * * * * * * * //

dimensions      [0 2 -1 0 0 0 0];


internalField   nonuniform List<scalar> 
43248
(
0.00013615
0.000138112
0.000138111
0.000136315
0.000138127
0.000138109
0.000138101
0.000138121
0.000136273
0.000138108
0.000138132
0.000136146
0.000121817
0.000121866
0.000121873
0.000121894
2.36032e-05
2.36027e-05
7.37532e-05
7.37565e-05
9.17861e-05
5.00052e-05
9.20242e-05
9.17868e-05
5.00057e-05
4.9993e-05
9.20237e-05
0.000120205
9.3743e-05
0.00013329
0.000132575
0.00012083
0.000120215
0.000137397
9.37468e-05
0.000133289
9.34485e-05
0.000132562
0.00012083
2.36031e-05
2.35997e-05
0.000135482
7.37512e-05
7.37401e-05
7.36363e-05
7.36405e-05
2.36036e-05
2.36002e-05
5.00031e-05
9.20141e-05
9.37473e-05
0.000133294
0.000120821
4.99973e-05
9.2012e-05
0.000133295
9.37283e-05
0.000120819
0.000120209
0.000137461
9.3735e-05
0.000133253
9.34632e-05
0.000132648
0.000120839
9.17897e-05
5.00032e-05
4.9996e-05
9.20313e-05
0.000120208
0.000137407
0.000133292
9.37369e-05
0.000132583
9.34576e-05
0.000120834
9.17859e-05
5.00032e-05
4.99893e-05
9.20343e-05
2.3601e-05
7.37331e-05
7.37571e-05
2.36029e-05
0.000120222
0.000133285
9.37458e-05
0.000132682
0.000120851
0.000120218
0.000137418
0.000133323
9.37564e-05
0.000132615
9.34447e-05
0.000120842
9.17994e-05
5.00029e-05
9.20297e-05
9.17891e-05
5.00038e-05
4.999e-05
9.2027e-05
0.00013553
7.37459e-05
7.37455e-05
7.36424e-05
7.36381e-05
2.36031e-05
2.35997e-05
2.36026e-05
2.35992e-05
2.36017e-05
2.36007e-05
9.72385e-05
0.000112514
7.37126e-05
4.79283e-05
4.79225e-05
0.000112336
9.73093e-05
9.72726e-05
0.000112503
7.37039e-05
4.79268e-05
4.79146e-05
0.000112342
9.73497e-05
7.88592e-05
2.14856e-05
2.14837e-05
2.14841e-05
2.14815e-05
7.88784e-05
3.62529e-05
4.05172e-05
8.80164e-05
9.18974e-05
3.62508e-05
4.05192e-05
8.81122e-05
2.00945e-05
4.99983e-05
7.6071e-05
7.6025e-05
2.00963e-05
3.62529e-05
9.19084e-05
4.05217e-05
8.82142e-05
4.05197e-05
8.81151e-05
3.6255e-05
3.62547e-05
4.05173e-05
8.80255e-05
9.19005e-05
3.62526e-05
4.05195e-05
8.81288e-05
2.00956e-05
5.00021e-05
7.60952e-05
7.60468e-05
2.00973e-05
2.00965e-05
7.60004e-05
5.00004e-05
2.00948e-05
7.60448e-05
3.62548e-05
9.19121e-05
4.0522e-05
8.82269e-05
4.05198e-05
8.81248e-05
3.62569e-05
2.36013e-05
2.36015e-05
7.88338e-05
2.14808e-05
2.14833e-05
7.88087e-05
2.14826e-05
2.14852e-05
9.72594e-05
0.000112493
7.37062e-05
4.79236e-05
0.000112326
4.79154e-05
9.73131e-05
9.72481e-05
0.000112519
7.3711e-05
4.79287e-05
4.79275e-05
0.000112342
9.73001e-05
9.71896e-05
4.79124e-05
0.00011208
7.36818e-05
0.000112262
9.7133e-05
4.79145e-05
9.71762e-05
4.79204e-05
0.000112101
7.36706e-05
9.71217e-05
4.79214e-05
0.000112279
7.88547e-05
2.14838e-05
2.14863e-05
2.14819e-05
2.14845e-05
7.88796e-05
2.36019e-05
2.3602e-05
2.00957e-05
4.9996e-05
7.60892e-05
7.60467e-05
2.00974e-05
3.62546e-05
9.19114e-05
8.82109e-05
4.05211e-05
8.81291e-05
4.05193e-05
3.62564e-05
2.00941e-05
4.9995e-05
7.6064e-05
7.60198e-05
2.00959e-05
3.6252e-05
9.1904e-05
4.05211e-05
8.82036e-05
4.05189e-05
8.81083e-05
3.6254e-05
3.62552e-05
8.80281e-05
4.05165e-05
9.19113e-05
3.6253e-05
8.81342e-05
4.05192e-05
2.00963e-05
5.00022e-05
7.60978e-05
7.60553e-05
2.0098e-05
2.00972e-05
7.60062e-05
4.99969e-05
2.00955e-05
7.60486e-05
3.62552e-05
9.19163e-05
8.82376e-05
4.05216e-05
8.81292e-05
4.05191e-05
3.62574e-05
3.62533e-05
4.05167e-05
8.80197e-05
9.19072e-05
3.62511e-05
4.0519e-05
8.81137e-05
2.00954e-05
4.99958e-05
7.60772e-05
7.60287e-05
2.00972e-05
2.00963e-05
7.59791e-05
4.99971e-05
2.00945e-05
7.60275e-05
3.62534e-05
9.19092e-05
4.05215e-05
8.82153e-05
4.05193e-05
8.81216e-05
3.62555e-05
2.35993e-05
9.72534e-05
0.000112481
7.37005e-05
4.79181e-05
0.000112332
4.79171e-05
9.73214e-05
9.7245e-05
0.000112517
7.3713e-05
4.79335e-05
4.79245e-05
0.000112347
9.73099e-05
7.88579e-05
2.14827e-05
2.14861e-05
2.14808e-05
2.14842e-05
7.88828e-05
2.36012e-05
3.62537e-05
8.80384e-05
4.05175e-05
9.19067e-05
3.6252e-05
8.81175e-05
4.05196e-05
2.00955e-05
4.99957e-05
7.60829e-05
7.6035e-05
2.00973e-05
2.00965e-05
7.60346e-05
3.62542e-05
9.19245e-05
8.82174e-05
4.0522e-05
8.81405e-05
4.05203e-05
3.62559e-05
3.62556e-05
8.80259e-05
4.05176e-05
9.19149e-05
3.62534e-05
8.81278e-05
4.05198e-05
2.00962e-05
4.99965e-05
7.60894e-05
7.60427e-05
2.0098e-05
2.00973e-05
7.59944e-05
4.99978e-05
2.00954e-05
7.60412e-05
3.62557e-05
9.19155e-05
8.82274e-05
4.05222e-05
8.81257e-05
4.05203e-05
3.62577e-05
7.88288e-05
2.14835e-05
2.14805e-05
7.88093e-05
2.14854e-05
2.14824e-05
9.72336e-05
0.000112513
7.37124e-05
4.79326e-05
0.000112336
4.79237e-05
9.72997e-05
9.7249e-05
0.000112505
7.37082e-05
4.79203e-05
0.000112324
4.79191e-05
9.73132e-05
9.71709e-05
4.79163e-05
0.000112098
7.36758e-05
9.71093e-05
0.000112267
4.79256e-05
9.71876e-05
4.7912e-05
0.000112087
7.36762e-05
9.71243e-05
0.000112261
4.79131e-05
7.88551e-05
2.14865e-05
2.14835e-05
2.14847e-05
2.14817e-05
7.88751e-05
2.36014e-05
2.36015e-05
2.36008e-05
2.3601e-05
0.000119312
0.000136094
0.00012946
0.000129571
0.000129296
0.000129251
0.000119448
0.000119321
0.000136059
0.00012942
0.000129475
0.000129314
0.000129281
0.000119415
0.000119306
0.000136028
0.000129414
0.000129448
0.000129299
0.000129271
0.000119441
0.000119297
0.000136121
0.000129455
0.000129424
0.000129288
0.000129301
0.000119425
0.000119765
0.000119775
0.000119922
0.000132016
0.000131748
0.0001214
0.000119824
0.00011983
0.000119827
0.000119848
0.000132093
0.000131641
0.000119831
0.000119844
0.000119863
0.000132093
0.000131639
0.000121397
0.000119849
0.000119862
0.000119825
0.000119838
0.000132098
0.000131636
0.000131695
0.000116674
0.000133264
0.000120513
0.000131491
0.000116948
0.000133596
0.000127996
0.000121764
9.35961e-05
0.00010753
0.000121685
0.000107339
0.000128204
0.00013196
0.000120527
0.000117226
0.00013414
0.000116958
0.000133769
0.000132173
0.000131603
0.000116687
0.00013337
0.00012051
0.000131552
0.000116946
0.00013346
0.000128013
0.000121797
9.35924e-05
0.000107533
0.00010734
0.000121646
0.000128089
0.000127679
0.000107112
0.000121295
9.35988e-05
0.000127594
0.000107319
0.000121449
0.000132029
0.000120529
0.000117226
0.000134106
0.000116977
0.00013386
0.000132086
0.000119148
0.000135724
0.000128877
0.000128851
0.000128999
0.000119066
0.000129052
0.000128023
0.00012183
9.35979e-05
0.000107544
0.000121629
0.000107335
0.000128113
0.000131954
0.000120531
0.000117228
0.000133954
0.000116965
0.000133876
0.000132163
0.000127934
0.00012178
9.35899e-05
0.000107514
0.000107327
0.000121643
0.00012816
0.000131909
0.000120525
0.000133948
0.000117218
0.000133868
0.000116951
0.000132169
0.000131714
0.000116677
0.000133284
0.000120522
0.000131484
0.000116959
0.0001336
0.000127986
0.000121789
9.36186e-05
0.00010754
0.000121671
0.000107354
0.000128118
0.000127788
0.000107128
0.000121333
9.3584e-05
0.000127542
0.000121463
0.000107321
0.000131975
0.000120531
0.00011724
0.000134138
0.000116972
0.00013378
0.000132216
0.000131586
0.000133364
0.000116677
0.000120515
0.000131461
0.000133435
0.000116951
0.000127964
0.000121781
9.36102e-05
0.000107549
0.000107341
0.000121672
0.000128181
0.000127766
0.000107118
0.000121312
9.35843e-05
0.00012755
0.000107316
0.000121462
0.000132019
0.00012053
0.000133926
0.000117227
0.000133881
0.000116971
0.000132067
0.000131622
0.000133299
0.000116705
0.000120532
0.000131572
0.000133627
0.000116959
0.000127993
0.000121833
9.36173e-05
0.000107561
0.000121677
0.000107354
0.000128118
0.000127788
0.000107331
0.000132052
0.000120549
0.000134167
0.000117237
0.000133802
0.000116997
0.000132075
0.000131666
0.000133333
0.000116691
0.000120529
0.000131565
0.000133478
0.000116956
0.000128027
0.000121811
9.35962e-05
0.000107533
0.000107346
0.00012168
0.000128108
0.000127696
0.00010712
0.000121343
9.35967e-05
0.000127607
0.000107322
0.000121436
0.000132048
0.000120547
0.000133982
0.000117238
0.000133892
0.00011698
0.000132091
0.000119151
0.000135612
0.000128862
0.000128861
0.000119033
0.000129033
0.000129024
0.000150044
0.000101448
0.000101446
8.24917e-05
8.26303e-05
0.000102193
0.000102189
8.25279e-05
0.000102223
0.00010218
0.000102228
0.000102204
8.25858e-05
0.000102224
0.000102229
8.25649e-05
8.23582e-05
8.20953e-05
0.000101423
0.000101408
9.92268e-05
9.92231e-05
8.24423e-05
8.20838e-05
0.00010143
0.000101401
9.92613e-05
9.92163e-05
0.000101427
9.92587e-05
9.92403e-05
8.23519e-05
8.21011e-05
0.000101452
9.92567e-05
9.92674e-05
8.1916e-05
0.000151066
0.000151067
0.000151059
0.000151069
6.99859e-05
4.95516e-05
6.91123e-05
4.95654e-05
2.36301e-05
2.36268e-05
7.00054e-05
4.95549e-05
6.91039e-05
4.95593e-05
0.000150049
0.000150041
0.000150051
0.00014696
0.00014696
0.000146953
0.000146964
6.69954e-05
6.56959e-05
0.000125978
0.000100682
6.60037e-05
6.63791e-05
0.000124963
2.36277e-05
2.36244e-05
6.69947e-05
0.000125988
6.57274e-05
0.000100679
6.60057e-05
0.000124966
6.63439e-05
6.11145e-05
6.11149e-05
8.22305e-05
6.14353e-05
6.14338e-05
2.36331e-05
2.36367e-05
2.36317e-05
2.36354e-05
8.27707e-05
6.09379e-05
6.09413e-05
6.06097e-05
6.06119e-05
6.79547e-05
4.95546e-05
4.95403e-05
6.88737e-05
6.79571e-05
4.95569e-05
4.95426e-05
6.88796e-05
6.46759e-05
0.000103026
6.53707e-05
0.00012698
6.47582e-05
0.000128024
6.55002e-05
6.46552e-05
0.000103014
6.53867e-05
0.000126977
6.47534e-05
0.000128024
6.55337e-05
2.36332e-05
2.36367e-05
8.29358e-05
6.09612e-05
6.096e-05
6.05998e-05
6.05911e-05
2.36334e-05
2.36368e-05
6.79456e-05
4.95485e-05
4.95436e-05
6.88973e-05
6.4653e-05
0.000103035
6.53767e-05
0.000126984
6.47578e-05
0.000128031
6.55373e-05
6.79269e-05
4.95491e-05
4.95344e-05
6.89095e-05
6.46123e-05
0.000103005
0.000126976
6.54135e-05
0.000128026
6.46977e-05
6.55747e-05
6.46024e-05
0.000103054
6.54211e-05
0.000126986
6.46992e-05
0.00012803
6.55589e-05
6.79376e-05
4.95555e-05
4.95407e-05
6.88963e-05
6.4624e-05
0.000103031
0.000126985
6.54176e-05
0.00012803
6.47034e-05
6.55347e-05
6.79562e-05
4.9552e-05
4.95373e-05
6.88734e-05
2.36308e-05
2.36342e-05
8.28157e-05
6.09369e-05
6.09409e-05
6.06046e-05
6.0612e-05
2.36324e-05
2.36359e-05
6.46145e-05
0.00010305
0.000126987
6.53826e-05
0.000128032
6.47359e-05
6.55829e-05
6.46727e-05
0.000103056
0.000126993
6.53791e-05
0.000128038
6.47576e-05
6.55304e-05
6.79213e-05
4.95512e-05
4.95368e-05
6.89197e-05
6.79351e-05
4.95479e-05
4.9543e-05
6.89114e-05
8.29778e-05
6.09426e-05
6.09405e-05
6.06145e-05
6.06147e-05
2.36323e-05
2.36359e-05
2.36316e-05
2.36353e-05
2.36301e-05
2.36267e-05
2.3629e-05
2.36255e-05
6.11135e-05
6.11158e-05
8.23298e-05
6.14368e-05
6.1436e-05
2.36202e-05
2.36238e-05
2.36196e-05
2.36227e-05
8.20593e-05
6.19037e-05
6.19062e-05
6.16e-05
6.16013e-05
6.99906e-05
4.95538e-05
6.91178e-05
4.95677e-05
6.69459e-05
6.57412e-05
0.000125977
0.00010065
6.60591e-05
6.63515e-05
0.000124957
6.69674e-05
6.57385e-05
0.000125975
0.000100645
6.604e-05
6.63706e-05
0.000124957
7.01991e-05
4.95754e-05
4.95622e-05
7.10413e-05
7.02059e-05
4.95777e-05
4.95644e-05
7.10265e-05
6.74765e-05
9.99389e-05
6.73041e-05
0.000122967
6.6703e-05
0.000123963
6.84031e-05
6.74629e-05
9.99248e-05
6.73077e-05
0.000122967
6.67011e-05
0.000123962
6.84111e-05
6.1105e-05
6.10965e-05
8.21955e-05
6.14554e-05
6.14538e-05
2.36303e-05
2.3627e-05
2.36206e-05
2.36238e-05
8.21747e-05
6.19237e-05
6.19115e-05
6.15907e-05
6.15824e-05
2.36208e-05
2.36239e-05
6.69578e-05
6.574e-05
0.000125982
0.000100681
6.60378e-05
6.63538e-05
0.000124957
7.00185e-05
4.95457e-05
6.90923e-05
4.956e-05
6.69843e-05
0.000125976
6.56945e-05
0.000100637
6.60049e-05
0.000124956
6.63902e-05
7.01967e-05
4.95701e-05
4.95654e-05
7.10448e-05
6.7475e-05
9.99453e-05
6.73523e-05
0.000122967
6.6704e-05
0.00012397
6.83988e-05
7.01847e-05
4.95701e-05
4.95564e-05
7.10535e-05
6.74522e-05
9.99178e-05
0.000122966
6.73394e-05
0.000123961
6.66622e-05
6.8436e-05
7.00089e-05
4.95521e-05
6.91049e-05
4.95663e-05
6.696e-05
0.00012598
6.57023e-05
0.000100662
6.60318e-05
0.000124963
6.63927e-05
6.99849e-05
4.95486e-05
6.91195e-05
4.95627e-05
6.74254e-05
9.99641e-05
6.73341e-05
0.000122974
6.66681e-05
0.000123963
6.84692e-05
7.01956e-05
4.95764e-05
4.95628e-05
7.10468e-05
6.74675e-05
9.99428e-05
0.000122973
6.73151e-05
0.000123966
6.66707e-05
6.84173e-05
7.02097e-05
4.95726e-05
4.95593e-05
7.10239e-05
6.11092e-05
6.11144e-05
8.23866e-05
6.14324e-05
6.14353e-05
2.36294e-05
2.36259e-05
2.36182e-05
2.36214e-05
8.20169e-05
6.19053e-05
6.19033e-05
6.15934e-05
6.15991e-05
2.36197e-05
2.3623e-05
6.69579e-05
0.000125991
6.57412e-05
0.000100687
6.60471e-05
0.000124971
6.63507e-05
7.00284e-05
4.95482e-05
6.90884e-05
4.95613e-05
7.00207e-05
4.95542e-05
6.9102e-05
4.95587e-05
6.74436e-05
9.99629e-05
0.000122979
6.73027e-05
0.000123977
6.66977e-05
6.84413e-05
6.74832e-05
9.99705e-05
0.000122981
6.73049e-05
0.000123975
6.67075e-05
6.84158e-05
7.01815e-05
4.95678e-05
4.95616e-05
7.10468e-05
7.01901e-05
4.9569e-05
4.95648e-05
7.10696e-05
2.36293e-05
2.36259e-05
2.36287e-05
2.36252e-05
8.22766e-05
6.1906e-05
6.19037e-05
6.16006e-05
6.16006e-05
2.36197e-05
2.3623e-05
2.3619e-05
2.36224e-05
3.61962e-05
6.96648e-05
4.03457e-05
7.10881e-05
4.03472e-05
7.07573e-05
3.6199e-05
2.02174e-05
6.83208e-05
4.95601e-05
2.0217e-05
6.84509e-05
3.61958e-05
6.94479e-05
4.03405e-05
7.03544e-05
3.61929e-05
4.03391e-05
7.06949e-05
2.02141e-05
6.86187e-05
4.9557e-05
6.84932e-05
2.02145e-05
2.36299e-05
2.36269e-05
3.61977e-05
6.96632e-05
7.11095e-05
4.03453e-05
7.07619e-05
4.03467e-05
3.62006e-05
2.02187e-05
6.83494e-05
4.95539e-05
2.02183e-05
6.84737e-05
3.61973e-05
6.94648e-05
7.03576e-05
4.03399e-05
3.61944e-05
7.07156e-05
4.03387e-05
2.02155e-05
6.86415e-05
4.95602e-05
6.85209e-05
2.02158e-05
2.36275e-05
2.36245e-05
7.08365e-05
2.1553e-05
2.155e-05
2.15529e-05
2.15499e-05
7.09687e-05
7.38845e-05
7.09511e-05
4.71519e-05
6.11913e-05
7.37513e-05
7.11564e-05
4.71585e-05
7.39202e-05
7.09799e-05
4.71441e-05
6.11898e-05
7.37893e-05
7.11573e-05
4.71488e-05
7.08012e-05
2.15561e-05
2.15532e-05
7.06641e-05
2.15562e-05
2.15533e-05
7.41787e-05
4.71699e-05
6.13597e-05
7.17824e-05
7.15935e-05
4.7166e-05
7.43139e-05
7.42257e-05
4.71614e-05
6.13594e-05
7.17863e-05
7.16084e-05
4.7157e-05
7.43485e-05
2.36334e-05
2.36364e-05
2.36321e-05
2.3635e-05
7.04486e-05
2.15634e-05
2.15594e-05
7.03069e-05
2.15635e-05
2.15596e-05
7.32912e-05
7.05289e-05
6.08616e-05
4.71494e-05
4.71358e-05
7.03338e-05
7.34711e-05
7.33392e-05
7.05555e-05
6.08642e-05
4.71387e-05
4.71247e-05
7.03218e-05
7.34908e-05
7.30325e-05
4.71223e-05
6.96881e-05
6.06865e-05
7.28476e-05
4.71359e-05
6.98887e-05
7.30709e-05
4.71112e-05
6.96828e-05
6.06892e-05
7.28928e-05
4.71251e-05
6.99131e-05
7.04881e-05
2.15601e-05
2.15562e-05
2.156e-05
2.15561e-05
7.0626e-05
3.6189e-05
4.03272e-05
6.95201e-05
6.83054e-05
3.6186e-05
4.03269e-05
6.98513e-05
2.02199e-05
4.9546e-05
6.8278e-05
2.02203e-05
6.81427e-05
2.02232e-05
6.79581e-05
4.95489e-05
2.02227e-05
6.80999e-05
3.61895e-05
6.85351e-05
4.03324e-05
7.02852e-05
3.61924e-05
4.03344e-05
6.99439e-05
3.61908e-05
4.03274e-05
6.95121e-05
6.82989e-05
3.61877e-05
4.03272e-05
6.98821e-05
2.02209e-05
4.9548e-05
6.83095e-05
6.81622e-05
2.02214e-05
2.02243e-05
6.79779e-05
4.95513e-05
2.02238e-05
6.8131e-05
3.61912e-05
6.8545e-05
4.03327e-05
7.03026e-05
4.03345e-05
6.99435e-05
3.61943e-05
2.36334e-05
2.36365e-05
7.04457e-05
2.15605e-05
2.15628e-05
7.03134e-05
2.15605e-05
2.15628e-05
7.33517e-05
7.05581e-05
6.08521e-05
4.71361e-05
7.03263e-05
4.71324e-05
7.35195e-05
7.32998e-05
7.05443e-05
6.08432e-05
4.71468e-05
4.71359e-05
7.03054e-05
7.34666e-05
7.30475e-05
4.71179e-05
6.96897e-05
6.07094e-05
6.99105e-05
7.29171e-05
4.71225e-05
7.30289e-05
4.7125e-05
6.9664e-05
6.07072e-05
7.28561e-05
4.71314e-05
6.99046e-05
7.04932e-05
2.15572e-05
2.15595e-05
2.15572e-05
2.15594e-05
7.06237e-05
2.36335e-05
2.36367e-05
3.61905e-05
6.95177e-05
4.03265e-05
6.83197e-05
3.61874e-05
6.98747e-05
4.03266e-05
2.02212e-05
4.95495e-05
6.83007e-05
2.02216e-05
6.81718e-05
2.02245e-05
6.79884e-05
4.9543e-05
2.02241e-05
6.81214e-05
3.61909e-05
6.85313e-05
7.03075e-05
4.0332e-05
3.61939e-05
6.99454e-05
4.03338e-05
3.61882e-05
4.03228e-05
6.95225e-05
6.83269e-05
3.61851e-05
4.03302e-05
6.98519e-05
2.02195e-05
4.95398e-05
6.82769e-05
6.81411e-05
2.022e-05
2.02228e-05
6.79607e-05
4.95435e-05
2.02223e-05
6.80977e-05
3.61886e-05
6.85198e-05
4.03376e-05
7.02724e-05
4.0327e-05
6.99469e-05
3.61917e-05
3.61912e-05
6.95143e-05
4.0323e-05
6.83201e-05
3.61879e-05
6.98819e-05
4.033e-05
2.02216e-05
4.95461e-05
6.83111e-05
6.81642e-05
2.02221e-05
2.0225e-05
6.79802e-05
4.95498e-05
2.02245e-05
6.81328e-05
3.61914e-05
6.85336e-05
7.0305e-05
4.03375e-05
6.99453e-05
4.03272e-05
3.61947e-05
3.61889e-05
4.03264e-05
6.95062e-05
6.82996e-05
3.61858e-05
4.03264e-05
6.98728e-05
2.02204e-05
4.95427e-05
6.82911e-05
6.81432e-05
2.02208e-05
2.02237e-05
6.79595e-05
4.95463e-05
2.02232e-05
6.81129e-05
3.61894e-05
6.85452e-05
4.03319e-05
7.02886e-05
4.03337e-05
6.99407e-05
3.61924e-05
2.3631e-05
2.3634e-05
7.04519e-05
2.15592e-05
2.15625e-05
7.03069e-05
2.15593e-05
2.15627e-05
7.33525e-05
7.05506e-05
6.08571e-05
4.71386e-05
7.03066e-05
4.71246e-05
7.34969e-05
7.33098e-05
7.0544e-05
6.08627e-05
4.71488e-05
4.7135e-05
7.03157e-05
7.34598e-05
7.305e-05
4.71111e-05
6.96703e-05
6.06848e-05
6.99218e-05
7.29076e-05
4.7125e-05
7.30121e-05
4.71215e-05
6.96729e-05
6.06898e-05
7.28684e-05
4.71354e-05
6.99104e-05
7.04888e-05
2.1556e-05
2.15593e-05
2.15559e-05
2.15592e-05
7.06292e-05
2.36326e-05
2.36357e-05
3.61894e-05
6.95022e-05
4.03218e-05
6.83399e-05
3.61861e-05
6.98758e-05
4.03311e-05
2.02205e-05
4.95422e-05
6.82893e-05
6.81404e-05
2.0221e-05
2.02239e-05
6.79566e-05
4.95456e-05
2.02234e-05
6.81107e-05
3.61896e-05
6.85159e-05
7.0297e-05
4.03383e-05
6.99337e-05
4.03265e-05
3.61928e-05
3.61912e-05
6.95091e-05
4.03256e-05
6.83293e-05
3.6188e-05
6.98869e-05
4.03276e-05
2.02216e-05
4.95489e-05
6.82995e-05
6.8171e-05
2.0222e-05
2.02249e-05
6.79879e-05
4.95424e-05
2.02245e-05
6.81204e-05
3.61915e-05
6.85289e-05
7.03072e-05
4.03328e-05
6.99406e-05
4.03333e-05
3.61946e-05
7.04502e-05
2.15627e-05
2.15598e-05
7.03063e-05
2.15629e-05
2.15599e-05
7.33097e-05
7.05353e-05
6.08644e-05
4.71476e-05
7.34543e-05
7.03053e-05
4.71348e-05
7.33392e-05
7.05202e-05
6.08645e-05
4.71361e-05
7.35026e-05
7.03456e-05
4.71305e-05
7.3003e-05
4.71211e-05
6.96625e-05
6.06915e-05
7.28649e-05
6.99158e-05
4.71348e-05
7.30644e-05
4.71165e-05
6.97111e-05
6.06904e-05
7.28902e-05
6.98987e-05
4.71227e-05
7.04881e-05
2.15595e-05
2.15566e-05
7.06283e-05
2.15594e-05
2.15565e-05
2.36325e-05
2.36356e-05
2.3632e-05
2.36349e-05
2.36298e-05
2.36269e-05
2.36286e-05
2.36258e-05
7.08358e-05
2.15535e-05
2.15497e-05
2.15534e-05
2.15495e-05
7.09675e-05
7.39075e-05
7.09638e-05
4.71493e-05
6.11903e-05
7.37315e-05
4.71625e-05
7.11579e-05
7.39297e-05
7.09605e-05
4.71382e-05
6.11932e-05
7.37946e-05
4.71519e-05
7.11666e-05
7.07992e-05
2.15567e-05
2.15528e-05
7.06645e-05
2.15568e-05
2.15529e-05
7.4161e-05
4.71751e-05
6.135e-05
7.17944e-05
4.7162e-05
7.43299e-05
7.1596e-05
7.42206e-05
4.71644e-05
6.13614e-05
7.18084e-05
4.71509e-05
7.43567e-05
7.16017e-05
2.36206e-05
2.36236e-05
2.36196e-05
2.36224e-05
7.11321e-05
2.15502e-05
2.15462e-05
7.10024e-05
2.15501e-05
2.15469e-05
7.49916e-05
7.30478e-05
6.18315e-05
4.71946e-05
4.71843e-05
7.28314e-05
7.51745e-05
7.50527e-05
7.30533e-05
6.1832e-05
4.71892e-05
4.71819e-05
7.28448e-05
7.51724e-05
7.47603e-05
4.7174e-05
7.22083e-05
6.16742e-05
7.45752e-05
4.71869e-05
7.24341e-05
7.4753e-05
4.71637e-05
7.22191e-05
6.16757e-05
7.46444e-05
4.7176e-05
7.24363e-05
7.11657e-05
2.15463e-05
2.15439e-05
2.15465e-05
2.15437e-05
7.12859e-05
3.6198e-05
6.96743e-05
4.03459e-05
7.11098e-05
4.03474e-05
7.07634e-05
3.62009e-05
2.02185e-05
6.83412e-05
4.95625e-05
2.0218e-05
6.8483e-05
3.61976e-05
6.94516e-05
4.03406e-05
7.03591e-05
4.03392e-05
3.61946e-05
7.07147e-05
2.02151e-05
6.86511e-05
4.95591e-05
6.85132e-05
2.02156e-05
3.62019e-05
4.03537e-05
7.11479e-05
7.05301e-05
3.61994e-05
4.03525e-05
7.14742e-05
2.02079e-05
4.95673e-05
6.89384e-05
6.88231e-05
2.02083e-05
2.02113e-05
6.86603e-05
4.95705e-05
2.02112e-05
6.87805e-05
3.62022e-05
7.07117e-05
4.03593e-05
7.18449e-05
4.03606e-05
7.1528e-05
3.62049e-05
3.6204e-05
4.03539e-05
7.11549e-05
7.05183e-05
3.62012e-05
4.03527e-05
7.14942e-05
2.02093e-05
4.95695e-05
6.8972e-05
6.88411e-05
2.02098e-05
2.02127e-05
6.86801e-05
4.95728e-05
2.02122e-05
6.88142e-05
3.62043e-05
7.07257e-05
4.03595e-05
7.18568e-05
4.03609e-05
7.1538e-05
3.6207e-05
7.08399e-05
2.15506e-05
2.15529e-05
2.15506e-05
2.15528e-05
7.0966e-05
7.39467e-05
7.09589e-05
4.71434e-05
6.12125e-05
4.71499e-05
7.37803e-05
7.11864e-05
7.39059e-05
7.09475e-05
4.71473e-05
6.12104e-05
7.11647e-05
7.37374e-05
4.7161e-05
7.07973e-05
2.15538e-05
2.15561e-05
2.15539e-05
7.06689e-05
2.15562e-05
7.42084e-05
4.71618e-05
6.13497e-05
7.18126e-05
4.71577e-05
7.15892e-05
7.43685e-05
7.4168e-05
4.71738e-05
6.13415e-05
7.18021e-05
7.1577e-05
4.71606e-05
7.4329e-05
2.36302e-05
2.36271e-05
2.36207e-05
2.36237e-05
7.11303e-05
2.15473e-05
2.15496e-05
7.10057e-05
2.15474e-05
2.15497e-05
7.50624e-05
7.30435e-05
6.18207e-05
4.71856e-05
7.28441e-05
4.71822e-05
7.51755e-05
7.50062e-05
7.30433e-05
6.18105e-05
4.71978e-05
4.7185e-05
7.28246e-05
7.51593e-05
7.47646e-05
4.717e-05
7.22131e-05
6.16923e-05
7.24367e-05
7.46336e-05
4.71738e-05
7.4752e-05
4.7173e-05
7.22017e-05
6.1689e-05
7.45909e-05
4.71859e-05
7.24271e-05
7.11692e-05
2.15442e-05
2.15465e-05
2.15441e-05
2.15463e-05
7.12892e-05
2.36209e-05
2.36239e-05
3.61953e-05
6.96483e-05
4.03515e-05
7.10804e-05
4.03396e-05
7.07677e-05
3.61983e-05
2.02171e-05
6.83218e-05
4.95547e-05
2.02166e-05
6.84485e-05
3.61951e-05
6.94742e-05
4.0333e-05
7.03637e-05
4.03448e-05
3.6192e-05
7.06878e-05
2.02137e-05
6.86167e-05
4.95511e-05
6.84927e-05
2.02142e-05
3.62037e-05
7.11541e-05
4.03532e-05
7.0534e-05
3.62009e-05
7.14927e-05
4.03521e-05
2.02096e-05
4.95704e-05
6.8962e-05
6.88495e-05
2.021e-05
2.02129e-05
6.86877e-05
4.95647e-05
2.02126e-05
6.88046e-05
3.6204e-05
7.07156e-05
7.18628e-05
4.0359e-05
7.15347e-05
4.03602e-05
3.62067e-05
3.62015e-05
4.03466e-05
7.1156e-05
7.0545e-05
3.61985e-05
4.03584e-05
7.14653e-05
2.02079e-05
4.95613e-05
6.89394e-05
6.88174e-05
2.02083e-05
2.02112e-05
6.86606e-05
4.95651e-05
2.02108e-05
6.878e-05
3.62016e-05
7.07019e-05
4.03651e-05
7.18368e-05
4.03533e-05
7.15351e-05
3.62044e-05
3.61982e-05
6.96615e-05
7.11115e-05
4.03516e-05
7.07664e-05
4.03397e-05
3.62014e-05
2.02192e-05
6.83428e-05
4.95611e-05
6.84844e-05
2.02187e-05
3.61981e-05
6.94648e-05
7.0361e-05
4.0333e-05
7.07164e-05
3.61949e-05
4.03448e-05
2.02158e-05
6.86526e-05
4.95575e-05
6.85149e-05
2.02163e-05
3.61962e-05
6.9678e-05
4.03452e-05
7.10908e-05
4.03466e-05
7.07684e-05
3.6199e-05
2.02179e-05
6.83237e-05
4.95575e-05
2.02175e-05
6.84602e-05
3.61957e-05
6.94463e-05
4.03398e-05
7.03599e-05
3.61928e-05
4.03384e-05
7.06968e-05
2.02146e-05
6.86229e-05
4.9554e-05
6.85033e-05
2.0215e-05
3.62045e-05
7.11584e-05
4.03467e-05
7.05387e-05
3.62015e-05
7.14877e-05
4.03585e-05
2.021e-05
4.95678e-05
6.89728e-05
6.88427e-05
2.02104e-05
2.02134e-05
6.86812e-05
4.95714e-05
2.02129e-05
6.88153e-05
3.62046e-05
7.07133e-05
7.18558e-05
4.03652e-05
7.15447e-05
4.03534e-05
3.62075e-05
3.62021e-05
4.03531e-05
7.1158e-05
7.05149e-05
3.61994e-05
4.0352e-05
7.14752e-05
2.02088e-05
4.95644e-05
6.89428e-05
6.88328e-05
2.02091e-05
2.02121e-05
6.86706e-05
4.95678e-05
2.02117e-05
6.87856e-05
3.62025e-05
7.07281e-05
4.03588e-05
7.18466e-05
4.036e-05
7.15378e-05
3.62051e-05
7.08393e-05
2.15494e-05
2.15527e-05
2.15493e-05
2.15526e-05
7.09695e-05
7.39291e-05
7.09497e-05
4.71381e-05
6.11897e-05
4.71518e-05
7.37927e-05
7.11736e-05
7.38905e-05
7.09533e-05
4.71487e-05
6.11926e-05
7.11616e-05
7.37495e-05
4.71619e-05
7.08013e-05
2.15526e-05
2.15559e-05
2.15527e-05
7.06658e-05
2.1556e-05
7.42215e-05
4.71643e-05
6.13542e-05
7.18075e-05
4.71508e-05
7.15892e-05
7.43619e-05
7.41802e-05
4.71736e-05
6.13596e-05
7.17839e-05
7.16016e-05
4.71617e-05
7.43194e-05
2.36291e-05
2.36262e-05
2.36183e-05
2.36212e-05
7.11328e-05
2.1546e-05
2.15494e-05
7.10045e-05
2.15462e-05
2.15495e-05
7.5057e-05
7.30507e-05
6.18185e-05
4.71882e-05
7.28361e-05
4.71751e-05
7.51836e-05
7.5018e-05
7.30239e-05
6.18327e-05
4.71939e-05
4.71903e-05
7.28529e-05
7.51447e-05
7.47733e-05
4.71633e-05
7.221e-05
6.16715e-05
7.24269e-05
7.46399e-05
4.71765e-05
7.47364e-05
4.71779e-05
7.22252e-05
6.16739e-05
7.46016e-05
4.71827e-05
7.24177e-05
7.1167e-05
2.1543e-05
2.15462e-05
2.15428e-05
2.15461e-05
7.12922e-05
2.362e-05
2.36228e-05
3.61963e-05
6.96452e-05
7.1103e-05
4.03517e-05
7.07562e-05
4.03398e-05
3.61995e-05
2.02181e-05
6.8319e-05
4.95566e-05
6.84623e-05
2.02176e-05
3.61962e-05
6.94845e-05
7.035e-05
4.03332e-05
7.07082e-05
3.6193e-05
4.0345e-05
2.02147e-05
6.86308e-05
4.95539e-05
6.8492e-05
2.02152e-05
3.61983e-05
6.96581e-05
7.11124e-05
4.03454e-05
7.07623e-05
4.03468e-05
3.62012e-05
2.02191e-05
6.83493e-05
4.95533e-05
2.02188e-05
6.84721e-05
3.6198e-05
6.94797e-05
7.03575e-05
4.03401e-05
3.6195e-05
7.07178e-05
4.03387e-05
2.02159e-05
6.86418e-05
4.95596e-05
6.85203e-05
2.02162e-05
3.62026e-05
7.11485e-05
4.03467e-05
7.05449e-05
3.61996e-05
7.14783e-05
4.03585e-05
2.0209e-05
4.95691e-05
6.89416e-05
6.88294e-05
2.02093e-05
2.02122e-05
6.86602e-05
4.95643e-05
2.02118e-05
6.87894e-05
3.62027e-05
7.07106e-05
7.18468e-05
4.03653e-05
7.15356e-05
4.03535e-05
3.62055e-05
3.62044e-05
7.11555e-05
4.03534e-05
7.0557e-05
3.62016e-05
7.14946e-05
4.03522e-05
2.021e-05
4.95699e-05
6.89675e-05
6.88377e-05
2.02104e-05
2.02133e-05
6.86863e-05
4.9564e-05
2.0213e-05
6.88062e-05
3.62046e-05
7.0704e-05
7.18649e-05
4.03591e-05
7.15358e-05
4.03603e-05
3.62073e-05
2.36291e-05
2.36261e-05
2.36284e-05
2.36255e-05
7.11292e-05
2.15496e-05
2.15467e-05
7.10068e-05
2.15497e-05
2.15468e-05
7.50222e-05
7.30293e-05
6.18327e-05
4.71936e-05
7.28478e-05
4.71904e-05
7.51358e-05
7.50643e-05
7.30421e-05
6.18335e-05
4.71853e-05
7.28564e-05
4.71818e-05
7.51778e-05
7.47196e-05
4.71782e-05
7.22185e-05
6.16762e-05
7.46026e-05
7.24095e-05
4.71818e-05
7.47639e-05
4.71695e-05
7.22351e-05
6.16751e-05
7.46491e-05
7.24255e-05
4.71736e-05
7.11696e-05
2.15465e-05
2.15436e-05
2.15464e-05
2.15435e-05
7.12884e-05
2.36199e-05
2.36228e-05
2.36193e-05
2.36221e-05
0.000173133
0.000173146
0.000149008
0.000172273
0.000172283
0.00019151
0.000192217
7.40739e-05
7.27472e-05
7.27518e-05
8.23966e-05
7.3946e-05
7.26988e-05
7.26823e-05
7.32046e-05
8.2528e-05
7.2405e-05
7.24068e-05
7.22929e-05
7.228e-05
7.3509e-05
7.32462e-05
8.26249e-05
7.23046e-05
7.24043e-05
7.23801e-05
7.22649e-05
7.34275e-05
7.32221e-05
8.25134e-05
7.23858e-05
7.2333e-05
7.22563e-05
7.23341e-05
7.34362e-05
7.32668e-05
8.27066e-05
7.2295e-05
7.22782e-05
7.34276e-05
7.23568e-05
7.23775e-05
7.41607e-05
7.26762e-05
7.26633e-05
8.24732e-05
7.38739e-05
7.27904e-05
7.28143e-05
7.58362e-05
8.19248e-05
7.4253e-05
7.41375e-05
7.3935e-05
7.39784e-05
7.61204e-05
7.40888e-05
7.27538e-05
7.26655e-05
8.23502e-05
7.27949e-05
7.39381e-05
7.27112e-05
7.5892e-05
8.19832e-05
7.41834e-05
7.41283e-05
7.40193e-05
7.39694e-05
7.61049e-05
7.40813e-05
7.26654e-05
7.27218e-05
8.2443e-05
7.27703e-05
7.39287e-05
7.28023e-05
7.58873e-05
8.19179e-05
7.42169e-05
7.4112e-05
7.38681e-05
7.40015e-05
7.60745e-05
7.59036e-05
8.21501e-05
7.40384e-05
7.40181e-05
7.40553e-05
7.40608e-05
7.60496e-05
0.000152105
0.000173986
0.000173996
0.000174848
0.000174862
0.000193621
0.000192915
0.00015211
0.000173986
0.000174
0.000174849
0.000174863
0.000193622
0.000192916
0.000152103
0.000173982
0.000173995
0.000174847
0.00017486
0.000193619
0.000192912
0.000152112
0.000173988
0.000174
0.000174851
0.000174864
0.00019362
0.000192914
0.000173133
0.000173147
0.000149009
0.000172273
0.000172287
0.00019151
0.000192218
0.000173131
0.000173145
0.000149
0.00017227
0.000172283
0.000191506
0.000192214
0.000173136
0.000173148
0.000149011
0.000172274
0.000172287
0.000191508
0.000192216
0.000147992
0.000170565
0.000170575
0.000171423
0.000171436
0.00019081
0.000190101
0.000147997
0.000170565
0.000170579
0.000171423
0.000171437
0.000190811
0.000190102
0.00014799
0.000170562
0.000170575
0.000171421
0.000171435
0.000190807
0.000190098
0.000147999
0.000170566
0.000170579
0.000171425
0.000171439
0.000190809
0.0001901
7.26917e-05
6.67107e-05
6.86904e-05
7.51701e-05
6.84423e-05
7.4981e-05
7.26082e-05
6.85754e-05
6.84591e-05
6.79503e-05
6.59085e-05
6.86863e-05
6.85097e-05
6.81913e-05
7.25734e-05
6.62789e-05
6.77293e-05
7.51014e-05
7.25309e-05
6.79789e-05
7.5281e-05
6.90235e-05
6.87762e-05
6.61861e-05
6.90591e-05
6.90376e-05
6.85938e-05
6.89503e-05
7.27625e-05
6.67252e-05
7.49702e-05
6.86726e-05
7.51397e-05
6.84725e-05
7.2639e-05
6.85945e-05
6.84602e-05
6.79721e-05
6.58671e-05
6.86401e-05
6.85508e-05
6.81581e-05
7.26007e-05
6.62784e-05
7.51955e-05
6.77339e-05
7.25397e-05
7.51678e-05
6.79593e-05
6.9018e-05
6.87571e-05
6.62162e-05
6.9097e-05
6.90262e-05
6.86102e-05
6.89619e-05
7.45923e-05
8.23273e-05
7.31399e-05
7.31121e-05
7.31468e-05
7.31441e-05
7.47447e-05
7.28282e-05
8.28923e-05
7.19276e-05
7.19355e-05
7.25646e-05
7.20381e-05
7.20311e-05
7.24351e-05
6.63843e-05
7.54326e-05
6.48339e-05
7.27151e-05
6.65552e-05
7.55032e-05
6.83546e-05
6.80471e-05
6.525e-05
6.75184e-05
6.79526e-05
6.73843e-05
6.82597e-05
6.79234e-05
6.67498e-05
6.74231e-05
6.48788e-05
6.75063e-05
6.80609e-05
6.69084e-05
7.27077e-05
6.53453e-05
6.72383e-05
7.53269e-05
6.70684e-05
7.52808e-05
7.24855e-05
7.26428e-05
6.63215e-05
7.55926e-05
6.48466e-05
7.24971e-05
6.66161e-05
7.53744e-05