/*--------------------------------*- C++ -*----------------------------------*\
| =========                 |                                                 |
| \\      /  F ield         | OpenFOAM: The Open Source CFD Toolbox           |
|  \\    /   O peration     | Version:  v1912                                 |
|   \\  /    A nd           | Website:  www.openfoam.com                      |
|    \\/     M anipulation  |                                                 |
\*---------------------------------------------------------------------------*/
FoamFile
{
    version     2.0;
    format      ascii;
    class       volScalarField;
    location    "0.7";
    object      p;
}
// * * * * * * * * * * * * * * * * * * * * * * * * * * * * * * * * * * * * * //

dimensions      [0 2 -2 0 0 0 0];


internalField   nonuniform List<scalar> 
171728
(
0.0215276
0.0215313
0.0215313
0.0215471
0.0213013
0.0213014
0.0213014
0.0213155
0.0210732
0.0210732
0.0210732
0.0210872
0.020845
0.020845
0.020845
0.020859
0.0206168
0.0206167
0.0206167
0.0206308
0.0203886
0.0203885
0.0203885
0.0204025
0.0201603
0.0201603
0.0201603
0.0201743
0.0199321
0.0199321
0.0199321
0.0199461
0.0197039
0.0197038
0.0197038
0.0197179
0.0194757
0.0194756
0.0194756
0.0194896
0.0192474
0.0192474
0.0192474
0.0192614
0.0190192
0.0190192
0.0190192
0.0190332
0.018791
0.0187909
0.0187909
0.018805
0.0185628
0.0185627
0.0185627
0.0185768
0.0183346
0.0183345
0.0183345
0.0183485
0.0181063
0.0181063
0.0181063
0.0181203
0.0178781
0.0178781
0.0178781
0.0178921
0.0176499
0.0176499
0.0176499
0.0176639
0.0174217
0.0174216
0.0174216
0.0174357
0.0171935
0.0171934
0.0171934
0.0172074
0.0169652
0.0169652
0.0169652
0.0169792
0.016737
0.016737
0.016737
0.016751
0.0165088
0.0165087
0.0165087
0.0165228
0.0162806
0.0162805
0.0162805
0.0162946
0.0160524
0.0160523
0.0160523
0.0160663
0.0158241
0.0158241
0.0158241
0.0158381
0.0155959
0.0155959
0.0155959
0.0156099
0.0153677
0.0153676
0.0153676
0.0153817
0.0151395
0.0151394
0.0151394
0.0151534
0.0149112
0.0149112
0.0149112
0.0149252
0.014683
0.014683
0.014683
0.014697
0.0144548
0.0144548
0.0144548
0.0144688
0.0142266
0.0142265
0.0142265
0.0142406
0.0139984
0.0139983
0.0139983
0.0140124
0.0137702
0.0137701
0.0137701
0.0137841
0.0135419
0.0135419
0.0135419
0.0135559
0.0133137
0.0133137
0.0133137
0.0133277
0.0130855
0.0130855
0.0130855
0.0130995
0.0128573
0.0128572
0.0128572
0.0128713
0.0126291
0.012629
0.012629
0.0126431
0.0124009
0.0124008
0.0124008
0.0124148
0.0121726
0.0121726
0.0121726
0.0121866
0.0119444
0.0119444
0.0119444
0.0119584
0.0117162
0.0117161
0.0117161
0.0117302
0.011488
0.0114879
0.0114879
0.011502
0.0112597
0.0112597
0.0112597
0.0112737
0.0110315
0.0110315
0.0110315
0.0110455
0.0108033
0.0108032
0.0108032
0.0108173
0.0105751
0.010575
0.010575
0.0105891
0.0103469
0.0103468
0.0103468
0.0103608
0.0101186
0.0101186
0.0101186
0.0101326
0.00989042
0.00989037
0.00989037
0.0099044
0.00966221
0.00966215
0.00966215
0.00967619
0.00943399
0.00943393
0.00943393
0.00944797
0.00920577
0.00920572
0.00920572
0.00921975
0.00897756
0.0089775
0.0089775
0.00899154
0.00874934
0.00874928
0.00874928
0.00876332
0.00852112
0.00852107
0.00852107
0.0085351
0.0082929
0.00829285
0.00829285
0.00830688
0.00806468
0.00806462
0.00806462
0.00807866
0.00783646
0.0078364
0.0078364
0.00785044
0.00760823
0.00760818
0.00760818
0.00762221
0.00738001
0.00737995
0.00737995
0.00739399
0.00715178
0.00715173
0.00715173
0.00716576
0.00692356
0.0069235
0.0069235
0.00693754
0.00669533
0.00669527
0.00669528
0.00670931
0.00646711
0.00646705
0.00646705
0.00648108
0.00623888
0.00623883
0.00623883
0.00625286
0.00601066
0.0060106
0.0060106
0.00602464
0.00578244
0.00578238
0.00578238
0.00579642
0.00555422
0.00555416
0.00555416
0.0055682
0.005326
0.00532594
0.00532594
0.00533998
0.00509778
0.00509772
0.00509772
0.00511176
0.00486956
0.0048695
0.0048695
0.00488354
0.00464134
0.00464128
0.00464128
0.00465532
0.00441312
0.00441307
0.00441307
0.0044271
0.0041849
0.00418485
0.00418485
0.00419888
0.00395668
0.00395663
0.00395663
0.00397066
0.00372846
0.00372841
0.00372841
0.00374244
0.00350024
0.00350018
0.00350018
0.00351422
0.00327202
0.00327196
0.00327196
0.003286
0.00304379
0.00304373
0.00304374
0.00305777
0.00281557
0.00281551
0.00281551
0.00282955
0.00258734
0.00258729
0.00258729
0.00260132
0.00235912
0.00235906
0.00235906
0.00237309
0.00213089
0.00213083
0.00213084
0.00214487
0.00190267
0.00190261
0.00190261
0.00191665
0.00167444
0.00167439
0.00167439
0.00168842
0.00144622
0.00144617
0.00144617
0.0014602
0.001218
0.00121795
0.00121795
0.00123198
0.000989782
0.000989724
0.000989725
0.00100376
0.000761568
0.000761513
0.000761513
0.000775548
0.000533364
0.000533307
0.000533308
0.000547337
0.000305813
0.000305257
0.000305257
0.000319173
9.16709e-05
9.92867e-05
9.92897e-05
9.97805e-05
0.0215785
0.0215743
0.0215743
0.0215785
0.0215743
0.0215743
0.0215814
0.0215814
0.0215814
0.0215814
0.0215743
0.0215743
0.0215785
0.0215743
0.0215743
0.0215785
0.0215471
0.0213445
0.0215313
0.0215313
0.0213585
0.0213585
0.0215471
0.0213445
0.0215313
0.0215313
0.0213585
0.0213585
0.0215313
0.0213585
0.0213585
0.0215471
0.0213445
0.0215313
0.0213585
0.0213585
0.0213445
0.0213155
0.0211162
0.0213014
0.0213014
0.0211302
0.0211302
0.0213155
0.0211162
0.0213014
0.0213014
0.0211302
0.0211303
0.0213014
0.0211302
0.0211302
0.0213155
0.0211162
0.0213014
0.0211303
0.0211303
0.0211162
0.0210872
0.020888
0.0210732
0.0210732
0.020902
0.020902
0.0210872
0.020888
0.0210732
0.0210732
0.020902
0.020902
0.0210732
0.020902
0.020902
0.0210872
0.020888
0.0210732
0.020902
0.020902
0.020888
0.020859
0.0206598
0.020845
0.020845
0.0206738
0.0206738
0.020859
0.0206598
0.020845
0.020845
0.0206738
0.0206738
0.020845
0.0206738
0.0206738
0.020859
0.0206598
0.020845
0.0206738
0.0206738
0.0206598
0.0206308
0.0204316
0.0206167
0.0206167
0.0204456
0.0204456
0.0206308
0.0204316
0.0206167
0.0206167
0.0204456
0.0204456
0.0206167
0.0204456
0.0204456
0.0206308
0.0204316
0.0206167
0.0204456
0.0204456
0.0204316
0.0204025
0.0202033
0.0203885
0.0203885
0.0202173
0.0202173
0.0204025
0.0202033
0.0203885
0.0203885
0.0202173
0.0202173
0.0203885
0.0202173
0.0202173
0.0204025
0.0202033
0.0203885
0.0202173
0.0202173
0.0202033
0.0201743
0.0199751
0.0201603
0.0201603
0.0199891
0.0199891
0.0201743
0.0199751
0.0201603
0.0201603
0.0199891
0.0199891
0.0201603
0.0199891
0.0199891
0.0201743
0.0199751
0.0201603
0.0199891
0.0199891
0.0199751
0.0199461
0.0197469
0.0199321
0.0199321
0.0197609
0.0197609
0.0199461
0.0197469
0.0199321
0.0199321
0.0197609
0.0197609
0.0199321
0.0197609
0.0197609
0.0199461
0.0197469
0.0199321
0.0197609
0.0197609
0.0197469
0.0197179
0.0195187
0.0197038
0.0197038
0.0195327
0.0195327
0.0197179
0.0195187
0.0197038
0.0197038
0.0195327
0.0195327
0.0197038
0.0195327
0.0195327
0.0197179
0.0195187
0.0197038
0.0195327
0.0195327
0.0195187
0.0194896
0.0192904
0.0194756
0.0194756
0.0193044
0.0193044
0.0194896
0.0192904
0.0194756
0.0194756
0.0193044
0.0193044
0.0194756
0.0193044
0.0193044
0.0194896
0.0192904
0.0194756
0.0193044
0.0193044
0.0192904
0.0192614
0.0190622
0.0192474
0.0192474
0.0190762
0.0190762
0.0192614
0.0190622
0.0192474
0.0192474
0.0190762
0.0190762
0.0192474
0.0190762
0.0190762
0.0192614
0.0190622
0.0192474
0.0190762
0.0190762
0.0190622
0.0190332
0.018834
0.0190192
0.0190192
0.018848
0.018848
0.0190332
0.018834
0.0190192
0.0190192
0.018848
0.018848
0.0190192
0.018848
0.018848
0.0190332
0.018834
0.0190192
0.018848
0.018848
0.018834
0.018805
0.0186058
0.0187909
0.0187909
0.0186198
0.0186198
0.018805
0.0186058
0.0187909
0.0187909
0.0186198
0.0186198
0.0187909
0.0186198
0.0186198
0.018805
0.0186058
0.0187909
0.0186198
0.0186198
0.0186058
0.0185768
0.0183776
0.0185627
0.0185627
0.0183916
0.0183916
0.0185768
0.0183776
0.0185627
0.0185627
0.0183916
0.0183916
0.0185627
0.0183916
0.0183916
0.0185768
0.0183776
0.0185627
0.0183916
0.0183916
0.0183776
0.0183485
0.0181493
0.0183345
0.0183345
0.0181633
0.0181633
0.0183485
0.0181493
0.0183345
0.0183345
0.0181633
0.0181633
0.0183345
0.0181633
0.0181633
0.0183485
0.0181494
0.0183345
0.0181633
0.0181633
0.0181494
0.0181203
0.0179211
0.0181063
0.0181063
0.0179351
0.0179351
0.0181203
0.0179211
0.0181063
0.0181063
0.0179351
0.0179351
0.0181063
0.0179351
0.0179351
0.0181203
0.0179211
0.0181063
0.0179351
0.0179351
0.0179211
0.0178921
0.0176929
0.0178781
0.0178781
0.0177069
0.0177069
0.0178921
0.0176929
0.0178781
0.0178781
0.0177069
0.0177069
0.0178781
0.0177069
0.0177069
0.0178921
0.0176929
0.0178781
0.0177069
0.0177069
0.0176929
0.0176639
0.0174647
0.0176499
0.0176499
0.0174787
0.0174787
0.0176639
0.0174647
0.0176499
0.0176499
0.0174787
0.0174787
0.0176499
0.0174787
0.0174787
0.0176639
0.0174647
0.0176499
0.0174787
0.0174787
0.0174647
0.0174357
0.0172365
0.0174216
0.0174216
0.0172505
0.0172505
0.0174357
0.0172365
0.0174216
0.0174216
0.0172505
0.0172505
0.0174216
0.0172505
0.0172505
0.0174357
0.0172365
0.0174216
0.0172505
0.0172505
0.0172365
0.0172074
0.0170083
0.0171934
0.0171934
0.0170222
0.0170222
0.0172074
0.0170083
0.0171934
0.0171934
0.0170222
0.0170222
0.0171934
0.0170222
0.0170222
0.0172075
0.0170083
0.0171934
0.0170222
0.0170222
0.0170083
0.0169792
0.01678
0.0169652
0.0169652
0.016794
0.016794
0.0169792
0.01678
0.0169652
0.0169652
0.016794
0.016794
0.0169652
0.016794
0.016794
0.0169792
0.01678
0.0169652
0.016794
0.016794
0.01678
0.016751
0.0165518
0.016737
0.016737
0.0165658
0.0165658
0.016751
0.0165518
0.016737
0.016737
0.0165658
0.0165658
0.016737
0.0165658
0.0165658
0.016751
0.0165518
0.016737
0.0165658
0.0165658
0.0165518
0.0165228
0.0163236
0.0165087
0.0165087
0.0163376
0.0163376
0.0165228
0.0163236
0.0165087
0.0165087
0.0163376
0.0163376
0.0165087
0.0163376
0.0163376
0.0165228
0.0163236
0.0165087
0.0163376
0.0163376
0.0163236
0.0162946
0.0160954
0.0162805
0.0162805
0.0161094
0.0161094
0.0162946
0.0160954
0.0162805
0.0162805
0.0161094
0.0161094
0.0162805
0.0161094
0.0161094
0.0162946
0.0160954
0.0162805
0.0161094
0.0161094
0.0160954
0.0160663
0.0158671
0.0160523
0.0160523
0.0158811
0.0158811
0.0160663
0.0158671
0.0160523
0.0160523
0.0158811
0.0158811
0.0160523
0.0158811
0.0158811
0.0160663
0.0158671
0.0160523
0.0158811
0.0158811
0.0158671
0.0158381
0.0156389
0.0158241
0.0158241
0.0156529
0.0156529
0.0158381
0.0156389
0.0158241
0.0158241
0.0156529
0.0156529
0.0158241
0.0156529
0.0156529
0.0158381
0.0156389
0.0158241
0.0156529
0.0156529
0.0156389
0.0156099
0.0154107
0.0155959
0.0155959
0.0154247
0.0154247
0.0156099
0.0154107
0.0155959
0.0155959
0.0154247
0.0154247
0.0155959
0.0154247
0.0154247
0.0156099
0.0154107
0.0155959
0.0154247
0.0154247
0.0154107
0.0153817
0.0151825
0.0153676
0.0153676
0.0151965
0.0151965
0.0153817
0.0151825
0.0153676
0.0153676
0.0151965
0.0151965
0.0153676
0.0151965
0.0151965
0.0153817
0.0151825
0.0153676
0.0151965
0.0151965
0.0151825
0.0151534
0.0149542
0.0151394
0.0151394
0.0149682
0.0149682
0.0151534
0.0149542
0.0151394
0.0151394
0.0149682
0.0149682
0.0151394
0.0149682
0.0149682
0.0151534
0.0149542
0.0151394
0.0149682
0.0149682
0.0149542
0.0149252
0.014726
0.0149112
0.0149112
0.01474
0.01474
0.0149252
0.014726
0.0149112
0.0149112
0.01474
0.01474
0.0149112
0.01474
0.01474
0.0149252
0.014726
0.0149112
0.01474
0.01474
0.014726
0.014697
0.0144978
0.014683
0.014683
0.0145118
0.0145118
0.014697
0.0144978
0.014683
0.014683
0.0145118
0.0145118
0.014683
0.0145118
0.0145118
0.014697
0.0144978
0.014683
0.0145118
0.0145118
0.0144978
0.0144688
0.0142696
0.0144548
0.0144548
0.0142836
0.0142836
0.0144688
0.0142696
0.0144548
0.0144548
0.0142836
0.0142836
0.0144548
0.0142836
0.0142836
0.0144688
0.0142696
0.0144548
0.0142836
0.0142836
0.0142696
0.0142406
0.0140414
0.0142265
0.0142265
0.0140554
0.0140554
0.0142406
0.0140414
0.0142265
0.0142265
0.0140554
0.0140554
0.0142265
0.0140554
0.0140554
0.0142406
0.0140414
0.0142265
0.0140554
0.0140554
0.0140414
0.0140124
0.0138132
0.0139983
0.0139983
0.0138272
0.0138272
0.0140124
0.0138132
0.0139983
0.0139983
0.0138272
0.0138272
0.0139983
0.0138272
0.0138272
0.0140124
0.0138132
0.0139983
0.0138272
0.0138272
0.0138132
0.0137841
0.013585
0.0137701
0.0137701
0.0135989
0.0135989
0.0137841
0.013585
0.0137701
0.0137701
0.0135989
0.0135989
0.0137701
0.0135989
0.0135989
0.0137841
0.013585
0.0137701
0.0135989
0.0135989
0.013585
0.0135559
0.0133567
0.0135419
0.0135419
0.0133707
0.0133707
0.0135559
0.0133567
0.0135419
0.0135419
0.0133707
0.0133707
0.0135419
0.0133707
0.0133707
0.0135559
0.0133567
0.0135419
0.0133707
0.0133707
0.0133567
0.0133277
0.0131285
0.0133137
0.0133137
0.0131425
0.0131425
0.0133277
0.0131285
0.0133137
0.0133137
0.0131425
0.0131425
0.0133137
0.0131425
0.0131425
0.0133277
0.0131285
0.0133137
0.0131425
0.0131425
0.0131285
0.0130995
0.0129003
0.0130855
0.0130855
0.0129143
0.0129143
0.0130995
0.0129003
0.0130855
0.0130855
0.0129143
0.0129143
0.0130855
0.0129143
0.0129143
0.0130995
0.0129003
0.0130855
0.0129143
0.0129143
0.0129003
0.0128713
0.0126721
0.0128572
0.0128572
0.0126861
0.0126861
0.0128713
0.0126721
0.0128572
0.0128572
0.0126861
0.0126861
0.0128572
0.0126861
0.0126861
0.0128713
0.0126721
0.0128572
0.0126861
0.0126861
0.0126721
0.0126431
0.0124439
0.012629
0.012629
0.0124579
0.0124579
0.0126431
0.0124439
0.012629
0.012629
0.0124579
0.0124579
0.012629
0.0124579
0.0124579
0.0126431
0.0124439
0.012629
0.0124579
0.0124579
0.0124439
0.0124148
0.0122156
0.0124008
0.0124008
0.0122296
0.0122296
0.0124148
0.0122156
0.0124008
0.0124008
0.0122296
0.0122296
0.0124008
0.0122296
0.0122296
0.0124148
0.0122156
0.0124008
0.0122296
0.0122296
0.0122156
0.0121866
0.0119874
0.0121726
0.0121726
0.0120014
0.0120014
0.0121866
0.0119874
0.0121726
0.0121726
0.0120014
0.0120014
0.0121726
0.0120014
0.0120014
0.0121866
0.0119874
0.0121726
0.0120014
0.0120014
0.0119874
0.0119584
0.0117592
0.0119444
0.0119444
0.0117732
0.0117732
0.0119584
0.0117592
0.0119444
0.0119444
0.0117732
0.0117732
0.0119444
0.0117732
0.0117732
0.0119584
0.0117592
0.0119444
0.0117732
0.0117732
0.0117592
0.0117302
0.011531
0.0117161
0.0117161
0.011545
0.011545
0.0117302
0.011531
0.0117161
0.0117161
0.011545
0.011545
0.0117161
0.011545
0.011545
0.0117302
0.011531
0.0117161
0.011545
0.011545
0.011531
0.011502
0.0113028
0.0114879
0.0114879
0.0113167
0.0113167
0.011502
0.0113028
0.0114879
0.0114879
0.0113167
0.0113167
0.0114879
0.0113167
0.0113167
0.011502
0.0113028
0.0114879
0.0113167
0.0113167
0.0113028
0.0112737
0.0110745
0.0112597
0.0112597
0.0110885
0.0110885
0.0112737
0.0110745
0.0112597
0.0112597
0.0110885
0.0110885
0.0112597
0.0110885
0.0110885
0.0112737
0.0110745
0.0112597
0.0110885
0.0110885
0.0110745
0.0110455
0.0108463
0.0110315
0.0110315
0.0108603
0.0108603
0.0110455
0.0108463
0.0110315
0.0110315
0.0108603
0.0108603
0.0110315
0.0108603
0.0108603
0.0110455
0.0108463
0.0110315
0.0108603
0.0108603
0.0108463
0.0108173
0.0106181
0.0108032
0.0108032
0.0106321
0.0106321
0.0108173
0.0106181
0.0108032
0.0108032
0.0106321
0.0106321
0.0108032
0.0106321
0.0106321
0.0108173
0.0106181
0.0108032
0.0106321
0.0106321
0.0106181
0.0105891
0.0103899
0.010575
0.010575
0.0104039
0.0104039
0.0105891
0.0103899
0.010575
0.010575
0.0104039
0.0104039
0.010575
0.0104039
0.0104039
0.0105891
0.0103899
0.010575
0.0104039
0.0104039
0.0103899
0.0103608
0.0101616
0.0103468
0.0103468
0.0101756
0.0101756
0.0103608
0.0101616
0.0103468
0.0103468
0.0101756
0.0101756
0.0103468
0.0101756
0.0101756
0.0103608
0.0101616
0.0103468
0.0101756
0.0101756
0.0101616
0.0101326
0.00993343
0.0101186
0.0101186
0.00994742
0.00994742
0.0101326
0.00993343
0.0101186
0.0101186
0.00994742
0.00994742
0.0101186
0.00994742
0.00994742
0.0101326
0.00993343
0.0101186
0.00994742
0.00994742
0.00993343
0.0099044
0.00970521
0.00989037
0.00989037
0.0097192
0.0097192
0.0099044
0.00970521
0.00989037
0.00989037
0.0097192
0.0097192
0.00989037
0.0097192
0.0097192
0.0099044
0.00970521
0.00989037
0.0097192
0.0097192
0.00970521
0.00967619
0.009477
0.00966215
0.00966215
0.00949099
0.00949099
0.00967619
0.009477
0.00966215
0.00966215
0.00949099
0.00949099
0.00966215
0.00949099
0.00949099
0.00967619
0.009477
0.00966215
0.00949099
0.00949099
0.009477
0.00944797
0.00924878
0.00943393
0.00943393
0.00926277
0.00926277
0.00944797
0.00924878
0.00943393
0.00943393
0.00926277
0.00926277
0.00943393
0.00926277
0.00926277
0.00944797
0.00924878
0.00943393
0.00926277
0.00926277
0.00924878
0.00921975
0.00902056
0.00920572
0.00920572
0.00903456
0.00903456
0.00921975
0.00902056
0.00920572
0.00920572
0.00903455
0.00903456
0.00920572
0.00903456
0.00903456
0.00921975
0.00902056
0.00920572
0.00903456
0.00903455
0.00902056
0.00899154
0.00879235
0.0089775
0.0089775
0.00880634
0.00880634
0.00899154
0.00879234
0.0089775
0.0089775
0.00880634
0.00880634
0.0089775
0.00880634
0.00880634
0.00899154
0.00879235
0.0089775
0.00880634
0.00880634
0.00879234
0.00876332
0.00856413
0.00874928
0.00874928
0.00857812
0.00857812
0.00876332
0.00856413
0.00874928
0.00874928
0.00857812
0.00857812
0.00874928
0.00857812
0.00857812
0.00876332
0.00856413
0.00874928
0.00857812
0.00857812
0.00856413
0.0085351
0.00833591
0.00852107
0.00852106
0.0083499
0.0083499
0.0085351
0.00833591
0.00852107
0.00852107
0.0083499
0.0083499
0.00852107
0.0083499
0.0083499
0.0085351
0.00833591
0.00852106
0.0083499
0.0083499
0.00833591
0.00830688
0.00810769
0.00829285
0.00829284
0.00812168
0.00812168
0.00830688
0.00810768
0.00829285
0.00829285
0.00812168
0.00812168
0.00829285
0.00812168
0.00812168
0.00830688
0.00810769
0.00829284
0.00812168
0.00812168
0.00810769
0.00807866
0.00787946
0.00806462
0.00806462
0.00789346
0.00789346
0.00807866
0.00787946
0.00806462
0.00806462
0.00789346
0.00789346
0.00806462
0.00789346
0.00789346
0.00807866
0.00787947
0.00806462
0.00789346
0.00789346
0.00787946
0.00785044
0.00765124
0.0078364
0.0078364
0.00766523
0.00766523
0.00785044
0.00765124
0.0078364
0.0078364
0.00766523
0.00766523
0.0078364
0.00766523
0.00766523
0.00785044
0.00765124
0.0078364
0.00766523
0.00766523
0.00765124
0.00762221
0.00742302
0.00760818
0.00760818
0.00743701
0.00743701
0.00762221
0.00742301
0.00760818
0.00760818
0.00743701
0.00743701
0.00760818
0.00743701
0.00743701
0.00762221
0.00742302
0.00760818
0.00743701
0.00743701
0.00742302
0.00739399
0.00719479
0.00737995
0.00737995
0.00720878
0.00720878
0.00739399
0.00719479
0.00737995
0.00737995
0.00720878
0.00720878
0.00737995
0.00720878
0.00720878
0.00739399
0.00719479
0.00737995
0.00720878
0.00720878
0.00719479
0.00716576
0.00696656
0.00715173
0.00715173
0.00698056
0.00698056
0.00716576
0.00696656
0.00715173
0.00715173
0.00698056
0.00698056
0.00715173
0.00698056
0.00698056
0.00716576
0.00696656
0.00715172
0.00698056
0.00698056
0.00696656
0.00693754
0.00673834
0.0069235
0.0069235
0.00675233
0.00675233
0.00693754
0.00673834
0.0069235
0.0069235
0.00675233
0.00675233
0.0069235
0.00675233
0.00675233
0.00693754
0.00673834
0.0069235
0.00675233
0.00675233
0.00673834
0.00670931
0.00651011
0.00669528
0.00669527
0.00652411
0.00652411
0.00670931
0.00651011
0.00669527
0.00669528
0.00652411
0.00652411
0.00669528
0.00652411
0.00652411
0.00670931
0.00651011
0.00669527
0.00652411
0.0065241
0.00651011
0.00648109
0.00628189
0.00646705
0.00646705
0.00629588
0.00629588
0.00648109
0.00628189
0.00646705
0.00646705
0.00629588
0.00629588
0.00646705
0.00629588
0.00629588
0.00648109
0.00628189
0.00646705
0.00629588
0.00629588
0.00628189
0.00625286
0.00605366
0.00623883
0.00623882
0.00606766
0.00606766
0.00625286
0.00605366
0.00623883
0.00623883
0.00606766
0.00606766
0.00623883
0.00606766
0.00606766
0.00625286
0.00605366
0.00623882
0.00606766
0.00606766
0.00605366
0.00602464
0.00582544
0.0060106
0.0060106
0.00583944
0.00583944
0.00602464
0.00582544
0.0060106
0.0060106
0.00583944
0.00583944
0.0060106
0.00583944
0.00583944
0.00602464
0.00582544
0.0060106
0.00583944
0.00583943
0.00582544
0.00579642
0.00559722
0.00578238
0.00578238
0.00561121
0.00561121
0.00579642
0.00559722
0.00578238
0.00578238
0.00561121
0.00561121
0.00578238
0.00561121
0.00561122
0.00579642
0.00559722
0.00578238
0.00561122
0.00561121
0.00559722
0.0055682
0.005369
0.00555416
0.00555416
0.005383
0.00538299
0.0055682
0.005369
0.00555416
0.00555416
0.00538299
0.005383
0.00555416
0.00538299
0.005383
0.0055682
0.005369
0.00555416
0.005383
0.00538299
0.005369
0.00533998
0.00514078
0.00532594
0.00532594
0.00515478
0.00515478
0.00533998
0.00514078
0.00532594
0.00532594
0.00515478
0.00515478
0.00532594
0.00515478
0.00515478
0.00533998
0.00514078
0.00532594
0.00515478
0.00515477
0.00514078
0.00511176
0.00491256
0.00509772
0.00509772
0.00492656
0.00492656
0.00511176
0.00491256
0.00509772
0.00509772
0.00492656
0.00492656
0.00509772
0.00492656
0.00492656
0.00511176
0.00491256
0.00509772
0.00492656
0.00492656
0.00491256
0.00488354
0.00468435
0.0048695
0.0048695
0.00469834
0.00469834
0.00488354
0.00468434
0.0048695
0.0048695
0.00469834
0.00469834
0.0048695
0.00469834
0.00469834
0.00488354
0.00468435
0.0048695
0.00469834
0.00469834
0.00468434
0.00465532
0.00445613
0.00464128
0.00464128
0.00447012
0.00447012
0.00465532
0.00445613
0.00464128
0.00464128
0.00447012
0.00447012
0.00464128
0.00447012
0.00447012
0.00465532
0.00445613
0.00464128
0.00447012
0.00447012
0.00445613
0.0044271
0.00422791
0.00441307
0.00441307
0.0042419
0.0042419
0.0044271
0.00422791
0.00441307
0.00441307
0.0042419
0.0042419
0.00441307
0.0042419
0.0042419
0.0044271
0.00422791
0.00441307
0.0042419
0.0042419
0.00422791
0.00419888
0.00399969
0.00418485
0.00418485
0.00401368
0.00401368
0.00419888
0.00399969
0.00418485
0.00418485
0.00401368
0.00401368
0.00418485
0.00401368
0.00401368
0.00419888
0.00399969
0.00418484
0.00401368
0.00401368
0.00399969
0.00397066
0.00377147
0.00395663
0.00395663
0.00378546
0.00378546
0.00397066
0.00377147
0.00395663
0.00395663
0.00378546
0.00378546
0.00395663
0.00378546
0.00378546
0.00397066
0.00377147
0.00395663
0.00378546
0.00378546
0.00377147
0.00374244
0.00354325
0.00372841
0.0037284
0.00355724
0.00355724
0.00374244
0.00354324
0.0037284
0.00372841
0.00355724
0.00355724
0.00372841
0.00355724
0.00355724
0.00374244
0.00354325
0.0037284
0.00355724
0.00355724
0.00354325
0.00351422
0.00331502
0.00350018
0.00350018
0.00332902
0.00332902
0.00351422
0.00331502
0.00350018
0.00350018
0.00332902
0.00332902
0.00350018
0.00332902
0.00332902
0.00351422
0.00331502
0.00350018
0.00332902
0.00332901
0.00331502
0.003286
0.0030868
0.00327196
0.00327196
0.00310079
0.00310079
0.003286
0.0030868
0.00327196
0.00327196
0.00310079
0.00310079
0.00327196
0.00310079
0.00310079
0.003286
0.0030868
0.00327196
0.00310079
0.00310079
0.0030868
0.00305777
0.00285857
0.00304374
0.00304373
0.00287257
0.00287257
0.00305777
0.00285857
0.00304373
0.00304374
0.00287257
0.00287257
0.00304374
0.00287257
0.00287257
0.00305777
0.00285857
0.00304373
0.00287257
0.00287256
0.00285857
0.00282955
0.00263035
0.00281551
0.00281551
0.00264434
0.00264434
0.00282955
0.00263035
0.00281551
0.00281551
0.00264434
0.00264434
0.00281551
0.00264434
0.00264434
0.00282955
0.00263035
0.00281551
0.00264434
0.00264434
0.00263035
0.00260132
0.00240212
0.00258729
0.00258728
0.00241612
0.00241611
0.00260132
0.00240212
0.00258729
0.00258729
0.00241612
0.00241612
0.00258729
0.00241612
0.00241612
0.00260132
0.00240212
0.00258728
0.00241612
0.00241611
0.00240212
0.0023731
0.0021739
0.00235906
0.00235906
0.00218789
0.00218789
0.0023731
0.0021739
0.00235906
0.00235906
0.00218789
0.00218789
0.00235906
0.00218789
0.00218789
0.0023731
0.0021739
0.00235906
0.00218789
0.00218789
0.0021739
0.00214487
0.00194567
0.00213084
0.00213083
0.00195967
0.00195967
0.00214487
0.00194567
0.00213083
0.00213084
0.00195967
0.00195967
0.00213084
0.00195967
0.00195967
0.00214487
0.00194567
0.00213083
0.00195967
0.00195967
0.00194567
0.00191665
0.00171745
0.00190261
0.00190261
0.00173144
0.00173144
0.00191665
0.00171745
0.00190261
0.00190261
0.00173144
0.00173144
0.00190261
0.00173144
0.00173144
0.00191665
0.00171745
0.00190261
0.00173144
0.00173144
0.00171745
0.00168842
0.00148923
0.00167439
0.00167439
0.00150322
0.00150322
0.00168842
0.00148923
0.00167439
0.00167439
0.00150322
0.00150322
0.00167439
0.00150322
0.00150322
0.00168842
0.00148923
0.00167439
0.00150322
0.00150322
0.00148923
0.0014602
0.00126101
0.00144617
0.00144617
0.001275
0.001275
0.00146021
0.00126101
0.00144617
0.00144617
0.001275
0.001275
0.00144617
0.001275
0.001275
0.00146021
0.00126101
0.00144617
0.001275
0.001275
0.00126101
0.00123198
0.00103279
0.00121795
0.00121795
0.00104678
0.00104678
0.00123198
0.00103278
0.00121795
0.00121795
0.00104678
0.00104678
0.00121795
0.00104678
0.00104678
0.00123198
0.00103279
0.00121794
0.00104678
0.00104678
0.00103279
0.00100376
0.000804572
0.000989724
0.000989724
0.000818564
0.000818564
0.00100376
0.000804572
0.000989724
0.000989725
0.000818565
0.000818565
0.000989725
0.000818565
0.000818566
0.00100376
0.000804573
0.000989723
0.000818565
0.000818565
0.000804573
0.000775548
0.000576359
0.000761512
0.000761512
0.000590354
0.000590357
0.000775548
0.00057636
0.000761513
0.000761512
0.000590353
0.000590357
0.000761514
0.000590357
0.000590356
0.000775548
0.000576363
0.000761513
0.000590357
0.000590358
0.000576362
0.000547336
0.000348182
0.000533304
0.000533305
0.000362206
0.000362204
0.000547336
0.00034818
0.000533306
0.000533308
0.000362211
0.000362211
0.000533307
0.000362209
0.000362206
0.000547338
0.000348186
0.000533307
0.000362211
0.000362211
0.000348182
0.000319176
0.00012463
0.000305248
0.000305245
0.000138283
0.000138281
0.000319173
0.000124629
0.00030526
0.00030526
0.000138281
0.000138285
0.000305246
0.000138276
0.000138278
0.00031918
0.000124633
0.000305257
0.000138281
0.000138279
0.000124629
9.97824e-05
9.92894e-05
9.92874e-05
9.97822e-05
9.9287e-05
9.92897e-05
9.16696e-05
9.16711e-05
9.16688e-05
9.92871e-05
9.97836e-05
9.92856e-05
0.0216077
0.0216447
0.0216247
0.0216247
0.0217019
0.0216588
0.0217669
0.0216367
0.0217019
0.0216589
0.0216367
0.021767
0.0216746
0.0217842
0.0217842
0.0214613
0.0215793
0.0215696
0.0214624
0.0214519
0.0214575
0.0214613
0.0215793
0.0215695
0.0214624
0.0215276
0.0215276
0.0215276
0.0213583
0.0213583
0.0213583
0.0213583
0.0214599
0.0215612
0.0215303
0.0214724
0.0215475
0.0214613
0.0214723
0.021452
0.0214576
0.02146
0.0215303
0.0215612
0.0214724
0.0215475
0.0214723
0.0214612
0.0215629
0.0215629
0.0214588
0.0214602
0.0214602
0.0212302
0.0213159
0.0213159
0.0212302
0.0213159
0.0212302
0.0212302
0.0213159
0.0213159
0.0212302
0.0213013
0.0213013
0.0213013
0.0211303
0.0211303
0.0211303
0.0211303
0.0212307
0.0213154
0.0213014
0.0212444
0.0213153
0.0212307
0.0212443
0.0213159
0.0212302
0.0212307
0.0213014
0.0213154
0.0212444
0.0213153
0.0212443
0.0212307
0.0213159
0.0213159
0.0212304
0.0212302
0.0212303
0.0210019
0.0210875
0.0210875
0.0210019
0.0210874
0.0210019
0.0210019
0.0210875
0.0210875
0.0210019
0.0210732
0.0210732
0.0210732
0.0209021
0.0209021
0.0209021
0.0209021
0.0210025
0.021087
0.0210732
0.0210161
0.0210869
0.0210024
0.0210161
0.0210874
0.0210019
0.0210025
0.0210732
0.021087
0.0210161
0.0210869
0.0210161
0.0210024
0.0210874
0.0210874
0.0210021
0.021002
0.021002
0.0207737
0.0208592
0.0208592
0.0207737
0.0208592
0.0207737
0.0207737
0.0208592
0.0208592
0.0207737
0.020845
0.020845
0.020845
0.0206738
0.0206738
0.0206738
0.0206738
0.0207742
0.0208587
0.020845
0.0207879
0.0208587
0.0207742
0.0207879
0.0208592
0.0207737
0.0207742
0.020845
0.0208587
0.0207879
0.0208587
0.0207879
0.0207742
0.0208592
0.0208592
0.0207739
0.0207737
0.0207737
0.0205455
0.020631
0.020631
0.0205455
0.020631
0.0205455
0.0205455
0.020631
0.020631
0.0205455
0.0206168
0.0206168
0.0206168
0.0204456
0.0204456
0.0204456
0.0204456
0.020546
0.0206305
0.0206167
0.0205597
0.0206305
0.020546
0.0205597
0.020631
0.0205455
0.020546
0.0206167
0.0206305
0.0205597
0.0206305
0.0205597
0.020546
0.020631
0.020631
0.0205457
0.0205455
0.0205455
0.0203172
0.0204028
0.0204028
0.0203172
0.0204028
0.0203173
0.0203172
0.0204028
0.0204028
0.0203172
0.0203886
0.0203886
0.0203886
0.0202174
0.0202174
0.0202174
0.0202174
0.0203178
0.0204023
0.0203885
0.0203314
0.0204022
0.0203177
0.0203315
0.0204028
0.0203173
0.0203178
0.0203885
0.0204023
0.0203314
0.0204022
0.0203315
0.0203177
0.0204027
0.0204027
0.0203175
0.0203173
0.0203173
0.020089
0.0201745
0.0201746
0.020089
0.0201745
0.020089
0.020089
0.0201745
0.0201746
0.020089
0.0201603
0.0201603
0.0201603
0.0199892
0.0199892
0.0199892
0.0199892
0.0200896
0.0201741
0.0201603
0.0201032
0.020174
0.0200895
0.0201032
0.0201745
0.020089
0.0200896
0.0201603
0.0201741
0.0201032
0.020174
0.0201032
0.0200895
0.0201745
0.0201745
0.0200892
0.020089
0.020089
0.0198608
0.0199463
0.0199463
0.0198608
0.0199463
0.0198608
0.0198608
0.0199463
0.0199463
0.0198608
0.0199321
0.0199321
0.0199321
0.0197609
0.0197609
0.0197609
0.0197609
0.0198613
0.0199458
0.0199321
0.019875
0.0199458
0.0198613
0.019875
0.0199463
0.0198608
0.0198613
0.0199321
0.0199458
0.019875
0.0199458
0.019875
0.0198613
0.0199463
0.0199463
0.019861
0.0198608
0.0198608
0.0196326
0.0197181
0.0197181
0.0196326
0.0197181
0.0196326
0.0196326
0.0197181
0.0197181
0.0196326
0.0197039
0.0197039
0.0197039
0.0195327
0.0195327
0.0195327
0.0195327
0.0196331
0.0197176
0.0197038
0.0196468
0.0197176
0.0196331
0.0196468
0.0197181
0.0196326
0.0196331
0.0197038
0.0197176
0.0196468
0.0197176
0.0196468
0.0196331
0.0197181
0.0197181
0.0196328
0.0196326
0.0196326
0.0194043
0.0194899
0.0194899
0.0194043
0.0194899
0.0194044
0.0194043
0.0194899
0.0194899
0.0194043
0.0194757
0.0194757
0.0194757
0.0193045
0.0193045
0.0193045
0.0193045
0.0194049
0.0194894
0.0194756
0.0194185
0.0194894
0.0194048
0.0194186
0.0194899
0.0194044
0.0194049
0.0194756
0.0194894
0.0194185
0.0194894
0.0194186
0.0194048
0.0194898
0.0194898
0.0194046
0.0194044
0.0194044
0.0191761
0.0192616
0.0192617
0.0191761
0.0192616
0.0191761
0.0191761
0.0192617
0.0192617
0.0191761
0.0192474
0.0192474
0.0192474
0.0190763
0.0190763
0.0190763
0.0190763
0.0191767
0.0192612
0.0192474
0.0191903
0.0192611
0.0191766
0.0191903
0.0192616
0.0191761
0.0191767
0.0192474
0.0192612
0.0191903
0.0192611
0.0191903
0.0191766
0.0192616
0.0192616
0.0191763
0.0191762
0.0191762
0.0189479
0.0190334
0.0190334
0.0189479
0.0190334
0.0189479
0.0189479
0.0190334
0.0190334
0.0189479
0.0190192