/*--------------------------------*- C++ -*----------------------------------*\
| =========                 |                                                 |
| \\      /  F ield         | OpenFOAM: The Open Source CFD Toolbox           |
|  \\    /   O peration     | Version:  v1912                                 |
|   \\  /    A nd           | Website:  www.openfoam.com                      |
|    \\/     M anipulation  |                                                 |
\*---------------------------------------------------------------------------*/
FoamFile
{
    version     2.0;
    format      ascii;
    class       volScalarField;
    location    "0.2";
    object      nut;
}
// * * * * * * * * * * * * * * * * * * * * * * * * * * * * * * * * * * * * * //

dimensions      [0 2 -1 0 0 0 0];


internalField   nonuniform List<scalar> 
171728
(
3.30223e-07
3.90539e-07
3.90454e-07
1.64313e-07
2.08296e-08
2.63051e-08
2.64409e-08
3.35618e-08
1.27584e-09
2.16502e-09
2.15808e-09
3.26643e-08
2.19858e-10
1.28203e-09
1.28321e-09
3.26893e-08
1.57277e-10
1.22338e-09
1.23646e-09
3.26924e-08
1.57221e-10
1.23728e-09
1.23351e-09
3.26925e-08
1.52181e-10
1.24017e-09
1.23205e-09
3.26935e-08
1.5979e-10
1.2343e-09
1.23367e-09
3.26936e-08
1.52591e-10
1.23367e-09
1.22869e-09
3.26941e-08
1.47238e-10
1.23291e-09
1.23334e-09
3.2694e-08
1.8377e-10
1.23039e-09
1.23268e-09
3.26942e-08
1.55761e-10
1.23067e-09
1.23339e-09
3.26947e-08
1.56913e-10
1.23911e-09
1.23433e-09
3.26946e-08
1.56245e-10
1.23908e-09
1.23453e-09
3.26947e-08
1.49717e-10
1.21704e-09
1.23405e-09
3.26946e-08
1.5538e-10
1.24358e-09
1.23366e-09
3.26945e-08
1.57774e-10
1.23413e-09
1.23387e-09
3.26949e-08
1.52059e-10
1.22364e-09
1.23345e-09
3.26953e-08
1.88816e-10
1.22202e-09
1.23226e-09
3.26947e-08
1.71015e-10
1.24814e-09
1.2298e-09
3.26954e-08
1.92473e-10
1.23781e-09
1.23368e-09
3.26967e-08
1.54415e-10
1.2357e-09
1.23448e-09
3.26969e-08
1.52964e-10
1.23432e-09
1.23411e-09
3.26974e-08
1.53331e-10
1.23484e-09
1.23481e-09
3.26969e-08
1.53725e-10
1.23475e-09
1.23501e-09
3.2697e-08
1.53234e-10
1.23443e-09
1.23429e-09
3.26971e-08
1.53586e-10
1.235e-09
1.23486e-09
3.26969e-08
1.53764e-10
1.23445e-09
1.23433e-09
3.26969e-08
1.53577e-10
1.23512e-09
1.23499e-09
3.2697e-08
1.53257e-10
1.23452e-09
1.23452e-09
3.2697e-08
1.53245e-10
1.23588e-09
1.23465e-09
3.26968e-08
1.53629e-10
1.23269e-09
1.23468e-09
3.2697e-08
1.53585e-10
1.23497e-09
1.23443e-09
3.26971e-08
1.53696e-10
1.23518e-09
1.23616e-09
3.26971e-08
1.53573e-10
1.23498e-09
1.23599e-09
3.26971e-08
1.53494e-10
1.23535e-09
1.2367e-09
3.26973e-08
1.53537e-10
1.23489e-09
1.23622e-09
3.26973e-08
1.54008e-10
1.23527e-09
1.23662e-09
3.26971e-08
1.5508e-10
1.23515e-09
1.23942e-09
3.26972e-08
1.61321e-10
1.23762e-09
1.23671e-09
3.26929e-08
2.05368e-10
1.21887e-09
1.23613e-09
3.26972e-08
1.53731e-10
1.24217e-09
1.23492e-09
3.26967e-08
1.54197e-10
1.23819e-09
1.23571e-09
3.26972e-08
1.54254e-10
1.23435e-09
1.23531e-09
3.26976e-08
1.54593e-10
1.23417e-09
1.23728e-09
3.26977e-08
1.54466e-10
1.23394e-09
1.23642e-09
3.26976e-08
1.54599e-10
1.23409e-09
1.23575e-09
3.26978e-08
1.54525e-10
1.23384e-09
1.23706e-09
3.26978e-08
1.5439e-10
1.23416e-09
1.23733e-09
3.26978e-08
1.54766e-10
1.23403e-09
1.23721e-09
3.26979e-08
1.54745e-10
1.23382e-09
1.23847e-09
3.26979e-08
1.55048e-10
1.23434e-09
1.23587e-09
3.26977e-08
1.55439e-10
1.23472e-09
1.23582e-09
3.26974e-08
1.57815e-10
1.2423e-09
1.23522e-09
3.26974e-08
1.62754e-10
1.22523e-09
1.23633e-09
3.26974e-08
1.56314e-10
1.23259e-09
1.23291e-09
3.26967e-08
1.54837e-10
1.23408e-09
1.23394e-09
3.26953e-08
1.54781e-10
1.23404e-09
1.23354e-09
3.2695e-08
1.54955e-10
1.23434e-09
1.23392e-09
3.26951e-08
1.54505e-10
1.23405e-09
1.23326e-09
3.26953e-08
1.54469e-10
1.23411e-09
1.23406e-09
3.2695e-08
1.54829e-10
1.23399e-09
1.23345e-09
3.26953e-08
1.54918e-10
1.23435e-09
1.23381e-09
3.26953e-08
1.54481e-10
1.2337e-09
1.23328e-09
3.26952e-08
1.54772e-10
1.23405e-09
1.23353e-09
3.26952e-08
1.54934e-10
1.23454e-09
1.23402e-09
3.26952e-08
1.54066e-10
1.23392e-09
1.23347e-09
3.26955e-08
1.52536e-10
1.23352e-09
1.23324e-09
3.2695e-08
1.49429e-10
1.23233e-09
1.23572e-09
3.2695e-08
1.5123e-10
1.23314e-09
1.21922e-09
3.26972e-08
1.52946e-10
1.23513e-09
1.22816e-09
3.26941e-08
1.53654e-10
1.23467e-09
1.23465e-09
3.26945e-08
1.54769e-10
1.23423e-09
1.23466e-09
3.26945e-08
1.54636e-10
1.23394e-09
1.23327e-09
3.26944e-08
1.54637e-10
1.23368e-09
1.23253e-09
3.26944e-08
1.54768e-10
1.23406e-09
1.23295e-09
3.26944e-08
1.54901e-10
1.23394e-09
1.23275e-09
3.26942e-08
1.54744e-10
1.23436e-09
1.23323e-09
3.26943e-08
1.54724e-10
1.23426e-09
1.23365e-09
3.26942e-08
1.54679e-10
1.23382e-09
1.23321e-09
3.26943e-08
1.55111e-10
1.23425e-09
1.23366e-09
3.26944e-08
1.54523e-10
1.23415e-09
1.23356e-09
3.26943e-08
1.54666e-10
1.23406e-09
1.23344e-09
3.26943e-08
1.55299e-10
1.23391e-09
1.23332e-09
3.26944e-08
1.55674e-10
1.23451e-09
1.23391e-09
3.26944e-08
1.55124e-10
1.23407e-09
1.23387e-09
3.26944e-08
1.55519e-10
1.23391e-09
1.23297e-09
3.26942e-08
1.55115e-10
1.23444e-09
1.23354e-09
3.26944e-08
1.54959e-10
1.23418e-09
1.23294e-09
3.26944e-08
1.55654e-10
1.2342e-09
1.2338e-09
3.26944e-08
1.60422e-10
1.23518e-09
1.23453e-09
3.26948e-08
2.5242e-10
1.28297e-09
1.28636e-09
3.2696e-08
2.09125e-09
2.43897e-09
2.48076e-09
3.27762e-08
3.52927e-08
3.44771e-08
3.45425e-08
3.38192e-08
2.1851e-07
1.09432e-07
1.09488e-07
1.2698e-07
1.64937e-07
2.23677e-07
2.23697e-07
1.64878e-07
2.23692e-07
2.2376e-07
4.56323e-07
4.56316e-07
4.56317e-07
4.5632e-07
2.23614e-07
2.23686e-07
1.64836e-07
2.23657e-07
2.23667e-07
1.64822e-07
1.64366e-07
8.94363e-08
3.90323e-07
3.90427e-07
5.84657e-08
5.83488e-08
1.64321e-07
8.91761e-08
3.90588e-07
3.90439e-07
5.85576e-08
5.85146e-08
3.90415e-07
5.85172e-08
5.84865e-08
1.64353e-07
8.94904e-08
3.90531e-07
5.86235e-08
5.86147e-08
8.93892e-08
3.35805e-08
8.50221e-08
2.63129e-08
2.63462e-08
3.28562e-09
3.33499e-09
3.34732e-08
8.50961e-08
2.63783e-08
2.63845e-08
3.29237e-09
3.33224e-09
2.64159e-08
3.25164e-09
3.31103e-09
3.36328e-08
8.50863e-08
2.65374e-08
3.30699e-09
3.31362e-09
8.50718e-08
3.26197e-08
8.49559e-08
2.14861e-09
2.16649e-09
1.3444e-09
1.3418e-09
3.26326e-08
8.49596e-08
2.18395e-09
2.176e-09
1.32625e-09
1.34711e-09
2.20282e-09
1.33036e-09
1.34517e-09
3.26436e-08
8.49608e-08
2.2061e-09
1.31648e-09
1.32512e-09
8.49426e-08
3.26747e-08
8.4945e-08
1.29804e-09
1.30083e-09
1.25434e-09
1.23238e-09
3.26773e-08
8.49493e-08
1.28069e-09
1.3005e-09
1.23866e-09
1.25734e-09
1.29594e-09
1.22683e-09
1.25104e-09
3.26832e-08
8.49509e-08
1.28092e-09
1.23315e-09
1.23283e-09
8.49319e-08
3.2675e-08
8.49447e-08
1.24974e-09
1.22066e-09
1.25149e-09
1.22405e-09
3.26826e-08
8.49461e-08
1.23429e-09
1.25308e-09
1.23149e-09
1.25251e-09
1.24819e-09
1.22193e-09
1.24655e-09
3.26863e-08
8.49513e-08
1.23054e-09
1.22667e-09
1.22602e-09
8.49331e-08
3.26752e-08
8.4943e-08
1.24997e-09
1.24419e-09
1.23457e-09
1.27571e-09
3.26873e-08
8.4951e-08
1.22839e-09
1.25122e-09
1.22679e-09
1.25208e-09
1.24641e-09
1.24462e-09
1.24447e-09
3.26864e-08
8.49515e-08
1.22786e-09
1.22523e-09
1.22592e-09
8.49327e-08
3.2678e-08
8.49442e-08
1.20228e-09
1.26678e-09
1.26954e-09
1.25604e-09
3.26822e-08
8.49533e-08
1.22242e-09
1.25052e-09
1.24156e-09
1.25096e-09
1.2443e-09
1.23458e-09
1.24441e-09
3.26869e-08
8.4953e-08
1.22777e-09
1.22556e-09
1.22687e-09
8.49338e-08
3.26777e-08
8.49465e-08
1.24919e-09
1.25608e-09
1.25135e-09
1.25559e-09
3.26813e-08
8.49529e-08
1.23855e-09
1.24955e-09
1.2379e-09
1.25184e-09
1.24419e-09
1.23406e-09
1.24472e-09
3.2687e-08
8.49528e-08
1.22913e-09
1.22315e-09
1.22741e-09
8.4934e-08
3.26765e-08
8.49466e-08
1.25056e-09
1.25546e-09
1.24217e-09
1.24937e-09
3.26819e-08
8.49554e-08
1.23388e-09
1.25103e-09
1.22946e-09
1.25247e-09
1.2447e-09
1.23281e-09
1.24476e-09
3.26875e-08
8.49528e-08
1.22778e-09
1.22577e-09
1.22754e-09
8.49339e-08
3.26758e-08
8.4941e-08
1.23109e-09
1.24202e-09
1.26983e-09
1.24229e-09
3.26786e-08
8.49594e-08
1.221e-09
1.25169e-09
1.24514e-09
1.2527e-09
1.24498e-09
1.22878e-09
1.24483e-09
3.26873e-08
8.49542e-08
1.22958e-09
1.22545e-09
1.22759e-09
8.49346e-08
3.26826e-08
8.49479e-08
1.28872e-09
1.24866e-09
1.25311e-09
1.24782e-09
3.26808e-08
8.49557e-08
1.24655e-09
1.2505e-09
1.23889e-09
1.25119e-09
1.24446e-09
1.23164e-09
1.24392e-09
3.26875e-08
8.49543e-08
1.2291e-09
1.2258e-09
1.22691e-09
8.49351e-08
3.26774e-08
8.49479e-08
1.25038e-09
1.23953e-09
1.24815e-09
1.24952e-09
3.26811e-08
8.49546e-08
1.2349e-09
1.25001e-09
1.23475e-09
1.25164e-09
1.24393e-09
1.23752e-09
1.2447e-09
3.26882e-08
8.49542e-08
1.22881e-09
1.22685e-09
1.22781e-09
8.49356e-08
3.2677e-08
8.49514e-08
1.24823e-09
1.23944e-09
1.2459e-09
1.25673e-09
3.26774e-08
8.4956e-08
1.23297e-09
1.25044e-09
1.23063e-09
1.25224e-09
1.24482e-09
1.23755e-09
1.24532e-09
3.26882e-08
8.49529e-08
1.22962e-09
1.22731e-09
1.22789e-09
8.49342e-08
3.26688e-08
8.49418e-08
1.24546e-09
1.25776e-09
1.26562e-09
1.24173e-09
3.26798e-08
8.49527e-08
1.22276e-09
1.25105e-09
1.21952e-09
1.25168e-09
1.24552e-09
1.22439e-09
1.2456e-09
3.26883e-08
8.49546e-08
1.22961e-09
1.2268e-09
1.22668e-09
8.49356e-08
3.26786e-08
8.49439e-08
1.24522e-09
1.22397e-09
1.25178e-09
1.29324e-09
3.26808e-08
8.49506e-08
1.23081e-09
1.25061e-09
1.23542e-09
1.25172e-09
1.24595e-09
1.24757e-09
1.24501e-09
3.26884e-08
8.49547e-08
1.22828e-09
1.22642e-09
1.22592e-09
8.49367e-08
3.26777e-08
8.49429e-08
1.24899e-09
1.2823e-09
1.25411e-09
1.25566e-09
3.26888e-08
8.49377e-08
1.23355e-09
1.25031e-09
1.23409e-09
1.25153e-09
1.24453e-09
1.23334e-09
1.24463e-09
3.26884e-08
8.49554e-08
1.22789e-09
1.22608e-09
1.22666e-09
8.49367e-08
3.26794e-08
8.494e-08
1.24508e-09
1.25444e-09
1.25436e-09
1.24791e-09
3.26893e-08
8.49542e-08
1.23331e-09
1.25075e-09
1.2338e-09
1.253e-09
1.24533e-09
1.23069e-09
1.24642e-09
3.26885e-08
8.49551e-08
1.22915e-09
1.22649e-09
1.22749e-09
8.49362e-08
3.26787e-08
8.49424e-08
1.23909e-09
1.24121e-09
1.19589e-09
1.21773e-09
3.26866e-08
8.49549e-08
1.22812e-09
1.25182e-09
1.21731e-09
1.25402e-09
1.24634e-09
1.21499e-09
1.24751e-09
3.26888e-08
8.49572e-08
1.2286e-09
1.2253e-09
1.22632e-09
8.49384e-08
3.26754e-08
8.49316e-08
1.1979e-09
1.22656e-09
1.27885e-09
1.3556e-09
3.27018e-08
8.49767e-08
1.22119e-09
1.25243e-09
1.25126e-09
1.25128e-09
1.24653e-09
1.28156e-09
1.24435e-09
3.26885e-08
8.49601e-08
1.22744e-09
1.22243e-09
1.22652e-09
8.49437e-08
3.2695e-08
8.49616e-08
1.23324e-09
1.29329e-09
1.23474e-09
1.29783e-09
3.26632e-08
8.4923e-08
1.24998e-09
1.2493e-09
1.2078e-09
1.25292e-09
1.24642e-09
1.21882e-09
1.24498e-09
3.26893e-08
8.49587e-08
1.23107e-09
1.22553e-09
1.22851e-09
8.4939e-08
3.2664e-08
8.49406e-08
1.25843e-09
1.26452e-09
1.25797e-09
1.25312e-09
3.26939e-08
8.49513e-08
1.22618e-09
1.25093e-09
1.23966e-09
1.25128e-09
1.24467e-09
1.23734e-09
1.24418e-09
3.269e-08
8.49589e-08
1.23009e-09
1.22652e-09
1.22762e-09
8.49398e-08
3.26803e-08
8.494e-08
1.2562e-09
1.25823e-09
1.24861e-09
1.25464e-09
3.26803e-08
8.49512e-08
1.23583e-09
1.25015e-09
1.23586e-09
1.2515e-09
1.24447e-09
1.23476e-09
1.24438e-09
3.26904e-08
8.49591e-08
1.22977e-09
1.22705e-09
1.22776e-09
8.49402e-08
3.26802e-08
8.49407e-08
1.25214e-09
1.25779e-09
1.24927e-09
1.25503e-09
3.26807e-08
8.49506e-08
1.2322e-09
1.24938e-09
1.23623e-09
1.25193e-09
1.24389e-09
1.23508e-09
1.24432e-09
3.26908e-08
8.49585e-08
1.22873e-09
1.22736e-09
1.23667e-09
8.49399e-08
3.26799e-08
8.49421e-08
1.2522e-09
1.25844e-09
1.24829e-09
1.25459e-09
3.26806e-08
8.49513e-08
1.23331e-09
1.25e-09
1.23531e-09
1.25145e-09
1.24414e-09
1.23497e-09
1.24465e-09
3.26907e-08
8.49592e-08
1.23515e-09
1.22737e-09
1.23066e-09
8.49398e-08
3.26799e-08
8.49413e-08
1.25136e-09
1.25825e-09
1.2489e-09
1.25479e-09
3.26806e-08
8.49512e-08
1.23247e-09
1.2498e-09
1.23586e-09
1.25172e-09
1.24469e-09
1.23512e-09
1.24454e-09
3.26907e-08
8.49591e-08
1.23307e-09
1.22725e-09
1.22964e-09
8.49404e-08
3.26799e-08
8.49413e-08
1.2514e-09
1.25794e-09
1.24921e-09
1.25493e-09
3.26807e-08
8.49511e-08
1.23249e-09
1.24955e-09
1.23619e-09
1.25185e-09
1.24423e-09
1.23509e-09
1.24472e-09
3.26908e-08
8.4959e-08
1.2313e-09
1.22727e-09
1.23007e-09
8.49404e-08
3.26798e-08
8.49419e-08
1.25208e-09
1.25851e-09
1.24819e-09
1.25419e-09
3.26806e-08
8.49519e-08
1.23319e-09
1.25012e-09
1.23518e-09
1.25111e-09
1.24485e-09
1.23456e-09
1.24399e-09
3.26907e-08
8.49598e-08
1.23196e-09
1.22674e-09
1.22936e-09
8.49414e-08
3.26797e-08
8.4941e-08
1.25133e-09
1.25785e-09
1.2493e-09
1.25505e-09
3.26805e-08
8.4951e-08
1.23243e-09
1.24947e-09
1.23625e-09
1.25198e-09
1.24404e-09
1.23523e-09
1.24483e-09
3.26906e-08
8.49589e-08
1.23118e-09
1.22746e-09
1.23012e-09
8.49404e-08
3.26798e-08
8.49413e-08
1.25223e-09
1.25855e-09
1.24883e-09
1.25479e-09
3.26805e-08
8.4951e-08
1.23333e-09
1.25018e-09
1.2358e-09
1.25168e-09
1.24469e-09
1.23491e-09
1.2445e-09
3.26906e-08
8.49589e-08
1.23178e-09
1.22715e-09
1.22985e-09
8.49404e-08
3.268e-08
8.49419e-08
1.2514e-09
1.25824e-09
1.24914e-09
1.25217e-09
3.26807e-08
8.49518e-08
1.23248e-09
1.2497e-09
1.23592e-09
1.25172e-09
1.24453e-09
1.23456e-09
1.24435e-09
3.26908e-08
8.49595e-08
1.23163e-09
1.22719e-09
1.22964e-09
8.49408e-08
3.26799e-08
8.49413e-08
1.25157e-09
1.23959e-09
1.24903e-09
1.26354e-09
3.26811e-08
8.49538e-08
1.23272e-09
1.24983e-09
1.23586e-09
1.25177e-09
1.24477e-09
1.23647e-09
1.2444e-09
3.26907e-08
8.49591e-08
1.23188e-09
1.22719e-09
1.22961e-09
8.49406e-08
3.26799e-08
8.49411e-08
1.25177e-09
1.25078e-09
1.24911e-09
1.25675e-09
3.2681e-08
8.49536e-08
1.23279e-09
1.24999e-09
1.23609e-09
1.25177e-09
1.24456e-09
1.23521e-09
1.24451e-09
3.26907e-08
8.49589e-08
1.23167e-09
1.22709e-09
1.22973e-09
8.49401e-08
3.26799e-08
8.49412e-08
1.25192e-09
1.26024e-09
1.24881e-09
1.25662e-09
3.26778e-08
8.49537e-08
1.23302e-09
1.24989e-09
1.23578e-09
1.25146e-09
1.24428e-09
1.23518e-09
1.24424e-09
3.26907e-08
8.49591e-08
1.23147e-09
1.22758e-09
1.23015e-09
8.49408e-08
3.268e-08
8.49415e-08
1.25176e-09
1.26015e-09
1.24865e-09
1.25633e-09
3.26779e-08
8.49539e-08
1.23285e-09
1.24954e-09
1.23561e-09
1.25176e-09
1.24401e-09
1.23509e-09
1.24507e-09
3.26908e-08
8.49595e-08
1.233e-09
1.22338e-09
1.22629e-09
8.49405e-08
3.26799e-08
8.49413e-08
1.25156e-09
1.25995e-09
1.24907e-09
1.25687e-09
3.26778e-08
8.49534e-08
1.23267e-09
1.24975e-09
1.23604e-09
1.25203e-09
1.24443e-09
1.23559e-09
1.24516e-09
3.26908e-08
8.49589e-08
1.23304e-09
1.22567e-09
1.22843e-09
8.49398e-08
3.268e-08
8.49414e-08
1.25191e-09
1.26028e-09
1.24869e-09
1.2566e-09
3.26779e-08
8.49536e-08
1.23302e-09
1.24993e-09
1.23564e-09
1.25175e-09
1.24456e-09
1.23506e-09
1.24453e-09
3.26909e-08
8.49591e-08
1.23368e-09
1.22512e-09
1.22781e-09
8.49402e-08
3.26801e-08
8.49414e-08
1.25157e-09
1.26002e-09
1.24872e-09
1.25651e-09
3.2678e-08
8.49537e-08
1.23268e-09
1.24968e-09
1.23569e-09
1.25167e-09
1.24422e-09
1.23528e-09
1.24448e-09
3.2691e-08
8.49592e-08
1.23335e-09
1.2253e-09
1.22778e-09
8.49407e-08
3.26798e-08
8.49415e-08
1.25201e-09
1.26017e-09
1.24904e-09
1.25617e-09
3.26778e-08
8.49537e-08
1.23312e-09
1.24984e-09
1.23583e-09
1.25124e-09
1.24435e-09
1.23519e-09
1.24445e-09
3.26908e-08
8.49592e-08
1.2335e-09
1.22565e-09
1.22789e-09
8.49406e-08
3.26799e-08
8.49421e-08
1.25227e-09
1.25921e-09
1.26028e-09
1.24721e-09
3.2678e-08
8.49532e-08
1.23311e-09
1.2491e-09
1.23662e-09
1.25129e-09
1.24363e-09
1.23649e-09
1.23587e-09
3.26908e-08
8.49608e-08
1.23322e-09
1.22302e-09
1.21913e-09
8.49415e-08
3.2679e-08
8.49538e-08
1.27088e-09
1.25461e-09
1.19411e-09
1.26457e-09
3.26764e-08
8.49698e-08
1.23098e-09
1.24858e-09
1.21334e-09
1.25375e-09
1.23603e-09
1.2211e-09
1.25524e-09
3.26903e-08
8.49617e-08
1.20559e-09
1.22599e-09
1.23271e-09
8.49421e-08
3.26774e-08
8.49467e-08
1.24852e-09
1.23768e-09
1.2464e-09
1.21644e-09
3.26826e-08
8.4976e-08
1.21663e-09
1.25212e-09
1.23679e-09
1.2526e-09
1.24846e-09
1.21779e-09
1.24624e-09
3.26899e-08
8.49621e-08
1.23888e-09
1.22574e-09
1.22717e-09
8.49423e-08
3.26759e-08
8.49489e-08
1.25249e-09
1.27188e-09
1.24397e-09
1.26783e-09
3.26966e-08
8.4962e-08
1.23099e-09
1.25027e-09
1.2351e-09
1.25209e-09
1.24529e-09
1.24118e-09
1.2448e-09
3.26902e-08
8.49619e-08
1.23173e-09
1.22577e-09
1.22693e-09
8.49414e-08
3.26797e-08
8.49484e-08
1.25222e-09
1.26157e-09
1.24333e-09
1.25579e-09
3.26812e-08
8.49626e-08
1.23131e-09
1.25005e-09
1.23538e-09
1.25161e-09
1.24494e-09
1.23464e-09
1.2448e-09
3.26903e-08
8.4962e-08
1.23296e-09
1.22554e-09
1.22762e-09
8.49411e-08
3.26799e-08
8.4948e-08
1.25173e-09
1.25573e-09
1.24359e-09
1.25552e-09
3.26807e-08
8.49624e-08
1.23169e-09
1.24967e-09
1.23416e-09
1.25184e-09
1.24464e-09
1.23418e-09
1.24488e-09
3.26906e-08
8.49616e-08
1.23319e-09
1.22433e-09
1.22778e-09
8.4941e-08
3.268e-08
8.49479e-08
1.25129e-09
1.25575e-09
1.24327e-09
1.25547e-09
3.26806e-08
8.49629e-08
1.23321e-09
1.24984e-09
1.23546e-09
1.25177e-09
1.24463e-09
1.23402e-09
1.24411e-09
3.26906e-08
8.49624e-08
1.23317e-09
1.22649e-09
1.22931e-09
8.49422e-08
3.26799e-08
8.4948e-08
1.2513e-09
1.25576e-09
1.24344e-09
1.25562e-09
3.26805e-08
8.49628e-08
1.2321e-09
1.24975e-09
1.23689e-09
1.25224e-09
1.24373e-09
1.23407e-09
1.24519e-09
3.26905e-08
8.49624e-08
1.23507e-09
1.22507e-09
1.22575e-09
8.49418e-08
3.26798e-08
8.49481e-08
1.25148e-09
1.25579e-09
1.24348e-09
1.25532e-09
3.26805e-08
8.49629e-08
1.23291e-09
1.25033e-09
1.23574e-09
1.25195e-09
1.24471e-09
1.23396e-09
1.24478e-09
3.26905e-08
8.49624e-08
1.23517e-09
1.22446e-09
1.22746e-09
8.49418e-08
3.26801e-08
8.49478e-08
1.25141e-09
1.25537e-09
1.24357e-09
1.25549e-09
3.26806e-08
8.49625e-08
1.2323e-09
1.24973e-09
1.23575e-09
1.25204e-09
1.24428e-09
1.23423e-09
1.24492e-09
3.26908e-08
8.49621e-08
1.23379e-09
1.22476e-09
1.22787e-09
8.49416e-08
3.26801e-08
8.49481e-08
1.25151e-09
1.25566e-09
1.24325e-09
1.25523e-09
3.26805e-08
8.49629e-08
1.23235e-09
1.24996e-09
1.23541e-09
1.25175e-09
1.2444e-09
1.23408e-09
1.24486e-09
3.26907e-08
8.49625e-08
1.23394e-09
1.22459e-09
1.22782e-09
8.49419e-08
3.26801e-08
8.4948e-08
1.25118e-09
1.25538e-09
1.24351e-09
1.25553e-09
3.26806e-08
8.49626e-08
1.23204e-09
1.24964e-09
1.23571e-09
1.2518e-09
1.24444e-09
1.23407e-09
1.24449e-09
3.26908e-08
8.49622e-08
1.23407e-09
1.22544e-09
1.22997e-09
8.49411e-08
3.26799e-08
8.49478e-08
1.25118e-09
1.25545e-09
1.2434e-09
1.25559e-09
3.26805e-08
8.49626e-08
1.23212e-09
1.24943e-09
1.23571e-09
1.25201e-09
1.24372e-09
1.23417e-09
1.24478e-09
3.26906e-08
8.49621e-08
1.23903e-09
1.22576e-09
1.22815e-09
8.49419e-08
3.26798e-08
8.49478e-08
1.25168e-09
1.25597e-09
1.24327e-09
1.25568e-09
3.26804e-08
8.4963e-08
1.23276e-09
1.25015e-09
1.23602e-09
1.25169e-09
1.2444e-09
1.23446e-09
1.24387e-09
3.26906e-08
8.49621e-08
1.23284e-09
1.22591e-09
1.22796e-09
8.49423e-08
3.26797e-08
8.49471e-08
1.25101e-09
1.25596e-09
1.2411e-09
1.26068e-09
3.26802e-08
8.49648e-08
1.23259e-09
1.24951e-09
1.23744e-09
1.2509e-09
1.24365e-09
1.23834e-09
1.2425e-09
3.26906e-08
8.49617e-08
1.23312e-09
1.22536e-09
1.2283e-09
8.49413e-08
3.268e-08
8.49461e-08
1.24829e-09
1.2702e-09
1.23964e-09
1.23157e-09
3.26792e-08
8.49759e-08
1.23283e-09
1.2489e-09
1.23555e-09
1.25133e-09
1.24207e-09
1.22432e-09
1.243e-09
3.26906e-08
8.49613e-08
1.2326e-09
1.22595e-09
1.22906e-09
8.49404e-08
3.26799e-08
8.49456e-08
1.24887e-09
1.21478e-09
1.24316e-09
1.24994e-09
3.26703e-08
8.49621e-08
1.23294e-09
1.24937e-09
1.23671e-09
1.25245e-09
1.24357e-09
1.23204e-09
1.24408e-09
3.26905e-08
8.49606e-08
1.23364e-09
1.2257e-09
1.22747e-09
8.49408e-08
3.26795e-08
8.49459e-08
1.25099e-09
1.25274e-09
1.24361e-09
1.25515e-09
3.26791e-08
8.49615e-08
1.23307e-09
1.25061e-09
1.23622e-09
1.25229e-09
1.24181e-09
1.23436e-09
1.24795e-09
3.26904e-08
8.49602e-08
1.22608e-09
1.22793e-09
1.23152e-09
8.49431e-08
3.26794e-08
8.49463e-08
1.25148e-09
1.25524e-09
1.24292e-09
1.25479e-09
3.26796e-08
8.49618e-08
1.23291e-09
1.25026e-09
1.23524e-09
1.25146e-09
1.24793e-09
1.23397e-09
1.24747e-09
3.26901e-08
8.49605e-08
1.23144e-09
1.227e-09
1.23089e-09
8.49428e-08
3.26793e-08
8.49458e-08
1.25095e-09
1.25522e-09
1.24345e-09
1.25528e-09
3.26795e-08
8.49615e-08
1.2322e-09
1.24994e-09
1.23569e-09
1.25189e-09
1.24829e-09
1.23441e-09
1.24785e-09
3.26899e-08
8.49602e-08
1.23173e-09
1.22738e-09
1.23127e-09
8.49428e-08
3.26793e-08
8.49459e-08
1.2515e-09
1.25553e-09
1.24354e-09
1.25515e-09
3.26795e-08
8.49615e-08
1.23271e-09
1.25019e-09
1.23577e-09
1.25185e-09
1.24816e-09
1.23431e-09
1.24763e-09
3.26898e-08
8.49602e-08
1.23166e-09
1.22739e-09
1.23125e-09
8.4943e-08
3.26795e-08
8.49462e-08
1.25148e-09
1.25529e-09
1.24305e-09
1.25493e-09
3.26797e-08
8.49616e-08
1.23265e-09
1.25008e-09
1.23527e-09
1.25159e-09
1.24758e-09
1.23421e-09
1.24785e-09
3.269e-08
8.49604e-08
1.2312e-09
1.22685e-09
1.23066e-09
8.49428e-08
3.26793e-08
8.49462e-08
1.25104e-09
1.25517e-09
1.24326e-09
1.25503e-09
3.26795e-08
8.49616e-08
1.23221e-09
1.24987e-09
1.2355e-09
1.25166e-09
1.24798e-09
1.23434e-09
1.24765e-09
3.26898e-08
8.49604e-08
1.23285e-09
1.22721e-09
1.23094e-09
8.4943e-08
3.26794e-08
8.49456e-08
1.25137e-09
1.25514e-09
1.24343e-09
1.25526e-09
3.26797e-08
8.49611e-08
1.23255e-09
1.24985e-09
1.23566e-09
1.25186e-09
1.24734e-09
1.23442e-09
1.24793e-09
3.26899e-08
8.49598e-08
1.23075e-09
1.22734e-09
1.23133e-09
8.49426e-08
3.26793e-08
8.4946e-08
1.25161e-09
1.25573e-09
1.24329e-09
1.25506e-09
3.26796e-08
8.49617e-08
1.23281e-09
1.25038e-09
1.23554e-09
1.25163e-09
1.24786e-09
1.23422e-09
1.24759e-09
3.26899e-08
8.49605e-08
1.23127e-09
1.22713e-09
1.23061e-09
8.49432e-08
3.26796e-08
8.49453e-08
1.25103e-09
1.2549e-09
1.24293e-09
1.25478e-09
3.26798e-08
8.49614e-08
1.23223e-09
1.24952e-09
1.2355e-09
1.25144e-09
1.24726e-09
1.23413e-09
1.24773e-09
3.26901e-08
8.49602e-08
1.23131e-09
1.22707e-09
1.23142e-09
8.49427e-08
3.26794e-08
8.49466e-08
1.25114e-09
1.25517e-09
1.24345e-09
1.25535e-09
3.26797e-08
8.49613e-08
1.23217e-09
1.24988e-09
1.23632e-09
1.25198e-09
1.24779e-09
1.23464e-09
1.24822e-09
3.26899e-08
8.496e-08
1.23148e-09
1.22756e-09
1.23184e-09
8.49426e-08
3.26793e-08
8.49464e-08
1.25169e-09
1.25561e-09
1.24324e-09
1.25507e-09
3.26796e-08
8.49609e-08
1.23196e-09
1.25039e-09
1.23605e-09
1.25183e-09
1.24848e-09
1.2343e-09
1.24806e-09
3.26899e-08
8.49597e-08
1.23216e-09
1.22727e-09
1.23169e-09
8.49419e-08
3.26796e-08
8.49468e-08
1.25122e-09
1.25512e-09
1.24291e-09
1.25444e-09
3.26799e-08
8.49614e-08
1.23134e-09
1.2501e-09
1.2354e-09
1.25182e-09
1.24798e-09
1.23349e-09
1.24802e-09
3.26901e-08
8.49606e-08
1.2316e-09
1.22636e-09
1.23149e-09
8.49427e-08
3.26796e-08
8.49457e-08
1.25131e-09
1.25483e-09
1.24258e-09
1.25395e-09
3.26796e-08
8.4961e-08
1.2308e-09
1.25064e-09
1.23452e-09
1.25349e-09
1.24921e-09
1.23251e-09
1.2479e-09
3.26897e-08
8.49611e-08
1.23272e-09
1.22762e-09
1.23084e-09
8.49436e-08
3.26794e-08
8.49449e-08
1.25081e-09
1.25401e-09
1.24255e-09
1.25437e-09
3.26795e-08
8.49602e-08
1.22967e-09
1.2527e-09
1.23445e-09
1.25266e-09
1.24913e-09
1.23251e-09
1.2493e-09
3.26897e-08
8.49555e-08
1.23118e-09
1.20699e-09
1.22486e-09
8.49393e-08
3.26791e-08
8.49439e-08
1.25158e-09
1.25537e-09
1.24418e-09
1.25643e-09
3.26792e-08
8.49588e-08
1.23077e-09
1.25036e-09
1.23684e-09
1.25161e-09
1.24848e-09
1.23582e-09
1.2474e-09
3.26917e-08
8.49563e-08
1.22594e-09
1.2196e-09
1.22268e-09
8.49385e-08
3.2679e-08
8.49437e-08
1.25223e-09
1.25591e-09
1.244e-09
1.2557e-09
3.26792e-08
8.49585e-08
1.23203e-09
1.24955e-09
1.2367e-09
1.25225e-09
1.24666e-09
1.23506e-09
1.24826e-09
3.26887e-08
8.49575e-08
1.227e-09
1.2248e-09
1.22271e-09
8.49406e-08
3.26785e-08
8.49438e-08
1.25209e-09
1.25562e-09
1.24319e-09
1.25514e-09
3.26787e-08
8.49585e-08
1.23193e-09
1.25028e-09
1.23599e-09
1.2517e-09
1.24795e-09
1.23432e-09
1.24686e-09
3.26886e-08
8.49573e-08
1.23593e-09
1.22692e-09
1.22929e-09
8.49403e-08
3.26782e-08
8.49439e-08
1.25164e-09
1.25542e-09
1.24327e-09
1.25491e-09
3.26785e-08
8.49589e-08
1.23187e-09
1.25007e-09
1.23619e-09
1.25156e-09
1.24739e-09
1.23425e-09
1.24772e-09
3.26887e-08
8.49577e-08
1.24159e-09
1.22783e-09
1.23131e-09
8.49396e-08
3.26783e-08
8.49436e-08
1.25114e-09
1.25506e-09
1.24309e-09
1.25489e-09
3.26786e-08
8.49584e-08
1.23142e-09
1.24983e-09
1.236e-09
1.25149e-09
1.24758e-09
1.23392e-09
1.24731e-09
3.26889e-08
8.49572e-08
1.23139e-09
1.2273e-09
1.23104e-09
8.49391e-08
3.26784e-08
8.49444e-08
1.25096e-09
1.25492e-09
1.24302e-09
1.25492e-09
3.26786e-08
8.49593e-08
1.23127e-09
1.24968e-09
1.23595e-09
1.25152e-09
1.24752e-09
1.2341e-09
1.24753e-09
3.26889e-08
8.4958e-08
1.23077e-09
1.22759e-09
1.23142e-09
8.494e-08
3.26783e-08
8.49437e-08
1.25122e-09
1.25527e-09
1.24301e-09
1.25478e-09
3.26786e-08
8.49587e-08
1.23152e-09
1.25005e-09
1.23591e-09
1.25138e-09
1.24768e-09
1.23412e-09
1.24768e-09
3.26889e-08
8.49574e-08
1.23101e-09
1.22768e-09
1.23162e-09
8.49392e-08
3.26782e-08
8.49441e-08
1.2511e-09
1.25505e-09
1.24337e-09
1.25512e-09
3.26784e-08
8.49588e-08
1.2314e-09
1.2498e-09
1.23628e-09
1.25164e-09
1.24778e-09
1.23443e-09
1.24779e-09
3.26887e-08
8.49575e-08
1.23079e-09
1.2289e-09
1.23203e-09
8.49394e-08
3.26783e-08
8.49442e-08
1.25136e-09
1.25526e-09
1.24316e-09
1.25502e-09
3.26785e-08
8.49592e-08
1.23166e-09
1.25006e-09
1.23607e-09
1.25165e-09
1.24813e-09
1.23431e-09
1.24762e-09
3.26888e-08
8.49579e-08
1.23163e-09
1.22723e-09
1.23116e-09
8.49397e-08
3.26781e-08
8.49448e-08
1.25131e-09
1.25524e-09
1.2429e-09
1.25492e-09
3.26784e-08
8.49594e-08
1.2316e-09
1.25001e-09
1.23583e-09
1.25154e-09
1.24791e-09
1.23419e-09
1.24769e-09
3.26887e-08
8.49581e-08
1.23146e-09
1.22712e-09
1.23123e-09
8.49401e-08
3.26782e-08
8.49439e-08
1.25084e-09
1.25488e-09
1.24308e-09
1.25498e-09
3.26785e-08
8.49588e-08
1.23115e-09
1.24963e-09
1.23598e-09
1.25155e-09
1.24762e-09
1.23417e-09
1.2475e-09
3.26887e-08
8.49575e-08
1.23119e-09
1.22711e-09
1.23112e-09
8.49394e-08
3.26783e-08
8.49441e-08
1.25109e-09
1.25542e-09
1.24352e-09
1.25533e-09
3.26786e-08
8.4959e-08
1.23142e-09
1.25012e-09
1.23646e-09
1.25196e-09
1.2479e-09
1.2344e-09
1.24807e-09
3.26888e-08
8.49577e-08
1.23154e-09
1.22736e-09
1.23162e-09
8.49395e-08
3.26783e-08
8.49439e-08
1.25137e-09
1.25531e-09
1.24287e-09
1.25477e-09
3.26786e-08
8.4959e-08
1.23168e-09
1.25012e-09
1.23628e-09
1.25145e-09
1.24807e-09
1.23422e-09
1.24758e-09
3.26889e-08
8.49577e-08
1.23164e-09
1.22715e-09
1.23112e-09
8.49394e-08
3.26783e-08
8.49445e-08
1.25118e-09
1.25502e-09
1.24311e-09
1.25484e-09
3.26785e-08
8.49589e-08
1.23167e-09
1.24983e-09
1.2359e-09
1.25144e-09
1.24788e-09
1.2341e-09
1.24767e-09
3.26888e-08
8.49576e-08
1.23145e-09
1.22704e-09
1.23132e-09
8.49394e-08
3.26781e-08
8.49445e-08
1.25096e-09
1.25497e-09
1.24352e-09
1.25528e-09
3.26785e-08
8.49587e-08
1.23109e-09
1.24968e-09
1.23648e-09
1.25188e-09
1.24761e-09
1.23453e-09
1.24782e-09
3.26888e-08
8.49574e-08
1.23128e-09
1.22747e-09
1.23146e-09
8.49392e-08
3.26782e-08
8.49442e-08
1.25151e-09
1.25574e-09
1.24343e-09
1.25533e-09
3.26786e-08
8.49584e-08
1.23168e-09
1.25045e-09
1.2364e-09
1.25247e-09
1.24821e-09
1.23437e-09
1.24804e-09
3.26889e-08
8.49567e-08
1.23186e-09
1.22738e-09
1.2316e-09
8.49391e-08
3.26781e-08
8.49449e-08
1.25142e-09
1.25539e-09
1.24308e-09
1.25478e-09
3.26786e-08
8.49593e-08
1.23155e-09
1.25187e-09
1.23605e-09
1.25494e-09
1.24777e-09
1.23392e-09
1.24705e-09
3.26883e-08
8.49803e-08
1.23133e-09
1.22711e-09
1.23061e-09
8.49401e-08
3.2678e-08
8.49435e-08
1.25119e-09
1.25511e-09
1.24345e-09
1.25549e-09
3.26785e-08
8.49578e-08
1.23139e-09
1.24635e-09
1.23635e-09
1.25558e-09
1.24777e-09
1.23441e-09
1.24783e-09
3.26833e-08
8.49788e-08
1.23134e-09
1.22759e-09
1.23144e-09
8.49384e-08
3.26782e-08
8.49445e-08
1.25141e-09
1.25553e-09
1.24341e-09
1.25492e-09
3.26787e-08
8.49587e-08
1.2316e-09
1.2467e-09
1.23627e-09
1.25504e-09
1.24788e-09
1.23449e-09
1.24786e-09
3.26835e-08
8.49797e-08
1.23156e-09
1.22777e-09
1.23166e-09
8.49393e-08
3.26785e-08
8.49447e-08
1.2509e-09
1.25514e-09
1.24362e-09
1.25525e-09
3.26787e-08
8.49591e-08
1.23106e-09
1.24637e-09
1.23644e-09
1.25712e-09
1.24798e-09
1.23457e-09
1.24795e-09
3.26835e-08
8.49785e-08
1.23154e-09
1.22801e-09
1.23147e-09
8.49392e-08
3.26782e-08
8.49447e-08
1.25145e-09
1.25543e-09
1.24402e-09
1.25587e-09
3.26786e-08
8.49587e-08
1.23153e-09
1.24754e-09
1.23661e-09
1.25212e-09
1.2482e-09
1.23474e-09
1.2492e-09
3.26876e-08
8.49647e-08
1.23174e-09
1.22767e-09
1.23293e-09
8.49393e-08
3.2678e-08
8.49432e-08
1.25303e-09
1.25691e-09
1.26314e-09
1.2745e-09
3.26787e-08
8.49566e-08
1.2329e-09
1.25058e-09
1.25777e-09
1.27612e-09
1.25197e-09
1.25445e-09
1.26734e-09
3.2689e-08
8.49555e-08
1.2359e-09
1.24991e-09
1.25038e-09
8.49354e-08
3.26813e-08
8.48914e-08
1.29895e-09
1.29321e-09
1.80045e-09
1.79189e-09
3.26808e-08
8.48881e-08
1.25333e-09
1.29759e-09
1.82271e-09
1.83361e-09
1.2926e-09
1.76647e-09
1.74528e-09
3.26902e-08
8.48888e-08
1.27268e-09
1.79857e-09
1.76147e-09
8.48383e-08
3.27915e-08
8.31689e-08
2.44601e-09
2.48313e-09
1.54896e-08
1.53999e-08
3.2787e-08
8.31897e-08
2.48589e-09
2.44197e-09
1.55076e-08
1.55164e-08
2.42859e-09
1.53904e-08
1.54715e-08
3.27919e-08
8.31985e-08
2.46043e-09
1.54827e-08
1.54133e-08
8.31488e-08
3.37907e-08
1.39624e-07
3.43195e-08
3.42594e-08
2.17274e-07
2.17398e-07
3.38743e-08
1.39612e-07
3.44806e-08
3.44801e-08
2.17739e-07
2.17577e-07
3.44156e-08
2.17626e-07
2.17502e-07
3.37888e-08
1.39651e-07
3.45396e-08
2.17687e-07
2.17802e-07
1.39621e-07
1.26968e-07
1.09409e-07
1.09385e-07
1.26922e-07
1.09442e-07
1.09437e-07
2.18502e-07
2.1861e-07
2.18623e-07
1.09441e-07
1.2699e-07
1.09477e-07
8.23627e-08
1.9351e-07
1.3785e-07
1.37922e-07
2.63233e-07
2.30039e-07
1.01749e-07
1.66025e-07
2.63115e-07
2.30075e-07
1.66014e-07
1.01698e-07
2.62003e-07
1.33074e-07
1.32982e-07
4.0666e-07
0.000117704
3.64816e-07
0.000121946
0.000249248
0.000256626
4.06907e-07
0.000117722
3.63964e-07
0.000121966
3.30259e-07
3.3017e-07
3.30252e-07
4.47661e-08
4.47059e-08
4.47452e-08
4.47988e-08
9.21837e-08
2.71193e-07
3.36703e-07
2.08257e-07
1.14757e-07
5.81349e-07
1.87905e-07
0.00024924
0.000256611
9.22784e-08
3.36678e-07
2.71047e-07
2.08045e-07
1.14626e-07
1.87838e-07
5.81283e-07
1.10431e-06
1.10425e-06
9.03882e-08
1.23774e-06
1.23831e-06
4.17262e-07
0.000121922
4.15189e-07
0.000121923
0.000256563
0.00025656
4.17338e-07
0.00012194
4.1524e-07
0.000121942
2.08061e-08
2.08078e-08