/*--------------------------------*- C++ -*----------------------------------*\
| =========                 |                                                 |
| \\      /  F ield         | OpenFOAM: The Open Source CFD Toolbox           |
|  \\    /   O peration     | Version:  v1912                                 |
|   \\  /    A nd           | Website:  www.openfoam.com                      |
|    \\/     M anipulation  |                                                 |
\*---------------------------------------------------------------------------*/
FoamFile
{
    version     2.0;
    format      ascii;
    class       volScalarField;
    location    "0.2";
    object      p;
}
// * * * * * * * * * * * * * * * * * * * * * * * * * * * * * * * * * * * * * //

dimensions      [0 2 -2 0 0 0 0];


internalField   nonuniform List<scalar> 
171728
(
0.0220374
0.0220408
0.0220408
0.0220586
0.0218021
0.0218022
0.0218022
0.0218166
0.0215688
0.0215688
0.0215688
0.0215833
0.0213355
0.0213355
0.0213355
0.0213499
0.0211022
0.0211021
0.0211021
0.0211166
0.0208688
0.0208688
0.0208688
0.0208832
0.0206355
0.0206355
0.0206355
0.0206499
0.0204022
0.0204021
0.0204021
0.0204166
0.0201688
0.0201688
0.0201688
0.0201832
0.0199355
0.0199354
0.0199354
0.0199499
0.0197021
0.0197021
0.0197021
0.0197165
0.0194688
0.0194688
0.0194688
0.0194832
0.0192354
0.0192354
0.0192354
0.0192498
0.0190021
0.0190021
0.0190021
0.0190165
0.0187688
0.0187687
0.0187687
0.0187832
0.0185354
0.0185354
0.0185354
0.0185498
0.0183021
0.0183021
0.0183021
0.0183165
0.0180687
0.0180687
0.0180687
0.0180831
0.0178354
0.0178354
0.0178354
0.0178498
0.0176021
0.0176021
0.0176021
0.0176165
0.0173688
0.0173687
0.0173687
0.0173832
0.0171354
0.0171354
0.0171354
0.0171498
0.0169021
0.0169021
0.0169021
0.0169165
0.0166688
0.0166688
0.0166688
0.0166832
0.0164355
0.0164355
0.0164355
0.0164499
0.0162022
0.0162022
0.0162022
0.0162166
0.0159689
0.0159688
0.0159688
0.0159833
0.0157356
0.0157355
0.0157355
0.01575
0.0155023
0.0155022
0.0155022
0.0155167
0.0152689
0.0152689
0.0152689
0.0152833
0.0150356
0.0150356
0.0150356
0.01505
0.0148023
0.0148023
0.0148023
0.0148167
0.014569
0.014569
0.014569
0.0145834
0.0143356
0.0143356
0.0143356
0.0143501
0.0141023
0.0141023
0.0141023
0.0141167
0.013869
0.0138689
0.0138689
0.0138834
0.0136356
0.0136356
0.0136356
0.01365
0.0134023
0.0134022
0.0134022
0.0134167
0.0131689
0.0131689
0.0131689
0.0131833
0.0129356
0.0129355
0.0129355
0.01295
0.0127022
0.0127022
0.0127022
0.0127166
0.0124688
0.0124688
0.0124688
0.0124832
0.0122355
0.0122354
0.0122354
0.0122499
0.0120021
0.0120021
0.0120021
0.0120165
0.0117687
0.0117687
0.0117687
0.0117831
0.0115354
0.0115353
0.0115353
0.0115498
0.011302
0.011302
0.011302
0.0113164
0.0110686
0.0110686
0.0110686
0.011083
0.0108353
0.0108353
0.0108353
0.0108497
0.0106019
0.0106019
0.0106019
0.0106163
0.0103686
0.0103686
0.0103686
0.010383
0.0101353
0.0101352
0.0101352
0.0101497
0.00990194
0.00990191
0.00990191
0.00991634
0.00966862
0.00966859
0.00966859
0.00968302
0.0094353
0.00943527
0.00943527
0.0094497
0.00920199
0.00920196
0.00920196
0.00921639
0.00896868
0.00896865
0.00896865
0.00898308
0.00873537
0.00873534
0.00873534
0.00874977
0.00850207
0.00850204
0.00850204
0.00851647
0.00826876
0.00826873
0.00826874
0.00828317
0.00803546
0.00803543
0.00803543
0.00804986
0.00780215
0.00780212
0.00780212
0.00781655
0.00756884
0.00756881
0.00756881
0.00758325
0.00733553
0.0073355
0.0073355
0.00734993
0.00710221
0.00710218
0.00710218
0.00711662
0.00686889
0.00686886
0.00686886
0.00688329
0.00663556
0.00663554
0.00663554
0.00664997
0.00640223
0.0064022
0.0064022
0.00641664
0.0061689
0.00616887
0.00616887
0.00618331
0.00593556
0.00593553
0.00593553
0.00594996
0.00570222
0.00570219
0.00570219
0.00571663
0.00546887
0.00546884
0.00546884
0.00548328
0.00523552
0.00523549
0.0052355
0.00524993
0.00500217
0.00500214
0.00500214
0.00501658
0.00476882
0.00476879
0.0047688
0.00478323
0.00453547
0.00453544
0.00453544
0.00454987
0.00430212
0.00430209
0.00430209
0.00431652
0.00406877
0.00406874
0.00406874
0.00408318
0.00383541
0.00383538
0.00383538
0.00384982
0.00360207
0.00360204
0.00360204
0.00361647
0.00336872
0.0033687
0.0033687
0.00338313
0.00313537
0.00313534
0.00313534
0.00314978
0.00290204
0.00290201
0.00290201
0.00291644
0.0026687
0.00266868
0.00266868
0.00268311
0.00243536
0.00243533
0.00243533
0.00244976
0.00220202
0.00220199
0.00220199
0.00221642
0.00196869
0.00196866
0.00196866
0.0019831
0.00173538
0.00173535
0.00173535
0.00174978
0.00150204
0.00150202
0.00150202
0.00151645
0.00126869
0.00126867
0.00126867
0.0012831
0.00103535
0.00103532
0.00103532
0.00104975
0.000802001
0.000801975
0.000801975
0.00081641
0.000568687
0.000568655
0.000568654
0.000583086
0.000335851
0.000335596
0.000335589
0.000349831
0.000107591
0.00012015
0.000120145
0.000121244
0.0220929
0.0220888
0.0220888
0.0220929
0.0220888
0.0220888
0.0220945
0.0220945
0.0220945
0.0220945
0.0220888
0.0220888
0.0220929
0.0220888
0.0220888
0.0220929
0.0220586
0.0218461
0.0220408
0.0220408
0.0218605
0.0218605
0.0220586
0.0218461
0.0220408
0.0220408
0.0218605
0.0218605
0.0220408
0.0218605
0.0218605
0.0220586
0.0218461
0.0220408
0.0218605
0.0218605
0.0218461
0.0218166
0.0216127
0.0218022
0.0218022
0.0216272
0.0216272
0.0218166
0.0216127
0.0218022
0.0218022
0.0216272
0.0216272
0.0218022
0.0216272
0.0216272
0.0218166
0.0216127
0.0218022
0.0216272
0.0216272
0.0216127
0.0215833
0.0213794
0.0215688
0.0215688
0.0213938
0.0213938
0.0215833
0.0213794
0.0215688
0.0215688
0.0213938
0.0213938
0.0215688
0.0213938
0.0213938
0.0215833
0.0213794
0.0215688
0.0213938
0.0213938
0.0213794
0.0213499
0.0211461
0.0213355
0.0213355
0.0211605
0.0211605
0.0213499
0.0211461
0.0213355
0.0213355
0.0211605
0.0211605
0.0213355
0.0211605
0.0211605
0.0213499
0.0211461
0.0213355
0.0211605
0.0211605
0.0211461
0.0211166
0.0209127
0.0211021
0.0211021
0.0209271
0.0209271
0.0211166
0.0209127
0.0211021
0.0211021
0.0209271
0.0209271
0.0211021
0.0209271
0.0209271
0.0211166
0.0209127
0.0211021
0.0209271
0.0209271
0.0209127
0.0208832
0.0206794
0.0208688
0.0208688
0.0206938
0.0206938
0.0208832
0.0206794
0.0208688
0.0208688
0.0206938
0.0206938
0.0208688
0.0206938
0.0206938
0.0208832
0.0206794
0.0208688
0.0206938
0.0206938
0.0206794
0.0206499
0.0204461
0.0206355
0.0206355
0.0204605
0.0204605
0.0206499
0.0204461
0.0206355
0.0206355
0.0204605
0.0204605
0.0206355
0.0204605
0.0204605
0.0206499
0.0204461
0.0206355
0.0204605
0.0204605
0.0204461
0.0204166
0.0202127
0.0204021
0.0204021
0.0202271
0.0202271
0.0204166
0.0202127
0.0204021
0.0204021
0.0202271
0.0202271
0.0204021
0.0202271
0.0202271
0.0204166
0.0202127
0.0204021
0.0202271
0.0202271
0.0202127
0.0201832
0.0199794
0.0201688
0.0201688
0.0199938
0.0199938
0.0201832
0.0199794
0.0201688
0.0201688
0.0199938
0.0199938
0.0201688
0.0199938
0.0199938
0.0201832
0.0199794
0.0201688
0.0199938
0.0199938
0.0199794
0.0199499
0.019746
0.0199354
0.0199354
0.0197604
0.0197604
0.0199499
0.019746
0.0199354
0.0199354
0.0197604
0.0197604
0.0199354
0.0197604
0.0197604
0.0199499
0.019746
0.0199354
0.0197604
0.0197604
0.019746
0.0197165
0.0195127
0.0197021
0.0197021
0.0195271
0.0195271
0.0197165
0.0195127
0.0197021
0.0197021
0.0195271
0.0195271
0.0197021
0.0195271
0.0195271
0.0197165
0.0195127
0.0197021
0.0195271
0.0195271
0.0195127
0.0194832
0.0192793
0.0194688
0.0194688
0.0192937
0.0192937
0.0194832
0.0192793
0.0194688
0.0194688
0.0192937
0.0192937
0.0194688
0.0192937
0.0192937
0.0194832
0.0192793
0.0194688
0.0192937
0.0192937
0.0192793
0.0192498
0.019046
0.0192354
0.0192354
0.0190604
0.0190604
0.0192498
0.019046
0.0192354
0.0192354
0.0190604
0.0190604
0.0192354
0.0190604
0.0190604
0.0192498
0.019046
0.0192354
0.0190604
0.0190604
0.019046
0.0190165
0.0188126
0.0190021
0.0190021
0.0188271
0.0188271
0.0190165
0.0188126
0.0190021
0.0190021
0.0188271
0.0188271
0.0190021
0.0188271
0.0188271
0.0190165
0.0188126
0.0190021
0.0188271
0.0188271
0.0188126
0.0187832
0.0185793
0.0187687
0.0187687
0.0185937
0.0185937
0.0187832
0.0185793
0.0187687
0.0187687
0.0185937
0.0185937
0.0187687
0.0185937
0.0185937
0.0187832
0.0185793
0.0187687
0.0185937
0.0185937
0.0185793
0.0185498
0.018346
0.0185354
0.0185354
0.0183604
0.0183604
0.0185498
0.018346
0.0185354
0.0185354
0.0183604
0.0183604
0.0185354
0.0183604
0.0183604
0.0185498
0.018346
0.0185354
0.0183604
0.0183604
0.018346
0.0183165
0.0181126
0.0183021
0.0183021
0.018127
0.018127
0.0183165
0.0181126
0.0183021
0.0183021
0.018127
0.018127
0.0183021
0.018127
0.018127
0.0183165
0.0181126
0.0183021
0.018127
0.018127
0.0181126
0.0180832
0.0178793
0.0180687
0.0180687
0.0178937
0.0178937
0.0180832
0.0178793
0.0180687
0.0180687
0.0178937
0.0178937
0.0180687
0.0178937
0.0178937
0.0180832
0.0178793
0.0180687
0.0178937
0.0178937
0.0178793
0.0178498
0.017646
0.0178354
0.0178354
0.0176604
0.0176604
0.0178498
0.017646
0.0178354
0.0178354
0.0176604
0.0176604
0.0178354
0.0176604
0.0176604
0.0178498
0.017646
0.0178354
0.0176604
0.0176604
0.017646
0.0176165
0.0174126
0.0176021
0.0176021
0.0174271
0.0174271
0.0176165
0.0174126
0.0176021
0.0176021
0.0174271
0.0174271
0.0176021
0.0174271
0.0174271
0.0176165
0.0174126
0.0176021
0.0174271
0.0174271
0.0174126
0.0173832
0.0171793
0.0173687
0.0173687
0.0171937
0.0171937
0.0173832
0.0171793
0.0173687
0.0173687
0.0171937
0.0171937
0.0173687
0.0171937
0.0171937
0.0173832
0.0171793
0.0173687
0.0171937
0.0171937
0.0171793
0.0171498
0.016946
0.0171354
0.0171354
0.0169604
0.0169604
0.0171498
0.016946
0.0171354
0.0171354
0.0169604
0.0169604
0.0171354
0.0169604
0.0169604
0.0171498
0.016946
0.0171354
0.0169604
0.0169604
0.016946
0.0169165
0.0167127
0.0169021
0.0169021
0.0167271
0.0167271
0.0169165
0.0167127
0.0169021
0.0169021
0.0167271
0.0167271
0.0169021
0.0167271
0.0167271
0.0169165
0.0167127
0.0169021
0.0167271
0.0167271
0.0167127
0.0166832
0.0164794
0.0166688
0.0166688
0.0164938
0.0164938
0.0166832
0.0164794
0.0166688
0.0166688
0.0164938
0.0164938
0.0166688
0.0164938
0.0164938
0.0166832
0.0164794
0.0166688
0.0164938
0.0164938
0.0164794
0.0164499
0.0162461
0.0164355
0.0164355
0.0162605
0.0162605
0.0164499
0.0162461
0.0164355
0.0164355
0.0162605
0.0162605
0.0164355
0.0162605
0.0162605
0.0164499
0.0162461
0.0164355
0.0162605
0.0162605
0.0162461
0.0162166
0.0160128
0.0162022
0.0162022
0.0160272
0.0160272
0.0162166
0.0160128
0.0162022
0.0162022
0.0160272
0.0160272
0.0162022
0.0160272
0.0160272
0.0162166
0.0160128
0.0162022
0.0160272
0.0160272
0.0160128
0.0159833
0.0157794
0.0159688
0.0159688
0.0157939
0.0157939
0.0159833
0.0157794
0.0159688
0.0159688
0.0157939
0.0157939
0.0159688
0.0157939
0.0157939
0.0159833
0.0157794
0.0159688
0.0157939
0.0157939
0.0157795
0.01575
0.0155461
0.0157355
0.0157355
0.0155606
0.0155606
0.01575
0.0155461
0.0157355
0.0157355
0.0155606
0.0155606
0.0157355
0.0155606
0.0155606
0.01575
0.0155461
0.0157355
0.0155606
0.0155606
0.0155461
0.0155167
0.0153128
0.0155022
0.0155022
0.0153272
0.0153272
0.0155167
0.0153128
0.0155022
0.0155022
0.0153272
0.0153272
0.0155022
0.0153272
0.0153272
0.0155167
0.0153128
0.0155022
0.0153272
0.0153272
0.0153128
0.0152833
0.0150795
0.0152689
0.0152689
0.0150939
0.0150939
0.0152833
0.0150795
0.0152689
0.0152689
0.0150939
0.0150939
0.0152689
0.0150939
0.0150939
0.0152833
0.0150795
0.0152689
0.0150939
0.0150939
0.0150795
0.01505
0.0148462
0.0150356
0.0150356
0.0148606
0.0148606
0.01505
0.0148462
0.0150356
0.0150356
0.0148606
0.0148606
0.0150356
0.0148606
0.0148606
0.01505
0.0148462
0.0150356
0.0148606
0.0148606
0.0148462
0.0148167
0.0146129
0.0148023
0.0148023
0.0146273
0.0146273
0.0148167
0.0146129
0.0148023
0.0148023
0.0146273
0.0146273
0.0148023
0.0146273
0.0146273
0.0148167
0.0146129
0.0148023
0.0146273
0.0146273
0.0146129
0.0145834
0.0143795
0.014569
0.014569
0.014394
0.014394
0.0145834
0.0143795
0.014569
0.014569
0.014394
0.014394
0.014569
0.014394
0.014394
0.0145834
0.0143795
0.014569
0.014394
0.014394
0.0143795
0.0143501
0.0141462
0.0143356
0.0143356
0.0141606
0.0141606
0.0143501
0.0141462
0.0143356
0.0143356
0.0141606
0.0141606
0.0143356
0.0141606
0.0141606
0.0143501
0.0141462
0.0143356
0.0141606
0.0141606
0.0141462
0.0141167
0.0139129
0.0141023
0.0141023
0.0139273
0.0139273
0.0141167
0.0139129
0.0141023
0.0141023
0.0139273
0.0139273
0.0141023
0.0139273
0.0139273
0.0141167
0.0139129
0.0141023
0.0139273
0.0139273
0.0139129
0.0138834
0.0136795
0.0138689
0.0138689
0.0136939
0.0136939
0.0138834
0.0136795
0.0138689
0.0138689
0.0136939
0.0136939
0.0138689
0.0136939
0.0136939
0.0138834
0.0136795
0.0138689
0.0136939
0.0136939
0.0136795
0.01365
0.0134462
0.0136356
0.0136356
0.0134606
0.0134606
0.01365
0.0134462
0.0136356
0.0136356
0.0134606
0.0134606
0.0136356
0.0134606
0.0134606
0.01365
0.0134462
0.0136356
0.0134606
0.0134606
0.0134462
0.0134167
0.0132128
0.0134022
0.0134022
0.0132272
0.0132272
0.0134167
0.0132128
0.0134022
0.0134022
0.0132272
0.0132272
0.0134022
0.0132272
0.0132272
0.0134167
0.0132128
0.0134022
0.0132272
0.0132272
0.0132128
0.0131833
0.0129795
0.0131689
0.0131689
0.0129939
0.0129939
0.0131833
0.0129795
0.0131689
0.0131689
0.0129939
0.0129939
0.0131689
0.0129939
0.0129939
0.0131833
0.0129795
0.0131689
0.0129939
0.0129939
0.0129795
0.01295
0.0127461
0.0129355
0.0129355
0.0127605
0.0127605
0.01295
0.0127461
0.0129355
0.0129355
0.0127605
0.0127605
0.0129355
0.0127605
0.0127605
0.01295
0.0127461
0.0129355
0.0127605
0.0127605
0.0127461
0.0127166
0.0125127
0.0127022
0.0127022
0.0125271
0.0125271
0.0127166
0.0125127
0.0127022
0.0127022
0.0125271
0.0125271
0.0127022
0.0125271
0.0125271
0.0127166
0.0125127
0.0127022
0.0125271
0.0125271
0.0125127
0.0124832
0.0122794
0.0124688
0.0124688
0.0122938
0.0122938
0.0124832
0.0122794
0.0124688
0.0124688
0.0122938
0.0122938
0.0124688
0.0122938
0.0122938
0.0124832
0.0122794
0.0124688
0.0122938
0.0122938
0.0122794
0.0122499
0.012046
0.0122354
0.0122354
0.0120604
0.0120604
0.0122499
0.012046
0.0122354
0.0122354
0.0120604
0.0120604
0.0122354
0.0120604
0.0120604
0.0122499
0.012046
0.0122354
0.0120604
0.0120604
0.012046
0.0120165
0.0118126
0.0120021
0.0120021
0.011827
0.011827
0.0120165
0.0118126
0.0120021
0.0120021
0.011827
0.011827
0.0120021
0.011827
0.011827
0.0120165
0.0118126
0.0120021
0.011827
0.011827
0.0118126
0.0117831
0.0115793
0.0117687
0.0117687
0.0115937
0.0115937
0.0117831
0.0115793
0.0117687
0.0117687
0.0115937
0.0115937
0.0117687
0.0115937
0.0115937
0.0117831
0.0115793
0.0117687
0.0115937
0.0115937
0.0115793
0.0115498
0.0113459
0.0115353
0.0115353
0.0113603
0.0113603
0.0115498
0.0113459
0.0115353
0.0115353
0.0113603
0.0113603
0.0115353
0.0113603
0.0113603
0.0115498
0.0113459
0.0115353
0.0113603
0.0113603
0.0113459
0.0113164
0.0111125
0.011302
0.011302
0.011127
0.011127
0.0113164
0.0111125
0.011302
0.011302
0.011127
0.011127
0.011302
0.011127
0.011127
0.0113164
0.0111125
0.011302
0.011127
0.011127
0.0111125
0.011083
0.0108792
0.0110686
0.0110686
0.0108936
0.0108936
0.0110831
0.0108792
0.0110686
0.0110686
0.0108936
0.0108936
0.0110686
0.0108936
0.0108936
0.011083
0.0108792
0.0110686
0.0108936
0.0108936
0.0108792
0.0108497
0.0106458
0.0108353
0.0108353
0.0106602
0.0106602
0.0108497
0.0106458
0.0108353
0.0108353
0.0106602
0.0106602
0.0108353
0.0106602
0.0106602
0.0108497
0.0106458
0.0108353
0.0106602
0.0106602
0.0106458
0.0106163
0.0104125
0.0106019
0.0106019
0.0104269
0.0104269
0.0106163
0.0104125
0.0106019
0.0106019
0.0104269
0.0104269
0.0106019
0.0104269
0.0104269
0.0106163
0.0104125
0.0106019
0.0104269
0.0104269
0.0104125
0.010383
0.0101792
0.0103686
0.0103686
0.0101936
0.0101936
0.010383
0.0101792
0.0103686
0.0103686
0.0101936
0.0101936
0.0103686
0.0101936
0.0101936
0.010383
0.0101792
0.0103686
0.0101936
0.0101936
0.0101792
0.0101497
0.00994583
0.0101352
0.0101352
0.00996024
0.00996024
0.0101497
0.00994583
0.0101352
0.0101352
0.00996024
0.00996024
0.0101352
0.00996024
0.00996024
0.0101497
0.00994583
0.0101352
0.00996024
0.00996024
0.00994583
0.00991634
0.0097125
0.00990191
0.00990191
0.00972692
0.00972692
0.00991635
0.0097125
0.00990191
0.00990191
0.00972692
0.00972692
0.00990191
0.00972692
0.00972692
0.00991634
0.0097125
0.00990191
0.00972692
0.00972692
0.00971251
0.00968302
0.00947919
0.00966859
0.00966859
0.0094936
0.0094936
0.00968302
0.00947918
0.00966859
0.00966859
0.0094936
0.0094936
0.00966859
0.0094936
0.0094936
0.00968302
0.00947919
0.00966859
0.0094936
0.0094936
0.00947919
0.00944971
0.00924587
0.00943527
0.00943527
0.00926029
0.00926029
0.00944971
0.00924587
0.00943527
0.00943527
0.00926029
0.00926029
0.00943527
0.00926029
0.00926029
0.00944971
0.00924587
0.00943527
0.00926029
0.00926029
0.00924587
0.00921639
0.00901256
0.00920196
0.00920196
0.00902698
0.00902698
0.0092164
0.00901256
0.00920196
0.00920196
0.00902698
0.00902698
0.00920196
0.00902698
0.00902698
0.00921639
0.00901256
0.00920196
0.00902698
0.00902698
0.00901256
0.00898308
0.00877926
0.00896865
0.00896865
0.00879367
0.00879367
0.00898308
0.00877925
0.00896865
0.00896865
0.00879367
0.00879367
0.00896865
0.00879367
0.00879367
0.00898308
0.00877926
0.00896865
0.00879367
0.00879367
0.00877926
0.00874978
0.00854595
0.00873534
0.00873534
0.00856037
0.00856037
0.00874978
0.00854595
0.00873534
0.00873534
0.00856037
0.00856037
0.00873534
0.00856037
0.00856037
0.00874978
0.00854595
0.00873534
0.00856037
0.00856036
0.00854595
0.00851648
0.00831265
0.00850204
0.00850204
0.00832706
0.00832706
0.00851647
0.00831265
0.00850204
0.00850204
0.00832706
0.00832706
0.00850204
0.00832706
0.00832706
0.00851648
0.00831265
0.00850204
0.00832706
0.00832706
0.00831265
0.00828317
0.00807934
0.00826873
0.00826873
0.00809376
0.00809376
0.00828317
0.00807934
0.00826873
0.00826873
0.00809376
0.00809376
0.00826873
0.00809376
0.00809376
0.00828317
0.00807934
0.00826873
0.00809376
0.00809375
0.00807934
0.00804986
0.00784604
0.00803543
0.00803543
0.00786045
0.00786045
0.00804986
0.00784603
0.00803543
0.00803543
0.00786045
0.00786045
0.00803543
0.00786045
0.00786045
0.00804986
0.00784604
0.00803543
0.00786045
0.00786045
0.00784604
0.00781656
0.00761273
0.00780212
0.00780212
0.00762714
0.00762714
0.00781656
0.00761273
0.00780212
0.00780212
0.00762714
0.00762714
0.00780212
0.00762714
0.00762714
0.00781656
0.00761273
0.00780212
0.00762714
0.00762714
0.00761273
0.00758325
0.00737941
0.00756881
0.00756881
0.00739383
0.00739383
0.00758325
0.00737941
0.00756881
0.00756881
0.00739383
0.00739383
0.00756881
0.00739383
0.00739383
0.00758325
0.00737942
0.00756881
0.00739383
0.00739383
0.00737942
0.00734994
0.0071461
0.0073355
0.0073355
0.00716051
0.00716051
0.00734994
0.0071461
0.0073355
0.0073355
0.00716051
0.00716051
0.0073355
0.00716051
0.00716051
0.00734994
0.0071461
0.0073355
0.00716051
0.00716051
0.0071461
0.00711662
0.00691278
0.00710218
0.00710218
0.00692719
0.00692719
0.00711662
0.00691278
0.00710218
0.00710218
0.00692719
0.00692719
0.00710218
0.00692719
0.00692719
0.00711662
0.00691278
0.00710218
0.00692719
0.00692719
0.00691278
0.0068833
0.00667945
0.00686886
0.00686886
0.00669387
0.00669387
0.0068833
0.00667945
0.00686886
0.00686886
0.00669387
0.00669387
0.00686886
0.00669387
0.00669387
0.0068833
0.00667945
0.00686886
0.00669387
0.00669387
0.00667946
0.00664997
0.00644612
0.00663554
0.00663554
0.00646054
0.00646054
0.00664997
0.00644612
0.00663554
0.00663554
0.00646054
0.00646054
0.00663554
0.00646054
0.00646054
0.00664997
0.00644612
0.00663554
0.00646054
0.00646054
0.00644612
0.00641664
0.00621279
0.0064022
0.0064022
0.0062272
0.0062272
0.00641664
0.00621279
0.0064022
0.0064022
0.0062272
0.00622721
0.0064022
0.00622721
0.00622721
0.00641664
0.00621279
0.0064022
0.00622721
0.0062272
0.00621279
0.00618331
0.00597945
0.00616887
0.00616887
0.00599387
0.00599387
0.00618331
0.00597945
0.00616887
0.00616887
0.00599387
0.00599387
0.00616887
0.00599387
0.00599386
0.00618331
0.00597945
0.00616887
0.00599387
0.00599386
0.00597945
0.00594997
0.00574611
0.00593553
0.00593553
0.00576053
0.00576053
0.00594997
0.00574611
0.00593553
0.00593553
0.00576053
0.00576053
0.00593553
0.00576053
0.00576053
0.00594997
0.00574611
0.00593553
0.00576053
0.00576053
0.00574611
0.00571663
0.00551276
0.00570219
0.00570219
0.00552718
0.00552718
0.00571663
0.00551276
0.00570219
0.00570219
0.00552718
0.00552718
0.00570219
0.00552718
0.00552718
0.00571663
0.00551276
0.00570219
0.00552718
0.00552718
0.00551276
0.00548328
0.00527942
0.00546884
0.00546884
0.00529383
0.00529383
0.00548328
0.00527942
0.00546884
0.00546884
0.00529383
0.00529383
0.00546884
0.00529383
0.00529383
0.00548328
0.00527942
0.00546884
0.00529383
0.00529383
0.00527942
0.00524993
0.00504606
0.0052355
0.00523549
0.00506048
0.00506048
0.00524993
0.00504606
0.0052355
0.0052355
0.00506048
0.00506048
0.00523549
0.00506048
0.00506048
0.00524993
0.00504607
0.00523549
0.00506048
0.00506048
0.00504607
0.00501658
0.00481272
0.00500214
0.00500214
0.00482713
0.00482713
0.00501658
0.00481271
0.00500214
0.00500214
0.00482713
0.00482713
0.00500214
0.00482713
0.00482713
0.00501658
0.00481272
0.00500214
0.00482713
0.00482713
0.00481272
0.00478323
0.00457936
0.0047688
0.00476879
0.00459378
0.00459378
0.00478323
0.00457936
0.0047688
0.0047688
0.00459378
0.00459378
0.00476879
0.00459378
0.00459378
0.00478323
0.00457936
0.00476879
0.00459378
0.00459378
0.00457936
0.00454988
0.00434601
0.00453544
0.00453544
0.00436042
0.00436042
0.00454988
0.00434601
0.00453544
0.00453544
0.00436042
0.00436043
0.00453544
0.00436042
0.00436042
0.00454988
0.00434601
0.00453544
0.00436042
0.00436042
0.00434601
0.00431652
0.00411266
0.00430209
0.00430209
0.00412708
0.00412708
0.00431653
0.00411266
0.00430209
0.00430209
0.00412708
0.00412708
0.00430209
0.00412708
0.00412708
0.00431653
0.00411266
0.00430209
0.00412708
0.00412708
0.00411266
0.00408318
0.00387931
0.00406874
0.00406874
0.00389372
0.00389372
0.00408318
0.0038793
0.00406874
0.00406874
0.00389372
0.00389372
0.00406874
0.00389372
0.00389372
0.00408318
0.00387931
0.00406874
0.00389372
0.00389372
0.0038793
0.00384982
0.00364596
0.00383538
0.00383538
0.00366037
0.00366037
0.00384982
0.00364596
0.00383538
0.00383538
0.00366037
0.00366038
0.00383538
0.00366037
0.00366037
0.00384982
0.00364596
0.00383538
0.00366037
0.00366037
0.00364596
0.00361648
0.00341262
0.00360204
0.00360204
0.00342703
0.00342703
0.00361648
0.00341262
0.00360204
0.00360204
0.00342703
0.00342703
0.00360204
0.00342703
0.00342703
0.00361648
0.00341262
0.00360204
0.00342703
0.00342703
0.00341262
0.00338313
0.00317927
0.0033687
0.0033687
0.00319368
0.00319368
0.00338313
0.00317926
0.0033687
0.0033687
0.00319368
0.00319368
0.0033687
0.00319368
0.00319368
0.00338313
0.00317927
0.0033687
0.00319368
0.00319368
0.00317927
0.00314978
0.00294592
0.00313535
0.00313534
0.00296034
0.00296034
0.00314978
0.00294592
0.00313534
0.00313535
0.00296034
0.00296034
0.00313534
0.00296034
0.00296034
0.00314978
0.00294592
0.00313534
0.00296034
0.00296034
0.00294592
0.00291644
0.0027126
0.00290201
0.00290201
0.00272701
0.00272701
0.00291644
0.0027126
0.00290201
0.00290201
0.00272701
0.00272701
0.00290201
0.00272701
0.00272701
0.00291644
0.0027126
0.00290201
0.00272701
0.00272701
0.0027126
0.00268311
0.00247925
0.00266868
0.00266868
0.00249367
0.00249367
0.00268311
0.00247925
0.00266868
0.00266868
0.00249367
0.00249367
0.00266868
0.00249367
0.00249367
0.00268311
0.00247925
0.00266868
0.00249367
0.00249367
0.00247925
0.00244977
0.0022459
0.00243533
0.00243533
0.00226032
0.00226032
0.00244977
0.0022459
0.00243533
0.00243533
0.00226032
0.00226032
0.00243533
0.00226032
0.00226032
0.00244977
0.00224591
0.00243533
0.00226032
0.00226032
0.0022459
0.00221642
0.00201258
0.00220199
0.00220199
0.00202699
0.00202699
0.00221642
0.00201258
0.00220199
0.00220199
0.00202699
0.00202699
0.00220199
0.00202699
0.00202699
0.00221642
0.00201258
0.00220199
0.00202699
0.00202699
0.00201258
0.0019831
0.00177927
0.00196866
0.00196866
0.00179368
0.00179368
0.0019831
0.00177926
0.00196866
0.00196866
0.00179368
0.00179368
0.00196866
0.00179368
0.00179368
0.0019831
0.00177927
0.00196866
0.00179368
0.00179368
0.00177927
0.00174979
0.00154594
0.00173535
0.00173535
0.00156035
0.00156035
0.00174978
0.00154593
0.00173535
0.00173535
0.00156035
0.00156035
0.00173535
0.00156035
0.00156035
0.00174979
0.00154594
0.00173535
0.00156035
0.00156035
0.00154594
0.00151645
0.00131259
0.00150202
0.00150201
0.001327
0.001327
0.00151645
0.00131259
0.00150202
0.00150202
0.001327
0.001327
0.00150201
0.001327
0.001327
0.00151645
0.00131259
0.00150201
0.001327
0.001327
0.00131259
0.0012831
0.00107924
0.00126867
0.00126867
0.00109366
0.00109366
0.0012831
0.00107924
0.00126867
0.00126867
0.00109366
0.00109366
0.00126867
0.00109366
0.00109366
0.0012831
0.00107924
0.00126866
0.00109366
0.00109366
0.00107924
0.00104976
0.000845894
0.00103532
0.00103532
0.00086031
0.000860311
0.00104976
0.000845894
0.00103532
0.00103532
0.000860311
0.000860311
0.00103532
0.000860311
0.000860311
0.00104976
0.000845895
0.00103532
0.000860311
0.000860311
0.000845896
0.000816412
0.000612563
0.000801975
0.000801975
0.00062698
0.000626981
0.000816412
0.000612565
0.000801976
0.000801975
0.00062698
0.00062698
0.000801975
0.000626981
0.000626982
0.000816411
0.000612566
0.000801975
0.00062698
0.000626981
0.000612567
0.000583085
0.000379341
0.000568653
0.000568655
0.000393769
0.000393768
0.000583085
0.000379342
0.000568654
0.000568654
0.000393768
0.000393765
0.000568655
0.000393769
0.000393766
0.000583086
0.000379337
0.000568654
0.000393768
0.000393769
0.00037934
0.000349837
0.000148726
0.000335594
0.000335593
0.000162937
0.000162934
0.000349841
0.000148726
0.000335591
0.000335585
0.000162931
0.000162927
0.000335587
0.000162936
0.000162932
0.000349823
0.000148721
0.000335592
0.000162928
0.000162929
0.000148723
0.000121245
0.00012015
0.000120146
0.000121245
0.000120144
0.000120144
0.000107591
0.000107588
0.000107589
0.000120149
0.000121242
0.000120144
0.0221239
0.0221651
0.0221425
0.0221425
0.0222268
0.0221812
0.0222966
0.0221556
0.0222269
0.0221812
0.0221556
0.0222966
0.0221996
0.0223159
0.0223159
0.0219629
0.0220665
0.0220627
0.0219621
0.0219764
0.02196
0.0219629
0.0220665
0.0220627
0.021962
0.0220374
0.0220374
0.0220374
0.0218605
0.0218605
0.0218605
0.0218605
0.0219639
0.0220621
0.0220391
0.0219783
0.02206
0.0219631
0.0219781
0.0219765
0.02196
0.0219639
0.0220391
0.0220621
0.0219783
0.02206
0.0219781
0.0219631
0.0220611
0.0220611
0.0219643
0.0219626
0.0219626
0.0217294
0.0218168
0.0218169
0.0217294
0.0218168
0.0217293
0.0217294
0.0218168
0.0218169
0.0217294
0.0218021
0.0218021
0.0218021
0.0216272
0.0216272
0.0216272
0.0216272
0.0217297
0.0218166
0.0218021
0.0217438
0.0218165
0.0217298
0.0217438
0.0218168
0.0217293
0.0217297
0.0218021
0.0218166
0.0217438
0.0218165
0.0217438
0.0217298
0.0218168
0.0218168
0.0217294
0.0217294
0.0217294
0.021496
0.0215834
0.0215834
0.021496
0.0215834
0.021496
0.021496
0.0215834
0.0215834
0.021496
0.0215688
0.0215688
0.0215688
0.0213938
0.0213938
0.0213938
0.0213938
0.0214963
0.021583
0.0215688
0.0215105
0.021583
0.0214964
0.0215105
0.0215834
0.021496
0.0214963
0.0215688
0.021583
0.0215105
0.021583
0.0215105
0.0214964
0.0215834
0.0215834
0.0214961
0.021496
0.021496
0.0212626
0.02135
0.02135
0.0212626
0.02135
0.0212626
0.0212627
0.02135
0.02135
0.0212626
0.0213355
0.0213355
0.0213355
0.0211605
0.0211605
0.0211605
0.0211605
0.021263
0.0213496
0.0213355
0.0212771
0.0213497
0.021263
0.0212772
0.02135
0.0212626
0.021263
0.0213355
0.0213496
0.0212771
0.0213497
0.0212772
0.021263
0.02135
0.02135
0.0212627
0.0212626
0.0212626
0.0210293
0.0211167
0.0211167
0.0210293
0.0211167
0.0210293
0.0210293
0.0211167
0.0211167
0.0210293
0.0211022
0.0211022
0.0211022
0.0209272
0.0209272
0.0209272
0.0209272
0.0210296
0.0211163
0.0211021
0.0210438
0.0211163
0.0210297
0.0210438
0.0211167
0.0210293
0.0210296
0.0211021
0.0211163
0.0210438
0.0211163
0.0210438
0.0210297
0.0211167
0.0211167
0.0210294
0.0210293
0.0210293
0.020796
0.0208834
0.0208833
0.020796
0.0208834
0.0207959
0.020796
0.0208834
0.0208833
0.020796
0.0208688
0.0208688
0.0208688
0.0206938
0.0206938
0.0206938
0.0206938
0.0207963
0.020883
0.0208688
0.0208105
0.020883
0.0207964
0.0208105
0.0208834
0.020796
0.0207963
0.0208688
0.0208829
0.0208105
0.020883
0.0208105
0.0207964
0.0208833
0.0208833
0.0207961
0.020796
0.020796
0.0205626
0.02065
0.02065
0.0205626
0.02065
0.0205626
0.0205626
0.02065
0.02065
0.0205626
0.0206355
0.0206355
0.0206355
0.0204605
0.0204605
0.0204605
0.0204605
0.020563
0.0206496
0.0206355
0.0205771
0.0206497
0.020563
0.0205771
0.02065
0.0205626
0.020563
0.0206355
0.0206496
0.0205771
0.0206497
0.0205771
0.020563
0.02065
0.02065
0.0205627
0.0205626
0.0205626
0.0203293
0.0204167
0.0204167
0.0203293
0.0204167
0.0203293
0.0203293
0.0204167
0.0204167
0.0203293
0.0204022
0.0204022
0.0204022
0.0202272
0.0202272
0.0202272
0.0202272
0.0203296
0.0204163
0.0204021
0.0203438
0.0204163
0.0203297
0.0203438
0.0204167
0.0203293
0.0203296
0.0204021
0.0204163
0.0203438
0.0204163
0.0203438
0.0203297
0.0204167
0.0204167
0.0203294
0.0203293
0.0203293
0.020096
0.0201833
0.0201833
0.0200959
0.0201833
0.0200959
0.020096
0.0201833
0.0201833
0.0200959
0.0201688
0.0201688
0.0201688
0.0199938
0.0199938
0.0199938
0.0199938
0.0200963
0.0201829
0.0201688
0.0201105
0.020183
0.0200963
0.0201105
0.0201833
0.0200959
0.0200963
0.0201688
0.0201829
0.0201105
0.020183
0.0201105
0.0200963
0.0201833
0.0201833
0.020096
0.0200959
0.020096
0.0198626
0.01995
0.01995
0.0198626
0.01995
0.0198626
0.0198626
0.01995
0.01995
0.0198626
0.0199355
0.0199355
0.0199355
0.0197605
0.0197605
0.0197605
0.0197605
0.0198629
0.0199496
0.0199355
0.0198771
0.0199496
0.019863
0.0198771
0.01995
0.0198626
0.0198629
0.0199355
0.0199496
0.0198771
0.0199496
0.0198771
0.019863
0.01995
0.01995
0.0198627
0.0198626
0.0198626
0.0196293
0.0197166
0.0197166
0.0196292
0.0197167
0.0196292
0.0196293
0.0197166
0.0197166
0.0196292
0.0197021
0.0197021
0.0197021
0.0195271
0.0195271
0.0195271
0.0195271
0.0196296
0.0197162
0.0197021
0.0196438
0.0197163
0.0196296
0.0196438
0.0197167
0.0196292
0.0196296
0.0197021
0.0197162
0.0196438
0.0197163
0.0196438
0.0196296
0.0197166
0.0197166
0.0196293
0.0196293
0.0196293
0.0193959
0.0194833
0.0194833
0.0193959
0.0194833
0.0193959
0.0193959
0.0194833
0.0194833
0.0193959
0.0194688
0.0194688