/*--------------------------------*- C++ -*----------------------------------*\
| =========                 |                                                 |
| \\      /  F ield         | OpenFOAM: The Open Source CFD Toolbox           |
|  \\    /   O peration     | Version:  v1906                                 |
|   \\  /    A nd           | Web:      www.OpenFOAM.com                      |
|    \\/     M anipulation  |                                                 |
\*---------------------------------------------------------------------------*/
FoamFile
{
    version     2.0;
    format      ascii;
    class       volScalarField;
    location    "1000";
    object      epsilon;
}
// * * * * * * * * * * * * * * * * * * * * * * * * * * * * * * * * * * * * * //

dimensions      [0 2 -3 0 0 0 0];


internalField   nonuniform List<scalar> 
43248
(
1.14868e-06
8.63033e-07
8.63005e-07
1.14836e-06
8.62779e-07
8.63061e-07
8.62831e-07
8.63059e-07
1.14832e-06
8.6294e-07
8.62923e-07
1.14807e-06
3.19686e-07
3.19678e-07
3.19764e-07
3.19766e-07
1.84275e-05
1.84292e-05
5.46249e-06
5.46363e-06
4.09178e-06
9.16119e-06
4.09337e-06
4.09168e-06
9.16229e-06
9.15557e-06
4.09394e-06
2.10227e-06
3.47501e-06
5.58205e-07
5.52306e-07
2.10685e-06
2.10235e-06
8.5693e-07
3.4749e-06
5.58238e-07
3.47219e-06
5.52351e-07
2.1069e-06
1.84288e-05
1.84185e-05
1.14421e-06
5.46369e-06
5.46195e-06
5.46133e-06
5.45938e-06
1.84262e-05
1.84158e-05
9.16288e-06
4.09366e-06
3.47517e-06
5.58277e-07
2.107e-06
9.16251e-06
4.09389e-06
5.583e-07
3.47546e-06
2.10697e-06
2.10238e-06
8.56756e-07
3.47496e-06
5.58213e-07
3.47162e-06
5.52323e-07
2.10701e-06
4.09191e-06
9.16208e-06
9.1554e-06
4.09381e-06
2.10231e-06
8.56974e-07
5.58279e-07
3.4751e-06
5.52387e-07
3.47144e-06
2.10697e-06
4.09182e-06
9.16213e-06
9.15508e-06
4.0938e-06
1.84297e-05
5.46381e-06
5.46217e-06
1.84282e-05
2.10243e-06
5.58337e-07
3.47476e-06
5.52431e-07
2.10703e-06
2.10245e-06
8.56845e-07
5.58334e-07
3.47519e-06
5.52447e-07
3.47234e-06
2.1071e-06
4.09161e-06
9.16237e-06
4.09397e-06
4.09192e-06
9.16308e-06
9.15634e-06
4.09387e-06
1.14444e-06
5.46225e-06
5.46412e-06
5.45941e-06
5.46131e-06
1.84281e-05
1.84178e-05
1.843e-05
1.84197e-05
1.84224e-05
1.84245e-05
4.53794e-06
2.81206e-06
5.46168e-06
9.50099e-06
9.49656e-06
2.81012e-06
4.54086e-06
4.54441e-06
2.81132e-06
5.46351e-06
9.50387e-06
9.50091e-06
2.81218e-06
4.54287e-06
9.73619e-06
2.17309e-05
2.17287e-05
2.17241e-05
2.17229e-05
9.73573e-06
1.22033e-05
1.08244e-05
4.74431e-06
4.09185e-06
1.22007e-05
1.08265e-05
4.7443e-06
2.2054e-05
9.1585e-06
7.08846e-06
7.089e-06
2.20609e-05
1.22041e-05
4.09361e-06
1.08296e-05
4.7459e-06
1.08276e-05
4.74595e-06
1.22066e-05
1.22036e-05
1.08241e-05
4.74447e-06
4.09205e-06
1.22006e-05
1.0827e-05
4.74475e-06
2.20545e-05
9.1593e-06
7.09018e-06
7.09055e-06
2.20611e-05
2.20564e-05
7.08956e-06
9.15819e-06
2.20499e-05
7.08917e-06
1.2204e-05
4.09358e-06
1.08303e-05
4.74636e-06
1.08272e-05
4.746e-06
1.2207e-05
1.84238e-05
1.84234e-05
9.73343e-06
2.17175e-05
2.17182e-05
9.73384e-06
2.17238e-05
2.17245e-05
4.54462e-06
2.81249e-06
5.46367e-06
9.50403e-06
2.81147e-06
9.5011e-06
4.54458e-06
4.53843e-06
2.81131e-06
5.46169e-06
9.49939e-06
9.49645e-06
2.81024e-06
4.53887e-06
4.54207e-06
9.49639e-06
2.80826e-06
5.46136e-06
2.80923e-06
4.54199e-06
9.49938e-06
4.53625e-06
9.49174e-06
2.80704e-06
5.45961e-06
4.53579e-06
9.49474e-06
2.80805e-06
9.73581e-06
2.17288e-05
2.17295e-05
2.17225e-05
2.17232e-05
9.73545e-06
1.84212e-05
1.84208e-05
2.20542e-05
9.16028e-06
7.09005e-06
7.09039e-06
2.20608e-05
1.22044e-05
4.09385e-06
4.74597e-06
1.08302e-05
4.7462e-06
1.08282e-05
1.22072e-05
2.20542e-05
9.15955e-06
7.08863e-06
7.08913e-06
2.20611e-05
1.22043e-05
4.09362e-06
1.083e-05
4.74613e-06
1.0828e-05
4.74593e-06
1.22073e-05
1.22028e-05
4.74437e-06
1.08245e-05
4.09184e-06
1.22003e-05
4.74424e-06
1.08266e-05
2.2053e-05
9.15918e-06
7.08959e-06
7.08996e-06
2.20596e-05
2.2055e-05
7.08897e-06
9.158e-06
2.20484e-05
7.08859e-06
1.22037e-05
4.09378e-06
4.74593e-06
1.08297e-05
4.74601e-06
1.08277e-05
1.22062e-05
1.22034e-05
1.08244e-05
4.74407e-06
4.09178e-06
1.22006e-05
1.08264e-05
4.74446e-06
2.20537e-05
9.15909e-06
7.08823e-06
7.0886e-06
2.20603e-05
2.20557e-05
7.08761e-06
9.15808e-06
2.20491e-05
7.08722e-06
1.2204e-05
4.09367e-06
1.08296e-05
4.74601e-06
1.08276e-05
4.74574e-06
1.22067e-05
1.84246e-05
4.54493e-06
2.81227e-06
5.46353e-06
9.50453e-06
2.81177e-06
9.50083e-06
4.54496e-06
4.53899e-06
2.8112e-06
5.46187e-06
9.49991e-06
9.49623e-06
2.81069e-06
4.53907e-06
9.73671e-06
2.173e-05
2.17304e-05
2.17237e-05
2.17241e-05
9.73632e-06
1.84233e-05
1.22038e-05
4.74415e-06
1.08246e-05
4.09216e-06
1.22008e-05
4.74439e-06
1.08275e-05
2.20543e-05
9.15939e-06
7.08831e-06
7.08865e-06
2.20609e-05
2.20562e-05
7.08728e-06
1.22041e-05
4.09362e-06
4.746e-06
1.08307e-05
4.74577e-06
1.08277e-05
1.22073e-05
1.22034e-05
4.74453e-06
1.08251e-05
4.09211e-06
1.22007e-05
4.74465e-06
1.08271e-05
2.20539e-05
9.16053e-06
7.09001e-06
7.09051e-06
2.20607e-05
2.20562e-05
7.08952e-06
9.15928e-06
2.20493e-05
7.08901e-06
1.22042e-05
4.09371e-06
4.74621e-06
1.08303e-05
4.74621e-06
1.08282e-05
1.22068e-05
9.73404e-06
2.1719e-05
2.17183e-05
9.73443e-06
2.17252e-05
2.17245e-05
4.53887e-06
2.81145e-06
5.46174e-06
9.49999e-06
2.81052e-06
9.49631e-06
4.53882e-06
4.54468e-06
2.81266e-06
5.46366e-06
9.5044e-06
2.8117e-06
9.50146e-06
4.54512e-06
4.5363e-06
9.49164e-06
2.8074e-06
5.4599e-06
4.53624e-06
2.80801e-06
9.49524e-06
4.54249e-06
9.49674e-06
2.80859e-06
5.46179e-06
4.54209e-06
2.80924e-06
9.49975e-06
9.73641e-06
2.17303e-05
2.17296e-05
2.1724e-05
2.17233e-05
9.73604e-06
1.84232e-05
1.84227e-05
1.84251e-05
1.84246e-05
2.66791e-06
1.14913e-06
1.76886e-06
1.76764e-06
1.76726e-06
1.76804e-06
2.66862e-06
2.66788e-06
1.14924e-06
1.76834e-06
1.76814e-06
1.76786e-06
1.76766e-06
2.66854e-06
2.66832e-06
1.14952e-06
1.7676e-06
1.76759e-06
1.76817e-06
1.76801e-06
2.66817e-06
2.66832e-06
1.14938e-06
1.76746e-06
1.76774e-06
1.76786e-06
1.76809e-06
2.66812e-06
1.6659e-07
1.66572e-07
1.64479e-07
7.93904e-08
7.99324e-08
3.15737e-07
1.6659e-07
1.66543e-07
1.64478e-07
1.64433e-07
7.93867e-08
7.99283e-08
1.66635e-07
1.66608e-07
1.64493e-07
7.94066e-08
7.99495e-08
3.15822e-07
1.66623e-07
1.66604e-07
1.64509e-07
1.64492e-07
7.94044e-08
7.99473e-08
1.40972e-06
2.36156e-06
1.27443e-06
2.10321e-06
1.41211e-06
2.36239e-06
1.27306e-06
1.61816e-06
2.03185e-06
3.47468e-06
2.85995e-06
2.03212e-06
2.85969e-06
1.61581e-06
1.41657e-06
2.10592e-06
2.36576e-06
1.27809e-06
2.36495e-06
1.27973e-06
1.41498e-06
1.40995e-06
2.36184e-06
1.27449e-06
2.10327e-06
1.41232e-06
2.36267e-06
1.27312e-06
1.61861e-06
2.03244e-06
3.47511e-06
2.86058e-06
2.86042e-06
2.03242e-06
1.616e-06
1.61195e-06
2.85745e-06
2.028e-06
3.47228e-06
1.61374e-06
2.85766e-06
2.02802e-06
1.41673e-06
2.10601e-06
2.36601e-06
1.27814e-06
2.36521e-06
1.27979e-06
1.41512e-06
2.66531e-06
1.14327e-06
1.76374e-06
1.76344e-06
1.76402e-06
2.66435e-06
1.76383e-06
1.61709e-06
2.03257e-06
3.47532e-06
2.86082e-06
2.03197e-06
2.86007e-06
1.61737e-06
1.41596e-06
2.10609e-06
2.36603e-06
1.27965e-06
2.36514e-06
1.27892e-06
1.41586e-06
1.61698e-06
2.03285e-06
3.47504e-06
2.86004e-06
2.8598e-06
2.03178e-06
1.61729e-06
1.41565e-06
2.106e-06
1.27962e-06
2.36587e-06
1.27888e-06
2.36496e-06
1.41572e-06
1.41057e-06
2.36175e-06
1.27345e-06
2.10331e-06
1.41143e-06
2.36258e-06
1.2741e-06
1.6173e-06
2.03235e-06
3.47443e-06
2.86027e-06
2.03166e-06
2.86006e-06
1.61746e-06
1.61293e-06
2.85705e-06
2.02741e-06
3.47203e-06
1.61271e-06
2.02837e-06
2.85761e-06
1.41653e-06
2.10602e-06
2.36597e-06
1.27951e-06
2.36516e-06
1.27878e-06
1.41592e-06
1.41096e-06
1.2734e-06
2.36167e-06
2.10329e-06
1.41081e-06
1.27422e-06
2.36248e-06
1.61714e-06
2.03237e-06
3.47454e-06
2.8604e-06
2.85966e-06
2.03163e-06
1.61741e-06
1.61283e-06
2.8567e-06
2.02755e-06
3.47222e-06
1.61238e-06
2.85736e-06
2.02835e-06
1.41589e-06
2.10597e-06
1.2795e-06
2.36585e-06
1.27875e-06
2.36501e-06
1.41592e-06
1.41116e-06
1.27348e-06
2.36176e-06
2.10338e-06
1.41105e-06
1.27427e-06
2.36252e-06
1.61702e-06
2.03241e-06
3.47468e-06
2.86036e-06
2.03163e-06
2.85975e-06
1.61733e-06
1.61271e-06
2.85709e-06
1.41603e-06
2.10609e-06
1.27957e-06
2.36592e-06
1.27878e-06
2.36509e-06
1.41619e-06
1.41109e-06
1.27354e-06
2.3619e-06
2.10342e-06
1.41096e-06
1.27438e-06
2.3627e-06
1.61735e-06
2.03272e-06
3.47523e-06
2.86057e-06
2.86042e-06
2.03204e-06
1.6176e-06
1.61303e-06
2.85744e-06
2.02807e-06
3.47254e-06
1.61259e-06
2.85765e-06
2.02868e-06
1.41603e-06
2.10613e-06
1.27963e-06
2.36607e-06
1.27888e-06
2.36525e-06
1.41605e-06
2.66497e-06
1.14329e-06
1.76356e-06
1.7638e-06
2.66487e-06
1.76357e-06
1.76383e-06
1.3348e-07
2.30065e-07
2.30105e-07
3.57042e-07
3.51623e-07
2.27839e-07
2.27859e-07
3.51066e-07
2.2778e-07
2.27885e-07
2.27747e-07
2.27833e-07
3.51251e-07
2.2779e-07
2.27786e-07
3.51884e-07
3.57518e-07
3.76973e-07
2.30117e-07
2.30174e-07
2.37899e-07
2.37914e-07
3.57491e-07
3.77134e-07
2.30136e-07
2.30196e-07
2.37802e-07
2.37937e-07
2.30143e-07
2.37794e-07
2.37875e-07
3.57711e-07
3.76932e-07
2.30099e-07
2.37832e-07
2.37827e-07
3.77289e-07
1.3415e-07
1.34148e-07
1.34159e-07
1.34153e-07
3.68075e-06
8.90926e-06
3.65241e-06
8.91394e-06
1.84692e-05
1.84612e-05
3.68115e-06
8.91082e-06
3.65252e-06
8.91623e-06
1.33476e-07
1.33486e-07
1.33479e-07
1.31775e-07
1.31776e-07
1.31787e-07
1.31779e-07
1.15755e-06
2.79798e-06
1.58217e-07
2.32512e-07
1.12944e-06
2.82276e-06
1.58428e-07
1.84707e-05
1.84628e-05
1.15782e-06
1.58224e-07
2.7993e-06
2.32549e-07
1.1293e-06
1.58436e-07
2.82139e-06
5.13687e-06
5.13872e-06
3.6416e-07
5.14652e-06
5.14844e-06
1.84752e-05
1.84836e-05
1.84773e-05
1.84856e-05
3.45477e-07
5.12778e-06
5.12993e-06
5.11697e-06
5.11864e-06
3.60368e-06
8.90813e-06
8.90334e-06
3.6351e-06
3.6031e-06
8.90955e-06
8.90391e-06
3.63525e-06
1.0873e-06
2.25623e-07
2.7846e-06
1.58108e-07
2.76129e-06
1.58066e-07
1.11437e-06
1.08693e-06
2.25675e-07
2.78512e-06
1.58123e-07
2.76156e-06
1.58083e-07
1.11503e-06
1.84763e-05
1.84846e-05
3.45608e-07
5.13129e-06
5.12929e-06
5.11713e-06
5.11543e-06
1.84748e-05
1.84832e-05
3.60375e-06
8.9104e-06
8.90475e-06
3.6356e-06
1.08725e-06
2.25633e-07
2.78522e-06
1.58113e-07
2.76167e-06
1.58072e-07
1.11473e-06
3.60374e-06
8.90985e-06
8.90419e-06
3.6355e-06
1.08741e-06
2.25694e-07
1.58118e-07
2.78665e-06
1.58077e-07
2.76018e-06
1.11449e-06
1.08681e-06
2.25562e-07
2.78617e-06
1.58112e-07
2.75975e-06
1.58068e-07
1.11519e-06
3.60366e-06
8.90941e-06
8.90468e-06
3.63563e-06
1.08649e-06
2.25643e-07
1.58114e-07
2.78619e-06
1.58074e-07
2.75973e-06
1.11523e-06
3.60273e-06
8.90903e-06
8.90424e-06
3.63535e-06
1.84778e-05
1.84861e-05
3.45703e-07
5.1297e-06
5.12812e-06
5.11869e-06
5.11708e-06
1.84762e-05
1.84846e-05
1.08666e-06
2.25606e-07
1.58115e-07
2.78473e-06
1.58074e-07
2.76111e-06
1.11545e-06
1.08704e-06
2.25598e-07
1.58107e-07
2.78526e-06
1.58066e-07
2.76176e-06
1.1151e-06
3.60289e-06
8.9095e-06
8.90387e-06
3.63567e-06
3.60372e-06
8.9105e-06
8.90489e-06
3.63563e-06
3.44886e-07
5.12807e-06
5.12997e-06
5.11705e-06
5.11892e-06
1.84762e-05
1.84846e-05
1.84776e-05
1.84859e-05
1.84682e-05
1.84602e-05
1.84702e-05
1.84622e-05
5.13686e-06
5.13841e-06
3.6381e-07
5.14696e-06
5.14835e-06
1.84459e-05
1.84533e-05
1.84475e-05
1.84553e-05
3.69944e-07
5.1638e-06
5.16484e-06
5.15431e-06
5.15641e-06
3.68091e-06
8.90999e-06
3.65251e-06
8.91539e-06
1.15713e-06
2.79915e-06
1.58213e-07
2.32602e-07
1.12972e-06
2.8211e-06
1.5842e-07
1.15797e-06
2.79949e-06
1.58235e-07
2.32621e-07
1.12949e-06
2.82168e-06
1.58436e-07
3.69641e-06
8.91951e-06
8.91506e-06
3.72151e-06
3.69652e-06
8.92085e-06
8.91577e-06
3.72174e-06
1.17206e-06
2.35136e-07
2.85606e-06
1.59081e-07
2.83523e-06
1.58717e-07
1.19933e-06
1.17171e-06
2.35204e-07
2.85644e-06
1.59098e-07
2.8356e-06
1.58732e-07
1.19989e-06
5.13719e-06
5.13536e-06
3.63399e-07
5.14963e-06
5.14772e-06
1.84677e-05
1.84598e-05
1.84468e-05
1.84544e-05
3.69985e-07
5.16663e-06
5.16438e-06
5.15523e-06
5.15345e-06
1.84453e-05
1.84529e-05
1.15716e-06
2.79952e-06
1.58222e-07
2.32533e-07
1.12982e-06
2.82169e-06
1.58429e-07
3.68102e-06
8.91028e-06
3.6525e-06
8.91568e-06
1.15715e-06
1.58231e-07
2.79875e-06
2.32647e-07
1.12984e-06
1.58433e-07
2.82334e-06
3.69652e-06
8.92166e-06
8.91662e-06
3.72188e-06
1.17233e-06
2.35165e-07
2.85627e-06
1.59095e-07
2.83564e-06
1.58719e-07
1.19931e-06
3.69647e-06
8.92113e-06
8.91603e-06
3.7217e-06
1.17226e-06
2.35224e-07
1.59096e-07
2.85798e-06
1.58727e-07
2.83472e-06
1.19934e-06
3.6813e-06
8.91052e-06
3.65265e-06
8.91521e-06
1.15778e-06
1.58225e-07
2.79821e-06
2.32592e-07
1.12934e-06
1.58429e-07
2.82281e-06
3.68101e-06
8.91014e-06
3.65241e-06
8.91485e-06
1.17195e-06
2.35084e-07
2.85723e-06
1.5909e-07
2.83393e-06
1.58719e-07
1.19977e-06
3.69646e-06
8.92068e-06
8.91629e-06
3.72273e-06
1.17184e-06
2.35166e-07
1.5909e-07
2.85565e-06
1.58721e-07
2.83432e-06
1.19995e-06
3.69657e-06
8.92032e-06
8.91592e-06
3.72179e-06
5.13865e-06
5.13671e-06
3.63397e-07
5.14815e-06
5.14648e-06
1.84691e-05
1.84611e-05
1.84483e-05
1.84559e-05
3.70303e-07
5.16599e-06
5.16361e-06
5.15663e-06
5.1547e-06
1.84466e-05
1.84543e-05
1.15797e-06
1.58218e-07
2.7997e-06
2.3255e-07
1.12964e-06
1.58422e-07
2.82179e-06
3.68119e-06
8.90994e-06
3.65238e-06
8.91535e-06
3.68122e-06
8.91096e-06
3.6526e-06
8.91636e-06
1.17183e-06
2.35126e-07
1.591e-07
2.85608e-06
1.5872e-07
2.83531e-06
1.19988e-06
1.17181e-06
2.35118e-07
1.59084e-07
2.85656e-06
1.58715e-07
2.83579e-06
1.20017e-06
3.6965e-06
8.92081e-06
8.91573e-06
3.72195e-06
3.69652e-06
8.92184e-06
8.91675e-06
3.72203e-06
1.84692e-05
1.84611e-05
1.84705e-05
1.84626e-05
3.69293e-07
5.16362e-06
5.16554e-06
5.15477e-06
5.15663e-06
1.84466e-05
1.84543e-05
1.84481e-05
1.84557e-05
1.21311e-05
3.67502e-06
1.06754e-05
4.49175e-06
1.0672e-05
4.48658e-06
1.21341e-05
2.24357e-05
7.21554e-06
8.91109e-06
2.24341e-05
7.21505e-06
1.21308e-05
3.65884e-06
1.06668e-05
4.47105e-06
1.21277e-05
1.06702e-05
4.47644e-06
2.24246e-05
7.21638e-06
8.91219e-06
7.21707e-06
2.24261e-05
1.84687e-05
1.84617e-05
1.21316e-05
3.67532e-06
4.49184e-06
1.06761e-05
4.48707e-06
1.06727e-05
1.21346e-05
2.24364e-05
7.21724e-06
8.91337e-06
2.24351e-05
7.21695e-06
1.21313e-05
3.65895e-06
4.47139e-06
1.06676e-05
1.21282e-05
4.47647e-06
1.06709e-05
2.24254e-05
7.21827e-06
8.91375e-06
7.21879e-06
2.24268e-05
1.84703e-05
1.84632e-05
9.73109e-06
2.1913e-05
2.19123e-05
2.19126e-05
2.1912e-05
9.7294e-06
3.96205e-06
1.92697e-06
9.03723e-06
5.13746e-06
3.95858e-06
1.93308e-06
9.04279e-06
3.97015e-06
1.92855e-06
9.04195e-06
5.13936e-06
3.96403e-06
1.93469e-06
9.04755e-06
9.72892e-06
2.19226e-05
2.1922e-05
9.73047e-06
2.1923e-05
2.19223e-05
3.97479e-06
9.05e-06
5.14602e-06
1.95422e-06
1.94828e-06
9.04463e-06
3.97808e-06
3.98059e-06
9.05476e-06
5.14788e-06
1.95595e-06
1.94985e-06
9.04937e-06
3.98627e-06
1.84758e-05
1.8483e-05
1.84779e-05
1.84851e-05
9.72695e-06
2.19423e-05
2.19423e-05
9.7283e-06
2.19425e-05
2.19427e-05
3.94031e-06
1.91211e-06
5.12741e-06
9.03457e-06
9.02961e-06
1.90464e-06
3.94631e-06
3.94772e-06
1.91354e-06
5.12899e-06
9.04027e-06
9.03453e-06
1.9063e-06
3.95188e-06
3.92904e-06
9.0218e-06
1.88254e-06
5.11761e-06
3.92244e-06
9.02685e-06
1.88984e-06
3.9357e-06
9.02659e-06
1.88405e-06
5.1198e-06
3.92956e-06
9.0325e-06
1.89146e-06
9.72941e-06
2.19323e-05
2.19325e-05
2.19321e-05
2.19322e-05
9.72791e-06
1.21239e-05
1.06569e-05
4.43746e-06
3.61055e-06
1.21208e-05
1.06599e-05
4.44243e-06
2.24437e-05
8.90625e-06
7.21315e-06
2.24453e-05
7.21354e-06
2.24549e-05
7.21106e-06
8.90514e-06
2.24532e-05
7.21073e-06
1.21243e-05
3.62855e-06
1.06649e-05
4.46016e-06
1.21274e-05
1.06616e-05
4.45487e-06
1.2124e-05
1.06571e-05
4.43762e-06
3.61075e-06
1.21209e-05
1.06601e-05
4.44286e-06
2.24447e-05
8.90695e-06
7.21538e-06
7.21547e-06
2.24462e-05
2.24558e-05
7.21298e-06
8.90655e-06
2.24543e-05
7.21309e-06
1.21244e-05
3.6286e-06
1.0665e-05
4.46014e-06
1.06618e-05
4.45522e-06
1.21275e-05
1.84768e-05
1.8484e-05
9.72682e-06
2.19419e-05
2.19426e-05
9.72807e-06
2.19422e-05
2.19429e-05
3.94806e-06
1.91298e-06
5.12768e-06
9.03966e-06
1.90632e-06
9.03468e-06
3.95322e-06
3.94015e-06
1.91202e-06
5.12581e-06
9.03492e-06
9.02995e-06
1.90455e-06
3.94612e-06
3.93437e-06
9.02685e-06
1.88371e-06
5.12112e-06
1.89125e-06
3.93036e-06
9.03193e-06
3.92898e-06
9.02207e-06
1.88233e-06
5.11913e-06
3.92229e-06
9.02723e-06
1.88965e-06
9.72921e-06
2.19321e-05
2.19327e-05
2.19318e-05
2.19325e-05
9.72781e-06
1.84754e-05
1.84826e-05
1.21244e-05
4.43767e-06
1.06577e-05
3.611e-06
1.21212e-05
4.44273e-06
1.06606e-05
2.24446e-05
8.90776e-06
7.2151e-06
2.24461e-05
7.21517e-06
2.24557e-05
7.21267e-06
8.90734e-06
2.24542e-05
7.21278e-06
1.21247e-05
3.62866e-06
4.46032e-06
1.06657e-05
1.21279e-05
4.45512e-06
1.06623e-05
1.21245e-05
1.06575e-05
4.43776e-06
3.61073e-06
1.21213e-05
1.06604e-05
4.44247e-06
2.24441e-05
8.90722e-06
7.2135e-06
7.21376e-06
2.24459e-05
2.24555e-05
7.21127e-06
8.90684e-06
2.24537e-05
7.21112e-06
1.21248e-05
3.6287e-06
1.06654e-05
4.45964e-06
1.06621e-05
4.45531e-06
1.21279e-05
1.21239e-05
4.43703e-06
1.06563e-05
3.61087e-06
1.21207e-05
4.44314e-06
1.06609e-05
2.24438e-05
8.90757e-06
7.21484e-06
7.2151e-06
2.24452e-05
2.24549e-05
7.21278e-06
8.90644e-06
2.24534e-05
7.21243e-06
1.21242e-05
3.62874e-06
4.46047e-06
1.06659e-05
4.45476e-06
1.06612e-05
1.21274e-05
1.21241e-05
1.06572e-05
4.43673e-06
3.6114e-06
1.21209e-05
1.06602e-05
4.44293e-06
2.24437e-05
8.90717e-06
7.21297e-06
7.21322e-06
2.24451e-05
2.24547e-05
7.21088e-06
8.90606e-06
2.24533e-05
7.21058e-06
1.21244e-05
3.62835e-06
1.06651e-05
4.46031e-06
1.06619e-05
4.45451e-06
1.21276e-05
1.84783e-05
1.84856e-05
9.7277e-06
2.19431e-05
2.19433e-05
9.72894e-06
2.19434e-05
2.19436e-05
3.94863e-06
1.91389e-06
5.12921e-06
9.04015e-06
1.90644e-06
9.03441e-06
3.95228e-06
3.9416e-06
1.91138e-06
5.12739e-06
9.03485e-06
9.02996e-06
1.90492e-06
3.9452e-06
3.93472e-06
9.02647e-06
1.88391e-06
5.11946e-06
1.8916e-06
3.9308e-06
9.03237e-06
3.92767e-06
9.02214e-06
1.88232e-06
5.11807e-06
3.92381e-06
9.02714e-06
1.88984e-06
9.73009e-06
2.19333e-05
2.19334e-05
2.19329e-05
2.19331e-05
9.72867e-06
1.84768e-05
1.84839e-05
1.21242e-05
4.43748e-06
1.06565e-05
3.61154e-06
1.2121e-05
4.44238e-06
1.06612e-05
2.24442e-05
8.90689e-06
7.21313e-06
7.21323e-06
2.24456e-05
2.24553e-05
7.2108e-06
8.9065e-06
2.24538e-05
7.21085e-06
1.21246e-05
3.62838e-06
4.45965e-06
1.06662e-05
4.45504e-06
1.06614e-05
1.21277e-05
1.21241e-05
4.43759e-06
1.06576e-05
3.61103e-06
1.21209e-05
4.44281e-06
1.06606e-05
2.24438e-05
8.90791e-06
7.21503e-06
7.21512e-06
2.24452e-05
2.24548e-05
7.21268e-06
8.9075e-06
2.24534e-05
7.21276e-06
1.21244e-05
3.62879e-06
4.46015e-06
1.06656e-05
4.45516e-06
1.06623e-05
1.21276e-05
9.72725e-06
2.19429e-05
2.19423e-05
9.72851e-06
2.19432e-05
2.19425e-05
3.94144e-06
1.91144e-06
5.12735e-06
9.03529e-06
3.94515e-06
1.9053e-06
9.02954e-06
3.94729e-06
1.9131e-06
5.1292e-06
9.04002e-06
3.95318e-06
1.90674e-06
9.03429e-06
3.92765e-06
9.02167e-06
1.88314e-06
5.11821e-06
3.92368e-06
1.88942e-06
9.0275e-06
3.93601e-06
9.02633e-06
1.88454e-06
5.12014e-06
3.92942e-06
1.89119e-06
9.03223e-06
9.72963e-06
2.1933e-05
2.19324e-05
9.72821e-06
2.19327e-05
2.19321e-05
1.84768e-05
1.84839e-05
1.84782e-05
1.84853e-05
1.84677e-05
1.84607e-05
1.84697e-05
1.84627e-05
9.73085e-06
2.19122e-05
2.19124e-05
2.1912e-05
2.1912e-05
9.72908e-06
3.96314e-06
1.92651e-06
9.03722e-06
5.13695e-06
3.95727e-06
9.04208e-06
1.93354e-06
3.96872e-06
1.92828e-06
9.04222e-06
5.13919e-06
3.96522e-06
9.04778e-06
1.93488e-06
9.72861e-06
2.1922e-05
2.1922e-05
9.73025e-06
2.19222e-05
2.19224e-05
3.97367e-06
9.04927e-06
5.14631e-06
1.95478e-06
9.04466e-06
3.97915e-06
1.9479e-06
3.98165e-06
9.05501e-06
5.14773e-06
1.95579e-06
9.04964e-06
3.98495e-06
1.94976e-06
1.84461e-05
1.84529e-05
1.84482e-05
1.84549e-05
9.72928e-06
2.19021e-05
2.19021e-05
9.73121e-06
2.19026e-05
2.19021e-05
4.00392e-06
1.99646e-06
5.16329e-06
9.06412e-06
9.05907e-06
1.98887e-06
4.01151e-06
4.01401e-06
1.99608e-06
5.16539e-06
9.06772e-06
9.06339e-06
1.9915e-06
4.01362e-06
3.9944e-06
9.05182e-06
1.9688e-06
5.15473e-06
3.98953e-06
9.05651e-06
1.97523e-06
4.00001e-06
9.0568e-06
1.97064e-06
5.15698e-06
3.9975e-06
9.06184e-06
1.97659e-06
9.73138e-06
2.18934e-05
2.18918e-05
2.18927e-05
2.18916e-05
9.72934e-06
1.21313e-05
3.67524e-06
1.06755e-05
4.49153e-06
1.06722e-05
4.48731e-06
1.21342e-05
2.24365e-05
7.21747e-06
8.91254e-06
2.24351e-05
7.21717e-06
1.2131e-05
3.65889e-06
1.06669e-05
4.47183e-06
1.06703e-05
1.21279e-05
4.47624e-06
2.24255e-05
7.2185e-06
8.91291e-06
7.21903e-06
2.24269e-05
1.21373e-05
1.06774e-05
4.50112e-06
3.7017e-06
1.21344e-05
1.06809e-05
4.50589e-06
2.24056e-05
8.91783e-06
7.21782e-06
7.21889e-06
2.2407e-05
2.24167e-05
7.21818e-06
8.91681e-06
2.2415e-05
7.21735e-06
1.21375e-05
3.71665e-06
1.06862e-05
4.51922e-06
1.06828e-05
4.51476e-06
1.21404e-05
1.21374e-05
1.06775e-05
4.50183e-06
3.70195e-06
1.21345e-05
1.0681e-05
4.50613e-06
2.24062e-05
8.91846e-06
7.21988e-06
7.2208e-06
2.24074e-05
2.24171e-05
7.22012e-06
8.91816e-06
2.24159e-05
7.21939e-06
1.21376e-05
3.71673e-06
1.06864e-05
4.51944e-06
1.06829e-05
4.51509e-06
1.21404e-05
9.73066e-06
2.1912e-05
2.19126e-05
2.19116e-05
2.19123e-05
9.72899e-06
3.96989e-06
1.92829e-06
9.04231e-06
5.14052e-06
9.04716e-06
3.96403e-06
1.93503e-06
3.96305e-06
1.92637e-06
9.03755e-06
5.13857e-06
1.93359e-06
3.95709e-06
9.04242e-06
9.72852e-06
2.19217e-05
2.19224e-05
2.1922e-05
9.73006e-06
2.19226e-05
3.98059e-06
9.05437e-06
5.14639e-06
1.95613e-06
9.04975e-06
1.94931e-06
3.986e-06
3.97345e-06
9.04962e-06
5.14459e-06
1.95485e-06
1.94767e-06
9.04501e-06
3.97907e-06
1.84672e-05
1.84602e-05
1.84472e-05
1.84539e-05
9.72923e-06
2.19017e-05
2.19024e-05
9.73103e-06
2.1902e-05
2.19027e-05
4.01247e-06
1.997e-06
5.1637e-06
9.06817e-06
1.99067e-06
9.06389e-06
4.01532e-06
4.00439e-06
1.9956e-06
5.1626e-06
9.0634e-06
9.05913e-06
1.98879e-06
4.00969e-06
4.00012e-06
9.0569e-06
1.97033e-06
5.15817e-06
1.97682e-06
3.99668e-06
9.06144e-06
3.99478e-06
9.05216e-06
1.96856e-06
5.15624e-06
3.98927e-06
9.05666e-06
1.97536e-06
9.73116e-06
2.18922e-05
2.18929e-05
2.18919e-05
2.18926e-05
9.72926e-06
1.84457e-05
1.84525e-05
1.21316e-05
3.67524e-06
1.06759e-05
4.49112e-06
1.06725e-05
4.48744e-06
1.21346e-05
2.24362e-05
7.21576e-06
8.91284e-06
2.24345e-05
7.21531e-06
1.21313e-05
3.65897e-06
1.06673e-05
4.47184e-06
1.06707e-05
1.21283e-05
4.47598e-06
2.24248e-05
7.21664e-06
8.91318e-06
7.21732e-06
2.24265e-05
1.21377e-05
4.50149e-06
1.06781e-05
3.702e-06
1.21348e-05
4.50587e-06
1.06816e-05
2.24061e-05
8.91933e-06
7.2197e-06
7.22059e-06
2.24073e-05
2.2417e-05
7.2199e-06
8.91902e-06
2.24158e-05
7.21919e-06
1.21379e-05
3.71666e-06
4.51929e-06
1.06869e-05
4.51513e-06
1.06835e-05
1.21407e-05
1.21377e-05
1.06778e-05
4.50185e-06
3.70195e-06
1.21349e-05
1.06814e-05
4.50543e-06
2.24054e-05
8.9187e-06
7.21804e-06
7.21911e-06
2.2407e-05
2.24167e-05
7.21842e-06
8.91844e-06
2.24151e-05
7.21753e-06
1.21379e-05
3.71668e-06
1.06867e-05
4.51867e-06
1.06833e-05
4.51553e-06
1.21407e-05
1.2131e-05
3.67514e-06
4.4919e-06
1.06764e-05
4.48676e-06
1.06715e-05
1.2134e-05
2.24355e-05
7.21705e-06
8.91238e-06
7.21667e-06
2.24342e-05
1.21308e-05
3.65883e-06
4.47132e-06
1.06664e-05
4.47653e-06
1.21276e-05
1.06711e-05
2.24245e-05
7.21798e-06
8.91345e-06
7.21855e-06
2.24258e-05
1.21313e-05
3.67525e-06
1.06756e-05
4.49102e-06
1.06722e-05
4.48678e-06
1.21342e-05
2.24355e-05
7.21521e-06
8.91201e-06
2.24341e-05
7.21481e-06
1.2131e-05
3.65872e-06
1.0667e-05
4.47108e-06
1.21279e-05
1.06704e-05
4.47616e-06
2.24245e-05
7.21613e-06
8.91306e-06
7.21672e-06
2.24258e-05
1.21372e-05
4.50147e-06
1.0677e-05
3.70282e-06
1.21342e-05
4.50544e-06
1.06819e-05
2.24051e-05
8.91904e-06
7.21938e-06
7.22034e-06
2.24063e-05
2.24161e-05
7.21965e-06
8.91804e-06
2.24148e-05
7.21889e-06
1.21373e-05
3.71603e-06
4.51884e-06
1.06873e-05
4.5154e-06
1.06824e-05
1.21402e-05
1.21374e-05
1.06775e-05
4.50155e-06
3.70199e-06
1.21345e-05
1.0681e-05
4.50536e-06
2.24051e-05
8.91868e-06
7.21757e-06
7.21854e-06
2.24063e-05
2.24161e-05
7.21783e-06
8.91768e-06
2.24148e-05
7.21705e-06
1.21376e-05
3.71671e-06
1.06864e-05
4.5187e-06
1.0683e-05
4.51526e-06
1.21404e-05
9.73153e-06
2.19131e-05
2.19133e-05
2.19128e-05
2.1913e-05
9.7298e-06
3.96908e-06
1.92838e-06
9.0421e-06
5.13898e-06
9.04766e-06
3.96561e-06
1.93481e-06
3.96208e-06
1.92698e-06
9.03757e-06
5.13733e-06
1.93301e-06
3.95862e-06
9.04236e-06
9.72936e-06
2.19228e-05
2.1923e-05
2.19232e-05
9.73094e-06
2.19233e-05
3.98199e-06
9.0549e-06
5.14794e-06
1.95617e-06
9.0495e-06
1.95e-06
3.98529e-06
3.975e-06
9.04961e-06
5.14599e-06
1.95428e-06
1.94837e-06
9.045e-06
3.97828e-06
1.84686e-05
1.84616e-05
1.84487e-05
1.84555e-05
9.73e-06
2.19029e-05
2.1903e-05
9.73188e-06
2.19032e-05
2.19033e-05
4.01284e-06
1.99711e-06
5.16543e-06
9.06868e-06
1.99121e-06
9.06356e-06
4.01567e-06
4.00589e-06
1.99535e-06
5.16342e-06
9.06341e-06
9.05914e-06
1.98954e-06
4.0087e-06
4.0006e-06
9.05665e-06
1.97086e-06
5.157e-06
1.97685e-06
3.99765e-06
9.06188e-06
3.99368e-06
9.05215e-06
1.96921e-06
5.15519e-06
3.99065e-06
9.05669e-06
1.97523e-06
9.73201e-06
2.18934e-05
2.18935e-05
2.1893e-05
2.18932e-05
9.73003e-06
1.8447e-05
1.84538e-05
1.21314e-05
3.67519e-06
4.49123e-06
1.06767e-05
4.48709e-06
1.06717e-05
1.21344e-05
2.24359e-05
7.21523e-06
8.91249e-06
7.21492e-06
2.24345e-05
1.21311e-05
3.659e-06
4.47157e-06
1.06666e-05
4.47602e-06
1.2128e-05
1.06714e-05
2.24249e-05
7.21625e-06
8.91285e-06
7.21678e-06
2.24262e-05
1.21313e-05
3.67525e-06
4.49146e-06
1.06761e-05
4.48727e-06
1.06727e-05
1.21343e-05
2.24356e-05
7.21711e-06
8.9135e-06
2.24342e-05
7.21682e-06
1.2131e-05
3.65921e-06
4.47179e-06
1.06675e-05
1.21279e-05
4.47619e-06
1.06709e-05
2.24246e-05
7.21814e-06
8.91388e-06
7.21865e-06
2.24259e-05
1.21376e-05
4.50152e-06
1.06772e-05
3.70216e-06
1.21346e-05
4.50549e-06
1.06821e-05
2.24055e-05
8.9184e-06
7.21764e-06
7.21856e-06
2.24067e-05
2.24165e-05
7.21788e-06
8.91813e-06
2.24152e-05
7.21714e-06
1.21377e-05
3.71665e-06
4.51871e-06
1.06875e-05
4.51519e-06
1.06826e-05
1.21405e-05
1.21374e-05
4.50177e-06
1.0678e-05
3.70226e-06
1.21346e-05
4.50609e-06
1.06816e-05
2.24052e-05
8.91944e-06
7.21953e-06
7.22042e-06
2.24064e-05
2.24161e-05
7.21975e-06
8.91915e-06
2.24149e-05
7.21903e-06
1.21377e-05
3.7167e-06
4.51945e-06
1.0687e-05
4.51506e-06
1.06835e-05
1.21404e-05
1.84686e-05
1.84617e-05
1.847e-05
1.84631e-05
9.72963e-06
2.19027e-05
2.19021e-05
9.73145e-06
2.1903e-05
2.19024e-05
4.00575e-06
1.99544e-06
5.16346e-06
9.06379e-06
1.98948e-06
9.05867e-06
4.00861e-06
4.01143e-06
1.99698e-06
5.16532e-06
9.06856e-06
1.99111e-06
9.06342e-06
4.01681e-06
3.99355e-06
9.05178e-06
1.96911e-06
5.15523e-06
3.99049e-06
1.97523e-06
9.05699e-06
4.0019e-06
9.05653e-06
1.97078e-06
5.15715e-06
3.99631e-06
1.97663e-06
9.06175e-06
9.73159e-06
2.18933e-05
2.18926e-05
2.18929e-05
2.18923e-05
9.72967e-06
1.84471e-05
1.84538e-05
1.84485e-05
1.84552e-05
1.17585e-07
1.17581e-07
1.32862e-07
1.16481e-07
1.16478e-07
1.09882e-07
1.11175e-07
1.73953e-06
7.66821e-07
7.66426e-07
3.57885e-07
1.73416e-06
7.69502e-07
7.71589e-07
1.7116e-06
3.51706e-07
7.55177e-07
7.55432e-07
7.5183e-07
7.52138e-07
1.71742e-06
1.71098e-06
3.51481e-07
7.55455e-07
7.56226e-07
7.51998e-07
7.5095e-07
1.7171e-06
1.71176e-06
3.51882e-07
7.56476e-07
7.54811e-07
7.51445e-07
7.52172e-07
1.71728e-06
1.71139e-06
3.50888e-07
7.544e-07
7.56477e-07
1.71719e-06
7.51409e-07
7.51359e-07
1.73982e-06
7.6672e-07
7.67061e-07
3.57585e-07
1.73392e-06
7.69853e-07
7.70132e-07
1.79891e-06
3.77019e-07
8.16147e-07
8.15393e-07
8.11901e-07
8.12999e-07
1.80425e-06
1.73922e-06
7.6685e-07
7.65963e-07
3.57154e-07
7.71089e-07
1.73387e-06
7.7011e-07
1.79871e-06
3.77071e-07
8.15722e-07
8.16756e-07
8.12575e-07
8.11247e-07
1.80427e-06
1.73943e-06
7.66485e-07
7.66969e-07
3.57241e-07
7.69623e-07
1.73416e-06
7.71382e-07
1.79911e-06
3.76923e-07
8.17052e-07
8.15283e-07
8.11738e-07
8.12535e-07
1.80437e-06
1.79891e-06
3.76348e-07
8.15232e-07
8.15624e-07
8.12541e-07
8.12055e-07
1.80426e-06
1.3487e-07
1.18725e-07
1.18722e-07
1.19901e-07
1.19897e-07
1.13847e-07
1.12496e-07
1.34866e-07
1.18726e-07
1.1872e-07
1.19902e-07
1.19896e-07
1.13847e-07
1.12496e-07
1.34875e-07
1.18727e-07
1.18725e-07
1.19903e-07
1.19899e-07
1.13848e-07
1.12497e-07
1.34868e-07
1.18726e-07
1.18722e-07
1.19902e-07
1.19898e-07
1.13847e-07
1.12497e-07
1.17586e-07
1.17581e-07
1.32861e-07
1.16482e-07
1.16477e-07
1.09882e-07
1.11175e-07
1.17588e-07
1.17584e-07
1.32872e-07
1.16484e-07
1.16481e-07
1.09883e-07
1.11176e-07
1.17586e-07
1.17582e-07
1.32865e-07
1.16482e-07
1.16478e-07
1.09882e-07
1.11175e-07
1.32292e-07
1.14379e-07
1.14377e-07
1.15413e-07
1.15409e-07
1.08617e-07
1.0738e-07
1.32289e-07
1.14381e-07
1.14375e-07
1.15414e-07
1.15409e-07
1.08617e-07
1.0738e-07
1.32299e-07
1.14383e-07
1.14379e-07
1.15416e-07
1.15411e-07
1.08618e-07
1.07381e-07
1.32292e-07
1.14381e-07
1.14377e-07
1.15414e-07
1.1541e-07
1.08618e-07
1.0738e-07
4.76201e-07
1.15044e-06
1.47536e-06
3.8896e-07
1.46815e-06
3.86593e-07
4.79e-07
6.55557e-07
9.99603e-07
2.07525e-06
2.80467e-06
6.54523e-07
1.00591e-06
2.08012e-06
4.69927e-07
1.13652e-06
1.44618e-06
3.79467e-07
4.67229e-07
1.45353e-06
3.81752e-07
6.66126e-07
2.10066e-06
2.81634e-06
1.02308e-06
1.01686e-06
2.09605e-06
6.67163e-07
4.76198e-07
1.15056e-06
3.8821e-07
1.47564e-06
3.87249e-07
1.468e-06
4.79034e-07
6.55578e-07
9.99981e-07
2.0741e-06
2.80328e-06
6.5452e-07
1.00545e-06
2.08151e-06
4.69939e-07
1.13657e-06
3.80119e-07
1.44606e-06
4.67212e-07
3.80999e-07
1.4536e-06
6.66097e-07
2.10199e-06
2.81758e-06
1.02293e-06
1.0171e-06
2.09486e-06
6.67159e-07
1.75613e-06
3.63211e-07
7.84775e-07
7.86568e-07
7.82029e-07
7.81623e-07
1.76171e-06
1.69483e-06
3.45493e-07
7.37028e-07
7.37356e-07
1.68838e-06
7.4015e-07
7.40415e-07
4.52602e-07
1.40123e-06
3.6604e-07
1.09302e-06
4.49776e-07
1.40878e-06
3.68174e-07
6.42657e-07
9.88552e-07
2.78058e-06
2.05922e-06
9.82986e-07
2.05334e-06
6.43641e-07
6.32231e-07
2.03203e-06
9.66107e-07
2.76543e-06
9.71473e-07
6.31203e-07
2.03756e-06
4.58271e-07
1.10844e-06
1.43115e-06
3.74822e-07
1.42381e-06
3.727e-07
4.60833e-07
4.52786e-07
1.40188e-06
3.66741e-07
1.09383e-06
4.49983e-07