/*--------------------------------*- C++ -*----------------------------------*\
| =========                 |                                                 |
| \\      /  F ield         | OpenFOAM: The Open Source CFD Toolbox           |
|  \\    /   O peration     | Version:  v1906                                 |
|   \\  /    A nd           | Web:      www.OpenFOAM.com                      |
|    \\/     M anipulation  |                                                 |
\*---------------------------------------------------------------------------*/
FoamFile
{
    version     2.0;
    format      ascii;
    class       volScalarField;
    location    "1000";
    object      k;
}
// * * * * * * * * * * * * * * * * * * * * * * * * * * * * * * * * * * * * * //

dimensions      [0 2 -2 0 0 0 0];


internalField   nonuniform List<scalar> 
43248
(
4.17556e-05
3.64595e-05
3.64589e-05
4.17863e-05
3.6456e-05
3.64602e-05
3.64568e-05
3.64626e-05
4.17889e-05
3.64598e-05
3.64606e-05
4.17891e-05
2.08487e-05
2.08479e-05
2.08515e-05
2.08527e-05
6.95314e-05
6.95339e-05
6.68957e-05
6.69048e-05
6.46115e-05
7.13533e-05
6.47112e-05
6.4615e-05
7.13574e-05
7.13223e-05
6.47109e-05
5.30933e-05
6.01873e-05
2.88273e-05
2.8582e-05
5.32949e-05
5.3095e-05
3.6227e-05
6.01921e-05
2.8828e-05
6.00686e-05
2.85829e-05
5.32962e-05
6.95334e-05
6.95074e-05
4.15748e-05
6.69063e-05
6.68898e-05
6.68419e-05
6.68301e-05
6.95294e-05
6.95033e-05
7.13588e-05
6.4714e-05
6.01906e-05
2.88298e-05
5.32952e-05
7.13533e-05
6.47104e-05
2.88305e-05
6.01845e-05
5.32947e-05
5.30957e-05
3.62249e-05
6.01853e-05
2.88271e-05
6.00668e-05
2.85822e-05
5.32965e-05
6.46126e-05
7.1356e-05
7.13209e-05
6.47126e-05
5.30948e-05
3.62307e-05
2.88304e-05
6.01873e-05
2.85852e-05
6.00655e-05
5.32959e-05
6.46117e-05
7.13532e-05
7.13194e-05
6.47112e-05
6.95322e-05
6.68971e-05
6.68949e-05
6.95322e-05
5.30977e-05
2.88328e-05
6.0189e-05
2.85876e-05
5.32956e-05
5.30979e-05
3.62288e-05
2.88335e-05
6.01931e-05
2.85885e-05
6.00701e-05
5.32984e-05
6.46162e-05
7.13549e-05
6.47117e-05
6.46153e-05
7.13594e-05
7.13245e-05
6.47152e-05
4.15856e-05
6.68943e-05
6.69071e-05
6.68337e-05
6.68437e-05
6.95316e-05
6.95057e-05
6.95347e-05
6.95087e-05
6.95189e-05
6.95214e-05
7.00292e-05
5.93332e-05
6.68784e-05
7.11356e-05
7.11207e-05
5.92685e-05
7.00694e-05
7.00897e-05
5.93263e-05
6.6886e-05
7.11454e-05
7.11311e-05
5.92863e-05
7.00992e-05
9.2342e-05
7.20373e-05
7.20305e-05
7.20232e-05
7.20168e-05
9.23492e-05
7.01262e-05
6.98207e-05
6.81176e-05
6.46523e-05
7.01149e-05
6.98334e-05
6.81544e-05
7.01848e-05
7.1338e-05
7.73868e-05
7.73672e-05
7.01994e-05
7.01275e-05
6.46704e-05
6.98474e-05
6.82043e-05
6.98343e-05
6.81681e-05
7.01401e-05
7.01275e-05
6.98232e-05
6.81278e-05
6.46527e-05
7.01179e-05
6.98319e-05
6.81603e-05
7.01873e-05
7.1344e-05
7.74082e-05
7.73891e-05
7.02013e-05
7.01915e-05
7.73599e-05
7.13376e-05
7.01776e-05
7.7379e-05
7.01308e-05
6.46738e-05
6.98455e-05
6.82104e-05
6.98368e-05
6.81763e-05
7.01405e-05
6.95209e-05
6.95199e-05
9.23148e-05
7.20055e-05
7.20109e-05
9.2303e-05
7.20194e-05
7.20248e-05
7.00851e-05
5.93326e-05
6.68869e-05
7.11472e-05
5.92819e-05
7.11288e-05
7.01061e-05
7.00334e-05
5.93216e-05
6.68752e-05
7.11355e-05
7.11172e-05
5.92729e-05
7.00545e-05
7.00406e-05
7.11055e-05
5.9183e-05
6.68615e-05
5.92344e-05
7.00193e-05
7.11235e-05
6.99891e-05
7.10939e-05
5.91741e-05
6.68446e-05
6.99678e-05
7.11118e-05
5.92236e-05
9.23383e-05
7.20306e-05
7.20359e-05
7.20166e-05
7.2022e-05
9.23473e-05
6.95168e-05
6.95159e-05
7.01873e-05
7.13435e-05
7.74064e-05
7.73872e-05
7.02013e-05
7.01303e-05
6.46738e-05
6.82106e-05
6.98488e-05
6.81746e-05
6.98358e-05
7.0142e-05
7.01843e-05
7.13396e-05
7.73851e-05
7.73661e-05
7.01989e-05
7.01287e-05
6.46726e-05
6.98478e-05
6.82002e-05
6.9835e-05
6.81705e-05
7.01387e-05
7.01273e-05
6.81234e-05
6.98204e-05
6.46541e-05
7.01156e-05
6.81598e-05
6.98332e-05
7.0186e-05
7.13424e-05
7.74055e-05
7.73849e-05
7.02001e-05
7.01902e-05
7.73558e-05
7.1336e-05
7.01763e-05
7.73763e-05
7.01283e-05
6.46718e-05
6.82085e-05
6.98472e-05
6.81742e-05
6.98341e-05
7.01409e-05
7.01255e-05
6.982e-05
6.8122e-05
6.46528e-05
7.01154e-05
6.98327e-05
6.8154e-05
7.0185e-05
7.13403e-05
7.73886e-05
7.73673e-05
7.01991e-05
7.01892e-05
7.73383e-05
7.13328e-05
7.01753e-05
7.73593e-05
7.0128e-05
6.46705e-05
6.98467e-05
6.82046e-05
6.98336e-05
6.81703e-05
7.01394e-05
6.95195e-05
7.00853e-05
5.93299e-05
6.68826e-05
7.11438e-05
5.92818e-05
7.11291e-05
7.0107e-05
7.00362e-05
5.93259e-05
6.68772e-05
7.11351e-05
7.11205e-05
5.92742e-05
7.00573e-05
9.23423e-05
7.20308e-05
7.20372e-05
7.20169e-05
7.20232e-05
9.23551e-05
6.95197e-05
7.01266e-05
6.81217e-05
6.98243e-05
6.46536e-05
7.01171e-05
6.81541e-05
6.9833e-05
7.01865e-05
7.13411e-05
7.73876e-05
7.7369e-05
7.02005e-05
7.01906e-05
7.73583e-05
7.01301e-05
6.46747e-05
6.82036e-05
6.98466e-05
6.81714e-05
6.98379e-05
7.01396e-05
7.01281e-05
6.8125e-05
6.98226e-05
6.46564e-05
7.01174e-05
6.8159e-05
6.98351e-05
7.01869e-05
7.13439e-05
7.74041e-05
7.73854e-05
7.02015e-05
7.01917e-05
7.73566e-05
7.13381e-05
7.01772e-05
7.73753e-05
7.013e-05
6.46742e-05
6.82091e-05
6.98491e-05
6.8174e-05
6.98362e-05
7.01419e-05
9.23169e-05
7.20123e-05
7.20063e-05
9.23084e-05
7.20262e-05
7.20202e-05
7.00349e-05
5.93242e-05
6.6879e-05
7.1135e-05
5.92733e-05
7.11203e-05
7.00563e-05
7.00874e-05
5.93358e-05
6.68889e-05
7.11482e-05
5.92834e-05
7.11298e-05
7.01088e-05
6.99908e-05
7.10967e-05
5.91748e-05
6.68493e-05
6.99692e-05
5.92261e-05
7.11118e-05
7.00432e-05
7.11065e-05
5.91848e-05
6.68621e-05
7.00217e-05
5.92376e-05
7.11245e-05
9.23433e-05
7.20373e-05
7.20313e-05
7.20234e-05
7.20174e-05
9.23515e-05
6.95192e-05
6.9518e-05
6.95222e-05
6.95211e-05
5.95183e-05
4.17702e-05
5.05061e-05
5.05021e-05
5.04659e-05
5.04748e-05
5.95524e-05
5.9518e-05
4.1758e-05
5.05013e-05
5.04986e-05
5.04685e-05
5.04672e-05
5.95491e-05
5.95174e-05
4.17625e-05
5.05143e-05
5.05139e-05
5.04631e-05
5.04627e-05
5.95531e-05
5.95176e-05
4.17581e-05
5.05088e-05
5.05116e-05
5.04634e-05
5.04675e-05
5.95536e-05
1.49194e-05
1.49189e-05
1.4808e-05
1.07942e-05
1.08212e-05
2.0663e-05
1.49191e-05
1.49173e-05
1.48077e-05
1.4806e-05
1.0794e-05
1.08209e-05
1.49216e-05
1.49209e-05
1.48094e-05
1.07952e-05
1.08222e-05
2.06677e-05
1.49213e-05
1.4921e-05
1.48098e-05
1.48096e-05
1.07952e-05
1.08221e-05
4.55506e-05
5.54151e-05
4.35626e-05
5.31731e-05
4.55165e-05
5.54896e-05
4.36135e-05
4.80447e-05
5.25245e-05
6.01391e-05
5.85132e-05
5.2475e-05
5.84545e-05
4.80891e-05
4.56978e-05
5.32157e-05
5.56011e-05
4.37999e-05
5.5527e-05
4.37473e-05
4.57242e-05
4.5559e-05
5.54214e-05
4.35641e-05
5.31745e-05
4.55202e-05
5.54949e-05
4.36143e-05
4.80487e-05
5.2528e-05
6.01432e-05
5.85219e-05
5.84627e-05
5.24801e-05
4.80958e-05
4.79356e-05
5.83694e-05
5.23494e-05
6.01177e-05
4.78961e-05
5.84289e-05
5.23932e-05
4.5702e-05
5.3217e-05
5.56062e-05
4.38011e-05
5.55323e-05
4.37488e-05
4.57288e-05
5.9445e-05
4.15958e-05
5.03199e-05
5.03177e-05
5.03607e-05
5.94116e-05
5.03592e-05
4.80602e-05
5.25187e-05
6.01435e-05
5.85196e-05
5.24858e-05
5.84616e-05
4.80726e-05
4.57097e-05
5.32186e-05
5.56021e-05
4.37777e-05
5.55327e-05
4.3762e-05
4.56974e-05
4.80572e-05
5.25128e-05
6.0142e-05
5.85112e-05
5.84532e-05
5.24858e-05
4.80689e-05
4.57081e-05
5.32157e-05
4.37771e-05
5.55961e-05
4.3761e-05
5.55298e-05
4.56957e-05
4.55353e-05
5.54215e-05
4.35803e-05
5.31743e-05
4.55333e-05
5.54912e-05
4.35982e-05
4.80588e-05
5.25163e-05
6.01414e-05
5.85184e-05
5.24816e-05
5.84605e-05
4.80711e-05
4.7921e-05
5.8367e-05
5.2351e-05
6.01112e-05
4.79059e-05
5.23848e-05
5.84258e-05
4.57082e-05
5.32168e-05
5.56021e-05
4.38005e-05
5.55324e-05
4.37562e-05
4.56995e-05
4.55332e-05
4.35789e-05
5.542e-05
5.31735e-05
4.55402e-05
4.35974e-05
5.54892e-05
4.80587e-05
5.2516e-05
6.014e-05
5.8514e-05
5.84559e-05
5.24818e-05
4.80716e-05
4.79212e-05
5.83625e-05
5.23503e-05
6.01133e-05
4.79059e-05
5.84214e-05
5.23848e-05
4.57164e-05
5.32157e-05
4.38004e-05
5.56004e-05
4.37559e-05
5.55309e-05
4.57121e-05
4.55321e-05
4.35821e-05
5.54202e-05
5.31751e-05
4.55339e-05
4.36001e-05
5.54895e-05
4.8059e-05
5.25204e-05
6.01404e-05
5.85144e-05
5.24831e-05
5.84562e-05
4.80712e-05
4.79201e-05
5.84215e-05
4.57111e-05
5.32202e-05
4.37814e-05
5.56003e-05
4.37644e-05
5.5531e-05
4.56961e-05
4.55314e-05
4.35815e-05
5.54241e-05
5.31767e-05
4.55374e-05
4.35999e-05
5.54923e-05
4.80621e-05
5.25265e-05
6.01447e-05
5.852e-05
5.84627e-05
5.24868e-05
4.8074e-05
4.79237e-05
5.83694e-05
5.23565e-05
6.01187e-05
4.79097e-05
5.84276e-05
5.23881e-05
4.57162e-05
5.3219e-05
4.38013e-05
5.56028e-05
4.37588e-05
5.55349e-05
4.57093e-05
5.94472e-05
4.15869e-05
5.03204e-05
5.03241e-05
5.94128e-05
5.03593e-05
5.03643e-05
1.49175e-05
1.61038e-05
1.61048e-05
1.8089e-05
1.79691e-05
1.60848e-05
1.60853e-05
1.79815e-05
1.6085e-05
1.60853e-05
1.60846e-05
1.60849e-05
1.79829e-05
1.60854e-05
1.60853e-05
1.7967e-05
1.8086e-05
1.85375e-05
1.61036e-05
1.61046e-05
1.61957e-05
1.61959e-05
1.8075e-05
1.85529e-05
1.61047e-05
1.61047e-05
1.61951e-05
1.6196e-05
1.61042e-05
1.61951e-05
1.61957e-05
1.80763e-05
1.85548e-05
1.61045e-05
1.6196e-05
1.6196e-05
1.8538e-05
1.5006e-05
1.50061e-05
1.50062e-05
1.50061e-05
5.35083e-05
7.00367e-05
5.29547e-05
7.00652e-05
6.96362e-05
6.9616e-05
5.35169e-05
7.00451e-05
5.29525e-05
7.007e-05
1.49176e-05
1.49177e-05
1.49176e-05
1.46692e-05
1.46693e-05
1.46695e-05
1.46693e-05
2.93452e-05
4.52012e-05
1.48821e-05
1.61285e-05
2.87851e-05
4.56194e-05
1.48311e-05
6.96355e-05
6.96155e-05
2.93508e-05
1.48826e-05
4.5208e-05
1.61295e-05
2.8783e-05
1.48316e-05
4.56187e-05
5.90545e-05
5.90652e-05
1.82399e-05
5.928e-05
5.92909e-05
6.9652e-05
6.96728e-05
6.96541e-05
6.9675e-05
1.7833e-05
5.89326e-05
5.89452e-05
5.86925e-05
5.87047e-05
5.21519e-05
7.00347e-05
7.00049e-05
5.27532e-05
5.21539e-05
7.00388e-05
7.00138e-05
5.27564e-05
2.79326e-05
1.60714e-05
4.49845e-05
1.4936e-05
4.45561e-05
1.49954e-05
2.84919e-05
2.79391e-05
1.60718e-05
4.49896e-05
1.49362e-05
4.45634e-05
1.49956e-05
2.84924e-05
6.96538e-05
6.9675e-05
1.78187e-05
5.89456e-05
5.89329e-05
5.87055e-05
5.86919e-05
6.96517e-05
6.96726e-05
5.2149e-05
7.00395e-05
7.0014e-05
5.27625e-05
2.7935e-05
1.60719e-05
4.4993e-05
1.49364e-05
4.45583e-05
1.49957e-05
2.84993e-05
5.21495e-05
7.00341e-05
7.00094e-05
5.27613e-05
2.7941e-05
1.60719e-05
1.49362e-05
4.4985e-05
1.49955e-05
4.45587e-05
2.84983e-05
2.7937e-05
1.60711e-05
4.4987e-05
1.4936e-05
4.45533e-05
1.49953e-05
2.84917e-05
5.21534e-05
7.00403e-05
7.0011e-05
5.27559e-05
2.79377e-05
1.60716e-05
1.49359e-05
4.49904e-05
1.49953e-05
4.4555e-05
2.84912e-05
5.21525e-05
7.0036e-05
7.00065e-05
5.27531e-05
6.96533e-05
6.96743e-05
1.78201e-05
5.89419e-05
5.89346e-05
5.87022e-05
5.86945e-05
6.96528e-05
6.96739e-05
2.79353e-05
1.60721e-05
1.49365e-05
4.49866e-05
1.49959e-05
4.45592e-05
2.84995e-05
2.79411e-05
1.60719e-05
1.49365e-05
4.49947e-05
1.49958e-05
4.45584e-05
2.84945e-05
5.21473e-05
7.00348e-05
7.00096e-05
5.2765e-05
5.21487e-05
7.00394e-05
7.00139e-05
5.27667e-05
1.78342e-05
5.89351e-05
5.8946e-05
5.86955e-05
5.87065e-05
6.96525e-05
6.96735e-05
6.96542e-05
6.96752e-05
6.96342e-05
6.96142e-05
6.96364e-05
6.96163e-05
5.90523e-05
5.9064e-05
1.8238e-05
5.92766e-05
5.92902e-05
6.95778e-05
6.95968e-05
6.95799e-05
6.95991e-05
1.83697e-05
5.96036e-05
5.96114e-05
5.93899e-05
5.94014e-05
5.35115e-05
7.00445e-05
5.29565e-05
7.00693e-05
2.93443e-05
4.52078e-05
1.4882e-05
1.61289e-05
2.8784e-05
4.56198e-05
1.48311e-05
2.93443e-05
4.52128e-05
1.48823e-05
1.61293e-05
2.8786e-05
4.56232e-05
1.48313e-05
5.36904e-05
7.00941e-05
7.00672e-05
5.42004e-05
5.36921e-05
7.00981e-05
7.00748e-05
5.42036e-05
2.9637e-05
1.61589e-05
4.62288e-05
1.47431e-05
4.58278e-05
1.47856e-05
3.01984e-05
2.96383e-05
1.61599e-05
4.62314e-05
1.47434e-05
4.58357e-05
1.47859e-05
3.02013e-05
5.90636e-05
5.90505e-05
1.82527e-05
5.92903e-05
5.92773e-05
6.96339e-05
6.96139e-05
6.95797e-05
6.9599e-05
1.83581e-05
5.96141e-05
5.9601e-05
5.94011e-05
5.93878e-05
6.95774e-05
6.95965e-05
2.9351e-05
4.52077e-05
1.48826e-05
1.61289e-05
2.87847e-05
4.56247e-05
1.48315e-05
5.35162e-05
7.00402e-05
5.29518e-05
7.00646e-05
2.9351e-05
1.48824e-05
4.52086e-05
1.61294e-05
2.87851e-05
1.48314e-05
4.56185e-05
5.36888e-05
7.00988e-05
7.00755e-05
5.4208e-05
2.96368e-05
1.61602e-05
4.62299e-05
1.47437e-05
4.58313e-05
1.47863e-05
3.02049e-05
5.36882e-05
7.00933e-05
7.00704e-05
5.42074e-05
2.96369e-05
1.61601e-05
1.47436e-05
4.62258e-05
1.47862e-05
4.58312e-05
3.02001e-05
5.35113e-05
7.00427e-05
5.29563e-05
7.00709e-05
2.93474e-05
1.4882e-05
4.52036e-05
1.61291e-05
2.87851e-05
1.4831e-05
4.56232e-05
5.35087e-05
7.00384e-05
5.29556e-05
7.00667e-05
2.96383e-05
1.61591e-05
4.62265e-05
1.47431e-05
4.58245e-05
1.47857e-05
3.01988e-05
5.36929e-05
7.00994e-05
7.00728e-05
5.42037e-05
2.96342e-05
1.61596e-05
1.47432e-05
4.62284e-05
1.47857e-05
4.58263e-05
3.02006e-05
5.36919e-05
7.00953e-05
7.00686e-05
5.42009e-05
5.90617e-05
5.9054e-05
1.82542e-05
5.92869e-05
5.92795e-05
6.96351e-05
6.96149e-05
6.95791e-05
6.95982e-05
1.83594e-05
5.96094e-05
5.96033e-05
5.93988e-05
5.93912e-05
6.95785e-05
6.95978e-05
2.93467e-05
1.48826e-05
4.52096e-05
1.61293e-05
2.8788e-05
1.48316e-05
4.56228e-05
5.35197e-05
7.00405e-05
5.29505e-05
7.00653e-05
5.35212e-05
7.0045e-05
5.29519e-05
7.00699e-05
2.96369e-05
1.61601e-05
1.47438e-05
4.62239e-05
1.47863e-05
4.5831e-05
3.0203e-05
2.96406e-05
1.61599e-05
1.47438e-05
4.62275e-05
1.47863e-05
4.58345e-05
3.01997e-05
5.36872e-05
7.0094e-05
7.00709e-05
5.4211e-05
5.36887e-05
7.00987e-05
7.00754e-05
5.42123e-05
6.96347e-05
6.96147e-05
6.96365e-05
6.96165e-05
1.83735e-05
5.96034e-05
5.96135e-05
5.93919e-05
5.94023e-05
6.95783e-05
6.95974e-05
6.95801e-05
6.95993e-05
6.98487e-05
5.33302e-05
6.91834e-05
5.95606e-05
6.91622e-05
5.93944e-05
6.98603e-05
7.09923e-05
7.40055e-05
7.00502e-05
7.09889e-05
7.40818e-05
6.98477e-05
5.31389e-05
6.91403e-05
5.91224e-05
6.98358e-05
6.91605e-05
5.92937e-05
7.09687e-05
7.41795e-05
7.00521e-05
7.41077e-05
7.0972e-05
6.96347e-05
6.96174e-05
6.98519e-05
5.33282e-05
5.95702e-05
6.91855e-05
5.9397e-05
6.91643e-05
6.98635e-05
7.09959e-05
7.40317e-05
7.0055e-05
7.0993e-05
7.41001e-05
6.98508e-05
5.31477e-05
5.91246e-05
6.91425e-05
6.98389e-05
5.93033e-05
6.91627e-05
7.09728e-05
7.41966e-05
7.00604e-05
7.41334e-05
7.09755e-05
6.96343e-05
6.96167e-05
8.75181e-05
7.24404e-05
7.24346e-05
7.24398e-05
7.24339e-05
8.75877e-05
5.70404e-05
3.89739e-05
6.88096e-05
5.91107e-05
5.69464e-05
3.9102e-05
6.8834e-05
5.71043e-05
3.8994e-05
6.88216e-05
5.91217e-05
5.70149e-05
3.91201e-05
6.88458e-05
8.74813e-05
7.24619e-05
7.2456e-05
8.74102e-05
7.24625e-05
7.24566e-05
5.723e-05
6.88704e-05
5.92259e-05
3.94899e-05
3.93633e-05
6.8847e-05
5.73213e-05
5.72972e-05
6.88824e-05
5.92364e-05
3.95047e-05
3.93824e-05
6.8859e-05
5.73852e-05
6.96533e-05
6.96714e-05
6.96555e-05
6.96735e-05
8.7257e-05
7.25066e-05
7.25001e-05
8.71751e-05
7.25071e-05
7.25009e-05
5.66534e-05
3.87056e-05
5.88754e-05
6.87969e-05
6.87681e-05
3.858e-05
5.67499e-05
5.67209e-05
3.87263e-05
5.88871e-05
6.88078e-05
6.87826e-05
3.85965e-05
5.68154e-05
5.64536e-05
6.8728e-05
3.81786e-05
5.87522e-05
5.63543e-05
6.87575e-05
3.83074e-05
5.65218e-05
6.8743e-05
3.81975e-05
5.87647e-05
5.64196e-05
6.87686e-05
3.83273e-05
8.72918e-05
7.24847e-05
7.24785e-05
7.24841e-05
7.24777e-05
8.73715e-05
6.98212e-05
6.9096e-05
5.854e-05
5.23499e-05
6.98088e-05
6.91159e-05
5.87215e-05
7.1009e-05
7.00208e-05
7.39786e-05
7.10126e-05
7.38989e-05
7.10328e-05
7.37868e-05
7.00186e-05
7.10291e-05
7.38689e-05
6.98224e-05
5.2562e-05
6.91385e-05
5.90142e-05
6.98346e-05
6.91176e-05
5.88377e-05
6.98234e-05
6.90966e-05
5.85441e-05
5.23536e-05
6.98111e-05
6.91168e-05
5.87342e-05
7.10128e-05
7.0029e-05
7.39987e-05
7.393e-05
7.10157e-05
7.1036e-05
7.38211e-05
7.00233e-05
7.1033e-05
7.38897e-05
6.98246e-05
5.25636e-05
6.91385e-05
5.90262e-05
6.91181e-05
5.88418e-05
6.98368e-05
6.96554e-05
6.96732e-05
8.72547e-05
7.25012e-05
7.25062e-05
8.71782e-05
7.25018e-05
7.25068e-05
5.67212e-05
3.87264e-05
5.88872e-05
6.88098e-05
3.85958e-05
6.87807e-05
5.68164e-05
5.66556e-05
3.87072e-05
5.88737e-05
6.87973e-05
6.87683e-05
3.85751e-05
5.67498e-05
5.65148e-05
6.87405e-05
3.81969e-05
5.87652e-05
3.8326e-05
5.64216e-05
6.87704e-05
5.64507e-05
6.8728e-05
3.8176e-05
5.87529e-05
5.63556e-05
6.8758e-05
3.83087e-05
8.72942e-05
7.24794e-05
7.24844e-05
7.24788e-05
7.24838e-05
8.73695e-05
6.96531e-05
6.96712e-05
6.98243e-05
5.85411e-05
6.90983e-05
5.23594e-05
6.98119e-05
5.87323e-05
6.91182e-05
7.10133e-05
7.00294e-05
7.39957e-05
7.10162e-05
7.39265e-05
7.10365e-05
7.38131e-05
7.00239e-05
7.10334e-05
7.38885e-05
6.98255e-05
5.25589e-05
5.90247e-05
6.91408e-05
6.98377e-05
5.8839e-05
6.91198e-05
6.98222e-05
6.90973e-05
5.85417e-05
5.2359e-05
6.98099e-05
6.91175e-05
5.87235e-05
7.10092e-05
7.00247e-05
7.39734e-05
7.39055e-05
7.10127e-05
7.10331e-05
7.37946e-05
7.00187e-05
7.10295e-05
7.38655e-05
6.98234e-05
5.25589e-05
6.91392e-05
5.90158e-05
6.91188e-05
5.8839e-05
6.98355e-05
6.98233e-05
5.85422e-05
6.91014e-05
5.23529e-05
6.98112e-05
5.87322e-05
6.91144e-05
7.10127e-05
7.00266e-05
7.40005e-05
7.39205e-05
7.10158e-05
7.10361e-05
7.38107e-05
7.00246e-05
7.1033e-05
7.38915e-05
6.98247e-05
5.25629e-05
5.90245e-05
6.91357e-05
5.88396e-05
6.91218e-05
6.98366e-05
6.98219e-05
6.90965e-05
5.85388e-05
5.23504e-05
6.98096e-05
6.91166e-05
5.87265e-05
7.101e-05
7.00223e-05
7.39793e-05
7.38991e-05
7.10131e-05
7.10334e-05
7.37882e-05
7.00203e-05
7.10302e-05
7.38704e-05
6.98231e-05
5.25621e-05
6.91382e-05
5.90187e-05
6.91179e-05
5.88362e-05
6.98352e-05
6.96547e-05
6.96727e-05
8.72602e-05
7.25011e-05
7.25069e-05
8.71821e-05
7.25017e-05
7.25075e-05
5.67238e-05
3.87241e-05
5.8885e-05
6.88071e-05
3.85976e-05
6.8782e-05
5.68165e-05
5.66596e-05
3.87082e-05
5.88772e-05
6.87977e-05
6.8769e-05
3.85811e-05
5.67532e-05
5.65171e-05
6.87424e-05
3.81947e-05
5.87612e-05
3.83268e-05
5.64224e-05
6.87679e-05
5.64527e-05
6.87288e-05
3.818e-05
5.87549e-05
5.63596e-05
6.87584e-05
3.83094e-05
8.72988e-05
7.24793e-05
7.24851e-05
7.24786e-05
7.24845e-05
8.73743e-05
6.96543e-05
6.96723e-05
6.98225e-05
5.85382e-05
6.9102e-05
5.23626e-05
6.98104e-05
5.87296e-05
6.91151e-05
7.10114e-05
7.00251e-05
7.39754e-05
7.39078e-05
7.10143e-05
7.10347e-05
7.3796e-05
7.00193e-05
7.10317e-05
7.38679e-05
6.98238e-05
5.25571e-05
5.90215e-05
6.91364e-05
5.8836e-05
6.91223e-05
6.98359e-05
6.98239e-05
5.85417e-05
6.9098e-05
5.23642e-05
6.98114e-05
5.87351e-05
6.91183e-05
7.10125e-05
7.00295e-05
7.39957e-05
7.39248e-05
7.10154e-05
7.10357e-05
7.38117e-05
7.00239e-05
7.10327e-05
7.3888e-05
6.98251e-05
5.25588e-05
5.90268e-05
6.914e-05
5.88396e-05
6.91195e-05
6.98374e-05
8.72567e-05
7.25065e-05
7.25006e-05
8.71801e-05
7.25071e-05
7.25012e-05
5.66556e-05
3.87093e-05
5.88775e-05
6.87959e-05
5.67518e-05
3.85782e-05
6.87708e-05
5.67231e-05
3.87255e-05
5.88883e-05
6.88078e-05
5.68148e-05
3.85998e-05
6.87826e-05
5.6454e-05
6.8731e-05
3.81771e-05
5.87551e-05
5.63558e-05
3.83108e-05
6.8757e-05
5.65157e-05
6.87433e-05
3.81995e-05
5.87661e-05
5.64235e-05
3.83264e-05
6.87687e-05
8.7297e-05
7.24847e-05
7.24788e-05
8.73717e-05
7.24841e-05
7.24782e-05
6.96539e-05
6.9672e-05
6.96557e-05
6.96736e-05
6.9633e-05
6.96153e-05
6.9635e-05
6.96176e-05
8.75144e-05
7.24404e-05
7.24342e-05
7.24398e-05
7.24333e-05
8.75876e-05
5.70389e-05
3.89742e-05
6.88071e-05
5.91079e-05
5.6946e-05
6.8835e-05
3.90991e-05
5.71034e-05
3.89918e-05
6.88213e-05
5.91209e-05
5.70152e-05
6.8846e-05
3.91181e-05
8.74817e-05
7.24619e-05
7.24554e-05
8.7405e-05
7.24625e-05
7.24562e-05
5.72297e-05
6.88718e-05
5.92233e-05
3.94861e-05
6.88447e-05
5.73198e-05
3.93626e-05
5.72992e-05
6.88827e-05
5.92354e-05
3.95043e-05
6.8859e-05
5.73844e-05
3.93815e-05
6.95786e-05
6.95958e-05
6.95811e-05
6.9598e-05
8.76899e-05
7.2418e-05
7.24114e-05
8.76186e-05
7.24186e-05
7.24124e-05
5.77627e-05
4.02528e-05
5.95502e-05
6.89425e-05
6.89156e-05
4.01165e-05
5.78796e-05
5.7847e-05
4.02491e-05
5.95622e-05
6.8952e-05
6.89307e-05
4.01459e-05
5.79072e-05
5.75976e-05
6.88808e-05
3.97429e-05
5.94414e-05
5.75006e-05
6.89075e-05
3.98696e-05
5.76548e-05
6.88953e-05
3.97648e-05
5.94545e-05
5.75746e-05
6.89182e-05
3.98845e-05
8.77201e-05
7.23971e-05
7.23904e-05
7.23963e-05
7.23897e-05
8.77847e-05
6.98509e-05
5.33319e-05
6.91839e-05
5.95716e-05
6.91626e-05
5.93988e-05
6.98626e-05
7.09954e-05
7.40366e-05
7.00544e-05
7.09926e-05
7.41017e-05
6.98499e-05
5.31423e-05
6.91405e-05
5.91267e-05
6.91609e-05
6.98379e-05
5.93053e-05
7.09722e-05
7.41996e-05
7.00599e-05
7.41371e-05
7.0975e-05
6.98725e-05
6.91858e-05
5.96547e-05
5.38624e-05
6.98612e-05
6.9207e-05
5.98157e-05
7.09279e-05
7.00812e-05
7.43592e-05
7.42953e-05
7.0931e-05
7.09515e-05
7.42029e-05
7.00799e-05
7.09483e-05
7.42712e-05
6.98732e-05
5.40352e-05
6.92303e-05
6.00594e-05
6.92091e-05
5.99038e-05
6.9884e-05
6.98747e-05
6.91863e-05
5.96596e-05
5.38657e-05
6.98634e-05
6.92076e-05
5.98266e-05
7.09315e-05
7.00892e-05
7.43797e-05
7.43243e-05
7.09339e-05
7.09545e-05
7.42328e-05
7.00842e-05
7.09519e-05
7.42928e-05
6.98753e-05
5.4037e-05
6.92308e-05
6.00697e-05
6.92097e-05
5.99095e-05
6.98862e-05
8.75165e-05
7.24351e-05
7.24401e-05
7.24345e-05
7.24394e-05
8.75852e-05
5.71049e-05
3.89901e-05
6.88198e-05
5.91203e-05
6.88479e-05
5.701e-05
3.91194e-05
5.70412e-05
3.89707e-05
6.88073e-05
5.91077e-05
3.9099e-05
5.69451e-05
6.88354e-05
8.74788e-05
7.24565e-05
7.24615e-05
7.24572e-05
8.74076e-05
7.24622e-05
5.72936e-05
6.88846e-05
5.92351e-05
3.95057e-05
6.88573e-05
3.93789e-05
5.73857e-05
5.72279e-05
6.8872e-05
5.92217e-05
3.94855e-05
3.936e-05
6.88448e-05
5.73202e-05
6.96326e-05
6.9615e-05
6.95809e-05
6.95977e-05
8.76869e-05
7.24126e-05
7.24175e-05
8.76206e-05
7.24133e-05
7.24182e-05
5.78391e-05
4.02624e-05
5.95626e-05
6.89546e-05
4.01374e-05
6.89286e-05
5.79249e-05
5.7772e-05
4.0242e-05
5.95484e-05
6.89419e-05
6.89161e-05
4.01194e-05
5.78586e-05
5.76574e-05
6.88937e-05
3.97617e-05
5.94544e-05
3.98863e-05
5.75689e-05
6.892e-05
5.75944e-05
6.88813e-05
3.97433e-05
5.94417e-05
5.75039e-05
6.89074e-05
3.98666e-05
8.77217e-05
7.23916e-05
7.23966e-05
7.23909e-05
7.23959e-05
8.7786e-05
6.95784e-05
6.95954e-05
6.98495e-05
5.33277e-05
6.91845e-05
5.95622e-05
6.91632e-05
5.93951e-05
6.98611e-05
7.09923e-05
7.40114e-05
7.00498e-05
7.09889e-05
7.40764e-05
6.98485e-05
5.3147e-05
6.91411e-05
5.91234e-05
6.91616e-05
6.98366e-05
5.92952e-05
7.09685e-05
7.41742e-05
7.00556e-05
7.41121e-05
7.09718e-05
6.98756e-05
5.96578e-05
6.91879e-05
5.38706e-05
6.98644e-05
5.98248e-05
6.92091e-05
7.09319e-05
7.009e-05
7.43772e-05
7.4321e-05
7.09344e-05
7.0955e-05
7.42291e-05
7.00849e-05
7.09524e-05
7.42905e-05
6.98763e-05
5.40334e-05
6.00677e-05
6.92323e-05
5.99071e-05
6.92112e-05
6.9887e-05
6.98731e-05
6.91869e-05
5.96553e-05
5.38698e-05
6.98619e-05
6.92081e-05
5.98174e-05
7.09276e-05
7.00848e-05
7.43547e-05
7.42987e-05
7.09306e-05
7.09513e-05
7.42078e-05
7.00795e-05
7.09481e-05
7.42672e-05
6.98737e-05
5.4033e-05
6.92314e-05
6.00607e-05
6.92102e-05
5.99043e-05
6.98845e-05
6.98508e-05
5.33324e-05
5.95702e-05
6.91811e-05
5.93972e-05
6.91665e-05
6.98623e-05
7.09953e-05
7.40286e-05
7.0056e-05
7.41038e-05
7.09924e-05
6.98497e-05
5.31422e-05
5.91244e-05
6.91439e-05
5.93036e-05
6.98379e-05
6.91586e-05
7.0972e-05
7.42014e-05
7.00578e-05
7.4129e-05
7.09749e-05
6.98492e-05
5.33316e-05
6.91835e-05
5.95645e-05
6.91623e-05
5.93935e-05
6.98608e-05
7.09927e-05
7.40082e-05
7.00517e-05
7.09898e-05
7.40827e-05
6.98482e-05
5.31395e-05
6.91402e-05
5.91208e-05
6.98363e-05
6.91606e-05
5.92978e-05
7.09695e-05
7.41804e-05
7.00536e-05
7.41086e-05
7.09723e-05
6.98743e-05
5.96581e-05
6.91894e-05
5.38655e-05
6.98633e-05
5.98246e-05
6.92047e-05
7.09311e-05
7.00868e-05
7.43814e-05
7.43154e-05
7.09338e-05
7.09543e-05
7.42253e-05
7.00853e-05
7.09515e-05
7.42936e-05
6.98751e-05
5.40381e-05
6.00681e-05
6.92278e-05
5.99078e-05
6.9213e-05
6.98858e-05
6.98729e-05
6.91859e-05
5.96541e-05
5.38626e-05
6.98616e-05
6.92071e-05
5.98193e-05
7.09286e-05
7.00826e-05
7.43607e-05
7.42956e-05
7.09313e-05
7.09518e-05
7.4205e-05
7.00811e-05
7.09491e-05
7.42728e-05
6.98735e-05
5.40367e-05
6.92302e-05
6.0063e-05
6.92092e-05
5.99033e-05
6.98843e-05
8.75179e-05
7.24349e-05
7.24408e-05
7.24343e-05
7.24401e-05
8.75915e-05
5.71079e-05
3.89931e-05
6.88207e-05
5.91176e-05
6.88454e-05
5.70141e-05
3.91177e-05
5.70419e-05
3.89764e-05
6.8808e-05
5.91102e-05
3.91012e-05
5.6949e-05
6.88358e-05
8.74854e-05
7.24564e-05
7.24622e-05
7.2457e-05
8.74102e-05
7.24629e-05
5.72967e-05
6.88819e-05
5.9233e-05
3.95043e-05
6.88584e-05
3.93823e-05
5.73883e-05
5.72323e-05
6.88727e-05
5.92255e-05
3.94882e-05
3.9365e-05
6.88455e-05
5.73226e-05
6.96337e-05
6.96163e-05
6.95801e-05
6.95972e-05
8.7693e-05
7.24124e-05
7.24182e-05
8.76232e-05
7.24131e-05
7.24189e-05
5.78394e-05
4.02599e-05
5.95591e-05
6.89519e-05
4.01418e-05
6.89299e-05
5.79284e-05
5.77768e-05
4.02446e-05
5.95514e-05
6.89426e-05
6.89167e-05
4.01232e-05
5.7863e-05
5.76638e-05
6.88948e-05
3.97652e-05
5.9451e-05
3.98857e-05
5.75723e-05
6.89177e-05
5.75957e-05
6.88817e-05
3.97479e-05
5.94441e-05
5.75078e-05
6.89081e-05
3.98693e-05
8.77238e-05
7.23914e-05
7.23973e-05
7.23907e-05
7.23965e-05
8.77916e-05
6.95796e-05
6.95965e-05
6.98501e-05
5.33268e-05
5.95665e-05
6.9182e-05
5.93935e-05
6.91672e-05
6.98615e-05
7.09939e-05
7.40136e-05
7.00504e-05
7.40788e-05
7.09911e-05
6.98489e-05
5.31508e-05
5.9121e-05
6.91445e-05
5.93002e-05
6.98372e-05
6.91594e-05
7.09707e-05
7.41761e-05
7.00559e-05
7.41146e-05
7.09734e-05
6.98515e-05
5.3328e-05
5.95718e-05
6.91855e-05
5.93972e-05
6.91641e-05
6.98632e-05
7.0995e-05
7.40308e-05
7.00551e-05
7.09922e-05
7.4099e-05
6.98505e-05
5.31521e-05
5.91247e-05
6.91419e-05
6.98385e-05
5.93057e-05
6.91625e-05
7.09719e-05
7.4196e-05
7.00605e-05
7.41324e-05
7.09746e-05
6.98736e-05
5.96543e-05
6.91902e-05
5.38732e-05
6.98625e-05
5.98211e-05
6.92056e-05
7.09297e-05
7.00854e-05
7.43565e-05
7.43014e-05
7.09322e-05
7.09529e-05
7.42101e-05
7.00802e-05
7.09502e-05
7.42695e-05
6.98744e-05
5.40321e-05
6.0064e-05
6.92288e-05
5.9904e-05
6.92137e-05
6.98851e-05
6.98752e-05
5.96583e-05
6.91878e-05
5.38747e-05
6.9864e-05
5.98264e-05
6.92091e-05
7.0931e-05
7.009e-05
7.43758e-05
7.43196e-05
7.09335e-05
7.09541e-05
7.42279e-05
7.00848e-05
7.09515e-05
7.4289e-05
6.98759e-05
5.40336e-05
6.00693e-05
6.92324e-05
5.99085e-05
6.92111e-05
6.98867e-05
6.96334e-05
6.96159e-05
6.96351e-05
6.96178e-05
8.76891e-05
7.24179e-05
7.24121e-05
8.76228e-05
7.24186e-05
7.24128e-05
5.77746e-05
4.02445e-05
5.95523e-05
6.89406e-05
4.01225e-05
6.89187e-05
5.78618e-05
5.78411e-05
4.02603e-05
5.95629e-05
6.89525e-05
4.01417e-05
6.89307e-05
5.7924e-05
5.7595e-05
6.88834e-05
3.97456e-05
5.94443e-05
5.7506e-05
3.98693e-05
6.89064e-05
5.76577e-05
6.88953e-05
3.97653e-05
5.94552e-05
5.75722e-05
3.98871e-05
6.89184e-05
8.77238e-05
7.2397e-05
7.23912e-05
7.23963e-05
7.23904e-05
8.7788e-05
6.95793e-05
6.95963e-05
6.95812e-05
6.95981e-05
1.504e-05
1.50402e-05
1.48318e-05
1.49322e-05
1.49324e-05
1.52913e-05
1.54092e-05
3.78584e-05
2.48862e-05
2.48865e-05
1.80991e-05
3.77302e-05
2.49573e-05
2.49626e-05
3.73133e-05
1.79572e-05
2.46528e-05
2.46577e-05
2.45697e-05
2.45759e-05
3.74401e-05
3.73154e-05
1.7945e-05
2.46572e-05
2.46629e-05
2.45648e-05
2.45562e-05
3.74482e-05
3.73191e-05
1.7946e-05
2.46655e-05
2.46642e-05
2.45638e-05
2.45604e-05
3.74515e-05
3.73172e-05
1.79584e-05
2.46453e-05
2.46452e-05
3.74455e-05
2.45761e-05
2.45776e-05
3.78535e-05
2.48808e-05
2.48859e-05
1.80987e-05
3.77311e-05
2.49635e-05
2.49674e-05
3.89355e-05
1.85229e-05
2.59252e-05
2.59185e-05
2.58323e-05
2.58452e-05
3.90572e-05
3.78642e-05
2.48774e-05
2.48662e-05
1.81121e-05
2.49735e-05
3.77225e-05
2.49736e-05
3.89295e-05
1.8507e-05
2.59298e-05
2.59368e-05
2.58272e-05
2.58171e-05
3.90622e-05
3.78671e-05
2.48749e-05
2.48728e-05
1.81142e-05
2.49835e-05
3.77265e-05
2.49772e-05
3.89321e-05
1.85081e-05
2.5938e-05
2.5937e-05
2.58243e-05
2.58196e-05
3.90658e-05
3.8938e-05
1.85267e-05
2.59138e-05
2.5919e-05
2.58416e-05
2.58457e-05
3.90576e-05
1.50976e-05
1.51501e-05
1.51503e-05
1.52625e-05
1.52627e-05
1.56501e-05
1.55288e-05
1.50977e-05
1.51501e-05
1.51503e-05
1.52625e-05
1.52627e-05
1.56501e-05
1.55288e-05
1.50978e-05
1.515e-05
1.51503e-05
1.52624e-05
1.52627e-05
1.565e-05
1.55287e-05
1.50976e-05
1.515e-05
1.51503e-05
1.52624e-05
1.52627e-05
1.565e-05
1.55287e-05
1.50401e-05
1.50403e-05
1.48319e-05
1.49322e-05
1.49324e-05
1.52913e-05
1.54092e-05
1.504e-05
1.50403e-05
1.4832e-05
1.49321e-05
1.49325e-05
1.52912e-05
1.54091e-05
1.504e-05
1.50403e-05
1.48319e-05
1.49321e-05
1.49324e-05
1.52912e-05
1.54091e-05
1.47492e-05
1.47233e-05
1.47236e-05
1.48267e-05
1.48269e-05
1.5175e-05
1.50605e-05
1.47492e-05
1.47234e-05
1.47236e-05
1.48267e-05
1.48269e-05
1.51751e-05
1.50605e-05
1.47493e-05
1.47234e-05
1.47237e-05
1.48267e-05
1.4827e-05
1.51749e-05
1.50604e-05
1.47492e-05
1.47233e-05
1.47236e-05
1.48267e-05
1.4827e-05
1.51749e-05
1.50604e-05
1.95966e-05
2.92112e-05
3.35532e-05
1.79996e-05
3.34156e-05
1.79641e-05
1.96605e-05
2.2372e-05
2.75767e-05
3.95822e-05
4.53062e-05
2.23338e-05
2.76839e-05
3.97094e-05
1.94657e-05
2.89198e-05
3.2994e-05
1.78107e-05
1.94049e-05
3.3133e-05
1.78431e-05
2.25882e-05
4.00887e-05
4.55166e-05
2.80286e-05
2.79175e-05
3.99613e-05
2.26324e-05
1.96144e-05
2.92108e-05
1.80023e-05
3.3549e-05
1.79665e-05
3.34195e-05
1.96423e-05
2.23746e-05
2.7585e-05
3.95877e-05
4.53061e-05
2.23308e-05
2.76741e-05
3.96924e-05
1.94504e-05
2.89229e-05
1.78127e-05
3.29967e-05
1.94241e-05
1.78456e-05
3.3127e-05
2.25863e-05
4.00673e-05
4.55231e-05
2.80283e-05
2.79285e-05
3.99657e-05
2.26303e-05
3.81387e-05
1.82281e-05
2.52736e-05
2.52746e-05
2.52004e-05
2.52032e-05
3.82641e-05
3.70293e-05
1.78432e-05
2.42662e-05
2.42712e-05
3.68934e-05
2.43416e-05
2.43502e-05
1.91034e-05
3.21424e-05
1.75218e-05
2.80725e-05
1.90513e-05
3.22751e-05
1.75644e-05
2.20657e-05
2.73411e-05
4.48861e-05
3.93202e-05
2.72318e-05
3.91884e-05
2.21385e-05
2.18939e-05
3.87982e-05
2.6896e-05
4.46583e-05
2.7002e-05
2.18178e-05
3.89343e-05
1.92207e-05
2.83581e-05
3.26999e-05
1.77028e-05
3.25691e-05
1.76603e-05
1.92773e-05
1.91065e-05
3.21501e-05
1.75221e-05
2.80686e-05
1.90541e-05
3.228e-05
1.75647e-05
2.20822e-05