/*--------------------------------*- C++ -*----------------------------------*\
| =========                 |                                                 |
| \\      /  F ield         | OpenFOAM: The Open Source CFD Toolbox           |
|  \\    /   O peration     | Version:  v1906                                 |
|   \\  /    A nd           | Web:      www.OpenFOAM.com                      |
|    \\/     M anipulation  |                                                 |
\*---------------------------------------------------------------------------*/
FoamFile
{
    version     2.0;
    format      ascii;
    class       volScalarField;
    location    "1000";
    object      nut;
}
// * * * * * * * * * * * * * * * * * * * * * * * * * * * * * * * * * * * * * //

dimensions      [0 2 -1 0 0 0 0];


internalField   nonuniform List<scalar> 
43248
(
0.000136607
0.000138624
0.000138624
0.000136846
0.000138638
0.000138624
0.000138635
0.000138643
0.000136868
0.00013864
0.000138649
0.000136898
0.00012237
0.000122365
0.000122373
0.000122387
2.36123e-05
2.36118e-05
7.37307e-05
7.37355e-05
9.18226e-05
5.00172e-05
9.20704e-05
9.18348e-05
5.00169e-05
5.00044e-05
9.2057e-05
0.00012068
9.38201e-05
0.000133986
0.000133121
0.000121333
0.000120683
0.000137835
9.38381e-05
0.000133984
9.35262e-05
0.000133119
0.000121336
2.3612e-05
2.36076e-05
0.000135956
7.3738e-05
7.37249e-05
7.36277e-05
7.3628e-05
2.36126e-05
2.36082e-05
5.00157e-05
9.20718e-05
9.38261e-05
0.000133991
0.000121326
5.00099e-05
9.20566e-05
0.000133992
9.37994e-05
0.000121325
0.000120684
0.000137848
9.38152e-05
0.000133982
9.35359e-05
0.000133119
0.000121332
9.18228e-05
5.00161e-05
5.00033e-05
9.20645e-05
0.000120684
0.000137857
0.000133996
9.38179e-05
0.000133131
9.35368e-05
0.000121331
9.18224e-05
5.00118e-05
5.0003e-05
9.20608e-05
2.36101e-05
7.3716e-05
7.37332e-05
2.36119e-05
0.00012069
0.000134005
9.38321e-05
0.000133143
0.000121327
0.00012069
0.000137864
0.000134012
9.38336e-05
0.000133148
9.35272e-05
0.000121335
9.18399e-05
5.00129e-05
9.20585e-05
9.18305e-05
5.00154e-05
5.00033e-05
9.20707e-05
0.000135999
7.37308e-05
7.37339e-05
7.36355e-05
7.36321e-05
2.36116e-05
2.36073e-05
2.36113e-05
2.36069e-05
2.36104e-05
2.36094e-05
9.72618e-05
0.000112671
7.37035e-05
4.79344e-05
4.79367e-05
0.000112503
9.73109e-05
9.72913e-05
0.000112675
7.36955e-05
4.79331e-05
4.79287e-05
0.000112488
9.73504e-05
7.88228e-05
2.14921e-05
2.14903e-05
2.14904e-05
2.14879e-05
7.88389e-05
3.62683e-05
4.05327e-05
8.80212e-05
9.19372e-05
3.62643e-05
4.05399e-05
8.81166e-05
2.01021e-05
5.00103e-05
7.60369e-05
7.59926e-05
2.01042e-05
3.62672e-05
9.1949e-05
4.05443e-05
8.82159e-05
4.05367e-05
8.81216e-05
3.62726e-05
3.62686e-05
4.0537e-05
8.80446e-05
9.19339e-05
3.62676e-05
4.0536e-05
8.81236e-05
2.01031e-05
5.00144e-05
7.60604e-05
7.60189e-05
2.01051e-05
2.01037e-05
7.59722e-05
5.00115e-05
2.01017e-05
7.6014e-05
3.6271e-05
9.19595e-05
4.05396e-05
8.82233e-05
4.05409e-05
8.81416e-05
3.62718e-05
2.36099e-05
2.36097e-05
7.87987e-05
2.14864e-05
2.1489e-05
7.87753e-05
2.14885e-05
2.1491e-05
9.72739e-05
0.000112652
7.36955e-05
4.79347e-05
0.0001125
4.79247e-05
9.73332e-05
9.72631e-05
0.000112657
7.36961e-05
4.79424e-05
4.79325e-05
0.000112516
9.73121e-05
9.72051e-05
4.79171e-05
0.000112253
7.36705e-05
0.00011241
9.71475e-05
4.79262e-05
9.71867e-05
4.7925e-05
0.000112268
7.36569e-05
9.71373e-05
4.7934e-05
0.000112416
7.88197e-05
2.14902e-05
2.14927e-05
2.14881e-05
2.14906e-05
7.88379e-05
2.36105e-05
2.36103e-05
2.01033e-05
5.00083e-05
7.60583e-05
7.60171e-05
2.01053e-05
3.62692e-05
9.19533e-05
8.8231e-05
4.05438e-05
8.81336e-05
4.05361e-05
3.6273e-05
2.01016e-05
5.00069e-05
7.60318e-05
7.59889e-05
2.01037e-05
3.62679e-05
9.19549e-05
4.05434e-05
8.82011e-05
4.05359e-05
8.8128e-05
3.62693e-05
3.62706e-05
8.80354e-05
4.0532e-05
9.19424e-05
3.6266e-05
8.81318e-05
4.05392e-05
2.01037e-05
5.00128e-05
7.60616e-05
7.60171e-05
2.01057e-05
2.01043e-05
7.59704e-05
5.00103e-05
2.01023e-05
7.6015e-05
3.62691e-05
9.19492e-05
8.82264e-05
4.05436e-05
8.81361e-05
4.0536e-05
3.62747e-05
3.62673e-05
4.05319e-05
8.80372e-05
9.19399e-05
3.62651e-05
4.05391e-05
8.81127e-05
2.01025e-05
5.00104e-05
7.6043e-05
7.59971e-05
2.01045e-05
2.01031e-05
7.59507e-05
5.00053e-05
2.01011e-05
7.59962e-05
3.62679e-05
9.19479e-05
4.05435e-05
8.82148e-05
4.05359e-05
8.8131e-05
3.62717e-05
2.36079e-05
9.72678e-05
0.00011265
7.36877e-05
4.79276e-05
0.000112488
4.79265e-05
9.73274e-05
9.72588e-05
0.000112678
7.36982e-05
4.79392e-05
4.79382e-05
0.000112502
9.73155e-05
7.88192e-05
2.14892e-05
2.14926e-05
2.14871e-05
2.14905e-05
7.88441e-05
2.36098e-05
3.62672e-05
8.8035e-05
4.05364e-05
9.19337e-05
3.62663e-05
8.81143e-05
4.05355e-05
2.01028e-05
5.00099e-05
7.604e-05
7.59998e-05
2.01048e-05
2.01034e-05
7.59935e-05
3.62697e-05
9.19612e-05
8.82123e-05
4.05392e-05
8.81334e-05
4.05403e-05
3.62702e-05
3.62698e-05
8.80365e-05
4.05325e-05
9.1943e-05
3.62668e-05
8.81223e-05
4.05395e-05
2.01034e-05
5.00075e-05
7.60544e-05
7.60122e-05
2.01055e-05
2.01041e-05
7.59662e-05
5.00063e-05
2.0102e-05
7.60085e-05
3.62696e-05
9.19574e-05
8.82227e-05
4.05439e-05
8.81319e-05
4.05365e-05
3.62741e-05
7.87974e-05
2.14891e-05
2.14861e-05
7.87797e-05
2.14911e-05
2.14882e-05
9.72577e-05
0.000112662
7.3704e-05
4.79387e-05
0.000112506
4.79375e-05
9.73182e-05
9.7279e-05
0.000112657
7.36998e-05
4.79342e-05
0.000112497
4.79243e-05
9.73292e-05
9.71903e-05
4.79292e-05
0.000112257
7.36634e-05
9.71316e-05
0.000112427
4.79314e-05
9.72031e-05
4.79167e-05
0.000112247
7.36661e-05
9.71522e-05
0.000112422
4.79257e-05
7.88232e-05
2.14928e-05
2.14899e-05
2.14907e-05
2.14878e-05
7.88403e-05
2.36095e-05
2.36093e-05
2.36091e-05
2.3609e-05
0.000119501
0.00013665
0.000129789
0.000129858
0.0001297
0.000129688
0.000119606
0.000119501
0.000136556
0.000129802
0.000129803
0.000129669
0.000129677
0.000119597
0.000119479
0.000136553
0.000129924
0.000129922
0.000129618
0.000129628
0.000119629
0.00011948
0.000136541
0.000129905
0.000129899
0.000129643
0.000129647
0.000119633
0.000120253
0.000120257
0.000119985
0.000132087
0.000131846
0.000121704
0.000120249
0.000120253
0.000119981
0.000119985
0.000132086
0.000131846
0.000120256
0.000120265
0.000119997
0.000132084
0.000131843
0.000121727
0.00012026
0.000120269
0.000119992
0.000120001
0.000132086
0.000131846
0.000132464
0.000117031
0.000134016
0.000120988
0.000132042
0.000117304
0.000134473
0.000128385
0.000122201
9.3679e-05
0.000107744
0.000121954
0.000107537
0.000128809
0.000132676
0.000121026
0.000117608
0.000135091
0.000117335
0.000134594
0.00013298
0.000132491
0.000117043
0.000134019
0.000120992
0.000132044
0.000117313
0.000134472
0.00012837
0.000122182
9.36802e-05
0.000107752
0.00010754
0.000121961
0.00012883
0.000128295
0.000107309
0.000121618
9.36769e-05
0.000127941
0.000107519
0.000121821
0.000132686
0.000121027
0.000117617
0.000135094
0.000117345
0.000134597
0.000132993
0.000119324
0.000136205
0.000129207
0.000129218
0.000129397
0.000119233
0.000129403
0.000128552
0.000122131
9.36754e-05
0.000107735
0.000122014
0.000107549
0.000128596
0.000132803
0.00012103
0.000117599
0.00013479
0.00011735
0.00013477
0.000132741
0.000128545
0.000122087
9.36782e-05
0.000107733
0.000107528
0.000122025
0.000128583
0.000132823
0.000121022
0.000134789
0.000117582
0.000134768
0.000117347
0.000132744
0.000132295
0.000117048
0.000134227
0.000120988
0.000132203
0.000117302
0.000134268
0.000128528
0.000122133
9.36929e-05
0.000107751
0.000122013
0.000107546
0.000128581
0.000128139
0.000107315
0.000121661
9.36633e-05
0.000128075
0.00012176
0.00010751
0.000132741
0.000121026
0.000117602
0.000134945
0.000117348
0.000134749
0.000132748
0.000132247
0.000134224
0.000117046
0.000120985
0.000132301
0.000134251
0.000117298
0.00012854
0.00012213
9.36855e-05
0.00010773
0.000107544
0.000122016
0.000128587
0.000128147
0.000107311
0.000121649
9.36646e-05
0.000128101
0.000107503
0.000121762
0.000132849
0.000121024
0.000134945
0.000117601
0.00013475
0.000117349
0.000132821
0.000132221
0.000134235
0.000117042
0.000120988
0.000132242
0.000134263
0.000117297
0.000128551
0.000122148
9.36828e-05
0.000107733
0.000122022
0.000107541
0.000128592
0.000128151
0.000107514
0.000132805
0.000121037
0.000134821
0.000117597
0.000134799
0.000117345
0.000132703
0.000132224
0.000134226
0.000117052
0.000120993
0.00013227
0.00013425
0.0001173
0.000128541
0.000122158
9.36816e-05
0.000107745
0.00010754
0.000122014
0.000128586
0.000128145
0.000107309
0.000121647
9.3673e-05
0.000128105
0.000107515
0.000121757
0.000132834
0.00012103
0.000134937
0.0001176
0.000134754
0.000117354
0.000132793
0.000119347
0.000136144
0.000129223
0.000129225
0.000119214
0.000129423
0.000129429
0.000150045
0.000101449
0.000101444
8.24803e-05
8.26448e-05
0.000102199
0.000102196
8.28908e-05
0.000102227
0.000102184
0.000102237
0.000102203
8.28603e-05
0.000102229
0.000102229
8.25643e-05
8.23439e-05
8.20417e-05
0.000101424
0.000101411
9.92311e-05
9.92273e-05
8.225e-05
8.21428e-05
0.00010143
0.000101403
9.92647e-05
9.92195e-05
0.00010142
9.9268e-05
9.92414e-05
8.22112e-05
8.22035e-05
0.000101443
9.92626e-05
9.92648e-05
8.1977e-05
0.000151072
0.000151075
0.000151064
0.00015107
7.00081e-05
4.9551e-05
6.9099e-05
4.95654e-05
2.36301e-05
2.36265e-05
7.00229e-05
4.95542e-05
6.90913e-05
4.95593e-05
0.00015005
0.00015004
0.000150046
0.000146968
0.00014697
0.00014696
0.000146966
6.69542e-05
6.572e-05
0.000125984
0.00010069
6.60262e-05
6.6354e-05
0.000124955
2.36276e-05
2.36242e-05
6.69643e-05
0.000125988
6.57086e-05
0.000100686
6.60244e-05
0.000124958
6.63844e-05
6.11012e-05
6.11014e-05
8.22233e-05
6.14534e-05
6.1453e-05
2.3633e-05
2.36365e-05
2.36317e-05
2.36353e-05
8.28459e-05
6.09572e-05
6.09577e-05
6.05893e-05
6.05946e-05
6.7926e-05
4.95545e-05
4.95389e-05
6.89006e-05
6.79422e-05
4.95523e-05
4.95483e-05
6.89063e-05
6.45826e-05
0.00010303
6.5404e-05
0.000126987
6.47061e-05
0.000128033
6.55626e-05
6.46348e-05
0.000103012
6.54069e-05
0.000126978
6.47209e-05
0.000128022
6.55262e-05
2.36329e-05
2.36367e-05
8.26818e-05
6.09423e-05
6.09398e-05
6.06142e-05
6.06061e-05
2.36334e-05
2.36369e-05
6.79171e-05
4.95486e-05
4.9544e-05
6.89155e-05
6.45968e-05
0.000103033
6.54143e-05
0.000126988
6.47036e-05
0.000128033
6.55758e-05
6.79187e-05
4.95441e-05
4.95406e-05
6.89142e-05
6.4615e-05
0.000103004
0.000126982
6.53578e-05
0.000128025
6.47395e-05
6.55849e-05
6.46317e-05
0.000103055
6.53747e-05
0.000126982
6.4734e-05
0.00012803
6.55132e-05
6.79304e-05
4.95553e-05
4.95401e-05
6.88979e-05
6.46547e-05
0.000103024
0.00012698
6.53841e-05
0.000128024
6.47394e-05
6.5509e-05
6.79456e-05
4.95513e-05
4.95362e-05
6.88958e-05
2.36306e-05
2.36342e-05
8.26722e-05
6.09535e-05
6.09573e-05
6.05888e-05
6.0592e-05
2.36324e-05
2.3636e-05
6.46334e-05
0.000103048
0.000126989
6.54074e-05
0.000128034
6.47192e-05
6.55343e-05
6.46375e-05
0.000103048
0.000126995
6.54184e-05
0.000128039
6.47016e-05
6.55318e-05
6.79289e-05
4.9547e-05
4.95427e-05
6.89208e-05
6.79169e-05
4.95479e-05
4.9543e-05
6.89259e-05
8.29996e-05
6.09589e-05
6.09587e-05
6.05944e-05
6.05951e-05
2.36322e-05
2.36356e-05
2.36316e-05
2.36351e-05
2.36299e-05
2.36266e-05
2.36289e-05
2.36255e-05
6.10968e-05
6.11025e-05
8.22855e-05
6.14409e-05
6.14525e-05
2.36202e-05
2.36236e-05
2.36196e-05
2.36226e-05
8.20938e-05
6.19182e-05
6.1922e-05
6.15882e-05
6.15868e-05
7.00136e-05
4.95579e-05
6.91016e-05
4.9563e-05
6.69741e-05
6.57119e-05
0.000125987
0.000100656
6.60047e-05
6.63944e-05
0.000124962
6.6926e-05
6.57183e-05
0.000125973
0.000100653
6.60273e-05
6.63907e-05
0.000124952
7.01866e-05
4.95753e-05
4.95619e-05
7.10442e-05
7.01894e-05
4.95734e-05
4.95687e-05
7.10481e-05
6.74469e-05
9.99418e-05
6.73441e-05
0.000122971
6.66672e-05
0.000123965
6.84343e-05
6.74726e-05
9.99248e-05
6.73429e-05
0.000122963
6.66816e-05
0.000123958
6.84152e-05
6.11162e-05
6.1111e-05
8.25111e-05
6.14376e-05
6.14333e-05
2.36303e-05
2.3627e-05
2.36204e-05
2.36237e-05
8.19811e-05
6.19061e-05
6.19058e-05
6.16003e-05
6.15941e-05
2.36208e-05
2.3624e-05
6.70029e-05
6.57028e-05
0.000125989
0.000100685
6.60019e-05
6.63947e-05
0.000124962
7.00236e-05
4.95503e-05
6.90897e-05
4.95548e-05
6.70039e-05
0.000125979
6.57236e-05
0.000100642
6.60024e-05
0.000124958
6.63379e-05
7.01804e-05
4.95699e-05
4.9565e-05
7.10572e-05
6.74303e-05
9.9946e-05
6.73425e-05
0.000122969
6.66679e-05
0.000123973
6.84643e-05
7.018e-05
4.95651e-05
4.95611e-05
7.1059e-05
6.74346e-05
9.99187e-05
0.000122968
6.72901e-05
0.000123966
6.66891e-05
6.84411e-05
7.00053e-05
4.95525e-05
6.90985e-05
4.95662e-05
6.69507e-05
0.000125977
6.57216e-05
0.000100662
6.60318e-05
0.000124953
6.63639e-05
7.00042e-05
4.95485e-05
6.91012e-05
4.95623e-05
6.74591e-05
9.99666e-05
6.73102e-05
0.000122964
6.66883e-05
0.000123964
6.84109e-05
7.01925e-05
4.95762e-05
4.95629e-05
7.10295e-05
6.7447e-05
9.99381e-05
0.000122965
6.73529e-05
0.000123963
6.6684e-05
6.84088e-05
7.01877e-05
4.95724e-05
4.9559e-05
7.10399e-05
6.10949e-05
6.11022e-05
8.25254e-05
6.14482e-05
6.14527e-05
2.36294e-05
2.3626e-05
2.3618e-05
2.36213e-05
8.19224e-05
6.19039e-05
6.19198e-05
6.15788e-05
6.15863e-05
2.36198e-05
2.36231e-05
6.69366e-05
0.000125992
6.5704e-05
0.000100683
6.60278e-05
0.000124969
6.63868e-05
7.00296e-05
4.95526e-05
6.90885e-05
4.95576e-05
7.00328e-05
4.95533e-05
6.90882e-05
4.95585e-05
6.74593e-05
9.99605e-05
0.000122967
6.73296e-05
0.000123974
6.66747e-05
6.84238e-05
6.74774e-05
9.99619e-05
0.00012298
6.73286e-05
0.000123978
6.66736e-05
6.83923e-05
7.01767e-05
4.95679e-05
4.95633e-05
7.10635e-05
7.01801e-05
4.95688e-05
4.95642e-05
7.10654e-05
2.36291e-05
2.36258e-05
2.36286e-05
2.36251e-05
8.22724e-05
6.192e-05
6.19178e-05
6.15868e-05
6.15862e-05
2.36196e-05
2.36228e-05
2.3619e-05
2.36223e-05
3.61959e-05
6.96515e-05
4.03517e-05
7.10795e-05
4.03397e-05
7.07648e-05
3.6199e-05
2.02174e-05
6.83128e-05
4.956e-05
2.02169e-05
6.84584e-05
3.61957e-05
6.94582e-05
4.03338e-05
7.03617e-05
3.61925e-05
4.03448e-05
7.0685e-05
2.0214e-05
6.86263e-05
4.95566e-05
6.8487e-05
2.02145e-05
2.36297e-05
2.36268e-05
3.61977e-05
6.96403e-05
7.1101e-05
4.03515e-05
7.07633e-05
4.03396e-05
3.62008e-05
2.02188e-05
6.8345e-05
4.9554e-05
2.02184e-05
6.84741e-05
3.61975e-05
6.94793e-05
7.03616e-05
4.03336e-05
3.61943e-05
7.07075e-05
4.03446e-05
2.02155e-05
6.86399e-05
4.95595e-05
6.85181e-05
2.02159e-05
2.36274e-05
2.36244e-05
7.08398e-05
2.15528e-05
2.15499e-05
2.15527e-05
2.15498e-05
7.09648e-05
7.39072e-05
7.0944e-05
4.71525e-05
6.12106e-05
7.37285e-05
7.11855e-05
4.7157e-05
7.39219e-05
7.0959e-05
4.71444e-05
6.12108e-05
7.38045e-05
7.11922e-05
4.71484e-05
7.07959e-05
2.1556e-05
2.15531e-05
7.06696e-05
2.15561e-05
2.15532e-05
7.41611e-05
4.71693e-05
6.13472e-05
7.18195e-05
7.15771e-05
4.71651e-05
7.43363e-05
7.42271e-05
4.71609e-05
6.13468e-05
7.18096e-05
7.15888e-05
4.71569e-05
7.43491e-05
2.36332e-05
2.36363e-05
2.3632e-05
2.3635e-05
7.04476e-05
2.15633e-05
2.15594e-05
7.03056e-05
2.15634e-05
2.15595e-05
7.33101e-05
7.05142e-05
6.08432e-05
4.71491e-05
4.71354e-05
7.03324e-05
7.34484e-05
7.3347e-05
7.05369e-05
6.08487e-05
4.71343e-05
4.71296e-05
7.03308e-05
7.35141e-05
7.30028e-05
4.71212e-05
6.96847e-05
6.0705e-05
7.28685e-05
4.71353e-05
6.98846e-05
7.30554e-05
4.71168e-05
6.9698e-05
6.07047e-05
7.29052e-05
4.7121e-05
6.98975e-05
7.04861e-05
2.15601e-05
2.15562e-05
2.156e-05
2.15561e-05
7.06257e-05
3.61888e-05
4.03197e-05
6.95046e-05
6.83127e-05
3.61854e-05
4.03317e-05
6.9858e-05
2.02197e-05
4.95452e-05
6.82858e-05
2.02203e-05
6.8135e-05
2.02231e-05
6.79518e-05
4.95482e-05
2.02226e-05
6.81062e-05
3.6189e-05
6.85256e-05
4.03389e-05
7.02758e-05
3.61923e-05
4.03272e-05
6.99389e-05
3.61907e-05
4.03198e-05
6.95119e-05
6.83185e-05
3.61873e-05
4.0332e-05
6.98813e-05
2.02209e-05
4.9553e-05
6.83017e-05
6.81741e-05
2.02213e-05
2.02242e-05
6.79969e-05
4.95471e-05
2.02239e-05
6.81224e-05
3.61908e-05
6.8529e-05
4.03387e-05
7.03046e-05
4.0327e-05
6.9943e-05
3.61942e-05
2.36333e-05
2.36362e-05
7.04448e-05
2.15605e-05
2.15628e-05
7.03124e-05
2.15605e-05
2.15628e-05
7.33415e-05
7.05582e-05
6.08643e-05
4.71402e-05
7.03278e-05
4.71262e-05
7.34919e-05
7.33189e-05
7.05237e-05
6.08585e-05
4.71478e-05
4.7134e-05
7.03178e-05
7.34515e-05
7.3062e-05
4.7112e-05
6.97081e-05
6.06902e-05
6.99006e-05
7.28955e-05
4.71265e-05
7.29964e-05
4.71198e-05
6.96831e-05
6.06883e-05
7.28748e-05
4.7134e-05
6.98967e-05
7.04912e-05
2.15572e-05
2.15595e-05
2.15571e-05
2.15594e-05
7.06232e-05
2.36336e-05
2.36367e-05
3.61906e-05
6.95039e-05
4.03194e-05
6.8329e-05
3.61872e-05
6.9879e-05
4.03315e-05
2.02213e-05
4.9549e-05
6.82989e-05
2.02217e-05
6.81704e-05
2.02246e-05
6.79851e-05
4.95435e-05
2.02242e-05
6.81229e-05
3.61908e-05
6.85155e-05
7.02982e-05
4.03388e-05
3.61941e-05
6.9938e-05
4.0327e-05
3.61882e-05
4.03191e-05
6.95039e-05
6.8333e-05
3.61848e-05
4.03314e-05
6.98621e-05
2.02195e-05
4.95454e-05
6.82729e-05
6.81451e-05
2.02199e-05
2.02228e-05
6.79641e-05
4.9539e-05
2.02224e-05
6.80961e-05
3.61883e-05
6.85147e-05
4.03381e-05
7.02877e-05
4.03265e-05
6.99351e-05
3.61916e-05
3.61911e-05
6.95164e-05
4.03284e-05
6.83146e-05
3.61882e-05
6.98724e-05
4.03259e-05
2.02217e-05
4.95461e-05
6.83101e-05
6.816e-05
2.02222e-05
2.02251e-05
6.79796e-05
4.95495e-05
2.02246e-05
6.81318e-05
3.61916e-05
6.85245e-05
7.02953e-05
4.03319e-05
6.99453e-05
4.03334e-05
3.61945e-05
3.61889e-05
4.03193e-05
6.95131e-05
6.82978e-05
3.61856e-05
4.03314e-05
6.9862e-05
2.02203e-05
4.95422e-05
6.82887e-05
6.81384e-05
2.02208e-05
2.02236e-05
6.79561e-05
4.95455e-05
2.02231e-05
6.81105e-05
3.61892e-05
6.85296e-05
4.0338e-05
7.02839e-05
4.03265e-05
6.99409e-05
3.61924e-05
2.36309e-05
2.36339e-05
7.04474e-05
2.15592e-05
2.15626e-05
7.03123e-05
2.15593e-05
2.15626e-05
7.33376e-05
7.05163e-05
6.08417e-05
4.7134e-05
7.03301e-05
4.71295e-05
7.35095e-05
7.33024e-05
7.05508e-05
6.08472e-05
4.71487e-05
4.71349e-05
7.03256e-05
7.34775e-05
7.30614e-05
4.71166e-05
6.96932e-05
6.07015e-05
6.98909e-05
7.28894e-05
4.71208e-05
7.30258e-05
4.71206e-05
6.96981e-05
6.0705e-05
7.28568e-05
4.7135e-05
6.98922e-05
7.04924e-05
2.15559e-05
2.15593e-05
2.15559e-05
2.15592e-05
7.06247e-05
2.36327e-05
2.36357e-05
3.61892e-05
6.95e-05
4.03284e-05
6.83272e-05
3.61862e-05
6.98781e-05
4.03259e-05
2.02207e-05
4.95477e-05
6.828e-05
6.81544e-05
2.0221e-05
2.02239e-05
6.79711e-05
4.95418e-05
2.02235e-05
6.81033e-05
3.61896e-05
6.85159e-05
7.0301e-05
4.03319e-05
6.99322e-05
4.03333e-05
3.61926e-05
3.61911e-05
6.95066e-05
4.03194e-05
6.83409e-05
3.61877e-05
6.98844e-05
4.03316e-05
2.02216e-05
4.95482e-05
6.82995e-05
6.81678e-05
2.0222e-05
2.02249e-05
6.79824e-05
4.95426e-05
2.02245e-05
6.81223e-05
3.61913e-05
6.85128e-05
7.03058e-05
4.03382e-05
6.99389e-05
4.03266e-05
3.61946e-05
7.04449e-05
2.15627e-05
2.15598e-05
7.03122e-05
2.15627e-05
2.15599e-05
7.32947e-05
7.05528e-05
6.08483e-05
4.71438e-05
7.34748e-05
7.03012e-05
4.71396e-05
7.33608e-05
7.055e-05
6.08487e-05
4.71355e-05
7.34885e-05
7.03269e-05
4.71309e-05
7.30295e-05
4.7126e-05
6.96574e-05
6.07037e-05
7.28495e-05
6.99127e-05
4.71312e-05
7.30339e-05
4.71185e-05
6.96871e-05
6.07036e-05
7.2918e-05
6.99039e-05
4.71225e-05
7.04928e-05
2.15594e-05
2.15565e-05
7.06238e-05
2.15593e-05
2.15565e-05
2.36324e-05
2.36355e-05
2.36318e-05
2.36348e-05
2.36298e-05
2.36268e-05
2.36287e-05
2.36257e-05
7.08355e-05
2.15535e-05
2.15496e-05
2.15534e-05
2.15495e-05
7.09669e-05
7.38831e-05
7.0962e-05
4.71493e-05
6.12107e-05
7.3752e-05
4.71621e-05
7.11579e-05
7.39461e-05
7.09606e-05
4.71425e-05
6.1211e-05
7.37831e-05
4.71474e-05
7.11778e-05
7.07988e-05
2.15567e-05
2.15528e-05
7.06629e-05
2.15568e-05
2.15529e-05
7.41813e-05
4.7175e-05
6.13383e-05
7.17851e-05
4.71618e-05
7.43123e-05
7.15887e-05
7.42125e-05
4.716e-05
6.13466e-05
7.1814e-05
4.71555e-05
7.43715e-05
7.15889e-05
2.36205e-05
2.36235e-05
2.36195e-05
2.36224e-05
7.11313e-05
2.15501e-05
2.15462e-05
7.10016e-05
2.155e-05
2.15468e-05
7.49986e-05
7.30421e-05
6.18134e-05
4.71944e-05
4.7184e-05
7.28255e-05
7.51598e-05
7.50284e-05
7.3043e-05
6.18131e-05
4.71887e-05
4.71822e-05
7.28359e-05
7.51919e-05
7.4748e-05
4.71741e-05
7.22038e-05
6.169e-05
7.45874e-05
4.71862e-05
7.24284e-05
7.47916e-05
4.7168e-05
7.22161e-05
6.16903e-05
7.46305e-05
4.71731e-05
7.24326e-05
7.1165e-05
2.15462e-05
2.15439e-05
2.15465e-05
2.15437e-05
7.12848e-05
3.61977e-05
6.96517e-05
4.03518e-05
7.11093e-05
4.03397e-05
7.0764e-05
3.62008e-05
2.02184e-05
6.83518e-05
4.95577e-05
2.02181e-05
6.84749e-05
3.61975e-05
6.94663e-05
4.03337e-05
7.03597e-05
4.03447e-05
3.61943e-05
7.07158e-05
2.02151e-05
6.86434e-05
4.95635e-05
6.85227e-05
2.02155e-05
3.62019e-05
4.03471e-05
7.1156e-05
7.05363e-05
3.61991e-05
4.03585e-05
7.1465e-05
2.02079e-05
4.95663e-05
6.89454e-05
6.88168e-05
2.02084e-05
2.02112e-05
6.86525e-05
4.95701e-05
2.02111e-05
6.87869e-05
3.6202e-05
7.0704e-05
4.03654e-05
7.18358e-05
4.03537e-05
7.15347e-05
3.62049e-05
3.62039e-05
4.03473e-05
7.11563e-05
7.05402e-05
3.62009e-05
4.03587e-05
7.14869e-05
2.02094e-05
4.95742e-05
6.89638e-05
6.88523e-05
2.02096e-05
2.02126e-05
6.86894e-05
4.95686e-05
2.02123e-05
6.88074e-05
3.6204e-05
7.07073e-05
4.03655e-05
7.18568e-05
4.03539e-05
7.1543e-05
3.62069e-05
7.08402e-05
2.15506e-05
2.15529e-05
2.15505e-05
2.15528e-05
7.09636e-05
7.39284e-05
7.09544e-05
4.714e-05
6.11939e-05
4.71532e-05
7.37917e-05
7.1177e-05
7.38907e-05
7.09544e-05
4.71477e-05
6.1191e-05
7.11556e-05
7.37529e-05
4.71608e-05
7.07949e-05
2.15538e-05
2.15561e-05
2.15539e-05
7.06684e-05
2.15562e-05
7.42176e-05
4.71659e-05
6.13619e-05
7.18068e-05
4.71526e-05
7.15958e-05
7.43553e-05
7.41806e-05
4.71734e-05
6.13554e-05
7.178e-05
7.15876e-05
4.71603e-05
7.43149e-05
2.36301e-05
2.36271e-05
2.36207e-05
2.36234e-05
7.11269e-05
2.15473e-05
2.15495e-05
7.10062e-05
2.15474e-05
2.15497e-05
7.50365e-05
7.30573e-05
6.18343e-05
4.71899e-05
7.28352e-05
4.71767e-05
7.52061e-05
7.50136e-05
7.30347e-05
6.18179e-05
4.71973e-05
4.71844e-05
7.28386e-05
7.51393e-05
7.47962e-05
4.71652e-05
7.22159e-05
6.16758e-05
7.24308e-05
7.46309e-05
4.71777e-05
7.47326e-05
4.7173e-05
7.2214e-05
6.16725e-05
7.46008e-05
4.71852e-05
7.24126e-05
7.11691e-05
2.15442e-05
2.15464e-05
2.15441e-05
2.15463e-05
7.12875e-05
2.36209e-05
2.36238e-05
3.61951e-05
6.96407e-05
4.03512e-05
7.10934e-05
4.03392e-05
7.0753e-05
3.61983e-05
2.0217e-05
6.83216e-05
4.95496e-05
2.02165e-05
6.8446e-05
3.6195e-05
6.9477e-05
4.03332e-05
7.03517e-05
4.03441e-05
3.61918e-05
7.06958e-05
2.02136e-05
6.86141e-05
4.95559e-05
6.84928e-05
2.02141e-05
3.62039e-05
7.11576e-05
4.03469e-05
7.05521e-05
3.62009e-05
7.14869e-05
4.03583e-05
2.02097e-05
4.95704e-05
6.8961e-05
6.88484e-05
2.021e-05
2.0213e-05
6.86847e-05
4.9565e-05
2.02126e-05
6.88052e-05
3.6204e-05
7.06992e-05
7.18546e-05
4.03652e-05
7.15367e-05
4.03535e-05
3.62069e-05
3.62014e-05
4.03467e-05
7.11458e-05
7.0551e-05
3.61983e-05
4.03581e-05
7.14761e-05
2.02078e-05
4.95666e-05
6.89351e-05
6.8821e-05
2.02082e-05
2.02111e-05
6.86593e-05
4.95604e-05
2.02107e-05
6.87777e-05
3.62014e-05
7.06976e-05
4.03649e-05
7.18477e-05
4.03532e-05
7.15235e-05
3.62043e-05
3.61984e-05
6.96547e-05
7.11002e-05
4.03452e-05
7.07688e-05
4.03467e-05
3.62012e-05
2.02193e-05
6.8341e-05
4.95609e-05
6.84837e-05
2.02188e-05
3.61979e-05
6.94672e-05
7.03624e-05
4.03396e-05
7.0707e-05
3.6195e-05
4.0339e-05
2.02159e-05
6.86516e-05
4.95576e-05
6.85124e-05
2.02164e-05
3.61959e-05
6.96506e-05
4.03511e-05
7.11005e-05
4.03391e-05
7.07596e-05
3.6199e-05
2.02179e-05
6.83209e-05
4.95569e-05
2.02174e-05
6.84623e-05
3.61957e-05
6.94622e-05
4.03332e-05
7.03575e-05
3.61926e-05
4.03441e-05
7.06993e-05
2.02145e-05
6.86303e-05
4.95537e-05
6.84919e-05
2.0215e-05
3.62043e-05
7.11587e-05
4.03528e-05
7.05231e-05
3.62016e-05
7.14933e-05
4.03521e-05
2.02101e-05
4.95674e-05
6.89717e-05
6.88402e-05
2.02105e-05
2.02134e-05
6.868e-05
4.95709e-05
2.0213e-05
6.88137e-05
3.62046e-05
7.07235e-05
7.18625e-05
4.03588e-05
7.1534e-05
4.03599e-05
3.62073e-05
3.62022e-05
4.03467e-05
7.11478e-05
7.05313e-05
3.61991e-05
4.0358e-05
7.14819e-05
2.02087e-05
4.95635e-05
6.89507e-05
6.88207e-05
2.02091e-05
2.0212e-05
6.86598e-05
4.9567e-05
2.02116e-05
6.87927e-05
3.62022e-05
7.07068e-05
4.03648e-05
7.18526e-05
4.03532e-05
7.15257e-05
3.62051e-05
7.08362e-05
2.15494e-05
2.15527e-05
2.15493e-05
2.15526e-05
7.0968e-05
7.39511e-05
7.09622e-05
4.71424e-05
6.12067e-05
4.71471e-05
7.37728e-05
7.11791e-05
7.39108e-05
7.09526e-05
4.71486e-05
6.1211e-05
7.11852e-05
7.37345e-05
4.71618e-05
7.07994e-05
2.15525e-05
2.15559e-05
2.15526e-05
7.06662e-05
2.1556e-05
7.41997e-05
4.71595e-05
6.13389e-05
7.17999e-05
4.71555e-05
7.15827e-05
7.43753e-05
7.41632e-05
4.71744e-05
6.13466e-05
7.18109e-05
7.15799e-05
4.71612e-05
7.43358e-05
2.36291e-05
2.36262e-05
2.36182e-05
2.36211e-05
7.11311e-05
2.1546e-05
2.15493e-05
7.10043e-05
2.15461e-05
2.15495e-05
7.50307e-05
7.30443e-05
6.18064e-05
4.71836e-05
7.28316e-05
4.71802e-05
7.52086e-05
7.49981e-05
7.3053e-05
6.18143e-05
4.71983e-05
4.7185e-05
7.28248e-05
7.51693e-05
7.48038e-05
4.7168e-05
7.22091e-05
6.16828e-05
7.24272e-05
7.46216e-05
4.71722e-05
7.47566e-05
4.71735e-05
7.2207e-05
6.16901e-05
7.45852e-05
4.7186e-05
7.24275e-05
7.11664e-05
2.15429e-05
2.15462e-05
2.15428e-05
2.15461e-05
7.12909e-05
2.362e-05
2.36229e-05
3.61964e-05
6.96391e-05
7.11019e-05
4.03452e-05
7.07548e-05
4.03467e-05
3.61993e-05
2.02181e-05
6.83306e-05
4.95525e-05
6.8454e-05
2.02178e-05
3.6196e-05
6.94865e-05
7.03504e-05
4.03397e-05
7.07071e-05
3.61931e-05
4.0339e-05
2.02148e-05
6.86213e-05
4.95582e-05
6.85026e-05
2.02152e-05
3.61981e-05
6.96413e-05
7.11109e-05
4.03514e-05
7.07607e-05
4.03394e-05
3.62013e-05
2.02191e-05
6.83445e-05
4.95534e-05
2.02187e-05
6.84734e-05
3.6198e-05
6.94859e-05
7.03558e-05
4.03333e-05
3.61947e-05
7.07175e-05
4.03444e-05
2.02158e-05
6.86402e-05
4.9559e-05
6.85176e-05
2.02162e-05
3.62024e-05
7.11486e-05
4.03528e-05
7.05559e-05
3.61996e-05
7.1484e-05
4.03521e-05
2.0209e-05
4.9569e-05
6.89422e-05
6.88313e-05
2.02093e-05
2.02123e-05
6.86688e-05
4.95633e-05
2.02119e-05
6.87857e-05
3.62027e-05
7.0696e-05
7.18548e-05
4.03589e-05
7.15285e-05
4.03599e-05
3.62054e-05
3.62044e-05
7.11544e-05
4.03469e-05
7.05579e-05
3.62014e-05
7.14873e-05
4.03583e-05
2.021e-05
4.95698e-05
6.89599e-05
6.88473e-05
2.02103e-05
2.02133e-05
6.86838e-05
4.95641e-05
2.02129e-05
6.88038e-05
3.62045e-05
7.06989e-05
7.18558e-05
4.03652e-05
7.15412e-05
4.03535e-05
3.62074e-05
2.3629e-05
2.36259e-05
2.36283e-05
2.36254e-05
7.11274e-05
2.15495e-05
2.15466e-05
7.10067e-05
2.15496e-05
2.15467e-05
7.49949e-05
7.30492e-05
6.18157e-05
4.71935e-05
7.28244e-05
4.71902e-05
7.51678e-05
7.50614e-05
7.30505e-05
6.18154e-05
4.7185e-05
7.28348e-05
4.7182e-05
7.51758e-05
7.47571e-05
4.71778e-05
7.22023e-05
6.169e-05
7.45834e-05
7.2427e-05
4.71822e-05
7.47637e-05
4.71694e-05
7.22125e-05
6.16896e-05
7.46463e-05
7.24405e-05
4.71738e-05
7.11696e-05
2.15463e-05
2.15435e-05
2.15463e-05
2.15434e-05
7.12877e-05
2.36197e-05
2.36227e-05
2.36192e-05
2.3622e-05
0.000173136
0.000173147
0.000149015
0.00017228
0.000172289
0.000191515
0.000192218
7.41542e-05
7.26887e-05
7.2728e-05
8.23786e-05
7.38809e-05
7.28495e-05
7.26838e-05
7.32094e-05
8.25168e-05
7.24312e-05
7.24355e-05
7.22641e-05
7.22712e-05
7.34583e-05
7.32445e-05
8.2457e-05
7.24307e-05
7.23903e-05
7.22192e-05
7.2269e-05
7.35038e-05
7.32255e-05
8.23718e-05
7.23813e-05
7.25332e-05
7.22664e-05
7.21763e-05
7.35091e-05
7.32339e-05
8.27194e-05
7.24618e-05
7.22621e-05
7.34892e-05
7.23425e-05
7.23559e-05
7.41229e-05
7.26668e-05
7.26641e-05
8.24435e-05
7.38947e-05
7.28527e-05
7.28493e-05
7.58447e-05
8.1903e-05
7.41169e-05
7.41476e-05
7.39717e-05
7.39459e-05
7.60937e-05
7.419e-05
7.26346e-05
7.2653e-05
8.26659e-05
7.27945e-05
7.38631e-05
7.28873e-05
7.58295e-05
8.17508e-05
7.4182e-05
7.41284e-05
7.38814e-05
7.39442e-05
7.61122e-05
7.41926e-05
7.26541e-05
7.25964e-05
8.26649e-05
7.29912e-05
7.38662e-05
7.27879e-05
7.58226e-05
8.17927e-05
7.41082e-05
7.42631e-05
7.39406e-05
7.38414e-05
7.6122e-05
7.58542e-05
8.20823e-05
7.41352e-05
7.4129e-05
7.39664e-05
7.40346e-05
7.60948e-05
0.000152106
0.000173992
0.000174001
0.000174851
0.000174862
0.000193622
0.00019292
0.000152111
0.000173992
0.000174004
0.000174851
0.000174864
0.000193623
0.000192921
0.000152102
0.000173987
0.000173999
0.000174847
0.00017486
0.000193618
0.000192916
0.000152108
0.00017399
0.000174002
0.00017485
0.000174862
0.00019362
0.000192917
0.000173135
0.000173148
0.000149017
0.00017228
0.000172291
0.000191516
0.000192219
0.000173131
0.000173145
0.000149007
0.000172274
0.000172286
0.000191511
0.000192213
0.000173134
0.000173147
0.000149013
0.000172277
0.00017229
0.000191512
0.000192215
0.000147994
0.000170573
0.000170581
0.000171426
0.000171437
0.000190811
0.000190108
0.000147998
0.000170572
0.000170584
0.000171425
0.000171438
0.000190812
0.000190108
0.000147989
0.000170567
0.000170579
0.000171421
0.000171435
0.000190807
0.000190103
0.000147995
0.000170569
0.000170583
0.000171423
0.000171437
0.000190808
0.000190104
7.25794e-05
6.6754e-05
6.86773e-05
7.49658e-05
6.84495e-05
7.51278e-05
7.2627e-05
6.87137e-05
6.847e-05
6.79471e-05
6.5868e-05
6.85871e-05
6.85702e-05
6.82246e-05
7.25693e-05
6.62302e-05
6.77473e-05
7.52372e-05
7.2533e-05
6.79733e-05
7.50592e-05
6.89365e-05
6.88544e-05
6.62058e-05
6.91089e-05
6.89817e-05
6.85677e-05
6.9099e-05
7.27119e-05
6.67452e-05
7.51331e-05
6.86471e-05
7.50206e-05
6.84723e-05
7.24871e-05
6.87271e-05
6.84851e-05
6.80038e-05
6.59006e-05
6.85691e-05
6.8553e-05
6.81206e-05
7.2453e-05
6.62414e-05
7.51246e-05
6.7764e-05
7.2679e-05
7.52286e-05
6.79454e-05
6.8928e-05
6.8737e-05
6.61957e-05
6.91178e-05
6.90196e-05
6.8622e-05
6.90863e-05
7.45446e-05
8.23318e-05
7.32541e-05
7.30927e-05
7.30861e-05
7.31402e-05
7.47982e-05
7.28126e-05
8.29367e-05
7.19056e-05
7.19033e-05
7.25553e-05
7.2048e-05
7.20729e-05
7.25684e-05
6.63572e-05
7.54865e-05
6.48898e-05
7.26267e-05
6.6548e-05
7.54142e-05
6.81866e-05
6.80572e-05
6.52124e-05
6.75729e-05
6.78966e-05
6.73126e-05
6.85325e-05
6.82362e-05
6.66708e-05
6.73897e-05
6.49057e-05
6.75465e-05
6.78729e-05
6.69573e-05
7.25536e-05
6.52953e-05
6.72432e-05
7.52491e-05
6.70505e-05
7.53144e-05
7.25758e-05
7.25624e-05
6.63584e-05
7.53449e-05
6.48235e-05
7.26145e-05
6.65539e-05
7.55431e-05
6.82639e-05
6.81274e-05