/*--------------------------------*- C++ -*----------------------------------*\
| =========                 |                                                 |
| \\      /  F ield         | OpenFOAM: The Open Source CFD Toolbox           |
|  \\    /   O peration     | Version:  v1906                                 |
|   \\  /    A nd           | Web:      www.OpenFOAM.com                      |
|    \\/     M anipulation  |                                                 |
\*---------------------------------------------------------------------------*/
FoamFile
{
    version     2.0;
    format      ascii;
    class       surfaceScalarField;
    location    "1000";
    object      phi;
}
// * * * * * * * * * * * * * * * * * * * * * * * * * * * * * * * * * * * * * //

dimensions      [0 3 -1 0 0 0 0];
oriented        oriented;


internalField   nonuniform List<scalar> 
124860
(
-1.2563e-06
-1.24614e-06
-0.000269536
2.64992e-07
1.99924e-07
1.80123e-07
8.44072e-08
-1.29973e-06
2.49371e-07
-2.95103e-07
-9.37022e-07
2.05045e-07
-2.93522e-07
8.7783e-07
-0.00113979
1.26966e-06
2.19348e-07
-0.00114024
7.84774e-08
-1.3e-06
2.65822e-07
-2.89997e-07
-9.34725e-07
2.35378e-07
-2.82989e-07
8.85924e-07
-1.23002e-06
-0.000269556
2.31201e-07
2.36118e-07
2.29806e-07
1.10691e-07
-1.24966e-06
2.76943e-07
-2.76038e-07
-9.2397e-07
2.65605e-07
-2.66781e-07
8.88581e-07
-0.00114087
1.26418e-06
2.24813e-07
7.28187e-08
-1.29449e-06
2.6584e-07
-2.89923e-07
-9.31921e-07
2.35358e-07
-2.82851e-07
8.83064e-07
-0.00113989
2.19353e-07
-0.00114063
7.77566e-08
-1.26019e-06
2.5764e-07
-2.81514e-07
-9.2919e-07
2.32624e-07
-2.80199e-07
8.80411e-07
1.25875e-06
2.24683e-07
-0.00113968
7.82027e-08
-1.28893e-06
2.60234e-07
-2.84242e-07
-9.31852e-07
2.32595e-07
-2.82843e-07
8.83035e-07
-1.22453e-06
-0.000269514
2.3111e-07
2.36122e-07
2.1928e-07
8.86748e-08
-1.25464e-06
2.57667e-07
-2.81462e-07
-9.28962e-07
2.35418e-07
-2.82839e-07
8.8028e-07
-0.00114027
1.22189e-06
2.19044e-07
-0.0011408
8.33075e-08
-1.2575e-06
2.57703e-07
-2.8438e-07
-9.29141e-07
2.35509e-07
-2.82858e-07
8.80547e-07
-0.00026953
2.30952e-07
2.36302e-07
1.88694e-07
2.18669e-07
-0.00119084
-0.00119086
1.8908e-07
1.89294e-07
1.82895e-07
2.12699e-07
-0.00119045
-0.00119065
1.8862e-07
2.00772e-07
-2.15005e-08
-5.8144e-09
-9.70806e-05
-2.38044e-08
-5.84748e-09
-9.70822e-05
-1.76582e-08
-9.37277e-09
-0.000276412
8.26157e-09
-2.20556e-08
-7.17946e-08
-0.000276391
1.12614e-08
1.10957e-10
6.17812e-08
-2.59841e-08
3.60367e-10
0.000228353
-0.000228389
-3.51591e-08
-0.000192043
3.89189e-09
-1.4283e-10
-5.42946e-08
-0.000228341
2.82508e-08
2.54955e-09
6.18124e-08
-2.60059e-08
4.4469e-10
0.000228389
-0.000228425
-3.52241e-08
5.73178e-09
-0.000192082
1.59925e-09
4.14834e-08
-7.91498e-09
-6.35471e-09
0.000192081
-0.000192108
-5.4307e-08
-0.000228377
2.82603e-08
2.52339e-09
1.48997e-09
-1.68506e-09
2.00297e-07
0.000250188
-0.000250326
-7.46228e-08
-0.000244407
-1.14011e-08
-0.00116202
-3.38533e-09
3.30112e-07
-1.04012e-06
7.83599e-07
-8.64537e-07
9.62091e-07
3.92515e-09
3.42819e-07
9.61122e-07
-8.63844e-07
-1.03934e-06
7.82558e-07
-0.00116212
-8.13063e-08
-1.44675e-09
-0.00025016
1.78648e-09
-1.59511e-07
-2.0174e-09
2.00353e-07
0.000250219
-0.000250354
8.13338e-08
-1.30142e-06
2.25356e-07
8.85284e-07
-2.84447e-07
-9.36364e-07
2.34596e-07
1.26925e-06
-2.9112e-07
2.65324e-07
-0.00114038
1.97493e-08
-8.68891e-08
-0.000244423
-1.36968e-08
-0.00116218
3.35993e-07
-1.03761e-06
7.83655e-07
-8.61959e-07
9.64973e-07
-2.2226e-08
1.28624e-08
1.08243e-07
0.000244434
-0.000244492
3.42872e-07
9.64063e-07
-8.63976e-07
-1.03958e-06
7.82639e-07
-0.00116228
-0.000250191
2.40721e-09
-1.62125e-07
-2.15771e-08
-9.70848e-05
1.63647e-08
9.70816e-05
-9.71059e-05
1.26158e-06
0.000269593
-2.43625e-07
-2.48665e-07
-0.000271664
-4.16458e-08
-0.000276366
1.09022e-08
2.37313e-08
-1.74242e-08
-4.14394e-08
-0.000276471
1.10992e-08
-1.52188e-08
4.20186e-08
0.00027637
-0.000276402
-1.86353e-08
1.96747e-08
-1.5121e-08
4.18978e-08
0.000276475
-0.000276503
-5.80096e-09
-9.70873e-05
7.87368e-09
9.70841e-05
-9.71107e-05
-3.7467e-08
-0.000192069
1.68755e-09
-5.43397e-08
-1.88462e-10
-0.000228368
2.4692e-09
2.61955e-08
-9.67782e-08
-0.000244432
-1.60949e-08
7.00937e-10
3.35495e-07
-1.03217e-06
7.80809e-07
-8.56444e-07
9.61994e-07
-0.00116191
-1.71379e-09
-0.000250174
1.94334e-09
-1.64687e-07
-3.73464e-08
5.76341e-09
-0.000192015
1.65184e-09
-5.4329e-08
-0.00022833
2.61735e-08
2.40494e-09
3.41656e-07
-1.03485e-06
7.80859e-07
-8.56462e-07
9.62141e-07
-0.00116188
1.97992e-08
-8.20179e-08
-0.000244359
-1.60801e-08
-0.00025015
-1.62085e-07
2.12902e-09
-6.18695e-08
1.5492e-09
-1.37208e-09
1.97792e-07
0.000250214
-0.00025035
8.04753e-08
2.31049e-07
1.22963e-06
-2.82592e-07
2.57173e-07
8.79816e-07
-2.81638e-07
-9.30843e-07
2.3184e-07
-0.00114078
3.73526e-08
-8.67929e-08
-0.000244465
-1.37337e-08
-0.00116195
-3.89274e-09
3.35837e-07
-1.0349e-06
7.8075e-07
-8.59162e-07
9.62025e-07
-4.35722e-08
1.27567e-08
1.081e-07
0.000244477
-0.000244535
3.53849e-09
3.48628e-07
9.6104e-07
-8.61211e-07
-1.03683e-06
7.79706e-07
-0.00116207
5.42316e-08
-1.66979e-09
-0.000250186
1.45099e-09
-1.62007e-07
8.51835e-11
5.54832e-10
-2.60383e-08
0.000228385
-0.000228421
-0.000192078
1.6516e-09
-6.45064e-09
0.000192077
-0.000192106
-1.96064e-10
-0.000228372
2.3149e-09
2.82198e-08
-6.18363e-08
1.95171e-07
-2.26995e-09
0.00025019
-0.000250319
8.08819e-08
-1.29035e-06
2.30664e-07
8.82454e-07
-2.84294e-07
-9.33491e-07
2.34551e-07
1.25841e-06
-2.85372e-07
2.59786e-07
-0.00113984
-0.00116188
3.35801e-07
-1.03483e-06
7.80798e-07
-8.5916e-07
9.62027e-07
3.5192e-08
1.97616e-08
-8.44384e-08
-0.000244402
-1.37079e-08
3.48565e-07
9.61067e-07
-8.61197e-07
-1.03669e-06
7.79756e-07
-0.00116199
-4.13438e-08
-2.22804e-08
1.29676e-08
1.05702e-07
0.000244414
-0.000244469
5.421e-08
-0.000250162
-1.59414e-07
2.13773e-09
-2.60014e-08
1.42391e-10
0.00022835
-0.000228386
5.66871e-09
-0.000192027
1.71226e-09
-7.96339e-09
-6.20602e-09
0.000192026
-0.000192053
-0.000228337
2.82145e-08
2.47982e-09
-2.37992e-08
-9.70666e-05
-4.15337e-08
-0.000276335
8.03086e-09
2.15451e-08
-1.98807e-08
-4.39154e-08
-0.00027643
1.04935e-08
-5.73334e-09
-9.70765e-05
1.10229e-09
-6.43785e-08
2.00379e-07
-1.66645e-09
0.000250176
-0.000250312
-0.00116161
-9.6871e-09
3.35454e-07
-1.03192e-06
7.75186e-07
-8.56392e-07
9.56314e-07
3.52129e-08
-8.69098e-08
-0.000244409
-1.37714e-08
-1.11471e-08
3.42364e-07
9.58137e-07
-8.55636e-07
-1.03107e-06
7.7693e-07
-0.0011617
-9.15297e-08
-1.47864e-09
5.67093e-08
-0.000250149
-1.64572e-07
2.04415e-09
-6.43644e-08
2.0038e-07
-2.98391e-09
0.000250208
-0.00025034
8.0547e-08
-1.25622e-06
2.25032e-07
8.79948e-07
-2.84308e-07
-9.30788e-07
2.34676e-07
1.22426e-06
-2.8275e-07
2.57235e-07
-0.00114095
-0.00116177
3.35338e-07
-1.0293e-06
7.75287e-07
-8.53679e-07
9.56484e-07
3.52409e-08
1.98875e-08
-8.69503e-08
-0.000244418
-1.37439e-08
3.42164e-07
9.55541e-07
-8.55703e-07
-1.03117e-06
7.74243e-07
-0.00116189
-4.13487e-08
-2.23301e-08
1.29543e-08
1.08106e-07
0.000244429
-0.000244487
5.66964e-08
-0.00025018
-1.64589e-07
2.55101e-09
9.0795e-11
2.80326e-10
-2.40013e-08
0.000228341
-0.000228381
-0.000192031
1.62969e-09
-2.62195e-10
-0.000228328
2.58497e-09
2.61779e-08
2.68564e-10
-2.39953e-08
0.000228377
-0.000228417
5.79869e-09
-0.000192068
1.56086e-09
-8.01547e-09
-6.12781e-09
0.000192067
-0.000192094
-0.000228364
2.32246e-09
2.61665e-08
0.000269571
-2.4341e-07
-2.4873e-07
-0.000271625
2.15817e-08
-4.38848e-08
-0.000276424
7.84054e-09
2.15048e-08
-4.16104e-08
-0.000276372
8.4821e-09
-1.62739e-08
-1.21709e-08
4.41996e-08
0.000276427
-0.000276465
-1.62468e-08
-1.26782e-08
4.18886e-08
0.000276376
-0.000276411
-9.70758e-05
9.70726e-05
-9.70969e-05
-9.70803e-05
9.70771e-05
-9.71014e-05
1.84612e-08
7.95952e-09
-9.7107e-05
1.60939e-08
8.00759e-09
-9.71063e-05
-3.01737e-08
4.78136e-08
0.000220929
-3.06736e-08
6.19873e-08
-0.000220978
-0.000250162
-1.81211e-08
4.16709e-08
-2.48885e-08
-1.67992e-08
4.84207e-08
2.42712e-08
-0.000276449
-0.000181688
-1.05861e-08
9.37465e-09
-1.48138e-08
-0.00018172
1.21205e-07
6.14069e-08
-0.000250248
-3.64265e-08
-9.65687e-09
-2.1148e-08
2.10388e-08
0.000220896
-1.43984e-08
3.86393e-08
-0.00022092
-0.000250109
7.13696e-08
-2.23462e-07
-4.76349e-08
-1.08732e-08
3.21929e-08
1.98039e-08
-0.000276416
-0.000181657
-4.90239e-08
1.73671e-08
-1.31111e-08
-0.000181675
6.33249e-08
4.856e-08
-0.000250168
8.14156e-08
-1.04344e-07
-1.07939e-08
-1.06846e-08
0.000212362
-0.000212385
-7.98914e-05
-1.41397e-08
-7.98816e-05
-1.09101e-08
-7.9917e-05
-7.99054e-05
-0.00014209
-8.40232e-10
-2.67015e-08
0.000142116
2.19241e-09
1.44664e-09
0.00016966
-1.73896e-11
-0.000169687
-2.68872e-08
0.000222144
6.16131e-08
-0.000222178
-2.98195e-10
2.81192e-08
2.56874e-09
0.000228376
2.27114e-11
-5.38977e-08
-0.000142115
-9.91245e-10
0.000169687
-9.79856e-12
0.000222169
-5.38096e-08
4.63052e-09
2.60204e-08
7.84793e-05
1.01115e-09
-7.85063e-05
-6.18347e-09
4.31418e-08
-0.000192072
-0.000261307
2.70075e-08
-4.6475e-09
-5.31108e-08
3.70474e-10
5.41829e-08
-0.000261341
-2.15964e-09
-1.43074e-09
2.66359e-08
0.000142091
-2.56944e-08
9.19825e-11
-2.46086e-11
6.11092e-08
-0.00016966
8.12619e-10
-8.2202e-12
-0.000222133
2.68076e-08
-5.65881e-08
-2.23313e-11
6.34015e-08
-0.00014216
-8.17485e-10
-2.47645e-08
1.97066e-09
0.000142184
1.36979e-09
0.000169694
-0.000169722
-2.48958e-08
0.000222228
-4.23477e-10
6.41676e-08
-0.000222267
2.81414e-08
2.52565e-09
0.000228413
-5.3932e-08
-8.32145e-10
-0.000142183
0.000169721
4.572e-09
0.000222258
-5.64032e-08
2.38931e-08
7.85235e-05
-7.85483e-05
8.46996e-10
-6.22942e-09
-0.000192109
-7.93247e-09
4.10595e-08
-0.000261418
2.49278e-08
-4.56209e-09
-5.31271e-08
-0.000261455
4.2404e-10
5.43361e-08
-1.94482e-09
-7.85214e-05
-2.48815e-08
-2.40688e-08
0.000261421
5.48033e-08
-0.000261458
1.50365e-09
5.78431e-09
-3.50193e-08
-7.85463e-05
-5.29052e-08
-1.34506e-09
2.46409e-08
0.000142161
-2.57368e-08
2.10153e-10
6.11492e-08
-0.000169694
8.00117e-10
-0.00022222
2.48716e-08
-5.67461e-08
6.35165e-08
-9.71089e-05
1.61689e-08
-2.14863e-08
-0.00021237
1.25528e-08
1.24369e-08
-2.33878e-08
-2.1414e-08
0.000212389
1.08115e-08
7.9881e-05
1.32132e-08
-7.99051e-05
1.09023e-08
7.98945e-05
1.31213e-08
-7.99186e-05
2.29223e-08
2.06708e-08
-0.000212391
-1.24621e-08
7.99061e-05
-1.25715e-08
7.99196e-05
3.57015e-08
-2.55505e-08
0.000220882
-0.000220921
-2.26567e-08
5.16053e-08
-0.000250077
2.78539e-08
-9.10881e-08
-3.74109e-08
4.15183e-08
-1.52085e-08
-0.000276398
2.20809e-08
-0.00018165
-2.97064e-08
1.24381e-08
-0.000250152
9.59778e-08
5.63583e-08
-0.000181677
-1.31577e-08
2.35305e-08
-5.68911e-08
-2.55788e-08
3.55116e-08
0.000220953
-0.000220996
-2.04014e-08
5.38112e-08
-0.000250231
2.80091e-08
-9.09232e-08
-3.24804e-08
-1.51104e-08
4.14112e-08
-0.000276499
-1.84393e-08
1.95302e-08
-0.000181702
-2.96167e-08
1.25542e-08
-0.000181729
-1.30642e-08
-0.000250301
9.59486e-08
5.10975e-08
2.15578e-08
-5.88946e-08
-2.76032e-08
-0.000220889
2.95379e-08
-5.66275e-08
2.5896e-08
0.000181649
-0.000181677
0.000250094
-3.60698e-08
5.68351e-08
9.68025e-08
-0.000250169
-4.13633e-08
1.09568e-08
-1.97473e-08
-3.70677e-08
-9.06299e-08
5.21986e-08
-0.000220929
-0.000220961
2.94508e-08
-2.77543e-08
-5.86362e-08
2.59264e-08
0.000181701
-0.000181729
-3.58765e-08
0.000250247
9.67667e-08
5.15669e-08
-0.000250318
1.11398e-08
-4.11633e-08
2.36459e-08
-1.74033e-08
5.4412e-08
-0.000221005
-9.0478e-08
-3.21405e-08
-1.07047e-08
-1.07951e-08
0.000212368
-7.98822e-05
-1.25985e-08
-7.98957e-05
-1.24758e-08
-9.71136e-05
7.88987e-09
-5.85422e-09
2.3779e-08
7.85246e-05
9.19834e-10
-7.85493e-05
-6.10692e-09
4.0972e-08
-0.000192096
-0.000261423
2.49651e-08
-4.45644e-09
-5.07995e-08
4.57736e-10
5.19293e-08
-0.000261458
-1.8828e-09
2.46613e-08
-1.3227e-09
0.00014216
-0.000142182
2.07674e-10
-2.36813e-08
1.05639e-10
6.12453e-08
-0.000228406
-0.00022222
2.48388e-08
-5.42891e-08
-0.000169692
7.60764e-10
-2.42114e-11
6.12025e-08
-0.000222256
7.30708e-11
-0.000169717
2.6041e-08
7.84771e-05
1.00332e-09
-7.85042e-05
-6.23471e-09
-7.95619e-09
4.31104e-08
-0.000192044
-0.000261301
2.71172e-08
-4.44734e-09
-5.06293e-08
2.52723e-10
5.18725e-08
-0.000261334
-2.07433e-09
-1.47474e-09
2.66814e-08
0.000142087
-0.000142111
-2.36717e-08
4.28179e-10
6.12216e-08
-0.000228368
-0.000169657
7.14624e-10
-0.000222126
2.68531e-08
-5.42132e-08
-0.000169682
6.10716e-08
-0.000222159
-0.00014216
-2.47355e-08
-8.10499e-10
1.94916e-09
0.000142184
-2.49598e-08
0.000222232
-3.45061e-10
6.42809e-08
-0.00022227
1.42698e-09
0.000169689
-5.2129e-11
-0.000169717
2.55047e-09
2.80871e-08
0.000228408
-5.11076e-11
-5.38501e-08
-8.25457e-10
-0.000142183
4.56775e-09
0.000222261
-5.63602e-08
0.000169717
-1.57259e-11
2.38907e-08
7.8526e-05
-7.85508e-05
8.47041e-10
-6.29899e-09
-0.000192107
4.31415e-08
-0.000261433
2.49636e-08
-4.54338e-09
-5.31213e-08
-0.00026147
3.58254e-10
5.43428e-08
-1.91103e-09
-7.85239e-05
-2.48999e-08
-2.40812e-08
0.000261436
5.48201e-08
-0.000261474
1.53308e-09
-3.71366e-08
-7.85488e-05
-5.28996e-08
2.46957e-08
-1.40301e-09
0.000142161
3.20888e-10
-2.57486e-08
-5.59877e-11
6.11821e-08
-0.000222223
2.48606e-08
-5.67228e-08
-0.00016969
7.76559e-10
-2.4427e-11
6.36399e-08
-5.57899e-11
-0.000142089
-7.91578e-10
-2.47081e-08
1.91735e-09
0.000142113
1.32029e-09
0.000169655
-0.000169683
-2.48739e-08
0.00022214
-5.31903e-10
6.41327e-08
-0.000222178
2.80839e-08
2.71241e-09
0.000228373
-5.38259e-08
-8.86511e-10
-0.000142112
0.000169683
4.49769e-09
0.000222169
-5.62772e-08
2.37867e-08
7.84823e-05
-7.8507e-05
9.09746e-10
-6.05711e-09
-0.000192054
-7.99228e-09
4.09238e-08
-0.00026131
2.49571e-08
-4.4856e-09
-5.30831e-08
-0.000261347
5.41845e-10
5.42551e-08
-1.8808e-09
-7.84802e-05
-2.4897e-08
-2.39745e-08
0.000261313
5.47213e-08
-0.000261351
1.59688e-09
5.73123e-09
-3.49874e-08
-7.85051e-05
-5.28715e-08
-1.30553e-09
2.46223e-08
0.00014209
-2.57147e-08
-7.44663e-11
6.11489e-08
-0.000169656
7.58637e-10
-0.000222131
2.48189e-08
-5.66339e-08
6.35283e-08
1.83819e-08
-9.70929e-05
3.31982e-08
-2.72357e-08
0.000220865
-2.05649e-08
5.36673e-08
-0.000220904
-0.000250043
2.54959e-08
-9.10187e-08
-3.74614e-08
4.13612e-08
-1.22337e-08
2.20329e-08
-0.000276368
-0.00018164
-3.13868e-08
1.25727e-08
9.5862e-08
5.63024e-08
-0.00025012
-1.32212e-08
-0.000181667
2.15324e-08
-5.89679e-08
-2.75557e-08
3.54707e-08
0.000220941
-2.24284e-08
4.92748e-08
-0.000220975
-0.000250193
2.79584e-08
-8.84971e-08
-3.50639e-08
-1.45617e-08
4.37833e-08
-1.61707e-08
2.19948e-08
-0.000276465
-0.000181699
-3.1633e-08
1.24788e-08
-1.30456e-08
-0.000181728
9.34311e-08
5.36567e-08
-0.000250261
2.35204e-08
-5.44166e-08
-1.06691e-08
-1.07909e-08
0.000212355
-0.000212376
-7.98764e-05
-1.24939e-08
-7.98944e-05
-1.25322e-08
-7.99003e-05
-7.99182e-05
7.90188e-09
-9.71006e-05
-0.00014209
-2.47287e-08
-8.47925e-10
1.97532e-09
0.000142114
-2.49429e-08
0.000222136
6.42137e-08
-0.000222174
-3.47767e-10
1.38391e-09
0.000169657
1.21007e-11
-0.000169683
2.82259e-09
2.60521e-08
0.000228368
-1.23721e-10
-5.63356e-08
-0.000142113
-8.6585e-10
4.5964e-09
0.000222168
-5.87446e-08
0.000169683
-8.47454e-11
2.38071e-08
7.84831e-05
-7.85078e-05
8.90083e-10
-6.20597e-09
4.09681e-08
-0.000192058
-0.00026131
2.49005e-08
-4.53412e-09
-5.0749e-08
-0.000261347
4.19022e-10
5.4327e-08
-1.93467e-09
-2.48405e-08
-7.8481e-05
-5.28927e-08
-0.000261313
-1.51331e-09
2.46912e-08
-1.36252e-09
0.000142091
2.12185e-11
-2.37247e-08
-3.93008e-11
6.37289e-08
-0.000222127
2.48344e-08
-5.66515e-08
-0.000169657
8.18262e-10
-9.1978e-11
6.60251e-08
-7.04317e-13
-0.000142159
-2.67743e-08
-6.52839e-10
2.05891e-09
0.000142184
-2.69644e-08
0.000222226
-4.6351e-10
6.40937e-08
-0.000222263
1.40496e-09
0.000169691
-0.000169716
2.32742e-09
2.60391e-08
0.000228405
-5.6309e-08
-1.07439e-09
-0.000142183
4.42253e-09
0.000222254
-5.62522e-08
0.000169716
2.60288e-08
7.85231e-05
-7.85502e-05
1.09011e-09
-5.99326e-09
-0.000192095
-8.03793e-09
4.09357e-08
-0.000261421
2.71667e-08
-4.41557e-09
-5.06812e-08
-0.000261453
4.70091e-10
5.18182e-08
-2.02935e-09
-7.85211e-05
-2.71061e-08
-2.6202e-08
0.000261424
5.22812e-08
-0.000261457
1.46207e-09
5.83159e-09
-3.4992e-08
-7.85483e-05
-5.04697e-08
2.67159e-08
-1.3906e-09
0.00014216
2.84092e-10
-2.37148e-08
6.36847e-08
-0.000222218
2.68763e-08
-5.65833e-08
-0.000169691
6.37451e-10
6.34988e-08
-0.000212364
1.25064e-08
1.24444e-08
-2.12735e-08
-2.34655e-08
0.000212383
1.07998e-08
7.98919e-05
1.3202e-08
-7.99159e-05
1.08345e-08
7.98808e-05
1.31927e-08
-7.99048e-05
2.06911e-08
2.27917e-08
-0.000212385
-1.24861e-08
7.99169e-05
-1.25753e-08
7.99058e-05
3.31253e-08
-2.72234e-08
0.000220942
-0.000220979
-2.0428e-08
5.13398e-08
-0.000250183
2.53973e-08
-8.60577e-08
-3.4881e-08
4.36896e-08
-1.21768e-08
-0.000276461
-1.60686e-08
2.21502e-08
-0.000181697
-3.14055e-08
1.246e-08
-0.000250253
9.33855e-08
5.37685e-08
-0.000181723
-1.31583e-08
2.13964e-08
-5.66226e-08
3.31434e-08
-2.52864e-08
0.000220881
-0.000220918
-2.25205e-08
5.1567e-08
-0.000250088
2.55495e-08
-9.09741e-08
-3.50388e-08
4.13853e-08
-1.26676e-08
-0.000276407
-1.60492e-08
2.21867e-08
-0.000181652
-2.94526e-08
1.25619e-08
-0.000250163
9.57792e-08
5.37952e-08
-0.000181677
-1.31345e-08
2.36012e-08
-5.68374e-08
-0.00022095
-2.5149e-08
3.12457e-08
-5.63774e-08
2.75681e-08
0.000181696
-0.000181723
-3.34991e-08
0.0002502
5.42233e-08
9.42319e-08
-0.00025027
-4.36111e-08
7.88996e-09
2.15075e-08
-1.97528e-08
5.19517e-08
-0.000220987
-3.45461e-08
-8.80881e-08
-0.000220889
-2.52789e-08
2.92944e-08
-5.65947e-08
2.56314e-08
0.000181652
-0.000181677
-3.35232e-08
0.000250104
5.42679e-08
9.65995e-08
-0.00025018
-4.13391e-08
8.5247e-09
2.1426e-08
-1.9861e-08
5.21742e-08
-0.000220926
-3.4674e-08
-9.05529e-08
-1.06864e-08
-1.07347e-08
0.000212362
-7.98931e-05
-1.25469e-08
-7.98819e-05
-1.24723e-08
-9.70999e-05
-9.71044e-05
1.201e-07
9.19801e-08
0.000242592
-0.000242703
-2.37301e-07
-2.47712e-07
-0.000271601
-0.000261325
2.60647e-08
-0.000261664
1.80665e-07
-0.000261616
-0.000262032
1.09998e-07
1.07178e-07
0.000242605
-0.000242716
-2.42563e-07
-2.47606e-07
-0.000271626
-0.000261694
1.06418e-07
-0.000261339
1.0388e-07
-0.00026202
-0.000261665
1.07466e-07
1.07024e-07
0.000242578
-0.000242689
-2.42459e-07
-2.4758e-07
-0.000271573
-0.000261657
1.03935e-07
-0.0002613
1.03728e-07
-0.000261986
-0.000261628
1.07103e-07
1.07329e-07
0.000242588
-0.000242699
-2.42345e-07
-2.47682e-07
-0.000271587
-0.00026128
1.03683e-07
-0.000261704
1.03941e-07
-0.000261606
-0.000262033
-0.00121473
2.53241e-07
-2.0806e-09
2.59152e-07
4.51261e-09
-0.0012152
2.62039e-07
-1.71231e-09
-0.00121445
-1.98021e-07
0.00123679
-1.87065e-08
-1.31865e-09
-0.00123623
-2.74191e-07
-7.84473e-09
1.1661e-09
1.92423e-07
1.92625e-07
-0.00119078
-0.00121478
2.53316e-07
-0.0012153
2.59333e-07
-5.70794e-10
2.56224e-07
-0.0012145
2.62239e-07
6.92369e-10
-0.00121502
0.00123684
3.27679e-10
-0.00123634
2.53969e-10
2.76909e-07
-0.00121436
-0.00121478
2.52985e-07
-2.48074e-08
2.55784e-07
-1.2166e-07
-0.00121427
-3.04744e-07
0.00123611
-1.27619e-07
-0.00123536
-3.69855e-07
-2.58673e-08
1.91943e-07
2.10013e-07
-0.0011906
-0.00121444
2.64924e-07
-0.0012149
2.52895e-07
2.79743e-07
-0.00121418
2.55777e-07
-0.00121472
0.00123622
-0.00123582
-0.000266538
1.79421e-07
3.19264e-10
0.000267317
2.30977e-09
2.12425e-07
0.000249314
-0.00024946
-6.93184e-09
-5.25466e-09
0.000266981
4.91699e-09
-0.000267644
2.74023e-09
-1.61421e-07
0.000250292
-2.48639e-11
-0.000267352
-1.85367e-08
0.000249436
6.33742e-09
0.000267604
-1.92046e-09
-3.06667e-08
-1.90742e-07
0.000264512
2.07919e-08
-0.000265249
-0.000260358
-1.08702e-08
1.12176e-07
1.50123e-08
-0.000244467
-0.000250099
-1.65106e-07
-6.39247e-09
-0.000260508
6.82849e-09
-0.000250227
-2.5652e-09
-2.13776e-07
8.4286e-09
0.000266503
-3.29522e-09
1.96377e-07
1.38175e-10
-0.000249289
-1.77514e-07
-0.000266942
-2.73845e-09
-4.81314e-09
2.20307e-09
-0.000266588
1.79549e-07
1.20097e-09
2.16348e-09
0.000267369
2.12512e-07
0.000249379
-7.03527e-09
-0.000249522
-6.10954e-09
0.000267008
-0.000267661
2.59431e-09
-1.61429e-07
0.000250324
-1.86527e-08
-0.000267402
6.19847e-09
0.000249498
0.000267629
-1.85843e-07
-2.8347e-08
0.000264558
-0.000265297
1.8345e-08
-0.000260372
-1.29718e-08
1.27148e-08
1.0735e-07
-0.00024448
-0.000250159
-1.67745e-07
-6.29128e-09
-0.000250284
6.89657e-09
-0.00026052
-2.3963e-09
-0.000264589
1.6731e-07
1.27139e-08
1.86848e-07
0.000250178
-0.000250304
2.87161e-08
0.000260396
-0.000260544
-1.36708e-08
-8.64539e-08
-0.000265329
-2.1125e-07
6.72745e-09
0.000266554
-2.68455e-09
1.9644e-07
-0.000249355
-1.80189e-07
-0.000266972
-1.58681e-09
-1.06071e-07
-0.000242622
-1.03543e-07
2.30752e-07
2.35664e-07
0.000261721
-1.10857e-07
-0.000262048
-1.08007e-07
0.000261366
-0.000261693
-0.000242734
-2.85758e-08
-1.83253e-07
0.000264581
2.85801e-08
-0.000265322
-0.000260401
-1.79463e-08
9.98727e-08
1.27881e-08
-0.000244484
-0.000250167
-1.72805e-07
-6.26423e-09
-0.000260548
6.94412e-09
-0.000250293
-1.00218e-08
-2.11389e-07
1.0006e-08
0.000266548
-0.000267351
-3.12441e-09
1.99071e-07
4.24563e-10
-0.000250309
-0.000249348
-1.82727e-07
-0.000266955
-8.32463e-10
-6.83828e-09
-0.000249495
4.4075e-09
-0.000267607
-1.85722e-07
-3.08733e-08
0.000264492
1.56635e-08
-0.000265223
-0.000260309
-1.56361e-08
1.50919e-08
1.02367e-07
-0.000244411
-0.000250073
-1.67567e-07
-6.24721e-09
6.82222e-09
-0.000250199
-0.000260464
8.5989e-11
6.10203e-09
-2.11299e-07
0.000266485
-0.000267299
1.96479e-07
-2.28208e-09
-0.000250282
-0.00026694
-2.08641e-09
-0.000249267
-1.80096e-07
-0.000267589
-0.000249413
-0.000266591
1.81963e-07
-1.94418e-09
1.24894e-08
0.000267359
2.15179e-07
0.000249386
-9.34212e-09
-0.000249529
-6.43852e-09
0.000266994
6.37692e-09
-0.000267658
3.11754e-09
-1.61312e-07
0.000250318
-3.18864e-10
-2.87798e-08
-0.00026739
8.60607e-09
0.000249506
0.000267615
-3.70065e-09
-3.08313e-08
-1.88273e-07
0.000264593
-0.000265331
2.84658e-08
-0.000260434
-1.57486e-08
1.07209e-07
1.25959e-08
-0.000244522
-0.000250187
-1.70125e-07
-8.72413e-09
-0.000260587
-0.000250317
9.19843e-09
-1.27334e-08
-0.000264624
1.54995e-08
1.69715e-07
1.89289e-07
0.000250205
-0.000250336
3.12055e-08
0.000260458
-0.000260611
-8.63676e-08
-1.37119e-08
-0.000265363
-2.13937e-07
9.63149e-09
0.000266557
-2.9815e-09
1.96479e-07
1.98228e-10
-0.000249362
-1.82659e-07
-0.000266958
-1.28909e-09
-6.48699e-09
3.5889e-09
-0.000266529
1.68914e-09
1.79363e-07
-3.78335e-10
0.000267309
-5.83983e-09
0.000266979
-0.000267633
2.12465e-07
0.000249308
-7.09245e-09
-0.000249451
-1.58718e-07
2.57839e-09
0.000250292
-1.60301e-08
-0.000267343
0.000267598
6.13928e-09
0.000249427
-1.85755e-07
-2.83618e-08
0.000264506
-0.00026524
1.5739e-08
-0.000260353
-1.30731e-08
1.28255e-08
1.0481e-07
-0.000244457
-0.000250095
-1.67657e-07
-6.25079e-09
-0.000250221
6.9677e-09
-0.000260506
1.0489e-10
-0.000264538
1.67249e-07
1.27993e-08
1.86759e-07
0.000250114
-0.00025024
2.87273e-08
0.000260377
-0.00026053
-1.3689e-08
-8.40329e-08
-0.000265272
6.20981e-09
-2.11292e-07
0.000266495
1.9385e-07
-2.66068e-09
-0.000266943
-2.07167e-09
-0.000249284
-1.80011e-07
-0.000266528
-1.45261e-09
1.81926e-07
1.50485e-08
0.00026729
-6.16933e-09
0.000266965
2.72973e-09
-0.000267616
2.15065e-07
0.000249304
-0.000249447
-9.35622e-09
-1.61289e-07
3.20622e-09
0.000250278
-1.08939e-10
-0.000267319
-3.12883e-08
0.00026758
-1.20743e-09
8.69898e-09
0.000249422
-3.078e-08
-1.88271e-07
0.000264521
-0.000265262
3.09869e-08
-0.000260373
-1.57103e-08
1.07241e-07
1.26775e-08
-0.000244466
-0.000250099
-1.70224e-07
-6.35945e-09
-0.000260525
-0.00025023
9.25387e-09
-1.01139e-08
1.69737e-07
-8.79644e-07
-0.000264552
1.54701e-08
-0.000250118
1.37873e-08
9.37334e-09
-2.13851e-07
0.000266494
1.96478e-07
-3.27532e-09
-1.91436e-10
-0.000266929
-1.2649e-09
-4.10544e-09
-0.00024928
-1.82597e-07
6.21437e-10
-0.000266575
-8.00537e-10
1.81897e-07
1.49551e-08
0.000267335
-8.87531e-09
0.000266994
-0.000267638
2.14987e-07
0.000249369
-9.48987e-09
-0.000249513
-1.61268e-07
2.75659e-09
0.00025031
-3.14407e-08
-0.000267369
0.000267605
8.53141e-09
0.000249489
-1.88164e-07
-2.83435e-08
0.000264567
-0.000265311
3.11479e-08
-0.00026039
-1.30436e-08
1.28221e-08
1.07226e-07
-0.000244475
-0.000250155
-1.70172e-07
-8.62639e-09
-0.000250288
9.36858e-09
-0.00026054
-1.51862e-08
-0.000264599
1.69772e-07
1.27861e-08
1.89168e-07
0.000250174
-0.000250307
2.86992e-08
0.000260414
-0.000260564
-1.37331e-08
-8.64838e-08
-0.000265343
8.98428e-09
-2.13796e-07
0.000266541
1.96447e-07
-2.88985e-09
-0.000266958
1.184e-10
-0.000249345
-1.82531e-07
-0.000242605
-1.03369e-07
-1.03623e-07
2.30528e-07
2.35902e-07
-1.07954e-07
0.000261307
-0.000261634
-1.08171e-07
0.000261734
-0.00026206
-0.000242717
-8.38169e-07
-8.38106e-07
-0.00114599
4.40703e-07
4.4684e-07
0.00114678
-0.00113697
-1.51026e-06
8.38751e-07
4.14259e-07
0.00113746
-5.10029e-07
1.12361e-06
1.40994e-07
7.39626e-07
-5.57323e-07
-1.2448e-06
7.29289e-08
-0.0011366
-1.50476e-06
8.3828e-07
4.1404e-07
0.0011371
-5.07337e-07
1.11795e-06
1.3783e-07
7.3959e-07
-5.59932e-07
-1.24455e-06
7.64836e-08
-0.000276455
1.53929e-06
1.50494e-06
-4.88405e-07
-4.94092e-07
0.000274393
-1.15915e-06
-1.1191e-06
0.000276471
-0.000274368
8.36106e-08
9.09954e-08
0.00113613
8.41947e-07
-0.00113563
4.18529e-07
-1.54924e-06
1.45077e-07
-5.18562e-07
-1.25109e-06
6.7673e-08
-5.58231e-07
7.40739e-07
1.16481e-06
0.00113659
8.42134e-07
-0.00113609
4.183e-07
-1.55502e-06
1.47744e-07
-5.21599e-07
-1.25704e-06
7.4258e-08
-5.64011e-07
7.46326e-07
-1.12206e-06
0.0002765
-0.00027439
8.62116e-08
9.12424e-08
0.00113725
8.43902e-07
-0.00113675
4.17275e-07
-1.50956e-06
1.39009e-07
-5.13278e-07
-1.25411e-06
7.42489e-08
-5.63958e-07
7.40644e-07
1.1566e-06
0.00113625
8.47764e-07
-0.00113575
4.18023e-07
-1.54669e-06
1.45014e-07
-5.18704e-07
-1.25127e-06
7.42431e-08
-5.63748e-07
7.4052e-07
8.49121e-07
-0.00113646
4.16489e-07
-1.51189e-06
1.39373e-07
-5.1287e-07
-1.25132e-06
7.07899e-08
7.37766e-07
-5.61179e-07
1.15128e-06
0.00113604
8.48467e-07
-0.00113554
4.1781e-07
-1.54094e-06
1.39095e-07
-5.12881e-07
-1.25138e-06
7.08625e-08
-5.63769e-07
7.40501e-07
-1.11637e-06
0.000276447
-0.000274351
8.60567e-08
9.13501e-08
8.43003e-07
-0.00113611
4.27783e-07
-1.50645e-06
1.36255e-07
-5.10108e-07
-1.24831e-06
7.43992e-08
7.37773e-07
-5.6378e-07
1.1138e-06
0.00113715
8.42733e-07
-0.00113665
4.22427e-07
-1.50931e-06
1.36307e-07
-5.12964e-07
-1.24579e-06
7.12066e-08
-5.60995e-07
7.35392e-07
-0.000274367
8.61178e-08
9.15904e-08
1.54756e-06
1.50775e-06
-4.85971e-07
-4.94044e-07
0.000274396
-1.15468e-06
-1.1386e-06
-0.000274464
1.29293e-07
6.41932e-08
0.000276563
4.15521e-07
0.00113662
-5.15837e-07
1.16075e-06
1.46727e-07
7.42461e-07
-5.5452e-07
-1.24736e-06
6.95791e-08
-1.55337e-06
8.37309e-07
4.15939e-07
0.00113709
-5.18761e-07
1.16639e-06
1.4942e-07
7.48227e-07
-5.60256e-07
-1.25325e-06
7.6392e-08
7.93298e-07
-0.00113758
4.13234e-07
-1.54467e-06
1.36241e-07
-5.16412e-07
-1.24099e-06
4.55885e-08
-5.61502e-07
7.40394e-07
0.00113816
1.17095e-06
8.23061e-07
-0.00113803
4.08508e-07
-1.54782e-06
1.54175e-07
-5.1031e-07
-1.23913e-06
8.26318e-08
-5.48824e-07
7.50981e-07
0.00113849
-4.88891e-07
-4.9381e-07
0.000274419
-1.12818e-06
-0.000274479
9.61075e-08
1.01094e-07
0.000276581
4.19379e-07
0.00113774
-5.1043e-07
1.12081e-06
1.40809e-07
7.45379e-07
-5.60158e-07
-1.24757e-06
7.64006e-08
-1.54501e-06
8.37354e-07
4.15665e-07
0.00113674
-5.15844e-07
1.1582e-06
1.46646e-07
7.42413e-07
-5.59984e-07
-1.24754e-06
7.63112e-08
8.33792e-07
-0.00113867
4.36579e-07
-1.49127e-06
1.59853e-07
-4.9156e-07
-1.22826e-06
1.16718e-07
-5.32826e-07
7.53432e-07
0.00113897
1.16278e-06
8.23186e-07
-0.00113769
4.0297e-07
-1.53951e-06
1.51326e-07
-5.0748e-07
-1.23619e-06
8.25104e-08
-5.48663e-07
7.48e-07
0.00113815
8.3805e-07
4.15518e-07
0.00113654
-5.09981e-07
1.15282e-06
1.40759e-07
7.4236e-07
-5.57293e-07
7.29961e-08
-1.2476e-06
8.24383e-07
-0.00113841
4.06822e-07
-1.50469e-06
1.4577e-07
-5.01662e-07
-1.23339e-06
7.92573e-08
-5.45962e-07
7.45224e-07
0.00113886
1.15739e-06
8.23562e-07
-0.00113748
4.08144e-07
-1.53371e-06
1.45475e-07
-5.01603e-07
-1.23343e-06
7.93174e-08
-5.45878e-07
7.45188e-07
0.00113794
-4.88767e-07
-4.93829e-07
0.000274379
-1.12244e-06
-0.000274439
9.32051e-08
1.01247e-07
0.00027653
8.37918e-07
4.2013e-07
0.00113764
-5.0735e-07
1.1181e-06
1.37953e-07
7.37308e-07
-5.57225e-07
7.33187e-08
-1.242e-06
8.23801e-07
-0.00113804
4.07224e-07
-1.49923e-06
1.42659e-07
-4.98844e-07
-1.23318e-06
8.26845e-08
-5.48652e-07
7.45149e-07
0.0011385
1.12273e-06
8.23702e-07
-0.00113859
4.07061e-07
-1.49928e-06
1.42715e-07
-4.989e-07
-1.23064e-06
7.96024e-08
-5.45842e-07
7.42856e-07
0.00113904
-0.000274453
9.60471e-08
1.01412e-07
0.000276535
-0.00114519
4.42587e-07
4.43233e-07
0.001146
-0.00114519
4.42856e-07
4.42813e-07
0.0011456
-0.00114482
4.42579e-07
4.65288e-07
0.00114581
-0.00114502
4.42385e-07
4.60092e-07
-2.1164e-10
6.25202e-08
0.000235846
-0.000235903
-9.58546e-11
-5.00559e-09
-0.000196886
-5.42701e-09
1.32854e-07
-1.63908e-08
0.000196775
-0.000236249
-1.05319e-10
2.39518e-07
0.000236104
-8.506e-08
-9.62634e-09
1.34367e-08
1.37488e-08
0.000196616
-2.85414e-09
-0.00019664
-9.89436e-05
5.56249e-09
5.96204e-08
9.88784e-05
-1.32203e-08
1.74742e-09
9.88365e-05
-9.8825e-05
6.00515e-08
-3.06248e-10
0.000235879
-0.000235931
-5.04818e-09
-2.25951e-09
-0.000196917
-5.4516e-09
1.30778e-07
-1.63092e-08
0.000196808
-0.000236279
2.39737e-07
1.75594e-10
0.000236133
-1.0081e-08
-8.30968e-08
1.3299e-08
1.56878e-08
0.000196646
-2.56353e-09
-0.000196673
4.40978e-07
4.40956e-07
0.00114679
4.40687e-07
4.41086e-07
0.00114639
4.40488e-07
4.41555e-07
0.0011466
-0.00114835
4.35904e-07
4.64e-07
0.00114907
-0.00114837
4.35508e-07
4.35427e-07
0.00114915
-0.00114796
4.29654e-07
4.35529e-07
0.00114875
-0.00114818
4.35088e-07
4.35841e-07
0.00114895
-6.27695e-08
-1.53345e-09
0.000260057
-0.000259995
-1.78815e-08
2.00773e-08
-0.000252843
-6.10787e-08
-1.32888e-07
3.07157e-07
6.28933e-08
0.000252667
0.00113889
-0.00113821
3.12649e-09
8.9999e-07
7.92278e-07
-1.19463e-06
-1.36381e-06
5.95565e-07
4.11812e-07
1.12517e-06
0.00113794
8.34082e-07
-1.24109e-06
7.49813e-08
-5.53599e-07
7.41496e-07