/*--------------------------------*- C++ -*----------------------------------*\
| =========                 |                                                 |
| \\      /  F ield         | OpenFOAM: The Open Source CFD Toolbox           |
|  \\    /   O peration     | Version:  v1906                                 |
|   \\  /    A nd           | Web:      www.OpenFOAM.com                      |
|    \\/     M anipulation  |                                                 |
\*---------------------------------------------------------------------------*/
FoamFile
{
    version     2.0;
    format      ascii;
    class       volScalarField;
    location    "0.225";
    object      p;
}
// * * * * * * * * * * * * * * * * * * * * * * * * * * * * * * * * * * * * * //

dimensions      [0 2 -2 0 0 0 0];


internalField   nonuniform List<scalar> 
247104
(
-1.24719e-10
-5.60899e-11
3.4656e-11
-6.23363e-11
-2.1088e-10
-3.03314e-11
2.76295e-11
-1.32704e-10
-4.48143e-11
4.24946e-12
5.24211e-11
-1.31066e-10
-2.49536e-10
-1.04527e-10
6.20163e-11
-2.61792e-11
7.38597e-11
7.33615e-11
-2.3604e-10
-6.1738e-10
-7.69849e-10
-5.7877e-10
-1.89085e-10
8.62308e-11
6.49099e-11
-4.31025e-12
-8.81918e-11
-5.94379e-10
-1.08575e-09
-1.26365e-09
-1.03953e-09
-5.27216e-10
-5.14926e-11
-2.72108e-11
-1.26567e-10
-1.38715e-10
-1.86308e-10
-7.24356e-10
-1.24026e-09
-1.4243e-09
-1.19238e-09
-6.53417e-10
-1.48659e-10
-1.80566e-10
5.84796e-11
-2.35594e-11
-5.13506e-10
-9.9492e-10
-1.17039e-09
-9.49727e-10
-4.48775e-10
1.00464e-11
3.71147e-11
1.28447e-10
1.55893e-10
-1.08868e-10
-4.65705e-10
-6.12994e-10
-4.2948e-10
-6.77203e-11
1.61147e-10
1.15456e-10
-2.83748e-11
7.39665e-11
1.7506e-10
2.09989e-11
-9.46842e-11
4.47906e-11
1.77356e-10
3.39131e-11
1.54895e-10
4.8994e-11
-1.1827e-10
8.3449e-11
1.44181e-10
-3.38747e-08
-3.59343e-08
-3.61582e-08
-3.73215e-08
-3.73987e-08
-3.748e-08
-3.7471e-08
-3.61131e-08
-3.57476e-08
-3.61639e-08
-3.82167e-08
-4.10934e-08
-4.11727e-08
-4.11733e-08
-4.10935e-08
-3.78144e-08
-3.76108e-08
-3.7316e-08
-4.10906e-08
-4.11578e-08
-4.11098e-08
-4.111e-08
-4.11583e-08
-4.10904e-08
-3.73955e-08
-3.64344e-08
-3.38593e-08
-3.73902e-08
-4.11669e-08
-4.11063e-08
-4.1002e-08
-4.10022e-08
-4.11069e-08
-4.11669e-08
-3.74889e-08
-3.5847e-08
-3.59061e-08
-3.74662e-08
-4.11635e-08
-4.11029e-08
-4.09986e-08
-4.09988e-08
-4.11034e-08
-4.11636e-08
-3.7325e-08
-3.74968e-08
-3.74521e-08
-4.10815e-08
-4.11482e-08
-4.10998e-08
-4.11e-08
-4.11484e-08
-4.10818e-08
-3.75083e-08
-3.65895e-08
-3.60909e-08
-3.77962e-08
-4.10785e-08
-4.11573e-08
-4.11581e-08
-4.10788e-08
-3.76561e-08
-3.7394e-08
-3.59998e-08
-3.57204e-08
-3.75899e-08
-3.73753e-08
-3.74726e-08
-3.73135e-08
-3.75018e-08
-3.73922e-08
-3.5248e-08
-3.64058e-08
-3.58303e-08
-3.74838e-08
-3.65798e-08
-3.59922e-08
-5.39555e-08
-5.41536e-08
-5.43029e-08
-5.64786e-08
-5.65467e-08
-5.65598e-08
-5.64973e-08
-5.42648e-08
-5.40746e-08
-5.42992e-08
-5.71885e-08
-6.01584e-08
-6.03222e-08
-6.03234e-08
-6.01653e-08
-5.65124e-08
-5.60201e-08
-5.64766e-08
-6.01769e-08
-6.05568e-08
-6.05544e-08
-6.05548e-08
-6.0558e-08
-6.01693e-08
-5.57045e-08
-5.37282e-08
-5.39455e-08
-5.65387e-08
-6.03211e-08
-6.05539e-08
-6.05346e-08
-6.05347e-08
-6.05544e-08
-6.03209e-08
-5.56679e-08
-5.40359e-08
-5.41419e-08
-5.6549e-08
-6.032e-08
-6.05535e-08
-6.05338e-08
-6.05337e-08
-6.05528e-08
-6.03196e-08
-5.57357e-08
-5.5974e-08
-5.64869e-08
-6.01684e-08
-6.05556e-08
-6.05524e-08
-6.05519e-08
-6.05541e-08
-6.01665e-08
-5.56407e-08
-5.3677e-08
-5.42534e-08
-5.65055e-08
-6.01647e-08
-6.03182e-08
-6.03185e-08
-6.01591e-08
-5.60145e-08
-5.58214e-08
-5.3771e-08
-5.40573e-08
-5.60119e-08
-5.56972e-08
-5.56647e-08
-5.5734e-08
-5.56392e-08
-5.58226e-08
-5.38157e-08
-5.37215e-08
-5.40299e-08
-5.59726e-08
-5.36728e-08
-5.37749e-08
-7.33268e-08
-7.34997e-08
-7.36172e-08
-7.58808e-08
-7.59375e-08
-7.60387e-08
-7.58438e-08
-7.36055e-08
-7.33838e-08
-7.36151e-08
-7.67169e-08
-7.96386e-08
-7.96944e-08
-7.96958e-08
-7.96426e-08
-7.59909e-08
-7.52795e-08
-7.58704e-08
-7.96345e-08
-7.97993e-08
-7.98031e-08
-7.98041e-08
-7.98019e-08
-7.96398e-08
-7.50383e-08
-7.30849e-08
-7.33095e-08
-7.59239e-08
-7.96894e-08
-7.98017e-08
-7.98004e-08
-7.98011e-08
-7.98034e-08
-7.96924e-08
-7.49399e-08
-7.34177e-08
-7.34843e-08
-7.60262e-08
-7.96896e-08
-7.98008e-08
-7.97995e-08
-7.98001e-08
-7.98022e-08
-7.96925e-08
-7.49767e-08
-7.52392e-08
-7.58343e-08
-7.96349e-08
-7.97965e-08
-7.98003e-08
-7.98013e-08
-7.97988e-08
-7.96373e-08
-7.49608e-08
-7.30662e-08
-7.3596e-08
-7.59829e-08
-7.96327e-08
-7.96878e-08
-7.96895e-08
-7.96339e-08
-7.51818e-08
-7.51049e-08
-7.30973e-08
-7.33773e-08
-7.52717e-08
-7.50308e-08
-7.49355e-08
-7.49731e-08
-7.49581e-08
-7.51042e-08
-7.31092e-08
-7.30766e-08
-7.34133e-08
-7.523e-08
-7.30615e-08
-7.30955e-08
-9.27097e-08
-9.28783e-08
-9.30527e-08
-9.53214e-08
-9.53914e-08
-9.55325e-08
-9.5291e-08
-9.30193e-08
-9.27965e-08
-9.3056e-08
-9.61859e-08
-9.91119e-08
-9.91294e-08
-9.91294e-08
-9.91127e-08
-9.54918e-08
-9.46796e-08
-9.53161e-08
-9.91111e-08
-9.91579e-08
-9.91602e-08
-9.91604e-08
-9.91589e-08
-9.91123e-08
-9.44273e-08
-9.24769e-08
-9.26994e-08
-9.53872e-08
-9.91274e-08
-9.91592e-08
-9.91593e-08
-9.91594e-08
-9.91597e-08
-9.91288e-08
-9.42796e-08
-9.27653e-08
-9.28747e-08
-9.5529e-08
-9.91272e-08
-9.91589e-08
-9.91587e-08
-9.91588e-08
-9.91591e-08
-9.91279e-08
-9.42993e-08
-9.4583e-08
-9.52877e-08
-9.91101e-08
-9.91568e-08
-9.91584e-08
-9.91584e-08
-9.91565e-08
-9.91102e-08
-9.43329e-08
-9.24214e-08
-9.30154e-08
-9.54864e-08
-9.91094e-08
-9.91267e-08
-9.91266e-08
-9.91092e-08
-9.44948e-08
-9.44778e-08
-9.24966e-08
-9.27968e-08
-9.46773e-08
-9.44239e-08
-9.42768e-08
-9.4297e-08
-9.43301e-08
-9.44741e-08
-9.25552e-08
-9.24743e-08
-9.27611e-08
-9.45781e-08
-9.24152e-08
-9.24919e-08
-1.12136e-07
-1.12302e-07
-1.12494e-07
-1.14764e-07
-1.14835e-07
-1.14982e-07
-1.14737e-07
-1.12458e-07
-1.12244e-07
-1.12501e-07
-1.1563e-07
-1.18558e-07
-1.18562e-07
-1.18562e-07
-1.18557e-07
-1.14955e-07
-1.14116e-07
-1.14762e-07
-1.18557e-07
-1.18569e-07
-1.18569e-07
-1.18568e-07
-1.18567e-07
-1.18555e-07
-1.13854e-07
-1.1191e-07
-1.12128e-07
-1.14834e-07
-1.18562e-07
-1.18569e-07
-1.18568e-07
-1.18568e-07
-1.18568e-07
-1.1856e-07
-1.13691e-07
-1.12174e-07
-1.123e-07
-1.14982e-07
-1.18562e-07
-1.18569e-07
-1.18568e-07
-1.18568e-07
-1.18568e-07
-1.1856e-07
-1.13701e-07
-1.13992e-07
-1.14737e-07
-1.18557e-07
-1.18569e-07
-1.18568e-07
-1.18568e-07
-1.18568e-07
-1.18556e-07
-1.13756e-07
-1.11833e-07
-1.12456e-07
-1.14959e-07
-1.18557e-07
-1.18562e-07
-1.18561e-07
-1.18557e-07
-1.13897e-07
-1.13898e-07
-1.1193e-07
-1.12244e-07
-1.14117e-07
-1.13855e-07
-1.13693e-07
-1.13703e-07
-1.13755e-07
-1.13904e-07
-1.11955e-07
-1.11909e-07
-1.12171e-07
-1.13991e-07
-1.11832e-07
-1.11931e-07
-1.31553e-07
-1.31718e-07
-1.31913e-07
-1.34183e-07
-1.34257e-07
-1.34405e-07
-1.3416e-07
-1.31879e-07
-1.31655e-07
-1.31917e-07
-1.3505e-07
-1.3798e-07
-1.37981e-07
-1.37981e-07
-1.3798e-07
-1.34388e-07
-1.33565e-07
-1.34184e-07
-1.3798e-07
-1.37982e-07
-1.37983e-07
-1.37983e-07
-1.37983e-07
-1.37979e-07
-1.33279e-07
-1.3133e-07
-1.31547e-07
-1.34256e-07
-1.37981e-07
-1.37983e-07
-1.37982e-07
-1.37982e-07
-1.37983e-07
-1.37981e-07
-1.33109e-07
-1.31589e-07
-1.31717e-07
-1.34405e-07
-1.37981e-07
-1.37983e-07
-1.37982e-07
-1.37982e-07
-1.37983e-07
-1.37981e-07
-1.33115e-07
-1.33406e-07
-1.34161e-07
-1.3798e-07
-1.37982e-07
-1.37983e-07
-1.37983e-07
-1.37983e-07
-1.3798e-07
-1.33176e-07
-1.31247e-07
-1.3188e-07
-1.34384e-07
-1.3798e-07
-1.37981e-07
-1.37981e-07
-1.3798e-07
-1.33305e-07
-1.33312e-07
-1.3135e-07
-1.31673e-07
-1.33537e-07
-1.33275e-07
-1.3311e-07
-1.33115e-07
-1.33178e-07
-1.3332e-07
-1.31377e-07
-1.31331e-07
-1.31586e-07
-1.33406e-07
-1.3125e-07
-1.31352e-07
-1.50965e-07
-1.5113e-07
-1.51327e-07
-1.53598e-07
-1.53673e-07
-1.5382e-07
-1.53576e-07
-1.51293e-07
-1.5107e-07
-1.51331e-07
-1.54465e-07
-1.57398e-07
-1.57399e-07
-1.57398e-07
-1.57399e-07
-1.53805e-07
-1.52981e-07
-1.536e-07
-1.57399e-07
-1.574e-07
-1.57399e-07
-1.57399e-07
-1.574e-07
-1.57399e-07
-1.52697e-07
-1.50746e-07
-1.50959e-07
-1.53673e-07
-1.57399e-07
-1.574e-07
-1.57399e-07
-1.57399e-07
-1.57399e-07
-1.57399e-07
-1.52523e-07
-1.51003e-07
-1.5113e-07
-1.53822e-07
-1.57399e-07
-1.57399e-07
-1.57399e-07
-1.57399e-07
-1.57399e-07
-1.57399e-07
-1.52529e-07
-1.5282e-07
-1.53578e-07
-1.57398e-07
-1.574e-07
-1.574e-07
-1.57399e-07
-1.57399e-07
-1.57399e-07
-1.52591e-07
-1.50661e-07
-1.51296e-07
-1.53803e-07
-1.57398e-07
-1.574e-07
-1.57399e-07
-1.57399e-07
-1.52722e-07
-1.52728e-07
-1.50764e-07
-1.51088e-07
-1.52952e-07
-1.52693e-07
-1.52524e-07
-1.52531e-07
-1.52592e-07
-1.52734e-07
-1.50792e-07
-1.50744e-07
-1.51e-07
-1.52819e-07
-1.50663e-07
-1.50765e-07
-1.70389e-07
-1.70554e-07
-1.70751e-07
-1.73023e-07
-1.73097e-07
-1.73245e-07
-1.73001e-07
-1.70717e-07
-1.70493e-07
-1.70755e-07
-1.73888e-07
-1.76822e-07
-1.76822e-07
-1.76822e-07
-1.76822e-07
-1.73231e-07
-1.72405e-07
-1.73024e-07
-1.76822e-07
-1.76822e-07
-1.76822e-07
-1.76822e-07
-1.76822e-07
-1.76822e-07
-1.72119e-07
-1.7017e-07
-1.70383e-07
-1.73097e-07
-1.76822e-07
-1.76822e-07
-1.76822e-07
-1.76822e-07
-1.76822e-07
-1.76822e-07
-1.71947e-07
-1.70426e-07
-1.70554e-07
-1.73246e-07
-1.76822e-07
-1.76822e-07
-1.76822e-07
-1.76822e-07
-1.76822e-07
-1.76822e-07
-1.71953e-07
-1.72244e-07
-1.73002e-07
-1.76822e-07
-1.76822e-07
-1.76822e-07
-1.76822e-07
-1.76822e-07
-1.76822e-07
-1.72014e-07
-1.70085e-07
-1.70719e-07
-1.73226e-07
-1.76822e-07
-1.76822e-07
-1.76822e-07
-1.76822e-07
-1.72142e-07
-1.7215e-07
-1.70188e-07
-1.70512e-07
-1.72377e-07
-1.72118e-07
-1.71947e-07
-1.71954e-07
-1.72016e-07
-1.72157e-07
-1.70215e-07
-1.70168e-07
-1.70425e-07
-1.72243e-07
-1.70086e-07
-1.70189e-07
-1.8981e-07
-1.89975e-07
-1.90172e-07
-1.92444e-07
-1.92517e-07
-1.92665e-07
-1.92421e-07
-1.90138e-07
-1.89915e-07
-1.90176e-07
-1.93309e-07
-1.96242e-07
-1.96242e-07
-1.96242e-07
-1.96242e-07
-1.92652e-07
-1.91825e-07
-1.92445e-07
-1.96242e-07
-1.96243e-07
-1.96242e-07
-1.96243e-07
-1.96242e-07
-1.96242e-07
-1.9154e-07
-1.89591e-07
-1.89804e-07
-1.92518e-07
-1.96242e-07
-1.96243e-07
-1.96243e-07
-1.96243e-07
-1.96243e-07
-1.96242e-07
-1.91367e-07
-1.89846e-07
-1.89975e-07
-1.92667e-07
-1.96242e-07
-1.96243e-07
-1.96242e-07
-1.96243e-07
-1.96243e-07
-1.96242e-07
-1.91373e-07
-1.91664e-07
-1.92422e-07
-1.96242e-07
-1.96243e-07
-1.96243e-07
-1.96243e-07
-1.96242e-07
-1.96242e-07
-1.91434e-07
-1.89506e-07
-1.90139e-07
-1.92646e-07
-1.96242e-07
-1.96242e-07
-1.96242e-07
-1.96242e-07
-1.91562e-07
-1.9157e-07
-1.89609e-07
-1.89933e-07
-1.91797e-07
-1.91537e-07
-1.91367e-07
-1.91374e-07
-1.91436e-07
-1.91577e-07
-1.89636e-07
-1.89588e-07
-1.89845e-07
-1.91663e-07
-1.89507e-07
-1.8961e-07
-2.09229e-07
-2.09393e-07
-2.09592e-07
-2.11865e-07
-2.11938e-07
-2.12086e-07
-2.11842e-07
-2.09555e-07
-2.09333e-07
-2.09596e-07
-2.12729e-07
-2.15667e-07
-2.15667e-07
-2.15667e-07
-2.15666e-07
-2.12074e-07
-2.11245e-07
-2.11865e-07
-2.15667e-07
-2.15667e-07
-2.15668e-07
-2.15668e-07
-2.15667e-07
-2.15667e-07
-2.10961e-07
-2.09009e-07
-2.09222e-07
-2.11938e-07
-2.15667e-07
-2.15668e-07
-2.15668e-07
-2.15668e-07
-2.15668e-07
-2.15667e-07
-2.10789e-07
-2.09265e-07
-2.09393e-07
-2.12087e-07
-2.15667e-07
-2.15668e-07
-2.15668e-07
-2.15668e-07
-2.15667e-07
-2.15667e-07
-2.10795e-07
-2.11083e-07
-2.11843e-07
-2.15667e-07
-2.15667e-07
-2.15667e-07
-2.15668e-07
-2.15667e-07
-2.15667e-07
-2.10855e-07
-2.08924e-07
-2.09558e-07
-2.12068e-07
-2.15667e-07
-2.15667e-07
-2.15667e-07
-2.15667e-07
-2.10985e-07
-2.10991e-07
-2.09027e-07
-2.09351e-07
-2.11217e-07
-2.10959e-07
-2.10789e-07
-2.10795e-07
-2.10857e-07
-2.10998e-07
-2.09055e-07
-2.09007e-07
-2.09263e-07
-2.11083e-07
-2.08925e-07
-2.09028e-07
-2.28666e-07
-2.28832e-07
-2.29041e-07
-2.31303e-07
-2.31377e-07
-2.31525e-07
-2.31281e-07
-2.28993e-07
-2.28771e-07
-2.29037e-07
-2.32168e-07
-2.35105e-07
-2.35105e-07
-2.35104e-07
-2.35105e-07
-2.31511e-07
-2.30684e-07
-2.31304e-07
-2.35104e-07
-2.35104e-07
-2.35104e-07
-2.35104e-07
-2.35104e-07
-2.35105e-07
-2.30399e-07
-2.28447e-07
-2.2866e-07
-2.31377e-07
-2.35104e-07
-2.35104e-07
-2.35104e-07
-2.35104e-07
-2.35104e-07
-2.35104e-07
-2.30227e-07
-2.28703e-07
-2.28831e-07
-2.31526e-07
-2.35104e-07
-2.35104e-07
-2.35104e-07
-2.35104e-07
-2.35104e-07
-2.35104e-07
-2.30233e-07
-2.30523e-07
-2.31282e-07
-2.35105e-07
-2.35104e-07
-2.35104e-07
-2.35104e-07
-2.35104e-07
-2.35105e-07
-2.30294e-07
-2.28362e-07
-2.28996e-07
-2.31507e-07
-2.35105e-07
-2.35104e-07
-2.35104e-07
-2.35105e-07
-2.30423e-07
-2.30429e-07
-2.28466e-07
-2.28789e-07
-2.30656e-07
-2.30397e-07
-2.30227e-07
-2.30234e-07
-2.30296e-07
-2.30437e-07
-2.28493e-07
-2.28445e-07
-2.28702e-07
-2.30522e-07
-2.28364e-07
-2.28466e-07
-2.48106e-07
-2.48271e-07
-2.48476e-07
-2.50739e-07
-2.50812e-07
-2.50961e-07
-2.50716e-07
-2.48432e-07
-2.48211e-07
-2.48469e-07
-2.51604e-07
-2.54534e-07
-2.54534e-07
-2.54534e-07
-2.54534e-07
-2.50943e-07
-2.5012e-07
-2.50741e-07
-2.54534e-07
-2.54533e-07
-2.54533e-07
-2.54533e-07
-2.54533e-07
-2.54534e-07
-2.49834e-07
-2.47886e-07
-2.481e-07
-2.50812e-07
-2.54534e-07
-2.54533e-07
-2.54533e-07
-2.54533e-07
-2.54533e-07
-2.54534e-07
-2.49661e-07
-2.48141e-07
-2.4827e-07
-2.50961e-07
-2.54534e-07
-2.54533e-07
-2.54533e-07
-2.54533e-07
-2.54533e-07
-2.54534e-07
-2.49667e-07
-2.49959e-07
-2.50717e-07
-2.54534e-07
-2.54533e-07
-2.54533e-07
-2.54533e-07
-2.54533e-07
-2.54534e-07
-2.49728e-07
-2.47801e-07
-2.48435e-07
-2.50941e-07
-2.54534e-07
-2.54534e-07
-2.54534e-07
-2.54534e-07
-2.49855e-07
-2.49865e-07
-2.47905e-07
-2.48228e-07
-2.50092e-07
-2.49832e-07
-2.49661e-07
-2.49667e-07
-2.49729e-07
-2.49872e-07
-2.47931e-07
-2.47884e-07
-2.4814e-07
-2.49958e-07
-2.47802e-07
-2.47906e-07
-2.67517e-07
-2.67681e-07
-2.67887e-07
-2.70148e-07
-2.70222e-07
-2.70371e-07
-2.70126e-07
-2.67843e-07
-2.67622e-07
-2.6788e-07
-2.71014e-07
-2.73945e-07
-2.73945e-07
-2.73945e-07
-2.73945e-07
-2.70354e-07
-2.6953e-07
-2.70151e-07
-2.73945e-07
-2.73945e-07
-2.73945e-07
-2.73945e-07
-2.73945e-07
-2.73945e-07
-2.69244e-07
-2.67296e-07
-2.67511e-07
-2.70223e-07
-2.73945e-07
-2.73945e-07
-2.73946e-07
-2.73946e-07
-2.73945e-07
-2.73945e-07
-2.69072e-07
-2.67552e-07
-2.67681e-07
-2.70372e-07
-2.73945e-07
-2.73945e-07
-2.73946e-07
-2.73946e-07
-2.73945e-07
-2.73945e-07
-2.69077e-07
-2.69369e-07
-2.70127e-07
-2.73945e-07
-2.73945e-07
-2.73945e-07
-2.73945e-07
-2.73945e-07
-2.73945e-07
-2.69138e-07
-2.67211e-07
-2.67845e-07
-2.70352e-07
-2.73945e-07
-2.73945e-07
-2.73945e-07
-2.73945e-07
-2.69266e-07
-2.69275e-07
-2.67315e-07
-2.67639e-07
-2.69502e-07
-2.69242e-07
-2.69072e-07
-2.69078e-07
-2.6914e-07
-2.69282e-07
-2.67341e-07
-2.67294e-07
-2.6755e-07
-2.69368e-07
-2.67212e-07
-2.67316e-07
-2.86927e-07
-2.87092e-07
-2.87301e-07
-2.89561e-07
-2.89635e-07
-2.89784e-07
-2.89538e-07
-2.87254e-07
-2.87032e-07
-2.87298e-07
-2.90426e-07
-2.93362e-07
-2.93362e-07
-2.93362e-07
-2.93362e-07
-2.89768e-07
-2.88943e-07
-2.89563e-07
-2.93362e-07
-2.93362e-07
-2.93363e-07
-2.93363e-07
-2.93362e-07
-2.93362e-07
-2.88658e-07
-2.86707e-07
-2.86921e-07
-2.89636e-07
-2.93362e-07
-2.93363e-07
-2.93363e-07
-2.93363e-07
-2.93362e-07
-2.93362e-07
-2.88486e-07
-2.86963e-07
-2.87091e-07
-2.89785e-07
-2.93362e-07
-2.93363e-07
-2.93363e-07
-2.93363e-07
-2.93362e-07
-2.93362e-07
-2.88492e-07
-2.88781e-07
-2.8954e-07
-2.93362e-07
-2.93362e-07
-2.93363e-07
-2.93363e-07
-2.93362e-07
-2.93362e-07
-2.88552e-07
-2.86622e-07
-2.87256e-07
-2.89766e-07
-2.93362e-07
-2.93362e-07
-2.93362e-07
-2.93362e-07
-2.88681e-07
-2.88688e-07
-2.86726e-07
-2.8705e-07
-2.88915e-07
-2.88656e-07
-2.88486e-07
-2.88492e-07
-2.88554e-07
-2.88695e-07
-2.86753e-07
-2.86705e-07
-2.86961e-07
-2.8878e-07
-2.86623e-07
-2.86726e-07
-3.06354e-07
-3.06519e-07
-3.06727e-07
-3.08988e-07
-3.09062e-07
-3.0921e-07
-3.08965e-07
-3.06681e-07
-3.06459e-07
-3.06723e-07
-3.09852e-07
-3.12788e-07
-3.12787e-07
-3.12787e-07
-3.12787e-07
-3.09195e-07
-3.0837e-07
-3.0899e-07
-3.12787e-07
-3.12787e-07
-3.12787e-07
-3.12787e-07
-3.12787e-07
-3.12787e-07
-3.08084e-07
-3.06134e-07
-3.06348e-07
-3.09063e-07
-3.12787e-07
-3.12787e-07
-3.12787e-07
-3.12787e-07
-3.12787e-07
-3.12787e-07
-3.07912e-07
-3.0639e-07
-3.06519e-07
-3.09211e-07
-3.12787e-07
-3.12787e-07
-3.12787e-07
-3.12787e-07
-3.12787e-07
-3.12787e-07
-3.07918e-07
-3.08208e-07
-3.08967e-07
-3.12787e-07
-3.12787e-07
-3.12787e-07
-3.12787e-07
-3.12787e-07
-3.12787e-07
-3.07979e-07
-3.0605e-07
-3.06683e-07
-3.09192e-07
-3.12787e-07
-3.12787e-07
-3.12787e-07
-3.12787e-07
-3.08107e-07
-3.08115e-07
-3.06153e-07
-3.06477e-07
-3.08342e-07
-3.08082e-07
-3.07912e-07
-3.0792e-07
-3.0798e-07
-3.08122e-07
-3.0618e-07
-3.06132e-07
-3.06388e-07
-3.08209e-07
-3.06051e-07
-3.06154e-07
-3.25776e-07
-3.25941e-07
-3.26148e-07
-3.2841e-07
-3.28484e-07
-3.28633e-07
-3.28387e-07
-3.26104e-07
-3.25882e-07
-3.26146e-07
-3.29275e-07
-3.3221e-07
-3.32211e-07
-3.32211e-07
-3.3221e-07
-3.28617e-07
-3.27792e-07
-3.28412e-07
-3.3221e-07
-3.32211e-07
-3.32211e-07
-3.32211e-07
-3.32211e-07
-3.3221e-07
-3.27507e-07
-3.25557e-07
-3.2577e-07
-3.28485e-07
-3.32211e-07
-3.32211e-07
-3.32211e-07
-3.32211e-07
-3.32211e-07
-3.32211e-07
-3.27335e-07
-3.25813e-07
-3.25941e-07
-3.28634e-07
-3.32211e-07
-3.32211e-07
-3.32211e-07
-3.32211e-07
-3.32211e-07
-3.32211e-07
-3.2734e-07
-3.27631e-07
-3.28389e-07
-3.32211e-07
-3.32211e-07
-3.32211e-07
-3.32211e-07
-3.32211e-07
-3.3221e-07
-3.27401e-07
-3.25472e-07
-3.26106e-07
-3.28615e-07
-3.32211e-07
-3.32211e-07
-3.32211e-07
-3.3221e-07
-3.2753e-07
-3.27537e-07
-3.25576e-07
-3.25899e-07
-3.27764e-07
-3.27505e-07
-3.27335e-07
-3.27341e-07
-3.27402e-07
-3.27544e-07
-3.25602e-07
-3.25555e-07
-3.25811e-07
-3.27629e-07
-3.25473e-07
-3.25576e-07
-3.45202e-07
-3.45367e-07
-3.45575e-07
-3.47837e-07
-3.47911e-07
-3.4806e-07
-3.47814e-07
-3.4553e-07
-3.45308e-07
-3.45572e-07
-3.48702e-07
-3.51639e-07
-3.51639e-07
-3.51639e-07
-3.51639e-07
-3.48045e-07
-3.47219e-07
-3.47839e-07
-3.51639e-07
-3.51639e-07
-3.51639e-07
-3.51639e-07
-3.51639e-07
-3.51639e-07
-3.46935e-07
-3.44983e-07
-3.45196e-07
-3.47912e-07
-3.51639e-07
-3.51639e-07
-3.51639e-07
-3.51639e-07
-3.51639e-07
-3.51639e-07
-3.46762e-07
-3.45239e-07
-3.45367e-07
-3.48061e-07
-3.51639e-07
-3.51639e-07
-3.51639e-07
-3.51639e-07
-3.51639e-07
-3.51639e-07
-3.46768e-07
-3.47058e-07
-3.47817e-07
-3.51639e-07
-3.51639e-07
-3.51639e-07
-3.51639e-07
-3.51639e-07
-3.51639e-07
-3.46829e-07
-3.44898e-07
-3.45532e-07
-3.48043e-07
-3.51639e-07
-3.5164e-07
-3.51639e-07
-3.51639e-07
-3.46958e-07
-3.46965e-07
-3.45002e-07
-3.45325e-07
-3.47191e-07
-3.46932e-07
-3.46762e-07
-3.46769e-07
-3.4683e-07
-3.46972e-07
-3.45029e-07
-3.44981e-07
-3.45237e-07
-3.47057e-07
-3.44899e-07
-3.45002e-07
-3.64637e-07
-3.64801e-07
-3.6501e-07
-3.6727e-07
-3.67344e-07
-3.67492e-07
-3.67247e-07
-3.64964e-07
-3.64742e-07
-3.65006e-07
-3.68135e-07
-3.71069e-07
-3.71069e-07
-3.71069e-07
-3.71069e-07
-3.67477e-07
-3.66652e-07
-3.67272e-07
-3.7107e-07
-3.71069e-07
-3.71069e-07
-3.71069e-07
-3.71069e-07
-3.71069e-07
-3.66367e-07
-3.64417e-07
-3.64631e-07
-3.67345e-07
-3.71069e-07
-3.71069e-07
-3.71069e-07
-3.71069e-07
-3.71069e-07
-3.71069e-07
-3.66194e-07
-3.64673e-07
-3.64801e-07
-3.67494e-07
-3.71069e-07
-3.71069e-07
-3.71069e-07
-3.71069e-07
-3.71069e-07
-3.71069e-07
-3.662e-07
-3.66491e-07
-3.6725e-07
-3.71069e-07
-3.71069e-07
-3.71069e-07
-3.71069e-07
-3.71069e-07
-3.71069e-07
-3.66261e-07
-3.64332e-07
-3.64966e-07
-3.67474e-07
-3.71069e-07
-3.71069e-07
-3.71069e-07
-3.71069e-07
-3.6639e-07
-3.66397e-07
-3.64436e-07
-3.64759e-07
-3.66624e-07
-3.66365e-07
-3.66195e-07
-3.66201e-07
-3.66263e-07
-3.66405e-07
-3.64463e-07
-3.64415e-07
-3.64671e-07
-3.6649e-07
-3.64334e-07
-3.64436e-07
-3.84059e-07
-3.84224e-07
-3.84432e-07
-3.86692e-07
-3.86766e-07
-3.86914e-07
-3.86669e-07
-3.84386e-07
-3.84164e-07
-3.84428e-07
-3.87556e-07
-3.9049e-07
-3.9049e-07
-3.9049e-07
-3.9049e-07
-3.86898e-07
-3.86074e-07
-3.86694e-07
-3.9049e-07
-3.9049e-07
-3.9049e-07
-3.9049e-07
-3.9049e-07
-3.9049e-07
-3.85788e-07
-3.83839e-07
-3.84053e-07
-3.86766e-07
-3.9049e-07
-3.9049e-07
-3.9049e-07
-3.9049e-07
-3.9049e-07
-3.9049e-07
-3.85616e-07
-3.84095e-07
-3.84224e-07
-3.86915e-07
-3.9049e-07
-3.9049e-07
-3.9049e-07
-3.9049e-07
-3.9049e-07
-3.9049e-07
-3.85622e-07
-3.85912e-07
-3.86671e-07
-3.9049e-07
-3.9049e-07
-3.9049e-07
-3.9049e-07
-3.9049e-07
-3.9049e-07
-3.85683e-07
-3.83754e-07
-3.84388e-07
-3.86896e-07
-3.9049e-07
-3.9049e-07
-3.9049e-07
-3.9049e-07
-3.85811e-07
-3.85819e-07
-3.83858e-07
-3.84182e-07
-3.86046e-07
-3.85786e-07
-3.85616e-07
-3.85622e-07
-3.85684e-07
-3.85826e-07
-3.83885e-07
-3.83837e-07
-3.84094e-07
-3.85912e-07
-3.83756e-07
-3.83859e-07
-4.03477e-07
-4.03642e-07
-4.03851e-07
-4.06111e-07
-4.06185e-07
-4.06333e-07
-4.06088e-07
-4.03805e-07
-4.03583e-07
-4.03847e-07
-4.06976e-07
-4.0991e-07
-4.0991e-07
-4.0991e-07
-4.09911e-07
-4.06318e-07
-4.05493e-07
-4.06113e-07
-4.0991e-07
-4.09911e-07
-4.09911e-07
-4.09911e-07
-4.09911e-07
-4.09911e-07
-4.05208e-07
-4.03258e-07
-4.03472e-07
-4.06186e-07
-4.09911e-07
-4.09911e-07
-4.09911e-07
-4.09911e-07
-4.09911e-07
-4.09911e-07
-4.05036e-07
-4.03514e-07
-4.03642e-07
-4.06335e-07
-4.09911e-07
-4.09911e-07
-4.09911e-07
-4.09911e-07
-4.09911e-07
-4.09911e-07
-4.05041e-07
-4.05332e-07
-4.0609e-07
-4.09911e-07
-4.09911e-07
-4.09911e-07
-4.09911e-07
-4.09911e-07
-4.09911e-07
-4.05102e-07
-4.03173e-07
-4.03807e-07
-4.06316e-07
-4.09911e-07
-4.09911e-07
-4.09911e-07
-4.09911e-07
-4.05231e-07
-4.05238e-07
-4.03277e-07
-4.036e-07
-4.05465e-07
-4.05206e-07
-4.05036e-07
-4.05042e-07
-4.05103e-07
-4.05245e-07
-4.03303e-07
-4.03256e-07
-4.03512e-07
-4.05331e-07
-4.03175e-07
-4.03277e-07
-4.22899e-07
-4.23064e-07
-4.23272e-07
-4.25533e-07
-4.25606e-07
-4.25754e-07
-4.2551e-07
-4.23226e-07
-4.23004e-07
-4.23268e-07
-4.26397e-07
-4.29331e-07
-4.29331e-07
-4.29331e-07
-4.29331e-07
-4.25739e-07
-4.24914e-07
-4.25534e-07
-4.29331e-07
-4.29331e-07
-4.29331e-07
-4.29331e-07
-4.29331e-07
-4.29331e-07
-4.24629e-07
-4.2268e-07
-4.22893e-07
-4.25607e-07
-4.29331e-07
-4.29331e-07
-4.29331e-07
-4.29331e-07
-4.29331e-07
-4.29331e-07
-4.24457e-07
-4.22936e-07
-4.23064e-07
-4.25756e-07
-4.29331e-07
-4.29331e-07
-4.29331e-07
-4.29331e-07
-4.29331e-07
-4.29331e-07
-4.24462e-07
-4.24753e-07
-4.25512e-07
-4.29331e-07
-4.29331e-07
-4.29331e-07
-4.29331e-07
-4.29331e-07
-4.29331e-07
-4.24523e-07
-4.22595e-07
-4.23229e-07
-4.25737e-07
-4.29331e-07
-4.29331e-07
-4.29331e-07
-4.29331e-07
-4.24652e-07
-4.2466e-07
-4.22699e-07
-4.23022e-07
-4.24886e-07
-4.24627e-07
-4.24457e-07
-4.24463e-07
-4.24525e-07
-4.24667e-07
-4.22725e-07
-4.22678e-07
-4.22934e-07
-4.24753e-07
-4.22597e-07
-4.22699e-07
-4.42316e-07
-4.42481e-07
-4.42689e-07
-4.4495e-07
-4.45024e-07
-4.45172e-07
-4.44927e-07
-4.42643e-07
-4.42421e-07
-4.42686e-07
-4.45815e-07
-4.48751e-07
-4.48751e-07
-4.48751e-07
-4.48751e-07
-4.45158e-07
-4.44332e-07
-4.44952e-07
-4.48751e-07
-4.48751e-07
-4.48751e-07
-4.48751e-07
-4.48751e-07
-4.48751e-07
-4.44047e-07
-4.42097e-07
-4.4231e-07
-4.45025e-07
-4.48751e-07
-4.48751e-07
-4.48751e-07
-4.48751e-07
-4.48751e-07
-4.48751e-07
-4.43875e-07
-4.42353e-07
-4.42481e-07
-4.45174e-07
-4.48751e-07
-4.48751e-07
-4.48751e-07
-4.48751e-07
-4.48751e-07
-4.48751e-07
-4.43881e-07
-4.4417e-07
-4.44929e-07
-4.48751e-07
-4.48751e-07
-4.48751e-07
-4.48751e-07
-4.48751e-07
-4.48751e-07
-4.43941e-07
-4.42012e-07
-4.42646e-07
-4.45155e-07
-4.48751e-07
-4.48751e-07
-4.48751e-07
-4.48751e-07
-4.4407e-07
-4.44077e-07
-4.42115e-07
-4.42439e-07
-4.44304e-07
-4.44045e-07
-4.43875e-07
-4.43881e-07
-4.43943e-07
-4.44084e-07
-4.42142e-07
-4.42095e-07
-4.42351e-07
-4.4417e-07
-4.42014e-07
-4.42116e-07
-4.61742e-07
-4.61907e-07
-4.62115e-07
-4.64378e-07
-4.64452e-07
-4.646e-07
-4.64355e-07
-4.62069e-07
-4.61848e-07
-4.62112e-07
-4.65243e-07
-4.6818e-07
-4.6818e-07
-4.6818e-07
-4.6818e-07
-4.64586e-07
-4.6376e-07
-4.6438e-07
-4.6818e-07
-4.6818e-07
-4.6818e-07
-4.6818e-07
-4.6818e-07
-4.6818e-07
-4.63475e-07
-4.61523e-07
-4.61736e-07
-4.64453e-07
-4.6818e-07
-4.6818e-07
-4.6818e-07
-4.6818e-07
-4.6818e-07
-4.6818e-07
-4.63303e-07
-4.6178e-07
-4.61907e-07
-4.64602e-07
-4.6818e-07
-4.6818e-07
-4.6818e-07
-4.6818e-07
-4.6818e-07
-4.6818e-07
-4.63309e-07
-4.63598e-07
-4.64357e-07
-4.6818e-07
-4.6818e-07
-4.6818e-07
-4.6818e-07
-4.6818e-07
-4.6818e-07
-4.6337e-07
-4.61438e-07
-4.62073e-07
-4.64583e-07
-4.6818e-07
-4.6818e-07
-4.6818e-07
-4.6818e-07
-4.63499e-07
-4.63505e-07
-4.61542e-07
-4.61865e-07
-4.63732e-07
-4.63473e-07
-4.63303e-07
-4.63309e-07
-4.63371e-07
-4.63512e-07
-4.61569e-07
-4.61521e-07
-4.61778e-07
-4.63597e-07
-4.6144e-07
-4.61542e-07
-4.81179e-07
-4.81343e-07
-4.81551e-07
-4.83812e-07
-4.83886e-07
-4.84034e-07
-4.83789e-07
-4.81504e-07
-4.81283e-07
-4.81548e-07
-4.84677e-07
-4.87611e-07
-4.87611e-07
-4.87611e-07
-4.87611e-07
-4.84019e-07
-4.83194e-07
-4.83814e-07
-4.87611e-07
-4.87611e-07
-4.8761e-07
-4.8761e-07
-4.8761e-07
-4.87611e-07
-4.82908e-07
-4.80959e-07
-4.81173e-07
-4.83887e-07
-4.87611e-07
-4.8761e-07
-4.8761e-07
-4.8761e-07
-4.8761e-07
-4.87611e-07
-4.82736e-07
-4.81215e-07
-4.81343e-07
-4.84035e-07
-4.87611e-07
-4.8761e-07
-4.8761e-07
-4.8761e-07
-4.8761e-07
-4.87611e-07
-4.82741e-07
-4.83033e-07
-4.83791e-07
-4.87611e-07
-4.8761e-07
-4.8761e-07
-4.8761e-07
-4.8761e-07
-4.87611e-07
-4.82803e-07
-4.80874e-07
-4.81508e-07
-4.84016e-07
-4.87611e-07
-4.87611e-07
-4.87611e-07
-4.87611e-07
-4.82931e-07
-4.82939e-07
-4.80978e-07
-4.81301e-07
-4.83166e-07
-4.82906e-07
-4.82736e-07
-4.82742e-07
-4.82804e-07
-4.82946e-07
-4.81004e-07
-4.80957e-07
-4.81213e-07
-4.83032e-07
-4.80876e-07
-4.80978e-07
-5.00599e-07
-5.00764e-07
-5.00972e-07
-5.03232e-07
-5.03307e-07
-5.03455e-07
-5.03209e-07
-5.00924e-07
-5.00704e-07
-5.00968e-07
-5.04098e-07
-5.07032e-07
-5.07032e-07
-5.07032e-07
-5.07032e-07
-5.0344e-07
-5.02614e-07
-5.03233e-07
-5.07032e-07
-5.07032e-07
-5.07032e-07
-5.07032e-07
-5.07032e-07
-5.07032e-07
-5.02329e-07
-5.0038e-07
-5.00593e-07
-5.03307e-07
-5.07032e-07
-5.07032e-07
-5.07032e-07
-5.07032e-07
-5.07032e-07
-5.07032e-07
-5.02157e-07
-5.00635e-07
-5.00764e-07
-5.03456e-07
-5.07032e-07
-5.07032e-07
-5.07032e-07
-5.07032e-07
-5.07032e-07
-5.07032e-07
-5.02162e-07
-5.02453e-07
-5.03212e-07
-5.07032e-07
-5.07032e-07
-5.07032e-07
-5.07032e-07
-5.07032e-07
-5.07032e-07
-5.02223e-07
-5.00294e-07
-5.00928e-07
-5.03437e-07
-5.07032e-07
-5.07032e-07
-5.07032e-07
-5.07032e-07
-5.02352e-07
-5.02359e-07
-5.00398e-07
-5.00722e-07
-5.02586e-07
-5.02327e-07
-5.02157e-07
-5.02163e-07
-5.02224e-07
-5.02366e-07
-5.00425e-07
-5.00377e-07
-5.00634e-07
-5.02452e-07
-5.00296e-07
-5.00398e-07
-5.20023e-07
-5.20188e-07
-5.20395e-07
-5.22657e-07
-5.22732e-07
-5.2288e-07
-5.22635e-07
-5.20349e-07
-5.20128e-07
-5.20392e-07
-5.23522e-07
-5.26457e-07
-5.26457e-07
-5.26457e-07
-5.26458e-07
-5.22865e-07
-5.22039e-07
-5.22659e-07
-5.26457e-07
-5.26457e-07
-5.26457e-07
-5.26457e-07
-5.26457e-07
-5.26458e-07
-5.21754e-07
-5.19804e-07
-5.20017e-07
-5.22732e-07
-5.26457e-07
-5.26457e-07
-5.26457e-07
-5.26457e-07
-5.26457e-07
-5.26458e-07
-5.21582e-07
-5.2006e-07
-5.20188e-07
-5.22881e-07
-5.26457e-07
-5.26457e-07
-5.26457e-07
-5.26457e-07
-5.26457e-07
-5.26458e-07
-5.21588e-07
-5.21878e-07
-5.22637e-07
-5.26458e-07
-5.26457e-07
-5.26457e-07
-5.26457e-07
-5.26457e-07
-5.26458e-07
-5.21649e-07
-5.19719e-07
-5.20353e-07
-5.22862e-07
-5.26458e-07
-5.26458e-07
-5.26458e-07
-5.26458e-07
-5.21777e-07
-5.21785e-07
-5.19822e-07
-5.20146e-07
-5.22011e-07
-5.21752e-07
-5.21582e-07
-5.21588e-07
-5.2165e-07
-5.21792e-07
-5.19849e-07
-5.19802e-07
-5.20058e-07
-5.21877e-07
-5.1972e-07
-5.19823e-07
-5.39448e-07
-5.39613e-07
-5.3982e-07
-5.42081e-07
-5.42156e-07
-5.42303e-07
-5.42058e-07
-5.39774e-07
-5.39553e-07
-5.39817e-07
-5.42946e-07
-5.45879e-07
-5.45879e-07
-5.45879e-07
-5.45879e-07
-5.42288e-07
-5.41463e-07
-5.42083e-07
-5.45879e-07
-5.45879e-07
-5.45879e-07
-5.45879e-07
-5.45879e-07
-5.45879e-07
-5.41177e-07
-5.39229e-07
-5.39442e-07
-5.42155e-07
-5.45879e-07
-5.45879e-07
-5.45879e-07
-5.45879e-07
-5.45879e-07
-5.45879e-07
-5.41005e-07
-5.39485e-07
-5.39613e-07
-5.42304e-07
-5.45879e-07
-5.45879e-07
-5.45879e-07
-5.45879e-07
-5.45879e-07
-5.45879e-07
-5.41011e-07
-5.41302e-07
-5.4206e-07
-5.45879e-07
-5.45879e-07
-5.45879e-07
-5.45879e-07
-5.45879e-07
-5.45879e-07
-5.41072e-07
-5.39144e-07
-5.39778e-07
-5.42285e-07
-5.45879e-07
-5.45879e-07
-5.45879e-07
-5.45879e-07
-5.412e-07
-5.41208e-07
-5.39248e-07
-5.39571e-07
-5.41435e-07
-5.41176e-07
-5.41005e-07
-5.41011e-07
-5.41073e-07
-5.41215e-07
-5.39274e-07
-5.39227e-07
-5.39483e-07
-5.41301e-07
-5.39146e-07
-5.39248e-07
-5.58864e-07
-5.59029e-07
-5.59236e-07
-5.61498e-07
-5.61573e-07
-5.6172e-07
-5.61475e-07
-5.59189e-07
-5.58969e-07
-5.59233e-07
-5.62363e-07
-5.65298e-07
-5.65298e-07
-5.65298e-07
-5.65298e-07
-5.61706e-07
-5.6088e-07
-5.615e-07
-5.65298e-07
-5.65298e-07
-5.65298e-07
-5.65298e-07
-5.65298e-07
-5.65298e-07
-5.60594e-07
-5.58644e-07
-5.58858e-07
-5.61573e-07
-5.65298e-07
-5.65299e-07
-5.65299e-07
-5.65299e-07
-5.65298e-07
-5.65298e-07
-5.60422e-07
-5.589e-07
-5.59028e-07
-5.61722e-07
-5.65298e-07
-5.65298e-07
-5.65298e-07
-5.65298e-07
-5.65298e-07
-5.65298e-07
-5.60428e-07
-5.60717e-07
-5.61477e-07
-5.65298e-07
-5.65298e-07
-5.65298e-07
-5.65298e-07
-5.65298e-07
-5.65298e-07
-5.60488e-07
-5.58559e-07
-5.59194e-07
-5.61702e-07
-5.65298e-07
-5.65298e-07
-5.65298e-07
-5.65298e-07
-5.60617e-07
-5.60624e-07
-5.58662e-07
-5.58987e-07
-5.60851e-07
-5.60592e-07
-5.60422e-07
-5.60428e-07
-5.6049e-07
-5.60631e-07
-5.58689e-07
-5.58642e-07
-5.58898e-07
-5.60717e-07
-5.5856e-07
-5.58663e-07
-5.78291e-07
-5.78456e-07
-5.78663e-07
-5.80924e-07
-5.80998e-07
-5.81146e-07
-5.80901e-07
-5.78616e-07
-5.78396e-07
-5.78659e-07
-5.81788e-07
-5.84722e-07
-5.84722e-07
-5.84722e-07
-5.84722e-07
-5.81131e-07
-5.80306e-07
-5.80925e-07
-5.84722e-07
-5.84722e-07
-5.84722e-07
-5.84722e-07
-5.84722e-07
-5.84722e-07
-5.8002e-07
-5.78071e-07
-5.78284e-07
-5.80998e-07
-5.84722e-07
-5.84722e-07
-5.84722e-07
-5.84722e-07