/*--------------------------------*- C++ -*----------------------------------*\
| =========                 |                                                 |
| \\      /  F ield         | OpenFOAM: The Open Source CFD Toolbox           |
|  \\    /   O peration     | Version:  v1906                                 |
|   \\  /    A nd           | Web:      www.OpenFOAM.com                      |
|    \\/     M anipulation  |                                                 |
\*---------------------------------------------------------------------------*/
FoamFile
{
    version     2.0;
    format      ascii;
    class       volScalarField;
    location    "1000";
    object      epsilon;
}
// * * * * * * * * * * * * * * * * * * * * * * * * * * * * * * * * * * * * * //

dimensions      [0 2 -3 0 0 0 0];


internalField   nonuniform List<scalar> 
43024
(
6.63539e-07
1.18841e-06
1.18847e-06
1.42057e-06
6.68505e-07
1.19041e-06
1.19047e-06
1.4226e-06
6.72902e-07
1.19192e-06
1.19198e-06
1.42422e-06
6.76748e-07
1.19295e-06
1.19301e-06
1.42544e-06
6.80066e-07
1.19353e-06
1.19359e-06
1.42627e-06
6.82878e-07
1.19367e-06
1.19373e-06
1.42673e-06
6.85206e-07
1.19343e-06
1.1935e-06
1.42684e-06
6.87071e-07
1.19281e-06
1.19288e-06
1.4266e-06
6.88498e-07
1.19183e-06
1.1919e-06
1.42604e-06
6.89507e-07
1.19051e-06
1.19057e-06
1.42516e-06
6.90122e-07
1.18887e-06
1.18894e-06
1.424e-06
6.9037e-07
1.18694e-06
1.18701e-06
1.42257e-06
6.9029e-07
1.18474e-06
1.18481e-06
1.42089e-06
6.89923e-07
1.18229e-06
1.18236e-06
1.41897e-06
6.8926e-07
1.17962e-06
1.17972e-06
1.41687e-06
6.88334e-07
1.17674e-06
1.17686e-06
1.41451e-06
6.87165e-07
1.17369e-06
1.17383e-06
1.41196e-06
6.8578e-07
1.17049e-06
1.17066e-06
1.40925e-06
6.84198e-07
1.16717e-06
1.16733e-06
1.40637e-06
6.82198e-07
1.1635e-06
1.1636e-06
1.403e-06
6.63167e-07
1.10578e-06
1.10577e-06
1.3588e-06
1.41844e-06
1.18789e-06
1.18792e-06
1.4184e-06
1.1878e-06
1.18792e-06
1.18782e-06
1.18795e-06
1.41846e-06
1.18787e-06
1.18786e-06
1.4185e-06
1.42051e-06
1.42054e-06
1.18848e-06
1.18851e-06
1.19001e-06
1.19004e-06
1.42047e-06
1.42049e-06
1.1884e-06
1.18852e-06
1.18992e-06
1.19005e-06
1.18855e-06
1.18994e-06
1.19007e-06
1.42054e-06
1.42057e-06
1.18846e-06
1.19e-06
1.18999e-06
1.4206e-06
1.42255e-06
1.42223e-06
1.19048e-06
1.19051e-06
1.19163e-06
1.19166e-06
1.42251e-06
1.42218e-06
1.1904e-06
1.19053e-06
1.19155e-06
1.19168e-06
1.19055e-06
1.19156e-06
1.1917e-06
1.42258e-06
1.42226e-06
1.19046e-06
1.19162e-06
1.19161e-06
1.42229e-06
1.42417e-06
1.42344e-06
1.19199e-06
1.19202e-06
1.19278e-06
1.19281e-06
1.42412e-06
1.42356e-06
1.19191e-06
1.19204e-06
1.19269e-06
1.19283e-06
1.19206e-06
1.1927e-06
1.19284e-06
1.4242e-06
1.42364e-06
1.19197e-06
1.19277e-06
1.19276e-06
1.42368e-06
1.42555e-06
1.42427e-06
1.19302e-06
1.19305e-06
1.19348e-06
1.1935e-06
1.42533e-06
1.4245e-06
1.19294e-06
1.19307e-06
1.19339e-06
1.19353e-06
1.19309e-06
1.1934e-06
1.19354e-06
1.42541e-06
1.42458e-06
1.19301e-06
1.19346e-06
1.19346e-06
1.42461e-06
1.42649e-06
1.42479e-06
1.19361e-06
1.19363e-06
1.19375e-06
1.19377e-06
1.42616e-06
1.42501e-06
1.19352e-06
1.19365e-06
1.19367e-06
1.1938e-06
1.19367e-06
1.19367e-06
1.19381e-06
1.42623e-06
1.42509e-06
1.19359e-06
1.19373e-06
1.19373e-06
1.42512e-06
1.42696e-06
1.42494e-06
1.19375e-06
1.19377e-06
1.19358e-06
1.19361e-06
1.42662e-06
1.42515e-06
1.19366e-06
1.1938e-06
1.1935e-06
1.19363e-06
1.19381e-06
1.1935e-06
1.19365e-06
1.4267e-06
1.42523e-06
1.19373e-06
1.19357e-06
1.19357e-06
1.42527e-06
1.42706e-06
1.42474e-06
1.19352e-06
1.19354e-06
1.19303e-06
1.19306e-06
1.42673e-06
1.42496e-06
1.19344e-06
1.19357e-06
1.19295e-06
1.19308e-06
1.19358e-06
1.19295e-06
1.19309e-06
1.4268e-06
1.42504e-06
1.1935e-06
1.19302e-06
1.19301e-06
1.42507e-06
1.42682e-06
1.42421e-06
1.1929e-06
1.19292e-06
1.19211e-06
1.19213e-06
1.42649e-06
1.42443e-06
1.19281e-06
1.19295e-06
1.19202e-06
1.19216e-06
1.19296e-06
1.19202e-06
1.19217e-06
1.42657e-06
1.42451e-06
1.19288e-06
1.19209e-06
1.19209e-06
1.42454e-06
1.42626e-06
1.42337e-06
1.19192e-06
1.19194e-06
1.19084e-06
1.19087e-06
1.42592e-06
1.42359e-06
1.19183e-06
1.19197e-06
1.19075e-06
1.19089e-06
1.19198e-06
1.19076e-06
1.1909e-06
1.426e-06
1.42367e-06
1.1919e-06
1.19082e-06
1.19082e-06
1.42371e-06
1.42538e-06
1.42224e-06
1.19059e-06
1.19062e-06
1.18925e-06
1.18928e-06
1.42505e-06
1.42246e-06
1.19051e-06
1.19064e-06
1.18917e-06
1.1893e-06
1.19066e-06
1.18917e-06
1.18932e-06
1.42513e-06
1.42254e-06
1.19058e-06
1.18924e-06
1.18923e-06
1.42257e-06
1.42421e-06
1.42084e-06
1.18896e-06
1.18898e-06
1.18737e-06
1.1874e-06
1.42389e-06
1.42106e-06
1.18887e-06
1.18901e-06
1.18728e-06
1.18742e-06
1.18902e-06
1.18729e-06
1.18743e-06
1.42396e-06
1.42114e-06
1.18894e-06
1.18735e-06
1.18735e-06
1.42118e-06
1.42279e-06
1.41918e-06
1.18703e-06
1.18705e-06
1.18521e-06
1.18525e-06
1.42246e-06
1.41941e-06
1.18695e-06
1.18708e-06
1.18513e-06
1.18527e-06
1.1871e-06
1.18513e-06
1.18528e-06
1.42254e-06
1.41949e-06
1.18701e-06
1.1852e-06
1.18519e-06
1.41952e-06
1.42107e-06
1.41738e-06
1.18483e-06
1.18485e-06
1.18279e-06
1.18284e-06
1.42079e-06
1.41748e-06
1.18475e-06
1.18489e-06
1.18271e-06
1.18285e-06
1.1849e-06
1.18272e-06
1.18286e-06
1.42087e-06
1.41756e-06
1.18482e-06
1.18279e-06
1.18278e-06
1.41761e-06
1.41902e-06
1.41527e-06
1.18239e-06
1.18241e-06
1.18014e-06
1.1802e-06
1.41894e-06
1.41523e-06
1.18231e-06
1.18245e-06
1.18006e-06
1.1802e-06
1.18246e-06
1.18009e-06
1.18022e-06
1.41902e-06
1.41531e-06
1.18238e-06
1.18014e-06
1.18013e-06
1.41538e-06
1.41682e-06
1.4129e-06
1.17973e-06
1.17973e-06
1.17729e-06
1.17736e-06
1.41676e-06
1.41286e-06
1.17965e-06
1.17979e-06
1.17721e-06
1.17735e-06
1.1798e-06
1.17725e-06
1.17736e-06
1.41684e-06
1.41294e-06
1.17971e-06
1.17727e-06
1.17727e-06
1.41298e-06
1.41444e-06
1.41036e-06
1.17687e-06
1.17686e-06
1.17424e-06
1.17433e-06
1.41439e-06
1.41031e-06
1.17679e-06
1.17693e-06
1.17416e-06
1.1743e-06
1.17694e-06
1.17422e-06
1.17431e-06
1.41447e-06
1.4104e-06
1.17686e-06
1.17422e-06
1.17423e-06
1.41042e-06
1.4119e-06
1.40766e-06
1.17385e-06
1.17382e-06
1.17103e-06
1.1711e-06
1.41184e-06
1.40761e-06
1.17377e-06
1.17391e-06
1.17095e-06
1.17109e-06
1.17392e-06
1.17103e-06
1.1711e-06
1.41192e-06
1.40769e-06
1.17383e-06
1.17101e-06
1.17101e-06
1.40772e-06
1.40919e-06
1.40481e-06
1.17067e-06
1.17069e-06
1.16768e-06
1.16772e-06
1.40914e-06
1.40476e-06
1.1706e-06
1.17074e-06
1.1676e-06
1.16774e-06
1.17075e-06
1.16769e-06
1.16775e-06
1.40922e-06
1.40485e-06
1.17066e-06
1.16767e-06
1.16766e-06
1.40487e-06
1.40632e-06
1.40151e-06
1.16735e-06
1.16738e-06
1.16382e-06
1.16385e-06
1.40626e-06
1.40146e-06
1.16728e-06
1.16741e-06
1.16373e-06
1.16386e-06
1.16742e-06
1.1638e-06
1.16388e-06
1.40635e-06
1.40154e-06
1.16734e-06
1.1638e-06
1.16379e-06
1.40157e-06
1.40294e-06
1.38099e-06
1.16363e-06
1.16366e-06
1.14125e-06
1.14127e-06
1.40289e-06
1.38097e-06
1.16355e-06
1.16369e-06
1.14123e-06
1.14122e-06
1.1637e-06
1.14134e-06
1.1413e-06
1.40297e-06
1.381e-06
1.16361e-06
1.14131e-06
1.14127e-06
1.38121e-06
1.35881e-06
1.10574e-06
1.10577e-06
1.35876e-06
1.10574e-06
1.10572e-06
6.63204e-07
6.63169e-07
6.63199e-07
1.10579e-06
1.35878e-06
1.10579e-06
4.23881e-06
9.56553e-06
1.90933e-05
4.23898e-06
9.56752e-06
6.62192e-07
6.62203e-07
6.62283e-07
6.62289e-07
2.29549e-06
1.18657e-06
3.64734e-06
9.35035e-07
1.90944e-05
2.29547e-06
1.18661e-06
9.35075e-07
3.64741e-06
1.41729e-06
5.65054e-06
5.65251e-06
4.24105e-06
9.57203e-06
4.24064e-06
9.57641e-06
1.91046e-05
1.91146e-05
4.24122e-06
9.57405e-06
4.24076e-06
9.5784e-06
6.63549e-07
6.6363e-07
6.63629e-07
6.67299e-07
6.67309e-07
6.67391e-07
6.67399e-07
2.29662e-06
3.64923e-06
9.37679e-07
1.18894e-06
2.29657e-06
3.64947e-06
9.38461e-07
1.91056e-05
1.91156e-05
2.2966e-06
9.37723e-07
3.64925e-06
1.189e-06
2.29655e-06
9.38506e-07
3.64953e-06
5.65362e-06
5.65558e-06
1.41961e-06
5.65454e-06
5.65651e-06
4.24301e-06
9.58263e-06
4.24268e-06
9.58679e-06
1.91254e-05
1.91351e-05
4.24318e-06
9.58464e-06
4.24281e-06
9.58878e-06
6.68515e-07
6.68596e-07
6.68592e-07
6.71833e-07
6.71842e-07
6.71925e-07
6.71932e-07
2.29738e-06
3.65116e-06
9.40658e-07
1.19081e-06
2.29747e-06
3.65128e-06
9.41286e-07
1.91264e-05
1.91361e-05
2.29744e-06
9.40704e-07
3.65118e-06
1.19087e-06
2.29741e-06
9.41333e-07
3.65134e-06
5.65744e-06
5.65939e-06
1.4215e-06
5.65825e-06
5.66022e-06
4.24468e-06
9.59269e-06
4.24445e-06
9.59662e-06
1.91455e-05
1.91548e-05
4.24485e-06
9.5947e-06
4.24458e-06
9.59862e-06
6.72911e-07
6.72994e-07
6.72989e-07
6.75811e-07
6.7582e-07
6.75904e-07
6.7591e-07
2.29773e-06
3.65279e-06
9.43053e-07
1.19219e-06
2.29806e-06
3.65279e-06
9.43534e-07
1.91464e-05
1.91558e-05
2.29781e-06
9.43101e-07
3.6528e-06
1.19225e-06
2.29791e-06
9.43583e-07
3.65285e-06
5.66097e-06
5.66292e-06
1.42301e-06
5.66167e-06
5.66364e-06
4.24605e-06
9.6022e-06
4.24594e-06
9.60591e-06
1.91647e-05
1.91738e-05
4.24622e-06
9.60422e-06
4.24605e-06
9.60791e-06
6.76758e-07
6.76842e-07
6.76836e-07
6.79254e-07
6.79263e-07
6.79347e-07
6.79354e-07
2.29777e-06
3.65412e-06
9.44893e-07
1.19311e-06
2.29822e-06
3.654e-06
9.45233e-07
1.91657e-05
1.91748e-05
2.29772e-06
9.44942e-07
3.65413e-06
1.19317e-06
2.29818e-06
9.45283e-07
3.65406e-06
5.66422e-06
5.66617e-06
1.4242e-06
5.66481e-06
5.66677e-06
4.24716e-06
9.61116e-06
4.24715e-06
9.61465e-06
1.91832e-05
1.91919e-05
4.24732e-06
9.61317e-06
4.24726e-06
9.61663e-06
6.80075e-07
6.80159e-07
6.80154e-07
6.82184e-07
6.82191e-07
6.82276e-07
6.82282e-07
2.29749e-06
3.65516e-06
9.46203e-07
1.19359e-06
2.29806e-06
3.65493e-06
9.46413e-07
1.91842e-05
1.91929e-05
2.29743e-06
9.46252e-07
3.65518e-06
1.19365e-06
2.29802e-06
9.46464e-07
3.65499e-06
5.66718e-06
5.66913e-06
1.42488e-06
5.66766e-06
5.66962e-06
4.24799e-06
9.61957e-06
4.24809e-06
9.62283e-06
1.92009e-05
1.92093e-05
4.24814e-06
9.62157e-06
4.24818e-06
9.62481e-06
6.82885e-07
6.82971e-07
6.82965e-07
6.8462e-07
6.84626e-07
6.84712e-07
6.84718e-07
2.29689e-06
3.65592e-06
9.47012e-07
1.19364e-06
2.29759e-06
3.65558e-06
9.47105e-07
1.92018e-05
1.92103e-05
2.29683e-06
9.47061e-07
3.65594e-06
1.1937e-06
2.29753e-06
9.47156e-07
3.65565e-06
5.66987e-06
5.67181e-06
1.42521e-06
5.67024e-06
5.67219e-06
4.24856e-06
9.62742e-06
4.24876e-06
9.63045e-06
1.92178e-05
1.92258e-05
4.2487e-06
9.62941e-06
4.24884e-06
9.63243e-06
6.85211e-07
6.85298e-07
6.85292e-07
6.86589e-07
6.86594e-07
6.86681e-07
6.86686e-07
2.29606e-06
3.6564e-06
9.47344e-07
1.19327e-06
2.29679e-06
3.65596e-06
9.47343e-07
1.92187e-05
1.92267e-05
2.29599e-06
9.47394e-07
3.65643e-06
1.19334e-06
2.29672e-06
9.47393e-07
3.65604e-06
5.67227e-06
5.67421e-06
1.42518e-06
5.67253e-06
5.67449e-06
4.24888e-06
9.63472e-06
4.24917e-06
9.63753e-06
1.92338e-05
1.92415e-05
4.24901e-06
9.63671e-06
4.24926e-06
9.6395e-06
6.87076e-07
6.87163e-07
6.87158e-07
6.88115e-07
6.8812e-07
6.88207e-07
6.88211e-07
2.29487e-06
3.65663e-06
9.47239e-07
1.19253e-06
2.29572e-06
3.65608e-06
9.47128e-07
1.92346e-05
1.92423e-05
2.29479e-06
9.47288e-07
3.65666e-06
1.1926e-06
2.29565e-06
9.47176e-07
3.65616e-06
5.6744e-06
5.67635e-06
1.42482e-06
5.67453e-06
5.6765e-06
4.24895e-06
9.64147e-06
4.24934e-06
9.64405e-06
1.92489e-05
1.92562e-05
4.24908e-06
9.64345e-06
4.24942e-06
9.64609e-06
6.88503e-07
6.8859e-07
6.88585e-07
6.89225e-07
6.89231e-07
6.89317e-07
6.8932e-07
2.29341e-06
3.6566e-06
9.46744e-07
1.19143e-06
2.29438e-06
3.65595e-06
9.46505e-07
1.92497e-05
1.92571e-05
2.29334e-06
9.46792e-07
3.65663e-06
1.1915e-06
2.29431e-06
9.46551e-07
3.65603e-06
5.67624e-06
5.67819e-06
1.42414e-06
5.67625e-06
5.67822e-06
4.24879e-06
9.64765e-06
4.24927e-06
9.65002e-06
1.92631e-05
1.92702e-05
4.24893e-06
9.64971e-06
4.24936e-06
9.65208e-06
6.89514e-07
6.896e-07
6.89596e-07
6.89949e-07
6.89956e-07
6.90042e-07
6.90042e-07
2.29172e-06
3.65632e-06
9.45867e-07
1.19e-06
2.29279e-06
3.65557e-06
9.45506e-07
1.92639e-05
1.92711e-05
2.29165e-06
9.45914e-07
3.65636e-06
1.19007e-06
2.29273e-06
9.4555e-07
3.65564e-06
5.67782e-06
5.67977e-06
1.42315e-06
5.6777e-06
5.67967e-06
4.24843e-06
9.65328e-06
4.24899e-06
9.65545e-06
1.92764e-05
1.92833e-05
4.24857e-06
9.65536e-06
4.24908e-06
9.65754e-06
6.90128e-07
6.90214e-07
6.90212e-07
6.90313e-07
6.90322e-07
6.90405e-07
6.90405e-07
2.2898e-06
3.65581e-06
9.44636e-07
1.18826e-06
2.29098e-06
3.65495e-06
9.44163e-07
1.92772e-05
1.92842e-05
2.28978e-06
9.44681e-07
3.65584e-06
1.18833e-06
2.2909e-06
9.44206e-07
3.65502e-06
5.67914e-06
5.68109e-06
1.42189e-06
5.67888e-06
5.68084e-06
4.24787e-06
9.65835e-06
4.24851e-06
9.66036e-06
1.92888e-05
1.92956e-05
4.24802e-06
9.66045e-06
4.2486e-06
9.66247e-06
6.90375e-07
6.90462e-07
6.90461e-07
6.90321e-07
6.90327e-07
6.90412e-07
6.90412e-07
2.28769e-06
3.65508e-06
9.43079e-07
1.18624e-06
2.28896e-06
3.6541e-06
9.42503e-07
1.92896e-05
1.92965e-05
2.28768e-06
9.43123e-07
3.65511e-06
1.18631e-06
2.28886e-06
9.42544e-07
3.65416e-06
5.68022e-06
5.68217e-06
1.42036e-06
5.67978e-06
5.68174e-06
4.24713e-06
9.66286e-06
4.24784e-06
9.66477e-06
1.93003e-05
1.93071e-05
4.24727e-06
9.66498e-06
4.24793e-06
9.6669e-06
6.90296e-07
6.90381e-07
6.90381e-07
6.89994e-07
6.90006e-07
6.90086e-07
6.90086e-07
2.28538e-06
3.65414e-06
9.41223e-07
1.18396e-06
2.28674e-06
3.65301e-06
9.40553e-07
1.9301e-05
1.9308e-05
2.28538e-06
9.41268e-07
3.65417e-06
1.18402e-06
2.28664e-06
9.4059e-07
3.65308e-06
5.68108e-06
5.68303e-06
1.41858e-06
5.68041e-06
5.68237e-06
4.24619e-06
9.66688e-06
4.24698e-06
9.6687e-06
1.93108e-05
1.93179e-05
4.24634e-06
9.66901e-06
4.24708e-06
9.67084e-06
6.89923e-07
6.90015e-07
6.90013e-07
6.89375e-07
6.89387e-07
6.89467e-07
6.89467e-07
2.28289e-06
3.65301e-06
9.39095e-07
1.18143e-06
2.28433e-06
3.65169e-06
9.38339e-07
1.93115e-05
1.93188e-05
2.28289e-06
9.39149e-07
3.65303e-06
1.18149e-06
2.28423e-06
9.38368e-07
3.65175e-06
5.68174e-06
5.68369e-06
1.41653e-06
5.68074e-06
5.68271e-06
4.24507e-06
9.67034e-06
4.24594e-06
9.67211e-06
1.93202e-05
1.9328e-05
4.24523e-06
9.67248e-06
4.24604e-06
9.67426e-06
6.89268e-07
6.89351e-07
6.8935e-07
6.88488e-07
6.88496e-07
6.88579e-07
6.88579e-07
2.28021e-06
3.65171e-06
9.36719e-07
1.17869e-06
2.28174e-06
3.65011e-06
9.35885e-07
1.9321e-05
1.9329e-05
2.28023e-06
9.36779e-07
3.65173e-06
1.17873e-06
2.28163e-06
9.35906e-07
3.65017e-06
5.68223e-06
5.68418e-06
1.41419e-06
5.68074e-06
5.68271e-06
4.24379e-06
9.67325e-06
4.24473e-06
9.67517e-06
1.93285e-05
1.93378e-05
4.24395e-06
9.67539e-06
4.24484e-06
9.67732e-06
6.88341e-07
6.88424e-07
6.88423e-07
6.87352e-07
6.87361e-07
6.87443e-07
6.87443e-07
2.27738e-06
3.65028e-06
9.3412e-07
1.17575e-06
2.27898e-06
3.64824e-06
9.33219e-07
1.93293e-05
1.93387e-05
2.2774e-06
9.34192e-07
3.6503e-06
1.17577e-06
2.27885e-06
9.33229e-07
3.6483e-06
5.68259e-06
5.68454e-06
1.41172e-06
5.68038e-06
5.68235e-06
4.24242e-06
9.67562e-06
4.2434e-06
9.678e-06
1.93356e-05
1.93473e-05
4.24258e-06
9.67777e-06
4.24352e-06
9.68016e-06
6.87173e-07
6.87255e-07
6.87255e-07
6.85989e-07
6.85998e-07
6.86079e-07
6.86077e-07
2.27442e-06
3.64878e-06
9.31323e-07
1.17264e-06
2.27607e-06
3.64594e-06
9.30363e-07
1.93364e-05
1.93482e-05
2.27442e-06
9.31413e-07
3.6488e-06
1.17264e-06
2.27595e-06
9.30356e-07
3.64599e-06
5.68288e-06
5.68483e-06
1.40909e-06
5.6796e-06
5.68157e-06
4.24111e-06
9.67745e-06
4.24205e-06
9.68098e-06
1.93414e-05
1.93567e-05
4.24127e-06
9.67955e-06
4.24216e-06
9.68307e-06
6.85788e-07
6.85869e-07
6.85869e-07
6.84418e-07
6.84426e-07
6.84509e-07
6.84508e-07
2.27132e-06
3.64727e-06
9.28355e-07
1.16939e-06
2.27304e-06
3.64295e-06
9.27343e-07
1.93423e-05
1.93577e-05
2.27129e-06
9.28468e-07
3.64729e-06
1.16936e-06
2.27296e-06
9.27315e-07
3.643e-06
5.68311e-06
5.68506e-06
1.40631e-06
5.67834e-06
5.6803e-06
4.24018e-06
9.67871e-06
4.24089e-06
9.68468e-06
1.93464e-05
1.93663e-05
4.24034e-06
9.68076e-06
4.241e-06
9.68672e-06
6.84207e-07
6.84287e-07
6.84286e-07
6.82297e-07
6.82309e-07
6.82376e-07
6.82377e-07
2.26788e-06
3.64643e-06
9.25246e-07
1.1659e-06
2.26992e-06
3.64002e-06
9.24109e-07
1.93473e-05
1.93672e-05
2.26783e-06
9.25394e-07
3.64653e-06
1.16589e-06
2.26986e-06
9.24058e-07
3.64017e-06
5.68317e-06
5.6851e-06
1.40337e-06
5.67746e-06
5.67939e-06
4.23588e-06
9.67809e-06
4.23985e-06
9.68557e-06
1.93496e-05
1.93686e-05
4.23604e-06
9.68017e-06
4.23996e-06
9.68752e-06
6.82203e-07
6.82284e-07
6.82284e-07
6.7166e-07
6.71653e-07
6.71656e-07
6.71698e-07
2.26038e-06
3.64898e-06
9.21626e-07
1.15926e-06
2.26648e-06
3.63476e-06
9.198e-07
1.93507e-05
1.93697e-05
2.26034e-06
9.2167e-07
3.6491e-06
1.15928e-06
2.26644e-06
9.19831e-07
3.63483e-06
5.68574e-06
5.68766e-06
1.39729e-06
5.68203e-06
5.68386e-06
3.45783e-06
8.8945e-06
4.19182e-06
5.90097e-06
1.71508e-05
8.56765e-06
3.45792e-06
8.8961e-06
4.19205e-06
5.89843e-06
3.18884e-07
4.84039e-07
4.83999e-07
7.09983e-07
3.25394e-07
5.05519e-07
5.05492e-07
2.17736e-06
3.55375e-06
8.94429e-07
1.05441e-06
2.22871e-06
3.65095e-06
8.33659e-07
1.71509e-05
8.56691e-06
2.17749e-06
8.94434e-07
3.54767e-06
1.05438e-06
2.22866e-06
8.33656e-07
3.6506e-06
5.62069e-06
5.62301e-06
1.31053e-06
5.26831e-06
5.26917e-06
1.90917e-05
1.90941e-05
1.41724e-06
5.65046e-06
5.65235e-06
1.91024e-05
1.90924e-05
1.91048e-05
1.90947e-05
1.41933e-06
5.6525e-06
5.65439e-06
5.65153e-06
5.65341e-06
4.23893e-06
9.56686e-06
2.29542e-06
1.18663e-06
3.64718e-06
9.34968e-07
2.29548e-06
1.18666e-06
3.6477e-06
9.35008e-07
4.23951e-06
9.57105e-06
9.56653e-06
4.23997e-06
4.23962e-06
9.57239e-06
9.56752e-06
4.24008e-06
2.29587e-06
1.18729e-06
3.64828e-06
9.3676e-07
3.64794e-06
9.35897e-07
2.29602e-06
2.29594e-06
1.18732e-06
3.64881e-06
9.368e-07
3.64848e-06
9.35937e-07
2.29608e-06
1.41719e-06
5.65223e-06
5.65047e-06
1.90911e-05
1.9104e-05
1.90939e-05
1.41929e-06
5.65427e-06
5.65251e-06
5.65333e-06
5.65167e-06
1.91018e-05
1.90916e-05
2.29557e-06
1.18654e-06
3.6479e-06
9.35047e-07
4.23889e-06
9.5671e-06
2.29548e-06
1.18667e-06
9.35048e-07
3.64774e-06
4.23963e-06
9.57304e-06
9.56855e-06
4.24013e-06
2.29602e-06
1.1872e-06
3.649e-06
9.36839e-07
3.64871e-06
9.35956e-07
2.29617e-06
4.23954e-06
9.57262e-06
9.56775e-06
4.24004e-06
2.29594e-06
1.18733e-06
9.3684e-07
3.64885e-06
9.35978e-07
3.64856e-06
2.29609e-06
4.23896e-06
9.56686e-06
2.29543e-06
1.1867e-06
9.35051e-07
3.64727e-06
4.23887e-06
9.56674e-06
2.296e-06
1.18722e-06
3.64845e-06
9.36824e-07
3.64815e-06
9.35965e-07
2.2961e-06
4.23968e-06
9.57239e-06
9.56752e-06
4.24012e-06
2.29593e-06
1.18736e-06
9.36843e-07
3.64837e-06
9.35985e-07
3.64804e-06
2.29603e-06
4.23957e-06
9.57226e-06
9.56739e-06
4.24002e-06
1.41722e-06
5.65228e-06
5.65062e-06
1.90931e-05
1.91051e-05
1.90949e-05
1.41938e-06
5.65432e-06
5.65265e-06
5.65347e-06
5.65168e-06
1.91037e-05
1.90936e-05
2.29551e-06
1.18661e-06
9.35091e-07
3.64792e-06
4.23891e-06
9.56708e-06
4.23896e-06
9.56762e-06
2.29598e-06
1.18727e-06
9.36866e-07
3.64851e-06
9.36006e-07
3.64817e-06
2.29607e-06
2.29602e-06
1.18727e-06
9.36883e-07
3.64902e-06
9.36023e-07
3.6487e-06
2.29612e-06
4.23969e-06
9.5726e-06
9.56773e-06
4.24011e-06
4.23968e-06
9.57315e-06
9.56864e-06
4.24015e-06
1.90928e-05
1.90947e-05
1.41938e-06
5.65258e-06
5.65454e-06
5.65161e-06
5.65357e-06
1.91035e-05
1.90934e-05
1.91054e-05
1.90953e-05
1.9103e-05
1.9113e-05
1.91054e-05
1.91153e-05
5.65354e-06
5.65542e-06
1.41954e-06
5.65447e-06
5.65635e-06
1.91233e-05
1.91135e-05
1.91257e-05
1.91159e-05
1.42159e-06
5.65635e-06
5.65824e-06
5.65548e-06
5.65737e-06
4.24117e-06
9.57302e-06
4.24075e-06
9.57778e-06
2.29654e-06
3.64902e-06
9.37615e-07
1.18901e-06
2.29645e-06
3.6493e-06
9.38399e-07
2.29661e-06
3.64956e-06
9.37656e-07
1.18904e-06
2.29652e-06
3.64983e-06
9.3844e-07
4.24169e-06
9.58169e-06
9.57739e-06
4.24206e-06
4.24181e-06
9.58303e-06
9.57839e-06
4.24218e-06
2.29694e-06
1.18955e-06
3.65025e-06
9.39885e-07
3.65003e-06
9.3918e-07
2.29697e-06
2.29701e-06
1.18958e-06
3.65077e-06
9.39926e-07
3.65056e-06
9.39221e-07
2.29704e-06
5.65534e-06
5.65369e-06
1.41949e-06
5.65624e-06
5.65448e-06
1.91023e-05
1.91124e-05
1.91249e-05
1.91151e-05
1.42154e-06
5.65814e-06
5.65637e-06
5.65729e-06
5.65563e-06
1.91227e-05
1.91128e-05
2.29669e-06
3.64979e-06
9.37675e-07
1.18892e-06
2.2966e-06
3.65003e-06
9.38479e-07
4.24113e-06
9.57326e-06
4.24067e-06
9.57801e-06
2.29661e-06
9.37696e-07
3.64964e-06
1.18905e-06
2.29652e-06
9.38481e-07
3.64987e-06
4.24182e-06
9.58368e-06
9.5794e-06
4.24223e-06
2.29709e-06
1.18946e-06
3.65097e-06
9.39966e-07
3.65079e-06
9.39241e-07
2.29713e-06
4.24173e-06
9.58326e-06
9.57862e-06
4.24214e-06
2.29701e-06
1.18959e-06
9.39968e-07
3.65082e-06
9.39263e-07
3.65065e-06
2.29705e-06
4.2412e-06
9.57302e-06
4.24081e-06
9.57778e-06
2.29654e-06
9.37699e-07
3.64912e-06
1.18908e-06
2.29649e-06
9.3848e-07
3.64939e-06
4.2411e-06
9.57289e-06
4.2407e-06
9.57764e-06
2.29705e-06
1.18948e-06
3.65041e-06
9.39947e-07
3.65023e-06
9.39242e-07
2.29704e-06
4.24186e-06
9.58303e-06
9.57838e-06
4.24221e-06
2.29697e-06
1.18961e-06
9.39965e-07
3.65034e-06
9.39262e-07
3.65012e-06
2.29697e-06
4.24175e-06
9.58289e-06
9.57825e-06
4.24211e-06
5.65548e-06
5.65369e-06
1.41957e-06
5.65628e-06
5.65462e-06
1.91043e-05
1.91143e-05
1.91259e-05
1.9116e-05
1.42162e-06
5.65818e-06
5.65651e-06
5.65743e-06
5.65563e-06
1.91246e-05
1.91148e-05
2.29665e-06
9.37742e-07
3.64978e-06
1.18899e-06
2.29659e-06
9.38523e-07
3.65005e-06
4.2412e-06
9.57323e-06
4.24085e-06
9.57798e-06
4.24125e-06
9.57412e-06
4.24084e-06
9.57853e-06
2.29703e-06
1.18953e-06
9.39991e-07
3.65048e-06
9.39288e-07
3.65026e-06
2.29705e-06
2.29706e-06
1.18953e-06
9.4001e-07
3.65099e-06
9.39308e-07
3.65078e-06
2.2971e-06
4.24191e-06
9.58323e-06
9.57859e-06
4.24221e-06
4.2419e-06
9.58379e-06
9.5795e-06
4.24226e-06
1.91041e-05
1.9114e-05
1.9106e-05
1.91159e-05
1.42163e-06
5.65643e-06
5.6584e-06
5.65557e-06
5.65752e-06
1.91244e-05
1.91146e-05
1.91263e-05
1.91165e-05
1.91239e-05
1.91335e-05
1.91262e-05
1.91358e-05
5.65735e-06
5.65924e-06
1.42143e-06
5.65817e-06
5.66006e-06
1.91434e-05
1.9134e-05
1.91458e-05
1.91363e-05
1.42341e-06
5.65991e-06
5.6618e-06
5.65915e-06
5.66104e-06
4.24312e-06
9.58362e-06
4.24279e-06
9.58815e-06
2.29737e-06
3.65096e-06
9.40596e-07
1.19088e-06
2.29734e-06
3.65112e-06
9.41227e-07
2.29744e-06
3.65149e-06
9.40636e-07
1.19091e-06
2.29741e-06
3.65164e-06
9.41267e-07
4.2436e-06
9.59179e-06
9.58772e-06
4.24388e-06
4.24371e-06
9.59313e-06
9.58871e-06
4.24399e-06
2.29767e-06
1.1913e-06
3.65191e-06
9.42422e-07
3.65181e-06
9.41866e-07
2.29762e-06
2.29774e-06
1.19133e-06
3.65243e-06
9.42462e-07
3.65234e-06
9.41907e-07
2.29769e-06
5.65915e-06
5.65749e-06
1.42139e-06
5.65996e-06
5.65819e-06
1.91231e-05
1.91329e-05
1.9145e-05
1.91355e-05
1.42336e-06
5.6617e-06
5.65994e-06
5.66094e-06
5.65929e-06
1.91428e-05
1.91332e-05
2.29753e-06
3.65172e-06
9.40657e-07
1.19079e-06
2.29749e-06
3.65184e-06
9.41308e-07
4.24308e-06
9.58385e-06
4.24272e-06
9.58838e-06
2.29744e-06
9.40679e-07
3.65158e-06
1.19093e-06
2.29741e-06
9.4131e-07
3.65169e-06
4.24373e-06
9.59379e-06
9.58973e-06
4.24405e-06
2.29782e-06
1.19121e-06
3.65264e-06
9.42503e-07
3.65257e-06
9.41929e-07
2.29778e-06
4.24364e-06
9.59336e-06
9.58895e-06
4.24396e-06
2.29774e-06
1.19134e-06
9.42506e-07
3.65248e-06
9.41951e-07
3.65243e-06
2.2977e-06
4.24315e-06
9.58361e-06
4.24285e-06
9.58815e-06
2.29735e-06
9.40677e-07
3.65105e-06
1.19095e-06
2.29738e-06
9.41305e-07
3.65121e-06
4.24305e-06
9.58348e-06
4.24274e-06
9.58801e-06
2.29787e-06
1.19123e-06
3.65207e-06
9.4248e-07
3.65201e-06
9.41926e-07
2.29756e-06
4.24377e-06
9.59313e-06
9.58871e-06
4.24402e-06
2.29767e-06
1.19136e-06
9.42499e-07
3.65201e-06
9.41946e-07
3.65191e-06
2.29764e-06
4.24366e-06
9.593e-06
9.58857e-06
4.24392e-06
5.6593e-06
5.6575e-06
1.42147e-06
5.66e-06
5.65832e-06
1.91251e-05
1.91348e-05
1.91461e-05
1.91365e-05
1.42344e-06
5.66175e-06
5.66006e-06
5.66109e-06
5.6593e-06
1.91447e-05
1.91352e-05
2.29748e-06
9.40724e-07
3.65171e-06
1.19086e-06
2.29745e-06
9.41351e-07
3.65186e-06
4.24315e-06
9.58382e-06
4.2429e-06
9.58835e-06
4.24319e-06
9.58472e-06
4.24289e-06
9.58891e-06
2.29773e-06
1.19129e-06
9.42527e-07
3.65213e-06
9.41973e-07
3.65203e-06
2.29766e-06
2.29778e-06
1.19128e-06
9.42546e-07
3.65266e-06
9.41994e-07
3.65257e-06
2.29773e-06
4.2438e-06
9.59332e-06
9.58891e-06
4.24401e-06
4.2438e-06
9.5939e-06
9.58983e-06
4.24406e-06
1.91249e-05
1.91345e-05
1.91268e-05
1.91364e-05
1.42346e-06
5.65999e-06
5.66196e-06
5.65924e-06
5.6612e-06
1.91445e-05
1.9135e-05
1.91464e-05
1.91369e-05
1.91439e-05
1.91532e-05
1.91463e-05
1.91556e-05
5.66088e-06
5.66276e-06
1.42291e-06
5.66159e-06
5.66348e-06
1.91628e-05
1.91537e-05
1.91652e-05
1.9156e-05
1.42487e-06
5.66319e-06
5.66509e-06
5.66254e-06
5.66443e-06
4.24479e-06
9.59367e-06
4.24456e-06
9.59799e-06
2.29778e-06
3.65259e-06
9.42994e-07
1.19226e-06
2.29787e-06
3.65263e-06
9.43478e-07
2.29784e-06
3.65312e-06
9.43034e-07
1.19229e-06
2.29793e-06
3.65315e-06
9.43518e-07
4.24523e-06
9.60136e-06
9.59751e-06
4.2454e-06
4.24534e-06
9.60269e-06
9.5985e-06
4.24551e-06
2.298e-06
1.19256e-06
3.65328e-06
9.44394e-07
3.65329e-06
9.43983e-07
2.29783e-06
2.29807e-06
1.19259e-06
3.6538e-06
9.44434e-07
3.65382e-06
9.44023e-07
2.29789e-06
5.66267e-06
5.66101e-06
1.42289e-06
5.66337e-06
5.66162e-06
1.91432e-05
1.91526e-05
1.91644e-05
1.91552e-05
1.42478e-06
5.66497e-06
5.66322e-06
5.66432e-06
5.66266e-06
1.91622e-05
1.91529e-05
2.29794e-06
3.65335e-06
9.43057e-07
1.19218e-06
2.29801e-06
3.65336e-06
9.4356e-07
4.24475e-06
9.59391e-06
4.24448e-06
9.59822e-06
2.29786e-06
9.4308e-07
3.6532e-06
1.19231e-06
2.29794e-06
9.43563e-07
3.6532e-06
4.24535e-06
9.60335e-06
9.59952e-06
4.24557e-06
2.29815e-06
1.19248e-06
3.65401e-06
9.44477e-07
3.65406e-06
9.44046e-07
2.29799e-06
4.24526e-06
9.60292e-06
9.59873e-06
4.24547e-06
2.29808e-06
1.19261e-06
9.4448e-07
3.65385e-06
9.44069e-07
3.65391e-06
2.29791e-06
4.24482e-06
9.59367e-06
4.24461e-06
9.59798e-06
2.29779e-06
9.43073e-07
3.65269e-06
1.19233e-06
2.29788e-06
9.43554e-07
3.65273e-06
4.24472e-06
9.59354e-06
4.2445e-06
9.59786e-06
2.29818e-06
1.19249e-06
3.65343e-06
9.4445e-07
3.65349e-06
9.4404e-07
2.29775e-06
4.24538e-06
9.60268e-06
9.59849e-06
4.24554e-06
2.29801e-06
1.19263e-06
9.4447e-07
3.65338e-06
9.44061e-07
3.6534e-06
2.29784e-06
4.24528e-06
9.60257e-06
9.59837e-06
4.24544e-06
5.66281e-06
5.66102e-06
1.42297e-06
5.66342e-06
5.66173e-06
1.91452e-05
1.91545e-05
1.91654e-05
1.91561e-05
1.42486e-06
5.66502e-06
5.66333e-06
5.66447e-06
5.66268e-06
1.9164e-05
1.91549e-05
2.29788e-06
9.43123e-07
3.65334e-06
1.19224e-06
2.29798e-06
9.43603e-07
3.65338e-06
4.24479e-06
9.59385e-06
4.24464e-06
9.59816e-06
4.24489e-06
9.59478e-06
4.24472e-06
9.59874e-06
2.29801e-06
1.19255e-06
9.44498e-07
3.65349e-06
9.44089e-07
3.6535e-06
2.29771e-06
2.29811e-06
1.19255e-06
9.4452e-07
3.65402e-06
9.44112e-07
3.65405e-06
2.29793e-06
4.2454e-06
9.60286e-06
9.59867e-06
4.24551e-06
4.24551e-06
9.60346e-06
9.59962e-06
4.24561e-06
1.91449e-05
1.91543e-05
1.91469e-05
1.91562e-05
1.42489e-06
5.66328e-06
5.66524e-06
5.66263e-06
5.66458e-06
1.91639e-05
1.91547e-05
1.91657e-05
1.91566e-05
1.91632e-05
1.91722e-05
1.91656e-05
1.91746e-05
5.66412e-06
5.66602e-06
1.42385e-06
5.66473e-06
5.66662e-06
1.91814e-05
1.91726e-05
1.91837e-05
1.91749e-05
1.42613e-06
5.66619e-06
5.66809e-06
5.66564e-06
5.66754e-06
4.24616e-06
9.60318e-06
4.24604e-06
9.60727e-06
2.29782e-06
3.65392e-06
9.44836e-07
1.19318e-06
2.29804e-06
3.65385e-06
9.4518e-07
2.29789e-06
3.65445e-06
9.44876e-07
1.19321e-06
2.29811e-06
3.65438e-06
9.45219e-07
4.24657e-06
9.61037e-06
9.60675e-06
4.24664e-06
4.24668e-06
9.6117e-06
9.60773e-06
4.24674e-06
2.29801e-06
1.19337e-06
3.65436e-06
9.45832e-07
3.65448e-06
9.45557e-07
2.29771e-06
2.29808e-06
1.1934e-06
3.65488e-06
9.45871e-07
3.65501e-06
9.45596e-07
2.29778e-06
5.66591e-06
5.66424e-06
1.42409e-06
5.66651e-06
5.66475e-06
1.91624e-05
1.91715e-05
1.91829e-05
1.91741e-05
1.42578e-06
5.66797e-06
5.66621e-06
5.66743e-06
5.66576e-06
1.91807e-05
1.91718e-05
2.29798e-06
3.65469e-06
9.449e-07
1.1931e-06
2.29819e-06
3.65459e-06
9.45262e-07
4.24613e-06
9.60342e-06
4.24596e-06
9.6075e-06
2.2979e-06
9.44923e-07
3.65454e-06
1.19323e-06
2.29811e-06
9.45266e-07
3.65442e-06
4.24669e-06
9.61236e-06
9.60876e-06
4.2468e-06
2.29816e-06
1.19329e-06
3.65509e-06
9.45914e-07
3.65525e-06
9.45621e-07
2.29787e-06
4.2466e-06
9.61192e-06
9.60797e-06
4.24671e-06
2.29808e-06
1.19342e-06
9.4592e-07
3.65492e-06
9.45645e-07
3.6551e-06
2.29779e-06
4.24619e-06
9.60317e-06
4.24608e-06
9.60725e-06
2.29783e-06
9.44914e-07
3.65403e-06
1.19325e-06
2.29805e-06
9.45255e-07
3.65396e-06
4.24609e-06
9.60305e-06
4.24598e-06
9.60715e-06
2.29818e-06
1.1933e-06
3.6545e-06
9.45886e-07
3.65467e-06
9.45611e-07
2.29763e-06
4.24672e-06
9.61167e-06
9.60771e-06
4.24677e-06
2.29802e-06
1.19344e-06
9.45907e-07
3.65446e-06
9.45634e-07
3.65459e-06
2.29772e-06
4.24662e-06
9.61158e-06
9.60761e-06
4.24668e-06
5.66605e-06
5.66426e-06
1.42417e-06
5.66655e-06
5.66486e-06
1.91644e-05
1.91734e-05
1.9184e-05
1.9175e-05
1.42586e-06
5.66801e-06
5.66632e-06
5.66756e-06
5.66577e-06
1.91826e-05
1.91737e-05
2.29792e-06
9.44964e-07
3.65468e-06
1.19317e-06
2.29815e-06
9.45305e-07
3.6546e-06
4.24615e-06
9.60334e-06
4.2461e-06
9.60742e-06
4.24626e-06
9.60429e-06
4.24621e-06
9.60802e-06
2.29814e-06
1.19336e-06
9.45934e-07
3.65456e-06
9.45661e-07
3.65469e-06
2.29757e-06
2.29811e-06
1.19336e-06
9.45957e-07
3.6551e-06
9.45685e-07
3.65524e-06
2.2978e-06
4.24673e-06
9.61185e-06
9.60789e-06
4.24673e-06
4.24684e-06
9.61246e-06
9.60885e-06
4.24683e-06
1.91642e-05
1.91732e-05
1.91661e-05
1.91751e-05
1.42588e-06
5.66627e-06
5.66823e-06
5.66574e-06
5.66768e-06
1.91824e-05
1.91736e-05
1.91843e-05
1.91755e-05
1.91817e-05
1.91903e-05
1.91841e-05
1.91927e-05
5.66709e-06
5.66898e-06
1.42455e-06
5.66758e-06
5.66948e-06
1.91991e-05
1.91907e-05
1.92015e-05
1.9193e-05
1.42677e-06
5.6689e-06
5.6708e-06
5.66847e-06
5.67036e-06
4.24726e-06
9.61213e-06
4.24724e-06
9.616e-06
2.29755e-06
3.65497e-06
9.46149e-07
1.19366e-06
2.29789e-06
3.65479e-06
9.46362e-07
2.29761e-06
3.6555e-06
9.46188e-07
1.19369e-06
2.29795e-06
3.65531e-06
9.464e-07
4.24765e-06
9.61882e-06
9.61543e-06
4.24761e-06
4.24774e-06
9.62014e-06
9.61641e-06
4.24771e-06
2.2977e-06
1.19373e-06
3.65516e-06
9.46766e-07
3.65539e-06
9.46615e-07
2.29728e-06
2.29777e-06
1.19376e-06
3.65568e-06
9.46804e-07
3.65592e-06
9.46654e-07
2.29734e-06