/*--------------------------------*- C++ -*----------------------------------*\
| =========                 |                                                 |
| \\      /  F ield         | OpenFOAM: The Open Source CFD Toolbox           |
|  \\    /   O peration     | Version:  v1906                                 |
|   \\  /    A nd           | Web:      www.OpenFOAM.com                      |
|    \\/     M anipulation  |                                                 |
\*---------------------------------------------------------------------------*/
FoamFile
{
    version     2.0;
    format      ascii;
    class       volScalarField;
    location    "1000";
    object      k;
}
// * * * * * * * * * * * * * * * * * * * * * * * * * * * * * * * * * * * * * //

dimensions      [0 2 -2 0 0 0 0];


internalField   nonuniform List<scalar> 
43024
(
3.91922e-05
5.15791e-05
5.15788e-05
5.36721e-05
3.95548e-05
5.17814e-05
5.17814e-05
5.38281e-05
3.98903e-05
5.19628e-05
5.19628e-05
5.39714e-05
4.01991e-05
5.21238e-05
5.21238e-05
5.40988e-05
4.04817e-05
5.2265e-05
5.22651e-05
5.42101e-05
4.07389e-05
5.2387e-05
5.23872e-05
5.4306e-05
4.09713e-05
5.24904e-05
5.24906e-05
5.43871e-05
4.11797e-05
5.25759e-05
5.25762e-05
5.44537e-05
4.13649e-05
5.26442e-05
5.26444e-05
5.45063e-05
4.15279e-05
5.26958e-05
5.26961e-05
5.45453e-05
4.16694e-05
5.27314e-05
5.27317e-05
5.4572e-05
4.17906e-05
5.27522e-05
5.27524e-05
5.45934e-05
4.18922e-05
5.27584e-05
5.27586e-05
5.45946e-05
4.1975e-05
5.27522e-05
5.27524e-05
5.45838e-05
4.20399e-05
5.27339e-05
5.2734e-05
5.45611e-05
4.20883e-05
5.27037e-05
5.27039e-05
5.45284e-05
4.21213e-05
5.26627e-05
5.26628e-05
5.44892e-05
4.21395e-05
5.26117e-05
5.26118e-05
5.44417e-05
4.21431e-05
5.2552e-05
5.25519e-05
5.43858e-05
4.21265e-05
5.24649e-05
5.24645e-05
5.43149e-05
4.1729e-05
5.1317e-05
5.13104e-05
5.39395e-05
5.36125e-05
5.15219e-05
5.15225e-05
5.36133e-05
5.15217e-05
5.15209e-05
5.15245e-05
5.15241e-05
5.36136e-05
5.15241e-05
5.1524e-05
5.36127e-05
5.36668e-05
5.37809e-05
5.15764e-05
5.15771e-05
5.17293e-05
5.173e-05
5.36675e-05
5.37814e-05
5.15765e-05
5.15757e-05
5.17292e-05
5.17286e-05
5.15788e-05
5.17319e-05
5.17315e-05
5.36664e-05
5.37818e-05
5.15788e-05
5.17318e-05
5.17316e-05
5.37806e-05
5.38253e-05
5.39287e-05
5.17788e-05
5.17795e-05
5.19156e-05
5.19162e-05
5.38261e-05
5.39285e-05
5.17789e-05
5.17782e-05
5.19155e-05
5.19149e-05
5.17811e-05
5.19181e-05
5.19179e-05
5.38264e-05
5.39285e-05
5.17812e-05
5.19181e-05
5.19179e-05
5.39294e-05
5.39682e-05
5.40598e-05
5.19603e-05
5.19609e-05
5.20812e-05
5.20818e-05
5.39694e-05
5.40594e-05
5.19604e-05
5.19597e-05
5.20812e-05
5.20806e-05
5.19627e-05
5.20837e-05
5.20836e-05
5.39692e-05
5.40589e-05
5.19628e-05
5.20837e-05
5.20837e-05
5.40606e-05
5.40957e-05
5.41746e-05
5.21213e-05
5.21219e-05
5.22269e-05
5.22275e-05
5.4097e-05
5.41743e-05
5.21215e-05
5.21207e-05
5.2227e-05
5.22263e-05
5.21238e-05
5.22293e-05
5.22293e-05
5.40965e-05
5.41738e-05
5.2124e-05
5.22294e-05
5.22295e-05
5.41755e-05
5.42076e-05
5.42739e-05
5.22627e-05
5.22632e-05
5.23533e-05
5.23538e-05
5.42086e-05
5.42737e-05
5.22629e-05
5.22621e-05
5.23534e-05
5.23526e-05
5.22651e-05
5.23556e-05
5.23556e-05
5.4208e-05
5.42732e-05
5.22653e-05
5.23557e-05
5.23558e-05
5.42749e-05
5.4304e-05
5.4358e-05
5.23847e-05
5.23852e-05
5.24611e-05
5.24615e-05
5.43046e-05
5.43578e-05
5.2385e-05
5.23841e-05
5.24612e-05
5.24604e-05
5.23871e-05
5.24633e-05
5.24633e-05
5.43041e-05
5.43574e-05
5.23873e-05
5.24635e-05
5.24636e-05
5.43591e-05
5.43853e-05
5.44274e-05
5.24882e-05
5.24886e-05
5.25506e-05
5.2551e-05
5.43857e-05
5.44273e-05
5.24885e-05
5.24875e-05
5.25508e-05
5.25499e-05
5.24905e-05
5.25528e-05
5.25529e-05
5.43852e-05
5.44269e-05
5.24908e-05
5.25531e-05
5.25532e-05
5.44286e-05
5.4452e-05
5.44826e-05
5.25737e-05
5.25741e-05
5.26228e-05
5.26233e-05
5.44523e-05
5.44826e-05
5.2574e-05
5.25731e-05
5.2623e-05
5.26222e-05
5.25761e-05
5.2625e-05
5.26252e-05
5.44518e-05
5.44822e-05
5.25763e-05
5.26253e-05
5.26254e-05
5.4484e-05
5.45045e-05
5.45242e-05
5.26419e-05
5.26424e-05
5.26784e-05
5.26789e-05
5.45048e-05
5.45242e-05
5.26423e-05
5.26413e-05
5.26787e-05
5.26778e-05
5.26443e-05
5.26807e-05
5.26808e-05
5.45044e-05
5.45238e-05
5.26446e-05
5.2681e-05
5.26811e-05
5.45256e-05
5.45435e-05
5.45531e-05
5.26935e-05
5.2694e-05
5.27186e-05
5.27191e-05
5.45439e-05
5.45527e-05
5.26939e-05
5.26929e-05
5.27189e-05
5.2718e-05
5.26959e-05
5.27209e-05
5.2721e-05
5.45434e-05
5.45524e-05
5.26962e-05
5.27211e-05
5.27212e-05
5.45542e-05
5.45697e-05
5.45718e-05
5.27291e-05
5.27296e-05
5.2744e-05
5.27444e-05
5.45704e-05
5.45673e-05
5.27294e-05
5.27285e-05
5.27444e-05
5.27433e-05
5.27315e-05
5.27462e-05
5.27463e-05
5.457e-05
5.4568e-05
5.27318e-05
5.27464e-05
5.27465e-05
5.45688e-05
5.45856e-05
5.4576e-05
5.27497e-05
5.27504e-05
5.27551e-05
5.27555e-05
5.45915e-05
5.45746e-05
5.275e-05
5.27493e-05
5.27555e-05
5.27545e-05
5.27523e-05
5.27574e-05
5.27575e-05
5.45897e-05
5.45699e-05
5.27526e-05
5.27576e-05
5.27577e-05
5.45743e-05
5.45886e-05
5.45675e-05
5.27559e-05
5.27565e-05
5.27512e-05
5.27518e-05
5.45917e-05
5.45653e-05
5.27563e-05
5.27554e-05
5.27516e-05
5.27507e-05
5.27585e-05
5.27537e-05
5.27537e-05
5.45944e-05
5.45621e-05
5.27587e-05
5.27539e-05
5.27539e-05
5.45638e-05
5.4578e-05
5.45475e-05
5.27498e-05
5.27502e-05
5.27346e-05
5.27351e-05
5.45817e-05
5.45436e-05
5.27502e-05
5.27492e-05
5.2735e-05
5.27341e-05
5.27522e-05
5.27372e-05
5.27371e-05
5.45823e-05
5.45434e-05
5.27524e-05
5.27373e-05
5.27373e-05
5.4544e-05
5.45564e-05
5.45179e-05
5.27314e-05
5.27318e-05
5.27059e-05
5.27065e-05
5.45601e-05
5.45152e-05
5.27318e-05
5.27308e-05
5.27064e-05
5.27054e-05
5.27338e-05
5.27086e-05
5.27084e-05
5.45596e-05
5.45151e-05
5.2734e-05
5.27087e-05
5.27086e-05
5.45146e-05
5.45273e-05
5.44782e-05
5.27012e-05
5.27016e-05
5.2666e-05
5.26666e-05
5.4528e-05
5.4478e-05
5.27016e-05
5.27006e-05
5.26665e-05
5.26655e-05
5.27036e-05
5.26687e-05
5.26685e-05
5.45274e-05
5.44776e-05
5.27037e-05
5.26688e-05
5.26687e-05
5.44794e-05
5.44883e-05
5.44309e-05
5.26601e-05
5.26605e-05
5.26158e-05
5.26163e-05
5.44888e-05
5.4431e-05
5.26606e-05
5.26596e-05
5.26163e-05
5.26153e-05
5.26625e-05
5.26185e-05
5.26182e-05
5.44883e-05
5.44306e-05
5.26627e-05
5.26185e-05
5.26184e-05
5.4432e-05
5.44409e-05
5.43757e-05
5.26091e-05
5.26095e-05
5.25563e-05
5.25567e-05
5.44411e-05
5.43759e-05
5.26096e-05
5.26086e-05
5.25568e-05
5.25558e-05
5.26115e-05
5.2559e-05
5.25587e-05
5.44407e-05
5.43755e-05
5.26117e-05
5.25589e-05
5.25588e-05
5.43768e-05
5.4385e-05
5.43108e-05
5.25494e-05
5.25497e-05
5.24942e-05
5.24947e-05
5.43852e-05
5.4311e-05
5.25499e-05
5.25488e-05
5.24947e-05
5.24937e-05
5.25516e-05
5.24968e-05
5.24966e-05
5.43848e-05
5.43106e-05
5.25518e-05
5.24968e-05
5.24967e-05
5.43121e-05
5.43142e-05
5.409e-05
5.24622e-05
5.24626e-05
5.22729e-05
5.22739e-05
5.43144e-05
5.40919e-05
5.24627e-05
5.24613e-05
5.22747e-05
5.22717e-05
5.24643e-05
5.22769e-05
5.22751e-05
5.43134e-05
5.41038e-05
5.24644e-05
5.22767e-05
5.22765e-05
5.41083e-05
5.39511e-05
5.13126e-05
5.13128e-05
5.39509e-05
5.13146e-05
5.13056e-05
4.17307e-05
4.17291e-05
4.17311e-05
5.13084e-05
5.39405e-05
5.13101e-05
6.85697e-05
7.34389e-05
7.11955e-05
6.8575e-05
7.34444e-05
3.90966e-05
3.90976e-05
3.90996e-05
3.91006e-05
6.06294e-05
5.14127e-05
6.47929e-05
4.67112e-05
7.11942e-05
6.06258e-05
5.14125e-05
4.67117e-05
6.47935e-05
5.35257e-05
6.99339e-05
6.99455e-05
6.8623e-05
7.34704e-05
6.86024e-05
7.34947e-05
7.12235e-05
7.12482e-05
6.86283e-05
7.34759e-05
6.86055e-05
7.35001e-05
3.91932e-05
3.91952e-05
3.91961e-05
3.94659e-05
3.94669e-05
3.94689e-05
3.947e-05
6.07225e-05
6.483e-05
4.6922e-05
5.16308e-05
6.06839e-05
6.48544e-05
4.69881e-05
7.12221e-05
7.12469e-05
6.0719e-05
4.69225e-05
6.48309e-05
5.16307e-05
6.06841e-05
4.69886e-05
6.48552e-05
6.99677e-05
6.99795e-05
5.36966e-05
6.99825e-05
6.99943e-05
6.86695e-05
7.35247e-05
6.86517e-05
7.35478e-05
7.12752e-05
7.12991e-05
6.86747e-05
7.35301e-05
6.86548e-05
7.35532e-05
3.95558e-05
3.95579e-05
3.95586e-05
3.98079e-05
3.98089e-05
3.98109e-05
3.9812e-05
6.0803e-05
6.48871e-05
4.71798e-05
5.18276e-05
6.07697e-05
6.49083e-05
4.72392e-05
7.12738e-05
7.12978e-05
6.07994e-05
4.71805e-05
6.48882e-05
5.18276e-05
6.07697e-05
4.72398e-05
6.49092e-05
7.00132e-05
7.0025e-05
5.38568e-05
7.00263e-05
7.00381e-05
6.87091e-05
7.35761e-05
6.86941e-05
7.35981e-05
7.13251e-05
7.13481e-05
6.87143e-05
7.35815e-05
6.86972e-05
7.36035e-05
3.98913e-05
3.98933e-05
3.98941e-05
4.0123e-05
4.0124e-05
4.0126e-05
4.01271e-05
6.08718e-05
6.49365e-05
4.74126e-05
5.20034e-05
6.08433e-05
6.49547e-05
4.74654e-05
7.13236e-05
7.13468e-05
6.08681e-05
4.74132e-05
6.49371e-05
5.20035e-05
6.0843e-05
4.7466e-05
6.49556e-05
7.00539e-05
7.00656e-05
5.39968e-05
7.00654e-05
7.00771e-05
6.87421e-05
7.36247e-05
6.87298e-05
7.36456e-05
7.13729e-05
7.13952e-05
6.87472e-05
7.36302e-05
6.87328e-05
7.3651e-05
4.02e-05
4.02021e-05
4.02029e-05
4.04118e-05
4.04128e-05
4.04148e-05
4.04159e-05
6.09294e-05
6.49787e-05
4.76209e-05
5.2159e-05
6.09054e-05
6.49939e-05
4.76673e-05
7.13714e-05
7.13939e-05
6.0926e-05
4.76216e-05
6.49793e-05
5.2159e-05
6.09028e-05
4.76679e-05
6.4995e-05
7.00899e-05
7.01014e-05
5.41197e-05
7.00997e-05
7.01113e-05
6.87686e-05
7.36705e-05
6.87589e-05
7.36902e-05
7.14189e-05
7.14403e-05
6.87731e-05
7.36759e-05
6.87618e-05
7.36956e-05
4.04827e-05
4.04847e-05
4.04855e-05
4.0675e-05
4.06759e-05
4.0678e-05
4.06791e-05
6.09752e-05
6.50139e-05
4.78057e-05
5.22948e-05
6.09565e-05
6.50261e-05
4.78457e-05
7.14173e-05
7.14389e-05
6.09722e-05
4.78064e-05
6.50145e-05
5.22949e-05
6.09536e-05
4.78463e-05
6.50273e-05
7.01212e-05
7.01327e-05
5.42269e-05
7.01293e-05
7.0141e-05
6.87887e-05
7.37135e-05
6.87815e-05
7.3732e-05
7.14627e-05
7.14833e-05
6.87926e-05
7.37188e-05
6.87843e-05
7.37373e-05
4.07398e-05
4.07419e-05
4.07426e-05
4.09132e-05
4.0914e-05
4.09161e-05
4.09172e-05
6.10101e-05
6.50422e-05
4.79677e-05
5.24118e-05
6.09966e-05
6.50516e-05
4.80016e-05
7.14611e-05
7.14819e-05
6.10071e-05
4.79684e-05
6.50432e-05
5.24119e-05
6.09937e-05
4.80022e-05
6.50527e-05
7.01479e-05
7.01594e-05
5.43187e-05
7.01545e-05
7.01661e-05
6.88027e-05
7.37536e-05
6.87975e-05
7.3771e-05
7.15046e-05
7.15243e-05
6.88064e-05
7.37589e-05
6.88007e-05
7.37762e-05
4.09721e-05
4.09742e-05
4.0975e-05
4.1127e-05
4.11278e-05
4.11299e-05
4.1131e-05
6.10355e-05
6.50638e-05
4.81079e-05
5.25103e-05
6.1026e-05
6.50704e-05
4.81358e-05
7.15029e-05
7.15228e-05
6.10324e-05
4.81085e-05
6.5065e-05
5.25105e-05
6.10231e-05
4.81365e-05
6.50717e-05
7.01703e-05
7.01818e-05
5.43956e-05
7.01757e-05
7.01868e-05
6.88109e-05
7.37909e-05
6.88077e-05
7.38071e-05
7.15443e-05
7.15632e-05
6.88145e-05
7.37961e-05
6.8811e-05
7.38123e-05
4.11805e-05
4.11826e-05
4.11834e-05
4.13174e-05
4.13182e-05
4.13203e-05
4.13214e-05
6.10509e-05
6.50792e-05
4.82269e-05
5.25911e-05
6.10445e-05
6.50828e-05
4.82493e-05
7.15424e-05
7.15616e-05
6.10478e-05
4.82275e-05
6.50802e-05
5.25913e-05
6.10415e-05
4.82499e-05
6.50843e-05
7.0188e-05
7.01996e-05
5.4458e-05
7.01917e-05
7.02034e-05
6.88135e-05
7.38252e-05
6.88123e-05
7.38404e-05
7.15817e-05
7.15999e-05
6.88171e-05
7.38306e-05
6.88156e-05
7.38458e-05
4.13657e-05
4.13678e-05
4.13686e-05
4.14852e-05
4.14859e-05
4.1488e-05
4.14891e-05
6.10567e-05
6.50881e-05
4.83257e-05
5.26549e-05
6.10537e-05
6.50893e-05
4.83429e-05
7.15797e-05
7.15982e-05
6.10536e-05
4.83263e-05
6.5089e-05
5.26551e-05
6.10507e-05
4.83435e-05
6.50906e-05
7.0201e-05
7.02128e-05
5.45064e-05
7.02037e-05
7.02155e-05
6.88109e-05
7.38568e-05
6.88117e-05
7.38709e-05
7.16169e-05
7.16344e-05
6.88146e-05
7.38622e-05
6.8815e-05
7.38764e-05
4.15287e-05
4.15308e-05
4.15315e-05
4.16312e-05
4.1632e-05
4.16341e-05
4.16352e-05
6.10538e-05
6.50907e-05
4.84052e-05
5.27027e-05
6.1054e-05
6.50897e-05
4.84177e-05
7.16149e-05
7.16328e-05
6.10505e-05
4.84058e-05
6.50915e-05
5.27029e-05
6.10509e-05
4.84182e-05
6.50908e-05
7.02104e-05
7.02221e-05
5.45414e-05
7.02115e-05
7.02232e-05
6.88037e-05
7.38854e-05
6.88063e-05
7.38987e-05
7.16499e-05
7.16669e-05
6.88073e-05
7.3891e-05
6.88096e-05
7.39043e-05
4.16703e-05
4.16723e-05
4.16731e-05
4.17566e-05
4.17574e-05
4.17595e-05
4.17606e-05
6.10425e-05
6.50877e-05
4.84664e-05
5.27354e-05
6.10458e-05
6.50841e-05
4.84746e-05
7.16479e-05
7.16652e-05
6.10391e-05
4.84669e-05
6.50886e-05
5.27356e-05
6.10426e-05
4.84751e-05
6.50851e-05
7.02159e-05
7.02275e-05
5.45621e-05
7.02152e-05
7.02268e-05
6.87921e-05
7.39115e-05
6.87963e-05
7.39235e-05
7.16806e-05
7.16973e-05
6.87958e-05
7.39171e-05
6.87998e-05
7.39291e-05
4.17914e-05
4.17935e-05
4.17942e-05
4.18625e-05
4.18633e-05
4.18653e-05
4.18663e-05
6.1023e-05
6.50792e-05
4.85099e-05
5.27535e-05
6.10302e-05
6.5073e-05
4.8515e-05
7.16786e-05
7.16957e-05
6.10195e-05
4.85102e-05
6.50801e-05
5.27537e-05
6.10269e-05
4.85154e-05
6.5074e-05
7.02179e-05
7.02294e-05
5.4572e-05
7.02151e-05
7.02267e-05
6.87757e-05
7.39351e-05
6.87819e-05
7.39454e-05
7.1709e-05
7.17258e-05
6.87798e-05
7.39408e-05
6.87853e-05
7.39512e-05
4.1893e-05
4.1895e-05
4.18958e-05
4.19496e-05
4.19505e-05
4.19524e-05
4.19534e-05
6.09962e-05
6.50655e-05
4.85368e-05
5.27572e-05
6.10063e-05
6.50567e-05
4.85393e-05
7.1707e-05
7.17242e-05
6.09927e-05
4.85371e-05
6.50663e-05
5.27574e-05
6.10029e-05
4.85397e-05
6.50575e-05
7.02165e-05
7.02281e-05
5.4571e-05
7.02112e-05
7.02228e-05
6.87549e-05
7.39559e-05
6.87629e-05
7.39653e-05
7.17349e-05
7.17525e-05
6.87597e-05
7.39617e-05
6.87662e-05
7.39711e-05
4.19759e-05
4.19778e-05
4.19787e-05
4.20195e-05
4.20205e-05
4.20223e-05
4.20233e-05
6.0962e-05
6.50468e-05
4.85483e-05
5.2747e-05
6.09743e-05
6.5035e-05
4.85478e-05
7.1733e-05
7.1751e-05
6.09582e-05
4.85486e-05
6.50476e-05
5.27472e-05
6.0971e-05
4.8548e-05
6.50359e-05
7.02122e-05
7.02237e-05
5.45546e-05
7.02035e-05
7.02151e-05
6.87299e-05
7.39736e-05
6.87393e-05
7.39826e-05
7.17583e-05
7.17777e-05
6.87345e-05
7.39794e-05
6.87426e-05
7.39885e-05
4.20406e-05
4.20427e-05
4.20434e-05
4.20729e-05
4.20742e-05
4.20757e-05
4.20769e-05
6.09208e-05
6.5024e-05
4.85453e-05
5.27243e-05
6.09348e-05
6.50081e-05
4.85409e-05
7.17565e-05
7.17762e-05
6.09158e-05
4.85455e-05
6.50247e-05
5.27244e-05
6.09321e-05
4.85412e-05
6.5009e-05
7.02052e-05
7.02168e-05
5.45302e-05
7.01919e-05
7.02035e-05
6.87006e-05
7.39884e-05
6.87114e-05
7.39982e-05
7.17789e-05
7.18018e-05
6.87053e-05
7.39943e-05
6.87148e-05
7.40041e-05
4.20888e-05
4.20911e-05
4.20916e-05
4.21103e-05
4.21119e-05
4.21131e-05
4.21147e-05
6.08718e-05
6.49981e-05
4.85299e-05
5.269e-05
6.08883e-05
6.49757e-05
4.85209e-05
7.17771e-05
7.18003e-05
6.08673e-05
4.85301e-05
6.49988e-05
5.26901e-05
6.08862e-05
4.85211e-05
6.49766e-05
7.01964e-05
7.02079e-05
5.44997e-05
7.01764e-05
7.0188e-05
6.86671e-05
7.40005e-05
6.86794e-05
7.40127e-05
7.17964e-05
7.18253e-05
6.86722e-05
7.40064e-05
6.86825e-05
7.40186e-05
4.21215e-05
4.2124e-05
4.21243e-05
4.21333e-05
4.21345e-05
4.2136e-05
4.21372e-05
6.08162e-05
6.49704e-05
4.8502e-05
5.26449e-05
6.08364e-05
6.49373e-05
4.84884e-05
7.17947e-05
7.18238e-05
6.08131e-05
4.85021e-05
6.49711e-05
5.26449e-05
6.0834e-05
4.84886e-05
6.4938e-05
7.01867e-05
7.01982e-05
5.44567e-05
7.01569e-05
7.01685e-05
6.86298e-05
7.40098e-05
6.8643e-05
7.40278e-05
7.18109e-05
7.18487e-05
6.86347e-05
7.40157e-05
6.86459e-05
7.40337e-05
4.21401e-05
4.21422e-05
4.21428e-05
4.21416e-05
4.21424e-05
4.21442e-05
4.2145e-05
6.07521e-05
6.49445e-05
4.84625e-05
5.25899e-05
6.07824e-05
6.48916e-05
4.84446e-05
7.18092e-05
7.18472e-05
6.07491e-05
4.84626e-05
6.49451e-05
5.25898e-05
6.07795e-05
4.84447e-05
6.48923e-05
7.01776e-05
7.01891e-05
5.44054e-05
7.01348e-05
7.01463e-05
6.85869e-05
7.40163e-05
6.85993e-05
7.40467e-05
7.18231e-05
7.18724e-05
6.85907e-05
7.40221e-05
6.8603e-05
7.40525e-05
4.2144e-05
4.21457e-05
4.21465e-05
4.2127e-05
4.21279e-05
4.21295e-05
4.21303e-05
6.06817e-05
6.49287e-05
4.84127e-05
5.25252e-05
6.07184e-05
6.48349e-05
4.83892e-05
7.18214e-05
7.18708e-05
6.0679e-05
4.84128e-05
6.49291e-05
5.25252e-05
6.07157e-05
4.83893e-05
6.48351e-05
7.01721e-05
7.01836e-05
5.43462e-05
7.01128e-05
7.01243e-05
6.85204e-05
7.40168e-05
6.85417e-05
7.40749e-05
7.18346e-05
7.1899e-05
6.85236e-05
7.40224e-05
6.85452e-05
7.40804e-05
4.21274e-05
4.21288e-05
4.21297e-05
4.17632e-05
4.17646e-05
4.17641e-05
4.17654e-05
6.05664e-05
6.49324e-05
4.83471e-05
5.24527e-05
6.0653e-05
6.47337e-05
4.82765e-05
7.18332e-05
7.18977e-05
6.0564e-05
4.83475e-05
6.49322e-05
5.24534e-05
6.06505e-05
4.82763e-05
6.47332e-05
7.01625e-05
7.01739e-05
5.42677e-05
7.00441e-05
7.00556e-05
6.45526e-05
7.37841e-05
6.82879e-05
7.4626e-05
7.1783e-05
6.61429e-05
6.45544e-05
7.37885e-05
6.82899e-05
7.46676e-05
2.98285e-05
3.62027e-05
3.62014e-05
4.31112e-05
3.0122e-05
3.70595e-05
3.70587e-05
6.02372e-05
6.45643e-05
4.80792e-05
5.00611e-05
6.0344e-05
6.63592e-05
4.62639e-05
7.17805e-05
6.61475e-05
6.02345e-05
4.80784e-05
6.45665e-05
5.00921e-05
6.03423e-05
4.62542e-05
6.63655e-05
6.94281e-05
6.94389e-05
5.35368e-05
7.07838e-05
7.07935e-05
7.11935e-05
7.11959e-05
5.35248e-05
6.9935e-05
6.99441e-05
7.12201e-05
7.1195e-05
7.12225e-05
7.11975e-05
5.35838e-05
6.99599e-05
6.9969e-05
6.99436e-05
6.99536e-05
6.85718e-05
7.34429e-05
6.06248e-05
5.14101e-05
6.47914e-05
4.67079e-05
6.06264e-05
5.14108e-05
6.47954e-05
4.67093e-05
6.85752e-05
7.34672e-05
7.34423e-05
6.85973e-05
6.85774e-05
7.34712e-05
7.34481e-05
6.85994e-05
6.0636e-05
5.14673e-05
6.48232e-05
4.68497e-05
6.47975e-05
4.67803e-05
6.06729e-05
6.06376e-05
5.1468e-05
6.48274e-05
4.6851e-05
6.48015e-05
4.67816e-05
6.06745e-05
5.35255e-05
6.99444e-05
6.99315e-05
7.11922e-05
7.12221e-05
7.1197e-05
5.35847e-05
6.99693e-05
6.99564e-05
6.99527e-05
6.99414e-05
7.12187e-05
7.11936e-05
6.06274e-05
5.141e-05
6.47954e-05
4.67098e-05
6.8573e-05
7.34382e-05
6.06255e-05
5.14092e-05
4.67095e-05
6.47898e-05
6.85782e-05
7.34727e-05
7.34478e-05
6.86027e-05
6.06386e-05
5.14673e-05
6.48271e-05
4.68515e-05
6.48009e-05
4.67821e-05
6.06756e-05
6.85761e-05
7.34666e-05
7.34436e-05
6.86005e-05
6.06367e-05
5.14663e-05
4.68513e-05
6.48216e-05
4.6782e-05
6.4796e-05
6.06737e-05
6.85733e-05
7.34423e-05
6.06278e-05
5.14124e-05
4.67112e-05
6.47913e-05
6.8571e-05
7.34392e-05
6.06362e-05
5.14698e-05
6.48245e-05
4.68528e-05
6.47986e-05
4.67834e-05
6.06776e-05
6.85767e-05
7.34705e-05
7.34475e-05
6.86009e-05
6.06346e-05
5.14696e-05
4.68529e-05
6.48233e-05
4.67836e-05
6.47973e-05
6.06759e-05
6.85759e-05
7.34675e-05
7.34445e-05
6.85983e-05
5.35325e-05
6.99374e-05
6.99349e-05
7.11946e-05
7.12208e-05
7.11956e-05
5.35705e-05
6.99622e-05
6.99599e-05
6.99473e-05
6.99444e-05
7.12212e-05
7.11962e-05
6.0627e-05
5.14123e-05
4.67121e-05
6.4797e-05
6.85702e-05
7.34405e-05
6.85727e-05
7.34444e-05
6.06369e-05
5.14695e-05
4.68534e-05
6.48256e-05
4.6784e-05
6.47995e-05
6.06739e-05
6.06382e-05
5.14695e-05
4.68538e-05
6.48291e-05
4.67846e-05
6.4803e-05
6.06752e-05
6.85757e-05
7.34689e-05
7.34459e-05
6.85976e-05
6.85782e-05
7.34726e-05
7.34478e-05
6.86e-05
7.11937e-05
7.11966e-05
5.35845e-05
6.99588e-05
6.99705e-05
6.99431e-05
6.9955e-05
7.12202e-05
7.11953e-05
7.12232e-05
7.11981e-05
7.12216e-05
7.12463e-05
7.1224e-05
7.12486e-05
6.99681e-05
6.9978e-05
5.37e-05
6.99838e-05
6.99927e-05
7.1272e-05
7.12476e-05
7.12743e-05
7.125e-05
5.37483e-05
7.00063e-05
7.00153e-05
6.99914e-05
7.00014e-05
6.86252e-05
7.34761e-05
6.86045e-05
7.34987e-05
6.07182e-05
6.48287e-05
4.69189e-05
5.16282e-05
6.06831e-05
6.4853e-05
4.6985e-05
6.07198e-05
6.48325e-05
4.69202e-05
5.16289e-05
6.06847e-05
6.48574e-05
4.69863e-05
6.86277e-05
7.35217e-05
7.34979e-05
6.86472e-05
6.86299e-05
7.35256e-05
7.35037e-05
6.86493e-05
6.07275e-05
5.16803e-05
6.4881e-05
4.71138e-05
6.48583e-05
4.70511e-05
6.076e-05
6.07291e-05
5.1681e-05
6.48852e-05
4.71151e-05
6.48621e-05
4.70524e-05
6.07616e-05
6.99773e-05
6.99659e-05
5.37007e-05
6.99931e-05
6.99801e-05
7.12201e-05
7.12449e-05
7.12739e-05
7.12496e-05
5.3749e-05
7.00149e-05
7.00026e-05
7.00007e-05
6.99893e-05
7.12706e-05
7.12462e-05
6.07209e-05
6.48325e-05
4.69207e-05
5.16281e-05
6.06857e-05
6.4857e-05
4.69868e-05
6.86262e-05
7.34716e-05
6.86033e-05
7.34941e-05
6.0719e-05
4.69206e-05
6.48275e-05
5.16275e-05
6.06838e-05
4.69866e-05
6.48515e-05
6.86308e-05
7.35271e-05
7.35033e-05
6.86527e-05
6.07301e-05
5.16803e-05
6.4885e-05
4.71156e-05
6.4862e-05
4.70529e-05
6.07628e-05
6.86287e-05
7.3521e-05
7.34991e-05
6.86503e-05
6.07283e-05
5.16796e-05
4.71155e-05
6.48795e-05
4.70528e-05
6.4857e-05
6.07609e-05
6.86267e-05
7.34756e-05
6.8604e-05
7.3498e-05
6.0721e-05
4.69222e-05
6.48287e-05
5.16305e-05
6.06822e-05
4.69882e-05
6.48531e-05
6.8624e-05
7.34725e-05
6.86031e-05
7.3495e-05
6.07283e-05
5.16828e-05
6.48823e-05
4.71168e-05
6.48595e-05
4.70542e-05
6.07646e-05
6.86295e-05
7.3525e-05
7.35031e-05
6.86507e-05
6.07268e-05
5.16826e-05
4.71169e-05
6.48812e-05
4.70543e-05
6.48582e-05
6.07627e-05
6.86285e-05
7.35219e-05
7.35e-05
6.8648e-05
6.99718e-05
6.99689e-05
5.37008e-05
6.9986e-05
6.99837e-05
7.12227e-05
7.12473e-05
7.12726e-05
7.12482e-05
5.37493e-05
7.00085e-05
7.00062e-05
6.99952e-05
6.99923e-05
7.1273e-05
7.12488e-05
6.07204e-05
4.69232e-05
6.48344e-05
5.16305e-05
6.06853e-05
4.69891e-05
6.48588e-05
6.86231e-05
7.34738e-05
6.86026e-05
7.34963e-05
6.86255e-05
7.34759e-05
6.8605e-05
7.35002e-05
6.07284e-05
5.16828e-05
4.71174e-05
6.48832e-05
4.70547e-05
6.48604e-05
6.07608e-05
6.07297e-05
5.16827e-05
4.7118e-05
6.48868e-05
4.70554e-05
6.4864e-05
6.07621e-05
6.86277e-05
7.35232e-05
7.35013e-05
6.86467e-05
6.86301e-05
7.35271e-05
7.35034e-05
6.86492e-05
7.12218e-05
7.12464e-05
7.12247e-05
7.12493e-05
5.37533e-05
7.0005e-05
7.00168e-05
6.99911e-05
7.00029e-05
7.12721e-05
7.12479e-05
7.1275e-05
7.12507e-05
7.12733e-05
7.12972e-05
7.12757e-05
7.12996e-05
7.00135e-05
7.00234e-05
5.38568e-05
7.00276e-05
7.00366e-05
7.1322e-05
7.12984e-05
7.13243e-05
7.13008e-05
5.38987e-05
7.00477e-05
7.00567e-05
7.00344e-05
7.00444e-05
6.86717e-05
7.35304e-05
6.86538e-05
7.35518e-05
6.0799e-05
6.48858e-05
4.71769e-05
5.1825e-05
6.0769e-05
6.49071e-05
4.72363e-05
6.08005e-05
6.48897e-05
4.71782e-05
5.18257e-05
6.07706e-05
6.49112e-05
4.72376e-05
6.86736e-05
7.35734e-05
7.35507e-05
6.86903e-05
6.86757e-05
7.35773e-05
7.35565e-05
6.86923e-05
6.08071e-05
5.18721e-05
6.49314e-05
4.73525e-05
6.49117e-05
4.72964e-05
6.08348e-05
6.08087e-05
5.18728e-05
6.49353e-05
4.73538e-05
6.49152e-05
4.72977e-05
6.08363e-05
7.00231e-05
7.00114e-05
5.3857e-05
7.00363e-05
7.00238e-05
7.12718e-05
7.12958e-05
7.13239e-05
7.13004e-05
5.38998e-05
7.00563e-05
7.00439e-05
7.0044e-05
7.00322e-05
7.13206e-05
7.12969e-05
6.08017e-05
6.48896e-05
4.71787e-05
5.1825e-05
6.07716e-05
6.4911e-05
4.72382e-05
6.86727e-05
7.35258e-05
6.86526e-05
7.35472e-05
6.07999e-05
4.71787e-05
6.48846e-05
5.18244e-05
6.07698e-05
4.7238e-05
6.49055e-05
6.86766e-05
7.35788e-05
7.35562e-05
6.86957e-05
6.08097e-05
5.18722e-05
6.49352e-05
4.73544e-05
6.49154e-05
4.72983e-05
6.08376e-05
6.86746e-05
7.35727e-05
7.3552e-05
6.86933e-05
6.08079e-05
5.18715e-05
4.73543e-05
6.49297e-05
4.72982e-05
6.49103e-05
6.08357e-05
6.8673e-05
7.35298e-05
6.86532e-05
7.35511e-05
6.08003e-05
4.71801e-05
6.48858e-05
5.18273e-05
6.07681e-05
4.72394e-05
6.49073e-05
6.86703e-05
7.35267e-05
6.86523e-05
7.3548e-05
6.08077e-05
5.18746e-05
6.49324e-05
4.73554e-05
6.49128e-05
4.72993e-05
6.08392e-05
6.86752e-05
7.35766e-05
7.35559e-05
6.86936e-05
6.08078e-05
5.18745e-05
4.73556e-05
6.49315e-05
4.72995e-05
6.49117e-05
6.08356e-05
6.86743e-05
7.35736e-05
7.35528e-05
6.86909e-05
7.00174e-05
7.00144e-05
5.38572e-05
7.00298e-05
7.00275e-05
7.12744e-05
7.12982e-05
7.13226e-05
7.12989e-05
5.38998e-05
7.00498e-05
7.00475e-05
7.00382e-05
7.00352e-05
7.1323e-05
7.12995e-05
6.0801e-05
4.71812e-05
6.48916e-05
5.18274e-05
6.0771e-05
4.72405e-05
6.49128e-05
6.86687e-05
7.3528e-05
6.86511e-05
7.35494e-05
6.86712e-05
7.35301e-05
6.86536e-05
7.35533e-05
6.08076e-05
5.18747e-05
4.7356e-05
6.49334e-05
4.73e-05
6.49133e-05
6.08353e-05
6.0809e-05
5.18746e-05
4.73567e-05
6.49371e-05
4.73007e-05
6.49173e-05
6.08366e-05
6.86727e-05
7.35748e-05
7.35541e-05
6.8689e-05
6.86752e-05
7.35788e-05
7.35562e-05
6.86914e-05
7.12735e-05
7.12973e-05
7.12764e-05
7.13003e-05
5.39022e-05
7.00464e-05
7.00582e-05
7.00342e-05
7.00459e-05
7.13221e-05
7.12986e-05
7.1325e-05
7.13015e-05
7.13231e-05
7.13462e-05
7.13255e-05
7.13486e-05
7.0054e-05
7.0064e-05
5.39963e-05
7.00666e-05
7.00756e-05
7.137e-05
7.13473e-05
7.13724e-05
7.13497e-05
5.40338e-05
7.00843e-05
7.00934e-05
7.00725e-05
7.00826e-05
6.87112e-05
7.35818e-05
6.86961e-05
7.3602e-05
6.08678e-05
6.49355e-05
4.74098e-05
5.20009e-05
6.08426e-05
6.49536e-05
4.74626e-05
6.08693e-05
6.49392e-05
4.7411e-05
5.20015e-05
6.08441e-05
6.49576e-05
4.74638e-05
6.87126e-05
7.36222e-05
7.36008e-05
6.87265e-05
6.87146e-05
7.36261e-05
7.36065e-05
6.87285e-05
6.08748e-05
5.20433e-05
6.49742e-05
4.75666e-05
6.49576e-05
4.7517e-05
6.0898e-05
6.08763e-05
5.20439e-05
6.4978e-05
4.75678e-05
6.49614e-05
4.75182e-05
6.08995e-05
7.00637e-05
7.00519e-05
5.39958e-05
7.00752e-05
7.00626e-05
7.13216e-05
7.13448e-05
7.13719e-05
7.13492e-05
5.40353e-05
7.00929e-05
7.00803e-05
7.00822e-05
7.00704e-05
7.13686e-05
7.13458e-05
6.08705e-05
6.49393e-05
4.74116e-05
5.20009e-05
6.08452e-05
6.49576e-05
4.74645e-05
6.87122e-05
7.35772e-05
6.8695e-05
7.35974e-05
6.08687e-05
4.74115e-05
6.49341e-05
5.20003e-05
6.08434e-05
4.74643e-05
6.49521e-05
6.87156e-05
7.36277e-05
7.36062e-05
6.87318e-05
6.08774e-05
5.20435e-05
6.49782e-05
4.75685e-05
6.49614e-05
4.75188e-05
6.09007e-05
6.87135e-05
7.36215e-05
7.3602e-05
6.87296e-05
6.08756e-05
5.20427e-05
4.75683e-05
6.49726e-05
4.75188e-05
6.49562e-05
6.08989e-05
6.87124e-05
7.35812e-05
6.86955e-05
7.36014e-05
6.08686e-05
4.74128e-05
6.49357e-05
5.20032e-05
6.08432e-05
4.74656e-05
6.49539e-05
6.87098e-05
7.35781e-05
6.86947e-05
7.35984e-05
6.08755e-05
5.20458e-05
6.49752e-05
4.75693e-05
6.49585e-05
4.75197e-05
6.09025e-05
6.87141e-05
7.36254e-05
7.36059e-05
6.87297e-05
6.08755e-05
5.20457e-05
4.75695e-05
6.49744e-05
4.752e-05
6.49578e-05
6.08989e-05
6.87132e-05
7.36225e-05
7.36029e-05
6.87271e-05
7.00579e-05
7.00548e-05
5.39955e-05
7.00686e-05
7.00663e-05
7.13242e-05
7.13472e-05
7.13706e-05
7.13477e-05
5.40349e-05
7.00864e-05
7.0084e-05
7.00764e-05
7.00733e-05
7.1371e-05
7.13483e-05
6.08694e-05
4.7414e-05
6.49412e-05
5.20034e-05
6.08443e-05
4.74667e-05
6.49594e-05
6.87076e-05
7.35793e-05
6.86928e-05
7.35995e-05
6.87099e-05
7.35816e-05
6.86952e-05
7.36036e-05
6.08752e-05
5.20458e-05
4.757e-05
6.49762e-05
4.75204e-05
6.49591e-05
6.08983e-05
6.08764e-05
5.20459e-05
4.75707e-05
6.49799e-05
4.75212e-05
6.49633e-05
6.08994e-05
6.87111e-05
7.36236e-05
7.3604e-05
6.87246e-05
6.87133e-05
7.36277e-05
7.36062e-05
6.87266e-05
7.13233e-05
7.13463e-05
7.13262e-05
7.13493e-05
5.40373e-05
7.00831e-05
7.00948e-05
7.00725e-05
7.00841e-05
7.13701e-05
7.13475e-05
7.13731e-05
7.13504e-05
7.1371e-05
7.13933e-05
7.13734e-05
7.13957e-05
7.00899e-05
7.01e-05
5.41193e-05
7.01009e-05
7.011e-05
7.14161e-05
7.13942e-05
7.14185e-05
7.13966e-05
5.41535e-05
7.01164e-05
7.01254e-05
7.01061e-05
7.01163e-05
6.87441e-05
7.36304e-05
6.87317e-05
7.36495e-05
6.09252e-05
6.49778e-05
4.76182e-05
5.21565e-05
6.09046e-05
6.4993e-05
4.76646e-05
6.09267e-05
6.49818e-05
4.76194e-05
5.21571e-05
6.09061e-05
6.49968e-05
4.76658e-05
6.87449e-05
7.36683e-05
7.3648e-05
6.87563e-05
6.87469e-05
7.36721e-05
7.36537e-05
6.87581e-05
6.09311e-05
5.21945e-05
6.50101e-05
4.77567e-05
6.49964e-05
4.77135e-05
6.09499e-05
6.09326e-05
5.2195e-05
6.5014e-05
4.77579e-05
6.50003e-05
4.77147e-05
6.09514e-05
7.00996e-05
7.00877e-05
5.41186e-05
7.01095e-05
7.00967e-05
7.13695e-05
7.13919e-05
7.1418e-05
7.13962e-05
5.4155e-05
7.01249e-05
7.01122e-05
7.01158e-05
7.01038e-05
7.14147e-05
7.13926e-05
6.0928e-05
6.49819e-05
4.762e-05
5.21566e-05
6.09072e-05
6.49969e-05
4.76665e-05
6.87451e-05
7.36258e-05
6.87306e-05
7.36449e-05
6.09261e-05
4.762e-05
6.49765e-05
5.21559e-05
6.09054e-05
4.76663e-05
6.49914e-05
6.87479e-05
7.36737e-05
7.36534e-05
6.87612e-05
6.09336e-05
5.21947e-05
6.5014e-05
4.77586e-05
6.50004e-05
4.77153e-05
6.09525e-05
6.87459e-05
7.36675e-05
7.36492e-05
6.87591e-05
6.09318e-05
5.21938e-05
4.77585e-05
6.50084e-05
4.77153e-05
6.4995e-05
6.09507e-05
6.87453e-05
7.36298e-05
6.87311e-05
7.36488e-05
6.09262e-05
4.76212e-05
6.49781e-05
5.21589e-05
6.09053e-05
4.76675e-05
6.49932e-05
6.87428e-05
7.36268e-05
6.87303e-05
7.36458e-05
6.0932e-05
5.21969e-05
6.50108e-05
4.77594e-05
6.49972e-05
4.77162e-05
6.09541e-05
6.87464e-05
7.36714e-05
7.36531e-05
6.87594e-05
6.09319e-05
5.21969e-05
4.77596e-05
6.50103e-05
4.77165e-05
6.49967e-05
6.09509e-05
6.87456e-05
7.36685e-05
7.36501e-05
6.87569e-05
7.00938e-05
7.00906e-05
5.41181e-05
7.01028e-05
7.01005e-05
7.1372e-05
7.13942e-05
7.14167e-05
7.13946e-05
5.41544e-05
7.01183e-05
7.01159e-05
7.01099e-05
7.01068e-05
7.1417e-05
7.13952e-05
6.09264e-05
4.76224e-05
6.49836e-05
5.21591e-05
6.09058e-05
4.76687e-05
6.49986e-05
6.874e-05
7.36279e-05
6.87277e-05
7.36469e-05
6.87417e-05
7.36302e-05
6.87298e-05
7.36511e-05
6.09291e-05
5.21969e-05
4.776e-05
6.5012e-05
4.77169e-05
6.49977e-05
6.09509e-05
6.09321e-05
5.21971e-05
4.77608e-05
6.50157e-05
4.77177e-05
6.50021e-05
6.09508e-05
6.87427e-05
7.36695e-05
7.36511e-05
6.87538e-05
6.87446e-05
7.36737e-05
7.36534e-05
6.87553e-05
7.13712e-05
7.13934e-05
7.13741e-05
7.13964e-05
5.41567e-05
7.01151e-05
7.01267e-05
7.01061e-05
7.01176e-05
7.14162e-05
7.13944e-05
7.14192e-05
7.13973e-05
7.14169e-05
7.14384e-05
7.14193e-05
7.14408e-05
7.01212e-05
7.01314e-05
5.42262e-05
7.01306e-05
7.01397e-05
7.14602e-05
7.14391e-05
7.14626e-05
7.14416e-05
5.42577e-05
7.01438e-05
7.01529e-05
7.01351e-05
7.01453e-05
6.87705e-05
7.36762e-05
6.87607e-05
7.36941e-05
6.09715e-05
6.50131e-05
4.7803e-05
5.22925e-05
6.09551e-05
6.50254e-05
4.78431e-05
6.09729e-05
6.5017e-05
4.78042e-05
5.2293e-05
6.09565e-05
6.50293e-05
4.78443e-05
6.87708e-05
7.37115e-05
7.36924e-05
6.87797e-05
6.87726e-05
7.37153e-05
7.3698e-05
6.87814e-05
6.09758e-05
5.23261e-05
6.50391e-05
4.79238e-05
6.50282e-05
4.78869e-05
6.09905e-05
6.09772e-05
5.23266e-05
6.50429e-05
4.79249e-05
6.50321e-05
4.7888e-05
6.09919e-05
7.01309e-05
7.01189e-05