/*--------------------------------*- C++ -*----------------------------------*\
| =========                 |                                                 |
| \\      /  F ield         | OpenFOAM: The Open Source CFD Toolbox           |
|  \\    /   O peration     | Version:  v1906                                 |
|   \\  /    A nd           | Web:      www.OpenFOAM.com                      |
|    \\/     M anipulation  |                                                 |
\*---------------------------------------------------------------------------*/
FoamFile
{
    version     2.0;
    format      ascii;
    class       volScalarField;
    location    "1000";
    object      nut;
}
// * * * * * * * * * * * * * * * * * * * * * * * * * * * * * * * * * * * * * //

dimensions      [0 2 -1 0 0 0 0];


internalField   nonuniform List<scalar> 
43024
(
0.000208341
0.000201475
0.000201464
0.000182506
0.000210638
0.000202718
0.000202708
0.000183306
0.000212827
0.000203883
0.000203873
0.000184074
0.000214906
0.000204971
0.000204961
0.000184785
0.000216875
0.000205983
0.000205973
0.000185439
0.000218735
0.000206922
0.000206912
0.000186035
0.000220486
0.000207781
0.000207771
0.000186578
0.00022213
0.000208567
0.000208557
0.000187066
0.000223668
0.000209281
0.000209271
0.000187501
0.000225104
0.000209925
0.000209914
0.000187885
0.000226439
0.000210498
0.000210488
0.000188223
0.000227676
0.000211007
0.000210996
0.000188559
0.000228811
0.000211448
0.000211437
0.000188792
0.000229839
0.000211836
0.000211825
0.000188971
0.000230772
0.000212168
0.000212151
0.000189094
0.000231615
0.000212444
0.000212424
0.000189184
0.000232372
0.000212665
0.00021264
0.000189253
0.000233044
0.000212834
0.000212804
0.000189286
0.000233622
0.000212953
0.000212925
0.000189285
0.000234122
0.000212919
0.000212896
0.000189244
0.000236317
0.000214337
0.000214285
0.000192708
0.000182374
0.000201118
0.000201118
0.000182385
0.000201132
0.000201104
0.00020115
0.000201124
0.000182379
0.000201138
0.000201139
0.000182367
0.000182477
0.00018325
0.000201443
0.000201444
0.000202378
0.000202379
0.000182488
0.00018326
0.000201458
0.00020143
0.000202393
0.000202366
0.00020145
0.000202411
0.000202386
0.000182471
0.000183252
0.000201465
0.000202401
0.0002024
0.00018324
0.000183294
0.000184041
0.000202686
0.000202686
0.000203561
0.000203561
0.000183305
0.000184045
0.000202701
0.000202674
0.000203576
0.000203549
0.000202693
0.000203593
0.000203568
0.000183297
0.000184034
0.000202708
0.000203584
0.000203583
0.000184037
0.000184059
0.000184778
0.000203851
0.000203851
0.000204665
0.000204665
0.000184073
0.000184761
0.000203866
0.000203838
0.00020468
0.000204652
0.000203858
0.000204698
0.000204673
0.000184062
0.000184747
0.000203874
0.000204687
0.000204688
0.000184753
0.00018475
0.000185457
0.000204939
0.000204939
0.000205692
0.000205692
0.000184788
0.000185425
0.000204955
0.000204926
0.000205707
0.000205679
0.000204947
0.000205724
0.000205699
0.000184774
0.000185411
0.000204962
0.000205714
0.000205715
0.000185418
0.000185393
0.000186069
0.000205951
0.000205951
0.000206642
0.000206641
0.000185443
0.000186039
0.000205968
0.000205938
0.000206657
0.000206628
0.000205959
0.000206674
0.000206649
0.00018543
0.000186025
0.000205975
0.000206663
0.000206664
0.000186033
0.000185992
0.000186627
0.00020689
0.000206889
0.000207522
0.00020752
0.00018604
0.000186597
0.000206907
0.000206876
0.000207537
0.000207508
0.000206897
0.000207553
0.000207529
0.000186026
0.000186583
0.000206913
0.000207543
0.000207545
0.000186591
0.000186536
0.00018713
0.000207748
0.000207748
0.000208328
0.000208326
0.000186582
0.0001871
0.000207765
0.000207734
0.000208344
0.000208314
0.000207755
0.000208359
0.000208335
0.000186569
0.000187087
0.000207772
0.00020835
0.000208351
0.000187095
0.000187025
0.000187579
0.000208534
0.000208533
0.000209062
0.000209061
0.000187071
0.00018755
0.000208551
0.00020852
0.000209079
0.000209048
0.000208541
0.000209094
0.00020907
0.000187057
0.000187536
0.000208558
0.000209085
0.000209086
0.000187544
0.00018746
0.000187977
0.000209248
0.000209247
0.000209728
0.000209726
0.000187506
0.000187947
0.000209265
0.000209234
0.000209744
0.000209714
0.000209255
0.00020976
0.000209735
0.000187493
0.000187934
0.000209272
0.00020975
0.000209752
0.000187942
0.000187844
0.000188325
0.000209891
0.00020989
0.000210328
0.000210326
0.00018789
0.000188294
0.000209908
0.000209877
0.000210345
0.000210313
0.000209898
0.00021036
0.000210335
0.000187877
0.00018828
0.000209915
0.00021035
0.000210352
0.000188288
0.000188179
0.00018864
0.000210464
0.000210464
0.000210865
0.000210862
0.000188227
0.00018858
0.000210481
0.00021045
0.000210882
0.000210849
0.000210471
0.000210896
0.000210871
0.000188214
0.000188574
0.000210488
0.000210886
0.000210888
0.000188574
0.000188478
0.00018889
0.00021097
0.000210972
0.000211337
0.000211334
0.000188561
0.00018885
0.000210988
0.000210958
0.000211355
0.000211322
0.000210979
0.000211369
0.000211344
0.000188539
0.000188806
0.000210996
0.000211359
0.000211361
0.000188833
0.000188725
0.00018907
0.000211411
0.000211412
0.000211738
0.000211734
0.000188784
0.000189043
0.000211429
0.000211398
0.000211756
0.000211724
0.000211419
0.00021177
0.000211746
0.000188792
0.00018901
0.000211436
0.00021176
0.000211763
0.000189015
0.000188924
0.000189214
0.000211798
0.000211799
0.00021208
0.000212074
0.000188962
0.000189192
0.000211816
0.000211783
0.000212097
0.000212065
0.000211805
0.000212111
0.000212087
0.000188954
0.000189179
0.000211822
0.000212103
0.000212104
0.000189175
0.000189068
0.000189325
0.000212128
0.000212131
0.000212363
0.000212354
0.000189102
0.000189313
0.000212146
0.000212113
0.000212381
0.000212348
0.000212135
0.000212392
0.00021237
0.000189089
0.000189301
0.000212152
0.000212388
0.000212387
0.000189293
0.000189184
0.00018939
0.0002124
0.000212406
0.000212592
0.00021258
0.000189196
0.000189395
0.000212418
0.000212385
0.00021261
0.000212577
0.000212406
0.000212617
0.000212599
0.000189182
0.000189382
0.000212423
0.000212617
0.000212616
0.00018939
0.000189255
0.000189424
0.000212616
0.000212623
0.000212769
0.00021276
0.000189265
0.000189432
0.000212634
0.0002126
0.000212787
0.000212754
0.000212622
0.00021279
0.000212776
0.000189251
0.000189418
0.000212639
0.000212794
0.000212793
0.000189424
0.000189288
0.000189424
0.000212779
0.00021278
0.000212896
0.000212891
0.000189297
0.000189432
0.000212797
0.000212763
0.000212915
0.000212881
0.000212785
0.000212916
0.000212903
0.000189283
0.000189417
0.000212802
0.00021292
0.00021292
0.000189424
0.000189286
0.000189417
0.0002129
0.000212897
0.000213099
0.000213096
0.000189294
0.000189426
0.000212918
0.000212884
0.000213118
0.000213086
0.000212906
0.000213123
0.000213107
0.00018928
0.000189411
0.000212923
0.000213123
0.000213124
0.000189418
0.000189247
0.000190671
0.000212872
0.00021287
0.000215484
0.000215488
0.000189255
0.000190688
0.000212892
0.000212855
0.000215502
0.00021548
0.000212877
0.000215499
0.000215492
0.000189238
0.000190767
0.000212895
0.000215503
0.00021551
0.000190769
0.00019279
0.000214307
0.000214304
0.000192795
0.000214323
0.000214254
0.000236323
0.000236318
0.00023633
0.000214263
0.000192718
0.000214278
9.98303e-05
5.07442e-05
2.38927e-05
9.98419e-05
5.07411e-05
0.000207748
0.000207755
0.000207751
0.00020776
0.000144123
0.000200489
0.000103591
0.000210018
2.38905e-05
0.000144107
0.000200479
0.000210013
0.000103591
0.000181932
7.78984e-05
7.78971e-05
9.9933e-05
5.07532e-05
9.98827e-05
5.07635e-05
2.38974e-05
2.39016e-05
9.99443e-05
5.07501e-05
9.98885e-05
5.07605e-05
0.000208348
0.000208345
0.000208354
0.000210071
0.000210078
0.000210074
0.000210083
0.000144495
0.000103656
0.00021132
0.00020179
0.000144315
0.000103727
0.000211739
2.38953e-05
2.38994e-05
0.000144479
0.000211315
0.000103658
0.00020178
0.000144317
0.000211734
0.000103728
7.79311e-05
7.79304e-05
0.000182796
7.79515e-05
7.79506e-05
0.000100022
5.07719e-05
9.99781e-05
5.07819e-05
2.39061e-05
2.39101e-05
0.000100033
5.07688e-05
9.9984e-05
5.07788e-05
0.000210645
0.000210642
0.000210651
0.000212285
0.000212292
0.000212288
0.000212297
0.00014483
0.000103784
0.000212973
0.000203012
0.000144667
0.000103848
0.000213366
2.3904e-05
2.39079e-05
0.000144809
0.000212968
0.000103786
0.000203002
0.00014467
0.000213361
0.000103849
7.798e-05
7.79791e-05
0.000183644
7.7998e-05
7.79971e-05
0.000100098
5.07897e-05
0.00010006
5.07992e-05
2.39145e-05
2.39183e-05
0.000100109
5.07865e-05
0.000100066
5.07962e-05
0.000212834
0.00021283
0.000212839
0.00021439
0.000214397
0.000214393
0.000214402
0.000145136
0.000103895
0.000214532
0.000204155
0.00014498
0.000103953
0.000214901
2.39123e-05
2.39161e-05
0.000145114
0.000214528
0.000103897
0.000204145
0.000144987
0.000214896
0.000103955
7.8022e-05
7.8021e-05
0.000184403
7.80378e-05
7.80368e-05
0.000100162
5.08065e-05
0.000100129
5.08156e-05
2.39225e-05
2.39262e-05
0.000100173
5.08033e-05
0.000100135
5.08125e-05
0.000214913
0.000214908
0.000214918
0.000216385
0.000216392
0.000216388
0.000216397
0.000145409
0.000103993
0.000216001
0.000205221
0.000145266
0.000104044
0.000216344
2.39203e-05
2.3924e-05
0.000145396
0.000215996
0.000103994
0.00020521
0.000145256
0.000216338
0.000104046
7.80573e-05
7.80561e-05
0.00018509
7.80709e-05
7.80698e-05
0.000100213
5.08223e-05
0.000100185
5.0831e-05
2.39302e-05
2.39337e-05
0.000100223
5.08191e-05
0.000100191
5.08279e-05
0.000216882
0.000216877
0.000216888
0.000218271
0.000218278
0.000218273
0.000218283
0.000145645
0.000104076
0.000217379
0.000206208
0.000145519
0.000104121
0.000217695
2.3928e-05
2.39316e-05
0.000145635
0.000217374
0.000104077
0.000206198
0.000145508
0.000217689
0.000104123
7.80861e-05
7.8085e-05
0.000185735
7.80977e-05
7.80966e-05
0.000100252
5.08371e-05
0.000100229
5.08454e-05
2.39375e-05
2.39409e-05
0.00010026
5.08339e-05
0.000100235
5.08423e-05
0.000218742
0.000218737
0.000218747
0.000220049
0.000220056
0.000220051
0.000220061
0.00014585
0.000104144
0.000218668
0.000207123
0.000145741
0.000104184
0.000218955
2.39353e-05
2.39388e-05
0.000145839
0.000218663
0.000104147
0.000207112
0.000145731
0.000218949
0.000104186
7.81087e-05
7.81076e-05
0.000186321
7.81182e-05
7.81171e-05
0.000100279
5.08509e-05
0.00010026
5.08589e-05
2.39445e-05
2.39478e-05
0.000100287
5.08477e-05
0.000100267
5.08557e-05
0.000220493
0.000220488
0.000220498
0.000221718
0.000221724
0.000221719
0.000221729
0.000146024
0.0001042
0.00021987
0.000207965
0.000145932
0.000104234
0.000220126
2.39423e-05
2.39456e-05
0.000146013
0.000219865
0.000104203
0.000207955
0.000145923
0.000220121
0.000104236
7.81254e-05
7.81243e-05
0.000186852
7.81339e-05
7.81316e-05
0.000100296
5.08637e-05
0.00010028
5.08714e-05
2.39512e-05
2.39543e-05
0.000100303
5.08606e-05
0.000100287
5.08681e-05
0.000222137
0.000222132
0.000222141
0.000223279
0.000223285
0.00022328
0.000223291
0.000146174
0.000104243
0.000220984
0.000208736
0.000146089
0.00010427
0.000221216
2.39489e-05
2.39521e-05
0.000146163
0.000220979
0.000104245
0.000208726
0.000146079
0.00022121
0.000104272
7.81355e-05
7.81345e-05
0.000187329
7.8142e-05
7.81409e-05
0.000100302
5.08756e-05
0.000100289
5.08829e-05
2.39574e-05
2.39605e-05
0.000100309
5.08724e-05
0.000100297
5.08795e-05
0.000223675
0.00022367
0.000223679
0.000224733
0.00022474
0.000224734
0.000224745
0.000146294
0.000104272
0.000222007
0.000209436
0.000146219
0.000104294
0.000222221
2.39552e-05
2.39583e-05
0.000146284
0.000222001
0.000104274
0.000209426
0.000146208
0.000222216
0.000104297
7.81391e-05
7.81386e-05
0.000187752
7.8145e-05
7.81441e-05
0.000100298
5.08864e-05
0.000100289
5.08934e-05
2.39633e-05
2.39663e-05
0.000100305
5.0883e-05
0.000100297
5.08901e-05
0.000225111
0.000225105
0.000225114
0.000226081
0.000226087
0.000226082
0.000226094
0.000146388
0.000104288
0.000222945
0.000210068
0.000146321
0.000104307
0.000223144
2.39611e-05
2.3964e-05
0.000146377
0.000222939
0.00010429
0.000210058
0.00014631
0.000223139
0.000104308
7.81382e-05
7.81373e-05
0.000188124
7.81423e-05
7.81413e-05
0.000100285
5.08962e-05
0.00010028
5.09031e-05
2.39688e-05
2.39717e-05
0.000100293
5.08928e-05
0.000100287
5.08997e-05
0.000226447
0.000226441
0.000226449
0.000227325
0.000227331
0.000227326
0.000227338
0.000146457
0.000104293
0.0002238
0.000210636
0.000146398
0.000104306
0.000223988
2.39666e-05
2.39695e-05
0.000146442
0.000223793
0.000104295
0.000210626
0.000146387
0.000223982
0.000104307
7.81323e-05
7.81313e-05
0.000188434
7.81344e-05
7.81333e-05
0.000100265
5.09053e-05
0.000100262
5.09112e-05
2.3974e-05
2.39768e-05
0.000100272
5.0902e-05
0.00010027
5.09079e-05
0.000227684
0.000227677
0.000227686
0.000228476
0.000228483
0.000228477
0.000228488
0.000146498
0.000104287
0.000224571
0.000211141
0.000146452
0.000104295
0.000224757
2.39717e-05
2.39746e-05
0.000146482
0.000224565
0.000104289
0.00021113
0.000146442
0.000224751
0.000104296
7.81219e-05
7.81208e-05
0.000188705
7.81217e-05
7.81206e-05
0.000100234
5.09141e-05
0.000100236
5.09182e-05
2.39787e-05
2.39815e-05
0.000100243
5.09109e-05
0.000100243
5.0915e-05
0.000228819
0.000228812
0.000228821
0.000229537
0.000229542
0.000229538
0.000229548
0.000146517
0.00010427
0.000225264
0.000211578
0.000146479
0.000104274
0.000225448
2.39765e-05
2.39793e-05
0.000146501
0.000225257
0.000104272
0.000211567
0.000146469
0.000225442
0.000104275
7.81071e-05
7.8106e-05
0.000188935
7.81045e-05
7.81034e-05
0.000100196
5.09216e-05
0.000100201
5.09249e-05
2.39831e-05
2.3986e-05
0.000100206
5.09184e-05
0.000100208
5.09216e-05
0.000229848
0.000229839
0.000229849
0.00023051
0.000230517
0.00023051
0.000230521
0.000146513
0.000104242
0.000225882
0.000211948
0.00014648
0.000104242
0.000226059
2.39808e-05
2.39838e-05
0.000146495
0.000225871
0.000104244
0.000211938
0.00014647
0.000226054
0.000104243
7.80883e-05
7.80872e-05
0.000189095
7.80828e-05
7.80816e-05
0.00010015
5.09277e-05
0.000100156
5.09308e-05
2.3987e-05
2.39902e-05
0.000100159
5.09245e-05
0.000100164
5.09276e-05
0.000230777
0.000230772
0.000230781
0.000231393
0.000231405
0.000231393
0.000231407
0.000146487
0.000104206
0.000226426
0.000212259
0.000146456
0.000104201
0.000226588
2.39847e-05
2.3988e-05
0.000146462
0.000226414
0.000104208
0.000212253
0.00014645
0.000226585
0.000104202
7.80661e-05
7.8065e-05
0.000189238
7.80569e-05
7.80557e-05
0.000100094
5.09328e-05
0.000100104
5.09362e-05
2.39904e-05
2.39942e-05
0.000100104
5.09296e-05
0.000100111
5.0933e-05
0.000231618
0.000231615
0.000231621
0.000232188
0.000232203
0.000232188
0.000232206
0.000146433
0.000104164
0.000226913
0.000212512
0.00014641
0.000104151
0.000227047
2.39882e-05
2.39921e-05
0.00014641
0.000226897
0.000104166
0.000212508
0.000146407
0.000227047
0.000104152
7.80415e-05
7.80404e-05
0.000189357
7.80273e-05
7.80261e-05
0.000100029
5.0937e-05
0.000100042
5.09412e-05
2.39933e-05
2.39982e-05
0.00010004
5.09338e-05
0.000100048
5.0938e-05
0.000232372
0.000232372
0.000232375
0.000232904
0.000232914
0.000232903
0.000232917
0.000146356
0.000104118
0.000227332
0.00021271
0.000146347
0.000104093
0.00022744
2.39911e-05
2.3996e-05
0.000146341
0.000227312
0.00010412
0.00021271
0.000146343
0.000227443
0.000104094
7.80159e-05
7.80148e-05
0.000189411
7.79948e-05
7.79936e-05
9.99513e-05
5.09402e-05
9.99675e-05
5.09464e-05
2.39958e-05
2.40021e-05
9.99618e-05
5.09372e-05
9.99733e-05
5.09434e-05
0.000233047
0.000233043
0.000233049
0.00023353
0.000233536
0.000233528
0.000233538
0.000146247
0.000104078
0.000227688
0.000212857
0.000146282
0.000104032
0.000227768
2.39935e-05
2.39999e-05
0.000146235
0.000227662
0.00010408
0.000212861
0.000146273
0.000227776
0.000104033
7.79926e-05
7.79914e-05
0.000189428
7.79629e-05
7.79616e-05
9.98483e-05
5.09424e-05
9.98678e-05
5.09529e-05
2.39978e-05
2.4006e-05
9.98556e-05
5.09397e-05
9.98759e-05
5.09501e-05
0.000233628
0.000233621
0.00023363
0.000234094
0.0002341
0.000234094
0.000234104
0.000146129
0.000104051
0.000227984
0.000212969
0.000146175
0.000103934
0.000228043
2.39956e-05
2.40038e-05
0.000146119
0.000227948
0.00010405
0.000212971
0.000146166
0.000228056
0.00010393
7.79796e-05
7.79787e-05
0.000189413
7.79261e-05
7.79252e-05
9.9756e-05
5.09464e-05
9.97246e-05
5.09869e-05
2.40015e-05
2.40209e-05
9.97614e-05
5.09432e-05
9.9732e-05
5.09844e-05
0.00023413
0.000234119
0.000234128
0.000233712
0.00023373
0.000233723
0.000233723
0.000146058
0.000103991
0.000228259
0.000213597
0.000146082
0.000103759
0.000228045
2.39992e-05
2.40188e-05
0.000146049
0.000228252
0.000103986
0.0002136
0.000146072
0.000228036
0.000103756
7.79229e-05
7.79221e-05
0.000189688
7.77109e-05
7.77114e-05
0.000108459
5.50867e-05
0.000100121
8.49375e-05
2.70397e-05
4.59566e-05
0.000108462
5.50834e-05
0.000100122
8.50688e-05
0.000251116
0.000243694
0.000243697
0.000235599
0.000250957
0.000244514
0.000244517
0.000149983
0.00010557
0.000232601
0.00021391
0.000147047
0.000108552
0.000231067
2.70376e-05
4.59669e-05
0.00014996
0.000232592
0.000105758
0.000214182
0.000147042
0.000230972
0.000108583
7.71834e-05
7.71756e-05
0.000196834
8.55931e-05
8.56026e-05
2.38934e-05
2.3892e-05
0.000181933
7.79018e-05
7.78959e-05
2.38979e-05
2.38936e-05
2.38965e-05
2.38923e-05
0.000182065
7.79293e-05
7.79234e-05
7.79062e-05
7.79026e-05
9.98337e-05
5.07425e-05
0.000144106
0.000200458
0.000103591
0.000210004
0.000144109
0.000200459
0.000103588
0.000210007
9.98301e-05
5.0754e-05
5.07436e-05
9.98837e-05
9.98339e-05
5.07523e-05
5.07463e-05
9.9887e-05
0.000144131
0.000200793
0.000103661
0.000210876
0.000103588
0.000210446
0.000144297
0.000144134
0.000200793
0.000103659
0.000210879
0.000103586
0.000210449
0.0001443
0.000181944
7.78985e-05
7.78939e-05
2.38932e-05
2.38972e-05
2.3893e-05
0.000182076
7.79258e-05
7.79212e-05
7.79017e-05
7.78995e-05
2.38977e-05
2.38936e-05
0.000144109
0.000200472
0.000103583
0.000210002
9.98381e-05
5.07349e-05
0.000144105
0.000200445
0.00021
0.00010357
9.98358e-05
5.07509e-05
5.07404e-05
9.98955e-05
0.000144134
0.000200807
0.000103653
0.000210875
0.000103578
0.000210449
0.0001443
9.98317e-05
5.07448e-05
5.07389e-05
9.98911e-05
0.000144129
0.000200779
0.000210873
0.00010364
0.000210443
0.000103566
0.000144296
9.98374e-05
5.07417e-05
0.00014412
0.000200465
0.000210015
0.000103588
9.98328e-05
5.07381e-05
0.000144124
0.000200824
0.000103661
0.00021089
0.000103586
0.000210459
0.000144314
9.98303e-05
5.07515e-05
5.07455e-05
9.98906e-05
0.000144121
0.000200799
0.000210887
0.000103659
0.000210456
0.000103585
0.00014431
9.98304e-05
5.0748e-05
5.0742e-05
9.98851e-05
0.000181987
7.78821e-05
7.78996e-05
2.38925e-05
2.3895e-05
2.38909e-05
0.000181968
7.79094e-05
7.79272e-05
7.78879e-05
7.79061e-05
2.38969e-05
2.38928e-05
0.00014411
0.000200479
0.000210014
0.000103588
9.98296e-05
5.07382e-05
9.98356e-05
5.07406e-05
0.000144128
0.000200813
0.000210885
0.000103662
0.000210455
0.000103588
0.000144298
0.000144132
0.000200814
0.000210886
0.000103659
0.000210456
0.000103585
0.000144301
9.98271e-05
5.0748e-05
5.07421e-05
9.98811e-05
9.98347e-05
5.07504e-05
5.07399e-05
9.98872e-05
2.38921e-05
2.38918e-05
0.000182063
7.79257e-05
7.79245e-05
7.79042e-05
7.79036e-05
2.38966e-05
2.38925e-05
2.38962e-05
2.3892e-05
2.38981e-05
2.39023e-05
2.38967e-05
2.39009e-05
7.79331e-05
7.79293e-05
0.000182828
7.79553e-05
7.79493e-05
2.39066e-05
2.39024e-05
2.39052e-05
2.39011e-05
0.000182894
7.79794e-05
7.79734e-05
7.79583e-05
7.79545e-05
9.99367e-05
5.07558e-05
9.98861e-05
5.07618e-05
0.00014448
0.000103657
0.000211307
0.000201758
0.000144318
0.000103727
0.000211725
0.000144483
0.000103654
0.00021131
0.000201758
0.000144322
0.000103726
0.000211728
9.99315e-05
5.07728e-05
5.07628e-05
9.99796e-05
9.99352e-05
5.07711e-05
5.07654e-05
9.99828e-05
0.000144499
0.000202074
0.00010379
0.000212551
0.000103724
0.000212145
0.000144651
0.000144502
0.000202075
0.000103788
0.000212554
0.00010372
0.000212148
0.000144654
7.79288e-05
7.79263e-05
0.000182839
7.79516e-05
7.79469e-05
2.3898e-05
2.39021e-05
2.39059e-05
2.39018e-05
0.000182904
7.7974e-05
7.79709e-05
7.79542e-05
7.79515e-05
2.39064e-05
2.39024e-05
0.000144483
0.000103648
0.00021131
0.000201772
0.000144321
0.000103719
0.000211724
9.99406e-05
5.07483e-05
9.98843e-05
5.07542e-05
0.000144479
0.000211304
0.000103636
0.000201745
0.000144317
0.000211722
0.000103706
9.99374e-05
5.07697e-05
5.07596e-05
9.99915e-05
0.000144502
0.000202089
0.000103782
0.00021255
0.000103714
0.000212148
0.000144654
9.99336e-05
5.07636e-05
5.07579e-05
9.99869e-05
0.000144498
0.000202062
0.000212548
0.000103769
0.000212142
0.000103702
0.000144651
9.99401e-05
5.07551e-05
9.98833e-05
5.07609e-05
0.000144493
0.000211318
0.000103655
0.000201765
0.000144312
0.000211736
0.000103725
9.99347e-05
5.07515e-05
9.98832e-05
5.07574e-05
0.000144495
0.000202106
0.00010379
0.000212565
0.000103721
0.000212159
0.000144669
9.99326e-05
5.07702e-05
5.07647e-05
9.99863e-05
0.000144493
0.000202081
0.000212562
0.000103788
0.000212156
0.000103721
0.000144664
9.99325e-05
5.07667e-05
5.07611e-05
9.99807e-05
7.79146e-05
7.79328e-05
0.00018283
7.79352e-05
7.7953e-05
2.38972e-05
2.39013e-05
2.39037e-05
2.38997e-05
0.000182897
7.79593e-05
7.79772e-05
7.794e-05
7.79582e-05
2.39056e-05
2.39016e-05
0.000144483
0.000211317
0.000103654
0.00020178
0.00014432
0.000211735
0.000103725
9.99295e-05
5.07515e-05
9.98782e-05
5.07575e-05
9.99356e-05
5.07497e-05
9.98856e-05
5.076e-05
0.000144497
0.000202096
0.00021256
0.00010379
0.000212153
0.000103724
0.00014465
0.000144501
0.000202096
0.000212561
0.000103787
0.000212155
0.00010372
0.000144654
9.99261e-05
5.07668e-05
5.07611e-05
9.99746e-05
9.99335e-05
5.07692e-05
5.07591e-05
9.99807e-05
2.38969e-05
2.3901e-05
2.38965e-05
2.39006e-05
0.000182922
7.79755e-05
7.79746e-05
7.79565e-05
7.79557e-05
2.39053e-05
2.39013e-05
2.39049e-05
2.39009e-05
2.39067e-05
2.39108e-05
2.39054e-05
2.39094e-05
7.79817e-05
7.79779e-05
0.000183653
7.80019e-05
7.79958e-05
2.39149e-05
2.39109e-05
2.39136e-05
2.39096e-05
0.000183683
7.80226e-05
7.80166e-05
7.80034e-05
7.79997e-05
0.000100026
5.07746e-05
9.99814e-05
5.07801e-05
0.000144812
0.000103785
0.00021296
0.00020298
0.000144671
0.000103849
0.000213354
0.000144815
0.000103782
0.000212963
0.00020298
0.000144674
0.000103847
0.000213356
0.00010002
5.07907e-05
5.0781e-05
0.000100062
0.000100024
5.0789e-05
5.07837e-05
0.000100065
0.000144832
0.000203278
0.000103904
0.000214133
0.000103844
0.000213752
0.000144967
0.000144835
0.000203278
0.000103902
0.000214136
0.00010384
0.000213754
0.00014497
7.79784e-05
7.7975e-05
0.00018366
7.79965e-05
7.7993e-05
2.39067e-05
2.39106e-05
2.39142e-05
2.39103e-05
0.000183696
7.80171e-05
7.80137e-05
7.80003e-05
7.79968e-05
2.39148e-05
2.39109e-05
0.000144815
0.000103776
0.000212963
0.000202994
0.000144674
0.000103841
0.000213352
0.00010003
5.07671e-05
9.99797e-05
5.07725e-05
0.000144812
0.000212957
0.000103764
0.000202967
0.00014467
0.00021335
0.000103827
0.000100026
5.07876e-05
5.07779e-05
0.000100074
0.000144835
0.000203293
0.000103896
0.000214131
0.000103834
0.000213754
0.00014497
0.000100022
5.07814e-05
5.07761e-05
0.000100069
0.000144831
0.000203266
0.000214129
0.000103882
0.000213749
0.000103822
0.000144966
0.000100029
5.07738e-05
9.99785e-05
5.07792e-05
0.000144819
0.00021297
0.000103783
0.000202987
0.000144664
0.000213364
0.000103847
0.000100024
5.07702e-05
9.99785e-05
5.07757e-05
0.000144822
0.00020331
0.000103903
0.000214145
0.000103841
0.000213764
0.000144992
0.000100021
5.07881e-05
5.07829e-05
0.000100068
0.000144835
0.000203286
0.000214143
0.000103901
0.000213762
0.000103841
0.000144969
0.000100021
5.07846e-05
5.07793e-05
0.000100063
7.79635e-05
7.79816e-05
0.000183651
7.79814e-05
7.79995e-05
2.39059e-05
2.39099e-05
2.39121e-05
2.39082e-05
0.000183686
7.80021e-05
7.80201e-05
7.79853e-05
7.80033e-05
2.3914e-05
2.39101e-05
0.000144814
0.00021297
0.000103782
0.000203002
0.000144673
0.000213363
0.000103846
0.000100017
5.07703e-05
9.99713e-05
5.07758e-05
0.000100023
5.07684e-05
9.99786e-05
5.07783e-05
0.00014483
0.0002033
0.000214141
0.000103904
0.00021376
0.000103843
0.000144966
0.000144834
0.0002033
0.000214142
0.000103901
0.000213761
0.00010384
0.000144968
0.000100013
5.07846e-05
5.07793e-05
0.000100055
0.00010002
5.0787e-05
5.07774e-05
0.000100061
2.39056e-05
2.39095e-05
2.39051e-05
2.39092e-05
0.0001837
7.80186e-05
7.80177e-05
7.80019e-05
7.80009e-05
2.39137e-05
2.39098e-05
2.39133e-05
2.39094e-05
2.39151e-05
2.3919e-05
2.39138e-05
2.39176e-05
7.80234e-05
7.80197e-05
0.000184414
7.80416e-05
7.80356e-05
2.3923e-05
2.39191e-05
2.39216e-05
2.39178e-05
0.000184416
7.8059e-05
7.80531e-05
7.80418e-05
7.80383e-05
0.000100102
5.07924e-05
0.000100063
5.07974e-05
0.000145114
0.000103898
0.000214521
0.000204123
0.000144988
0.000103954
0.000214889
0.000145117
0.000103894
0.000214523
0.000204123
0.000144991
0.000103952
0.000214891
0.000100095
5.08075e-05
5.07983e-05
0.000100132
0.000100099
5.08058e-05
5.08009e-05
0.000100135
0.000145133
0.000204404
0.000104002
0.000215622
0.000103949
0.000215266
0.000145255
0.000145136
0.000204404
0.000103999
0.000215624
0.000103946
0.000215268
0.000145258
7.80202e-05
7.80169e-05
0.000184413
7.80362e-05
7.80324e-05
2.3915e-05
2.39188e-05
2.39223e-05
2.39185e-05
0.000184438
7.80536e-05
7.80498e-05
7.80387e-05
7.80352e-05
2.39228e-05
2.39191e-05
0.000145117
0.000103888
0.000214523
0.000204138
0.000144992
0.000103947
0.000214887
0.000100106
5.07848e-05
0.000100062
5.07899e-05
0.000145113
0.000214517
0.000103876
0.00020411
0.000144988
0.000214885
0.000103933
0.000100101
5.08044e-05
5.07951e-05
0.000100143
0.000145136
0.00020442
0.000103994
0.00021562
0.000103939
0.000215268
0.000145258
0.000100098
5.07982e-05
5.07934e-05
0.000100139
0.000145133
0.000204392
0.000215618
0.000103981
0.000215263
0.000103926
0.000145254
0.000100104
5.07916e-05
0.00010006
5.07966e-05
0.000145118
0.00021453
0.000103895
0.00020413
0.000144991
0.000214898
0.000103952
0.000100099
5.0788e-05
0.00010006
5.07931e-05
0.000145125
0.000204436
0.000104001
0.000215634
0.000103946
0.000215278
0.000145281
0.000100096
5.08049e-05
5.08002e-05
0.000100138
0.000145136
0.000204412
0.000215632
0.000104
0.000215276
0.000103946
0.000145259
0.000100096
5.08014e-05
5.07966e-05
0.000100133
7.80054e-05
7.80232e-05
0.0001844
7.80209e-05
7.8039e-05
2.39143e-05
2.39181e-05
2.39201e-05
2.39164e-05
0.000184425
7.80383e-05
7.80563e-05
7.80238e-05
7.80416e-05
2.39221e-05
2.39183e-05
0.000145115
0.00021453
0.000103895
0.000204146
0.000144989
0.000214898
0.000103952
0.000100091
5.0788e-05
0.000100051
5.07931e-05
0.000100096
5.07862e-05
0.000100057
5.07956e-05
0.000145135
0.000204426
0.000215629
0.000104002
0.000215273
0.000103947
0.000145264
0.000145134
0.000204427
0.000215631
0.000103999
0.000215275
0.000103945
0.000145255
0.000100087
5.08014e-05
5.07966e-05
0.000100124
0.000100091
5.08039e-05
5.07946e-05
0.000100127
2.39139e-05
2.39177e-05
2.39135e-05
2.39174e-05
0.000184438
7.80551e-05
7.8054e-05
7.80405e-05
7.80394e-05
2.39217e-05
2.3918e-05
2.39214e-05
2.39176e-05
2.39231e-05
2.39269e-05
2.39218e-05
2.39255e-05
7.80586e-05
7.80551e-05
0.000185133
7.80748e-05
7.80689e-05
2.39307e-05
2.3927e-05
2.39294e-05
2.39257e-05
0.00018507
7.80891e-05
7.80831e-05
7.80738e-05
7.80704e-05
0.000100165
5.08091e-05
0.000100132
5.08138e-05
0.000145385
0.000103995
0.000215989
0.000205188
0.000145273
0.000104046
0.000216331
0.000145388
0.000103993
0.000215991
0.000205188
0.000145276
0.000104043
0.000216333
0.000100158
5.08234e-05
5.08146e-05
0.00010019
0.000100161
5.08217e-05
5.08172e-05
0.000100192
0.000145401
0.000205454
0.000104086
0.000217019
0.000104039
0.000216689
0.00014551
0.000145404
0.000205454
0.000104084
0.000217021
0.000104036
0.000216691
0.000145513
7.80555e-05
7.80521e-05
0.000185096
7.80694e-05
7.80652e-05
2.3923e-05
2.39267e-05
2.393e-05
2.39264e-05
0.000185125
7.80836e-05
7.80796e-05
7.80708e-05
7.80672e-05
2.39305e-05
2.39269e-05
0.000145388
0.000103986
0.000215991
0.000205204
0.000145276
0.000104038
0.00021633
0.000100169
5.08016e-05
0.000100131
5.08062e-05
0.000145384
0.000215986
0.000103973
0.000205175
0.000145272
0.000216327
0.000104025
0.000100164
5.08203e-05
5.08114e-05
0.0001002
0.000145404
0.00020547
0.000104078
0.000217017
0.00010403
0.000216691
0.000145513
0.00010016
5.08141e-05
5.08097e-05
0.000100196
0.0001454
0.000205441
0.000217015
0.000104065
0.000216686
0.000104017
0.000145509
0.000100168
5.08083e-05
0.000100129
5.08129e-05
0.00014539
0.000215998
0.000103993
0.000205196
0.000145276
0.000216341
0.000104043
0.000100163
5.08048e-05
0.000100129
5.08095e-05
0.000145395
0.000205487
0.000104084
0.000217031
0.000104036
0.000216702
0.000145536
0.000100159
5.08208e-05
5.08164e-05
0.000100195
0.000145405
0.000205463
0.000217028
0.000104084
0.000216699
0.000104037
0.000145514
0.000100159
5.08173e-05
5.08129e-05
0.00010019
7.80406e-05
7.80583e-05
0.000185082
7.80539e-05
7.8072e-05
2.39223e-05
2.3926e-05
2.39278e-05
2.39242e-05
0.000185112
7.80682e-05
7.80862e-05
7.80558e-05
7.80735e-05
2.39298e-05
2.39262e-05
0.000145385
0.000215998
0.000103992
0.000205211
0.000145272
0.00021634
0.000104043
0.000100153
5.08047e-05
0.000100119
5.08094e-05
0.000100156
5.08029e-05
0.000100122
5.0812e-05
0.000145383
0.000205476
0.000217025
0.000104087
0.000216696
0.000104037
0.000145524
0.0001454
0.000205478
0.000217027
0.000104083
0.000216698
0.000104036
0.000145509
0.000100148
5.08173e-05
5.08128e-05
0.00010018
0.000100151
5.08198e-05
5.08109e-05
0.000100182
2.3922e-05
2.39256e-05
2.39215e-05
2.39253e-05
0.000185125
7.8085e-05
7.80839e-05
7.80725e-05
7.80713e-05
2.39295e-05
2.39259e-05
2.39291e-05
2.39254e-05
2.39308e-05
2.39345e-05
2.39295e-05
2.39331e-05
7.80874e-05
7.8084e-05
0.000185774
7.81017e-05
7.80957e-05
2.39381e-05
2.39345e-05
2.39367e-05
2.39332e-05
0.0001857
7.81128e-05
7.81068e-05
7.80994e-05
7.80961e-05
0.000100216
5.08249e-05
0.000100188
5.08292e-05
0.000145624
0.000104078
0.000217367
0.000206176
0.000145524
0.000104123
0.000217682
0.000145626
0.000104076
0.000217369
0.000206176
0.000145526
0.00010412
0.000217684
0.000100208
5.08383e-05
5.08299e-05
0.000100235
0.000100211
5.08366e-05
5.08325e-05
0.000100237
0.000145634
0.00020643
0.000104156
0.000218324
0.000104115
0.000218023
0.000145732
0.000145637
0.000206429
0.000104154
0.000218326
0.000104112
0.000218024
0.000145734
7.80844e-05
7.80809e-05
0.00018574