/*--------------------------------*- C++ -*----------------------------------*\
| =========                 |                                                 |
| \\      /  F ield         | OpenFOAM: The Open Source CFD Toolbox           |
|  \\    /   O peration     | Version:  v1906                                 |
|   \\  /    A nd           | Web:      www.OpenFOAM.com                      |
|    \\/     M anipulation  |                                                 |
\*---------------------------------------------------------------------------*/
FoamFile
{
    version     2.0;
    format      ascii;
    class       volScalarField;
    location    "1000";
    object      p;
}
// * * * * * * * * * * * * * * * * * * * * * * * * * * * * * * * * * * * * * //

dimensions      [0 2 -2 0 0 0 0];


internalField   nonuniform List<scalar> 
43024
(
0.000710778
0.000710727
0.000710727
0.000712303
0.000675419
0.00067537
0.00067537
0.000676949
0.000640033
0.000639986
0.000639986
0.000641568
0.000604617
0.000604574
0.000604574
0.000606158
0.000569171
0.00056913
0.00056913
0.000570717
0.000533694
0.000533655
0.000533655
0.000535244
0.000498184
0.000498148
0.000498148
0.00049974
0.00046264
0.000462607
0.000462607
0.000464201
0.000427062
0.000427031
0.000427031
0.000428629
0.000391449
0.00039142
0.00039142
0.00039302
0.0003558
0.000355773
0.000355773
0.000357376
0.000320115
0.00032009
0.000320091
0.000321696
0.000284394
0.000284372
0.000284372
0.00028598
0.000248637
0.000248617
0.000248617
0.000250227
0.000212844
0.000212826
0.000212826
0.000214437
0.000177015
0.000176999
0.000176999
0.00017861
0.000141149
0.000141135
0.000141135
0.000142743
0.000105241
0.000105231
0.000105231
0.000106827
6.9304e-05
6.9288e-05
6.92863e-05
7.08369e-05
3.39085e-05
3.34558e-05
3.34519e-05
3.47051e-05
6.82519e-06
7.84897e-06
7.84439e-06
5.75247e-06
0.00071795
0.000719562
0.000719562
0.00071795
0.000719562
0.000719562
0.000719562
0.000719562
0.00071795
0.000719562
0.000719562
0.00071795
0.000712302
0.0006826
0.000710727
0.000710727
0.000684212
0.000684212
0.000712302
0.0006826
0.000710727
0.000710727
0.000684212
0.000684212
0.000710727
0.000684212
0.000684212
0.000712302
0.0006826
0.000710727
0.000684212
0.000684212
0.000682599
0.000676948
0.000647222
0.00067537
0.00067537
0.000648835
0.000648835
0.000676948
0.000647223
0.00067537
0.00067537
0.000648835
0.000648835
0.00067537
0.000648835
0.000648835
0.000676948
0.000647222
0.00067537
0.000648835
0.000648835
0.000647222
0.000641567
0.000611816
0.000639986
0.000639986
0.00061343
0.00061343
0.000641567
0.000611817
0.000639986
0.000639986
0.00061343
0.00061343
0.000639986
0.00061343
0.00061343
0.000641567
0.000611817
0.000639986
0.00061343
0.00061343
0.000611816
0.000606157
0.00057638
0.000604574
0.000604574
0.000577994
0.000577994
0.000606157
0.000576381
0.000604574
0.000604574
0.000577994
0.000577994
0.000604574
0.000577994
0.000577994
0.000606157
0.00057638
0.000604574
0.000577994
0.000577994
0.00057638
0.000570717
0.000540912
0.00056913
0.00056913
0.000542527
0.000542527
0.000570717
0.000540913
0.00056913
0.000569131
0.000542527
0.000542527
0.00056913
0.000542527
0.000542527
0.000570717
0.000540912
0.000569131
0.000542527
0.000542527
0.000540912
0.000535244
0.000505412
0.000533655
0.000533655
0.000507027
0.000507027
0.000535244
0.000505412
0.000533655
0.000533655
0.000507027
0.000507027
0.000533655
0.000507027
0.000507027
0.000535244
0.000505412
0.000533655
0.000507027
0.000507027
0.000505412
0.00049974
0.000469879
0.000498148
0.000498148
0.000471495
0.000471495
0.000499739
0.000469879
0.000498148
0.000498148
0.000471495
0.000471495
0.000498148
0.000471495
0.000471495
0.000499739
0.000469879
0.000498148
0.000471495
0.000471495
0.000469878
0.000464201
0.000434311
0.000462607
0.000462607
0.000435928
0.000435928
0.000464201
0.000434311
0.000462607
0.000462607
0.000435928
0.000435928
0.000462607
0.000435928
0.000435928
0.000464201
0.000434311
0.000462607
0.000435928
0.000435928
0.000434311
0.000428628
0.000398708
0.000427031
0.000427031
0.000400325
0.000400325
0.000428628
0.000398708
0.000427031
0.000427031
0.000400325
0.000400326
0.000427031
0.000400325
0.000400326
0.000428628
0.000398708
0.000427031
0.000400325
0.000400325
0.000398707
0.00039302
0.000363069
0.00039142
0.00039142
0.000364687
0.000364687
0.00039302
0.000363069
0.00039142
0.00039142
0.000364687
0.000364688
0.00039142
0.000364687
0.000364687
0.00039302
0.000363069
0.00039142
0.000364687
0.000364687
0.000363069
0.000357376
0.000327394
0.000355773
0.000355773
0.000329013
0.000329013
0.000357376
0.000327394
0.000355773
0.000355773
0.000329013
0.000329013
0.000355773
0.000329013
0.000329013
0.000357376
0.000327394
0.000355773
0.000329013
0.000329013
0.000327394
0.000321696
0.000291683
0.000320091
0.000320091
0.000293303
0.000293303
0.000321696
0.000291683
0.000320091
0.000320091
0.000293303
0.000293303
0.000320091
0.000293303
0.000293303
0.000321696
0.000291683
0.000320091
0.000293303
0.000293303
0.000291683
0.00028598
0.000255936
0.000284372
0.000284372
0.000257556
0.000257556
0.000285979
0.000255936
0.000284372
0.000284372
0.000257556
0.000257556
0.000284372
0.000257556
0.000257556
0.00028598
0.000255936
0.000284372
0.000257556
0.000257556
0.000255935
0.000250227
0.000220153
0.000248617
0.000248617
0.000221773
0.000221773
0.000250226
0.000220153
0.000248617
0.000248617
0.000221773
0.000221773
0.000248617
0.000221773
0.000221773
0.000250227
0.000220152
0.000248617
0.000221773
0.000221773
0.000220152
0.000214437
0.000184333
0.000212826
0.000212826
0.000185953
0.000185953
0.000214437
0.000184334
0.000212826
0.000212826
0.000185953
0.000185953
0.000212826
0.000185953
0.000185953
0.000214437
0.000184333
0.000212826
0.000185953
0.000185953
0.000184333
0.00017861
0.000148478
0.000176999
0.000176999
0.000150095
0.000150095
0.00017861
0.000148478
0.000176999
0.000176999
0.000150095
0.000150095
0.000176999
0.000150095
0.000150095
0.00017861
0.000148477
0.000176999
0.000150095
0.000150095
0.000148477
0.000142743
0.000112582
0.000141135
0.000141135
0.000114196
0.000114197
0.000142742
0.000112583
0.000141135
0.000141135
0.000114196
0.000114196
0.000141135
0.000114196
0.000114196
0.000142743
0.000112582
0.000141135
0.000114196
0.000114196
0.000112582
0.000106826
7.66455e-05
0.000105231
0.000105232
7.82528e-05
7.8253e-05
0.000106826
7.66462e-05
0.000105231
0.000105231
7.82526e-05
7.82518e-05
0.000105231
7.8253e-05
7.8252e-05
0.000106826
7.66442e-05
0.000105231
7.82519e-05
7.82521e-05
7.66445e-05
7.08375e-05
4.06728e-05
6.92877e-05
6.92877e-05
4.23098e-05
4.23107e-05
7.08375e-05
4.06753e-05
6.92872e-05
6.92861e-05
4.23081e-05
4.23062e-05
6.92867e-05
4.23097e-05
4.23066e-05
7.08366e-05
4.06698e-05
6.92867e-05
4.23062e-05
4.23055e-05
4.06697e-05
3.47096e-05
8.49883e-06
3.34574e-05
3.34579e-05
1.09462e-05
1.09483e-05
3.47105e-05
8.50226e-06
3.34551e-05
3.34523e-05
1.0946e-05
1.09399e-05
3.34525e-05
1.0947e-05
1.09387e-05
3.47058e-05
8.49401e-06
3.34512e-05
1.0941e-05
1.09419e-05
8.49417e-06
5.75567e-06
7.84805e-06
7.84927e-06
5.75792e-06
7.84861e-06
7.8428e-06
6.82614e-06
6.8236e-06
6.82265e-06
7.84134e-06
5.75343e-06
7.84376e-06
0.000735065
0.000735066
0.000735066
0.000735064
0.000735067
0.000719614
0.000719614
0.000719614
0.000719614
0.000735147
0.000737227
0.000735102
0.000737248
0.000735065
0.000735147
0.000737227
0.000737248
0.000735102
0.000735616
0.00073506
0.00073506
0.000699729
0.00071287
0.000712857
0.000699731
0.000712877
0.00069973
0.000699728
0.00071287
0.000712858
0.000699731
0.000710778
0.000710778
0.000710778
0.000684261
0.000684261
0.000684261
0.000684261
0.00069981
0.000712822
0.000710746
0.00070189
0.000712773
0.000699766
0.000701909
0.000712877
0.00069973
0.00069981
0.000710746
0.000712823
0.00070189
0.000712773
0.000701909
0.000699766
0.000712869
0.00071287
0.000700278
0.000699724
0.000699724
0.000664367
0.000677519
0.000677506
0.000664369
0.000677526
0.000664369
0.000664367
0.000677518
0.000677506
0.00066437
0.000675419
0.000675419
0.000675419
0.000648882
0.000648882
0.000648882
0.000648882
0.000664447
0.000677471
0.000675388
0.000666527
0.000677421
0.000664404
0.000666545
0.000677526
0.000664368
0.000664447
0.000675388
0.000677471
0.000666527
0.000677421
0.000666545
0.000664404
0.000677518
0.000677518
0.000664914
0.000664363
0.000664363
0.000628978
0.00064214
0.000642127
0.00062898
0.000642147
0.000628979
0.000628977
0.00064214
0.000642127
0.00062898
0.000640033
0.000640033
0.000640033
0.000613474
0.000613474
0.000613474
0.000613474
0.000629057
0.000642092
0.000640003
0.000631136
0.000642042
0.000629015
0.000631153
0.000642147
0.000628979
0.000629057
0.000640004
0.000642092
0.000631136
0.000642041
0.000631153
0.000629014
0.000642139
0.000642139
0.000629523
0.000628974
0.000628973
0.000593559
0.000606732
0.000606719
0.000593561
0.00060674
0.00059356
0.000593558
0.000606732
0.00060672
0.000593561
0.000604617
0.000604617
0.000604617
0.000578036
0.000578036
0.000578036
0.000578036
0.000593637
0.000606684
0.00060459
0.000595716
0.000606633
0.000593596
0.000595732
0.000606739
0.00059356
0.000593637
0.00060459
0.000606684
0.000595716
0.000606633
0.000595732
0.000593595
0.000606732
0.000606732
0.000594102
0.000593555
0.000593555
0.000558108
0.000571294
0.000571281
0.000558111
0.000571301
0.00055811
0.000558108
0.000571294
0.000571281
0.000558111
0.000569171
0.000569171
0.000569171
0.000542566
0.000542566
0.000542566
0.000542566
0.000558186
0.000571245
0.000569145
0.000560265
0.000571194
0.000558145
0.000560279
0.000571301
0.00055811
0.000558186
0.000569145
0.000571246
0.000560265
0.000571194
0.000560279
0.000558145
0.000571293
0.000571293
0.00055865
0.000558104
0.000558104
0.000522626
0.000535824
0.00053581
0.000522629
0.000535831
0.000522628
0.000522625
0.000535824
0.000535811
0.000522629
0.000533694
0.000533694
0.000533694
0.000507064
0.000507064
0.000507064
0.000507064
0.000522702
0.000535775
0.000533669
0.000524781
0.000535723
0.000522662
0.000524795
0.000535831
0.000522628
0.000522702
0.000533669
0.000535775
0.000524781
0.000535723
0.000524795
0.000522662
0.000535823
0.000535823
0.000523166
0.000522622
0.000522622
0.00048711
0.000500321
0.000500307
0.000487113
0.000500328
0.000487113
0.00048711
0.000500321
0.000500308
0.000487114
0.000498183
0.000498183
0.000498184
0.000471529
0.000471529
0.000471529
0.000471529
0.000487186
0.000500272
0.000498161
0.000489265
0.00050022
0.000487147
0.000489278
0.000500328
0.000487112
0.000487186
0.000498161
0.000500272
0.000489265
0.00050022
0.000489278
0.000487146
0.00050032
0.00050032
0.000487649
0.000487107
0.000487107
0.000451561
0.000464784
0.000464771
0.000451564
0.000464791
0.000451563
0.00045156
0.000464784
0.000464771
0.000451564
0.00046264
0.00046264
0.00046264
0.000435959
0.00043596
0.000435959
0.00043596
0.000451636
0.000464735
0.000462618
0.000453716
0.000464683
0.000451598
0.000453727
0.000464791
0.000451563
0.000451636
0.000462618
0.000464735
0.000453716
0.000464683
0.000453727
0.000451597
0.000464784
0.000464784
0.000452099
0.000451557
0.000451557
0.000415977
0.000429213
0.000429199
0.00041598
0.00042922
0.000415979
0.000415976
0.000429213
0.0004292
0.00041598
0.000427062
0.000427062
0.000427062
0.000400355
0.000400355
0.000400355
0.000400355
0.000416051
0.000429164
0.000427042
0.000418131
0.000429111
0.000416013
0.000418142
0.00042922
0.000415979
0.000416051
0.000427042
0.000429164
0.000418131
0.000429111
0.000418142
0.000416013
0.000429212
0.000429213
0.000416513
0.000415973
0.000415973
0.000380357
0.000393606
0.000393593
0.00038036
0.000393613
0.000380359
0.000380356
0.000393606
0.000393593
0.00038036
0.000391449
0.000391449
0.000391449
0.000364715
0.000364715
0.000364715
0.000364715
0.000380431
0.000393557
0.00039143
0.000382511
0.000393504
0.000380393
0.000382521
0.000393613
0.000380359
0.000380431
0.00039143
0.000393557
0.000382511
0.000393504
0.000382521
0.000380393
0.000393606
0.000393606
0.000380893
0.000380353
0.000380353
0.000344701
0.000357963
0.00035795
0.000344704
0.000357971
0.000344703
0.000344701
0.000357963
0.00035795
0.000344704
0.0003558
0.0003558
0.0003558
0.000329039
0.000329039
0.000329039
0.000329039
0.000344775
0.000357914
0.000355782
0.000346855
0.000357861
0.000344737
0.000346864
0.000357971
0.000344703
0.000344775
0.000355782
0.000357914
0.000346855
0.000357861
0.000346864
0.000344737
0.000357963
0.000357963
0.000345236
0.000344698
0.000344697
0.000309009
0.000322284
0.000322271
0.000309012
0.000322291
0.000309011
0.000309008
0.000322284
0.000322271
0.000309012
0.000320115
0.000320115
0.000320115
0.000293327
0.000293327
0.000293326
0.000293326
0.000309082
0.000322235
0.000320099
0.000311163
0.000322181
0.000309045
0.000311171
0.000322291
0.000309011
0.000309082
0.000320099
0.000322235
0.000311163
0.000322181
0.000311171
0.000309045
0.000322284
0.000322284
0.000309543
0.000309006
0.000309005
0.000273281
0.000286568
0.000286555
0.000273284
0.000286576
0.000273282
0.00027328
0.000286568
0.000286556
0.000273284
0.000284394
0.000284394
0.000284394
0.000257578
0.000257578
0.000257578
0.000257578
0.000273354
0.000286519
0.000284379
0.000275434
0.000286466
0.000273317
0.000275441
0.000286576
0.000273282
0.000273354
0.000284379
0.000286519
0.000275434
0.000286465
0.000275441
0.000273317
0.000286568
0.000286568
0.000273814
0.000273278
0.000273278
0.000237516
0.000250816
0.000250803
0.00023752
0.000250824
0.000237517
0.000237516
0.000250816
0.000250803
0.00023752
0.000248637
0.000248637
0.000248637
0.000221793
0.000221793
0.000221793
0.000221793
0.00023759
0.000250766
0.000248623
0.000239669
0.000250713
0.000237554
0.000239676
0.000250824
0.000237517
0.00023759
0.000248623
0.000250767
0.000239669
0.000250713
0.000239676
0.000237553
0.000250816
0.000250816
0.000238048
0.000237514
0.000237514
0.000201716
0.000215026
0.000215014
0.00020172
0.000215035
0.000201716
0.000201715
0.000215026
0.000215015
0.00020172
0.000212844
0.000212844
0.000212844
0.000185972
0.000185972
0.000185972
0.000185972
0.00020179
0.000214976
0.000212831
0.000203867
0.000214924
0.000201754
0.000203874
0.000215035
0.000201716
0.00020179
0.000212831
0.000214976
0.000203868
0.000214924
0.000203874
0.000201754
0.000215026
0.000215026
0.000202247
0.000201714
0.000201714
0.000165877
0.000179198
0.000179188
0.000165884
0.000179209
0.000165877
0.000165877
0.000179198
0.000179188
0.000165884
0.000177015
0.000177015
0.000177015
0.000150114
0.000150114
0.000150113
0.000150113
0.000165954
0.000179147
0.000177004
0.000168029
0.000179097
0.00016592
0.000168034
0.000179209
0.000165877
0.000165954
0.000177004
0.000179148
0.000168029
0.000179097
0.000168034
0.000165919
0.000179199
0.000179199
0.00016641
0.000165878
0.000165878
0.000129998
0.000143328
0.000143323
0.00013001
0.000143346
0.000129996
0.000129998
0.000143328
0.000143324
0.00013001
0.000141149
0.000141148
0.000141148
0.000114214
0.000114214
0.000114214
0.000114214
0.000130081
0.000143276
0.000141139
0.000132151
0.00014323
0.00013005
0.000132156
0.000143346
0.000129996
0.00013008
0.000141139
0.000143277
0.000132151
0.00014323
0.000132156
0.000130049
0.000143331
0.000143331
0.000130535
0.000130003
0.000130003
9.4071e-05
0.000107413
0.000107418
9.4098e-05
0.000107447
9.40538e-05
9.40701e-05
0.000107412
0.000107418
9.40974e-05
0.000105242
0.000105241
0.000105241
7.82727e-05
7.82728e-05
7.82719e-05
7.82721e-05
9.41685e-05
0.000107354
0.000105235
9.62304e-05
0.000107321
9.41484e-05
9.62346e-05
0.000107446
9.40527e-05
9.41679e-05
0.000105234
0.000107354
9.62298e-05
0.000107321
9.62341e-05
9.41472e-05
0.000107419
0.000107419
9.46184e-05
9.40805e-05
9.408e-05
5.80772e-05
7.14327e-05
7.1459e-05
5.81174e-05
7.1532e-05
5.7971e-05
5.80751e-05
7.14327e-05
7.14582e-05
5.81162e-05
6.93043e-05
6.9303e-05
6.93034e-05
4.25206e-05
4.25215e-05
4.25184e-05
4.25182e-05
5.82036e-05
7.13537e-05
6.92931e-05
6.02677e-05
7.13544e-05
5.82022e-05
6.02817e-05
7.15244e-05
5.79676e-05
5.82014e-05
6.92917e-05
7.13514e-05
6.02654e-05
7.13533e-05
6.02801e-05
5.81998e-05
7.14386e-05
7.14363e-05
5.86573e-05
5.81106e-05
5.81086e-05
2.15715e-05
3.51777e-05
3.52716e-05
2.11775e-05
3.56035e-05
2.00922e-05
2.15588e-05
3.51702e-05
3.52659e-05
2.11719e-05
3.39094e-05
3.39049e-05
3.39049e-05
1.21193e-05
1.21198e-05
1.21147e-05
1.2114e-05
2.20978e-05
3.50353e-05
3.37027e-05
2.47503e-05
3.52307e-05
2.16461e-05
2.52498e-05
3.5587e-05
2.00982e-05
2.20978e-05
3.36998e-05
3.5029e-05
2.47456e-05
3.52294e-05
2.5246e-05
2.16432e-05
3.50696e-05
3.50695e-05
2.2911e-05
2.14643e-05
2.14627e-05
6.9865e-07
3.28232e-06
3.62976e-06
2.55328e-06
5.62347e-06
-1.87474e-06
7.03885e-07
3.25007e-06
3.60943e-06
2.55684e-06
1.95946e-06
7.70919e-06
7.70803e-06
7.73498e-06
8.01443e-06
4.39676e-06
4.39728e-06
2.96655e-06
2.65821e-06
7.22177e-06
2.45617e-06
5.31233e-06
6.76738e-06
-6.481e-08
5.60539e-06
-1.86457e-06
2.97135e-06
7.22017e-06
2.65261e-06
2.4553e-06
5.30916e-06
-6.39869e-08
6.77081e-06
-3.54295e-07
-3.56921e-07
1.60418e-06
6.52371e-06
6.53685e-06
0.000735065
0.000735065
0.000735616
0.00073506
0.00073506
0.000717401
0.000730543
0.000717401
0.000730543
0.00072997
0.000717395
0.000717395
0.000730536
0.000730536
0.000735065
0.000735067
0.000735147
0.000737227
0.000735102
0.000737248
0.000735147
0.000737227
0.000735102
0.000737248
0.000730524
0.000717402
0.000730536
0.0007174
0.000730524
0.000717402
0.000730536
0.0007174
0.00073044
0.000728395
0.000717437
0.000719581
0.000730489
0.000728415
0.000717481
0.00073044
0.000728395
0.000717437
0.000719581
0.000730489
0.000728415
0.000717481
0.000735616
0.00073506
0.000735061
0.000735065
0.000717401
0.000730543
0.00072997
0.000717395
0.000717396
0.000730536
0.000730535
0.000717401
0.000730543
0.000735147
0.000737227
0.000735102
0.000737248
0.000735064
0.000735067
0.000735147
0.000737227
0.000737248
0.000735102
0.000730524
0.000717402
0.000730536
0.000717399
0.00073044
0.000728395
0.000717437
0.000719581
0.000730488
0.000728415
0.000717481
0.000730524
0.000717402
0.000730536
0.000717399
0.00073044
0.000728395
0.000719581
0.000717437
0.000728415
0.000730488
0.000717481
0.000735064
0.000735067
0.000735146
0.000737227
0.000737248
0.000735102
0.000735064
0.000735066
0.00073044
0.000728395
0.000717437
0.000719581
0.000730488
0.000728415
0.000717482
0.000730524
0.000717402
0.000730536
0.0007174
0.00073044
0.000728395
0.000719581
0.000717437
0.000728415
0.000730489
0.000717481
0.000730523
0.000717402
0.000730536
0.0007174
0.000735616
0.00073506
0.00073506
0.000735066
0.000717401
0.000730543
0.00072997
0.000717396
0.000717395
0.000730535
0.000730536
0.000717401
0.000730543
0.000735147
0.000737227
0.000737248
0.000735102
0.000735066
0.000735067
0.000735065
0.000735067
0.00073044
0.000728395
0.000719581
0.000717437
0.000728415
0.000730489
0.000717482
0.00073044
0.000728395
0.000719581
0.000717437
0.000728415
0.000730489
0.000717481
0.000730523
0.000717402
0.000730536
0.0007174
0.000730524
0.000717402
0.000730536
0.0007174
0.000735065
0.000735066
0.00072997
0.000717395
0.000717395
0.000730536
0.000730536
0.000717401
0.000730543
0.000717401
0.000730543
0.000712877
0.00069973
0.000712877
0.00069973
0.00071287
0.000712869
0.000700278
0.000699724
0.000699724
0.000682052
0.000695205
0.000682052
0.000695205
0.000694629
0.000682047
0.000682047
0.000695197
0.000695197
0.000699729
0.00071287
0.000712857
0.000699731
0.00069981
0.000712822
0.000710746
0.00070189
0.000712773
0.000699766
0.000701909
0.00069981
0.000712822
0.000710746
0.00070189
0.000712773
0.000699766
0.000701909
0.000695185
0.000682053
0.000695197
0.000682051
0.000695185
0.000682054
0.000695197
0.000682051
0.0006951
0.000693052
0.000682088
0.00068423
0.00069515
0.000693071
0.000682132
0.000695101
0.000693052
0.000682088
0.00068423
0.00069515
0.00069307
0.000682132
0.000712869
0.000712869
0.000700278
0.000699724
0.000699725
0.000712877
0.00069973
0.000682053
0.000695205
0.000694628
0.000682047
0.000682048
0.000695197
0.000695197
0.000682053
0.000695205
0.00069981
0.000712822
0.000710746
0.00070189
0.000712773
0.000699766
0.000701909
0.000699728
0.00071287
0.000712858
0.000699731
0.00069981
0.000710746
0.000712822
0.00070189
0.000712773
0.000701909
0.000699766
0.000695185
0.000682054
0.000695197
0.000682051
0.000695101
0.000693052
0.000682088
0.00068423
0.00069515
0.000693071
0.000682132
0.000695185
0.000682054
0.000695197
0.000682051
0.000695101
0.000693052
0.00068423
0.000682089
0.00069307
0.000695149
0.000682132
0.000699729
0.00071287
0.000712857
0.000699731
0.00069981
0.000710746
0.000712822
0.00070189
0.000712773
0.000701909
0.000699766
0.000699729
0.00071287
0.000712857
0.000699731
0.000695101
0.000693052
0.000682089
0.00068423
0.00069515
0.00069307
0.000682132
0.000695185
0.000682054
0.000695197
0.000682051
0.000695101
0.000693052
0.00068423
0.000682088
0.00069307
0.00069515
0.000682132
0.000695185
0.000682054
0.000695198
0.000682051
0.000712869
0.00071287
0.000700278
0.000699725
0.000699724
0.000712877
0.00069973
0.000682052
0.000695205
0.000694629
0.000682047
0.000682047
0.000695196
0.000695197
0.000682053
0.000695205
0.00069981
0.000710746
0.000712822
0.00070189
0.000712773
0.000701909
0.000699766
0.000699729
0.00071287
0.000712857
0.000699731
0.000699729
0.00071287
0.000712857
0.000699731
0.0006951
0.000693052
0.00068423
0.000682088
0.000693071
0.00069515
0.000682132
0.000695101
0.000693052
0.00068423
0.000682088
0.00069307
0.00069515
0.000682132
0.000695184
0.000682054
0.000695198
0.000682052
0.000695185
0.000682054
0.000695198
0.000682052
0.000712877
0.00069973
0.000712877
0.00069973
0.000694629
0.000682047
0.000682047
0.000695197
0.000695197
0.000682053
0.000695205
0.000682053
0.000695205
0.000677526
0.000664368
0.000677526
0.000664368
0.000677518
0.000677518
0.000664914
0.000664363
0.000664363
0.000646677
0.00065984
0.000646677
0.00065984
0.000659261
0.000646671
0.000646672
0.000659832
0.000659832
0.000664367
0.000677519
0.000677506
0.00066437
0.000664447
0.000677471
0.000675388
0.000666527
0.000677421
0.000664404
0.000666545
0.000664447
0.000677471
0.000675388
0.000666527
0.000677421
0.000664404
0.000666545
0.00065982
0.000646678
0.000659833
0.000646676
0.00065982
0.000646678
0.000659833
0.000646676
0.000659735
0.000657682
0.000646712
0.000648852
0.000659785
0.000657699
0.000646756
0.000659735
0.000657682
0.000646713
0.000648852
0.000659785
0.000657699
0.000646756
0.000677518
0.000677518
0.000664915
0.000664363
0.000664363
0.000677526
0.000664369
0.000646677
0.00065984
0.000659261
0.000646672
0.000646672
0.000659832
0.000659832
0.000646677
0.00065984
0.000664447
0.00067747
0.000675388
0.000666527
0.000677421
0.000664404
0.000666545
0.000664367
0.000677518
0.000677506
0.00066437
0.000664447
0.000675388
0.00067747
0.000666527
0.000677421
0.000666545
0.000664404
0.00065982
0.000646679
0.000659833
0.000646676
0.000659735
0.000657682
0.000646713
0.000648852
0.000659785
0.0006577
0.000646755
0.00065982
0.000646679
0.000659832
0.000646676
0.000659735
0.000657682
0.000648852
0.000646713
0.000657699
0.000659784
0.000646755
0.000664367
0.000677519
0.000677506
0.00066437
0.000664447
0.000675388
0.000677471
0.000666527
0.000677421
0.000666545
0.000664404
0.000664367
0.000677519
0.000677506
0.00066437
0.000659735
0.000657682
0.000646713
0.000648852
0.000659784
0.000657699
0.000646756
0.00065982
0.000646679
0.000659833
0.000646676
0.000659735
0.000657682
0.000648852
0.000646713
0.000657699
0.000659785
0.000646756
0.00065982
0.000646678
0.000659833
0.000646676
0.000677517
0.000677518
0.000664914
0.000664363
0.000664363
0.000677526
0.000664369
0.000646677
0.00065984
0.000659261
0.000646672
0.000646672
0.000659832
0.000659832
0.000646678
0.00065984
0.000664447
0.000675388
0.000677471
0.000666527
0.000677421
0.000666545
0.000664404
0.000664368
0.000677519
0.000677505
0.00066437
0.000664368
0.000677519
0.000677506
0.00066437
0.000659735
0.000657682
0.000648852
0.000646713
0.000657699
0.000659785
0.000646756
0.000659735
0.000657682
0.000648852
0.000646713
0.000657699
0.000659785
0.000646756
0.000659819
0.000646679
0.000659833
0.000646677
0.00065982
0.000646679
0.000659833
0.000646677
0.000677526
0.000664369
0.000677526
0.000664369
0.000659261
0.000646672
0.000646672
0.000659832
0.000659832
0.000646677
0.00065984
0.000646678
0.00065984
0.000642147
0.000628979
0.000642147
0.000628979
0.000642139
0.000642139
0.000629523
0.000628973
0.000628973
0.000611274
0.000624447
0.000611274
0.000624447
0.000623866
0.000611268
0.000611268
0.000624439
0.000624439
0.000628978
0.00064214
0.000642127
0.00062898
0.000629057
0.000642092
0.000640004
0.000631136
0.000642042
0.000629014
0.000631153
0.000629057
0.000642092
0.000640004
0.000631136
0.000642042
0.000629014
0.000631153
0.000624427
0.000611275
0.00062444
0.000611272
0.000624427
0.000611275
0.00062444
0.000611272
0.000624341
0.000622284
0.000611308
0.000613446
0.000624392
0.0006223
0.000611351
0.000624341
0.000622284
0.000611309
0.000613446
0.000624392
0.0006223
0.000611351
0.000642139
0.000642139
0.000629523
0.000628974
0.000628974
0.000642147
0.000628979
0.000611274
0.000624447
0.000623866
0.000611268
0.000611268
0.000624439
0.000624439
0.000611274
0.000624447
0.000629056
0.000642092
0.000640004
0.000631136
0.000642042
0.000629015
0.000631153
0.000628977
0.00064214
0.000642127
0.00062898
0.000629056
0.000640004
0.000642091
0.000631136
0.000642042
0.000631153
0.000629015
0.000624427
0.000611275
0.00062444
0.000611272
0.000624341
0.000622284
0.000611309
0.000613446
0.000624391
0.0006223
0.00061135
0.000624427
0.000611275
0.00062444
0.000611272
0.000624341
0.000622284
0.000613446
0.000611309
0.0006223
0.000624391
0.00061135
0.000628978
0.00064214
0.000642127
0.00062898
0.000629057
0.000640004
0.000642092
0.000631136
0.000642042
0.000631153
0.000629014
0.000628977
0.00064214
0.000642127
0.00062898
0.000624341
0.000622284
0.000611309
0.000613446
0.000624391
0.0006223
0.000611351
0.000624427
0.000611275
0.00062444
0.000611272
0.000624341
0.000622284
0.000613446
0.000611309
0.0006223
0.000624392
0.00061135
0.000624427
0.000611275
0.00062444
0.000611272
0.000642139
0.00064214
0.000629523
0.000628974
0.000628973
0.000642147
0.000628979
0.000611274
0.000624447
0.000623866
0.000611268
0.000611268
0.000624439
0.000624439
0.000611274
0.000624447
0.000629057
0.000640003
0.000642092
0.000631136
0.000642042
0.000631153
0.000629015
0.000628978
0.00064214
0.000642127
0.00062898
0.000628978
0.00064214
0.000642127
0.00062898
0.000624341
0.000622284
0.000613446
0.000611309
0.0006223
0.000624392
0.000611351
0.000624341
0.000622284
0.000613446
0.000611309
0.0006223
0.000624392
0.000611351
0.000624426
0.000611275
0.00062444
0.000611272
0.000624426
0.000611275
0.00062444
0.000611273
0.000642147
0.000628979
0.000642147
0.000628979
0.000623866
0.000611268
0.000611268
0.000624439
0.000624439
0.000611274
0.000624447
0.000611274
0.000624447
0.00060674
0.00059356
0.00060674
0.00059356
0.000606732
0.000606732
0.000594102
0.000593554
0.000593554
0.000575839
0.000589024
0.000575839
0.000589024
0.000588441
0.000575833
0.000575833
0.000589017
0.000589017
0.000593559
0.000606732
0.000606719
0.000593561
0.000593637
0.000606684
0.00060459
0.000595716
0.000606633
0.000593595
0.000595732
0.000593637
0.000606684
0.00060459
0.000595716
0.000606633
0.000593595
0.000595732
0.000589004
0.00057584
0.000589017
0.000575838
0.000589004
0.00057584
0.000589017
0.000575837
0.000588918
0.000586856
0.000575874
0.000578009
0.000588969
0.000586872
0.000575915
0.000588918
0.000586856
0.000575874
0.000578009
0.000588969
0.000586872
0.000575915
0.000606732
0.000606731
0.000594103
0.000593555
0.000593555
0.00060674
0.00059356
0.000575839
0.000589024
0.000588441
0.000575834
0.000575834
0.000589016
0.000589016
0.000575839
0.000589025
0.000593636
0.000606684
0.00060459
0.000595716
0.000606633
0.000593595
0.000595731
0.000593558
0.000606732
0.00060672
0.000593562
0.000593637
0.00060459
0.000606684
0.000595716
0.000606633
0.000595732
0.000593596
0.000589004
0.00057584
0.000589017
0.000575837
0.000588918
0.000586856
0.000575874
0.000578009
0.000588968
0.000586872
0.000575915
0.000589004
0.00057584
0.000589017
0.000575837
0.000588918
0.000586856
0.000578009
0.000575874
0.000586872
0.000588968
0.000575915
0.000593559
0.000606732
0.000606719
0.000593562
0.000593637
0.00060459
0.000606684
0.000595716
0.000606633
0.000595732
0.000593595
0.000593559
0.000606732
0.000606719
0.000593561
0.000588918
0.000586856
0.000575874
0.000578009
0.000588968
0.000586872
0.000575915
0.000589004
0.000575841
0.000589017
0.000575837
0.000588918
0.000586856
0.000578009
0.000575874
0.000586872
0.000588969
0.000575915
0.000589004
0.00057584
0.000589017
0.000575837
0.000606731
0.000606732
0.000594102
0.000593555
0.000593554
0.00060674
0.00059356
0.000575839
0.000589024
0.000588441
0.000575834
0.000575833
0.000589016
0.000589017
0.000575839
0.000589024
0.000593637
0.00060459
0.000606684
0.000595716
0.000606633
0.000595732
0.000593595
0.000593559
0.000606732
0.000606719
0.000593561
0.000593559
0.000606732
0.000606719
0.000593562
0.000588918
0.000586856
0.000578009
0.000575874
0.000586872
0.000588969
0.000575915
0.000588918
0.000586856
0.000578009
0.000575874
0.000586872
0.000588969
0.000575915
0.000589003
0.00057584
0.000589017
0.000575838
0.000589003
0.00057584
0.000589017
0.000575838
0.00060674
0.00059356
0.00060674
0.000593561
0.000588441
0.000575833
0.000575833
0.000589017
0.000589017
0.000575839
0.000589024
0.000575839
0.000589024
0.000571301
0.00055811
0.000571301
0.00055811
0.000571294
0.000571293
0.00055865
0.000558104
0.000558104
0.000540373
0.00055357
0.000540373
0.00055357
0.000552985
0.000540367
0.000540367
0.000553562
0.000553562
0.000558108
0.000571294
0.000571281
0.000558111
0.000558186
0.000571246
0.000569145
0.000560265
0.000571194
0.000558145
0.000560279
0.000558186
0.000571246
0.000569145
0.000560265
0.000571194
0.000558145
0.000560279
0.00055355
0.000540374
0.000553563
0.000540371
0.00055355
0.000540374
0.000553563
0.000540371
0.000553463
0.000551397
0.000540407
0.000542541
0.000553515
0.000551411
0.000540448
0.000553463
0.000551397
0.000540408
0.000542541
0.000553514
0.000551411
0.000540448
0.000571293
0.000571293
0.000558651
0.000558105
0.000558105
0.000571301
0.00055811
0.000540373