/*--------------------------------*- C++ -*----------------------------------*\
| =========                 |                                                 |
| \\      /  F ield         | OpenFOAM: The Open Source CFD Toolbox           |
|  \\    /   O peration     | Version:  v1906                                 |
|   \\  /    A nd           | Web:      www.OpenFOAM.com                      |
|    \\/     M anipulation  |                                                 |
\*---------------------------------------------------------------------------*/
FoamFile
{
    version     2.0;
    format      ascii;
    class       surfaceScalarField;
    location    "1000";
    object      phi;
}
// * * * * * * * * * * * * * * * * * * * * * * * * * * * * * * * * * * * * * //

dimensions      [0 3 -1 0 0 0 0];
oriented        oriented;


internalField   nonuniform List<scalar> 
124908
(
1.24175e-07
1.24472e-07
-0.00118365
-7.71092e-08
-7.71299e-08
0.00118356
-0.00113214
-1.19625e-06
-1.24466e-07
-5.06544e-08
0.00113212
-2.33904e-07
1.241e-06
2.71874e-07
9.11151e-07
-2.12216e-07
-8.52347e-07
2.66246e-07
-0.00113178
-1.19081e-06
-1.2455e-07
-5.05941e-08
0.00113176
-2.33922e-07
1.23551e-06
2.7189e-07
9.11001e-07
-2.14897e-07
-8.52206e-07
2.68983e-07
-0.000270098
1.2249e-06
1.19092e-06
-1.97963e-07
-2.03282e-07
0.000268083
1.25771e-07
1.26044e-07
-0.00118328
-7.93588e-08
-7.94271e-08
0.00118319
-0.00113206
-1.19606e-06
-1.26056e-07
-5.13194e-08
0.00113204
-2.33821e-07
1.24082e-06
2.71693e-07
9.11014e-07
-2.12144e-07
-8.52202e-07
2.6607e-07
-0.0011317
-1.19061e-06
-1.26131e-07
-5.12524e-08
0.00113168
-2.33829e-07
1.23534e-06
2.71716e-07
9.10865e-07
-2.14839e-07
-8.52073e-07
2.68788e-07
-0.000270108
1.2247e-06
1.19072e-06
-1.97914e-07
-2.03236e-07
0.000268094
1.26848e-07
1.27092e-07
-0.00118291
-8.1146e-08
-8.12489e-08
0.00118282
-0.00113199
-1.19596e-06
-1.2712e-07
-5.17915e-08
0.00113198
-2.33809e-07
1.24062e-06
2.71489e-07
9.1084e-07
-2.12186e-07
-8.52185e-07
2.65836e-07
-0.00113163
-1.1905e-06
-1.27175e-07
-5.17203e-08
0.00113161
-2.33819e-07
1.23514e-06
2.7151e-07
9.10683e-07
-2.14893e-07
-8.52065e-07
2.68552e-07
-0.000270121
1.2246e-06
1.19061e-06
-1.97935e-07
-2.03263e-07
0.000268107
1.27416e-07
1.27652e-07
-0.00118255
-8.24848e-08
-8.26125e-08
0.00118246
-0.00113193
-1.19594e-06
-1.27687e-07
-5.20609e-08
0.00113192
-2.33868e-07
1.2404e-06
2.71256e-07
9.10609e-07
-2.12324e-07
-8.52284e-07
2.65548e-07
-0.00113157
-1.19049e-06
-1.27719e-07
-5.19825e-08
0.00113156
-2.33878e-07
1.23492e-06
2.71277e-07
9.10448e-07
-2.15032e-07
-8.52168e-07
2.68263e-07
-0.000270136
1.22458e-06
1.1906e-06
-1.98021e-07
-2.03346e-07
0.000268122
1.27506e-07
1.27741e-07
-0.00118219
-8.33972e-08
-8.354e-08
0.0011821
-0.00113188
-1.19601e-06
-1.27779e-07
-5.21399e-08
0.00113187
-2.33993e-07
1.24014e-06
2.70997e-07
9.10326e-07
-2.12555e-07
-8.52493e-07
2.65212e-07
-0.00113152
-1.19056e-06
-1.27802e-07
-5.20551e-08
0.00113151
-2.34005e-07
1.23466e-06
2.71017e-07
9.10167e-07
-2.15263e-07
-8.52363e-07
2.67927e-07
-0.000270152
1.22464e-06
1.19067e-06
-1.98172e-07
-2.03492e-07
0.000268138
1.27141e-07
1.27382e-07
-0.00118184
-8.39103e-08
-8.406e-08
0.00118175
-0.00113184
-1.19616e-06
-1.27418e-07
-5.20146e-08
0.00113183
-2.34186e-07
1.23987e-06
2.70712e-07
9.0999e-07
-2.12877e-07
-8.52801e-07
2.64826e-07
-0.00113147
-1.1907e-06
-1.27431e-07
-5.19366e-08
0.00113146
-2.34196e-07
1.23438e-06
2.70733e-07
9.09833e-07
-2.15581e-07
-8.52688e-07
2.67544e-07
-0.00027017
1.22479e-06
1.19082e-06
-1.98382e-07
-2.03695e-07
0.000268156
1.26381e-07
1.2663e-07
-0.00118149
-8.40692e-08
-8.42201e-08
0.00118141
-0.0011318
-1.19638e-06
-1.26657e-07
-5.17265e-08
0.00113179
-2.34439e-07
1.23957e-06
2.70404e-07
9.09615e-07
-2.13282e-07
-8.53215e-07
2.64397e-07
-0.00113143
-1.19093e-06
-1.26671e-07
-5.16617e-08
0.00113143
-2.34452e-07
1.23408e-06
2.70422e-07
9.09457e-07
-2.15988e-07
-8.53093e-07
2.67115e-07
-0.000270189
1.22502e-06
1.19105e-06
-1.98648e-07
-2.03956e-07
0.000268175
1.25237e-07
1.25493e-07
-0.00118116
-8.38895e-08
-8.40331e-08
0.00118108
-0.00113177
-1.19668e-06
-1.2551e-07
-5.12785e-08
0.00113176
-2.34751e-07
1.23924e-06
2.7007e-07
9.09187e-07
-2.13768e-07
-8.53715e-07
2.63921e-07
-0.0011314
-1.19124e-06
-1.25523e-07
-5.12113e-08
0.0011314
-2.34769e-07
1.23375e-06
2.70083e-07
9.0903e-07
-2.16475e-07
-8.53593e-07
2.6664e-07
-0.000270209
1.22532e-06
1.19136e-06
-1.98968e-07
-2.04272e-07
0.000268196
1.23749e-07
1.24012e-07
-0.00118083
-8.33996e-08
-8.35337e-08
0.00118075
-0.00113174
-1.19705e-06
-1.24015e-07
-5.06809e-08
0.00113173
-2.35117e-07
1.23889e-06
2.69709e-07
9.08713e-07
-2.14324e-07
-8.54297e-07
2.63402e-07
-0.00113138
-1.19161e-06
-1.24034e-07
-5.06162e-08
0.00113137
-2.35138e-07
1.2334e-06
2.6972e-07
9.08557e-07
-2.17029e-07
-8.54174e-07
2.66122e-07
-0.000270231
1.22569e-06
1.19173e-06
-1.99339e-07
-2.0464e-07
0.000268217
1.21955e-07
1.22233e-07
-0.00118051
-8.26324e-08
-8.27555e-08
0.00118043
-0.00113172
-1.19748e-06
-1.22217e-07
-4.99575e-08
0.00113172
-2.35529e-07
1.23852e-06
2.69323e-07
9.0819e-07
-2.14936e-07
-8.54947e-07
2.62842e-07
-0.00113136
-1.19204e-06
-1.22242e-07
-4.98907e-08
0.00113135
-2.35551e-07
1.23302e-06
2.69331e-07
9.08036e-07
-2.17638e-07
-8.54824e-07
2.65564e-07
-0.000270253
1.22612e-06
1.19216e-06
-1.99749e-07
-2.0505e-07
0.000268239
1.19907e-07
1.20195e-07
-0.0011802
-8.16231e-08
-8.17339e-08
0.00118012
-0.0011317
-1.19796e-06
-1.20169e-07
-4.9119e-08
0.0011317
-2.35981e-07
1.23811e-06
2.68913e-07
9.0763e-07
-2.15593e-07
-8.55658e-07
2.6223e-07
-0.00113134
-1.19252e-06
-1.20202e-07
-4.90482e-08
0.00113134
-2.36005e-07
1.23262e-06
2.68919e-07
9.07475e-07
-2.18295e-07
-8.55535e-07
2.64954e-07
-0.000270276
1.2266e-06
1.19264e-06
-2.00193e-07
-2.05495e-07
0.000268262
1.17658e-07
1.17956e-07
-0.0011799
-8.04107e-08
-8.05078e-08
0.00117982
-0.00113169
-1.19849e-06
-1.17923e-07
-4.82046e-08
0.00113169
-2.3646e-07
1.23768e-06
2.68472e-07
9.07004e-07
-2.16274e-07
-8.56399e-07
2.61556e-07
-0.00113133
-1.19306e-06
-1.17961e-07
-4.81258e-08
0.00113133
-2.36487e-07
1.23218e-06
2.68476e-07
9.06853e-07
-2.18977e-07
-8.56277e-07
2.64283e-07
-0.000270299
1.22714e-06
1.19317e-06
-2.00668e-07
-2.05974e-07
0.000268286
1.15311e-07
1.15624e-07
-0.00117961
-7.90921e-08
-7.91736e-08
0.00117953
-0.00113168
-1.19905e-06
-1.15572e-07
-4.7254e-08
0.00113169
-2.36959e-07
1.23721e-06
2.67981e-07
9.06284e-07
-2.16938e-07
-8.57139e-07
2.60792e-07
-0.00113132
-1.19362e-06
-1.1562e-07
-4.71744e-08
0.00113132
-2.36958e-07
1.23172e-06
2.67985e-07
9.06135e-07
-2.19639e-07
-8.57018e-07
2.63522e-07
-0.000270323
1.2277e-06
1.19373e-06
-2.01152e-07
-2.06461e-07
0.000268309
1.12965e-07
1.13293e-07
-0.00117932
-7.77482e-08
-7.78081e-08
0.00117925
-0.00113168
-1.19962e-06
-1.13223e-07
-4.62636e-08
0.00113168
-2.37448e-07
1.23669e-06
2.67427e-07
9.05411e-07
-2.17512e-07
-8.57812e-07
2.59866e-07
-0.00113132
-1.19418e-06
-1.1328e-07
-4.61832e-08
0.00113132
-2.37446e-07
1.23119e-06
2.67432e-07
9.05265e-07
-2.20211e-07
-8.57691e-07
2.62597e-07
-0.000270348
1.22827e-06
1.1943e-06
-2.01617e-07
-2.06929e-07
0.000268334
1.10832e-07
1.1118e-07
-0.00117905
-7.65465e-08
-7.65829e-08
0.00117898
-0.00113168
-1.20015e-06
-1.11098e-07
-4.52998e-08
0.00113169
-2.37865e-07
1.23607e-06
2.66768e-07
9.0428e-07
-2.17827e-07
-8.58281e-07
2.58638e-07
-0.00113132
-1.19471e-06
-1.11164e-07
-4.52183e-08
0.00113132
-2.37864e-07
1.23057e-06
2.66772e-07
9.04133e-07
-2.20522e-07
-8.58156e-07
2.61369e-07
-0.000270372
1.2288e-06
1.19483e-06
-2.02003e-07
-2.07322e-07
0.000268358
1.09276e-07
1.0964e-07
-0.00117879
-7.58164e-08
-7.58321e-08
0.00117872
-0.00113168
-1.20054e-06
-1.0955e-07
-4.4346e-08
0.00113169
-2.38099e-07
1.23523e-06
2.65852e-07
9.02624e-07
-2.17511e-07
-8.58278e-07
2.56726e-07
-0.00113132
-1.19511e-06
-1.09628e-07
-4.42681e-08
0.00113133
-2.38103e-07
1.22974e-06
2.65827e-07
9.02481e-07
-2.20198e-07
-8.5815e-07
2.59455e-07
-0.000270397
1.2292e-06
1.19522e-06
-2.02161e-07
-2.07486e-07
0.000268382
1.08931e-07
1.09311e-07
-0.00117853
-7.62447e-08
-7.6242e-08
0.00117847
-0.00113169
-1.20047e-06
-1.09215e-07
-4.32173e-08
0.0011317
-2.37769e-07
1.23378e-06
2.64184e-07
8.99813e-07
-2.15554e-07
-8.57225e-07
2.53054e-07
-0.00113133
-1.19505e-06
-1.09308e-07
-4.31433e-08
0.00113134
-2.37778e-07
1.22829e-06
2.64159e-07
8.99665e-07
-2.18236e-07
-8.57088e-07
2.55778e-07
-0.000270422
1.22913e-06
1.19514e-06
-2.01635e-07
-2.06971e-07
0.000268406
1.10975e-07
1.11376e-07
-0.00117829
-7.94884e-08
-7.94571e-08
0.00117823
-0.0011317
-1.19884e-06
-1.11269e-07
-4.06996e-08
0.00113172
-2.35413e-07
1.2303e-06
2.59926e-07
8.94067e-07
-2.09022e-07
-8.53619e-07
2.44318e-07
-0.00113134
-1.1934e-06
-1.11392e-07
-4.06523e-08
0.00113136
-2.35447e-07
1.22482e-06
2.59946e-07
8.93905e-07
-2.1171e-07
-8.53416e-07
2.47038e-07
-0.000270448
1.2275e-06
1.19349e-06
-1.98849e-07
-2.04198e-07
0.00026843
1.34347e-07
1.35039e-07
-0.00117807
-9.61071e-08
-1.01802e-07
0.001178
-0.00113171
-1.19157e-06
-1.292e-07
-4.49189e-08
0.00113175
-2.25164e-07
1.22272e-06
2.51416e-07
8.84371e-07
-1.91687e-07
-8.44687e-07
2.2296e-07
-0.00113136
-1.18342e-06
-1.35026e-07
-3.95768e-08
0.0011314
-2.25126e-07
1.21452e-06
2.48639e-07
8.81604e-07
-1.91674e-07
-8.4182e-07
2.25789e-07
-0.000270482
1.22293e-06
1.18619e-06
-1.8527e-07
-1.90635e-07
0.000268448
1.05238e-06
1.05994e-06
-0.00117774
-9.08484e-07
-8.97313e-07
0.00117744
-0.00113201
-1.08761e-06
-1.0539e-06
-4.40948e-07
0.0011325
-1.18887e-07
1.37611e-06
3.14389e-07
1.00639e-06
-5.29029e-08
-7.21342e-07
2.92215e-07
-0.00113167
-1.07931e-06
-1.06518e-06
-4.5228e-07
0.00113217
-1.18725e-07
1.37073e-06
3.17301e-07
1.00348e-06
-5.91195e-08
-7.18407e-07
2.9509e-07
-0.0002706
1.12154e-06
1.07944e-06
-7.94426e-08
-8.1994e-08
0.00026856
5.51304e-06
5.50596e-06
-0.00116443
-1.16868e-05
-1.15798e-05
0.000283409
0.000285664
0.000285391
0.000285391
4.52782e-06
6.71951e-06
7.1599e-06
4.53181e-06
6.72042e-06
7.16352e-06
-0.000280655
5.41704e-06
-5.50296e-06
5.96523e-06
-3.38952e-06
0.000278166
-0.000280631
-5.50554e-06
5.42244e-06
-3.39791e-06
5.96237e-06
0.000278149
-0.000271534
-5.41378e-06
-5.42534e-06
5.74676e-06
5.73484e-06
0.000270892
-1.27494e-06
-1.23837e-06
0.000270115
-0.000268087
2.38926e-07
2.46778e-07
0.0011313
-1.23631e-07
-0.00113133
-5.02725e-08
-1.23035e-06
2.7727e-07
-2.39488e-07
-8.52405e-07
2.66216e-07
-2.12273e-07
9.11108e-07
1.28045e-06
0.00113175
-1.23599e-07
-0.00113177
-5.0285e-08
-1.23583e-06
2.80122e-07
-2.42316e-07
-8.57919e-07
2.6897e-07
-2.15099e-07
9.16621e-07
-1.24104e-06
0.000270144
-0.000268109
2.41704e-07
2.44049e-07
0.00113241
-1.23963e-07
-0.00113243
-5.03887e-08
-1.19368e-06
2.74807e-07
-2.36809e-07
-8.55087e-07
2.69047e-07
-2.15052e-07
9.13914e-07
1.275e-06
0.00113141
-1.23608e-07
-0.00113143
-5.02967e-08
-1.23039e-06
2.80125e-07
-2.42309e-07
-8.55083e-07
2.6893e-07
-2.15013e-07
9.13769e-07
-1.23938e-07
-0.00113216
-5.04197e-08
-1.19632e-06
2.71913e-07
-2.3393e-07
-8.52391e-07
2.66277e-07
9.11163e-07
-2.12244e-07
1.26953e-06
0.0011312
-1.23683e-07
-0.00113122
-5.02396e-08
-1.22496e-06
2.74495e-07
-2.36681e-07
-8.52422e-07
2.66215e-07
-2.12255e-07
9.11114e-07
-1.23555e-06
0.000270093
-0.000268068
2.39045e-07
2.46615e-07
-1.24031e-07
-0.0011318
-5.03668e-08
-1.19088e-06
2.71924e-07
-2.33946e-07
-8.52198e-07
2.68993e-07
9.11087e-07
-2.14951e-07
1.23568e-06
0.00113231
-1.24005e-07
-0.00113233
-5.04219e-08
-1.19099e-06
2.72056e-07
-2.34029e-07
-8.52457e-07
2.69034e-07
-2.15011e-07
9.11293e-07
-0.000268081
2.41505e-07
2.46784e-07
1.23028e-06
1.19361e-06
-1.95387e-07
-2.03242e-07
0.00026809
-1.27477e-06
-1.23821e-06
0.000270126
-0.000268098
2.38632e-07
2.46477e-07
-5.05032e-08
0.00113128
-2.3946e-07
1.27491e-06
2.77231e-07
9.11085e-07
-2.12228e-07
-8.52364e-07
2.66196e-07
-1.23575e-06
-1.24125e-07
-5.04973e-08
0.00113173
-2.42288e-07
1.28041e-06
2.80086e-07
9.16598e-07
-2.15068e-07
-8.57892e-07
2.6894e-07
0.00113123
-1.25341e-07
-0.00113125
-5.09592e-08
-1.23013e-06
2.77096e-07
-2.39386e-07
-8.52246e-07
2.6605e-07
-2.12178e-07
9.10988e-07
1.28028e-06
0.00113167
-1.25286e-07
-0.00113169
-5.10003e-08
-1.2356e-06
2.7995e-07
-2.42215e-07
-8.57779e-07
2.68809e-07
-2.15011e-07
9.16504e-07
-1.98099e-07
-2.00535e-07
0.000268111
-1.24086e-06
0.000270155
-0.000268119
2.41402e-07
2.43749e-07
-5.06584e-08
0.00113239
-2.3678e-07
1.23834e-06
2.74773e-07
9.13889e-07
-2.15021e-07
-8.55056e-07
2.69012e-07
-1.23032e-06
-1.24145e-07
-5.05089e-08
0.00113139
-2.42284e-07
1.27496e-06
2.80085e-07
9.13749e-07
-2.14974e-07
-8.55042e-07
2.68908e-07
0.00113233
-1.25635e-07
-0.00113235
-5.11191e-08
-1.19345e-06
2.74642e-07
-2.36698e-07
-8.54947e-07
2.68879e-07
-2.14962e-07
9.13793e-07
1.27483e-06
0.00113133
-1.25294e-07
-0.00113135
-5.09803e-08
-1.23016e-06
2.79944e-07
-2.42219e-07
-8.54925e-07
2.68758e-07
-2.14922e-07
9.13644e-07
-1.24211e-07
-5.04487e-08
0.00113118
-2.36655e-07
1.26949e-06
2.74454e-07
9.11087e-07
-2.12223e-07
2.66174e-07
-8.52364e-07
-1.25639e-07
-0.00113208
-5.11089e-08
-1.1961e-06
2.71734e-07
-2.33834e-07
-8.52229e-07
2.66108e-07
9.11045e-07
-2.12165e-07
1.26935e-06
0.00113112
-1.25383e-07
-0.00113114
-5.09114e-08
-1.22473e-06
2.74315e-07
-2.36591e-07
-8.52263e-07
2.66049e-07
-2.12161e-07
9.10992e-07
-1.95473e-07
-2.03113e-07
0.000268071
-1.23538e-06
0.000270104
-0.000268079
2.3875e-07
2.46318e-07
-1.24536e-07
-5.06405e-08
0.00113229
-2.34e-07
1.23565e-06
2.72017e-07
9.11277e-07
-2.14974e-07
2.69002e-07
-8.5242e-07
-1.25719e-07
-0.00113172
-5.10599e-08
-1.19065e-06
2.71755e-07
-2.33845e-07
-8.52047e-07
2.68821e-07
9.10955e-07
-2.14866e-07
1.23551e-06
0.00113223
-1.25683e-07
-0.00113225
-5.1154e-08
-1.19075e-06
2.71882e-07
-2.33931e-07
-8.52302e-07
2.68864e-07
-2.14917e-07
9.11167e-07
-0.000268091
2.41209e-07
2.46485e-07
1.23009e-06
1.19341e-06
-1.9534e-07
-2.03202e-07
0.000268101
-1.27457e-06
-1.23801e-06
0.000270138
-0.00026811
2.38315e-07
2.46158e-07
-5.11526e-08
0.00113121
-2.39369e-07
1.27473e-06
2.77053e-07
9.10953e-07
-2.12157e-07
-8.5223e-07
2.6602e-07
-1.23556e-06
-1.25718e-07
-5.11757e-08
0.00113166
-2.422e-07
1.28023e-06
2.79909e-07
9.16472e-07
-2.14991e-07
-8.57759e-07
2.68768e-07
0.00113116
-1.26518e-07
-0.00113117
-5.14573e-08
-1.23e-06
2.7689e-07
-2.3936e-07
-8.52202e-07
2.65832e-07
-2.12181e-07
9.10822e-07
1.28008e-06
0.0011316
-1.26454e-07
-0.00113162
-5.15087e-08
-1.23547e-06
2.79747e-07
-2.4219e-07
-8.57732e-07
2.68586e-07
-2.15024e-07
9.16338e-07
-1.9806e-07
-2.00497e-07
0.000268122
-1.24066e-06
0.000270168
-0.000268131
2.41084e-07
2.4343e-07
-5.13538e-08
0.00113232
-2.36684e-07
1.23817e-06
2.74597e-07
9.13761e-07
-2.14957e-07
-8.54928e-07
2.68837e-07
-1.23012e-06
-1.25725e-07
-5.11452e-08
0.00113131
-2.42207e-07
1.27479e-06
2.799e-07
9.13611e-07
-2.14908e-07
-8.54909e-07
2.68734e-07
0.00113227
-1.26782e-07
-0.00113228
-5.164e-08
-1.19331e-06
2.74439e-07
-2.36668e-07
-8.54907e-07
2.68652e-07
-2.14982e-07
9.13627e-07
1.27462e-06
0.00113126
-1.26455e-07
-0.00113128
-5.14555e-08
-1.23004e-06
2.79733e-07
-2.42202e-07
-8.54884e-07
2.68539e-07
-2.14935e-07
9.13474e-07
-1.25807e-07
-5.10824e-08
0.00113111
-2.36571e-07
1.26931e-06
2.74276e-07
9.10961e-07
-2.12146e-07
2.66e-07
-8.52258e-07
-1.26805e-07
-0.00113201
-5.16239e-08
-1.19597e-06
2.71532e-07
-2.33807e-07
-8.52185e-07
2.65887e-07
9.10878e-07
-2.12164e-07
1.26914e-06
0.00113105
-1.26562e-07
-0.00113107
-5.14177e-08
-1.22461e-06
2.74109e-07
-2.36563e-07
-8.52213e-07
2.65826e-07
-2.12169e-07
9.10825e-07
-1.95427e-07
-2.03069e-07
0.000268081
-1.23518e-06
0.000270116
-0.000268091
2.38429e-07
2.45993e-07
-1.26106e-07
-5.13151e-08
0.00113221
-2.33912e-07
1.23547e-06
2.71842e-07
9.11136e-07
-2.14909e-07
2.68821e-07
-8.52291e-07
-1.26866e-07
-0.00113165
-5.15646e-08
-1.19052e-06
2.71554e-07
-2.33817e-07
-8.52009e-07
2.6858e-07
9.10785e-07
-2.14888e-07
1.23532e-06
0.00113216
-1.26823e-07
-0.00113218
-5.16516e-08
-1.19063e-06
2.71683e-07
-2.33898e-07
-8.52262e-07
2.68639e-07
-2.14935e-07
9.10999e-07
-0.000268104
2.40888e-07
2.4616e-07
1.22998e-06
1.1933e-06
-1.95358e-07
-2.03223e-07
0.000268114
-1.27435e-06
-1.23779e-06
0.000270153
-0.000268124
2.37972e-07
2.45817e-07
-5.16086e-08
0.00113114
-2.39362e-07
1.27453e-06
2.76845e-07
9.10775e-07
-2.12196e-07
-8.52214e-07
2.6579e-07
-1.23546e-06
-1.26786e-07
-5.16417e-08
0.00113159
-2.42193e-07
1.28004e-06
2.79702e-07
9.16296e-07
-2.1503e-07
-8.57747e-07
2.68535e-07
0.0011311
-1.27176e-07
-0.00113111
-5.17466e-08
-1.22996e-06
2.76664e-07
-2.39404e-07
-8.52273e-07
2.65558e-07
-2.12297e-07
9.10603e-07
1.27986e-06
0.00113154
-1.27109e-07
-0.00113156
-5.18004e-08
-1.23544e-06
2.79515e-07
-2.42235e-07
-8.57803e-07
2.68309e-07
-2.15135e-07
9.1612e-07
-1.98081e-07
-2.00518e-07
0.000268135
-1.24045e-06
0.000270182
-0.000268146
2.40743e-07
2.43088e-07
-5.18301e-08
0.00113225
-2.36673e-07
1.23797e-06
2.74394e-07
9.13581e-07
-2.14989e-07
-8.54915e-07
2.68599e-07
-1.23003e-06
-1.26782e-07
-5.1581e-08
0.00113124
-2.42206e-07
1.27458e-06
2.79687e-07
9.13432e-07
-2.14949e-07
-8.54897e-07
2.6849e-07
0.00113221
-1.27426e-07
-0.00113222
-5.19423e-08
-1.19328e-06
2.7421e-07
-2.36716e-07
-8.54976e-07
2.68378e-07
-2.15088e-07
9.13405e-07
1.2744e-06
0.0011312
-1.27104e-07
-0.00113121
-5.17281e-08
-1.23001e-06
2.79496e-07
-2.42252e-07
-8.54954e-07
2.68265e-07
-2.15048e-07
9.13256e-07
-1.26876e-07
-5.15565e-08
0.00113104
-2.36568e-07
1.2691e-06
2.7406e-07
9.108e-07
-2.12187e-07
2.65767e-07
-8.5221e-07
-1.27458e-07
-0.00113195
-5.19266e-08
-1.19594e-06
2.71303e-07
-2.33849e-07
-8.52256e-07
2.65609e-07
9.10658e-07
-2.1228e-07
1.26893e-06
0.00113099
-1.27204e-07
-0.00113101
-5.16952e-08
-1.22457e-06
2.73879e-07
-2.36606e-07
-8.5229e-07
2.65547e-07
-2.12283e-07
9.10608e-07
-1.9545e-07
-2.03098e-07
0.000268094
-1.23497e-06
0.000270131
-0.000268105
2.38088e-07
2.45646e-07
-1.27154e-07
-5.17809e-08
0.00113214
-2.339e-07
1.23527e-06
2.71636e-07
9.10957e-07
-2.14949e-07
2.6858e-07
-8.52278e-07
-1.27494e-07
-0.00113158
-5.18608e-08
-1.19048e-06
2.71324e-07
-2.3386e-07
-8.52087e-07
2.68302e-07
9.1056e-07
-2.15004e-07
1.2351e-06
0.0011321
-1.27467e-07
-0.00113211
-5.19435e-08
-1.19059e-06
2.71447e-07
-2.33945e-07
-8.52335e-07
2.68357e-07
-2.15051e-07
9.10776e-07
-0.000268118
2.40545e-07
2.4582e-07
1.22997e-06
1.19328e-06
-1.95442e-07
-2.03306e-07
0.000268128
-1.2741e-06
-1.23754e-06
0.000270169
-0.000268141
2.37594e-07
2.45444e-07
-5.18645e-08
0.00113108
-2.39422e-07
1.2743e-06
2.76616e-07
9.10545e-07
-2.12336e-07
-8.52313e-07
2.65494e-07
-1.23544e-06
-1.27355e-07
-5.1897e-08
0.00113153
-2.42254e-07
1.27981e-06
2.79467e-07
9.16067e-07
-2.15172e-07
-8.57842e-07
2.68249e-07
0.00113105
-1.27344e-07
-0.00113106
-5.18408e-08
-1.23001e-06
2.76413e-07
-2.3951e-07
-8.52454e-07
2.65228e-07
-2.12508e-07
9.10328e-07
1.27961e-06
0.00113149
-1.27284e-07
-0.00113151
-5.18869e-08
-1.23548e-06
2.7926e-07
-2.42342e-07
-8.57983e-07
2.67982e-07
-2.15344e-07
9.15845e-07
-1.98164e-07
-2.00604e-07
0.00026815
-1.24019e-06
0.000270199
-0.000268162
2.40367e-07
2.42711e-07
-5.20942e-08
0.00113219
-2.36737e-07
1.23775e-06
2.7416e-07
9.13351e-07
-2.1513e-07
-8.55016e-07
2.68314e-07
-1.23002e-06
-1.27344e-07
-5.18208e-08
0.00113119
-2.42272e-07
1.27435e-06
2.79448e-07
9.13202e-07
-2.15088e-07
-8.54996e-07
2.68203e-07
0.00113215
-1.27593e-07
-0.00113217
-5.20328e-08
-1.19332e-06
2.73953e-07
-2.36828e-07
-8.55157e-07
2.68052e-07
-2.15296e-07
9.13132e-07
1.27414e-06
0.00113115
-1.27275e-07
-0.00113116
-5.18079e-08
-1.23006e-06
2.79242e-07
-2.42359e-07
-8.55135e-07
2.67936e-07
-2.15259e-07
9.12981e-07
-1.27434e-07
-5.18068e-08
0.00113098
-2.36626e-07
1.26888e-06
2.73829e-07
9.10557e-07
-2.12324e-07
2.65482e-07
-8.52328e-07
-1.27627e-07
-0.00113189
-5.20238e-08
-1.19597e-06
2.7105e-07
-2.33952e-07
-8.5244e-07
2.65281e-07
9.10384e-07
-2.12491e-07
1.26868e-06
0.00113094
-1.2737e-07
-0.00113096
-5.18105e-08
-1.22461e-06
2.73625e-07
-2.36711e-07
-8.52466e-07
2.65215e-07
-2.12496e-07
9.10331e-07
-1.95534e-07
-2.03189e-07
0.000268109
-1.23471e-06
0.000270147
-0.000268121
2.37711e-07
2.45269e-07
-1.27711e-07
-5.20348e-08
0.00113209
-2.33966e-07
1.23505e-06
2.71396e-07
9.10723e-07
-2.1509e-07
2.68293e-07
-8.52379e-07
-1.27648e-07
-0.00113153
-5.19539e-08
-1.19052e-06
2.71071e-07
-2.33965e-07
-8.52265e-07
2.67974e-07
9.10265e-07
-2.15218e-07
1.23484e-06
0.00113205
-1.27634e-07
-0.00113206
-5.20272e-08
-1.19063e-06
2.71187e-07
-2.34055e-07
-8.52518e-07
2.68027e-07
-2.15262e-07
9.105e-07
-0.000268134
2.40165e-07
2.45445e-07
1.23004e-06
1.19335e-06
-1.95595e-07
-2.03455e-07
0.000268145
-1.27383e-06
-1.23726e-06
0.000270187
-0.000268158
2.37194e-07
2.45052e-07
-5.19353e-08
0.00113103
-2.39547e-07
1.27405e-06
2.76359e-07
9.10259e-07
-2.12571e-07
-8.52525e-07
2.65156e-07
-1.23551e-06
-1.27449e-07
-5.19579e-08
0.00113148
-2.42383e-07
1.27956e-06
2.79206e-07
9.15784e-07
-2.15405e-07
-8.58052e-07
2.67913e-07
0.001131
-1.27049e-07
-0.00113101
-5.17585e-08
-1.23014e-06
2.76135e-07
-2.39684e-07
-8.52742e-07
2.64849e-07
-2.12811e-07
9.10001e-07
1.27934e-06
0.00113145
-1.26995e-07
-0.00113146
-5.17891e-08
-1.23561e-06
2.78981e-07
-2.42523e-07
-8.58267e-07
2.6761e-07
-2.15641e-07
9.15508e-07
-1.98311e-07
-2.00753e-07
0.000268166
-1.23992e-06
0.000270216
-0.000268179
2.39974e-07
2.42316e-07
-5.21579e-08
0.00113214
-2.36867e-07
1.23749e-06
2.73897e-07
9.13068e-07
-2.15362e-07
-8.55226e-07
2.67979e-07
-1.23009e-06
-1.27437e-07
-5.18779e-08
0.00113114
-2.424e-07
1.27409e-06
2.79188e-07
9.12918e-07
-2.15321e-07
-8.55207e-07
2.67866e-07
0.00113211
-1.27303e-07
-0.00113212
-5.19385e-08
-1.19345e-06
2.73667e-07
-2.37008e-07
-8.55442e-07
2.67678e-07
-2.15595e-07
9.12808e-07
1.27387e-06
0.0011311
-1.26983e-07
-0.00113111
-5.17162e-08
-1.23019e-06
2.78965e-07
-2.42537e-07
-8.55421e-07
2.67561e-07
-2.15559e-07
9.12657e-07
-1.2752e-07
-5.18808e-08
0.00113093
-2.3675e-07
1.26863e-06
2.73573e-07
9.10269e-07
-2.12559e-07
2.65144e-07
-8.5254e-07
-1.27336e-07
-0.00113185
-5.19339e-08
-1.19611e-06
2.70771e-07
-2.34131e-07
-8.52721e-07
2.64907e-07
9.10061e-07
-2.1279e-07
1.26841e-06
0.0011309
-1.2707e-07
-0.00113091
-5.17269e-08
-1.22474e-06
2.73348e-07
-2.36887e-07
-8.52753e-07
2.64839e-07
-2.12797e-07
9.10006e-07
-1.95681e-07
-2.03338e-07
0.000268126
-1.23444e-06
0.000270165
-0.000268139
2.37317e-07
2.44877e-07
-1.278e-07
-5.20905e-08
0.00113204
-2.34097e-07
1.23478e-06
2.71132e-07
9.1044e-07
-2.15323e-07
2.67958e-07
-8.5259e-07
-1.27347e-07
-0.00113148
-5.18749e-08
-1.19065e-06
2.70794e-07
-2.34141e-07
-8.52554e-07
2.67603e-07
9.09962e-07
-2.15513e-07
1.23456e-06
0.001132
-1.27345e-07
-0.00113201
-5.19283e-08
-1.19077e-06
2.70902e-07
-2.3424e-07
-8.52799e-07
2.67656e-07
-2.15558e-07
9.10181e-07
-0.000268152
2.39767e-07
2.45054e-07
1.23019e-06
1.19351e-06
-1.95806e-07
-2.03661e-07
0.000268163
-1.27354e-06
-1.23696e-06
0.000270206
-0.000268177
2.36772e-07
2.44636e-07
-5.18214e-08
0.00113099
-2.39737e-07
1.27378e-06
2.76076e-07
9.09924e-07
-2.12898e-07
-8.52838e-07
2.64766e-07
-1.23567e-06
-1.27097e-07
-5.18335e-08
0.00113144
-2.42578e-07
1.27928e-06
2.78919e-07
9.15448e-07
-2.15728e-07
-8.58337e-07
2.67528e-07
0.00113096
-1.26305e-07
-0.00113097
-5.14974e-08
-1.23034e-06
2.75832e-07
-2.39916e-07
-8.53126e-07
2.64421e-07
-2.13197e-07
9.09627e-07
1.27904e-06
0.00113141
-1.26263e-07
-0.00113142
-5.15215e-08
-1.23582e-06
2.78674e-07
-2.42759e-07
-8.58651e-07
2.6719e-07
-2.16018e-07
9.15156e-07
-1.98517e-07
-2.0096e-07
0.000268184
-1.23962e-06
0.000270236
-0.000268198
2.39556e-07
2.41898e-07
-5.20289e-08
0.0011321
-2.37065e-07
1.23721e-06
2.73606e-07
9.12738e-07
-2.15685e-07
-8.55535e-07
2.67594e-07
-1.23024e-06
-1.27078e-07
-5.17553e-08
0.00113109
-2.42591e-07
1.27382e-06
2.78906e-07
9.12585e-07
-2.15645e-07
-8.55519e-07
2.67479e-07
0.00113207
-1.26569e-07
-0.00113208
-5.16547e-08
-1.19366e-06
2.73355e-07
-2.37249e-07
-8.55825e-07
2.67257e-07
-2.15978e-07
9.12439e-07
1.27358e-06
0.00113107
-1.26243e-07
-0.00113107
-5.14435e-08
-1.23039e-06
2.78659e-07
-2.42772e-07
-8.55804e-07
2.67134e-07
-2.15943e-07
9.12283e-07
-1.27153e-07
-5.17639e-08
0.00113089
-2.36939e-07
1.26835e-06
2.73291e-07
9.09935e-07
-2.12884e-07
2.64756e-07
-8.52852e-07
-1.26594e-07
-0.00113181
-5.16582e-08
-1.19631e-06
2.70465e-07
-2.34366e-07
-8.53102e-07
2.64483e-07
9.09688e-07
-2.13172e-07
1.26811e-06
0.00113086
-1.26322e-07
-0.00113087
-5.14608e-08
-1.22495e-06
2.73044e-07
-2.37119e-07
-8.53138e-07
2.64411e-07
-2.13182e-07
9.09633e-07
-1.95887e-07
-2.03542e-07
0.000268143
-1.23414e-06
0.000270184
-0.000268158
2.36895e-07
2.4446e-07
-1.27445e-07
-5.19552e-08
0.00113199
-2.34295e-07
1.2345e-06
2.70842e-07
9.10111e-07
-2.15643e-07
2.67575e-07
-8.52897e-07
-1.26606e-07
-0.00113144
-5.15955e-08
-1.19086e-06
2.70483e-07
-2.34379e-07
-8.52934e-07
2.67176e-07
9.09593e-07
-2.15897e-07
1.23426e-06
0.00113197
-1.2661e-07
-0.00113197
-5.16431e-08
-1.19098e-06
2.70589e-07
-2.3448e-07
-8.53178e-07
2.67234e-07
-2.15938e-07
9.09812e-07
-0.000268171
2.39345e-07
2.44639e-07
1.23041e-06
1.19374e-06
-1.96072e-07
-2.03922e-07
0.000268182
-1.27321e-06
-1.23663e-06
0.000270227
-0.000268197
2.36323e-07
2.44195e-07
-5.15497e-08
0.00113095
-2.39987e-07
1.27348e-06
2.75772e-07
9.09546e-07
-2.13306e-07
-8.53247e-07
2.64334e-07
-1.23589e-06
-1.26347e-07
-5.15431e-08
0.0011314
-2.42832e-07
1.27898e-06
2.78611e-07
9.1508e-07
-2.16129e-07
-8.58769e-07
2.67102e-07
0.00113093
-1.2514e-07
-0.00113094
-5.10513e-08
-1.23062e-06
2.75499e-07
-2.40208e-07
-8.53599e-07
2.63947e-07
-2.13661e-07
9.09203e-07
1.27871e-06
0.00113138
-1.25109e-07
-0.00113139
-5.10388e-08
-1.2361e-06
2.78335e-07
-2.43057e-07
-8.59123e-07
2.66718e-07
-2.1648e-07
9.14735e-07
-1.98779e-07
-2.01222e-07
0.000268203
-1.2393e-06
0.000270256
-0.000268219
2.39113e-07
2.41452e-07
-5.17372e-08
0.00113206
-2.37324e-07
1.2369e-06
2.73293e-07
9.12363e-07
-2.16091e-07
-8.55945e-07
2.67169e-07
-1.23047e-06
-1.2632e-07
-5.1474e-08
0.00113106
-2.42844e-07
1.27352e-06
2.78599e-07
9.12208e-07
-2.16053e-07
-8.55928e-07
2.67048e-07
0.00113204
-1.25413e-07
-0.00113205
-5.1188e-08
-1.19395e-06
2.73014e-07
-2.37548e-07
-8.563e-07
2.66791e-07
-2.16442e-07
9.12021e-07
1.27325e-06
0.00113103
-1.25076e-07
-0.00113104
-5.09902e-08
-1.23067e-06
2.78324e-07
-2.43067e-07
-8.56279e-07
2.6666e-07
-2.16408e-07
9.11859e-07
-1.26386e-07
-5.14881e-08
0.00113085
-2.37191e-07
1.26806e-06
2.72985e-07
9.09556e-07
-2.13292e-07
2.64324e-07
-8.53262e-07
-1.25423e-07
-0.00113177
-5.12005e-08
-1.19659e-06
2.70129e-07
-2.3466e-07
-8.53579e-07
2.64009e-07
9.09264e-07
-2.13635e-07
1.26779e-06
0.00113083
-1.25148e-07
-0.00113084
-5.10111e-08
-1.22522e-06
2.72711e-07
-2.37412e-07
-8.53614e-07
2.63936e-07
-2.13648e-07
9.09207e-07
-1.96152e-07
-2.03805e-07
0.000268163
-1.23381e-06
0.000270205
-0.000268178
2.36448e-07
2.44015e-07
-1.26691e-07
-5.16634e-08
0.00113196
-2.34554e-07
1.2342e-06
2.70528e-07
9.09737e-07
-2.16047e-07
2.67149e-07
-8.53302e-07
-1.25438e-07
-0.00113141
-5.11334e-08
-1.19114e-06
2.70143e-07
-2.34677e-07
-8.53408e-07
2.66703e-07
9.09169e-07
-2.16361e-07
1.23393e-06
0.00113193
-1.25452e-07
-0.00113194
-5.11718e-08
-1.19126e-06
2.70248e-07
-2.3478e-07
-8.53651e-07
2.66763e-07
-2.164e-07
9.09389e-07
-0.000268191
2.38896e-07
2.44196e-07
1.23071e-06
1.19405e-06
-1.96393e-07
-2.04238e-07
0.000268202
-1.27286e-06
-1.23627e-06
0.000270248
-0.000268218
2.3585e-07
2.43729e-07
-5.11175e-08
0.00113092
-2.40299e-07
1.27316e-06
2.7544e-07
9.09121e-07
-2.13793e-07
-8.53747e-07
2.63859e-07
-1.2362e-06
-1.25212e-07
-5.10929e-08
0.00113137
-2.43149e-07
1.27865e-06
2.78273e-07
9.1466e-07
-2.16612e-07
-8.59264e-07
2.66632e-07
0.00113091
-1.23571e-07
-0.00113091
-5.04333e-08
-1.23096e-06
2.7514e-07
-2.40553e-07
-8.54153e-07
2.63427e-07
-2.14194e-07
9.08729e-07
1.27835e-06
0.00113135
-1.2355e-07
-0.00113136
-5.0391e-08
-1.23645e-06
2.77969e-07
-2.43409e-07
-8.59675e-07
2.66202e-07
-2.17009e-07
9.14264e-07
-1.99094e-07
-2.01542e-07
0.000268224
-1.23894e-06
0.000270277
-0.00026824
2.38644e-07
2.4098e-07
-5.12809e-08
0.00113203
-2.37642e-07
1.23657e-06
2.72952e-07
9.11944e-07
-2.16579e-07
-8.56446e-07
2.66703e-07
-1.23077e-06
-1.25176e-07
-5.10299e-08
0.00113103
-2.43158e-07
1.2732e-06
2.78264e-07
9.11782e-07
-2.1654e-07
-8.56428e-07
2.66573e-07
0.00113201
-1.23856e-07
-0.00113202
-5.05422e-08
-1.1943e-06
2.72646e-07
-2.37901e-07
-8.56856e-07
2.66283e-07
-2.16978e-07
9.11556e-07
1.2729e-06
0.00113101
-1.23508e-07
-0.00113101
-5.03608e-08
-1.23102e-06
2.77963e-07
-2.43414e-07
-8.56834e-07
2.6614e-07
-2.16942e-07
9.11385e-07
-1.25233e-07
-5.105e-08
0.00113082
-2.37501e-07
1.26773e-06
2.72652e-07
9.09128e-07
-2.1378e-07
2.63847e-07
-8.53764e-07
-1.23848e-07
-0.00113175
-5.05642e-08
-1.19693e-06
2.69767e-07
-2.35007e-07
-8.54133e-07
2.63488e-07
9.08788e-07
-2.14169e-07
1.26744e-06
0.0011308
-1.23571e-07
-0.00113081
-5.03819e-08
-1.22557e-06
2.72349e-07
-2.37759e-07
-8.5417e-07
2.63414e-07
-2.14183e-07
9.08731e-07
-1.96472e-07
-2.04123e-07
0.000268183
-1.23345e-06
0.000270226
-0.000268199
2.35975e-07
2.43547e-07
-1.25552e-07
-5.1204e-08
0.00113193
-2.3487e-07
1.23387e-06
2.70188e-07
9.09312e-07
-2.16531e-07
2.66676e-07
-8.53801e-07
-1.23866e-07
-0.00113138
-5.04987e-08
-1.19149e-06
2.69778e-07
-2.35027e-07
-8.53962e-07
2.66184e-07
9.08694e-07
-2.16894e-07
1.23357e-06
0.00113191
-1.23885e-07
-0.00113191
-5.05259e-08
-1.19161e-06
2.69881e-07
-2.35132e-07
-8.54205e-07
2.66245e-07
-2.16932e-07
9.08916e-07
-0.000268212
2.38423e-07
2.43728e-07
1.23108e-06
1.19442e-06
-1.96763e-07
-2.04603e-07
0.000268224
-1.27248e-06
-1.23588e-06
0.00027027
-0.00026824
2.3535e-07
2.43235e-07
-5.05391e-08
0.0011309
-2.40662e-07
1.27281e-06
2.75083e-07
9.0865e-07
-2.14348e-07
-8.54327e-07
2.63341e-07
-1.23658e-06
-1.23732e-07
-5.04823e-08
0.00113135
-2.4352e-07
1.2783e-06
2.77909e-07
9.1419e-07
-2.17164e-07
-8.59842e-07
2.66115e-07
0.00113089
-1.21617e-07
-0.00113089
-4.96467e-08
-1.23137e-06
2.74748e-07
-2.40944e-07
-8.54776e-07
2.62858e-07
-2.14784e-07
9.08201e-07
1.27797e-06
0.00113133
-1.21603e-07
-0.00113134
-4.95794e-08
-1.23686e-06
2.77572e-07
-2.43806e-07
-8.60297e-07
2.65635e-07
-2.17598e-07
9.13737e-07
-1.9946e-07
-2.01911e-07
0.000268245
-1.23856e-06
0.0002703
-0.000268262