/*--------------------------------*- C++ -*----------------------------------*\
| =========                 |                                                 |
| \\      /  F ield         | OpenFOAM: The Open Source CFD Toolbox           |
|  \\    /   O peration     | Version:  v1906                                 |
|   \\  /    A nd           | Web:      www.OpenFOAM.com                      |
|    \\/     M anipulation  |                                                 |
\*---------------------------------------------------------------------------*/
FoamFile
{
    version     2.0;
    format      ascii;
    class       volVectorField;
    location    "1000";
    object      U;
}
// * * * * * * * * * * * * * * * * * * * * * * * * * * * * * * * * * * * * * //

dimensions      [0 1 -1 0 0 0 0];


internalField   nonuniform List<vector> 
43024
(
(-1.02744e-05 -1.02674e-05 0.112443)
(1.1394e-05 -6.19823e-06 0.107483)
(-6.19806e-06 1.14077e-05 0.107483)
(-2.37721e-05 -2.37811e-05 0.104205)
(-1.0525e-05 -1.0522e-05 0.112408)
(1.1464e-05 -6.27159e-06 0.107476)
(-6.27093e-06 1.14761e-05 0.107476)
(-2.37103e-05 -2.37202e-05 0.10421)
(-1.07194e-05 -1.07191e-05 0.112373)
(1.1493e-05 -6.3202e-06 0.10747)
(-6.31884e-06 1.15027e-05 0.107469)
(-2.3679e-05 -2.36926e-05 0.104215)
(-1.08621e-05 -1.08635e-05 0.112338)
(1.14827e-05 -6.34445e-06 0.107464)
(-6.34291e-06 1.14907e-05 0.107464)
(-2.36786e-05 -2.36899e-05 0.104221)
(-1.09553e-05 -1.09573e-05 0.112305)
(1.1434e-05 -6.34598e-06 0.107459)
(-6.34454e-06 1.14412e-05 0.107459)
(-2.3706e-05 -2.37159e-05 0.104228)
(-1.10025e-05 -1.10045e-05 0.112271)
(1.13482e-05 -6.3238e-06 0.107455)
(-6.32247e-06 1.13563e-05 0.107455)
(-2.37607e-05 -2.37679e-05 0.104235)
(-1.10067e-05 -1.10082e-05 0.112239)
(1.12334e-05 -6.28279e-06 0.107452)
(-6.28151e-06 1.12411e-05 0.107451)
(-2.38411e-05 -2.38459e-05 0.104243)
(-1.09709e-05 -1.09715e-05 0.112207)
(1.10869e-05 -6.22183e-06 0.107449)
(-6.21914e-06 1.10943e-05 0.107448)
(-2.39465e-05 -2.39493e-05 0.104251)
(-1.08988e-05 -1.08983e-05 0.112177)
(1.09129e-05 -6.143e-06 0.107447)
(-6.13962e-06 1.09209e-05 0.107446)
(-2.40756e-05 -2.40767e-05 0.10426)
(-1.07939e-05 -1.07923e-05 0.112147)
(1.07168e-05 -6.04929e-06 0.107445)
(-6.0454e-06 1.07252e-05 0.107444)
(-2.42249e-05 -2.42252e-05 0.104269)
(-1.06597e-05 -1.0657e-05 0.112118)
(1.05016e-05 -5.94294e-06 0.107444)
(-5.93835e-06 1.05104e-05 0.107443)
(-2.43909e-05 -2.43915e-05 0.104278)
(-1.05018e-05 -1.04978e-05 0.11209)
(1.02736e-05 -5.82892e-06 0.107443)
(-5.82328e-06 1.02827e-05 0.107443)
(-2.45759e-05 -2.45773e-05 0.104287)
(-1.03303e-05 -1.03249e-05 0.112063)
(1.00436e-05 -5.7098e-06 0.107443)
(-5.70388e-06 1.00532e-05 0.107442)
(-2.47708e-05 -2.47729e-05 0.104296)
(-1.0162e-05 -1.01546e-05 0.112038)
(9.81334e-06 -5.58644e-06 0.107444)
(-5.58098e-06 9.82363e-06 0.107443)
(-2.4968e-05 -2.49709e-05 0.104306)
(-1.00192e-05 -1.00097e-05 0.112014)
(9.60347e-06 -5.46766e-06 0.107445)
(-5.46217e-06 9.61459e-06 0.107444)
(-2.51513e-05 -2.51558e-05 0.104315)
(-9.956e-06 -9.94468e-06 0.111992)
(9.43132e-06 -5.34415e-06 0.107447)
(-5.33922e-06 9.44377e-06 0.107446)
(-2.52642e-05 -2.52704e-05 0.104325)
(-1.00917e-05 -1.00786e-05 0.111973)
(9.30638e-06 -5.17044e-06 0.10745)
(-5.16592e-06 9.31955e-06 0.107449)
(-2.51321e-05 -2.51416e-05 0.104335)
(-1.07185e-05 -1.07028e-05 0.111956)
(9.16572e-06 -4.7881e-06 0.107454)
(-4.78617e-06 9.1811e-06 0.107454)
(-2.41287e-05 -2.41439e-05 0.104348)
(-1.25111e-05 -1.24893e-05 0.111943)
(8.65111e-06 -3.58779e-06 0.107461)
(-3.59766e-06 8.67391e-06 0.10746)
(-1.9977e-05 -2.00027e-05 0.104368)
(-2.16728e-05 -2.16075e-05 0.111932)
(1.05639e-05 -2.07468e-06 0.107472)
(-2.14558e-06 1.06548e-05 0.107471)
(-4.92619e-06 -4.89936e-06 0.104422)
(-2.50113e-05 -2.4857e-05 0.112034)
(0.000121391 -5.98018e-05 0.10773)
(-5.99218e-05 0.000121458 0.10773)
(4.087e-05 4.08922e-05 0.10478)
(-4.15556e-05 -4.15617e-05 0.104319)
(-6.14726e-06 -1.13415e-05 0.107483)
(6.14848e-06 -1.13388e-05 0.107483)
(4.1561e-05 -4.15528e-05 0.104319)
(-1.13645e-05 -6.17394e-06 0.107485)
(-1.13415e-05 6.15652e-06 0.107482)
(1.13645e-05 -6.17214e-06 0.107485)
(1.13461e-05 6.14705e-06 0.107483)
(-4.15427e-05 4.15686e-05 0.104319)
(-6.17233e-06 1.13785e-05 0.107485)
(6.17907e-06 1.13731e-05 0.107484)
(4.15681e-05 4.15485e-05 0.104318)
(2.37712e-05 2.37565e-05 0.104205)
(-4.14246e-05 -4.14342e-05 0.104322)
(-6.17321e-06 -1.13723e-05 0.107482)
(6.17404e-06 -1.13692e-05 0.107481)
(-6.22562e-06 -1.14202e-05 0.107476)
(6.22834e-06 -1.14162e-05 0.107475)
(-2.37663e-05 2.37353e-05 0.104205)
(4.14307e-05 -4.14211e-05 0.104323)
(-1.13941e-05 -6.20153e-06 0.107483)
(-1.1373e-05 6.18162e-06 0.10748)
(-1.14407e-05 -6.2561e-06 0.107477)
(-1.14189e-05 6.23185e-06 0.107475)
(1.13764e-05 6.17271e-06 0.107481)
(1.14406e-05 -6.24848e-06 0.107478)
(1.14242e-05 6.22157e-06 0.107475)
(2.37429e-05 -2.3785e-05 0.104205)
(-4.14156e-05 4.14389e-05 0.104322)
(6.20566e-06 1.14034e-05 0.107482)
(-6.24834e-06 1.14543e-05 0.107477)
(6.25881e-06 1.14488e-05 0.107477)
(4.14407e-05 4.14192e-05 0.104322)
(2.37151e-05 2.36974e-05 0.10421)
(-4.12884e-05 -4.12998e-05 0.104327)
(-6.24864e-06 -1.14439e-05 0.107474)
(6.2505e-06 -1.14399e-05 0.107473)
(-6.27615e-06 -1.14564e-05 0.107469)
(6.28017e-06 -1.14516e-05 0.107468)
(-2.37103e-05 2.36802e-05 0.10421)
(4.12952e-05 -4.1286e-05 0.104327)
(-1.14632e-05 -6.28058e-06 0.107476)
(-1.14427e-05 6.25396e-06 0.107473)
(-1.14747e-05 -6.30893e-06 0.107471)
(-1.14538e-05 6.28135e-06 0.107468)
(1.1448e-05 6.24491e-06 0.107474)
(1.14762e-05 -6.30043e-06 0.107471)
(1.14588e-05 6.27384e-06 0.107469)
(2.36822e-05 -2.37264e-05 0.10421)
(-4.12799e-05 4.13008e-05 0.104327)
(6.28146e-06 1.14721e-05 0.107475)
(-6.29969e-06 1.14878e-05 0.107471)
(6.31227e-06 1.14822e-05 0.10747)
(4.13039e-05 4.12794e-05 0.104326)
(2.36852e-05 2.3666e-05 0.104215)
(-4.1145e-05 -4.1156e-05 0.104332)
(-6.29508e-06 -1.1473e-05 0.107468)
(6.29833e-06 -1.14687e-05 0.107467)
(-6.30222e-06 -1.14508e-05 0.107463)
(6.30615e-06 -1.14465e-05 0.107463)
(-2.36802e-05 2.36494e-05 0.104215)
(4.1153e-05 -4.11448e-05 0.104332)
(-1.14905e-05 -6.32878e-06 0.107469)
(-1.14708e-05 6.29974e-06 0.107467)
(-1.14683e-05 -6.33545e-06 0.107465)
(-1.14482e-05 6.30593e-06 0.107462)
(1.14757e-05 6.29256e-06 0.107467)
(1.14708e-05 -6.32756e-06 0.107465)
(1.14536e-05 6.2994e-06 0.107463)
(2.36526e-05 -2.36994e-05 0.104215)
(-4.11383e-05 4.11564e-05 0.104332)
(6.33059e-06 1.14988e-05 0.107469)
(-6.32684e-06 1.14803e-05 0.107465)
(6.3374e-06 1.14756e-05 0.107464)
(4.11616e-05 4.11391e-05 0.104332)
(2.36826e-05 2.36638e-05 0.104221)
(-4.09892e-05 -4.09986e-05 0.104338)
(-6.31842e-06 -1.14625e-05 0.107462)
(6.32133e-06 -1.14588e-05 0.107461)
(-6.30484e-06 -1.14063e-05 0.107458)
(6.3076e-06 -1.14025e-05 0.107458)
(-2.36797e-05 2.36482e-05 0.104221)
(4.09945e-05 -4.0987e-05 0.104338)
(-1.14795e-05 -6.35218e-06 0.107464)
(-1.14605e-05 6.32144e-06 0.107461)
(-1.1424e-05 -6.33712e-06 0.10746)
(-1.1404e-05 6.30699e-06 0.107457)
(1.14658e-05 6.31517e-06 0.107462)
(1.14264e-05 -6.33043e-06 0.10746)
(1.14086e-05 6.30313e-06 0.107458)
(2.36518e-05 -2.37011e-05 0.104221)
(-4.09806e-05 4.09978e-05 0.104338)
(6.3526e-06 1.14877e-05 0.107463)
(-6.32957e-06 1.14352e-05 0.10746)
(6.33834e-06 1.14309e-05 0.107459)
(4.10031e-05 4.0982e-05 0.104337)
(2.37104e-05 2.36932e-05 0.104228)
(-4.08281e-05 -4.08351e-05 0.104345)
(-6.3198e-06 -1.14135e-05 0.107457)
(6.32156e-06 -1.14103e-05 0.107457)
(-6.28605e-06 -1.13259e-05 0.107454)
(6.28754e-06 -1.13233e-05 0.107453)
(-2.37067e-05 2.36745e-05 0.104228)
(4.0832e-05 -4.08251e-05 0.104345)
(-1.14308e-05 -6.35243e-06 0.107459)
(-1.14118e-05 6.32143e-06 0.107456)
(-1.13446e-05 -6.31681e-06 0.107455)
(-1.13246e-05 6.28723e-06 0.107453)
(1.14161e-05 6.31842e-06 0.107457)
(1.1347e-05 -6.31108e-06 0.107456)
(1.13285e-05 6.28437e-06 0.107453)
(2.36783e-05 -2.3728e-05 0.104228)
(-4.08191e-05 4.08359e-05 0.104344)
(6.35214e-06 1.14388e-05 0.107458)
(-6.31074e-06 1.13561e-05 0.107455)
(6.31729e-06 1.13521e-05 0.107455)
(4.08393e-05 4.08208e-05 0.104344)
(2.37629e-05 2.37481e-05 0.104235)
(-4.0659e-05 -4.06634e-05 0.104352)
(-6.29852e-06 -1.13272e-05 0.107453)
(6.29889e-06 -1.13248e-05 0.107453)
(-6.24491e-06 -1.12097e-05 0.10745)
(6.24497e-06 -1.1209e-05 0.107449)
(-2.37603e-05 2.37275e-05 0.104235)
(4.06621e-05 -4.06552e-05 0.104352)
(-1.13453e-05 -6.32931e-06 0.107455)
(-1.13264e-05 6.29924e-06 0.107452)
(-1.12295e-05 -6.27314e-06 0.107452)
(-1.12087e-05 6.24469e-06 0.107449)
(1.13298e-05 6.29686e-06 0.107453)
(1.12315e-05 -6.26867e-06 0.107452)
(1.12121e-05 6.24242e-06 0.10745)
(2.3731e-05 -2.37806e-05 0.104235)
(-4.06478e-05 4.0666e-05 0.104351)
(6.32838e-06 1.13538e-05 0.107454)
(-6.26764e-06 1.12397e-05 0.107451)
(6.27274e-06 1.12371e-05 0.107451)
(4.06676e-05 4.06516e-05 0.104351)
(2.38411e-05 2.38285e-05 0.104243)
(-4.04806e-05 -4.04827e-05 0.104359)
(-6.25859e-06 -1.12118e-05 0.10745)
(6.25696e-06 -1.12109e-05 0.107449)
(-6.18e-06 -1.10583e-05 0.107447)
(6.17737e-06 -1.10581e-05 0.107446)
(-2.3839e-05 2.38062e-05 0.104243)
(4.04819e-05 -4.04767e-05 0.104359)
(-1.12308e-05 -6.28688e-06 0.107451)
(-1.12112e-05 6.25787e-06 0.107449)
(-1.10792e-05 -6.20608e-06 0.107448)
(-1.10572e-05 6.179e-06 0.107446)
(1.1214e-05 6.25574e-06 0.107449)
(1.10802e-05 -6.2032e-06 0.107449)
(1.10602e-05 6.17727e-06 0.107446)
(2.38111e-05 -2.38594e-05 0.104243)
(-4.04676e-05 4.04868e-05 0.104359)
(6.28527e-06 1.12395e-05 0.107451)
(-6.20082e-06 1.10882e-05 0.107448)
(6.20537e-06 1.10865e-05 0.107448)
(4.04868e-05 4.04732e-05 0.104359)
(2.39447e-05 2.39344e-05 0.104251)
(-4.0294e-05 -4.02936e-05 0.104367)
(-6.19831e-06 -1.10653e-05 0.107447)
(6.19487e-06 -1.10655e-05 0.107446)
(-6.09376e-06 -1.08744e-05 0.107444)
(6.08895e-06 -1.0875e-05 0.107444)
(-2.39441e-05 2.39098e-05 0.104251)
(4.02932e-05 -4.02894e-05 0.104367)
(-1.10851e-05 -6.22407e-06 0.107448)
(-1.10647e-05 6.19651e-06 0.107446)
(-1.08968e-05 -6.11739e-06 0.107446)
(-1.08732e-05 6.09176e-06 0.107443)
(1.10668e-05 6.1951e-06 0.107446)
(1.08956e-05 -6.11607e-06 0.107446)
(1.08754e-05 6.09031e-06 0.107444)
(2.39163e-05 -2.39637e-05 0.104251)
(-4.0279e-05 4.02993e-05 0.104367)
(6.22269e-06 1.10937e-05 0.107448)
(-6.11286e-06 1.0904e-05 0.107446)
(6.11677e-06 1.09028e-05 0.107445)
(4.02977e-05 4.02858e-05 0.104366)
(2.40714e-05 2.40634e-05 0.10426)
(-4.00985e-05 -4.0096e-05 0.104375)
(-6.12061e-06 -1.08919e-05 0.107445)
(6.11442e-06 -1.08926e-05 0.107444)
(-5.98639e-06 -1.0659e-05 0.107442)
(5.97907e-06 -1.06602e-05 0.107441)
(-2.40728e-05 2.40372e-05 0.10426)
(4.00954e-05 -4.00929e-05 0.104376)
(-1.09124e-05 -6.14383e-06 0.107446)
(-1.08911e-05 6.11777e-06 0.107444)
(-1.06829e-05 -6.00799e-06 0.107444)
(-1.06578e-05 5.98419e-06 0.107441)
(1.08924e-05 6.11635e-06 0.107444)
(1.06803e-05 -6.00769e-06 0.107444)
(1.06598e-05 5.98228e-06 0.107442)
(2.40448e-05 -2.40911e-05 0.10426)
(-4.00818e-05 4.01031e-05 0.104375)
(6.14251e-06 1.09203e-05 0.107446)
(-6.00413e-06 1.06892e-05 0.107443)
(6.00779e-06 1.06878e-05 0.107443)
(4.01e-05 4.00893e-05 0.104375)
(2.4219e-05 2.42129e-05 0.104269)
(-3.98917e-05 -3.98872e-05 0.104384)
(-6.02754e-06 -1.06953e-05 0.107443)
(6.01895e-06 -1.06969e-05 0.107442)
(-5.85694e-06 -1.04099e-05 0.10744)
(5.84819e-06 -1.04118e-05 0.10744)
(-2.42228e-05 2.41856e-05 0.104269)
(3.98869e-05 -3.98857e-05 0.104384)
(-1.07168e-05 -6.04865e-06 0.107444)
(-1.06945e-05 6.02448e-06 0.107442)
(-1.04345e-05 -5.87642e-06 0.107442)
(-1.04083e-05 5.85477e-06 0.107439)
(1.06961e-05 6.02259e-06 0.107443)
(1.04315e-05 -5.87798e-06 0.107442)
(1.04113e-05 5.85231e-06 0.10744)
(2.41941e-05 -2.42393e-05 0.104269)
(-3.98736e-05 3.9896e-05 0.104384)
(6.0479e-06 1.07243e-05 0.107444)
(-5.87371e-06 1.04407e-05 0.107442)
(5.87746e-06 1.04392e-05 0.107441)
(3.98922e-05 3.98816e-05 0.104383)
(2.43826e-05 2.43781e-05 0.104278)
(-3.96725e-05 -3.96662e-05 0.104393)
(-5.92179e-06 -1.048e-05 0.107442)
(5.91182e-06 -1.0482e-05 0.107441)
(-5.70501e-06 -1.01241e-05 0.107439)
(5.69509e-06 -1.01268e-05 0.107438)
(-2.43894e-05 2.43513e-05 0.104278)
(3.96649e-05 -3.96646e-05 0.104393)
(-1.05025e-05 -5.94093e-06 0.107443)
(-1.04789e-05 5.91851e-06 0.107441)
(-1.01496e-05 -5.72265e-06 0.10744)
(-1.01226e-05 5.70316e-06 0.107438)
(1.04813e-05 5.91621e-06 0.107441)
(1.01457e-05 -5.72553e-06 0.107441)
(1.01263e-05 5.70002e-06 0.107438)
(2.43604e-05 -2.44051e-05 0.104278)
(-3.96525e-05 3.96763e-05 0.104392)
(5.94134e-06 1.05093e-05 0.107443)
(-5.72061e-06 1.01551e-05 0.10744)
(5.72533e-06 1.01538e-05 0.10744)
(3.96713e-05 3.96603e-05 0.104392)
(2.45679e-05 2.45652e-05 0.104287)
(-3.94423e-05 -3.94338e-05 0.104402)
(-5.8082e-06 -1.02521e-05 0.107441)
(5.7971e-06 -1.02551e-05 0.107441)
(-5.52687e-06 -9.7995e-06 0.107438)
(5.51616e-06 -9.80299e-06 0.107437)
(-2.4575e-05 2.45359e-05 0.104287)
(3.94301e-05 -3.94307e-05 0.104402)
(-1.02756e-05 -5.82534e-06 0.107443)
(-1.02513e-05 5.80456e-06 0.10744)
(-9.82619e-06 -5.5426e-06 0.107439)
(-9.79824e-06 5.52545e-06 0.107436)
(1.02542e-05 5.80217e-06 0.107441)
(9.82094e-06 -5.54749e-06 0.10744)
(9.80195e-06 5.52086e-06 0.107437)
(2.45472e-05 -2.45919e-05 0.104287)
(-3.94167e-05 3.9441e-05 0.104401)
(5.82753e-06 1.02818e-05 0.107442)
(-5.54206e-06 9.83076e-06 0.107439)
(5.5464e-06 9.82895e-06 0.107438)
(3.94371e-05 3.94259e-05 0.104401)
(2.4762e-05 2.47612e-05 0.104297)
(-3.91863e-05 -3.9175e-05 0.104411)
(-5.68963e-06 -1.00223e-05 0.107441)
(5.6768e-06 -1.00262e-05 0.107441)
(-5.32262e-06 -9.43157e-06 0.107437)
(5.30962e-06 -9.43623e-06 0.107436)
(-2.47699e-05 2.47301e-05 0.104297)
(3.91733e-05 -3.91744e-05 0.104411)
(-1.0047e-05 -5.70466e-06 0.107443)
(-1.00222e-05 5.68576e-06 0.10744)
(-9.4599e-06 -5.33629e-06 0.107438)
(-9.43126e-06 5.32034e-06 0.107435)
(1.00248e-05 5.68249e-06 0.107441)
(9.45284e-06 -5.34208e-06 0.107439)
(9.43463e-06 5.31503e-06 0.107436)
(2.47403e-05 -2.47838e-05 0.104296)
(-3.91589e-05 3.91838e-05 0.104411)
(5.70806e-06 1.0052e-05 0.107442)
(-5.33666e-06 9.463e-06 0.107438)
(5.3409e-06 9.46115e-06 0.107437)
(3.91788e-05 3.91672e-05 0.10441)
(2.49596e-05 2.49611e-05 0.104306)
(-3.88811e-05 -3.88675e-05 0.10442)
(-5.56763e-06 -9.79216e-06 0.107442)
(5.55196e-06 -9.79685e-06 0.107441)
(-5.09607e-06 -9.01528e-06 0.107436)
(5.08192e-06 -9.0215e-06 0.107435)
(-2.49687e-05 2.49284e-05 0.104306)
(3.88703e-05 -3.88711e-05 0.104421)
(-9.81845e-06 -5.58001e-06 0.107443)
(-9.7928e-06 5.56243e-06 0.107441)
(-9.04527e-06 -5.10736e-06 0.107437)
(-9.01559e-06 5.09283e-06 0.107434)
(9.79482e-06 5.55837e-06 0.107441)
(9.03705e-06 -5.11433e-06 0.107438)
(9.0188e-06 5.08608e-06 0.107435)
(2.49381e-05 -2.49805e-05 0.104306)
(-3.88584e-05 3.88831e-05 0.10442)
(5.58438e-06 9.82136e-06 0.107443)
(-5.10809e-06 9.04713e-06 0.107437)
(5.11239e-06 9.04436e-06 0.107436)
(3.88768e-05 3.88649e-05 0.10442)
(2.51395e-05 2.51427e-05 0.104316)
(-3.84883e-05 -3.84734e-05 0.10443)
(-5.44938e-06 -9.5816e-06 0.107443)
(5.43307e-06 -9.58755e-06 0.107442)
(-4.85336e-06 -8.54144e-06 0.107435)
(4.84044e-06 -8.54843e-06 0.107434)
(-2.51506e-05 2.5111e-05 0.104316)
(3.8476e-05 -3.84765e-05 0.10443)
(-9.60957e-06 -5.45917e-06 0.107444)
(-9.58321e-06 5.44357e-06 0.107442)
(-8.57209e-06 -4.86305e-06 0.107436)
(-8.54237e-06 4.85129e-06 0.107433)
(9.5851e-06 5.43825e-06 0.107443)
(8.56357e-06 -4.87158e-06 0.107436)
(8.5471e-06 4.84491e-06 0.107434)
(2.5121e-05 -2.51627e-05 0.104316)
(-3.84653e-05 3.84902e-05 0.104429)
(5.46478e-06 9.61054e-06 0.107444)
(-4.86476e-06 8.57435e-06 0.107436)
(4.87175e-06 8.57185e-06 0.107435)
(3.84753e-05 3.84638e-05 0.104429)
(2.52522e-05 2.52562e-05 0.104326)
(-3.7865e-05 -3.78494e-05 0.104439)
(-5.32622e-06 -9.40928e-06 0.107445)
(5.30934e-06 -9.41509e-06 0.107444)
(-4.63181e-06 -8.01088e-06 0.107433)
(4.61886e-06 -8.0175e-06 0.107432)
(-2.5263e-05 2.52244e-05 0.104325)
(3.78558e-05 -3.78566e-05 0.104439)
(-9.43761e-06 -5.33428e-06 0.107447)
(-9.4116e-06 5.32097e-06 0.107444)
(-8.04192e-06 -4.63975e-06 0.107434)
(-8.01117e-06 4.63127e-06 0.107432)
(9.4149e-06 5.31537e-06 0.107445)
(8.03301e-06 -4.64912e-06 0.107435)
(8.01678e-06 4.62181e-06 0.107433)
(2.5235e-05 -2.52736e-05 0.104325)
(-3.78447e-05 3.78675e-05 0.104438)
(5.34296e-06 9.43921e-06 0.107446)
(-4.64174e-06 8.04364e-06 0.107434)
(4.64908e-06 8.04108e-06 0.107434)
(3.78611e-05 3.78509e-05 0.104438)
(2.51233e-05 2.51281e-05 0.104336)
(-3.64999e-05 -3.64832e-05 0.104446)
(-5.15319e-06 -9.2833e-06 0.107448)
(5.13466e-06 -9.288e-06 0.107448)
(-4.5722e-06 -7.47213e-06 0.107431)
(4.56125e-06 -7.47897e-06 0.10743)
(-2.51347e-05 2.50982e-05 0.104336)
(3.64911e-05 -3.64941e-05 0.104446)
(-9.31243e-06 -5.16008e-06 0.10745)
(-9.28515e-06 5.14783e-06 0.107447)
(-7.5041e-06 -4.57702e-06 0.107432)
(-7.47162e-06 4.57431e-06 0.10743)
(9.28957e-06 5.14176e-06 0.107448)
(7.49468e-06 -4.58802e-06 0.107433)
(7.47765e-06 4.56255e-06 0.107431)
(2.5111e-05 -2.51414e-05 0.104336)
(-3.64866e-05 3.65008e-05 0.104445)
(5.17041e-06 9.31344e-06 0.107449)
(-4.58003e-06 7.50643e-06 0.107432)
(4.58772e-06 7.50177e-06 0.107432)
(3.6494e-05 3.64905e-05 0.104445)
(2.41198e-05 2.41284e-05 0.104348)
(-3.26081e-05 -3.25794e-05 0.104446)
(-4.7727e-06 -9.13949e-06 0.107453)
(4.75188e-06 -9.14452e-06 0.107452)
(-5.08094e-06 -7.09305e-06 0.107428)
(5.07474e-06 -7.10321e-06 0.107427)
(-2.41315e-05 2.4102e-05 0.104348)
(3.25829e-05 -3.26016e-05 0.104447)
(-9.17553e-06 -4.77871e-06 0.107454)
(-9.14419e-06 4.76837e-06 0.107452)
(-7.13129e-06 -5.0749e-06 0.10743)
(-7.10217e-06 5.09025e-06 0.107427)
(9.15085e-06 4.76307e-06 0.107452)
(7.11558e-06 -5.0917e-06 0.10743)
(7.10348e-06 5.07178e-06 0.107428)
(2.41172e-05 -2.41333e-05 0.104348)
(-3.25982e-05 3.25945e-05 0.104446)
(4.79132e-06 9.17662e-06 0.107453)
(-5.08413e-06 7.13326e-06 0.107429)
(5.08505e-06 7.12568e-06 0.107429)
(3.25864e-05 3.25887e-05 0.104446)
(1.99718e-05 1.99919e-05 0.104368)
(-2.21979e-05 -2.22055e-05 0.104422)
(-3.5784e-06 -8.62556e-06 0.107459)
(3.54924e-06 -8.6269e-06 0.107458)
(-8.10725e-06 -9.14947e-06 0.107424)
(8.07908e-06 -9.14602e-06 0.107423)
(-1.99758e-05 1.99736e-05 0.104368)
(2.21347e-05 -2.22156e-05 0.104423)
(-8.66201e-06 -3.58781e-06 0.10746)
(-8.6391e-06 3.57577e-06 0.107458)
(-9.17451e-06 -8.05012e-06 0.107425)
(-9.17723e-06 8.11475e-06 0.107423)
(8.64429e-06 3.57529e-06 0.107458)
(9.12757e-06 -8.04818e-06 0.107426)
(9.1687e-06 8.08161e-06 0.107423)
(1.99929e-05 -1.99698e-05 0.104368)
(-2.22306e-05 2.21746e-05 0.104422)
(3.5951e-06 8.65868e-06 0.10746)
(-8.07368e-06 9.16875e-06 0.107425)
(8.06056e-06 9.14071e-06 0.107425)
(2.21974e-05 2.21616e-05 0.104422)
(4.87539e-06 4.95593e-06 0.104423)
(-4.13392e-05 -4.11867e-05 0.104382)
(-2.13948e-06 -1.05583e-05 0.10747)
(2.07242e-06 -1.05365e-05 0.107469)
(-3.76328e-05 -5.54999e-05 0.107479)
(3.76125e-05 -5.55255e-05 0.107479)
(-4.91613e-06 4.96272e-06 0.104423)
(4.1274e-05 -4.11975e-05 0.104382)
(-1.06525e-05 -2.09478e-06 0.107471)
(-1.06333e-05 2.13135e-06 0.107469)
(-5.56645e-05 -3.74769e-05 0.107481)
(-5.56024e-05 3.76459e-05 0.107479)
(1.06205e-05 2.13706e-06 0.107469)
(5.55962e-05 -3.74693e-05 0.107481)
(5.5612e-05 3.76308e-05 0.107479)
(4.91434e-06 -4.87991e-06 0.104423)
(-4.12881e-05 4.12846e-05 0.104382)
(2.12009e-06 1.0623e-05 0.107471)
(-3.75544e-05 5.56051e-05 0.107481)
(3.75829e-05 5.56333e-05 0.10748)
(4.1268e-05 4.12798e-05 0.104381)
(-4.08952e-05 -4.07212e-05 0.104781)
(-5.99923e-05 -0.000121251 0.107729)
(5.99738e-05 -0.000121299 0.107728)
(4.086e-05 -4.07587e-05 0.10478)
(-0.000121484 -5.98176e-05 0.10773)
(-0.000121441 6.00208e-05 0.107728)
(2.50012e-05 -2.48538e-05 0.112034)
(-2.49849e-05 2.50643e-05 0.112034)
(2.49944e-05 2.50372e-05 0.112034)
(0.000121431 6.00101e-05 0.107729)
(-4.0887e-05 4.08965e-05 0.10478)
(5.99593e-05 0.000121504 0.10773)
(-2.89187e-07 -1.65727e-05 0.0914274)
(-1.24205e-06 -1.20182e-05 0.0822863)
(3.3406e-06 -5.88794e-06 0.0716037)
(-1.6599e-05 -3.13526e-07 0.0914269)
(-1.20305e-05 -1.21852e-06 0.0822867)
(-1.01992e-05 -1.0189e-05 0.112452)
(1.01963e-05 -1.0186e-05 0.112452)
(-1.01911e-05 1.02096e-05 0.112451)
(1.01959e-05 1.0204e-05 0.112451)
(2.72664e-05 -6.93641e-07 0.098581)
(1.1308e-05 -6.12109e-06 0.107489)
(2.03752e-05 -7.77076e-06 0.0930683)
(1.43984e-05 -2.60896e-06 0.109908)
(-5.83387e-06 3.29943e-06 0.0716051)
(-6.94812e-07 2.72322e-05 0.0985812)
(-6.11925e-06 1.13219e-05 0.107489)
(-2.60421e-06 1.44135e-05 0.109907)
(-7.79237e-06 2.04255e-05 0.0930681)
(4.16299e-05 4.16109e-05 0.104317)
(9.88896e-06 6.91134e-06 0.0876076)
(6.97818e-06 9.86224e-06 0.0876057)
(-2.86955e-07 -1.65106e-05 0.0914585)
(6.44594e-07 7.16539e-06 0.0822603)
(-2.39223e-07 4.97469e-06 0.091406)
(-1.27201e-06 -1.1953e-05 0.0823196)
(-2.52493e-06 4.37777e-06 0.0715725)
(3.38395e-06 -5.83524e-06 0.0716337)
(-1.65378e-05 -3.12657e-07 0.091458)
(7.18685e-06 5.73582e-07 0.0822595)
(5.01017e-06 -2.53376e-07 0.0914065)
(-1.19634e-05 -1.24778e-06 0.08232)
(1.02734e-05 -1.02631e-05 0.112443)
(-1.02675e-05 1.02848e-05 0.112443)
(1.02725e-05 1.02808e-05 0.112443)
(-1.04626e-05 -1.04571e-05 0.112417)
(1.04637e-05 -1.0451e-05 0.112417)
(-1.04546e-05 1.04723e-05 0.112416)
(1.04643e-05 1.04669e-05 0.112416)
(2.72341e-05 -6.91842e-07 0.0986025)
(-8.76852e-06 3.05845e-06 0.0930329)
(1.46303e-05 -2.66259e-06 0.109894)
(1.14071e-05 -6.21355e-06 0.107481)
(-7.9928e-06 -4.45968e-07 0.098541)
(2.0309e-05 -7.76617e-06 0.0930972)
(1.46876e-05 -2.67577e-06 0.109889)
(4.30883e-06 -2.49758e-06 0.0715699)
(-5.78178e-06 3.34428e-06 0.0716351)
(-6.91834e-07 2.71981e-05 0.0986027)
(-2.65542e-06 1.46446e-05 0.109893)
(3.09219e-06 -8.80427e-06 0.0930337)
(-6.21121e-06 1.14211e-05 0.107481)
(-4.13618e-07 -7.95331e-06 0.098541)
(-2.66749e-06 1.47032e-05 0.109889)
(-7.79139e-06 2.03597e-05 0.093097)
(-3.61712e-06 -3.46294e-06 0.0875817)
(-3.44219e-06 -3.62549e-06 0.0875804)
(4.15078e-05 4.14856e-05 0.10432)
(9.81053e-06 6.92571e-06 0.0876392)
(6.99176e-06 9.78303e-06 0.0876374)
(-2.88692e-07 -1.64391e-05 0.0914897)
(6.06851e-07 7.20472e-06 0.0822935)
(-2.4123e-07 4.99013e-06 0.0914373)
(-1.30265e-06 -1.18812e-05 0.0823525)
(-2.47497e-06 4.40385e-06 0.0716022)
(3.42636e-06 -5.78369e-06 0.0716632)
(-1.64673e-05 -3.1337e-07 0.0914892)
(7.2251e-06 5.37738e-07 0.0822926)
(5.02595e-06 -2.53765e-07 0.0914378)
(-1.18965e-05 -1.27562e-06 0.0823529)
(1.05272e-05 -1.05157e-05 0.112408)
(-1.05189e-05 1.05356e-05 0.112407)
(1.05252e-05 1.05312e-05 0.112407)
(-1.06685e-05 -1.06658e-05 0.112381)
(1.06716e-05 -1.06594e-05 0.112381)
(-1.06621e-05 1.06787e-05 0.11238)
(1.06725e-05 1.06731e-05 0.11238)
(2.71811e-05 -6.90953e-07 0.0986244)
(-8.81277e-06 3.0406e-06 0.0930619)
(1.48691e-05 -2.72105e-06 0.109876)
(1.14645e-05 -6.27911e-06 0.107474)
(-7.96628e-06 -4.46641e-07 0.098563)
(2.02308e-05 -7.74978e-06 0.0931261)
(1.49058e-05 -2.73064e-06 0.109872)
(4.33396e-06 -2.4498e-06 0.0715997)
(-5.73137e-06 3.38282e-06 0.0716646)
(-6.94847e-07 2.71423e-05 0.0986246)
(-2.71279e-06 1.48817e-05 0.109875)
(3.07542e-06 -8.85047e-06 0.0930627)
(-6.27579e-06 1.14763e-05 0.107474)
(-4.14054e-07 -7.9254e-06 0.098563)
(-2.72185e-06 1.49192e-05 0.109871)
(-7.77422e-06 2.02788e-05 0.0931259)
(-3.6742e-06 -3.4389e-06 0.0876134)
(-3.41903e-06 -3.68173e-06 0.0876121)
(4.13726e-05 4.13503e-05 0.104324)
(9.72803e-06 6.93099e-06 0.0876706)
(6.99694e-06 9.70004e-06 0.0876687)
(-2.8827e-07 -1.63555e-05 0.0915208)
(5.7175e-07 7.25128e-06 0.0823262)
(-2.45119e-07 5.02501e-06 0.0914685)
(-1.33063e-06 -1.18097e-05 0.0823849)
(-2.43014e-06 4.43129e-06 0.0716314)
(3.46291e-06 -5.73361e-06 0.0716921)
(-1.63837e-05 -3.10745e-07 0.0915202)
(7.27054e-06 5.0413e-07 0.0823253)
(5.06015e-06 -2.56251e-07 0.091469)
(-1.18245e-05 -1.30162e-06 0.0823853)
(1.07235e-05 -1.07129e-05 0.112373)
(-1.07146e-05 1.07302e-05 0.112372)
(1.07234e-05 1.07256e-05 0.112372)
(-1.08212e-05 -1.08208e-05 0.112347)
(1.08252e-05 -1.08139e-05 0.112347)
(-1.08158e-05 1.08305e-05 0.112346)
(1.08259e-05 1.08254e-05 0.112346)
(2.70999e-05 -6.87363e-07 0.0986466)
(-8.87394e-06 3.03679e-06 0.0930909)
(1.50387e-05 -2.76591e-06 0.109859)
(1.14794e-05 -6.31917e-06 0.107468)
(-7.97093e-06 -4.46638e-07 0.0985854)
(2.01409e-05 -7.72876e-06 0.0931549)
(1.50534e-05 -2.77227e-06 0.109855)
(4.36151e-06 -2.4065e-06 0.0716289)
(-5.68088e-06 3.4196e-06 0.0716936)
(-6.9242e-07 2.70577e-05 0.0986468)
(-2.75783e-06 1.50491e-05 0.109858)
(3.0699e-06 -8.91476e-06 0.0930917)
(-6.31516e-06 1.14885e-05 0.107467)
(-4.10768e-07 -7.93397e-06 0.0985854)
(-2.7626e-06 1.50639e-05 0.109854)
(-7.75383e-06 2.01874e-05 0.0931546)
(-3.73659e-06 -3.42153e-06 0.0876447)
(-3.40416e-06 -3.74534e-06 0.0876434)
(4.12339e-05 4.12099e-05 0.104329)
(9.64194e-06 6.93209e-06 0.0877017)
(6.9953e-06 9.61379e-06 0.0876998)
(-2.87294e-07 -1.62594e-05 0.0915516)
(5.36629e-07 7.30586e-06 0.0823583)
(-2.46411e-07 5.07677e-06 0.0914996)
(-1.3573e-06 -1.17337e-05 0.0824169)
(-2.39064e-06 4.46026e-06 0.07166)
(3.49487e-06 -5.68472e-06 0.0717205)
(-1.62873e-05 -3.04892e-07 0.0915511)
(7.32304e-06 4.72322e-07 0.0823575)
(5.11175e-06 -2.53646e-07 0.0915001)
(-1.17518e-05 -1.324e-06 0.0824173)
(1.0867e-05 -1.08571e-05 0.112338)
(-1.08579e-05 1.08718e-05 0.112338)
(1.08658e-05 1.08682e-05 0.112338)
(-1.09229e-05 -1.09231e-05 0.112313)
(1.09274e-05 -1.09166e-05 0.112313)
(-1.09177e-05 1.09312e-05 0.112312)
(1.09275e-05 1.09275e-05 0.112312)
(2.69962e-05 -6.79988e-07 0.0986691)
(-8.95161e-06 3.03912e-06 0.0931197)
(1.51423e-05 -2.79879e-06 0.109842)
(1.14543e-05 -6.33435e-06 0.107463)
(-8.00765e-06 -4.42682e-07 0.098608)
(2.00393e-05 -7.7036e-06 0.0931836)
(1.51346e-05 -2.80113e-06 0.109838)
(4.39178e-06 -2.36436e-06 0.0716575)
(-5.63018e-06 3.45523e-06 0.0717219)
(-6.87883e-07 2.6956e-05 0.0986692)
(-2.79019e-06 1.51524e-05 0.109842)
(3.07152e-06 -8.99407e-06 0.0931205)
(-6.33009e-06 1.14624e-05 0.107462)
(-4.08353e-07 -7.97198e-06 0.0986081)
(-2.79102e-06 1.51445e-05 0.109838)
(-7.7301e-06 2.00849e-05 0.0931833)
(-3.80588e-06 -3.41399e-06 0.0876756)
(-3.39932e-06 -3.81295e-06 0.0876743)
(4.1082e-05 4.10604e-05 0.104334)
(9.55054e-06 6.92672e-06 0.0877324)
(6.98581e-06 9.52469e-06 0.0877306)
(-2.84536e-07 -1.61521e-05 0.0915822)
(5.05053e-07 7.36532e-06 0.0823899)
(-2.47086e-07 5.14509e-06 0.0915304)
(-1.37923e-06 -1.16572e-05 0.0824483)
(-2.35707e-06 4.48973e-06 0.071688)
(3.52253e-06 -5.63755e-06 0.0717483)
(-1.61809e-05 -2.98109e-07 0.0915817)
(7.38032e-06 4.4533e-07 0.0823891)
(5.17933e-06 -2.49792e-07 0.0915309)
(-1.16779e-05 -1.34077e-06 0.0824486)
(1.09608e-05 -1.09513e-05 0.112305)
(-1.09519e-05 1.09648e-05 0.112304)
(1.09595e-05 1.09619e-05 0.112304)
(-1.09757e-05 -1.09762e-05 0.112279)
(1.09804e-05 -1.09699e-05 0.112279)
(-1.0971e-05 1.09824e-05 0.112278)
(1.09802e-05 1.09806e-05 0.112278)
(2.68705e-05 -6.70101e-07 0.0986917)
(-9.0437e-06 3.05085e-06 0.0931484)
(1.51828e-05 -2.82227e-06 0.109827)
(1.13914e-05 -6.32562e-06 0.107458)
(-8.07444e-06 -4.37998e-07 0.0986308)
(1.99283e-05 -7.67206e-06 0.093212)
(1.51515e-05 -2.81902e-06 0.109823)
(4.42284e-06 -2.32661e-06 0.0716854)
(-5.58126e-06 3.48628e-06 0.0717497)
(-6.80854e-07 2.68318e-05 0.0986919)
(-2.81207e-06 1.51917e-05 0.109826)
(3.08082e-06 -9.08465e-06 0.0931491)
(-6.32156e-06 1.13989e-05 0.107457)
(-4.04223e-07 -8.03982e-06 0.0986309)
(-2.80859e-06 1.51606e-05 0.109822)
(-7.69892e-06 1.99747e-05 0.0932117)
(-3.8806e-06 -3.41324e-06 0.0877062)
(-3.4038e-06 -3.88445e-06 0.0877049)
(4.09205e-05 4.09008e-05 0.104341)
(9.45588e-06 6.91629e-06 0.0877628)
(6.97027e-06 9.43317e-06 0.0877609)
(-2.81681e-07 -1.60354e-05 0.0916124)
(4.76588e-07 7.42925e-06 0.0824209)
(-2.47842e-07 5.22682e-06 0.0915608)
(-1.39613e-06 -1.15797e-05 0.082479)
(-2.32795e-06 4.51902e-06 0.0717152)
(3.54407e-06 -5.59265e-06 0.0717754)
(-1.60645e-05 -2.90317e-07 0.0916119)
(7.4422e-06 4.21744e-07 0.08242)
(5.26178e-06 -2.44766e-07 0.0915613)
(-1.16034e-05 -1.35262e-06 0.0824793)
(1.10081e-05 -1.0999e-05 0.112271)
(-1.09995e-05 1.10103e-05 0.112271)
(1.10064e-05 1.10093e-05 0.112271)
(-1.09823e-05 -1.09822e-05 0.112246)
(1.09865e-05 -1.09762e-05 0.112246)
(-1.09771e-05 1.09883e-05 0.112245)
(1.09854e-05 1.09869e-05 0.112246)
(2.67238e-05 -6.58297e-07 0.0987144)
(-9.14904e-06 3.06995e-06 0.0931767)
(1.51644e-05 -2.83196e-06 0.109812)
(1.12942e-05 -6.29498e-06 0.107454)
(-8.16999e-06 -4.31139e-07 0.0986537)
(1.98071e-05 -7.63524e-06 0.0932402)
(1.51091e-05 -2.82444e-06 0.109807)
(4.45448e-06 -2.29459e-06 0.0717126)
(-5.53422e-06 3.51158e-06 0.0717767)
(-6.74532e-07 2.66861e-05 0.0987146)
(-2.82126e-06 1.51733e-05 0.109811)
(3.1018e-06 -9.18977e-06 0.0931774)
(-6.29274e-06 1.13026e-05 0.107453)
(-3.99485e-07 -8.13388e-06 0.0986538)
(-2.81407e-06 1.51184e-05 0.109807)
(-7.66133e-06 1.98538e-05 0.0932399)
(-3.95935e-06 -3.41989e-06 0.0877362)
(-3.41416e-06 -3.96067e-06 0.0877349)
(4.07528e-05 4.07357e-05 0.104347)
(9.35881e-06 6.89936e-06 0.0877926)
(6.94991e-06 9.33834e-06 0.0877907)
(-2.74887e-07 -1.59086e-05 0.0916422)
(4.50892e-07 7.49631e-06 0.082451)
(-2.46348e-07 5.32347e-06 0.0915908)
(-1.40706e-06 -1.15015e-05 0.0825091)
(-2.30464e-06 4.54763e-06 0.0717416)
(3.5595e-06 -5.54993e-06 0.0718018)
(-1.59376e-05 -2.80651e-07 0.0916417)
(7.50782e-06 3.99188e-07 0.0824502)
(5.35852e-06 -2.38269e-07 0.0915914)
(-1.15278e-05 -1.35946e-06 0.0825094)
(1.10114e-05 -1.10029e-05 0.112239)
(-1.10035e-05 1.10137e-05 0.112238)
(1.10091e-05 1.10131e-05 0.112238)
(-1.0945e-05 -1.09443e-05 0.112214)
(1.09477e-05 -1.09392e-05 0.112214)
(-1.09388e-05 1.095e-05 0.112213)
(1.09463e-05 1.09491e-05 0.112213)
(2.6559e-05 -6.45497e-07 0.0987371)
(-9.26778e-06 3.09548e-06 0.0932047)
(1.50898e-05 -2.83009e-06 0.109797)
(1.11603e-05 -6.24051e-06 0.10745)
(-8.2947e-06 -4.22507e-07 0.0986766)
(1.96734e-05 -7.59289e-06 0.093268)
(1.50117e-05 -2.81859e-06 0.109793)
(4.48573e-06 -2.26856e-06 0.0717389)
(-5.48887e-06 3.53061e-06 0.0718032)
(-6.63548e-07 2.65214e-05 0.0987373)
(-2.82081e-06 1.5099e-05 0.109797)
(3.12629e-06 -9.3083e-06 0.0932054)
(-6.2387e-06 1.11687e-05 0.10745)
(-3.92591e-07 -8.25986e-06 0.0986767)
(-2.80947e-06 1.50211e-05 0.109792)
(-7.61898e-06 1.97211e-05 0.0932677)