/*--------------------------------*- C++ -*----------------------------------*\
| =========                 |                                                 |
| \\      /  F ield         | OpenFOAM: The Open Source CFD Toolbox           |
|  \\    /   O peration     | Version:  v1906                                 |
|   \\  /    A nd           | Web:      www.OpenFOAM.com                      |
|    \\/     M anipulation  |                                                 |
\*---------------------------------------------------------------------------*/
FoamFile
{
    version     2.0;
    format      ascii;
    class       volScalarField;
    location    "1000";
    object      k;
}
// * * * * * * * * * * * * * * * * * * * * * * * * * * * * * * * * * * * * * //

dimensions      [0 2 -2 0 0 0 0];


internalField   nonuniform List<scalar> 
171728
(
3.58932e-05
3.58912e-05
3.58912e-05
3.59957e-05
3.39296e-05
3.3889e-05
3.3889e-05
3.39622e-05
3.21578e-05
3.20081e-05
3.20081e-05
3.19522e-05
3.05346e-05
3.02293e-05
3.02292e-05
2.99884e-05
2.90329e-05
2.8554e-05
2.85539e-05
2.81226e-05
2.76353e-05
2.69872e-05
2.69871e-05
2.63907e-05
2.63307e-05
2.5531e-05
2.55309e-05
2.48073e-05
2.51112e-05
2.4185e-05
2.41848e-05
2.33782e-05
2.39709e-05
2.29506e-05
2.29504e-05
2.21047e-05
2.29058e-05
2.18269e-05
2.18267e-05
2.0986e-05
2.1912e-05
2.08114e-05
2.08112e-05
2.00133e-05
2.09865e-05
1.99013e-05
1.99011e-05
1.91814e-05
2.01241e-05
1.90947e-05
1.90946e-05
1.84896e-05
1.93239e-05
1.83885e-05
1.83884e-05
1.79331e-05
1.85847e-05
1.77793e-05
1.77793e-05
1.75064e-05
1.79042e-05
1.72656e-05
1.72656e-05
1.72003e-05
1.72798e-05
1.68465e-05
1.68466e-05
1.70226e-05
1.67096e-05
1.6521e-05
1.65212e-05
1.69814e-05
1.61923e-05
1.62894e-05
1.62896e-05
1.70786e-05
1.57254e-05
1.61517e-05
1.61522e-05
1.7304e-05
1.53072e-05
1.61071e-05
1.61076e-05
1.76567e-05
1.49372e-05
1.61529e-05
1.61534e-05
1.81331e-05
1.46142e-05
1.62912e-05
1.6292e-05
1.87264e-05
1.43381e-05
1.65195e-05
1.65209e-05
1.94283e-05
1.41078e-05
1.68354e-05
1.68357e-05
2.02189e-05
1.39237e-05
1.72346e-05
1.7237e-05
2.10947e-05
1.37858e-05
1.77168e-05
1.77182e-05
2.20435e-05
1.36898e-05
1.82751e-05
1.82748e-05
2.30259e-05
1.36413e-05
1.89073e-05
1.89102e-05
2.40699e-05
1.36439e-05
1.95927e-05
1.95978e-05
2.51453e-05
1.36773e-05
2.03594e-05
2.03538e-05
2.61878e-05
1.37649e-05
2.11667e-05
2.11727e-05
2.72683e-05
1.39097e-05
2.20124e-05
2.20139e-05
2.83568e-05
1.40944e-05
2.29729e-05
2.29853e-05
2.94834e-05
1.43058e-05
2.3891e-05
2.38641e-05
3.04371e-05
1.45511e-05
2.48275e-05
2.48666e-05
3.1461e-05
1.49648e-05
2.58731e-05
2.58453e-05
3.26844e-05
1.53381e-05
2.67741e-05
2.68074e-05
3.34035e-05
1.5474e-05
2.77805e-05
2.7967e-05
3.37047e-05
1.63469e-05
2.94389e-05
2.90945e-05
3.66733e-05
1.64797e-05
2.9598e-05
2.95062e-05
3.54948e-05
1.64812e-05
2.95477e-05
2.94152e-05
3.42622e-05
1.82904e-05
3.24994e-05
3.3765e-05
4.21995e-05
2.04321e-05
3.53152e-05
3.73243e-05
4.08102e-05
2.10799e-05
3.69053e-05
3.37865e-05
3.95171e-05
2.0331e-05
3.63129e-05
3.22343e-05
4.10069e-05
1.58397e-05
3.03034e-05
3.31595e-05
3.33182e-05
1.76887e-05
3.12067e-05
3.45764e-05
4.17752e-05
2.53464e-05
4.01974e-05
4.02863e-05
5.22695e-05
2.27709e-05
3.88205e-05
3.80785e-05
4.54909e-05
2.165e-05
3.90272e-05
3.80216e-05
3.61077e-05
2.91358e-05
4.41826e-05
4.24522e-05
3.96024e-05
3.02931e-05
4.18793e-05
4.12228e-05
4.8845e-05
2.63253e-05
3.92407e-05
4.07349e-05
5.01513e-05
2.58022e-05
4.16517e-05
4.27357e-05
4.92043e-05
2.88736e-05
4.53458e-05
4.50426e-05
4.69379e-05
2.9521e-05
4.58681e-05
4.52215e-05
4.62508e-05
2.8932e-05
4.45222e-05
4.43481e-05
4.7579e-05
2.90053e-05
4.43286e-05
4.45117e-05
4.89419e-05
3.07436e-05
4.58601e-05
4.6094e-05
4.93463e-05
3.15449e-05
4.66756e-05
4.6486e-05
4.95613e-05
3.20127e-05
4.69119e-05
4.69052e-05
5.00911e-05
3.2763e-05
4.74441e-05
4.74821e-05
5.04441e-05
3.35705e-05
4.80733e-05
4.80211e-05
5.09154e-05
3.42633e-05
4.84813e-05
4.85533e-05
5.12403e-05
3.48769e-05
4.89306e-05
4.88977e-05
5.15695e-05
3.5493e-05
4.9374e-05
4.93767e-05
5.19222e-05
3.60863e-05
4.9769e-05
4.97729e-05
5.22567e-05
3.66563e-05
5.00802e-05
5.00741e-05
5.24953e-05
3.71412e-05
5.04054e-05
5.0425e-05
5.27444e-05
3.76801e-05
5.08273e-05
5.0809e-05
5.30665e-05
3.81526e-05
5.09777e-05
5.09827e-05
5.32099e-05
3.85596e-05
5.1311e-05
5.13148e-05
5.34899e-05
3.90284e-05
5.15792e-05
5.15774e-05
5.36684e-05
3.93569e-05
5.17356e-05
5.17376e-05
5.37869e-05
3.97475e-05
5.19872e-05
5.19867e-05
5.40241e-05
4.01411e-05
5.21848e-05
5.21854e-05
5.41848e-05
4.0341e-05
5.22855e-05
5.22801e-05
5.41985e-05
4.06156e-05
5.23681e-05
5.23762e-05
5.43063e-05
4.09657e-05
5.26346e-05
5.26346e-05
5.45578e-05
4.11891e-05
5.27071e-05
5.27029e-05
5.45611e-05
4.13018e-05
5.26822e-05
5.26786e-05
5.45254e-05
4.15143e-05
5.2803e-05
5.28124e-05
5.46697e-05
4.17139e-05
5.28928e-05
5.28938e-05
5.47165e-05
4.1843e-05
5.28856e-05
5.28822e-05
5.47035e-05
4.19573e-05
5.29049e-05
5.29057e-05
5.47398e-05
4.20008e-05
5.28994e-05
5.28966e-05
5.46981e-05
4.22116e-05
5.29999e-05
5.30043e-05
5.48452e-05
4.22256e-05
5.28247e-05
5.28239e-05
5.46008e-05
4.20658e-05
5.26398e-05
5.26354e-05
5.44062e-05
4.22538e-05
5.29576e-05
5.29632e-05
5.48438e-05
4.24936e-05
5.29727e-05
5.29695e-05
5.47674e-05
4.23019e-05
5.26179e-05
5.26179e-05
5.43909e-05
4.2128e-05
5.24859e-05
5.24862e-05
5.43221e-05
4.17854e-05
5.14255e-05
5.14255e-05
5.40753e-05
3.63068e-05
3.6291e-05
3.6291e-05
3.63068e-05
3.6291e-05
3.6291e-05
3.6423e-05
3.6423e-05
3.6423e-05
3.6423e-05
3.6291e-05
3.6291e-05
3.63068e-05
3.6291e-05
3.6291e-05
3.63068e-05
3.59957e-05
3.42687e-05
3.58912e-05
3.58912e-05
3.43767e-05
3.43766e-05
3.59957e-05
3.42687e-05
3.58911e-05
3.58912e-05
3.43767e-05
3.43766e-05
3.58912e-05
3.43767e-05
3.43767e-05
3.59957e-05
3.42687e-05
3.58912e-05
3.43767e-05
3.43767e-05
3.42687e-05
3.39623e-05
3.22635e-05
3.38889e-05
3.38889e-05
3.24684e-05
3.24683e-05
3.39623e-05
3.22635e-05
3.38889e-05
3.38889e-05
3.24684e-05
3.24683e-05
3.38889e-05
3.24685e-05
3.24684e-05
3.39623e-05
3.22634e-05
3.38889e-05
3.24685e-05
3.24684e-05
3.22634e-05
3.19522e-05
3.02993e-05
3.20079e-05
3.20078e-05
3.06643e-05
3.06642e-05
3.19522e-05
3.02994e-05
3.2008e-05
3.20078e-05
3.06644e-05
3.06641e-05
3.20079e-05
3.06646e-05
3.06643e-05
3.19522e-05
3.02992e-05
3.2008e-05
3.06645e-05
3.06644e-05
3.02992e-05
2.99885e-05
2.84253e-05
3.0229e-05
3.02288e-05
2.89624e-05
2.89622e-05
2.99886e-05
2.84255e-05
3.02291e-05
3.02287e-05
2.89626e-05
2.89621e-05
3.02289e-05
2.89628e-05
2.89623e-05
2.99884e-05
2.84252e-05
3.02291e-05
2.89627e-05
2.89626e-05
2.84252e-05
2.81227e-05
2.6674e-05
2.85536e-05
2.85534e-05
2.7368e-05
2.73678e-05
2.81228e-05
2.66742e-05
2.85538e-05
2.85533e-05
2.73683e-05
2.73676e-05
2.85535e-05
2.73685e-05
2.73679e-05
2.81226e-05
2.66739e-05
2.85538e-05
2.73684e-05
2.73683e-05
2.66738e-05
2.63908e-05
2.50663e-05
2.69866e-05
2.69864e-05
2.58841e-05
2.58838e-05
2.6391e-05
2.50665e-05
2.6987e-05
2.69862e-05
2.58845e-05
2.58836e-05
2.69865e-05
2.58848e-05
2.5884e-05
2.63907e-05
2.50661e-05
2.69869e-05
2.58846e-05
2.58845e-05
2.50661e-05
2.48075e-05
2.36125e-05
2.55303e-05
2.553e-05
2.45103e-05
2.45099e-05
2.48077e-05
2.36127e-05
2.55308e-05
2.55299e-05
2.45107e-05
2.45097e-05
2.55302e-05
2.45111e-05
2.45102e-05
2.48073e-05
2.36123e-05
2.55307e-05
2.45108e-05
2.45107e-05
2.36123e-05
2.33784e-05
2.23125e-05
2.41842e-05
2.41838e-05
2.32479e-05
2.32475e-05
2.33785e-05
2.23126e-05
2.41847e-05
2.41836e-05
2.32484e-05
2.32473e-05
2.41841e-05
2.32488e-05
2.32478e-05
2.33782e-05
2.23122e-05
2.41846e-05
2.32485e-05
2.32484e-05
2.23122e-05
2.21049e-05
2.11681e-05
2.29497e-05
2.29494e-05
2.20966e-05
2.20962e-05
2.21051e-05
2.11683e-05
2.29503e-05
2.29491e-05
2.20972e-05
2.2096e-05
2.29496e-05
2.20976e-05
2.20965e-05
2.21047e-05
2.11679e-05
2.29503e-05
2.20973e-05
2.20972e-05
2.11678e-05
2.09864e-05
2.01707e-05
2.18259e-05
2.18255e-05
2.10542e-05
2.10538e-05
2.09865e-05
2.01709e-05
2.18266e-05
2.18253e-05
2.10549e-05
2.10536e-05
2.18258e-05
2.10552e-05
2.10541e-05
2.09861e-05
2.01705e-05
2.18265e-05
2.1055e-05
2.10549e-05
2.01704e-05
2.00137e-05
1.93146e-05
2.08103e-05
2.081e-05
2.0118e-05
2.01176e-05
2.00139e-05
1.93148e-05
2.08111e-05
2.08097e-05
2.01187e-05
2.01174e-05
2.08102e-05
2.01191e-05
2.01179e-05
2.00135e-05
1.93144e-05
2.08111e-05
2.01189e-05
2.01188e-05
1.93143e-05
1.91816e-05
1.85904e-05
1.99002e-05
1.98999e-05
1.92856e-05
1.92852e-05
1.91818e-05
1.85906e-05
1.9901e-05
1.98997e-05
1.92864e-05
1.9285e-05
1.99001e-05
1.92866e-05
1.92855e-05
1.91815e-05
1.85902e-05
1.9901e-05
1.92865e-05
1.92864e-05
1.859e-05
1.84898e-05
1.79979e-05
1.90936e-05
1.90933e-05
1.85545e-05
1.85542e-05
1.84899e-05
1.79981e-05
1.90944e-05
1.90931e-05
1.85553e-05
1.8554e-05
1.90936e-05
1.85556e-05
1.85545e-05
1.84897e-05
1.79977e-05
1.90945e-05
1.85555e-05
1.85553e-05
1.79975e-05
1.79335e-05
1.75394e-05
1.83875e-05
1.83872e-05
1.79214e-05
1.79211e-05
1.79334e-05
1.75395e-05
1.83883e-05
1.8387e-05
1.79222e-05
1.7921e-05
1.83874e-05
1.79223e-05
1.79214e-05
1.79332e-05
1.75393e-05
1.83883e-05
1.79223e-05
1.79222e-05
1.75391e-05
1.75067e-05
1.72179e-05
1.77784e-05
1.77781e-05
1.73839e-05
1.73837e-05
1.75067e-05
1.72178e-05
1.77792e-05
1.7778e-05
1.73847e-05
1.73835e-05
1.77784e-05
1.73847e-05
1.73839e-05
1.75065e-05
1.72178e-05
1.77792e-05
1.73847e-05
1.73847e-05
1.72176e-05
1.72006e-05
1.70261e-05
1.72648e-05
1.72646e-05
1.69411e-05
1.69409e-05
1.72005e-05
1.70258e-05
1.72655e-05
1.72645e-05
1.69418e-05
1.69409e-05
1.72647e-05
1.69418e-05
1.69411e-05
1.72005e-05
1.7026e-05
1.72655e-05
1.69419e-05
1.69419e-05
1.70259e-05
1.70228e-05
1.69722e-05
1.68458e-05
1.68457e-05
1.65921e-05
1.6592e-05
1.70224e-05
1.69721e-05
1.68466e-05
1.68456e-05
1.65927e-05
1.65919e-05
1.68458e-05
1.65926e-05
1.6592e-05
1.70226e-05
1.69722e-05
1.68466e-05
1.65927e-05
1.65927e-05
1.69721e-05
1.69816e-05
1.70431e-05
1.65205e-05
1.65204e-05
1.63368e-05
1.63367e-05
1.69814e-05
1.70428e-05
1.65211e-05
1.65204e-05
1.63374e-05
1.63368e-05
1.65204e-05
1.63372e-05
1.63367e-05
1.69816e-05
1.70433e-05
1.65211e-05
1.63374e-05
1.63374e-05
1.70431e-05
1.70788e-05
1.72437e-05
1.62892e-05
1.6289e-05
1.61753e-05
1.61753e-05
1.70784e-05
1.72433e-05
1.62898e-05
1.62891e-05
1.61758e-05
1.61754e-05
1.62891e-05
1.61754e-05
1.61753e-05
1.70788e-05
1.72438e-05
1.62897e-05
1.61758e-05
1.61759e-05
1.72436e-05
1.7304e-05
1.75718e-05
1.61516e-05
1.61516e-05
1.6107e-05
1.61072e-05
1.73036e-05
1.75716e-05
1.61522e-05
1.61518e-05
1.61075e-05
1.61075e-05
1.61516e-05
1.61071e-05
1.61071e-05
1.73041e-05
1.75723e-05
1.61522e-05
1.61075e-05
1.61076e-05
1.75721e-05
1.76563e-05
1.80247e-05
1.6107e-05
1.61073e-05
1.61327e-05
1.61328e-05
1.76561e-05
1.80238e-05
1.61076e-05
1.61076e-05
1.61332e-05
1.61331e-05
1.61072e-05
1.61325e-05
1.61328e-05
1.76569e-05
1.80248e-05
1.61077e-05
1.6133e-05
1.61334e-05
1.80248e-05
1.81332e-05
1.85947e-05
1.61531e-05
1.61533e-05
1.62479e-05
1.62484e-05
1.81322e-05
1.85945e-05
1.61538e-05
1.61537e-05
1.62484e-05
1.6249e-05
1.61532e-05
1.62478e-05
1.62482e-05
1.81331e-05
1.85958e-05
1.61537e-05
1.62485e-05
1.62488e-05
1.85954e-05
1.87257e-05
1.92756e-05
1.6291e-05
1.62917e-05
1.64548e-05
1.64554e-05
1.87255e-05
1.92741e-05
1.62917e-05
1.62924e-05
1.64552e-05
1.64558e-05
1.62914e-05
1.64543e-05
1.64546e-05
1.87269e-05
1.92757e-05
1.62919e-05
1.64551e-05
1.6455e-05
1.9276e-05
1.94281e-05
2.00486e-05
1.65207e-05
1.65208e-05
1.67495e-05
1.675e-05
1.94261e-05
2.0048e-05
1.65209e-05
1.65216e-05
1.67491e-05
1.67499e-05
1.65209e-05
1.67485e-05
1.67492e-05
1.94277e-05
2.00487e-05
1.65213e-05
1.67486e-05
1.67494e-05
2.0049e-05
2.02182e-05
2.09049e-05
1.68356e-05
1.68371e-05
1.71276e-05
1.71279e-05
2.02186e-05
2.09046e-05
1.68352e-05
1.68372e-05
1.7128e-05
1.71299e-05
1.68354e-05
1.71267e-05
1.71283e-05
2.02189e-05
2.09084e-05
1.68355e-05
1.71288e-05
1.71284e-05
2.0906e-05
2.10938e-05
2.18406e-05
1.72371e-05
1.72357e-05
1.7591e-05
1.75911e-05
2.10916e-05
2.18367e-05
1.72374e-05
1.72381e-05
1.75916e-05
1.75911e-05
1.72378e-05
1.75896e-05
1.75933e-05
2.10963e-05
2.18377e-05
1.72382e-05
1.75907e-05
1.75935e-05
2.18422e-05
2.20417e-05
2.28148e-05
1.77196e-05
1.77193e-05
1.81277e-05
1.81325e-05
2.20386e-05
2.28224e-05
1.77199e-05
1.77188e-05
1.81266e-05
1.8131e-05
1.77195e-05
1.8129e-05
1.81279e-05
2.20383e-05
2.28195e-05
1.77204e-05
1.81281e-05
1.81281e-05
2.28155e-05
2.30251e-05
2.38429e-05
1.82711e-05
1.82776e-05
1.87386e-05
1.87469e-05
2.30355e-05
2.38485e-05
1.827e-05
1.82773e-05
1.87392e-05
1.87483e-05
1.8272e-05
1.87458e-05
1.87408e-05
2.30329e-05
2.38547e-05
1.82708e-05
1.87474e-05
1.87408e-05
2.38429e-05
2.40712e-05
2.49175e-05
1.89067e-05
1.89083e-05
1.94345e-05
1.94119e-05
2.40677e-05
2.48843e-05
1.89065e-05
1.89122e-05
1.94318e-05
1.94184e-05
1.89075e-05
1.94091e-05
1.94321e-05
2.40754e-05
2.48945e-05
1.89066e-05
1.94156e-05
1.94312e-05
2.49201e-05
2.51419e-05
2.59574e-05
1.96122e-05
1.95947e-05
2.0156e-05
2.01691e-05
2.51123e-05
2.59795e-05
1.9612e-05
1.95983e-05
2.01526e-05
2.01661e-05
1.96137e-05
2.0165e-05
2.01582e-05
2.51196e-05
2.59726e-05
1.96146e-05
2.01623e-05
2.01529e-05
2.59612e-05
2.61861e-05
2.70294e-05
2.03505e-05
2.03613e-05
2.09562e-05
2.09647e-05
2.62132e-05
2.70343e-05
2.03468e-05
2.03568e-05
2.09583e-05
2.09717e-05
2.03493e-05
2.09602e-05
2.09611e-05
2.62059e-05
2.70432e-05
2.03462e-05
2.09702e-05
2.09667e-05
2.70343e-05
2.72609e-05
2.81288e-05
2.11511e-05
2.11713e-05
2.18152e-05
2.17841e-05
2.72638e-05
2.80917e-05
2.11533e-05
2.11763e-05
2.18125e-05
2.17889e-05
2.11667e-05
2.17779e-05
2.17898e-05
2.72738e-05
2.80986e-05
2.117e-05
2.17784e-05
2.17852e-05
2.81102e-05
2.83801e-05
2.92298e-05
2.20564e-05
2.20194e-05
2.27294e-05
2.27339e-05
2.83318e-05
2.92413e-05
2.2056e-05
2.20202e-05
2.27357e-05
2.27497e-05
2.20276e-05
2.27374e-05
2.27622e-05
2.83403e-05
2.9253e-05
2.20246e-05
2.27565e-05
2.27624e-05
2.92578e-05
2.94475e-05
3.0223e-05
2.29509e-05
2.29807e-05
2.36326e-05
2.36723e-05
2.94843e-05
3.02693e-05
2.295e-05
2.2974e-05
2.36326e-05
2.36475e-05
2.29746e-05
2.36657e-05
2.36298e-05
2.94903e-05
3.02367e-05
2.29723e-05
2.36401e-05
2.3624e-05
3.02091e-05
3.0457e-05
3.1236e-05
2.38707e-05
2.39006e-05
2.4562e-05
2.45699e-05
3.04893e-05
3.12462e-05
2.38792e-05
2.38666e-05
2.45634e-05
2.46037e-05
2.38776e-05
2.45772e-05
2.45679e-05
3.04559e-05
3.1261e-05
2.38736e-05
2.46128e-05
2.45751e-05
3.12405e-05
3.14561e-05
3.23846e-05
2.47786e-05
2.4809e-05
2.56669e-05
2.56169e-05
3.14726e-05
3.2328e-05
2.47751e-05
2.48424e-05
2.56303e-05
2.55766e-05
2.47809e-05
2.56171e-05
2.56547e-05
3.14939e-05
3.22945e-05
2.47834e-05
2.55661e-05
2.56308e-05
3.23917e-05
3.26681e-05
3.33828e-05
2.60122e-05
2.58799e-05
2.67878e-05
2.66504e-05
3.25608e-05
3.32096e-05
2.59731e-05
2.5879e-05
2.68066e-05
2.66302e-05
2.59924e-05
2.65936e-05
2.6737e-05
3.25219e-05
3.32737e-05
2.59734e-05
2.6571e-05
2.67511e-05
3.33031e-05
3.35102e-05
3.37899e-05
2.69358e-05
2.68272e-05
2.71778e-05
2.73262e-05
3.33841e-05
3.40786e-05
2.69754e-05
2.68648e-05
2.72267e-05
2.76466e-05
2.68773e-05
2.7397e-05
2.71118e-05
3.34896e-05
3.43454e-05
2.68988e-05
2.77001e-05
2.71374e-05
3.356e-05
3.40149e-05
3.57785e-05
2.73854e-05
2.76976e-05
2.9134e-05
2.91575e-05
3.43753e-05
3.57358e-05
2.74292e-05
2.79001e-05
2.90274e-05
2.88095e-05
2.72672e-05
2.91308e-05
2.93517e-05
3.45846e-05
3.53128e-05
2.72774e-05
2.87917e-05
2.92778e-05
3.63201e-05
3.59722e-05
3.52527e-05
2.94532e-05
2.94818e-05
2.95079e-05
2.96794e-05
3.59324e-05
3.56821e-05
2.93409e-05
2.91096e-05
2.94552e-05
2.94839e-05
2.98422e-05
2.96569e-05
2.99798e-05
3.54862e-05
3.55945e-05
2.97877e-05
2.9516e-05
2.99699e-05
3.59598e-05
3.5177e-05
3.50844e-05
2.93587e-05
2.96077e-05
2.93167e-05
2.95407e-05
3.56474e-05
3.5327e-05
2.93799e-05
2.94731e-05
2.93772e-05
2.93994e-05
2.95547e-05
2.95069e-05
2.89842e-05
3.55921e-05
3.50872e-05
2.95943e-05
2.93929e-05
2.90319e-05
3.4093e-05
3.55775e-05
3.95405e-05
2.94251e-05
2.95894e-05
3.24431e-05
3.16188e-05
3.55484e-05
3.84978e-05
2.94804e-05
2.94268e-05
3.22854e-05
3.14339e-05
2.90603e-05
3.15539e-05
3.33959e-05
3.51282e-05
3.93882e-05
2.90996e-05
3.13812e-05
3.32541e-05
4.1495e-05
4.02525e-05
4.16721e-05
3.35757e-05
3.2468e-05
3.52769e-05
3.4439e-05
3.91283e-05
4.07502e-05
3.34289e-05
3.37274e-05
3.54427e-05
3.71133e-05
3.47947e-05
3.46321e-05
3.55597e-05
4.08479e-05
4.41557e-05
3.47148e-05
3.72301e-05
3.56476e-05
4.14048e-05
4.18621e-05
4.27499e-05
3.56153e-05
3.51884e-05
3.65678e-05
3.69331e-05
4.12329e-05
4.32735e-05
3.58403e-05
3.72221e-05
3.65573e-05
3.56353e-05
3.51648e-05
3.67466e-05
3.42436e-05
4.42186e-05
3.94145e-05
3.5364e-05
3.54609e-05
3.42288e-05
3.90771e-05
4.2834e-05
4.1274e-05
3.66571e-05
3.71277e-05
3.63213e-05
3.70223e-05
4.34155e-05
4.19728e-05
3.65834e-05
3.39779e-05
3.61329e-05
3.22409e-05
3.43512e-05
3.68219e-05
3.49269e-05
3.8622e-05
3.66309e-05
3.42801e-05
3.2232e-05
3.45922e-05
4.10262e-05
4.00447e-05
3.21412e-05
3.51817e-05
3.64298e-05
2.91736e-05
3.10051e-05
4.12514e-05
3.46123e-05
3.4824e-05
3.22222e-05
2.91832e-05
3.27795e-05
3.48302e-05
3.11138e-05
3.08344e-05
3.68977e-05
3.87413e-05
3.44876e-05
3.30701e-05
3.08009e-05
3.36701e-05
3.20259e-05
4.27064e-05
2.88826e-05
3.02314e-05
3.24288e-05
3.02461e-05
3.43936e-05
3.65336e-05
2.89379e-05
3.28563e-05
3.2647e-05
3.35149e-05
3.01464e-05
3.02262e-05
3.08798e-05
3.88652e-05
3.96717e-05
3.01961e-05
3.3631e-05
3.09769e-05
3.86755e-05
4.51412e-05
4.92404e-05
3.71376e-05
3.14288e-05
4.22876e-05
3.94945e-05
3.82729e-05
4.54549e-05
3.73146e-05
3.48426e-05
4.23171e-05
3.99948e-05
3.40386e-05
3.92994e-05
4.48756e-05
4.06045e-05
4.55777e-05
3.4176e-05
3.97872e-05
4.48773e-05
5.19909e-05
4.89437e-05
3.68026e-05
4.22775e-05
4.02046e-05
3.65633e-05
3.9323e-05
4.56628e-05
4.2072e-05
4.23045e-05
4.0353e-05
3.65446e-05
3.88155e-05
4.57394e-05
3.97585e-05
4.52015e-05
4.57307e-05
4.15432e-05
4.57293e-05
3.92567e-05
4.51816e-05
4.72033e-05
3.60274e-05
4.15874e-05
3.50602e-05
3.83311e-05
3.50924e-05
3.80357e-05
4.1665e-05
4.30734e-05
3.50236e-05
3.76038e-05
3.50507e-05
3.7129e-05
4.28803e-05
3.83796e-05
3.40448e-05
4.10171e-05
4.20791e-05
4.28363e-05
3.74501e-05
3.40076e-05
3.63488e-05
4.39596e-05
5.11174e-05
3.73351e-05
3.89183e-05
4.52143e-05
4.46188e-05
4.4654e-05
5.03004e-05
3.73179e-05
3.79167e-05
4.51649e-05
4.29662e-05
3.31547e-05
4.37389e-05
3.31324e-05
4.36151e-05
4.84571e-05
3.31291e-05
4.20889e-05
3.30971e-05
3.79668e-05
5.12527e-05
4.7901e-05
4.58714e-05
4.50585e-05
4.5624e-05
4.41896e-05
5.04658e-05
4.60212e-05
4.57872e-05
4.33176e-05
4.54743e-05
4.23872e-05
3.42062e-05
4.35685e-05
4.28766e-05
4.85386e-05
4.47596e-05
3.41324e-05
4.18893e-05
4.2708e-05
4.80871e-05
4.70773e-05
4.40515e-05
4.42355e-05
4.21528e-05
4.07895e-05
3.90736e-05
4.4918e-05
4.19356e-05
4.40465e-05
4.13812e-05
4.08831e-05
4.04587e-05
4.43104e-05
3.93159e-05
4.56842e-05
4.43526e-05
4.40893e-05
4.42143e-05
4.07073e-05
4.57671e-05
5.00991e-05
4.40688e-05
4.61577e-05
4.05929e-05
3.89715e-05
4.09811e-05
3.99035e-05
4.21172e-05
4.51933e-05
4.07065e-05
4.04635e-05
4.10933e-05
4.16092e-05
4.57382e-05
4.03189e-05
4.54959e-05
4.4486e-05
4.63488e-05
4.58434e-05
4.20606e-05
4.56467e-05
4.93391e-05
4.69908e-05
4.91293e-05
4.2131e-05
4.13447e-05
4.48557e-05
4.4853e-05
4.60195e-05
4.90338e-05
4.22233e-05
4.24213e-05
4.48541e-05
4.47799e-05
4.5063e-05
4.47515e-05
4.35942e-05
4.67863e-05
4.88131e-05
4.51793e-05
4.46735e-05
4.35909e-05
4.70678e-05
4.92048e-05
4.80492e-05
4.51068e-05
4.55162e-05
4.50487e-05
4.60856e-05
4.94052e-05
4.98277e-05
4.50892e-05
4.52178e-05
4.50011e-05
4.54958e-05
4.32648e-05
4.58804e-05
4.29502e-05
4.907e-05
4.90712e-05
4.32468e-05
4.52852e-05
4.29017e-05
4.62257e-05
4.78884e-05
4.72021e-05
4.46685e-05
4.60684e-05
4.40488e-05
4.48646e-05
4.97965e-05
4.79425e-05
4.45957e-05
4.5422e-05
4.39936e-05
4.44448e-05
4.29412e-05
4.48379e-05
4.34263e-05
4.89771e-05
4.76872e-05
4.28895e-05
4.44307e-05
4.33239e-05
4.71992e-05
4.72655e-05
4.82316e-05
4.40262e-05
4.45046e-05
4.43434e-05
4.42706e-05
4.78533e-05
4.76053e-05
4.39766e-05
4.43356e-05
4.43604e-05
4.43302e-05
4.396e-05
4.43117e-05
4.50785e-05
4.76895e-05
4.79279e-05
4.3873e-05
4.43567e-05
4.5112e-05
4.87656e-05
4.8576e-05
4.94206e-05
4.48325e-05
4.42885e-05
4.59605e-05
4.54026e-05
4.7738e-05
4.90194e-05
4.48855e-05
4.44669e-05
4.60083e-05
4.58045e-05
4.5336e-05
4.53982e-05
4.59071e-05
4.81489e-05
4.92922e-05
4.54016e-05
4.5811e-05
4.59609e-05
4.92838e-05
4.95067e-05
4.95766e-05
4.61808e-05
4.58734e-05
4.64461e-05
4.66014e-05
4.93044e-05
4.97605e-05
4.62115e-05
4.60992e-05
4.64467e-05
4.64712e-05
4.60321e-05
4.6595e-05
4.6324e-05
4.94396e-05
4.96136e-05
4.60593e-05
4.64419e-05
4.62992e-05
4.94773e-05
4.96052e-05
4.98256e-05
4.6472e-05
4.66804e-05
4.67464e-05
4.68017e-05
4.98126e-05
4.98732e-05
4.64678e-05
4.65005e-05
4.67253e-05
4.67414e-05
4.64434e-05
4.68119e-05
4.68848e-05
4.96509e-05
4.98345e-05
4.64184e-05
4.67627e-05
4.68748e-05
4.9982e-05
4.99386e-05
5.03098e-05
4.68768e-05
4.68974e-05
4.73099e-05
4.729e-05
4.99423e-05
5.02981e-05
4.68626e-05
4.68821e-05
4.73151e-05
4.73378e-05
4.70246e-05
4.73004e-05
4.73747e-05
4.99461e-05
5.03353e-05
4.70197e-05
4.73513e-05
4.73833e-05
5.03589e-05
5.04279e-05
5.08312e-05
4.7475e-05
4.744e-05
4.79409e-05
4.79259e-05
5.04058e-05
5.08138e-05
4.74813e-05
4.74758e-05
4.79325e-05
4.78714e-05
4.74922e-05
4.79212e-05
4.79215e-05
5.04343e-05
5.0756e-05
4.75005e-05
4.78679e-05
4.79137e-05
5.0807e-05
5.09214e-05
5.11594e-05
4.80699e-05
4.80751e-05
4.84025e-05
4.83994e-05
5.09205e-05
5.11546e-05
4.80591e-05
4.80215e-05
4.8405e-05
4.84514e-05
4.80745e-05
4.8403e-05
4.84191e-05
5.08615e-05
5.12173e-05
4.80642e-05
4.8457e-05
4.8422e-05
5.11773e-05
5.1238e-05
5.14997e-05
4.85036e-05
4.84802e-05
4.88197e-05
4.87949e-05
5.12173e-05
5.14709e-05
4.85116e-05
4.85502e-05
4.8823e-05
4.879e-05
4.84965e-05
4.87922e-05
4.87975e-05
5.12901e-05
5.14584e-05
4.85045e-05
4.87885e-05
4.88008e-05
5.147e-05
5.15836e-05
5.1843e-05
4.89341e-05
4.89311e-05
4.9256e-05
4.92868e-05
5.15748e-05
5.18806e-05
4.89321e-05
4.8897e-05
4.92497e-05
4.9267e-05
4.89319e-05
4.9288e-05
4.92654e-05
5.15326e-05
5.18686e-05
4.89299e-05
4.92706e-05
4.92595e-05
5.1857e-05
5.19168e-05
5.2152e-05
4.93517e-05
4.93747e-05
4.96483e-05
4.96571e-05
5.19471e-05
5.21574e-05
4.93484e-05
4.93752e-05
4.96514e-05
4.96706e-05
4.93493e-05
4.96583e-05
4.96624e-05
5.19544e-05
5.21721e-05
4.93462e-05
4.96726e-05
4.96656e-05
5.21663e-05
5.22307e-05
5.24475e-05
4.97509e-05
4.97647e-05
5.00294e-05
5.00216e-05
5.22391e-05
5.24343e-05
4.97531e-05
4.97676e-05
5.00258e-05
5.00054e-05
4.97811e-05
5.00256e-05
5.00383e-05
5.22426e-05
5.24212e-05
4.97834e-05
5.00123e-05
5.0035e-05
5.24492e-05
5.25091e-05
5.26846e-05
5.01097e-05
5.00801e-05
5.03246e-05
5.03004e-05
5.24826e-05
5.26555e-05
5.01064e-05
5.00714e-05
5.03274e-05
5.03222e-05
5.00927e-05
5.02959e-05
5.03015e-05
5.24751e-05
5.26812e-05
5.00894e-05
5.03178e-05
5.03046e-05
5.26603e-05
5.27481e-05
5.29805e-05
5.04006e-05
5.04072e-05
5.06902e-05
5.07377e-05
5.27444e-05
5.30308e-05
5.04047e-05
5.04268e-05
5.06892e-05
5.07245e-05
5.04028e-05
5.07436e-05
5.07216e-05
5.27683e-05
5.30139e-05
5.04069e-05
5.0732e-05
5.07209e-05
5.301e-05
5.30529e-05
5.31948e-05
5.07892e-05
5.08221e-05
5.09805e-05
5.09497e-05
5.30852e-05
5.31606e-05
5.07861e-05
5.08013e-05
5.09777e-05
5.09423e-05
5.08066e-05
5.09474e-05
5.09553e-05
5.30662e-05
5.31557e-05
5.08038e-05
5.09423e-05
5.09525e-05
5.31682e-05
5.32349e-05
5.33883e-05
5.10195e-05
5.09807e-05
5.12087e-05
5.1204e-05
5.31932e-05
5.33908e-05
5.1019e-05
5.09845e-05
5.12113e-05
5.12139e-05
5.09972e-05
5.12066e-05
5.12264e-05
5.31952e-05
5.34001e-05
5.09966e-05
5.12167e-05
5.12292e-05
5.34141e-05
5.34617e-05
5.36328e-05
5.12979e-05
5.13066e-05
5.1526e-05
5.15373e-05
5.34766e-05
5.36437e-05
5.12995e-05
5.13098e-05
5.15243e-05
5.153e-05
5.13207e-05
5.15396e-05
5.153e-05
5.34796e-05
5.36385e-05
5.13224e-05
5.15348e-05
5.15285e-05
5.36331e-05
5.36725e-05
5.37433e-05
5.15765e-05
5.1579e-05
5.1676e-05
5.1681e-05
5.36791e-05
5.37479e-05
5.15752e-05
5.15745e-05
5.16766e-05
5.16848e-05
5.15709e-05
5.16812e-05
5.16757e-05
5.36756e-05
5.37517e-05
5.15696e-05
5.1686e-05
5.16767e-05
5.37415e-05
5.37829e-05
5.39675e-05
5.17164e-05
5.17334e-05
5.19199e-05
5.19249e-05
5.37948e-05
5.39681e-05
5.17171e-05
5.17346e-05
5.19192e-05
5.19211e-05
5.17243e-05
5.19274e-05
5.19189e-05
5.37978e-05
5.39648e-05
5.17253e-05
5.19247e-05
5.19182e-05
5.39638e-05
5.40339e-05
5.41492e-05
5.20005e-05
5.19866e-05
5.21736e-05
5.21413e-05
5.4018e-05
5.41213e-05
5.19998e-05
5.19846e-05
5.21739e-05
5.21427e-05
5.19908e-05
5.21397e-05
5.21751e-05
5.40162e-05
5.41218e-05
5.19902e-05
5.21425e-05
5.21756e-05
5.41531e-05
5.41742e-05
5.41535e-05
5.21993e-05
5.21843e-05
5.22196e-05
5.22662e-05
5.41564e-05
5.4206e-05
5.21998e-05
5.21835e-05
5.22199e-05
5.22576e-05
5.22128e-05
5.22742e-05
5.22522e-05
5.41555e-05
5.42002e-05
5.22134e-05
5.22675e-05
5.22522e-05
5.41877e-05
5.41684e-05
5.42989e-05
5.22276e-05
5.22783e-05
5.23529e-05
5.23314e-05
5.42281e-05
5.42673e-05
5.22275e-05
5.22709e-05
5.23528e-05
5.23361e-05
5.22541e-05
5.23282e-05
5.23044e-05
5.4223e-05
5.42732e-05
5.22539e-05
5.23343e-05
5.23036e-05
5.42451e-05
5.43618e-05
5.44993e-05
5.24159e-05
5.23736e-05
5.25948e-05
5.2573e-05
5.43082e-05
5.4484e-05
5.24168e-05
5.23812e-05
5.25956e-05
5.25754e-05
5.23715e-05
5.25727e-05
5.26035e-05
5.43166e-05
5.44843e-05
5.23721e-05
5.25756e-05
5.26046e-05
5.45186e-05
5.45316e-05
5.45334e-05
5.26356e-05
5.26318e-05
5.26772e-05
5.27012e-05
5.45291e-05
5.45667e-05
5.26359e-05
5.26309e-05
5.26768e-05
5.26951e-05
5.26558e-05
5.2707e-05
5.27022e-05
5.4527e-05
5.4561e-05
5.26563e-05
5.27029e-05
5.27019e-05
5.45539e-05
5.45422e-05
5.45137e-05
5.26764e-05
5.27014e-05
5.26671e-05
5.26805e-05
5.45766e-05
5.45174e-05
5.26759e-05
5.26951e-05
5.26667e-05
5.26749e-05
5.27002e-05
5.26835e-05
5.26714e-05
5.45708e-05
5.45127e-05
5.26998e-05
5.26796e-05
5.26707e-05
5.45028e-05
5.45442e-05
5.46314e-05
5.26734e-05
5.26799e-05
5.27778e-05
5.27577e-05
5.45322e-05
5.46167e-05
5.26731e-05
5.26747e-05
5.27784e-05
5.27635e-05
5.26718e-05
5.27544e-05
5.27717e-05
5.45282e-05
5.46231e-05
5.26712e-05
5.27607e-05
5.27726e-05
5.46327e-05
5.46618e-05
5.46915e-05
5.28116e-05
5.28027e-05
5.28679e-05
5.2882e-05
5.46547e-05
5.47034e-05
5.28126e-05
5.28112e-05
5.28709e-05
5.28853e-05
5.28165e-05
5.28853e-05
5.28797e-05
5.46632e-05
5.47096e-05
5.2818e-05
5.28897e-05
5.28811e-05
5.47027e-05
5.47075e-05
5.47012e-05
5.28731e-05
5.28901e-05
5.28907e-05
5.28864e-05
5.47209e-05
5.46945e-05
5.28755e-05
5.28896e-05
5.28882e-05
5.28813e-05
5.28823e-05
5.28876e-05
5.28787e-05
5.47252e-05
5.46859e-05
5.28835e-05
5.2884e-05
5.28789e-05
5.4682e-05
5.47224e-05
5.47208e-05
5.29015e-05
5.28852e-05
5.29099e-05
5.29011e-05
5.47057e-05
5.47068e-05
5.29e-05
5.28802e-05
5.29102e-05
5.29002e-05
5.28819e-05
5.29019e-05
5.29139e-05
5.46977e-05
5.47083e-05
5.28814e-05
5.29022e-05
5.29137e-05
5.47259e-05
5.47287e-05
5.46603e-05
5.29068e-05
5.29028e-05
5.28768e-05
5.28922e-05
5.47219e-05
5.46873e-05
5.29074e-05
5.29023e-05
5.2877e-05
5.28894e-05
5.29141e-05
5.28962e-05
5.28947e-05
5.47237e-05
5.46817e-05
5.29141e-05
5.28945e-05
5.28946e-05
5.46811e-05
5.46811e-05
5.48324e-05
5.28793e-05
5.28953e-05
5.29961e-05
5.29893e-05
5.47114e-05
5.48166e-05
5.28794e-05
5.28915e-05
5.29967e-05
5.29901e-05
5.28962e-05
5.29906e-05
5.29874e-05
5.47001e-05
5.48212e-05
5.28959e-05
5.29921e-05
5.29881e-05
5.48172e-05
5.48622e-05
5.46432e-05
5.30121e-05
5.29995e-05
5.2956e-05
5.29371e-05
5.48414e-05
5.46234e-05
5.30134e-05
5.3003e-05
5.29577e-05
5.29405e-05
5.30003e-05
5.29357e-05
5.29431e-05
5.48488e-05
5.46244e-05
5.30015e-05
5.29409e-05
5.2944e-05
5.46322e-05
5.46073e-05
5.43558e-05
5.28359e-05
5.28253e-05
5.26184e-05
5.26354e-05
5.4595e-05
5.43826e-05
5.28366e-05
5.28229e-05
5.26172e-05
5.26297e-05
5.28299e-05
5.26395e-05
5.26344e-05
5.45917e-05
5.43718e-05
5.28294e-05
5.26344e-05
5.2633e-05
5.43753e-05
5.43819e-05
5.47721e-05
5.26174e-05
5.26355e-05
5.28501e-05
5.28577e-05
5.44147e-05
5.47724e-05
5.26163e-05
5.26304e-05
5.28521e-05
5.28656e-05
5.26345e-05
5.28628e-05
5.28621e-05
5.44069e-05
5.47831e-05
5.26333e-05
5.28715e-05
5.28648e-05
5.47765e-05
5.48503e-05
5.48086e-05
5.29625e-05
5.29553e-05
5.30187e-05
5.2998e-05
5.48374e-05
5.47685e-05
5.29644e-05
5.29596e-05
5.30199e-05
5.29967e-05
5.29618e-05
5.29978e-05
5.30066e-05
5.48453e-05
5.47602e-05
5.29639e-05
5.29981e-05
5.30073e-05
5.47835e-05
5.4791e-05
5.43739e-05
5.29972e-05
5.29737e-05
5.2648e-05
5.26564e-05
5.47518e-05
5.43974e-05
5.29978e-05
5.2969e-05
5.26477e-05
5.26537e-05
5.29834e-05
5.26587e-05
5.26539e-05
5.4742e-05
5.43984e-05
5.29832e-05
5.26564e-05
5.2653e-05
5.43887e-05
5.43754e-05
5.43009e-05
5.25957e-05
5.26146e-05
5.24788e-05
5.24989e-05
5.44007e-05
5.43247e-05
5.25958e-05
5.26142e-05
5.24792e-05
5.24989e-05
5.26067e-05
5.25029e-05
5.24901e-05
5.44021e-05
5.4326e-05
5.26066e-05
5.25037e-05
5.24905e-05
5.43116e-05
5.43134e-05
5.4191e-05
5.24687e-05
5.2482e-05
5.23446e-05
5.23441e-05
5.43344e-05
5.41839e-05
5.2469e-05
5.24814e-05
5.23461e-05
5.2342e-05
5.24784e-05
5.23492e-05
5.23519e-05
5.43353e-05
5.41829e-05
5.24787e-05
5.23482e-05
5.23531e-05
5.41958e-05
5.40711e-05
5.143e-05
5.14205e-05
5.40585e-05
5.14318e-05
5.14194e-05
4.17802e-05
4.17806e-05
4.17922e-05
5.14349e-05
5.40583e-05
5.14367e-05
3.73773e-05
3.73765e-05
3.7377e-05
3.7377e-05
3.73701e-05
3.73777e-05
3.73043e-05
3.73768e-05
3.73702e-05
3.73777e-05
3.73768e-05
3.73043e-05
3.73741e-05
3.72959e-05
3.72959e-05
3.58798e-05
4.0872e-05
3.66033e-05
4.51467e-05
5.51147e-05
6.48951e-05
3.58803e-05
4.08712e-05
3.66034e-05
4.51465e-05
3.58932e-05
3.58933e-05
3.58932e-05
3.44005e-05
3.44005e-05
3.44005e-05
3.44005e-05
3.52758e-05
3.56384e-05
3.58929e-05
3.53771e-05
3.60475e-05
3.42365e-05
3.53822e-05
5.51168e-05
6.48994e-05
3.52758e-05
3.58929e-05
3.5638e-05
3.53771e-05
3.60474e-05
3.53822e-05
3.42375e-05
3.65971e-05
3.65977e-05
3.5279e-05
3.40642e-05
3.40633e-05
3.39657e-05
5.13535e-05
3.46793e-05
5.46248e-05
7.65448e-05
8.08614e-05
3.39682e-05
5.13544e-05
3.46789e-05
5.46254e-05
3.39296e-05
3.39297e-05
3.39297e-05