/*--------------------------------*- C++ -*----------------------------------*\
| =========                 |                                                 |
| \\      /  F ield         | OpenFOAM: The Open Source CFD Toolbox           |
|  \\    /   O peration     | Version:  v1906                                 |
|   \\  /    A nd           | Web:      www.OpenFOAM.com                      |
|    \\/     M anipulation  |                                                 |
\*---------------------------------------------------------------------------*/
FoamFile
{
    version     2.0;
    format      ascii;
    class       volScalarField;
    location    "400";
    object      nut;
}
// * * * * * * * * * * * * * * * * * * * * * * * * * * * * * * * * * * * * * //

dimensions      [0 2 -1 0 0 0 0];


internalField   nonuniform List<scalar> 
43024
(
0.000208387
0.000201543
0.000201535
0.000182526
0.000210705
0.000202812
0.000202804
0.0001834
0.000212922
0.000204009
0.000204003
0.000184245
0.000215037
0.000205136
0.000205131
0.000184984
0.000217052
0.000206195
0.000206191
0.000185679
0.000218967
0.000207187
0.000207184
0.000186333
0.000220784
0.000208116
0.000208113
0.000186942
0.000222505
0.000208986
0.000208983
0.000187503
0.000224133
0.000209787
0.000209782
0.000188009
0.00022567
0.000210523
0.000210518
0.000188468
0.000227114
0.000211202
0.000211198
0.000188887
0.000228469
0.000211825
0.00021182
0.000189266
0.000229734
0.000212394
0.000212387
0.000189604
0.00023091
0.000212908
0.000212898
0.000189863
0.000231994
0.000213364
0.000213352
0.000190114
0.000232989
0.000213767
0.000213749
0.000190343
0.000233887
0.000214112
0.000214093
0.000190545
0.000234671
0.000214401
0.000214385
0.000190689
0.000235355
0.000214644
0.000214627
0.000190794
0.000235896
0.000214757
0.000214741
0.000190948
0.000238158
0.000216333
0.000216255
0.000194463
0.000182533
0.000201203
0.0002012
0.000182538
0.000201218
0.00020119
0.000201228
0.000201205
0.000182507
0.00020122
0.000201221
0.000182522
0.000182555
0.000183412
0.000201523
0.000201521
0.000202492
0.000202488
0.000182559
0.000183416
0.000201538
0.00020151
0.000202506
0.000202477
0.000201525
0.000202516
0.000202491
0.000182558
0.000183406
0.00020154
0.000202509
0.000202507
0.000183369
0.000183407
0.000184207
0.000202795
0.000202792
0.000203708
0.000203704
0.000183411
0.000184234
0.000202809
0.000202782
0.000203722
0.000203694
0.000202794
0.00020373
0.000203705
0.000183401
0.000184222
0.00020281
0.000203724
0.000203722
0.000184169
0.000184216
0.000184971
0.000203994
0.000203991
0.000204851
0.000204847
0.000184218
0.000184979
0.000204008
0.000203981
0.000204866
0.000204837
0.000203993
0.000204871
0.000204848
0.000184203
0.000184968
0.000204009
0.000204866
0.000204865
0.000184956
0.000184977
0.000185676
0.000205123
0.00020512
0.000205922
0.000205918
0.000184981
0.000185694
0.000205139
0.000205111
0.000205937
0.000205909
0.000205121
0.000205939
0.000205918
0.000184972
0.000185681
0.000205139
0.000205934
0.000205937
0.000185663
0.000185678
0.000186324
0.000206184
0.000206181
0.000206923
0.000206919
0.000185674
0.000186371
0.000206201
0.000206173
0.000206938
0.000206911
0.000206181
0.000206937
0.000206919
0.000185663
0.000186355
0.000206201
0.000206934
0.000206939
0.000186325
0.000186336
0.000186981
0.00020718
0.000207177
0.000207857
0.000207855
0.000186309
0.00018699
0.000207196
0.000207169
0.000207873
0.000207846
0.000207177
0.00020787
0.000207855
0.000186299
0.000186932
0.000207197
0.000207866
0.000207875
0.000186944
0.000186901
0.000187552
0.00020811
0.000208109
0.000208729
0.000208728
0.000186915
0.000187562
0.000208127
0.000208101
0.000208745
0.00020872
0.000208109
0.000208743
0.000208729
0.000186941
0.000187508
0.000208129
0.000208739
0.000208749
0.000187515
0.000187467
0.000188071
0.000208977
0.000208976
0.000209541
0.000209541
0.000187476
0.00018808
0.000208994
0.000208968
0.000209558
0.000209533
0.000208978
0.000209554
0.000209544
0.000187501
0.00018803
0.000208998
0.00020955
0.000209564
0.000188032
0.000187973
0.00018854
0.000209776
0.00020978
0.000210291
0.000210292
0.000187983
0.000188549
0.000209795
0.000209771
0.000210309
0.000210285
0.000209781
0.000210304
0.000210297
0.000188007
0.000188501
0.000209802
0.000210301
0.000210318
0.000188502
0.000188432
0.000188967
0.000210517
0.000210517
0.000210986
0.000210988
0.000188446
0.000188938
0.000210534
0.000210511
0.000211007
0.000210981
0.000210522
0.000211002
0.000210993
0.000188465
0.000188967
0.000210541
0.000210997
0.000211015
0.000188931
0.00018885
0.000189354
0.000211193
0.000211195
0.000211627
0.00021163
0.000188891
0.000189326
0.000211212
0.000211189
0.000211647
0.000211623
0.000211204
0.000211644
0.000211637
0.000188849
0.000189353
0.000211222
0.000211637
0.000211659
0.00018932
0.000189228
0.000189703
0.000211817
0.00021182
0.000212215
0.000212216
0.000189269
0.00018971
0.000211836
0.000211813
0.000212237
0.000212209
0.00021183
0.00021223
0.000212227
0.000189227
0.000189698
0.000211846
0.000212223
0.000212248
0.000189668
0.000189564
0.000189968
0.00021238
0.000212386
0.000212752
0.000212748
0.000189568
0.000190013
0.000212401
0.000212374
0.00021277
0.000212742
0.000212399
0.000212761
0.00021276
0.000189563
0.000189999
0.000212413
0.000212752
0.000212778
0.000190014
0.000189883
0.000190272
0.000212891
0.000212897
0.000213229
0.000213224
0.000189869
0.000190277
0.000212913
0.000212883
0.000213247
0.000213219
0.000212912
0.000213239
0.000213239
0.000189857
0.00019023
0.000212927
0.000213229
0.000213255
0.000190275
0.000190121
0.000190514
0.000213351
0.000213353
0.000213649
0.000213647
0.000190123
0.000190502
0.000213373
0.000213336
0.000213669
0.000213643
0.000213369
0.000213665
0.000213662
0.000190145
0.000190453
0.000213385
0.000213657
0.000213677
0.000190518
0.000190347
0.00019073
0.000213757
0.000213754
0.000214019
0.000214014
0.000190368
0.000190711
0.000213775
0.000213734
0.000214043
0.000214012
0.00021377
0.000214033
0.000214028
0.000190385
0.000190661
0.000213784
0.000214027
0.000214042
0.000190708
0.000190561
0.000190886
0.000214102
0.000214097
0.000214321
0.000214314
0.000190596
0.000190865
0.000214115
0.000214074
0.000214346
0.000214309
0.00021411
0.000214334
0.000214326
0.000190612
0.000190813
0.000214123
0.000214327
0.000214339
0.000190879
0.000190702
0.000191016
0.000214392
0.000214385
0.000214576
0.000214567
0.000190726
0.000190983
0.000214407
0.000214366
0.000214598
0.000214557
0.000214395
0.000214589
0.000214575
0.000190738
0.000190941
0.000214408
0.000214577
0.000214588
0.000191
0.000190826
0.000191098
0.000214635
0.000214627
0.000214866
0.000214855
0.000190859
0.000191079
0.000214653
0.00021461
0.000214885
0.000214843
0.000214632
0.000214878
0.000214862
0.000190836
0.000191047
0.000214646
0.000214865
0.000214875
0.000191057
0.000190944
0.000192434
0.000214748
0.000214737
0.000217391
0.000217387
0.000190972
0.00019244
0.000214767
0.000214721
0.00021741
0.00021738
0.000214738
0.000217406
0.000217386
0.000190924
0.000192539
0.000214754
0.000217392
0.000217401
0.000192517
0.000194647
0.000216351
0.000216335
0.000194628
0.000216366
0.000216249
0.000238127
0.000238112
0.000238132
0.000216269
0.000194494
0.00021628
9.98675e-05
5.07478e-05
2.38942e-05
9.98778e-05
5.07436e-05
0.000207822
0.000207824
0.000207824
0.000207831
0.000144189
0.000200556
0.000103629
0.000210083
2.3892e-05
0.000144185
0.000200548
0.000210081
0.00010363
0.000182069
7.79139e-05
7.79126e-05
9.99788e-05
5.07571e-05
9.99227e-05
5.07679e-05
2.38991e-05
2.39035e-05
9.99885e-05
5.07565e-05
9.99268e-05
5.07629e-05
0.000208398
0.000208398
0.000208407
0.00021017
0.000210168
0.000210169
0.000210175
0.000144587
0.000103699
0.00021138
0.000201883
0.000144394
0.000103773
0.000211829
2.3897e-05
2.39013e-05
0.000144579
0.000211379
0.000103701
0.000201875
0.000144406
0.000211828
0.000103775
7.79495e-05
7.79481e-05
0.000182966
7.79711e-05
7.79698e-05
0.00010008
5.07768e-05
0.000100024
5.07873e-05
2.39083e-05
2.39126e-05
0.000100089
5.07735e-05
0.000100032
5.07842e-05
0.000210719
0.000210719
0.000210727
0.000212415
0.000212414
0.000212414
0.000212419
0.00014495
0.000103837
0.000213057
0.000203134
0.000144773
0.000103906
0.000213486
2.39062e-05
2.39104e-05
0.000144948
0.000213055
0.000103841
0.000203127
0.000144771
0.000213485
0.000103909
7.80039e-05
7.80022e-05
0.000183746
7.80233e-05
7.80217e-05
0.000100169
5.07982e-05
0.000100117
5.08037e-05
2.39172e-05
2.39214e-05
0.000100176
5.07926e-05
0.000100126
5.08027e-05
0.000212939
0.000212939
0.000212946
0.000214558
0.000214557
0.000214557
0.000214562
0.000145284
0.000103963
0.000214647
0.000204311
0.000145113
0.000104027
0.000215054
2.39151e-05
2.39192e-05
0.000145279
0.000214646
0.000103967
0.000204306
0.000145115
0.000215054
0.00010403
7.80521e-05
7.80493e-05
0.00018458
7.80704e-05
7.80675e-05
0.000100247
5.08164e-05
0.0001002
5.08221e-05
2.39259e-05
2.393e-05
0.000100249
5.08135e-05
0.000100209
5.08186e-05
0.000215058
0.000215058
0.000215064
0.000216599
0.000216598
0.000216599
0.000216603
0.000145584
0.000104077
0.000216152
0.000205416
0.000145426
0.000104135
0.000216536
2.39237e-05
2.39279e-05
0.000145564
0.000216152
0.00010408
0.000205412
0.000145433
0.000216537
0.000104137
7.80929e-05
7.80939e-05
0.000185318
7.81124e-05
7.81106e-05
0.000100313
5.08313e-05
0.000100272
5.08411e-05
2.39344e-05
2.39383e-05
0.000100316
5.08282e-05
0.00010028
5.0838e-05
0.000217076
0.000217077
0.000217081
0.000218538
0.000218539
0.00021854
0.000218544
0.000145849
0.000104179
0.000217575
0.00020645
0.000145705
0.000104233
0.000217932
2.39322e-05
2.39363e-05
0.000145839
0.000217577
0.000104178
0.000206446
0.000145719
0.000217936
0.000104231
7.81329e-05
7.81343e-05
0.000185999
7.81507e-05
7.81492e-05
0.00010037
5.08506e-05
0.000100332
5.08551e-05
2.39426e-05
2.39464e-05
0.000100373
5.08478e-05
0.00010034
5.08522e-05
0.000218995
0.000218996
0.000219001
0.000220377
0.000220381
0.000220382
0.000220387
0.000146088
0.000104271
0.000218918
0.000207415
0.000145955
0.00010432
0.000219245
2.39404e-05
2.39444e-05
0.00014608
0.000218923
0.000104266
0.00020741
0.000145972
0.000219249
0.000104314
7.81682e-05
7.81694e-05
0.000186643
7.81846e-05
7.81832e-05
0.000100418
5.08664e-05
0.000100383
5.08707e-05
2.39505e-05
2.39542e-05
0.000100423
5.08611e-05
0.000100392
5.08702e-05
0.000220817
0.000220819
0.000220823
0.000222117
0.000222125
0.000222127
0.000222132
0.000146305
0.000104356
0.000220184
0.000208315
0.000146183
0.0001044
0.000220477
2.39484e-05
2.39521e-05
0.000146299
0.00022019
0.000104344
0.000208311
0.000146197
0.00022048
0.000104388
7.81997e-05
7.81979e-05
0.000187248
7.82146e-05
7.82109e-05
0.000100459
5.08791e-05
0.000100428
5.08879e-05
2.39581e-05
2.39616e-05
0.000100467
5.0879e-05
0.000100438
5.0883e-05
0.000222543
0.000222545
0.00022255
0.00022376
0.000223774
0.000223776
0.000223782
0.000146502
0.000104431
0.000221374
0.000209158
0.000146389
0.000104468
0.000221633
2.3956e-05
2.39596e-05
0.000146497
0.000221381
0.000104415
0.000209155
0.000146401
0.000221636
0.000104457
7.82259e-05
7.82247e-05
0.000187784
7.82374e-05
7.82357e-05
0.000100496
5.08943e-05
0.000100467
5.09003e-05
2.39653e-05
2.39686e-05
0.000100506
5.0893e-05
0.000100479
5.0899e-05
0.000224174
0.000224177
0.000224182
0.000225305
0.000225324
0.000225326
0.000225336
0.00014668
0.000104493
0.000222491
0.000209944
0.000146574
0.000104527
0.000222716
2.39632e-05
2.39667e-05
0.000146691
0.0002225
0.000104475
0.000209942
0.000146586
0.000222723
0.000104514
7.82467e-05
7.82461e-05
0.000188277
7.8257e-05
7.82565e-05
0.000100526
5.091e-05
0.0001005
5.09132e-05
2.39721e-05
2.39753e-05
0.000100538
5.09046e-05
0.000100513
5.0913e-05
0.000225715
0.000225717
0.000225723
0.000226758
0.00022678
0.000226782
0.000226792
0.000146837
0.000104539
0.000223543
0.000210669
0.000146758
0.000104563
0.000223736
2.397e-05
2.39733e-05
0.000146837
0.00022355
0.000104537
0.000210666
0.000146739
0.000223742
0.000104571
7.82662e-05
7.82639e-05
0.000188726
7.8277e-05
7.82737e-05
0.000100546
5.09227e-05
0.000100528
5.09272e-05
2.39784e-05
2.39815e-05
0.000100552
5.09174e-05
0.000100538
5.09249e-05
0.000227165
0.000227167
0.000227174
0.000228119
0.000228143
0.000228145
0.000228156
0.000146959
0.000104573
0.000224511
0.000211341
0.000146888
0.000104596
0.000224697
2.39762e-05
2.39794e-05
0.000146951
0.000224516
0.000104588
0.000211335
0.000146875
0.000224702
0.000104616
7.82808e-05
7.82773e-05
0.000189135
7.82892e-05
7.82851e-05
0.000100543
5.09315e-05
0.000100533
5.09388e-05
2.39842e-05
2.39872e-05
0.000100551
5.09317e-05
0.00010054
5.09338e-05
0.000228524
0.000228526
0.000228534
0.00022939
0.000229415
0.000229416
0.000229429
0.000147054
0.000104601
0.000225404
0.000211954
0.000146989
0.000104619
0.000225584
2.39819e-05
2.39849e-05
0.000147051
0.000225408
0.000104616
0.000211946
0.000146988
0.000225588
0.00010463
7.82862e-05
7.82819e-05
0.000189505
7.82921e-05
7.82879e-05
0.000100536
5.09426e-05
0.000100527
5.09482e-05
2.39895e-05
2.39924e-05
0.000100545
5.09412e-05
0.000100536
5.09442e-05
0.000229791
0.000229791
0.000229802
0.000230569
0.000230597
0.000230595
0.00023061
0.000147126
0.000104606
0.000226232
0.000212513
0.000147076
0.000104623
0.000226406
2.3987e-05
2.39899e-05
0.000147123
0.000226232
0.000104612
0.000212506
0.000147074
0.000226407
0.000104627
7.82872e-05
7.82835e-05
0.00018983
7.8291e-05
7.82877e-05
0.000100529
5.09523e-05
0.000100519
5.09563e-05
2.39941e-05
2.39971e-05
0.000100539
5.09493e-05
0.00010053
5.0953e-05
0.000230965
0.000230963
0.000230977
0.000231661
0.000231689
0.000231685
0.000231702
0.000147193
0.000104613
0.000226992
0.000213018
0.000147133
0.000104628
0.000227156
2.39915e-05
2.39946e-05
0.000147187
0.000226989
0.000104616
0.000213008
0.000147129
0.00022715
0.000104631
7.82851e-05
7.82824e-05
0.000190157
7.82865e-05
7.8284e-05
0.000100521
5.09602e-05
0.000100512
5.09638e-05
2.39981e-05
2.40014e-05
0.000100532
5.09568e-05
0.000100523
5.09604e-05
0.000232042
0.000232036
0.000232054
0.000232671
0.000232696
0.00023269
0.00023271
0.000147246
0.000104617
0.000227683
0.000213469
0.00014719
0.000104628
0.00022783
2.39956e-05
2.39989e-05
0.000147233
0.000227675
0.00010462
0.00021346
0.00014719
0.000227822
0.000104631
7.82817e-05
7.82793e-05
0.000190408
7.82806e-05
7.82781e-05
0.00010051
5.09668e-05
0.000100502
5.09708e-05
2.40017e-05
2.40055e-05
0.000100521
5.09634e-05
0.000100514
5.09674e-05
0.000233026
0.000233019
0.000233036
0.000233601
0.000233628
0.000233613
0.000233638
0.000147283
0.000104618
0.000228301
0.000213867
0.000147232
0.000104622
0.00022844
2.39992e-05
2.40031e-05
0.000147273
0.000228289
0.000104621
0.000213861
0.000147223
0.000228429
0.000104625
7.82788e-05
7.82764e-05
0.000190644
7.82736e-05
7.82711e-05
0.000100494
5.09727e-05
0.000100486
5.09775e-05
2.40047e-05
2.40096e-05
0.000100507
5.09693e-05
0.0001005
5.09742e-05
0.000233909
0.000233903
0.000233916
0.000234421
0.000234448
0.000234423
0.000234453
0.000147356
0.000104619
0.000228846
0.000214199
0.000147295
0.000104612
0.00022898
2.40023e-05
2.40072e-05
0.000147341
0.000228832
0.000104622
0.000214194
0.00014727
0.000228967
0.000104615
7.82771e-05
7.82747e-05
0.000190797
7.82657e-05
7.82632e-05
0.000100473
5.09778e-05
0.000100467
5.09847e-05
2.40073e-05
2.40136e-05
0.000100484
5.09747e-05
0.00010048
5.09815e-05
0.000234683
0.000234679
0.000234686
0.000235148
0.00023517
0.000235142
0.000235171
0.000147358
0.000104629
0.000229314
0.000214475
0.000147346
0.000104602
0.000229432
2.40049e-05
2.40113e-05
0.000147348
0.0002293
0.000104632
0.000214466
0.000147331
0.000229415
0.000104605
7.82792e-05
7.82768e-05
0.000190956
7.82594e-05
7.8257e-05
0.000100422
5.0982e-05
0.000100422
5.09931e-05
2.40094e-05
2.40177e-05
0.000100433
5.09791e-05
0.000100434
5.09903e-05
0.000235358
0.000235354
0.000235355
0.000235849
0.000235848
0.000235833
0.000235843
0.000147321
0.000104654
0.00022971
0.000214715
0.000147331
0.000104556
0.000229825
2.40072e-05
2.40155e-05
0.000147315
0.000229695
0.000104655
0.000214702
0.000147322
0.000229809
0.000104555
7.82926e-05
7.82906e-05
0.000191027
7.82492e-05
7.82472e-05
0.00010038
5.09879e-05
0.000100331
5.10292e-05
2.40133e-05
2.40327e-05
0.000100388
5.09847e-05
0.000100338
5.10266e-05
0.0002359
0.000235882
0.000235894
0.000235483
0.000235482
0.000235466
0.000235466
0.000147335
0.000104646
0.000230044
0.000215394
0.000147323
0.000104434
0.00022995
2.4011e-05
2.40307e-05
0.000147331
0.000230031
0.000104644
0.000215376
0.000147319
0.000229934
0.000104433
7.82631e-05
7.82614e-05
0.000191422
7.80612e-05
7.80609e-05
0.000109311
5.51382e-05
0.000100784
8.50174e-05
2.70568e-05
4.60736e-05
0.000109313
5.51347e-05
0.000100787
8.50176e-05
0.000251909
0.000245181
0.000245176
0.000237429
0.000251892
0.000245996
0.000245992
0.000151415
0.000106528
0.000234521
0.000215827
0.000148386
0.000109208
0.000232914
2.70552e-05
4.60802e-05
0.000151404
0.000234507
0.000106526
0.000216124
0.000148379
0.000232818
0.000109233
7.74943e-05
7.74864e-05
0.000198736
8.62184e-05
8.62287e-05
2.38949e-05
2.38935e-05
0.000182012
7.79198e-05
7.79148e-05
2.38996e-05
2.38951e-05
2.38982e-05
2.38938e-05
0.000182124
7.79488e-05
7.79437e-05
7.79242e-05
7.79191e-05
9.98705e-05
5.07475e-05
0.000144188
0.00020053
0.000103632
0.000210074
0.000144191
0.000200527
0.000103628
0.000210075
9.98665e-05
5.07579e-05
5.0747e-05
9.99236e-05
9.98696e-05
5.07583e-05
5.0747e-05
9.99268e-05
0.00014421
0.000200859
0.000103707
0.00021096
0.000103629
0.000210506
0.000144387
0.000144213
0.000200858
0.000103702
0.000210962
0.000103625
0.000210509
0.00014439
0.000182015
7.79141e-05
7.79102e-05
2.38947e-05
2.38988e-05
2.38945e-05
0.000182128
7.79431e-05
7.79392e-05
7.79201e-05
7.79166e-05
2.38993e-05
2.3895e-05
0.0001442
0.000200545
0.000103624
0.000210075
9.98739e-05
5.07383e-05
0.000144196
0.000200517
0.000210072
0.000103611
9.98704e-05
5.07526e-05
5.07465e-05
9.99334e-05
0.0001442
0.000200875
0.000103698
0.000210961
0.000103619
0.000210511
0.000144398
9.98666e-05
5.07485e-05
5.07423e-05
9.99297e-05
0.000144196
0.000200848
0.000210958
0.000103686
0.000210506
0.000103608
0.000144394
9.98723e-05
5.07473e-05
0.000144186
0.000200533
0.00021008
0.000103627
9.98666e-05
5.07438e-05
0.000144209
0.000200882
0.000103702
0.000210967
0.000103625
0.00021051
0.000144389
9.98645e-05
5.07573e-05
5.07462e-05
9.99271e-05
0.000144209
0.000200863
0.000210965
0.000103701
0.000210512
0.000103624
0.000144385
9.98655e-05
5.07539e-05
5.07429e-05
9.99222e-05
0.000181997
7.78992e-05
7.7917e-05
2.38939e-05
2.38967e-05
2.38924e-05
0.000182143
7.79284e-05
7.79458e-05
7.79057e-05
7.79234e-05
2.38986e-05
2.38942e-05
0.000144188
0.000200548
0.000210082
0.000103626
9.98654e-05
5.07426e-05
9.98709e-05
5.07442e-05
0.000144207
0.000200874
0.000210965
0.000103703
0.000210508
0.000103626
0.000144384
0.000144211
0.000200878
0.000210967
0.0001037
0.000210514
0.000103624
0.000144387
9.98622e-05
5.07538e-05
5.07425e-05
9.99194e-05
9.98694e-05
5.07543e-05
5.07433e-05
9.99251e-05
2.38936e-05
2.38932e-05
0.000182075
7.7943e-05
7.79418e-05
7.79208e-05
7.79194e-05
2.38983e-05
2.38939e-05
2.38979e-05
2.38935e-05
2.38998e-05
2.39042e-05
2.38985e-05
2.39028e-05
7.79532e-05
7.79479e-05
0.000182986
7.79761e-05
7.79715e-05
2.39087e-05
2.39044e-05
2.39073e-05
2.39031e-05
0.000182986
7.80021e-05
7.79971e-05
7.79815e-05
7.79761e-05
9.99814e-05
5.07574e-05
9.9926e-05
5.07683e-05
0.000144582
0.000103703
0.000211379
0.000201859
0.00014441
0.000103778
0.000211823
0.000144585
0.0001037
0.000211382
0.000201855
0.000144413
0.000103774
0.000211824
9.99767e-05
5.07777e-05
5.07672e-05
0.000100031
9.99807e-05
5.07783e-05
5.07676e-05
0.000100033
0.000144603
0.000202168
0.000103847
0.000212661
0.000103775
0.000212231
0.000144769
0.000144607
0.000202166
0.000103843
0.000212662
0.000103771
0.000212233
0.000144771
7.79494e-05
7.79457e-05
0.000182991
7.79721e-05
7.79673e-05
2.38996e-05
2.3904e-05
2.39081e-05
2.39037e-05
0.00018299
7.79993e-05
7.79941e-05
7.79762e-05
7.79736e-05
2.39085e-05
2.39042e-05
0.000144592
0.000103693
0.000211384
0.000201873
0.0001444
0.00010377
0.000211823
9.99845e-05
5.07525e-05
9.99236e-05
5.07585e-05
0.000144588
0.000211379
0.000103683
0.000201844
0.000144396
0.00021182
0.000103757
9.99813e-05
5.07744e-05
5.07645e-05
0.00010004
0.000144592
0.000202183
0.000103839
0.00021266
0.000103765
0.000212234
0.000144775
9.99777e-05
5.07683e-05
5.07622e-05
0.000100036
0.000144588
0.000202155
0.000212657
0.000103827
0.000212229
0.000103755
0.000144772
9.99777e-05
5.07563e-05
9.99215e-05
5.07673e-05
0.000144578
0.000211384
0.000103699
0.000201858
0.000144407
0.000211826
0.000103773
9.99762e-05
5.0753e-05
9.99216e-05
5.07639e-05
0.000144589
0.000202189
0.000103842
0.000212667
0.00010377
0.000212232
0.000144771
9.99758e-05
5.07766e-05
5.07663e-05
0.000100028
0.0001446
0.000202169
0.000212663
0.000103842
0.000212234
0.000103769
0.000144763
9.99756e-05
5.07739e-05
5.07632e-05
0.000100027
7.79351e-05
7.79525e-05
0.000182978
7.79568e-05
7.79738e-05
2.38989e-05
2.39032e-05
2.39059e-05
2.39016e-05
0.00018298
7.7984e-05
7.80009e-05
7.79634e-05
7.79806e-05
2.39078e-05
2.39035e-05
0.000144582
0.000211386
0.000103699
0.000201874
0.00014441
0.000211829
0.000103772
9.99728e-05
5.0753e-05
9.99171e-05
5.07638e-05
9.99785e-05
5.07534e-05
9.99241e-05
5.07643e-05
0.00014459
0.000202181
0.000212665
0.000103844
0.00021223
0.000103772
0.000144768
0.000144596
0.000202184
0.000212665
0.000103841
0.000212236
0.000103769
0.000144772
9.99699e-05
5.07737e-05
5.07631e-05
0.000100023
9.99772e-05
5.07742e-05
5.07636e-05
0.000100029
2.38986e-05
2.39029e-05
2.38982e-05
2.39025e-05
0.00018296
7.79981e-05
7.79966e-05
7.79778e-05
7.79763e-05
2.39075e-05
2.39032e-05
2.39071e-05
2.39028e-05
2.39089e-05
2.39132e-05
2.39076e-05
2.39118e-05
7.80077e-05
7.80027e-05
0.000183829
7.80275e-05
7.8022e-05
2.39176e-05
2.39134e-05
2.39163e-05
2.39121e-05
0.000183818
7.80507e-05
7.80466e-05
7.80317e-05
7.80281e-05
0.000100081
5.07772e-05
0.000100031
5.07878e-05
0.000144952
0.000103843
0.00021306
0.000203112
0.000144773
0.000103912
0.000213483
0.000144955
0.00010384
0.000213062
0.000203108
0.000144781
0.000103908
0.000213484
0.000100072
5.07954e-05
5.07867e-05
0.000100125
0.000100079
5.07974e-05
5.07871e-05
0.000100126
0.000144951
0.000203403
0.000103974
0.000214276
0.000103907
0.000213868
0.000145123
0.000144956
0.000203401
0.000103971
0.000214277
0.000103904
0.00021387
0.000145126
7.80024e-05
7.79997e-05
0.000183833
7.80247e-05
7.80191e-05
2.39088e-05
2.3913e-05
2.3917e-05
2.39128e-05
0.000183823
7.80487e-05
7.80431e-05
7.80275e-05
7.80247e-05
2.39175e-05
2.39133e-05
0.000144944
0.000103833
0.000213062
0.000203125
0.000144782
0.000103903
0.000213481
0.000100085
5.07723e-05
0.000100029
5.0778e-05
0.00014494
0.000213058
0.000103823
0.000203097
0.000144777
0.000213479
0.000103892
0.000100081
5.07936e-05
5.07834e-05
0.000100134
0.000144961
0.000203417
0.000103966
0.000214274
0.000103898
0.00021387
0.000145113
0.000100077
5.07874e-05
5.07816e-05
0.000100131
0.000144957
0.00020339
0.000214272
0.000103956
0.000213866
0.000103889
0.00014511
0.000100076
5.07788e-05
0.000100026
5.07845e-05
0.00014494
0.000213063
0.000103838
0.000203109
0.000144783
0.000213484
0.000103906
0.000100075
5.07728e-05
0.000100026
5.07835e-05
0.00014495
0.000203421
0.000103969
0.000214279
0.000103903
0.000213866
0.000145119
0.000100075
5.07956e-05
5.07874e-05
0.000100121
0.00014496
0.000203402
0.000214277
0.000103968
0.00021387
0.000103902
0.000145109
0.000100074
5.0793e-05
5.07827e-05
0.000100121
7.799e-05
7.80068e-05
0.000183824
7.80098e-05
7.80261e-05
2.3908e-05
2.39123e-05
2.39149e-05
2.39107e-05
0.000183814
7.80348e-05
7.80505e-05
7.80141e-05
7.8032e-05
2.39167e-05
2.39125e-05
0.000144951
0.000213065
0.000103838
0.000203125
0.000144776
0.000213487
0.000103906
0.000100072
5.07727e-05
0.000100017
5.07833e-05
0.000100076
5.07733e-05
0.000100027
5.07838e-05
0.000144949
0.000203415
0.000214278
0.000103972
0.000213865
0.000103905
0.000145116
0.000144953
0.000203418
0.000214279
0.000103969
0.000213872
0.000103902
0.000145121
0.000100064
5.07929e-05
5.07825e-05
0.000100117
0.000100074
5.07934e-05
5.07832e-05
0.000100121
2.39078e-05
2.3912e-05
2.39074e-05
2.39116e-05
0.000183885
7.80473e-05
7.80458e-05
7.80292e-05
7.80275e-05
2.39165e-05
2.39123e-05
2.39161e-05
2.39119e-05
2.39179e-05
2.39219e-05
2.39165e-05
2.39207e-05
7.80547e-05
7.80517e-05
0.000184597
7.80724e-05
7.8069e-05
2.39262e-05
2.39222e-05
2.3925e-05
2.39209e-05
0.000184607
7.80943e-05
7.80908e-05
7.80774e-05
7.80743e-05
0.000100169
5.07963e-05
0.000100123
5.08066e-05
0.000145288
0.000103968
0.000214655
0.000204292
0.000145118
0.000104032
0.000215056
0.000145291
0.000103967
0.000214657
0.000204288
0.000145123
0.000104029
0.000215057
0.00010016
5.08128e-05
5.08072e-05
0.000100209
0.000100162
5.08158e-05
5.08058e-05
0.00010021
0.000145276
0.000204567
0.000104089
0.000215806
0.000104027
0.000215421
0.000145443
0.000145279
0.000204565
0.000104085
0.000215806
0.000104024
0.000215423
0.000145445
7.80511e-05
7.8048e-05
0.000184602
7.80695e-05
7.80652e-05
2.39177e-05
2.39219e-05
2.39257e-05
2.39216e-05
0.000184605
7.80911e-05
7.80864e-05
7.80738e-05
7.80704e-05
2.39262e-05
2.39221e-05
0.000145274
0.000103961
0.000214657
0.000204306
0.000145132
0.000104024
0.000215054
0.000100171
5.07913e-05
0.000100124
5.07967e-05
0.000145272
0.000214653
0.000103951
0.000204278
0.000145128
0.000215052
0.000104014
0.000100171
5.081e-05
5.08034e-05
0.000100211
0.000145295
0.000204582
0.000104081
0.000215804
0.000104019
0.000215422
0.000145429
0.000100167
5.08058e-05
5.08002e-05
0.000100209
0.000145292
0.000204555
0.000215801
0.000104072
0.000215418
0.000104011
0.000145426
0.000100164
5.07949e-05
0.000100119
5.08053e-05
0.00014527
0.000214655
0.000103963
0.000204289
0.000145128
0.000215055
0.000104025
0.000100164
5.07919e-05
0.000100119
5.08022e-05
0.000145272
0.000204584
0.000104084
0.000215803
0.000104022
0.000215414
0.000145439
0.000100162
5.08145e-05
5.08045e-05
0.000100204
0.000145291
0.000204565
0.000215803
0.000104082
0.00021542
0.00010402
0.000145425
0.000100162
5.08095e-05
5.08015e-05
0.000100204
7.80355e-05
7.80544e-05
0.000184593
7.80578e-05
7.8073e-05
2.39169e-05
2.39211e-05
2.39236e-05
2.39194e-05
0.0001846
7.80801e-05
7.80946e-05
7.80583e-05
7.80753e-05
2.39254e-05
2.39213e-05
0.000145286
0.000214658
0.000103964
0.000204306
0.000145123
0.000215058
0.000104027
0.00010016
5.07917e-05
0.00010011
5.08018e-05
0.000100161
5.07923e-05
0.000100116
5.08023e-05
0.00014528
0.000204579
0.000215803
0.000104086
0.000215414
0.000104025
0.00014542
0.000145281
0.000204583
0.000215807
0.000104084
0.000215423
0.000104022
0.000145437
0.000100152
5.0809e-05
5.08022e-05
0.000100196
0.000100156
5.08095e-05
5.08032e-05
0.000100199
2.39167e-05
2.39209e-05
2.39163e-05
2.39205e-05
0.000184619
7.80917e-05
7.80896e-05
7.80725e-05
7.80722e-05
2.39252e-05
2.39211e-05
2.39248e-05
2.39207e-05
2.39265e-05
2.39305e-05
2.39253e-05
2.39292e-05
7.80988e-05
7.8095e-05
0.00018533
7.81144e-05
7.81105e-05
2.39347e-05
2.39308e-05
2.39334e-05
2.39295e-05
0.000185332
7.81337e-05
7.81298e-05
7.81189e-05
7.8115e-05
0.000100247
5.08146e-05
0.000100202
5.08246e-05
0.00014559
0.000104082
0.000216166
0.0002054
0.000145433
0.00010414
0.000216544
0.000145591
0.000104079
0.000216167
0.000205396
0.000145435
0.000104137
0.000216544
0.000100237
5.08323e-05
5.08229e-05
0.000100281
0.000100239
5.08334e-05
5.08237e-05
0.000100282
0.000145576
0.000205662
0.000104191
0.000217249
0.000104134
0.00021689
0.000145727
0.000145577
0.000205659
0.000104187
0.000217249
0.00010413
0.000216891
0.000145728
7.80955e-05
7.80909e-05
0.000185341
7.81113e-05
7.81061e-05
2.39264e-05
2.39305e-05
2.39342e-05
2.39302e-05
0.000185336
7.81308e-05
7.81251e-05
7.81155e-05
7.81106e-05
2.39347e-05
2.39307e-05
0.000145576
0.000104075
0.000216166
0.000205415
0.000145447
0.000104132
0.000216542
0.000100246
5.08096e-05
0.000100203
5.08148e-05
0.000145574
0.000216163
0.000104066
0.000205386
0.000145445
0.000216539
0.000104124
0.000100246
5.08284e-05
5.08221e-05
0.000100283
0.000145593
0.000205678
0.000104183
0.000217248
0.000104126
0.000216891
0.000145717
0.000100239
5.08234e-05
5.08181e-05
0.000100282
0.00014559
0.00020565
0.000217245
0.000104177
0.000216887
0.000104121
0.000145714
0.000100242
5.08133e-05
0.000100201
5.08233e-05
0.000145571
0.000216164
0.000104076
0.000205396
0.000145443
0.00021654
0.000104134
0.000100242
5.08127e-05
0.000100201
5.08179e-05
0.000145571
0.000205678
0.000104187
0.000217241
0.00010413
0.00021688
0.00014572
0.000100235
5.08321e-05
5.08224e-05
0.000100277
0.000145587
0.00020566
0.000217244
0.000104186
0.000216887
0.000104128
0.000145708
0.000100238
5.08282e-05
5.08211e-05
0.000100276
7.80802e-05
7.80961e-05
0.000185329
7.81009e-05
7.81146e-05
2.39256e-05
2.39296e-05
2.39321e-05
2.3928e-05
0.000185326
7.81204e-05
7.81333e-05
7.81008e-05
7.81157e-05
2.39338e-05
2.39299e-05
0.000145576
0.000216167
0.000104078
0.000205415
0.000145439
0.000216544
0.000104136
0.000100232
5.08125e-05
0.00010019
5.08177e-05
0.000100235
5.08131e-05
0.000100194
5.08183e-05
0.000145579
0.000205674
0.000217243
0.000104186
0.000216881
0.000104131
0.000145705
0.000145582
0.000205678
0.000217248
0.000104188
0.000216891
0.000104131
0.000145706
0.000100227
5.08263e-05
5.08211e-05
0.000100266
0.00010023
5.08286e-05
5.08217e-05
0.000100269
2.39254e-05
2.39295e-05
2.39251e-05
2.3929e-05
0.000185336
7.81324e-05
7.81307e-05
7.81137e-05
7.81153e-05
2.39337e-05
2.39297e-05
2.39333e-05
2.39293e-05
2.39349e-05
2.39388e-05
2.39337e-05
2.39376e-05
7.81372e-05
7.81333e-05
0.000186001
7.8151e-05
7.81471e-05
2.39429e-05
2.39391e-05
2.39416e-05
2.39378e-05
0.000186015
7.8168e-05
7.81643e-05
7.81544e-05
7.81506e-05
0.000100314
5.0832e-05
0.000100274
5.08413e-05
0.000145855
0.000104183
0.000217593
0.000206437
0.000145716
0.000104235
0.000217946
0.000145856
0.000104179
0.000217595
0.000206433
0.000145716
0.000104231
0.000217946
0.000100303
5.08478e-05
5.08403e-05
0.000100342
0.000100305
5.08477e-05
5.08423e-05
0.000100343
0.00014584
0.00020669
0.00010428
0.000218607
0.000104228
0.000218277
0.000145973
0.000145841
0.000206687
0.000104276
0.000218607
0.000104224
0.000218278
0.000145974