/*--------------------------------*- C++ -*----------------------------------*\
| =========                 |                                                 |
| \\      /  F ield         | OpenFOAM: The Open Source CFD Toolbox           |
|  \\    /   O peration     | Version:  v1906                                 |
|   \\  /    A nd           | Web:      www.OpenFOAM.com                      |
|    \\/     M anipulation  |                                                 |
\*---------------------------------------------------------------------------*/
FoamFile
{
    version     2.0;
    format      ascii;
    class       surfaceScalarField;
    location    "400";
    object      phi;
}
// * * * * * * * * * * * * * * * * * * * * * * * * * * * * * * * * * * * * * //

dimensions      [0 3 -1 0 0 0 0];
oriented        oriented;


internalField   nonuniform List<scalar> 
124908
(
1.25787e-07
1.26152e-07
-0.00118363
-7.76953e-08
-7.76527e-08
0.00118353
-0.00113211
-1.19576e-06
-1.26517e-07
-5.12359e-08
0.00113209
-2.33409e-07
1.24126e-06
2.72188e-07
9.11773e-07
-2.11327e-07
-8.51466e-07
2.66911e-07
-0.00113175
-1.19031e-06
-1.26633e-07
-5.11548e-08
0.00113173
-2.33412e-07
1.23578e-06
2.72204e-07
9.11633e-07
-2.14006e-07
-8.51314e-07
2.69652e-07
-0.000270093
1.22426e-06
1.19027e-06
-1.97285e-07
-2.02609e-07
0.000268078
1.2766e-07
1.27951e-07
-0.00118324
-8.00061e-08
-8.00237e-08
0.00118315
-0.00113202
-1.19548e-06
-1.28484e-07
-5.19665e-08
0.001132
-2.33247e-07
1.24113e-06
2.72056e-07
9.11721e-07
-2.1113e-07
-8.51183e-07
2.66833e-07
-0.00113166
-1.19001e-06
-1.28521e-07
-5.18919e-08
0.00113164
-2.3324e-07
1.23566e-06
2.72093e-07
9.11599e-07
-2.13827e-07
-8.51054e-07
2.69553e-07
-0.000270102
1.22397e-06
1.18995e-06
-1.97106e-07
-2.02471e-07
0.000268088
1.28893e-07
1.29116e-07
-0.00118286
-8.1774e-08
-8.18794e-08
0.00118277
-0.00113195
-1.19532e-06
-1.29783e-07
-5.25058e-08
0.00113193
-2.33173e-07
1.24096e-06
2.71884e-07
9.11635e-07
-2.11066e-07
-8.51102e-07
2.6668e-07
-0.00113158
-1.18983e-06
-1.29725e-07
-5.24043e-08
0.00113156
-2.33152e-07
1.2355e-06
2.7194e-07
9.11462e-07
-2.13793e-07
-8.50977e-07
2.69371e-07
-0.000270113
1.2238e-06
1.18972e-06
-1.97001e-07
-2.02432e-07
0.000268099
1.29424e-07
1.29617e-07
-0.00118249
-8.29839e-08
-8.31948e-08
0.00118239
-0.00113188
-1.19527e-06
-1.30411e-07
-5.27657e-08
0.00113186
-2.33212e-07
1.24072e-06
2.71654e-07
9.11416e-07
-2.11175e-07
-8.51153e-07
2.66404e-07
-0.00113151
-1.18976e-06
-1.30178e-07
-5.26982e-08
0.00113149
-2.33155e-07
1.23529e-06
2.71747e-07
9.11196e-07
-2.13944e-07
-8.5108e-07
2.69053e-07
-0.000270126
1.22379e-06
1.18965e-06
-1.97027e-07
-2.02521e-07
0.000268113
1.29215e-07
1.29439e-07
-0.00118212
-8.36695e-08
-8.39515e-08
0.00118203
-0.00113181
-1.19536e-06
-1.3023e-07
-5.27731e-08
0.0011318
-2.33346e-07
1.24042e-06
2.71378e-07
9.11064e-07
-2.1147e-07
-8.51416e-07
2.65996e-07
-0.00113145
-1.18982e-06
-1.2985e-07
-5.27492e-08
0.00113143
-2.33263e-07
1.23502e-06
2.71494e-07
9.10806e-07
-2.14286e-07
-8.51384e-07
2.686e-07
-0.000270141
1.22393e-06
1.18974e-06
-1.97188e-07
-2.02721e-07
0.000268127
1.28321e-07
1.28498e-07
-0.00118176
-8.38342e-08
-8.41672e-08
0.00118167
-0.00113176
-1.19555e-06
-1.29229e-07
-5.25807e-08
0.00113175
-2.33558e-07
1.24008e-06
2.7107e-07
9.10569e-07
-2.1196e-07
-8.51886e-07
2.65441e-07
-0.00113139
-1.19001e-06
-1.28738e-07
-5.25757e-08
0.00113138
-2.33466e-07
1.23468e-06
2.71192e-07
9.10272e-07
-2.14811e-07
-8.5189e-07
2.68016e-07
-0.000270157
1.2242e-06
1.19001e-06
-1.97498e-07
-2.03029e-07
0.000268143
1.26688e-07
1.26872e-07
-0.00118141
-8.34995e-08
-8.38582e-08
0.00118132
-0.00113171
-1.19586e-06
-1.27357e-07
-5.21795e-08
0.0011317
-2.33858e-07
1.23968e-06
2.70716e-07
9.09905e-07
-2.12646e-07
-8.52575e-07
2.64734e-07
-0.00113134
-1.19033e-06
-1.26805e-07
-5.21919e-08
0.00113133
-2.3379e-07
1.23427e-06
2.70814e-07
9.09601e-07
-2.15504e-07
-8.52588e-07
2.67309e-07
-0.000270174
1.2246e-06
1.19046e-06
-1.97975e-07
-2.03445e-07
0.00026816
1.24357e-07
1.24586e-07
-0.00118107
-8.27195e-08
-8.30432e-08
0.00118098
-0.00113167
-1.19629e-06
-1.2462e-07
-5.1543e-08
0.00113166
-2.34273e-07
1.23923e-06
2.70297e-07
9.09068e-07
-2.13558e-07
-8.53492e-07
2.63858e-07
-0.0011313
-1.19077e-06
-1.24108e-07
-5.15883e-08
0.00113129
-2.3422e-07
1.2338e-06
2.70376e-07
9.08778e-07
-2.16392e-07
-8.5349e-07
2.66462e-07
-0.000270191
1.22513e-06
1.19108e-06
-1.98614e-07
-2.03983e-07
0.000268178
1.2136e-07
1.2162e-07
-0.00118074
-8.14622e-08
-8.17251e-08
0.00118066
-0.00113164
-1.19686e-06
-1.21176e-07
-5.06413e-08
0.00113163
-2.34813e-07
1.23868e-06
2.69786e-07
9.08086e-07
-2.14623e-07
-8.54594e-07
2.62853e-07
-0.00113127
-1.19139e-06
-1.20799e-07
-5.06794e-08
0.00113126
-2.34818e-07
1.2332e-06
2.69808e-07
9.07841e-07
-2.17401e-07
-8.54546e-07
2.65512e-07
-0.00027021
1.2258e-06
1.19186e-06
-1.99398e-07
-2.04645e-07
0.000268197
1.17813e-07
1.17995e-07
-0.00118043
-7.97052e-08
-7.99532e-08
0.00118035
-0.00113161
-1.19758e-06
-1.17237e-07
-4.94723e-08
0.00113161
-2.35474e-07
1.23805e-06
2.69176e-07
9.07033e-07
-2.15774e-07
-8.55791e-07
2.61793e-07
-0.00113124
-1.19216e-06
-1.17055e-07
-4.93781e-08
0.00113124
-2.35561e-07
1.23249e-06
2.69121e-07
9.06839e-07
-2.18494e-07
-8.55703e-07
2.64501e-07
-0.00027023
1.22655e-06
1.19273e-06
-2.00242e-07
-2.05365e-07
0.000268217
1.13871e-07
1.13869e-07
-0.00118013
-7.75273e-08
-7.78317e-08
0.00118006
-0.00113159
-1.19839e-06
-1.12997e-07
-4.79696e-08
0.00113159
-2.36232e-07
1.23732e-06
2.6849e-07
9.05929e-07
-2.16964e-07
-8.57046e-07
2.60679e-07
-0.00113122
-1.19306e-06
-1.13022e-07
-4.76963e-08
0.00113122
-2.36414e-07
1.23169e-06
2.68334e-07
9.05828e-07
-2.19622e-07
-8.56913e-07
2.6345e-07
-0.000270251
1.22739e-06
1.19366e-06
-2.0111e-07
-2.06158e-07
0.000268237
1.09707e-07
1.09511e-07
-0.00117985
-7.50854e-08
-7.54515e-08
0.00117978
-0.00113158
-1.19926e-06
-1.08614e-07
-4.62801e-08
0.00113158
-2.37053e-07
1.23654e-06
2.67727e-07
9.04761e-07
-2.18149e-07
-8.58312e-07
2.59532e-07
-0.00113121
-1.194e-06
-1.08806e-07
-4.58313e-08
0.00113121
-2.37316e-07
1.23085e-06
2.67495e-07
9.04674e-07
-2.20753e-07
-8.58106e-07
2.62357e-07
-0.000270272
1.22828e-06
1.19457e-06
-2.01953e-07
-2.06989e-07
0.000268258
1.05473e-07
1.05141e-07
-0.00117958
-7.25316e-08
-7.29141e-08
0.00117952
-0.00113158
-1.20017e-06
-1.0429e-07
-4.44585e-08
0.00113158
-2.37916e-07
1.23571e-06
2.66879e-07
9.03626e-07
-2.19236e-07
-8.59526e-07
2.58344e-07
-0.00113121
-1.19498e-06
-1.04647e-07
-4.38344e-08
0.00113121
-2.38178e-07
1.22997e-06
2.66626e-07
9.0353e-07
-2.21819e-07
-8.59283e-07
2.61195e-07
-0.000270293
1.22917e-06
1.19547e-06
-2.02757e-07
-2.07814e-07
0.000268279
1.0137e-07
1.01056e-07
-0.00117933
-7.00704e-08
-7.03816e-08
0.00117927
-0.00113157
-1.20109e-06
-1.00243e-07
-4.25009e-08
0.00113158
-2.38754e-07
1.23481e-06
2.65971e-07
9.02335e-07
-2.20129e-07
-8.60557e-07
2.57104e-07
-0.00113121
-1.19587e-06
-1.00703e-07
-4.19157e-08
0.00113121
-2.38988e-07
1.22908e-06
2.65746e-07
9.02276e-07
-2.22716e-07
-8.60311e-07
2.59943e-07
-0.000270315
1.23003e-06
1.1963e-06
-2.03471e-07
-2.08569e-07
0.0002683
9.76093e-08
9.74799e-08
-0.00117909
-6.78918e-08
-6.80171e-08
0.00117903
-0.00113158
-1.20194e-06
-9.66579e-08
-4.05483e-08
0.00113158
-2.39507e-07
1.23381e-06
2.64953e-07
9.00932e-07
-2.20666e-07
-8.61243e-07
2.55644e-07
-0.00113121
-1.19667e-06
-9.71784e-08
-4.01416e-08
0.00113122
-2.39657e-07
1.22816e-06
2.64817e-07
9.00861e-07
-2.23277e-07
-8.61021e-07
2.58455e-07
-0.000270336
1.23078e-06
1.19703e-06
-2.04035e-07
-2.09167e-07
0.000268322
9.44844e-08
9.46368e-08
-0.00117887
-6.61989e-08
-6.60726e-08
0.00117881
-0.00113158
-1.20265e-06
-9.38079e-08
-3.84549e-08
0.00113159
-2.40052e-07
1.2326e-06
2.63708e-07
8.99029e-07
-2.20523e-07
-8.61442e-07
2.53556e-07
-0.00113122
-1.19729e-06
-9.44059e-08
-3.8383e-08
0.00113123
-2.40085e-07
1.22705e-06
2.63661e-07
8.9899e-07
-2.23148e-07
-8.61258e-07
2.56341e-07
-0.000270358
1.23135e-06
1.19758e-06
-2.04331e-07
-2.09492e-07
0.000268343
9.25724e-08
9.30557e-08
-0.00117866
-6.56466e-08
-6.52585e-08
0.0011786
-0.00113159
-1.20292e-06
-9.22522e-08
-3.62066e-08
0.0011316
-2.40042e-07
1.2308e-06
2.61728e-07
8.96037e-07
-2.18738e-07
-8.60563e-07
2.49765e-07
-0.00113123
-1.19743e-06
-9.28856e-08
-3.65231e-08
0.00113124
-2.39952e-07
1.22538e-06
2.61811e-07
8.95936e-07
-2.21377e-07
-8.60389e-07
2.52524e-07
-0.000270379
1.23145e-06
1.19765e-06
-2.03938e-07
-2.09131e-07
0.000268363
9.29098e-08
9.36916e-08
-0.00117846
-6.78288e-08
-6.71915e-08
0.00117841
-0.00113159
-1.20167e-06
-9.30906e-08
-3.24731e-08
0.00113161
-2.38071e-07
1.22699e-06
2.57187e-07
8.90126e-07
-2.1246e-07
-8.57163e-07
2.40951e-07
-0.00113124
-1.19608e-06
-9.36946e-08
-3.31602e-08
0.00113126
-2.37896e-07
1.22168e-06
2.5742e-07
8.89981e-07
-2.15151e-07
-8.56944e-07
2.43663e-07
-0.0002704
1.22999e-06
1.19615e-06
-2.01299e-07
-2.06541e-07
0.000268382
1.14258e-07
1.1559e-07
-0.00117829
-8.32587e-08
-8.81942e-08
0.00117823
-0.0011316
-1.19485e-06
-1.09553e-07
-3.58281e-08
0.00113165
-2.28326e-07
1.21914e-06
2.48517e-07
8.80253e-07
-1.95533e-07
-8.48599e-07
2.19579e-07
-0.00113125
-1.18645e-06
-1.15733e-07
-3.15181e-08
0.0011313
-2.27985e-07
1.21121e-06
2.4605e-07
8.77468e-07
-1.95551e-07
-8.45737e-07
2.22339e-07
-0.00027043
1.22573e-06
1.18909e-06
-1.87986e-07
-1.93287e-07
0.000268396
1.02971e-06
1.03808e-06
-0.00117801
-8.94413e-07
-8.82368e-07
0.00117772
-0.0011319
-1.0914e-06
-1.03244e-06
-4.30082e-07
0.00113238
-1.22934e-07
1.3721e-06
3.1132e-07
1.00198e-06
-5.78967e-08
-7.25791e-07
2.88441e-07
-0.00113156
-1.08281e-06
-1.04381e-06
-4.42568e-07
0.00113207
-1.22393e-07
1.36704e-06
3.14597e-07
9.98972e-07
-6.41373e-08
-7.2293e-07
2.91211e-07
-0.000270543
1.12475e-06
1.08266e-06
-8.24508e-08
-8.5029e-08
0.000268503
5.50858e-06
5.50176e-06
-0.00116477
-1.16746e-05
-1.15667e-05
0.00028351
0.000285739
0.000285479
0.000285479
4.52395e-06
6.7135e-06
7.15564e-06
4.52818e-06
6.71465e-06
7.1595e-06
-0.000280633
5.41304e-06
-5.49897e-06
5.95797e-06
-3.38463e-06
0.000278146
-0.00028061
-5.50153e-06
5.41886e-06
-3.39339e-06
5.955e-06
0.000278131
-0.000271474
-5.41051e-06
-5.42214e-06
5.74154e-06
5.7295e-06
0.000270836
-1.27528e-06
-1.2387e-06
0.000270109
-0.000268082
2.39403e-07
2.47258e-07
0.00113127
-1.25223e-07
-0.0011313
-5.10373e-08
-1.22977e-06
2.77666e-07
-2.38901e-07
-8.51606e-07
2.66799e-07
-2.11464e-07
9.11605e-07
1.28091e-06
0.00113172
-1.24986e-07
-0.00113175
-5.16175e-08
-1.23513e-06
2.8066e-07
-2.41588e-07
-8.57215e-07
2.69454e-07
-2.14402e-07
9.1709e-07
-1.24129e-06
0.000270139
-0.000268103
2.42093e-07
2.44637e-07
0.00113238
-1.25602e-07
-0.00113241
-5.10746e-08
-1.19311e-06
2.75195e-07
-2.36235e-07
-8.54325e-07
2.69608e-07
-2.14273e-07
9.1445e-07
1.27546e-06
0.00113138
-1.24952e-07
-0.0011314
-5.16349e-08
-1.22967e-06
2.80651e-07
-2.41593e-07
-8.54377e-07
2.69401e-07
-2.14329e-07
9.14215e-07
-1.25917e-07
-0.00113213
-5.0975e-08
-1.19583e-06
2.72213e-07
-2.33441e-07
-8.51553e-07
2.66913e-07
9.11764e-07
-2.11398e-07
1.26993e-06
0.00113117
-1.25459e-07
-0.0011312
-5.14291e-08
-1.22433e-06
2.74945e-07
-2.36058e-07
-8.51648e-07
2.66775e-07
-2.11486e-07
9.11637e-07
-1.2358e-06
0.000270087
-0.000268063
2.39426e-07
2.47212e-07
-1.26058e-07
-0.00113177
-5.09277e-08
-1.19037e-06
2.72236e-07
-2.33451e-07
-8.51344e-07
2.69641e-07
9.11687e-07
-2.14089e-07
1.2361e-06
0.00113228
-1.25805e-07
-0.0011323
-5.16469e-08
-1.19036e-06
2.72525e-07
-2.33386e-07
-8.5168e-07
2.69593e-07
-2.1423e-07
9.11823e-07
-0.000268076
2.42022e-07
2.47303e-07
1.22969e-06
1.19304e-06
-1.94744e-07
-2.02594e-07
0.000268084
-1.27516e-06
-1.2386e-06
0.000270118
-0.00026809
2.39195e-07
2.47033e-07
-5.1265e-08
0.00113125
-2.38862e-07
1.27526e-06
2.77645e-07
9.11625e-07
-2.11419e-07
-8.51554e-07
2.66786e-07
-1.23505e-06
-1.25551e-07
-5.18912e-08
0.0011317
-2.41546e-07
1.28089e-06
2.80642e-07
9.17086e-07
-2.14343e-07
-8.57144e-07
2.69445e-07
0.00113119
-1.27208e-07
-0.00113121
-5.18183e-08
-1.22946e-06
2.77539e-07
-2.38726e-07
-8.51326e-07
2.66711e-07
-2.11269e-07
9.11618e-07
1.28083e-06
0.00113164
-1.26908e-07
-0.00113166
-5.25818e-08
-1.23478e-06
2.80569e-07
-2.41383e-07
-8.56945e-07
2.6937e-07
-2.14201e-07
9.17055e-07
-1.97549e-07
-1.99782e-07
0.000268105
-1.24116e-06
0.000270148
-0.000268112
2.41865e-07
2.44445e-07
-5.137e-08
0.00113236
-2.36188e-07
1.23868e-06
2.75172e-07
9.14442e-07
-2.14222e-07
-8.54252e-07
2.69596e-07
-1.2296e-06
-1.25517e-07
-5.1877e-08
0.00113135
-2.41553e-07
1.27544e-06
2.80624e-07
9.14213e-07
-2.14265e-07
-8.54301e-07
2.69396e-07
0.00113229
-1.27545e-07
-0.00113232
-5.19633e-08
-1.19278e-06
2.75085e-07
-2.36038e-07
-8.5404e-07
2.69519e-07
-2.14058e-07
9.14408e-07
1.27535e-06
0.00113129
-1.26908e-07
-0.00113131
-5.24921e-08
-1.22937e-06
2.80532e-07
-2.41412e-07
-8.54085e-07
2.6934e-07
-2.14101e-07
9.14196e-07
-1.26064e-07
-5.16902e-08
0.00113115
-2.36004e-07
1.26991e-06
2.74923e-07
9.11638e-07
-2.11424e-07
2.66752e-07
-8.51577e-07
-1.28017e-07
-0.00113205
-5.1789e-08
-1.19553e-06
2.72084e-07
-2.33272e-07
-8.51226e-07
2.66852e-07
9.11745e-07
-2.11158e-07
1.26981e-06
0.00113109
-1.2756e-07
-0.00113111
-5.23452e-08
-1.22402e-06
2.7483e-07
-2.35864e-07
-8.51341e-07
2.66723e-07
-2.1124e-07
9.11636e-07
-1.94918e-07
-2.02342e-07
0.000268065
-1.23569e-06
0.000270096
-0.000268071
2.39222e-07
2.46997e-07
-1.2641e-07
-5.19184e-08
0.00113226
-2.33328e-07
1.23608e-06
2.72507e-07
9.11816e-07
-2.14176e-07
2.69577e-07
-8.51614e-07
-1.28069e-07
-0.00113168
-5.17015e-08
-1.19007e-06
2.72118e-07
-2.3327e-07
-8.5105e-07
2.69575e-07
9.11674e-07
-2.13857e-07
1.23601e-06
0.00113219
-1.27807e-07
-0.00113222
-5.2662e-08
-1.19001e-06
2.72446e-07
-2.33159e-07
-8.51398e-07
2.69512e-07
-2.14019e-07
9.11798e-07
-0.000268085
2.41833e-07
2.47071e-07
1.22941e-06
1.19273e-06
-1.94597e-07
-2.02466e-07
0.000268093
-1.27499e-06
-1.23845e-06
0.000270129
-0.000268101
2.38941e-07
2.46764e-07
-5.20205e-08
0.00113117
-2.38702e-07
1.27513e-06
2.77506e-07
9.11592e-07
-2.11237e-07
-8.51286e-07
2.66687e-07
-1.23473e-06
-1.27337e-07
-5.28008e-08
0.00113162
-2.4135e-07
1.2808e-06
2.80543e-07
9.17038e-07
-2.14173e-07
-8.56908e-07
2.69345e-07
0.00113111
-1.28583e-07
-0.00113113
-5.24036e-08
-1.22927e-06
2.77371e-07
-2.3864e-07
-8.51189e-07
2.66563e-07
-2.11172e-07
9.11511e-07
1.28069e-06
0.00113156
-1.28215e-07
-0.00113158
-5.33054e-08
-1.23457e-06
2.80425e-07
-2.41269e-07
-8.56797e-07
2.6921e-07
-2.1412e-07
9.16948e-07
-1.97419e-07
-1.99618e-07
0.000268115
-1.241e-06
0.000270159
-0.000268123
2.41599e-07
2.44199e-07
-5.22006e-08
0.00113227
-2.36013e-07
1.23857e-06
2.75055e-07
9.14388e-07
-2.14053e-07
-8.53998e-07
2.69488e-07
-1.22932e-06
-1.27346e-07
-5.26639e-08
0.00113127
-2.41391e-07
1.27531e-06
2.80495e-07
9.14175e-07
-2.14066e-07
-8.54043e-07
2.69311e-07
0.00113222
-1.28833e-07
-0.00113223
-5.26105e-08
-1.19256e-06
2.74941e-07
-2.35928e-07
-8.53902e-07
2.69365e-07
-2.13987e-07
9.14309e-07
1.27518e-06
0.00113121
-1.2824e-07
-0.00113123
-5.30697e-08
-1.22918e-06
2.80343e-07
-2.4134e-07
-8.53931e-07
2.69204e-07
-2.13989e-07
9.14107e-07
-1.28023e-07
-5.25387e-08
0.00113107
-2.35841e-07
1.26977e-06
2.74795e-07
9.11629e-07
-2.112e-07
2.66709e-07
-8.51295e-07
-1.2944e-07
-0.00113197
-5.23196e-08
-1.19533e-06
2.71927e-07
-2.33176e-07
-8.511e-07
2.66723e-07
9.11662e-07
-2.11075e-07
1.26963e-06
0.00113101
-1.29033e-07
-0.00113103
-5.29433e-08
-1.22383e-06
2.74648e-07
-2.35784e-07
-8.51169e-07
2.66612e-07
-2.11113e-07
9.11574e-07
-1.9477e-07
-2.02211e-07
0.000268074
-1.23555e-06
0.000270107
-0.000268082
2.38984e-07
2.46717e-07
-1.28259e-07
-5.28792e-08
0.00113217
-2.33119e-07
1.23598e-06
2.72431e-07
9.1178e-07
-2.13993e-07
2.69478e-07
-8.51358e-07
-1.29411e-07
-0.0011316
-5.2238e-08
-1.18986e-06
2.71973e-07
-2.33156e-07
-8.50925e-07
2.69394e-07
9.11558e-07
-2.13801e-07
1.23589e-06
0.00113212
-1.29143e-07
-0.00113214
-5.3394e-08
-1.18977e-06
2.72328e-07
-2.33016e-07
-8.51257e-07
2.69359e-07
-2.13941e-07
9.11698e-07
-0.000268096
2.41612e-07
2.46792e-07
1.22924e-06
1.19254e-06
-1.94533e-07
-2.02417e-07
0.000268104
-1.27476e-06
-1.23823e-06
0.000270141
-0.000268113
2.38608e-07
2.4643e-07
-5.25289e-08
0.00113109
-2.38638e-07
1.27494e-06
2.7733e-07
9.11469e-07
-2.11187e-07
-8.51198e-07
2.6651e-07
-1.23455e-06
-1.28509e-07
-5.34622e-08
0.00113154
-2.41267e-07
1.28064e-06
2.80378e-07
9.16907e-07
-2.14127e-07
-8.56808e-07
2.69166e-07
0.00113104
-1.29245e-07
-0.00113105
-5.26444e-08
-1.2292e-06
2.77155e-07
-2.38655e-07
-8.51226e-07
2.66297e-07
-2.11258e-07
9.11293e-07
1.28046e-06
0.00113149
-1.28838e-07
-0.0011315
-5.3655e-08
-1.23448e-06
2.80201e-07
-2.41282e-07
-8.56839e-07
2.68955e-07
-2.14194e-07
9.16738e-07
-1.97376e-07
-1.99562e-07
0.000268126
-1.24077e-06
0.000270172
-0.000268136
2.41265e-07
2.43866e-07
-5.28026e-08
0.0011322
-2.35925e-07
1.23841e-06
2.74903e-07
9.14276e-07
-2.13998e-07
-8.53944e-07
2.69315e-07
-1.22916e-06
-1.28552e-07
-5.31819e-08
0.00113119
-2.41352e-07
1.27513e-06
2.80292e-07
9.14076e-07
-2.14e-07
-8.53933e-07
2.69165e-07
0.00113214
-1.29455e-07
-0.00113216
-5.29606e-08
-1.19249e-06
2.74725e-07
-2.35935e-07
-8.53947e-07
2.69112e-07
-2.14056e-07
9.14087e-07
1.27491e-06
0.00113114
-1.28937e-07
-0.00113116
-5.32681e-08
-1.22914e-06
2.80076e-07
-2.41401e-07
-8.53934e-07
2.68981e-07
-2.14034e-07
9.13927e-07
-1.29378e-07
-5.30788e-08
0.00113099
-2.35789e-07
1.26959e-06
2.74599e-07
9.11547e-07
-2.11109e-07
2.66576e-07
-8.51167e-07
-1.30203e-07
-0.00113189
-5.26456e-08
-1.19526e-06
2.71708e-07
-2.33184e-07
-8.51112e-07
2.66474e-07
9.11464e-07
-2.11127e-07
1.26939e-06
0.00113094
-1.29854e-07
-0.00113096
-5.31857e-08
-1.22378e-06
2.74403e-07
-2.35823e-07
-8.5116e-07
2.66399e-07
-2.11145e-07
9.11404e-07
-1.94692e-07
-2.02184e-07
0.000268085
-1.23534e-06
0.000270119
-0.000268094
2.38682e-07
2.46337e-07
-1.29459e-07
-5.35596e-08
0.0011321
-2.33008e-07
1.23585e-06
2.72293e-07
9.11658e-07
-2.13949e-07
2.69308e-07
-8.51267e-07
-1.30011e-07
-0.00113153
-5.2547e-08
-1.18976e-06
2.71789e-07
-2.33137e-07
-8.5099e-07
2.69108e-07
9.11318e-07
-2.13903e-07
1.2357e-06
0.00113205
-1.29766e-07
-0.00113206
-5.37987e-08
-1.18965e-06
2.72146e-07
-2.32993e-07
-8.51299e-07
2.69088e-07
-2.14026e-07
9.11475e-07
-0.000268109
2.41323e-07
2.46437e-07
1.22921e-06
1.1925e-06
-1.94598e-07
-2.02479e-07
0.000268117
-1.27446e-06
-1.23793e-06
0.000270155
-0.000268127
2.38182e-07
2.4603e-07
-5.27369e-08
0.00113102
-2.38681e-07
1.2747e-06
2.77099e-07
9.11218e-07
-2.11311e-07
-8.5128e-07
2.66224e-07
-1.2345e-06
-1.29007e-07
-5.37327e-08
0.00113147
-2.41316e-07
1.2804e-06
2.8014e-07
9.1668e-07
-2.14241e-07
-8.56886e-07
2.68879e-07
0.00113097
-1.29157e-07
-0.00113099
-5.26089e-08
-1.22927e-06
2.76863e-07
-2.38784e-07
-8.51463e-07
2.65906e-07
-2.11522e-07
9.10954e-07
1.28015e-06
0.00113142
-1.28789e-07
-0.00113144
-5.36033e-08
-1.23457e-06
2.79881e-07
-2.41442e-07
-8.57044e-07
2.68595e-07
-2.14429e-07
9.16425e-07
-1.97427e-07
-1.99616e-07
0.000268139
-1.24048e-06
0.000270186
-0.00026815
2.4087e-07
2.43438e-07
-5.31195e-08
0.00113213
-2.35969e-07
1.23817e-06
2.74666e-07
9.14025e-07
-2.14105e-07
-8.53987e-07
2.69042e-07
-1.22916e-06
-1.29132e-07
-5.33087e-08
0.00113112
-2.41448e-07
1.27484e-06
2.80001e-07
9.1387e-07
-2.14072e-07
-8.53971e-07
2.68921e-07
0.00113208
-1.29388e-07
-0.00113209
-5.3041e-08
-1.19256e-06
2.74436e-07
-2.36076e-07
-8.54149e-07
2.68742e-07
-2.14297e-07
9.13768e-07
1.27456e-06
0.00113108
-1.28942e-07
-0.00113109
-5.31009e-08
-1.22926e-06
2.79717e-07
-2.41603e-07
-8.54111e-07
2.68651e-07
-2.14234e-07
9.13638e-07
-1.30068e-07
-5.32489e-08
0.00113093
-2.35856e-07
1.26932e-06
2.74335e-07
9.11357e-07
-2.11179e-07
2.66338e-07
-8.51192e-07
-1.3017e-07
-0.00113183
-5.26807e-08
-1.19532e-06
2.71438e-07
-2.33297e-07
-8.51327e-07
2.66094e-07
9.11147e-07
-2.11379e-07
1.26906e-06
0.00113088
-1.2992e-07
-0.0011309
-5.30501e-08
-1.22387e-06
2.74079e-07
-2.35988e-07
-8.51338e-07
2.66059e-07
-2.11352e-07
9.11119e-07
-1.94716e-07
-2.02293e-07
0.000268098
-1.23508e-06
0.000270134
-0.000268108
2.3832e-07
2.45866e-07
-1.29941e-07
-5.39164e-08
0.00113203
-2.33006e-07
1.23565e-06
2.72097e-07
9.11413e-07
-2.14077e-07
2.69012e-07
-8.51344e-07
-1.29831e-07
-0.00113146
-5.265e-08
-1.18979e-06
2.71551e-07
-2.33216e-07
-8.51238e-07
2.68683e-07
9.10954e-07
-2.14204e-07
1.23542e-06
0.00113198
-1.29635e-07
-0.001132
-5.3857e-08
-1.1897e-06
2.71868e-07
-2.33092e-07
-8.51521e-07
2.68701e-07
-2.14286e-07
9.11144e-07
-0.000268123
2.40937e-07
2.46003e-07
1.22931e-06
1.19261e-06
-1.94795e-07
-2.02654e-07
0.000268131
-1.27408e-06
-1.23753e-06
0.000270171
-0.000268142
2.37674e-07
2.45526e-07
-5.26548e-08
0.00113096
-2.38843e-07
1.27439e-06
2.7679e-07
9.10858e-07
-2.11616e-07
-8.51555e-07
2.65808e-07
-1.23463e-06
-1.28853e-07
-5.36147e-08
0.00113141
-2.41513e-07
1.28006e-06
2.79796e-07
9.16334e-07
-2.14506e-07
-8.57122e-07
2.68514e-07
0.00113092
-1.28368e-07
-0.00113093
-5.23055e-08
-1.22948e-06
2.76505e-07
-2.39027e-07
-8.51872e-07
2.65398e-07
-2.11957e-07
9.10496e-07
1.27972e-06
0.00113137
-1.2808e-07
-0.00113138
-5.3133e-08
-1.23482e-06
2.79458e-07
-2.41751e-07
-8.57427e-07
2.68159e-07
-2.1479e-07
9.16005e-07
-1.97586e-07
-1.99817e-07
0.000268153
-1.24015e-06
0.000270202
-0.000268165
2.4043e-07
2.42895e-07
-5.31391e-08
0.00113206
-2.36131e-07
1.23785e-06
2.74367e-07
9.13683e-07
-2.14392e-07
-8.54244e-07
2.68643e-07
-1.22933e-06
-1.29023e-07
-5.30729e-08
0.00113106
-2.41682e-07
1.27447e-06
2.79627e-07
9.13559e-07
-2.14312e-07
-8.54193e-07
2.68566e-07
0.00113202
-1.28565e-07
-0.00113204
-5.27414e-08
-1.19278e-06
2.7405e-07
-2.36337e-07
-8.54555e-07
2.68249e-07
-2.14719e-07
9.13324e-07
1.2741e-06
0.00113102
-1.28269e-07
-0.00113103
-5.25215e-08
-1.22955e-06
2.7927e-07
-2.41938e-07
-8.54475e-07
2.68198e-07
-2.14608e-07
9.13225e-07
-1.2999e-07
-5.30532e-08
0.00113087
-2.36049e-07
1.26898e-06
2.73999e-07
9.11042e-07
-2.11431e-07
2.65968e-07
-8.51422e-07
-1.29312e-07
-0.00113177
-5.25056e-08
-1.19549e-06
2.71132e-07
-2.33493e-07
-8.51746e-07
2.65568e-07
9.1068e-07
-2.1182e-07
1.26866e-06
0.00113083
-1.29163e-07
-0.00113084
-5.25415e-08
-1.22411e-06
2.73695e-07
-2.36262e-07
-8.51715e-07
2.65576e-07
-2.11754e-07
9.10696e-07
-1.94844e-07
-2.02538e-07
0.000268112
-1.23475e-06
0.000270149
-0.000268123
2.37878e-07
2.45291e-07
-1.29674e-07
-5.38898e-08
0.00113197
-2.33156e-07
1.23535e-06
2.71793e-07
9.11061e-07
-2.14372e-07
2.68607e-07
-8.51615e-07
-1.28853e-07
-0.0011314
-5.24838e-08
-1.18994e-06
2.71254e-07
-2.33406e-07
-8.51694e-07
2.68124e-07
9.10451e-07
-2.14685e-07
1.23503e-06
0.00113193
-1.28751e-07
-0.00113194
-5.34388e-08
-1.18992e-06
2.71475e-07
-2.33384e-07
-8.51917e-07
2.68219e-07
-2.14692e-07
9.10704e-07
-0.000268139
2.40437e-07
2.45503e-07
1.22956e-06
1.19286e-06
-1.95097e-07
-2.0296e-07
0.000268146
-1.27362e-06
-1.23707e-06
0.000270188
-0.000268159
2.37093e-07
2.44955e-07
-5.23296e-08
0.0011309
-2.391e-07
1.27399e-06
2.76424e-07
9.10376e-07
-2.12089e-07
-8.52012e-07
2.65276e-07
-1.23493e-06
-1.28054e-07
-5.30645e-08
0.00113135
-2.41859e-07
1.27961e-06
2.79348e-07
9.15906e-07
-2.14901e-07
-8.57546e-07
2.68055e-07
0.00113087
-1.26822e-07
-0.00113088
-5.17587e-08
-1.22982e-06
2.7608e-07
-2.39392e-07
-8.52466e-07
2.64779e-07
-2.12545e-07
9.09913e-07
1.27917e-06
0.00113132
-1.2671e-07
-0.00113133
-5.2197e-08
-1.23526e-06
2.78913e-07
-2.42227e-07
-8.5795e-07
2.67615e-07
-2.15307e-07
9.1549e-07
-1.97826e-07
-2.00172e-07
0.000268169
-1.23976e-06
0.000270219
-0.000268182
2.39936e-07
2.42223e-07
-5.27929e-08
0.00113201
-2.36427e-07
1.23744e-06
2.73966e-07
9.13215e-07
-2.14849e-07
-8.54689e-07
2.68128e-07
-1.22965e-06
-1.28246e-07
-5.245e-08
0.00113101
-2.4204e-07
1.274e-06
2.79167e-07
9.13117e-07
-2.14724e-07
-8.54607e-07
2.68091e-07
0.00113197
-1.27013e-07
-0.00113199
-5.21585e-08
-1.19313e-06
2.73618e-07
-2.36708e-07
-8.55147e-07
2.67635e-07
-2.15304e-07
9.1274e-07
1.27355e-06
0.00113097
-1.26879e-07
-0.00113098
-5.15801e-08
-1.22998e-06
2.78739e-07
-2.42404e-07
-8.55029e-07
2.67633e-07
-2.15141e-07
9.12684e-07
-1.29093e-07
-5.24929e-08
0.00113081
-2.36346e-07
1.26856e-06
2.73602e-07
9.10586e-07
-2.11875e-07
2.6546e-07
-8.51852e-07
-1.27568e-07
-0.00113172
-5.21133e-08
-1.19576e-06
2.70786e-07
-2.3377e-07
-8.5238e-07
2.64894e-07
9.10051e-07
-2.12461e-07
1.26818e-06
0.00113078
-1.2754e-07
-0.00113079
-5.16979e-08
-1.22448e-06
2.73236e-07
-2.36651e-07
-8.52309e-07
2.64957e-07
-2.1234e-07
9.10108e-07
-1.9509e-07
-2.02923e-07
0.000268127
-1.23435e-06
0.000270166
-0.00026814
2.37367e-07
2.44628e-07
-1.2867e-07
-5.33772e-08
0.00113192
-2.33478e-07
1.23493e-06
2.71375e-07
9.10596e-07
-2.14813e-07
2.68104e-07
-8.52054e-07
-1.27021e-07
-0.00113135
-5.21142e-08
-1.19023e-06
2.70888e-07
-2.33701e-07
-8.52346e-07
2.67443e-07
9.09807e-07
-2.15337e-07
1.23451e-06
0.00113188
-1.27109e-07
-0.00113189
-5.25397e-08
-1.19033e-06
2.70965e-07
-2.33823e-07
-8.52496e-07
2.67626e-07
-2.15256e-07
9.10131e-07
-0.000268156
2.39807e-07
2.4493e-07
1.22994e-06
1.19325e-06
-1.95526e-07
-2.03376e-07
0.000268163
-1.27311e-06
-1.23653e-06
0.000270206
-0.000268177
2.36421e-07
2.44301e-07
-5.17716e-08
0.00113086
-2.39499e-07
1.27353e-06
2.75989e-07
9.09767e-07
-2.12713e-07
-8.52649e-07
2.64634e-07
-1.23541e-06
-1.26601e-07
-5.20492e-08
0.00113131
-2.42376e-07
1.27904e-06
2.78779e-07
9.15367e-07
-2.15456e-07
-8.58118e-07
2.67493e-07
0.00113083
-1.24538e-07
-0.00113084
-5.09958e-08
-1.23029e-06
2.75595e-07
-2.39856e-07
-8.53251e-07
2.64029e-07
-2.13311e-07
9.09187e-07
1.2785e-06
0.00113128
-1.24654e-07
-0.00113129
-5.08052e-08
-1.23588e-06
2.78263e-07
-2.42861e-07
-8.58666e-07
2.66942e-07
-2.15983e-07
9.14831e-07
-1.98159e-07
-2.00691e-07
0.000268186
-1.23931e-06
0.000270237
-0.0002682
2.39369e-07
2.41422e-07
-5.21863e-08
0.00113196
-2.36822e-07
1.23697e-06
2.73521e-07
9.12607e-07
-2.15476e-07
-8.55331e-07
2.67492e-07
-1.23013e-06
-1.26775e-07
-5.14557e-08
0.00113096
-2.42538e-07
1.27343e-06
2.78618e-07
9.12557e-07
-2.15295e-07
-8.55202e-07
2.67504e-07
0.00113193
-1.24772e-07
-0.00113194
-5.12931e-08
-1.19362e-06
2.73112e-07
-2.37192e-07
-8.55926e-07
2.66902e-07
-2.16062e-07
9.12026e-07
1.27292e-06
0.00113093
-1.24797e-07
-0.00113094
-5.0326e-08
-1.23056e-06
2.7814e-07
-2.42973e-07
-8.55767e-07
2.66934e-07
-2.15852e-07
9.12005e-07
-1.27333e-07
-5.16048e-08
0.00113077
-2.36764e-07
1.26807e-06
2.73134e-07
9.09964e-07
-2.12512e-07
2.64806e-07
-8.525e-07
-1.24911e-07
-0.00113168
-5.14774e-08
-1.19616e-06
2.70373e-07
-2.34157e-07
-8.53239e-07
2.6405e-07
9.09248e-07
-2.13318e-07
1.26763e-06
0.00113074
-1.25013e-07
-0.00113075
-5.05559e-08
-1.22499e-06
2.72706e-07
-2.37158e-07
-8.53133e-07
2.64162e-07
-2.13146e-07
9.09341e-07
-1.95441e-07
-2.03425e-07
0.000268144
-1.23389e-06
0.000270184
-0.000268158
2.36767e-07
2.43876e-07
-1.26932e-07
-5.24066e-08
0.00113187
-2.33959e-07
1.23439e-06
2.7084e-07
9.09997e-07
-2.15417e-07
2.67487e-07
-8.5268e-07
-1.24381e-07
-0.00113131
-5.15148e-08
-1.19064e-06
2.70459e-07
-2.34107e-07
-8.53199e-07
2.66617e-07
9.09012e-07
-2.16181e-07
1.23388e-06
0.00113184
-1.24711e-07
-0.00113185
-5.11889e-08
-1.19092e-06
2.70339e-07
-2.34425e-07
-8.53275e-07
2.66894e-07
-2.16002e-07
9.09411e-07
-0.000268173
2.39051e-07
2.44276e-07
1.23044e-06
1.19377e-06
-1.96075e-07
-2.03909e-07
0.000268182
-1.2725e-06
-1.23591e-06
0.000270226
-0.000268196
2.35663e-07
2.43542e-07
-5.10115e-08
0.00113082
-2.3999e-07
1.273e-06
2.75494e-07
9.09018e-07
-2.13524e-07
-8.53485e-07
2.63862e-07
-1.23607e-06
-1.24505e-07
-5.06162e-08
0.00113127
-2.43037e-07
1.27835e-06
2.78115e-07
9.1468e-07
-2.16186e-07
-8.58886e-07
2.6679e-07
0.00113079
-1.21534e-07
-0.0011308
-4.99638e-08
-1.2309e-06
2.75015e-07
-2.40448e-07
-8.5421e-07
2.63146e-07
-2.1423e-07
9.08323e-07
1.27775e-06
0.00113125
-1.21895e-07
-0.00113125
-4.90915e-08
-1.23664e-06
2.77524e-07
-2.43617e-07
-8.59572e-07
2.66126e-07
-2.16839e-07
9.14025e-07
-1.98602e-07
-2.01375e-07
0.000268204
-1.23878e-06
0.000270256
-0.000268219
2.38694e-07
2.40533e-07
-5.13144e-08
0.00113193
-2.37333e-07
1.23642e-06
2.73004e-07
9.1187e-07
-2.16279e-07
-8.56158e-07
2.66735e-07
-1.23074e-06
-1.24645e-07
-5.01852e-08
0.00113092
-2.43142e-07
1.27279e-06
2.78011e-07
9.11852e-07
-2.16049e-07
-8.55988e-07
2.66777e-07
0.0011319
-1.21816e-07
-0.00113191
-5.01519e-08
-1.19424e-06
2.72523e-07
-2.37796e-07
-8.56888e-07
2.66028e-07
-2.16983e-07
9.11172e-07
1.27223e-06
0.0011309
-1.21991e-07
-0.00113091
-4.88423e-08
-1.23126e-06
2.77484e-07
-2.43653e-07
-8.56697e-07
2.6608e-07
-2.16741e-07
9.11172e-07
-1.24729e-07
-5.04667e-08
0.00113073
-2.37294e-07
1.26751e-06
2.72597e-07
9.09161e-07
-2.13376e-07
2.6398e-07
-8.53379e-07
-1.2149e-07
-0.00113165
-5.05936e-08
-1.19669e-06
2.69883e-07
-2.34664e-07
-8.54297e-07
2.63057e-07
9.08283e-07
-2.14349e-07
1.26699e-06
0.0011307
-1.21682e-07
-0.00113071
-4.91872e-08
-1.22561e-06
2.72118e-07
-2.37764e-07
-8.54155e-07
2.632e-07
-2.14148e-07
9.08384e-07
-1.95923e-07
-2.04051e-07
0.000268162
-1.23332e-06
0.000270203
-0.000268177
2.36037e-07
2.43057e-07
-1.24487e-07
-5.10205e-08
0.00113183
-2.346e-07
1.23373e-06
2.70193e-07
9.09247e-07
-2.1621e-07
2.66729e-07
-8.53508e-07
-1.21068e-07
-0.00113128
-5.06316e-08
-1.1912e-06
2.69921e-07
-2.34655e-07
-8.54218e-07
2.65674e-07
9.08086e-07
-2.17164e-07
1.23312e-06
0.0011318
-1.21627e-07
-0.00113181
-4.94795e-08
-1.19165e-06
2.69603e-07
-2.35177e-07
-8.5423e-07
2.66027e-07
-2.16906e-07
9.08546e-07
-0.000268192
2.38171e-07
2.43512e-07
1.23109e-06
1.19443e-06
-1.96734e-07
-2.04577e-07
0.000268201
-1.2718e-06
-1.23522e-06
0.000270246
-0.000268217
2.34836e-07
2.42694e-07
-4.99671e-08
0.00113079
-2.40618e-07
1.27238e-06
2.74898e-07
9.08141e-07
-2.14475e-07
-8.54486e-07
2.62965e-07
-1.23686e-06
-1.21747e-07
-4.89216e-08
0.00113124
-2.43818e-07
1.2776e-06
2.77374e-07
9.13852e-07
-2.17069e-07
-8.59834e-07
2.65958e-07
0.00113077
-1.17902e-07
-0.00113078
-4.85589e-08
-1.23164e-06
2.74332e-07
-2.41165e-07
-8.55304e-07
2.62154e-07
-2.15278e-07
9.07352e-07
1.27695e-06
0.00113122
-1.18456e-07
-0.00113123
-4.71655e-08
-1.23748e-06
2.76757e-07
-2.44426e-07
-8.60627e-07
2.65176e-07
-2.17839e-07
9.13087e-07
-1.99185e-07
-2.02166e-07
0.000268224
-1.23815e-06
0.000270276