/*--------------------------------*- C++ -*----------------------------------*\
| =========                 |                                                 |
| \\      /  F ield         | OpenFOAM: The Open Source CFD Toolbox           |
|  \\    /   O peration     | Version:  v1906                                 |
|   \\  /    A nd           | Web:      www.OpenFOAM.com                      |
|    \\/     M anipulation  |                                                 |
\*---------------------------------------------------------------------------*/
FoamFile
{
    version     2.0;
    format      ascii;
    class       volScalarField;
    location    "0.195";
    object      p;
}
// * * * * * * * * * * * * * * * * * * * * * * * * * * * * * * * * * * * * * //

dimensions      [0 2 -2 0 0 0 0];


internalField   nonuniform List<scalar> 
247104
(
-7.24992e-10
-2.26857e-08
-2.22824e-08
-2.17427e-08
-2.11781e-08
-2.17209e-08
-2.2289e-08
-2.27548e-08
-2.2991e-08
-2.28067e-08
-2.25638e-08
-2.25195e-08
-2.25153e-08
-2.2493e-08
-2.25523e-08
-2.28316e-08
-2.30357e-08
-2.29174e-08
-2.311e-08
-2.33917e-08
-2.35018e-08
-2.33512e-08
-2.30594e-08
-2.28999e-08
-2.30408e-08
-2.32649e-08
-2.32456e-08
-2.36738e-08
-2.41102e-08
-2.42669e-08
-2.40616e-08
-2.36025e-08
-2.32048e-08
-2.32892e-08
-2.3566e-08
-2.35292e-08
-2.34833e-08
-2.39632e-08
-2.44448e-08
-2.46163e-08
-2.43942e-08
-2.38878e-08
-2.34418e-08
-2.35691e-08
-2.33908e-08
-2.34131e-08
-2.38707e-08
-2.43345e-08
-2.45035e-08
-2.42861e-08
-2.38003e-08
-2.33729e-08
-2.34088e-08
-2.33544e-08
-2.33028e-08
-2.35565e-08
-2.39112e-08
-2.40583e-08
-2.38709e-08
-2.35084e-08
-2.3289e-08
-2.33576e-08
-2.35276e-08
-2.34382e-08
-2.33474e-08
-2.35157e-08
-2.3642e-08
-2.34868e-08
-2.33375e-08
-2.34673e-08
-2.34392e-08
-2.3588e-08
-2.37806e-08
-2.35477e-08
-2.34386e-08
-5.75046e-08
-5.95839e-08
-5.97804e-08
-6.09568e-08
-6.10944e-08
-6.11587e-08
-6.11709e-08
-5.96759e-08
-5.93337e-08
-5.98545e-08
-6.19577e-08
-6.50116e-08
-6.51095e-08
-6.51093e-08
-6.5009e-08
-6.15532e-08
-6.1347e-08
-6.10874e-08
-6.50563e-08
-6.51168e-08
-6.50708e-08
-6.50701e-08
-6.51148e-08
-6.50522e-08
-6.11616e-08
-6.02169e-08
-5.77548e-08
-6.12761e-08
-6.51869e-08
-6.51072e-08
-6.49942e-08
-6.49937e-08
-6.51057e-08
-6.51837e-08
-6.1337e-08
-5.96234e-08
-5.9858e-08
-6.13735e-08
-6.52122e-08
-6.51352e-08
-6.50236e-08
-6.50232e-08
-6.51339e-08
-6.52094e-08
-6.12239e-08
-6.14549e-08
-6.1393e-08
-6.51296e-08
-6.51998e-08
-6.51579e-08
-6.51575e-08
-6.51985e-08
-6.51274e-08
-6.13956e-08
-6.05059e-08
-5.99283e-08
-6.17238e-08
-6.51485e-08
-6.5251e-08
-6.52515e-08
-6.5148e-08
-6.16231e-08
-6.12931e-08
-5.98538e-08
-5.95644e-08
-6.1522e-08
-6.12923e-08
-6.14352e-08
-6.12946e-08
-6.14422e-08
-6.13136e-08
-5.90232e-08
-6.03653e-08
-5.97473e-08
-6.1539e-08
-6.05737e-08
-5.98927e-08
-7.82069e-08
-7.84137e-08
-7.85843e-08
-8.08144e-08
-8.08719e-08
-8.08745e-08
-8.08303e-08
-7.84984e-08
-7.83267e-08
-7.85865e-08
-8.15339e-08
-8.46424e-08
-8.48104e-08
-8.48108e-08
-8.46435e-08
-8.08046e-08
-8.03626e-08
-8.08423e-08
-8.46618e-08
-8.50721e-08
-8.50727e-08
-8.50724e-08
-8.50708e-08
-8.46529e-08
-8.00082e-08
-7.79781e-08
-7.82564e-08
-8.09104e-08
-8.48309e-08
-8.50832e-08
-8.50653e-08
-8.50648e-08
-8.50817e-08
-8.48278e-08
-8.00033e-08
-7.83417e-08
-7.84726e-08
-8.09218e-08
-8.48386e-08
-8.50916e-08
-8.50738e-08
-8.50732e-08
-8.50894e-08
-8.48353e-08
-8.00903e-08
-8.03909e-08
-8.0885e-08
-8.468e-08
-8.50961e-08
-8.50976e-08
-8.50971e-08
-8.5094e-08
-8.46754e-08
-7.99811e-08
-7.7987e-08
-7.85648e-08
-8.08546e-08
-8.46838e-08
-8.48488e-08
-8.48502e-08
-8.46814e-08
-8.03723e-08
-8.01879e-08
-7.80753e-08
-7.83925e-08
-8.0416e-08
-8.00515e-08
-8.00371e-08
-8.01151e-08
-7.9997e-08
-8.01955e-08
-7.80786e-08
-7.80317e-08
-7.83822e-08
-8.04206e-08
-7.8006e-08
-7.80939e-08
-9.81729e-08
-9.83512e-08
-9.84537e-08
-1.00795e-07
-1.00841e-07
-1.00946e-07
-1.00748e-07
-9.8409e-08
-9.82065e-08
-9.84588e-08
-1.0168e-07
-1.04675e-07
-1.04738e-07
-1.04739e-07
-1.04677e-07
-1.00858e-07
-1.00163e-07
-1.00799e-07
-1.04676e-07
-1.04852e-07
-1.04858e-07
-1.04858e-07
-1.04852e-07
-1.04677e-07
-9.98826e-08
-9.78895e-08
-9.81808e-08
-1.00846e-07
-1.04742e-07
-1.04861e-07
-1.04861e-07
-1.04861e-07
-1.0486e-07
-1.04742e-07
-9.97868e-08
-9.82851e-08
-9.83629e-08
-1.00955e-07
-1.04745e-07
-1.04863e-07
-1.04863e-07
-1.04863e-07
-1.04862e-07
-1.04745e-07
-9.98344e-08
-1.00182e-07
-1.00763e-07
-1.04686e-07
-1.04858e-07
-1.04864e-07
-1.04865e-07
-1.04858e-07
-1.04684e-07
-9.98078e-08
-9.792e-08
-9.84265e-08
-1.00873e-07
-1.04684e-07
-1.04746e-07
-1.04747e-07
-1.04682e-07
-1.00033e-07
-9.99827e-08
-9.79185e-08
-9.82281e-08
-1.0018e-07
-9.98936e-08
-9.97939e-08
-9.98382e-08
-9.98092e-08
-9.99842e-08
-9.79582e-08
-9.79039e-08
-9.82937e-08
-1.00179e-07
-9.79208e-08
-9.79207e-08
-1.18119e-07
-1.18291e-07
-1.18462e-07
-1.20815e-07
-1.20873e-07
-1.21032e-07
-1.20775e-07
-1.18409e-07
-1.18216e-07
-1.18462e-07
-1.2176e-07
-1.24734e-07
-1.24754e-07
-1.24754e-07
-1.24736e-07
-1.20954e-07
-1.20136e-07
-1.20819e-07
-1.24736e-07
-1.24785e-07
-1.24789e-07
-1.24789e-07
-1.24786e-07
-1.24735e-07
-1.19836e-07
-1.17847e-07
-1.18117e-07
-1.20876e-07
-1.24755e-07
-1.24789e-07
-1.2479e-07
-1.2479e-07
-1.24789e-07
-1.24756e-07
-1.1967e-07
-1.18179e-07
-1.18295e-07
-1.21035e-07
-1.24755e-07
-1.24789e-07
-1.2479e-07
-1.2479e-07
-1.2479e-07
-1.24756e-07
-1.19697e-07
-1.20065e-07
-1.20776e-07
-1.24735e-07
-1.24786e-07
-1.24789e-07
-1.2479e-07
-1.24787e-07
-1.24737e-07
-1.1973e-07
-1.17819e-07
-1.18407e-07
-1.20951e-07
-1.24734e-07
-1.24755e-07
-1.24756e-07
-1.24738e-07
-1.19895e-07
-1.19912e-07
-1.17875e-07
-1.1821e-07
-1.20134e-07
-1.19835e-07
-1.19671e-07
-1.19698e-07
-1.19731e-07
-1.19923e-07
-1.17931e-07
-1.17845e-07
-1.18178e-07
-1.20064e-07
-1.17818e-07
-1.17876e-07
-1.3813e-07
-1.38298e-07
-1.38495e-07
-1.40853e-07
-1.40912e-07
-1.41082e-07
-1.40814e-07
-1.38433e-07
-1.38228e-07
-1.38496e-07
-1.41804e-07
-1.44783e-07
-1.44789e-07
-1.44789e-07
-1.44784e-07
-1.4102e-07
-1.40193e-07
-1.40857e-07
-1.44783e-07
-1.44797e-07
-1.44797e-07
-1.44797e-07
-1.44797e-07
-1.44784e-07
-1.39859e-07
-1.37865e-07
-1.38125e-07
-1.40913e-07
-1.44789e-07
-1.44797e-07
-1.44797e-07
-1.44798e-07
-1.44798e-07
-1.4479e-07
-1.39671e-07
-1.38169e-07
-1.38297e-07
-1.41083e-07
-1.44788e-07
-1.44797e-07
-1.44797e-07
-1.44798e-07
-1.44798e-07
-1.44789e-07
-1.39682e-07
-1.40056e-07
-1.40813e-07
-1.44781e-07
-1.44796e-07
-1.44797e-07
-1.44798e-07
-1.44797e-07
-1.44784e-07
-1.3974e-07
-1.37812e-07
-1.38429e-07
-1.4102e-07
-1.44782e-07
-1.44789e-07
-1.44789e-07
-1.44784e-07
-1.39878e-07
-1.39921e-07
-1.37896e-07
-1.38225e-07
-1.40188e-07
-1.39856e-07
-1.39669e-07
-1.39682e-07
-1.39739e-07
-1.39929e-07
-1.37967e-07
-1.37862e-07
-1.38165e-07
-1.40054e-07
-1.37811e-07
-1.37896e-07
-1.58172e-07
-1.58339e-07
-1.58538e-07
-1.609e-07
-1.60961e-07
-1.61133e-07
-1.60864e-07
-1.58481e-07
-1.58279e-07
-1.58536e-07
-1.61851e-07
-1.64832e-07
-1.64833e-07
-1.64834e-07
-1.64833e-07
-1.61076e-07
-1.60229e-07
-1.60904e-07
-1.64832e-07
-1.64835e-07
-1.64835e-07
-1.64835e-07
-1.64835e-07
-1.64832e-07
-1.59903e-07
-1.57908e-07
-1.58167e-07
-1.60961e-07
-1.64833e-07
-1.64835e-07
-1.64835e-07
-1.64835e-07
-1.64836e-07
-1.64834e-07
-1.59707e-07
-1.58205e-07
-1.58339e-07
-1.61132e-07
-1.64833e-07
-1.64835e-07
-1.64835e-07
-1.64835e-07
-1.64836e-07
-1.64834e-07
-1.59716e-07
-1.60092e-07
-1.60865e-07
-1.64832e-07
-1.64835e-07
-1.64835e-07
-1.64835e-07
-1.64836e-07
-1.64832e-07
-1.59783e-07
-1.5785e-07
-1.58479e-07
-1.61081e-07
-1.64832e-07
-1.64833e-07
-1.64834e-07
-1.64833e-07
-1.59907e-07
-1.59958e-07
-1.57938e-07
-1.58249e-07
-1.60232e-07
-1.599e-07
-1.59708e-07
-1.59716e-07
-1.59784e-07
-1.59968e-07
-1.58012e-07
-1.57906e-07
-1.58202e-07
-1.60092e-07
-1.57852e-07
-1.57939e-07
-1.78216e-07
-1.78383e-07
-1.78584e-07
-1.80944e-07
-1.81005e-07
-1.81177e-07
-1.80909e-07
-1.78526e-07
-1.78325e-07
-1.7858e-07
-1.81895e-07
-1.84874e-07
-1.84875e-07
-1.84874e-07
-1.84875e-07
-1.8112e-07
-1.80271e-07
-1.80949e-07
-1.84875e-07
-1.84875e-07
-1.84875e-07
-1.84875e-07
-1.84875e-07
-1.84875e-07
-1.79947e-07
-1.77952e-07
-1.78211e-07
-1.81006e-07
-1.84875e-07
-1.84875e-07
-1.84874e-07
-1.84874e-07
-1.84875e-07
-1.84875e-07
-1.79747e-07
-1.78249e-07
-1.78383e-07
-1.81178e-07
-1.84875e-07
-1.84875e-07
-1.84874e-07
-1.84874e-07
-1.84875e-07
-1.84875e-07
-1.79755e-07
-1.80134e-07
-1.80911e-07
-1.84874e-07
-1.84875e-07
-1.84875e-07
-1.84875e-07
-1.84875e-07
-1.84875e-07
-1.79824e-07
-1.77893e-07
-1.78526e-07
-1.81126e-07
-1.84874e-07
-1.84875e-07
-1.84875e-07
-1.84875e-07
-1.79948e-07
-1.80001e-07
-1.77983e-07
-1.78295e-07
-1.80276e-07
-1.79946e-07
-1.79748e-07
-1.79757e-07
-1.79825e-07
-1.80009e-07
-1.78055e-07
-1.7795e-07
-1.78246e-07
-1.80133e-07
-1.77894e-07
-1.77983e-07
-1.9825e-07
-1.98417e-07
-1.98618e-07
-2.00979e-07
-2.01038e-07
-2.01212e-07
-2.00944e-07
-1.9856e-07
-1.98358e-07
-1.98616e-07
-2.01927e-07
-2.04907e-07
-2.04907e-07
-2.04908e-07
-2.04907e-07
-2.01155e-07
-2.00305e-07
-2.00983e-07
-2.04907e-07
-2.04907e-07
-2.04907e-07
-2.04907e-07
-2.04907e-07
-2.04907e-07
-1.99978e-07
-1.97987e-07
-1.98245e-07
-2.0104e-07
-2.04907e-07
-2.04907e-07
-2.04907e-07
-2.04907e-07
-2.04907e-07
-2.04907e-07
-1.9978e-07
-1.98282e-07
-1.98417e-07
-2.01213e-07
-2.04907e-07
-2.04907e-07
-2.04907e-07
-2.04906e-07
-2.04907e-07
-2.04907e-07
-1.99789e-07
-2.00167e-07
-2.00945e-07
-2.04907e-07
-2.04907e-07
-2.04907e-07
-2.04907e-07
-2.04907e-07
-2.04907e-07
-1.99857e-07
-1.97927e-07
-1.9856e-07
-2.0116e-07
-2.04907e-07
-2.04907e-07
-2.04907e-07
-2.04907e-07
-1.99978e-07
-2.00033e-07
-1.98017e-07
-1.9833e-07
-2.00311e-07
-1.99981e-07
-1.99781e-07
-1.9979e-07
-1.99859e-07
-2.00042e-07
-1.98089e-07
-1.97985e-07
-1.98281e-07
-2.00167e-07
-1.97928e-07
-1.98017e-07
-2.18277e-07
-2.18444e-07
-2.18646e-07
-2.21005e-07
-2.21065e-07
-2.21238e-07
-2.2097e-07
-2.18587e-07
-2.18386e-07
-2.18643e-07
-2.21954e-07
-2.24932e-07
-2.24933e-07
-2.24933e-07
-2.24933e-07
-2.21183e-07
-2.20331e-07
-2.2101e-07
-2.24932e-07
-2.24933e-07
-2.24932e-07
-2.24933e-07
-2.24933e-07
-2.24933e-07
-2.20005e-07
-2.18014e-07
-2.18272e-07
-2.21067e-07
-2.24933e-07
-2.24933e-07
-2.24932e-07
-2.24932e-07
-2.24933e-07
-2.24933e-07
-2.19807e-07
-2.18308e-07
-2.18444e-07
-2.2124e-07
-2.24932e-07
-2.24933e-07
-2.24932e-07
-2.24932e-07
-2.24933e-07
-2.24933e-07
-2.19815e-07
-2.20193e-07
-2.20971e-07
-2.24933e-07
-2.24933e-07
-2.24933e-07
-2.24933e-07
-2.24933e-07
-2.24933e-07
-2.19883e-07
-2.17954e-07
-2.18587e-07
-2.21187e-07
-2.24933e-07
-2.24933e-07
-2.24933e-07
-2.24933e-07
-2.20004e-07
-2.20059e-07
-2.18044e-07
-2.18357e-07
-2.20337e-07
-2.20006e-07
-2.19807e-07
-2.19815e-07
-2.19885e-07
-2.20069e-07
-2.18116e-07
-2.18012e-07
-2.18307e-07
-2.20192e-07
-2.17955e-07
-2.18044e-07
-2.38298e-07
-2.38465e-07
-2.38667e-07
-2.41027e-07
-2.41086e-07
-2.41259e-07
-2.40991e-07
-2.38606e-07
-2.38407e-07
-2.38663e-07
-2.41973e-07
-2.44954e-07
-2.44954e-07
-2.44954e-07
-2.44954e-07
-2.41203e-07
-2.40352e-07
-2.4103e-07
-2.44953e-07
-2.44954e-07
-2.44954e-07
-2.44954e-07
-2.44954e-07
-2.44954e-07
-2.40026e-07
-2.38035e-07
-2.38293e-07
-2.41087e-07
-2.44954e-07
-2.44954e-07
-2.44954e-07
-2.44954e-07
-2.44954e-07
-2.44954e-07
-2.39828e-07
-2.3833e-07
-2.38465e-07
-2.41261e-07
-2.44954e-07
-2.44954e-07
-2.44954e-07
-2.44954e-07
-2.44954e-07
-2.44954e-07
-2.39836e-07
-2.40214e-07
-2.40992e-07
-2.44954e-07
-2.44954e-07
-2.44954e-07
-2.44954e-07
-2.44954e-07
-2.44954e-07
-2.39904e-07
-2.37975e-07
-2.38608e-07
-2.41208e-07
-2.44954e-07
-2.44954e-07
-2.44954e-07
-2.44954e-07
-2.40025e-07
-2.4008e-07
-2.38065e-07
-2.38379e-07
-2.40358e-07
-2.40027e-07
-2.39828e-07
-2.39836e-07
-2.39905e-07
-2.40089e-07
-2.38137e-07
-2.38033e-07
-2.38328e-07
-2.40213e-07
-2.37976e-07
-2.38065e-07
-2.58317e-07
-2.58484e-07
-2.58675e-07
-2.61048e-07
-2.61107e-07
-2.6128e-07
-2.61012e-07
-2.58624e-07
-2.58426e-07
-2.58671e-07
-2.62005e-07
-2.6498e-07
-2.64979e-07
-2.64979e-07
-2.64979e-07
-2.61224e-07
-2.60372e-07
-2.6105e-07
-2.6498e-07
-2.6498e-07
-2.6498e-07
-2.6498e-07
-2.6498e-07
-2.64979e-07
-2.60047e-07
-2.58054e-07
-2.58312e-07
-2.61108e-07
-2.6498e-07
-2.6498e-07
-2.64981e-07
-2.6498e-07
-2.6498e-07
-2.64979e-07
-2.5985e-07
-2.58349e-07
-2.58484e-07
-2.61282e-07
-2.64979e-07
-2.6498e-07
-2.64981e-07
-2.6498e-07
-2.6498e-07
-2.64979e-07
-2.59858e-07
-2.60234e-07
-2.61013e-07
-2.64979e-07
-2.6498e-07
-2.6498e-07
-2.6498e-07
-2.6498e-07
-2.64979e-07
-2.59926e-07
-2.57994e-07
-2.58628e-07
-2.61231e-07
-2.64979e-07
-2.64979e-07
-2.64979e-07
-2.64979e-07
-2.60048e-07
-2.60101e-07
-2.58084e-07
-2.58398e-07
-2.60379e-07
-2.60049e-07
-2.5985e-07
-2.59859e-07
-2.59927e-07
-2.6011e-07
-2.58156e-07
-2.58052e-07
-2.58348e-07
-2.60233e-07
-2.57995e-07
-2.58084e-07
-2.78351e-07
-2.78518e-07
-2.78723e-07
-2.81087e-07
-2.81146e-07
-2.81318e-07
-2.81049e-07
-2.7866e-07
-2.78462e-07
-2.78721e-07
-2.82036e-07
-2.85022e-07
-2.85023e-07
-2.85023e-07
-2.85022e-07
-2.81262e-07
-2.8041e-07
-2.81086e-07
-2.85022e-07
-2.85023e-07
-2.85023e-07
-2.85023e-07
-2.85023e-07
-2.85022e-07
-2.80086e-07
-2.78088e-07
-2.78346e-07
-2.81146e-07
-2.85023e-07
-2.85023e-07
-2.85024e-07
-2.85024e-07
-2.85024e-07
-2.85023e-07
-2.79889e-07
-2.78384e-07
-2.78518e-07
-2.8132e-07
-2.85023e-07
-2.85023e-07
-2.85024e-07
-2.85024e-07
-2.85024e-07
-2.85023e-07
-2.79897e-07
-2.80271e-07
-2.81051e-07
-2.85022e-07
-2.85023e-07
-2.85024e-07
-2.85024e-07
-2.85023e-07
-2.85022e-07
-2.79965e-07
-2.78029e-07
-2.78662e-07
-2.8127e-07
-2.85022e-07
-2.85023e-07
-2.85023e-07
-2.85022e-07
-2.80088e-07
-2.80139e-07
-2.78118e-07
-2.78432e-07
-2.80416e-07
-2.80087e-07
-2.79889e-07
-2.79897e-07
-2.79966e-07
-2.80148e-07
-2.78192e-07
-2.78087e-07
-2.78383e-07
-2.8027e-07
-2.7803e-07
-2.78119e-07
-2.98414e-07
-2.98581e-07
-2.98785e-07
-3.0115e-07
-3.01209e-07
-3.01382e-07
-3.01113e-07
-2.98724e-07
-2.98525e-07
-2.98783e-07
-3.02099e-07
-3.05086e-07
-3.05086e-07
-3.05086e-07
-3.05086e-07
-3.01326e-07
-3.00474e-07
-3.0115e-07
-3.05086e-07
-3.05086e-07
-3.05086e-07
-3.05086e-07
-3.05086e-07
-3.05086e-07
-3.0015e-07
-2.98152e-07
-2.98408e-07
-3.01209e-07
-3.05086e-07
-3.05086e-07
-3.05086e-07
-3.05086e-07
-3.05086e-07
-3.05086e-07
-2.99953e-07
-2.98448e-07
-2.98581e-07
-3.01383e-07
-3.05086e-07
-3.05086e-07
-3.05086e-07
-3.05086e-07
-3.05086e-07
-3.05087e-07
-2.99961e-07
-3.00336e-07
-3.01115e-07
-3.05086e-07
-3.05086e-07
-3.05086e-07
-3.05086e-07
-3.05087e-07
-3.05087e-07
-3.00029e-07
-2.98093e-07
-2.98726e-07
-3.01334e-07
-3.05087e-07
-3.05087e-07
-3.05087e-07
-3.05087e-07
-3.00152e-07
-3.00203e-07
-2.98182e-07
-2.98495e-07
-3.00481e-07
-3.00152e-07
-2.99953e-07
-2.99961e-07
-3.0003e-07
-3.00213e-07
-2.98255e-07
-2.9815e-07
-2.98446e-07
-3.00335e-07
-2.98093e-07
-2.98182e-07
-3.18485e-07
-3.18652e-07
-3.18843e-07
-3.21217e-07
-3.21277e-07
-3.21449e-07
-3.2118e-07
-3.18795e-07
-3.18596e-07
-3.18838e-07
-3.22172e-07
-3.25147e-07
-3.25147e-07
-3.25147e-07
-3.25148e-07
-3.21392e-07
-3.20543e-07
-3.2122e-07
-3.25147e-07
-3.25147e-07
-3.25146e-07
-3.25147e-07
-3.25147e-07
-3.25148e-07
-3.20217e-07
-3.18223e-07
-3.1848e-07
-3.21278e-07
-3.25147e-07
-3.25146e-07
-3.25146e-07
-3.25146e-07
-3.25147e-07
-3.25148e-07
-3.20019e-07
-3.18518e-07
-3.18653e-07
-3.21451e-07
-3.25148e-07
-3.25147e-07
-3.25146e-07
-3.25146e-07
-3.25147e-07
-3.25148e-07
-3.20027e-07
-3.20405e-07
-3.21183e-07
-3.25148e-07
-3.25147e-07
-3.25147e-07
-3.25147e-07
-3.25147e-07
-3.25148e-07
-3.20096e-07
-3.18164e-07
-3.18796e-07
-3.214e-07
-3.25148e-07
-3.25148e-07
-3.25148e-07
-3.25148e-07
-3.20217e-07
-3.20271e-07
-3.18254e-07
-3.18566e-07
-3.20549e-07
-3.20218e-07
-3.20019e-07
-3.20027e-07
-3.20096e-07
-3.2028e-07
-3.18326e-07
-3.18221e-07
-3.18517e-07
-3.20404e-07
-3.18164e-07
-3.18254e-07
-3.38531e-07
-3.38697e-07
-3.38893e-07
-3.4126e-07
-3.41319e-07
-3.41492e-07
-3.41222e-07
-3.38839e-07
-3.38641e-07
-3.38888e-07
-3.42215e-07
-3.45187e-07
-3.45187e-07
-3.45187e-07
-3.45187e-07
-3.41434e-07
-3.40585e-07
-3.41263e-07
-3.45187e-07
-3.45187e-07
-3.45187e-07
-3.45187e-07
-3.45187e-07
-3.45187e-07
-3.40258e-07
-3.38267e-07
-3.38525e-07
-3.4132e-07
-3.45187e-07
-3.45187e-07
-3.45187e-07
-3.45187e-07
-3.45187e-07
-3.45187e-07
-3.4006e-07
-3.38562e-07
-3.38698e-07
-3.41494e-07
-3.45187e-07
-3.45187e-07
-3.45187e-07
-3.45187e-07
-3.45187e-07
-3.45187e-07
-3.40068e-07
-3.40447e-07
-3.41225e-07
-3.45187e-07
-3.45187e-07
-3.45187e-07
-3.45187e-07
-3.45187e-07
-3.45187e-07
-3.40137e-07
-3.38208e-07
-3.3884e-07
-3.41442e-07
-3.45187e-07
-3.45187e-07
-3.45187e-07
-3.45187e-07
-3.40258e-07
-3.40313e-07
-3.38298e-07
-3.38611e-07
-3.40591e-07
-3.4026e-07
-3.40061e-07
-3.4007e-07
-3.40138e-07
-3.40322e-07
-3.38369e-07
-3.38266e-07
-3.3856e-07
-3.40448e-07
-3.38208e-07
-3.38298e-07
-3.58556e-07
-3.58723e-07
-3.58918e-07
-3.61288e-07
-3.61348e-07
-3.6152e-07
-3.6125e-07
-3.58866e-07
-3.58667e-07
-3.58914e-07
-3.62246e-07
-3.65221e-07
-3.65222e-07
-3.65222e-07
-3.65221e-07
-3.61464e-07
-3.60613e-07
-3.61291e-07
-3.65221e-07
-3.65222e-07
-3.65223e-07
-3.65223e-07
-3.65222e-07
-3.65221e-07
-3.60288e-07
-3.58293e-07
-3.58551e-07
-3.61349e-07
-3.65222e-07
-3.65223e-07
-3.65223e-07
-3.65223e-07
-3.65223e-07
-3.65222e-07
-3.60091e-07
-3.58589e-07
-3.58723e-07
-3.61522e-07
-3.65222e-07
-3.65223e-07
-3.65223e-07
-3.65223e-07
-3.65223e-07
-3.65222e-07
-3.60099e-07
-3.60474e-07
-3.61254e-07
-3.65222e-07
-3.65222e-07
-3.65223e-07
-3.65223e-07
-3.65222e-07
-3.65222e-07
-3.60167e-07
-3.58234e-07
-3.58867e-07
-3.61472e-07
-3.65222e-07
-3.65222e-07
-3.65222e-07
-3.65222e-07
-3.60289e-07
-3.60341e-07
-3.58323e-07
-3.58637e-07
-3.60619e-07
-3.60289e-07
-3.60091e-07
-3.60099e-07
-3.60167e-07
-3.6035e-07
-3.58396e-07
-3.58291e-07
-3.58587e-07
-3.60473e-07
-3.58234e-07
-3.58323e-07
-3.78604e-07
-3.78771e-07
-3.78967e-07
-3.81339e-07
-3.81399e-07
-3.81571e-07
-3.81301e-07
-3.78915e-07
-3.78715e-07
-3.78963e-07
-3.82297e-07
-3.85275e-07
-3.85276e-07
-3.85276e-07
-3.85276e-07
-3.81515e-07
-3.80664e-07
-3.81341e-07
-3.85275e-07
-3.85276e-07
-3.85276e-07
-3.85276e-07
-3.85276e-07
-3.85276e-07
-3.80339e-07
-3.78341e-07
-3.78598e-07
-3.814e-07
-3.85276e-07
-3.85276e-07
-3.85276e-07
-3.85276e-07
-3.85276e-07
-3.85276e-07
-3.80142e-07
-3.78637e-07
-3.78771e-07
-3.81573e-07
-3.85276e-07
-3.85276e-07
-3.85276e-07
-3.85276e-07
-3.85276e-07
-3.85276e-07
-3.8015e-07
-3.80525e-07
-3.81304e-07
-3.85276e-07
-3.85276e-07
-3.85276e-07
-3.85276e-07
-3.85276e-07
-3.85276e-07
-3.80218e-07
-3.78282e-07
-3.78915e-07
-3.81523e-07
-3.85276e-07
-3.85276e-07
-3.85276e-07
-3.85276e-07
-3.80341e-07
-3.80392e-07
-3.78371e-07
-3.78685e-07
-3.8067e-07
-3.80341e-07
-3.80142e-07
-3.8015e-07
-3.80218e-07
-3.80402e-07
-3.78445e-07
-3.7834e-07
-3.78636e-07
-3.80524e-07
-3.78282e-07
-3.78371e-07
-3.98672e-07
-3.98839e-07
-3.99035e-07
-4.01405e-07
-4.01464e-07
-4.01636e-07
-4.01366e-07
-3.98981e-07
-3.98782e-07
-3.9903e-07
-4.02361e-07
-4.05335e-07
-4.05335e-07
-4.05335e-07
-4.05335e-07
-4.01578e-07
-4.00729e-07
-4.01407e-07
-4.05336e-07
-4.05334e-07
-4.05334e-07
-4.05334e-07
-4.05334e-07
-4.05335e-07
-4.00403e-07
-3.98409e-07
-3.98667e-07
-4.01465e-07
-4.05335e-07
-4.05334e-07
-4.05334e-07
-4.05334e-07
-4.05334e-07
-4.05335e-07
-4.00205e-07
-3.98704e-07
-3.98839e-07
-4.01638e-07
-4.05335e-07
-4.05334e-07
-4.05334e-07
-4.05334e-07
-4.05334e-07
-4.05335e-07
-4.00213e-07
-4.00591e-07
-4.0137e-07
-4.05335e-07
-4.05335e-07
-4.05334e-07
-4.05334e-07
-4.05335e-07
-4.05335e-07
-4.00282e-07
-3.98349e-07
-3.98982e-07
-4.01587e-07
-4.05335e-07
-4.05335e-07
-4.05335e-07
-4.05335e-07
-4.00404e-07
-4.00457e-07
-3.98439e-07
-3.98752e-07
-4.00736e-07
-4.00405e-07
-4.00206e-07
-4.00214e-07
-4.00282e-07
-4.00467e-07
-3.98512e-07
-3.98407e-07
-3.98702e-07
-4.0059e-07
-3.9835e-07
-3.98439e-07
-4.18719e-07
-4.18886e-07
-4.19082e-07
-4.2145e-07
-4.21508e-07
-4.2168e-07
-4.2141e-07
-4.19028e-07
-4.18829e-07
-4.19077e-07
-4.22405e-07
-4.25377e-07
-4.25377e-07
-4.25377e-07
-4.25377e-07
-4.21623e-07
-4.20774e-07
-4.21452e-07
-4.25377e-07
-4.25377e-07
-4.25377e-07
-4.25377e-07
-4.25377e-07
-4.25377e-07
-4.20447e-07
-4.18455e-07
-4.18714e-07
-4.21509e-07
-4.25377e-07
-4.25377e-07
-4.25377e-07
-4.25377e-07
-4.25377e-07
-4.25377e-07
-4.20249e-07
-4.1875e-07
-4.18886e-07
-4.21682e-07
-4.25377e-07
-4.25377e-07
-4.25377e-07
-4.25377e-07
-4.25377e-07
-4.25377e-07
-4.20257e-07
-4.20636e-07
-4.21414e-07
-4.25377e-07
-4.25377e-07
-4.25377e-07
-4.25377e-07
-4.25377e-07
-4.25377e-07
-4.20326e-07
-4.18396e-07
-4.19029e-07
-4.21631e-07
-4.25377e-07
-4.25377e-07
-4.25377e-07
-4.25377e-07
-4.20447e-07
-4.20501e-07
-4.18486e-07
-4.18799e-07
-4.2078e-07
-4.20449e-07
-4.2025e-07
-4.20258e-07
-4.20326e-07
-4.20511e-07
-4.18558e-07
-4.18454e-07
-4.18749e-07
-4.20635e-07
-4.18397e-07
-4.18486e-07
-4.3875e-07
-4.38916e-07
-4.39113e-07
-4.41482e-07
-4.41541e-07
-4.41713e-07
-4.41444e-07
-4.39059e-07
-4.3886e-07
-4.39108e-07
-4.42439e-07
-4.45414e-07
-4.45415e-07
-4.45415e-07
-4.45415e-07
-4.41658e-07
-4.40806e-07
-4.41484e-07
-4.45414e-07
-4.45415e-07
-4.45416e-07
-4.45416e-07
-4.45415e-07
-4.45415e-07
-4.40481e-07
-4.38486e-07
-4.38744e-07
-4.41542e-07
-4.45415e-07
-4.45415e-07
-4.45416e-07
-4.45416e-07
-4.45416e-07
-4.45415e-07
-4.40284e-07
-4.38782e-07
-4.38916e-07
-4.41716e-07
-4.45415e-07
-4.45416e-07
-4.45416e-07
-4.45416e-07
-4.45416e-07
-4.45415e-07
-4.40292e-07
-4.40668e-07
-4.41447e-07
-4.45415e-07
-4.45415e-07
-4.45416e-07
-4.45416e-07
-4.45415e-07
-4.45415e-07
-4.4036e-07
-4.38427e-07
-4.3906e-07
-4.41665e-07
-4.45415e-07
-4.45415e-07
-4.45415e-07
-4.45415e-07
-4.40483e-07
-4.40535e-07
-4.38517e-07
-4.3883e-07
-4.40813e-07
-4.40483e-07
-4.40285e-07
-4.40292e-07
-4.4036e-07
-4.40544e-07
-4.38589e-07
-4.38485e-07
-4.38781e-07
-4.40667e-07
-4.38428e-07
-4.38516e-07
-4.58798e-07
-4.58965e-07
-4.59161e-07
-4.61533e-07
-4.61592e-07
-4.61764e-07
-4.61494e-07
-4.59107e-07
-4.58908e-07
-4.59156e-07
-4.6249e-07
-4.65466e-07
-4.65466e-07
-4.65466e-07
-4.65466e-07
-4.61708e-07
-4.60857e-07
-4.61535e-07
-4.65466e-07
-4.65466e-07
-4.65466e-07
-4.65466e-07
-4.65466e-07
-4.65466e-07
-4.60532e-07
-4.58536e-07
-4.58793e-07
-4.61592e-07
-4.65466e-07
-4.65466e-07
-4.65466e-07
-4.65466e-07
-4.65466e-07
-4.65466e-07
-4.60334e-07
-4.58831e-07
-4.58965e-07
-4.61766e-07
-4.65466e-07
-4.65466e-07
-4.65466e-07
-4.65466e-07
-4.65466e-07
-4.65466e-07
-4.60342e-07
-4.60718e-07
-4.61498e-07
-4.65466e-07
-4.65466e-07
-4.65466e-07
-4.65466e-07
-4.65466e-07
-4.65466e-07
-4.6041e-07
-4.58476e-07
-4.59109e-07
-4.61716e-07
-4.65466e-07
-4.65466e-07
-4.65466e-07
-4.65466e-07
-4.60533e-07
-4.60585e-07
-4.58566e-07
-4.58879e-07
-4.60863e-07
-4.60533e-07
-4.60335e-07
-4.60343e-07
-4.60411e-07
-4.60594e-07
-4.58638e-07
-4.58534e-07
-4.5883e-07
-4.60718e-07
-4.58477e-07
-4.58565e-07
-4.78856e-07
-4.79023e-07
-4.79219e-07
-4.81588e-07
-4.81646e-07
-4.81818e-07
-4.81549e-07
-4.79164e-07
-4.78965e-07
-4.79214e-07
-4.82544e-07
-4.85516e-07
-4.85515e-07
-4.85515e-07
-4.85516e-07
-4.81761e-07
-4.80912e-07
-4.8159e-07
-4.85516e-07
-4.85515e-07
-4.85515e-07
-4.85514e-07
-4.85515e-07
-4.85516e-07
-4.80585e-07
-4.78593e-07
-4.78851e-07
-4.81647e-07
-4.85515e-07
-4.85515e-07
-4.85514e-07
-4.85514e-07
-4.85514e-07
-4.85515e-07
-4.80387e-07
-4.78888e-07
-4.79023e-07
-4.81821e-07
-4.85515e-07
-4.85515e-07
-4.85514e-07
-4.85514e-07
-4.85514e-07
-4.85515e-07
-4.80395e-07
-4.80774e-07
-4.81552e-07
-4.85516e-07
-4.85515e-07
-4.85514e-07
-4.85514e-07
-4.85515e-07
-4.85516e-07
-4.80464e-07
-4.78533e-07
-4.79166e-07
-4.81769e-07
-4.85516e-07
-4.85515e-07
-4.85515e-07
-4.85516e-07
-4.80585e-07
-4.8064e-07
-4.78623e-07
-4.78936e-07
-4.80918e-07
-4.80587e-07
-4.80388e-07
-4.80396e-07
-4.80464e-07
-4.80649e-07
-4.78695e-07
-4.78591e-07
-4.78887e-07
-4.80773e-07
-4.78534e-07
-4.78623e-07
-4.98893e-07
-4.99059e-07
-4.99255e-07
-5.01622e-07
-5.0168e-07
-5.01853e-07
-5.01583e-07
-4.992e-07
-4.99002e-07
-4.9925e-07
-5.02578e-07
-5.05547e-07
-5.05547e-07
-5.05547e-07
-5.05547e-07
-5.01795e-07
-5.00946e-07
-5.01624e-07
-5.05547e-07
-5.05547e-07
-5.05547e-07
-5.05547e-07
-5.05547e-07
-5.05547e-07
-5.00619e-07
-4.98629e-07
-4.98888e-07
-5.01681e-07
-5.05547e-07
-5.05547e-07
-5.05546e-07
-5.05546e-07
-5.05547e-07
-5.05547e-07
-5.00421e-07
-4.98924e-07
-4.99059e-07
-5.01855e-07
-5.05547e-07
-5.05547e-07
-5.05546e-07
-5.05546e-07
-5.05547e-07
-5.05547e-07
-5.00429e-07
-5.00808e-07
-5.01587e-07
-5.05547e-07
-5.05547e-07
-5.05547e-07
-5.05547e-07
-5.05547e-07
-5.05547e-07
-5.00498e-07
-4.98569e-07
-4.99202e-07
-5.01802e-07
-5.05547e-07
-5.05547e-07
-5.05547e-07
-5.05547e-07
-5.00618e-07
-5.00674e-07
-4.98659e-07
-4.98972e-07
-5.00953e-07
-5.00621e-07
-5.00422e-07
-5.00429e-07
-5.00498e-07
-5.00683e-07
-4.9873e-07
-4.98627e-07
-4.98922e-07
-5.00808e-07
-4.9857e-07
-4.98659e-07
-5.18913e-07
-5.19079e-07
-5.19275e-07
-5.21643e-07
-5.21701e-07
-5.21874e-07
-5.21604e-07
-5.1922e-07
-5.19023e-07
-5.19271e-07
-5.22599e-07
-5.2557e-07
-5.2557e-07
-5.2557e-07
-5.2557e-07
-5.21816e-07
-5.20967e-07
-5.21645e-07
-5.2557e-07
-5.2557e-07
-5.2557e-07
-5.2557e-07
-5.2557e-07
-5.2557e-07
-5.2064e-07
-5.18649e-07
-5.18908e-07
-5.21702e-07
-5.2557e-07
-5.2557e-07
-5.2557e-07
-5.2557e-07
-5.2557e-07
-5.2557e-07
-5.20443e-07
-5.18944e-07
-5.1908e-07
-5.21876e-07
-5.2557e-07
-5.2557e-07
-5.2557e-07
-5.2557e-07
-5.2557e-07
-5.2557e-07
-5.20451e-07
-5.20829e-07
-5.21608e-07
-5.2557e-07
-5.2557e-07
-5.2557e-07
-5.2557e-07
-5.2557e-07
-5.2557e-07
-5.20519e-07
-5.18589e-07
-5.19223e-07
-5.21824e-07
-5.2557e-07
-5.2557e-07
-5.2557e-07
-5.2557e-07
-5.20641e-07
-5.20695e-07
-5.1868e-07
-5.18993e-07
-5.20974e-07
-5.20642e-07
-5.20444e-07
-5.20451e-07
-5.20519e-07
-5.20704e-07
-5.18751e-07
-5.18648e-07
-5.18943e-07
-5.20828e-07
-5.18591e-07
-5.18679e-07
-5.38938e-07
-5.39104e-07
-5.393e-07
-5.41668e-07
-5.41728e-07
-5.419e-07
-5.4163e-07
-5.39244e-07
-5.39047e-07
-5.39295e-07
-5.42625e-07
-5.45597e-07
-5.45598e-07
-5.45598e-07
-5.45597e-07
-5.41843e-07
-5.40993e-07
-5.4167e-07
-5.45597e-07
-5.45598e-07
-5.45598e-07
-5.45598e-07
-5.45598e-07
-5.45598e-07
-5.40667e-07
-5.38674e-07
-5.38932e-07
-5.41728e-07
-5.45597e-07
-5.45598e-07
-5.45598e-07
-5.45598e-07
-5.45598e-07
-5.45598e-07
-5.40469e-07
-5.3897e-07
-5.39104e-07
-5.41902e-07
-5.45597e-07
-5.45598e-07
-5.45598e-07
-5.45598e-07
-5.45598e-07
-5.45598e-07
-5.40477e-07
-5.40855e-07
-5.41634e-07
-5.45597e-07
-5.45598e-07
-5.45598e-07
-5.45598e-07
-5.45598e-07
-5.45598e-07
-5.40545e-07
-5.38614e-07
-5.39248e-07
-5.41851e-07
-5.45598e-07
-5.45598e-07
-5.45598e-07
-5.45598e-07
-5.40667e-07
-5.40721e-07
-5.38704e-07
-5.39018e-07
-5.40999e-07
-5.40669e-07
-5.4047e-07
-5.40478e-07
-5.40546e-07
-5.4073e-07
-5.38776e-07
-5.38672e-07
-5.38968e-07
-5.40854e-07
-5.38616e-07
-5.38704e-07
-5.58971e-07
-5.59137e-07
-5.59332e-07
-5.61701e-07
-5.6176e-07
-5.61932e-07
-5.61662e-07
-5.59277e-07
-5.5908e-07
-5.59328e-07
-5.62657e-07
-5.65627e-07
-5.65627e-07
-5.65627e-07
-5.65627e-07
-5.61874e-07
-5.61025e-07
-5.61703e-07
-5.65627e-07
-5.65627e-07
-5.65627e-07
-5.65627e-07
-5.65627e-07
-5.65627e-07
-5.60698e-07
-5.58707e-07
-5.58965e-07
-5.6176e-07
-5.65627e-07
-5.65627e-07
-5.65627e-07
-5.65627e-07
-5.65627e-07
-5.65627e-07
-5.605e-07
-5.59002e-07
-5.59137e-07
-5.61934e-07
-5.65627e-07
-5.65627e-07
-5.65627e-07
-5.65627e-07
-5.65627e-07
-5.65627e-07
-5.60508e-07
-5.60887e-07
-5.61665e-07
-5.65627e-07
-5.65627e-07
-5.65627e-07
-5.65627e-07
-5.65627e-07
-5.65627e-07
-5.60577e-07
-5.58647e-07
-5.5928e-07
-5.61882e-07
-5.65627e-07
-5.65627e-07
-5.65627e-07
-5.65627e-07
-5.60698e-07
-5.60753e-07
-5.58737e-07
-5.5905e-07
-5.61031e-07
-5.607e-07
-5.60501e-07
-5.60509e-07
-5.60577e-07
-5.60762e-07
-5.58808e-07
-5.58705e-07
-5.59001e-07
-5.60886e-07
-5.58648e-07
-5.58737e-07
-5.78995e-07
-5.79161e-07
-5.79356e-07
-5.81724e-07
-5.81784e-07
-5.81955e-07
-5.81685e-07
-5.79301e-07
-5.79104e-07
-5.79352e-07
-5.8268e-07
-5.8565e-07
-5.85651e-07
-5.85651e-07
-5.85651e-07
-5.81898e-07
-5.81048e-07
-5.81726e-07
-5.8565e-07
-5.85651e-07
-5.85651e-07
-5.85651e-07
-5.85651e-07
-5.8565e-07
-5.80721e-07
-5.78731e-07
-5.78989e-07
-5.81783e-07
-5.8565e-07
-5.85651e-07
-5.85651e-07
-5.85651e-07
-5.85651e-07
-5.85651e-07
-5.80524e-07
-5.79026e-07
-5.79161e-07
-5.81957e-07
-5.8565e-07
-5.85651e-07
-5.85651e-07
-5.85651e-07
-5.85651e-07
-5.85651e-07
-5.80532e-07
-5.8091e-07
-5.81689e-07
-5.85651e-07
-5.85651e-07
-5.85651e-07
-5.85651e-07
-5.85651e-07
-5.85651e-07
-5.806e-07
-5.78671e-07
-5.79304e-07
-5.81905e-07
-5.85651e-07
-5.85651e-07
-5.85651e-07
-5.85651e-07
-5.80721e-07
-5.80776e-07
-5.78761e-07
-5.79074e-07
-5.81055e-07
-5.80723e-07
-5.80524e-07
-5.80532e-07
-5.806e-07
-5.80785e-07
-5.78832e-07
-5.78729e-07
-5.79025e-07
-5.8091e-07
-5.78672e-07
-5.78761e-07
-5.99017e-07
-5.99183e-07
-5.99379e-07
-6.01748e-07
-6.01808e-07
-6.0198e-07
-6.0171e-07
-5.99324e-07
-5.99127e-07
-5.99375e-07
-6.02705e-07
-6.05678e-07
-6.05677e-07
-6.05678e-07
-6.05677e-07
-6.01923e-07
-6.01073e-07
-6.0175e-07
-6.05677e-07
-6.05677e-07
-6.05677e-07
-6.05677e-07
-6.05677e-07
-6.05677e-07
-6.00746e-07
-5.98753e-07
-5.99012e-07
-6.01808e-07
-6.05677e-07
-6.05677e-07
-6.05677e-07
-6.05677e-07
-6.05677e-07
-6.05677e-07
-6.00549e-07
-5.99049e-07
-5.99184e-07
-6.01982e-07
-6.05677e-07
-6.05677e-07
-6.05677e-07
-6.05677e-07
-6.05677e-07
-6.05677e-07
-6.00557e-07
-6.00934e-07
-6.01713e-07
-6.05677e-07
-6.05677e-07
-6.05677e-07
-6.05677e-07
-6.05677e-07
-6.05677e-07
-6.00625e-07
-5.98693e-07
-5.99327e-07
-6.0193e-07
-6.05677e-07
-6.05677e-07
-6.05677e-07
-6.05677e-07
-6.00747e-07
-6.008e-07
-5.98783e-07
-5.99097e-07
-6.01079e-07
-6.00748e-07
-6.00549e-07
-6.00557e-07
-6.00625e-07
-6.00809e-07
-5.98855e-07
-5.98752e-07
-5.99047e-07
-6.00933e-07
-5.98695e-07
-5.98783e-07
-6.19054e-07
-6.19221e-07
-6.19415e-07
-6.21783e-07
-6.21842e-07
-6.22013e-07
-6.21744e-07
-6.1936e-07
-6.19163e-07
-6.19411e-07
-6.22738e-07
-6.25704e-07
-6.25704e-07
-6.25704e-07
-6.25704e-07
-6.21954e-07
-6.21107e-07
-6.21785e-07
-6.25704e-07
-6.25703e-07
-6.25703e-07
-6.25702e-07
-6.25703e-07
-6.25704e-07
-6.20779e-07
-6.1879e-07
-6.19049e-07