/*--------------------------------*- C++ -*----------------------------------*\
| =========                 |                                                 |
| \\      /  F ield         | OpenFOAM: The Open Source CFD Toolbox           |
|  \\    /   O peration     | Version:  v1906                                 |
|   \\  /    A nd           | Web:      www.OpenFOAM.com                      |
|    \\/     M anipulation  |                                                 |
\*---------------------------------------------------------------------------*/
FoamFile
{
    version     2.0;
    format      ascii;
    class       volScalarField;
    location    "875";
    object      epsilon;
}
// * * * * * * * * * * * * * * * * * * * * * * * * * * * * * * * * * * * * * //

dimensions      [0 2 -3 0 0 0 0];


internalField   nonuniform List<scalar> 
43024
(
4.95567e-07
4.9733e-07
4.9733e-07
4.99575e-07
4.45573e-07
4.53735e-07
4.53737e-07
4.6371e-07
4.03752e-07
4.18513e-07
4.18517e-07
4.39411e-07
3.68363e-07
3.88552e-07
3.88558e-07
4.17667e-07
3.38015e-07
3.62102e-07
3.6211e-07
3.96081e-07
3.11646e-07
3.38273e-07
3.38281e-07
3.74581e-07
2.88473e-07
3.16638e-07
3.16646e-07
3.5371e-07
2.67923e-07
2.97021e-07
2.97031e-07
3.34148e-07
2.4958e-07
2.7937e-07
2.79379e-07
3.16484e-07
2.33137e-07
2.63679e-07
2.63688e-07
3.01162e-07
2.18366e-07
2.49955e-07
2.49964e-07
2.88495e-07
2.0509e-07
2.38199e-07
2.38209e-07
2.78699e-07
1.93172e-07
2.28412e-07
2.28422e-07
2.7188e-07
1.82498e-07
2.20602e-07
2.20613e-07
2.68173e-07
1.72979e-07
2.14774e-07
2.14786e-07
2.6765e-07
1.64541e-07
2.10938e-07
2.10954e-07
2.70502e-07
1.57122e-07
2.09111e-07
2.09126e-07
2.76711e-07
1.50668e-07
2.09291e-07
2.09319e-07
2.8627e-07
1.45137e-07
2.11551e-07
2.11578e-07
2.99225e-07
1.40492e-07
2.15889e-07
2.15916e-07
3.15621e-07
1.36703e-07
2.22325e-07
2.22356e-07
3.35369e-07
5.06417e-07
5.05584e-07
5.05582e-07
5.06417e-07
5.05583e-07
5.05582e-07
5.09649e-07
5.09649e-07
5.09649e-07
5.09649e-07
5.05584e-07
5.05584e-07
5.06418e-07
5.05584e-07
5.05583e-07
5.06418e-07
4.99575e-07
4.67237e-07
4.97331e-07
4.97335e-07
4.63713e-07
4.63721e-07
4.99575e-07
4.67235e-07
4.97335e-07
4.97336e-07
4.63718e-07
4.63724e-07
4.97332e-07
4.63709e-07
4.63714e-07
4.99575e-07
4.67241e-07
4.97334e-07
4.6371e-07
4.63719e-07
4.6724e-07
4.63709e-07
4.41426e-07
4.5374e-07
4.53748e-07
4.26738e-07
4.26747e-07
4.63708e-07
4.4142e-07
4.53744e-07
4.53751e-07
4.26739e-07
4.26751e-07
4.53741e-07
4.26729e-07
4.26741e-07
4.63711e-07
4.41431e-07
4.53744e-07
4.26734e-07
4.26741e-07
4.41429e-07
4.39407e-07
4.19283e-07
4.18522e-07
4.1853e-07
3.95676e-07
3.95682e-07
4.39405e-07
4.19275e-07
4.18522e-07
4.18535e-07
3.95672e-07
3.95689e-07
4.18525e-07
3.95663e-07
3.95679e-07
4.39413e-07
4.19289e-07
4.18523e-07
3.95669e-07
3.95673e-07
4.19287e-07
4.17662e-07
3.97645e-07
3.88566e-07
3.88571e-07
3.68461e-07
3.68466e-07
4.17656e-07
3.97636e-07
3.8856e-07
3.88578e-07
3.68452e-07
3.68473e-07
3.88569e-07
3.68444e-07
3.68464e-07
4.17669e-07
3.97651e-07
3.88562e-07
3.68452e-07
3.68454e-07
3.97649e-07
3.96076e-07
3.76085e-07
3.6212e-07
3.62124e-07
3.44033e-07
3.44036e-07
3.96069e-07
3.76076e-07
3.62109e-07
3.62131e-07
3.4402e-07
3.44043e-07
3.62123e-07
3.44013e-07
3.44036e-07
3.96082e-07
3.76091e-07
3.62111e-07
3.44022e-07
3.44021e-07
3.7609e-07
3.74575e-07
3.55111e-07
3.38293e-07
3.38295e-07
3.21875e-07
3.21876e-07
3.74567e-07
3.55101e-07
3.38279e-07
3.38303e-07
3.21858e-07
3.21884e-07
3.38296e-07
3.21853e-07
3.21877e-07
3.74581e-07
3.55117e-07
3.3828e-07
3.21862e-07
3.2186e-07
3.55116e-07
3.53704e-07
3.35395e-07
3.16659e-07
3.16661e-07
3.01763e-07
3.01764e-07
3.53696e-07
3.35385e-07
3.16642e-07
3.16668e-07
3.01745e-07
3.01771e-07
3.16662e-07
3.0174e-07
3.01765e-07
3.5371e-07
3.35401e-07
3.16644e-07
3.01749e-07
3.01746e-07
3.35401e-07
3.34142e-07
3.17533e-07
2.97044e-07
2.97045e-07
2.83623e-07
2.83624e-07
3.34134e-07
3.17524e-07
2.97026e-07
2.97053e-07
2.83603e-07
2.83631e-07
2.97047e-07
2.83599e-07
2.83625e-07
3.34147e-07
3.1754e-07
2.97027e-07
2.83609e-07
2.83604e-07
3.17539e-07
3.16479e-07
3.01976e-07
2.79394e-07
2.79394e-07
2.67442e-07
2.67442e-07
3.16472e-07
3.01965e-07
2.79374e-07
2.79402e-07
2.67421e-07
2.67449e-07
2.79396e-07
2.67417e-07
2.67443e-07
3.16485e-07
3.01984e-07
2.79375e-07
2.67426e-07
2.67421e-07
3.01983e-07
3.01155e-07
2.89043e-07
2.63704e-07
2.63704e-07
2.53228e-07
2.53227e-07
3.01147e-07
2.89032e-07
2.63683e-07
2.63711e-07
2.53205e-07
2.53234e-07
2.63705e-07
2.53201e-07
2.53228e-07
3.01164e-07
2.89049e-07
2.63683e-07
2.5321e-07
2.53205e-07
2.89048e-07
2.88489e-07
2.78954e-07
2.49982e-07
2.49982e-07
2.40981e-07
2.40981e-07
2.8848e-07
2.78941e-07
2.49959e-07
2.49989e-07
2.40957e-07
2.40988e-07
2.49982e-07
2.40952e-07
2.40981e-07
2.88496e-07
2.78961e-07
2.49959e-07
2.40962e-07
2.40957e-07
2.7896e-07
2.78691e-07
2.71836e-07
2.38227e-07
2.38228e-07
2.30703e-07
2.30703e-07
2.78681e-07
2.71819e-07
2.38204e-07
2.38235e-07
2.30677e-07
2.30711e-07
2.38228e-07
2.30671e-07
2.30701e-07
2.78699e-07
2.71842e-07
2.38205e-07
2.30681e-07
2.30677e-07
2.7184e-07
2.71876e-07
2.67869e-07
2.28443e-07
2.28444e-07
2.224e-07
2.22402e-07
2.7186e-07
2.67861e-07
2.28418e-07
2.28452e-07
2.22373e-07
2.2241e-07
2.28443e-07
2.22366e-07
2.22399e-07
2.71882e-07
2.67882e-07
2.28418e-07
2.22377e-07
2.22373e-07
2.67881e-07
2.68161e-07
2.66987e-07
2.20634e-07
2.20639e-07
2.16077e-07
2.16081e-07
2.68154e-07
2.66968e-07
2.2061e-07
2.20647e-07
2.1605e-07
2.16089e-07
2.20636e-07
2.16039e-07
2.16076e-07
2.68175e-07
2.66991e-07
2.2061e-07
2.16051e-07
2.16049e-07
2.66997e-07
2.6764e-07
2.69164e-07
2.14811e-07
2.14817e-07
2.11746e-07
2.11754e-07
2.67624e-07
2.69151e-07
2.14785e-07
2.14825e-07
2.11719e-07
2.11763e-07
2.14811e-07
2.11703e-07
2.11744e-07
2.67644e-07
2.69176e-07
2.14784e-07
2.11718e-07
2.11716e-07
2.69178e-07
2.70488e-07
2.74667e-07
2.10982e-07
2.1099e-07
2.09415e-07
2.09425e-07
2.70475e-07
2.7465e-07
2.10955e-07
2.11e-07
2.09388e-07
2.09436e-07
2.1098e-07
2.09366e-07
2.09411e-07
2.70499e-07
2.74677e-07
2.10952e-07
2.09382e-07
2.09382e-07
2.7468e-07
2.76703e-07
2.83548e-07
2.09162e-07
2.09171e-07
2.0913e-07
2.09135e-07
2.76684e-07
2.835e-07
2.09134e-07
2.0918e-07
2.09102e-07
2.09154e-07
2.09155e-07
2.09069e-07
2.09121e-07
2.76702e-07
2.83569e-07
2.09126e-07
2.09094e-07
2.09092e-07
2.83551e-07
2.86257e-07
2.95823e-07
2.09352e-07
2.0936e-07
2.10854e-07
2.10862e-07
2.86216e-07
2.95807e-07
2.09324e-07
2.09382e-07
2.10824e-07
2.10882e-07
2.09346e-07
2.10789e-07
2.10843e-07
2.86288e-07
2.95838e-07
2.09317e-07
2.10812e-07
2.10813e-07
2.95832e-07
2.99235e-07
3.11481e-07
2.11621e-07
2.11627e-07
2.14672e-07
2.14683e-07
2.99199e-07
3.11459e-07
2.11593e-07
2.11651e-07
2.14641e-07
2.14709e-07
2.11607e-07
2.14598e-07
2.14663e-07
2.99242e-07
3.11517e-07
2.11577e-07
2.14628e-07
2.14633e-07
3.11521e-07
3.15568e-07
3.30591e-07
2.15957e-07
2.15978e-07
2.206e-07
2.20619e-07
3.15574e-07
3.30541e-07
2.15928e-07
2.15999e-07
2.20571e-07
2.20638e-07
2.15952e-07
2.2052e-07
2.20587e-07
3.15611e-07
3.30576e-07
2.15921e-07
2.20546e-07
2.20555e-07
3.30584e-07
3.3538e-07
2.22408e-07
2.22427e-07
3.35306e-07
2.22381e-07
2.2245e-07
2.22398e-07
3.35347e-07
2.22365e-07
5.35663e-07
5.35601e-07
5.35655e-07
5.35655e-07
5.34573e-07
5.35516e-07
5.33634e-07
5.35654e-07
5.34573e-07
5.35517e-07
5.35654e-07
5.33634e-07
5.35256e-07
5.35986e-07
5.35987e-07
1.10713e-06
3.88087e-06
9.33891e-07
4.60609e-06
1.26081e-05
1.6601e-05
1.10725e-06
3.88109e-06
9.33924e-07
4.60648e-06
4.95567e-07
4.95567e-07
4.95567e-07
4.57231e-07
4.57231e-07
4.57232e-07
4.57232e-07
5.43144e-07
1.22026e-06
4.95565e-07
4.85522e-07
5.25341e-07
1.20946e-06
4.82301e-07
1.26097e-05
1.66037e-05
5.43162e-07
4.95565e-07
1.22025e-06
4.85523e-07
5.2532e-07
4.82302e-07
1.20945e-06
2.52172e-06
2.52242e-06
4.8419e-07
2.37248e-06
2.37287e-06
1.4308e-06
5.59342e-06
1.32967e-06
6.13628e-06
2.12845e-05
2.31104e-05
1.4312e-06
5.59405e-06
1.32973e-06
6.13691e-06
4.45572e-07
4.45573e-07
4.45573e-07
4.13542e-07
4.13542e-07
4.13543e-07
4.13543e-07
5.87084e-07
1.19483e-06
4.46434e-07
4.44291e-07
5.73801e-07
1.20431e-06
4.3569e-07
2.12866e-05
2.31141e-05
5.87102e-07
4.46435e-07
1.19484e-06
4.44294e-07
5.73811e-07
4.35692e-07
1.2044e-06
2.31171e-06
2.31222e-06
4.53488e-07
2.35332e-06
2.35378e-06
1.66327e-06
6.91816e-06
1.59584e-06
7.31953e-06
2.46404e-05
2.49369e-05
1.66337e-06
6.9189e-06
1.59576e-06
7.32065e-06
4.03752e-07
4.03753e-07
4.03753e-07
3.76689e-07
3.76689e-07
3.76691e-07
3.7669e-07
6.15569e-07
1.24281e-06
4.06546e-07
4.10617e-07
6.0838e-07
1.26558e-06
3.97729e-07
2.46437e-05
2.49404e-05
6.15585e-07
4.06547e-07
1.24291e-06
4.10622e-07
6.08396e-07
3.97732e-07
1.26574e-06
2.47396e-06
2.47444e-06
4.30179e-07
2.53268e-06
2.53316e-06
1.81233e-06
7.8475e-06
1.77234e-06
8.09932e-06
2.47368e-05
2.443e-05
1.81247e-06
7.84809e-06
1.77234e-06
8.10007e-06
3.68362e-07
3.68365e-07
3.68364e-07
3.45192e-07
3.45192e-07
3.45195e-07
3.45194e-07
6.26293e-07
1.31313e-06
3.73478e-07
3.81656e-07
6.24882e-07
1.33369e-06
3.66029e-07
2.47391e-05
2.44335e-05
6.26306e-07
3.7348e-07
1.31321e-06
3.81662e-07
6.24894e-07
3.66032e-07
1.33385e-06
2.63522e-06
2.63571e-06
4.08471e-07
2.67932e-06
2.67982e-06
1.89283e-06
8.39642e-06
1.87318e-06
8.53053e-06
2.36929e-05
2.32649e-05
1.893e-06
8.39832e-06
1.87321e-06
8.53182e-06
3.38014e-07
3.38017e-07
3.38016e-07
3.17912e-07
3.17911e-07
3.17915e-07
3.17914e-07
6.22109e-07
1.37212e-06
3.45239e-07
3.55922e-07
6.25445e-07
1.3871e-06
3.38764e-07
2.36943e-05
2.32679e-05
6.22123e-07
3.45241e-07
1.37219e-06
3.5593e-07
6.25457e-07
3.38768e-07
1.38726e-06
2.7635e-06
2.76403e-06
3.86837e-07
2.8053e-06
2.80585e-06
1.92987e-06
8.66293e-06
1.92178e-06
8.71917e-06
2.2502e-05
2.21198e-05
1.93005e-06
8.66482e-06
1.92182e-06
8.72039e-06
3.11645e-07
3.11649e-07
3.11648e-07
2.94001e-07
2.94e-07
2.94004e-07
2.94002e-07
6.08887e-07
1.41603e-06
3.20492e-07
3.32668e-07
6.15378e-07
1.42751e-06
3.14745e-07
2.25027e-05
2.21226e-05
6.08901e-07
3.20493e-07
1.41611e-06
3.32677e-07
6.1539e-07
3.14749e-07
1.42768e-06
2.89502e-06
2.89561e-06
3.65488e-07
2.94354e-06
2.94416e-06
1.94788e-06
8.76034e-06
1.94363e-06
8.76933e-06
2.14774e-05
2.11775e-05
1.94806e-06
8.7603e-06
1.94367e-06
8.77127e-06
2.88472e-07
2.88476e-07
2.88475e-07
2.72839e-07
2.72838e-07
2.72842e-07
2.72841e-07
5.91864e-07
1.45272e-06
2.98409e-07
3.11548e-07
5.99369e-07
1.46401e-06
2.93242e-07
2.14784e-05
2.11802e-05
5.91878e-07
2.98411e-07
1.45278e-06
3.11557e-07
5.99382e-07
2.93246e-07
1.46418e-06
3.04902e-06
3.04972e-06
3.45061e-07
3.10609e-06
3.10685e-06
1.9656e-06
8.76853e-06
1.9596e-06
8.76401e-06
2.0674e-05
2.04522e-05
1.96575e-06
8.769e-06
1.95963e-06
8.76627e-06
2.67922e-07
2.67926e-07
2.67925e-07
2.53976e-07
2.53976e-07
2.5398e-07
2.53978e-07
5.75448e-07
1.49166e-06
2.785e-07
2.92425e-07
5.82272e-07
1.50544e-06
2.73825e-07
2.06755e-05
2.04541e-05
5.75464e-07
2.78501e-07
1.49173e-06
2.92434e-07
5.82287e-07
2.73829e-07
1.50562e-06
3.22631e-06
3.22712e-06
3.26206e-07
3.29188e-06
3.29283e-06
1.99558e-06
8.75199e-06
1.98438e-06
8.74112e-06
2.00724e-05
1.99095e-05
1.99569e-06
8.75056e-06
1.98439e-06
8.74578e-06
2.49579e-07
2.49583e-07
2.49581e-07
2.37082e-07
2.37081e-07
2.37086e-07
2.37084e-07
5.62901e-07
1.53974e-06
2.60474e-07
2.75263e-07
5.67827e-07
1.55772e-06
2.56239e-07
2.00742e-05
1.99114e-05
5.62916e-07
2.60475e-07
1.53986e-06
2.75272e-07
5.67844e-07
2.56243e-07
1.55783e-06
3.42131e-06
3.42228e-06
3.0945e-07
3.49336e-06
3.49451e-06
2.04524e-06
8.73381e-06
2.0268e-06
8.73258e-06
1.96307e-05
1.95175e-05
2.04537e-06
8.73446e-06
2.02679e-06
8.73394e-06
2.33136e-07
2.3314e-07
2.33138e-07
2.21911e-07
2.2191e-07
2.21915e-07
2.21913e-07
5.56499e-07
1.60101e-06
2.44157e-07
2.60063e-07
5.58642e-07
1.62357e-06
2.4033e-07
1.9633e-05
1.95187e-05
5.56518e-07
2.44158e-07
1.60103e-06
2.60072e-07
5.58659e-07
2.40334e-07
1.62378e-06
3.62774e-06
3.62889e-06
2.95171e-07
3.70159e-06
3.70295e-06
2.11899e-06
8.73235e-06
2.09201e-06
8.73464e-06
1.93176e-05
1.92363e-05
2.11918e-06
8.73283e-06
2.09195e-06
8.73676e-06
2.18365e-07
2.18369e-07
2.18367e-07
2.08276e-07
2.08275e-07
2.08279e-07
2.08278e-07
5.57606e-07
1.67639e-06
2.29438e-07
2.4683e-07
5.56737e-07
1.70375e-06
2.25997e-07
1.93196e-05
1.92375e-05
5.57625e-07
2.29439e-07
1.67647e-06
2.4684e-07
5.56754e-07
2.26001e-07
1.70394e-06
3.83598e-06
3.83728e-06
2.83638e-07
3.90897e-06
3.91054e-06
2.21869e-06
8.73929e-06
2.18283e-06
8.74777e-06
1.90954e-05
1.90416e-05
2.2189e-06
8.74178e-06
2.18285e-06
8.7478e-06
2.05089e-07
2.05093e-07
2.05092e-07
1.9603e-07
1.96029e-07
1.96033e-07
1.96031e-07
5.66945e-07
1.76538e-06
2.16237e-07
2.35566e-07
5.631e-07
1.79674e-06
2.13166e-07
1.90974e-05
1.90428e-05
5.66971e-07
2.16238e-07
1.76551e-06
2.35576e-07
5.63125e-07
2.1317e-07
1.79694e-06
4.03867e-06
4.04013e-06
2.75015e-07
4.10856e-06
4.11028e-06
2.34381e-06
8.75782e-06
2.29938e-06
8.77127e-06
1.89455e-05
1.89014e-05
2.34442e-06
8.75989e-06
2.29926e-06
8.76827e-06
1.93171e-07
1.93175e-07
1.93173e-07
1.85053e-07
1.85052e-07
1.85057e-07
1.85055e-07
5.85867e-07
1.86579e-06
2.04494e-07
2.26271e-07
5.78754e-07
1.90018e-06
2.01779e-07
1.89454e-05
1.89035e-05
5.85899e-07
2.04495e-07
1.86587e-06
2.26281e-07
5.78784e-07
2.01783e-07
1.90051e-06
4.229e-06
4.23059e-06
2.69478e-07
4.29526e-06
4.29711e-06
2.49197e-06
8.77959e-06
2.43873e-06
8.78547e-06
1.88345e-05
1.88087e-05
2.49253e-06
8.78076e-06
2.43846e-06
8.78983e-06
1.82497e-07
1.82501e-07
1.82499e-07
1.75253e-07
1.75252e-07
1.75256e-07
1.75254e-07
6.14901e-07
1.97467e-06
1.94157e-07
2.18955e-07
6.04381e-07
2.01135e-06
1.91785e-07
1.88323e-05
1.88143e-05
6.14938e-07
1.94158e-07
1.97463e-06
2.18966e-07
6.04412e-07
1.9179e-07
2.01165e-06
4.40388e-06
4.40556e-06
2.67062e-07
4.46258e-06
4.46452e-06
2.65681e-06
8.79804e-06
2.59693e-06
8.80732e-06
1.8755e-05
1.87355e-05
2.65736e-06
8.80204e-06
2.59665e-06
8.81018e-06
1.72978e-07
1.72983e-07
1.72981e-07
1.66551e-07
1.6655e-07
1.66554e-07
1.66552e-07
6.54318e-07
2.08871e-06
1.85183e-07
2.13623e-07
6.40333e-07
2.1264e-06
1.83145e-07
1.87608e-05
1.87375e-05
6.54356e-07
1.85183e-07
2.08872e-06
2.13636e-07
6.40368e-07
1.83149e-07
2.12666e-06
4.55827e-06
4.56005e-06
2.67678e-07
4.60909e-06
4.61112e-06
2.83134e-06
8.81871e-06
2.7677e-06
8.82718e-06
1.87065e-05
1.86775e-05
2.8319e-06
8.82094e-06
2.76746e-06
8.82892e-06
1.6454e-07
1.64545e-07
1.64542e-07
1.58882e-07
1.58881e-07
1.58886e-07
1.58883e-07
7.04079e-07
2.20471e-06
1.77535e-07
2.10281e-07
6.867e-07
2.24231e-06
1.75823e-07
1.86987e-05
1.86809e-05
7.04117e-07
1.77535e-07
2.20486e-06
2.10298e-07
6.8674e-07
1.75827e-07
2.24252e-06
4.69126e-06
4.69306e-06
2.71502e-07
4.73425e-06
4.73635e-06
3.00737e-06
8.83574e-06
2.94322e-06
8.84334e-06
1.86537e-05
1.86273e-05
3.00792e-06
8.83767e-06
2.943e-06
8.84521e-06
1.57121e-07
1.57126e-07
1.57123e-07
1.52192e-07
1.52191e-07
1.52196e-07
1.52193e-07
7.63692e-07
2.31914e-06
1.71187e-07
2.08953e-07
7.43124e-07
2.35592e-06
1.69794e-07
1.86464e-05
1.86431e-05
7.6373e-07
1.71187e-07
2.31935e-06
2.08973e-07
7.43167e-07
1.69799e-07
2.35594e-06
4.80387e-06
4.80571e-06
2.78707e-07
4.83973e-06
4.8418e-06
3.17664e-06
8.85351e-06
3.11526e-06
8.85845e-06
1.86051e-05
1.85936e-05
3.17723e-06
8.85564e-06
3.11508e-06
8.86027e-06
1.50667e-07
1.50673e-07
1.5067e-07
1.46434e-07
1.46432e-07
1.46439e-07
1.46435e-07
8.32126e-07
2.42939e-06
1.66121e-07
2.09658e-07
8.08792e-07
2.46412e-06
1.65045e-07
1.86007e-05
1.86021e-05
8.32172e-07
1.6612e-07
2.42971e-06
2.09683e-07
8.08842e-07
1.6505e-07
2.4644e-06
4.89718e-06
4.89904e-06
2.89266e-07
4.92686e-06
4.92895e-06
3.3325e-06
8.86628e-06
3.27641e-06
8.87402e-06
1.85623e-05
1.85569e-05
3.33307e-06
8.86824e-06
3.27619e-06
8.87583e-06
1.45134e-07
1.45141e-07
1.45137e-07
1.41571e-07
1.41569e-07
1.41576e-07
1.41572e-07
9.07926e-07
2.53381e-06
1.62328e-07
2.12428e-07
8.82375e-07
2.56581e-06
1.61567e-07
1.85619e-05
1.85505e-05
9.07969e-07
1.62328e-07
2.53376e-06
2.12458e-07
8.82412e-07
1.61572e-07
2.56608e-06
4.97473e-06
4.9766e-06
3.03232e-07
4.99771e-06
4.99979e-06
3.47e-06
8.88373e-06
3.42077e-06
8.88902e-06
1.85278e-05
1.85205e-05
3.47057e-06
8.88557e-06
3.42062e-06
8.89089e-06
1.40489e-07
1.40497e-07
1.40492e-07
1.37573e-07
1.3757e-07
1.37578e-07
1.37574e-07
9.89111e-07
2.62982e-06
1.59809e-07
2.17299e-07
9.62002e-07
2.6594e-06
1.59362e-07
1.85415e-05
1.85197e-05
9.89152e-07
1.5981e-07
2.63001e-06
2.17324e-07
9.6205e-07
1.59366e-07
2.65961e-06
5.03751e-06
5.03941e-06
3.20637e-07
5.05634e-06
5.05839e-06
3.58669e-06
8.89358e-06
3.54532e-06
8.89921e-06
1.84881e-05
1.84889e-05
3.58726e-06
8.89541e-06
3.54514e-06
8.90099e-06
1.367e-07
1.36709e-07
1.36703e-07
1.07344e-06
2.71755e-06
1.58573e-07
2.24264e-07
1.04556e-06
2.74407e-06
1.5844e-07
1.8501e-05
1.84883e-05
1.07348e-06
1.58575e-07
2.7177e-06
2.24297e-07
1.04561e-06
1.58444e-07
2.74419e-06
5.08922e-06
5.0911e-06
3.41346e-07
5.10444e-06
5.1065e-06
5.35256e-07
5.3599e-07
5.35988e-07
1.0916e-05
5.81346e-07
1.09173e-05
5.81338e-07
5.28206e-07
2.43128e-06
2.43221e-06
5.40833e-07
5.4083e-07
5.34573e-07
5.35517e-07
5.33635e-07
5.35654e-07
5.34573e-07
5.35517e-07
5.33634e-07
5.35655e-07
5.30398e-07
3.47217e-06
5.68207e-07
8.21115e-07
5.30398e-07
3.47219e-06
5.68206e-07
8.21079e-07
5.29522e-07
5.2838e-07
1.1669e-06
5.09601e-07
5.32664e-07
5.28352e-07
5.19211e-07
5.29522e-07
5.2838e-07
1.16705e-06
5.09601e-07
5.32664e-07
5.28352e-07
5.19213e-07
5.35256e-07
5.35989e-07
5.35988e-07
1.09162e-05
5.81325e-07
5.28207e-07
2.43175e-06
2.43189e-06
5.40834e-07
5.4083e-07
1.09169e-05
5.81319e-07
5.34573e-07
5.35516e-07
5.33634e-07
5.35654e-07
5.34573e-07
5.35517e-07
5.35654e-07
5.33634e-07
5.30398e-07
3.47251e-06
5.68204e-07
8.21259e-07
5.29522e-07
5.2838e-07
1.16717e-06
5.09601e-07
5.32663e-07
5.28352e-07
5.19219e-07
5.30398e-07
3.4726e-06
5.68203e-07
8.21162e-07
5.29522e-07
5.2838e-07
5.09601e-07
1.16707e-06
5.28352e-07
5.32663e-07
5.19214e-07
5.35663e-07
5.35601e-07
5.35655e-07
5.35655e-07
5.35663e-07
5.35601e-07
5.35655e-07
5.35655e-07
5.35663e-07
5.35601e-07
5.35655e-07
5.35655e-07
5.28434e-07
5.28376e-07
5.09725e-07
5.09725e-07
5.28408e-07
5.28408e-07
5.09782e-07
5.28434e-07
5.28375e-07
5.09725e-07
5.09725e-07
5.28408e-07
5.28408e-07
5.09782e-07
5.28434e-07
5.28375e-07
5.09725e-07
5.09725e-07
5.28408e-07
5.28408e-07
5.09782e-07
5.28434e-07
5.28375e-07
5.09725e-07
5.09725e-07
5.28408e-07
5.28408e-07
5.09782e-07
5.34573e-07
5.35517e-07
5.35654e-07
5.33634e-07
5.29522e-07
5.2838e-07
1.16711e-06
5.09601e-07
5.32663e-07
5.28352e-07
5.19217e-07
5.30398e-07
3.47239e-06
5.68198e-07
8.21168e-07
5.29522e-07
5.2838e-07
5.09601e-07
1.16699e-06
5.28352e-07
5.32662e-07
5.19213e-07
5.30398e-07
3.47253e-06
5.68203e-07
8.21114e-07
5.35256e-07
5.35987e-07
5.35986e-07
1.09175e-05
5.81335e-07
5.28206e-07
2.43203e-06
2.43187e-06
5.4083e-07
5.40827e-07
1.09174e-05
5.81314e-07
5.34573e-07
5.35517e-07
5.35654e-07
5.33634e-07
5.29522e-07
5.2838e-07
5.09602e-07
1.16705e-06
5.28352e-07
5.32662e-07
5.19217e-07
5.29522e-07
5.2838e-07
5.09601e-07
1.16717e-06
5.28352e-07
5.32664e-07
5.19219e-07
5.30398e-07
3.47256e-06
5.68197e-07
8.21239e-07
5.30397e-07
3.47257e-06
5.68208e-07
8.21326e-07
5.28206e-07
2.43168e-06
2.43234e-06
5.40828e-07
5.40829e-07
1.09172e-05
5.81318e-07
1.09174e-05
5.81332e-07
1.26079e-05
1.66001e-05
1.26095e-05
1.66028e-05
2.52167e-06
2.52241e-06
4.84189e-07
2.37213e-06
2.37287e-06
2.05303e-05
1.76847e-05
2.05337e-05
1.76876e-05
4.793e-07
2.30606e-06
2.30672e-06
2.33927e-06
2.34001e-06
1.10698e-06
3.88083e-06
9.34005e-07
4.60599e-06
5.4313e-07
1.22014e-06
4.95565e-07
4.85525e-07
5.25354e-07
1.20939e-06
4.82301e-07
5.43126e-07
1.22032e-06
4.95565e-07
4.85532e-07
5.25362e-07
1.20963e-06
4.82301e-07
1.16104e-06
5.40812e-06
4.81022e-06
1.28052e-06
1.16115e-06
5.40803e-06
4.81026e-06
1.28052e-06
5.50998e-07
4.74299e-07
1.19322e-06
4.57763e-07
1.20475e-06
4.69711e-07
5.66396e-07
5.51001e-07
4.74307e-07
1.1934e-06
4.57763e-07
1.20492e-06
4.69711e-07
5.66391e-07
2.52215e-06
2.5219e-06
4.84188e-07
2.37275e-06
2.37224e-06
1.26086e-05
1.66014e-05
2.05314e-05
1.76864e-05
4.793e-07
2.30659e-06
2.30629e-06
2.33979e-06
2.33961e-06
2.05315e-05
1.76854e-05
5.43162e-07
1.22041e-06
4.95565e-07
4.85529e-07
5.25355e-07
1.20967e-06
4.82302e-07
1.1072e-06
3.88134e-06
9.33771e-07
4.60684e-06
5.43157e-07
4.95565e-07
1.22037e-06
4.85533e-07
5.25344e-07
4.82302e-07
1.20966e-06
1.16106e-06
5.40857e-06
4.81054e-06
1.28068e-06
5.51e-07
4.74305e-07
1.19342e-06
4.57763e-07
1.20493e-06
4.6971e-07
5.66412e-07
1.16105e-06
5.40912e-06
4.81099e-06
1.28067e-06
5.51e-07
4.74309e-07
4.57764e-07
1.19347e-06
4.69711e-07
1.20498e-06
5.66419e-07
1.10713e-06
3.88081e-06
9.33861e-07
4.60631e-06
5.43142e-07
4.95565e-07
1.22023e-06
4.85525e-07
5.2533e-07
4.82302e-07
1.20952e-06
1.10715e-06
3.88133e-06
9.33699e-07
4.60648e-06
5.50996e-07
4.74296e-07
1.19322e-06
4.57762e-07
1.20475e-06
4.6971e-07
5.66399e-07
1.16107e-06
5.40816e-06
4.80997e-06
1.28062e-06
5.50994e-07
4.743e-07
4.57763e-07
1.19328e-06
4.69711e-07
1.20474e-06
5.66397e-07
1.16098e-06
5.40847e-06
4.81082e-06
1.28059e-06
2.52234e-06
2.52183e-06
4.84191e-07
2.37286e-06
2.37211e-06
1.26094e-05
1.66017e-05
2.05349e-05
1.76879e-05
4.79301e-07
2.30678e-06
2.30623e-06
2.33994e-06
2.33946e-06
2.05323e-05
1.76872e-05
5.4317e-07
4.95565e-07
1.2204e-06
4.8553e-07
5.25332e-07
4.82302e-07
1.20966e-06
1.1074e-06
3.88128e-06
9.33639e-07
4.60655e-06
1.10746e-06
3.88118e-06
9.33755e-07
4.60647e-06
5.50995e-07
4.74297e-07
4.57763e-07
1.19327e-06
4.6971e-07
1.20481e-06
5.66411e-07
5.50994e-07
4.74304e-07
4.57763e-07
1.1934e-06
4.69711e-07
1.20491e-06
5.66418e-07
1.16083e-06
5.40873e-06
4.81083e-06
1.2807e-06
1.16085e-06
5.40871e-06
4.81056e-06
1.28073e-06
1.2609e-05
1.66016e-05
1.26095e-05
1.66024e-05
4.79301e-07
2.30619e-06
2.3067e-06
2.33915e-06
2.33997e-06
2.05316e-05
1.76867e-05
2.05332e-05
1.7688e-05
2.12825e-05
2.31088e-05
2.12863e-05
2.31129e-05
2.31156e-06
2.31225e-06
4.53484e-07
2.35305e-06
2.35365e-06
2.44705e-05
2.35337e-05
2.44741e-05
2.35373e-05
4.50883e-07
2.44249e-06
2.44307e-06
2.38111e-06
2.38167e-06
1.43079e-06
5.59348e-06
1.32965e-06
6.13637e-06
5.87083e-07
1.19482e-06
4.46435e-07
4.44297e-07
5.73802e-07
1.20433e-06
4.35691e-07
5.87078e-07
1.19497e-06
4.46435e-07
4.44306e-07
5.73798e-07
1.20451e-06
4.35692e-07
1.47493e-06
6.77779e-06
6.3011e-06
1.55763e-06
1.47489e-06
6.77811e-06
6.30123e-06
1.5576e-06
5.93329e-07
4.35315e-07
1.23132e-06
4.15788e-07
1.21235e-06
4.2549e-07
6.03618e-07
5.9332e-07
4.35324e-07
1.23144e-06
4.15789e-07
1.21251e-06
4.2549e-07
6.03613e-07
2.31203e-06
2.31174e-06
4.5348e-07
2.3535e-06
2.35316e-06
2.12832e-05
2.31099e-05
2.44716e-05
2.35356e-05
4.50881e-07
2.44294e-06
2.44241e-06
2.38152e-06
2.38146e-06
2.44712e-05
2.35345e-05
5.87101e-07
1.19502e-06
4.46435e-07
4.443e-07
5.73817e-07
1.20451e-06
4.35692e-07
1.4312e-06
5.59439e-06
1.32973e-06
6.13767e-06
5.87103e-07
4.46436e-07
1.19504e-06
4.44309e-07
5.73819e-07
4.35693e-07
1.20458e-06
1.47467e-06
6.77873e-06
6.302e-06
1.55789e-06
5.93343e-07
4.35318e-07
1.23145e-06
4.1579e-07
1.21252e-06
4.2549e-07
6.03633e-07
1.47467e-06
6.77926e-06
6.30225e-06
1.5579e-06
5.93349e-07
4.35328e-07
4.15791e-07
1.23151e-06
4.25492e-07
1.21265e-06
6.0364e-07
1.43097e-06
5.5934e-06
1.32963e-06
6.13638e-06
5.87088e-07
4.46435e-07
1.19486e-06
4.44299e-07
5.73804e-07
4.35692e-07
1.20444e-06
1.43085e-06
5.59404e-06
1.32973e-06
6.1369e-06
5.93324e-07
4.35309e-07
1.23124e-06
4.15787e-07
1.21237e-06
4.25489e-07
6.0362e-07
1.47479e-06
6.7781e-06
6.30117e-06
1.55767e-06
5.93328e-07
4.35318e-07
4.15789e-07
1.23137e-06
4.2549e-07
1.21244e-06
6.03623e-07
1.47482e-06
6.77887e-06
6.30197e-06
1.55769e-06
2.3123e-06
2.31148e-06
4.53489e-07
2.35376e-06
2.35319e-06
2.12849e-05
2.31111e-05
2.44754e-05
2.35386e-05
4.50886e-07
2.44313e-06
2.44261e-06
2.38207e-06
2.38128e-06
2.44722e-05
2.35364e-05
5.87099e-07
4.46435e-07
1.19496e-06
4.44303e-07
5.73809e-07
4.35692e-07
1.20454e-06
1.4312e-06
5.59412e-06
1.32972e-06
6.13707e-06
1.43107e-06
5.59397e-06
1.32971e-06
6.13704e-06
5.93341e-07
4.35311e-07
4.15789e-07
1.23134e-06
4.2549e-07
1.21241e-06
6.03638e-07
5.93338e-07
4.35318e-07
4.15789e-07
1.23146e-06
4.2549e-07
1.21254e-06
6.03636e-07
1.47465e-06
6.77875e-06
6.30196e-06
1.5579e-06
1.47468e-06
6.77899e-06
6.30204e-06
1.55791e-06
2.12849e-05
2.31113e-05
2.12866e-05
2.31129e-05
4.50885e-07
2.44269e-06
2.44316e-06
2.38133e-06
2.38178e-06
2.44725e-05
2.35365e-05
2.4474e-05
2.35381e-05
2.46395e-05
2.49361e-05
2.46423e-05
2.49391e-05
2.47403e-06
2.47431e-06
4.30176e-07
2.53246e-06
2.53308e-06
2.48375e-05
2.49381e-05
2.48402e-05
2.49408e-05
4.28476e-07
2.61088e-06
2.61149e-06
2.56085e-06
2.56116e-06
1.66324e-06
6.91816e-06
1.59581e-06
7.32004e-06
6.15566e-07
1.24289e-06
4.06547e-07
4.10628e-07
6.0838e-07
1.26565e-06
3.9773e-07
6.15561e-07
1.24295e-06
4.06548e-07
4.10635e-07
6.08375e-07
1.26579e-06
3.97731e-07
1.69464e-06
7.7585e-06
7.43418e-06
1.74773e-06
1.69461e-06
7.75841e-06
7.43351e-06
1.74771e-06
6.18842e-07
4.03022e-07
1.30099e-06
3.81227e-07
1.27831e-06
3.89301e-07
6.23022e-07
6.18837e-07
4.03029e-07
1.30115e-06
3.81228e-07
1.2784e-06
3.89302e-07
6.23018e-07
2.47423e-06
2.47401e-06
4.30168e-07
2.53297e-06
2.53235e-06
2.46395e-05
2.49364e-05
2.48383e-05
2.49388e-05
4.28472e-07
2.61141e-06
2.61071e-06
2.5611e-06
2.56078e-06
2.48376e-05
2.49382e-05
6.15589e-07
1.24297e-06
4.06548e-07
4.10626e-07
6.08402e-07
1.26581e-06
3.97732e-07
1.66337e-06
6.91938e-06
1.59576e-06
7.32132e-06
6.15591e-07
4.0655e-07
1.24309e-06
4.10641e-07
6.084e-07
3.97733e-07
1.26586e-06
1.69462e-06
7.75935e-06
7.43457e-06
1.74786e-06
6.18862e-07
4.03019e-07
1.30119e-06
3.8123e-07
1.27848e-06
3.89301e-07
6.23046e-07
1.69462e-06
7.76078e-06
7.43547e-06
1.74786e-06
6.18864e-07
4.03035e-07
3.81231e-07
1.30121e-06
3.89304e-07
1.27854e-06
6.23047e-07
1.66332e-06
6.91819e-06
1.59588e-06
7.32015e-06
6.15572e-07
4.06548e-07
1.24288e-06
4.10631e-07
6.08382e-07
3.97731e-07
1.26572e-06
1.66332e-06
6.91881e-06
1.5959e-06
7.3208e-06
6.18843e-07
4.0301e-07
1.30093e-06
3.81226e-07
1.27825e-06
3.893e-07
6.23026e-07
1.69468e-06
7.75945e-06
7.43387e-06
1.74778e-06
6.18845e-07
4.03025e-07
3.81228e-07
1.30108e-06
3.89302e-07
1.27833e-06
6.23028e-07
1.69468e-06
7.75917e-06
7.43411e-06
1.74777e-06
2.47471e-06
2.47394e-06
4.30181e-07
2.53314e-06
2.53265e-06
2.46413e-05
2.49376e-05
2.48413e-05
2.4942e-05
4.28482e-07
2.61154e-06
2.61106e-06
2.56154e-06
2.56076e-06
2.4839e-05
2.49396e-05
6.15584e-07
4.06549e-07
1.24298e-06
4.10628e-07
6.08396e-07
3.97732e-07
1.26582e-06
1.66336e-06
6.91891e-06
1.59575e-06
7.32079e-06
1.66338e-06
6.91896e-06
1.59577e-06
7.32101e-06
6.18858e-07
4.03015e-07
3.81229e-07
1.30109e-06
3.89301e-07
1.27834e-06
6.2304e-07
6.18859e-07
4.03021e-07
3.81229e-07
1.30118e-06
3.89303e-07
1.27843e-06
6.2304e-07
1.69461e-06
7.75942e-06
7.43448e-06
1.74785e-06
1.69462e-06
7.75944e-06
7.43434e-06
1.74786e-06
2.46415e-05
2.49379e-05
2.46429e-05
2.49392e-05
4.2848e-07
2.61108e-06
2.61157e-06
2.56079e-06
2.56127e-06
2.48393e-05
2.49398e-05
2.48404e-05
2.49411e-05
2.4736e-05
2.44298e-05
2.47379e-05
2.44325e-05
2.63527e-06
2.63561e-06
4.08467e-07
2.67914e-06
2.67975e-06
2.38689e-05
2.4271e-05
2.38718e-05
2.42731e-05
4.06875e-07
2.74223e-06
2.74283e-06
2.70091e-06
2.70153e-06
1.81231e-06
7.84674e-06
1.77232e-06
8.09858e-06
6.26287e-07
1.31319e-06
3.7348e-07
3.81671e-07
6.24879e-07
1.33375e-06
3.6603e-07
6.26284e-07
1.31328e-06
3.73481e-07
3.81676e-07
6.24876e-07
1.33392e-06
3.66031e-07
1.83091e-06
8.35215e-06
8.16436e-06
1.85966e-06
1.8309e-06
8.3512e-06
8.16448e-06
1.85964e-06
6.26731e-07
3.74974e-07
1.36248e-06
3.51931e-07
1.34469e-06
3.58854e-07
6.25634e-07
6.26729e-07
3.74979e-07
1.36267e-06
3.51932e-07
1.34488e-06
3.58856e-07
6.25632e-07
2.63557e-06
2.63518e-06
4.08458e-07
2.67967e-06
2.67894e-06
2.47356e-05
2.44299e-05
2.38696e-05
2.42724e-05
4.06869e-07
2.74275e-06
2.742e-06
2.70149e-06
2.70107e-06
2.38697e-05
2.42712e-05
6.26314e-07
1.31332e-06
3.7348e-07
3.81664e-07
6.249e-07
1.33396e-06
3.66032e-07
1.81247e-06
7.84851e-06
1.77233e-06
8.10163e-06
6.26314e-07
3.73483e-07
1.31342e-06
3.81683e-07
6.24902e-07
3.66034e-07
1.33397e-06
1.83093e-06
8.35314e-06
8.16567e-06
1.85981e-06
6.26755e-07
3.74966e-07
1.36271e-06
3.51933e-07
1.34491e-06
3.58855e-07
6.25664e-07
1.83092e-06
8.35414e-06
8.16499e-06
1.8598e-06
6.26756e-07
3.74986e-07
3.51935e-07
1.36272e-06
3.58858e-07
1.34502e-06
6.25663e-07
1.81237e-06
7.84651e-06
1.77239e-06
8.09924e-06
6.26294e-07
3.7348e-07
1.31321e-06
3.81674e-07
6.24882e-07
3.66031e-07
1.33384e-06
1.81236e-06
7.84696e-06
1.77238e-06
8.099e-06
6.26736e-07
3.74958e-07
1.36243e-06
3.5193e-07
1.34472e-06
3.58853e-07
6.25642e-07
1.83096e-06
8.35105e-06
8.16344e-06
1.8597e-06
6.26735e-07
3.74977e-07
3.51932e-07
1.36259e-06
3.58855e-07
1.34479e-06
6.25641e-07
1.83095e-06
8.35107e-06
8.16438e-06
1.85968e-06
2.63597e-06
2.6352e-06
4.08473e-07
2.6798e-06
2.6793e-06
2.47376e-05
2.44307e-05
2.38729e-05
2.42742e-05
4.06882e-07
2.74289e-06
2.74235e-06
2.70189e-06
2.70111e-06
2.38703e-05
2.4273e-05
6.26308e-07
3.73481e-07
1.31332e-06
3.81666e-07
6.24897e-07
3.66032e-07
1.33395e-06
1.81245e-06
7.84786e-06
1.77232e-06
8.10016e-06
1.81247e-06
7.84729e-06
1.77234e-06
8.09933e-06
6.26748e-07
3.74965e-07
3.51933e-07
1.3626e-06
3.58855e-07
1.3448e-06
6.25655e-07
6.26751e-07
3.74968e-07
3.51933e-07
1.3627e-06
3.58856e-07
1.34491e-06
6.25657e-07
1.83091e-06
8.3532e-06
8.16529e-06
1.85979e-06
1.83092e-06
8.35149e-06
8.1648e-06
1.85981e-06
2.47377e-05
2.44307e-05
2.47389e-05
2.44316e-05
4.0688e-07
2.74238e-06
2.7429e-06
2.70111e-06
2.70162e-06
2.38702e-05
2.42734e-05
2.38709e-05
2.42743e-05
2.36916e-05
2.32638e-05
2.36933e-05
2.32664e-05
2.76336e-06
2.76402e-06
3.86832e-07
2.80521e-06
2.80582e-06
2.2671e-05
2.30858e-05
2.26735e-05
2.30872e-05
3.85288e-07
2.87163e-06
2.87226e-06
2.82698e-06
2.82762e-06
1.89282e-06
8.39746e-06
1.87318e-06
8.52948e-06
6.22101e-07
1.3721e-06
3.4524e-07
3.5594e-07
6.25439e-07
1.38715e-06
3.38766e-07
6.221e-07
1.37228e-06
3.45242e-07
3.55944e-07
6.25438e-07
1.38734e-06
3.38767e-07
1.90236e-06
8.64873e-06
8.55796e-06
1.91515e-06
1.90237e-06
8.64741e-06
8.55965e-06
1.91515e-06
6.21487e-07
3.49913e-07