/*--------------------------------*- C++ -*----------------------------------*\
| =========                 |                                                 |
| \\      /  F ield         | OpenFOAM: The Open Source CFD Toolbox           |
|  \\    /   O peration     | Version:  v1906                                 |
|   \\  /    A nd           | Web:      www.OpenFOAM.com                      |
|    \\/     M anipulation  |                                                 |
\*---------------------------------------------------------------------------*/
FoamFile
{
    version     2.0;
    format      ascii;
    class       volScalarField;
    location    "875";
    object      k;
}
// * * * * * * * * * * * * * * * * * * * * * * * * * * * * * * * * * * * * * //

dimensions      [0 2 -2 0 0 0 0];


internalField   nonuniform List<scalar> 
43024
(
3.58932e-05
3.58912e-05
3.58912e-05
3.59957e-05
3.39296e-05
3.3889e-05
3.3889e-05
3.39622e-05
3.21578e-05
3.20081e-05
3.20081e-05
3.19522e-05
3.05346e-05
3.02293e-05
3.02292e-05
2.99885e-05
2.90329e-05
2.8554e-05
2.85539e-05
2.81227e-05
2.76353e-05
2.69872e-05
2.69871e-05
2.63907e-05
2.63308e-05
2.5531e-05
2.55309e-05
2.48073e-05
2.51112e-05
2.4185e-05
2.41848e-05
2.33781e-05
2.3971e-05
2.29507e-05
2.29505e-05
2.21048e-05
2.29058e-05
2.18269e-05
2.18267e-05
2.09855e-05
2.1912e-05
2.08114e-05
2.08112e-05
2.00136e-05
2.09865e-05
1.99015e-05
1.99014e-05
1.91828e-05
2.01241e-05
1.9095e-05
1.90947e-05
1.84892e-05
1.9324e-05
1.83903e-05
1.83882e-05
1.79346e-05
1.85848e-05
1.77792e-05
1.77774e-05
1.75141e-05
1.79041e-05
1.72683e-05
1.72654e-05
1.71955e-05
1.72797e-05
1.68424e-05
1.68545e-05
1.70568e-05
1.67114e-05
1.65251e-05
1.65211e-05
1.69665e-05
1.61923e-05
1.62924e-05
1.62979e-05
1.70574e-05
1.57285e-05
1.61487e-05
1.6166e-05
1.73582e-05
1.53026e-05
1.61187e-05
1.60955e-05
1.76671e-05
3.63068e-05
3.6291e-05
3.6291e-05
3.63068e-05
3.6291e-05
3.6291e-05
3.6423e-05
3.6423e-05
3.6423e-05
3.6423e-05
3.6291e-05
3.6291e-05
3.63068e-05
3.6291e-05
3.6291e-05
3.63068e-05
3.59957e-05
3.42687e-05
3.58912e-05
3.58912e-05
3.43767e-05
3.43766e-05
3.59957e-05
3.42687e-05
3.58911e-05
3.58912e-05
3.43767e-05
3.43766e-05
3.58912e-05
3.43767e-05
3.43767e-05
3.59957e-05
3.42687e-05
3.58912e-05
3.43767e-05
3.43767e-05
3.42687e-05
3.39623e-05
3.22635e-05
3.38889e-05
3.38889e-05
3.24684e-05
3.24683e-05
3.39623e-05
3.22635e-05
3.38889e-05
3.38889e-05
3.24684e-05
3.24683e-05
3.38889e-05
3.24685e-05
3.24684e-05
3.39623e-05
3.22634e-05
3.38889e-05
3.24685e-05
3.24684e-05
3.22634e-05
3.19522e-05
3.02993e-05
3.20079e-05
3.20078e-05
3.06643e-05
3.06642e-05
3.19522e-05
3.02994e-05
3.2008e-05
3.20078e-05
3.06644e-05
3.06641e-05
3.20079e-05
3.06646e-05
3.06643e-05
3.19522e-05
3.02992e-05
3.2008e-05
3.06645e-05
3.06644e-05
3.02992e-05
2.99885e-05
2.84254e-05
3.0229e-05
3.02288e-05
2.89624e-05
2.89622e-05
2.99886e-05
2.84255e-05
3.02291e-05
3.02287e-05
2.89626e-05
2.89621e-05
3.02289e-05
2.89628e-05
2.89623e-05
2.99884e-05
2.84252e-05
3.02291e-05
2.89627e-05
2.89626e-05
2.84251e-05
2.81228e-05
2.6674e-05
2.85536e-05
2.85534e-05
2.7368e-05
2.73678e-05
2.81227e-05
2.66741e-05
2.85538e-05
2.85533e-05
2.73683e-05
2.73676e-05
2.85535e-05
2.73685e-05
2.73679e-05
2.81225e-05
2.66738e-05
2.85538e-05
2.73684e-05
2.73683e-05
2.66738e-05
2.63908e-05
2.50663e-05
2.69866e-05
2.69864e-05
2.58841e-05
2.58838e-05
2.6391e-05
2.50665e-05
2.69869e-05
2.69862e-05
2.58845e-05
2.58836e-05
2.69865e-05
2.58848e-05
2.5884e-05
2.63907e-05
2.50661e-05
2.69869e-05
2.58846e-05
2.58844e-05
2.50661e-05
2.48074e-05
2.36125e-05
2.55304e-05
2.55301e-05
2.45102e-05
2.451e-05
2.48077e-05
2.36126e-05
2.55308e-05
2.55298e-05
2.45107e-05
2.45097e-05
2.55303e-05
2.45111e-05
2.45102e-05
2.48074e-05
2.36123e-05
2.55307e-05
2.45109e-05
2.45107e-05
2.36123e-05
2.33784e-05
2.23125e-05
2.41842e-05
2.41839e-05
2.32479e-05
2.32475e-05
2.33786e-05
2.23126e-05
2.41847e-05
2.41837e-05
2.32484e-05
2.32473e-05
2.41841e-05
2.32487e-05
2.32478e-05
2.33783e-05
2.23122e-05
2.41847e-05
2.32485e-05
2.32484e-05
2.23122e-05
2.21048e-05
2.11678e-05
2.29497e-05
2.29494e-05
2.20966e-05
2.20963e-05
2.21049e-05
2.11684e-05
2.29503e-05
2.29492e-05
2.20972e-05
2.20961e-05
2.29496e-05
2.20976e-05
2.20965e-05
2.21044e-05
2.11678e-05
2.29503e-05
2.20974e-05
2.20972e-05
2.11678e-05
2.09866e-05
2.01714e-05
2.18259e-05
2.18256e-05
2.10543e-05
2.10539e-05
2.09872e-05
2.01719e-05
2.18266e-05
2.18253e-05
2.1055e-05
2.10537e-05
2.18258e-05
2.10553e-05
2.10542e-05
2.09868e-05
2.01715e-05
2.18266e-05
2.10551e-05
2.1055e-05
2.01698e-05
2.00146e-05
1.93155e-05
2.08104e-05
2.081e-05
2.0118e-05
2.01178e-05
2.00137e-05
1.93152e-05
2.08111e-05
2.08098e-05
2.01189e-05
2.01176e-05
2.08104e-05
2.01192e-05
2.01181e-05
2.00136e-05
1.9315e-05
2.08112e-05
2.0119e-05
2.0119e-05
1.93148e-05
1.91822e-05
1.85911e-05
1.99003e-05
1.99002e-05
1.92856e-05
1.92853e-05
1.91814e-05
1.85914e-05
1.99011e-05
1.98999e-05
1.92864e-05
1.92855e-05
1.99003e-05
1.92868e-05
1.92858e-05
1.91816e-05
1.85917e-05
1.99012e-05
1.92868e-05
1.92865e-05
1.85918e-05
1.84888e-05
1.79986e-05
1.90938e-05
1.90936e-05
1.85552e-05
1.85553e-05
1.84895e-05
1.80019e-05
1.90946e-05
1.90934e-05
1.85556e-05
1.85542e-05
1.90936e-05
1.85565e-05
1.85546e-05
1.84916e-05
1.80018e-05
1.90943e-05
1.85557e-05
1.85557e-05
1.79998e-05
1.79329e-05
1.7538e-05
1.83881e-05
1.83891e-05
1.79211e-05
1.79222e-05
1.79387e-05
1.75438e-05
1.83887e-05
1.83867e-05
1.79221e-05
1.79199e-05
1.83877e-05
1.79233e-05
1.79233e-05
1.79356e-05
1.75381e-05
1.83887e-05
1.79212e-05
1.7924e-05
1.75495e-05
1.7509e-05
1.72073e-05
1.77795e-05
1.77779e-05
1.73828e-05
1.73831e-05
1.75047e-05
1.72164e-05
1.77806e-05
1.7776e-05
1.73837e-05
1.73812e-05
1.77789e-05
1.73843e-05
1.73843e-05
1.74986e-05
1.72207e-05
1.77798e-05
1.73823e-05
1.73853e-05
1.72167e-05
1.71906e-05
1.70183e-05
1.72643e-05
1.72675e-05
1.69415e-05
1.69373e-05
1.72017e-05
1.70064e-05
1.72652e-05
1.72644e-05
1.69422e-05
1.69505e-05
1.72622e-05
1.69381e-05
1.6947e-05
1.72037e-05
1.70971e-05
1.72632e-05
1.69515e-05
1.69478e-05
1.7053e-05
1.70175e-05
1.70266e-05
1.68455e-05
1.68415e-05
1.66055e-05
1.65895e-05
1.69882e-05
1.69883e-05
1.68462e-05
1.68536e-05
1.66061e-05
1.66063e-05
1.68551e-05
1.65903e-05
1.65852e-05
1.70906e-05
1.70304e-05
1.68559e-05
1.66071e-05
1.65858e-05
1.69422e-05
1.70486e-05
1.70313e-05
1.65368e-05
1.65243e-05
1.63337e-05
1.63541e-05
1.70025e-05
1.7114e-05
1.65374e-05
1.65203e-05
1.63343e-05
1.63452e-05
1.65246e-05
1.63546e-05
1.63384e-05
1.7027e-05
1.70419e-05
1.65252e-05
1.63458e-05
1.63391e-05
1.7055e-05
1.70685e-05
1.73599e-05
1.62887e-05
1.6292e-05
1.62006e-05
1.61639e-05
1.71185e-05
1.71863e-05
1.62893e-05
1.62975e-05
1.62012e-05
1.61712e-05
1.62771e-05
1.6164e-05
1.61764e-05
1.71041e-05
1.72092e-05
1.62778e-05
1.61714e-05
1.61771e-05
1.72639e-05
1.73953e-05
1.74092e-05
1.61744e-05
1.61487e-05
1.6074e-05
1.61179e-05
1.72752e-05
1.76383e-05
1.61748e-05
1.61657e-05
1.60746e-05
1.61041e-05
1.61608e-05
1.61178e-05
1.61121e-05
1.73189e-05
1.75736e-05
1.61614e-05
1.61043e-05
1.61128e-05
1.76135e-05
1.74628e-05
1.60737e-05
1.61188e-05
1.77227e-05
1.60743e-05
1.60953e-05
1.61084e-05
1.7604e-05
1.6109e-05
3.73773e-05
3.73765e-05
3.7377e-05
3.7377e-05
3.73701e-05
3.73777e-05
3.73043e-05
3.73768e-05
3.73701e-05
3.73777e-05
3.73768e-05
3.73043e-05
3.73741e-05
3.72959e-05
3.72959e-05
3.58798e-05
4.08724e-05
3.66034e-05
4.51462e-05
5.51147e-05
6.4895e-05
3.58803e-05
4.08714e-05
3.66034e-05
4.51462e-05
3.58932e-05
3.58933e-05
3.58932e-05
3.44005e-05
3.44005e-05
3.44005e-05
3.44005e-05
3.52757e-05
3.56385e-05
3.58929e-05
3.53771e-05
3.60476e-05
3.42362e-05
3.53822e-05
5.51168e-05
6.48993e-05
3.52758e-05
3.58929e-05
3.56381e-05
3.53771e-05
3.60475e-05
3.53822e-05
3.42373e-05
3.65971e-05
3.65977e-05
3.5279e-05
3.40642e-05
3.40633e-05
3.39657e-05
5.13542e-05
3.46793e-05
5.46243e-05
7.65449e-05
8.08613e-05
3.39682e-05
5.1355e-05
3.46789e-05
5.46247e-05
3.39296e-05
3.39297e-05
3.39297e-05
3.25854e-05
3.25854e-05
3.25855e-05
3.25855e-05
3.3054e-05
3.24752e-05
3.39295e-05
3.34087e-05
3.38962e-05
3.15752e-05
3.34678e-05
7.6546e-05
8.08653e-05
3.30541e-05
3.39295e-05
3.24742e-05
3.34087e-05
3.38958e-05
3.34678e-05
3.15771e-05
3.1717e-05
3.17163e-05
3.32637e-05
3.09255e-05
3.09239e-05
3.22496e-05
5.91703e-05
3.29237e-05
6.14373e-05
8.4392e-05
8.50675e-05
3.22518e-05
5.91716e-05
3.29216e-05
6.14404e-05
3.21578e-05
3.21578e-05
3.21578e-05
3.09282e-05
3.09282e-05
3.09281e-05
3.09282e-05
3.07893e-05
3.05138e-05
3.21376e-05
3.15541e-05
3.16368e-05
2.98863e-05
3.17101e-05
8.4394e-05
8.50702e-05
3.07892e-05
3.21376e-05
3.05137e-05
3.1554e-05
3.16364e-05
3.17101e-05
2.98873e-05
3.02179e-05
3.02169e-05
3.12731e-05
3.00048e-05
3.00035e-05
3.07529e-05
6.43573e-05
3.13502e-05
6.57266e-05
8.46119e-05
8.39108e-05
3.07538e-05
6.43568e-05
3.13505e-05
6.57269e-05
3.05346e-05
3.05346e-05
3.05346e-05
2.9398e-05
2.9398e-05
2.93979e-05
2.9398e-05
2.86006e-05
2.91415e-05
3.04694e-05
2.98005e-05
2.9413e-05
2.86745e-05
3.00687e-05
8.46118e-05
8.39136e-05
2.86005e-05
3.04694e-05
2.91421e-05
2.98004e-05
2.94126e-05
3.00687e-05
2.86757e-05
2.99417e-05
2.99407e-05
2.93483e-05
3.00363e-05
3.00353e-05
2.95177e-05
6.73249e-05
3.00008e-05
6.80396e-05
8.22143e-05
8.1221e-05
2.95186e-05
6.7331e-05
3.00011e-05
6.80422e-05
2.90329e-05
2.90328e-05
2.90328e-05
2.79756e-05
2.79756e-05
2.79756e-05
2.79756e-05
2.65675e-05
2.81231e-05
2.89027e-05
2.8152e-05
2.73171e-05
2.77811e-05
2.85257e-05
8.22124e-05
8.12231e-05
2.65678e-05
2.89027e-05
2.81235e-05
2.81519e-05
2.73167e-05
2.85256e-05
2.7782e-05
3.04505e-05
3.04498e-05
2.7533e-05
3.07843e-05
3.07838e-05
2.86037e-05
6.87422e-05
2.89475e-05
6.90391e-05
7.94356e-05
7.85333e-05
2.86047e-05
6.87482e-05
2.89477e-05
6.90415e-05
2.76353e-05
2.76353e-05
2.76353e-05
2.66486e-05
2.66487e-05
2.66486e-05
2.66486e-05
2.47435e-05
2.74063e-05
2.74287e-05
2.66128e-05
2.54142e-05
2.71905e-05
2.70743e-05
7.94324e-05
7.85353e-05
2.47439e-05
2.74286e-05
2.74066e-05
2.66126e-05
2.54137e-05
2.70741e-05
2.71916e-05
3.1555e-05
3.15554e-05
2.58511e-05
3.21328e-05
3.21331e-05
2.80578e-05
6.9256e-05
2.82441e-05
6.93035e-05
7.70053e-05
7.62868e-05
2.80592e-05
6.92518e-05
2.82444e-05
6.931e-05
2.63308e-05
2.63307e-05
2.63307e-05
2.54084e-05
2.54084e-05
2.54083e-05
2.54084e-05
2.31634e-05
2.70013e-05
2.60445e-05
2.51841e-05
2.37464e-05
2.69219e-05
2.57123e-05
7.70033e-05
7.6289e-05
2.3164e-05
2.60444e-05
2.70021e-05
2.51839e-05
2.37459e-05
2.57121e-05
2.69227e-05
3.31532e-05
3.31531e-05
2.432e-05
3.38512e-05
3.38529e-05
2.79136e-05
6.92993e-05
2.79274e-05
6.92754e-05
7.50727e-05
7.45349e-05
2.79147e-05
6.9298e-05
2.79275e-05
6.92834e-05
2.51112e-05
2.51111e-05
2.51111e-05
2.42488e-05
2.42488e-05
2.42486e-05
2.42487e-05
2.18468e-05
2.69356e-05
2.47489e-05
2.38659e-05
2.23373e-05
2.6982e-05
2.44388e-05
7.50721e-05
7.45352e-05
2.18476e-05
2.47488e-05
2.6936e-05
2.38657e-05
2.23363e-05
2.44386e-05
2.69823e-05
3.52744e-05
3.52755e-05
2.29424e-05
3.6032e-05
3.60381e-05
2.81571e-05
6.92118e-05
2.80335e-05
6.91547e-05
7.36092e-05
7.32104e-05
2.81599e-05
6.92009e-05
2.80309e-05
6.91755e-05
2.3971e-05
2.39708e-05
2.39709e-05
2.31652e-05
2.31652e-05
2.3165e-05
2.31651e-05
2.07996e-05
2.71962e-05
2.3541e-05
2.26594e-05
2.11962e-05
2.73594e-05
2.32523e-05
7.36093e-05
7.32108e-05
2.0801e-05
2.35409e-05
2.7198e-05
2.26592e-05
2.11953e-05
2.3252e-05
2.73587e-05
3.74952e-05
3.75015e-05
2.17208e-05
3.84058e-05
3.84075e-05
2.88201e-05
6.91166e-05
2.85558e-05
6.91098e-05
7.25254e-05
7.22461e-05
2.88292e-05
6.9116e-05
2.85534e-05
6.91132e-05
2.29058e-05
2.29056e-05
2.29057e-05
2.21538e-05
2.21538e-05
2.21536e-05
2.21538e-05
2.00279e-05
2.77858e-05
2.24172e-05
2.15629e-05
2.03179e-05
2.80308e-05
2.21492e-05
7.25269e-05
7.2245e-05
2.00273e-05
2.24171e-05
2.77835e-05
2.15627e-05
2.03186e-05
2.2149e-05
2.80342e-05
3.99573e-05
3.99605e-05
2.06518e-05
4.06329e-05
4.06436e-05
2.99409e-05
6.9109e-05
2.94919e-05
6.91213e-05
7.17519e-05
7.15506e-05
2.99535e-05
6.91074e-05
2.94503e-05
6.91282e-05
2.1912e-05
2.19118e-05
2.19119e-05
2.12115e-05
2.12115e-05
2.12113e-05
2.12114e-05
1.95219e-05
2.86449e-05
2.1377e-05
2.05742e-05
1.9703e-05
2.89956e-05
2.113e-05
7.17528e-05
7.15496e-05
1.95222e-05
2.13769e-05
2.86464e-05
2.0574e-05
1.97034e-05
2.11298e-05
2.89989e-05
4.23268e-05
4.23279e-05
1.97256e-05
4.30413e-05
4.30433e-05
3.14284e-05
6.91456e-05
3.08225e-05
6.91901e-05
7.12008e-05
7.10669e-05
3.1452e-05
6.91548e-05
3.08033e-05
6.91859e-05
2.09865e-05
2.09863e-05
2.09864e-05
2.0334e-05
2.0334e-05
2.03338e-05
2.03339e-05
1.928e-05
2.97707e-05
2.042e-05
1.96903e-05
1.93522e-05
3.01995e-05
2.01934e-05
7.1202e-05
7.10659e-05
1.92809e-05
2.04199e-05
2.97802e-05
1.96899e-05
1.93521e-05
2.01932e-05
3.0197e-05
4.46429e-05
4.46573e-05
1.89358e-05
4.54395e-05
4.54512e-05
3.33337e-05
6.92431e-05
3.25173e-05
6.93142e-05
7.08277e-05
7.0718e-05
3.33283e-05
6.92499e-05
3.25359e-05
6.92942e-05
2.01242e-05
2.01239e-05
2.0124e-05
1.95181e-05
1.9518e-05
1.95178e-05
1.95179e-05
1.92991e-05
3.11072e-05
1.95434e-05
1.89094e-05
1.92676e-05
3.15974e-05
1.93364e-05
7.08236e-05
7.07187e-05
1.92986e-05
1.95433e-05
3.11296e-05
1.89084e-05
1.92676e-05
1.93362e-05
3.1585e-05
4.67889e-05
4.67998e-05
1.82763e-05
4.77301e-05
4.77378e-05
3.55343e-05
6.93584e-05
3.46183e-05
6.9389e-05
7.05508e-05
7.04865e-05
3.55239e-05
6.93599e-05
3.46127e-05
6.94076e-05
1.9324e-05
1.93237e-05
1.93238e-05
1.87637e-05
1.87641e-05
1.87636e-05
1.87639e-05
1.95653e-05
3.2612e-05
1.87442e-05
1.82294e-05
1.94499e-05
3.31552e-05
1.8556e-05
7.05413e-05
7.04963e-05
1.95644e-05
1.8744e-05
3.26227e-05
1.82266e-05
1.94485e-05
1.85558e-05
3.31406e-05
4.89279e-05
4.89449e-05
1.77591e-05
4.98546e-05
4.98636e-05
3.79566e-05
6.94551e-05
3.6955e-05
6.9504e-05
7.0352e-05
7.03037e-05
3.79702e-05
6.94719e-05
3.69622e-05
6.95148e-05
1.85848e-05
1.85845e-05
1.85847e-05
1.80687e-05
1.80688e-05
1.80682e-05
1.80689e-05
2.00896e-05
3.42375e-05
1.80197e-05
1.76407e-05
1.98881e-05
3.47938e-05
1.78499e-05
7.03623e-05
7.03046e-05
2.00912e-05
1.80196e-05
3.42406e-05
1.76402e-05
1.98909e-05
1.78498e-05
3.47915e-05
5.0888e-05
5.08983e-05
1.73622e-05
5.15212e-05
5.15337e-05
4.0555e-05
6.95638e-05
3.94884e-05
6.96086e-05
7.02304e-05
7.01583e-05
4.05401e-05
6.95713e-05
3.94909e-05
6.96133e-05
1.79045e-05
1.7904e-05
1.7904e-05
1.74308e-05
1.74306e-05
1.74311e-05
1.74312e-05
2.08642e-05
3.59195e-05
1.73679e-05
1.71559e-05
2.05817e-05
3.6537e-05
1.72161e-05
7.02071e-05
7.01628e-05
2.08611e-05
1.73677e-05
3.58726e-05
1.7158e-05
2.05775e-05
1.72161e-05
3.64629e-05
5.25467e-05
5.25579e-05
1.70837e-05
5.30536e-05
5.30634e-05
4.31379e-05
6.96535e-05
4.21044e-05
6.96933e-05
7.00985e-05
7.00322e-05
4.3118e-05
6.96593e-05
4.21194e-05
6.96988e-05
1.72796e-05
1.72804e-05
1.72807e-05
1.68485e-05
1.68466e-05
1.68485e-05
1.68465e-05
2.18743e-05
3.76114e-05
1.67874e-05
1.6756e-05
2.15067e-05
3.81887e-05
1.66534e-05
7.00757e-05
7.00679e-05
2.18748e-05
1.67881e-05
3.75673e-05
1.67686e-05
2.15147e-05
1.6654e-05
3.81769e-05
5.42104e-05
5.422e-05
1.70105e-05
5.44368e-05
5.4448e-05
4.56677e-05
6.97468e-05
4.46777e-05
6.9773e-05
6.99766e-05
6.99478e-05
4.56518e-05
6.97537e-05
4.47036e-05
6.97782e-05
1.671e-05
1.67097e-05
1.67102e-05
1.63166e-05
1.63189e-05
1.63174e-05
1.63171e-05
2.30962e-05
3.9238e-05
1.62774e-05
1.64692e-05
2.26612e-05
3.98337e-05
1.61606e-05
6.99614e-05
6.99649e-05
2.30938e-05
1.62775e-05
3.93127e-05
1.64434e-05
2.26699e-05
1.61598e-05
3.97802e-05
5.54717e-05
5.54975e-05
1.70436e-05
5.58154e-05
5.58075e-05
4.80098e-05
6.9814e-05
4.70922e-05
6.98547e-05
6.98698e-05
6.98548e-05
4.80108e-05
6.98197e-05
4.70991e-05
6.98597e-05
1.6193e-05
1.61929e-05
1.61914e-05
1.58402e-05
1.5836e-05
1.58368e-05
1.58371e-05
2.44991e-05
4.09549e-05
1.58347e-05
1.62369e-05
2.40237e-05
4.14116e-05
1.57338e-05
6.98646e-05
6.98356e-05
2.45034e-05
1.58347e-05
4.0992e-05
1.62388e-05
2.40244e-05
1.57339e-05
4.14029e-05
5.6449e-05
5.64533e-05
1.70559e-05
5.67496e-05
5.67612e-05
5.01399e-05
6.99054e-05
4.93008e-05
6.99331e-05
6.97823e-05
6.97645e-05
5.01677e-05
6.99107e-05
4.92815e-05
6.99389e-05
1.57251e-05
1.57266e-05
1.57264e-05
1.54035e-05
1.54077e-05
1.54073e-05
1.54077e-05
2.60517e-05
4.24195e-05
1.54593e-05
1.61425e-05
2.55182e-05
4.29378e-05
1.53768e-05
6.98135e-05
6.97587e-05
2.60564e-05
1.546e-05
4.24807e-05
1.61568e-05
2.55145e-05
1.53772e-05
4.30204e-05
5.73736e-05
5.73829e-05
1.74752e-05
5.78309e-05
5.78437e-05
5.1941e-05
6.99569e-05
5.12158e-05
6.99859e-05
6.96831e-05
6.9685e-05
5.19564e-05
6.99627e-05
5.12143e-05
6.99917e-05
1.53081e-05
1.53063e-05
1.53076e-05
2.76857e-05
4.38107e-05
1.51522e-05
1.61244e-05
2.7145e-05
4.42241e-05
1.50859e-05
6.97119e-05
6.96794e-05
2.76855e-05
1.51513e-05
4.38868e-05
1.60979e-05
2.71425e-05
1.50843e-05
4.43019e-05
5.80481e-05
5.8069e-05
1.77841e-05
5.84447e-05
5.84552e-05
3.73741e-05
3.72958e-05
3.72959e-05
5.3112e-05
3.71932e-05
5.31139e-05
3.71932e-05
3.7093e-05
3.72394e-05
3.72405e-05
3.71762e-05
3.71762e-05
3.73701e-05
3.73777e-05
3.73043e-05
3.73768e-05
3.73701e-05
3.73777e-05
3.73043e-05
3.73768e-05
3.71732e-05
3.9412e-05
3.7168e-05
3.67256e-05
3.71732e-05
3.94119e-05
3.7168e-05
3.67257e-05
3.70959e-05
3.71022e-05
3.60246e-05
3.64211e-05
3.71636e-05
3.71109e-05
3.63054e-05
3.70959e-05
3.71022e-05
3.6025e-05
3.64211e-05
3.71636e-05
3.71109e-05
3.63055e-05
3.73741e-05
3.72958e-05
3.72958e-05
5.31122e-05
3.71933e-05
3.7093e-05
3.7241e-05
3.72387e-05
3.71762e-05
3.71762e-05
5.31137e-05
3.71933e-05
3.73701e-05
3.73777e-05
3.73043e-05
3.73768e-05
3.73701e-05
3.73777e-05
3.73768e-05
3.73043e-05
3.71732e-05
3.94125e-05
3.7168e-05
3.67258e-05
3.70958e-05
3.71022e-05
3.60248e-05
3.64211e-05
3.71636e-05
3.71109e-05
3.63055e-05
3.71732e-05
3.94127e-05
3.7168e-05
3.67256e-05
3.70959e-05
3.71022e-05
3.64211e-05
3.60247e-05
3.71109e-05
3.71636e-05
3.63055e-05
3.73773e-05
3.73765e-05
3.7377e-05
3.7377e-05
3.73773e-05
3.73765e-05
3.7377e-05
3.7377e-05
3.73773e-05
3.73765e-05
3.7377e-05
3.7377e-05
3.71133e-05
3.71099e-05
3.64241e-05
3.64241e-05
3.71125e-05
3.71125e-05
3.64261e-05
3.71133e-05
3.71099e-05
3.64241e-05
3.64241e-05
3.71125e-05
3.71125e-05
3.64261e-05
3.71133e-05
3.71099e-05
3.64241e-05
3.64241e-05
3.71125e-05
3.71125e-05
3.64261e-05
3.71133e-05
3.71099e-05
3.64241e-05
3.64241e-05
3.71125e-05
3.71125e-05
3.64261e-05
3.73701e-05
3.73777e-05
3.73768e-05
3.73043e-05
3.70959e-05
3.71022e-05
3.60244e-05
3.64211e-05
3.71636e-05
3.71109e-05
3.63055e-05
3.71732e-05
3.94121e-05
3.7168e-05
3.67258e-05
3.70959e-05
3.71022e-05
3.64211e-05
3.60251e-05
3.71109e-05
3.71636e-05
3.63055e-05
3.71732e-05
3.94127e-05
3.7168e-05
3.67255e-05
3.73741e-05
3.72959e-05
3.72959e-05
5.31144e-05
3.71933e-05
3.7093e-05
3.72396e-05
3.72407e-05
3.71762e-05
3.71762e-05
5.31145e-05
3.71933e-05
3.73701e-05
3.73777e-05
3.73768e-05
3.73043e-05
3.70958e-05
3.71022e-05
3.64211e-05
3.60251e-05
3.71109e-05
3.71636e-05
3.63056e-05
3.70958e-05
3.71022e-05
3.64211e-05
3.60251e-05
3.71109e-05
3.71636e-05
3.63055e-05
3.71732e-05
3.94126e-05
3.7168e-05
3.67256e-05
3.71732e-05
3.94126e-05
3.7168e-05
3.67258e-05
3.7093e-05
3.72406e-05
3.72412e-05
3.71762e-05
3.71762e-05
5.31143e-05
3.71933e-05
5.31142e-05
3.71933e-05
5.51147e-05
6.48948e-05
5.51165e-05
6.48978e-05
3.65983e-05
3.65984e-05
3.5279e-05
3.40626e-05
3.40629e-05
7.47295e-05
6.76706e-05
7.47333e-05
6.76745e-05
3.49729e-05
3.20402e-05
3.20402e-05
3.34712e-05
3.34701e-05
3.58797e-05
4.08717e-05
3.66036e-05
4.51446e-05
3.52756e-05
3.56386e-05
3.58929e-05
3.53771e-05
3.60476e-05
3.42369e-05
3.53822e-05
3.52757e-05
3.56382e-05
3.58929e-05
3.5377e-05
3.60476e-05
3.42377e-05
3.53822e-05
3.56333e-05
5.02148e-05
4.64549e-05
3.48929e-05
3.56336e-05
5.02134e-05
4.64545e-05
3.48934e-05
3.49994e-05
3.48726e-05
3.27309e-05
3.44018e-05
3.38644e-05
3.48857e-05
3.41796e-05
3.49994e-05
3.48725e-05
3.27317e-05
3.44018e-05
3.38634e-05
3.48857e-05
3.41798e-05
3.65975e-05
3.65996e-05
3.5279e-05
3.40641e-05
3.40603e-05
5.51158e-05
6.48974e-05
7.47302e-05
6.76731e-05
3.49729e-05
3.20414e-05
3.20377e-05
3.34693e-05
3.34729e-05
7.47322e-05
6.76722e-05
3.52758e-05
3.56383e-05
3.58929e-05
3.5377e-05
3.60475e-05
3.4237e-05
3.53822e-05
3.588e-05
4.08725e-05
3.66031e-05
4.51476e-05
3.52757e-05
3.58929e-05
3.56386e-05
3.5377e-05
3.60475e-05
3.53822e-05
3.42368e-05
3.5633e-05
5.02147e-05
4.64544e-05
3.4894e-05
3.49993e-05
3.48726e-05
3.27307e-05
3.44018e-05
3.38636e-05
3.48857e-05
3.41799e-05
3.5633e-05
5.02168e-05
4.64561e-05
3.48936e-05
3.49992e-05
3.48725e-05
3.44018e-05
3.27304e-05
3.48857e-05
3.3864e-05
3.41797e-05
3.58798e-05
4.08702e-05
3.66035e-05
4.51466e-05
3.52757e-05
3.58929e-05
3.56382e-05
3.53771e-05
3.60475e-05
3.53822e-05
3.42377e-05
3.58799e-05
4.08733e-05
3.66031e-05
4.51465e-05
3.49994e-05
3.48726e-05
3.27298e-05
3.44018e-05
3.38642e-05
3.48857e-05
3.41798e-05
3.56336e-05
5.02141e-05
4.64523e-05
3.48934e-05
3.49993e-05
3.48726e-05
3.44018e-05
3.27316e-05
3.48857e-05
3.38632e-05
3.41796e-05
3.5633e-05
5.02148e-05
4.64566e-05
3.48932e-05
3.65988e-05
3.65973e-05
3.5279e-05
3.40615e-05
3.40634e-05
5.51169e-05
6.48965e-05
7.47347e-05
6.76735e-05
3.49729e-05
3.20386e-05
3.2042e-05
3.34713e-05
3.34697e-05
7.47316e-05
6.76745e-05
3.52759e-05
3.58929e-05
3.56381e-05
3.5377e-05
3.60475e-05
3.53822e-05
3.42375e-05
3.58805e-05
4.08725e-05
3.66029e-05
4.51469e-05
3.58809e-05
4.08717e-05
3.66033e-05
4.51459e-05
3.49992e-05
3.48726e-05
3.44018e-05
3.27314e-05
3.48857e-05
3.38635e-05
3.41798e-05
3.49992e-05
3.48726e-05
3.44018e-05
3.27314e-05
3.48857e-05
3.3863e-05
3.41799e-05
3.56323e-05
5.02158e-05
4.64565e-05
3.48938e-05
3.56325e-05
5.02153e-05
4.64543e-05
3.48942e-05
5.51165e-05
6.48963e-05
5.51165e-05
6.4897e-05
3.49729e-05
3.20417e-05
3.20404e-05
3.3469e-05
3.34693e-05
7.47308e-05
6.76738e-05
7.47323e-05
6.76754e-05
7.65423e-05
8.08603e-05
7.65465e-05
8.08646e-05
3.1719e-05
3.17168e-05
3.32638e-05
3.09229e-05
3.09233e-05
8.4005e-05
8.1848e-05
8.40087e-05
8.18515e-05
3.29546e-05
3.03086e-05
3.03089e-05
3.07486e-05
3.07449e-05
3.39661e-05
5.13538e-05
3.46794e-05
5.46238e-05
3.30538e-05
3.24751e-05
3.39295e-05
3.34086e-05
3.38961e-05
3.1576e-05
3.34678e-05
3.3054e-05
3.2474e-05
3.39294e-05
3.34086e-05
3.38961e-05
3.15771e-05
3.34678e-05
3.37799e-05
5.83672e-05
5.55979e-05
3.3082e-05
3.37802e-05
5.83686e-05
5.55978e-05
3.30826e-05
3.27692e-05
3.29353e-05
3.06506e-05
3.25726e-05
3.13932e-05
3.30158e-05
3.1918e-05
3.27693e-05
3.29352e-05
3.06514e-05
3.25726e-05
3.13916e-05
3.30158e-05
3.19183e-05
3.17164e-05
3.17201e-05
3.32638e-05
3.09243e-05
3.09197e-05
7.65438e-05
8.08624e-05
8.4006e-05
8.185e-05
3.29546e-05
3.03097e-05
3.0306e-05
3.07452e-05
3.07494e-05
8.40069e-05
8.18493e-05
3.30542e-05
3.24744e-05
3.39295e-05
3.34087e-05
3.38959e-05
3.15765e-05
3.34678e-05
3.39677e-05
5.13558e-05
3.46788e-05
5.46276e-05
3.3054e-05
3.39295e-05
3.2475e-05
3.34086e-05
3.38959e-05
3.34678e-05
3.15754e-05
3.37779e-05
5.83697e-05
5.55999e-05
3.30848e-05
3.2769e-05
3.29353e-05
3.06505e-05
3.25726e-05
3.13916e-05
3.30158e-05
3.19184e-05
3.37777e-05
5.83708e-05
5.55996e-05
3.30842e-05
3.27689e-05
3.29351e-05
3.25726e-05
3.065e-05
3.30158e-05
3.1393e-05
3.19181e-05
3.39666e-05
5.1353e-05
3.46793e-05
5.46237e-05
3.30539e-05
3.39295e-05
3.24743e-05
3.34086e-05
3.38961e-05
3.34678e-05
3.15776e-05
3.39659e-05
5.13557e-05
3.46794e-05
5.46251e-05
3.27694e-05
3.29354e-05
3.06499e-05
3.25726e-05
3.13929e-05
3.30158e-05
3.19183e-05
3.37795e-05
5.83683e-05
5.55972e-05
3.30827e-05
3.27692e-05
3.29352e-05
3.25726e-05
3.06516e-05
3.30158e-05
3.13919e-05
3.19181e-05
3.37794e-05
5.83708e-05
5.56002e-05
3.30825e-05
3.17191e-05
3.17167e-05
3.32637e-05
3.09211e-05
3.09245e-05
7.6546e-05
8.0862e-05
8.40094e-05
8.18519e-05
3.29546e-05
3.03073e-05
3.03103e-05
3.07481e-05
3.07465e-05
8.40065e-05
8.18511e-05
3.30542e-05
3.39295e-05
3.24735e-05
3.34086e-05
3.38959e-05
3.34678e-05
3.15771e-05
3.39679e-05
5.13558e-05
3.46787e-05
5.4626e-05
3.39677e-05
5.13544e-05
3.46789e-05
5.46251e-05
3.27689e-05
3.29353e-05
3.25726e-05
3.06512e-05
3.30158e-05
3.13919e-05
3.19183e-05
3.2769e-05
3.29353e-05
3.25726e-05
3.06511e-05
3.30158e-05
3.13914e-05
3.19186e-05
3.37776e-05
5.83702e-05
5.56e-05
3.30845e-05
3.37781e-05
5.83706e-05
5.55996e-05
3.30851e-05
7.65457e-05
8.08621e-05
7.65476e-05
8.08636e-05
3.29546e-05
3.03106e-05
3.03091e-05
3.07457e-05
3.07449e-05
8.40068e-05
8.18509e-05
8.4008e-05
8.18525e-05
8.43912e-05
8.50673e-05
8.43933e-05
8.50695e-05
3.02203e-05
3.02168e-05
3.12731e-05
3.00039e-05
3.00032e-05
8.48431e-05
8.50719e-05
8.48444e-05
8.50733e-05
3.09611e-05
2.99305e-05
2.99295e-05
2.99712e-05
2.99691e-05
3.22502e-05
5.917e-05
3.29239e-05
6.14398e-05
3.0789e-05
3.05147e-05
3.21375e-05
3.15538e-05
3.16366e-05
2.9887e-05
3.17101e-05
3.07893e-05
3.05131e-05
3.21375e-05
3.15537e-05
3.16368e-05
2.9887e-05
3.17101e-05
3.21139e-05
6.38696e-05
6.20771e-05
3.14719e-05
3.21139e-05
6.38688e-05
6.2073e-05
3.14723e-05
3.05138e-05
3.1106e-05
2.9237e-05
3.08764e-05
2.97757e-05
3.12898e-05
2.96796e-05
3.05139e-05
3.11059e-05
2.92371e-05
3.08764e-05
2.97753e-05
3.12898e-05
2.96798e-05
3.02172e-05
3.02195e-05
3.12732e-05
3.0004e-05
3.00016e-05
8.43917e-05
8.50681e-05
8.48433e-05
8.5072e-05
3.09612e-05
2.993e-05
2.99286e-05
2.99696e-05
2.99699e-05
8.48434e-05
8.50722e-05
3.07893e-05
3.05134e-05
3.21376e-05
3.15539e-05
3.16365e-05
2.98865e-05
3.17101e-05
3.22513e-05
5.91724e-05
3.29214e-05
6.14422e-05
3.07891e-05
3.21375e-05
3.0514e-05
3.15537e-05
3.16364e-05
3.17101e-05
2.98864e-05
3.21125e-05
6.38708e-05
6.20761e-05
3.14729e-05
3.05137e-05
3.11061e-05
2.9237e-05
3.08763e-05
2.97752e-05
3.12899e-05
2.96798e-05
3.21126e-05
6.38769e-05
6.20793e-05
3.14727e-05
3.05136e-05
3.11058e-05
3.08763e-05
2.92366e-05
3.12898e-05
2.97752e-05
2.96797e-05
3.22502e-05
5.91698e-05
3.2924e-05
6.14401e-05
3.07891e-05
3.21375e-05
3.05133e-05
3.15538e-05
3.16366e-05
3.17101e-05
2.98871e-05
3.22499e-05
5.91715e-05
3.29236e-05
6.14418e-05
3.0514e-05
3.11062e-05
2.92364e-05
3.08764e-05
2.9775e-05
3.12899e-05
2.96799e-05
3.21141e-05
6.38742e-05
6.20747e-05
3.14724e-05
3.05137e-05
3.1106e-05
3.08764e-05
2.92371e-05
3.12898e-05
2.97754e-05
2.96796e-05
3.21134e-05
6.38707e-05
6.2074e-05
3.1472e-05
3.02189e-05
3.02182e-05
3.1273e-05
3.00026e-05
3.00051e-05
8.4393e-05
8.50682e-05
8.48446e-05
8.50738e-05
3.09611e-05
2.99294e-05
2.9931e-05
2.997e-05
2.99704e-05
8.48439e-05
8.50726e-05
3.07895e-05
3.21375e-05
3.05128e-05
3.15539e-05
3.16365e-05
3.17101e-05
2.98867e-05
3.22516e-05
5.91718e-05
3.29214e-05
6.14413e-05
3.22521e-05
5.91714e-05
3.29217e-05
6.1442e-05
3.05135e-05
3.11062e-05
3.08763e-05
2.92373e-05
3.12899e-05
2.97756e-05
2.96797e-05
3.05136e-05
3.11061e-05
3.08763e-05
2.92367e-05
3.12898e-05
2.9775e-05
2.96799e-05
3.2112e-05
6.38716e-05
6.20758e-05
3.14725e-05
3.21123e-05
6.38712e-05
6.20744e-05
3.1473e-05
8.43929e-05
8.50684e-05
8.43941e-05
8.50692e-05
3.09611e-05
2.99306e-05
2.99294e-05
2.99704e-05
2.99693e-05
8.48441e-05
8.50728e-05
8.48444e-05
8.50734e-05
8.46119e-05
8.39121e-05
8.46115e-05
8.39135e-05
2.99421e-05
2.99405e-05
2.93484e-05
3.00363e-05
3.00353e-05
8.26235e-05
8.35489e-05
8.26247e-05
8.35483e-05
2.90407e-05
3.03255e-05
3.03196e-05
3.01088e-05
3.01079e-05
3.07533e-05
6.43525e-05
3.13505e-05
6.57222e-05
2.86004e-05
2.91422e-05
3.04694e-05
2.98002e-05
2.9413e-05
2.86754e-05
3.00687e-05
2.86005e-05
2.9142e-05
3.04694e-05
2.98e-05
2.9413e-05
2.86755e-05
3.00687e-05
3.06423e-05
6.70876e-05
6.60785e-05
3.00988e-05
3.06427e-05
6.70817e-05
6.60782e-05
3.0099e-05
2.83444e-05
2.9378e-05
2.81916e-05
2.92854e-05
2.85943e-05
2.96741e-05
2.75608e-05
2.83444e-05
2.93778e-05
2.81916e-05
2.92854e-05
2.85945e-05
2.96741e-05
2.75608e-05
2.9941e-05
2.99408e-05
2.93486e-05
3.00358e-05
3.00345e-05
8.4611e-05
8.39123e-05
8.26226e-05
8.35495e-05
2.90407e-05
3.03238e-05
3.03185e-05
3.01084e-05
3.01081e-05
8.26245e-05
8.35486e-05
2.86006e-05
2.91418e-05
3.04694e-05
2.98003e-05
2.94128e-05
2.86754e-05
3.00687e-05
3.07534e-05
6.43576e-05
3.13504e-05
6.57338e-05
2.86005e-05
3.04693e-05
2.91417e-05
2.97999e-05
2.94127e-05
3.00686e-05
2.86749e-05
3.06426e-05
6.70888e-05
6.60815e-05
3.00998e-05
2.83442e-05
2.93781e-05
2.81915e-05
2.92854e-05
2.85943e-05
2.96741e-05
2.7561e-05
3.06423e-05
6.70928e-05
6.60764e-05
3.00996e-05
2.8344e-05
2.93777e-05
2.92853e-05
2.81908e-05
2.9674e-05
2.85941e-05
2.75609e-05
3.07533e-05
6.43512e-05
3.13506e-05
6.57257e-05
2.86002e-05
3.04694e-05
2.91419e-05
2.98001e-05
2.94127e-05
3.00687e-05
2.86753e-05
3.07529e-05
6.43513e-05
3.13501e-05
6.57222e-05
2.83443e-05
2.93783e-05
2.81904e-05
2.92855e-05
2.85939e-05
2.96741e-05
2.75608e-05
3.06426e-05
6.70808e-05
6.60723e-05
3.0099e-05
2.83441e-05
2.93779e-05
2.92854e-05
2.81912e-05
2.96741e-05
2.85943e-05
2.75604e-05
3.06422e-05
6.70787e-05
6.60751e-05
3.00985e-05
2.99412e-05
2.99419e-05
2.93483e-05
3.00355e-05
3.00367e-05
8.46126e-05
8.39114e-05
8.26251e-05
8.35484e-05
2.90406e-05
3.03198e-05
3.03211e-05
3.01087e-05
3.01092e-05
8.26233e-05
8.35499e-05
2.86007e-05
3.04694e-05
2.91416e-05
2.98003e-05
2.94127e-05
3.00687e-05
2.8675e-05
3.07535e-05
6.4356e-05
3.13501e-05
6.57279e-05
3.0754e-05
6.43521e-05
3.13502e-05
6.57229e-05
2.8344e-05
2.93782e-05
2.92854e-05
2.81917e-05
2.96741e-05
2.85945e-05
2.75609e-05
2.8344e-05
2.93781e-05
2.92854e-05
2.8191e-05
2.96741e-05
2.8594e-05
2.7561e-05
3.06423e-05
6.70897e-05
6.608e-05
3.00994e-05
3.06427e-05
6.70799e-05
6.60764e-05
3.00997e-05
8.46126e-05
8.39111e-05
8.4613e-05
8.39109e-05
2.90406e-05
3.03203e-05
3.03195e-05
3.01091e-05
3.01082e-05
8.26227e-05
8.35504e-05
8.26221e-05
8.35505e-05
8.22137e-05
8.1221e-05
8.22124e-05
8.12219e-05
3.04472e-05
3.04473e-05
2.75332e-05
3.08048e-05
3.0799e-05
7.98354e-05
8.08062e-05
7.9836e-05
8.08042e-05
2.72388e-05
3.13908e-05
3.13835e-05
3.09124e-05
3.09145e-05
2.95179e-05
6.73295e-05
3.00009e-05
6.8033e-05
2.65676e-05
2.81235e-05
2.89026e-05
2.81515e-05
2.73171e-05
2.77827e-05
2.85256e-05
2.65676e-05
2.81236e-05
2.89026e-05
2.81513e-05
2.73172e-05
2.77821e-05
2.85256e-05
2.94333e-05
6.86668e-05
6.81859e-05
2.90173e-05
2.94335e-05
6.86586e-05
6.81937e-05
2.90173e-05
2.63384e-05
2.77563e-05
2.74486e-05
2.77886e-05