/*--------------------------------*- C++ -*----------------------------------*\
| =========                 |                                                 |
| \\      /  F ield         | OpenFOAM: The Open Source CFD Toolbox           |
|  \\    /   O peration     | Version:  v1906                                 |
|   \\  /    A nd           | Web:      www.OpenFOAM.com                      |
|    \\/     M anipulation  |                                                 |
\*---------------------------------------------------------------------------*/
FoamFile
{
    version     2.0;
    format      ascii;
    class       volScalarField;
    location    "875";
    object      nut;
}
// * * * * * * * * * * * * * * * * * * * * * * * * * * * * * * * * * * * * * //

dimensions      [0 2 -1 0 0 0 0];


internalField   nonuniform List<scalar> 
43024
(
0.000233973
0.000233116
0.000233116
0.000233423
0.000232532
0.000227802
0.000227801
0.000223867
0.000230516
0.00022032
0.000220318
0.000209109
0.000227799
0.000211665
0.000211661
0.000193785
0.000224433
0.00020265
0.000202644
0.00017971
0.000220552
0.000193772
0.000193765
0.000167339
0.000216304
0.000185275
0.000185267
0.000156587
0.00021182
0.000177234
0.000177226
0.000147205
0.000207207
0.000169689
0.00016968
0.000138952
0.000202545
0.000162612
0.000162603
0.000131607
0.00019789
0.000155949
0.000155941
0.000124956
0.000193276
0.00014965
0.000149642
0.000118831
0.000188683
0.000143669
0.000143658
0.000113163
0.000184153
0.000137978
0.00013794
0.000107947
0.000179707
0.00013246
0.000132425
0.000103145
0.000175338
0.000127229
0.000127177
9.83791e-05
0.000171032
0.000122089
0.000122255
9.46262e-05
0.00016682
0.000117429
0.000117357
9.05008e-05
0.000162585
0.000112927
0.000112989
8.75123e-05
0.000158477
0.000108714
0.000108934
8.59187e-05
0.000154168
0.000105175
0.000104858
8.37627e-05
0.000234266
0.000234448
0.000234449
0.000234267
0.000234448
0.000234449
0.000234274
0.000234274
0.000234274
0.000234274
0.000234448
0.000234448
0.000234266
0.000234448
0.000234448
0.000234266
0.000233423
0.000226204
0.000233116
0.000233114
0.000229361
0.000229357
0.000233423
0.000226205
0.000233114
0.000233114
0.000229359
0.000229356
0.000233116
0.000229364
0.000229361
0.000233423
0.000226202
0.000233114
0.000229363
0.000229359
0.000226202
0.000223867
0.00021223
0.000227799
0.000227794
0.000222332
0.000222326
0.000223868
0.000212234
0.000227797
0.000227792
0.000222332
0.000222323
0.000227798
0.000222339
0.000222331
0.000223866
0.000212227
0.000227797
0.000222336
0.000222331
0.000212228
0.000209111
0.00019706
0.000220313
0.000220307
0.000213879
0.000213874
0.000209112
0.000197066
0.000220314
0.000220304
0.000213883
0.00021387
0.000220311
0.00021389
0.000213877
0.000209108
0.000197057
0.000220313
0.000213886
0.000213882
0.000197057
0.000193788
0.000182877
0.000211654
0.000211648
0.00020489
0.000204884
0.000193792
0.000182883
0.000211658
0.000211643
0.000204898
0.000204879
0.000211651
0.000204905
0.000204887
0.000193784
0.000182872
0.000211657
0.000204899
0.000204896
0.000182872
0.000179713
0.000170268
0.000202634
0.000202628
0.000195943
0.000195937
0.000179716
0.000170274
0.000202643
0.000202622
0.000195954
0.000195931
0.000202631
0.000195962
0.00019594
0.000179707
0.000170263
0.000202641
0.000195955
0.000195953
0.000170263
0.000167344
0.000159242
0.000193752
0.000193747
0.000187336
0.000187331
0.000167349
0.000159249
0.000193765
0.00019374
0.000187351
0.000187324
0.00019375
0.000187359
0.000187334
0.000167339
0.000159238
0.000193764
0.000187351
0.00018735
0.000159238
0.000156591
0.000149613
0.000185253
0.000185247
0.000179173
0.000179168
0.000156597
0.000149619
0.000185268
0.00018524
0.000179191
0.00017916
0.000185249
0.000179198
0.00017917
0.000156587
0.000149608
0.000185267
0.00017919
0.00017919
0.000149608
0.000147212
0.000141108
0.000177209
0.000177203
0.000171501
0.000171495
0.000147218
0.000141113
0.000177227
0.000177196
0.000171522
0.000171488
0.000177205
0.000171529
0.000171499
0.000147207
0.0001411
0.000177226
0.00017152
0.000171521
0.000141101
0.000138954
0.000133542
0.00016966
0.000169656
0.000164309
0.000164305
0.000138958
0.000133555
0.000169682
0.000169647
0.000164332
0.000164297
0.000169658
0.00016434
0.000164307
0.000138946
0.00013354
0.000169681
0.000164331
0.000164332
0.00013354
0.000131624
0.000126693
0.000162582
0.000162576
0.000157548
0.000157542
0.000131635
0.000126704
0.000162605
0.000162568
0.000157573
0.000157535
0.000162579
0.000157579
0.000157546
0.000131623
0.000126691
0.000162604
0.000157571
0.000157572
0.000126671
0.00012497
0.000120371
0.000155918
0.000155911
0.000151158
0.000151154
0.000124964
0.000120373
0.000155943
0.000155903
0.000151186
0.000151147
0.000155917
0.000151193
0.000151159
0.000124955
0.000120362
0.000155943
0.000151185
0.000151187
0.00012036
0.000118828
0.000114431
0.000149613
0.000149611
0.000145097
0.000145092
0.000118822
0.000114442
0.000149641
0.000149602
0.000145124
0.000145089
0.000149613
0.000145134
0.000145101
0.000118817
0.000114436
0.000149642
0.000145128
0.000145126
0.000114439
0.000113159
0.000108842
0.000143632
0.000143627
0.000139328
0.000139328
0.000113175
0.000108886
0.000143659
0.000143619
0.000139351
0.000139307
0.000143628
0.00013937
0.000139321
0.000113191
0.000108876
0.000143654
0.00013935
0.000139352
0.000108852
0.000107932
0.000103684
0.000137925
0.000137938
0.000133771
0.000133785
0.000108004
0.00010376
0.000137949
0.000137896
0.000133803
0.000133746
0.000137918
0.000133828
0.000133805
0.000107958
0.000103683
0.000137949
0.00013379
0.000133832
0.000103817
0.00010309
9.90034e-05
0.000132442
0.000132414
0.00012843
0.00012843
0.000103046
9.91129e-05
0.000132475
0.000132381
0.00012846
0.000128397
0.000132433
0.000128478
0.000128453
0.000102966
9.91529e-05
0.000132462
0.00012844
0.000128485
9.91066e-05
9.83275e-05
9.49008e-05
0.000127144
0.000127186
0.00012335
0.000123283
9.8459e-05
9.4774e-05
0.000127174
0.000127134
0.000123376
0.000123468
0.000127114
0.00012333
0.000123433
9.84734e-05
9.57782e-05
0.000127146
0.000123514
0.000123461
9.52837e-05
9.41939e-05
9.20178e-05
0.000122103
0.00012204
0.000118667
0.000118436
9.38752e-05
9.16196e-05
0.00012213
0.00012221
0.000118691
0.000118665
0.000122247
0.000118485
0.000118382
9.50051e-05
9.2052e-05
0.000122275
0.00011871
0.000118407
9.11065e-05
9.13823e-05
8.82487e-05
0.000117562
0.00011738
0.000113875
0.000114155
9.09021e-05
8.91116e-05
0.000117586
0.000117311
0.0001139
0.000114021
0.000117392
0.000114202
0.000113948
9.11411e-05
8.83538e-05
0.000117418
0.000114068
0.000113973
8.8491e-05
8.76238e-05
8.70778e-05
0.000112839
0.00011288
0.000110035
0.000109531
8.81486e-05
8.53507e-05
0.000112862
0.000112944
0.000110058
0.000109617
0.000112685
0.000109576
0.000109711
8.79874e-05
8.55623e-05
0.00011271
0.000109661
0.000109736
8.61058e-05
8.63004e-05
8.25108e-05
0.000109026
0.00010867
0.000105411
0.000105978
8.51115e-05
8.4709e-05
0.000109047
0.000108889
0.000105432
0.000105788
0.000108845
0.000106025
0.000105917
8.55322e-05
8.40801e-05
0.000108869
0.000105834
0.000105941
8.44598e-05
8.18336e-05
0.000104549
0.000105128
8.43066e-05
0.00010457
0.000104812
0.000105006
8.31707e-05
0.00010503
0.00023473
0.000234746
0.000234729
0.000234729
0.000235117
0.000234798
0.000234701
0.000234727
0.000235118
0.000234798
0.000234727
0.000234701
0.000234867
0.000233566
0.000233566
0.000104651
3.87412e-05
0.000129118
3.98247e-05
2.16834e-05
2.28313e-05
0.000104643
3.87372e-05
0.000129114
3.98213e-05
0.000233973
0.000233973
0.000233973
0.000232935
0.000232935
0.000232935
0.000232935
0.000206196
9.36759e-05
0.000233969
0.000231994
0.000222615
8.72214e-05
0.000233611
2.16823e-05
2.28306e-05
0.00020619
0.000233969
9.36751e-05
0.000231994
0.000222622
0.000233611
8.72275e-05
4.78013e-05
4.77895e-05
0.000231345
4.40184e-05
4.40089e-05
7.25678e-05
4.24343e-05
8.14028e-05
4.37632e-05
2.47749e-05
2.54634e-05
7.25582e-05
4.24307e-05
8.13976e-05
4.37593e-05
0.000232532
0.000232532
0.000232532
0.000231084
0.000231084
0.000231083
0.000231084
0.000167491
7.94402e-05
0.000232081
0.000226097
0.000180211
7.45067e-05
0.000231376
2.47731e-05
2.54619e-05
0.000167486
0.000232081
7.94343e-05
0.000226096
0.000180205
0.000231375
7.451e-05
3.91645e-05
3.91543e-05
0.000219593
3.65759e-05
3.65651e-05
5.62764e-05
4.55469e-05
6.11321e-05
4.64113e-05
2.60134e-05
2.61173e-05
5.62808e-05
4.55441e-05
6.11274e-05
4.64088e-05
0.000230516
0.000230515
0.000230515
0.000228543
0.000228543
0.000228541
0.000228542
0.000138601
6.74265e-05
0.000228643
0.000218231
0.000148066
6.35182e-05
0.000227537
2.60112e-05
2.61152e-05
0.000138596
0.000228643
6.74206e-05
0.000218228
0.000148057
0.000227534
6.35144e-05
3.32184e-05
3.32098e-05
0.000204613
3.19922e-05
3.19832e-05
4.69654e-05
4.75014e-05
4.99088e-05
4.80039e-05
2.60472e-05
2.59391e-05
4.69643e-05
4.74971e-05
4.99098e-05
4.79999e-05
0.000227799
0.000227797
0.000227798
0.000225328
0.000225329
0.000225326
0.000225327
0.000117548
5.82049e-05
0.000223721
0.00020942
0.000124601
5.54856e-05
0.00022231
2.60447e-05
2.5937e-05
0.000117545
0.000223719
5.82036e-05
0.000209415
0.000124596
0.000222306
5.54831e-05
3.06182e-05
3.06103e-05
0.000189778
3.03048e-05
3.0297e-05
4.14281e-05
4.85848e-05
4.32442e-05
4.88415e-05
2.56756e-05
2.55199e-05
4.14271e-05
4.85826e-05
4.32444e-05
4.88379e-05
0.000224433
0.000224431
0.000224432
0.000221562
0.000221563
0.000221559
0.000221561
0.000102112
5.18774e-05
0.000217771
0.000200404
0.00010738
5.00767e-05
0.000216181
2.56728e-05
2.55179e-05
0.000102112
0.000217769
5.18759e-05
0.000200398
0.000107375
0.000216177
5.00741e-05
3.01976e-05
3.01905e-05
0.000176369
3.04034e-05
3.03965e-05
3.81554e-05
4.90936e-05
3.92431e-05
4.91992e-05
2.52378e-05
2.50939e-05
3.81547e-05
4.90914e-05
3.92427e-05
4.91957e-05
0.000220552
0.000220549
0.00022055
0.000217392
0.000217393
0.000217389
0.000217391
9.04956e-05
4.77386e-05
0.000211269
0.000191607
9.44612e-05
4.66117e-05
0.000209603
2.5235e-05
2.50921e-05
9.04967e-05
0.000211267
4.77372e-05
0.0001916
9.44554e-05
0.000209598
4.66103e-05
3.09547e-05
3.09493e-05
0.000164561
3.15698e-05
3.15636e-05
3.63737e-05
4.92761e-05
3.69391e-05
4.92931e-05
2.48486e-05
2.47324e-05
3.63738e-05
4.92703e-05
3.69389e-05
4.92915e-05
0.000216305
0.0002163
0.000216302
0.000212957
0.000212958
0.000212952
0.000212955
8.15881e-05
4.51681e-05
0.000204579
0.00018322
8.46727e-05
4.45563e-05
0.000202907
2.48461e-05
2.47306e-05
8.15898e-05
0.000204576
4.51687e-05
0.000183212
8.46672e-05
0.000202902
4.45537e-05
3.24439e-05
3.24363e-05
0.000154267
3.3203e-05
3.31981e-05
3.56762e-05
4.92917e-05
3.58208e-05
4.92831e-05
2.45348e-05
2.44468e-05
3.56763e-05
4.92871e-05
3.58205e-05
4.92817e-05
0.000211821
0.000211816
0.000211818
0.000208367
0.000208368
0.000208362
0.000208365
7.46473e-05
4.37752e-05
0.000197938
0.000175301
7.71217e-05
4.35238e-05
0.000196304
2.45326e-05
2.44447e-05
7.46501e-05
0.000197935
4.37741e-05
0.000175292
7.71132e-05
0.000196298
4.35197e-05
3.47101e-05
3.47036e-05
0.000145221
3.54958e-05
3.54975e-05
3.57561e-05
4.92603e-05
3.56427e-05
4.924e-05
2.42944e-05
2.42286e-05
3.57612e-05
4.92527e-05
3.5636e-05
4.92435e-05
0.000207208
0.000207202
0.000207204
0.000203711
0.000203712
0.000203705
0.000203708
6.91707e-05
4.32327e-05
0.000191483
0.000167878
7.121e-05
4.32479e-05
0.000189901
2.42924e-05
2.42266e-05
6.91781e-05
0.00019148
4.32347e-05
0.000167869
7.12023e-05
0.000189895
4.32427e-05
3.69829e-05
3.69848e-05
0.000137216
3.80009e-05
3.79917e-05
3.65501e-05
4.9227e-05
3.62092e-05
4.92242e-05
2.4115e-05
2.40684e-05
3.65708e-05
4.92225e-05
3.62033e-05
4.92215e-05
0.000202546
0.000202539
0.000202542
0.000199049
0.00019905
0.000199043
0.000199047
6.48706e-05
4.34005e-05
0.00018524
0.000160909
6.65071e-05
4.35553e-05
0.000183717
2.41131e-05
2.40662e-05
6.48649e-05
0.000185237
4.33926e-05
0.0001609
6.65096e-05
0.000183711
4.35605e-05
3.96094e-05
3.96033e-05
0.000130042
4.01431e-05
4.01495e-05
3.80751e-05
4.92244e-05
3.74183e-05
4.9229e-05
2.3986e-05
2.39524e-05
3.81039e-05
4.92194e-05
3.73139e-05
4.9227e-05
0.000197891
0.000197883
0.000197887
0.000194421
0.000194423
0.000194415
0.000194419
6.15118e-05
4.40518e-05
0.000179254
0.000154345
6.27566e-05
4.44121e-05
0.000177803
2.39841e-05
2.39502e-05
6.15116e-05
0.000179252
4.40543e-05
0.000154335
6.27571e-05
0.000177796
4.4417e-05
4.20336e-05
4.20216e-05
0.000123464
4.2653e-05
4.26399e-05
4.00672e-05
4.92374e-05
3.91703e-05
4.92531e-05
2.38937e-05
2.38712e-05
4.01238e-05
4.92365e-05
3.91213e-05
4.9247e-05
0.000193277
0.000193269
0.000193273
0.00018983
0.000189831
0.000189824
0.000189828
5.90084e-05
4.51836e-05
0.00017355
0.000148127
5.98575e-05
4.56833e-05
0.000172165
2.3892e-05
2.3869e-05
5.90111e-05
0.000173548
4.52092e-05
0.000148115
5.98541e-05
0.000172158
4.56706e-05
4.44129e-05
4.44255e-05
0.000117342
4.52293e-05
4.52336e-05
4.26666e-05
4.9272e-05
4.13867e-05
4.92975e-05
2.3831e-05
2.38126e-05
4.26416e-05
4.927e-05
4.14362e-05
4.92859e-05
0.000188685
0.000188676
0.00018868
0.000185276
0.000185276
0.000185268
0.000185272
5.72163e-05
4.6677e-05
0.000168098
0.000142223
5.77302e-05
4.72877e-05
0.000166771
2.38284e-05
2.38106e-05
5.72097e-05
0.000168096
4.6742e-05
0.000142202
5.77271e-05
0.000166764
4.72425e-05
4.65898e-05
4.65939e-05
0.000111556
4.77351e-05
4.77299e-05
4.56032e-05
4.93136e-05
4.42274e-05
4.93241e-05
2.37844e-05
2.37735e-05
4.55663e-05
4.93091e-05
4.4218e-05
4.93261e-05
0.000184154
0.000184144
0.000184148
0.000180807
0.000180815
0.0001808
0.000180809
5.60285e-05
4.84733e-05
0.000162863
0.000136595
5.63334e-05
4.9188e-05
0.000161584
2.37807e-05
2.37732e-05
5.60199e-05
0.000162859
4.85062e-05
0.000136546
5.63226e-05
0.000161576
4.91372e-05
4.89238e-05
4.89391e-05
0.000106285
5.01264e-05
5.01227e-05
4.88041e-05
4.93474e-05
4.73291e-05
4.9365e-05
2.37508e-05
2.37428e-05
4.8829e-05
4.93489e-05
4.73527e-05
4.93642e-05
0.000179709
0.000179698
0.000179703
0.000176421
0.000176424
0.000176407
0.000176424
5.55131e-05
5.0509e-05
0.00015781
0.000131108
5.55934e-05
5.1239e-05
0.000156574
2.37504e-05
2.3741e-05
5.55188e-05
0.000157809
5.0518e-05
0.000131093
5.56063e-05
0.000156569
5.1226e-05
5.11298e-05
5.11305e-05
0.000101353
5.18322e-05
5.18345e-05
5.22804e-05
4.9386e-05
5.07064e-05
4.94021e-05
2.37301e-05
2.37182e-05
5.22316e-05
4.93842e-05
5.07171e-05
4.93992e-05
0.000175345
0.000175331
0.000175333
0.000172108
0.000172107
0.000172111
0.000172114
5.56446e-05
5.26684e-05
0.000152916
0.00012597
5.55186e-05
5.35813e-05
0.000151718
2.37243e-05
2.37169e-05
5.56254e-05
0.000152912
5.25275e-05
0.000125991
5.54927e-05
0.000151713
5.33593e-05
5.29716e-05
5.2974e-05
9.67455e-05
5.35083e-05
5.35044e-05
5.56895e-05
4.9418e-05
5.42094e-05
4.94321e-05
2.37081e-05
2.36967e-05
5.5628e-05
4.94155e-05
5.4252e-05
4.94294e-05
0.000171033
0.000171041
0.000171051
0.000167869
0.000167834
0.000167866
0.000167828
5.63889e-05
5.48978e-05
0.000148162
0.000120931
5.60181e-05
5.57125e-05
0.000147003
2.37019e-05
2.37008e-05
5.63884e-05
0.000148175
5.47642e-05
0.000121101
5.60567e-05
0.000147009
5.56774e-05
5.50575e-05
5.50558e-05
9.34393e-05
5.5107e-05
5.51061e-05
5.90871e-05
4.94511e-05
5.76673e-05
4.94606e-05
2.36873e-05
2.36825e-05
5.90351e-05
4.9449e-05
5.77375e-05
4.94578e-05
0.000166794
0.000166781
0.000166793
0.000163629
0.000163677
0.000163639
0.000163637
5.76945e-05
5.70372e-05
0.000143546
0.000116434
5.71443e-05
5.79538e-05
0.000142415
2.36827e-05
2.36832e-05
5.76793e-05
0.000143547
5.72472e-05
0.000116055
5.71846e-05
0.000142396
5.77915e-05
5.65509e-05
5.65819e-05
9.03793e-05
5.6909e-05
5.68687e-05
6.22489e-05
4.94751e-05
6.09176e-05
4.94896e-05
2.36695e-05
2.36663e-05
6.22409e-05
4.94721e-05
6.09396e-05
4.94865e-05
0.000162603
0.000162593
0.000162567
0.00015951
0.000159428
0.000159436
0.000159447
5.94966e-05
5.95772e-05
0.000139018
0.000111695
5.88668e-05
6.01537e-05
0.000137898
2.36665e-05
2.36614e-05
5.95148e-05
0.000139016
5.96865e-05
0.000111706
5.88675e-05
0.000137895
6.0122e-05
5.76482e-05
5.76354e-05
8.6341e-05
5.79959e-05
5.79955e-05
6.52049e-05
4.95072e-05
6.39479e-05
4.9517e-05
2.36543e-05
2.36515e-05
6.52665e-05
4.95045e-05
6.39008e-05
4.95147e-05
0.000158411
0.000158433
0.000158435
0.00015522
0.000155308
0.000155291
0.000155305
6.17545e-05
6.15812e-05
0.000134593
0.000107926
6.09209e-05
6.23934e-05
0.000133534
2.36579e-05
2.36486e-05
6.17742e-05
0.000134603
6.17544e-05
0.000108104
6.09002e-05
0.000133537
6.2629e-05
5.88099e-05
5.88069e-05
8.57179e-05
5.95288e-05
5.95309e-05
6.7697e-05
4.95253e-05
6.6588e-05
4.9535e-05
2.36377e-05
2.3638e-05
6.77263e-05
4.95233e-05
6.65874e-05
4.95332e-05
0.000154282
0.000154237
0.000154269
6.42651e-05
6.3566e-05
0.000130306
0.000104339
6.3427e-05
6.41452e-05
0.000129277
2.36407e-05
2.36349e-05
6.42618e-05
0.00013029
6.37834e-05
0.000103981
6.34124e-05
0.000129246
6.43685e-05
5.95892e-05
5.96101e-05
8.33893e-05
6.0226e-05
6.02234e-05
0.000234867
0.000233564
0.000233566
2.32575e-05
0.000214159
2.32564e-05
0.000214162
0.000234435
5.13348e-05
5.13185e-05
0.00022999
0.000229991
0.000235117
0.000234798
0.000234701
0.000234727
0.000235117
0.000234798
0.000234701
0.000234727
0.000234477
4.02624e-05
0.000218814
0.000147834
0.000234477
4.02619e-05
0.000218814
0.000147842
0.000233889
0.000234474
0.000100094
0.000234271
0.000233358
0.000234597
0.000228477
0.000233889
0.000234474
0.000100083
0.000234271
0.000233359
0.000234597
0.000228476
0.000234867
0.000233565
0.000233565
2.32572e-05
0.000214167
0.000234435
5.13293e-05
5.132e-05
0.000229989
0.000229991
2.32571e-05
0.000214169
0.000235118
0.000234798
0.000234701
0.000234727
0.000235117
0.000234798
0.000234727
0.000234701
0.000234477
4.02592e-05
0.000218815
0.000147811
0.000233889
0.000234474
0.000100072
0.00023427
0.000233359
0.000234597
0.000228474
0.000234477
4.02587e-05
0.000218815
0.000147826
0.000233889
0.000234474
0.000234271
0.000100079
0.000234597
0.000233359
0.000228476
0.00023473
0.000234746
0.000234729
0.000234729
0.00023473
0.000234746
0.000234729
0.000234729
0.00023473
0.000234746
0.000234729
0.000234729
0.000234591
0.000234574
0.000234253
0.000234253
0.000234592
0.000234592
0.000234252
0.000234591
0.000234574
0.000234253
0.000234253
0.000234592
0.000234592
0.000234253
0.000234591
0.000234574
0.000234253
0.000234253
0.000234592
0.000234592
0.000234252
0.000234591
0.000234574
0.000234253
0.000234253
0.000234592
0.000234592
0.000234253
0.000235117
0.000234798
0.000234727
0.000234701
0.000233889
0.000234474
0.000100075
0.000234271
0.000233359
0.000234597
0.000228475
0.000234477
4.02599e-05
0.000218817
0.000147827
0.000233889
0.000234474
0.000234271
0.000100089
0.000234597
0.000233359
0.000228476
0.000234477
4.02595e-05
0.000218816
0.000147834
0.000234867
0.000233566
0.000233566
2.32565e-05
0.000214163
0.000234435
5.13198e-05
5.13261e-05
0.000229991
0.000229993
2.32569e-05
0.000214171
0.000235118
0.000234798
0.000234727
0.000234701
0.000233889
0.000234474
0.00023427
0.000100084
0.000234596
0.00023336
0.000228476
0.000233889
0.000234474
0.00023427
0.000100074
0.000234597
0.000233359
0.000228474
0.000234477
4.0259e-05
0.000218818
0.000147812
0.000234477
4.02589e-05
0.000218813
0.000147799
0.000234435
5.13299e-05
5.13173e-05
0.000229992
0.000229992
2.3257e-05
0.00021417
2.32564e-05
0.000214164
2.16838e-05
2.28324e-05
2.16825e-05
2.28308e-05
4.78053e-05
4.77914e-05
0.000231345
4.40209e-05
4.40079e-05
2.44812e-05
2.33048e-05
2.44795e-05
2.33036e-05
0.000229667
4.00647e-05
4.00533e-05
4.31026e-05
4.30864e-05
0.000104665
3.87404e-05
0.000129104
3.98228e-05
0.0002062
9.3686e-05
0.000233969
0.000231993
0.000222609
8.72296e-05
0.000233611
0.000206202
9.36694e-05
0.000233969
0.000231989
0.000222606
8.72165e-05
0.000233611
9.8425e-05
4.19624e-05
4.03776e-05
8.55717e-05
9.84178e-05
4.19607e-05
4.03765e-05
8.55738e-05
0.000200084
0.000230759
8.08046e-05
0.000232683
8.56707e-05
0.000233189
0.000185633
0.000200083
0.000230754
8.07965e-05
0.000232682
8.56536e-05
0.000233188
0.000185637
4.77939e-05
4.78043e-05
0.000231346
4.40134e-05
4.40129e-05
2.16834e-05
2.28325e-05
2.44802e-05
2.33042e-05
0.000229667
4.00585e-05
4.00544e-05
4.30882e-05
4.31007e-05
2.44815e-05
2.33049e-05
0.00020619
9.3664e-05
0.000233969
0.000231991
0.000222608
8.72105e-05
0.000233611
0.000104646
3.87367e-05
0.000129133
3.98207e-05
0.000206191
0.000233969
9.36684e-05
0.000231989
0.000222613
0.000233611
8.72097e-05
9.84218e-05
4.19586e-05
4.0374e-05
8.55666e-05
0.000200082
0.000230756
8.07904e-05
0.000232682
8.56538e-05
0.000233189
0.000185632
9.84228e-05
4.19579e-05
4.03733e-05
8.5565e-05
0.000200082
0.000230753
0.000232682
8.07859e-05
0.000233188
8.56526e-05
0.000185628
0.000104651
3.87377e-05
0.000129123
3.98236e-05
0.000206196
0.000233969
9.36767e-05
0.000231993
0.000222619
0.000233611
8.72248e-05
0.000104649
3.87384e-05
0.000129143
3.98218e-05
0.000200086
0.00023076
8.07993e-05
0.000232683
8.56695e-05
0.000233189
0.000185634
9.84241e-05
4.19609e-05
4.03751e-05
8.55677e-05
0.000200085
0.000230758
0.000232683
8.08042e-05
0.000233189
8.56653e-05
0.000185634
9.84289e-05
4.19596e-05
4.03755e-05
8.55687e-05
4.77939e-05
4.77997e-05
0.000231344
4.40045e-05
4.40233e-05
2.16828e-05
2.28313e-05
2.44791e-05
2.33026e-05
0.000229667
4.00481e-05
4.00661e-05
4.30906e-05
4.30954e-05
2.44802e-05
2.33042e-05
0.000206187
0.000233969
9.36633e-05
0.00023199
0.000222617
0.000233611
8.72136e-05
0.00010463
3.87374e-05
0.00012915
3.98219e-05
0.000104626
3.87369e-05
0.000129136
3.98209e-05
0.000200083
0.00023076
0.000232682
8.08036e-05
0.000233189
8.56618e-05
0.00018563
0.000200084
0.000230756
0.000232682
8.07952e-05
0.000233189
8.56526e-05
0.00018563
9.8438e-05
4.19592e-05
4.03752e-05
8.5564e-05
9.8437e-05
4.19585e-05
4.03738e-05
8.55639e-05
2.16832e-05
2.28314e-05
2.16823e-05
2.28308e-05
0.000229667
4.00663e-05
4.00543e-05
4.30992e-05
4.30849e-05
2.44804e-05
2.33044e-05
2.44794e-05
2.33038e-05
2.47756e-05
2.54645e-05
2.47738e-05
2.54627e-05
3.91721e-05
3.91549e-05
0.000219595
3.65739e-05
3.65656e-05
2.59543e-05
2.56194e-05
2.59528e-05
2.56176e-05
0.000216776
3.38488e-05
3.38413e-05
3.57367e-05
3.57195e-05
7.25701e-05
4.24332e-05
8.14046e-05
4.37618e-05
0.000167489
7.94408e-05
0.00023208
0.000226092
0.00018021
7.4509e-05
0.000231376
0.000167492
7.94248e-05
0.00023208
0.000226087
0.000180212
7.45037e-05
0.000231375
6.96289e-05
4.52369e-05
4.41513e-05
6.32356e-05
6.96317e-05
4.52369e-05
4.41501e-05
6.32391e-05
0.000162884
0.000224265
6.86674e-05
0.000229654
7.31616e-05
0.000230567
0.000151898
0.000162888
0.000224259
6.86643e-05
0.000229654
7.31452e-05
0.000230566
0.000151902
3.91576e-05
3.91715e-05
0.000219598
3.65703e-05
3.65647e-05
2.47756e-05
2.54647e-05
2.59538e-05
2.56186e-05
0.000216777
3.38449e-05
3.3844e-05
3.57227e-05
3.57332e-05
2.59548e-05
2.56193e-05
0.000167488
7.94231e-05
0.00023208
0.000226091
0.000180204
7.45003e-05
0.000231375
7.25563e-05
4.24296e-05
8.13971e-05
4.37586e-05
0.000167485
0.000232079
7.9425e-05
0.000226085
0.000180203
0.000231375
7.44911e-05
6.96325e-05
4.52345e-05
4.41482e-05
6.32359e-05
0.000162879
0.000224263
6.86597e-05
0.000229653
7.31446e-05
0.000230567
0.000151898
6.96317e-05
4.52327e-05
4.41459e-05
6.3233e-05
0.000162876
0.000224257
0.000229653
6.8654e-05
0.000230565
7.31432e-05
0.000151894
7.25632e-05
4.24325e-05
8.14052e-05
4.37616e-05
0.000167488
0.00023208
7.94339e-05
0.000226091
0.000180209
0.000231375
7.45104e-05
7.25663e-05
4.24321e-05
8.13993e-05
4.37601e-05
0.000162887
0.000224269
6.86687e-05
0.000229655
7.31596e-05
0.000230567
0.0001519
6.96335e-05
4.52364e-05
4.41495e-05
6.32364e-05
0.000162885
0.000224263
0.000229654
6.86691e-05
0.000230566
7.31504e-05
0.000151898
6.96318e-05
4.52352e-05
4.41487e-05
6.32349e-05
3.91597e-05
3.91677e-05
0.000219593
3.65587e-05
3.65755e-05
2.47751e-05
2.54631e-05
2.59518e-05
2.56164e-05
0.000216774
3.3837e-05
3.38508e-05
3.57211e-05
3.57292e-05
2.59534e-05
2.56183e-05
0.000167489
0.00023208
7.94237e-05
0.00022609
0.000180206
0.000231375
7.4502e-05
7.2557e-05
4.24317e-05
8.13972e-05
4.37603e-05
7.25628e-05
4.24304e-05
8.13985e-05
4.3759e-05
0.000162878
0.000224268
0.000229654
6.8669e-05
0.000230567
7.31524e-05
0.000151896
0.00016288
0.000224263
0.000229654
6.86616e-05
0.000230566
7.31426e-05
0.000151899
6.96323e-05
4.52351e-05
4.41486e-05
6.32345e-05
6.96334e-05
4.52341e-05
4.41474e-05
6.32358e-05
2.4775e-05
2.54629e-05
2.47742e-05
2.54622e-05
0.000216775
3.38504e-05
3.38404e-05
3.57267e-05
3.57181e-05
2.59533e-05
2.56181e-05
2.59525e-05
2.56174e-05
2.60139e-05
2.61179e-05
2.60122e-05
2.61162e-05
3.32228e-05
3.32113e-05
0.000204615
3.1993e-05
3.19838e-05
2.60836e-05
2.61186e-05
2.60816e-05
2.61168e-05
0.000201349
3.08805e-05
3.08711e-05
3.15694e-05
3.15611e-05
5.62795e-05
4.55464e-05
6.11342e-05
4.64119e-05
0.000138598
6.74263e-05
0.000228642
0.000218222
0.000148064
6.35174e-05
0.000227536
0.000138602
6.74157e-05
0.000228642
0.000218217
0.000148066
6.35106e-05
0.000227535
5.47711e-05
4.73209e-05
4.66523e-05
5.10051e-05
5.47722e-05
4.73204e-05
4.66503e-05
5.10071e-05
0.000135412
0.000216074
5.91337e-05
0.000225066
6.24208e-05
0.000226342
0.000127249
0.000135413
0.000216068
5.91267e-05
0.000225066
6.24149e-05
0.000226341
0.000127252
3.32133e-05
3.32212e-05
0.00020462
3.19867e-05
3.19895e-05
2.60141e-05
2.61182e-05
2.60828e-05
2.6118e-05
0.000201352
3.08732e-05
3.08785e-05
3.1563e-05
3.15676e-05
2.60837e-05
2.61188e-05
0.000138596
6.74158e-05
0.000228642
0.000218224
0.000148057
6.35075e-05
0.000227534
5.62791e-05
4.55421e-05
6.11269e-05
4.64073e-05
0.000138594
0.00022864
6.7412e-05
0.000218213
0.000148056
0.000227533
6.35047e-05
5.47672e-05
4.73175e-05
4.66482e-05
5.10045e-05
0.000135406
0.000216077
5.91241e-05
0.000225065
6.24105e-05
0.000226341
0.000127246
5.47672e-05
4.73178e-05
4.66474e-05
5.10041e-05
0.000135405
0.000216064
0.000225063
5.91217e-05
0.000226339
6.24075e-05
0.000127245
5.6277e-05
4.5546e-05
6.11317e-05
4.64115e-05
0.000138598
0.000228642
6.74204e-05
0.00021822
0.000148063
0.000227535
6.35147e-05
5.6276e-05
4.55444e-05
6.11299e-05
4.641e-05
0.000135413
0.000216083
5.91339e-05
0.000225068
6.24212e-05
0.000226343
0.000127251
5.47704e-05
4.7322e-05
4.66506e-05
5.10054e-05
0.00013541
0.000216072
0.000225066
5.91302e-05
0.000226341
6.24189e-05
0.000127248
5.47682e-05
4.73185e-05
4.66481e-05
5.10041e-05
3.32105e-05
3.32192e-05
0.000204612
3.19818e-05
3.19931e-05
2.60131e-05
2.61169e-05
2.60805e-05
2.61157e-05
0.000201346
3.08705e-05
3.08794e-05
3.15584e-05
3.15689e-05
2.60825e-05
2.61176e-05
0.000138599
0.000228641
6.74128e-05
0.000218223
0.000148058
0.000227534
6.3508e-05
5.62805e-05
4.55444e-05
6.11271e-05
4.64094e-05
5.62818e-05
4.55434e-05
6.11278e-05
4.6409e-05
0.000135405
0.00021608
0.000225065
5.91301e-05
0.000226342
6.24193e-05
0.000127246
0.000135406
0.000216075
0.000225065
5.91241e-05
0.00022634
6.24121e-05
0.000127248
5.47658e-05
4.73182e-05
4.66483e-05
5.10038e-05
5.47661e-05
4.73176e-05
4.66471e-05
5.10048e-05
2.60129e-05
2.61167e-05
2.60121e-05
2.61159e-05
0.000201347
3.08783e-05
3.08701e-05
3.15685e-05
3.15602e-05
2.60823e-05
2.61174e-05
2.60814e-05
2.61165e-05
2.60481e-05
2.59401e-05
2.60458e-05
2.59381e-05
3.06185e-05
3.06111e-05
0.000189782
3.03067e-05
3.02979e-05
2.57405e-05
2.58842e-05
2.57382e-05
2.58816e-05
0.00018655
3.01824e-05
3.01641e-05
3.02077e-05
3.01992e-05
4.69672e-05
4.7499e-05
4.99104e-05
4.80018e-05
0.000117547
5.82051e-05
0.000223719
0.000209407
0.000124602
5.54867e-05
0.000222308
0.000117549
5.81998e-05
0.000223718
0.000209402
0.000124603
5.54796e-05
0.000222307
4.61549e-05
4.84986e-05
4.81328e-05
4.38438e-05
4.61564e-05
4.84956e-05
4.81316e-05
4.38448e-05
0.00011537
0.00020715
5.24992e-05
0.000219325
5.47242e-05
0.000220841
0.000109271
0.000115372
0.000207145
5.24916e-05
0.000219324
5.47171e-05
0.00022084
0.000109272
3.06127e-05
3.06167e-05
0.000189788
3.02997e-05
3.03054e-05
2.60479e-05
2.59401e-05
2.57392e-05
2.58832e-05
0.000186554
3.01734e-05
3.01712e-05
3.02005e-05
3.02046e-05
2.57403e-05
2.58839e-05
0.000117544
5.81975e-05
0.000223719
0.000209413
0.000124596
5.54776e-05
0.000222306
4.69634e-05
4.74958e-05
4.99095e-05
4.80007e-05
0.000117543
0.000223716
5.81927e-05
0.000209397
0.000124595
0.000222304
5.54751e-05
4.61555e-05
4.84946e-05
4.81295e-05
4.38429e-05
0.000115365
0.000207157
5.249e-05
0.000219323
5.4715e-05
0.000220841
0.000109268
4.61548e-05
4.84946e-05
4.8126e-05
4.38426e-05
0.000115363
0.000207139
0.000219321
5.2487e-05
0.000220837
5.47099e-05
0.000109267
4.69654e-05
4.74984e-05
4.99086e-05
4.8003e-05
0.000117545
0.000223719
5.82031e-05
0.000209405
0.000124599
0.000222307
5.54822e-05
4.69647e-05
4.74959e-05
4.99072e-05
4.79993e-05
0.000115369
0.000207164
5.24965e-05
0.000219327
5.47214e-05
0.000220842
0.00010927
4.61545e-05
4.84951e-05
4.81292e-05
4.38432e-05
0.000115368
0.000207147
0.000219324
5.24933e-05
0.00022084
5.472e-05
0.000109267
4.61538e-05
4.8492e-05
4.81277e-05
4.38423e-05
3.06084e-05
3.06187e-05
0.000189778
3.02976e-05
3.03058e-05
2.60469e-05
2.59387e-05
2.57371e-05
2.58805e-05
0.000186545
3.01638e-05
3.01724e-05
3.01967e-05
3.02065e-05
2.57389e-05
2.58828e-05
0.000117546
0.000223718
5.81969e-05
0.000209412
0.000124596
0.000222307
5.54766e-05
4.69639e-05
4.74973e-05
4.99088e-05
4.80008e-05
4.69651e-05
4.74951e-05
4.99087e-05
4.79985e-05
0.000115364
0.000207159
0.000219323
5.24947e-05
0.000220841
5.47203e-05
0.000109269
0.000115364
0.000207156
0.000219324
5.24882e-05
0.00022084
5.47143e-05
0.000109268
4.6155e-05
4.84954e-05
4.81295e-05
4.38423e-05
4.61557e-05
4.84913e-05
4.81271e-05
4.38429e-05
2.60467e-05
2.59385e-05
2.60458e-05
2.59375e-05
0.000186547
3.01706e-05
3.01632e-05
3.02062e-05
3.01987e-05
2.57386e-05
2.58827e-05
2.57375e-05
2.58817e-05
2.56766e-05
2.55211e-05
2.56739e-05
2.55188e-05
3.01926e-05
3.01856e-05
0.000176374
3.04448e-05
3.04268e-05
2.53024e-05
2.54558e-05
2.53001e-05
2.5453e-05
0.000173313
3.0883e-05
3.08618e-05
3.04217e-05
3.0419e-05
4.1429e-05
4.85853e-05
4.32447e-05
4.88382e-05
0.000102114
5.18796e-05
0.000217769
0.000200387
0.000107381
5.00806e-05
0.000216179
0.000102114
5.18734e-05
0.000217768
0.000200382
0.000107382
5.00715e-05
0.000216177
4.09853e-05
4.90663e-05
4.88946e-05
3.95687e-05
4.09856e-05
4.90622e-05
4.88963e-05
3.9569e-05
0.000100459