/*--------------------------------*- C++ -*----------------------------------*\
| =========                 |                                                 |
| \\      /  F ield         | OpenFOAM: The Open Source CFD Toolbox           |
|  \\    /   O peration     | Version:  v1906                                 |
|   \\  /    A nd           | Web:      www.OpenFOAM.com                      |
|    \\/     M anipulation  |                                                 |
\*---------------------------------------------------------------------------*/
FoamFile
{
    version     2.0;
    format      ascii;
    class       volVectorField;
    location    "875";
    object      U;
}
// * * * * * * * * * * * * * * * * * * * * * * * * * * * * * * * * * * * * * //

dimensions      [0 1 -1 0 0 0 0];


internalField   nonuniform List<vector> 
43024
(
(0.000107958 0.000107892 0.100299)
(-0.000190195 0.00011927 0.100385)
(0.000119341 -0.000190187 0.100385)
(-0.000239593 -0.000239612 0.100397)
(9.42791e-05 9.42318e-05 0.10086)
(-0.000158939 9.68065e-05 0.100942)
(9.68113e-05 -0.000158935 0.100942)
(-0.000201047 -0.000201099 0.100968)
(9.54254e-05 9.54124e-05 0.10137)
(-0.000155796 9.34674e-05 0.101449)
(9.34565e-05 -0.000155804 0.101449)
(-0.000201988 -0.00020204 0.101471)
(9.38796e-05 9.3869e-05 0.101892)
(-0.000152046 9.00842e-05 0.101957)
(9.00994e-05 -0.000152048 0.101957)
(-0.000198902 -0.000198949 0.101964)
(9.11229e-05 9.11292e-05 0.102398)
(-0.000146284 8.55746e-05 0.102446)
(8.55839e-05 -0.000146293 0.102446)
(-0.00019337 -0.000193417 0.102432)
(8.81541e-05 8.81622e-05 0.102885)
(-0.00014063 8.16066e-05 0.102912)
(8.161e-05 -0.000140633 0.102912)
(-0.000187991 -0.000188049 0.10287)
(8.53427e-05 8.53234e-05 0.103353)
(-0.000135467 7.83739e-05 0.103354)
(7.83922e-05 -0.000135491 0.103354)
(-0.000183672 -0.000183739 0.10328)
(8.28492e-05 8.28063e-05 0.103803)
(-0.00013111 7.5983e-05 0.103774)
(7.60593e-05 -0.000131149 0.103774)
(-0.000180672 -0.000180692 0.103665)
(8.07671e-05 8.06363e-05 0.104237)
(-0.000127262 7.41441e-05 0.104175)
(7.40988e-05 -0.000127237 0.104175)
(-0.000177451 -0.000177405 0.104022)
(7.85986e-05 7.85002e-05 0.104658)
(-0.000124239 7.31152e-05 0.104557)
(7.30583e-05 -0.0001242 0.104557)
(-0.000178301 -0.000178349 0.104359)
(7.7195e-05 7.70874e-05 0.105066)
(-0.000121303 7.19715e-05 0.104924)
(7.19255e-05 -0.000121316 0.104924)
(-0.000175711 -0.0001759 0.104674)
(7.56559e-05 7.56441e-05 0.105464)
(-0.000118835 7.08215e-05 0.105277)
(7.08699e-05 -0.000119014 0.105277)
(-0.000174903 -0.000175088 0.104966)
(7.46487e-05 7.48751e-05 0.105851)
(-0.00011601 6.96027e-05 0.105614)
(6.97846e-05 -0.000116642 0.105614)
(-0.000176185 -0.000176339 0.105235)
(7.21421e-05 7.24145e-05 0.106229)
(-0.000115134 6.99526e-05 0.105939)
(6.84772e-05 -0.000114346 0.105937)
(-0.000177572 -0.000177315 0.105489)
(7.17855e-05 7.17776e-05 0.106598)
(-0.00011037 6.5247e-05 0.106247)
(6.6539e-05 -0.000110746 0.106246)
(-0.000171484 -0.000171615 0.10572)
(7.01099e-05 6.9395e-05 0.106957)
(-0.000108027 6.50075e-05 0.106545)
(7.14757e-05 -0.000111354 0.106539)
(-0.000166525 -0.000166927 0.105928)
(6.95322e-05 6.87244e-05 0.107306)
(-0.000106145 6.50051e-05 0.106822)
(7.24511e-05 -0.000111453 0.106819)
(-0.000168482 -0.000169025 0.10611)
(6.3579e-05 6.48664e-05 0.107651)
(-0.000108112 6.97948e-05 0.107088)
(6.18877e-05 -0.000106724 0.107082)
(-0.000185887 -0.000184707 0.106263)
(6.92798e-05 6.89114e-05 0.107982)
(-0.000100091 5.61384e-05 0.107333)
(5.47364e-05 -9.91441e-05 0.107335)
(-0.000163934 -0.000164417 0.106391)
(5.99073e-05 5.9993e-05 0.108309)
(-0.000103019 6.45453e-05 0.107566)
(6.12076e-05 -0.000101243 0.107571)
(-0.000169873 -0.00017016 0.106491)
(6.44366e-05 6.56752e-05 0.108617)
(-0.000102776 6.72659e-05 0.107774)
(6.10883e-05 -9.91251e-05 0.107776)
(-0.000160626 -0.000159723 0.106565)
(0.000134959 0.000134949 0.100282)
(0.000124248 0.000152867 0.100229)
(-0.00012424 0.000152847 0.100229)
(-0.000134956 0.000134916 0.100282)
(0.000152896 0.0001242 0.100229)
(0.000152868 -0.000124217 0.100229)
(9.08047e-05 9.0753e-05 0.100151)
(-9.07947e-05 9.07501e-05 0.100151)
(9.0779e-05 -9.07987e-05 0.100151)
(-9.07764e-05 -9.07968e-05 0.100151)
(-0.000152891 0.000124196 0.100229)
(-0.000152877 -0.000124213 0.100229)
(0.000134949 -0.000134968 0.100282)
(0.000124201 -0.000152897 0.100229)
(-0.000124197 -0.000152879 0.100229)
(-0.000134957 -0.000134941 0.100282)
(0.000239635 0.000239615 0.100397)
(0.000111304 0.000111179 0.100892)
(0.000119392 0.000190088 0.100385)
(-0.000119343 0.000190129 0.100385)
(8.91023e-05 0.000147213 0.100823)
(-8.9064e-05 0.00014721 0.100823)
(-0.000239645 0.000239563 0.100397)
(-0.000111266 0.000111146 0.100892)
(0.000190231 0.000119289 0.100385)
(0.000190169 -0.000119349 0.100385)
(0.00014719 8.90738e-05 0.100823)
(0.000147222 -8.90949e-05 0.100823)
(-0.000190151 -0.000119353 0.100385)
(-0.000147159 8.9075e-05 0.100823)
(-0.00014718 -8.9089e-05 0.100823)
(0.000239566 -0.000239657 0.100397)
(0.000111257 -0.000111269 0.100892)
(-0.000119321 -0.000190216 0.100385)
(8.9076e-05 -0.000147148 0.100823)
(-8.90554e-05 -0.000147174 0.100823)
(-0.000111255 -0.000111273 0.100892)
(0.000201136 0.000200967 0.100968)
(0.000105726 0.000105645 0.101395)
(9.68197e-05 0.000158993 0.100941)
(-9.6793e-05 0.00015899 0.100941)
(9.41999e-05 0.000156672 0.10132)
(-9.42e-05 0.000156672 0.10132)
(-0.000201096 0.000200935 0.100967)
(-0.000105712 0.000105636 0.101395)
(0.000158972 9.68004e-05 0.100942)
(0.00015899 -9.68128e-05 0.100942)
(0.000156627 9.42043e-05 0.10132)
(0.000156668 -9.42072e-05 0.10132)
(-0.000158967 -9.68078e-05 0.100942)
(-0.000156624 9.42128e-05 0.10132)
(-0.000156645 -9.41977e-05 0.10132)
(0.000201043 -0.000201108 0.100968)
(0.000105688 -0.000105703 0.101395)
(-9.6793e-05 -0.000158961 0.100942)
(9.42009e-05 -0.000156624 0.10132)
(-9.42074e-05 -0.000156644 0.10132)
(-0.000105704 -0.000105711 0.101395)
(0.000202049 0.00020193 0.101471)
(9.65796e-05 9.65457e-05 0.101893)
(9.34496e-05 0.000155854 0.101449)
(-9.34539e-05 0.000155852 0.101449)
(9.11434e-05 0.000153337 0.101832)
(-9.11358e-05 0.000153329 0.101832)
(-0.000202046 0.000201909 0.101471)
(-9.66059e-05 9.65349e-05 0.101893)
(0.000155804 9.34626e-05 0.101449)
(0.000155845 -9.34589e-05 0.101449)
(0.00015328 9.1148e-05 0.101832)
(0.00015331 -9.11323e-05 0.101832)
(-0.000155828 -9.34515e-05 0.101449)
(-0.000153273 9.1142e-05 0.101832)
(-0.000153311 -9.11382e-05 0.101832)
(0.000201972 -0.00020204 0.101471)
(9.65704e-05 -9.65715e-05 0.101893)
(-9.34638e-05 -0.000155827 0.101449)
(9.11501e-05 -0.000153277 0.101832)
(-9.11387e-05 -0.000153285 0.101832)
(-9.66517e-05 -9.66546e-05 0.101893)
(0.000198982 0.000198863 0.101964)
(8.59478e-05 8.58919e-05 0.102366)
(9.00987e-05 0.000152109 0.101957)
(-9.00837e-05 0.000152095 0.101957)
(8.6689e-05 0.000147826 0.102326)
(-8.66757e-05 0.000147831 0.102326)
(-0.000198956 0.000198889 0.101964)
(-8.59766e-05 8.59836e-05 0.102366)
(0.000152051 9.00991e-05 0.101957)
(0.000152085 -9.0081e-05 0.101957)
(0.000147774 8.66839e-05 0.102326)
(0.000147804 -8.66826e-05 0.102326)
(-0.000152085 -9.00866e-05 0.101957)
(-0.000147775 8.66851e-05 0.102326)
(-0.000147812 -8.66692e-05 0.102326)
(0.000198879 -0.000199011 0.101964)
(8.59592e-05 -8.60482e-05 0.102366)
(-9.00866e-05 -0.000152054 0.101957)
(8.66973e-05 -0.000147775 0.102326)
(-8.66645e-05 -0.000147772 0.102326)
(-8.60926e-05 -8.61009e-05 0.102366)
(0.00019364 0.000193504 0.102432)
(7.57635e-05 7.56968e-05 0.102812)
(8.5584e-05 0.000146359 0.102446)
(-8.55756e-05 0.000146343 0.102446)
(8.25068e-05 0.000142042 0.102797)
(-8.25014e-05 0.000142062 0.102797)
(-0.000193627 0.00019354 0.102431)
(-7.59816e-05 7.59382e-05 0.102811)
(0.000146299 8.55893e-05 0.102446)
(0.000146329 -8.55458e-05 0.102446)
(0.000141987 8.25043e-05 0.102798)
(0.000142026 -8.2515e-05 0.102798)
(-0.000146334 -8.55823e-05 0.102446)
(-0.000141993 8.2508e-05 0.102798)
(-0.000142042 -8.25003e-05 0.102798)
(0.000193593 -0.00019375 0.102432)
(7.59744e-05 -7.61494e-05 0.102812)
(-8.55794e-05 -0.00014629 0.102446)
(8.25313e-05 -0.000141995 0.102798)
(-8.24942e-05 -0.000141997 0.102798)
(-7.59792e-05 -7.60007e-05 0.102812)
(0.000188368 0.000188243 0.10287)
(6.72968e-05 6.73734e-05 0.103228)
(8.16082e-05 0.000140693 0.102912)
(-8.16009e-05 0.000140689 0.102912)
(7.91615e-05 0.000136816 0.103245)
(-7.91378e-05 0.000136791 0.103245)
(-0.000188177 0.000188163 0.102871)
(-6.70535e-05 6.69838e-05 0.103229)
(0.000140637 8.16095e-05 0.102912)
(0.000140666 -8.1554e-05 0.102912)
(0.00013676 7.91872e-05 0.103245)
(0.000136768 -7.91195e-05 0.103245)
(-0.000140671 -8.16007e-05 0.102912)
(-0.00013673 7.91441e-05 0.103245)
(-0.000136734 -7.90905e-05 0.103245)
(0.000188199 -0.000188356 0.102871)
(6.70605e-05 -6.71853e-05 0.103229)
(-8.15992e-05 -0.000140622 0.102912)
(7.91783e-05 -0.000136732 0.103245)
(-7.90892e-05 -0.00013668 0.103245)
(-6.67253e-05 -6.67178e-05 0.10323)
(0.000183922 0.000183936 0.103281)
(5.91443e-05 5.9362e-05 0.103621)
(7.83817e-05 0.00013552 0.103354)
(-7.83505e-05 0.000135534 0.103354)
(7.6413e-05 0.0001321 0.103671)
(-7.64128e-05 0.000132099 0.103671)
(-0.000183869 0.000183778 0.103281)
(-5.85831e-05 5.85581e-05 0.103622)
(0.00013546 7.83581e-05 0.103354)
(0.000135503 -7.83661e-05 0.103354)
(0.000132059 7.64698e-05 0.103671)
(0.000132131 -7.63842e-05 0.103671)
(-0.000135583 -7.84301e-05 0.103354)
(-0.000132043 7.64117e-05 0.103671)
(-0.000132158 -7.65484e-05 0.103671)
(0.000183882 -0.00018385 0.103281)
(5.86494e-05 -5.87502e-05 0.103622)
(-7.84251e-05 -0.000135531 0.103354)
(7.64741e-05 -0.000132068 0.103671)
(-7.65654e-05 -0.000132102 0.103671)
(-5.96051e-05 -5.95272e-05 0.10362)
(0.00017954 0.000179666 0.103665)
(5.25533e-05 5.2985e-05 0.103986)
(7.6015e-05 0.000131176 0.103774)
(-7.59759e-05 0.000131171 0.103774)
(7.47851e-05 0.000128386 0.104076)
(-7.46846e-05 0.000128274 0.104076)
(-0.00017974 0.000179602 0.103664)
(-5.29402e-05 5.30697e-05 0.103987)
(0.000131129 7.59637e-05 0.103774)
(0.000131147 -7.60151e-05 0.103774)
(0.000128332 7.48202e-05 0.104076)
(0.000128266 -7.47643e-05 0.104076)
(-0.000131073 -7.58708e-05 0.103774)
(-0.000128192 7.46454e-05 0.104076)
(-0.000128185 -7.45113e-05 0.104076)
(0.000179732 -0.000179457 0.103664)
(5.31492e-05 -5.34032e-05 0.103986)
(-7.58491e-05 -0.000131013 0.103774)
(7.4691e-05 -0.000128222 0.104076)
(-7.44827e-05 -0.000128126 0.104076)
(-5.16003e-05 -5.15433e-05 0.103989)
(0.000178701 0.000179133 0.104022)
(4.71995e-05 4.73328e-05 0.104334)
(7.43261e-05 0.000127302 0.104175)
(-7.42364e-05 0.000127328 0.104175)
(7.32072e-05 0.000124785 0.104463)
(-7.30407e-05 0.000124812 0.104463)
(-0.00017843 0.000178553 0.104023)
(-4.56454e-05 4.54748e-05 0.104335)
(0.000127241 7.41693e-05 0.104175)
(0.000127269 -7.41963e-05 0.104175)
(0.000124774 7.31812e-05 0.104463)
(0.000124802 -7.31148e-05 0.104463)
(-0.000127526 -7.45188e-05 0.104174)
(-0.000124744 7.29288e-05 0.104463)
(-0.000125049 -7.35292e-05 0.104463)
(0.000178984 -0.000178665 0.104023)
(4.58807e-05 -4.61971e-05 0.104334)
(-7.44429e-05 -0.00012746 0.104174)
(7.29859e-05 -0.000124745 0.104463)
(-7.34584e-05 -0.000124977 0.104463)
(-4.78118e-05 -4.78938e-05 0.10433)
(0.000175946 0.000176153 0.104361)
(4.05615e-05 4.06967e-05 0.104657)
(7.29441e-05 0.00012416 0.104557)
(-7.31861e-05 0.000124317 0.104557)
(7.19997e-05 0.000122029 0.104834)
(-7.22313e-05 0.000122116 0.104833)
(-0.000175558 0.000175462 0.104358)
(-4.12024e-05 4.12061e-05 0.104655)
(0.000124099 7.28093e-05 0.104557)
(0.000124268 -7.31259e-05 0.104557)
(0.000121956 7.19894e-05 0.104834)
(0.0001221 -7.21537e-05 0.104834)
(-0.000124018 -7.28297e-05 0.104558)
(-0.000122036 7.21437e-05 0.104834)
(-0.000121837 -7.19936e-05 0.104834)
(0.000175727 -0.00017571 0.104359)
(4.12682e-05 -4.12434e-05 0.104655)
(-7.27878e-05 -0.000123949 0.104558)
(7.21401e-05 -0.000122034 0.104834)
(-7.1895e-05 -0.000121821 0.104834)
(-4.15932e-05 -4.15782e-05 0.104657)
(0.000176155 0.000176439 0.104672)
(3.5701e-05 3.55527e-05 0.104962)
(7.19543e-05 0.000121373 0.104924)
(-7.20137e-05 0.000121404 0.104924)
(7.12244e-05 0.000119572 0.10519)
(-7.13339e-05 0.000119611 0.10519)
(-0.000177545 0.000177322 0.104671)
(-3.66512e-05 3.68297e-05 0.104961)
(0.000121358 7.18329e-05 0.104924)
(0.000121383 -7.19916e-05 0.104924)
(0.00011951 7.11572e-05 0.10519)
(0.000119266 -7.09187e-05 0.10519)
(-0.000121326 -7.17697e-05 0.104924)
(-0.000119597 7.1277e-05 0.10519)
(-0.000119371 -7.09109e-05 0.10519)
(0.000177406 -0.000177043 0.104671)
(3.70882e-05 -3.72322e-05 0.104963)
(-7.16256e-05 -0.00012128 0.104924)
(7.08056e-05 -0.000119289 0.10519)
(-7.07675e-05 -0.000119399 0.10519)
(-3.52706e-05 -3.53723e-05 0.104962)
(0.00017558 0.000175644 0.104965)
(3.2365e-05 3.22155e-05 0.105243)
(7.11159e-05 0.000118999 0.105276)
(-7.09543e-05 0.000118846 0.105277)
(7.03874e-05 0.000117312 0.10553)
(-7.02222e-05 0.000117163 0.10553)
(-0.000175829 0.000175795 0.104967)
(-3.1869e-05 3.19683e-05 0.105242)
(0.000118908 7.10853e-05 0.105276)
(0.000119056 -7.09796e-05 0.105277)
(0.00011722 7.03729e-05 0.10553)
(0.000116442 -6.85847e-05 0.105532)
(-0.000119314 -7.13713e-05 0.105276)
(-0.000117066 7.02654e-05 0.10553)
(-0.000117083 -6.97038e-05 0.105531)
(0.000175249 -0.000175312 0.104969)
(2.93957e-05 -2.9404e-05 0.105249)
(-7.12915e-05 -0.000119167 0.105276)
(6.86856e-05 -0.000116259 0.105532)
(-6.97347e-05 -0.000116957 0.105531)
(-2.97622e-05 -2.98157e-05 0.105244)
(0.000177919 0.000177873 0.105237)
(2.66988e-05 2.70337e-05 0.105511)
(7.01614e-05 0.000116843 0.105614)
(-6.94817e-05 0.000116162 0.105614)
(6.73483e-05 0.000113882 0.105859)
(-7.12145e-05 0.000116134 0.105858)
(-0.00017754 0.000177503 0.105237)
(-3.04238e-05 3.04045e-05 0.105508)
(0.000116531 7.03534e-05 0.105615)
(0.000116721 -6.97429e-05 0.105614)
(0.000113518 6.77673e-05 0.105859)
(0.000114314 -6.81839e-05 0.10586)
(-0.000116392 -6.99231e-05 0.105614)
(-0.000115992 7.10521e-05 0.105858)
(-0.000115483 -6.94225e-05 0.105857)
(0.000172817 -0.000173061 0.105241)
(2.32169e-05 -2.32593e-05 0.105514)
(-6.99811e-05 -0.000116336 0.105614)
(6.78752e-05 -0.000114379 0.10586)
(-6.98687e-05 -0.000115093 0.105858)
(-2.80046e-05 -2.77019e-05 0.105509)
(0.000174584 0.000174735 0.105491)
(2.65283e-05 2.65825e-05 0.105754)
(6.61033e-05 0.000112679 0.105939)
(-7.03154e-05 0.000115047 0.105939)
(6.99626e-05 0.000113216 0.106171)
(-6.50503e-05 0.000110794 0.106171)
(-0.000179062 0.000178957 0.10549)
(-1.7316e-05 1.73361e-05 0.105754)
(0.000112418 6.6365e-05 0.105939)
(0.000114258 -6.89305e-05 0.105937)
(0.000113197 6.98569e-05 0.106171)
(0.000111773 -6.61135e-05 0.106171)
(-0.000115558 -7.01473e-05 0.105938)
(-0.000110872 6.5137e-05 0.106171)
(-0.000112024 -6.66317e-05 0.106172)
(0.000172204 -0.000172407 0.105491)
(1.61237e-05 -1.59151e-05 0.105756)
(-7.0573e-05 -0.00011503 0.105938)
(6.62716e-05 -0.000111619 0.106171)
(-6.65314e-05 -0.000111954 0.106172)
(-1.81335e-05 -1.80967e-05 0.105756)
(0.00017817 0.000178129 0.105721)
(2.00444e-05 1.99436e-05 0.105975)
(6.63179e-05 0.00011065 0.10625)
(-6.53395e-05 0.000110314 0.106247)
(6.6737e-05 0.000110035 0.106469)
(-6.98179e-05 0.000111765 0.106469)
(-0.000172362 0.00017236 0.105717)
(-2.17571e-05 2.22239e-05 0.105973)
(0.000110629 6.62149e-05 0.10625)
(0.000110897 -6.65388e-05 0.106246)
(0.000110114 6.65421e-05 0.106469)
(0.000112635 -7.0924e-05 0.106466)
(-0.000112747 -6.84981e-05 0.106246)
(-0.000111321 7.01298e-05 0.106469)
(-0.000106782 -6.08827e-05 0.106471)
(0.000171435 -0.000171312 0.105718)
(1.92768e-05 -1.90693e-05 0.105971)
(-6.83187e-05 -0.000112724 0.106246)
(7.10598e-05 -0.000112459 0.106466)
(-6.0595e-05 -0.000106859 0.106471)
(-9.43222e-06 -9.58897e-06 0.105981)
(0.000177023 0.000176692 0.105926)
(1.43766e-05 1.37247e-05 0.106177)
(6.6312e-05 0.000109142 0.106543)
(-6.49614e-05 0.000108368 0.106545)
(6.52354e-05 0.000107074 0.106753)
(-6.56102e-05 0.000107726 0.10675)
(-0.000178958 0.000179301 0.105924)
(-1.21513e-05 1.19533e-05 0.106172)
(0.000109497 6.55481e-05 0.106543)
(0.000111433 -7.1624e-05 0.106539)
(0.000107719 6.41764e-05 0.106753)
(0.000111366 -6.92864e-05 0.106751)
(-0.000109649 -6.57293e-05 0.10654)
(-0.000107826 6.52601e-05 0.106751)
(-0.000106283 -6.51718e-05 0.106757)
(0.000180155 -0.000180095 0.105918)
(1.15857e-05 -1.15876e-05 0.106167)
(-6.48633e-05 -0.000109995 0.10654)
(6.90256e-05 -0.000111371 0.106751)
(-6.41331e-05 -0.000106853 0.106758)
(-1.52624e-05 -1.5913e-05 0.106176)
(0.00017373 0.000173198 0.106108)
(6.9095e-06 8.15344e-06 0.106347)
(6.90834e-05 0.000109715 0.10682)
(-6.4494e-05 0.00010638 0.106821)
(6.1002e-05 0.000104432 0.107025)
(-7.14145e-05 0.000109368 0.107019)
(-0.000177261 0.000177173 0.106105)
(-1.61842e-05 1.61575e-05 0.106344)
(0.000110151 6.8275e-05 0.106821)
(0.000111772 -7.1875e-05 0.106818)
(0.000103561 6.28023e-05 0.107025)
(0.000101641 -5.35777e-05 0.107024)
(-0.000102628 -5.6705e-05 0.106826)
(-0.000109303 7.07752e-05 0.107019)
(-0.000111227 -7.35301e-05 0.107018)
(0.000175183 -0.00017514 0.106096)
(-8.64977e-06 8.68146e-06 0.10635)
(-5.58965e-05 -0.000102954 0.106827)
(5.29256e-05 -0.00010156 0.107024)
(-7.52604e-05 -0.000110317 0.107018)
(-2.30121e-05 -2.18048e-05 0.106347)
(0.000162957 0.000164194 0.106261)
(1.48696e-05 1.45261e-05 0.106493)
(5.60767e-05 0.000102374 0.107088)
(-7.08284e-05 0.000107958 0.107087)
(7.0964e-05 0.000107755 0.107269)
(-5.48499e-05 0.000101187 0.107273)
(-0.000182366 0.000182052 0.106259)
(5.96525e-06 -4.97048e-06 0.106493)
(0.000101442 5.76508e-05 0.107087)
(0.000106548 -6.2986e-05 0.107082)
(0.000107891 7.04906e-05 0.107269)
(0.000100195 -5.65655e-05 0.107278)
(-0.000107374 -6.81602e-05 0.107089)
(-0.000100348 5.63538e-05 0.107274)
(-0.000102241 -5.83682e-05 0.107271)
(0.000155011 -0.000155319 0.106263)
(2.20855e-06 -1.00731e-06 0.106502)
(-6.96697e-05 -0.000106391 0.107089)
(5.79878e-05 -9.9323e-05 0.107278)
(-5.78251e-05 -0.000102328 0.107271)
(7.27425e-06 6.90418e-06 0.106496)
(0.000179968 0.000179511 0.106389)
(-9.22714e-06 -9.58181e-06 0.10661)
(7.25812e-05 0.000107545 0.107332)
(-5.47045e-05 0.000101001 0.107333)
(5.75047e-05 0.000100423 0.10751)
(-6.74482e-05 0.000103179 0.107509)
(-0.00015901 0.000159924 0.106391)
(-9.8142e-06 9.01816e-06 0.106623)
(0.000107781 7.20705e-05 0.107332)
(0.000100082 -5.33748e-05 0.107335)
(0.000100774 5.67052e-05 0.10751)
(0.000105756 -7.29871e-05 0.107509)
(-0.000103159 -6.36507e-05 0.10733)
(-0.000103617 6.60673e-05 0.107509)
(-0.00010484 -6.84437e-05 0.107508)
(0.000159386 -0.000158344 0.106398)
(1.80911e-05 -1.88847e-05 0.106618)
(-6.31077e-05 -0.000103374 0.10733)
(7.157e-05 -0.000106192 0.107509)
(-6.75806e-05 -0.000105115 0.107509)
(-5.14608e-06 -5.52728e-06 0.106616)
(0.000153501 0.000153226 0.10649)
(-3.17784e-06 -2.07953e-06 0.106727)
(5.1945e-05 9.76242e-05 0.107566)
(-6.65172e-05 0.000102154 0.107566)
(5.93775e-05 9.94844e-05 0.107723)
(-6.26688e-05 0.000100264 0.107722)
(-0.000172848 0.000171744 0.1065)
(6.8272e-07 -1.03374e-06 0.106703)
(9.76988e-05 5.18426e-05 0.107566)
(0.000100404 -6.31855e-05 0.107571)
(9.86583e-05 6.0617e-05 0.107724)
(9.8671e-05 -5.83978e-05 0.107721)
(-0.000103337 -6.55312e-05 0.107565)
(-0.00010066 6.21449e-05 0.107724)
(-9.84208e-05 -5.53785e-05 0.107723)
(0.00017697 -0.000178088 0.106497)
(-7.20337e-06 6.85381e-06 0.106709)
(-6.53814e-05 -0.000103317 0.107566)
(5.78287e-05 -9.90343e-05 0.107722)
(-5.65929e-05 -9.75357e-05 0.107723)
(1.00734e-05 1.11587e-05 0.106706)
(0.000170101 0.000171005 0.106587)
(7.07626e-05 0.000103412 0.107776)
(-6.71517e-05 0.000102759 0.107773)
(-0.000164973 0.00016478 0.106563)
(0.000102623 7.19538e-05 0.107776)
(9.917e-05 -6.10412e-05 0.107775)
(-0.000102456 -6.51441e-05 0.107772)
(0.000164619 -0.000164773 0.106573)
(-6.63015e-05 -0.000101602 0.107772)
(-3.34123e-07 -3.36785e-07 0.0999988)
(1.68284e-05 1.68229e-05 0.100003)
(-4.50603e-07 1.39328e-05 0.1)
(1.39405e-05 -4.53152e-07 0.1)
(-4.66042e-05 5.72896e-06 0.100009)
(-1.52712e-05 1.55875e-05 0.0999999)
(-0.000127915 6.04495e-05 0.100058)
(-1.3111e-05 -8.63754e-07 0.0999958)
(5.72279e-06 -4.6588e-05 0.100009)
(1.55912e-05 -1.52711e-05 0.0999999)
(-8.61884e-07 -1.31089e-05 0.0999958)
(6.04605e-05 -0.000127844 0.100058)
(-1.87249e-05 -1.87282e-05 0.100003)
(-0.000134955 -8.10569e-05 0.100055)
(-8.10645e-05 -0.000134935 0.100055)
(-3.47693e-05 0.000136053 0.100724)
(0.000177045 0.000388496 0.0994164)
(2.38048e-06 0.000305452 0.100516)
(-8.40235e-05 0.000243409 0.0991477)
(-0.000303477 0.000837907 0.0977722)
(-0.000129192 0.000304522 0.0957183)
(0.000135779 -3.4913e-05 0.100724)
(0.000389107 0.000176009 0.0994172)
(0.000306206 2.25008e-06 0.100517)
(0.000243526 -8.391e-05 0.099148)
(-0.000107942 0.000107894 0.100299)
(0.000107928 -0.000107939 0.100299)
(-0.00010792 -0.000107948 0.100299)
(9.17524e-05 9.16834e-05 0.100739)
(-9.17084e-05 9.17008e-05 0.100739)
(9.17376e-05 -9.17509e-05 0.100739)
(-9.17168e-05 -9.17612e-05 0.100739)
(-0.000280705 6.39737e-06 0.100754)
(-0.000399052 0.000229253 0.100526)
(-0.000175286 3.7383e-05 0.100332)
(-0.000153241 9.45079e-05 0.100558)
(-0.000358993 1.56354e-05 0.100479)
(-0.000148841 0.00019878 0.10074)
(-0.000152721 3.32782e-05 0.100497)
(0.00083686 -0.000301613 0.0977703)
(0.000304536 -0.000128795 0.0957195)
(6.35375e-06 -0.000280624 0.100754)
(3.74182e-05 -0.000175261 0.100332)
(0.000229347 -0.000399034 0.100526)
(9.44673e-05 -0.00015323 0.100558)
(1.56311e-05 -0.000358868 0.100479)
(3.33272e-05 -0.000152706 0.100497)
(0.000198802 -0.000148845 0.100739)
(-0.000372641 -0.000141971 0.100361)
(-0.000142174 -0.000372891 0.100361)
(-0.000111979 -0.000112054 0.100655)
(1.10771e-05 -7.89068e-05 0.10059)
(-7.91642e-05 1.10958e-05 0.10059)
(-1.65404e-05 0.000198343 0.100868)
(-5.4892e-05 0.00028803 0.0983198)
(-2.02912e-05 0.000208737 0.100777)
(-4.47647e-05 0.00027105 0.0979454)
(-0.00015039 0.000313454 0.0926213)
(-0.000137215 0.000273088 0.0909996)
(0.000198273 -1.66765e-05 0.100867)
(0.000288334 -5.47998e-05 0.0983202)
(0.000208788 -2.04215e-05 0.100778)
(0.000271287 -4.47446e-05 0.0979456)
(-9.42337e-05 9.42495e-05 0.10086)
(9.42897e-05 -9.42833e-05 0.10086)
(-9.42672e-05 -9.42818e-05 0.10086)
(9.61982e-05 9.6182e-05 0.101239)
(-9.61706e-05 9.61987e-05 0.101239)
(9.6212e-05 -9.62077e-05 0.101239)
(-9.62058e-05 -9.62021e-05 0.101239)
(-0.000263632 1.32814e-05 0.101153)
(-0.000219004 0.000214165 0.100818)
(-0.000164513 3.10417e-05 0.100897)
(-0.000160205 9.74313e-05 0.101064)
(-0.000297963 1.41158e-05 0.100977)
(-0.000183317 0.000197912 0.100945)
(-0.000168726 3.24794e-05 0.101019)
(0.000313438 -0.00015009 0.0926195)
(0.000273185 -0.000137053 0.0910012)
(1.33568e-05 -0.000263611 0.101153)
(3.11141e-05 -0.000164509 0.100897)
(0.000214219 -0.000219098 0.100819)
(9.74272e-05 -0.000160204 0.101064)
(1.42164e-05 -0.000297943 0.100977)
(3.25463e-05 -0.000168722 0.101019)
(0.000197869 -0.00018326 0.100945)
(-8.38845e-05 -9.71592e-05 0.100438)
(-9.72684e-05 -8.39009e-05 0.100438)
(-0.000112482 -0.000112481 0.101144)
(-8.66602e-05 -8.26033e-05 0.10043)
(-8.27355e-05 -8.67084e-05 0.10043)
(-9.29563e-06 0.00021078 0.100957)
(-2.20103e-05 0.00028171 0.0971363)
(-1.15419e-05 0.000230423 0.100902)
(-1.24801e-05 0.000257298 0.0967129)
(-0.000117402 0.000225932 0.0883853)
(-9.68893e-05 0.000187256 0.0870649)
(0.000210722 -9.56341e-06 0.100956)
(0.000281682 -2.1921e-05 0.0971364)
(0.000230492 -1.17597e-05 0.100903)
(0.000257071 -1.21992e-05 0.096713)
(-9.53972e-05 9.54296e-05 0.10137)
(9.54376e-05 -9.54341e-05 0.10137)
(-9.54309e-05 -9.54297e-05 0.10137)
(9.435e-05 9.43422e-05 0.101763)
(-9.43267e-05 9.43606e-05 0.101763)
(9.43773e-05 -9.43543e-05 0.101763)
(-9.43527e-05 -9.43533e-05 0.101763)
(-0.00025099 1.22228e-05 0.10158)
(-0.000222512 0.000190532 0.101027)
(-0.000167314 3.27722e-05 0.101407)
(-0.000155161 9.28663e-05 0.101577)
(-0.000290169 1.20939e-05 0.101414)
(-0.000182287 0.000169327 0.101124)
(-0.000167152 3.27084e-05 0.101537)
(0.000225802 -0.000117163 0.0883826)
(0.000187415 -9.68481e-05 0.0870664)
(1.22587e-05 -0.000250979 0.10158)
(3.28134e-05 -0.000167324 0.101407)
(0.000190563 -0.000222579 0.101028)
(9.28625e-05 -0.000155165 0.101577)
(1.21543e-05 -0.000290183 0.101414)
(3.27442e-05 -0.000167149 0.101537)
(0.000169408 -0.000182224 0.101123)
(-0.000116066 -9.15264e-05 0.100182)
(-9.16338e-05 -0.000116137 0.100182)
(-0.000101499 -0.000101504 0.101646)
(-0.000111918 -7.24058e-05 0.100086)
(-7.24868e-05 -0.000111995 0.100086)
(-6.81783e-06 0.000210119 0.100953)
(5.80419e-06 0.000257773 0.095857)
(-7.93189e-06 0.000236282 0.100927)
(1.00459e-05 0.000229855 0.0954233)
(-7.74237e-05 0.000150102 0.0849775)
(-5.92194e-05 0.000119058 0.0839655)
(0.000210067 -6.94467e-06 0.100952)
(0.000258369 5.53527e-06 0.0958571)
(0.000236338 -7.81269e-06 0.100928)
(0.000230373 9.78154e-06 0.0954236)
(-9.38666e-05 9.38973e-05 0.101892)
(9.39093e-05 -9.38842e-05 0.101892)
(-9.38942e-05 -9.38941e-05 0.101892)
(9.1876e-05 9.18658e-05 0.102273)
(-9.18558e-05 9.19007e-05 0.102273)
(9.18993e-05 -9.18765e-05 0.102273)
(-9.18892e-05 -9.18884e-05 0.102273)
(-0.000238488 1.11162e-05 0.101978)
(-0.000219749 0.000162907 0.101141)
(-0.000165097 3.20944e-05 0.101923)
(-0.000150697 8.89802e-05 0.102081)
(-0.000282622 1.09471e-05 0.101822)
(-0.000174965 0.000141468 0.101214)
(-0.000163802 3.17555e-05 0.10205)
(0.000149824 -7.71422e-05 0.0849742)
(0.000118951 -5.91986e-05 0.083967)
(1.12748e-05 -0.000238573 0.101978)
(3.21078e-05 -0.000165094 0.101923)
(0.000162657 -0.000219912 0.101142)
(8.89875e-05 -0.000150701 0.102081)
(1.1048e-05 -0.000282706 0.101822)
(3.17798e-05 -0.000163788 0.10205)
(0.000140579 -0.0001751 0.101213)
(-0.0001333 -7.92619e-05 0.0997185)
(-7.93365e-05 -0.000133368 0.0997183)
(-9.14091e-05 -9.14154e-05 0.102133)
(-0.000124008 -6.01847e-05 0.0995707)
(-6.02363e-05 -0.000124075 0.0995699)
(-6.46203e-06 0.000202236 0.100852)
(1.97949e-05 0.000226044 0.0945603)
(-7.21136e-06 0.000231385 0.100852)
(1.91937e-05 0.000196993 0.0941434)
(-4.54624e-05 9.5198e-05 0.0823431)
(-3.15372e-05 7.18004e-05 0.0815909)
(0.000202116 -6.05311e-06 0.100851)
(0.000225936 1.99882e-05 0.0945597)
(0.000231412 -6.83601e-06 0.100853)
(0.000197708 1.89958e-05 0.0941438)
(-9.11129e-05 9.11503e-05 0.102398)
(9.11779e-05 -9.11258e-05 0.102398)
(-9.11304e-05 -9.11267e-05 0.102398)
(8.8888e-05 8.88862e-05 0.102765)
(-8.8899e-05 8.89455e-05 0.102765)
(8.89265e-05 -8.88962e-05 0.102765)
(-8.89261e-05 -8.89239e-05 0.102765)
(-0.000223665 1.03237e-05 0.102335)
(-0.000210931 0.000137077 0.101161)
(-0.000159033 3.06768e-05 0.102424)
(-0.000144833 8.4497e-05 0.102565)
(-0.000271135 9.89496e-06 0.102189)
(-0.000164549 0.00011579 0.101214)
(-0.000157342 3.03277e-05 0.102546)
(9.52542e-05 -4.50413e-05 0.0823398)
(7.17847e-05 -3.09153e-05 0.0815927)
(1.02425e-05 -0.000223638 0.102335)
(3.06847e-05 -0.000159026 0.102424)
(0.000138643 -0.000210682 0.101162)
(8.45149e-05 -0.000144831 0.102565)
(9.74376e-06 -0.000271034 0.102189)
(3.03208e-05 -0.000157318 0.102546)
(0.000116925 -0.000164166 0.101213)
(-0.000138074 -6.86094e-05 0.0991141)
(-6.86615e-05 -0.000138148 0.0991138)
(-8.09487e-05 -8.09592e-05 0.102593)
(-0.00012598 -5.0959e-05 0.0989318)
(-5.09996e-05 -0.000126063 0.0989306)
(-6.68684e-06 0.000190622 0.100665)
(2.06413e-05 0.000193954 0.0933118)
(-7.17043e-06 0.000221255 0.100688)
(1.7356e-05 0.000164963 0.0929273)
(-2.40489e-05 6.00099e-05 0.0803376)
(-1.34046e-05 4.16219e-05 0.0797848)
(0.000190621 -6.25954e-06 0.100664)
(0.000193364 2.08489e-05 0.0933106)
(0.000221272 -7.01743e-06 0.100689)
(0.000164571 1.79287e-05 0.0929275)
(-8.81188e-05 8.81645e-05 0.102885)
(8.82037e-05 -8.81301e-05 0.102885)
(-8.81625e-05 -8.8153e-05 0.102885)
(8.59863e-05 8.60252e-05 0.103238)
(-8.60094e-05 8.60476e-05 0.103238)
(8.60702e-05 -8.59941e-05 0.103238)
(-8.59708e-05 -8.59605e-05 0.103238)
(-0.000207992 1.00363e-05 0.10265)
(-0.000199258 0.000117956 0.101096)
(-0.000152217 2.93181e-05 0.102904)
(-0.000139283 8.07292e-05 0.103024)
(-0.000257482 9.12611e-06 0.102514)
(-0.000152351 9.64374e-05 0.101133)
(-0.000150512 2.90711e-05 0.10302)
(6.03659e-05 -2.41809e-05 0.0803337)
(4.23311e-05 -1.30639e-05 0.0797871)
(9.74158e-06 -0.00020788 0.10265)
(2.93258e-05 -0.000152206 0.102904)
(0.000118746 -0.000199323 0.101097)
(8.07548e-05 -0.000139282 0.103024)
(8.96994e-06 -0.000257386 0.102514)
(2.90466e-05 -0.000150487 0.103021)
(9.83662e-05 -0.000151917 0.101131)
(-0.000134644 -6.07296e-05 0.0984179)
(-6.0798e-05 -0.000134671 0.0984174)
(-7.11853e-05 -7.1207e-05 0.103024)
(-0.000120228 -4.41778e-05 0.0982146)
(-4.42068e-05 -0.000120319 0.0982132)
(-4.33088e-06 0.000176521 0.100405)
(1.50355e-05 0.000164888 0.0921482)
(-4.97702e-06 0.000207774 0.100448)
(8.70811e-06 0.000137975 0.0918037)
(-1.18812e-05 3.96496e-05 0.0788061)
(-2.79583e-06 2.45329e-05 0.0784003)
(0.000176945 -5.8409e-06 0.100403)
(0.000165836 1.34082e-05 0.0921464)
(0.000207769 -5.69642e-06 0.100449)
(0.000136472 9.91354e-06 0.0918034)
(-8.53062e-05 8.53741e-05 0.103353)
(8.5358e-05 -8.53217e-05 0.103353)
(-8.53788e-05 -8.53706e-05 0.103353)
(8.33937e-05 8.34584e-05 0.103692)
(-8.33961e-05 8.34285e-05 0.103692)
(8.34711e-05 -8.33472e-05 0.103692)
(-8.34904e-05 -8.34607e-05 0.103692)
(-0.000192548 9.63677e-06 0.102924)
(-0.000186472 0.000100843 0.100958)
(-0.000145572 2.82273e-05 0.103363)
(-0.000134297 7.76906e-05 0.103461)
(-0.000243498 8.79717e-06 0.102796)
(-0.00014097 8.29904e-05 0.100981)
(-0.000144001 2.79853e-05 0.103474)
(3.94138e-05 -1.21036e-05 0.0788021)
(2.5192e-05 -3.72133e-06 0.0784028)
(9.53206e-06 -0.000192366 0.102924)
(2.82347e-05 -0.000145569 0.103363)
(0.000100107 -0.000186756 0.100959)
(7.77587e-05 -0.000134333 0.103461)
(8.84965e-06 -0.000243459 0.102795)
(2.79847e-05 -0.000143989 0.103474)
(8.39787e-05 -0.00014084 0.100979)
(-0.000130216 -5.49547e-05 0.0976626)
(-5.4987e-05 -0.000130275 0.0976618)
(-6.30289e-05 -6.29863e-05 0.103428)
(-0.000114541 -4.04668e-05 0.0974504)
(-4.04165e-05 -0.000114435 0.0974486)
(-2.31736e-06 0.000162507 0.100088)
(8.99348e-06 0.00013877 0.0910833)
(-3.62393e-06 0.000193659 0.100145)
(3.09605e-06 0.000113024 0.0907821)