/*--------------------------------*- C++ -*----------------------------------*\
| =========                 |                                                 |
| \\      /  F ield         | OpenFOAM: The Open Source CFD Toolbox           |
|  \\    /   O peration     | Version:  v1906                                 |
|   \\  /    A nd           | Web:      www.OpenFOAM.com                      |
|    \\/     M anipulation  |                                                 |
\*---------------------------------------------------------------------------*/
FoamFile
{
    version     2.0;
    format      ascii;
    class       volScalarField;
    location    "50";
    object      epsilon;
}
// * * * * * * * * * * * * * * * * * * * * * * * * * * * * * * * * * * * * * //

dimensions      [0 2 -3 0 0 0 0];


internalField   nonuniform List<scalar> 
42616
(
4.95563e-07
4.9738e-07
4.97482e-07
4.99596e-07
4.45573e-07
4.5402e-07
4.54162e-07
4.63958e-07
4.03764e-07
4.18846e-07
4.18851e-07
4.39639e-07
3.68381e-07
3.88807e-07
3.88768e-07
4.17646e-07
3.38028e-07
3.62241e-07
3.62236e-07
3.95919e-07
3.11647e-07
3.38355e-07
3.38354e-07
3.74481e-07
2.88461e-07
3.16676e-07
3.16678e-07
3.53697e-07
2.67887e-07
2.96997e-07
2.97001e-07
3.3406e-07
2.49489e-07
2.79453e-07
2.79461e-07
3.17204e-07
2.33114e-07
2.64502e-07
2.64475e-07
3.04411e-07
2.19392e-07
2.5252e-07
2.52449e-07
2.94851e-07
2.09548e-07
2.44147e-07
2.44058e-07
2.88132e-07
2.03887e-07
2.39434e-07
2.39378e-07
2.82733e-07
2.01487e-07
2.37464e-07
2.37437e-07
2.80156e-07
2.00761e-07
2.36848e-07
2.3687e-07
2.79407e-07
2.00587e-07
2.36683e-07
2.36734e-07
2.792e-07
2.00508e-07
2.36638e-07
2.36669e-07
2.79123e-07
2.00486e-07
2.36612e-07
2.36636e-07
2.79077e-07
2.00493e-07
2.36605e-07
2.36601e-07
2.79039e-07
2.00494e-07
2.36607e-07
2.36597e-07
2.79015e-07
2.00493e-07
2.36628e-07
2.3659e-07
2.78979e-07
5.06392e-07
5.05548e-07
5.05565e-07
5.06402e-07
5.0556e-07
5.05556e-07
5.09649e-07
5.0965e-07
5.09647e-07
5.09649e-07
5.05567e-07
5.05557e-07
5.06398e-07
5.05533e-07
5.05563e-07
5.06387e-07
4.99624e-07
4.6749e-07
4.97424e-07
4.97385e-07
4.63869e-07
4.638e-07
4.99587e-07
4.67432e-07
4.974e-07
4.9758e-07
4.63838e-07
4.64108e-07
4.97382e-07
4.63959e-07
4.64174e-07
4.996e-07
4.67533e-07
4.97396e-07
4.64113e-07
4.63822e-07
4.67458e-07
4.63974e-07
4.4161e-07
4.5389e-07
4.53848e-07
4.26936e-07
4.26956e-07
4.63938e-07
4.41638e-07
4.53872e-07
4.54192e-07
4.26891e-07
4.2709e-07
4.54244e-07
4.27061e-07
4.27184e-07
4.64047e-07
4.41689e-07
4.53858e-07
4.27105e-07
4.26922e-07
4.41658e-07
4.39602e-07
4.19323e-07
4.18719e-07
4.18753e-07
3.95874e-07
3.95929e-07
4.39645e-07
4.19367e-07
4.18663e-07
4.18815e-07
3.95817e-07
3.95923e-07
4.18892e-07
3.95968e-07
3.95872e-07
4.39671e-07
4.19368e-07
4.1871e-07
3.95923e-07
3.95849e-07
4.19263e-07
4.17659e-07
3.9761e-07
3.88736e-07
3.88802e-07
3.68608e-07
3.68672e-07
4.17723e-07
3.97612e-07
3.88682e-07
3.88796e-07
3.68566e-07
3.68677e-07
3.88706e-07
3.68622e-07
3.68571e-07
4.1774e-07
3.97622e-07
3.88707e-07
3.68612e-07
3.68582e-07
3.97573e-07
3.95939e-07
3.76073e-07
3.62232e-07
3.62292e-07
3.44135e-07
3.44163e-07
3.95914e-07
3.76053e-07
3.62195e-07
3.62301e-07
3.4411e-07
3.44176e-07
3.6221e-07
3.44133e-07
3.44135e-07
3.95944e-07
3.76034e-07
3.62214e-07
3.44131e-07
3.44128e-07
3.75943e-07
3.74357e-07
3.55065e-07
3.38356e-07
3.38378e-07
3.21952e-07
3.21957e-07
3.74345e-07
3.55066e-07
3.38333e-07
3.38393e-07
3.21933e-07
3.21968e-07
3.3836e-07
3.21942e-07
3.21958e-07
3.74373e-07
3.55102e-07
3.38351e-07
3.21943e-07
3.21943e-07
3.54994e-07
3.53708e-07
3.35394e-07
3.16687e-07
3.16692e-07
3.01805e-07
3.01805e-07
3.53639e-07
3.35252e-07
3.16669e-07
3.16703e-07
3.01787e-07
3.01812e-07
3.16692e-07
3.01787e-07
3.01808e-07
3.53563e-07
3.35367e-07
3.16677e-07
3.01793e-07
3.0179e-07
3.35293e-07
3.33956e-07
3.1812e-07
2.97016e-07
2.97018e-07
2.83717e-07
2.83716e-07
3.34048e-07
3.18144e-07
2.96998e-07
2.97027e-07
2.83697e-07
2.83721e-07
2.97022e-07
2.83692e-07
2.83719e-07
3.34063e-07
3.18036e-07
2.97002e-07
2.83701e-07
2.837e-07
3.18094e-07
3.17264e-07
3.04983e-07
2.79481e-07
2.79486e-07
2.68096e-07
2.68082e-07
3.17059e-07
3.04918e-07
2.79464e-07
2.79492e-07
2.68091e-07
2.68111e-07
2.79487e-07
2.68084e-07
2.68095e-07
3.17266e-07
3.04912e-07
2.79468e-07
2.68075e-07
2.68086e-07
3.04764e-07
3.04267e-07
2.94971e-07
2.64521e-07
2.6451e-07
2.5533e-07
2.55325e-07
3.04512e-07
2.9516e-07
2.64525e-07
2.64547e-07
2.55355e-07
2.55363e-07
2.64524e-07
2.55344e-07
2.55332e-07
3.04447e-07
2.95333e-07
2.64522e-07
2.55278e-07
2.55368e-07
2.95042e-07
2.94833e-07
2.8805e-07
2.5253e-07
2.52544e-07
2.4603e-07
2.4603e-07
2.95047e-07
2.87964e-07
2.52567e-07
2.52572e-07
2.46059e-07
2.46034e-07
2.52533e-07
2.46022e-07
2.46009e-07
2.9465e-07
2.87904e-07
2.52586e-07
2.45943e-07
2.46084e-07
2.87963e-07
2.87897e-07
2.82948e-07
2.44235e-07
2.44223e-07
2.40567e-07
2.405e-07
2.87882e-07
2.82718e-07
2.44245e-07
2.4422e-07
2.40514e-07
2.40519e-07
2.442e-07
2.40471e-07
2.40537e-07
2.87817e-07
2.82856e-07
2.44286e-07
2.40403e-07
2.40585e-07
2.82657e-07
2.82976e-07
2.80051e-07
2.39649e-07
2.39582e-07
2.37943e-07
2.37904e-07
2.82777e-07
2.79938e-07
2.39583e-07
2.39606e-07
2.37889e-07
2.37927e-07
2.39621e-07
2.37859e-07
2.37912e-07
2.82955e-07
2.80094e-07
2.39654e-07
2.37824e-07
2.37923e-07
2.79923e-07
2.803e-07
2.79137e-07
2.37642e-07
2.37626e-07
2.37001e-07
2.37019e-07
2.80179e-07
2.79053e-07
2.37604e-07
2.37636e-07
2.36968e-07
2.37019e-07
2.37608e-07
2.36974e-07
2.36958e-07
2.80331e-07
2.79191e-07
2.37618e-07
2.36976e-07
2.3698e-07
2.791e-07
2.7945e-07
2.78907e-07
2.36971e-07
2.36978e-07
2.3676e-07
2.36765e-07
2.79355e-07
2.78762e-07
2.36955e-07
2.37016e-07
2.36742e-07
2.36817e-07
2.36922e-07
2.36742e-07
2.36673e-07
2.79503e-07
2.78964e-07
2.36948e-07
2.36788e-07
2.36734e-07
2.78872e-07
2.79234e-07
2.78841e-07
2.36775e-07
2.36777e-07
2.36676e-07
2.36673e-07
2.7912e-07
2.78699e-07
2.36744e-07
2.36813e-07
2.36667e-07
2.36716e-07
2.36711e-07
2.36649e-07
2.36609e-07
2.79297e-07
2.78823e-07
2.36769e-07
2.36684e-07
2.36666e-07
2.788e-07
2.79183e-07
2.78744e-07
2.3668e-07
2.36683e-07
2.36624e-07
2.3664e-07
2.79075e-07
2.78753e-07
2.36668e-07
2.36716e-07
2.36628e-07
2.36699e-07
2.36616e-07
2.36626e-07
2.36601e-07
2.79152e-07
2.78811e-07
2.36667e-07
2.36654e-07
2.36616e-07
2.78746e-07
2.79106e-07
2.78831e-07
2.36632e-07
2.36652e-07
2.36618e-07
2.36608e-07
2.79124e-07
2.7864e-07
2.36638e-07
2.36703e-07
2.36646e-07
2.36696e-07
2.3661e-07
2.36604e-07
2.36608e-07
2.79154e-07
2.78746e-07
2.36629e-07
2.36611e-07
2.36614e-07
2.78686e-07
2.7916e-07
2.78724e-07
2.36615e-07
2.3661e-07
2.36628e-07
2.3659e-07
2.78963e-07
2.78683e-07
2.36658e-07
2.36718e-07
2.36636e-07
2.36726e-07
2.36627e-07
2.36607e-07
2.36627e-07
2.79116e-07
2.78839e-07
2.36619e-07
2.36597e-07
2.36617e-07
2.78695e-07
2.79048e-07
2.78717e-07
2.36673e-07
2.36594e-07
2.3666e-07
2.36589e-07
2.7906e-07
2.78813e-07
2.36633e-07
2.3673e-07
2.36593e-07
2.36711e-07
2.36643e-07
2.36621e-07
2.36625e-07
2.79179e-07
2.78812e-07
2.36633e-07
2.36594e-07
2.36625e-07
2.78609e-07
2.79049e-07
2.36648e-07
2.3664e-07
2.79149e-07
2.36599e-07
2.36712e-07
2.3663e-07
2.79136e-07
2.36642e-07
5.35662e-07
5.35601e-07
5.35654e-07
5.35654e-07
5.34604e-07
5.35508e-07
5.33556e-07
5.35655e-07
5.34631e-07
5.35507e-07
5.35655e-07
5.33484e-07
5.35253e-07
5.36201e-07
5.36399e-07
1.10585e-06
3.85471e-06
9.3968e-07
4.59058e-06
1.26616e-05
1.66768e-05
1.10586e-06
3.85466e-06
9.40407e-07
4.59176e-06
4.95563e-07
4.95565e-07
4.95562e-07
4.57243e-07
4.57244e-07
4.57266e-07
4.57255e-07
5.4361e-07
1.22623e-06
4.95572e-07
4.85568e-07
5.2617e-07
1.21796e-06
4.82317e-07
1.26551e-05
1.6669e-05
5.43362e-07
4.95569e-07
1.27108e-06
4.85721e-07
5.25949e-07
4.82314e-07
1.24985e-06
2.52569e-06
2.52338e-06
4.84287e-07
2.39128e-06
2.38138e-06
1.42763e-06
5.58672e-06
1.32983e-06
6.13438e-06
2.13557e-05
2.31474e-05
1.42768e-06
5.58761e-06
1.32976e-06
6.13309e-06
4.45579e-07
4.45608e-07
4.45593e-07
4.1357e-07
4.13583e-07
4.13601e-07
4.13594e-07
5.87573e-07
1.20881e-06
4.46492e-07
4.44599e-07
5.74616e-07
1.21561e-06
4.35771e-07
2.13514e-05
2.3148e-05
5.87355e-07
4.46487e-07
1.21856e-06
4.44715e-07
5.74335e-07
4.35765e-07
1.21876e-06
2.30977e-06
2.29893e-06
4.53745e-07
2.3452e-06
2.33217e-06
1.65886e-06
6.92514e-06
1.59194e-06
7.32802e-06
2.46596e-05
2.49412e-05
1.65829e-06
6.9221e-06
1.59156e-06
7.32622e-06
4.03785e-07
4.03794e-07
4.03789e-07
3.7673e-07
3.76755e-07
3.76749e-07
3.76736e-07
6.15281e-07
1.24995e-06
4.06639e-07
4.10963e-07
6.08422e-07
1.27318e-06
3.97841e-07
2.46611e-05
2.4944e-05
6.15252e-07
4.06622e-07
1.25137e-06
4.10939e-07
6.08329e-07
3.97823e-07
1.27185e-06
2.4549e-06
2.45129e-06
4.30284e-07
2.51088e-06
2.51471e-06
1.80638e-06
7.85508e-06
1.7674e-06
8.10586e-06
2.47355e-05
2.44187e-05
1.80733e-06
7.85515e-06
1.7666e-06
8.10645e-06
3.6841e-07
3.68404e-07
3.68387e-07
3.45237e-07
3.45257e-07
3.45256e-07
3.45234e-07
6.25595e-07
1.31822e-06
3.73567e-07
3.8189e-07
6.24385e-07
1.33776e-06
3.6613e-07
2.47377e-05
2.4422e-05
6.25657e-07
3.73551e-07
1.31823e-06
3.81862e-07
6.24296e-07
3.66119e-07
1.33845e-06
2.61679e-06
2.62456e-06
4.08386e-07
2.6639e-06
2.67102e-06
1.88904e-06
8.40091e-06
1.86832e-06
8.53192e-06
2.3695e-05
2.3258e-05
1.88895e-06
8.40197e-06
1.86745e-06
8.53322e-06
3.38051e-07
3.38052e-07
3.38031e-07
3.17954e-07
3.17967e-07
3.17969e-07
3.17958e-07
6.21315e-07
1.37782e-06
3.453e-07
3.56065e-07
6.24523e-07
1.39303e-06
3.38845e-07
2.36966e-05
2.32607e-05
6.21335e-07
3.45294e-07
1.37749e-06
3.56061e-07
6.24545e-07
3.38841e-07
1.39167e-06
2.75707e-06
2.75944e-06
3.86729e-07
2.80021e-06
2.80441e-06
1.92588e-06
8.66362e-06
1.91742e-06
8.7168e-06
2.2507e-05
2.21126e-05
1.92665e-06
8.66484e-06
1.91778e-06
8.71832e-06
3.11661e-07
3.11664e-07
3.11655e-07
2.94043e-07
2.94047e-07
2.9405e-07
2.94048e-07
6.07966e-07
1.42111e-06
3.20527e-07
3.3277e-07
6.14626e-07
1.43192e-06
3.14811e-07
2.25083e-05
2.21152e-05
6.07991e-07
3.20522e-07
1.42146e-06
3.3277e-07
6.14654e-07
3.14808e-07
1.43241e-06
2.89488e-06
2.8947e-06
3.65366e-07
2.94272e-06
2.94303e-06
1.9455e-06
8.75575e-06
1.94132e-06
8.76645e-06
2.14807e-05
2.11681e-05
1.9458e-06
8.75714e-06
1.94121e-06
8.76786e-06
2.88467e-07
2.8847e-07
2.88467e-07
2.72882e-07
2.7288e-07
2.72884e-07
2.72882e-07
5.91172e-07
1.45531e-06
2.98417e-07
3.11618e-07
5.98898e-07
1.46655e-06
2.93297e-07
2.1482e-05
2.11707e-05
5.91407e-07
2.98416e-07
1.4554e-06
3.11622e-07
5.98869e-07
2.93297e-07
1.46468e-06
3.04996e-06
3.05062e-06
3.44921e-07
3.10458e-06
3.10542e-06
1.96237e-06
8.76634e-06
1.95743e-06
8.76315e-06
2.06861e-05
2.04733e-05
1.963e-06
8.76773e-06
1.95741e-06
8.76441e-06
2.6789e-07
2.67893e-07
2.67892e-07
2.53998e-07
2.53991e-07
2.53994e-07
2.53994e-07
5.7532e-07
1.49243e-06
2.78471e-07
2.92461e-07
5.81907e-07
1.50537e-06
2.73866e-07
2.06872e-05
2.04753e-05
5.7557e-07
2.78471e-07
1.49251e-06
2.92467e-07
5.81593e-07
2.73868e-07
1.50398e-06
3.23097e-06
3.23169e-06
3.26222e-07
3.29886e-06
3.29958e-06
1.98787e-06
8.75076e-06
1.97901e-06
8.74122e-06
2.01786e-05
2.00702e-05
1.98688e-06
8.75209e-06
1.9791e-06
8.74269e-06
2.49494e-07
2.49499e-07
2.49497e-07
2.37123e-07
2.37127e-07
2.37131e-07
2.37131e-07
5.66022e-07
1.53803e-06
2.60491e-07
2.75552e-07
5.69533e-07
1.55649e-06
2.56421e-07
2.01796e-05
2.00719e-05
5.66322e-07
2.6049e-07
1.53945e-06
2.75559e-07
5.69226e-07
2.56423e-07
1.55752e-06
3.43887e-06
3.43896e-06
3.1097e-07
3.4955e-06
3.49755e-06
2.01371e-06
8.71691e-06
2.00666e-06
8.70674e-06
1.99115e-05
1.98561e-05
2.01533e-06
8.7205e-06
2.00803e-06
8.71006e-06
2.33145e-07
2.33149e-07
2.3315e-07
2.22663e-07
2.22706e-07
2.22709e-07
2.22712e-07
5.61491e-07
1.5871e-06
2.44676e-07
2.61338e-07
5.64008e-07
1.59619e-06
2.41248e-07
1.99142e-05
1.98592e-05
5.61862e-07
2.44666e-07
1.58863e-06
2.61294e-07
5.64034e-07
2.41234e-07
1.59558e-06
3.57071e-06
3.57313e-06
2.99733e-07
3.59941e-06
3.59644e-06
2.01928e-06
8.6931e-06
2.02019e-06
8.69131e-06
1.97849e-05
1.97668e-05
2.02031e-06
8.69844e-06
2.02148e-06
8.69422e-06
2.19482e-07
2.19484e-07
2.1949e-07
2.1178e-07
2.11859e-07
2.11857e-07
2.1187e-07
5.55018e-07
1.61313e-06
2.31575e-07
2.50233e-07
5.58739e-07
1.61927e-06
2.29011e-07
1.97864e-05
1.97679e-05
5.55967e-07
2.31551e-07
1.6123e-06
2.50164e-07
5.58861e-07
2.2899e-07
1.61885e-06
3.6282e-06
3.62823e-06
2.91102e-07
3.64563e-06
3.64213e-06
2.01789e-06
8.69275e-06
2.01998e-06
8.69188e-06
1.97467e-05
1.97425e-05
2.01911e-06
8.69433e-06
2.0204e-06
8.69274e-06
2.09713e-07
2.09708e-07
2.09724e-07
2.05142e-07
2.05241e-07
2.0524e-07
2.05265e-07
5.49915e-07
1.62734e-06
2.22114e-07
2.4284e-07
5.52776e-07
1.62816e-06
2.20585e-07
1.97467e-05
1.97414e-05
5.50751e-07
2.221e-07
1.62657e-06
2.42757e-07
5.52871e-07
2.20573e-07
1.62723e-06
3.68147e-06
3.67399e-06
2.85375e-07
3.68741e-06
3.68621e-06
2.01843e-06
8.68542e-06
2.01906e-06
8.68228e-06
1.97275e-05
1.97226e-05
2.01936e-06
8.68448e-06
2.02054e-06
8.67997e-06
2.04122e-07
2.04121e-07
2.04143e-07
2.0198e-07
2.02037e-07
2.02042e-07
2.02051e-07
5.48232e-07
1.63245e-06
2.16589e-07
2.38971e-07
5.49218e-07
1.63176e-06
2.15983e-07
1.97311e-05
1.97299e-05
5.48312e-07
2.16582e-07
1.63136e-06
2.38916e-07
5.49376e-07
2.15977e-07
1.63054e-06
3.70093e-06
3.69617e-06
2.80978e-07
3.70113e-06
3.69359e-06
2.02016e-06
8.68104e-06
2.02024e-06
8.67881e-06
1.97155e-05
1.97138e-05
2.02088e-06
8.67806e-06
2.02123e-06
8.67765e-06
2.01687e-07
2.0168e-07
2.01696e-07
2.00931e-07
2.0092e-07
2.00908e-07
2.00912e-07
5.4737e-07
1.63283e-06
2.1415e-07
2.37355e-07
5.47912e-07
1.63118e-06
2.13983e-07
1.9727e-05
1.97266e-05
5.47537e-07
2.14173e-07
1.63197e-06
2.37321e-07
5.47941e-07
2.14017e-07
1.63073e-06
3.70128e-06
3.69722e-06
2.79364e-07
3.69813e-06
3.69711e-06
2.02189e-06
8.67877e-06
2.02254e-06
8.67817e-06
1.97105e-05
1.97117e-05
2.02129e-06
8.68015e-06
2.02217e-06
8.68168e-06
2.00889e-07
2.00893e-07
2.00869e-07
2.00652e-07
2.00633e-07
2.00654e-07
2.00598e-07
5.46902e-07
1.63194e-06
2.13345e-07
2.36866e-07
5.47291e-07
1.63044e-06
2.13341e-07
1.97242e-05
1.97258e-05
5.47051e-07
2.13397e-07
1.63173e-06
2.36862e-07
5.47568e-07
2.13375e-07
1.63031e-06
3.69744e-06
3.69566e-06
2.7894e-07
3.69622e-06
3.69121e-06
2.02212e-06
8.67706e-06
2.02307e-06
8.67621e-06
1.97127e-05
1.97169e-05
2.02135e-06
8.68078e-06
2.02225e-06
8.67863e-06
2.00651e-07
2.00639e-07
2.00652e-07
2.00546e-07
2.00541e-07
2.00549e-07
2.00526e-07
5.4661e-07
1.63145e-06
2.13111e-07
2.36706e-07
5.47038e-07
1.63006e-06
2.13171e-07
1.97274e-05
1.97298e-05
5.4662e-07
2.13169e-07
1.63124e-06
2.36737e-07
5.46963e-07
2.13187e-07
1.62996e-06
3.69985e-06
3.69191e-06
2.78788e-07
3.69381e-06
3.69089e-06
2.02156e-06
8.6756e-06
2.02279e-06
8.67654e-06
1.97191e-05
1.97191e-05
2.02141e-06
8.67525e-06
2.02243e-06
8.67399e-06
2.0055e-07
2.00553e-07
2.00536e-07
2.00494e-07
2.00503e-07
2.00512e-07
2.00494e-07
5.46645e-07
1.63117e-06
2.13064e-07
2.36637e-07
5.46881e-07
1.63e-06
2.13095e-07
1.97317e-05
1.97338e-05
5.4633e-07
2.13093e-07
1.63092e-06
2.36681e-07
5.46738e-07
2.13118e-07
1.62959e-06
3.69187e-06
3.68822e-06
2.78759e-07
3.69625e-06
3.68244e-06
2.02099e-06
8.6748e-06
2.0222e-06
8.67394e-06
1.97148e-05
1.97125e-05
2.02036e-06
8.677e-06
2.02171e-06
8.67559e-06
2.00521e-07
2.00531e-07
2.00511e-07
2.00498e-07
2.00495e-07
2.00504e-07
2.0049e-07
5.46676e-07
1.63142e-06
2.13082e-07
2.36603e-07
5.46872e-07
1.63028e-06
2.13081e-07
1.97355e-05
1.97378e-05
5.4612e-07
2.13088e-07
1.63048e-06
2.36645e-07
5.46475e-07
2.13087e-07
1.62928e-06
3.69822e-06
3.6897e-06
2.78689e-07
3.69761e-06
3.69515e-06
2.0206e-06
8.6757e-06
2.02178e-06
8.67484e-06
1.97119e-05
1.97145e-05
2.01962e-06
8.67709e-06
2.02079e-06
8.67472e-06
2.00495e-07
2.0051e-07
2.0049e-07
2.00495e-07
2.00487e-07
2.00502e-07
2.00486e-07
5.46818e-07
1.63132e-06
2.13087e-07
2.36606e-07
5.47047e-07
1.62992e-06
2.13095e-07
1.97392e-05
1.97413e-05
5.46163e-07
2.13077e-07
1.63062e-06
2.36604e-07
5.46334e-07
2.1308e-07
1.62943e-06
3.70173e-06
3.70358e-06
2.78671e-07
3.69991e-06
3.70392e-06
2.02038e-06
8.67554e-06
2.02141e-06
8.67559e-06
1.97145e-05
1.9715e-05
2.01932e-06
8.6744e-06
2.02032e-06
8.67431e-06
2.00487e-07
2.00501e-07
2.00493e-07
2.00494e-07
2.00486e-07
2.00498e-07
2.00484e-07
5.46769e-07
1.63109e-06
2.13106e-07
2.36617e-07
5.47053e-07
1.62991e-06
2.13117e-07
1.97429e-05
1.97448e-05
5.46038e-07
2.13075e-07
1.63079e-06
2.36595e-07
5.46438e-07
2.13079e-07
1.62979e-06
3.69611e-06
3.70159e-06
2.78688e-07
3.69534e-06
3.69862e-06
2.02064e-06
8.67383e-06
2.02157e-06
8.67312e-06
1.97099e-05
1.97084e-05
8.6747e-06
2.02036e-06
8.67422e-06
2.00469e-07
2.00498e-07
2.00505e-07
5.46751e-07
1.63108e-06
2.13127e-07
2.36648e-07
5.46969e-07
1.62976e-06
2.13137e-07
1.97446e-05
5.45627e-07
2.13071e-07
1.63149e-06
5.46023e-07
2.13079e-07
3.70104e-06
3.70039e-06
2.78633e-07
3.69991e-06
3.69862e-06
5.35266e-07
5.35725e-07
5.35332e-07
1.09585e-05
5.823e-07
1.09788e-05
5.81447e-07
5.28213e-07
2.46454e-06
2.44508e-06
5.42359e-07
5.42948e-07
5.34629e-07
5.35515e-07
5.33346e-07
5.35655e-07
5.34625e-07
5.35514e-07
5.33447e-07
5.35655e-07
5.30383e-07
3.4488e-06
5.91588e-07
8.2573e-07
5.30379e-07
3.45984e-06
5.85862e-07
8.25442e-07
5.29323e-07
5.28387e-07
1.17788e-06
5.09598e-07
5.32797e-07
5.28352e-07
5.19465e-07
5.29335e-07
5.28386e-07
1.17306e-06
5.09598e-07
5.32755e-07
5.28352e-07
5.19464e-07
5.35257e-07
5.3537e-07
5.35304e-07
1.09802e-05
5.81126e-07
5.2822e-07
2.44734e-06
2.44453e-06
5.43218e-07
5.4304e-07
1.09789e-05
5.81145e-07
5.3462e-07
5.35514e-07
5.3347e-07
5.35655e-07
5.34626e-07
5.35501e-07
5.35655e-07
5.3336e-07
5.3039e-07
3.45868e-06
5.70124e-07
8.27101e-07
5.29357e-07
5.28387e-07
1.18824e-06
5.096e-07
5.32971e-07
5.28352e-07
5.19571e-07
5.30429e-07
3.47595e-06
5.79176e-07
8.25761e-07
5.29332e-07
5.28416e-07
5.09599e-07
1.34413e-06
5.28351e-07
5.33621e-07
5.19498e-07
5.35662e-07
5.35601e-07
5.35654e-07
5.35654e-07
5.35662e-07
5.356e-07
5.35654e-07
5.35654e-07
5.35662e-07
5.356e-07
5.35654e-07
5.35654e-07
5.28436e-07
5.28376e-07
5.0973e-07
5.0973e-07
5.2841e-07
5.2841e-07
5.09784e-07
5.28436e-07
5.28376e-07
5.0973e-07
5.0973e-07
5.2841e-07
5.2841e-07
5.09786e-07
5.28436e-07
5.28377e-07
5.0973e-07
5.0973e-07
5.2841e-07
5.2841e-07
5.09786e-07
5.28436e-07
5.28377e-07
5.0973e-07
5.0973e-07
5.2841e-07
5.2841e-07
5.09787e-07
5.34628e-07
5.35507e-07
5.35655e-07
5.33447e-07
5.29402e-07
5.28395e-07
1.17774e-06
5.096e-07
5.32449e-07
5.28352e-07
5.19488e-07
5.30396e-07
3.45997e-06
5.6467e-07
8.2621e-07
5.29326e-07
5.28403e-07
5.09598e-07
1.16963e-06
5.28351e-07
5.32788e-07
5.19502e-07
5.30396e-07
3.45653e-06
5.68799e-07
8.25504e-07
5.35259e-07
5.35211e-07
5.35337e-07
1.09644e-05
5.81537e-07
5.28219e-07
2.46345e-06
2.44842e-06
5.41331e-07
5.40572e-07
1.09505e-05
5.81145e-07
5.34629e-07
5.35512e-07
5.35655e-07
5.33014e-07
5.29323e-07
5.28396e-07
5.09599e-07
1.21467e-06
5.28351e-07
5.32571e-07
5.1947e-07
5.29309e-07
5.28388e-07
5.09599e-07
1.17724e-06
5.28352e-07
5.33686e-07
5.19557e-07
5.30372e-07
3.44479e-06
5.69235e-07
8.25938e-07
5.3033e-07
3.44977e-06
5.92041e-07
8.27003e-07
5.28215e-07
2.43815e-06
2.43981e-06
5.40117e-07
5.43072e-07
1.09736e-05
5.8106e-07
1.09736e-05
5.81612e-07
1.26249e-05
1.66728e-05
1.26604e-05
1.66771e-05
2.57085e-06
2.53343e-06
4.8438e-07
2.41156e-06
2.38532e-06
2.06146e-05
1.77836e-05
2.06173e-05
1.77855e-05
4.79541e-07
2.30975e-06
2.30568e-06
2.37316e-06
2.35331e-06
1.10531e-06
3.86085e-06
9.39351e-07
4.59827e-06
5.43386e-07
1.23356e-06
4.95573e-07
4.8562e-07
5.26011e-07
1.2161e-06
4.82316e-07
5.4325e-07
1.22712e-06
4.9557e-07
4.85551e-07
5.25974e-07
1.21183e-06
4.8231e-07
1.16227e-06
5.39912e-06
4.79751e-06
1.28029e-06
1.16212e-06
5.40616e-06
4.80523e-06
1.28022e-06
5.51428e-07
4.74426e-07
1.19954e-06
4.5779e-07
1.21207e-06
4.69719e-07
5.66848e-07
5.51305e-07
4.74348e-07
1.19864e-06
4.5778e-07
1.20644e-06
4.69711e-07
5.6677e-07
2.53606e-06
2.53287e-06
4.84272e-07
2.3866e-06
2.38601e-06
1.26514e-05
1.66771e-05
2.06117e-05
1.77847e-05
4.79442e-07
2.30575e-06
2.30682e-06
2.35426e-06
2.35542e-06
2.06192e-05
1.77874e-05
5.43384e-07
1.22734e-06
4.95572e-07
4.85575e-07
5.26096e-07
1.21379e-06
4.82313e-07
1.10643e-06
3.87786e-06
9.39554e-07
4.60201e-06
5.43604e-07
4.95572e-07
1.32778e-06
4.85733e-07
5.25999e-07
4.82319e-07
1.24396e-06
1.16226e-06
5.40023e-06
4.79864e-06
1.28028e-06
5.51415e-07
4.74381e-07
1.1987e-06
4.57789e-07
1.20944e-06
4.69715e-07
5.66911e-07
1.16315e-06
5.40717e-06
4.80734e-06
1.28125e-06
5.51789e-07
4.74569e-07
4.57824e-07
1.21701e-06
4.69735e-07
1.23466e-06
5.67415e-07
1.1063e-06
3.86313e-06
9.4022e-07
4.59741e-06
5.43549e-07
4.95569e-07
1.23886e-06
4.85673e-07
5.25982e-07
4.82318e-07
1.24579e-06
1.10629e-06
3.85709e-06
9.39292e-07
4.6002e-06
5.51719e-07
4.74444e-07
1.20777e-06
4.57814e-07
1.21415e-06
4.69731e-07
5.67247e-07
1.16283e-06
5.40408e-06
4.80339e-06
1.28073e-06
5.51693e-07
4.74625e-07
4.57817e-07
1.22836e-06
4.69735e-07
1.24249e-06
5.67155e-07
1.16288e-06
5.40829e-06
4.80761e-06
1.28087e-06
2.54893e-06
2.53155e-06
4.84317e-07
2.38923e-06
2.38174e-06
1.26517e-05
1.66696e-05
2.06067e-05
1.77742e-05
4.79493e-07
2.30773e-06
2.30171e-06
2.35845e-06
2.34969e-06
2.06144e-05
1.77815e-05
5.43588e-07
4.95574e-07
1.23017e-06
4.85569e-07
5.26141e-07
4.82317e-07
1.21314e-06
1.10574e-06
3.86235e-06
9.39128e-07
4.60189e-06
1.10689e-06
3.85649e-06
9.40401e-07
4.59217e-06
5.51414e-07
4.74598e-07
4.5781e-07
1.21986e-06
4.69726e-07
1.24151e-06
5.66953e-07
5.51594e-07
4.74368e-07
4.57794e-07
1.19809e-06
4.6972e-07
1.20751e-06
5.6708e-07
1.16179e-06
5.41592e-06
4.81182e-06
1.28023e-06
1.1628e-06
5.39992e-06
4.79866e-06
1.28097e-06
1.26485e-05
1.66699e-05
1.26663e-05
1.66755e-05
4.79439e-07
2.30717e-06
2.29716e-06
2.35641e-06
2.34698e-06
2.06071e-05
1.77784e-05
2.06068e-05
1.77826e-05
2.13557e-05
2.31485e-05
2.13598e-05
2.31538e-05
2.31076e-06
2.30875e-06
4.53713e-07
2.34686e-06
2.34622e-06
2.44906e-05
2.3571e-05
2.44956e-05
2.35758e-05
4.51128e-07
2.4321e-06
2.43255e-06
2.3711e-06
2.372e-06
1.42765e-06
5.5937e-06
1.32979e-06
6.13994e-06
5.87324e-07
1.20097e-06
4.46459e-07
4.44467e-07
5.7423e-07
1.21057e-06
4.35734e-07
5.87315e-07
1.20089e-06
4.46452e-07
4.44447e-07
5.74178e-07
1.20985e-06
4.35729e-07
1.47242e-06
6.78304e-06
6.30182e-06
1.55373e-06
1.47241e-06
6.78632e-06
6.3069e-06
1.55402e-06
5.93391e-07
4.35488e-07
1.23825e-06
4.15846e-07
1.2178e-06
4.25528e-07
6.03635e-07
5.93396e-07
4.35491e-07
1.23741e-06
4.15848e-07
1.2197e-06
4.25526e-07
6.03713e-07
2.30857e-06
2.30946e-06
4.5371e-07
2.34581e-06
2.34584e-06
2.13591e-05
2.31485e-05
2.44923e-05
2.35717e-05
4.51135e-07
2.43067e-06
2.42959e-06
2.37072e-06
2.37008e-06
2.44876e-05
2.35698e-05
5.87373e-07
1.20049e-06
4.4646e-07
4.44443e-07
5.74297e-07
1.2088e-06
4.35736e-07
1.42833e-06
5.59456e-06
1.33067e-06
6.1414e-06
5.8769e-07
4.46508e-07
1.21748e-06
4.44743e-07
5.74754e-07
4.35782e-07
1.21963e-06
1.47193e-06
6.77996e-06
6.29986e-06
1.55349e-06
5.93417e-07
4.35455e-07
1.23731e-06
4.15846e-07
1.21792e-06
4.25527e-07
6.03497e-07
1.4725e-06
6.78804e-06
6.30804e-06
1.55393e-06
5.93674e-07
4.35709e-07
4.1588e-07
1.24038e-06
4.25571e-07
1.22345e-06
6.03664e-07
1.42787e-06
5.59104e-06
1.33007e-06
6.13728e-06
5.87499e-07
4.46497e-07
1.2262e-06
4.44814e-07
5.74484e-07
4.35775e-07
1.22423e-06
1.42791e-06
5.59562e-06
1.3303e-06
6.14585e-06
5.93685e-07
4.35617e-07
1.23984e-06
4.15886e-07
1.22117e-06
4.25566e-07
6.03696e-07
1.47227e-06
6.78475e-06
6.304e-06
1.55366e-06
5.93514e-07
4.35799e-07
4.1588e-07
1.24198e-06
4.25568e-07
1.22866e-06
6.03748e-07
1.4725e-06
6.79934e-06
6.31462e-06
1.55416e-06
2.31018e-06
2.30457e-06
4.5381e-07
2.34637e-06
2.34137e-06
2.13561e-05
2.31461e-05
2.44942e-05
2.35719e-05
4.51214e-07
2.43069e-06
2.42849e-06
2.37076e-06
2.3674e-06
2.44866e-05
2.35685e-05
5.87426e-07
4.46467e-07
1.1998e-06
4.44442e-07
5.7445e-07
4.35744e-07
1.2076e-06
1.42781e-06
5.60209e-06
1.32974e-06
6.14296e-06
1.42797e-06
5.58694e-06
1.33031e-06
6.13285e-06
5.93524e-07
4.35698e-07
4.15874e-07
1.23996e-06
4.25556e-07
1.22513e-06
6.03579e-07
5.93619e-07
4.35468e-07
4.15858e-07
1.23529e-06
4.25539e-07
1.21689e-06
6.03591e-07
1.47209e-06
6.78413e-06
6.30782e-06
1.55366e-06
1.47233e-06
6.78049e-06
6.29962e-06
1.55379e-06
2.13496e-05
2.31429e-05
2.13493e-05
2.31443e-05
4.51171e-07
2.42614e-06
2.41847e-06
2.36836e-06
2.35514e-06
2.44863e-05
2.35663e-05
2.44882e-05
2.35682e-05
2.4658e-05
2.49416e-05
2.46625e-05
2.49463e-05
2.46207e-06
2.46323e-06
4.30292e-07
2.52147e-06
2.52193e-06
2.48353e-05
2.49411e-05
2.48403e-05
2.49457e-05
4.2859e-07
2.60023e-06
2.60199e-06
2.54927e-06
2.55105e-06
1.65842e-06
6.92788e-06
1.59182e-06
7.32966e-06
6.1521e-07
1.24864e-06
4.06599e-07
4.10839e-07
6.08191e-07
1.27193e-06
3.97803e-07
6.15445e-07
1.25009e-06
4.06606e-07
4.1088e-07
6.08174e-07
1.27101e-06
3.97811e-07
1.68991e-06
7.76667e-06
7.4429e-06
1.74242e-06
1.69013e-06
7.76835e-06
7.44427e-06
1.74258e-06
6.18546e-07
4.03215e-07
1.30617e-06
3.81309e-07
1.28428e-06
3.89363e-07
6.22457e-07
6.18431e-07
4.03265e-07
1.30589e-06
3.81322e-07
1.28445e-06
3.89375e-07
6.22687e-07
2.46082e-06
2.46015e-06
4.30339e-07
2.51865e-06
2.51903e-06
2.46541e-05
2.49379e-05
2.48337e-05
2.49403e-05
4.2863e-07
2.59855e-06
2.59879e-06
2.54787e-06
2.54797e-06
2.48323e-05
2.49375e-05
6.15226e-07
1.24797e-06
4.06596e-07
4.10779e-07
6.08289e-07
1.27067e-06
3.978e-07
1.65904e-06
6.9294e-06
1.59203e-06
7.33163e-06
6.15305e-07
4.06625e-07
1.24961e-06
4.10901e-07
6.08404e-07
3.97822e-07
1.27079e-06
1.68936e-06
7.76652e-06
7.44141e-06
1.74279e-06
6.18492e-07
4.03156e-07
1.30651e-06
3.81304e-07
1.28468e-06
3.89358e-07
6.22656e-07
1.68954e-06
7.76984e-06
7.44601e-06
1.74217e-06
6.18615e-07
4.03268e-07
3.81325e-07
1.3057e-06
3.89381e-07
1.28455e-06
6.22687e-07
1.6583e-06
6.92625e-06
1.59195e-06
7.32817e-06
6.15367e-07
4.06624e-07
1.25331e-06
4.10938e-07
6.08169e-07
3.97812e-07
1.27285e-06
1.6587e-06
6.94191e-06
1.59198e-06
7.34467e-06
6.18608e-07
4.0333e-07
1.30764e-06
3.81338e-07
1.28423e-06
3.89397e-07
6.22681e-07
1.69005e-06
7.76551e-06
7.44199e-06
1.74309e-06
6.18396e-07
4.03258e-07
3.81295e-07
1.3068e-06
3.89361e-07
1.28586e-06
6.22676e-07
1.69031e-06
7.78072e-06
7.45867e-06
1.74316e-06
2.46146e-06
2.45896e-06
4.30352e-07
2.51939e-06
2.519e-06
2.46542e-05
2.49384e-05
2.48367e-05
2.49433e-05
4.2865e-07
2.59922e-06
2.59972e-06
2.54888e-06
2.54695e-06
2.48342e-05
2.49379e-05
6.15249e-07
4.06611e-07
1.248e-06
4.10827e-07
6.08367e-07
3.97812e-07
1.27037e-06
1.65882e-06
6.92494e-06
1.59186e-06
7.32575e-06
1.6587e-06
6.9225e-06
1.59178e-06
7.32606e-06
6.18518e-07
4.03288e-07
3.81321e-07
1.30712e-06
3.89376e-07
1.28428e-06
6.22694e-07
6.18516e-07
4.03199e-07
3.81313e-07
1.30549e-06
3.8937e-07
1.28382e-06
6.22656e-07
1.68969e-06
7.76395e-06
7.43978e-06
1.74249e-06
1.68952e-06
7.76581e-06
7.44086e-06
1.74218e-06
2.46543e-05
2.49382e-05
2.46562e-05
2.49411e-05
4.28562e-07
2.59044e-06
2.59829e-06
2.53887e-06
2.54543e-06
2.48344e-05
2.49378e-05
2.48362e-05
2.49407e-05
2.47371e-05
2.44209e-05
2.4741e-05
2.44249e-05
2.62652e-06
2.62719e-06
4.08472e-07
2.67128e-06
2.67262e-06
2.38614e-05
2.42722e-05
2.38648e-05
2.42757e-05
4.06768e-07
2.73737e-06
2.73796e-06
2.69498e-06
2.69577e-06
1.80731e-06
7.85666e-06
1.76704e-06
8.10756e-06
6.25627e-07
1.31952e-06
3.73546e-07
3.81844e-07
6.24457e-07
1.33882e-06
3.66114e-07
6.25626e-07
1.31919e-06
3.73562e-07
3.81912e-07
6.24287e-07
1.33881e-06
3.6613e-07
1.82613e-06
8.35628e-06
8.17045e-06
1.85387e-06
1.82523e-06
8.35777e-06
8.17213e-06
1.85525e-06
6.26042e-07
3.75116e-07
1.3675e-06
3.52011e-07
1.3511e-06
3.58917e-07
6.24794e-07
6.25984e-07
3.75187e-07
1.36777e-06
3.52025e-07
1.35125e-06
3.58934e-07
6.24804e-07
2.6247e-06
2.62511e-06
4.08463e-07
2.67025e-06
2.6697e-06
2.4735e-05
2.44203e-05
2.38605e-05
2.42714e-05
4.06838e-07
2.73649e-06
2.73595e-06
2.69426e-06
2.69441e-06
2.38618e-05
2.42716e-05
6.25606e-07
1.31969e-06
3.73539e-07
3.81794e-07
6.24246e-07
1.33914e-06
3.66108e-07
1.80643e-06
7.85789e-06
1.76721e-06
8.1085e-06
6.25613e-07
3.73563e-07
1.31876e-06
3.8191e-07
6.243e-07
3.66132e-07
1.33989e-06
1.82497e-06
8.35737e-06
8.1713e-06
1.85508e-06
6.25964e-07
3.7507e-07
1.36913e-06
3.52006e-07
1.35147e-06
3.58909e-07
6.24813e-07
1.82593e-06
8.35854e-06
8.17298e-06
1.85505e-06
6.2597e-07
3.75189e-07
3.52029e-07
1.36758e-06
3.58936e-07
1.35041e-06
6.24787e-07
1.8076e-06
7.85329e-06
1.76649e-06
8.10457e-06
6.25643e-07
3.73525e-07
1.31994e-06
3.81801e-07
6.24268e-07
3.66089e-07
1.33935e-06
1.80763e-06
7.86841e-06
1.76724e-06
8.11693e-06
6.25961e-07
3.75144e-07
1.36687e-06
3.5202e-07
1.35067e-06
3.58928e-07
6.24734e-07
1.82498e-06
8.35571e-06
8.16926e-06
1.85533e-06
6.26014e-07
3.75074e-07
3.51989e-07
1.36993e-06
3.58893e-07
1.35191e-06
6.24792e-07
1.82572e-06
8.36395e-06
8.18084e-06
1.85558e-06
2.62562e-06
2.62421e-06
4.08496e-07
2.67022e-06
2.67113e-06
2.47359e-05
2.44203e-05
2.38635e-05
2.42734e-05
4.06842e-07
2.73676e-06
2.73671e-06
2.69479e-06
2.6938e-06
2.3862e-05
2.4273e-05
6.25629e-07
3.73548e-07
1.31877e-06
3.81811e-07
6.24278e-07
3.66114e-07
1.33838e-06
1.80668e-06
7.85213e-06
1.76734e-06
8.10422e-06
1.80665e-06
7.85425e-06
1.76716e-06
8.10584e-06
6.26028e-07
3.75126e-07
3.52014e-07
1.36867e-06
3.58918e-07
1.35028e-06
6.24868e-07
6.25993e-07
3.75087e-07
3.5201e-07
1.36871e-06
3.58917e-07
1.35017e-06
6.24832e-07
1.82622e-06
8.35601e-06
8.16911e-06
1.85422e-06
1.826e-06
8.35701e-06
8.17076e-06
1.85408e-06
2.47372e-05
2.44232e-05
2.47382e-05
2.44212e-05
4.06725e-07
2.73295e-06
2.7379e-06
2.68898e-06
2.69397e-06
2.38658e-05
2.42763e-05
2.38619e-05
2.42734e-05
2.36949e-05
2.3258e-05
2.36973e-05
2.32608e-05
2.76024e-06
2.76117e-06
3.86794e-07
2.80253e-06
2.80399e-06
2.26654e-05
2.30905e-05
2.26678e-05
2.30921e-05
3.85052e-07
2.87142e-06
2.872e-06
2.82581e-06
2.82585e-06
1.88884e-06
8.40215e-06
1.86742e-06
8.53305e-06
6.21232e-07
1.3786e-06
3.45293e-07
3.56062e-07
6.24512e-07
1.39186e-06
3.38837e-07
6.21196e-07
1.37888e-06
3.45307e-07
3.56108e-07
6.24477e-07
1.39215e-06
3.38848e-07
1.89731e-06
8.64736e-06
8.56038e-06
1.91134e-06
1.89719e-06
8.64805e-06
8.5612e-06
1.91168e-06
6.20687e-07
3.49999e-07
1.41259e-06
3.26468e-07
1.40192e-06
3.32531e-07
6.15261e-07
6.20709e-07
3.50038e-07