/*--------------------------------*- C++ -*----------------------------------*\
| =========                 |                                                 |
| \\      /  F ield         | OpenFOAM: The Open Source CFD Toolbox           |
|  \\    /   O peration     | Version:  v1906                                 |
|   \\  /    A nd           | Web:      www.OpenFOAM.com                      |
|    \\/     M anipulation  |                                                 |
\*---------------------------------------------------------------------------*/
FoamFile
{
    version     2.0;
    format      ascii;
    class       volScalarField;
    location    "50";
    object      p;
}
// * * * * * * * * * * * * * * * * * * * * * * * * * * * * * * * * * * * * * //

dimensions      [0 2 -2 0 0 0 0];


internalField   nonuniform List<scalar> 
42616
(
0.00369377
0.00369359
0.0036936
0.00369638
0.00364021
0.00364034
0.00364035
0.00364253
0.00358895
0.00358898
0.00358899
0.00359128
0.00353704
0.00353701
0.00353701
0.00353928
0.00348598
0.00348593
0.00348593
0.00348816
0.00343628
0.00343624
0.00343624
0.00343843
0.00338802
0.00338798
0.00338798
0.00339013
0.00334114
0.0033411
0.0033411
0.00334319
0.00329566
0.00329561
0.00329561
0.00329764
0.00325184
0.00325176
0.00325176
0.00325371
0.00320998
0.0032099
0.00320989
0.00321178
0.00316987
0.0031698
0.0031698
0.00317164
0.0031308
0.00313074
0.00313075
0.00313256
0.00309226
0.00309222
0.00309222
0.00309402
0.00305395
0.00305393
0.00305392
0.00305572
0.00301571
0.00301569
0.00301569
0.00301748
0.00297749
0.00297747
0.00297747
0.00297926
0.00293928
0.00293926
0.00293926
0.00294105
0.00290108
0.00290105
0.00290105
0.00290285
0.00286287
0.00286284
0.00286285
0.00286464
0.00282465
0.00282462
0.00282463
0.00282643
0.00370718
0.00370736
0.00370736
0.00370718
0.00370736
0.00370736
0.00370806
0.00370806
0.00370806
0.00370807
0.00370736
0.00370736
0.00370718
0.00370735
0.00370736
0.00370718
0.00369639
0.00365025
0.00369359
0.00369359
0.00365273
0.00365272
0.00369638
0.00365023
0.0036936
0.00369365
0.00365273
0.00365274
0.00369358
0.00365272
0.00365272
0.00369642
0.00365024
0.00369359
0.00365273
0.00365272
0.00365023
0.00364255
0.00359933
0.00364035
0.00364034
0.00360198
0.00360198
0.00364254
0.00359932
0.00364035
0.00364035
0.00360198
0.00360199
0.00364034
0.00360198
0.00360198
0.00364255
0.00359933
0.00364034
0.00360199
0.00360198
0.00359933
0.00359128
0.00354728
0.00358898
0.00358898
0.00354995
0.00354995
0.00359128
0.00354728
0.00358898
0.00358899
0.00354995
0.00354995
0.00358899
0.00354995
0.00354996
0.00359128
0.00354728
0.00358899
0.00354995
0.00354995
0.00354729
0.00353928
0.00349597
0.003537
0.00353701
0.00349857
0.00349858
0.00353928
0.00349597
0.003537
0.00353701
0.00349857
0.00349858
0.00353701
0.00349858
0.00349858
0.00353928
0.00349597
0.00353701
0.00349857
0.00349858
0.00349597
0.00348816
0.00344602
0.00348593
0.00348593
0.00344852
0.00344852
0.00348816
0.00344602
0.00348593
0.00348593
0.00344852
0.00344852
0.00348593
0.00344852
0.00344852
0.00348816
0.00344602
0.00348593
0.00344852
0.00344852
0.00344602
0.00343843
0.00339751
0.00343624
0.00343624
0.00339991
0.00339991
0.00343843
0.00339751
0.00343624
0.00343624
0.00339991
0.00339991
0.00343624
0.00339991
0.00339991
0.00343843
0.00339751
0.00343624
0.00339991
0.00339991
0.00339751
0.00339013
0.00335038
0.00338798
0.00338798
0.00335269
0.00335269
0.00339013
0.00335038
0.00338798
0.00338798
0.00335269
0.00335269
0.00338798
0.00335269
0.00335269
0.00339013
0.00335038
0.00338798
0.00335269
0.00335269
0.00335038
0.00334319
0.00330461
0.0033411
0.0033411
0.00330684
0.00330684
0.00334319
0.00330461
0.0033411
0.0033411
0.00330685
0.00330684
0.00334109
0.00330685
0.00330684
0.00334319
0.00330461
0.00334109
0.00330685
0.00330685
0.00330461
0.00329764
0.00326036
0.00329561
0.00329561
0.00326254
0.00326255
0.00329764
0.00326036
0.00329561
0.00329561
0.00326255
0.00326255
0.00329561
0.00326255
0.00326255
0.00329764
0.00326037
0.00329561
0.00326255
0.00326255
0.00326037
0.00325371
0.00321816
0.00325176
0.00325176
0.00322017
0.00322017
0.00325371
0.00321817
0.00325176
0.00325176
0.00322017
0.00322017
0.00325177
0.00322017
0.00322017
0.00325371
0.00321816
0.00325177
0.00322017
0.00322017
0.00321816
0.00321177
0.0031778
0.00320989
0.0032099
0.0031797
0.0031797
0.00321178
0.00317781
0.00320989
0.00320989
0.0031797
0.0031797
0.00320989
0.0031797
0.0031797
0.00321178
0.00317781
0.00320989
0.0031797
0.0031797
0.0031778
0.00317165
0.0031386
0.00316981
0.0031698
0.00314045
0.00314044
0.00317165
0.00313859
0.0031698
0.0031698
0.00314045
0.00314045
0.0031698
0.00314044
0.00314045
0.00317165
0.0031386
0.00316981
0.00314045
0.00314045
0.0031386
0.00313256
0.00310001
0.00313075
0.00313074
0.00310183
0.00310182
0.00313256
0.00310001
0.00313075
0.00313075
0.00310183
0.00310182
0.00313075
0.00310182
0.00310182
0.00313256
0.00310001
0.00313075
0.00310182
0.00310182
0.0031
0.00309403
0.00306169
0.00309223
0.00309222
0.00306349
0.00306349
0.00309403
0.00306169
0.00309223
0.00309222
0.00306349
0.00306349
0.00309222
0.00306349
0.00306349
0.00309403
0.00306168
0.00309222
0.00306349
0.00306349
0.00306168
0.00305573
0.00302345
0.00305393
0.00305393
0.00302524
0.00302525
0.00305573
0.00302345
0.00305393
0.00305393
0.00302524
0.00302525
0.00305393
0.00302524
0.00302524
0.00305573
0.00302345
0.00305393
0.00302525
0.00302524
0.00302344
0.00301749
0.00298522
0.00301569
0.00301569
0.00298702
0.00298702
0.00301749
0.00298522
0.00301569
0.00301569
0.00298702
0.00298702
0.00301569
0.00298702
0.00298702
0.00301749
0.00298522
0.00301569
0.00298702
0.00298702
0.00298522
0.00297927
0.00294701
0.00297747
0.00297747
0.0029488
0.00294881
0.00297927
0.00294701
0.00297747
0.00297747
0.0029488
0.0029488
0.00297747
0.00294881
0.00294881
0.00297926
0.00294701
0.00297747
0.00294881
0.0029488
0.00294701
0.00294105
0.00290881
0.00293926
0.00293926
0.0029106
0.00291061
0.00294106
0.00290881
0.00293926
0.00293925
0.0029106
0.00291061
0.00293926
0.00291061
0.00291061
0.00294105
0.00290881
0.00293926
0.00291061
0.00291061
0.00290881
0.00290285
0.0028706
0.00290105
0.00290105
0.0028724
0.0028724
0.00290285
0.0028706
0.00290105
0.00290106
0.0028724
0.0028724
0.00290106
0.00287239
0.00287239
0.00290286
0.0028706
0.00290106
0.0028724
0.00287239
0.00287059
0.00286464
0.00283238
0.00286284
0.00286284
0.00283418
0.00283417
0.00286464
0.00283238
0.00286285
0.00286285
0.00283418
0.00283418
0.00286284
0.00283418
0.00283418
0.00286465
0.00283239
0.00286284
0.00283418
0.00283418
0.00283239
0.00282642
0.00282462
0.00282462
0.00282642
0.00282463
0.00282463
0.00282463
0.00282643
0.00282463
0.00371629
0.00372624
0.00372088
0.00372086
0.00374336
0.00373025
0.00375871
0.00372418
0.00374333
0.00373021
0.00372417
0.00375859
0.00373473
0.00376272
0.00376272
0.00367515
0.00367524
0.00369367
0.00367334
0.00365356
0.00367213
0.00367517
0.00367533
0.0036937
0.00367333
0.00369377
0.00369379
0.00369377
0.00365261
0.0036526
0.00365261
0.0036526
0.00367388
0.00369069
0.00369385
0.00367811
0.003696
0.00367477
0.00367875
0.00365368
0.00367227
0.00367389
0.00369385
0.00369079
0.00367813
0.003696
0.00367876
0.0036748
0.00368716
0.00368715
0.00367492
0.00367505
0.00367506
0.00362557
0.00364345
0.00364445
0.00362467
0.00364281
0.00362421
0.00362558
0.00364344
0.00364446
0.00362468
0.0036402
0.00364021
0.0036402
0.00360193
0.00360193
0.00360193
0.00360193
0.00362467
0.00364393
0.00364027
0.00362773
0.00364321
0.00362515
0.00362766
0.00364282
0.00362421
0.00362468
0.00364027
0.00364396
0.00362774
0.00364322
0.00362767
0.00362517
0.00364418
0.00364418
0.0036251
0.00362525
0.00362526
0.00357331
0.00359191
0.00359275
0.00357254
0.00359161
0.0035723
0.00357331
0.00359191
0.00359275
0.00357254
0.00358895
0.00358895
0.00358895
0.00354998
0.00354998
0.00354998
0.00354998
0.0035728
0.00359229
0.00358895
0.00357596
0.00359199
0.00357297
0.00357595
0.00359162
0.0035723
0.0035728
0.00358896
0.0035923
0.00357597
0.003592
0.00357595
0.00357297
0.00359235
0.00359237
0.00357329
0.00357291
0.00357292
0.0035212
0.00353969
0.00354038
0.0035206
0.00353952
0.00352044
0.0035212
0.00353969
0.00354038
0.0035206
0.00353704
0.00353704
0.00353704
0.00349863
0.00349863
0.00349863
0.00349863
0.00352094
0.00354001
0.00353701
0.00352412
0.0035399
0.00352098
0.00352413
0.00353953
0.00352044
0.00352094
0.00353701
0.00354
0.00352412
0.0035399
0.00352413
0.00352098
0.00354
0.00354
0.00352148
0.00352087
0.00352086
0.00347035
0.00348848
0.00348899
0.00346991
0.00348837
0.00346978
0.00347035
0.00348848
0.00348899
0.00346991
0.00348598
0.00348598
0.00348598
0.00344857
0.00344857
0.00344857
0.00344857
0.00347024
0.00348872
0.00348593
0.00347337
0.00348869
0.00347024
0.00347337
0.00348837
0.00346979
0.00347024
0.00348593
0.00348872
0.00347337
0.00348869
0.00347337
0.00347024
0.00348872
0.00348871
0.00347081
0.00347012
0.00347012
0.00342101
0.00343873
0.00343908
0.0034207
0.00343865
0.00342058
0.00342101
0.00343872
0.00343908
0.0034207
0.00343628
0.00343628
0.00343628
0.00339995
0.00339995
0.00339995
0.00339995
0.003421
0.0034389
0.00343624
0.00342404
0.00343889
0.00342099
0.00342404
0.00343863
0.00342059
0.003421
0.00343624
0.00343891
0.00342404
0.00343889
0.00342404
0.00342099
0.00343891
0.00343891
0.00342159
0.00342088
0.00342088
0.00337311
0.00339041
0.00339066
0.00337288
0.00339033
0.00337278
0.00337311
0.00339041
0.00339066
0.00337288
0.00338802
0.00338802
0.00338802
0.00335273
0.00335273
0.00335273
0.00335273
0.00337318
0.00339055
0.00338797
0.00337613
0.00339054
0.00337316
0.00337612
0.00339033
0.00337278
0.00337318
0.00338797
0.00339055
0.00337613
0.00339054
0.00337612
0.00337316
0.00339058
0.00339058
0.00337377
0.00337305
0.00337305
0.00332657
0.00334343
0.00334361
0.0033264
0.00334335
0.00332629
0.00332657
0.00334343
0.00334361
0.0033264
0.00334113
0.00334114
0.00334113
0.00330689
0.00330689
0.00330689
0.00330689
0.00332671
0.00334356
0.00334109
0.00332959
0.00334356
0.00332667
0.00332958
0.00334335
0.00332629
0.00332671
0.00334109
0.00334356
0.00332959
0.00334356
0.00332958
0.00332667
0.00334358
0.00334358
0.00332732
0.00332655
0.00332655
0.00328147
0.00329784
0.00329796
0.00328136
0.00329777
0.00328129
0.00328147
0.00329784
0.00329796
0.00328136
0.00329566
0.00329566
0.00329566
0.00326261
0.00326262
0.00326262
0.00326262
0.00328168
0.00329794
0.00329562
0.00328447
0.00329798
0.0032816
0.00328449
0.00329777
0.00328129
0.00328169
0.00329562
0.00329794
0.00328448
0.00329798
0.00328449
0.0032816
0.00329797
0.00329797
0.00328228
0.00328149
0.00328149
0.00323819
0.00325389
0.00325394
0.00323815
0.00325385
0.0032381
0.00323819
0.00325389
0.00325394
0.00323815
0.00325184
0.00325184
0.00325184
0.00322026
0.00322026
0.00322026
0.00322026
0.00323843
0.00325393
0.00325179
0.0032411
0.00325401
0.00323833
0.00324113
0.00325385
0.00323811
0.00323843
0.00325179
0.00325393
0.0032411
0.00325401
0.00324113
0.00323833
0.00325397
0.00325397
0.00323902
0.00323823
0.00323823
0.00319708
0.00321204
0.00321205
0.00319708
0.00321201
0.00319704
0.00319708
0.00321203
0.00321204
0.00319707
0.00320999
0.00320998
0.00320998
0.00317978
0.00317978
0.00317978
0.00317978
0.00319728
0.00321204
0.00320993
0.00319974
0.00321209
0.00319725
0.00319977
0.003212
0.00319704
0.00319727
0.00320993
0.00321204
0.00319973
0.00321209
0.00319976
0.00319723
0.00321208
0.00321208
0.00319778
0.00319711
0.0031971
0.00315753
0.00317201
0.00317202
0.00315751
0.003172
0.0031575
0.00315753
0.00317201
0.00317202
0.00315751
0.00316987
0.00316987
0.00316987
0.0031405
0.0031405
0.0031405
0.0031405
0.00315765
0.00317197
0.00316983
0.00315997
0.00317199
0.00315761
0.00315999
0.00317199
0.0031575
0.00315766
0.00316983
0.00317197
0.00315997
0.00317199
0.00315999
0.00315762
0.00317203
0.00317202
0.0031581
0.00315753
0.00315754
0.00311874
0.00313299
0.003133
0.00311874
0.003133
0.00311872
0.00311874
0.003133
0.00313301
0.00311874
0.00313079
0.0031308
0.0031308
0.00310186
0.00310186
0.00310186
0.00310185
0.00311884
0.00313292
0.00313076
0.00312108
0.00313295
0.00311881
0.0031211
0.00313301
0.00311872
0.00311884
0.00313077
0.00313293
0.00312108
0.00313295
0.0031211
0.00311881
0.00313301
0.00313301
0.00311925
0.00311873
0.00311874
0.00308035
0.0030945
0.0030945
0.00308035
0.0030945
0.00308034
0.00308034
0.0030945
0.0030945
0.00308034
0.00309225
0.00309225
0.00309225
0.00306351
0.00306351
0.00306351
0.00306351
0.00308043
0.00309442
0.00309223
0.00308264
0.00309442
0.00308042
0.00308265
0.0030945
0.00308034
0.00308043
0.00309223
0.00309442
0.00308263
0.00309442
0.00308265
0.00308041
0.00309448
0.00309448
0.00308083
0.00308034
0.00308034
0.00304209
0.00305621
0.00305621
0.00304209
0.00305621
0.00304209
0.00304208
0.00305621
0.00305621
0.00304209
0.00305395
0.00305395
0.00305395
0.00302527
0.00302527
0.00302527
0.00302527
0.00304218
0.00305614
0.00305393
0.00304437
0.00305613
0.00304217
0.00304437
0.00305621
0.00304209
0.00304217
0.00305393
0.00305613
0.00304437
0.00305613
0.00304437
0.00304217
0.00305621
0.00305621
0.00304256
0.00304209
0.00304209
0.00300387
0.00301799
0.00301798
0.00300388
0.00301798
0.00300386
0.00300387
0.00301798
0.00301798
0.00300387
0.00301571
0.00301571
0.00301571
0.00298705
0.00298705
0.00298704
0.00298705
0.00300394
0.0030179
0.00301569
0.00300613
0.00301789
0.00300393
0.00300614
0.00301798
0.00300386
0.00300394
0.00301569
0.00301791
0.00300613
0.0030179
0.00300614
0.00300394
0.00301798
0.00301798
0.00300433
0.00300386
0.00300386
0.00296565
0.00297976
0.00297976
0.00296565
0.00297977
0.00296565
0.00296564
0.00297977
0.00297976
0.00296565
0.00297749
0.00297749
0.0029775
0.00294883
0.00294883
0.00294883
0.00294883
0.00296573
0.00297969
0.00297747
0.00296792
0.00297968
0.00296573
0.00296792
0.00297977
0.00296564
0.00296572
0.00297747
0.00297968
0.00296791
0.00297967
0.00296792
0.00296572
0.00297976
0.00297976
0.00296611
0.00296566
0.00296566
0.00292744
0.00294154
0.00294154
0.00292744
0.00294156
0.00292745
0.00292743
0.00294154
0.00294154
0.00292744
0.00293929
0.00293928
0.00293928
0.00291063
0.00291063
0.00291063
0.00291063
0.00292753
0.00294148
0.00293926
0.00292971
0.00294146
0.00292752
0.00292972
0.00294154
0.00292742
0.00292752
0.00293926
0.00294147
0.00292971
0.00294147
0.00292971
0.00292752
0.00294154
0.00294154
0.00292791
0.00292744
0.00292744
0.00288922
0.00290335
0.00290334
0.00288923
0.00290333
0.00288923
0.00288923
0.00290336
0.00290335
0.00288924
0.00290108
0.00290108
0.00290108
0.00287242
0.00287242
0.00287242
0.00287242
0.00288931
0.00290327
0.00290106
0.0028915
0.00290326
0.00288931
0.00289151
0.00290337
0.00288924
0.00288932
0.00290106
0.00290327
0.0028915
0.00290326
0.00289151
0.00288932
0.00290335
0.00290335
0.0028897
0.00288925
0.00288925
0.00285102
0.00286514
0.00286514
0.00285103
0.00286515
0.00285105
0.00285103
0.00286514
0.00286514
0.00285103
0.00286287
0.00286287
0.00286287
0.0028342
0.0028342
0.0028342
0.0028342
0.0028511
0.00286506
0.00286285
0.00285329
0.00286505
0.00285109
0.00285329
0.00286514
0.00285103
0.00285111
0.00286285
0.00286507
0.0028533
0.00286506
0.0028533
0.00285111
0.00286513
0.00286514
0.00285149
0.00285103
0.00285104
0.00281279
0.00282693
0.00282692
0.00281279
0.0028269
0.00281278
0.00282693
0.00282693
0.0028128
0.00282465
0.00282465
0.00282465
0.00281289
0.00282684
0.00282463
0.00281507
0.00282684
0.00281287
0.00281508
0.00282694
0.00281289
0.00282464
0.00282686
0.00282685
0.00281509
0.00282693
0.00282694
0.00281328
0.0028128
0.00281281
0.00373472
0.00376269
0.0037627
0.00371672
0.00376226
0.00371652
0.00376227
0.00373138
0.00371566
0.00371567
0.00375687
0.00375689
0.00374334
0.00373023
0.00375862
0.00372417
0.00374335
0.00373025
0.00375863
0.00372417
0.00374713
0.00371099
0.00375903
0.00370889
0.00374714
0.00371102
0.00375909
0.0037089
0.00373877
0.0037274
0.00371073
0.00370939
0.00375318
0.00372228
0.00370898
0.00373877
0.00372741
0.00371077
0.00370939
0.00375323
0.00372228
0.00370899
0.00373474
0.00376271
0.0037628
0.00371646
0.0037623
0.0037314
0.00371563
0.00371566
0.0037569
0.00375698
0.00371664
0.00376243
0.00374327
0.00373023
0.00375862
0.00372415
0.00374325
0.0037302
0.00372414
0.00375844
0.00374703
0.00371107
0.00375901
0.00370894
0.0037387
0.0037274
0.00371079
0.00370939
0.00375319
0.00372226
0.00370902
0.00374702
0.00371101
0.00375903
0.00370896
0.00373868
0.00372737
0.00370939
0.00371117
0.00372225
0.00375319
0.00370905
0.0037163
0.00372626
0.00372088
0.00372089
0.00371629
0.00372623
0.00372086
0.00372087
0.0037163
0.00372626
0.00372089
0.00372088
0.00371498
0.00372388
0.00370645
0.00370645
0.00371922
0.00371921
0.00370482
0.00371499
0.0037239
0.00370645
0.00370645
0.00371922
0.00371923
0.00370482
0.00371498
0.00372387
0.00370645
0.00370645
0.00371921
0.00371922
0.00370482
0.00371499
0.0037239
0.00370645
0.00370645
0.00371923
0.00371922
0.00370482
0.00374337
0.00373025
0.00372418
0.00375865
0.00373879
0.00372742
0.00371075
0.0037094
0.00375329
0.00372229
0.003709
0.00374716
0.00371095
0.00375916
0.00370889
0.00373879
0.00372742
0.0037094
0.00371078
0.00372229
0.00375319
0.003709
0.00374715
0.00371107
0.00375902
0.00370889
0.00373468
0.00376256
0.00376268
0.00371643
0.00376195
0.00373136
0.00371573
0.00371567
0.00375675
0.00375692
0.0037164
0.00376232
0.00374334
0.00373024
0.00372417
0.00375864
0.00373877
0.00372738
0.00370939
0.00371085
0.00372227
0.00375329
0.00370898
0.00373877
0.00372741
0.00370939
0.00371078
0.00372228
0.00375319
0.003709
0.00374712
0.00371102
0.00375927
0.00370887
0.00374711
0.00371105
0.00375904
0.0037089
0.0037314
0.00371564
0.00371567
0.00375687
0.00375689
0.00371643
0.0037623
0.00371654
0.00376229
0.00365361
0.00367214
0.00365367
0.00367214
0.0036871
0.00368716
0.00367496
0.0036751
0.00367508
0.00364925
0.00366551
0.00364925
0.00366558
0.00366732
0.00365077
0.00365077
0.00366829
0.00366829
0.00367515
0.00367532
0.00369367
0.00367333
0.0036739
0.00369066
0.00369385
0.00367812
0.00369599
0.00367478
0.00367876
0.0036739
0.00369069
0.00369385
0.00367811
0.003696
0.00367477
0.00367875
0.00366876
0.00364995
0.00366674
0.00365095
0.00366875
0.00364994
0.00366672
0.00365095
0.00366744
0.00366508
0.00365051
0.0036527
0.00366808
0.00366527
0.00364976
0.00366744
0.00366507
0.0036505
0.0036527
0.00366807
0.00366527
0.00364976
0.00368712
0.00368714
0.00367496
0.00367506
0.00367507
0.00365373
0.00367216
0.00364924
0.0036655
0.0036673
0.00365075
0.00365076
0.00366826
0.00366826
0.00364925
0.00366554
0.00367392
0.0036907
0.00369386
0.00367813
0.00369603
0.00367479
0.00367877
0.00367521
0.00367588
0.00369377
0.00367348
0.00367394
0.00369387
0.00369102
0.00367816
0.00369608
0.00367878
0.00367489
0.00366877
0.00364994
0.00366677
0.00365096
0.00366745
0.00366509
0.00365051
0.00365271
0.0036681
0.00366528
0.00364976
0.00366878
0.00364995
0.00366681
0.00365097
0.00366747
0.0036651
0.00365271
0.00365053
0.00366529
0.00366814
0.00364977
0.00367512
0.00367534
0.00369366
0.00367335
0.00367389
0.00369385
0.0036907
0.00367811
0.00369599
0.00367875
0.00367477
0.00367514
0.00367531
0.00369365
0.00367332
0.00366742
0.00366507
0.0036505
0.00365269
0.00366806
0.00366526
0.00364974
0.00366872
0.00364994
0.00366673
0.00365093
0.00366743
0.00366507
0.00365269
0.00365051
0.00366526
0.00366807
0.00364975
0.00366873
0.00364993
0.00366671
0.00365094
0.00368723
0.00368723
0.00367494
0.00367514
0.00367506
0.00365366
0.00367212
0.00364926
0.00366559
0.00366732
0.00365077
0.00365075
0.00366831
0.00366826
0.00364923
0.00366551
0.00367388
0.00369385
0.00369069
0.00367812
0.00369599
0.00367875
0.00367476
0.00367515
0.00367546
0.00369366
0.00367332
0.00367514
0.00367527
0.00369366
0.00367333
0.00366744
0.00366509
0.0036527
0.00365053
0.00366527
0.00366811
0.00364975
0.00366742
0.00366507
0.00365269
0.00365049
0.00366526
0.00366806
0.00364974
0.00366874
0.00364992
0.00366675
0.00365094
0.00366872
0.00364992
0.00366671
0.00365093
0.00365367
0.00367213
0.00365363
0.00367214
0.0036673
0.00365074
0.00365073
0.00366826
0.00366825
0.00364923
0.00366551
0.00364922
0.00366552
0.00364282
0.00362421
0.00364281
0.00362421
0.00364421
0.00364421
0.00362511
0.00362527
0.00362527
0.00359838
0.00361754
0.00359839
0.00361755
0.00361718
0.00359918
0.00359918
0.00361854
0.00361854
0.00362557
0.00364344
0.00364445
0.00362467
0.00362468
0.00364393
0.00364028
0.00362773
0.00364322
0.00362515
0.00362767
0.00362468
0.00364392
0.00364027
0.00362773
0.00364322
0.00362515
0.00362767
0.00361887
0.00359871
0.00361797
0.00359955
0.00361887
0.00359871
0.00361797
0.00359955
0.00361791
0.00361492
0.00359916
0.00360194
0.00361838
0.00361486
0.00359887
0.00361791
0.00361492
0.00359916
0.00360194
0.00361838
0.00361486
0.00359887
0.0036442
0.0036442
0.00362511
0.00362526
0.00362526
0.00364282
0.00362421
0.00359838
0.00361754
0.00361718
0.00359918
0.00359917
0.00361854
0.00361853
0.00359838
0.00361754
0.00362468
0.00364393
0.00364028
0.00362773
0.00364323
0.00362515
0.00362767
0.00362558
0.00364345
0.00364446
0.00362467
0.00362468
0.00364028
0.00364395
0.00362774
0.00364323
0.00362767
0.00362516
0.00361887
0.00359871
0.00361797
0.00359955
0.00361792
0.00361492
0.00359916
0.00360194
0.00361838
0.00361487
0.00359887
0.00361888
0.00359872
0.00361797
0.00359955
0.00361792
0.00361492
0.00360194
0.00359917
0.00361487
0.00361839
0.00359888
0.00362556
0.00364344
0.00364443
0.00362467
0.00362467
0.00364027
0.00364393
0.00362773
0.00364321
0.00362766
0.00362515
0.00362556
0.00364341
0.00364444
0.00362465
0.0036179
0.00361492
0.00359916
0.00360194
0.00361838
0.00361486
0.00359887
0.00361886
0.00359871
0.00361796
0.00359954
0.00361791
0.00361492
0.00360194
0.00359917
0.00361486
0.00361838
0.00359887
0.00361886
0.0035987
0.00361795
0.00359955
0.00364421
0.0036442
0.00362511
0.00362527
0.00362527
0.00364281
0.00362421
0.00359839
0.00361754
0.00361718
0.00359918
0.00359918
0.00361854
0.00361854
0.00359839
0.00361755
0.00362467
0.00364027
0.00364392
0.00362773
0.00364321
0.00362767
0.00362515
0.00362557
0.00364343
0.00364446
0.00362467
0.00362557
0.00364343
0.00364444
0.00362467
0.00361791
0.00361492
0.00360194
0.00359917
0.00361486
0.00361839
0.00359888
0.00361791
0.00361492
0.00360194
0.00359917
0.00361486
0.00361838
0.00359887
0.00361887
0.00359871
0.00361796
0.00359955
0.00361887
0.00359871
0.00361797
0.00359955
0.00364278
0.00362419
0.00364281
0.00362421
0.00361717
0.00359917
0.00359918
0.00361852
0.00361854
0.00359838
0.00361753
0.00359838
0.00361754
0.00359161
0.0035723
0.00359161
0.0035723
0.00359236
0.00359236
0.00357329
0.00357291
0.00357291
0.00354626
0.00356552
0.00354626
0.00356552
0.00356523
0.00354676
0.00354676
0.0035661
0.0035661
0.00357331
0.00359191
0.00359275
0.00357254
0.0035728
0.00359229
0.00358895
0.00357596
0.00359199
0.00357297
0.00357594
0.0035728
0.00359229
0.00358895
0.00357596
0.00359199
0.00357297
0.00357594
0.0035665
0.00354645
0.00356573
0.00354714
0.0035665
0.00354645
0.00356573
0.00354714
0.0035659
0.00356294
0.00354686
0.00354995
0.00356608
0.00356294
0.00354677
0.0035659
0.00356294
0.00354686
0.00354995
0.00356608
0.00356294
0.00354677
0.00359236
0.00359236
0.00357329
0.00357291
0.00357291
0.00359161
0.0035723
0.00354626
0.00356552
0.00356523
0.00354675
0.00354676
0.0035661
0.0035661
0.00354626
0.00356552
0.0035728
0.00359229
0.00358896
0.00357596
0.003592
0.00357297
0.00357595
0.00357331
0.00359192
0.00359276
0.00357254
0.0035728
0.00358896
0.0035923
0.00357597
0.003592
0.00357595
0.00357297
0.00356651
0.00354645
0.00356574
0.00354714
0.0035659
0.00356294
0.00354686
0.00354995
0.00356608
0.00356294
0.00354677
0.00356651
0.00354645
0.00356574
0.00354714
0.0035659
0.00356295
0.00354995
0.00354686
0.00356294
0.00356608
0.00354677
0.00357331
0.00359191
0.00359275
0.00357254
0.00357281
0.00358895
0.0035923
0.00357597
0.00359199
0.00357595
0.00357298
0.00357332
0.0035919
0.00359275
0.00357254
0.00356591
0.00356294
0.00354686
0.00354995
0.00356608
0.00356294
0.00354677
0.00356651
0.00354645
0.00356573
0.00354715
0.00356591
0.00356295
0.00354995
0.00354687
0.00356294
0.00356609
0.00354677
0.00356651
0.00354646
0.00356574
0.00354715
0.00359236
0.00359236
0.00357329
0.00357291
0.00357291
0.00359161
0.0035723
0.00354626
0.00356552
0.00356523
0.00354675
0.00354676
0.0035661
0.0035661
0.00354626
0.00356552
0.0035728
0.00358896
0.00359229
0.00357596
0.003592
0.00357595
0.00357297
0.00357331
0.00359191
0.00359276
0.00357254
0.00357331
0.00359191
0.00359275
0.00357254
0.00356591
0.00356295
0.00354995
0.00354686
0.00356294
0.00356608
0.00354677
0.00356591
0.00356295
0.00354995
0.00354686
0.00356294
0.00356608
0.00354677
0.00356651
0.00354645
0.00356574
0.00354714
0.00356651
0.00354645
0.00356574
0.00354714
0.00359161
0.0035723
0.00359161
0.0035723
0.00356524
0.00354676
0.00354676
0.0035661
0.00356611
0.00354627
0.00356552
0.00354626
0.00356553
0.00353953
0.00352044
0.00353953
0.00352044
0.00353999
0.00354
0.00352148
0.00352086
0.00352086
0.00349494
0.00351378
0.00349494
0.00351378
0.00351356
0.0034953
0.0034953
0.00351418
0.00351418
0.0035212
0.00353969
0.00354038
0.0035206
0.00352094
0.00354
0.00353701
0.00352412
0.0035399
0.00352098
0.00352413
0.00352094
0.00354
0.00353701
0.00352412
0.0035399
0.00352098
0.00352413
0.00351451
0.00349507
0.00351392
0.00349559
0.00351451
0.00349507
0.00351392
0.00349559
0.00351413
0.00351131
0.00349543
0.00349858
0.00351419
0.00351132
0.00349541
0.00351414
0.00351131
0.00349543
0.00349858
0.00351419
0.00351132
0.00349541
0.00353999
0.00354
0.00352148
0.00352086
0.00352086
0.00353953
0.00352044
0.00349494
0.00351378
0.00351356
0.0034953
0.0034953
0.00351418
0.00351418
0.00349494
0.00351378
0.00352094
0.00354
0.00353701
0.00352412
0.0035399
0.00352098
0.00352413
0.0035212
0.00353969
0.00354038
0.0035206
0.00352094
0.00353701
0.00354
0.00352412
0.0035399
0.00352413
0.00352098
0.00351451
0.00349507
0.00351392
0.00349559
0.00351413
0.00351131
0.00349543
0.00349858
0.00351419
0.00351132
0.00349541
0.00351451
0.00349507
0.00351392
0.00349559
0.00351413
0.00351131
0.00349858
0.00349543
0.00351132
0.00351419
0.00349541
0.00352121
0.0035397
0.00354038
0.0035206
0.00352094
0.00353701
0.00354001
0.00352412
0.00353991
0.00352413
0.00352099
0.00352121
0.0035397
0.00354039
0.0035206
0.00351414
0.00351131
0.00349543
0.00349858
0.0035142
0.00351132
0.00349541
0.00351451
0.00349507
0.00351392
0.00349559
0.00351414
0.00351131
0.00349859
0.00349544
0.00351132
0.0035142
0.00349541
0.00351451
0.00349508
0.00351392
0.00349559
0.00353999
0.00354
0.00352148
0.00352086
0.00352086
0.00353953
0.00352044
0.00349493
0.00351378
0.00351356
0.0034953
0.0034953
0.00351417
0.00351418
0.00349493
0.00351378
0.00352094
0.00353701
0.00354001
0.00352412
0.0035399
0.00352413
0.00352098
0.0035212
0.00353969
0.00354038
0.0035206
0.0035212
0.0035397
0.00354038
0.0035206
0.00351414
0.00351131
0.00349858
0.00349543
0.00351132
0.00351419
0.00349541
0.00351414
0.00351131
0.00349859
0.00349543
0.00351132
0.0035142
0.00349541
0.00351451
0.00349507
0.00351392
0.00349559
0.00351451
0.00349507
0.00351392
0.00349559
0.00353953
0.00352045
0.00353953
0.00352044
0.00351356
0.00349531
0.0034953
0.00351418
0.00351418
0.00349494
0.00351379
0.00349494
0.00351379
0.00348837
0.00346979
0.00348837
0.00346979
0.00348871
0.00348871
0.00347081
0.00347012
0.00347012
0.00344501
0.00346332
0.00344501
0.00346332
0.00346311
0.00344531
0.00344531
0.00346362
0.00346362
0.00347035
0.00348849
0.00348899
0.00346991
0.00347024
0.00348872
0.00348593
0.00347337
0.00348869
0.00347024
0.00347337
0.00347024
0.00348873
0.00348593
0.00347337
0.00348869
0.00347024
0.00347337
0.00346384
0.00344512
0.00346342
0.00344549
0.00346384
0.00344512
0.00346342
0.00344549
0.0034636
0.0034609
0.00344543
0.00344853
0.00346363
0.0034609
0.00344544
0.0034636
0.0034609
0.00344544
0.00344853
0.00346363
0.0034609
0.00344544
0.00348871
0.00348871
0.00347081
0.00347011
0.00347012
0.00348837
0.00346979
0.00344501
0.00346331
0.00346311
0.00344532
0.00344531
0.00346362
0.00346362
0.00344501
0.00346332
0.00347024
0.00348872
0.00348593
0.00347337
0.00348869
0.00347024
0.00347337
0.00347035
0.00348848
0.00348899
0.00346991
0.00347024
0.00348593
0.00348872
0.00347337
0.00348869
0.00347337
0.00347024
0.00346384
0.00344512
0.00346342
0.00344549
0.0034636
0.0034609
0.00344543
0.00344853
0.00346363
0.0034609
0.00344544
0.00346384
0.00344512
0.00346342
0.00344549
0.0034636
0.0034609
0.00344853
0.00344543
0.0034609
0.00346363
0.00344544
0.00347035
0.00348848
0.00348898
0.00346991
0.00347024
0.00348593
0.00348873
0.00347337
0.00348869
0.00347337
0.00347025
0.00347035
0.00348849
0.00348899
0.00346991
0.0034636
0.0034609
0.00344543
0.00344853
0.00346363
0.0034609
0.00344544
0.00346384
0.00344512
0.00346342
0.00344549
0.0034636
0.0034609
0.00344852
0.00344543
0.0034609
0.00346363
0.00344544
0.00346384
0.00344512
0.00346342
0.00344549
0.00348871
0.00348871
0.00347081
0.00347012
0.00347012
0.00348837
0.00346979
0.00344501
0.00346332
0.00346311
0.00344532
0.00344531
0.00346362
0.00346362
0.00344501
0.00346332
0.00347024
0.00348594
0.00348873
0.00347337
0.00348869
0.00347337
0.00347024
0.00347035
0.00348848
0.00348899
0.00346991
0.00347035
0.00348848
0.00348899
0.00346991
0.0034636
0.0034609
0.00344853
0.00344543
0.0034609
0.00346363
0.00344544
0.0034636
0.0034609
0.00344853
0.00344543
0.0034609
0.00346363
0.00344544
0.00346384
0.00344512
0.00346342
0.00344549
0.00346384
0.00344512
0.00346342
0.00344549
0.00348837
0.00346979
0.00348837
0.00346979
0.00346311
0.00344531
0.00344531
0.00346363
0.00346362
0.00344501
0.00346332
0.00344501
0.00346332
0.00343863
0.00342059
0.00343863
0.00342059
0.00343892
0.00343892
0.00342159
0.00342088
0.00342088
0.00339652
0.00341431
0.00339652
0.00341431
0.0034141
0.0033968
0.0033968
0.00341457
0.00341457
0.00342101
0.00343873
0.00343908
0.00342069
0.003421
0.00343891
0.00343624
0.00342404
0.00343889
0.00342099
0.00342404
0.003421
0.00343891
0.00343624
0.00342404
0.00343889
0.00342099
0.00342404
0.00341469
0.00339662
0.00341439
0.00339689
0.00341469
0.00339662
0.00341439
0.00339689
0.00341454
0.00341193
0.00339691
0.00339991
0.00341455
0.00341193
0.00339692
0.00341454
0.00341193
0.00339691
0.00339991
0.00341455
0.00341193
0.00339692
0.00343892
0.00343891
0.00342159