/*--------------------------------*- C++ -*----------------------------------*\
| =========                 |                                                 |
| \\      /  F ield         | OpenFOAM: The Open Source CFD Toolbox           |
|  \\    /   O peration     | Version:  v1906                                 |
|   \\  /    A nd           | Web:      www.OpenFOAM.com                      |
|    \\/     M anipulation  |                                                 |
\*---------------------------------------------------------------------------*/
FoamFile
{
    version     2.0;
    format      ascii;
    class       surfaceScalarField;
    location    "50";
    object      phi;
}
// * * * * * * * * * * * * * * * * * * * * * * * * * * * * * * * * * * * * * //

dimensions      [0 3 -1 0 0 0 0];
oriented        oriented;


internalField   nonuniform List<scalar> 
123728
(
-0.00104218
-1.46306e-05
-1.45283e-05
9.38348e-06
9.21421e-06
0.00105274
-0.000261492
-5.68314e-06
1.45098e-05
6.887e-06
0.00105925
-4.5898e-06
-1.59545e-06
-2.11943e-06
-2.48917e-06
-6.61766e-06
-7.11383e-06
-2.98561e-06
-0.000263335
-0.000259763
-0.000262859
-0.000261469
-5.68728e-06
1.45379e-05
6.9747e-06
0.00105904
-4.59517e-06
-1.60489e-06
-2.12709e-06
-2.49484e-06
-6.60956e-06
-7.11076e-06
-2.9863e-06
-0.000259735
-0.000263307
-0.000262823
-0.000260564
5.65911e-06
5.69869e-06
-4.95314e-06
-4.94735e-06
0.000259107
-1.65383e-06
-1.65431e-06
-0.00106079
9.33544e-07
9.34925e-07
0.00106223
-0.00106274
-1.61843e-06
1.64732e-06
8.32383e-07
0.00106394
-6.79244e-07
8.33419e-07
-9.9406e-08
4.23817e-07
-8.50786e-07
-1.42949e-06
-2.56097e-07
-0.00106242
-1.61207e-06
1.65736e-06
8.2754e-07
0.00106361
-6.78554e-07
8.2935e-07
-9.88618e-08
4.21166e-07
-8.55233e-07
-1.42904e-06
-2.55579e-07
-0.000261566
1.64935e-06
1.6128e-06
-6.97708e-07
-7.01002e-07
0.000259702
-1.37599e-06
-1.37752e-06
-0.00106636
6.97391e-07
6.97648e-07
0.00106772
-0.00106788
-1.57182e-06
1.38056e-06
6.91313e-07
0.00106923
-6.56231e-07
8.77366e-07
-7.34688e-08
4.60942e-07
-8.37173e-07
-1.39731e-06
-2.2308e-07
-0.00106756
-1.5663e-06
1.37772e-06
6.98083e-07
0.0010689
-6.56191e-07
8.72197e-07
-7.3442e-08
4.59771e-07
-8.38976e-07
-1.39284e-06
-2.22165e-07
-0.0002628
1.60064e-06
1.56581e-06
-6.6217e-07
-6.71357e-07
0.000260967
-1.34931e-06
-1.35133e-06
-0.00107181
6.76088e-07
6.76463e-07
0.00107316
-0.00107323
-1.57091e-06
1.34996e-06
6.66352e-07
0.00107454
-6.52003e-07
8.99706e-07
-5.34341e-08
4.74014e-07
-8.2655e-07
-1.40236e-06
-1.96616e-07
-0.00107289
-1.5659e-06
1.3511e-06
6.6724e-07
0.0010742
-6.49572e-07
8.94058e-07
-5.56787e-08
4.73538e-07
-8.29307e-07
-1.40259e-06
-1.94385e-07
-0.000264077
1.59836e-06
1.56551e-06
-6.5362e-07
-6.61968e-07
0.000262229
-1.30312e-06
-1.30445e-06
-0.00107714
6.51637e-07
6.52691e-07
0.00107844
-0.00107839
-1.56225e-06
1.30442e-06
6.34738e-07
0.00107965
-6.36622e-07
9.23315e-07
-3.55047e-08
4.91952e-07
-8.06593e-07
-1.40021e-06
-1.67747e-07
-0.00107805
-1.55709e-06
1.30375e-06
6.35708e-07
0.00107931
-6.34161e-07
9.17749e-07
-3.76319e-08
4.92036e-07
-8.08841e-07
-1.39988e-06
-1.65109e-07
-0.000265295
1.59009e-06
1.55783e-06
-6.39287e-07
-6.45616e-07
0.000263432
-1.25538e-06
-1.25663e-06
-0.00108228
6.28367e-07
6.29555e-07
0.00108353
-0.00108332
-1.55344e-06
1.25683e-06
6.06578e-07
0.00108451
-6.22164e-07
9.43286e-07
-1.6875e-08
5.10438e-07
-7.84086e-07
-1.39267e-06
-1.41896e-07
-0.00108298
-1.54818e-06
1.25575e-06
6.07494e-07
0.00108417
-6.19597e-07
9.37781e-07
-1.96771e-08
5.10751e-07
-7.8625e-07
-1.39218e-06
-1.39168e-07
-0.00026644
1.58124e-06
1.54923e-06
-6.24292e-07
-6.2899e-07
0.000264563
-1.20931e-06
-1.21068e-06
-0.00108722
6.06933e-07
6.07863e-07
0.00108843
-0.001088
-1.54536e-06
1.21046e-06
5.83706e-07
0.00108914
-6.09103e-07
9.59901e-07
-2.26048e-09
5.29175e-07
-7.60422e-07
-1.38102e-06
-1.1952e-07
-0.00108766
-1.54004e-06
1.20967e-06
5.8404e-07
0.0010888
-6.06446e-07
9.54438e-07
-4.98088e-09
5.29434e-07
-7.62725e-07
-1.38063e-06
-1.16865e-07
-0.000267513
1.57332e-06
1.54066e-06
-6.08963e-07
-6.1418e-07
0.000265622
-1.14973e-06
-1.15081e-06
-0.00109196
5.78365e-07
5.79202e-07
0.0010931
-0.00109244
-1.53373e-06
1.15041e-06
5.56781e-07
0.0010935
-5.92522e-07
9.76841e-07
1.27398e-08
5.53091e-07
-7.29703e-07
-1.35983e-06
-9.56311e-08
-0.0010921
-1.52831e-06
1.15002e-06
5.56877e-07
0.00109316
-5.89779e-07
9.71415e-07
1.00878e-08
5.53298e-07
-7.32154e-07
-1.35964e-06
-9.31021e-08
-0.000268512
1.56173e-06
1.52864e-06
-5.89789e-07
-5.95394e-07
0.000266606
-1.0396e-06
-1.04141e-06
-0.00109639
5.24326e-07
5.2498e-07
0.00109742
-0.00109653
-1.50842e-06
1.04071e-06
5.06098e-07
0.00109746
-5.61304e-07
1.00398e-06
4.56471e-08
5.94744e-07
-6.80017e-07
-1.31744e-06
-6.03183e-08
-0.00109618
-1.50283e-06
1.04059e-06
5.06124e-07
0.00109712
-5.58398e-07
9.98724e-07
4.22209e-08
5.95119e-07
-6.82509e-07
-1.31716e-06
-5.79902e-08
-0.000269407
1.53625e-06
1.50286e-06
-5.54686e-07
-5.6037e-07
0.000267483
-8.38502e-07
-8.39931e-07
-0.00110023
4.28421e-07
4.28494e-07
0.00110105
-0.00109996
-1.45875e-06
8.39442e-07
4.12015e-07
0.00110067
-5.03992e-07
1.05214e-06
1.06617e-07
6.70565e-07
-5.96781e-07
-1.23791e-06
6.97156e-09
-0.00109962
-1.45354e-06
8.3973e-07
4.12244e-07
0.00110033
-5.01506e-07
1.04644e-06
1.03272e-07
6.70651e-07
-5.99433e-07
-1.23782e-06
9.98381e-09
-0.000270119
1.48723e-06
1.45364e-06
-4.90951e-07
-4.96658e-07
0.000268166
-5.77192e-07
-5.77694e-07
-0.00110311
3.03957e-07
3.04475e-07
0.00110365
-0.00110236
-1.39074e-06
5.78824e-07
2.90706e-07
0.00110278
-4.32562e-07
1.11464e-06
1.69562e-07
7.62249e-07
-4.94992e-07
-1.13847e-06
1.18968e-07
-0.00110202
-1.38502e-06
5.78545e-07
2.89804e-07
0.00110244
-4.32511e-07
1.10939e-06
1.69572e-07
7.62609e-07
-4.97751e-07
-1.13855e-06
1.21981e-07
-0.000270562
1.41893e-06
1.38537e-06
-4.05752e-07
-4.10918e-07
0.000268575
-3.40026e-07
-3.39621e-07
-0.00110491
1.86691e-07
1.87493e-07
0.00110521
-0.00110368
-1.32838e-06
3.40913e-07
1.793e-07
0.00110388
-3.72132e-07
1.1717e-06
2.25048e-07
8.42552e-07
-4.07883e-07
-1.05044e-06
2.02116e-07
-0.00110334
-1.32259e-06
3.39363e-07
1.78568e-07
0.00110353
-3.7167e-07
1.16634e-06
2.25362e-07
8.42793e-07
-4.10034e-07
-1.05011e-06
2.05507e-07
-0.000270754
1.35656e-06
1.32309e-06
-3.31817e-07
-3.37216e-07
0.000268744
-1.63803e-07
-1.63708e-07
-0.00110585
9.48304e-08
9.43478e-08
0.00110599
-0.00110424
-1.28275e-06
1.63282e-07
8.90997e-08
0.00110431
-3.29328e-07
1.21249e-06
2.63285e-07
8.98004e-07
-3.48686e-07
-9.89292e-07
2.56368e-07
-0.0011039
-1.27788e-06
1.64362e-07
9.02543e-08
0.00110397
-3.29788e-07
1.20658e-06
2.6281e-07
8.97444e-07
-3.5151e-07
-9.89461e-07
2.59159e-07
-0.0002708
1.31165e-06
1.27766e-06
-2.81648e-07
-2.87138e-07
0.000268779
-6.40795e-08
-6.38483e-08
-0.00110625
3.90051e-08
3.88709e-08
0.0011063
-0.00110441
-1.25821e-06
6.17814e-08
3.6609e-08
0.00110443
-3.07568e-07
1.23381e-06
2.82196e-07
9.26326e-07
-3.1781e-07
-9.56956e-07
2.84e-07
-0.00110407
-1.25259e-06
6.30057e-08
3.67502e-08
0.00110408
-3.07108e-07
1.22834e-06
2.82391e-07
9.25911e-07
-3.21192e-07
-9.57378e-07
2.86114e-07
-0.000270792
1.28642e-06
1.25235e-06
-2.5531e-07
-2.61369e-07
0.00026877
-2.01018e-08
-2.06383e-08
-0.00110638
1.28689e-08
1.28954e-08
0.0011064
-0.00110445
-1.24802e-06
1.91728e-08
1.39671e-08
0.00110445
-2.9892e-07
1.24265e-06
2.8958e-07
9.36323e-07
-3.06599e-07
-9.45003e-07
2.93659e-07
-0.0011041
-1.24251e-06
1.90222e-08
1.41276e-08
0.0011041
-2.988e-07
1.237e-06
2.89443e-07
9.36671e-07
-3.09056e-07
-9.44637e-07
2.96781e-07
-0.000270778
1.27598e-06
1.24244e-06
-2.45917e-07
-2.51514e-07
0.000268757
-4.43585e-09
-4.56736e-09
-0.00110642
2.83395e-09
2.39265e-09
0.00110642
-0.00110445
-1.24497e-06
4.15189e-09
6.47175e-09
0.00110445
-2.96156e-07
1.24507e-06
2.91841e-07
9.40234e-07
-3.03e-07
-9.41249e-07
2.96665e-07
-0.0011041
-1.23943e-06
4.70227e-09
6.5458e-09
0.0011041
-2.96102e-07
1.23983e-06
2.91802e-07
9.39602e-07
-3.05976e-07
-9.41488e-07
2.99466e-07
-0.000270773
1.27283e-06
1.23888e-06
-2.42988e-07
-2.48488e-07
0.000268753
-2.97072e-10
-2.21879e-10
-0.00110643
-1.44575e-10
-4.08499e-10
0.00110643
-0.00110445
-1.24376e-06
-3.93603e-10
4.0459e-09
0.00110445
-2.94704e-07
1.24606e-06
2.93107e-07
9.39873e-07
-3.01953e-07
-9.40873e-07
2.97586e-07
-0.0011041
-1.23868e-06
-9.97016e-11
4.62699e-09
0.0011041
-2.95182e-07
1.24036e-06
2.92653e-07
9.40415e-07
-3.05022e-07
-9.40626e-07
3.00451e-07
-0.000270772
1.27166e-06
1.23819e-06
-2.42261e-07
-2.47573e-07
0.000268752
8.97451e-10
8.87063e-10
-0.00110643
-1.16369e-09
-8.76852e-10
0.00110643
-0.00110445
-1.24339e-06
-8.77924e-10
3.52596e-09
0.00110445
-2.94592e-07
1.24626e-06
2.9298e-07
9.4051e-07
-3.02001e-07
-9.40521e-07
2.97535e-07
-0.0011041
-1.23798e-06
-2.54594e-09
3.4267e-09
0.0011041
-2.94424e-07
1.24095e-06
2.93356e-07
9.40509e-07
-3.04324e-07
-9.40315e-07
3.00953e-07
-0.000270772
1.27156e-06
1.23804e-06
-2.42131e-07
-2.47476e-07
0.000268752
7.64967e-10
1.48243e-09
-0.00110643
-1.33903e-09
-1.24362e-09
0.00110643
-0.00110445
-1.24386e-06
-1.02892e-09
3.66876e-09
0.00110445
-2.95146e-07
1.24594e-06
2.92571e-07
9.40923e-07
-3.01806e-07
-9.39758e-07
2.97748e-07
-0.0011041
-1.23823e-06
-1.48511e-09
3.32543e-09
0.0011041
-2.94851e-07
1.24056e-06
2.92722e-07
9.4085e-07
-3.04571e-07
-9.40011e-07
3.00621e-07
-0.000270772
1.27189e-06
1.23828e-06
-2.42537e-07
-2.47704e-07
0.000268752
6.33832e-10
4.45602e-10
-0.00110643
-9.628e-10
-1.31509e-09
0.00110643
-0.00110445
-1.2436e-06
-7.7924e-10
3.71295e-09
0.00110445
-2.94802e-07
1.24603e-06
2.92929e-07
9.4036e-07
-3.01837e-07
-9.40533e-07
2.97447e-07
-0.0011041
-1.23842e-06
3.32488e-10
4.58584e-09
0.0011041
-2.9518e-07
1.24047e-06
2.92511e-07
9.39867e-07
-3.04991e-07
-9.40843e-07
3.00215e-07
-0.000270772
1.27207e-06
1.2381e-06
-2.42262e-07
-2.47898e-07
0.000268752
-3.71174e-09
5.14774e-10
-0.00110642
-1.40903e-09
-1.9377e-09
0.00110643
-0.00110445
-1.24304e-06
-7.6066e-09
2.00791e-09
0.00110445
-2.96963e-07
1.24661e-06
2.96265e-07
9.43221e-07
-3.01795e-07
-9.40729e-07
2.97769e-07
-0.0011041
-1.23811e-06
1.66445e-09
-7.89414e-09
-2.94776e-07
1.24068e-06
2.92798e-07
9.39719e-07
-3.05465e-07
-9.40734e-07
2.99608e-07
0.00110412
-0.000270773
1.27235e-06
1.23571e-06
-2.4255e-07
-2.4845e-07
0.000268756
5.22801e-06
5.23904e-06
0.000260566
-0.000259152
-5.94745e-06
-5.93356e-06
5.05528e-06
0.000261441
-0.000258684
-5.96455e-06
3.38065e-06
-5.22843e-06
5.05021e-06
0.000261474
-0.0002587
-5.97281e-06
3.37614e-06
5.22898e-06
0.00026058
-0.000259155
-5.91939e-06
-5.96247e-06
5.04796e-06
0.000261505
-0.000258715
-5.96984e-06
3.3708e-06
5.05253e-06
-5.23113e-06
0.000261447
-0.000258685
3.38504e-06
-5.96846e-06
1.0691e-05
1.05981e-05
-0.000252646
-0.000256097
-0.000255126
-0.000255126
-6.41692e-06
-4.1115e-06
-6.65278e-06
-6.41703e-06
-4.11207e-06
-6.65799e-06
-5.04326e-06
0.0010422
1.06523e-05
1.06035e-05
-0.000252648
-0.000256094
-0.000255129
-0.000255129
-6.41972e-06
-4.11174e-06
-6.65567e-06
-6.41523e-06
-4.10732e-06
-6.65119e-06
-5.04237e-06
0.00104207
1.07117e-05
1.0662e-05
-0.000252641
-0.000256089
-0.000255126
-0.000255121
-6.41837e-06
-4.11846e-06
-6.65418e-06
-6.41983e-06
-4.10927e-06
-6.65279e-06
-5.05796e-06
-5.04572e-06
0.00104214
1.0707e-05
1.06096e-05
-0.000252643
-0.000256092
-0.000255126
-0.000255126
-6.41471e-06
-4.1143e-06
-6.65065e-06
-6.41971e-06
-4.1122e-06
-6.65578e-06
-0.00025871
-5.96256e-06
3.36558e-06
-5.22837e-06
0.000261436
-0.000258682
3.38083e-06
-5.96501e-06
5.23042e-06
0.000260558
-0.000259141
-5.91904e-06
-5.96019e-06
-0.000258695
3.37228e-06
-5.95845e-06
-5.23931e-06
0.000261503
-0.00025871
3.36835e-06
-5.96777e-06
-0.00025915
-5.94811e-06
-5.93397e-06
5.65865e-06
5.69562e-06
-4.95248e-06
-4.9469e-06
0.000259111
-8.10748e-07
-7.74989e-07
0.000261575
-0.000259443
-2.77084e-07
-2.69165e-07
7.13679e-06
0.00105865
-4.58708e-06
-1.54789e-06
-2.11358e-06
-2.48867e-06
-6.63097e-06
-7.11816e-06
-2.99096e-06
-0.000263296
-0.000259719
-0.000262823
-5.66923e-06
1.46058e-05
7.07826e-06
0.00105902
-4.60616e-06
-1.54056e-06
-2.11697e-06
-2.50113e-06
-6.66325e-06
-7.13631e-06
-3.00863e-06
-0.000263371
-0.00025975
-0.000262864
0.00106199
2.11803e-06
-0.00106094
1.04213e-06
-1.75803e-06
-1.32579e-07
-7.45885e-07
-1.53999e-06
-2.93472e-07
-9.12335e-07
3.63316e-07
8.19456e-07
0.00106241
2.11853e-06
-0.00106136
1.03688e-06
-1.76774e-06
-1.24669e-07
-7.50287e-07
-1.54573e-06
-2.94208e-07
-9.13726e-07
3.69055e-07
-4.95142e-06
-4.94358e-06
0.000259122
-7.77926e-07
0.000261602
-0.000259465
-2.73859e-07
-2.65528e-07
6.86084e-06
0.00105948
-4.61064e-06
-1.60789e-06
-2.12946e-06
-2.49935e-06
-6.64577e-06
-7.13145e-06
-3.00377e-06
-0.000263391
-0.000259778
-0.000262877
-5.66837e-06
1.46401e-05
7.17375e-06
0.00105879
-4.60675e-06
-1.54924e-06
-2.12134e-06
-2.50562e-06
-6.66253e-06
-7.13854e-06
-3.01074e-06
-0.000259718
-0.000263345
-0.000262834
0.001063
2.12534e-06
-0.00106194
1.03087e-06
-1.72847e-06
-1.34862e-07
-7.46124e-07
-1.54254e-06
-2.93883e-07
-9.10505e-07
3.66445e-07
8.1016e-07
0.0010621
2.12787e-06
-0.00106107
1.05188e-06
-1.75616e-06
-1.2899e-07
-7.44556e-07
-1.54323e-06
-2.91723e-07
-9.17001e-07
3.63806e-07
1.46384e-05
7.15866e-06
0.0010586
-4.58796e-06
-1.54866e-06
-2.11233e-06
-2.49082e-06
-6.63149e-06
-2.99074e-06
-7.11734e-06
-0.000259715
-0.000263292
-0.000262818
2.12343e-06
-0.00106169
1.03678e-06
-1.72822e-06
-1.32017e-07
-7.428e-07
-1.5401e-06
-2.9563e-07
3.61579e-07
-9.10157e-07
8.09533e-07
0.00106188
2.12566e-06
-0.00106086
1.05251e-06
-1.75691e-06
-1.2925e-07
-7.44927e-07
-1.54262e-06
-2.93385e-07
-9.12803e-07
3.66456e-07
-4.95434e-06
-4.94416e-06
0.000259101
-7.71195e-07
0.000261552
-0.000259426
-2.75802e-07
-2.69212e-07
1.45382e-05
6.88063e-06
0.00105944
-4.61202e-06
-1.60819e-06
-2.13058e-06
-2.49915e-06
-6.64584e-06
-3.00376e-06
-7.12905e-06
-0.000259768
-0.000263389
-0.000262872
2.12787e-06
-0.00106138
1.05168e-06
-1.72453e-06
-1.33879e-07
-7.44905e-07
-1.53691e-06
-2.92129e-07
3.61782e-07
-9.13926e-07
7.70574e-07
0.00106291
2.12892e-06
-0.00106187
1.03953e-06
-1.72277e-06
-1.34078e-07
-7.4281e-07
-1.53961e-06
-2.931e-07
-9.12591e-07
3.61727e-07
-0.000259442
-2.72748e-07
-2.70877e-07
1.65104e-06
1.61639e-06
-6.9703e-07
-7.04654e-07
0.000259709
-9.05261e-07
-8.66824e-07
0.000262815
-0.000260651
-1.99692e-07
-1.92319e-07
8.33229e-07
0.00106318
-6.82143e-07
8.66168e-07
-9.53269e-08
4.22504e-07
-8.50292e-07
-1.43263e-06
-2.56114e-07
-1.65551e-06
1.65355e-06
8.26743e-07
0.00106361
-6.84063e-07
8.74828e-07
-9.46276e-08
4.28695e-07
-8.53665e-07
-1.43773e-06
-2.53933e-07
0.00106711
1.39177e-06
-0.00106578
7.02114e-07
-1.60528e-06
-7.08102e-08
-6.62956e-07
-1.39253e-06
-2.27962e-07
-8.34677e-07
4.58018e-07
9.1132e-07
0.00106755
1.39101e-06
-0.00106621
6.94916e-07
-1.60981e-06
-7.04429e-08
-6.62634e-07
-1.39513e-06
-2.2773e-07
-8.34955e-07
4.61289e-07
-6.96889e-07
-7.03208e-07
0.000259728
-8.72679e-07
0.00026284
-0.000260663
-1.99125e-07
-1.93933e-07
8.27424e-07
0.0010642
-6.80005e-07
8.30278e-07
-9.76692e-08
4.2598e-07
-8.53036e-07
-1.43464e-06
-2.5371e-07
-1.64923e-06
1.65768e-06
8.31715e-07
0.00106328
-6.83801e-07
8.68019e-07
-9.44139e-08
4.23358e-07
-8.54146e-07
-1.43241e-06
-2.54313e-07
0.00106814
1.39261e-06
-0.00106681
7.00549e-07
-1.56782e-06
-7.51906e-08
-6.58193e-07
-1.38978e-06
-2.25626e-07
-8.34758e-07
4.60916e-07
9.01099e-07
0.00106723
1.39202e-06
-0.00106589
7.00744e-07
-1.60161e-06
-7.25822e-08
-6.62584e-07
-1.39286e-06
-2.29051e-07
-8.36264e-07
4.60612e-07
1.6511e-06
8.31832e-07
0.00106308
-6.83117e-07
8.65395e-07
-9.61544e-08
4.23165e-07
-8.54137e-07
-2.54303e-07
-1.43234e-06
1.39068e-06
-0.00106655
7.05298e-07
-1.57494e-06
-7.68684e-08
-6.57426e-07
-1.38951e-06
-2.25665e-07
4.61378e-07
-8.3521e-07
9.04511e-07
0.00106702
1.3859e-06
-0.00106568
6.98835e-07
-1.60073e-06
-7.14824e-08
-6.61026e-07
-1.39261e-06
-2.29016e-07
-8.35993e-07
4.57771e-07
-6.9851e-07
-6.9936e-07
0.000259689
-8.65228e-07
0.000262788
-0.000260629
-1.98755e-07
-1.93858e-07
1.65177e-06
8.19027e-07
0.00106412
-6.78893e-07
8.26329e-07
-1.01191e-07
4.2143e-07
-8.49648e-07
-2.57638e-07
-1.42878e-06
1.39266e-06
-0.00106622
7.01556e-07
-1.56381e-06
-7.67204e-08
-6.5716e-07
-1.38491e-06
-2.30002e-07
4.52234e-07
-8.37523e-07
8.68428e-07
0.00106805
1.38903e-06
-0.00106671
6.97347e-07
-1.56352e-06
-7.63454e-08
-6.57035e-07
-1.3918e-06
-2.27504e-07
-8.37045e-07
4.58811e-07
-0.000260636
-1.97501e-07
-1.93379e-07
1.6049e-06
1.57247e-06
-6.61632e-07
-6.69977e-07
0.000260969
-9.26221e-07
-8.90406e-07
0.000264094
-0.000261922
-1.80378e-07
-1.75799e-07
6.93451e-07
0.00106846
-6.6446e-07
9.09868e-07
-6.74929e-08
4.60554e-07
-8.34031e-07
-1.3922e-06
-2.25295e-07
-1.60946e-06
1.37557e-06
7.02001e-07
0.00106889
-6.64168e-07
9.15998e-07
-6.71104e-08
4.66399e-07
-8.36933e-07
-1.39761e-06
-2.20318e-07
0.00107247
1.35884e-06
-0.00107114
6.7588e-07
-1.60555e-06
-5.66502e-08
-6.58053e-07
-1.40094e-06
-2.05829e-07
-8.27016e-07
4.70232e-07
9.32425e-07
0.00107288
1.35888e-06
-0.00107156
6.74292e-07
-1.61008e-06
-5.42157e-08
-6.60428e-07
-1.40919e-06
-2.00988e-07
-8.3256e-07
4.78626e-07
-6.64181e-07
-6.66032e-07
0.000260989
-8.93792e-07
0.000264122
-0.000261947
-1.77114e-07
-1.72179e-07
6.91685e-07
0.0010695
-6.62266e-07
8.74095e-07
-7.17881e-08
4.63233e-07
-8.36812e-07
-1.3975e-06
-2.20685e-07
-1.60148e-06
1.377e-06
6.97903e-07
0.00106857
-6.64207e-07
9.08111e-07
-6.71395e-08
4.62964e-07
-8.38078e-07
-1.39544e-06
-2.21406e-07
0.00107349
1.36099e-06
-0.00107217
6.74403e-07
-1.57027e-06
-5.8719e-08
-6.55758e-07
-1.40384e-06
-2.01373e-07
-8.32702e-07
4.72823e-07
9.26736e-07
0.00107257
1.35956e-06
-0.00107124
6.75605e-07
-1.60517e-06
-5.44004e-08
-6.60671e-07
-1.40386e-06
-2.01137e-07
-8.32686e-07
4.72974e-07
1.38031e-06
6.90408e-07
0.00106837
-6.60153e-07
9.06245e-07
-7.04732e-08
4.62924e-07
-8.37397e-07
-2.23473e-07
-1.395e-06
1.35923e-06
-0.0010719
6.73789e-07
-1.57221e-06
-5.81782e-08
-6.55035e-07
-1.40127e-06
-2.03759e-07
4.70138e-07
-8.30236e-07
9.21794e-07
0.00107236
1.35597e-06
-0.00107104
6.7365e-07
-1.59944e-06
-5.8069e-08
-6.54542e-07
-1.40044e-06
-2.02686e-07
-8.2881e-07
4.70822e-07
-6.63823e-07
-6.6871e-07
0.000260953
-8.8813e-07
0.000264074
-0.000261906
-1.80015e-07
-1.7272e-07
1.37465e-06
6.94242e-07
0.0010694
-6.56007e-07
8.67611e-07
-7.52458e-08
4.60886e-07
-8.34171e-07
-2.22802e-07
-1.39208e-06
1.36086e-06
-0.00107157
6.74853e-07
-1.56721e-06
-6.04594e-08
-6.52624e-07
-1.40164e-06
-2.01763e-07
4.69522e-07
-8.33291e-07
8.88753e-07
0.0010734
1.36101e-06
-0.00107208
6.72781e-07
-1.56672e-06
-6.03552e-08
-6.5267e-07
-1.39914e-06
-2.041e-07
-8.30674e-07
4.67169e-07
-0.000261917
-1.75776e-07
-1.73432e-07
1.60429e-06
1.56899e-06
-6.52974e-07
-6.58991e-07
0.000262233
-9.50293e-07
-9.14164e-07
0.000265312
-0.000263142
-1.55223e-07
-1.50417e-07
6.68446e-07
0.00107378
-6.55021e-07
9.32187e-07
-5.19246e-08
4.74187e-07
-8.23295e-07
-1.40196e-06
-1.98608e-07
-1.60886e-06
1.34938e-06
6.67012e-07
0.0010742
-6.57428e-07
9.38332e-07
-4.9556e-08
4.82581e-07
-8.28835e-07
-1.41021e-06
-1.93821e-07
0.00107763
1.31534e-06
-0.00107636
6.45049e-07
-1.59817e-06
-3.82116e-08
-6.43669e-07
-1.401e-06
-1.7671e-07
-8.08756e-07
4.87516e-07
9.56195e-07
0.00107805
1.3153e-06
-0.00107678
6.44377e-07
-1.603e-06
-3.60549e-08
-6.46208e-07
-1.40926e-06
-1.72055e-07
-8.14314e-07
4.9587e-07
-6.55515e-07
-6.6025e-07
0.000262258
-9.17608e-07
0.00026534
-0.000263167
-1.51742e-07
-1.47303e-07
6.672e-07
0.00107481
-6.52763e-07
8.96296e-07
-5.39985e-08
4.76817e-07
-8.28988e-07
-1.40487e-06
-1.9414e-07
-1.60395e-06
1.34957e-06
6.68112e-07
0.00107388
-6.57656e-07
9.32661e-07
-4.97243e-08
4.77108e-07
-8.28687e-07
-1.40466e-06
-1.93769e-07
0.00107866
1.31672e-06
-0.00107739
6.44369e-07
-1.56286e-06
-4.02735e-08
-6.41516e-07
-1.40385e-06
-1.72102e-07
-8.14339e-07
4.90298e-07
9.50762e-07
0.00107773
1.31469e-06
-0.00107646
6.44614e-07
-1.59782e-06
-3.60923e-08
-6.46244e-07
-1.40339e-06
-1.71804e-07
-8.1383e-07
4.90595e-07
1.34659e-06
6.66555e-07
0.00107367
-6.51701e-07
9.27578e-07
-5.3449e-08
4.74757e-07
-8.25192e-07
-1.9566e-07
-1.40142e-06
1.31638e-06
-0.00107712
6.42716e-07
-1.5647e-06
-3.9678e-08
-6.40633e-07
-1.40147e-06
-1.74825e-07
4.87265e-07
-8.12066e-07
9.4547e-07
0.00107752
1.31603e-06
-0.00107625
6.44939e-07
-1.59247e-06
-3.97244e-08
-6.40455e-07
-1.40176e-06
-1.75679e-07
-8.12721e-07
4.86664e-07
-6.53138e-07
-6.60682e-07
0.000262218
-9.12038e-07
0.000265291
-0.000263126
-1.54426e-07
-1.47542e-07
1.35175e-06
6.65806e-07
0.00107471
-6.49798e-07
8.9455e-07
-5.57071e-08
4.71111e-07
-8.27057e-07
-1.9696e-07
-1.4002e-06
1.31603e-06
-0.00107679
6.43495e-07
-1.55956e-06
-4.18039e-08
-6.38165e-07
-1.40118e-06
-1.72264e-07
4.87296e-07
-8.14412e-07
9.11705e-07
0.00107857
1.31691e-06
-0.0010773
6.44104e-07
-1.55996e-06
-4.23414e-08
-6.39074e-07
-1.39897e-06
-1.74772e-07
-8.1218e-07
4.84743e-07
-0.000263138
-1.52003e-07
-1.48021e-07
1.59576e-06
1.56042e-06
-6.37064e-07
-6.42879e-07
0.000263436
-9.71812e-07
-9.35509e-07
0.000266456
-0.00026429
-1.32005e-07
-1.26837e-07
6.37138e-07
0.00107888
-6.39661e-07
9.56102e-07
-3.36827e-08
4.92188e-07
-8.03322e-07
-1.39977e-06
-1.69646e-07
-1.60072e-06
1.30294e-06
6.36555e-07
0.0010793
-6.42336e-07
9.61869e-07
-3.08396e-08
5.00516e-07
-8.08912e-07
-1.40806e-06
-1.6504e-07
0.00108255
1.26712e-06
-0.00108134
6.15233e-07
-1.58886e-06
-1.88863e-08
-6.28494e-07
-1.39461e-06
-1.50035e-07
-7.86721e-07
5.05975e-07
9.77359e-07
0.00108297
1.26683e-06
-0.00108176
6.15337e-07
-1.59404e-06
-1.61985e-08
-6.31294e-07
-1.40289e-06
-1.4541e-07
-7.92224e-07
5.14363e-07
-6.39448e-07
-6.4463e-07
0.000263461
-9.38656e-07
0.000266485
-0.000264316
-1.28941e-07
-1.24026e-07
6.36653e-07
0.00107991
-6.37496e-07
9.19912e-07
-3.6062e-08
4.95006e-07
-8.08842e-07
-1.40259e-06
-1.64994e-07
-1.59546e-06
1.30229e-06
6.36585e-07
0.00107898
-6.42303e-07
9.56525e-07
-3.08098e-08
4.95211e-07
-8.08427e-07
-1.40217e-06
-1.64794e-07
0.00108359
1.26837e-06
-0.00108238
6.14819e-07
-1.55344e-06
-2.16818e-08
-6.2628e-07
-1.39737e-06
-1.45336e-07
-7.92117e-07
5.08854e-07
9.7218e-07
0.00108265
1.26651e-06
-0.00108144
6.1493e-07
-1.5886e-06
-1.60083e-08
-6.31135e-07
-1.39715e-06
-1.45275e-07
-7.91879e-07
5.08853e-07
1.30515e-06
6.37825e-07
0.00107877
-6.36412e-07
9.51256e-07
-3.55377e-08
4.9087e-07
-8.07911e-07
-1.691e-07
-1.40105e-06
1.26852e-06
-0.00108211
6.13019e-07
-1.55551e-06
-2.11453e-08
-6.25583e-07
-1.39487e-06
-1.47979e-07
5.05863e-07
-7.89752e-07
9.66813e-07
0.00108245
1.27069e-06
-0.00108124
6.1679e-07
-1.58329e-06
-2.11464e-08
-6.25387e-07
-1.39636e-06
-1.49541e-07
-7.91568e-07
5.04427e-07
-6.36836e-07
-6.44728e-07
0.00026342
-9.33144e-07
0.000266435
-0.000264274
-1.31608e-07
-1.23904e-07
1.3044e-06
6.36984e-07
0.00107982
-6.35273e-07
9.17153e-07
-3.82985e-08
4.89567e-07
-8.06502e-07
-1.67513e-07
-1.39758e-06
1.26745e-06
-0.00108177
6.14096e-07
-1.55028e-06
-2.39613e-08
-6.23056e-07
-1.39433e-06
-1.45258e-07
5.06208e-07
-7.9195e-07
9.32306e-07
0.00108349
1.26802e-06
-0.00108228
6.16123e-07
-1.55135e-06
-2.49949e-08
-6.24343e-07
-1.39206e-06
-1.47471e-07
-7.89328e-07
5.03681e-07
-0.000264287
-1.30095e-07
-1.23923e-07
1.58674e-06
1.55127e-06
-6.20955e-07
-6.26595e-07
0.000264566
-9.89387e-07
-9.53042e-07
0.000267529
-0.000265366
-1.12504e-07
-1.07321e-07
6.08621e-07
0.00108374
-6.25006e-07
9.76549e-07
-1.45591e-08
5.10528e-07
-7.81115e-07
-1.39246e-06
-1.43997e-07
-1.59199e-06
1.25517e-06
6.08812e-07
0.00108416
-6.27862e-07
9.82053e-07
-1.19006e-08
5.18954e-07
-7.8662e-07
-1.40074e-06
-1.39376e-07
0.00108723
1.22137e-06
-0.00108608
5.91088e-07
-1.58074e-06
-3.25988e-09
-6.15175e-07
-1.38442e-06
-1.27164e-07
-7.63868e-07
5.24294e-07
9.94857e-07
0.00108766
1.22114e-06
-0.00108651
5.91152e-07
-1.58605e-06
-6.13304e-10
-6.18028e-07
-1.3926e-06
-1.22404e-07
-7.69214e-07
5.3281e-07
-6.23659e-07
-6.28576e-07
0.000264591
-9.55909e-07
0.000267558
-0.000265393
-1.09685e-07
-1.04591e-07
6.08134e-07
0.00108478
-6.2277e-07
9.40227e-07
-1.73311e-08
5.13391e-07
-7.86505e-07
-1.39521e-06
-1.39315e-07
-1.5865e-06
1.25487e-06
6.08349e-07
0.00108384
-6.27661e-07
9.76889e-07
-1.17041e-08
5.13378e-07
-7.86259e-07
-1.39502e-06
-1.39245e-07
0.00108827
1.22274e-06
-0.00108712
5.90318e-07
-1.5451e-06
-5.94712e-09
-6.12829e-07
-1.3872e-06
-1.22573e-07
-7.69294e-07
5.27107e-07
9.89675e-07
0.00108733
1.22111e-06
-0.00108618
5.90735e-07
-1.58054e-06
-4.40138e-10
-6.17842e-07
-1.38702e-06
-1.22407e-07
-7.68966e-07
5.27119e-07
1.25878e-06
6.10226e-07
0.00108364
-6.22e-07
9.7146e-07
-1.69412e-08
5.09195e-07
-7.85644e-07
-1.4322e-07
-1.39401e-06
1.22244e-06
-0.00108686
5.89545e-07
-1.54747e-06
-5.69051e-09
-6.124e-07
-1.38453e-06
-1.24957e-07
5.24277e-07
-7.66659e-07
9.84132e-07
0.00108713
1.2233e-06
-0.00108598
5.91996e-07
-1.57539e-06
-5.87707e-09
-6.12364e-07
-1.38516e-06
-1.25497e-07
-7.67317e-07
5.23753e-07
-6.21041e-07
-6.28463e-07
0.00026455
-9.5043e-07
0.000267508
-0.000265351
-1.12396e-07
-1.04433e-07
1.25626e-06
6.09559e-07
0.00108469
-6.20818e-07
9.36999e-07
-2.06257e-08
5.08245e-07
-7.83667e-07
-1.414e-07
-1.38987e-06
1.22155e-06
-0.00108651
5.89992e-07
-1.54216e-06
-8.42785e-09
-6.09762e-07
-1.38405e-06
-1.22302e-07
5.2461e-07
-7.68948e-07
9.5e-07
0.00108818
1.22237e-06
-0.00108703
5.91333e-07
-1.54288e-06
-8.99877e-09
-6.10578e-07
-1.38185e-06
-1.24678e-07
-7.66489e-07
5.21886e-07
-0.000265364
-1.10376e-07
-1.04552e-07
1.57865e-06
1.54295e-06
-6.05946e-07
-6.11614e-07
0.000265625
-1.00856e-06
-9.69453e-07
0.00026853
-0.000266371
-9.30858e-08
-8.78999e-08
5.85136e-07
0.00108836
-6.11876e-07
9.961e-07
2.85075e-09
5.29192e-07
-7.57677e-07
-1.38091e-06
-1.21713e-07
-1.58396e-06
1.20908e-06
5.85118e-07
0.00108879
-6.14723e-07
9.98918e-07
2.85741e-09
5.3773e-07
-7.63006e-07
-1.38909e-06
-1.16933e-07
0.00109166
1.16753e-06
-0.00109058
5.65989e-07
-1.57336e-06
1.36776e-08
-6.02955e-07
-1.36644e-06
-1.04391e-07
-7.35906e-07
5.46047e-07
1.01138e-06
0.00109209
1.16747e-06
-0.00109101
5.65874e-07
-1.57601e-06
1.36867e-08
-6.03104e-07
-1.37202e-06
-9.97309e-08
-7.41304e-07
5.51903e-07
-6.08875e-07
-6.13651e-07
0.000265651
-9.72155e-07
0.000268556
-0.000266397
-9.04349e-08
-8.52064e-08
5.84305e-07
0.00108941
-6.09492e-07
9.57077e-07
-2.47307e-09
5.32013e-07
-7.63097e-07
-1.3837e-06
-1.17138e-07
-1.57846e-06
1.20912e-06
5.84768e-07
0.00108847
-6.14551e-07
9.93709e-07
3.00455e-09
5.32027e-07
-7.62767e-07
-1.38352e-06
-1.16957e-07
0.00109271
1.16884e-06
-0.00109163
5.65098e-07
-1.53487e-06
8.36039e-09
-5.97841e-07
-1.36925e-06
-9.99257e-08
-7.41329e-07
5.48916e-07
1.00611e-06
0.00109177
1.16742e-06
-0.00109068
5.65672e-07
-1.57056e-06
1.37774e-08
-6.02956e-07
-1.36908e-06
-9.97551e-08
-7.41076e-07
5.48885e-07
1.21078e-06
5.85928e-07
0.00108826
-6.09106e-07
9.88149e-07
-2.45324e-09
5.28863e-07
-7.60841e-07
-1.19846e-07
-1.38144e-06
1.16828e-06
-0.00109136
5.64933e-07
-1.5374e-06
8.40916e-09
-5.97554e-07
-1.36652e-06
-1.02185e-07
5.4612e-07
-7.38627e-07
1.00059e-06
0.00109156
1.16793e-06
-0.00109048
5.66176e-07
-1.5654e-06
8.36546e-09
-5.97529e-07
-1.36667e-06
-1.02233e-07
-7.38649e-07
5.46108e-07
-6.06247e-07
-6.13527e-07
0.000265609
-9.66711e-07
0.000268506
-0.000266355
-9.3134e-08
-8.50975e-08
1.21036e-06
5.85233e-07
0.00108932
-6.07153e-07
9.54118e-07
-5.43449e-09
5.26755e-07
-7.60324e-07
-1.19273e-07
-1.37837e-06
1.16775e-06
-0.00109102
5.65075e-07
-1.53201e-06
5.74835e-09
-5.94821e-07
-1.3662e-06
-9.96461e-08
5.46389e-07
-7.41072e-07
9.66685e-07
0.00109262
1.16854e-06
-0.00109154
5.65429e-07
-1.53239e-06
5.58189e-09
-5.95262e-07
-1.36398e-06
-1.02106e-07
-7.38655e-07
5.43585e-07
-0.000266369
-9.06301e-08
-8.52279e-08
1.5697e-06
1.53116e-06
-5.87054e-07
-5.92741e-07
0.000266609
-1.03203e-06
-9.9291e-07
0.000269425
-0.00026728
-6.3177e-08
-5.73275e-08
5.57725e-07
0.00109271
-5.97921e-07
1.01332e-06
1.80755e-08
5.5298e-07
-7.26959e-07
-1.3598e-06
-9.5541e-08
-1.57237e-06
1.14953e-06
5.57591e-07
0.00109315
-5.98072e-07
1.01614e-06
1.80734e-08
5.5886e-07
-7.32414e-07
-1.3654e-06
-9.31747e-08
0.00109574
1.07464e-06
-0.00109476
5.23069e-07
-1.55281e-06
4.06387e-08
-5.76719e-07
-1.3311e-06
-7.10881e-08
-6.95289e-07
5.81475e-07
1.03493e-06
0.00109617
1.07466e-06
-0.0010952
5.22797e-07
-1.55542e-06
4.07007e-08
-5.76816e-07
-1.33675e-06
-6.88307e-08
-6.98092e-07
5.87291e-07
-5.90106e-07
-5.94801e-07
0.000266635
-9.95535e-07
0.000269452
-0.000267306
-6.06015e-08
-5.45384e-08
5.56837e-07
0.00109377
-5.92783e-07
9.74176e-07
1.27344e-08
5.55908e-07
-7.32382e-07
-1.36259e-06
-9.33693e-08
-1.56691e-06
1.14947e-06
5.57415e-07
0.00109283
-5.97917e-07
1.01085e-06
1.81364e-08
5.55842e-07
-7.32172e-07
-1.36244e-06
-9.31809e-08
0.0010968
1.07649e-06
-0.00109582
5.22726e-07
-1.514e-06
3.29337e-08
-5.71324e-07
-1.33374e-06
-6.88876e-08
-6.97838e-07
5.84398e-07
1.02967e-06
0.00109585
1.07439e-06
-0.00109487
5.2252e-07
-1.54999e-06
4.08436e-08
-5.76609e-07
-1.33364e-06
-6.87783e-08
-6.97771e-07
5.84309e-07
1.14977e-06
5.57966e-07
0.00109262
-5.9248e-07
1.00532e-06
1.27175e-08
5.53162e-07
-7.29653e-07
-9.55915e-08
-1.35995e-06
1.07581e-06
-0.00109555
5.22591e-07
-1.51662e-06
3.28415e-08
-5.71055e-07
-1.33102e-06
-7.09782e-08
5.81663e-07
-6.9506e-07
1.02444e-06
0.00109564
1.07461e-06
-0.00109467
5.22885e-07
-1.54464e-06
3.32654e-08
-5.70898e-07
-1.33101e-06
-7.08764e-08
-6.94977e-07
5.81905e-07
-5.87408e-07
-5.94725e-07
0.000266593
-9.90306e-07
0.000269402
-0.000267264
-6.32072e-08
-5.4186e-08
1.15059e-06
5.57195e-07
0.00109368
-5.90158e-07
9.71424e-07
9.95465e-09
5.50541e-07
-7.29729e-07
-9.55337e-08
-1.35732e-06
1.07575e-06
-0.00109521
5.2281e-07
-1.51105e-06
2.89522e-08
-5.68118e-07
-1.33073e-06
-6.85416e-08
5.82058e-07
-6.97585e-07
9.906e-07
0.00109671
1.07599e-06
-0.00109573
5.22296e-07
-1.51126e-06
2.90552e-08
-5.68331e-07
-1.32827e-06
-7.08353e-08
-6.95023e-07
5.79228e-07
-0.000267277
-5.99724e-08
-5.42643e-08
1.5446e-06
1.50584e-06
-5.52396e-07
-5.57891e-07
0.000267485
-1.07532e-06
-1.03636e-06
0.000270138
-0.000268023
-4.07541e-09
1.01209e-09
5.06927e-07
0.00109667
-5.66953e-07
1.04046e-06
5.27165e-08
5.94598e-07
-6.80341e-07
-1.31753e-06
-6.04607e-08
-1.54717e-06
1.03954e-06
5.06572e-07
0.00109711
-5.66973e-07
1.04336e-06