/*--------------------------------*- C++ -*----------------------------------*\
| =========                 |                                                 |
| \\      /  F ield         | OpenFOAM: The Open Source CFD Toolbox           |
|  \\    /   O peration     | Version:  v1906                                 |
|   \\  /    A nd           | Web:      www.OpenFOAM.com                      |
|    \\/     M anipulation  |                                                 |
\*---------------------------------------------------------------------------*/
FoamFile
{
    version     2.0;
    format      ascii;
    class       volScalarField;
    location    "1000";
    object      epsilon;
}
// * * * * * * * * * * * * * * * * * * * * * * * * * * * * * * * * * * * * * //

dimensions      [0 2 -3 0 0 0 0];


internalField   nonuniform List<scalar> 
42616
(
4.95567e-07
4.9733e-07
4.9733e-07
4.99575e-07
4.45573e-07
4.53735e-07
4.53737e-07
4.6371e-07
4.03752e-07
4.18513e-07
4.18517e-07
4.39411e-07
3.68363e-07
3.88552e-07
3.88558e-07
4.17667e-07
3.38015e-07
3.62102e-07
3.6211e-07
3.96081e-07
3.11646e-07
3.38273e-07
3.38281e-07
3.74581e-07
2.88473e-07
3.16637e-07
3.16646e-07
3.5371e-07
2.67923e-07
2.97021e-07
2.9703e-07
3.34147e-07
2.49579e-07
2.7937e-07
2.79379e-07
3.16483e-07
2.33137e-07
2.63679e-07
2.63688e-07
3.01161e-07
2.18365e-07
2.49954e-07
2.49964e-07
2.88493e-07
2.0509e-07
2.38199e-07
2.38208e-07
2.78696e-07
1.93172e-07
2.28411e-07
2.28422e-07
2.71879e-07
1.82498e-07
2.20603e-07
2.20613e-07
2.6817e-07
1.72979e-07
2.14775e-07
2.14788e-07
2.67652e-07
1.64541e-07
2.10938e-07
2.10954e-07
2.70501e-07
1.57122e-07
2.09108e-07
2.09125e-07
2.76698e-07
1.50668e-07
2.09293e-07
2.09316e-07
2.86269e-07
1.45137e-07
2.11547e-07
2.11575e-07
2.99224e-07
1.40492e-07
2.15883e-07
2.15915e-07
3.15601e-07
1.36701e-07
2.22304e-07
2.22342e-07
3.35305e-07
5.06417e-07
5.05584e-07
5.05582e-07
5.06417e-07
5.05583e-07
5.05582e-07
5.09649e-07
5.09649e-07
5.09649e-07
5.09649e-07
5.05584e-07
5.05584e-07
5.06418e-07
5.05584e-07
5.05583e-07
5.06418e-07
4.99575e-07
4.67237e-07
4.97331e-07
4.97335e-07
4.63713e-07
4.63721e-07
4.99575e-07
4.67235e-07
4.97335e-07
4.97336e-07
4.63718e-07
4.63724e-07
4.97332e-07
4.63709e-07
4.63714e-07
4.99575e-07
4.67241e-07
4.97334e-07
4.6371e-07
4.63719e-07
4.6724e-07
4.63709e-07
4.41426e-07
4.5374e-07
4.53748e-07
4.26739e-07
4.26747e-07
4.63708e-07
4.4142e-07
4.53744e-07
4.53751e-07
4.26739e-07
4.26751e-07
4.53741e-07
4.26729e-07
4.26741e-07
4.63711e-07
4.41431e-07
4.53744e-07
4.26734e-07
4.26741e-07
4.41429e-07
4.39407e-07
4.19283e-07
4.18522e-07
4.1853e-07
3.95676e-07
3.95682e-07
4.39405e-07
4.19275e-07
4.18522e-07
4.18535e-07
3.95672e-07
3.95689e-07
4.18525e-07
3.95663e-07
3.95679e-07
4.39413e-07
4.19289e-07
4.18523e-07
3.95669e-07
3.95673e-07
4.19287e-07
4.17662e-07
3.97645e-07
3.88566e-07
3.88571e-07
3.68461e-07
3.68466e-07
4.17656e-07
3.97636e-07
3.8856e-07
3.88578e-07
3.68452e-07
3.68473e-07
3.88569e-07
3.68444e-07
3.68464e-07
4.17669e-07
3.97651e-07
3.88562e-07
3.68452e-07
3.68454e-07
3.97649e-07
3.96076e-07
3.76085e-07
3.6212e-07
3.62124e-07
3.44033e-07
3.44036e-07
3.96069e-07
3.76076e-07
3.62109e-07
3.62131e-07
3.4402e-07
3.44043e-07
3.62123e-07
3.44013e-07
3.44036e-07
3.96082e-07
3.76091e-07
3.62111e-07
3.44022e-07
3.44021e-07
3.7609e-07
3.74575e-07
3.55111e-07
3.38292e-07
3.38295e-07
3.21875e-07
3.21876e-07
3.74568e-07
3.55101e-07
3.38279e-07
3.38303e-07
3.21858e-07
3.21884e-07
3.38296e-07
3.21853e-07
3.21877e-07
3.74582e-07
3.55117e-07
3.3828e-07
3.21862e-07
3.2186e-07
3.55116e-07
3.53705e-07
3.35394e-07
3.16659e-07
3.16661e-07
3.01763e-07
3.01764e-07
3.53696e-07
3.35385e-07
3.16642e-07
3.16668e-07
3.01745e-07
3.01771e-07
3.16662e-07
3.0174e-07
3.01765e-07
3.5371e-07
3.35401e-07
3.16644e-07
3.01749e-07
3.01746e-07
3.354e-07
3.34141e-07
3.17532e-07
2.97044e-07
2.97045e-07
2.83623e-07
2.83624e-07
3.34134e-07
3.17523e-07
2.97025e-07
2.97052e-07
2.83603e-07
2.83631e-07
2.97047e-07
2.83599e-07
2.83625e-07
3.34148e-07
3.1754e-07
2.97027e-07
2.83609e-07
2.83604e-07
3.17538e-07
3.16478e-07
3.01974e-07
2.79394e-07
2.79394e-07
2.67442e-07
2.67442e-07
3.16471e-07
3.01964e-07
2.79374e-07
2.79402e-07
2.67421e-07
2.67449e-07
2.79396e-07
2.67417e-07
2.67443e-07
3.16485e-07
3.01982e-07
2.79375e-07
2.67426e-07
2.67421e-07
3.01981e-07
3.01154e-07
2.89041e-07
2.63704e-07
2.63704e-07
2.53227e-07
2.53227e-07
3.01147e-07
2.89028e-07
2.63682e-07
2.63711e-07
2.53204e-07
2.53234e-07
2.63705e-07
2.532e-07
2.53227e-07
3.01162e-07
2.89046e-07
2.63683e-07
2.53209e-07
2.53205e-07
2.89047e-07
2.88486e-07
2.78951e-07
2.49981e-07
2.49981e-07
2.40981e-07
2.40981e-07
2.88476e-07
2.78939e-07
2.49958e-07
2.49989e-07
2.40957e-07
2.40988e-07
2.49982e-07
2.40952e-07
2.40981e-07
2.88492e-07
2.78958e-07
2.49959e-07
2.40962e-07
2.40957e-07
2.78956e-07
2.78689e-07
2.71831e-07
2.38227e-07
2.38228e-07
2.30702e-07
2.30703e-07
2.78679e-07
2.71819e-07
2.38203e-07
2.38235e-07
2.30677e-07
2.3071e-07
2.38227e-07
2.30671e-07
2.30701e-07
2.78696e-07
2.7184e-07
2.38204e-07
2.30682e-07
2.30677e-07
2.71839e-07
2.71871e-07
2.6787e-07
2.28441e-07
2.28444e-07
2.224e-07
2.22401e-07
2.71861e-07
2.67856e-07
2.28417e-07
2.28451e-07
2.22373e-07
2.2241e-07
2.28442e-07
2.22365e-07
2.22398e-07
2.7188e-07
2.67879e-07
2.28418e-07
2.22376e-07
2.22373e-07
2.67878e-07
2.68162e-07
2.66988e-07
2.20634e-07
2.20639e-07
2.16078e-07
2.16082e-07
2.6815e-07
2.66975e-07
2.2061e-07
2.20647e-07
2.1605e-07
2.1609e-07
2.20636e-07
2.1604e-07
2.16076e-07
2.68172e-07
2.67002e-07
2.2061e-07
2.16052e-07
2.1605e-07
2.66999e-07
2.67643e-07
2.69161e-07
2.14812e-07
2.14818e-07
2.11746e-07
2.11754e-07
2.67629e-07
2.69143e-07
2.14785e-07
2.14826e-07
2.1172e-07
2.11763e-07
2.14811e-07
2.11703e-07
2.11744e-07
2.67654e-07
2.69174e-07
2.14784e-07
2.11718e-07
2.11716e-07
2.69173e-07
2.70491e-07
2.74666e-07
2.10983e-07
2.1099e-07
2.09416e-07
2.09424e-07
2.70473e-07
2.74644e-07
2.10956e-07
2.11e-07
2.09388e-07
2.09437e-07
2.1098e-07
2.09365e-07
2.09411e-07
2.70502e-07
2.74681e-07
2.10952e-07
2.09383e-07
2.09382e-07
2.74678e-07
2.7669e-07
2.83536e-07
2.0916e-07
2.09167e-07
2.09127e-07
2.09135e-07
2.76667e-07
2.83509e-07
2.09132e-07
2.0918e-07
2.09098e-07
2.09151e-07
2.09154e-07
2.09069e-07
2.0912e-07
2.76702e-07
2.83551e-07
2.09125e-07
2.0909e-07
2.0909e-07
2.83549e-07
2.86257e-07
2.95801e-07
2.0935e-07
2.09362e-07
2.10853e-07
2.10856e-07
2.86228e-07
2.95771e-07
2.09326e-07
2.09379e-07
2.10817e-07
2.10878e-07
2.09345e-07
2.10783e-07
2.1084e-07
2.86268e-07
2.9582e-07
2.09316e-07
2.10809e-07
2.10811e-07
2.95819e-07
2.99211e-07
3.11489e-07
2.11611e-07
2.11624e-07
2.1468e-07
2.14684e-07
2.99176e-07
3.11464e-07
2.11591e-07
2.11647e-07
2.14637e-07
2.14708e-07
2.11606e-07
2.146e-07
2.14662e-07
2.99226e-07
3.11521e-07
2.11577e-07
2.14628e-07
2.14632e-07
3.11506e-07
3.15582e-07
3.30516e-07
2.15952e-07
2.15974e-07
2.20593e-07
2.206e-07
3.15555e-07
3.30473e-07
2.15936e-07
2.16e-07
2.20541e-07
2.20626e-07
2.15948e-07
2.20501e-07
2.20573e-07
3.1561e-07
3.30542e-07
2.15917e-07
2.20533e-07
2.20541e-07
3.30536e-07
3.35287e-07
2.22373e-07
2.22412e-07
3.35245e-07
2.22369e-07
2.22439e-07
2.22378e-07
3.3531e-07
2.22342e-07
5.35663e-07
5.35601e-07
5.35655e-07
5.35655e-07
5.34573e-07
5.35516e-07
5.33634e-07
5.35654e-07
5.34573e-07
5.35517e-07
5.35654e-07
5.33634e-07
5.35256e-07
5.35986e-07
5.35987e-07
1.10713e-06
3.88082e-06
9.33891e-07
4.60616e-06
1.26081e-05
1.66011e-05
1.10725e-06
3.88107e-06
9.33925e-07
4.60652e-06
4.95567e-07
4.95567e-07
4.95567e-07
4.57231e-07
4.57231e-07
4.57232e-07
4.57232e-07
5.43144e-07
1.22027e-06
4.95565e-07
4.85522e-07
5.25341e-07
1.20946e-06
4.82301e-07
1.26097e-05
1.66037e-05
5.43162e-07
4.95565e-07
1.22025e-06
4.85523e-07
5.2532e-07
4.82302e-07
1.20945e-06
2.52172e-06
2.52242e-06
4.8419e-07
2.37248e-06
2.37288e-06
1.4308e-06
5.59329e-06
1.32967e-06
6.13635e-06
2.12844e-05
2.31104e-05
1.4312e-06
5.59397e-06
1.32973e-06
6.137e-06
4.45572e-07
4.45573e-07
4.45573e-07
4.13542e-07
4.13542e-07
4.13543e-07
4.13543e-07
5.87084e-07
1.19483e-06
4.46434e-07
4.44291e-07
5.73801e-07
1.20431e-06
4.3569e-07
2.12866e-05
2.31142e-05
5.87102e-07
4.46435e-07
1.19484e-06
4.44294e-07
5.73811e-07
4.35692e-07
1.2044e-06
2.31171e-06
2.31222e-06
4.53488e-07
2.35332e-06
2.35378e-06
1.66327e-06
6.91802e-06
1.59584e-06
7.32009e-06
2.46404e-05
2.4937e-05
1.66337e-06
6.91888e-06
1.59576e-06
7.32101e-06
4.03752e-07
4.03753e-07
4.03753e-07
3.76689e-07
3.76689e-07
3.76691e-07
3.7669e-07
6.15569e-07
1.24281e-06
4.06546e-07
4.10617e-07
6.0838e-07
1.26558e-06
3.97729e-07
2.46436e-05
2.49405e-05
6.15585e-07
4.06547e-07
1.24291e-06
4.10622e-07
6.08396e-07
3.97732e-07
1.26574e-06
2.47396e-06
2.47444e-06
4.3018e-07
2.53268e-06
2.53316e-06
1.81233e-06
7.84648e-06
1.77234e-06
8.09945e-06
2.47365e-05
2.44303e-05
1.81247e-06
7.84747e-06
1.77234e-06
8.10066e-06
3.68362e-07
3.68365e-07
3.68364e-07
3.45192e-07
3.45192e-07
3.45195e-07
3.45194e-07
6.26293e-07
1.31313e-06
3.73478e-07
3.81656e-07
6.24882e-07
1.33369e-06
3.66029e-07
2.47388e-05
2.4434e-05
6.26306e-07
3.7348e-07
1.31321e-06
3.81662e-07
6.24894e-07
3.66032e-07
1.33386e-06
2.63523e-06
2.63572e-06
4.08471e-07
2.67932e-06
2.67982e-06
1.89283e-06
8.39533e-06
1.87319e-06
8.52951e-06
2.36923e-05
2.3265e-05
1.89299e-06
8.39669e-06
1.87321e-06
8.53116e-06
3.38014e-07
3.38017e-07
3.38016e-07
3.17912e-07
3.17911e-07
3.17915e-07
3.17914e-07
6.22109e-07
1.37211e-06
3.45239e-07
3.55922e-07
6.25445e-07
1.38711e-06
3.38764e-07
2.3694e-05
2.32682e-05
6.22123e-07
3.45241e-07
1.37218e-06
3.5593e-07
6.25457e-07
3.38768e-07
1.38726e-06
2.76351e-06
2.76405e-06
3.86837e-07
2.80527e-06
2.80582e-06
1.92987e-06
8.66284e-06
1.92179e-06
8.71874e-06
2.25014e-05
2.21201e-05
1.93005e-06
8.6642e-06
1.92183e-06
8.72032e-06
3.11645e-07
3.11649e-07
3.11648e-07
2.94001e-07
2.94e-07
2.94004e-07
2.94002e-07
6.08887e-07
1.416e-06
3.20492e-07
3.32668e-07
6.15378e-07
1.42753e-06
3.14745e-07
2.25027e-05
2.2123e-05
6.08901e-07
3.20493e-07
1.41609e-06
3.32677e-07
6.15391e-07
3.14749e-07
1.42767e-06
2.89513e-06
2.89573e-06
3.65488e-07
2.94352e-06
2.94416e-06
1.94789e-06
8.75943e-06
1.94363e-06
8.77085e-06
2.14772e-05
2.11783e-05
1.94807e-06
8.76094e-06
1.94367e-06
8.77226e-06
2.88472e-07
2.88476e-07
2.88474e-07
2.72839e-07
2.72838e-07
2.72842e-07
2.72841e-07
5.91863e-07
1.45271e-06
2.98409e-07
3.11548e-07
5.99369e-07
1.46399e-06
2.93242e-07
2.14782e-05
2.1181e-05
5.91878e-07
2.98411e-07
1.4528e-06
3.11557e-07
5.99382e-07
2.93246e-07
1.46414e-06
3.04878e-06
3.0495e-06
3.4506e-07
3.10623e-06
3.107e-06
1.96559e-06
8.76857e-06
1.95959e-06
8.7634e-06
2.06741e-05
2.04527e-05
1.96577e-06
8.77003e-06
1.95963e-06
8.76486e-06
2.67922e-07
2.67926e-07
2.67924e-07
2.53977e-07
2.53976e-07
2.5398e-07
2.53978e-07
5.75449e-07
1.49164e-06
2.785e-07
2.92425e-07
5.82272e-07
1.50544e-06
2.73825e-07
2.06752e-05
2.04549e-05
5.75465e-07
2.78501e-07
1.49173e-06
2.92434e-07
5.82287e-07
2.73829e-07
1.50559e-06
3.22583e-06
3.22663e-06
3.26205e-07
3.29182e-06
3.29277e-06
1.99554e-06
8.74916e-06
1.98437e-06
8.74312e-06
2.00718e-05
1.99103e-05
1.99573e-06
8.75071e-06
1.98437e-06
8.74461e-06
2.49579e-07
2.49583e-07
2.49581e-07
2.37082e-07
2.37082e-07
2.37086e-07
2.37084e-07
5.62902e-07
1.53978e-06
2.60474e-07
2.75263e-07
5.67829e-07
1.55768e-06
2.56239e-07
2.00736e-05
1.99122e-05
5.62919e-07
2.60475e-07
1.53986e-06
2.75272e-07
5.67845e-07
2.56243e-07
1.55781e-06
3.42135e-06
3.42232e-06
3.09449e-07
3.4927e-06
3.49385e-06
2.04526e-06
8.7334e-06
2.02675e-06
8.73143e-06
1.96318e-05
1.95161e-05
2.04543e-06
8.73508e-06
2.02679e-06
8.73297e-06
2.33136e-07
2.3314e-07
2.33138e-07
2.21911e-07
2.2191e-07
2.21914e-07
2.21913e-07
5.56501e-07
1.60095e-06
2.44157e-07
2.60063e-07
5.58642e-07
1.62362e-06
2.4033e-07
1.96337e-05
1.9518e-05
5.56521e-07
2.44158e-07
1.601e-06
2.60072e-07
5.58661e-07
2.40334e-07
1.62378e-06
3.62731e-06
3.62843e-06
2.95169e-07
3.70122e-06
3.70258e-06
2.11905e-06
8.73087e-06
2.09199e-06
8.73382e-06
1.9317e-05
1.92359e-05
2.11902e-06
8.73259e-06
2.09222e-06
8.73532e-06
2.18365e-07
2.18369e-07
2.18367e-07
2.08276e-07
2.08275e-07
2.08279e-07
2.08278e-07
5.57608e-07
1.67643e-06
2.29438e-07
2.4683e-07
5.56738e-07
1.70373e-06
2.25997e-07
1.93189e-05
1.92378e-05
5.57624e-07
2.29439e-07
1.67646e-06
2.46839e-07
5.56757e-07
2.26001e-07
1.70394e-06
3.83567e-06
3.83692e-06
2.83637e-07
3.90915e-06
3.91071e-06
2.21852e-06
8.74044e-06
2.18302e-06
8.74726e-06
1.9096e-05
1.90401e-05
2.21855e-06
8.74204e-06
2.18308e-06
8.749e-06
2.05089e-07
2.05093e-07
2.05092e-07
1.9603e-07
1.96029e-07
1.96033e-07
1.96031e-07
5.66948e-07
1.76538e-06
2.16237e-07
2.35565e-07
5.63105e-07
1.79675e-06
2.13166e-07
1.90978e-05
1.90418e-05
5.66977e-07
2.16238e-07
1.76546e-06
2.35576e-07
5.63122e-07
2.1317e-07
1.79695e-06
4.03866e-06
4.04006e-06
2.75008e-07
4.1092e-06
4.11096e-06
2.34354e-06
8.75817e-06
2.29913e-06
8.76718e-06
1.89422e-05
1.89036e-05
2.34418e-06
8.76012e-06
2.29906e-06
8.76898e-06
1.93171e-07
1.93175e-07
1.93173e-07
1.85054e-07
1.85052e-07
1.85057e-07
1.85055e-07
5.85863e-07
1.86566e-06
2.04494e-07
2.26271e-07
5.78759e-07
1.90033e-06
2.01779e-07
1.89439e-05
1.89054e-05
5.85903e-07
2.04495e-07
1.8658e-06
2.26282e-07
5.78784e-07
2.01783e-07
1.90047e-06
4.22966e-06
4.23122e-06
2.69475e-07
4.2952e-06
4.29711e-06
2.49212e-06
8.77951e-06
2.4385e-06
8.78824e-06
1.88345e-05
1.88075e-05
2.49261e-06
8.78122e-06
2.43834e-06
8.79027e-06
1.82497e-07
1.82501e-07
1.825e-07
1.75253e-07
1.75252e-07
1.75256e-07
1.75254e-07
6.14906e-07
1.97459e-06
1.94158e-07
2.18954e-07
6.04374e-07
2.01135e-06
1.91786e-07
1.88362e-05
1.88093e-05
6.14925e-07
1.94157e-07
1.97465e-06
2.18966e-07
6.0442e-07
1.9179e-07
2.0116e-06
4.40379e-06
4.40548e-06
2.67064e-07
4.46276e-06
4.46474e-06
2.65673e-06
8.80007e-06
2.59706e-06
8.80858e-06
1.87567e-05
1.87368e-05
2.65734e-06
8.80206e-06
2.59676e-06
8.81043e-06
1.72978e-07
1.72983e-07
1.7298e-07
1.66551e-07
1.6655e-07
1.66554e-07
1.66552e-07
6.54315e-07
2.0887e-06
1.85183e-07
2.13622e-07
6.40335e-07
2.12653e-06
1.83145e-07
1.87584e-05
1.87386e-05
6.54363e-07
1.85183e-07
2.0889e-06
2.13636e-07
6.40367e-07
1.83149e-07
2.12672e-06
4.55805e-06
4.5598e-06
2.67676e-07
4.60928e-06
4.61132e-06
2.83134e-06
8.81908e-06
2.76769e-06
8.8269e-06
1.86972e-05
1.86816e-05
2.83187e-06
8.82113e-06
2.7675e-06
8.82867e-06
1.6454e-07
1.64545e-07
1.64542e-07
1.58882e-07
1.58881e-07
1.58885e-07
1.58884e-07
7.04071e-07
2.20466e-06
1.77535e-07
2.10282e-07
6.86704e-07
2.24236e-06
1.75823e-07
1.86988e-05
1.86832e-05
7.04111e-07
1.77535e-07
2.20479e-06
2.103e-07
6.86744e-07
1.75828e-07
2.24257e-06
4.69094e-06
4.69273e-06
2.71507e-07
4.73488e-06
4.73699e-06
3.00726e-06
8.83651e-06
2.94331e-06
8.84347e-06
1.86483e-05
1.86352e-05
3.00787e-06
8.8384e-06
2.94305e-06
8.84537e-06
1.5712e-07
1.57126e-07
1.57122e-07
1.52192e-07
1.5219e-07
1.52196e-07
1.52193e-07
7.63708e-07
2.3192e-06
1.71187e-07
2.08951e-07
7.43125e-07
2.35581e-06
1.69795e-07
1.86498e-05
1.86368e-05
7.63747e-07
1.71186e-07
2.31935e-06
2.0897e-07
7.43145e-07
1.69799e-07
2.35599e-06
4.80357e-06
4.80543e-06
2.78688e-07
4.83994e-06
4.84205e-06
3.1767e-06
8.85245e-06
3.11527e-06
8.85894e-06
1.86058e-05
1.85937e-05
3.17736e-06
8.85431e-06
3.11496e-06
8.86093e-06
1.50667e-07
1.50673e-07
1.50669e-07
1.46434e-07
1.46432e-07
1.46438e-07
1.46435e-07
8.32113e-07
2.42955e-06
1.66121e-07
2.09655e-07
8.08838e-07
2.46423e-06
1.65044e-07
1.86072e-05
1.85956e-05
8.32164e-07
1.66121e-07
2.42971e-06
2.09678e-07
8.08866e-07
1.65049e-07
2.46445e-06
4.89699e-06
4.89887e-06
2.89248e-07
4.9271e-06
4.92918e-06
3.3325e-06
8.86744e-06
3.27633e-06
8.87373e-06
1.85669e-05
1.85565e-05
3.33314e-06
8.86944e-06
3.27612e-06
8.8757e-06
1.45134e-07
1.45142e-07
1.45137e-07
1.41571e-07
1.41569e-07
1.41575e-07
1.41572e-07
9.07941e-07
2.53362e-06
1.62327e-07
2.12431e-07
8.82333e-07
2.56585e-06
1.61567e-07
1.85686e-05
1.8558e-05
9.07988e-07
1.62328e-07
2.53378e-06
2.12458e-07
8.82376e-07
1.61572e-07
2.56606e-06
4.97425e-06
4.97616e-06
3.03239e-07
4.99838e-06
5.00043e-06
3.46995e-06
8.88197e-06
3.42089e-06
8.8878e-06
1.85312e-05
1.85213e-05
3.47048e-06
8.88382e-06
3.42068e-06
8.88957e-06
1.40488e-07
1.40498e-07
1.40491e-07
1.3757e-07
1.37568e-07
1.37574e-07
1.37571e-07
9.89103e-07
2.62991e-06
1.59808e-07
2.1729e-07
9.62003e-07
2.65935e-06
1.5936e-07
1.85328e-05
1.85228e-05
9.8916e-07
1.59809e-07
2.63007e-06
2.17321e-07
9.62047e-07
1.59365e-07
2.65954e-06
5.03756e-06
5.03947e-06
3.20615e-07
5.0568e-06
5.05885e-06
3.58676e-06
8.89548e-06
3.54529e-06
8.90094e-06
1.84976e-05
1.84883e-05
8.89726e-06
3.54521e-06
8.90281e-06
1.36697e-07
1.36708e-07
1.367e-07
1.07341e-06
2.71745e-06
1.58567e-07
2.24249e-07
1.04552e-06
2.74398e-06
1.58438e-07
1.84994e-05
1.0735e-06
1.58571e-07
2.71756e-06
1.04557e-06
1.58441e-07
5.08902e-06
5.09089e-06
3.41275e-07
5.10462e-06
5.1067e-06
5.35256e-07
5.3599e-07
5.35988e-07
1.0916e-05
5.81346e-07
1.09173e-05
5.81338e-07
5.28206e-07
2.43128e-06
2.43221e-06
5.40833e-07
5.4083e-07
5.34573e-07
5.35517e-07
5.33635e-07
5.35654e-07
5.34573e-07
5.35517e-07
5.33634e-07
5.35655e-07
5.30398e-07
3.47217e-06
5.68207e-07
8.21115e-07
5.30398e-07
3.47219e-06
5.68206e-07
8.21079e-07
5.29522e-07
5.2838e-07
1.1669e-06
5.09601e-07
5.32664e-07
5.28352e-07
5.19211e-07
5.29522e-07
5.2838e-07
1.16705e-06
5.09601e-07
5.32664e-07
5.28352e-07
5.19213e-07
5.35256e-07
5.35989e-07
5.35988e-07
1.09162e-05
5.81325e-07
5.28207e-07
2.43175e-06
2.43189e-06
5.40834e-07
5.4083e-07
1.09169e-05
5.81319e-07
5.34573e-07
5.35516e-07
5.33634e-07
5.35654e-07
5.34573e-07
5.35517e-07
5.35654e-07
5.33634e-07
5.30398e-07
3.47251e-06
5.68204e-07
8.2126e-07
5.29522e-07
5.2838e-07
1.16717e-06
5.09601e-07
5.32663e-07
5.28352e-07
5.19219e-07
5.30398e-07
3.4726e-06
5.68203e-07
8.21163e-07
5.29522e-07
5.2838e-07
5.09601e-07
1.16707e-06
5.28352e-07
5.32663e-07
5.19214e-07
5.35663e-07
5.35601e-07
5.35655e-07
5.35655e-07
5.35663e-07
5.35601e-07
5.35655e-07
5.35655e-07
5.35663e-07
5.35601e-07
5.35655e-07
5.35655e-07
5.28434e-07
5.28376e-07
5.09725e-07
5.09725e-07
5.28408e-07
5.28408e-07
5.09782e-07
5.28434e-07
5.28375e-07
5.09725e-07
5.09725e-07
5.28408e-07
5.28408e-07
5.09782e-07
5.28434e-07
5.28375e-07
5.09725e-07
5.09725e-07
5.28408e-07
5.28408e-07
5.09782e-07
5.28434e-07
5.28375e-07
5.09725e-07
5.09725e-07
5.28408e-07
5.28408e-07
5.09782e-07
5.34573e-07
5.35517e-07
5.35654e-07
5.33634e-07
5.29522e-07
5.2838e-07
1.16711e-06
5.09601e-07
5.32663e-07
5.28352e-07
5.19217e-07
5.30398e-07
3.4724e-06
5.68198e-07
8.21168e-07
5.29522e-07
5.2838e-07
5.09601e-07
1.16699e-06
5.28352e-07
5.32662e-07
5.19213e-07
5.30398e-07
3.47253e-06
5.68203e-07
8.21114e-07
5.35256e-07
5.35987e-07
5.35986e-07
1.09175e-05
5.81335e-07
5.28206e-07
2.43203e-06
2.43187e-06
5.4083e-07
5.40827e-07
1.09174e-05
5.81314e-07
5.34573e-07
5.35517e-07
5.35654e-07
5.33634e-07
5.29522e-07
5.2838e-07
5.09602e-07
1.16705e-06
5.28352e-07
5.32662e-07
5.19217e-07
5.29522e-07
5.2838e-07
5.09601e-07
1.16717e-06
5.28352e-07
5.32664e-07
5.19219e-07
5.30398e-07
3.47256e-06
5.68197e-07
8.21238e-07
5.30397e-07
3.47257e-06
5.68208e-07
8.21325e-07
5.28206e-07
2.43168e-06
2.43234e-06
5.40828e-07
5.40829e-07
1.09172e-05
5.81318e-07
1.09174e-05
5.81332e-07
1.26079e-05
1.66001e-05
1.26095e-05
1.66028e-05
2.52167e-06
2.52241e-06
4.84189e-07
2.37214e-06
2.37287e-06
2.05303e-05
1.76846e-05
2.05338e-05
1.76876e-05
4.793e-07
2.30606e-06
2.30672e-06
2.33927e-06
2.34001e-06
1.10698e-06
3.8808e-06
9.34005e-07
4.60602e-06
5.4313e-07
1.22014e-06
4.95565e-07
4.85525e-07
5.25354e-07
1.20939e-06
4.82301e-07
5.43126e-07
1.22032e-06
4.95565e-07
4.85532e-07
5.25361e-07
1.20963e-06
4.82301e-07
1.16104e-06
5.4082e-06
4.81016e-06
1.28052e-06
1.16115e-06
5.40813e-06
4.81021e-06
1.28052e-06
5.50998e-07
4.74299e-07
1.19322e-06
4.57763e-07
1.20475e-06
4.69711e-07
5.66396e-07
5.51001e-07
4.74307e-07
1.1934e-06
4.57763e-07
1.20492e-06
4.69711e-07
5.66391e-07
2.52215e-06
2.5219e-06
4.84188e-07
2.37275e-06
2.37224e-06
1.26086e-05
1.66014e-05
2.05315e-05
1.76864e-05
4.793e-07
2.30659e-06
2.30629e-06
2.33979e-06
2.33961e-06
2.05316e-05
1.76854e-05
5.43162e-07
1.22041e-06
4.95565e-07
4.85529e-07
5.25355e-07
1.20966e-06
4.82302e-07
1.1072e-06
3.8813e-06
9.3377e-07
4.6069e-06
5.43157e-07
4.95565e-07
1.22037e-06
4.85533e-07
5.25344e-07
4.82302e-07
1.20966e-06
1.16106e-06
5.40866e-06
4.8105e-06
1.28068e-06
5.51001e-07
4.74305e-07
1.19342e-06
4.57763e-07
1.20493e-06
4.6971e-07
5.66412e-07
1.16105e-06
5.4092e-06
4.81092e-06
1.28067e-06
5.51e-07
4.74309e-07
4.57764e-07
1.19347e-06
4.69711e-07
1.20498e-06
5.66419e-07
1.10713e-06
3.88079e-06
9.33862e-07
4.60636e-06
5.43142e-07
4.95565e-07
1.22023e-06
4.85525e-07
5.2533e-07
4.82302e-07
1.20952e-06
1.10715e-06
3.88129e-06
9.33699e-07
4.60653e-06
5.50995e-07
4.74296e-07
1.19322e-06
4.57762e-07
1.20476e-06
4.6971e-07
5.66399e-07
1.16107e-06
5.40826e-06
4.80992e-06
1.28062e-06
5.50994e-07
4.743e-07
4.57763e-07
1.19328e-06
4.69711e-07
1.20474e-06
5.66397e-07
1.16098e-06
5.40858e-06
4.81078e-06
1.28059e-06
2.52234e-06
2.52183e-06
4.84191e-07
2.37286e-06
2.37211e-06
1.26094e-05
1.66017e-05
2.05349e-05
1.76878e-05
4.79301e-07
2.30678e-06
2.30623e-06
2.33994e-06
2.33946e-06
2.05323e-05
1.76872e-05
5.4317e-07
4.95565e-07
1.2204e-06
4.8553e-07
5.25332e-07
4.82302e-07
1.20966e-06
1.1074e-06
3.88126e-06
9.33639e-07
4.60659e-06
1.10746e-06
3.88115e-06
9.33756e-07
4.60651e-06
5.50995e-07
4.74297e-07
4.57763e-07
1.19327e-06
4.6971e-07
1.20481e-06
5.66411e-07
5.50994e-07
4.74304e-07
4.57763e-07
1.1934e-06
4.69711e-07
1.20491e-06
5.66418e-07
1.16083e-06
5.40882e-06
4.81078e-06
1.2807e-06
1.16085e-06
5.40881e-06
4.81051e-06
1.28073e-06
1.2609e-05
1.66017e-05
1.26095e-05
1.66024e-05
4.79301e-07
2.30619e-06
2.3067e-06
2.33915e-06
2.33997e-06
2.05317e-05
1.76866e-05
2.05333e-05
1.76879e-05
2.12824e-05
2.31089e-05
2.12862e-05
2.31129e-05
2.31156e-06
2.31225e-06
4.53484e-07
2.35305e-06
2.35365e-06
2.44706e-05
2.35336e-05
2.44741e-05
2.35373e-05
4.50883e-07
2.44249e-06
2.44307e-06
2.38111e-06
2.38167e-06
1.43079e-06
5.59338e-06
1.32965e-06
6.13648e-06
5.87083e-07
1.19482e-06
4.46435e-07
4.44298e-07
5.73802e-07
1.20433e-06
4.35691e-07
5.87078e-07
1.19497e-06
4.46435e-07
4.44306e-07
5.73798e-07
1.20451e-06
4.35692e-07
1.47493e-06
6.77812e-06
6.30105e-06
1.55763e-06
1.47489e-06
6.77818e-06
6.30111e-06
1.5576e-06
5.93329e-07
4.35315e-07
1.23132e-06
4.15788e-07
1.21235e-06
4.2549e-07
6.03618e-07
5.9332e-07
4.35324e-07
1.23144e-06
4.15789e-07
1.21251e-06
4.2549e-07
6.03613e-07
2.31203e-06
2.31174e-06
4.5348e-07
2.3535e-06
2.35316e-06
2.12832e-05
2.311e-05
2.44716e-05
2.35355e-05
4.50881e-07
2.44294e-06
2.44241e-06
2.38152e-06
2.38146e-06
2.44713e-05
2.35345e-05
5.87101e-07
1.19503e-06
4.46435e-07
4.443e-07
5.73817e-07
1.20451e-06
4.35692e-07
1.43119e-06
5.59428e-06
1.32973e-06
6.13776e-06
5.87103e-07
4.46436e-07
1.19504e-06
4.44309e-07
5.73819e-07
4.35693e-07
1.20458e-06
1.47468e-06
6.77877e-06
6.30186e-06
1.55788e-06
5.93343e-07
4.35318e-07
1.23145e-06
4.1579e-07
1.21252e-06
4.2549e-07
6.03633e-07
1.47468e-06
6.77959e-06
6.30218e-06
1.5579e-06
5.93349e-07
4.35328e-07
4.15791e-07
1.23151e-06
4.25492e-07
1.21265e-06
6.0364e-07
1.43097e-06
5.59327e-06
1.32963e-06
6.13655e-06
5.87088e-07
4.46435e-07
1.19486e-06
4.44299e-07
5.73804e-07
4.35692e-07
1.20444e-06
1.43085e-06
5.59395e-06
1.32973e-06
6.13702e-06
5.93324e-07
4.35309e-07
1.23124e-06
4.15787e-07
1.21237e-06
4.25489e-07
6.0362e-07
1.47479e-06
6.77833e-06
6.30102e-06
1.55767e-06
5.93328e-07
4.35318e-07
4.15789e-07
1.23137e-06
4.2549e-07
1.21244e-06
6.03623e-07
1.47482e-06
6.7789e-06
6.30176e-06
1.55769e-06
2.3123e-06
2.31148e-06
4.53489e-07
2.35376e-06
2.35319e-06
2.12849e-05
2.31112e-05
2.44755e-05
2.35386e-05
4.50886e-07
2.44313e-06
2.44261e-06
2.38207e-06
2.38128e-06
2.44723e-05
2.35364e-05
5.87099e-07
4.46435e-07
1.19496e-06
4.44303e-07
5.73809e-07
4.35692e-07
1.20454e-06
1.4312e-06
5.59403e-06
1.32972e-06
6.13718e-06
1.43107e-06
5.59389e-06
1.32971e-06
6.13716e-06
5.93341e-07
4.35311e-07
4.15789e-07
1.23134e-06
4.2549e-07
1.21241e-06
6.03638e-07
5.93338e-07
4.35318e-07
4.15789e-07
1.23146e-06
4.2549e-07
1.21254e-06
6.03636e-07
1.47465e-06
6.77887e-06
6.30182e-06
1.5579e-06
1.47468e-06
6.779e-06
6.30184e-06
1.55791e-06
2.12848e-05
2.31114e-05
2.12865e-05
2.31129e-05
4.50885e-07
2.44269e-06
2.44316e-06
2.38133e-06
2.38178e-06
2.44726e-05
2.35365e-05
2.4474e-05
2.35381e-05
2.46394e-05
2.49361e-05
2.46423e-05
2.49391e-05
2.47403e-06
2.4743e-06
4.30176e-07
2.53246e-06
2.53308e-06
2.48375e-05
2.49381e-05
2.48402e-05
2.49408e-05
4.28476e-07
2.61088e-06
2.61149e-06
2.56085e-06
2.56116e-06
1.66324e-06
6.918e-06
1.59581e-06
7.32027e-06
6.15566e-07
1.24289e-06
4.06547e-07
4.10628e-07
6.0838e-07
1.26565e-06
3.9773e-07
6.15561e-07
1.24295e-06
4.06548e-07
4.10635e-07
6.08375e-07
1.26579e-06
3.97731e-07
1.69464e-06
7.75895e-06
7.4336e-06
1.74774e-06
1.69461e-06
7.75925e-06
7.43357e-06
1.74771e-06
6.18842e-07
4.03022e-07
1.30099e-06
3.81227e-07
1.27831e-06
3.89301e-07
6.23022e-07
6.18837e-07
4.03029e-07
1.30115e-06
3.81228e-07
1.2784e-06
3.89302e-07
6.23018e-07
2.47423e-06
2.47401e-06
4.30168e-07
2.53297e-06
2.53235e-06
2.46395e-05
2.49364e-05
2.48384e-05
2.49388e-05
4.28472e-07
2.61141e-06
2.61071e-06
2.5611e-06
2.56078e-06
2.48376e-05
2.49381e-05
6.15589e-07
1.24297e-06
4.06548e-07
4.10626e-07
6.08402e-07
1.26581e-06
3.97732e-07
1.66337e-06
6.91918e-06
1.59576e-06
7.32173e-06
6.15591e-07
4.0655e-07
1.24309e-06
4.10641e-07
6.084e-07
3.97733e-07
1.26586e-06
1.69462e-06
7.76011e-06
7.43451e-06
1.74786e-06
6.18862e-07
4.03019e-07
1.3012e-06
3.8123e-07
1.27848e-06
3.89301e-07
6.23046e-07
1.69462e-06
7.7608e-06
7.43481e-06
1.74786e-06
6.18864e-07
4.03035e-07
3.81231e-07
1.30121e-06
3.89304e-07
1.27854e-06
6.23047e-07
1.66332e-06
6.91793e-06
1.59588e-06
7.32046e-06
6.15572e-07
4.06548e-07
1.24288e-06
4.10631e-07
6.08382e-07
3.97731e-07
1.26572e-06
1.66332e-06
6.9187e-06
1.5959e-06
7.32101e-06
6.18843e-07
4.0301e-07
1.30093e-06
3.81226e-07
1.27825e-06
3.893e-07
6.23026e-07
1.69468e-06
7.75945e-06
7.43351e-06
1.74778e-06
6.18845e-07
4.03025e-07
3.81228e-07
1.30107e-06
3.89302e-07
1.27833e-06
6.23028e-07
1.69468e-06
7.7599e-06
7.43421e-06
1.74777e-06
2.47471e-06
2.47394e-06
4.30181e-07
2.53314e-06
2.53265e-06
2.46412e-05
2.49377e-05
2.48413e-05
2.4942e-05
4.28482e-07
2.61154e-06
2.61106e-06
2.56153e-06
2.56076e-06
2.48391e-05
2.49395e-05
6.15584e-07
4.06549e-07
1.24298e-06
4.10628e-07
6.08396e-07
3.97732e-07
1.26581e-06
1.66336e-06
6.91878e-06
1.59575e-06
7.32104e-06
1.66338e-06
6.91884e-06
1.59577e-06
7.32119e-06
6.18858e-07
4.03015e-07
3.81229e-07
1.30109e-06
3.89301e-07
1.27834e-06
6.2304e-07
6.18859e-07
4.03021e-07
3.81229e-07
1.30117e-06
3.89303e-07
1.27843e-06
6.2304e-07
1.69461e-06
7.76002e-06
7.43439e-06
1.74785e-06
1.69462e-06
7.76019e-06
7.43445e-06
1.74786e-06
2.46414e-05
2.4938e-05
2.46429e-05
2.49393e-05
4.2848e-07
2.61108e-06
2.61156e-06
2.56079e-06
2.56127e-06
2.48393e-05
2.49398e-05
2.48404e-05
2.4941e-05
2.47358e-05
2.44299e-05
2.47378e-05
2.44325e-05
2.63526e-06
2.6356e-06
4.08467e-07
2.67915e-06
2.67976e-06
2.38692e-05
2.42708e-05
2.38719e-05
2.4273e-05
4.06875e-07
2.74223e-06
2.74284e-06
2.7009e-06
2.70152e-06
1.81231e-06
7.84642e-06
1.77232e-06
8.09962e-06
6.26287e-07
1.31319e-06
3.73479e-07
3.81671e-07
6.24879e-07
1.33375e-06
3.6603e-07
6.26284e-07
1.31329e-06
3.73481e-07
3.81676e-07
6.24876e-07
1.33392e-06
3.66031e-07
1.83091e-06
8.35172e-06
8.16319e-06
1.85965e-06
1.8309e-06
8.35209e-06
8.16347e-06
1.85964e-06
6.26731e-07
3.74974e-07
1.36249e-06
3.51931e-07
1.34468e-06
3.58854e-07
6.25634e-07
6.26729e-07
3.74979e-07
1.36268e-06
3.51932e-07
1.34488e-06
3.58856e-07
6.25632e-07
2.63557e-06
2.63518e-06
4.08458e-07
2.67968e-06
2.67895e-06
2.47353e-05
2.44304e-05
2.38699e-05
2.42719e-05
4.06869e-07
2.74275e-06
2.74201e-06
2.70148e-06
2.70106e-06
2.38701e-05
2.42707e-05
6.26314e-07
1.31332e-06
3.7348e-07
3.81664e-07
6.249e-07
1.33396e-06
3.66032e-07
1.81246e-06
7.84764e-06
1.77233e-06
8.10122e-06
6.26314e-07
3.73483e-07
1.31342e-06
3.81683e-07
6.24902e-07
3.66034e-07
1.33398e-06
1.83093e-06
8.35321e-06
8.16442e-06
1.85981e-06
6.26755e-07
3.74966e-07
1.36271e-06
3.51933e-07
1.34491e-06
3.58855e-07
6.25664e-07
1.83092e-06
8.35345e-06
8.16443e-06
1.8598e-06
6.26756e-07
3.74986e-07
3.51935e-07
1.36272e-06
3.58858e-07
1.34501e-06
6.25663e-07
1.81237e-06
7.84641e-06
1.77239e-06
8.09985e-06
6.26294e-07
3.7348e-07
1.31321e-06
3.81674e-07
6.24882e-07
3.66031e-07
1.33384e-06
1.81236e-06
7.84705e-06
1.77238e-06
8.10019e-06
6.26736e-07
3.74958e-07
1.36244e-06
3.5193e-07
1.34472e-06
3.58853e-07
6.25642e-07
1.83096e-06
8.3523e-06
8.16348e-06
1.8597e-06
6.26735e-07
3.74977e-07
3.51932e-07
1.36259e-06
3.58855e-07
1.3448e-06
6.25641e-07
1.83095e-06
8.35248e-06
8.16404e-06
1.85969e-06
2.63596e-06
2.6352e-06
4.08473e-07
2.67981e-06
2.6793e-06
2.47372e-05
2.44309e-05
2.38734e-05
2.42739e-05
4.06882e-07
2.7429e-06
2.74235e-06
2.70188e-06
2.70109e-06
2.38705e-05
2.42727e-05
6.26308e-07
3.73481e-07
1.31332e-06
3.81666e-07
6.24897e-07
3.66032e-07
1.33395e-06
1.81245e-06
7.84727e-06
1.77232e-06
8.10049e-06
1.81247e-06
7.84737e-06
1.77234e-06
8.10057e-06
6.26748e-07
3.74965e-07
3.51933e-07
1.36261e-06
3.58855e-07
1.34479e-06
6.25655e-07
6.26751e-07
3.74968e-07
3.51933e-07
1.3627e-06
3.58856e-07
1.34492e-06
6.25657e-07
1.83091e-06
8.35292e-06
8.16419e-06
1.85979e-06
1.83092e-06
8.35296e-06
8.16444e-06
1.85981e-06
2.47375e-05
2.44312e-05
2.47386e-05
2.4432e-05
4.0688e-07
2.74237e-06
2.7429e-06
2.70112e-06
2.70163e-06
2.38708e-05
2.42729e-05
2.38714e-05
2.42738e-05
2.36914e-05
2.32643e-05
2.36932e-05
2.32668e-05
2.76335e-06
2.76401e-06
3.86832e-07
2.80516e-06
2.8058e-06
2.26714e-05
2.30854e-05
2.26738e-05
2.30868e-05
3.85288e-07
2.87155e-06
2.87222e-06
2.82707e-06
2.82772e-06
1.89282e-06
8.3959e-06
1.87318e-06
8.53012e-06
6.22101e-07
1.37209e-06
3.4524e-07
3.5594e-07
6.25439e-07
1.38715e-06
3.38766e-07
6.221e-07
1.37227e-06
3.45242e-07
3.55944e-07
6.25438e-07
1.38735e-06
3.38767e-07
1.90237e-06
8.64728e-06
8.55705e-06
1.91515e-06
1.90237e-06
8.648e-06
8.55772e-06
1.91514e-06
6.21488e-07
3.49913e-07
1.40847e-06
3.26405e-07
1.39556e-06
3.32492e-07
6.16284e-07
6.21488e-07