/*--------------------------------*- C++ -*----------------------------------*\
| =========                 |                                                 |
| \\      /  F ield         | OpenFOAM: The Open Source CFD Toolbox           |
|  \\    /   O peration     | Version:  v1906                                 |
|   \\  /    A nd           | Web:      www.OpenFOAM.com                      |
|    \\/     M anipulation  |                                                 |
\*---------------------------------------------------------------------------*/
FoamFile
{
    version     2.0;
    format      ascii;
    class       volScalarField;
    location    "1000";
    object      k;
}
// * * * * * * * * * * * * * * * * * * * * * * * * * * * * * * * * * * * * * //

dimensions      [0 2 -2 0 0 0 0];


internalField   nonuniform List<scalar> 
42616
(
3.93823e-05
5.1746e-05
5.17486e-05
5.38149e-05
3.97416e-05
5.1944e-05
5.19397e-05
5.39776e-05
4.00968e-05
5.21988e-05
5.21986e-05
5.41747e-05
4.04082e-05
5.2338e-05
5.23441e-05
5.42836e-05
4.06168e-05
5.23381e-05
5.23378e-05
5.42536e-05
4.08871e-05
5.25653e-05
5.25599e-05
5.44839e-05
4.12232e-05
5.27584e-05
5.27636e-05
5.4634e-05
4.13544e-05
5.2747e-05
5.27543e-05
5.45983e-05
4.15033e-05
5.276e-05
5.27533e-05
5.46088e-05
4.16609e-05
5.28194e-05
5.28091e-05
5.46516e-05
4.18437e-05
5.2912e-05
5.29195e-05
5.47413e-05
4.19883e-05
5.29699e-05
5.29797e-05
5.48064e-05
4.20459e-05
5.28827e-05
5.2866e-05
5.4664e-05
4.21152e-05
5.28748e-05
5.28757e-05
5.47344e-05
4.22606e-05
5.30089e-05
5.30302e-05
5.48935e-05
4.21285e-05
5.2651e-05
5.26238e-05
5.43473e-05
4.20895e-05
5.26438e-05
5.26436e-05
5.45413e-05
4.24841e-05
5.30343e-05
5.30527e-05
5.4953e-05
4.24497e-05
5.27521e-05
5.27435e-05
5.44856e-05
4.21471e-05
5.24397e-05
5.24328e-05
5.42376e-05
4.17695e-05
5.14047e-05
5.1401e-05
5.40667e-05
5.37706e-05
5.17071e-05
5.17051e-05
5.37657e-05
5.17077e-05
5.17067e-05
5.17046e-05
5.17088e-05
5.37685e-05
5.17079e-05
5.17096e-05
5.37722e-05
5.38101e-05
5.39405e-05
5.17518e-05
5.17448e-05
5.19077e-05
5.18859e-05
5.38023e-05
5.39155e-05
5.17524e-05
5.17457e-05
5.19077e-05
5.18819e-05
5.17576e-05
5.1888e-05
5.19022e-05
5.38035e-05
5.39118e-05
5.17583e-05
5.1886e-05
5.19022e-05
5.3931e-05
5.39914e-05
5.41223e-05
5.19641e-05
5.19433e-05
5.21251e-05
5.21363e-05
5.39683e-05
5.41371e-05
5.1964e-05
5.19374e-05
5.21242e-05
5.21336e-05
5.1952e-05
5.21359e-05
5.21246e-05
5.39634e-05
5.41356e-05
5.19516e-05
5.21334e-05
5.21239e-05
5.4125e-05
5.41642e-05
5.42371e-05
5.21772e-05
5.21982e-05
5.22965e-05
5.23222e-05
5.41868e-05
5.42649e-05
5.21766e-05
5.21977e-05
5.22971e-05
5.23267e-05
5.21868e-05
5.23268e-05
5.2324e-05
5.4187e-05
5.42703e-05
5.21865e-05
5.2333e-05
5.23249e-05
5.42634e-05
5.42605e-05
5.4258e-05
5.23198e-05
5.23332e-05
5.23455e-05
5.23321e-05
5.42829e-05
5.42281e-05
5.23205e-05
5.23373e-05
5.2346e-05
5.23318e-05
5.23389e-05
5.23351e-05
5.23404e-05
5.42882e-05
5.42262e-05
5.23399e-05
5.23372e-05
5.23407e-05
5.42372e-05
5.42848e-05
5.44328e-05
5.23593e-05
5.23364e-05
5.25066e-05
5.24942e-05
5.42472e-05
5.44232e-05
5.23596e-05
5.23336e-05
5.25057e-05
5.24855e-05
5.23436e-05
5.24914e-05
5.24893e-05
5.42416e-05
5.4416e-05
5.23435e-05
5.2482e-05
5.24888e-05
5.44188e-05
5.44885e-05
5.45927e-05
5.25707e-05
5.25667e-05
5.27222e-05
5.27324e-05
5.44864e-05
5.46055e-05
5.25699e-05
5.25613e-05
5.27222e-05
5.27335e-05
5.25637e-05
5.27347e-05
5.27368e-05
5.44814e-05
5.46081e-05
5.25635e-05
5.27375e-05
5.2737e-05
5.461e-05
5.46142e-05
5.45652e-05
5.27411e-05
5.27549e-05
5.27349e-05
5.27535e-05
5.4629e-05
5.45859e-05
5.27417e-05
5.27583e-05
5.27363e-05
5.27599e-05
5.27607e-05
5.27586e-05
5.27602e-05
5.46331e-05
5.45941e-05
5.27612e-05
5.27665e-05
5.27612e-05
5.45892e-05
5.45748e-05
5.45947e-05
5.27265e-05
5.2742e-05
5.27443e-05
5.27413e-05
5.45953e-05
5.4584e-05
5.27279e-05
5.27478e-05
5.27451e-05
5.27403e-05
5.27479e-05
5.27439e-05
5.2743e-05
5.46032e-05
5.45778e-05
5.2749e-05
5.27444e-05
5.27437e-05
5.45835e-05
5.46239e-05
5.46513e-05
5.27751e-05
5.27599e-05
5.28179e-05
5.28014e-05
5.4609e-05
5.46329e-05
5.27749e-05
5.27518e-05
5.28173e-05
5.27903e-05
5.27593e-05
5.27997e-05
5.27978e-05
5.46014e-05
5.46222e-05
5.27591e-05
5.27898e-05
5.27973e-05
5.46312e-05
5.4669e-05
5.46999e-05
5.28295e-05
5.28212e-05
5.28813e-05
5.28868e-05
5.4655e-05
5.47069e-05
5.28287e-05
5.28096e-05
5.2881e-05
5.28892e-05
5.28133e-05
5.28883e-05
5.28895e-05
5.46449e-05
5.47105e-05
5.28125e-05
5.28921e-05
5.28889e-05
5.47087e-05
5.4728e-05
5.47725e-05
5.29033e-05
5.29091e-05
5.29565e-05
5.29616e-05
5.47356e-05
5.47768e-05
5.29038e-05
5.29156e-05
5.29593e-05
5.29721e-05
5.29166e-05
5.29659e-05
5.29715e-05
5.47429e-05
5.47928e-05
5.29168e-05
5.29773e-05
5.29743e-05
5.47903e-05
5.47895e-05
5.46678e-05
5.29592e-05
5.29656e-05
5.29078e-05
5.29221e-05
5.47944e-05
5.46845e-05
5.29621e-05
5.29744e-05
5.29081e-05
5.29082e-05
5.29732e-05
5.29246e-05
5.29087e-05
5.48095e-05
5.46641e-05
5.29761e-05
5.29123e-05
5.29086e-05
5.46642e-05
5.46686e-05
5.46738e-05
5.28717e-05
5.2881e-05
5.28571e-05
5.28496e-05
5.46849e-05
5.46529e-05
5.287e-05
5.2863e-05
5.28537e-05
5.28368e-05
5.28688e-05
5.28502e-05
5.285e-05
5.46624e-05
5.46449e-05
5.28668e-05
5.28383e-05
5.2847e-05
5.46631e-05
5.4743e-05
5.48922e-05
5.28984e-05
5.28746e-05
5.30249e-05
5.30088e-05
5.47104e-05
5.48639e-05
5.28957e-05
5.28748e-05
5.30291e-05
5.30302e-05
5.28907e-05
5.30101e-05
5.30277e-05
5.47163e-05
5.48991e-05
5.28887e-05
5.30329e-05
5.30319e-05
5.48959e-05
5.48874e-05
5.43543e-05
5.30184e-05
5.30074e-05
5.27023e-05
5.27433e-05
5.48697e-05
5.44149e-05
5.3023e-05
5.30272e-05
5.27022e-05
5.27222e-05
5.30226e-05
5.27475e-05
5.27154e-05
5.4901e-05
5.4377e-05
5.3027e-05
5.2727e-05
5.2714e-05
5.43673e-05
5.43343e-05
5.44144e-05
5.26077e-05
5.26466e-05
5.25647e-05
5.25796e-05
5.43962e-05
5.44064e-05
5.26049e-05
5.26192e-05
5.25605e-05
5.25608e-05
5.26196e-05
5.25836e-05
5.25706e-05
5.43541e-05
5.44007e-05
5.26157e-05
5.25648e-05
5.25664e-05
5.4414e-05
5.45471e-05
5.49462e-05
5.26587e-05
5.26411e-05
5.30314e-05
5.29962e-05
5.45184e-05
5.48945e-05
5.26557e-05
5.26407e-05
5.30352e-05
5.30159e-05
5.26555e-05
5.29948e-05
5.30188e-05
5.45268e-05
5.49218e-05
5.26538e-05
5.30166e-05
5.30233e-05
5.49273e-05
5.49709e-05
5.45064e-05
5.30643e-05
5.30358e-05
5.28755e-05
5.2894e-05
5.49242e-05
5.4542e-05
5.30683e-05
5.30521e-05
5.28774e-05
5.28887e-05
5.30538e-05
5.28957e-05
5.289e-05
5.49479e-05
5.45298e-05
5.30581e-05
5.28918e-05
5.28897e-05
5.45288e-05
5.44607e-05
5.42135e-05
5.2716e-05
5.2747e-05
5.24332e-05
5.24547e-05
5.45002e-05
5.42434e-05
5.27163e-05
5.2738e-05
5.24319e-05
5.24471e-05
5.27388e-05
5.24608e-05
5.24437e-05
5.44879e-05
5.42375e-05
5.27371e-05
5.24535e-05
5.24425e-05
5.42264e-05
5.42318e-05
5.42002e-05
5.24242e-05
5.24357e-05
5.23371e-05
5.23206e-05
5.42537e-05
5.41727e-05
5.24227e-05
5.24281e-05
5.23365e-05
5.23132e-05
5.24265e-05
5.23211e-05
5.23226e-05
5.42479e-05
5.4166e-05
5.24255e-05
5.23152e-05
5.23233e-05
5.41795e-05
5.40857e-05
5.14277e-05
5.14042e-05
5.40531e-05
5.14281e-05
5.13992e-05
4.1756e-05
4.17511e-05
4.17629e-05
5.14143e-05
5.40475e-05
5.14156e-05
3.92956e-05
3.9293e-05
3.92986e-05
3.92955e-05
6.86485e-05
7.34954e-05
6.86371e-05
7.35232e-05
7.12461e-05
7.1271e-05
6.86512e-05
7.35009e-05
6.86411e-05
7.35287e-05
3.93756e-05
3.93805e-05
3.93839e-05
3.96493e-05
3.96323e-05
3.96342e-05
3.96492e-05
6.08006e-05
6.48783e-05
4.71105e-05
5.17897e-05
6.07771e-05
6.48918e-05
4.71689e-05
7.12439e-05
7.12691e-05
6.07984e-05
4.71137e-05
6.48799e-05
5.17917e-05
6.07768e-05
4.71717e-05
6.48927e-05
6.99969e-05
7.00086e-05
5.38496e-05
7.00074e-05
7.00188e-05
6.87261e-05
7.35618e-05
6.86829e-05
7.35892e-05
7.13043e-05
7.13307e-05
6.87286e-05
7.35674e-05
6.86855e-05
7.35941e-05
3.97234e-05
3.97236e-05
3.97371e-05
4.0009e-05
4.00101e-05
4.0009e-05
4.00061e-05
6.08956e-05
6.49323e-05
4.73523e-05
5.20052e-05
6.08448e-05
6.4993e-05
4.74179e-05
7.13027e-05
7.133e-05
6.08914e-05
4.73516e-05
6.49284e-05
5.19999e-05
6.08411e-05
4.74159e-05
6.49881e-05
7.0036e-05
7.00453e-05
5.40229e-05
7.00956e-05
7.01064e-05
6.8792e-05
7.36115e-05
6.87806e-05
7.36213e-05
7.13545e-05
7.13705e-05
6.87958e-05
7.36161e-05
6.87834e-05
7.36264e-05
4.01086e-05
4.01086e-05
4.01009e-05
4.03393e-05
4.03656e-05
4.03726e-05
4.03633e-05
6.10195e-05
6.5069e-05
4.76309e-05
5.22551e-05
6.09816e-05
6.50849e-05
4.77024e-05
7.13536e-05
7.13685e-05
6.10189e-05
4.763e-05
6.50705e-05
5.22572e-05
6.09801e-05
4.77036e-05
6.50891e-05
7.01636e-05
7.01754e-05
5.42129e-05
7.01738e-05
7.01862e-05
6.87684e-05
7.36358e-05
6.87838e-05
7.3654e-05
7.13835e-05
7.14022e-05
6.87732e-05
7.36425e-05
6.8788e-05
7.36605e-05
4.04286e-05
4.04365e-05
4.04301e-05
4.05679e-05
4.05582e-05
4.05611e-05
4.05687e-05
6.10143e-05
6.50532e-05
4.78578e-05
5.23389e-05
6.10236e-05
6.50088e-05
4.7883e-05
7.13807e-05
7.14001e-05
6.10124e-05
4.78626e-05
6.50575e-05
5.23446e-05
6.10226e-05
4.78869e-05
6.50124e-05
7.01146e-05
7.01267e-05
5.42636e-05
7.00596e-05
7.00714e-05
6.87586e-05
7.3695e-05
6.87328e-05
7.37335e-05
7.1443e-05
7.14785e-05
6.87602e-05
7.37002e-05
6.87355e-05
7.37376e-05
4.0599e-05
4.05986e-05
4.06078e-05
4.08069e-05
4.07891e-05
4.07851e-05
4.07904e-05
6.0982e-05
6.4973e-05
4.79158e-05
5.23577e-05
6.09736e-05
6.50435e-05
4.79352e-05
7.14417e-05
7.14775e-05
6.09767e-05
4.79152e-05
6.49715e-05
5.23508e-05
6.09689e-05
4.79322e-05
6.50352e-05
7.00553e-05
7.00657e-05
5.4284e-05
7.01531e-05
7.01636e-05
6.8883e-05
7.37631e-05
6.88582e-05
7.3772e-05
7.15042e-05
7.15158e-05
6.88862e-05
7.37682e-05
6.88599e-05
7.37775e-05
4.08746e-05
4.08722e-05
4.08749e-05
4.11458e-05
4.1151e-05
4.11546e-05
4.11539e-05
6.1166e-05
6.51669e-05
4.81116e-05
5.26329e-05
6.11026e-05
6.51977e-05
4.81921e-05
7.15024e-05
7.15146e-05
6.11643e-05
4.81092e-05
6.51633e-05
5.26305e-05
6.10992e-05
4.81911e-05
6.51978e-05
7.02705e-05
7.02808e-05
5.45412e-05
7.02882e-05
7.02995e-05
6.88699e-05
7.37786e-05
6.88831e-05
7.37888e-05
7.15239e-05
7.15398e-05
6.88765e-05
7.37854e-05
6.88874e-05
7.37951e-05
4.12343e-05
4.1239e-05
4.12377e-05
4.13365e-05
4.13573e-05
4.13669e-05
4.13656e-05
6.11749e-05
6.51781e-05
4.83845e-05
5.27649e-05
6.11803e-05
6.51493e-05
4.84134e-05
7.15232e-05
7.15391e-05
6.11738e-05
4.83874e-05
6.51846e-05
5.27716e-05
6.11792e-05
4.84175e-05
6.51576e-05
7.0236e-05
7.02493e-05
5.46218e-05
7.02056e-05
7.02189e-05
6.88373e-05
7.38118e-05
6.88376e-05
7.38309e-05
7.15648e-05
7.15843e-05
6.8842e-05
7.3817e-05
6.88432e-05
7.3836e-05
4.1373e-05
4.13846e-05
4.13817e-05
4.1454e-05
4.14541e-05
4.1457e-05
4.14566e-05
6.11221e-05
6.51274e-05
4.84219e-05
5.27406e-05
6.11304e-05
6.51308e-05
4.84183e-05
7.15622e-05
7.15811e-05
6.112e-05
4.84273e-05
6.5132e-05
5.27458e-05
6.11293e-05
4.84232e-05
6.51314e-05
7.0207e-05
7.02177e-05
5.45691e-05
7.02252e-05
7.0236e-05
6.88424e-05
7.38486e-05
6.88411e-05
7.38615e-05
7.1604e-05
7.16227e-05
6.88454e-05
7.38541e-05
6.88439e-05
7.38672e-05
4.14954e-05
4.14946e-05
4.14979e-05
4.16232e-05
4.1606e-05
4.15982e-05
4.16061e-05
6.11224e-05
6.51304e-05
4.84482e-05
5.27732e-05
6.11174e-05
6.51261e-05
4.84694e-05
7.16015e-05
7.16215e-05
6.11166e-05
4.84461e-05
6.51271e-05
5.27659e-05
6.11129e-05
4.8465e-05
6.51232e-05
7.02261e-05
7.02371e-05
5.46128e-05
7.02207e-05
7.02319e-05
6.88339e-05
7.38832e-05
6.88329e-05
7.39049e-05
7.16445e-05
7.16624e-05
6.88352e-05
7.38891e-05
6.88343e-05
7.39112e-05
4.1648e-05
4.16394e-05
4.16447e-05
4.1794e-05
4.17952e-05
4.17981e-05
4.17968e-05
6.11212e-05
6.51195e-05
4.85355e-05
5.284e-05
6.11174e-05
6.51292e-05
4.85591e-05
7.16423e-05
7.16596e-05
6.1113e-05
4.85298e-05
6.51157e-05
5.28329e-05
6.111e-05
4.85535e-05
6.51237e-05
7.02151e-05
7.02253e-05
5.4659e-05
7.02204e-05
7.02284e-05
6.8889e-05
7.39335e-05
6.88595e-05
7.3941e-05
7.16826e-05
7.17019e-05
6.88975e-05
7.39389e-05
6.88635e-05
7.39463e-05
4.18473e-05
4.18548e-05
4.18525e-05
4.19543e-05
4.19605e-05
4.19743e-05
4.19723e-05
6.11669e-05
6.51678e-05
4.86423e-05
5.29327e-05
6.11411e-05
6.52041e-05
4.8667e-05
7.16818e-05
7.17029e-05
6.11716e-05
4.86466e-05
6.51695e-05
5.29435e-05
6.11399e-05
4.86747e-05
6.5215e-05
7.02816e-05
7.02955e-05
5.47592e-05
7.0337e-05
7.03547e-05
6.88727e-05
7.39335e-05
6.89116e-05
7.39256e-05
7.17109e-05
7.17128e-05
6.88784e-05
7.39395e-05
6.89259e-05
7.39303e-05
4.19953e-05
4.20081e-05
4.20056e-05
4.20443e-05
4.20556e-05
4.20509e-05
4.20503e-05
6.11732e-05
6.52341e-05
4.8733e-05
5.29679e-05
6.1195e-05
6.51676e-05
4.87349e-05
7.17099e-05
7.17094e-05
6.11761e-05
4.87397e-05
6.5252e-05
5.2976e-05
6.12046e-05
4.87404e-05
6.51739e-05
7.03649e-05
7.03837e-05
5.47577e-05
7.02446e-05
7.02547e-05
6.86632e-05
7.39399e-05
6.86923e-05
7.39871e-05
7.1717e-05
7.17484e-05
6.8648e-05
7.39447e-05
6.86792e-05
7.39926e-05
4.20563e-05
4.20499e-05
4.205e-05
4.20684e-05
4.20617e-05
4.20547e-05
4.20626e-05
6.093e-05
6.49786e-05
4.86908e-05
5.28536e-05
6.09929e-05
6.49539e-05
4.86601e-05
7.17115e-05
7.17462e-05
6.09046e-05
4.86825e-05
6.4952e-05
5.28369e-05
6.09725e-05
4.86497e-05
6.49242e-05
7.00478e-05
7.00453e-05
5.4603e-05
7.00709e-05
7.00712e-05
6.90172e-05
7.40396e-05
6.8844e-05
7.40359e-05
7.17835e-05
7.17911e-05
6.90392e-05
7.40472e-05
6.88505e-05
7.40441e-05
4.20882e-05
4.20885e-05
4.21046e-05
4.22504e-05
4.22381e-05
4.22537e-05
4.22535e-05
6.12126e-05
6.51911e-05
4.86566e-05
5.29364e-05
6.10304e-05
6.53348e-05
4.86959e-05
7.17859e-05
7.17936e-05
6.12292e-05
4.86508e-05
6.52005e-05
5.29527e-05
6.10295e-05
4.87006e-05
6.53695e-05
7.04517e-05
7.04724e-05
5.48318e-05
7.05793e-05
7.06047e-05
6.8739e-05
7.3936e-05
6.90151e-05
7.39044e-05
7.17501e-05
7.1749e-05
6.87361e-05
7.3941e-05
6.90321e-05
7.39083e-05
4.22583e-05
4.22706e-05
4.22663e-05
4.21774e-05
4.22084e-05
4.22006e-05
4.219e-05
6.10586e-05
6.52917e-05
4.8807e-05
5.29812e-05
6.1292e-05
6.49848e-05
4.88001e-05
7.17449e-05
7.17423e-05
6.10561e-05
4.88217e-05
6.53168e-05
5.29942e-05
6.1315e-05
4.88132e-05
6.49764e-05
7.03521e-05
7.03693e-05
5.46719e-05
7.00141e-05
7.00162e-05
6.83285e-05
7.39431e-05
6.83612e-05
7.40378e-05
7.17808e-05
7.18455e-05
6.8315e-05
7.39477e-05
6.83427e-05
7.40444e-05
4.21591e-05
4.21464e-05
4.21399e-05
4.20736e-05
4.2092e-05
4.20806e-05
4.20814e-05
6.05245e-05
6.46764e-05
4.85485e-05
5.25881e-05
6.06132e-05
6.46601e-05
4.84684e-05
7.17767e-05
7.18472e-05
6.04953e-05
4.85337e-05
6.46368e-05
5.25618e-05
6.05832e-05
4.84511e-05
6.46288e-05
6.97851e-05
6.97796e-05
5.42648e-05
6.98945e-05
6.9899e-05
6.89562e-05
7.41394e-05
6.87106e-05
7.41464e-05
7.18866e-05
7.1903e-05
6.89717e-05
7.41464e-05
6.87196e-05
7.41532e-05
4.21004e-05
4.20921e-05
4.20947e-05
4.24015e-05
4.23675e-05
4.23852e-05
4.23928e-05
6.10872e-05
6.51003e-05
4.84517e-05
5.27788e-05
6.08201e-05
6.5266e-05
4.85295e-05
7.18892e-05
7.19038e-05
6.11049e-05
4.84421e-05
6.5118e-05
5.27945e-05
6.08252e-05
4.85348e-05
6.52901e-05
7.04296e-05
7.04513e-05
5.475e-05
7.05498e-05
7.0572e-05
6.88849e-05
7.40496e-05
6.90741e-05
7.40174e-05
7.18371e-05
7.18363e-05
6.88841e-05
7.40548e-05
6.90851e-05
7.40222e-05
4.2456e-05
4.24725e-05
4.24777e-05
4.25032e-05
4.24944e-05
4.25043e-05
4.25057e-05
6.11427e-05
6.53336e-05
4.88493e-05
5.30325e-05
6.12809e-05
6.50941e-05
4.88631e-05
7.18336e-05
7.18332e-05
6.11358e-05
4.88646e-05
6.53483e-05
5.30492e-05
6.12949e-05
4.88766e-05
6.50859e-05
7.05048e-05
7.05172e-05
5.48551e-05
7.01941e-05
7.01996e-05
6.84189e-05
7.39803e-05
6.84837e-05
7.40251e-05
7.1809e-05
7.18693e-05
6.84208e-05
7.39851e-05
6.84833e-05
7.40297e-05
4.24588e-05
4.2463e-05
4.24612e-05
4.21645e-05
4.21875e-05
4.21824e-05
4.21756e-05
6.05365e-05
6.48631e-05
4.8711e-05
5.25889e-05
6.07144e-05
6.47251e-05
4.85289e-05
7.18084e-05
7.18694e-05
6.05298e-05
4.87069e-05
6.4856e-05
5.25804e-05
6.0704e-05
4.85226e-05
6.472e-05
7.00268e-05
7.00354e-05
5.42828e-05
6.99519e-05
6.99625e-05
6.8504e-05
7.40194e-05
6.84554e-05
7.4088e-05
7.18464e-05
7.19139e-05
6.85042e-05
7.40237e-05
6.84574e-05
7.40925e-05
4.21657e-05
4.21604e-05
4.21548e-05
4.17725e-05
4.1769e-05
4.17627e-05
4.17677e-05
6.05426e-05
6.48681e-05
4.83289e-05
5.24402e-05
6.05555e-05
6.47066e-05
4.82626e-05
7.1847e-05
7.19147e-05
6.05401e-05
4.8324e-05
6.48638e-05
5.24334e-05
6.05527e-05
4.82581e-05
6.47017e-05
7.00548e-05
7.00666e-05
5.42537e-05
6.99691e-05
6.99803e-05
6.46329e-05
7.37916e-05
6.83025e-05
7.46386e-05
7.17589e-05
6.6222e-05
6.46333e-05
7.37949e-05
6.83016e-05
7.46439e-05
2.9835e-05
3.62068e-05
3.62029e-05
4.32034e-05
3.01467e-05
3.70849e-05
3.70817e-05
6.03609e-05
6.46017e-05
4.81367e-05
5.02076e-05
6.03925e-05
6.63135e-05
4.63478e-05
7.17596e-05
6.62216e-05
6.03578e-05
4.81338e-05
6.4597e-05
5.02074e-05
6.03891e-05
4.63469e-05
6.63106e-05
6.94719e-05
6.94822e-05
5.36769e-05
7.06043e-05
7.06135e-05
7.12427e-05
7.12162e-05
7.12452e-05
7.12188e-05
5.37477e-05
6.99813e-05
6.99914e-05
6.99699e-05
6.99806e-05
6.86311e-05
7.34905e-05
7.34661e-05
6.86376e-05
6.86333e-05
7.3493e-05
7.34705e-05
6.86396e-05
6.07499e-05
5.16652e-05
6.48736e-05
4.70552e-05
6.48626e-05
4.69965e-05
6.07691e-05
6.07515e-05
5.16656e-05
6.48786e-05
4.70553e-05
6.48719e-05
4.69973e-05
6.07705e-05
7.12436e-05
7.12189e-05
5.37438e-05
6.9991e-05
6.99796e-05
6.99874e-05
6.99762e-05
7.124e-05
7.12154e-05
6.8637e-05
7.34959e-05
7.34719e-05
6.86423e-05
6.07552e-05
5.16659e-05
6.48781e-05
4.70583e-05
6.48678e-05
4.69997e-05
6.07729e-05
6.86349e-05
7.34875e-05
7.34651e-05
6.86402e-05
6.07535e-05
5.16685e-05
4.70582e-05
6.48725e-05
4.70007e-05
6.48675e-05
6.0771e-05
6.07475e-05
5.16639e-05
6.4877e-05
4.70516e-05
6.48689e-05
4.69922e-05
6.07732e-05
6.86338e-05
7.34925e-05
7.347e-05
6.86433e-05
6.07454e-05
5.16605e-05
4.70523e-05
6.48839e-05
4.69906e-05
6.48649e-05
6.07722e-05
6.86316e-05
7.34923e-05
7.34686e-05
6.86419e-05
7.12415e-05
7.12166e-05
5.37494e-05
6.9983e-05
6.9985e-05
6.99808e-05
6.99801e-05
7.12424e-05
7.12177e-05
6.07491e-05
5.16686e-05
4.70551e-05
6.48787e-05
4.69963e-05
6.48714e-05
6.07732e-05
6.07492e-05
5.16612e-05
4.70552e-05
6.48896e-05
4.69936e-05
6.4871e-05
6.07749e-05
6.86338e-05
7.349e-05
7.34678e-05
6.86416e-05
6.86356e-05
7.34962e-05
7.34728e-05
6.86444e-05
5.37413e-05
6.9994e-05
7.00058e-05
6.99765e-05
6.99885e-05
7.1244e-05
7.12184e-05
7.12469e-05
7.12213e-05
7.12457e-05
7.1272e-05
7.12481e-05
7.12744e-05
6.99858e-05
6.99957e-05
5.38455e-05
7.00125e-05
7.00216e-05
7.13e-05
7.12746e-05
7.13026e-05
7.1277e-05
5.38938e-05
7.00481e-05
7.0057e-05
7.00178e-05
7.00268e-05
6.86494e-05
7.34975e-05
6.86389e-05
7.35247e-05
6.07955e-05
6.48769e-05
4.71126e-05
5.17997e-05
6.07723e-05
6.49037e-05
4.717e-05
6.07954e-05
6.48797e-05
4.71114e-05
5.17872e-05
6.07735e-05
6.48941e-05
4.71671e-05
6.8651e-05
7.35566e-05
7.35283e-05
6.86771e-05
6.86518e-05
7.35611e-05
7.35302e-05
6.86777e-05
6.08012e-05
5.18526e-05
6.49434e-05
4.7293e-05
6.49093e-05
4.72305e-05
6.08388e-05
6.08008e-05
5.18344e-05
6.49292e-05
4.72866e-05
6.48977e-05
4.72256e-05
6.08378e-05
6.99924e-05
6.99807e-05
5.38295e-05
7.00033e-05
6.99886e-05
7.12423e-05
7.12673e-05
7.1301e-05
7.12738e-05
5.38729e-05
7.00379e-05
7.00227e-05
7.00066e-05
6.99919e-05
7.12977e-05
7.12699e-05
6.07974e-05
6.48814e-05
4.71153e-05
5.18e-05
6.07756e-05
6.49073e-05
4.71727e-05
6.86482e-05
7.34921e-05
6.86389e-05
7.35194e-05
6.07939e-05
4.71139e-05
6.48736e-05
5.17873e-05
6.07735e-05
4.71691e-05
6.48872e-05
6.86535e-05
7.35622e-05
7.35339e-05
6.86799e-05
6.08028e-05
5.1853e-05
6.49469e-05
4.7295e-05
6.49129e-05
4.72328e-05
6.084e-05
6.86504e-05
7.3556e-05
7.35249e-05
6.86761e-05
6.07991e-05
5.18329e-05
4.72866e-05
6.49201e-05
4.72269e-05
6.48907e-05
6.08353e-05
6.8653e-05
7.3497e-05
6.86432e-05
7.35238e-05
6.08011e-05
4.71139e-05
6.48871e-05
5.18058e-05
6.07764e-05
4.71743e-05
6.49051e-05
6.86526e-05
7.34967e-05
6.86422e-05
7.35221e-05
6.08054e-05
5.18373e-05
6.49234e-05
4.72887e-05
6.48951e-05
4.72286e-05
6.0837e-05
6.86544e-05
7.356e-05
7.35292e-05
6.86746e-05
6.08059e-05
5.18543e-05
4.72947e-05
6.49269e-05
4.7235e-05
6.49075e-05
6.08368e-05
6.86541e-05
7.35552e-05
7.35269e-05
6.86737e-05
6.99843e-05
6.99863e-05
5.38287e-05
6.99937e-05
6.99935e-05
7.12449e-05
7.12691e-05
7.12996e-05
7.12717e-05
5.38711e-05
7.0028e-05
7.00186e-05
6.99971e-05
6.99952e-05
7.12987e-05
7.12717e-05
6.08016e-05
4.71166e-05
6.48927e-05
5.18064e-05
6.07787e-05
4.71767e-05
6.49101e-05
6.86494e-05
7.34945e-05
6.86412e-05
7.35213e-05
6.8653e-05
7.35007e-05
6.86443e-05
7.3526e-05
6.0803e-05
5.18377e-05
4.72895e-05
6.49204e-05
4.72306e-05
6.48953e-05
6.08335e-05
6.08062e-05
5.18547e-05
4.72962e-05
6.49307e-05
4.72371e-05
6.49123e-05
6.0836e-05
6.86508e-05
7.35573e-05
7.35267e-05
6.867e-05
6.86543e-05
7.35591e-05
7.35308e-05
6.86729e-05
7.12465e-05
7.127e-05
7.12493e-05
7.12728e-05
5.38938e-05
7.0025e-05
7.0035e-05
7.00086e-05
7.00198e-05
7.12978e-05
7.12723e-05
7.13005e-05
7.12751e-05
7.13028e-05
7.13271e-05
7.13053e-05
7.13297e-05
7.00579e-05
7.00669e-05
5.4037e-05
7.01047e-05
7.01146e-05
7.13484e-05
7.1329e-05
7.1351e-05
7.13315e-05
5.40846e-05
7.01448e-05
7.01552e-05
7.01156e-05
7.01256e-05
6.87274e-05
7.35669e-05
6.86835e-05
7.35967e-05
6.09009e-05
6.49507e-05
4.73586e-05
5.20185e-05
6.08478e-05
6.49969e-05
4.74248e-05
6.09014e-05
6.49384e-05
4.7352e-05
5.20056e-05
6.08469e-05
6.49985e-05
4.74198e-05
6.87346e-05
7.36098e-05
7.35931e-05
6.8777e-05
6.87361e-05
7.36173e-05
7.36007e-05
6.87791e-05
6.09124e-05
5.20726e-05
6.50479e-05
4.75584e-05
6.50062e-05
4.74922e-05
6.0969e-05
6.09133e-05
5.20714e-05
6.50636e-05
4.75606e-05
6.50109e-05
4.74902e-05
6.09715e-05
7.00516e-05
7.00389e-05
5.4026e-05
7.01126e-05
7.0098e-05
7.13009e-05
7.1328e-05
7.13534e-05
7.13328e-05
5.40837e-05
7.01687e-05
7.016e-05
7.01269e-05
7.01163e-05
7.13508e-05
7.133e-05
6.09018e-05
6.49545e-05
4.73598e-05
5.20179e-05
6.08488e-05
6.50007e-05
4.74254e-05
6.8726e-05
7.35621e-05
6.86818e-05
7.3593e-05
6.08988e-05
4.73509e-05
6.49292e-05
5.19994e-05
6.08442e-05
4.74176e-05
6.49909e-05
6.8737e-05
7.36144e-05
7.3598e-05
6.87799e-05
6.09132e-05
5.20718e-05
6.50516e-05
4.75582e-05
6.50101e-05
4.7492e-05
6.09705e-05
6.87347e-05
7.36142e-05
7.35972e-05
6.8779e-05
6.09108e-05
5.20666e-05
4.75585e-05
6.50611e-05
4.74877e-05
6.50047e-05
6.09705e-05
6.87223e-05
7.35659e-05
6.86796e-05
7.35962e-05
6.08934e-05
4.73566e-05
6.49332e-05
5.2005e-05
6.08442e-05
4.74197e-05
6.49847e-05
6.87202e-05
7.35608e-05
6.86784e-05
7.35911e-05
6.09079e-05
5.20706e-05
6.50629e-05
4.75572e-05
6.50065e-05
4.74868e-05
6.09714e-05
6.87318e-05
7.36171e-05
7.36004e-05
6.87807e-05
6.09055e-05
5.20634e-05
4.75543e-05
6.50559e-05
4.74861e-05
6.49975e-05
6.09689e-05
6.87296e-05
7.3614e-05
7.35957e-05
6.87785e-05
7.0044e-05
7.00317e-05
5.40202e-05
7.01037e-05
7.00971e-05
7.13022e-05
7.133e-05
7.13529e-05
7.1332e-05
5.40789e-05
7.01665e-05
7.01647e-05
7.01222e-05
7.01145e-05
7.13536e-05
7.13324e-05
6.08925e-05
4.73573e-05
6.4937e-05
5.20042e-05
6.08433e-05
4.74196e-05
6.49892e-05
6.87178e-05
7.35632e-05
6.8675e-05
7.35939e-05
6.872e-05
7.35649e-05
6.86778e-05
7.35963e-05
6.0904e-05
5.20662e-05
4.75549e-05
6.50639e-05
4.74841e-05
6.5002e-05
6.09694e-05
6.09049e-05
5.20625e-05
4.75536e-05
6.50618e-05
4.74854e-05
6.50022e-05
6.09699e-05
6.87278e-05
7.3616e-05
7.35983e-05
6.87781e-05
6.873e-05
7.36191e-05
7.36008e-05
6.87803e-05
7.13011e-05
7.13281e-05
7.13038e-05
7.13311e-05
5.4075e-05
7.01556e-05
7.01674e-05
7.01118e-05
7.01224e-05
7.1351e-05
7.13304e-05
7.13541e-05
7.13334e-05
7.13495e-05
7.13664e-05
7.13521e-05
7.1369e-05
7.01488e-05
7.01592e-05
5.41913e-05
7.01528e-05
7.01632e-05
7.13825e-05
7.13671e-05
7.13851e-05
7.13696e-05
5.42254e-05
7.01217e-05
7.0132e-05
7.01502e-05
7.01605e-05
6.87948e-05
7.36187e-05
6.87827e-05
7.36276e-05
6.10104e-05
6.50517e-05
4.76252e-05
5.22243e-05
6.09778e-05
6.50612e-05
4.76892e-05
6.10137e-05
6.50688e-05
4.76322e-05
5.22531e-05
6.09804e-05
6.50831e-05
4.77002e-05
6.87902e-05
7.36334e-05
7.36226e-05
6.87884e-05
6.87931e-05
7.36379e-05
7.36288e-05
6.87918e-05
6.10108e-05
5.22655e-05
6.50524e-05
4.78002e-05
6.50598e-05
4.77493e-05
6.10185e-05
6.10141e-05
5.22961e-05
6.50708e-05
4.78114e-05
6.5082e-05
4.77619e-05
6.10217e-05
7.01762e-05
7.01696e-05
5.42223e-05
7.01861e-05
7.01788e-05
7.13516e-05
7.13668e-05
7.13832e-05
7.13707e-05
5.42577e-05
7.01441e-05
7.0131e-05
7.01842e-05
7.01766e-05
7.1379e-05
7.13666e-05
6.10131e-05
6.50556e-05
4.76255e-05
5.22241e-05
6.09794e-05
6.50652e-05
4.76907e-05
6.87951e-05
7.36157e-05
6.87826e-05
7.36238e-05
6.10137e-05
4.76316e-05
6.50673e-05
5.22547e-05
6.09797e-05
4.77015e-05
6.50833e-05
6.8794e-05
7.36401e-05
7.36281e-05
6.87928e-05
6.10135e-05
5.22659e-05
6.50569e-05
4.78035e-05
6.5064e-05
4.77517e-05
6.10215e-05
6.87934e-05
7.36316e-05
7.36246e-05
6.87921e-05
6.1014e-05
5.22993e-05
4.78154e-05
6.50677e-05
4.7765e-05
6.50824e-05
6.10215e-05
6.8799e-05
7.36185e-05
6.87852e-05
7.36271e-05
6.10175e-05
4.76266e-05
6.50622e-05
5.22445e-05
6.09791e-05
4.7698e-05
6.50791e-05
6.87968e-05
7.36155e-05
6.87831e-05
7.36243e-05
6.10201e-05
5.22995e-05
6.50702e-05
4.78192e-05
6.50839e-05
4.77676e-05
6.10275e-05
6.87974e-05
7.36364e-05
7.36281e-05
6.8796e-05
6.10182e-05
5.22925e-05
4.78172e-05
6.50685e-05
4.77641e-05
6.50781e-05
6.10257e-05
6.87952e-05
7.36341e-05
7.36254e-05
6.87937e-05
7.0176e-05
7.01745e-05
5.42255e-05
7.01848e-05
7.01872e-05
7.13547e-05
7.13699e-05
7.13806e-05
7.13682e-05
5.4262e-05
7.01351e-05
7.01398e-05
7.01822e-05
7.01853e-05
7.13813e-05
7.13698e-05
6.10194e-05
4.76267e-05
6.50682e-05
5.22446e-05
6.09806e-05
4.76991e-05
6.50855e-05
6.87964e-05
7.36174e-05
6.87831e-05
7.3626e-05
6.8798e-05
7.36206e-05
6.87852e-05
7.36288e-05
6.10196e-05
5.23038e-05
4.78239e-05
6.50754e-05
4.77709e-05
6.50881e-05
6.10264e-05
6.102e-05
5.22931e-05
4.78203e-05
6.50745e-05
4.77665e-05
6.50845e-05
6.10268e-05
6.87948e-05
7.36345e-05
7.36269e-05
6.8793e-05
6.87964e-05
7.36372e-05
7.36296e-05
6.87941e-05
7.13521e-05
7.13681e-05
7.13552e-05
7.13712e-05
5.42509e-05
7.01353e-05
7.01481e-05
7.01724e-05
7.01848e-05
7.13815e-05
7.13684e-05
7.13843e-05
7.13714e-05
7.13834e-05
7.14039e-05
7.1386e-05
7.14064e-05
7.01056e-05
7.01158e-05
5.42535e-05
7.00665e-05
7.00767e-05
7.14382e-05
7.14068e-05
7.14407e-05
7.14093e-05
5.42686e-05
7.00637e-05
7.00737e-05
7.00576e-05
7.00678e-05
6.87717e-05
7.36397e-05
6.87873e-05
7.36557e-05
6.10075e-05
6.50417e-05
4.78426e-05
5.23333e-05
6.10147e-05
6.50139e-05
4.78734e-05
6.10098e-05
6.5055e-05
4.785e-05
5.23343e-05
6.10178e-05
6.50145e-05
4.78765e-05
6.87557e-05
7.3688e-05
7.36583e-05
6.8737e-05
6.87584e-05
7.36894e-05
7.36598e-05
6.87382e-05
6.09993e-05
5.23394e-05
6.49902e-05
4.79086e-05
6.5e-05
4.7895e-05
6.09834e-05
6.10011e-05
5.23331e-05
6.49782e-05
4.79042e-05
6.49944e-05
4.78942e-05
6.09832e-05
7.01219e-05
7.01099e-05
5.4254e-05
7.00663e-05
7.00499e-05
7.1379e-05
7.13978e-05
7.14377e-05
7.14051e-05
5.42622e-05
7.0052e-05
7.00343e-05
7.00529e-05
7.00367e-05
7.14339e-05
7.14006e-05
6.10105e-05
6.50465e-05
4.78457e-05
5.23339e-05
6.10176e-05
6.50187e-05
4.78763e-05
6.87713e-05
7.36332e-05
6.87873e-05
7.36489e-05
6.1009e-05
4.78538e-05
6.50502e-05
5.23378e-05
6.10175e-05
4.78791e-05
6.50048e-05
6.87601e-05
7.36935e-05
7.36647e-05
6.87404e-05
6.1002e-05
5.234e-05
6.4995e-05
4.79104e-05
6.50049e-05
4.78972e-05
6.09853e-05
6.87576e-05
7.36837e-05
7.36531e-05
6.87363e-05
6.09997e-05
5.23353e-05
4.79038e-05
6.49684e-05
4.78954e-05
6.49851e-05
6.09808e-05
6.87746e-05
7.36382e-05
6.87913e-05
7.36542e-05
6.10129e-05
4.78575e-05
6.50537e-05
5.23419e-05
6.10218e-05
4.78842e-05
6.50143e-05
6.87727e-05
7.36358e-05
6.87891e-05
7.36519e-05
6.10044e-05
5.23371e-05
6.49712e-05
4.79066e-05
6.49886e-05
4.78991e-05
6.09814e-05
6.87604e-05
7.36882e-05
7.36584e-05
6.87361e-05
6.10032e-05
5.23413e-05
4.79099e-05
6.49748e-05
4.79017e-05
6.49941e-05
6.09805e-05
6.87588e-05
7.36847e-05
7.36559e-05
6.87348e-05
7.01142e-05
7.01156e-05
5.42574e-05
7.00558e-05
7.0055e-05
7.13814e-05
7.13999e-05
7.14364e-05
7.1403e-05
5.4265e-05
7.00423e-05
7.00357e-05
7.00434e-05
7.00401e-05
7.14354e-05
7.14028e-05
6.1013e-05
4.78606e-05
6.50593e-05
5.23428e-05
6.1023e-05
4.78867e-05
6.50191e-05
6.87699e-05
7.3636e-05
6.87882e-05
7.36515e-05
6.87707e-05
7.36389e-05
6.87892e-05
7.36549e-05
6.1002e-05
5.23418e-05
4.79074e-05
6.49707e-05
4.79011e-05
6.49904e-05
6.09773e-05
6.10028e-05
5.2342e-05
4.79108e-05
6.49789e-05
4.79032e-05
6.49986e-05
6.09788e-05
6.87553e-05
7.36849e-05
7.36556e-05
6.87298e-05
6.87563e-05
7.36887e-05
7.3659e-05
6.87312e-05
7.13819e-05
7.14005e-05
7.13847e-05
7.14033e-05
5.42723e-05
7.00405e-05
7.00515e-05
7.00455e-05
7.00569e-05
7.14352e-05
7.14033e-05
7.1438e-05
7.14061e-05
7.14431e-05
7.1476e-05
7.14455e-05
7.14784e-05
7.00834e-05
7.0093e-05
5.43162e-05
7.01708e-05
7.01798e-05
7.14999e-05
7.14789e-05
7.15025e-05
7.14813e-05
5.43681e-05
7.0259e-05
7.02676e-05
7.01954e-05
7.02041e-05
6.8758e-05
7.36965e-05
6.87333e-05
7.37368e-05
6.09911e-05
6.49932e-05
4.79246e-05
5.23921e-05
6.09777e-05
6.50577e-05
4.79494e-05
6.09896e-05
6.49801e-05
4.79172e-05
5.23597e-05
6.09771e-05
6.50485e-05
4.79409e-05
6.87731e-05
7.37612e-05
7.37392e-05
6.885e-05
6.87726e-05
7.37673e-05
7.37431e-05
6.8851e-05
6.10038e-05
5.2445e-05
6.51562e-05
4.80487e-05
6.5078e-05
4.79909e-05
6.10898e-05
6.10024e-05
5.24215e-05
6.51577e-05
4.80436e-05
6.50714e-05
4.79835e-05
6.10899e-05
7.00705e-05
7.0055e-05
5.42836e-05
7.01687e-05
7.01532e-05
7.14393e-05
7.14755e-05
7.15037e-05
7.14817e-05
5.43421e-05
7.02672e-05
7.02547e-05
7.01959e-05
7.01838e-05
7.15006e-05
7.14786e-05
6.09917e-05
6.4998e-05
4.79254e-05
5.23918e-05
6.09792e-05
6.5061e-05
4.79497e-05
6.87561e-05
7.36912e-05
6.87311e-05
7.37333e-05
6.09867e-05
4.79153e-05
6.49704e-05
5.23503e-05
6.09745e-05
4.7938e-05
6.50421e-05
6.87744e-05
7.37661e-05
7.37435e-05
6.88517e-05
6.10039e-05
5.24443e-05
6.51586e-05
4.80485e-05
6.50811e-05
4.79908e-05
6.10897e-05
6.87706e-05
7.37638e-05
7.37396e-05
6.88496e-05
6.09992e-05
5.24075e-05
4.80407e-05
6.515e-05
4.79803e-05
6.50656e-05
6.10873e-05
6.87503e-05
7.36954e-05
6.87292e-05
7.37363e-05
6.09806e-05
4.79189e-05
6.49753e-05
5.2362e-05
6.09725e-05
4.79372e-05
6.50371e-05
6.87489e-05
7.36918e-05
6.8728e-05
7.37326e-05
6.09937e-05
5.24169e-05
6.51541e-05