/*--------------------------------*- C++ -*----------------------------------*\
| =========                 |                                                 |
| \\      /  F ield         | OpenFOAM: The Open Source CFD Toolbox           |
|  \\    /   O peration     | Version:  v1906                                 |
|   \\  /    A nd           | Web:      www.OpenFOAM.com                      |
|    \\/     M anipulation  |                                                 |
\*---------------------------------------------------------------------------*/
FoamFile
{
    version     2.0;
    format      ascii;
    class       volScalarField;
    location    "1000";
    object      nut;
}
// * * * * * * * * * * * * * * * * * * * * * * * * * * * * * * * * * * * * * //

dimensions      [0 2 -1 0 0 0 0];


internalField   nonuniform List<scalar> 
42616
(
0.000233973
0.000233116
0.000233116
0.000233423
0.000232532
0.000227802
0.000227801
0.000223866
0.000230516
0.00022032
0.000220318
0.000209109
0.000227799
0.000211665
0.000211661
0.000193785
0.000224433
0.00020265
0.000202644
0.000179709
0.000220552
0.000193772
0.000193765
0.000167339
0.000216304
0.000185275
0.000185267
0.000156587
0.00021182
0.000177234
0.000177226
0.000147206
0.000207207
0.000169688
0.00016968
0.00013895
0.000202545
0.000162611
0.000162603
0.000131614
0.000197889
0.000155949
0.000155941
0.000124953
0.000193275
0.000149646
0.000149638
0.000118816
0.000188683
0.000143665
0.000143656
0.000113167
0.000184151
0.000137951
0.000137943
0.000107931
0.000179705
0.000132462
0.000132453
0.000103056
0.000175337
0.000127189
0.000127179
9.84348e-05
0.000171035
0.000122149
0.00012214
9.42533e-05
0.000166785
0.000117372
0.000117361
9.06616e-05
0.000162586
0.000112888
0.000112876
8.77287e-05
0.000158413
0.000108755
0.000108746
8.53843e-05
0.000154262
0.000105029
0.000105018
8.36734e-05
0.000234266
0.000234448
0.000234449
0.000234267
0.000234448
0.000234449
0.000234274
0.000234274
0.000234274
0.000234274
0.000234448
0.000234448
0.000234266
0.000234448
0.000234448
0.000234266
0.000233423
0.000226204
0.000233116
0.000233114
0.000229361
0.000229357
0.000233423
0.000226205
0.000233114
0.000233114
0.000229359
0.000229356
0.000233116
0.000229364
0.000229361
0.000233423
0.000226202
0.000233114
0.000229363
0.000229359
0.000226202
0.000223867
0.00021223
0.000227799
0.000227794
0.000222332
0.000222326
0.000223868
0.000212234
0.000227797
0.000227792
0.000222332
0.000222323
0.000227798
0.000222339
0.000222331
0.000223866
0.000212227
0.000227797
0.000222336
0.000222331
0.000212228
0.000209111
0.000197061
0.000220313
0.000220307
0.000213879
0.000213874
0.000209112
0.000197066
0.000220314
0.000220304
0.000213883
0.000213869
0.000220311
0.00021389
0.000213877
0.000209108
0.000197057
0.000220313
0.000213886
0.000213882
0.000197058
0.000193788
0.000182876
0.000211654
0.000211648
0.00020489
0.000204884
0.000193792
0.000182882
0.000211658
0.000211643
0.000204898
0.000204879
0.000211651
0.000204905
0.000204887
0.000193784
0.000182872
0.000211657
0.000204899
0.000204896
0.000182872
0.000179713
0.000170268
0.000202634
0.000202628
0.000195943
0.000195937
0.000179717
0.000170274
0.000202643
0.000202622
0.000195954
0.000195931
0.000202631
0.000195962
0.00019594
0.000179708
0.000170263
0.000202641
0.000195955
0.000195953
0.000170264
0.000167344
0.000159242
0.000193753
0.000193747
0.000187336
0.000187331
0.000167349
0.000159249
0.000193765
0.00019374
0.000187351
0.000187324
0.00019375
0.000187359
0.000187333
0.000167339
0.000159238
0.000193764
0.000187351
0.00018735
0.000159238
0.000156592
0.000149614
0.000185253
0.000185247
0.000179173
0.000179168
0.000156597
0.00014962
0.000185268
0.00018524
0.000179191
0.00017916
0.000185249
0.000179198
0.00017917
0.000156587
0.000149608
0.000185267
0.000179189
0.00017919
0.000149608
0.000147212
0.000141107
0.000177208
0.000177203
0.000171501
0.000171496
0.000147217
0.000141113
0.000177227
0.000177195
0.000171522
0.000171488
0.000177205
0.000171529
0.000171498
0.000147206
0.000141101
0.000177225
0.00017152
0.000171521
0.000141101
0.000138956
0.000133547
0.00016966
0.000169655
0.000164309
0.000164304
0.000138961
0.000133554
0.000169681
0.000169647
0.000164332
0.000164296
0.000169657
0.000164339
0.000164307
0.00013895
0.000133541
0.00016968
0.000164331
0.000164332
0.000133541
0.000131621
0.000126686
0.00016258
0.000162576
0.000157546
0.000157541
0.000131627
0.000126693
0.000162604
0.000162567
0.000157572
0.000157534
0.000162579
0.000157579
0.000157545
0.000131615
0.00012668
0.000162604
0.00015757
0.000157572
0.000126679
0.00012496
0.000120361
0.000155917
0.000155911
0.000151157
0.000151152
0.000124966
0.000120369
0.000155942
0.000155903
0.000151184
0.000151144
0.000155915
0.000151192
0.000151156
0.000124954
0.000120355
0.000155941
0.000151183
0.000151184
0.000120355
0.000118822
0.000114425
0.000149612
0.000149606
0.000145096
0.000145091
0.000118827
0.000114433
0.000149639
0.000149598
0.000145124
0.000145083
0.000149611
0.000145132
0.000145096
0.000118816
0.000114419
0.000149639
0.000145123
0.000145124
0.000114417
0.000113175
0.000108833
0.00014363
0.000143624
0.000139318
0.000139313
0.000113179
0.00010884
0.000143657
0.000143615
0.000139347
0.000139305
0.000143628
0.000139355
0.000139318
0.000113167
0.000108827
0.000143657
0.000139347
0.000139347
0.000108827
0.000107937
0.000103702
0.000137916
0.000137908
0.000133776
0.000133769
0.000107943
0.000103708
0.000137944
0.000137901
0.000133806
0.000133762
0.000137914
0.000133814
0.000133777
0.000107932
0.000103695
0.000137944
0.000133805
0.000133806
0.000103694
0.000103063
9.91273e-05
0.000132424
0.000132418
0.000128446
0.000128439
0.000103068
9.91331e-05
0.000132452
0.00013241
0.000128475
0.000128431
0.000132424
0.000128486
0.000128448
0.000103056
9.91209e-05
0.000132454
0.000128476
0.000128477
9.91197e-05
9.84419e-05
9.499e-05
0.00012715
0.000127143
0.000123344
0.000123338
9.84475e-05
9.49955e-05
0.000127177
0.000127134
0.000123372
0.00012333
0.00012715
0.000123386
0.000123348
9.84361e-05
9.49841e-05
0.000127179
0.000123375
0.000123376
9.49835e-05
9.42584e-05
9.14389e-05
0.00012211
0.000122102
0.000118477
0.000118471
9.42635e-05
9.14438e-05
0.000122135
0.000122094
0.000118504
0.000118461
0.000122112
0.000118517
0.00011848
9.4253e-05
9.14327e-05
0.00012214
0.000118506
0.000118507
9.14318e-05
9.06684e-05
8.83752e-05
0.000117335
0.000117324
0.000113918
0.000113918
9.06737e-05
8.83823e-05
0.000117355
0.000117315
0.000113947
0.000113907
0.000117336
0.000113963
0.000113925
9.06634e-05
8.83716e-05
0.000117363
0.000113952
0.00011395
8.83693e-05
8.77338e-05
8.5911e-05
0.000112849
0.00011284
0.000109687
0.000109685
8.77418e-05
8.59121e-05
0.000112866
0.000112829
0.000109719
0.000109674
0.000112852
0.00010973
0.000109696
8.77312e-05
8.59027e-05
0.000112877
0.00010972
0.00010972
8.59051e-05
8.53913e-05
8.40712e-05
0.00010872
0.000108709
0.000105845
0.000105842
8.53922e-05
8.40792e-05
0.000108734
0.000108699
0.000105876
0.000105834
0.00010872
0.000105888
0.000105855
8.53833e-05
8.40684e-05
0.000108744
0.000105878
0.000105878
8.40699e-05
8.36738e-05
0.000104998
0.000104981
8.36813e-05
0.000105005
0.000104973
0.000104996
8.36714e-05
0.000105021
0.00023473
0.000234746
0.000234729
0.000234729
0.000235117
0.000234798
0.000234701
0.000234727
0.000235118
0.000234798
0.000234727
0.000234701
0.000234867
0.000233566
0.000233566
0.000104651
3.87411e-05
0.000129118
3.98249e-05
2.16834e-05
2.28313e-05
0.000104643
3.87371e-05
0.000129114
3.98214e-05
0.000233973
0.000233973
0.000233973
0.000232935
0.000232935
0.000232935
0.000232935
0.000206196
9.36753e-05
0.000233969
0.000231994
0.000222614
8.72225e-05
0.000233611
2.16823e-05
2.28307e-05
0.00020619
0.000233969
9.36748e-05
0.000231994
0.000222622
0.000233611
8.72282e-05
4.78013e-05
4.77894e-05
0.000231345
4.40184e-05
4.40089e-05
7.25678e-05
4.2434e-05
8.14027e-05
4.37634e-05
2.47749e-05
2.54634e-05
7.25582e-05
4.24305e-05
8.13973e-05
4.37596e-05
0.000232532
0.000232532
0.000232532
0.000231084
0.000231084
0.000231083
0.000231084
0.000167491
7.9439e-05
0.000232081
0.000226097
0.000180211
7.4508e-05
0.000231376
2.47731e-05
2.54619e-05
0.000167487
0.000232081
7.94329e-05
0.000226096
0.000180204
0.000231375
7.45108e-05
3.91645e-05
3.91542e-05
0.000219593
3.65759e-05
3.65651e-05
5.62774e-05
4.55467e-05
6.11325e-05
4.64125e-05
2.60134e-05
2.61173e-05
5.62814e-05
4.5544e-05
6.11277e-05
4.64095e-05
0.000230516
0.000230515
0.000230515
0.000228543
0.000228543
0.000228541
0.000228542
0.000138601
6.74261e-05
0.000228643
0.000218231
0.000148065
6.35184e-05
0.000227537
2.60111e-05
2.61152e-05
0.000138596
0.000228643
6.74202e-05
0.000218228
0.000148057
0.000227534
6.35147e-05
3.32183e-05
3.32097e-05
0.000204613
3.19922e-05
3.19831e-05
4.69657e-05
4.74994e-05
4.99089e-05
4.80044e-05
2.60471e-05
2.59392e-05
4.69648e-05
4.7496e-05
4.99095e-05
4.80014e-05
0.000227799
0.000227797
0.000227798
0.000225328
0.000225329
0.000225326
0.000225327
0.000117548
5.8205e-05
0.000223721
0.00020942
0.000124602
5.5486e-05
0.00022231
2.60446e-05
2.59372e-05
0.000117544
0.000223719
5.82034e-05
0.000209415
0.000124595
0.000222306
5.54827e-05
3.06179e-05
3.061e-05
0.000189779
3.03048e-05
3.0297e-05
4.14286e-05
4.85823e-05
4.32437e-05
4.88398e-05
2.56753e-05
2.55199e-05
4.14276e-05
4.85793e-05
4.32441e-05
4.88372e-05
0.000224433
0.000224431
0.000224432
0.000221562
0.000221563
0.000221559
0.000221561
0.000102112
5.18776e-05
0.000217771
0.000200404
0.00010738
5.00763e-05
0.000216181
2.56727e-05
2.5518e-05
0.000102111
0.000217769
5.18762e-05
0.000200398
0.000107374
0.000216177
5.00739e-05
3.01827e-05
3.01772e-05
0.000176368
3.03994e-05
3.03927e-05
3.8156e-05
4.90929e-05
3.92422e-05
4.91983e-05
2.52376e-05
2.5094e-05
3.8155e-05
4.90897e-05
3.92423e-05
4.91955e-05
0.000220552
0.000220549
0.00022055
0.000217392
0.000217393
0.000217389
0.000217391
9.04955e-05
4.7739e-05
0.000211269
0.000191607
9.44608e-05
4.66132e-05
0.000209603
2.5235e-05
2.50922e-05
9.0495e-05
0.000211267
4.77372e-05
0.0001916
9.44549e-05
0.000209598
4.66112e-05
3.09688e-05
3.09635e-05
0.000164561
3.15589e-05
3.15541e-05
3.63746e-05
4.92747e-05
3.69398e-05
4.92961e-05
2.48485e-05
2.47327e-05
3.63733e-05
4.92717e-05
3.69396e-05
4.92929e-05
0.000216305
0.0002163
0.000216302
0.000212957
0.000212958
0.000212952
0.000212955
8.1588e-05
4.51682e-05
0.000204579
0.000183219
8.46718e-05
4.45532e-05
0.000202907
2.48461e-05
2.47309e-05
8.15879e-05
0.000204576
4.51665e-05
0.000183211
8.4666e-05
0.000202902
4.45507e-05
3.25169e-05
3.2513e-05
0.000154267
3.33487e-05
3.3343e-05
3.56769e-05
4.92918e-05
3.58214e-05
4.92821e-05
2.45348e-05
2.44469e-05
3.56746e-05
4.92888e-05
3.58209e-05
4.9279e-05
0.000211821
0.000211816
0.000211818
0.000208367
0.000208368
0.000208362
0.000208365
7.46453e-05
4.3772e-05
0.000197938
0.000175301
7.71197e-05
4.35234e-05
0.000196304
2.45325e-05
2.4445e-05
7.46446e-05
0.000197935
4.37699e-05
0.000175292
7.71144e-05
0.000196298
4.35212e-05
3.45552e-05
3.45507e-05
0.00014522
3.55079e-05
3.5504e-05
3.57601e-05
4.92554e-05
3.56386e-05
4.92441e-05
2.42942e-05
2.42289e-05
3.57578e-05
4.92526e-05
3.56379e-05
4.92411e-05
0.000207208
0.000207202
0.000207204
0.000203711
0.000203712
0.000203705
0.000203708
6.91754e-05
4.32435e-05
0.000191483
0.000167877
7.12041e-05
4.32354e-05
0.000189901
2.42922e-05
2.42269e-05
6.91748e-05
0.00019148
4.3242e-05
0.000167869
7.11992e-05
0.000189895
4.3234e-05
3.68735e-05
3.687e-05
0.000137218
3.78976e-05
3.78943e-05
3.65543e-05
4.92262e-05
3.62066e-05
4.92224e-05
2.41154e-05
2.40679e-05
3.65586e-05
4.92235e-05
3.62067e-05
4.92195e-05
0.000202546
0.000202539
0.000202542
0.000199049
0.00019905
0.000199043
0.000199047
6.48676e-05
4.33833e-05
0.00018524
0.000160909
6.65085e-05
4.35664e-05
0.000183717
2.41134e-05
2.40659e-05
6.48655e-05
0.000185237
4.33826e-05
0.0001609
6.65057e-05
0.000183711
4.35654e-05
3.93502e-05
3.93472e-05
0.000130034
4.03987e-05
4.03968e-05
3.80517e-05
4.92217e-05
3.73879e-05
4.92272e-05
2.39858e-05
2.39522e-05
3.80489e-05
4.92188e-05
3.73884e-05
4.92239e-05
0.00019789
0.000197883
0.000197886
0.000194421
0.000194422
0.000194415
0.000194418
6.15077e-05
4.40646e-05
0.000179254
0.000154343
6.27541e-05
4.44059e-05
0.000177803
2.39839e-05
2.39502e-05
6.15056e-05
0.000179251
4.40647e-05
0.000154333
6.27522e-05
0.000177796
4.44045e-05
4.18731e-05
4.18706e-05
0.000123458
4.29229e-05
4.29231e-05
4.00895e-05
4.92397e-05
3.91431e-05
4.92525e-05
2.3894e-05
2.38706e-05
4.00724e-05
4.92365e-05
3.91303e-05
4.92497e-05
0.000193277
0.000193268
0.000193273
0.00018983
0.000189831
0.000189823
0.000189828
5.90055e-05
4.51937e-05
0.000173549
0.000148122
5.98519e-05
4.56671e-05
0.000172164
2.3892e-05
2.38686e-05
5.9005e-05
0.000173547
4.51938e-05
0.000148113
5.985e-05
0.000172157
4.56667e-05
4.43663e-05
4.43646e-05
0.000117344
4.53874e-05
4.53897e-05
4.2661e-05
4.9273e-05
4.1404e-05
4.92899e-05
2.38297e-05
2.38135e-05
4.26575e-05
4.92705e-05
4.14016e-05
4.92871e-05
0.000188684
0.000188675
0.00018868
0.000185274
0.000185275
0.000185267
0.000185271
5.72059e-05
4.66967e-05
0.000168096
0.000142212
5.77211e-05
4.72766e-05
0.000166769
2.38277e-05
2.38115e-05
5.72021e-05
0.000168094
4.66962e-05
0.000142204
5.77201e-05
0.000166763
4.72774e-05
4.67579e-05
4.67588e-05
0.00011157
4.77382e-05
4.77402e-05
4.55836e-05
4.9313e-05
4.42221e-05
4.93293e-05
2.37844e-05
2.3773e-05
4.55752e-05
4.931e-05
4.42248e-05
4.9327e-05
0.000184152
0.000184143
0.000184148
0.000180809
0.00018081
0.000180802
0.000180806
5.60345e-05
4.84968e-05
0.000162861
0.000136559
5.63294e-05
4.91595e-05
0.000161583
2.37824e-05
2.37711e-05
5.60356e-05
0.000162859
4.84974e-05
0.000136549
5.63238e-05
0.000161576
4.91582e-05
4.9011e-05
4.90121e-05
0.000106193
4.99207e-05
4.9922e-05
4.88217e-05
4.93514e-05
4.73462e-05
4.93673e-05
2.37516e-05
2.37432e-05
4.88093e-05
4.9349e-05
4.73619e-05
4.93646e-05
0.000179707
0.000179698
0.000179703
0.000176422
0.000176424
0.000176415
0.00017642
5.55218e-05
5.05201e-05
0.00015781
0.000131123
5.56001e-05
5.12389e-05
0.000156575
2.37496e-05
2.37412e-05
5.55186e-05
0.000157808
5.05189e-05
0.000131113
5.56009e-05
0.000156568
5.12404e-05
5.10788e-05
5.10803e-05
0.000101351
5.19311e-05
5.19324e-05
5.22598e-05
4.93869e-05
5.07235e-05
4.94015e-05
2.37262e-05
2.37196e-05
5.22563e-05
4.93846e-05
5.07215e-05
4.93987e-05
0.000175339
0.000175329
0.000175335
0.000172104
0.000172106
0.000172097
0.000172101
5.56477e-05
5.26915e-05
0.000152914
0.000125906
5.55139e-05
5.34459e-05
0.000151715
2.37244e-05
2.37179e-05
5.56472e-05
0.000152913
5.2692e-05
0.000125896
5.55127e-05
0.00015171
5.34463e-05
5.29751e-05
5.29755e-05
9.69911e-05
5.37482e-05
5.37522e-05
5.57302e-05
4.94194e-05
5.41942e-05
4.94324e-05
2.37055e-05
2.37e-05
5.57167e-05
4.94168e-05
5.4211e-05
4.94298e-05
0.000171037
0.000171027
0.000171033
0.00016784
0.000167841
0.000167831
0.000167837
5.63841e-05
5.49471e-05
0.000148168
0.000120925
5.6056e-05
5.57156e-05
0.000147004
2.37037e-05
2.36982e-05
5.63799e-05
0.000148168
5.49475e-05
0.000120916
5.60585e-05
0.000146999
5.5716e-05
5.46808e-05
5.46833e-05
9.3133e-05
5.53876e-05
5.53899e-05
5.90867e-05
4.94491e-05
5.76466e-05
4.94612e-05
2.36875e-05
2.36827e-05
5.90802e-05
4.94465e-05
5.76485e-05
4.94588e-05
0.000166786
0.000166777
0.000166783
0.000163626
0.00016363
0.00016362
0.000163625
5.7698e-05
5.72284e-05
0.000143541
0.000116208
5.71795e-05
5.7992e-05
0.000142402
2.36856e-05
2.36807e-05
5.76952e-05
0.000143539
5.72277e-05
0.000116198
5.71775e-05
0.000142398
5.79923e-05
5.62225e-05
5.62253e-05
8.98283e-05
5.68733e-05
5.68748e-05
6.22914e-05
4.94774e-05
6.08821e-05
4.94891e-05
2.36712e-05
2.36664e-05
6.22805e-05
4.94746e-05
6.08918e-05
4.94863e-05
0.000162589
0.000162578
0.000162586
0.00015945
0.000159453
0.000159443
0.000159449
5.9503e-05
5.94832e-05
0.000139012
0.000111799
5.88416e-05
6.02301e-05
0.000137901
2.36693e-05
2.36647e-05
5.95016e-05
0.000139014
5.94824e-05
0.00011179
5.88426e-05
0.000137897
6.02312e-05
5.76209e-05
5.76235e-05
8.7061e-05
5.82068e-05
5.82084e-05
6.51859e-05
4.9504e-05
6.39219e-05
4.95145e-05
2.36558e-05
2.36518e-05
6.5179e-05
4.95013e-05
6.39305e-05
4.9512e-05
0.000158417
0.000158406
0.000158413
0.000155297
0.000155299
0.000155289
0.000155295
6.17448e-05
6.16773e-05
0.000134592
0.000107757
6.09429e-05
6.2401e-05
0.000133519
2.3654e-05
2.36498e-05
6.17426e-05
0.000134594
6.16752e-05
0.000107748
6.0943e-05
0.000133516
6.24079e-05
5.88848e-05
5.88876e-05
8.4905e-05
5.94153e-05
5.94164e-05
6.77652e-05
4.95287e-05
6.66525e-05
4.95385e-05
2.36418e-05
2.36381e-05
4.95266e-05
6.66509e-05
4.95369e-05
0.000154266
0.000154254
0.000154264
6.4304e-05
6.37879e-05
0.0001303
0.000104156
6.34083e-05
6.44793e-05
0.000129255
2.36398e-05
6.42997e-05
0.000130297
6.37728e-05
6.34037e-05
0.000129256
6.0029e-05
6.00323e-05
8.33858e-05
6.05158e-05
6.05154e-05
0.000234867
0.000233564
0.000233566
2.32575e-05
0.000214159
2.32564e-05
0.000214162
0.000234435
5.13348e-05
5.13185e-05
0.00022999
0.000229991
0.000235117
0.000234798
0.000234701
0.000234727
0.000235118
0.000234798
0.000234701
0.000234727
0.000234477
4.02624e-05
0.000218814
0.000147835
0.000234477
4.02619e-05
0.000218814
0.000147842
0.000233889
0.000234474
0.000100094
0.000234271
0.000233358
0.000234597
0.000228477
0.000233889
0.000234474
0.000100084
0.000234271
0.000233359
0.000234597
0.000228476
0.000234867
0.000233565
0.000233565
2.32572e-05
0.000214167
0.000234435
5.13294e-05
5.13201e-05
0.000229989
0.000229991
2.32571e-05
0.000214169
0.000235118
0.000234798
0.000234701
0.000234727
0.000235117
0.000234798
0.000234727
0.000234701
0.000234477
4.02592e-05
0.000218815
0.000147811
0.000233889
0.000234474
0.000100072
0.00023427
0.000233359
0.000234597
0.000228474
0.000234477
4.02587e-05
0.000218815
0.000147826
0.000233889
0.000234474
0.000234271
0.00010008
0.000234597
0.000233359
0.000228477
0.00023473
0.000234746
0.000234729
0.000234729
0.00023473
0.000234746
0.000234729
0.000234729
0.00023473
0.000234746
0.000234729
0.000234729
0.000234591
0.000234574
0.000234253
0.000234253
0.000234592
0.000234592
0.000234252
0.000234591
0.000234574
0.000234253
0.000234253
0.000234592
0.000234592
0.000234253
0.000234591
0.000234574
0.000234253
0.000234253
0.000234592
0.000234592
0.000234252
0.000234591
0.000234574
0.000234253
0.000234253
0.000234592
0.000234592
0.000234253
0.000235117
0.000234798
0.000234727
0.000234701
0.000233889
0.000234474
0.000100075
0.000234271
0.000233359
0.000234597
0.000228475
0.000234477
4.02599e-05
0.000218817
0.000147827
0.000233889
0.000234474
0.000234271
0.00010009
0.000234597
0.000233359
0.000228477
0.000234477
4.02595e-05
0.000218816
0.000147834
0.000234867
0.000233566
0.000233566
2.32565e-05
0.000214163
0.000234435
5.13198e-05
5.13261e-05
0.000229991
0.000229993
2.32569e-05
0.000214171
0.000235118
0.000234798
0.000234727
0.000234701
0.000233888
0.000234474
0.00023427
0.000100084
0.000234596
0.00023336
0.000228476
0.000233888
0.000234474
0.00023427
0.000100074
0.000234597
0.000233359
0.000228475
0.000234477
4.0259e-05
0.000218818
0.000147812
0.000234477
4.02589e-05
0.000218813
0.000147799
0.000234435
5.13299e-05
5.13173e-05
0.000229992
0.000229992
2.3257e-05
0.00021417
2.32564e-05
0.000214164
2.16838e-05
2.28324e-05
2.16825e-05
2.28308e-05
4.78053e-05
4.77914e-05
0.000231346
4.40209e-05
4.40079e-05
2.44812e-05
2.33048e-05
2.44796e-05
2.33036e-05
0.000229667
4.00646e-05
4.00532e-05
4.31026e-05
4.30864e-05
0.000104665
3.87403e-05
0.000129104
3.98229e-05
0.0002062
9.36854e-05
0.000233969
0.000231993
0.000222609
8.72304e-05
0.000233611
0.000206202
9.36685e-05
0.000233969
0.000231989
0.000222605
8.72173e-05
0.000233611
9.84249e-05
4.19626e-05
4.03774e-05
8.55717e-05
9.84179e-05
4.1961e-05
4.03764e-05
8.55737e-05
0.000200084
0.000230759
8.08052e-05
0.000232683
8.56698e-05
0.000233189
0.000185634
0.000200083
0.000230754
8.07972e-05
0.000232682
8.56529e-05
0.000233188
0.000185637
4.77939e-05
4.78042e-05
0.000231346
4.40133e-05
4.4013e-05
2.16834e-05
2.28325e-05
2.44802e-05
2.33042e-05
0.000229667
4.00583e-05
4.00543e-05
4.30884e-05
4.31006e-05
2.44815e-05
2.33049e-05
0.000206191
9.36636e-05
0.000233969
0.000231991
0.000222608
8.7211e-05
0.000233611
0.000104646
3.87366e-05
0.000129133
3.98209e-05
0.000206191
0.000233969
9.36678e-05
0.000231989
0.000222613
0.000233611
8.72104e-05
9.84215e-05
4.19588e-05
4.03739e-05
8.55669e-05
0.000200082
0.000230756
8.07912e-05
0.000232682
8.56532e-05
0.000233189
0.000185632
9.84228e-05
4.19581e-05
4.03731e-05
8.55652e-05
0.000200082
0.000230753
0.000232682
8.07865e-05
0.000233188
8.56518e-05
0.000185628
0.000104652
3.87376e-05
0.000129123
3.98237e-05
0.000206196
0.000233969
9.36761e-05
0.000231993
0.000222619
0.000233611
8.72255e-05
0.000104649
3.87383e-05
0.000129143
3.98219e-05
0.000200085
0.00023076
8.08005e-05
0.000232683
8.56682e-05
0.000233189
0.000185635
9.84235e-05
4.19611e-05
4.0375e-05
8.55677e-05
0.000200085
0.000230758
0.000232683
8.08052e-05
0.000233189
8.56646e-05
0.000185634
9.84287e-05
4.19598e-05
4.03754e-05
8.55689e-05
4.77939e-05
4.77997e-05
0.000231345
4.40044e-05
4.40234e-05
2.16828e-05
2.28314e-05
2.44791e-05
2.33026e-05
0.000229667
4.00479e-05
4.00661e-05
4.30907e-05
4.30953e-05
2.44802e-05
2.33042e-05
0.000206188
0.000233969
9.36626e-05
0.00023199
0.000222617
0.000233611
8.72144e-05
0.00010463
3.87373e-05
0.00012915
3.9822e-05
0.000104626
3.87368e-05
0.000129136
3.9821e-05
0.000200083
0.00023076
0.000232682
8.0805e-05
0.000233189
8.56609e-05
0.000185631
0.000200084
0.000230756
0.000232682
8.07963e-05
0.000233189
8.56519e-05
0.00018563
9.84374e-05
4.19594e-05
4.03751e-05
8.55647e-05
9.84368e-05
4.19588e-05
4.03736e-05
8.55643e-05
2.16832e-05
2.28314e-05
2.16823e-05
2.28308e-05
0.000229667
4.00663e-05
4.00543e-05
4.30992e-05
4.3085e-05
2.44804e-05
2.33044e-05
2.44795e-05
2.33037e-05
2.47755e-05
2.54645e-05
2.47738e-05
2.54627e-05
3.91722e-05
3.91549e-05
0.000219595
3.6574e-05
3.65654e-05
2.59544e-05
2.56194e-05
2.59529e-05
2.56176e-05
0.000216776
3.38485e-05
3.38412e-05
3.57366e-05
3.57196e-05
7.25705e-05
4.24329e-05
8.14046e-05
4.3762e-05
0.000167489
7.94402e-05
0.00023208
0.000226092
0.00018021
7.45101e-05
0.000231376
0.000167492
7.94241e-05
0.00023208
0.000226087
0.000180212
7.45046e-05
0.000231375
6.96291e-05
4.52376e-05
4.41511e-05
6.32359e-05
6.96314e-05
4.52371e-05
4.41498e-05
6.32389e-05
0.000162884
0.000224265
6.86682e-05
0.000229654
7.31611e-05
0.000230567
0.000151898
0.000162888
0.000224259
6.86646e-05
0.000229654
7.31441e-05
0.000230566
0.000151902
3.91577e-05
3.91717e-05
0.000219598
3.65702e-05
3.65643e-05
2.47756e-05
2.54647e-05
2.59538e-05
2.56186e-05
0.000216777
3.38447e-05
3.38435e-05
3.57227e-05
3.57334e-05
2.59548e-05
2.56193e-05
0.000167488
7.94222e-05
0.00023208
0.000226091
0.000180203
7.45007e-05
0.000231375
7.25562e-05
4.24293e-05
8.13968e-05
4.37588e-05
0.000167485
0.000232079
7.94242e-05
0.000226085
0.000180202
0.000231375
7.44919e-05
6.96324e-05
4.52345e-05
4.41478e-05
6.32359e-05
0.000162878
0.000224263
6.86602e-05
0.000229653
7.31441e-05
0.000230567
0.000151898
6.96319e-05
4.52334e-05
4.41457e-05
6.32334e-05
0.000162875
0.000224257
0.000229653
6.86546e-05
0.000230565
7.31427e-05
0.000151894
7.25629e-05
4.24322e-05
8.14052e-05
4.3762e-05
0.000167488
0.00023208
7.94327e-05
0.000226091
0.000180209
0.000231375
7.45109e-05
7.25661e-05
4.24319e-05
8.13992e-05
4.37604e-05
0.000162887
0.000224269
6.86691e-05
0.000229655
7.31585e-05
0.000230567
0.0001519
6.96337e-05
4.5237e-05
4.41492e-05
6.32361e-05
0.000162884
0.000224263
0.000229654
6.86698e-05
0.000230566
7.31497e-05
0.000151898
6.96316e-05
4.52353e-05
4.41482e-05
6.32343e-05
3.91599e-05
3.91678e-05
0.000219593
3.65585e-05
3.65751e-05
2.4775e-05
2.54631e-05
2.59519e-05
2.56164e-05
0.000216774
3.38366e-05
3.38505e-05
3.57214e-05
3.57296e-05
2.59535e-05
2.56183e-05
0.000167489
0.00023208
7.94226e-05
0.00022609
0.000180206
0.000231375
7.45027e-05
7.25569e-05
4.24315e-05
8.13967e-05
4.37605e-05
7.25629e-05
4.24302e-05
8.13982e-05
4.37594e-05
0.000162877
0.000224268
0.000229654
6.86696e-05
0.000230567
7.31516e-05
0.000151896
0.000162879
0.000224263
0.000229654
6.86623e-05
0.000230566
7.31416e-05
0.000151899
6.96323e-05
4.52353e-05
4.41483e-05
6.32343e-05
6.9633e-05
4.52341e-05
4.41469e-05
6.32352e-05
2.4775e-05
2.54629e-05
2.47742e-05
2.54622e-05
0.000216774
3.38505e-05
3.38405e-05
3.57267e-05
3.57181e-05
2.59533e-05
2.56181e-05
2.59525e-05
2.56174e-05
2.60139e-05
2.61179e-05
2.60122e-05
2.61162e-05
3.32227e-05
3.32115e-05
0.000204616
3.19927e-05
3.19838e-05
2.60836e-05
2.61186e-05
2.60816e-05
2.61168e-05
0.000201349
3.08804e-05
3.0871e-05
3.15697e-05
3.15614e-05
5.62797e-05
4.5546e-05
6.11344e-05
4.64122e-05
0.000138599
6.74255e-05
0.000228642
0.000218222
0.000148064
6.35177e-05
0.000227536
0.000138603
6.74157e-05
0.000228642
0.000218217
0.000148066
6.35111e-05
0.000227535
5.47707e-05
4.73221e-05
4.66512e-05
5.10055e-05
5.47726e-05
4.7322e-05
4.66505e-05
5.10074e-05
0.000135411
0.000216074
5.91336e-05
0.000225066
6.24208e-05
0.000226342
0.00012725
0.000135414
0.000216068
5.91272e-05
0.000225066
6.24152e-05
0.000226341
0.000127253
3.32138e-05
3.32218e-05
0.000204621
3.19867e-05
3.19894e-05
2.60141e-05
2.61182e-05
2.60828e-05
2.6118e-05
0.000201351
3.08731e-05
3.08784e-05
3.15633e-05
3.1568e-05
2.60837e-05
2.61188e-05
0.000138597
6.74157e-05
0.000228642
0.000218224
0.000148057
6.35078e-05
0.000227534
5.62799e-05
4.55417e-05
6.11271e-05
4.64083e-05
0.000138594
0.00022864
6.74113e-05
0.000218213
0.000148056
0.000227533
6.35048e-05
5.47674e-05
4.73191e-05
4.66481e-05
5.10053e-05
0.000135406
0.000216077
5.91245e-05
0.000225065
6.24106e-05
0.000226341
0.000127247
5.47664e-05
4.7318e-05
4.6646e-05
5.10041e-05
0.000135404
0.000216064
0.000225063
5.91213e-05
0.000226339
6.24074e-05
0.000127244
5.62773e-05
4.55454e-05
6.11319e-05
4.64122e-05
0.000138598
0.000228642
6.74205e-05
0.00021822
0.000148063
0.000227535
6.35153e-05
5.62759e-05
4.55441e-05
6.11303e-05
4.64103e-05
0.000135413
0.000216083
5.91339e-05
0.000225068
6.24211e-05
0.000226343
0.000127251
5.47703e-05
4.7322e-05
4.66499e-05
5.10053e-05
0.000135411
0.000216071
0.000225066
5.91308e-05
0.000226341
6.24194e-05
0.000127248
5.4769e-05
4.73198e-05
4.66483e-05
5.10041e-05
3.32109e-05
3.32198e-05
0.000204612
3.19816e-05
3.19931e-05
2.6013e-05
2.61169e-05
2.60805e-05
2.61157e-05
0.000201346
3.08703e-05
3.08793e-05
3.1559e-05
3.15693e-05
2.60825e-05
2.61176e-05
0.000138599
0.000228641
6.74128e-05
0.000218223
0.000148058
0.000227534
6.35086e-05
5.62806e-05
4.55441e-05
6.1127e-05
4.64099e-05
5.62815e-05
4.5543e-05
6.1128e-05
4.64093e-05
0.000135406
0.00021608
0.000225065
5.91303e-05
0.000226342
6.24194e-05
0.000127247
0.000135407
0.000216075
0.000225065
5.91247e-05
0.00022634
6.24125e-05
0.000127249
5.47665e-05
4.73195e-05
4.66482e-05
5.10046e-05
5.47674e-05
4.73189e-05
4.66474e-05
5.10054e-05
2.60128e-05
2.61168e-05
2.60121e-05
2.61159e-05
0.000201346
3.08784e-05
3.08701e-05
3.15682e-05
3.15599e-05
2.60823e-05
2.61174e-05
2.60814e-05
2.61165e-05
2.6048e-05
2.59402e-05
2.60457e-05
2.59381e-05
3.06186e-05
3.06112e-05
0.000189782
3.03066e-05
3.02977e-05
2.57406e-05
2.58842e-05
2.57382e-05
2.58816e-05
0.00018655
3.01742e-05
3.01638e-05
3.02081e-05
3.01995e-05
4.69672e-05
4.74986e-05
4.99107e-05
4.80041e-05
0.000117547
5.82048e-05
0.000223719
0.000209407
0.000124601
5.54864e-05
0.000222308
0.000117549
5.81997e-05
0.000223718
0.000209402
0.000124603
5.548e-05
0.000222307
4.6155e-05
4.8498e-05
4.81303e-05
4.3844e-05
4.61565e-05
4.84977e-05
4.81299e-05
4.38454e-05
0.00011537
0.00020715
5.24979e-05
0.000219325
5.47241e-05
0.000220841
0.00010927
0.000115371
0.000207145
5.24913e-05
0.000219324
5.47168e-05
0.00022084
0.000109272
3.06129e-05
3.0617e-05
0.000189788
3.02995e-05
3.03052e-05
2.60478e-05
2.59403e-05
2.57393e-05
2.5883e-05
0.000186554
3.01663e-05
3.01709e-05
3.02009e-05
3.0205e-05
2.57405e-05
2.58837e-05
0.000117544
5.81974e-05
0.000223719
0.000209413
0.000124596
5.54775e-05
0.000222306
4.69638e-05
4.74939e-05
4.99085e-05
4.8e-05
0.000117542
0.000223716
5.81926e-05
0.000209397
0.000124594
0.000222304
5.54745e-05
4.61557e-05
4.84952e-05
4.81271e-05
4.38431e-05
0.000115364
0.000207157
5.24888e-05
0.000219323
5.47147e-05
0.000220841
0.000109267
4.61548e-05
4.84932e-05
4.81246e-05
4.38422e-05
0.000115362
0.000207139
0.000219321
5.24864e-05
0.000220837
5.47102e-05
0.000109266
4.69653e-05
4.74981e-05
4.99087e-05
4.80041e-05
0.000117545
0.000223719
5.82032e-05
0.000209405
0.0001246
0.000222307
5.54831e-05
4.69644e-05
4.74963e-05
4.99076e-05
4.80016e-05
0.00011537
0.000207164
5.24966e-05
0.000219327
5.47216e-05
0.000220842
0.00010927
4.61547e-05
4.84976e-05
4.81294e-05
4.38436e-05
0.000115368
0.000207147
0.000219324
5.2494e-05
0.00022084
5.47197e-05
0.000109268
4.61538e-05
4.84948e-05
4.81274e-05
4.38429e-05
3.06087e-05
3.0619e-05
0.000189778
3.02975e-05
3.03057e-05
2.60468e-05
2.59388e-05
2.57373e-05
2.58804e-05
0.000186546
3.01636e-05
3.01745e-05
3.01971e-05
3.02069e-05
2.57389e-05
2.58827e-05
0.000117546
0.000223718
5.81969e-05
0.000209412
0.000124596
0.000222307
5.54776e-05
4.69642e-05
4.74962e-05
4.99088e-05
4.80017e-05
4.69649e-05
4.74955e-05
4.99096e-05
4.80009e-05
0.000115364
0.000207159
0.000219323
5.24938e-05
0.000220841
5.47203e-05
0.000109268
0.000115365
0.000207155
0.000219324
5.24889e-05
0.000220839
5.4714e-05
0.000109269
4.61551e-05
4.84952e-05
4.81272e-05
4.38426e-05
4.61559e-05
4.84943e-05
4.81267e-05
4.38432e-05
2.60466e-05
2.59387e-05
2.60457e-05
2.59376e-05
0.000186546
3.01725e-05
3.01639e-05
3.0206e-05
3.01985e-05
2.57388e-05
2.58825e-05
2.57377e-05
2.58815e-05
2.56765e-05
2.55213e-05
2.56738e-05
2.55189e-05
3.01837e-05
3.01857e-05
0.000176372
3.04008e-05
3.0388e-05
2.53026e-05
2.54557e-05
2.53002e-05
2.54529e-05
0.000173313
3.08824e-05
3.0874e-05
3.04605e-05
3.04643e-05
4.14297e-05
4.85825e-05
4.32449e-05
4.88399e-05
0.000102113
5.18794e-05
0.000217769
0.000200387
0.00010738
5.00776e-05
0.000216179
0.000102114
5.18733e-05
0.000217768
0.000200382
0.000107381
5.00716e-05
0.000216177
4.09847e-05
4.90636e-05
4.88922e-05
3.9569e-05
4.09857e-05
4.90639e-05
4.88926e-05
3.95699e-05
0.000100458
0.000198156
4.8141e-05
0.000212922
4.95794e-05