/*--------------------------------*- C++ -*----------------------------------*\
| =========                 |                                                 |
| \\      /  F ield         | OpenFOAM: The Open Source CFD Toolbox           |
|  \\    /   O peration     | Version:  v1906                                 |
|   \\  /    A nd           | Web:      www.OpenFOAM.com                      |
|    \\/     M anipulation  |                                                 |
\*---------------------------------------------------------------------------*/
FoamFile
{
    version     2.0;
    format      ascii;
    class       volScalarField;
    location    "1000";
    object      nut;
}
// * * * * * * * * * * * * * * * * * * * * * * * * * * * * * * * * * * * * * //

dimensions      [0 2 -1 0 0 0 0];


internalField   nonuniform List<scalar> 
42616
(
0.000209218
0.000202079
0.000202102
0.000182921
0.000211398
0.000203053
0.000203011
0.000183636
0.000213817
0.000204875
0.000204848
0.000184787
0.000216225
0.000206181
0.000206225
0.000185733
0.000217353
0.000205871
0.000205886
0.00018522
0.00021899
0.000207348
0.000207277
0.000186432
0.000222113
0.000209173
0.000209179
0.000187698
0.000223138
0.000209374
0.000209442
0.000187688
0.000224282
0.000209666
0.00020963
0.000187812
0.000225572
0.000210215
0.000210102
0.000188063
0.000227186
0.000211061
0.000211058
0.000188667
0.000228914
0.00021222
0.000212357
0.000189668
0.00022959
0.000211863
0.000211717
0.000188701
0.000230084
0.000211771
0.000211675
0.000189125
0.000232962
0.000214446
0.000214729
0.000191658
0.000231959
0.000212009
0.00021179
0.000187831
0.000230239
0.000211011
0.000210909
0.000188171
0.000235345
0.000215437
0.000215619
0.000192206
0.000236909
0.000214623
0.00021457
0.000190187
0.000233928
0.000212345
0.000212287
0.000188337
0.000235709
0.000214164
0.000214098
0.000192778
0.000182887
0.000201813
0.000201864
0.000182918
0.000201832
0.000201884
0.000201876
0.000201834
0.000182938
0.0002019
0.000201854
0.000182908
0.000182873
0.000183674
0.000202046
0.000202052
0.000202926
0.000202708
0.000182879
0.000183475
0.000202066
0.00020207
0.000202944
0.000202679
0.000202113
0.000202749
0.000202875
0.00018289
0.000183444
0.000202135
0.000202731
0.000202892
0.000183602
0.000183754
0.00018473
0.000203267
0.000203025
0.000204358
0.00020437
0.000183543
0.000184759
0.000203283
0.000202974
0.000204365
0.000204332
0.000203137
0.00020438
0.000204278
0.000183503
0.000184725
0.000203149
0.000204335
0.000204286
0.000184669
0.000184795
0.000185599
0.000204758
0.000204859
0.000205752
0.000206004
0.000184892
0.000185848
0.000204767
0.000204838
0.00020577
0.000206039
0.00020476
0.000206055
0.000205981
0.000184869
0.000185872
0.000204771
0.000206092
0.000206004
0.000185801
0.000185532
0.000185497
0.000205949
0.000206124
0.000206004
0.000205965
0.000185761
0.000185356
0.000205969
0.000206162
0.000206027
0.000205989
0.000206143
0.000206024
0.00020606
0.00018579
0.000185358
0.000206167
0.000206065
0.000206079
0.000185417
0.000185391
0.000186381
0.00020598
0.000205826
0.000206929
0.000206783
0.000185177
0.000186286
0.000206001
0.000205822
0.000206938
0.000206701
0.000205905
0.000206779
0.000206729
0.000185151
0.00018622
0.00020592
0.000206684
0.000206741
0.000186235
0.000186527
0.000187679
0.00020743
0.000207344
0.000208835
0.000208851
0.000186475
0.000187717
0.000207439
0.000207281
0.000208846
0.000208825
0.000207298
0.000208878
0.000208863
0.000186419
0.000187699
0.000207312
0.000208855
0.000208876
0.000187729
0.000187628
0.000187668
0.000209084
0.000209137
0.000209207
0.000209365
0.00018768
0.000187835
0.000209099
0.000209136
0.000209231
0.000209419
0.000209169
0.000209421
0.000209413
0.000187676
0.000187883
0.000209184
0.000209481
0.000209434
0.000187843
0.00018749
0.000187859
0.000209163
0.000209314
0.000209409
0.00020945
0.000187683
0.000187852
0.00020919
0.000209377
0.000209435
0.00020947
0.000209353
0.000209501
0.000209465
0.000187739
0.000187826
0.000209377
0.000209525
0.00020949
0.00018784
0.000187857
0.000188368
0.000209715
0.000209635
0.000210207
0.000210044
0.000187816
0.000188213
0.000209732
0.000209596
0.000210218
0.000209947
0.000209641
0.000210052
0.000210019
0.000187778
0.000188107
0.000209658
0.000209958
0.000210033
0.000188184
0.000188238
0.00018863
0.000210315
0.00021021
0.000210774
0.000210791
0.000188112
0.000188671
0.000210323
0.000210096
0.000210782
0.000210755
0.000210138
0.000210814
0.000210763
0.000188009
0.000188633
0.000210148
0.000210783
0.00021077
0.000188631
0.000188632
0.000189616
0.000211003
0.00021103
0.000211972
0.000211955
0.000188673
0.000189599
0.000211014
0.000211022
0.000212009
0.000212087
0.000211039
0.000212007
0.00021209
0.000188666
0.000189758
0.000211047
0.000212139
0.000212127
0.000189744
0.000189542
0.000189002
0.000212157
0.000212165
0.000211973
0.000212148
0.000189531
0.000189233
0.000212201
0.000212302
0.000212006
0.000212056
0.000212282
0.000212194
0.000212008
0.000189689
0.000189069
0.000212327
0.00021211
0.000212035
0.000189003
0.000188712
0.0001889
0.000211663
0.000211823
0.000211485
0.000211513
0.000188955
0.000188797
0.000211676
0.000211672
0.000211464
0.00021131
0.000211663
0.00021154
0.000211415
0.00018875
0.000188646
0.000211671
0.000211338
0.000211396
0.000188799
0.000189215
0.000191833
0.000211895
0.000211748
0.000214359
0.00021403
0.000189009
0.000191451
0.000211873
0.000211655
0.000214407
0.000214293
0.000211807
0.000214053
0.000214324
0.000188963
0.00019179
0.000211792
0.000214322
0.000214378
0.00019181
0.000191663
0.000188313
0.000214693
0.000214422
0.00021253
0.000212824
0.000191355
0.000188768
0.000214755
0.000214697
0.000212565
0.000212719
0.000214677
0.000212873
0.000212619
0.000191675
0.00018852
0.000214742
0.000212771
0.000212642
0.000188405
0.000187725
0.000187542
0.000211568
0.000211956
0.000210309
0.000210578
0.000188234
0.000187656
0.000211576
0.000211738
0.000210277
0.000210328
0.000211679
0.000210641
0.000210401
0.000187926
0.000187517
0.000211673
0.000210381
0.000210366
0.000187587
0.000188169
0.000192331
0.000210975
0.000210957
0.000215001
0.000214596
0.000188118
0.000191888
0.00021095
0.000210863
0.000215039
0.000214789
0.000210987
0.000214607
0.000214827
0.000188085
0.00019209
0.000210971
0.000214809
0.000214883
0.000192137
0.000192399
0.000190575
0.000215816
0.000215438
0.00021562
0.000215669
0.00019198
0.000190729
0.000215863
0.000215607
0.000215658
0.000215653
0.000215632
0.00021569
0.000215686
0.000192161
0.000190658
0.000215691
0.000215682
0.000215706
0.000190687
0.000190047
0.000188362
0.000214386
0.000214571
0.00021222
0.000212473
0.00019024
0.00018866
0.000214412
0.000214519
0.00021223
0.000212423
0.000214546
0.000212552
0.000212361
0.000190167
0.000188624
0.000214553
0.000212494
0.000212369
0.000188512
0.000188231
0.000190848
0.000212091
0.00021228
0.000215244
0.000215183
0.000188496
0.000190705
0.000212101
0.000212226
0.000215243
0.000215107
0.000212166
0.000215196
0.000215094
0.000188461
0.000190625
0.000212177
0.000215126
0.000215106
0.000190645
0.000192992
0.000214345
0.000214169
0.000192769
0.000214345
0.000214093
0.000235654
0.000235568
0.000235568
0.000214161
0.000192687
0.000214171
0.000208727
0.000208793
0.000208829
0.000208716
0.000100002
5.07628e-05
9.99886e-05
5.07723e-05
2.39012e-05
2.39054e-05
0.000100007
5.07597e-05
9.99992e-05
5.07693e-05
0.000209243
0.000209278
0.000209244
0.000210811
0.000210624
0.000210632
0.000210803
0.000144726
0.000103776
0.000212119
0.000202283
0.000144634
0.000103798
0.000212451
2.38989e-05
2.39031e-05
0.000144721
0.000212142
0.000103783
0.000202303
0.000144636
0.000212474
0.000103802
7.79903e-05
7.79898e-05
0.000183249
7.7994e-05
7.79928e-05
0.000100132
5.07857e-05
0.000100033
5.07952e-05
2.39109e-05
2.39154e-05
0.000100134
5.07826e-05
0.000100039
5.07919e-05
0.000211149
0.000211131
0.000211319
0.000213186
0.000213061
0.000213003
0.000213029
0.000145021
0.000103829
0.000213466
0.000203433
0.000144821
0.000103995
0.000213847
2.39087e-05
2.39133e-05
0.000145002
0.000213455
0.000103819
0.000203376
0.000144804
0.000213817
0.000103978
7.79882e-05
7.7983e-05
0.000184056
7.80905e-05
7.80878e-05
0.000100324
5.08031e-05
0.00010027
5.08065e-05
2.39194e-05
2.39221e-05
0.000100331
5.07997e-05
0.000100276
5.08033e-05
0.000213826
0.000213777
0.000213733
0.0002157
0.000216027
0.000216067
0.000215932
0.000145678
0.000104218
0.000215361
0.000205349
0.000145409
0.000104309
0.000215977
2.39174e-05
2.39199e-05
0.000145678
0.00021533
0.00010422
0.000205339
0.0001454
0.000215966
0.000104319
7.82195e-05
7.82188e-05
0.000185353
7.82571e-05
7.82574e-05
0.000100279
5.08114e-05
0.000100319
5.08176e-05
2.39243e-05
2.39273e-05
0.00010029
5.08087e-05
0.000100329
5.08148e-05
0.00021654
0.000216601
0.000216492
0.000217155
0.000217159
0.000217196
0.000217251
0.000145802
0.000104248
0.000217433
0.000206195
0.000145798
0.00010412
0.000217675
2.39219e-05
2.39251e-05
0.000145799
0.000217467
0.000104262
0.000206241
0.000145798
0.000217705
0.000104132
7.81534e-05
7.81536e-05
0.000185801
7.80316e-05
7.8031e-05
0.000100151
5.08314e-05
0.00010012
5.08447e-05
2.39341e-05
2.39401e-05
0.000100152
5.08282e-05
0.000100128
5.08412e-05
0.000217239
0.000217237
0.000217321
0.000218411
0.000218185
0.00021811
0.000218169
0.000145473
0.000103906
0.00021767
0.000205883
0.000145501
0.000104075
0.000217608
2.39319e-05
2.3938e-05
0.000145453
0.000217675
0.000103908
0.000205834
0.000145484
0.000217582
0.000104051
7.79303e-05
7.79275e-05
0.000185482
7.80932e-05
7.80903e-05
0.000100478
5.08553e-05
0.000100394
5.08585e-05
2.39445e-05
2.39465e-05
0.000100482
5.0852e-05
0.000100397
5.08554e-05
0.000218794
0.000218723
0.00021876
0.000221334
0.000221286
0.000221257
0.000221267
0.000146352
0.000104411
0.000218766
0.000207892
0.000145969
0.000104533
0.000219472
2.39423e-05
2.39444e-05
0.000146342
0.000218722
0.000104397
0.000207839
0.000145952
0.000219436
0.000104527
7.83039e-05
7.83e-05
0.000187099
7.83518e-05
7.83495e-05
0.000100465
5.08607e-05
0.000100488
5.08641e-05
2.39478e-05
2.39504e-05
0.000100478
5.08581e-05
0.000100496
5.08613e-05
0.000222137
0.00022212
0.00022213
0.000223091
0.000223309
0.000223382
0.000223375
0.000146561
0.000104503
0.000221406
0.000209328
0.000146511
0.000104442
0.000221792
2.39458e-05
2.39484e-05
0.000146559
0.000221399
0.000104518
0.000209357
0.000146505
0.000221801
0.000104463
7.82608e-05
7.8263e-05
0.00018796
7.81991e-05
7.82014e-05
0.000100379
5.08719e-05
0.000100375
5.08786e-05
2.39546e-05
2.39579e-05
0.00010039
5.08687e-05
0.000100389
5.08753e-05
0.000223372
0.000223487
0.000223442
0.000223844
0.000223951
0.000224002
0.000223949
0.000146412
0.000104369
0.00022206
0.000209376
0.000146398
0.000104394
0.00022206
2.39522e-05
2.39554e-05
0.000146413
0.000222106
0.000104385
0.000209435
0.000146399
0.000222111
0.000104399
7.81746e-05
7.81723e-05
0.000187701
7.82101e-05
7.82076e-05
0.000100397
5.08847e-05
0.000100391
5.08891e-05
2.39612e-05
2.39643e-05
0.000100403
5.08816e-05
0.000100397
5.08858e-05
0.000224284
0.00022429
0.000224293
0.000225298
0.00022509
0.00022499
0.000225092
0.00014652
0.000104393
0.000222431
0.000209807
0.000146446
0.00010439
0.00022266
2.39588e-05
2.39621e-05
0.000146503
0.000222425
0.000104387
0.000209757
0.000146434
0.000222626
0.000104383
7.82046e-05
7.82024e-05
0.000188121
7.81893e-05
7.81877e-05
0.000100338
5.08965e-05
0.000100351
5.09039e-05
2.39679e-05
2.39709e-05
0.000100336
5.08932e-05
0.000100353
5.09008e-05
0.000225398
0.000225256
0.000225334
0.000226677
0.000226659
0.000226601
0.000226602
0.00014652
0.000104335
0.000223299
0.00021039
0.000146502
0.000104351
0.000223526
2.39656e-05
2.39685e-05
0.000146478
0.000223228
0.000104323
0.00021029
0.000146474
0.000223446
0.000104328
7.81348e-05
7.81318e-05
0.000188277
7.81208e-05
7.81123e-05
0.00010047
5.09139e-05
0.000100369
5.09167e-05
2.39743e-05
2.39776e-05
0.000100484
5.09105e-05
0.00010037
5.09132e-05
0.000227189
0.000227192
0.000227183
0.000228478
0.000228474
0.000228635
0.000228631
0.000146801
0.000104429
0.000224359
0.000211366
0.000146589
0.000104573
0.000224663
2.39722e-05
2.39758e-05
0.000146814
0.00022435
0.000104421
0.000211409
0.000146565
0.000224683
0.000104596
7.82124e-05
7.82143e-05
0.000189241
7.8338e-05
7.83467e-05
0.000100577
5.09143e-05
0.00010062
5.09115e-05
2.39791e-05
2.39794e-05
0.000100604
5.09112e-05
0.000100667
5.09079e-05
0.000228928
0.000229108
0.000229086
0.000229614
0.000229769
0.000229742
0.000229696
0.000147273
0.000104762
0.000225897
0.000212373
0.000147186
0.000104645
0.000226158
2.39771e-05
2.3977e-05
0.000147324
0.00022599
0.000104832
0.000212495
0.000147254
0.000226251
0.000104685
7.84538e-05
7.84686e-05
0.00018971
7.82466e-05
7.82467e-05
9.98533e-05
5.09157e-05
0.000100024
5.09315e-05
2.398e-05
2.39851e-05
9.97983e-05
5.09121e-05
9.99897e-05
5.09281e-05
0.000229777
0.000229708
0.000229656
0.000229568
0.000229611
0.000229404
0.000229478
0.000145933
0.000103999
0.00022607
0.000211608
0.000146392
0.000103831
0.00022578
2.39771e-05
2.39827e-05
0.000145798
0.000226005
0.00010392
0.000211399
0.000146309
0.000225671
0.000103723
7.7763e-05
7.77341e-05
0.000188387
7.77206e-05
7.76943e-05
0.0001008
5.09504e-05
0.000100235
5.09498e-05
2.39912e-05
2.39927e-05
0.00010085
5.09477e-05
0.000100235
5.09474e-05
0.000229883
0.00022976
0.000229936
0.000232481
0.000232116
0.000232344
0.000232428
0.000147335
0.000104446
0.000225652
0.000212455
0.000146213
0.00010502
0.000226092
2.39897e-05
2.39912e-05
0.000147401
0.000225515
0.000104448
0.00021253
0.00014617
0.000226056
0.000105118
7.84334e-05
7.84453e-05
0.00019057
7.87891e-05
7.88099e-05
0.000100484
5.09161e-05
0.000101116
5.09043e-05
2.39859e-05
2.39855e-05
0.000100487
5.09126e-05
0.000101177
5.09004e-05
0.000232711
0.000232936
0.000232947
0.000232543
0.000232797
0.00023277
0.000232638
0.000147698
0.000105224
0.000228662
0.000214558
0.00014845
0.000104431
0.000229099
2.39831e-05
2.39824e-05
0.000147738
0.000228868
0.000105331
0.000214773
0.000148605
0.000229306
0.000104435
7.8546e-05
7.85614e-05
0.000190717
7.79138e-05
7.7899e-05
9.90588e-05
5.0916e-05
9.93376e-05
5.09481e-05
2.39903e-05
2.40011e-05
9.90062e-05
5.09124e-05
9.92842e-05
5.0945e-05
0.000232254
0.000232151
0.000232055
0.0002303
0.000230718
0.000230455
0.000230422
0.000144646
0.000103327
0.000227191
0.000211214
0.000145411
0.000103098
0.000226312
2.39877e-05
2.39994e-05
0.000144483
0.000227099
0.000103205
0.000210915
0.000145272
0.000226134
0.000102984
7.72786e-05
7.72417e-05
0.000187071
7.73583e-05
7.73397e-05
0.000100532
5.09844e-05
9.98426e-05
5.09875e-05
2.40084e-05
2.40113e-05
0.000100569
5.09816e-05
9.9858e-05
5.09846e-05
0.000230545
0.000230325
0.000230326
0.000233875
0.000233517
0.00023365
0.000233734
0.000146875
0.000104171
0.000225208
0.000212115
0.000145524
0.000104774
0.000225901
2.40069e-05
2.40096e-05
0.000146954
0.000225024
0.000104208
0.000212152
0.00014552
0.00022586
0.000104839
7.83012e-05
7.8317e-05
0.000190091
7.86071e-05
7.8626e-05
0.00010077
5.09552e-05
0.000101128
5.09436e-05
2.40005e-05
2.40002e-05
0.000100768
5.0952e-05
0.000101164
5.09403e-05
0.000234899
0.000235082
0.000235163
0.000237288
0.000237036
0.000237162
0.000237223
0.000148259
0.000105209
0.000229971
0.000216077
0.00014841
0.000104722
0.000230975
2.3998e-05
2.39977e-05
0.000148245
0.000230135
0.000105261
0.000216244
0.000148498
0.000231132
0.000104699
7.86646e-05
7.86682e-05
0.000192478
7.81314e-05
7.81193e-05
9.94993e-05
5.09299e-05
9.97324e-05
5.09451e-05
2.39953e-05
2.40054e-05
9.95033e-05
5.09269e-05
9.97301e-05
5.09419e-05
0.000236872
0.000236939
0.000236974
0.000234176
0.000234497
0.00023444
0.000234336
0.000145597
0.000103956
0.000230847
0.00021347
0.000146444
0.000103667
0.000229425
2.39933e-05
2.40034e-05
0.000145566
0.000230831
0.000103933
0.00021341
0.000146399
0.000229376
0.00010365
7.7736e-05
7.77294e-05
0.00018903
7.75761e-05
7.75731e-05
9.97087e-05
5.0947e-05
9.95569e-05
5.09912e-05
2.40034e-05
2.40234e-05
9.9708e-05
5.09433e-05
9.95624e-05
5.09883e-05
0.000234222
0.000234158
0.000234053
0.000232886
0.000232995
0.000232907
0.000232833
0.000145843
0.000103793
0.000227662
0.000212936
0.000145569
0.000103729
0.000227397
2.40014e-05
2.40216e-05
0.000145836
0.000227607
0.000103779
0.000212871
0.000145559
0.000227356
0.000103714
7.76415e-05
7.76412e-05
0.000188998
7.74846e-05
7.74847e-05
0.000108701
5.50898e-05
0.000100387
8.59177e-05
2.70318e-05
4.62454e-05
0.000108692
5.50861e-05
0.000100379
8.59152e-05
0.000249889
0.000242625
0.00024258
0.000235463
0.000250391
0.000243621
0.00024357
0.000150583
0.000105904
0.000232077
0.000214352
0.000147039
0.000108537
0.000230786
2.70305e-05
4.62433e-05
0.00015056
0.000232027
0.000105887
0.000214296
0.000147023
0.000230739
0.000108524
7.75042e-05
7.75001e-05
0.000197366
8.56045e-05
8.56083e-05
2.39016e-05
2.38972e-05
2.39003e-05
2.38959e-05
0.000182629
7.79688e-05
7.79653e-05
7.79642e-05
7.79617e-05
9.99908e-05
5.07611e-05
5.07527e-05
0.000100002
9.99956e-05
5.07607e-05
5.0753e-05
0.000100006
0.000144535
0.000201594
0.000103775
0.000211792
0.000103754
0.000211444
0.000144623
0.00014454
0.000201655
0.000103788
0.000211814
0.000103775
0.000211467
0.000144629
2.39008e-05
2.38966e-05
0.000182662
7.7975e-05
7.79745e-05
7.79823e-05
7.79791e-05
2.39013e-05
2.38972e-05
0.000100006
5.0758e-05
5.07498e-05
0.000100013
0.000144551
0.000201614
0.000103769
0.000211803
0.000103749
0.000211457
0.000144634
0.000100003
5.07529e-05
5.07452e-05
0.00010001
0.000144551
0.000201681
0.000211832
0.00010377
0.000211486
0.000103761
0.000144634
0.000144514
0.000201657
0.000103793
0.000211775
0.000103774
0.000211416
0.000144639
9.99935e-05
5.076e-05
5.07523e-05
0.000100015
0.000144507
0.000201551
0.000211751
0.000103806
0.000211371
0.000103756
0.000144636
9.9989e-05
5.07574e-05
5.07493e-05
0.000100012
2.38985e-05
2.38943e-05
0.0001827
7.79594e-05
7.79842e-05
7.79676e-05
7.79891e-05
2.39005e-05
2.38964e-05
0.000144523
0.000201687
0.000211796
0.000103798
0.000211439
0.000103783
0.000144642
0.000144519
0.00020157
0.000211765
0.000103807
0.000211385
0.000103757
0.000144645
9.9993e-05
5.07562e-05
5.07486e-05
0.000100011
9.9998e-05
5.07576e-05
5.07496e-05
0.000100018
0.000182587
7.79964e-05
7.79957e-05
7.79738e-05
7.7974e-05
2.39006e-05
2.38963e-05
2.39002e-05
2.38959e-05
2.39021e-05
2.39065e-05
2.39008e-05
2.39052e-05
7.79636e-05
7.79597e-05
0.000183204
7.79973e-05
7.79921e-05
2.39112e-05
2.3907e-05
2.39099e-05
2.39056e-05
0.00018325
7.80319e-05
7.80259e-05
7.79928e-05
7.79872e-05
0.000100003
5.07623e-05
9.99923e-05
5.07716e-05
0.0001447
0.000103764
0.000212119
0.000202304
0.000144612
0.000103826
0.000212442
0.000144698
0.000103771
0.000212129
0.000202242
0.000144617
0.000103793
0.00021243
9.99909e-05
5.07839e-05
5.07741e-05
0.000100037
9.99912e-05
5.07841e-05
5.07735e-05
0.000100036
0.000144691
0.000202604
0.000103901
0.000213152
0.000103819
0.000212787
0.000144832
0.000144687
0.000202457
0.00010384
0.000213082
0.000103775
0.000212746
0.000144822
7.79642e-05
7.79612e-05
0.000183132
7.79629e-05
7.79562e-05
2.39017e-05
2.39059e-05
2.39104e-05
2.39058e-05
0.000183122
7.79854e-05
7.79772e-05
7.79513e-05
7.79424e-05
2.39109e-05
2.39063e-05
0.000144702
0.000103757
0.000212132
0.000202324
0.000144622
0.000103818
0.000212453
0.000100001
5.07545e-05
9.99962e-05
5.07638e-05
0.000144693
0.000212147
0.000103752
0.000202254
0.000144621
0.000212448
0.000103772
9.9997e-05
5.07808e-05
5.07711e-05
0.00010004
0.000144693
0.000202624
0.000103892
0.000213159
0.000103809
0.000212799
0.000144829
9.99905e-05
5.07764e-05
5.07657e-05
0.000100031
0.000144683
0.000202453
0.00021308
0.000103811
0.000212758
0.000103753
0.00014481
0.000100014
5.07615e-05
0.000100004
5.07707e-05
0.000144732
0.000212124
0.000103798
0.000202379
0.000144633
0.000212484
0.000103838
0.000100015
5.07589e-05
0.000100002
5.07677e-05
0.000144714
0.000202503
0.000103834
0.000213112
0.000103778
0.000212783
0.000144822
0.000100001
5.07831e-05
5.07726e-05
0.000100029
0.000144721
0.000202633
0.000213171
0.000103853
0.000212836
0.000103821
0.000144827
0.000100002
5.0779e-05
5.07693e-05
0.000100029
7.79463e-05
7.79742e-05
0.000183127
7.79434e-05
7.79667e-05
2.39009e-05
2.3905e-05
2.39082e-05
2.39035e-05
0.000183109
7.79641e-05
7.79694e-05
7.79298e-05
7.79531e-05
2.39099e-05
2.39054e-05
0.000144733
0.00021214
0.000103798
0.000202401
0.000144641
0.0002125
0.000103837
0.000100006
5.07578e-05
9.99974e-05
5.07669e-05
0.000100015
5.07591e-05
0.000100007
5.07678e-05
0.000144706
0.000202509
0.000213119
0.000103825
0.000212801
0.000103782
0.000144811
0.000144719
0.000202653
0.000213179
0.000103848
0.000212849
0.000103819
0.000144819
9.99903e-05
5.07793e-05
5.07688e-05
0.000100017
0.000100001
5.07792e-05
5.07695e-05
0.000100024
2.3901e-05
2.3905e-05
2.39006e-05
2.39045e-05
0.000183263
7.7986e-05
7.79821e-05
7.79811e-05
7.79799e-05
2.39096e-05
2.39054e-05
2.39092e-05
2.39049e-05
2.39117e-05
2.39158e-05
2.39104e-05
2.39145e-05
7.80362e-05
7.80299e-05
0.000184203
7.8118e-05
7.81137e-05
2.39194e-05
2.39161e-05
2.39181e-05
2.39148e-05
0.000184279
7.81939e-05
7.81906e-05
7.81325e-05
7.81281e-05
0.000100133
5.07861e-05
0.000100032
5.07965e-05
0.000145059
0.000103899
0.000213546
0.00020361
0.000144839
0.000104026
0.000213958
0.000145055
0.000103838
0.000213458
0.000203417
0.000144829
0.000104004
0.000213869
0.000100142
5.08025e-05
5.07966e-05
0.000100262
0.000100143
5.08038e-05
5.07979e-05
0.000100265
0.00014509
0.000203976
0.000104179
0.000214862
0.00010404
0.000214397
0.000145373
0.000145087
0.000203878
0.000104201
0.000214831
0.000104025
0.000214328
0.000145379
7.79935e-05
7.79883e-05
0.000184051
7.81028e-05
7.80944e-05
2.39115e-05
2.3916e-05
2.39192e-05
2.39158e-05
0.000184191
7.82106e-05
7.82131e-05
7.81224e-05
7.81201e-05
2.39199e-05
2.39164e-05
0.000145054
0.000103889
0.000213548
0.000203622
0.000144836
0.000104017
0.000213948
0.000100127
5.07785e-05
0.00010003
5.07892e-05
0.00014504
0.000213441
0.000103806
0.000203358
0.000144816
0.000213836
0.000103976
0.000100147
5.07991e-05
5.07933e-05
0.000100266
0.000145085
0.000203985
0.000104169
0.00021484
0.000104029
0.00021438
0.000145371
0.000100142
5.07968e-05
5.07907e-05
0.000100265
0.000145073
0.000203825
0.000214791
0.000104188
0.000214286
0.000103999
0.000145373
0.000100115
5.07852e-05
0.000100021
5.07957e-05
0.000145017
0.000213518
0.000103842
0.000203446
0.000144824
0.00021388
0.000103977
0.000100112
5.07809e-05
0.000100021
5.07915e-05
0.000145054
0.000203887
0.000104205
0.000214778
0.000104017
0.000214281
0.000145365
0.000100127
5.08032e-05
5.07972e-05
0.000100264
0.000145049
0.000203831
0.000214759
0.000104186
0.000214289
0.000103996
0.000145357
0.000100123
5.07996e-05
5.07931e-05
0.00010026
7.7975e-05
7.79756e-05
0.000183998
7.80817e-05
7.80902e-05
2.39105e-05
2.39152e-05
2.39172e-05
2.39137e-05
0.000184143
7.82021e-05
7.82194e-05
7.81077e-05
7.81151e-05
2.39192e-05
2.39156e-05
0.000145006
0.000213517
0.000103836
0.000203455
0.000144814
0.000213868
0.000103973
0.000100103
5.07813e-05
0.000100007
5.0792e-05
0.000100108
5.07812e-05
0.000100016
5.07921e-05
0.000145035
0.000203831
0.000214735
0.000104204
0.000214238
0.000104002
0.000145354
0.000145038
0.000203838
0.000214736
0.000104186
0.000214268
0.000103993
0.000145354
0.000100113
5.07999e-05
5.07936e-05
0.000100256
0.00010012
5.08002e-05
5.07937e-05
0.000100261
2.39101e-05
2.39147e-05
2.39097e-05
2.39143e-05
0.000184154
7.82047e-05
7.82038e-05
7.8113e-05
7.81101e-05
2.39186e-05
2.39151e-05
2.39182e-05
2.39147e-05
2.39196e-05
2.39224e-05
2.39183e-05
2.39211e-05
7.82003e-05
7.81971e-05
0.000185242
7.82192e-05
7.82161e-05
2.39251e-05
2.39225e-05
2.39238e-05
2.39212e-05
0.000185264
7.81655e-05
7.81622e-05
7.82143e-05
7.82108e-05
0.000100329
5.08044e-05
0.000100273
5.08075e-05
0.000145647
0.000104186
0.000215374
0.000205132
0.00014541
0.000104245
0.000215904
0.000145658
0.000104212
0.000215396
0.000205324
0.000145416
0.000104295
0.00021598
0.000100319
5.08106e-05
5.0807e-05
0.000100334
0.000100324
5.0811e-05
5.08079e-05
0.00010034
0.000145652
0.000205477
0.000104245
0.000216892
0.000104238
0.000216431
0.000145772
0.000145663
0.000205737
0.000104295
0.000216993
0.000104289
0.000216534
0.000145784
7.82244e-05
7.82305e-05
0.000185456
7.82614e-05
7.82691e-05
2.39201e-05
2.39227e-05
2.39243e-05
2.39222e-05
0.000185498
7.81958e-05
7.81923e-05
7.8259e-05
7.82645e-05
2.39247e-05
2.39226e-05
0.000145649
0.000104175
0.000215356
0.000205143
0.000145408
0.000104237
0.000215897
0.000100331
5.07973e-05
0.000100275
5.08002e-05
0.000145658
0.000215371
0.000104201
0.000205322
0.000145413
0.000215974
0.000104293
0.000100328
5.08079e-05
5.08038e-05
0.000100343
0.000145656
0.000205493
0.000104238
0.000216903
0.000104229
0.000216434
0.000145777
0.000100329
5.08028e-05
5.08005e-05
0.000100343
0.000145665
0.000205755
0.000217017
0.000104286
0.000216547
0.000104287
0.000145785
0.000100338
5.08037e-05
0.000100275
5.08067e-05
0.000145671
0.00021532
0.0001042
0.000205227
0.000145401
0.000215927
0.000104291
0.000100335
5.08002e-05
0.000100271
5.08032e-05
0.000145687
0.000205775
0.000104306
0.00021705
0.000104304
0.000216566
0.000145813
0.000100334
5.08099e-05
5.0807e-05
0.000100352
0.000145682
0.000205663
0.000217014
0.000104299
0.00021652
0.000104287
0.000145809
0.000100331
5.08066e-05
5.08036e-05
0.000100349
7.82191e-05
7.82382e-05
0.000185458
7.82577e-05
7.82823e-05
2.39194e-05
2.3922e-05
2.39219e-05
2.39198e-05
0.000185509
7.81779e-05
7.82101e-05
7.82525e-05
7.82815e-05
2.39239e-05
2.3922e-05
0.000145677
0.000215304
0.000104201
0.000205242
0.0001454
0.000215922
0.000104294
0.000100331
5.08004e-05
0.000100266
5.08034e-05
0.000100334
5.08008e-05
0.000100272
5.08036e-05
0.000145685
0.000205789
0.000217076
0.00010432
0.000216575
0.000104315
0.000145813
0.000145685
0.000205682
0.000217029
0.000104301
0.000216528
0.000104289
0.000145812
0.000100325
5.08063e-05
5.08037e-05
0.000100345
0.000100329
5.08065e-05
5.08039e-05
0.000100347
2.39188e-05
2.39215e-05
2.39184e-05
2.39211e-05
0.000185414
7.81994e-05
7.82007e-05
7.8256e-05
7.82566e-05
2.39237e-05
2.39216e-05
2.39233e-05
2.39212e-05
2.39253e-05
2.39286e-05
2.39239e-05
2.39273e-05
7.81281e-05
7.81245e-05
0.000185636
7.80346e-05
7.80313e-05
2.39343e-05
2.39291e-05
2.39329e-05
2.39278e-05
0.000185467
7.79694e-05
7.79658e-05
7.7999e-05
7.79954e-05
0.000100287
5.08115e-05
0.000100326
5.08169e-05
0.000145762
0.000104206
0.000217279
0.000206054
0.000145755
0.000104122
0.000217557
0.000145772
0.000104241
0.000217362
0.000206138
0.000145767
0.000104123
0.000217607
0.000100233
5.0829e-05
5.0819e-05
0.000100156
0.00010024
5.08282e-05
5.08183e-05
0.000100159
0.000145699
0.000206069
0.000103992
0.000217733
0.000104059
0.000217723
0.000145587
0.000145707
0.0002061
0.000103951
0.000217737
0.000104041
0.000217748
0.000145585
7.81462e-05
7.8144e-05
0.000185744
7.8022e-05
7.80124e-05
2.39247e-05
2.39277e-05
2.39332e-05
2.39278e-05
0.000185512
7.79302e-05
7.79173e-05
7.79765e-05
7.79656e-05
2.39336e-05
2.39282e-05
0.000145768
0.000104199
0.000217292
0.000206074
0.000145761
0.000104117
0.000217569
0.000100288
5.08034e-05
0.00010033
5.08086e-05
0.00014577
0.00021739
0.000104227
0.000206174
0.000145769
0.000217627
0.000104096
0.000100245
5.08259e-05
5.08162e-05
0.000100163
0.000145706
0.000206091
0.000103989
0.000217745
0.000104052
0.000217735
0.00014559
0.000100242
5.08203e-05
5.081e-05
0.000100155
0.000145704
0.000206132
0.000217741
0.000103923
0.000217759
0.000104013
0.000145576
0.000100297
5.08104e-05
0.000100338
5.08158e-05
0.000145799
0.000217411
0.00010425
0.000206181
0.000145794
0.000217668
0.000104137
0.000100294
5.08071e-05
0.000100334
5.08125e-05
0.000145735
0.000206158
0.000103943
0.000217804
0.000104035
0.000217811
0.000145587
0.000100248
5.08272e-05
5.08172e-05
0.000100156
0.000145734
0.000206161
0.000217828
0.000103957
0.000217819
0.000104056
0.000145587
0.000100246
5.08235e-05
5.08138e-05
0.000100154
7.81301e-05
7.81572e-05
0.000185783
7.80019e-05
7.80238e-05
2.39239e-05
2.39269e-05
2.3931e-05
2.39255e-05
0.000185548
7.7911e-05
7.79221e-05
7.79568e-05
7.79762e-05
2.39327e-05
2.39274e-05
0.000145798
0.000217429
0.00010425
0.000206203
0.000145797
0.000217683
0.000104136
0.000100286
5.08068e-05
0.000100329
5.0812e-05
0.000100286
5.0807e-05
0.00010033
5.08124e-05
0.00014573
0.000206202
0.000217819
0.000103946
0.000217828
0.000104045
0.000145576
0.00014573
0.000206182
0.000217831
0.000103954
0.000217826
0.000104053
0.000145578
0.000100234
5.08232e-05
5.08133e-05
0.000100142
0.000100235
5.08237e-05
5.08137e-05
0.000100142
2.39238e-05
2.39268e-05
2.39234e-05
2.39264e-05
0.000185576
7.79307e-05
7.7929e-05
7.79857e-05
7.79846e-05
2.39325e-05
2.39273e-05
2.39321e-05
2.39268e-05
2.39351e-05
2.39407e-05
2.39337e-05
2.39393e-05
7.79831e-05
7.79785e-05
0.000185701
7.81309e-05
7.81256e-05
2.39448e-05
2.39412e-05
2.39435e-05
2.39398e-05
0.000185785
7.82917e-05
7.82851e-05
7.81661e-05
7.81598e-05
0.000100148
5.08307e-05
0.000100121
5.08446e-05
0.000145518
0.000103965
0.000217682
0.000206133
0.000145513
0.000104122
0.000217713
0.000145509
0.000103917
0.000217635
0.000205871
0.000145509
0.000104081
0.000217636
0.00010017
5.08546e-05
5.08467e-05
0.000100376
0.000100167
5.08554e-05
5.08468e-05
0.000100376
0.000145542
0.000206477
0.000104399
0.000218317
0.000104158
0.000217916
0.000145938
0.000145531
0.000206259
0.000104384
0.000218245
0.000104121
0.000217834
0.000145933
7.79379e-05
7.79269e-05
0.000185486
7.81049e-05
7.80952e-05
2.39345e-05
2.39407e-05
2.39444e-05
2.39406e-05
0.000185598
7.82822e-05
7.82784e-05
7.81427e-05
7.81383e-05
2.3945e-05
2.39412e-05
0.000145515
0.000103959
0.000217686
0.000206149
0.000145516
0.000104114
0.000217707
0.000100143
5.08228e-05
0.000100119
5.08374e-05
0.000145496
0.000217624
0.000103887
0.000205806
0.000145501
0.000217609
0.00010406
0.000100174
5.08513e-05
5.08432e-05
0.000100377
0.000145536
0.000206489
0.000104385
0.000218299
0.000104147
0.000217903
0.000145928
0.000100165
5.08482e-05
5.08396e-05
0.000100372
0.000145518
0.000206146
0.000218205
0.000104356
0.000217798
0.000104101
0.000145919
0.000100126
5.08297e-05
0.000100113
5.08438e-05
0.00014547
0.0002177
0.000103919
0.000205899
0.000145501
0.000217627
0.000104057
0.000100124