/*--------------------------------*- C++ -*----------------------------------*\
| =========                 |                                                 |
| \\      /  F ield         | OpenFOAM: The Open Source CFD Toolbox           |
|  \\    /   O peration     | Version:  v1906                                 |
|   \\  /    A nd           | Web:      www.OpenFOAM.com                      |
|    \\/     M anipulation  |                                                 |
\*---------------------------------------------------------------------------*/
FoamFile
{
    version     2.0;
    format      ascii;
    class       volScalarField;
    location    "1000";
    object      p;
}
// * * * * * * * * * * * * * * * * * * * * * * * * * * * * * * * * * * * * * //

dimensions      [0 2 -2 0 0 0 0];


internalField   nonuniform List<scalar> 
42616
(
0.00360467
0.00360499
0.003605
0.00360805
0.00354931
0.00354973
0.00354973
0.00355272
0.00349856
0.00349853
0.00349853
0.00350128
0.00344617
0.00344619
0.00344619
0.00344896
0.00339482
0.00339483
0.00339483
0.00339758
0.00334485
0.00334486
0.00334486
0.00334758
0.00329632
0.00329633
0.00329633
0.00329902
0.00324909
0.00324911
0.00324911
0.00325176
0.00320296
0.00320298
0.00320298
0.0032056
0.00315773
0.00315775
0.00315775
0.00316034
0.00311322
0.00311324
0.00311324
0.00311581
0.00306931
0.00306933
0.00306933
0.00307187
0.00302592
0.00302594
0.00302594
0.00302845
0.00298299
0.002983
0.002983
0.00298551
0.00294049
0.0029405
0.0029405
0.002943
0.0028984
0.00289841
0.0028984
0.0029009
0.0028567
0.00285669
0.00285669
0.00285917
0.00281535
0.00281534
0.00281534
0.00281781
0.00277433
0.00277432
0.00277432
0.00277678
0.00273363
0.00273361
0.00273361
0.00273607
0.00269322
0.00269319
0.00269319
0.00269564
0.00361807
0.0036183
0.0036183
0.00361807
0.0036183
0.0036183
0.00361906
0.00361906
0.00361906
0.00361906
0.0036183
0.0036183
0.00361807
0.0036183
0.0036183
0.00361807
0.00360805
0.00355929
0.00360499
0.00360499
0.00356157
0.00356157
0.00360805
0.00355929
0.003605
0.00360499
0.00356157
0.00356157
0.00360499
0.00356157
0.00356157
0.00360805
0.00355929
0.003605
0.00356157
0.00356157
0.00355929
0.00355272
0.00350821
0.00354973
0.00354973
0.00351165
0.00351166
0.00355272
0.00350821
0.00354973
0.00354973
0.00351165
0.00351165
0.00354973
0.00351165
0.00351165
0.00355272
0.00350821
0.00354973
0.00351165
0.00351165
0.00350821
0.00350128
0.00345584
0.00349853
0.00349853
0.0034592
0.0034592
0.00350128
0.00345584
0.00349853
0.00349853
0.0034592
0.0034592
0.00349853
0.0034592
0.0034592
0.00350128
0.00345584
0.00349853
0.0034592
0.0034592
0.00345584
0.00344896
0.00340429
0.00344619
0.00344619
0.00340755
0.00340755
0.00344896
0.00340429
0.00344619
0.00344619
0.00340755
0.00340755
0.00344619
0.00340755
0.00340755
0.00344896
0.00340429
0.00344619
0.00340755
0.00340755
0.00340429
0.00339758
0.00335408
0.00339483
0.00339483
0.00335721
0.00335721
0.00339758
0.00335408
0.00339483
0.00339483
0.00335721
0.00335721
0.00339483
0.00335721
0.00335721
0.00339758
0.00335408
0.00339483
0.00335721
0.00335721
0.00335407
0.00334758
0.00330532
0.00334486
0.00334486
0.00330834
0.00330834
0.00334758
0.00330532
0.00334486
0.00334486
0.00330834
0.00330834
0.00334486
0.00330834
0.00330834
0.00334758
0.00330532
0.00334486
0.00330834
0.00330834
0.00330532
0.00329902
0.00325789
0.00329634
0.00329634
0.00326081
0.00326081
0.00329902
0.00325789
0.00329634
0.00329634
0.00326081
0.00326081
0.00329634
0.00326081
0.00326081
0.00329902
0.00325789
0.00329633
0.00326081
0.00326081
0.00325789
0.00325176
0.00321159
0.00324911
0.00324911
0.00321442
0.00321442
0.00325176
0.00321159
0.00324911
0.00324911
0.00321442
0.00321442
0.00324911
0.00321442
0.00321443
0.00325176
0.0032116
0.00324911
0.00321442
0.00321443
0.00321159
0.0032056
0.00316622
0.00320298
0.00320298
0.00316899
0.00316899
0.0032056
0.00316622
0.00320298
0.00320299
0.00316899
0.00316898
0.00320298
0.00316899
0.00316899
0.00320561
0.00316622
0.00320298
0.00316899
0.00316899
0.00316622
0.00316034
0.00312159
0.00315775
0.00315775
0.00312431
0.00312432
0.00316034
0.00312159
0.00315775
0.00315775
0.00312431
0.00312432
0.00315775
0.00312432
0.00312431
0.00316035
0.00312159
0.00315775
0.00312432
0.00312431
0.00312159
0.00311581
0.00307758
0.00311324
0.00311324
0.00308025
0.00308026
0.00311581
0.00307757
0.00311324
0.00311324
0.00308025
0.00308026
0.00311325
0.00308026
0.00308026
0.00311581
0.00307757
0.00311325
0.00308026
0.00308026
0.00307757
0.00307187
0.00303408
0.00306934
0.00306933
0.00303674
0.00303673
0.00307187
0.00303408
0.00306934
0.00306933
0.00303674
0.00303674
0.00306933
0.00303674
0.00303674
0.00307187
0.00303408
0.00306933
0.00303674
0.00303674
0.00303408
0.00302845
0.00299107
0.00302594
0.00302594
0.0029937
0.0029937
0.00302845
0.00299107
0.00302593
0.00302594
0.0029937
0.00299369
0.00302593
0.0029937
0.0029937
0.00302845
0.00299107
0.00302593
0.00299369
0.0029937
0.00299107
0.00298551
0.00294852
0.002983
0.002983
0.00295109
0.00295109
0.00298551
0.00294852
0.002983
0.002983
0.00295109
0.00295109
0.00298301
0.00295109
0.00295109
0.00298551
0.00294852
0.00298301
0.00295109
0.00295109
0.00294852
0.002943
0.00290636
0.0029405
0.0029405
0.00290889
0.00290889
0.002943
0.00290636
0.0029405
0.0029405
0.00290889
0.00290889
0.0029405
0.00290889
0.00290889
0.002943
0.00290636
0.0029405
0.00290889
0.00290889
0.00290636
0.00290089
0.00286459
0.0028984
0.0028984
0.00286708
0.00286708
0.00290089
0.00286459
0.0028984
0.0028984
0.00286708
0.00286708
0.00289841
0.00286708
0.00286708
0.00290089
0.00286459
0.00289841
0.00286708
0.00286709
0.00286459
0.00285917
0.00282318
0.00285669
0.00285669
0.00282565
0.00282565
0.00285917
0.00282318
0.00285669
0.00285669
0.00282565
0.00282565
0.00285669
0.00282565
0.00282564
0.00285917
0.00282318
0.00285669
0.00282565
0.00282564
0.00282318
0.00281781
0.00278211
0.00281534
0.00281534
0.00278455
0.00278454
0.00281781
0.00278211
0.00281534
0.00281534
0.00278455
0.00278454
0.00281534
0.00278454
0.00278455
0.00281781
0.00278211
0.00281534
0.00278454
0.00278455
0.00278211
0.00277678
0.00274136
0.00277432
0.00277432
0.00274376
0.00274376
0.00277678
0.00274136
0.00277432
0.00277432
0.00274376
0.00274376
0.00277432
0.00274376
0.00274376
0.00277678
0.00274136
0.00277432
0.00274376
0.00274376
0.00274136
0.00273607
0.0027009
0.00273361
0.00273361
0.00270327
0.00270327
0.00273607
0.0027009
0.00273361
0.00273361
0.00270327
0.00270327
0.00273361
0.00270327
0.00270327
0.00273607
0.0027009
0.00273361
0.00270327
0.00270327
0.0027009
0.00269564
0.00269319
0.00269319
0.00269564
0.00269319
0.00269319
0.00269319
0.00269564
0.00269319
0.00362645
0.00363621
0.00363101
0.00363101
0.00365339
0.00364017
0.00366878
0.00363422
0.00365339
0.00364018
0.00363422
0.00366878
0.00364475
0.00367252
0.00367252
0.00358181
0.00360095
0.00361014
0.00357389
0.00357463
0.0035774
0.00358179
0.00360093
0.00361014
0.00357387
0.00360467
0.00360467
0.00360467
0.00356126
0.00356126
0.00356126
0.00356126
0.00357931
0.00360513
0.00360507
0.00358813
0.00360816
0.00357821
0.00358902
0.00357473
0.00357739
0.00357931
0.00360507
0.00360515
0.00358814
0.00360815
0.00358902
0.00357821
0.00361101
0.00361099
0.00358254
0.00357785
0.00357784
0.00353518
0.00355445
0.00355582
0.00353371
0.00355336
0.00353327
0.00353517
0.00355445
0.00355582
0.00353371
0.00354931
0.00354931
0.00354931
0.00351172
0.00351172
0.00351172
0.00351172
0.00353376
0.00355453
0.00354931
0.00353744
0.00355332
0.0035343
0.00353717
0.00355336
0.00353326
0.00353376
0.00354931
0.00355453
0.00353744
0.00355332
0.00353717
0.0035343
0.00355555
0.00355555
0.00353399
0.00353463
0.00353464
0.00348291
0.00350172
0.00350279
0.00348189
0.00350135
0.00348161
0.00348291
0.00350172
0.00350279
0.00348189
0.00349856
0.00349856
0.00349856
0.00345918
0.00345918
0.00345918
0.00345918
0.00348201
0.00350212
0.00349843
0.00348539
0.00350156
0.00348238
0.0034853
0.00350135
0.00348161
0.00348201
0.00349843
0.00350212
0.00348539
0.00350155
0.0034853
0.00348237
0.00350236
0.00350236
0.003482
0.00348244
0.00348244
0.00343039
0.00344904
0.0034499
0.00342962
0.00344884
0.00342944
0.00343039
0.00344904
0.0034499
0.00342962
0.00344617
0.00344617
0.00344617
0.00340754
0.00340754
0.00340754
0.00340754
0.00342988
0.00344945
0.00344614
0.00343324
0.00344917
0.00343006
0.0034332
0.00344884
0.00342944
0.00342988
0.00344614
0.00344945
0.00343324
0.00344917
0.0034332
0.00343006
0.00344949
0.00344949
0.00342992
0.00343
0.00343
0.00337919
0.00339755
0.00339818
0.00337864
0.0033974
0.0033785
0.00337919
0.00339755
0.00339818
0.00337863
0.00339482
0.00339482
0.00339482
0.0033572
0.0033572
0.0033572
0.0033572
0.00337892
0.0033979
0.0033948
0.0033822
0.00339773
0.00337903
0.00338217
0.0033974
0.0033785
0.00337892
0.0033948
0.0033979
0.0033822
0.00339773
0.00338217
0.00337903
0.00339788
0.00339788
0.003379
0.00337894
0.00337894
0.00332955
0.0033475
0.00334795
0.00332915
0.00334739
0.00332903
0.00332955
0.00334749
0.00334795
0.00332915
0.00334485
0.00334485
0.00334485
0.00330832
0.00330832
0.00330832
0.00330832
0.00332943
0.00334779
0.00334483
0.0033326
0.00334768
0.0033295
0.00333257
0.00334738
0.00332904
0.00332943
0.00334483
0.00334779
0.0033326
0.00334768
0.00333257
0.0033295
0.00334778
0.00334778
0.00332952
0.00332941
0.00332941
0.00328137
0.00329893
0.00329924
0.0032811
0.00329882
0.00328099
0.00328137
0.00329892
0.00329924
0.00328109
0.00329632
0.00329632
0.00329632
0.00326079
0.00326079
0.00326079
0.00326079
0.00328135
0.00329918
0.0032963
0.00328442
0.00329909
0.00328141
0.00328438
0.00329882
0.003281
0.00328135
0.0032963
0.00329919
0.00328442
0.00329909
0.00328438
0.00328141
0.00329918
0.00329918
0.00328145
0.00328133
0.00328133
0.00323448
0.00325166
0.0032519
0.00323428
0.00325157
0.00323419
0.00323448
0.00325167
0.0032519
0.00323428
0.00324909
0.00324909
0.00324909
0.0032144
0.0032144
0.0032144
0.0032144
0.00323452
0.0032519
0.00324908
0.00323748
0.00325182
0.00323457
0.00323745
0.00325157
0.00323419
0.00323452
0.00324908
0.0032519
0.00323749
0.00325182
0.00323745
0.00323457
0.00325189
0.0032519
0.00323461
0.00323449
0.00323449
0.00318864
0.00320551
0.00320569
0.00318849
0.00320543
0.00318839
0.00318864
0.00320551
0.00320569
0.00318848
0.00320296
0.00320296
0.00320296
0.00316897
0.00316896
0.00316896
0.00316896
0.00318872
0.00320573
0.00320295
0.0031916
0.00320565
0.00318876
0.00319157
0.00320543
0.0031884
0.00318872
0.00320295
0.00320573
0.0031916
0.00320565
0.00319157
0.00318876
0.00320573
0.00320573
0.0031888
0.00318868
0.00318868
0.00314366
0.00316026
0.00316041
0.00314352
0.00316017
0.00314343
0.00314366
0.00316026
0.0031604
0.00314352
0.00315773
0.00315773
0.00315773
0.00312429
0.00312429
0.00312429
0.00312429
0.00314376
0.00316046
0.00315772
0.00314657
0.0031604
0.0031438
0.00314653
0.00316018
0.00314344
0.00314376
0.00315772
0.00316046
0.00314657
0.0031604
0.00314653
0.0031438
0.00316045
0.00316045
0.00314382
0.0031437
0.0031437
0.00309935
0.00311573
0.00311586
0.00309922
0.00311564
0.00309914
0.00309935
0.00311573
0.00311586
0.00309922
0.00311322
0.00311322
0.00311322
0.00308024
0.00308024
0.00308024
0.00308024
0.00309947
0.00311592
0.00311322
0.00310222
0.00311587
0.0030995
0.00310219
0.00311565
0.00309914
0.00309947
0.00311322
0.00311592
0.00310222
0.00311587
0.00310219
0.0030995
0.00311591
0.00311591
0.00309951
0.00309938
0.00309938
0.00305561
0.00307179
0.00307192
0.00305548
0.00307171
0.00305541
0.00305561
0.00307179
0.00307192
0.00305549
0.00306931
0.00306931
0.00306931
0.00303672
0.00303672
0.00303672
0.00303672
0.00305575
0.00307198
0.00306931
0.00305844
0.00307195
0.00305576
0.00305842
0.00307171
0.00305541
0.00305575
0.00306931
0.00307198
0.00305844
0.00307195
0.00305842
0.00305576
0.00307195
0.00307195
0.00305577
0.00305563
0.00305563
0.00301236
0.00302836
0.00302849
0.00301224
0.0030283
0.00301217
0.00301236
0.00302837
0.00302849
0.00301224
0.00302592
0.00302592
0.00302592
0.00299368
0.00299368
0.00299368
0.00299368
0.00301253
0.00302855
0.00302592
0.00301516
0.00302854
0.00301251
0.00301515
0.00302829
0.00301217
0.00301253
0.00302592
0.00302855
0.00301515
0.00302854
0.00301515
0.00301251
0.00302851
0.00302851
0.00301251
0.00301238
0.00301238
0.00296958
0.00298541
0.00298553
0.00296945
0.00298534
0.00296938
0.00296958
0.00298541
0.00298553
0.00296945
0.00298299
0.00298299
0.00298299
0.00295108
0.00295108
0.00295108
0.00295108
0.00296976
0.00298558
0.00298299
0.00297234
0.0029856
0.00296972
0.00297233
0.00298534
0.00296938
0.00296976
0.002983
0.00298558
0.00297234
0.00298561
0.00297233
0.00296972
0.00298554
0.00298554
0.00296975
0.00296957
0.00296957
0.0029272
0.00294288
0.00294301
0.00292708
0.00294282
0.00292703
0.0029272
0.00294288
0.00294301
0.00292708
0.00294049
0.00294049
0.00294049
0.00290889
0.00290889
0.00290889
0.00290889
0.00292742
0.00294305
0.0029405
0.00292993
0.0029431
0.00292735
0.00292994
0.00294282
0.00292702
0.00292742
0.0029405
0.00294305
0.00292994
0.00294309
0.00292994
0.00292734
0.002943
0.00294301
0.00292739
0.00292719
0.00292719
0.00288523
0.00290077
0.00290089
0.00288511
0.00290071
0.00288506
0.00288523
0.00290077
0.00290089
0.00288511
0.0028984
0.0028984
0.0028984
0.00286709
0.00286709
0.00286709
0.00286709
0.00288547
0.00290093
0.00289841
0.00288794
0.002901
0.00288536
0.00288795
0.00290071
0.00288506
0.00288546
0.00289841
0.00290093
0.00288794
0.002901
0.00288795
0.00288536
0.00290088
0.00290088
0.00288542
0.00288521
0.00288521
0.00284363
0.00285903
0.00285915
0.00284352
0.00285899
0.00284348
0.00284363
0.00285903
0.00285915
0.00284352
0.0028567
0.0028567
0.00285669
0.00282565
0.00282565
0.00282565
0.00282565
0.00284389
0.00285918
0.00285671
0.00284632
0.00285928
0.00284376
0.00284634
0.00285899
0.00284347
0.00284389
0.00285671
0.00285918
0.00284632
0.00285927
0.00284634
0.00284376
0.00285914
0.00285914
0.00284384
0.00284361
0.00284361
0.00280239
0.00281767
0.00281778
0.00280228
0.00281763
0.00280224
0.00280239
0.00281767
0.00281777
0.00280228
0.00281535
0.00281535
0.00281535
0.00278456
0.00278456
0.00278456
0.00278456
0.00280265
0.0028178
0.00281537
0.00280506
0.00281791
0.00280251
0.00280508
0.00281763
0.00280224
0.00280265
0.00281537
0.0028178
0.00280506
0.00281791
0.00280508
0.00280251
0.00281776
0.00281776
0.00280261
0.00280236
0.00280236
0.00276147
0.00277664
0.00277674
0.00276137
0.00277661
0.00276134
0.00276147
0.00277664
0.00277674
0.00276137
0.00277433
0.00277433
0.00277433
0.00274378
0.00274378
0.00274378
0.00274378
0.00276175
0.00277675
0.00277435
0.00276411
0.00277688
0.00276158
0.00276414
0.0027766
0.00276134
0.00276175
0.00277435
0.00277675
0.00276412
0.00277688
0.00276414
0.00276158
0.00277672
0.00277672
0.0027617
0.00276144
0.00276144
0.00272085
0.00273592
0.00273601
0.00272076
0.00273588
0.00272074
0.00272085
0.00273592
0.00273601
0.00272076
0.00273363
0.00273363
0.00273363
0.0027033
0.0027033
0.0027033
0.0027033
0.00272113
0.00273602
0.00273364
0.00272348
0.00273615
0.00272096
0.00272351
0.00273588
0.00272073
0.00272113
0.00273364
0.00273602
0.00272347
0.00273615
0.00272351
0.00272096
0.00273599
0.00273599
0.00272109
0.00272082
0.00272082
0.00268052
0.00269549
0.00269558
0.00268043
0.00269545
0.00268042
0.00269549
0.00269558
0.00268043
0.00269322
0.00269322
0.00269323
0.00268079
0.00269558
0.00269322
0.00268313
0.00269571
0.00268062
0.00268316
0.00269546
0.00268079
0.00269322
0.00269558
0.00269571
0.00268316
0.00269555
0.00269555
0.00268077
0.00268049
0.00268049
0.00364474
0.00367251
0.00367253
0.00363688
0.00367205
0.00363685
0.00367207
0.0036416
0.00362866
0.00362866
0.00366732
0.00366734
0.00365338
0.00364017
0.00366877
0.00363422
0.00365338
0.00364017
0.00366877
0.00363422
0.0036579
0.00362895
0.00366918
0.00362375
0.0036579
0.00362893
0.00366918
0.00362376
0.00364898
0.0036377
0.00362012
0.00362052
0.00366405
0.00363266
0.00362075
0.00364898
0.0036377
0.00362012
0.00362052
0.00366405
0.00363266
0.00362075
0.00364474
0.00367251
0.00367252
0.00363684
0.00367205
0.0036416
0.00362864
0.00362867
0.00366733
0.00366733
0.00363687
0.00367205
0.00365339
0.00364018
0.00366879
0.00363422
0.00365339
0.00364018
0.00363422
0.00366879
0.00365792
0.00362893
0.00366919
0.00362376
0.003649
0.0036377
0.00362012
0.00362053
0.00366406
0.00363266
0.00362076
0.00365792
0.00362895
0.00366919
0.00362376
0.00364899
0.0036377
0.00362053
0.00362012
0.00363266
0.00366406
0.00362075
0.00362645
0.00363621
0.00363101
0.00363101
0.00362645
0.00363622
0.00363101
0.00363101
0.00362645
0.00363621
0.00363101
0.00363101
0.00362521
0.0036343
0.00361718
0.00361718
0.00362958
0.00362958
0.00361535
0.00362521
0.00363429
0.00361718
0.00361718
0.00362958
0.00362958
0.00361535
0.00362521
0.0036343
0.00361718
0.00361718
0.00362958
0.00362958
0.00361536
0.00362521
0.0036343
0.00361718
0.00361718
0.00362958
0.00362958
0.00361536
0.00365339
0.00364018
0.00363422
0.00366878
0.00364899
0.0036377
0.00362012
0.00362052
0.00366405
0.00363266
0.00362075
0.00365792
0.00362894
0.00366919
0.00362376
0.00364899
0.0036377
0.00362053
0.00362012
0.00363266
0.00366405
0.00362075
0.00365792
0.00362894
0.00366919
0.00362375
0.00364475
0.00367253
0.00367252
0.00363682
0.00367205
0.0036416
0.00362866
0.00362866
0.00366733
0.00366734
0.00363682
0.00367206
0.00365339
0.00364018
0.00363422
0.00366878
0.003649
0.0036377
0.00362053
0.00362013
0.00363266
0.00366406
0.00362075
0.003649
0.0036377
0.00362053
0.00362012
0.00363266
0.00366406
0.00362076
0.00365792
0.00362894
0.00366919
0.00362375
0.00365792
0.00362895
0.00366919
0.00362376
0.0036416
0.00362866
0.00362866
0.00366733
0.00366733
0.00363682
0.00367205
0.00363685
0.00367206
0.00357462
0.00357739
0.00357472
0.00357737
0.00361097
0.003611
0.00358255
0.00357784
0.00357785
0.00356014
0.00357703
0.00356014
0.00357704
0.00357589
0.00356274
0.00356274
0.003576
0.003576
0.0035818
0.00360094
0.00361015
0.00357389
0.00357933
0.00360513
0.00360507
0.00358813
0.00360815
0.00357822
0.00358902
0.00357932
0.00360513
0.00360507
0.00358813
0.00360816
0.00357822
0.00358902
0.00357726
0.00356187
0.00357478
0.00356261
0.00357726
0.00356187
0.00357479
0.00356261
0.0035743
0.00357383
0.00356155
0.0035613
0.00357537
0.00357424
0.00355989
0.0035743
0.00357383
0.00356155
0.0035613
0.00357538
0.00357424
0.00355989
0.00361096
0.00361101
0.00358256
0.00357785
0.00357785
0.00357477
0.00357737
0.00356013
0.00357704
0.00357589
0.00356274
0.00356274
0.003576
0.00357599
0.00356013
0.00357705
0.00357931
0.00360514
0.00360507
0.00358814
0.00360816
0.00357821
0.00358902
0.00358179
0.00360094
0.00361013
0.00357389
0.00357932
0.00360507
0.00360514
0.00358813
0.00360816
0.00358902
0.00357821
0.00357725
0.00356187
0.00357478
0.00356262
0.00357429
0.00357383
0.00356155
0.0035613
0.00357537
0.00357424
0.00355989
0.00357726
0.00356186
0.0035748
0.00356261
0.0035743
0.00357383
0.0035613
0.00356155
0.00357424
0.00357537
0.00355989
0.00358179
0.00360094
0.00361013
0.00357388
0.00357932
0.00360507
0.00360514
0.00358813
0.00360815
0.00358902
0.00357821
0.00358179
0.00360096
0.00361013
0.00357388
0.00357429
0.00357383
0.00356155
0.0035613
0.00357537
0.00357424
0.00355989
0.00357725
0.00356186
0.00357478
0.00356261
0.00357429
0.00357383
0.0035613
0.00356155
0.00357424
0.00357537
0.00355989
0.00357725
0.00356187
0.00357477
0.00356261
0.003611
0.00361101
0.00358254
0.00357785
0.00357784
0.00357474
0.00357737
0.00356013
0.00357706
0.00357589
0.00356274
0.00356274
0.003576
0.00357599
0.00356014
0.00357702
0.00357931
0.00360507
0.00360513
0.00358814
0.00360816
0.00358902
0.00357821
0.00358179
0.00360095
0.00361012
0.00357387
0.00358179
0.00360095
0.00361013
0.00357388
0.00357429
0.00357383
0.0035613
0.00356155
0.00357424
0.00357537
0.00355989
0.00357429
0.00357383
0.0035613
0.00356155
0.00357423
0.00357537
0.00355989
0.00357725
0.00356186
0.00357478
0.00356261
0.00357725
0.00356186
0.00357478
0.00356261
0.00357476
0.00357737
0.00357475
0.00357737
0.00357588
0.00356274
0.00356274
0.00357599
0.00357599
0.00356014
0.00357702
0.00356012
0.00357704
0.00355337
0.00353327
0.00355336
0.00353327
0.00355555
0.00355555
0.00353399
0.00353464
0.00353464
0.00350788
0.00352684
0.00350788
0.00352684
0.00352719
0.00350895
0.00350896
0.00352818
0.00352817
0.00353518
0.00355445
0.00355582
0.00353371
0.00353376
0.00355453
0.00354931
0.00353744
0.00355332
0.0035343
0.00353717
0.00353376
0.00355453
0.00354931
0.00353744
0.00355332
0.0035343
0.00353717
0.00352865
0.00350829
0.00352734
0.00350939
0.00352865
0.00350829
0.00352734
0.00350939
0.00352723
0.00352468
0.00350876
0.00351156
0.00352785
0.00352454
0.00350822
0.00352723
0.00352468
0.00350876
0.00351156
0.00352786
0.00352454
0.00350822
0.00355555
0.00355555
0.00353399
0.00353464
0.00353464
0.00355337
0.00353328
0.00350788
0.00352684
0.00352719
0.00350895
0.00350896
0.00352818
0.00352818
0.00350788
0.00352684
0.00353376
0.00355453
0.00354931
0.00353744
0.00355332
0.0035343
0.00353717
0.00353517
0.00355445
0.00355581
0.00353371
0.00353376
0.00354931
0.00355453
0.00353744
0.00355332
0.00353717
0.0035343
0.00352865
0.00350829
0.00352733
0.00350939
0.00352723
0.00352468
0.00350876
0.00351156
0.00352785
0.00352454
0.00350822
0.00352865
0.00350829
0.00352733
0.00350939
0.00352723
0.00352468
0.00351156
0.00350876
0.00352454
0.00352785
0.00350822
0.00353518
0.00355445
0.00355582
0.00353372
0.00353376
0.00354931
0.00355453
0.00353744
0.00355332
0.00353717
0.0035343
0.00353518
0.00355445
0.00355582
0.00353371
0.00352723
0.00352468
0.00350876
0.00351156
0.00352785
0.00352454
0.00350822
0.00352865
0.00350829
0.00352734
0.00350939
0.00352723
0.00352468
0.00351156
0.00350876
0.00352454
0.00352785
0.00350822
0.00352865
0.00350829
0.00352733
0.00350939
0.00355555
0.00355555
0.00353399
0.00353463
0.00353464
0.00355336
0.00353327
0.00350788
0.00352684
0.00352719
0.00350896
0.00350896
0.00352817
0.00352818
0.00350788
0.00352684
0.00353376
0.00354931
0.00355453
0.00353744
0.00355332
0.00353717
0.0035343
0.00353518
0.00355445
0.00355581
0.00353371
0.00353518
0.00355445
0.00355581
0.00353371
0.00352723
0.00352468
0.00351156
0.00350876
0.00352454
0.00352785
0.00350822
0.00352723
0.00352468
0.00351156
0.00350876
0.00352454
0.00352785
0.00350822
0.00352865
0.00350829
0.00352734
0.00350939
0.00352865
0.00350829
0.00352734
0.00350939
0.00355336
0.00353327
0.00355335
0.00353327
0.00352719
0.00350896
0.00350896
0.00352817
0.00352818
0.00350788
0.00352684
0.00350788
0.00352684
0.00350135
0.00348161
0.00350135
0.00348161
0.00350236
0.00350236
0.00348201
0.00348244
0.00348244
0.00345538
0.00347498
0.00345538
0.00347498
0.00347506
0.00345605
0.00345605
0.00347578
0.00347578
0.00348291
0.00350172
0.00350279
0.00348189
0.00348201
0.00350212
0.00349843
0.00348539
0.00350156
0.00348238
0.0034853
0.00348201
0.00350212
0.00349843
0.00348539
0.00350156
0.00348238
0.0034853
0.00347624
0.0034556
0.00347524
0.00345649
0.00347624
0.0034556
0.00347524
0.00345649
0.00347529
0.00347227
0.00345607
0.00345914
0.00347567
0.00347219
0.00345582
0.00347529
0.00347227
0.00345607
0.00345914
0.00347567
0.00347219
0.00345582
0.00350236
0.00350236
0.003482
0.00348244
0.00348244
0.00350135
0.00348161
0.00345538
0.00347498
0.00347506
0.00345605
0.00345605
0.00347578
0.00347578
0.00345538
0.00347498
0.00348201
0.00350212
0.00349843
0.00348539
0.00350156
0.00348238
0.0034853
0.00348291
0.00350172
0.00350279
0.00348189
0.00348201
0.00349843
0.00350212
0.00348539
0.00350155
0.0034853
0.00348238
0.00347624
0.0034556
0.00347524
0.00345649
0.00347529
0.00347227
0.00345607
0.00345914
0.00347567
0.00347219
0.00345582
0.00347624
0.0034556
0.00347524
0.00345649
0.00347529
0.00347227
0.00345914
0.00345607
0.00347219
0.00347567
0.00345582
0.00348291
0.00350172
0.00350279
0.00348189
0.00348201
0.00349843
0.00350212
0.00348539
0.00350156
0.0034853
0.00348238
0.00348291
0.00350172
0.00350279
0.00348189
0.00347529
0.00347227
0.00345607
0.00345914
0.00347567
0.00347219
0.00345582
0.00347624
0.0034556
0.00347524
0.00345649
0.00347529
0.00347227
0.00345914
0.00345607
0.00347219
0.00347567
0.00345582
0.00347624
0.0034556
0.00347524
0.00345649
0.00350236
0.00350236
0.00348201
0.00348244
0.00348244
0.00350135
0.00348161
0.00345538
0.00347498
0.00347506
0.00345605
0.00345605
0.00347578
0.00347578
0.00345538
0.00347498
0.00348201
0.00349843
0.00350212
0.00348539
0.00350155
0.0034853
0.00348238
0.00348291
0.00350172
0.00350279
0.00348189
0.00348291
0.00350172
0.00350279
0.00348189
0.00347529
0.00347227
0.00345914
0.00345607
0.00347219
0.00347567
0.00345582
0.00347529
0.00347227
0.00345914
0.00345607
0.00347219
0.00347567
0.00345582
0.00347624
0.0034556
0.00347524
0.00345649
0.00347624
0.0034556
0.00347524
0.00345649
0.00350135
0.00348161
0.00350135
0.00348161
0.00347506
0.00345605
0.00345605
0.00347578
0.00347578
0.00345538
0.00347498
0.00345538
0.00347498
0.00344884
0.00342944
0.00344884
0.00342944
0.00344949
0.00344949
0.00342992
0.00343
0.00343
0.00340379
0.00342296
0.00340379
0.00342296
0.00342312
0.00340428
0.00340428
0.00342351
0.00342351
0.00343039
0.00344904
0.0034499
0.00342962
0.00342988
0.00344945
0.00344614
0.00343324
0.00344917
0.00343006
0.0034332
0.00342988
0.00344945
0.00344614
0.00343324
0.00344917
0.00343006
0.0034332
0.00342387
0.00340394
0.00342313
0.0034046
0.00342387
0.00340395
0.00342313
0.0034046
0.00342329
0.00342036
0.00340436
0.00340752
0.00342351
0.00342032
0.00340423
0.00342329
0.00342036
0.00340436
0.00340752
0.00342351
0.00342032
0.00340423
0.00344949
0.00344949
0.00342992
0.00343
0.00343
0.00344884
0.00342944
0.00340379
0.00342296
0.00342312
0.00340428
0.00340428
0.00342351
0.00342351
0.00340379
0.00342296
0.00342988
0.00344945
0.00344614
0.00343324
0.00344917
0.00343006
0.0034332
0.00343039
0.00344904
0.0034499
0.00342962
0.00342988
0.00344614
0.00344945
0.00343324
0.00344917
0.0034332
0.00343006
0.00342387
0.00340394
0.00342313
0.0034046
0.00342329
0.00342036
0.00340436
0.00340752
0.00342351
0.00342032
0.00340423
0.00342387
0.00340394
0.00342313
0.0034046
0.00342329
0.00342036
0.00340752
0.00340436
0.00342032
0.00342351
0.00340423
0.00343039
0.00344904
0.0034499
0.00342962
0.00342988
0.00344614
0.00344945
0.00343324
0.00344917
0.0034332
0.00343006
0.00343039
0.00344904
0.0034499
0.00342962
0.00342329
0.00342036
0.00340436
0.00340752
0.00342351
0.00342032
0.00340423
0.00342387
0.00340394
0.00342313
0.0034046
0.00342329
0.00342036
0.00340752
0.00340436
0.00342032
0.00342351
0.00340423
0.00342387
0.00340394
0.00342313
0.0034046
0.00344949
0.00344949
0.00342992
0.00343
0.00343
0.00344884
0.00342944
0.00340379
0.00342296
0.00342312
0.00340428
0.00340428
0.00342351
0.00342351
0.00340379
0.00342296
0.00342988
0.00344614
0.00344945
0.00343324
0.00344917
0.0034332
0.00343006
0.00343039
0.00344904
0.0034499
0.00342962
0.00343039
0.00344904
0.0034499
0.00342962
0.00342329
0.00342036
0.00340752
0.00340436
0.00342032
0.00342351
0.00340423
0.00342329
0.00342036
0.00340752
0.00340436
0.00342032
0.00342351
0.00340423
0.00342387
0.00340394
0.00342313
0.0034046
0.00342387
0.00340394
0.00342313
0.0034046
0.00344884
0.00342944
0.00344884
0.00342944
0.00342312
0.00340428
0.00340428
0.00342351
0.00342351
0.00340379
0.00342296
0.00340379
0.00342296
0.0033974
0.0033785
0.0033974
0.0033785
0.00339788
0.00339788
0.003379
0.00337894
0.00337894
0.00335358
0.0033722
0.00335358
0.0033722
0.0033724
0.00335398
0.00335399
0.00337264
0.00337264
0.00337919
0.00339755
0.00339818
0.00337864
0.00337892
0.0033979
0.0033948
0.0033822
0.00339773
0.00337903
0.00338217
0.00337892
0.0033979
0.0033948
0.0033822
0.00339773
0.00337903
0.00338217
0.00337287
0.0033537
0.00337233
0.00335418
0.00337287
0.00335371
0.00337233
0.00335418
0.00337252
0.00336966
0.00335407
0.00335718
0.00337266
0.00336963
0.00335399
0.00337252
0.00336966
0.00335407
0.00335718
0.00337265
0.00336963
0.00335399
0.00339789
0.00339788
0.003379
0.00337894
0.00337894
0.0033974
0.0033785
0.00335359
0.0033722
0.00337239
0.00335399
0.00335398
0.00337264
0.00337264
0.00335358
0.0033722
0.00337892
0.0033979
0.0033948
0.0033822
0.00339773
0.00337903
0.00338217
0.00337919
0.00339755
0.00339818
0.00337864
0.00337892
0.0033948
0.0033979
0.0033822
0.00339773
0.00338217
0.00337903
0.00337287
0.0033537
0.00337233
0.00335418
0.00337252
0.00336966
0.00335407
0.00335719
0.00337265
0.00336963
0.00335399
0.00337287
0.0033537
0.00337233
0.00335418
0.00337252
0.00336966
0.00335718
0.00335407
0.00336963
0.00337266
0.00335399
0.00337919
0.00339755
0.00339818
0.00337864
0.00337892
0.0033948
0.0033979
0.0033822
0.00339773
0.00338217
0.00337903
0.00337919
0.00339755
0.00339818
0.00337864
0.00337252
0.00336966
0.00335407
0.00335718
0.00337265
0.00336963
0.00335399
0.00337287
0.0033537
0.00337233
0.00335418
0.00337252
0.00336966
0.00335718
0.00335407
0.00336963
0.00337265
0.00335399
0.00337287
0.0033537
0.00337233
0.00335418
0.00339788
0.00339788
0.003379
0.00337894
0.00337894
0.0033974
0.0033785
0.00335358
0.0033722
0.00337239
0.00335398
0.00335398
0.00337264
0.00337264
0.00335358
0.0033722
0.00337892
0.0033948
0.0033979
0.0033822
0.00339773
0.00338217
0.00337903
0.00337919
0.00339755
0.00339818
0.00337863
0.00337919
0.00339754
0.00339818
0.00337864
0.00337252
0.00336966
0.00335718
0.00335407
0.00336963
0.00337265
0.00335399
0.00337252
0.00336966
0.00335718
0.00335407
0.00336963
0.00337265
0.00335399
0.00337287
0.0033537
0.00337233
0.00335418
0.00337287
0.0033537
0.00337233
0.00335418
0.0033974
0.0033785
0.0033974
0.0033785
0.00337239
0.00335398
0.00335398
0.00337264
0.00337264
0.00335358
0.0033722
0.00335358
0.0033722
0.00334738
0.00332904
0.00334738
0.00332904
0.00334778
0.00334778
0.00332952
0.00332941
0.00332941
0.00330485
0.00332292
0.00330485
0.00332292
0.00332312
0.0033052
0.0033052
0.0033233
0.0033233
0.00332955
0.0033475
0.00334795
0.00332915
0.00332943
0.00334779
0.00334483
0.0033326
0.00334768
0.0033295
0.00333257
0.00332943
0.00334779
0.00334483
0.0033326
0.00334768
0.0033295
0.00333257
0.00332341
0.00330496
0.00332303
0.00330529
0.00332341
0.00330495
0.00332303
0.00330528
0.00332321
0.00332042
0.00330529
0.00330831
0.00332331
0.00332039
0.00330522
0.00332321
0.00332042
0.00330528
0.00330831
0.00332331
0.00332039
0.00330522
0.00334778
0.00334778
0.00332952
0.00332941
0.00332941