/*--------------------------------*- C++ -*----------------------------------*\
| =========                 |                                                 |
| \\      /  F ield         | OpenFOAM: The Open Source CFD Toolbox           |
|  \\    /   O peration     | Version:  v1906                                 |
|   \\  /    A nd           | Web:      www.OpenFOAM.com                      |
|    \\/     M anipulation  |                                                 |
\*---------------------------------------------------------------------------*/
FoamFile
{
    version     2.0;
    format      ascii;
    class       surfaceScalarField;
    location    "1000";
    object      phi;
}
// * * * * * * * * * * * * * * * * * * * * * * * * * * * * * * * * * * * * * //

dimensions      [0 3 -1 0 0 0 0];
oriented        oriented;


internalField   nonuniform List<scalar> 
123728
(
-0.00104221
-1.45815e-05
-1.44777e-05
9.34771e-06
9.17762e-06
0.00105274
-0.00026146
-5.64183e-06
1.44583e-05
6.83957e-06
0.00105941
-4.53274e-06
-1.62486e-06
-2.21805e-06
-2.57554e-06
-6.59143e-06
-7.04427e-06
-3.16375e-06
-0.000263303
-0.000259727
-0.000262829
-0.000261437
-5.64682e-06
1.44873e-05
6.92911e-06
0.0010592
-4.53785e-06
-1.63504e-06
-2.22565e-06
-2.57985e-06
-6.58553e-06
-7.04034e-06
-3.16594e-06
-0.000259699
-0.000263274
-0.000262793
-0.000260564
5.61732e-06
5.65742e-06
-4.87815e-06
-4.87221e-06
0.00025904
-1.63187e-06
-1.63376e-06
-0.00106073
8.98536e-07
8.99307e-07
0.0010622
-0.00106267
-1.60665e-06
1.62783e-06
8.28416e-07
0.00106395
-6.53884e-07
7.84504e-07
-1.48154e-07
3.78011e-07
-8.00666e-07
-1.39484e-06
-2.90553e-07
-0.00106235
-1.60156e-06
1.63834e-06
8.23605e-07
0.00106363
-6.53863e-07
7.79016e-07
-1.48201e-07
3.75396e-07
-8.03194e-07
-1.39453e-06
-2.88007e-07
-0.000261533
1.63927e-06
1.60171e-06
-7.13268e-07
-7.16418e-07
0.000259722
-1.36113e-06
-1.36255e-06
-0.0010664
6.82252e-07
6.83062e-07
0.00106775
-0.0010679
-1.55715e-06
1.3673e-06
6.90356e-07
0.00106925
-6.2182e-07
8.38626e-07
-1.06569e-07
4.24393e-07
-7.80412e-07
-1.35997e-06
-2.45169e-07
-0.00106758
-1.55189e-06
1.36211e-06
6.95678e-07
0.00106892
-6.21815e-07
8.33213e-07
-1.06543e-07
4.24342e-07
-7.80336e-07
-1.35442e-06
-2.42611e-07
-0.000262766
1.58732e-06
1.55204e-06
-6.74946e-07
-6.83123e-07
0.000260984
-1.34098e-06
-1.34229e-06
-0.00107186
6.64409e-07
6.65261e-07
0.00107322
-0.00107326
-1.55555e-06
1.34196e-06
6.67271e-07
0.00107457
-6.19907e-07
8.63797e-07
-8.15871e-08
4.38224e-07
-7.79457e-07
-1.36936e-06
-2.20242e-07
-0.00107292
-1.55022e-06
1.34185e-06
6.67346e-07
0.00107424
-6.17202e-07
8.58364e-07
-8.40492e-08
4.38182e-07
-7.81905e-07
-1.36912e-06
-2.17684e-07
-0.000264044
1.58325e-06
1.55043e-06
-6.64599e-07
-6.70254e-07
0.000262245
-1.29597e-06
-1.29714e-06
-0.00107721
6.42272e-07
6.43165e-07
0.00107852
-0.00107844
-1.54741e-06
1.29685e-06
6.34108e-07
0.00107969
-6.07386e-07
8.91636e-07
-5.62652e-08
4.60261e-07
-7.68169e-07
-1.37182e-06
-1.88959e-07
-0.0010781
-1.54204e-06
1.2967e-06
6.3413e-07
0.00107936
-6.04669e-07
8.86215e-07
-5.86614e-08
4.60113e-07
-7.70663e-07
-1.37154e-06
-1.86468e-07
-0.000265263
1.57522e-06
1.54223e-06
-6.47621e-07
-6.53285e-07
0.000263446
-1.24845e-06
-1.24952e-06
-0.00108237
6.20381e-07
6.21297e-07
0.00108362
-0.00108337
-1.53906e-06
1.24923e-06
6.04459e-07
0.00108457
-5.95236e-07
9.17267e-07
-3.39193e-08
4.84539e-07
-7.53818e-07
-1.3692e-06
-1.58509e-07
-0.00108303
-1.53365e-06
1.24903e-06
6.04441e-07
0.00108423
-5.92441e-07
9.11873e-07
-3.6219e-08
4.84355e-07
-7.56437e-07
-1.369e-06
-1.5595e-07
-0.000266408
1.567e-06
1.53384e-06
-6.30784e-07
-6.36451e-07
0.000264575
-1.2044e-06
-1.20528e-06
-0.00108732
6.00867e-07
6.01758e-07
0.00108852
-0.00108806
-1.53245e-06
1.2049e-06
5.8053e-07
0.00108919
-5.85667e-07
9.40163e-07
-1.52476e-08
5.09216e-07
-7.40025e-07
-1.3649e-06
-1.30595e-07
-0.00108772
-1.52702e-06
1.20471e-06
5.80589e-07
0.00108885
-5.82831e-07
9.34728e-07
-1.74693e-08
5.09002e-07
-7.42739e-07
-1.36479e-06
-1.28069e-07
-0.00026748
1.5606e-06
1.52728e-06
-6.16253e-07
-6.21951e-07
0.00026563
-1.16566e-06
-1.16694e-06
-0.00109208
5.84433e-07
5.85376e-07
0.00109324
-0.00109251
-1.52804e-06
1.16661e-06
5.62532e-07
0.00109359
-5.79291e-07
9.60235e-07
-9.46129e-10
5.3323e-07
-7.27965e-07
-1.36079e-06
-1.05802e-07
-0.00109217
-1.5226e-06
1.16645e-06
5.62683e-07
0.00109325
-5.76437e-07
9.54839e-07
-2.8087e-09
5.32995e-07
-7.30607e-07
-1.36065e-06
-1.03318e-07
-0.000268483
1.55631e-06
1.52281e-06
-6.04194e-07
-6.0995e-07
0.000266618
-1.13197e-06
-1.13327e-06
-0.00109667
5.7035e-07
5.71026e-07
0.00109779
-0.00109676
-1.52692e-06
1.13308e-06
5.48944e-07
0.00109779
-5.76157e-07
9.76795e-07
1.65891e-08
5.55714e-07
-7.17521e-07
-1.35767e-06
-8.41265e-08
-0.00109641
-1.52139e-06
1.13298e-06
5.49011e-07
0.00109744
-5.7341e-07
9.71456e-07
1.37789e-08
5.55688e-07
-7.20018e-07
-1.35727e-06
-8.15935e-08
-0.000269423
1.55478e-06
1.52115e-06
-5.95433e-07
-6.01121e-07
0.000267544
-1.10336e-06
-1.10444e-06
-0.00110111
5.58647e-07
5.59312e-07
0.0011022
-0.00110081
-1.52717e-06
1.10439e-06
5.38293e-07
0.0011018
-5.74061e-07
9.91816e-07
3.06043e-08
5.77115e-07
-7.08142e-07
-1.3552e-06
-6.51491e-08
-0.00110046
-1.52172e-06
1.10427e-06
5.38396e-07
0.00110145
-5.71527e-07
9.86385e-07
2.76293e-08
5.77218e-07
-7.10566e-07
-1.3547e-06
-6.26815e-08
-0.000270305
1.55528e-06
1.5215e-06
-5.89129e-07
-5.94871e-07
0.000268412
-1.07834e-06
-1.0792e-06
-0.00110542
5.48641e-07
5.49328e-07
0.00110648
-0.0011047
-1.5281e-06
1.07919e-06
5.28829e-07
0.00110564
-5.69863e-07
1.00613e-06
4.08517e-08
5.9703e-07
-6.98873e-07
-1.35242e-06
-4.9024e-08
-0.00110435
-1.52263e-06
1.07915e-06
5.28921e-07
0.0011053
-5.69954e-07
1.00054e-06
4.04044e-08
5.97197e-07
-7.01334e-07
-1.35214e-06
-4.64963e-08
-0.000271132
1.55689e-06
1.52299e-06
-5.84562e-07
-5.90322e-07
0.000269227
-1.05586e-06
-1.0568e-06
-0.00110962
5.39666e-07
5.40361e-07
0.00111065
-0.00110843
-1.52984e-06
1.05653e-06
5.19943e-07
0.00110933
-5.70457e-07
1.01997e-06
5.26123e-08
6.15966e-07
-6.88701e-07
-1.34858e-06
-3.48872e-08
-0.00110808
-1.52422e-06
1.05627e-06
5.19779e-07
0.00110899
-5.70018e-07
1.01446e-06
5.26909e-08
6.15882e-07
-6.91193e-07
-1.34845e-06
-3.23267e-08
-0.000271907
1.55861e-06
1.52461e-06
-5.79765e-07
-5.85543e-07
0.000269989
-1.03443e-06
-1.03545e-06
-0.00111371
5.31026e-07
5.31691e-07
0.00111472
-0.00111201
-1.53146e-06
1.03505e-06
5.10713e-07
0.00111288
-5.70017e-07
1.03336e-06
6.20623e-08
6.33444e-07
-6.77557e-07
-1.34407e-06
-2.24054e-08
-0.00111166
-1.52576e-06
1.03475e-06
5.10613e-07
0.00111253
-5.69746e-07
1.02793e-06
6.25633e-08
6.33334e-07
-6.80112e-07
-1.34381e-06
-1.99334e-08
-0.00027263
1.56008e-06
1.52591e-06
-5.7472e-07
-5.8064e-07
0.0002707
-1.01307e-06
-1.01399e-06
-0.0011177
5.22203e-07
5.22913e-07
0.00111868
-0.00111543
-1.53286e-06
1.01427e-06
5.00798e-07
0.00111627
-5.66188e-07
1.04567e-06
7.08944e-08
6.48568e-07
-6.65441e-07
-1.33831e-06
-1.20376e-08
-0.00111508
-1.52721e-06
1.01414e-06
5.00822e-07
0.00111592
-5.66394e-07
1.04024e-06
7.07578e-08
6.48564e-07
-6.6784e-07
-1.33801e-06
-9.5929e-09
-0.0002733
1.56155e-06
1.52742e-06
-5.6983e-07
-5.75406e-07
0.000271356
-9.92565e-07
-9.9326e-07
-0.00112159
5.13398e-07
5.14163e-07
0.00112255
-0.00111871
-1.53345e-06
9.92993e-07
4.90255e-07
0.00111951
-5.63111e-07
1.0589e-06
7.97883e-08
6.6286e-07
-6.50743e-07
-1.33005e-06
-2.88344e-09
-0.00111836
-1.52776e-06
9.92779e-07
4.90114e-07
0.00111916
-5.62858e-07
1.05338e-06
8.00303e-08
6.62914e-07
-6.53338e-07
-1.32983e-06
-7.03955e-10
-0.000273915
1.56214e-06
1.52785e-06
-5.62399e-07
-5.68143e-07
0.000271955
-9.71169e-07
-9.72003e-07
-0.00112539
5.04122e-07
5.04793e-07
0.00112633
-0.00112184
-1.53311e-06
9.72077e-07
4.77972e-07
0.00112259
-5.571e-07
1.07111e-06
8.76132e-08
6.7453e-07
-6.36136e-07
-1.32139e-06
7.24225e-09
-0.00112148
-1.52759e-06
9.71822e-07
4.77447e-07
0.00112224
-5.56958e-07
1.06539e-06
8.76447e-08
6.74498e-07
-6.38721e-07
-1.32112e-06
1.05654e-08
-0.000274471
1.56207e-06
1.5277e-06
-5.5495e-07
-5.60703e-07
0.000272497
-9.50286e-07
-9.50893e-07
-0.00112909
4.94705e-07
4.95441e-07
0.00113
-0.0011248
-1.53227e-06
9.50703e-07
4.6615e-07
0.00112552
-5.50148e-07
1.08246e-06
9.47621e-08
6.85323e-07
-6.19788e-07
-1.31085e-06
1.75791e-08
-0.00112445
-1.52684e-06
9.50431e-07
4.65938e-07
0.00112516
-5.50185e-07
1.07675e-06
9.47765e-08
6.85411e-07
-6.22357e-07
-1.31056e-06
2.08131e-08
-0.000274966
1.56094e-06
1.52652e-06
-5.46264e-07
-5.52005e-07
0.000272976
-9.27641e-07
-9.28387e-07
-0.0011327
4.84088e-07
4.84778e-07
0.00113359
-0.0011276
-1.52984e-06
9.28642e-07
4.55088e-07
0.00112828
-5.39708e-07
1.09331e-06
1.02372e-07
6.93833e-07
-6.03458e-07
-1.29927e-06
2.54427e-08
-0.00112725
-1.52431e-06
9.28661e-07
4.54623e-07
0.00112792
-5.39765e-07
1.0877e-06
1.02497e-07
6.93817e-07
-6.05937e-07
-1.29891e-06
2.85833e-08
-0.000275394
1.55924e-06
1.52476e-06
-5.37515e-07
-5.43193e-07
0.000273391
-9.07148e-07
-9.0787e-07
-0.00113622
4.74736e-07
4.75341e-07
0.00113708
-0.00113024
-1.52713e-06
9.07694e-07
4.45277e-07
0.00113087
-5.30146e-07
1.10253e-06
1.07425e-07
7.02619e-07
-5.86509e-07
-1.28623e-06
3.35955e-08
-0.00112988
-1.52157e-06
9.07532e-07
4.45139e-07
0.00113051
-5.30125e-07
1.09675e-06
1.07424e-07
7.02521e-07
-5.89083e-07
-1.2861e-06
3.6707e-08
-0.000275756
1.55624e-06
1.52168e-06
-5.27342e-07
-5.33069e-07
0.000273739
-8.86596e-07
-8.86699e-07
-0.00113964
4.65313e-07
4.66147e-07
0.00114048
-0.00113269
-1.52311e-06
8.86273e-07
4.34155e-07
0.00113328
-5.18846e-07
1.11122e-06
1.13905e-07
7.10486e-07
-5.68807e-07
-1.27093e-06
4.05233e-08
-0.00113234
-1.51766e-06
8.85831e-07
4.33853e-07
0.00113292
-5.18942e-07
1.10551e-06
1.14099e-07
7.10633e-07
-5.71213e-07
-1.27068e-06
4.38156e-08
-0.000276047
1.55237e-06
1.51773e-06
-5.16542e-07
-5.22283e-07
0.000274016
-8.70292e-07
-8.64949e-07
-0.00114296
4.55498e-07
4.56288e-07
0.00114379
-0.00113497
-1.51728e-06
8.59688e-07
4.24287e-07
0.00113551
-5.08783e-07
1.11901e-06
1.2189e-07
7.19806e-07
-5.52327e-07
-1.25544e-06
4.66741e-08
-0.00113461
-1.51185e-06
8.64825e-07
4.12881e-07
-5.05843e-07
1.11338e-06
1.19518e-07
7.16964e-07
-5.54666e-07
-1.25493e-06
4.96644e-08
0.00113516
-0.000276267
1.54661e-06
1.50921e-06
-5.04626e-07
-5.10256e-07
0.000274226
5.22146e-06
5.23231e-06
0.000260567
-0.000259171
-5.9319e-06
-5.91778e-06
5.08158e-06
0.000261409
-0.000258686
-5.96204e-06
3.37916e-06
-5.22153e-06
5.07656e-06
0.000261442
-0.000258702
-5.97005e-06
3.37432e-06
5.22214e-06
0.000260579
-0.000259173
-5.90328e-06
-5.94651e-06
5.07468e-06
0.000261473
-0.000258717
-5.96755e-06
3.369e-06
5.0814e-06
-5.22378e-06
0.000261417
-0.000258686
3.38422e-06
-5.97225e-06
1.07111e-05
1.06174e-05
-0.000252649
-0.000256079
-0.000255118
-0.000255118
-6.41734e-06
-4.12515e-06
-6.6623e-06
-6.4177e-06
-4.12609e-06
-6.66784e-06
-5.06963e-06
0.00104223
1.06707e-05
1.06227e-05
-0.000252651
-0.000256076
-0.000255121
-0.000255121
-6.41995e-06
-4.12544e-06
-6.66504e-06
-6.41517e-06
-4.12088e-06
-6.66025e-06
-5.06928e-06
0.00104211
1.0731e-05
1.06833e-05
-0.000252643
-0.000256071
-0.000255118
-0.000255113
-6.41981e-06
-4.13282e-06
-6.66497e-06
-6.42001e-06
-4.12309e-06
-6.66258e-06
-5.08397e-06
-5.07209e-06
0.00104217
1.07263e-05
1.06276e-05
-0.000252646
-0.000256074
-0.000255118
-0.000255118
-6.4147e-06
-4.12777e-06
-6.65997e-06
-6.42014e-06
-4.12593e-06
-6.6653e-06
-0.000258712
-5.95992e-06
3.36395e-06
-5.22138e-06
0.000261404
-0.000258684
3.37919e-06
-5.96198e-06
5.22453e-06
0.000260559
-0.000259158
-5.9056e-06
-5.94373e-06
-0.000258697
3.37148e-06
-5.95704e-06
-5.23228e-06
0.000261471
-0.000258712
3.36649e-06
-5.96502e-06
-0.000259168
-5.93177e-06
-5.9178e-06
5.61757e-06
5.65479e-06
-4.87837e-06
-4.87223e-06
0.000259045
-7.8048e-07
-7.44602e-07
0.000261544
-0.000259462
-2.82247e-07
-2.74854e-07
7.09203e-06
0.00105882
-4.53008e-06
-1.57833e-06
-2.21273e-06
-2.57666e-06
-6.60588e-06
-7.05009e-06
-3.17074e-06
-0.000263264
-0.000259684
-0.000262793
-5.62803e-06
1.4555e-05
7.03143e-06
0.00105919
-4.5492e-06
-1.57071e-06
-2.21587e-06
-2.58757e-06
-6.6374e-06
-7.067e-06
-3.18642e-06
-0.000263338
-0.000259715
-0.000262834
0.00106192
2.02401e-06
-0.00106086
9.73753e-07
-1.71809e-06
-1.6911e-07
-6.9224e-07
-1.46543e-06
-3.07558e-07
-8.28052e-07
3.43221e-07
7.88563e-07
0.00106234
2.02437e-06
-0.00106128
9.68688e-07
-1.7285e-06
-1.61612e-07
-6.97738e-07
-1.47114e-06
-3.07706e-07
-8.2842e-07
3.48639e-07
-4.87646e-06
-4.86912e-06
0.000259055
-7.47278e-07
0.000261569
-0.000259482
-2.79598e-07
-2.71985e-07
6.81327e-06
0.00105966
-4.55437e-06
-1.63766e-06
-2.22893e-06
-2.58588e-06
-6.61991e-06
-7.06238e-06
-3.18164e-06
-0.000263359
-0.000259742
-0.000262847
-5.62773e-06
1.45894e-05
7.12547e-06
0.00105896
-4.54903e-06
-1.58079e-06
-2.2209e-06
-2.58953e-06
-6.6367e-06
-7.06587e-06
-3.18603e-06
-0.000259684
-0.000263315
-0.000262806
0.00106294
2.03159e-06
-0.00106187
9.6225e-07
-1.68817e-06
-1.71619e-07
-6.92518e-07
-1.46847e-06
-3.07669e-07
-8.2582e-07
3.45597e-07
7.77944e-07
0.00106203
2.0346e-06
-0.00106099
9.84064e-07
-1.71815e-06
-1.66656e-07
-6.92437e-07
-1.46825e-06
-3.05089e-07
-8.3081e-07
3.43165e-07
1.45864e-05
7.11279e-06
0.00105877
-4.53002e-06
-1.57822e-06
-2.2101e-06
-2.57669e-06
-6.60589e-06
-3.17079e-06
-7.04777e-06
-0.000259679
-0.000263259
-0.000262788
2.03091e-06
-0.00106161
9.67483e-07
-1.68807e-06
-1.68943e-07
-6.89598e-07
-1.46575e-06
-3.10042e-07
3.40404e-07
-8.25541e-07
7.77916e-07
0.00106182
2.03422e-06
-0.00106078
9.84098e-07
-1.71806e-06
-1.66545e-07
-6.92192e-07
-1.4681e-06
-3.07531e-07
-8.28005e-07
3.45755e-07
-4.88128e-06
-4.86889e-06
0.000259035
-7.39136e-07
0.000261521
-0.000259444
-2.82643e-07
-2.77209e-07
1.44875e-05
6.83175e-06
0.00105961
-4.55451e-06
-1.63767e-06
-2.22898e-06
-2.5857e-06
-6.61978e-06
-3.18154e-06
-7.05965e-06
-0.000259732
-0.000263356
-0.000262842
2.03595e-06
-0.00106131
9.83007e-07
-1.68559e-06
-1.7149e-07
-6.92269e-07
-1.46262e-06
-3.05021e-07
3.40449e-07
-8.28071e-07
7.39227e-07
0.00106284
2.03659e-06
-0.00106179
9.72565e-07
-1.68313e-06
-1.71647e-07
-6.89935e-07
-1.4657e-06
-3.07509e-07
-8.28234e-07
3.40607e-07
-0.000259459
-2.7978e-07
-2.77429e-07
1.63935e-06
1.60415e-06
-7.10556e-07
-7.19026e-07
0.00025973
-8.66329e-07
-8.27635e-07
0.000262778
-0.000260667
-2.12632e-07
-2.05058e-07
8.29638e-07
0.00106319
-6.56436e-07
8.17756e-07
-1.43305e-07
3.78164e-07
-8.00554e-07
-1.39713e-06
-2.90474e-07
-1.64463e-06
1.63226e-06
8.24415e-07
0.00106362
-6.59293e-07
8.2583e-07
-1.43312e-07
3.83594e-07
-8.0353e-07
-1.40283e-06
-2.88164e-07
0.00106713
1.38301e-06
-0.0010658
7.02155e-07
-1.59182e-06
-1.03503e-07
-6.28653e-07
-1.35465e-06
-2.49028e-07
-7.76787e-07
4.22398e-07
8.71693e-07
0.00106757
1.38328e-06
-0.00106623
6.97076e-07
-1.59714e-06
-1.03624e-07
-6.28884e-07
-1.35764e-06
-2.49133e-07
-7.77136e-07
4.2521e-07
-7.1105e-07
-7.18358e-07
0.000259748
-8.32892e-07
0.000262804
-0.000260679
-2.12671e-07
-2.07558e-07
8.23144e-07
0.00106421
-6.54074e-07
7.81855e-07
-1.45761e-07
3.80615e-07
-8.03598e-07
-1.40027e-06
-2.88115e-07
-1.63935e-06
1.63748e-06
8.29699e-07
0.0010633
-6.5928e-07
8.1786e-07
-1.43347e-07
3.78181e-07
-8.03264e-07
-1.39733e-06
-2.87991e-07
0.00106816
1.38438e-06
-0.00106684
7.01113e-07
-1.5539e-06
-1.08437e-07
-6.2365e-07
-1.35234e-06
-2.46602e-07
-7.77125e-07
4.2505e-07
8.6111e-07
0.00106725
1.38304e-06
-0.00106591
7.02235e-07
-1.58922e-06
-1.06088e-07
-6.28798e-07
-1.35478e-06
-2.48993e-07
-7.76837e-07
4.25177e-07
1.63205e-06
8.29732e-07
0.0010631
-6.59065e-07
8.15186e-07
-1.4574e-07
3.78106e-07
-8.03182e-07
-2.88027e-07
-1.39723e-06
1.38399e-06
-0.00106657
7.0647e-07
-1.56169e-06
-1.10858e-07
-6.23497e-07
-1.35226e-06
-2.46614e-07
4.24926e-07
-7.76934e-07
8.6371e-07
0.00106704
1.37773e-06
-0.0010657
7.02254e-07
-1.58914e-06
-1.05958e-07
-6.28631e-07
-1.35472e-06
-2.49062e-07
-7.76777e-07
4.22412e-07
-7.13821e-07
-7.15803e-07
0.000259709
-8.24824e-07
0.000262753
-0.000260646
-2.12863e-07
-2.07514e-07
1.63355e-06
8.18031e-07
0.00106413
-6.54136e-07
7.7644e-07
-1.50868e-07
3.75479e-07
-8.00811e-07
-2.92948e-07
-1.39476e-06
1.38398e-06
-0.00106625
7.01387e-07
-1.55117e-06
-1.10862e-07
-6.23454e-07
-1.34668e-06
-2.49032e-07
4.16859e-07
-7.76849e-07
8.27503e-07
0.00106807
1.38438e-06
-0.00106674
7.01192e-07
-1.55136e-06
-1.11005e-07
-6.23729e-07
-1.35492e-06
-2.49057e-07
-7.79706e-07
4.22387e-07
-0.000260654
-2.12729e-07
-2.07644e-07
1.58996e-06
1.55721e-06
-6.72236e-07
-6.80573e-07
0.000260984
-8.90491e-07
-8.54279e-07
0.00026406
-0.000261937
-1.9161e-07
-1.86549e-07
6.91217e-07
0.00106848
-6.29693e-07
8.72074e-07
-9.92461e-08
4.24533e-07
-7.77649e-07
-1.35444e-06
-2.47572e-07
-1.59532e-06
1.36146e-06
7.01848e-07
0.00106891
-6.29904e-07
8.77483e-07
-9.93097e-08
4.30068e-07
-7.80623e-07
-1.36007e-06
-2.4271e-07
0.00107249
1.34953e-06
-0.00107117
6.75827e-07
-1.58991e-06
-8.55372e-08
-6.24938e-07
-1.36699e-06
-2.29951e-07
-7.78109e-07
4.33824e-07
8.95934e-07
0.00107292
1.34982e-06
-0.00107159
6.7604e-07
-1.59526e-06
-8.3109e-08
-6.27791e-07
-1.37529e-06
-2.25036e-07
-7.83674e-07
4.42099e-07
-6.75282e-07
-6.77492e-07
0.000261005
-8.56948e-07
0.000264088
-0.000261963
-1.89003e-07
-1.83805e-07
6.90229e-07
0.00106952
-6.27351e-07
8.35993e-07
-1.04172e-07
4.27146e-07
-7.80582e-07
-1.36003e-06
-2.42669e-07
-1.58735e-06
1.36128e-06
6.96572e-07
0.00106859
-6.2985e-07
8.695e-07
-9.9285e-08
4.27291e-07
-7.80303e-07
-1.35721e-06
-2.42538e-07
0.00107352
1.35085e-06
-0.0010722
6.74835e-07
-1.55439e-06
-8.79758e-08
-6.2254e-07
-1.36992e-06
-2.25012e-07
-7.83672e-07
4.36498e-07
8.90573e-07
0.0010726
1.34962e-06
-0.00107127
6.75987e-07
-1.58993e-06
-8.30642e-08
-6.27721e-07
-1.36968e-06
-2.24878e-07
-7.83389e-07
4.36595e-07
1.36625e-06
6.91329e-07
0.00106839
-6.27004e-07
8.66805e-07
-1.04162e-07
4.27178e-07
-7.80244e-07
-2.45105e-07
-1.35716e-06
1.35051e-06
-0.00107193
6.74956e-07
-1.55696e-06
-8.78564e-08
-6.22369e-07
-1.36722e-06
-2.27531e-07
4.33715e-07
-7.80912e-07
8.85161e-07
0.0010724
1.34943e-06
-0.00107107
6.75935e-07
-1.58462e-06
-8.79766e-08
-6.22192e-07
-1.36705e-06
-2.27448e-07
-7.80688e-07
4.33847e-07
-6.75367e-07
-6.8001e-07
0.000260969
-8.51524e-07
0.000264039
-0.000261921
-1.91697e-07
-1.83813e-07
1.36252e-06
6.95525e-07
0.00106942
-6.22097e-07
8.27952e-07
-1.09172e-07
4.24569e-07
-7.77908e-07
-2.45115e-07
-1.35476e-06
1.35041e-06
-0.0010716
6.75035e-07
-1.55164e-06
-9.03142e-08
-6.19663e-07
-1.36693e-06
-2.2499e-07
4.3371e-07
-7.83408e-07
8.51501e-07
0.00107344
1.35086e-06
-0.00107211
6.7488e-07
-1.55186e-06
-9.04854e-08
-6.19937e-07
-1.36467e-06
-2.27464e-07
-7.8098e-07
4.31217e-07
-0.000261934
-1.89151e-07
-1.83957e-07
1.58853e-06
1.55297e-06
-6.61892e-07
-6.67619e-07
0.000262248
-9.18497e-07
-8.82144e-07
0.000265279
-0.000263155
-1.63918e-07
-1.58796e-07
6.68143e-07
0.00107381
-6.22464e-07
8.9736e-07
-7.92734e-08
4.38334e-07
-7.76642e-07
-1.36912e-06
-2.22687e-07
-1.5939e-06
1.34129e-06
6.68352e-07
0.00107423
-6.25339e-07
9.0283e-07
-7.68437e-08
4.46594e-07
-7.82216e-07
-1.37745e-06
-2.17749e-07
0.00107767
1.30796e-06
-0.0010764
6.43171e-07
-1.58272e-06
-6.00646e-08
-6.13233e-07
-1.3718e-06
-1.99295e-07
-7.68825e-07
4.54408e-07
9.2395e-07
0.00107809
1.3083e-06
-0.00107682
6.43437e-07
-1.58813e-06
-5.7689e-08
-6.16103e-07
-1.38008e-06
-1.94407e-07
-7.74416e-07
4.62605e-07
-6.65025e-07
-6.69729e-07
0.000262274
-8.84793e-07
0.000265307
-0.000263181
-1.61361e-07
-1.56099e-07
6.67159e-07
0.00107484
-6.20059e-07
8.61111e-07
-8.17025e-08
4.41012e-07
-7.82216e-07
-1.37206e-06
-2.17728e-07
-1.58856e-06
1.34108e-06
6.68291e-07
0.00107391
-6.25281e-07
8.97452e-07
-7.68087e-08
4.41093e-07
-7.81881e-07
-1.37177e-06
-2.17634e-07
0.0010787
1.30919e-06
-0.00107743
6.42209e-07
-1.54704e-06
-6.24601e-08
-6.10829e-07
-1.3747e-06
-1.9436e-07
-7.74419e-07
4.57038e-07
9.18552e-07
0.00107777
1.30804e-06
-0.0010765
6.43319e-07
-1.58275e-06
-5.76734e-08
-6.16013e-07
-1.37445e-06
-1.94171e-07
-7.74081e-07
4.57243e-07
1.3409e-06
6.68234e-07
0.00107371
-6.19728e-07
8.92054e-07
-8.16574e-08
4.38314e-07
-7.79271e-07
-2.20198e-07
-1.36921e-06
1.30892e-06
-0.00107716
6.42349e-07
-1.54965e-06
-6.24054e-08
-6.10664e-07
-1.37195e-06
-1.96921e-07
4.54218e-07
-7.7167e-07
9.13131e-07
0.00107757
1.3079e-06
-0.0010763
6.43278e-07
-1.57747e-06
-6.24906e-08
-6.10554e-07
-1.37173e-06
-1.96907e-07
-7.71383e-07
4.54332e-07
-6.62447e-07
-6.69672e-07
0.000262232
-8.79382e-07
0.000265258
-0.00026314
-1.64001e-07
-1.56121e-07
1.34229e-06
6.67192e-07
0.00107475
-6.17462e-07
8.58364e-07
-8.41603e-08
4.35693e-07
-7.79554e-07
-2.20206e-07
-1.36681e-06
1.30876e-06
-0.00107683
6.42356e-07
-1.54426e-06
-6.48359e-08
-6.07918e-07
-1.37174e-06
-1.94292e-07
4.54257e-07
-7.74172e-07
8.79367e-07
0.00107861
1.30918e-06
-0.00107734
6.42237e-07
-1.54451e-06
-6.49518e-08
-6.08254e-07
-1.36935e-06
-1.96895e-07
-7.71678e-07
4.51706e-07
-0.000263153
-1.61436e-07
-1.56192e-07
1.58056e-06
1.54483e-06
-6.4498e-07
-6.507e-07
0.000263449
-9.44953e-07
-9.08476e-07
0.000266424
-0.000264302
-1.36897e-07
-1.3171e-07
6.34959e-07
0.00107892
-6.09962e-07
9.25376e-07
-5.3977e-08
4.60217e-07
-7.6543e-07
-1.37159e-06
-1.91449e-07
-1.58593e-06
1.29628e-06
6.35183e-07
0.00107935
-6.12826e-07
9.30839e-07
-5.15498e-08
4.68625e-07
-7.70954e-07
-1.37998e-06
-1.86464e-07
0.0010826
1.2601e-06
-0.00108139
6.12117e-07
-1.57418e-06
-3.68139e-08
-6.0047e-07
-1.3701e-06
-1.68287e-07
-7.54716e-07
4.78405e-07
9.50452e-07
0.00108302
1.26054e-06
-0.00108181
6.1247e-07
-1.57966e-06
-3.45312e-08
-6.03378e-07
-1.37848e-06
-1.63343e-07
-7.60421e-07
4.86604e-07
-6.48099e-07
-6.52764e-07
0.000263475
-9.11132e-07
0.000266453
-0.000264328
-1.34371e-07
-1.29017e-07
6.33979e-07
0.00107996
-6.07539e-07
8.88947e-07
-5.6411e-08
4.63027e-07
-7.70948e-07
-1.37449e-06
-1.86446e-07
-1.58058e-06
1.29606e-06
6.35103e-07
0.00107903
-6.12771e-07
9.25481e-07
-5.14553e-08
4.62981e-07
-7.70722e-07
-1.37427e-06
-1.86392e-07
0.00108364
1.26122e-06
-0.00108243
6.11194e-07
-1.53832e-06
-3.9162e-08
-5.98029e-07
-1.37305e-06
-1.63276e-07
-7.60374e-07
4.81108e-07
9.44987e-07
0.0010827
1.26019e-06
-0.00108149
6.12297e-07
-1.57425e-06
-3.45699e-08
-6.0331e-07
-1.37272e-06
-1.63143e-07
-7.5994e-07
4.81308e-07
1.29586e-06
6.35007e-07
0.00107883
-6.07125e-07
9.19983e-07
-5.6382e-08
4.60353e-07
-7.68025e-07
-1.88835e-07
-1.37177e-06
1.26104e-06
-0.00108216
6.11409e-07
-1.541e-06
-3.91836e-08
-5.97928e-07
-1.37031e-06
-1.65818e-07
4.78165e-07
-7.57716e-07
9.39618e-07
0.0010825
1.26008e-06
-0.00108129
6.12251e-07
-1.56895e-06
-3.91427e-08
-5.97875e-07
-1.37005e-06
-1.65859e-07
-7.57435e-07
4.78217e-07
-6.4548e-07
-6.52732e-07
0.000263433
-9.057e-07
0.000266403
-0.000264286
-1.36983e-07
-1.2909e-07
1.29709e-06
6.33981e-07
0.00107987
-6.04827e-07
8.86179e-07
-5.88432e-08
4.57724e-07
-7.68298e-07
-1.88838e-07
-1.36934e-06
1.26079e-06
-0.00108182
6.11324e-07
-1.53554e-06
-4.16107e-08
-5.95164e-07
-1.37006e-06
-1.63229e-07
4.78277e-07
-7.60101e-07
9.05744e-07
0.00108355
1.26121e-06
-0.00108234
6.11239e-07
-1.53582e-06
-4.15547e-08
-5.95546e-07
-1.36764e-06
-1.65847e-07
-7.57716e-07
4.75587e-07
-0.0002643
-1.34304e-07
-1.29006e-07
1.57235e-06
1.53648e-06
-6.28196e-07
-6.33848e-07
0.000264577
-9.6859e-07
-9.31988e-07
0.000267496
-0.000265375
-1.12509e-07
-1.07286e-07
6.0528e-07
0.00108379
-5.9781e-07
9.51178e-07
-3.17046e-08
4.84464e-07
-7.51205e-07
-1.36911e-06
-1.6089e-07
-1.57772e-06
1.24878e-06
6.05509e-07
0.00108422
-6.00657e-07
9.56631e-07
-2.92605e-08
4.92924e-07
-7.56684e-07
-1.37745e-06
-1.55954e-07
0.00108728
1.21476e-06
-0.00108613
5.86801e-07
-1.56719e-06
-1.73562e-08
-5.90025e-07
-1.36609e-06
-1.39579e-07
-7.40642e-07
5.03153e-07
9.74123e-07
0.00108771
1.21517e-06
-0.00108656
5.87039e-07
-1.57274e-06
-1.52334e-08
-5.93001e-07
-1.37456e-06
-1.34517e-07
-7.46294e-07
5.11439e-07
-6.31218e-07
-6.35837e-07
0.000264603
-9.34703e-07
0.000267525
-0.000265402
-1.09964e-07
-1.04671e-07
6.04327e-07
0.00108483
-5.95396e-07
9.14609e-07
-3.40963e-08
4.8727e-07
-7.56712e-07
-1.37194e-06
-1.55908e-07
-1.57233e-06
1.24854e-06
6.05415e-07
0.0010839
-6.00547e-07
9.51293e-07
-2.91152e-08
4.87219e-07
-7.56546e-07
-1.3718e-06
-1.5581e-07
0.00108833
1.21574e-06
-0.00108718
5.85813e-07
-1.53118e-06
-1.96278e-08
-5.8757e-07
-1.36908e-06
-1.34574e-07
-7.46297e-07
5.05876e-07
9.68612e-07
0.00108739
1.21491e-06
-0.00108624
5.86959e-07
-1.56731e-06
-1.53127e-08
-5.93023e-07
-1.36871e-06
-1.34444e-07
-7.45845e-07
5.06114e-07
1.24832e-06
6.05304e-07
0.00108369
-5.94894e-07
9.45668e-07
-3.41434e-08
4.84662e-07
-7.53687e-07
-1.58364e-07
-1.3692e-06
1.21556e-06
-0.00108691
5.86005e-07
-1.53386e-06
-1.97171e-08
-5.87504e-07
-1.3665e-06
-1.37056e-07
5.02983e-07
-7.43673e-07
9.63283e-07
0.00108718
1.21468e-06
-0.00108603
5.86867e-07
-1.56197e-06
-1.95159e-08
-5.87521e-07
-1.36615e-06
-1.3712e-07
-7.43365e-07
5.03036e-07
-6.28577e-07
-6.35802e-07
0.000264562
-9.29191e-07
0.000267475
-0.00026536
-1.12642e-07
-1.04742e-07
1.24941e-06
6.043e-07
0.00108474
-5.92561e-07
9.11753e-07
-3.65511e-08
4.82064e-07
-7.53956e-07
-1.58328e-07
-1.36679e-06
1.21531e-06
-0.00108657
5.8596e-07
-1.52844e-06
-2.21308e-08
-5.84844e-07
-1.36615e-06
-1.345e-07
5.03089e-07
-7.46001e-07
9.2932e-07
0.00108824
1.21571e-06
-0.00108709
5.8584e-07
-1.52868e-06
-2.18296e-08
-5.85165e-07
-1.36376e-06
-1.37104e-07
-7.43673e-07
5.00359e-07
-0.000265373
-1.09783e-07
-1.04443e-07
1.56596e-06
1.52994e-06
-6.13708e-07
-6.19432e-07
0.000265633
-9.9229e-07
-9.52879e-07
0.000268501
-0.00026638
-9.07862e-08
-8.54805e-08
5.81636e-07
0.00108841
-5.88348e-07
9.76854e-07
-1.09929e-08
5.09239e-07
-7.37371e-07
-1.36496e-06
-1.32932e-07
-1.57125e-06
1.20455e-06
5.81578e-07
0.00108884
-5.91075e-07
9.79693e-07
-1.07783e-08
5.17735e-07
-7.42855e-07
-1.3732e-06
-1.27994e-07
0.00109173
1.17483e-06
-0.00109063
5.67305e-07
-1.56504e-06
3.37479e-10
-5.8537e-07
-1.36182e-06
-1.14063e-07
-7.28145e-07
5.2734e-07
9.94973e-07
0.00109216
1.17512e-06
-0.00109107
5.67424e-07
-1.56789e-06
-1.2739e-10
-5.85518e-07
-1.36772e-06
-1.08851e-07
-7.33724e-07
5.32996e-07
-6.16641e-07
-6.21216e-07
0.000265659
-9.55478e-07
0.000268528
-0.000266406
-8.84508e-08
-8.32234e-08
5.8053e-07
0.00108946
-5.85934e-07
9.37457e-07
-1.55617e-08
5.12006e-07
-7.42942e-07
-1.36779e-06
-1.27986e-07
-1.56589e-06
1.20442e-06
5.81606e-07
0.00108852
-5.90947e-07
9.74311e-07
-1.06436e-08
5.11965e-07
-7.4277e-07
-1.36766e-06
-1.27827e-07
0.00109278
1.17581e-06
-0.00109169
5.66425e-07
-1.5261e-06
-3.99265e-09
-5.80147e-07
-1.36484e-06
-1.08993e-07
-7.33742e-07
5.3014e-07
9.89431e-07
0.00109184
1.17494e-06
-0.00109074
5.67468e-07
-1.56253e-06
-3.05331e-10
-5.85625e-07
-1.36452e-06
-1.08892e-07
-7.33313e-07
5.30284e-07
1.20419e-06
5.81541e-07
0.00108832
-5.8534e-07
9.68503e-07
-1.57234e-08
5.09316e-07
-7.39911e-07
-1.30447e-07
-1.36499e-06
1.17568e-06
-0.00109142
5.66586e-07
-1.52879e-06
-4.23539e-09
-5.79982e-07
-1.36232e-06
-1.11476e-07
5.27211e-07
-7.31014e-07
9.84241e-07
0.00109163
1.17479e-06
-0.00109054
5.67533e-07
-1.55721e-06
-3.93035e-09
-5.80305e-07
-1.36194e-06
-1.11531e-07
-7.30759e-07
5.27388e-07
-6.1391e-07
-6.21263e-07
0.000265617
-9.49863e-07
0.000268478
-0.000266364
-9.13391e-08
-8.33078e-08
1.20516e-06
5.80511e-07
0.00108937
-5.82975e-07
9.3448e-07
-1.80401e-08
5.06714e-07
-7.40168e-07
-1.30423e-07
-1.36256e-06
1.1754e-06
-0.00109108
5.66597e-07
-1.52339e-06
-6.5196e-09
-5.7736e-07
-1.36197e-06
-1.08867e-07
5.27368e-07
-7.33377e-07
9.50168e-07
0.00109269
1.17572e-06
-0.0010916
5.66489e-07
-1.52377e-06
-5.99835e-09
-5.77923e-07
-1.35954e-06
-1.11513e-07
-7.31072e-07
5.24696e-07
-0.000266378
-8.81612e-08
-8.27648e-08
1.56447e-06
1.52545e-06
-6.01894e-07
-6.07513e-07
0.000266621
-1.00987e-06
-9.70333e-07
0.000269441
-0.000267321
-7.28166e-08
-6.73592e-08
5.63212e-07
0.0010928
-5.84654e-07
9.96924e-07
5.06026e-09
5.33251e-07
-7.2515e-07
-1.36098e-06
-1.05557e-07
-1.56725e-06
1.16576e-06
5.63126e-07
0.00109324
-5.84936e-07
9.99861e-07
5.6337e-09
5.3899e-07
-7.30729e-07
-1.36641e-06
-1.03335e-07
0.00109596
1.13964e-06
-0.00109492
5.52509e-07
-1.56314e-06
1.93697e-08
-5.81822e-07
-1.35836e-06
-8.93975e-08
-7.20023e-07
5.50227e-07
1.0126e-06
0.0010964
1.13993e-06
-0.00109536
5.52566e-07
-1.56585e-06
1.9038e-08
-5.81426e-07
-1.36457e-06
-8.66552e-08
-7.23173e-07
5.55695e-07
-6.04999e-07
-6.09652e-07
0.000266647
-9.7285e-07
0.000269468
-0.000267347
-7.05418e-08
-6.49937e-08
5.62561e-07
0.00109386
-5.79385e-07
9.57458e-07
-1.50991e-09
5.36001e-07
-7.30771e-07
-1.36374e-06
-1.03144e-07
-1.56182e-06
1.16552e-06
5.63078e-07
0.00109292
-5.84745e-07
9.94478e-07
6.00768e-09
5.36001e-07
-7.30637e-07
-1.36363e-06
-1.03069e-07
0.00109703
1.14099e-06
-0.00109598
5.51604e-07
-1.52408e-06
1.33268e-08
-5.76413e-07
-1.36139e-06
-8.66517e-08
-7.2288e-07
5.53217e-07
1.00699e-06
0.00109608
1.13965e-06
-0.00109504
5.52571e-07
-1.5604e-06
1.85833e-08
-5.8141e-07
-1.36119e-06
-8.66576e-08
-7.22714e-07
5.53022e-07
1.16569e-06
5.63443e-07
0.00109271
-5.78552e-07
9.88637e-07
-1.49763e-09
5.3326e-07
-7.27809e-07
-1.056e-07
-1.36088e-06
1.14083e-06
-0.00109571
5.51647e-07
-1.52667e-06
1.30361e-08
-5.75761e-07
-1.35886e-06
-8.91034e-08
5.50227e-07
-7.20227e-07
1.00197e-06
0.00109587
1.13988e-06
-0.00109483
5.52564e-07
-1.55507e-06
1.28421e-08
-5.76642e-07
-1.35853e-06
-8.91243e-08
-7.19834e-07
5.504e-07
-6.02279e-07
-6.09553e-07
0.000266605
-9.67338e-07
0.000269417
-0.000267304
-7.34014e-08
-6.518e-08
1.16668e-06
5.62487e-07
0.00109377
-5.76147e-07
9.54536e-07
-3.38246e-09
5.30646e-07
-7.2805e-07
-1.05583e-07
-1.35845e-06
1.14082e-06
-0.00109537
5.51759e-07
-1.52114e-06
9.56429e-09
-5.72893e-07
-1.35855e-06
-8.64082e-08
5.50372e-07
-7.22613e-07
9.67802e-07
0.00109693
1.14114e-06
-0.00109589
5.5165e-07
-1.52149e-06
9.76518e-09
-5.7416e-07
-1.35607e-06
-8.90127e-08
-7.20083e-07
5.47766e-07
-0.000267318
-7.01974e-08
-6.46475e-08
1.56317e-06
1.52415e-06
-5.93364e-07
-5.98958e-07
0.000267546
-1.02542e-06
-9.85839e-07
0.000270323
-0.000268203
-5.71899e-08
-5.17469e-08
5.4972e-07
0.001097
-5.81018e-07
1.01366e-06
2.23741e-08
5.55597e-07
-7.17649e-07
-1.35803e-06
-8.39776e-08
-1.5661e-06
1.13216e-06
5.49829e-07