/*--------------------------------*- C++ -*----------------------------------*\
| =========                 |                                                 |
| \\      /  F ield         | OpenFOAM: The Open Source CFD Toolbox           |
|  \\    /   O peration     | Version:  v1906                                 |
|   \\  /    A nd           | Web:      www.OpenFOAM.com                      |
|    \\/     M anipulation  |                                                 |
\*---------------------------------------------------------------------------*/
FoamFile
{
    version     2.0;
    format      ascii;
    class       surfaceScalarField;
    location    "1000";
    object      phi;
}
// * * * * * * * * * * * * * * * * * * * * * * * * * * * * * * * * * * * * * //

dimensions      [0 3 -1 0 0 0 0];
oriented        oriented;


internalField   nonuniform List<scalar> 
123728
(
1.25814e-07
1.27594e-07
-0.00118367
-7.74993e-08
-7.59316e-08
0.00118357
-0.00113216
-1.18359e-06
-1.32132e-07
-5.26307e-08
0.00113213
-2.02289e-07
1.22996e-06
2.41032e-07
8.86894e-07
-1.75638e-07
-8.23224e-07
2.33433e-07
-0.00113179
-1.17769e-06
-1.33143e-07
-5.49485e-08
0.00113177
-2.01882e-07
1.22478e-06
2.41394e-07
8.86753e-07
-1.78291e-07
-8.23107e-07
2.36146e-07
-0.000270076
1.21285e-06
1.1791e-06
-1.92649e-07
-1.97493e-07
0.000268074
1.25972e-07
1.26783e-07
-0.00118327
-8.15232e-08
-8.03411e-08
0.00118318
-0.00113206
-1.18656e-06
-1.23108e-07
-3.89004e-08
0.00113204
-2.04904e-07
1.22674e-06
2.38609e-07
8.84297e-07
-1.77557e-07
-8.24741e-07
2.30402e-07
-0.0011317
-1.1813e-06
-1.24016e-07
-3.78781e-08
0.00113168
-2.05209e-07
1.22091e-06
2.38293e-07
8.84432e-07
-1.79918e-07
-8.24276e-07
2.33314e-07
-0.000270084
1.21389e-06
1.1795e-06
-1.93498e-07
-1.98895e-07
0.000268083
1.32871e-07
1.31183e-07
-0.00118293
-9.06348e-08
-9.33259e-08
0.00118285
-0.00113198
-1.18285e-06
-1.19619e-07
-6.04051e-08
0.00113198
-2.00569e-07
1.23023e-06
2.42489e-07
8.80911e-07
-1.80793e-07
-8.28694e-07
2.2799e-07
-0.00113162
-1.1774e-06
-1.17828e-07
-5.90187e-08
0.00113161
-2.00567e-07
1.22465e-06
2.42499e-07
8.80402e-07
-1.83789e-07
-8.28901e-07
2.30314e-07
-0.000270102
1.2134e-06
1.17863e-06
-1.93422e-07
-1.99046e-07
0.000268102
1.35766e-07
1.37373e-07
-0.00118258
-8.64963e-08
-8.55334e-08
0.00118248
-0.00113196
-1.18308e-06
-1.49852e-07
-5.59069e-08
0.00113195
-2.02534e-07
1.22926e-06
2.39851e-07
8.8879e-07
-1.72857e-07
-8.20973e-07
2.35713e-07
-0.00113159
-1.17746e-06
-1.502e-07
-5.71609e-08
0.00113158
-2.02435e-07
1.22381e-06
2.39966e-07
8.88631e-07
-1.75509e-07
-8.20834e-07
2.3839e-07
-0.000270121
1.21114e-06
1.17754e-06
-1.91549e-07
-1.96229e-07
0.00026812
1.18475e-07
1.20527e-07
-0.00118218
-7.43718e-08
-7.17187e-08
0.00118208
-0.0011319
-1.18728e-06
-1.26182e-07
-3.48338e-08
0.00113188
-2.05528e-07
1.22543e-06
2.37765e-07
8.847e-07
-1.77388e-07
-8.23765e-07
2.30053e-07
-0.00113154
-1.18134e-06
-1.28921e-07
-3.76295e-08
0.00113152
-2.05045e-07
1.22033e-06
2.38233e-07
8.84989e-07
-1.79642e-07
-8.23258e-07
2.33205e-07
-0.000270131
1.21477e-06
1.18063e-06
-1.94347e-07
-1.99579e-07
0.00026813
1.30714e-07
1.29181e-07
-0.00118183
-8.78611e-08
-8.99288e-08
0.00118175
-0.00113182
-1.18119e-06
-1.1951e-07
-6.45586e-08
0.0011318
-1.99211e-07
1.2313e-06
2.4324e-07
8.81327e-07
-1.80119e-07
-8.28207e-07
2.28496e-07
-0.00113146
-1.17614e-06
-1.17787e-07
-6.09083e-08
0.00113144
-1.99793e-07
1.22525e-06
2.42614e-07
8.81116e-07
-1.82867e-07
-8.28077e-07
2.3099e-07
-0.000270145
1.21227e-06
1.17743e-06
-1.92376e-07
-1.9809e-07
0.000268145
1.47591e-07
1.45275e-07
-0.0011815
-1.02254e-07
-1.05911e-07
0.00118141
-0.00113179
-1.18439e-06
-1.4105e-07
-5.26143e-08
0.00113179
-2.04069e-07
1.22711e-06
2.37977e-07
8.85397e-07
-1.7607e-07
-8.23737e-07
2.3171e-07
-0.00113142
-1.17928e-06
-1.38782e-07
-5.03049e-08
0.00113142
-2.04336e-07
1.2212e-06
2.37783e-07
8.847e-07
-1.79204e-07
-8.24094e-07
2.33912e-07
-0.00027017
1.21323e-06
1.17847e-06
-1.93409e-07
-1.98999e-07
0.000268171
1.15592e-07
1.18939e-07
-0.00118117
-8.00927e-08
-7.78013e-08
0.0011811
-0.00113179
-1.18676e-06
-1.23384e-07
-4.49786e-08
0.00113178
-2.04811e-07
1.22556e-06
2.37858e-07
8.80948e-07
-1.80905e-07
-8.28405e-07
2.27236e-07
-0.00113142
-1.18059e-06
-1.25101e-07
-4.99166e-08
0.00113142
-2.04097e-07
1.22072e-06
2.38576e-07
8.80843e-07
-1.83467e-07
-8.28295e-07
2.30072e-07
-0.000270196
1.21416e-06
1.18114e-06
-1.95737e-07
-1.99993e-07
0.000268196
1.1687e-07
1.194e-07
-0.00118085
-7.52063e-08
-7.06882e-08
0.00118076
-0.00113177
-1.18487e-06
-1.28976e-07
-4.84283e-08
0.00113175
-2.03607e-07
1.22743e-06
2.38933e-07
8.84256e-07
-1.77686e-07
-8.25621e-07
2.30649e-07
-0.00113141
-1.17931e-06
-1.30627e-07
-4.91528e-08
0.0011314
-2.03566e-07
1.22194e-06
2.39013e-07
8.84313e-07
-1.80187e-07
-8.25243e-07
2.33469e-07
-0.000270213
1.21364e-06
1.17936e-06
-1.93521e-07
-1.98887e-07
0.000268213
1.37586e-07
1.35635e-07
-0.00118049
-9.3644e-08
-9.5996e-08
0.00118041
-0.00113171
-1.18369e-06
-1.25607e-07
-5.20566e-08
0.0011317
-2.02551e-07
1.22832e-06
2.39744e-07
8.83316e-07
-1.786e-07
-8.26135e-07
2.2948e-07
-0.00113135
-1.17833e-06
-1.25577e-07
-4.95835e-08
0.00113134
-2.0288e-07
1.22251e-06
2.39231e-07
8.8363e-07
-1.80795e-07
-8.25566e-07
2.32631e-07
-0.000270233
1.21311e-06
1.17821e-06
-1.92738e-07
-1.98467e-07
0.000268233
1.18813e-07
1.13575e-07
-0.00118019
-7.92751e-08
-8.66186e-08
0.00118012
-0.00113169
-1.18695e-06
-1.15894e-07
-5.26769e-08
0.0011317
-2.05169e-07
1.22519e-06
2.37432e-07
8.78256e-07
-1.83409e-07
-8.31194e-07
2.24559e-07
-0.00113132
-1.18295e-06
-1.09957e-07
-4.46734e-08
0.00113133
-2.06456e-07
1.21814e-06
2.36286e-07
8.76843e-07
-1.87195e-07
-8.32124e-07
2.25926e-07
-0.000270252
1.21891e-06
1.18313e-06
-1.9816e-07
-2.04583e-07
0.000268253
1.27254e-07
1.34694e-07
-0.00117993
-9.48869e-08
-8.90203e-08
0.00117985
-0.00113171
-1.18494e-06
-1.28397e-07
-4.61143e-08
0.0011317
-2.03613e-07
1.22755e-06
2.38575e-07
8.83652e-07
-1.79026e-07
-8.27516e-07
2.30449e-07
-0.00113134
-1.17667e-06
-1.3353e-07
-6.1186e-08
0.00113134
-2.00623e-07
1.22499e-06
2.41539e-07
8.83799e-07
-1.81466e-07
-8.27458e-07
2.338e-07
-0.000270288
1.20766e-06
1.17653e-06
-1.91714e-07
-1.94312e-07
0.000268289
1.19895e-07
1.2766e-07
-0.00117955
-8.30203e-08
-7.17598e-08
0.00117946
-0.00113166
-1.18998e-06
-1.31269e-07
-3.48439e-08
0.00113166
-2.10276e-07
1.22165e-06
2.32253e-07
8.83904e-07
-1.78308e-07
-8.24546e-07
2.28149e-07
-0.00113132
-1.18521e-06
-1.38572e-07
-3.12602e-08
0.00113132
-2.11926e-07
1.21487e-06
2.30177e-07
8.85987e-07
-1.78771e-07
-8.21976e-07
2.32744e-07
-0.000270306
1.22138e-06
1.18737e-06
-2.00016e-07
-2.054e-07
0.000268302
6.47507e-08
4.18462e-08
-0.00117931
-3.16728e-08
-5.63377e-08
0.0011793
-0.00113173
-1.18989e-06
-6.4428e-08
-5.67129e-08
0.00113176
-2.04734e-07
1.2235e-06
2.38372e-07
8.63421e-07
-1.96545e-07
-8.46809e-07
2.12057e-07
-0.00113136
-1.18743e-06
-4.60309e-08
-3.72639e-08
0.00113137
-2.06827e-07
1.21527e-06
2.3675e-07
8.59521e-07
-2.02632e-07
-8.50162e-07
2.11077e-07
-0.000270324
1.22446e-06
1.1842e-06
-2.00767e-07
-2.10624e-07
0.000268327
1.64103e-07
1.84177e-07
-0.00117917
-1.33672e-07
-1.17316e-07
0.00117907
-0.00113173
-1.18323e-06
-1.46128e-07
-3.90738e-08
0.00113171
-2.04235e-07
1.22867e-06
2.36981e-07
8.9012e-07
-1.73136e-07
-8.21337e-07
2.35296e-07
-0.00113135
-1.17327e-06
-1.60326e-07
-6.69479e-08
0.00113134
-1.99918e-07
1.22752e-06
2.40958e-07
8.9208e-07
-1.73808e-07
-8.19696e-07
2.40451e-07
-0.000270373
1.20193e-06
1.17531e-06
-1.89856e-07
-1.88616e-07
0.000268374
1.3633e-07
1.42471e-07
-0.00117871
-9.67249e-08
-8.40246e-08
0.00117862
-0.00113165
-1.18837e-06
-1.44079e-07
-4.06448e-08
0.00113166
-2.08054e-07
1.22299e-06
2.33776e-07
8.86447e-07
-1.74185e-07
-8.20169e-07
2.29944e-07
-0.00113133
-1.18423e-06
-1.50684e-07
-3.33354e-08
0.00113133
-2.10049e-07
1.21573e-06
2.31555e-07
8.88153e-07
-1.75025e-07
-8.1784e-07
2.33994e-07
-0.000270384
1.22194e-06
1.18642e-06
-1.97736e-07
-2.04683e-07
0.000268378
3.52968e-08
1.13779e-08
-0.00117847
2.73049e-09
-2.4171e-08
0.00117844
-0.00113167
-1.19218e-06
-5.21109e-08
-4.41315e-08
0.00113168
-2.0651e-07
1.21982e-06
2.33995e-07
8.61635e-07
-1.92358e-07
-8.44101e-07
2.09071e-07
-0.0011313
-1.18863e-06
-3.47726e-08
-2.78764e-08
0.00113129
-2.07805e-07
1.21256e-06
2.32848e-07
8.585e-07
-1.97689e-07
-8.46963e-07
2.09134e-07
-0.000270382
1.22476e-06
1.18438e-06
-1.98557e-07
-2.08402e-07
0.00026838
1.33671e-07
1.454e-07
-0.00117832
-1.0999e-07
-1.01478e-07
0.00117825
-0.00113169
-1.18457e-06
-1.20688e-07
-4.65538e-08
0.00113171
-2.03255e-07
1.22364e-06
2.31618e-07
8.71018e-07
-1.77875e-07
-8.29136e-07
2.14367e-07
-0.00113129
-1.17767e-06
-1.28003e-07
-5.86429e-08
0.00113133
-2.02138e-07
1.21936e-06
2.32613e-07
8.71863e-07
-1.79618e-07
-8.28128e-07
2.18081e-07
-0.000270428
1.20963e-06
1.18078e-06
-1.94422e-07
-1.94948e-07
0.000268427
1.48832e-07
1.54962e-07
-0.00117802
-1.28841e-07
-1.25021e-07
0.00117797
-0.00113176
-1.18883e-06
-1.29606e-07
-3.19914e-08
0.0011318
-2.05625e-07
1.21251e-06
2.22567e-07
8.67899e-07
-1.69903e-07
-8.22188e-07
2.04188e-07
-0.00113142
-1.1804e-06
-1.38365e-07
-2.89176e-08
0.00113146
-2.05227e-07
1.2045e-06
2.20223e-07
8.65242e-07
-1.69753e-07
-8.18987e-07
2.06903e-07
-0.000270487
1.2198e-06
1.18271e-06
-1.87828e-07
-1.93561e-07
0.000268466
9.3583e-07
9.41048e-07
-0.00117774
-8.10932e-07
-8.02079e-07
0.00117747
-0.00113209
-1.09663e-06
-9.58447e-07
-4.17984e-07
0.0011325
-1.20909e-07
1.37609e-06
3.1432e-07
1.00715e-06
-7.93986e-08
-7.29892e-07
2.97971e-07
-0.00113176
-1.08783e-06
-9.69717e-07
-4.29251e-07
0.00113219
-1.20402e-07
1.37103e-06
3.17382e-07
1.00441e-06
-8.45174e-08
-7.26785e-07
3.01027e-07
-0.000270585
1.13089e-06
1.08747e-06
-1.00629e-07
-1.03791e-07
0.000268571
5.45315e-06
5.44475e-06
-0.00116433
-1.16838e-05
-1.15826e-05
0.000283635
0.000285483
0.000285387
0.000285388
4.49243e-06
6.74855e-06
7.16143e-06
4.49522e-06
6.74799e-06
7.16368e-06
-0.000280667
5.40373e-06
-5.44408e-06
5.94579e-06
-3.41694e-06
0.000278179
-0.000280642
-5.44584e-06
5.40801e-06
-3.42387e-06
5.94241e-06
0.000278161
-0.000271514
-5.39434e-06
-5.40711e-06
5.74865e-06
5.73585e-06
0.000270831
-1.26304e-06
-1.22567e-06
0.000270093
-0.000268079
2.33301e-07
2.41445e-07
0.0011313
-1.26706e-07
-0.00113133
-4.58214e-08
-1.21916e-06
2.45586e-07
-2.08816e-07
-8.24153e-07
2.31963e-07
-1.76825e-07
8.85668e-07
1.26981e-06
0.00113177
-1.33302e-07
-0.00113179
-5.28644e-08
-1.22374e-06
2.49612e-07
-2.10503e-07
-8.29028e-07
2.35676e-07
-1.78803e-07
8.92134e-07
-1.23068e-06
0.000270127
-0.000268104
2.37833e-07
2.39729e-07
0.00113241
-1.28323e-07
-0.00113244
-4.38815e-08
-1.18263e-06
2.42611e-07
-2.06593e-07
-8.26582e-07
2.35062e-07
-1.79277e-07
8.88829e-07
1.26461e-06
0.00113142
-1.34176e-07
-0.00113144
-5.49043e-08
-1.21794e-06
2.49982e-07
-2.10117e-07
-8.26192e-07
2.35661e-07
-1.78737e-07
8.89217e-07
-1.3124e-07
-0.00113218
-5.54789e-08
-1.18306e-06
2.41896e-07
-2.01571e-07
-8.23862e-07
2.32886e-07
8.86319e-07
-1.76272e-07
1.25833e-06
0.0011312
-1.26081e-07
-0.00113123
-4.77345e-08
-1.21314e-06
2.43751e-07
-2.0519e-07
-8.24583e-07
2.31768e-07
-1.77143e-07
8.85365e-07
-1.22552e-06
0.000270075
-0.000268063
2.35501e-07
2.42421e-07
-1.31989e-07
-0.00113181
-5.75699e-08
-1.17717e-06
2.4232e-07
-2.01141e-07
-8.23732e-07
2.35462e-07
8.86158e-07
-1.79033e-07
1.22366e-06
0.00113231
-1.27586e-07
-0.00113233
-4.57339e-08
-1.17936e-06
2.40744e-07
-2.03048e-07
-8.24377e-07
2.34871e-07
-1.79587e-07
8.8584e-07
-0.000268073
2.36475e-07
2.4215e-07
1.2193e-06
1.18276e-06
-1.90897e-07
-1.98293e-07
0.00026808
-1.26308e-06
-1.22609e-06
0.000270099
-0.000268084
2.3333e-07
2.41077e-07
-4.50026e-08
0.00113128
-2.08918e-07
1.26284e-06
2.45462e-07
8.85632e-07
-1.76812e-07
-8.24129e-07
2.31937e-07
-1.22357e-06
-1.33008e-07
-5.29827e-08
0.00113175
-2.10489e-07
1.26983e-06
2.49466e-07
8.9234e-07
-1.78553e-07
-8.28748e-07
2.35895e-07
0.00113121
-1.25149e-07
-0.00113123
-5.14345e-08
-1.21879e-06
2.45981e-07
-2.08253e-07
-8.2466e-07
2.31152e-07
-1.7721e-07
8.84706e-07
1.26705e-06
0.00113167
-1.25164e-07
-0.0011317
-4.16524e-08
-1.22557e-06
2.46635e-07
-2.12864e-07
-8.29201e-07
2.34829e-07
-1.79008e-07
8.91344e-07
-1.92126e-07
-1.94531e-07
0.000268107
-1.22693e-06
0.000270132
-0.00026811
2.34906e-07
2.37307e-07
-4.27702e-08
0.00113238
-2.06672e-07
1.22549e-06
2.42518e-07
8.88734e-07
-1.7932e-07
-8.26586e-07
2.34984e-07
-1.21773e-06
-1.34136e-07
-5.53577e-08
0.0011314
-2.10077e-07
1.26466e-06
2.49829e-07
8.89497e-07
-1.78446e-07
-8.25868e-07
2.35942e-07
0.00113232
-1.26527e-07
-0.00113233
-5.05721e-08
-1.18194e-06
2.43446e-07
-2.05647e-07
-8.27361e-07
2.33965e-07
-1.79959e-07
8.8757e-07
1.2616e-06
0.00113133
-1.26187e-07
-0.00113136
-4.2027e-08
-1.21998e-06
2.46566e-07
-2.12864e-07
-8.26057e-07
2.3501e-07
-1.78719e-07
8.88754e-07
-1.27e-07
-4.95589e-08
0.00113118
-2.05021e-07
1.25848e-06
2.43769e-07
8.85738e-07
-1.76713e-07
2.32203e-07
-8.24217e-07
-1.279e-07
-0.00113209
-3.94312e-08
-1.18626e-06
2.38376e-07
-2.04948e-07
-8.23276e-07
2.32249e-07
8.861e-07
-1.75982e-07
1.25741e-06
0.00113111
-1.28503e-07
-0.00113113
-5.16035e-08
-1.21334e-06
2.42602e-07
-2.05875e-07
-8.23672e-07
2.32175e-07
-1.76175e-07
8.85801e-07
-1.89301e-07
-1.96852e-07
0.000268066
-1.22131e-06
0.000270081
-0.00026807
2.32223e-07
2.39916e-07
-1.28886e-07
-4.72209e-08
0.00113228
-2.02898e-07
1.22379e-06
2.4076e-07
8.86224e-07
-1.79157e-07
2.35298e-07
-8.23992e-07
-1.29472e-07
-0.00113172
-3.97602e-08
-1.18078e-06
2.38224e-07
-2.0506e-07
-8.22763e-07
2.35282e-07
8.86375e-07
-1.78258e-07
1.22313e-06
0.00113222
-1.30076e-07
-0.00113224
-5.06132e-08
-1.17927e-06
2.40097e-07
-2.0333e-07
-8.23636e-07
2.34978e-07
-1.78874e-07
8.86046e-07
-0.00026808
2.3569e-07
2.40941e-07
1.21849e-06
1.18139e-06
-1.90487e-07
-1.98344e-07
0.000268088
-1.2637e-06
-1.22743e-06
0.000270124
-0.000268107
2.33521e-07
2.40827e-07
-5.54182e-08
0.00113119
-2.07843e-07
1.26332e-06
2.46361e-07
8.83986e-07
-1.77742e-07
-8.25282e-07
2.30516e-07
-1.22667e-06
-1.22198e-07
-3.70887e-08
0.00113165
-2.1371e-07
1.26594e-06
2.45916e-07
8.90028e-07
-1.80077e-07
-8.3024e-07
2.33503e-07
0.00113118
-1.30943e-07
-0.00113118
-5.9031e-08
-1.2179e-06
2.46733e-07
-2.07179e-07
-8.26282e-07
2.29892e-07
-1.78551e-07
8.83163e-07
1.26686e-06
0.00113159
-1.22792e-07
-0.00113161
-4.28382e-08
-1.22601e-06
2.4783e-07
-2.12044e-07
-8.33236e-07
2.30831e-07
-1.82973e-07
8.87064e-07
-1.9469e-07
-1.97289e-07
0.00026811
-1.22927e-06
0.000270144
-0.00026812
2.35637e-07
2.36324e-07
-5.60597e-08
0.0011323
-2.04968e-07
1.2266e-06
2.44109e-07
8.86793e-07
-1.80586e-07
-8.28063e-07
2.33233e-07
-1.22129e-06
-1.22303e-07
-3.59236e-08
0.0011313
-2.1392e-07
1.26027e-06
2.45645e-07
8.87277e-07
-1.79935e-07
-8.27204e-07
2.33501e-07
0.00113229
-1.29355e-07
-0.00113229
-6.23137e-08
-1.18025e-06
2.44804e-07
-2.0385e-07
-8.29277e-07
2.3246e-07
-1.81604e-07
8.85758e-07
1.261e-06
0.00113125
-1.2136e-07
-0.00113126
-4.04625e-08
-1.22087e-06
2.47526e-07
-2.12335e-07
-8.30591e-07
2.3062e-07
-1.83113e-07
8.83951e-07
-1.27078e-07
-5.07205e-08
0.0011311
-2.0624e-07
1.25682e-06
2.42289e-07
8.84789e-07
-1.76973e-07
2.31138e-07
-8.24426e-07
-1.15681e-07
-0.001132
-5.41393e-08
-1.18394e-06
2.41695e-07
-2.01587e-07
-8.28856e-07
2.27073e-07
8.80432e-07
-1.814e-07
1.25671e-06
0.00113106
-1.23754e-07
-0.00113107
-4.88268e-08
-1.21403e-06
2.42756e-07
-2.05728e-07
-8.27274e-07
2.28523e-07
-1.79755e-07
8.81987e-07
-1.92301e-07
-1.99827e-07
0.00026807
-1.22357e-06
0.000270091
-0.000268078
2.3298e-07
2.38556e-07
-1.27819e-07
-5.1199e-08
0.0011322
-2.03367e-07
1.22288e-06
2.40118e-07
8.84837e-07
-1.79861e-07
2.33764e-07
-8.24589e-07
-1.14124e-07
-0.00113163
-5.20775e-08
-1.17864e-06
2.41615e-07
-2.0171e-07
-8.2892e-07
2.294e-07
8.80051e-07
-1.8438e-07
1.22322e-06
0.00113217
-1.21863e-07
-0.00113218
-5.21601e-08
-1.17906e-06
2.40857e-07
-2.02414e-07
-8.2772e-07
2.31014e-07
-1.82871e-07
8.81835e-07
-0.000268097
2.34935e-07
2.39692e-07
1.21779e-06
1.1803e-06
-1.90008e-07
-1.98107e-07
0.000268114
-1.26313e-06
-1.22574e-06
0.00027014
-0.000268126
2.33388e-07
2.41579e-07
-5.70597e-08
0.00113117
-2.07201e-07
1.26376e-06
2.4663e-07
8.83528e-07
-1.78137e-07
-8.25994e-07
2.30385e-07
-1.22442e-06
-1.26688e-07
-5.12125e-08
0.00113159
-2.10344e-07
1.26853e-06
2.49483e-07
8.87213e-07
-1.82754e-07
-8.33329e-07
2.31268e-07
0.00113113
-1.3605e-07
-0.00113115
-4.62534e-08
-1.218e-06
2.45323e-07
-2.08147e-07
-8.23324e-07
2.32878e-07
-1.75558e-07
8.86158e-07
1.27249e-06
0.00113157
-1.4058e-07
-0.00113158
-7.03478e-08
-1.21988e-06
2.52033e-07
-2.07069e-07
-8.29459e-07
2.35658e-07
-1.78595e-07
8.91436e-07
-1.92945e-07
-1.96517e-07
0.000268126
-1.23036e-06
0.00027017
-0.000268146
2.37181e-07
2.41626e-07
-5.95682e-08
0.00113228
-2.04083e-07
1.22726e-06
2.44438e-07
8.86186e-07
-1.81112e-07
-8.28955e-07
2.33034e-07
-1.21921e-06
-1.25505e-07
-4.96254e-08
0.00113124
-2.10555e-07
1.26272e-06
2.49248e-07
8.84146e-07
-1.82816e-07
-8.30665e-07
2.31145e-07
0.00113224
-1.36917e-07
-0.00113226
-4.44994e-08
-1.18143e-06
2.4227e-07
-2.05953e-07
-8.25887e-07
2.35934e-07
-1.78097e-07
8.89223e-07
1.267e-06
0.00113122
-1.40891e-07
-0.00113123
-7.1343e-08
-1.21438e-06
2.52103e-07
-2.06998e-07
-8.26563e-07
2.35647e-07
-1.78502e-07
8.88596e-07
-1.25381e-07
-5.01019e-08
0.00113105
-2.05106e-07
1.25731e-06
2.43323e-07
8.81972e-07
-1.79636e-07
2.28816e-07
-8.27432e-07
-1.44214e-07
-0.00113196
-6.16613e-08
-1.18206e-06
2.41301e-07
-2.0112e-07
-8.22822e-07
2.34384e-07
8.87128e-07
-1.74505e-07
1.25919e-06
0.00113101
-1.37554e-07
-0.00113103
-5.53908e-08
-1.21109e-06
2.44236e-07
-2.0372e-07
-8.2386e-07
2.32778e-07
-1.7581e-07
8.85796e-07
-1.90365e-07
-1.99309e-07
0.000268085
-1.22489e-06
0.000270118
-0.000268105
2.3459e-07
2.44128e-07
-1.23569e-07
-5.27615e-08
0.00113216
-2.02043e-07
1.22356e-06
2.41126e-07
8.81976e-07
-1.826e-07
2.31483e-07
-8.2776e-07
-1.43788e-07
-0.0011316
-6.2386e-08
-1.17644e-06
2.41347e-07
-2.01061e-07
-8.22777e-07
2.36945e-07
8.86917e-07
-1.77285e-07
1.22442e-06
0.00113212
-1.3871e-07
-0.00113213
-5.37781e-08
-1.17736e-06
2.41103e-07
-2.01674e-07
-8.23552e-07
2.35971e-07
-1.78177e-07
8.8639e-07
-0.000268117
2.36881e-07
2.42696e-07
1.21841e-06
1.18196e-06
-1.9012e-07
-1.97421e-07
0.000268127
-1.26034e-06
-1.22308e-06
0.000270142
-0.000268129
2.30935e-07
2.38916e-07
-4.3475e-08
0.00113111
-2.08839e-07
1.26263e-06
2.44618e-07
8.86662e-07
-1.74969e-07
-8.22678e-07
2.33287e-07
-1.22007e-06
-1.42229e-07
-6.90007e-08
0.00113156
-2.07796e-07
1.27206e-06
2.51065e-07
8.92696e-07
-1.77331e-07
-8.28116e-07
2.36723e-07
0.00113103
-1.24596e-07
-0.00113106
-4.04018e-08
-1.22047e-06
2.43258e-07
-2.1044e-07
-8.23609e-07
2.30629e-07
-1.76963e-07
8.85025e-07
1.26641e-06
0.00113151
-1.28525e-07
-0.00113153
-4.44783e-08
-1.22521e-06
2.45953e-07
-2.13054e-07
-8.27843e-07
2.34745e-07
-1.78465e-07
8.92118e-07
-1.91993e-07
-1.91967e-07
0.000268151
-1.22524e-06
0.000270179
-0.000268158
2.33588e-07
2.36543e-07
-4.11e-08
0.00113221
-2.06727e-07
1.22516e-06
2.41527e-07
8.89792e-07
-1.77462e-07
-8.25131e-07
2.36378e-07
-1.21444e-06
-1.42922e-07
-7.05999e-08
0.00113122
-2.0759e-07
1.2667e-06
2.51284e-07
8.89883e-07
-1.77266e-07
-8.25152e-07
2.36689e-07
0.00113214
-1.26762e-07
-0.00113216
-3.83877e-08
-1.18384e-06
2.40417e-07
-2.081e-07
-8.26119e-07
2.3368e-07
-1.79497e-07
8.88134e-07
1.26154e-06
0.00113117
-1.29748e-07
-0.00113119
-4.72284e-08
-1.21911e-06
2.4653e-07
-2.1245e-07
-8.25018e-07
2.34743e-07
-1.78451e-07
8.89225e-07
-1.40649e-07
-5.57431e-08
0.001131
-2.04125e-07
1.25895e-06
2.43683e-07
8.86975e-07
-1.74591e-07
2.33814e-07
-8.22569e-07
-1.37891e-07
-0.00113192
-3.47836e-08
-1.18708e-06
2.36795e-07
-2.0618e-07
-8.21266e-07
2.32658e-07
8.87461e-07
-1.74882e-07
1.2558e-06
0.00113095
-1.33349e-07
-0.00113097
-4.73886e-08
-1.21398e-06
2.41021e-07
-2.07004e-07
-8.22127e-07
2.32176e-07
-1.75529e-07
8.86742e-07
-1.89423e-07
-1.94439e-07
0.00026811
-1.22012e-06
0.000270129
-0.000268118
2.3128e-07
2.39592e-07
-1.42701e-07
-5.33514e-08
0.0011321
-2.02153e-07
1.22411e-06
2.40532e-07
8.87609e-07
-1.76912e-07
2.37027e-07
-8.22192e-07
-1.40225e-07
-0.00113156
-3.76903e-08
-1.1812e-06
2.37293e-07
-2.05716e-07
-8.20917e-07
2.3559e-07
8.87595e-07
-1.77344e-07
1.22136e-06
0.00113206
-1.35324e-07
-0.00113208
-4.50791e-08
-1.18003e-06
2.38305e-07
-2.04625e-07
-8.22081e-07
2.3505e-07
-1.78178e-07
8.86998e-07
-0.000268128
2.34227e-07
2.39588e-07
1.22045e-06
1.18371e-06
-1.92298e-07
-1.99874e-07
0.00026813
-1.26384e-06
-1.22742e-06
0.000270162
-0.000268145
2.33531e-07
2.40845e-07
-4.3908e-08
0.00113101
-2.09826e-07
1.26062e-06
2.44102e-07
8.83101e-07
-1.7869e-07
-8.25462e-07
2.28902e-07
-1.22671e-06
-1.20019e-07
-3.84757e-08
0.00113149
-2.13778e-07
1.26521e-06
2.45532e-07
8.90036e-07
-1.80282e-07
-8.29682e-07
2.32807e-07
0.00113098
-1.21936e-07
-0.00113099
-6.107e-08
-1.21728e-06
2.47319e-07
-2.06168e-07
-8.27644e-07
2.2856e-07
-1.79842e-07
8.81739e-07
1.26698e-06
0.00113142
-1.19954e-07
-0.00113144
-4.45362e-08
-1.22531e-06
2.47882e-07
-2.11303e-07
-8.33035e-07
2.31297e-07
-1.82545e-07
8.87433e-07
-1.95223e-07
-1.97476e-07
0.000268158
-1.23024e-06
0.00027019
-0.000268166
2.36633e-07
2.36482e-07
-4.2596e-08
0.00113212
-2.07354e-07
1.22349e-06
2.41407e-07
8.86231e-07
-1.81225e-07
-8.27932e-07
2.31931e-07
-1.22064e-06
-1.21589e-07
-4.07931e-08
0.00113115
-2.13255e-07
1.26024e-06
2.45959e-07
8.87315e-07
-1.80037e-07
-8.26756e-07
2.33066e-07
0.00113209
-1.21449e-07
-0.00113209
-6.3147e-08
-1.17989e-06
2.45373e-07
-2.02986e-07
-8.3054e-07
2.31094e-07
-1.82837e-07
8.8438e-07
1.26095e-06
0.00113108
-1.20004e-07
-0.0011311
-4.21747e-08
-1.22025e-06
2.4726e-07
-2.11832e-07
-8.29839e-07
2.31601e-07
-1.82094e-07
8.84873e-07
-1.25194e-07
-4.55299e-08
0.00113094
-2.07095e-07
1.25525e-06
2.41148e-07
8.84827e-07
-1.7718e-07
2.30387e-07
-8.23806e-07
-1.12976e-07
-0.00113183
-5.78264e-08
-1.18257e-06
2.4278e-07
-2.00013e-07
-8.28898e-07
2.27135e-07
8.80471e-07
-1.81268e-07
1.25709e-06
0.00113088
-1.17746e-07
-0.0011309
-5.07755e-08
-1.21315e-06
2.43363e-07
-2.04602e-07
-8.27706e-07
2.28244e-07
-1.80005e-07
8.81624e-07
-1.92335e-07
-1.99503e-07
0.000268119
-1.22446e-06
0.000270139
-0.000268126
2.3395e-07
2.38593e-07
-1.26675e-07
-4.39226e-08
0.00113204
-2.04535e-07
1.221e-06
2.38609e-07
8.84962e-07
-1.79932e-07
2.33182e-07
-8.23912e-07
-1.12461e-07
-0.00113148
-5.57984e-08
-1.17723e-06
2.42427e-07
-2.00304e-07
-8.28546e-07
2.29876e-07
8.80521e-07
-1.83795e-07
1.2234e-06
0.00113199
-1.1693e-07
-0.001132
-5.30075e-08
-1.17846e-06
2.4138e-07
-2.01488e-07
-8.27988e-07
2.3078e-07
-1.83e-07
8.81582e-07
-0.00026814
2.35281e-07
2.40126e-07
1.21642e-06
1.17878e-06
-1.89002e-07
-1.97298e-07
0.000268153
-1.26292e-06
-1.2268e-06
0.000270193
-0.000268176
2.33065e-07
2.40278e-07
-6.4018e-08
0.00113097
-2.0578e-07
1.2645e-06
2.47498e-07
8.82994e-07
-1.7833e-07
-8.26539e-07
2.30181e-07
-1.2241e-06
-1.28841e-07
-4.97677e-08
0.00113141
-2.10521e-07
1.26803e-06
2.48483e-07
8.88369e-07
-1.81334e-07
-8.32223e-07
2.32654e-07
0.00113097
-1.4866e-07
-0.00113097
-5.62411e-08
-1.21736e-06
2.44908e-07
-2.08043e-07
-8.22768e-07
2.32894e-07
-1.74906e-07
8.86366e-07
1.26793e-06
0.0011314
-1.46058e-07
-0.0011314
-5.29407e-08
-1.2235e-06
2.47301e-07
-2.1131e-07
-8.29064e-07
2.34954e-07
-1.78366e-07
8.9121e-07
-1.91396e-07
-1.96096e-07
0.000268172
-1.22874e-06
0.000270218
-0.000268193
2.35002e-07
2.37192e-07
-6.7174e-08
0.00113208
-2.0236e-07
1.22832e-06
2.45763e-07
8.85425e-07
-1.81544e-07
-8.29647e-07
2.32506e-07
-1.21933e-06
-1.28033e-07
-4.60665e-08
0.00113107
-2.11307e-07
1.26175e-06
2.47655e-07
8.85635e-07
-1.81109e-07
-8.29143e-07
2.32713e-07
0.00113208
-1.45719e-07
-0.00113208
-6.03794e-08
-1.17952e-06
2.43041e-07
-2.04602e-07
-8.26059e-07
2.35297e-07
-1.78168e-07
8.88738e-07
1.26192e-06
0.00113105
-1.43215e-07
-0.00113105
-4.9467e-08
-1.21857e-06
2.46944e-07
-2.11726e-07
-8.26599e-07
2.34331e-07
-1.78835e-07
8.87859e-07
-1.24601e-07
-5.33606e-08
0.00113087
-2.04185e-07
1.25778e-06
2.43573e-07
8.82349e-07
-1.78988e-07
2.29402e-07
-8.27059e-07
-1.39259e-07
-0.00113179
-5.90476e-08
-1.18275e-06
2.39387e-07
-2.02449e-07
-8.24041e-07
2.32021e-07
8.85302e-07
-1.75992e-07
1.25673e-06
0.00113085
-1.42108e-07
-0.00113085
-5.16037e-08
-1.2126e-06
2.41546e-07
-2.05836e-07
-8.23989e-07
2.31798e-07
-1.75979e-07
8.85151e-07
-1.89051e-07
-1.9916e-07
0.000268132
-1.22257e-06
0.000270164
-0.00026815
2.31907e-07
2.39362e-07
-1.23181e-07
-5.66994e-08
0.00113197
-2.00917e-07
1.22423e-06
2.41728e-07
8.82233e-07
-1.82081e-07
2.31857e-07
-8.27426e-07
-1.36262e-07
-0.00113142
-5.50285e-08
-1.17787e-06
2.38885e-07
-2.03005e-07
-8.24349e-07
2.34128e-07
8.84672e-07
-1.79167e-07
1.22323e-06
0.00113196
-1.39802e-07
-0.00113196
-5.57264e-08
-1.17764e-06
2.3964e-07
-2.02538e-07
-8.24333e-07
2.34334e-07
-1.79044e-07
8.85097e-07
-0.000268164
2.34877e-07
2.39685e-07
1.21828e-06
1.18072e-06
-1.90369e-07
-1.98499e-07
0.000268182
-1.26053e-06
-1.22255e-06
0.000270215
-0.000268199
2.29356e-07
2.38065e-07
-5.26821e-08
0.00113098
-2.08898e-07
1.26204e-06
2.44229e-07
8.85957e-07
-1.7546e-07
-8.22997e-07
2.32151e-07
-1.22403e-06
-1.44481e-07
-5.17166e-08
0.00113141
-2.11811e-07
1.26741e-06
2.46961e-07
8.90756e-07
-1.79007e-07
-8.29327e-07
2.34114e-07
0.00113097
-1.23733e-07
-0.00113097
-4.56837e-08
-1.22007e-06
2.43509e-07
-2.09789e-07
-8.27518e-07
2.27603e-07
-1.80187e-07
8.81484e-07
1.26725e-06
0.0011314
-1.21673e-07
-0.0011314
-5.23993e-08
-1.2246e-06
2.47803e-07
-2.11304e-07
-8.33947e-07
2.29394e-07
-1.83961e-07
8.86161e-07
-1.94033e-07
-1.96007e-07
0.000268199
-1.22525e-06
0.000270241
-0.000268217
2.32017e-07
2.36107e-07
-5.57354e-08
0.00113208
-2.05788e-07
1.22559e-06
2.4199e-07
8.88578e-07
-1.78485e-07
-8.26042e-07
2.3483e-07
-1.21874e-06
-1.41747e-07
-4.979e-08
0.00113105
-2.11871e-07
1.26174e-06
2.4695e-07
8.87265e-07
-1.79584e-07
-8.27017e-07
2.33423e-07
0.00113207
-1.25491e-07
-0.00113208
-4.18009e-08
-1.184e-06
2.39835e-07
-2.08149e-07
-8.29744e-07
2.30996e-07
-1.82386e-07
8.84888e-07
1.26216e-06
0.00113105
-1.21668e-07
-0.00113105
-5.60694e-08
-1.21862e-06
2.48242e-07
-2.10799e-07
-8.31389e-07
2.29297e-07
-1.84053e-07
8.83028e-07
-1.42823e-07
-5.09799e-08
0.00113085
-2.06421e-07
1.25613e-06
2.41147e-07
8.84946e-07
-1.7635e-07
2.31263e-07
-8.24032e-07
-1.27459e-07
-0.00113179
-4.30669e-08
-1.18691e-06
2.3744e-07
-2.0524e-07
-8.27301e-07
2.27847e-07
8.81727e-07
-1.80021e-07
1.25576e-06
0.00113085
-1.25433e-07
-0.00113085
-5.2109e-08
-1.21398e-06
2.4163e-07
-2.06209e-07
-8.27753e-07
2.27408e-07
-1.80402e-07
8.8126e-07
-1.91858e-07
-1.9872e-07
0.000268156
-1.22022e-06
0.000270189
-0.000268175
2.29743e-07
2.38848e-07
-1.40793e-07
-5.38686e-08
0.00113196
-2.03367e-07
1.22239e-06
2.38949e-07
8.8498e-07
-1.79299e-07
2.33933e-07
-8.24291e-07
-1.27838e-07
-0.00113142
-4.70691e-08
-1.18091e-06
2.38042e-07
-2.04657e-07
-8.27337e-07
2.30406e-07
8.81411e-07
-1.82823e-07
1.22056e-06
0.00113196
-1.26994e-07
-0.00113196
-4.8108e-08
-1.18058e-06
2.38006e-07
-2.04567e-07
-8.27475e-07
2.30726e-07
-1.82674e-07
8.81854e-07
-0.00026819
2.32271e-07
2.38421e-07
1.22072e-06
1.185e-06
-1.93829e-07
-2.00551e-07
0.000268204
-1.26032e-06
-1.22299e-06
0.000270226
-0.000268212
2.30491e-07
2.38414e-07
-4.30328e-08
0.00113096
-2.10306e-07
1.25987e-06
2.42939e-07
8.80446e-07
-1.81354e-07
-8.2879e-07
2.26588e-07
-1.2244e-06
-1.15978e-07
-5.53966e-08
0.0011314
-2.10917e-07
1.26755e-06
2.48126e-07
8.85357e-07
-1.84874e-07
-8.35103e-07
2.28777e-07
0.00113091
-1.11827e-07
-0.00113093
-4.1377e-08
-1.22059e-06
2.43407e-07
-2.10105e-07
-8.2864e-07
2.27556e-07
-1.80777e-07
8.81058e-07
1.26803e-06
0.00113138
-1.19082e-07
-0.00113139
-5.68505e-08
-1.22387e-06
2.47847e-07
-2.10985e-07
-8.33102e-07
2.32016e-07
-1.82137e-07
8.88069e-07
-1.96127e-07
-1.96728e-07
0.000268223
-1.22713e-06
0.000270263
-0.000268239
2.34345e-07
2.37236e-07
-3.73275e-08
0.00113206
-2.08948e-07
1.22159e-06
2.39068e-07
8.83941e-07
-1.8346e-07
-8.30875e-07
2.3006e-07
-1.21841e-06
-1.17884e-07
-5.99927e-08
0.00113105
-2.104e-07
1.26251e-06
2.48593e-07
8.82624e-07
-1.84585e-07
-8.32194e-07
2.29087e-07
0.00113201
-1.15974e-07
-0.00113203
-3.82115e-08
-1.18419e-06
2.40643e-07
-2.07841e-07
-8.31039e-07
2.30584e-07
-1.83271e-07
8.84194e-07
1.2627e-06
0.00113104
-1.21853e-07
-0.00113105
-5.85171e-08
-1.21817e-06
2.47991e-07
-2.10813e-07
-8.29708e-07
2.32298e-07
-1.81665e-07
8.85618e-07
-1.19569e-07
-5.16757e-08
0.00113085
-2.06263e-07
1.25563e-06
2.41499e-07
8.805e-07
-1.81297e-07
2.26729e-07
-8.28816e-07
-1.26874e-07
-0.00113177
-4.89534e-08
-1.1853e-06
2.38821e-07
-2.03763e-07
-8.26764e-07
2.29943e-07
8.83238e-07
-1.78651e-07
1.25577e-06
0.00113082
-1.18384e-07
-0.00113083
-4.80974e-08
-1.2142e-06
2.41371e-07
-2.06518e-07
-8.27718e-07
2.28613e-07
-1.79784e-07
8.82091e-07
-1.93132e-07
-1.99023e-07
0.000268182
-1.22179e-06
0.000270213
-0.0002682
2.31881e-07
2.39887e-07
-1.22845e-07
-4.6021e-08
0.00113195
-2.0493e-07
1.22012e-06
2.37663e-07
8.81281e-07
-1.83403e-07
2.30178e-07
-8.28332e-07
-1.29357e-07
-0.00113142
-5.0667e-08
-1.17949e-06
2.38945e-07
-2.0359e-07
-8.2615e-07
2.32856e-07
8.8351e-07
-1.81009e-07
1.2212e-06
0.00113193
-1.22328e-07
-0.00113194
-4.51107e-08
-1.1805e-06
2.38648e-07
-2.04274e-07
-8.27417e-07
2.31609e-07
-1.82274e-07
8.82593e-07
-0.000268209
2.33733e-07
2.39125e-07
1.21965e-06
1.18264e-06
-1.91542e-07
-1.99391e-07
0.000268215
-1.26368e-06
-1.22757e-06
0.000270248
-0.000268231
2.33656e-07
2.4073e-07
-4.61437e-08
0.00113089
-2.0924e-07
1.26122e-06
2.44274e-07
8.82115e-07
-1.79787e-07
-8.2756e-07
2.2849e-07
-1.22415e-06
-1.23214e-07
-5.28015e-08
0.00113136
-2.11556e-07
1.26757e-06
2.47185e-07
8.89423e-07
-1.80786e-07
-8.31614e-07
2.33125e-07
0.00113087
-1.35014e-07
-0.00113087
-6.18474e-08
-1.21698e-06
2.46091e-07
-2.07026e-07
-8.2475e-07
2.31524e-07
-1.76835e-07
8.84973e-07
1.26613e-06
0.00113132
-1.30664e-07
-0.00113133
-4.14419e-08
-1.22552e-06
2.45897e-07
-2.12928e-07
-8.30233e-07
2.33659e-07
-1.79927e-07
8.90384e-07
-1.93639e-07
-1.95697e-07
0.000268243
-1.22847e-06
0.000270277
-0.000268253
2.35313e-07
2.35809e-07
-4.55358e-08
0.001132