/*--------------------------------*- C++ -*----------------------------------*\
| =========                 |                                                 |
| \\      /  F ield         | OpenFOAM: The Open Source CFD Toolbox           |
|  \\    /   O peration     | Version:  v1906                                 |
|   \\  /    A nd           | Web:      www.OpenFOAM.com                      |
|    \\/     M anipulation  |                                                 |
\*---------------------------------------------------------------------------*/
FoamFile
{
    version     2.0;
    format      ascii;
    class       surfaceScalarField;
    location    "1000";
    object      phi;
}
// * * * * * * * * * * * * * * * * * * * * * * * * * * * * * * * * * * * * * //

dimensions      [0 3 -1 0 0 0 0];
oriented        oriented;


internalField   nonuniform List<scalar> 
123728
(
-0.00104221
-1.45815e-05
-1.44777e-05
9.34771e-06
9.17762e-06
0.00105274
-0.00026146
-5.64183e-06
1.44583e-05
6.83957e-06
0.00105941
-4.53274e-06
-1.62486e-06
-2.21805e-06
-2.57554e-06
-6.59143e-06
-7.04427e-06
-3.16375e-06
-0.000263303
-0.000259727
-0.000262829
-0.000261437
-5.64682e-06
1.44873e-05
6.92911e-06
0.0010592
-4.53785e-06
-1.63504e-06
-2.22565e-06
-2.57985e-06
-6.58553e-06
-7.04034e-06
-3.16594e-06
-0.000259699
-0.000263274
-0.000262793
-0.000260564
5.61732e-06
5.65742e-06
-4.87815e-06
-4.87221e-06
0.00025904
-1.63187e-06
-1.63376e-06
-0.00106073
8.98536e-07
8.99306e-07
0.0010622
-0.00106267
-1.60665e-06
1.62783e-06
8.28416e-07
0.00106395
-6.53884e-07
7.84504e-07
-1.48154e-07
3.78011e-07
-8.00666e-07
-1.39484e-06
-2.90553e-07
-0.00106235
-1.60156e-06
1.63834e-06
8.23605e-07
0.00106363
-6.53863e-07
7.79016e-07
-1.48201e-07
3.75396e-07
-8.03194e-07
-1.39453e-06
-2.88007e-07
-0.000261533
1.63927e-06
1.60171e-06
-7.13268e-07
-7.16418e-07
0.000259722
-1.36113e-06
-1.36255e-06
-0.0010664
6.82252e-07
6.83062e-07
0.00106775
-0.0010679
-1.55715e-06
1.3673e-06
6.90356e-07
0.00106925
-6.2182e-07
8.38626e-07
-1.06569e-07
4.24393e-07
-7.80412e-07
-1.35997e-06
-2.45169e-07
-0.00106758
-1.55189e-06
1.36211e-06
6.95678e-07
0.00106892
-6.21815e-07
8.33213e-07
-1.06543e-07
4.24341e-07
-7.80336e-07
-1.35442e-06
-2.42611e-07
-0.000262766
1.58732e-06
1.55204e-06
-6.74946e-07
-6.83123e-07
0.000260984
-1.34098e-06
-1.34229e-06
-0.00107186
6.64409e-07
6.65261e-07
0.00107322
-0.00107326
-1.55555e-06
1.34196e-06
6.67271e-07
0.00107457
-6.19907e-07
8.63797e-07
-8.15871e-08
4.38224e-07
-7.79457e-07
-1.36936e-06
-2.20242e-07
-0.00107292
-1.55022e-06
1.34185e-06
6.67345e-07
0.00107424
-6.17202e-07
8.58364e-07
-8.40494e-08
4.38182e-07
-7.81904e-07
-1.36912e-06
-2.17684e-07
-0.000264044
1.58325e-06
1.55043e-06
-6.64599e-07
-6.70254e-07
0.000262245
-1.29597e-06
-1.29714e-06
-0.00107721
6.42272e-07
6.43165e-07
0.00107852
-0.00107844
-1.54741e-06
1.29685e-06
6.34108e-07
0.00107969
-6.07386e-07
8.91636e-07
-5.62649e-08
4.60261e-07
-7.68169e-07
-1.37182e-06
-1.88959e-07
-0.0010781
-1.54204e-06
1.2967e-06
6.34131e-07
0.00107936
-6.04669e-07
8.86215e-07
-5.86612e-08
4.60113e-07
-7.70663e-07
-1.37154e-06
-1.86469e-07
-0.000265263
1.57522e-06
1.54223e-06
-6.47621e-07
-6.53285e-07
0.000263446
-1.24845e-06
-1.24952e-06
-0.00108237
6.20381e-07
6.21297e-07
0.00108362
-0.00108337
-1.53906e-06
1.24923e-06
6.04459e-07
0.00108457
-5.95235e-07
9.17267e-07
-3.39196e-08
4.84539e-07
-7.53817e-07
-1.3692e-06
-1.58509e-07
-0.00108303
-1.53365e-06
1.24903e-06
6.04441e-07
0.00108423
-5.92441e-07
9.11873e-07
-3.62192e-08
4.84356e-07
-7.56437e-07
-1.369e-06
-1.55949e-07
-0.000266408
1.567e-06
1.53384e-06
-6.30785e-07
-6.36453e-07
0.000264575
-1.2044e-06
-1.20528e-06
-0.00108732
6.00867e-07
6.01758e-07
0.00108852
-0.00108806
-1.53245e-06
1.2049e-06
5.8053e-07
0.00108919
-5.85667e-07
9.40163e-07
-1.52477e-08
5.09215e-07
-7.40026e-07
-1.3649e-06
-1.30594e-07
-0.00108772
-1.52702e-06
1.20471e-06
5.80589e-07
0.00108885
-5.82833e-07
9.34728e-07
-1.74697e-08
5.09002e-07
-7.42738e-07
-1.36479e-06
-1.28069e-07
-0.00026748
1.5606e-06
1.52728e-06
-6.16254e-07
-6.21953e-07
0.00026563
-1.16566e-06
-1.16694e-06
-0.00109208
5.84433e-07
5.85376e-07
0.00109324
-0.00109251
-1.52804e-06
1.16661e-06
5.62532e-07
0.00109359
-5.79291e-07
9.60236e-07
-9.46594e-10
5.33231e-07
-7.27965e-07
-1.36079e-06
-1.05801e-07
-0.00109217
-1.5226e-06
1.16645e-06
5.62684e-07
0.00109325
-5.76441e-07
9.54839e-07
-2.80958e-09
5.32996e-07
-7.30607e-07
-1.36064e-06
-1.03319e-07
-0.000268483
1.55632e-06
1.52281e-06
-6.04197e-07
-6.09953e-07
0.000266618
-1.13197e-06
-1.13327e-06
-0.00109667
5.7035e-07
5.71026e-07
0.00109779
-0.00109676
-1.52692e-06
1.13308e-06
5.48945e-07
0.00109779
-5.76157e-07
9.76794e-07
1.65854e-08
5.55714e-07
-7.1752e-07
-1.35767e-06
-8.41258e-08
-0.00109641
-1.52139e-06
1.13298e-06
5.49012e-07
0.00109744
-5.73411e-07
9.71455e-07
1.37743e-08
5.55688e-07
-7.20017e-07
-1.35727e-06
-8.15929e-08
-0.000269423
1.55478e-06
1.52115e-06
-5.95434e-07
-6.01122e-07
0.000267544
-1.10336e-06
-1.10444e-06
-0.00110111
5.58647e-07
5.59312e-07
0.0011022
-0.00110081
-1.52717e-06
1.10439e-06
5.38293e-07
0.0011018
-5.7406e-07
9.91816e-07
3.06076e-08
5.77111e-07
-7.08143e-07
-1.3552e-06
-6.51515e-08
-0.00110046
-1.52172e-06
1.10427e-06
5.38395e-07
0.00110145
-5.71524e-07
9.86385e-07
2.76304e-08
5.77217e-07
-7.10566e-07
-1.3547e-06
-6.26813e-08
-0.000270305
1.55528e-06
1.5215e-06
-5.89128e-07
-5.9487e-07
0.000268412
-1.07833e-06
-1.0792e-06
-0.00110542
5.4864e-07
5.49326e-07
0.00110648
-0.0011047
-1.5281e-06
1.07919e-06
5.2883e-07
0.00110564
-5.69868e-07
1.00613e-06
4.08496e-08
5.97033e-07
-6.98872e-07
-1.35242e-06
-4.90259e-08
-0.00110435
-1.52263e-06
1.07915e-06
5.28921e-07
0.0011053
-5.69955e-07
1.00054e-06
4.03998e-08
5.97198e-07
-7.01334e-07
-1.35214e-06
-4.64941e-08
-0.000271132
1.55689e-06
1.52299e-06
-5.84566e-07
-5.90325e-07
0.000269227
-1.05586e-06
-1.0568e-06
-0.00110962
5.39665e-07
5.40359e-07
0.00111065
-0.00110843
-1.52984e-06
1.05653e-06
5.19947e-07
0.00110933
-5.7045e-07
1.01996e-06
5.25888e-08
6.15968e-07
-6.88703e-07
-1.34859e-06
-3.48862e-08
-0.00110808
-1.52422e-06
1.05627e-06
5.19782e-07
0.00110899
-5.70016e-07
1.01446e-06
5.2686e-08
6.15881e-07
-6.91194e-07
-1.34845e-06
-3.23275e-08
-0.000271907
1.55861e-06
1.52461e-06
-5.7976e-07
-5.85538e-07
0.000269989
-1.03443e-06
-1.03545e-06
-0.00111371
5.31024e-07
5.3169e-07
0.00111472
-0.00111201
-1.53145e-06
1.03505e-06
5.10708e-07
0.00111288
-5.70019e-07
1.03337e-06
6.2093e-08
6.33441e-07
-6.77553e-07
-1.34407e-06
-2.24079e-08
-0.00111166
-1.52576e-06
1.03475e-06
5.10609e-07
0.00111253
-5.69743e-07
1.02794e-06
6.2576e-08
6.33333e-07
-6.80109e-07
-1.34381e-06
-1.99347e-08
-0.00027263
1.56007e-06
1.52591e-06
-5.74717e-07
-5.80634e-07
0.0002707
-1.01306e-06
-1.01399e-06
-0.0011177
5.22201e-07
5.22909e-07
0.00111868
-0.00111543
-1.53288e-06
1.01428e-06
5.00815e-07
0.00111627
-5.66224e-07
1.04566e-06
7.08351e-08
6.48582e-07
-6.65446e-07
-1.33831e-06
-1.20245e-08
-0.00111508
-1.52722e-06
1.01414e-06
5.00819e-07
0.00111592
-5.66408e-07
1.04024e-06
7.07579e-08
6.4857e-07
-6.67836e-07
-1.33801e-06
-9.58648e-09
-0.0002733
1.56155e-06
1.52742e-06
-5.69823e-07
-5.75401e-07
0.000271356
-9.92564e-07
-9.93261e-07
-0.00112159
5.13399e-07
5.14161e-07
0.00112255
-0.00111871
-1.53344e-06
9.9298e-07
4.9023e-07
0.00111951
-5.63095e-07
1.05891e-06
7.98516e-08
6.62845e-07
-6.50729e-07
-1.33004e-06
-2.90452e-09
-0.00111836
-1.52776e-06
9.9278e-07
4.90117e-07
0.00111916
-5.62856e-07
1.05337e-06
8.00276e-08
6.62909e-07
-6.53343e-07
-1.32984e-06
-7.09501e-10
-0.000273915
1.56214e-06
1.52785e-06
-5.62401e-07
-5.68143e-07
0.000271955
-9.71174e-07
-9.72007e-07
-0.00112539
5.04119e-07
5.04793e-07
0.00112633
-0.00112184
-1.53311e-06
9.7209e-07
4.77984e-07
0.00112259
-5.57093e-07
1.07111e-06
8.75953e-08
6.74531e-07
-6.36157e-07
-1.32141e-06
7.25496e-09
-0.00112148
-1.52759e-06
9.7182e-07
4.77445e-07
0.00112224
-5.56965e-07
1.06539e-06
8.76569e-08
6.74505e-07
-6.38714e-07
-1.32112e-06
1.05711e-08
-0.000274471
1.56207e-06
1.5277e-06
-5.54952e-07
-5.60706e-07
0.000272497
-9.50262e-07
-9.5087e-07
-0.00112909
4.94692e-07
4.95427e-07
0.00113
-0.0011248
-1.53226e-06
9.50681e-07
4.66115e-07
0.00112552
-5.50136e-07
1.08248e-06
9.48139e-08
6.85329e-07
-6.19769e-07
-1.31083e-06
1.75761e-08
-0.00112445
-1.52682e-06
9.50425e-07
4.65927e-07
0.00112516
-5.50158e-07
1.07675e-06
9.47881e-08
6.85402e-07
-6.22362e-07
-1.31057e-06
2.08022e-08
-0.000274966
1.56094e-06
1.52652e-06
-5.4626e-07
-5.52002e-07
0.000272976
-9.2761e-07
-9.28357e-07
-0.0011327
4.84071e-07
4.84755e-07
0.00113359
-0.0011276
-1.52983e-06
9.28623e-07
4.55063e-07
0.00112828
-5.39679e-07
1.09331e-06
1.0237e-07
6.9382e-07
-6.0347e-07
-1.29929e-06
2.54371e-08
-0.00112725
-1.52431e-06
9.28684e-07
4.54641e-07
0.00112792
-5.39773e-07
1.08769e-06
1.02478e-07
6.93815e-07
-6.05942e-07
-1.29891e-06
2.85787e-08
-0.000275395
1.55923e-06
1.52475e-06
-5.37512e-07
-5.43189e-07
0.000273391
-9.07219e-07
-9.07939e-07
-0.00113622
4.74791e-07
4.75391e-07
0.00113708
-0.00113024
-1.52712e-06
9.07651e-07
4.45245e-07
0.00113087
-5.3011e-07
1.10253e-06
1.07429e-07
7.02611e-07
-5.86508e-07
-1.28623e-06
3.35919e-08
-0.00112988
-1.52157e-06
9.07544e-07
4.45138e-07
0.00113051
-5.30131e-07
1.09675e-06
1.07396e-07
7.02517e-07
-5.89091e-07
-1.28611e-06
3.67119e-08
-0.000275756
1.55622e-06
1.52166e-06
-5.27307e-07
-5.33036e-07
0.000273739
-8.8661e-07
-8.86715e-07
-0.00113964
4.65351e-07
4.66173e-07
0.00114048
-0.00113269
-1.52309e-06
8.86269e-07
4.34166e-07
0.00113328
-5.18772e-07
1.11121e-06
1.13917e-07
7.10429e-07
-5.68845e-07
-1.27096e-06
4.0475e-08
-0.00113234
-1.51768e-06
8.85897e-07
4.33902e-07
0.00113292
-5.19001e-07
1.10548e-06
1.1404e-07
7.1064e-07
-5.71208e-07
-1.27069e-06
4.38333e-08
-0.000276047
1.55238e-06
1.51774e-06
-5.16561e-07
-5.22301e-07
0.000274016
-8.70198e-07
-8.64868e-07
-0.00114296
4.55498e-07
4.56243e-07
0.00114379
-0.00113497
-1.51721e-06
8.59562e-07
4.24166e-07
0.00113551
-5.08615e-07
1.11904e-06
1.21956e-07
7.19749e-07
-5.52372e-07
-1.25546e-06
4.66181e-08
-0.00113461
-1.51187e-06
8.64859e-07
4.12874e-07
-5.05898e-07
1.11338e-06
1.19505e-07
7.16989e-07
-5.54639e-07
-1.2549e-06
4.96861e-08
0.00113516
-0.000276267
1.54662e-06
1.50922e-06
-5.04643e-07
-5.1027e-07
0.000274226
5.22146e-06
5.23231e-06
0.000260567
-0.000259171
-5.9319e-06
-5.91778e-06
5.08158e-06
0.000261409
-0.000258686
-5.96204e-06
3.37916e-06
-5.22153e-06
5.07656e-06
0.000261442
-0.000258702
-5.97005e-06
3.37432e-06
5.22214e-06
0.000260579
-0.000259173
-5.90328e-06
-5.94651e-06
5.07468e-06
0.000261473
-0.000258717
-5.96755e-06
3.369e-06
5.0814e-06
-5.22378e-06
0.000261417
-0.000258686
3.38422e-06
-5.97225e-06
1.07111e-05
1.06174e-05
-0.000252649
-0.000256079
-0.000255118
-0.000255118
-6.41734e-06
-4.12515e-06
-6.6623e-06
-6.4177e-06
-4.12609e-06
-6.66784e-06
-5.06963e-06
0.00104223
1.06707e-05
1.06227e-05
-0.000252651
-0.000256076
-0.000255121
-0.000255121
-6.41995e-06
-4.12544e-06
-6.66504e-06
-6.41517e-06
-4.12088e-06
-6.66025e-06
-5.06928e-06
0.00104211
1.0731e-05
1.06833e-05
-0.000252643
-0.000256071
-0.000255118
-0.000255113
-6.41981e-06
-4.13282e-06
-6.66497e-06
-6.42001e-06
-4.12309e-06
-6.66258e-06
-5.08397e-06
-5.07209e-06
0.00104217
1.07263e-05
1.06276e-05
-0.000252646
-0.000256074
-0.000255118
-0.000255118
-6.4147e-06
-4.12777e-06
-6.65997e-06
-6.42014e-06
-4.12593e-06
-6.6653e-06
-0.000258712
-5.95992e-06
3.36395e-06
-5.22138e-06
0.000261404
-0.000258684
3.37919e-06
-5.96198e-06
5.22453e-06
0.000260559
-0.000259158
-5.9056e-06
-5.94373e-06
-0.000258697
3.37148e-06
-5.95704e-06
-5.23228e-06
0.000261471
-0.000258712
3.36649e-06
-5.96502e-06
-0.000259168
-5.93177e-06
-5.9178e-06
5.61757e-06
5.65479e-06
-4.87837e-06
-4.87223e-06
0.000259045
-7.8048e-07
-7.44602e-07
0.000261544
-0.000259462
-2.82247e-07
-2.74854e-07
7.09203e-06
0.00105882
-4.53008e-06
-1.57833e-06
-2.21273e-06
-2.57666e-06
-6.60588e-06
-7.05009e-06
-3.17074e-06
-0.000263264
-0.000259684
-0.000262793
-5.62803e-06
1.4555e-05
7.03143e-06
0.00105919
-4.5492e-06
-1.57071e-06
-2.21587e-06
-2.58757e-06
-6.6374e-06
-7.067e-06
-3.18642e-06
-0.000263338
-0.000259715
-0.000262834
0.00106192
2.02401e-06
-0.00106086
9.73753e-07
-1.71809e-06
-1.6911e-07
-6.9224e-07
-1.46543e-06
-3.07558e-07
-8.28052e-07
3.43221e-07
7.88563e-07
0.00106234
2.02437e-06
-0.00106128
9.68688e-07
-1.7285e-06
-1.61612e-07
-6.97738e-07
-1.47114e-06
-3.07706e-07
-8.2842e-07
3.48639e-07
-4.87646e-06
-4.86912e-06
0.000259055
-7.47278e-07
0.000261569
-0.000259482
-2.79598e-07
-2.71985e-07
6.81327e-06
0.00105966
-4.55437e-06
-1.63766e-06
-2.22893e-06
-2.58588e-06
-6.61991e-06
-7.06238e-06
-3.18164e-06
-0.000263359
-0.000259742
-0.000262847
-5.62773e-06
1.45894e-05
7.12547e-06
0.00105896
-4.54903e-06
-1.58079e-06
-2.2209e-06
-2.58953e-06
-6.6367e-06
-7.06587e-06
-3.18603e-06
-0.000259684
-0.000263315
-0.000262806
0.00106294
2.03159e-06
-0.00106187
9.6225e-07
-1.68817e-06
-1.71619e-07
-6.92518e-07
-1.46847e-06
-3.07669e-07
-8.2582e-07
3.45597e-07
7.77944e-07
0.00106203
2.0346e-06
-0.00106099
9.84064e-07
-1.71815e-06
-1.66656e-07
-6.92437e-07
-1.46825e-06
-3.05089e-07
-8.3081e-07
3.43165e-07
1.45864e-05
7.11279e-06
0.00105877
-4.53002e-06
-1.57822e-06
-2.2101e-06
-2.57669e-06
-6.60589e-06
-3.17079e-06
-7.04777e-06
-0.000259679
-0.000263259
-0.000262788
2.03091e-06
-0.00106161
9.67483e-07
-1.68807e-06
-1.68943e-07
-6.89599e-07
-1.46575e-06
-3.10042e-07
3.40404e-07
-8.25541e-07
7.77916e-07
0.00106182
2.03422e-06
-0.00106078
9.84098e-07
-1.71806e-06
-1.66545e-07
-6.92192e-07
-1.4681e-06
-3.07531e-07
-8.28005e-07
3.45755e-07
-4.88128e-06
-4.86889e-06
0.000259035
-7.39136e-07
0.000261521
-0.000259444
-2.82644e-07
-2.77209e-07
1.44875e-05
6.83175e-06
0.00105961
-4.55451e-06
-1.63767e-06
-2.22898e-06
-2.5857e-06
-6.61978e-06
-3.18154e-06
-7.05965e-06
-0.000259732
-0.000263356
-0.000262842
2.03595e-06
-0.00106131
9.83006e-07
-1.68559e-06
-1.7149e-07
-6.92269e-07
-1.46262e-06
-3.05021e-07
3.40449e-07
-8.2807e-07
7.39227e-07
0.00106284
2.03659e-06
-0.00106179
9.72565e-07
-1.68313e-06
-1.71647e-07
-6.89936e-07
-1.4657e-06
-3.07509e-07
-8.28234e-07
3.40606e-07
-0.000259459
-2.7978e-07
-2.77428e-07
1.63935e-06
1.60415e-06
-7.10556e-07
-7.19026e-07
0.00025973
-8.66329e-07
-8.27635e-07
0.000262778
-0.000260667
-2.12632e-07
-2.05058e-07
8.29638e-07
0.00106319
-6.56436e-07
8.17756e-07
-1.43305e-07
3.78164e-07
-8.00554e-07
-1.39713e-06
-2.90474e-07
-1.64463e-06
1.63226e-06
8.24415e-07
0.00106362
-6.59293e-07
8.2583e-07
-1.43312e-07
3.83594e-07
-8.0353e-07
-1.40283e-06
-2.88164e-07
0.00106713
1.38301e-06
-0.0010658
7.02155e-07
-1.59182e-06
-1.03503e-07
-6.28653e-07
-1.35465e-06
-2.49028e-07
-7.76787e-07
4.22398e-07
8.71693e-07
0.00106757
1.38328e-06
-0.00106623
6.97076e-07
-1.59714e-06
-1.03623e-07
-6.28884e-07
-1.35764e-06
-2.49133e-07
-7.77136e-07
4.2521e-07
-7.1105e-07
-7.18358e-07
0.000259748
-8.32892e-07
0.000262804
-0.000260679
-2.12671e-07
-2.07558e-07
8.23144e-07
0.00106421
-6.54074e-07
7.81855e-07
-1.45761e-07
3.80615e-07
-8.03598e-07
-1.40027e-06
-2.88115e-07
-1.63935e-06
1.63748e-06
8.29699e-07
0.0010633
-6.5928e-07
8.1786e-07
-1.43347e-07
3.78181e-07
-8.03264e-07
-1.39733e-06
-2.87991e-07
0.00106816
1.38438e-06
-0.00106684
7.01113e-07
-1.5539e-06
-1.08437e-07
-6.2365e-07
-1.35234e-06
-2.46602e-07
-7.77125e-07
4.2505e-07
8.6111e-07
0.00106725
1.38304e-06
-0.00106591
7.02235e-07
-1.58922e-06
-1.06088e-07
-6.28798e-07
-1.35478e-06
-2.48992e-07
-7.76837e-07
4.25177e-07
1.63205e-06
8.29732e-07
0.0010631
-6.59065e-07
8.15186e-07
-1.4574e-07
3.78106e-07
-8.03182e-07
-2.88027e-07
-1.39723e-06
1.38399e-06
-0.00106657
7.0647e-07
-1.56169e-06
-1.10858e-07
-6.23497e-07
-1.35226e-06
-2.46614e-07
4.24926e-07
-7.76934e-07
8.6371e-07
0.00106704
1.37773e-06
-0.0010657
7.02254e-07
-1.58914e-06
-1.05958e-07
-6.28631e-07
-1.35472e-06
-2.49062e-07
-7.76777e-07
4.22412e-07
-7.13821e-07
-7.15803e-07
0.000259709
-8.24824e-07
0.000262753
-0.000260646
-2.12863e-07
-2.07514e-07
1.63355e-06
8.18031e-07
0.00106413
-6.54136e-07
7.7644e-07
-1.50868e-07
3.75479e-07
-8.00811e-07
-2.92948e-07
-1.39476e-06
1.38398e-06
-0.00106625
7.01387e-07
-1.55117e-06
-1.10862e-07
-6.23454e-07
-1.34668e-06
-2.49032e-07
4.16859e-07
-7.76849e-07
8.27503e-07
0.00106807
1.38438e-06
-0.00106674
7.01192e-07
-1.55136e-06
-1.11005e-07
-6.23729e-07
-1.35492e-06
-2.49057e-07
-7.79706e-07
4.22387e-07
-0.000260654
-2.12729e-07
-2.07644e-07
1.58996e-06
1.55721e-06
-6.72236e-07
-6.80573e-07
0.000260984
-8.90491e-07
-8.54279e-07
0.00026406
-0.000261937
-1.9161e-07
-1.86549e-07
6.91217e-07
0.00106848
-6.29693e-07
8.72075e-07
-9.92459e-08
4.24533e-07
-7.77649e-07
-1.35445e-06
-2.47571e-07
-1.59532e-06
1.36146e-06
7.01848e-07
0.00106891
-6.29904e-07
8.77483e-07
-9.93096e-08
4.30068e-07
-7.80623e-07
-1.36007e-06
-2.4271e-07
0.00107249
1.34953e-06
-0.00107117
6.75827e-07
-1.58991e-06
-8.55376e-08
-6.24937e-07
-1.36699e-06
-2.2995e-07
-7.78109e-07
4.33825e-07
8.95934e-07
0.00107292
1.34982e-06
-0.00107159
6.7604e-07
-1.59526e-06
-8.31089e-08
-6.2779e-07
-1.3753e-06
-2.25036e-07
-7.83675e-07
4.42099e-07
-6.75282e-07
-6.77493e-07
0.000261005
-8.56947e-07
0.000264088
-0.000261963
-1.89003e-07
-1.83805e-07
6.90229e-07
0.00106952
-6.27351e-07
8.35993e-07
-1.04172e-07
4.27146e-07
-7.80582e-07
-1.36003e-06
-2.42669e-07
-1.58735e-06
1.36128e-06
6.96572e-07
0.00106859
-6.2985e-07
8.695e-07
-9.92849e-08
4.27291e-07
-7.80303e-07
-1.35721e-06
-2.42538e-07
0.00107352
1.35085e-06
-0.0010722
6.74834e-07
-1.55439e-06
-8.7976e-08
-6.2254e-07
-1.36992e-06
-2.25012e-07
-7.83672e-07
4.36498e-07
8.90573e-07
0.0010726
1.34962e-06
-0.00107127
6.75987e-07
-1.58993e-06
-8.30641e-08
-6.27721e-07
-1.36968e-06
-2.24878e-07
-7.83389e-07
4.36595e-07
1.36625e-06
6.91329e-07
0.00106839
-6.27004e-07
8.66805e-07
-1.04161e-07
4.27178e-07
-7.80244e-07
-2.45105e-07
-1.35716e-06
1.35051e-06
-0.00107193
6.74956e-07
-1.55696e-06
-8.78564e-08
-6.22369e-07
-1.36722e-06
-2.27532e-07
4.33715e-07
-7.80912e-07
8.85161e-07
0.0010724
1.34943e-06
-0.00107107
6.75935e-07
-1.58462e-06
-8.79765e-08
-6.22192e-07
-1.36705e-06
-2.27448e-07
-7.80688e-07
4.33846e-07
-6.75367e-07
-6.8001e-07
0.000260969
-8.51524e-07
0.000264039
-0.000261921
-1.91697e-07
-1.83813e-07
1.36252e-06
6.95525e-07
0.00106942
-6.22097e-07
8.27952e-07
-1.09172e-07
4.24569e-07
-7.77908e-07
-2.45115e-07
-1.35476e-06
1.35041e-06
-0.0010716
6.75035e-07
-1.55164e-06
-9.0314e-08
-6.19663e-07
-1.36693e-06
-2.24991e-07
4.33709e-07
-7.83408e-07
8.51501e-07
0.00107344
1.35086e-06
-0.00107211
6.7488e-07
-1.55186e-06
-9.04853e-08
-6.19937e-07
-1.36467e-06
-2.27464e-07
-7.8098e-07
4.31218e-07
-0.000261934
-1.89151e-07
-1.83957e-07
1.58853e-06
1.55297e-06
-6.61892e-07
-6.67619e-07
0.000262248
-9.18497e-07
-8.82145e-07
0.000265279
-0.000263155
-1.63917e-07
-1.58796e-07
6.68142e-07
0.00107381
-6.22464e-07
8.9736e-07
-7.92732e-08
4.38335e-07
-7.76643e-07
-1.36912e-06
-2.22686e-07
-1.5939e-06
1.34129e-06
6.68352e-07
0.00107423
-6.25339e-07
9.0283e-07
-7.68436e-08
4.46593e-07
-7.82216e-07
-1.37745e-06
-2.1775e-07
0.00107767
1.30796e-06
-0.0010764
6.43171e-07
-1.58272e-06
-6.0064e-08
-6.13233e-07
-1.3718e-06
-1.99295e-07
-7.68825e-07
4.54408e-07
9.2395e-07
0.00107809
1.3083e-06
-0.00107682
6.43437e-07
-1.58813e-06
-5.76895e-08
-6.16103e-07
-1.38008e-06
-1.94407e-07
-7.74415e-07
4.62605e-07
-6.65025e-07
-6.69729e-07
0.000262274
-8.84793e-07
0.000265307
-0.000263181
-1.61361e-07
-1.561e-07
6.67159e-07
0.00107484
-6.20059e-07
8.61111e-07
-8.17023e-08
4.41012e-07
-7.82216e-07
-1.37206e-06
-2.17728e-07
-1.58856e-06
1.34108e-06
6.68291e-07
0.00107391
-6.25281e-07
8.97452e-07
-7.68087e-08
4.41093e-07
-7.81881e-07
-1.37177e-06
-2.17633e-07
0.0010787
1.30919e-06
-0.00107743
6.42209e-07
-1.54704e-06
-6.24595e-08
-6.1083e-07
-1.3747e-06
-1.9436e-07
-7.74419e-07
4.57038e-07
9.18552e-07
0.00107777
1.30804e-06
-0.0010765
6.43319e-07
-1.58275e-06
-5.76732e-08
-6.16013e-07
-1.37445e-06
-1.94171e-07
-7.74082e-07
4.57243e-07
1.3409e-06
6.68234e-07
0.00107371
-6.19728e-07
8.92054e-07
-8.16575e-08
4.38314e-07
-7.79271e-07
-2.20197e-07
-1.36921e-06
1.30892e-06
-0.00107716
6.42349e-07
-1.54965e-06
-6.24057e-08
-6.10664e-07
-1.37195e-06
-1.96921e-07
4.54217e-07
-7.7167e-07
9.13131e-07
0.00107757
1.3079e-06
-0.0010763
6.43278e-07
-1.57747e-06
-6.24903e-08
-6.10554e-07
-1.37173e-06
-1.96907e-07
-7.71384e-07
4.54332e-07
-6.62447e-07
-6.69672e-07
0.000262232
-8.79382e-07
0.000265258
-0.00026314
-1.64001e-07
-1.56121e-07
1.34229e-06
6.67192e-07
0.00107475
-6.17462e-07
8.58364e-07
-8.41603e-08
4.35693e-07
-7.79554e-07
-2.20205e-07
-1.36681e-06
1.30876e-06
-0.00107683
6.42356e-07
-1.54426e-06
-6.48358e-08
-6.07917e-07
-1.37174e-06
-1.94291e-07
4.54258e-07
-7.74172e-07
8.79367e-07
0.00107861
1.30918e-06
-0.00107734
6.42237e-07
-1.54451e-06
-6.49516e-08
-6.08254e-07
-1.36935e-06
-1.96895e-07
-7.71678e-07
4.51705e-07
-0.000263153
-1.61436e-07
-1.56192e-07
1.58056e-06
1.54483e-06
-6.4498e-07
-6.507e-07
0.000263449
-9.44954e-07
-9.08476e-07
0.000266424
-0.000264302
-1.36896e-07
-1.31709e-07
6.34959e-07
0.00107892
-6.09962e-07
9.25376e-07
-5.39769e-08
4.60217e-07
-7.65429e-07
-1.37159e-06
-1.91449e-07
-1.58593e-06
1.29628e-06
6.35183e-07
0.00107935
-6.12826e-07
9.30839e-07
-5.15494e-08
4.68626e-07
-7.70954e-07
-1.37998e-06
-1.86464e-07
0.0010826
1.2601e-06
-0.00108139
6.12117e-07
-1.57418e-06
-3.68134e-08
-6.0047e-07
-1.3701e-06
-1.68287e-07
-7.54716e-07
4.78404e-07
9.50452e-07
0.00108302
1.26054e-06
-0.00108181
6.1247e-07
-1.57966e-06
-3.4531e-08
-6.03378e-07
-1.37848e-06
-1.63343e-07
-7.60421e-07
4.86604e-07
-6.48099e-07
-6.52764e-07
0.000263475
-9.11132e-07
0.000266453
-0.000264328
-1.34371e-07
-1.29017e-07
6.33979e-07
0.00107996
-6.07539e-07
8.88947e-07
-5.64111e-08
4.63027e-07
-7.70947e-07
-1.37449e-06
-1.86445e-07
-1.58058e-06
1.29605e-06
6.35103e-07
0.00107903
-6.12771e-07
9.25481e-07
-5.14554e-08
4.62981e-07
-7.70721e-07
-1.37427e-06
-1.86392e-07
0.00108364
1.26122e-06
-0.00108243
6.11194e-07
-1.53832e-06
-3.91615e-08
-5.98029e-07
-1.37305e-06
-1.63276e-07
-7.60374e-07
4.81108e-07
9.44987e-07
0.0010827
1.26019e-06
-0.00108149
6.12297e-07
-1.57424e-06
-3.45696e-08
-6.0331e-07
-1.37272e-06
-1.63142e-07
-7.59941e-07
4.81308e-07
1.29586e-06
6.35007e-07
0.00107883
-6.07125e-07
9.19983e-07
-5.63822e-08
4.60354e-07
-7.68025e-07
-1.88835e-07
-1.37177e-06
1.26104e-06
-0.00108216
6.11409e-07
-1.541e-06
-3.91834e-08
-5.97928e-07
-1.37031e-06
-1.65818e-07
4.78164e-07
-7.57716e-07
9.39618e-07
0.0010825
1.26008e-06
-0.00108129
6.12251e-07
-1.56895e-06
-3.91424e-08
-5.97874e-07
-1.37005e-06
-1.65858e-07
-7.57435e-07
4.78218e-07
-6.4548e-07
-6.52732e-07
0.000263433
-9.057e-07
0.000266403
-0.000264286
-1.36983e-07
-1.2909e-07
1.29709e-06
6.33981e-07
0.00107987
-6.04827e-07
8.86179e-07
-5.88433e-08
4.57724e-07
-7.68298e-07
-1.88838e-07
-1.36934e-06
1.26079e-06
-0.00108182
6.11324e-07
-1.53554e-06
-4.16105e-08
-5.95164e-07
-1.37006e-06
-1.63229e-07
4.78276e-07
-7.601e-07
9.05744e-07
0.00108355
1.26121e-06
-0.00108234
6.11238e-07
-1.53582e-06
-4.15546e-08
-5.95545e-07
-1.36764e-06
-1.65847e-07
-7.57716e-07
4.75588e-07
-0.0002643
-1.34304e-07
-1.29006e-07
1.57235e-06
1.53648e-06
-6.28195e-07
-6.33847e-07
0.000264577
-9.68592e-07
-9.31989e-07
0.000267496
-0.000265375
-1.12505e-07
-1.07281e-07
6.0528e-07
0.00108379
-5.97809e-07
9.51178e-07
-3.17051e-08
4.84464e-07
-7.51206e-07
-1.36911e-06
-1.60889e-07
-1.57772e-06
1.24878e-06
6.05509e-07
0.00108422
-6.00657e-07
9.5663e-07
-2.92609e-08
4.92923e-07
-7.56684e-07
-1.37745e-06
-1.55954e-07
0.00108728
1.21476e-06
-0.00108613
5.868e-07
-1.56719e-06
-1.73521e-08
-5.90027e-07
-1.36609e-06
-1.3958e-07
-7.40641e-07
5.03152e-07
9.74123e-07
0.00108771
1.21517e-06
-0.00108656
5.87038e-07
-1.57274e-06
-1.52331e-08
-5.93001e-07
-1.37456e-06
-1.34517e-07
-7.46293e-07
5.11441e-07
-6.31217e-07
-6.35836e-07
0.000264603
-9.34703e-07
0.000267525
-0.000265402
-1.09964e-07
-1.0467e-07
6.04327e-07
0.00108483
-5.95395e-07
9.14609e-07
-3.40968e-08
4.87271e-07
-7.56712e-07
-1.37194e-06
-1.55907e-07
-1.57233e-06
1.24854e-06
6.05415e-07
0.0010839
-6.00548e-07
9.51294e-07
-2.91153e-08
4.87219e-07
-7.56546e-07
-1.3718e-06
-1.5581e-07
0.00108833
1.21574e-06
-0.00108718
5.85813e-07
-1.53118e-06
-1.96237e-08
-5.87572e-07
-1.36908e-06
-1.34576e-07
-7.46297e-07
5.05875e-07
9.68611e-07
0.00108739
1.21491e-06
-0.00108624
5.8696e-07
-1.56731e-06
-1.53126e-08
-5.93022e-07
-1.36871e-06
-1.34444e-07
-7.45846e-07
5.06113e-07
1.24832e-06
6.05304e-07
0.00108369
-5.94895e-07
9.45669e-07
-3.41434e-08
4.84662e-07
-7.53687e-07
-1.58364e-07
-1.3692e-06
1.21556e-06
-0.00108691
5.86005e-07
-1.53386e-06
-1.97169e-08
-5.87504e-07
-1.3665e-06
-1.37056e-07
5.02985e-07
-7.43673e-07
9.63283e-07
0.00108718
1.21468e-06
-0.00108603
5.86867e-07
-1.56197e-06
-1.95162e-08
-5.87519e-07
-1.36615e-06
-1.37119e-07
-7.43365e-07
5.03037e-07
-6.28577e-07
-6.35803e-07
0.000264562
-9.29191e-07
0.000267475
-0.00026536
-1.12643e-07
-1.04743e-07
1.24941e-06
6.043e-07
0.00108474
-5.92562e-07
9.11753e-07
-3.65512e-08
4.82064e-07
-7.53956e-07
-1.58328e-07
-1.36679e-06
1.21531e-06
-0.00108657
5.8596e-07
-1.52844e-06
-2.21307e-08
-5.84843e-07
-1.36616e-06
-1.345e-07
5.03089e-07
-7.46001e-07
9.29319e-07
0.00108824
1.21571e-06
-0.00108709
5.8584e-07
-1.52868e-06
-2.18299e-08
-5.85164e-07
-1.36376e-06
-1.37103e-07
-7.43673e-07
5.00359e-07
-0.000265373
-1.09784e-07
-1.04444e-07
1.56596e-06
1.52994e-06
-6.13708e-07
-6.19432e-07
0.000265633
-9.92293e-07
-9.52881e-07
0.000268501
-0.00026638
-9.07805e-08
-8.54742e-08
5.81636e-07
0.00108841
-5.88346e-07
9.76851e-07
-1.09984e-08
5.0924e-07
-7.37371e-07
-1.36496e-06
-1.3293e-07
-1.57125e-06
1.20455e-06
5.81578e-07
0.00108884
-5.91075e-07
9.79693e-07
-1.07787e-08
5.17735e-07
-7.42856e-07
-1.3732e-06
-1.27993e-07
0.00109173
1.17483e-06
-0.00109063
5.67305e-07
-1.56505e-06
3.44619e-10
-5.85373e-07
-1.36181e-06
-1.14065e-07
-7.28147e-07
5.27338e-07
9.94973e-07
0.00109216
1.17512e-06
-0.00109107
5.67424e-07
-1.56788e-06
-1.27237e-10
-5.85517e-07
-1.36772e-06
-1.08851e-07
-7.33723e-07
5.32996e-07
-6.16641e-07
-6.21216e-07
0.000265659
-9.55477e-07
0.000268528
-0.000266406
-8.84511e-08
-8.32234e-08
5.8053e-07
0.00108946
-5.85932e-07
9.37455e-07
-1.55671e-08
5.12007e-07
-7.42941e-07
-1.36779e-06
-1.27984e-07
-1.56589e-06
1.20442e-06
5.81606e-07
0.00108852
-5.90949e-07
9.74311e-07
-1.0644e-08
5.11966e-07
-7.42769e-07
-1.36766e-06
-1.27828e-07
0.00109278
1.17581e-06
-0.00109169
5.66425e-07
-1.52611e-06
-3.9879e-09
-5.80151e-07
-1.36484e-06
-1.08996e-07
-7.33743e-07
5.30139e-07
9.89431e-07
0.00109184
1.17494e-06
-0.00109074
5.67468e-07
-1.56252e-06
-3.04451e-10
-5.85622e-07
-1.36452e-06
-1.08892e-07
-7.33315e-07
5.30283e-07
1.20419e-06
5.81541e-07
0.00108832
-5.85342e-07
9.68504e-07
-1.57231e-08
5.09315e-07
-7.39911e-07
-1.30448e-07
-1.36499e-06
1.17568e-06
-0.00109142
5.66586e-07
-1.52879e-06
-4.23558e-09
-5.79981e-07
-1.36232e-06
-1.11477e-07
5.2721e-07
-7.31014e-07
9.84241e-07
0.00109163
1.17479e-06
-0.00109054
5.67532e-07
-1.55721e-06
-3.92864e-09
-5.80301e-07
-1.36194e-06
-1.11531e-07
-7.3076e-07
5.27387e-07
-6.13911e-07
-6.21265e-07
0.000265617
-9.49863e-07
0.000268478
-0.000266364
-9.13398e-08
-8.33079e-08
1.20516e-06
5.80511e-07
0.00108937
-5.82977e-07
9.3448e-07
-1.80399e-08
5.06713e-07
-7.40167e-07
-1.30424e-07
-1.36256e-06
1.1754e-06
-0.00109108
5.66597e-07
-1.52339e-06
-6.51902e-09
-5.77357e-07
-1.36198e-06
-1.08866e-07
5.27368e-07
-7.33377e-07
9.50169e-07
0.00109269
1.17572e-06
-0.0010916
5.66489e-07
-1.52377e-06
-5.99629e-09
-5.77919e-07
-1.35954e-06
-1.11512e-07
-7.31073e-07
5.24694e-07
-0.000266378
-8.81603e-08
-8.2764e-08
1.56447e-06
1.52545e-06
-6.01893e-07
-6.07513e-07
0.000266621
-1.00987e-06
-9.70335e-07
0.000269441
-0.000267321
-7.28147e-08
-6.73571e-08
5.63212e-07
0.0010928
-5.84649e-07
9.96921e-07
5.052e-09
5.33252e-07
-7.25149e-07
-1.36098e-06
-1.05555e-07
-1.56725e-06
1.16576e-06
5.63126e-07
0.00109324
-5.84937e-07
9.99861e-07
5.63248e-09
5.3899e-07
-7.30729e-07
-1.36641e-06
-1.03335e-07
0.00109596
1.13964e-06
-0.00109492
5.5251e-07
-1.56314e-06
1.93678e-08
-5.81832e-07
-1.35835e-06
-8.93988e-08
-7.20021e-07
5.50228e-07
1.01259e-06
0.0010964
1.13993e-06
-0.00109536
5.52566e-07
-1.56585e-06
1.90394e-08
-5.81425e-07
-1.36456e-06
-8.66567e-08
-7.23173e-07
5.55694e-07
-6.05e-07
-6.09652e-07
0.000266647
-9.7285e-07
0.000269468
-0.000267347
-7.05413e-08
-6.49933e-08
5.62559e-07
0.00109386
-5.79382e-07
9.57455e-07
-1.50317e-09
5.36001e-07
-7.30771e-07
-1.36374e-06
-1.03142e-07
-1.56182e-06
1.16552e-06
5.63079e-07
0.00109292
-5.84748e-07
9.94479e-07
6.00638e-09
5.36002e-07
-7.30636e-07
-1.36363e-06
-1.03069e-07
0.00109703
1.14099e-06
-0.00109598
5.51605e-07
-1.52408e-06
1.33249e-08
-5.76421e-07
-1.36139e-06
-8.66517e-08
-7.22877e-07
5.5322e-07
1.00699e-06
0.00109608
1.13965e-06
-0.00109504
5.5257e-07
-1.5604e-06
1.85881e-08
-5.81409e-07
-1.36119e-06
-8.66581e-08
-7.22716e-07
5.5302e-07
1.16569e-06
5.63443e-07
0.00109271
-5.78556e-07
9.88637e-07
-1.50069e-09
5.33261e-07
-7.27807e-07
-1.056e-07
-1.36088e-06
1.14083e-06
-0.00109571
5.51647e-07
-1.52667e-06
1.3038e-08
-5.7576e-07
-1.35886e-06
-8.91041e-08
5.50228e-07
-7.20226e-07
1.00197e-06
0.00109587
1.13988e-06
-0.00109483
5.52563e-07
-1.55506e-06
1.28487e-08
-5.76641e-07
-1.35853e-06
-8.91259e-08
-7.19836e-07
5.50398e-07
-6.02282e-07
-6.09555e-07
0.000266605
-9.67339e-07
0.000269417
-0.000267304
-7.33989e-08
-6.51778e-08
1.16668e-06
5.62487e-07
0.00109377
-5.76152e-07
9.54535e-07
-3.38538e-09
5.30649e-07
-7.28048e-07
-1.05583e-07
-1.35845e-06
1.14082e-06
-0.00109537
5.51758e-07
-1.52114e-06
9.56948e-09
-5.72892e-07
-1.35855e-06
-8.64088e-08
5.50371e-07
-7.22614e-07
9.67803e-07
0.00109693
1.14114e-06
-0.00109589
5.5165e-07
-1.52149e-06
9.77217e-09
-5.74159e-07
-1.35607e-06
-8.90146e-08
-7.20085e-07
5.47764e-07
-0.000267318
-7.01936e-08
-6.46441e-08
1.56316e-06
1.52414e-06
-5.93357e-07
-5.98951e-07
0.000267546
-1.02542e-06
-9.85837e-07
0.000270323
-0.000268203
-5.71949e-08
-5.17521e-08
5.49719e-07
0.001097
-5.81008e-07
1.01366e-06
2.23791e-08
5.55596e-07
-7.17651e-07
-1.35803e-06
-8.39768e-08
-1.5661e-06
1.13216e-06
5.49829e-07