/*--------------------------------*- C++ -*----------------------------------*\
| =========                 |                                                 |
| \\      /  F ield         | OpenFOAM: The Open Source CFD Toolbox           |
|  \\    /   O peration     | Version:  v1906                                 |
|   \\  /    A nd           | Web:      www.OpenFOAM.com                      |
|    \\/     M anipulation  |                                                 |
\*---------------------------------------------------------------------------*/
FoamFile
{
    version     2.0;
    format      ascii;
    class       volScalarField;
    location    "0.045";
    object      p;
}
// * * * * * * * * * * * * * * * * * * * * * * * * * * * * * * * * * * * * * //

dimensions      [0 2 -2 0 0 0 0];


internalField   nonuniform List<scalar> 
247104
(
-4.76924e-13
1.6029e-09
1.20063e-09
9.96381e-10
5.8812e-10
1.05909e-09
1.26512e-09
1.49037e-09
1.5734e-09
1.72661e-09
1.77555e-09
1.52039e-09
1.30974e-09
1.57032e-09
1.8018e-09
1.69919e-09
1.2045e-09
1.77902e-09
1.55846e-09
1.13992e-09
9.58382e-10
1.19132e-09
1.61489e-09
1.76991e-09
1.08139e-09
9.89897e-10
1.51869e-09
1.13805e-09
6.51598e-10
4.67089e-10
7.0498e-10
1.2095e-09
1.53219e-09
8.23509e-10
-4.60104e-11
5.67682e-10
1.29857e-09
9.51902e-10
4.64004e-10
2.80654e-10
5.17364e-10
1.02366e-09
1.29971e-09
3.90302e-10
1.0285e-09
1.55381e-09
1.18093e-09
6.98833e-10
5.14825e-10
7.52766e-10
1.25305e-09
1.56969e-09
8.65036e-10
1.23819e-09
1.78429e-09
1.60165e-09
1.20045e-09
1.01936e-09
1.2525e-09
1.65692e-09
1.77569e-09
1.13278e-09
1.46822e-09
1.68061e-09
1.75325e-09
1.51924e-09
1.29428e-09
1.57144e-09
1.77921e-09
1.65625e-09
1.06045e-09
8.05263e-10
3.83916e-10
8.71047e-10
1.14548e-09
-3.28255e-08
-3.53589e-08
-3.20501e-08
-3.41696e-08
-3.58249e-08
-3.55527e-08
-3.57013e-08
-3.05807e-08
-3.1502e-08
-3.20762e-08
-3.55659e-08
-4.05332e-08
-4.09699e-08
-4.09706e-08
-4.05334e-08
-3.54559e-08
-3.46138e-08
-3.42184e-08
-4.05453e-08
-4.07083e-08
-4.07757e-08
-4.07735e-08
-4.07008e-08
-4.05251e-08
-3.46321e-08
-2.96188e-08
-3.28298e-08
-3.58715e-08
-4.09783e-08
-4.07785e-08
-4.06186e-08
-4.0616e-08
-4.07701e-08
-4.09614e-08
-3.58422e-08
-3.1416e-08
-3.52945e-08
-3.55618e-08
-4.09774e-08
-4.07783e-08
-4.06184e-08
-4.0616e-08
-4.07702e-08
-4.09611e-08
-3.56076e-08
-3.60123e-08
-3.5667e-08
-4.05435e-08
-4.07083e-08
-4.07751e-08
-4.07735e-08
-4.07018e-08
-4.05255e-08
-3.55662e-08
-3.3113e-08
-3.06122e-08
-3.54854e-08
-4.0536e-08
-4.09693e-08
-4.09713e-08
-4.05388e-08
-3.5905e-08
-3.44298e-08
-2.95802e-08
-3.1481e-08
-3.4639e-08
-3.46371e-08
-3.58355e-08
-3.56224e-08
-3.56005e-08
-3.44302e-08
-2.83465e-08
-2.96525e-08
-3.13979e-08
-3.6013e-08
-3.31551e-08
-2.95999e-08
-5.29439e-08
-5.29238e-08
-5.35942e-08
-5.57658e-08
-5.5838e-08
-5.59006e-08
-5.57598e-08
-5.27231e-08
-5.28925e-08
-5.35663e-08
-5.60021e-08
-5.89943e-08
-5.92058e-08
-5.92095e-08
-5.90017e-08
-5.41522e-08
-5.51301e-08
-5.57756e-08
-5.90181e-08
-5.95596e-08
-5.96279e-08
-5.96265e-08
-5.95503e-08
-5.89823e-08
-5.36053e-08
-5.20425e-08
-5.29275e-08
-5.58416e-08
-5.92133e-08
-5.9633e-08
-5.97263e-08
-5.97229e-08
-5.96204e-08
-5.91881e-08
-5.42008e-08
-5.30834e-08
-5.2935e-08
-5.59043e-08
-5.92135e-08
-5.96346e-08
-5.97275e-08
-5.97242e-08
-5.96223e-08
-5.91941e-08
-5.45654e-08
-5.57483e-08
-5.57684e-08
-5.90172e-08
-5.95649e-08
-5.96311e-08
-5.963e-08
-5.95547e-08
-5.89984e-08
-5.38303e-08
-5.25266e-08
-5.27317e-08
-5.41665e-08
-5.90095e-08
-5.92057e-08
-5.9214e-08
-5.90042e-08
-5.36e-08
-5.42692e-08
-5.24384e-08
-5.29086e-08
-5.51415e-08
-5.36229e-08
-5.42153e-08
-5.45793e-08
-5.38423e-08
-5.42621e-08
-5.2047e-08
-5.204e-08
-5.30905e-08
-5.5757e-08
-5.25335e-08
-5.24334e-08
-7.60369e-08
-7.60198e-08
-7.61078e-08
-7.83458e-08
-7.84803e-08
-7.86301e-08
-7.82744e-08
-7.50966e-08
-7.5311e-08
-7.60961e-08
-7.87304e-08
-8.19909e-08
-8.20992e-08
-8.21019e-08
-8.19879e-08
-7.60762e-08
-7.73578e-08
-7.8352e-08
-8.19818e-08
-8.21122e-08
-8.21387e-08
-8.21399e-08
-8.21148e-08
-8.19967e-08
-7.5392e-08
-7.46769e-08
-7.6022e-08
-7.84736e-08
-8.20964e-08
-8.21381e-08
-8.21478e-08
-8.2148e-08
-8.21384e-08
-8.2097e-08
-7.58013e-08
-7.59615e-08
-7.60159e-08
-7.86224e-08
-8.20969e-08
-8.21379e-08
-8.21471e-08
-8.21472e-08
-8.21379e-08
-8.21005e-08
-7.61692e-08
-7.84713e-08
-7.82752e-08
-8.19842e-08
-8.21117e-08
-8.21364e-08
-8.21367e-08
-8.21101e-08
-8.1988e-08
-7.54703e-08
-7.53775e-08
-7.50754e-08
-7.6084e-08
-8.19926e-08
-8.20931e-08
-8.20953e-08
-8.1978e-08
-7.47387e-08
-7.6216e-08
-7.48931e-08
-7.53232e-08
-7.73448e-08
-7.5384e-08
-7.57944e-08
-7.61638e-08
-7.54819e-08
-7.62247e-08
-7.4609e-08
-7.46701e-08
-7.59616e-08
-7.84677e-08
-7.53794e-08
-7.48871e-08
-9.78766e-08
-9.78409e-08
-9.80808e-08
-1.00468e-07
-1.00583e-07
-1.00771e-07
-1.00348e-07
-9.70289e-08
-9.74038e-08
-9.80731e-08
-1.01525e-07
-1.04867e-07
-1.04883e-07
-1.04884e-07
-1.04871e-07
-9.84695e-08
-9.93966e-08
-1.00468e-07
-1.04875e-07
-1.04885e-07
-1.04881e-07
-1.04882e-07
-1.04886e-07
-1.04874e-07
-9.71869e-08
-9.65267e-08
-9.78553e-08
-1.00592e-07
-1.04884e-07
-1.04881e-07
-1.04876e-07
-1.04877e-07
-1.04883e-07
-1.04889e-07
-9.72561e-08
-9.78126e-08
-9.78621e-08
-1.00777e-07
-1.04882e-07
-1.0488e-07
-1.04876e-07
-1.04876e-07
-1.04882e-07
-1.04886e-07
-9.75943e-08
-1.00335e-07
-1.00346e-07
-1.04867e-07
-1.04882e-07
-1.0488e-07
-1.04882e-07
-1.04885e-07
-1.04872e-07
-9.70949e-08
-9.72157e-08
-9.70359e-08
-9.84671e-08
-1.04867e-07
-1.04884e-07
-1.04886e-07
-1.04871e-07
-9.65811e-08
-9.81871e-08
-9.68055e-08
-9.73952e-08
-9.9388e-08
-9.71841e-08
-9.72544e-08
-9.75835e-08
-9.7088e-08
-9.8195e-08
-9.66647e-08
-9.65208e-08
-9.78063e-08
-1.0031e-07
-9.72065e-08
-9.67798e-08
-1.20005e-07
-1.19964e-07
-1.2033e-07
-1.22701e-07
-1.22846e-07
-1.23079e-07
-1.22579e-07
-1.19188e-07
-1.19562e-07
-1.20244e-07
-1.24036e-07
-1.27429e-07
-1.27432e-07
-1.27432e-07
-1.2743e-07
-1.20873e-07
-1.21575e-07
-1.22709e-07
-1.2742e-07
-1.27427e-07
-1.27427e-07
-1.27427e-07
-1.27428e-07
-1.27424e-07
-1.19351e-07
-1.18646e-07
-1.19976e-07
-1.22843e-07
-1.27431e-07
-1.27426e-07
-1.27423e-07
-1.27424e-07
-1.27427e-07
-1.27431e-07
-1.19303e-07
-1.19943e-07
-1.19957e-07
-1.23078e-07
-1.2743e-07
-1.27426e-07
-1.27423e-07
-1.27424e-07
-1.27427e-07
-1.27431e-07
-1.19661e-07
-1.22449e-07
-1.22567e-07
-1.27421e-07
-1.27426e-07
-1.27426e-07
-1.27427e-07
-1.2743e-07
-1.27429e-07
-1.19181e-07
-1.19339e-07
-1.19175e-07
-1.20868e-07
-1.27423e-07
-1.2743e-07
-1.27431e-07
-1.27428e-07
-1.18769e-07
-1.20363e-07
-1.18937e-07
-1.19566e-07
-1.21558e-07
-1.19338e-07
-1.19281e-07
-1.19644e-07
-1.19179e-07
-1.20375e-07
-1.18822e-07
-1.18624e-07
-1.19933e-07
-1.22433e-07
-1.19335e-07
-1.18936e-07
-1.42326e-07
-1.42275e-07
-1.42677e-07
-1.45062e-07
-1.45206e-07
-1.45456e-07
-1.44932e-07
-1.41517e-07
-1.41905e-07
-1.42651e-07
-1.4646e-07
-1.49883e-07
-1.49881e-07
-1.49882e-07
-1.49882e-07
-1.43276e-07
-1.43908e-07
-1.45072e-07
-1.49883e-07
-1.49881e-07
-1.4988e-07
-1.4988e-07
-1.49881e-07
-1.49877e-07
-1.41683e-07
-1.4097e-07
-1.42304e-07
-1.45212e-07
-1.4988e-07
-1.4988e-07
-1.4988e-07
-1.4988e-07
-1.4988e-07
-1.49881e-07
-1.41576e-07
-1.42264e-07
-1.42279e-07
-1.45457e-07
-1.49881e-07
-1.49881e-07
-1.4988e-07
-1.4988e-07
-1.49882e-07
-1.49883e-07
-1.41948e-07
-1.44763e-07
-1.44933e-07
-1.49886e-07
-1.49882e-07
-1.49881e-07
-1.49882e-07
-1.49883e-07
-1.4988e-07
-1.41513e-07
-1.41669e-07
-1.41512e-07
-1.43288e-07
-1.49881e-07
-1.49882e-07
-1.49884e-07
-1.49886e-07
-1.41123e-07
-1.42719e-07
-1.41275e-07
-1.41907e-07
-1.43919e-07
-1.41685e-07
-1.41598e-07
-1.4196e-07
-1.41498e-07
-1.42722e-07
-1.41174e-07
-1.40964e-07
-1.4227e-07
-1.44756e-07
-1.41668e-07
-1.41267e-07
-1.64714e-07
-1.6466e-07
-1.6507e-07
-1.67466e-07
-1.67622e-07
-1.67851e-07
-1.67335e-07
-1.63906e-07
-1.64295e-07
-1.65042e-07
-1.68891e-07
-1.72304e-07
-1.72308e-07
-1.72309e-07
-1.72306e-07
-1.65699e-07
-1.66301e-07
-1.67469e-07
-1.72307e-07
-1.72308e-07
-1.72308e-07
-1.72309e-07
-1.72309e-07
-1.72311e-07
-1.64083e-07
-1.63358e-07
-1.64691e-07
-1.67613e-07
-1.72313e-07
-1.7231e-07
-1.72309e-07
-1.72309e-07
-1.7231e-07
-1.7231e-07
-1.63968e-07
-1.64657e-07
-1.64665e-07
-1.67849e-07
-1.72312e-07
-1.7231e-07
-1.72309e-07
-1.7231e-07
-1.72311e-07
-1.72314e-07
-1.64335e-07
-1.67147e-07
-1.67331e-07
-1.72307e-07
-1.72309e-07
-1.7231e-07
-1.7231e-07
-1.72311e-07
-1.72314e-07
-1.63911e-07
-1.64065e-07
-1.63899e-07
-1.65689e-07
-1.72306e-07
-1.72313e-07
-1.72311e-07
-1.72309e-07
-1.63502e-07
-1.65121e-07
-1.6367e-07
-1.64295e-07
-1.66311e-07
-1.64081e-07
-1.63965e-07
-1.64328e-07
-1.6388e-07
-1.65116e-07
-1.63566e-07
-1.63348e-07
-1.64654e-07
-1.6714e-07
-1.64053e-07
-1.63652e-07
-1.87117e-07
-1.87066e-07
-1.87489e-07
-1.89873e-07
-1.9002e-07
-1.90261e-07
-1.89744e-07
-1.86316e-07
-1.86708e-07
-1.87448e-07
-1.91314e-07
-1.94727e-07
-1.9473e-07
-1.9473e-07
-1.94729e-07
-1.88116e-07
-1.88711e-07
-1.89883e-07
-1.94726e-07
-1.94728e-07
-1.94729e-07
-1.94729e-07
-1.94729e-07
-1.94729e-07
-1.86496e-07
-1.85775e-07
-1.871e-07
-1.90027e-07
-1.94727e-07
-1.94728e-07
-1.94729e-07
-1.94729e-07
-1.9473e-07
-1.94732e-07
-1.86381e-07
-1.87071e-07
-1.8707e-07
-1.9025e-07
-1.94729e-07
-1.94729e-07
-1.94729e-07
-1.94729e-07
-1.94731e-07
-1.94732e-07
-1.8674e-07
-1.89564e-07
-1.89734e-07
-1.94728e-07
-1.94729e-07
-1.94728e-07
-1.94729e-07
-1.9473e-07
-1.94732e-07
-1.86312e-07
-1.86469e-07
-1.86307e-07
-1.88121e-07
-1.94729e-07
-1.94727e-07
-1.94727e-07
-1.94729e-07
-1.8591e-07
-1.87517e-07
-1.86073e-07
-1.86703e-07
-1.88724e-07
-1.86489e-07
-1.86373e-07
-1.86743e-07
-1.86288e-07
-1.87528e-07
-1.85972e-07
-1.85763e-07
-1.87064e-07
-1.89552e-07
-1.86462e-07
-1.8606e-07
-2.09533e-07
-2.09481e-07
-2.09906e-07
-2.1229e-07
-2.12434e-07
-2.12665e-07
-2.12167e-07
-2.08732e-07
-2.09122e-07
-2.0986e-07
-2.13715e-07
-2.17144e-07
-2.17145e-07
-2.17145e-07
-2.17148e-07
-2.10527e-07
-2.11124e-07
-2.12295e-07
-2.17143e-07
-2.17145e-07
-2.17146e-07
-2.17146e-07
-2.17147e-07
-2.17147e-07
-2.08908e-07
-2.08188e-07
-2.0951e-07
-2.12438e-07
-2.17144e-07
-2.17146e-07
-2.17146e-07
-2.17147e-07
-2.17147e-07
-2.17148e-07
-2.08792e-07
-2.09484e-07
-2.09481e-07
-2.12669e-07
-2.17145e-07
-2.17147e-07
-2.17147e-07
-2.17147e-07
-2.17148e-07
-2.17148e-07
-2.09151e-07
-2.11974e-07
-2.12151e-07
-2.17146e-07
-2.17147e-07
-2.17147e-07
-2.17147e-07
-2.17148e-07
-2.17148e-07
-2.08731e-07
-2.08884e-07
-2.08724e-07
-2.10535e-07
-2.17145e-07
-2.17146e-07
-2.17147e-07
-2.17147e-07
-2.08321e-07
-2.09932e-07
-2.08487e-07
-2.0912e-07
-2.11138e-07
-2.089e-07
-2.0878e-07
-2.09142e-07
-2.08697e-07
-2.09942e-07
-2.08386e-07
-2.08175e-07
-2.09475e-07
-2.11957e-07
-2.08873e-07
-2.08473e-07
-2.31951e-07
-2.31897e-07
-2.32325e-07
-2.34712e-07
-2.34854e-07
-2.35094e-07
-2.34576e-07
-2.31154e-07
-2.31537e-07
-2.32282e-07
-2.36151e-07
-2.39568e-07
-2.39561e-07
-2.39561e-07
-2.39567e-07
-2.32941e-07
-2.33542e-07
-2.34716e-07
-2.39566e-07
-2.39566e-07
-2.39566e-07
-2.39565e-07
-2.39565e-07
-2.39564e-07
-2.31326e-07
-2.30605e-07
-2.31926e-07
-2.34858e-07
-2.39565e-07
-2.39565e-07
-2.39564e-07
-2.39564e-07
-2.39565e-07
-2.39565e-07
-2.3121e-07
-2.31901e-07
-2.31896e-07
-2.3509e-07
-2.39564e-07
-2.39565e-07
-2.39564e-07
-2.39565e-07
-2.39565e-07
-2.39565e-07
-2.31567e-07
-2.3439e-07
-2.34569e-07
-2.39564e-07
-2.39565e-07
-2.39564e-07
-2.39565e-07
-2.39565e-07
-2.39565e-07
-2.31146e-07
-2.31299e-07
-2.31141e-07
-2.32953e-07
-2.39565e-07
-2.39564e-07
-2.39565e-07
-2.39565e-07
-2.30738e-07
-2.32348e-07
-2.30902e-07
-2.31536e-07
-2.33555e-07
-2.31316e-07
-2.31193e-07
-2.3156e-07
-2.31119e-07
-2.32359e-07
-2.30802e-07
-2.30591e-07
-2.31891e-07
-2.34374e-07
-2.31291e-07
-2.3089e-07
-2.54369e-07
-2.54315e-07
-2.54662e-07
-2.57128e-07
-2.57271e-07
-2.57516e-07
-2.56989e-07
-2.53565e-07
-2.53963e-07
-2.54696e-07
-2.58566e-07
-2.61983e-07
-2.61982e-07
-2.6198e-07
-2.61983e-07
-2.55362e-07
-2.55962e-07
-2.57133e-07
-2.61983e-07
-2.61983e-07
-2.61983e-07
-2.61983e-07
-2.61983e-07
-2.61982e-07
-2.53744e-07
-2.53023e-07
-2.54345e-07
-2.57269e-07
-2.61983e-07
-2.61983e-07
-2.61982e-07
-2.61982e-07
-2.61982e-07
-2.61982e-07
-2.53628e-07
-2.54319e-07
-2.54315e-07
-2.57511e-07
-2.61982e-07
-2.61983e-07
-2.61982e-07
-2.61982e-07
-2.61982e-07
-2.61982e-07
-2.53984e-07
-2.56807e-07
-2.56988e-07
-2.61982e-07
-2.61982e-07
-2.61982e-07
-2.61982e-07
-2.61982e-07
-2.61982e-07
-2.53563e-07
-2.53716e-07
-2.53559e-07
-2.5537e-07
-2.61982e-07
-2.61981e-07
-2.61981e-07
-2.61982e-07
-2.53155e-07
-2.54765e-07
-2.53319e-07
-2.53955e-07
-2.55973e-07
-2.53734e-07
-2.5361e-07
-2.53977e-07
-2.53536e-07
-2.54776e-07
-2.53219e-07
-2.53009e-07
-2.54308e-07
-2.56792e-07
-2.53708e-07
-2.53307e-07
-2.76789e-07
-2.7673e-07
-2.77084e-07
-2.79549e-07
-2.79707e-07
-2.79927e-07
-2.79402e-07
-2.75981e-07
-2.76386e-07
-2.7712e-07
-2.80986e-07
-2.84401e-07
-2.84401e-07
-2.84402e-07
-2.84402e-07
-2.7778e-07
-2.78385e-07
-2.79551e-07
-2.84401e-07
-2.84401e-07
-2.844e-07
-2.84399e-07
-2.84399e-07
-2.844e-07
-2.76162e-07
-2.7544e-07
-2.76763e-07
-2.79688e-07
-2.844e-07
-2.844e-07
-2.844e-07
-2.844e-07
-2.844e-07
-2.844e-07
-2.76045e-07
-2.76736e-07
-2.76733e-07
-2.79929e-07
-2.844e-07
-2.844e-07
-2.844e-07
-2.844e-07
-2.844e-07
-2.844e-07
-2.76402e-07
-2.79225e-07
-2.79405e-07
-2.844e-07
-2.844e-07
-2.844e-07
-2.844e-07
-2.844e-07
-2.844e-07
-2.75981e-07
-2.76133e-07
-2.75977e-07
-2.77788e-07
-2.844e-07
-2.844e-07
-2.844e-07
-2.844e-07
-2.75573e-07
-2.77183e-07
-2.75737e-07
-2.76373e-07
-2.78391e-07
-2.76151e-07
-2.76027e-07
-2.76391e-07
-2.75953e-07
-2.77193e-07
-2.75637e-07
-2.75427e-07
-2.76726e-07
-2.79208e-07
-2.76125e-07
-2.75724e-07
-2.99206e-07
-2.99149e-07
-2.99502e-07
-3.01967e-07
-3.02125e-07
-3.02345e-07
-3.01828e-07
-2.984e-07
-2.98805e-07
-2.99536e-07
-3.03403e-07
-3.06818e-07
-3.06818e-07
-3.06818e-07
-3.06817e-07
-3.00197e-07
-3.00801e-07
-3.01968e-07
-3.06818e-07
-3.06818e-07
-3.06818e-07
-3.06818e-07
-3.06817e-07
-3.06817e-07
-2.98579e-07
-2.97857e-07
-2.9918e-07
-3.02104e-07
-3.06818e-07
-3.06818e-07
-3.06818e-07
-3.06818e-07
-3.06818e-07
-3.06817e-07
-2.98462e-07
-2.99153e-07
-2.99151e-07
-3.02347e-07
-3.06818e-07
-3.06818e-07
-3.06818e-07
-3.06818e-07
-3.06818e-07
-3.06818e-07
-2.9882e-07
-3.01643e-07
-3.01823e-07
-3.06818e-07
-3.06818e-07
-3.06818e-07
-3.06818e-07
-3.06818e-07
-3.06819e-07
-2.984e-07
-2.98553e-07
-2.98395e-07
-3.00206e-07
-3.06818e-07
-3.06818e-07
-3.06818e-07
-3.06818e-07
-2.97991e-07
-2.99602e-07
-2.98156e-07
-2.98791e-07
-3.00809e-07
-2.98569e-07
-2.98445e-07
-2.98809e-07
-2.98371e-07
-2.99612e-07
-2.98056e-07
-2.97845e-07
-2.99144e-07
-3.01627e-07
-2.98543e-07
-2.98143e-07
-3.21625e-07
-3.21566e-07
-3.21919e-07
-3.24386e-07
-3.24546e-07
-3.2476e-07
-3.24239e-07
-3.20823e-07
-3.21224e-07
-3.2195e-07
-3.25821e-07
-3.29237e-07
-3.29236e-07
-3.29234e-07
-3.29233e-07
-3.22614e-07
-3.23219e-07
-3.24386e-07
-3.29236e-07
-3.29236e-07
-3.29236e-07
-3.29235e-07
-3.29234e-07
-3.29233e-07
-3.20995e-07
-3.20273e-07
-3.21599e-07
-3.2452e-07
-3.29236e-07
-3.29236e-07
-3.29236e-07
-3.29236e-07
-3.29235e-07
-3.29235e-07
-3.20877e-07
-3.21568e-07
-3.2157e-07
-3.24765e-07
-3.29237e-07
-3.29236e-07
-3.29236e-07
-3.29236e-07
-3.29236e-07
-3.29237e-07
-3.21238e-07
-3.24062e-07
-3.24242e-07
-3.29236e-07
-3.29236e-07
-3.29237e-07
-3.29237e-07
-3.29237e-07
-3.29238e-07
-3.20822e-07
-3.20975e-07
-3.20813e-07
-3.22624e-07
-3.29236e-07
-3.29237e-07
-3.29237e-07
-3.29237e-07
-3.2041e-07
-3.22022e-07
-3.20577e-07
-3.21209e-07
-3.23227e-07
-3.20987e-07
-3.20863e-07
-3.21227e-07
-3.20789e-07
-3.22031e-07
-3.20476e-07
-3.20263e-07
-3.21562e-07
-3.24045e-07
-3.20959e-07
-3.20561e-07
-3.44042e-07
-3.43984e-07
-3.44339e-07
-3.46803e-07
-3.46962e-07
-3.47179e-07
-3.46655e-07
-3.43237e-07
-3.43641e-07
-3.4437e-07
-3.4824e-07
-3.51658e-07
-3.51652e-07
-3.51653e-07
-3.51652e-07
-3.45036e-07
-3.45636e-07
-3.46807e-07
-3.51653e-07
-3.51654e-07
-3.51653e-07
-3.51653e-07
-3.51652e-07
-3.51651e-07
-3.43412e-07
-3.4269e-07
-3.44018e-07
-3.46955e-07
-3.51653e-07
-3.51654e-07
-3.51653e-07
-3.51653e-07
-3.51653e-07
-3.51652e-07
-3.43294e-07
-3.43985e-07
-3.43984e-07
-3.47174e-07
-3.51653e-07
-3.51653e-07
-3.51654e-07
-3.51654e-07
-3.51654e-07
-3.51655e-07
-3.43655e-07
-3.46479e-07
-3.46657e-07
-3.51653e-07
-3.51653e-07
-3.51654e-07
-3.51655e-07
-3.51655e-07
-3.51656e-07
-3.43241e-07
-3.43394e-07
-3.4323e-07
-3.4504e-07
-3.51653e-07
-3.51654e-07
-3.51656e-07
-3.51655e-07
-3.42829e-07
-3.44441e-07
-3.42997e-07
-3.43626e-07
-3.45643e-07
-3.43403e-07
-3.43278e-07
-3.43645e-07
-3.43208e-07
-3.4445e-07
-3.42894e-07
-3.42678e-07
-3.43977e-07
-3.46478e-07
-3.43377e-07
-3.42979e-07
-3.66456e-07
-3.66403e-07
-3.66771e-07
-3.69206e-07
-3.69363e-07
-3.69602e-07
-3.69075e-07
-3.65661e-07
-3.66049e-07
-3.66789e-07
-3.70654e-07
-3.74069e-07
-3.7407e-07
-3.7407e-07
-3.74068e-07
-3.67452e-07
-3.68051e-07
-3.69224e-07
-3.74069e-07
-3.74069e-07
-3.74069e-07
-3.74069e-07
-3.74068e-07
-3.74067e-07
-3.65828e-07
-3.65106e-07
-3.66434e-07
-3.69372e-07
-3.74069e-07
-3.74069e-07
-3.74069e-07
-3.74069e-07
-3.74069e-07
-3.74068e-07
-3.6571e-07
-3.66401e-07
-3.66401e-07
-3.6959e-07
-3.74069e-07
-3.74069e-07
-3.7407e-07
-3.7407e-07
-3.7407e-07
-3.74071e-07
-3.66072e-07
-3.68895e-07
-3.69073e-07
-3.74069e-07
-3.7407e-07
-3.7407e-07
-3.7407e-07
-3.74071e-07
-3.74072e-07
-3.65656e-07
-3.65809e-07
-3.65646e-07
-3.67456e-07
-3.74069e-07
-3.7407e-07
-3.7407e-07
-3.74071e-07
-3.65244e-07
-3.66856e-07
-3.65412e-07
-3.66042e-07
-3.6806e-07
-3.6582e-07
-3.65697e-07
-3.66062e-07
-3.65625e-07
-3.66865e-07
-3.65311e-07
-3.65096e-07
-3.66395e-07
-3.6888e-07
-3.65796e-07
-3.65399e-07
-3.88875e-07
-3.88818e-07
-3.8917e-07
-3.91629e-07
-3.91793e-07
-3.92013e-07
-3.9149e-07
-3.88078e-07
-3.88466e-07
-3.89204e-07
-3.93071e-07
-3.96486e-07
-3.96488e-07
-3.96485e-07
-3.96485e-07
-3.89867e-07
-3.90468e-07
-3.91641e-07
-3.96486e-07
-3.96486e-07
-3.96486e-07
-3.96485e-07
-3.96485e-07
-3.96484e-07
-3.88245e-07
-3.87523e-07
-3.88851e-07
-3.91788e-07
-3.96486e-07
-3.96486e-07
-3.96486e-07
-3.96486e-07
-3.96486e-07
-3.96485e-07
-3.88127e-07
-3.88818e-07
-3.88817e-07
-3.92006e-07
-3.96486e-07
-3.96486e-07
-3.96486e-07
-3.96486e-07
-3.96486e-07
-3.96487e-07
-3.88488e-07
-3.91312e-07
-3.91489e-07
-3.96486e-07
-3.96486e-07
-3.96487e-07
-3.96487e-07
-3.96487e-07
-3.96488e-07
-3.88072e-07
-3.88225e-07
-3.88062e-07
-3.89872e-07
-3.96485e-07
-3.96487e-07
-3.96487e-07
-3.96487e-07
-3.8766e-07
-3.89272e-07
-3.87828e-07
-3.88458e-07
-3.90476e-07
-3.88236e-07
-3.88114e-07
-3.8848e-07
-3.88041e-07
-3.89281e-07
-3.87726e-07
-3.87512e-07
-3.88811e-07
-3.91297e-07
-3.8821e-07
-3.87813e-07
-4.11291e-07
-4.11234e-07
-4.11585e-07
-4.14047e-07
-4.14208e-07
-4.14431e-07
-4.13907e-07
-4.10494e-07
-4.10883e-07
-4.1162e-07
-4.15486e-07
-4.18902e-07
-4.18902e-07
-4.18902e-07
-4.18901e-07
-4.12284e-07
-4.12885e-07
-4.14057e-07
-4.18903e-07
-4.18902e-07
-4.18902e-07
-4.18902e-07
-4.18902e-07
-4.18901e-07
-4.10662e-07
-4.0994e-07
-4.11267e-07
-4.14204e-07
-4.18902e-07
-4.18902e-07
-4.18902e-07
-4.18902e-07
-4.18902e-07
-4.18902e-07
-4.10545e-07
-4.11235e-07
-4.11233e-07
-4.14423e-07
-4.18902e-07
-4.18902e-07
-4.18903e-07
-4.18903e-07
-4.18903e-07
-4.18903e-07
-4.10905e-07
-4.13728e-07
-4.13905e-07
-4.18902e-07
-4.18902e-07
-4.18903e-07
-4.18903e-07
-4.18903e-07
-4.18904e-07
-4.10488e-07
-4.10641e-07
-4.10478e-07
-4.12289e-07
-4.18902e-07
-4.18904e-07
-4.18904e-07
-4.18903e-07
-4.10077e-07
-4.11688e-07
-4.10244e-07
-4.10874e-07
-4.12892e-07
-4.10653e-07
-4.10529e-07
-4.10898e-07
-4.10458e-07
-4.11698e-07
-4.10143e-07
-4.09926e-07
-4.11225e-07
-4.13712e-07
-4.10626e-07
-4.10229e-07
-4.33706e-07
-4.33651e-07
-4.34001e-07
-4.36466e-07
-4.36623e-07
-4.36848e-07
-4.36323e-07
-4.32916e-07
-4.333e-07
-4.34035e-07
-4.37901e-07
-4.41318e-07
-4.41318e-07
-4.41318e-07
-4.41318e-07
-4.34701e-07
-4.35301e-07
-4.36469e-07
-4.41317e-07
-4.41318e-07
-4.41318e-07
-4.41318e-07
-4.41318e-07
-4.41318e-07
-4.3308e-07
-4.32358e-07
-4.33682e-07
-4.36603e-07
-4.41318e-07
-4.41318e-07
-4.41318e-07
-4.41318e-07
-4.41319e-07
-4.41319e-07
-4.32963e-07
-4.33654e-07
-4.33652e-07
-4.36847e-07
-4.41318e-07
-4.41318e-07
-4.41319e-07
-4.41319e-07
-4.41319e-07
-4.41319e-07
-4.33322e-07
-4.36145e-07
-4.36324e-07
-4.41319e-07
-4.41318e-07
-4.41319e-07
-4.41319e-07
-4.41319e-07
-4.4132e-07
-4.32902e-07
-4.33055e-07
-4.32896e-07
-4.34706e-07
-4.41318e-07
-4.41319e-07
-4.41319e-07
-4.41319e-07
-4.32493e-07
-4.34104e-07
-4.32659e-07
-4.33292e-07
-4.35309e-07
-4.33071e-07
-4.32949e-07
-4.33315e-07
-4.32875e-07
-4.34114e-07
-4.32558e-07
-4.32346e-07
-4.33646e-07
-4.36127e-07
-4.33043e-07
-4.32647e-07
-4.56123e-07
-4.5607e-07
-4.56416e-07
-4.58881e-07
-4.59029e-07
-4.5927e-07
-4.58742e-07
-4.55333e-07
-4.55724e-07
-4.56449e-07
-4.60315e-07
-4.63732e-07
-4.63734e-07
-4.63735e-07
-4.63736e-07
-4.57118e-07
-4.57719e-07
-4.58883e-07
-4.63731e-07
-4.63733e-07
-4.63734e-07
-4.63735e-07
-4.63735e-07
-4.63735e-07
-4.55497e-07
-4.54775e-07
-4.56098e-07
-4.59017e-07
-4.63733e-07
-4.63734e-07
-4.63734e-07
-4.63735e-07
-4.63735e-07
-4.63735e-07
-4.5538e-07
-4.56073e-07
-4.56069e-07
-4.59263e-07
-4.63734e-07
-4.63734e-07
-4.63735e-07
-4.63735e-07
-4.63735e-07
-4.63736e-07
-4.55738e-07
-4.58561e-07
-4.58741e-07
-4.63735e-07
-4.63735e-07
-4.63735e-07
-4.63735e-07
-4.63735e-07
-4.63736e-07
-4.55318e-07
-4.55471e-07
-4.55312e-07
-4.57122e-07
-4.63735e-07
-4.63735e-07
-4.63735e-07
-4.63736e-07
-4.54909e-07
-4.5652e-07
-4.55074e-07
-4.55708e-07
-4.57726e-07
-4.55487e-07
-4.55364e-07
-4.55729e-07
-4.55294e-07
-4.56531e-07
-4.54975e-07
-4.54762e-07
-4.56061e-07
-4.58543e-07
-4.55465e-07
-4.55064e-07
-4.78539e-07
-4.78487e-07
-4.78832e-07
-4.81297e-07
-4.81443e-07
-4.81687e-07
-4.81158e-07
-4.77752e-07
-4.78141e-07
-4.78863e-07
-4.8273e-07
-4.86149e-07
-4.8615e-07
-4.86151e-07
-4.86151e-07
-4.79534e-07
-4.80135e-07
-4.81299e-07
-4.86149e-07
-4.86149e-07
-4.8615e-07
-4.86151e-07
-4.86151e-07
-4.86151e-07
-4.77913e-07
-4.77191e-07
-4.78513e-07
-4.81432e-07
-4.8615e-07
-4.8615e-07
-4.8615e-07
-4.86151e-07
-4.86151e-07
-4.86151e-07
-4.77795e-07
-4.78488e-07
-4.78484e-07
-4.81679e-07
-4.8615e-07
-4.8615e-07
-4.86151e-07
-4.86151e-07
-4.86151e-07
-4.86151e-07
-4.78153e-07
-4.80977e-07
-4.81156e-07
-4.86151e-07
-4.86151e-07
-4.86151e-07
-4.86151e-07
-4.86151e-07
-4.86151e-07
-4.77733e-07
-4.77886e-07
-4.77728e-07
-4.79538e-07
-4.86151e-07
-4.86151e-07
-4.86151e-07
-4.86151e-07
-4.77324e-07
-4.78935e-07
-4.7749e-07
-4.78124e-07
-4.80142e-07
-4.77903e-07
-4.7778e-07
-4.78145e-07
-4.77709e-07
-4.78946e-07
-4.7739e-07
-4.77178e-07
-4.78477e-07
-4.80959e-07
-4.7788e-07
-4.77479e-07
-5.00955e-07
-5.00899e-07
-5.01252e-07
-5.03717e-07
-5.03871e-07
-5.04096e-07
-5.03571e-07
-5.00166e-07
-5.00556e-07
-5.01283e-07
-5.0515e-07
-5.08566e-07
-5.08566e-07
-5.08566e-07
-5.08566e-07
-5.01949e-07
-5.0255e-07
-5.03717e-07
-5.08566e-07
-5.08566e-07
-5.08566e-07
-5.08566e-07
-5.08566e-07
-5.08566e-07
-5.00328e-07
-4.99607e-07
-5.0093e-07
-5.03852e-07
-5.08567e-07
-5.08567e-07
-5.08567e-07
-5.08567e-07
-5.08567e-07
-5.08567e-07
-5.00211e-07
-5.00904e-07
-5.009e-07
-5.04096e-07
-5.08567e-07
-5.08567e-07
-5.08567e-07
-5.08567e-07
-5.08567e-07
-5.08567e-07
-5.00569e-07
-5.03393e-07
-5.03573e-07
-5.08567e-07
-5.08567e-07
-5.08567e-07
-5.08567e-07
-5.08567e-07
-5.08567e-07
-5.00149e-07
-5.00302e-07
-5.00144e-07
-5.01955e-07
-5.08567e-07
-5.08567e-07
-5.08567e-07
-5.08567e-07
-4.9974e-07
-5.01351e-07
-4.99905e-07
-5.0054e-07
-5.02558e-07
-5.00319e-07
-5.00196e-07
-5.00561e-07
-5.00125e-07
-5.01362e-07
-4.99806e-07
-4.99594e-07
-5.00893e-07
-5.03375e-07
-5.00296e-07
-4.99895e-07
-5.23371e-07
-5.23314e-07
-5.23669e-07
-5.26134e-07
-5.26289e-07
-5.2651e-07
-5.25985e-07
-5.22573e-07
-5.2297e-07
-5.237e-07
-5.27566e-07
-5.30983e-07
-5.30982e-07
-5.30981e-07
-5.30981e-07
-5.24364e-07
-5.24965e-07
-5.26134e-07
-5.30983e-07
-5.30983e-07
-5.30982e-07
-5.30982e-07
-5.30981e-07
-5.30981e-07
-5.22743e-07
-5.22021e-07
-5.23347e-07
-5.26268e-07
-5.30983e-07
-5.30983e-07
-5.30983e-07
-5.30982e-07
-5.30982e-07
-5.30982e-07
-5.22626e-07
-5.23319e-07
-5.23317e-07
-5.26512e-07
-5.30983e-07
-5.30983e-07
-5.30983e-07
-5.30983e-07
-5.30983e-07
-5.30983e-07
-5.22985e-07
-5.25809e-07
-5.25989e-07
-5.30983e-07
-5.30983e-07
-5.30983e-07
-5.30983e-07
-5.30983e-07
-5.30984e-07
-5.22566e-07
-5.22719e-07
-5.22561e-07
-5.24371e-07
-5.30983e-07
-5.30983e-07
-5.30983e-07
-5.30983e-07
-5.22156e-07
-5.23768e-07
-5.22322e-07
-5.22957e-07
-5.24974e-07
-5.22735e-07
-5.22612e-07
-5.22977e-07
-5.2254e-07
-5.23778e-07
-5.22222e-07
-5.22011e-07
-5.2331e-07
-5.25792e-07
-5.22712e-07
-5.22311e-07
-5.45788e-07
-5.45731e-07
-5.46086e-07
-5.48549e-07
-5.4871e-07
-5.48924e-07
-5.48402e-07
-5.44999e-07
-5.45389e-07
-5.46116e-07
-5.49984e-07
-5.53399e-07
-5.53398e-07
-5.53397e-07
-5.53396e-07
-5.46777e-07
-5.47379e-07
-5.4855e-07
-5.53398e-07
-5.53399e-07
-5.53399e-07
-5.53398e-07
-5.53397e-07
-5.53396e-07
-5.45156e-07
-5.44435e-07
-5.45763e-07
-5.48683e-07
-5.53399e-07
-5.53399e-07
-5.53399e-07
-5.53398e-07
-5.53398e-07
-5.53398e-07
-5.45039e-07
-5.45732e-07
-5.45733e-07
-5.48928e-07
-5.534e-07
-5.53399e-07
-5.53399e-07
-5.53399e-07
-5.53399e-07
-5.53399e-07
-5.45401e-07
-5.48225e-07
-5.48405e-07
-5.534e-07
-5.53399e-07
-5.53399e-07
-5.53399e-07
-5.534e-07
-5.534e-07
-5.44983e-07
-5.45136e-07
-5.44977e-07
-5.46787e-07
-5.53399e-07
-5.53399e-07
-5.534e-07
-5.534e-07
-5.44572e-07
-5.46184e-07
-5.44739e-07
-5.45373e-07
-5.4739e-07
-5.45151e-07
-5.45028e-07
-5.45393e-07
-5.44956e-07
-5.46194e-07
-5.44638e-07
-5.44426e-07
-5.45725e-07
-5.48208e-07
-5.45127e-07
-5.44727e-07
-5.68203e-07
-5.68148e-07
-5.68502e-07
-5.7096e-07
-5.71111e-07
-5.71346e-07
-5.70821e-07
-5.67405e-07
-5.67804e-07
-5.68543e-07
-5.72399e-07
-5.75815e-07
-5.75815e-07
-5.75816e-07
-5.75816e-07
-5.69198e-07
-5.69798e-07
-5.70962e-07
-5.75815e-07
-5.75815e-07
-5.75816e-07
-5.75816e-07
-5.75816e-07
-5.75815e-07
-5.67576e-07
-5.66854e-07
-5.68181e-07
-5.71096e-07
-5.75816e-07
-5.75816e-07
-5.75816e-07
-5.75816e-07
-5.75816e-07
-5.75816e-07
-5.67459e-07
-5.68152e-07
-5.68151e-07
-5.71346e-07
-5.75817e-07
-5.75816e-07
-5.75816e-07
-5.75816e-07
-5.75816e-07
-5.75817e-07
-5.67818e-07
-5.70642e-07
-5.70822e-07
-5.75817e-07
-5.75816e-07
-5.75816e-07
-5.75817e-07
-5.75817e-07
-5.75817e-07
-5.67398e-07
-5.67551e-07
-5.67394e-07
-5.69204e-07
-5.75816e-07
-5.75816e-07
-5.75817e-07
-5.75817e-07
-5.66989e-07
-5.686e-07
-5.67155e-07
-5.6779e-07
-5.69807e-07
-5.67568e-07
-5.67444e-07
-5.6781e-07
-5.67374e-07
-5.68611e-07
-5.67055e-07
-5.66843e-07
-5.68142e-07
-5.70624e-07
-5.67545e-07
-5.67144e-07
-5.9062e-07
-5.90566e-07
-5.90918e-07
-5.93378e-07
-5.93527e-07
-5.93765e-07
-5.93239e-07
-5.89823e-07
-5.90222e-07
-5.9095e-07
-5.94818e-07
-5.98233e-07
-5.98233e-07
-5.98234e-07
-5.98234e-07
-5.91617e-07
-5.92218e-07
-5.93384e-07
-5.98233e-07
-5.98233e-07
-5.98233e-07
-5.98234e-07
-5.98234e-07
-5.98234e-07
-5.89996e-07
-5.89273e-07
-5.90598e-07
-5.93519e-07
-5.98234e-07
-5.98233e-07
-5.98234e-07
-5.98234e-07
-5.98234e-07
-5.98234e-07
-5.89878e-07
-5.90571e-07
-5.90568e-07
-5.93763e-07
-5.98234e-07
-5.98234e-07
-5.98234e-07
-5.98234e-07
-5.98234e-07
-5.98234e-07
-5.90235e-07
-5.9306e-07
-5.9324e-07
-5.98234e-07
-5.98234e-07
-5.98234e-07
-5.98234e-07
-5.98234e-07
-5.98234e-07
-5.89815e-07
-5.89968e-07
-5.89811e-07
-5.91621e-07
-5.98234e-07
-5.98234e-07
-5.98234e-07
-5.98235e-07
-5.89406e-07
-5.91017e-07
-5.89572e-07
-5.90207e-07
-5.92225e-07
-5.89985e-07
-5.89861e-07
-5.90227e-07
-5.89792e-07
-5.91029e-07
-5.89472e-07
-5.8926e-07
-5.90559e-07
-5.93042e-07
-5.89963e-07
-5.89562e-07
-6.13035e-07
-6.12983e-07
-6.13349e-07
-6.15793e-07
-6.15942e-07
-6.16182e-07
-6.15658e-07
-6.12241e-07
-6.12639e-07
-6.13371e-07
-6.17236e-07
-6.20653e-07
-6.2065e-07
-6.20651e-07
-6.20651e-07
-6.14034e-07
-6.14635e-07
-6.158e-07
-6.20649e-07
-6.20648e-07
-6.20649e-07
-6.2065e-07
-6.20651e-07
-6.20651e-07
-6.12413e-07
-6.11691e-07
-6.13014e-07
-6.15931e-07
-6.2065e-07
-6.2065e-07
-6.2065e-07
-6.20651e-07
-6.20651e-07
-6.20651e-07
-6.12295e-07
-6.12988e-07
-6.12988e-07
-6.16182e-07
-6.20651e-07
-6.20651e-07
-6.20651e-07
-6.20651e-07
-6.20651e-07
-6.20651e-07
-6.12652e-07
-6.15476e-07
-6.15658e-07
-6.20651e-07
-6.20651e-07
-6.20651e-07
-6.20651e-07
-6.20651e-07
-6.20651e-07
-6.12231e-07
-6.12385e-07
-6.12229e-07
-6.14038e-07
-6.2065e-07
-6.20651e-07
-6.20651e-07
-6.20651e-07
-6.11823e-07
-6.13434e-07
-6.11988e-07
-6.12624e-07
-6.14641e-07
-6.12401e-07
-6.12277e-07
-6.12643e-07
-6.12209e-07
-6.13446e-07
-6.11889e-07
-6.11677e-07
-6.12975e-07
-6.15458e-07
-6.1238e-07
-6.11979e-07
-6.35454e-07
-6.35399e-07
-6.35766e-07
-6.38212e-07
-6.38366e-07
-6.38597e-07
-6.38074e-07
-6.34652e-07
-6.35052e-07
-6.35786e-07
-6.39654e-07
-6.43072e-07
-6.43069e-07
-6.43072e-07
-6.43068e-07
-6.36451e-07
-6.37052e-07
-6.38219e-07
-6.43068e-07
-6.43067e-07
-6.43067e-07
-6.43067e-07
-6.43067e-07
-6.43067e-07
-6.34829e-07
-6.34107e-07
-6.35432e-07
-6.38353e-07
-6.43068e-07
-6.43068e-07
-6.43068e-07
-6.43068e-07
-6.43068e-07
-6.43067e-07
-6.34708e-07
-6.35402e-07
-6.35402e-07
-6.38597e-07
-6.43068e-07
-6.43068e-07
-6.43068e-07
-6.43068e-07
-6.43068e-07
-6.43068e-07
-6.35069e-07
-6.37893e-07
-6.38074e-07
-6.43068e-07
-6.43068e-07
-6.43068e-07
-6.43068e-07
-6.43068e-07
-6.43068e-07
-6.34649e-07
-6.34802e-07
-6.34645e-07
-6.36455e-07
-6.43068e-07
-6.43068e-07
-6.43068e-07
-6.43068e-07
-6.34239e-07
-6.35851e-07
-6.34405e-07
-6.35041e-07
-6.37058e-07
-6.34818e-07
-6.34694e-07
-6.3506e-07
-6.34625e-07
-6.35862e-07
-6.34306e-07
-6.34094e-07
-6.35392e-07
-6.37875e-07
-6.34797e-07
-6.34395e-07
-6.57873e-07
-6.5782e-07
-6.58181e-07
-6.60631e-07
-6.60776e-07
-6.6102e-07
-6.60493e-07
-6.57071e-07
-6.5747e-07
-6.58202e-07
-6.62069e-07
-6.65485e-07
-6.65484e-07
-6.65485e-07
-6.65485e-07
-6.58869e-07
-6.59468e-07
-6.60634e-07
-6.65483e-07
-6.65483e-07
-6.65484e-07
-6.65484e-07
-6.65485e-07
-6.65484e-07
-6.57246e-07
-6.56519e-07
-6.57848e-07
-6.60768e-07
-6.65484e-07
-6.65484e-07
-6.65484e-07
-6.65485e-07
-6.65485e-07
-6.65484e-07
-6.57122e-07
-6.57817e-07
-6.57819e-07