/*--------------------------------*- C++ -*----------------------------------*\
| =========                 |                                                 |
| \\      /  F ield         | OpenFOAM: The Open Source CFD Toolbox           |
|  \\    /   O peration     | Version:  v1906                                 |
|   \\  /    A nd           | Web:      www.OpenFOAM.com                      |
|    \\/     M anipulation  |                                                 |
\*---------------------------------------------------------------------------*/
FoamFile
{
    version     2.0;
    format      ascii;
    class       volScalarField;
    location    "125";
    object      epsilon;
}
// * * * * * * * * * * * * * * * * * * * * * * * * * * * * * * * * * * * * * //

dimensions      [0 2 -3 0 0 0 0];


internalField   nonuniform List<scalar> 
43248
(
5.26126e-07
3.13278e-07
3.13296e-07
5.26066e-07
3.13159e-07
3.13311e-07
3.13088e-07
3.13257e-07
5.26175e-07
3.13171e-07
3.13207e-07
5.26202e-07
1.23406e-07
1.23401e-07
1.23417e-07
1.23416e-07
1.82736e-05
1.82752e-05
5.2143e-06
5.21545e-06
3.8442e-06
8.89324e-06
3.84415e-06
3.84429e-06
8.89426e-06
8.89402e-06
3.84419e-06
1.50803e-06
3.04416e-06
1.78685e-07
1.78679e-07
1.50772e-06
1.50809e-06
3.13293e-07
3.04447e-06
1.78704e-07
3.04492e-06
1.78703e-07
1.50778e-06
1.8275e-05
1.82729e-05
5.27912e-07
5.21579e-06
5.21382e-06
5.21595e-06
5.21408e-06
1.82724e-05
1.82702e-05
8.89486e-06
3.84423e-06
3.04442e-06
1.7871e-07
1.50789e-06
8.89433e-06
3.84417e-06
1.78711e-07
3.04452e-06
1.50785e-06
1.50812e-06
3.13086e-07
3.04398e-06
1.78681e-07
3.04447e-06
1.7868e-07
1.50779e-06
3.84433e-06
8.89405e-06
8.89381e-06
3.84426e-06
1.50809e-06
3.13252e-07
1.78693e-07
3.04412e-06
1.78692e-07
3.04458e-06
1.50777e-06
3.84426e-06
8.89402e-06
8.89378e-06
3.84425e-06
1.82756e-05
5.21567e-06
5.21403e-06
1.82742e-05
1.5082e-06
1.78702e-07
3.04415e-06
1.78697e-07
1.50786e-06
1.50824e-06
3.13202e-07
1.78709e-07
3.0446e-06
1.78707e-07
3.04505e-06
1.50789e-06
3.8442e-06
8.89415e-06
3.84416e-06
3.84428e-06
8.89512e-06
8.89488e-06
3.84423e-06
5.28031e-07
5.21403e-06
5.21593e-06
5.21422e-06
5.2161e-06
1.82742e-05
1.82722e-05
1.82759e-05
1.82738e-05
1.82714e-05
1.82734e-05
4.13488e-06
2.25025e-06
5.21437e-06
9.11196e-06
9.11089e-06
2.24932e-06
4.13724e-06
4.14226e-06
2.24958e-06
5.21605e-06
9.11488e-06
9.11535e-06
2.25087e-06
4.13967e-06
9.63357e-06
2.16921e-05
2.16901e-05
2.16888e-05
2.16877e-05
9.63317e-06
1.20985e-05
1.06998e-05
4.56552e-06
3.84406e-06
1.20978e-05
1.07002e-05
4.56555e-06
2.21094e-05
8.89294e-06
7.09926e-06
7.09959e-06
2.21135e-05
1.20978e-05
3.84419e-06
1.07002e-05
4.56556e-06
1.06998e-05
4.56554e-06
1.20985e-05
1.20987e-05
1.07e-05
4.56571e-06
3.84414e-06
1.20981e-05
1.07004e-05
4.5658e-06
2.21099e-05
8.89402e-06
7.10103e-06
7.10109e-06
2.21138e-05
2.21138e-05
7.10108e-06
8.89426e-06
2.211e-05
7.10101e-06
1.20981e-05
3.8443e-06
1.07004e-05
4.56581e-06
1.07e-05
4.56572e-06
1.20987e-05
1.82729e-05
1.8275e-05
9.63302e-06
2.16876e-05
2.1688e-05
9.63324e-06
2.16905e-05
2.16909e-05
4.14175e-06
2.2506e-06
5.21596e-06
9.11555e-06
2.25074e-06
9.11525e-06
4.14165e-06
4.13515e-06
2.24906e-06
5.21409e-06
9.11073e-06
9.11043e-06
2.2492e-06
4.13498e-06
4.14156e-06
9.11525e-06
2.25073e-06
5.21577e-06
2.25051e-06
4.14173e-06
9.11555e-06
4.13498e-06
9.11043e-06
2.2492e-06
5.21381e-06
4.13514e-06
9.11073e-06
2.24898e-06
9.63324e-06
2.16904e-05
2.16909e-05
2.16876e-05
2.1688e-05
9.63302e-06
1.82702e-05
1.82724e-05
2.21096e-05
8.89467e-06
7.10092e-06
7.10091e-06
2.21135e-05
1.20982e-05
3.84425e-06
4.56576e-06
1.07009e-05
4.56564e-06
1.07005e-05
1.20988e-05
2.21096e-05
8.89409e-06
7.09938e-06
7.09967e-06
2.21137e-05
1.20982e-05
3.84422e-06
1.07007e-05
4.56564e-06
1.07003e-05
4.56561e-06
1.20989e-05
1.20984e-05
4.56558e-06
1.07002e-05
3.84419e-06
1.20978e-05
4.56568e-06
1.07006e-05
2.21088e-05
8.89381e-06
7.10058e-06
7.10058e-06
2.21127e-05
2.21127e-05
7.10056e-06
8.89404e-06
2.21088e-05
7.10057e-06
1.20978e-05
3.84433e-06
4.56569e-06
1.07006e-05
4.56559e-06
1.07002e-05
1.20984e-05
1.20987e-05
1.07001e-05
4.56542e-06
3.84411e-06
1.20981e-05
1.07004e-05
4.56551e-06
2.21091e-05
8.89378e-06
7.09896e-06
7.09904e-06
2.2113e-05
2.2113e-05
7.09903e-06
8.89401e-06
2.21092e-05
7.09894e-06
1.20981e-05
3.84424e-06
1.07004e-05
4.56552e-06
1.07001e-05
4.56543e-06
1.20987e-05
1.82734e-05
4.14211e-06
2.2507e-06
5.21592e-06
9.11558e-06
2.25085e-06
9.11527e-06
4.14193e-06
4.13554e-06
2.24932e-06
5.21423e-06
9.11078e-06
9.11049e-06
2.24948e-06
4.1354e-06
9.63409e-06
2.16915e-05
2.16916e-05
2.16886e-05
2.16887e-05
9.63386e-06
1.82721e-05
1.20987e-05
4.56537e-06
1.07004e-05
3.84411e-06
1.20981e-05
4.56546e-06
1.07008e-05
2.21093e-05
8.89391e-06
7.09905e-06
7.09904e-06
2.21132e-05
2.21132e-05
7.09901e-06
1.20981e-05
3.8442e-06
4.56549e-06
1.07008e-05
4.56538e-06
1.07004e-05
1.20987e-05
1.20986e-05
4.56571e-06
1.07005e-05
3.84419e-06
1.20979e-05
4.56574e-06
1.07009e-05
2.21092e-05
8.89488e-06
7.10074e-06
7.10106e-06
2.21134e-05
2.21135e-05
7.10105e-06
8.89512e-06
2.21093e-05
7.10076e-06
1.20979e-05
3.84429e-06
4.56575e-06
1.07009e-05
4.56571e-06
1.07005e-05
1.20986e-05
9.6334e-06
2.16884e-05
2.1688e-05
9.63364e-06
2.16913e-05
2.16908e-05
4.13534e-06
2.24927e-06
5.21423e-06
9.11082e-06
2.24941e-06
9.11051e-06
4.13515e-06
4.1419e-06
2.25072e-06
5.2161e-06
9.11578e-06
2.25083e-06
9.11548e-06
4.14183e-06
4.13516e-06
9.11051e-06
2.2494e-06
5.21402e-06
4.13532e-06
2.24918e-06
9.11082e-06
4.14173e-06
9.11548e-06
2.25084e-06
5.21592e-06
4.14189e-06
2.25063e-06
9.11578e-06
9.63364e-06
2.16913e-05
2.16908e-05
2.16884e-05
2.1688e-05
9.6334e-06
1.82722e-05
1.82743e-05
1.82738e-05
1.82759e-05
2.06839e-06
5.27834e-07
1.07794e-06
1.07717e-06
1.07861e-06
1.07879e-06
2.06795e-06
2.06832e-06
5.27764e-07
1.0777e-06
1.07738e-06
1.07876e-06
1.07844e-06
2.06786e-06
2.06851e-06
5.27868e-07
1.07779e-06
1.07755e-06
1.07885e-06
1.0786e-06
2.06806e-06
2.06844e-06
5.2789e-07
1.07751e-06
1.07785e-06
1.07856e-06
1.07891e-06
2.068e-06
9.12014e-08
9.11973e-08
9.12017e-08
7.72333e-08
7.72335e-08
1.23401e-07
9.12026e-08
9.11926e-08
9.12027e-08
9.11927e-08
7.72326e-08
7.72328e-08
9.12076e-08
9.1202e-08
9.12019e-08
7.72359e-08
7.72363e-08
1.23415e-07
9.12046e-08
9.12001e-08
9.12047e-08
9.12002e-08
7.72349e-08
7.7235e-08
6.95392e-07
1.80529e-06
5.79076e-07
1.50761e-06
6.96991e-07
1.80476e-06
5.78086e-07
9.27078e-07
1.34349e-06
3.04458e-06
2.37748e-06
1.34432e-06
2.37804e-06
9.25504e-07
6.96999e-07
1.50805e-06
1.80488e-06
5.78086e-07
1.80532e-06
5.79072e-07
6.95401e-07
6.9553e-07
1.80559e-06
5.79122e-07
1.50767e-06
6.97134e-07
1.80504e-06
5.78133e-07
9.27351e-07
1.34368e-06
3.04492e-06
2.37805e-06
2.37865e-06
1.34468e-06
9.2574e-07
9.25732e-07
2.37865e-06
1.34468e-06
3.04445e-06
9.27333e-07
2.378e-06
1.34367e-06
6.97131e-07
1.50812e-06
1.80513e-06
5.78124e-07
1.80559e-06
5.79117e-07
6.95524e-07
2.06786e-06
5.2611e-07
1.07877e-06
1.07844e-06
1.07768e-06
2.06831e-06
1.07736e-06
9.27296e-07
1.34343e-06
3.04494e-06
2.37793e-06
1.34457e-06
2.37854e-06
9.25643e-07
6.97193e-07
1.50824e-06
1.80512e-06
5.78195e-07
1.80557e-06
5.79188e-07
6.95565e-07
9.27239e-07
1.34368e-06
3.04502e-06
2.37759e-06
2.37816e-06
1.34467e-06
9.25631e-07
6.97122e-07
1.5082e-06
5.78175e-07
1.805e-06
5.79163e-07
1.80544e-06
6.95504e-07
6.95457e-07
1.80548e-06
5.79093e-07
1.50769e-06
6.97068e-07
1.80492e-06
5.78106e-07
9.2711e-07
1.3431e-06
3.04447e-06
2.37774e-06
1.34408e-06
2.37836e-06
9.25483e-07
9.25479e-07
2.37837e-06
1.34408e-06
3.04396e-06
9.27096e-07
1.34308e-06
2.3777e-06
6.97065e-07
1.50814e-06
1.80502e-06
5.78105e-07
1.80549e-06
5.79091e-07
6.95452e-07
6.95469e-07
5.79082e-07
1.80541e-06
1.50768e-06
6.97069e-07
5.78103e-07
1.80486e-06
9.27149e-07
1.34332e-06
3.04458e-06
2.37748e-06
2.37808e-06
1.3443e-06
9.25542e-07
9.25537e-07
2.37809e-06
1.3443e-06
3.04411e-06
9.27133e-07
2.37744e-06
1.34331e-06
6.97065e-07
1.50811e-06
5.78101e-07
1.80495e-06
5.7908e-07
1.80541e-06
6.95462e-07
6.95527e-07
5.79198e-07
1.80541e-06
1.50776e-06
6.97136e-07
5.78212e-07
1.80483e-06
9.27149e-07
1.34328e-06
3.0446e-06
2.37747e-06
1.34427e-06
2.37803e-06
9.25524e-07
9.25517e-07
2.37737e-06
6.97132e-07
1.50823e-06
5.78206e-07
1.80498e-06
5.79194e-07
1.80543e-06
6.95526e-07
6.95641e-07
5.79229e-07
1.80562e-06
1.5078e-06
6.97248e-07
5.78246e-07
1.80506e-06
9.27364e-07
1.34371e-06
3.04505e-06
2.37794e-06
2.37854e-06
1.3447e-06
9.25738e-07
9.25735e-07
2.37856e-06
1.3447e-06
3.04458e-06
9.27353e-07
2.37792e-06
1.3437e-06
6.97245e-07
1.50827e-06
5.78236e-07
1.80513e-06
5.79227e-07
1.80562e-06
6.95635e-07
2.068e-06
5.26241e-07
1.07856e-06
1.07891e-06
2.06843e-06
1.07749e-06
1.07783e-06
1.33743e-07
2.30871e-07
2.30907e-07
3.58383e-07
3.5291e-07
2.28632e-07
2.28647e-07
3.5287e-07
2.28568e-07
2.28672e-07
2.28534e-07
2.28614e-07
3.52945e-07
2.28569e-07
2.28577e-07
3.52935e-07
3.58356e-07
3.78368e-07
2.3093e-07
2.30989e-07
2.38816e-07
2.38826e-07
3.58322e-07
3.78329e-07
2.30946e-07
2.31013e-07
2.38713e-07
2.38849e-07
2.30952e-07
2.38696e-07
2.38784e-07
3.58393e-07
3.78414e-07
2.30915e-07
2.38734e-07
2.38744e-07
3.78404e-07
1.34399e-07
1.34397e-07
1.34407e-07
1.34401e-07
3.682e-06
8.908e-06
3.6487e-06
8.91309e-06
1.84662e-05
1.8458e-05
3.68253e-06
8.90973e-06
3.64854e-06
8.91485e-06
1.33738e-07
1.33748e-07
1.33742e-07
1.32081e-07
1.32079e-07
1.3209e-07
1.32084e-07
1.15852e-06
2.79619e-06
1.58604e-07
2.33351e-07
1.13068e-06
2.81983e-06
1.58827e-07
1.84681e-05
1.84599e-05
1.15856e-06
1.58603e-07
2.79628e-06
2.33387e-07
1.13073e-06
1.58834e-07
2.82004e-06
5.13154e-06
5.13342e-06
3.65287e-07
5.14374e-06
5.14576e-06
1.84717e-05
1.84805e-05
1.84738e-05
1.84825e-05
3.46464e-07
5.12479e-06
5.12716e-06
5.11153e-06
5.11299e-06
3.5999e-06
8.90711e-06
8.9019e-06
3.63683e-06
3.59996e-06
8.90808e-06
8.90284e-06
3.63693e-06
1.08807e-06
2.26399e-07
2.78305e-06
1.58491e-07
2.75814e-06
1.58444e-07
1.11601e-06
1.0881e-06
2.26447e-07
2.78356e-06
1.585e-07
2.75852e-06
1.58452e-07
1.11604e-06
1.84726e-05
1.84814e-05
3.46431e-07
5.12685e-06
5.12479e-06
5.113e-06
5.11147e-06
1.84713e-05
1.848e-05
3.59971e-06
8.90887e-06
8.90361e-06
3.6374e-06
1.08818e-06
2.26405e-07
2.78361e-06
1.58497e-07
2.75858e-06
1.58447e-07
1.11612e-06
3.59968e-06
8.90853e-06
8.90331e-06
3.63732e-06
1.08816e-06
2.26472e-07
1.58502e-07
2.78369e-06
1.58453e-07
2.75875e-06
1.11611e-06
1.08809e-06
2.26336e-07
2.78295e-06
1.58487e-07
2.75801e-06
1.58439e-07
1.11604e-06
3.6e-06
8.90818e-06
8.90295e-06
3.63698e-06
1.08807e-06
2.26413e-07
1.5849e-07
2.78315e-06
1.58443e-07
2.75814e-06
1.11602e-06
3.59994e-06
8.90785e-06
8.90258e-06
3.63688e-06
1.84746e-05
1.84833e-05
3.46497e-07
5.12679e-06
5.1251e-06
5.11347e-06
5.11138e-06
1.84724e-05
1.84812e-05
1.08814e-06
2.26372e-07
1.58491e-07
2.78314e-06
1.58442e-07
2.75812e-06
1.11608e-06
1.08816e-06
2.26376e-07
1.5849e-07
2.78367e-06
1.58443e-07
2.75866e-06
1.11611e-06
3.5996e-06
8.90794e-06
8.90268e-06
3.63736e-06
3.59967e-06
8.90901e-06
8.90375e-06
3.63745e-06
3.46487e-07
5.12512e-06
5.12717e-06
5.11138e-06
5.11326e-06
1.84725e-05
1.84813e-05
1.8474e-05
1.84828e-05
1.84653e-05
1.8457e-05
1.84672e-05
1.8459e-05
5.13158e-06
5.13317e-06
3.65259e-07
5.14348e-06
5.14572e-06
1.84426e-05
1.84506e-05
1.84441e-05
1.84526e-05
3.71035e-07
5.16076e-06
5.16197e-06
5.14967e-06
5.15135e-06
3.68211e-06
8.90894e-06
3.64876e-06
8.91404e-06
1.1585e-06
2.79629e-06
1.58608e-07
2.33456e-07
1.13066e-06
2.81991e-06
1.58833e-07
1.15854e-06
2.79668e-06
1.58618e-07
2.33472e-07
1.13069e-06
2.82045e-06
1.5884e-07
3.69295e-06
8.91828e-06
8.91386e-06
3.72291e-06
3.69302e-06
8.9192e-06
8.91478e-06
3.72303e-06
1.17308e-06
2.36025e-07
2.8546e-06
1.59533e-07
2.83245e-06
1.59141e-07
1.20077e-06
1.17312e-06
2.36091e-07
2.85501e-06
1.59541e-07
2.83284e-06
1.59153e-07
1.2008e-06
5.13315e-06
5.13152e-06
3.65217e-07
5.14543e-06
5.1435e-06
1.84648e-05
1.84566e-05
1.84434e-05
1.84516e-05
3.71003e-07
5.16226e-06
5.16035e-06
5.15125e-06
5.14957e-06
1.8442e-05
1.84502e-05
1.15859e-06
2.79674e-06
1.58611e-07
2.33382e-07
1.13077e-06
2.82048e-06
1.58838e-07
3.68247e-06
8.90942e-06
3.64849e-06
8.9145e-06
1.1586e-06
1.5862e-07
2.79693e-06
2.33497e-07
1.13075e-06
1.58841e-07
2.82056e-06
3.69281e-06
8.91995e-06
8.91559e-06
3.72341e-06
1.17321e-06
2.36049e-07
2.8549e-06
1.59539e-07
2.83291e-06
1.59144e-07
1.20084e-06
3.69277e-06
8.91965e-06
8.91528e-06
3.72335e-06
1.17319e-06
2.36115e-07
1.5954e-07
2.8551e-06
1.59153e-07
2.83308e-06
1.20085e-06
3.68214e-06
8.90907e-06
3.64881e-06
8.91415e-06
1.15851e-06
1.58608e-07
2.7963e-06
2.33434e-07
1.13066e-06
1.5883e-07
2.82003e-06
3.68203e-06
8.90871e-06
3.64875e-06
8.91382e-06
1.17312e-06
2.35965e-07
2.85439e-06
1.59526e-07
2.83234e-06
1.59137e-07
1.20077e-06
3.69309e-06
8.91929e-06
8.91492e-06
3.72303e-06
1.1731e-06
2.3605e-07
1.5953e-07
2.8546e-06
1.59141e-07
2.83246e-06
1.20076e-06
3.69304e-06
8.91899e-06
8.91457e-06
3.72293e-06
5.13353e-06
5.1315e-06
3.65298e-07
5.14549e-06
5.14375e-06
1.8466e-05
1.84577e-05
1.84452e-05
1.84535e-05
3.71077e-07
5.16233e-06
5.16057e-06
5.15157e-06
5.14958e-06
1.84431e-05
1.84514e-05
1.1586e-06
1.58607e-07
2.79682e-06
2.33397e-07
1.13076e-06
1.58831e-07
2.82055e-06
3.68251e-06
8.90881e-06
3.64841e-06
8.91392e-06
3.6826e-06
8.90988e-06
3.64848e-06
8.91498e-06
1.17316e-06
2.36002e-07
1.59533e-07
2.85461e-06
1.59136e-07
2.83244e-06
1.20081e-06
1.1732e-06
2.36011e-07
1.59531e-07
2.85511e-06
1.59141e-07
2.83298e-06
1.20085e-06
3.69269e-06
8.91909e-06
8.91467e-06
3.7234e-06
3.69277e-06
8.92014e-06
8.91573e-06
3.72349e-06
1.84661e-05
1.84579e-05
1.84676e-05
1.84594e-05
3.71068e-07
5.16061e-06
5.16257e-06
5.14963e-06
5.15153e-06
1.84432e-05
1.84515e-05
1.84448e-05
1.8453e-05
1.21279e-05
3.6713e-06
1.06714e-05
4.49053e-06
1.06675e-05
4.48217e-06
1.21305e-05
2.24341e-05
7.21096e-06
8.91017e-06
2.24346e-05
7.21127e-06
1.21273e-05
3.65989e-06
1.06622e-05
4.46654e-06
1.21244e-05
1.06661e-05
4.47533e-06
2.24247e-05
7.21251e-06
8.91103e-06
7.2125e-06
2.24242e-05
1.84652e-05
1.84589e-05
1.21279e-05
3.67114e-06
4.49109e-06
1.06717e-05
4.48218e-06
1.06679e-05
1.21305e-05
2.24338e-05
7.21235e-06
8.91193e-06
2.24345e-05
7.2134e-06
1.21273e-05
3.66044e-06
4.46653e-06
1.06625e-05
1.21244e-05
4.47593e-06
1.06664e-05
2.24246e-05
7.21451e-06
8.91276e-06
7.21397e-06
2.24239e-05
1.84672e-05
1.84608e-05
9.72028e-06
2.1902e-05
2.19014e-05
2.19035e-05
2.19028e-05
9.72e-06
3.96059e-06
1.92637e-06
9.03408e-06
5.13469e-06
3.95406e-06
1.93535e-06
9.03932e-06
3.96755e-06
1.92792e-06
9.03889e-06
5.13673e-06
3.9609e-06
1.93703e-06
9.04413e-06
9.71981e-06
2.19136e-05
2.1913e-05
9.71997e-06
2.19122e-05
2.19115e-05
3.97041e-06
9.04659e-06
5.14086e-06
1.95648e-06
1.94765e-06
9.04152e-06
3.97665e-06
3.97725e-06
9.0514e-06
5.14274e-06
1.95816e-06
1.94921e-06
9.04633e-06
3.98361e-06
1.84727e-05
1.84794e-05
1.84747e-05
1.84814e-05
9.7182e-06
2.19332e-05
2.19333e-05
9.7181e-06
2.19317e-05
2.19319e-05
3.93666e-06
1.91392e-06
5.12177e-06
9.03144e-06
9.02608e-06
1.90433e-06
3.94403e-06
3.94422e-06
1.91489e-06
5.1233e-06
9.03682e-06
9.03142e-06
1.90649e-06
3.95033e-06
3.92639e-06
9.01816e-06
1.88224e-06
5.11471e-06
3.91901e-06
9.02369e-06
1.89175e-06
3.9329e-06
9.02349e-06
1.88423e-06
5.1171e-06
3.9264e-06
9.02905e-06
1.8929e-06
9.71915e-06
2.19216e-05
2.19218e-05
2.19231e-05
2.19232e-05
9.71911e-06
1.212e-05
1.06521e-05
4.43232e-06
3.61252e-06
1.21172e-05
1.06556e-05
4.4422e-06
2.24444e-05
8.90495e-06
7.20925e-06
2.2444e-05
7.20863e-06
2.24536e-05
7.20583e-06
8.90406e-06
2.2454e-05
7.20662e-06
1.21207e-05
3.62501e-06
1.06607e-05
4.45926e-06
1.21237e-05
1.06569e-05
4.44999e-06
1.212e-05
1.06522e-05
4.43226e-06
3.61262e-06
1.21171e-05
1.06557e-05
4.44285e-06
2.24447e-05
8.90589e-06
7.21163e-06
7.21018e-06
2.2444e-05
2.24537e-05
7.20732e-06
8.90503e-06
2.24542e-05
7.20904e-06
1.21207e-05
3.62507e-06
1.06608e-05
4.4599e-06
1.0657e-05
4.44996e-06
1.21237e-05
1.84736e-05
1.84803e-05
9.71793e-06
2.19326e-05
2.19333e-05
9.71779e-06
2.19311e-05
2.19319e-05
3.94378e-06
1.91523e-06
5.12331e-06
9.03645e-06
1.90612e-06
9.03105e-06
3.9505e-06
3.93673e-06
1.91347e-06
5.12173e-06
9.03178e-06
9.0264e-06
1.90449e-06
3.94366e-06
3.93302e-06
9.02312e-06
1.88394e-06
5.1168e-06
1.89316e-06
3.926e-06
9.02868e-06
3.92619e-06
9.01848e-06
1.88231e-06
5.11469e-06
3.91896e-06
9.02402e-06
1.8914e-06
9.71885e-06
2.1921e-05
2.19218e-05
2.19225e-05
2.19232e-05
9.71885e-06
1.84723e-05
1.8479e-05
1.212e-05
4.43224e-06
1.06524e-05
3.61308e-06
1.21172e-05
4.44285e-06
1.06559e-05
2.24443e-05
8.90666e-06
7.21145e-06
2.24437e-05
7.20993e-06
2.24533e-05
7.20706e-06
8.9058e-06
2.24538e-05
7.20886e-06
1.21207e-05
3.62482e-06
4.45992e-06
1.0661e-05
1.21237e-05
4.44992e-06
1.06572e-05
1.21204e-05
1.06523e-05
4.4325e-06
3.61301e-06
1.21175e-05
1.06558e-05
4.44231e-06
2.24447e-05
8.90636e-06
7.20946e-06
7.20892e-06
2.24443e-05
2.24539e-05
7.20611e-06
8.90547e-06
2.24542e-05
7.20683e-06
1.21211e-05
3.62479e-06
1.06609e-05
4.45936e-06
1.06571e-05
4.45017e-06
1.21241e-05
1.21197e-05
4.43212e-06
1.06524e-05
3.61267e-06
1.21168e-05
4.44269e-06
1.06559e-05
2.24436e-05
8.90601e-06
7.21109e-06
7.20957e-06
2.2443e-05
2.24526e-05
7.20669e-06
8.90512e-06
2.24531e-05
7.2085e-06
1.21204e-05
3.62511e-06
4.45974e-06
1.0661e-05
4.44981e-06
1.06572e-05
1.21234e-05
1.212e-05
1.06523e-05
4.432e-06
3.61258e-06
1.21171e-05
1.06557e-05
4.44247e-06
2.24437e-05
8.90564e-06
7.20932e-06
7.20793e-06
2.24431e-05
2.24527e-05
7.20506e-06
8.90478e-06
2.24532e-05
7.20671e-06
1.21207e-05
3.62505e-06
1.06609e-05
4.45952e-06
1.06571e-05
4.44969e-06
1.21237e-05
1.84755e-05
1.84822e-05
9.71885e-06
2.1934e-05
2.19341e-05
9.71871e-06
2.19326e-05
2.19326e-05
3.94416e-06
1.9153e-06
5.12374e-06
9.03678e-06
1.90648e-06
9.03138e-06
3.95092e-06
3.93724e-06
1.9137e-06
5.12168e-06
9.03169e-06
9.02632e-06
1.90467e-06
3.94376e-06
3.93345e-06
9.02345e-06
1.88427e-06
5.11668e-06
1.89323e-06
3.92638e-06
9.02902e-06
3.92627e-06
9.0184e-06
1.88251e-06
5.11504e-06
3.91948e-06
9.02393e-06
1.89161e-06
9.71977e-06
2.19225e-05
2.19225e-05
2.19239e-05
2.1924e-05
9.71976e-06
1.84734e-05
1.84801e-05
1.21199e-05
4.43193e-06
1.06523e-05
3.61305e-06
1.2117e-05
4.44253e-06
1.06558e-05
2.24437e-05
8.90574e-06
7.20934e-06
7.20791e-06
2.24431e-05
2.24527e-05
7.20504e-06
8.90488e-06
2.24532e-05
7.20673e-06
1.21206e-05
3.6247e-06
4.45958e-06
1.06609e-05
4.44962e-06
1.06571e-05
1.21236e-05
1.21198e-05
4.43215e-06
1.06524e-05
3.61314e-06
1.21169e-05
4.44286e-06
1.06559e-05
2.24436e-05
8.90681e-06
7.21129e-06
7.20973e-06
2.2443e-05
2.24526e-05
7.20686e-06
8.90595e-06
2.24531e-05
7.2087e-06
1.21205e-05
3.62478e-06
4.45991e-06
1.0661e-05
4.44984e-06
1.06572e-05
1.21235e-05
9.71844e-06
2.19338e-05
2.19332e-05
9.7183e-06
2.19324e-05
2.19318e-05
3.93699e-06
1.91372e-06
5.12169e-06
9.0318e-06
3.94384e-06
1.90462e-06
9.02641e-06
3.94384e-06
1.9154e-06
5.12357e-06
9.0366e-06
3.9508e-06
1.90618e-06
9.0312e-06
3.92637e-06
9.01849e-06
1.88245e-06
5.11506e-06
3.91922e-06
1.89164e-06
9.02404e-06
3.93333e-06
9.02326e-06
1.884e-06
5.11711e-06
3.92606e-06
1.89333e-06
9.02883e-06
9.71937e-06
2.19223e-05
2.19217e-05
9.71935e-06
2.19237e-05
2.19231e-05
1.84735e-05
1.84802e-05
1.8475e-05
1.84817e-05
1.84643e-05
1.8458e-05
1.84663e-05
1.84599e-05
9.72007e-06
2.19013e-05
2.19015e-05
2.19028e-05
2.19029e-05
9.71978e-06
3.96104e-06
1.92598e-06
9.03375e-06
5.13441e-06
3.95352e-06
9.03897e-06
1.93566e-06
3.96705e-06
1.92834e-06
9.03911e-06
5.13672e-06
3.96133e-06
9.04435e-06
1.93639e-06
9.7196e-06
2.1913e-05
2.19131e-05
9.71977e-06
2.19115e-05
2.19117e-05
3.96956e-06
9.04624e-06
5.14087e-06
1.95695e-06
9.04119e-06
3.97751e-06
1.94713e-06
3.97773e-06
9.05162e-06
5.14253e-06
1.95738e-06
9.04656e-06
3.98306e-06
1.94976e-06
1.84432e-05
1.84496e-05
1.84453e-05
1.84516e-05
9.71976e-06
2.18927e-05
2.18927e-05
9.72017e-06
2.18915e-05
2.1891e-05
3.99928e-06
1.99843e-06
5.15782e-06
9.06107e-06
9.05555e-06
1.98792e-06
4.00994e-06
4.00918e-06
1.99726e-06
5.15987e-06
9.06431e-06
9.06034e-06
1.99103e-06
4.01105e-06
3.9936e-06
9.0484e-06
1.96774e-06
5.15204e-06
3.98477e-06
9.0534e-06
1.97777e-06
3.99842e-06
9.05375e-06
1.9707e-06
5.15423e-06
3.99344e-06
9.05847e-06
1.97778e-06
9.72012e-06
2.18825e-05
2.18808e-05
2.18832e-05
2.18823e-05
9.71965e-06
1.21279e-05
3.67136e-06
1.06715e-05
4.4911e-06
1.06677e-05
4.48219e-06
1.21304e-05
2.24342e-05
7.21258e-06
8.91113e-06
2.24349e-05
7.21357e-06
1.21273e-05
3.66e-06
1.06623e-05
4.46654e-06
1.06662e-05
1.21244e-05
4.47593e-06
2.24249e-05
7.21468e-06
8.91196e-06
7.21417e-06
2.24242e-05
1.21332e-05
1.06727e-05
4.49691e-06
3.70311e-06
1.21308e-05
1.06764e-05
4.50486e-06
2.24056e-05
8.91644e-06
7.2134e-06
7.21349e-06
2.24052e-05
2.24147e-05
7.21321e-06
8.91575e-06
2.24149e-05
7.21315e-06
1.21336e-05
3.71351e-06
1.06814e-05
4.51807e-06
1.06777e-05
4.5108e-06
1.2136e-05
1.21331e-05
1.06728e-05
4.49697e-06
3.70323e-06
1.21308e-05
1.06765e-05
4.50537e-06
2.24056e-05
8.91738e-06
7.21547e-06
7.21537e-06
2.24051e-05
2.24145e-05
7.21498e-06
8.9167e-06
2.24151e-05
7.21521e-06
1.21335e-05
3.71357e-06
1.06815e-05
4.51863e-06
1.06778e-05
4.51082e-06
1.21359e-05
9.71977e-06
2.19007e-05
2.19015e-05
2.19022e-05
2.19029e-05
9.71951e-06
3.96725e-06
1.92786e-06
9.03874e-06
5.1364e-06
9.04398e-06
3.96085e-06
1.93685e-06
3.96041e-06
1.92623e-06
9.03408e-06
5.1344e-06
1.93509e-06
3.95379e-06
9.0393e-06
9.71932e-06
2.19124e-05
2.19131e-05
2.19109e-05
9.71946e-06
2.19116e-05
3.9772e-06
9.05125e-06
5.14245e-06
1.95798e-06
9.04618e-06
1.94914e-06
3.98331e-06
3.97015e-06
9.04656e-06
5.1408e-06
1.95623e-06
1.94751e-06
9.04151e-06
3.97647e-06
1.84639e-05
1.84575e-05
1.84443e-05
1.84506e-05
9.71953e-06
2.18921e-05
2.18928e-05
9.71989e-06
2.18907e-05
2.18914e-05
4.00795e-06
1.9987e-06
5.15963e-06
9.06503e-06
1.99019e-06
9.06029e-06
4.01346e-06
4.00089e-06
1.99696e-06
5.15792e-06
9.06031e-06
9.0556e-06
1.98856e-06
4.00664e-06
3.99871e-06
9.05337e-06
1.96992e-06
5.154e-06
1.9786e-06
3.9929e-06
9.05826e-06
3.99188e-06
9.04869e-06
1.9683e-06
5.15211e-06
3.98585e-06
9.05356e-06
1.97685e-06
9.71984e-06
2.1881e-05
2.18817e-05
2.18822e-05
2.18829e-05
9.71941e-06
1.84429e-05
1.84493e-05
1.21282e-05
3.6711e-06
1.06716e-05
4.49056e-06
1.06678e-05
4.4824e-06
1.21308e-05
2.24344e-05
7.21124e-06
8.91158e-06
2.24349e-05
7.21149e-06
1.21277e-05
3.66038e-06
1.06624e-05
4.46675e-06
1.06663e-05
1.21248e-05
4.4754e-06
2.2425e-05
7.21274e-06
8.91244e-06
7.21277e-06
2.24245e-05
1.21332e-05
4.49695e-06
1.0673e-05
3.70362e-06
1.21309e-05
4.50538e-06
1.06767e-05
2.24052e-05
8.91819e-06
7.21529e-06
7.21518e-06
2.24047e-05
2.24141e-05
7.21481e-06
8.91751e-06
2.24147e-05
7.21503e-06
1.21335e-05
3.71334e-06
4.51862e-06
1.06818e-05
4.51077e-06
1.0678e-05
1.21359e-05
1.21335e-05
1.06729e-05
4.49718e-06
3.70355e-06
1.21312e-05
1.06766e-05
4.50484e-06
2.24055e-05
8.91787e-06
7.21359e-06
7.21378e-06
2.24052e-05
2.24147e-05
7.21348e-06
8.91717e-06
2.24151e-05
7.21331e-06
1.21339e-05
3.71332e-06
1.06816e-05
4.51809e-06
1.06779e-05
4.51102e-06
1.21362e-05
1.21276e-05
3.67142e-06
4.49093e-06
1.06716e-05
4.48205e-06
1.06678e-05
1.21301e-05
2.24331e-05
7.21199e-06
8.91123e-06
7.21303e-06
2.24338e-05
1.2127e-05
3.66004e-06
4.4664e-06
1.06625e-05
4.47578e-06
1.21241e-05
1.06664e-05
2.24239e-05
7.21414e-06
8.91209e-06
7.2136e-06
2.24232e-05
1.21278e-05
3.67136e-06
1.06715e-05
4.49072e-06
1.06677e-05
4.48193e-06
1.21304e-05
2.24332e-05
7.21034e-06
8.91091e-06
2.24339e-05
7.21128e-06
1.21273e-05
3.65994e-06
1.06623e-05
4.46628e-06
1.21244e-05
1.06662e-05
4.47556e-06
2.2424e-05
7.21241e-06
8.91173e-06
7.21195e-06
2.24233e-05
1.21328e-05
4.49684e-06
1.0673e-05
3.70323e-06
1.21305e-05
4.5052e-06
1.06766e-05
2.24045e-05
8.9175e-06
7.21491e-06
7.2148e-06
2.2404e-05
2.24134e-05
7.21446e-06
8.9168e-06
2.2414e-05
7.21465e-06
1.21332e-05
3.71364e-06
4.51846e-06
1.06817e-05
4.51068e-06
1.0678e-05
1.21356e-05
1.21331e-05
1.06729e-05
4.49672e-06
3.70313e-06
1.21308e-05
1.06765e-05
4.50499e-06
2.24046e-05
8.91716e-06
7.21323e-06
7.21316e-06
2.24042e-05
2.24136e-05
7.21276e-06
8.91649e-06
2.24141e-05
7.21295e-06
1.21335e-05
3.71358e-06
1.06816e-05
4.51825e-06
1.06779e-05
4.51057e-06
1.21359e-05
9.72067e-06
2.19022e-05
2.19022e-05
2.19036e-05
2.19037e-05
9.7204e-06
3.96766e-06
1.92822e-06
9.03907e-06
5.1364e-06
9.04431e-06
3.96122e-06
1.93692e-06
3.96052e-06
1.92639e-06
9.034e-06
5.13469e-06
1.93535e-06
3.95429e-06
9.0392e-06
9.72022e-06
2.19138e-05
2.19139e-05
2.19124e-05
9.72037e-06
2.19124e-05
3.97758e-06
9.05159e-06
5.1428e-06
1.95806e-06
9.04651e-06
1.9495e-06
3.98372e-06
3.97062e-06
9.04653e-06
5.14081e-06
1.95651e-06
1.94765e-06
9.04142e-06
3.97662e-06
1.8465e-05
1.84587e-05
1.84461e-05
1.84525e-05
9.72041e-06
2.18935e-05
2.18936e-05
9.72077e-06
2.18921e-05
2.18922e-05
4.00831e-06
1.99877e-06
5.15991e-06
9.06534e-06
1.99055e-06
9.06061e-06
4.01386e-06
4.00135e-06
1.99723e-06
5.15794e-06
9.06028e-06
9.05556e-06
1.98871e-06
4.00677e-06
3.99911e-06
9.0537e-06
1.97029e-06
5.1541e-06
1.97868e-06
3.99327e-06
9.05859e-06
3.99201e-06
9.04864e-06
1.96844e-06
5.15232e-06
3.98631e-06
9.05353e-06
1.97713e-06
9.72073e-06
2.18824e-05
2.18825e-05
2.18837e-05
2.18837e-05
9.72029e-06
1.8444e-05
1.84504e-05
1.21278e-05
3.67102e-06
4.49078e-06
1.06716e-05
4.48186e-06
1.06677e-05
1.21303e-05
2.24333e-05
7.21034e-06
8.911e-06
7.2113e-06
2.2434e-05
1.21272e-05
3.66042e-06
4.46621e-06
1.06624e-05
4.47562e-06
1.21243e-05
1.06663e-05
2.2424e-05
7.21243e-06
8.91183e-06
7.21195e-06
2.24234e-05
1.21276e-05
3.6711e-06
4.4911e-06
1.06717e-05
4.48208e-06
1.06679e-05
1.21302e-05
2.24331e-05
7.21215e-06
8.91207e-06
2.24338e-05
7.21323e-06
1.21271e-05
3.66051e-06
4.46643e-06
1.06625e-05
1.21242e-05
4.47594e-06
1.06664e-05
2.24239e-05
7.21434e-06
8.9129e-06
7.21377e-06
2.24232e-05
1.2133e-05
4.49665e-06
1.06729e-05
3.70359e-06
1.21307e-05
4.50505e-06
1.06766e-05
2.24047e-05
8.91727e-06
7.21324e-06
7.21316e-06
2.24042e-05
2.24136e-05
7.21277e-06
8.91659e-06
2.24142e-05
7.21296e-06
1.21334e-05
3.71324e-06
4.5183e-06
1.06816e-05
4.51049e-06
1.06779e-05
1.21358e-05
1.21329e-05
4.49686e-06
1.0673e-05
3.70368e-06
1.21306e-05
4.50537e-06
1.06767e-05
2.24045e-05
8.91832e-06
7.21509e-06
7.21497e-06
2.24041e-05
2.24134e-05
7.21462e-06
8.91764e-06
2.2414e-05
7.21484e-06
1.21333e-05
3.71332e-06
4.51862e-06
1.06817e-05
4.5107e-06
1.0678e-05
1.21356e-05
1.84652e-05
1.84588e-05
1.84667e-05
1.84603e-05
9.72002e-06
2.18933e-05
2.18927e-05
9.72038e-06
2.18919e-05
2.18913e-05
4.00116e-06
1.99721e-06
5.158e-06
9.06034e-06
1.9887e-06
9.05561e-06
4.00681e-06
4.00799e-06
1.99889e-06
5.15993e-06
9.06517e-06
1.99026e-06
9.06044e-06
4.01377e-06
3.99205e-06
9.0487e-06
1.96843e-06
5.15235e-06
3.98611e-06
1.9771e-06
9.05359e-06
3.99901e-06
9.05351e-06
1.96999e-06
5.15433e-06
3.99295e-06
1.97878e-06
9.05841e-06
9.72034e-06
2.18822e-05
2.18816e-05
2.18835e-05
2.18829e-05
9.71989e-06
1.84441e-05
1.84505e-05
1.84457e-05
1.8452e-05
1.17703e-07
1.17699e-07
1.33139e-07
1.1661e-07
1.16608e-07
1.09947e-07
1.1123e-07
1.74012e-06
7.67681e-07
7.67985e-07
3.59013e-07
1.73336e-06
7.7167e-07
7.71951e-07
1.71082e-06
3.52312e-07
7.56595e-07
7.569e-07
7.52656e-07
7.52962e-07
1.71767e-06
1.71068e-06
3.52279e-07
7.56827e-07
7.56546e-07
7.52888e-07
7.52616e-07
1.71759e-06
1.71091e-06
3.52349e-07
7.5695e-07
7.56685e-07
7.53019e-07
7.52738e-07
1.71781e-06
1.71084e-06
3.52337e-07
7.56666e-07
7.56941e-07
1.71775e-06
7.52704e-07
7.53002e-07
1.74004e-06
7.6763e-07
7.67946e-07
3.58985e-07
1.73332e-06
7.71597e-07
7.71909e-07
1.79805e-06
3.77661e-07
8.17736e-07
8.16922e-07
8.12894e-07
8.13717e-07
1.80437e-06
1.73996e-06
7.67865e-07
7.67588e-07
3.58944e-07
7.71546e-07
1.7332e-06
7.71831e-07
1.798e-06
3.77628e-07
8.1741e-07
8.17115e-07
8.13409e-07
8.13122e-07
1.8043e-06
1.74019e-06
7.67997e-07
7.6771e-07
3.59024e-07
7.71694e-07
1.73342e-06
7.7196e-07
1.79823e-06
3.77704e-07
8.17555e-07
8.17274e-07
8.13557e-07
8.13254e-07
1.80454e-06
1.79817e-06
3.77695e-07
8.17249e-07
8.17547e-07
8.13223e-07
8.13545e-07
1.80446e-06
1.35118e-07
1.18836e-07
1.18833e-07
1.20011e-07
1.20008e-07
1.13896e-07
1.12546e-07
1.35114e-07
1.18836e-07
1.18831e-07
1.20011e-07
1.20007e-07
1.13896e-07
1.12546e-07
1.35123e-07
1.18839e-07
1.18835e-07
1.20013e-07
1.20009e-07
1.13897e-07
1.12547e-07
1.35117e-07
1.18836e-07
1.18833e-07
1.20012e-07
1.20008e-07
1.13897e-07
1.12546e-07
1.17703e-07
1.17698e-07
1.33137e-07
1.16611e-07
1.16606e-07
1.09947e-07
1.1123e-07
1.17706e-07
1.17701e-07
1.33147e-07
1.16614e-07
1.16609e-07
1.09948e-07
1.11231e-07
1.17703e-07
1.177e-07
1.33141e-07
1.16611e-07
1.16608e-07
1.09948e-07
1.11231e-07
1.32592e-07
1.14526e-07
1.14524e-07
1.15554e-07
1.15551e-07
1.08691e-07
1.07456e-07
1.32588e-07
1.14527e-07
1.14522e-07
1.15554e-07
1.15549e-07
1.08691e-07
1.07456e-07
1.32598e-07
1.14529e-07
1.14525e-07
1.15557e-07
1.15552e-07
1.08692e-07
1.07457e-07
1.32592e-07
1.14527e-07
1.14524e-07
1.15555e-07
1.15551e-07
1.08692e-07
1.07457e-07
4.76638e-07
1.15192e-06
1.47488e-06
3.88726e-07
1.46827e-06
3.87208e-07
4.78123e-07
6.56076e-07
1.00131e-06
2.07336e-06
2.80165e-06
6.53872e-07
1.00614e-06
2.07945e-06
4.69269e-07
1.1373e-06
1.4463e-06
3.80185e-07
4.67831e-07
1.45297e-06
3.81643e-07
6.65652e-07
2.10014e-06
2.81455e-06
1.02321e-06
1.01837e-06
2.09421e-06
6.67891e-07
4.76657e-07
1.15196e-06
3.88757e-07
1.47483e-06
3.87244e-07
1.46822e-06
4.7815e-07
6.56056e-07
1.0014e-06
2.07306e-06
2.80185e-06
6.53839e-07
1.00625e-06
2.07916e-06
4.69294e-07
1.13734e-06
3.80221e-07
1.44625e-06
4.67854e-07
3.81673e-07
1.45292e-06
6.65619e-07
2.09986e-06
2.81464e-06
1.02332e-06
1.01846e-06
2.0939e-06
6.67872e-07
1.75542e-06
3.64628e-07
7.86787e-07
7.87074e-07
7.82775e-07
7.83085e-07
1.76204e-06
1.69487e-06
3.47031e-07
7.37807e-07
7.38103e-07
1.68786e-06
7.41717e-07
7.42013e-07
4.52217e-07
1.40162e-06
3.66843e-07
1.09472e-06
4.50854e-07
1.40848e-06
3.68186e-07
6.42244e-07
9.8928e-07
2.77745e-06
2.05815e-06
9.84447e-07
2.05187e-06
6.44439e-07
6.32995e-07
2.03027e-06
9.67508e-07
2.76389e-06
9.72327e-07
6.30838e-07
2.03668e-06
4.59216e-07
1.10938e-06
1.43082e-06
3.74792e-07
1.42403e-06
3.73399e-07
4.60623e-07
4.52281e-07
1.40181e-06
3.66852e-07
1.09475e-06
4.50918e-07
1.40868e-06
3.68203e-07
6.42453e-07