/*--------------------------------*- C++ -*----------------------------------*\
| =========                 |                                                 |
| \\      /  F ield         | OpenFOAM: The Open Source CFD Toolbox           |
|  \\    /   O peration     | Version:  v1906                                 |
|   \\  /    A nd           | Web:      www.OpenFOAM.com                      |
|    \\/     M anipulation  |                                                 |
\*---------------------------------------------------------------------------*/
FoamFile
{
    version     2.0;
    format      ascii;
    class       volScalarField;
    location    "125";
    object      k;
}
// * * * * * * * * * * * * * * * * * * * * * * * * * * * * * * * * * * * * * //

dimensions      [0 2 -2 0 0 0 0];


internalField   nonuniform List<scalar> 
43248
(
2.30531e-05
1.82654e-05
1.82649e-05
2.30513e-05
1.82636e-05
1.82651e-05
1.82623e-05
1.82657e-05
2.30533e-05
1.82643e-05
1.82651e-05
2.30542e-05
1.3079e-05
1.30787e-05
1.30791e-05
1.30795e-05
6.91436e-05
6.91458e-05
6.16034e-05
6.16112e-05
5.77326e-05
6.99549e-05
5.77359e-05
5.77343e-05
6.99601e-05
6.99588e-05
5.77377e-05
3.77743e-05
5.06324e-05
1.46496e-05
1.46495e-05
3.7775e-05
3.77758e-05
1.82649e-05
5.06356e-05
1.46499e-05
5.06356e-05
1.46499e-05
3.77764e-05
6.91458e-05
6.91406e-05
2.30842e-05
6.16127e-05
6.15973e-05
6.16111e-05
6.15963e-05
6.91417e-05
6.91362e-05
6.99603e-05
5.77396e-05
5.06343e-05
1.46509e-05
3.77786e-05
6.9955e-05
5.7738e-05
1.46504e-05
5.06307e-05
3.77776e-05
3.77768e-05
1.82623e-05
5.06292e-05
1.46499e-05
5.06305e-05
1.46499e-05
3.77766e-05
5.77347e-05
6.99584e-05
6.99572e-05
5.7738e-05
3.77758e-05
1.82656e-05
1.46504e-05
5.0632e-05
1.46504e-05
5.0632e-05
3.77761e-05
5.77334e-05
6.9956e-05
6.99547e-05
5.77366e-05
6.91439e-05
6.16056e-05
6.16021e-05
6.9144e-05
3.77778e-05
1.46511e-05
5.06325e-05
1.4651e-05
3.77775e-05
3.77786e-05
1.8265e-05
1.46514e-05
5.06361e-05
1.46513e-05
5.0636e-05
3.77783e-05
5.7735e-05
6.99563e-05
5.77386e-05
5.77362e-05
6.99607e-05
6.99594e-05
5.77398e-05
2.30872e-05
6.16022e-05
6.16137e-05
6.16008e-05
6.16121e-05
6.91438e-05
6.91387e-05
6.91462e-05
6.9141e-05
6.91384e-05
6.91406e-05
6.13793e-05
4.62136e-05
6.16017e-05
6.91828e-05
6.91806e-05
4.62053e-05
6.13949e-05
6.14401e-05
4.62148e-05
6.161e-05
6.91931e-05
6.91923e-05
4.62161e-05
6.14299e-05
8.86357e-05
7.19514e-05
7.19449e-05
7.19449e-05
7.19388e-05
8.86354e-05
6.97236e-05
6.9286e-05
6.24642e-05
5.77358e-05
6.9721e-05
6.92877e-05
6.24687e-05
7.03018e-05
6.99537e-05
7.47374e-05
7.47323e-05
7.03106e-05
6.9721e-05
5.77327e-05
6.92877e-05
6.24688e-05
6.9286e-05
6.24643e-05
6.97235e-05
6.9726e-05
6.92867e-05
6.2471e-05
5.77376e-05
6.97235e-05
6.92884e-05
6.24758e-05
7.03046e-05
6.99589e-05
7.47588e-05
7.47526e-05
7.03129e-05
7.03129e-05
7.47526e-05
6.99601e-05
7.03046e-05
7.47587e-05
6.97235e-05
5.77344e-05
6.92884e-05
6.2476e-05
6.92867e-05
6.24711e-05
6.9726e-05
6.91406e-05
6.91458e-05
8.86374e-05
7.19391e-05
7.1944e-05
8.86343e-05
7.19455e-05
7.19503e-05
6.14388e-05
4.62186e-05
6.16112e-05
6.91938e-05
4.62168e-05
6.91922e-05
6.14408e-05
6.13776e-05
4.62025e-05
6.15963e-05
6.91806e-05
6.91791e-05
4.62007e-05
6.13797e-05
6.14411e-05
6.91922e-05
4.62169e-05
6.16126e-05
4.62186e-05
6.14386e-05
6.91937e-05
6.13799e-05
6.91791e-05
4.62008e-05
6.15973e-05
6.13774e-05
6.91806e-05
4.62025e-05
8.86343e-05
7.19454e-05
7.19503e-05
7.19391e-05
7.19439e-05
8.86373e-05
6.91362e-05
6.91417e-05
7.03045e-05
6.99591e-05
7.47574e-05
7.47512e-05
7.03127e-05
6.97236e-05
5.7736e-05
6.24751e-05
6.92896e-05
6.247e-05
6.9288e-05
6.9726e-05
7.03013e-05
6.99537e-05
7.47364e-05
7.47308e-05
7.03102e-05
6.97213e-05
5.77345e-05
6.92889e-05
6.24687e-05
6.92872e-05
6.24641e-05
6.97238e-05
6.97255e-05
6.24701e-05
6.92868e-05
5.77379e-05
6.97231e-05
6.2475e-05
6.92885e-05
7.0304e-05
6.99572e-05
7.47566e-05
7.47503e-05
7.03123e-05
7.03123e-05
7.47503e-05
6.99584e-05
7.0304e-05
7.47565e-05
6.97231e-05
5.77348e-05
6.24752e-05
6.92885e-05
6.24701e-05
6.92868e-05
6.97255e-05
6.97243e-05
6.92863e-05
6.24655e-05
5.77366e-05
6.97218e-05
6.9288e-05
6.24703e-05
7.03023e-05
6.99548e-05
7.47375e-05
7.47314e-05
7.03105e-05
7.03105e-05
7.47313e-05
6.9956e-05
7.03023e-05
7.47374e-05
6.97218e-05
5.77335e-05
6.9288e-05
6.24705e-05
6.92863e-05
6.24656e-05
6.97242e-05
6.91383e-05
6.144e-05
4.62182e-05
6.16045e-05
6.91919e-05
4.62166e-05
6.91903e-05
6.14421e-05
6.13805e-05
4.62063e-05
6.16007e-05
6.91816e-05
6.91801e-05
4.62046e-05
6.13824e-05
8.86389e-05
7.19453e-05
7.19511e-05
7.19389e-05
7.19447e-05
8.86418e-05
6.91389e-05
6.97245e-05
6.24653e-05
6.92875e-05
5.77385e-05
6.97221e-05
6.24701e-05
6.92892e-05
7.03029e-05
6.99551e-05
7.47379e-05
7.47316e-05
7.03111e-05
7.03111e-05
7.47377e-05
6.97221e-05
5.77351e-05
6.24704e-05
6.92892e-05
6.24653e-05
6.92875e-05
6.97245e-05
6.97258e-05
6.24698e-05
6.9288e-05
5.77397e-05
6.97232e-05
6.24743e-05
6.92897e-05
7.03039e-05
6.99594e-05
7.47553e-05
7.47498e-05
7.03128e-05
7.03129e-05
7.475e-05
6.99607e-05
7.0304e-05
7.47555e-05
6.97232e-05
5.77363e-05
6.24743e-05
6.92897e-05
6.24697e-05
6.9288e-05
6.97258e-05
8.86395e-05
7.19446e-05
7.1939e-05
8.86366e-05
7.19509e-05
7.19454e-05
6.13783e-05
4.62053e-05
6.16008e-05
6.91813e-05
4.62035e-05
6.91797e-05
6.13804e-05
6.14405e-05
4.62208e-05
6.16122e-05
6.91941e-05
4.62189e-05
6.91926e-05
6.14425e-05
6.13806e-05
6.91797e-05
4.62036e-05
6.16021e-05
6.13781e-05
4.62053e-05
6.91813e-05
6.14428e-05
6.91926e-05
4.6219e-05
6.16136e-05
6.14403e-05
4.62209e-05
6.91941e-05
8.86365e-05
7.19509e-05
7.19453e-05
7.19445e-05
7.1939e-05
8.86394e-05
6.91387e-05
6.91439e-05
6.9141e-05
6.91462e-05
4.53599e-05
2.30893e-05
3.26429e-05
3.26363e-05
3.26539e-05
3.26594e-05
4.53595e-05
4.53593e-05
2.30878e-05
3.26413e-05
3.2636e-05
3.2657e-05
3.26516e-05
4.53581e-05
4.53605e-05
2.30898e-05
3.2642e-05
3.26388e-05
3.26577e-05
3.26543e-05
4.53598e-05
4.53607e-05
2.30907e-05
3.26382e-05
3.26446e-05
3.26536e-05
3.26601e-05
4.536e-05
1.22141e-05
1.22142e-05
1.22141e-05
1.19887e-05
1.19887e-05
1.30787e-05
1.22141e-05
1.22141e-05
1.22141e-05
1.22141e-05
1.19887e-05
1.19887e-05
1.22143e-05
1.22144e-05
1.22144e-05
1.19887e-05
1.19887e-05
1.30795e-05
1.22144e-05
1.22144e-05
1.22144e-05
1.22144e-05
1.19887e-05
1.19887e-05
2.57117e-05
4.12792e-05
2.35497e-05
3.77691e-05
2.57424e-05
4.12733e-05
2.35291e-05
2.95552e-05
3.57173e-05
5.0632e-05
4.64366e-05
3.57276e-05
4.644e-05
2.95288e-05
2.57424e-05
3.77746e-05
4.12788e-05
2.35295e-05
4.12777e-05
2.35497e-05
2.57117e-05
2.5715e-05
4.1285e-05
2.35509e-05
3.77707e-05
2.57458e-05
4.12791e-05
2.35302e-05
2.95601e-05
3.57199e-05
5.06354e-05
4.64458e-05
4.64498e-05
3.57322e-05
2.95332e-05
2.95333e-05
4.64503e-05
3.57323e-05
5.06356e-05
2.95595e-05
4.64445e-05
3.57199e-05
2.57456e-05
3.77762e-05
4.12842e-05
2.35305e-05
4.12833e-05
2.35508e-05
2.57147e-05
4.5356e-05
2.30511e-05
3.26573e-05
3.26519e-05
3.26414e-05
4.53603e-05
3.26362e-05
2.95598e-05
3.57172e-05
5.06348e-05
4.6444e-05
3.57312e-05
4.6448e-05
2.95321e-05
2.57471e-05
3.7779e-05
4.12842e-05
2.35328e-05
4.12831e-05
2.35531e-05
2.57157e-05
2.95568e-05
3.57179e-05
5.06307e-05
4.64361e-05
4.64398e-05
3.57301e-05
2.95297e-05
2.57446e-05
3.77775e-05
2.35319e-05
4.12801e-05
2.35522e-05
4.1279e-05
2.57134e-05
2.57132e-05
4.12842e-05
2.35508e-05
3.77714e-05
2.57442e-05
4.12774e-05
2.35302e-05
2.95561e-05
3.57117e-05
5.06293e-05
4.64426e-05
3.57238e-05
4.64467e-05
2.9529e-05
2.9529e-05
4.64474e-05
3.5724e-05
5.06293e-05
2.95553e-05
3.57117e-05
4.64411e-05
2.5744e-05
3.77766e-05
4.1283e-05
2.35305e-05
4.12815e-05
2.35507e-05
2.5713e-05
2.57137e-05
2.35509e-05
4.12816e-05
3.77709e-05
2.57445e-05
2.35304e-05
4.12759e-05
2.95571e-05
3.57156e-05
5.06318e-05
4.64383e-05
4.64425e-05
3.57276e-05
2.95301e-05
2.95304e-05
4.64428e-05
3.57277e-05
5.0632e-05
2.95565e-05
4.6437e-05
3.57155e-05
2.57443e-05
3.77762e-05
2.35306e-05
4.12807e-05
2.35508e-05
4.12799e-05
2.57134e-05
2.57146e-05
2.35531e-05
4.1282e-05
3.7772e-05
2.57455e-05
2.35324e-05
4.12748e-05
2.95569e-05
3.57152e-05
5.06322e-05
4.64394e-05
3.57274e-05
4.64412e-05
2.95301e-05
2.95298e-05
4.64352e-05
2.57453e-05
3.77774e-05
2.35327e-05
4.12813e-05
2.3553e-05
4.12793e-05
2.57145e-05
2.57171e-05
2.35538e-05
4.1286e-05
3.77731e-05
2.5748e-05
2.35332e-05
4.12798e-05
2.95608e-05
3.57207e-05
5.06359e-05
4.64436e-05
4.64485e-05
3.57329e-05
2.95335e-05
2.95339e-05
4.64495e-05
3.5733e-05
5.0636e-05
2.95601e-05
4.64436e-05
3.57207e-05
2.57478e-05
3.77788e-05
2.35335e-05
4.12841e-05
2.35537e-05
4.1284e-05
2.57168e-05
4.53578e-05
2.30542e-05
3.26539e-05
3.26603e-05
4.53619e-05
3.26383e-05
3.26446e-05
1.49369e-05
1.61534e-05
1.6154e-05
1.81344e-05
1.80256e-05
1.61334e-05
1.61335e-05
1.80251e-05
1.61335e-05
1.61338e-05
1.61331e-05
1.61334e-05
1.80261e-05
1.61336e-05
1.61338e-05
1.80259e-05
1.8134e-05
1.85969e-05
1.61532e-05
1.61539e-05
1.62496e-05
1.62496e-05
1.81336e-05
1.85964e-05
1.61542e-05
1.61541e-05
1.62489e-05
1.62499e-05
1.61537e-05
1.62488e-05
1.62493e-05
1.81346e-05
1.85976e-05
1.61542e-05
1.62495e-05
1.62498e-05
1.85974e-05
1.50252e-05
1.50252e-05
1.50252e-05
1.50253e-05
5.35392e-05
7.00322e-05
5.29187e-05
7.00589e-05
6.96285e-05
6.96078e-05
5.35406e-05
7.00377e-05
5.29203e-05
7.00645e-05
1.49369e-05
1.49369e-05
1.4937e-05
1.46909e-05
1.4691e-05
1.4691e-05
1.46911e-05
2.93911e-05
4.52146e-05
1.49112e-05
1.61794e-05
2.8827e-05
4.56315e-05
1.48617e-05
6.96288e-05
6.96082e-05
2.93913e-05
1.49113e-05
4.52108e-05
1.61799e-05
2.88273e-05
1.48619e-05
4.56373e-05
5.90099e-05
5.9022e-05
1.82974e-05
5.92931e-05
5.93052e-05
6.96431e-05
6.96651e-05
6.96451e-05
6.9667e-05
1.78805e-05
5.89507e-05
5.89638e-05
5.86465e-05
5.86589e-05
5.21109e-05
7.00275e-05
7.00002e-05
5.279e-05
5.21121e-05
7.00327e-05
7.00052e-05
5.27913e-05
2.79784e-05
1.61183e-05
4.49993e-05
1.49649e-05
4.45654e-05
1.50231e-05
2.85388e-05
2.7979e-05
1.61188e-05
4.50081e-05
1.49649e-05
4.45668e-05
1.50232e-05
2.85395e-05
6.96447e-05
6.96667e-05
1.78801e-05
5.89635e-05
5.89515e-05
5.86582e-05
5.86465e-05
6.96428e-05
6.96648e-05
5.21123e-05
7.00331e-05
7.00056e-05
5.27916e-05
2.79798e-05
1.61192e-05
4.50062e-05
1.49651e-05
4.45681e-05
1.50233e-05
2.85402e-05
5.21113e-05
7.00291e-05
7.00017e-05
5.27905e-05
2.79793e-05
1.61191e-05
1.49649e-05
4.50034e-05
1.50231e-05
4.45693e-05
2.85399e-05
2.79787e-05
1.61185e-05
4.49985e-05
1.49651e-05
4.45643e-05
1.50233e-05
2.85392e-05
5.21123e-05
7.00322e-05
7.00048e-05
5.27914e-05
2.79783e-05
1.61187e-05
1.4965e-05
4.5002e-05
1.50232e-05
4.45636e-05
2.85388e-05
5.2111e-05
7.00281e-05
7.00006e-05
5.27902e-05
6.96451e-05
6.9667e-05
1.7881e-05
5.89618e-05
5.89522e-05
5.86571e-05
5.86476e-05
6.96434e-05
6.96654e-05
2.79791e-05
1.6119e-05
1.49652e-05
4.50035e-05
1.50234e-05
4.45626e-05
2.85395e-05
2.79797e-05
1.61192e-05
1.49653e-05
4.50073e-05
1.50235e-05
4.4568e-05
2.85401e-05
5.21113e-05
7.00283e-05
7.00007e-05
5.27904e-05
5.21125e-05
7.00332e-05
7.00056e-05
5.27916e-05
1.78808e-05
5.89525e-05
5.89647e-05
5.86478e-05
5.86597e-05
6.96433e-05
6.96653e-05
6.96453e-05
6.96673e-05
6.96269e-05
6.96062e-05
6.96288e-05
6.96082e-05
5.90085e-05
5.90209e-05
1.8297e-05
5.92912e-05
5.93046e-05
6.95693e-05
6.959e-05
6.95713e-05
6.95921e-05
1.84168e-05
5.96179e-05
5.96258e-05
5.93456e-05
5.93583e-05
5.35405e-05
7.00372e-05
5.292e-05
7.0064e-05
2.93907e-05
4.52155e-05
1.49109e-05
1.61798e-05
2.88266e-05
4.56311e-05
1.48615e-05
2.93914e-05
4.52153e-05
1.4911e-05
1.61799e-05
2.88272e-05
4.56418e-05
1.48616e-05
5.36562e-05
7.00859e-05
7.00629e-05
5.42263e-05
5.36575e-05
7.0091e-05
7.00678e-05
5.42276e-05
2.9679e-05
1.62109e-05
4.62397e-05
1.47762e-05
4.58375e-05
1.48165e-05
3.02428e-05
2.96797e-05
1.62118e-05
4.62497e-05
1.47763e-05
4.58365e-05
1.48166e-05
3.02436e-05
5.90208e-05
5.90089e-05
1.82964e-05
5.93039e-05
5.92918e-05
6.96265e-05
6.96059e-05
6.95712e-05
6.95919e-05
1.84164e-05
5.9628e-05
5.96159e-05
5.93577e-05
5.93458e-05
6.95691e-05
6.95898e-05
2.93919e-05
4.52167e-05
1.49112e-05
1.61797e-05
2.8828e-05
4.56395e-05
1.48618e-05
5.35397e-05
7.00337e-05
5.29192e-05
7.00604e-05
2.93917e-05
1.4911e-05
4.52197e-05
1.61802e-05
2.88275e-05
1.48615e-05
4.56353e-05
5.36578e-05
7.00914e-05
7.00684e-05
5.42275e-05
2.96806e-05
1.62122e-05
4.62466e-05
1.47765e-05
4.58384e-05
1.48168e-05
3.02438e-05
5.36567e-05
7.00874e-05
7.00644e-05
5.42264e-05
2.96801e-05
1.62121e-05
1.47762e-05
4.62431e-05
1.48166e-05
4.58416e-05
3.02436e-05
5.35407e-05
7.00368e-05
5.29202e-05
7.00635e-05
2.93906e-05
1.4911e-05
4.5212e-05
1.61797e-05
2.88264e-05
1.48616e-05
4.56358e-05
5.35394e-05
7.00327e-05
5.29189e-05
7.00595e-05
2.96795e-05
1.62111e-05
4.62397e-05
1.47764e-05
4.58356e-05
1.48168e-05
3.0243e-05
5.36577e-05
7.00904e-05
7.00675e-05
5.42276e-05
2.9679e-05
1.62115e-05
1.47763e-05
4.62437e-05
1.48166e-05
4.58333e-05
3.02426e-05
5.36565e-05
7.00866e-05
7.00634e-05
5.42263e-05
5.90194e-05
5.90096e-05
1.82976e-05
5.93021e-05
5.92927e-05
6.96272e-05
6.96065e-05
6.95714e-05
6.95921e-05
1.84174e-05
5.96261e-05
5.96168e-05
5.93563e-05
5.93465e-05
6.95697e-05
6.95904e-05
2.9392e-05
1.49114e-05
4.52164e-05
1.61802e-05
2.88279e-05
1.48619e-05
4.56411e-05
5.35399e-05
7.00328e-05
5.29191e-05
7.00596e-05
5.35411e-05
7.00377e-05
5.29203e-05
7.00645e-05
2.96799e-05
1.62117e-05
1.47766e-05
4.62452e-05
1.48168e-05
4.58321e-05
3.02432e-05
2.96806e-05
1.6212e-05
1.47767e-05
4.62491e-05
1.4817e-05
4.58376e-05
3.02439e-05
5.36568e-05
7.00867e-05
7.00635e-05
5.42265e-05
5.3658e-05
7.00915e-05
7.00684e-05
5.42277e-05
6.96271e-05
6.96064e-05
6.96292e-05
6.96085e-05
1.84172e-05
5.96173e-05
5.96293e-05
5.93471e-05
5.9359e-05
6.95696e-05
6.95904e-05
6.95717e-05
6.95925e-05
6.98364e-05
5.32962e-05
6.91629e-05
5.95532e-05
6.91464e-05
5.93766e-05
6.98463e-05
7.09889e-05
7.40003e-05
7.00436e-05
7.099e-05
7.40733e-05
6.98343e-05
5.31736e-05
6.91232e-05
5.91033e-05
6.98231e-05
6.91402e-05
5.92888e-05
7.0969e-05
7.41687e-05
7.00481e-05
7.41009e-05
7.09679e-05
6.96262e-05
6.96102e-05
6.98377e-05
5.32977e-05
5.95578e-05
6.91634e-05
5.93813e-05
6.91469e-05
6.98476e-05
7.09905e-05
7.40206e-05
7.00492e-05
7.09919e-05
7.4094e-05
6.98356e-05
5.31751e-05
5.9108e-05
6.91236e-05
6.98244e-05
5.92934e-05
6.91407e-05
7.09709e-05
7.41893e-05
7.00535e-05
7.41214e-05
7.09695e-05
6.96266e-05
6.96105e-05
8.74498e-05
7.24163e-05
7.24104e-05
7.24196e-05
7.24137e-05
8.75215e-05
5.70819e-05
3.89686e-05
6.87916e-05
5.91257e-05
5.69006e-05
3.91861e-05
6.88182e-05
5.71463e-05
3.89874e-05
6.88038e-05
5.91379e-05
5.6968e-05
3.92048e-05
6.88304e-05
8.74183e-05
7.2442e-05
7.24361e-05
8.73431e-05
7.24387e-05
7.24328e-05
5.7184e-05
6.8855e-05
5.91811e-05
3.9572e-05
3.93571e-05
6.88293e-05
5.73612e-05
5.72513e-05
6.88673e-05
5.91931e-05
3.95906e-05
3.93758e-05
6.88416e-05
5.74255e-05
6.96456e-05
6.96624e-05
6.96475e-05
6.96643e-05
8.71932e-05
7.24866e-05
7.24802e-05
8.71106e-05
7.24833e-05
7.24771e-05
5.66103e-05
3.87939e-05
5.88308e-05
6.87795e-05
6.87523e-05
3.8573e-05
5.67899e-05
5.66831e-05
3.88074e-05
5.88432e-05
6.87921e-05
6.87647e-05
3.85958e-05
5.68492e-05
5.64929e-05
6.8712e-05
3.81735e-05
5.87708e-05
5.63103e-05
6.87401e-05
3.83952e-05
5.65543e-05
6.87244e-05
3.8195e-05
5.87837e-05
5.63818e-05
6.87527e-05
3.84104e-05
8.72288e-05
7.24611e-05
7.24548e-05
7.24643e-05
7.24579e-05
8.7308e-05
6.98063e-05
6.90798e-05
5.85157e-05
5.23884e-05
6.97953e-05
6.90947e-05
5.8719e-05
7.10106e-05
7.00162e-05
7.397e-05
7.10097e-05
7.38917e-05
7.103e-05
7.37772e-05
7.00115e-05
7.10307e-05
7.38591e-05
6.9809e-05
5.2523e-05
6.91168e-05
5.90109e-05
6.98205e-05
6.91005e-05
5.88161e-05
6.98078e-05
6.90803e-05
5.85209e-05
5.23896e-05
6.97968e-05
6.90952e-05
5.87244e-05
7.10126e-05
7.00212e-05
7.39923e-05
7.39136e-05
7.10113e-05
7.10316e-05
7.37985e-05
7.00167e-05
7.10327e-05
7.38809e-05
6.98105e-05
5.25243e-05
6.91173e-05
5.90163e-05
6.9101e-05
5.88214e-05
6.9822e-05
6.96472e-05
6.96639e-05
8.7192e-05
7.24806e-05
7.24856e-05
8.7109e-05
7.24774e-05
7.24825e-05
5.66734e-05
3.88111e-05
5.8843e-05
6.87918e-05
3.85913e-05
6.87644e-05
5.68571e-05
5.66078e-05
3.87908e-05
5.88312e-05
6.87797e-05
6.87524e-05
3.85733e-05
5.67906e-05
5.65608e-05
6.87241e-05
3.8191e-05
5.87833e-05
3.84132e-05
5.63732e-05
6.87524e-05
5.64942e-05
6.87122e-05
3.8173e-05
5.87713e-05
5.63075e-05
6.87403e-05
3.83928e-05
8.72273e-05
7.24551e-05
7.24602e-05
7.24583e-05
7.24633e-05
8.73066e-05
6.96453e-05
6.96621e-05
6.98076e-05
5.85202e-05
6.90802e-05
5.23897e-05
6.97965e-05
5.87234e-05
6.90951e-05
7.10125e-05
7.00216e-05
7.39904e-05
7.10112e-05
7.39117e-05
7.10315e-05
7.37966e-05
7.00171e-05
7.10326e-05
7.3879e-05
6.98103e-05
5.25244e-05
5.90155e-05
6.91173e-05
6.98218e-05
5.88206e-05
6.9101e-05
6.98064e-05
6.90798e-05
5.85159e-05
5.23888e-05
6.97954e-05
6.90947e-05
5.87191e-05
7.10102e-05
7.00177e-05
7.39698e-05
7.38916e-05
7.10094e-05
7.10297e-05
7.3777e-05
7.00131e-05
7.10304e-05
7.38589e-05
6.98091e-05
5.25234e-05
6.91169e-05
5.90109e-05
6.91005e-05
5.88162e-05
6.98206e-05
6.98074e-05
5.85199e-05
6.90803e-05
5.23898e-05
6.97963e-05
5.87232e-05
6.90951e-05
7.10122e-05
7.00208e-05
7.39896e-05
7.3911e-05
7.1011e-05
7.10313e-05
7.37958e-05
7.00161e-05
7.10323e-05
7.38782e-05
6.981e-05
5.25244e-05
5.90151e-05
6.91173e-05
5.88204e-05
6.9101e-05
6.98216e-05
6.98061e-05
6.90797e-05
5.85154e-05
5.23885e-05
6.9795e-05
6.90946e-05
5.87186e-05
7.101e-05
7.00166e-05
7.39695e-05
7.3891e-05
7.10088e-05
7.1029e-05
7.37758e-05
7.00121e-05
7.10301e-05
7.38581e-05
6.98087e-05
5.25232e-05
6.91168e-05
5.90105e-05
6.91005e-05
5.88158e-05
6.98202e-05
6.96475e-05
6.96644e-05
8.71972e-05
7.2481e-05
7.24867e-05
8.71143e-05
7.24778e-05
7.24835e-05
5.66765e-05
3.88119e-05
5.88417e-05
6.87919e-05
3.85953e-05
6.87645e-05
5.68611e-05
5.6611e-05
3.87942e-05
5.8832e-05
6.87799e-05
6.87527e-05
3.85753e-05
5.6793e-05
5.65648e-05
6.87242e-05
3.81948e-05
5.87818e-05
3.8414e-05
5.63762e-05
6.87525e-05
5.64965e-05
6.87125e-05
3.81751e-05
5.87722e-05
5.63108e-05
6.87406e-05
3.83962e-05
8.72325e-05
7.24555e-05
7.24612e-05
7.24587e-05
7.24644e-05
8.73118e-05
6.96459e-05
6.96626e-05
6.98059e-05
5.85152e-05
6.90797e-05
5.23888e-05
6.97949e-05
5.87184e-05
6.90946e-05
7.10103e-05
7.00167e-05
7.39694e-05
7.38908e-05
7.10091e-05
7.10294e-05
7.37757e-05
7.00122e-05
7.10304e-05
7.3858e-05
6.98086e-05
5.25233e-05
5.90103e-05
6.91168e-05
5.88156e-05
6.91004e-05
6.98201e-05
6.98073e-05
5.85201e-05
6.90801e-05
5.239e-05
6.97963e-05
5.87235e-05
6.90951e-05
7.10121e-05
7.00217e-05
7.39892e-05
7.39105e-05
7.10108e-05
7.10311e-05
7.37954e-05
7.00171e-05
7.10321e-05
7.38779e-05
6.981e-05
5.25245e-05
5.90154e-05
6.91172e-05
5.88205e-05
6.91009e-05
6.98215e-05
8.7195e-05
7.24865e-05
7.24806e-05
8.71121e-05
7.24833e-05
7.24774e-05
5.66085e-05
3.8794e-05
5.88322e-05
6.878e-05
5.67939e-05
3.85743e-05
6.87526e-05
5.66761e-05
3.88126e-05
5.88443e-05
6.87922e-05
5.68583e-05
3.85932e-05
6.87648e-05
5.64976e-05
6.87124e-05
3.81742e-05
5.87725e-05
5.63082e-05
3.83961e-05
6.87406e-05
5.6562e-05
6.87245e-05
3.81929e-05
5.87846e-05
5.6376e-05
3.84148e-05
6.87528e-05
8.72304e-05
7.2461e-05
7.24552e-05
8.73097e-05
7.24642e-05
7.24583e-05
6.96458e-05
6.96625e-05
6.96479e-05
6.96646e-05
6.96246e-05
6.96085e-05
6.96265e-05
6.96105e-05
8.74484e-05
7.24164e-05
7.24101e-05
7.24197e-05
7.24132e-05
8.75198e-05
5.70792e-05
3.89662e-05
6.87912e-05
5.91238e-05
5.69015e-05
6.88177e-05
3.91871e-05
5.71355e-05
3.89909e-05
6.88037e-05
5.91371e-05
5.69766e-05
6.88303e-05
3.91985e-05
8.74165e-05
7.24421e-05
7.24356e-05
8.73416e-05
7.24388e-05
7.24325e-05
5.71833e-05
6.88546e-05
5.91796e-05
3.95748e-05
6.8829e-05
5.73608e-05
3.93532e-05
5.72617e-05
6.88672e-05
5.91922e-05
3.9583e-05
6.88415e-05
5.74129e-05
3.93806e-05
6.95713e-05
6.95876e-05
6.95738e-05
6.95898e-05
8.76202e-05
7.23973e-05
7.23908e-05
8.75504e-05
7.23942e-05
7.2388e-05
5.77221e-05
4.03367e-05
5.95083e-05
6.89251e-05
6.89003e-05
4.01089e-05
5.79202e-05
5.78072e-05
4.03288e-05
5.95204e-05
6.89363e-05
6.89131e-05
4.01413e-05
5.79361e-05
5.76359e-05
6.88654e-05
3.97338e-05
5.94548e-05
5.74563e-05
6.88903e-05
3.99569e-05
5.7682e-05
6.8878e-05
3.97642e-05
5.9468e-05
5.75387e-05
6.89026e-05
3.99607e-05
8.76494e-05
7.2373e-05
7.23663e-05
7.23754e-05
7.23693e-05
8.77164e-05
6.98379e-05
5.32975e-05
6.91634e-05
5.95587e-05
6.91469e-05
5.9382e-05
6.98478e-05
7.09905e-05
7.40225e-05
7.00487e-05
7.0992e-05
7.40957e-05
6.98358e-05
5.31749e-05
6.91237e-05
5.91087e-05
6.91406e-05
6.98246e-05
5.92943e-05
7.0971e-05
7.41909e-05
7.0053e-05
7.41231e-05
7.09695e-05
6.98567e-05
6.91688e-05
5.96369e-05
5.38893e-05
6.98478e-05
6.91845e-05
5.98061e-05
7.09279e-05
7.00765e-05
7.4345e-05
7.42829e-05
7.09271e-05
7.09472e-05
7.41942e-05
7.00729e-05
7.09483e-05
7.4258e-05
6.98581e-05
5.40016e-05
6.92064e-05
6.00501e-05
6.91903e-05
5.98868e-05
6.98672e-05
6.98582e-05
6.91693e-05
5.96423e-05
5.38906e-05
6.98494e-05
6.9185e-05
5.98116e-05
7.09301e-05
7.00814e-05
7.43671e-05
7.43044e-05
7.09291e-05
7.0949e-05
7.42162e-05
7.00779e-05
7.09502e-05
7.42801e-05
6.98596e-05
5.4003e-05
6.92069e-05
6.00557e-05
6.91909e-05
5.9892e-05
6.98687e-05
8.74468e-05
7.24104e-05
7.24154e-05
7.24137e-05
7.24187e-05
8.75186e-05
5.71451e-05
3.89855e-05
6.88034e-05
5.91366e-05
6.883e-05
5.69654e-05
3.92031e-05
5.70786e-05
3.89677e-05
6.87914e-05
5.91245e-05
3.91828e-05
5.68998e-05
6.88178e-05
8.74152e-05
7.24361e-05
7.24411e-05
7.24328e-05
8.734e-05
7.24379e-05
5.72488e-05
6.88669e-05
5.91918e-05
3.95889e-05
6.88412e-05
3.93739e-05
5.74243e-05
5.71831e-05
6.88547e-05
5.91799e-05
3.95686e-05
3.9356e-05
6.88291e-05
5.7358e-05
6.96243e-05
6.96082e-05
6.95735e-05
6.95894e-05
8.76186e-05
7.23913e-05
7.23964e-05
8.75489e-05
7.23882e-05
7.23933e-05
5.7792e-05
4.03426e-05
5.95201e-05
6.89368e-05
4.01324e-05
6.89128e-05
5.79604e-05
5.77266e-05
4.03228e-05
5.95083e-05
6.89245e-05
6.89006e-05
4.01149e-05
5.78944e-05
5.76958e-05
6.88776e-05
3.9756e-05
5.94673e-05
3.99685e-05
5.7524e-05
6.89025e-05
5.76298e-05
6.88655e-05
3.97383e-05
5.94552e-05
5.74586e-05
6.88902e-05
3.99487e-05
8.76482e-05
7.23669e-05
7.23719e-05
7.23696e-05
7.23746e-05
8.77165e-05
6.95713e-05
6.95875e-05
6.98365e-05
5.32967e-05
6.9163e-05
5.95533e-05
6.91464e-05
5.93768e-05
6.98464e-05
7.09886e-05
7.40001e-05
7.00451e-05
7.09896e-05
7.40731e-05
6.98344e-05
5.31742e-05
6.91232e-05
5.91034e-05
6.91402e-05
6.98232e-05
5.9289e-05
7.09687e-05
7.41683e-05
7.00496e-05
7.41008e-05
7.09677e-05
6.9858e-05
5.96416e-05
6.91692e-05
5.38905e-05
6.98492e-05
5.98107e-05
6.9185e-05
7.093e-05
7.0082e-05
7.43652e-05
7.43025e-05
7.0929e-05
7.09489e-05
7.42144e-05
7.00784e-05
7.09501e-05
7.42783e-05
6.98594e-05
5.4003e-05
6.00547e-05
6.92069e-05
5.98911e-05
6.91908e-05
6.98684e-05
6.98568e-05
6.91688e-05
5.9637e-05
5.38895e-05
6.98479e-05
6.91846e-05
5.98062e-05
7.09276e-05
7.0078e-05
7.43449e-05
7.42826e-05
7.0927e-05
7.0947e-05
7.4194e-05
7.00744e-05
7.09478e-05
7.42579e-05
6.98581e-05
5.4002e-05
6.92064e-05
6.00501e-05
6.91904e-05
5.98867e-05
6.98671e-05
6.98375e-05
5.32977e-05
5.95575e-05
6.91634e-05
5.9381e-05
6.91469e-05
6.98474e-05
7.09902e-05
7.40198e-05
7.00482e-05
7.40931e-05
7.09916e-05
6.98354e-05
5.31751e-05
5.91077e-05
6.91237e-05
5.92932e-05
6.98242e-05
6.91406e-05
7.09707e-05
7.41883e-05
7.00527e-05
7.41206e-05
7.09693e-05
6.98362e-05
5.32964e-05
6.91629e-05
5.95529e-05
6.91464e-05
5.93765e-05
6.98461e-05
7.0988e-05
7.39999e-05
7.00442e-05
7.09894e-05
7.4073e-05
6.9834e-05
5.31738e-05
6.91231e-05
5.91031e-05
6.98229e-05
6.91401e-05
5.92886e-05
7.09685e-05
7.41683e-05
7.00485e-05
7.41006e-05
7.09671e-05
6.98578e-05
5.96413e-05
6.91693e-05
5.38906e-05
6.98489e-05
5.98104e-05
6.9185e-05
7.09297e-05
7.00811e-05
7.43641e-05
7.43015e-05
7.09288e-05
7.09486e-05
7.42135e-05
7.00774e-05
7.09499e-05
7.42773e-05
6.98592e-05
5.40031e-05
6.00545e-05
6.92069e-05
5.9891e-05
6.91909e-05
6.98682e-05
6.98565e-05
6.91687e-05
5.96367e-05
5.38893e-05
6.98476e-05
6.91845e-05
5.98059e-05
7.09276e-05
7.0077e-05
7.43446e-05
7.4282e-05
7.09267e-05
7.09465e-05
7.41937e-05
7.00735e-05
7.09477e-05
7.42576e-05
6.98579e-05
5.40019e-05
6.92064e-05
6.005e-05
6.91903e-05
5.98865e-05
6.98669e-05
8.74518e-05
7.24108e-05
7.24165e-05
7.24141e-05
7.24197e-05
8.75236e-05
5.71488e-05
3.89895e-05
6.88035e-05
5.91348e-05
6.88301e-05
5.69683e-05
3.92037e-05
5.7081e-05
3.89693e-05
6.87917e-05
5.91253e-05
3.91865e-05
5.69029e-05
6.88181e-05
8.74203e-05
7.24364e-05
7.24421e-05
7.24332e-05
8.73452e-05
7.24389e-05
5.72516e-05
6.8867e-05
5.91904e-05
3.95894e-05
6.88412e-05
3.93777e-05
5.74281e-05
5.71861e-05
6.88551e-05
5.91806e-05
3.95725e-05
3.93575e-05
6.88294e-05
5.73606e-05
6.96248e-05
6.96088e-05
6.95736e-05
6.95898e-05
8.76235e-05
7.23917e-05
7.23974e-05
8.75539e-05
7.23886e-05
7.23943e-05
5.77948e-05
4.03433e-05
5.95187e-05
6.89367e-05
4.01365e-05
6.89128e-05
5.79639e-05
5.77296e-05
4.03265e-05
5.9509e-05
6.89248e-05
6.89009e-05
4.01163e-05
5.78967e-05
5.76996e-05
6.88777e-05
3.97601e-05
5.94654e-05
3.99694e-05
5.7527e-05
6.89025e-05
5.76322e-05
6.88658e-05
3.97398e-05
5.94561e-05
5.74616e-05
6.88906e-05
3.99524e-05
8.76532e-05
7.23673e-05
7.23729e-05
7.237e-05
7.23757e-05
8.77215e-05
6.9572e-05
6.9588e-05
6.9836e-05
5.32967e-05
5.95528e-05
6.91629e-05
5.93763e-05
6.91463e-05
6.98459e-05
7.09884e-05
7.39998e-05
7.00443e-05
7.4073e-05
7.09898e-05
6.98339e-05
5.31742e-05
5.91029e-05
6.91231e-05
5.92884e-05
6.98227e-05
6.91401e-05
7.09688e-05
7.41682e-05
7.00486e-05
7.41005e-05
7.09674e-05
6.98374e-05
5.32979e-05
5.95579e-05
6.91634e-05
5.93811e-05
6.91468e-05
6.98473e-05
7.099e-05
7.40194e-05
7.00492e-05
7.09915e-05
7.40928e-05
6.98353e-05
5.31755e-05
5.91078e-05
6.91235e-05
6.98241e-05
5.92935e-05
6.91406e-05
7.09705e-05
7.4188e-05
7.00535e-05
7.41201e-05
7.0969e-05
6.98563e-05
5.96366e-05
6.91687e-05
5.38896e-05
6.98475e-05
5.98057e-05
6.91845e-05
7.0928e-05
7.00771e-05
7.43444e-05
7.42819e-05
7.0927e-05
7.09468e-05
7.41936e-05
7.00736e-05
7.09481e-05
7.42575e-05
6.98577e-05
5.4002e-05
6.00497e-05
6.92063e-05
5.98862e-05
6.91902e-05
6.98667e-05
6.98577e-05
5.96414e-05
6.91692e-05
5.38908e-05
6.98489e-05
5.98107e-05
6.9185e-05
7.09296e-05
7.0082e-05
7.43638e-05
7.4301e-05
7.09286e-05
7.09484e-05
7.42131e-05
7.00784e-05
7.09497e-05
7.42769e-05
6.98591e-05
5.40032e-05
6.00546e-05
6.92068e-05
5.9891e-05
6.91907e-05
6.98681e-05
6.96247e-05
6.96088e-05
6.96268e-05
6.96109e-05
8.76215e-05
7.23972e-05
7.23914e-05
8.75519e-05
7.23941e-05
7.23883e-05
5.77275e-05
4.0326e-05
5.95096e-05
6.89248e-05
4.01159e-05
6.89008e-05
5.78975e-05
5.77944e-05
4.03445e-05
5.95214e-05
6.89372e-05
4.01344e-05
6.89131e-05
5.79616e-05
5.76329e-05
6.88658e-05
3.97393e-05
5.94566e-05
5.74593e-05
3.99518e-05
6.88906e-05
5.7697e-05
6.8878e-05
3.9758e-05
5.94687e-05
5.75264e-05
3.99704e-05
6.89029e-05
8.76511e-05
7.23728e-05
7.23669e-05
7.23755e-05
7.23697e-05
8.77194e-05
6.95719e-05
6.95879e-05
6.95741e-05
6.959e-05
1.50509e-05
1.50511e-05
1.48516e-05
1.49432e-05
1.49435e-05
1.52973e-05
1.54152e-05
3.79017e-05
2.49433e-05
2.49485e-05
1.8158e-05
3.77701e-05
2.50335e-05
2.50383e-05
3.7356e-05
1.80036e-05
2.47204e-05
2.47255e-05
2.46317e-05
2.46368e-05
3.74889e-05
3.73544e-05
1.80031e-05
2.47239e-05
2.472e-05
2.46352e-05
2.46314e-05
3.74879e-05
3.73573e-05
1.80041e-05
2.47258e-05
2.47222e-05
2.46372e-05
2.46334e-05
3.74907e-05
3.73566e-05
1.80039e-05
2.47215e-05
2.47262e-05
3.749e-05
2.46325e-05
2.46374e-05
3.79005e-05
2.49425e-05
2.49478e-05
1.81577e-05
3.77695e-05
2.50323e-05
2.50376e-05
3.89744e-05
1.8569e-05
2.59985e-05
2.59895e-05
2.58953e-05
2.59069e-05
3.91007e-05
3.78995e-05
2.49461e-05
2.49422e-05
1.81572e-05
2.50319e-05
3.77679e-05
2.5036e-05
3.89737e-05
1.85686e-05
2.59952e-05
2.59909e-05
2.59024e-05
2.58982e-05
3.90997e-05
3.79024e-05
2.49481e-05
2.49442e-05
1.81582e-05
2.50343e-05
3.77707e-05
2.50379e-05
3.89765e-05
1.85696e-05
2.59975e-05
2.59935e-05
2.59047e-05
2.59004e-05
3.91027e-05
3.89759e-05
1.85695e-05
2.59927e-05
2.59979e-05
2.58995e-05
2.59051e-05
3.9102e-05
1.51166e-05
1.51611e-05
1.51613e-05
1.52736e-05
1.52738e-05
1.56569e-05
1.55352e-05
1.51166e-05
1.51611e-05
1.51614e-05
1.52736e-05
1.52739e-05
1.56569e-05
1.55352e-05
1.51166e-05
1.5161e-05
1.51613e-05
1.52735e-05
1.52738e-05
1.56567e-05
1.55351e-05
1.51167e-05
1.51611e-05
1.51614e-05
1.52736e-05
1.52739e-05
1.56568e-05
1.55351e-05
1.50509e-05
1.50512e-05
1.48516e-05
1.49433e-05
1.49435e-05
1.52973e-05
1.54152e-05
1.50508e-05
1.50511e-05
1.48517e-05
1.49432e-05
1.49435e-05
1.52972e-05
1.54151e-05
1.50509e-05
1.50512e-05
1.48517e-05
1.49433e-05
1.49435e-05
1.52972e-05
1.54151e-05
1.47697e-05
1.4736e-05
1.47362e-05
1.48383e-05
1.48385e-05
1.51815e-05
1.50679e-05
1.47697e-05
1.4736e-05
1.47363e-05
1.48383e-05
1.48386e-05
1.51816e-05
1.50679e-05
1.47697e-05
1.47359e-05
1.47362e-05
1.48382e-05
1.48385e-05
1.51814e-05
1.50678e-05
1.47697e-05
1.4736e-05
1.47363e-05
1.48383e-05
1.48386e-05
1.51815e-05
1.50678e-05
1.96431e-05
2.92532e-05
3.35754e-05
1.80457e-05
3.34418e-05
1.80053e-05
1.96868e-05
2.2424e-05
2.76392e-05
3.95951e-05
4.5318e-05
2.23621e-05
2.77447e-05
3.97122e-05
1.94926e-05
2.89648e-05
3.30195e-05
1.78511e-05
1.94505e-05
3.31541e-05
1.78893e-05
2.26197e-05
4.00892e-05
4.55284e-05
2.80909e-05
2.79847e-05
3.99737e-05
2.2683e-05
1.9643e-05
2.92536e-05
1.80461e-05
3.35736e-05
1.80058e-05
3.34399e-05
1.96868e-05
2.24237e-05
2.76405e-05
3.959e-05
4.5324e-05
2.23616e-05
2.77463e-05
3.97074e-05
1.94926e-05
2.8965e-05
1.78515e-05
3.30177e-05
1.94505e-05
1.78897e-05
3.31522e-05
2.26192e-05
4.00844e-05
4.55249e-05
2.80926e-05
2.79861e-05
3.99685e-05
2.26827e-05
3.81778e-05
1.82722e-05
2.53496e-05
2.53545e-05
2.52583e-05
2.52636e-05
3.83075e-05
3.70716e-05
1.7901e-05
2.43254e-05
2.43302e-05
3.69369e-05
2.44128e-05
2.44177e-05
1.9126e-05
3.21671e-05
1.7567e-05
2.81152e-05
1.90871e-05
3.23034e-05
1.76008e-05
2.21099e-05
2.74028e-05
4.48939e-05
3.93268e-05
2.72977e-05
3.92074e-05
2.21708e-05
2.19238e-05
3.8819e-05
2.6957e-05
4.4673e-05
2.70613e-05
2.18645e-05
3.89401e-05
1.92647e-05
2.84014e-05
3.27289e-05
1.77408e-05
3.25932e-05
1.77049e-05
1.93053e-05
1.91274e-05
3.21706e-05
1.75673e-05
2.81159e-05
1.90886e-05
3.2307e-05
1.76012e-05
2.21133e-05