/*--------------------------------*- C++ -*----------------------------------*\
| =========                 |                                                 |
| \\      /  F ield         | OpenFOAM: The Open Source CFD Toolbox           |
|  \\    /   O peration     | Version:  v1906                                 |
|   \\  /    A nd           | Web:      www.OpenFOAM.com                      |
|    \\/     M anipulation  |                                                 |
\*---------------------------------------------------------------------------*/
FoamFile
{
    version     2.0;
    format      ascii;
    class       volScalarField;
    location    "125";
    object      p;
}
// * * * * * * * * * * * * * * * * * * * * * * * * * * * * * * * * * * * * * //

dimensions      [0 2 -2 0 0 0 0];


internalField   nonuniform List<scalar> 
42840
(
0.00164376
0.00164371
0.00164371
0.00164583
0.00160797
0.00160792
0.00160792
0.00161004
0.00157218
0.00157212
0.00157212
0.00157424
0.00153638
0.00153633
0.00153633
0.00153845
0.00150059
0.00150054
0.00150054
0.00150266
0.0014648
0.00146475
0.00146475
0.00146687
0.00142901
0.00142896
0.00142896
0.00143108
0.00139323
0.00139317
0.00139317
0.00139529
0.00135744
0.00135738
0.00135738
0.0013595
0.00132165
0.00132159
0.00132159
0.00132371
0.00128586
0.0012858
0.0012858
0.00128792
0.00125007
0.00125001
0.00125001
0.00125214
0.00121428
0.00121422
0.00121422
0.00121634
0.00117849
0.00117843
0.00117843
0.00118055
0.00114269
0.00114264
0.00114264
0.00114476
0.0011069
0.00110685
0.00110685
0.00110897
0.00107111
0.00107106
0.00107106
0.00107318
0.00103532
0.00103527
0.00103527
0.00103739
0.000999532
0.000999478
0.000999477
0.0010016
0.000963741
0.000963685
0.000963686
0.000965807
0.00092795
0.000927894
0.000927894
0.000930016
0.00089216
0.000892105
0.000892105
0.000894226
0.000856372
0.000856318
0.000856318
0.000858439
0.000820583
0.000820528
0.000820528
0.000822649
0.000784792
0.000784738
0.000784737
0.000786858
0.000749
0.000748945
0.000748945
0.000751067
0.00165054
0.00165266
0.00165266
0.00165054
0.00165266
0.00165266
0.00165266
0.00165266
0.00165054
0.00165266
0.00165266
0.00165054
0.00164583
0.00161474
0.00164371
0.00164371
0.00161686
0.00161686
0.00164583
0.00161474
0.00164371
0.00164371
0.00161686
0.00161686
0.00164371
0.00161686
0.00161686
0.00164583
0.00161474
0.00164371
0.00161686
0.00161686
0.00161474
0.00161004
0.00157895
0.00160792
0.00160792
0.00158107
0.00158107
0.00161004
0.00157895
0.00160792
0.00160792
0.00158107
0.00158107
0.00160792
0.00158107
0.00158107
0.00161004
0.00157895
0.00160792
0.00158107
0.00158107
0.00157895
0.00157424
0.00154316
0.00157212
0.00157212
0.00154528
0.00154528
0.00157424
0.00154316
0.00157212
0.00157212
0.00154528
0.00154528
0.00157212
0.00154528
0.00154528
0.00157424
0.00154316
0.00157212
0.00154528
0.00154528
0.00154316
0.00153845
0.00150736
0.00153633
0.00153633
0.00150948
0.00150948
0.00153845
0.00150736
0.00153633
0.00153633
0.00150948
0.00150948
0.00153633
0.00150948
0.00150948
0.00153845
0.00150736
0.00153633
0.00150948
0.00150948
0.00150736
0.00150266
0.00147158
0.00150054
0.00150054
0.00147369
0.00147369
0.00150266
0.00147157
0.00150054
0.00150054
0.00147369
0.0014737
0.00150054
0.00147369
0.0014737
0.00150266
0.00147158
0.00150054
0.0014737
0.0014737
0.00147158
0.00146687
0.00143579
0.00146475
0.00146475
0.00143791
0.00143791
0.00146687
0.00143579
0.00146475
0.00146475
0.00143791
0.00143791
0.00146475
0.00143791
0.00143791
0.00146687
0.00143579
0.00146475
0.00143791
0.00143791
0.00143579
0.00143108
0.0014
0.00142896
0.00142896
0.00140212
0.00140212
0.00143108
0.0014
0.00142896
0.00142896
0.00140212
0.00140212
0.00142896
0.00140212
0.00140212
0.00143108
0.0014
0.00142896
0.00140212
0.00140212
0.0014
0.00139529
0.00136421
0.00139317
0.00139317
0.00136633
0.00136633
0.00139529
0.00136421
0.00139317
0.00139317
0.00136633
0.00136633
0.00139317
0.00136633
0.00136633
0.00139529
0.00136421
0.00139317
0.00136633
0.00136633
0.00136421
0.0013595
0.00132842
0.00135738
0.00135738
0.00133054
0.00133054
0.0013595
0.00132842
0.00135738
0.00135738
0.00133054
0.00133054
0.00135738
0.00133054
0.00133054
0.0013595
0.00132842
0.00135738
0.00133054
0.00133054
0.00132842
0.00132371
0.00129263
0.00132159
0.00132159
0.00129475
0.00129475
0.00132371
0.00129263
0.00132159
0.00132159
0.00129475
0.00129475
0.00132159
0.00129475
0.00129475
0.00132371
0.00129263
0.00132159
0.00129475
0.00129475
0.00129263
0.00128792
0.00125684
0.0012858
0.0012858
0.00125896
0.00125896
0.00128792
0.00125684
0.0012858
0.0012858
0.00125896
0.00125896
0.0012858
0.00125896
0.00125896
0.00128792
0.00125684
0.0012858
0.00125896
0.00125896
0.00125684
0.00125214
0.00122105
0.00125001
0.00125001
0.00122317
0.00122317
0.00125214
0.00122105
0.00125001
0.00125001
0.00122317
0.00122317
0.00125001
0.00122317
0.00122317
0.00125214
0.00122105
0.00125001
0.00122317
0.00122317
0.00122105
0.00121634
0.00118526
0.00121422
0.00121422
0.00118738
0.00118738
0.00121634
0.00118526
0.00121422
0.00121422
0.00118738
0.00118738
0.00121422
0.00118738
0.00118738
0.00121634
0.00118526
0.00121422
0.00118738
0.00118738
0.00118526
0.00118055
0.00114947
0.00117843
0.00117843
0.00115159
0.00115159
0.00118055
0.00114947
0.00117843
0.00117843
0.00115159
0.00115159
0.00117843
0.00115159
0.00115159
0.00118055
0.00114947
0.00117843
0.00115159
0.00115159
0.00114947
0.00114476
0.00111368
0.00114264
0.00114264
0.0011158
0.0011158
0.00114476
0.00111368
0.00114264
0.00114264
0.0011158
0.0011158
0.00114264
0.0011158
0.0011158
0.00114476
0.00111367
0.00114264
0.0011158
0.0011158
0.00111367
0.00110897
0.00107789
0.00110685
0.00110685
0.00108001
0.00108001
0.00110897
0.00107789
0.00110685
0.00110685
0.00108
0.00108001
0.00110685
0.00108001
0.00108001
0.00110897
0.00107788
0.00110685
0.00108001
0.00108001
0.00107788
0.00107318
0.0010421
0.00107106
0.00107106
0.00104422
0.00104422
0.00107318
0.0010421
0.00107106
0.00107106
0.00104421
0.00104421
0.00107106
0.00104421
0.00104422
0.00107318
0.00104209
0.00107106
0.00104421
0.00104421
0.00104209
0.00103739
0.0010063
0.00103527
0.00103527
0.00100842
0.00100842
0.00103739
0.00100631
0.00103527
0.00103527
0.00100842
0.00100842
0.00103527
0.00100842
0.00100842
0.00103739
0.0010063
0.00103527
0.00100842
0.00100842
0.0010063
0.0010016
0.000970513
0.000999478
0.000999478
0.000972633
0.000972633
0.0010016
0.000970513
0.000999477
0.000999478
0.000972633
0.000972633
0.000999478
0.000972633
0.000972633
0.0010016
0.000970513
0.000999478
0.000972633
0.000972633
0.000970513
0.000965807
0.000934721
0.000963686
0.000963685
0.000936842
0.000936842
0.000965807
0.000934721
0.000963685
0.000963686
0.000936842
0.000936843
0.000963686
0.000936842
0.000936842
0.000965807
0.000934722
0.000963686
0.000936842
0.000936842
0.000934722
0.000930015
0.000898932
0.000927894
0.000927894
0.000901053
0.000901053
0.000930015
0.000898932
0.000927894
0.000927894
0.000901053
0.000901053
0.000927894
0.000901053
0.000901052
0.000930015
0.000898932
0.000927894
0.000901053
0.000901052
0.000898932
0.000894225
0.000863144
0.000892105
0.000892105
0.000865264
0.000865264
0.000894225
0.000863144
0.000892105
0.000892105
0.000865264
0.000865265
0.000892105
0.000865264
0.000865264
0.000894226
0.000863144
0.000892105
0.000865265
0.000865264
0.000863144
0.000858438
0.000827355
0.000856317
0.000856317
0.000829475
0.000829475
0.000858438
0.000827356
0.000856317
0.000856318
0.000829475
0.000829475
0.000856317
0.000829475
0.000829475
0.000858438
0.000827355
0.000856318
0.000829475
0.000829475
0.000827355
0.00082265
0.000791565
0.000820528
0.000820528
0.000793685
0.000793685
0.00082265
0.000791565
0.000820528
0.000820528
0.000793685
0.000793685
0.000820528
0.000793685
0.000793685
0.000822649
0.000791565
0.000820528
0.000793684
0.000793685
0.000791564
0.000786859
0.000755773
0.000784738
0.000784738
0.000757894
0.000757893
0.000786859
0.000755774
0.000784737
0.000784737
0.000757893
0.000757893
0.000784737
0.000757893
0.000757894
0.000786858
0.000755773
0.000784737
0.000757893
0.000757894
0.000755773
0.000751067
0.000748945
0.000748945
0.000751067
0.000748945
0.000748945
0.000748945
0.000751067
0.000748945
0.00166836
0.00166835
0.00166836
0.00166836
0.00166835
0.00165271
0.00165271
0.00165271
0.00165271
0.00166843
0.00167055
0.0016684
0.00167057
0.00166836
0.00166843
0.00167055
0.00167057
0.0016684
0.00166843
0.00166835
0.00166835
0.00163257
0.00164595
0.00164595
0.00163256
0.00164595
0.00163256
0.00163257
0.00164595
0.00164595
0.00163256
0.00164376
0.00164376
0.00164376
0.00161692
0.00161692
0.00161692
0.00161692
0.00163264
0.00164591
0.00164372
0.00163476
0.00164589
0.0016326
0.00163477
0.00164595
0.00163256
0.00163264
0.00164372
0.00164591
0.00163476
0.00164589
0.00163477
0.0016326
0.00164596
0.00164596
0.00163264
0.00163256
0.00163256
0.00159677
0.00161016
0.00161016
0.00159677
0.00161016
0.00159677
0.00159677
0.00161016
0.00161016
0.00159677
0.00160797
0.00160797
0.00160797
0.00158112
0.00158112
0.00158112
0.00158112
0.00159685
0.00161012
0.00160793
0.00159897
0.00161009
0.00159681
0.00159898
0.00161016
0.00159677
0.00159685
0.00160793
0.00161012
0.00159897
0.00161009
0.00159898
0.00159681
0.00161016
0.00161016
0.00159685
0.00159677
0.00159677
0.00156098
0.00157436
0.00157436
0.00156097
0.00157436
0.00156098
0.00156098
0.00157436
0.00157436
0.00156097
0.00157218
0.00157218
0.00157218
0.00154533
0.00154533
0.00154533
0.00154533
0.00156105
0.00157432
0.00157214
0.00156317
0.0015743
0.00156102
0.00156319
0.00157436
0.00156098
0.00156105
0.00157214
0.00157432
0.00156317
0.0015743
0.00156319
0.00156102
0.00157437
0.00157437
0.00156105
0.00156097
0.00156097
0.00152519
0.00153857
0.00153857
0.00152518
0.00153857
0.00152518
0.00152519
0.00153857
0.00153857
0.00152518
0.00153638
0.00153638
0.00153638
0.00150954
0.00150954
0.00150954
0.00150954
0.00152526
0.00153853
0.00153634
0.00152738
0.00153851
0.00152522
0.00152739
0.00153857
0.00152518
0.00152526
0.00153634
0.00153853
0.00152738
0.00153851
0.00152739
0.00152522
0.00153858
0.00153858
0.00152526
0.00152518
0.00152518
0.0014894
0.00150278
0.00150278
0.00148939
0.00150278
0.00148939
0.0014894
0.00150278
0.00150278
0.00148939
0.00150059
0.00150059
0.00150059
0.00147375
0.00147375
0.00147375
0.00147375
0.00148947
0.00150274
0.00150055
0.00149159
0.00150272
0.00148943
0.0014916
0.00150278
0.00148939
0.00148947
0.00150055
0.00150274
0.00149159
0.00150272
0.0014916
0.00148943
0.00150279
0.00150279
0.00148947
0.00148939
0.00148939
0.00145361
0.00146699
0.00146699
0.0014536
0.00146699
0.0014536
0.00145361
0.00146699
0.00146699
0.0014536
0.0014648
0.0014648
0.0014648
0.00143796
0.00143796
0.00143796
0.00143796
0.00145368
0.00146695
0.00146476
0.0014558
0.00146693
0.00145364
0.00145582
0.00146699
0.0014536
0.00145368
0.00146476
0.00146695
0.0014558
0.00146693
0.00145582
0.00145365
0.001467
0.001467
0.00145368
0.0014536
0.0014536
0.00141782
0.0014312
0.0014312
0.00141781
0.00143121
0.00141782
0.00141782
0.0014312
0.0014312
0.00141781
0.00142901
0.00142902
0.00142901
0.00140217
0.00140217
0.00140217
0.00140217
0.00141789
0.00143116
0.00142897
0.00142001
0.00143114
0.00141786
0.00142003
0.0014312
0.00141782
0.00141789
0.00142897
0.00143116
0.00142001
0.00143114
0.00142003
0.00141786
0.00143121
0.00143121
0.00141789
0.00141781
0.00141781
0.00138203
0.00139541
0.00139541
0.00138202
0.00139541
0.00138203
0.00138203
0.00139541
0.00139541
0.00138202
0.00139323
0.00139323
0.00139323
0.00136638
0.00136638
0.00136638
0.00136638
0.0013821
0.00139537
0.00139319
0.00138422
0.00139535
0.00138207
0.00138424
0.00139541
0.00138203
0.0013821
0.00139319
0.00139537
0.00138422
0.00139535
0.00138424
0.00138207
0.00139542
0.00139542
0.0013821
0.00138202
0.00138202
0.00134624
0.00135962
0.00135962
0.00134623
0.00135962
0.00134624
0.00134624
0.00135962
0.00135962
0.00134623
0.00135744
0.00135744
0.00135744
0.00133059
0.00133059
0.00133059
0.00133059
0.00134631
0.00135958
0.0013574
0.00134843
0.00135956
0.00134628
0.00134845
0.00135962
0.00134624
0.00134631
0.0013574
0.00135958
0.00134843
0.00135956
0.00134845
0.00134628
0.00135963
0.00135963
0.00134631
0.00134623
0.00134623
0.00131045
0.00132383
0.00132383
0.00131044
0.00132383
0.00131045
0.00131045
0.00132383
0.00132383
0.00131044
0.00132165
0.00132165
0.00132165
0.0012948
0.0012948
0.0012948
0.0012948
0.00131052
0.00132379
0.00132161
0.00131264
0.00132377
0.00131049
0.00131266
0.00132383
0.00131045
0.00131052
0.00132161
0.00132379
0.00131264
0.00132377
0.00131266
0.00131049
0.00132384
0.00132384
0.00131052
0.00131044
0.00131044
0.00127466
0.00128805
0.00128804
0.00127466
0.00128804
0.00127466
0.00127466
0.00128804
0.00128804
0.00127466
0.00128586
0.00128586
0.00128586
0.00125902
0.00125902
0.00125902
0.00125902
0.00127474
0.001288
0.00128582
0.00127685
0.00128798
0.0012747
0.00127687
0.00128804
0.00127466
0.00127474
0.00128582
0.001288
0.00127685
0.00128798
0.00127687
0.0012747
0.00128805
0.00128805
0.00127473
0.00127466
0.00127466
0.00123887
0.00125226
0.00125225
0.00123887
0.00125226
0.00123887
0.00123887
0.00125226
0.00125225
0.00123887
0.00125007
0.00125007
0.00125007
0.00122323
0.00122323
0.00122323
0.00122323
0.00123895
0.00125222
0.00125003
0.00124107
0.00125219
0.00123891
0.00124108
0.00125226
0.00123887
0.00123895
0.00125003
0.00125222
0.00124107
0.00125219
0.00124108
0.00123891
0.00125226
0.00125226
0.00123895
0.00123887
0.00123887
0.00120308
0.00121647
0.00121646
0.00120308
0.00121647
0.00120308
0.00120308
0.00121647
0.00121646
0.00120308
0.00121428
0.00121428
0.00121428
0.00118743
0.00118743
0.00118743
0.00118743
0.00120316
0.00121642
0.00121424
0.00120528
0.0012164
0.00120312
0.00120529
0.00121647
0.00120308
0.00120316
0.00121424
0.00121643
0.00120528
0.0012164
0.00120529
0.00120312
0.00121647
0.00121647
0.00120316
0.00120308
0.00120308
0.00116729
0.00118067
0.00118067
0.00116728
0.00118067
0.00116729
0.00116729
0.00118067
0.00118067
0.00116728
0.00117849
0.00117849
0.00117849
0.00115164
0.00115164
0.00115164
0.00115164
0.00116736
0.00118063
0.00117845
0.00116948
0.00118061
0.00116733
0.0011695
0.00118067
0.00116729
0.00116736
0.00117845
0.00118063
0.00116948
0.00118061
0.0011695
0.00116733
0.00118068
0.00118068
0.00116736
0.00116728
0.00116728
0.0011315
0.00114488
0.00114488
0.00113149
0.00114488
0.00113149
0.0011315
0.00114488
0.00114488
0.00113149
0.00114269
0.00114269
0.00114269
0.00111585
0.00111585
0.00111585
0.00111585
0.00113157
0.00114484
0.00114265
0.00113369
0.00114482
0.00113153
0.00113371
0.00114488
0.00113149
0.00113157
0.00114265
0.00114484
0.00113369
0.00114482
0.00113371
0.00113153
0.00114489
0.00114489
0.00113157
0.00113149
0.00113149
0.00109571
0.00110909
0.00110909
0.0010957
0.00110909
0.0010957
0.00109571
0.00110909
0.00110909
0.0010957
0.0011069
0.0011069
0.0011069
0.00108006
0.00108006
0.00108006
0.00108006
0.00109578
0.00110905
0.00110686
0.0010979
0.00110903
0.00109574
0.00109791
0.00110909
0.0010957
0.00109578
0.00110686
0.00110905
0.0010979
0.00110903
0.00109791
0.00109574
0.0011091
0.0011091
0.00109578
0.0010957
0.0010957
0.00105992
0.0010733
0.0010733
0.00105991
0.0010733
0.00105991
0.00105992
0.0010733
0.0010733
0.00105991
0.00107111
0.00107111
0.00107111
0.00104427
0.00104427
0.00104427
0.00104427
0.00105999
0.00107326
0.00107107
0.00106211
0.00107324
0.00105995
0.00106212
0.0010733
0.00105991
0.00105999
0.00107107
0.00107326
0.00106211
0.00107323
0.00106212
0.00105995
0.00107331
0.00107331
0.00105999
0.00105991
0.00105991
0.00102413
0.00103751
0.00103751
0.00102412
0.00103751
0.00102412
0.00102413
0.00103751
0.00103751
0.00102412
0.00103532
0.00103532
0.00103532
0.00100848
0.00100848
0.00100848
0.00100848
0.0010242
0.00103747
0.00103528
0.00102632
0.00103745
0.00102416
0.00102633
0.00103751
0.00102412
0.0010242
0.00103528
0.00103747
0.00102632
0.00103745
0.00102633
0.00102416
0.00103752
0.00103752
0.0010242
0.00102412
0.00102412
0.000988337
0.00100172
0.00100172
0.000988331
0.00100172
0.000988333
0.000988337
0.00100172
0.00100172
0.000988331
0.000999532
0.000999532
0.000999532
0.000972689
0.000972689
0.000972689
0.000972689
0.00098841
0.00100168
0.000999492
0.00099053
0.00100166
0.000988373
0.000990544
0.00100172
0.000988333
0.00098841
0.000999492
0.00100168
0.00099053
0.00100166
0.000990544
0.000988373
0.00100173
0.00100173
0.000988409
0.00098833
0.00098833
0.000952545
0.000965929
0.000965927
0.000952539
0.000965928
0.000952541
0.000952545
0.000965929
0.000965928
0.000952539
0.000963741
0.000963741
0.000963741
0.000936897
0.000936897
0.000936897
0.000936897
0.000952618
0.000965887
0.0009637
0.000954738
0.000965864
0.000952582
0.000954752
0.000965929
0.000952541
0.000952619
0.000963701
0.000965888
0.000954739
0.000965864
0.000954753
0.000952582
0.000965935
0.000965935
0.000952618
0.000952538
0.000952538
0.000916754
0.000930137
0.000930135
0.000916748
0.000930136
0.00091675
0.000916754
0.000930138
0.000930136
0.000916748
0.000927949
0.00092795
0.00092795
0.000901107
0.000901107
0.000901107
0.000901107
0.000916828
0.000930096
0.000927909
0.000918947
0.000930073
0.000916791
0.000918962
0.000930137
0.00091675
0.000916827
0.000927909
0.000930096
0.000918947
0.000930073
0.000918961
0.00091679
0.000930144
0.000930144
0.000916827
0.000916747
0.000916747
0.000880965
0.000894348
0.000894345
0.000880959
0.000894347
0.000880961
0.000880965
0.000894348
0.000894346
0.000880959
0.00089216
0.00089216
0.00089216
0.000865319
0.000865319
0.000865319
0.000865319
0.000881039
0.000894306
0.00089212
0.000883157
0.000894283
0.000881002
0.000883173
0.000894347
0.000880962
0.00088104
0.00089212
0.000894307
0.000883158
0.000894284
0.000883173
0.000881003
0.000894354
0.000894354
0.000881038
0.000880959
0.000880959
0.000845177
0.00085856
0.000858558
0.000845171
0.000858559
0.000845173
0.000845177
0.00085856
0.000858558
0.000845171
0.000856372
0.000856372
0.000856372
0.00082953
0.00082953
0.00082953
0.00082953
0.000845251
0.000858518
0.000856332
0.00084737
0.000858495
0.000845214
0.000847384
0.000858559
0.000845173
0.000845251
0.000856332
0.000858519
0.00084737
0.000858497
0.000847385
0.000845214
0.000858566
0.000858567
0.00084525
0.000845171
0.000845171
0.000809389
0.000822771
0.00082277
0.000809382
0.000822771
0.000809384
0.000809388
0.000822771
0.000822769
0.000809382
0.000820583
0.000820583
0.000820583
0.00079374
0.00079374
0.00079374
0.00079374
0.000809461
0.00082273
0.000820543
0.000811581
0.000822707
0.000809425
0.000811595
0.00082277
0.000809383
0.000809461
0.000820542
0.00082273
0.00081158
0.000822706
0.000811595
0.000809424
0.000822777
0.000822777
0.00080946
0.000809381
0.000809381
0.000773598
0.000786981
0.000786979
0.000773591
0.00078698
0.000773593
0.000773597
0.000786981
0.000786979
0.000773591
0.000784792
0.000784792
0.000784792
0.000757949
0.000757949
0.000757948
0.000757948
0.00077367
0.000786939
0.000784752
0.00077579
0.000786916
0.000773634
0.000775804
0.000786979
0.000773592
0.00077367
0.000784751
0.000786939
0.000775789
0.000786915
0.000775804
0.000773633
0.000786987
0.000786987
0.000773669
0.00077359
0.00077359
0.000737805
0.000751189
0.000751187
0.000737799
0.000751188
0.000737801
0.000737804
0.000751189
0.000751187
0.000737799
0.000749
0.000749
0.000749
0.000737878
0.000751147
0.00074896
0.000739997
0.000751124
0.000737842
0.000740011
0.000751188
0.0007378
0.000737878
0.000748959
0.000751147
0.000739997
0.000751124
0.000740011
0.000737841
0.000751195
0.000751195
0.000737876
0.000737798
0.000737798
0.00166836
0.00166836
0.00166843
0.00166835
0.00166835
0.00165046
0.00166385
0.00165046
0.00166385
0.00166373
0.00165046
0.00165046
0.00166385
0.00166385
0.00166836
0.00166835
0.00166843
0.00167055
0.0016684
0.00167057
0.00166843
0.00167055
0.0016684
0.00167057
0.00166385
0.00165046
0.00166385
0.00165046
0.00166385
0.00165046
0.00166385
0.00165046
0.00166378
0.00166161
0.0016505
0.00165267
0.00166381
0.00166162
0.00165054
0.00166378
0.00166161
0.0016505
0.00165267
0.00166381
0.00166162
0.00165054
0.00166843
0.00166835
0.00166835
0.00166836
0.00165046
0.00166385
0.00166373
0.00165046
0.00165046
0.00166385
0.00166385
0.00165046
0.00166385
0.00166843
0.00167055
0.0016684
0.00167057
0.00166836
0.00166835
0.00166843
0.00167055
0.00167057
0.0016684
0.00166385
0.00165046
0.00166385
0.00165046
0.00166378
0.00166161
0.0016505
0.00165267
0.00166381
0.00166162
0.00165054
0.00166385
0.00165046
0.00166385
0.00165046
0.00166378
0.00166161
0.00165267
0.0016505
0.00166162
0.00166381
0.00165054
0.00166836
0.00166835
0.00166843
0.00167055
0.00167057
0.0016684
0.00166836
0.00166835
0.00166378
0.00166161
0.0016505
0.00165267
0.00166381
0.00166162
0.00165054
0.00166385
0.00165046
0.00166385
0.00165046
0.00166378
0.00166161
0.00165267
0.0016505
0.00166162
0.00166381
0.00165054
0.00166385
0.00165046
0.00166385
0.00165046
0.00166843
0.00166835
0.00166835
0.00166836
0.00165046
0.00166385
0.00166373
0.00165046
0.00165046
0.00166385
0.00166385
0.00165046
0.00166385
0.00166843
0.00167055
0.00167057
0.0016684
0.00166836
0.00166835
0.00166836
0.00166835
0.00166378
0.00166161
0.00165267
0.0016505
0.00166162
0.00166381
0.00165054
0.00166378
0.00166161
0.00165267
0.0016505
0.00166162
0.00166381
0.00165054
0.00166385
0.00165046
0.00166385
0.00165046
0.00166385
0.00165046
0.00166385
0.00165046
0.00166836
0.00166836
0.00166373
0.00165046
0.00165046
0.00166385
0.00166385
0.00165046
0.00166385
0.00165046
0.00166385
0.00164595
0.00163256
0.00164595
0.00163256
0.00164596
0.00164596
0.00163264
0.00163256
0.00163256
0.00161467
0.00162805
0.00161467
0.00162805
0.00162793
0.00161466
0.00161466
0.00162806
0.00162806
0.00163257
0.00164595
0.00164595
0.00163256
0.00163264
0.00164591
0.00164372
0.00163476
0.00164589
0.0016326
0.00163477
0.00163264
0.00164591
0.00164372
0.00163476
0.00164589
0.0016326
0.00163477
0.00162805
0.00161466
0.00162805
0.00161467
0.00162805
0.00161466
0.00162805
0.00161467
0.00162799
0.00162581
0.00161471
0.00161688
0.00162801
0.00162583
0.00161474
0.00162799
0.00162581
0.00161471
0.00161688
0.00162801
0.00162583
0.00161474
0.00164596
0.00164596
0.00163264
0.00163256
0.00163256
0.00164595
0.00163256
0.00161467
0.00162805
0.00162793
0.00161466
0.00161466
0.00162806
0.00162806
0.00161467
0.00162805
0.00163264
0.00164591
0.00164372
0.00163476
0.00164589
0.0016326
0.00163477
0.00163257
0.00164595
0.00164595
0.00163256
0.00163264
0.00164372
0.00164591
0.00163476
0.00164589
0.00163477
0.0016326
0.00162805
0.00161466
0.00162805
0.00161467
0.00162799
0.00162581
0.00161471
0.00161688
0.00162801
0.00162583
0.00161474
0.00162805
0.00161466
0.00162805
0.00161467
0.00162799
0.00162581
0.00161688
0.00161471
0.00162583
0.00162801
0.00161474
0.00163257
0.00164595
0.00164595
0.00163256
0.00163264
0.00164372
0.00164591
0.00163476
0.00164589
0.00163477
0.0016326
0.00163257
0.00164595
0.00164595
0.00163256
0.00162799
0.00162581
0.00161471
0.00161688
0.00162801
0.00162583
0.00161474
0.00162805
0.00161466
0.00162806
0.00161467
0.00162799
0.00162581
0.00161688
0.00161471
0.00162583
0.00162801
0.00161474
0.00162805
0.00161466
0.00162805
0.00161467
0.00164596
0.00164596
0.00163264
0.00163256
0.00163256
0.00164595
0.00163256
0.00161467
0.00162805
0.00162793
0.00161466
0.00161466
0.00162806
0.00162806
0.00161467
0.00162805
0.00163264
0.00164372
0.00164591
0.00163476
0.00164589
0.00163477
0.0016326
0.00163257
0.00164595
0.00164595
0.00163256
0.00163257
0.00164595
0.00164595
0.00163256
0.00162799
0.00162581
0.00161688
0.00161471
0.00162583
0.00162801
0.00161474
0.00162799
0.00162581
0.00161688
0.00161471
0.00162583
0.00162801
0.00161474
0.00162805
0.00161466
0.00162805
0.00161467
0.00162805
0.00161466
0.00162805
0.00161467
0.00164595
0.00163256
0.00164595
0.00163256
0.00162793
0.00161466
0.00161466
0.00162806
0.00162806
0.00161467
0.00162805
0.00161467
0.00162805
0.00161016
0.00159677
0.00161016
0.00159677
0.00161016
0.00161016
0.00159685
0.00159677
0.00159677
0.00157887
0.00159226
0.00157887
0.00159226
0.00159214
0.00157887
0.00157887
0.00159227
0.00159227
0.00159677
0.00161016
0.00161016
0.00159677
0.00159685
0.00161012
0.00160793
0.00159897
0.00161009
0.00159681
0.00159898
0.00159685
0.00161012
0.00160793
0.00159897
0.00161009
0.00159681
0.00159898
0.00159226
0.00157887
0.00159226
0.00157888
0.00159226
0.00157887
0.00159226
0.00157888
0.0015922
0.00159002
0.00157891
0.00158108
0.00159222
0.00159003
0.00157895
0.0015922
0.00159002
0.00157891
0.00158108
0.00159222
0.00159003
0.00157895
0.00161016
0.00161016
0.00159685
0.00159677
0.00159677
0.00161016
0.00159677
0.00157887
0.00159226
0.00159214
0.00157887
0.00157887
0.00159227
0.00159227
0.00157887
0.00159226
0.00159685
0.00161012
0.00160793
0.00159897
0.00161009
0.00159681
0.00159898
0.00159677
0.00161016
0.00161016
0.00159677
0.00159685
0.00160793
0.00161012
0.00159897
0.00161009
0.00159898
0.00159681
0.00159226
0.00157887
0.00159226
0.00157888
0.0015922
0.00159002
0.00157891
0.00158108
0.00159222
0.00159003
0.00157895
0.00159226
0.00157887
0.00159226
0.00157888
0.0015922
0.00159002
0.00158108
0.00157891
0.00159003
0.00159222
0.00157895
0.00159677
0.00161016
0.00161016
0.00159677
0.00159685
0.00160793
0.00161012
0.00159897
0.00161009
0.00159898
0.00159681
0.00159677
0.00161016
0.00161016
0.00159677
0.0015922
0.00159002
0.00157891
0.00158108
0.00159222
0.00159003
0.00157895
0.00159226
0.00157887
0.00159226
0.00157888
0.0015922
0.00159002
0.00158108
0.00157891
0.00159003
0.00159222
0.00157895
0.00159226
0.00157887
0.00159226
0.00157888
0.00161016
0.00161016
0.00159685
0.00159677
0.00159677
0.00161016
0.00159677
0.00157887
0.00159226
0.00159214
0.00157887
0.00157887
0.00159227
0.00159227
0.00157887
0.00159226
0.00159685
0.00160793
0.00161012
0.00159897
0.00161009
0.00159898
0.00159681
0.00159677
0.00161016
0.00161016
0.00159677
0.00159677
0.00161016
0.00161016
0.00159677
0.0015922
0.00159002
0.00158108
0.00157891
0.00159003
0.00159222
0.00157895
0.0015922
0.00159002
0.00158108
0.00157891
0.00159003
0.00159222
0.00157895
0.00159226
0.00157887
0.00159226
0.00157888
0.00159226
0.00157887
0.00159226
0.00157888
0.00161016
0.00159677
0.00161016
0.00159677
0.00159214
0.00157887
0.00157887
0.00159227
0.00159227
0.00157887
0.00159226
0.00157887
0.00159226
0.00157436
0.00156098
0.00157436
0.00156098
0.00157437
0.00157437
0.00156105
0.00156097
0.00156097
0.00154308
0.00155647
0.00154308
0.00155647
0.00155634
0.00154308
0.00154308
0.00155647
0.00155647
0.00156098
0.00157436
0.00157436
0.00156097
0.00156105
0.00157432
0.00157214
0.00156317
0.0015743
0.00156102
0.00156319
0.00156105
0.00157432
0.00157214
0.00156317
0.0015743
0.00156102
0.00156319
0.00155647
0.00154308
0.00155647
0.00154308
0.00155647
0.00154308
0.00155647
0.00154308
0.0015564
0.00155422
0.00154312
0.00154529
0.00155643
0.00155424
0.00154316
0.0015564
0.00155422
0.00154312
0.00154529
0.00155643
0.00155424
0.00154316
0.00157437
0.00157437
0.00156105
0.00156097
0.00156097
0.00157436
0.00156098
0.00154308
0.00155647
0.00155634
0.00154308
0.00154308
0.00155647
0.00155647
0.00154308
0.00155647
0.00156105
0.00157432
0.00157214
0.00156317
0.0015743
0.00156102
0.00156319
0.00156098
0.00157436
0.00157436
0.00156097
0.00156105
0.00157214
0.00157432
0.00156317
0.0015743
0.00156319
0.00156102
0.00155647
0.00154308
0.00155647
0.00154308
0.0015564
0.00155422
0.00154312
0.00154529
0.00155643
0.00155424
0.00154316
0.00155647
0.00154308
0.00155647
0.00154308
0.0015564
0.00155422
0.00154529
0.00154312
0.00155424
0.00155643
0.00154316
0.00156098
0.00157436
0.00157436
0.00156097
0.00156105
0.00157214
0.00157432
0.00156317
0.0015743
0.00156319
0.00156102
0.00156098
0.00157436
0.00157436
0.00156097
0.0015564
0.00155422
0.00154312
0.00154529
0.00155643
0.00155424
0.00154316
0.00155647
0.00154308
0.00155647
0.00154308
0.0015564
0.00155422
0.00154529
0.00154312
0.00155424
0.00155643
0.00154316
0.00155647
0.00154308
0.00155647
0.00154308
0.00157437
0.00157437
0.00156105
0.00156097
0.00156097
0.00157436
0.00156098
0.00154308
0.00155647
0.00155634
0.00154308
0.00154308
0.00155647
0.00155647
0.00154308
0.00155647
0.00156105
0.00157214
0.00157432
0.00156317
0.0015743
0.00156319
0.00156102
0.00156098
0.00157436
0.00157436
0.00156097
0.00156098
0.00157436
0.00157436
0.00156097
0.0015564
0.00155422
0.00154529
0.00154312
0.00155424
0.00155643
0.00154316
0.0015564
0.00155422
0.00154529
0.00154312
0.00155424
0.00155643
0.00154316
0.00155647
0.00154308
0.00155647
0.00154308
0.00155647
0.00154308
0.00155647
0.00154308
0.00157436
0.00156098
0.00157436
0.00156098
0.00155634
0.00154308
0.00154308
0.00155647
0.00155647
0.00154308
0.00155647
0.00154308
0.00155647
0.00153857
0.00152518
0.00153857
0.00152518
0.00153858
0.00153858
0.00152526
0.00152518
0.00152518
0.00150729
0.00152067
0.00150729
0.00152067
0.00152055
0.00150729
0.00150729
0.00152068
0.00152068
0.00152519
0.00153857
0.00153857
0.00152518
0.00152526
0.00153853
0.00153634
0.00152738
0.00153851
0.00152522
0.00152739
0.00152526
0.00153853
0.00153634
0.00152738
0.00153851
0.00152522
0.0015274
0.00152067
0.00150729
0.00152068
0.00150729
0.00152067
0.00150729
0.00152068
0.00150729
0.00152061
0.00151843
0.00150733
0.0015095
0.00152063
0.00151845
0.00150737
0.00152061
0.00151843
0.00150733
0.0015095
0.00152063
0.00151845
0.00150737
0.00153858
0.00153858
0.00152526
0.00152518
0.00152518
0.00153857
0.00152518
0.00150729
0.00152067
0.00152055
0.00150729
0.00150729
0.00152068
0.00152068
0.00150729
0.00152067
0.00152526
0.00153853
0.00153634
0.00152738
0.00153851
0.00152522
0.00152739
0.00152519
0.00153857
0.00153857
0.00152518
0.00152526
0.00153634
0.00153853
0.00152738
0.00153851
0.00152739
0.00152522
0.00152067
0.00150729
0.00152068
0.00150729
0.00152061
0.00151843
0.00150733
0.0015095
0.00152063
0.00151845
0.00150737
0.00152067
0.00150729
0.00152068
0.00150729
0.00152061
0.00151843
0.0015095
0.00150733
0.00151845
0.00152063
0.00150737
0.00152519
0.00153857
0.00153857
0.00152518
0.00152526
0.00153634
0.00153853
0.00152738
0.00153851
0.00152739
0.00152522
0.00152519
0.00153857
0.00153857
0.00152518
0.00152061
0.00151843
0.00150733
0.0015095
0.00152063
0.00151845
0.00150737
0.00152067
0.00150729
0.00152068
0.00150729
0.00152061
0.00151843
0.0015095
0.00150733
0.00151845
0.00152063
0.00150737