/*--------------------------------*- C++ -*----------------------------------*\
| =========                 |                                                 |
| \\      /  F ield         | OpenFOAM: The Open Source CFD Toolbox           |
|  \\    /   O peration     | Version:  v1906                                 |
|   \\  /    A nd           | Web:      www.OpenFOAM.com                      |
|    \\/     M anipulation  |                                                 |
\*---------------------------------------------------------------------------*/
FoamFile
{
    version     2.0;
    format      ascii;
    class       surfaceScalarField;
    location    "125";
    object      phi;
}
// * * * * * * * * * * * * * * * * * * * * * * * * * * * * * * * * * * * * * //

dimensions      [0 3 -1 0 0 0 0];
oriented        oriented;


internalField   nonuniform List<scalar> 
124860
(
-1.32366e-06
-1.31376e-06
-0.00027362
3.09577e-07
2.45304e-07
-4.59002e-08
1.74436e-08
-1.33004e-06
2.69641e-07
-2.97042e-07
-9.50865e-07
2.32276e-07
-2.83181e-07
9.40412e-07
-0.00114392
1.3376e-06
-5.08973e-09
-0.00114437
1.21963e-08
-1.33022e-06
2.86602e-07
-2.91535e-07
-9.48481e-07
2.62366e-07
-2.72464e-07
9.48726e-07
-1.29709e-06
-0.00027364
2.76263e-07
2.81145e-07
6.06138e-09
4.48013e-08
-1.27864e-06
2.98113e-07
-2.77397e-07
-9.37274e-07
2.92614e-07
-2.5594e-07
9.51575e-07
-0.001145
1.33196e-06
9.28969e-10
6.82951e-09
-1.32462e-06
2.86611e-07
-2.91492e-07
-9.45641e-07
2.6236e-07
-2.72362e-07
9.45799e-07
-0.00114403
-5.84592e-09
-0.00114475
1.16312e-08
-1.2896e-06
2.78453e-07
-2.83079e-07
-9.42675e-07
2.59818e-07
-2.69484e-07
9.43242e-07
1.32631e-06
7.57053e-10
-0.00114382
1.22186e-08
-1.31905e-06
2.8098e-07
-2.85912e-07
-9.45545e-07
2.59574e-07
-2.72306e-07
9.45748e-07
-1.29144e-06
-0.000273597
2.76184e-07
2.81125e-07
-5.32339e-09
2.24712e-08
-1.284e-06
2.78483e-07
-2.83056e-07
-9.42523e-07
2.6246e-07
-2.72244e-07
9.4299e-07
-0.00114439
1.28875e-06
-5.71437e-09
-0.00114493
1.7125e-08
-1.28689e-06
2.78493e-07
-2.8587e-07
-9.42691e-07
2.62594e-07
-2.72243e-07
9.43356e-07
-0.000273613
2.7587e-07
2.8135e-07
-5.96324e-09
2.36862e-08
-0.00116439
-0.0011644
-5.61392e-09
-5.48634e-09
-1.1112e-08
1.70203e-08
-0.00116401
-0.00116421
-5.51505e-09
5.49719e-09
-1.12317e-08
-6.4744e-09
-9.78902e-05
-1.34511e-08
-6.55834e-09
-9.78919e-05
-1.49907e-08
-1.25865e-09
-0.000280335
9.25613e-09
-1.96278e-08
-6.38772e-08
-0.000280314
1.2305e-08
1.61942e-10
5.17545e-08
-2.02414e-08
3.52746e-10
0.000232502
-0.000232534
-3.22058e-08
-0.000194323
1.29204e-09
-1.22463e-10
-5.4199e-08
-0.000232502
2.12618e-08
1.15486e-09
5.17885e-08
-2.0268e-08
5.29439e-10
0.000232539
-0.000232571
-3.22057e-08
6.48724e-09
-0.000194363
-1.25831e-09
3.70402e-08
-4.3078e-09
-5.67071e-09
0.000194363
-0.000194391
-5.41996e-08
-0.000232539
2.12719e-08
1.16536e-09
1.56567e-09
2.21899e-10
2.25406e-07
0.000255964
-0.000256139
-1.16713e-07
-0.000248719
-8.40973e-09
-0.00115254
-3.2208e-09
7.20834e-10
-1.04272e-06
8.61898e-07
-8.63299e-07
1.04138e-06
4.00985e-09
6.09514e-09
1.04141e-06
-8.60448e-07
-1.03993e-06
8.61928e-07
-0.00115254
-1.24077e-08
-1.39369e-09
-0.000255964
5.81275e-10
-2.23387e-07
-4.36813e-11
2.2548e-07
0.000255995
-0.000256168
1.21335e-08
-1.3303e-06
-5.14609e-09
9.48774e-07
-2.72406e-07
-9.4843e-07
2.62417e-07
1.33753e-06
-2.91472e-07
2.86679e-07
-0.00114437
1.72408e-08
-1.28871e-07
-0.000248735
-1.08669e-08
-0.0011527
6.28645e-09
-1.04013e-06
8.61982e-07
-8.60652e-07
1.0444e-06
-1.60324e-08
6.12186e-09
1.37303e-07
0.000248735
-0.000248825
6.15593e-09
1.04444e-06
-8.60606e-07
-1.0401e-06
8.62006e-07
-0.00115269
-0.000255996
1.35939e-09
-2.26011e-07
-1.11641e-08
-9.78947e-05
1.33841e-08
9.78948e-05
-9.79125e-05
1.28967e-06
0.00027364
-2.68946e-07
-2.73852e-07
-0.000275717
-3.35066e-08
-0.000280289
1.19523e-08
1.33052e-08
-1.47529e-08
-3.34417e-08
-0.000280396
1.20078e-08
-1.14466e-08
3.65469e-08
0.000280289
-0.000280317
-1.55413e-08
1.34562e-08
-1.13168e-08
3.6409e-08
0.000280397
-0.00028042
-6.49552e-09
-9.78973e-05
4.29996e-09
9.78973e-05
-9.79172e-05
-3.45535e-08
-0.00019435
-1.14699e-09
-5.42194e-08
-1.49235e-10
-0.00023253
1.09791e-09
1.92394e-08
-1.38761e-07
-0.000248744
-1.33276e-08
5.43336e-10
6.06642e-09
-1.03448e-06
8.59081e-07
-8.54962e-07
1.04135e-06
-0.00115243
-1.73649e-09
-0.000255978
8.33621e-10
-2.28592e-07
-3.43899e-08
6.48239e-09
-0.000194294
-1.1741e-09
-5.42001e-08
-0.000232491
1.92159e-08
1.12921e-09
1.1923e-08
-1.03726e-06
8.5906e-07
-8.55053e-07
1.04138e-06
-0.00115241
1.72308e-08
-1.24001e-07
-0.000248669
-1.3276e-08
-0.000255953
-2.25954e-07
1.06519e-09
-5.18059e-08
1.72452e-09
4.64359e-10
2.22833e-07
0.000255992
-0.000256165
1.15891e-08
3.00393e-10
1.29702e-06
-2.83013e-07
2.78529e-07
9.4329e-07
-2.69417e-07
-9.42623e-07
2.59878e-07
-0.00114476
3.44184e-08
-1.28938e-07
-0.00024878
-1.07978e-08
-0.00115247
-3.95234e-09
6.13243e-09
-1.03726e-06
8.59093e-07
-8.57713e-07
1.04133e-06
-3.91059e-08
6.1064e-09
1.37083e-07
0.00024878
-0.000248871
3.43128e-09
1.15721e-08
1.04134e-06
-8.57681e-07
-1.03725e-06
8.5911e-07
-0.00115248
5.41708e-08
-1.6864e-09
-0.000255992
3.63114e-10
-2.25995e-07
2.20575e-10
4.83415e-10
-2.02761e-08
0.000232536
-0.000232568
-0.00019436
-1.1789e-09
-5.61589e-09
0.00019436
-0.000194389
-1.33153e-10
-0.000232536
8.93416e-10
2.12611e-08
-5.18251e-08
2.20273e-07
-2.48014e-10
0.000255967
-0.000256133
1.22116e-08
-1.31913e-06
7.27612e-10
9.45797e-07
-2.72247e-07
-9.45492e-07
2.6235e-07
1.32627e-06
-2.85842e-07
2.81088e-07
-0.00114382
-0.00115241
6.14748e-09
-1.03719e-06
8.59085e-07
-8.57772e-07
1.04137e-06
3.21905e-08
1.73202e-08
-1.26437e-07
-0.000248715
-1.09125e-08
1.15699e-08
1.0414e-06
-8.57742e-07
-1.03716e-06
8.59105e-07
-0.00115241
-3.70046e-08
-1.60718e-08
6.17738e-09
1.34803e-07
0.000248715
-0.000248802
5.41525e-08
-0.000255967
-2.23358e-07
1.10383e-09
-2.02835e-08
3.37304e-10
0.0002325
-0.000232532
6.50578e-09
-0.000194308
-1.26575e-09
-4.30623e-09
-5.66018e-09
0.000194308
-0.000194335
-0.0002325
2.12522e-08
1.18928e-09
-1.33623e-08
-9.78757e-05
-3.34466e-08
-0.000280256
8.90542e-09
1.1158e-08
-1.73409e-08
-3.58921e-08
-0.000280353
1.15867e-08
-6.50829e-09
-9.78858e-05
1.20521e-09
-5.43949e-08
2.25469e-07
2.16733e-10
0.000255951
-0.000256124
-0.00115214
-9.64577e-09
5.79317e-09
-1.03424e-06
8.53402e-07
-8.54865e-07
1.0356e-06
3.22614e-08
-1.28969e-07
-0.00024872
-1.08649e-08
-1.10665e-08
5.63467e-09
1.03838e-06
-8.52016e-07
-1.03143e-06
8.56238e-07
-0.00115212
-2.23584e-08
-1.3981e-09
5.6709e-08
-0.000255951
-2.28545e-07
8.50292e-10
-5.44129e-08
2.25543e-07
-1.01906e-09
0.000255984
-0.000256153
1.16068e-08
-1.28422e-06
-5.72112e-09
9.43389e-07
-2.72191e-07
-9.42656e-07
2.62636e-07
1.29148e-06
-2.83019e-07
2.78564e-07
-0.00114493
-0.0011523
5.91469e-09
-1.03166e-06
8.53432e-07
-8.52233e-07
1.03567e-06
3.22645e-08
1.73536e-08
-1.29015e-07
-0.000248729
-1.0864e-08
5.6631e-09
1.03573e-06
-8.52171e-07
-1.03162e-06
8.53476e-07
-0.00115231
-3.69514e-08
-1.60439e-08
6.17378e-09
1.37151e-07
0.000248729
-0.000248819
5.66815e-08
-0.000255984
-2.2852e-07
1.5518e-09
1.2424e-10
2.77801e-10
-1.82701e-08
0.000232489
-0.000232525
-0.000194311
-1.20491e-09
-1.56372e-10
-0.000232489
1.15441e-09
1.92318e-08
3.04188e-10
-1.82722e-08
0.000232526
-0.000232562
6.51038e-09
-0.000194349
-1.20817e-09
-4.29839e-09
-5.60548e-09
0.000194349
-0.000194376
-0.000232526
1.10421e-09
1.9205e-08
0.000273616
-2.6871e-07
-2.74132e-07
-0.000275676
1.11723e-08
-3.58078e-08
-0.000280347
8.91887e-09
1.11598e-08
-3.35286e-08
-0.000280293
9.52953e-09
-1.34113e-08
-8.37815e-09
3.88778e-08
0.000280347
-0.00028038
-1.3413e-08
-8.818e-09
3.65008e-08
0.000280293
-0.000280324
-9.78854e-05
9.78854e-05
-9.79032e-05
-9.78895e-05
9.78895e-05
-9.79073e-05
1.58053e-08
4.41264e-09
-9.79104e-05
1.329e-08
4.31445e-09
-9.79095e-05
-2.61043e-08
4.13576e-08
0.000224569
-2.45445e-08
5.72376e-08
-0.000224617
-0.000254892
-2.14422e-08
5.12466e-08
-2.01651e-08
-1.319e-08
4.38093e-08
1.8388e-08
-0.000280369
-0.000183955
-2.2161e-09
3.52498e-09
-8.03179e-09
-0.000183987
1.09744e-07
4.47998e-08
-0.000254962
-4.57255e-08
2.88304e-10
-1.66745e-08
1.37935e-08
0.000224533
-6.99602e-09
3.36109e-08
-0.000224557
-0.000254837
6.92559e-08
-2.19342e-07
-4.3021e-08
-7.07268e-09
2.6887e-08
1.3703e-08
-0.000280334
-0.000183924
-4.04041e-08
1.17597e-08
-6.17244e-09
-0.000183942
5.04836e-08
3.16357e-08
-0.000254878
7.41566e-08
-9.85161e-08
-7.3658e-09
-7.34095e-09
0.000215319
-0.000215336
-8.07869e-05
-8.58863e-09
-8.07771e-05
-4.99719e-09
-8.08023e-05
-8.07906e-05
-0.000143581
3.91266e-10
-2.11893e-08
0.000143601
1.04825e-09
1.50761e-09
0.000171532
6.07718e-12
-0.000171554
-2.00162e-08
0.000225768
5.08924e-08
-0.000225799
6.92238e-10
2.12783e-08
1.15167e-09
0.000232534
5.60236e-11
-5.4224e-08
-0.000143601
1.29103e-09
0.000171554
2.88219e-12
0.000225799
-5.44649e-08
3.28586e-09
2.10834e-08
7.91622e-05
-1.29114e-09
-7.9182e-05
-5.66039e-09
3.92804e-08
-0.000194353
-0.00026479
1.87115e-08
-3.31475e-09
-4.96948e-08
-6.48167e-10
4.9078e-08
-0.000264823
-1.05026e-09
-1.51014e-09
2.00309e-08
0.000143581
-2.02638e-08
1.12081e-10
1.19442e-11
5.1774e-08
-0.000171532
-3.84302e-10
-9.37061e-12
-0.000225766
2.11686e-08
-5.69121e-08
-3.35786e-12
5.33722e-08
-0.000143652
4.04253e-10
-1.92451e-08
8.79583e-10
0.00014367
1.48046e-09
0.000171567
-0.000171589
-1.80403e-08
0.000225854
6.45459e-10
5.34653e-08
-0.00022589
2.12913e-08
1.16556e-09
0.000232571
-5.42248e-08
1.45248e-09
-0.00014367
0.000171589
3.32057e-09
0.00022589
-5.70724e-08
1.89949e-08
7.92072e-05
-7.92247e-05
-1.4516e-09
-5.67272e-09
-0.00019439
-4.31541e-09
3.70572e-08
-0.000264905
1.66164e-08
-3.31798e-09
-4.96279e-08
-0.00026494
-6.37184e-10
4.91788e-08
-8.86818e-10
-7.92072e-05
-1.66333e-08
-1.89924e-08
0.000264905
4.91742e-08
-0.00026494
-1.25817e-09
6.49256e-09
-3.2227e-08
-7.92248e-05
-4.96591e-08
-1.47873e-09
1.80493e-08
0.000143652
-2.02852e-08
2.87793e-10
5.18039e-08
-0.000171567
-3.97245e-10
-0.000225854
1.92268e-08
-5.70318e-08
5.34535e-08
-9.79124e-05
1.33823e-08
-1.11663e-08
-0.000215326
6.83227e-09
6.76431e-09
-1.50721e-08
-1.30267e-08
0.000215341
7.30964e-09
8.07779e-05
6.28347e-09
-8.07915e-05
7.39212e-09
8.07915e-05
6.18824e-09
-8.08051e-05
1.57622e-08
1.35026e-08
-0.000215341
-6.74432e-09
8.07915e-05
-6.79933e-09
8.08051e-05
2.88851e-08
-2.1267e-08
0.000224518
-0.000224557
-1.57668e-08
4.67469e-08
-0.000254805
2.51281e-08
-8.37899e-08
-3.27895e-08
3.65248e-08
-1.14416e-08
-0.000280317
1.60543e-08
-0.000183918
-2.11549e-08
6.75165e-09
-0.000254863
8.38749e-08
3.9528e-08
-0.000183944
-6.27773e-09
1.50588e-08
-4.96604e-08
-2.12917e-08
2.87354e-08
0.000224593
-0.000224636
-1.35072e-08
4.90108e-08
-0.000254963
2.52583e-08
-8.38518e-08
-2.77658e-08
-1.13129e-08
3.63838e-08
-0.000280419
-1.554e-08
1.34786e-08
-0.00018397
-2.11356e-08
6.79913e-09
-0.000183996
-6.18674e-09
-0.000255016
8.3852e-08
3.42372e-08
1.30072e-08
-5.17986e-08
-2.51279e-08
-0.000224518
2.11756e-08
-4.96688e-08
2.12605e-08
0.000183918
-0.000183944
0.000254805
-2.88629e-08
3.94791e-08
8.39314e-08
-0.000254863
-3.35048e-08
1.19455e-08
-1.72547e-08
-3.28074e-08
-8.37529e-08
4.67864e-08
-0.000224557
-0.000224593
2.11586e-08
-2.52619e-08
-5.18159e-08
2.12853e-08
0.00018397
-0.000183996
-2.87152e-08
0.000254963
8.39096e-08
3.41914e-08
-0.000255016
1.20004e-08
-3.34359e-08
1.3312e-08
-1.47681e-08
4.90472e-08
-0.000224636
-8.38155e-08
-2.7784e-08
-7.31721e-09
-7.39453e-09
0.000215326
-8.07779e-05
-6.82e-09
-8.07915e-05
-6.75847e-09
-9.79171e-05
4.3061e-09
-6.49829e-09
1.8896e-08
7.92081e-05
-1.35492e-09
-7.92256e-05
-5.58297e-09
3.6918e-08
-0.000194377
-0.000264909
1.66984e-08
-3.18087e-09
-4.72882e-08
-5.90812e-10
4.66652e-08
-0.000264942
-8.11713e-10
1.8097e-08
-1.42061e-09
0.00014365
-0.000143668
2.39627e-10
-1.82841e-08
8.33423e-11
5.19107e-08
-0.000232564
-0.000225854
1.92107e-08
-5.44834e-08
-0.000171564
-4.3578e-10
1.83445e-11
5.10444e-08
-0.000225887
3.7779e-11
-0.000171584
2.1076e-08
7.916e-05
-1.2735e-09
-7.91798e-05
-5.66706e-09
-4.32246e-09
3.91682e-08
-0.000194324
-0.000264784
1.87117e-08
-3.23964e-09
-4.70834e-08
-6.87158e-10
4.66734e-08
-0.000264815
-1.05167e-09
-1.49066e-09
2.0053e-08
0.000143576
-0.000143596
-1.82757e-08
3.61473e-10
5.19206e-08
-0.000232525
-0.000171529
-3.86669e-10
-0.000225758
2.11964e-08
-5.44228e-08
-0.000171549
5.09423e-08
-0.000225789
-0.000143653
-1.922e-08
4.38947e-10
8.27375e-10
0.000143671
-1.80536e-08
0.000225859
5.83126e-10
5.34961e-08
-0.000225895
1.43517e-09
0.000171563
5.1174e-11
-0.000171585
1.11994e-09
2.12801e-08
0.000232568
1.19717e-11
-5.41972e-08
1.38439e-09
-0.000143671
3.23605e-09
0.000225895
-5.7009e-08
0.000171585
3.18916e-11
1.89197e-08
7.92101e-05
-7.92277e-05
-1.38686e-09
-5.624e-09
-0.000194389
3.91229e-08
-0.000264921
1.66603e-08
-3.24081e-09
-4.96681e-08
-0.000264957
-5.77623e-10
4.91034e-08
-8.33786e-10
-7.92102e-05
-1.66752e-08
-1.89131e-08
0.000264922
4.90933e-08
-0.000264957
-1.15791e-09
-3.445e-08
-7.92277e-05
-4.969e-08
1.80683e-08
-1.43952e-09
0.000143653
2.52843e-10
-2.02968e-08
6.32583e-11
5.18215e-08
-0.000225859
1.92049e-08
-5.6984e-08
-0.000171563
-4.347e-10
2.15483e-11
5.3494e-08
3.94182e-11
-0.000143581
3.81548e-10
-1.92118e-08
8.76777e-10
0.000143599
1.50572e-09
0.000171529
-0.00017155
-1.80594e-08
0.000225765
6.46638e-10
5.34871e-08
-0.000225801
2.12693e-08
1.40624e-09
0.000232531
-5.41724e-08
1.44892e-09
-0.000143599
0.00017155
3.31737e-09
0.000225801
-5.69926e-08
1.89834e-08
7.91656e-05
-7.91831e-05
-1.4526e-09
-5.67032e-09
-0.000194335
-4.3113e-09
3.70251e-08
-0.000264796
1.66058e-08
-3.31993e-09
-4.95995e-08
-0.000264831
-6.44841e-10
4.91525e-08
-8.85012e-10
-7.91656e-05
-1.66255e-08
-1.89759e-08
0.000264796
4.91437e-08
-0.000264831
-1.25961e-09
6.50857e-09
-3.22169e-08
-7.91831e-05
-4.96329e-08
-1.50843e-09
1.80677e-08
0.000143581
-2.0304e-08
9.61315e-11
5.18377e-08
-0.000171529
-3.73526e-10
-0.000225765
1.91918e-08
-5.69563e-08
5.34758e-08
1.55659e-08
-9.78956e-05
2.64148e-08
-2.3009e-08
0.0002245
-1.36517e-08
4.89522e-08
-0.000224539
-0.000254769
2.26382e-08
-8.37696e-08
-3.27817e-08
3.64428e-08
-8.37005e-09
1.60417e-08
-0.000280284
-0.000183907
-2.29033e-08
6.7963e-09
8.38368e-08
3.9542e-08
-0.000254829
-6.29438e-09
-0.000183932
1.29301e-08
-5.18676e-08
-2.32964e-08
2.87371e-08
0.000224579
-1.56122e-08
4.43885e-08
-0.000224613
-0.000254923
2.52416e-08
-8.13339e-08
-3.03594e-08
-1.08521e-08
3.88289e-08
-1.34075e-08
1.60429e-08
-0.000280383
-0.000183966
-2.31187e-08
6.82738e-09
-6.20421e-09
-0.000183994
8.13363e-08
3.68399e-08
-0.000254974
1.50774e-08
-4.71407e-08
-7.3178e-09
-7.39295e-09
0.000215312
-0.000215326
-8.07717e-05
-6.79016e-09
-8.07898e-05
-6.74654e-09
-8.07853e-05
-8.08034e-05
4.31099e-09
-9.79035e-05
-0.00014358
-1.92256e-08
4.03833e-10
8.49447e-10
0.000143598
-1.80714e-08
0.000225759
5.34911e-08
-0.000225795
6.45232e-10
1.45808e-09
0.000171529
1.05569e-12
-0.000171549
1.38881e-09
1.92516e-08
0.000232525
-1.772e-11
-5.6741e-08
-0.000143598
1.40405e-09
3.2715e-09
0.000225797
-5.94879e-08
0.000171549
-7.74865e-12
1.89381e-08
7.91657e-05
-7.91832e-05
-1.40228e-09
-5.62092e-09
3.69811e-08
-0.000194338
-0.000264794
1.66468e-08
-3.22765e-09
-4.72274e-08
-0.000264829
-6.01309e-10
4.9145e-08
-8.47912e-10
-1.66513e-08
-7.91657e-05
-4.96731e-08
-0.000264794
1.18793e-09
1.80895e-08
-1.45857e-09
0.00014358
4.10348e-11
-1.82847e-08
-2.82576e-11
5.44089e-08
-0.000225759
1.9212e-08
-5.69699e-08
-0.000171529
-4.0738e-10
-1.26304e-11
5.59765e-08
-9.93451e-12
-0.00014365
-2.11999e-08
4.39681e-10
9.81887e-10
0.00014367
-2.00834e-08
0.000225851
6.28069e-10
5.34397e-08
-0.000225885
1.44068e-09
0.000171563
-0.000171583
1.0983e-09
1.92232e-08
0.000232562
-5.67075e-08
1.20134e-09
-0.00014367
3.20398e-09
0.000225885
-5.69102e-08
0.000171583
2.10462e-08
7.92066e-05
-7.92265e-05
-1.20016e-09
-5.61497e-09
-0.000194376
-4.30013e-09
3.69677e-08
-0.000264907
1.87695e-08
-3.20061e-09
-4.71745e-08
-0.000264937
-6.18629e-10
4.65935e-08
-9.89336e-10
-7.92067e-05
-1.87881e-08
-2.1047e-08
0.000264907
4.65978e-08
-0.000264937
-1.21032e-09
6.51395e-09
-3.22849e-08
-7.92265e-05
-4.72087e-08
2.00918e-08
-1.43858e-09
0.00014365
2.87124e-10
-1.82888e-08
5.44262e-08
-0.000225851
2.11774e-08
-5.68694e-08
-0.000171563
-4.31759e-10
5.34351e-08
-0.000215319
6.81374e-09
6.74741e-09
-1.28943e-08
-1.51622e-08
0.000215333
7.31356e-09
8.07884e-05
6.29983e-09
-8.0802e-05
7.38035e-09
8.07771e-05
6.26264e-09
-8.07908e-05
1.35882e-08
1.56634e-08
-0.000215333
-6.78271e-09
8.0802e-05
-6.87852e-09
8.07908e-05
2.63945e-08
-2.30335e-08
0.00022458
-0.000224616
-1.35955e-08
4.65542e-08
-0.000254913
2.26439e-08
-7.87104e-08
-3.0256e-08
3.88605e-08
-8.37276e-09
-0.00028038
-1.34126e-08
1.60917e-08
-0.000183964
-2.28992e-08
6.7835e-09
-0.000254966
8.14161e-08
3.69323e-08
-0.000183989
-6.29745e-09
1.2873e-08
-4.94134e-08
2.62999e-08
-2.11061e-08
0.000224516
-0.000224553
-1.56692e-08
4.68405e-08
-0.000254814
2.28175e-08
-8.37488e-08
-3.03927e-08
3.64848e-08
-8.81235e-09
-0.000280324
-1.34156e-08
1.60603e-08
-0.000183919
-2.09354e-08
6.8847e-09
-0.000254872
8.38003e-08
3.68346e-08
-0.000183943
-6.25842e-09
1.51449e-08
-4.9602e-08
-0.00022458
-2.26481e-08
2.29268e-08
-4.94394e-08
2.30246e-08
0.000183964
-0.000183989
-2.63729e-08
0.000254913
3.68791e-08
8.14691e-08
-0.000254966
-3.58081e-08
8.9087e-09
1.11781e-08
-1.73325e-08
4.65857e-08
-0.000224616
-3.02642e-08
-8.12194e-08
-0.000224516
-2.28151e-08
2.09592e-08
-4.96173e-08
2.10978e-08
0.000183919
-0.000183943
-2.62795e-08
0.000254814
3.67939e-08
8.38392e-08
-0.000254872
-3.3535e-08
9.52253e-09
1.11669e-08
-1.73654e-08
4.68742e-08
-0.000224553
-3.04077e-08
-8.37204e-08
-7.31815e-09
-7.38737e-09
0.000215319
-8.07884e-05
-6.80513e-09
-8.07771e-05
-6.7352e-09
-9.79031e-05
-9.79072e-05
1.50237e-07
1.21642e-07
0.000247075
-0.000247256
-2.63385e-07
-2.74119e-07
-0.000275691
-0.000265965
6.08516e-08
-0.000266311
2.17293e-07
-0.000266265
-0.00026669
1.39904e-07
1.37153e-07
0.000247089
-0.00024727
-2.68949e-07
-2.7385e-07
-0.000275717
-0.000266342
1.42611e-07
-0.00026598
1.40056e-07
-0.000266678
-0.000266316
1.37417e-07
1.37031e-07
0.00024706
-0.000247241
-2.6893e-07
-2.73878e-07
-0.000275663
-0.000266304
1.40086e-07
-0.000265939
1.3994e-07
-0.000266643
-0.000266277
1.37176e-07
1.37284e-07
0.00024707
-0.000247251
-2.68716e-07
-2.74169e-07
-0.000275676
-0.000265918
1.39841e-07
-0.00026635
1.40144e-07
-0.000266254
-0.000266689
-0.00117384
-5.80415e-11
-1.98731e-09
5.89461e-09
4.9508e-09
-0.00117429
5.97319e-09
-1.65774e-09
-0.00117384
5.60112e-10
0.00118471
-1.78535e-08
-1.60904e-09
-0.00118467
-1.75429e-08
-7.43621e-09
8.80298e-10
-5.66503e-09
-5.51539e-09
-0.0011644
-0.00117389
9.41653e-11
-0.00117438
5.99601e-09
-4.46886e-10
3.4905e-11
-0.00117389
5.92789e-09
8.3991e-10
-0.00117438
0.00118476
3.15017e-11
-0.00118477
2.91756e-11
2.33907e-08
-0.00117348
-0.00117389
4.43889e-11
-2.41301e-08
1.38463e-11
-1.17948e-07
-0.00117367
-1.03524e-07
0.00118406
-1.226e-07
-0.00118383
-1.09876e-07
-2.48199e-08
-5.60992e-09
1.13136e-08
-0.00116422
-0.00117356
1.18339e-08
-0.001174
1.62288e-11
2.33785e-08
-0.00117358
6.31006e-12
-0.0011741
0.00118417
-0.00118427
-0.000271617
2.42997e-07
7.52798e-11
0.000272414
8.63768e-10
2.37045e-07
0.000254701
-0.000254885
-1.53472e-09
6.38952e-10
0.000272028
5.03962e-09
-0.000272669
1.58391e-09
-2.26037e-07
0.000256134
4.97752e-11
-0.000272415
-4.40034e-09
0.000254886
4.84058e-09
0.000272666
-1.88933e-09
-1.38309e-08
-2.24704e-07
0.000269911
7.05923e-09
-0.000270631
-0.000265465
-3.67736e-09
1.42196e-07
8.55493e-09
-0.000248812
-0.000255053
-2.18937e-07
-4.82705e-09
-0.000265575
1.56179e-09
-0.000255222
-9.18988e-10
-2.39636e-07
2.77921e-09
0.000271616
-1.50643e-09
2.22833e-07
1.93121e-10
-0.0002547
-2.40361e-07
-0.000272026
-2.63929e-09
-4.84865e-09
2.26661e-09
-0.000271668
2.43128e-07
8.22749e-10
9.02036e-10
0.000272467
2.37047e-07
0.000254767
-1.52616e-09
-0.000254949
-1.7046e-10
0.000272056
-0.000272686
1.61086e-09
-2.26038e-07
0.000256166
-4.46259e-09
-0.000272467
4.8821e-09
0.000254949
0.000272691
-2.19764e-07
-1.13269e-08
0.000269958
-0.00027068
4.46561e-09
-0.000265479
-6.21074e-09
6.13172e-09
1.37345e-07
-0.000248825
-0.000255115
-2.21518e-07
-4.87583e-09
-0.000255281
1.53088e-09
-0.000265586
-8.99457e-10
-0.000269958
2.21567e-07
6.22004e-09
2.19735e-07
0.000255115
-0.000255281
1.12993e-08
0.000265479
-0.000265586
-1.08675e-08
-1.28913e-07
-0.00027068
-2.37045e-07
9.71247e-10
0.000271668
-7.7218e-10
2.22891e-07
-0.000254767
-2.43075e-07
-0.000272057
-1.33827e-09
-1.42625e-07
-0.000247089
-1.40067e-07
2.76265e-07
2.81146e-07
0.000266342
-1.39937e-07
-0.000266678
-1.37184e-07
0.00026598
-0.000266316
-0.00024727
-1.1496e-08
-2.17043e-07
0.00026998
1.51051e-08
-0.000270704
-0.000265508
-1.14798e-08
1.29785e-07
6.18437e-09
-0.00024883
-0.000255123
-2.26677e-07
-4.80089e-09
-0.000265614
1.57914e-09
-0.000255289
-8.72373e-09
-2.37133e-07
4.41605e-09
0.000271661
-0.000272448
-1.27129e-09
2.25519e-07
4.15216e-10
-0.00025615
-0.000254759
-2.45587e-07
-0.000272038
-6.24395e-10
-6.92845e-09
-0.000254945
4.52368e-09
-0.000272668
-2.19634e-07
-1.40019e-08
0.00026989
1.70524e-09
-0.000270604
-0.000265414
-8.89881e-09
8.60122e-09
1.32353e-07
-0.000248755
-0.000255027
-2.2136e-07
-4.80914e-09
1.52291e-09
-0.000255193
-0.000265529
1.77515e-09
3.46186e-10
-2.37075e-07
0.000271597
-0.000272396
2.22958e-07
-4.76509e-10
-0.000256123
-0.000272023
-1.87515e-09
-0.000254676
-2.42952e-07
-0.00027265
-0.000254861
-0.000271671
2.45536e-07
-2.34713e-09
1.14855e-08
0.000272458
2.39678e-07
0.000254775
-4.01979e-09
-0.000254957
-6.50063e-10
0.000272043
6.5837e-09
-0.000272683
2.06773e-09
-2.26032e-07
0.000256162
-2.87889e-10
-1.5043e-08
-0.000272455
7.24872e-09
0.000254959
0.000272677
-3.7559e-09
-1.39649e-08
-2.22106e-07
0.000269994
-0.000270716
1.50388e-08
-0.000265544
-8.9688e-09
1.37129e-07
6.11552e-09
-0.000248871
-0.000255145
-2.24058e-07
-7.24824e-09
-0.000265656
-0.000255316
4.02775e-09
-1.14813e-08
-0.000269994
8.99025e-09
2.24101e-07
2.22072e-07
0.000255145
-0.000255316
1.39417e-08
0.000265544
-0.000265656
-1.28998e-07
-1.08024e-08
-0.000270716
-2.39667e-07
4.10755e-09
0.000271671
-1.26241e-09
2.22861e-07
3.3059e-10
-0.000254775
-2.45523e-07
-0.000272043
-1.09115e-09
-6.58628e-09
3.76684e-09
-0.000271608
1.3545e-09
2.43007e-07
-1.76983e-09
0.000272407
1.34586e-10
0.000272027
-0.000272658
2.3706e-07
0.000254695
-1.53189e-09
-0.000254877
-2.23386e-07
1.59942e-09
0.000256134
-1.71514e-09
-0.000272406
0.00027266
4.87962e-09
0.000254878
-2.19699e-07
-1.13464e-08
0.000269905
-0.000270621
1.7174e-09
-0.00026546
-6.27445e-09
6.18347e-09
1.34852e-07
-0.000248802
-0.00025505
-2.21446e-07
-4.87733e-09
-0.000255216
1.5325e-09
-0.000265571
1.77281e-09
-0.000269905
2.21498e-07
6.28096e-09
2.19665e-07
0.00025505
-0.000255216
1.1321e-08
0.00026546
-0.000265572
-1.09113e-08
-1.26487e-07
-0.000270621
3.90133e-10
-2.37057e-07
0.000271608
2.20285e-07
-7.33174e-10
-0.000272027
-1.8748e-09
-0.000254695
-2.42958e-07
-0.000271606
-1.82328e-09
2.45499e-07
1.41741e-08
0.000272386
-3.13702e-10
0.000272011
2.81595e-09
-0.00027264
2.39625e-07
0.00025469
-0.000254872
-4.01534e-09
-2.25984e-07
2.07594e-09
0.000256118
-5.59274e-12
-0.00027238
-1.7591e-08
0.000272641
-1.15761e-09
7.27104e-09
0.000254871
-1.39198e-08
-2.22125e-07
0.000269919
-0.000270643
1.75908e-08
-0.000265479
-8.99785e-09
1.37186e-07
6.166e-09
-0.000248811
-0.000255053
-2.24085e-07
-4.81444e-09
-0.000265591
-0.000255224
4.03342e-09
-8.85383e-09
2.24036e-07
-9.42988e-07
-0.000269919
9.0242e-09
-0.000255053
1.08592e-08
3.78473e-09
-2.39625e-07
0.000271606
2.22894e-07
-1.50698e-09
-1.14764e-10
-0.000272012
-1.07387e-09
-4.10723e-09
-0.00025469
-2.45528e-07
6.92319e-10
-0.000271654
-1.29437e-09
2.45486e-07
1.4156e-08
0.000272432
-3.04699e-09
0.000272041
-0.000272662
2.39648e-07
0.000254756
-4.05548e-09
-0.000254939
-2.2595e-07
1.8108e-09
0.000256151
-1.76755e-08
-0.000272431
0.000272666
7.23185e-09
0.000254939
-2.22051e-07
-1.12715e-08
0.000269966
-0.000270693
1.76792e-08
-0.000265496
-6.29061e-09
6.18119e-09
1.37193e-07
-0.000248819
-0.00025511
-2.24095e-07
-7.21813e-09
-0.000255283
4.06673e-09
-0.000265605
-1.41434e-08
-0.000269966
2.24138e-07
6.29985e-09
2.22035e-07
0.00025511
-0.000255283
1.12414e-08
0.000265496
-0.000265605
-1.08619e-08
-1.29053e-07
-0.000270693
3.29156e-09
-2.3966e-07
0.000271654
2.22961e-07
-1.02556e-09
-0.000272041
4.83238e-10
-0.000254756
-2.45424e-07
-0.00024707
-1.39863e-07
-1.40164e-07
2.75878e-07
2.81365e-07
-1.37202e-07
0.000265918
-0.000266254
-1.3731e-07
0.000266353
-0.000266689
-0.000247251
-8.43439e-07
-8.43569e-07
-0.00114621
4.46104e-07
4.5243e-07
0.001147
-0.00113705
-1.50961e-06
8.43612e-07
4.14982e-07
0.00113755
-4.96044e-07
1.12481e-06
1.25928e-07
7.2368e-07
-5.34666e-07
-1.238e-06
5.32803e-08
-0.00113669
-1.50401e-06
8.43427e-07
4.14687e-07
0.00113719
-4.93146e-07
1.11917e-06
1.23159e-07
7.23569e-07
-5.37188e-07
-1.23774e-06
5.63014e-08
-0.000276416
1.53885e-06
1.50412e-06
-4.90915e-07
-4.96608e-07
0.00027436
-1.16083e-06
-1.12029e-06
0.000276432
-0.000274336
8.837e-08
9.59835e-08
0.00113622
8.49651e-07
-0.00113572
4.18752e-07
-1.54923e-06
1.30256e-07
-5.04871e-07
-1.24517e-06
4.86262e-08
-5.36336e-07
7.24563e-07
1.16659e-06
0.00113668
8.49821e-07
-0.00113618
4.18864e-07
-1.55496e-06
1.32991e-07
-5.07722e-07
-1.25116e-06
5.43194e-08
-5.42074e-07
7.3023e-07
-1.12304e-06
0.00027646
-0.000274358
9.10078e-08
9.604e-08
0.00113734
8.50283e-07
-0.00113684
4.17806e-07
-1.50905e-06
1.2456e-07
-4.9945e-07
-1.24804e-06
5.44888e-08
-5.41919e-07
7.24771e-07
1.15817e-06
0.00113634
8.55238e-07
-0.00113584
4.18884e-07
-1.54662e-06
1.30145e-07
-5.049e-07
-1.24531e-06
5.43898e-08
-5.41791e-07
7.24525e-07
8.55675e-07
-0.00113655
4.17904e-07
-1.51173e-06
1.24661e-07
-4.99324e-07
-1.24523e-06
5.15237e-08
7.219e-07
-5.39145e-07
1.15257e-06
0.00113613
8.55304e-07
-0.00113563
4.18957e-07
-1.541e-06
1.24491e-07
-4.99259e-07
-1.2453e-06
5.14304e-08
-5.41805e-07
7.24524e-07
-1.1174e-06
0.000276407
-0.000274319
9.09164e-08
9.60358e-08
8.49927e-07
-0.0011362
4.28583e-07
-1.50614e-06
1.21879e-07
-4.96418e-07
-1.24217e-06
5.45573e-08
7.21806e-07
-5.41661e-07
1.1148e-06
0.00113724
8.50127e-07
-0.00113674
4.23241e-07
-1.50899e-06
1.2183e-07
-4.99277e-07
-1.23976e-06
5.16244e-08
-5.39132e-07
7.19308e-07
-0.000274335
9.08429e-08
9.61643e-08
1.54716e-06
1.50685e-06
-4.8835e-07
-4.96601e-07
0.000274363
-1.15567e-06
-1.13992e-06
-0.00027443
1.32916e-07
6.93795e-08
0.000276524
4.15879e-07
0.00113671
-5.01662e-07
1.16257e-06
1.31559e-07
7.26277e-07
-5.3192e-07
-1.24074e-06
5.03089e-08
-1.55285e-06
8.43381e-07
4.15924e-07
0.00113718
-5.04434e-07
1.16836e-06
1.34252e-07
7.32003e-07
-5.3759e-07
-1.24668e-06
5.60679e-08
7.95616e-07
-0.00113767
4.15541e-07
-1.54371e-06
1.21236e-07
-5.00328e-07
-1.23329e-06
2.85514e-08
-5.38672e-07
7.22779e-07
0.00113825
1.17263e-06
8.29447e-07
-0.00113812
4.10344e-07
-1.54656e-06
1.37879e-07
-4.94679e-07
-1.23106e-06
6.03127e-08
-5.25344e-07
7.33834e-07
0.00113857
-4.91436e-07
-4.96144e-07
0.000274386
-1.12908e-06
-0.000274444
1.00248e-07
1.05279e-07
0.000276541
4.20068e-07
0.00113783
-4.96093e-07
1.12207e-06
1.25946e-07
7.29329e-07
-5.37398e-07
-1.24078e-06
5.62568e-08
-1.5445e-06
8.43245e-07
4.15971e-07
0.00113683
-5.01609e-07
1.15993e-06
1.31433e-07
7.26284e-07
-5.37334e-07
-1.24086e-06
5.61185e-08
8.40853e-07
-0.00113876
4.42226e-07
-1.48963e-06
1.44334e-07
-4.75196e-07
-1.21985e-06
9.15839e-08
-5.09026e-07
7.36577e-07
0.00113905
1.16427e-06
8.29279e-07
-0.00113778
4.04897e-07
-1.53817e-06
1.3497e-07
-4.91913e-07
-1.22806e-06
6.03466e-08
-5.25122e-07
7.30935e-07
0.00113824
8.43298e-07
4.16038e-07
0.00113663
-4.95955e-07
1.15433e-06
1.2575e-07
7.263e-07
-5.34613e-07
5.31783e-08
-1.24082e-06
8.29539e-07
-0.00113849
4.09359e-07
-1.50329e-06
1.29569e-07
-4.86288e-07
-1.22512e-06
5.75035e-08
-5.22429e-07
7.28276e-07
0.00113895
1.1586e-06
8.29336e-07
-0.00113757
4.10414e-07
-1.53254e-06
1.29382e-07
-4.86207e-07
-1.22519e-06
5.74313e-08
-5.22379e-07
7.28141e-07
0.00113802
-4.9138e-07
-4.96227e-07
0.000274347
-1.12346e-06
-0.000274405
9.75827e-08
1.05311e-07
0.00027649
8.43582e-07
4.20346e-07
0.00113773
-4.93224e-07
1.11934e-06
1.23088e-07
7.21132e-07
-5.3464e-07
5.3387e-08
-1.23526e-06
8.29445e-07
-0.00113813
4.08901e-07
-1.49767e-06
1.26729e-07
-4.83411e-07
-1.22487e-06
6.05688e-08
-5.24936e-07
7.28174e-07
0.00113859
1.12363e-06
8.29491e-07
-0.00113868
4.09091e-07
-1.49776e-06
1.26749e-07
-4.83455e-07
-1.22243e-06
5.76096e-08
-5.22409e-07
7.25718e-07
0.00113913
-0.000274419
1.00104e-07
1.05422e-07
0.000276496
-0.00114541
4.49047e-07
4.49831e-07
0.00114622
-0.00114541
4.49165e-07
4.49736e-07
0.00114582
-0.00114503
4.49095e-07
4.72137e-07
0.00114602
-0.00114523
4.49165e-07
4.66579e-07
-1.01791e-10
9.46838e-08
0.000235791
-0.000235856
-2.22384e-08
-7.51427e-09
-0.000196881
-2.28731e-09
1.09437e-07
-8.48765e-09
0.000196782
-0.000236193
1.25811e-10
2.10337e-07
0.000236056
-6.53868e-08
-8.63883e-09
9.70485e-09
3.15594e-08
0.000196611
-4.73449e-09
-0.000196647
-9.89292e-05
2.29614e-09
4.26662e-08
9.88843e-05
-9.73357e-09
1.78491e-08
9.88232e-05
-9.88313e-05
9.2158e-08
-1.80536e-10
0.000235823
-0.000235883
-7.51392e-09
-2.43054e-08
-0.00019691
-2.29605e-09
1.07309e-07
-8.44348e-09
0.000196814
-0.000236222
2.10485e-07
2.42052e-10
0.000236084
-8.94041e-09
-6.33986e-08
9.7325e-09
3.36493e-08
0.00019664
-4.70912e-09
-0.000196679
4.46164e-07
4.46735e-07
0.00114701
4.46094e-07
4.46738e-07
0.00114661
4.46167e-07
4.46779e-07
0.00114682
-0.00114856
4.40134e-07
4.69167e-07
0.00114929
-0.00114859
4.4042e-07
4.40955e-07
0.00114936
-0.00114818
4.34754e-07
4.41028e-07
0.00114896
-0.00114839
4.40381e-07
4.41038e-07
0.00114917
-9.47138e-08
-1.63485e-09
0.000260026
-0.000259915
-1.91599e-08
5.34028e-09
-0.000252841
-3.90853e-08
-1.09415e-07
3.19451e-07
4.06401e-08
0.000252629
0.00113905
-0.00113837
3.28511e-09
8.94213e-07
7.87367e-07
-1.18548e-06
-1.35446e-06
5.88434e-07
4.1255e-07
1.12645e-06
0.00113803
8.38113e-07
-1.23368e-06
5.47727e-08
-5.3045e-07
7.25256e-07