/*--------------------------------*- C++ -*----------------------------------*\
| =========                 |                                                 |
| \\      /  F ield         | OpenFOAM: The Open Source CFD Toolbox           |
|  \\    /   O peration     | Version:  v1906                                 |
|   \\  /    A nd           | Web:      www.OpenFOAM.com                      |
|    \\/     M anipulation  |                                                 |
\*---------------------------------------------------------------------------*/
FoamFile
{
    version     2.0;
    format      ascii;
    class       surfaceScalarField;
    location    "125";
    object      phi;
}
// * * * * * * * * * * * * * * * * * * * * * * * * * * * * * * * * * * * * * //

dimensions      [0 3 -1 0 0 0 0];
oriented        oriented;


internalField   nonuniform List<scalar> 
123680
(
4.99475e-09
5.53274e-09
-0.0011644
-5.59089e-09
-5.53305e-09
0.0011644
-0.00114475
-1.28962e-06
-5.58524e-09
1.17439e-08
0.00114475
-2.83107e-07
1.29708e-06
2.78434e-07
9.43176e-07
-2.69555e-07
-9.42742e-07
2.59763e-07
-0.00114439
-1.284e-06
-5.58973e-09
1.17003e-08
0.00114439
-2.83074e-07
1.29144e-06
2.78464e-07
9.42987e-07
-2.72218e-07
-9.42612e-07
2.62472e-07
-0.000275671
1.31906e-06
1.28418e-06
-2.68755e-07
-2.74175e-07
0.000273611
5.25446e-09
5.79768e-09
-0.00116441
-5.72253e-09
-5.67377e-09
0.00116441
-0.00114475
-1.28963e-06
-5.81908e-09
1.15643e-08
0.00114475
-2.83001e-07
1.29709e-06
2.78546e-07
9.43272e-07
-2.69436e-07
-9.42641e-07
2.59868e-07
-0.00114439
-1.28405e-06
-5.83395e-09
1.15253e-08
0.00114439
-2.82953e-07
1.29142e-06
2.78589e-07
9.43086e-07
-2.72099e-07
-9.42509e-07
2.62579e-07
-0.000275671
1.31907e-06
1.28419e-06
-2.68687e-07
-2.74123e-07
0.000273611
5.6352e-09
6.16221e-09
-0.00116441
-5.94285e-09
-5.89063e-09
0.00116441
-0.00114475
-1.28964e-06
-6.1823e-09
1.14619e-08
0.00114475
-2.82937e-07
1.29707e-06
2.78624e-07
9.43363e-07
-2.69344e-07
-9.42551e-07
2.5995e-07
-0.00114439
-1.28403e-06
-6.16713e-09
1.14097e-08
0.00114439
-2.82885e-07
1.29141e-06
2.78669e-07
9.43161e-07
-2.72026e-07
-9.42435e-07
2.62645e-07
-0.000275672
1.31908e-06
1.2842e-06
-2.68672e-07
-2.74107e-07
0.000273611
5.69387e-09
6.19739e-09
-0.00116441
-5.95894e-09
-5.89106e-09
0.00116441
-0.00114476
-1.28961e-06
-6.25593e-09
1.14169e-08
0.00114476
-2.82935e-07
1.29703e-06
2.78628e-07
9.43376e-07
-2.69323e-07
-9.42545e-07
2.5998e-07
-0.00114439
-1.28403e-06
-6.3115e-09
1.1381e-08
0.00114439
-2.82901e-07
1.29135e-06
2.78661e-07
9.43209e-07
-2.71978e-07
-9.42393e-07
2.627e-07
-0.000275672
1.31907e-06
1.28419e-06
-2.68661e-07
-2.74088e-07
0.000273612
5.67953e-09
6.20121e-09
-0.00116441
-5.94492e-09
-5.88689e-09
0.00116441
-0.00114476
-1.28957e-06
-6.25136e-09
1.14561e-08
0.00114476
-2.82962e-07
1.29703e-06
2.78603e-07
9.43377e-07
-2.69327e-07
-9.42531e-07
2.59973e-07
-0.00114439
-1.28397e-06
-6.26829e-09
1.14011e-08
0.00114439
-2.82915e-07
1.29137e-06
2.78644e-07
9.43197e-07
-2.71991e-07
-9.42398e-07
2.62686e-07
-0.000275673
1.31902e-06
1.28415e-06
-2.68644e-07
-2.74067e-07
0.000273612
5.63682e-09
6.08448e-09
-0.00116441
-5.84764e-09
-5.82556e-09
0.00116441
-0.00114476
-1.28949e-06
-6.21649e-09
1.14601e-08
0.00114476
-2.8296e-07
1.2971e-06
2.78586e-07
9.43369e-07
-2.69321e-07
-9.42533e-07
2.59979e-07
-0.00114439
-1.2839e-06
-6.19473e-09
1.14541e-08
0.00114439
-2.82917e-07
1.29143e-06
2.78626e-07
9.43184e-07
-2.71986e-07
-9.42404e-07
2.62684e-07
-0.000275673
1.31897e-06
1.28409e-06
-2.68624e-07
-2.74046e-07
0.000273612
5.75606e-09
6.2263e-09
-0.00116441
-5.9295e-09
-5.94579e-09
0.0011644
-0.00114476
-1.28939e-06
-6.28666e-09
1.13714e-08
0.00114476
-2.82912e-07
1.29721e-06
2.78605e-07
9.4339e-07
-2.69313e-07
-9.42495e-07
2.59981e-07
-0.00114439
-1.28383e-06
-6.19586e-09
1.14423e-08
0.00114439
-2.8291e-07
1.29151e-06
2.7861e-07
9.43178e-07
-2.7199e-07
-9.42391e-07
2.62681e-07
-0.000275672
1.31887e-06
1.28397e-06
-2.68549e-07
-2.73986e-07
0.000273612
5.66122e-09
6.13845e-09
-0.0011644
-5.88049e-09
-5.85939e-09
0.0011644
-0.00114476
-1.28947e-06
-6.22265e-09
1.15706e-08
0.00114476
-2.8298e-07
1.29718e-06
2.78528e-07
9.43407e-07
-2.69335e-07
-9.42482e-07
2.59943e-07
-0.00114439
-1.28387e-06
-6.21033e-09
1.15638e-08
0.00114439
-2.8294e-07
1.29151e-06
2.78566e-07
9.43207e-07
-2.71996e-07
-9.42358e-07
2.62652e-07
-0.000275672
1.31893e-06
1.28406e-06
-2.6858e-07
-2.74007e-07
0.000273612
5.64084e-09
6.16571e-09
-0.0011644
-5.91445e-09
-5.84974e-09
0.0011644
-0.00114476
-1.28947e-06
-6.24054e-09
1.1499e-08
0.00114475
-2.82932e-07
1.29719e-06
2.78569e-07
9.43394e-07
-2.69297e-07
-9.42496e-07
2.59964e-07
-0.00114439
-1.28389e-06
-6.25772e-09
1.14791e-08
0.00114439
-2.82895e-07
1.29151e-06
2.78606e-07
9.43212e-07
-2.71958e-07
-9.42356e-07
2.62682e-07
-0.000275672
1.31897e-06
1.28411e-06
-2.68601e-07
-2.7401e-07
0.000273611
5.6796e-09
6.23649e-09
-0.0011644
-5.96497e-09
-5.8795e-09
0.0011644
-0.00114475
-1.28947e-06
-6.19326e-09
1.14765e-08
0.00114475
-2.82919e-07
1.29721e-06
2.78584e-07
9.43353e-07
-2.69306e-07
-9.42533e-07
2.59959e-07
-0.00114439
-1.28389e-06
-6.29782e-09
1.14543e-08
0.00114439
-2.82884e-07
1.29153e-06
2.78615e-07
9.43197e-07
-2.71953e-07
-9.42369e-07
2.62689e-07
-0.000275672
1.31898e-06
1.28413e-06
-2.68619e-07
-2.74018e-07
0.000273611
5.68326e-09
6.20554e-09
-0.0011644
-5.94834e-09
-5.88729e-09
0.0011644
-0.00114475
-1.28955e-06
-6.19432e-09
1.14539e-08
0.00114475
-2.82896e-07
1.29714e-06
2.78615e-07
9.43362e-07
-2.6929e-07
-9.42504e-07
2.59973e-07
-0.00114439
-1.28393e-06
-6.23826e-09
1.14475e-08
0.00114439
-2.82865e-07
1.2915e-06
2.78635e-07
9.43173e-07
-2.71957e-07
-9.42373e-07
2.62676e-07
-0.000275672
1.31903e-06
1.28417e-06
-2.6863e-07
-2.74047e-07
0.000273611
5.60756e-09
6.14828e-09
-0.0011644
-5.88482e-09
-5.81734e-09
0.0011644
-0.00114475
-1.28961e-06
-6.22199e-09
1.1467e-08
0.00114475
-2.8291e-07
1.29703e-06
2.7862e-07
9.43422e-07
-2.6926e-07
-9.42448e-07
2.60015e-07
-0.00114439
-1.284e-06
-6.23816e-09
1.13963e-08
0.00114439
-2.82835e-07
1.29141e-06
2.78687e-07
9.43213e-07
-2.71937e-07
-9.42332e-07
2.62702e-07
-0.000275672
1.31906e-06
1.28419e-06
-2.68629e-07
-2.74054e-07
0.000273611
5.71365e-09
6.22571e-09
-0.0011644
-5.94963e-09
-5.89153e-09
0.0011644
-0.00114475
-1.28952e-06
-6.29439e-09
1.14961e-08
0.00114475
-2.82959e-07
1.29706e-06
2.78572e-07
9.43435e-07
-2.69263e-07
-9.42454e-07
2.60018e-07
-0.00114439
-1.28399e-06
-6.2793e-09
1.14216e-08
0.00114439
-2.82873e-07
1.29135e-06
2.78662e-07
9.43252e-07
-2.71919e-07
-9.42312e-07
2.6273e-07
-0.000275672
1.31898e-06
1.28411e-06
-2.68595e-07
-2.74014e-07
0.000273611
5.68248e-09
6.27003e-09
-0.0011644
-5.99949e-09
-5.90189e-09
0.0011644
-0.00114475
-1.28942e-06
-6.18491e-09
1.14833e-08
0.00114475
-2.82964e-07
1.29718e-06
2.78549e-07
9.43361e-07
-2.69326e-07
-9.42526e-07
2.59949e-07
-0.00114439
-1.2839e-06
-6.25691e-09
1.14194e-08
0.00114439
-2.82914e-07
1.29141e-06
2.78613e-07
9.43228e-07
-2.71948e-07
-9.42347e-07
2.62706e-07
-0.000275672
1.31891e-06
1.28406e-06
-2.68603e-07
-2.74003e-07
0.000273611
5.64229e-09
6.1484e-09
-0.0011644
-5.92542e-09
-5.87565e-09
0.0011644
-0.00114475
-1.28943e-06
-6.15212e-09
1.14284e-08
0.00114475
-2.8293e-07
1.29722e-06
2.7857e-07
9.43328e-07
-2.69336e-07
-9.42551e-07
2.59932e-07
-0.00114439
-1.28382e-06
-6.24023e-09
1.14215e-08
0.00114439
-2.82921e-07
1.2915e-06
2.78587e-07
9.43181e-07
-2.71983e-07
-9.42391e-07
2.62667e-07
-0.000275671
1.31887e-06
1.28402e-06
-2.68586e-07
-2.73993e-07
0.000273611
5.6608e-09
6.0444e-09
-0.0011644
-5.84936e-09
-5.87645e-09
0.0011644
-0.00114475
-1.28951e-06
-6.20576e-09
1.14499e-08
0.00114475
-2.82917e-07
1.29717e-06
2.78588e-07
9.4335e-07
-2.69303e-07
-9.42519e-07
2.59961e-07
-0.00114439
-1.28385e-06
-6.2109e-09
1.14843e-08
0.00114439
-2.82917e-07
1.29154e-06
2.7858e-07
9.43154e-07
-2.7199e-07
-9.42408e-07
2.6265e-07
-0.000275671
1.31891e-06
1.28403e-06
-2.68571e-07
-2.7401e-07
0.000273611
5.64327e-09
6.07017e-09
-0.0011644
-5.85323e-09
-5.86052e-09
0.0011644
-0.00114475
-1.28959e-06
-6.20141e-09
1.14877e-08
0.00114475
-2.82914e-07
1.29709e-06
2.78604e-07
9.43374e-07
-2.69288e-07
-9.42487e-07
2.59977e-07
-0.00114439
-1.28392e-06
-6.20028e-09
1.14929e-08
0.00114439
-2.82887e-07
1.29149e-06
2.78617e-07
9.43164e-07
-2.71973e-07
-9.42387e-07
2.62663e-07
-0.000275671
1.31898e-06
1.2841e-06
-2.68598e-07
-2.74032e-07
0.000273611
5.63117e-09
6.12698e-09
-0.0011644
-5.89176e-09
-5.83928e-09
0.0011644
-0.00114475
-1.28961e-06
-6.19215e-09
1.14904e-08
0.00114475
-2.82915e-07
1.29704e-06
2.78616e-07
9.43401e-07
-2.69286e-07
-9.42465e-07
2.59982e-07
-0.00114439
-1.28398e-06
-6.23482e-09
1.14528e-08
0.00114439
-2.82859e-07
1.29143e-06
2.78659e-07
9.43204e-07
-2.71953e-07
-9.42344e-07
2.62684e-07
-0.000275671
1.31903e-06
1.28418e-06
-2.68636e-07
-2.74037e-07
0.000273611
5.64171e-09
6.16079e-09
-0.0011644
-5.91478e-09
-5.83353e-09
0.0011644
-0.00114475
-1.28958e-06
-6.18457e-09
1.14509e-08
0.00114475
-2.8292e-07
1.29702e-06
2.7862e-07
9.43412e-07
-2.69294e-07
-9.42469e-07
2.59982e-07
-0.00114439
-1.28398e-06
-6.24672e-09
1.14244e-08
0.00114438
-2.82865e-07
1.29138e-06
2.78666e-07
9.43233e-07
-2.71947e-07
-9.42329e-07
2.627e-07
-0.000275671
1.31902e-06
1.28419e-06
-2.68649e-07
-2.74034e-07
0.000273611
5.68877e-09
6.18086e-09
-0.0011644
-5.91924e-09
-5.86361e-09
0.0011644
-0.00114475
-1.2895e-06
-6.20605e-09
1.14414e-08
0.00114475
-2.82938e-07
1.29707e-06
2.78595e-07
9.43398e-07
-2.69297e-07
-9.42494e-07
2.59987e-07
-0.00114438
-1.2839e-06
-6.26218e-09
1.14568e-08
0.00114438
-2.82905e-07
1.29142e-06
2.78622e-07
9.43214e-07
-2.71953e-07
-9.4236e-07
2.62703e-07
-0.000275671
1.31898e-06
1.28414e-06
-2.68625e-07
-2.74025e-07
0.000273611
5.72501e-09
6.19364e-09
-0.0011644
-5.92736e-09
-5.89219e-09
0.0011644
-0.00114475
-1.28943e-06
-6.26773e-09
1.14683e-08
0.00114475
-2.82963e-07
1.29716e-06
2.78555e-07
9.43379e-07
-2.69312e-07
-9.42505e-07
2.59971e-07
-0.00114438
-1.28385e-06
-6.32946e-09
1.14988e-08
0.00114438
-2.82928e-07
1.29149e-06
2.78584e-07
9.43201e-07
-2.71966e-07
-9.42365e-07
2.6269e-07
-0.000275671
1.31894e-06
1.28409e-06
-2.68608e-07
-2.74016e-07
0.000273611
5.67409e-09
6.17082e-09
-0.0011644
-5.9139e-09
-5.86245e-09
0.0011644
-0.00114475
-1.28948e-06
-6.26383e-09
1.14904e-08
0.00114475
-2.82947e-07
1.29717e-06
2.78565e-07
9.43377e-07
-2.69313e-07
-9.42502e-07
2.5996e-07
-0.00114438
-1.28389e-06
-6.4063e-09
1.15315e-08
0.00114438
-2.82921e-07
1.2915e-06
2.78583e-07
9.43239e-07
-2.7194e-07
-9.42316e-07
2.62702e-07
-0.000275671
1.31895e-06
1.28412e-06
-2.68624e-07
-2.74007e-07
0.000273611
5.63446e-09
6.13919e-09
-0.0011644
-5.88693e-09
-5.83095e-09
0.0011644
-0.00114475
-1.28957e-06
-6.19335e-09
1.1495e-08
0.00114475
-2.82925e-07
1.29709e-06
2.78605e-07
9.43394e-07
-2.69297e-07
-9.42493e-07
2.59979e-07
-0.00114438
-1.28396e-06
-6.29027e-09
1.15001e-08
0.00114438
-2.82892e-07
1.29144e-06
2.78632e-07
9.43217e-07
-2.71953e-07
-9.4235e-07
2.62698e-07
-0.000275671
1.319e-06
1.28416e-06
-2.68643e-07
-2.74031e-07
0.000273611
5.65075e-09
6.14665e-09
-0.0011644
-5.89028e-09
-5.8373e-09
0.0011644
-0.00114475
-1.28957e-06
-6.19352e-09
1.14894e-08
0.00114475
-2.82942e-07
1.29706e-06
2.78605e-07
9.43402e-07
-2.69302e-07
-9.42496e-07
2.5999e-07
-0.00114438
-1.28398e-06
-6.26122e-09
1.14747e-08
0.00114438
-2.82895e-07
1.29141e-06
2.78645e-07
9.43227e-07
-2.71956e-07
-9.4235e-07
2.62709e-07
-0.000275671
1.31897e-06
1.28413e-06
-2.6863e-07
-2.74031e-07
0.000273611
5.57075e-09
6.05831e-09
-0.0011644
-5.84244e-09
-5.79547e-09
0.0011644
-0.00114475
-1.28957e-06
-6.11609e-09
1.15213e-08
0.00114475
-2.82978e-07
1.29705e-06
2.78577e-07
9.43391e-07
-2.6935e-07
-9.42517e-07
2.59952e-07
-0.00114438
-1.28399e-06
-6.16949e-09
1.15264e-08
0.00114438
-2.82936e-07
1.29138e-06
2.78615e-07
9.43212e-07
-2.72007e-07
-9.42375e-07
2.62668e-07
-0.000275671
1.31895e-06
1.2841e-06
-2.68646e-07
-2.74049e-07
0.000273611
5.40586e-09
5.88654e-09
-0.0011644
-5.74465e-09
-5.70315e-09
0.0011644
-0.00114475
-1.28961e-06
-5.95848e-09
1.15567e-08
0.00114475
-2.83029e-07
1.297e-06
2.78531e-07
9.43358e-07
-2.69398e-07
-9.42568e-07
2.59909e-07
-0.00114438
-1.28403e-06
-6.00686e-09
1.15761e-08
0.00114438
-2.8299e-07
1.29133e-06
2.78564e-07
9.43175e-07
-2.72059e-07
-9.42432e-07
2.62623e-07
-0.000275671
1.31905e-06
1.2842e-06
-2.68699e-07
-2.74104e-07
0.000273611
-1.33176e-06
-1.29418e-06
0.000275688
-0.000273617
2.73249e-07
2.81298e-07
0.00114391
-5.01335e-09
-0.00114391
1.22926e-08
-1.32474e-06
2.83811e-07
-2.88724e-07
-9.42771e-07
2.59578e-07
-2.69601e-07
9.43014e-07
1.33746e-06
0.00114437
-4.89429e-09
-0.00114437
1.22921e-08
-1.33039e-06
2.86635e-07
-2.91517e-07
-9.48515e-07
2.62334e-07
-2.72492e-07
9.48688e-07
-1.29697e-06
0.00027572
-0.00027364
2.7618e-07
2.78471e-07
0.00114503
-5.54468e-09
-0.00114503
1.16453e-08
-1.28707e-06
2.81321e-07
-2.85854e-07
-9.45426e-07
2.62564e-07
-2.723e-07
9.46083e-07
1.3318e-06
0.00114402
-4.939e-09
-0.00114402
1.23408e-08
-1.32483e-06
2.86594e-07
-2.91531e-07
-9.4559e-07
2.62359e-07
-2.72371e-07
9.45747e-07
-5.56922e-09
-0.00114475
1.17442e-08
-1.28976e-06
2.78485e-07
-2.83064e-07
-9.42713e-07
2.59791e-07
9.43207e-07
-2.6951e-07
1.32618e-06
0.00114381
-4.94596e-09
-0.00114381
1.2344e-08
-1.3192e-06
2.8102e-07
-2.85872e-07
-9.42837e-07
2.59547e-07
-2.69615e-07
9.42977e-07
-1.29132e-06
0.000275666
-0.000273597
2.73531e-07
2.81009e-07
-5.58548e-09
-0.00114438
1.16984e-08
-1.28415e-06
2.78517e-07
-2.83025e-07
-9.42528e-07
2.62483e-07
9.43075e-07
-2.7219e-07
1.2914e-06
0.00114492
-5.53372e-09
-0.00114492
1.17573e-08
-1.28432e-06
2.78513e-07
-2.83081e-07
-9.42771e-07
2.62558e-07
-2.7227e-07
9.43345e-07
-0.000273611
2.75811e-07
2.81292e-07
1.32459e-06
1.28693e-06
-2.66157e-07
-2.741e-07
0.000273617
-1.33174e-06
-1.29415e-06
0.000275689
-0.000273617
2.73277e-07
2.81344e-07
1.22918e-08
0.00114391
-2.88762e-07
1.33188e-06
2.83764e-07
9.42955e-07
-2.69645e-07
-9.42828e-07
2.59546e-07
-1.33025e-06
-4.908e-09
1.22885e-08
0.00114437
-2.91556e-07
1.33757e-06
2.86588e-07
9.48647e-07
-2.72535e-07
-9.48555e-07
2.62304e-07
0.00114392
-5.13094e-09
-0.00114392
1.21642e-08
-1.32472e-06
2.83885e-07
-2.88669e-07
-9.42711e-07
2.59661e-07
-2.69531e-07
9.43088e-07
1.33744e-06
0.00114437
-5.03832e-09
-0.00114437
1.21451e-08
-1.33037e-06
2.86713e-07
-2.91465e-07
-9.48458e-07
2.62425e-07
-2.72416e-07
9.48761e-07
-2.68947e-07
-2.71284e-07
0.00027364
-1.29696e-06
0.00027572
-0.00027364
2.7623e-07
2.78513e-07
1.16449e-08
0.00114503
-2.85896e-07
1.2943e-06
2.81272e-07
9.46041e-07
-2.72349e-07
-9.45469e-07
2.62533e-07
-1.32469e-06
-4.95123e-09
1.23369e-08
0.00114402
-2.91578e-07
1.33192e-06
2.86543e-07
9.45703e-07
-2.72407e-07
-9.45632e-07
2.62335e-07
0.00114503
-5.65994e-09
-0.00114503
1.15041e-08
-1.28706e-06
2.814e-07
-2.85796e-07
-9.45373e-07
2.62653e-07
-2.72227e-07
9.4615e-07
1.33177e-06
0.00114403
-5.03876e-09
-0.00114402
1.22394e-08
-1.32482e-06
2.86669e-07
-2.91479e-07
-9.45534e-07
2.62439e-07
-2.72297e-07
9.45816e-07
-4.95135e-09
1.23478e-08
0.00114381
-2.85915e-07
1.32629e-06
2.80973e-07
9.42937e-07
-2.69656e-07
2.59522e-07
-9.42878e-07
-5.66306e-09
-0.00114475
1.15966e-08
-1.28973e-06
2.78562e-07
-2.83013e-07
-9.42663e-07
2.59881e-07
9.43269e-07
-2.69435e-07
1.32615e-06
0.00114381
-5.07234e-09
-0.00114381
1.21914e-08
-1.31919e-06
2.81102e-07
-2.8581e-07
-9.42778e-07
2.59635e-07
-2.69542e-07
9.43049e-07
-2.66335e-07
-2.73915e-07
0.000273598
-1.29128e-06
0.000275666
-0.000273598
2.73543e-07
2.81057e-07
-5.53883e-09
1.17553e-08
0.00114492
-2.83125e-07
1.2915e-06
2.78464e-07
9.43307e-07
-2.72312e-07
2.62532e-07
-9.42806e-07
-5.68631e-09
-0.00114439
1.15706e-08
-1.28415e-06
2.78606e-07
-2.82963e-07
-9.42474e-07
2.62571e-07
9.43139e-07
-2.72117e-07
1.29138e-06
0.00114492
-5.64728e-09
-0.00114492
1.16223e-08
-1.28431e-06
2.78592e-07
-2.83021e-07
-9.42719e-07
2.62644e-07
-2.72197e-07
9.4341e-07
-0.000273611
2.75861e-07
2.8132e-07
1.3246e-06
1.28695e-06
-2.66108e-07
-2.74035e-07
0.000273617
-1.33179e-06
-1.29421e-06
0.000275689
-0.000273618
2.73332e-07
2.81373e-07
1.2103e-08
0.00114392
-2.8866e-07
1.33189e-06
2.83865e-07
9.43067e-07
-2.69529e-07
-9.42711e-07
2.59653e-07
-1.33026e-06
-5.17415e-09
1.21194e-08
0.00114437
-2.91451e-07
1.33758e-06
2.86696e-07
9.48757e-07
-2.72413e-07
-9.48443e-07
2.62416e-07
0.00114392
-5.56242e-09
-0.00114392
1.20155e-08
-1.32459e-06
2.83917e-07
-2.88644e-07
-9.42636e-07
2.59738e-07
-2.6945e-07
9.43163e-07
1.33748e-06
0.00114437
-5.40185e-09
-0.00114437
1.20354e-08
-1.33026e-06
2.8674e-07
-2.91438e-07
-9.48382e-07
2.62489e-07
-2.72346e-07
9.48827e-07
-2.68883e-07
-2.71222e-07
0.00027364
-1.297e-06
0.00027572
-0.00027364
2.76259e-07
2.78551e-07
1.14589e-08
0.00114503
-2.85792e-07
1.2943e-06
2.81377e-07
9.46144e-07
-2.72226e-07
-9.4536e-07
2.62641e-07
-1.32471e-06
-5.19652e-09
1.2203e-08
0.00114403
-2.9147e-07
1.33192e-06
2.86652e-07
9.45809e-07
-2.72297e-07
-9.45522e-07
2.6243e-07
0.00114503
-6.07845e-09
-0.00114503
1.13786e-08
-1.28693e-06
2.81425e-07
-2.85777e-07
-9.45294e-07
2.62722e-07
-2.72154e-07
9.46218e-07
1.33183e-06
0.00114403
-5.4591e-09
-0.00114403
1.20874e-08
-1.32469e-06
2.86705e-07
-2.91447e-07
-9.45451e-07
2.62514e-07
-2.72218e-07
9.45892e-07
-5.21139e-09
1.21592e-08
0.00114381
-2.85812e-07
1.32631e-06
2.81075e-07
9.4304e-07
-2.69541e-07
2.59624e-07
-9.4277e-07
-6.09135e-09
-0.00114475
1.15035e-08
-1.28962e-06
2.78588e-07
-2.82989e-07
-9.42573e-07
2.59956e-07
9.43346e-07
-2.69358e-07
1.32619e-06
0.00114381
-5.48232e-09
-0.00114381
1.20808e-08
-1.31907e-06
2.81139e-07
-2.85781e-07
-9.42705e-07
2.59703e-07
-2.69472e-07
9.43118e-07
-2.66311e-07
-2.73844e-07
0.000273598
-1.29136e-06
0.000275667
-0.000273598
2.73611e-07
2.81089e-07
-5.8053e-09
1.15751e-08
0.00114493
-2.83023e-07
1.29152e-06
2.78565e-07
9.43407e-07
-2.72196e-07
2.62637e-07
-9.42703e-07
-6.07159e-09
-0.00114439
1.14334e-08
-1.28401e-06
2.78643e-07
-2.8293e-07
-9.42403e-07
2.62626e-07
9.43198e-07
-2.72058e-07
1.29141e-06
0.00114493
-6.01695e-09
-0.00114493
1.14822e-08
-1.2842e-06
2.78632e-07
-2.82992e-07
-9.42645e-07
2.62713e-07
-2.72127e-07
9.43473e-07
-0.000273611
2.75889e-07
2.81364e-07
1.32462e-06
1.28696e-06
-2.66085e-07
-2.7403e-07
0.000273618
-1.33189e-06
-1.29432e-06
0.00027569
-0.000273618
2.7339e-07
2.81427e-07
1.19742e-08
0.00114392
-2.88596e-07
1.33185e-06
2.83948e-07
9.43172e-07
-2.69439e-07
-9.42611e-07
2.59732e-07
-1.33027e-06
-5.51089e-09
1.1983e-08
0.00114437
-2.91387e-07
1.33755e-06
2.86774e-07
9.48845e-07
-2.72329e-07
-9.48356e-07
2.6249e-07
0.00114392
-5.75461e-09
-0.00114392
1.19738e-08
-1.32447e-06
2.8391e-07
-2.88637e-07
-9.42625e-07
2.59745e-07
-2.6944e-07
9.43165e-07
1.33759e-06
0.00114437
-5.64377e-09
-0.00114437
1.19646e-08
-1.33012e-06
2.86742e-07
-2.91421e-07
-9.48363e-07
2.62499e-07
-2.72335e-07
9.48839e-07
-2.6887e-07
-2.71205e-07
0.00027364
-1.29711e-06
0.000275721
-0.000273641
2.76319e-07
2.78605e-07
1.13268e-08
0.00114503
-2.85728e-07
1.29427e-06
2.81457e-07
9.46237e-07
-2.72134e-07
-9.4527e-07
2.62723e-07
-1.32472e-06
-5.51031e-09
1.20615e-08
0.00114403
-2.91401e-07
1.33189e-06
2.86735e-07
9.45894e-07
-2.72214e-07
-9.45434e-07
2.62498e-07
0.00114503
-6.24033e-09
-0.00114503
1.13303e-08
-1.2868e-06
2.8142e-07
-2.85768e-07
-9.45286e-07
2.62714e-07
-2.72156e-07
9.46215e-07
1.33192e-06
0.00114403
-5.58686e-09
-0.00114403
1.20572e-08
-1.32457e-06
2.86693e-07
-2.91444e-07
-9.4547e-07
2.62505e-07
-2.72232e-07
9.4587e-07
-5.60355e-09
1.20348e-08
0.00114382
-2.85739e-07
1.32627e-06
2.81161e-07
9.4314e-07
-2.6945e-07
2.59709e-07
-9.42675e-07
-6.2495e-09
-0.00114476
1.14181e-08
-1.28949e-06
2.78588e-07
-2.82972e-07
-9.42566e-07
2.5995e-07
9.43345e-07
-2.69366e-07
1.32629e-06
0.00114382
-5.65245e-09
-0.00114382
1.20059e-08
-1.31895e-06
2.81136e-07
-2.85771e-07
-9.42679e-07
2.59717e-07
-2.69456e-07
9.43134e-07
-2.66267e-07
-2.73838e-07
0.000273598
-1.29143e-06
0.000275667
-0.000273599
2.73639e-07
2.81139e-07
-6.12829e-09
1.1431e-08
0.00114493
-2.82948e-07
1.2915e-06
2.78656e-07
9.43491e-07
-2.72112e-07
2.62711e-07
-9.42623e-07
-6.32111e-09
-0.00114439
1.13917e-08
-1.2839e-06
2.78614e-07
-2.82943e-07
-9.42368e-07
2.62652e-07
9.43235e-07
-2.72039e-07
1.29151e-06
0.00114493
-6.24514e-09
-0.00114493
1.14229e-08
-1.28407e-06
2.78631e-07
-2.8298e-07
-9.42617e-07
2.62729e-07
-2.72112e-07
9.43494e-07
-0.000273612
2.75943e-07
2.81418e-07
1.32459e-06
1.28693e-06
-2.66061e-07
-2.74015e-07
0.000273618
-1.33195e-06
-1.29436e-06
0.00027569
-0.000273618
2.73392e-07
2.81443e-07
1.1988e-08
0.00114392
-2.88596e-07
1.33181e-06
2.83953e-07
9.43186e-07
-2.69416e-07
-9.42605e-07
2.59757e-07
-1.33024e-06
-5.60901e-09
1.1975e-08
0.00114437
-2.91378e-07
1.33751e-06
2.86788e-07
9.48859e-07
-2.72305e-07
-9.48346e-07
2.62516e-07
0.00114392
-5.71221e-09
-0.00114392
1.20072e-08
-1.32443e-06
2.8387e-07
-2.88655e-07
-9.42624e-07
2.59727e-07
-2.69451e-07
9.43156e-07
1.33764e-06
0.00114437
-5.57557e-09
-0.00114437
1.19877e-08
-1.33009e-06
2.86703e-07
-2.9144e-07
-9.48364e-07
2.62482e-07
-2.72346e-07
9.48832e-07
-2.68847e-07
-2.71191e-07
0.000273641
-1.29715e-06
0.000275721
-0.000273641
2.76325e-07
2.78617e-07
1.13467e-08
0.00114503
-2.85728e-07
1.29423e-06
2.81463e-07
9.46236e-07
-2.72122e-07
-9.45272e-07
2.62735e-07
-1.3247e-06
-5.61653e-09
1.2049e-08
0.00114403
-2.91404e-07
1.33185e-06
2.86736e-07
9.45915e-07
-2.72187e-07
-9.45433e-07
2.62538e-07
0.00114503
-6.25146e-09
-0.00114503
1.13927e-08
-1.28678e-06
2.8137e-07
-2.85798e-07
-9.45264e-07
2.6271e-07
-2.72146e-07
9.46228e-07
1.33199e-06
0.00114403
-5.62681e-09
-0.00114403
1.20446e-08
-1.32453e-06
2.86667e-07
-2.91454e-07
-9.45432e-07
2.62496e-07
-2.72226e-07
9.45893e-07
-5.61441e-09
1.202e-08
0.00114382
-2.85732e-07
1.32622e-06
2.81174e-07
9.4315e-07
-2.69427e-07
2.5973e-07
-9.42664e-07
-6.32324e-09
-0.00114476
1.14654e-08
-1.28946e-06
2.78543e-07
-2.83001e-07
-9.42526e-07
2.59948e-07
9.43374e-07
-2.69353e-07
1.32635e-06
0.00114382
-5.66811e-09
-0.00114382
1.20287e-08
-1.31891e-06
2.81097e-07
-2.85793e-07
-9.42673e-07
2.59709e-07
-2.69457e-07
9.43136e-07
-2.66271e-07
-2.73823e-07
0.000273599
-1.29149e-06
0.000275668
-0.000273599
2.73663e-07
2.8117e-07
-6.21274e-09
1.14506e-08
0.00114493
-2.8294e-07
1.29144e-06
2.7867e-07
9.43508e-07
-2.72083e-07
2.62741e-07
-9.42607e-07
-6.3187e-09
-0.00114439
1.14061e-08
-1.28386e-06
2.7859e-07
-2.8295e-07
-9.42354e-07
2.62632e-07
9.43236e-07
-2.72044e-07
1.29157e-06
0.00114493
-6.2311e-09
-0.00114493
1.14562e-08
-1.28403e-06
2.78588e-07
-2.83004e-07
-9.42613e-07
2.62719e-07
-2.72118e-07
9.43496e-07
-0.000273612
2.75961e-07
2.81439e-07
1.32455e-06
1.28689e-06
-2.66055e-07
-2.74e-07
0.000273619
-1.33199e-06
-1.29441e-06
0.00027569
-0.000273618
2.73429e-07
2.81476e-07
1.19933e-08
0.00114392
-2.88623e-07
1.33182e-06
2.83922e-07
9.43186e-07
-2.69415e-07
-9.42604e-07
2.59759e-07
-1.33021e-06
-5.56694e-09
1.19864e-08
0.00114437
-2.91408e-07
1.33752e-06
2.86755e-07
9.48862e-07
-2.72301e-07
-9.48342e-07
2.62522e-07
0.00114392
-5.69054e-09
-0.00114392
1.20828e-08
-1.32442e-06
2.83868e-07
-2.88634e-07
-9.42601e-07
2.59731e-07
-2.69434e-07
9.43161e-07
1.33769e-06
0.00114437
-5.59594e-09
-0.00114437
1.2014e-08
-1.33007e-06
2.86706e-07
-2.91415e-07
-9.48341e-07
2.62476e-07
-2.7234e-07
9.48839e-07
-2.68839e-07
-2.7118e-07
0.000273641
-1.29721e-06
0.000275721
-0.000273641
2.76374e-07
2.78645e-07
1.13593e-08
0.00114503
-2.8576e-07
1.29424e-06
2.8143e-07
9.46247e-07
-2.72111e-07
-9.45254e-07
2.62741e-07
-1.32464e-06
-5.56031e-09
1.20499e-08
0.00114403
-2.91419e-07
1.33187e-06
2.86719e-07
9.45904e-07
-2.72201e-07
-9.4543e-07
2.6252e-07
0.00114503
-6.16402e-09
-0.00114503
1.1435e-08
-1.28676e-06
2.81379e-07
-2.85766e-07
-9.45264e-07
2.62689e-07
-2.72159e-07
9.46218e-07
1.33204e-06
0.00114403
-5.5859e-09
-0.00114403
1.2093e-08
-1.32451e-06
2.86667e-07
-2.91431e-07
-9.45435e-07
2.62495e-07
-2.72221e-07
9.45886e-07
-5.65418e-09
1.20286e-08
0.00114382
-2.85753e-07
1.32623e-06
2.81157e-07
9.43165e-07
-2.69415e-07
2.59745e-07
-9.4265e-07
-6.22943e-09
-0.00114476
1.14621e-08
-1.28943e-06
2.78554e-07
-2.82968e-07
-9.42539e-07
2.59935e-07
9.43358e-07
-2.69356e-07
1.32639e-06
0.00114382
-5.54687e-09
-0.00114382
1.21675e-08
-1.3189e-06
2.81071e-07
-2.85788e-07
-9.42665e-07
2.59679e-07
-2.69471e-07
9.43126e-07
-2.66248e-07
-2.73795e-07
0.000273599
-1.29155e-06
0.000275668
-0.000273599
2.73699e-07
2.812e-07
-6.2036e-09
1.14421e-08
0.00114493
-2.82965e-07
1.29145e-06
2.78647e-07
9.43525e-07
-2.72069e-07
2.62761e-07
-9.42592e-07
-6.24626e-09
-0.00114439
1.14438e-08
-1.28384e-06
2.78597e-07
-2.82923e-07
-9.42358e-07
2.62632e-07
9.43225e-07
-2.72029e-07
1.29161e-06
0.00114493
-6.135e-09
-0.00114493
1.15896e-08
-1.28403e-06
2.78562e-07
-2.83001e-07
-9.426e-07
2.6269e-07
-2.72129e-07
9.43491e-07
-0.000273612
2.75979e-07
2.81459e-07
1.32448e-06
1.28682e-06
-2.66013e-07
-2.73963e-07
0.000273619
-1.33199e-06
-1.29442e-06
0.00027569
-0.000273618
2.73455e-07
2.81491e-07
1.21236e-08
0.00114392
-2.88642e-07
1.33187e-06
2.8388e-07
9.43171e-07
-2.69404e-07
-9.42608e-07
2.59765e-07
-1.33014e-06
-5.56256e-09
1.20271e-08
0.00114437
-2.91411e-07
1.33756e-06
2.86733e-07
9.48849e-07
-2.72297e-07
-9.48345e-07
2.62531e-07
0.00114392
-5.76966e-09
-0.00114392
1.20499e-08
-1.32446e-06
2.83892e-07
-2.88607e-07
-9.42537e-07
2.59756e-07
-2.694e-07
9.43217e-07
1.33772e-06
0.00114437
-5.77927e-09
-0.00114437
1.19135e-08
-1.33008e-06
2.86765e-07
-2.91347e-07
-9.48248e-07
2.62559e-07
-2.72237e-07
9.48934e-07
-2.6878e-07
-2.71144e-07
0.000273641
-1.29726e-06
0.000275721
-0.000273641
2.76446e-07
2.78685e-07
1.14711e-08
0.00114503
-2.85774e-07
1.29429e-06
2.81392e-07
9.46216e-07
-2.72127e-07
-9.45277e-07
2.62729e-07
-1.32457e-06
-5.58087e-09
1.21138e-08
0.00114403
-2.91433e-07
1.33191e-06
2.86685e-07
9.45906e-07
-2.72184e-07
-9.45425e-07
2.62539e-07
0.00114503
-6.25917e-09
-0.00114503
1.13698e-08
-1.28679e-06
2.81409e-07
-2.85734e-07
-9.45207e-07
2.62716e-07
-2.72115e-07
9.46279e-07
1.33203e-06
0.00114403
-5.66423e-09
-0.00114403
1.21311e-08
-1.32456e-06
2.86675e-07
-2.91415e-07
-9.45358e-07
2.62526e-07
-2.72173e-07
9.45957e-07
-5.50962e-09
1.22054e-08
0.00114382
-2.85798e-07
1.32626e-06
2.81086e-07
9.43128e-07
-2.69439e-07
2.59723e-07
-9.42674e-07
-6.3431e-09
-0.00114476
1.13578e-08
-1.28943e-06
2.78622e-07
-2.82893e-07
-9.42474e-07
2.59962e-07
9.43417e-07
-2.69312e-07
1.3264e-06
0.00114382
-5.69586e-09
-0.00114382
1.20896e-08
-1.31894e-06
2.81115e-07
-2.85745e-07
-9.4261e-07
2.59714e-07
-2.69422e-07
9.43181e-07
-2.66201e-07
-2.73758e-07
0.000273599
-1.29156e-06
0.000275667
-0.000273599
2.7372e-07
2.8121e-07
-6.05643e-09
1.16125e-08
0.00114493
-2.83008e-07
1.29148e-06
2.78581e-07
9.43485e-07
-2.72099e-07
2.62732e-07
-9.42618e-07
-6.23013e-09
-0.00114439
1.14423e-08
-1.28386e-06
2.78622e-07
-2.82885e-07
-9.4232e-07
2.62628e-07
9.43254e-07
-2.72024e-07
1.29164e-06
0.00114493
-6.21017e-09
-0.00114493
1.14462e-08
-1.28405e-06
2.7862e-07
-2.82943e-07
-9.42564e-07
2.62706e-07
-2.72095e-07
9.43529e-07
-0.000273612
2.76017e-07
2.81478e-07
1.3244e-06
1.28673e-06
-2.65953e-07
-2.73912e-07
0.000273618
-1.33192e-06
-1.29435e-06
0.000275689
-0.000273618
2.73429e-07
2.81457e-07
1.20025e-08
0.00114392
-2.88617e-07
1.33197e-06
2.83893e-07
9.4319e-07
-2.69382e-07
-9.42569e-07
2.59787e-07
-1.33004e-06
-5.7337e-09
1.19265e-08
0.00114437
-2.91373e-07
1.33767e-06
2.86741e-07
9.4891e-07
-2.72243e-07
-9.48262e-07
2.6256e-07
0.00114392
-5.72992e-09
-0.00114392
1.20718e-08
-1.32453e-06
2.83905e-07
-2.88586e-07
-9.42523e-07
2.59765e-07
-2.69367e-07
9.43237e-07
1.33761e-06
0.00114437
-5.52277e-09
-0.00114437
1.21011e-08
-1.3302e-06
2.86727e-07
-2.91386e-07
-9.4829e-07
2.62517e-07
-2.72266e-07
9.48892e-07
-2.68687e-07
-2.71081e-07
0.000273641
-1.29713e-06
0.000275721
-0.000273641
2.76344e-07
2.78634e-07
1.13126e-08
0.00114503
-2.85743e-07
1.2944e-06
2.81412e-07
9.46258e-07
-2.72113e-07
-9.45223e-07
2.62737e-07
-1.32451e-06
-5.59006e-09
1.21516e-08
0.00114403
-2.91436e-07
1.33199e-06
2.86666e-07
9.45925e-07
-2.72175e-07
-9.45385e-07
2.6254e-07
0.00114503
-6.1536e-09
-0.00114503
1.14296e-08
-1.28686e-06
2.81418e-07
-2.85714e-07
-9.45214e-07
2.62732e-07
-2.7208e-07
9.46269e-07
1.33196e-06
0.00114403
-5.51717e-09
-0.00114403
1.21733e-08
-1.32463e-06
2.8669e-07
-2.91394e-07
-9.45379e-07
2.62509e-07
-2.72169e-07
9.45933e-07
-5.69719e-09
1.20527e-08
0.00114382
-2.85763e-07
1.3264e-06
2.81105e-07
9.43158e-07
-2.69419e-07
2.59736e-07
-9.42631e-07
-6.21288e-09
-0.00114476
1.15767e-08
-1.28957e-06
2.78572e-07
-2.82937e-07
-9.4248e-07
2.5996e-07
9.43417e-07
-2.69298e-07
1.3263e-06
0.00114382
-5.6197e-09
-0.00114382
1.21129e-08
-1.31903e-06
2.81139e-07
-2.85719e-07
-9.4259e-07
2.59742e-07
-2.69374e-07
9.43201e-07
-2.66163e-07
-2.73719e-07
0.000273599
-1.29146e-06
0.000275667
-0.000273599
2.73668e-07
2.81181e-07
-6.20046e-09
1.1404e-08
0.00114493
-2.82959e-07
1.29163e-06
2.78611e-07
9.43503e-07
-2.72096e-07
2.62727e-07
-9.42587e-07
-6.20581e-09
-0.00114439
1.15599e-08
-1.28398e-06
2.78609e-07
-2.82896e-07
-9.42296e-07
2.62648e-07
9.43279e-07
-2.71982e-07
1.29152e-06
0.00114493
-6.1705e-09
-0.00114493
1.14953e-08
-1.28416e-06
2.78636e-07
-2.82924e-07
-9.42539e-07
2.62747e-07
-2.72039e-07
9.43558e-07
-0.000273612
2.75971e-07
2.81444e-07
1.32444e-06
1.28678e-06
-2.65971e-07
-2.73934e-07
0.000273618
-1.3319e-06
-1.2943e-06
0.000275689
-0.000273618
2.73394e-07
2.81456e-07
1.21127e-08
0.00114392
-2.88637e-07
1.33196e-06
2.83854e-07
9.43199e-07
-2.69407e-07
-9.42554e-07
2.59742e-07
-1.3301e-06
-5.55501e-09
1.20757e-08
0.00114437
-2.91423e-07
1.33767e-06
2.86687e-07
9.48885e-07
-2.72298e-07
-9.48293e-07
2.62496e-07
0.00114392
-5.6379e-09
-0.00114392
1.20801e-08
-1.32456e-06
2.83922e-07
-2.88581e-07
-9.42553e-07
2.59772e-07
-2.69365e-07
9.43207e-07
1.33759e-06
0.00114437
-5.49918e-09
-0.00114437
1.20268e-08
-1.33021e-06
2.86769e-07
-2.91351e-07
-9.48307e-07
2.62533e-07
-2.72256e-07
9.48871e-07
-2.68768e-07
-2.71108e-07
0.000273641
-1.2971e-06
0.00027572
-0.000273641
2.76345e-07
2.78631e-07
1.14674e-08
0.00114503
-2.85767e-07
1.29438e-06
2.81364e-07
9.4626e-07
-2.72123e-07
-9.45222e-07
2.627e-07
-1.32453e-06
-5.53133e-09