/*--------------------------------*- C++ -*----------------------------------*\
| =========                 |                                                 |
| \\      /  F ield         | OpenFOAM: The Open Source CFD Toolbox           |
|  \\    /   O peration     | Version:  v1906                                 |
|   \\  /    A nd           | Web:      www.OpenFOAM.com                      |
|    \\/     M anipulation  |                                                 |
\*---------------------------------------------------------------------------*/
FoamFile
{
    version     2.0;
    format      ascii;
    class       volVectorField;
    location    "125";
    object      U;
}
// * * * * * * * * * * * * * * * * * * * * * * * * * * * * * * * * * * * * * //

dimensions      [0 1 -1 0 0 0 0];


internalField   nonuniform List<vector> 
43248
(
(-7.28885e-05 -7.30116e-05 0.106513)
(2.94667e-06 1.5128e-06 0.10868)
(-3.03463e-06 1.56799e-06 0.10868)
(7.29532e-05 -7.29207e-05 0.106514)
(1.56214e-06 3.03076e-06 0.108682)
(1.60238e-06 -3.00906e-06 0.10868)
(-1.46065e-06 2.94854e-06 0.108682)
(-1.55081e-06 -3.01012e-06 0.10868)
(-7.29108e-05 7.2949e-05 0.106513)
(2.93442e-06 -1.51859e-06 0.108681)
(-2.9314e-06 -1.46445e-06 0.108681)
(7.29022e-05 7.29207e-05 0.106512)
(-2.41357e-06 -2.33175e-06 0.110619)
(2.39992e-06 -2.3785e-06 0.110619)
(-2.41225e-06 2.36709e-06 0.110618)
(2.40355e-06 2.37751e-06 0.110618)
(-2.78265e-06 -4.02283e-06 0.0715062)
(-3.97583e-06 -2.79314e-06 0.0715059)
(-5.12384e-06 -4.15879e-06 0.0882728)
(-4.21667e-06 -5.17352e-06 0.088274)
(-1.23462e-07 9.36709e-06 0.0926372)
(-2.19705e-06 -8.60732e-06 0.0825928)
(-1.35361e-07 -1.06326e-05 0.092699)
(1.11252e-07 9.37601e-06 0.0926373)
(2.19101e-06 -8.57285e-06 0.0825928)
(-2.35773e-07 9.58422e-06 0.0825276)
(1.35663e-07 -1.06277e-05 0.0926989)
(1.45066e-08 1.8889e-05 0.100821)
(-5.60175e-06 -1.31832e-05 0.0943412)
(-6.18554e-07 2.10705e-06 0.109933)
(-6.29952e-07 2.09741e-06 0.109933)
(-7.31913e-08 -1.91275e-05 0.100926)
(-1.11995e-08 1.88974e-05 0.100821)
(-3.01423e-06 1.55728e-06 0.10868)
(5.58647e-06 -1.32497e-05 0.0943414)
(6.49938e-07 2.1183e-06 0.109933)
(-4.39328e-06 1.58566e-05 0.0942408)
(6.47266e-07 2.10005e-06 0.109933)
(8.49472e-08 -1.91292e-05 0.100926)
(2.79048e-06 -4.01081e-06 0.0715058)
(-2.59584e-06 4.33645e-06 0.0714438)
(-6.70709e-05 6.70238e-05 0.106314)
(5.10855e-06 -4.16323e-06 0.0882731)
(4.12805e-06 -5.10294e-06 0.0882756)
(-5.50997e-06 5.71183e-06 0.088209)
(-5.66241e-06 5.45232e-06 0.08821)
(3.90917e-06 -2.74963e-06 0.0715073)
(-4.24778e-06 2.52049e-06 0.0714415)
(-8.53566e-06 -2.16598e-06 0.0825933)
(-1.06469e-05 -1.14704e-07 0.092698)
(-1.33434e-05 -5.59871e-06 0.0943425)
(2.12128e-06 -6.98644e-07 0.109932)
(-1.91239e-05 -7.62598e-08 0.100925)
(-8.53274e-06 2.16013e-06 0.0825935)
(-1.06435e-05 1.38544e-07 0.0926978)
(2.15326e-06 6.12794e-07 0.109932)
(-1.3216e-05 5.55857e-06 0.094342)
(-1.91154e-05 8.04712e-08 0.100925)
(-1.88971e-05 1.13996e-08 0.100821)
(-1.44813e-06 2.92857e-06 0.108682)
(1.32415e-05 -5.56921e-06 0.0943436)
(-2.11236e-06 -6.68573e-07 0.109933)
(-1.57678e-05 4.36804e-06 0.0942421)
(-2.09964e-06 -6.60524e-07 0.109933)
(1.912e-05 -7.90832e-08 0.100926)
(-9.38448e-06 -9.72689e-08 0.0926372)
(8.52882e-06 -2.16792e-06 0.082594)
(-9.51454e-06 2.28605e-07 0.0825268)
(1.06182e-05 -1.19726e-07 0.0926987)
(-1.89113e-05 -4.15272e-09 0.100821)
(-1.54971e-06 -2.99268e-06 0.10868)
(-2.11707e-06 6.19472e-07 0.109932)
(1.32441e-05 5.60111e-06 0.0943418)
(-2.10117e-06 6.08484e-07 0.109932)
(-1.58428e-05 -4.40071e-06 0.0942421)
(1.91115e-05 9.15933e-08 0.100926)
(-9.38913e-06 1.29279e-07 0.0926371)
(8.57354e-06 2.1948e-06 0.082593)
(-9.57894e-06 -2.34671e-07 0.0825279)
(1.06177e-05 1.52566e-07 0.0926986)
(-3.92052e-06 2.74725e-06 0.0715071)
(-4.149e-06 5.12855e-06 0.0882734)
(-5.16699e-06 4.19484e-06 0.0882744)
(-2.81376e-06 4.00577e-06 0.0715062)
(1.13756e-08 -1.89075e-05 0.10082)
(-6.78659e-07 -2.05817e-06 0.109932)
(-5.60113e-06 1.32877e-05 0.0943424)
(-6.79323e-07 -2.03575e-06 0.109932)
(-8.25331e-08 1.91182e-05 0.100926)
(-1.53403e-09 -1.89134e-05 0.10082)
(-2.91243e-06 -1.46196e-06 0.108681)
(6.48156e-07 -2.07776e-06 0.109932)
(5.60731e-06 1.32914e-05 0.0943418)
(6.47285e-07 -2.04082e-06 0.109932)
(-4.4006e-06 -1.58139e-05 0.0942411)
(7.51646e-08 1.9106e-05 0.100926)
(-1.10813e-07 -9.43236e-06 0.092637)
(-2.18371e-06 8.58295e-06 0.0825931)
(-1.33849e-07 1.06385e-05 0.0926982)
(1.28295e-07 -9.43367e-06 0.0926368)
(2.19332e-06 8.57677e-06 0.0825933)
(-2.47765e-07 -9.56081e-06 0.0825275)
(1.19091e-07 1.06254e-05 0.0926983)
(-6.70797e-05 -6.70969e-05 0.106313)
(4.19253e-06 5.15178e-06 0.0882743)
(5.17085e-06 4.19478e-06 0.0882721)
(-5.7338e-06 -5.53124e-06 0.0882104)
(-5.50919e-06 -5.73131e-06 0.0882089)
(4.00988e-06 2.80326e-06 0.0715061)
(-4.34141e-06 -2.59628e-06 0.0714442)
(2.81066e-06 4.0067e-06 0.0715055)
(-2.58754e-06 -4.33886e-06 0.0714438)
(2.591e-06 4.33677e-06 0.0714447)
(4.30864e-06 2.59296e-06 0.0714435)
(5.78672e-06 1.19546e-05 0.0927642)
(-8.56959e-06 -1.72539e-05 0.0979512)
(5.51603e-06 5.7991e-06 0.0882123)
(-2.7831e-06 -4.25087e-06 0.0820096)
(2.59928e-06 4.941e-06 0.0819584)
(1.07936e-05 1.80062e-05 0.0978791)
(-4.96652e-06 -1.25099e-05 0.0928197)
(1.18121e-05 5.43667e-06 0.0927494)
(-1.7398e-05 -8.66031e-06 0.0979588)
(5.65154e-06 5.50281e-06 0.0882082)
(-4.17078e-06 -2.73962e-06 0.0820078)
(4.81257e-06 2.42239e-06 0.0819507)
(1.77794e-05 1.06305e-05 0.0978687)
(-1.24354e-05 -5.1059e-06 0.0928235)
(3.76011e-06 3.70761e-06 0.0842156)
(-2.79564e-06 -1.84075e-06 0.0685717)
(-1.90662e-06 -2.79176e-06 0.0685665)
(2.58428e-06 2.25201e-06 0.0685197)
(2.21994e-06 2.51321e-06 0.068513)
(-3.78955e-06 -3.73691e-06 0.0842647)
(5.23012e-07 -4.74841e-06 0.0770607)
(-2.95307e-07 4.81561e-06 0.0788624)
(-3.25529e-07 9.11824e-06 0.0908739)
(-1.3443e-07 -1.06279e-05 0.092699)
(-1.28458e-06 4.95123e-06 0.0770072)
(4.09708e-08 -4.53624e-06 0.0789082)
(-5.73327e-07 -1.05095e-05 0.0909415)
(-1.95342e-06 4.28016e-06 0.0683312)
(2.42324e-07 9.5513e-06 0.0825278)
(-1.63883e-06 -8.17008e-06 0.0864162)
(-6.89765e-07 7.85864e-06 0.0863435)
(1.158e-07 -3.84992e-06 0.0684042)
(-1.28604e-06 4.95441e-06 0.0770072)
(-1.20667e-07 9.37099e-06 0.0926372)
(3.92646e-08 -4.52768e-06 0.0789081)
(-5.73192e-07 -1.05101e-05 0.0909414)
(-2.94738e-07 4.82053e-06 0.0788624)
(-3.21768e-07 9.11777e-06 0.0908738)
(5.18744e-07 -4.74012e-06 0.0770606)
(-5.33689e-07 -4.81846e-06 0.0770602)
(2.89605e-07 4.82466e-06 0.0788628)
(3.0653e-07 9.15306e-06 0.0908742)
(1.37047e-07 -1.0628e-05 0.092699)
(1.27202e-06 5.01264e-06 0.0770095)
(-4.62948e-08 -4.54213e-06 0.0789082)
(5.75759e-07 -1.05517e-05 0.090941)
(1.91405e-06 4.36946e-06 0.0683319)
(-2.36497e-07 9.58688e-06 0.0825276)
(1.65776e-06 -8.19265e-06 0.086415)
(6.79257e-07 7.90998e-06 0.0863435)
(-7.27032e-08 -3.94539e-06 0.0684006)
(-7.74232e-08 -3.94961e-06 0.0684006)
(6.79788e-07 7.90842e-06 0.0863436)
(2.19232e-06 -8.57479e-06 0.0825929)
(1.91367e-06 4.36931e-06 0.068332)
(1.65743e-06 -8.19516e-06 0.086415)
(1.27114e-06 5.01359e-06 0.0770095)
(1.07384e-07 9.37859e-06 0.0926372)
(-4.42536e-08 -4.53433e-06 0.0789082)
(5.75292e-07 -1.05483e-05 0.0909409)
(2.89107e-07 4.82822e-06 0.0788627)
(3.01262e-07 9.15569e-06 0.0908742)
(-5.28706e-07 -4.81445e-06 0.0770601)
(-2.59854e-06 4.33505e-06 0.0714438)
(2.79287e-06 -4.01135e-06 0.0715058)
(3.7786e-06 -3.81277e-06 0.0842648)
(-2.55675e-06 2.21749e-06 0.0685139)
(-2.24308e-06 2.51894e-06 0.0685192)
(-3.75014e-06 3.71265e-06 0.0842157)
(2.77257e-06 -1.87617e-06 0.0685666)
(1.85505e-06 -2.80164e-06 0.0685719)
(-5.63952e-06 1.18496e-05 0.0927526)
(8.56007e-06 -1.73253e-05 0.0979537)
(-5.51357e-06 5.71654e-06 0.088209)
(2.71818e-06 -4.2215e-06 0.0820068)
(-1.07463e-05 1.7898e-05 0.0978714)
(-2.50525e-06 4.83596e-06 0.0819518)
(5.02018e-06 -1.242e-05 0.0928182)
(-1.18784e-05 5.57843e-06 0.0927605)
(1.73332e-05 -8.60741e-06 0.0979576)
(-5.66628e-06 5.45631e-06 0.08821)
(4.20605e-06 -2.74024e-06 0.0820116)
(-4.84395e-06 2.46987e-06 0.0819563)
(-1.78723e-05 1.06879e-05 0.097876)
(1.24152e-05 -5.05936e-06 0.0928259)
(5.0205e-06 -1.24244e-05 0.0928182)
(-2.50831e-06 4.83182e-06 0.0819518)
(-1.0732e-05 1.793e-05 0.0978714)
(5.10962e-06 -4.17166e-06 0.0882731)
(8.56246e-06 -1.73043e-05 0.0979537)
(-5.63717e-06 1.18487e-05 0.0927526)
(2.71772e-06 -4.2309e-06 0.0820069)
(1.24233e-05 -5.06263e-06 0.092826)
(-4.84039e-06 2.47245e-06 0.0819563)
(-1.79047e-05 1.06747e-05 0.097876)
(4.13606e-06 -5.10194e-06 0.0882756)
(-1.18765e-05 5.57659e-06 0.0927606)
(4.21417e-06 -2.74079e-06 0.0820116)
(1.73114e-05 -8.60909e-06 0.0979577)
(-3.75069e-06 3.71419e-06 0.0842157)
(2.77246e-06 -1.87256e-06 0.0685666)
(1.85339e-06 -2.79984e-06 0.0685719)
(-2.55592e-06 2.22115e-06 0.0685139)
(-2.24454e-06 2.51984e-06 0.0685192)
(3.77324e-06 -3.80488e-06 0.0842648)
(-4.24687e-06 2.52244e-06 0.0714414)
(3.91065e-06 -2.75161e-06 0.0715074)
(4.35347e-06 -1.84615e-06 0.0683324)
(9.56328e-06 2.4413e-07 0.0825275)
(-8.20234e-06 -1.60862e-06 0.0864148)
(7.90317e-06 -6.3398e-07 0.0863441)
(-3.95694e-06 1.31251e-07 0.0684007)
(5.02424e-06 -1.23821e-06 0.0770099)
(9.42978e-06 -9.24267e-08 0.0926375)
(-1.05277e-05 -5.42816e-07 0.0909405)
(-4.59531e-06 5.55912e-08 0.0789071)
(9.19015e-06 -2.78495e-07 0.0908744)
(4.89181e-06 -2.68791e-07 0.0788642)
(-4.81731e-06 5.55236e-07 0.07706)
(4.27428e-06 1.94898e-06 0.0683306)
(9.51327e-06 -2.31083e-07 0.0825259)
(-8.152e-06 1.6212e-06 0.0864159)
(7.87144e-06 6.94143e-07 0.0863429)
(-3.85724e-06 -1.09747e-07 0.0684038)
(4.95691e-06 1.26955e-06 0.0770073)
(9.43038e-06 1.3558e-07 0.0926375)
(-4.58452e-06 -2.90863e-08 0.078907)
(-1.05078e-05 5.54201e-07 0.0909408)
(4.88705e-06 2.98629e-07 0.0788638)
(9.14047e-06 3.22405e-07 0.0908736)
(-4.75892e-06 -5.30334e-07 0.0770604)
(4.81454e-06 5.54536e-07 0.0770602)
(-9.16789e-06 -2.84989e-07 0.0908742)
(-4.82446e-06 -2.74226e-07 0.0788627)
(1.06183e-05 -1.23267e-07 0.0926988)
(-5.01252e-06 -1.24565e-06 0.0770095)
(1.0534e-05 -5.51542e-07 0.090941)
(4.54171e-06 5.79536e-08 0.078908)
(-4.35758e-06 -1.86858e-06 0.0683323)
(-9.51703e-06 2.27499e-07 0.0825268)
(8.19184e-06 -1.62262e-06 0.0864156)
(-7.89644e-06 -6.4784e-07 0.0863437)
(3.9517e-06 1.09734e-07 0.0684011)
(3.95411e-06 1.14342e-07 0.0684011)
(-7.8938e-06 -6.47348e-07 0.0863438)
(8.5296e-06 -2.16419e-06 0.082594)
(-4.35695e-06 -1.86672e-06 0.0683323)
(8.19491e-06 -1.61524e-06 0.0864156)
(-5.01536e-06 -1.24768e-06 0.0770095)
(-9.38912e-06 -9.84732e-08 0.0926371)
(1.0529e-05 -5.51063e-07 0.090941)
(4.53481e-06 5.76853e-08 0.078908)
(-9.17021e-06 -2.81845e-07 0.0908741)
(-4.82876e-06 -2.75249e-07 0.0788626)
(4.81342e-06 5.51007e-07 0.0770602)
(4.81186e-06 -5.26769e-07 0.0770595)
(-4.8286e-06 3.0639e-07 0.0788625)
(-9.16674e-06 3.10398e-07 0.0908741)
(1.06153e-05 1.52509e-07 0.0926986)
(-5.01942e-06 1.27637e-06 0.0770089)
(4.53875e-06 -2.90434e-08 0.0789079)
(1.05386e-05 5.81593e-07 0.0909407)
(-4.3685e-06 1.90711e-06 0.0683339)
(-9.58183e-06 -2.33408e-07 0.0825279)
(8.18764e-06 1.65679e-06 0.0864157)
(-7.91447e-06 6.74185e-07 0.0863443)
(3.94504e-06 -7.75394e-08 0.0684025)
(3.94964e-06 -8.31304e-08 0.0684025)
(-7.91145e-06 6.71518e-07 0.0863443)
(8.57596e-06 2.19466e-06 0.082593)
(-4.36763e-06 1.90465e-06 0.0683339)
(8.19131e-06 1.65439e-06 0.0864158)
(-5.01996e-06 1.27842e-06 0.0770089)
(-9.39442e-06 1.25235e-07 0.0926371)
(4.53131e-06 -2.78375e-08 0.0789078)
(1.05342e-05 5.83256e-07 0.0909407)
(-4.83256e-06 3.06092e-07 0.0788625)
(-9.17018e-06 3.07364e-07 0.090874)
(4.80707e-06 -5.21001e-07 0.0770594)
(4.25046e-06 -2.53764e-06 0.0714407)
(1.18347e-05 -5.63998e-06 0.092752)
(-1.73247e-05 8.55833e-06 0.0979535)
(5.70132e-06 -5.50916e-06 0.0882069)
(-4.23478e-06 2.74174e-06 0.0820061)
(1.78839e-05 -1.07459e-05 0.0978709)
(4.84545e-06 -2.52686e-06 0.0819503)
(-1.24079e-05 5.00898e-06 0.0928176)
(5.56943e-06 -1.18741e-05 0.09276)
(-8.61551e-06 1.73531e-05 0.0979566)
(5.50087e-06 -5.72574e-06 0.0882107)
(-2.74931e-06 4.20662e-06 0.0820114)
(2.47027e-06 -4.85479e-06 0.0819562)
(1.0699e-05 -1.78844e-05 0.0978753)
(-5.03949e-06 1.24073e-05 0.0928251)
(3.7164e-06 -3.74876e-06 0.0842152)
(-1.86395e-06 2.78959e-06 0.0685656)
(-2.80119e-06 1.8452e-06 0.0685717)
(2.22058e-06 -2.55447e-06 0.0685127)
(2.52954e-06 -2.24482e-06 0.068519)
(-3.78882e-06 3.77664e-06 0.0842643)
(2.58834e-06 -4.34029e-06 0.0714445)
(5.39207e-07 4.82391e-06 0.0770595)
(-2.98876e-07 -9.18022e-06 0.090874)
(-2.85831e-07 -4.88804e-06 0.078864)
(-1.40098e-07 1.06412e-05 0.0926982)
(-1.25483e-06 -5.02116e-06 0.0770092)
(-5.66674e-07 1.0534e-05 0.0909407)
(3.87027e-08 4.60438e-06 0.0789071)
(-1.87699e-06 -4.35939e-06 0.0683346)
(2.42352e-07 -9.57354e-06 0.0825282)
(-1.63332e-06 8.19813e-06 0.0864154)
(-6.51235e-07 -7.91081e-06 0.086345)
(1.02895e-07 3.95035e-06 0.0684027)
(1.03442e-07 3.95079e-06 0.0684027)
(-1.62956e-06 8.1978e-06 0.0864155)
(-1.25458e-06 -5.02495e-06 0.0770092)
(-1.12667e-07 -9.43249e-06 0.092637)
(-5.60916e-07 1.05303e-05 0.0909406)
(4.0989e-08 4.59877e-06 0.0789071)
(-2.93991e-07 -9.18087e-06 0.090874)
(-2.85488e-07 -4.89221e-06 0.0788639)
(5.40692e-07 4.82296e-06 0.0770594)
(-5.64366e-07 4.76294e-06 0.0770618)
(3.05856e-07 -9.14536e-06 0.0908727)
(2.83002e-07 -4.88593e-06 0.0788638)
(1.17788e-07 1.06268e-05 0.0926984)
(1.24158e-06 -4.97107e-06 0.077008)
(5.30086e-07 1.04852e-05 0.0909419)
(-4.71607e-08 4.5943e-06 0.0789074)
(1.90765e-06 -4.27617e-06 0.0683295)
(-2.46076e-07 -9.5623e-06 0.0825275)
(1.61268e-06 8.15671e-06 0.0864164)
(6.65638e-07 -7.86084e-06 0.0863423)
(-1.53088e-07 3.86412e-06 0.0684034)
(-1.58267e-07 3.8679e-06 0.0684034)
(6.64432e-07 -7.86047e-06 0.0863424)
(2.19543e-06 8.57919e-06 0.0825933)
(1.90733e-06 -4.27681e-06 0.0683296)
(1.61374e-06 8.16175e-06 0.0864163)
(1.24056e-06 -4.97201e-06 0.077008)
(1.22875e-07 -9.43575e-06 0.0926368)
(5.31194e-07 1.04808e-05 0.0909419)
(-4.52388e-08 4.58853e-06 0.0789074)
(2.98574e-07 -9.14789e-06 0.0908726)
(2.81749e-07 -4.88999e-06 0.0788638)
(-5.59071e-07 4.75765e-06 0.0770618)
(3.80316e-06 3.77184e-06 0.0842644)
(-2.2181e-06 -2.55824e-06 0.0685193)
(-2.53516e-06 -2.24135e-06 0.0685135)
(-3.7143e-06 -3.74309e-06 0.0842156)
(1.86995e-06 2.78193e-06 0.0685719)
(2.81397e-06 1.85014e-06 0.0685658)
(-1.18576e-05 -5.61716e-06 0.0927603)
(1.73213e-05 8.5587e-06 0.0979562)
(-5.73913e-06 -5.53437e-06 0.0882104)
(4.23258e-06 2.73705e-06 0.0820112)
(-1.79223e-05 -1.07421e-05 0.0978754)
(-4.85174e-06 -2.5173e-06 0.0819561)
(1.24136e-05 4.99786e-06 0.0928251)
(-5.59725e-06 -1.18753e-05 0.0927527)
(8.62335e-06 1.73345e-05 0.0979529)
(-5.51122e-06 -5.7366e-06 0.0882089)
(2.78673e-06 4.24715e-06 0.0820058)
(-1.06949e-05 -1.788e-05 0.0978716)
(-2.50959e-06 -4.89179e-06 0.081952)
(5.0655e-06 1.24094e-05 0.0928174)
(1.24225e-05 5.00164e-06 0.0928251)
(-4.84724e-06 -2.51987e-06 0.0819562)
(-1.7951e-05 -1.0728e-05 0.0978754)
(4.20166e-06 5.15198e-06 0.0882744)
(-1.18554e-05 -5.61424e-06 0.0927603)
(1.73017e-05 8.56184e-06 0.0979563)
(4.24272e-06 2.73621e-06 0.0820112)
(5.06638e-06 1.24146e-05 0.0928174)
(-2.51212e-06 -4.88767e-06 0.081952)
(-1.06831e-05 -1.79063e-05 0.0978717)
(5.17124e-06 4.20381e-06 0.0882722)
(-5.59427e-06 -1.18731e-05 0.0927527)
(8.62412e-06 1.7319e-05 0.0979529)
(2.78699e-06 4.25799e-06 0.0820058)
(-3.71536e-06 -3.74473e-06 0.0842156)
(1.86788e-06 2.78114e-06 0.0685719)
(2.81371e-06 1.84626e-06 0.0685658)
(-2.22049e-06 -2.55823e-06 0.0685192)
(-2.53533e-06 -2.24473e-06 0.0685135)
(3.79571e-06 3.76411e-06 0.0842643)
(-4.3408e-06 -2.59872e-06 0.0714442)
(4.01088e-06 2.80491e-06 0.0715061)
(-2.59005e-06 -4.33884e-06 0.0714437)
(2.81159e-06 4.00798e-06 0.0715056)
(1.61034e-05 1.58803e-05 0.0992174)
(6.70706e-05 6.69642e-05 0.106314)
(-6.53478e-05 -1.82353e-05 0.103559)
(-1.80982e-05 -6.53199e-05 0.103564)
(6.4983e-05 1.83565e-05 0.10343)
(1.84246e-05 6.48387e-05 0.103422)
(-1.73829e-05 -1.77289e-05 0.0993223)
(-1.60189e-05 1.59544e-05 0.0992172)
(-6.70264e-05 6.69828e-05 0.106314)
(6.53432e-05 -1.81393e-05 0.10356)
(1.8172e-05 -6.54038e-05 0.103563)
(-6.49376e-05 1.83826e-05 0.103424)
(-1.8409e-05 6.4915e-05 0.103428)
(1.75327e-05 -1.75408e-05 0.099323)
(1.5946e-05 -1.60374e-05 0.0992171)
(6.70168e-05 -6.70564e-05 0.106313)
(-1.81321e-05 6.53513e-05 0.10356)
(-6.54125e-05 1.81752e-05 0.103562)
(1.83742e-05 -6.49419e-05 0.103424)
(6.49127e-05 -1.8414e-05 0.103428)
(-1.75312e-05 1.75244e-05 0.0993219)
(-1.59824e-05 -1.60072e-05 0.0992172)
(-6.70367e-05 -6.70548e-05 0.106313)
(1.81458e-05 6.53767e-05 0.103562)
(6.5363e-05 1.81492e-05 0.103559)
(-1.84217e-05 -6.49769e-05 0.103428)
(-6.48763e-05 -1.8395e-05 0.103424)
(1.75412e-05 1.75029e-05 0.0993219)
(1.20728e-06 -9.03345e-07 0.111122)
(-9.18433e-07 1.25522e-06 0.111122)
(1.21403e-06 -9.05749e-07 0.111122)
(8.73135e-07 8.88289e-07 0.111435)
(8.77268e-07 8.91295e-07 0.111435)
(2.40195e-06 -2.37847e-06 0.110619)
(-1.25181e-06 -8.89001e-07 0.111122)
(9.10576e-07 1.26039e-06 0.111122)
(-1.24502e-06 -8.95625e-07 0.111122)
(9.19443e-07 1.25313e-06 0.111122)
(-8.88853e-07 9.02428e-07 0.111435)
(-8.89124e-07 9.03361e-07 0.111435)
(-9.0518e-07 -1.20268e-06 0.111122)
(1.15621e-06 9.19947e-07 0.111122)
(1.13585e-06 9.25671e-07 0.111122)
(8.45139e-07 -9.28148e-07 0.111435)
(8.51304e-07 -9.2665e-07 0.111435)
(2.40639e-06 2.37986e-06 0.110618)
(9.11156e-07 -1.24672e-06 0.111122)
(-1.20548e-06 9.1523e-07 0.111122)
(9.22804e-07 -1.22983e-06 0.111122)
(-1.1871e-06 9.23216e-07 0.111122)
(-8.77637e-07 -9.22552e-07 0.111435)
(-8.80554e-07 -9.18113e-07 0.111435)
(8.03703e-07 -8.4369e-05 0.10535)
(1.64761e-07 1.84577e-05 0.0995856)
(-2.72764e-07 8.09652e-05 0.105905)
(-7.95323e-08 -1.91533e-05 0.100926)
(2.94121e-07 8.07021e-05 0.105153)
(-7.53949e-07 -1.9414e-05 0.099704)
(5.47854e-07 -8.33137e-05 0.106064)
(1.9341e-06 8.15492e-05 0.10358)
(-3.15092e-06 -7.04519e-05 0.101589)
(4.38991e-06 1.59049e-05 0.0942426)
(-2.88391e-06 -1.79072e-05 0.0973836)
(5.43955e-06 7.43226e-05 0.101468)
(8.63168e-07 1.78089e-05 0.0972608)
(-5.57314e-07 -8.27659e-05 0.103776)
(2.86641e-07 8.07158e-05 0.105153)
(2.00223e-08 1.8902e-05 0.100821)
(-7.43686e-07 -1.93746e-05 0.0997038)
(5.42911e-07 -8.33008e-05 0.106064)
(1.73582e-07 1.84666e-05 0.0995856)
(-2.83341e-07 8.09835e-05 0.105905)
(8.04486e-07 -8.43506e-05 0.10535)
(-8.20768e-07 -8.43881e-05 0.10535)
(-1.5853e-07 1.84581e-05 0.0995845)
(2.79811e-07 8.0984e-05 0.105905)
(8.51079e-08 -1.91507e-05 0.100926)
(-2.80823e-07 8.06769e-05 0.105152)
(7.55204e-07 -1.94427e-05 0.0997034)
(-5.66645e-07 -8.32934e-05 0.106064)
(-1.94543e-06 8.15553e-05 0.103578)
(3.09764e-06 -7.04351e-05 0.101589)
(-4.40255e-06 1.58663e-05 0.0942408)
(2.90277e-06 -1.79373e-05 0.0973829)
(-8.41048e-07 1.78026e-05 0.0972587)
(-5.47381e-06 7.43312e-05 0.101465)
(4.8509e-07 -8.27337e-05 0.103776)
(4.86309e-07 -8.27517e-05 0.103776)
(-8.40352e-07 1.77999e-05 0.0972588)
(-5.45725e-06 7.43069e-05 0.101465)
(5.59089e-06 -1.32627e-05 0.0943414)
(-1.94137e-06 8.15355e-05 0.103578)
(2.90464e-06 -1.7958e-05 0.0973829)
(3.10415e-06 -7.04559e-05 0.101589)
(-2.77633e-07 8.06853e-05 0.105152)
(-1.24614e-08 1.89074e-05 0.100821)
(7.50009e-07 -1.94105e-05 0.0997034)
(-5.66739e-07 -8.32857e-05 0.106064)
(-1.60942e-07 1.8455e-05 0.0995845)
(2.82282e-07 8.09988e-05 0.105905)
(-8.21065e-07 -8.43773e-05 0.10535)
(1.75342e-05 -1.754e-05 0.0993231)
(7.29131e-05 -7.28814e-05 0.106514)
(-6.4922e-05 1.83574e-05 0.103424)
(-1.83842e-05 6.4897e-05 0.103428)
(6.53634e-05 -1.81614e-05 0.10356)
(-1.60511e-05 1.59873e-05 0.0992172)
(1.81946e-05 -6.54245e-05 0.103563)
(8.14626e-05 1.99783e-06 0.103578)
(-7.05305e-05 -3.11016e-06 0.101591)
(1.57481e-05 4.40809e-06 0.0942413)
(-1.79901e-05 -2.88594e-06 0.0973833)
(7.42261e-05 5.49433e-06 0.101465)
(1.77485e-05 8.66659e-07 0.0972594)
(-8.28106e-05 -4.21092e-07 0.103777)
(8.07506e-05 2.79063e-07 0.105151)
(1.89292e-05 1.65562e-08 0.10082)
(-1.93978e-05 -7.27674e-07 0.0997031)
(-8.32902e-05 5.69472e-07 0.106063)
(1.84701e-05 1.7426e-07 0.0995844)
(8.10083e-05 -2.75866e-07 0.105904)
(-8.4321e-05 8.41725e-07 0.10535)
(8.15596e-05 -1.95433e-06 0.103578)
(-7.04767e-05 3.08674e-06 0.10159)
(1.58256e-05 -4.39801e-06 0.0942404)
(-1.79125e-05 2.87095e-06 0.0973834)
(1.78008e-05 -8.50757e-07 0.0972596)
(7.42851e-05 -5.47137e-06 0.101465)
(-8.27365e-05 4.747e-07 0.103776)
(8.07246e-05 -2.69017e-07 0.105152)
(1.89434e-05 2.7471e-09 0.100821)
(-8.32763e-05 -5.49136e-07 0.106063)
(-1.9383e-05 7.34951e-07 0.0997032)
(8.1026e-05 3.03657e-07 0.105904)
(1.84719e-05 -1.5515e-07 0.0995848)
(-8.4358e-05 -8.21477e-07 0.105349)
(8.43255e-05 8.20395e-07 0.105351)
(-1.84622e-05 1.62173e-07 0.0995845)
(-8.09751e-05 -2.93735e-07 0.105905)
(1.91433e-05 -7.95677e-08 0.100926)
(-8.0742e-05 2.68625e-07 0.105152)
(1.94152e-05 -7.39341e-07 0.0997043)
(8.33079e-05 5.5953e-07 0.106064)
(-8.15102e-05 1.94971e-06 0.103579)
(7.0485e-05 -3.14055e-06 0.101592)
(-1.57773e-05 4.37729e-06 0.0942421)
(1.79624e-05 -2.87243e-06 0.0973847)
(-7.42473e-05 5.46385e-06 0.101468)
(-1.77633e-05 8.55923e-07 0.0972595)
(8.27655e-05 -4.96614e-07 0.103778)
(8.27844e-05 -5.01422e-07 0.103778)
(-1.77576e-05 8.56027e-07 0.0972595)
(-7.42193e-05 5.44677e-06 0.101468)
(1.32647e-05 -5.57776e-06 0.0943436)
(-8.14896e-05 1.95003e-06 0.103579)
(7.05094e-05 -3.15116e-06 0.101592)
(1.79763e-05 -2.87268e-06 0.0973847)
(-8.07474e-05 2.65769e-07 0.105152)
(-1.89078e-05 1.40336e-08 0.100821)
(1.93912e-05 -7.36129e-07 0.0997042)
(8.32998e-05 5.56516e-07 0.106064)
(-1.84695e-05 1.67754e-07 0.0995845)
(-8.09897e-05 -2.92004e-07 0.105905)
(8.43186e-05 8.18489e-07 0.105351)
(8.43674e-05 -8.17485e-07 0.10535)
(-8.09941e-05 2.85018e-07 0.105905)
(-1.84788e-05 -1.59339e-07 0.099585)
(1.91334e-05 9.37184e-08 0.100926)
(-8.07102e-05 -2.93707e-07 0.105153)
(8.32916e-05 -5.45104e-07 0.106064)
(1.94164e-05 7.60144e-07 0.0997036)
(-8.15715e-05 -1.97088e-06 0.103579)
(7.0453e-05 3.13299e-06 0.10159)
(-1.58542e-05 -4.40896e-06 0.0942421)
(1.79362e-05 2.90379e-06 0.0973839)
(-1.7791e-05 -8.53714e-07 0.09726)
(-7.4313e-05 -5.47356e-06 0.101467)
(8.27279e-05 5.01779e-07 0.103776)
(8.27491e-05 5.02059e-07 0.103776)
(-1.77879e-05 -8.54814e-07 0.09726)
(-7.42845e-05 -5.45741e-06 0.101467)
(1.326e-05 5.6051e-06 0.0943419)
(-8.15475e-05 -1.96742e-06 0.103579)
(1.79561e-05 2.90421e-06 0.0973839)
(7.04779e-05 3.13895e-06 0.10159)
(-8.07166e-05 -2.91206e-07 0.105153)
(-1.89186e-05 -3.86319e-09 0.100821)
(8.32855e-05 -5.4438e-07 0.106064)
(1.93843e-05 7.55764e-07 0.0997036)
(-8.10043e-05 2.89527e-07 0.105905)
(-1.8474e-05 -1.59873e-07 0.099585)
(8.43589e-05 -8.19242e-07 0.10535)
(7.93432e-07 8.43305e-05 0.10535)
(-2.92974e-07 -8.10075e-05 0.105904)
(1.64384e-07 -1.84594e-05 0.0995842)
(-8.37926e-08 1.91433e-05 0.100926)
(2.48823e-07 -8.07532e-05 0.105152)
(5.45427e-07 8.32848e-05 0.106063)
(-7.48846e-07 1.94215e-05 0.0997039)
(1.92488e-06 -8.15319e-05 0.103579)
(-3.148e-06 7.04961e-05 0.101591)
(4.40601e-06 -1.58303e-05 0.0942423)
(-2.88646e-06 1.7969e-05 0.0973841)
(5.46574e-06 -7.4269e-05 0.101467)
(8.65702e-07 -1.77956e-05 0.0972603)
(-5.21505e-07 8.27709e-05 0.103777)
(-5.2776e-07 8.27837e-05 0.103777)
(-2.88866e-06 1.79753e-05 0.0973843)
(2.44955e-07 -8.0762e-05 0.105152)
(1.57367e-08 -1.89201e-05 0.10082)
(5.40191e-07 8.32741e-05 0.106063)
(-7.42705e-07 1.94e-05 0.0997038)
(-2.88928e-07 -8.10239e-05 0.105904)
(1.71406e-07 -1.84716e-05 0.0995843)
(7.88935e-07 8.43188e-05 0.10535)
(-8.23662e-07 8.4301e-05 0.105349)
(2.92399e-07 -8.10343e-05 0.105904)
(-1.71617e-07 -1.84502e-05 0.0995833)
(7.8685e-08 1.91284e-05 0.100926)
(-2.52218e-07 -8.07551e-05 0.105151)
(-5.52646e-07 8.32505e-05 0.106063)
(7.21827e-07 1.9396e-05 0.0997037)
(-1.9293e-06 -8.14813e-05 0.103578)
(3.15095e-06 7.05035e-05 0.10159)
(-4.40809e-06 -1.58241e-05 0.0942411)
(2.87672e-06 1.79617e-05 0.0973837)
(-8.71857e-07 -1.77462e-05 0.0972585)
(-5.44899e-06 -7.42561e-05 0.101465)
(4.9455e-07 8.27931e-05 0.103776)
(4.9655e-07 8.28059e-05 0.103776)
(-8.71187e-07 -1.77488e-05 0.0972586)
(-5.43266e-06 -7.4232e-05 0.101465)
(5.61066e-06 1.33026e-05 0.0943418)
(-1.92458e-06 -8.14662e-05 0.103578)
(2.87985e-06 1.79825e-05 0.0973837)
(3.15643e-06 7.05228e-05 0.10159)
(-2.47857e-07 -8.07665e-05 0.105151)
(-1.12763e-09 -1.89232e-05 0.10082)
(-5.52993e-07 8.32386e-05 0.106063)
(7.13731e-07 1.93629e-05 0.0997038)
(2.98161e-07 -8.10506e-05 0.105904)
(-1.77159e-07 -1.84471e-05 0.0995833)
(-8.25844e-07 8.42862e-05 0.105349)
(1.75486e-05 1.75061e-05 0.0993219)
(7.28656e-05 7.28843e-05 0.106512)
(-1.83931e-05 -6.49569e-05 0.103428)
(-6.48609e-05 -1.83666e-05 0.103425)
(-1.60101e-05 -1.60379e-05 0.0992172)
(1.81708e-05 6.54012e-05 0.103562)
(6.53825e-05 1.81741e-05 0.10356)
(6.07057e-05 6.0741e-05 0.108929)
(-9.71519e-05 5.9683e-05 0.107975)
(5.96592e-05 -9.71583e-05 0.107975)
(-0.000157895 -0.000157945 0.106622)
(-5.3207e-06 -5.35718e-06 0.106777)
(6.01002e-05 9.79139e-05 0.107927)
(-6.01677e-05 9.79875e-05 0.107927)
(5.39214e-06 -5.317e-06 0.106778)
(9.79207e-05 6.01231e-05 0.107928)
(9.79814e-05 -6.01576e-05 0.107927)
(-9.78734e-05 6.00602e-05 0.107927)
(-9.7964e-05 -6.01325e-05 0.107927)
(-5.30212e-06 5.38963e-06 0.106777)
(6.00264e-05 -9.78649e-05 0.107927)
(-6.00281e-05 -9.78425e-05 0.107927)
(5.34755e-06 5.37715e-06 0.106777)
(0.000157951 0.000157857 0.106622)
(-7.57011e-06 -7.62298e-06 0.106815)
(5.97547e-05 9.72551e-05 0.107974)
(-5.97918e-05 9.72809e-05 0.107974)
(5.91147e-05 9.56072e-05 0.108108)
(-5.91543e-05 9.56991e-05 0.108109)
(-0.000157909 0.000157877 0.106622)
(7.82331e-06 -7.75664e-06 0.106816)
(9.71725e-05 5.96928e-05 0.107974)
(9.72719e-05 -5.97802e-05 0.107974)
(9.56728e-05 5.92119e-05 0.10811)
(9.5683e-05 -5.91387e-05 0.108108)
(-9.72558e-05 -5.97555e-05 0.107974)
(-9.55468e-05 5.90445e-05 0.10811)
(-9.56664e-05 -5.91132e-05 0.108109)
(0.000157909 -0.000157968 0.106622)
(-7.74516e-06 7.86521e-06 0.106815)
(-5.96561e-05 -9.71181e-05 0.107974)
(5.89843e-05 -9.55625e-05 0.108109)
(-5.90042e-05 -9.55123e-05 0.108109)
(7.79499e-06 7.8111e-06 0.106815)
(6.11672e-05 6.12098e-05 0.108853)
(-6.11908e-05 6.11788e-05 0.108853)
(6.11795e-05 -6.11871e-05 0.108853)
(-6.11944e-05 -6.11983e-05 0.108853)
(1.82297e-06 2.12432e-05 0.0940167)
(-1.52598e-06 1.95234e-05 0.0835877)
(1.93692e-06 4.40466e-05 0.0940744)
(-4.1742e-06 2.03095e-07 0.0835692)
(-2.009e-06 6.82014e-06 0.0721729)
(3.92207e-06 -1.58587e-06 0.0721797)
(2.12057e-05 1.81406e-06 0.0940161)
(1.95816e-05 -1.513e-06 0.0835885)
(4.4134e-05 1.94851e-06 0.0940746)
(1.57858e-07 -4.18775e-06 0.0835685)
(-6.07263e-05 6.07137e-05 0.108929)
(6.07167e-05 -6.07204e-05 0.108928)
(-6.07309e-05 -6.07326e-05 0.108929)
(5.97047e-05 5.97785e-05 0.109152)
(-5.97581e-05 5.97412e-05 0.109152)
(5.97498e-05 -5.97549e-05 0.109152)
(-5.97645e-05 -5.97664e-05 0.109152)
(-6.14158e-05 4.33466e-06 0.102461)
(-6.06371e-05 1.64085e-05 0.0957188)
(-0.000100952 1.86211e-05 0.10862)
(-9.65392e-05 5.93754e-05 0.108021)
(-0.000105154 4.66993e-06 0.102453)
(-2.8606e-05 4.72353e-06 0.0957168)
(-0.000100562 1.8479e-05 0.108686)
(6.74089e-06 -1.94815e-06 0.0721702)
(-1.48981e-06 3.86265e-06 0.0721819)
(4.29191e-06 -6.14843e-05 0.102461)
(1.86094e-05 -0.000100887 0.10862)
(1.64405e-05 -6.06339e-05 0.0957196)
(5.93484e-05 -9.65269e-05 0.108021)
(4.65127e-06 -0.000105225 0.102452)
(1.84634e-05 -0.000100505 0.108686)
(4.69117e-06 -2.84838e-05 0.0957151)
(-2.88555e-05 -1.2678e-05 0.0893993)
(-1.26457e-05 -2.88617e-05 0.0893975)
(6.67978e-06 6.70352e-06 0.106799)
(-1.82729e-05 -5.06901e-07 0.0893684)
(-4.63835e-07 -1.82774e-05 0.0893658)
(-3.27921e-06 -1.76373e-06 0.0722605)
(1.93638e-06 6.76967e-06 0.0722528)
(-1.83922e-06 -3.33736e-06 0.072258)
(6.84776e-06 2.01179e-06 0.0722531)
(0.000160137 0.000160069 0.106601)
(1.28327e-06 1.92998e-05 0.0895007)
(1.92265e-05 1.20082e-06 0.0894981)
(1.30453e-05 3.02267e-05 0.0895353)
(3.02874e-05 1.30556e-05 0.0895328)
(2.10293e-06 4.69151e-05 0.0942419)
(-3.7072e-06 3.73625e-07 0.0836848)
(-1.39152e-06 2.06358e-05 0.0837084)
(1.98642e-06 2.37073e-05 0.0941779)
(-2.08277e-06 4.69234e-05 0.094242)
(3.72686e-06 3.42864e-07 0.0836835)
(1.37604e-06 2.07039e-05 0.0837093)
(-1.97279e-06 2.37208e-05 0.0941779)
(5.19627e-06 0.000109255 0.102585)
(6.04589e-05 9.85974e-05 0.107879)
(5.49458e-06 3.05734e-05 0.0958667)
(1.8835e-05 0.000101388 0.108554)
(1.71731e-05 6.33726e-05 0.0958723)
(1.90205e-05 0.000101789 0.108487)
(4.84048e-06 6.47164e-05 0.102595)
(-5.17738e-06 0.000109267 0.102585)
(-6.05057e-05 9.86387e-05 0.107878)
(-5.49094e-06 3.05075e-05 0.0958649)
(-1.88037e-05 0.000101407 0.108554)
(-1.72023e-05 6.34202e-05 0.0958723)
(-1.90003e-05 0.000101801 0.108487)
(-4.8078e-06 6.47113e-05 0.102594)
(3.3498e-06 -1.86607e-06 0.0722578)
(-2.03201e-06 6.86462e-06 0.072254)
(-0.000160097 0.000160057 0.106601)
(-1.2194e-06 1.92204e-05 0.0894979)
(-1.93072e-05 1.25763e-06 0.0895011)
(-1.30876e-05 3.03022e-05 0.0895337)
(-3.02126e-05 1.3003e-05 0.0895348)
(1.76398e-06 -3.29119e-06 0.0722604)
(-6.76699e-06 1.93466e-06 0.0722522)
(4.69816e-05 2.09925e-06 0.0942421)
(3.28741e-07 -3.71669e-06 0.083684)
(2.06837e-05 -1.38215e-06 0.0837091)
(2.37053e-05 1.98631e-06 0.0941772)
(0.000109257 5.19819e-06 0.102585)
(9.85526e-05 6.04059e-05 0.107879)
(3.04796e-05 5.46917e-06 0.0958659)
(0.000101412 1.87606e-05 0.108554)
(6.3386e-05 1.71816e-05 0.0958721)
(0.000101812 1.89607e-05 0.108487)
(6.46895e-05 4.84265e-06 0.102595)
(4.69865e-05 -2.06994e-06 0.0942422)
(3.9134e-07 3.70578e-06 0.0836846)
(2.06587e-05 1.38691e-06 0.0837078)
(2.37176e-05 -1.98066e-06 0.0941769)
(0.000109262 -5.17388e-06 0.102585)
(9.86454e-05 -6.05022e-05 0.107878)
(0.000101416 -1.88209e-05 0.108554)
(3.05315e-05 -5.52552e-06 0.095866)
(0.000101807 -1.90203e-05 0.108487)
(6.33359e-05 -1.71972e-05 0.0958707)
(6.4681e-05 -4.83079e-06 0.102594)
(-0.000109241 5.19172e-06 0.102585)
(-9.85418e-05 6.04041e-05 0.107879)
(-3.057e-05 5.5068e-06 0.095868)
(-0.000101417 1.87993e-05 0.108554)
(-6.33516e-05 1.71652e-05 0.0958727)
(-0.000101815 1.89945e-05 0.108487)
(-6.47037e-05 4.84171e-06 0.102595)
(-4.69472e-05 2.10586e-06 0.0942418)